/*--------------------------------*- C++ -*----------------------------------*\
  =========                 |
  \\      /  F ield         | OpenFOAM: The Open Source CFD Toolbox
   \\    /   O peration     | Website:  https://openfoam.org
    \\  /    A nd           | Version:  12
     \\/     M anipulation  |
\*---------------------------------------------------------------------------*/
FoamFile
{
    format      ascii;
    class       volScalarField;
    location    "400";
    object      epsilon;
}
// * * * * * * * * * * * * * * * * * * * * * * * * * * * * * * * * * * * * * //

dimensions      [0 2 -3 0 0 0 0];

internalField   nonuniform List<scalar> 
80
(
415.907
153.74
97.0889
76.6992
67.6736
63.6105
62.2367
62.5618
64.0883
66.5353
69.7251
73.5301
77.8458
82.576
87.6243
92.8892
98.2624
103.628
108.863
113.841
118.433
122.515
125.969
128.691
130.597
131.625
131.744
130.959
129.31
126.877
123.777
120.163
116.215
112.135
108.135
104.421
101.189
98.6062
96.8072
95.8842
95.8843
96.8076
98.6069
101.19
104.422
108.136
112.137
116.216
120.164
123.778
126.878
129.311
130.959
131.744
131.624
130.596
128.69
125.967
122.513
118.431
113.838
108.86
103.625
98.2597
92.8865
87.6216
82.5734
77.8432
73.5276
69.7227
66.533
64.0861
62.5597
62.2347
63.6086
67.6717
76.6972
97.0866
153.736
415.898
)
;

boundaryField
{
    lowerWall
    {
        type            epsilonWallFunction;
        value           uniform 415.907;
    }
    upperWall
    {
        type            epsilonWallFunction;
        value           uniform 415.898;
    }
    front
    {
        type            cyclic;
    }
    back
    {
        type            cyclic;
    }
    defaultFaces
    {
        type            empty;
    }
}


// ************************************************************************* //
