/*--------------------------------*- C++ -*----------------------------------*\
  =========                 |
  \\      /  F ield         | OpenFOAM: The Open Source CFD Toolbox
   \\    /   O peration     | Website:  https://openfoam.org
    \\  /    A nd           | Version:  12
     \\/     M anipulation  |
\*---------------------------------------------------------------------------*/
FoamFile
{
    format      ascii;
    class       volSymmTensorField;
    location    "400";
    object      R;
}
// * * * * * * * * * * * * * * * * * * * * * * * * * * * * * * * * * * * * * //

dimensions      [0 2 -2 0 0 0 0];

internalField   nonuniform List<symmTensor> 
80
(
(0.501391 -0.622665 -0 0.501391 -0 0.501391)
(0.631225 -0.251246 -0 0.631225 -0 0.631225)
(0.729791 -0.267369 -0 0.729791 -0 0.729791)
(0.813852 -0.291389 -0 0.813852 -0 0.813852)
(0.890495 -0.322416 -0 0.890495 -0 0.890495)
(0.963619 -0.358293 -0 0.963619 -0 0.963619)
(1.03554 -0.397784 -0 1.03554 -0 1.03554)
(1.10771 -0.440233 -0 1.10771 -0 1.10771)
(1.18103 -0.485314 -0 1.18103 -0 1.18103)
(1.25604 -0.532878 -0 1.25604 -0 1.25604)
(1.33298 -0.582854 -0 1.33298 -0 1.33298)
(1.41185 -0.635166 -0 1.41185 -0 1.41185)
(1.49242 -0.689684 -0 1.49242 -0 1.49242)
(1.57427 -0.746171 -0 1.57427 -0 1.57427)
(1.65679 -0.80426 -0 1.65679 -0 1.65679)
(1.73921 -0.86343 -0 1.73921 -0 1.73921)
(1.82062 -0.922998 -0 1.82062 -0 1.82062)
(1.89999 -0.982118 -0 1.89999 -0 1.89999)
(1.9762 -1.03979 -0 1.9762 -0 1.9762)
(2.04809 -1.09485 -0 2.04809 -0 2.04809)
(2.11447 -1.14606 -0 2.11447 -0 2.11447)
(2.17419 -1.19203 -0 2.17419 -0 2.17419)
(2.22619 -1.23137 -0 2.22619 -0 2.22619)
(2.26948 -1.26263 -0 2.26948 -0 2.26948)
(2.30331 -1.2844 -0 2.30331 -0 2.30331)
(2.32709 -1.29537 -0 2.32709 -0 2.32709)
(2.34053 -1.29431 -0 2.34053 -0 2.34053)
(2.34364 -1.28018 -0 2.34364 -0 2.34364)
(2.3368 -1.25214 -0 2.3368 -0 2.3368)
(2.32075 -1.20963 -0 2.32075 -0 2.32075)
(2.29659 -1.15232 -0 2.29659 -0 2.29659)
(2.26584 -1.08023 -0 2.26584 -0 2.26584)
(2.23031 -0.993676 -0 2.23031 -0 2.23031)
(2.19211 -0.893307 -0 2.19211 -0 2.19211)
(2.15351 -0.780102 -0 2.15351 -0 2.15351)
(2.11684 -0.655356 -0 2.11684 -0 2.11684)
(2.08432 -0.520664 -0 2.08432 -0 2.08432)
(2.05798 -0.377898 -0 2.05798 -0 2.05798)
(2.03944 -0.22917 -0 2.03944 -0 2.03944)
(2.02987 -0.0767835 -0 2.02987 -0 2.02987)
(2.02988 0.0768368 -0 2.02988 -0 2.02988)
(2.03945 0.229223 -0 2.03945 -0 2.03945)
(2.05798 0.377948 -0 2.05798 -0 2.05798)
(2.08433 0.520712 -0 2.08433 -0 2.08433)
(2.11685 0.655401 -0 2.11685 -0 2.11685)
(2.15352 0.780143 -0 2.15352 -0 2.15352)
(2.19212 0.893344 -0 2.19212 -0 2.19212)
(2.23032 0.993707 -0 2.23032 -0 2.23032)
(2.26585 1.08026 -0 2.26585 -0 2.26585)
(2.2966 1.15234 -0 2.2966 -0 2.2966)
(2.32075 1.20964 -0 2.32075 -0 2.32075)
(2.3368 1.25215 -0 2.3368 -0 2.3368)
(2.34364 1.28018 -0 2.34364 -0 2.34364)
(2.34052 1.29431 -0 2.34052 -0 2.34052)
(2.32707 1.29536 -0 2.32707 -0 2.32707)
(2.30329 1.28439 -0 2.30329 -0 2.30329)
(2.26947 1.26261 -0 2.26947 -0 2.26947)
(2.22616 1.23135 -0 2.22616 -0 2.22616)
(2.17417 1.19201 -0 2.17417 -0 2.17417)
(2.11444 1.14604 -0 2.11444 -0 2.11444)
(2.04805 1.09483 -0 2.04805 -0 2.04805)
(1.97617 1.03976 -0 1.97617 -0 1.97617)
(1.89995 0.982095 -0 1.89995 -0 1.89995)
(1.82059 0.922975 -0 1.82059 -0 1.82059)
(1.73918 0.863407 -0 1.73918 -0 1.73918)
(1.65676 0.804238 -0 1.65676 -0 1.65676)
(1.57423 0.74615 -0 1.57423 -0 1.57423)
(1.49238 0.689664 -0 1.49238 -0 1.49238)
(1.41181 0.635149 -0 1.41181 -0 1.41181)
(1.33295 0.582838 -0 1.33295 -0 1.33295)
(1.25601 0.532865 -0 1.25601 -0 1.25601)
(1.181 0.485302 -0 1.181 -0 1.181)
(1.10768 0.440223 -0 1.10768 -0 1.10768)
(1.03552 0.397776 -0 1.03552 -0 1.03552)
(0.963597 0.358287 -0 0.963597 -0 0.963597)
(0.890474 0.322411 -0 0.890474 -0 0.890474)
(0.813834 0.291385 -0 0.813834 -0 0.813834)
(0.729776 0.267365 -0 0.729776 -0 0.729776)
(0.631213 0.251243 -0 0.631213 -0 0.631213)
(0.501383 0.622656 -0 0.501383 -0 0.501383)
)
;

boundaryField
{
    lowerWall
    {
        type            calculated;
        value           uniform (0.501391 -0.108948 -0 0.501391 -0 0.501391);
    }
    upperWall
    {
        type            calculated;
        value           uniform (0.501383 0.108946 -0 0.501383 -0 0.501383);
    }
    front
    {
        type            cyclic;
    }
    back
    {
        type            cyclic;
    }
    defaultFaces
    {
        type            empty;
    }
}


// ************************************************************************* //
