/*--------------------------------*- C++ -*----------------------------------*\
  =========                 |
  \\      /  F ield         | OpenFOAM: The Open Source CFD Toolbox
   \\    /   O peration     | Website:  https://openfoam.org
    \\  /    A nd           | Version:  12
     \\/     M anipulation  |
\*---------------------------------------------------------------------------*/
FoamFile
{
    format      ascii;
    class       volVectorField;
    location    "400";
    object      U;
}
// * * * * * * * * * * * * * * * * * * * * * * * * * * * * * * * * * * * * * //

dimensions      [0 1 -1 0 0 0 0];

internalField   nonuniform List<vector> 
80
(
(5.94412 0 0)
(6.77371 0 0)
(7.14095 0 0)
(7.37543 0 0)
(7.55752 0 0)
(7.71513 0 0)
(7.86054 0 0)
(8.00014 0 0)
(8.13765 0 0)
(8.27544 0 0)
(8.41511 0 0)
(8.55781 0 0)
(8.70437 0 0)
(8.8554 0 0)
(9.01131 0 0)
(9.17235 0 0)
(9.33865 0 0)
(9.51016 0 0)
(9.68671 0 0)
(9.86799 0 0)
(10.0535 0 0)
(10.2428 0 0)
(10.435 0 0)
(10.6292 0 0)
(10.8244 0 0)
(11.0195 0 0)
(11.2131 0 0)
(11.4038 0 0)
(11.59 0 0)
(11.7699 0 0)
(11.9418 0 0)
(12.1037 0 0)
(12.2539 0 0)
(12.3903 0 0)
(12.5113 0 0)
(12.6149 0 0)
(12.6998 0 0)
(12.7646 0 0)
(12.8084 0 0)
(12.8305 0 0)
(12.8305 0 0)
(12.8084 0 0)
(12.7646 0 0)
(12.6998 0 0)
(12.6149 0 0)
(12.5112 0 0)
(12.3903 0 0)
(12.2538 0 0)
(12.1037 0 0)
(11.9417 0 0)
(11.7698 0 0)
(11.5899 0 0)
(11.4038 0 0)
(11.2131 0 0)
(11.0195 0 0)
(10.8244 0 0)
(10.6291 0 0)
(10.4349 0 0)
(10.2427 0 0)
(10.0535 0 0)
(9.86793 0 0)
(9.68665 0 0)
(9.5101 0 0)
(9.33859 0 0)
(9.1723 0 0)
(9.01126 0 0)
(8.85535 0 0)
(8.70432 0 0)
(8.55776 0 0)
(8.41507 0 0)
(8.2754 0 0)
(8.13762 0 0)
(8.00011 0 0)
(7.86051 0 0)
(7.71509 0 0)
(7.55749 0 0)
(7.3754 0 0)
(7.14092 0 0)
(6.77367 0 0)
(5.94408 0 0)
)
;

boundaryField
{
    lowerWall
    {
        type            noSlip;
    }
    upperWall
    {
        type            noSlip;
    }
    front
    {
        type            cyclic;
    }
    back
    {
        type            cyclic;
    }
    defaultFaces
    {
        type            empty;
    }
}


// ************************************************************************* //
