/*--------------------------------*- C++ -*----------------------------------*\
  =========                 |
  \\      /  F ield         | OpenFOAM: The Open Source CFD Toolbox
   \\    /   O peration     | Website:  https://openfoam.org
    \\  /    A nd           | Version:  12
     \\/     M anipulation  |
\*---------------------------------------------------------------------------*/
FoamFile
{
    format      ascii;
    class       surfaceScalarField;
    location    "6.08";
    object      phi;
}
// * * * * * * * * * * * * * * * * * * * * * * * * * * * * * * * * * * * * * //

dimensions      [1 0 -1 0 0 0 0];

internalField   nonuniform List<scalar> 
7429
(
3.02274e-05
-3.02275e-05
6.09954e-05
-3.07682e-05
9.16725e-05
-3.06772e-05
0.000122039
-3.03668e-05
0.000151891
-2.9852e-05
0.00018108
-2.91888e-05
0.000209588
-2.85084e-05
0.00023771
-2.81221e-05
0.000265136
-2.74269e-05
0.000291276
-2.61393e-05
0.000315768
-2.44924e-05
0.000338374
-2.26064e-05
0.000358972
-2.05982e-05
0.000377516
-1.85445e-05
0.000394069
-1.65528e-05
0.000408806
-1.47366e-05
0.000421999
-1.31935e-05
0.000434048
-1.20497e-05
0.000445413
-1.13649e-05
0.000456663
-1.12498e-05
0.000468407
-1.17443e-05
0.000481315
-1.29083e-05
0.000496079
-1.47636e-05
0.000513381
-1.73028e-05
0.000533933
-2.0552e-05
0.000558348
-2.44146e-05
0.000587157
-2.88098e-05
0.000620847
-3.36898e-05
0.000659791
-3.89439e-05
0.000704249
-4.4458e-05
0.000754353
-5.0104e-05
0.000810129
-5.57756e-05
0.000871435
-6.13062e-05
0.0009379
-6.64651e-05
0.00100875
-7.08506e-05
0.00108362
-7.48658e-05
0.00116272
-7.90994e-05
0.00124577
-8.30496e-05
0.00133222
-8.64549e-05
0.00142136
-8.91428e-05
0.00151231
-9.09483e-05
0.00160413
-9.18168e-05
0.0016957
-9.15747e-05
0.00178592
-9.02185e-05
0.00187355
-8.76331e-05
0.00195727
-8.37126e-05
0.00203589
-7.86266e-05
0.00210805
-7.21607e-05
0.00217237
-6.43178e-05
0.00222767
-5.52973e-05
0.00227283
-4.51561e-05
0.00230672
-3.38966e-05
0.00232826
-2.15325e-05
0.00233648
-8.22741e-06
0.00232697
9.51395e-06
0.00230109
2.58783e-05
0.00225894
4.21482e-05
0.00220038
5.85633e-05
0.00212574
7.46437e-05
0.00203521
9.05259e-05
0.00192935
0.000105859
0.00180867
0.000120682
0.00167384
0.000134834
0.00152567
0.000148165
0.00136525
0.000160422
0.00119398
0.000171271
0.0010134
0.000180578
0.000825367
0.000188035
0.000631901
0.000193466
0.000435243
0.000196658
0.000237564
0.000197679
4.14173e-05
0.000196146
-0.000150612
0.00019203
-0.000336104
0.000185492
-0.000512501
0.000176397
-0.000677185
0.000164684
-0.00082782
0.000150635
-0.000962103
0.000134284
-0.00107793
0.000115823
-0.00117339
9.54659e-05
-0.00124712
7.37284e-05
-0.00129788
5.07581e-05
-0.00132505
2.71683e-05
-0.00132851
3.46328e-06
-0.00130438
-2.4127e-05
-0.00125579
-4.85882e-05
-0.00118442
-7.13757e-05
-0.00109186
-9.25598e-05
-0.000980002
-0.000111857
-0.000851089
-0.000128913
-0.000707902
-0.000143187
-0.000553627
-0.000154275
-0.000391774
-0.000161853
-0.000226064
-0.00016571
-6.05096e-05
-0.000165554
0.000100893
-0.000161403
0.000254181
-0.000153287
0.000395463
-0.000141283
0.000521233
-0.000125769
0.000628178
-0.000106946
0.000713514
-8.53354e-05
0.000775176
-6.16621e-05
0.000811636
-3.64602e-05
0.00082226
-1.06235e-05
0.000804608
1.76512e-05
0.000761485
4.3123e-05
0.000695036
6.6449e-05
0.000607621
8.74149e-05
0.000502367
0.000105255
0.000383089
0.000119278
0.000254221
0.000128868
0.000120613
0.000133608
-1.27205e-05
0.000133333
-0.00014054
0.00012782
-0.000257948
0.000117408
-0.000360336
0.000102388
-0.000443655
8.33187e-05
-0.000504703
6.10482e-05
-0.000541155
3.64524e-05
-0.000552017
1.08616e-05
-0.000534424
-1.75926e-05
-0.000491397
-4.30275e-05
-0.00042564
-6.57564e-05
-0.000340314
-8.53261e-05
-0.000239626
-0.000100689
-0.000128527
-0.000111099
-1.26358e-05
-0.000115892
0.00010203
-0.000114666
0.000209739
-0.000107709
0.000304927
-9.51882e-05
0.000382574
-7.76471e-05
0.0004387
-5.61258e-05
0.000470361
-3.16609e-05
0.000476084
-5.72294e-06
0.000452981
2.31027e-05
0.000404238
4.87433e-05
0.000332292
7.19453e-05
0.000240534
9.17585e-05
0.000133366
0.000107168
1.61943e-05
0.000117172
-0.000105569
0.000121763
-0.000225823
0.000120254
-0.000338917
0.000113094
-0.000439529
0.000100612
-0.00052314
8.36113e-05
-0.000586179
6.30389e-05
-0.000626194
4.00146e-05
-0.000641953
1.57589e-05
-0.000632624
-9.32889e-06
-0.000600061
-3.25632e-05
-0.000546469
-5.35915e-05
-0.000474937
-7.15316e-05
-0.000389306
-8.56313e-05
-0.000293972
-9.53341e-05
-0.000193557
-0.000100415
-9.27781e-05
-0.000100779
3.9093e-06
-9.66874e-05
9.24371e-05
-8.85278e-05
0.000169266
-7.68289e-05
0.00023169
-6.24242e-05
0.000277697
-4.60066e-05
0.000306196
-2.84986e-05
0.000317006
-1.081e-05
0.000310579
6.42695e-06
0.00028838
2.21988e-05
0.000252427
3.59524e-05
0.000205257
4.71707e-05
0.000149835
5.54221e-05
8.91894e-05
6.06452e-05
2.67497e-05
6.24397e-05
-3.44098e-05
6.11596e-05
-9.13154e-05
5.69055e-05
-0.000141274
4.99591e-05
-0.000182046
4.07711e-05
-0.000211877
2.98311e-05
-0.000229583
1.77058e-05
-0.0002345
4.91734e-06
-0.000226474
-8.02565e-06
-0.000206097
-2.03773e-05
-0.00017437
-3.17271e-05
-0.00013272
-4.16496e-05
-8.30483e-05
-4.96719e-05
-2.7466e-05
-5.55824e-05
3.16826e-05
-5.91486e-05
9.19084e-05
-6.02257e-05
0.00015073
-5.88221e-05
0.000205662
-5.49312e-05
0.000254475
-4.8813e-05
0.000295081
-4.06067e-05
0.000325743
-3.06612e-05
0.000345067
-1.93244e-05
0.000352098
-7.03143e-06
0.000346271
5.82705e-06
0.000327539
1.87328e-05
0.000296324
3.12145e-05
0.000253515
4.28086e-05
0.000200486
5.30289e-05
0.000139024
6.14623e-05
7.1348e-05
6.76762e-05
7.1348e-05
4.80297e-05
-7.82573e-05
9.66789e-05
-7.94176e-05
0.000144825
-7.88235e-05
0.000191886
-7.7428e-05
0.000237263
-7.52292e-05
0.000280306
-7.22327e-05
0.000320258
-6.846e-05
0.000356106
-6.397e-05
0.000387524
-5.88457e-05
0.000414631
-5.32464e-05
0.000437565
-4.74265e-05
0.000456932
-4.19737e-05
0.000472555
-3.62218e-05
0.000484012
-3.00016e-05
0.000491374
-2.39143e-05
0.00049507
-1.84331e-05
0.000495595
-1.37186e-05
0.000493445
-9.89951e-06
0.000489216
-7.13684e-06
0.00048354
-5.57401e-06
0.000477196
-5.40004e-06
0.000471068
-6.78094e-06
0.000466197
-9.89186e-06
0.00046373
-1.48362e-05
0.000464946
-2.17683e-05
0.000471072
-3.05406e-05
0.00048336
-4.10982e-05
0.000502582
-5.29112e-05
0.00052934
-6.57028e-05
0.000563813
-7.89306e-05
0.000605579
-9.187e-05
0.000653851
-0.000104048
0.00070952
-0.000116976
0.000773476
-0.000130421
0.000846308
-0.000143683
0.000927655
-0.000156213
0.00101635
-0.000167798
0.00111136
-0.000178053
0.00121161
-0.000186704
0.00131597
-0.000193506
0.00142321
-0.000198192
0.00153198
-0.000200588
0.00164089
-0.000200485
0.00174845
-0.000197776
0.00185315
-0.000192327
0.00195343
-0.000184
0.00204764
-0.000172831
0.00213441
-0.000158937
0.00221224
-0.00014214
0.00227953
-0.000122587
0.00233489
-0.000100516
0.002377
-7.60113e-05
0.00240479
-4.93248e-05
0.00241736
-2.07977e-05
0.00241026
1.66229e-05
0.00238492
5.12185e-05
0.00234162
8.54417e-05
0.00228046
0.000119723
0.00220162
0.000153489
0.00210535
0.000186788
0.00199201
0.000219206
0.00186206
0.000250629
0.00171625
0.000280645
0.00155569
0.000308725
0.0013817
0.000334411
0.00119595
0.000357021
0.00100021
0.000376315
0.00079667
0.000391579
0.000587572
0.000402564
0.000375399
0.000408832
0.000162654
0.000410424
-4.77947e-05
0.000406595
-0.0002532
0.000397435
-0.00045079
0.000383082
-0.000637708
0.000363315
-0.000811136
0.000338112
-0.000968574
0.000308073
-0.00110755
0.000273257
-0.00122585
0.000234124
-0.00132162
0.000191236
-0.00139332
0.000145432
-0.00143977
9.72057e-05
-0.00146
4.74013e-05
-0.00145123
-5.30458e-06
-0.00141623
-5.91275e-05
-0.00135548
-0.000109346
-0.00127024
-0.000156615
-0.00116213
-0.000200668
-0.00103327
-0.000240717
-0.000886471
-0.000275712
-0.000724891
-0.000304766
-0.00055216
-0.000327007
-0.000372277
-0.000341735
-0.000189357
-0.00034863
-7.80849e-06
-0.000347103
0.000168018
-0.000337229
0.000333778
-0.000319048
0.000485128
-0.000292633
0.000618355
-0.000258996
0.000730075
-0.000218666
0.000817368
-0.000172629
0.000877981
-0.000122274
0.000910478
-6.8957e-05
0.000913641
-1.37866e-05
0.000886842
4.44497e-05
0.00083277
9.71948e-05
0.000753311
0.000145909
0.000651237
0.000189489
0.000530259
0.000226233
0.000394786
0.000254751
0.000249781
0.000273872
0.000100746
0.000282643
-4.67398e-05
0.000280819
-0.000187042
0.000268122
-0.00031472
0.000245085
-0.000424809
0.000212477
-0.000513003
0.000171513
-0.000575835
0.00012388
-0.00061109
7.17072e-05
-0.000617257
1.70288e-05
-0.000593263
-4.15866e-05
-0.000541932
-9.43587e-05
-0.000465886
-0.000141802
-0.000368863
-0.000182349
-0.000255792
-0.000213759
-0.000132277
-0.000234614
-4.50535e-06
-0.000243663
0.000121053
-0.000240224
0.000237944
-0.0002246
0.000340247
-0.000197491
0.000422775
-0.000160175
0.00048133
-0.000114681
0.000513015
-6.33454e-05
0.000516239
-8.9473e-06
0.000490113
4.92287e-05
0.000436983
0.000101873
0.000359546
0.000149382
0.000261757
0.000189547
0.000148748
0.000220177
2.5915e-05
0.000240005
-0.000100152
0.00024783
-0.000223606
0.000243708
-0.000338537
0.000228025
-0.000439593
0.000201668
-0.000522288
0.000166307
-0.000583285
0.000124036
-0.000620398
7.71272e-05
-0.000632494
2.78554e-05
-0.000619682
-2.21415e-05
-0.000583764
-6.84812e-05
-0.000527188
-0.000110167
-0.000453327
-0.000145393
-0.000366293
-0.000172666
-0.00027055
-0.000191077
-0.000170833
-0.000200132
-7.17658e-05
-0.000199846
2.23177e-05
-0.000190771
0.000107491
-0.000173701
0.000180498
-0.000149836
0.000238791
-0.000120717
0.000280743
-8.79584e-05
0.000305378
-5.31341e-05
0.000312815
-1.82471e-05
0.000303716
1.55256e-05
0.000279665
4.62506e-05
0.000242654
7.29636e-05
0.000195352
9.44723e-05
0.000140496
0.000110278
8.14361e-05
0.000119705
2.09069e-05
0.000122969
-3.78458e-05
0.000119912
-9.20746e-05
0.000111134
-0.000139308
9.71925e-05
-0.000177551
7.90138e-05
-0.000205188
5.74682e-05
-0.000221147
3.36654e-05
-0.000225037
8.80646e-06
-0.000216756
-1.6306e-05
-0.00019691
-4.02233e-05
-0.000166508
-6.21293e-05
-0.000126964
-8.11939e-05
-8.00576e-05
-9.65781e-05
-2.77998e-05
-0.00010784
2.75303e-05
-0.000114479
8.36979e-05
-0.000116393
0.000138386
-0.00011351
0.000189353
-0.000105898
0.000234501
-9.39606e-05
0.000271965
-7.80713e-05
0.000300164
-5.88595e-05
0.000317853
-3.70133e-05
0.000324176
-1.33552e-05
0.000318663
1.13401e-05
0.000301292
3.61045e-05
0.000272464
6.00422e-05
0.000233026
8.22461e-05
0.000184221
0.000101834
0.000127723
0.00011796
6.55393e-05
0.00012986
0.000136887
7.53898e-05
-0.000153647
0.000150582
-0.00015461
0.000224337
-0.000152579
0.000295506
-0.000148597
0.000363034
-0.000142758
0.000426093
-0.000135292
0.000484033
-0.0001264
0.000536113
-0.00011605
0.000581019
-0.000103753
0.000616697
-8.8924e-05
0.00064037
-7.11001e-05
0.000648989
-5.05928e-05
0.00064101
-2.82429e-05
0.000614795
-3.78759e-06
0.000570921
1.99595e-05
0.000520178
3.23099e-05
0.000461524
4.49348e-05
0.00039792
5.37047e-05
0.000330219
6.05641e-05
0.000260145
6.44997e-05
0.00018975
6.49941e-05
0.000121158
6.18113e-05
5.62432e-05
5.50228e-05
-3.9379e-06
4.53447e-05
-5.71234e-05
3.14171e-05
-0.000100788
1.31237e-05
-0.000121815
-2.00714e-05
-0.000124176
-5.05506e-05
-0.000109159
-8.07197e-05
-7.73955e-05
-0.000110694
-2.90944e-05
-0.000140171
3.56856e-05
-0.000168828
0.000113543
-0.000194833
0.00020303
-0.000219908
0.000305318
-0.000245971
0.000420299
-0.000271194
0.000547093
-0.000294592
0.000684365
-0.000315326
0.000830465
-0.000332803
0.000983596
-0.000346637
0.00114164
-0.000356234
0.00130262
-0.000361572
0.00146413
-0.000361995
0.00162387
-0.000357519
0.00177977
-0.000348219
0.00192912
-0.000333348
0.00206969
-0.000313404
0.00219961
-0.000288857
0.00231709
-0.000259624
0.00241972
-0.000225209
0.00250568
-0.000186482
0.00257341
-0.000143742
0.00262168
-9.75945e-05
0.00264847
-4.75818e-05
0.00265366
1.14258e-05
0.00263617
6.87121e-05
0.00259592
0.000125693
0.00253299
0.000182656
0.00244741
0.000239065
0.00233911
0.000295088
0.00220873
0.000349582
0.00205707
0.000402289
0.00188536
0.000452359
0.00169557
0.000498516
0.00148938
0.000540604
0.00126908
0.000577312
0.00103702
0.000608385
0.000795949
0.000632645
0.000548787
0.000649727
0.000298634
0.000658985
4.86698e-05
0.000660388
-0.000197621
0.000652886
-0.000436824
0.000636638
-0.000665636
0.000611894
-0.000880746
0.000578425
-0.00107869
0.000536052
-0.00125656
0.00048595
-0.00141143
0.000428122
-0.0015408
0.000363493
-0.00164248
0.000292922
-0.00171469
0.000217639
-0.00175599
0.000138509
-0.00176567
5.70747e-05
-0.00174079
-3.01851e-05
-0.00168537
-0.000114545
-0.00159983
-0.000194884
-0.00148546
-0.000270988
-0.00134442
-0.000341705
-0.00117954
-0.0004056
-0.000994401
-0.000460848
-0.000792979
-0.000506188
-0.000579772
-0.000540213
-0.000359661
-0.000561846
-0.000137607
-0.000570684
8.09186e-05
-0.000565629
0.00029053
-0.000546841
0.000486052
-0.000514569
0.000662781
-0.000469362
0.000816148
-0.000412363
0.000942052
-0.00034457
0.00103729
-0.000267864
0.00109947
-0.000184456
0.00112648
-9.59681e-05
0.00111703
-4.33535e-06
0.00107377
8.77075e-05
0.000997825
0.000173142
0.000891617
0.000252117
0.000758946
0.000322159
0.000604674
0.000380506
0.000434368
0.000425056
0.000254349
0.000453892
7.12626e-05
0.000465729
-0.000108187
0.000460269
-0.000276911
0.000436846
-0.000428532
0.000396706
-0.000557154
0.000341099
-0.000657911
0.00027227
-0.000727019
0.000192988
-0.000761733
0.000106422
-0.00076081
1.6105e-05
-0.000724297
-7.80991e-05
-0.000655383
-0.000163273
-0.000557232
-0.000239953
-0.000434818
-0.000304763
-0.000294344
-0.000354233
-0.000142812
-0.000386145
1.19769e-05
-0.000398452
0.000162276
-0.000390523
0.000300651
-0.000362976
0.000420215
-0.000317055
0.00051502
-0.00025498
0.000580514
-0.000180175
0.000613745
-9.6577e-05
0.000613
-8.20156e-06
0.000578903
8.33255e-05
0.000514042
0.000166734
0.00042199
0.000241434
0.000307844
0.000303693
0.000177664
0.000350357
3.85634e-05
0.000379106
-0.000102753
0.000389146
-0.000239205
0.000380161
-0.000364211
0.000353031
-0.000472268
0.000309725
-0.000558609
0.000252647
-0.000620025
0.000185452
-0.000654433
0.000111536
-0.000661417
3.48398e-05
-0.000642121
-4.14378e-05
-0.000598298
-0.000112304
-0.000533198
-0.000175267
-0.000450845
-0.000227746
-0.000355904
-0.000267607
-0.000253339
-0.000293642
-0.000148162
-0.000305309
-4.5261e-05
-0.000302747
5.09558e-05
-0.000286988
0.000136604
-0.000259349
0.000208544
-0.000221776
0.000264513
-0.000176687
0.000302983
-0.000126428
0.000323601
-7.37517e-05
0.000326456
-2.11025e-05
0.000312857
2.91248e-05
0.000284513
7.45944e-05
0.000243664
0.000113813
0.000193068
0.000145068
0.000135782
0.000167565
7.47973e-05
0.000180689
1.34397e-05
0.000184326
-4.54817e-05
0.000178834
-9.92513e-05
0.000164904
-0.000145547
0.000143488
-0.000182471
0.000115937
-0.000208644
8.36417e-05
-0.000223199
4.82201e-05
-0.000225717
1.13252e-05
-0.000216511
-2.5512e-05
-0.000196126
-6.06091e-05
-0.00016565
-9.2605e-05
-0.000126553
-0.000120291
-8.05896e-05
-0.000142542
-2.97621e-05
-0.000158668
2.37272e-05
-0.000167968
7.77554e-05
-0.000170422
0.000130101
-0.000165856
0.00017869
-0.000154487
0.000221535
-0.000136806
0.000256942
-0.000113478
0.000283449
-8.5367e-05
0.000299954
-5.35181e-05
0.00030567
-1.90716e-05
0.000300239
1.67716e-05
0.000283663
5.26804e-05
0.000256335
8.73705e-05
0.0002191
0.00011948
0.000173137
0.000147798
0.00011999
0.000171106
6.15593e-05
0.000188291
0.000198447
0.000152486
-0.000306134
0.000304125
-0.000306248
0.000451665
-0.000300119
0.000591945
-0.000288878
0.00072163
-0.000272443
0.000837393
-0.000251055
0.000935815
-0.000224822
0.00101456
-0.00019479
0.00107195
-0.00016115
0.00110847
-0.000125443
0.00112583
-8.84586e-05
0.00112713
-5.1895e-05
0.00111581
-1.69227e-05
0.00109468
1.73415e-05
0.00105214
6.25047e-05
0.000980795
0.00010365
0.000886471
0.000139259
0.000771638
0.000168538
0.000643012
0.000189189
0.000504179
0.000203333
0.000360665
0.000208508
0.000217889
0.000204587
8.21079e-05
0.000190804
-4.18989e-05
0.000169351
-0.000148116
0.000137634
-0.000232737
9.77443e-05
-0.00030335
5.05416e-05
-0.000355095
1.19436e-06
-0.00039343
-4.23856e-05
-0.000406153
-9.79707e-05
-0.000390818
-0.000155506
-0.000344916
-0.00021473
-0.000267102
-0.000272647
-0.000158939
-0.000328071
-2.48089e-05
-0.000380101
0.000131763
-0.000427765
0.00030732
-0.000470149
0.000498465
-0.000506471
0.000701868
-0.000536207
0.000914221
-0.00055899
0.0011323
-0.000574318
0.00135271
-0.000581977
0.00157225
-0.000581537
0.00178796
-0.000573224
0.00199616
-0.000556424
0.00219465
-0.000531836
0.00238088
-0.000499638
0.00255147
-0.000459446
0.00270376
-0.00041191
0.00283617
-0.00035762
0.00294606
-0.000296372
0.00303069
-0.000228375
0.00308916
-0.000156065
0.00312358
-8.20037e-05
0.00312808
6.92783e-06
0.00310368
9.31155e-05
0.00305114
0.000178236
0.00297051
0.000263287
0.00286161
0.000347961
0.00272486
0.000431841
0.00256092
0.000513518
0.00237121
0.000592003
0.00215772
0.000665845
0.00192224
0.000733999
0.00166755
0.000795288
0.00139621
0.000848654
0.0011116
0.000892996
0.000816843
0.000927401
0.00051589
0.00095068
0.000212636
0.000962239
-8.91226e-05
0.000962146
-0.000385128
0.000948891
-0.000671127
0.000922637
-0.000943133
0.000883901
-0.00119687
0.000832164
-0.00142841
0.000767591
-0.00163412
0.000691661
-0.00181069
0.000604693
-0.0019551
0.000507901
-0.00206452
0.000402345
-0.00213703
0.000290147
-0.00217222
0.000173696
-0.00216807
5.2927e-05
-0.00212302
-7.52371e-05
-0.00204089
-0.00019667
-0.00192216
-0.000313616
-0.00176879
-0.000424356
-0.0015837
-0.000526793
-0.0013708
-0.000618508
-0.0011345
-0.000697144
-0.000879972
-0.000760717
-0.000612882
-0.000807303
-0.000339468
-0.00083526
-6.60709e-05
-0.000844081
0.00020082
-0.000832519
0.00045502
-0.000801041
0.000690122
-0.000749672
0.000899897
-0.000679137
0.00107916
-0.000591626
0.00122321
-0.000488618
0.00132825
-0.000372906
0.00139164
-0.000247842
0.00141148
-0.000115809
0.00138616
2.09804e-05
0.0013202
0.000153672
0.00121429
0.000279051
0.00107198
0.000394426
0.000898383
0.000495754
0.000699805
0.000579084
0.000483362
0.000641499
0.000256767
0.000680487
2.85381e-05
0.000693958
-0.00019264
0.000681447
-0.000398613
0.000642819
-0.000581541
0.000579634
-0.000734529
0.000494088
-0.000851663
0.000389404
-0.000928323
0.000269647
-0.000961523
0.000139622
-0.000949282
3.86397e-06
-0.000895852
-0.000131529
-0.000802662
-0.000256463
-0.000674397
-0.000368218
-0.00051763
-0.00046153
-0.000340491
-0.000531372
-0.000152146
-0.00057449
3.83336e-05
-0.000588932
0.000221329
-0.000573518
0.000387707
-0.000529354
0.000529216
-0.000458564
0.000639101
-0.000364865
0.000712489
-0.000253562
0.000746501
-0.000130589
0.000738513
-2.13026e-07
0.000693276
0.000128563
0.000611813
0.000248196
0.000499495
0.000353752
0.000362852
0.000440336
0.000209482
0.000503727
4.76311e-05
0.000540957
-0.000113961
0.000550738
-0.000267684
0.000533884
-0.000406319
0.000491666
-0.000523594
0.000427
-0.000614942
0.000343994
-0.000677016
0.000247526
-0.000708286
0.000142806
-0.000708859
3.54125e-05
-0.000680611
-6.96857e-05
-0.000626159
-0.000166756
-0.000549534
-0.000251892
-0.000455582
-0.000321697
-0.000349697
-0.000373492
-0.000237435
-0.000405904
-0.000124221
-0.000418522
-1.52985e-05
-0.00041167
8.4806e-05
-0.000387092
0.000172244
-0.000346787
0.000244006
-0.000293538
0.00029802
-0.000230701
0.000333182
-0.00016159
0.000349326
-8.98958e-05
0.000347112
-1.88891e-05
0.000328085
4.81522e-05
0.00029427
0.00010841
0.000248344
0.000159738
0.000193172
0.00020024
0.000132158
0.000228579
6.82935e-05
0.000244554
4.91172e-06
0.000247708
-5.5161e-05
0.000238906
-0.000109276
0.000219019
-0.000155262
0.000189475
-0.000191331
0.000152006
-0.000216295
0.000108606
-0.000229423
6.13472e-05
-0.000230547
1.24495e-05
-0.000220017
-3.60419e-05
-0.000198582
-8.20444e-05
-0.000167409
-0.000123777
-0.000128019
-0.000159681
-8.2209e-05
-0.000188351
-3.20124e-05
-0.000208864
2.05379e-05
-0.000220518
7.32798e-05
-0.000223163
0.000124102
-0.000216678
0.000170999
-0.000201383
0.000212174
-0.000177981
0.000246014
-0.000147318
0.00027119
-0.000110544
0.000286694
-6.90219e-05
0.000291868
-2.42459e-05
0.000286394
2.22456e-05
0.000270318
6.8757e-05
0.000244078
0.00011361
0.000208474
0.000155084
0.000164627
0.000191645
0.000114052
0.000221682
5.84958e-05
0.000243847
0.000256942
0.000323059
-0.000629193
0.000644249
-0.000627439
0.000959616
-0.000615487
0.00126512
-0.000594383
0.00155488
-0.000562202
0.00181976
-0.000515933
0.00204743
-0.000452491
0.00222718
-0.000374548
0.0023475
-0.000281467
0.00240036
-0.000178308
0.00237481
-6.29027e-05
0.00226887
5.40448e-05
0.00211128
0.000140666
0.00190225
0.000226368
0.00165797
0.000306791
0.00138279
0.000378827
0.00108194
0.000440109
0.000761771
0.000488705
0.000428044
0.000522916
8.97848e-05
0.000541591
-0.000245265
0.000543557
-0.000568919
0.000528242
-0.000873578
0.000495462
-0.00114939
0.000445166
-0.00139103
0.00037927
-0.00159189
0.000298602
-0.00174782
0.00020648
-0.00185289
0.000106257
-0.00188309
-1.21822e-05
-0.00183431
-0.000146751
-0.00173079
-0.000259023
-0.00158918
-0.000356348
-0.00141669
-0.000445138
-0.00121281
-0.000531942
-0.000979197
-0.000613719
-0.000719132
-0.000687831
-0.000436783
-0.000752499
-0.000136214
-0.00080704
0.000177853
-0.000850274
0.000500575
-0.000881712
0.000826856
-0.0009006
0.00115226
-0.000907385
0.00147298
-0.000902253
0.00178297
-0.000883209
0.00207965
-0.000853103
0.00235999
-0.000812179
0.00261947
-0.000759118
0.00285553
-0.000695504
0.0030653
-0.000621688
0.0032438
-0.000536112
0.00339059
-0.000443164
0.00350671
-0.000344496
0.00359015
-0.000239509
0.00363188
-0.00012373
0.0036425
-3.69578e-06
0.00361823
0.000117388
0.00355732
0.000239142
0.00345991
0.000360698
0.00332621
0.000481663
0.00315734
0.000600717
0.00295524
0.00071561
0.00272185
0.000825398
0.00245983
0.000927861
0.00217202
0.00102182
0.00186157
0.00110573
0.00153216
0.00117807
0.00118753
0.00123762
0.000832051
0.00128288
0.000470264
0.00131247
0.00010695
0.00132555
-0.000253133
0.00132223
-0.000604848
0.00130061
-0.000943019
0.00126081
-0.00126285
0.00120373
-0.00155956
0.00112888
-0.00182813
0.00103616
-0.00206431
0.000927845
-0.0022642
0.000804581
-0.00242443
0.000668128
-0.00254174
0.000519655
-0.00261374
0.000362142
-0.00263872
0.000198683
-0.00261796
3.21618e-05
-0.00254873
-0.000144462
-0.00243465
-0.000310747
-0.00227683
-0.000471445
-0.00207813
-0.000623054
-0.00184244
-0.000762482
-0.00157462
-0.000886325
-0.00128039
-0.000991371
-0.000966038
-0.00107507
-0.000638555
-0.00113479
-0.000305173
-0.00116864
2.64298e-05
-0.00117568
0.000348121
-0.00115421
0.000651834
-0.00110475
0.000929948
-0.00102779
0.00117541
-0.000924603
0.00138217
-0.00079838
0.00154499
-0.000651443
0.00165966
-0.000487572
0.00172191
-0.000310091
0.00173203
-0.000125934
0.00168876
6.42515e-05
0.00159514
0.000247299
0.0014536
0.000420586
0.00126916
0.000578863
0.00104833
0.000716589
0.000798829
0.000828583
0.000529577
0.000910751
0.000250439
0.000959626
-2.82787e-05
0.000972676
-0.000296395
0.000949564
-0.000543654
0.000890077
-0.000760907
0.000796887
-0.000939745
0.000672925
-0.00107329
0.000522949
-0.0011562
0.000352558
-0.00118636
0.000169779
-0.00116164
-2.08544e-05
-0.00108692
-0.000206248
-0.000964541
-0.000378842
-0.000801113
-0.000531647
-0.000604766
-0.000657877
-0.000385839
-0.000750299
-0.000155395
-0.000804934
7.51003e-05
-0.000819427
0.000293901
-0.000792318
0.000490327
-0.00072578
0.000655116
-0.000623353
0.0007805
-0.000490249
0.000861022
-0.000334083
0.000893388
-0.000162955
0.000877884
1.52912e-05
0.000817429
0.000189017
0.000715749
0.000349876
0.000579521
0.000489981
0.000417101
0.000602755
0.000237649
0.000683179
5.11274e-05
0.000727479
-0.000132905
0.000734771
-0.000305256
0.000706235
-0.000458101
0.000644511
-0.000584647
0.000553545
-0.000680234
0.000439582
-0.000742108
0.0003094
-0.000768959
0.000169657
-0.000761825
2.82779e-05
-0.0007231
-0.00010841
-0.00065654
-0.000233316
-0.000567156
-0.000341276
-0.000460601
-0.000428252
-0.000342872
-0.000491221
-0.00022028
-0.000528496
-9.86591e-05
-0.000540144
1.64992e-05
-0.000526828
0.000120564
-0.000491157
0.000209715
-0.000435938
0.000281072
-0.000364895
0.000332881
-0.000282509
0.000364344
-0.000193053
0.000375729
-0.000101281
0.00036809
-1.12501e-05
0.000343398
7.28438e-05
0.000303904
0.000147904
0.00025273
0.000210913
0.000192997
0.000259973
0.000127986
0.000293591
6.12646e-05
0.000311274
-4.24165e-06
0.000313214
-6.55027e-05
0.000300167
-0.000119983
0.000273499
-0.000165627
0.000235119
-0.000200828
0.000187206
-0.000224543
0.000132322
-0.000236226
7.30308e-05
-0.000235853
1.20757e-05
-0.000223928
-4.79662e-05
-0.000201314
-0.000104659
-0.000169295
-0.000155796
-0.000129447
-0.000199529
-8.35944e-05
-0.000234204
-3.37548e-05
-0.000258704
1.80344e-05
-0.000272308
6.97049e-05
-0.000274834
0.000119228
-0.000266202
0.000164705
-0.00024686
0.000204389
-0.000217665
0.000236835
-0.000179764
0.000260803
-0.000134512
0.000275393
-8.36123e-05
0.000280036
-2.88891e-05
0.000274467
2.78148e-05
0.000258793
8.44306e-05
0.000233451
0.000138953
0.00019924
0.000189295
0.000157243
0.000233643
0.00010888
0.000270045
5.5825e-05
0.000296902
0.000312767
0.000515988
-0.00114518
0.00102618
-0.00113763
0.00152028
-0.00110959
0.00198571
-0.00105981
0.00240991
-0.000986404
0.00278733
-0.000893354
0.00310463
-0.000769793
0.00337073
-0.000640645
0.00355943
-0.000470173
0.00368342
-0.000302299
0.00374084
-0.000120315
0.00374612
4.87583e-05
0.00363761
0.000249174
0.00342735
0.000436631
0.00312722
0.000606923
0.00274724
0.000758811
0.00230035
0.000886992
0.00179929
0.000989766
0.00125991
0.00106229
0.000698915
0.00110259
0.00013323
0.00110924
-0.000418919
0.00108039
-0.000940028
0.00101657
-0.00141179
0.000916923
-0.00182133
0.000788811
-0.00214352
0.000620793
-0.00238026
0.000443227
-0.00249698
0.000222969
-0.002533
2.38421e-05
-0.00253466
-0.000145092
-0.00247569
-0.000317996
-0.00233906
-0.00049298
-0.00212772
-0.000656472
-0.00185314
-0.000806523
-0.00152775
-0.000939112
-0.00116298
-0.0010526
-0.0007693
-0.00114618
-0.000356414
-0.00121993
6.70771e-05
-0.00127376
0.000494163
-0.0013088
0.000918633
-0.00132507
0.00133503
-0.00132378
0.00173725
-0.00130447
0.00212289
-0.00126885
0.00248597
-0.00121619
0.00282218
-0.00114839
0.00312889
-0.00106583
0.0034029
-0.000969513
0.00364186
-0.000860644
0.0038485
-0.000742756
0.0040174
-0.000612059
0.00414157
-0.00046867
0.00422602
-0.00032396
0.00426738
-0.000165089
0.0042666
-2.91329e-06
0.00422354
0.000160448
0.00413803
0.000324651
0.00400937
0.000489356
0.00383902
0.000652014
0.00362838
0.000811358
0.00337963
0.000964357
0.00309542
0.00110962
0.00277833
0.00124495
0.0024322
0.00136794
0.00206057
0.00147736
0.00166808
0.00157056
0.00125915
0.00164655
0.000839004
0.00170303
0.000412968
0.0017385
-1.31974e-05
0.00175172
-0.000433999
0.00174303
-0.000843349
0.00170996
-0.00123517
0.00165263
-0.00160386
0.00157243
-0.00194378
0.00146879
-0.00224912
0.0013415
-0.0025152
0.00119393
-0.0027374
0.00102678
-0.00291147
0.000842204
-0.00303468
0.000642863
-0.00310481
0.00043227
-0.00311944
0.000213317
-0.00307416
-1.31172e-05
-0.00297984
-0.000238782
-0.00283161
-0.000458982
-0.00263207
-0.00067099
-0.00238532
-0.000869804
-0.0020963
-0.0010515
-0.00177077
-0.00121185
-0.00141548
-0.00134666
-0.00103815
-0.0014524
-0.000647233
-0.00152571
-0.000252124
-0.00156375
0.000138227
-0.00156604
0.00051447
-0.00153045
0.000867544
-0.00145783
0.00118891
-0.00134915
0.00147013
-0.00120582
0.00170386
-0.00103211
0.00188365
-0.000831237
0.0020056
-0.000609521
0.00206548
-0.00036997
0.00206302
-0.000123473
0.00199838
0.000128888
0.00187395
0.000371729
0.00169376
0.000600779
0.00146411
0.000808513
0.00119297
0.000987727
0.000889845
0.00113171
0.000565747
0.00123485
0.000232321
0.00129305
-9.87092e-05
0.00130371
-0.0004147
0.00126555
-0.000703651
0.00117903
-0.000954554
0.00104779
-0.00115821
0.00087658
-0.00130658
0.000671324
-0.00139458
0.000440549
-0.00141908
0.000194284
-0.00138013
-5.98066e-05
-0.00128105
-0.000305331
-0.00112644
-0.000533452
-0.00092462
-0.000733463
-0.000686543
-0.000895954
-0.000423785
-0.00101306
-0.000149938
-0.00107878
0.000121099
-0.00109046
0.000375883
-0.0010471
0.000602099
-0.000951996
0.000788944
-0.000810198
0.000927902
-0.000629208
0.00101334
-0.000419522
0.00104258
-0.000192193
0.00101657
4.13017e-05
0.000938652
0.000266934
0.000814716
0.000473812
0.000653029
0.000651668
0.000463532
0.000792252
0.00025776
0.000888952
4.65839e-05
0.000938654
-0.000158875
0.00094023
-0.000348647
0.000896006
-0.000513941
0.000809806
-0.000648252
0.000687856
-0.000746621
0.000537951
-0.000806481
0.000369261
-0.000827642
0.000190817
-0.0008115
1.21364e-05
-0.000761727
-0.000158183
-0.000682857
-0.000312187
-0.000580692
-0.000443441
-0.000461778
-0.000547167
-0.000332924
-0.000620075
-0.000200863
-0.000660557
-7.1848e-05
-0.000669159
4.84976e-05
-0.000647174
0.000155495
-0.000598155
0.00024542
-0.000525863
0.000315654
-0.000435129
0.000364802
-0.000331657
0.000392201
-0.000220452
0.000398745
-0.000107825
0.000385848
1.64664e-06
0.000355638
0.000103054
0.000310972
0.00019257
0.000254964
0.00026692
0.000191078
0.000323859
0.000122815
0.000361854
5.35365e-05
0.000380553
-1.3459e-05
0.00038021
-7.54221e-05
0.000362131
-0.000129892
0.000327969
-0.000174889
0.000280117
-0.00020902
0.000221337
-0.00023135
0.000154651
-0.000241525
8.32057e-05
-0.000239663
1.02135e-05
-0.000226408
-6.1221e-05
-0.000202736
-0.00012833
-0.000170009
-0.000188524
-0.000129856
-0.000239683
-8.41447e-05
-0.000279915
-3.47846e-05
-0.000308064
1.6163e-05
-0.000323255
6.66838e-05
-0.000325355
0.000114823
-0.000314341
0.000158796
-0.000290834
0.000196992
-0.000255861
0.000228038
-0.000210809
0.000250815
-0.000157289
0.000264526
-9.73235e-05
0.000268623
-3.29861e-05
0.000262971
3.34673e-05
0.000247681
9.97201e-05
0.000223217
0.000163417
0.000190342
0.000222169
0.000150138
0.000273847
0.000103913
0.00031627
5.32616e-05
0.000347553
0.000366029
0.00111915
-0.00226433
0.00223022
-0.0022487
0.00331392
-0.0021933
0.00434717
-0.00209305
0.00530227
-0.00194151
0.00615335
-0.00174444
0.00684958
-0.00146602
0.00737839
-0.00116945
0.00762703