#              y        d.bubbles                p       alpha.air1       alpha.air2       alpha.air3    alpha.bubbles
           0.015    0.00305600394       107385.457      1.87853e-68   2.06016969e-67   5.46805929e-79            3e-06
           0.025    0.00305600394       107284.708   1.35087742e-56   3.15625718e-55    2.9149709e-68            3e-06
           0.035    0.00305600394       107183.958    2.2712808e-16   1.01376288e-25   2.30951868e-31            3e-06
           0.045    0.00300031702       107100.355      0.340964645   1.52186071e-10   3.46704915e-16      0.340966645
           0.055     0.0030009552       107032.799       0.31903948   1.67823731e-08   1.40875521e-15       0.31904148
           0.065    0.00300159809       106964.259      0.321157263   1.09663685e-07   1.26035581e-14      0.321159263
           0.075    0.00300224115       106895.804      0.320704675   4.12447134e-07   1.01149114e-13      0.320706675
           0.085    0.00300288466       106827.335      0.320872639   1.17139001e-06   5.83773925e-13       0.32087481
           0.095    0.00300352859       106758.883       0.32106479   2.77743375e-06   2.58840433e-12      0.321068567
           0.105    0.00300417284       106690.453      0.321278394   5.80005975e-06   9.41928765e-12      0.321285194
           0.115    0.00300481735       106622.044      0.321495076   1.10152441e-05   2.94433882e-11      0.321507091
           0.125    0.00300546207       106553.658      0.321710954   1.94293231e-05   8.15877143e-11      0.321731383
           0.135    0.00300610703       106485.295      0.321923276   3.22969288e-05    2.0497795e-10      0.321956573
           0.145    0.00300675224       106416.955      0.322130157   5.11334299e-05   4.74748829e-10       0.32218229
           0.155    0.00300739758       106348.637      0.322329684   7.77217872e-05   1.02660319e-09      0.322408405
           0.165    0.00300804306       106280.342      0.322519757   0.000114113073   2.09328509e-09       0.32263487
           0.175    0.00300868874       106212.069      0.322698056   0.000162621953   4.05668723e-09      0.322861678
           0.185    0.00300933455        106143.82      0.322862028   0.000225818065   7.51981471e-09      0.323088846
           0.195    0.00300998042       106075.594      0.323009165   0.000306512685   1.34032827e-08      0.323316677
           0.205    0.00301062641        106007.39      0.323134788    0.00040773413   2.30711444e-08      0.323543522
           0.215     0.0030112725        105939.21      0.323238325   0.000532740038   3.84937607e-08      0.323772065
           0.225    0.00301191862       105871.054      0.323361175   0.000684929224   6.24459119e-08      0.324047105
           0.235    0.00301256482       105802.923      0.323378089   0.000867824457   9.87533855e-08      0.324246914
           0.245    0.00301321113       105734.812      0.323371986    0.00108515755   1.52603988e-07      0.324458143
           0.255    0.00301385749       105666.724      0.323342726    0.00134073686   2.30896858e-07      0.324684463
           0.265    0.00301450392       105598.658      0.323274505      0.001638391   3.42654479e-07      0.324913896
           0.275    0.00301515041       105530.616      0.323160574    0.00198200499   4.99517025e-07      0.325143579
           0.285    0.00301579697       105462.597      0.322996999    0.00237547432   7.16297019e-07      0.325373473
           0.295    0.00301644359         105394.6      0.322780016    0.00282266888   1.01160697e-06      0.325603696
           0.305    0.00301709039       105326.628      0.322505637    0.00332740224   1.40856364e-06      0.325834448
           0.315    0.00301773731       105258.678      0.322170257    0.00389341043   1.93557297e-06      0.326065603
           0.325    0.00301838434       105190.752      0.321770055    0.00452431766   2.62718591e-06         0.326297
           0.335    0.00301903151       105122.849      0.321301655    0.00522361984   3.52503915e-06        0.3265288
           0.345    0.00301967882       105054.969      0.320761513    0.00599465052   4.67886025e-06      0.326760842
           0.355    0.00302032629       104987.113      0.320146566    0.00684057097   6.14755889e-06      0.326993284
           0.365    0.00302097394        104919.28      0.319453637     0.0077643364   8.00036702e-06      0.327225974
           0.375    0.00302162178       104851.471      0.318680039    0.00876869198   1.03180652e-05      0.327459049
           0.385    0.00302226982       104783.685      0.317823125    0.00985614486   1.31942419e-05      0.327692464
           0.395    0.00302291809       104715.923       0.31688051     0.0110289548   1.67366172e-05      0.327926201
           0.405     0.0030235666       104648.184      0.315850065     0.0122891214   2.10684033e-05      0.328160255
           0.415    0.00302421536       104580.469      0.314729921     0.0136383732   2.63296957e-05      0.328394624
           0.425    0.00302486438       104512.778      0.313518469     0.0150781591    3.2678887e-05      0.328629307
           0.435    0.00302551369        104445.11      0.312214367     0.0166096418   4.02940949e-05      0.328864303
           0.445    0.00302616329       104377.466      0.310816544     0.0182336935   4.93745903e-05      0.329099612
           0.455    0.00302681321       104309.845      0.309324201     0.0199508919   6.01422124e-05      0.329335236
           0.465    0.00302746345       104242.249      0.307736813     0.0217615189   7.28427608e-05      0.329571174
           0.475    0.00302811404       104174.676      0.306054122     0.0236655605   8.77473526e-05       0.32980743
           0.485    0.00302876497       104107.127      0.304276139     0.0256627082   0.000105153734      0.330044001
           0.495    0.00302941627       104039.601      0.302403139     0.0277523627   0.000125387535      0.330280889
           0.505    0.00303006794         103972.1      0.300435652      0.029933638   0.000148803451      0.330518093
           0.515       0.00303072       103904.623      0.298374462     0.0322053671   0.000175786344      0.330755615
           0.525    0.00303137245       103837.169      0.296220596     0.0345661081   0.000206752241      0.330993456
           0.535     0.0030320253        103769.74      0.293975315     0.0370141521   0.000242149233      0.331231617
           0.545    0.00303267856       103702.334      0.291640105     0.0395475312   0.000282458257      0.331470095
           0.555    0.00303333222       103634.953      0.289216666     0.0421640287   0.000328193759      0.331708889
           0.565    0.00303398629       103567.595      0.286706902     0.0448611902    0.00037990423      0.331947996
           0.575     0.0030346408       103500.262      0.284112911     0.0476363344   0.000438172611      0.332187418
           0.585    0.00303529573       103432.953      0.281436973     0.0504865653   0.000503616531      0.332427155
           0.595    0.00303595112       103365.668      0.278681541     0.0534087832   0.000576888399      0.332667212
           0.605    0.00303660695       103298.407      0.275849223     0.0563996968    0.00065867531      0.332907595
           0.615    0.00303726323        103231.17      0.272942775     0.0594558348   0.000749698792      0.333148309
           0.625    0.00303791996       103163.958       0.26996508     0.0625735587   0.000850714391      0.333389353
           0.635    0.00303857714        103096.77      0.266919139     0.0657490759   0.000962511089      0.333630726
           0.645    0.00303923475       103029.606      0.263808059      0.068978454    0.00108591058      0.333872423
           0.655    0.00303989281       102962.467      0.260635039     0.0722576347    0.00122176638       0.33411444
           0.665     0.0030405513       102895.352      0.257403363     0.0755824485    0.00137096278      0.334356774
           0.675    0.00304121024       102828.262      0.254116382     0.0789486277    0.00153441366      0.334599424
           0.685    0.00304186962       102761.196       0.25077751     0.0823518206    0.00171306104      0.334842392
           0.695    0.00304252945       102694.154      0.247390207     0.0857876033    0.00190787359      0.335085684
           0.705    0.00304318973       102627.137      0.243957968     0.0892514926    0.00211984486      0.335329306
           0.715    0.00304385046       102560.145      0.240484315     0.0927389576    0.00234999142      0.335573264
           0.725    0.00304451163       102493.177      0.236972781     0.0962454316    0.00259935083      0.335817563
           0.735    0.00304517324       102426.234        0.2334269     0.0997663245     0.0028689795      0.336062204
           0.745    0.00304583529       102359.315      0.229850203      0.103297034    0.00315995047      0.336307187
           0.755    0.00304649776       102292.421        0.2262462      0.106832959    0.00347335103       0.33655251
           0.765    0.00304716066       102225.552      0.222618381      0.110369509    0.00381028029       0.33679817
           0.775    0.00304782397       102158.708        0.2189702      0.113902119    0.00417184669      0.337044165
           0.785     0.0030484877       102091.888      0.215305074      0.117426254    0.00455916532      0.337290493
           0.795    0.00304915183       102025.093      0.211626373      0.120937426    0.00497335532      0.337537155
           0.805    0.00304981636       101958.323      0.207937414      0.124431201    0.00541553702      0.337784152
           0.815    0.00305048129       101891.578      0.204241453      0.127903203    0.00588682919      0.338031486
           0.825     0.0030511466       101824.858      0.200541681      0.131349132    0.00638834618       0.33827916
           0.835     0.0030518123       101758.163      0.196841218      0.134764764    0.00692119497      0.338527177
           0.845    0.00305247837       101691.493      0.193143107       0.13814596    0.00748647234      0.338775539
           0.855    0.00305314481       101624.848       0.18945031      0.141488677    0.00808526192      0.339024249
           0.865     0.0030538116       101558.228      0.185765705      0.144788971    0.00871863135      0.339273307
           0.875    0.00305447875       101491.633      0.182092081      0.148043003    0.00938762938      0.339522714
           0.885    0.00305514623       101425.064      0.178432138       0.15124705     0.0100932831      0.339772472
           0.895    0.00305581405       101358.519      0.174788481      0.154397505      0.010836595      0.340022581
           0.905    0.00305648219           101292      0.171163618      0.157490884     0.0116185404      0.340273043
           0.915    0.00305715064       101225.506      0.167559963       0.16052383     0.0124400649      0.340523858
           0.925     0.0030578194       101159.037      0.163979828       0.16349312     0.0133020814      0.340775029
           0.935    0.00305848844       101092.593      0.160425425      0.166395665     0.0142054678      0.341026558
           0.945    0.00305915776       101026.175      0.156898868      0.169228513     0.0151510647      0.341278446
           0.955    0.00305982735       100959.782      0.153402165      0.171988857     0.0161396727      0.341530695
           0.965     0.0030604972       100893.415      0.149937226       0.17467403     0.0171720507      0.341783307
           0.975    0.00306116728       100827.073      0.146505859      0.177281512     0.0182489131      0.342036284
           0.985    0.00306183758       100760.757      0.143109767      0.179808931     0.0193709287      0.342289627
           0.995     0.0030625081       100694.466      0.139750561      0.182254061     0.0205387168      0.342543338
