#           v             n
     0.523599             0
     0.648652             0
     0.790112             0
     0.953116             0
      1.13449             0
      1.34047             0
      1.56672             0
      1.82069             0
      2.09677   5.76452e-10
      2.40376   1.84598e-08
      2.73462   3.15178e-07
      3.09966    2.7784e-06
      3.49026   1.78781e-05
      3.91837   7.71598e-05
      4.37366   0.000267027
      4.86986   0.000691635
       5.3948    0.00150482
      5.96412    0.00259244
      6.56366    0.00384273
      7.21112    0.00465509
      7.89023    0.00492113
      8.62085    0.00434221
      9.38447     0.0033808
      10.2033    0.00223382
      11.0564    0.00131571
      11.9684   0.000666966
      12.9159   0.000304272
      13.9262   0.000120924
      14.9731   0.000136988
