/*--------------------------------*- C++ -*----------------------------------*\
  =========                 |
  \\      /  F ield         | OpenFOAM: The Open Source CFD Toolbox
   \\    /   O peration     | Website:  https://openfoam.org
    \\  /    A nd           | Version:  12
     \\/     M anipulation  |
\*---------------------------------------------------------------------------*/
FoamFile
{
    format      ascii;
    class       volScalarField;
    location    "0.19";
    object      epsilon;
}
// * * * * * * * * * * * * * * * * * * * * * * * * * * * * * * * * * * * * * //

dimensions      [0 2 -3 0 0 0 0];

internalField   nonuniform List<scalar> 
12225
(
278.515
263.66
249.434
236.839
226.738
219.483
215.07
213.263
213.706
215.991
219.714
224.505
230.045
236.069
242.376
248.798
255.369
264.885
61.116
86.6954
97.9915
107.208
118.465
132.558
149.412
168.613
189.581
211.687
234.342
257.036
279.363
301.027
321.934
341.923
362.516
381.08
25.2776
36.1831
43.3818
48.6214
53.3865
58.3364
63.771
69.8261
76.527
83.8253
91.631
99.8347
108.325
117.002
125.799
134.696
143.843
153.234
17.5217
21.2986
24.7145
27.61
30.162
32.5402
34.8668
37.2282
39.6774
42.2411
44.9267
47.7297
50.6392
53.6428
56.7319
59.9143
63.2088
66.642
15.4878
16.7519
18.1858
19.5889
20.9095
22.1491
23.3264
24.4653
25.5866
26.7054
27.8315
28.9708
30.126
31.2986
32.4903
33.7061
34.9509
36.2216
14.9084
15.2396
15.7463
16.3341
16.9476
17.559
18.1559
18.7357
19.3002
19.8527
20.3963
20.9337
21.4671
21.9981
22.5286
23.0609
23.5968
24.1304
14.7451
14.7391
14.8342
15.0036
15.2215
15.4679
15.7286
15.9949
16.262
16.5275
16.7903
17.05
17.3067
17.5606
17.8124
18.0627
18.3119
18.556
14.7012
14.5825
14.5116
14.4858
14.4981
14.5403
14.6043
14.6837
14.7737
14.8708
14.9725
15.0772
15.1838
15.2914
15.3998
15.5086
15.6177
15.7244
14.6901
14.5373
14.407
14.3009
14.2182
14.1571
14.1145
14.0875
14.0733
14.0693
14.0736
14.0845
14.1007
14.1212
14.1453
14.1724
14.2018
14.2321
14.6874
14.5252
14.3761
14.2411
14.1204
14.0137
13.9203
13.8391
13.7688
13.7083
13.6564
13.612
13.5741
13.5419
13.5147
13.492
13.4731
13.4574
14.6868
14.5221
14.3677
14.2236
14.0896
13.9656
13.8512
13.746
13.6495
13.561
13.4801
13.4061
13.3383
13.2763
13.2197
13.1678
13.1204
13.0772
14.6866
14.5213
14.3656
14.219
14.0812
13.9518
13.8305
13.7168
13.6105
13.5111
13.4182
13.3314
13.2503
13.1747
13.104
13.038
12.9764
12.9194
14.6865
14.521
14.3648
14.2175
14.0785
13.9473
13.8234
13.7065
13.5963
13.4922
13.3941
13.3015
13.2142
13.1319
13.0543
12.981
12.912
12.8475
14.6864
14.5208
14.3645
14.2169
14.0774
13.9456
13.8209
13.7029
13.5913
13.4855
13.3853
13.2904
13.2005
13.1152
13.0344
12.9578
12.8853
12.8171
14.6864
14.5207
14.3643
14.2165
14.0769
13.9449
13.8199
13.7016
13.5895
13.4832
13.3824
13.2868
13.196
13.1098
13.0279
12.9501
12.8762
12.8067
14.6863
14.5206
14.3641
14.2163
14.0766
13.9444
13.8194
13.7009
13.5886
13.4822
13.3812
13.2854
13.1943
13.1079
13.0257
12.9475
12.8732
12.8033
14.6863
14.5205
14.364
14.2161
14.0763
13.9441
13.8189
13.7004
13.5881
13.4815
13.3805
13.2845
13.1934
13.1068
13.0245
12.9462
12.8718
12.8018
14.6863
14.5204
14.3639
14.216
14.0761
13.9439
13.8187
13.7001
13.5877
13.4811
13.3799
13.2839
13.1927
13.1061
13.0237
12.9454
12.8709
12.8008
14.6863
14.5204
14.3639
14.2159
14.0761
13.9438
13.8186
13.6999
13.5875
13.4809
13.3797
13.2837
13.1925
13.1058
13.0233
12.9449
12.8704
12.8003
14.6863
14.5205
14.3639
14.216
14.0762
13.9439
13.8187
13.7001
13.5877
13.4811
13.38
13.284
13.1928
13.1061
13.0237
12.9454
12.8709
12.8008
14.6863
14.5205
14.364
14.2162
14.0764
13.9443
13.8192
13.7007
13.5885
13.4821
13.3812
13.2854
13.1945
13.1082
13.0262
12.9483
12.8742
12.8046
14.6863
14.5206
14.3643
14.2167
14.0773
13.9457
13.8214
13.7039
13.5928
13.4879
13.3886
13.2947
13.2059
13.1219
13.0423
12.9669
12.8956
12.8288
14.6865
14.5212
14.3659
14.2202
14.0837
13.956
13.8368
13.7256
13.6218
13.525
13.4348
13.3506
13.272
13.1986
13.1301
13.0659
13.006
12.9505
14.6876
14.5264
14.3793
14.2467
14.1282
14.0231
13.9302
13.8484
13.7762
13.7126
13.6565
13.6068
13.5628
13.5237
13.489
13.4581
13.4306
13.4066
14.6976
14.5664
14.4707
14.4075
14.3714
14.3568
14.3584
14.372
14.3941
14.4224
14.455
14.4907
14.5286
14.568
14.6084
14.6496
14.6912
14.7332
14.7737
14.8187
14.9603
15.1591
15.3863
15.6233
15.8597
16.0904
16.3134
16.5284
16.7358
16.9364
17.1312
17.3209
17.5063
17.6881
17.8666
18.0414
15.2587
16.1151
17.0712
17.9727
18.7878
19.5238
20.1944
20.8148
21.3987
21.9572
22.4985
23.0288
23.5524
24.0722
24.5898
25.1062
25.6216
26.1334
18.0414
22.0079
24.9885
27.1532
28.8883
30.4048
31.8124
33.1783
34.5436
35.9308
37.3509
38.8078
40.3006
41.8254
43.3764
44.9475
46.5319
48.1169
34.024
45.6878
51.3768
54.9424
58.0809
61.2979
64.7508
68.4831
72.4791
76.6957
81.0826
85.5903
90.1721
94.7862
99.3971
103.976
108.507
112.962
163.308
157.417
151.704
146.261
141.3
136.947
133.25
130.206
127.78
125.918
124.558
123.637
123.093
122.87
122.916
123.186
123.64
124.241
0.28984
0.331894
0.541671
0.735156
0.948099
1.18942
1.46263
1.77314
2.11394
2.46501
2.82698
3.19788
3.57523
3.95671
4.34023
4.72391
5.10598
5.4847
5.8583
6.22493
6.58259
6.92913
7.26223
7.57927
7.8773
8.15308
8.40332
8.62542
8.81803
8.9807
9.11028
9.1935
9.20146
9.12004
9.16881
9.24597
9.32167
9.38801
9.37971
40.3181
9.47355
9.36658
9.47472
41.6065
44.4136
47.4462
50.6631
54.0525
57.6118
61.3398
65.2367
69.304
73.5436
77.9577
82.5485
87.3183
92.2694
97.4037
102.723
108.229
113.923
119.806
125.879
132.142
138.594
145.235
152.065
159.081
166.283
173.666
181.23
188.969
196.881
204.962
213.206
221.608
230.163
238.865
247.707
256.681
265.782
275
284.329
293.758
303.281
312.886
322.566
332.309
342.105
351.943
361.813
371.702
381.599
391.492
401.368
411.218
421.035
430.817
440.576
450.345
460.073
469.671
479.135
488.459
497.629
506.629
515.445
524.06
532.459
540.625
548.545
556.202
563.583
570.673
577.46
583.928
590.068
595.866
601.312
606.395
611.106
615.436
619.378
622.925
626.07
628.808
631.136
633.05
634.547
635.627
636.29
636.535
636.366
635.784
634.795
633.402
631.611
629.43
626.865
623.925
620.62
616.959
612.955
608.617
603.959
598.993
593.734
588.194
582.389
576.333
570.042
563.53
556.813
549.909
542.831
535.596
528.223
520.722
513.116
505.416
497.634
489.809
481.908
474.035
466.272
460.038
457.057
454.368
451.683
448.984
446.274
443.551
440.808
438.025
435.154
432.095
428.613
424.103
417.08
401.152
1.03376
0.636154
0.654974
0.755797
0.900577
1.07942
1.28994
1.5292
1.79231
2.07352
2.36907
2.67618
2.99275
3.31718
3.64824
3.98495
4.32656
4.67247
5.02225
5.37565
5.73268
6.09366
6.45938
6.83117
7.21108
7.60215
8.00886
8.43811
8.90092
9.41493
10.0085
10.7262
11.617
12.6427
13.5285
14.4091
15.3734
16.4997
17.9318
19.8445
20.6601
22.6006
24.3341
26.5561
28.1519
29.7513
31.3995
33.1061
34.8729
36.7015
38.5935
40.5501
42.5725
44.6618
46.8189
49.0444
51.3391
53.7034
56.1378
58.6425
61.2177
63.8633
66.5792
69.3652
72.2209
75.1457
78.1389
81.1998
84.3274
87.5204
90.7778
94.098
97.4795
100.921
104.419
107.974
111.582
115.242
118.951
122.706
126.504
130.344
134.222
138.134
142.078
146.051
150.048
154.066
158.102
162.151
166.209
170.272
174.336
178.397
182.452
186.498
190.535
194.566
198.599
202.659
206.738
210.778
214.77
218.709
222.588
226.403
230.146
233.812
237.396
240.89
244.289
247.587
250.779
253.859
256.822
259.662
262.375
264.955
267.399
269.702
271.861
273.871
275.729
277.432
278.978
280.364
281.587
282.648
283.543
284.272
284.834
285.23
285.459
285.522
285.42
285.155
284.727
284.139
283.393
282.492
281.44
280.239
278.893
277.407
275.784
274.03
272.148
270.144
268.024
265.792
263.455
261.017
258.486
255.866
253.165
250.386
247.54
244.628
241.66
238.641
235.572
232.477
229.315
226.183
223.11
220.369
218.244
216.262
214.31
212.367
210.43
208.499
206.574
204.655
202.738
200.816
198.866
196.877
194.725
193.489
2.01575
1.04896
0.966468
1.02365
1.13767
1.29162
1.47907
1.69551
1.93648
2.19757
2.47502
2.76594
3.06822
3.38051
3.70195
4.03214
4.37102
4.71878
5.0759
5.44315
5.8216
6.21276
6.61859
7.04162
7.48497
7.95247
8.44871
8.97922
9.55064
10.1709
10.8494
11.597
12.4192
13.2953
14.1853
15.108
16.0808
17.1159
18.2195
19.3986
20.5985
21.8828
23.1741
24.4996
25.8199
27.172
28.5692
30.0157
31.5128
33.0612
34.6614
36.3137
38.0188
39.777
41.5886
43.454
45.3735
47.3472
49.3754
51.458
53.5951
55.7865
58.0322
60.3317
62.6849
65.0913
67.5502
70.0612
72.6235
75.2362
77.8984
80.6091
83.3671
86.1713
89.0201
91.9123
94.8462
97.8201
100.832
103.881
106.964
110.079
113.224
116.398
119.596
122.818
126.06
129.32
132.595
135.883
139.18
142.485
145.795
149.109
152.424
155.74
159.058
162.379
165.704
169.032
172.345
175.627
178.872
182.073
185.227
188.329
191.373
194.354
197.268
200.109
202.874
205.556
208.152
210.657
213.067
215.377
217.584
219.683
221.672
223.546
225.302
226.938
228.45
229.836
231.095
232.223
233.22
234.084
234.813
235.408
235.867
236.191
236.38
236.433
236.353
236.139
235.793
235.318
234.714
233.984
233.131
232.157
231.066
229.86
228.543
227.118
225.59
223.963
222.241
220.428
218.528
216.547
214.488
212.358
210.161
207.899
205.583
203.21
200.793
198.331
195.823
193.306
190.76
188.221
185.717
183.347
181.195
179.135
177.109
175.101
173.107
171.128
169.165
167.224
165.309
163.433
161.611
159.91
158.417
157.933
3.10821
1.50871
1.30406
1.31406
1.40366
1.54114
1.71506
1.91934
2.14936
2.4011
2.67113
2.95668
3.25573
3.56698
3.88973
4.2238
4.56939
4.92707
5.29767
5.68231
6.08239
6.4996
6.93595
7.39376
7.87566
8.38454
8.92354
9.49592
10.1049
10.7536
11.4444
12.1797
12.9604
13.7834
14.6436
15.5431
16.485
17.4717
18.5043
19.5827
20.7034
21.8672
23.0661
24.2992
25.5653
26.8698
28.2174
29.6109
31.0516
32.5406
34.0784
35.6656
37.3027
38.9903
40.7286
42.5182
44.3593
46.2523
48.1975
50.195
52.245
54.3475
56.5028
58.7106
60.9708
63.2834
65.6478
68.0638
70.531
73.0485
75.6159
78.2323
80.8967
83.6081
86.3654
89.1673
92.0124
94.8992
97.8262
100.791
103.793
106.83
109.898
112.997
116.125
119.278
122.454
125.651
128.867
132.099
135.344
138.601
141.866
145.139
148.418
151.7
154.986
158.272
161.557
164.828
168.077
171.294
174.474
177.612
180.702
183.74
186.72
189.637
192.487
195.264
197.964
200.581
203.111
205.55
207.894
210.137
212.276
214.308
216.228
218.033
219.72
221.286
222.729
224.046
225.234
226.293
227.221
228.016
228.677
229.204
229.596
229.854
229.977
229.967
229.824
229.55
229.145
228.613
227.954
227.171
226.267
225.245
224.108
222.859
221.501
220.04
218.478
216.82
215.069
213.231
211.31
209.31
207.236
205.094
202.888
200.619
198.301
195.926
193.511
191.066
188.588
186.091
183.577
181.062
178.569
176.144
173.822
171.562
169.336
167.133
164.95
162.789
160.655
158.553
156.495
154.5
152.599
150.872
149.433
148.748
4.1532
1.95113
1.6264
1.59337
1.66161
1.78558
1.94912
2.14444
2.36653
2.61153
2.87628
3.15823
3.45549
3.76683
4.0916
4.42965
4.78124
5.147
5.52781
5.92481
6.33936
6.77299
7.22745
7.70463
8.20658
8.73544
9.29342
9.88271
10.5053
11.1631
11.8574
12.5893
13.3598
14.1693
15.0178
15.9061
16.835
17.8055
18.8179
19.8724
20.9686
22.1065
23.2853
24.5047
25.7652
27.0684
28.4163
29.8107
31.2528
32.7438
34.2844
35.8756
37.518
39.2125
40.9595
42.7599
44.6142
46.523
48.4868
50.5062
52.5815
54.7132
56.9015
59.1467
61.449
63.8084
66.2248
68.6981
71.2281
73.8144
76.4564
79.1535
81.905
84.7099
87.5671
90.4754
93.4335
96.4399
99.4928
102.591
105.731
108.913
112.133
115.389
118.68
122.001
125.352
128.729
132.129
135.55
138.989
142.443
145.91
149.388
152.872
156.362
159.854
163.345
166.824
170.283
173.715
177.113
180.47
183.782
187.042
190.245
193.385
196.458
199.456
202.376
205.211
207.956
210.607
213.159
215.606
217.944
220.169
222.277
224.264
226.126
227.861
229.464
230.933
232.267
233.462
234.517
235.43
236.201
236.828
237.311
237.65
237.844
237.895
237.804
237.571
237.199
236.688
236.042
235.262
234.351
233.313
232.151
230.868
229.468
227.955
226.333
224.608
222.782
220.861
218.85
216.755
214.579
212.324
210.005
207.62
205.167
202.673
200.132
197.551
194.938
192.296
189.634
186.957
184.278
181.612
178.985
176.416
173.892
171.401
168.937
166.499
164.092
161.719
159.39
157.12
154.931
152.86
150.985
149.399
148.362
5.08579
2.34686
1.91767
1.8468
1.89619
2.00827
2.16268
2.35001
2.56478
2.80314
3.06214
3.33946
3.63337
3.94271
4.26685
4.60564
4.95931
5.32842
5.71382
6.11654
6.53781
6.97902
7.44167
7.92739
8.43788
8.97491
9.54028
10.1358
10.7631
11.4238
12.1193
12.8507
13.6191
14.4256
15.2711
16.1563
17.0822
18.0495
19.0588
20.1106
21.2054
22.3438
23.5263
24.7534
26.0259
27.3448
28.7116
30.1275
31.5939
33.1119
34.6828
36.3077
37.9876
39.7236
41.5167
43.3679
45.2783
47.2486
49.2799
51.373
53.5287
55.7477
58.0307
60.3783
62.7909
65.2689
67.8125
70.4218
73.0969
75.8375
78.6433
81.5137
84.4482
87.4458
90.5055
93.6261
96.8061
100.044
103.338
106.686
110.085
113.535
117.031
120.572
124.155
127.776
131.433
135.124
138.843
142.589
146.358
150.147
153.952
157.769
161.596
165.428
169.261
173.089
176.898
180.682
184.433
188.145
191.812
195.427
198.984
202.477
205.899
209.244
212.505
215.677
218.754
221.729
224.598
227.355
229.994
232.51
234.899
237.157
239.278
241.259
243.097
244.787
246.329
247.718
248.953
250.032
250.953
251.716
252.319
252.763
253.048
253.173
253.14
252.95
252.605
252.107
251.458
250.661
249.718
248.633
247.409
246.051
244.564
242.95
241.214
239.361
237.399
235.33
233.159
230.891
228.538
226.1
223.573
220.986
218.336
215.623
212.862
210.055
207.209
204.33
201.423
198.497
195.558
192.614
189.68
186.77
183.899
181.064
178.261
175.489
172.75
170.049
167.392
164.79
162.259
159.824
157.524
155.426
153.596
152.179
5.87225
2.69075
2.1714
2.06698
2.09925
2.20024
2.34589
2.52528
2.73242
2.96341
3.21541
3.48631
3.77454
4.07905
4.39924
4.73497
5.08642
5.45412
5.83883
6.24151
6.6633
7.10547
7.56941
8.0566
8.5686
9.10701
9.67348
10.2697
10.8972
11.5575
12.2522
12.9825
13.7496
14.5549
15.3995
16.2844
17.2106
18.1792
19.1911
20.2472
21.3484
22.4957
23.6902
24.9327
26.2245
27.5667
28.9606
30.4077
31.9095
33.4674
35.0829
36.7575
38.4927
40.29
42.1508
44.0765
46.0685
48.1283
50.2572
52.4565
54.7274
57.071
59.4885
61.9807
64.5486
67.1928
69.9138
72.7121
75.588
78.5413
81.5719
84.6795
87.8634
91.1228
94.4567
97.8636
101.342
104.89
108.506
112.187
115.932
119.736
123.598
127.514
131.481
135.496
139.554
143.653
147.789
151.956
156.153
160.373
164.613
168.869
173.135
177.407
181.681
185.938
190.172
194.374
198.539
202.658
206.725
210.731
214.671
218.536
222.319
226.013
229.612
233.107
236.493
239.763
242.91
245.928
248.812
251.556
254.155
256.603
258.896
261.029
262.999
264.803
266.437
267.899
269.187
270.299
271.233
271.989
272.566
272.964
273.183
273.225
273.091
272.782
272.3
271.648
270.83
269.847
268.705
267.406
265.954
264.356
262.616
260.74
258.73
256.592
254.337
251.969
249.489
246.904
244.232
241.473
238.629
235.716
232.736
229.695
226.602
223.462
220.283
217.071
213.833
210.576
207.306
204.033
200.767
197.519
194.301
191.115
187.962
184.845
181.768
178.735
175.756
172.844
170.014
167.294
164.719
162.344
160.213
158.408
6.52644
2.98223
2.38492
2.25035
2.26658
2.35674
2.49349
2.66456
2.86341
3.08604
3.3297
3.59242
3.87279
4.16988
4.48317
4.81253
5.15815
5.52053
5.90039
6.29864
6.71639
7.15483
7.6153
8.09921
8.60805
9.14338
9.70676
10.2998
10.9241
11.5812
12.2727
13
13.7644
14.5675
15.4106
16.2948
17.2217
18.1923
19.2081
20.2702
21.38
22.5389
23.7482
25.0093
26.3237
27.693
29.1188
30.6027
32.1467
33.7526
35.4222
37.1575
38.9605
40.8331
42.7772
44.7949
46.888
49.0585
51.3082
53.6389
56.0523
58.5501
61.1337
63.8047
66.5641
69.4132
72.3528
75.3835
78.5059
81.7202
85.0263
88.424
91.9127
95.4915
99.1593
102.915
106.756
110.68
114.686
118.77
122.93
127.163
131.464
135.831
140.259
144.744
149.282
153.868
158.499
163.168
167.872
172.604
177.359
182.133
186.918
191.71
196.498
201.261
205.993
210.688
215.337
219.932
224.466
228.928
233.312
237.609
241.81
245.907
249.893
253.76
257.499
261.104
264.567
267.882
271.042
274.041
276.874
279.534
282.016
284.317
286.431
288.355
290.087
291.623
292.962
294.102
295.041
295.78
296.316
296.652
296.788
296.725
296.465
296.01
295.362
294.526
293.505
292.303
290.924
289.373
287.652
285.772
283.738
281.555
279.226
276.754
274.16
271.447
268.616
265.677
262.64
259.512
256.297
253.007
249.647
246.225
242.749
239.225
235.662
232.067
228.446
224.807
221.157
217.505
213.86
210.232
206.63
203.059
199.525
196.031
192.583
189.189
185.858
182.603
179.443
176.403
173.515
170.824
168.355
166.159
7.04802
3.22023
2.55719
2.3957
2.39673
2.47605
2.60352
2.76568
2.95551
3.16883
3.40296
3.65605
3.92682
4.21447
4.51857
4.83904
5.17611
5.53027
5.90223
6.29289
6.70331
7.13467
7.58827
8.0655
8.56781
9.09672
9.6538
10.2406
10.8588
11.51
12.1958
12.9178
13.6776
14.4767
15.3167
16.1992
17.1258
18.098
19.1175
20.186
21.3051
22.4766
23.7023
24.984
26.3238
27.7234
29.1852
30.7111
32.3035
33.9647
35.6972
37.5033
39.3857
41.3469
43.3893
45.5155
47.7281
50.0296
52.4224
54.9088
57.4912
60.1716
62.9522
65.8347
68.8209
71.9123
75.11
78.4151
81.8284
85.3501
88.9804
92.719
96.5654
100.519
104.577
108.739
113.003
117.366
121.826
126.378
131.02
135.748
140.557
145.442
150.401
155.426
160.514
165.658
170.854
176.095
181.376
186.69
192.031
197.392
202.766
208.146
213.504
218.832
224.123
229.366
234.554
239.678
244.727
249.693
254.565
259.333
263.99
268.524
272.929
277.194
281.311
285.273
289.071
292.699
296.148
299.412
302.485
305.361
308.034
310.499
312.752
314.789
316.608
318.206
319.581
320.731
321.656
322.354
322.827
323.075
323.099
322.902
322.485
321.851
321.004
319.947
318.687
317.228
315.575
313.732
311.701
309.498
307.128
304.597
301.911
299.076
296.105
293.004
289.781
286.443
283
279.46
275.83
272.121
268.339
264.494
260.592
256.644
252.655
248.635
244.591
240.531
236.462
232.393
228.332
224.289
220.272
216.289
212.346
208.45
204.606
200.824
197.116
193.493
189.976
186.588
183.357
180.32
177.487
174.895
7.44057
3.40549
2.68898
2.50382
2.49046
2.55884
2.67659
2.82924
3.00933
3.21255
3.43622
3.6786
3.93853
4.21532
4.50864
4.81848
5.14511
5.48904
5.85097
6.23181
6.6326
7.0545
7.4988
7.96687
8.46014
8.98015
9.52845
10.1067
10.7165
11.3596
12.0377
12.7526
13.506
14.2997
15.1356
16.0155
16.9414
17.9152
18.9389
20.0145
21.1443
22.3304
23.5751
24.8808
26.25
27.685
29.1887
30.7637
32.4128
34.1391
35.9456
37.8353
39.8114
41.8772
44.0359
46.2905
48.6445
51.1009
53.6628
56.3331
59.1148
62.0106
65.023
68.1543
71.4067
74.7821
78.282
81.9077
85.6601
89.5397
93.5466
97.6805
101.941
106.326
110.835
115.465
120.214
125.079
130.056
135.141
140.331
145.62
151.002
156.474
162.028
167.66
173.362
179.13
184.955
190.832
196.753
202.711
208.699
214.707
220.729
226.742
232.721
238.661
244.552
250.385
256.15
261.836
267.433
272.929
278.313
283.575
288.704
293.691
298.525
303.197
307.697
312.018
316.15
320.084
323.815
327.335
330.636
333.713
336.56
339.17
341.54
343.666
345.546
347.178
348.559
349.689
350.567
351.192
351.566
351.689
351.564
351.194
350.582
349.731
348.643
347.325
345.786
344.029
342.061
339.887
337.513
334.951
332.208
329.292
326.21
322.97
319.583
316.058
312.403
308.627
304.741
300.753
296.671
292.507
288.268
283.964
279.604
275.196
270.749
266.272
261.773
257.26
252.741
248.225
243.721
239.236
234.781
230.364
225.991
221.671
217.411
213.222
209.115
205.105
201.21
197.451
193.854
190.448
187.233
184.243
7.71162
3.54061
2.78255
2.57703
2.55016
2.6076
2.71525
2.85787
3.02765
3.22017
3.43275
3.66373
3.91205
4.17712
4.4587
4.75685
5.07188
5.40433
5.7549
6.12451
6.51419
6.9251
7.35852
7.81581
8.29844
8.80795
9.34595
9.91413
10.5143
11.1481
11.8177
12.5248
13.2715
14.0598
14.892
15.7702
16.6968
17.674
18.7044
19.7905
20.935
22.1406
23.4101
24.7466
26.1531
27.6327
29.1889
30.8249
32.5444
34.351
36.2485
38.2408
40.3317
42.5252
44.8254
47.2361
49.7614
52.4051
55.1709
58.0625
61.0834
64.2367
67.5255
70.9527
74.5207
78.2318
82.0878
86.09
90.2395
94.5367
98.9816
103.574
108.312
113.195
118.22
123.385
128.687
134.121
139.684
145.371
151.176
157.093
163.115
169.237
175.452
181.752
188.131
194.581
201.095
207.664
214.281
220.936
227.622
234.328
241.039
247.714
254.345
260.924
267.44
273.883
280.241
286.503
292.657
298.69
304.589
310.342
315.939
321.368
326.619
331.682
336.546
341.204
345.644
349.86
353.843
357.586
361.082
364.326
367.308
370.024
372.47
374.643
376.541
378.162
379.504
380.568
381.352
381.859
382.086
382.037
381.716
381.126
380.272
379.157
377.786
376.167
374.305
372.209
369.884
367.339
364.581
361.62
358.465
355.126
351.61
347.927
344.089
340.105
335.984
331.738
327.375
322.907
318.343
313.694
308.969
304.179
299.332
294.439
289.508
284.549
279.571
274.583
269.592
264.608
259.639
254.695
249.785
244.916
240.098
235.34
230.65
226.04
221.521
217.108
212.819
208.674
204.695
200.905
197.298
193.908
7.87225
3.62966
2.84137
2.61883
2.57947
2.6261
2.72343
2.85569
3.01481
3.19629
3.39748
3.61676
3.85317
4.1062
4.37568
4.66174
4.96472
5.28517
5.62386
5.98166
6.35964
6.75897
7.18094
7.62694
8.0985
8.59721
9.12478
9.68301
10.2738
10.8992
11.5612
12.2621
13.0042
13.7899
14.6217
15.5023
16.4344
17.4209
18.4648
19.5692
20.7375
21.9731
23.2794
24.6601
26.1191
27.6603
29.2878
31.0058
32.8187
34.7311
36.7475
38.8727
41.1115
43.4686
45.9489
48.5572
51.2983
54.1767
57.197
60.3632
63.6793
67.1489
70.7756
74.5625
78.5123
82.6275
86.9098
91.3606
95.9807
100.77
105.729
110.856
116.149
121.607
127.226
133.002
138.932
145.011
151.233
157.592
164.083
170.696
177.425
184.261
191.196
198.222
205.332
212.517
219.768
227.076
234.432
241.827
249.249
256.689
264.088
271.438
278.729
285.95
293.091
300.138
307.079
313.902
320.594
327.142
333.528
339.74
345.769
351.601
357.228
362.637
367.818
372.762
377.459
381.901
386.08
389.988
393.62
396.972
400.03
402.789
405.248
407.405
409.258
410.806
412.047
412.982
413.612
413.937
413.96
413.683
413.111
412.248
411.099
409.669
407.966
405.994
403.764
401.282
398.557
395.597
392.412
389.012
385.407
381.606
377.621
373.462
369.139
364.665
360.049
355.303
350.438
345.465
340.395
335.238
330.005
324.708
319.356
313.958
308.527
303.07
297.597
292.118
286.642
281.177
275.732
270.317
264.941
259.613
254.342
249.138
244.011
238.971
234.032
229.209
224.517
219.977
215.606
211.424
207.42
203.632
7.93642
3.67788
2.86969
2.63342
2.58275
2.61895
2.70603
2.82787
2.97629
3.14677
3.33667
3.54444
3.76918
4.01046
4.26817
4.54247
4.83377
5.14265
5.46989
5.81641
6.18331
6.57179
6.98322
7.41908
7.88096
8.37061
8.88989
9.44079
10.0254
10.6461
11.3052
12.0053
12.7492
13.5395
14.3795
15.2722
16.221
17.2294
18.3012
19.4403
20.6506
21.9364
23.3021
24.7523
26.2916
27.9248
29.6571
31.4937
33.4398
35.501
37.6829
39.9912
42.4315
45.0096
47.7312
50.6019
53.6274
56.8129
60.1635
63.6838
67.3777
71.249
75.3013
79.5378
83.9614
88.5742
93.3777
98.3728
103.56
108.938
114.506
120.263
126.205
132.329
138.631
145.106
151.748
158.552
165.51
172.617
179.863
187.241
194.737
202.343
210.05
217.85
225.733
233.69
241.712
249.789
257.91
266.065
274.244
282.376
290.45
298.456
306.381
314.214
321.941
329.548
337.024
344.354
351.53
358.534
365.34
371.943
378.33
384.49
390.413
396.087
401.502
406.648
411.516
416.097
420.384
424.369
428.046
431.41
434.453
437.171
439.56
441.619
443.346
444.74
445.802
446.533
446.934
447.006
446.754
446.181
445.291
444.091
442.586
440.783
438.688
436.311
433.659
430.743
427.57
424.152
420.498
416.618
412.525
408.23
403.743
399.076
394.241
389.25
384.115
378.848
373.46
367.964
362.37
356.691
350.937
345.121
339.252
333.342
327.401
321.439
315.465
309.491
303.524
297.574
291.65
285.763
279.92
274.132
268.408
262.758
257.193
251.725
246.366
241.13
236.035
231.097
226.333
221.758
217.36
213.179
7.92049
3.69123
2.87224
2.62546
2.56491
2.59138
2.66865
2.78048
2.91868
3.07873
3.25807
3.45519
3.66927
3.89993
4.14714
4.41111
4.69231
4.99136
5.30912
5.64659
6.00493
6.38549
6.78973
7.21931
7.67603
8.16184
8.67889
9.22946
9.81606
10.4413
11.1082
11.8197
12.5791
13.3899
14.2557
15.1806
16.1685
17.224
18.3516
19.5563
20.843
22.2173
23.6844
25.2501
26.9201
28.7001
30.5965
32.6155
34.7637
37.0477
39.474
42.0493
44.7802
47.6733
50.7351
53.9719
57.3899
60.995
64.793
68.7888
72.9842
77.3827
81.988
86.8027
91.8292
97.0688
102.522
108.189
114.068
120.157
126.455
132.956
139.658
146.555
153.64
160.908
168.351
175.961
183.731
191.651
199.717
207.917
216.227
224.641
233.151
241.748
250.421
259.161
267.959
276.805
285.688
294.588
303.429
312.199
320.886
329.478
337.961
346.322
354.546
362.62
370.529
378.261
385.801
393.135
400.245
407.12
413.747
420.115
426.213
432.03
437.556
442.781
447.697
452.296
456.57
460.512
464.117
467.379
470.294
472.857
475.066
476.919
478.416
479.557
480.342
480.774
480.854
480.587
479.975
479.025
477.741
476.13
474.2
471.957
469.41
466.568
463.441
460.039
456.371
452.45
448.286
443.891
439.276
434.454
429.438
424.239
418.87
413.344
407.673
401.871
395.948
389.919
383.795
377.587
371.309
364.971
358.586
352.163
345.715
339.25
332.781
326.315
319.864
313.436
307.041
300.688
294.387
288.148
281.98
275.894
269.9
264.011
258.24
252.6
247.107
241.778
236.626
231.665
226.882
222.319
7.84278
3.67606
2.85397
2.59988
2.53121
2.54922
2.61777
2.72074
2.85001
3.00114
3.17165
3.36013
3.56583
3.78845
4.02804
4.28492
4.55963
4.85296
5.16586
5.49951
5.85528
6.23471
6.63956
7.07177
7.53351
8.02714
8.55526
9.12067
9.72645
10.3759
11.0727
11.8206
12.6238
13.4868
14.414
15.4105
16.4816
17.6328
18.8701
20.1997
21.6282
23.1625
24.8097
26.5769
28.4703
30.4971
32.6647
34.9808
37.4532
40.0894
42.8969
45.8831
49.0553
52.4204
55.9851
59.7559
63.7388
67.9401
72.3661
77.0258
81.9078
87.0176
92.3587
97.9326
103.74
109.78
116.052
122.553
129.28
136.229
143.395
150.773
158.355
166.134
174.103
182.251
190.571
199.052
207.684
216.457
225.361
234.382
243.507
252.725
262.024
271.395
280.828
290.314
299.841
309.409
318.961
328.437
337.824
347.108
356.277
365.315
374.209
382.946
391.51
399.888
408.065
416.029
423.765
431.26
438.5
445.471
452.162
458.562
464.66
470.447
475.912
481.047
485.845
490.296
494.396
498.138
501.517
504.528
507.169
509.436
511.328
512.843
513.982
514.747
515.138
515.159
514.812
514.103
513.037
511.618
509.855
507.753
505.322
502.57
499.506
496.14
492.482
488.544
484.337
479.872
475.162
470.219
465.055
459.683
454.117
448.37
442.454
436.383
430.17
423.828
417.371
410.81
404.159
397.43
390.635
383.786
376.895
369.973
363.031
356.08
349.13
342.191
335.273
328.386
321.538
314.739
307.999
301.328
294.736
288.232
281.829
275.537
269.37
263.342
257.468
251.762
246.237
240.906
235.754
230.828
7.71773
3.63735
2.81884
2.56084
2.4864
2.49796
2.55986
2.65626
2.7792
2.92443
3.08959
3.2734
3.47525
3.69501
3.93288
4.18937
4.46526
4.76159
5.07964
5.42093
5.78724
6.1806
6.6033
7.05791
7.54725
8.07449
8.64308
9.25679
9.91966
10.6362
11.4112
12.2501
13.1587
14.1429
15.2084
16.3618
17.6103
18.9613
20.4228
22.0029
23.7103
25.554
27.5439
29.6914
31.9981
34.4731
37.1259
39.9655
43.0001
46.2379
49.6864
53.3528
57.2436
61.3649
65.7222
70.3202
75.1632
80.2548
85.5977
91.1937
97.0401
103.136
109.48
116.072
122.907
129.982
137.292
144.832
152.596
160.576
168.765
177.153
185.732
194.492
203.423
212.513
221.751
231.126
240.627
250.241
259.958
269.764
279.648
289.598
299.604
309.657
319.747
329.873
340.004
350.057
360.009
369.847
379.555
389.121
398.53
407.768
416.823
425.68
434.326
442.748
450.932
458.867
466.538
473.934
481.043
487.853
494.353
500.532
506.383
511.894
517.059
521.869
526.318
530.399
534.107
537.436
540.384
542.947
545.122
546.908
548.305
549.312
549.93
550.163
550.011
549.48
548.574
547.298
545.657
543.659
541.312
538.623
535.601
532.257
528.599
524.639
520.388
515.857
511.058
506.004
500.708
495.182
489.44
483.494
477.359
471.047
464.573
457.95
451.192
444.311
437.321
430.236
423.067
415.827
408.529
401.185
393.807
386.405
378.991
371.576
364.169
356.781
349.421
342.099
334.824
327.606
320.454
313.377
306.386
299.491
292.703
286.033
279.495
273.101
266.866
260.804
254.927
249.247
243.747
238.478
7.58797
3.58895
2.77788
2.52007
2.44402
2.45364
2.51392
2.60939
2.73242
2.879
3.047
3.2354
3.44387
3.67262
3.92222
4.19366
4.48823
4.80759
5.15371
5.52893
5.93594
6.37779
6.85796
7.38029
7.949
8.5689
9.24537
9.98416
10.7907
11.6719
12.635
13.6883
14.8409
16.104
17.4803
18.9805
20.615
22.3943
24.3289
26.4292
28.706
31.1699
33.8313
36.7002
39.784
43.0909
46.6291
50.4059
54.4281
58.7014
63.2305
68.0195
73.071
78.3872
83.9688
89.816
95.9279
102.303
108.938
115.829
122.971
130.358
137.985
145.843
153.926
162.226
170.734
179.441
188.338
197.414
206.66
216.064
225.616
235.304
245.117
255.043
265.072
275.191
285.389
295.655
305.98
316.351
326.758
337.198
347.654
358.134
368.605
378.984
389.237
399.357
409.33
419.145
428.788
438.247
447.508
456.559
465.389
473.986
482.336
490.43
498.254
505.798
513.052
520.003
526.643
532.96
538.947
544.593
549.891
554.834
559.414
563.624
567.461
570.917
573.99
576.675
578.97
580.872
582.382
583.497
584.219
584.549
584.488
584.04
583.209
581.998
580.414
578.462
576.148
573.482
570.47
567.122
563.447
559.455
555.156
550.563
545.686
540.537
535.13
529.476
523.588
517.48
511.165
504.657
497.968
491.114
484.107
476.961
469.689
462.305
454.822
447.252
439.609
431.905
424.152
416.363
408.547
400.717
392.883
385.056
377.246
369.462
361.714
354.011
346.362
338.777
331.264
323.832
316.492
309.254
302.128
295.126
288.259
281.542
274.988
268.609
262.417
256.424
250.613
245.039
7.47871
3.54033
2.74045
2.48867
2.41778
2.43314
2.50056
2.60509
2.73956
2.90039
3.08594
3.29573
3.5301
3.79
4.07695
4.39295
4.74053
5.12276
5.54322
6.0061
6.51617
7.07871
7.69994
8.38675
9.14572
9.98535
10.9156
11.9486
13.0881
14.3468
15.7368
17.2707
18.9615
20.8222
22.864
25.0996
27.5417
30.2027
33.0946
36.2282
39.6137
43.2603
47.1758
51.3663
55.8362
60.5887
65.6256
70.9476
76.5538
82.4423
88.6097
95.0516
101.763
108.736
115.966
123.443
131.159
139.107
147.275
155.656
164.238
173.011
181.965
191.091
200.376
209.812
219.387
229.091
238.914
248.847
258.877
268.997
279.194
289.461
299.786
310.161
320.576
331.024
341.495
351.98
362.479
372.976
383.461
393.968
404.425
414.756
424.938
434.969
444.836
454.529
464.039
473.353
482.462
491.354
500.02
508.448
516.629
524.552
532.207
539.585
546.675
553.469
559.957
566.13
571.98
577.498
582.677
587.509
591.988
596.107
599.861
603.244
606.252
608.882