/*--------------------------------*- C++ -*----------------------------------*\
  =========                 |
  \\      /  F ield         | OpenFOAM: The Open Source CFD Toolbox
   \\    /   O peration     | Website:  https://openfoam.org
    \\  /    A nd           | Version:  12
     \\/     M anipulation  |
\*---------------------------------------------------------------------------*/
FoamFile
{
    format      ascii;
    class       volScalarField;
    location    "0.19";
    object      nut;
}
// * * * * * * * * * * * * * * * * * * * * * * * * * * * * * * * * * * * * * //

dimensions      [0 2 -1 0 0 0 0];

internalField   nonuniform List<scalar> 
12225
(
4.04768e-05
3.83178e-05
3.62504e-05
3.44199e-05
3.2952e-05
3.18977e-05
3.12562e-05
3.09937e-05
3.10581e-05
3.13901e-05
3.19312e-05
3.26274e-05
3.34326e-05
3.4308e-05
3.52246e-05
3.61579e-05
3.71129e-05
3.84959e-05
0.000281048
0.000209266
0.000176267
0.000157439
0.000146272
0.000139687
0.000135793
0.000133431
0.000131916
0.000130859
0.000130044
0.000129357
0.00012874
0.000128162
0.000127623
0.00012708
0.000126685
0.000125734
0.000556047
0.000419908
0.000349815
0.000304737
0.000272449
0.000247986
0.00022877
0.000213306
0.000200678
0.000190277
0.000181663
0.000174497
0.000168508
0.000163477
0.000159228
0.000155577
0.000152437
0.000149374
0.000740308
0.000625821
0.000544117
0.000485
0.000439773
0.000403654
0.000373846
0.000348611
0.000326862
0.000307901
0.000291255
0.000276577
0.000263597
0.000252085
0.000241845
0.000232661
0.000224377
0.00021671
0.000817069
0.000759142
0.000700546
0.000648579
0.000603899
0.000565587
0.000532478
0.00050352
0.000477887
0.000454971
0.000434326
0.000415617
0.000398587
0.000383024
0.000368749
0.000355577
0.000343365
0.000332016
0.0008421
0.000819688
0.000789925
0.000757607
0.000725555
0.000695166
0.00066697
0.000641023
0.000617183
0.000595248
0.000575017
0.000556301
0.000538936
0.000522775
0.000507689
0.000493548
0.00048025
0.000467842
0.000849261
0.000841808
0.000829742
0.000814188
0.000796482
0.000777763
0.000758852
0.00074026
0.000722274
0.000705042
0.000688622
0.000673024
0.000658226
0.000644191
0.00063087
0.000618211
0.000606171
0.000594879
0.00085112
0.000848748
0.00084448
0.000838237
0.000830247
0.000820896
0.000810601
0.000799724
0.000788558
0.000777318
0.00076616
0.000755192
0.000744482
0.000734072
0.000723987
0.000714235
0.00070483
0.000695924
0.00085156
0.000850665
0.00084917
0.000846887
0.000843741
0.000839759
0.000835035
0.000829695
0.000823877
0.000817708
0.000811303
0.000804754
0.00079814
0.000791521
0.000784943
0.000778444
0.000772059
0.000765925
0.000851652
0.000851133
0.000850468
0.000849564
0.000848347
0.000846772
0.000844826
0.00084252
0.000839884
0.000836959
0.000833791
0.000830426
0.000826907
0.000823274
0.000819563
0.000815804
0.000812033
0.000808345
0.000851668
0.00085123
0.000850778
0.000850278
0.000849698
0.000849007
0.000848182
0.000847211
0.000846088
0.000844814
0.000843399
0.000841854
0.000840194
0.000838434
0.000836591
0.000834681
0.000832725
0.000830777
0.000851669
0.000851245
0.000850835
0.000850429
0.000850014
0.000849575
0.000849101
0.000848579
0.000848002
0.000847365
0.000846664
0.000845901
0.000845078
0.000844198
0.000843267
0.000842291
0.00084128
0.000840268
0.000851668
0.000851244
0.000850843
0.000850459
0.000850088
0.000849726
0.000849365
0.000849001
0.000848628
0.000848243
0.000847841
0.00084742
0.000846979
0.000846518
0.000846036
0.000845536
0.000845021
0.000844511
0.000851667
0.000851242
0.000850839
0.000850458
0.000850096
0.000849751
0.000849421
0.000849102
0.000848793
0.000848491
0.000848194
0.000847901
0.00084761
0.000847321
0.000847031
0.000846741
0.000846453
0.000846179
0.000851666
0.000851239
0.000850835
0.000850452
0.00085009
0.000849746
0.000849419
0.000849108
0.000848811
0.000848528
0.000848256
0.000847996
0.000847746
0.000847504
0.000847272
0.000847047
0.000846832
0.000846637
0.000851665
0.000851236
0.000850831
0.000850447
0.000850083
0.000849737
0.000849409
0.000849098
0.000848801
0.000848519
0.00084825
0.000847994
0.00084775
0.000847517
0.000847294
0.000847082
0.000846881
0.000846703
0.000851664
0.000851235
0.000850828
0.000850442
0.000850077
0.00084973
0.000849401
0.000849088
0.00084879
0.000848507
0.000848237
0.00084798
0.000847735
0.000847502
0.000847279
0.000847066
0.000846866
0.000846689
0.000851663
0.000851234
0.000850826
0.00085044
0.000850073
0.000849725
0.000849395
0.000849081
0.000848782
0.000848498
0.000848227
0.000847969
0.000847723
0.000847488
0.000847264
0.00084705
0.000846849
0.00084667
0.000851663
0.000851233
0.000850825
0.000850439
0.000850072
0.000849724
0.000849393
0.000849078
0.000848779
0.000848494
0.000848222
0.000847964
0.000847717
0.000847481
0.000847256
0.000847041
0.000846838
0.000846659
0.000851664
0.000851234
0.000850826
0.00085044
0.000850074
0.000849726
0.000849396
0.000849081
0.000848782
0.000848497
0.000848225
0.000847965
0.000847718
0.00084748
0.000847254
0.000847037
0.000846832
0.000846649
0.000851664
0.000851235
0.000850829
0.000850443
0.000850078
0.00084973
0.000849399
0.000849082
0.00084878
0.000848489
0.00084821
0.00084794
0.00084768
0.000847427
0.000847182
0.000846945
0.000846716
0.000846506
0.000851665
0.000851237
0.00085083
0.000850442
0.000850069
0.000849706
0.000849351
0.000848999
0.000848647
0.000848293
0.000847935
0.00084757
0.000847198
0.000846819
0.000846433
0.000846039
0.000845641
0.000845252
0.000851664
0.000851228
0.000850794
0.000850348
0.00084987
0.000849345
0.000848762
0.000848111
0.000847388
0.000846593
0.000845727
0.000844796
0.000843805
0.000842761
0.000841671
0.000840543
0.000839386
0.000838225
0.000851634
0.000851073
0.000850343
0.000849363
0.000848079
0.000846468
0.000844531
0.000842291
0.000839785
0.000837051
0.000834134
0.000831074
0.000827908
0.000824671
0.000821391
0.000818095
0.000814806
0.000811572
0.000851287
0.000849596
0.000846721
0.000842577
0.000837262
0.000830979
0.000823971
0.00081647
0.000808672
0.000800735
0.000792781
0.000784898
0.000777153
0.00076959
0.00076224
0.000755121
0.00074825
0.000741677
0.000848318
0.000839426
0.00082616
0.000810016
0.000792356
0.000774223
0.000756316
0.000739037
0.000722585
0.00070704
0.000692412
0.000678676
0.000665784
0.000653682
0.000642314
0.000631625
0.000621567
0.00061215
0.000828548
0.000788842
0.000746032
0.000705699
0.000669458
0.000637493
0.000609434
0.000584725
0.000562827
0.000543285
0.00052573
0.000509863
0.000495443
0.000482274
0.000470199
0.000459086
0.00044883
0.000439383
0.000730726
0.000627344
0.000554504
0.000501055
0.000460311
0.000428339
0.000402623
0.000381456
0.000363695
0.000348563
0.000335516
0.000324156
0.000314183
0.000305371
0.000297537
0.000290538
0.000284255
0.000278604
0.000439249
0.00033847
0.000287934
0.000256867
0.00023636
0.000222508
0.000212991
0.00020631
0.000201504
0.000197957
0.00019527
0.000193176
0.000191498
0.000190116
0.000188946
0.000187932
0.000187036
0.000186209
7.16431e-05
6.90587e-05
6.65522e-05
6.41646e-05
6.19883e-05
6.00784e-05
5.84564e-05
5.71213e-05
5.60571e-05
5.52402e-05
5.46435e-05
5.42393e-05
5.40007e-05
5.39029e-05
5.39233e-05
5.40417e-05
5.42409e-05
5.45044e-05
3.16144e-07
7.53229e-06
1.22739e-05
1.66286e-05
2.14051e-05
2.68056e-05
3.29049e-05
3.98214e-05
4.73994e-05
5.51812e-05
6.31805e-05
7.13514e-05
7.96375e-05
8.79857e-05
9.63487e-05
0.000104684
0.000112951
0.000121112
0.000129127
0.000136954
0.000144551
0.00015187
0.000158861
0.000165466
0.000171624
0.00017727
0.000182346
0.000186809
0.000190633
0.000193771
0.000196073
0.000197255
0.00019721
0.000197098
0.000198222
0.000199888
0.000201475
0.000202414
0.000202316
4.65354e-05
0.000204126
0.000202015
0.000204594
4.7783e-05
4.87742e-05
4.98212e-05
5.08821e-05
5.19503e-05
5.30229e-05
5.40979e-05
5.51739e-05
5.62499e-05
5.73253e-05
5.83996e-05
5.94723e-05
6.05432e-05
6.16118e-05
6.26778e-05
6.37409e-05
6.48008e-05
6.58571e-05
6.69094e-05
6.79575e-05
6.90008e-05
7.00391e-05
7.10718e-05
7.20986e-05
7.31189e-05
7.41324e-05
7.51386e-05
7.61371e-05
7.71273e-05
7.81087e-05
7.9081e-05
8.00436e-05
8.0996e-05
8.19379e-05
8.28687e-05
8.37879e-05
8.46952e-05
8.55902e-05
8.64722e-05
8.73411e-05
8.81962e-05
8.90373e-05
8.9864e-05
9.06758e-05
9.14724e-05
9.22533e-05
9.30183e-05
9.37669e-05
9.44987e-05
9.52133e-05
9.59105e-05
9.65899e-05
9.72513e-05
9.78948e-05
9.85209e-05
9.91311e-05
9.97284e-05
0.00010031
0.000100868
0.000101406
0.000101922
0.000102416
0.000102888
0.000103339
0.000103766
0.00010417
0.000104551
0.000104909
0.000105242
0.000105551
0.000105836
0.000106096
0.000106331
0.000106541
0.000106726
0.000106885
0.000107019
0.000107127
0.00010721
0.000107267
0.000107298
0.000107304
0.000107284
0.000107238
0.000107167
0.000107071
0.00010695
0.000106803
0.000106632
0.000106437
0.000106217
0.000105973
0.000105705
0.000105414
0.0001051
0.000104764
0.000104405
0.000104025
0.000103623
0.0001032
0.000102758
0.000102295
0.000101813
0.000101313
0.000100795
0.000100259
9.97063e-05
9.91376e-05
9.85533e-05
9.79543e-05
9.73412e-05
9.67146e-05
9.60753e-05
9.54242e-05
9.47616e-05
9.40887e-05
9.34061e-05
9.27141e-05
9.20151e-05
9.13069e-05
9.05957e-05
8.98868e-05
8.92706e-05
8.88637e-05
8.84748e-05
8.80847e-05
8.76924e-05
8.7298e-05
8.69013e-05
8.6502e-05
8.60986e-05
8.5688e-05
8.52637e-05
8.48099e-05
8.42866e-05
8.35935e-05
8.22916e-05
1.12858e-06
2.75605e-05
5.90896e-05
8.18422e-05
9.76551e-05
0.000109431
0.000119536
0.000129186
0.000138921
0.000148903
0.000159115
0.000169484
0.000179931
0.000190382
0.000200772
0.000211043
0.000221142
0.000231016
0.000240609
0.000249862
0.000258704
0.000267057
0.000274821
0.00028188
0.000288098
0.000293327
0.000297423
0.000300256
0.00030167
0.000301364
0.000298722
0.000292913
0.000283962
0.00027499
0.000272078
0.000270966
0.00027
0.000268154
0.000264107
0.000255597
0.000265373
0.000264595
0.000268071
0.000267323
0.000273299
0.000279517
0.000286164
0.000293116
0.00030031
0.000307694
0.000315239
0.000322923
0.000330734
0.000338661
0.000346701
0.000354847
0.000363097
0.000371448
0.000379899
0.000388447
0.00039709
0.000405827
0.000414656
0.000423573
0.000432578
0.000441666
0.000450835
0.000460082
0.000469402
0.000478792
0.000488248
0.000497764
0.000507335
0.000516958
0.000526625
0.000536333
0.000546074
0.000555844
0.000565636
0.000575444
0.000585263
0.000595087
0.000604909
0.000614725
0.000624528
0.000634314
0.000644078
0.000653814
0.000663519
0.000673187
0.000682815
0.000692397
0.000701929
0.000711403
0.000720811
0.000730139
0.000739363
0.000748446
0.000757332
0.000765782
0.000773708
0.000781474
0.000789117
0.000796639
0.000804034
0.000811298
0.000818424
0.000825407
0.000832242
0.000838923
0.000845445
0.000851802
0.00085799
0.000864003
0.000869838
0.000875489
0.000880952
0.000886223
0.000891299
0.000896175
0.000900848
0.000905315
0.000909573
0.00091362
0.000917452
0.000921068
0.000924466
0.000927644
0.0009306
0.000933334
0.000935844
0.000938129
0.00094019
0.000942026
0.000943638
0.000945026
0.000946191
0.000947134
0.000947856
0.00094836
0.000948646
0.000948719
0.000948579
0.00094823
0.000947676
0.000946919
0.000945964
0.000944815
0.000943475
0.00094195
0.000940245
0.000938365
0.000936313
0.000934099
0.000931727
0.000929201
0.000926532
0.000923723
0.000920784
0.000917723
0.000914539
0.000911259
0.00090788
0.000904353
0.000900551
0.00089568
0.000888923
0.000881624
0.000874139
0.000866559
0.000858915
0.000851225
0.000843495
0.000835727
0.000827915
0.000820034
0.000812011
0.000803734
0.000794207
0.000775637
2.20129e-06
4.34668e-05
9.19946e-05
0.000127977
0.000153882
0.000173214
0.000188656
0.000202029
0.000214442
0.00022649
0.000238435
0.000250362
0.000262263
0.000274095
0.000285802
0.000297325
0.000308606
0.000319588
0.000330212
0.000340417
0.000350138
0.000359304
0.000367838
0.000375656
0.00038268
0.00038885
0.000394148
0.000398607
0.000402308
0.000405322
0.000407653
0.000409309
0.000410657
0.000412902
0.000417156
0.000422717
0.00042919
0.000436387
0.000444305
0.000452674
0.000463017
0.000473847
0.00048639
0.000499461
0.000513518
0.000527926
0.000542687
0.000557781
0.000573182
0.000588865
0.000604806
0.00062099
0.000637403
0.000654035
0.000670879
0.000687928
0.000705177
0.000722622
0.000740258
0.000758082
0.000776087
0.00079427
0.000812625
0.000831146
0.000849828
0.000868663
0.000887643
0.00090676
0.000926007
0.000945372
0.000964846
0.000984419
0.00100408
0.00102382
0.00104362
0.00106347
0.00108336
0.00110328
0.00112321
0.00114315
0.00116307
0.00118297
0.00120283
0.00122265
0.0012424
0.00126208
0.00128167
0.00130117
0.00132056
0.00133982
0.00135896
0.00137794
0.00139676
0.00141539
0.00143382
0.00145201
0.00146992
0.0014875
0.00150471
0.00152125
0.00153738
0.00155321
0.00156879
0.00158411
0.00159916
0.00161393
0.00162841
0.00164258
0.00165644
0.00166998
0.00168318
0.00169604
0.00170854
0.00172067
0.00173243
0.0017438
0.00175477
0.00176535
0.00177551
0.00178526
0.00179458
0.00180347
0.00181192
0.00181993
0.0018275
0.00183461
0.00184126
0.00184746
0.00185319
0.00185846
0.00186327
0.0018676
0.00187147
0.00187487
0.0018778
0.00188027
0.00188227
0.00188381
0.00188489
0.00188552
0.00188569
0.00188542
0.00188471
0.00188356
0.00188199
0.00187999
0.00187758
0.00187477
0.00187156
0.00186797
0.001864
0.00185967
0.00185498
0.00184995
0.00184459
0.00183892
0.00183295
0.00182668
0.00182015
0.00181338
0.00180636
0.00179911
0.00179167
0.0017839
0.00177563
0.0017662
0.00175504
0.00174302
0.00173058
0.00171789
0.00170503
0.00169203
0.00167893
0.00166571
0.00165237
0.00163882
0.00162487
0.00161001
0.00159229
0.00156308
3.39532e-06
5.4848e-05
0.000115508
0.000161989
0.000196434
0.00022243
0.000242913
0.000260024
0.000275204
0.000289349
0.000302963
0.000316298
0.000329455
0.000342456
0.000355279
0.00036789
0.000380246
0.000392304
0.000404024
0.000415369
0.000426303
0.000436799
0.000446831
0.000456385
0.000465466
0.000474107
0.000482382
0.000490415
0.000498369
0.00050642
0.000514727
0.00052344
0.000532778
0.000543082
0.000554597
0.000567251
0.000580962
0.00059568
0.000611389
0.000628029
0.000645673
0.000664235
0.000683763
0.000703994
0.000724776
0.000745953
0.000767487
0.000789364
0.000811575
0.000834108
0.000856953
0.000880099
0.000903539
0.000927264
0.000951268
0.000975544
0.00100009
0.00102489
0.00104995
0.00107525
0.0011008
0.00112658
0.00115258
0.0011788
0.00120523
0.00123185
0.00125866
0.00128563
0.00131277
0.00134005
0.00136745
0.00139498
0.00142259
0.00145029
0.00147805
0.00150585
0.00153368
0.00156152
0.00158935
0.00161715
0.0016449
0.00167259
0.00170019
0.00172769
0.00175507
0.00178232
0.00180941
0.00183633
0.00186306
0.00188958
0.00191587
0.00194192
0.0019677
0.00199319
0.00201835
0.00204317
0.00206761
0.00209164
0.00211509
0.00213797
0.00216041
0.00218247
0.00220417
0.0022255
0.00224646
0.00226703
0.00228719
0.00230693
0.00232623
0.00234508
0.00236347
0.00238138
0.00239879
0.0024157
0.00243209
0.00244795
0.00246326
0.00247802
0.00249221
0.00250583
0.00251886
0.0025313
0.00254314
0.00255436
0.00256498
0.00257497
0.00258433
0.00259306
0.00260115
0.0026086
0.0026154
0.00262156
0.00262708
0.00263195
0.00263617
0.00263975
0.00264269
0.00264498
0.00264664
0.00264767
0.00264807
0.00264785
0.00264702
0.00264558
0.00264355
0.00264093
0.00263773
0.00263396
0.00262964
0.00262478
0.00261939
0.00261349
0.00260709
0.0026002
0.00259286
0.00258506
0.00257683
0.00256821
0.00255919
0.00254982
0.0025401
0.00253004
0.00251964
0.00250882
0.00249743
0.00248506
0.0024714
0.00245686
0.00244178
0.00242632
0.00241061
0.00239468
0.00237859
0.00236233
0.00234588
0.00232916
0.00231188
0.00229335
0.00227142
0.00223947
4.5378e-06
6.38773e-05
0.000134087
0.000189276
0.000230938
0.0002627
0.000287675
0.000308217
0.000325995
0.000342125
0.000357302
0.000371931
0.000386227
0.000400288
0.00041415
0.000427812
0.000441263
0.000454487
0.000467472
0.000480212
0.000492707
0.00050497
0.000517024
0.000528908
0.00054068
0.000552419
0.000564236
0.000576269
0.000588675
0.000601614
0.000615233
0.000629656
0.000644996
0.000661362
0.000678815
0.000697347
0.000716924
0.000737509
0.00075906
0.000781526
0.000804857
0.000828995
0.000853871
0.000879367
0.000905373
0.00093181
0.000958638
0.000985839
0.0010134
0.00104132
0.00106959
0.0010982
0.00112715
0.00115642
0.00118602
0.00121593
0.00124614
0.00127666
0.00130747
0.00133856
0.00136993
0.00140156
0.00143344
0.00146556
0.00149791
0.00153048
0.00156324
0.00159618
0.00162929
0.00166254
0.00169593
0.00172942
0.001763
0.00179664
0.00183033
0.00186405
0.00189776
0.00193146
0.00196511
0.00199869
0.00203219
0.00206557
0.00209882
0.00213191
0.00216483
0.00219755
0.00223005
0.00226231
0.00229431
0.00232604
0.00235746
0.00238856
0.00241931
0.0024497
0.00247969
0.00250927
0.0025384
0.00256707
0.00259509
0.00262258
0.0026496
0.00267618
0.00270233
0.00272805
0.00275332
0.00277813
0.00280246
0.00282629
0.0028496
0.00287238
0.00289462
0.00291629
0.00293738
0.00295788
0.00297776
0.00299702
0.00301565
0.00303362
0.00305092
0.00306755
0.00308349
0.00309874
0.00311327
0.00312709
0.00314018
0.00315254
0.00316417
0.00317504
0.00318517
0.00319453
0.00320314
0.00321098
0.00321807
0.00322438
0.00322993
0.00323472
0.00323874
0.00324201
0.00324451
0.00324626
0.00324727
0.00324754
0.00324707
0.00324588
0.00324397
0.00324136
0.00323805
0.00323406
0.0032294
0.00322409
0.00321813
0.00321156
0.00320437
0.0031966
0.00318826
0.00317937
0.00316996
0.00316004
0.00314964
0.00313879
0.0031275
0.00311577
0.00310361
0.00309098
0.00307776
0.00306372
0.00304871
0.00303291
0.00301653
0.00299971
0.00298257
0.00296517
0.00294755
0.00292974
0.00291173
0.00289343
0.00287458
0.00285448
0.00283124
0.00280043
5.55782e-06
7.12096e-05
0.000149263
0.000211726
0.000259571
0.000296396
0.000325413
0.000349119
0.000369344
0.00038737
0.000404049
0.000419921
0.000435308
0.000450393
0.000465272
0.000479992
0.000494579
0.000509047
0.000523413
0.000537697
0.000551932
0.000566157
0.000580426
0.000594804
0.000609372
0.000624224
0.000639471
0.000655232
0.000671635
0.000688798
0.000706827
0.000725801
0.000745778
0.000766794
0.000788858
0.000811952
0.000836042
0.000861084
0.00088703
0.000913822
0.0009414
0.000969699
0.000998652
0.00102818
0.00105822
0.00108871
0.00111963
0.00115094
0.00118264
0.00121473
0.00124719
0.00128001
0.00131319
0.00134672
0.0013806
0.00141482
0.00144936
0.00148422
0.00151939
0.00155486
0.00159062
0.00162665
0.00166294
0.00169948
0.00173625
0.00177323
0.00181041
0.00184777
0.00188529
0.00192294
0.0019607
0.00199856
0.0020365
0.00207447
0.00211247
0.00215047
0.00218844
0.00222635
0.00226419
0.00230193
0.00233954
0.00237699
0.00241427
0.00245134
0.00248819
0.0025248
0.00256113
0.00259717
0.0026329
0.0026683
0.00270335
0.00273802
0.00277229
0.00280615
0.00283957
0.00287254
0.00290503
0.00293697
0.0029683
0.00299909
0.00302941
0.00305926
0.00308864
0.00311754
0.00314596
0.00317387
0.00320126
0.0032281
0.00325439
0.0032801
0.00330522
0.00332972
0.00335359
0.00337682
0.00339938
0.00342126
0.00344245
0.00346294
0.00348269
0.00350171
0.00351998
0.00353749
0.00355422
0.00357018
0.00358534
0.0035997
0.00361325
0.00362599
0.0036379
0.00364898
0.00365923
0.00366864
0.00367721
0.00368495
0.00369184
0.00369788
0.00370309
0.00370745
0.00371098
0.00371367
0.00371554
0.00371659
0.00371681
0.00371624
0.00371486
0.00371271
0.00370977
0.00370606
0.00370161
0.00369643
0.00369052
0.0036839
0.00367661
0.00366864
0.00366002
0.00365078
0.00364094
0.00363052
0.00361954
0.00360803
0.00359601
0.00358348
0.00357046
0.00355693
0.0035428
0.00352798
0.00351237
0.00349606
0.00347918
0.00346184
0.00344413
0.00342613
0.0034079
0.00338948
0.00337087
0.00335202
0.0033327
0.00331235
0.00328946
0.00326121
6.41817e-06
7.72117e-05
0.000161632
0.000230185
0.000283361
0.000324672
0.000357363
0.000384018
0.000406578
0.000426449
0.00044461
0.000461715
0.000478187
0.000494291
0.000510186
0.000525968
0.000541702
0.000557433
0.000573202
0.000589053
0.000605036
0.000621207
0.000637634
0.00065439
0.00067156
0.000689232
0.000707503
0.000726467
0.000746219
0.00076684
0.000788397
0.000810938
0.000834487
0.000859053
0.000884622
0.000911168
0.000938652
0.000967028
0.000996246
0.00102625
0.00105698
0.00108838
0.0011204
0.00115298
0.00118606
0.00121961
0.0012536
0.00128801
0.00132282
0.00135803
0.00139363
0.0014296
0.00146594
0.00150265
0.0015397
0.0015771
0.00161484
0.00165289
0.00169126
0.00172993
0.00176888
0.00180811
0.0018476
0.00188732
0.00192727
0.00196743
0.00200777
0.00204828
0.00208894
0.00212972
0.0021706
0.00221155
0.00225256
0.0022936
0.00233464
0.00237565
0.00241662
0.00245751
0.00249829
0.00253895
0.00257944
0.00261976
0.00265986
0.00269973
0.00273935
0.00277868
0.00281771
0.00285641
0.00289476
0.00293275
0.00297035
0.00300754
0.00304431
0.00308064
0.00311651
0.0031519
0.0031868
0.00322109
0.00325482
0.00328803
0.00332077
0.00335302
0.00338479
0.00341608
0.00344685
0.0034771
0.00350681
0.00353596
0.00356453
0.0035925
0.00361985
0.00364657
0.00367263
0.00369802
0.00372271
0.0037467
0.00376997
0.0037925
0.00381427
0.00383526
0.00385547
0.00387489
0.00389349
0.00391127
0.00392822
0.00394433
0.00395959
0.00397399
0.00398752
0.00400018
0.00401195
0.00402284
0.00403285
0.00404196
0.00405019
0.00405752
0.00406395
0.00406949
0.00407415
0.00407792
0.00408081
0.00408282
0.00408395
0.00408423
0.00408365
0.00408224
0.00407998
0.0040769
0.00407301
0.00406834
0.00406288
0.00405665
0.00404968
0.00404198
0.00403357
0.00402448
0.00401473
0.00400435
0.00399335
0.00398176
0.0039696
0.00395688
0.00394362
0.0039298
0.00391541
0.00390037
0.00388467
0.00386833
0.00385144
0.00383408
0.00381634
0.00379829
0.00378001
0.00376154
0.00374293
0.00372416
0.00370506
0.0036852
0.00366347
0.00363803
7.13399e-06
8.19695e-05
0.000171491
0.000245125
0.0003029
0.000348192
0.000384234
0.000413646
0.000438444
0.000460123
0.000479759
0.000498104
0.000515667
0.000532789
0.00054969
0.000566515
0.000583364
0.000600313
0.000617423
0.000634755
0.000652368
0.000670327
0.0006887
0.000707561
0.000726986
0.000747051
0.000767834
0.000789406
0.000811832
0.000835168
0.000859451
0.000884707
0.000910943
0.00093815
0.000966309
0.000995386
0.00102534
0.00105614
0.00108771
0.00112003
0.00115303
0.00118666
0.00122088
0.00125565
0.00129092
0.00132666
0.00136285
0.00139946
0.00143648
0.00147391
0.00151172
0.0015499
0.00158846
0.00162738
0.00166665
0.00170625
0.00174619
0.00178645
0.00182701
0.00186786
0.001909
0.0019504
0.00199204
0.00203392
0.00207602
0.00211831
0.00216078
0.00220341
0.00224618
0.00228906
0.00233203
0.00237507
0.00241815
0.00246125
0.00250435
0.00254741
0.00259041
0.00263332
0.00267612
0.00271877
0.00276126
0.00280354
0.00284561
0.00288742
0.00292896
0.0029702
0.00301111
0.00305168
0.00309189
0.00313171
0.00317113
0.00321013
0.0032487
0.00328681
0.00332445
0.00336161
0.00339825
0.00343431
0.00346986
0.00350492
0.0035395
0.00357362
0.00360726
0.0036404
0.00367304
0.00370516
0.00373673
0.00376773
0.00379815
0.00382796
0.00385715
0.0038857
0.00391358
0.00394078
0.00396728
0.00399305
0.00401809
0.00404238
0.00406589
0.00408861
0.00411052
0.00413162
0.00415188
0.0041713
0.00418987
0.00420757
0.00422439
0.00424034
0.00425538
0.00426952
0.00428275
0.00429507
0.00430646
0.00431694
0.0043265
0.00433513
0.00434283
0.0043496
0.00435544
0.00436036
0.00436438
0.00436748
0.00436966
0.00437093
0.00437132
0.00437085
0.00436947
0.00436723
0.00436413
0.00436021
0.00435546
0.0043499
0.00434355
0.00433644
0.00432858
0.00431999
0.00431069
0.00430072
0.00429008
0.0042788
0.00426691
0.00425441
0.00424134
0.00422768
0.00421344
0.00419859
0.00418312
0.00416706
0.00415047
0.00413342
0.00411598
0.00409823
0.00408024
0.0040621
0.00404385
0.00402552
0.00400703
0.00398804
0.00396775
0.00394491
7.70488e-06
8.55982e-05
0.00017909
0.000256898
0.000318607
0.000367414
0.000406495
0.000438476
0.000465408
0.000488848
0.000509944
0.000529525
0.000548176
0.0005663
0.000584176
0.000601992
0.000619883
0.00063795
0.000656272
0.000674919
0.000693959
0.000713457
0.000733478
0.000754088
0.000775352
0.000797332
0.000820088
0.00084367
0.000868124
0.000893483
0.000919768
0.000946988
0.00097514
0.00100421
0.00103417
0.00106499
0.00109663
0.00112905
0.0011622
0.00119604
0.00123053
0.00126563
0.00130128
0.00133746
0.00137413
0.00141127
0.00144884
0.00148684
0.00152525
0.00156404
0.00160322
0.00164277
0.00168268
0.00172294
0.00176354
0.00180447
0.00184573
0.00188729
0.00192915
0.00197129
0.00201371
0.00205639
0.00209931
0.00214245
0.00218581
0.00222937
0.0022731
0.00231698
0.00236101
0.00240516
0.00244939
0.00249371
0.00253807
0.00258246
0.00262684
0.00267121
0.00271551
0.00275974
0.00280386
0.00284785
0.00289167
0.00293529
0.0029787
0.00302186
0.00306474
0.00310732
0.00314958
0.00319149
0.00323303
0.00327419
0.00331494
0.00335527
0.00339517
0.00343461
0.00347359
0.00351209
0.00355007
0.00358755
0.00362456
0.00366111
0.00369722
0.00373287
0.00376806
0.00380278
0.00383699
0.00387069
0.00390386
0.00393646
0.00396849
0.00399991
0.00403071
0.00406087
0.00409036
0.00411917
0.00414728
0.00417466
0.0042013
0.00422719
0.00425229
0.00427659
0.00430007
0.00432272
0.00434453
0.00436548
0.00438556
0.00440477
0.00442309
0.00444051
0.00445701
0.00447259
0.00448724
0.00450095
0.00451372
0.00452555
0.00453646
0.00454641
0.00455539
0.00456343
0.00457051
0.00457665
0.00458188
0.00458614
0.00458945
0.00459183
0.0045933
0.00459385
0.0045935
0.00459225
0.00459012
0.00458713
0.00458329
0.0045786
0.0045731
0.0045668
0.00455971
0.00455187
0.00454328
0.00453397
0.00452397
0.00451328
0.00450195
0.00448998
0.00447739
0.00446419
0.00445039
0.004436
0.00442101
0.00440546
0.00438939
0.00437285
0.00435593
0.00433869
0.00432123
0.00430363
0.00428597
0.0042683
0.0042506
0.00423264
0.00421381
0.00419323
8.13472e-06
8.82133e-05
0.000184658
0.00026581
0.000330828
0.000382701
0.000424512
0.000458856
0.000487797
0.000512924
0.000535439
0.000556229
0.000575937
0.000595023
0.000613812
0.000632533
0.000651351
0.000670389
0.00068974
0.000709485
0.000729691
0.000750423
0.000771741
0.0007937
0.000816356
0.000839755
0.000863943
0.000888955
0.000914819
0.000941555
0.000969173
0.000997671
0.00102704
0.00105726
0.00108831
0.00112015
0.00115275
0.00118607
0.00122007
0.00125472
0.00128997
0.00132578
0.00136212
0.00139897
0.00143628
0.00147404
0.00151223
0.00155083
0.00158981
0.00162918
0.00166891
0.001709
0.00174944
0.00179022
0.00183133
0.00187276
0.00191451
0.00195655
0.0019989
0.00204152
0.00208442
0.00212757
0.00217098
0.00221462
0.00225848
0.00230255
0.00234681
0.00239125
0.00243584
0.00248057
0.00252542
0.00257038
0.0026154
0.00266048
0.00270559
0.0027507
0.00279578
0.00284082
0.00288577
0.00293062
0.00297533
0.00301986
0.0030642
0.00310831
0.00315216
0.00319572
0.00323897
0.00328188
0.00332444
0.00336661
0.00340839
0.00344976
0.00349069
0.00353119
0.00357124
0.00361083
0.00364997
0.00368868
0.00372697
0.00376485
0.00380231
0.00383934
0.00387593
0.00391207
0.00394772
0.00398287
0.0040175
0.00405158
0.00408509
0.004118
0.0041503
0.00418197
0.00421297
0.0042433
0.00427292
0.00430182
0.00432999
0.00435739
0.00438401
0.00440982
0.0044348
0.00445895
0.00448225
0.00450468
0.00452624
0.00454691
0.00456669
0.00458556
0.00460351
0.00462051
0.00463656
0.00465166
0.00466581
0.00467902
0.00469128
0.00470258
0.00471289
0.00472222
0.00473059
0.004738
0.00474445
0.00474994
0.00475446
0.00475804
0.00476068
0.00476239
0.00476318
0.00476305
0.00476202
0.0047601
0.00475731
0.00475366
0.00474916
0.00474384
0.00473772
0.0047308
0.00472311
0.00471467
0.00470551
0.00469563
0.00468507
0.00467384
0.00466196
0.00464945
0.00463633
0.0046226
0.00460828
0.0045934
0.004578
0.00456215
0.0045459
0.00452933
0.00451255
0.00449563
0.00447869
0.00446181
0.00444498
0.00442808
0.00441062
0.00439193
8.43173e-06
8.99308e-05
0.000188416
0.000272144
0.00033988
0.000394376
0.000438593
0.000475073
0.000505863
0.00053257
0.000556424
0.000578356
0.000599054
0.000619021
0.000638624
0.000658124
0.000677712
0.00069753
0.000717684
0.000738259
0.000759326
0.000780944
0.000803169
0.000826048
0.000849623
0.000873932
0.000899006
0.000924869
0.000951539
0.000979025
0.00100733
0.00103644
0.00106635
0.00109704
0.00112848
0.00116064
0.00119349
0.00122699
0.00126112
0.00129583
0.0013311
0.00136689
0.00140317
0.00143991
0.00147709
0.0015147
0.0015527
0.00159109
0.00162986
0.00166898
0.00170846
0.00174828
0.00178844
0.00182894
0.00186976
0.0019109
0.00195235
0.00199411
0.00203618
0.00207854
0.00212119
0.00216413
0.00220734
0.00225081
0.00229453
0.0023385
0.00238269
0.00242711
0.00247173
0.00251653
0.0025615
0.00260661
0.00265186
0.00269721
0.00274264
0.00278813
0.00283364
0.00287915
0.00292463
0.00297005
0.00301537
0.00306056
0.00310559
0.00315042
0.00319502
0.00323937
0.00328342
0.00332715
0.00337054
0.00341357
0.00345621
0.00349845
0.00354028
0.00358169
0.00362267
0.00366329
0.00370355
0.00374343
0.00378295
0.0038221
0.00386086
0.00389922
0.00393717
0.00397467
0.00401172
0.00404828
0.00408433
0.00411985
0.00415481
0.00418918
0.00422295
0.00425608
0.00428857
0.00432037
0.00435148
0.00438187
0.00441153
0.00444043
0.00446854
0.00449584
0.00452231
0.00454794
0.00457271
0.00459661
0.00461963
0.00464175
0.00466298
0.00468332
0.00470271
0.00472114
0.00473861
0.00475512
0.00477067
0.00478526
0.00479888
0.00481153
0.0048232
0.00483388
0.00484359
0.00485232
0.00486008
0.00486687
0.00487269
0.00487755
0.00488146
0.00488442
0.00488645
0.00488755
0.00488773
0.00488701
0.00488541
0.00488292
0.00487958
0.00487538
0.00487036
0.00486453
0.0048579
0.0048505
0.00484234
0.00483345
0.00482384
0.00481354
0.00480256
0.00479092
0.00477864
0.00476575
0.00475226
0.00473821
0.00472363
0.00470858
0.00469313
0.00467736
0.00466137
0.00464525
0.00462912
0.00461309
0.00459718
0.00458131
0.00456509
0.00454799
8.60797e-06
9.08685e-05
0.000190584
0.000276179
0.000346061
0.000402734
0.000449015
0.000487367
0.000519806
0.000547933
0.000572996
0.000595951
0.000617519
0.000638238
0.000658503
0.000678605
0.000698755
0.00071911
0.000739785
0.000760872
0.000782441
0.000804549
0.000827244
0.000850567
0.000874552
0.000899225
0.00092461
0.00095072
0.000977564
0.00100515
0.00103346
0.0010625
0.00109224
0.00112268
0.00115377
0.00118551
0.00121785
0.00125077
0.00128424
0.00131824
0.00135272
0.00138767
0.00142307
0.00145888
0.0014951
0.00153171
0.00156869
0.00160604
0.00164374
0.00168179
0.00172019