/*--------------------------------*- C++ -*----------------------------------*\
  =========                 |
  \\      /  F ield         | OpenFOAM: The Open Source CFD Toolbox
   \\    /   O peration     | Website:  https://openfoam.org
    \\  /    A nd           | Version:  12
     \\/     M anipulation  |
\*---------------------------------------------------------------------------*/
FoamFile
{
    format      ascii;
    class       volScalarField;
    location    "0.19";
    object      p;
}
// * * * * * * * * * * * * * * * * * * * * * * * * * * * * * * * * * * * * * //

dimensions      [0 2 -2 0 0 0 0];

internalField   nonuniform List<scalar> 
12225
(
-1.12302
-3.40602
-4.5685
-4.87671
-5.04501
-5.20478
-5.32943
-5.41791
-5.48759
-5.54869
-5.60299
-5.65032
-5.69098
-5.72428
-5.74908
-5.755
-5.75173
-5.64302
-4.59052
-5.29263
-5.38288
-5.24785
-5.20783
-5.27517
-5.35599
-5.42193
-5.47902
-5.53252
-5.5822
-5.62689
-5.66631
-5.69957
-5.72622
-5.73921
-5.75142
-5.73553
-4.79526
-4.69231
-4.84911
-4.97127
-5.07869
-5.20106
-5.30944
-5.3922
-5.45951
-5.51947
-5.57376
-5.62215
-5.66477
-5.70136
-5.73234
-5.75458
-5.78241
-5.81465
-4.65797
-4.57985
-4.85593
-5.0347
-5.12921
-5.22641
-5.32161
-5.39927
-5.46398
-5.52233
-5.57578
-5.62397
-5.66703
-5.70512
-5.73924
-5.76947
-5.80754
-5.85975
-4.66494
-4.6822
-4.9223
-5.07224
-5.14834
-5.23313
-5.32283
-5.39901
-5.46311
-5.52099
-5.57433
-5.62293
-5.66704
-5.70723
-5.74497
-5.78198
-5.82691
-5.88657
-4.72663
-4.7691
-4.9469
-5.07767
-5.15573
-5.23834
-5.32475
-5.39972
-5.46348
-5.52114
-5.57451
-5.62362
-5.66886
-5.71109
-5.752
-5.7939
-5.84294
-5.90455
-4.78637
-4.82589
-4.96232
-5.08457
-5.16702
-5.24683
-5.32861
-5.4016
-5.46482
-5.52218
-5.57553
-5.62511
-5.6714
-5.71541
-5.75887
-5.80404
-5.85518
-5.91584
-4.83952
-4.87442
-4.98474
-5.09741
-5.18003
-5.25602
-5.33308
-5.40389
-5.46645
-5.52348
-5.57677
-5.62675
-5.67398
-5.71947
-5.76482
-5.81195
-5.86368
-5.92192
-4.88931
-4.92105
-5.01186
-5.1127
-5.19284
-5.26539
-5.33825
-5.40673
-5.46841
-5.52501
-5.57815
-5.62842
-5.67637
-5.72295
-5.76951
-5.81754
-5.8688
-5.92407
-4.93667
-4.9653
-5.04049
-5.12944
-5.20588
-5.27535
-5.34438
-5.41032
-5.47084
-5.52684
-5.57971
-5.63008
-5.67847
-5.72571
-5.77285
-5.82097
-5.87107
-5.9233
-4.98145
-5.00673
-5.06955
-5.14765
-5.21959
-5.28595
-5.35139
-5.41466
-5.47377
-5.52903
-5.58146
-5.63171
-5.68024
-5.72771
-5.77489
-5.8225
-5.87107
-5.92039
-5.01996
-5.04229
-5.09615
-5.16545
-5.23276
-5.29611
-5.35847
-5.41928
-5.47692
-5.53132
-5.58321
-5.63314
-5.68152
-5.72885
-5.77568
-5.82246
-5.86947
-5.91634
-5.05566
-5.07546
-5.122
-5.18356
-5.24617
-5.30646
-5.36592
-5.42432
-5.48039
-5.53382
-5.58503
-5.63447
-5.68249
-5.72942
-5.77563
-5.8214
-5.8668
-5.91146
-5.09319
-5.11049
-5.15029
-5.20431
-5.26169
-5.31843
-5.37477
-5.43052
-5.48471
-5.53686
-5.58713
-5.63583
-5.68317
-5.72937
-5.77464
-5.81907
-5.86266
-5.90505
-5.13131
-5.14621
-5.18007
-5.2271
-5.27904
-5.33185
-5.38488
-5.4378
-5.48982
-5.54038
-5.58942
-5.63704
-5.68337
-5.72849
-5.77246
-5.8153
-5.85694
-5.89709
-5.16808
-5.18083
-5.20971
-5.25064
-5.29732
-5.34608
-5.39575
-5.44577
-5.49542
-5.54412
-5.59162
-5.63786
-5.68284
-5.72654
-5.76895
-5.81001
-5.84964
-5.88764
-5.20063
-5.21163
-5.23662
-5.27264
-5.31476
-5.35976
-5.40626
-5.45351
-5.50078
-5.54748
-5.59323
-5.63785
-5.68123
-5.7233
-5.76397
-5.80318
-5.84085
-5.87686
-5.22458
-5.23438
-5.25677
-5.28946
-5.32831
-5.37045
-5.41444
-5.45941
-5.50462
-5.54947
-5.59351
-5.63648
-5.67822
-5.71862
-5.75757
-5.795
-5.83086
-5.86508
-5.23299
-5.24234
-5.26381
-5.29535
-5.33304
-5.37404
-5.41686
-5.46065
-5.50467
-5.54831
-5.5911
-5.63277
-5.67315
-5.71212
-5.7496
-5.78554
-5.8199
-5.85267
-5.21802
-5.22808
-5.25106
-5.2847
-5.3245
-5.3671
-5.41097
-5.45543
-5.49986
-5.54362
-5.58627
-5.62758
-5.66743
-5.70575
-5.74247
-5.77758
-5.81108
-5.84299
-5.19182
-5.20301
-5.2288
-5.26653
-5.31028
-5.35585
-5.4019
-5.4481
-5.49384
-5.53843
-5.58151
-5.62299
-5.66282
-5.70096
-5.7374
-5.77214
-5.80521
-5.83669
-5.15688
-5.16925
-5.19929
-5.24376
-5.29326
-5.34239
-5.39112
-5.43982
-5.48754
-5.53338
-5.5772
-5.6191
-5.65914
-5.69731
-5.73364
-5.76819
-5.80102
-5.83223
-5.11626
-5.12886
-5.16423
-5.21881
-5.27593
-5.32893
-5.3805
-5.43189
-5.48167
-5.52885
-5.57353
-5.61602
-5.65641
-5.69472
-5.73105
-5.76552
-5.79822
-5.82928
-5.07242
-5.08398
-5.12636
-5.19297
-5.25766
-5.3153
-5.3712
-5.42588
-5.47739
-5.52545
-5.5708
-5.61378
-5.65445
-5.69285
-5.72916
-5.76355
-5.79615
-5.82707
-5.02556
-5.03332
-5.09435
-5.17414
-5.23926
-5.29891
-5.3608
-5.42037
-5.47412
-5.52316
-5.56919
-5.61266
-5.65354
-5.69198
-5.72823
-5.76251
-5.795
-5.82585
-4.97761
-4.95395
-5.06474
-5.17367
-5.23423
-5.2883
-5.35172
-5.41406
-5.46932
-5.5193
-5.56615
-5.61021
-5.65142
-5.69001
-5.7263
-5.76058
-5.79304
-5.82383
-4.96829
-4.82396
-4.98299
-5.14917
-5.23364
-5.29463
-5.3594
-5.42052
-5.47423
-5.52333
-5.56969
-5.61332
-5.65407
-5.69222
-5.72809
-5.76198
-5.79413
-5.82472
-5.1137
-4.82989
-4.86462
-4.99505
-5.1146
-5.22157
-5.31558
-5.3913
-5.45349
-5.50867
-5.55935
-5.60587
-5.64858
-5.6881
-5.72494
-5.7595
-5.79228
-5.82392
-5.0505
-5.55018
-5.56029
-5.401
-5.31999
-5.34415
-5.39825
-5.4476
-5.49264
-5.53713
-5.5807
-5.62205
-5.66082
-5.69722
-5.73144
-5.76358
-5.7939
-5.82426
-1.71182
-3.58237
-4.65363
-4.94665
-5.08145
-5.21816
-5.33002
-5.40995
-5.47284
-5.52879
-5.58001
-5.62659
-5.6691
-5.70828
-5.74454
-5.7779
-5.80802
-5.83312
-6.72587
-6.72587
-6.72624
-6.72696
-6.72793
-6.72912
-6.73055
-6.73223
-6.73417
-6.73639
-6.7389
-6.74176
-6.74498
-6.74861
-6.75268
-6.75723
-6.76229
-6.7679
-6.7741
-6.78092
-6.78839
-6.79657
-6.80548
-6.81518
-6.82569
-6.83707
-6.84936
-6.8626
-6.87683
-6.89218
-6.90896
-6.92698
-6.94475
-6.96248
-6.98199
-7.0036
-7.02759
-7.0529
-7.08121
-7.11554
-7.15032
-7.16829
-7.17888
-7.20084
-7.22741
-7.25506
-7.28349
-7.31281
-7.34278
-7.37329
-7.40421
-7.43542
-7.46682
-7.4983
-7.52974
-7.56106
-7.59214
-7.62286
-7.65311
-7.68277
-7.71172
-7.73982
-7.76693
-7.79292
-7.81764
-7.84094
-7.86265
-7.88261
-7.90065
-7.91661
-7.9303
-7.94155
-7.95016
-7.95597
-7.95877
-7.95838
-7.95461
-7.94727
-7.93617
-7.92112
-7.90194
-7.87844
-7.85043
-7.81775
-7.7802
-7.73764
-7.68988
-7.63677
-7.57815
-7.51387
-7.44379
-7.36777
-7.2857
-7.19744
-7.1029
-7.00199
-6.89467
-6.78097
-6.66084
-6.53406
-6.40036
-6.25959
-6.1119
-5.95735
-5.79595
-5.62774
-5.45273
-5.27099
-5.08256
-4.88752
-4.68596
-4.478
-4.26374
-4.04334
-3.81694
-3.58472
-3.34685
-3.10354
-2.85499
-2.60143
-2.3431
-2.08025
-1.81313
-1.54201
-1.26718
-0.988916
-0.707518
-0.423287
-0.136528
0.152445
0.443318
0.735773
1.02949
1.32415
1.61944
1.91504
2.21063
2.50591
2.80057
3.09431
3.38684
3.67787
3.96714
4.25437
4.5393
4.8217
5.10132
5.37794
5.65136
5.92137
6.18779
6.45044
6.70917
6.96382
7.21426
7.46037
7.70202
7.93913
8.1716
8.39936
8.62232
8.84045
9.0537
9.26204
9.46544
9.66386
9.85712
10.0451
10.2278
10.4052
10.5774
10.7443
10.906
11.0625
11.2139
11.3605
11.5032
11.6434
11.7903
11.9444
-6.7244
-6.72473
-6.72522
-6.72581
-6.72638
-6.72696
-6.72768
-6.72865
-6.72993
-6.73156
-6.73354
-6.73591
-6.73868
-6.74187
-6.7455
-6.74961
-6.75422
-6.75936
-6.76507
-6.77137
-6.7783
-6.7859
-6.79418
-6.80318
-6.81292
-6.82341
-6.83467
-6.8467
-6.85954
-6.87323
-6.88752
-6.90193
-6.91751
-6.93553
-6.95509
-6.97517
-6.9951
-7.01579
-7.03703
-7.05504
-7.06852
-7.09497
-7.13519
-7.17088
-7.20196
-7.23148
-7.26127
-7.29133
-7.32171
-7.3524
-7.38336
-7.41453
-7.44584
-7.4772
-7.50852
-7.53971
-7.57066
-7.60128
-7.63145
-7.66105
-7.68996
-7.71805
-7.74519
-7.77123
-7.79604
-7.81946
-7.84132
-7.86148
-7.87976
-7.896
-7.91
-7.92161
-7.93062
-7.93687
-7.94016
-7.9403
-7.9371
-7.93038
-7.91994
-7.9056
-7.88717
-7.86447
-7.83731
-7.80552
-7.76892
-7.72734
-7.68062
-7.6286
-7.57112
-7.50805
-7.43922
-7.36452
-7.28382
-7.19699
-7.10394
-7.00454
-6.89868
-6.78626
-6.6671
-6.54102
-6.40815
-6.26872
-6.12255
-5.96959
-5.80982
-5.64326
-5.46992
-5.28984
-5.10308
-4.90972
-4.70983
-4.50352
-4.29092
-4.07215
-3.84737
-3.61674
-3.38044
-3.13867
-2.89164
-2.63956
-2.38267
-2.12121
-1.85545
-1.58564
-1.31207
-1.03502
-0.754783
-0.471654
-0.185942
0.102044
0.391991
0.683582
0.976498
1.27042
1.56504
1.86003
2.15507
2.44987
2.74412
3.03751
3.32976
3.62057
3.90968
4.1968
4.4817
4.76411
5.0438
5.32055
5.59415
5.86438
6.13107
6.39404
6.65312
6.90816
7.15903
7.40559
7.64774
7.88536
8.11837
8.34668
8.57023
8.78896
9.00283
9.2118
9.41585
9.61489
9.80878
9.99741
10.1808
10.3589
10.5318
10.6995
10.8619
11.0193
11.1717
11.3196
11.4642
11.6065
11.7568
11.9048
-6.72063
-6.72179
-6.72302
-6.72407
-6.72481
-6.72539
-6.72601
-6.72681
-6.72789
-6.7293
-6.73107
-6.73323
-6.73581
-6.73881
-6.74228
-6.74623
-6.75069
-6.75569
-6.76126
-6.76743
-6.77423
-6.7817
-6.78985
-6.79872
-6.80834
-6.81872
-6.8299
-6.84189
-6.85476
-6.86857
-6.8833
-6.89873
-6.91504
-6.93286
-6.9521
-6.97233
-6.99326
-7.01482
-7.03712
-7.05897
-7.07995
-7.10364
-7.13158
-7.16046
-7.18921
-7.21805
-7.24731
-7.27694
-7.3069
-7.33715
-7.36765
-7.39834
-7.42915
-7.46001
-7.49084
-7.52155
-7.55204
-7.58222
-7.61196
-7.64118
-7.66973
-7.6975
-7.72435
-7.75015
-7.77475
-7.798
-7.81976
-7.83984
-7.8581
-7.87437
-7.88845
-7.90019
-7.9094
-7.91589
-7.91948
-7.91998
-7.91721
-7.91097
-7.90107
-7.88733
-7.86956
-7.84759
-7.82121
-7.79027
-7.75458
-7.71397
-7.66828
-7.61735
-7.56103
-7.49916
-7.4316
-7.35822
-7.27888
-7.19348
-7.10188
-7.00398
-6.89968
-6.78881
-6.6713
-6.54711
-6.41616
-6.27855
-6.1342
-5.9831
-5.82521
-5.66055
-5.48914
-5.31099
-5.12618
-4.93476
-4.73683
-4.53247
-4.32181
-4.10497
-3.88211
-3.65338
-3.41896
-3.17904
-2.93383
-2.68353
-2.42839
-2.16864
-1.90453
-1.63634
-1.36433
-1.08878
-0.809984
-0.528241
-0.24385
0.0428806
0.33164
0.622113
0.913983
1.20693
1.50065
1.79482
2.08912
2.38325
2.6769
2.96977
3.26157
3.55202
3.84084
4.12775
4.41249
4.69483
4.97451
5.25132
5.52504
5.79546
6.06239
6.32565
6.58508
6.84052
7.09183
7.33887
7.58154
7.81972
8.05333
8.28226
8.50644
8.72582
8.94034
9.14994
9.3546
9.55424
9.74881
9.93823
10.1224
10.3014
10.4752
10.6438
10.8072
10.9656
11.1193
11.2686
11.4151
11.5591
11.712
11.8499
-6.71505
-6.71703
-6.71937
-6.72131
-6.72266
-6.72366
-6.72455
-6.72552
-6.72668
-6.72811
-6.72988
-6.73201
-6.73455
-6.73751
-6.74093
-6.74484
-6.74925
-6.7542
-6.75972
-6.76584
-6.77257
-6.77996
-6.78804
-6.79682
-6.80633
-6.8166
-6.82766
-6.83954
-6.85226
-6.86588
-6.88039
-6.89579
-6.91213
-6.92956
-6.94813
-6.96773
-6.98827
-7.00963
-7.03174
-7.05446
-7.07789
-7.10257
-7.12871
-7.15582
-7.18352
-7.21173
-7.24043
-7.26954
-7.29902
-7.32881
-7.35886
-7.38911
-7.4195
-7.44996
-7.48039
-7.51072
-7.54086
-7.57071
-7.60016
-7.6291
-7.65741
-7.68497
-7.71165
-7.73731
-7.7618
-7.78499
-7.80672
-7.82682
-7.84513
-7.86148
-7.8757
-7.88761
-7.89704
-7.90379
-7.90768
-7.90853
-7.90614
-7.90034
-7.89092
-7.8777
-7.86051
-7.83914
-7.81342
-7.78318
-7.74824
-7.70842
-7.66357
-7.61351
-7.5581
-7.49719
-7.43063
-7.35828
-7.28001
-7.1957
-7.10522
-7.00846
-6.9053
-6.79565
-6.6794
-6.55653
-6.42702
-6.29082
-6.14791
-5.99826
-5.84184
-5.67866
-5.50873
-5.33209
-5.14878
-4.95888
-4.76245
-4.55961
-4.35045
-4.13511
-3.91373
-3.68648
-3.45351
-3.21503
-2.97123
-2.72232
-2.46853
-2.21011
-1.9473
-1.68036
-1.40956
-1.13519
-0.857532
-0.576875
-0.293523
-0.00778023
0.280042
0.569631
0.860673
1.15285
1.44585
1.73936
2.03306
2.32665
2.61981
2.91227
3.2037
3.49385
3.78241
4.06913
4.35375
4.636
4.91566
5.1925
5.46629
5.73684
6.00394
6.26743
6.52711
6.78286
7.0345
7.28192
7.525
7.76361
7.99766
8.22707
8.45175
8.67166
8.88672
9.09686
9.30203
9.50215
9.69719
9.88713
10.0719
10.2515
10.4259
10.5951
10.7593
10.9184
11.0729
11.2232
11.3706
11.5147
11.6665
11.7921
-6.70906
-6.71191
-6.71544
-6.71841
-6.72052
-6.72211
-6.72346
-6.72478
-6.72621
-6.72785
-6.72978
-6.73205
-6.73471
-6.73777
-6.74129
-6.74528
-6.74978
-6.75481
-6.76041
-6.7666
-6.77341
-6.78087
-6.78901
-6.79786
-6.80745
-6.81781
-6.82895
-6.84092
-6.85374
-6.86745
-6.88204
-6.89756
-6.91403
-6.93151
-6.95001
-6.96947
-6.98983
-7.01104
-7.03306
-7.05586
-7.07951
-7.1042
-7.12993
-7.15648
-7.18367
-7.21141
-7.23965
-7.26833
-7.2974
-7.32681
-7.35649
-7.3864
-7.41646
-7.4466
-7.47675
-7.50681
-7.5367
-7.56632
-7.59556
-7.62432
-7.65248
-7.67991
-7.70649
-7.73208
-7.75654
-7.77971
-7.80145
-7.82159
-7.83997
-7.85643
-7.87078
-7.88285
-7.89246
-7.89943
-7.90357
-7.9047
-7.90262
-7.89715
-7.88809
-7.87527
-7.8585
-7.83758
-7.81235
-7.78262
-7.74822
-7.70897
-7.66471
-7.61528
-7.56053
-7.50029
-7.43444
-7.36282
-7.28531
-7.20178
-7.1121
-7.01616
-6.91386
-6.80511
-6.68981
-6.56792
-6.4394
-6.3042
-6.16229
-6.01363
-5.85822
-5.69606
-5.52715
-5.35154
-5.16926
-4.98038
-4.78498
-4.58316
-4.37502
-4.1607
-3.94033
-3.71407
-3.48209
-3.24457
-3.00173
-2.75376
-2.5009
-2.24337
-1.98144
-1.71535
-1.44539
-1.17182
-0.894931
-0.615016
-0.332373
-0.0473085
0.239871
0.528852
0.819321
1.11096
1.40347
1.69651
1.9898
2.28301
2.57583
2.86798
3.15916
3.44908
3.73747
4.02405
4.30856
4.59075
4.87038
5.14723
5.42107
5.69169
5.95891
6.22253
6.48239
6.73834
6.99021
7.23788
7.48122
7.72013
7.95451
8.18426
8.40931
8.62958
8.84501
9.05552
9.26102
9.46145
9.65679
9.84704
10.0321
10.2121
10.3869
10.5565
10.721
10.8806
11.0355
11.1861
11.3335
11.4764
11.6254
11.7392
-6.70387
-6.70748
-6.71206
-6.71599
-6.7189
-6.72113
-6.72302
-6.7248
-6.72662
-6.72859
-6.73081
-6.73334
-6.73623
-6.73952
-6.74325
-6.74745
-6.75215
-6.75738
-6.76317
-6.76955
-6.77656
-6.78421
-6.79256
-6.80161
-6.81141
-6.82198
-6.83335
-6.84555
-6.8586
-6.87252
-6.88734
-6.90308
-6.91974
-6.93734
-6.95589
-6.97535
-6.99569
-7.01687
-7.03887
-7.06167
-7.08528
-7.10975
-7.13507
-7.16114
-7.18788
-7.21519
-7.24304
-7.27135
-7.30009
-7.32919
-7.35859
-7.38823
-7.41804
-7.44796
-7.4779
-7.50778
-7.5375
-7.56698
-7.59611
-7.62477
-7.65286
-7.68024
-7.70679
-7.73237
-7.75683
-7.78004
-7.80183
-7.82205
-7.84053
-7.8571
-7.87159
-7.88382
-7.8936
-7.90077
-7.90512
-7.90647
-7.90464
-7.89943
-7.89066
-7.87814
-7.86168
-7.8411
-7.81622
-7.78685
-7.75283
-7.71399
-7.67015
-7.62116
-7.56686
-7.50711
-7.44174
-7.37064
-7.29366
-7.21067
-7.12156
-7.02621
-6.92452
-6.8164
-6.70177
-6.58056
-6.45271
-6.31819
-6.17695
-6.02897
-5.87424
-5.71275
-5.54452
-5.36958
-5.18798
-4.99977
-4.80505
-4.6039
-4.39644
-4.18278
-3.96308
-3.73748
-3.50615
-3.26928
-3.02707
-2.77973
-2.52748
-2.27055
-2.00921
-1.7437
-1.47429
-1.20127
-0.924903
-0.645495
-0.363339
-0.0787405
0.207993
0.496551
0.78662
1.07789
1.37004
1.66276
1.95574
2.24867
2.54124
2.83317
3.12415
3.4139
3.70214
3.9886
4.27301
4.55514
4.83473
5.11156
5.38541
5.65606
5.92334
6.18704
6.447
6.70306
6.95507
7.20291
7.44643
7.68555
7.92014
8.15011
8.37539
8.5959
8.81156
9.02229
9.22801
9.42865
9.62419
9.81464
9.99996
10.1801
10.3551
10.525
10.6898
10.8496
11.0046
11.1551
11.3019
11.4431
11.589
11.6924
-6.70032
-6.70451
-6.70992
-6.71466
-6.71828
-6.72112
-6.72355
-6.72581
-6.72806
-6.73041
-6.73298
-6.73584
-6.73903
-6.74262
-6.74663
-6.7511
-6.75607
-6.76157
-6.76762
-6.77427
-6.78155
-6.78947
-6.79808
-6.8074
-6.81747
-6.8283
-6.83993
-6.85238
-6.86568
-6.87983
-6.89485
-6.91077
-6.92757
-6.94528
-6.96387
-6.98334
-7.00366
-7.0248
-7.04676
-7.0695
-7.09303
-7.11734
-7.14241
-7.16819
-7.19461
-7.22163
-7.2492
-7.27726
-7.30576
-7.33464
-7.36384
-7.39331
-7.42297
-7.45276
-7.48258
-7.51237
-7.54202
-7.57145
-7.60054
-7.62919
-7.65728
-7.68468
-7.71126
-7.73689
-7.76143
-7.78472
-7.80661
-7.82693
-7.84553
-7.86224
-7.87687
-7.88925
-7.89919
-7.90653
-7.91106
-7.9126
-7.91096
-7.90595
-7.89739
-7.88509
-7.86886
-7.84851
-7.82387
-7.79475
-7.76099
-7.72241
-7.67885
-7.63015
-7.57615
-7.5167
-7.45165
-7.38088
-7.30424
-7.22161
-7.13287
-7.03791
-6.93662
-6.82892
-6.71472
-6.59394
-6.46652
-6.33242
-6.19161
-6.04405
-5.88973
-5.72865
-5.56084
-5.38631
-5.20513
-5.01734
-4.82304
-4.62231
-4.41526
-4.20202
-3.98273
-3.75754
-3.52663
-3.29017
-3.04836
-2.80142
-2.54957
-2.29304
-2.03209
-1.76696
-1.49793
-1.22527
-0.94926
-0.670199
-0.388381
-0.104109
0.18231
0.470565
0.760343
1.05133
1.34322
1.63569
1.92844
2.22115
2.51353
2.80527
3.09608
3.38568
3.67378
3.96013
4.24444
4.52649
4.80602
5.0828
5.35661
5.62726
5.89453
6.15825
6.41825
6.67437
6.92645
7.17437
7.418
7.65723
7.89194
8.12205
8.34747
8.56812
8.78392
8.99479
9.20065
9.40143
9.59712
9.78771
9.97317
10.1535
10.3286
10.4986
10.6635
10.8234
10.9783
11.1284
11.2743
11.4136
11.5566
11.6509
-6.69885
-6.70343
-6.70943
-6.71479
-6.71898
-6.72235
-6.72527
-6.72798
-6.73064
-6.73338
-6.73631
-6.7395
-6.74302
-6.74692
-6.75123
-6.75601
-6.76127
-6.76707
-6.77342
-6.78035
-6.78791
-6.79612
-6.80501
-6.81461
-6.82494
-6.83604
-6.84792
-6.8606
-6.87411
-6.88846
-6.90366
-6.91971
-6.93663
-6.95441
-6.97304
-6.99252
-7.01282
-7.03393
-7.05583
-7.07851
-7.10196
-7.12615
-7.15107
-7.17667
-7.20292
-7.22977
-7.25717
-7.28507
-7.31343
-7.3422
-7.3713
-7.40069
-7.4303
-7.46004
-7.48984
-7.51963
-7.54929
-7.57875
-7.60788
-7.63659
-7.66475
-7.69223
-7.71891
-7.74464
-7.76929
-7.7927
-7.81472
-7.83517
-7.85391
-7.87075
-7.88552
-7.89805
-7.90814
-7.91562
-7.92029
-7.92197
-7.92048
-7.91562
-7.9072
-7.89503
-7.87894
-7.85873
-7.83423
-7.80526
-7.77164
-7.73321
-7.6898
-7.64125
-7.58741
-7.52813
-7.46326
-7.39266
-7.31622
-7.23379
-7.14525
-7.05051
-6.94945
-6.84198
-6.728
-6.60745
-6.48026
-6.34639
-6.20579
-6.05844
-5.90433
-5.74347
-5.57586
-5.40155
-5.22058
-5.03301
-4.83892
-4.63841
-4.43159
-4.21857
-3.99951
-3.77456
-3.54388
-3.30766
-3.06609
-2.81939
-2.56778
-2.31149
-2.05078
-1.78589
-1.5171
-1.24468
-0.968914
-0.69009
-0.408505
-0.124463
0.16173
0.449764
0.739326
1.0301
1.32179
1.61406
1.90662
2.19915
2.49136
2.78293
3.07359
3.36304
3.65101
3.93723
4.22144
4.50338
4.78281
5.05952
5.33327
5.60386
5.87109
6.13479
6.39477
6.65089
6.90299
7.15093
7.39459
7.63386
7.86863
8.0988
8.32429
8.54502
8.76089
8.97184
9.17778
9.37866
9.57445
9.76513
9.95069
10.1311
10.3063
10.4764
10.6413
10.801
10.9557
11.1053
11.2501
11.3874
11.5278
11.6141
-6.69966
-6.70446
-6.7108
-6.71656
-6.72116
-6.72495
-6.72827
-6.73136
-6.73438
-6.73747
-6.74073
-6.74423
-6.74806
-6.75225
-6.75685
-6.76191
-6.76746
-6.77352
-6.78015
-6.78735
-6.79518
-6.80364
-6.81278
-6.82263
-6.83319
-6.84451
-6.8566
-6.86947
-6.88315
-6.89765
-6.91298
-6.92914
-6.94614
-6.96397
-6.98264
-7.00212
-7.02242
-7.04351
-7.06538
-7.08802
-7.11142
-7.13555
-7.16038
-7.1859
-7.21206
-7.23883
-7.26616
-7.29401
-7.32233
-7.35107
-7.38018
-7.40957
-7.43921
-7.46899
-7.49886
-7.52871
-7.55847
-7.58802
-7.61726
-7.64609
-7.67437
-7.70199
-7.7288
-7.75468
-7.77947
-7.80302
-7.82518
-7.84578
-7.86465
-7.88163
-7.89653
-7.90917
-7.91938
-7.92696
-7.93174
-7.93351
-7.9321
-7.92732
-7.91897
-7.90687
-7.89083
-7.87067
-7.84622
-7.81729
-7.78371
-7.74532
-7.70195
-7.65344
-7.59963
-7.54039
-7.47557
-7.40503
-7.32864
-7.24628
-7.15782
-7.06315
-6.96217
-6.85477
-6.74087
-6.62038
-6.49325
-6.35943
-6.21889
-6.07159
-5.91753
-5.75672
-5.58917
-5.41491
-5.23399
-5.04649
-4.85247
-4.65203
-4.44529
-4.23236
-4.0134
-3.78854
-3.55797
-3.32186
-3.08041
-2.83384
-2.58236
-2.32621
-2.06563
-1.8009
-1.53226
-1.26
-0.98439
-0.70573
-0.424312
-0.140438
0.145585
0.433447
0.722836
1.01344
1.30495
1.59706
1.88945
2.18181
2.47385
2.76527
3.05577
3.34507
3.63289
3.91897
4.20304
4.48486
4.76418
5.04077
5.31442
5.58492
5.85207
6.1157
6.37562
6.63169
6.88374
7.13166
7.3753
7.61456
7.84933
8.07951
8.30501
8.52576
8.74166
8.95264
9.15863
9.35956
9.5554
9.74614
9.93175
10.1122
10.2874
10.4575
10.6223
10.7819
10.9362
11.0851
11.2288
11.364
11.502
11.5815
-6.70271
-6.70755
-6.71401
-6.71997
-6.72483
-6.72891
-6.73252
-6.73591
-6.73921
-6.74258
-6.7461
-6.74987
-6.75394
-6.75837
-6.76321
-6.7685
-6.77427
-6.78057
-6.78741
-6.79483
-6.80286
-6.81153
-6.82086
-6.83089
-6.84163
-6.85311
-6.86535
-6.87836
-6.89217
-6.90677
-6.92219
-6.93842
-6.95547
-6.97335
-6.99204
-7.01153
-7.03183
-7.05293
-7.0748
-7.09743
-7.12082
-7.14494
-7.16977
-7.19527
-7.22143
-7.24821
-7.27556
-7.30344
-7.33181
-7.36061
-7.38978
-7.41927
-7.44901
-7.47891
-7.5089
-7.53889
-7.56879
-7.5985
-7.6279
-7.65688
-7.68533
-7.71311
-7.74008
-7.76612
-7.79106
-7.81475
-7.83705
-7.85778
-7.87676
-7.89384
-7.90884
-7.92156
-7.93184
-7.93947
-7.94429
-7.94609
-7.9447
-7.93992
-7.93156
-7.91944
-7.90337
-7.88318
-7.85868
-7.8297
-7.79606
-7.75761
-7.71417
-7.66559
-7.61173
-7.55243
-7.48755
-7.41695
-7.34052
-7.25811
-7.1696
-7.0749
-6.97386
-6.86641
-6.75244
-6.63189
-6.50469
-6.3708
-6.23018
-6.08281
-5.92868
-5.76779
-5.60017
-5.42586
-5.24489
-5.05734
-4.86329
-4.66282
-4.45606
-4.24312
-4.02416
-3.79931
-3.56877
-3.33269
-3.09128
-2.84476
-2.59335
-2.33727
-2.07678
-1.81214
-1.5436
-1.27145
-0.995962
-0.71743
-0.436145
-0.152413
0.133462
0.421171
0.710404
1.00085
1.29219
1.58413
1.87634
2.16853
2.4604
2.75164
3.04197
3.33109
3.61875
3.90466
4.18857
4.47023
4.7494
5.02584
5.29935
5.56972
5.83675
6.10025
6.36007
6.61604
6.86801
7.11584
7.35942
7.59862
7.83334
8.06348
8.28896
8.50968
8.72556
8.93654
9.14253
9.34348
9.53935
9.73011
9.91573
10.0962
10.2714
10.4414
10.6061
10.7654
10.9192
11.0673
11.2098
11.343
11.4788
11.5525
-6.70781
-6.71255
-6.71893
-6.7249
-6.72987
-6.7341
-6.7379
-6.74147
-6.74497
-6.74852
-6.75223
-6.75617
-6.76041
-6.76501
-6.77
-6.77545
-6.78137
-6.7878
-6.79479
-6.80234
-6.81051
-6.81931
-6.82876
-6.83891
-6.84976
-6.86134
-6.87367
-6.88677
-6.90064
-6.91531
-6.93078
-6.94706
-6.96414
-6.98205
-7.00076
-7.02028
-7.0406
-7.06172
-7.08362
-7.10629
-7.12971
-7.15387
-7.17875
-7.20431
-7.23054
-7.25739
-7.28483
-7.31282
-7.3413
-7.37023
-7.39955
-7.42919
-7.45908
-7.48915
-7.51931
-7.54948
-7.57956
-7.60944
-7.63902
-7.66818
-7.6968
-7.72474
-7.75187
-7.77805
-7.80312
-7.82693
-7.84933
-7.87014
-7.8892
-7.90633
-7.92136
-7.9341
-7.94437
-7.95199
-7.95677
-7.95852
-7.95706
-7.95219
-7.94374
-7.93151
-7.91532
-7.895
-7.87036
-7.84124
-7.80746
-7.76885
-7.72526
-7.67653
-7.62252
-7.56307
-7.49804
-7.42731
-7.35073
-7.26819
-7.17956
-7.0847
-6.98351
-6.87589
-6.76175
-6.64103
-6.51366
-6.3796
-6.23881
-6.09128
-5.93699
-5.77595
-5.60819
-5.43374
-5.25265
-5.06498
-4.87082
-4.67027
-4.46343
-4.25043
-4.03142
-3.80654
-3.57597
-3.33989
-3.09849
-2.85199
-2.60061
-2.34458
-2.08415
-1.81958
-1.55113
-1.27908
-1.00371
-0.725297
-0.444152
-0.160568
0.12515
0.412694
0.701755
0.992021
1.28318
1.57492
1.86694
2.15893
2.45059
2.74163
3.03175
3.32067
3.60812
3.89383
4.17753
4.45899
4.73796
5.01421
5.28754
5.55772
5.82458
6.08792
6.34758
6.60341
6.85524
7.10295
7.34641
7.58551
7.82014
8.0502
8.27561
8.49627
8.7121
8.92304
9.129
9.32994
9.52581
9.71656
9.90217
10.0826
10.2578
10.4276
10.5921
10.7511
10.9044
11.0516
11.1929
11.3242
11.458
11.5267
-6.71467
-6.7192
-6.72534
-6.73117
-6.73609
-6.74034
-6.7442
-6.74784
-6.75142
-6.75506
-6.75884
-6.76286
-6.76717
-6.77183
-6.77689
-6.7824
-6.78837
-6.79487
-6.8019
-6.80951
-6.81772
-6.82657
-6.83607
-6.84626
-6.85715
-6.86877
-6.88114
-6.89426
-6.90817
-6.92286
-6.93836
-6.95466
-6.97177
-6.9897
-7.00844
-7.028
-7.04836
-7.06952
-7.09148
-7.11422
-7.13772
-7.16197
-7.18694
-7.21262
-7.23897
-7.26595
-7.29353
-7.32167
-7.35032
-7.37942
-7.40891
-7.43873
-7.46881
-7.49907
-7.52942
-7.55977
-7.59003
-7.62008
-7.64983
-7.67914
-7.70789
-7.73596
-7.7632
-7.78946
-7.81461
-7.83848
-7.86091
-7.88173
-7.90078
-7.91788
-7.93285
-7.94552
-7.9557
-7.96321
-7.96785
-7.96945
-7.96782
-7.96278
-7.95413
-7.9417
-7.92531
-7.90477
-7.8799
-7.85055
-7.81654
-7.7777
-7.73389
-7.68493
-7.6307
-7.57103
-7.50579
-7.43485
-7.35808
-7.27534
-7.18649
-7.0914
-6.98996
-6.8821
-6.76772
-6.64675
-6.51914
-6.38485
-6.24384
-6.09608
-5.94158
-5.78035
-5.6124
-5.43778
-5.25653
-5.06872
-4.87443
-4.67377
-4.46683
-4.25375
-4.03468
-3.80975
-3.57915
-3.34306
-3.10168
-2.85521
-2.60388
-2.34791
-2.08757
-1.82309
-1.55475
-1.28282
-1.00758
-0.729324
-0.448344
-0.164939
0.120589
0.407934
0.696785
0.986833
1.27777
1.56927
1.86105
2.15279
2.4442
2.73498
3.02485
3.31351
3.6007
3.88614
4.16959
4.45079
4.72951
5.00552
5.27861
5.54856
5.81519
6.07832
6.33778
6.5934
6.84505
7.09259
7.33589
7.57485
7.80934
8.03928
8.26458
8.48515
8.7009
8.91177
9.11768
9.31858
9.51442
9.70515
9.89072
10.0711
10.2462
10.4159
10.5801
10.7387
10.8915
11.0378
11.1778
11.3073
11.4392
11.5039
-6.72295
-6.7272
-6.73298
-6.73853
-6.74328
-6.74742
-6.75121
-6.7548
-6.75833
-6.76193
-6.76567
-6.76965
-6.77392
-6.77853
-6.78355
-6.78901
-6.79494
-6.80139
-6.80839
-6.81596
-6.82414
-6.83295
-6.84243
-6.85259
-6.86347
-6.87507
-6.88742
-6.90053
-6.91443
-6.92912
-6.94462
-6.96093
-6.97806
-6.99601
-7.01479
-7.03439
-7.05481
-7.07604
-7.09808
-7.12091
-7.14452
-7.16889
-7.194
-7.21981
-7.24631
-7.27345
-7.3012
-7.32951
-7.35833
-7.38761
-7.41728
-7.44727
-7.47752
-7.50794
-7.53844
-7.56894
-7.59932
-7.62949
-7.65933
-7.68872
-7.71754
-7.74564
-7.77289
-7.79915
-7.82427
-7.84808
-7.87043
-7.89115
-7.91007
-7.92703
-7.94183
-7.95431
-7.96428
-7.97156
-7.97596
-7.97731
-7.97541
-7.97008
-7.96115
-7.94843
-7.93174
-7.9109
-7.88574
-7.85609
-7.82178
-7.78266
-7.73856
-7.68934
-7.63483
-7.57491
-7.50943
-7.43825
-7.36124
-7.27822
-7.18908
-7.09369
-6.99196
-6.8838
-6.76914
-6.64789
-6.52001
-6.38546
-6.2442
-6.09621
-5.9415
-5.78006
-5.61193
-5.43714
-5.25574
-5.0678
-4.8734
-4.67264
-4.46563
-4.2525
-4.03339
-3.80845
-3.57786
-3.3418
-3.10046
-2.85406
-2.60282
-2.34696
-2.08674
-1.8224
-1.55422
-1.28247
-1.00742
-0.729373
-0.448617
-0.16545
0.119828
0.406909
0.695486
0.98525
1.27589
1.56709
1.85856
2.14999
2.44108
2.73154
3.02108
3.30941
3.59628
3.8814
4.16452
4.44541
4.72381
4.99951
5.2723
5.54196
5.80831
6.07117
6.33036
6.58574
6.83716
7.08448
7.32758
7.56634
7.80066
8.03044
8.2556
8.47604
8.69169
8.90246
9.1083
9.30914
9.50493
9.69561
9.88112
10.0614
10.2364
10.4059
10.5699
10.7281
10.8802
11.0256
11.1643
11.2921
11.4222
11.4836
-6.73236
-6.73627
-6.74161
-6.74678
-6.75124
-6.75515
-6.75872
-6.76211
-6.76546
-6.76887
-6.77244
-6.77624
-6.78034
-6.78479
-6.78965
-6.79495
-6.80074
-6.80705
-6.81392
-6.82137
-6.82944
-6.83815
-6.84754
-6.85762
-6.86841
-6.87995
-6.89224
-6.90531
-6.91918
-6.93384
-6.94932
-6.96563
-6.98277
-7.00074
-7.01956
-7.03921
-7.05969
-7.081
-7.10312
-7.12605
-7.14977
-7.17426
-7.1995
-7.22545
-7.25208
-7.27937
-7.30725
-7.3357
-7.36465
-7.39405
-7.42384
-7.45393
-7.48427
-7.51476
-7.54531
-7.57584
-7.60624
-7.63641
-7.66621
-7.69555
-7.72428
-7.75228
-7.7794
-7.8055
-7.83043
-7.85404
-7.87616
-7.89664
-7.91529
-7.93196
-7.94646
-7.95861
-7.96825
-7.97518
-7.97923
-7.98021
-7.97794
-7.97225
-7.96294
-7.94985
-7.9328
-7.91161
-7.8861
-7.85612
-7.82149
-7.78206
-7.73767
-7.68816
-7.63339
-7.57321
-7.50749
-7.43605
-7.35874
-7.2754
-7.18593
-7.09023
-6.9882
-6.87975
-6.76479
-6.64328
-6.51514
-6.38034
-6.23886
-6.09066
-5.93576
-5.77416
-5.60588
-5.43096
-5.24945
-5.06143
-4.86697
-4.66617
-4.45915
-4.24603
-4.02694
-3.80206
-3.57154
-3.33558
-3.09436
-2.84811
-2.59703
-2.34135
-2.08134
-1.81723
-1.54929
-1.2778
-1.00303
-0.725279
-0.444833
-0.16199
0.122949
0.409679
0.697894
0.987284
1.27754
1.56836
1.85943
2.15046
2.44115
2.7312
3.02033
3.30826
3.59472
3.87943
4.16216
4.44265
4.72067
4.996
5.26841
5.53772
5.80372
6.06625
6.32512
6.5802
6.83133
7.07838
7.32123
7.55976
7.79387
8.02346
8.24845
8.46873
8.68424
8.89491
9.10066
9.30142
9.49714
9.68776
9.8732
10.0534
10.2282
10.3976
10.5612
10.719
10.8705
11.015
11.1525
11.2787
11.407
11.4658
-6.74265
-6.74622
-6.75109
-6.75579
-6.75983
-6.76335
-6.76655
-6.76958
-6.77258
-6.77564
-6.77888
-6.78235
-6.78614
-6.7903
-6.79488
-6.79992
-6.80546
-6.81155
-6.8182
-6.82546
-6.83335
-6.8419
-6.85113
-6.86108
-6.87175
-6.88318
-6.89538
-6.90837
-6.92217
-6.93678
-6.95222
-6.9685
-6.98563
-7.00361
-7.02243
-7.04211
-7.06263
-7.08398
-7.10616
-7.12916
-7.15294
-7.1775
-7.2028
-7.22881
-7.2555
-7.28283
-7.31075
-7.33922
-7.36817
-7.39756
-7.4273
-7.45735
-7.4876
-7.51799
-7.54842
-7.57879
-7.60901
-7.63897
-7.66855
-7.69764
-7.7261
-7.7538
-7.7806
-7.80637
-7.83094
-7.85418
-7.87591
-7.89598
-7.91422
-7.93046
-7.94453
-7.95625
-7.96544
-7.97192
-7.97553
-7.97607
-7.97337
-7.96725
-7.95753
-7.94404
-7.9266
-7.90504
-7.87918
-7.84887
-7.81393
-7.77421
-7.72955
-7.67979
-7.62479
-7.56439
-7.49841
-7.42667
-7.34903
-7.26538
-7.17561
-7.07962
-6.97732
-6.8686
-6.75341
-6.63167
-6.50333
-6.36835
-6.2267
-6.07837
-5.92336
-5.76166
-5.59332
-5.41836
-5.23684
-5.04882
-4.85439
-4.65365
-4.44671
-4.2337
-4.01475
-3.79002
-3.55969
-3.32393
-3.08294
-2.83694
-2.58614
-2.33076
-2.07106
-1.80729
-1.53971
-1.2686
-0.994222
-0.716878
-0.436855
-0.15445
0.130039
0.416307
0.70405
0.992959
1.28273
1.57305
1.86363
2.15415
2.44433
2.73388
3.02251
3.30993
3.59589
3.88012
4.16236
4.44238
4.71993
4.9948
5.26677
5.53565
5.80124
6.06337
6.32187
6.57659
6.82739
7.07412
7.31667
7.55493
7.78879
8.01816
8.24294
8.46305
8.6784
8.88894
9.09458
9.29525
9.4909
9.68144
9.86681
10.0469
10.2216
10.3907
10.5541
10.7114
10.8622
11.0059
11.1422
11.2668
11.3934
11.4503
-6.75413
-6.75737
-6.76174
-6.76589
-6.76936
-6.7723
-6.7749
-6.77734
-6.77976
-6.78226
-6.78496
-6.78793
-6.79125
-6.79497
-6.79913
-6.80379
-6.80899
-6.81475
-6.8211
-6.82808
-6.83572
-6.84403
-6.85305
-6.8628
-6.87329
-6.88455
-6.8966
-6.90945
-6.92312
-6.93762
-6.95296
-6.96914
-6.98618
-7.00408
-7.02283
-7.04244
-7.06289
-7.08418
-7.10629
-7.1292
-7.1529
-7.17736
-7.20255
-7.22844
-7.25498
-7.28215
-7.30988
-7.33814
-7.36686
-7.39599
-7.42545
-7.45518
-7.4851
-7.51513
-7.54518
-7.57515
-7.60495
-7.63446
-7.66358
-7.69218
-7.72014
-7.74733
-7.77361
-7.79885
-7.82289
-7.84558
-7.86676
-7.88629
-7.90398
-7.91967
-7.9332
-7.94438
-7.95305
-7.95902
-7.96213
-7.96219
-7.95903
-7.95247
-7.94234
-7.92845
-7.91065
-7.88875
-7.86259
-7.832
-7.79681
-7.75688
-7.71204
-7.66212
-7.60694
-7.54631
-7.48005
-7.40803
-7.33012
-7.24622
-7.15622
-7.06002
-6.95752
-6.84864
-6.7333
-6.61144
-6.483
-6.34795
-6.20626
-6.05791
-5.9029
-5.74125
-5.57296
-5.39809
-5.21669
-5.02882
-4.83456
-4.63402
-4.42731
-4.21455
-3.99588
-3.77146
-3.54146
-3.30606
-3.06546
-2.81986
-2.56948
-2.31456
-2.05533
-1.79206
-1.52499
-1.2544
-0.98057
-0.703786
-0.424337
-0.142517