/*--------------------------------*- C++ -*----------------------------------*\
  =========                 |
  \\      /  F ield         | OpenFOAM: The Open Source CFD Toolbox
   \\    /   O peration     | Website:  https://openfoam.org
    \\  /    A nd           | Version:  12
     \\/     M anipulation  |
\*---------------------------------------------------------------------------*/
FoamFile
{
    format      ascii;
    class       surfaceScalarField;
    location    "0.19";
    object      phi;
}
// * * * * * * * * * * * * * * * * * * * * * * * * * * * * * * * * * * * * * //

dimensions      [0 3 -1 0 0 0 0];

internalField   nonuniform List<scalar> 
24170
(
3.1336e-06
5.4807e-08
3.04827e-06
8.53282e-08
2.97314e-06
7.51265e-08
2.9043e-06
6.88399e-08
2.83947e-06
6.48342e-08
2.78224e-06
5.72278e-08
2.73334e-06
4.89073e-08
2.6918e-06
4.15334e-08
2.65635e-06
3.54502e-08
2.62582e-06
3.05352e-08
2.59923e-06
2.65889e-08
2.57578e-06
2.34479e-08
2.55479e-06
2.09935e-08
2.53557e-06
1.92134e-08
2.5175e-06
1.80774e-08
2.49877e-06
1.87256e-08
2.47813e-06
2.06403e-08
3.79598e-08
2.44017e-06
3.45361e-06
1.84451e-08
3.45616e-06
8.27754e-08
3.44962e-06
8.16722e-08
3.438e-06
8.04629e-08
3.4235e-06
7.9325e-08
3.40596e-06
7.47718e-08
3.38633e-06
6.85409e-08
3.36542e-06
6.24424e-08
3.344e-06
5.68637e-08
3.32269e-06
5.18472e-08
3.30188e-06
4.74011e-08
3.28179e-06
4.35355e-08
3.26254e-06
4.02437e-08
3.24412e-06
3.76371e-08
3.22657e-06
3.56295e-08
3.20973e-06
3.55662e-08
3.1945e-06
3.58693e-08
4.61564e-08
3.1863e-06
3.66535e-06
1.56086e-08
3.67825e-06
6.98769e-08
3.68531e-06
7.46124e-08
3.68959e-06
7.61827e-08
3.69126e-06
7.76539e-08
3.69013e-06
7.59071e-08
3.68667e-06
7.19968e-08
3.68147e-06
6.76432e-08
3.67495e-06
6.33832e-08
3.66746e-06
5.9336e-08
3.65929e-06
5.55783e-08
3.65063e-06
5.21891e-08
3.64165e-06
4.92239e-08
3.63246e-06
4.68335e-08
3.62304e-06
4.50437e-08
3.61384e-06
4.4765e-08
3.60452e-06
4.51922e-08
4.98783e-08
3.6008e-06
3.92465e-06
1.63483e-08
3.9358e-06
5.8726e-08
3.94254e-06
6.78699e-08
3.94802e-06
7.07086e-08
3.95243e-06
7.32446e-08
3.95534e-06
7.29903e-08
3.95689e-06
7.04482e-08
3.95737e-06
6.7166e-08
3.95696e-06
6.37891e-08
3.95582e-06
6.04771e-08
3.95408e-06
5.73241e-08
3.95183e-06
5.44313e-08
3.94917e-06
5.18825e-08
3.94619e-06
4.98224e-08
3.9429e-06
4.833e-08
3.93975e-06
4.79124e-08
3.93675e-06
4.81966e-08
5.01438e-08
3.93648e-06
4.20777e-06
1.57083e-08
4.216e-06
5.0495e-08
4.22166e-06
6.22072e-08
4.22659e-06
6.57783e-08
4.23129e-06
6.85481e-08
4.23524e-06
6.90366e-08
4.23833e-06
6.73566e-08
4.2407e-06
6.48011e-08
4.24245e-06
6.20408e-08
4.24366e-06
5.92602e-08
4.24443e-06
5.65607e-08
4.24481e-06
5.4052e-08
4.24486e-06
5.1829e-08
4.24467e-06
5.0015e-08
4.24431e-06
4.86896e-08
4.24412e-06
4.81004e-08
4.24429e-06
4.80262e-08
4.85094e-08
4.24592e-06
4.51044e-06
1.43559e-08
4.51686e-06
4.40732e-08
4.52217e-06
5.68972e-08
4.52683e-06
6.11206e-08
4.53144e-06
6.39374e-08
4.53563e-06
6.48487e-08
4.53921e-06
6.37765e-08
4.54225e-06
6.17618e-08
4.54483e-06
5.94617e-08
4.547e-06
5.70838e-08
4.54883e-06
5.47355e-08
4.55035e-06
5.25269e-08
4.55163e-06
5.05523e-08
4.55274e-06
4.89086e-08
4.55377e-06
4.76532e-08
4.55499e-06
4.68804e-08
4.55661e-06
4.64116e-08
4.60111e-08
4.55911e-06
4.83412e-06
1.29552e-08
4.83958e-06
3.86148e-08
4.84483e-06
5.16467e-08
4.84942e-06
5.65322e-08
4.85393e-06
5.94301e-08
4.85815e-06
6.06232e-08
4.86191e-06
6.00153e-08
4.86524e-06
5.84321e-08
4.86821e-06
5.64975e-08
4.87085e-06
5.44413e-08
4.87321e-06
5.23759e-08
4.87533e-06
5.04071e-08
4.87726e-06
4.86219e-08
4.87907e-06
4.7092e-08
4.88088e-06
4.58479e-08
4.88286e-06
4.48993e-08
4.88519e-06
4.40856e-08
4.31413e-08
4.88806e-06
5.1809e-06
1.16357e-08
5.1857e-06
3.38109e-08
5.19084e-06
4.65137e-08
5.19541e-06
5.19552e-08
5.19988e-06
5.49691e-08
5.20413e-06
5.63664e-08
5.20801e-06
5.61358e-08
5.21152e-06
5.49221e-08
5.21472e-06
5.32996e-08
5.21765e-06
5.15155e-08
5.22033e-06
4.96879e-08
5.22282e-06
4.79159e-08
5.22517e-06
4.62769e-08
5.22744e-06
4.48219e-08
5.22973e-06
4.35596e-08
5.23217e-06
4.24586e-08
5.23487e-06
4.13793e-08
4.01071e-08
5.23791e-06
5.5526e-06
1.03728e-08
5.55685e-06
2.95619e-08
5.56177e-06
4.15976e-08
5.56633e-06
4.73901e-08
5.57078e-06
5.05151e-08
5.57509e-06
5.2062e-08
5.57908e-06
5.21434e-08
5.58275e-06
5.12577e-08
5.58613e-06
4.9915e-08
5.58927e-06
4.8372e-08
5.59221e-06
4.67523e-08
5.59498e-06
4.51477e-08
5.59763e-06
4.36262e-08
5.60023e-06
4.22237e-08
5.60285e-06
4.09357e-08
5.60559e-06
3.97168e-08
5.60852e-06
3.84537e-08
3.69971e-08
5.61163e-06
5.95099e-06
9.16324e-09
5.95476e-06
2.57908e-08
5.95941e-06
3.69435e-08
5.96394e-06
4.28577e-08
5.9684e-06
4.60606e-08
5.97275e-06
4.77112e-08
5.97685e-06
4.80429e-08
5.98066e-06
4.74454e-08
5.98422e-06
4.63566e-08
5.98756e-06
4.5032e-08
5.99071e-06
4.35989e-08
5.99372e-06
4.21425e-08
5.99662e-06
4.0722e-08
5.99948e-06
3.93639e-08
6.00236e-06
3.80588e-08
6.00531e-06
3.67626e-08
6.00838e-06
3.53901e-08
3.38494e-08
6.01152e-06
6.37795e-06
8.02053e-09
6.38133e-06
2.242e-08
6.38571e-06
3.25602e-08
6.39018e-06
3.8383e-08
6.39463e-06
4.16113e-08
6.39902e-06
4.33241e-08
6.40322e-06
4.38441e-08
6.40717e-06
4.34905e-08
6.4109e-06
4.26293e-08
6.41443e-06
4.15029e-08
6.41779e-06
4.02397e-08
6.42101e-06
3.89187e-08
6.42414e-06
3.75918e-08
6.42723e-06
3.62809e-08
6.43031e-06
3.49774e-08
6.43342e-06
3.36464e-08
6.43659e-06
3.22289e-08
3.06765e-08
6.43976e-06
5.74175e-06
7.10624e-09
5.74433e-06
1.98363e-08
5.74783e-06
2.90622e-08
5.75155e-06
3.46596e-08
5.75531e-06
3.78586e-08
5.75904e-06
3.95953e-08
5.76265e-06
4.02287e-08
5.7661e-06
4.00437e-08
5.76937e-06
3.93527e-08
5.7725e-06
3.83791e-08
5.77549e-06
3.72481e-08
5.77837e-06
3.60347e-08
5.78118e-06
3.47861e-08
5.78394e-06
3.35226e-08
5.78668e-06
3.22389e-08
5.78941e-06
3.09102e-08
5.79215e-06
2.94959e-08
2.7976e-08
5.79485e-06
6.99913e-06
6.12918e-09
7.00187e-06
1.71036e-08
7.00565e-06
2.5277e-08
7.00981e-06
3.04964e-08
7.01409e-06
3.3583e-08
7.01838e-06
3.53016e-08
7.02259e-06
3.6018e-08
7.02665e-06
3.59854e-08
7.03054e-06
3.54616e-08
7.03428e-06
3.46448e-08
7.03787e-06
3.36536e-08
7.04135e-06
3.25582e-08
7.04473e-06
3.14015e-08
7.04805e-06
3.02038e-08
7.05133e-06
2.89652e-08
7.05456e-06
2.76723e-08
7.05776e-06
2.63019e-08
2.48555e-08
7.06088e-06
8.53188e-06
5.09856e-09
8.53473e-06
1.42485e-08
8.53878e-06
2.12318e-08
8.54338e-06
2.58993e-08
8.5482e-06
2.87615e-08
8.5531e-06
3.0399e-08
8.55797e-06
3.11509e-08
8.56271e-06
3.1239e-08
8.56731e-06
3.08688e-08
8.57174e-06
3.0207e-08
8.57604e-06
2.93609e-08
8.5802e-06
2.83951e-08
8.58425e-06
2.7349e-08
8.58821e-06
2.62435e-08
8.59209e-06
2.50848e-08
8.59589e-06
2.38704e-08
8.5996e-06
2.25912e-08
2.12631e-08
8.6032e-06
1.04003e-05
4.02489e-09
1.04033e-05
1.12882e-08
1.04075e-05
1.69447e-08
1.04126e-05
2.08742e-08
1.0418e-05
2.33721e-08
1.04235e-05
2.48414e-08
1.04291e-05
2.55636e-08
1.04346e-05
2.57245e-08
1.044e-05
2.54817e-08
1.04452e-05
2.49663e-08
1.04503e-05
2.42692e-08
1.04553e-05
2.34471e-08
1.04601e-05
2.25358e-08
1.04648e-05
2.15568e-08
1.04693e-05
2.05211e-08
1.04738e-05
1.94347e-08
1.04781e-05
1.82982e-08
1.71353e-08
1.04822e-05
1.26779e-05
2.91371e-09
1.2681e-05
8.21436e-09
1.26855e-05
1.24071e-08
1.2691e-05
1.54095e-08
1.2697e-05
1.73796e-08
1.27032e-05
1.85683e-08
1.27096e-05
1.91786e-08
1.2716e-05
1.93513e-08
1.27223e-05
1.91989e-08
1.27284e-05
1.88155e-08
1.27344e-05
1.82703e-08
1.27403e-05
1.76094e-08
1.27459e-05
1.6863e-08
1.27514e-05
1.60513e-08
1.27568e-05
1.51878e-08
1.27619e-05
1.42827e-08
1.27669e-05
1.33418e-08
1.23911e-08
1.27716e-05
1.54543e-05
1.75386e-09
1.54576e-05
4.97582e-09
1.54624e-05
7.55143e-09
1.54684e-05
9.43444e-09
1.54751e-05
1.06994e-08
1.54822e-05
1.14763e-08
1.54895e-05
1.18806e-08
1.54968e-05
1.19973e-08
1.55041e-05
1.18939e-08
1.55113e-05
1.16265e-08
1.55184e-05
1.12387e-08
1.55252e-05
1.07612e-08
1.55319e-05
1.02156e-08
1.55383e-05
9.61746e-09
1.55445e-05
8.97894e-09
1.55505e-05
8.31039e-09
1.55562e-05
7.61852e-09
6.92742e-09
1.55617e-05
1.88389e-05
5.0377e-10
1.88424e-05
1.44116e-09
1.88478e-05
2.19107e-09
1.88545e-05
2.74315e-09
1.88621e-05
3.11937e-09
1.88702e-05
3.34922e-09
1.88786e-05
3.45528e-09
1.88871e-05
3.45629e-09
1.88957e-05
3.37046e-09
1.89041e-05
3.21408e-09
1.89123e-05
3.00017e-09
1.89203e-05
2.73898e-09
1.89281e-05
2.43903e-09
1.89356e-05
2.10771e-09
1.89429e-05
1.75169e-09
1.89498e-05
1.3777e-09
1.89564e-05
9.90212e-10
6.08273e-10
1.89627e-05
2.29648e-05
-9.43703e-10
2.29689e-05
-2.69144e-09
2.29752e-05
-4.11161e-09
2.29831e-05
-5.16126e-09
2.29921e-05
-5.85702e-09
2.30017e-05
-6.28549e-09
2.30117e-05
-6.53993e-09
2.30219e-05
-6.67903e-09
2.3032e-05
-6.73953e-09
2.30419e-05
-6.75267e-09
2.30517e-05
-6.74366e-09
2.30612e-05
-6.72857e-09
2.30703e-05
-6.71618e-09
2.30791e-05
-6.71104e-09
2.30876e-05
-6.71515e-09
2.30957e-05
-6.72819e-09
2.31034e-05
-6.75001e-09
-6.76841e-09
2.31108e-05
1.68119e-05
-2.08927e-09
1.68151e-05
-5.92656e-09
1.682e-05
-9.04033e-09
1.68261e-05
-1.12863e-08
1.6833e-05
-1.2713e-08
1.68403e-05
-1.35546e-08
1.68477e-05
-1.40151e-08
1.68553e-05
-1.42026e-08
1.68627e-05
-1.4192e-08
1.687e-05
-1.40539e-08
1.68771e-05
-1.38433e-08
1.6884e-05
-1.35943e-08
1.68906e-05
-1.33276e-08
1.68969e-05
-1.30563e-08
1.6903e-05
-1.27885e-08
1.69088e-05
-1.25284e-08
1.69143e-05
-1.22782e-08
-1.203e-08
1.69196e-05
1.46357e-05
-3.1983e-09
1.46388e-05
-9.08633e-09
1.46437e-05
-1.38651e-08
1.46495e-05
-1.7169e-08
1.4656e-05
-1.91442e-08
1.46627e-05
-2.02653e-08
1.46695e-05
-2.08345e-08
1.46763e-05
-2.0986e-08
1.46829e-05
-2.08397e-08
1.46894e-05
-2.05119e-08
1.46956e-05
-2.00816e-08
1.47016e-05
-1.95943e-08
1.47074e-05
-1.90788e-08
1.47129e-05
-1.85551e-08
1.47181e-05
-1.80361e-08
1.47231e-05
-1.75285e-08
1.47279e-05
-1.70361e-08
-1.65536e-08
1.47324e-05
1.27412e-05
-4.24674e-09
1.27444e-05
-1.22973e-08
1.27493e-05
-1.88232e-08
1.27551e-05
-2.29637e-08
1.27613e-05
-2.52585e-08
1.27675e-05
-2.65526e-08
1.27739e-05
-2.71499e-08
1.27801e-05
-2.71775e-08
1.2786e-05
-2.68268e-08
1.27918e-05
-2.62693e-08
1.27973e-05
-2.55999e-08
1.28026e-05
-2.48682e-08
1.28076e-05
-2.41084e-08
1.28124e-05
-2.33452e-08
1.2817e-05
-2.25937e-08
1.28213e-05
-2.18612e-08
1.28254e-05
-2.11519e-08
-2.04616e-08
1.28293e-05
1.10918e-05
-5.12408e-09
1.10951e-05
-1.56194e-08
1.11004e-05
-2.41187e-08
1.11062e-05
-2.87451e-08
1.1112e-05
-3.10992e-08
1.1118e-05
-3.24706e-08
1.11238e-05
-3.30074e-08
1.11295e-05
-3.28286e-08
1.11349e-05
-3.2226e-08
1.114e-05
-3.1416e-08
1.11449e-05
-3.04957e-08
1.11496e-05
-2.95164e-08
1.1154e-05
-2.85177e-08
1.11582e-05
-2.75272e-08
1.11621e-05
-2.65598e-08
1.11659e-05
-2.56224e-08
1.11694e-05
-2.4718e-08
-2.38432e-08
1.11728e-05
9.65583e-06
-5.73814e-09
9.65935e-06
-1.91434e-08
9.66495e-06
-2.97194e-08
9.67064e-06
-3.44276e-08
9.67627e-06
-3.67369e-08
9.68191e-06
-3.81044e-08
9.68734e-06
-3.84392e-08
9.69247e-06
-3.79607e-08
9.69732e-06
-3.70763e-08
9.70191e-06
-3.60084e-08
9.70626e-06
-3.48369e-08
9.71035e-06
-3.36132e-08
9.71422e-06
-3.23821e-08
9.71786e-06
-3.11729e-08
9.7213e-06
-2.99998e-08
9.72455e-06
-2.88689e-08
9.72761e-06
-2.77812e-08
-2.67319e-08
9.7305e-06
8.40543e-06
-5.8181e-09
8.40981e-06
-2.35176e-08
8.41531e-06
-3.52216e-08
8.4205e-06
-3.96162e-08
8.42593e-06
-4.21649e-08
8.43139e-06
-4.3573e-08
8.43654e-06
-4.35863e-08
8.4413e-06
-4.27164e-08
8.44572e-06
-4.14993e-08
8.44985e-06
-4.01352e-08
8.45369e-06
-3.86812e-08
8.45727e-06
-3.71894e-08
8.46059e-06
-3.57077e-08
8.46368e-06
-3.4265e-08
8.46656e-06
-3.2875e-08
8.46923e-06
-3.15436e-08
8.47173e-06
-3.02715e-08
-2.90548e-08
8.47405e-06
7.31506e-06
-3.59083e-09
7.32194e-06
-3.04018e-08
7.32739e-06
-4.06701e-08
7.33216e-06
-4.43821e-08
7.33746e-06
-4.7474e-08
7.34284e-06
-4.89437e-08
7.34779e-06
-4.85439e-08
7.35227e-06
-4.71927e-08
7.35631e-06
-4.55373e-08
7.35993e-06
-4.3756e-08
7.36316e-06
-4.19079e-08
7.36602e-06
-4.00564e-08
7.36857e-06
-3.82508e-08
7.37082e-06
-3.65173e-08
7.37281e-06
-3.48676e-08
7.37457e-06
-3.33062e-08
7.37613e-06
-3.18302e-08
-3.04333e-08
7.37751e-06
6.36222e-06
4.25484e-09
6.37294e-06
-4.11255e-08
6.38007e-06
-4.7795e-08
6.38625e-06
-5.05596e-08
6.39221e-06
-5.34394e-08
6.39749e-06
-5.42266e-08
6.40185e-06
-5.28971e-08
6.40542e-06
-5.0763e-08
6.40832e-06
-4.84382e-08
6.4106e-06
-4.6035e-08
6.41231e-06
-4.3621e-08
6.41353e-06
-4.12738e-08
6.41432e-06
-3.90421e-08
6.41475e-06
-3.69454e-08
6.41487e-06
-3.49904e-08
6.41474e-06
-3.31782e-08
6.41441e-06
-3.15005e-08
-2.99368e-08
6.41392e-06
5.53608e-06
1.36398e-08
5.54775e-06
-5.27984e-08
5.55744e-06
-5.74796e-08
5.566e-06
-5.91259e-08
5.57277e-06
-6.02028e-08
5.57718e-06
-5.86429e-08
5.57932e-06
-5.50383e-08
5.57975e-06
-5.11911e-08
5.57889e-06
-4.7576e-08
5.57702e-06
-4.41643e-08
5.57436e-06
-4.09637e-08
5.5711e-06
-3.80118e-08
5.56738e-06
-3.53221e-08
5.56332e-06
-3.28863e-08
5.55902e-06
-3.069e-08
5.55457e-06
-2.87301e-08
5.55007e-06
-2.69976e-08
-2.54317e-08
5.54556e-06
4.85751e-06
-1.62607e-08
4.86091e-06
-5.61992e-08
4.8615e-06
-5.80712e-08
4.85883e-06
-5.64563e-08
4.85482e-06
-5.61935e-08
4.84812e-06
-5.19446e-08
4.83887e-06
-4.57813e-08
4.82761e-06
-3.99357e-08
4.815e-06
-3.49617e-08
4.80161e-06
-3.0782e-08
4.78791e-06
-2.72608e-08
4.77419e-06
-2.42949e-08
4.76067e-06
-2.17934e-08
4.74746e-06
-1.96772e-08
4.73465e-06
-1.78835e-08
4.72232e-06
-1.64022e-08
4.71058e-06
-1.52599e-08
-1.49496e-08
4.7001e-06
4.18642e-06
4.13022e-06
4.07215e-06
4.01569e-06
3.9595e-06
3.90755e-06
3.86177e-06
3.82183e-06
3.78687e-06
3.75609e-06
3.72883e-06
3.70453e-06
3.68274e-06
3.66306e-06
3.64518e-06
3.62878e-06
3.61352e-06
3.59857e-06
1.06536e-08
-1.06536e-08
2.14755e-08
-1.08219e-08
2.80676e-08
-6.59213e-09
2.95466e-08
-1.47901e-09
2.61883e-08
3.35828e-09
1.88448e-08
7.34352e-09
8.46024e-09
1.03846e-08
-4.14954e-09
1.26098e-08
-1.83993e-08
1.42498e-08
-3.39119e-08
1.55125e-08
-5.04547e-08
1.65428e-08
-6.7892e-08
1.74373e-08
-8.61454e-08
1.82535e-08
-1.05169e-07
1.90234e-08
-1.24932e-07
1.97634e-08
-1.45413e-07
2.04806e-08
-1.6659e-07
2.11776e-08
-1.88445e-07
2.18542e-08
-2.10954e-07
2.25091e-08
-2.34094e-07
2.31405e-08
-2.5784e-07
2.37461e-08
-2.82164e-07
2.43232e-08
-3.07032e-07
2.48688e-08
-3.32415e-07
2.53824e-08
-3.58284e-07
2.58695e-08
-3.84629e-07
2.63449e-08
-4.11453e-07
2.68237e-08
-4.38748e-07
2.72949e-08
-4.6645e-07
2.77025e-08
-4.94454e-07
2.80038e-08
-5.22854e-07
2.84001e-08
-5.52524e-07
2.96701e-08
-5.84312e-07
3.17877e-08
-6.15977e-07
3.1665e-08
-6.46782e-07
3.08048e-08
-6.7868e-07
3.18984e-08
-7.11941e-07
3.32605e-08
-7.4747e-07
3.55293e-08
-7.83333e-07
3.5863e-08
-8.21144e-07
3.78108e-08
-8.65446e-07
4.43019e-08
-9.10205e-07
4.47593e-08
-9.50367e-07
4.01619e-08
-9.88037e-07
3.76696e-08
-1.02684e-06
3.87986e-08
-1.06801e-06
4.11704e-08
-1.11027e-06
4.22689e-08
-1.15328e-06
4.30047e-08
-1.19673e-06
4.34545e-08
-1.24045e-06
4.37181e-08
-1.28431e-06
4.38544e-08
-1.32821e-06
4.39e-08
-1.37208e-06
4.3878e-08
-1.41589e-06
4.3803e-08
-1.45957e-06
4.36839e-08
-1.5031e-06
4.35263e-08
-1.54643e-06
4.33335e-08
-1.58954e-06
4.31072e-08
-1.63239e-06
4.28482e-08
-1.67494e-06
4.25564e-08
-1.71717e-06
4.22315e-08
-1.75905e-06
4.18727e-08
-1.80053e-06
4.14792e-08
-1.84158e-06
4.10499e-08
-1.88216e-06
4.05839e-08
-1.92224e-06
4.00803e-08
-1.96178e-06
3.95381e-08
-2.00073e-06
3.89567e-08
-2.03907e-06
3.83355e-08
-2.07674e-06
3.76737e-08
-2.11372e-06
3.69713e-08
-2.14994e-06
3.62278e-08
-2.18539e-06
3.54433e-08
-2.22e-06
3.46179e-08
-2.25376e-06
3.37517e-08
-2.2866e-06
3.28451e-08
-2.3185e-06
3.18986e-08
-2.34941e-06
3.09128e-08
-2.3793e-06
2.98883e-08
-2.40813e-06
2.88259e-08
-2.43585e-06
2.77263e-08
-2.46244e-06
2.65903e-08
-2.48786e-06
2.54189e-08
-2.51208e-06
2.42126e-08
-2.53505e-06
2.29722e-08
-2.55675e-06
2.16981e-08
-2.57714e-06
2.03907e-08
-2.59619e-06
1.90498e-08
-2.61386e-06
1.76751e-08
-2.63013e-06
1.62655e-08
-2.64495e-06
1.48193e-08
-2.65828e-06
1.33337e-08
-2.67008e-06
1.18047e-08
-2.68031e-06
1.02256e-08
-2.6889e-06
8.58736e-09
-2.69577e-06
6.87771e-09
-2.70086e-06
5.08006e-09
-2.70404e-06
3.18434e-09
-2.70522e-06
1.18312e-09
-2.70447e-06
-7.50275e-10
-2.70207e-06
-2.40631e-09
-2.69808e-06
-3.98946e-09
-2.69253e-06
-5.54703e-09
-2.68543e-06
-7.1001e-09
-2.67677e-06
-8.65826e-09
-2.66655e-06
-1.0223e-08
-2.65475e-06
-1.17937e-08
-2.64139e-06
-1.33685e-08
-2.62644e-06
-1.49456e-08
-2.60992e-06
-1.65228e-08
-2.59182e-06
-1.8098e-08
-2.57215e-06
-1.96691e-08
-2.55092e-06
-2.12339e-08
-2.52813e-06
-2.27904e-08
-2.50379e-06
-2.43364e-08
-2.47792e-06
-2.58699e-08
-2.45053e-06
-2.73888e-08
-2.42164e-06
-2.88909e-08
-2.39127e-06
-3.03743e-08
-2.35943e-06
-3.18368e-08
-2.32615e-06
-3.32765e-08
-2.29146e-06
-3.46914e-08
-2.25538e-06
-3.60796e-08
-2.21794e-06
-3.74393e-08
-2.17917e-06
-3.87688e-08
-2.13911e-06
-4.00662e-08
-2.09778e-06
-4.133e-08
-2.05522e-06
-4.25584e-08
-2.01147e-06
-4.37499e-08
-1.96657e-06
-4.49028e-08
-1.92055e-06
-4.60158e-08
-1.87346e-06
-4.70876e-08
-1.82535e-06
-4.8117e-08
-1.77624e-06
-4.91029e-08
-1.7262e-06
-5.00443e-08
-1.67526e-06
-5.09403e-08
-1.62347e-06
-5.17899e-08
-1.57088e-06
-5.25925e-08
-1.51753e-06
-5.33476e-08
-1.46347e-06
-5.40549e-08
-1.40876e-06
-5.47141e-08
-1.35343e-06
-5.5325e-08
-1.29755e-06
-5.58877e-08
-1.24114e-06
-5.64023e-08
-1.18428e-06
-5.68691e-08
-1.12699e-06
-5.72889e-08
-1.06932e-06
-5.76621e-08
-1.01133e-06
-5.79896e-08
-9.53062e-07
-5.82723e-08
-8.94551e-07
-5.85116e-08
-8.35842e-07
-5.87086e-08
-7.76977e-07
-5.88648e-08
-7.17995e-07
-5.8982e-08
-6.58933e-07
-5.90619e-08
-5.99827e-07
-5.91061e-08
-5.4071e-07
-5.91168e-08
-4.81615e-07
-5.90958e-08
-4.2257e-07
-5.90447e-08
-3.63605e-07
-5.89648e-08
-3.04748e-07
-5.88568e-08
-2.46027e-07
-5.87211e-08
-1.87475e-07
-5.85525e-08
-1.29121e-07
-5.83538e-08
-7.0998e-08
-5.81231e-08
-1.31499e-08
-5.78482e-08
4.43874e-08
-5.75373e-08
1.01581e-07
-5.71933e-08
1.58434e-07
-5.68531e-08
2.1497e-07
-5.65365e-08
2.71204e-07
-5.62337e-08
3.27129e-07
-5.59248e-08
3.82713e-07
-5.55841e-08
4.37885e-07
-5.51723e-08
4.92508e-07
-5.46222e-08
5.4631e-07
-5.38027e-08
5.98757e-07
-5.24467e-08
6.48627e-07
-4.98698e-08
6.93053e-07
-4.44257e-08
7.24402e-07
-3.13495e-08
8.90444e-09
7.15498e-07
6.18353e-09
-1.68371e-08
6.9022e-09
-1.15406e-08
3.68145e-09
-3.37139e-09
-2.19878e-09
4.40123e-09
-1.02786e-08
1.14381e-08
-2.04738e-08
1.75388e-08
-3.27177e-08
2.26284e-08
-4.68744e-08
2.67665e-08
-6.27343e-08
3.01096e-08
-8.00694e-08
3.28476e-08
-9.8679e-08
3.51525e-08
-1.18403e-07
3.71608e-08
-1.39121e-07
3.89716e-08
-1.6075e-07
4.06524e-08
-1.83233e-07
4.22465e-08
-2.06533e-07
4.3781e-08
-2.30628e-07
4.52724e-08
-2.55504e-07
4.67307e-08
-2.81158e-07
4.81624e-08
-3.07589e-07
4.95723e-08
-3.34808e-07
5.09647e-08
-3.62829e-07
5.23444e-08
-3.91679e-07
5.37185e-08
-4.21395e-07
5.50981e-08
-4.52026e-07
5.65008e-08
-4.8363e-07
5.79495e-08
-5.16269e-07
5.94627e-08
-5.50013e-07
6.10387e-08
-5.8496e-07
6.2649e-08
-6.21236e-07
6.42797e-08
-6.58882e-07
6.60469e-08
-6.97423e-07
6.82111e-08
-7.36266e-07
7.06299e-08
-7.77033e-07
7.24322e-08
-8.19994e-07
7.3766e-08
-8.6354e-07
7.54442e-08
-9.07567e-07
7.72873e-08
-9.51269e-07
7.92322e-08
-9.96175e-07
8.07681e-08
-1.04085e-06
8.2485e-08
-1.08145e-06
8.49067e-08
-1.12234e-06
8.56432e-08
-1.1666e-06
8.44232e-08
-1.21225e-06
8.33225e-08
-1.25668e-06
8.32293e-08
-1.29918e-06
8.36719e-08
-1.34086e-06
8.39486e-08
-1.38194e-06
8.40801e-08
-1.42257e-06
8.40814e-08
-1.46282e-06
8.39687e-08
-1.50272e-06
8.37603e-08
-1.54229e-06
8.34706e-08
-1.58153e-06
8.31107e-08
-1.62041e-06
8.26884e-08
-1.65894e-06
8.22087e-08
-1.69708e-06
8.16746e-08
-1.73484e-06
8.10871e-08
-1.77218e-06
8.04464e-08
-1.80908e-06
7.97518e-08
-1.84553e-06
7.90018e-08
-1.88149e-06
7.81949e-08
-1.91695e-06
7.73291e-08
-1.95187e-06
7.64024e-08
-1.98623e-06
7.5413e-08
-2.02001e-06
7.43589e-08
-2.05317e-06
7.32386e-08
-2.08568e-06
7.20504e-08
-2.11751e-06
7.07932e-08
-2.14864e-06
6.94658e-08
-2.17904e-06
6.80675e-08
-2.20866e-06
6.65977e-08
-2.23749e-06
6.50561e-08
-2.26549e-06
6.34427e-08
-2.29263e-06
6.17577e-08
-2.31888e-06
6.00016e-08
-2.34421e-06
5.81749e-08
-2.36859e-06
5.62785e-08
-2.39199e-06
5.43134e-08
-2.41438e-06
5.22807e-08
-2.43574e-06
5.01816e-08
-2.45603e-06
4.80175e-08
-2.47523e-06
4.57896e-08
-2.49331e-06
4.34995e-08
-2.51025e-06
4.11482e-08
-2.52601e-06
3.87372e-08
-2.54058e-06
3.62673e-08
-2.55393e-06
3.37394e-08
-2.56603e-06
3.1154e-08
-2.57687e-06
2.85115e-08
-2.58642e-06
2.58117e-08
-2.59465e-06
2.30541e-08
-2.60156e-06
2.02381e-08
-2.60711e-06
1.73631e-08
-2.61132e-06
1.44285e-08
-2.61416e-06
1.14353e-08
-2.61567e-06
8.38705e-09
-2.61589e-06
5.29359e-09
-2.61489e-06
2.18228e-09
-2.61279e-06
-9.09314e-10
-2.60957e-06
-3.97635e-09
-2.60499e-06
-6.98599e-09
-2.59896e-06
-1.00167e-08
-2.59144e-06
-1.30684e-08
-2.5824e-06
-1.61393e-08
-2.57183e-06
-1.92286e-08
-2.55972e-06
-2.23338e-08
-2.54606e-06
-2.54515e-08
-2.53085e-06
-2.85776e-08
-2.51409e-06
-3.17081e-08
-2.49577e-06
-3.48388e-08
-2.47591e-06
-3.79654e-08
-2.45449e-06
-4.10835e-08
-2.43154e-06
-4.41891e-08
-2.40705e-06
-4.7278e-08
-2.38104e-06
-5.03458e-08
-2.35352e-06
-5.33886e-08
-2.32451e-06
-5.64022e-08
-2.29402e-06
-5.93825e-08
-2.26206e-06
-6.23253e-08
-2.22867e-06
-6.52265e-08
-2.19387e-06
-6.80822e-08
-2.15767e-06
-7.08885e-08
-2.12011e-06
-7.36416e-08
-2.08121e-06
-7.63378e-08
-2.04101e-06
-7.89737e-08
-1.99953e-06
-8.15459e-08
-1.95681e-06
-8.40508e-08
-1.91288e-06
-8.64855e-08
-1.86778e-06
-8.88465e-08
-1.82155e-06
-9.11307e-08
-1.77423e-06
-9.33354e-08
-1.72586e-06
-9.54579e-08
-1.67649e-06
-9.74958e-08
-1.62614e-06
-9.94471e-08
-1.57488e-06
-1.0131e-07
-1.52273e-06
-1.03082e-07
-1.46976e-06
-1.04762e-07
-1.41601e-06
-1.06348e-07
-1.36151e-06
-1.0784e-07
-1.30633e-06
-1.09236e-07
-1.25051e-06
-1.10536e-07
-1.1941e-06
-1.11741e-07
-1.13714e-06
-1.12849e-07
-1.07968e-06
-1.13861e-07
-1.02177e-06
-1.14778e-07
-9.63454e-07
-1.15602e-07
-9.04784e-07
-1.16333e-07
-8.45801e-07
-1.16972e-07
-7.86551e-07
-1.17523e-07
-7.27075e-07
-1.17987e-07
-6.67417e-07
-1.18367e-07
-6.07616e-07
-1.18666e-07
-5.47711e-07
-1.18887e-07
-4.8774e-07
-1.19034e-07
-4.27736e-07
-1.1911e-07
-3.67733e-07
-1.19119e-07
-3.07763e-07
-1.19066e-07
-2.47854e-07
-1.18953e-07
-1.88035e-07
-1.18784e-07
-1.28332e-07
-1.1856e-07
-6.87706e-08
-1.18283e-07
-9.37431e-09
-1.17949e-07
4.98292e-08
-1.17557e-07
1.08813e-07
-1.17107e-07
1.67563e-07
-1.16598e-07
2.26069e-07
-1.16043e-07
2.84332e-07
-1.15456e-07
3.42349e-07
-1.1487e-07
4.00113e-07
-1.14301e-07
4.57614e-07
-1.13735e-07
5.14831e-07
-1.13143e-07
5.71724e-07
-1.12477e-07
6.28212e-07
-1.11661e-07
6.84149e-07
-1.10559e-07
7.39265e-07
-1.08919e-07
7.93062e-07
-1.06244e-07
8.44567e-07
-1.01375e-07
8.92162e-07
-9.202e-08
9.32543e-07
-7.17305e-08
-2.43765e-08
9.65823e-07
-1.91408e-09
-1.4923e-08
-8.76669e-09
-4.68795e-09
-1.77396e-08
5.60157e-09
-2.80793e-08
1.47409e-08
-3.95805e-08
2.29393e-08
-5.22594e-08
3.02177e-08
-6.62025e-08
3.65715e-08
-8.1475e-08
4.20389e-08
-9.80804e-08
4.6715e-08
-1.15965e-07
5.07325e-08
-1.35046e-07
5.4233e-08
-1.55231e-07
5.73466e-08
-1.76441e-07
6.01807e-08
-1.98606e-07
6.28181e-08
-2.21679e-07
6.53195e-08
-2.45626e-07
6.77279e-08
-2.70427e-07
7.00734e-08
-2.96074e-07
7.23775e-08
-3.22568e-07
7.4656e-08
-3.49917e-07
7.69216e-08
-3.78138e-07
7.91857e-08
-4.07253e-07
8.14594e-08
-4.3729e-07
8.37549e-08
-4.68278e-07
8.60868e-08
-5.00248e-07
8.8471e-08
-5.33221e-07
9.09222e-08
-5.67205e-07
9.34462e-08
-6.02198e-07
9.60321e-08
-6.38202e-07
9.86531e-08
-6.75211e-07
1.01289e-07
-7.13119e-07
1.03955e-07
-7.5158e-07
1.06671e-07
-7.9027e-07
1.0932e-07
-8.29509e-07
1.11672e-07
-8.69425e-07
1.13682e-07
-9.09513e-07
1.15532e-07
-9.49462e-07
1.17236e-07
-9.88978e-07
1.18749e-07
-1.02823e-06
1.2002e-07
-1.06685e-06
1.21103e-07
-1.10391e-06
1.21966e-07
-1.14047e-06
1.22203e-07
-1.17785e-06
1.21806e-07
-1.21579e-06
1.21265e-07
-1.25346e-06
1.20897e-07
-1.29044e-06
1.20653e-07
-1.3269e-06
1.20406e-07
-1.36294e-06
1.20119e-07
-1.39863e-06
1.19773e-07
-1.43402e-06
1.1936e-07
-1.46914e-06
1.18879e-07
-1.504e-06
1.18329e-07
-1.5386e-06
1.17711e-07
-1.57294e-06
1.17028e-07
-1.60701e-06
1.16278e-07
-1.6408e-06
1.15462e-07
-1.67428e-06
1.14576e-07
-1.70746e-06
1.13619e-07
-1.74029e-06
1.12589e-07
-1.77277e-06
1.11482e-07
-1.80487e-06
1.10294e-07
-1.83657e-06
1.09024e-07
-1.86783e-06
1.07667e-07
-1.89864e-06
1.0622e-07
-1.92896e-06
1.04682e-07
-1.95877e-06
1.03048e-07
-1.98804e-06
1.01317e-07
-2.01673e-06
9.94878e-08
-2.04483e-06
9.75577e-08
-2.07228e-06
9.55257e-08
-2.09908e-06
9.33911e-08
-2.12517e-06
9.11534e-08
-2.15054e-06
8.88123e-08
-2.17515e-06
8.63682e-08
-2.19897e-06
8.38214e-08
-2.22197e-06
8.11729e-08
-2.24412e-06
7.84236e-08
-2.26538e-06
7.55749e-08
-2.28573e-06
7.26284e-08
-2.30513e-06
6.95858e-08
-2.32356e-06
6.64489e-08
-2.34099e-06
6.32197e-08
-2.35739e-06
5.99003e-08
-2.37274e-06
5.64926e-08
-2.387e-06
5.29987e-08
-2.40015e-06
4.94205e-08
-2.41217e-06
4.57599e-08
-2.42304e-06
4.20184e-08
-2.43272e-06
3.81976e-08
-2.44121e-06
3.42992e-08
-2.44848e-06
3.03245e-08
-2.45452e-06
2.62755e-08
-2.45931e-06
2.21549e-08
-2.46285e-06
1.79664e-08
-2.46513e-06
1.37157e-08
-2.46615e-06
9.41161e-09
-2.46593e-06
5.06725e-09
-2.46444e-06
6.98408e-10
-2.46168e-06
-3.67543e-09
-2.45759e-06
-8.06659e-09
-2.45209e-06
-1.2484e-08
-2.44516e-06
-1.69455e-08
-2.43678e-06
-2.14487e-08
-2.42693e-06
-2.59889e-08
-2.4156e-06
-3.05604e-08
-2.40277e-06
-3.51575e-08
-2.38845e-06
-3.97738e-08
-2.37263e-06
-4.44032e-08
-2.3553e-06
-4.90393e-08
-2.33646e-06
-5.36757e-08
-2.31612e-06
-5.83061e-08
-2.29428e-06
-6.29243e-08
-2.27094e-06
-6.75238e-08
-2.24612e-06
-7.20986e-08
-2.21982e-06
-7.66424e-08
-2.19206e-06
-8.11491e-08
-2.16285e-06
-8.56125e-08
-2.13221e-06
-9.00267e-08
-2.10015e-06
-9.43853e-08
-2.06669e-06
-9.86825e-08
-2.03186e-06
-1.02912e-07
-1.99568e-06
-1.07069e-07
-1.95818e-06
-1.11146e-07
-1.91938e-06
-1.15139e-07
-1.87931e-06
-1.19043e-07
-1.838e-06
-1.22852e-07
-1.79549e-06
-1.26561e-07
-1.75181e-06
-1.30166e-07
-1.707e-06
-1.33662e-07
-1.66108e-06
-1.37044e-07
-1.61411e-06
-1.40308e-07
-1.56612e-06
-1.43449e-07
-1.51715e-06
-1.46465e-07
-1.46724e-06
-1.49353e-07
-1.41645e-06
-1.52109e-07
-1.3648e-06
-1.5473e-07
-1.31234e-06
-1.57215e-07
-1.25913e-06
-1.5956e-07
-1.20521e-06
-1.61764e-07
-1.15062e-06
-1.63827e-07
-1.0954e-06
-1.65748e-07
-1.03962e-06
-1.67526e-07
-9.83306e-07
-1.69162e-07
-9.26512e-07
-1.70654e-07
-8.69284e-07
-1.72006e-07
-8.11668e-07
-1.73219e-07
-7.53707e-07
-1.74293e-07
-6.95446e-07
-1.75233e-07
-6.36929e-07
-1.7604e-07
-5.78198e-07
-1.76719e-07
-5.19292e-07
-1.77273e-07
-4.60251e-07
-1.77706e-07
-4.01114e-07
-1.78024e-07
-3.41915e-07
-1.78232e-07
-2.82689e-07
-1.78336e-07
-2.23468e-07
-1.78341e-07
-1.64282e-07
-1.78252e-07
-1.05159e-07
-1.78076e-07
-4.61252e-08
-1.77818e-07
1.27956e-08
-1.77481e-07
7.15788e-08
-1.77066e-07
1.30203e-07
-1.76573e-07
1.88651e-07
-1.76004e-07
2.46905e-07
-1.75362e-07
3.04965e-07
-1.74658e-07
3.62837e-07
-1.73915e-07
4.20528e-07
-1.73147e-07
4.78023e-07
-1.72365e-07
5.35302e-07
-1.71579e-07
5.92344e-07
-1.70777e-07
6.49123e-07
-1.69921e-07
7.05593e-07
-1.68946e-07
7.61673e-07
-1.67741e-07
8.17225e-07
-1.66111e-07
8.72011e-07
-1.63705e-07
9.25626e-07
-1.59858e-07
9.77436e-07
-1.53185e-07
1.02654e-06
-1.4112e-07
1.07242e-06
-1.17618e-07
-7.12229e-08
1.11927e-06
-8.46509e-09
-6.45793e-09
-2.03814e-08
7.22836e-09
-3.33356e-08
1.85557e-08
-4.69051e-08
2.83105e-08
-6.1045e-08
3.70791e-08
-7.58346e-08
4.50073e-08
-9.13974e-08
5.21343e-08
-1.07851e-07
5.84922e-08
-1.25276e-07
6.414e-08
-1.43709e-07
6.91654e-08
-1.63148e-07
7.36727e-08
-1.8357e-07
7.77679e-08
-2.04937e-07
8.1548e-08
-2.27214e-07
8.5095e-08
-2.50369e-07
8.84743e-08
-2.74377e-07
9.17362e-08
-2.99222e-07
9.49187e-08
-3.24895e-07
9.80502e-08
-3.51391e-07
1.01152e-07
-3.78711e-07
1.04242e-07
-4.06857e-07
1.07332e-07
-4.35831e-07
1.10434e-07
-4.65633e-07
1.13556e-07
-4.96253e-07
1.16707e-07
-5.27673e-07
1.19891e-07
-5.59856e-07
1.23105e-07
-5.92748e-07
1.26338e-07
-6.26279e-07
1.29563e-07
-6.6037e-07
1.32744e-07
-6.94926e-07
1.35844e-07
-7.29804e-07
1.38834e-07
-7.64811e-07
1.41678e-07
-7.99792e-07
1.44301e-07
-8.34735e-07
1.46615e-07
-8.69654e-07
1.48601e-07
-9.04422e-07
1.503e-07
-9.38919e-07
1.51733e-07
-9.73067e-07
1.52897e-07
-1.00684e-06
1.53793e-07
-1.04018e-06
1.5444e-07
-1.07303e-06
1.54815e-07
-1.10566e-06
1.54834e-07
-1.13838e-06
1.54532e-07
-1.1712e-06
1.54085e-07
-1.20393e-06
1.53628e-07
-1.23646e-06
1.53182e-07
-1.26878e-06
1.52721e-07
-1.30089e-06
1.5223e-07
-1.33281e-06
1.51694e-07
-1.36455e-06
1.51103e-07
-1.39612e-06
1.5045e-07
-1.42753e-06
1.49731e-07
-1.45876e-06
1.48942e-07
-1.48981e-06
1.48079e-07
-1.52067e-06
1.47139e-07
-1.55132e-06
1.46117e-07
-1.58176e-06
1.45009e-07
-1.61195e-06
1.43811e-07
-1.64188e-06
1.42519e-07
-1.67152e-06
1.41126e-07
-1.70086e-06
1.3963e-07
-1.72986e-06
1.38025e-07
-1.7585e-06
1.36306e-07
-1.78675e-06
1.34471e-07
-1.81459e-06
1.32515e-07
-1.84197e-06
1.30434e-07
-1.86888e-06
1.28226e-07
-1.89528e-06
1.25888e-07
-1.92114e-06
1.23419e-07
-1.94643e-06
1.20816e-07
-1.97112e-06
1.18079e-07
-1.99517e-06
1.15206e-07
-2.01856e-06
1.12198e-07
-2.04124e-06
1.09054e-07
-2.0632e-06
1.05776e-07
-2.08439e-06
1.02364e-07
-2.10479e-06
9.88206e-08
-2.12436e-06
9.51461e-08
-2.14307e-06
9.13432e-08
-2.1609e-06
8.74141e-08
-2.17781e-06
8.33612e-08
-2.19378e-06
7.91872e-08
-2.20878e-06
7.4895e-08
-2.22277e-06
7.04874e-08
-2.23574e-06
6.59672e-08
-2.24766e-06
6.13376e-08
-2.2585e-06
5.66011e-08
-2.26824e-06
5.17609e-08
-2.27686e-06
4.68196e-08
-2.28434e-06
4.17803e-08
-2.29066e-06
3.66461e-08
-2.29581e-06
3.14204e-08
-2.29976e-06
2.61076e-08
-2.30251e-06
2.07131e-08
-2.30404e-06
1.52435e-08
-2.30433e-06
9.7069e-09
-2.30338e-06
4.11296e-09
-2.30115e-06
-1.52937e-09
-2.29761e-06
-7.21402e-09
-2.29273e-06
-1.29468e-08
-2.28648e-06
-1.8737e-08
-2.27883e-06
-2.45891e-08
-2.26978e-06
-3.04986e-08
-2.25932e-06
-3.64586e-08
-2.24741e-06
-4.24613e-08
-2.23407e-06
-4.84982e-08
-2.21929e-06
-5.45611e-08
-2.20305e-06
-6.06415e-08
-2.18536e-06
-6.67309e-08
-2.16621e-06
-7.28209e-08
-2.14561e-06
-7.89032e-08
-2.12357e-06
-8.49695e-08
-2.10008e-06
-9.10115e-08
-2.07516e-06
-9.7021e-08
-2.04881e-06
-1.0299e-07
-2.02105e-06
-1.0891e-07
-1.99189e-06