/*--------------------------------*- C++ -*----------------------------------*\
  =========                 |
  \\      /  F ield         | OpenFOAM: The Open Source CFD Toolbox
   \\    /   O peration     | Website:  https://openfoam.org
    \\  /    A nd           | Version:  12
     \\/     M anipulation  |
\*---------------------------------------------------------------------------*/
FoamFile
{
    format      ascii;
    class       volVectorField;
    location    "0.19";
    object      U;
}
// * * * * * * * * * * * * * * * * * * * * * * * * * * * * * * * * * * * * * //

dimensions      [0 1 -1 0 0 0 0];

internalField   nonuniform List<vector> 
12225
(
(9.86107 -0.874318 0)
(9.67247 -0.700191 0)
(9.45896 -0.387591 0)
(9.22464 -0.188476 0)
(9.00345 -0.0843917 0)
(8.81034 -0.0328735 0)
(8.64504 -0.00754763 0)
(8.50403 0.00502868 0)
(8.38382 0.0113415 0)
(8.28091 0.0144788 0)
(8.1919 0.0159758 0)
(8.11392 0.0166476 0)
(8.04458 0.0169375 0)
(7.98206 0.017138 0)
(7.92344 0.0174416 0)
(7.86968 0.0185665 0)
(7.80008 0.0215441 0)
(7.77369 0.0301493 0)
(10.0547 0.263069 0)
(10.1201 0.360741 0)
(10.118 0.273822 0)
(10.0826 0.18709 0)
(10.0405 0.131165 0)
(9.9939 0.0969307 0)
(9.94008 0.0755621 0)
(9.88034 0.0617561 0)
(9.81776 0.0523522 0)
(9.75482 0.0455373 0)
(9.69297 0.0403688 0)
(9.63301 0.036386 0)
(9.57533 0.0333335 0)
(9.52031 0.0311936 0)
(9.46716 0.0298016 0)
(9.41836 0.0309317 0)
(9.36688 0.0320512 0)
(9.34168 0.0525584 0)
(9.99919 0.0460871 0)
(10.0244 0.0342105 0)
(10.0538 0.0149515 0)
(10.0708 0.0218132 0)
(10.0778 0.036676 0)
(10.0783 0.0460133 0)
(10.0722 0.049955 0)
(10.0602 0.0511477 0)
(10.0439 0.0510563 0)
(10.0245 0.0503425 0)
(10.0029 0.0493776 0)
(9.97987 0.0484083 0)
(9.95569 0.0475852 0)
(9.93087 0.0471435 0)
(9.90535 0.0471575 0)
(9.88016 0.0489695 0)
(9.85454 0.0517515 0)
(9.83459 0.063215 0)
(9.9968 0.00642822 0)
(10.0085 0.0250193 0)
(10.0342 0.0389396 0)
(10.0528 0.0503047 0)
(10.0644 0.0571108 0)
(10.0731 0.059168 0)
(10.079 0.0588573 0)
(10.0816 0.057939 0)
(10.0815 0.0569347 0)
(10.0794 0.0559201 0)
(10.0757 0.0549484 0)
(10.0706 0.0541066 0)
(10.0643 0.0534858 0)
(10.0571 0.0532811 0)
(10.049 0.053628 0)
(10.0408 0.0554068 0)
(10.0328 0.0582834 0)
(10.0273 0.064773 0)
(9.99922 0.00673781 0)
(10.0081 0.0335749 0)
(10.0271 0.0460451 0)
(10.0418 0.0508476 0)
(10.0524 0.053917 0)
(10.0622 0.0555067 0)
(10.0708 0.0558548 0)
(10.0774 0.0556726 0)
(10.0822 0.0553064 0)
(10.0857 0.0548478 0)
(10.088 0.0543713 0)
(10.0893 0.0539821 0)
(10.0898 0.0537905 0)
(10.0896 0.0539718 0)
(10.0889 0.0546782 0)
(10.0882 0.0564029 0)
(10.088 0.0589594 0)
(10.0896 0.06284 0)
(10.0002 0.0090745 0)
(10.0078 0.0321261 0)
(10.0225 0.0419134 0)
(10.035 0.0456684 0)
(10.0448 0.0491291 0)
(10.0542 0.0516669 0)
(10.063 0.0528077 0)
(10.0704 0.053162 0)
(10.0766 0.0532054 0)
(10.0818 0.0531023 0)
(10.0862 0.0529446 0)
(10.09 0.0528408 0)
(10.093 0.0529021 0)
(10.0957 0.0532725 0)
(10.098 0.0540765 0)
(10.1004 0.0555567 0)
(10.1034 0.0575551 0)
(10.1077 0.0599209 0)
(10.0003 0.00880105 0)
(10.0068 0.0275197 0)
(10.0189 0.0370854 0)
(10.0303 0.0417443 0)
(10.0395 0.0456662 0)
(10.0482 0.0484926 0)
(10.0566 0.0499049 0)
(10.064 0.0505012 0)
(10.0705 0.0507675 0)
(10.0763 0.0508762 0)
(10.0814 0.0509145 0)
(10.086 0.0509826 0)
(10.0902 0.0511824 0)
(10.0941 0.0516242 0)
(10.0978 0.0523913 0)
(10.1016 0.0535768 0)
(10.1059 0.0550198 0)
(10.1113 0.0564017 0)
(10.0004 0.00783821 0)
(10.0057 0.0236971 0)
(10.016 0.0333724 0)
(10.0264 0.0385916 0)
(10.0351 0.042488 0)
(10.0433 0.0452836 0)
(10.0512 0.0468401 0)
(10.0584 0.0476232 0)
(10.0649 0.0480579 0)
(10.0707 0.0483181 0)
(10.0761 0.0484911 0)
(10.0811 0.0486692 0)
(10.0858 0.0489409 0)
(10.0902 0.0493857 0)
(10.0946 0.0500486 0)
(10.0991 0.0509382 0)
(10.104 0.0518939 0)
(10.1095 0.052607 0)
(10.0004 0.0069524 0)
(10.0049 0.0207106 0)
(10.0136 0.0300393 0)
(10.023 0.0354065 0)
(10.0312 0.0391927 0)
(10.0389 0.041955 0)
(10.0464 0.0436479 0)
(10.0534 0.0445969 0)
(10.0597 0.0451667 0)
(10.0656 0.0455389 0)
(10.071 0.0458056 0)
(10.0761 0.0460499 0)
(10.081 0.0463458 0)
(10.0857 0.0467476 0)
(10.0904 0.0472712 0)
(10.0952 0.047883 0)
(10.1002 0.0484366 0)
(10.1057 0.0486916 0)
(10.0004 0.00616586 0)
(10.0042 0.0181259 0)
(10.0116 0.026803 0)
(10.0199 0.0321453 0)
(10.0277 0.0358559 0)
(10.035 0.038588 0)
(10.042 0.0403744 0)
(10.0488 0.0414491 0)
(10.055 0.042122 0)
(10.0607 0.042576 0)
(10.0662 0.0429056 0)
(10.0713 0.0431841 0)
(10.0763 0.0434712 0)
(10.0811 0.0438026 0)
(10.0859 0.0441759 0)
(10.0908 0.0445424 0)
(10.0958 0.0447795 0)
(10.1011 0.044721 0)
(10.0003 0.00542931 0)
(10.0036 0.015804 0)
(10.0099 0.0237181 0)
(10.0173 0.0289176 0)
(10.0245 0.0325372 0)
(10.0314 0.0352031 0)
(10.0381 0.037024 0)
(10.0445 0.0381804 0)
(10.0506 0.0389274 0)
(10.0563 0.0394384 0)
(10.0616 0.0398062 0)
(10.0668 0.0400951 0)
(10.0718 0.0403525 0)
(10.0766 0.0406013 0)
(10.0814 0.0408305 0)
(10.0863 0.0409916 0)
(10.0912 0.0409896 0)
(10.0962 0.0407202 0)
(10.0003 0.0047771 0)
(10.0031 0.0138595 0)
(10.0086 0.0210451 0)
(10.0152 0.026012 0)
(10.0219 0.0295047 0)
(10.0284 0.0320763 0)
(10.0348 0.0338838 0)
(10.041 0.0350776 0)
(10.0469 0.0358663 0)
(10.0525 0.0364074 0)
(10.0578 0.0367902 0)
(10.0629 0.0370713 0)
(10.0678 0.0372893 0)
(10.0727 0.0374595 0)
(10.0774 0.0375693 0)
(10.0822 0.0375776 0)
(10.0869 0.0374138 0)
(10.0917 0.037018 0)
(10.0003 0.00417087 0)
(10.0028 0.0120931 0)
(10.0075 0.018532 0)
(10.0134 0.0231759 0)
(10.0197 0.026499 0)
(10.0258 0.0289525 0)
(10.0319 0.0307125 0)
(10.0378 0.0319117 0)
(10.0435 0.0327189 0)
(10.049 0.0332723 0)
(10.0542 0.0336551 0)
(10.0592 0.0339178 0)
(10.0641 0.0340921 0)
(10.0689 0.0341894 0)
(10.0736 0.0341982 0)
(10.0783 0.0340876 0)
(10.0828 0.0338069 0)
(10.0874 0.0333291 0)
(10.0003 0.00353927 0)
(10.0024 0.0102557 0)
(10.0064 0.0158409 0)
(10.0117 0.0200307 0)
(10.0174 0.0230965 0)
(10.0232 0.0253734 0)
(10.0289 0.0270342 0)
(10.0345 0.0281967 0)
(10.04 0.0289923 0)
(10.0453 0.0295351 0)
(10.0504 0.0298991 0)
(10.0554 0.0301288 0)
(10.0602 0.03025 0)
(10.0649 0.0302719 0)
(10.0695 0.0301872 0)
(10.074 0.0299758 0)
(10.0784 0.0296064 0)
(10.0827 0.0290762 0)
(10.0002 0.00288067 0)
(10.002 0.00834606 0)
(10.0055 0.012982 0)
(10.0101 0.0165828 0)
(10.0153 0.0192818 0)
(10.0206 0.0213047 0)
(10.026 0.0228001 0)
(10.0313 0.0238686 0)
(10.0366 0.0246087 0)
(10.0417 0.0251084 0)
(10.0467 0.0254293 0)
(10.0515 0.0256089 0)
(10.0562 0.0256685 0)
(10.0608 0.025617 0)
(10.0652 0.025452 0)
(10.0696 0.0251644 0)
(10.0737 0.024738 0)
(10.0778 0.0241865 0)
(10.0002 0.00219537 0)
(10.0017 0.00636507 0)
(10.0047 0.00996009 0)
(10.0088 0.0128333 0)
(10.0134 0.0150376 0)
(10.0183 0.0167083 0)
(10.0233 0.0179556 0)
(10.0284 0.0188578 0)
(10.0334 0.0194847 0)
(10.0383 0.0198985 0)
(10.0431 0.0201458 0)
(10.0478 0.0202564 0)
(10.0523 0.0202477 0)
(10.0567 0.0201284 0)
(10.061 0.0199007 0)
(10.0651 0.0195638 0)
(10.0691 0.0191122 0)
(10.073 0.0185682 0)
(10.0002 0.00148021 0)
(10.0015 0.00429599 0)
(10.0041 0.00675288 0)
(10.0077 0.00875852 0)
(10.0119 0.0103275 0)
(10.0164 0.0115294 0)
(10.021 0.0124311 0)
(10.0258 0.0130831 0)
(10.0306 0.0135287 0)
(10.0353 0.0138065 0)
(10.0399 0.0139464 0)
(10.0444 0.0139688 0)
(10.0487 0.0138865 0)
(10.053 0.0137073 0)
(10.0571 0.0134357 0)
(10.061 0.0130753 0)
(10.0648 0.0126263 0)
(10.0684 0.0121134 0)
(10.0001 0.000717518 0)
(10.0013 0.00208286 0)
(10.0037 0.00328079 0)
(10.0069 0.00427009 0)
(10.0108 0.00505315 0)
(10.015 0.00565466 0)
(10.0194 0.00609958 0)
(10.024 0.00640801 0)
(10.0285 0.00659769 0)
(10.033 0.00668445 0)
(10.0374 0.00668081 0)
(10.0418 0.00659562 0)
(10.046 0.00643498 0)
(10.05 0.00620337 0)
(10.0539 0.00590443 0)
(10.0577 0.00554226 0)
(10.0613 0.00511861 0)
(10.0647 0.0046561 0)
(10.0001 -0.00013941 0)
(10.0013 -0.000406473 0)
(10.0035 -0.000645329 0)
(10.0067 -0.000843323 0)
(10.0104 -0.000997829 0)
(10.0145 -0.00112261 0)
(10.0188 -0.00123686 0)
(10.0232 -0.00135442 0)
(10.0276 -0.00148398 0)
(10.032 -0.00163276 0)
(10.0363 -0.00180733 0)
(10.0405 -0.00201276 0)
(10.0446 -0.00225236 0)
(10.0485 -0.00252792 0)
(10.0523 -0.00284005 0)
(10.0559 -0.00318766 0)
(10.0593 -0.00357076 0)
(10.0626 -0.00397244 0)
(10.0001 -0.000963379 0)
(10.0014 -0.00280676 0)
(10.0038 -0.00443715 0)
(10.0071 -0.00577244 0)
(10.0111 -0.00680628 0)
(10.0153 -0.00760012 0)
(10.0197 -0.00822091 0)
(10.0242 -0.00871389 0)
(10.0287 -0.00911361 0)
(10.0331 -0.00945211 0)
(10.0374 -0.00975596 0)
(10.0415 -0.0100438 0)
(10.0456 -0.0103282 0)
(10.0494 -0.0106178 0)
(10.0531 -0.0109186 0)
(10.0566 -0.0112334 0)
(10.06 -0.0115652 0)
(10.0632 -0.0119028 0)
(10.0002 -0.00167729 0)
(10.0015 -0.00491006 0)
(10.0042 -0.00775997 0)
(10.0079 -0.0100237 0)
(10.0123 -0.0117165 0)
(10.0168 -0.0129952 0)
(10.0215 -0.0139774 0)
(10.0261 -0.0147226 0)
(10.0308 -0.015285 0)
(10.0352 -0.0157234 0)
(10.0396 -0.016085 0)
(10.0438 -0.0164001 0)
(10.0478 -0.0166881 0)
(10.0516 -0.0169632 0)
(10.0553 -0.017235 0)
(10.0588 -0.0175094 0)
(10.0621 -0.0177908 0)
(10.0653 -0.0180716 0)
(10.0002 -0.00235922 0)
(10.0017 -0.00699872 0)
(10.0048 -0.0110959 0)
(10.0092 -0.0141928 0)
(10.0141 -0.0163833 0)
(10.019 -0.0180048 0)
(10.0239 -0.0192377 0)
(10.0289 -0.0201464 0)
(10.0337 -0.0208028 0)
(10.0383 -0.0212897 0)
(10.0427 -0.0216684 0)
(10.047 -0.0219772 0)
(10.051 -0.0222423 0)
(10.0549 -0.0224829 0)
(10.0585 -0.0227121 0)
(10.062 -0.0229379 0)
(10.0653 -0.0231654 0)
(10.0685 -0.0233896 0)
(10.0002 -0.00299481 0)
(10.0018 -0.00910762 0)
(10.0056 -0.0144777 0)
(10.0108 -0.0183197 0)
(10.0164 -0.0209363 0)
(10.0217 -0.0228279 0)
(10.027 -0.0241888 0)
(10.0322 -0.0251248 0)
(10.0372 -0.0257737 0)
(10.042 -0.026247 0)
(10.0465 -0.0266047 0)
(10.0508 -0.0268819 0)
(10.0549 -0.0271073 0)
(10.0587 -0.0273036 0)
(10.0624 -0.0274858 0)
(10.0659 -0.0276621 0)
(10.0692 -0.0278379 0)
(10.0723 -0.02801 0)
(10.0001 -0.00357086 0)
(10.0019 -0.0115385 0)
(10.0064 -0.0179309 0)
(10.0127 -0.0220562 0)
(10.0189 -0.0250371 0)
(10.0248 -0.027335 0)
(10.0304 -0.0288744 0)
(10.0359 -0.0297846 0)
(10.0411 -0.0303425 0)
(10.046 -0.0307263 0)
(10.0506 -0.0310019 0)
(10.055 -0.0312014 0)
(10.0591 -0.0313543 0)
(10.063 -0.031484 0)
(10.0667 -0.0316042 0)
(10.0701 -0.031722 0)
(10.0734 -0.0318407 0)
(10.0765 -0.0319564 0)
(9.99997 -0.00369068 0)
(10.0018 -0.0151823 0)
(10.0076 -0.0226537 0)
(10.0148 -0.0259832 0)
(10.0214 -0.028545 0)
(10.0277 -0.0310057 0)
(10.034 -0.0327825 0)
(10.04 -0.0338201 0)
(10.0455 -0.0344194 0)
(10.0505 -0.0347895 0)
(10.0553 -0.0350136 0)
(10.0597 -0.0351407 0)
(10.0638 -0.0352129 0)
(10.0676 -0.0352597 0)
(10.0711 -0.0352977 0)
(10.0744 -0.0353353 0)
(10.0775 -0.0353758 0)
(10.0804 -0.035417 0)
(9.99898 -0.00130983 0)
(9.99999 -0.0179758 0)
(10.0085 -0.029072 0)
(10.0174 -0.0326965 0)
(10.0244 -0.0341193 0)
(10.0312 -0.0353441 0)
(10.0382 -0.0362895 0)
(10.0448 -0.0369304 0)
(10.0507 -0.0373793 0)
(10.0559 -0.0376766 0)
(10.0606 -0.0378368 0)
(10.0647 -0.037896 0)
(10.0684 -0.0378954 0)
(10.0717 -0.0378645 0)
(10.0746 -0.0378215 0)
(10.0771 -0.0377777 0)
(10.0794 -0.0377366 0)
(10.0814 -0.0376974 0)
(9.99528 0.00386849 0)
(9.99333 -0.0103128 0)
(10.007 -0.0271048 0)
(10.0212 -0.0389275 0)
(10.0311 -0.0448649 0)
(10.0391 -0.0464705 0)
(10.0466 -0.045986 0)
(10.0529 -0.045028 0)
(10.058 -0.0441517 0)
(10.062 -0.0433782 0)
(10.0651 -0.042664 0)
(10.0674 -0.0420063 0)
(10.069 -0.0414115 0)
(10.0699 -0.0408793 0)
(10.0703 -0.0404073 0)
(10.0703 -0.0399944 0)
(10.07 -0.0396312 0)
(10.0693 -0.0392907 0)
(9.99144 -0.0172937 0)
(9.99189 0.000364846 0)
(10.01 0.0176644 0)
(10.0295 0.0115868 0)
(10.0441 -0.00511086 0)
(10.0541 -0.0188273 0)
(10.06 -0.027174 0)
(10.0622 -0.0320514 0)
(10.0617 -0.0349334 0)
(10.059 -0.0365393 0)
(10.0549 -0.0373167 0)
(10.0495 -0.0375908 0)
(10.0431 -0.0375743 0)
(10.0361 -0.037397 0)
(10.0285 -0.0371425 0)
(10.0206 -0.036872 0)
(10.0125 -0.0366409 0)
(10.0043 -0.0364181 0)
(10.0236 -0.206008 0)
(10.0684 -0.312339 0)
(10.0788 -0.255593 0)
(10.0704 -0.184178 0)
(10.0605 -0.134902 0)
(10.0499 -0.102727 0)
(10.0342 -0.0811672 0)
(10.0129 -0.0666211 0)
(9.98777 -0.0566296 0)
(9.96053 -0.0494742 0)
(9.93231 -0.0441173 0)
(9.9038 -0.0399692 0)
(9.8755 -0.0366718 0)
(9.84774 -0.0339922 0)
(9.82075 -0.0317826 0)
(9.79468 -0.0299795 0)
(9.76973 -0.0285524 0)
(9.74595 -0.0278179 0)
(9.94226 0.671595 0)
(9.87995 0.567455 0)
(9.77444 0.338466 0)
(9.63237 0.183319 0)
(9.48762 0.0949055 0)
(9.3565 0.0470825 0)
(9.24093 0.0212976 0)
(9.13941 0.00707603 0)
(9.05046 -0.000983441 0)
(8.97246 -0.00562472 0)
(8.90368 -0.00831394 0)
(8.8426 -0.0098762 0)
(8.78795 -0.0107817 0)
(8.73876 -0.0112993 0)
(8.69419 -0.0115899 0)
(8.65355 -0.011778 0)
(8.61599 -0.0119575 0)
(8.58112 -0.0124893 0)
(0.00475378 -0.0114572 -3.50085e-20)
(0.0150977 -0.0155577 3.45133e-20)
(0.0228419 -0.0116423 0)
(0.0266331 -0.00499849 0)
(0.0257232 0.00168302 0)
(0.020758 0.00704288 -3.22061e-20)
(0.0126912 0.0107725 0)
(0.00231475 0.0131538 0)
(-0.0097299 0.0146513 0)
(-0.0230295 0.0156469 0)
(-0.0373447 0.0163798 2.92469e-20)
(-0.0525154 0.0169882 0)
(-0.0684528 0.0175432 0)
(-0.0851069 0.0180771 0)
(-0.102448 0.0186016 0)
(-0.120454 0.0191187 2.61367e-20)
(-0.139109 0.0196257 0)
(-0.158397 0.0201189 0)
(-0.178298 0.0205939 0)
(-0.198795 0.0210467 0)
(-0.219867 0.0214726 0)
(-0.241491 0.0218664 0)
(-0.26364 0.0222219 0)
(-0.286288 0.0225361 2.24718e-20)
(-0.309406 0.0228185 -2.2124e-20)
(-0.332976 0.0231006 2.18005e-20)
(-0.356997 0.0234246 2.15008e-20)
(-0.381481 0.0237925 0)
(-0.406383 0.0241158 0)
(-0.431586 0.0243505 -2.07392e-20)
(-0.45721 0.0251749 -2.05336e-20)
(-0.483763 0.0287528 0)
(-0.511345 0.034172 0)
(-0.539994 0.0319527 -2.00448e-20)
(-0.568989 0.0274409 0)
(-0.597258 0.0290665 0)
(-0.627103 0.0322376 1.95334e-20)
(-0.658135 0.0384184 0)
(-0.690658 0.0389352 1.92032e-20)
(-0.725516 0.0464705 3.80611e-20)
(-0.762057 0.0672066 0)
(-0.802692 0.0646101 0)
(-0.842466 0.0435195 0)
(-0.878059 0.0299567 0)
(-0.913043 0.0285199 0)
(-0.949583 0.0319332 4.00108e-20)
(-0.988299 0.0328307 3.95676e-20)
(-1.02766 0.033455 3.9132e-20)
(-1.06764 0.0337543 0)
(-1.10798 0.0338654 -3.8291e-20)
(-1.14855 0.0338515 0)
(-1.18925 0.0337529 3.74936e-20)
(-1.23002 0.0335941 3.7111e-20)
(-1.27081 0.0333906 0)
(-1.31156 0.0331519 0)
(-1.35225 0.0328842 0)
(-1.39285 0.0325911 3.56759e-20)
(-1.43331 0.032275 0)
(-1.47361 0.0319371 0)
(-1.51373 0.031578 0)
(-1.55363 0.0311978 0)
(-1.59328 0.0307966 0)
(-1.63265 0.0303741 0)
(-1.6717 0.02993 0)
(-1.71041 0.0294639 0)
(-1.74875 0.0289758 -3.28358e-20)
(-1.78666 0.0284652 0)
(-1.82413 0.0279323 0)
(-1.86111 0.0273768 3.19498e-20)
(-1.89757 0.026799 3.16561e-20)
(-1.93346 0.0261989 0)
(-1.96875 0.025577 -3.10677e-20)
(-2.0034 0.0249336 3.07718e-20)
(-2.03737 0.0242693 0)
(-2.07063 0.0235846 -3.0174e-20)
(-2.10313 0.0228802 0)
(-2.13483 0.0221569 0)
(-2.16571 0.0214154 2.9254e-20)
(-2.19571 0.0206565 0)
(-2.22481 0.0198812 -2.86191e-20)
(-2.25296 0.0190902 0)
(-2.28013 0.0182843 2.79623e-20)
(-2.30629 0.0174642 2.76244e-20)
(-2.3314 0.0166305 2.72796e-20)
(-2.35543 0.0157836 5.38551e-20)
(-2.37834 0.0149237 -5.31354e-20)
(-2.4001 0.0140506 0)
(-2.42068 0.0131636 0)
(-2.44003 0.0122615 0)
(-2.45814 0.0113424 -5.00854e-20)
(-2.47495 0.0104032 -4.92764e-20)
(-2.49044 0.00943996 4.84477e-20)
(-2.50455 0.00844796 0)
(-2.51725 0.00742161 -4.67284e-20)
(-2.52848 0.00635409 -4.58371e-20)
(-2.53817 0.00523935 -4.49241e-20)
(-2.54625 0.00407841 0)
(-2.55264 0.0028916 0)
(-2.55721 0.00172661 0)
(-2.55986 0.000644436 -4.10512e-20)
(-2.5608 -0.000306789 0)
(-2.56033 -0.00115232 0)
(-2.55837 -0.00196999 3.78736e-20)
(-2.55496 -0.00277507 0)
(-2.55008 -0.00357398 0)
(-2.54372 -0.00436783 3.446e-20)
(-2.53588 -0.00515656 0)
(-2.52653 -0.00593954 0)
(-2.51569 -0.00671597 -3.08068e-20)
(-2.50333 -0.00748499 -2.9536e-20)
(-2.48946 -0.00824574 0)
(-2.47407 -0.00899736 2.69157e-20)
(-2.45717 -0.009739 0)
(-2.43875 -0.0104699 -2.41924e-20)
(-2.41882 -0.0111891 0)
(-2.39738 -0.0118959 -2.13692e-20)
(-2.37444 -0.0125896 -1.99214e-20)
(-2.35002 -0.0132694 0)
(-2.32411 -0.0139345 0)
(-2.29675 -0.0145842 0)
(-2.26793 -0.0152178 0)
(-2.23769 -0.0158348 0)
(-2.20603 -0.0164344 0)
(-2.17298 -0.0170162 0)
(-2.13857 -0.0175796 -7.5564e-21)
(-2.10281 -0.018124 5.9255e-21)
(-2.06573 -0.0186491 0)
(-2.02737 -0.0191542 0)
(-1.98774 -0.019639 0)
(-1.94688 -0.0201031 0)
(-1.90483 -0.020546 -4.88428e-21)
(-1.86162 -0.0209676 0)
(-1.81728 -0.0213676 1.1733e-20)
(-1.77185 -0.0217458 -1.51804e-20)
(-1.72537 -0.022102 0)
(-1.67787 -0.0224361 0)
(-1.62941 -0.0227479 0)
(-1.58001 -0.0230375 2.90607e-20)
(-1.52971 -0.0233049 3.25397e-20)
(-1.47857 -0.0235502 0)
(-1.42662 -0.0237735 3.94887e-20)
(-1.37391 -0.0239751 4.2953e-20)
(-1.32048 -0.0241551 -4.64069e-20)
(-1.26638 -0.0243139 0)
(-1.21163 -0.0244519 0)
(-1.1563 -0.0245695 -5.66779e-20)
(-1.10042 -0.0246671 0)
(-1.04403 -0.0247453 0)
(-0.987183 -0.0248048 0)
(-0.929907 -0.0248463 0)
(-0.872247 -0.0248703 7.33333e-20)
(-0.814239 -0.0248777 7.6572e-20)
(-0.755921 -0.0248694 0)
(-0.697328 -0.0248461 8.29382e-20)
(-0.638493 -0.0248089 0)
(-0.579449 -0.0247584 0)
(-0.520226 -0.0246958 9.21774e-20)
(-0.460851 -0.0246217 0)
(-0.401352 -0.0245368 9.81073e-20)
(-0.341754 -0.0244411 0)
(-0.282086 -0.0243344 0)
(-0.222372 -0.0242137 1.06624e-19)
(-0.162642 -0.0240719 0)
(-0.102926 -0.023905 1.12032e-19)
(-0.0432438 -0.0237062 0)
(0.0163443 -0.0234168 0)
(0.075738 -0.0230326 0)
(0.135025 -0.022651 -1.18588e-19)
(0.194202 -0.0222937 0)
(0.253281 -0.0219532 1.2008e-19)
(0.312267 -0.0216194 0)
(0.371145 -0.0212819 0)
(0.429868 -0.020926 0)
(0.488329 -0.0205284 0)
(0.546346 -0.0200431 0)
(0.603414 -0.0193778 0)
(0.659111 -0.0182851 0)
(0.709336 -0.0161336 -2.47353e-19)
(0.758153 -0.0112839 0)
(0.760126 0.00635803 0)
(0.00364437 -0.0300694 1.03977e-19)
(0.00690696 -0.0258653 -9.95333e-20)
(0.00522223 -0.0129999 0)
(0.00112993 -0.000124176 5.98732e-20)
(-0.00501899 0.0114597 0)
(-0.0131446 0.0211368 2.80305e-20)
(-0.0231713 0.0287537 -5.45902e-20)
(-0.0349777 0.0345201 -5.32486e-20)
(-0.0483987 0.0388354 0)
(-0.0632385 0.0421241 -5.07158e-20)
(-0.0793057 0.0447285 -2.47675e-20)
(-0.0964406 0.0468911 0)
(-0.114522 0.0487704 0)
(-0.133463 0.0504632 0)
(-0.153204 0.0520254 0)
(-0.173707 0.0534877 -2.20851e-20)
(-0.194947 0.0548658 0)
(-0.21691 0.0561674 4.23264e-20)
(-0.23959 0.0573958 0)
(-0.262987 0.0585523 0)
(-0.287108 0.0596375 -3.99705e-20)
(-0.311963 0.0606523 0)
(-0.337572 0.0615995 3.86317e-20)
(-0.363966 0.0624875 -1.90391e-20)
(-0.391184 0.0633351 1.87641e-20)
(-0.419278 0.0641712 -1.85134e-20)
(-0.448302 0.0650179 -1.82874e-20)
(-0.47831 0.0658583 0)
(-0.509383 0.0666216 0)
(-0.541688 0.0672492 1.7759e-20)
(-0.57529 0.067869 -1.75759e-20)
(-0.609737 0.0689375 0)
(-0.644701 0.0706409 0)
(-0.681215 0.0719228 1.75155e-20)
(-0.719388 0.0727114 0)
(-0.758831 0.0739373 0)
(-0.798725 0.0751307 -1.71337e-20)
(-0.838756 0.0764138 0)
(-0.879811 0.0773488 1.67568e-20)
(-0.920343 0.0776395 -3.34212e-20)
(-0.959086 0.0791201 0)
(-0.996955 0.0814165 0)
(-1.03618 0.0829914 -6.56281e-20)
(-1.07768 0.08398 -6.48924e-20)
(-1.11907 0.0852147 -6.4114e-20)
(-1.15919 0.086407 3.15973e-20)
(-1.19808 0.0869373 -3.13972e-20)
(-1.23636 0.0870128 -9.29877e-20)
(-1.27425 0.0867865 6.12642e-20)
(-1.31182 0.0863428 3.03781e-20)
(-1.34912 0.0857438 0)
(-1.38618 0.0850301 -2.97484e-20)
(-1.42298 0.084229 2.92979e-20)
(-1.45952 0.0833583 0)
(-1.49581 0.0824299 0)
(-1.53181 0.0814511 0)
(-1.56751 0.0804266 -2.83137e-20)
(-1.60291 0.0793589 0)
(-1.63797 0.0782494 5.54182e-20)
(-1.67268 0.0770984 0)
(-1.70702 0.0759059 5.43967e-20)
(-1.74096 0.0746715 0)
(-1.77448 0.0733945 -5.34053e-20)
(-1.80756 0.0720745 0)
(-1.84017 0.0707108 5.2436e-20)
(-1.87228 0.0693031 -2.59072e-20)
(-1.90388 0.0678512 0)
(-1.93492 0.066355 -5.10067e-20)
(-1.96538 0.0648149 -2.53349e-20)
(-1.99523 0.0632312 -2.50968e-20)
(-2.02445 0.0616045 0)
(-2.053 0.0599358 -2.44901e-20)
(-2.08086 0.0582261 -2.43772e-20)
(-2.10799 0.0564767 0)
(-2.13436 0.0546891 2.38886e-20)
(-2.15996 0.0528647 -4.71667e-20)
(-2.18474 0.0510055 0)
(-2.20868 0.0491131 -2.31342e-20)
(-2.23175 0.0471895 0)
(-2.25392 0.0452367 6.77405e-20)
(-2.27516 0.0432566 0)
(-2.29545 0.0412512 -6.6129e-20)
(-2.31476 0.0392223 -2.17937e-20)
(-2.33306 0.0371718 2.14342e-20)
(-2.35033 0.0351013 4.23002e-20)
(-2.36654 0.0330121 -4.17197e-20)
(-2.38166 0.0309056 0)
(-2.39568 0.0287825 0)
(-2.40855 0.0266434 0)
(-2.42027 0.0244881 1.17944e-19)
(-2.43081 0.0223161 3.86766e-20)
(-2.44014 0.020126 -3.7997e-20)
(-2.44824 0.0179158 0)
(-2.45511 0.0156834 -3.65686e-20)
(-2.46073 0.0134254 3.58595e-20)
(-2.4651 0.0111378 3.51132e-20)
(-2.46825 0.00881838 0)
(-2.47023 0.0064796 0)
(-2.47113 0.00416433 0)
(-2.47106 0.00193216 3.19416e-20)
(-2.46987 -0.00019056 0)
(-2.46731 -0.00222814 -6.05587e-20)
(-2.46336 -0.00422954 -8.81645e-20)
(-2.45799 -0.00620736 5.70288e-20)
(-2.45118 -0.00816725 0)
(-2.44292 -0.0101094 2.67538e-20)
(-2.43318 -0.0120325 0)
(-2.42196 -0.0139343 4.95308e-20)
(-2.40926 -0.0158128 -2.38843e-20)
(-2.39507 -0.0176654 -2.28918e-20)
(-2.37937 -0.0194899 0)
(-2.36218 -0.0212842 -6.20631e-20)
(-2.34349 -0.023046 3.93543e-20)
(-2.32331 -0.0247732 1.84681e-20)
(-2.30163 -0.0264641 0)
(-2.27846 -0.0281165 1.62673e-20)
(-2.25381 -0.0297287 4.57564e-20)
(-2.22769 -0.0312989 0)
(-2.20012 -0.0328254 2.60601e-20)
(-2.17109 -0.0343065 2.37424e-20)
(-2.14064 -0.0357407 2.13986e-20)
(-2.10877 -0.0371267 0)
(-2.07551 -0.0384632 0)
(-2.04088 -0.0397489 0)
(-2.00489 -0.0409828 -6.1088e-21)
(-1.96758 -0.042164 -4.44869e-21)
(-1.92897 -0.0432915 0)
(-1.88909 -0.0443646 -4.37963e-21)
(-1.84796 -0.0453825 -1.8795e-21)
(-1.80562 -0.0463446 0)
(-1.7621 -0.0472502 3.64259e-21)
(-1.71743 -0.0480993 1.13739e-20)
(-1.67165 -0.0488915 -8.72765e-21)
(-1.6248 -0.0496268 -1.02587e-20)
(-1.57691 -0.0503053 0)
(-1.52802 -0.0509271 0)
(-1.47817 -0.0514923 0)
(-1.4274 -0.0520014 -2.14839e-20)
(-1.37575 -0.0524549 2.29557e-20)
(-1.32327 -0.0528536 5.20493e-20)
(-1.26999 -0.0531983 -2.9092e-20)
(-1.21597 -0.0534899 3.0519e-20)
(-1.16123 -0.0537293 3.41137e-20)
(-1.10583 -0.0539178 0)
(-1.0498 -0.0540568 0)
(-0.993199 -0.0541478 -4.04351e-20)
(-0.936057 -0.0541924 0)
(-0.878418 -0.0541921 0)
(-0.820324 -0.0541488 9.64637e-20)
(-0.761814 -0.0540646 0)
(-0.702928 -0.0539414 5.24019e-20)
(-0.643703 -0.0537815 -5.58063e-20)
(-0.584175 -0.0535869 0)
(-0.52438 -0.0533602 5.92767e-20)
(-0.46435 -0.0531036 0)
(-0.404117 -0.0528193 0)
(-0.343709 -0.0525097 -6.69262e-20)
(-0.283156 -0.0521768 1.37058e-19)
(-0.222482 -0.051822 -7.11381e-20)
(-0.161713 -0.0514461 0)
(-0.100873 -0.0510478 0)
(-0.0399836 -0.0506256 7.61723e-20)
(0.0209311 -0.050175 0)
(0.0818462 -0.0496945 7.89597e-20)
(0.142746 -0.0491928 0)
(0.203612 -0.0486647 0)
(0.264434 -0.0481023 0)
(0.325237 -0.0475351 8.39111e-20)
(0.386009 -0.046984 0)
(0.446743 -0.0464457 -8.56537e-20)
(0.507429 -0.0459071 0)
(0.568039 -0.0453486 0)
(0.628516 -0.0447396 1.74968e-19)
(0.688751 -0.0440281 -1.76285e-19)
(0.748552 -0.0431134 0)
(0.807483 -0.0418005 0)
(0.865092 -0.0395868 0)
(0.91883 -0.0355146 5.44042e-19)
(0.97126 -0.0263195 0)
(1.00175 -0.0040537 -3.70121e-19)
(5.05056e-05 -0.0328254 -4.78391e-23)
(-0.00428181 -0.0174542 1.28722e-19)
(-0.011576 0.000326143 0)
(-0.0200357 0.0162703 -1.09834e-19)
(-0.0297172 0.0303729 0)
(-0.0404736 0.0425614 0)
(-0.0523222 0.0528138 1.13026e-23)
(-0.0653364 0.0612437 4.72551e-20)
(-0.0795539 0.0680955 4.60534e-20)
(-0.0949527 0.0736793 4.49574e-20)
(-0.111469 0.0783026 0)
(-0.129024 0.0822281 0)
(-0.14754 0.0856595 -4.19404e-20)
(-0.166953 0.0887441 -8.20565e-20)
(-0.187212 0.0915831 8.03189e-20)
(-0.208282 0.0942438 0)
(-0.230142 0.0967708 7.71009e-20)
(-0.25278 0.099194 -3.78233e-20)
(-0.276196 0.101535 0)
(-0.300396 0.10381 7.28949e-20)
(-0.325392 0.106035 3.58411e-20)
(-0.351203 0.108226 -7.04856e-20)
(-0.377853 0.110404 -3.47133e-20)
(-0.405371 0.112595 0)
(-0.433787 0.11483 6.74373e-20)
(-0.463126 0.117146 6.65664e-20)
(-0.493403 0.119564 0)
(-0.524619 0.12208 6.50211e-20)
(-0.556777 0.124664 0)
(-0.589904 0.127311 6.36905e-20)
(-0.623972 0.13011 3.15619e-20)
(-0.658689 0.13315 0)
(-0.693738 0.136184 0)
(-0.729252 0.138683 0)
(-0.765381 0.140636 0)
(-0.801952 0.142512 0)
(-0.838554 0.144302 0)
(-0.874911 0.145881 5.89095e-20)
(-0.911085 0.147029 -8.73668e-20)
(-0.946844 0.148043 0)
(-0.981504 0.14878 0)
(-1.01523 0.147873 0)
(-1.04927 0.145552 2.52127e-23)
(-1.08415 0.143325 5.48647e-20)
(-1.11917 0.141819 1.08287e-19)
(-1.15372 0.140712 -1.06926e-19)
(-1.18773 0.139618 -5.27639e-20)
(-1.22137 0.138466 5.21983e-20)
(-1.25472 0.137225 -8.00113e-23)
(-1.28782 0.135889 5.08852e-20)
(-1.32072 0.134465 0)
(-1.35343 0.132962 4.97158e-20)
(-1.38595 0.131389 -8.71704e-23)
(-1.41829 0.129752 0)
(-1.45044 0.128056 0)
(-1.48239 0.126304 -4.75483e-20)
(-1.51412 0.124497 0)
(-1.54562 0.122635 0)
(-1.57688 0.120719 4.59508e-20)
(-1.60787 0.118746 9.11266e-20)
(-1.63858 0.116715 -4.51849e-20)
(-1.66898 0.114626 0)
(-1.69905 0.112476 4.42573e-20)
(-1.72876 0.110265 0)
(-1.75809 0.107991 4.31605e-20)
(-1.78702 0.105654 4.29041e-20)
(-1.81552 0.103253 -8.47325e-20)
(-1.84355 0.100789 -4.18328e-20)
(-1.8711 0.0982613 0)
(-1.89813 0.0956713 8.20974e-20)
(-1.92461 0.0930197 0)
(-1.95052 0.0903079 1.20606e-19)
(-1.97582 0.0875376 7.9468e-20)
(-2.00048 0.0847106 7.85864e-20)
(-2.02448 0.0818292 -7.77e-20)
(-2.04778 0.0788958 1.15288e-19)
(-2.07035 0.0759129 0)
(-2.09217 0.0728833 0)
(-2.1132 0.0698099 -7.40809e-20)
(-2.13342 0.0666956 -1.09792e-19)
(-2.15279 0.0635433 0)
(-2.17129 0.0603561 3.56855e-20)
(-2.18889 0.0571367 0)
(-2.20556 0.0538882 -1.04005e-19)
(-2.22128 0.0506129 -9.11245e-23)
(-2.23601 0.0473136 8.25543e-23)
(-2.24974 0.0439924 6.62499e-20)
(-2.26243 0.0406513 0)
(-2.27407 0.0372921 -6.4121e-20)
(-2.28463 0.0339165 -4.56212e-23)
(-2.2941 0.0305261 0)
(-2.30244 0.0271225 0)
(-2.30965 0.0237081 0)
(-2.31572 0.0202862 5.84329e-20)
(-2.32063 0.0168624 0)
(-2.32438 0.0134456 0)
(-2.32697 0.0100494 0)
(-2.3284 0.00669221 0)
(-2.32865 0.00339209 0)
(-2.3277 0.000152287 5.07801e-20)
(-2.32547 -0.00305618 0)
(-2.3219 -0.00625349 4.79209e-20)
(-2.31698 -0.00943285 4.64843e-20)
(-2.31067 -0.0125909 -4.50222e-20)
(-2.30296 -0.0157242 0)
(-2.29384 -0.0188292 -4.20215e-20)
(-2.28329 -0.021902 0)
(-2.27131 -0.0249387 -3.89199e-20)
(-2.25788 -0.0279353 3.73321e-20)
(-2.243 -0.030888 1.07517e-19)
(-2.22667 -0.033793 0)
(-2.20888 -0.0366468 9.76774e-20)
(-2.18964 -0.0394459 3.11682e-20)
(-2.16894 -0.0421871 0)
(-2.14679 -0.044867 5.50978e-20)
(-2.12319 -0.0474828 5.16281e-20)
(-2.09816 -0.0500315 -7.19219e-20)
(-2.07169 -0.0525103 0)
(-2.04381 -0.0549166 -2.02171e-20)
(-2.01452 -0.0572477 -1.8398e-20)
(-1.98384 -0.0595012 -5.02798e-20)
(-1.95178 -0.061675 0)
(-1.91837 -0.063767 0)
(-1.88362 -0.0657755 0)
(-1.84756 -0.0676987 -9.74636e-21)
(-1.8102 -0.0695354 0)
(-1.77158 -0.0712841 0)
(-1.73172 -0.0729437 3.36366e-21)
(-1.69065 -0.074513 1.44194e-21)
(-1.6484 -0.0759911 0)
(-1.60501 -0.0773775 0)
(-1.56049 -0.0786715 -8.69841e-21)
(-1.51489 -0.0798731 0)
(-1.46825 -0.0809824 1.64365e-20)
(-1.4206 -0.0819996 1.95132e-20)
(-1.37197 -0.082925 0)
(-1.32241 -0.0837591 0)
(-1.27195 -0.0845024 -3.10433e-20)
(-1.22064 -0.0851563 -8.18212e-22)
(-1.16851 -0.0857219 -8.23402e-22)
(-1.11561 -0.0862008 0)
(-1.06198 -0.0865945 -9.32795e-20)
(-1.00766 -0.0869048 0)
(-0.952693 -0.0871337 0)
(-0.897118 -0.0872837 0)
(-0.840977 -0.0873572 6.18724e-20)
(-0.784312 -0.0873569 0)
(-0.727163 -0.0872855 -1.36505e-19)
(-0.66957 -0.0871462 -7.26423e-20)
(-0.611573 -0.0869423 0)
(-0.553208 -0.086677 -7.96267e-20)
(-0.494513 -0.0863539 0)
(-0.435522 -0.0859769 0)
(-0.37627 -0.0855495 -2.67678e-19)
(-0.316789 -0.0850756 1.84488e-19)
(-0.257108 -0.084559 0)
(-0.197257 -0.0840034 1.97348e-19)
(-0.137262 -0.0834118 -1.02606e-19)
(-0.077147 -0.082787 0)
(-0.0169357 -0.0821315 0)
(0.0433505 -0.0814465 0)
(0.103691 -0.0807317 -3.37832e-19)
(0.164069 -0.0799855 0)
(0.224467 -0.0792089 -1.16963e-19)
(0.284878 -0.0784099 0)
(0.345306 -0.0776012 0)
(0.405771 -0.0767925 0)
(0.466266 -0.0759906 0)
(0.526775 -0.0752012 0)
(0.587281 -0.0744182 0)
(0.647763 -0.0736246 -2.5579e-19)
(0.708188 -0.072792 0)
(0.768498 -0.0718735 -1.31249e-19)
(0.828585 -0.0707886 3.96286e-19)
(0.888273 -0.0693881 0)
(0.947197 -0.0673884 0)
(1.00501 -0.0641717 -2.70893e-19)
(1.06002 -0.0585602 -2.74422e-19)
(1.11487 -0.0476012 2.76423e-19)
(1.15754 -0.0249889 2.8124e-19)
(-0.00378071 -0.0219528 -2.05088e-19)
(-0.01307 0.000778924 -1.88171e-19)
(-0.023869 0.0211468 -1.12393e-19)
(-0.0354195 0.0386901 -5.15589e-20)
(-0.0477177 0.0541856 0)
(-0.0605904 0.0678306 9.26214e-20)
(-0.0740916 0.0796999 -4.46468e-20)
(-0.0883414 0.0898917 0)
(-0.103438 0.0985721 -4.21652e-20)
(-0.119437 0.105962 0)
(-0.136353 0.112305 8.03332e-20)
(-0.154172 0.11783 0)
(-0.172868 0.122738 3.84195e-20)
(-0.192408 0.127186 7.52221e-20)
(-0.212762 0.131297 -7.36858e-20)
(-0.233907 0.13516 0)
(-0.255826 0.13884 -7.0842e-20)
(-0.278509 0.142384 0)
(-0.301952 0.145828 0)
(-0.326155 0.149199 -6.71096e-20)
(-0.351121 0.152521 0)
(-0.376854 0.155816 3.967e-24)
(-0.403356 0.159102 0)
(-0.430626 0.1624 0)
(-0.458655 0.165727 -4.05254e-24)
(-0.487419 0.169091 -6.12917e-20)
(-0.516879 0.172486 -6.0491e-20)
(-0.54698 0.175879 -5.97335e-20)
(-0.577656 0.179219 0)
(-0.608837 0.182457 -1.16564e-19)
(-0.640421 0.185569 0)
(-0.67224 0.188525 -5.68847e-20)
(-0.704119 0.191175 0)
(-0.736003 0.193306 0)
(-0.767913 0.194905 5.48033e-20)
(-0.799789 0.196113 0)
(-0.831507 0.196974 -5.3376e-20)
(-0.862974 0.197462 -1.41979e-23)
(-0.894155 0.197548 1.03908e-19)
(-0.925006 0.197318 -1.02469e-19)
(-0.955441 0.196752 0)
(-0.985573 0.19551 0)
(-1.01572 0.193602 -4.91486e-20)
(-1.04605 0.191496 0)
(-1.07643 0.189494 -4.78403e-20)
(-1.10669 0.187607 4.72014e-20)
(-1.1368 0.185747 4.65805e-20)
(-1.16676 0.183874 0)
(-1.19659 0.181963 -4.53905e-20)
(-1.22629 0.18 -4.48201e-20)
(-1.25588 0.177979 8.8463e-20)
(-1.28536 0.175897 -4.37246e-20)
(-1.31473 0.173753 -4.31982e-20)
(-1.34399 0.171546 0)
(-1.37312 0.169276 0)