# Forces          
# CofR            : (0.0000000000e+00 0.0000000000e+00 0.0000000000e+00)
# Time            forces(pressure viscous)	moments(pressure viscous)
1                 	((0.0000000000e+00 -1.1366130000e+00 0.0000000000e+00) (2.0878532703e-02 7.3371384121e-11 0.0000000000e+00)) ((0.0000000000e+00 0.0000000000e+00 0.0000000000e+00) (0.0000000000e+00 0.0000000000e+00 5.4124154152e-07))
