#           y            Uf            nu         nuEff             k       epsilon           Rff           Rww           Rfw             u             v             w            uv      gammaDot
  2.80937e-05      0.644993         1e-05   1.00037e-05    0.00828898       56.5604    0.00552599    0.00552599  -8.41169e-05      0.074337      0.074337      0.074337  -8.41169e-05       22677.9
  8.78022e-05        1.9823         1e-05   1.05035e-05      0.158581       340.349      0.105721      0.105721    -0.0100415      0.325148      0.325148      0.325148    -0.0100415       19944.5
  0.000154994       3.15761         1e-05   1.60055e-05      0.485386       857.134      0.323591      0.323591    -0.0854421       0.56885       0.56885       0.56885    -0.0854421       14227.3
  0.000230608       3.98655         1e-05   2.63156e-05      0.671116       983.729       0.44741       0.44741     -0.145969      0.668887      0.668887      0.668887     -0.145969       8946.59
  0.000315699       4.57626         1e-05   4.03761e-05        0.7414       851.864      0.494267      0.494267     -0.176251      0.703041      0.703041      0.703041     -0.176251       5802.29
  0.000411455       5.02384         1e-05   5.81203e-05      0.764935       687.166      0.509956      0.509956     -0.192845      0.714112      0.714112      0.714112     -0.192845       4007.55
  0.000519212       5.38385         1e-05   7.91292e-05      0.770139       549.293      0.513426      0.513426     -0.202095      0.716537      0.716537      0.716537     -0.202095       2923.43
  0.000640475       5.68773         1e-05    0.00010313      0.768161       442.749      0.512107      0.512107      -0.20754      0.715617      0.715617      0.715617      -0.20754        2228.5
  0.000776937       5.95397         1e-05   0.000130029      0.763403       361.247      0.508936      0.508936      -0.21088      0.713397      0.713397      0.713397      -0.21088       1756.91
  0.000930502       6.19396         1e-05   0.000159888      0.757644       298.268      0.505096      0.505096     -0.212964      0.710701      0.710701      0.710701     -0.212964       1420.82
   0.00110331       6.41496         1e-05   0.000192879      0.751594       248.848      0.501063      0.501063     -0.214232      0.707858      0.707858      0.707858     -0.214232       1171.44
   0.00129779       6.62188         1e-05   0.000229246      0.745509       209.457      0.497006      0.497006     -0.214928      0.704987      0.704987      0.704987     -0.214928       980.304
   0.00151663        6.8181         1e-05    0.00026928      0.739444       177.606      0.492962      0.492962     -0.215189      0.702113      0.702113      0.702113     -0.215189        829.95
   0.00176291       7.00608         1e-05   0.000313302       0.73336       151.526      0.488907      0.488907     -0.215098      0.699219      0.699219      0.699219     -0.215098       709.188
   0.00204005       7.18763         1e-05   0.000361653      0.727177       129.936      0.484785      0.484785     -0.214702      0.696265      0.696265      0.696265     -0.214702       610.551
   0.00235193       7.36416         1e-05   0.000414677      0.720795       111.893       0.48053       0.48053     -0.214025      0.693203      0.693203      0.693203     -0.214025       528.879
    0.0027029       7.53675         1e-05   0.000472716      0.714103       96.6893      0.476069      0.476069     -0.213078      0.689978      0.689978      0.689978     -0.213078       460.495
   0.00309785       7.70628         1e-05   0.000536092      0.706988       83.7865      0.471325      0.471325     -0.211858      0.686531      0.686531      0.686531     -0.211858       402.703
   0.00354231       7.87347         1e-05   0.000605098      0.699329       72.7675      0.466219      0.466219     -0.210356      0.682803      0.682803      0.682803     -0.210356       353.481
   0.00404248       8.03892         1e-05    0.00067998      0.691005       63.3046       0.46067       0.46067     -0.208552      0.678727      0.678727      0.678727     -0.208552        311.28
   0.00460533       8.20314         1e-05   0.000760917      0.681887       55.1378      0.454592      0.454592     -0.206421      0.674234      0.674234      0.674234     -0.206421       274.892
   0.00523873       8.36657         1e-05   0.000847997      0.671844       48.0579      0.447896      0.447896     -0.203933       0.66925       0.66925       0.66925     -0.203933       243.357
   0.00595151       8.52958         1e-05   0.000941189      0.660734        41.895      0.440489      0.440489     -0.201048      0.663694      0.663694      0.663694     -0.201048       215.904
   0.00675364        8.6925         1e-05    0.00104031      0.648408       36.5102      0.432272      0.432272     -0.197722      0.657474      0.657474      0.657474     -0.197722       191.906
    0.0076563       8.85561         1e-05    0.00114498      0.634706       31.7886      0.423137      0.423137     -0.193904       0.65049       0.65049       0.65049     -0.193904       170.844
   0.00867209       9.01914         1e-05    0.00125459      0.619458       27.6347      0.412972      0.412972     -0.189536      0.642629      0.642629      0.642629     -0.189536       152.288
    0.0098152       9.18328         1e-05    0.00136825      0.602479       23.9684      0.401653      0.401653     -0.184551      0.633761      0.633761      0.633761     -0.184551       135.874
    0.0111016       9.34814         1e-05    0.00148472      0.583576       20.7225      0.389051      0.389051     -0.178874      0.623739      0.623739      0.623739     -0.178874       121.294
    0.0125492       9.51379         1e-05    0.00160237      0.562539         17.84      0.375026      0.375026      -0.17242      0.612394      0.612394      0.612394      -0.17242       108.279
    0.0141782       9.68017         1e-05    0.00171918      0.539156       15.2727      0.359437      0.359437     -0.165095      0.599531      0.599531      0.599531     -0.165095       96.5933
    0.0160115       9.84709         1e-05    0.00183266      0.513212       12.9801      0.342141      0.342141     -0.156791      0.584928      0.584928      0.584928     -0.156791       86.0232
    0.0180745       10.0142         1e-05    0.00193998      0.484512       10.9278      0.323008      0.323008     -0.147386      0.568338      0.568338      0.568338     -0.147386       76.3667
     0.020396       10.1807         1e-05    0.00203815      0.452914       9.08823      0.301942      0.301942     -0.136744      0.549493      0.549493      0.549493     -0.136744       67.4232
    0.0230086       10.3456         1e-05    0.00212445      0.418393       7.44002      0.278929      0.278929      -0.12471      0.528137      0.528137      0.528137      -0.12471       58.9798
    0.0259485       10.5069         1e-05    0.00219737      0.381166       5.96965       0.25411       0.25411      -0.11111      0.504094      0.504094      0.504094      -0.11111       50.7962
     0.029257       10.6615         1e-05    0.00225822      0.341908       4.67362      0.227938      0.227938    -0.0957611      0.477429      0.477429      0.477429    -0.0957611       42.5941
    0.0329801       10.8046         1e-05    0.00231353      0.302117        3.5617      0.201411      0.201411    -0.0784901      0.448789      0.448789      0.448789    -0.0784901       34.0738
    0.0371699       10.9291         1e-05    0.00237617      0.264584       2.65956      0.176389      0.176389    -0.0591599      0.419987      0.419987      0.419987    -0.0591599       25.0024
    0.0418848       11.0248         1e-05    0.00245692      0.233684       2.00631      0.155789      0.155789    -0.0375543      0.394701      0.394701      0.394701    -0.0375543       15.3476
    0.0471906       11.0799         1e-05    0.00253355      0.215061       1.64779      0.143374      0.143374    -0.0130357      0.378648      0.378648      0.378648    -0.0130357       5.16564
    0.0528094       11.0796         1e-05    0.00253389      0.215194        1.6496      0.143463      0.143463     0.0133145      0.378764      0.378764      0.378764     0.0133145       5.27537
    0.0581152       11.0239         1e-05    0.00245823      0.234051       2.01156      0.156034      0.156034     0.0378272      0.395012      0.395012      0.395012     0.0378272       15.4508
    0.0628301       10.9277         1e-05     0.0023785       0.26512       2.66773      0.176747      0.176747     0.0594292      0.420412      0.420412      0.420412     0.0594292       25.0916
    0.0670199        10.803         1e-05    0.00231652      0.302753        3.5721      0.201835      0.201835     0.0787542      0.449261      0.449261      0.449261     0.0787542       34.1442
     0.070743       10.6596         1e-05    0.00226147       0.34259       4.68557      0.228394      0.228394     0.0960169      0.477905      0.477905      0.477905     0.0960169       42.6464
    0.0740515       10.5048         1e-05    0.00220059       0.38186       5.98264      0.254574      0.254574      0.111356      0.504553      0.504553      0.504553      0.111356       50.8336
    0.0769914       10.3434         1e-05     0.0021275      0.419079        7.4537      0.279386      0.279386      0.124944       0.52857       0.52857       0.52857      0.124944       59.0055
     0.079604       10.1785         1e-05    0.00204096      0.453578       9.10236      0.302386      0.302386      0.136967      0.549896      0.549896      0.549896      0.136967       67.4396
    0.0819255       10.0119         1e-05    0.00194252      0.485148       10.9422      0.323432      0.323432      0.147597      0.568711      0.568711      0.568711      0.147597       76.3753
    0.0839885       9.84485         1e-05    0.00183492      0.513815       12.9945      0.342544      0.342544      0.156989      0.585272      0.585272      0.585272      0.156989       86.0249
    0.0858218       9.67793         1e-05    0.00172118      0.539724       15.2871      0.359816      0.359816       0.16528      0.599847      0.599847      0.599847       0.16528       96.5883
    0.0874508       9.51156         1e-05    0.00160414      0.563071        17.854      0.375381      0.375381      0.172592      0.612683      0.612683      0.612683      0.172592       108.267
    0.0888984       9.34594         1e-05    0.00148625      0.584069        20.736      0.389379      0.389379      0.179033      0.624003      0.624003      0.624003      0.179033       121.275
    0.0901848       9.18111         1e-05    0.00136958      0.602934       23.9812      0.401956      0.401956      0.184697         0.634         0.634         0.634      0.184697       135.848
    0.0913279       9.01701         1e-05    0.00125574      0.619873       27.6464      0.413249      0.413249      0.189669      0.642844      0.642844      0.642844      0.189669       152.253
    0.0923437       8.85351         1e-05    0.00114597      0.635082       31.7989      0.423388      0.423388      0.194023      0.650683      0.650683      0.650683      0.194023         170.8
    0.0932464       8.69045         1e-05    0.00104115      0.648744       36.5187      0.432496      0.432496      0.197828      0.657644      0.657644      0.657644      0.197828       191.852
    0.0940485       8.52758         1e-05   0.000941901      0.661032       41.9011      0.440688      0.440688       0.20114      0.663843      0.663843      0.663843       0.20114       215.839
    0.0947613       8.36461         1e-05   0.000848596      0.672103       48.0611      0.448069      0.448069      0.204012      0.669379      0.669379      0.669379      0.204012       243.278
    0.0953947       8.20124         1e-05   0.000761417      0.682109       55.1377      0.454739      0.454739      0.206488      0.674343      0.674343      0.674343      0.206488       274.798
    0.0959575       8.03708         1e-05   0.000680393      0.691189       63.3003      0.460793      0.460793      0.208606      0.678817      0.678817      0.678817      0.208606        311.17
    0.0964577       7.87168         1e-05   0.000605435      0.699477       72.7582      0.466318      0.466318      0.210398      0.682875      0.682875      0.682875      0.210398       353.352
    0.0969021       7.70456         1e-05   0.000536364        0.7071       83.7714        0.4714        0.4714      0.211889      0.686586      0.686586      0.686586      0.211889       402.553
    0.0972971       7.53509         1e-05   0.000472933      0.714182       96.6672      0.476121      0.476121      0.213098      0.690015      0.690015      0.690015      0.213098       460.322
    0.0976481       7.36256         1e-05   0.000414848      0.720841       111.863      0.480561      0.480561      0.214035      0.693225      0.693225      0.693225      0.214035       528.681
      0.09796       7.18611         1e-05   0.000361784      0.727192       129.896      0.484795      0.484795      0.214702      0.696272      0.696272      0.696272      0.214702       610.324
    0.0982371       7.00462         1e-05   0.000313401      0.733345       151.475      0.488897      0.488897       0.21509      0.699211      0.699211      0.699211       0.21509       708.929
    0.0984834       6.81671         1e-05   0.000269351      0.739401       177.542      0.492934      0.492934      0.215172      0.702092      0.702092      0.702092      0.215172       829.655
    0.0987022       6.62056         1e-05   0.000229296       0.74544       209.376       0.49696       0.49696      0.214904      0.704954      0.704954      0.704954      0.214904        979.97
    0.0988967       6.41371         1e-05   0.000192912        0.7515       248.748         0.501         0.501      0.214202      0.707814      0.707814      0.707814      0.214202       1171.06
    0.0990695       6.19277         1e-05   0.000159907      0.757527       298.145      0.505018      0.505018      0.212928      0.710646      0.710646      0.710646      0.212928       1420.39
    0.0992231       5.95286         1e-05   0.000130038      0.763266       361.096      0.508844      0.508844      0.210839      0.713333      0.713333      0.713333      0.210839       1756.44
    0.0993595       5.68668         1e-05   0.000103132      0.768005       442.562      0.512003      0.512003      0.207495      0.715544      0.715544      0.715544      0.207495       2227.97
    0.0994808       5.38287         1e-05   7.91267e-05      0.769965       549.059       0.51331       0.51331      0.202046      0.716457      0.716457      0.716457      0.202046       2922.84
    0.0995885       5.02292         1e-05   5.81155e-05      0.764746       686.871       0.50983       0.50983      0.192794      0.714024      0.714024      0.714024      0.192794        4006.9
    0.0996843       4.57541         1e-05   4.03709e-05      0.741197       851.482      0.494132      0.494132      0.176198      0.702945      0.702945      0.702945      0.176198       5801.54
    0.0997694       3.98577         1e-05   2.63116e-05      0.670902       983.232      0.447268      0.447268      0.145917      0.668781      0.668781      0.668781      0.145917        8945.6
     0.099845       3.15692         1e-05    1.6003e-05      0.485178       856.578      0.323452      0.323452     0.0853946      0.568728      0.568728      0.568728     0.0853946       14225.3
    0.0999122       1.98179         1e-05   1.05031e-05       0.15849       340.095       0.10566       0.10566     0.0100326      0.325054      0.325054      0.325054     0.0100326       19940.3
    0.0999719      0.644822         1e-05   1.00037e-05    0.00828413       56.5208    0.00552275    0.00552275   8.40551e-05     0.0743152     0.0743152     0.0743152   8.40551e-05       22672.1
