/*--------------------------------*- C++ -*----------------------------------*\
  =========                 |
  \\      /  F ield         | OpenFOAM: The Open Source CFD Toolbox
   \\    /   O peration     | Website:  https://openfoam.org
    \\  /    A nd           | Version:  12
     \\/     M anipulation  |
\*---------------------------------------------------------------------------*/
FoamFile
{
    format      ascii;
    class       volVectorField;
    location    "3.9";
    object      zeta;
}
// * * * * * * * * * * * * * * * * * * * * * * * * * * * * * * * * * * * * * //

dimensions      [0 1 0 0 0 0 0];

internalField   uniform (0 0 0);

boundaryField
{
    freeSurface
    {
        type            calculated;
        value           nonuniform List<vector> 
181
(
(0 0.00225597 0)
(0 0.00225612 0)
(0 0.00225596 0)
(0 0.00225568 0)
(0 0.0022554 0)
(0 0.0022551 0)
(0 0.00225483 0)
(0 0.00225462 0)
(0 0.000493146 0)
(0 0.000492249 0)
(0 0.000493809 0)
(0 0.000495159 0)
(0 0.000495858 0)
(0 0.000496557 0)
(0 0.000496698 0)
(0 0.000496099 0)
(0 0.000494339 0)
(0 0.000491144 0)
(0 0.000486286 0)
(0 0.000479596 0)
(0 0.000470896 0)
(0 0.000460002 0)
(0 0.000446896 0)
(0 0.00043141 0)
(0 0.000413495 0)
(0 0.000393115 0)
(0 0.000370313 0)
(0 0.000345155 0)
(0 0.000317763 0)
(0 0.000288274 0)
(0 0.000256838 0)
(0 0.000223691 0)
(0 0.000189029 0)
(0 0.000153128 0)
(0 0.000116279 0)
(0 7.8785e-05 0)
(0 4.09997e-05 0)
(0 3.28015e-06 0)
(0 -3.39974e-05 0)
(0 -7.04596e-05 0)
(0 -0.000105723 0)
(0 -0.000139384 0)
(0 -0.00017104 0)
(0 -0.000200306 0)
(0 -0.000226826 0)
(0 -0.000250248 0)
(0 -0.000270261 0)
(0 -0.000286559 0)
(0 -0.000298947 0)
(0 -0.000307169 0)
(0 -0.000311127 0)
(0 -0.000310722 0)
(0 -0.000305915 0)
(0 -0.000296761 0)
(0 -0.000283374 0)
(0 -0.000265922 0)
(0 -0.000244669 0)
(0 -0.000219936 0)
(0 -0.000192116 0)
(0 -0.000161664 0)
(0 -0.000129108 0)
(0 -9.50072e-05 0)
(0 -5.99758e-05 0)
(0 -2.46405e-05 0)
(0 1.03107e-05 0)
(0 4.42502e-05 0)
(0 7.64892e-05 0)
(0 0.000106398 0)
(0 0.000133378 0)
(0 0.000156849 0)
(0 0.00017631 0)
(0 0.000191301 0)
(0 0.000201555 0)
(0 0.000206835 0)
(0 0.000207037 0)
(0 0.000202234 0)
(0 0.000192647 0)
(0 0.000178615 0)
(0 0.000160665 0)
(0 0.000139382 0)
(0 0.000115479 0)
(0 8.97238e-05 0)
(0 6.29418e-05 0)
(0 3.59216e-05 0)
(0 9.41916e-06 0)
(0 -1.58391e-05 0)
(0 -3.91916e-05 0)
(0 -6.01558e-05 0)
(0 -7.82999e-05 0)
(0 -9.33438e-05 0)
(0 -0.000105112 0)
(0 -0.000113565 0)
(0 -0.000118746 0)
(0 -0.000120811 0)
(0 -0.00011999 0)
(0 -0.000116561 0)
(0 -0.000110881 0)
(0 -0.000103303 0)
(0 -9.4216e-05 0)
(0 -8.39945e-05 0)
(0 -7.30002e-05 0)
(0 -6.15843e-05 0)
(0 -5.0061e-05 0)
(0 -3.8722e-05 0)
(0 -2.77924e-05 0)
(0 -1.74864e-05 0)
(0 -7.98497e-06 0)
(0 5.83197e-07 0)
(0 8.12458e-06 0)
(0 1.45821e-05 0)
(0 1.99337e-05 0)
(0 2.41789e-05 0)
(0 2.7347e-05 0)
(0 2.94782e-05 0)
(0 3.0638e-05 0)
(0 3.09011e-05 0)
(0 3.03493e-05 0)
(0 2.9075e-05 0)
(0 2.71675e-05 0)
(0 2.47214e-05 0)
(0 2.18316e-05 0)
(0 1.85918e-05 0)
(0 1.5092e-05 0)
(0 1.14161e-05 0)
(0 7.64546e-06 0)
(0 3.85828e-06 0)
(0 1.22535e-07 0)
(0 -3.5027e-06 0)
(0 -6.96741e-06 0)
(0 -1.02266e-05 0)
(0 -1.3241e-05 0)
(0 -1.59784e-05 0)
(0 -1.84153e-05 0)
(0 -2.05372e-05 0)
(0 -2.23368e-05 0)
(0 -2.38135e-05 0)
(0 -2.49698e-05 0)
(0 -2.58116e-05 0)
(0 -2.63503e-05 0)
(0 -2.66023e-05 0)
(0 -2.6585e-05 0)
(0 -2.63196e-05 0)
(0 -2.58289e-05 0)
(0 -2.51371e-05 0)
(0 -2.42689e-05 0)
(0 -2.32485e-05 0)
(0 -2.21011e-05 0)
(0 -2.08545e-05 0)
(0 -1.95381e-05 0)
(0 -1.81825e-05 0)
(0 -1.68159e-05 0)
(0 -1.54619e-05 0)
(0 -1.41395e-05 0)
(0 -1.28649e-05 0)
(0 -1.16547e-05 0)
(0 -1.05244e-05 0)
(0 -9.48904e-06 0)
(0 -8.55986e-06 0)
(0 -7.74502e-06 0)
(0 -7.04797e-06 0)
(0 -6.47031e-06 0)
(0 -6.00785e-06 0)
(0 -5.65334e-06 0)
(0 -5.39827e-06 0)
(0 -5.23493e-06 0)
(0 -5.15982e-06 0)
(0 -5.17204e-06 0)
(0 -5.26826e-06 0)
(0 -5.43878e-06 0)
(0 -5.66538e-06 0)
(0 -5.9291e-06 0)
(0 -6.21611e-06 0)
(0 -6.52011e-06 0)
(0 -6.83416e-06 0)
(0 -7.14699e-06 0)
(0 -7.44125e-06 0)
(0 -7.70096e-06 0)
(0 -7.91657e-06 0)
(0 -8.08304e-06 0)
(0 -8.1965e-06 0)
(0 -8.25385e-06 0)
)
;
    }
    walls
    {
        type            calculated;
        value           uniform (0 0 0);
    }
    floatingObject
    {
        type            calculated;
        value           uniform (0 0 0);
    }
    frontAndBack
    {
        type            empty;
    }
}


// ************************************************************************* //
