/*--------------------------------*- C++ -*----------------------------------*\
  =========                 |
  \\      /  F ield         | OpenFOAM: The Open Source CFD Toolbox
   \\    /   O peration     | Website:  https://openfoam.org
    \\  /    A nd           | Version:  12
     \\/     M anipulation  |
\*---------------------------------------------------------------------------*/
FoamFile
{
    format      ascii;
    class       volScalarField;
    location    "13.86";
    object      p;
}
// * * * * * * * * * * * * * * * * * * * * * * * * * * * * * * * * * * * * * //

dimensions      [1 -1 -2 0 0 0 0];

internalField   nonuniform List<scalar> 
3829
(
-614.76
-614.76
-614.759
-614.758
-614.757
-614.755
-614.753
-614.75
-614.747
-614.744
-614.74
-614.736
-614.731
-614.725
-614.719
-614.713
-614.705
-614.697
-614.689
-614.68
-614.67
-614.66
-614.649
-614.637
-614.625
-614.613
-614.6
-614.587
-614.574
-614.561
-614.548
-614.536
-614.523
-614.512
-614.501
-614.491
-614.482
-614.475
-614.469
-614.464
-614.462
-614.461
-614.463
-614.467
-614.473
-614.481
-614.492
-614.505
-614.521
-614.539
-614.559
-614.581
-614.605
-614.631
-614.658
-614.686
-614.715
-614.745
-614.775
-614.804
-614.833
-614.861
-614.887
-614.911
-614.932
-614.95
-614.965
-614.976
-614.982
-614.984
-614.981
-614.973
-614.959
-614.939
-614.914
-614.884
-614.848
-614.807
-614.761
-614.712
-614.658
-614.602
-614.544
-614.484
-614.424
-614.365
-614.307
-614.252
-614.201
-614.154
-614.113
-614.079
-614.052
-614.033
-614.022
-614.021
-614.028
-614.045
-614.07
-614.103
-614.143
-614.188
-614.239
-614.292
-614.347
-614.402
-614.455
-614.503
-614.546
-614.581
-614.607
-614.623
-614.627
-614.62
-614.6
-614.569
-614.527
-614.475
-614.416
-614.352
-614.285
-614.218
-614.154
-614.096
-614.047
-614.009
-613.985
-613.976
-613.984
-614.008
-614.047
-614.101
-614.166
-614.239
-614.318
-614.397
-614.472
-614.539
-614.594
-614.633
-614.655
-614.657
-614.64
-614.604
-614.552
-614.489
-614.417
-614.341
-614.27
-614.206
-614.154
-614.118
-614.101
-614.103
-614.124
-614.159
-614.205
-614.258
-614.31
-614.357
-614.392
-614.414
-614.418
-614.405
-614.378
-614.339
-614.296
-614.251
-614.216
-614.193
-614.186
-614.198
-614.228
-614.273
-614.327
-614.383
-614.435
-614.474
-614.497
-614.5
-614.484
-614.451
-614.407
-614.36
-614.316
-614.282
-614.261
-614.256
-614.268
-614.291
-614.318
-614.344
-614.364
-614.374
-614.373
-614.363
-614.345
-614.324
-614.306
-614.296
-1773.16
-1773.16
-1773.16
-1773.15
-1773.15
-1773.15
-1773.15
-1773.15
-1773.15
-1773.14
-1773.14
-1773.14
-1773.13
-1773.13
-1773.12
-1773.11
-1773.11
-1773.1
-1773.09
-1773.08
-1773.07
-1773.05
-1773.04
-1773.02
-1773.01
-1772.99
-1772.97
-1772.96
-1772.94
-1772.92
-1772.9
-1772.88
-1772.86
-1772.84
-1772.83
-1772.81
-1772.8
-1772.78
-1772.77
-1772.76
-1772.76
-1772.76
-1772.76
-1772.76
-1772.77
-1772.78
-1772.79
-1772.81
-1772.83
-1772.85
-1772.88
-1772.9
-1772.93
-1772.97
-1773
-1773.04
-1773.08
-1773.12
-1773.16
-1773.2
-1773.23
-1773.27
-1773.3
-1773.34
-1773.37
-1773.39
-1773.41
-1773.43
-1773.44
-1773.44
-1773.44
-1773.43
-1773.42
-1773.4
-1773.37
-1773.33
-1773.29
-1773.24
-1773.18
-1773.13
-1773.06
-1772.99
-1772.92
-1772.85
-1772.78
-1772.71
-1772.64
-1772.57
-1772.51
-1772.46
-1772.41
-1772.37
-1772.34
-1772.31
-1772.3
-1772.3
-1772.31
-1772.34
-1772.37
-1772.41
-1772.46
-1772.52
-1772.59
-1772.65
-1772.72
-1772.79
-1772.86
-1772.92
-1772.97
-1773.02
-1773.05
-1773.07
-1773.08
-1773.07
-1773.04
-1773
-1772.95
-1772.89
-1772.81
-1772.73
-1772.65
-1772.57
-1772.49
-1772.42
-1772.36
-1772.31
-1772.28
-1772.27
-1772.28
-1772.31
-1772.36
-1772.42
-1772.5
-1772.59
-1772.69
-1772.78
-1772.87
-1772.95
-1773.02
-1773.07
-1773.09
-1773.09
-1773.07
-1773.02
-1772.96
-1772.88
-1772.79
-1772.7
-1772.62
-1772.54
-1772.48
-1772.44
-1772.42
-1772.43
-1772.46
-1772.5
-1772.56
-1772.63
-1772.69
-1772.75
-1772.79
-1772.82
-1772.82
-1772.8
-1772.77
-1772.72
-1772.66
-1772.61
-1772.56
-1772.53
-1772.52
-1772.54
-1772.57
-1772.63
-1772.69
-1772.76
-1772.82
-1772.87
-1772.89
-1772.9
-1772.88
-1772.84
-1772.78
-1772.73
-1772.67
-1772.63
-1772.61
-1772.61
-1772.62
-1772.65
-1772.69
-1772.72
-1772.74
-1772.75
-1772.75
-1772.74
-1772.72
-1772.69
-1772.67
-1772.66
-2799.36
-2799.36
-2799.36
-2799.36
-2799.36
-2799.36
-2799.36
-2799.36
-2799.36
-2799.36
-2799.36
-2799.36
-2799.36
-2799.36
-2799.35
-2799.35
-2799.34
-2799.33
-2799.32
-2799.31
-2799.29
-2799.28
-2799.26
-2799.24
-2799.21
-2799.19
-2799.16
-2799.13
-2799.1
-2799.07
-2799.04
-2799
-2798.97
-2798.94
-2798.91
-2798.89
-2798.86
-2798.84
-2798.82
-2798.8
-2798.79
-2798.78
-2798.78
-2798.78
-2798.79
-2798.8
-2798.82
-2798.84
-2798.87
-2798.9
-2798.93
-2798.97
-2799.02
-2799.07
-2799.12
-2799.17
-2799.23
-2799.28
-2799.34
-2799.4
-2799.45
-2799.51
-2799.56
-2799.61
-2799.65
-2799.69
-2799.72
-2799.74
-2799.76
-2799.77
-2799.77
-2799.76
-2799.74
-2799.72
-2799.68
-2799.63
-2799.58
-2799.52
-2799.45
-2799.37
-2799.28
-2799.19
-2799.1
-2799.01
-2798.91
-2798.82
-2798.73
-2798.64
-2798.56
-2798.49
-2798.42
-2798.37
-2798.33
-2798.31
-2798.3
-2798.3
-2798.32
-2798.35
-2798.4
-2798.46
-2798.53
-2798.61
-2798.7
-2798.8
-2798.9
-2798.99
-2799.08
-2799.17
-2799.24
-2799.3
-2799.35
-2799.38
-2799.38
-2799.37
-2799.34
-2799.28
-2799.21
-2799.13
-2799.03
-2798.92
-2798.81
-2798.69
-2798.59
-2798.49
-2798.41
-2798.34
-2798.3
-2798.29
-2798.3
-2798.34
-2798.41
-2798.5
-2798.6
-2798.72
-2798.85
-2798.98
-2799.1
-2799.2
-2799.29
-2799.35
-2799.38
-2799.38
-2799.34
-2799.28
-2799.19
-2799.08
-2798.97
-2798.84
-2798.73
-2798.63
-2798.56
-2798.51
-2798.49
-2798.5
-2798.55
-2798.61
-2798.7
-2798.79
-2798.88
-2798.96
-2799.01
-2799.05
-2799.05
-2799.02
-2798.97
-2798.9
-2798.82
-2798.74
-2798.68
-2798.64
-2798.63
-2798.64
-2798.69
-2798.76
-2798.85
-2798.94
-2799.01
-2799.07
-2799.11
-2799.11
-2799.08
-2799.02
-2798.95
-2798.88
-2798.81
-2798.76
-2798.74
-2798.74
-2798.76
-2798.81
-2798.85
-2798.89
-2798.92
-2798.94
-2798.93
-2798.91
-2798.88
-2798.85
-2798.82
-2798.8
-3708.41
-3708.41
-3708.42
-3708.42
-3708.43
-3708.44
-3708.44
-3708.46
-3708.47
-3708.48
-3708.49
-3708.5
-3708.5
-3708.51
-3708.52
-3708.52
-3708.51
-3708.51
-3708.5
-3708.48
-3708.46
-3708.44
-3708.41
-3708.38
-3708.34
-3708.3
-3708.25
-3708.2
-3708.15
-3708.09
-3708.04
-3707.98
-3707.93
-3707.87
-3707.82
-3707.77
-3707.73
-3707.69
-3707.66
-3707.63
-3707.61
-3707.6
-3707.59
-3707.59
-3707.6
-3707.62
-3707.64
-3707.67
-3707.71
-3707.76
-3707.81
-3707.87
-3707.94
-3708.01
-3708.08
-3708.16
-3708.25
-3708.33
-3708.41
-3708.5
-3708.58
-3708.66
-3708.73
-3708.8
-3708.87
-3708.92
-3708.97
-3709.01
-3709.04
-3709.05
-3709.06
-3709.05
-3709.03
-3708.99
-3708.94
-3708.88
-3708.81
-3708.73
-3708.63
-3708.53
-3708.41
-3708.29
-3708.17
-3708.04
-3707.91
-3707.78
-3707.66
-3707.54
-3707.43
-3707.34
-3707.25
-3707.19
-3707.14
-3707.11
-3707.09
-3707.1
-3707.13
-3707.18
-3707.25
-3707.34
-3707.44
-3707.56
-3707.68
-3707.82
-3707.95
-3708.09
-3708.22
-3708.33
-3708.44
-3708.52
-3708.59
-3708.63
-3708.64
-3708.62
-3708.57
-3708.5
-3708.4
-3708.28
-3708.14
-3707.99
-3707.83
-3707.68
-3707.53
-3707.4
-3707.28
-3707.2
-3707.14
-3707.12
-3707.14
-3707.2
-3707.29
-3707.41
-3707.55
-3707.72
-3707.89
-3708.06
-3708.22
-3708.37
-3708.48
-3708.56
-3708.6
-3708.59
-3708.54
-3708.45
-3708.33
-3708.18
-3708.02
-3707.85
-3707.7
-3707.57
-3707.47
-3707.41
-3707.39
-3707.42
-3707.48
-3707.58
-3707.7
-3707.83
-3707.96
-3708.06
-3708.14
-3708.18
-3708.18
-3708.14
-3708.06
-3707.96
-3707.85
-3707.75
-3707.66
-3707.6
-3707.58
-3707.6
-3707.67
-3707.76
-3707.88
-3708
-3708.1
-3708.18
-3708.22
-3708.22
-3708.17
-3708.1
-3708
-3707.9
-3707.82
-3707.75
-3707.73
-3707.73
-3707.76
-3707.83
-3707.89
-3707.95
-3707.99
-3708
-3708
-3707.97
-3707.92
-3707.88
-3707.84
-3707.82
-4513.64
-4513.64
-4513.65
-4513.67
-4513.69
-4513.72
-4513.74
-4513.78
-4513.81
-4513.85
-4513.88
-4513.92
-4513.95
-4513.98
-4514
-4514.02
-4514.03
-4514.04
-4514.03
-4514.02
-4513.99
-4513.96
-4513.92
-4513.86
-4513.8
-4513.73
-4513.66
-4513.57
-4513.48
-4513.39
-4513.3
-4513.21
-4513.11
-4513.03
-4512.94
-4512.87
-4512.8
-4512.73
-4512.68
-4512.63
-4512.59
-4512.57
-4512.56
-4512.56
-4512.57
-4512.59
-4512.63
-4512.67
-4512.73
-4512.8
-4512.88
-4512.97
-4513.06
-4513.17
-4513.28
-4513.39
-4513.51
-4513.63
-4513.75
-4513.87
-4513.99
-4514.1
-4514.21
-4514.31
-4514.4
-4514.48
-4514.55
-4514.6
-4514.64
-4514.67
-4514.67
-4514.67
-4514.64
-4514.59
-4514.53
-4514.45
-4514.35
-4514.24
-4514.11
-4513.97
-4513.82
-4513.65
-4513.49
-4513.31
-4513.14
-4512.97
-4512.8
-4512.65
-4512.51
-4512.38
-4512.27
-4512.18
-4512.12
-4512.08
-4512.07
-4512.08
-4512.13
-4512.2
-4512.3
-4512.42
-4512.56
-4512.73
-4512.9
-4513.08
-4513.27
-4513.46
-4513.63
-4513.79
-4513.93
-4514.05
-4514.13
-4514.19
-4514.2
-4514.18
-4514.11
-4514.01
-4513.88
-4513.71
-4513.52
-4513.32
-4513.11
-4512.9
-4512.7
-4512.52
-4512.36
-4512.25
-4512.17
-4512.14
-4512.17
-4512.25
-4512.37
-4512.54
-4512.73
-4512.95
-4513.19
-4513.42
-4513.63
-4513.82
-4513.97
-4514.07
-4514.13
-4514.1
-4514.03
-4513.9
-4513.74
-4513.54
-4513.32
-4513.1
-4512.9
-4512.72
-4512.6
-4512.52
-4512.51
-4512.55
-4512.65
-4512.78
-4512.95
-4513.13
-4513.3
-4513.45
-4513.55
-4513.6
-4513.59
-4513.53
-4513.43
-4513.29
-4513.13
-4512.98
-4512.86
-4512.78
-4512.76
-4512.79
-4512.87
-4513
-4513.16
-4513.32
-4513.45
-4513.55
-4513.6
-4513.59
-4513.53
-4513.43
-4513.3
-4513.17
-4513.06
-4512.98
-4512.95
-4512.97
-4513.02
-4513.1
-4513.19
-4513.26
-4513.31
-4513.33
-4513.32
-4513.28
-4513.22
-4513.16
-4513.11
-4513.08
-5226.82
-5226.83
-5226.85
-5226.88
-5226.92
-5226.98
-5227.05
-5227.12
-5227.21
-5227.29
-5227.38
-5227.47
-5227.56
-5227.63
-5227.7
-5227.76
-5227.8
-5227.83
-5227.84
-5227.83
-5227.8
-5227.75
-5227.68
-5227.59
-5227.49
-5227.37
-5227.24
-5227.09
-5226.94
-5226.79
-5226.63
-5226.48
-5226.33
-5226.19
-5226.05
-5225.93
-5225.82
-5225.72
-5225.64
-5225.58
-5225.53
-5225.5
-5225.49
-5225.49
-5225.51
-5225.55
-5225.6
-5225.67
-5225.76
-5225.86
-5225.97
-5226.1
-5226.23
-5226.38
-5226.53
-5226.69
-5226.86
-5227.02
-5227.19
-5227.35
-5227.51
-5227.67
-5227.82
-5227.95
-5228.08
-5228.19
-5228.28
-5228.36
-5228.42
-5228.45
-5228.46
-5228.45
-5228.42
-5228.36
-5228.28
-5228.17
-5228.04
-5227.89
-5227.73
-5227.54
-5227.34
-5227.12
-5226.9
-5226.67
-5226.45
-5226.22
-5226.01
-5225.8
-5225.62
-5225.45
-5225.31
-5225.2
-5225.11
-5225.07
-5225.06
-5225.08
-5225.14
-5225.24
-5225.38
-5225.55
-5225.74
-5225.96
-5226.19
-5226.44
-5226.69
-5226.94
-5227.17
-5227.39
-5227.57
-5227.73
-5227.84
-5227.9
-5227.91
-5227.88
-5227.8
-5227.67
-5227.49
-5227.27
-5227.02
-5226.75
-5226.47
-5226.19
-5225.92
-5225.68
-5225.48
-5225.33
-5225.23
-5225.2
-5225.24
-5225.34
-5225.5
-5225.72
-5225.98
-5226.27
-5226.58
-5226.88
-5227.16
-5227.4
-5227.59
-5227.72
-5227.77
-5227.75
-5227.65
-5227.48
-5227.26
-5226.99
-5226.71
-5226.42
-5226.16
-5225.93
-5225.77
-5225.68
-5225.67
-5225.73
-5225.87
-5226.06
-5226.29
-5226.53
-5226.76
-5226.95
-5227.08
-5227.14
-5227.13
-5227.04
-5226.89
-5226.7
-5226.5
-5226.3
-5226.14
-5226.03
-5226
-5226.04
-5226.15
-5226.32
-5226.52
-5226.73
-5226.91
-5227.04
-5227.1
-5227.08
-5226.99
-5226.86
-5226.69
-5226.52
-5226.38
-5226.29
-5226.25
-5226.28
-5226.35
-5226.46
-5226.58
-5226.67
-5226.73
-5226.76
-5226.73
-5226.68
-5226.6
-5226.52
-5226.46
-5226.42
-5858.33
-5858.36
-5858.41
-5858.5
-5858.61
-5858.74
-5858.9
-5859.06
-5859.24
-5859.43
-5859.62
-5859.8
-5859.97
-5860.13
-5860.26
-5860.37
-5860.45
-5860.5
-5860.52
-5860.51
-5860.46
-5860.38
-5860.26
-5860.11
-5859.94
-5859.73
-5859.5
-5859.26
-5859.01
-5858.76
-5858.51
-5858.27
-5858.04
-5857.83
-5857.63
-5857.46
-5857.31
-5857.18
-5857.07
-5856.98
-5856.92
-5856.89
-5856.88
-5856.89
-5856.93
-5856.99
-5857.07
-5857.17
-5857.29
-5857.43
-5857.59
-5857.76
-5857.95
-5858.15
-5858.35
-5858.57
-5858.79
-5859.01
-5859.23
-5859.45
-5859.66
-5859.87
-5860.06
-5860.24
-5860.4
-5860.55
-5860.67
-5860.77
-5860.85
-5860.89
-5860.91
-5860.9
-5860.86
-5860.78
-5860.68
-5860.54
-5860.37
-5860.18
-5859.96
-5859.72
-5859.46
-5859.19
-5858.9
-5858.61
-5858.32
-5858.03
-5857.76
-5857.5
-5857.26
-5857.05
-5856.87
-5856.73
-5856.62
-5856.57
-5856.56
-5856.59
-5856.68
-5856.81
-5856.99
-5857.21
-5857.46
-5857.75
-5858.06
-5858.38
-5858.7
-5859.02
-5859.33
-5859.6
-5859.85
-5860.04
-5860.18
-5860.27
-5860.28
-5860.24
-5860.13
-5859.96
-5859.72
-5859.44
-5859.12
-5858.77
-5858.4
-5858.04
-5857.7
-5857.39
-5857.14
-5856.94
-5856.83
-5856.8
-5856.84
-5856.97
-5857.18
-5857.45
-5857.79
-5858.16
-5858.56
-5858.94
-5859.3
-5859.61
-5859.85
-5860
-5860.06
-5860.03
-5859.9
-5859.68
-5859.38
-5859.04
-5858.67
-5858.31
-5857.97
-5857.69
-5857.49
-5857.38
-5857.38
-5857.47
-5857.65
-5857.9
-5858.2
-5858.52
-5858.81
-5859.05
-5859.22
-5859.3
-5859.27
-5859.16
-5858.96
-5858.71
-5858.44
-5858.18
-5857.97
-5857.84
-5857.79
-5857.85
-5858
-5858.22
-5858.47
-5858.74
-5858.97
-5859.12
-5859.19
-5859.16
-5859.05
-5858.87
-5858.66
-5858.44
-5858.27
-5858.16
-5858.12
-5858.16
-5858.26
-5858.41
-5858.55
-5858.67
-5858.75
-5858.77
-5858.74
-5858.66
-5858.57
-5858.47
-5858.39
-5858.34
-6417.14
-6417.19
-6417.27
-6417.41
-6417.58
-6417.8
-6418.06
-6418.37
-6418.69
-6419.04
-6419.38
-6419.72
-6420.04
-6420.34
-6420.61
-6420.84
-6421.03
-6421.17
-6421.25
-6421.27
-6421.23
-6421.12
-6420.96
-6420.73
-6420.44
-6420.11
-6419.74
-6419.35
-6418.95
-6418.55
-6418.17
-6417.81
-6417.48
-6417.18
-6416.92
-6416.68
-6416.48
-6416.32
-6416.19
-6416.1
-6416.04
-6416.01
-6416.01
-6416.05
-6416.11
-6416.2
-6416.32
-6416.46
-6416.63
-6416.82
-6417.03
-6417.26
-6417.5
-6417.76
-6418.03
-6418.31
-6418.59
-6418.88
-6419.16
-6419.44
-6419.71
-6419.97
-6420.22
-6420.45
-6420.66
-6420.84
-6421
-6421.13
-6421.22
-6421.28
-6421.3
-6421.29
-6421.23
-6421.14
-6421.01
-6420.84
-6420.63
-6420.39
-6420.11
-6419.81
-6419.48
-6419.14
-6418.78
-6418.42
-6418.05
-6417.69
-6417.35
-6417.02
-6416.73
-6416.46
-6416.24
-6416.07
-6415.94
-6415.88
-6415.87
-6415.92
-6416.03
-6416.2
-6416.43
-6416.71
-6417.03
-6417.39
-6417.78
-6418.19
-6418.6
-6419
-6419.39
-6419.74
-6420.04
-6420.28
-6420.46
-6420.57
-6420.59
-6420.53
-6420.39
-6420.17
-6419.87
-6419.51
-6419.1
-6418.66
-6418.2
-6417.75
-6417.32
-6416.94
-6416.62
-6416.38
-6416.23
-6416.2
-6416.25
-6416.42
-6416.68
-6417.03
-6417.45
-6417.92
-6418.42
-6418.9
-6419.34
-6419.72
-6420.01
-6420.2
-6420.27
-6420.22
-6420.05
-6419.77
-6419.4
-6418.97
-6418.51
-6418.05
-6417.63
-6417.29
-6417.05
-6416.92
-6416.92
-6417.05
-6417.28
-6417.61
-6417.98
-6418.39
-6418.76
-6419.06
-6419.26
-6419.35
-6419.31
-6419.16
-6418.91
-6418.59
-6418.25
-6417.92
-6417.66
-6417.49
-6417.44
-6417.52
-6417.7
-6417.97
-6418.29
-6418.63
-6418.91
-6419.1
-6419.18
-6419.14
-6418.99
-6418.77
-6418.5
-6418.23
-6418.02
-6417.89
-6417.85
-6417.91
-6418.04
-6418.22
-6418.4
-6418.55
-6418.64
-6418.66
-6418.62
-6418.53
-6418.4
-6418.28
-6418.18
-6418.12
-6911.48
-6911.57
-6911.76
-6912.04
-6912.41
-6912.89
-6913.46
-6914.14
-6914.82
-6915.5
-6916.16
-6916.78
-6917.36
-6917.87
-6918.31
-6918.66
-6918.93
-6919.11
-6919.2
-6919.19
-6919.08
-6918.86
-6918.55
-6918.13
-6917.62
-6917.02
-6916.35
-6915.64
-6914.95
-6914.31
-6913.73
-6913.22
-6912.78
-6912.4
-6912.08
-6911.8
-6911.57
-6911.39
-6911.26
-6911.17
-6911.12
-6911.11
-6911.14
-6911.2
-6911.3
-6911.44
-6911.6
-6911.8
-6912.02
-6912.27
-6912.54
-6912.83
-6913.14
-6913.47
-6913.81
-6914.15
-6914.51
-6914.86
-6915.22
-6915.56
-6915.9
-6916.23
-6916.53
-6916.82
-6917.07
-6917.3
-6917.49
-6917.65
-6917.76
-6917.84
-6917.86
-6917.84
-6917.77
-6917.66
-6917.49
-6917.28
-6917.03
-6916.73
-6916.39
-6916.02
-6915.62
-6915.2
-6914.76
-6914.32
-6913.87
-6913.43
-6913.01
-6912.62
-6912.26
-6911.94
-6911.67
-6911.46
-6911.31
-6911.23
-6911.23
-6911.29
-6911.44
-6911.65
-6911.93
-6912.28
-6912.68
-6913.13
-6913.6
-6914.1
-6914.61
-6915.11
-6915.58
-6916
-6916.38
-6916.68
-6916.89
-6917.02
-6917.04
-6916.97
-6916.79
-6916.52
-6916.15
-6915.71
-6915.2
-6914.66
-6914.1
-6913.54
-6913.02
-6912.55
-6912.16
-6911.87
-6911.7
-6911.65
-6911.73
-6911.93
-6912.26
-6912.69
-6913.21
-6913.78
-6914.38
-6914.97
-6915.51
-6915.97
-6916.32
-6916.54
-6916.62
-6916.55
-6916.33
-6915.99
-6915.53
-6915
-6914.44
-6913.88
-6913.38
-6912.97
-6912.68
-6912.53
-6912.54
-6912.71
-6913
-6913.4
-6913.86
-6914.38
-6914.82
-6915.18
-6915.43
-6915.53
-6915.48
-6915.28
-6914.97
-6914.58
-6914.15
-6913.76
-6913.44
-6913.23
-6913.17
-6913.27
-6913.5
-6913.83
-6914.21
-6914.64
-6914.96
-6915.19
-6915.28
-6915.22
-6915.04
-6914.76
-6914.45
-6914.11
-6913.86
-6913.71
-6913.68
-6913.75
-6913.92
-6914.14
-6914.36
-6914.53
-6914.64
-6914.66
-6914.61
-6914.49
-6914.34
-6914.2
-6914.08
-6914.01
-7348.31
-7348.42
-7348.66
-7349.02
-7349.53
-7350.19
-7351.03
-7352.04
-7353.28
-7354.49
-7355.56
-7356.54
-7357.39
-7358.14
-7358.76
-7359.28
-7359.67
-7359.95
-7360.11
-7360.13
-7360.02
-7359.77
-7359.38
-7358.82
-7358.1
-7357.22
-7356.11
-7354.93
-7353.94
-7353.12
-7352.4
-7351.78
-7351.25
-7350.79
-7350.41
-7350.11
-7349.88
-7349.7
-7349.58
-7349.51
-7349.49
-7349.51
-7349.58
-7349.69
-7349.83
-7350.02
-7350.23
-7350.49
-7350.77
-7351.08
-7351.42
-7351.78
-7352.17
-7352.57
-7352.98
-7353.41
-7353.83
-7354.27
-7354.69
-7355.11
-7355.52
-7355.91
-7356.28
-7356.62
-7356.93
-7357.2
-7357.43
-7357.62
-7357.76
-7357.84
-7357.87
-7357.85
-7357.76
-7357.62
-7357.42
-7357.17
-7356.86
-7356.5
-7356.1
-7355.66
-7355.18
-7354.67
-7354.15
-7353.61
-7353.08
-7352.56
-7352.06
-7351.59
-7351.16
-7350.78
-7350.46
-7350.21
-7350.04
-7349.95
-7349.94
-7350.03
-7350.2
-7350.46
-7350.81
-7351.22
-7351.71
-7352.25
-7352.82
-7353.42
-7354.03
-7354.63
-7355.19
-7355.7
-7356.15
-7356.51
-7356.77
-7356.92
-7356.94
-7356.85
-7356.63
-7356.3
-7355.86
-7355.32
-7354.72
-7354.07
-7353.39
-7352.73
-7352.1
-7351.54
-7351.08
-7350.73
-7350.53
-7350.47
-7350.57
-7350.82
-7351.21
-7351.73
-7352.35
-7353.04
-7353.76
-7354.46
-7355.1
-7355.64
-7356.06
-7356.32
-7356.4
-7356.31
-7356.04
-7355.62
-7355.07
-7354.44
-7353.76
-7353.1
-7352.51
-7352.02
-7351.68
-7351.52
-7351.54
-7351.75
-7352.11
-7352.59
-7353.14
-7353.78
-7354.3
-7354.73
-7355.02
-7355.13
-7355.06
-7354.82
-7354.44
-7353.97
-7353.46
-7352.98
-7352.6
-7352.36
-7352.29
-7352.41
-7352.69
-7353.08
-7353.53
-7354.05
-7354.43
-7354.69
-7354.79
-7354.72
-7354.5
-7354.16
-7353.78
-7353.39
-7353.1
-7352.93
-7352.9
-7352.99
-7353.19
-7353.47
-7353.72
-7353.93
-7354.05
-7354.07
-7354
-7353.86
-7353.68
-7353.51
-7353.37
-7353.29
-7734.18
-7734.32
-7734.62
-7735.11
-7735.84
-7736.89
-7738.41
-7740.54
-7742.97
-7745.02
-7746.72
-7748.16
-7749.38
-7750.4
-7751.24
-7751.89
-7752.37
-7752.69
-7752.84
-7752.82
-7752.63
-7752.25
-7751.67
-7750.86
-7749.79
-7748.42
-7746.61
-7744.31
-7742.51
-7741.25
-7740.33
-7739.62
-7739.08
-7738.65
-7738.32
-7738.07
-7737.87
-7737.74
-7737.66
-7737.63
-7737.65
-7737.71
-7737.82
-7737.98
-7738.17
-7738.41
-7738.69
-7739
-7739.35
-7739.73
-7740.14
-7740.58
-7741.04
-7741.52
-7742.01
-7742.52
-7743.03
-7743.54
-7744.04
-7744.54
-7745.02
-7745.48
-7745.91
-7746.31
-7746.67
-7746.99
-7747.26
-7747.48
-7747.64
-7747.74
-7747.77
-7747.74
-7747.64
-7747.47
-7747.24
-7746.94
-7746.57
-7746.15
-7745.68
-7745.15
-7744.59
-7744
-7743.39
-7742.76
-7742.13
-7741.52
-7740.93
-7740.38
-7739.88
-7739.44
-7739.07
-7738.78
-7738.58
-7738.48
-7738.48
-7738.58
-7738.79
-7739.1
-7739.51
-7740
-7740.58
-7741.21
-7741.89
-7742.6
-7743.31
-7744.01
-7744.68
-7745.28
-7745.8
-7746.22
-7746.52
-7746.69
-7746.72
-7746.61
-7746.35
-7745.95
-7745.43
-7744.8
-7744.09
-7743.32
-7742.53
-7741.75
-7741.01
-7740.36
-7739.82
-7739.42
-7739.18
-7739.12
-7739.24
-7739.54
-7740
-7740.62
-7741.34
-7742.14
-7743
-7743.81
-7744.55
-7745.19
-7745.67
-7745.96
-7746.06
-7745.94
-7745.62
-7745.12
-7744.47
-7743.73
-7742.93
-7742.16
-7741.47
-7740.91
-7740.52
-7740.34
-7740.38
-7740.63
-7741.07
-7741.64
-7742.29
-7743.02
-7743.64
-7744.14
-7744.47
-7744.6
-7744.51
-7744.22
-7743.77
-7743.21
-7742.61
-7742.05
-7741.6
-7741.32
-7741.25
-7741.39
-7741.72
-7742.19
-7742.72
-7743.31
-7743.75
-7744.05
-7744.16
-7744.07
-7743.81
-7743.41
-7742.96
-7742.52
-7742.19
-7741.99
-7741.96
-7742.08
-7742.32
-7742.65
-7742.94
-7743.17
-7743.31
-7743.33
-7743.25
-7743.08
-7742.88
-7742.67
-7742.51
-7742.42
-8075.44
-8075.57
-8075.79
-8076.2
-8076.74
-8077.41
-8078.06
-8078.87
-8084.54
-8084.12
-8083.68
-8083.2
-8082.76
-8082.36
-8082.02
-8081.75
-8081.54
-8081.4
-8081.31
-8081.27
-8081.28
-8081.35
-8081.46
-8081.62
-8081.83
-8082.08
-8082.38
-8082.72
-8083.1
-8083.51
-8083.96
-8084.45
-8084.96
-8085.5
-8086.06
-8086.63
-8087.22
-8087.81
-8088.4
-8088.98
-8089.56
-8090.11
-8090.64
-8091.14
-8091.6
-8092.02
-8092.39
-8092.7
-8092.94
-8093.13
-8093.24
-8093.27
-8093.24
-8093.12
-8092.92
-8092.65
-8092.3
-8091.88
-8091.39
-8090.84
-8090.24
-8089.59
-8088.91
-8088.2
-8087.48
-8086.76
-8086.05
-8085.38
-8084.75
-8084.17
-8083.66
-8083.24
-8082.91
-8082.69
-8082.57
-8082.58
-8082.7
-8082.95
-8083.31
-8083.78
-8084.35
-8085.01
-8085.75
-8086.54
-8087.35
-8088.18
-8088.99
-8089.75
-8090.45
-8091.05
-8091.53
-8091.88
-8092.07
-8092.1
-8091.97
-8091.67
-8091.2
-8090.6
-8089.87
-8089.05
-8088.16
-8087.24
-8086.34
-8085.5
-8084.75
-8084.13
-8083.67
-8083.4
-8083.33
-8083.47
-8083.82
-8084.36
-8085.07
-8085.9
-8086.82
-8087.83
-8088.75
-8089.6
-8090.32
-8090.87
-8091.2
-8091.3
-8091.16
-8090.79
-8090.2
-8089.45
-8088.59
-8087.68
-8086.8
-8086
-8085.36
-8084.92
-8084.73
-8084.78
-8085.08
-8085.59
-8086.27
-8087.03
-8087.85
-8088.56
-8089.14
-8089.52
-8089.66
-8089.55
-8089.21
-8088.68
-8088.03
-8087.33
-8086.69
-8086.18
-8085.86
-8085.78
-8085.95
-8086.33
-8086.87
-8087.5
-8088.15
-8088.66
-8089
-8089.12
-8089.01
-8088.7
-8088.24
-8087.73
-8087.23
-8086.85
-8086.63
-8086.6
-8086.75
-8087.02
-8087.41
-8087.74
-8088
-8088.15
-8088.18
-8088.08
-8087.88
-8087.65
-8087.42
-8087.23
-8087.13
-8376.74
-8376.78
-8376.86
-8376.98
-8377.11
-8377.25
-8377.36
-8377.44
-8386.96
-8386.86
-8386.65
-8386.46
-8386.26
-8386.07
-8385.89
-8385.74
-8385.62
-8385.55
-8385.52
-8385.53
-8385.6
-8385.71
-8385.87
-8386.09
-8386.35
-8386.65
-8387.01
-8387.41
-8387.85
-8388.34
-8388.86
-8389.42
-8390.01
-8390.62
-8391.26
-8391.92
-8392.58
-8393.26
-8393.93
-8394.6
-8395.25
-8395.88
-8396.48
-8397.04
-8397.57
-8398.04
-8398.45
-8398.8
-8399.08
-8399.28
-8399.41
-8399.45
-8399.4
-8399.27
-8399.04
-8398.73
-8398.33
-8397.85
-8397.3
-8396.67
-8395.99
-8395.25
-8394.47
-8393.67
-8392.85
-8392.04
-8391.24
-8390.48
-8389.76
-8389.11
-8388.54
-8388.06
-8387.69
-8387.44
-8387.31
-8387.32
-8387.47
-8387.75
-8388.16
-8388.7
-8389.36
-8390.11
-8390.95
-8391.84
-8392.77
-8393.71
-8394.63
-8395.49
-8396.28
-8396.96
-8397.51
-8397.9
-8398.12
-8398.15
-8397.99
-8397.65
-8397.12
-8396.43
-8395.6
-8394.66
-8393.65
-8392.61
-8391.59
-8390.63
-8389.78
-8389.08
-8388.57
-8388.26
-8388.19
-8388.36
-8388.76
-8389.38
-8390.18
-8391.13
-8392.16
-8393.32
-8394.36
-8395.31
-8396.12
-8396.74
-8397.11
-8397.21
-8397.04
-8396.61
-8395.94
-8395.09
-8394.11
-8393.08
-8392.08
-8391.19
-8390.47
-8389.98
-8389.77
-8389.84
-8390.19
-8390.78
-8391.55
-8392.42
-8393.34
-8394.15
-8394.8
-8395.22
-8395.38
-8395.25
-8394.85
-8394.25
-8393.5
-8392.71
-8391.99
-8391.41
-8391.05
-8390.97
-8391.16
-8391.6
-8392.22
-8392.92
-8393.65
-8394.23
-8394.61
-8394.74
-8394.61
-8394.25
-8393.73
-8393.14
-8392.59
-8392.16
-8391.93
-8391.9
-8392.08
-8392.38
-8392.83
-8393.2
-8393.49
-8393.66
-8393.68
-8393.56
-8393.33
-8393.07
-8392.82
-8392.61
-8392.5
-8643.44
-8643.47
-8643.51
-8643.59
-8643.68
-8643.79
-8643.89
-8644.02
-8656.11
-8655.9
-8655.71
-8655.52
-8655.34
-8655.18
-8655.06
-8654.97
-8654.91
-8654.88
-8654.9
-8654.97
-8655.08
-8655.24
-8655.45
-8655.71
-8656.02
-8656.39
-8656.8
-8657.26
-8657.77
-8658.32
-8658.91
-8659.54
-8660.21
-8660.9
-8661.62
-8662.35
-8663.1
-8663.86
-8664.61
-8665.36
-8666.08
-8666.79
-8667.46
-8668.09
-8668.67
-8669.2
-8669.66
-8670.05
-8670.36
-8670.58
-8670.72
-8670.76
-8670.71
-8670.55
-8670.3
-8669.95
-8669.5
-8668.96
-8668.34
-8667.64
-8666.87
-8666.05
-8665.18
-8664.28
-8663.37
-8662.46
-8661.56
-8660.71
-8659.91
-8659.19
-8658.55
-8658.02
-8657.61
-8657.33
-8657.2
-8657.21
-8657.37
-8657.69
-8658.16
-8658.77
-8659.5
-8660.35
-8661.28
-8662.29
-8663.33
-8664.38
-8665.41
-8666.38
-8667.26
-8668.02
-8668.63
-8669.06
-8669.3
-8669.34
-8669.16
-8668.76
-8668.17
-8667.39
-8666.46
-8665.41
-8664.29
-8663.12
-8661.98
-8660.91
-8659.96
-8659.18
-8658.61
-8658.27
-8658.2
-8658.39
-8658.84
-8659.54
-8660.44
-8661.5
-8662.64
-8663.95
-8665.1
-8666.16
-8667.07
-8667.74
-8668.15
-8668.26
-8668.06
-8667.57
-8666.82
-8665.86
-8664.77
-8663.62
-8662.5
-8661.51
-8660.71
-8660.18
-8659.95
-8660.04
-8660.44
-8661.11
-8661.98
-8662.96
-8663.98
-8664.88
-8665.6
-8666.07
-8666.24
-8666.08
-8665.64
-8664.95
-8664.12
-8663.23
-8662.42
-8661.78
-8661.38
-8661.29
-8661.52
-8662.01
-8662.7
-8663.49
-8664.29
-8664.93
-8665.35
-8665.49
-8665.34
-8664.94
-8664.35
-8663.7
-8663.08
-8662.62
-8662.36
-8662.34
-8662.55
-8662.89
-8663.4
-8663.8
-8664.12
-8664.3
-8664.32
-8664.19
-8663.92
-8663.64
-8663.36
-8663.13
-8663.01
-8879.63
-8879.65
-8879.68
-8879.72
-8879.77
-8879.83
-8879.88
-8879.93
-8893.89
-8893.89
-8893.8
-8893.72
-8893.62
-8893.52
-8893.45
-8893.4
-8893.39
-8893.41
-8893.47
-8893.58
-8893.73
-8893.93
-8894.19
-8894.5
-8894.85
-8895.27
-8895.73
-8896.25
-8896.82
-8897.44
-8898.1
-8898.8
-8899.54
-8900.31
-8901.1
-8901.92
-8902.75
-8903.58
-8904.41
-8905.24
-8906.04
-8906.82
-8907.56
-8908.25
-8908.89
-8909.47
-8909.98
-8910.41
-8910.75
-8910.99
-8911.14
-8911.18
-8911.12
-8910.94
-8910.66
-8910.27
-8909.78
-8909.18
-8908.49
-8907.72
-8906.87
-8905.96
-8905
-8904
-8903
-8901.99
-8901.01
-8900.07
-8899.19
-8898.39
-8897.69
-8897.11
-8896.66
-8896.36
-8896.21
-8896.23
-8896.41
-8896.77
-8897.28
-8897.96
-8898.77
-8899.71
-8900.75
-8901.86
-8903.01
-8904.17
-8905.31
-8906.38
-8907.35
-8908.19
-8908.86
-8909.34
-8909.6
-8909.63
-8909.43
-8908.99
-8908.33
-8907.47
-8906.44
-8905.28
-8904.04
-8902.74
-8901.48
-8900.31
-8899.26
-8898.4
-8897.77
-8897.41
-8897.33
-8897.55
-8898.05
-8898.83
-8899.82
-8900.99
-8902.26
-8903.69
-8904.96
-8906.13
-8907.12
-8907.86
-8908.3
-8908.42
-8908.19
-8907.64
-8906.81
-8905.75
-8904.54
-8903.27
-8902.04
-8900.95
-8900.08
-8899.5
-8899.26
-8899.37
-8899.82
-8900.57
-8901.53
-8902.61
-8903.73
-8904.73
-8905.52
-8906.04
-8906.21
-8906.04
-8905.53
-8904.77
-8903.85
-8902.87
-8901.98
-8901.27
-8900.84
-8900.74
-8900.99
-8901.54
-8902.31
-8903.18
-8904.06
-8904.76
-8905.21
-8905.36
-8905.19
-8904.74
-8904.09
-8903.37
-8902.7
-8902.19
-8901.92
-8901.91
-8902.14
-8902.52
-8903.07
-8903.51
-8903.87
-8904.06
-8904.07
-8903.93
-8903.64
-8903.32
-8903.02
-8902.77
-8902.64
-9088.82
-9088.83
-9088.85
-9088.88
-9088.91
-9088.94
-9088.96
-9088.98
-9104.87
-9104.87
-9104.8
-9104.74
-9104.68
-9104.62
-9104.59
-9104.58
-9104.6
-9104.66
-9104.76
-9104.9
-9105.09
-9105.33
-9105.62
-9105.97
-9106.37
-9106.83
-9107.35
-9107.93
-9108.55
-9109.23
-9109.96
-9110.73
-9111.54
-9112.38
-9113.25
-9114.14
-9115.05
-9115.96
-9116.87
-9117.76
-9118.64
-9119.49
-9120.29
-9121.05
-9121.75
-9122.38
-9122.93
-9123.39
-9123.76
-9124.03
-9124.18
-9124.23
-9124.16
-9123.96
-9123.65
-9123.22
-9122.68
-9122.03
-9121.27
-9120.42
-9119.5
-9118.5
-9117.45
-9116.37
-9115.27
-9114.17
-9113.1
-9112.08
-9111.12
-9110.25
-9109.49
-9108.86
-9108.37
-9108.04
-9107.88
-9107.9
-9108.11
-9108.5
-9109.07
-9109.81
-9110.7
-9111.73
-9112.86
-9114.08
-9115.34
-9116.61
-9117.85
-9119.02
-9120.08
-9120.99
-9121.72
-9122.24
-9122.53
-9122.56
-9122.33
-9121.85
-9121.13
-9120.18
-9119.05
-9117.79
-9116.43
-9115
-9113.64
-9112.35
-9111.21
-9110.28
-9109.6
-9109.2
-9109.12
-9109.36
-9109.92
-9110.77
-9111.86
-9113.14
-9114.53
-9116.07
-9117.46
-9118.73
-9119.81
-9120.61
-9121.09
-9121.21
-9120.95
-9120.35
-9119.43
-9118.27
-9116.95
-9115.56
-9114.23
-9113.04
-9112.1
-9111.47
-9111.22
-9111.35
-9111.85
-9112.67
-9113.73
-9114.92
-9116.13
-9117.22
-9118.08
-9118.64
-9118.82
-9118.62
-9118.07
-9117.23
-9116.22
-9115.15
-9114.18
-9113.41
-9112.94
-9112.84
-9113.12
-9113.73
-9114.57
-9115.52
-9116.46
-9117.22
-9117.72
-9117.87
-9117.68
-9117.18
-9116.47
-9115.69
-9114.96
-9114.41
-9114.12
-9114.12
-9114.38
-9114.81
-9115.39
-9115.88
-9116.26
-9116.46
-9116.47
-9116.31
-9115.99
-9115.65
-9115.32
-9115.06
-9114.91
-9274.12
-9274.12
-9274.13
-9274.15
-9274.17
-9274.19
-9274.2
-9274.22
-9291.77
-9291.79
-9291.74
-9291.68
-9291.63
-9291.6
-9291.6
-9291.62
-9291.67
-9291.75
-9291.88
-9292.05
-9292.27
-9292.54
-9292.87
-9293.26
-9293.7
-9294.21
-9294.77
-9295.4
-9296.08
-9296.82
-9297.61
-9298.44
-9299.32
-9300.23
-9301.17
-9302.14
-9303.12
-9304.1
-9305.08
-9306.05
-9307
-9307.91
-9308.78
-9309.6
-9310.35
-9311.03
-9311.62
-9312.12
-9312.51
-9312.8
-9312.97
-9313.02
-9312.93
-9312.72
-9312.38
-9311.91
-9311.32
-9310.62
-9309.8
-9308.88
-9307.88
-9306.8
-9305.67
-9304.5
-9303.31
-9302.13
-9300.97
-9299.86
-9298.83
-9297.89
-9297.07
-9296.39
-9295.87
-9295.51
-9295.35
-9295.37
-9295.6
-9296.02
-9296.64
-9297.44
-9298.41
-9299.52
-9300.75
-9302.06
-9303.43
-9304.8
-9306.14
-9307.41
-9308.55
-9309.54
-9310.33
-9310.89
-9311.19
-9311.23
-9310.98
-9310.45
-9309.67
-9308.64
-9307.42
-9306.05
-9304.58
-9303.04
-9301.56
-9300.17
-9298.95
-9297.94
-9297.2
-9296.78
-9296.7
-9296.96
-9297.57
-9298.49
-9299.68
-9301.07
-9302.58
-9304.21
-9305.71
-9307.09
-9308.25
-9309.11
-9309.62
-9309.74
-9309.46
-9308.8
-9307.8
-9306.55
-9305.12
-9303.62
-9302.18
-9300.91
-9299.89
-9299.22
-9298.96
-9299.11
-9299.66
-9300.55
-9301.7
-9302.99
-9304.3
-9305.47
-9306.4
-9306.99
-9307.19
-9306.97
-9306.36
-9305.45
-9304.35
-9303.2
-9302.15
-9301.32
-9300.82
-9300.72
-9301.02
-9301.68
-9302.59
-9303.62
-9304.63
-9305.45
-9305.98
-9306.14
-9305.92
-9305.38
-9304.61
-9303.77
-9302.99
-9302.4
-9302.09
-9302.1
-9302.38
-9302.86
-9303.48
-9304
-9304.41
-9304.62
-9304.63
-9304.45
-9304.11
-9303.75
-9303.39
-9303.11
-9302.96
-9438.25
-9438.25
-9438.26
-9438.28
-9438.29
-9438.3
-9438.31
-9438.33
-9457.36
-9457.41
-9457.36
-9457.29
-9457.23
-9457.23
-9457.25
-9457.29
-9457.36
-9457.46