/*--------------------------------*- C++ -*----------------------------------*\
  =========                 |
  \\      /  F ield         | OpenFOAM: The Open Source CFD Toolbox
   \\    /   O peration     | Website:  https://openfoam.org
    \\  /    A nd           | Version:  12
     \\/     M anipulation  |
\*---------------------------------------------------------------------------*/
FoamFile
{
    format      ascii;
    class       volScalarField;
    location    "200";
    object      epsilon;
}
// * * * * * * * * * * * * * * * * * * * * * * * * * * * * * * * * * * * * * //

dimensions      [0 2 -3 0 0 0 0];

internalField   nonuniform List<scalar> 
80
(
105.045
36.9564
21.3243
15.9153
13.7097
12.8458
12.672
12.9101
13.4208
14.124
14.9675
15.9139
16.9339
18.004
19.1048
20.2206
21.3392
22.4518
23.5536
24.6437
25.7266
26.8131
27.9221
29.0847
30.349
31.7923
33.542
35.8136
38.967
43.6443
51.848
63.7467
2.69575
0.0222322
0.000945583
9.8926e-05
1.00135e-05
9.19366e-07
7.28648e-08
5.72397e-09
5.73486e-09
7.30253e-08
9.21256e-07
1.00313e-05
9.89537e-05
0.000934206
0.0209676
2.61018
63.7886
51.8414
43.6354
38.9598
35.8091
33.5399
31.792
30.35
29.0863
27.9241
26.8152
25.7288
24.6459
23.5557
22.454
21.3413
20.2226
19.1067
18.0058
16.9356
15.9155
14.969
14.1253
13.422
12.9113
12.6731
12.8468
13.7107
15.9163
21.3255
36.9581
105.05
)
;

boundaryField
{
    lowerWall
    {
        type            epsilonWallFunction;
        value           uniform 105.045;
    }
    upperWall
    {
        type            epsilonWallFunction;
        value           uniform 105.05;
    }
    front
    {
        type            cyclic;
    }
    back
    {
        type            cyclic;
    }
    defaultFaces
    {
        type            empty;
    }
}


// ************************************************************************* //
