/*--------------------------------*- C++ -*----------------------------------*\
  =========                 |
  \\      /  F ield         | OpenFOAM: The Open Source CFD Toolbox
   \\    /   O peration     | Website:  https://openfoam.org
    \\  /    A nd           | Version:  12
     \\/     M anipulation  |
\*---------------------------------------------------------------------------*/
FoamFile
{
    format      ascii;
    class       volSymmTensorField;
    location    "200";
    object      R;
}
// * * * * * * * * * * * * * * * * * * * * * * * * * * * * * * * * * * * * * //

dimensions      [0 2 -2 0 0 0 0];

internalField   nonuniform List<symmTensor> 
80
(
(0.20132 -0.261613 -0 0.20132 -0 0.20132)
(0.202653 -0.0869448 -0 0.202653 -0 0.202653)
(0.215672 -0.0864335 -0 0.215672 -0 0.215672)
(0.23239 -0.0896306 -0 0.23239 -0 0.23239)
(0.250325 -0.0969565 -0 0.250325 -0 0.250325)
(0.268753 -0.107566 -0 0.268753 -0 0.268753)
(0.287441 -0.120437 -0 0.287441 -0 0.287441)
(0.306253 -0.134676 -0 0.306253 -0 0.306253)
(0.325044 -0.149571 -0 0.325044 -0 0.325044)
(0.343635 -0.164567 -0 0.343635 -0 0.343635)
(0.361816 -0.179238 -0 0.361816 -0 0.361816)
(0.379362 -0.193256 -0 0.379362 -0 0.379362)
(0.396042 -0.206373 -0 0.396042 -0 0.396042)
(0.411632 -0.218396 -0 0.411632 -0 0.411632)
(0.425921 -0.22918 -0 0.425921 -0 0.425921)
(0.438718 -0.238611 -0 0.438718 -0 0.438718)
(0.449851 -0.2466 -0 0.449851 -0 0.449851)
(0.459168 -0.253078 -0 0.459168 -0 0.459168)
(0.466538 -0.257984 -0 0.466538 -0 0.466538)
(0.471846 -0.261269 -0 0.471846 -0 0.471846)
(0.474988 -0.262888 -0 0.474988 -0 0.474988)
(0.475867 -0.262798 -0 0.475867 -0 0.475867)
(0.474389 -0.260957 -0 0.474389 -0 0.474389)
(0.470447 -0.257314 -0 0.470447 -0 0.470447)
(0.46391 -0.251803 -0 0.46391 -0 0.46391)
(0.454604 -0.244354 -0 0.454604 -0 0.454604)
(0.442287 -0.23496 -0 0.442287 -0 0.442287)
(0.426538 -0.223704 -0 0.426538 -0 0.426538)
(0.406288 -0.210138 -0 0.406288 -0 0.406288)
(0.37838 -0.191189 -0 0.37838 -0 0.37838)
(0.334382 -0.182983 -0 0.334382 -0 0.334382)
(0.165601 -0.136001 -0 0.165601 -0 0.165601)
(0.00141608 -0.000488127 -0 0.00141608 -0 0.00141608)
(5.92148e-06 -1.00829e-06 -0 5.92148e-06 -0 5.92148e-06)
(1.15601e-06 -5.62582e-07 -0 1.15601e-06 -0 1.15601e-06)
(2.29814e-07 -1.30682e-07 -0 2.29814e-07 -0 2.29814e-07)
(3.74113e-08 -2.07436e-08 -0 3.74113e-08 -0 3.74113e-08)
(5.41225e-09 -2.75944e-09 -0 5.41225e-09 -0 5.41225e-09)
(6.6777e-10 -2.75419e-10 -0 6.6777e-10 -0 6.6777e-10)
(8.29941e-11 -1.67408e-11 -0 8.29941e-11 -0 8.29941e-11)
(8.31108e-11 1.67787e-11 -0 8.31108e-11 -0 8.31108e-11)
(6.69013e-10 2.75976e-10 -0 6.69013e-10 -0 6.69013e-10)
(5.42209e-09 2.7648e-09 -0 5.42209e-09 -0 5.42209e-09)
(3.74804e-08 2.07897e-08 -0 3.74804e-08 -0 3.74804e-08)
(2.30268e-07 1.31197e-07 -0 2.30268e-07 -0 2.30268e-07)
(1.15761e-06 5.71093e-07 -0 1.15761e-06 -0 1.15761e-06)
(5.85787e-06 1.04649e-06 -0 5.85787e-06 -0 5.85787e-06)
(0.00141462 0.000503016 -0 0.00141462 -0 0.00141462)
(0.165767 0.136082 -0 0.165767 -0 0.165767)
(0.334375 0.182958 -0 0.334375 -0 0.334375)
(0.378366 0.191166 -0 0.378366 -0 0.378366)
(0.406282 0.210118 -0 0.406282 -0 0.406282)
(0.426547 0.223696 -0 0.426547 -0 0.426547)
(0.442309 0.234969 -0 0.442309 -0 0.442309)
(0.454635 0.244376 -0 0.454635 -0 0.454635)
(0.463947 0.251831 -0 0.463947 -0 0.463947)
(0.470487 0.257344 -0 0.470487 -0 0.470487)
(0.474429 0.260985 -0 0.474429 -0 0.474429)
(0.475907 0.262824 -0 0.475907 -0 0.475907)
(0.475026 0.262912 -0 0.475026 -0 0.475026)
(0.471884 0.261292 -0 0.471884 -0 0.471884)
(0.466576 0.258006 -0 0.466576 -0 0.466576)
(0.459205 0.253099 -0 0.459205 -0 0.459205)
(0.449887 0.246621 -0 0.449887 -0 0.449887)
(0.438753 0.238631 -0 0.438753 -0 0.438753)
(0.425955 0.229199 -0 0.425955 -0 0.425955)
(0.411665 0.218414 -0 0.411665 -0 0.411665)
(0.396073 0.20639 -0 0.396073 -0 0.396073)
(0.379392 0.193272 -0 0.379392 -0 0.379392)
(0.361844 0.179252 -0 0.361844 -0 0.361844)
(0.343661 0.164579 -0 0.343661 -0 0.343661)
(0.325068 0.149582 -0 0.325068 -0 0.325068)
(0.306274 0.134685 -0 0.306274 -0 0.306274)
(0.28746 0.120444 -0 0.28746 -0 0.28746)
(0.268771 0.107573 -0 0.268771 -0 0.268771)
(0.25034 0.0969616 -0 0.25034 -0 0.25034)
(0.232403 0.0896348 -0 0.232403 -0 0.232403)
(0.215683 0.0864371 -0 0.215683 -0 0.215683)
(0.202661 0.0869479 -0 0.202661 -0 0.202661)
(0.201326 0.261621 -0 0.201326 -0 0.201326)
)
;

boundaryField
{
    lowerWall
    {
        type            calculated;
        value           uniform (0.20132 -0.0295042 -0 0.20132 -0 0.20132);
    }
    upperWall
    {
        type            calculated;
        value           uniform (0.201326 0.0295058 -0 0.201326 -0 0.201326);
    }
    front
    {
        type            cyclic;
    }
    back
    {
        type            cyclic;
    }
    defaultFaces
    {
        type            empty;
    }
}


// ************************************************************************* //
