/*--------------------------------*- C++ -*----------------------------------*\
  =========                 |
  \\      /  F ield         | OpenFOAM: The Open Source CFD Toolbox
   \\    /   O peration     | Website:  https://openfoam.org
    \\  /    A nd           | Version:  12
     \\/     M anipulation  |
\*---------------------------------------------------------------------------*/
FoamFile
{
    format      ascii;
    class       volVectorField;
    location    "200";
    object      U;
}
// * * * * * * * * * * * * * * * * * * * * * * * * * * * * * * * * * * * * * //

dimensions      [0 1 -1 0 0 0 0];

internalField   nonuniform List<vector> 
80
(
(3.85423 0 0)
(4.51675 0 0)
(4.82015 0 0)
(5.00595 0 0)
(5.14625 0 0)
(5.26783 0 0)
(5.38244 0 0)
(5.49588 0 0)
(5.6113 0 0)
(5.73044 0 0)
(5.85431 0 0)
(5.98344 0 0)
(6.11813 0 0)
(6.25851 0 0)
(6.40462 0 0)
(6.55648 0 0)
(6.7141 0 0)
(6.87751 0 0)
(7.04682 0 0)
(7.22217 0 0)
(7.40385 0 0)
(7.59226 0 0)
(7.78801 0 0)
(7.99199 0 0)
(8.20548 0 0)
(8.43037 0 0)
(8.66955 0 0)
(8.92775 0 0)
(9.21321 0 0)
(9.54017 0 0)
(9.93274 0 0)
(10.5877 0 0)
(13.8356 0 0)
(18.689 0 0)
(21.7283 0 0)
(23.6034 0 0)
(24.7502 0 0)
(25.4357 0 0)
(25.8195 0 0)
(25.9913 0 0)
(25.9912 0 0)
(25.8193 0 0)
(25.4353 0 0)
(24.7497 0 0)
(23.6025 0 0)
(21.7269 0 0)
(18.6874 0 0)
(13.8325 0 0)
(10.5874 0 0)
(9.93252 0 0)
(9.54005 0 0)
(9.21317 0 0)
(8.92778 0 0)
(8.66963 0 0)
(8.43046 0 0)
(8.20558 0 0)
(7.99209 0 0)
(7.78811 0 0)
(7.59236 0 0)
(7.40395 0 0)
(7.22227 0 0)
(7.04691 0 0)
(6.8776 0 0)
(6.71418 0 0)
(6.55656 0 0)
(6.4047 0 0)
(6.25858 0 0)
(6.1182 0 0)
(5.98351 0 0)
(5.85437 0 0)
(5.7305 0 0)
(5.61136 0 0)
(5.49594 0 0)
(5.38249 0 0)
(5.26789 0 0)
(5.14631 0 0)
(5.006 0 0)
(4.82021 0 0)
(4.51681 0 0)
(3.85429 0 0)
)
;

boundaryField
{
    lowerWall
    {
        type            noSlip;
    }
    upperWall
    {
        type            noSlip;
    }
    front
    {
        type            cyclic;
    }
    back
    {
        type            cyclic;
    }
    defaultFaces
    {
        type            empty;
    }
}


// ************************************************************************* //
