#           y            Uf            nu         nuEff             k       epsilon           Rff           Rww           Rfw             u             v             w            uv      gammaDot
     0.000625        6.4348         1e-05    0.00012914      0.721096       392.801       0.48073       0.48073     -0.670709      0.693347      0.693347      0.693347     -0.670709       5629.61
     0.001875       7.63922         1e-05   0.000306501      0.710312       153.149      0.473542      0.473542     -0.219413      0.688144      0.688144      0.688144     -0.219413       740.007
     0.003125       8.28482         1e-05   0.000476885       0.66707        85.778      0.444714      0.444714     -0.201488      0.666869      0.666869      0.666869     -0.201488       431.558
     0.004375       8.71811         1e-05   0.000644773      0.633275       56.8602      0.422183      0.422183     -0.191138      0.649756      0.649756      0.649756     -0.191138       301.113
     0.005625        9.0376         1e-05   0.000812637      0.605488       41.1088      0.403659      0.403659     -0.182012      0.635341      0.635341      0.635341     -0.182012       226.768
     0.006875       9.28503         1e-05   0.000985257      0.582377       31.2992      0.388252      0.388252     -0.173351      0.623098      0.623098      0.623098     -0.173351       177.749
     0.008125       9.48197         1e-05    0.00116751      0.563452       24.6851      0.375635      0.375635      -0.16495      0.612891      0.612891      0.612891      -0.16495       142.505
     0.009375        9.6413         1e-05     0.0013634      0.548435       20.0018      0.365623      0.365623     -0.156778      0.604668      0.604668      0.604668     -0.156778        115.84
     0.010625       9.77158         1e-05    0.00157562       0.53703       16.5788       0.35802       0.35802     -0.148854      0.598348      0.598348      0.598348     -0.148854       95.0768
     0.011875       9.87899         1e-05    0.00180539       0.52887       14.0211       0.35258       0.35258     -0.141218      0.593785      0.593785      0.593785     -0.141218       78.6561
     0.013125       9.96822         1e-05    0.00205244       0.52353       12.0775       0.34902       0.34902     -0.133906      0.590779      0.590779      0.590779     -0.133906       65.5616
     0.014375       10.0429         1e-05    0.00231533      0.520565       10.5794      0.347043      0.347043     -0.126948      0.589104      0.589104      0.589104     -0.126948       55.0673
     0.015625       10.1059         1e-05    0.00259168      0.519549       9.41009      0.346366      0.346366     -0.120365      0.588529      0.588529      0.588529     -0.120365       46.6227
     0.016875       10.1594         1e-05    0.00287857      0.520094       8.48674      0.346729      0.346729     -0.114162      0.588837      0.588837      0.588837     -0.114162       39.7977
     0.018125       10.2054         1e-05    0.00317281      0.521861       7.74961      0.347908      0.347908     -0.108335      0.589837      0.589837      0.589837     -0.108335       34.2529
     0.019375       10.2451         1e-05     0.0034712      0.524567       7.15514      0.349712      0.349712     -0.102867      0.591364      0.591364      0.591364     -0.102867       29.7201
     0.020625       10.2797         1e-05    0.00377071      0.527976       6.67115      0.351984      0.351984    -0.0977335      0.593282      0.593282      0.593282    -0.0977335       25.9881
     0.021875       10.3101         1e-05    0.00406855      0.531894       6.27367      0.354596      0.354596    -0.0929016       0.59548       0.59548       0.59548    -0.0929016       22.8903
     0.023125       10.3369         1e-05    0.00436225      0.536165       5.94464      0.357443      0.357443     -0.088335      0.597866      0.597866      0.597866     -0.088335       20.2964
     0.024375       10.3608         1e-05    0.00464968      0.540663       5.67032      0.360442      0.360442    -0.0839949      0.600368      0.600368      0.600368    -0.0839949       18.1036
     0.025625       10.3822         1e-05    0.00492903      0.545285       5.44014      0.363524      0.363524    -0.0798415      0.602929      0.602929      0.602929    -0.0798415       16.2311
     0.026875       10.4014         1e-05     0.0051988      0.549949        5.2459      0.366632      0.366632    -0.0758356      0.605502      0.605502      0.605502    -0.0758356       14.6152
     0.028125       10.4187         1e-05    0.00545773      0.554586       5.08117      0.369724      0.369724    -0.0719394      0.608049      0.608049      0.608049    -0.0719394       13.2054
     0.029375       10.4344         1e-05    0.00570484      0.559141       4.94088      0.372761      0.372761    -0.0681179      0.610541      0.610541      0.610541    -0.0681179       11.9613
     0.030625       10.4486         1e-05    0.00593932      0.563571       4.82097      0.375714      0.375714     -0.064339      0.612955      0.612955      0.612955     -0.064339        10.851
     0.031875       10.4615         1e-05    0.00616053      0.567837       4.71821      0.378558      0.378558     -0.060574      0.615271      0.615271      0.615271     -0.060574       9.84858
     0.033125       10.4732         1e-05    0.00636799       0.57191       4.62997      0.381273      0.381273    -0.0567981      0.617473      0.617473      0.617473    -0.0567981       8.93334
     0.034375       10.4838         1e-05    0.00656133      0.575764        4.5541      0.383843      0.383843    -0.0529904      0.619551      0.619551      0.619551    -0.0529904        8.0885
     0.035625       10.4934         1e-05    0.00674027       0.57938       4.48886      0.386253      0.386253    -0.0491341      0.621493      0.621493      0.621493    -0.0491341       7.30047
     0.036875       10.5021         1e-05     0.0069046      0.582738       4.43282      0.388492      0.388492    -0.0452162      0.623291      0.623291      0.623291    -0.0452162        6.5582
     0.038125       10.5098         1e-05    0.00705418      0.585827        4.3848      0.390551      0.390551    -0.0412276      0.624941      0.624941      0.624941    -0.0412276       5.85272
     0.039375       10.5167         1e-05    0.00718891      0.588633       4.34383      0.392422      0.392422    -0.0371629      0.626436      0.626436      0.626436    -0.0371629       5.17668
     0.040625       10.5228         1e-05    0.00730872      0.591147       4.30911      0.394098      0.394098    -0.0330201      0.627772      0.627772      0.627772    -0.0330201       4.52409
     0.041875        10.528         1e-05    0.00741358      0.593362       4.27997      0.395575      0.395575    -0.0288005      0.628947      0.628947      0.628947    -0.0288005       3.89007
     0.043125       10.5325         1e-05    0.00750346      0.595271       4.25589      0.396847      0.396847    -0.0245081      0.629958      0.629958      0.629958    -0.0245081        3.2706
     0.044375       10.5362         1e-05    0.00757835      0.596869       4.23643      0.397913      0.397913    -0.0201498      0.630803      0.630803      0.630803    -0.0201498       2.66237
     0.045625       10.5392         1e-05    0.00763825      0.598152       4.22124      0.398768      0.398768    -0.0157343      0.631481      0.631481      0.631481    -0.0157343       2.06264
     0.046875       10.5414         1e-05    0.00768318      0.599117       4.21008      0.399411      0.399411    -0.0112726       0.63199       0.63199       0.63199    -0.0112726       1.46909
     0.048125       10.5428         1e-05    0.00771312      0.599761       4.20273      0.399841      0.399841   -0.00677664      0.632329      0.632329      0.632329   -0.00677664      0.879727
     0.049375       10.5436         1e-05    0.00772809      0.600083       4.19909      0.400056      0.400056   -0.00225983      0.632499      0.632499      0.632499   -0.00225983      0.292796
     0.050625       10.5436         1e-05    0.00772809      0.600083        4.1991      0.400056      0.400056    0.00226402        0.6325        0.6325        0.6325    0.00226402      0.293339
     0.051875       10.5428         1e-05    0.00771312      0.599761       4.20274      0.399841      0.399841    0.00678081       0.63233       0.63233       0.63233    0.00678081      0.880268
     0.053125       10.5414         1e-05    0.00768318      0.599117       4.21008      0.399411      0.399411     0.0112767       0.63199       0.63199       0.63199     0.0112767       1.46962
     0.054375       10.5392         1e-05    0.00763825      0.598152       4.22125      0.398768      0.398768     0.0157384      0.631481      0.631481      0.631481     0.0157384       2.06317
     0.055625       10.5362         1e-05    0.00757835       0.59687       4.23643      0.397913      0.397913     0.0201538      0.630804      0.630804      0.630804     0.0201538        2.6629
     0.056875       10.5325         1e-05    0.00750346      0.595272        4.2559      0.396848      0.396848      0.024512      0.629959      0.629959      0.629959      0.024512       3.27113
     0.058125        10.528         1e-05    0.00741358      0.593363       4.27998      0.395575      0.395575     0.0288043      0.628948      0.628948      0.628948     0.0288043       3.89059
     0.059375       10.5228         1e-05    0.00730872      0.591148       4.30912      0.394099      0.394099     0.0330238      0.627773      0.627773      0.627773     0.0330238        4.5246
     0.060625       10.5167         1e-05    0.00718891      0.588634       4.34385      0.392423      0.392423     0.0371665      0.626437      0.626437      0.626437     0.0371665       5.17717
     0.061875       10.5098         1e-05    0.00705419      0.585828       4.38482      0.390552      0.390552     0.0412311      0.624942      0.624942      0.624942     0.0412311        5.8532
     0.063125       10.5021         1e-05    0.00690461       0.58274       4.43284      0.388493      0.388493     0.0452195      0.623292      0.623292      0.623292     0.0452195       6.55868
     0.064375       10.4934         1e-05    0.00674028      0.579381       4.48888      0.386254      0.386254     0.0491373      0.621493      0.621493      0.621493     0.0491373       7.30093
     0.065625       10.4838         1e-05    0.00656134      0.575766       4.55412      0.383844      0.383844     0.0529934      0.619551      0.619551      0.619551     0.0529934       8.08894
     0.066875       10.4732         1e-05      0.006368      0.571912       4.62999      0.381275      0.381275     0.0568009      0.617474      0.617474      0.617474     0.0568009       8.93376
     0.068125       10.4615         1e-05    0.00616054      0.567839       4.71824      0.378559      0.378559     0.0605765      0.615272      0.615272      0.615272     0.0605765       9.84899
     0.069375       10.4486         1e-05    0.00593932      0.563573         4.821      0.375715      0.375715     0.0643413      0.612956      0.612956      0.612956     0.0643413       10.8514
     0.070625       10.4344         1e-05    0.00570485      0.559143       4.94091      0.372762      0.372762     0.0681201      0.610543      0.610543      0.610543     0.0681201       11.9617
     0.071875       10.4187         1e-05    0.00545774      0.554588        5.0812      0.369725      0.369725     0.0719414       0.60805       0.60805       0.60805     0.0719414       13.2057
     0.073125       10.4014         1e-05    0.00519881      0.549951       5.24593      0.366634      0.366634     0.0758373      0.605503      0.605503      0.605503     0.0758373       14.6156
     0.074375       10.3822         1e-05    0.00492904      0.545287       5.44017      0.363525      0.363525     0.0798431       0.60293       0.60293       0.60293     0.0798431       16.2314
     0.075625       10.3608         1e-05    0.00464969      0.540665       5.67035      0.360443      0.360443     0.0839963      0.600369      0.600369      0.600369     0.0839963       18.1038
     0.076875       10.3369         1e-05    0.00436226      0.536167       5.94467      0.357445      0.357445     0.0883362      0.597867      0.597867      0.597867     0.0883362       20.2966
     0.078125         10.31         1e-05    0.00406856      0.531896        6.2737      0.354597      0.354597     0.0929026      0.595481      0.595481      0.595481     0.0929026       22.8905
     0.079375       10.2797         1e-05    0.00377072      0.527978       6.67117      0.351985      0.351985     0.0977344      0.593283      0.593283      0.593283     0.0977344       25.9882
     0.080625       10.2451         1e-05    0.00347121      0.524569       7.15516      0.349713      0.349713      0.102868      0.591365      0.591365      0.591365      0.102868       29.7202
     0.081875       10.2054         1e-05    0.00317282      0.521863       7.74964      0.347909      0.347909      0.108336      0.589838      0.589838      0.589838      0.108336       34.2529
     0.083125       10.1594         1e-05    0.00287858      0.520095       8.48676       0.34673       0.34673      0.114163      0.588838      0.588838      0.588838      0.114163       39.7976
     0.084375       10.1059         1e-05    0.00259169       0.51955        9.4101      0.346367      0.346367      0.120365       0.58853       0.58853       0.58853      0.120365       46.6226
     0.085625       10.0429         1e-05    0.00231534      0.520566       10.5794      0.347044      0.347044      0.126948      0.589105      0.589105      0.589105      0.126948       55.0672
     0.086875        9.9682         1e-05    0.00205245       0.52353       12.0774       0.34902       0.34902      0.133906      0.590779      0.590779      0.590779      0.133906       65.5614
     0.088125       9.87898         1e-05    0.00180539      0.528871       14.0211       0.35258       0.35258      0.141218      0.593785      0.593785      0.593785      0.141218       78.6558
     0.089375       9.77156         1e-05    0.00157563      0.537031       16.5788       0.35802       0.35802      0.148854      0.598348      0.598348      0.598348      0.148854       95.0764
     0.090625       9.64129         1e-05     0.0013634      0.548435       20.0017      0.365623      0.365623      0.156777      0.604668      0.604668      0.604668      0.156777        115.84
     0.091875       9.48196         1e-05    0.00116751      0.563452        24.685      0.375635      0.375635       0.16495      0.612891      0.612891      0.612891       0.16495       142.504
     0.093125       9.28502         1e-05   0.000985258      0.582377       31.2991      0.388251      0.388251       0.17335      0.623098      0.623098      0.623098       0.17335       177.748
     0.094375       9.03759         1e-05   0.000812637      0.605487       41.1087      0.403658      0.403658      0.182012      0.635341      0.635341      0.635341      0.182012       226.768
     0.095625       8.71811         1e-05   0.000644773      0.633274         56.86      0.422183      0.422183      0.191138      0.649756      0.649756      0.649756      0.191138       301.112
     0.096875       8.28481         1e-05   0.000476885      0.667069       85.7777      0.444713      0.444713      0.201488      0.666868      0.666868      0.666868      0.201488       431.558
     0.098125       7.63921         1e-05   0.000306501      0.710311       153.149      0.473541      0.473541      0.219413      0.688143      0.688143      0.688143      0.219413       740.007
     0.099375        6.4348         1e-05   0.000129139      0.721095         392.8       0.48073       0.48073      0.670708      0.693347      0.693347      0.693347      0.670708        5629.6
