/*--------------------------------*- C++ -*----------------------------------*\
  =========                 |
  \\      /  F ield         | OpenFOAM: The Open Source CFD Toolbox
   \\    /   O peration     | Website:  https://openfoam.org
    \\  /    A nd           | Version:  12
     \\/     M anipulation  |
\*---------------------------------------------------------------------------*/
FoamFile
{
    format      ascii;
    class       volVectorField;
    location    "19.3";
    object      zeta;
}
// * * * * * * * * * * * * * * * * * * * * * * * * * * * * * * * * * * * * * //

dimensions      [0 1 0 0 0 0 0];

internalField   uniform (0 0 0);

boundaryField
{
    freeSurface
    {
        type            calculated;
        value           nonuniform List<vector> 
181
(
(0 -0.00189545 0)
(0 -0.00189632 0)
(0 -0.0018961 0)
(0 -0.00189579 0)
(0 -0.00189502 0)
(0 -0.00189467 0)
(0 -0.00189364 0)
(0 -0.00189318 0)
(0 -0.00146904 0)
(0 -0.00145961 0)
(0 -0.00145598 0)
(0 -0.00144633 0)
(0 -0.00143244 0)
(0 -0.00141666 0)
(0 -0.00139408 0)
(0 -0.00136865 0)
(0 -0.00133539 0)
(0 -0.00129716 0)
(0 -0.00125198 0)
(0 -0.00120109 0)
(0 -0.00114373 0)
(0 -0.00108019 0)
(0 -0.00101027 0)
(0 -0.00093382 0)
(0 -0.000851061 0)
(0 -0.000762265 0)
(0 -0.000668101 0)
(0 -0.000569076 0)
(0 -0.000465614 0)
(0 -0.000358273 0)
(0 -0.000247602 0)
(0 -0.000134333 0)
(0 -1.93613e-05 0)
(0 9.6325e-05 0)
(0 0.000211667 0)
(0 0.000325625 0)
(0 0.000437114 0)
(0 0.00054502 0)
(0 0.000648132 0)
(0 0.000745102 0)
(0 0.000834768 0)
(0 0.000915977 0)
(0 0.000987604 0)
(0 0.00104857 0)
(0 0.00109805 0)
(0 0.0011351 0)
(0 0.00115877 0)
(0 0.00116858 0)
(0 0.00116389 0)
(0 0.00114438 0)
(0 0.00110976 0)
(0 0.00106012 0)
(0 0.00099563 0)
(0 0.000916695 0)
(0 0.000824021 0)
(0 0.00071854 0)
(0 0.000601514 0)
(0 0.000474376 0)
(0 0.000338945 0)
(0 0.000197157 0)
(0 5.11547e-05 0)
(0 -9.67925e-05 0)
(0 -0.000244136 0)
(0 -0.000388178 0)
(0 -0.000526458 0)
(0 -0.000656339 0)
(0 -0.000775075 0)
(0 -0.000879927 0)
(0 -0.000968712 0)
(0 -0.00103879 0)
(0 -0.00108858 0)
(0 -0.00111601 0)
(0 -0.00112009 0)
(0 -0.0011 0)
(0 -0.00105556 0)
(0 -0.000987169 0)
(0 -0.000895846 0)
(0 -0.000783057 0)
(0 -0.000651031 0)
(0 -0.00050256 0)
(0 -0.000340996 0)
(0 -0.000170297 0)
(0 5.14297e-06 0)
(0 0.000180686 0)
(0 0.000351457 0)
(0 0.000512266 0)
(0 0.000657909 0)
(0 0.00078363 0)
(0 0.00088524 0)
(0 0.000958688 0)
(0 0.00100085 0)
(0 0.00100977 0)
(0 0.000983839 0)
(0 0.000923243 0)
(0 0.000829252 0)
(0 0.000704385 0)
(0 0.000552645 0)
(0 0.000378973 0)
(0 0.000190021 0)
(0 -7.25393e-06 0)
(0 -0.000205017 0)
(0 -0.000395133 0)
(0 -0.000569224 0)
(0 -0.000719257 0)
(0 -0.00083778 0)
(0 -0.000918963 0)
(0 -0.000957623 0)
(0 -0.000951134 0)
(0 -0.000898622 0)
(0 -0.000801788 0)
(0 -0.00066448 0)
(0 -0.000493063 0)
(0 -0.000296325 0)
(0 -8.4423e-05 0)
(0 0.000130633 0)
(0 0.000337638 0)
(0 0.000523465 0)
(0 0.000676411 0)
(0 0.000786574 0)
(0 0.00084579 0)
(0 0.000848988 0)
(0 0.000794815 0)
(0 0.000685803 0)
(0 0.000528421 0)
(0 0.000333118 0)
(0 0.000113631 0)
(0 -0.000113331 0)
(0 -0.000332245 0)
(0 -0.000525464 0)
(0 -0.000676681 0)
(0 -0.000772642 0)
(0 -0.000804466 0)
(0 -0.000768027 0)
(0 -0.00066515 0)
(0 -0.000503755 0)
(0 -0.000297416 0)
(0 -6.5186e-05 0)
(0 0.000171488 0)
(0 0.000391073 0)
(0 0.000570572 0)
(0 0.000690393 0)
(0 0.000737258 0)
(0 0.000704501 0)
(0 0.000594654 0)
(0 0.000419236 0)
(0 0.000198404 0)
(0 -4.04994e-05 0)
(0 -0.000271757 0)
(0 -0.000466149 0)
(0 -0.000598609 0)
(0 -0.00065204 0)
(0 -0.000619485 0)
(0 -0.000505721 0)
(0 -0.000327663 0)
(0 -0.000113553 0)
(0 0.000106525 0)
(0 0.000301145 0)
(0 0.000440486 0)
(0 0.000504489 0)
(0 0.000484877 0)
(0 0.0003861 0)
(0 0.000226676 0)
(0 3.79635e-05 0)
(0 -0.000151677 0)
(0 -0.000307905 0)
(0 -0.00040475 0)
(0 -0.00042752 0)
(0 -0.000374551 0)
(0 -0.000257714 0)
(0 -0.000103939 0)
(0 6.21579e-05 0)
(0 0.000208088 0)
(0 0.000308465 0)
(0 0.000347444 0)
(0 0.000320369 0)
(0 0.000236848 0)
(0 0.000113037 0)
(0 -2.79111e-05 0)
(0 -0.000161256 0)
(0 -0.000264978 0)
(0 -0.000322036 0)
)
;
    }
    walls
    {
        type            calculated;
        value           uniform (0 0 0);
    }
    floatingObject
    {
        type            calculated;
        value           uniform (0 0 0);
    }
    frontAndBack
    {
        type            empty;
    }
}


// ************************************************************************* //
