/*--------------------------------*- C++ -*----------------------------------*\
  =========                 |
  \\      /  F ield         | OpenFOAM: The Open Source CFD Toolbox
   \\    /   O peration     | Website:  https://openfoam.org
    \\  /    A nd           | Version:  12
     \\/     M anipulation  |
\*---------------------------------------------------------------------------*/
FoamFile
{
    format      ascii;
    class       volScalarField;
    location    "1";
    object      p;
}
// * * * * * * * * * * * * * * * * * * * * * * * * * * * * * * * * * * * * * //

dimensions      [0 2 -2 0 0 0 0];

internalField   nonuniform List<scalar> 
400
(
-1.7974e-08
6.12098e-06
2.50471e-05
5.5919e-05
9.97657e-05
0.000158101
0.000232879
0.000326538
0.00044199
0.000582564
0.000751754
0.000952745
0.00118663
0.00145555
0.00175509
0.00206913
0.00237559
0.00263958
0.00282288
0.00289759
-7.71985e-06
-1.82452e-06
1.654e-05
4.63429e-05
8.86511e-05
0.00014496
0.000217204
0.000307824
0.000419793
0.000556594
0.000722086
0.000920128
0.00115379
0.00142537
0.00173073
0.00205949
0.00238586
0.00267052
0.00286814
0.00294613
-3.31209e-05
-2.79443e-05
-1.09992e-05
1.65702e-05
5.57953e-05
0.000108119
0.000175444
0.000260226
0.000365575
0.000495372
0.000654286
0.000847618
0.00108076
0.00135805
0.0016798
0.00203957
0.00240965
0.00274145
0.00297251
0.00305856
-7.42061e-05
-7.0071e-05
-5.53184e-05
-3.1166e-05
3.34609e-06
4.95678e-05
0.000109324
0.000185058
0.000280016
0.000398487
0.000546084
0.000729925
0.000958441
0.00124009
0.00158104
0.00198652
0.00242691
0.00283991
0.00313012
0.00323181
-0.000129833
-0.000127038
-0.000115193
-9.55858e-05
-6.73804e-05
-2.94014e-05
1.99797e-05
8.30348e-05
0.000162937
0.000264151
0.000392987
0.000558291
0.000772006
0.00104777
0.00139467
0.00185888
0.0023973
0.00293914
0.00332571
0.00346497
-0.000198417
-0.000197189
-0.000188913
-0.000174897
-0.000154513
-0.000126886
-9.07781e-05
-4.43891e-05
1.49459e-05
9.125e-05
0.00019069
0.000322872
0.000502757
0.000754098
0.00111608
0.0015845
0.00222663
0.0029614
0.00350258
0.00375218
-0.000277869
-0.000278447
-0.00027423
-0.000266681
-0.000255424
-0.000240047
-0.000219951
-0.00019421
-0.000161333
-0.000118836
-6.24645e-05
1.51363e-05
0.000126467
0.000293064
0.000554395
0.000983154
0.00166579
0.00262011
0.00350089
0.00400237
-0.000365771
-0.000368357
-0.000368489
-0.000367963
-0.000366738
-0.000365014
-0.000363097
-0.000361375
-0.000360285
-0.000360218
-0.000361278
-0.000362702
-0.000362577
-0.000360628
-0.000352748
-0.000281008
7.88509e-05
0.00119449
0.00279335
0.0036335
-0.000459572
-0.000464183
-0.000468675
-0.000475288
-0.000484381
-0.00049689
-0.000514233
-0.000538486
-0.000572696
-0.000621419
-0.000691665
-0.000794401
-0.000948621
-0.00120017
-0.00165708
-0.00241475
-0.00301095
-0.00228942
-0.00021773
0.00145311
-0.000556677
-0.000563112
-0.000571589
-0.00058488
-0.000603761
-0.000629948
-0.000666044
-0.000715952
-0.000785632
-0.000884471
-0.00102794
-0.00124271
-0.00157816
-0.00214217
-0.00316141
-0.00493155
-0.00708399
-0.00691774
-0.00524839
-0.00239263
-0.00065468
-0.000662489
-0.00067409
-0.000692908
-0.000720094
-0.000758085
-0.000810546
-0.000882993
-0.000984013
-0.00112736
-0.00133603
-0.00165014
-0.00214291
-0.0029746
-0.00438821
-0.0067417
-0.0102303
-0.010257
-0.00900711
-0.006234
-0.000751595
-0.000760004
-0.000773297
-0.000795747
-0.00082879
-0.000875408
-0.000939979
-0.00102896
-0.00115239
-0.00132628
-0.00157681
-0.00194854
-0.00252052
-0.00342256
-0.00497031
-0.00704592
-0.0113443
-0.0103446
-0.00999262
-0.00738611
-0.000846449
-0.000854252
-0.000867007
-0.00089035
-0.000925995
-0.000977038
-0.00104816
-0.00114565
-0.00127945
-0.00146493
-0.00172587
-0.0020975
-0.00267853
-0.00340398
-0.00475518
-0.00636767
-0.0086059
-0.00853579
-0.008338
-0.00624235
-0.000938935
-0.000944364
-0.000953314
-0.000974202
-0.00100866
-0.0010594
-0.00113123
-0.00122887
-0.0013605
-0.00153872
-0.00178362
-0.00208851
-0.00256152
-0.0031919
-0.0041179
-0.00509914
-0.00627438
-0.00612942
-0.00591558
-0.00427336
-0.00103266
-0.00103184
-0.00103193
-0.00104615
-0.00107533
-0.00112239
-0.00118912
-0.0012796
-0.0013993
-0.00155509
-0.00175921
-0.00202032
-0.00237023
-0.0028059
-0.00335859
-0.00384634
-0.00432104
-0.00412337
-0.00421987
-0.00238728
-0.00113212
-0.00111804
-0.00110159
-0.00110503
-0.00112591
-0.00116508
-0.00122281
-0.00130252
-0.00140692
-0.00153715
-0.00170383
-0.0019064
-0.00215184
-0.00242107
-0.00271546
-0.00289892
-0.00299
-0.00268545
-0.0030174
-0.000848194
-0.00125768
-0.00120402
-0.00116338
-0.00115234
-0.0011608
-0.00118905
-0.00123723
-0.0013062
-0.00139485
-0.00150361
-0.0016369
-0.00179003
-0.00195946
-0.00212139
-0.0022636
-0.00229655
-0.00224465
-0.00178719
-0.00219553
0.000697449
-0.00144861
-0.00129298
-0.00122022
-0.00119216
-0.00118667
-0.00120354
-0.00123864
-0.00129593
-0.00137032
-0.00146367
-0.00157289
-0.0016944
-0.00182199
-0.00192936
-0.00199656
-0.00195792
-0.00179104
-0.00125425
-0.00129282
0.00341816
-0.00186884
-0.00149857
-0.00135225
-0.00126439
-0.00122939
-0.00124691
-0.00126785
-0.00132021
-0.00138019
-0.00146636
-0.00155658
-0.00166531
-0.00177142
-0.00186626
-0.00193442
-0.00201059
-0.00202771
-0.0012745
0.00163847
0.0130081
-0.00284635
-0.000962003
-0.000835116
-0.000930127
-0.000982016
-0.00100818
-0.00105218
-0.00111198
-0.001199
-0.00128387
-0.00139862
-0.00151216
-0.00164245
-0.0017384
-0.0017648
-0.00156432
-0.000683753
0.00275508
0.0137008
0.0349806
)
;

boundaryField
{
    movingWall
    {
        type            zeroGradient;
    }
    fixedWalls
    {
        type            zeroGradient;
    }
    frontAndBack
    {
        type            empty;
    }
}


// ************************************************************************* //
