/*--------------------------------*- C++ -*----------------------------------*\
  =========                 |
  \\      /  F ield         | OpenFOAM: The Open Source CFD Toolbox
   \\    /   O peration     | Website:  https://openfoam.org
    \\  /    A nd           | Version:  12
     \\/     M anipulation  |
\*---------------------------------------------------------------------------*/
FoamFile
{
    format      ascii;
    class       volVectorField;
    location    "1";
    object      U;
}
// * * * * * * * * * * * * * * * * * * * * * * * * * * * * * * * * * * * * * //

dimensions      [0 1 -1 0 0 0 0];

internalField   nonuniform List<vector> 
400
(
(-0.000438524 0.000433047 0)
(-0.00153873 0.00057093 0)
(-0.00285098 0.000593509 0)
(-0.00416174 0.000610713 0)
(-0.00550381 0.000632222 0)
(-0.00688522 0.000656519 0)
(-0.00830637 0.000680529 0)
(-0.00976026 0.000699587 0)
(-0.0112282 0.000706845 0)
(-0.0126738 0.000692724 0)
(-0.0140377 0.000643003 0)
(-0.01524 0.000536639 0)
(-0.0161312 0.000359084 0)
(-0.016538 0.000140537 0)
(-0.0163237 -0.000255124 0)
(-0.0151838 -0.000726038 0)
(-0.0130079 -0.00124992 0)
(-0.00976348 -0.00173168 0)
(-0.00567531 -0.00200964 0)
(-0.00172986 -0.00168918 0)
(-0.000603093 0.00156024 0)
(-0.00208618 0.00202068 0)
(-0.00382621 0.00208827 0)
(-0.00555163 0.00213183 0)
(-0.00729908 0.0021836 0)
(-0.00907178 0.0022392 0)
(-0.0108654 0.00228918 0)
(-0.0126678 0.00231895 0)
(-0.0144541 0.0023067 0)
(-0.0161812 0.0022215 0)
(-0.0177814 0.00202089 0)
(-0.0191565 0.00165042 0)
(-0.0201667 0.00105398 0)
(-0.0206274 0.000177312 0)
(-0.0202886 -0.0010262 0)
(-0.0188792 -0.00255352 0)
(-0.0161906 -0.00425972 0)
(-0.0121607 -0.00583991 0)
(-0.0070569 -0.00673742 0)
(-0.00213716 -0.00564491 0)
(-0.000619529 0.0029312 0)
(-0.0021505 0.00376238 0)
(-0.00394744 0.00387728 0)
(-0.00572651 0.00394162 0)
(-0.00752874 0.00401517 0)
(-0.00935957 0.00409195 0)
(-0.0112187 0.00415691 0)
(-0.0131004 0.00418629 0)
(-0.014989 0.00414417 0)
(-0.0168529 0.00397885 0)
(-0.018637 0.00361926 0)
(-0.0202525 0.00297384 0)
(-0.021564 0.00193603 0)
(-0.0223743 0.000395092 0)
(-0.0224061 -0.00173873 0)
(-0.0212868 -0.0045082 0)
(-0.018629 -0.00770438 0)
(-0.0141943 -0.0107591 0)
(-0.00823371 -0.0125064 0)
(-0.00244321 -0.0104236 0)
(-0.000607956 0.00427257 0)
(-0.00212368 0.00547803 0)
(-0.00391146 0.00564173 0)
(-0.00568302 0.00573152 0)
(-0.00748469 0.00583581 0)
(-0.00932747 0.00594841 0)
(-0.0112193 0.00605097 0)
(-0.0131664 0.00611364 0)
(-0.0151691 0.00609036 0)
(-0.017217 0.00591293 0)
(-0.01928 0.0054838 0)
(-0.0212945 0.00467019 0)
(-0.0231428 0.00330264 0)
(-0.0246229 0.00118648 0)
(-0.0254305 -0.00186293 0)
(-0.025028 -0.00605077 0)
(-0.0226891 -0.0111643 0)
(-0.0177649 -0.016344 0)
(-0.0103657 -0.019375 0)
(-0.00296849 -0.0160132 0)
(-0.000588449 0.00558191 0)
(-0.00207128 0.00716575 0)
(-0.00383184 0.00738136 0)
(-0.0055787 0.00750201 0)
(-0.00736364 0.00764743 0)
(-0.00920443 0.00781399 0)
(-0.0111195 0.00798393 0)
(-0.0131303 0.00812621 0)
(-0.0152592 0.00819032 0)
(-0.017526 0.00809752 0)
(-0.01994 0.00772911 0)
(-0.0224846 0.0069119 0)
(-0.0250869 0.00540296 0)
(-0.0275663 0.00288074 0)
(-0.029661 -0.00106158 0)
(-0.0306402 -0.00676752 0)
(-0.0292402 -0.0144493 0)
(-0.0239836 -0.0229902 0)
(-0.0144235 -0.0282554 0)
(-0.00396817 -0.023206 0)
(-0.000564116 0.00684995 0)
(-0.00200287 0.00881907 0)
(-0.00372273 0.00908848 0)
(-0.00543081 0.00924473 0)
(-0.00718247 0.0094411 0)
(-0.00900224 0.00968002 0)
(-0.0109196 0.00994894 0)
(-0.0129733 0.0102221 0)
(-0.0152115 0.0104532 0)
(-0.0176922 0.0105643 0)
(-0.0204801 0.0104292 0)
(-0.023636 0.00984858 0)
(-0.0271913 0.00851585 0)
(-0.0311084 0.00596669 0)
(-0.0351107 0.00151512 0)
(-0.0385334 -0.00566599 0)
(-0.0396 -0.0166694 0)
(-0.0350731 -0.0305531 0)
(-0.0227696 -0.0404258 0)
(-0.00645158 -0.0333568 0)
(-0.0005391 0.00807095 0)
(-0.00191469 0.0104199 0)
(-0.00358506 0.0107493 0)
(-0.0052369 0.0109423 0)
(-0.00693278 0.0111952 0)
(-0.00870195 0.0115203 0)
(-0.0105838 0.0119153 0)
(-0.0126336 0.0123675 0)
(-0.014926 0.0128459 0)
(-0.0175611 0.0132901 0)
(-0.0206703 0.0135908 0)
(-0.0244194 0.0135565 0)
(-0.0290036 0.012861 0)
(-0.0346269 0.0109587 0)
(-0.0414155 0.00688682 0)
(-0.0491731 -0.00118177 0)
(-0.0554734 -0.0155113 0)
(-0.0545127 -0.0384522 0)
(-0.0379853 -0.056926 0)
(-0.0131503 -0.0494265 0)
(-0.000509355 0.00923154 0)
(-0.00181199 0.0119602 0)
(-0.00342165 0.012349 0)
(-0.00499718 0.0125734 0)
(-0.00660893 0.0128803 0)
(-0.00828763 0.0132954 0)
(-0.0100793 0.0138319 0)
(-0.0120514 0.0144973 0)
(-0.0143 0.0152885 0)
(-0.0169621 0.0161831 0)
(-0.0202352 0.0171231 0)
(-0.0244013 0.0179827 0)
(-0.0298593 0.0185145 0)
(-0.0372535 0.0182696 0)
(-0.0476482 0.0162548 0)
(-0.061499 0.00956832 0)
(-0.0759895 -0.00880153 0)
(-0.0763744 -0.0473455 0)
(-0.0535124 -0.0795024 0)
(-0.0257461 -0.0799808 0)
(-0.00047651 0.0103244 0)
(-0.00170223 0.0134325 0)
(-0.00324089 0.013872 0)
(-0.00471995 0.014114 0)
(-0.00621591 0.0144608 0)
(-0.00775697 0.0149547 0)
(-0.00939046 0.0156282 0)
(-0.0111881 0.016515 0)
(-0.0132552 0.0176498 0)
(-0.0157474 0.0190671 0)
(-0.0189026 0.0207961 0)
(-0.023086 0.0228496 0)
(-0.0288441 0.025203 0)
(-0.037151 0.0277554 0)
(-0.05006 0.0296257 0)
(-0.0692357 0.025301 0)
(-0.0859354 -0.000175621 0)
(-0.0777116 -0.0620223 0)
(-0.0549998 -0.114872 0)
(-0.0327066 -0.13012 0)
(-0.000445802 0.0113492 0)
(-0.00159756 0.0148335 0)
(-0.00305988 0.0153056 0)
(-0.00442507 0.0155397 0)
(-0.00577402 0.0158978 0)
(-0.00712799 0.0164404 0)
(-0.00852944 0.0172205 0)
(-0.0100439 0.0183003 0)
(-0.011768 0.0197571 0)
(-0.0138461 0.021693 0)
(-0.0165033 0.0242529 0)
(-0.0200937 0.0276535 0)
(-0.0251135 0.0322082 0)
(-0.0323797 0.0380981 0)
(-0.044052 0.0434224 0)
(-0.0609436 0.0390763 0)
(-0.0732834 0.00413318 0)
(-0.0568369 -0.0795182 0)
(-0.0477378 -0.147177 0)
(-0.0120502 -0.180624 0)
(-0.000425292 0.012316 0)
(-0.00151692 0.0161666 0)
(-0.00290721 0.0166421 0)
(-0.00414683 0.0168293 0)
(-0.00532182 0.0171534 0)
(-0.00644313 0.0176936 0)
(-0.00754277 0.0185214 0)
(-0.00866925 0.0197226 0)
(-0.00988969 0.0214091 0)
(-0.0112974 0.0237388 0)
(-0.0130278 0.0269491 0)
(-0.0152813 0.0314134 0)
(-0.0183028 0.0376568 0)
(-0.0226584 0.0459047 0)
(-0.028942 0.052609 0)
(-0.0376015 0.0455443 0)
(-0.0443213 0.00655042 0)
(-0.0214724 -0.0844742 0)
(-0.0406486 -0.157821 0)
(0.000850661 -0.209075 0)
(-0.000429467 0.0132556 0)
(-0.00149119 0.0174562 0)
(-0.00282485 0.0178873 0)
(-0.00393502 0.017969 0)
(-0.00491675 0.0181971 0)
(-0.00576961 0.0186647 0)
(-0.00651413 0.0194559 0)
(-0.00717661 0.0206695 0)
(-0.00778445 0.0224362 0)
(-0.00836217 0.02494 0)
(-0.00892561 0.0284597 0)
(-0.00946368 0.0334346 0)
(-0.00983507 0.0405182 0)
(-0.0102449 0.0499431 0)
(-0.00963336 0.055494 0)
(-0.00541903 0.0459565 0)
(-0.0118171 0.00537144 0)
(0.0176129 -0.0782665 0)
(-0.0238649 -0.153105 0)
(0.00555949 -0.222633 0)
(-0.000466745 0.0142092 0)
(-0.00155314 0.018714 0)
(-0.00287313 0.0190355 0)
(-0.0038583 0.0189444 0)
(-0.00463379 0.0189994 0)
(-0.00519514 0.0193116 0)
(-0.00555201 0.0199665 0)
(-0.00571206 0.0210646 0)
(-0.00566022 0.022717 0)
(-0.0053537 0.0250915 0)
(-0.00469489 0.0284134 0)
(-0.00345267 0.0329602 0)
(-0.00144087 0.0392202 0)
(0.00236926 0.0471669 0)
(0.00682989 0.0516499 0)
(0.0198837 0.0411028 0)
(0.0124971 -0.000485149 0)
(0.0382187 -0.0692921 0)
(-0.0113494 -0.127786 0)
(0.0158396 -0.224058 0)
(-0.000629609 0.0153111 0)
(-0.00181553 0.0200778 0)
(-0.00315332 0.0201659 0)
(-0.00400097 0.0197719 0)
(-0.00455373 0.019569 0)
(-0.00480364 0.0196365 0)
(-0.00477849 0.0200537 0)
(-0.00444566 0.02089 0)
(-0.00378574 0.0222612 0)
(-0.00271507 0.0242655 0)
(-0.00112735 0.0270192 0)
(0.00133401 0.0307166 0)
(0.00498805 0.035617 0)
(0.0109861 0.0417779 0)
(0.0169771 0.0440196 0)
(0.0313034 0.0332167 0)
(0.0248597 -0.00171441 0)
(0.0440457 -0.0634977 0)
(-0.00917518 -0.114179 0)
(0.0207635 -0.216906 0)
(-0.000705632 0.0166459 0)
(-0.00222129 0.0214152 0)
(-0.00369287 0.0210998 0)
(-0.0044532 0.0203654 0)
(-0.00478934 0.0198185 0)
(-0.00475949 0.0195777 0)
(-0.00429107 0.0196711 0)
(-0.00352782 0.0201948 0)
(-0.00234517 0.0211306 0)
(-0.000686221 0.0225791 0)
(0.00159264 0.0245863 0)
(0.00489254 0.0272022 0)
(0.00921949 0.0304262 0)
(0.0159775 0.0339747 0)
(0.0219638 0.0346225 0)
(0.0350546 0.0243391 0)
(0.029576 -0.00131387 0)
(0.0423904 -0.0504798 0)
(-0.0113215 -0.10146 0)
(0.0247538 -0.215229 0)
(-0.00169401 0.0185123 0)
(-0.00333181 0.0232694 0)
(-0.00498478 0.0223452 0)
(-0.00538184 0.0209728 0)
(-0.00536864 0.0199348 0)
(-0.00498162 0.0192542 0)
(-0.00421525 0.0189471 0)
(-0.00298594 0.0190681 0)
(-0.00133008 0.0195589 0)
(0.000784793 0.0204524 0)
(0.00352293 0.0217134 0)
(0.00718262 0.0233711 0)
(0.0114824 0.0251556 0)
(0.0179632 0.0268609 0)
(0.0229981 0.0269731 0)
(0.0335245 0.0184208 0)
(0.0286285 0.00032907 0)
(0.0379882 -0.0365539 0)
(-0.0132147 -0.0923284 0)
(0.0326775 -0.214646 0)
(-0.00182646 0.0220261 0)
(-0.00496832 0.0247914 0)
(-0.00662137 0.0227114 0)
(-0.00663697 0.0208896 0)
(-0.00648365 0.0194855 0)
(-0.00579498 0.0184417 0)
(-0.00473357 0.0177418 0)
(-0.00321548 0.0173079 0)
(-0.00126218 0.0173101 0)
(0.00118779 0.0176318 0)
(0.00423495 0.0182423 0)
(0.00809839 0.0190425 0)
(0.0123132 0.0198634 0)
(0.0183639 0.0202324 0)
(0.0225626 0.0205414 0)
(0.0310591 0.0137637 0)
(0.026224 0.00165157 0)
(0.0328574 -0.0223818 0)
(-0.011264 -0.0881439 0)
(0.03909 -0.215862 0)
(-0.00611452 0.0267013 0)
(-0.0107037 0.0290621 0)
(-0.0101595 0.0246179 0)
(-0.00902431 0.0216719 0)
(-0.00782737 0.0195303 0)
(-0.006315 0.0181835 0)
(-0.00462632 0.016978 0)
(-0.00273383 0.0163929 0)
(-0.000518254 0.01576 0)
(0.00203711 0.0156085 0)
(0.00507932 0.0153052 0)
(0.0086756 0.0154562 0)
(0.0124544 0.0152408 0)
(0.0176792 0.0150652 0)
(0.0205309 0.0156542 0)
(0.0263529 0.0122789 0)
(0.0226066 0.00810776 0)
(0.0294902 -0.0100686 0)
(0.00105727 -0.0910145 0)
(0.0530547 -0.213257 0)
(-0.00970618 0.0408803 0)
(-0.0135561 0.0219746 0)
(-0.00825632 0.0166448 0)
(-0.00538918 0.0156435 0)
(-0.00199879 0.0142175 0)
(0.000748293 0.01283 0)
(0.004181 0.011591 0)
(0.00705444 0.0108423 0)
(0.0109252 0.0101769 0)
(0.0139915 0.0097526 0)
(0.0183605 0.00939739 0)
(0.0218686 0.0092186 0)
(0.0263071 0.00895974 0)
(0.0311139 0.00907672 0)
(0.034186 0.00994551 0)
(0.041666 0.00661571 0)
(0.0393466 -0.000298231 0)
(0.047951 -0.0233678 0)
(0.0387637 -0.0996203 0)
(0.0746579 -0.173394 0)
(0.0471737 0.0434564 0)
(0.0541524 0.0329199 0)
(0.0790215 0.0249995 0)
(0.0962632 0.0211473 0)
(0.11652 0.0178325 0)
(0.126097 0.0167404 0)
(0.142586 0.014147 0)
(0.150141 0.0139716 0)
(0.164527 0.0115606 0)
(0.171249 0.012142 0)
(0.183398 0.00964749 0)
(0.190381 0.0108734 0)
(0.199933 0.00827256 0)
(0.207512 0.00991013 0)
(0.213738 0.00721773 0)
(0.220526 0.00908984 0)
(0.224459 0.00420787 0)
(0.21823 -0.0017983 0)
(0.189752 -0.0125406 0)
(0.14343 -0.0317297 0)
)
;

boundaryField
{
    movingWall
    {
        type            fixedValue;
        value           uniform (1 0 0);
    }
    fixedWalls
    {
        type            noSlip;
    }
    frontAndBack
    {
        type            empty;
    }
}


// ************************************************************************* //
