/*--------------------------------*- C++ -*----------------------------------*\
  =========                 |
  \\      /  F ield         | OpenFOAM: The Open Source CFD Toolbox
   \\    /   O peration     | Website:  https://openfoam.org
    \\  /    A nd           | Version:  12
     \\/     M anipulation  |
\*---------------------------------------------------------------------------*/
FoamFile
{
    format      ascii;
    class       volVectorField;
    location    "5.6";
    object      zeta;
}
// * * * * * * * * * * * * * * * * * * * * * * * * * * * * * * * * * * * * * //

dimensions      [0 1 0 0 0 0 0];

internalField   uniform (0 0 0);

boundaryField
{
    freeSurface
    {
        type            calculated;
        value           nonuniform List<vector> 
181
(
(0 -0.00259927 0)
(0 -0.00259899 0)
(0 -0.00259822 0)
(0 -0.00259834 0)
(0 -0.00259708 0)
(0 -0.00259734 0)
(0 -0.00259643 0)
(0 -0.00259638 0)
(0 2.56462e-06 0)
(0 -3.80355e-06 0)
(0 -1.45383e-05 0)
(0 -2.78558e-05 0)
(0 -4.71845e-05 0)
(0 -7.07103e-05 0)
(0 -9.80106e-05 0)
(0 -0.000128622 0)
(0 -0.000162001 0)
(0 -0.00019773 0)
(0 -0.000235202 0)
(0 -0.000273997 0)
(0 -0.000313538 0)
(0 -0.000353182 0)
(0 -0.000392377 0)
(0 -0.000430605 0)
(0 -0.000467368 0)
(0 -0.000502234 0)
(0 -0.000534736 0)
(0 -0.000564425 0)
(0 -0.000590874 0)
(0 -0.000613702 0)
(0 -0.000632528 0)
(0 -0.000647041 0)
(0 -0.000656967 0)
(0 -0.000662018 0)
(0 -0.000662033 0)
(0 -0.000656859 0)
(0 -0.000646358 0)
(0 -0.00063051 0)
(0 -0.000609322 0)
(0 -0.0005829 0)
(0 -0.000551403 0)
(0 -0.00051504 0)
(0 -0.000474108 0)
(0 -0.000428959 0)
(0 -0.000380034 0)
(0 -0.000327843 0)
(0 -0.000272923 0)
(0 -0.000215897 0)
(0 -0.000157429 0)
(0 -9.82202e-05 0)
(0 -3.90451e-05 0)
(0 1.9356e-05 0)
(0 7.61713e-05 0)
(0 0.000130555 0)
(0 0.000181764 0)
(0 0.000229024 0)
(0 0.000271562 0)
(0 0.000308704 0)
(0 0.000339866 0)
(0 0.000364472 0)
(0 0.00038205 0)
(0 0.000392294 0)
(0 0.000395008 0)
(0 0.000390071 0)
(0 0.000377577 0)
(0 0.00035772 0)
(0 0.000330876 0)
(0 0.000297569 0)
(0 0.000258468 0)
(0 0.000214369 0)
(0 0.000166224 0)
(0 0.000115088 0)
(0 6.21094e-05 0)
(0 8.54247e-06 0)
(0 -4.43497e-05 0)
(0 -9.52943e-05 0)
(0 -0.000143004 0)
(0 -0.000186274 0)
(0 -0.000223945 0)
(0 -0.00025503 0)
(0 -0.000278693 0)
(0 -0.000294279 0)
(0 -0.000301353 0)
(0 -0.000299747 0)
(0 -0.000289544 0)
(0 -0.000271093 0)
(0 -0.000245041 0)
(0 -0.000212259 0)
(0 -0.000173846 0)
(0 -0.000131101 0)
(0 -8.5522e-05 0)
(0 -3.86994e-05 0)
(0 7.64401e-06 0)
(0 5.18508e-05 0)
(0 9.21884e-05 0)
(0 0.000127127 0)
(0 0.000155302 0)
(0 0.000175664 0)
(0 0.00018746 0)
(0 0.000190389 0)
(0 0.000184548 0)
(0 0.000170479 0)
(0 0.000149123 0)
(0 0.000121782 0)
(0 9.0006e-05 0)
(0 5.55172e-05 0)
(0 2.01294e-05 0)
(0 -1.44363e-05 0)
(0 -4.65702e-05 0)
(0 -7.48904e-05 0)
(0 -9.83127e-05 0)
(0 -0.000116081 0)
(0 -0.000127799 0)
(0 -0.000133376 0)
(0 -0.000133067 0)
(0 -0.00012739 0)
(0 -0.000117086 0)
(0 -0.000103045 0)
(0 -8.62316e-05 0)
(0 -6.76628e-05 0)
(0 -4.83233e-05 0)
(0 -2.91307e-05 0)
(0 -1.08911e-05 0)
(0 5.70908e-06 0)
(0 2.01322e-05 0)
(0 3.2008e-05 0)
(0 4.11077e-05 0)
(0 4.73651e-05 0)
(0 5.08174e-05 0)
(0 5.16381e-05 0)
(0 5.0075e-05 0)
(0 4.64488e-05 0)
(0 4.11125e-05 0)
(0 3.44596e-05 0)
(0 2.68811e-05 0)
(0 1.8749e-05 0)
(0 1.04375e-05 0)
(0 2.26829e-06 0)
(0 -5.47586e-06 0)
(0 -1.25455e-05 0)
(0 -1.87525e-05 0)
(0 -2.39587e-05 0)
(0 -2.80734e-05 0)
(0 -3.10554e-05 0)
(0 -3.29063e-05 0)
(0 -3.36617e-05 0)
(0 -3.33959e-05 0)
(0 -3.2207e-05 0)
(0 -3.02183e-05 0)
(0 -2.75627e-05 0)
(0 -2.43833e-05 0)
(0 -2.08303e-05 0)
(0 -1.7052e-05 0)
(0 -1.31935e-05 0)
(0 -9.38961e-06 0)
(0 -5.76575e-06 0)
(0 -2.42553e-06 0)
(0 5.38767e-07 0)
(0 3.05355e-06 0)
(0 5.06462e-06 0)
(0 6.53389e-06 0)
(0 7.44114e-06 0)
(0 7.78424e-06 0)
(0 7.57644e-06 0)
(0 6.84713e-06 0)
(0 5.6401e-06 0)
(0 4.01045e-06 0)
(0 2.02121e-06 0)
(0 -2.61271e-07 0)
(0 -2.76931e-06 0)
(0 -5.43139e-06 0)
(0 -8.17431e-06 0)
(0 -1.09211e-05 0)
(0 -1.35945e-05 0)
(0 -1.61229e-05 0)
(0 -1.84413e-05 0)
(0 -2.04909e-05 0)
(0 -2.22168e-05 0)
(0 -2.35679e-05 0)
(0 -2.45009e-05 0)
(0 -2.49797e-05 0)
)
;
    }
    walls
    {
        type            calculated;
        value           uniform (0 0 0);
    }
    floatingObject
    {
        type            calculated;
        value           uniform (0 0 0);
    }
    frontAndBack
    {
        type            empty;
    }
}


// ************************************************************************* //
