#           y            Uf            nu         nuEff             k       epsilon           Rff           Rww           Rfw             u             v             w            uv      gammaDot
  2.80937e-05      0.189073         1e-05         1e-05     2.164e-10   2.07756e-07   1.44267e-10   1.44267e-10  -4.52036e-12   1.20111e-05   1.20111e-05   1.20111e-05  -4.52036e-12       6676.85
  8.78022e-05      0.584559         1e-05         1e-05    7.7941e-10   6.87889e-07   5.19607e-10   5.19607e-10  -1.73199e-11   2.27949e-05   2.27949e-05   2.27949e-05  -1.73199e-11       6529.65
  0.000154994       1.01699         1e-05         1e-05   2.11962e-09   1.46457e-06   1.41308e-09   1.41308e-09  -5.79856e-11   3.75909e-05   3.75909e-05   3.75909e-05  -5.79856e-11       6293.24
  0.000230608       1.48207         1e-05         1e-05   4.96956e-09    2.7491e-06   3.31304e-09   3.31304e-09  -1.61087e-10    5.7559e-05    5.7559e-05    5.7559e-05  -1.61087e-10          5970
  0.000315699       1.97468         1e-05         1e-05   1.05251e-08   4.79301e-06   7.01674e-09   7.01674e-09  -3.87377e-10    8.3766e-05    8.3766e-05    8.3766e-05  -3.87377e-10       5580.16
  0.000411455       2.48899         1e-05         1e-05   2.05507e-08   7.86341e-06   1.37005e-08   1.37005e-08  -8.29739e-10   0.000117049   0.000117049   0.000117049  -8.29739e-10       5143.48
  0.000519212       3.01871         1e-05         1e-05   3.73721e-08   1.21806e-05   2.49147e-08   2.49147e-08  -1.61128e-09   0.000157844   0.000157844   0.000157844  -1.61128e-09       4678.44
  0.000640475       3.55725         1e-05         1e-05   6.37225e-08   1.78393e-05   4.24817e-08   4.24817e-08  -2.87261e-09   0.000206111   0.000206111   0.000206111  -2.87261e-09       4201.71
  0.000776937       4.09796         1e-05         1e-05   1.02569e-07   2.47655e-05   6.83796e-08   6.83796e-08  -4.75638e-09   0.000261495   0.000261495   0.000261495  -4.75638e-09       3727.72
  0.000930502       4.63437         1e-05         1e-05   1.57293e-07   3.27719e-05   1.04862e-07   1.04862e-07  -7.41151e-09   0.000323824   0.000323824   0.000323824  -7.41151e-09       3268.47
   0.00110331       5.16039         1e-05         1e-05   2.32776e-07   4.17447e-05   1.55184e-07   1.55184e-07  -1.10468e-08   0.000393934   0.000393934   0.000393934  -1.10468e-08       2833.41
   0.00129779       5.67048         1e-05         1e-05   3.38065e-07    5.1935e-05   2.25377e-07   2.25377e-07  -1.60589e-08   0.000474738   0.000474738   0.000474738  -1.60589e-08       2429.53
   0.00151663       6.15985         1e-05         1e-05   4.91605e-07   6.43205e-05   3.27737e-07   3.27737e-07  -2.32665e-08   0.000572483   0.000572483   0.000572483  -2.32665e-08        2061.5
   0.00176291       6.62454         1e-05         1e-05   7.31809e-07   8.11196e-05   4.87873e-07   4.87873e-07  -3.43458e-08   0.000698479   0.000698479   0.000698479  -3.43458e-08       1731.91
   0.00204005       7.06157         1e-05         1e-05    1.1412e-06   0.000106842     7.608e-07     7.608e-07   -5.2787e-08   0.000872239   0.000872239   0.000872239   -5.2787e-08       1441.56
   0.00235193       7.46895         1e-05   1.00001e-05   1.90886e-06    0.00015088   1.27257e-06   1.27257e-06  -8.63341e-08    0.00112808    0.00112808    0.00112808  -8.63341e-08       1189.82
    0.0027029       7.84569         1e-05   1.00002e-05   3.50744e-06   0.000234107   2.33829e-06   2.33829e-06  -1.53987e-07    0.00152915    0.00152915    0.00152915  -1.53987e-07       974.915
   0.00309785       8.19183         1e-05   1.00004e-05   7.23215e-06   0.000405741   4.82143e-06   4.82143e-06  -3.08077e-07    0.00219578    0.00219578    0.00219578  -3.08077e-07       794.274
   0.00354231       8.50835         1e-05   1.00011e-05   1.69302e-05   0.000785457   1.12868e-05   1.12868e-05  -7.10298e-07    0.00335959    0.00335959    0.00335959  -7.10298e-07       644.827
   0.00404248        8.7972         1e-05   1.00037e-05    4.4667e-05    0.00166085    2.9778e-05    2.9778e-05   -1.9189e-06    0.00545692    0.00545692    0.00545692   -1.9189e-06       523.239
   0.00460533       9.06116         1e-05   1.00143e-05   0.000128503    0.00367245   8.56687e-05   8.56687e-05  -6.11086e-06    0.00925574    0.00925574    0.00925574  -6.11086e-06       425.976
   0.00523873       9.30374         1e-05   1.00656e-05   0.000377845     0.0081867   0.000251897   0.000251897  -2.28913e-05     0.0158713     0.0158713     0.0158713  -2.28913e-05       348.865
   0.00595151       9.52809         1e-05    1.0301e-05    0.00102086     0.0194522   0.000680574   0.000680574  -8.56588e-05     0.0260878     0.0260878     0.0260878  -8.56588e-05       284.568
   0.00675364       9.73213         1e-05   1.14817e-05    0.00240064     0.0426021    0.00160042    0.00160042  -0.000328579     0.0400053     0.0400053     0.0400053  -0.000328579       221.756
    0.0076563       9.90286         1e-05   1.49387e-05     0.0040806     0.0667813     0.0027204     0.0027204  -0.000789366     0.0521574     0.0521574     0.0521574  -0.000789366       159.833
   0.00867209       10.0355         1e-05   1.91178e-05    0.00471092     0.0654755    0.00314061    0.00314061  -0.000999525     0.0560412     0.0560412     0.0560412  -0.000999525       109.624
    0.0098152       10.1369         1e-05   2.35188e-05    0.00452378     0.0493378    0.00301585    0.00301585  -0.000968744     0.0549168     0.0549168     0.0549168  -0.000968744       71.6593
    0.0111016       10.2071         1e-05   3.33194e-05    0.00432996     0.0337446    0.00288664    0.00288664  -0.000951532     0.0537274     0.0537274     0.0537274  -0.000951532       40.8043
    0.0125492       10.2462         1e-05   5.99189e-05    0.00450279     0.0232645    0.00300186    0.00300186   -0.00101304     0.0547892     0.0547892     0.0547892   -0.00101304       20.2936
    0.0141782       10.2683         1e-05   0.000107071    0.00499025     0.0181249    0.00332683    0.00332683    -0.0011278     0.0576787     0.0576787     0.0576787    -0.0011278       11.6183
    0.0160115        10.286         1e-05   0.000159521    0.00570494     0.0169451    0.00380329    0.00380329   -0.00142032     0.0616708     0.0616708     0.0616708   -0.00142032       9.49911
    0.0180745       10.3053         1e-05    0.00020751    0.00662474     0.0181056    0.00441649    0.00441649   -0.00192283     0.0664567     0.0664567     0.0664567   -0.00192283       9.73534
     0.020396       10.3288         1e-05   0.000250473    0.00771723     0.0206899    0.00514482    0.00514482   -0.00255291     0.0717274     0.0717274     0.0717274   -0.00255291       10.6162
    0.0230086       10.3578         1e-05   0.000289332    0.00889326     0.0240204    0.00592884    0.00592884   -0.00321286      0.076999      0.076999      0.076999   -0.00321286       11.5019
    0.0259485       10.3928         1e-05   0.000323525    0.00999486     0.0273013    0.00666324    0.00666324   -0.00380203     0.0816287     0.0816287     0.0816287   -0.00380203       12.1267
     0.029257       10.4337         1e-05   0.000350685     0.0107962     0.0294987    0.00719749    0.00719749   -0.00419741      0.084838      0.084838      0.084838   -0.00419741       12.3205
    0.0329801       10.4794         1e-05   0.000367275     0.0110253     0.0294307    0.00735018    0.00735018   -0.00423612     0.0857332     0.0857332     0.0857332   -0.00423612       11.8568
    0.0371699       10.5273         1e-05   0.000370363      0.010454     0.0262481    0.00696937    0.00696937   -0.00371764     0.0834827     0.0834827     0.0834827   -0.00371764       10.3164
    0.0418848       10.5707         1e-05   0.000362217    0.00917162     0.0206392    0.00611441    0.00611441   -0.00247457     0.0781947     0.0781947     0.0781947   -0.00247457        7.0257
    0.0471906       10.5964         1e-05   0.000355757    0.00806246     0.0162265    0.00537497    0.00537497  -0.000558695     0.0733142     0.0733142     0.0733142  -0.000558695       1.61586
    0.0528094       10.5874         1e-05   0.000366382    0.00851108     0.0175795    0.00567405    0.00567405    0.00156263     0.0753263     0.0753263     0.0753263    0.00156263       4.38471
    0.0581152       10.5494         1e-05   0.000383787    0.00996213     0.0230334    0.00664142    0.00664142    0.00323721     0.0814949     0.0814949     0.0814949    0.00323721       8.66056
    0.0628301       10.5015         1e-05   0.000390794     0.0109697     0.0274452     0.0073131     0.0073131    0.00411901     0.0855167     0.0855167     0.0855167    0.00411901       10.8169
    0.0670199       10.4534         1e-05   0.000381964     0.0111212     0.0288372    0.00741417    0.00741417    0.00433137     0.0861056     0.0861056     0.0861056    0.00433137       11.6446
     0.070743       10.4094         1e-05   0.000359607     0.0105592     0.0275468    0.00703945    0.00703945    0.00409246     0.0839015     0.0839015     0.0839015    0.00409246       11.7059
    0.0740515        10.371         1e-05   0.000327986    0.00955704     0.0246391    0.00637136    0.00637136    0.00358853     0.0798208     0.0798208     0.0798208    0.00358853       11.2852
    0.0769914       10.3388         1e-05   0.000290686    0.00836439     0.0211554    0.00557626    0.00557626    0.00295483     0.0746744     0.0746744     0.0746744    0.00295483       10.5272
     0.079604       10.3124         1e-05   0.000249735    0.00716914     0.0179041    0.00477942    0.00477942    0.00228925     0.0691334     0.0691334     0.0691334    0.00228925       9.54908
    0.0819255       10.2915         1e-05   0.000205262    0.00609459     0.0154749    0.00406306    0.00406306    0.00167422     0.0637422     0.0637422     0.0637422    0.00167422       8.57419
    0.0839885       10.2747         1e-05   0.000155861    0.00520301     0.0143806    0.00346868    0.00346868    0.00119736     0.0588955     0.0588955     0.0588955    0.00119736        8.2089
    0.0858218       10.2595         1e-05   0.000101744    0.00450661     0.0154065    0.00300441    0.00300441   0.000937208     0.0548125     0.0548125     0.0548125   0.000937208       10.2154
    0.0874508       10.2398         1e-05    5.3978e-05    0.00401557      0.020032    0.00267705    0.00267705   0.000847246     0.0517402     0.0517402     0.0517402   0.000847246       19.2652
    0.0888984       10.2015         1e-05   2.92704e-05     0.0038292     0.0292953     0.0025528     0.0025528   0.000791766     0.0505252     0.0505252     0.0505252   0.000791766       41.0872
    0.0901848       10.1298         1e-05   2.12785e-05    0.00403514     0.0431064    0.00269009    0.00269009   0.000823006     0.0518661     0.0518661     0.0518661   0.000823006       72.9711
    0.0913279       10.0267         1e-05   1.79037e-05    0.00426184     0.0575917    0.00284122    0.00284122    0.00087378     0.0533031     0.0533031     0.0533031    0.00087378       110.553
    0.0923437       9.89371         1e-05   1.44219e-05    0.00373936     0.0592538     0.0024929     0.0024929   0.000703522      0.049929      0.049929      0.049929   0.000703522       159.098
    0.0932464       9.72469         1e-05   1.14132e-05    0.00227393     0.0391922    0.00151595    0.00151595   0.000309476     0.0389352     0.0389352     0.0389352   0.000309476       218.994
    0.0940485       9.52357         1e-05   1.03096e-05    0.00101247     0.0187874    0.00067498    0.00067498   8.70892e-05     0.0259804     0.0259804     0.0259804   8.70892e-05       281.291
    0.0947613       9.30129         1e-05   1.00703e-05   0.000389533     0.0082201   0.000259689   0.000259689   2.43667e-05     0.0161149     0.0161149     0.0161149   2.43667e-05       346.474
    0.0953947        9.0599         1e-05   1.00157e-05   0.000136145    0.00379085   9.07635e-05   9.07635e-05   6.65599e-06    0.00952699    0.00952699    0.00952699   6.65599e-06       424.465
    0.0959575       8.79658         1e-05    1.0004e-05   4.81734e-05    0.00175516   3.21156e-05   3.21156e-05   2.11172e-06    0.00566706    0.00566706    0.00566706   2.11172e-06       522.298
    0.0964577        8.5081         1e-05   1.00012e-05   1.84599e-05   0.000844008   1.23066e-05   1.23066e-05    7.8558e-07    0.00350808    0.00350808    0.00350808    7.8558e-07       644.249
    0.0969021       8.19177         1e-05   1.00004e-05   7.93079e-06   0.000440702   5.28719e-06   5.28719e-06   3.41001e-07    0.00229939    0.00229939    0.00229939   3.41001e-07       793.934
    0.0972971       7.84573         1e-05   1.00002e-05   3.85399e-06   0.000255791   2.56933e-06   2.56933e-06    1.7014e-07    0.00160291    0.00160291    0.00160291    1.7014e-07       974.735
    0.0976481       7.46903         1e-05   1.00001e-05   2.09671e-06   0.000165231   1.39781e-06   1.39781e-06   9.51129e-08    0.00118229    0.00118229    0.00118229   9.51129e-08       1189.75
      0.09796       7.06166         1e-05         1e-05   1.25118e-06   0.000116971   8.34119e-07   8.34119e-07   5.79584e-08   0.000913301   0.000913301   0.000913301   5.79584e-08       1441.56
    0.0982371       6.62462         1e-05         1e-05   7.99893e-07   8.86148e-05   5.33262e-07   5.33262e-07   3.75645e-08   0.000730248   0.000730248   0.000730248   3.75645e-08       1731.95
    0.0984834       6.15991         1e-05         1e-05   5.35067e-07   7.00009e-05   3.56711e-07   3.56711e-07   2.53267e-08   0.000597253   0.000597253   0.000597253   2.53267e-08       2061.58
    0.0987022       5.67053         1e-05         1e-05   3.65944e-07   5.62356e-05   2.43962e-07   2.43962e-07   1.73785e-08   0.000493926   0.000493926   0.000493926   1.73785e-08       2429.63
    0.0988967       5.16042         1e-05         1e-05   2.50314e-07   4.49249e-05   1.66876e-07   1.66876e-07   1.18702e-08   0.000408505   0.000408505   0.000408505   1.18702e-08       2833.51
    0.0990695       4.63438         1e-05         1e-05   1.67888e-07   3.50279e-05   1.11925e-07   1.11925e-07   7.89996e-09   0.000334552   0.000334552   0.000334552   7.89996e-09       3268.56
    0.0992231       4.09795         1e-05         1e-05   1.08614e-07   2.62812e-05   7.24091e-08   7.24091e-08   5.02597e-09   0.000269089   0.000269089   0.000269089   5.02597e-09        3727.8
    0.0993595       3.55723         1e-05         1e-05   6.69393e-08   1.87964e-05   4.46262e-08   4.46262e-08   3.00858e-09   0.000211249   0.000211249   0.000211249   3.00858e-09       4201.76
    0.0994808       3.01869         1e-05         1e-05   3.89557e-08   1.27469e-05   2.59704e-08   2.59704e-08   1.67295e-09   0.000161153   0.000161153   0.000161153   1.67295e-09       4678.47
    0.0995885       2.48897         1e-05         1e-05    2.1267e-08   8.17731e-06    1.4178e-08    1.4178e-08    8.5448e-10   0.000119071   0.000119071   0.000119071    8.5448e-10       5143.48
    0.0996843       1.97466         1e-05         1e-05   1.08206e-08   4.95615e-06   7.21373e-09   7.21373e-09   3.95954e-10   8.49337e-05   8.49337e-05   8.49337e-05   3.95954e-10       5580.14
    0.0997694       1.48205         1e-05         1e-05   5.07918e-09   2.82849e-06   3.38612e-09   3.38612e-09   1.63548e-10   5.81904e-05   5.81904e-05   5.81904e-05   1.63548e-10       5969.96
     0.099845       1.01697         1e-05         1e-05   2.15501e-09   1.50038e-06   1.43667e-09   1.43667e-09   5.85069e-11   3.79035e-05   3.79035e-05   3.79035e-05   5.85069e-11       6293.18
    0.0999122      0.584551         1e-05         1e-05   7.88406e-10   7.02195e-07   5.25604e-10   5.25604e-10   1.73607e-11   2.29261e-05   2.29261e-05   2.29261e-05   1.73607e-11       6529.57
    0.0999719       0.18907         1e-05         1e-05   2.17449e-10   2.11462e-07   1.44966e-10   1.44966e-10   4.48427e-12   1.20402e-05   1.20402e-05   1.20402e-05   4.48427e-12       6676.75
