# Probe 0 (0 0 0)
# Time            0                
0                 0                
0.0025            -435366.3959     
0.005             -671332.7276     
0.0075            -599470.8833     
0.01              -653779.5737     
0.0125            -670745.8094     
0.015             -681404.8903     
0.0175            -690882.6119     
0.02              -697029.3794     
0.0225            -700970.9702     
0.025             -703596.4873     
0.0275            -705414.1419     
0.03              -706713.6264     
0.0325            -707666.7787     
0.035             -708380.1482     
0.0375            -708922.5401     
0.04              -709339.9861     
0.0425            -709664.2306     
0.045             -709917.7426     
0.0475            -710116.7848     
0.05              -710273.3569     
0.0525            -710396.4631     
0.055             -710492.9589     
0.0575            -710568.1313     
0.06              -710626.104      
0.0625            -710670.1261     
0.065             -710702.7799     
0.0675            -710726.1346     
0.07              -710741.8597     
0.0725            -710751.3112     
0.075             -710755.5964     
0.0775            -710755.6244     
0.08              -710752.1449     
0.0825            -710745.7786     
0.085             -710737.0416     
0.0875            -710726.364      
0.09              -710714.1056     
0.0925            -710700.5679     
0.095             -710686.0043     
0.0975            -710670.628      
0.1               -710654.6185     
0.1025            -710638.1275     
0.105             -710621.2828     
0.1075            -710604.1925     
0.11              -710586.9477     
0.1125            -710569.6255     
0.115             -710552.2906     
0.1175            -710534.9976     
0.12              -710517.7924     
0.1225            -710500.7133     
0.125             -710483.7922     
0.1275            -710467.0557     
0.13              -710450.5257     
0.1325            -710434.2198     
0.135             -710418.1526     
0.1375            -710402.3355     
0.14              -710386.7774     
0.1425            -710371.4852     
0.145             -710356.4638     
0.1475            -710341.7165     
0.15              -710327.2454     
0.1525            -710313.0513     
0.155             -710299.134      
0.1575            -710285.4927     
0.16              -710272.1256     
0.1625            -710259.0304     
0.165             -710246.2045     
0.1675            -710233.6445     
0.17              -710221.347      
0.1725            -710209.3081     
0.175             -710197.5239     
0.1775            -710185.99       
0.18              -710174.7021     
0.1825            -710163.6557     
0.185             -710152.8463     
0.1875            -710142.2692     
0.19              -710131.9198     
0.1925            -710121.7934     
0.195             -710111.8853     
0.1975            -710102.191      
0.2               -710092.7059     
0.2025            -710083.4253     
0.205             -710074.3449     
0.2075            -710065.4602     
0.21              -710056.7667     
0.2125            -710048.2602     
0.215             -710039.9364     
0.2175            -710031.7912     
0.22              -710023.8205     
0.2225            -710016.0202     
0.225             -710008.3864     
0.2275            -710000.9154     
0.23              -709993.6032     
0.2325            -709986.4463     
0.235             -709979.441      
0.2375            -709972.5838     
0.24              -709965.8714     
0.2425            -709959.3002     
0.245             -709952.8671     
0.2475            -709946.5688     
0.25              -709940.4022     
0.2525            -709934.3643     
0.255             -709928.4521     
0.2575            -709922.6627     
0.26              -709916.9933     
0.2625            -709911.4411     
0.265             -709906.0034     
0.2675            -709900.6776     
0.27              -709895.4612     
0.2725            -709890.3516     
0.275             -709885.3465     
0.2775            -709880.4434     
0.28              -709875.64       
0.2825            -709870.9341     
0.285             -709866.3235     
0.2875            -709861.8061     
0.29              -709857.3798     
0.2925            -709853.0424     
0.295             -709848.7922     
0.2975            -709844.627      
0.3               -709840.545      
0.3025            -709836.5445     
0.305             -709832.6235     
0.3075            -709828.7804     
0.31              -709825.0135     
0.3125            -709821.321      
0.315             -709817.7014     
0.3175            -709814.153      
0.32              -709810.6743     
0.3225            -709807.2639     
0.325             -709803.9203     
0.3275            -709800.6419     
0.33              -709797.4275     
0.3325            -709794.2756     
0.335             -709791.1849     
0.3375            -709788.1542     
0.34              -709785.1821     
0.3425            -709782.2674     
0.345             -709779.4089     
0.3475            -709776.6055     
0.35              -709773.8559     
0.3525            -709771.159      
0.355             -709768.5138     
0.3575            -709765.9191     
0.36              -709763.374      
0.3625            -709760.8773     
0.365             -709758.4282     
0.3675            -709756.0255     
0.37              -709753.6685     
0.3725            -709751.356      
0.375             -709749.0873     
0.3775            -709746.8614     
0.38              -709744.6774     
0.3825            -709742.5346     
0.385             -709740.432      
0.3875            -709738.3689     
0.39              -709736.3444     
0.3925            -709734.3578     
0.395             -709732.4084     
0.3975            -709730.4953     
0.4               -709728.6179     
0.4025            -709726.7755     
0.405             -709724.9673     
0.4075            -709723.1927     
0.41              -709721.451      
0.4125            -709719.7415     
0.415             -709718.0637     
0.4175            -709716.4168     
0.42              -709714.8004     
0.4225            -709713.2138     
0.425             -709711.6564     
0.4275            -709710.1276     
0.43              -709708.6269     
0.4325            -709707.1538     
0.435             -709705.7077     
0.4375            -709704.288      
0.44              -709702.8944     
0.4425            -709701.5262     
0.445             -709700.1829     
0.4475            -709698.8642     
0.45              -709697.5696     
0.4525            -709696.2984     
0.455             -709695.0505     
0.4575            -709693.8251     
0.46              -709692.6221     
0.4625            -709691.4408     
0.465             -709690.281      
0.4675            -709689.1421     
0.47              -709688.0239     
0.4725            -709686.9259     
0.475             -709685.8477     
0.4775            -709684.789      
0.48              -709683.7493     
0.4825            -709682.7284     
0.485             -709681.7259     
0.4875            -709680.7414     
0.49              -709679.7746     
0.4925            -709678.8252     
0.495             -709677.8928     
0.4975            -709676.9771     
0.5               -709676.0779     
