# Probe 0 (0 0 0)
# Time            0                
0                 0                
0.0025            0.04321850257    
0.005             0.06421127002    
0.0075            0.06040749882    
0.01              0.06653344381    
0.0125            0.06856352085    
0.015             0.06967926117    
0.0175            0.07058712543    
0.02              0.07116956237    
0.0225            0.07154391654    
0.025             0.07179492902    
0.0275            0.07197026188    
0.03              0.0720969505     
0.0325            0.0721910132     
0.035             0.07226238794    
0.0375            0.07231750205    
0.04              0.07236066473    
0.0425            0.07239485549    
0.045             0.07242218955    
0.0475            0.07244420304    
0.05              0.0724620336     
0.0525            0.07247653828    
0.055             0.07248837248    
0.0575            0.072498044      
0.06              0.07250595092    
0.0625            0.07251240855    
0.065             0.07251766897    
0.0675            0.07252193539    
0.07              0.07252537288    
0.0725            0.07252811642    
0.075             0.07253027709    
0.0775            0.07253194678    
0.08              0.07253320193    
0.0825            0.07253410643    
0.085             0.07253471388    
0.0875            0.07253506942    
0.09              0.07253521125    
0.0925            0.07253517175    
0.095             0.07253497846    
0.0975            0.0725346549     
0.1               0.07253422117    
0.1025            0.07253369448    
0.105             0.07253308965    
0.1075            0.0725324194     
0.11              0.0725316947     
0.1125            0.072530925      
0.115             0.07253011849    
0.1175            0.07252928224    
0.12              0.07252842236    
0.1225            0.07252754414    
0.125             0.07252665217    
0.1275            0.07252575041    
0.13              0.07252484231    
0.1325            0.07252393084    
0.135             0.07252301857    
0.1375            0.07252210771    
0.14              0.07252120017    
0.1425            0.07252029761    
0.145             0.07251940143    
0.1475            0.07251851285    
0.15              0.07251763288    
0.1525            0.0725167624     
0.155             0.07251590214    
0.1575            0.07251505272    
0.16              0.07251421465    
0.1625            0.07251338833    
0.165             0.0725125741     
0.1675            0.07251177223    
0.17              0.07251098291    
0.1725            0.07251020629    
0.175             0.07250944247    
0.1775            0.0725086915     
0.18              0.07250795339    
0.1825            0.07250722815    
0.185             0.07250651572    
0.1875            0.07250581604    
0.19              0.07250512902    
0.1925            0.07250445456    
0.195             0.07250379254    
0.1975            0.07250314283    
0.2               0.07250250528    
0.2025            0.07250187975    
0.205             0.07250126606    
0.2075            0.07250066406    
0.21              0.07250007357    
0.2125            0.07249949441    
0.215             0.0724989264     
0.2175            0.07249836936    
0.22              0.07249782311    
0.2225            0.07249728745    
0.225             0.0724967622     
0.2275            0.07249624718    
0.23              0.0724957422     
0.2325            0.07249524706    
0.235             0.0724947616     
0.2375            0.07249428562    
0.24              0.07249381895    
0.2425            0.0724933614     
0.245             0.07249291279    
0.2475            0.07249247296    
0.25              0.07249204173    
0.2525            0.07249161893    
0.255             0.07249120439    
0.2575            0.07249079794    
0.26              0.07249039943    
0.2625            0.07249000869    
0.265             0.07248962556    
0.2675            0.0724892499     
0.27              0.07248888155    
0.2725            0.07248852037    
0.275             0.0724881662     
0.2775            0.0724878189     
0.28              0.07248747833    
0.2825            0.07248714437    
0.285             0.07248681686    
0.2875            0.07248649568    
0.29              0.0724861807     
0.2925            0.07248587179    
0.295             0.07248556883    
0.2975            0.0724852717     
0.3               0.07248498028    
0.3025            0.07248469445    
0.305             0.0724844141     
0.3075            0.07248413911    
0.31              0.07248386938    
0.3125            0.07248360479    
0.315             0.07248334526    
0.3175            0.07248309066    
0.32              0.07248284091    
0.3225            0.0724825959     
0.325             0.07248235554    
0.3275            0.07248211974    
0.33              0.0724818884     
0.3325            0.07248166143    
0.335             0.07248143874    
0.3375            0.07248122025    
0.34              0.07248100588    
0.3425            0.07248079553    
0.345             0.07248058914    
0.3475            0.07248038662    
0.35              0.0724801879     
0.3525            0.07247999289    
0.355             0.07247980153    
0.3575            0.07247961374    
0.36              0.07247942946    
0.3625            0.07247924861    
0.365             0.07247907112    
0.3675            0.07247889693    
0.37              0.07247872597    
0.3725            0.07247855819    
0.375             0.07247839351    
0.3775            0.07247823188    
0.38              0.07247807324    
0.3825            0.07247791752    
0.385             0.07247776468    
0.3875            0.07247761466    
0.39              0.07247746739    
0.3925            0.07247732283    
0.395             0.07247718093    
0.3975            0.07247704163    
0.4               0.07247690489    
0.4025            0.07247677065    
0.405             0.07247663886    
0.4075            0.07247650948    
0.41              0.07247638247    
0.4125            0.07247625777    
0.415             0.07247613535    
0.4175            0.07247601516    
0.42              0.07247589715    
0.4225            0.07247578129    
0.425             0.07247566753    
0.4275            0.07247555583    
0.43              0.07247544617    
0.4325            0.07247533848    
0.435             0.07247523275    
0.4375            0.07247512893    
0.44              0.07247502699    
0.4425            0.07247492689    
0.445             0.07247482859    
0.4475            0.07247473207    
0.45              0.07247463728    
0.4525            0.0724745442     
0.455             0.0724744528     
0.4575            0.07247436304    
0.46              0.07247427489    
0.4625            0.07247418832    
0.465             0.07247410331    
0.4675            0.07247401982    
0.47              0.07247393783    
0.4725            0.0724738573     
0.475             0.07247377822    
0.4775            0.07247370055    
0.48              0.07247362426    
0.4825            0.07247354934    
0.485             0.07247347576    
0.4875            0.07247340349    
0.49              0.0724733325     
0.4925            0.07247326279    
0.495             0.07247319431    
0.4975            0.07247312705    
0.5               0.07247306099    
