# Probe 0 (0 0 0)
# Time            0                
0                 100000           
0.0025            103119.3705      
0.005             106460.4055      
0.0075            108301.4518      
0.01              109799.7538      
0.0125            111185.3293      
0.015             112513.3291      
0.0175            113750.8072      
0.02              114888.3007      
0.0225            115936.9425      
0.025             116906.9526      
0.0275            117806.426       
0.03              118641.9903      
0.0325            119419.2769      
0.035             120143.1934      
0.0375            120818.0858      
0.04              121447.8427      
0.0425            122035.9665      
0.045             122585.6277      
0.0475            123099.7063      
0.05              123580.826       
0.0525            124031.3824      
0.055             124453.5674      
0.0575            124849.3901      
0.06              125220.6951      
0.0625            125569.1779      
0.065             125896.3999      
0.0675            126203.8001      
0.07              126492.7067      
0.0725            126764.3467      
0.075             127019.8551      
0.0775            127260.2828      
0.08              127486.6035      
0.0825            127699.7204      
0.085             127900.4722      
0.0875            128089.638       
0.09              128267.9423      
0.0925            128436.0592      
0.095             128594.6166      
0.0975            128744.1996      
0.1               128885.3538      
0.1025            129018.5883      
0.105             129144.3785      
0.1075            129263.1684      
0.11              129375.3731      
0.1125            129481.3809      
0.115             129581.5551      
0.1175            129676.2359      
0.12              129765.7418      
0.1225            129850.3715      
0.125             129930.4049      
0.1275            130006.1045      
0.13              130077.7168      
0.1325            130145.4731      
0.135             130209.5907      
0.1375            130270.2736      
0.14              130327.7136      
0.1425            130382.0911      
0.145             130433.5757      
0.1475            130482.3271      
0.15              130528.4953      
0.1525            130572.2219      
0.155             130613.6399      
0.1575            130652.8749      
0.16              130690.045       
0.1625            130725.2616      
0.165             130758.6299      
0.1675            130790.249       
0.17              130820.2122      
0.1725            130848.6078      
0.175             130875.5191      
0.1775            130901.0246      
0.18              130925.1985      
0.1825            130948.111       
0.185             130969.8283      
0.1875            130990.413       
0.19              131009.9242      
0.1925            131028.4178      
0.195             131045.9467      
0.1975            131062.561       
0.2               131078.3079      
0.2025            131093.2322      
0.205             131107.3763      
0.2075            131120.7802      
0.21              131133.4818      
0.2125            131145.5173      
0.215             131156.9205      
0.2175            131167.7237      
0.22              131177.9574      
0.2225            131187.6506      
0.225             131196.8307      
0.2275            131205.5237      
0.23              131213.7543      
0.2325            131221.5457      
0.235             131228.9201      
0.2375            131235.8986      
0.24              131242.5011      
0.2425            131248.7464      
0.245             131254.6525      
0.2475            131260.2365      
0.25              131265.5145      
0.2525            131270.5018      
0.255             131275.2129      
0.2575            131279.6617      
0.26              131283.8614      
0.2625            131287.8243      
0.265             131291.5623      
0.2675            131295.0867      
0.27              131298.4081      
0.2725            131301.5367      
0.275             131304.482       
0.2775            131307.2534      
0.28              131309.8594      
0.2825            131312.3084      
0.285             131314.6083      
0.2875            131316.7664      
0.29              131318.7899      
0.2925            131320.6856      
0.295             131322.46        
0.2975            131324.119       
0.3               131325.6686      
0.3025            131327.1142      
0.305             131328.4611      
0.3075            131329.7144      
0.31              131330.8787      
0.3125            131331.9587      
0.315             131332.9585      
0.3175            131333.8824      
0.32              131334.7343      
0.3225            131335.5177      
0.325             131336.2363      
0.3275            131336.8935      
0.33              131337.4923      
0.3325            131338.036       
0.335             131338.5273      
0.3375            131338.969       
0.34              131339.3638      
0.3425            131339.7141      
0.345             131340.0224      
0.3475            131340.2909      
0.35              131340.5217      
0.3525            131340.7169      
0.355             131340.8785      
0.3575            131341.0083      
0.36              131341.1081      
0.3625            131341.1795      
0.365             131341.2243      
0.3675            131341.2438      
0.37              131341.2396      
0.3725            131341.213       
0.375             131341.1653      
0.3775            131341.0979      
0.38              131341.0118      
0.3825            131340.9083      
0.385             131340.7884      
0.3875            131340.6531      
0.39              131340.5034      
0.3925            131340.3402      
0.395             131340.1645      
0.3975            131339.977       
0.4               131339.7785      
0.4025            131339.5699      
0.405             131339.3518      
0.4075            131339.125       
0.41              131338.89        
0.4125            131338.6475      
0.415             131338.3981      
0.4175            131338.1423      
0.42              131337.8807      
0.4225            131337.6138      
0.425             131337.342       
0.4275            131337.0659      
0.43              131336.7858      
0.4325            131336.5021      
0.435             131336.2153      
0.4375            131335.9257      
0.44              131335.6336      
0.4425            131335.3395      
0.445             131335.0435      
0.4475            131334.746       
0.45              131334.4473      
0.4525            131334.1476      
0.455             131333.8472      
0.4575            131333.5464      
0.46              131333.2453      
0.4625            131332.9441      
0.465             131332.6432      
0.4675            131332.3425      
0.47              131332.0424      
0.4725            131331.743       
0.475             131331.4444      
0.4775            131331.1468      
0.48              131330.8504      
0.4825            131330.5552      
0.485             131330.2614      
0.4875            131329.9691      
0.49              131329.6785      
0.4925            131329.3895      
0.495             131329.1023      
0.4975            131328.817       
0.5               131328.5337      
