#           v             n
   1.1734e-05       1.00341
  1.76009e-05       1.00341
  2.64014e-05       1.00341
  3.96021e-05       1.00341
  5.94032e-05       1.00341
  8.91048e-05       1.00341
  0.000133657       1.00341
  0.000200486       1.00341
  0.000300729       1.00341
  0.000451093       1.00341
  0.000676639       1.00341
   0.00101496        1.0034
   0.00152244       1.00339
   0.00228366       1.00336
   0.00342549       1.00328
   0.00513823       1.00312
   0.00770735       1.00276
     0.011561       1.00195
    0.0173415       1.00012
    0.0260123      0.996015
    0.0390184      0.986822
    0.0585277      0.966529
    0.0877915      0.922471
     0.131687      0.830943
     0.197531      0.658421
     0.296296      0.394928
     0.444444      0.132031
     0.666667     0.0142031
            1   0.000475152
