/*--------------------------------*- C++ -*----------------------------------*\
  =========                 |
  \\      /  F ield         | OpenFOAM: The Open Source CFD Toolbox
   \\    /   O peration     | Website:  https://openfoam.org
    \\  /    A nd           | Version:  12
     \\/     M anipulation  |
\*---------------------------------------------------------------------------*/
FoamFile
{
    format      ascii;
    class       volScalarField;
    location    "0.22";
    object      epsilon;
}
// * * * * * * * * * * * * * * * * * * * * * * * * * * * * * * * * * * * * * //

dimensions      [0 2 -3 0 0 0 0];

internalField   nonuniform List<scalar> 
12225
(
278.515
263.66
249.434
236.839
226.738
219.483
215.069
213.263
213.705
215.99
219.712
224.502
230.04
236.063
242.368
248.787
255.354
264.863
61.116
86.6953
97.9913
107.207
118.464
132.556
149.41
168.61
189.575
211.679
234.331
257.02
279.342
300.999
321.897
341.872
362.438
380.977
25.2776
36.183
43.3817
48.6212
53.3862
58.336
63.7702
69.8249
76.5252
83.8227
91.6272
99.8294
108.318
116.992
125.785
134.677
143.814
153.19
17.5217
21.2986
24.7145
27.61
30.1619
32.54
34.8665
37.2277
39.6768
42.2401
44.9253
47.7278
50.6365
53.639
56.7266
59.9068
63.1977
66.6255
15.4878
16.7519
18.1858
19.5889
20.9095
22.149
23.3263
24.4651
25.5863
26.7049
27.831
28.97
30.1249
31.2971
32.4881
33.703
34.9466
36.2154
14.9084
15.2396
15.7463
16.334
16.9476
17.5589
18.1558
18.7356
19.3001
19.8525
20.3961
20.9333
21.4665
21.9974
22.5276
23.0596
23.5949
24.1279
14.7451
14.7391
14.8342
15.0036
15.2215
15.4679
15.7286
15.9948
16.2619
16.5274
16.7901
17.0498
17.3064
17.5603
17.8119
18.062
18.311
18.5548
14.7012
14.5825
14.5116
14.4858
14.4981
14.5403
14.6043
14.6837
14.7737
14.8707
14.9725
15.0771
15.1836
15.2913
15.3995
15.5083
15.6173
15.7238
14.6901
14.5373
14.407
14.3009
14.2182
14.1571
14.1145
14.0875
14.0732
14.0693
14.0735
14.0844
14.1006
14.1212
14.1452
14.1722
14.2016
14.2318
14.6874
14.5252
14.3761
14.2411
14.1204
14.0137
13.9203
13.8391
13.7688
13.7083
13.6564
13.6119
13.574
13.5419
13.5147
13.4919
13.4731
13.4573
14.6868
14.5221
14.3677
14.2236
14.0896
13.9656
13.8512
13.746
13.6495
13.5611
13.4801
13.4061
13.3383
13.2763
13.2197
13.1678
13.1203
13.0772
14.6866
14.5213
14.3656
14.219
14.0812
13.9518
13.8305
13.7169
13.6105
13.5111
13.4182
13.3314
13.2503
13.1747
13.104
13.038
12.9764
12.9194
14.6865
14.521
14.3648
14.2175
14.0785
13.9473
13.8234
13.7065
13.5963
13.4922
13.3941
13.3015
13.2142
13.1319
13.0543
12.981
12.912
12.8476
14.6864
14.5208
14.3645
14.2169
14.0774
13.9456
13.8209
13.7029
13.5913
13.4855
13.3853
13.2904
13.2005
13.1153
13.0345
12.9579
12.8853
12.8172
14.6864
14.5207
14.3643
14.2165
14.0769
13.9449
13.8199
13.7016
13.5895
13.4832
13.3824
13.2868
13.196
13.1098
13.0279
12.9501
12.8762
12.8068
14.6863
14.5206
14.3641
14.2163
14.0766
13.9444
13.8194
13.7009
13.5886
13.4822
13.3812
13.2854
13.1943
13.1079
13.0257
12.9475
12.8732
12.8033
14.6863
14.5205
14.364
14.2161
14.0763
13.9441
13.8189
13.7004
13.5881
13.4815
13.3805
13.2845
13.1934
13.1068
13.0245
12.9462
12.8718
12.8018
14.6863
14.5204
14.3639
14.216
14.0761
13.9439
13.8186
13.7001
13.5877
13.4811
13.3799
13.2839
13.1927
13.1061
13.0237
12.9454
12.8709
12.8008
14.6863
14.5204
14.3639
14.2159
14.0761
13.9438
13.8186
13.6999
13.5875
13.4809
13.3797
13.2837
13.1924
13.1058
13.0233
12.9449
12.8704
12.8002
14.6863
14.5205
14.3639
14.216
14.0762
13.9439
13.8187
13.7001
13.5877
13.4811
13.38
13.284
13.1928
13.1061
13.0237
12.9454
12.8709
12.8008
14.6863
14.5205
14.364
14.2162
14.0764
13.9443
13.8192
13.7007
13.5885
13.4821
13.3812
13.2854
13.1945
13.1082
13.0262
12.9482
12.8742
12.8046
14.6863
14.5206
14.3643
14.2167
14.0773
13.9457
13.8214
13.7039
13.5928
13.4879
13.3886
13.2947
13.2059
13.1218
13.0423
12.9669
12.8956
12.8288
14.6865
14.5212
14.3659
14.2202
14.0837
13.956
13.8368
13.7256
13.6218
13.525
13.4348
13.3506
13.272
13.1986
13.13
13.0659
13.006
12.9505
14.6876
14.5264
14.3793
14.2467
14.1282
14.0231
13.9302
13.8484
13.7762
13.7126
13.6565
13.6068
13.5628
13.5237
13.489
13.4581
13.4306
13.4066
14.6976
14.5664
14.4707
14.4075
14.3715
14.3568
14.3584
14.372
14.3941
14.4224
14.4551
14.4908
14.5287
14.5681
14.6085
14.6496
14.6913
14.7333
14.7737
14.8187
14.9603
15.1591
15.3863
15.6233
15.8598
16.0904
16.3134
16.5284
16.7358
16.9365
17.1313
17.321
17.5065
17.6883
17.8668
18.0417
15.2587
16.1151
17.0712
17.9727
18.7879
19.5238
20.1945
20.8149
21.3988
21.9573
22.4987
23.029
23.5527
24.0725
24.5902
25.1067
25.6221
26.134
18.0414
22.0079
24.9885
27.1532
28.8883
30.4049
31.8125
33.1785
34.5439
35.9312
37.3514
38.8084
40.3014
41.8263
43.3775
44.9488
46.5334
48.1186
34.024
45.6878
51.3769
54.9425
58.0811
61.2983
64.7512
68.4838
72.48
76.6969
81.0843
85.5924
90.1746
94.7893
99.4008
103.98
108.512
112.968
163.308
157.417
151.704
146.261
141.3
136.947
133.25
130.206
127.781
125.919
124.559
123.637
123.094
122.871
122.917
123.187
123.642
124.243
0.22857
0.274338
0.451837
0.611684
0.782291
0.980152
1.20735
1.46999
1.77454
2.09829
2.43806
2.79293
3.1604
3.53773
3.92226
4.31148
4.70297
5.09436
5.48328
5.86735
6.24415
6.61123
6.96605
7.30604
7.62853
7.93066
8.20931
8.46103
8.68232
8.87062
9.02566
9.14931
9.23917
9.27217
9.1912
39.6067
9.3721
39.7617
39.8429
40.1658
9.39161
9.44319
40.2073
40.4002
43.1148
46.1132
49.308
52.68
56.2255
59.9418
63.8287
67.887
72.1182
76.5244
81.1076
85.8699
90.8134
95.9402
101.252
106.75
112.437
118.312
124.377
130.631
137.075
143.709
150.531
157.54
164.733
172.11
179.666
187.399
195.305
203.38
211.618
220.015
228.565
237.263
246.1
255.072
264.17
273.386
282.712
292.141
301.662
311.268
320.947
330.691
340.488
350.329
360.201
370.094
379.995
389.892
399.774
409.63
419.452
429.238
438.999
448.765
458.505
468.114
477.591
486.927
496.11
505.125
513.957
522.59
531.007
539.194
547.135
554.816
562.222
569.338
576.152
582.651
588.821
594.651
600.13
605.249
609.996
614.364
618.344
621.93
625.116
627.895
630.265
632.221
633.761
634.884
635.59
635.879
635.753
635.214
634.267
632.917
631.168
629.027
626.502
623.602
620.336
616.713
612.745
608.443
603.82
598.889
593.662
588.155
582.381
576.356
570.094
563.611
556.923
550.047
542.996
535.787
528.441
520.967
513.386
505.714
497.954
490.154
482.284
474.429
466.667
460.107
457.031
454.363
451.705
449.036
446.356
443.665
440.955
438.205
435.37
432.347
428.903
424.432
417.454
401.544
0.854021
0.531167
0.547292
0.63015
0.751638
0.903292
1.08424
1.29381
1.52984
1.78763
2.06374
2.35563
2.6612
2.97866
3.30643
3.64312
3.98747
4.33837
4.69486
5.05616
5.42175
5.79145
6.16552
6.54484
6.93106
7.32692
7.73657
8.16604
8.62373
9.12062
9.66934
10.2818
10.9723
11.7867
12.8822
14.7203
15.2886
17.2875
18.586
19.7763
20.6737
22.0951
24.0851
25.9336
27.5411
29.1458
30.7916
32.4947
34.2577
36.0821
37.9696
39.9217
41.9394
44.0238
46.176
48.3967
50.6866
53.0461
55.4758
57.9758
60.5464
63.1875
65.899
68.6808
71.5323
74.4532
77.4426
80.4998
83.6238
86.8136
90.0678
93.385
96.7637
100.202
103.699
107.251
110.857
114.515
118.222
121.976
125.773
129.612
133.489
137.401
141.345
145.317
149.315
153.334
157.37
161.42
165.479
169.544
173.609
177.673
181.729
185.778
189.816
193.849
197.882
201.937
206.019
210.064
214.061
218.005
221.89
225.711
229.462
233.136
236.727
240.23
243.639
246.947
250.149
253.24
256.214
259.067
261.792
264.386
266.844
269.161
271.334
273.359
275.233
276.953
278.515
279.918
281.159
282.236
283.149
283.896
284.476
284.89
285.137
285.218
285.134
284.887
284.477
283.906
283.178
282.295
281.26
280.076
278.747
277.277
275.671
273.932
272.067
270.079
267.974
265.757
263.435
261.012
258.495
255.89
253.202
250.438
247.605
244.708
241.754
238.749
235.692
232.611
229.467
226.341
223.269
220.475
218.332
216.357
214.418
212.489
210.566
208.65
206.741
204.838
202.937
201.032
199.099
197.125
194.988
193.75
1.69546
0.887738
0.81996
0.871922
0.972006
1.10731
1.27357
1.4681
1.68804
1.93008
2.19114
2.46865
2.76059
3.06546
3.38215
3.70991
4.04825
4.39692
4.75595
5.12562
5.50657
5.89984
6.30697
6.73006
7.17191
7.63612
8.1272
8.65062
9.21275
9.82041
10.4795
11.1928
11.9608
12.7863
13.682
14.6696
15.6482
16.7138
17.8005
18.9336
20.1075
21.3346
22.637
23.975
25.302
26.6529
28.0456
29.4874
30.9799
32.5238
34.1197
35.7679
37.469
39.2233
41.0311
42.8928
44.8087
46.7789
48.8035
50.8828
53.0165
55.2047
57.4472
59.7437
62.094
64.4974
66.9537
69.462
72.0217
74.632
77.292
80.0005
82.7566
85.5589
88.4061
91.2967
94.2292
97.2019
100.213
103.261
106.343
109.458
112.603
115.776
118.975
122.196
125.439
128.699
131.975
135.264
138.563
141.869
145.18
148.495
151.812
155.129
158.448
161.77
165.095
168.426
171.742
175.028
178.277
181.484
184.643
187.75
190.801
193.789
196.709
199.559
202.331
205.022
207.627
210.141
212.561
214.881
217.099
219.209
221.209
223.095
224.864
226.512
228.037
229.437
230.709
231.851
232.862
233.74
234.484
235.094
235.568
235.907
236.11
236.179
236.113
235.915
235.584
235.124
234.535
233.82
232.981
232.022
230.944
229.752
228.449
227.038
225.524
223.91
222.201
220.401
218.514
216.546
214.499
212.382
210.197
207.947
205.642
203.283
200.876
198.429
195.93
193.423
190.891
188.359
185.859
183.476
181.321
179.267
177.251
175.254
173.272
171.305
169.355
167.426
165.524
163.661
161.853
160.163
158.681
158.204
2.66879
1.29433
1.12378
1.13669
1.21856
1.34308
1.50126
1.68862
1.90183
2.13783
2.39382
2.66742
2.95672
3.26038
3.57749
3.90759
4.25055
4.60657
4.9761
5.3599
5.75904
6.1749
6.60918
7.06399
7.54174
8.04522
8.5775
9.14191
9.74186
10.3806
11.0604
11.7822
12.5456
13.3505
14.1986
15.092
16.0246
17.0018
18.0222
19.088
20.1992
21.3543
22.5524
23.7874
25.0533
26.3552
27.6989
29.088
30.5243
32.009
33.5427
35.1259
36.7592
38.443
40.1777
41.9637
43.8013
45.6908
47.6326
49.6267
51.6735
53.7729
55.9249
58.1297
60.387
62.6966
65.0582
67.4715
69.936
72.4511
75.0161
77.6302
80.2925
83.002
85.7576
88.5579
91.4015
94.2871
97.2129
100.177
103.178
106.214
109.283
112.382
115.509
118.662
121.839
125.037
128.253
131.486
134.733
137.991
141.258
144.532
147.812
151.096
154.383
157.671
160.958
164.233
167.486
170.707
173.893
177.036
180.132
183.176
186.162
189.087
191.944
194.729
197.436
200.062
202.602
205.05
207.404
209.657
211.807
213.85
215.781
217.598
219.298
220.877
222.332
223.662
224.865
225.937
226.879
227.688
228.364
228.905
229.312
229.585
229.723
229.728
229.6
229.341
228.951
228.433
227.789
227.021
226.131
225.123
224
222.765
221.421
219.973
218.424
216.779
215.042
213.216
211.308
209.321
207.258
205.129
202.935
200.677
198.371
196.009
193.604
191.171
188.702
186.217
183.713
181.207
178.72
176.295
173.975
171.721
169.504
167.311
165.139
162.99
160.867
158.777
156.731
154.747
152.859
151.143
149.713
149.037
3.62033
1.69837
1.41883
1.39446
1.4594
1.57449
1.72619
1.90824
2.11673
2.34861
2.60129
2.87257
3.16074
3.46454
3.7832
4.11635
4.46401
4.8265
5.20443
5.59867
6.0103
6.44066
6.89131
7.36398
7.86061
8.38323
8.93398
9.51502
10.1285
10.7763
11.4601
12.181
12.9396
13.7363
14.5722
15.4485
16.3658
17.3252
18.3276
19.3733
20.4623
21.5945
22.7692
23.9852
25.2421
26.5411
27.8844
29.2741
30.7115
32.1978
33.734
35.3207
36.9588
38.649
40.392
42.1883
44.0385
45.9434
47.9033
49.9187
51.9902
54.1181
56.3027
58.5443
60.843
63.1989
65.6119
68.082
70.6088
73.192
75.8311
78.5255
81.2744
84.0769
86.9319
89.8382
92.7945
95.7993
98.8509
101.948
105.087
108.268
111.488
114.744
118.034
121.356
124.707
128.085
131.486
134.908
138.349
141.805
145.273
148.752
152.239
155.731
159.225
162.718
166.201
169.665
173.101
176.504
179.867
183.185
186.452
189.661
192.809
195.889
198.896
201.824
204.668
207.423
210.084
212.645
215.103
217.453
219.69
221.81
223.809
225.684
227.431
229.048
230.531
231.879
233.088
234.158
235.086
235.872
236.514
237.013
237.367
237.577
237.644
237.569
237.352
236.995
236.5
235.869
235.105
234.209
233.186
232.039
230.771
229.385
227.887
226.278
224.567
222.755
220.848
218.849
216.767
214.604
212.362
210.055
207.683
205.24
202.758
200.229
197.659
195.057
192.426
189.774
187.108
184.438
181.78
179.157
176.594
174.077
171.595
169.141
166.714
164.317
161.956
159.638
157.379
155.201
153.142
151.277
149.701
148.674
4.49274
2.0644
1.68875
1.63096
1.68044
1.78672
1.93226
2.10914
2.31286
2.54027
2.78892
3.0568
3.34235
3.64442
3.96232
4.29573
4.6447
5.00957
5.39094
5.78964
6.20673
6.6434
7.10102
7.58112
8.08529
8.61523
9.17267
9.75937
10.377
11.0274
11.7119
12.4319
13.1887
13.9832
14.8165
15.6899
16.6044
17.5609
18.5604
19.6033
20.6903
21.8216
22.9978
24.2191
25.4859
26.7991
28.1602
29.5705
31.0313
32.5439
34.1094
35.729
37.4037
39.1345
40.9225
42.7687
44.6741
46.6395
48.6659
50.7541
52.905
55.1193
57.3976
59.7405
62.1486
64.6221
67.1614
69.7665
72.4375
75.1742
77.9763
80.8432
83.7744
86.7689
89.8258
92.9437
96.1213
99.3571
102.649
105.995
109.394
112.842
116.338
119.879
123.461
127.083
130.741
134.432
138.153
141.9
145.67
149.461
153.268
157.087
160.916
164.751
168.587
172.42
176.233
180.022
183.779
187.497
191.171
194.793
198.358
201.858
205.288
208.642
211.912
215.094
218.181
221.167
224.047
226.815
229.466
231.994
234.396
236.667
238.802
240.797
242.649
244.354
245.911
247.316
248.566
249.661
250.599
251.378
251.998
252.459
252.76
252.903
252.887
252.715
252.387
251.905
251.273
250.492
249.566
248.497
247.29
245.948
244.476
242.878
241.157
239.319
237.371
235.317
233.16
230.906
228.565
226.141
223.628
221.053
218.415
215.714
212.965
210.17
207.335
204.468
201.572
198.657
195.728
192.794
189.869
186.967
184.102
181.276
178.482
175.72
172.992
170.301
167.655
165.064
162.544
160.12
157.832
155.744
153.924
152.516
5.23438
2.38565
1.92647
1.83869
1.87375
1.97139
2.11051
2.28171
2.47987
2.70173
2.94488
3.20748
3.48812
3.78576
4.09978
4.42992
4.77622
5.13902
5.5189
5.91666
6.33327
6.76988
7.22775
7.70828
8.21296
8.74333
9.301
9.88761
10.5048
11.1542
11.8373
12.5558
13.3109
14.1041
14.9365
15.8095
16.7242
17.6818
18.6832
19.7295
20.8216
21.9603
23.1467
24.3815
25.6659
27.0008
28.3877
29.8279
31.3228
32.8739
34.4828
36.1508
37.8795
39.6703
41.5247
43.444
45.4298
47.4833
49.606
51.799
54.0638
56.4013
58.8128
61.2991
63.8611
66.4996
69.2151
72.008
74.8786
77.8269
80.8527
83.9557
87.1353
90.3907
93.7209
97.1244
100.6
104.145
107.759
111.438
115.181
118.984
122.845
126.76
130.727
134.742
138.801
142.901
147.038
151.207
155.405
159.628
163.87
168.129
172.398
176.674
180.951
185.214
189.454
193.663
197.834
201.96
206.034
210.049
213.997
217.871
221.664
225.369
228.977
232.484
235.881
239.163
242.322
245.354
248.251
251.009
253.621
256.084
258.392
260.541
262.528
264.348
265.999
267.478
268.783
269.913
270.865
271.639
272.235
272.651
272.889
272.95
272.834
272.544
272.081
271.447
270.647
269.683
268.559
267.277
265.843
264.262
262.539
260.679
258.686
256.563
254.324
251.971
249.507
246.935
244.277
241.532
238.703
235.802
232.835
229.806
226.725
223.598
220.431
217.231
214.004
210.758
207.499
204.237
200.98
197.741
194.532
191.355
188.212
185.105
182.038
179.016
176.048
173.146
170.328
167.618
165.054
162.69
160.569
158.773
5.85966
2.66134
2.12898
2.01383
2.03502
2.1238
2.25591
2.42059
2.61216
2.82718
3.06327
3.31871
3.5922
3.88285
4.19013
4.51381
4.85397
5.21097
5.58538
5.97797
6.38971
6.8217
7.27517
7.75147
8.25205
8.77841
9.33212
9.91481
10.5281
11.1736
11.8531
12.568
13.3199
14.1103
14.9408
15.8127
16.7274
17.6863
18.6906
19.7418
20.841
21.9898
23.1893
24.441
25.7463
27.1067
28.5237
29.9991
31.5346
33.1321
34.7935
36.5206
38.3154
40.1799
42.116
44.1257
46.2108
48.3733
50.6151
52.9379
55.3435
57.8335
60.4096
63.0729
65.825
68.6668
71.5992
74.6231
77.7388
80.9467
84.2467
87.6386
91.1218
94.6955
98.3585
102.109
105.946
109.868
113.87
117.952
122.11
126.341
130.641
135.007
139.434
143.92
148.458
153.046
157.678
162.349
167.055
171.79
176.548
181.325
186.115
190.91
195.704
200.474
205.213
209.916
214.573
219.177
223.719
228.191
232.585
236.893
241.105
245.214
249.212
253.09
256.843
260.461
263.938
267.268
270.443
273.458
276.307
278.984
281.483
283.801
285.933
287.876
289.626
291.182
292.54
293.7
294.659
295.418
295.975
296.331
296.488
296.445
296.205
295.771
295.144
294.327
293.326
292.144
290.785
289.253
287.551
285.689
283.673
281.508
279.197
276.741
274.164
271.466
268.652
265.727
262.706
259.592
256.392
253.115
249.769
246.36
242.896
239.386
235.835
232.251
228.642
225.015
221.377
217.736
214.101
210.482
206.89
203.329
199.805
196.321
192.884
189.5
186.18
182.936
179.787
176.757
173.88
171.2
168.74
166.553
6.36583
2.88961
2.29472
2.15475
2.16246
2.24198
2.36633
2.52356
2.70748
2.91443
3.14206
3.3887
3.65322
3.93482
4.23307
4.54781
4.87919
5.22758
5.59357
5.97794
6.38165
6.8058
7.25161
7.72041
8.21363
8.73278
9.27942
9.85518
10.4617
11.1007
11.7739
12.4829
13.2295
14.0153
14.8421
15.7114
16.6249
17.5843
18.5913
19.6474
20.7545
21.9143
23.1285
24.3991
25.7278
27.1167
28.5679
30.0833
31.6654
33.3164
35.0386
36.8347
38.7069
40.658
42.6903
44.8066
47.0092
49.3007
51.6835
54.1601
56.7326
59.4033
62.1743
65.0474
68.0243
71.1065
74.2954
77.5919
80.9968
84.5104
88.1331
91.8645
95.704
99.6507
103.703
107.86
112.119
116.478
120.934
125.483
130.122
134.848
139.655
144.54
149.498
154.523
159.612
164.757
169.955
175.199
180.482
185.799
191.144
196.509
201.888
207.274
212.64
217.976
223.275
228.527
233.725
238.859
243.919
248.895
253.779
258.56
263.229
267.778
272.196
276.475
280.608
284.585
288.4
292.043
295.509
298.791
301.882
304.777
307.469
309.954
312.227
314.285
316.125
317.744
319.141
320.313
321.26
321.981
322.477
322.747
322.794
322.619
322.224
321.613
320.788
319.753
318.515
317.077
315.446
313.624
311.613
309.429
307.079
304.567
301.899
299.082
296.128
293.045
289.838
286.516
283.088
279.564
275.949
272.254
268.486
264.655
260.767
256.831
252.855
248.848
244.816
240.767
236.71
232.652
228.603
224.57
220.564
216.591
212.658
208.772
204.939
201.168
197.47
193.858
190.352
186.974
183.754
180.727
177.903
175.321
6.75442
3.07037
2.42379
2.26166
2.25632
2.32617
2.44202
2.59091
2.76618
2.96401
3.18203
3.41864
3.67281
3.94386
4.23146
4.53553
4.85627
5.19409
5.54962
5.92365
6.31715
6.73122
7.16707
7.62604
8.10956
8.61913
9.15636
9.72289
10.3204
10.9507
11.6156
12.3169
13.0564
13.8361
14.6578
15.5236
16.4353
17.395
18.4048
19.4666
20.5828
21.7554
22.9869
24.2794
25.6356
27.0579
28.5488
30.1112
31.7479
33.4617
35.2557
37.133
39.0967
41.1501
43.2964
45.5387
47.8803
50.3244
52.874
55.5321
58.3017
61.1855
64.186
67.3057
70.5467
73.9109
77.3999
81.015
84.7572
88.6269
92.6245
96.7495
101.001
105.379
109.881
114.504
119.247
124.107
129.079
134.161
139.347
144.634
150.015
155.485
161.039
166.671
172.374
178.143
183.971
189.851
195.775
201.737
207.729
213.742
219.769
225.792
231.78
237.729
243.631
249.474
255.251
260.949
266.558
272.068
277.466
282.742
287.887
292.889
297.739
302.427
306.945
311.283
315.433
319.387
323.137
326.677
329.999
333.097
335.965
338.598
340.99
343.14
345.043
346.698
348.103
349.257
350.16
350.81
351.209
351.357
351.257
350.912
350.324
349.498
348.434
347.14
345.624
343.89
341.944
339.793
337.441
334.9
332.178
329.282
326.219
322.998
319.63
316.123
312.485
308.726
304.856
300.884
296.818
292.669
288.445
284.155
279.808
275.414
270.98
266.516
262.029
257.528
253.022
248.517
244.024
239.551
235.106
230.699
226.337
222.027
217.778
213.6
209.504
205.504
201.619
197.871
194.285
190.888
187.683
184.703
7.03115
3.20541
2.51784
2.33633
2.31848
2.37837
2.48507
2.62485
2.79067
2.97856
3.18613
3.41186
3.65479
3.91434
4.19028
4.4826
4.79156
5.11762
5.46143
5.82381
6.20573
6.6083
7.03274
7.4804
7.95273
8.45127
8.97764
9.53356
10.1208
10.7413
11.3969
12.0897
12.8218
13.5952
14.4122
15.2751
16.1862
17.148
18.1629
19.2336
20.3626
21.5528
22.8071
24.1283
25.5197
26.9842
28.5253
30.1463
31.8508
33.6424
35.5249
37.5021
39.578
41.7564
44.0415
46.4372
48.9474
51.5761
54.327
57.2038
60.2099
63.3487
66.6232
70.0363
73.5905
77.2881
81.131
85.1205
89.2578
93.5433
97.9771
102.559
107.287
112.161
117.178
122.335
127.63
133.058
138.616
144.298
150.099
156.013
162.034
168.155
174.37
180.67
187.05
193.502
200.018
206.591
213.212
219.872
226.563
233.274
239.996
246.681
253.323
259.914
266.442
272.898
279.27
285.546
291.715
297.763
303.678
309.448
315.062
320.51
325.779
330.861
335.746
340.423
344.885
349.122
353.127
356.892
360.411
363.678
366.685
369.426
371.897
374.096
376.02
377.667
379.036
380.126
380.938
381.471
381.726
381.704
381.41
380.848
380.02
378.932
377.588
375.993
374.157
372.086
369.786
367.264
364.53
361.591
358.458
355.139
351.644
347.982
344.163
340.197
336.095
331.866
327.521
323.069
318.522
313.888
309.179
304.403
299.57
294.691
289.774
284.828
279.862
274.886
269.908
264.936
259.978
255.045
250.146
245.288
240.481
235.733
231.054
226.454
221.945
217.543
213.264
209.129
205.16
201.38
197.782
194.401
7.20541
3.2981
2.57975
2.38169
2.35203
2.40184
2.49897
2.62907
2.78487
2.96229
3.15894
3.37334
3.60461
3.85226
4.11612
4.39627
4.69301
5.00684
5.33845
5.68868
6.05851
6.44908
6.86165
7.29758
7.75837
8.24562
8.76105
9.30648
9.88383
10.4951
11.1426
11.8283
12.5549
13.3246
14.14
15.004
15.9192
16.8887
17.9153
19.0025
20.1533
21.3713
22.66
24.0231
25.4644
26.9879
28.5976
30.2979
32.093
33.9874
35.9859
38.0931
40.3138
42.6528
45.115
47.7052
50.4281
53.2885
56.2908
59.4393
62.7378
66.1902
69.7999
73.5701
77.5037
81.603
85.8699
90.3059
94.9118
99.6879
104.634
109.749
115.031
120.478
126.087
131.855
137.777
143.849
150.065
156.42
162.906
169.517
176.244
183.079
190.014
197.042
204.153
211.34
218.595
225.907
233.268
240.668
248.098
255.546
262.957
270.319
277.624
284.859
292.014
299.076
306.033
312.873
319.583
326.149
332.554
338.786
344.835
350.688
356.336
361.767
366.971
371.938
376.659
381.125
385.328
389.261
392.919
396.296
399.382
402.169
404.656
406.842
408.724
410.3
411.571
412.535
413.194
413.55
413.602
413.355
412.812
411.979
410.858
409.458
407.782
405.838
403.635
401.179
398.48
395.546
392.386
389.009
385.427
381.649
377.685
373.547
369.245
364.79
360.193
355.466
350.618
345.662
340.608
335.468
330.251
324.968
319.63
314.248
308.829
303.386
297.926
292.46
286.996
281.542
276.109
270.706
265.341
260.023
254.763
249.57
244.453
239.423
234.494
229.681
224.999
220.469
216.108
211.935
207.94
204.161
7.28971
3.35296
2.61323
2.40146
2.36089
2.40077
2.48814
2.60834
2.7539
2.92071
3.10638
3.3095
3.52924
3.76519
4.01724
4.28553
4.57041
4.87243
5.19232
5.53094
5.88934
6.26869
6.67032
7.09567
7.54633
8.02403
8.53062
9.06812
9.63865
10.2445
10.8882
11.5722
12.2993
13.0724
13.8946
14.7692
15.6994
16.6889
17.7414
18.8609
20.0513
21.3171
22.6625
24.0922
25.611
27.2235
28.935
30.7505
32.6756
34.7156
36.8761
39.163
41.5818
44.1384
46.8384
49.6877
52.6916
55.8558
59.1852
62.6846
66.358
70.2092
74.2418
78.4592
82.8641
87.4587
92.2447
97.223
102.394
107.757
113.311
119.054
124.984
131.096
137.388
143.854
150.488
157.284
164.237
171.338
178.581
185.957
193.452
201.057
208.765
216.566
224.451
232.412
240.437
248.519
256.646
264.807
272.995
281.142
289.231
297.251
305.192
313.041
320.785
328.411
335.905
343.255
350.45
357.476
364.305
370.93
377.341
383.525
389.472
395.171
400.611
405.784
410.678
415.286
419.601
423.614
427.32
430.713
433.786
436.534
438.954
441.044
442.802
444.229
445.323
446.086
446.519
446.624
446.404
445.862
445.005
443.836
442.362
440.589
438.525
436.177
433.555
430.666
427.521
424.129
420.501
416.647
412.578
408.306
403.841
399.196
394.383
389.412
384.297
379.048
373.679
368.2
362.623
356.96
351.223
345.421
339.567
333.672
327.744
321.795
315.835
309.873
303.918
297.981
292.069
286.192
280.36
274.583
268.869
263.23
257.675
252.217
246.867
241.641
236.555
231.627
226.871
222.305
217.916
213.743
7.29912
3.37541
2.62255
2.39988
2.34952
2.37995
2.45783
2.56833
2.70394
2.86055
3.03582
3.22839
3.43749
3.66278
3.90422
4.162
4.43655
4.72848
5.03856
5.36777
5.71723
6.08823
6.4822
6.90077
7.3457
7.81895
8.32261
8.859
9.4306
10.0401
10.6903
11.3845
12.1258
12.9177
13.7641
14.6689
15.6361
16.6703
17.7761
18.9585
20.2224
21.5734
23.017
24.5589
26.2048
27.9607
29.8327
31.827
33.9504
36.2093
38.6105
41.1605
43.8661
46.734
49.7705
52.9821
56.375
59.9553
63.7286
67.7002
71.8725
76.2485
80.8317
85.625
90.6307
95.8503
101.284
106.933
112.794
118.868
125.15
131.638
138.327
145.211
152.287
159.545
166.98
174.584
182.347
190.263
198.324
206.524
214.834
223.249
231.76
240.359
249.035
257.78
266.582
275.434
284.321
293.232
302.089
310.876
319.58
328.19
336.691
345.071
353.316
361.41
369.342
377.096
384.659
392.018
399.153
406.054
412.707
419.102
425.228
431.073
436.627
441.882
446.828
451.457
455.761
459.735
463.371
466.666
469.614
472.21
474.452
476.34
477.871
479.046
479.866
480.332
480.448
480.215
479.638
478.722
477.473
475.896
473.998
471.788
469.273
466.462
463.366
459.993
456.355
452.461
448.324
443.955
439.366
434.568
429.575
424.399
419.052
413.547
407.896
402.113
396.209
390.198
384.09
377.9
371.637
365.315
358.945
352.536
346.102
339.651
333.194
326.741
320.302
313.886
307.502
301.161
294.87
288.641
282.484
276.407
270.424
264.544
258.781
253.151
247.667
242.346
237.203
232.25
227.475
222.92
7.25082
3.37129
2.61228
2.38152
2.32288
2.34486
2.41414
2.51589
2.64265
2.79039
2.95683
3.14068
3.34127
3.55833
3.7919
4.04229
4.31001
4.59579
4.90056
5.22545
5.57177
5.94103
6.33494
6.7554
7.20454
7.68468
8.19839
8.74848
9.338
9.97024
10.6488
11.3775
12.1607
13.0026
13.9081
14.882
15.9296
17.0565
18.2688
19.5726
20.9747
22.4817
24.101
25.84
27.7055
29.7041
31.8431
34.1304
36.5736
39.1805
41.9586
44.9155
48.0584
51.3944
54.9302
58.6722
62.6268
66.7999
71.198
75.829
80.6875
85.7734
91.0909
96.6421
102.427
108.447
114.699
121.181
127.891
134.824
141.975
149.339
156.908
164.676
172.635
180.776
189.088
197.563
206.191
214.961
223.862
232.883
242.009
251.228
260.529
269.903
279.34
288.831
298.365
307.938
317.505
326.996
336.401
345.703
354.891
363.95
372.865
381.624
390.211
398.613
406.816
414.805
422.568
430.091
437.358
444.358
451.079
457.51
463.639
469.457
474.954
480.122
484.952
489.437
493.571
497.347
500.76
503.807
506.484
508.787
510.715
512.267
513.443
514.245
514.673
514.731
514.422
513.75
512.721
511.339
509.611
507.546
505.15
502.432
499.401
496.068
492.442
488.535
484.358
479.922
475.24
470.324
465.186
459.839
454.298
448.573
442.68
436.63
430.437
424.115
417.677
411.134
404.5
397.788
391.009
384.175
377.299
370.392
363.464
356.526
349.589
342.662
335.756
328.88
322.044
315.256
308.527
301.866
295.283
288.789
282.395
276.112
269.954
263.934
258.068
252.37
246.853
241.529
236.384
231.465
7.1597
3.34573
2.58644
2.35052
2.28559
2.30087
2.36334
2.45836
2.57863
2.72026
2.88109
3.05996
3.25633
3.47007
3.70141
3.95082
4.21906
4.50712
4.81623
5.14788
5.50378
5.88591
6.29651
6.73808
7.21342
7.72561
8.27808
8.87458
9.51919
10.2163
10.9706
11.7875
12.6727
13.6324
14.673
15.8004
17.0217
18.3444
19.7765
21.3262
23.0022
24.8134
26.7695
28.881
31.1572
33.5998
36.2195
39.0255
42.0265
45.2307
48.6458
52.279
56.137
60.226
64.5515
69.1185
73.9311
78.9929
84.307
89.8751
95.6956
101.767
108.088
114.656
121.47
128.525
135.817
143.339
151.087
159.052
167.228
175.604
184.173
192.923
201.846
210.929
220.162
229.533
239.031
248.644
258.36
268.167
278.052
288.004
298.014
308.071
318.165
328.294
338.435
348.506
358.477
368.333
378.061
387.647
397.078
406.339
415.418
424.3
432.972
441.42
449.633
457.596
465.297
472.724
479.864
486.706
493.238
499.452
505.336
510.882
516.082
520.928
525.413
529.53
533.275
536.642
539.627
542.228
544.442
546.267
547.702
548.749
549.407
549.678
549.567
549.076
548.209
546.971
545.37
543.41
541.101
538.449
535.464
532.155
528.533
524.607
520.388
515.889
511.122
506.098
500.83
495.332
489.616
483.696
477.585
471.297
464.846
458.245
451.507
444.646
437.675
430.607
423.456
416.233
408.951
401.623
394.259
386.871
379.471
372.069
364.675
357.299
349.951
342.64
335.376
328.168
321.026
313.959
306.978
300.091
293.312
286.65
280.12
273.734
267.506
261.452
255.581
249.908
244.414
239.152
7.06283
3.31039
2.55457
2.31732
2.24995
2.26269
2.323
2.41659
2.5364
2.67877
2.84177
3.02448
3.22663
3.44843
3.69047
3.95369
4.23935
4.54906
4.88474
5.24866
5.64346
6.07212
6.53803
7.045
7.59726
8.19938
8.85658
9.5747
10.36
11.2185
12.1571
13.1839
14.3077
15.5384
16.8878
18.3581
19.9607
21.7065
23.6064
25.6709
27.911
30.3372
32.9603
35.7906
38.837
42.1068
45.6078
49.3477
53.3334
57.5707
62.0645
66.819
71.837
77.1206
82.6707
88.4875
94.5702
100.917
107.525
114.391
121.51
128.874
136.48
144.318
152.383
160.665
169.158
177.85
186.733
195.798
205.033
214.427
223.971
233.652
243.459
253.38
263.405
273.521
283.718
293.983
304.308
314.68
325.089
335.531
345.99
356.472
366.951
377.348
387.617
397.755
407.748
417.583
427.247
436.728
446.012
455.089
463.945
472.568
480.946
489.069
496.923
504.499
511.784
518.769
525.442
531.795
537.817
543.499
548.834
553.814
558.432
562.681
566.556
570.052
573.164
575.889
578.225
580.168
581.718
582.875
583.638
584.009
583.99
583.584
582.794
581.624
580.081
578.17
575.897
573.27
570.298
566.988
563.351
559.395
555.133
550.574
545.731
540.615
535.239
529.616
523.757
517.677
511.389
504.907
498.243
491.412
484.428
477.303
470.052
462.688
455.224
447.672
440.047
432.36
424.623
416.848
409.047
401.231
393.411
385.597
377.799
370.027
362.29
354.598
346.96
339.385
331.881
324.459
317.128
309.898
302.78
295.785
288.926
282.216
275.667
269.295
263.109
257.122
251.316
245.748
6.9838
3.27416
2.5255
2.29242
2.22891
2.24629
2.31267
2.41423
2.54434
2.69972
2.87893
3.08157
3.30802
3.55922
3.83667
4.14234
4.4787
4.84876
5.25605
5.70465
6.19928
6.74529
7.3485
8.01578
8.75479
9.57265
10.4784
11.4828
12.5993
13.8321
15.1934
16.6965
18.3544
20.1808
22.1887
24.3894
26.7954
29.4193
32.2731
35.3682
38.7148
42.3223
46.1987
50.3507
54.7831
59.499
64.5001
69.7873
75.3597
81.2154
87.3513
93.7628
100.445
107.39
114.593
122.045
129.737
137.661
145.807
154.167
162.729
171.484
180.421
189.53
198.8
208.221
217.782
227.474
237.286
247.207
257.228
267.338
277.528
287.787
298.106
308.476
318.886
329.331
339.799
350.282
360.778
371.276
381.762
392.266
402.729
413.076
423.272
433.319
443.202
452.914
462.442
471.777
480.907
489.822
498.512
506.965
515.173
523.123
530.808
538.216
545.338
552.164
558.686
564.894
570.779
576.334
581.55
586.42
590.938
595.097
598.89
602.314
605.364
608.034