/*--------------------------------*- C++ -*----------------------------------*\
  =========                 |
  \\      /  F ield         | OpenFOAM: The Open Source CFD Toolbox
   \\    /   O peration     | Website:  https://openfoam.org
    \\  /    A nd           | Version:  12
     \\/     M anipulation  |
\*---------------------------------------------------------------------------*/
FoamFile
{
    format      ascii;
    class       volScalarField;
    location    "0.22";
    object      k;
}
// * * * * * * * * * * * * * * * * * * * * * * * * * * * * * * * * * * * * * //

dimensions      [0 2 -2 0 0 0 0];

internalField   nonuniform List<scalar> 
12225
(
0.353921
0.335043
0.316966
0.300961
0.288125
0.278906
0.273297
0.271002
0.271564
0.274467
0.279197
0.285284
0.292322
0.299975
0.307987
0.316144
0.324489
0.336573
0.436864
0.448979
0.438084
0.43306
0.438786
0.453584
0.474797
0.499975
0.52713
0.554778
0.581888
0.607797
0.632126
0.654698
0.675618
0.694783
0.714259
0.729555
0.395187
0.410874
0.410631
0.405747
0.40201
0.400924
0.402614
0.406806
0.41308
0.420975
0.43006
0.439954
0.450345
0.460992
0.471751
0.482513
0.493558
0.504256
0.379641
0.38484
0.386546
0.38573
0.383905
0.382026
0.380567
0.379739
0.379605
0.380147
0.3813
0.382983
0.385114
0.387617
0.39044
0.393546
0.396954
0.400562
0.374976
0.3759
0.376239
0.375721
0.37457
0.373084
0.371496
0.369967
0.368593
0.367426
0.366484
0.365768
0.365267
0.364966
0.364853
0.364919
0.365157
0.365538
0.373488
0.372555
0.371759
0.370807
0.369631
0.368275
0.366809
0.3653
0.363803
0.362358
0.36099
0.359714
0.358537
0.357461
0.356488
0.355616
0.354844
0.354167
0.373012
0.371296
0.369813
0.368416
0.367025
0.36561
0.364168
0.362712
0.361257
0.359824
0.358425
0.357073
0.355774
0.354533
0.353354
0.35224
0.351191
0.350215
0.372865
0.370838
0.369004
0.367311
0.365711
0.364174
0.362679
0.361216
0.359783
0.358381
0.357015
0.355688
0.354402
0.353161
0.351967
0.350822
0.349728
0.348696
0.37282
0.37068
0.368691
0.366836
0.365095
0.363449
0.36188
0.360376
0.358928
0.357531
0.356182
0.35488
0.353622
0.352409
0.351241
0.350118
0.349042
0.348023
0.372806
0.370628
0.368578
0.366648
0.364829
0.36311
0.361482
0.359934
0.358457
0.357046
0.355693
0.354397
0.353153
0.351958
0.350812
0.349712
0.348659
0.347663
0.372801
0.370609
0.368537
0.366576
0.36472
0.362964
0.361299
0.359719
0.358216
0.356785
0.35542
0.354118
0.352874
0.351684
0.350547
0.349459
0.34842
0.34744
0.372799
0.370602
0.368522
0.36655
0.36468
0.362907
0.361225
0.359627
0.358109
0.356664
0.355289
0.353978
0.352729
0.351537
0.3504
0.349314
0.348279
0.347304
0.372797
0.370599
0.368514
0.366537
0.364661
0.36288
0.361188
0.359581
0.358053
0.3566
0.355216
0.353899
0.352644
0.351448
0.350308
0.349221
0.348185
0.34721
0.372796
0.370596
0.368509
0.366528
0.364649
0.362864
0.361168
0.359555
0.358022
0.356563
0.355174
0.353851
0.352592
0.351391
0.350247
0.349157
0.348118
0.347141
0.372795
0.370593
0.368505
0.366523
0.364641
0.362853
0.361154
0.359539
0.358003
0.35654
0.355148
0.353823
0.35256
0.351356
0.350209
0.349116
0.348074
0.347094
0.372794
0.370592
0.368502
0.366518
0.364634
0.362845
0.361145
0.359527
0.357989
0.356525
0.355131
0.353803
0.352538
0.351333
0.350184
0.349088
0.348044
0.347061
0.372794
0.37059
0.368499
0.366515
0.36463
0.362839
0.361137
0.359519
0.357979
0.356514
0.355118
0.353789
0.352523
0.351316
0.350165
0.349067
0.348021
0.347037
0.372794
0.370589
0.368498
0.366512
0.364627
0.362835
0.361132
0.359513
0.357972
0.356506
0.355109
0.353779
0.352511
0.351303
0.350151
0.349052
0.348005
0.347019
0.372793
0.370589
0.368497
0.366512
0.364626
0.362834
0.361131
0.359511
0.357969
0.356502
0.355105
0.353774
0.352506
0.351297
0.350144
0.349045
0.347997
0.34701
0.372794
0.37059
0.368498
0.366513
0.364628
0.362836
0.361133
0.359514
0.357973
0.356506
0.355109
0.353779
0.352511
0.351302
0.350149
0.349049
0.348001
0.347015
0.372794
0.370591
0.3685
0.366516
0.364632
0.362841
0.36114
0.359522
0.357982
0.356517
0.355122
0.353793
0.352526
0.351319
0.350167
0.349069
0.348023
0.347037
0.372795
0.370593
0.368504
0.366522
0.364641
0.362855
0.361158
0.359546
0.358012
0.356552
0.355163
0.353839
0.352578
0.351375
0.350228
0.349134
0.348091
0.347108
0.372796
0.370598
0.368518
0.366547
0.364681
0.362912
0.361235
0.359642
0.358127
0.356685
0.355311
0.354001
0.352751
0.351556
0.350415
0.349324
0.348282
0.347298
0.372804
0.370631
0.368592
0.366676
0.364872
0.363166
0.361548
0.360006
0.358532
0.357121
0.355767
0.354467
0.353219
0.35202
0.350868
0.349762
0.348701
0.347697
0.372856
0.370818
0.368973
0.367264
0.365645
0.364085
0.362567
0.361083
0.359631
0.358213
0.356833
0.355493
0.354196
0.352946
0.351744
0.35059
0.349486
0.348445
0.373166
0.37177
0.370579
0.369371
0.368049
0.366605
0.365072
0.363492
0.361905
0.360342
0.358826
0.357372
0.355991
0.354688
0.353468
0.352329
0.351272
0.350303
0.374797
0.375829
0.376175
0.375401
0.373834
0.371876
0.369792
0.36774
0.365814
0.364067
0.362524
0.361195
0.360075
0.359156
0.358424
0.357863
0.357457
0.35719
0.382729
0.39167
0.392375
0.388805
0.384384
0.380403
0.377247
0.374998
0.373621
0.373038
0.373153
0.373866
0.375083
0.376716
0.378685
0.380922
0.383364
0.385944
0.407499
0.414514
0.405423
0.395992
0.390555
0.389292
0.391456
0.396216
0.402837
0.410727
0.419434
0.42862
0.438029
0.447473
0.456817
0.465966
0.474875
0.483457
0.360554
0.347547
0.334933
0.322917
0.311965
0.302353
0.29419
0.287471
0.282115
0.278004
0.275002
0.272968
0.271767
0.271275
0.271378
0.271975
0.272977
0.274304
0.000796261
0.00435876
0.00717315
0.00970207
0.0123962
0.0155176
0.0190978
0.0232322
0.0280217
0.0331079
0.0384378
0.0439961
0.0497427
0.0556337
0.0616268
0.0676819
0.0737604
0.0798248
0.085838
0.0917625
0.0975605
0.103194
0.108624
0.113811
0.118713
0.123287
0.127485
0.131256
0.134551
0.137341
0.139624
0.141406
0.142602
0.142894
0.141957
0.141188
0.143885
0.141644
0.142116
0.143197
0.144488
0.145218
0.144951
0.145721
0.152134
0.159044
0.166239
0.173662
0.181293
0.189117
0.197123
0.205304
0.213656
0.222175
0.230858
0.239702
0.248704
0.257861
0.267171
0.276631
0.286236
0.295983
0.305869
0.315888
0.326037
0.336309
0.3467
0.357203
0.367812
0.378521
0.389324
0.400211
0.411177
0.422214
0.433312
0.444465
0.455664
0.466899
0.478163
0.489446
0.500739
0.512033
0.523319
0.534587
0.545827
0.557032
0.56819
0.579292
0.590328
0.601289
0.612164
0.622942
0.633615
0.644171
0.654601
0.664897
0.675055
0.685076
0.694973
0.704782
0.714473
0.72394
0.733187
0.74221
0.751001
0.759549
0.767844
0.775875
0.783631
0.791102
0.798277
0.805147
0.811702
0.817933
0.823833
0.829393
0.834605
0.839464
0.843962
0.848093
0.851853
0.855237
0.858241
0.860861
0.863096
0.864942
0.866399
0.867466
0.868142
0.868428
0.868325
0.867836
0.866963
0.86571
0.864079
0.862077
0.859709
0.856979
0.853896
0.850466
0.846697
0.842597
0.838176
0.833442
0.828407
0.823079
0.817471
0.811593
0.805456
0.799074
0.792458
0.785621
0.778575
0.771334
0.76391
0.756316
0.748569
0.740679
0.732661
0.724529
0.716287
0.707977
0.69957
0.691147
0.682785
0.675565
0.671743
0.668317
0.664895
0.661456
0.658001
0.65453
0.651034
0.647494
0.643863
0.640042
0.635798
0.630531
0.622761
0.606011
0.00297589
0.0121212
0.0181739
0.0230306
0.0275671
0.0320109
0.0366408
0.04159
0.0468903
0.0524965
0.0583579
0.0644291
0.0706683
0.0770379
0.0835041
0.0900361
0.0966048
0.103183
0.109743
0.11626
0.122708
0.129063
0.135304
0.141408
0.147356
0.153127
0.158701
0.164062
0.169208
0.174169
0.179019
0.183846
0.188713
0.193716
0.199101
0.204357
0.210578
0.217195
0.224576
0.232647
0.242263
0.252319
0.262882
0.275559
0.287404
0.298973
0.310952
0.323345
0.336121
0.349254
0.362728
0.376534
0.390666
0.405121
0.419895
0.434987
0.450394
0.466116
0.482149
0.498492
0.515141
0.532094
0.549346
0.566893
0.584731
0.602853
0.621254
0.639926
0.658862
0.678054
0.697492
0.717167
0.737068
0.757185
0.777506
0.798019
0.818711
0.839569
0.86058
0.88173
0.903004
0.924387
0.945866
0.967423
0.989045
1.01071
1.03242
1.05413
1.07585
1.09755
1.11922
1.14084
1.16239
1.18386
1.20522
1.22646
1.24756
1.2685
1.28925
1.30972
1.32975
1.34949
1.36893
1.38808
1.4069
1.42538
1.44349
1.46121
1.47853
1.49542
1.51185
1.52781
1.54328
1.55824
1.57266
1.58654
1.59985
1.61258
1.62471
1.63623
1.64711
1.65736
1.66696
1.6759
1.68416
1.69174
1.69863
1.70482
1.71032
1.7151
1.71918
1.72255
1.72521
1.72716
1.72841
1.72895
1.72879
1.72793
1.72639
1.72418
1.72129
1.71775
1.71356
1.70874
1.7033
1.69726
1.69063
1.68343
1.67569
1.66741
1.65862
1.64933
1.63958
1.62938
1.61876
1.60772
1.59632
1.58456
1.57247
1.56008
1.54738
1.53448
1.52126
1.50794
1.49457
1.48134
1.46864
1.45601
1.44333
1.4306
1.41784
1.40506
1.39228
1.37949
1.36666
1.35377
1.34066
1.32721
1.31218
1.29272
0.00590868
0.0199035
0.0280292
0.0341984
0.0396536
0.0449359
0.0503081
0.0559021
0.0617667
0.067898
0.0742671
0.0808375
0.0875728
0.0944408
0.101413
0.108466
0.115579
0.122733
0.129912
0.137103
0.144293
0.151474
0.158641
0.165792
0.17293
0.180062
0.187202
0.194371
0.20161
0.208982
0.216574
0.224477
0.23276
0.241485
0.250723
0.260503
0.270918
0.28192
0.293564
0.305855
0.318912
0.332662
0.347022
0.361973
0.377156
0.392599
0.408443
0.424729
0.441454
0.45861
0.476186
0.494176
0.512573
0.531372
0.550569
0.570162
0.590145
0.610517
0.631273
0.65241
0.673923
0.695807
0.718058
0.740668
0.763632
0.786942
0.81059
0.834566
0.85886
0.883463
0.908362
0.933546
0.959
0.984712
1.01067
1.03685
1.06324
1.08983
1.1166
1.14353
1.1706
1.1978
1.2251
1.25248
1.27994
1.30744
1.33497
1.3625
1.39002
1.41751
1.44494
1.4723
1.49957
1.52671
1.55373
1.58059
1.60727
1.63376
1.66004
1.68594
1.71149
1.73669
1.76153
1.78599
1.81003
1.83363
1.85676
1.8794
1.90151
1.92306
1.94404
1.96441
1.98414
2.00322
2.02161
2.0393
2.05626
2.07247
2.08791
2.10256
2.11641
2.12943
2.14161
2.15294
2.16341
2.173
2.1817
2.18951
2.19642
2.20242
2.20751
2.21169
2.21496
2.21732
2.21877
2.21932
2.21896
2.21772
2.2156
2.21261
2.20877
2.20408
2.19856
2.19223
2.18511
2.17722
2.16857
2.1592
2.14912
2.13835
2.12694
2.11489
2.10223
2.08901
2.07524
2.06094
2.04617
2.03093
2.01528
1.99925
1.98278
1.96612
1.94917
1.93203
1.91475
1.89749
1.88042
1.86337
1.84627
1.82912
1.81195
1.79479
1.77765
1.76055
1.74353
1.72659
1.70974
1.69303
1.67591
1.65801
0.00930236
0.0271506
0.0369544
0.0441035
0.0503375
0.056269
0.0621927
0.0682624
0.0745502
0.0810763
0.0878312
0.0947911
0.101928
0.109215
0.116629
0.124152
0.131769
0.139469
0.147244
0.15509
0.163007
0.170997
0.179068
0.187232
0.195507
0.203916
0.212489
0.221264
0.230291
0.239631
0.249354
0.259529
0.270211
0.281442
0.29326
0.305689
0.318752
0.332457
0.346811
0.361815
0.377478
0.393777
0.410658
0.428057
0.445885
0.464123
0.482799
0.501934
0.521535
0.541603
0.562137
0.583135
0.604593
0.626508
0.648878
0.671701
0.694974
0.718694
0.742857
0.767461
0.792501
0.817972
0.84387
0.870187
0.896917
0.924053
0.951584
0.979502
1.0078
1.03645
1.06546
1.09481
1.12447
1.15445
1.18471
1.21525
1.24604
1.27706
1.3083
1.33973
1.37134
1.4031
1.43498
1.46697
1.49904
1.53117
1.56334
1.59551
1.62768
1.65981
1.69188
1.72386
1.75574
1.78748
1.81907
1.85049
1.88171
1.9127
1.94339
1.9737
2.00362
2.03313
2.06222
2.09085
2.11899
2.14661
2.17367
2.20014
2.22598
2.25116
2.27566
2.29943
2.32245
2.34468
2.36611
2.3867
2.40642
2.42526
2.44318
2.46016
2.47619
2.49124
2.5053
2.51835
2.53038
2.54137
2.55131
2.56019
2.56801
2.57476
2.58044
2.58504
2.58856
2.59101
2.59239
2.59271
2.59197
2.59019
2.58737
2.58353
2.57868
2.57285
2.56604
2.55828
2.5496
2.54001
2.52954
2.51821
2.50606
2.49311
2.4794
2.46495
2.44979
2.43397
2.41751
2.40042
2.38281
2.36463
2.34597
2.32692
2.30745
2.28768
2.26759
2.24726
2.22675
2.20617
2.18564
2.16508
2.14448
2.12385
2.1032
2.08259
2.06204
2.04162
2.02138
2.00141
1.9818
1.96277
1.94414
1.92608
0.0126206
0.0337028
0.0448731
0.0529446
0.0598772
0.0663642
0.0727397
0.0791848
0.0857954
0.092614
0.0996504
0.106896
0.114333
0.121942
0.129707
0.137614
0.145653
0.15382
0.162113
0.170535
0.179093
0.187799
0.196669
0.205723
0.214987
0.224493
0.234278
0.244384
0.254859
0.265758
0.277136
0.289045
0.301526
0.314612
0.328325
0.342679
0.357684
0.373343
0.389652
0.406605
0.424191
0.442392
0.461178
0.480513
0.500359
0.5207
0.541536
0.562876
0.584724
0.607084
0.629958
0.653347
0.67725
0.701667
0.726598
0.752042
0.777999
0.804465
0.831441
0.858923
0.886907
0.915391
0.944369
0.973835
1.00378
1.03421
1.06509
1.09643
1.12822
1.16043
1.19307
1.2261
1.25952
1.29331
1.32744
1.36191
1.39668
1.43173
1.46705
1.5026
1.53837
1.57432
1.61044
1.64668
1.68304
1.71947
1.75595
1.79246
1.82896
1.86543
1.90184
1.93817
1.97437
2.01043
2.04632
2.08201
2.11747
2.15268
2.18749
2.22188
2.25584
2.28934
2.32235
2.35483
2.38674
2.41805
2.44872
2.4787
2.50796
2.53646
2.56416
2.59104
2.61704
2.64215
2.66632
2.68952
2.71173
2.73292
2.75305
2.77211
2.79007
2.80691
2.82261
2.83715
2.85051
2.86269
2.87367
2.88344
2.89199
2.89932
2.90542
2.91029
2.91393
2.91636
2.91756
2.91755
2.91634
2.91394
2.91036
2.90563
2.89975
2.89275
2.88465
2.87547
2.86524
2.85399
2.84175
2.82854
2.81439
2.79934
2.78344
2.76671
2.74916
2.73088
2.7119
2.69216
2.67189
2.65103
2.62964
2.60779
2.5855
2.56283
2.53981
2.51651
2.493
2.46935
2.44566
2.42191
2.39812
2.3743
2.35049
2.32674
2.30312
2.2797
2.25658
2.23389
2.21182
2.19064
2.17035
2.15112
0.0156637
0.0393314
0.0517682
0.0606857
0.0682512
0.0752306
0.081995
0.0887509
0.0956158
0.102653
0.109891
0.117336
0.124983
0.132822
0.140844
0.149041
0.157408
0.165946
0.174658
0.183552
0.192642
0.201943
0.211478
0.221272
0.231356
0.241764
0.252535
0.26371
0.275334
0.287452
0.300108
0.313343
0.327189
0.341669
0.356799
0.372588
0.38904
0.406154
0.423925
0.442345
0.461403
0.481087
0.501379
0.52226
0.54371
0.56572
0.588285
0.611409
0.635094
0.659346
0.684166
0.709559
0.735527
0.762072
0.789197
0.816903
0.84519
0.87406
0.903512
0.933544
0.964156
0.995344
1.0271
1.05943
1.09232
1.12577
1.15975
1.19428
1.22932
1.26488
1.30093
1.33745
1.37444
1.41186
1.4497
1.48794
1.52655
1.5655
1.60478
1.64434
1.68416
1.72421
1.76446
1.80488
1.84544
1.8861
1.92684
1.96761
2.00839
2.04915
2.08984
2.13045
2.17093
2.21125
2.25138
2.29128
2.33092
2.37025
2.40911
2.44752
2.48543
2.52283
2.55966
2.59589
2.63148
2.66639
2.70056
2.73395
2.76652
2.79823
2.82904
2.8589
2.88778
2.91563
2.94243
2.96814
2.99271
3.01613
3.03836
3.05938
3.07915
3.09766
3.11487
3.13079
3.14538
3.15863
3.17054
3.18108
3.19026
3.19806
3.20449
3.20954
3.21322
3.21552
3.21646
3.21605
3.2143
3.21122
3.20683
3.20114
3.19418
3.18598
3.17655
3.16593
3.15414
3.14121
3.12718
3.11209
3.09596
3.07882
3.06075
3.04176
3.02184
3.00116
2.97971
2.95752
2.93467
2.91119
2.88714
2.86256
2.8375
2.81202
2.78616
2.75998
2.73355
2.70694
2.68022
2.65343
2.62657
2.59971
2.57287
2.54614
2.51958
2.49331
2.46744
2.44215
2.41768
2.39432
2.37209
2.35108
0.0182507
0.0441232
0.0576456
0.0673012
0.0754217
0.0828311
0.0899298
0.0969446
0.104011
0.11121
0.118587
0.126163
0.133945
0.141935
0.15013
0.158528
0.167131
0.175944
0.184974
0.194234
0.203741
0.213515
0.22358
0.233965
0.244702
0.255826
0.267373
0.279383
0.291894
0.304945
0.318573
0.332807
0.347675
0.363194
0.379378
0.396234
0.413765
0.431969
0.450844
0.470385
0.490584
0.511434
0.532926
0.555049
0.577796
0.601161
0.625142
0.649742
0.674963
0.700812
0.727294
0.754414
0.782177
0.810588
0.839652
0.869373
0.899753
0.930796
0.962504
0.994877
1.02791
1.06162
1.09598
1.131
1.16667
1.20299
1.23994
1.27752
1.31571
1.3545
1.39387
1.43381
1.47429
1.51529
1.55678
1.59875
1.64116
1.68399
1.72719
1.77075
1.81462
1.85877
1.90317
1.94778
1.99255
2.03746
2.08246
2.12752
2.1726
2.21767
2.26267
2.30758
2.35235
2.39695
2.44134
2.48548
2.52933
2.57273
2.61565
2.65805
2.69991
2.74118
2.78182
2.82178
2.86101
2.89947
2.9371
2.97386
3.0097
3.04456
3.07841
3.1112
3.14288
3.17342
3.20277
3.2309
3.25777
3.28334
3.30759
3.33047
3.35197
3.37205
3.3907
3.4079
3.42363
3.43787
3.45061
3.46185
3.47156
3.47975
3.48642
3.49156
3.49519
3.4973
3.49791
3.49702
3.49466
3.49083
3.48557
3.47887
3.47078
3.46133
3.45053
3.43843
3.42504
3.41039
3.39456
3.37757
3.35944
3.34019
3.31996
3.29874
3.27657
3.25352
3.22965
3.20498
3.17959
3.15353
3.12683
3.09957
3.07178
3.04354
3.01488
2.98587
2.95657
2.92706
2.89739
2.86763
2.8378
2.80797
2.77819
2.74855
2.71914
2.69008
2.66153
2.63368
2.60679
2.58114
2.55672
2.53358
0.020432
0.0481053
0.0625194
0.0727896
0.0813758
0.089146
0.0965223
0.103747
0.110968
0.118282
0.125747
0.133398
0.141254
0.149327
0.157622
0.166144
0.174901
0.183901
0.193155
0.202681
0.212497
0.222625
0.233092
0.243927
0.25516
0.266825
0.278957
0.291591
0.304761
0.3185
0.332838
0.347801
0.363411
0.379685
0.396634
0.414267
0.432588
0.451599
0.4713
0.491689
0.512765
0.534525
0.556966
0.580086
0.603882
0.628355
0.653506
0.679339
0.705861
0.733079
0.761
0.789632
0.818984
0.849063
0.879875
0.911429
0.94373
0.976783
1.01059
1.04516
1.08049
1.11658
1.15343
1.19104
1.2294
1.26851
1.30835
1.34892
1.3902
1.43218
1.47484
1.51816
1.56211
1.60668
1.65183
1.69753
1.74376
1.79047
1.83763
1.88521
1.93317
1.98145
2.03003
2.07886
2.12789
2.17709
2.2264
2.27579
2.32521
2.37461
2.42396
2.47321
2.52231
2.57121
2.61988
2.66827
2.7163
2.76381
2.81078
2.85717
2.90296
2.94809
2.99251
3.03617
3.07901
3.12098
3.16203
3.2021
3.24114
3.2791
3.31592
3.35156
3.38598
3.41912
3.45094
3.48141
3.51048
3.53811
3.56428
3.58894
3.61206
3.63363
3.65362
3.672
3.68876
3.70389
3.71737
3.7292
3.73936
3.74785
3.75467
3.75982
3.76331
3.76515
3.76535
3.76391
3.76087
3.75623
3.75003
3.74227
3.733
3.72224
3.71003
3.69641
3.68139
3.665
3.64734
3.62845
3.60834
3.58706
3.56468
3.54126
3.51682
3.49144
3.46517
3.43805
3.41015
3.38152
3.35222
3.32231
3.29183
3.26086
3.22945
3.19765
3.16554
3.13317
3.10063
3.06797
3.03524
3.00252
2.96987
2.93739
2.90519
2.8734
2.84219
2.81179
2.78244
2.7544
2.72761
2.7021
0.0221981
0.0513031
0.0664189
0.0771764
0.0861326
0.0941888
0.101782
0.109165
0.116496
0.123882
0.131391
0.139071
0.14695
0.15505
0.163384
0.171964
0.180802
0.18991
0.199305
0.209005
0.219029
0.229401
0.240148
0.251299
0.262881
0.274928
0.287471
0.30054
0.314168
0.328382
0.343209
0.358672
0.374792
0.391584
0.409063
0.427237
0.446115
0.465701
0.486001
0.507017
0.528752
0.55121
0.574393
0.598304
0.622947
0.648327
0.67445
0.701325
0.728959
0.757364
0.78655
0.816528
0.847309
0.878905
0.911324
0.944578
0.978675
1.01362
1.04943
1.0861
1.12363
1.16203
1.2013
1.24144
1.28244
1.32429
1.36699
1.41053
1.45489
1.50005
1.54599
1.5927
1.64014
1.68829
1.73712
1.78658
1.83665
1.88729
1.93845
1.99009
2.04216
2.09462
2.14742
2.20051
2.25383
2.30735
2.361
2.41474
2.46852
2.52228
2.57599
2.62958
2.68301
2.73622
2.78918
2.84182
2.89395
2.94552
2.9965
3.04685
3.09651
3.14544
3.19358
3.24086
3.28724
3.33264
3.37701
3.4203
3.46244
3.50338
3.54306
3.58145
3.61847
3.65409
3.68826
3.72094
3.75209
3.78166
3.80962
3.83592
3.86055
3.88347
3.90466
3.9241
3.94177
3.95767
3.97178
3.98408
3.99458
4.00326
4.01012
4.01518
4.01845
4.01992
4.01962
4.01756
4.01376
4.00825
4.00105
3.99218
3.98166
3.96956
3.95591
3.94075
3.9241
3.90601
3.88655
3.86577
3.84369
3.82038
3.7959
3.77029
3.74362
3.71594
3.6873
3.65777
3.62741
3.59627
3.56441
3.53191
3.49881
3.46517
3.43106
3.39655
3.36168
3.32655
3.29121
3.25573
3.22019
3.18465
3.14921
3.11397
3.07904
3.04457
3.01076
2.97781
2.94597
2.91547
2.8862
2.85821
0.0235541
0.0537569
0.0693945
0.0805142
0.0897438
0.0980082
0.105755
0.113243
0.120638
0.128053
0.135567
0.143235
0.151094
0.159174
0.167495
0.176076
0.184932
0.19408
0.203539
0.213327
0.223466
0.233981
0.244896
0.256238
0.268036
0.280319
0.293115
0.306454
0.320363
0.334868
0.349995
0.365766
0.3822
0.399316
0.417128
0.43565
0.454892
0.474865
0.495577
0.517037
0.539254
0.562236
0.585991
0.610527
0.635855
0.661984
0.688925
0.716691
0.745295
0.774751
0.805072
0.836275
0.868372
0.90138
0.935311
0.970178
1.00599
1.04277
1.08051
1.11923
1.15893
1.19961
1.24127
1.28392
1.32755
1.37215
1.41772
1.46423
1.51168
1.56005
1.60931
1.65943
1.71039
1.76216
1.81469
1.86796
1.92191
1.9765
2.03169
2.08742
2.14364
2.2003
2.25733
2.31469
2.37231
2.43014
2.48812
2.5462
2.60431
2.66241
2.72043
2.77833
2.83603
2.8935
2.95068
3.00743
3.06359
3.11913
3.17401
3.22819
3.28161
3.33421
3.38593
3.4367
3.48646
3.53513
3.58267
3.629
3.67407
3.71781
3.76018
3.80112
3.84057
3.87848
3.91482
3.94952
3.98256
4.01388
4.04345
4.07122
4.09717
4.12127
4.1435
4.16383
4.18226
4.19877
4.21335
4.22599
4.23669
4.24542
4.25222
4.25707
4.26
4.26101
4.26012
4.25735
4.25272
4.24626
4.23801
4.22799
4.21623
4.20278
4.18768
4.17098
4.15272
4.13294
4.1117
4.08905
4.06505
4.03974
4.01319
3.98546
3.9566
3.92667
3.89574
3.86387
3.83112
3.79755
3.76323
3.72822
3.69258
3.65637
3.61966
3.58252
3.54501
3.5072
3.46917
3.43099
3.39274
3.35451
3.31637
3.27846
3.24089
3.20383
3.16746
3.13201
3.09768
3.06468
3.03288
3.00236
0.0245199
0.0555232
0.0715165
0.0828798
0.0922888
0.100684
0.10852
0.116058
0.12347
0.130874
0.138354
0.145972
0.153773
0.161792
0.170055
0.178587
0.187405
0.196531
0.205984
0.215785
0.225954
0.236517
0.247496
0.258919
0.270811
0.283199
0.296111
0.309573
0.323613
0.338255
0.353523
0.369441
0.386029
0.403308
0.421295
0.440007
0.45946
0.479668
0.500647
0.522409
0.544969
0.568341
0.592539
0.617578
0.643472
0.670238
0.697891
0.726449
0.755929
0.78635
0.81773
0.850089
0.883444
0.917814
0.953216
0.989667
1.02718
1.06577
1.10545
1.14622
1.18809
1.23108
1.27516
1.32036
1.36666
1.41405
1.46252
1.51206
1.56265
1.61427
1.66689
1.72048
1.77501
1.83044
1.88672
1.94381
2.00167
2.06024
2.11947
2.1793
2.23966
2.3005
2.36175
2.42334
2.48522
2.5473
2.60954
2.67187
2.73423
2.79656
2.85879
2.92086
2.98273
3.04431
3.10554
3.16618
3.22617
3.28549
3.34407
3.40187
3.45883
3.51487
3.56994
3.62396
3.67685
3.72854
3.77898
3.8281
3.87583
3.92211
3.96689
4.01012
4.05173
4.09167
4.1299
4.16636
4.20103
4.23387
4.26481
4.2938
4.32084
4.34588
4.36892
4.38994
4.40891
4.42584
4.44071
4.45352
4.46425
4.47289
4.47946
4.48397
4.48644
4.48688
4.48532
4.48176
4.47625
4.4688
4.45947
4.44827
4.43524
4.42044
4.40391
4.38569
4.36583
4.34438
4.3214
4.29694
4.27107
4.24383
4.21529
4.18551
4.15456
4.12249
4.08937
4.05526
4.02024
3.98436
3.94769
3.91029
3.87224
3.8336
3.79443
3.7548
3.71478
3.67444
3.63386
3.59312
3.55231
3.51151
3.47082
3.43036
3.39028
3.35072
3.31189
3.27399
3.23722
3.20176
3.16745
3.13441
0.0251284
0.0566715
0.0728706
0.0843687
0.0938685
0.10232
0.11018
0.117715
0.125097
0.132448
0.139856
0.147389
0.155095
0.163016
0.171182
0.17962
0.188352
0.1974
0.206785
0.216528
0.226651
0.237177
0.24813
0.259533
0.271413
0.283795
0.296706
0.31017
0.324215
0.338866
0.354149
0.370086
0.386702
0.40402
0.422062
0.440847
0.460399
0.480735
0.501878
0.523846
0.546659
0.570338
0.594904
0.620376
0.646775
0.674124
0.702444
0.731757
0.762087
0.793456
0.825888
0.859406
0.894032
0.929788
0.966695
1.00477
1.04404
1.0845
1.12618
1.16909
1.21323
1.25859
1.3052
1.35303
1.40209
1.45236
1.50384
1.55649
1.61031
1.66526
1.72131
1.77843
1.83658
1.8957
1.95576
2.01671
2.07848
2.14101
2.20425
2.26814
2.33259
2.39754
2.46292
2.52864
2.59463
2.66083
2.72717
2.79358
2.85999
2.92635
2.99257
3.05861
3.12439
3.18986
3.25473
3.31896
3.38248
3.44525
3.50721
3.56829
3.62843
3.68757
3.74563
3.80254
3.8582
3.91254
3.9655
4.01702
4.06704
4.11549
4.16231
4.20745
4.25085
4.29245
4.33222
4.37011
4.40607
4.44009
4.47209
4.50199
4.52981
4.55552
4.57909
4.60052
4.6198
4.6369
4.65183
4.66458
4.67515
4.68352
4.68972
4.69377
4.69566
4.69543
4.6931
4.68869
4.68223
4.67376
4.6633
4.65091
4.63662
4.62047
4.60252
4.58281
4.56141
4.53835
4.5137
4.48751
4.45986
4.43079
4.40037
4.36867
4.33575
4.30167
4.2665
4.23031
4.19317
4.15514
4.11629
4.07668
4.0364
3.99549
3.95404
3.9121
3.86976
3.82707
3.78414
3.74103
3.69783
3.65464
3.61157
3.56874
3.52629
3.48439
3.44321
3.40298
3.36385
3.32601
3.28926
3.25379
0.0254232
0.0572812
0.0735538
0.0850889
0.0945982
0.103035
0.110859
0.118337
0.125642
0.132899
0.140199
0.147612
0.155192
0.16298
0.171013
0.179317
0.187918
0.196839
0.206101
0.215727
0.225736
0.236153
0.247001
0.258302
0.270083
0.282368
0.295183
0.308555
0.322511
0.337078
0.352282
0.368151
0.384711
0.401989
0.420011
0.438804
0.458394
0.478807
0.50007
0.522208
0.54525
0.569222
0.594151
0.620065
0.64699
0.674953
0.703983
0.734107
0.765353
0.79775
0.831325
0.866106
0.902118
0.939386
0.977935
1.01778
1.05895
1.10146
1.14532
1.19053
1.23711
1.28504
1.33433
1.38497
1.43695
1.49026
1.54488
1.60078
1.65794
1.71632
1.77589
1.8366
1.89841
1.96126
2.0251
2.08986
2.15549
2.22192
2.28907
2.35689
2.42529
2.4942
2.56351
2.63313
2.70301
2.77306
2.84321
2.91339
2.98353
3.05357
3.12343
3.19306
3.26239
3.33114
3.39923
3.4666
3.53319
3.59893
3.66377
3.72764
3.79046
3.85217
3.91272
3.97203
4.02994
4.08641
4.14138
4.1948
4.24659
4.2967
4.34507
4.39164
4.43635
4.47916
4.52001
4.55887
4.59569
4.63043
4.66304
4.69349
4.72173
4.74776
4.77156
4.79311
4.8124
4.82943
4.84418
4.85665
4.86685
4.87478
4.88045
4.88387
4.88506
4.88405
4.88086
4.87552
4.86806
4.85852
4.84693
4.83334
4.81779
4.80033
4.78101
4.75988
4.737
4.71242
4.6862
4.65841
4.62911
4.59835
4.5662
4.53274
4.49802
4.46212
4.42509
4.38702
4.34796
4.30799
4.26718
4.22558
4.18329
4.14035
4.09684
4.05283
4.00839
3.9636
3.91854
3.87329
3.82794
3.78259
3.73736
3.69236
3.64775
3.60368
3.56034
3.51792
3.47659
3.43649
3.39745
3.35966
0.0254567
0.0574384
0.0736699
0.0851555
0.0946011
0.102959
0.110689
0.118058
0.125242
0.132365
0.139522
0.146783
0.154205
0.161831
0.169697
0.177834
0.186266
0.195018
0.204112
0.213569
0.223412
0.233663
0.244345
0.255482
0.267101
0.279226
0.291885
0.305106
0.318918
0.33335
0.348433
0.364197
0.380673
0.397893
0.415889
0.434693
0.454338
0.474856
0.496281
0.518648
0.541992
0.566346
0.591747
0.618227
0.645821
0.67456
0.704476
0.735604
0.767977
0.801627
0.836586
0.872883
0.910548
0.949606
0.990082
1.032
1.07537
1.12022
1.16656
1.2144
1.26372
1.3145
1.36675
1.42045
1.47559
1.53215
1.5901
1.64941
1.71005
1.77197
1.83512
1.89946
1.96492
2.03146
2.099
2.16747
2.23681
2.30694
2.37778
2.44927
2.52133
2.59391
2.66679
2.73993
2.81326
2.88671
2.96019
3.03365
3.10701
3.1802
3.25316
3.32582
3.39788
3.46928
3.53993
3.60979
3.67877
3.74681
3.81384
3.8798
3.9446
4.00818
4.07047
4.1314
4.19085
4.24877
4.3051
4.35976
4.41269
4.46384
4.51315
4.56056
4.60601
4.64946
4.69086
4.73017
4.76734
4.80234
4.83513
4.86566
4.89392
4.91989
4.94354
4.96486
4.98385
5.0005
5.01479
5.02675
5.03635
5.04363
5.04858
5.05123
5.05159
5.04969
5.04556
5.03922
5.03072
5.02009
5.00736
4.99259
4.97583
4.95711
4.93649
4.91404
4.8898
4.86383
4.83619
4.80695
4.77616
4.7439
4.71023
4.67522
4.63893
4.60143
4.5628
4.52309
4.48238
4.44073
4.39823
4.35493
4.3109
4.26621
4.22094
4.17515
4.12891
4.0823
4.03539
3.98829
3.94107
3.89384
3.84671
3.79981
3.75328
3.70728
3.66199
3.6176
3.57425
3.53209
3.49093
3.45101
0.0252889
0.0572327
0.0733244
0.0846851
0.0940014
0.102222
0.109805
0.117019
0.124039
0.130993
0.137975
0.145055
0.152292
0.159728
0.167401
0.175342
0.183576
0.192127
0.20102
0.210275
0.219916
0.229967
0.240451
0.251395
0.262825
0.274769
0.287259
0.300323
0.313995
0.328309
0.343299
0.359002
0.375455
0.392696
0.410764
0.429697
0.449535
0.470318
0.492091
0.514894
0.538773
0.563771
0.589934
0.617303
0.645918
0.675806
0.707004
0.739553
0.77349
0.808849
0.845664
0.883966
0.92378
0.965132
1.00804
1.05253
1.0986
1.14629
1.19559
1.24654
1.29906
1.35311
1.40868
1.46578
1.52437
1.58443
1.64591
1.70878
1.77298
1.83847
1.9052
1.97309
2.04209
2.11213
2.18313
2.25502
2.32772
2.40115
2.47523
2.54988
2.62501
2.70053
2.77633
2.85231
2.92841
3.00454
3.08063
3.15661
3.23241
3.30799
3.38319
3.45777
3.53168
3.60484
3.67717
3.7486
3.81907
3.8885
3.95681
4.02395
4.08983
4.1544
4.21756
4.27927
4.33942
4.39795
4.45481
4.50991
4.56321
4.61464
4.66416
4.71169
4.7572
4.80063
4.84194
4.88109
4.91803
4.95274
4.98518
5.01531
5.04312
5.06857
5.09166
5.11238
5.13071
5.14665
5.1602
5.17137
5.18015
5.18656
5.19062
5.19234
5.19174
5.18886
5.18371
5.17633
5.16677
5.15505
5.14122
5.12533
5.10742
5.08754
5.06575
5.04211
5.01666
4.98948
4.96062
4.93014
4.89811
4.86459
4.82965
4.79336
4.75578
4.71699
4.67704
4.63601
4.59397
4.55098
4.50712
4.46244
4.41703
4.37094
4.32425
4.27702
4.22933
4.18125
4.13285
4.08424
4.03549
3.9867
3.938
3.88951
3.84136
3.79372
3.74676
3.70065
3.65554
3.61156
3.56853
3.52671
0.0249707
0.0567366
0.0725984
0.0837634
0.0928874
0.100912
0.108296
0.115306
0.122122
0.128869
0.135642
0.142512
0.149535
0.156757
0.164213
0.171934
0.179948
0.18828
0.196954
0.205994
0.215426
0.225276
0.23557
0.246339
0.257612
0.269423
0.281807
0.2948
0.308441
0.322769
0.337826
0.353658
0.370312
0.387838
0.406283
0.425688
0.446101
0.467574
0.490161
0.513915
0.53889
0.56514
0.592723
0.621705
0.65213
0.683968
0.717278
0.752106
0.788491
0.826464
0.866054
0.907282
0.950169
0.994727
1.04097
1.08889
1.1385
1.18979
1.24276
1.29739
1.35363
1.41146
1.47083
1.53171
1.59406
1.65784
1.723
1.78949
1.85725
1.92621
1.99631
2.06749
2.13967
2.21277
2.28673
2.36145
2.43687
2.51289
2.58943
2.66641
2.74374
2.82133
2.89909
2.97693
3.05477
3.13254
3.21017
3.2876
3.36475
3.44139
3.5174
3.59271
3.66725
3.74095
3.81373
3.88552
3.95626
4.02587
4.09429
4.16143
4.22724
4.29165
4.35459
4.41599
4.47577
4.53388
4.59025
4.64481
4.69752
4.74831
4.79714
4.84394
4.88867
4.93129
4.97175
5.01002
5.04605
5.07982
5.11129
5.14044
5.16724
5.19167
5.21373
5.23339
5.25066
5.26553
5.278
5.28808
5.29577
5.30109
5.30405
5.30467
5.30298
5.299
5.29277
5.28431
5.27366
5.26087
5.24598
5.22903
5.21007
5.18915
5.16633
5.14167
5.11521
5.08701
5.05715
5.02568
4.99266
4.95817
4.92225
4.88499
4.84644
4.80668
4.76576
4.72377
4.68075
4.63678
4.59193
4.54627
4.49985
4.45274
4.40502
4.35674
4.30798
4.25881
4.2093
4.15955
4.10964
4.05967
4.00975
3.96
3.91057
3.86161
3.81328
3.76575
3.71916
3.67363
3.629
3.58555
0.0246354
0.0561143
0.0716789
0.0825925
0.0914748
0.0992606
0.106408
0.113186
0.119774
0.126297
0.13285
0.139503
0.146312
0.153322
0.16057
0.168087
0.175905
0.18405
0.192551
0.201436
0.210736
0.220483
0.230709
0.241452
0.252751
0.264645
0.277181
0.290406
0.304372
0.319122
0.334709
0.351193
0.36864
0.387123
0.406731
0.427437
0.449324
0.472461
0.496913
0.522739
0.550001
0.578753
0.609049
0.640937
0.674454
0.709615
0.746447
0.784977
0.825224
0.867202
0.910919
0.956377
1.00357
1.05249
1.10313
1.15545
1.20945
1.26509