/*--------------------------------*- C++ -*----------------------------------*\
  =========                 |
  \\      /  F ield         | OpenFOAM: The Open Source CFD Toolbox
   \\    /   O peration     | Website:  https://openfoam.org
    \\  /    A nd           | Version:  12
     \\/     M anipulation  |
\*---------------------------------------------------------------------------*/
FoamFile
{
    format      ascii;
    class       volScalarField;
    location    "0.22";
    object      p;
}
// * * * * * * * * * * * * * * * * * * * * * * * * * * * * * * * * * * * * * //

dimensions      [0 2 -2 0 0 0 0];

internalField   nonuniform List<scalar> 
12225
(
-1.11827
-3.40128
-4.56379
-4.87205
-5.04041
-5.20025
-5.32499
-5.41358
-5.48339
-5.54465
-5.59914
-5.6467
-5.68764
-5.72129
-5.74654
-5.75309
-5.75062
-5.64334
-4.58577
-5.28789
-5.37817
-5.24319
-5.20323
-5.27064
-5.35155
-5.41759
-5.47482
-5.52847
-5.57834
-5.62326
-5.66296
-5.69656
-5.72364
-5.7372
-5.75007
-5.73521
-4.79051
-4.68758
-4.8444
-4.9666
-5.07408
-5.19653
-5.30499
-5.38786
-5.4553
-5.51542
-5.56989
-5.6185
-5.66139
-5.6983
-5.72968
-5.75243
-5.7808
-5.81366
-4.65322
-4.57511
-4.85122
-5.03003
-5.1246
-5.22187
-5.31716
-5.39493
-5.45976
-5.51826
-5.57189
-5.62029
-5.66361
-5.70199
-5.73648
-5.76713
-5.80561
-5.8582
-4.66019
-4.67746
-4.91759
-5.06757
-5.14372
-5.22858
-5.31837
-5.39466
-5.45888
-5.51691
-5.57041
-5.61921
-5.66356
-5.70403
-5.74208
-5.77944
-5.82468
-5.88457
-4.72187
-4.76435
-4.94218
-5.073
-5.1511
-5.23379
-5.32028
-5.39535
-5.45923
-5.51703
-5.57056
-5.61986
-5.66532
-5.70779
-5.74897
-5.79114
-5.84042
-5.90218
-4.7816
-4.82114
-4.95759
-5.07988
-5.16239
-5.24226
-5.32412
-5.39721
-5.46054
-5.51804
-5.57154
-5.62129
-5.66777
-5.712
-5.75568
-5.80107
-5.85238
-5.91313
-4.83475
-4.86966
-4.98
-5.09271
-5.17538
-5.25143
-5.32857
-5.39947
-5.46214
-5.51929
-5.57272
-5.62286
-5.67025
-5.71593
-5.76146
-5.80876
-5.86061
-5.91889
-4.88453
-4.91627
-5.00711
-5.10799
-5.18817
-5.26078
-5.33372
-5.40229
-5.46406
-5.52077
-5.57404
-5.62444
-5.67254
-5.71927
-5.76597
-5.81413
-5.86546
-5.92075
-4.93187
-4.96051
-5.03573
-5.1247
-5.20119
-5.27072
-5.33981
-5.40584
-5.46644
-5.52255
-5.57552
-5.62601
-5.67452
-5.72188
-5.76913
-5.81733
-5.86748
-5.9197
-4.97663
-5.00193
-5.06476
-5.14289
-5.21488
-5.28129
-5.34679
-5.41013
-5.46932
-5.52466
-5.57719
-5.62753
-5.67616
-5.72372
-5.77098
-5.81864
-5.86723
-5.91653
-5.01513
-5.03747
-5.09134
-5.16067
-5.22802
-5.29142
-5.35383
-5.41471
-5.47241
-5.52689
-5.57885
-5.62886
-5.67732
-5.72471
-5.77159
-5.8184
-5.86541
-5.91225
-5.05081
-5.07061
-5.11717
-5.17876
-5.2414
-5.30173
-5.36124
-5.41969
-5.47582
-5.52931
-5.58058
-5.63009
-5.67815
-5.72513
-5.77137
-5.81714
-5.86253
-5.90714
-5.08831
-5.10562
-5.14544
-5.19947
-5.25689
-5.31366
-5.37004
-5.42583
-5.48006
-5.53226
-5.58258
-5.63131
-5.67869
-5.72491
-5.77018
-5.8146
-5.85816
-5.90049
-5.1264
-5.14131
-5.17517
-5.22222
-5.27418
-5.32702
-5.38008
-5.43302
-5.48507
-5.53567
-5.58473
-5.63237
-5.67871
-5.72383
-5.76779
-5.81059
-5.85218
-5.89226
-5.16313
-5.17588
-5.20476
-5.2457
-5.2924
-5.34117
-5.39086
-5.44089
-5.49056
-5.53927
-5.58677
-5.63301
-5.67798
-5.72167
-5.76404
-5.80505
-5.84461
-5.88254
-5.19561
-5.20662
-5.23161
-5.26763
-5.30975
-5.35476
-5.40126
-5.44851
-5.49578
-5.54247
-5.58821
-5.63281
-5.67616
-5.71819
-5.75881
-5.79795
-5.83555
-5.87147
-5.21949
-5.22929
-5.25168
-5.28436
-5.32321
-5.36534
-5.40932
-5.45427
-5.49947
-5.54429
-5.58829
-5.63123
-5.67293
-5.71326
-5.75215
-5.7895
-5.82528
-5.8594
-5.22781
-5.23716
-5.25862
-5.29015
-5.32782
-5.36881
-5.41161
-5.45536
-5.49935
-5.54295
-5.58569
-5.62731
-5.66762
-5.70652
-5.74393
-5.77978
-5.81405
-5.84673
-5.21277
-5.22282
-5.24579
-5.27942
-5.31919
-5.36176
-5.4056
-5.45002
-5.4944
-5.53811
-5.5807
-5.62195
-5.66173
-5.69997
-5.73661
-5.77164
-5.80504
-5.83685
-5.18652
-5.1977
-5.22348
-5.26118
-5.30491
-5.35044
-5.39645
-5.44261
-5.4883
-5.53283
-5.57584
-5.61725
-5.65701
-5.69507
-5.73142
-5.76607
-5.79905
-5.83043
-5.15153
-5.1639
-5.19392
-5.23837
-5.28784
-5.33693
-5.38562
-5.43427
-5.48193
-5.52772
-5.57146
-5.61329
-5.65325
-5.69134
-5.72758
-5.76204
-5.79478
-5.82589
-5.11088
-5.12348
-5.15883
-5.21339
-5.27048
-5.32344
-5.37496
-5.4263
-5.47602
-5.52313
-5.56775
-5.61016
-5.65046
-5.68869
-5.72493
-5.75931
-5.79192
-5.82288
-5.06702
-5.07858
-5.12094
-5.18753
-5.25218
-5.30978
-5.36563
-5.42025
-5.4717
-5.5197
-5.56497
-5.60788
-5.64846
-5.68678
-5.723
-5.7573
-5.7898
-5.82062
-5.02015
-5.0279
-5.08892
-5.16867
-5.23376
-5.29337
-5.35521
-5.41472
-5.46841
-5.51739
-5.56334
-5.60673
-5.64753
-5.68588
-5.72204
-5.75623
-5.78862
-5.81938
-4.97219
-4.94853
-5.0593
-5.16819
-5.22872
-5.28275
-5.34611
-5.4084
-5.46359
-5.51351
-5.56028
-5.60426
-5.64539
-5.68389
-5.7201
-5.75428
-5.78664
-5.81734
-4.96287
-4.81853
-4.97753
-5.14368
-5.22812
-5.28907
-5.35379
-5.41485
-5.4685
-5.51753
-5.56382
-5.60736
-5.64803
-5.68609
-5.72188
-5.75567
-5.78772
-5.81822
-5.10827
-4.82446
-4.85916
-4.98956
-5.10908
-5.216
-5.30997
-5.38563
-5.44775
-5.50286
-5.55346
-5.5999
-5.64253
-5.68196
-5.71872
-5.75318
-5.78586
-5.81741
-5.04507
-5.54474
-5.55483
-5.39552
-5.31446
-5.33859
-5.39263
-5.44192
-5.4869
-5.53132
-5.57481
-5.61608
-5.65477
-5.69108
-5.72521
-5.75726
-5.78749
-5.81775
-1.70638
-3.57693
-4.64817
-4.94116
-5.07593
-5.21259
-5.3244
-5.40428
-5.4671
-5.52298
-5.57412
-5.62063
-5.66305
-5.70215
-5.73832
-5.77159
-5.80161
-5.82661
-6.722
-6.722
-6.72234
-6.72302
-6.72391
-6.72499
-6.72627
-6.72776
-6.72949
-6.73146
-6.73372
-6.73628
-6.73918
-6.74246
-6.74616
-6.75031
-6.75496
-6.76013
-6.76587
-6.77221
-6.77919
-6.78685
-6.79523
-6.80437
-6.81431
-6.8251
-6.83678
-6.8494
-6.863
-6.87759
-6.89325
-6.9103
-6.92883
-6.94719
-6.96665
-6.98861
-7.01211
-7.03815
-7.06871
-7.10103
-7.11805
-7.12965
-7.1647
-7.19545
-7.21351
-7.23917
-7.26674
-7.29573
-7.32563
-7.35621
-7.38728
-7.4187
-7.45035
-7.4821
-7.51385
-7.54548
-7.57689
-7.60795
-7.63856
-7.66858
-7.6979
-7.72638
-7.75389
-7.78028
-7.80541
-7.82912
-7.85126
-7.87165
-7.89015
-7.90656
-7.92072
-7.93245
-7.94156
-7.94787
-7.95118
-7.95132
-7.94808
-7.94129
-7.93075
-7.91627
-7.89767
-7.87475
-7.84735
-7.81527
-7.77835
-7.7364
-7.68928
-7.63681
-7.57883
-7.51521
-7.44578
-7.37043
-7.28902
-7.20144
-7.10758
-7.00734
-6.90069
-6.78766
-6.6682
-6.5421
-6.40914
-6.26908
-6.12211
-5.96825
-5.80756
-5.64005
-5.46576
-5.28471
-5.09698
-4.90264
-4.70178
-4.4945
-4.28093
-4.0612
-3.83547
-3.60389
-3.36666
-3.12397
-2.87602
-2.62304
-2.36527
-2.10294
-1.83632
-1.56568
-1.29128
-1.01342
-0.732392
-0.44849
-0.162023
0.126701
0.417365
0.709653
1.00324
1.29782
1.59306
1.88866
2.18428
2.47962
2.77438
3.06825
3.36093
3.65215
3.94162
4.22907
4.51424
4.79689
5.07677
5.35366
5.62734
5.89762
6.16431
6.42723
6.68621
6.94111
7.19178
7.43811
7.67997
7.91727
8.14992
8.37783
8.60093
8.81917
9.03252
9.24093
9.4444
9.64287
9.83617
10.0242
10.2069
10.3843
10.5565
10.7234
10.8851
11.0415
11.1929
11.3395
11.4821
11.6222
11.7689
11.9227
-6.72078
-6.72104
-6.72147
-6.72203
-6.72259
-6.72314
-6.72379
-6.72463
-6.72575
-6.72717
-6.72893
-6.73103
-6.73351
-6.73637
-6.73966
-6.7434
-6.74761
-6.75232
-6.75758
-6.76341
-6.76985
-6.77693
-6.78468
-6.79315
-6.80237
-6.81235
-6.82313
-6.8347
-6.84705
-6.86019
-6.87422
-6.88905
-6.90419
-6.92117
-6.9401
-6.95886
-6.97797
-6.99788
-7.0163
-7.03008
-7.05453
-7.09322
-7.11649
-7.14198
-7.18016
-7.21227
-7.243
-7.27355
-7.30425
-7.33521
-7.36643
-7.39786
-7.42945
-7.4611
-7.49273
-7.52424
-7.55553
-7.58649
-7.617
-7.64696
-7.67624
-7.7047
-7.73222
-7.75866
-7.78386
-7.80769
-7.82997
-7.85056
-7.86928
-7.88596
-7.90043
-7.91251
-7.92201
-7.92875
-7.93254
-7.9332
-7.93054
-7.92436
-7.91447
-7.90069
-7.88284
-7.86072
-7.83415
-7.80296
-7.76698
-7.72602
-7.67993
-7.62854
-7.5717
-7.50927
-7.4411
-7.36705
-7.28701
-7.20085
-7.10846
-7.00973
-6.90456
-6.79282
-6.67439
-6.54903
-6.41682
-6.27806
-6.13259
-5.98032
-5.82126
-5.65539
-5.48275
-5.30338
-5.11732
-4.92465
-4.72545
-4.51983
-4.30791
-4.08981
-3.86569
-3.63571
-3.40005
-3.1589
-2.91247
-2.66097
-2.40464
-2.14371
-1.87846
-1.60913
-1.336
-1.05936
-0.779491
-0.496699
-0.211283
0.0764459
0.366176
0.657592
0.950375
1.24421
1.53877
1.83374
2.12881
2.42367
2.71801
3.01152
3.30392
3.59491
3.88421
4.17155
4.45668
4.73934
5.01929
5.2963
5.57016
5.84067
6.10762
6.37085
6.63019
6.88548
7.13658
7.38336
7.62572
7.86353
8.09672
8.32519
8.54887
8.76772
8.98168
9.19073
9.39484
9.59393
9.78787
9.97653
10.1599
10.3381
10.5109
10.6786
10.841
10.9984
11.1508
11.2986
11.4431
11.5853
11.7354
11.8832
-6.71736
-6.71837
-6.71944
-6.7204
-6.72109
-6.72161
-6.72215
-6.72283
-6.72375
-6.72497
-6.72652
-6.72842
-6.7307
-6.73339
-6.7365
-6.74008
-6.74413
-6.74871
-6.75383
-6.75952
-6.76583
-6.77278
-6.78041
-6.78875
-6.79782
-6.80767
-6.81832
-6.82979
-6.84211
-6.85531
-6.86949
-6.88471
-6.9008
-6.91788
-6.93633
-6.95572
-6.97598
-6.99705
-7.01839
-7.03974
-7.06363
-7.09081
-7.11605
-7.1415
-7.17051
-7.19979
-7.22946
-7.25945
-7.28972
-7.32026
-7.35103
-7.38199
-7.41307
-7.44422
-7.47534
-7.50635
-7.53715
-7.56764
-7.59772
-7.62727
-7.65617
-7.68429
-7.71151
-7.73768
-7.76266
-7.78631
-7.80846
-7.82897
-7.84765
-7.86435
-7.87889
-7.89109
-7.90077
-7.90775
-7.91184
-7.91285
-7.9106
-7.90489
-7.89554
-7.88235
-7.86515
-7.84375
-7.81797
-7.78762
-7.75253
-7.71254
-7.66747
-7.61717
-7.56148
-7.50025
-7.43334
-7.36061
-7.28193
-7.19718
-7.10625
-7.00902
-6.90539
-6.79521
-6.67836
-6.55489
-6.42463
-6.28769
-6.14404
-5.99363
-5.83644
-5.67248
-5.50175
-5.32431
-5.14019
-4.94947
-4.75222
-4.54855
-4.33857
-4.1224
-3.9002
-3.67212
-3.43833
-3.19903
-2.95442
-2.70471
-2.45013
-2.19091
-1.92732
-1.6596
-1.38804
-1.11291
-0.834493
-0.553093
-0.269007
0.0174588
0.305994
0.596283
0.888011
1.18086
1.47452
1.76866
2.06298
2.35716
2.65089
2.94388
3.23583
3.52644
3.81545
4.10257
4.38754
4.67012
4.95006
5.22713
5.50111
5.77179
6.03899
6.30251
6.56219
6.81788
7.06943
7.3167
7.55957
7.79795
8.03173
8.26082
8.48514
8.70464
8.91926
9.12895
9.33367
9.53336
9.72796
9.91741
10.1016
10.2806
10.4544
10.623
10.7864
10.9447
11.0984
11.2477
11.3941
11.538
11.6908
11.8284
-6.71216
-6.71391
-6.71598
-6.71773
-6.71896
-6.71985
-6.72064
-6.72147
-6.72247
-6.72372
-6.72526
-6.72714
-6.72939
-6.73204
-6.73512
-6.73865
-6.74267
-6.7472
-6.75227
-6.75792
-6.76417
-6.77106
-6.77861
-6.78686
-6.79585
-6.80559
-6.81612
-6.82747
-6.83966
-6.85274
-6.86674
-6.88172
-6.89771
-6.9147
-6.9327
-6.95167
-6.9716
-6.99247
-7.01416
-7.03686
-7.06094
-7.0863
-7.11223
-7.1387
-7.16615
-7.19441
-7.22326
-7.25258
-7.28229
-7.31231
-7.34261
-7.37311
-7.40375
-7.43446
-7.46517
-7.49578
-7.52621
-7.55635
-7.5861
-7.61535
-7.64399
-7.67189
-7.69891
-7.72492
-7.74979
-7.77335
-7.79547
-7.81597
-7.83469
-7.85147
-7.86613
-7.8785
-7.88839
-7.89562
-7.9
-7.90135
-7.89948
-7.8942
-7.88532
-7.87265
-7.85601
-7.83522
-7.81009
-7.78044
-7.74609
-7.70688
-7.66265
-7.61322
-7.55844
-7.49816
-7.43225
-7.36054
-7.28293
-7.19927
-7.10945
-7.01336
-6.91088
-6.8019
-6.68633
-6.56415
-6.43531
-6.2998
-6.15758
-6.00862
-5.85289
-5.6904
-5.52117
-5.34522
-5.16261
-4.97339
-4.77766
-4.57549
-4.36701
-4.15234
-3.93163
-3.70502
-3.47269
-3.23483
-2.99163
-2.74331
-2.49009
-2.2322
-1.9699
-1.70345
-1.43311
-1.15916
-0.881886
-0.601578
-0.318537
-0.0330657
0.254526
0.543925
0.834818
1.12689
1.41982
1.7133
2.00701
2.30064
2.59389
2.88645
3.17803
3.46834
3.75709
4.04402
4.32886
4.61136
4.89127
5.16836
5.44242
5.71323
5.9806
6.24434
6.50428
6.76027
7.01216
7.2598
7.50308
7.74189
7.97612
8.20569
8.43051
8.65054
8.8657
9.07594
9.28118
9.48134
9.67642
9.86639
10.0512
10.2308
10.4052
10.5744
10.7385
10.8976
11.0521
11.2023
11.3496
11.4936
11.6453
11.7707
-6.70641
-6.70896
-6.71214
-6.71484
-6.71677
-6.7182
-6.7194
-6.72057
-6.72183
-6.72327
-6.72497
-6.72699
-6.72936
-6.73211
-6.73529
-6.73892
-6.74302
-6.74764
-6.7528
-6.75852
-6.76485
-6.77182
-6.77945
-6.78779
-6.79685
-6.80668
-6.81731
-6.82876
-6.84107
-6.85427
-6.86839
-6.88347
-6.89953
-6.91659
-6.93465
-6.95366
-6.97361
-6.99449
-7.01628
-7.03902
-7.0628
-7.08761
-7.11327
-7.1397
-7.16686
-7.19466
-7.22302
-7.25185
-7.2811
-7.3107
-7.3406
-7.37072
-7.40101
-7.43139
-7.46177
-7.49209
-7.52224
-7.55214
-7.58167
-7.61072
-7.63919
-7.66694
-7.69384
-7.71977
-7.74458
-7.76812
-7.79023
-7.81076
-7.82955
-7.84642
-7.8612
-7.87372
-7.88379
-7.89123
-7.89585
-7.89747
-7.8959
-7.89095
-7.88243
-7.87016
-7.85394
-7.83359
-7.80894
-7.77979
-7.74599
-7.70735
-7.6637
-7.6149
-7.56077
-7.50117
-7.43596
-7.36499
-7.28812
-7.20525
-7.11623
-7.02096
-6.91932
-6.81124
-6.69662
-6.57541
-6.44756
-6.31305
-6.17182
-6.02385
-5.86913
-5.70766
-5.53945
-5.36452
-5.18294
-4.99475
-4.80004
-4.5989
-4.39144
-4.17778
-3.95807
-3.73246
-3.50112
-3.26423
-3.02199
-2.77461
-2.52232
-2.26534
-2.00392
-1.73833
-1.46882
-1.19568
-0.919178
-0.639617
-0.357291
-0.072502
0.214442
0.503229
0.793545
1.08508
1.37751
1.67053
1.96381
2.25707
2.54997
2.84223
3.13355
3.42363
3.7122
3.99899
4.28372
4.56615
4.84604
5.12314
5.39724
5.66813
5.93561
6.1995
6.45961
6.7158
6.96792
7.21581
7.45937
7.69847
7.93303
8.16294
8.38813
8.60853
8.82406
9.03466
9.24024
9.44072
9.6361
9.82636
10.0115
10.1914
10.3662
10.5358
10.7003
10.8599
11.0147
11.1652
11.3125
11.4554
11.6043
11.718
-6.70124
-6.70451
-6.7087
-6.71232
-6.71499
-6.71703
-6.71874
-6.72033
-6.72195
-6.72372
-6.7257
-6.72797
-6.73057
-6.73355
-6.73694
-6.74077
-6.74508
-6.7499
-6.75526
-6.76119
-6.76773
-6.7749
-6.78275
-6.7913
-6.8006
-6.81066
-6.82153
-6.83323
-6.84579
-6.85925
-6.87363
-6.88895
-6.90522
-6.92246
-6.94065
-6.95978
-6.97983
-7.00078
-7.02263
-7.04536
-7.06898
-7.09346
-7.11875
-7.14479
-7.17154
-7.19891
-7.22685
-7.25529
-7.28417
-7.31343
-7.34301
-7.37284
-7.40285
-7.43298
-7.46314
-7.49325
-7.52322
-7.55295
-7.58234
-7.61128
-7.63965
-7.66734
-7.6942
-7.7201
-7.74491
-7.76847
-7.79063
-7.81123
-7.8301
-7.84708
-7.86199
-7.87466
-7.88489
-7.89252
-7.89735
-7.89919
-7.89787
-7.89318
-7.88494
-7.87296
-7.85705
-7.83704
-7.81273
-7.78396
-7.75053
-7.71229
-7.66907
-7.6207
-7.56703
-7.5079
-7.44318
-7.37271
-7.29638
-7.21405
-7.12559
-7.0309
-6.92988
-6.82243
-6.70847
-6.58794
-6.46077
-6.32693
-6.18638
-6.03908
-5.88504
-5.72424
-5.5567
-5.38245
-5.20154
-5.01403
-4.81999
-4.61952
-4.41274
-4.19975
-3.98071
-3.75576
-3.52507
-3.28883
-3.04723
-2.80048
-2.5488
-2.29242
-2.0316
-1.76659
-1.49764
-1.22505
-0.949077
-0.670028
-0.388192
-0.103873
0.182622
0.470983
0.760897
1.05205
1.34413
1.63681
1.9298
2.22277
2.51543
2.80746
3.09858
3.38849
3.67692
3.96358
4.24823
4.53059
4.81043
5.08752
5.36163
5.63255
5.90009
6.16406
6.42428
6.68059
6.93284
7.1809
7.42464
7.66394
7.89872
8.12886
8.35428
8.57491
8.79067
9.0015
9.2073
9.40799
9.60357
9.79404
9.97937
10.1595
10.3345
10.5044
10.6691
10.8289
10.9839
11.1343
11.281
11.4222
11.568
11.6713
-6.69751
-6.70135
-6.70635
-6.71076
-6.71411
-6.71673
-6.71895
-6.721
-6.72303
-6.72516
-6.72749
-6.73007
-6.73298
-6.73625
-6.73992
-6.74403
-6.74862
-6.75372
-6.75935
-6.76556
-6.77238
-6.77984
-6.78798
-6.79682
-6.8064
-6.81676
-6.82792
-6.83991
-6.85276
-6.86649
-6.88111
-6.89665
-6.91311
-6.93049
-6.9488
-6.968
-6.9881
-7.00907
-7.0309
-7.05357
-7.07707
-7.10138
-7.12643
-7.15221
-7.17866
-7.20573
-7.23338
-7.26154
-7.29016
-7.31917
-7.34853
-7.37816
-7.408
-7.43797
-7.46799
-7.49799
-7.52787
-7.55753
-7.58687
-7.61578
-7.64413
-7.67182
-7.69871
-7.72465
-7.74952
-7.77315
-7.79539
-7.81609
-7.83508
-7.85219
-7.86723
-7.88004
-7.89044
-7.89823
-7.90324
-7.90527
-7.90413
-7.89964
-7.89161
-7.87985
-7.86417
-7.84438
-7.82032
-7.79179
-7.75862
-7.72065
-7.6777
-7.62961
-7.57623
-7.51742
-7.45301
-7.38288
-7.30689
-7.22491
-7.13682
-7.04252
-6.9419
-6.83486
-6.72133
-6.60122
-6.47449
-6.34107
-6.20094
-6.05406
-5.90043
-5.74004
-5.57292
-5.39909
-5.21859
-5.0315
-4.83788
-4.63783
-4.43146
-4.21889
-4.00027
-3.77573
-3.54546
-3.30963
-3.06844
-2.8221
-2.57082
-2.31484
-2.05441
-1.78978
-1.52122
-1.24899
-0.973386
-0.694687
-0.413192
-0.129203
0.156975
0.445031
0.734653
1.02553
1.31734
1.60978
1.90253
2.19529
2.48774
2.77959
3.07054
3.36031
3.6486
3.93515
4.2197
4.50198
4.78177
5.05881
5.33289
5.6038
5.87134
6.13533
6.39559
6.65195
6.90428
7.15243
7.39627
7.63569
7.87059
8.10086
8.32642
8.5472
8.76311
8.97407
9.18
9.38085
9.57657
9.76718
9.95265
10.133
10.3081
10.4781
10.6429
10.8027
10.9576
11.1077
11.2535
11.3928
11.5357
11.63
-6.69568
-6.69992
-6.70552
-6.71054
-6.71446
-6.71759
-6.72028
-6.72277
-6.7252
-6.7277
-6.73037
-6.7333
-6.73652
-6.74011
-6.74409
-6.74851
-6.75341
-6.75881
-6.76475
-6.77127
-6.77839
-6.78616
-6.7946
-6.80374
-6.81363
-6.82428
-6.83573
-6.84799
-6.8611
-6.87506
-6.8899
-6.90563
-6.92224
-6.93974
-6.95813
-6.97738
-6.9975
-7.01847
-7.04027
-7.06288
-7.08629
-7.11046
-7.13537
-7.16099
-7.18726
-7.21415
-7.24162
-7.2696
-7.29807
-7.32695
-7.35618
-7.38571
-7.41547
-7.44538
-7.47537
-7.50534
-7.53522
-7.56489
-7.59426
-7.62321
-7.65163
-7.67939
-7.70636
-7.7324
-7.75737
-7.78111
-7.80348
-7.8243
-7.84342
-7.86066
-7.87585
-7.8888
-7.89933
-7.90727
-7.91242
-7.91459
-7.9136
-7.90925
-7.90136
-7.88973
-7.87419
-7.85455
-7.83062
-7.80223
-7.76921
-7.73138
-7.68858
-7.64065
-7.58743
-7.52878
-7.46454
-7.39459
-7.31879
-7.23701
-7.14913
-7.05504
-6.95464
-6.84784
-6.73453
-6.61466
-6.48815
-6.35495
-6.21503
-6.06837
-5.91495
-5.75478
-5.58786
-5.41424
-5.23396
-5.04708
-4.85368
-4.65385
-4.44771
-4.23537
-4.01697
-3.79268
-3.56264
-3.32705
-3.0861
-2.84
-2.58897
-2.33324
-2.07306
-1.80867
-1.54036
-1.26837
-0.99301
-0.714552
-0.433293
-0.149536
0.136415
0.424248
0.713653
1.00432
1.29593
1.58817
1.88074
2.17331
2.4656
2.75728
3.04808
3.33771
3.62587
3.9123
4.19674
4.47892
4.75861
5.03558
5.3096
5.58046
5.84796
6.11192
6.37217
6.62854
6.88088
7.12905
7.37293
7.61239
7.84735
8.07768
8.30332
8.52417
8.74015
8.95119
9.15721
9.35815
9.55397
9.74468
9.93024
10.1106
10.2858
10.4559
10.6207
10.7805
10.9351
11.0846
11.2294
11.3666
11.507
11.5933
-6.69598
-6.70045
-6.70643
-6.71187
-6.71621
-6.71975
-6.72285
-6.7257
-6.72849
-6.73134
-6.73434
-6.73757
-6.74111
-6.74499
-6.74927
-6.75398
-6.75917
-6.76486
-6.77109
-6.77789
-6.78531
-6.79336
-6.80208
-6.8115
-6.82165
-6.83256
-6.84425
-6.85674
-6.87006
-6.88422
-6.89922
-6.91509
-6.93182
-6.94941
-6.96786
-6.98716
-7.00729
-7.02826
-7.05004
-7.07261
-7.09596
-7.12006
-7.14489
-7.17042
-7.1966
-7.2234
-7.25079
-7.27871
-7.30712
-7.33596
-7.36517
-7.3947
-7.42447
-7.4544
-7.48444
-7.51447
-7.54442
-7.57418
-7.60364
-7.63271
-7.66124
-7.68913
-7.71623
-7.7424
-7.76751
-7.79139
-7.8139
-7.83486
-7.85411
-7.87148
-7.88679
-7.89986
-7.91051
-7.91856
-7.9238
-7.92607
-7.92516
-7.92089
-7.91306
-7.9015
-7.88602
-7.86643
-7.84255
-7.8142
-7.78122
-7.74342
-7.70066
-7.65277
-7.59959
-7.54098
-7.47679
-7.40689
-7.33115
-7.24943
-7.16162
-7.06761
-6.96729
-6.86056
-6.74733
-6.62752
-6.50106
-6.36793
-6.22806
-6.08145
-5.92808
-5.76796
-5.60109
-5.42753
-5.2473
-5.06049
-4.86716
-4.66741
-4.46134
-4.24909
-4.03079
-3.8066
-3.57667
-3.3412
-3.10038
-2.8544
-2.60351
-2.34792
-2.08788
-1.82365
-1.55549
-1.28367
-1.00847
-0.730181
-0.44909
-0.165503
0.120275
0.407936
0.697169
0.987661
1.2791
1.57118
1.86358
2.15599
2.44811
2.73965
3.03029
3.31977
3.60778
3.89408
4.17838
4.46045
4.74002
5.01689
5.29081
5.56158
5.82901
6.0929
6.35309
6.6094
6.8617
7.10985
7.35371
7.59317
7.82812
8.05846
8.28411
8.50499
8.721
8.93207
9.13813
9.33912
9.535
9.72576
9.91137
10.0918
10.267
10.437
10.6018
10.7614
10.9157
11.0645
11.2081
11.3433
11.4813
11.5607
-6.69842
-6.70298
-6.70912
-6.7148
-6.71941
-6.72325
-6.72664
-6.7298
-6.73288
-6.736
-6.73927
-6.74277
-6.74656
-6.75069
-6.75522
-6.76017
-6.7656
-6.77153
-6.778
-6.78504
-6.79268
-6.80096
-6.8099
-6.81954
-6.8299
-6.841
-6.85287
-6.86554
-6.87901
-6.8933
-6.90843
-6.9244
-6.94121
-6.95886
-6.97735
-6.99669
-7.01684
-7.03782
-7.0596
-7.08216
-7.1055
-7.12959
-7.1544
-7.17991
-7.20608
-7.23288
-7.26028
-7.28822
-7.31666
-7.34554
-7.37482
-7.40442
-7.43428
-7.46433
-7.49447
-7.52464
-7.55472
-7.58462
-7.61424
-7.64346
-7.67215
-7.70019
-7.72745
-7.75378
-7.77903
-7.80306
-7.8257
-7.84679
-7.86616
-7.88363
-7.89904
-7.91219
-7.92291
-7.931
-7.93629
-7.93858
-7.93769
-7.93342
-7.92559
-7.91401
-7.8985
-7.87887
-7.85494
-7.82654
-7.7935
-7.75565
-7.71282
-7.66486
-7.61162
-7.55295
-7.4887
-7.41875
-7.34295
-7.26119
-7.17334
-7.07929
-6.97892
-6.87213
-6.75884
-6.63896
-6.51244
-6.37922
-6.23929
-6.0926
-5.93916
-5.77896
-5.61204
-5.43841
-5.25814
-5.07128
-4.87791
-4.67813
-4.47205
-4.25979
-4.0415
-3.81732
-3.58742
-3.35199
-3.11121
-2.86529
-2.61447
-2.35896
-2.09901
-1.83488
-1.56682
-1.29512
-1.02004
-0.741879
-0.460926
-0.177481
0.108149
0.395658
0.684735
0.975068
1.26634
1.55825
1.85048
2.14272
2.43467
2.72604
3.01652
3.30582
3.59367
3.87981
4.16396
4.44587
4.7253
5.00201
5.2758
5.54644
5.81375
6.07753
6.33761
6.59383
6.84604
7.09411
7.3379
7.5773
7.81221
8.04252
8.26814
8.48899
8.70498
8.91605
9.12211
9.32311
9.51902
9.7098
9.89542
10.0759
10.2511
10.421
10.5856
10.7449
10.8987
11.0468
11.1892
11.3224
11.4582
11.5319
-6.70288
-6.70739
-6.7135
-6.71923
-6.72398
-6.72799
-6.73158
-6.73493
-6.73821
-6.74153
-6.74499
-6.74867
-6.75264
-6.75695
-6.76165
-6.76677
-6.77237
-6.77846
-6.78509
-6.79229
-6.80008
-6.80851
-6.8176
-6.82738
-6.83787
-6.8491
-6.86109
-6.87387
-6.88743
-6.90181
-6.91701
-6.93304
-6.9499
-6.9676
-6.98613
-7.00549
-7.02568
-7.04668
-7.06849
-7.09108
-7.11445
-7.13857
-7.16342
-7.18898
-7.21521
-7.24209
-7.26956
-7.2976
-7.32614
-7.35515
-7.38455
-7.4143
-7.44431
-7.47451
-7.50482
-7.53516
-7.56542
-7.5955
-7.62529
-7.65468
-7.68354
-7.71174
-7.73915
-7.76562
-7.79101
-7.81515
-7.83789
-7.85907
-7.87851
-7.89604
-7.91148
-7.92465
-7.93537
-7.94345
-7.9487
-7.95094
-7.94998
-7.94563
-7.9377
-7.92601
-7.91038
-7.89062
-7.86656
-7.83802
-7.80483
-7.76683
-7.72385
-7.67574
-7.62234
-7.56352
-7.49913
-7.42903
-7.3531
-7.2712
-7.18322
-7.08903
-6.9885
-6.88155
-6.76808
-6.64803
-6.52134
-6.38796
-6.24786
-6.10101
-5.94741
-5.78706
-5.61999
-5.44623
-5.26583
-5.07885
-4.88539
-4.68552
-4.47937
-4.26705
-4.04871
-3.8245
-3.59458
-3.35915
-3.11838
-2.87249
-2.6217
-2.36625
-2.10637
-1.84232
-1.57435
-1.30275
-1.02779
-0.749753
-0.46894
-0.185645
0.0998275
0.387172
0.676078
0.966234
1.25733
1.54905
1.84108
2.13313
2.42489
2.71605
3.00633
3.29543
3.58308
3.86901
4.15296
4.43468
4.71392
4.99044
5.26405
5.53451
5.80165
6.06527
6.3252
6.58128
6.83336
7.0813
7.32498
7.56428
7.79909
8.02932
8.25487
8.47566
8.6916
8.90263
9.10866
9.30965
9.50555
9.69632
9.88193
10.0623
10.2375
10.4073
10.5718
10.7307
10.884
11.0312
11.1723
11.3036
11.4374
11.5062
-6.7091
-6.71345
-6.71938
-6.72502
-6.72976
-6.73383
-6.73749
-6.74093
-6.74431
-6.74772
-6.75128
-6.75505
-6.7591
-6.76349
-6.76826
-6.77346
-6.77912
-6.78529
-6.79199
-6.79925
-6.80712
-6.81561
-6.82477
-6.83461
-6.84516
-6.85645
-6.86849
-6.88131
-6.89492
-6.90934
-6.92457
-6.94063
-6.95753
-6.97525
-6.99382
-7.01322
-7.03344
-7.05449
-7.07634
-7.099
-7.12244
-7.14664
-7.17158
-7.19724
-7.22359
-7.25058
-7.27819
-7.30637
-7.33507
-7.36424
-7.39382
-7.42374
-7.45394
-7.48433
-7.51482
-7.54534
-7.57577
-7.60603
-7.63598
-7.66552
-7.69452
-7.72285
-7.75037
-7.77694
-7.8024
-7.8266
-7.84938
-7.87057
-7.89
-7.9075
-7.92289
-7.93599
-7.94661
-7.95458
-7.9597
-7.96179
-7.96067
-7.95614
-7.94802
-7.93613
-7.92029
-7.90031
-7.87603
-7.84726
-7.81384
-7.77561
-7.7324
-7.68406
-7.63045
-7.57141
-7.50681
-7.4365
-7.36038
-7.27829
-7.19008
-7.09565
-6.99489
-6.88769
-6.77398
-6.65369
-6.52676
-6.39315
-6.25282
-6.10575
-5.95194
-5.79139
-5.62414
-5.4502
-5.26965
-5.08253
-4.88894
-4.68896
-4.48271
-4.27032
-4.05192
-3.82766
-3.59773
-3.36229
-3.12154
-2.87569
-2.62495
-2.36957
-2.10977
-1.84582
-1.57797
-1.30649
-1.03167
-0.753791
-0.473146
-0.190031
0.0952529
0.382398
0.671097
0.961038
1.25191
1.5434
1.8352
2.127
2.41851
2.70942
2.99945
3.2883
3.5757
3.86137
4.14507
4.42654
4.70553
4.98182
5.25518
5.52542
5.79234
6.05574
6.31547
6.57136
6.82326
7.07103
7.31455
7.55371
7.78839
8.01849
8.24393
8.46463
8.68049
8.89145
9.09743
9.29838
9.49424
9.68498
9.87055
10.0509
10.2259
10.3956
10.5598
10.7184
10.8711
11.0174
11.1573
11.2868
11.4187
11.4834
-6.7168
-6.72091
-6.72655
-6.73197
-6.73658
-6.74057
-6.74419
-6.7476
-6.75095
-6.75434
-6.75787
-6.76161
-6.76564
-6.76999
-6.77473
-6.7799
-6.78553
-6.79167
-6.79834
-6.80558
-6.81343
-6.8219
-6.83104
-6.84087
-6.85141
-6.86269
-6.87472
-6.88753
-6.90114
-6.91556
-6.9308
-6.94687
-6.96378
-6.98153
-7.00012
-7.01956
-7.03983
-7.06094
-7.08287
-7.10561
-7.12915
-7.15346
-7.17852
-7.20431
-7.2308
-7.25795
-7.28572
-7.31407
-7.34294
-7.37228
-7.40204
-7.43213
-7.46249
-7.49304
-7.52369
-7.55435
-7.58492
-7.61529
-7.64535
-7.67497
-7.70403
-7.7324
-7.75994
-7.7865
-7.81194
-7.83608
-7.85879
-7.87988
-7.89919
-7.91654
-7.93177
-7.94468
-7.95509
-7.96284
-7.96772
-7.96955
-7.96816
-7.96335
-7.95495
-7.94277
-7.92663
-7.90636
-7.88177
-7.85271
-7.819
-7.78048
-7.73699
-7.68838
-7.6345
-7.57521
-7.51036
-7.43982
-7.36345
-7.28109
-7.1926
-7.09788
-6.99682
-6.88933
-6.77533
-6.65476
-6.52757
-6.39369
-6.25311
-6.10581
-5.95179
-5.79104
-5.6236
-5.4495
-5.26879
-5.08155
-4.88784
-4.68777
-4.48146
-4.26901
-4.05058
-3.82632
-3.59639
-3.36099
-3.12029
-2.87452
-2.62388
-2.3686
-2.10894
-1.84513
-1.57744
-1.30615
-1.03152
-0.753854
-0.473433
-0.190557
0.094476
0.38136
0.669786
0.959446
1.25003
1.54122
1.83271
2.12421
2.41541
2.706
2.99571
3.28424
3.57132
3.85667
4.14005
4.42121
4.69989
4.97587
5.24895
5.5189
5.78553
6.04867
6.30814
6.56378
6.81545
7.06301
7.30632
7.54529
7.7798
8.00975
8.23505
8.45561
8.67136
8.88223
9.08813
9.28902
9.48483
9.67552
9.86103
10.0413
10.2162
10.3857
10.5497
10.7078
10.8599
11.0053
11.144
11.2717
11.4018
11.4633
-6.72571
-6.72954
-6.73481
-6.7399
-6.74426
-6.74805
-6.75149
-6.75473
-6.75792
-6.76114
-6.76451
-6.7681
-6.77196
-6.77617
-6.78076
-6.78578
-6.79128
-6.79728
-6.80383
-6.81096
-6.8187
-6.82708
-6.83613
-6.84587
-6.85634
-6.86755
-6.87952
-6.89229
-6.90585
-6.92024
-6.93546
-6.95151
-6.96842
-6.98618
-7.0048
-7.02427
-7.0446
-7.06577
-7.08777
-7.1106
-7.13424
-7.15866
-7.18384
-7.20976
-7.23638
-7.26367
-7.29158
-7.32006
-7.34906
-7.37853
-7.4084
-7.43859
-7.46905
-7.49967
-7.53038
-7.56108
-7.59167
-7.62203
-7.65206
-7.68164
-7.71062
-7.73889
-7.7663
-7.79271
-7.81797
-7.84192
-7.8644
-7.88524
-7.90429
-7.92135
-7.93627
-7.94887
-7.95895
-7.96635
-7.97087
-7.97235
-7.97059
-7.96541
-7.95664
-7.94409
-7.92759
-7.90696
-7.88203
-7.85264
-7.81861
-7.77978
-7.736
-7.6871
-7.63295
-7.57341
-7.50832
-7.43753
-7.36087
-7.27819
-7.18938
-7.09434
-6.99298
-6.8852
-6.77092
-6.65008
-6.52262
-6.38851
-6.2477
-6.1002
-5.94598
-5.78507
-5.61748
-5.44325
-5.26244
-5.07511
-4.88135
-4.68125
-4.47491
-4.26248
-4.04408
-3.81988
-3.59003
-3.35473
-3.11416
-2.86854
-2.61807
-2.36299
-2.10353
-1.83995
-1.57252
-1.30149
-1.02714
-0.749773
-0.469664
-0.187112
0.0975828
0.384117
0.672184
0.961475
1.25168
1.54249
1.83359
2.1247
2.41549
2.70569
2.99499
3.28312
3.5698
3.85476
4.13775
4.41851
4.69681
4.97243
5.24513
5.51473
5.78103
6.04384
6.30299
6.55833
6.80972
7.05701
7.30008
7.53881
7.7731
8.00286
8.22799
8.4484
8.66401
8.87476
9.08057
9.28138
9.47713
9.66775
9.85319
10.0334
10.2082
10.3775
10.5411
10.6988
10.8502
10.9947
11.1322
11.2584
11.3867
11.4456
-6.73563
-6.73916
-6.74402
-6.7487
-6.7527
-6.75614
-6.75924
-6.76214
-6.765
-6.7679
-6.77095
-6.77422
-6.77779
-6.78171
-6.78603
-6.7908
-6.79606
-6.80183
-6.80817
-6.8151
-6.82266
-6.83087
-6.83976
-6.84936
-6.85969
-6.87078
-6.88265
-6.89532
-6.90881
-6.92312
-6.93828
-6.9543
-6.97118
-6.98892
-7.00754
-7.02702
-7.04736
-7.06857
-7.09061
-7.11349
-7.13718
-7.16166
-7.18691
-7.21288
-7.23956
-7.26688
-7.29482
-7.32333
-7.35234
-7.38179
-7.41163
-7.44177
-7.47215
-7.50268
-7.53327
-7.56382
-7.59423
-7.6244
-7.65421
-7.68354
-7.71226
-7.74024
-7.76734
-7.79341
-7.81832
-7.8419
-7.86399
-7.88444
-7.90307
-7.91971
-7.9342
-7.94636
-7.956
-7.96295
-7.96704
-7.96807
-7.96588
-7.96028
-7.95109
-7.93814
-7.92126
-7.90026
-7.87499
-7.84526
-7.81092
-7.7718
-7.72775
-7.67861
-7.62424
-7.56447
-7.49914
-7.42805
-7.35107
-7.26808
-7.17897
-7.08365
-6.98201
-6.87397
-6.75945
-6.63839
-6.51073
-6.37643
-6.23547
-6.08783
-5.9335
-5.7725
-5.60484
-5.43058
-5.24975
-5.06243
-4.8687
-4.66866
-4.46241
-4.25009
-4.03183
-3.80779
-3.57813
-3.34304
-3.10271
-2.85734
-2.60715
-2.35238
-2.09325
-1.83001
-1.56294
-1.29229
-1.01834
-0.741381
-0.461696
-0.179582
0.104664
0.390738
0.678336
0.967148
1.25687
1.54719
1.8378
2.12841
2.4187
2.7084
2.9972
3.28484
3.57103
3.8555
4.13801
4.4183
4.69614
4.9713
5.24357
5.51275
5.77863
6.04105
6.29983
6.55482
6.80586
7.05284
7.29561
7.53408
7.76812
7.99765
8.22257
8.44281
8.65827
8.86889
9.07459
9.2753
9.47097
9.66153
9.84688
10.027
10.2016
10.3707
10.534
10.6913
10.8421
10.9857
11.1219
11.2466
11.3732
11.4301
-6.74685
-6.75011
-6.75454
-6.75873
-6.7622
-6.7651
-6.76764
-6.76998
-6.77228
-6.77464
-6.77717
-6.77995
-6.78306
-6.78654
-6.79046
-6.79485
-6.79975
-6.8052
-6.81123
-6.81787
-6.82516
-6.83312
-6.84178
-6.85116
-6.86129
-6.87219
-6.88388
-6.89638
-6.90972
-6.92389
-6.93892
-6.95482
-6.97158
-6.98923
-7.00774
-7.02714
-7.04739
-7.06851
-7.09047
-7.11326
-7.13685
-7.16123
-7.18636
-7.2122
-7.23873
-7.26589
-7.29365
-7.32195
-7.35073
-7.37993
-7.40949
-7.43933
-7.46938
-7.49956
-7.52977
-7.55992
-7.58992
-7.61965
-7.649
-7.67785
-7.70608
-7.73355
-7.76014
-7.78569
-7.81006
-7.8331
-7.85465
-7.87455
-7.89263
-7.90873
-7.92268
-7.93431
-7.94343
-7.94987
-7.95346
-7.95402
-7.95137
-7.94533
-7.93573
-7.92239
-7.90514
-7.88381
-7.85823
-7.82822
-7.79364
-7.75431
-7.71009
-7.66079
-7.60625
-7.54627
-7.48066
-7.40929
-7.33204
-7.2488
-7.15947
-7.06394
-6.96211
-6.8539
-6.73924
-6.61806
-6.49031
-6.35594
-6.21494
-6.06728
-5.91296
-5.75199
-5.5844
-5.41022
-5.22952
-5.04234
-4.84879
-4.64895
-4.44293
-4.23087
-4.01289
-3.78917
-3.55985
-3.32512
-3.08518
-2.84022
-2.59047
-2.33615
-2.0775
-1.81477
-1.54821
-1.27809
-1.00469
-0.728292
-0.449181
-0.167653
0.115997
0.401466