/*--------------------------------*- C++ -*----------------------------------*\
  =========                 |
  \\      /  F ield         | OpenFOAM: The Open Source CFD Toolbox
   \\    /   O peration     | Website:  https://openfoam.org
    \\  /    A nd           | Version:  12
     \\/     M anipulation  |
\*---------------------------------------------------------------------------*/
FoamFile
{
    format      ascii;
    class       surfaceScalarField;
    location    "0.22";
    object      phi;
}
// * * * * * * * * * * * * * * * * * * * * * * * * * * * * * * * * * * * * * //

dimensions      [0 3 -1 0 0 0 0];

internalField   nonuniform List<scalar> 
24170
(
3.1336e-06
5.48065e-08
3.04827e-06
8.5327e-08
2.97315e-06
7.51246e-08
2.90431e-06
6.88374e-08
2.83948e-06
6.48308e-08
2.78226e-06
5.72237e-08
2.73335e-06
4.89023e-08
2.69183e-06
4.15273e-08
2.65638e-06
3.54429e-08
2.62586e-06
3.05262e-08
2.59928e-06
2.6578e-08
2.57585e-06
2.34342e-08
2.55487e-06
2.09761e-08
2.53568e-06
1.91901e-08
2.51763e-06
1.8045e-08
2.49896e-06
1.86724e-08
2.4784e-06
2.05599e-08
3.77366e-08
2.44067e-06
3.45361e-06
1.84445e-08
3.45616e-06
8.27737e-08
3.44962e-06
8.16694e-08
3.438e-06
8.04591e-08
3.42351e-06
7.93197e-08
3.40597e-06
7.47652e-08
3.38634e-06
6.85327e-08
3.36543e-06
6.24324e-08
3.34402e-06
5.68515e-08
3.32272e-06
5.18325e-08
3.30191e-06
4.73831e-08
3.28183e-06
4.35132e-08
3.26259e-06
4.02157e-08
3.24418e-06
3.76006e-08
3.22665e-06
3.5581e-08
3.20983e-06
3.54927e-08
3.19462e-06
3.57662e-08
4.59472e-08
3.18641e-06
3.66535e-06
1.56079e-08
3.67825e-06
6.98746e-08
3.68531e-06
7.46086e-08
3.6896e-06
7.61774e-08
3.69127e-06
7.76467e-08
3.69014e-06
7.58979e-08
3.68668e-06
7.19854e-08
3.68149e-06
6.76293e-08
3.67497e-06
6.33662e-08
3.66749e-06
5.93154e-08
3.65932e-06
5.55532e-08
3.65067e-06
5.2158e-08
3.6417e-06
4.9185e-08
3.63252e-06
4.67835e-08
3.62312e-06
4.4978e-08
3.61394e-06
4.46721e-08
3.60465e-06
4.50634e-08
4.96754e-08
3.60092e-06
3.92465e-06
1.63473e-08
3.9358e-06
5.8723e-08
3.94254e-06
6.78648e-08
3.94802e-06
7.07015e-08
3.95243e-06
7.32352e-08
3.95535e-06
7.29783e-08
3.9569e-06
7.04334e-08
3.95738e-06
6.71479e-08
3.95698e-06
6.37671e-08
3.95585e-06
6.04505e-08
3.95411e-06
5.72917e-08
3.95188e-06
5.43916e-08
3.94923e-06
5.18332e-08
3.94625e-06
4.97598e-08
3.94298e-06
4.82493e-08
3.93985e-06
4.78038e-08
3.93686e-06
4.80515e-08
4.9943e-08
3.93659e-06
4.20777e-06
1.57069e-08
4.216e-06
5.04911e-08
4.22166e-06
6.22008e-08
4.2266e-06
6.57693e-08
4.23129e-06
6.85363e-08
4.23525e-06
6.90217e-08
4.23835e-06
6.73382e-08
4.24072e-06
6.47786e-08
4.24247e-06
6.20137e-08
4.24369e-06
5.92275e-08
4.24446e-06
5.65211e-08
4.24485e-06
5.40037e-08
4.24491e-06
5.17696e-08
4.24473e-06
4.99408e-08
4.24439e-06
4.85959e-08
4.24421e-06
4.79795e-08
4.24439e-06
4.78709e-08
4.83098e-08
4.24602e-06
4.51044e-06
1.43542e-08
4.51686e-06
4.40684e-08
4.52217e-06
5.68893e-08
4.52683e-06
6.11096e-08
4.53145e-06
6.39229e-08
4.53564e-06
6.48306e-08
4.53922e-06
6.37542e-08
4.54227e-06
6.17348e-08
4.54485e-06
5.94291e-08
4.54703e-06
5.70447e-08
4.54887e-06
5.46885e-08
4.5504e-06
5.24701e-08
4.55169e-06
5.04833e-08
4.5528e-06
4.88238e-08
4.55385e-06
4.75483e-08
4.55508e-06
4.67496e-08
4.5567e-06
4.62495e-08
4.58127e-08
4.5592e-06
4.83412e-06
1.29532e-08
4.83958e-06
3.86091e-08
4.84483e-06
5.16373e-08
4.84942e-06
5.6519e-08
4.85393e-06
5.94129e-08
4.85816e-06
6.06017e-08
4.86193e-06
5.9989e-08
4.86526e-06
5.84003e-08
4.86823e-06
5.64594e-08
4.87088e-06
5.43958e-08
4.87325e-06
5.23216e-08
4.87537e-06
5.0342e-08
4.87731e-06
4.85438e-08
4.87914e-06
4.69976e-08
4.88096e-06
4.57335e-08
4.88294e-06
4.47606e-08
4.88528e-06
4.39189e-08
4.29442e-08
4.88814e-06
5.1809e-06
1.16333e-08
5.18571e-06
3.38041e-08
5.19084e-06
4.65027e-08
5.19542e-06
5.19398e-08
5.19988e-06
5.49491e-08
5.20414e-06
5.63415e-08
5.20803e-06
5.61054e-08
5.21154e-06
5.48855e-08
5.21475e-06
5.3256e-08
5.21768e-06
5.14637e-08
5.22037e-06
4.96265e-08
5.22287e-06
4.7843e-08
5.22523e-06
4.61904e-08
5.2275e-06
4.47189e-08
5.2298e-06
4.34372e-08
5.23225e-06
4.23137e-08
5.23496e-06
4.12095e-08
3.99115e-08
5.23799e-06
5.5526e-06
1.037e-08
5.55685e-06
2.95541e-08
5.56177e-06
4.15849e-08
5.56634e-06
4.73724e-08
5.57079e-06
5.04923e-08
5.5751e-06
5.20336e-08
5.5791e-06
5.21089e-08
5.58277e-06
5.12164e-08
5.58616e-06
4.98659e-08
5.58931e-06
4.83141e-08
5.59225e-06
4.6684e-08
5.59502e-06
4.50675e-08
5.59768e-06
4.3532e-08
5.60029e-06
4.21133e-08
5.60292e-06
4.08068e-08
5.60566e-06
3.95672e-08
5.60859e-06
3.82821e-08
3.68034e-08
5.6117e-06
5.95099e-06
9.16003e-09
5.95476e-06
2.57819e-08
5.95941e-06
3.69292e-08
5.96395e-06
4.28378e-08
5.96841e-06
4.60349e-08
5.97276e-06
4.76794e-08
5.97686e-06
4.80042e-08
5.98068e-06
4.73993e-08
5.98425e-06
4.63022e-08
5.98759e-06
4.49681e-08
5.99075e-06
4.35242e-08
5.99376e-06
4.20556e-08
5.99667e-06
4.06211e-08
5.99954e-06
3.92474e-08
6.00242e-06
3.79248e-08
6.00538e-06
3.66098e-08
6.00844e-06
3.52179e-08
3.36581e-08
6.01159e-06
6.37796e-06
8.01694e-09
6.38133e-06
2.24101e-08
6.38571e-06
3.25442e-08
6.39019e-06
3.83609e-08
6.39464e-06
4.15828e-08
6.39903e-06
4.32888e-08
6.40323e-06
4.38015e-08
6.40719e-06
4.344e-08
6.41093e-06
4.25699e-08
6.41446e-06
4.14337e-08
6.41783e-06
4.01593e-08
6.42105e-06
3.8826e-08
6.42419e-06
3.74854e-08
6.42728e-06
3.61595e-08
6.43036e-06
3.48397e-08
6.43348e-06
3.34919e-08
6.43664e-06
3.20573e-08
3.04883e-08
6.43981e-06
5.74175e-06
7.10234e-09
5.74433e-06
1.98255e-08
5.74783e-06
2.90448e-08
5.75156e-06
3.46357e-08
5.75531e-06
3.78278e-08
5.75904e-06
3.95574e-08
5.76266e-06
4.0183e-08
5.76611e-06
3.99896e-08
5.76939e-06
3.92894e-08
5.77252e-06
3.83057e-08
5.77552e-06
3.71635e-08
5.77841e-06
3.59379e-08
5.78122e-06
3.4676e-08
5.78398e-06
3.33982e-08
5.78672e-06
3.20993e-08
5.78945e-06
3.07552e-08
5.79219e-06
2.93256e-08
2.77911e-08
5.79488e-06
6.99913e-06
6.12495e-09
7.00187e-06
1.7092e-08
7.00565e-06
2.52583e-08
7.00982e-06
3.04705e-08
7.0141e-06
3.35498e-08
7.01839e-06
3.52607e-08
7.02261e-06
3.5969e-08
7.02667e-06
3.59276e-08
7.03056e-06
3.53944e-08
7.0343e-06
3.45674e-08
7.0379e-06
3.35651e-08
7.04138e-06
3.24576e-08
7.04477e-06
3.12882e-08
7.04809e-06
3.00771e-08
7.05136e-06
2.88247e-08
7.0546e-06
2.7518e-08
7.05779e-06
2.61342e-08
2.46752e-08
7.06091e-06
8.53188e-06
5.09397e-09
8.53473e-06
1.42358e-08
8.53878e-06
2.12115e-08
8.54338e-06
2.58714e-08
8.5482e-06
2.87259e-08
8.55311e-06
3.03552e-08
8.55798e-06
3.10987e-08
8.56273e-06
3.11778e-08
8.56733e-06
3.0798e-08
8.57177e-06
3.01259e-08
8.57606e-06
2.9269e-08
8.58023e-06
2.82918e-08
8.58428e-06
2.72337e-08
8.58825e-06
2.61159e-08
8.59212e-06
2.49449e-08
8.59592e-06
2.37185e-08
8.59963e-06
2.24278e-08
2.10892e-08
8.60322e-06
1.04003e-05
4.01995e-09
1.04033e-05
1.12746e-08
1.04075e-05
1.6923e-08
1.04126e-05
2.08444e-08
1.0418e-05
2.33341e-08
1.04235e-05
2.4795e-08
1.04291e-05
2.55086e-08
1.04346e-05
2.56604e-08
1.044e-05
2.54081e-08
1.04453e-05
2.48827e-08
1.04504e-05
2.41752e-08
1.04553e-05
2.33425e-08
1.04601e-05
2.24203e-08
1.04648e-05
2.14304e-08
1.04694e-05
2.03841e-08
1.04738e-05
1.92874e-08
1.04781e-05
1.81413e-08
1.69698e-08
1.04822e-05
1.26779e-05
2.90849e-09
1.2681e-05
8.20001e-09
1.26855e-05
1.23843e-08
1.2691e-05
1.53782e-08
1.2697e-05
1.73399e-08
1.27032e-05
1.85202e-08
1.27096e-05
1.91218e-08
1.2716e-05
1.92855e-08
1.27223e-05
1.91239e-08
1.27284e-05
1.87311e-08
1.27344e-05
1.81763e-08
1.27403e-05
1.75058e-08
1.2746e-05
1.67498e-08
1.27515e-05
1.59287e-08
1.27568e-05
1.50563e-08
1.27619e-05
1.41429e-08
1.27669e-05
1.31944e-08
1.2237e-08
1.27716e-05
1.54543e-05
1.74848e-09
1.54576e-05
4.96109e-09
1.54624e-05
7.52804e-09
1.54684e-05
9.40258e-09
1.54751e-05
1.06592e-08
1.54822e-05
1.14278e-08
1.54895e-05
1.18236e-08
1.54968e-05
1.19319e-08
1.55041e-05
1.18199e-08
1.55113e-05
1.1544e-08
1.55184e-05
1.11477e-08
1.55252e-05
1.06619e-08
1.55318e-05
1.01082e-08
1.55383e-05
9.50238e-09
1.55445e-05
8.85671e-09
1.55504e-05
8.18162e-09
1.55561e-05
7.48398e-09
6.78786e-09
1.55616e-05
1.88389e-05
4.98475e-10
1.88424e-05
1.42673e-09
1.88478e-05
2.16823e-09
1.88545e-05
2.71219e-09
1.88621e-05
3.08047e-09
1.88702e-05
3.30252e-09
1.88786e-05
3.40088e-09
1.88871e-05
3.39426e-09
1.88957e-05
3.30091e-09
1.89041e-05
3.13718e-09
1.89123e-05
2.91613e-09
1.89203e-05
2.64812e-09
1.89281e-05
2.34171e-09
1.89356e-05
2.00442e-09
1.89428e-05
1.64297e-09
1.89497e-05
1.26417e-09
1.89563e-05
8.72555e-10
4.8716e-10
1.89626e-05
2.29648e-05
-9.48497e-10
2.29689e-05
-2.70449e-09
2.29752e-05
-4.13222e-09
2.29831e-05
-5.18912e-09
2.29921e-05
-5.89185e-09
2.30017e-05
-6.32708e-09
2.30117e-05
-6.58808e-09
2.30218e-05
-6.73354e-09
2.30319e-05
-6.80019e-09
2.30419e-05
-6.81921e-09
2.30516e-05
-6.81578e-09
2.30611e-05
-6.80591e-09
2.30702e-05
-6.79832e-09
2.3079e-05
-6.79751e-09
2.30875e-05
-6.80545e-09
2.30956e-05
-6.82178e-09
2.31033e-05
-6.84631e-09
-6.86689e-09
2.31106e-05
1.68118e-05
-2.09349e-09
1.68151e-05
-5.93808e-09
1.682e-05
-9.05851e-09
1.68261e-05
-1.13108e-08
1.6833e-05
-1.27436e-08
1.68402e-05
-1.3591e-08
1.68477e-05
-1.40571e-08
1.68552e-05
-1.42499e-08
1.68627e-05
-1.42445e-08
1.687e-05
-1.41113e-08
1.68771e-05
-1.39052e-08
1.68839e-05
-1.36604e-08
1.68905e-05
-1.33974e-08
1.68968e-05
-1.31294e-08
1.69029e-05
-1.28646e-08
1.69087e-05
-1.26069e-08
1.69142e-05
-1.23587e-08
-1.2112e-08
1.69194e-05
1.46357e-05
-3.20193e-09
1.46388e-05
-9.09622e-09
1.46437e-05
-1.38807e-08
1.46495e-05
-1.71901e-08
1.4656e-05
-1.91704e-08
1.46627e-05
-2.02964e-08
1.46695e-05
-2.08703e-08
1.46763e-05
-2.10263e-08
1.46829e-05
-2.08842e-08
1.46893e-05
-2.05604e-08
1.46956e-05
-2.01338e-08
1.47016e-05
-1.96498e-08
1.47073e-05
-1.91373e-08
1.47128e-05
-1.86163e-08
1.4718e-05
-1.80995e-08
1.4723e-05
-1.75937e-08
1.47278e-05
-1.71028e-08
-1.66215e-08
1.47323e-05
1.27412e-05
-4.24979e-09
1.27444e-05
-1.23055e-08
1.27493e-05
-1.88363e-08
1.27551e-05
-2.29813e-08
1.27612e-05
-2.52805e-08
1.27675e-05
-2.65786e-08
1.27738e-05
-2.71798e-08
1.278e-05
-2.72111e-08
1.2786e-05
-2.68639e-08
1.27918e-05
-2.63097e-08
1.27973e-05
-2.56432e-08
1.28025e-05
-2.49142e-08
1.28075e-05
-2.41568e-08
1.28123e-05
-2.33957e-08
1.28169e-05
-2.26459e-08
1.28212e-05
-2.19149e-08
1.28253e-05
-2.12067e-08
-2.05172e-08
1.28292e-05
1.10918e-05
-5.12658e-09
1.10951e-05
-1.56262e-08
1.11004e-05
-2.41295e-08
1.11062e-05
-2.87596e-08
1.1112e-05
-3.11172e-08
1.11179e-05
-3.2492e-08
1.11238e-05
-3.30319e-08
1.11294e-05
-3.28561e-08
1.11348e-05
-3.22564e-08
1.114e-05
-3.14489e-08
1.11449e-05
-3.0531e-08
1.11495e-05
-2.95539e-08
1.11539e-05
-2.85571e-08
1.11581e-05
-2.75683e-08
1.1162e-05
-2.66023e-08
1.11658e-05
-2.56659e-08
1.11693e-05
-2.47624e-08
-2.38883e-08
1.11727e-05
9.65583e-06
-5.74015e-09
9.65935e-06
-1.91488e-08
9.66495e-06
-2.9728e-08
9.67063e-06
-3.44392e-08
9.67626e-06
-3.67513e-08
9.68189e-06
-3.81215e-08
9.68732e-06
-3.84589e-08
9.69245e-06
-3.79828e-08
9.69729e-06
-3.71006e-08
9.70188e-06
-3.60348e-08
9.70621e-06
-3.48652e-08
9.7103e-06
-3.36432e-08
9.71416e-06
-3.24136e-08
9.71779e-06
-3.12057e-08
9.72123e-06
-3.00338e-08
9.72446e-06
-2.89037e-08
9.72752e-06
-2.78167e-08
-2.67679e-08
9.7304e-06
8.40543e-06
-5.81965e-09
8.4098e-06
-2.35218e-08
8.41531e-06
-3.52283e-08
8.42049e-06
-3.96252e-08
8.42592e-06
-4.21761e-08
8.43138e-06
-4.35864e-08
8.43652e-06
-4.36017e-08
8.44127e-06
-4.27336e-08
8.44569e-06
-4.15184e-08
8.44981e-06
-4.01558e-08
8.45365e-06
-3.87034e-08
8.45722e-06
-3.72129e-08
8.46054e-06
-3.57324e-08
8.46362e-06
-3.42908e-08
8.46649e-06
-3.29016e-08
8.46916e-06
-3.15709e-08
8.47164e-06
-3.02993e-08
-2.9083e-08
8.47396e-06
7.31506e-06
-3.59194e-09
7.32194e-06
-3.04049e-08
7.32739e-06
-4.06751e-08
7.33215e-06
-4.43889e-08
7.33746e-06
-4.74824e-08
7.34282e-06
-4.89538e-08
7.34778e-06
-4.85555e-08
7.35225e-06
-4.72058e-08
7.35628e-06
-4.55517e-08
7.3599e-06
-4.37716e-08
7.36312e-06
-4.19247e-08
7.36598e-06
-4.00742e-08
7.36852e-06
-3.82696e-08
7.37077e-06
-3.65369e-08
7.37275e-06
-3.48878e-08
7.37451e-06
-3.33269e-08
7.37606e-06
-3.18513e-08
-3.04547e-08
7.37743e-06
6.36222e-06
4.25412e-09
6.37294e-06
-4.11277e-08
6.38007e-06
-4.77986e-08
6.38624e-06
-5.05644e-08
6.3922e-06
-5.34454e-08
6.39748e-06
-5.42338e-08
6.40183e-06
-5.29055e-08
6.4054e-06
-5.07725e-08
6.4083e-06
-4.84487e-08
6.41057e-06
-4.60464e-08
6.41228e-06
-4.36332e-08
6.41349e-06
-4.12868e-08
6.41428e-06
-3.90558e-08
6.4147e-06
-3.69596e-08
6.41482e-06
-3.50051e-08
6.41469e-06
-3.31933e-08
6.41435e-06
-3.15158e-08
-2.99524e-08
6.41385e-06
5.53608e-06
1.36393e-08
5.54775e-06
-5.27998e-08
5.55743e-06
-5.7482e-08
5.566e-06
-5.91292e-08
5.57276e-06
-6.02069e-08
5.57718e-06
-5.86479e-08
5.57931e-06
-5.5044e-08
5.57974e-06
-5.11976e-08
5.57887e-06
-4.75831e-08
5.577e-06
-4.41721e-08
5.57434e-06
-4.0972e-08
5.57107e-06
-3.80205e-08
5.56735e-06
-3.53313e-08
5.56328e-06
-3.28958e-08
5.55898e-06
-3.06998e-08
5.55452e-06
-2.87401e-08
5.55002e-06
-2.70079e-08
-2.5442e-08
5.54551e-06
4.85751e-06
-1.62611e-08
4.86091e-06
-5.62003e-08
4.8615e-06
-5.80728e-08
4.85883e-06
-5.64585e-08
4.85482e-06
-5.61962e-08
4.84812e-06
-5.19477e-08
4.83886e-06
-4.57848e-08
4.8276e-06
-3.99396e-08
4.81498e-06
-3.49659e-08
4.8016e-06
-3.07865e-08
4.78789e-06
-2.72655e-08
4.77417e-06
-2.42998e-08
4.76064e-06
-2.17985e-08
4.74742e-06
-1.96825e-08
4.73461e-06
-1.78888e-08
4.72228e-06
-1.64076e-08
4.71054e-06
-1.52654e-08
-1.4955e-08
4.70005e-06
4.18642e-06
4.13021e-06
4.07214e-06
4.01568e-06
3.95949e-06
3.90754e-06
3.86175e-06
3.82182e-06
3.78685e-06
3.75606e-06
3.7288e-06
3.7045e-06
3.6827e-06
3.66302e-06
3.64513e-06
3.62872e-06
3.61345e-06
3.5985e-06
1.00015e-08
-1.00015e-08
2.08771e-08
-1.08757e-08
2.81324e-08
-7.2552e-09
3.07371e-08
-2.60478e-09
2.8705e-08
2.03212e-09
2.27449e-08
5.96014e-09
1.36971e-08
9.04778e-09
2.34323e-09
1.13539e-08
-1.07286e-08
1.30718e-08
-2.51334e-08
1.44048e-08
-4.06332e-08
1.54998e-08
-5.70884e-08
1.64551e-08
-7.44188e-08
1.73305e-08
-9.25779e-08
1.81591e-08
-1.11536e-07
1.8958e-08
-1.31271e-07
1.97348e-08
-1.51763e-07
2.04921e-08
-1.72993e-07
2.12303e-08
-1.94942e-07
2.19485e-08
-2.17587e-07
2.26451e-08
-2.40905e-07
2.33181e-08
-2.64869e-07
2.39646e-08
-2.8945e-07
2.45809e-08
-3.14613e-07
2.51627e-08
-3.40319e-07
2.57063e-08
-3.66531e-07
2.62121e-08
-3.93223e-07
2.6692e-08
-4.20398e-07
2.71745e-08
-4.48087e-07
2.76891e-08
-4.76305e-07
2.82181e-08
-5.0497e-07
2.86647e-08
-5.33964e-07
2.89942e-08
-5.63903e-07
2.99392e-08
-5.96098e-07
3.21947e-08
-6.27314e-07
3.12159e-08
-6.5895e-07
3.16356e-08
-6.9275e-07
3.38003e-08
-7.27014e-07
3.42645e-08
-7.62485e-07
3.54706e-08
-8.02784e-07
4.02991e-08
-8.46428e-07
4.36439e-08
-8.87408e-07
4.09803e-08
-9.31361e-07
4.39528e-08
-9.72753e-07
4.13918e-08
-1.01043e-06
3.76798e-08
-1.05154e-06
4.11108e-08
-1.09411e-06
4.2565e-08
-1.13761e-06
4.35034e-08
-1.18166e-06
4.40512e-08
-1.22602e-06
4.43577e-08
-1.27053e-06
4.45058e-08
-1.31507e-06
4.4545e-08
-1.35958e-06
4.45061e-08
-1.40399e-06
4.44078e-08
-1.44825e-06
4.42621e-08
-1.49232e-06
4.40763e-08
-1.53618e-06
4.38549e-08
-1.57978e-06
4.36005e-08
-1.62309e-06
4.33143e-08
-1.66609e-06
4.29967e-08
-1.70874e-06
4.26475e-08
-1.751e-06
4.2266e-08
-1.79286e-06
4.18515e-08
-1.83426e-06
4.14029e-08
-1.87518e-06
4.09193e-08
-1.91558e-06
4.03995e-08
-1.95542e-06
3.98427e-08
-1.99467e-06
3.9248e-08
-2.03328e-06
3.86146e-08
-2.07122e-06
3.79419e-08
-2.10845e-06
3.72295e-08
-2.14493e-06
3.6477e-08
-2.18061e-06
3.56842e-08
-2.21547e-06
3.48513e-08
-2.24944e-06
3.39782e-08
-2.28251e-06
3.30654e-08
-2.31462e-06
3.21131e-08
-2.34574e-06
3.11219e-08
-2.37584e-06
3.00925e-08
-2.40486e-06
2.90255e-08
-2.43278e-06
2.79216e-08
-2.45957e-06
2.67818e-08
-2.48517e-06
2.56067e-08
-2.50957e-06
2.43971e-08
-2.53272e-06
2.31536e-08
-2.5546e-06
2.18767e-08
-2.57517e-06
2.05668e-08
-2.59439e-06
1.92238e-08
-2.61224e-06
1.78472e-08
-2.62867e-06
1.64363e-08
-2.64366e-06
1.49892e-08
-2.65717e-06
1.35033e-08
-2.66914e-06
1.19749e-08
-2.67954e-06
1.03973e-08
-2.6883e-06
8.76195e-09
-2.69536e-06
7.05687e-09
-2.70062e-06
5.26523e-09
-2.704e-06
3.37609e-09
-2.70539e-06
1.38952e-09
-2.7048e-06
-5.93407e-10
-2.70254e-06
-2.25412e-09
-2.6987e-06
-3.8426e-09
-2.6933e-06
-5.40239e-09
-2.68634e-06
-6.95565e-09
-2.67783e-06
-8.51342e-09
-2.66775e-06
-1.00776e-08
-2.6561e-06
-1.16476e-08
-2.64288e-06
-1.32217e-08
-2.62808e-06
-1.47981e-08
-2.61171e-06
-1.63747e-08
-2.59376e-06
-1.79494e-08
-2.57424e-06
-1.95201e-08
-2.55315e-06
-2.10846e-08
-2.53051e-06
-2.2641e-08
-2.50632e-06
-2.41871e-08
-2.4806e-06
-2.57209e-08
-2.45336e-06
-2.72403e-08
-2.42462e-06
-2.87434e-08
-2.39439e-06
-3.0228e-08
-2.3627e-06
-3.16921e-08
-2.32957e-06
-3.31338e-08
-2.29502e-06
-3.45511e-08
-2.25907e-06
-3.59422e-08
-2.22177e-06
-3.73052e-08
-2.18313e-06
-3.86384e-08
-2.14319e-06
-3.994e-08
-2.10198e-06
-4.12084e-08
-2.05954e-06
-4.24418e-08
-2.0159e-06
-4.36387e-08
-1.9711e-06
-4.47975e-08
-1.92519e-06
-4.59166e-08
-1.87819e-06
-4.69947e-08
-1.83016e-06
-4.80306e-08
-1.78114e-06
-4.90233e-08
-1.73117e-06
-4.99715e-08
-1.68029e-06
-5.08743e-08
-1.62856e-06
-5.17307e-08
-1.57602e-06
-5.25401e-08
-1.52272e-06
-5.33017e-08
-1.4687e-06
-5.40152e-08
-1.41402e-06
-5.46804e-08
-1.35873e-06
-5.5297e-08
-1.30286e-06
-5.5865e-08
-1.24648e-06
-5.63844e-08
-1.18962e-06
-5.68556e-08
-1.13234e-06
-5.72793e-08
-1.07469e-06
-5.7656e-08
-1.0167e-06
-5.79863e-08
-9.58429e-07
-5.82715e-08
-8.99916e-07
-5.85126e-08
-8.41205e-07
-5.87109e-08
-7.82337e-07
-5.88679e-08
-7.23352e-07
-5.89853e-08
-6.64287e-07
-5.90649e-08
-6.05179e-07
-5.91085e-08
-5.46061e-07
-5.9118e-08
-4.86965e-07
-5.90955e-08
-4.27923e-07
-5.90426e-08
-3.68962e-07
-5.89608e-08
-3.10111e-07
-5.88508e-08
-2.51398e-07
-5.87133e-08
-1.92854e-07
-5.85438e-08
-1.3451e-07
-5.83437e-08
-7.63982e-08
-5.81119e-08
-1.85609e-08
-5.78372e-08
3.89659e-08
-5.75268e-08
9.61452e-08
-5.71793e-08
1.52979e-07
-5.68336e-08
2.09489e-07
-5.65105e-08
2.65692e-07
-5.62027e-08
3.21582e-07
-5.58902e-08
3.77129e-07
-5.55472e-08
4.32264e-07
-5.51345e-08
4.86849e-07
-5.4585e-08
5.40617e-07
-5.37683e-08
5.93035e-07
-5.24181e-08
6.42888e-07
-4.98529e-08
6.8732e-07
-4.44324e-08
7.18753e-07
-3.14325e-08
8.63762e-09
7.10115e-07
6.57004e-09
-1.65715e-08
8.13017e-09
-1.24358e-08
5.78922e-09
-4.91424e-09
7.54153e-10
2.43028e-09
-6.41059e-09
9.19687e-09
-1.56122e-08
1.51618e-08
-2.679e-08
2.02255e-08
-3.98447e-08
2.44086e-08
-5.46054e-08
2.78326e-08
-7.08678e-08
3.06672e-08
-8.84436e-08
3.30756e-08
-1.07179e-07
3.51906e-08
-1.26958e-07
3.71097e-08
-1.47699e-07
3.88998e-08
-1.69345e-07
4.06042e-08
-1.9186e-07
4.22499e-08
-2.15221e-07
4.38532e-08
-2.39415e-07
4.54239e-08
-2.64435e-07
4.69684e-08
-2.9028e-07
4.84908e-08
-3.16957e-07
4.99943e-08
-3.44474e-07
5.14818e-08
-3.7285e-07
5.29568e-08
-4.02111e-07
5.4424e-08
-4.32296e-07
5.58917e-08
-4.63459e-07
5.73747e-08
-4.95666e-07
5.88988e-08
-5.28991e-07
6.04995e-08
-5.63509e-07
6.22069e-08
-5.99304e-07
6.40135e-08
-6.36499e-07
6.58593e-08
-6.75229e-07
6.77242e-08
-7.15078e-07
6.97889e-08
-7.54972e-07
7.20888e-08
-7.97676e-07
7.39197e-08
-8.418e-07
7.57593e-08
-8.85953e-07
7.79537e-08
-9.31449e-07
7.97606e-08
-9.77684e-07
8.17058e-08
-1.02146e-06
8.40793e-08
-1.06368e-06
8.58547e-08
-1.10867e-06
8.5971e-08
-1.151e-06
8.62879e-08
-1.19536e-06
8.57479e-08
-1.24235e-06
8.4672e-08
-1.2862e-06
8.49653e-08
-1.32886e-06
8.5221e-08
-1.3707e-06
8.53456e-08
-1.41198e-06
8.53329e-08
-1.45282e-06
8.51925e-08
-1.49326e-06
8.4945e-08
-1.53332e-06
8.46081e-08
-1.57301e-06
8.41961e-08
-1.61232e-06
8.37193e-08
-1.65125e-06
8.31846e-08
-1.68977e-06
8.25964e-08
-1.72787e-06
8.19568e-08
-1.76553e-06
8.12667e-08
-1.80274e-06
8.05255e-08
-1.83948e-06
7.97322e-08
-1.87572e-06
7.88853e-08
-1.91143e-06
7.79827e-08
-1.94661e-06
7.70224e-08
-1.9812e-06
7.60024e-08
-2.01521e-06
7.49205e-08
-2.04858e-06
7.3775e-08
-2.0813e-06
7.25641e-08
-2.11334e-06
7.12863e-08
-2.14467e-06
6.99403e-08
-2.17525e-06
6.85253e-08
-2.20506e-06
6.70403e-08
-2.23407e-06
6.5485e-08
-2.26224e-06
6.38592e-08
-2.28956e-06
6.21629e-08
-2.31597e-06
6.03965e-08
-2.34147e-06
5.85603e-08
-2.36601e-06
5.66553e-08
-2.38957e-06
5.46821e-08
-2.41212e-06
5.26421e-08
-2.43363e-06
5.05362e-08
-2.45408e-06
4.83658e-08
-2.47343e-06
4.61321e-08
-2.49166e-06
4.38366e-08
-2.50874e-06
4.14804e-08
-2.52465e-06
3.90649e-08
-2.53936e-06
3.65909e-08
-2.55286e-06
3.40593e-08
-2.5651e-06
3.14707e-08
-2.57608e-06
2.88255e-08
-2.58577e-06
2.61234e-08
-2.59414e-06
2.33641e-08
-2.60119e-06
2.05469e-08
-2.60688e-06
1.76711e-08
-2.61122e-06
1.47363e-08
-2.6142e-06
1.1743e-08
-2.61584e-06
8.69446e-09
-2.61618e-06
5.59966e-09
-2.61528e-06
2.48207e-09
-2.61329e-06
-6.05387e-10
-2.61019e-06
-3.69456e-09
-2.60574e-06
-6.7024e-09
-2.59985e-06
-9.73199e-09
-2.59247e-06
-1.2783e-08
-2.58357e-06
-1.58528e-08
-2.57314e-06
-1.89409e-08
-2.56118e-06
-2.20447e-08
-2.54766e-06
-2.51609e-08
-2.5326e-06
-2.82858e-08
-2.51598e-06
-3.1415e-08
-2.49781e-06
-3.45445e-08
-2.47809e-06
-3.76701e-08
-2.45682e-06
-4.07875e-08
-2.43402e-06
-4.38926e-08
-2.40968e-06
-4.69813e-08
-2.38381e-06
-5.00494e-08
-2.35644e-06
-5.30929e-08
-2.32757e-06
-5.61077e-08
-2.29723e-06
-5.90898e-08
-2.26542e-06
-6.20352e-08
-2.23217e-06
-6.49397e-08
-2.19751e-06
-6.77994e-08
-2.16145e-06
-7.06106e-08
-2.12402e-06
-7.33694e-08
-2.08525e-06
-7.60722e-08
-2.04518e-06
-7.87156e-08
-2.00382e-06
-8.1296e-08
-1.96122e-06
-8.38101e-08
-1.91741e-06
-8.62547e-08
-1.87242e-06
-8.86265e-08
-1.82629e-06
-9.09222e-08
-1.77907e-06
-9.31389e-08
-1.73079e-06
-9.5274e-08
-1.6815e-06
-9.73249e-08
-1.63123e-06
-9.92895e-08
-1.58004e-06
-1.01166e-07
-1.52796e-06
-1.02951e-07
-1.47505e-06
-1.04645e-07
-1.42134e-06
-1.06244e-07
-1.3669e-06
-1.07748e-07
-1.31175e-06
-1.09157e-07
-1.25597e-06
-1.10469e-07
-1.19958e-06
-1.11685e-07
-1.14264e-06
-1.12803e-07
-1.0852e-06
-1.13825e-07
-1.0273e-06
-1.14751e-07
-9.69e-07
-1.15582e-07
-9.10336e-07
-1.1632e-07
-8.51357e-07
-1.16965e-07
-7.92108e-07
-1.17521e-07
-7.32632e-07
-1.17988e-07
-6.72972e-07
-1.18371e-07
-6.13168e-07
-1.18671e-07
-5.53261e-07
-1.18893e-07
-4.93286e-07
-1.19039e-07
-4.3328e-07
-1.19114e-07
-3.73277e-07
-1.19121e-07
-3.13308e-07
-1.19065e-07
-2.53402e-07
-1.18949e-07
-1.93587e-07
-1.18775e-07
-1.3389e-07
-1.18547e-07
-7.43375e-08
-1.18266e-07
-1.49522e-08
-1.17929e-07
4.42386e-08
-1.17534e-07
1.03208e-07
-1.17082e-07
1.6194e-07
-1.16569e-07
2.20423e-07
-1.1601e-07
2.7866e-07
-1.15416e-07
3.36647e-07
-1.14821e-07
3.94378e-07
-1.14242e-07
4.51843e-07
-1.13667e-07
5.09022e-07
-1.13069e-07
5.65874e-07
-1.12399e-07
6.22321e-07
-1.11581e-07
6.78217e-07
-1.10481e-07
7.33295e-07
-1.08846e-07
7.87059e-07
-1.06182e-07
8.38541e-07
-1.01335e-07
8.8613e-07
-9.20208e-08
9.26527e-07
-7.18301e-08
-2.46914e-08
9.59856e-07
-9.43717e-10
-1.56278e-08
-6.80197e-09
-6.57755e-09
-1.4905e-08
3.1888e-09
-2.44291e-08
1.19544e-08
-3.51288e-08
1.98966e-08
-4.69873e-08
2.70203e-08
-6.00716e-08
3.33099e-08
-7.44485e-08
3.87854e-08
-9.0137e-08
4.35211e-08
-1.07102e-07
4.76321e-08
-1.25274e-07
5.12478e-08
-1.44574e-07
5.44903e-08
-1.64926e-07
5.74622e-08
-1.8627e-07
6.02434e-08
-2.08558e-07
6.28926e-08
-2.3176e-07
6.54516e-08
-2.55856e-07
6.79495e-08
-2.80839e-07
7.04068e-08
-3.06709e-07
7.28384e-08
-3.33475e-07
7.52561e-08
-3.6115e-07
7.76697e-08
-3.89756e-07
8.00881e-08
-4.1932e-07
8.25204e-08
-4.49872e-07
8.49766e-08
-4.81449e-07
8.74684e-08
-5.14085e-07
9.00105e-08
-5.47806e-07
9.262e-08
-5.82619e-07
9.53129e-08
-6.18506e-07
9.80933e-08
-6.5543e-07
1.00938e-07
-6.93363e-07
1.03792e-07
-7.32244e-07
1.06605e-07
-7.71801e-07
1.09346e-07
-8.11666e-07
1.11954e-07
-8.52102e-07
1.14356e-07
-8.92911e-07
1.16568e-07
-9.33534e-07
1.18577e-07
-9.74058e-07
1.20285e-07
-1.01415e-06
1.21796e-07
-1.05313e-06
1.23058e-07
-1.09115e-06
1.2388e-07
-1.1293e-06
1.24118e-07
-1.16698e-06
1.23966e-07
-1.20478e-06
1.23546e-07
-1.24312e-06
1.23014e-07
-1.28077e-06
1.22622e-07
-1.31782e-06
1.22268e-07
-1.35437e-06
1.21895e-07
-1.39051e-06
1.2147e-07
-1.42629e-06
1.2098e-07
-1.46177e-06
1.20421e-07
-1.49696e-06
1.19794e-07
-1.53186e-06
1.191e-07
-1.56648e-06
1.18342e-07
-1.60082e-06
1.17519e-07
-1.63485e-06
1.16633e-07
-1.66858e-06
1.15682e-07
-1.70198e-06
1.14665e-07
-1.73503e-06
1.13577e-07
-1.76771e-06
1.12417e-07
-1.80001e-06
1.11182e-07
-1.8319e-06
1.09867e-07
-1.86334e-06
1.0847e-07
-1.89433e-06
1.06988e-07
-1.92482e-06
1.05416e-07
-1.9548e-06
1.03753e-07
-1.98423e-06
1.01996e-07
-2.01309e-06
1.00142e-07
-2.04134e-06
9.81903e-08
-2.06895e-06
9.61389e-08
-2.0959e-06
9.39868e-08
-2.12215e-06
9.17333e-08
-2.14767e-06
8.93779e-08
-2.17242e-06
8.69207e-08
-2.19639e-06
8.4362e-08
-2.21953e-06
8.17026e-08
-2.24182e-06
7.89434e-08
-2.26322e-06
7.60856e-08
-2.28371e-06
7.31306e-08
-2.30326e-06
7.00801e-08
-2.32183e-06
6.6936e-08
-2.33939e-06
6.37e-08
-2.35593e-06
6.03743e-08
-2.37141e-06
5.69609e-08
-2.38581e-06
5.34617e-08
-2.3991e-06
4.98786e-08
-2.41125e-06
4.62135e-08
-2.42225e-06
4.24681e-08
-2.43207e-06
3.86438e-08
-2.44069e-06
3.47423e-08
-2.44809e-06
3.0765e-08
-2.45425e-06
2.67138e-08
-2.45917e-06
2.25912e-08
-2.46284e-06
1.84009e-08
-2.46524e-06
1.41484e-08
-2.46639e-06
9.84203e-09
-2.46629e-06
5.49432e-09
-2.46493e-06
1.12208e-09
-2.46228e-06
-3.25457e-09
-2.45832e-06
-7.6497e-09
-2.45296e-06
-1.20659e-08
-2.44616e-06
-1.65253e-08
-2.43792e-06
-2.10263e-08
-2.42821e-06
-2.55643e-08
-2.41702e-06
-3.01337e-08
-2.40433e-06
-3.47285e-08
-2.39015e-06
-3.93427e-08
-2.37447e-06
-4.397e-08
-2.35728e-06
-4.86042e-08
-2.33858e-06
-5.3239e-08
-2.31839e-06
-5.7868e-08
-2.29669e-06
-6.2485e-08
-2.2735e-06
-6.70839e-08
-2.24882e-06
-7.16585e-08
-2.22267e-06
-7.62027e-08
-2.19505e-06
-8.07105e-08
-2.16598e-06
-8.51758e-08
-2.13548e-06
-8.95927e-08
-2.10356e-06
-9.39552e-08
-2.07024e-06
-9.82572e-08
-2.03555e-06
-1.02493e-07
-1.9995e-06
-1.06657e-07
-1.96213e-06
-1.10743e-07
-1.92345e-06
-1.14746e-07
-1.88351e-06
-1.1866e-07
-1.84232e-06
-1.22482e-07
-1.79993e-06
-1.26205e-07
-1.75636e-06
-1.29824e-07
-1.71165e-06
-1.33336e-07
-1.66584e-06
-1.36735e-07
-1.61896e-06
-1.40016e-07
-1.57106e-06
-1.43177e-07
-1.52217e-06
-1.46212e-07
-1.47234e-06
-1.49119e-07
-1.42161e-06
-1.51895e-07
-1.37003e-06
-1.54536e-07
-1.31763e-06
-1.5704e-07
-1.26447e-06
-1.59405e-07
-1.21059e-06
-1.61629e-07
-1.15604e-06
-1.6371e-07
-1.10086e-06
-1.65648e-07
-1.0451e-06
-1.67443e-07
-9.88811e-07
-1.69093e-07
-9.32036e-07
-1.706e-07
-8.74822e-07
-1.71965e-07
-8.17216e-07
-1.73189e-07
-7.59262e-07
-1.74273e-07
-7.01006e-07
-1.75221e-07
-6.42492e-07
-1.76036e-07
-5.83761e-07
-1.7672e-07
-5.24854e-07
-1.77277e-07
-4.65812e-07
-1.77713e-07
-4.06673e-07
-1.78032e-07
-3.47473e-07
-1.78239e-07
-2.88247e-07
-1.78341e-07
-2.29026e-07
-1.78342e-07
-1.69842e-07
-1.78249e-07
-1.10723e-07
-1.78068e-07
-5.16947e-08
-1.77803e-07
7.21795e-09
-1.7746e-07
6.59907e-08
-1.77039e-07
1.24602e-07
-1.76541e-07
1.83033e-07
-1.75966e-07
2.41269e-07
-1.75317e-07
2.99305e-07
-1.74605e-07
3.57148e-07
-1.73853e-07
4.14807e-07
-1.73075e-07
4.72267e-07
-1.72281e-07
5.29509e-07
-1.71484e-07
5.86513e-07
-1.70671e-07
6.43251e-07
-1.69807e-07
6.99679e-07
-1.68827e-07
7.55717e-07
-1.67619e-07
8.11228e-07
-1.65992e-07
8.65975e-07
-1.63593e-07
9.19556e-07
-1.59763e-07
9.71339e-07
-1.53119e-07
1.02042e-06
-1.41106e-07
1.06631e-06
-1.17712e-07
-7.15329e-08
1.11315e-06
-7.3433e-09
-8.28449e-09
-1.83022e-08
4.38137e-09
-3.0371e-08
1.52576e-08
-4.31302e-08
2.47136e-08
-5.65026e-08
3.3269e-08
-7.05416e-08
4.10593e-08
-8.53508e-08
4.81191e-08
-1.01038e-07
5.4473e-08
-1.17686e-07
6.01691e-08
-1.35338e-07
6.52835e-08
-1.54e-07
6.99101e-08
-1.73657e-07
7.41469e-08
-1.94279e-07
7.80846e-08
-2.15837e-07
8.18009e-08
-2.38302e-07
8.5358e-08
-2.61655e-07
8.88041e-08
-2.85881e-07
9.21754e-08
-3.10973e-07
9.5499e-08
-3.3693e-07
9.87954e-08
-3.63754e-07
1.0208e-07
-3.91451e-07
1.05366e-07
-4.20026e-07
1.08663e-07
-4.49485e-07
1.11979e-07
-4.79828e-07
1.1532e-07
-5.11049e-07
1.18689e-07
-5.43127e-07
1.22088e-07
-5.76021e-07
1.25515e-07
-6.09666e-07
1.28957e-07
-6.43966e-07
1.32393e-07
-6.7881e-07
1.35781e-07
-7.14079e-07
1.39061e-07
-7.49647e-07
1.42173e-07
-7.85364e-07
1.45063e-07
-8.21085e-07
1.47675e-07
-8.56712e-07
1.49983e-07
-8.92135e-07
1.5199e-07
-9.27239e-07
1.53681e-07
-9.61998e-07
1.55045e-07
-9.9631e-07
1.56108e-07
-1.03012e-06
1.5687e-07
-1.06353e-06
1.57291e-07
-1.09676e-06
1.57342e-07
-1.12988e-06
1.57085e-07
-1.16295e-06
1.56619e-07
-1.196e-06
1.56062e-07
-1.22887e-06
1.55497e-07
-1.26153e-06
1.54921e-07
-1.29395e-06
1.5432e-07
-1.32616e-06
1.53679e-07
-1.35817e-06
1.52986e-07
-1.38998e-06
1.52236e-07
-1.42161e-06
1.51423e-07
-1.45305e-06
1.50543e-07
-1.48431e-06
1.49593e-07
-1.51536e-06
1.48571e-07
-1.5462e-06
1.47471e-07
-1.5768e-06
1.46291e-07
-1.60716e-06
1.45026e-07
-1.63726e-06
1.43671e-07
-1.66706e-06
1.42221e-07
-1.69655e-06
1.40673e-07
-1.72571e-06
1.3902e-07
-1.75449e-06
1.37259e-07
-1.78289e-06
1.35385e-07
-1.81087e-06
1.33393e-07
-1.8384e-06
1.31281e-07
-1.86545e-06
1.29045e-07
-1.89199e-06
1.26682e-07
-1.91799e-06
1.2419e-07
-1.94341e-06
1.21566e-07
-1.96824e-06
1.1881e-07
-1.99242e-06
1.15921e-07
-2.01594e-06
1.12898e-07
-2.03876e-06
1.09741e-07
-2.06085e-06
1.0645e-07
-2.08218e-06
1.03027e-07
-2.10271e-06
9.94726e-08
-2.12241e-06
9.57884e-08
-2.14125e-06
9.19766e-08
-2.15921e-06
8.80391e-08
-2.17626e-06
8.39785e-08
-2.19235e-06
7.97973e-08
-2.20748e-06
7.54983e-08
-2.2216e-06
7.10844e-08
-2.2347e-06
6.65583e-08
-2.24674e-06
6.19232e-08
-2.25771e-06
5.71818e-08
-2.26758e-06
5.2337e-08
-2.27633e-06
4.73917e-08
-2.28393e-06
4.23487e-08
-2.29038e-06
3.72112e-08
-2.29565e-06
3.19826e-08
-2.29972e-06
2.66673e-08
-2.30259e-06
2.12703e-08
-2.30424e-06
1.57984e-08
-2.30466e-06
1.02594e-08
-2.30383e-06
4.663e-09
-2.30173e-06
-9.81319e-10
-2.29831e-06
-6.66721e-09
-2.29356e-06
-1.23999e-08
-2.28744e-06
-1.81878e-08
-2.27993e-06
-2.4037e-08
-2.27101e-06
-2.99434e-08
-2.26068e-06
-3.59003e-08
-2.24891e-06
-4.18999e-08
-2.2357e-06
-4.79339e-08
-2.22105e-06
-5.39939e-08
-2.20495e-06
-6.00715e-08
-2.1874e-06
-6.61583e-08
-2.16839e-06
-7.22461e-08
-2.14793e-06
-7.83265e-08
-2.12603e-06
-8.43913e-08
-2.10268e-06
-9.04323e-08
-2.07789e-06
-9.64415e-08
-2.05169e-06
-1.02411e-07
-2.02406e-06
-1.08333e-07
-1.99504e-06
-1.14199e-07
-1.96463e-06
-1.20001e-07