/*--------------------------------*- C++ -*----------------------------------*\
  =========                 |
  \\      /  F ield         | OpenFOAM: The Open Source CFD Toolbox
   \\    /   O peration     | Website:  https://openfoam.org
    \\  /    A nd           | Version:  12
     \\/     M anipulation  |
\*---------------------------------------------------------------------------*/
FoamFile
{
    format      ascii;
    class       volVectorField;
    location    "0.22";
    object      U;
}
// * * * * * * * * * * * * * * * * * * * * * * * * * * * * * * * * * * * * * //

dimensions      [0 1 -1 0 0 0 0];

internalField   nonuniform List<vector> 
12225
(
(9.86107 -0.874318 0)
(9.67248 -0.700192 0)
(9.45896 -0.387592 0)
(9.22466 -0.188478 0)
(9.00348 -0.0843934 0)
(8.81038 -0.0328757 0)
(8.64509 -0.0075505 0)
(8.50409 0.00502501 0)
(8.38391 0.0113369 0)
(8.28102 0.014473 0)
(8.19204 0.0159683 0)
(8.1141 0.016638 0)
(8.04481 0.0169247 0)
(7.98236 0.0171203 0)
(7.92382 0.017417 0)
(7.87017 0.0185236 0)
(7.80082 0.0214905 0)
(7.77449 0.0299347 0)
(10.0547 0.263069 0)
(10.1201 0.36074 0)
(10.118 0.273821 0)
(10.0826 0.187087 0)
(10.0405 0.131162 0)
(9.99391 0.0969266 0)
(9.94011 0.0755568 0)
(9.88038 0.0617494 0)
(9.81781 0.0523436 0)
(9.75489 0.0455265 0)
(9.69305 0.040355 0)
(9.63311 0.0363681 0)
(9.57546 0.03331 0)
(9.52047 0.0311612 0)
(9.46737 0.0297561 0)
(9.41861 0.0308577 0)
(9.36723 0.03194 0)
(9.34198 0.0522954 0)
(9.99919 0.0460866 0)
(10.0244 0.0342091 0)
(10.0538 0.0149492 0)
(10.0708 0.0218097 0)
(10.0778 0.0366712 0)
(10.0783 0.0460071 0)
(10.0722 0.0499471 0)
(10.0603 0.0511376 0)
(10.0439 0.0510436 0)
(10.0245 0.0503264 0)
(10.003 0.0493572 0)
(9.97997 0.0483821 0)
(9.95582 0.047551 0)
(9.93103 0.0470973 0)
(9.90555 0.0470942 0)
(9.88041 0.0488735 0)
(9.85485 0.0516106 0)
(9.83493 0.0629593 0)
(9.9968 0.00642766 0)
(10.0085 0.0250176 0)
(10.0342 0.0389367 0)
(10.0528 0.0503004 0)
(10.0644 0.0571047 0)
(10.0731 0.0591599 0)
(10.079 0.0588468 0)
(10.0816 0.0579255 0)
(10.0816 0.0569176 0)
(10.0795 0.0558985 0)
(10.0758 0.054921 0)
(10.0707 0.0540714 0)
(10.0644 0.0534401 0)
(10.0572 0.0532203 0)
(10.0492 0.0535454 0)
(10.041 0.0552884 0)
(10.0331 0.0581148 0)
(10.0276 0.0645143 0)
(9.99922 0.00673706 0)
(10.0081 0.0335727 0)
(10.0271 0.0460412 0)
(10.0418 0.0508418 0)
(10.0524 0.0539091 0)
(10.0622 0.0554963 0)
(10.0708 0.0558413 0)
(10.0775 0.0556555 0)
(10.0823 0.0552849 0)
(10.0857 0.0548206 0)
(10.088 0.054337 0)
(10.0894 0.0539384 0)
(10.0899 0.0537343 0)
(10.0898 0.0538981 0)
(10.0891 0.0545801 0)
(10.0884 0.0562683 0)
(10.0882 0.0587754 0)
(10.0898 0.0625851 0)
(10.0002 0.00907353 0)
(10.0078 0.0321232 0)
(10.0225 0.0419085 0)
(10.035 0.0456612 0)
(10.0448 0.0491193 0)
(10.0542 0.0516541 0)
(10.063 0.0527912 0)
(10.0705 0.0531412 0)
(10.0767 0.0531793 0)
(10.0819 0.0530695 0)
(10.0863 0.0529034 0)
(10.09 0.0527887 0)
(10.0932 0.0528357 0)
(10.0958 0.0531869 0)
(10.0981 0.053965 0)
(10.1006 0.0554094 0)
(10.1036 0.0573615 0)
(10.1079 0.0596686 0)
(10.0003 0.00879985 0)
(10.0068 0.0275162 0)
(10.019 0.0370795 0)
(10.0303 0.0417357 0)
(10.0395 0.0456545 0)
(10.0482 0.0484772 0)
(10.0566 0.0498853 0)
(10.0641 0.0504765 0)
(10.0706 0.0507365 0)
(10.0763 0.0508376 0)
(10.0815 0.0508663 0)
(10.0861 0.0509223 0)
(10.0903 0.0511064 0)
(10.0942 0.0515277 0)
(10.0979 0.0522682 0)
(10.1018 0.0534191 0)
(10.1061 0.0548196 0)
(10.1114 0.0561513 0)
(10.0004 0.00783677 0)
(10.0057 0.023693 0)
(10.016 0.0333653 0)
(10.0264 0.0385814 0)
(10.0351 0.0424742 0)
(10.0433 0.0452656 0)
(10.0512 0.0468172 0)
(10.0584 0.0475944 0)
(10.0649 0.0480221 0)
(10.0708 0.0482736 0)
(10.0762 0.048436 0)
(10.0812 0.0486008 0)
(10.0859 0.0488557 0)
(10.0903 0.0492795 0)
(10.0947 0.0499158 0)
(10.0992 0.0507724 0)
(10.1041 0.0516892 0)
(10.1097 0.0523585 0)
(10.0004 0.00695073 0)
(10.0049 0.0207058 0)
(10.0136 0.0300311 0)
(10.023 0.0353947 0)
(10.0312 0.0391767 0)
(10.0389 0.0419344 0)
(10.0464 0.0436217 0)
(10.0534 0.0445641 0)
(10.0598 0.045126 0)
(10.0656 0.0454887 0)
(10.0711 0.0457438 0)
(10.0762 0.0459739 0)
(10.0811 0.0462523 0)
(10.0858 0.0466327 0)
(10.0905 0.0471302 0)
(10.0953 0.047711 0)
(10.1004 0.0482291 0)
(10.1058 0.0484453 0)
(10.0004 0.00616395 0)
(10.0042 0.0181203 0)
(10.0116 0.0267937 0)
(10.0199 0.0321319 0)
(10.0277 0.0358378 0)
(10.035 0.0385646 0)
(10.0421 0.0403449 0)
(10.0488 0.0414123 0)
(10.055 0.0420765 0)
(10.0608 0.0425203 0)
(10.0662 0.0428376 0)
(10.0714 0.0431011 0)
(10.0764 0.0433704 0)
(10.0812 0.0436804 0)
(10.086 0.0440285 0)
(10.0909 0.0443659 0)
(10.0959 0.0445706 0)
(10.1012 0.0444775 0)
(10.0003 0.00542716 0)
(10.0036 0.0157978 0)
(10.0099 0.0237077 0)
(10.0173 0.0289026 0)
(10.0245 0.032517 0)
(10.0314 0.0351771 0)
(10.0381 0.0369912 0)
(10.0446 0.0381397 0)
(10.0506 0.0388775 0)
(10.0563 0.0393775 0)
(10.0617 0.0397324 0)
(10.0668 0.040006 0)
(10.0718 0.0402454 0)
(10.0767 0.0404731 0)
(10.0815 0.0406781 0)
(10.0864 0.0408121 0)
(10.0913 0.0407807 0)
(10.0963 0.0404802 0)
(10.0003 0.00477473 0)
(10.0031 0.0138527 0)
(10.0086 0.0210337 0)
(10.0152 0.0259956 0)
(10.0219 0.0294826 0)
(10.0285 0.0320479 0)
(10.0348 0.0338481 0)
(10.041 0.0350335 0)
(10.0469 0.0358125 0)
(10.0525 0.0363422 0)
(10.0578 0.0367117 0)
(10.0629 0.0369774 0)
(10.0679 0.0371774 0)
(10.0727 0.0373273 0)
(10.0775 0.037414 0)
(10.0823 0.037397 0)
(10.087 0.0372061 0)
(10.0918 0.0367822 0)
(10.0003 0.0041683 0)
(10.0028 0.0120857 0)
(10.0075 0.0185196 0)
(10.0134 0.0231581 0)
(10.0197 0.0264752 0)
(10.0258 0.0289219 0)
(10.0319 0.0306742 0)
(10.0378 0.0318645 0)
(10.0435 0.0326616 0)
(10.049 0.0332033 0)
(10.0542 0.0335726 0)
(10.0593 0.0338199 0)
(10.0642 0.0339766 0)
(10.069 0.0340542 0)
(10.0737 0.0340413 0)
(10.0783 0.0339071 0)
(10.0829 0.0336016 0)
(10.0875 0.0330982 0)
(10.0003 0.00353648 0)
(10.0024 0.0102476 0)
(10.0064 0.0158275 0)
(10.0117 0.0200115 0)
(10.0174 0.0230708 0)
(10.0232 0.0253405 0)
(10.0289 0.0269933 0)
(10.0346 0.0281465 0)
(10.0401 0.0289316 0)
(10.0454 0.0294625 0)
(10.0505 0.0298131 0)
(10.0554 0.0300276 0)
(10.0602 0.0301318 0)
(10.0649 0.030135 0)
(10.0695 0.0300299 0)
(10.074 0.0297971 0)
(10.0784 0.0294052 0)
(10.0827 0.028852 0)
(10.0002 0.00287766 0)
(10.002 0.0083374 0)
(10.0055 0.0129675 0)
(10.0101 0.0165621 0)
(10.0153 0.0192543 0)
(10.0206 0.0212696 0)
(10.026 0.0227566 0)
(10.0314 0.0238156 0)
(10.0366 0.0245452 0)
(10.0417 0.025033 0)
(10.0467 0.0253406 0)
(10.0515 0.0255055 0)
(10.0562 0.025549 0)
(10.0608 0.0254801 0)
(10.0652 0.0252966 0)
(10.0696 0.0249896 0)
(10.0738 0.0245433 0)
(10.0778 0.0239717 0)
(10.0002 0.00219216 0)
(10.0017 0.00635584 0)
(10.0047 0.00994472 0)
(10.0088 0.0128114 0)
(10.0134 0.0150086 0)
(10.0183 0.0166715 0)
(10.0233 0.0179102 0)
(10.0284 0.0188029 0)
(10.0334 0.0194192 0)
(10.0383 0.0198214 0)
(10.0431 0.020056 0)
(10.0478 0.0201528 0)
(10.0523 0.0201292 0)
(10.0567 0.0199941 0)
(10.061 0.01975 0)
(10.0651 0.019396 0)
(10.0691 0.0189272 0)
(10.0729 0.0183659 0)
(10.0002 0.00147687 0)
(10.0015 0.00428638 0)
(10.0041 0.00673691 0)
(10.0077 0.00873581 0)
(10.0119 0.0102976 0)
(10.0164 0.0114917 0)
(10.0211 0.0123848 0)
(10.0258 0.0130275 0)
(10.0306 0.013463 0)
(10.0353 0.0137298 0)
(10.0399 0.0138579 0)
(10.0444 0.0138677 0)
(10.0487 0.0137721 0)
(10.053 0.0135791 0)
(10.0571 0.0132933 0)
(10.061 0.0129184 0)
(10.0648 0.0124548 0)
(10.0684 0.0119275 0)
(10.0001 0.000714168 0)
(10.0013 0.0020732 0)
(10.0037 0.0032648 0)
(10.0069 0.00424742 0)
(10.0108 0.00502341 0)
(10.015 0.00561735 0)
(10.0194 0.00605415 0)
(10.0239 0.00635387 0)
(10.0285 0.00653422 0)
(10.033 0.00661105 0)
(10.0374 0.00659693 0)
(10.0417 0.00650076 0)
(10.0459 0.00632873 0)
(10.05 0.00608545 0)
(10.0539 0.00577467 0)
(10.0577 0.00540063 0)
(10.0612 0.00496523 0)
(10.0647 0.00449117 0)
(10.0001 -0.000142577 0)
(10.0013 -0.00041558 0)
(10.0035 -0.000660367 0)
(10.0066 -0.000864561 0)
(10.0104 -0.00102557 0)
(10.0145 -0.00115722 0)
(10.0188 -0.00127873 0)
(10.0232 -0.00140396 0)
(10.0276 -0.00154159 0)
(10.032 -0.00169883 0)
(10.0363 -0.00188218 0)
(10.0405 -0.00209666 0)
(10.0445 -0.00234549 0)
(10.0485 -0.00263038 0)
(10.0522 -0.00295184 0)
(10.0558 -0.00330869 0)
(10.0593 -0.00370083 0)
(10.0625 -0.00411132 0)
(10.0001 -0.000966217 0)
(10.0014 -0.00281488 0)
(10.0037 -0.00445053 0)
(10.0071 -0.00579127 0)
(10.0111 -0.00683077 0)
(10.0153 -0.00763053 0)
(10.0197 -0.00825751 0)
(10.0242 -0.00875696 0)
(10.0287 -0.00916341 0)
(10.0331 -0.00950887 0)
(10.0373 -0.00981987 0)
(10.0415 -0.010115 0)
(10.0455 -0.0104067 0)
(10.0494 -0.0107037 0)
(10.053 -0.0110117 0)
(10.0566 -0.0113337 0)
(10.0599 -0.0116725 0)
(10.0631 -0.0120168 0)
(10.0002 -0.00167977 0)
(10.0015 -0.00491712 0)
(10.0042 -0.00777159 0)
(10.0079 -0.01004 0)
(10.0123 -0.0117377 0)
(10.0168 -0.0130215 0)
(10.0215 -0.014009 0)
(10.0261 -0.0147596 0)
(10.0307 -0.0153276 0)
(10.0352 -0.0157718 0)
(10.0396 -0.0161393 0)
(10.0437 -0.0164603 0)
(10.0477 -0.0167544 0)
(10.0516 -0.0170354 0)
(10.0552 -0.0173131 0)
(10.0587 -0.0175932 0)
(10.0621 -0.0178801 0)
(10.0652 -0.0181662 0)
(10.0002 -0.00236133 0)
(10.0017 -0.00700472 0)
(10.0048 -0.0111058 0)
(10.0092 -0.0142067 0)
(10.0141 -0.0164012 0)
(10.019 -0.018027 0)
(10.0239 -0.0192644 0)
(10.0288 -0.0201775 0)
(10.0336 -0.0208386 0)
(10.0383 -0.0213303 0)
(10.0427 -0.0217138 0)
(10.0469 -0.0220275 0)
(10.0509 -0.0222974 0)
(10.0548 -0.0225428 0)
(10.0585 -0.0227768 0)
(10.0619 -0.0230072 0)
(10.0652 -0.0232391 0)
(10.0684 -0.0234676 0)
(10.0002 -0.00299656 0)
(10.0018 -0.0091126 0)
(10.0056 -0.0144859 0)
(10.0108 -0.0183312 0)
(10.0163 -0.0209512 0)
(10.0217 -0.0228463 0)
(10.027 -0.0242108 0)
(10.0322 -0.0251506 0)
(10.0372 -0.0258033 0)
(10.0419 -0.0262804 0)
(10.0464 -0.0266421 0)
(10.0507 -0.0269232 0)
(10.0548 -0.0271526 0)
(10.0587 -0.0273528 0)
(10.0623 -0.0275387 0)
(10.0658 -0.0277187 0)
(10.0691 -0.0278981 0)
(10.0722 -0.0280736 0)
(10.0001 -0.00357229 0)
(10.0019 -0.0115425 0)
(10.0064 -0.0179376 0)
(10.0127 -0.0220655 0)
(10.0189 -0.0250492 0)
(10.0247 -0.0273499 0)
(10.0304 -0.0288922 0)
(10.0359 -0.0298054 0)
(10.0411 -0.0303665 0)
(10.046 -0.0307534 0)
(10.0506 -0.0310321 0)
(10.055 -0.0312348 0)
(10.0591 -0.0313909 0)
(10.0629 -0.0315236 0)
(10.0666 -0.0316469 0)
(10.0701 -0.0317676 0)
(10.0733 -0.0318892 0)
(10.0764 -0.0320076 0)
(9.99997 -0.00369179 0)
(10.0018 -0.0151854 0)
(10.0076 -0.022659 0)
(10.0148 -0.0259906 0)
(10.0214 -0.0285545 0)
(10.0277 -0.0310175 0)
(10.034 -0.0327966 0)
(10.0399 -0.0338365 0)
(10.0454 -0.0344383 0)
(10.0505 -0.0348109 0)
(10.0552 -0.0350376 0)
(10.0596 -0.0351671 0)
(10.0637 -0.0352418 0)
(10.0675 -0.0352911 0)
(10.0711 -0.0353316 0)
(10.0744 -0.0353714 0)
(10.0774 -0.0354141 0)
(10.0803 -0.0354575 0)
(9.99898 -0.00131065 0)
(9.99999 -0.0179782 0)
(10.0085 -0.0290761 0)
(10.0174 -0.0327022 0)
(10.0244 -0.0341266 0)
(10.0311 -0.0353532 0)
(10.0382 -0.0363004 0)
(10.0448 -0.0369431 0)
(10.0507 -0.037394 0)
(10.0559 -0.0376932 0)
(10.0605 -0.0378554 0)
(10.0647 -0.0379165 0)
(10.0684 -0.0379178 0)
(10.0716 -0.0378888 0)
(10.0745 -0.0378476 0)
(10.0771 -0.0378057 0)
(10.0793 -0.0377662 0)
(10.0813 -0.0377287 0)
(9.99528 0.00386791 0)
(9.99333 -0.0103144 0)
(10.007 -0.0271074 0)
(10.0212 -0.0389313 0)
(10.0311 -0.04487 0)
(10.0391 -0.046477 0)
(10.0466 -0.0459939 0)
(10.0529 -0.0450374 0)
(10.058 -0.0441625 0)
(10.062 -0.0433905 0)
(10.0651 -0.0426778 0)
(10.0674 -0.0420216 0)
(10.0689 -0.0414282 0)
(10.0699 -0.0408974 0)
(10.0703 -0.0404268 0)
(10.0702 -0.0400153 0)
(10.0699 -0.0396534 0)
(10.0692 -0.0393142 0)
(9.99144 -0.0172941 0)
(9.99188 0.000363743 0)
(10.01 0.0176626 0)
(10.0295 0.0115841 0)
(10.0441 -0.00511468 0)
(10.0541 -0.0188321 0)
(10.0599 -0.0271798 0)
(10.0622 -0.0320582 0)
(10.0616 -0.0349411 0)
(10.059 -0.036548 0)
(10.0548 -0.0373265 0)
(10.0494 -0.0376015 0)
(10.0431 -0.0375861 0)
(10.036 -0.0374098 0)
(10.0284 -0.0371562 0)
(10.0205 -0.0368866 0)
(10.0124 -0.0366564 0)
(10.0042 -0.0364345 0)
(10.0236 -0.206008 0)
(10.0684 -0.31234 0)
(10.0788 -0.255594 0)
(10.0704 -0.184179 0)
(10.0605 -0.134905 0)
(10.0498 -0.10273 0)
(10.0342 -0.0811709 0)
(10.0129 -0.0666254 0)
(9.98774 -0.0566346 0)
(9.9605 -0.0494798 0)
(9.93227 -0.0441234 0)
(9.90375 -0.039976 0)
(9.87544 -0.0366791 0)
(9.84768 -0.0340001 0)
(9.82068 -0.031791 0)
(9.79459 -0.0299883 0)
(9.76964 -0.0285617 0)
(9.74585 -0.0278277 0)
(9.94226 0.671595 0)
(9.87995 0.567454 0)
(9.77443 0.338465 0)
(9.63236 0.183317 0)
(9.48761 0.0949041 0)
(9.35648 0.0470809 0)
(9.2409 0.0212957 0)
(9.13937 0.00707377 0)
(9.05041 -0.000986051 0)
(8.9724 -0.00562767 0)
(8.90361 -0.00831722 0)
(8.84251 -0.0098798 0)
(8.78786 -0.0107856 0)
(8.73865 -0.0113035 0)
(8.69408 -0.0115943 0)
(8.65342 -0.0117827 0)
(8.61585 -0.0119624 0)
(8.58096 -0.0124945 0)
(0.0043092 -0.0104246 -3.50196e-20)
(0.0143627 -0.0151109 3.45834e-20)
(0.0224921 -0.0121992 0)
(0.0270746 -0.00635276 0)
(0.0273544 -7.32903e-05 0)
(0.0236155 0.00524714 -3.24249e-20)
(0.0167743 0.00911969 0)
(0.00755804 0.011679 0)
(-0.00341324 0.0133183 0)
(-0.015695 0.0144172 0)
(-0.0290491 0.0152286 2.97124e-20)
(-0.0433155 0.0158998 0)
(-0.0584008 0.016509 0)
(-0.0742542 0.0170932 0)
(-0.0908457 0.0176672 0)
(-0.108155 0.0182345 2.65388e-20)
(-0.126166 0.0187944 0)
(-0.144862 0.0193442 0)
(-0.164228 0.0198809 0)
(-0.184246 0.0204013 0)
(-0.204897 0.0209012 0)
(-0.226161 0.0213752 0)
(-0.248014 0.0218158 0)
(-0.270427 0.0222136 2.26836e-20)
(-0.293369 0.0225596 -2.23138e-20)
(-0.316806 0.0228517 2.19687e-20)
(-0.340707 0.0231101 2.16483e-20)
(-0.365057 0.0233937 0)
(-0.38988 0.0237809 0)
(-0.415208 0.0242712 -2.08323e-20)
(-0.440986 0.0247045 -2.06056e-20)
(-0.467207 0.0251769 0)
(-0.494169 0.0278325 0)
(-0.521774 0.033475 -2.00489e-20)
(-0.550848 0.027745 0)
(-0.580219 0.0276518 0)
(-0.609104 0.0339774 1.95553e-20)
(-0.640527 0.0352358 0)
(-0.672413 0.0392544 1.9232e-20)
(-0.706879 0.0545298 3.91144e-20)
(-0.744221 0.0614888 0)
(-0.785473 0.0488022 0)
(-0.823753 0.0563022 0)
(-0.861357 0.0448179 0)
(-0.899305 0.0270016 0)
(-0.934555 0.0318313 4.00817e-20)
(-0.973489 0.0329941 3.96322e-20)
(-1.01318 0.0338279 3.91894e-20)
(-1.05367 0.0342232 0)
(-1.09456 0.0343776 -3.83341e-20)
(-1.13572 0.0343764 0)
(-1.17701 0.034273 3.75244e-20)
(-1.21835 0.0340992 3.71365e-20)
(-1.25969 0.0338747 0)
(-1.30098 0.0336118 0)
(-1.34218 0.0333185 0)
(-1.38325 0.0329995 3.56854e-20)
(-1.42417 0.032658 0)
(-1.46491 0.0322956 0)
(-1.50543 0.0319133 0)
(-1.54572 0.0315115 0)
(-1.58573 0.0310902 0)
(-1.62544 0.0306491 0)
(-1.66483 0.030188 0)
(-1.70385 0.0297064 0)
(-1.74248 0.0292041 -3.28311e-20)
(-1.78068 0.0286808 0)
(-1.81842 0.0281362 0)
(-1.85565 0.0275703 3.19445e-20)
(-1.89236 0.0269829 3.16509e-20)
(-1.92849 0.0263743 0)
(-1.96401 0.0257446 -3.10629e-20)
(-1.99888 0.0250941 3.07674e-20)
(-2.03307 0.0244233 0)
(-2.06653 0.0237327 -3.01707e-20)
(-2.09924 0.0230229 0)
(-2.13114 0.0222946 0)
(-2.16221 0.0215485 2.9253e-20)
(-2.1924 0.0207855 0)
(-2.22168 0.0200063 -2.86199e-20)
(-2.25002 0.0192117 0)
(-2.27737 0.0184025 2.79651e-20)
(-2.3037 0.0175793 2.76283e-20)
(-2.32898 0.0167429 2.72847e-20)
(-2.35318 0.0158935 5.38676e-20)
(-2.37626 0.0150314 -5.31503e-20)
(-2.39818 0.0141564 0)
(-2.41892 0.0132678 0)
(-2.43843 0.0123647 0)
(-2.4567 0.0114449 -5.01107e-20)
(-2.47367 0.0105057 -4.93045e-20)
(-2.48931 0.00954312 4.84785e-20)
(-2.50359 0.0085526 0)
(-2.51645 0.00752865 -4.67649e-20)
(-2.52784 0.00646457 -4.58763e-20)
(-2.53769 0.00535406 -4.49662e-20)
(-2.54594 0.00419705 0)
(-2.55251 0.00301167 0)
(-2.55727 0.00184264 0)
(-2.56011 0.000747448 -4.11056e-20)
(-2.56118 -0.000223493 0)
(-2.56085 -0.00107314 0)
(-2.55903 -0.00189238 3.79377e-20)
(-2.55575 -0.00269771 0)
(-2.55101 -0.00349653 0)
(-2.54479 -0.00429015 3.45342e-20)
(-2.53709 -0.0050786 0)
(-2.52789 -0.00586129 0)
(-2.51719 -0.00663744 -3.08913e-20)
(-2.50497 -0.00740622 -2.9624e-20)
(-2.49125 -0.00816676 0)
(-2.476 -0.00891822 2.70107e-20)
(-2.45924 -0.00965979 0)
(-2.44097 -0.0103906 -2.42944e-20)
(-2.42118 -0.01111 0)
(-2.39989 -0.0118171 -2.14782e-20)
(-2.3771 -0.0125111 -2.00338e-20)
(-2.35282 -0.0131914 0)
(-2.32706 -0.0138572 0)
(-2.29984 -0.0145077 0)
(-2.27117 -0.0151424 0)
(-2.24107 -0.0157606 0)
(-2.20955 -0.0163617 0)
(-2.17664 -0.0169451 0)
(-2.14235 -0.0175103 -7.69439e-21)
(-2.10672 -0.0180568 6.06626e-21)
(-2.06977 -0.0185841 0)
(-2.03153 -0.0190916 0)
(-1.99202 -0.019579 0)
(-1.95127 -0.0200457 0)
(-1.90933 -0.0204915 -4.57955e-21)
(-1.86622 -0.020916 0)
(-1.82197 -0.021319 1.14214e-20)
(-1.77663 -0.0217002 -1.48658e-20)
(-1.73023 -0.0220594 0)
(-1.68281 -0.0223965 0)
(-1.63441 -0.0227113 0)
(-1.58507 -0.0230037 2.8738e-20)
(-1.53483 -0.0232739 3.22158e-20)
(-1.48374 -0.0235218 0)
(-1.43184 -0.0237477 3.91632e-20)
(-1.37917 -0.0239516 4.26273e-20)
(-1.32577 -0.0241337 -4.6081e-20)
(-1.27169 -0.0242945 0)
(-1.21697 -0.0244342 0)
(-1.16166 -0.0245533 -5.63528e-20)
(-1.10579 -0.0246522 0)
(-1.04942 -0.0247315 0)
(-0.992577 -0.0247919 0)
(-0.935309 -0.0248339 0)
(-0.877655 -0.0248583 7.30114e-20)
(-0.819653 -0.0248658 7.62508e-20)
(-0.76134 -0.0248574 0)
(-0.702752 -0.0248339 8.2618e-20)
(-0.643924 -0.0247962 0)
(-0.584887 -0.0247451 0)
(-0.525672 -0.0246818 9.18578e-20)
(-0.466307 -0.0246068 0)
(-0.40682 -0.024521 9.77873e-20)
(-0.347237 -0.0244243 0)
(-0.287585 -0.024317 0)
(-0.227889 -0.0241962 1.06301e-19)
(-0.168178 -0.0240549 0)
(-0.108483 -0.0238892 1.11706e-19)
(-0.0488271 -0.0236928 0)
(0.0107498 -0.0234135 0)
(0.0701192 -0.0230341 0)
(0.129377 -0.0226496 -1.18412e-19)
(0.188519 -0.0222891 0)
(0.247557 -0.0219464 1.1991e-19)
(0.306498 -0.0216112 0)
(0.365328 -0.0212728 0)
(0.424 -0.0209166 0)
(0.48241 -0.0205193 0)
(0.540378 -0.0200351 0)
(0.597401 -0.0193717 0)
(0.65306 -0.0182827 0)
(0.703271 -0.0161381 -2.47034e-19)
(0.752089 -0.0113143 0)
(0.754257 0.00630219 0)
(0.00372546 -0.0287545 1.04068e-19)
(0.00763144 -0.0266542 -9.99381e-20)
(0.00670727 -0.015068 0)
(0.00335482 -0.00300154 6.04694e-20)
(-0.00203057 0.00812699 0)
(-0.00928738 0.0176452 2.84132e-20)
(-0.0183833 0.0253089 -5.53982e-20)
(-0.0292166 0.0312327 -5.40939e-20)
(-0.0416519 0.0357407 0)
(-0.0555194 0.0392234 -5.15988e-20)
(-0.0706441 0.042016 -2.52069e-20)
(-0.0868742 0.0443605 0)
(-0.104092 0.0464168 0)
(-0.122214 0.0482832 0)
(-0.141181 0.0500163 0)
(-0.160954 0.0516472 -2.24481e-20)
(-0.18151 0.0531919 0)
(-0.202835 0.0546583 4.29645e-20)
(-0.224921 0.0560498 0)
(-0.247766 0.057368 0)
(-0.271375 0.0586128 -4.04738e-20)
(-0.295755 0.0597836 0)
(-0.320921 0.0608796 3.90495e-20)
(-0.346892 0.0619009 -1.92262e-20)
(-0.3737 0.0628513 1.89304e-20)
(-0.401387 0.0637443 -1.86592e-20)
(-0.43001 0.064611 -1.84135e-20)
(-0.459635 0.0655003 0)
(-0.490326 0.0664502 0)
(-0.522149 0.0674302 1.78386e-20)
(-0.55524 0.0683137 -1.7638e-20)
(-0.589746 0.0690082 0)
(-0.625331 0.069832 0)
(-0.661594 0.0714146 1.73748e-20)
(-0.699547 0.0731074 0)
(-0.738586 0.0741234 0)
(-0.779136 0.0752442 -1.71819e-20)
(-0.820177 0.0760711 0)
(-0.862272 0.0770133 1.68315e-20)
(-0.903069 0.0782924 -3.3662e-20)
(-0.943188 0.0808159 0)
(-0.982688 0.082453 0)
(-1.02193 0.0829538 -6.49735e-20)
(-1.06336 0.0841036 -6.49355e-20)
(-1.10502 0.0854871 -6.42589e-20)
(-1.14681 0.087173 3.16613e-20)
(-1.18679 0.0879764 -3.14645e-20)
(-1.22584 0.088184 -9.31651e-20)
(-1.26435 0.0880138 6.13701e-20)
(-1.30248 0.087576 3.04254e-20)
(-1.34028 0.0869531 0)
(-1.37779 0.0861971 -2.97856e-20)
(-1.41502 0.0853432 2.93319e-20)
(-1.45197 0.0844143 0)
(-1.48862 0.0834256 0)
(-1.52496 0.0823867 0)
(-1.56099 0.0813038 -2.83339e-20)
(-1.59669 0.0801804 0)
(-1.63204 0.0790184 5.54507e-20)
(-1.66702 0.0778185 0)
(-1.70161 0.0765807 5.44224e-20)
(-1.73579 0.0753046 0)
(-1.76954 0.0739895 -5.34259e-20)
(-1.80284 0.0726347 0)
(-1.83566 0.0712395 5.2453e-20)
(-1.86797 0.0698032 -2.59151e-20)
(-1.89976 0.0683253 0)
(-1.93098 0.0668058 -5.10205e-20)
(-1.96163 0.0652444 -2.53415e-20)
(-1.99165 0.0636414 -2.51033e-20)
(-2.02104 0.0619973 0)
(-2.04976 0.0603128 -2.44962e-20)
(-2.07778 0.0585886 -2.43837e-20)
(-2.10506 0.056826 0)
(-2.1316 0.0550262 2.38955e-20)
(-2.15734 0.0531908 -4.71808e-20)
(-2.18227 0.0513213 0)
(-2.20636 0.0494194 -2.31423e-20)
(-2.22957 0.047487 0)
(-2.25189 0.045526 6.77674e-20)
(-2.27327 0.0435383 0)
(-2.2937 0.0415258 -6.61595e-20)
(-2.31315 0.0394904 -2.18047e-20)
(-2.33159 0.0374337 2.14454e-20)
(-2.34899 0.0353575 4.2324e-20)
(-2.36534 0.0332631 -4.1745e-20)
(-2.3806 0.0311517 0)
(-2.39474 0.0290243 0)
(-2.40775 0.0268812 0)
(-2.4196 0.0247226 1.18043e-19)
(-2.43027 0.0225477 3.87117e-20)
(-2.43973 0.0203554 -3.80339e-20)
(-2.44796 0.0181436 0)
(-2.45496 0.0159102 -3.66078e-20)
(-2.4607 0.0136521 3.59022e-20)
(-2.4652 0.0113649 3.51578e-20)
(-2.46847 0.00904571 0)
(-2.47056 0.00670454 0)
(-2.47156 0.00438258 0)
(-2.47157 0.00214241 3.19953e-20)
(-2.47052 7.54717e-06 0)
(-2.46809 -0.00203426 -6.06726e-20)
(-2.46427 -0.00403792 -8.83426e-20)
(-2.45904 -0.00601666 5.71512e-20)
(-2.45237 -0.00797704 0)
(-2.44424 -0.00991951 2.68184e-20)
(-2.43464 -0.0118428 0)
(-2.42356 -0.013745 4.96706e-20)
(-2.411 -0.0156237 -2.39555e-20)
(-2.39695 -0.0174767 -2.29652e-20)
(-2.3814 -0.0193017 0)
(-2.36435 -0.0210965 -6.23004e-20)
(-2.3458 -0.0228591 3.95163e-20)
(-2.32576 -0.0245873 1.85522e-20)
(-2.30422 -0.0262793 0)
(-2.2812 -0.0279331 1.63558e-20)
(-2.2567 -0.0295471 4.60264e-20)
(-2.23072 -0.0311193 0)
(-2.20329 -0.0326483 2.62478e-20)
(-2.17441 -0.0341323 2.3934e-20)
(-2.14409 -0.0355698 2.15941e-20)
(-2.11237 -0.0369595 0)
(-2.07924 -0.0383001 0)
(-2.04474 -0.0395904 0)
(-2.00889 -0.0408293 -6.21275e-21)
(-1.97171 -0.042016 -4.55589e-21)
(-1.93322 -0.0431494 0)
(-1.89345 -0.0442287 -4.59787e-21)
(-1.85244 -0.0452532 -2.10015e-21)
(-1.81021 -0.0462221 0)
(-1.76679 -0.0471349 3.41644e-21)
(-1.72222 -0.0479912 1.09211e-20)
(-1.67654 -0.0487909 -8.49857e-21)
(-1.62977 -0.0495337 -1.00309e-20)
(-1.58196 -0.0502197 0)
(-1.53314 -0.0508489 0)
(-1.48336 -0.0514215 0)
(-1.43265 -0.0519377 -2.12519e-20)
(-1.38106 -0.052398 2.27256e-20)
(-1.32863 -0.0528032 5.15877e-20)
(-1.2754 -0.053154 -2.88608e-20)
(-1.22141 -0.0534513 3.029e-20)
(-1.1667 -0.0536961 3.3884e-20)
(-1.11133 -0.0538894 0)
(-1.05533 -0.0540327 0)
(-0.998744 -0.0541275 -4.02096e-20)
(-0.941618 -0.0541754 0)
(-0.883993 -0.0541778 0)
(-0.825909 -0.0541368 9.60185e-20)
(-0.767408 -0.0540542 0)
(-0.708529 -0.0539323 5.21821e-20)
(-0.649311 -0.053773 -5.55866e-20)
(-0.589789 -0.0535786 0)
(-0.53 -0.0533516 5.90599e-20)
(-0.469976 -0.0530943 0)
(-0.409751 -0.052809 0)
(-0.349352 -0.052498 -6.67105e-20)
(-0.28881 -0.0521635 1.36629e-19)
(-0.228149 -0.0518071 -7.0923e-20)
(-0.167395 -0.0514295 0)
(-0.106572 -0.0510299 0)
(-0.0457032 -0.0506066 7.59579e-20)
(0.0151893 -0.0501557 0)
(0.07608 -0.0496748 7.88213e-20)
(0.136952 -0.0491716 0)
(0.197789 -0.0486443 0)
(0.258575 -0.0480819 0)
(0.319338 -0.0475111 8.37694e-20)
(0.380066 -0.0469557 0)
(0.440753 -0.0464139 -8.55136e-20)
(0.501388 -0.0458726 0)
(0.561945 -0.0453126 0)
(0.622368 -0.044703 1.74691e-19)
(0.682547 -0.0439922 -1.76008e-19)
(0.742294 -0.0430798 0)
(0.801175 -0.0417713 0)
(0.85874 -0.0395662 0)
(0.91245 -0.0355106 5.43202e-19)
(0.964871 -0.0263602 0)
(0.995384 -0.00418754 -3.69537e-19)
(0.000626573 -0.0332291 -4.41483e-23)
(-0.00287611 -0.020089 1.29455e-19)
(-0.00943318 -0.0033774 0)
(-0.0171685 0.0118683 -1.11267e-19)
(-0.0261314 0.0255076 0)
(-0.0361642 0.0374464 0)
(-0.0472636 0.0476341 1.15662e-23)
(-0.0594932 0.0561361 4.80375e-20)
(-0.0728985 0.0631462 4.68383e-20)
(-0.0874739 0.0689366 4.57384e-20)
(-0.103171 0.0737913 0)
(-0.119921 0.0779599 0)
(-0.137656 0.0816396 -4.26651e-20)
(-0.156315 0.0849742 -8.34455e-20)
(-0.175852 0.0880632 8.16403e-20)
(-0.196234 0.0909727 0)
(-0.217441 0.0937463 7.82743e-20)
(-0.239462 0.0964129 -3.83719e-20)
(-0.262297 0.0989928 0)
(-0.28595 0.101501 7.38406e-20)
(-0.310434 0.103951 3.62775e-20)
(-0.335766 0.106355 -7.12877e-20)
(-0.361969 0.108726 -3.50802e-20)
(-0.389071 0.111081 0)
(-0.417105 0.113442 6.80403e-20)
(-0.446104 0.115839 6.71078e-20)
(-0.4761 0.118314 0)
(-0.507113 0.120913 6.5458e-20)
(-0.539137 0.123667 0)
(-0.572144 0.126558 6.40683e-20)
(-0.606114 0.129517 3.17406e-20)
(-0.641042 0.132498 0)
(-0.676741 0.135502 0)
(-0.712908 0.1384 0)
(-0.749542 0.140926 0)
(-0.786612 0.143373 0)
(-0.823854 0.145701 0)
(-0.860983 0.147521 5.91905e-20)
(-0.89799 0.149157 -8.7757e-20)
(-0.934272 0.150576 0)
(-0.969614 0.150945 0)
(-1.00449 0.149932 0)
(-1.03926 0.148528 1.66441e-23)
(-1.0742 0.146518 5.50145e-20)
(-1.10947 0.144396 1.08653e-19)
(-1.14467 0.142989 -1.07275e-19)
(-1.17925 0.141754 -5.29285e-20)
(-1.21337 0.140507 5.23473e-20)
(-1.24715 0.139181 -7.78385e-23)
(-1.28063 0.137757 5.10131e-20)
(-1.31386 0.13624 0)
(-1.34688 0.134641 4.98231e-20)
(-1.37968 0.132971 -8.54319e-23)
(-1.41228 0.131239 0)
(-1.44468 0.12945 0)
(-1.47685 0.127609 -4.76238e-20)
(-1.5088 0.125718 0)
(-1.54051 0.123779 0)
(-1.57197 0.121789 4.60102e-20)
(-1.60315 0.11975 9.12346e-20)
(-1.63404 0.117658 -4.52342e-20)
(-1.66461 0.115513 0)
(-1.69485 0.113312 4.43e-20)
(-1.72472 0.111055 0)
(-1.75422 0.108739 4.31984e-20)
(-1.7833 0.106364 4.29394e-20)
(-1.81194 0.10393 -8.47996e-20)
(-1.84013 0.101435 -4.18647e-20)
(-1.86782 0.0988797 0)
(-1.89499 0.0962645 8.21559e-20)
(-1.92161 0.0935902 0)
(-1.94765 0.0908577 1.20688e-19)
(-1.97309 0.0880685 7.95217e-20)
(-1.99789 0.0852243 7.86391e-20)
(-2.02202 0.082327 -7.77521e-20)
(-2.04545 0.079379 1.15366e-19)
(-2.06816 0.0763826 0)
(-2.09011 0.0733405 0)
(-2.11127 0.0702554 -7.41333e-20)
(-2.13161 0.0671302 -1.09872e-19)
(-2.15111 0.0639678 0)
(-2.16974 0.060771 3.57134e-20)
(-2.18747 0.0575428 0)
(-2.20426 0.0542859 -1.04091e-19)
(-2.2201 0.0510029 -9.21144e-23)
(-2.23496 0.0476964 8.3567e-23)
(-2.24881 0.0443684 6.63123e-20)
(-2.26163 0.0410212 0)
(-2.2734 0.0376564 -6.41872e-20)
(-2.28408 0.0342757 -4.67101e-23)
(-2.29367 0.0308806 0)
(-2.30213 0.0274729 0)
(-2.30946 0.0240545 0)
(-2.31565 0.0206289 5.85114e-20)
(-2.32068 0.0172013 0)
(-2.32454 0.0137802 0)
(-2.32725 0.0103785 0)
(-2.3288 0.00701368 0)
(-2.32916 0.00370476 0)
(-2.32833 0.000460405 5.08749e-20)
(-2.32623 -0.00274757 0)
(-2.32279 -0.0059454 4.80223e-20)
(-2.31799 -0.0091254 4.65885e-20)
(-2.31182 -0.012284 -4.51292e-20)
(-2.30424 -0.0154179 0)
(-2.29525 -0.0185234 -4.21343e-20)
(-2.28484 -0.0215968 0)
(-2.27299 -0.0246341 -3.90387e-20)
(-2.2597 -0.0276314 3.74537e-20)
(-2.24496 -0.030585 1.07888e-19)
(-2.22877 -0.033491 0)
(-2.21112 -0.0363461 9.80662e-20)
(-2.19202 -0.0391467 3.12988e-20)
(-2.17146 -0.0418896 0)
(-2.14945 -0.0445718 5.53734e-20)
(-2.126 -0.0471902 5.19093e-20)
(-2.1011 -0.049742 -7.23535e-20)
(-2.07478 -0.0522244 0)
(-2.04703 -0.0546349 -2.03672e-20)
(-2.01788 -0.0569709 -1.85506e-20)
(-1.98734 -0.05923 -5.07424e-20)
(-1.95542 -0.06141 0)
(-1.92214 -0.0635089 0)
(-1.88752 -0.065525 0)
(-1.85158 -0.0674566 -9.90753e-21)
(-1.81435 -0.0693022 0)
(-1.77585 -0.0710605 0)
(-1.73611 -0.0727302 3.53205e-21)
(-1.69515 -0.0743102 1.61158e-21)
(-1.65301 -0.0757996 0)
(-1.60971 -0.0771974 0)
(-1.56529 -0.0785033 -8.35392e-21)
(-1.51979 -0.0797169 0)
(-1.47323 -0.0808382 1.60905e-20)
(-1.42565 -0.0818675 1.91685e-20)
(-1.3771 -0.0828048 0)
(-1.3276 -0.0836505 0)
(-1.27721 -0.0844053 -3.06999e-20)
(-1.22595 -0.08507 -8.16966e-22)
(-1.17387 -0.085646 -8.22224e-22)
(-1.12102 -0.0861346 0)
(-1.06742 -0.0865375 -9.26035e-20)
(-1.01314 -0.0868562 0)
(-0.958196 -0.0870928 0)
(-0.902644 -0.0872496 0)
(-0.846524 -0.0873292 6.1543e-20)
(-0.789876 -0.0873341 0)
(-0.732741 -0.0872671 -1.35858e-19)
(-0.67516 -0.0871313 -7.23207e-20)
(-0.617173 -0.08693 0)
(-0.558816 -0.0866667 -7.931e-20)
(-0.500129 -0.0863447 0)
(-0.441146 -0.0859679 0)
(-0.381901 -0.0855401 -2.66749e-19)
(-0.322428 -0.0850652 1.83873e-19)
(-0.262756 -0.0845469 0)
(-0.202915 -0.0839891 1.9674e-19)
(-0.142932 -0.0833951 -1.02302e-19)
(-0.0828316 -0.0827675 0)
(-0.0226371 -0.0821091 0)
(0.0376299 -0.0814215 0)
(0.0979487 -0.0807043 -3.37176e-19)
(0.158301 -0.0799561 0)
(0.218672 -0.0791775 -1.16749e-19)
(0.27905 -0.0783754 0)
(0.33944 -0.0775626 0)
(0.399862 -0.0767493 0)
(0.460313 -0.0759422 0)
(0.520774 -0.0751474 0)
(0.581229 -0.0743597 0)
(0.641658 -0.0735626 -2.5535e-19)
(0.702029 -0.0727278 0)
(0.762283 -0.0718087 -1.31027e-19)
(0.822313 -0.0707249 3.95621e-19)
(0.881947 -0.069328 0)
(0.940819 -0.0673351 0)
(0.99859 -0.0641309 -2.70442e-19)
(1.05356 -0.0585425 -2.73965e-19)
(1.10839 -0.0476333 2.75959e-19)
(1.15105 -0.0251249 2.80758e-19)
(-0.00308601 -0.0243397 -2.05331e-19)
(-0.0115605 -0.00368055 -1.89461e-19)
(-0.0216152 0.0158032 -1.13677e-19)
(-0.0324297 0.0327669 -5.22626e-20)
(-0.044026 0.0478698 0)
(-0.0562238 0.0612853 9.40868e-20)
(-0.0690562 0.0730727 -4.53787e-20)
(-0.0826286 0.083307 0)
(-0.0970358 0.0921252 -4.2887e-20)
(-0.112337 0.099721 0)
(-0.128553 0.106314 8.17175e-20)
(-0.145681 0.11212 0)
(-0.163699 0.117325 3.90661e-20)
(-0.182581 0.122083 7.64589e-20)
(-0.202302 0.126509 -7.48615e-20)
(-0.222841 0.130689 0)
(-0.244185 0.134687 -7.18882e-20)
(-0.266326 0.138546 0)
(-0.289263 0.142302 0)
(-0.312996 0.145979 -6.79629e-20)
(-0.337532 0.1496 0)
(-0.362878 0.153182 4.67043e-24)
(-0.389039 0.156743 0)
(-0.416023 0.160298 0)
(-0.443827 0.163861 -4.49113e-24)
(-0.472444 0.167447 -6.18308e-20)
(-0.501848 0.171067 -6.099e-20)
(-0.531995 0.17472 -6.01996e-20)
(-0.562813 0.178386 0)
(-0.594207 0.18201 -1.17409e-19)
(-0.626073 0.185501 0)
(-0.658308 0.188769 -5.7281e-20)
(-0.690788 0.191745 0)
(-0.72337 0.194329 0)
(-0.755946 0.196433 5.51413e-20)
(-0.788424 0.198112 0)
(-0.820699 0.199359 -5.36925e-20)
(-0.852711 0.200117 -9.66806e-24)
(-0.884411 0.200459 1.0447e-19)
(-0.915712 0.200419 -1.03011e-19)
(-0.946619 0.199837 0)
(-0.977282 0.198581 0)
(-1.00786 0.196898 -4.93768e-20)
(-1.03845 0.194841 0)
(-1.06909 0.192612 -4.80388e-20)
(-1.09966 0.190515 4.73861e-20)
(-1.13008 0.188473 4.67517e-20)
(-1.16033 0.18644 0)
(-1.19042 0.184383 -4.55365e-20)
(-1.22037 0.182281 -4.49546e-20)
(-1.25019 0.180127 8.87149e-20)
(-1.27988 0.177916 -4.38387e-20)
(-1.30944 0.175649 -4.33032e-20)
(-1.33889 0.173324 0)
(-1.36819 0.170942 0)