/*--------------------------------*- C++ -*----------------------------------*\
  =========                 |
  \\      /  F ield         | OpenFOAM: The Open Source CFD Toolbox
   \\    /   O peration     | Website:  https://openfoam.org
    \\  /    A nd           | Version:  12
     \\/     M anipulation  |
\*---------------------------------------------------------------------------*/
FoamFile
{
    format      ascii;
    class       surfaceScalarField;
    location    "18.72";
    object      phi;
}
// * * * * * * * * * * * * * * * * * * * * * * * * * * * * * * * * * * * * * //

dimensions      [1 0 -1 0 0 0 0];

internalField   nonuniform List<scalar> 
7429
(
0.000247119
-0.000247118
0.000502442
-0.000255323
0.000761607
-0.000259165
0.00102465
-0.000263043
0.00129195
-0.000267298
0.00156375
-0.000271798
0.00184025
-0.000276498
0.00212158
-0.000281336
0.00240781
-0.000286226
0.00269891
-0.000291099
0.00299467
-0.000295761
0.00329483
-0.000300159
0.00359899
-0.00030416
0.00390656
-0.000307567
0.00421679
-0.000310233
0.00452876
-0.000311965
0.00484131
-0.000312553
0.00515329
-0.00031198
0.00546319
-0.000309902
0.00576939
-0.000306198
0.00607009
-0.0003007
0.00636331
-0.000293222
0.00664693
-0.00028362
0.00691862
-0.000271688
0.00717593
-0.000257304
0.00741621
-0.000240281
0.00763686
-0.000220648
0.00783526
-0.000198402
0.00800884
-0.000173576
0.00815495
-0.000146113
0.00827122
-0.000116272
0.00835552
-8.4295e-05
0.00840585
-5.03309e-05
0.00842043
-1.45853e-05
0.00840127
1.91593e-05
0.00834708
5.41896e-05
0.00825692
9.01629e-05
0.00813062
0.000126299
0.0079685
0.000162121
0.00777134
0.000197158
0.00754045
0.000230898
0.00727741
0.000263038
0.00698424
0.00029317
0.00666321
0.00032103
0.00631693
0.000346279
0.00594833
0.000368603
0.00556052
0.000387812
0.00515693
0.00040359
0.00474114
0.000415784
0.00431694
0.000424199
0.00388826
0.000428687
0.00345906
0.000429193
0.00303355
0.000425513
0.00261568
0.000417868
0.00220978
0.000405899
0.0018196
0.000390179
0.00144945
0.00037015
0.00110274
0.000346714
0.000783446
0.000319294
0.000494376
0.00028907
0.000239322
0.000255054
2.04962e-05
0.000218826
-0.00015963
0.000180126
-0.000299356
0.000139726
-0.000396696
9.73394e-05
-0.000451768
5.50718e-05
-0.000464164
1.23969e-05
-0.000427818
-3.63466e-05
-0.000349042
-7.8776e-05
-0.000230287
-0.000118755
-7.35321e-05
-0.000156754
0.000118416
-0.000191948
0.000342566
-0.00022415
0.000594995
-0.000252429
0.000870635
-0.00027564
0.00116408
-0.000293441
0.00146958
-0.000305504
0.00178094
-0.000311363
0.00209131
-0.000310362
0.00239371
-0.000302409
0.00268131
-0.000287591
0.00294662
-0.000265317
0.00318308
-0.000236455
0.0033839
-0.000200823
0.0035429
-0.000159
0.0036551
-0.000112199
0.0037152
-6.01004e-05
0.00371781
-2.6096e-06
0.00365397
6.38356e-05
0.00352621
0.000127769
0.00333573
0.000190472
0.00308515
0.000250585
0.00277778
0.000307363
0.00241799
0.000359794
0.00201144
0.000406552
0.00156539
0.000446049
0.00108857
0.000476821
0.000591405
0.000497165
8.47888e-05
0.000506616
-0.000418451
0.00050324
-0.000905475
0.000487024
-0.00136329
0.000457811
-0.00177867
0.000415382
-0.00213939
0.000360719
-0.00243389
0.000294501
-0.00265203
0.000218143
-0.00278646
0.000134429
-0.00283201
4.55535e-05
-0.00277456
-5.74505e-05
-0.00261962
-0.000154945
-0.00237352
-0.000246099
-0.00204351
-0.000330004
-0.00163901
-0.0004045
-0.00117275
-0.000466264
-0.000660169
-0.000512581
-0.000119973
-0.000540196
0.000427418
-0.000547391
0.000959866
-0.000532447
0.00145505
-0.000495182
0.00189161
-0.000436559
0.00224923
-0.000357627
0.00251036
-0.000261124
0.00266111
-0.000150755
0.00269417
-3.3059e-05
0.00258914
0.000105036
0.00235837
0.000230763
0.00201235
0.00034602
0.00156652
0.000445831
0.00103974
0.000526781
0.000457266
0.000582477
-0.000150487
0.000607753
-0.000750442
0.000599955
-0.00130829
0.000557844
-0.00179046
0.000482172
-0.00216639
0.00037593
-0.00241118
0.000244794
-0.00250616
9.49817e-05
-0.00242928
-7.68823e-05
-0.00218535
-0.000243929
-0.00179083
-0.00039452
-0.00126736
-0.00052347
-0.000645137
-0.000622226
3.72419e-05
-0.000682378
0.000732048
-0.000694806
0.00138957
-0.000657522
0.00196043
-0.000570859
0.00240005
-0.000439623
0.00267176
-0.000271706
0.00275172
-7.99625e-05
0.00261431
0.000137409
0.0022765
0.000337812
0.00176478
0.000511716
0.00111746
0.000647326
0.000386282
0.000731174
-0.000365987
0.000752269
-0.00107093
0.000704941
-0.0016647
0.000593776
-0.00209182
0.000427116
-0.00231277
0.000220947
-0.00230364
-9.1217e-06
-0.00206303
-0.000240618
-0.00163002
-0.000433004
-0.00105473
-0.000575294
-0.000404863
-0.000649865
0.00023815
-0.000643013
0.000792402
-0.000554252
0.00118674
-0.000394336
0.00137043
-0.000183693
0.00130972
6.0708e-05
0.00101703
0.000292692
0.000539084
0.000477947
-5.57132e-05
0.000594798
-0.000679651
0.000623938
-0.00122651
0.000546862
-0.00160531
0.000378794
-0.0017479
0.00014259
-0.00160718
-0.000140712
-0.00120215
-0.000405034
-0.000588549
-0.000613601
0.000143287
-0.000731835
0.000871436
-0.00072815
0.00147014
-0.000598708
0.00183168
-0.000361532
0.00188671
-5.50343e-05
0.0016042
0.000282511
0.00103797
0.00056623
0.000284008
0.000753961
-0.000519206
0.000803214
-0.00121339
0.000694185
-0.00166071
0.000447324
-0.00177057
0.000109851
-0.00151549
-0.000255071
-0.000957018
-0.000558476
-0.000222522
-0.000734495
0.000515632
-0.000738154
0.00107609
-0.000560458
0.00131858
-0.000242487
0.00117894
0.000139635
0.00069472
0.000484221
0.00069472
0.000290173
-0.00053729
0.00059957
-0.000564719
0.000915559
-0.000575153
0.0012392
-0.000586679
0.0015716
-0.000599697
0.00191394
-0.000614138
0.00226694
-0.000629502
0.00263124
-0.000645634
0.00300694
-0.000661927
0.00339398
-0.000678137
0.00379175
-0.000693528
0.00419956
-0.000707973
0.0046165
-0.000721097
0.00504127
-0.000732329
0.00547236
-0.000741325
0.00590797
-0.000747575
0.00634591
-0.000750492
0.00678358
-0.000749647
0.00721814
-0.000744466
0.00764642
-0.000734478
0.00806489
-0.000719166
0.00846987
-0.000698202
0.00885748
-0.000671229
0.00922379
-0.000637996
0.00956478
-0.0005983
0.00987677
-0.000552264
0.0101559
-0.00049973
0.0103988
-0.000441356
0.0106024
-0.00037718
0.0107642
-0.00030788
0.010882
-0.000234132
0.0109546
-0.000156874
0.0109817
-7.74483e-05
0.0109602
6.91991e-06
0.0108775
0.000101893
0.0107391
0.000192586
0.0105485
0.000280802
0.0103093
0.000365497
0.0100254
0.000446034
0.00970083
0.000521684
0.00933857
0.000593152
0.0089413
0.000660313
0.00851134
0.000723126
0.00805166
0.00078071
0.00756595
0.000831986
0.00705813
0.000876428
0.0065325
0.00091344
0.00599344
0.000942646
0.00544526
0.000963969
0.00489325
0.000976204
0.00434177
0.000980175
0.00379558
0.000975377
0.00325987
0.00096123
0.00273862
0.000939116
0.0022372
0.000907316
0.0017593
0.00086808
0.00130936
0.000820092
0.000891903
0.000764169
0.000510466
0.000700731
0.000168226
0.000631311
-0.000131881
0.00055516
-0.000386913
0.000473858
-0.000595357
0.000388569
-0.00075346
0.00029783
-0.000862018
0.000205897
-0.000919835
0.000112889
-0.000924568
1.71291e-05
-0.000881373
-7.95414e-05
-0.000789692
-0.000170457
-0.000650911
-0.000257536
-0.000467837
-0.000339829
-0.000243898
-0.000415887
1.58658e-05
-0.000483914
0.000307252
-0.000543815
0.000624813
-0.000593202
0.000962301
-0.000630929
0.00131298
-0.000656185
0.00166964
-0.000668022
0.00202462
-0.000665339
0.00237048
-0.00064827
0.00269903
-0.000616138
0.00300301
-0.000569299
0.00327422
-0.000507667
0.00350543
-0.000432027
0.00369025
-0.000343824
0.0038215
-0.000243451
0.00389574
-0.000134343
0.00390745
-1.43184e-05
0.00384616
0.000125129
0.00371567
0.000258257
0.00351715
0.000388999
0.00325249
0.000515241
0.00292483
0.000635022
0.00253875
0.000745874
0.00210073
0.000844569
0.00161904
0.000927739
0.00110329
0.000992572
0.000565071
0.00103538
1.68057e-05
0.00105488
-0.000527851
0.0010479
-0.00105488
0.00101405
-0.00154975
0.000952676
-0.00199827
0.000863901
-0.00238639
0.000748845
-0.00270204
0.000610147
-0.00293461
0.000450711
-0.00307354
0.000273364
-0.00311487
8.68796e-05
-0.00304607
-0.000126248
-0.00287346
-0.000327549
-0.00260148
-0.000518079
-0.00223743
-0.000694058
-0.00179214
-0.000849791
-0.00127938
-0.000979023
-0.000717055
-0.00107491
-0.000123971
-0.00113328
0.000475483
-0.00114684
0.00105871
-0.00111567
0.00159989
-0.00103637
0.0020767
-0.000913371
0.00246551
-0.000746437
0.00274886
-0.000544474
0.00291018
-0.00031207
0.00294029
-6.31742e-05
0.00282406
0.000221266
0.00257203
0.000482794
0.00219393
0.000724126
0.00170549
0.000934268
0.00112782
0.00110445
0.000489496
0.0012208
-0.000176024
0.00127327
-0.00083285
0.00125678
-0.00144328
0.00116827
-0.00197073
0.00100963
-0.00238176
0.000786959
-0.00264857
0.00051161
-0.00275053
0.000196934
-0.00266763
-0.000159781
-0.00240553
-0.000506028
-0.00197946
-0.000820587
-0.00141046
-0.00109247
-0.000734111
-0.00129857
6.09428e-06
-0.00142258
0.000761275
-0.00144999
0.00147529
-0.00137153
0.00209447
-0.00119004
0.00256988
-0.000915036
0.00286207
-0.000563895
0.00294403
-0.000161918
0.00279477
0.000286662
0.00242994
0.000702648
0.00187555
0.0010661
0.00117397
0.00134891
0.000382844
0.0015223
-0.000429067
0.00156418
-0.00118741
0.00146328
-0.00182198
0.00122834
-0.00227325
0.000878393
-0.00249711
0.0004448
-0.00246713
-3.90962e-05
-0.00219173
-0.000516023
-0.0017055
-0.00091923
-0.00106502
-0.00121577
-0.000346973
-0.00136792
0.000360941
-0.00135093
0.000967442
-0.00116075
0.00139534
-0.00082223
0.00158755
-0.00037591
0.00151139
0.000136868
0.00118261
0.000621479
0.000648509
0.00101204
-1.29774e-05
0.00125628
-0.000708395
0.00131935
-0.00131727
0.00115573
-0.00174043
0.000801954
-0.00190327
0.000305436
-0.00175853
-0.000285457
-0.00132523
-0.000838334
-0.000661704
-0.00127712
0.000131738
-0.00152528
0.000922299
-0.00151871
0.00157299
-0.0012494
0.00196628
-0.000754821
0.00202497
-0.000113724
0.00172259
0.00058489
0.00111154
0.00117728
0.000297717
0.00156778
-0.000568079
0.00166901
-0.00131383
0.00143994
-0.00178988
0.000923369
-0.00189802
0.000217998
-0.00161278
-0.000540316
-0.000999075
-0.00117218
-0.000196873
-0.0015367
0.000605695
-0.00154072
0.00121136
-0.00116612
0.00146792
-0.00049905
0.00130647
0.000301088
0.000768264
0.00102243
0.00146298
6.67802e-05
-0.00060407
0.000144159
-0.000642097
0.000227719
-0.000658712
0.00032034
-0.0006793
0.000423836
-0.000703192
0.000541018
-0.000731319
0.000672749
-0.000761232
0.000821937
-0.000794822
0.000988583
-0.000828571
0.00117589
-0.000865443
0.00138498
-0.00090262
0.0016177
-0.000940694
0.0018733
-0.000976688
0.00215074
-0.00100977
0.00245291
-0.00104349
0.00278146
-0.00107613
0.0031352
-0.00110423
0.00351279
-0.00112724
0.0039104
-0.00114207
0.00432448
-0.00114856
0.00474984
-0.00114452
0.00518111
-0.00112948
0.0056119
-0.00110201
0.0060365
-0.0010626
0.00644719
-0.00100899
0.00683843
-0.000943497
0.00720269
-0.000863994
0.0075342
-0.00077286
0.00782514
-0.000668129
0.00806969
-0.000552429
0.00826078
-0.00042522
0.00839334
-0.000289433
0.00846241
-0.000146511
0.00847085
-1.52391e-06
0.00843778
0.000134967
0.00835381
0.000276549
0.00821706
0.000417558
0.00802703
0.000555522
0.0077844
0.000688664
0.00749056
0.00081553
0.00714902
0.000934692
0.00676403
0.0010453
0.00634098
0.00114617
0.00588513
0.00123656
0.00540138
0.00131573
0.00489501
0.00138279
0.00437105
0.0014374
0.00383478
0.00147892
0.0032915
0.00150725
0.00274603
0.00152167
0.00220372
0.00152248
0.00166991
0.00150919
0.00114904
0.0014821
0.000647088
0.00144107
0.000167808
0.0013866
-0.000283318
0.00131921
-0.000701397
0.00123817
-0.00108329
0.00114606
-0.00142461
0.00104205
-0.00172109
0.00092779
-0.0019693
0.000803373
-0.0021665
0.000671056
-0.00231074
0.000532803
-0.00240136
0.00038845
-0.00243465
0.000239189
-0.00241127
8.95101e-05
-0.00232452
-6.9618e-05
-0.0021848
-0.000219263
-0.00199171
-0.000363544
-0.00174744
-0.000501811
-0.00145481
-0.000632461
-0.00111789
-0.000752806
-0.000741604
-0.000860197
-0.000331903
-0.000953517
0.000104736
-0.00102984
0.000561586
-0.00108778
0.00103051
-0.00112511
0.00150297
-0.00114048
0.00197017
-0.00113254
0.00242275
-0.00110085
0.00285186
-0.00104524
0.003248
-0.000965444
0.00360158
-0.000861246
0.00390475
-0.000735198
0.00414828
-0.000587354
0.00432685
-0.000422015
0.00442999
-0.000237493
0.00446079
-4.51123e-05
0.00440229
0.000183626
0.00426072
0.00039983
0.00403655
0.00061317
0.00373169
0.000820102
0.00334984
0.00101687
0.00289616
0.00119955
0.0023794
0.00136133
0.00180941
0.00149773
0.00119825
0.00160373
0.000559872
0.00167377
-9.05789e-05
0.00170533
-0.000736807
0.00169413
-0.00136134
0.00163859
-0.00194688
0.00153821
-0.00247637
0.00139339
-0.00293329
0.00120577
-0.00330235
0.000979211
-0.0035713
0.000719663
-0.00372999
0.000432048
-0.00376601
0.000122904
-0.00367582
-0.00021644
-0.0034627
-0.000540673
-0.0031309
-0.000849873
-0.00268826
-0.0011367
-0.0021474
-0.00139065
-0.0015259
-0.00160052
-0.000846507
-0.00175431
-0.00013249
-0.0018473
0.000589818
-0.00186915
0.00129054
-0.00181639
0.00193994
-0.00168577
0.00251016
-0.00148359
0.00297491
-0.00121119
0.00331009
-0.000879653
0.00350015
-0.000502127
0.00352646
-8.94877e-05
0.00338368
0.000364049
0.00307894
0.000787533
0.00262317
0.0011799
0.00203313
0.00152431
0.00133679
0.00180079
0.000569218
0.00198837
-0.000232422
0.00207491
-0.0010222
0.00204656
-0.00175612
0.00190218
-0.00238921
0.00164272
-0.00288222
0.00127998
-0.00320053
0.000829916
-0.00331997
0.000316371
-0.00322082
-0.000258927
-0.00291028
-0.000816567
-0.00240236
-0.00132851
-0.00172456
-0.00177027
-0.000917722
-0.00210541
-3.33982e-05
-0.00230691
0.000867324
-0.00235071
0.00171714
-0.00222135
0.00245227
-0.00192517
0.00301502
-0.00147779
0.00335693
-0.000905806
0.00344935
-0.000254338
0.00326775
0.000468262
0.00283149
0.00113891
0.00216966
0.00172793
0.00133518
0.00218338
0.000396555
0.00246093
-0.00056407
0.0025248
-0.001456
0.00235521
-0.00219631
0.00196865
-0.00271269
0.00139478
-0.00295628
0.000688392
-0.00289333
-0.000102048
-0.00254111
-0.000868244
-0.00193783
-0.00152251
-0.00115161
-0.00200199
-0.000276811
-0.00224271
0.000578935
-0.00220667
0.0013069
-0.00188872
0.00181287
-0.0013282
0.00203294
-0.000595984
0.00192644
0.000243368
0.00151572
0.0010322
0.000854268
0.0016735
3.63815e-05
0.00207417
-0.000809688
0.00216542
-0.00155356
0.0018996
-0.0020737
0.00132209
-0.00227816
0.000509898
-0.00211571
-0.000447909
-0.00160595
-0.00134809
-0.000818416
-0.00206466
0.000126365
-0.00247006
0.00106819
-0.00246054
0.00184331
-0.00202452
0.00231069
-0.0012222
0.00237925
-0.000182276
0.00202218
0.000941953
0.00129874
0.00190073
0.000336505
0.00253002
-0.00068476
0.00269027
-0.00156056
0.00231573
-0.0021133
0.00147612
-0.00222734
0.000332037
-0.00187404
-0.000893615
-0.00113238
-0.00191385
-0.000170294
-0.00249878
0.000786918
-0.00249793
0.00150396
-0.00188317
0.00179971
-0.0007948
0.00159323
0.000507576
0.000934457
0.0016812
0.00239744
-3.49932e-05
-0.000569076
-3.66601e-05
-0.00064043
-1.20096e-05
-0.000683362
5.13392e-05
-0.000742648
0.000163899
-0.000815751
0.000339277
-0.000906696
0.000581864
-0.00100382
0.000900029
-0.00111299
0.00128915
-0.00121769
0.00174493
-0.00132122
0.00225337
-0.00141105
0.00281197
-0.00149929
0.00341918
-0.0015839
0.00407675
-0.00166734
0.00477835
-0.00174509
0.00551922
-0.001817
0.00629404
-0.00187905
0.00709425
-0.00192745
0.00791062
-0.00195845
0.00873617
-0.0019741
0.00956057
-0.00196892
0.0103727
-0.00194159
0.0111587
-0.00188805
0.011907
-0.00181087
0.0126018
-0.00170385
0.0132328
-0.00157448
0.0137831
-0.00141423
0.0142471
-0.00123688
0.0146089
-0.00102993
0.0148691
-0.000812654
0.0150228
-0.000578918
0.0150744
-0.000340998
0.0150284
-0.000100498
0.0148624
0.000164409
0.0145803
0.000417063
0.0142031
0.000653805
0.0137445
0.000876141
0.0132125
0.00108751
0.012614
0.00128716
0.0119558
0.00147378
0.0112456
0.00164485
0.0104914
0.00179956
0.00970075
0.00193678
0.00888141
0.0020559
0.00804105
0.0021561
0.00718716
0.00223668
0.00632672
0.00229785
0.00546685
0.00233879
0.00461468
0.00235942
0.0037754
0.00236095
0.00295739
0.00234049
0.0021644
0.00230218
0.00140466
0.00224184
0.000681647
0.00216408
1.91468e-07
0.00206805
-0.000632947
0.00195235
-0.00121287
0.00181809
-0.00173565
0.00166885
-0.00219808
0.00150448
-0.00259445
0.00132416
-0.00292318
0.0011321
-0.00318167
0.000929554
-0.00336674
0.00071787
-0.00347685
0.000498562
-0.0035133
0.00027564
-0.00347547
5.16797e-05
-0.00336662
-0.000178468
-0.00318625
-0.000399638
-0.00293564
-0.000614148
-0.00261871
-0.000818746
-0.00224001
-0.00101116
-0.00180602
-0.0011868
-0.00132268
-0.00134354
-0.000797858
-0.00147834
-0.000239584
-0.00158811
0.00034114
-0.0016685
0.000936412
-0.00172038
0.0015353
-0.00173937
0.00212681
-0.00172404
0.00269886
-0.00167291
0.00324075
-0.00158713
0.00374049
-0.00146519
0.00418681
-0.00130756
0.00456964
-0.00111803
0.00487842
-0.000896142
0.00510529
-0.000648882
0.00524475
-0.000376949
0.00528223
-8.25963e-05
0.00521925
0.000246612
0.0050543
0.000564775
0.00478738
0.000880087
0.00442087
0.00118662
0.00395928
0.00147846
0.00340954
0.00174929
0.00278228
0.00198859
0.00209004
0.00218997
0.00134805
0.00234572
0.000572742
0.00244908
-0.000217058
0.00249513
-0.00100088
0.00247795
-0.00175779
0.0023955
-0.00246633
0.00224675
-0.00310526
0.00203232
-0.00365596
0.00175646
-0.00409704
0.00142029
-0.00441347
0.00103609
-0.00459461
0.000613191
-0.00463392
0.000162209
-0.00451318
-0.000337179
-0.00424319
-0.000810656
-0.00382877
-0.0012643
-0.00328036
-0.0016851
-0.00261367
-0.00205735
-0.00184859
-0.00236559
-0.0010116
-0.0025913
-0.000134713
-0.00272418
0.000750429
-0.00275429
0.00160677
-0.00267273
0.00240033
-0.00247933
0.00309414
-0.0021774
0.00365871
-0.00177576
0.00406243
-0.00128337
0.00428661
-0.000726307
0.00431287
-0.000115751
0.00413406
0.000542859
0.00375741
0.00116418
0.00319458
0.00174273
0.00246826
0.00225063
0.00161409
0.00265495
0.000671482
0.00293099
-0.00031122
0.00305761
-0.00127815
0.00301349
-0.00217458
0.00279862
-0.00294741
0.00241554
-0.00354777
0.00188034
-0.00393417
0.00121631
-0.00407518
0.000457381
-0.00395396
-0.000380146
-0.00357595
-0.00119458
-0.00295637
-0.00194809
-0.00212953
-0.00259711
-0.00114645
-0.00308849
-7.20751e-05
-0.00338129
0.0010209
-0.00344368
0.00205092
-0.00325137
0.00293994
-0.0028142
0.00361788
-0.00215572
0.00402814
-0.00131607
0.00413186
-0.000358059
0.00390695
0.000693167
0.00337374
0.00167213
0.00256759
0.00253407
0.00155253
0.00319845
0.000415893
0.00359756
-0.000744018
0.00368471
-0.00181694
0.00342813
-0.00269929
0.002851
-0.00330702
0.00200251
-0.00357484
0.000956215
-0.00347303
-0.000203856
-0.00301887
-0.00132241
-0.00225793
-0.00228345
-0.00127827
-0.00298166
-0.000194254
-0.00332673
0.000857884
-0.00325881
0.00174658
-0.00277742
0.00235918
-0.0019408
0.00261256
-0.000849361
0.00246686
0.000389072
0.00194581
0.00155325
0.00111832
0.00250099
0.000101517
0.00309097
-0.000953496
0.00322044
-0.00187819
0.00282429
-0.00252573
0.00196963
-0.00278209
0.000766258
-0.00259344
-0.000636564
-0.0019782
-0.00196333
-0.00102243
-0.00302043
0.000124405
-0.00361689
0.0012678
-0.00360394
0.00220866
-0.00296537
0.00277617
-0.00178972
0.0028577
-0.000263809
0.00242606
0.00137359
0.00155035
0.00277644
0.000387195
0.00369317
-0.000843866
0.00392134
-0.00189438
0.00336625
-0.00254989
0.00213163
-0.0026711
0.000453245
-0.00222794
-0.00133677
-0.00131556
-0.00282623
-0.00013974
-0.0036746
0.00102318
-0.00366085
0.00188897
-0.00274895
0.00223769
-0.00114353
0.00197243
0.000772836
0.00115463
0.002499
0.00355207
-0.000424227
-0.000144848
-0.000801184
-0.000263472
-0.00114018
-0.00034437
-0.00142101
-0.00046181
-0.00163482
-0.000601944
-0.00176733
-0.000774184
-0.00184879
-0.000922358
-0.00187979
-0.00108198
-0.00194509
-0.00115239
-0.00199085
-0.00127547
-0.00197778
-0.00142412
-0.00185544
-0.00162164
-0.00160784
-0.0018315
-0.0012259
-0.00204927
-0.00070954
-0.00226145
-6.5016e-05
-0.00246153
0.000697017
-0.00264108
0.00156414
-0.00279457
0.00252036
-0.00291467
0.00354456
-0.00299831
0.00461163
-0.00303599
0.00570382
-0.00303377
0.00679479
-0.00297902
0.00786532
-0.00288139
0.00888454
-0.00272306
0.00983951
-0.00252946
0.0106958
-0.00227056
0.0114504
-0.00199144
0.012063
-0.0016425
0.0125272
-0.00127692
0.0128305
-0.00088215
0.0129659
-0.000476426
0.0129402
-7.48315e-05
0.0128069
0.000297755
0.012561
0.000662967
0.0122044
0.00101043
0.0117442
0.00133626
0.0111928
0.00163892
0.0105637
0.00191628
0.00986922
0.00216826
0.00912079
0.00239328
0.00832856
0.00259179
0.00750215
0.00276319
0.00665069
0.00290736
0.00578247
0.00302433
0.00490496
0.00311419
0.00402495
0.00317785
0.00315039
0.00321335
0.00228674
0.00322307
0.00144246
0.00320523
0.000619733
0.00316322
-0.000170839
0.00309275
-0.000927326
0.00299833
-0.0016416
0.00287835
-0.0023074
0.00273385
-0.00292106
0.00256601
-0.0034771
0.00237413
-0.00397042
0.00216217
-0.00439359
0.00192766
-0.00474625
0.00167682
-0.00502477
0.00141062
-0.00522565
0.00113043
-0.0053433
0.00083552
-0.00537886
0.000534126
-0.00533509
0.000231864
-0.00519517
-8.82368e-05
-0.0049779
-0.000395735
-0.00468026
-0.000697283
-0.00430496
-0.000989448
-0.00385564
-0.00126806
-0.00333777
-0.00152903
-0.00275741
-0.00176715
-0.00212278
-0.00197818
-0.00144197
-0.00215914
-0.000725496
-0.00230459
1.67234e-05
-0.00241072
0.000771572
-0.00247523
0.00152688
-0.00249468
0.00226993
-0.0024671
0.00298665
-0.00238963
0.00366369
-0.00226417
0.00428667
-0.00208817
0.00484438
-0.00186527
0.00531996
-0.00159361
0.00570751
-0.00128369
0.00598851
-0.000929876
0.00616261
-0.000551053
0.00621706
-0.000137044
0.00614931
0.000314365
0.00595734
0.000756745
0.00564179
0.00119564
0.00520452
0.00162388
0.00465137
0.00203161
0.00399309
0.00240757
0.00324054
0.00274114
0.00241009
0.00302043
0.00151882
0.00323698
0.000588237
0.00337966
-0.000359002
0.00344237
-0.00129902
0.00341797
-0.00220454
0.00330102
-0.00305315
0.00309536
-0.00381443
0.0027936
-0.00446878
0.00241081
-0.0049946
0.00194611
-0.00536666
0.00140814
-0.00557231
0.00081884
-0.0056029
0.000192798
-0.00545098
-0.000489099
-0.00511913
-0.0011425
-0.00461275
-0.00177067
-0.00394316
-0.0023547
-0.00313035
-0.00287016
-0.00220439
-0.00329156
-0.00119115
-0.00360453
-0.000129252
-0.00378609
0.000936925
-0.00382047
0.00196904
-0.00370485
0.00292419
-0.00343448
0.00375769
-0.0030109
0.00443271
-0.00245078
0.00491455
-0.00176522
0.00517428
-0.000986037
0.00520184
-0.000143308
0.00498015
0.000764552
0.00452004
0.00162429
0.00383419
0.00242858
0.0029549
0.00312992
0.00192029
0.00368956
0.000778647
0.00407263
-0.000405463
0.00424172
-0.00157043
0.00417846
-0.00264997
0.00387816
-0.00357972
0.0033453
-0.00430029
0.00260091
-0.00476112
0.00167713
-0.00492707
0.00062333
-0.00477953
-0.000527679
-0.00432289
-0.00165122
-0.00357559
-0.00269538
-0.00258003
-0.00359268
-0.00139773
-0.00427079
-0.00010587
-0.00467314
0.00120441
-0.00475396
0.00243638
-0.00448334
0.00349916
-0.00387698
0.00430619
-0.00296275
0.00478927
-0.00179915
0.00490191
-0.000470701
0.00462744
0.000967642
0.00398084
0.00231873
0.00300967
0.00350525
0.00178953
0.00441858
0.000426146
0.00496095
-0.00095684
0.0050677
-0.00222958
0.00470088
-0.00327303
0.00389445
-0.00397986
0.00270933
-0.00427754
0.0012539
-0.00412891
-0.000352483
-0.00355587
-0.00189545
-0.00261679
-0.00322253
-0.0014166
-0.00418185
-9.1173e-05
-0.00465216
0.00117396
-0.00452395
0.00224235
-0.0038458
0.00297276
-0.00267122
0.00326238
-0.00113898
0.00307225
0.000579204
0.00242552
0.00219998
0.00140757
0.00351894
0.000162487
0.00433605
-0.00112287
0.00450579
-0.00225055
0.00395198
-0.00303963
0.00275871
-0.0033551
0.00108173
-0.00313362
-0.000858042
-0.00239695
-0.0027
-0.00125096
-0.00416641
0.000125523
-0.00499338
0.00149714
-0.00497556
0.00262401
-0.00409224
0.00330165
-0.00246736
0.00339644
-0.000358594
0.0028779
0.00189213
0.00183011
0.00382423
0.000442365
0.00508092
-0.00102339
0.00538709
-0.00227096
0.00461382
-0.00304308
0.00290374
-0.00317242
0.000582584
-0.00262682
-0.00188237
-0.00152181
-0.00393124
-0.000105211
-0.0050912
0.00128884
-0.00505491
0.00232183
-0.00378194
0.00273016
-0.00155186
0.0023986
0.0011044
0.00140178
0.00349582
0.00495385
-0.00153545
0.0013906
-0.00302551
0.00122659
-0.00438422
0.00101435
-0.00552016
0.000674125
-0.00634565
0.000223554
-0.00671466
-0.00040518
-0.00668179
-0.000955226
-0.00628541
-0.00147836
-0.00578352
-0.00165428
-0.0050521
-0.00200689
-0.00420287
-0.00227335
-0.00326534
-0.00255917
-0.00223959
-0.00285725
-0.0011082
-0.00318066
0.000143795
-0.00351345
0.00152676
-0.00384449
0.00304042
-0.00415474
0.00467619
-0.00443034
0.00641328
-0.00465175
0.00823253
-0.00481756
0.0101028
-0.00490628
0.0119909
-0.00492182
0.0138433
-0.00483144
0.0156319
-0.00467003
0.0172845
-0.00437561
0.0187881
-0.00403308
0.0200334
-0.00351583
0.0210903
-0.00304836
0.0217429
-0.00229509
0.0220924
-0.00162644
0.0221019
-0.000891693
0.021848
-0.00022245
0.0213794
0.000393741
0.0207053
0.000971821
0.0198629
0.00150535
0.0188843
0.00198904
0.0177983
0.00242232
0.0166302
0.00280702
0.015402
0.00314449
0.0141319
0.0034383
0.0128362
0.003689
0.0115274
0.00390058
0.0102168
0.00407379
0.00891372
0.00421044
0.00762506
0.00431298
0.00635969
0.00437955
0.00512271
0.00441484
0.00391909
0.00441697
0.00275436
0.0043878
0.00163406
0.00432553
0.000563421
0.00423386
-0.000453503
0.00410967
-0.00141126
0.00395609
-0.0023047
0.00377179
-0.00312939
0.00355854
-0.00388069
0.00331731
-0.00455368
0.00304712
-0.00514442
0.0027529
-0.00564926
0.0024325
-0.006064
0.00209155
-0.00638327
0.00172989
-0.00660466
0.00135182
-0.00672896
0.000959827
-0.00675235
0.00055751
-0.00666918
0.000148697
-0.00649478
-0.000262641
-0.00622077
-0.000669741
-0.0058496
-0.00106845
-0.00538559
-0.00145346
-0.00483487
-0.00181878
-0.0042028
-0.00216111
-0.00349784
-0.00247211
-0.00273049
-0.00274553
-0.00190981
-0.00297982
-0.00104762
-0.00316678
-0.000158729
-0.00329961
0.000745023
-0.00337898
0.00164802
-0.00339767
0.00253349
-0.00335257
0.00338782
-0.00324396
0.0041929
-0.00306925
0.00493287
-0.00282814
0.00559375
-0.00252615
0.00615848
-0.00215834
0.00661533
-0.00174055
0.00695216
-0.0012667
0.00715202
-0.000750919
0.00722224
-0.00020726
0.00714209
0.000394513
0.00691666
0.000982171
0.00654466
0.00156764
0.00602958
0.00213896
0.00537882
0.00268238
0.00460296
0.00318343
0.00371887
0.00362522
0.00274304
0.00399626
0.00169659
0.00428344
0.000604526
0.00447172
-0.000506292
0.00455319
-0.00160773
0.00451941
-0.00266759
0.00436087
-0.00365777
0.00408555
-0.00454752
0.00368335
-0.00530659
0.00316988
-0.00591382
0.00255335
-0.00634542
0.00183974
-0.00657896
0.00105238
-0.00659884
0.000212679
-0.0064153
-0.000672643
-0.00601689
-0.00154091
-0.00541295
-0.00237462
-0.00461875
-0.0031489
-0.00365724
-0.00383168
-0.00256006
-0.00438873
-0.00136702
-0.00479757
-0.00011903
-0.00503407
0.00113931
-0.00507881
0.00235207
-0.00491761
0.0034703
-0.00455271
0.00444864
-0.00398924
0.00523356
-0.0032357
0.00579509
-0.00232674
0.00609161
-0.00128255
0.00611444
-0.000166143
0.00584826
0.00103073
0.00529997
0.00217258
0.00448931
0.00323924
0.0034517
0.00416753
0.00222999
0.00491127
0.000885188
0.00541744
-0.000508118
0.00563503
-0.00187705
0.00554739
-0.00314421
0.00514532
-0.00423349
0.00443457
-0.00507653
0.00344395
-0.00561084
0.00221145
-0.00580104
0.000813525
-0.0056254
-0.000703324
-0.0050855
-0.00219112
-0.00420608
-0.0035748
-0.00303678
-0.00476197
-0.00164993
-0.00565764
-0.000137194
-0.00618588
0.00139623
-0.00628739
0.0028373
-0.00592441
0.004078
-0.00511768
0.00501525
-0.0039
0.00557141
-0.0023553
0.00569028
-0.000589569
0.00536371
0.0012942
0.00460134
0.0030811
0.00345791
0.00464867
0.00203102
0.00584548
0.000439102
0.00655287
-0.00117936
0.00668616
-0.00266435
0.00618587
-0.00386995
0.00510005
-0.00467647
0.00351585
-0.00500082
0.00157824
-0.00480585
-0.000547447
-0.0041105
-0.00259079
-0.00298498
-0.00434805
-0.00155957
-0.00560726
-8.52855e-07
-0.00621088
0.00150318
-0.00602798
0.00275915
-0.00510177
0.0036061
-0.00351817
0.00393581
-0.00146869
0.0036949
0.000820114
0.00291453
0.00298036
0.00169999
0.00473347
0.000221361
0.00581468
-0.00130635
0.00603351
-0.00264023
0.00528586
-0.00357307
0.00369154
-0.00394737
0.00145603
-0.00369091
-0.0011145
-0.0028272
-0.00356372
-0.00148275
-0.00551086
0.000129115
-0.00660524
0.00173416
-0.00658061
0.00305161
-0.00540968
0.00384063
-0.00325638
0.00394867
-0.000466632
0.00334083
0.00249996
0.0021151
0.00504997
0.000493361
0.00670266
-0.00121398
0.00709443
-0.0026606
0.00606044
-0.00354832
0.00379146
-0.00368593
0.000720196
-0.00303454
-0.00253376
-0.00173095
-0.00523483
-6.5138e-05
-0.00675701
0.00156351
-0.00668355
0.00276703
-0.00498546
0.00323591
-0.00202074
0.00283604
0.00150427
0.00165581
0.00467605
0.00660967
-0.0029098
0.00430041
-0.00569277
0.00400955
-0.00809138
0.00341296
-0.00979616
0.0023789
-0.0104944
0.0009218
-0.00996696
-0.000932621
-0.00852014
-0.00240205
-0.0069194
-0.0030791
-0.00718027
-0.00139341
-0.0084639
-0.000723253
-0.00976139
-0.000975867
-0.0105312
-0.00178935
-0.0106153
-0.00277313
-0.0100389
-0.00375706
-0.00888834
-0.00466404
-0.00726894
-0.00546389
-0.00529756
-0.00612611
-0.0030428
-0.0066851
-0.000560914
-0.00713364
0.00207469
-0.00745317
0.00478385
-0.00761544
0.00754166
-0.00767963
0.0102594
-0.00754923
0.0128886
-0.00729913
0.0153332
-0.00682022
0.0175945
-0.00629441
0.0195508
-0.00547214
0.0212993
-0.0047969
0.0223374
-0.00333313
0.0227612
-0.00205028
0.0226291
-0.000759518
0.0221014
0.000305183
0.0212646
0.00123057
0.0202167
0.00201975
0.0190279
0.00269412
0.017745
0.00327191
0.0164051
0.00376225
0.015031
0.00418113
0.0136429
0.00453261
0.0122529
0.0048283
0.0108705
0.00507135
0.00950266
0.00526845
0.00815614
0.00542031
0.00683291
0.00553368
0.00554086
0.00560503
0.00427706
0.00564335
0.00304949
0.00564242
0.00185886
0.00560759
0.000711223
0.00553544
-0.000394194
0.00543095
-0.00144778
0.00528744
-0.00244741
0.0051093
-0.00338828
0.00489695
-0.00426526
0.00464877
-0.00507202
0.00436531
-0.0058043
0.00404959
-0.00645898
0.0037018
-0.00702428
0.00331819
-0.00750238
0.0029106
-0.00788187
0.00247105
-0.00816088
0.0020089
-0.00833619
0.00152713
-0.00840463
0.00102826
-0.00836473
0.000517618
-0.00821323
-2.81064e-06