/*--------------------------------*- C++ -*----------------------------------*\
  =========                 |
  \\      /  F ield         | OpenFOAM: The Open Source CFD Toolbox
   \\    /   O peration     | Website:  https://openfoam.org
    \\  /    A nd           | Version:  12
     \\/     M anipulation  |
\*---------------------------------------------------------------------------*/
FoamFile
{
    format      ascii;
    class       surfaceScalarField;
    location    "18.48";
    object      phi;
}
// * * * * * * * * * * * * * * * * * * * * * * * * * * * * * * * * * * * * * //

dimensions      [1 0 -1 0 0 0 0];

internalField   nonuniform List<scalar> 
7429
(
-3.7495e-05
3.74945e-05
-7.19878e-05
3.44924e-05
-0.000108236
3.62479e-05
-0.000147336
3.90994e-05
-0.000190107
4.27702e-05
-0.000237427
4.73196e-05
-0.000290129
5.27015e-05
-0.000348976
5.88454e-05
-0.000414723
6.57465e-05
-0.000488107
7.33833e-05
-0.000569918
8.18103e-05
-0.000660787
9.08686e-05
-0.000761294
0.000100506
-0.000871833
0.000110539
-0.000992694
0.000120861
-0.00112402
0.000131327
-0.0012658
0.000141776
-0.00141786
0.000152066
-0.00157989
0.000162026
-0.00175137
0.000171479
-0.00193162
0.000180248
-0.00211981
0.000188189
-0.00231493
0.000195119
-0.00251586
0.000200935
-0.00272141
0.000205545
-0.00293022
0.00020881
-0.00314099
0.00021077
-0.00335234
0.000211355
-0.00356293
0.000210582
-0.00377135
0.000208423
-0.0039763
0.000204954
-0.00417639
0.000200086
-0.00437024
0.00019385
-0.00455642
0.000186182
-0.00473358
0.000177151
-0.00490021
0.000166635
-0.00505483
0.000154621
-0.00519593
0.000141099
-0.00532204
0.000126106
-0.00543175
0.00010971
-0.00552364
9.18961e-05
-0.00559644
7.27964e-05
-0.00564899
5.25452e-05
-0.00568046
3.14713e-05
-0.0056902
9.74284e-06
-0.00566843
-2.1765e-05
-0.00561766
-5.07743e-05
-0.00553794
-7.97236e-05
-0.00542918
-0.000108758
-0.00529145
-0.000137725
-0.00512495
-0.000166507
-0.00493024
-0.000194701
-0.00470792
-0.00022232
-0.00445902
-0.000248901
-0.00418457
-0.000274449
-0.00388619
-0.000298379
-0.00356541
-0.000320786
-0.00322416
-0.000341246
-0.00286449
-0.000359676
-0.00248888
-0.000375605
-0.00210008
-0.000388806
-0.00170131
-0.000398763
-0.00129607
-0.000405242
-0.000888446
-0.000407624
-0.000482338
-0.000406109
-8.21868e-05
-0.000400151
0.000307596
-0.000389783
0.000682086
-0.000374489
0.00103662
-0.00035453
0.00136633
-0.00032971
0.00166669
-0.000300367
0.00193318
-0.000266483
0.00216132
-0.000228145
0.00234767
-0.000186347
0.00248846
-0.000140794
0.0025808
-9.23399e-05
0.00262314
-4.23392e-05
0.00260904
1.41038e-05
0.0025371
7.19362e-05
0.00240958
0.000127521
0.00222864
0.000180938
0.00199654
0.000232103
0.0017168
0.000279738
0.00139298
0.000323818
0.00103017
0.000362814
0.000634273
0.000395896
0.000212082
0.000422192
-0.000228212
0.000440294
-0.000678215
0.000450003
-0.00112839
0.000450174
-0.00156899
0.000440604
-0.00198971
0.000420715
-0.00238037
0.000390662
-0.00273103
0.000350665
-0.00303208
0.000301046
-0.00327473
0.00024265
-0.00345137
0.000176644
-0.00355625
0.000104873
-0.00358478
2.8532e-05
-0.00352294
-6.18415e-05
-0.00337615
-0.000146791
-0.00314805
-0.000228093
-0.00284344
-0.000304618
-0.00246837
-0.000375068
-0.00203087
-0.000437497
-0.00154164
-0.000489229
-0.00101362
-0.000528026
-0.000461564
-0.000552053
9.79165e-05
-0.00055948
0.000647375
-0.000549458
0.00116866
-0.000521283
0.00164385
-0.000475195
0.0020558
-0.000411951
0.00238854
-0.000332734
0.0026292
-0.000240665
0.00276716
-0.000137962
0.00279679
-2.96295e-05
0.00270138
9.5411e-05
0.00249153
0.000209856
0.00217664
0.00031489
0.00176789
0.000408752
0.0012805
0.000487383
0.000734395
0.000546108
0.000153342
0.000581052
-0.000437134
0.000590476
-0.00100721
0.000570075
-0.00152904
0.000521831
-0.00197462
0.000445582
-0.00231967
0.000345051
-0.00254331
0.000223638
-0.00263141
8.81028e-05
-0.00256529
-6.61215e-05
-0.00234846
-0.000216831
-0.00199406
-0.000354397
-0.00151919
-0.000474872
-0.000948192
-0.000571001
-0.000310922
-0.00063727
0.000355175
-0.000666097
0.00100813
-0.000652952
0.0016066
-0.000598471
0.00211003
-0.00050343
0.00248366
-0.000373634
0.0027004
-0.000216735
0.00274393
-4.35304e-05
0.00259105
0.000152875
0.00226287
0.000328185
0.00178356
0.000479307
0.00118523
0.00059833
0.000512511
0.000672718
-0.000182943
0.000695454
-0.00084334
0.000660397
-0.00141371
0.000570371
-0.00184558
0.000431869
-0.00210143
0.000255852
-0.00216082
5.93925e-05
-0.00200165
-0.000159173
-0.0016544
-0.000347252
-0.00115498
-0.000499416
-0.000552987
-0.000601997
8.74845e-05
-0.000640471
0.000694863
-0.000607379
0.00120154
-0.000506675
0.00155006
-0.000348526
0.00170045
-0.00015039
0.00162288
7.75745e-05
0.0013314
0.000291484
0.000865913
0.000465484
0.000282224
0.000583689
-0.000346183
0.000628407
-0.000933868
0.000587685
-0.00140346
0.00046959
-0.00169192
0.000288463
-0.00176265
7.07317e-05
-0.00159095
-0.000171701
-0.00121659
-0.000374363
-0.000695382
-0.000521207
-0.000104188
-0.000591195
0.000465459
-0.000569647
0.00092607
-0.000460611
0.00121065
-0.000284578
0.00128207
-7.14227e-05
0.00112158
0.000160488
0.000777696
0.000343887
0.000313195
0.000464501
-0.000189917
0.000503112
-0.000638729
0.000448812
-0.000960475
0.000321746
-0.00110788
0.000147408
-0.00105809
-4.97943e-05
-0.000838896
-0.000219193
-0.000504216
-0.00033468
-0.000118937
-0.000385279
0.000245157
-0.000364094
0.000529283
-0.000284126
0.000699662
-0.00017038
0.000744505
-4.4843e-05
0.00066657
7.79355e-05
0.000498068
0.000168502
0.000265851
0.000232216
0.000265851
0.000108419
-7.09255e-05
0.000230877
-8.79666e-05
0.000353113
-8.59886e-05
0.000473707
-8.14957e-05
0.000591314
-7.48374e-05
0.000704575
-6.59423e-05
0.000811931
-5.46554e-05
0.000911989
-4.12139e-05
0.00100343
-2.56924e-05
0.00108569
-8.88078e-06
0.00114657
2.09325e-05
0.00118852
4.8911e-05
0.00121081
7.82188e-05
0.0012127
0.000108644
0.00119362
0.000139942
0.00115328
0.000171672
0.00109164
0.000203412
0.00100897
0.000234737
0.000905761
0.000265231
0.000782756
0.000294484
0.000640814
0.000322189
0.000481056
0.000347946
0.000304631
0.000371544
0.000112972
0.000392593
-9.26314e-05
0.000411148
-0.000310436
0.000426615
-0.000539044
0.000439377
-0.000776439
0.000448749
-0.001021
0.000455137
-0.00127069
0.000458117
-0.00152365
0.000457916
-0.00177771
0.000454147
-0.00203081
0.000446947
-0.00228077
0.000436139
-0.00252534
0.000421719
-0.00276232
0.000403622
-0.00298981
0.000382106
-0.00320653
0.000357819
-0.00341202
0.000331594
-0.00360357
0.000301268
-0.00378002
0.000268347
-0.0039377
0.000230469
-0.00407438
0.000189224
-0.00418783
0.000144924
-0.00427437
9.62821e-05
-0.00434094
4.48063e-05
-0.00437801
-1.37037e-05
-0.00438427
-7.34692e-05
-0.00435869
-0.000134334
-0.00430028
-0.000196132
-0.00420866
-0.000258132
-0.00408359
-0.000319768
-0.00392533
-0.000380579
-0.00373454
-0.000439692
-0.00351213
-0.000496863
-0.00325905
-0.000551458
-0.00297718
-0.000602656
-0.00266823
-0.000650193
-0.00233495
-0.000692951
-0.00197998
-0.000730584
-0.00160699
-0.000761794
-0.00121947
-0.000786279
-0.00082157
-0.000803142
-0.000417678
-0.000811516
-1.23666e-05
-0.00081142
0.000389117
-0.000801634
0.000781683
-0.000782349
0.00116007
-0.000752879
0.00151873
-0.00071319
0.00185244
-0.000663415
0.00215591
-0.000603838
0.00242416
-0.000534731
0.00265202
-0.000456003
0.00283546
-0.00036979
0.00297036
-0.000275691
0.00305442
-0.000176407
0.00308436
-7.22758e-05
0.00305194
4.65268e-05
0.00295954
0.00016433
0.00280905
0.000278015
0.0026012
0.000388789
0.00233909
0.000494209
0.00202498
0.00059385
0.00166388
0.000684916
0.00126037
0.000766327
0.000821122
0.000835145
0.000354098
0.000889216
-0.000132369
0.000926761
-0.000628615
0.000946249
-0.00112444
0.000946
-0.00160919
0.000925356
-0.00207154
0.000883064
-0.00250049
0.000819614
-0.00288523
0.000735401
-0.00321527
0.000631085
-0.00348086
0.000508243
-0.00367378
0.000369557
-0.00378765
0.000218752
-0.003817
5.78827e-05
-0.00375026
-0.000128589
-0.00359278
-0.000304265
-0.00334711
-0.000473766
-0.00301767
-0.000634058
-0.00261063
-0.000782105
-0.0021352
-0.000912928
-0.00160372
-0.00102072
-0.00102981
-0.00110193
-0.000430141
-0.00115172
0.000177347
-0.00116697
0.000773108
-0.00114522
0.00133775
-0.00108592
0.00185113
-0.000988577
0.00229427
-0.000855091
0.0026512
-0.000689664
0.0029062
-0.000495661
0.00304964
-0.000281408
0.00307096
-5.09431e-05
0.00296152
0.000204847
0.00272845
0.000442925
0.00238099
0.00066235
0.00193003
0.000859712
0.00139388
0.00102353
0.000793624
0.00114636
0.000155439
0.00121924
-0.000490735
0.00123665
-0.00111423
0.00119357
-0.00168412
0.00109172
-0.00217054
0.000932007
-0.00254589
0.000720397
-0.00278803
0.000465783
-0.00288074
0.00018081
-0.00280733
-0.000139525
-0.00257285
-0.000451313
-0.00218866
-0.000738592
-0.00167183
-0.000991702
-0.00104943
-0.0011934
-0.000356004
-0.00133069
0.000367396
-0.0013895
0.00107608
-0.00136164
0.00172386
-0.00124625
0.00226785
-0.00104742
0.0026688
-0.000774588
0.00289726
-0.000445191
0.0029364
-8.26716e-05
0.00276689
0.000322386
0.00240868
0.000686393
0.00188561
0.00100238
0.00123405
0.00124989
0.000501765
0.00140501
-0.000252053
0.00144927
-0.000965058
0.0013734
-0.00157844
0.00118375
-0.00203878
0.000892215
-0.00230543
0.000522494
-0.00235397
0.000107931
-0.00217016
-0.000342979
-0.00178198
-0.000735428
-0.00122763
-0.00105377
-0.000563823
-0.0012658
0.0001397
-0.00134399
0.000804043
-0.00127172
0.00135578
-0.00105841
0.00173145
-0.0007242
0.00188737
-0.000306307
0.00179553
0.00016942
0.00147337
0.000613644
0.000960544
0.000978305
0.0003203
0.00122393
-0.000366245
0.00131495
-0.00100533
0.00122677
-0.00151196
0.000976221
-0.00181878
0.000595287
-0.00188522
0.00013717
-0.00169236
-0.000364564
-0.00128033
-0.000786396
-0.000709802
-0.00109173
-6.50573e-05
-0.00123594
0.000546003
-0.00118071
0.00103592
-0.000950532
0.00133141
-0.00058006
0.0013924
-0.000132412
0.00120933
0.000343553
0.00082966
0.000723557
0.000322909
0.000971251
-0.000218457
0.00104448
-0.000694909
0.000925264
-0.00102881
0.000655646
-0.00117249
0.000291089
-0.00110529
-0.000117
-0.000862418
-0.00046206
-0.000499917
-0.000697181
-9.12625e-05
-0.000793933
0.000284592
-0.000739948
0.000569768
-0.000569302
0.000732966
-0.000333577
0.000763984
-7.58618e-05
0.000675605
0.000166315
0.000499208
0.000344899
0.000264497
0.000466927
0.000530348
7.78039e-05
-0.00014873
0.000161527
-0.000171691
0.000237875
-0.000162338
0.00030232
-0.000145941
0.000349365
-0.000121884
0.000374431
-9.10093e-05
0.000370584
-5.08093e-05
0.000334026
-4.65654e-06
0.000275913
3.2419e-05
0.000190095
7.69359e-05
8.44072e-05
0.00012662
-4.52062e-05
0.000178523
-0.000199644
0.000232656
-0.000378402
0.000287402
-0.000580789
0.000342327
-0.000805166
0.000396048
-0.00105002
0.000448261
-0.00131268
0.000497397
-0.00159142
0.000543973
-0.00188298
0.000586047
-0.00218445
0.000623657
-0.00249225
0.000655742
-0.00280332
0.000682616
-0.00311401
0.000703279
-0.00342168
0.000718817
-0.00372323
0.000728171
-0.00401718
0.000733318
-0.00430143
0.000732999
-0.00457613
0.000729845
-0.00484058
0.000722566
-0.00509488
0.000712207
-0.00533863
0.000697903
-0.00557177
0.000680082
-0.00579354
0.000657908
-0.00600323
0.000631413
-0.00619957
0.00059996
-0.00638102
0.000563554
-0.00654522
0.000522021
-0.00668889
0.000475264
-0.0068109
0.000423274
-0.00690853
0.000365981
-0.0069818
0.000303737
-0.00702928
0.000236701
-0.00704921
0.000164853
-0.00704249
8.95637e-05
-0.00699731
-3.75139e-07
-0.00690931
-0.000101699
-0.00678374
-0.000199041
-0.00662204
-0.000296034
-0.00642483
-0.000393339
-0.00619272
-0.000490237
-0.00592648
-0.00058601
-0.00562693
-0.000680132
-0.00529443
-0.000772196
-0.00493049
-0.000860793
-0.00453639
-0.000945558
-0.00411431
-0.00102474
-0.00366561
-0.00109889
-0.00319401
-0.00116455
-0.00270202
-0.00122257
-0.0021939
-0.00126991
-0.00167394
-0.00130624
-0.00114683
-0.00133025
-0.000617659
-0.00134069
-9.18954e-05
-0.00133718
0.00042483
-0.00131836
0.000926734
-0.00128425
0.00140758
-0.00123373
0.00186132
-0.00116693
0.00228144
-0.00108354
0.00266209
-0.000984478
0.00299742
-0.000870065
0.00328186
-0.000740444
0.00351011
-0.000598037
0.00367835
-0.000443938
0.00378161
-0.000279665
0.00381672
-0.000107383
0.00377957
8.36758e-05
0.00367175
0.000272154
0.0034934
0.000456359
0.00324596
0.000636237
0.00293185
0.000808317
0.00255468
0.000971014
0.00211949
0.00112011
0.00163362
0.0012522
0.00110472
0.00136405
0.000542385
0.00145155
-4.28327e-05
0.00151198
-0.00063975
0.00154317
-0.00123575
0.001542
-0.00181772
0.00150733
-0.00237253
0.00143787
-0.0028866
0.00133369
-0.00334743
0.00119623
-0.00374183
0.00102548
-0.00405847
0.000824878
-0.00428724
0.000598334
-0.00442105
0.000352557
-0.0044524
8.92374e-05
-0.00437156
-0.000209436
-0.00418334
-0.000492485
-0.00388994
-0.000767166
-0.0034961
-0.00102789
-0.00300952
-0.00126869
-0.00244143
-0.00148102
-0.00180638
-0.00165577
-0.00112209
-0.00178622
-0.00040737
-0.00186644
0.000315273
-0.00188961
0.00102272
-0.00185267
0.0016917
-0.0017549
0.00229848
-0.00159535
0.00282179
-0.0013784
0.0032395
-0.00110737
0.00353354
-0.000789703
0.00369084
-0.000438705
0.00370697
-6.70785e-05
0.00356579
0.000346028
0.00327928
0.000729438
0.00285494
0.00108669
0.00230762
0.00140704
0.00165831
0.00167283
0.000933673
0.001871
0.000163997
0.00198891
-0.000613352
0.002014
-0.00136248
0.0019427
-0.00204536
0.00177459
-0.00262712
0.00151377
-0.00307389
0.00116717
-0.00336012
0.000752012
-0.00346724
0.00028793
-0.00337613
-0.000230637
-0.00309526
-0.00073218
-0.00263458
-0.00119927
-0.00201622
-0.00161006
-0.00127165
-0.00193797
-0.00044379
-0.00215855
0.000418464
-0.00225175
0.00126157
-0.00220474
0.00203001
-0.0020147
0.00267272
-0.00169013
0.00314402
-0.00124589
0.00340858
-0.000709749
0.00344196
-0.000116051
0.00323309
0.000531253
0.00279981
0.00111968
0.00216974
0.00163244
0.00138886
0.00203077
0.000515499
0.00227837
-0.000380851
0.00234562
-0.00122592
0.00221847
-0.00194739
0.00190523
-0.00248131
0.00142613
-0.00277925
0.000820435
-0.00281626
0.000144946
-0.00257906
-0.000580178
-0.00209826
-0.00121623
-0.00141982
-0.00173221
-0.000614039
-0.00207158
0.000236666
-0.0021947
0.00103484
-0.0020699
0.00169142
-0.00171499
0.00213265
-0.00116542
0.00230688
-0.000480537
0.00218521
0.000291089
0.0017895
0.00100935
0.00116606
0.00160175
0.000392777
0.00199721
-0.000430844
0.00213857
-0.00119175
0.00198768
-0.00178996
0.00157442
-0.00214335
0.00094868
-0.00220525
0.000199068
-0.00196474
-0.000605069
-0.00146429
-0.00128685
-0.000778426
-0.00177759
-1.14787e-05
-0.00200289
0.000708949
-0.00190113
0.00127744
-0.00151902
0.00160909
-0.000911715
0.00165927
-0.000182589
0.00142337
0.000579456
0.000959191
0.00118773
0.000353474
0.00157697
-0.000284633
0.00168259
-0.000834817
0.00147545
-0.00120772
0.00102855
-0.00135046
0.000433828
-0.00125093
-0.000216532
-0.000951983
-0.000761003
-0.000522045
-0.00112712
-4.59344e-05
-0.00127004
0.000367901
-0.00115378
0.000670315
-0.000871715
0.000829142
-0.000492405
0.00084139
-8.81093e-05
0.000728518
0.000279187
0.000528633
0.000544784
0.00027656
0.000719001
0.000806908
0.000334308
-0.00048304
0.000690881
-0.000528265
0.00105363
-0.000525082
0.00142221
-0.000514532
0.00179455
-0.000494221
0.00217163
-0.000468088
0.00254841
-0.000427594
0.00292422
-0.000380467
0.00327207
-0.000315429
0.00358742
-0.000238416
0.00385745
-0.00014341
0.00408184
-4.58666e-05
0.00422963
8.48644e-05
0.004308
0.000209031
0.00432021
0.000330116
0.0042706
0.000445659
0.00416373
0.000555125
0.00400473
0.000656402
0.00379827
0.000750428
0.00355224
0.000832072
0.00327191
0.000903992
0.00296245
0.000965202
0.00262673
0.00101833
0.00227076
0.00105925
0.00189541
0.00109416
0.0015077
0.00111588
0.00110579
0.00113522
0.00069764
0.00114115
0.000277639
0.00114985
-0.000146062
0.00114627
-0.000575191
0.00114134
-0.00100437
0.00112708
-0.00143157
0.00110728
-0.00185222
0.00107856
-0.00226367
0.00104286
-0.00266589
0.00100217
-0.00305732
0.000954989
-0.00343691
0.000901613
-0.00380034
0.000838689
-0.00414329
0.000766227
-0.00445997
0.000682655
-0.00474565
0.000589421
-0.00499615
0.000487199
-0.00520784
0.000376544
-0.00537511
0.000256834
-0.00550289
0.000127401
-0.00559261
-1.19734e-05
-0.00563529
-0.000156362
-0.0056282
-0.000303121
-0.00556998
-0.000451562
-0.00546005
-0.000600167
-0.005298
-0.000748064
-0.00508387
-0.000894258
-0.00481909
-0.00103698
-0.00450475
-0.00117513
-0.00414261
-0.0013077
-0.00373616
-0.0014312
-0.00328911
-0.00154594
-0.00280573
-0.00164793
-0.00228978
-0.00173853
-0.00174719
-0.0018125
-0.00118341
-0.00187002
-0.000604798
-0.00190886
-1.81682e-05
-0.00192732
0.000569435
-0.00192479
0.00115058
-0.00189951
0.00171731
-0.00185098
0.00226219
-0.0017786
0.00277689
-0.00168164
0.00325351
-0.00156016
0.00368508
-0.00141604
0.00406255
-0.00124754
0.00438109
-0.00105898
0.00463348
-0.000850429
0.00481251
-0.000622962
0.00491443
-0.000381594
0.00493843
-0.000131376
0.0048711
0.000151008
0.00471997
0.000423276
0.00448477
0.000691557
0.00416682
0.000954187
0.00376841
0.00120673
0.00329457
0.00144486
0.00275124
0.00166343
0.00214717
0.00185627
0.00149144
0.00201978
0.000796392
0.0021466
7.49734e-05
0.0022334
-0.000660286
0.00227843
-0.00139299
0.00227471
-0.00210722
0.00222155
-0.00278718
0.00211783
-0.00341685
0.00196336
-0.00398023
0.00175961
-0.00446162
0.00150687
-0.00484696
0.00121022
-0.00512415
0.000875522
-0.00528439
0.000512799
-0.00531822
0.00012307
-0.00521845
-0.000309205
-0.00498854
-0.000722401
-0.00463006
-0.00112564
-0.00414887
-0.00150908
-0.00355481
-0.00186275
-0.00286221
-0.00217362
-0.00208844
-0.00242953
-0.00125515
-0.00261951
-0.000386754
-0.00273484
0.000490884
-0.00276725
0.00134939
-0.00271118
0.00215929
-0.0025648
0.00289209
-0.00232815
0.00351847
-0.00200479
0.00401691
-0.00160582
0.00436554
-0.00113833
0.00454821
-0.00062138
0.00455038
-6.92412e-05
0.0043674
0.000529007
0.0040084
0.00108844
0.00348109
0.001614
0.00280466
0.00208346
0.00200439
0.0024731
0.00111384
0.00276156
0.000171487
0.00293126
-0.000781199
0.00296669
-0.00169685
0.00285835
-0.00252983
0.00260758
-0.00323629
0.00222022
-0.0037789
0.00170978
-0.00412297
0.00109608
-0.00424853
0.000413485
-0.00413334
-0.00034582
-0.00378716
-0.00107836
-0.00322282
-0.00176361
-0.00246662
-0.00236627
-0.00155879
-0.0028458
-0.000550704
-0.00316664
0.000498233
-0.00330069
0.00152068
-0.00322718
0.00245017
-0.00294419
0.00322419
-0.00246415
0.00378737
-0.00180907
0.00409762
-0.00102
0.00412209
-0.000140518
0.00386048
0.000792867
0.00332672
0.00165343
0.00255512
0.00240405
0.00160001
0.00298588
0.00053788
0.0033405
-0.000549934
0.00343344
-0.00157029
0.00323883
-0.00243466
0.00276959
-0.00306813
0.00205961
-0.00341356
0.00116586
-0.00343227
0.000163656
-0.00312436
-0.00088809
-0.00251885
-0.00182174
-0.00167502
-0.00257604
-0.000678259
-0.00306834
0.000365167
-0.00323813
0.00133838
-0.00304311
0.00213612
-0.00251273
0.00266431
-0.00169361
0.0028625
-0.000678727
0.00269933
0.000454264
0.00220292
0.00150575
0.00143004
0.00237463
0.000479096
0.00294816
-0.000527598
0.00314527
-0.00145184
0.00291192
-0.00216885
0.00229143
-0.00258423
0.00136406
-0.00264278
0.000257622
-0.00233338
-0.000914466
-0.00171186
-0.00190838
-0.000871863
-0.00261759
5.63291e-05
-0.00293108
0.000925163
-0.00276997
0.00159924
-0.0021931
0.00197728
-0.00128975
0.00200839
-0.000213701
0.0017041
0.000883754
0.00112678
0.00176505
0.000387662
0.00231608
-0.000377509
0.00244776
-0.00102554
0.00212348
-0.00145015
0.00145316
-0.00159333
0.000577012
-0.00144825
-0.000361618
-0.00107211
-0.00113714
-0.000553106
-0.00164612
3.79438e-07
-0.00182353
0.000475643
-0.00162905
0.000804821
-0.00120089
0.000957716
-0.0006453
0.000942501
-7.28944e-05
0.000796558
0.00042513
0.000566699
0.000774643
0.00029165
0.000994051
0.00109856
0.00064649
-0.00112953
0.00132639
-0.00120817
0.0020012
-0.00119989
0.0026622
-0.00117553
0.00329032
-0.00112234
0.00387117
-0.00104894
0.00434872
-0.000905138
0.00469929
-0.000731036
0.00483427
-0.000450414
0.00477819
-0.000182339
0.0045675
6.7281e-05
0.00422516
0.00029647
0.00379433
0.000515691
0.00328993
0.000713432
0.00272596
0.000894092
0.00211681
0.0010548
0.00147627
0.00119567
0.000815276
0.00131739
0.000145473
0.00142023
-0.000524509
0.00150205
-0.00118823
0.00156772
-0.00183049
0.00160745
-0.00244389
0.00163174
-0.0030144
0.00162976
-0.00354094
0.0016207
-0.00400575
0.00158069
-0.00441921
0.00154868
-0.00477035
0.0014923
-0.00509641
0.0014759
-0.00540251
0.00145237
-0.00570446
0.00144328
-0.00600561
0.00142824
-0.00630841
0.00141008
-0.00661214
0.00138228
-0.00691396
0.00134469
-0.00720742
0.00129563
-0.00748673
0.0012343
-0.00774562
0.0011605
-0.00798031
0.00107338
-0.00818728
0.000973203
-0.00836427
0.00085964
-0.00850747
0.000732625
-0.00861405
0.000593773
-0.00868078
0.000443282
-0.00870894
0.000284994
-0.00869407
0.00011253
-0.00861024
-9.58058e-05
-0.00847189
-0.00029471
-0.00828272
-0.000492293
-0.00804328
-0.000691001
-0.00775366
-0.000889791
-0.0074134
-0.00108832
-0.00702189
-0.00128576
-0.00658125
-0.00147762
-0.0060921
-0.00166428
-0.00555606
-0.00184373
-0.00497572
-0.00201154
-0.00435504
-0.00216662
-0.00369841
-0.00230457
-0.0030114
-0.00242554
-0.00229903
-0.00252487
-0.00156846
-0.00260059
-0.000826613
-0.00265071
-8.11226e-05
-0.00267281
0.000660141
-0.00266605
0.00138889
-0.00262826
0.00209607
-0.00255816
0.00277285
-0.00245537
0.00340998
-0.00231877
0.00399819
-0.00214836
0.00452752
-0.00194538
0.00499113
-0.00171115
0.00537939
-0.00144725
0.00568475
-0.00115579
0.00590142
-0.000839633
0.00602607
-0.000506241
0.00604724
-0.000152552
0.00596732
0.000230935
0.00578518
0.000605409
0.00550044
0.000976298
0.00511442
0.00134021
0.00463073
0.00169043
0.00405561
0.00201997
0.00339743
0.00232162
0.00266578
0.00258791
0.00187272
0.00281284
0.00103249
0.00298684
0.000160029
0.00310585
-0.000726061
0.00316452
-0.00160863
0.00315727
-0.00246872
0.00308164
-0.00328676
0.00293588
-0.00404354
0.00272014
-0.00471925
0.00243532
-0.00529552
0.00208314
-0.00575537
0.00167006
-0.00608549
0.00120565
-0.006274
0.000701308
-0.00630592
0.000154986
-0.00618395
-0.000431175
-0.00590472
-0.00100163
-0.00547094
-0.00155942
-0.0048894
-0.00209062
-0.00417248
-0.00257968
-0.00333768
-0.00300842
-0.00240609
-0.00336112
-0.00140476
-0.00362084
-0.000362496
-0.0037771
0.000689899
-0.00381964
0.00171827
-0.00373955
0.0026851
-0.00353163
0.00355761
-0.00320066
0.00430642
-0.0027536
0.00489529
-0.00219469
0.00530244
-0.00154548
0.00550742
-0.000826361
0.00549039
-5.22082e-05
0.00526397
0.000755429
0.00482347
0.00152893
0.00417926
0.00225821
0.00335645
0.00290627
0.00238492
0.00344464
0.00130483
0.00384165
0.000168011
0.00406808
-0.00098105
0.00411575
-0.00208266
0.00395995
-0.00308364
0.00360857
-0.00392975
0.00306633
-0.00457624
0.00235627
-0.00498553
0.00150538
-0.00512598
0.000553938
-0.00498333
-0.00048847
-0.00456249
-0.0014992
-0.00387913
-0.00244697
-0.00296647
-0.00327893
-0.00187309
-0.00393919
-0.000661929
-0.00437779
0.000597732
-0.00456035
0.00182227
-0.00445171
0.00293342
-0.00405534
0.00385356
-0.0033843
0.00451858
-0.0024741
0.00487376
-0.00137517
0.00489711
-0.000163874
0.00457164
0.00111834
0.00392076
0.00230431
0.0029846
0.0033402
0.00183607
0.00413442
0.000557515
0.00461905
-0.000747273
0.00473822
-0.00196364
0.00445519
-0.00299165
0.0037976
-0.00373714
0.0028051
-0.00412745
0.00155618
-0.00412828
0.000164478
-0.00373641
-0.00127996
-0.00298814
-0.00257001
-0.00195558
-0.0036086
-0.000744017
-0.00427991
0.000518289
-0.00450043
0.00169208
-0.0042169
0.00264359
-0.00346424
0.00326644
-0.00231646
0.00348461
-0.000896892
0.00327523
0.000663641
0.00266102
0.00211997
0.0017177
0.00331794
0.000565578
0.00410028
-0.000648481
0.00435933
-0.00175361
0.00401705
-0.00260642
0.00314424
-0.00308763
0.00184528
-0.0031332
0.000303193
-0.00274692
-0.00130074
-0.00198626
-0.00266904
-0.000969803
-0.00363405
0.000144447
-0.00404533
0.00117576
-0.00380128
0.00196259
-0.00297993
0.00239136
-0.00171852
0.00240216
-0.000224496
0.00201123
0.00127468
0.00130366
0.00247261
0.000413449
0.0032063
-0.000494941
0.00335615
-0.00124897
0.0028775
-0.00172624
0.00193043
-0.00186124
0.000712021
-0.00166331
-0.000559551
-0.00119797
-0.00160248
-0.000578099
-0.00226599
6.39666e-05
-0.00246559
0.000601106
-0.00216619
0.000953552
-0.00155334
0.00109778
-0.000789528
0.0010463
-2.1412e-05
0.000863238
0.00060819
0.000599173
0.00103871
0.000303177
0.00129005
0.00140173
0.000500904
-0.00163044
0.00104263
-0.00174989
0.00166438
-0.00182165
0.00241591
-0.00192705
0.00333928
-0.00204572
0.00448388
-0.00219355
0.00573509
-0.00215635
0.00700123
-0.00199718
0.00799617
-0.00144535
0.00880609
-0.000992261
0.00932397
-0.000450603
0.00956544
5.49995e-05
0.00960613
0.000475002
0.00946403
0.000855532
0.00916996
0.00118815
0.00874709
0.00147767
0.00821131
0.00173145
0.00759622
0.00193248
0.00692956
0.00208689
0.00623867
0.00219294
0.00554073
0.00226566
0.00485239
0.0022958
0.0041748
0.00230933
0.00352965
0.0022749
0.00290349
0.00224686
0.0023325
0.00215169
0.0017671
0.00211407
0.00129894
0.00196046
0.000746879
0.00202797
0.000193773
0.00200548
-0.000407219
0.00204427
-0.00102414
0.00204516
-0.00166209
0.00204803
-0.00230961
0.0020298
-0.00296134
0.00199642
-0.00360768
0.00194197
-0.00423936
0.00186598
-0.00484476
0.00176591
-0.00541794
0.00164656
-0.0059491
0.00150436
-0.00643094
0.00134148
-0.00685856
0.00116024
-0.00722606
0.000961281
-0.0075289
0.000746114
-0.00775883
0.000514928
-0.00791572
0.000269416
-0.00802117
9.64655e-06
-0.00805719
-0.000258685
-0.00801898
-0.000530507
-0.00790404
-0.000805939
-0.00771241
-0.00108143
-0.00744456
-0.00135617
-0.00710302
-0.0016273
-0.00668835
-0.00189229
-0.00620534
-0.0021473
-0.00565769
-0.00239138
-0.0050505
-0.00261872
-0.00438869
-0.00282843
-0.00367783
-0.00301543
-0.00292392
-0.00317944
-0.00213632
-0.00331246
-0.00132188
-0.00341503
-0.000489612
-0.00348298
0.000350826
-0.00351325
0.00118985
-0.00350507
0.00201713
-0.00345554
0.00282136
-0.0033624
0.00359094
-0.00322495
0.00431492
-0.00304275
0.00498245
-0.00281589
0.00558413
-0.00254706
0.00611006
-0.00223708
0.0065472
-0.00188438
0.00688787
-0.00149646
0.00712845
-0.00108021
0.00725266
-0.000630447
0.00726645
-0.000166349
0.00715795
0.000339443
0.00693082
0.000832539
0.00658382
0.0013233
0.00611832
0.0018057
0.00553977
0.00226897
0.00485441
0.00270533
0.00407288
0.00310315
0.00320563
0.00345516
0.00226813
0.00375034
0.00127582
0.00397914
0.000247885
0.00413379
-0.000797212
0.00420961
-0.00183618
0.00419624
-0.00284751
0.00409298
-0.00380831
0.00389667
-0.00469537
0.0036072
-0.00548645
0.00322641
-0.00615955
0.00275624
-0.00669545
0.00220597
-0.00707863
0.00158882
-0.0072941
0.000916776
-0.0073273
0.000188192
-0.00718069
-0.000577792
-0.00684871
-0.0013336
-0.00633506
-0.00207308
-0.00564773
-0.00277795
-0.00480262
-0.00342479
-0.00382074
-0.0039903
-0.00272817
-0.00445369
-0.0015526
-0.00479641
-0.000327237
-0.00500247
0.000902175
-0.00504905
0.00210125
-0.00493863
0.0032298
-0.00466017
0.00424845
-0.00421931
0.00511287
-0.00361802
0.00579598
-0.0028778
0.00626404
-0.00201354
0.00649225
-0.00105457
0.00646372
-2.36848e-05
0.00618422
0.00103493
0.00565577
0.00205738
0.0048894
0.00302458
0.00391381
0.00388186
0.00276464
0.0045938
0.00149463
0.00511166
0.000149976
0.00541274
-0.0011966
0.00546233
-0.00248736
0.00525071
-0.00366
0.00478121
-0.00464743
0.00405375
-0.00540087
0.00310971
-0.00587253
0.00197704
-0.00602831
0.000709719
-0.00585497
-0.000661812
-0.00535496
-0.00199922
-0.00454731
-0.00325462
-0.00347216
-0.00435408
-0.00218491
-0.00522644
-0.000762767
-0.00579993
0.00071064
-0.00603376
0.00214192
-0.00588299
0.00343625
-0.00534967
0.00450603
-0.00445408
0.00527265
-0.00324071
0.00567771
-0.00178023
0.00568966
-0.000175826
0.00529786
0.00151014
0.00452145
0.00308073
0.0034188
0.00444285
0.00206355
0.00548967
0.000563818
0.00611878
-0.000957158
0.0062592
-0.00237699
0.00587503
-0.00356815
0.00498876
-0.00442236
0.0036593
-0.00486284
0.00199666
-0.00484037
0.000142014
-0.00436161
-0.00175872
-0.00346528
-0.00346634
-0.00223757
-0.00483631
-0.000805888
-0.00571159
0.000682865
-0.00598918
0.00205746
-0.0055915
0.003169
-0.00457577
0.00388799
-0.00303546
0.00413047
-0.00113937
0.00386482
0.000929288
0.00312555
0.00285924
0.00200295
0.00444054
0.000639502
0.00546373
-0.000784171
0.005783
-0.00207738
0.00531026
-0.00306076
0.00412761
-0.00360769
0.00239221
-0.00364258
0.000338076
-0.00316745
-0.00177588
-0.00225917
-0.00357732
-0.00105998
-0.00483323
0.000243719
-0.00534903
0.00143828
-0.00499584
0.00234331
-0.00388496
0.00281614
-0.00219135
0.00279689
-0.000205251
0.00231761
0.00175396
0.00147212
0.00331811
0.00042706
0.00425136
-0.000624251
0.00440746
-0.00148258
0.00373584
-0.00201079
0.00245864
-0.00213677
0.000838001
-0.0018752
-0.000821124
-0.00131328
-0.0021644
-0.000589672
-0.0029896
0.00014196
-0.00319723
0.000734244
-0.00275847
0.00110437
-0.00192347
0.00123077
-0.000915927
0.00114341
6.59501e-05
0.000916873
0.000834729
0.000620585
0.001335
0.000308518
0.00160211
0.00171025
0.000908713
-0.00253915
0.00191445
-0.00275563
0.00318764
-0.00309484
0.00495396
-0.00369338
0.00744565
-0.00453741
0.0107626
-0.00551046
0.0144072
-0.00580102
0.0175458
-0.0051357
0.0183913
-0.00229084
0.0177058
-0.000306834
0.0162255
0.0010297
0.0144681
0.00181247
0.0126189
0.00232419
0.0107641
0.00271029
0.00892357
0.0030287
0.00711872
0.00328252
0.00537952
0.00347064
0.0037172
0.00359481
0.00214253
0.00366156
0.000656279
0.00367919
-0.000741121
0.00366306
-0.00198849
0.00354316
-0.00309047
0.00341131
-0.00399745
0.00318188
-0.00472035
0.00296976
-0.00516779
0.00259913
-0.00537058
0.00231686
-0.00516609
0.00175596
-0.00509049
0.00195237
-0.00515832
0.0020733
-0.00540403
0.00228998
-0.00576469
0.00240582
-0.00619722
0.00248057
-0.00667116
0.00250374
-0.00715993
0.00248519
-0.00764865
0.00243069
-0.00812097
0.0023383
-0.00857042
0.00221536
-0.00898303
0.00205916
-0.00935559
0.00187692
-0.00968094
0.00166682
-0.00995384
0.00143315
-0.010168
0.00117543
-0.0103246
0.000902751
-0.0104129
0.000603173
-0.010449
0.000305496
-0.0103908
-4.8542e-05
-0.0102591
-0.000390323
-0.0100584
-0.000731282
-0.00978874
-0.00107555