# Probe 0 (0 0 0)
# Time            0                
0                 0                
0.0025            208.6047871      
0.005             284.6803291      
0.0075            351.8311591      
0.01              411.1671621      
0.0125            463.6980756      
0.015             510.2969993      
0.0175            551.7176407      
0.02              588.6103119      
0.0225            621.5363138      
0.025             650.9805762      
0.0275            677.3626119      
0.03              701.045926       
0.0325            722.3460558      
0.035             741.5374221      
0.0375            758.8591553      
0.04              774.5200506      
0.0425            788.7027826      
0.045             801.5674905      
0.0475            813.2548388      
0.05              823.8886247      
0.0525            833.5780097      
0.055             842.419431       
0.0575            850.4982396      
0.06              857.890112       
0.0625            864.6622629      
0.065             870.8744935      
0.0675            876.5800984      
0.07              881.8266491      
0.0725            886.6566776      
0.075             891.1082673      
0.0775            895.2155703      
0.08              899.0092579      
0.0825            902.5169147      
0.085             905.7633838      
0.0875            908.7710681      
0.09              911.5602016      
0.0925            914.149078       
0.095             916.5542595      
0.0975            918.7907593      
0.1               920.8722026      
0.1025            922.8109696      
0.105             924.618322       
0.1075            926.3045159      
0.11              927.8789017      
0.1125            929.350013       
0.115             930.7256464      
0.1175            932.0129326      
0.12              933.2183994      
0.1225            934.3480287      
0.125             935.4073075      
0.1275            936.4012737      
0.13              937.3345567      
0.1325            938.2114148      
0.135             939.0357702      
0.1375            939.8112326      
0.14              940.5411326      
0.1425            941.2285446      
0.145             941.8763079      
0.1475            942.4870476      
0.15              943.0631918      
0.1525            943.6069888      
0.155             944.1205216      
0.1575            944.6057217      
0.16              945.0643808      
0.1625            945.498163       
0.165             945.9086141      
0.1675            946.2971715      
0.17              946.6651725      
0.1725            947.013862       
0.175             947.3443999      
0.1775            947.657867       
0.18              947.9552718      
0.1825            948.2375553      
0.185             948.5055961      
0.1875            948.7602153      
0.19              949.0021805      
0.1925            949.2322097      
0.195             949.4509748      
0.1975            949.659105       
0.2               949.8571898      
0.2025            950.045782       
0.205             950.2253997      
0.2075            950.3965291      
0.21              950.5596271      
0.2125            950.7151222      
0.215             950.8634174      
0.2175            951.0048917      
0.22              951.1399012      
0.2225            951.2687813      
0.225             951.3918476      
0.2275            951.5093976      
0.23              951.6217112      
0.2325            951.7290524      
0.235             951.8316705      
0.2375            951.9298002      
0.24              952.0236634      
0.2425            952.1134694      
0.245             952.1994161      
0.2475            952.2816903      
0.25              952.3604686      
0.2525            952.4359183      
0.255             952.5081971      
0.2575            952.577455       
0.26              952.6438336      
0.2625            952.7074669      
0.265             952.7684822      
0.2675            952.8269998      
0.27              952.883134       
0.2725            952.9369932      
0.275             952.9886802      
0.2775            953.0382925      
0.28              953.0859228      
0.2825            953.1316592      
0.285             953.175585       
0.2875            953.2177806      
0.29              953.2583206      
0.2925            953.297277       
0.295             953.3347182      
0.2975            953.370709       
0.3               953.4053114      
0.3025            953.4385845      
0.305             953.4705844      
0.3075            953.5013645      
0.31              953.5309759      
0.3125            953.559467       
0.315             953.5868844      
0.3175            953.6132721      
0.32              953.6386723      
0.3225            953.6631254      
0.325             953.6866697      
0.3275            953.7093419      
0.33              953.7311771      
0.3325            953.7522088      
0.335             953.772469       
0.3375            953.7919883      
0.34              953.8107959      
0.3425            953.8289198      
0.345             953.8463868      
0.3475            953.8632225      
0.35              953.8794514      
0.3525            953.8950969      
0.355             953.9101815      
0.3575            953.9247267      
0.36              953.9387531      
0.3625            953.9522805      
0.365             953.9653279      
0.3675            953.9779133      
0.37              953.990054       
0.3725            954.001767       
0.375             954.0130679      
0.3775            954.0239724      
0.38              954.034495       
0.3825            954.04465        
0.385             954.0544509      
0.3875            954.0639106      
0.39              954.0730417      
0.3925            954.0818564      
0.395             954.090366       
0.3975            954.0985815      
0.4               954.1065137      
0.4025            954.1141729      
0.405             954.1215689      
0.4075            954.1287111      
0.41              954.1356087      
0.4125            954.1422703      
0.415             954.1487043      
0.4175            954.154919       
0.42              954.160922       
0.4225            954.1667209      
0.425             954.1723229      
0.4275            954.177735       
0.43              954.1829637      
0.4325            954.1880155      
0.435             954.1928966      
0.4375            954.1976131      
0.44              954.2021705      
0.4425            954.2065746      
0.445             954.2108305      
0.4475            954.2149435      
0.45              954.2189184      
0.4525            954.2227601      
0.455             954.2264731      
0.4575            954.2300619      
0.46              954.2335307      
0.4625            954.2368838      
0.465             954.2401249      
0.4675            954.2432581      
0.47              954.2462868      
0.4725            954.2492148      
0.475             954.2520454      
0.4775            954.254782       
0.48              954.2574276      
0.4825            954.2599856      
0.485             954.2624588      
0.4875            954.26485        
0.49              954.267162       
0.4925            954.2693976      
0.495             954.2715592      
0.4975            954.2736495      
0.5               954.2756707      
