# Probe 0 (0 0 0)
# Time            0                
0                 0                
0.0025            -7.607099091e-05 
0.005             -9.48280397e-05  
0.0075            -0.0001110734089 
0.01              -0.0001251982262 
0.0125            -0.0001375439147 
0.015             -0.0001483869663 
0.0175            -0.0001579530536 
0.02              -0.0001664277155 
0.0225            -0.000173964537  
0.025             -0.0001806914659 
0.0275            -0.0001867157311 
0.03              -0.0001921277024 
0.0325            -0.0001970039435 
0.035             -0.0002014096424 
0.0375            -0.0002054005611 
0.04              -0.0002090246082 
0.0425            -0.0002123231163 
0.045             -0.0002153318839 
0.0475            -0.0002180820324 
0.05              -0.0002206007119 
0.0525            -0.0002229116873 
0.055             -0.0002250358263 
0.0575            -0.0002269915084 
0.06              -0.0002287949673 
0.0625            -0.0002304605817 
0.065             -0.0002320011198 
0.0675            -0.0002334279486 
0.07              -0.0002347512116 
0.0725            -0.0002359799811 
0.075             -0.0002371223895 
0.0775            -0.0002381857415 
0.08              -0.0002391766122 
0.0825            -0.0002401009306 
0.085             -0.0002409640539 
0.0875            -0.0002417708289 
0.09              -0.0002425256536 
0.0925            -0.0002432325204 
0.095             -0.0002438950608 
0.0975            -0.000244516583  
0.1               -0.0002451001054 
0.1025            -0.0002456483857 
0.105             -0.0002461639471 
0.1075            -0.0002466491012 
0.11              -0.0002471059683 
0.1125            -0.000247536496  
0.115             -0.0002479424751 
0.1175            -0.0002483255545 
0.12              -0.0002486872536 
0.1225            -0.0002490289747 
0.125             -0.0002493520127 
0.1275            -0.000249657565  
0.13              -0.0002499467399 
0.1325            -0.0002502205639 
0.135             -0.0002504799891 
0.1375            -0.0002507258988 
0.14              -0.0002509591137 
0.1425            -0.0002511803969 
0.145             -0.0002513904582 
0.1475            -0.0002515899587 
0.15              -0.0002517795146 
0.1525            -0.0002519597004 
0.155             -0.0002521310525 
0.1575            -0.0002522940719 
0.16              -0.0002524492267 
0.1625            -0.0002525969548 
0.165             -0.0002527376662 
0.1675            -0.0002528717446 
0.17              -0.0002529995498 
0.1725            -0.0002531214191 
0.175             -0.000253237669  
0.1775            -0.0002533485967 
0.18              -0.0002534544812 
0.1825            -0.000253555585  
0.185             -0.0002536521548 
0.1875            -0.0002537444227 
0.19              -0.0002538326072 
0.1925            -0.0002539169143 
0.195             -0.0002539975379 
0.1975            -0.000254074661  
0.2               -0.000254148456  
0.2025            -0.0002542190859 
0.205             -0.0002542867045 
0.2075            -0.0002543514568 
0.21              -0.0002544134803 
0.2125            -0.0002544729047 
0.215             -0.0002545298528 
0.2175            -0.0002545844407 
0.22              -0.0002546367785 
0.2225            -0.0002546869702 
0.225             -0.0002547351146 
0.2275            -0.0002547813052 
0.23              -0.0002548256307 
0.2325            -0.0002548681752 
0.235             -0.0002549090186 
0.2375            -0.0002549482367 
0.24              -0.0002549859015 
0.2425            -0.0002550220812 
0.245             -0.000255056841  
0.2475            -0.0002550902425 
0.25              -0.0002551223445 
0.2525            -0.0002551532029 
0.255             -0.0002551828708 
0.2575            -0.0002552113989 
0.26              -0.0002552388355 
0.2625            -0.0002552652263 
0.265             -0.0002552906152 
0.2675            -0.0002553150438 
0.27              -0.000255338552  
0.2725            -0.0002553611776 
0.275             -0.0002553829568 
0.2775            -0.0002554039241 
0.28              -0.0002554241124 
0.2825            -0.0002554435533 
0.285             -0.0002554622768 
0.2875            -0.0002554803116 
0.29              -0.0002554976851 
0.2925            -0.0002555144236 
0.295             -0.000255530552  
0.2975            -0.0002555460944 
0.3               -0.0002555610737 
0.3025            -0.0002555755118 
0.305             -0.0002555894298 
0.3075            -0.0002556028477 
0.31              -0.0002556157847 
0.3125            -0.0002556282594 
0.315             -0.0002556402894 
0.3175            -0.0002556518916 
0.32              -0.0002556630822 
0.3225            -0.0002556738767 
0.325             -0.0002556842901 
0.3275            -0.0002556943366 
0.33              -0.00025570403   
0.3325            -0.0002557133833 
0.335             -0.0002557224093 
0.3375            -0.0002557311201 
0.34              -0.0002557395271 
0.3425            -0.0002557476417 
0.345             -0.0002557554746 
0.3475            -0.0002557630359 
0.35              -0.0002557703357 
0.3525            -0.0002557773833 
0.355             -0.000255784188  
0.3575            -0.0002557907586 
0.36              -0.0002557971034 
0.3625            -0.0002558032305 
0.365             -0.0002558091478 
0.3675            -0.0002558148627 
0.37              -0.0002558203826 
0.3725            -0.0002558257142 
0.375             -0.0002558308643 
0.3775            -0.0002558358393 
0.38              -0.0002558406454 
0.3825            -0.0002558452885 
0.385             -0.0002558497744 
0.3875            -0.0002558541086 
0.39              -0.0002558582964 
0.3925            -0.0002558623429 
0.395             -0.000255866253  
0.3975            -0.0002558700315 
0.4               -0.0002558736829 
0.4025            -0.0002558772117 
0.405             -0.0002558806221 
0.4075            -0.0002558839182 
0.41              -0.0002558871039 
0.4125            -0.000255890183  
0.415             -0.0002558931592 
0.4175            -0.0002558960361 
0.42              -0.0002558988169 
0.4225            -0.0002559015051 
0.425             -0.0002559041037 
0.4275            -0.0002559066159 
0.43              -0.0002559090446 
0.4325            -0.0002559113925 
0.435             -0.0002559136625 
0.4375            -0.0002559158572 
0.44              -0.0002559179791 
0.4425            -0.0002559200308 
0.445             -0.0002559220145 
0.4475            -0.0002559239326 
0.45              -0.0002559257873 
0.4525            -0.0002559275807 
0.455             -0.0002559293149 
0.4575            -0.0002559309919 
0.46              -0.0002559326135 
0.4625            -0.0002559341817 
0.465             -0.0002559356983 
0.4675            -0.0002559371649 
0.47              -0.0002559385832 
0.4725            -0.0002559399549 
0.475             -0.0002559412815 
0.4775            -0.0002559425645 
0.48              -0.0002559438054 
0.4825            -0.0002559450055 
0.485             -0.0002559461663 
0.4875            -0.0002559472889 
0.49              -0.0002559483748 
0.4925            -0.000255949425  
0.495             -0.0002559504409 
0.4975            -0.0002559514235 
0.5               -0.0002559523739 
