# Probe 0 (0 0 0)
# Time            0                
0                 100000           
0.0025            102217.277       
0.005             104232.8472      
0.0075            106070.9139      
0.01              107749.3528      
0.0125            109283.8595      
0.015             110688.2756      
0.0175            111974.8568      
0.02              113154.4928      
0.0225            114236.8923      
0.025             115230.7364      
0.0275            116143.8098      
0.03              116983.1107      
0.0325            117754.9455      
0.035             118465.0095      
0.0375            119118.4567      
0.04              119719.9598      
0.0425            120273.763       
0.045             120783.7271      
0.0475            121253.3697      
0.05              121685.9005      
0.0525            122084.2516      
0.055             122451.1052      
0.0575            122788.9176      
0.06              123099.9404      
0.0625            123386.2403      
0.065             123649.7152      
0.0675            123892.1102      
0.07              124115.0308      
0.0725            124319.9556      
0.075             124508.2467      
0.0775            124681.1604      
0.08              124839.8557      
0.0825            124985.4024      
0.085             125118.789       
0.0875            125240.9287      
0.09              125352.6659      
0.0925            125454.7817      
0.095             125547.999       
0.0975            125632.9866      
0.1               125710.3641      
0.1025            125780.7053      
0.105             125844.5419      
0.1075            125902.3665      
0.11              125954.636       
0.1125            126001.7737      
0.115             126044.1722      
0.1175            126082.1958      
0.12              126116.1822      
0.1225            126146.4448      
0.125             126173.2742      
0.1275            126196.9401      
0.13              126217.6926      
0.1325            126235.7641      
0.135             126251.3697      
0.1375            126264.7094      
0.14              126275.9685      
0.1425            126285.319       
0.145             126292.9203      
0.1475            126298.9203      
0.15              126303.4562      
0.1525            126306.6551      
0.155             126308.6348      
0.1575            126309.5046      
0.16              126309.3657      
0.1625            126308.3116      
0.165             126306.4293      
0.1675            126303.7988      
0.17              126300.4947      
0.1725            126296.5855      
0.175             126292.1347      
0.1775            126287.201       
0.18              126281.8386      
0.1825            126276.0974      
0.185             126270.0236      
0.1875            126263.6597      
0.19              126257.0448      
0.1925            126250.2149      
0.195             126243.2032      
0.1975            126236.04        
0.2               126228.7532      
0.2025            126221.3685      
0.205             126213.9092      
0.2075            126206.3968      
0.21              126198.8509      
0.2125            126191.2891      
0.215             126183.7278      
0.2175            126176.1817      
0.22              126168.6642      
0.2225            126161.1872      
0.225             126153.7618      
0.2275            126146.3976      
0.23              126139.1035      
0.2325            126131.8873      
0.235             126124.7559      
0.2375            126117.7156      
0.24              126110.7717      
0.2425            126103.929       
0.245             126097.1917      
0.2475            126090.5632      
0.25              126084.0466      
0.2525            126077.6443      
0.255             126071.3585      
0.2575            126065.1907      
0.26              126059.1423      
0.2625            126053.2142      
0.265             126047.4069      
0.2675            126041.7208      
0.27              126036.1559      
0.2725            126030.712       
0.275             126025.3888      
0.2775            126020.1856      
0.28              126015.1017      
0.2825            126010.1361      
0.285             126005.2877      
0.2875            126000.5553      
0.29              125995.9375      
0.2925            125991.433       
0.295             125987.0402      
0.2975            125982.7576      
0.3               125978.5834      
0.3025            125974.5159      
0.305             125970.5534      
0.3075            125966.694       
0.31              125962.9359      
0.3125            125959.2771      
0.315             125955.7159      
0.3175            125952.2503      
0.32              125948.8782      
0.3225            125945.5979      
0.325             125942.4074      
0.3275            125939.3046      
0.33              125936.2878      
0.3325            125933.3549      
0.335             125930.5041      
0.3375            125927.7334      
0.34              125925.041       
0.3425            125922.425       
0.345             125919.8836      
0.3475            125917.4149      
0.35              125915.0172      
0.3525            125912.6887      
0.355             125910.4276      
0.3575            125908.2322      
0.36              125906.1009      
0.3625            125904.0319      
0.365             125902.0237      
0.3675            125900.0746      
0.37              125898.183       
0.3725            125896.3475      
0.375             125894.5665      
0.3775            125892.8386      
0.38              125891.1622      
0.3825            125889.5361      
0.385             125887.9587      
0.3875            125886.4287      
0.39              125884.9449      
0.3925            125883.5059      
0.395             125882.1104      
0.3975            125880.7573      
0.4               125879.4452      
0.4025            125878.1732      
0.405             125876.9399      
0.4075            125875.7443      
0.41              125874.5853      
0.4125            125873.4618      
0.415             125872.3728      
0.4175            125871.3173      
0.42              125870.2943      
0.4225            125869.3028      
0.425             125868.342       
0.4275            125867.4109      
0.43              125866.5086      
0.4325            125865.6343      
0.435             125864.7871      
0.4375            125863.9663      
0.44              125863.171       
0.4425            125862.4004      
0.445             125861.6539      
0.4475            125860.9307      
0.45              125860.2301      
0.4525            125859.5514      
0.455             125858.894       
0.4575            125858.2571      
0.46              125857.6403      
0.4625            125857.0428      
0.465             125856.464       
0.4675            125855.9035      
0.47              125855.3606      
0.4725            125854.8348      
0.475             125854.3256      
0.4775            125853.8324      
0.48              125853.3548      
0.4825            125852.8923      
0.485             125852.4443      
0.4875            125852.0106      
0.49              125851.5906      
0.4925            125851.1839      
0.495             125850.79        
0.4975            125850.4087      
0.5               125850.0394      
