/*--------------------------------*- C++ -*----------------------------------*\
  =========                 |
  \\      /  F ield         | OpenFOAM: The Open Source CFD Toolbox
   \\    /   O peration     | Website:  https://openfoam.org
    \\  /    A nd           | Version:  12
     \\/     M anipulation  |
\*---------------------------------------------------------------------------*/
FoamFile
{
    format      ascii;
    class       volVectorField;
    location    "15.56";
    object      U;
}
// * * * * * * * * * * * * * * * * * * * * * * * * * * * * * * * * * * * * * //

dimensions      [0 1 -1 0 0 0 0];

internalField   nonuniform List<vector> 
3829
(
(1.199e-06 -0.000474482 0)
(2.20319e-06 -0.00049899 0)
(4.65641e-06 -0.000498684 0)
(6.17358e-06 -0.000497351 0)
(8.16416e-06 -0.000495544 0)
(9.89597e-06 -0.00049322 0)
(1.16229e-05 -0.000490357 0)
(1.32412e-05 -0.000486936 0)
(1.47962e-05 -0.000482928 0)
(1.61822e-05 -0.000478311 0)
(1.74288e-05 -0.000473062 0)
(1.854e-05 -0.000467162 0)
(1.94096e-05 -0.0004606 0)
(2.00608e-05 -0.000453351 0)
(2.04926e-05 -0.000445405 0)
(2.06916e-05 -0.000436755 0)
(2.06663e-05 -0.000427411 0)
(2.04254e-05 -0.000417389 0)
(1.99327e-05 -0.000406705 0)
(1.91385e-05 -0.000395381 0)
(1.79777e-05 -0.000383451 0)
(1.64557e-05 -0.000370928 0)
(1.44832e-05 -0.000357843 0)
(1.20065e-05 -0.000344287 0)
(8.9334e-06 -0.000330347 0)
(5.24985e-06 -0.000316122 0)
(8.42256e-07 -0.000301697 0)
(-4.45808e-06 -0.000287141 0)
(-1.044e-05 -0.000272505 0)
(-1.70999e-05 -0.000257925 0)
(-2.46312e-05 -0.000243443 0)
(-3.28891e-05 -0.000229148 0)
(-4.21359e-05 -0.000215106 0)
(-5.19177e-05 -0.000201353 0)
(-6.21922e-05 -0.000188026 0)
(-7.32775e-05 -0.00017513 0)
(-8.47961e-05 -0.000162741 0)
(-9.6729e-05 -0.000150899 0)
(-0.000108923 -0.000139635 0)
(-0.000121273 -0.000129004 0)
(-0.000133599 -0.000119078 0)
(-0.000145823 -0.00010989 0)
(-0.000157742 -0.00010147 0)
(-0.000169168 -9.38585e-05 0)
(-0.000179975 -8.70713e-05 0)
(-0.000189967 -8.11211e-05 0)
(-0.000199016 -7.60108e-05 0)
(-0.00020683 -7.1709e-05 0)
(-0.00021333 -6.82292e-05 0)
(-0.000218351 -6.54855e-05 0)
(-0.000221748 -6.34788e-05 0)
(-0.000223371 -6.20877e-05 0)
(-0.00022272 -6.129e-05 0)
(-0.000219406 -6.10837e-05 0)
(-0.000213703 -6.14863e-05 0)
(-0.000205845 -6.22783e-05 0)
(-0.000195627 -6.34933e-05 0)
(-0.000182793 -6.49055e-05 0)
(-0.000167645 -6.66591e-05 0)
(-0.000150424 -6.83936e-05 0)
(-0.000130909 -7.01903e-05 0)
(-0.000109437 -7.1874e-05 0)
(-8.62083e-05 -7.33775e-05 0)
(-6.11656e-05 -7.4544e-05 0)
(-3.47288e-05 -7.53451e-05 0)
(-7.03387e-06 -7.56513e-05 0)
(2.17873e-05 -7.53873e-05 0)
(5.13774e-05 -7.44973e-05 0)
(8.12677e-05 -7.29726e-05 0)
(0.000110899 -7.07122e-05 0)
(0.000140244 -6.77214e-05 0)
(0.000168502 -6.39781e-05 0)
(0.000195469 -5.94593e-05 0)
(0.000220643 -5.41947e-05 0)
(0.000243626 -4.81965e-05 0)
(0.000263903 -4.15761e-05 0)
(0.000281449 -3.42757e-05 0)
(0.000295196 -2.6555e-05 0)
(0.000305113 -1.82203e-05 0)
(0.000311354 -9.7098e-06 0)
(0.000313002 -9.3091e-07 0)
(0.000309707 7.83183e-06 0)
(0.000301382 1.66087e-05 0)
(0.00028838 2.51364e-05 0)
(0.00027061 3.33441e-05 0)
(0.00024849 4.09772e-05 0)
(0.000221944 4.80222e-05 0)
(0.000191593 5.41621e-05 0)
(0.000157758 5.93551e-05 0)
(0.000120977 6.34518e-05 0)
(8.19282e-05 6.63042e-05 0)
(4.12164e-05 6.78383e-05 0)
(-3.23137e-07 6.79779e-05 0)
(-4.18324e-05 6.66852e-05 0)
(-8.24294e-05 6.3949e-05 0)
(-0.000121218 5.97878e-05 0)
(-0.000157231 5.42683e-05 0)
(-0.000189636 4.74742e-05 0)
(-0.000217525 3.95628e-05 0)
(-0.000240191 3.06728e-05 0)
(-0.000256898 2.1055e-05 0)
(-0.00026718 1.08908e-05 0)
(-0.000270465 4.92598e-07 0)
(-0.000266224 -9.87542e-06 0)
(-0.000254562 -1.99326e-05 0)
(-0.000235844 -2.94174e-05 0)
(-0.000210777 -3.80219e-05 0)
(-0.000179639 -4.54503e-05 0)
(-0.000143451 -5.14776e-05 0)
(-0.000103166 -5.581e-05 0)
(-6.01055e-05 -5.83972e-05 0)
(-1.54437e-05 -5.89158e-05 0)
(2.92995e-05 -5.75841e-05 0)
(7.23051e-05 -5.4081e-05 0)
(0.000112369 -4.88669e-05 0)
(0.00014778 -4.17625e-05 0)
(0.000177289 -3.32726e-05 0)
(0.000199642 -2.35042e-05 0)
(0.000213878 -1.29922e-05 0)
(0.000219515 -2.00024e-06 0)
(0.000215704 8.73539e-06 0)
(0.000202385 1.89942e-05 0)
(0.000180484 2.82786e-05 0)
(0.000151202 3.62107e-05 0)
(0.000115596 4.2218e-05 0)
(7.53829e-05 4.62218e-05 0)
(3.25718e-05 4.76963e-05 0)
(-1.09701e-05 4.68295e-05 0)
(-5.27257e-05 4.33034e-05 0)
(-9.03443e-05 3.76119e-05 0)
(-0.000121654 2.97582e-05 0)
(-0.000145048 2.03357e-05 0)
(-0.000158963 9.81554e-06 0)
(-0.000162288 -1.28467e-06 0)
(-0.000154153 -1.20296e-05 0)
(-0.000135427 -2.21954e-05 0)
(-0.000107263 -3.0593e-05 0)
(-7.12179e-05 -3.72699e-05 0)
(-2.98406e-05 -4.11022e-05 0)
(1.51011e-05 -4.22967e-05 0)
(5.97383e-05 -4.01726e-05 0)
(0.000100175 -3.53264e-05 0)
(0.000134141 -2.7692e-05 0)
(0.000158809 -1.80833e-05 0)
(0.000172169 -6.85941e-06 0)
(0.000172412 4.75913e-06 0)
(0.00015881 1.62477e-05 0)
(0.000132722 2.64601e-05 0)
(9.58422e-05 3.46808e-05 0)
(5.08653e-05 4.01357e-05 0)
(4.33543e-07 4.22269e-05 0)
(-5.05215e-05 4.06811e-05 0)
(-9.69082e-05 3.5634e-05 0)
(-0.000135352 2.74886e-05 0)
(-0.000162342 1.68377e-05 0)
(-0.00017519 4.70169e-06 0)
(-0.000171909 -7.83696e-06 0)
(-0.000152472 -1.96447e-05 0)
(-0.000118897 -2.95665e-05 0)
(-7.41812e-05 -3.66352e-05 0)
(-2.16366e-05 -4.01357e-05 0)
(3.32312e-05 -3.95232e-05 0)
(8.40571e-05 -3.50263e-05 0)
(0.000126279 -2.70814e-05 0)
(0.000155864 -1.66273e-05 0)
(0.000169841 -4.74537e-06 0)
(0.00016652 7.096e-06 0)
(0.000146717 1.7699e-05 0)
(0.000113387 2.57323e-05 0)
(7.07675e-05 3.03356e-05 0)
(2.428e-05 3.10782e-05 0)
(-2.04734e-05 2.76311e-05 0)
(-5.75556e-05 2.10586e-05 0)
(-8.23569e-05 1.21413e-05 0)
(-9.2483e-05 2.24838e-06 0)
(-8.70635e-05 -7.13778e-06 0)
(-6.78139e-05 -1.47436e-05 0)
(-3.8766e-05 -1.9477e-05 0)
(-4.29189e-06 -2.07221e-05 0)
(2.90164e-05 -1.83023e-05 0)
(5.49813e-05 -1.28994e-05 0)
(7.00967e-05 -5.56745e-06 0)
(7.16877e-05 2.42083e-06 0)
(5.98177e-05 9.6272e-06 0)
(3.72793e-05 1.48396e-05 0)
(7.27619e-06 1.71567e-05 0)
(-2.37745e-05 1.61199e-05 0)
(-4.92999e-05 1.21738e-05 0)
(-6.56798e-05 6.13309e-06 0)
(-6.98204e-05 -7.82649e-07 0)
(-6.11702e-05 -7.29361e-06 0)
(-4.1752e-05 -1.22179e-05 0)
(-1.51594e-05 -1.46771e-05 0)
(1.34436e-05 -1.41555e-05 0)
(3.82701e-05 -1.11041e-05 0)
(5.49981e-05 -6.08517e-06 0)
(6.07712e-05 -9.8671e-08 0)
(5.46135e-05 5.72522e-06 0)
(3.78334e-05 1.03495e-05 0)
(1.35185e-05 1.29053e-05 0)
(4.0819e-06 0.000395347 0)
(1.38074e-05 0.000413834 0)
(2.36963e-05 0.000413787 0)
(3.37225e-05 0.000413237 0)
(4.39099e-05 0.000412463 0)
(5.42943e-05 0.000411484 0)
(6.48244e-05 0.000410269 0)
(7.54551e-05 0.000408832 0)
(8.62543e-05 0.000407144 0)
(9.70492e-05 0.000405211 0)
(0.000107833 0.000402986 0)
(0.000118514 0.000400523 0)
(0.000129025 0.000397745 0)
(0.00013937 0.000394772 0)
(0.000149413 0.000391504 0)
(0.000158985 0.000388067 0)
(0.000167921 0.000384418 0)
(0.000176197 0.000380641 0)
(0.000183735 0.000376718 0)
(0.000190379 0.000372701 0)
(0.00019613 0.000368587 0)
(0.00020104 0.000364383 0)
(0.000204475 0.000360061 0)
(0.000206002 0.000355748 0)
(0.00020552 0.000351509 0)
(0.000203079 0.000347371 0)
(0.000198817 0.00034334 0)
(0.000192813 0.000339411 0)
(0.000184866 0.00033554 0)
(0.000175066 0.00033169 0)
(0.000163568 0.000327714 0)
(0.000150385 0.000323584 0)
(0.000135609 0.000319159 0)
(0.000119254 0.000314316 0)
(0.000101577 0.000308918 0)
(8.2696e-05 0.000302782 0)
(6.2774e-05 0.000295846 0)
(4.21772e-05 0.000287948 0)
(2.10173e-05 0.000279007 0)
(-8.15556e-07 0.000268958 0)
(-2.29863e-05 0.000257751 0)
(-4.51907e-05 0.000245389 0)
(-6.7259e-05 0.000231825 0)
(-8.8912e-05 0.00021709 0)
(-0.000109869 0.000201185 0)
(-0.000129867 0.000184178 0)
(-0.000148542 0.000166114 0)
(-0.000165665 0.000147078 0)
(-0.000180884 0.000127151 0)
(-0.000193975 0.000106479 0)
(-0.000204644 8.51552e-05 0)
(-0.000212625 6.33706e-05 0)
(-0.000218072 4.116e-05 0)
(-0.000220788 1.89221e-05 0)
(-0.000219991 -3.38891e-06 0)
(-0.000215999 -2.52669e-05 0)
(-0.000208647 -4.68182e-05 0)
(-0.000198204 -6.74571e-05 0)
(-0.000184389 -8.74595e-05 0)
(-0.000167143 -0.000106159 0)
(-0.000147184 -0.000123761 0)
(-0.000124165 -0.000139709 0)
(-9.84187e-05 -0.000154013 0)
(-7.00859e-05 -0.000166293 0)
(-3.97414e-05 -0.000176526 0)
(-7.33769e-06 -0.000184349 0)
(2.6651e-05 -0.000189769 0)
(6.15734e-05 -0.00019253 0)
(9.71278e-05 -0.000192642 0)
(0.000132685 -0.000189949 0)
(0.000167893 -0.000184442 0)
(0.000202053 -0.00017615 0)
(0.000234759 -0.000165041 0)
(0.000265361 -0.00015131 0)
(0.000293159 -0.000134943 0)
(0.000317928 -0.000116298 0)
(0.000339081 -9.53833e-05 0)
(0.000356084 -7.28219e-05 0)
(0.000368276 -4.84306e-05 0)
(0.000375438 -2.3064e-05 0)
(0.000377274 3.23025e-06 0)
(0.000373232 2.97223e-05 0)
(0.000363341 5.62305e-05 0)
(0.000347615 8.21099e-05 0)
(0.000326035 0.000107039 0)
(0.000299251 0.000130261 0)
(0.000267023 0.000151588 0)
(0.000229896 0.000170309 0)
(0.000188795 0.000186076 0)
(0.000143928 0.000198397 0)
(9.62484e-05 0.000206943 0)
(4.66181e-05 0.000211367 0)
(-4.00154e-06 0.000211526 0)
(-5.45369e-05 0.000207208 0)
(-0.00010393 0.00019846 0)
(-0.000151051 0.000185301 0)
(-0.000194742 0.000167946 0)
(-0.000233922 0.000146666 0)
(-0.000267537 0.000121919 0)
(-0.000294652 9.41991e-05 0)
(-0.000314443 6.41675e-05 0)
(-0.00032631 3.24972e-05 0)
(-0.000329498 1.15364e-07 0)
(-0.000323623 -3.2117e-05 0)
(-0.000308849 -6.3386e-05 0)
(-0.000285527 -9.27861e-05 0)
(-0.000254313 -0.000119407 0)
(-0.000215765 -0.00014229 0)
(-0.000170958 -0.00016079 0)
(-0.000121341 -0.000174053 0)
(-6.8197e-05 -0.000181755 0)
(-1.34036e-05 -0.000183278 0)
(4.14898e-05 -0.000178612 0)
(9.40777e-05 -0.000167775 0)
(0.000142796 -0.000151016 0)
(0.000185871 -0.000128943 0)
(0.000221378 -0.000102129 0)
(0.000248065 -7.1791e-05 0)
(0.00026464 -3.88971e-05 0)
(0.00027022 -4.77841e-06 0)
(0.000264136 2.88958e-05 0)
(0.000246958 6.09177e-05 0)
(0.000219304 8.98767e-05 0)
(0.000182277 0.000114279 0)
(0.00013766 0.000133017 0)
(8.73303e-05 0.000144957 0)
(3.38944e-05 0.000149557 0)
(-2.02989e-05 0.00014612 0)
(-7.21005e-05 0.000135155 0)
(-0.000118493 0.000116818 0)
(-0.000157155 9.22914e-05 0)
(-0.000185565 6.26089e-05 0)
(-0.000202386 2.95026e-05 0)
(-0.000205668 -5.10509e-06 0)
(-0.000195199 -3.89863e-05 0)
(-0.000171461 -7.04153e-05 0)
(-0.000136193 -9.70142e-05 0)
(-9.11746e-05 -0.00011714 0)
(-3.9293e-05 -0.000129278 0)
(1.67816e-05 -0.000132238 0)
(7.24641e-05 -0.000125821 0)
(0.000122725 -0.000110156 0)
(0.000164958 -8.64412e-05 0)
(0.000195623 -5.59724e-05 0)
(0.000212085 -2.12612e-05 0)
(0.000212329 1.54694e-05 0)
(0.000195877 5.10242e-05 0)
(0.000163853 8.29307e-05 0)
(0.000118683 0.000108419 0)
(6.33371e-05 0.000125164 0)
(1.34883e-06 0.000131525 0)
(-6.11237e-05 0.000126493 0)
(-0.000117908 0.000110595 0)
(-0.000164941 8.49531e-05 0)
(-0.000197811 5.18539e-05 0)
(-0.000213166 1.40615e-05 0)
(-0.000208958 -2.48809e-05 0)
(-0.000185167 -6.14406e-05 0)
(-0.00014418 -9.21093e-05 0)
(-8.97437e-05 -0.000113798 0)
(-2.58676e-05 -0.000124304 0)
(4.0533e-05 -0.000122075 0)
(0.000101685 -0.000107799 0)
(0.00015207 -8.29124e-05 0)
(0.000186827 -5.02755e-05 0)
(0.000202359 -1.34234e-05 0)
(0.000196939 2.32394e-05 0)
(0.000171696 5.58173e-05 0)
(0.000130141 8.03751e-05 0)
(7.77891e-05 9.4273e-05 0)
(2.08079e-05 9.59777e-05 0)
(-3.3268e-05 8.50967e-05 0)
(-7.71233e-05 6.42696e-05 0)
(-0.000105858 3.63441e-05 0)
(-0.000116302 5.52556e-06 0)
(-0.000107825 -2.35686e-05 0)
(-8.27277e-05 -4.69573e-05 0)
(-4.59226e-05 -6.13365e-05 0)
(-2.93085e-06 -6.4783e-05 0)
(3.81164e-05 -5.69159e-05 0)
(6.96439e-05 -3.98392e-05 0)
(8.75439e-05 -1.6716e-05 0)
(8.88022e-05 8.11118e-06 0)
(7.3653e-05 3.0465e-05 0)
(4.5581e-05 4.64293e-05 0)
(8.68834e-06 5.3355e-05 0)
(-2.91145e-05 4.98372e-05 0)
(-5.99006e-05 3.74624e-05 0)
(-7.92846e-05 1.86734e-05 0)
(-8.37646e-05 -2.77514e-06 0)
(-7.29161e-05 -2.28203e-05 0)
(-4.92561e-05 -3.78256e-05 0)
(-1.71179e-05 -4.51911e-05 0)
(1.69735e-05 -4.34002e-05 0)
(4.61699e-05 -3.38789e-05 0)
(6.56555e-05 -1.84302e-05 0)
(7.20825e-05 -1.13287e-07 0)
(6.45105e-05 1.76598e-05 0)
(4.45631e-05 3.16892e-05 0)
(1.58961e-05 3.94552e-05 0)
(-3.15898e-07 -0.000540338 0)
(-1.12553e-07 -0.000573344 0)
(2.38168e-07 -0.000574058 0)
(3.84377e-07 -0.000573969 0)
(5.12206e-07 -0.000573529 0)
(3.42947e-07 -0.000572664 0)
(9.43202e-08 -0.000571024 0)
(-3.25771e-07 -0.000568497 0)
(-9.074e-07 -0.000564744 0)
(-1.91892e-06 -0.000559635 0)
(-2.99622e-06 -0.000552966 0)
(-4.35025e-06 -0.000544729 0)
(-5.6321e-06 -0.000534778 0)
(-7.00127e-06 -0.000523074 0)
(-8.40959e-06 -0.000509554 0)
(-9.47966e-06 -0.000494158 0)
(-1.0528e-05 -0.000476846 0)
(-1.13783e-05 -0.000457631 0)
(-1.22967e-05 -0.000436463 0)
(-1.32549e-05 -0.000413389 0)
(-1.45941e-05 -0.000388407 0)
(-1.64632e-05 -0.000361667 0)
(-1.82414e-05 -0.000333258 0)
(-1.94476e-05 -0.000303364 0)
(-2.08391e-05 -0.000271936 0)
(-2.27891e-05 -0.000239475 0)
(-2.55764e-05 -0.000205845 0)
(-2.96378e-05 -0.000171943 0)
(-3.49895e-05 -0.000137595 0)
(-4.21708e-05 -0.0001037 0)
(-5.12523e-05 -7.03453e-05 0)
(-6.2018e-05 -3.82409e-05 0)
(-7.51643e-05 -7.5381e-06 0)
(-9.02126e-05 2.1326e-05 0)
(-0.000107336 4.80419e-05 0)
(-0.000126358 7.23455e-05 0)
(-0.00014688 9.41374e-05 0)
(-0.000168991 0.000113 0)
(-0.000192096 0.000128666 0)
(-0.000215949 0.0001409 0)
(-0.000239963 0.000149502 0)
(-0.000263942 0.000154382 0)
(-0.00028752 0.000155485 0)
(-0.000310251 0.000152811 0)
(-0.000331794 0.000146409 0)
(-0.000351733 0.000136375 0)
(-0.000369851 0.000122904 0)
(-0.000385708 0.000106168 0)
(-0.000398934 8.64277e-05 0)
(-0.000409337 6.39821e-05 0)
(-0.000416604 3.91084e-05 0)
(-0.00042085 1.22389e-05 0)
(-0.000420795 -1.62552e-05 0)
(-0.000416443 -4.59955e-05 0)
(-0.000407589 -7.67491e-05 0)
(-0.000394747 -0.000107933 0)
(-0.000377516 -0.00013938 0)
(-0.00035639 -0.000170385 0)
(-0.000331398 -0.00020061 0)
(-0.000302413 -0.000229537 0)
(-0.000269931 -0.000256652 0)
(-0.00023341 -0.000281489 0)
(-0.000193879 -0.000303587 0)
(-0.000151186 -0.000322619 0)
(-0.000105894 -0.000338067 0)
(-5.82739e-05 -0.000349653 0)
(-8.96743e-06 -0.000357075 0)
(4.16064e-05 -0.000360064 0)
(9.26091e-05 -0.000358394 0)
(0.000143513 -0.000351951 0)
(0.000193579 -0.000340615 0)
(0.000242125 -0.000324473 0)
(0.000288323 -0.000303395 0)
(0.000331603 -0.00027774 0)
(0.000371025 -0.000247573 0)
(0.000406068 -0.000213312 0)
(0.000435789 -0.000175283 0)
(0.000459879 -0.000133968 0)
(0.000477591 -9.00242e-05 0)
(0.00048829 -4.40497e-05 0)
(0.000491668 3.41371e-06 0)
(0.000487004 5.12819e-05 0)
(0.000474619 9.89876e-05 0)
(0.000454451 0.000145547 0)
(0.000426176 0.000190167 0)
(0.000390761 0.00023198 0)
(0.000348377 0.00026995 0)
(0.00029922 0.000303399 0)
(0.000244424 0.000331345 0)
(0.000184638 0.000353186 0)
(0.000121063 0.000368207 0)
(5.49234e-05 0.000375893 0)
(-1.25051e-05 0.000375892 0)
(-7.97922e-05 0.000367911 0)
(-0.000145391 0.00035198 0)
(-0.000207932 0.000328186 0)
(-0.000265782 0.00029691 0)
(-0.00031749 0.000258665 0)
(-0.000361596 0.000214277 0)
(-0.000396956 0.00016458 0)
(-0.000422477 0.000110791 0)
(-0.000437109 5.43345e-05 0)
(-0.000439934 -3.55728e-06 0)
(-0.000430872 -6.10848e-05 0)
(-0.000410078 -0.000116838 0)
(-0.000377833 -0.000169084 0)
(-0.000334847 -0.00021627 0)
(-0.000282206 -0.000256754 0)
(-0.000221319 -0.000289261 0)
(-0.000154045 -0.000312394 0)
(-8.2335e-05 -0.000325398 0)
(-8.22021e-06 -0.000327447 0)
(6.53172e-05 -0.000318421 0)
(0.000135829 -0.000298317 0)
(0.000200804 -0.000267665 0)
(0.000257891 -0.000227572 0)
(0.00030457 -0.000179205 0)
(0.000338899 -0.000124394 0)
(0.000359796 -6.51856e-05 0)
(0.000365439 -4.20685e-06 0)
(0.000355482 5.62481e-05 0)
(0.000330674 0.000113469 0)
(0.000291499 0.000165083 0)
(0.000239933 0.000208539 0)
(0.000178015 0.000241557 0)
(0.000108692 0.000262333 0)
(3.49868e-05 0.000269802 0)
(-3.91434e-05 0.000262986 0)
(-0.000109497 0.000242565 0)
(-0.000172475 0.00020905 0)
(-0.000224388 0.000164307 0)
(-0.000262678 0.000110426 0)
(-0.000284405 5.05804e-05 0)
(-0.000287721 -1.16879e-05 0)
(-0.00027242 -7.27802e-05 0)
(-0.000239324 -0.000129073 0)
(-0.000190024 -0.000176781 0)
(-0.000127773 -0.000212546 0)
(-5.60899e-05 -0.000233842 0)
(2.08507e-05 -0.000238835 0)
(9.68916e-05 -0.000226762 0)
(0.000165779 -0.000198224 0)
(0.00022343 -0.000155091 0)
(0.000265047 -0.000100234 0)
(0.000287307 -3.74688e-05 0)
(0.00028759 2.82752e-05 0)
(0.000265115 9.23167e-05 0)
(0.000222146 0.000149296 0)
(0.000160937 0.000194591 0)
(8.61206e-05 0.000224203 0)
(2.53209e-06 0.000235143 0)
(-8.1548e-05 0.000225769 0)
(-0.000157876 0.00019691 0)
(-0.000220643 0.000150854 0)
(-0.000264141 9.13867e-05 0)
(-0.000284147 2.38383e-05 0)
(-0.00027792 -4.56476e-05 0)
(-0.000245817 -0.00011059 0)
(-0.000190807 -0.000164809 0)
(-0.000117958 -0.000202621 0)
(-3.28722e-05 -0.00022054 0)
(5.49583e-05 -0.000215735 0)
(0.00013522 -0.000189517 0)
(0.00020065 -0.000144601 0)
(0.000244731 -8.60158e-05 0)
(0.000262819 -2.0375e-05 0)
(0.000253126 4.47839e-05 0)
(0.000217412 0.000102094 0)
(0.000160471 0.000144914 0)
(8.97324e-05 0.000168395 0)
(1.34416e-05 0.00017004 0)
(-5.7798e-05 0.0001498 0)
(-0.000114346 0.000111638 0)
(-0.000150055 6.12336e-05 0)
(-0.000160776 6.00511e-06 0)
(-0.000146242 -4.55506e-05 0)
(-0.000109958 -8.65818e-05 0)
(-5.8492e-05 -0.000111299 0)
(4.1211e-07 -0.000116348 0)
(5.5759e-05 -0.000101277 0)
(9.76553e-05 -7.00352e-05 0)
(0.000120463 -2.84587e-05 0)
(0.000120718 1.60117e-05 0)
(9.92155e-05 5.55684e-05 0)
(6.05869e-05 8.34929e-05 0)
(1.07768e-05 9.5171e-05 0)
(-3.94731e-05 8.82908e-05 0)
(-7.98144e-05 6.56891e-05 0)
(-0.000104663 3.20617e-05 0)
(-0.00010959 -5.90276e-06 0)
(-9.44092e-05 -4.10878e-05 0)
(-6.2755e-05 -6.70711e-05 0)
(-2.03816e-05 -7.94314e-05 0)
(2.37443e-05 -7.58948e-05 0)
(6.08217e-05 -5.87613e-05 0)
(8.51787e-05 -3.15784e-05 0)
(9.26813e-05 3.43818e-07 0)
(8.243e-05 3.11058e-05 0)
(5.66982e-05 5.52613e-05 0)
(2.01899e-05 6.85945e-05 0)
(2.68046e-06 0.000333576 0)
(1.12763e-05 0.000342546 0)
(2.06594e-05 0.000342754 0)
(3.18439e-05 0.00034265 0)
(4.49158e-05 0.000342988 0)
(6.05997e-05 0.000343106 0)
(7.90056e-05 0.000344089 0)
(0.000100239 0.000344027 0)
(0.000124632 0.000344684 0)
(0.000151038 0.000343755 0)
(0.000178792 0.00034224 0)
(0.000207358 0.000339193 0)
(0.000236805 0.000335531 0)
(0.000266533 0.000331048 0)
(0.000296537 0.000326431 0)
(0.000326514 0.000321762 0)
(0.00035578 0.000317689 0)
(0.00038434 0.000314212 0)
(0.000411738 0.000312346 0)
(0.000437539 0.000311882 0)
(0.00046131 0.000313259 0)
(0.000482581 0.000316625 0)
(0.000500644 0.000322582 0)
(0.000515984 0.000330476 0)
(0.000526703 0.00034109 0)
(0.000533267 0.000353437 0)
(0.000533814 0.000368127 0)
(0.000528594 0.000383543 0)
(0.000517533 0.000400671 0)
(0.000499458 0.000418232 0)
(0.000475543 0.000436718 0)
(0.000445533 0.000454452 0)
(0.000410964 0.000471349 0)
(0.000371204 0.000486218 0)
(0.000327334 0.000498507 0)
(0.000280749 0.000507503 0)
(0.000231221 0.000512662 0)
(0.00017852 0.000513638 0)
(0.000123794 0.000510252 0)
(6.73695e-05 0.000502395 0)
(1.02188e-05 0.000489947 0)
(-4.67332e-05 0.00047288 0)
(-0.000102899 0.000451234 0)
(-0.000157582 0.000425027 0)
(-0.000210087 0.000394516 0)
(-0.000259565 0.000359792 0)
(-0.000305409 0.000321283 0)
(-0.000347142 0.000279188 0)
(-0.000383979 0.000233676 0)
(-0.000415703 0.000185479 0)
(-0.000441588 0.000134702 0)
(-0.000461131 8.20408e-05 0)
(-0.000474652 2.79261e-05 0)
(-0.000482637 -2.71952e-05 0)
(-0.000483652 -8.26521e-05 0)
(-0.000478411 -0.000137706 0)
(-0.000466387 -0.000191888 0)
(-0.000447307 -0.000244764 0)
(-0.000421757 -0.000295306 0)
(-0.000389144 -0.000343384 0)
(-0.000350464 -0.000387804 0)
(-0.000305692 -0.000428404 0)
(-0.000255801 -0.00046429 0)
(-0.000200817 -0.000495004 0)
(-0.000141551 -0.000519936 0)
(-7.88198e-05 -0.000538665 0)
(-1.32047e-05 -0.000550725 0)
(5.43533e-05 -0.000555749 0)
(0.000122926 -0.000553507 0)
(0.000191545 -0.000543676 0)
(0.000259132 -0.000526302 0)
(0.000325041 -0.000501269 0)
(0.000387983 -0.000468811 0)
(0.00044669 -0.000429109 0)
(0.000500362 -0.000382562 0)
(0.000548018 -0.000329522 0)
(0.000588876 -0.000270931 0)
(0.00062156 -0.000207271 0)
(0.000645215 -0.000139572 0)
(0.000660004 -6.86232e-05 0)
(0.000664344 4.22174e-06 0)
(0.000657779 7.79244e-05 0)
(0.00064083 0.000151206 0)
(0.000613003 0.000222754 0)
(0.000574715 0.000291196 0)
(0.000526161 0.000355282 0)
(0.000467862 0.000413407 0)
(0.000400592 0.000464407 0)
(0.000325621 0.000507001 0)
(0.000244056 0.000540128 0)
(0.000157198 0.000562739 0)
(6.69765e-05 0.000574071 0)
(-2.50043e-05 0.00057354 0)
(-0.000116646 0.000560812 0)
(-0.000205891 0.000535839 0)
(-0.000290764 0.000498883 0)
(-0.000369094 0.000450441 0)
(-0.000438792 0.00039142 0)
(-0.000498096 0.000322923 0)
(-0.000545338 0.000246374 0)
(-0.000578495 0.000163862 0)
(-0.000597052 7.71639e-05 0)
(-0.000599643 -1.14619e-05 0)
(-0.000585736 -9.957e-05 0)
(-0.000555909 -0.000184873 0)
(-0.000510439 -0.000264579 0)
(-0.000450392 -0.000336378 0)
(-0.000377203 -0.000397748 0)
(-0.00029271 -0.00044662 0)
(-0.000199636 -0.000481234 0)
(-0.000100668 -0.00049999 0)
(9.54309e-07 -0.000502293 0)
(0.00010182 -0.000487296 0)
(0.000198266 -0.00045528 0)
(0.000286514 -0.000407352 0)
(0.000363596 -0.000344723 0)
(0.000426352 -0.000269735 0)
(0.000472025 -0.000184902 0)
(0.000498108 -9.37156e-05 0)
(0.000503432 4.25864e-07 0)
(0.000487571 9.35836e-05 0)
(0.000451283 0.000181571 0)
(0.000395746 0.000260461 0)
(0.000322621 0.000326499 0)
(0.0002353 0.000376541 0)
(0.000138087 0.000407669 0)
(3.5181e-05 0.000418052 0)
(-6.78787e-05 0.000406637 0)
(-0.000165343 0.000373772 0)
(-0.000252305 0.000321162 0)
(-0.000323884 0.000250895 0)
(-0.000375704 0.000167167 0)
(-0.000404244 7.43406e-05 0)
(-0.000407288 -2.20865e-05 0)
(-0.000384877 -0.000116697 0)
(-0.000337651 -0.000203476 0)
(-0.000268106 -0.000276769 0)
(-0.00018041 -0.000331535 0)
(-8.00582e-05 -0.000363694 0)
(2.73379e-05 -0.000370685 0)
(0.000133402 -0.000351228 0)
(0.000229245 -0.000306397 0)
(0.000309033 -0.000239214 0)
(0.000366648 -0.000153855 0)
(0.000396875 -5.69197e-05 0)
(0.000396856 4.47787e-05 0)
(0.000365989 0.000143224 0)
(0.000306057 0.000230936 0)
(0.000221685 0.000300297 0)
(0.000118539 0.000345041 0)
(3.60368e-06 0.00036133 0)
(-0.000111705 0.000346083 0)
(-0.000216048 0.000301127 0)
(-0.000301657 0.00022981 0)
(-0.000360536 0.000138283 0)
(-0.000386786 3.43827e-05 0)
(-0.000377372 -7.18648e-05 0)
(-0.000332807 -0.000170833 0)
(-0.000256993 -0.0002529 0)
(-0.000157384 -0.000309854 0)
(-4.17869e-05 -0.000335948 0)
(7.69714e-05 -0.000327252 0)
(0.000184596 -0.000285789 0)
(0.00027146 -0.000216081 0)
(0.000328573 -0.000125882 0)
(0.000349956 -2.53999e-05 0)
(0.000333612 7.36485e-05 0)
(0.000282242 0.000160105 0)
(0.0002026 0.00022405 0)
(0.000105078 0.000258005 0)
(1.20533e-06 0.000258547 0)
(-9.45855e-05 0.000225756 0)
(-0.000169172 0.000165876 0)
(-0.000214471 8.78431e-05 0)
(-0.000224919 3.32975e-06 0)
(-0.000200995 -7.54386e-05 0)
(-0.000148209 -0.000137191 0)
(-7.53401e-05 -0.000173455 0)
(6.61225e-06 -0.00017954 0)
(8.24091e-05 -0.000154787 0)
(0.000138634 -0.000105514 0)
(0.000168202 -4.09987e-05 0)
(0.00016672 2.72021e-05 0)
(0.000135573 8.73273e-05 0)
(8.15673e-05 0.00012903 0)
(1.31105e-05 0.000145635 0)
(-5.50965e-05 0.000133982 0)
(-0.000109016 9.87194e-05 0)
(-0.000141181 4.70777e-05 0)
(-0.000146337 -1.06828e-05 0)
(-0.000124688 -6.35603e-05 0)
(-8.13925e-05 -0.000102065 0)
(-2.45089e-05 -0.000119707 0)
(3.37671e-05 -0.00011344 0)
(8.18804e-05 -8.70215e-05 0)
(0.000112797 -4.60402e-05 0)
(0.000121546 1.50698e-06 0)
(0.00010738 4.69634e-05 0)
(7.35224e-05 8.24222e-05 0)
(2.61199e-05 0.000101866 0)
(-1.6026e-06 -0.000534851 0)
(-3.41278e-07 -0.000589929 0)
(1.93718e-06 -0.000606145 0)
(6.21612e-06 -0.000629079 0)
(1.09574e-05 -0.000656057 0)
(1.93007e-05 -0.000689442 0)
(2.60591e-05 -0.000719945 0)
(3.25916e-05 -0.000752761 0)
(3.29922e-05 -0.000773751 0)
(2.56594e-05 -0.000786248 0)
(1.78683e-05 -0.00078564 0)
(9.26526e-06 -0.000780573 0)
(3.90573e-06 -0.000768806 0)
(6.3141e-07 -0.000754104 0)
(1.09355e-06 -0.000735326 0)
(5.34428e-06 -0.000713811 0)
(1.29549e-05 -0.000689158 0)
(2.5289e-05 -0.000660806 0)
(4.03573e-05 -0.000628267 0)
(5.76876e-05 -0.000592903 0)
(7.716e-05 -0.000551944 0)
(9.90058e-05 -0.000505507 0)
(0.000119882 -0.000451249 0)
(0.000141238 -0.000392576 0)
(0.00016042 -0.000325163 0)
(0.000176599 -0.000255518 0)
(0.000186109 -0.00017628 0)
(0.000190721 -9.7888e-05 0)
(0.000191627 -9.25038e-06 0)
(0.0001869 7.5072e-05 0)
(0.000174358 0.000162362 0)
(0.000152324 0.000244199 0)
(0.000122768 0.000322739 0)
(8.42732e-05 0.000394181 0)
(3.89194e-05 0.000458514 0)
(-1.31379e-05 0.000514159 0)
(-7.0294e-05 0.000560144 0)
(-0.000131193 0.000596077 0)
(-0.000194117 0.000621482 0)
(-0.000258376 0.000636279 0)
(-0.000322857 0.000640609 0)
(-0.000386536 0.000634672 0)
(-0.000448761 0.00061888 0)
(-0.000508231 0.00059367 0)
(-0.000564264 0.00055972 0)
(-0.000615824 0.000517527 0)
(-0.000662312 0.000467898 0)
(-0.000704285 0.000411283 0)
(-0.000739475 0.000348976 0)
(-0.000767999 0.000281277 0)
(-0.000789779 0.000209537 0)
(-0.000803748 0.00013391 0)
(-0.000809905 5.60276e-05 0)
(-0.000807524 -2.33976e-05 0)
(-0.000795423 -0.00010361 0)
(-0.000774999 -0.000184024 0)
(-0.000746999 -0.000263159 0)
(-0.000710086 -0.000340365 0)
(-0.000665461 -0.000414244 0)
(-0.000612596 -0.00048422 0)
(-0.000552036 -0.000549105 0)
(-0.000484473 -0.000608173 0)
(-0.000410033 -0.000660391 0)
(-0.000329659 -0.000704975 0)
(-0.000244098 -0.000741276 0)
(-0.000154248 -0.000768435 0)
(-6.09827e-05 -0.000786 0)
(3.4446e-05 -0.000793413 0)
(0.000131019 -0.000790265 0)
(0.00022731 -0.000776322 0)
(0.000321942 -0.000751445 0)
(0.000413741 -0.000715622 0)
(0.000500999 -0.000669273 0)
(0.000582629 -0.000612466 0)
(0.000657366 -0.000545849 0)
(0.000723271 -0.000470206 0)
(0.000779138 -0.000386456 0)
(0.00082448 -0.000295497 0)
(0.000857931 -0.000198893 0)
(0.000878238 -9.77824e-05 0)
(0.000884478 5.93887e-06 0)
(0.000876418 0.000110917 0)
(0.000853932 0.000215167 0)
(0.000816863 0.000316954 0)
(0.00076532 0.00041421 0)
(0.000699888 0.000504987 0)
(0.000621234 0.000587388 0)
(0.000530559 0.000659468 0)
(0.000429423 0.000719666 0)
(0.000319251 0.000766 0)
(0.000202084 0.000797631 0)
(8.03991e-05 0.000812988 0)
(-4.34706e-05 0.000811554 0)
(-0.000166775 0.000792683 0)
(-0.00028663 0.000756382 0)
(-0.00040046 0.000703008 0)
(-0.000505284 0.000633505 0)
(-0.000598424 0.000548936 0)
(-0.000677451 0.000451077 0)
(-0.000739394 0.000342201 0)
(-0.000782601 0.000224548 0)
(-0.000805988 0.000101 0)
(-0.000807572 -2.47574e-05 0)
(-0.000787458 -0.000149793 0)
(-0.000745539 -0.000270474 0)
(-0.000682395 -0.000383175 0)
(-0.00059958 -0.000484402 0)
(-0.000498967 -0.000570681 0)
(-0.000383718 -0.000639336 0)
(-0.000256877 -0.000687207 0)
(-0.000122748 -0.000712589 0)
(1.50252e-05 -0.000713983 0)
(0.000151812 -0.0006912 0)
(0.000281641 -0.000644038 0)
(0.000400334 -0.000574332 0)
(0.000503519 -0.000483939 0)
(0.000586665 -0.000375977 0)
(0.00064616 -0.000254305 0)
(0.000679621 -0.000123551 0)
(0.000684948 1.06769e-05 0)
(0.000660985 0.000143437 0)
(0.000608962 0.000268579 0)
(0.000530513 0.000380854 0)
(0.000429195 0.000474099 0)
(0.00030888 0.000544325 0)
(0.000174923 0.000587221 0)
(3.35068e-05 0.0006006 0)
(-0.000107878 0.000582436 0)
(-0.00024082 0.000533998 0)
(-0.000359169 0.000457022 0)
(-0.000455791 0.00035547 0)
(-0.000524994 0.000234732 0)
(-0.000562398 0.000101257 0)
(-0.000565142 -3.74843e-05 0)
(-0.00053287 -0.000173132 0)
(-0.00046661 -0.000297062 0)
(-0.000369894 -0.000401593 0)
(-0.000248597 -0.000478717 0)
(-0.000110111 -0.000523956 0)
(3.734e-05 -0.000532634 0)
(0.000182593 -0.000503593 0)
(0.000313678 -0.000438541 0)
(0.000422661 -0.00034128 0)
(0.000500558 -0.000218908 0)
(0.000541062 -7.9605e-05 0)
(0.000540396 6.55493e-05 0)
(0.000497648 0.000206323 0)
(0.000416124 0.00033083 0)
(0.000300349 0.000428826 0)
(0.000159936 0.000491929 0)
(3.98122e-06 0.000514122 0)
(-0.000152314 0.000491268 0)
(-0.000293192 0.000426368 0)
(-0.000408115 0.000324105 0)
(-0.000486633 0.000193115 0)
(-0.000520734 4.58506e-05 0)
(-0.000506395 -0.000104801 0)
(-0.000445145 -0.000244626 0)
(-0.000342217 -0.000359807 0)
(-0.000207515 -0.000439088 0)
(-5.17e-05 -0.000474041 0)
(0.000107307 -0.000459775 0)
(0.000250342 -0.000399357 0)
(0.000364542 -0.000299095 0)
(0.000438049 -0.000170449 0)
(0.000462892 -2.80446e-05 0)
(0.000437098 0.000111955 0)
(0.000364962 0.000233011 0)
(0.000255534 0.000321129 0)
(0.000123027 0.00036671 0)
(-1.6807e-05 0.000364523 0)
(-0.000144264 0.000315223 0)
(-0.000241728 0.000228078 0)
(-0.000298595 0.000116319 0)
(-0.000308353 -3.78557e-06 0)
(-0.000271871 -0.000115089 0)
(-0.000196706 -0.000201155 0)
(-9.56972e-05 -0.000250383 0)
(1.6269e-05 -0.000256233 0)
(0.00011867 -0.000218809 0)
(0.000193411 -0.000147086 0)
(0.000230987 -5.42994e-05 0)
(0.000226456 4.25507e-05 0)
(0.00018224 0.000127017 0)
(0.000107688 0.000184734 0)
(1.49054e-05 0.000206603 0)
(-7.6224e-05 0.000188392 0)
(-0.000147285 0.00013713 0)
(-0.000188703 6.35413e-05 0)
(-0.000193678 -1.76753e-05 0)
(-0.000163139 -9.1248e-05 0)
(-0.000104575 -0.000143857 0)
(-2.88825e-05 -0.000167 0)
(4.73355e-05 -0.000156894 0)
(0.000109087 -0.000119225 0)
(0.000147927 -6.19322e-05 0)
(0.000157899 3.6332e-06 0)
(0.000138563 6.56837e-05 0)
(9.43925e-05 0.000113745 0)
(3.34407e-05 0.000140006 0)
(-3.69318e-05 0.000270054 0)
(-0.000102756 0.000240861 0)
(-0.000168993 0.000225537 0)
(-0.000216814 0.000203112 0)
(-0.000250282 0.00018311 0)
(-0.00023879 0.000158497 0)
(-0.000206046 0.000163669 0)
(-0.000132733 0.00016219 0)
(-4.30152e-05 0.000219645 0)
(3.65158e-05 0.000242958 0)
(0.000123012 0.000246669 0)
(0.000193801 0.00022088 0)
(0.00026243 0.000187061 0)
(0.000322182 0.000146651 0)
(0.000382938 0.000105414 0)
(0.000441429 6.53521e-05 0)
(0.000502853 2.94072e-05 0)
(0.000568347 -3.982e-07 0)
(0.000636427 -2.07391e-05 0)
(0.00070861 -2.9282e-05 0)
(0.000780093 -2.36872e-05 0)