#           v             n
     0.523599    2.6746e-08
     0.648652   1.66959e-08
     0.790112   3.34408e-08
     0.953116   7.15355e-08
      1.13449   1.55689e-07
      1.34047   3.57758e-07
      1.56672   8.27207e-07
      1.82069   1.99321e-06
      2.09677   4.76948e-06
      2.40376   1.17158e-05
      2.73462   2.81285e-05
      3.09966   6.80951e-05
      3.49026   0.000157936
      3.91837   0.000361089
      4.37366     0.0007702
      4.86986    0.00157076
       5.3948    0.00287804
      5.96412      0.004826
      6.56366    0.00687748
      7.21112    0.00843841
      7.89023    0.00821717
      8.62085    0.00658811
      9.38447    0.00397364
      10.2033    0.00143307
      11.0564             0
      11.9684             0
      12.9159             0
      13.9262             0
      14.9731             0
