/*--------------------------------*- C++ -*----------------------------------*\
  =========                 |
  \\      /  F ield         | OpenFOAM: The Open Source CFD Toolbox
   \\    /   O peration     | Website:  https://openfoam.org
    \\  /    A nd           | Version:  12
     \\/     M anipulation  |
\*---------------------------------------------------------------------------*/
FoamFile
{
    format      ascii;
    class       volScalarField;
    location    "5.04";
    object      p;
}
// * * * * * * * * * * * * * * * * * * * * * * * * * * * * * * * * * * * * * //

dimensions      [1 -1 -2 0 0 0 0];

internalField   nonuniform List<scalar> 
3829
(
-616.58
-616.58
-616.578
-616.576
-616.573
-616.569
-616.565
-616.559
-616.552
-616.545
-616.536
-616.526
-616.515
-616.502
-616.488
-616.472
-616.455
-616.437
-616.416
-616.394
-616.37
-616.344
-616.316
-616.286
-616.254
-616.22
-616.185
-616.147
-616.108
-616.067
-616.024
-615.98
-615.934
-615.887
-615.839
-615.79
-615.741
-615.69
-615.639
-615.588
-615.537
-615.486
-615.435
-615.385
-615.335
-615.286
-615.239
-615.192
-615.147
-615.104
-615.063
-615.024
-614.987
-614.952
-614.919
-614.889
-614.861
-614.835
-614.812
-614.791
-614.772
-614.756
-614.741
-614.729
-614.718
-614.709
-614.702
-614.696
-614.691
-614.687
-614.683
-614.68
-614.677
-614.674
-614.671
-614.667
-614.663
-614.657
-614.651
-614.643
-614.634
-614.624
-614.612
-614.598
-614.583
-614.567
-614.549
-614.53
-614.511
-614.491
-614.471
-614.45
-614.43
-614.411
-614.392
-614.375
-614.359
-614.345
-614.334
-614.324
-614.317
-614.313
-614.311
-614.313
-614.316
-614.322
-614.33
-614.34
-614.351
-614.363
-614.375
-614.388
-614.4
-614.411
-614.421
-614.429
-614.434
-614.438
-614.439
-614.437
-614.432
-614.425
-614.415
-614.403
-614.39
-614.375
-614.36
-614.344
-614.328
-614.314
-614.3
-614.288
-614.279
-614.272
-614.267
-614.265
-614.266
-614.269
-614.275
-614.283
-614.293
-614.305
-614.318
-614.331
-614.345
-614.358
-614.371
-614.382
-614.392
-614.401
-614.407
-614.411
-614.413
-614.413
-614.41
-614.405
-614.399
-614.391
-614.381
-614.37
-614.359
-614.347
-614.335
-614.323
-614.311
-614.301
-614.291
-614.282
-614.275
-614.27
-614.265
-614.263
-614.262
-614.262
-614.264
-614.267
-614.271
-614.276
-614.281
-614.288
-614.294
-614.301
-614.308
-614.314
-614.32
-614.326
-614.331
-614.335
-614.339
-614.342
-614.345
-614.346
-614.348
-614.349
-614.349
-614.349
-614.349
-614.349
-614.349
-614.349
-1775.02
-1775.02
-1775.02
-1775.01
-1775.01
-1775.01
-1775.01
-1775
-1775
-1774.99
-1774.98
-1774.97
-1774.96
-1774.95
-1774.94
-1774.93
-1774.91
-1774.89
-1774.87
-1774.85
-1774.82
-1774.8
-1774.76
-1774.73
-1774.7
-1774.66
-1774.62
-1774.58
-1774.53
-1774.49
-1774.44
-1774.39
-1774.33
-1774.28
-1774.23
-1774.17
-1774.11
-1774.06
-1774
-1773.94
-1773.88
-1773.83
-1773.77
-1773.71
-1773.66
-1773.61
-1773.56
-1773.51
-1773.46
-1773.41
-1773.37
-1773.33
-1773.29
-1773.25
-1773.22
-1773.19
-1773.17
-1773.14
-1773.12
-1773.1
-1773.09
-1773.07
-1773.06
-1773.06
-1773.05
-1773.05
-1773.04
-1773.04
-1773.04
-1773.04
-1773.04
-1773.04
-1773.05
-1773.05
-1773.05
-1773.05
-1773.04
-1773.04
-1773.04
-1773.03
-1773.02
-1773.01
-1773
-1772.98
-1772.97
-1772.95
-1772.93
-1772.91
-1772.89
-1772.86
-1772.84
-1772.81
-1772.79
-1772.77
-1772.75
-1772.73
-1772.71
-1772.69
-1772.68
-1772.67
-1772.66
-1772.66
-1772.66
-1772.66
-1772.67
-1772.68
-1772.69
-1772.7
-1772.71
-1772.73
-1772.75
-1772.76
-1772.78
-1772.79
-1772.8
-1772.81
-1772.82
-1772.82
-1772.82
-1772.82
-1772.82
-1772.81
-1772.8
-1772.78
-1772.77
-1772.75
-1772.73
-1772.71
-1772.69
-1772.68
-1772.66
-1772.65
-1772.64
-1772.63
-1772.63
-1772.62
-1772.63
-1772.63
-1772.64
-1772.65
-1772.66
-1772.67
-1772.69
-1772.7
-1772.72
-1772.73
-1772.74
-1772.76
-1772.77
-1772.78
-1772.78
-1772.79
-1772.79
-1772.79
-1772.78
-1772.78
-1772.77
-1772.76
-1772.75
-1772.74
-1772.73
-1772.72
-1772.7
-1772.69
-1772.68
-1772.67
-1772.66
-1772.65
-1772.64
-1772.64
-1772.63
-1772.63
-1772.63
-1772.63
-1772.63
-1772.63
-1772.64
-1772.64
-1772.65
-1772.66
-1772.66
-1772.67
-1772.68
-1772.68
-1772.69
-1772.7
-1772.7
-1772.71
-1772.71
-1772.71
-1772.71
-1772.72
-1772.72
-1772.72
-1772.72
-1772.72
-1772.72
-1772.72
-1772.72
-1772.72
-2801.28
-2801.28
-2801.28
-2801.28
-2801.28
-2801.28
-2801.28
-2801.28
-2801.28
-2801.28
-2801.27
-2801.27
-2801.27
-2801.26
-2801.25
-2801.24
-2801.23
-2801.21
-2801.19
-2801.17
-2801.14
-2801.11
-2801.08
-2801.04
-2801
-2800.96
-2800.91
-2800.85
-2800.8
-2800.74
-2800.68
-2800.62
-2800.55
-2800.48
-2800.42
-2800.35
-2800.28
-2800.21
-2800.13
-2800.06
-2800
-2799.93
-2799.86
-2799.79
-2799.73
-2799.67
-2799.61
-2799.56
-2799.5
-2799.45
-2799.41
-2799.36
-2799.33
-2799.29
-2799.26
-2799.23
-2799.21
-2799.19
-2799.17
-2799.16
-2799.15
-2799.15
-2799.14
-2799.14
-2799.14
-2799.15
-2799.16
-2799.16
-2799.17
-2799.18
-2799.19
-2799.2
-2799.21
-2799.22
-2799.22
-2799.23
-2799.23
-2799.23
-2799.23
-2799.22
-2799.22
-2799.21
-2799.19
-2799.18
-2799.16
-2799.13
-2799.11
-2799.08
-2799.05
-2799.03
-2799
-2798.97
-2798.94
-2798.91
-2798.88
-2798.86
-2798.83
-2798.81
-2798.8
-2798.79
-2798.78
-2798.78
-2798.78
-2798.78
-2798.79
-2798.81
-2798.82
-2798.84
-2798.86
-2798.89
-2798.91
-2798.93
-2798.95
-2798.97
-2798.98
-2799
-2799.01
-2799.01
-2799.01
-2799.01
-2799
-2798.99
-2798.97
-2798.96
-2798.94
-2798.91
-2798.89
-2798.87
-2798.85
-2798.83
-2798.81
-2798.79
-2798.78
-2798.77
-2798.77
-2798.76
-2798.77
-2798.77
-2798.78
-2798.8
-2798.81
-2798.83
-2798.84
-2798.86
-2798.88
-2798.9
-2798.91
-2798.93
-2798.94
-2798.95
-2798.95
-2798.96
-2798.96
-2798.96
-2798.95
-2798.95
-2798.94
-2798.93
-2798.92
-2798.9
-2798.89
-2798.88
-2798.86
-2798.85
-2798.84
-2798.82
-2798.81
-2798.81
-2798.8
-2798.79
-2798.79
-2798.79
-2798.78
-2798.79
-2798.79
-2798.79
-2798.8
-2798.8
-2798.81
-2798.82
-2798.82
-2798.83
-2798.84
-2798.85
-2798.85
-2798.86
-2798.86
-2798.87
-2798.87
-2798.87
-2798.88
-2798.88
-2798.88
-2798.88
-2798.88
-2798.88
-2798.88
-2798.88
-2798.88
-2798.88
-3710.4
-3710.41
-3710.41
-3710.41
-3710.42
-3710.43
-3710.44
-3710.44
-3710.45
-3710.47
-3710.48
-3710.48
-3710.49
-3710.5
-3710.5
-3710.5
-3710.49
-3710.48
-3710.47
-3710.45
-3710.43
-3710.39
-3710.36
-3710.31
-3710.26
-3710.2
-3710.14
-3710.07
-3709.99
-3709.92
-3709.83
-3709.75
-3709.66
-3709.58
-3709.49
-3709.4
-3709.31
-3709.22
-3709.13
-3709.04
-3708.95
-3708.87
-3708.79
-3708.71
-3708.63
-3708.56
-3708.49
-3708.43
-3708.37
-3708.32
-3708.27
-3708.22
-3708.18
-3708.15
-3708.12
-3708.1
-3708.08
-3708.07
-3708.06
-3708.06
-3708.06
-3708.06
-3708.07
-3708.08
-3708.1
-3708.12
-3708.14
-3708.16
-3708.18
-3708.2
-3708.22
-3708.24
-3708.26
-3708.28
-3708.3
-3708.31
-3708.32
-3708.32
-3708.32
-3708.32
-3708.31
-3708.3
-3708.28
-3708.26
-3708.24
-3708.21
-3708.18
-3708.14
-3708.11
-3708.07
-3708.03
-3707.99
-3707.95
-3707.91
-3707.88
-3707.85
-3707.82
-3707.8
-3707.78
-3707.76
-3707.76
-3707.76
-3707.76
-3707.77
-3707.79
-3707.81
-3707.83
-3707.86
-3707.89
-3707.92
-3707.95
-3707.98
-3708.01
-3708.03
-3708.06
-3708.07
-3708.09
-3708.09
-3708.09
-3708.09
-3708.08
-3708.06
-3708.04
-3708.02
-3707.99
-3707.96
-3707.93
-3707.9
-3707.87
-3707.85
-3707.82
-3707.81
-3707.79
-3707.78
-3707.78
-3707.78
-3707.78
-3707.79
-3707.8
-3707.82
-3707.84
-3707.86
-3707.88
-3707.9
-3707.92
-3707.94
-3707.96
-3707.98
-3707.99
-3708
-3708.01
-3708.01
-3708.01
-3708.01
-3708
-3708
-3707.99
-3707.97
-3707.96
-3707.95
-3707.93
-3707.92
-3707.9
-3707.89
-3707.87
-3707.86
-3707.85
-3707.84
-3707.83
-3707.82
-3707.82
-3707.82
-3707.82
-3707.82
-3707.82
-3707.83
-3707.83
-3707.84
-3707.85
-3707.85
-3707.86
-3707.87
-3707.88
-3707.89
-3707.89
-3707.9
-3707.9
-3707.91
-3707.91
-3707.91
-3707.92
-3707.92
-3707.92
-3707.92
-3707.92
-3707.92
-3707.92
-3707.92
-3707.92
-3707.92
-4515.74
-4515.74
-4515.75
-4515.76
-4515.78
-4515.81
-4515.84
-4515.87
-4515.91
-4515.95
-4515.99
-4516.03
-4516.07
-4516.11
-4516.15
-4516.18
-4516.2
-4516.21
-4516.2
-4516.19
-4516.16
-4516.12
-4516.06
-4515.99
-4515.91
-4515.81
-4515.71
-4515.6
-4515.49
-4515.38
-4515.27
-4515.15
-4515.04
-4514.92
-4514.8
-4514.68
-4514.56
-4514.45
-4514.33
-4514.22
-4514.12
-4514.01
-4513.91
-4513.82
-4513.73
-4513.64
-4513.57
-4513.5
-4513.43
-4513.38
-4513.33
-4513.28
-4513.24
-4513.21
-4513.19
-4513.17
-4513.16
-4513.16
-4513.16
-4513.17
-4513.18
-4513.2
-4513.23
-4513.26
-4513.29
-4513.32
-4513.36
-4513.4
-4513.44
-4513.47
-4513.51
-4513.55
-4513.58
-4513.61
-4513.64
-4513.66
-4513.67
-4513.69
-4513.69
-4513.69
-4513.68
-4513.67
-4513.65
-4513.62
-4513.59
-4513.55
-4513.51
-4513.46
-4513.42
-4513.36
-4513.31
-4513.26
-4513.21
-4513.16
-4513.12
-4513.07
-4513.04
-4513.01
-4512.99
-4512.97
-4512.96
-4512.97
-4512.97
-4512.99
-4513.01
-4513.04
-4513.08
-4513.12
-4513.16
-4513.2
-4513.25
-4513.29
-4513.33
-4513.36
-4513.39
-4513.41
-4513.43
-4513.43
-4513.43
-4513.42
-4513.41
-4513.39
-4513.36
-4513.33
-4513.29
-4513.25
-4513.22
-4513.18
-4513.14
-4513.11
-4513.09
-4513.06
-4513.05
-4513.04
-4513.03
-4513.03
-4513.04
-4513.05
-4513.07
-4513.09
-4513.11
-4513.14
-4513.16
-4513.19
-4513.22
-4513.24
-4513.26
-4513.28
-4513.29
-4513.3
-4513.31
-4513.32
-4513.32
-4513.31
-4513.31
-4513.3
-4513.28
-4513.27
-4513.25
-4513.24
-4513.22
-4513.2
-4513.19
-4513.17
-4513.15
-4513.14
-4513.13
-4513.12
-4513.11
-4513.1
-4513.1
-4513.1
-4513.1
-4513.1
-4513.11
-4513.11
-4513.12
-4513.13
-4513.13
-4513.14
-4513.15
-4513.16
-4513.17
-4513.18
-4513.18
-4513.19
-4513.19
-4513.2
-4513.2
-4513.2
-4513.21
-4513.21
-4513.21
-4513.21
-4513.21
-4513.21
-4513.21
-4513.21
-4513.21
-4513.21
-5228.95
-5228.96
-5228.98
-5229.01
-5229.04
-5229.08
-5229.13
-5229.18
-5229.24
-5229.29
-5229.34
-5229.39
-5229.44
-5229.48
-5229.53
-5229.57
-5229.61
-5229.63
-5229.65
-5229.65
-5229.63
-5229.59
-5229.54
-5229.48
-5229.4
-5229.32
-5229.24
-5229.15
-5229.04
-5228.92
-5228.78
-5228.64
-5228.49
-5228.34
-5228.18
-5228.03
-5227.88
-5227.73
-5227.58
-5227.45
-5227.31
-5227.19
-5227.07
-5226.95
-5226.85
-5226.76
-5226.67
-5226.59
-5226.52
-5226.46
-5226.41
-5226.37
-5226.33
-5226.31
-5226.3
-5226.29
-5226.29
-5226.3
-5226.32
-5226.35
-5226.38
-5226.42
-5226.46
-5226.51
-5226.56
-5226.62
-5226.67
-5226.73
-5226.79
-5226.85
-5226.91
-5226.96
-5227.01
-5227.05
-5227.09
-5227.12
-5227.15
-5227.16
-5227.17
-5227.17
-5227.16
-5227.15
-5227.12
-5227.09
-5227.05
-5227
-5226.94
-5226.88
-5226.82
-5226.75
-5226.68
-5226.62
-5226.55
-5226.49
-5226.43
-5226.38
-5226.33
-5226.3
-5226.27
-5226.25
-5226.25
-5226.25
-5226.26
-5226.29
-5226.32
-5226.36
-5226.41
-5226.46
-5226.52
-5226.58
-5226.64
-5226.69
-5226.74
-5226.79
-5226.82
-5226.85
-5226.87
-5226.88
-5226.88
-5226.86
-5226.84
-5226.81
-5226.78
-5226.73
-5226.69
-5226.64
-5226.59
-5226.54
-5226.5
-5226.46
-5226.43
-5226.4
-5226.39
-5226.37
-5226.37
-5226.37
-5226.39
-5226.4
-5226.42
-5226.45
-5226.48
-5226.51
-5226.54
-5226.57
-5226.6
-5226.63
-5226.65
-5226.67
-5226.69
-5226.7
-5226.71
-5226.71
-5226.71
-5226.71
-5226.7
-5226.69
-5226.67
-5226.66
-5226.64
-5226.62
-5226.6
-5226.58
-5226.56
-5226.54
-5226.53
-5226.51
-5226.5
-5226.49
-5226.48
-5226.48
-5226.47
-5226.47
-5226.47
-5226.47
-5226.48
-5226.49
-5226.49
-5226.5
-5226.51
-5226.52
-5226.53
-5226.54
-5226.55
-5226.56
-5226.56
-5226.57
-5226.57
-5226.58
-5226.58
-5226.59
-5226.59
-5226.59
-5226.59
-5226.59
-5226.59
-5226.59
-5226.59
-5226.58
-5226.58
-5226.58
-5860.63
-5860.65
-5860.7
-5860.76
-5860.85
-5860.96
-5861.08
-5861.22
-5861.37
-5861.54
-5861.7
-5861.86
-5862.01
-5862.15
-5862.27
-5862.36
-5862.44
-5862.49
-5862.52
-5862.53
-5862.52
-5862.48
-5862.42
-5862.34
-5862.23
-5862.09
-5861.92
-5861.71
-5861.48
-5861.25
-5861.01
-5860.79
-5860.56
-5860.34
-5860.13
-5859.92
-5859.72
-5859.54
-5859.36
-5859.19
-5859.03
-5858.88
-5858.74
-5858.61
-5858.49
-5858.39
-5858.29
-5858.21
-5858.14
-5858.08
-5858.03
-5857.99
-5857.97
-5857.95
-5857.95
-5857.95
-5857.97
-5858
-5858.04
-5858.08
-5858.13
-5858.2
-5858.26
-5858.34
-5858.41
-5858.49
-5858.58
-5858.66
-5858.74
-5858.82
-5858.9
-5858.97
-5859.04
-5859.1
-5859.15
-5859.2
-5859.23
-5859.25
-5859.27
-5859.27
-5859.26
-5859.23
-5859.2
-5859.16
-5859.1
-5859.04
-5858.97
-5858.89
-5858.81
-5858.72
-5858.63
-5858.55
-5858.46
-5858.38
-5858.31
-5858.25
-5858.19
-5858.15
-5858.11
-5858.1
-5858.09
-5858.1
-5858.12
-5858.15
-5858.2
-5858.26
-5858.32
-5858.39
-5858.46
-5858.54
-5858.61
-5858.69
-5858.75
-5858.81
-5858.85
-5858.89
-5858.91
-5858.91
-5858.91
-5858.89
-5858.86
-5858.82
-5858.78
-5858.72
-5858.66
-5858.6
-5858.55
-5858.49
-5858.44
-5858.39
-5858.35
-5858.32
-5858.3
-5858.29
-5858.29
-5858.29
-5858.31
-5858.33
-5858.36
-5858.39
-5858.42
-5858.46
-5858.5
-5858.54
-5858.57
-5858.6
-5858.63
-5858.65
-5858.67
-5858.68
-5858.69
-5858.69
-5858.69
-5858.69
-5858.68
-5858.66
-5858.64
-5858.63
-5858.6
-5858.58
-5858.56
-5858.54
-5858.52
-5858.5
-5858.48
-5858.46
-5858.45
-5858.44
-5858.43
-5858.43
-5858.42
-5858.42
-5858.43
-5858.43
-5858.43
-5858.44
-5858.45
-5858.46
-5858.47
-5858.48
-5858.49
-5858.5
-5858.51
-5858.52
-5858.52
-5858.53
-5858.54
-5858.54
-5858.55
-5858.55
-5858.55
-5858.55
-5858.55
-5858.55
-5858.55
-5858.55
-5858.55
-5858.54
-5858.54
-5858.54
-6419.67
-6419.71
-6419.79
-6419.91
-6420.08
-6420.28
-6420.53
-6420.8
-6421.1
-6421.41
-6421.71
-6421.99
-6422.26
-6422.51
-6422.73
-6422.92
-6423.07
-6423.18
-6423.26
-6423.29
-6423.27
-6423.21
-6423.1
-6422.94
-6422.74
-6422.49
-6422.2
-6421.9
-6421.59
-6421.29
-6420.98
-6420.69
-6420.4
-6420.12
-6419.85
-6419.6
-6419.36
-6419.13
-6418.92
-6418.72
-6418.54
-6418.37
-6418.21
-6418.07
-6417.95
-6417.83
-6417.73
-6417.65
-6417.58
-6417.52
-6417.48
-6417.45
-6417.43
-6417.43
-6417.44
-6417.46
-6417.5
-6417.55
-6417.6
-6417.67
-6417.75
-6417.84
-6417.93
-6418.03
-6418.14
-6418.25
-6418.36
-6418.47
-6418.58
-6418.68
-6418.78
-6418.88
-6418.96
-6419.04
-6419.11
-6419.17
-6419.21
-6419.24
-6419.26
-6419.26
-6419.24
-6419.21
-6419.17
-6419.11
-6419.04
-6418.96
-6418.87
-6418.78
-6418.67
-6418.56
-6418.45
-6418.35
-6418.24
-6418.14
-6418.05
-6417.97
-6417.9
-6417.85
-6417.81
-6417.79
-6417.79
-6417.8
-6417.84
-6417.88
-6417.94
-6418.01
-6418.1
-6418.19
-6418.28
-6418.38
-6418.47
-6418.56
-6418.64
-6418.71
-6418.76
-6418.8
-6418.83
-6418.83
-6418.83
-6418.8
-6418.76
-6418.71
-6418.65
-6418.59
-6418.51
-6418.44
-6418.37
-6418.3
-6418.24
-6418.18
-6418.14
-6418.11
-6418.08
-6418.07
-6418.07
-6418.08
-6418.1
-6418.13
-6418.16
-6418.2
-6418.24
-6418.29
-6418.33
-6418.37
-6418.41
-6418.45
-6418.48
-6418.5
-6418.52
-6418.54
-6418.55
-6418.55
-6418.54
-6418.54
-6418.52
-6418.51
-6418.49
-6418.47
-6418.44
-6418.42
-6418.39
-6418.37
-6418.35
-6418.33
-6418.31
-6418.29
-6418.28
-6418.26
-6418.26
-6418.25
-6418.25
-6418.25
-6418.25
-6418.26
-6418.26
-6418.27
-6418.28
-6418.29
-6418.3
-6418.31
-6418.32
-6418.33
-6418.34
-6418.35
-6418.36
-6418.37
-6418.37
-6418.38
-6418.38
-6418.38
-6418.38
-6418.38
-6418.38
-6418.38
-6418.38
-6418.38
-6418.38
-6418.38
-6418.38
-6418.37
-6914.3
-6914.37
-6914.51
-6914.72
-6915
-6915.34
-6915.74
-6916.21
-6916.72
-6917.24
-6917.8
-6918.34
-6918.84
-6919.29
-6919.69
-6920.02
-6920.29
-6920.49
-6920.61
-6920.66
-6920.64
-6920.54
-6920.36
-6920.1
-6919.77
-6919.37
-6918.9
-6918.43
-6917.96
-6917.5
-6917.06
-6916.65
-6916.26
-6915.9
-6915.57
-6915.27
-6914.99
-6914.73
-6914.5
-6914.28
-6914.08
-6913.9
-6913.73
-6913.58
-6913.45
-6913.33
-6913.23
-6913.15
-6913.08
-6913.03
-6913
-6912.98
-6912.97
-6912.99
-6913.01
-6913.05
-6913.11
-6913.18
-6913.27
-6913.36
-6913.47
-6913.58
-6913.71
-6913.84
-6913.97
-6914.11
-6914.25
-6914.39
-6914.53
-6914.66
-6914.79
-6914.91
-6915.01
-6915.11
-6915.19
-6915.26
-6915.32
-6915.35
-6915.37
-6915.37
-6915.35
-6915.31
-6915.26
-6915.19
-6915.1
-6915
-6914.89
-6914.77
-6914.64
-6914.51
-6914.37
-6914.24
-6914.11
-6913.99
-6913.88
-6913.79
-6913.71
-6913.65
-6913.6
-6913.58
-6913.58
-6913.6
-6913.64
-6913.7
-6913.78
-6913.87
-6913.97
-6914.09
-6914.2
-6914.32
-6914.43
-6914.54
-6914.64
-6914.72
-6914.78
-6914.83
-6914.86
-6914.86
-6914.85
-6914.82
-6914.77
-6914.71
-6914.63
-6914.55
-6914.46
-6914.38
-6914.29
-6914.21
-6914.14
-6914.08
-6914.03
-6913.99
-6913.97
-6913.96
-6913.96
-6913.97
-6914
-6914.03
-6914.07
-6914.12
-6914.17
-6914.22
-6914.27
-6914.31
-6914.36
-6914.4
-6914.43
-6914.46
-6914.48
-6914.5
-6914.5
-6914.5
-6914.5
-6914.49
-6914.47
-6914.45
-6914.43
-6914.41
-6914.38
-6914.35
-6914.33
-6914.3
-6914.28
-6914.25
-6914.23
-6914.22
-6914.2
-6914.19
-6914.18
-6914.18
-6914.17
-6914.18
-6914.18
-6914.18
-6914.19
-6914.2
-6914.21
-6914.22
-6914.23
-6914.25
-6914.26
-6914.27
-6914.28
-6914.29
-6914.3
-6914.3
-6914.31
-6914.31
-6914.32
-6914.32
-6914.32
-6914.32
-6914.32
-6914.32
-6914.32
-6914.31
-6914.31
-6914.31
-6914.31
-6914.31
-7351.56
-7351.66
-7351.87
-7352.19
-7352.65
-7353.24
-7354.02
-7354.95
-7356.3
-7357.33
-7358.25
-7359.04
-7359.73
-7360.32
-7360.82
-7361.22
-7361.53
-7361.76
-7361.9
-7361.95
-7361.91
-7361.78
-7361.54
-7361.19
-7360.72
-7360.11
-7359.39
-7358.28
-7357.51
-7356.83
-7356.25
-7355.75
-7355.3
-7354.9
-7354.54
-7354.22
-7353.92
-7353.65
-7353.4
-7353.17
-7352.97
-7352.78
-7352.61
-7352.46
-7352.32
-7352.21
-7352.11
-7352.03
-7351.97
-7351.92
-7351.9
-7351.89
-7351.9
-7351.93
-7351.97
-7352.04
-7352.12
-7352.21
-7352.32
-7352.44
-7352.58
-7352.73
-7352.88
-7353.04
-7353.21
-7353.38
-7353.56
-7353.73
-7353.89
-7354.06
-7354.21
-7354.35
-7354.48
-7354.6
-7354.7
-7354.78
-7354.84
-7354.88
-7354.9
-7354.9
-7354.88
-7354.83
-7354.76
-7354.68
-7354.57
-7354.45
-7354.31
-7354.16
-7354.01
-7353.85
-7353.69
-7353.53
-7353.38
-7353.24
-7353.11
-7352.99
-7352.9
-7352.83
-7352.78
-7352.76
-7352.76
-7352.79
-7352.84
-7352.92
-7353.01
-7353.12
-7353.25
-7353.39
-7353.53
-7353.67
-7353.8
-7353.93
-7354.04
-7354.14
-7354.22
-7354.27
-7354.3
-7354.3
-7354.28
-7354.24
-7354.18
-7354.1
-7354.01
-7353.92
-7353.81
-7353.71
-7353.61
-7353.52
-7353.44
-7353.37
-7353.31
-7353.27
-7353.25
-7353.24
-7353.24
-7353.26
-7353.29
-7353.33
-7353.38
-7353.43
-7353.49
-7353.55
-7353.61
-7353.66
-7353.71
-7353.75
-7353.79
-7353.82
-7353.84
-7353.85
-7353.86
-7353.86
-7353.86
-7353.84
-7353.83
-7353.8
-7353.78
-7353.75
-7353.72
-7353.69
-7353.66
-7353.64
-7353.61
-7353.58
-7353.56
-7353.54
-7353.53
-7353.52
-7353.51
-7353.5
-7353.5
-7353.5
-7353.51
-7353.51
-7353.52
-7353.53
-7353.54
-7353.56
-7353.57
-7353.58
-7353.59
-7353.61
-7353.62
-7353.63
-7353.63
-7353.64
-7353.65
-7353.65
-7353.66
-7353.66
-7353.66
-7353.66
-7353.66
-7353.65
-7353.65
-7353.65
-7353.65
-7353.65
-7353.65
-7353.64
-7737.86
-7737.98
-7738.22
-7738.6
-7739.15
-7739.93
-7740.99
-7742.39
-7744.43
-7746.01
-7747.4
-7748.61
-7749.65
-7750.53
-7751.26
-7751.86
-7752.32
-7752.65
-7752.85
-7752.93
-7752.87
-7752.67
-7752.32
-7751.81
-7751.13
-7750.25
-7749.16
-7747.58
-7746.52
-7745.68
-7745
-7744.45
-7743.98
-7743.57
-7743.22
-7742.9
-7742.61
-7742.34
-7742.1
-7741.87
-7741.67
-7741.48
-7741.31
-7741.16
-7741.03
-7740.92
-7740.82
-7740.75
-7740.69
-7740.66
-7740.64
-7740.65
-7740.67
-7740.72
-7740.78
-7740.87
-7740.97
-7741.09
-7741.23
-7741.38
-7741.55
-7741.73
-7741.91
-7742.11
-7742.31
-7742.52
-7742.72
-7742.93
-7743.13
-7743.32
-7743.5
-7743.67
-7743.82
-7743.96
-7744.07
-7744.17
-7744.24
-7744.28
-7744.31
-7744.3
-7744.27
-7744.21
-7744.13
-7744.02
-7743.9
-7743.75
-7743.59
-7743.41
-7743.23
-7743.04
-7742.85
-7742.67
-7742.49
-7742.32
-7742.17
-7742.04
-7741.94
-7741.86
-7741.8
-7741.78
-7741.79
-7741.82
-7741.89
-7741.98
-7742.09
-7742.23
-7742.38
-7742.54
-7742.71
-7742.87
-7743.03
-7743.18
-7743.31
-7743.42
-7743.5
-7743.56
-7743.59
-7743.59
-7743.57
-7743.52
-7743.44
-7743.35
-7743.25
-7743.13
-7743.01
-7742.89
-7742.78
-7742.67
-7742.58
-7742.5
-7742.44
-7742.4
-7742.38
-7742.37
-7742.38
-7742.4
-7742.44
-7742.49
-7742.54
-7742.6
-7742.67
-7742.73
-7742.8
-7742.85
-7742.91
-7742.96
-7743
-7743.03
-7743.05
-7743.07
-7743.07
-7743.07
-7743.06
-7743.05
-7743.03
-7743
-7742.97
-7742.94
-7742.91
-7742.88
-7742.85
-7742.82
-7742.79
-7742.77
-7742.74
-7742.72
-7742.71
-7742.7
-7742.69
-7742.68
-7742.68
-7742.68
-7742.69
-7742.7
-7742.71
-7742.72
-7742.73
-7742.74
-7742.76
-7742.77
-7742.78
-7742.79
-7742.81
-7742.82
-7742.82
-7742.83
-7742.84
-7742.84
-7742.84
-7742.85
-7742.85
-7742.85
-7742.84
-7742.84
-7742.84
-7742.84
-7742.84
-7742.83
-7742.83
-7742.83
-8079.11
-8079.16
-8079.26
-8079.41
-8079.59
-8079.8
-8079.92
-8080.19
-8089.35
-8089.07
-8088.87
-8088.58
-8088.27
-8087.97
-8087.67
-8087.36
-8087.09
-8086.83
-8086.59
-8086.36
-8086.14
-8085.94
-8085.76
-8085.59
-8085.44
-8085.31
-8085.2
-8085.11
-8085.04
-8084.99
-8084.97
-8084.96
-8084.98
-8085.02
-8085.09
-8085.17
-8085.28
-8085.41
-8085.55
-8085.72
-8085.9
-8086.1
-8086.31
-8086.53
-8086.76
-8087
-8087.24
-8087.48
-8087.72
-8087.95
-8088.17
-8088.38
-8088.57
-8088.75
-8088.91
-8089.04
-8089.15
-8089.23
-8089.28
-8089.3
-8089.29
-8089.25
-8089.18
-8089.08
-8088.96
-8088.81
-8088.64
-8088.45
-8088.24
-8088.03
-8087.81
-8087.59
-8087.38
-8087.18
-8086.99
-8086.81
-8086.67
-8086.55
-8086.46
-8086.4
-8086.37
-8086.39
-8086.43
-8086.51
-8086.62
-8086.75
-8086.91
-8087.09
-8087.27
-8087.47
-8087.66
-8087.84
-8088.01
-8088.16
-8088.28
-8088.38
-8088.44
-8088.47
-8088.47
-8088.44
-8088.37
-8088.29
-8088.18
-8088.06
-8087.93
-8087.79
-8087.65
-8087.53
-8087.41
-8087.31
-8087.22
-8087.16
-8087.11
-8087.09
-8087.08
-8087.1
-8087.13
-8087.17
-8087.22
-8087.29
-8087.36
-8087.43
-8087.5
-8087.57
-8087.63
-8087.69
-8087.74
-8087.78
-8087.82
-8087.84
-8087.86
-8087.86
-8087.86
-8087.85
-8087.83
-8087.81
-8087.78
-8087.75
-8087.72
-8087.68
-8087.65
-8087.62
-8087.58
-8087.55
-8087.53
-8087.5
-8087.48
-8087.47
-8087.46
-8087.45
-8087.44
-8087.44
-8087.44
-8087.45
-8087.46
-8087.47
-8087.48
-8087.49
-8087.51
-8087.52
-8087.54
-8087.55
-8087.56
-8087.57
-8087.58
-8087.59
-8087.6
-8087.61
-8087.61
-8087.61
-8087.62
-8087.62
-8087.61
-8087.61
-8087.61
-8087.61
-8087.61
-8087.6
-8087.6
-8087.6
-8087.6
-8381.12
-8381.15
-8381.2
-8381.28
-8381.37
-8381.47
-8381.56
-8381.7
-8393.77
-8393.58
-8393.42
-8393.21
-8392.96
-8392.71
-8392.46
-8392.21
-8391.97
-8391.73
-8391.5
-8391.28
-8391.07
-8390.88
-8390.7
-8390.53
-8390.39
-8390.26
-8390.15
-8390.07
-8390
-8389.96
-8389.94
-8389.95
-8389.98
-8390.04
-8390.12
-8390.22
-8390.35
-8390.5
-8390.68
-8390.87
-8391.09
-8391.32
-8391.56
-8391.82
-8392.08
-8392.35
-8392.63
-8392.9
-8393.17
-8393.44
-8393.69
-8393.93
-8394.15
-8394.35
-8394.52
-8394.67
-8394.79
-8394.88
-8394.93
-8394.95
-8394.94
-8394.89
-8394.81
-8394.69
-8394.55
-8394.38
-8394.18
-8393.96
-8393.73
-8393.49
-8393.24
-8392.99
-8392.75
-8392.52
-8392.3
-8392.11
-8391.94
-8391.81
-8391.71
-8391.65
-8391.62
-8391.64
-8391.7
-8391.79
-8391.91
-8392.07
-8392.25
-8392.45
-8392.67
-8392.89
-8393.1
-8393.31
-8393.5
-8393.67
-8393.81
-8393.91
-8393.98
-8394.01
-8394
-8393.96
-8393.89
-8393.79
-8393.66
-8393.52
-8393.37
-8393.22
-8393.07
-8392.93
-8392.8
-8392.69
-8392.6
-8392.53
-8392.48
-8392.46
-8392.45
-8392.47
-8392.51
-8392.56
-8392.62
-8392.69
-8392.77
-8392.84
-8392.92
-8393
-8393.07
-8393.13
-8393.18
-8393.23
-8393.26
-8393.29
-8393.3
-8393.31
-8393.3
-8393.29
-8393.27
-8393.25
-8393.22
-8393.18
-8393.15
-8393.11
-8393.08
-8393.04
-8393.01
-8392.97
-8392.95
-8392.92
-8392.9
-8392.88
-8392.87
-8392.86
-8392.86
-8392.86
-8392.86
-8392.87
-8392.88
-8392.89
-8392.9
-8392.92
-8392.93
-8392.95
-8392.96
-8392.97
-8392.99
-8393
-8393.01
-8393.02
-8393.03
-8393.03
-8393.04
-8393.04
-8393.04
-8393.04
-8393.04
-8393.04
-8393.04
-8393.03
-8393.03
-8393.03
-8393.02
-8393.02
-8393.02
-8648.55
-8648.57
-8648.59
-8648.63
-8648.68
-8648.73
-8648.76
-8648.82
-8663.46
-8663.34
-8663.24
-8663.09
-8662.88
-8662.68
-8662.47
-8662.25
-8662.03
-8661.81
-8661.59
-8661.37
-8661.17
-8660.98
-8660.8
-8660.64
-8660.49
-8660.36
-8660.26
-8660.17
-8660.11
-8660.08
-8660.07
-8660.09
-8660.13
-8660.2
-8660.3
-8660.43
-8660.58
-8660.75
-8660.95
-8661.18
-8661.42
-8661.68
-8661.96
-8662.25
-8662.55
-8662.86
-8663.17
-8663.47
-8663.78
-8664.07
-8664.36
-8664.62
-8664.87
-8665.09
-8665.28
-8665.45
-8665.58
-8665.67
-8665.73
-8665.75
-8665.73
-8665.67
-8665.58
-8665.44
-8665.28
-8665.08
-8664.86
-8664.62
-8664.36
-8664.08
-8663.8
-8663.52
-8663.25
-8662.99
-8662.76
-8662.54
-8662.36
-8662.21
-8662.1
-8662.04
-8662.01
-8662.04
-8662.1
-8662.21
-8662.35
-8662.53
-8662.74
-8662.96
-8663.21
-8663.45
-8663.69
-8663.93
-8664.14
-8664.32
-8664.47
-8664.59
-8664.66
-8664.69
-8664.68
-8664.63
-8664.54
-8664.43
-8664.29
-8664.13
-8663.96
-8663.79
-8663.63
-8663.47
-8663.33
-8663.21
-8663.11
-8663.04
-8662.99
-8662.97
-8662.97
-8662.99
-8663.03
-8663.09
-8663.16
-8663.23
-8663.32
-8663.4
-8663.49
-8663.57
-8663.64
-8663.71
-8663.76
-8663.81
-8663.85
-8663.87
-8663.89
-8663.89
-8663.89
-8663.87
-8663.85
-8663.82
-8663.79
-8663.76
-8663.72
-8663.68
-8663.64
-8663.6
-8663.57
-8663.54
-8663.51
-8663.48
-8663.46
-8663.44
-8663.43
-8663.42
-8663.42
-8663.42
-8663.42
-8663.43
-8663.44
-8663.45
-8663.46
-8663.48
-8663.49
-8663.51
-8663.53
-8663.54
-8663.55
-8663.57
-8663.58
-8663.59
-8663.59
-8663.6
-8663.6
-8663.61
-8663.61
-8663.61
-8663.61
-8663.6
-8663.6
-8663.6
-8663.59
-8663.59
-8663.59
-8663.59
-8663.59
-8885.39
-8885.4
-8885.42
-8885.44
-8885.46
-8885.48
-8885.5
-8885.53
-8902.51
-8902.41
-8902.32
-8902.2
-8902.04
-8901.87
-8901.67
-8901.47
-8901.26
-8901.05
-8900.83
-8900.62
-8900.42
-8900.23
-8900.05
-8899.88
-8899.74
-8899.61
-8899.5
-8899.42
-8899.36
-8899.33
-8899.33
-8899.36
-8899.42
-8899.5
-8899.62
-8899.76
-8899.93
-8900.14
-8900.36
-8900.61
-8900.89
-8901.18
-8901.49
-8901.81
-8902.15
-8902.49
-8902.83
-8903.17
-8903.51
-8903.83
-8904.14
-8904.44
-8904.71
-8904.95
-8905.16
-8905.34
-8905.48
-8905.58
-8905.64
-8905.66
-8905.64
-8905.57
-8905.46
-8905.31
-8905.13
-8904.91
-8904.66
-8904.39
-8904.1
-8903.79
-8903.48
-8903.18
-8902.88
-8902.59
-8902.33
-8902.09
-8901.89
-8901.73
-8901.62
-8901.55
-8901.53
-8901.55
-8901.63
-8901.75
-8901.91
-8902.11
-8902.34
-8902.6
-8902.86
-8903.14
-8903.4
-8903.66
-8903.89
-8904.09
-8904.25
-8904.38
-8904.45
-8904.48
-8904.47
-8904.41
-8904.31
-8904.18
-8904.02
-8903.85
-8903.66
-8903.48
-8903.3
-8903.13
-8902.98
-8902.85
-8902.74
-8902.67
-8902.62
-8902.6
-8902.6
-8902.63
-8902.67
-8902.74
-8902.81
-8902.9
-8902.99
-8903.08
-8903.17
-8903.26
-8903.33
-8903.4
-8903.46
-8903.51
-8903.55
-8903.58
-8903.59
-8903.59
-8903.59
-8903.57
-8903.55
-8903.52
-8903.48
-8903.45
-8903.41
-8903.36
-8903.32
-8903.28
-8903.25
-8903.21
-8903.18
-8903.16
-8903.14
-8903.12
-8903.11
-8903.1
-8903.09
-8903.1
-8903.1
-8903.11
-8903.12
-8903.13
-8903.14
-8903.16
-8903.18
-8903.19
-8903.21
-8903.22
-8903.24
-8903.25
-8903.26
-8903.27
-8903.28
-8903.29
-8903.29
-8903.29
-8903.29
-8903.29
-8903.29
-8903.29
-8903.28
-8903.28
-8903.28
-8903.27
-8903.27
-8903.27
-8903.27
-9095.18
-9095.19
-9095.2
-9095.21
-9095.22
-9095.24
-9095.25
-9095.26
-9114.34
-9114.26
-9114.19
-9114.08
-9113.94
-9113.77
-9113.59
-9113.39
-9113.19
-9112.98
-9112.76
-9112.55
-9112.35
-9112.15
-9111.97
-9111.8
-9111.65
-9111.52
-9111.42
-9111.33
-9111.28
-9111.26
-9111.26
-9111.3
-9111.36
-9111.46
-9111.59
-9111.76
-9111.95
-9112.18
-9112.43
-9112.71
-9113.01
-9113.33
-9113.67
-9114.03
-9114.39
-9114.77
-9115.14
-9115.52
-9115.88
-9116.24
-9116.58
-9116.9
-9117.19
-9117.45
-9117.68
-9117.87
-9118.03
-9118.13
-9118.2
-9118.21
-9118.18
-9118.11
-9117.98
-9117.82
-9117.61
-9117.37
-9117.1
-9116.8
-9116.48
-9116.15
-9115.81
-9115.47
-9115.14
-9114.83
-9114.55
-9114.29
-9114.08
-9113.9
-9113.78
-9113.71
-9113.69
-9113.72
-9113.8
-9113.94
-9114.12
-9114.34
-9114.6
-9114.87
-9115.17
-9115.47
-9115.76
-9116.04
-9116.29
-9116.5
-9116.68
-9116.81
-9116.89
-9116.92
-9116.9
-9116.83
-9116.72
-9116.57
-9116.4
-9116.21
-9116.01
-9115.81
-9115.61
-9115.43
-9115.27
-9115.13
-9115.02
-9114.94
-9114.89
-9114.87
-9114.88
-9114.91
-9114.96
-9115.03
-9115.12
-9115.21
-9115.3
-9115.4
-9115.5
-9115.59
-9115.67
-9115.75
-9115.81
-9115.86
-9115.9
-9115.92
-9115.94
-9115.94
-9115.93
-9115.91
-9115.89
-9115.86
-9115.82
-9115.78
-9115.74
-9115.69
-9115.65
-9115.61
-9115.57
-9115.54
-9115.51
-9115.48
-9115.46
-9115.44
-9115.43
-9115.42
-9115.42
-9115.42
-9115.42
-9115.43
-9115.44
-9115.45
-9115.47
-9115.49
-9115.5
-9115.52
-9115.54
-9115.55
-9115.57
-9115.58
-9115.59
-9115.6
-9115.61
-9115.61
-9115.62
-9115.62
-9115.62
-9115.62
-9115.62
-9115.62
-9115.61
-9115.61
-9115.61
-9115.6
-9115.6
-9115.6
-9115.6
-9281.02
-9281.02
-9281.03
-9281.04
-9281.04
-9281.05
-9281.06
-9281.07
-9302.04
-9301.98
-9301.9
-9301.8
-9301.67
-9301.51
-9301.33
-9301.14
-9300.93
-9300.72
-9300.5
-9300.28
-9300.07
-9299.87
-9299.68
-9299.51
-9299.36
-9299.23
-9299.12
-9299.04
-9298.99
-9298.96
-9298.97
-9299.02
-9299.1
-9299.21
-9299.36
-9299.54
-9299.75
-9300
-9300.27
-9300.58
-9300.91
-9301.26
-9301.63
-9302.02
-9302.41
-9302.82
-9303.23
-9303.63
-9304.03
-9304.41
-9304.78
-9305.12
-9305.44
-9305.72
-9305.96
-9306.17
-9306.33
-9306.44
-9306.51
-9306.53
-9306.49
-9306.4
-9306.27
-9306.08
-9305.86
-9305.59
-9305.3
-9304.97
-9304.62
-9304.26
-9303.89
-9303.53
-9303.18
-9302.84
-9302.53
-9302.26
-9302.03
-9301.84
-9301.71
-9301.64
-9301.62
-9301.66
-9301.75
-9301.9
-9302.1
-9302.34
-9302.62
-9302.92
-9303.24
-9303.56
-9303.88
-9304.18
-9304.45
-9304.68
-9304.87
-9305.01
-9305.09
-9305.12
-9305.09
-9305.01
-9304.89
-9304.73
-9304.54
-9304.33
-9304.12
-9303.9
-9303.69
-9303.5
-9303.33
-9303.18
-9303.07
-9302.99
-9302.94
-9302.92
-9302.93
-9302.96
-9303.02
-9303.1
-9303.19
-9303.28
-9303.39
-9303.49
-9303.59
-9303.69
-9303.77
-9303.85
-9303.92
-9303.97
-9304.01
-9304.03
-9304.05
-9304.05
-9304.04
-9304.02
-9303.99
-9303.96
-9303.92
-9303.88
-9303.83
-9303.79
-9303.74
-9303.7
-9303.66
-9303.63
-9303.59
-9303.57
-9303.54
-9303.53
-9303.51
-9303.51
-9303.5
-9303.5
-9303.51
-9303.52
-9303.53
-9303.54
-9303.56
-9303.58
-9303.59
-9303.61
-9303.63
-9303.64
-9303.66
-9303.67
-9303.68
-9303.69
-9303.7
-9303.71
-9303.71
-9303.71
-9303.71
-9303.71
-9303.71
-9303.71
-9303.71
-9303.7
-9303.7
-9303.69
-9303.69
-9303.69
-9303.69
-9445.64
-9445.64
-9445.64
-9445.65
-9445.66
-9445.66
-9445.66
-9445.67
-9468.35
-9468.31
-9468.23
-9468.13
-9468
-9467.84