/*--------------------------------*- C++ -*----------------------------------*\
  =========                 |
  \\      /  F ield         | OpenFOAM: The Open Source CFD Toolbox
   \\    /   O peration     | Website:  https://openfoam.org
    \\  /    A nd           | Version:  12
     \\/     M anipulation  |
\*---------------------------------------------------------------------------*/
FoamFile
{
    format      ascii;
    class       surfaceScalarField;
    location    "19.52";
    object      phi;
}
// * * * * * * * * * * * * * * * * * * * * * * * * * * * * * * * * * * * * * //

dimensions      [1 0 -1 0 0 0 0];

internalField   nonuniform List<scalar> 
7429
(
4.56209e-06
-4.56247e-06
1.49285e-05
-1.03669e-05
2.40368e-05
-9.10878e-06
3.05936e-05
-6.55732e-06
3.45382e-05
-3.94523e-06
3.50678e-05
-5.30184e-07
3.2937e-05
2.13027e-06
2.72136e-05
5.72277e-06
1.69769e-05
1.02362e-05
1.53468e-06
1.54416e-05
-1.96799e-05
2.1214e-05
-4.7077e-05
2.73965e-05
-8.10702e-05
3.39927e-05
-0.000121971
4.09002e-05
-0.000170093
4.81217e-05
-0.000225787
5.5693e-05
-0.000289508
6.3721e-05
-0.000361599
7.20906e-05
-0.000442316
8.07159e-05
-0.000531809
8.9493e-05
-0.000630121
9.83118e-05
-0.000737177
0.000107055
-0.000852705
0.000115527
-0.000976322
0.000123617
-0.00110751
0.00013119
-0.00124561
0.000138101
-0.00139
0.000144384
-0.00153996
0.000149966
-0.00169478
0.000154811
-0.00185362
0.000158846
-0.00201579
0.000162166
-0.00218038
0.00016459
-0.00234653
0.000166154
-0.0025132
0.000166662
-0.00267925
0.000166052
-0.00284338
0.000164133
-0.00300424
0.00016086
-0.00316027
0.00015603
-0.00330988
0.00014961
-0.00345147
0.000141592
-0.00358332
0.000131846
-0.00370374
0.000120415
-0.00381097
0.00010723
-0.00390331
9.23487e-05
-0.00397907
7.57519e-05
-0.00403664
5.75726e-05
-0.00407476
3.81218e-05
-0.0040915
1.67408e-05
-0.00408001
-1.14919e-05
-0.00403981
-4.01973e-05
-0.00397092
-6.88954e-05
-0.0038731
-9.78145e-05
-0.00374624
-0.000126864
-0.00359047
-0.00015577
-0.00340614
-0.000184324
-0.00319401
-0.000212131
-0.00295491
-0.000239102
-0.0026902
-0.00026471
-0.00240121
-0.000288986
-0.00208973
-0.000311486
-0.00175757
-0.000332157
-0.00140712
-0.000350449
-0.0010411
-0.000366022
-0.000662823
-0.000378276
-0.000275706
-0.000387116
0.000116119
-0.000391825
0.000508382
-0.000392264
0.000896407
-0.000388025
0.00127534
-0.000378933
0.00164007
-0.000364728
0.00198578
-0.000345707
0.00230706
-0.000321285
0.0025989
-0.000291834
0.00285653
-0.000257631
0.00307517
-0.000218642
0.00325074
-0.00017557
0.0033795
-0.000128763
0.0034585
-7.89967e-05
0.00348597
-2.74703e-05
0.00345233
3.36379e-05
0.00335956
9.277e-05
0.00320913
0.000150429
0.00300314
0.000205992
0.00274446
0.000258684
0.00243644
0.000308021
0.00208306
0.00035338
0.00168977
0.000393288
0.00126299
0.000426778
0.000810208
0.000452781
0.000340094
0.000470114
-0.0001382
0.000478293
-0.00061441
0.00047621
-0.00107809
0.000463677
-0.00151853
0.000440439
-0.00192488
0.000406359
-0.0022867
0.000361819
-0.00259422
0.000307517
-0.00283847
0.000244247
-0.00301196
0.000173495
-0.00310865
9.66835e-05
-0.00312559
1.69394e-05
-0.00304786
-7.77304e-05
-0.00288373
-0.000164122
-0.0026379
-0.000245833
-0.0023158
-0.000322098
-0.00192498
-0.000390821
-0.00147505
-0.000449936
-0.000978563
-0.000496482
-0.000449814
-0.000528749
9.45564e-05
-0.00054437
0.000636537
-0.000541981
0.00115739
-0.000520857
0.0016385
-0.000481102
0.00206131
-0.000422813
0.00240919
-0.000347876
0.00266724
-0.000258052
0.00282369
-0.000156449
0.00287165
-4.79615e-05
0.00279348
7.81691e-05
0.00259682
0.000196655
0.00229016
0.000306661
0.00188437
0.000405796
0.00139378
0.000490592
0.000837806
0.000555971
0.000239819
0.000597987
-0.000373073
0.000612892
-0.000972414
0.000599341
-0.00152824
0.000555826
-0.0020129
0.000484662
-0.00240003
0.00038713
-0.0026683
0.000268271
-0.00280219
0.000133893
-0.00278714
-1.50509e-05
-0.00261869
-0.000168457
-0.00231185
-0.000306836
-0.00188394
-0.000427914
-0.00135888
-0.000525054
-0.000767778
-0.000591105
-0.000148559
-0.000619219
0.000458366
-0.000606925
0.00100984
-0.000551476
0.00146639
-0.000456546
0.00179346
-0.000327069
0.00196466
-0.000171204
0.00195957
5.08844e-06
0.00176702
0.000192555
0.0014083
0.000358719
0.000908523
0.000499776
0.000303442
0.000605081
-0.000359638
0.000663081
-0.00102466
0.000665026
-0.00163353
0.000608862
-0.00213083
0.000497302
-0.00246828
0.000337447
-0.00261142
0.000143148
-0.00252768
-8.37494e-05
-0.00222307
-0.00030461
-0.00172604
-0.000497025
-0.00107684
-0.000649202
-0.000332763
-0.000744076
0.000435122
-0.000767885
0.00114908
-0.00071396
0.00173635
-0.000587271
0.00213586
-0.00039951
0.00230651
-0.000170648
0.00222047
8.60443e-05
0.0018959
0.000324565
0.00137706
0.000518837
0.000725624
0.000651441
2.22229e-05
0.000703401
-0.000637785
0.000660008
-0.00117471
0.000536922
-0.00152216
0.000347457
-0.0016408
0.000118631
-0.00151046
-0.000130337
-0.00117201
-0.000338444
-0.00068454
-0.000487474
-0.000129378
-0.000555161
0.000398866
-0.000528244
0.000811345
-0.000412479
0.00104231
-0.000230965
0.0010579
-1.5586e-05
0.000846312
0.000211583
0.00046479
0.000381523
-1.86324e-05
0.000483422
-0.000514096
0.000495463
-0.000923915
0.000409819
-0.0011735
0.000249584
-0.00121738
4.38785e-05
-0.00103037
-0.000187009
-0.000660085
-0.000370283
-0.000166307
-0.000493778
0.000367019
-0.000533326
0.000842564
-0.000475545
0.00118328
-0.00034072
0.00133178
-0.000148499
0.00125701
7.47719e-05
0.000978366
0.000278646
0.000536327
0.000442039
0.000536327
0.00013967
-0.000144234
0.000295275
-0.000165972
0.0004525
-0.000166335
0.00061062
-0.000164677
0.000768146
-0.000161472
0.00092429
-0.000156675
0.00107639
-0.00014997
0.00122353
-0.000141414
0.00136445
-0.00013069
0.00149785
-0.000117963
0.00162222
-0.00010315
0.00173624
-8.66256e-05
0.00183911
-6.88766e-05
0.00193051
-5.05026e-05
0.00200919
-3.05637e-05
0.00207221
-7.31996e-06
0.00211005
2.5874e-05
0.00212663
5.55091e-05
0.00212299
8.43623e-05
0.00209973
0.000112751
0.00205725
0.000140784
0.00199599
0.000168323
0.00191617
0.000195347
0.00181821
0.000221568
0.00170231
0.000247094
0.00156906
0.000271349
0.00141878
0.000294664
0.00125252
0.000316227
0.00107088
0.000336452
0.000875242
0.000354481
0.000666839
0.000370569
0.000447316
0.000384113
0.000218507
0.000394964
-1.75937e-05
0.000402762
-0.000258815
0.000407273
-0.00050258
0.000407898
-0.000746831
0.000405111
-0.000990928
0.000400127
-0.00123358
0.000392259
-0.00147277
0.000380789
-0.00170583
0.000364906
-0.00192978
0.00034436
-0.00214234
0.000319792
-0.00234051
0.000290517
-0.0025203
0.000255545
-0.00267943
0.000216699
-0.00281467
0.000173366
-0.00292463
0.000126696
-0.00301158
7.54665e-05
-0.00306988
1.80948e-05
-0.00309282
-4.59556e-05
-0.00308171
-0.00010892
-0.00303576
-0.000172809
-0.0029546
-0.000236935
-0.00283815
-0.000300769
-0.00268677
-0.000363516
-0.00250105
-0.000424817
-0.00228191
-0.00048385
-0.00203092
-0.000539984
-0.00174954
-0.000592857
-0.00144045
-0.00064125
-0.00110666
-0.000684243
-0.000751556
-0.000721123
-0.000379134
-0.000750698
6.41904e-06
-0.000772669
0.000400316
-0.000785721
0.000797747
-0.000789694
0.0011933
-0.000783576
0.00158133
-0.000766967
0.00195627
-0.000739662
0.0023123
-0.00070174
0.00264369
-0.000652678
0.00294447
-0.000592614
0.00320969
-0.000522845
0.00343369
-0.000442642
0.00361191
-0.000353799
0.00373991
-0.000256754
0.00381464
-0.000153736
0.00383179
-4.46183e-05
0.00378479
8.06421e-05
0.00367525
0.000202311
0.00350515
0.000320524
0.00327561
0.00043554
0.00298923
0.000545056
0.00264903
0.000648222
0.00225994
0.000742474
0.00182766
0.000825568
0.00135952
0.000894918
0.000863503
0.000948798
0.000349095
0.000984522
-0.000173659
0.00100105
-0.000693469
0.000996021
-0.00119886
0.000969064
-0.00167838
0.000919963
-0.00212019
0.000848166
-0.00251256
0.000754197
-0.00284516
0.000640117
-0.00310793
0.000507016
-0.00329277
0.000358332
-0.00339415
0.000198062
-0.00340565
2.84379e-05
-0.00331765
-0.000165731
-0.00313713
-0.000344635
-0.00286767
-0.000515299
-0.00251452
-0.000675246
-0.00208617
-0.000819175
-0.001593
-0.000943099
-0.00104911
-0.00104038
-0.000471006
-0.00110685
0.00012351
-0.00113889
0.000714999
-0.00113347
0.00128281
-0.00108867
0.00180642
-0.00100471
0.00226622
-0.000882614
0.00264303
-0.000724685
0.00292151
-0.000536529
0.00308825
-0.000323198
0.00313485
-9.45595e-05
0.00304651
0.000166511
0.00283193
0.000411239
0.00249725
0.000641337
0.00205419
0.000848854
0.00151845
0.00102633
0.000912729
0.00116169
0.000261403
0.00124931
-0.000405271
0.00127957
-0.001056
0.00125007
-0.00165845
0.00115827
-0.00218175
0.00100797
-0.00259787
0.000803246
-0.00288269
0.000553089
-0.00302062
0.000271825
-0.00299354
-4.21273e-05
-0.00280408
-0.000357919
-0.00246377
-0.000647149
-0.00199112
-0.000900564
-0.00141166
-0.00110451
-0.000760768
-0.001242
-7.89353e-05
-0.00130105
0.000584469
-0.00127033
0.00118744
-0.00115444
0.00168568
-0.000954784
0.00204127
-0.000682659
0.0022256
-0.000355537
0.00221476
1.59245e-05
0.00200556
0.000401762
0.00161409
0.000750185
0.0010678
0.00104607
0.000406119
0.00126676
-0.000318887
0.00138809
-0.00104559
0.00139173
-0.0017114
0.00127467
-0.00225451
0.00104041
-0.00262359
0.000706525
-0.00278001
0.000299568
-0.00269221
-0.000171541
-0.00236854
-0.000628284
-0.00183494
-0.00103063
-0.00113644
-0.0013477
-0.00033622
-0.0015443
0.000489063
-0.00159317
0.00125304
-0.00147793
0.00187783
-0.00121206
0.00229763
-0.000819318
0.00246869
-0.000341699
0.00236263
0.000192096
0.00200228
0.000684922
0.0014325
0.00108861
0.000723596
0.00136035
-3.56915e-05
0.00146269
-0.000746368
0.00137069
-0.00131712
0.00110767
-0.00167658
0.00070692
-0.00178432
0.000226371
-0.00162465
-0.000290009
-0.0012404
-0.000722693
-0.000696304
-0.00103157
-8.15414e-05
-0.00116992
0.000492451
-0.00110224
0.000937138
-0.000857165
0.00118039
-0.000474216
0.00118225
-1.74459e-05
0.000946809
0.000447022
0.000526131
0.0008022
-2.27976e-06
0.00101183
-0.000540544
0.00103373
-0.000982473
0.000851748
-0.00124902
0.000516132
-0.00129375
8.8609e-05
-0.00109682
-0.000383939
-0.000705252
-0.000761852
-0.000185015
-0.00101402
0.000373584
-0.00109193
0.000868313
-0.000970274
0.00121916
-0.000691562
0.00136851
-0.000297856
0.00129037
0.000152911
0.00100284
0.000566176
0.000548966
0.000895916
0.00108529
7.02068e-05
-0.000214441
0.00014909
-0.000244856
0.000223593
-0.000240839
0.000290836
-0.000231922
0.000346882
-0.000217519
0.000389046
-0.00019884
0.000412552
-0.000173476
0.000415502
-0.000144366
0.000393107
-0.000108296
0.00034579
-7.06467e-05
0.000272303
-2.96639e-05
0.000181769
3.90765e-06
7.78138e-05
3.50779e-05
-4.10197e-05
6.83299e-05
-0.00017401
0.000102426
-0.000318071
0.00013674
-0.000464204
0.000172006
-0.000615715
0.000207019
-0.000773926
0.000242573
-0.0009384
0.000277224
-0.00110877
0.000311157
-0.00128377
0.00034332
-0.00146246
0.000374034
-0.00164307
0.000402176
-0.00182478
0.000428807
-0.00200612
0.000452683
-0.00218745
0.000475998
-0.00236825
0.000497028
-0.00255029
0.000518493
-0.00273426
0.000538447
-0.00292165
0.000557957
-0.00311287
0.000575334
-0.00330848
0.000590572
-0.00350797
0.000602252
-0.00371073
0.00061004
-0.00391569
0.000612855
-0.00412109
0.000610508
-0.00432302
0.000602056
-0.00451811
0.000587346
-0.00470333
0.000566017
-0.00487618
0.00053775
-0.00503423
0.000502408
-0.00517426
0.000459824
-0.00529405
0.000410307
-0.0053921
0.000353593
-0.00546564
0.000290239
-0.00551147
0.000219198
-0.00552952
0.000144747
-0.00551565
6.16024e-05
-0.00545621
-4.13462e-05
-0.0053584
-0.000143763
-0.00522234
-0.000244981
-0.00504861
-0.000346542
-0.00483816
-0.000447387
-0.00459095
-0.000547976
-0.00430783
-0.000646636
-0.0039902
-0.000742447
-0.00363838
-0.000835675
-0.0032545
-0.000923864
-0.00284008
-0.00100727
-0.00239848
-0.00108285
-0.00193237
-0.00115036
-0.00144613
-0.00120737
-0.000944087
-0.00125274
-0.000431259
-0.0012855
8.71215e-05
-0.0013041
0.000605285
-0.00130786
0.00111701
-0.0012953
0.00161595
-0.0012659
0.00209528
-0.00121899
0.00254858
-0.00115504
0.00296902
-0.00107312
0.00334963
-0.000973229
0.00368431
-0.000857525
0.00396725
-0.000725583
0.00419208
-0.000578621
0.00435536
-0.000420036
0.00445129
-0.000249663
0.004479
-7.23288e-05
0.00442856
0.00013108
0.00430437
0.000326495
0.00410684
0.000518063
0.00383755
0.000704821
0.00349882
0.00088379
0.00309508
0.00105197
0.00263162
0.00120592
0.0021164
0.00134079
0.00155761
0.0014537
0.000965804
0.00154061
0.000352081
0.00159825
-0.000270706
0.00162383
-0.000889934
0.00161525
-0.00149104
0.00157017
-0.00206102
0.00148994
-0.00258496
0.00137211
-0.00304924
0.00121848
-0.00344108
0.00103196
-0.00374907
0.000815006
-0.003964
0.00057326
-0.00407701
0.000311072
-0.0040772
2.8629e-05
-0.00396618
-0.000276747
-0.00374539
-0.000565426
-0.0034177
-0.000842992
-0.00299019
-0.00110276
-0.00247229
-0.00133707
-0.00187867
-0.00153672
-0.00122469
-0.00169436
-0.000530352
-0.00180118
0.000182914
-0.00185215
0.000890853
-0.00184141
0.00156974
-0.00176756
0.00219482
-0.00162979
0.00274117
-0.00142896
0.00318799
-0.0011715
0.00351609
-0.000864635
0.00370974
-0.00051685
0.00375721
-0.000142023
0.00364679
0.000276924
0.00338639
0.000671647
0.0029834
0.00104432
0.0024504
0.00138185
0.00180822
0.00166852
0.00108131
0.0018886
0.000302486
0.00202814
-0.000493629
0.00207568
-0.00126798
0.00202442
-0.00198273
0.00187303
-0.0026001
0.00162533
-0.00308783
0.00129097
-0.00341778
0.000883041
-0.00356868
0.000422732
-0.00352262
-8.81894e-05
-0.00328523
-0.000595315
-0.00286841
-0.00106396
-0.00229254
-0.00147644
-0.00159044
-0.00180661
-0.000804108
-0.00202833
1.66246e-05
-0.00212178
0.000817917
-0.00207162
0.00154284
-0.00187937
0.00213962
-0.00155156
0.0025633
-0.00110634
0.00277889
-0.000571134
0.00276021
3.4609e-05
0.002508
0.000653968
0.00203759
0.0012206
0.00138014
0.00170352
0.000584166
0.00206273
-0.000287545
0.0022598
-0.00116061
0.0022648
-0.00195859
0.00207264
-0.002609
0.00169082
-0.00305077
0.0011483
-0.0032368
0.000485596
-0.00313507
-0.000273268
-0.00275539
-0.00100796
-0.00212592
-0.0016601
-0.00130067
-0.00217294
-0.000357449
-0.00248752
0.000611202
-0.00256182
0.00150569
-0.00237242
0.00223057
-0.00193694
0.00270897
-0.00129772
0.00288737
-0.000520098
0.00274245
0.000337012
0.00229948
0.00112789
0.00161106
0.00177703
0.000762081
0.00220933
-0.000138602
0.00236337
-0.000972412
0.00220449
-0.0016309
0.00176616
-0.00203256
0.00110858
-0.00212726
0.000321073
-0.00190958
-0.000507689
-0.00142636
-0.00120591
-0.000757851
-0.00170009
-1.40498e-05
-0.00191373
0.00067133
-0.00178762
0.00119424
-0.00138008
0.00147225
-0.000752225
0.00145473
8.02984e-08
0.00116232
0.000739431
0.000650073
0.00131444
1.44693e-05
0.00164744
-0.000623618
0.00167182
-0.00114274
0.00137087
-0.00145068
0.000824076
-0.00149667
0.000134593
-0.00126814
-0.000612461
-0.000815732
-0.00121426
-0.000220313
-0.00160943
0.000412588
-0.00172483
0.000966022
-0.00152371
0.00135406
-0.0010796
0.00151505
-0.000458845
0.00142434
0.000243625
0.00110328
0.000887233
0.000602758
0.00139644
0.00168805
0.00025381
-0.000468252
0.000534106
-0.000525154
0.000824804
-0.000531537
0.00112793
-0.000535052
0.00144376
-0.000533346
0.00177591
-0.000530996
0.00211992
-0.00051748
0.00247665
-0.000501102
0.0028371
-0.000468741
0.0031926
-0.000426153
0.00352629
-0.000363353
0.00382594
-0.000295738
0.00408411
-0.000223097
0.00430468
-0.000152238
0.00448881
-8.17044e-05
0.00462424
1.30734e-06
0.00470796
8.82824e-05
0.00474903
0.000165948
0.00475115
0.000240456
0.0047208
0.000307576
0.00466024
0.000371714
0.0045715
0.000432058
0.00445321
0.000492328
0.00430724
0.000548136
0.00412988
0.000606171
0.00392437
0.000658195
0.003685
0.000715369
0.00341766
0.000764369
0.00311438
0.000821765
0.00278243
0.0008704
0.00241976
0.000920629
0.0020327
0.000962386
0.00162406
0.000999214
0.00120051
0.0010258
0.000765892
0.00104466
0.000320094
0.00105865
-0.000134617
0.00106522
-0.000594802
0.00106224
-0.00105591
0.00104845
-0.00151152
0.00102163
-0.00195482
0.000981044
-0.00238092
0.000928512
-0.00278511
0.000864009
-0.00315935
0.00078455
-0.00349958
0.000693822
-0.00380196
0.000592622
-0.00406466
0.000481889
-0.00427428
0.000354374
-0.00443653
0.000223852
-0.00455636
7.84811e-05
-0.00462363
-7.64929e-05
-0.0046363
-0.000232315
-0.00459283
-0.000390006
-0.00449221
-0.000548013
-0.00433472
-0.000705463
-0.00412047
-0.000860888
-0.00385091
-0.001012
-0.00352794
-0.00115865
-0.00315485
-0.00129695
-0.00273499
-0.00142713
-0.00227311
-0.00154473
-0.00177411
-0.00164935
-0.00124367
-0.00173781
-0.00068761
-0.00180879
-0.000112558
-0.00186055
0.000474171
-0.00189083
0.00106514
-0.00189882
0.00165207
-0.00188224
0.00222697
-0.0018408
0.00278113
-0.00177316
0.0033062
-0.0016801
0.00379286
-0.00155978
0.00423401
-0.00141438
0.00462079
-0.0012443
0.00494615
-0.00105094
0.00520265
-0.000835122
0.005384
-0.000601384
0.00548565
-0.000351313
0.00550291
-8.95956e-05
0.00542678
0.000207215
0.00526283
0.00049044
0.00501071
0.000770189
0.00467236
0.00104316
0.00425039
0.00130576
0.00374992
0.00155244
0.00317762
0.00177822
0.00254332
0.00197509
0.00185721
0.00213981
0.00113183
0.00226599
0.000381114
0.00234896
-0.000380388
0.00238534
-0.00113563
0.00237049
-0.00186795
0.0023025
-0.00256071
0.0021827
-0.00319621
0.00200761
-0.00375777
0.00178004
-0.00422998
0.00150417
-0.00459927
0.0011843
-0.00485393
0.000827918
-0.00498204
0.000439179
-0.00497312
1.97092e-05
-0.00483185
-0.00041801
-0.00455704
-0.000840243
-0.00415187
-0.00124815
-0.00362432
-0.00163031
-0.00298709
-0.00197431
-0.00225699
-0.00226682
-0.00145535
-0.002496
-0.000605376
-0.00265115
0.000266577
-0.00272411
0.00113133
-0.00270616
0.0019582
-0.00259442
0.0027169
-0.0023885
0.00338085
-0.00209291
0.00391928
-0.00170993
0.00431199
-0.00125735
0.00453969
-0.000744548
0.00458631
-0.000188645
0.00444733
0.000415908
0.00412557
0.000993407
0.00362878
0.00154111
0.00297414
0.00203649
0.00218652
0.00245613
0.00129788
0.00277724
0.000349463
0.00297655
-0.000618834
0.00304398
-0.0015596
0.00296518
-0.00242432
0.00273775
-0.00317068
0.00237169
-0.00375357
0.00187386
-0.00414218
0.00127165
-0.00430881
0.000589367
-0.00424007
-0.000156933
-0.00393946
-0.000895925
-0.0034186
-0.00158482
-0.00270302
-0.00219202
-0.00183614
-0.00267348
-0.000868438
-0.00299604
0.000139832
-0.00313005
0.0011201
-0.00305189
0.0020057
-0.00276497
0.00273197
-0.00227783
0.00324502
-0.00161938
0.00350042
-0.000826533
0.00347206
6.2963e-05
0.00315909
0.000966942
0.00257991
0.00179978
0.00177321
0.00251022
0.000798545
0.0030374
-0.00026684
0.00332518
-0.00133226
0.00333022
-0.00230535
0.00304574
-0.00309764
0.00248311
-0.00363344
0.0016841
-0.00385821
0.00071036
-0.00373691
-0.00039456
-0.00327869
-0.00146618
-0.00251895
-0.00241985
-0.00152497
-0.00316692
-0.000388409
-0.00362408
0.000776665
-0.00372689
0.00184396
-0.00343972
0.00270344
-0.00279641
0.00325964
-0.00185392
0.00345411
-0.000714564
0.00325716
0.000533959
0.00270085
0.00168421
0.00185165
0.00262623
0.000817007
0.00324397
-0.000273289
0.00345367
-0.00127123
0.00320244
-0.00204851
0.00254344
-0.00250489
0.00156496
-0.00258552
0.000401708
-0.00228943
-0.000803777
-0.00167418
-0.00182117
-0.000842583
-0.00253168
6.84604e-05
-0.00282477
0.000906267
-0.00262542
0.00153225
-0.00200606
0.00185052
-0.0010705
0.00181122
3.93782e-05
0.00143952
0.00111113
0.000804811
0.00194915
2.59113e-05
0.00242634
-0.000742453
0.00244018
-0.00136063
0.00198904
-0.00172449
0.00118794
-0.00176886
0.000178962
-0.00149338
-0.00088794
-0.000957843
-0.0017498
-0.000260996
-0.00230628
0.000472271
-0.00245809
0.00110539
-0.00215683
0.00154179
-0.00151601
0.00171411
-0.00063116
0.00160531
0.000352418
0.00123903
0.00125352
0.000674869
0.0019606
0.00236292
0.000416922
-0.000885175
0.000879151
-0.000987383
0.00135136
-0.00100374
0.00183367
-0.00101736
0.00231381
-0.00101349
0.00278413
-0.00100132
0.00318447
-0.000917816
0.00348791
-0.000804545
0.00359745
-0.000578277
0.00354247
-0.000371172
0.00335695
-0.000177835
0.00311171
-5.05039e-05
0.00278683
0.000101784
0.0024143
0.000220288
0.00200949
0.000323112
0.0016005
0.000410293
0.00120332
0.000485457
0.000818625
0.000550646
0.000450258
0.000608821
9.93771e-05
0.000658456
-0.000235502
0.000706592
-0.000546814
0.000743369
-0.00083494
0.000780453
-0.00109321
0.000806409
-0.00132824
0.000841194
-0.00152747
0.000857432
-0.00170254
0.000890434
-0.00184141
0.000903238
-0.00198953
0.000969882
-0.00215725
0.00103812
-0.00236127
0.00112465
-0.00260417
0.00120528
-0.00288627
0.00128132
-0.00320528
0.00134482
-0.0035554
0.00139477
-0.00392575
0.00142901
-0.00430649
0.00144596
-0.00468956
0.00144531
-0.00506704
0.00142593
-0.0054334
0.00138799
-0.00578313
0.00133077
-0.00611022
0.0012556
-0.00640781
0.00116161
-0.00667328
0.00105002
-0.0069007
0.000921234
-0.00708481
0.00077674
-0.00722222
0.000619293
-0.00731372
0.000445873
-0.00735461
0.000264745
-0.00734503
6.8896e-05
-0.0072552
-0.000166317
-0.00710683
-0.000380684
-0.00690209
-0.000594747
-0.00663984
-0.000810267
-0.00632084
-0.00102446
-0.00594506
-0.00123666
-0.00551315
-0.00144392
-0.00502722
-0.00164457
-0.00449006
-0.00183412
-0.00390531
-0.00201188
-0.00327759
-0.00217246
-0.0026123
-0.00231464
-0.00191537
-0.00243475
-0.00119429
-0.00252987
-0.000456277
-0.00259857
0.000290669
-0.00263778
0.00103772
-0.00264587
0.00177604
-0.00262056
0.00249492
-0.00255968
0.00318483
-0.00246306
0.00383644
-0.00233171
0.00444045
-0.00216379
0.00498428
-0.00195822
0.00546177
-0.00172179
0.0058624
-0.00145157
0.00617683
-0.00114955
0.00639833
-0.000822886
0.00652073
-0.00047372
0.00653722
-0.000106083
0.00645146
0.000292982
0.00625815
0.000683741
0.00595732
0.00107103
0.00555025
0.00145023
0.00504224
0.00181378
0.00443897
0.00215571
0.00374985
0.00246734
0.00298548
0.00273947
0.00216022
0.00296507
0.00128758
0.00313863
0.000386008
0.00325053
-0.000528007
0.00329935
-0.00143316
0.00327564
-0.00231077
0.0031801
-0.00313931
0.00301124
-0.00389827
0.00276657
-0.00456712
0.00244889
-0.00512822
0.00206527
-0.00556536
0.00162144
-0.00586226
0.00112481
-0.0060044
0.000581318
-0.00598583
1.14247e-06
-0.00580852
-0.00059532
-0.00546959
-0.00117918
-0.00497476
-0.00174298
-0.00433267
-0.00227241
-0.00356022
-0.00274675
-0.00267718
-0.00314987
-0.00170767
-0.00346551
-0.000680681
-0.00367814
0.000368708
-0.0037735
0.0014075
-0.00374495
0.00239861
-0.00358553
0.0033089
-0.00329879
0.00410064
-0.00288465
0.0047462
-0.00235549
0.00520977
-0.00172092
0.00547229
-0.00100707
0.00552127
-0.000237629
0.00534796
0.000589221
0.0049536
0.00138777
0.0043498
0.00214491
0.00355646
0.00282983
0.00260472
0.00340788
0.00153312
0.00384884
0.000388415
0.00412126
-0.000772611
0.004205
-0.00189879
0.00409137
-0.00293187
0.00377083
-0.00381693
0.00325675
-0.00450924
0.00256617
-0.00496242
0.00172483
-0.00515308
0.000780029
-0.00505528
-0.000254739
-0.00467999
-0.00127121
-0.0040404
-0.00222441
-0.00316863
-0.00306379
-0.0021132
-0.00372891
-0.000942148
-0.00416709
0.00027813
-0.00435033
0.00146084
-0.0042346
0.00252613
-0.00383026
0.00339771
-0.00314941
0.00400964
-0.00223132
0.00430807
-0.00112496
0.00426652
0.000104515
0.00388507
0.00134839
0.00318173
0.00250312
0.00220386
0.00348809
0.00102655
0.0042147
-0.000256734
0.00460847
-0.0015389
0.00461239
-0.00270838
0.00421522
-0.00365927
0.00343399
-0.00429849
0.00232332
-0.00456443
0.000976303
-0.00441735
-0.000541643
-0.00386887
-0.00201467
-0.00295727
-0.00333145
-0.00176799
-0.0043562
-0.000413597
-0.00497848
0.000967629
-0.00510812
0.00223287
-0.00470497
0.00324094
-0.00380448
0.00388643
-0.0024994
0.00408924
-0.000917381
0.00383198
0.000791221
0.00314591
0.00237028
0.00211463
0.00365751
0.000868209
0.00449039
-0.000433903
0.00475578
-0.00161499
0.00438353
-0.00252143
0.00344987
-0.00303501
0.00207854
-0.00309899
0.000465685
-0.0027115
-0.00119127
-0.00194532
-0.00258734
-0.000928275
-0.00354873
0.000173939
-0.00392698
0.00117444
-0.00362592
0.0019134
-0.00274502
0.00227657
-0.00143366
0.00220742
0.000108521
0.00174269
0.00157587
0.000969056
0.00272279
3.06029e-05
0.00336479
-0.000883382
0.00335417
-0.00161125
0.00271691
-0.00202958
0.00160627
-0.00206794
0.00021732
-0.00173876
-0.00121712
-0.00110737
-0.00238118
-0.000296093
-0.00311756
0.000543908
-0.00329809
0.00126175
-0.00287467
0.0017455
-0.00199976
0.00193132
-0.00081698
0.0017999
0.000483837
0.00138308
0.00167034
0.000751343
0.00259234
0.00311426
-3.64045e-06
-0.000881535
4.57073e-05
-0.00103673
0.000207888
-0.00116593
0.000558473
-0.00136795
0.00116512
-0.00162014
0.00210164
-0.00193783
0.00323325
-0.00204943
0.00442313
-0.00199443
0.00535318
-0.00150833
0.00617325
-0.00119124
0.00680165
-0.000806231
0.00718326
-0.000432124
0.00735535
-7.03022e-05
0.00743194
0.000143696
0.00742849
0.000326567
0.00736817
0.000470612
0.00726707
0.00058655
0.00713932
0.000678403
0.00699404
0.000754102
0.00684536
0.000807135
0.00669928
0.000852671
0.00656133
0.000881311
0.00642112
0.000920671
0.00628899
0.000938535
0.00613808
0.0009921
0.00599297
0.00100254
0.00578481
0.0010986
0.00559583
0.00109221
0.0052355
0.00133021
0.0048016
0.00147202
0.00424981
0.00167644
0.0036222
0.00183289
0.00292146
0.00198206
0.00216672
0.00209955
0.00137172
0.00218977
0.000552784
0.00224794
-0.000275226
0.00227397
-0.00109846
0.00226854
-0.00190387
0.00223135
-0.0026805
0.00216462
-0.00341847
0.00206874
-0.00411042
0.00194755
-0.00474816
0.00179934
-0.00532416
0.00162602
-0.00583497
0.00143205
-0.00627513
0.0012169
-0.00663919
0.00098335
-0.00692524
0.000731927
-0.00712699
0.00046649
-0.00724428
0.000186188
-0.00730434
-0.000106259
-0.00728055
-0.000404473
-0.0071722
-0.000703101
-0.0069785
-0.00100396
-0.00670133
-0.00130163
-0.00634379
-0.00159421
-0.00590937
-0.00187833
-0.00540209
-0.00215186
-0.00482667
-0.00240953
-0.00418839
-0.00265016
-0.00349448
-0.00286637
-0.00275095
-0.00305817
-0.00196614
-0.00321955
-0.00114893
-0.00334708
-0.000308159
-0.00343933
0.000545053
-0.00349099
0.00140056
-0.00350138
0.0022471
-0.0034671
0.00307419
-0.00338677
0.00386873
-0.00325761
0.0046193
-0.00308228
0.00531145
-0.00285594
0.00593635
-0.00258311
0.00648238
-0.00226783
0.00693723
-0.00190642
0.00729219
-0.00150451
0.00754197
-0.00107266
0.00767777
-0.000609516
0.00769179
-0.000120102
0.00757741
0.000407357
0.0073387
0.000922447
0.00697548
0.00143425
0.00648831
0.0019374
0.00588405
0.00241804
0.00516875
0.00287101
0.00435453
0.00328157
0.00345319
0.0036408
0.00248051
0.00393775
0.00145359
0.00416555
0.000393434
0.00431069
-0.000679608
0.00437239
-0.00174107
0.00433711
-0.00276825
0.00420728
-0.00373727
0.00398026
-0.00462338
0.00365268
-0.00540299
0.00322849
-0.00605612
0.0027184
-0.00655918
0.0021245
-0.00689399
0.00145963
-0.00705529
0.000742616
-0.00702649
-2.76603e-05
-0.00681026
-0.000811548
-0.0064042
-0.00158523
-0.00581325
-0.00233393
-0.00505291
-0.00303275
-0.00413931
-0.00366035
-0.00309719
-0.00419199
-0.00195564
-0.00460706
-0.00075264
-0.00488114
0.000480199
-0.00500633
0.00169878
-0.00496353
0.00286173
-0.00474849
0.00392683
-0.00436389
0.00484756
-0.00380538
0.00559381
-0.00310174
0.00613255
-0.00225966
0.00643372
-0.00130823
0.00648403
-0.000287945
0.00627041
0.000802841
0.00579898
0.0018592
0.00508242
0.00286147
0.00414408
0.00376817
0.00302244
0.00452952
0.00176447
0.00510681
0.000422841
0.00546289
-0.000941231
0.00556908
-0.00225742
0.00540756
-0.00346556
0.00497897
-0.00449444
0.00428563
-0.00529431
0.00336603
-0.00581367
0.00224419
-0.00601931
0.000985674
-0.00589347
-0.000380579
-0.00544023
-0.00172445
-0.00467438
-0.00299026
-0.00363922
-0.00409895
-0.00239404
-0.00497409
-0.00100603
-0.0055551
0.000426687
-0.00578305
0.00181592
-0.00562383
0.00306451
-0.00507886
0.00408299
-0.00416789
0.00479126
-0.00293958
0.00513601
-0.00146971
0.00507974
0.000160781
0.00462424
0.00180389
0.00379044
0.00333692
0.0026377
0.00464083
0.00125271
0.00559969
-0.000254846
0.00611602
-0.0017579
0.00611544
-0.00312729
0.00558462
-0.00423965
0.00454634
-0.00498364
0.00306731
-0.00528853
0.00128119
-0.00511477
-0.000715406
-0.00446955
-0.00265989
-0.00340395
-0.00439705
-0.00201428
-0.00574586
-0.000438564
-0.0065542
0.00117226
-0.00671894
0.00263365
-0.00616636
0.00379738
-0.00496821
0.00452456
-0.00322659
0.0047403
-0.00113312
0.0044181
0.00111342
0.00359591
0.00319248
0.00237596
0.00487746
0.000911275
0.00595507
-0.000608012
0.00627507
-0.00197704
0.00575255
-0.00301484
0.00448767
-0.00358691
0.00265062
-0.00362309
0.000501871
-0.00313644
-0.00167792
-0.00221191
-0.00351188
-0.00100376
-0.00475687
0.000293971
-0.00522472
0.00146021
-0.00479216
0.00230841
-0.00359322
0.00270902
-0.00183428
0.00260911
0.000208431
0.00204511
0.00213987
0.0011275
0.0036404
2.88322e-05
0.00446346
-0.00103174
0.00441474
-0.00187096
0.00355612
-0.0023398
0.00207511
-0.00236956
0.000247089
-0.00197808
-0.00160861
-0.00124871
-0.00311056
-0.000325785
-0.00404048
0.000621585
-0.00424546
0.00141822
-0.00367131
0.00194935
-0.00253088
0.00213975
-0.00100738
0.00198343
0.000640157
0.00151825
0.00213552
0.000822589
0.003288
0.00393685
-0.000103032
-0.000778504
-8.41508e-05
-0.00105561
0.000293928
-0.00154401
0.00133313
-0.00240715
0.00332886
-0.00361588
0.00640391
-0.00501288
0.00999653
-0.00564205
0.0131634
-0.00516127
0.0139825
-0.00232747
0.0131507
-0.000359407
0.0115358
0.00080866
0.00976183
0.00134183
0.00814048
0.00155105
0.00666034
0.00162383
0.00533598
0.00165093
0.00415643
0.00165016
0.00311938
0.00162359
0.00222394
0.00157385
0.00146948
0.00150856
0.000836387
0.00144023
0.000304251
0.00138481
-8.29402e-05
0.0012685
-0.000357159
0.00119489
-0.000493314
0.00107469
-0.000525733
0.00102452
-0.00037818
0.000854988
-0.000112726
0.000833143
0.000420501
0.000558986
0.000634303
0.00111641
0.00060232
0.00150401
0.000301239
0.00197752
-0.000191155
0.00232529
-0.000814563
0.00260547
-0.00152089
0.00280588
-0.00227312
0.002942
-0.00304748
0.00302231
-0.00382103
0.00304752
-0.00457997
0.00302748
-0.00530977
0.00296115
-0.00600154
0.00285639
-0.00664662
0.00271382
-0.0072342
0.00253513
-0.00776464
0.00232977
-0.00822801
0.0020894
-0.00862558
0.00182962
-0.00894705
0.00153838
-0.0091977
0.001234
-0.00936545
0.000899674
-0.00946242
0.000563466
-0.00947406
0.000197821
-0.00938836
-0.000191961
-0.00922334