/*--------------------------------*- C++ -*----------------------------------*\
  =========                 |
  \\      /  F ield         | OpenFOAM: The Open Source CFD Toolbox
   \\    /   O peration     | Website:  https://openfoam.org
    \\  /    A nd           | Version:  12
     \\/     M anipulation  |
\*---------------------------------------------------------------------------*/
FoamFile
{
    format      ascii;
    class       volScalarField;
    location    "9.58";
    object      p_rgh;
}
// * * * * * * * * * * * * * * * * * * * * * * * * * * * * * * * * * * * * * //

dimensions      [1 -1 -2 0 0 0 0];

internalField   nonuniform List<scalar> 
3829
(
4.03583
4.03432
4.03123
4.0265
4.02007
4.01186
4.00179
3.98978
3.97575
3.95961
3.94128
3.92073
3.8979
3.87279
3.84538
3.81558
3.78329
3.74839
3.71077
3.67033
3.627
3.58065
3.53109
3.47807
3.42135
3.36082
3.29645
3.22829
3.15645
3.08106
3.00231
2.9204
2.8356
2.74817
2.65837
2.5665
2.47288
2.37784
2.28172
2.18488
2.08768
1.99051
1.89376
1.7978
1.70303
1.60983
1.51859
1.42967
1.34342
1.26017
1.18023
1.10385
1.03126
0.962627
0.900338
0.843196
0.791182
0.744295
0.702522
0.665806
0.634064
0.607195
0.585065
0.567513
0.55431
0.545161
0.539721
0.537598
0.538351
0.541451
0.546409
0.552594
0.559441
0.566343
0.572699
0.5779
0.581349
0.582473
0.580738
0.575659
0.566813
0.553872
0.536599
0.514268
0.487059
0.455116
0.418648
0.377946
0.33335
0.285323
0.234454
0.181444
0.127102
0.0721963
0.0179063
-0.0348865
-0.0851727
-0.131939
-0.174222
-0.211119
-0.241813
-0.265639
-0.282101
-0.290887
-0.291204
-0.283522
-0.268275
-0.245992
-0.217385
-0.183412
-0.145226
-0.104177
-0.0617203
-0.019514
0.0208953
0.0579332
0.090118
0.116118
0.134823
0.145439
0.147514
0.139582
0.12291
0.098197
0.066347
0.0286309
-0.0133667
-0.0577859
-0.102635
-0.145777
-0.185241
-0.219166
-0.245992
-0.264586
-0.274366
-0.272123
-0.260864
-0.241309
-0.214584
-0.18236
-0.146607
-0.109618
-0.0737083
-0.0410465
-0.0136066
0.00706102
0.0199326
0.0245951
0.0212926
0.0110667
-0.0046329
-0.0239201
-0.0446476
-0.0646288
-0.0818269
-0.094613
-0.101809
-0.102847
-0.0975786
-0.0872059
-0.0731787
-0.0573356
-0.0416462
-0.0282222
-0.018694
-0.0143263
-0.0157465
-0.0231408
-0.0356299
-0.0521676
-0.0715204
-0.0907006
-0.108377
-0.122976
-0.133283
-0.138507
-0.138831
-0.134604
-0.126482
-0.116639
-0.106303
-0.0968101
-0.0894489
-0.0851164
-0.0842368
-0.0867219
-0.0920628
-0.0993391
-0.107368
-0.11496
-0.120875
-0.12431
-0.124705
-0.121983
-0.11653
-0.10914
-0.100927
-0.0931568
-0.0870705
-0.0837063
4.23236
4.23156
4.22991
4.22733
4.22373
4.21898
4.2129
4.20528
4.19584
4.18417
4.16967
4.15118
4.12866
4.10311
4.07507
4.04444
4.01101
3.9742
3.93384
3.8898
3.84217
3.79115
3.73672
3.67666
3.60951
3.53691
3.45959
3.37794
3.29224
3.20273
3.10963
3.01154
2.91221
2.81023
2.70591
2.59965
2.49185
2.38291
2.27318
2.16307
2.053
1.94344
1.83483
1.72766
1.62239
1.5195
1.41944
1.32267
1.22961
1.14073
1.05644
0.977156
0.903256
0.835157
0.770804
0.712812
0.661134
0.615767
0.576684
0.543818
0.517081
0.496334
0.481362
0.471887
0.467549
0.467923
0.472541
0.48088
0.492343
0.506299
0.522263
0.539167
0.55646
0.573399
0.589233
0.603204
0.614579
0.622661
0.626797
0.626399
0.620969
0.610073
0.593468
0.57058
0.54153
0.506437
0.465521
0.419124
0.367703
0.311885
0.252439
0.190261
0.126372
0.0618114
-0.00209255
-0.0641685
-0.123166
-0.177833
-0.226982
-0.269504
-0.304408
-0.330872
-0.348261
-0.356069
-0.354006
-0.342348
-0.321499
-0.292097
-0.255088
-0.211692
-0.163363
-0.111771
-0.058694
-0.00624586
0.0436923
0.0892032
0.128482
0.159916
0.182154
0.194185
0.195402
0.185392
0.1647
0.134083
0.0947497
0.0483798
-0.00299602
-0.0570885
-0.111443
-0.163335
-0.210367
-0.250248
-0.281027
-0.301181
-0.309672
-0.306843
-0.292478
-0.267724
-0.234276
-0.19437
-0.150517
-0.10564
-0.0625447
-0.0238671
0.00806429
0.0314897
0.0452073
0.0481067
0.0414837
0.0265968
0.00534761
-0.019879
-0.0464013
-0.0715131
-0.092716
-0.108085
-0.11641
-0.117593
-0.109293
-0.0953504
-0.0771727
-0.0569643
-0.0371454
-0.0203239
-0.00845584
-0.00305091
-0.00483391
-0.0136261
-0.0285469
-0.0481627
-0.0709969
-0.0933
-0.113598
-0.130024
-0.141181
-0.146364
-0.145757
-0.139967
-0.129497
-0.117524
-0.105153
-0.0939837
-0.0854962
-0.0806853
-0.0799776
-0.0832096
-0.0897198
-0.0983962
-0.10785
-0.116703
-0.123545
-0.127469
-0.127866
-0.124681
-0.11838
-0.109887
-0.100475
-0.0915981
-0.084655
-0.0808187
4.36395
4.36351
4.36261
4.36118
4.35912
4.35633
4.35266
4.34798
4.34215
4.33512
4.32703
4.31871
4.31031
4.30038
4.28536
4.26495
4.23875
4.20689
4.16904
4.12484
4.07376
4.01516
3.94889
3.87734
3.80217
3.72179
3.6363
3.5451
3.44805
3.34529
3.23707
3.12376
3.00596
2.88412
2.75876
2.63049
2.4999
2.36768
2.23457
2.10129
1.96855
1.83702
1.70738
1.5803
1.45638
1.33627
1.22054
1.10978
1.00449
0.905142
0.812165
0.726006
0.647017
0.575312
0.510883
0.455645
0.408797
0.37007
0.339351
0.316527
0.301465
0.29396
0.293702
0.300286
0.313217
0.33191
0.355692
0.383831
0.415522
0.449895
0.486039
0.522959
0.559671
0.595171
0.62845
0.658494
0.684332
0.705047
0.719773
0.727728
0.728251
0.720771
0.704903
0.680355
0.647185
0.605518
0.555627
0.498
0.433334
0.362543
0.28672
0.207122
0.125163
0.0423454
-0.0396401
-0.119127
-0.194415
-0.263815
-0.325724
-0.378656
-0.421276
-0.452456
-0.471293
-0.477403
-0.47057
-0.451035
-0.419307
-0.376313
-0.323422
-0.262322
-0.195007
-0.123711
-0.0506046
0.0208691
0.0883963
0.149484
0.201763
0.243101
0.271745
0.286389
0.286183
0.271479
0.242505
0.20029
0.146604
0.0838198
0.014768
-0.0573718
-0.129641
-0.197702
-0.258748
-0.309746
-0.34815
-0.372039
-0.380223
-0.37349
-0.351665
-0.316266
-0.269742
-0.215186
-0.156079
-0.0965484
-0.0402354
0.00931945
0.0491594
0.0773435
0.0933607
0.0915025
0.0782288
0.054464
0.0227246
-0.0136761
-0.0510441
-0.0856583
-0.114107
-0.133797
-0.142941
-0.140599
-0.129827
-0.109967
-0.0841689
-0.0558031
-0.028207
-0.00516101
0.0108801
0.0180407
0.0155136
0.00381587
-0.0157971
-0.0412066
-0.0704432
-0.098467
-0.123494
-0.143143
-0.155718
-0.160616
-0.158121
-0.149427
-0.134629
-0.118819
-0.102751
-0.0885861
-0.0781397
-0.0725564
-0.072267
-0.0769338
-0.085607
-0.0968333
-0.108855
-0.119971
-0.128449
-0.133208
-0.133568
-0.129519
-0.121675
-0.111189
-0.0996331
-0.0887698
-0.0802951
-0.0756238
4.61104
4.61317
4.61743
4.62373
4.63191
4.6417
4.65275
4.66463
4.67684
4.68886
4.70046
4.71087
4.71635
4.71571
4.71065
4.70013
4.68337
4.66077
4.62867
4.58801
4.53824
4.47893
4.40984
4.33091
4.24242
4.14457
4.03704
3.92117
3.79234
3.65414
3.50789
3.35477
3.19594
3.03254
2.86571
2.69643
2.52558
2.3541
2.18282
2.01288
1.84509
1.68032
1.51941
1.36321
1.21249
1.06801
0.930488
0.800549
0.678894
0.566108
0.462661
0.369024
0.28566
0.213002
0.151691
0.10026
0.0593096
0.0291457
0.0098439
0.00130372
0.00324925
0.0152225
0.0366527
0.0668757
0.105131
0.150563
0.20223
0.259086
0.319989
0.383728
0.449015
0.514534
0.578896
0.640736
0.698677
0.751354
0.797462
0.835762
0.865108
0.884475
0.892915
0.889689
0.874022
0.846121
0.805982
0.753768
0.689923
0.615205
0.530659
0.437586
0.33754
0.232298
0.123842
0.0143091
-0.0940158
-0.198794
-0.297681
-0.388339
-0.468579
-0.536364
-0.589864
-0.627639
-0.648636
-0.651776
-0.637555
-0.606079
-0.558118
-0.49509
-0.418955
-0.332158
-0.237602
-0.138651
-0.0342254
0.063699
0.156102
0.239293
0.309953
0.365181
0.402638
0.420623
0.418141
0.395892
0.354148
0.294507
0.219562
0.132677
0.0377858
-0.0607044
-0.15809
-0.249545
-0.330645
-0.397373
-0.44641
-0.475325
-0.482713
-0.46953
-0.436013
-0.384511
-0.318568
-0.242544
-0.161279
-0.0806206
-0.00550415
0.0591896
0.109351
0.141863
0.15447
0.151238
0.129539
0.0929888
0.0458729
-0.00687702
-0.0600714
-0.108228
-0.147012
-0.172874
-0.183699
-0.178974
-0.160852
-0.131097
-0.0937472
-0.0535018
-0.0143828
0.0173704
0.03918
0.0485691
0.044678
0.028404
0.00180521
-0.0320604
-0.0703091
-0.106427
-0.138015
-0.161979
-0.17635
-0.180512
-0.174986
-0.161516
-0.141902
-0.120182
-0.0988827
-0.0806307
-0.0676065
-0.0611166
-0.0615552
-0.0683332
-0.080084
-0.0948745
-0.110449
-0.124669
-0.135352
-0.141199
-0.14145
-0.136161
-0.12616
-0.112925
-0.09843
-0.0848519
-0.0742904
-0.068472
4.75002
4.75772
4.77318
4.79627
4.82661
4.86359
4.90649
4.95413
5.00462
5.05578
5.10459
5.14667
5.18727
5.22374
5.25372
5.2751
5.2859
5.28432
5.26866
5.23751
5.18983
5.12484
5.04224
4.94193
4.82409
4.68914
4.53769
4.37015
4.19393
4.00637
3.80936
3.60437
3.39293
3.17647
2.95635
2.73415
2.51144
2.28954
2.06999
1.85397
1.64262
1.43702
1.23822
1.04721
0.864891
0.692138
0.529777
0.378568
0.239123
0.112052
-0.00195185
-0.102584
-0.189441
-0.262365
-0.321155
-0.364352
-0.393344
-0.408253
-0.40919
-0.396406
-0.370311
-0.331503
-0.280728
-0.218891
-0.147025
-0.066308
0.0219509
0.116327
0.215254
0.317083
0.420065
0.522419
0.62227
0.717783
0.807121
0.88846
0.960082
1.02037
1.06782
1.10111
1.11913
1.1208
1.10397
1.07026
1.01967
0.952474
0.869328
0.771356
0.660008
0.537091
0.404761
0.26549
0.122019
-0.0226988
-0.16558
-0.30342
-0.43303
-0.551263
-0.655174
-0.742077
-0.809615
-0.855802
-0.87885
-0.877883
-0.853261
-0.805443
-0.735667
-0.645949
-0.538951
-0.418009
-0.286975
-0.150057
-0.011574
0.122521
0.247807
0.359701
0.453905
0.526652
0.574916
0.596581
0.590465
0.557446
0.498173
0.415108
0.3119
0.193191
0.0643904
-0.068489
-0.198804
-0.320358
-0.427085
-0.51367
-0.575812
-0.610467
-0.616002
-0.593491
-0.543855
-0.470621
-0.378757
-0.274371
-0.164146
-0.0559841
0.0433898
0.127418
0.190767
0.229677
0.2422
0.230924
0.195836
0.141419
0.0736005
-0.00077282
-0.0748733
-0.140563
-0.192403
-0.225792
-0.238158
-0.229209
-0.201266
-0.158006
-0.105044
-0.0487251
0.00425576
0.04749
0.0765014
0.0883504
0.0822238
0.0595719
0.0236007
-0.0213753
-0.0710861
-0.117514
-0.157272
-0.186447
-0.20272
-0.205558
-0.195947
-0.176436
-0.149939
-0.121017
-0.0932738
-0.0700608
-0.0540257
-0.0466447
-0.0481873
-0.057753
-0.0734422
-0.092709
-0.11268
-0.130762
-0.144092
-0.151197
-0.15123
-0.14435
-0.131645
-0.115004
-0.0968811
-0.0799701
-0.0668513
-0.0596353
4.57004
4.58764
4.62309
4.67625
4.74647
4.83266
4.93291
5.04516
5.16685
5.29537
5.42766
5.56121
5.68716
5.80267
5.90464
5.98997
6.05567
6.09902
6.11758
6.10949
6.073
6.00717
5.91147
5.786
5.63126
5.44842
5.23912
5.00589
4.75068
4.49065
4.21791
3.93525
3.64554
3.35169
3.05629
2.76162
2.46976
2.18253
1.90157
1.62833
1.36409
1.10995
0.866977
0.636196
0.418436
0.214634
0.0255687
-0.148038
-0.305527
-0.44622
-0.569646
-0.675177
-0.762463
-0.830847
-0.880375
-0.913905
-0.928922
-0.9253
-0.90341
-0.863874
-0.807443
-0.735011
-0.647622
-0.546514
-0.433091
-0.30892
-0.175747
-0.0354745
0.109823
0.258044
0.406734
0.553621
0.696232
0.83216
0.959
1.07434
1.17593
1.26175
1.33
1.37915
1.40833
1.41776
1.39531
1.35243
1.28771
1.20104
1.09324
0.965777
0.820624
0.660243
0.487545
0.305864
0.118891
-0.0694047
-0.254928
-0.433409
-0.600647
-0.75251
-0.885171
-0.995159
-1.07939
-1.13554
-1.16217
-1.15394
-1.1153
-1.04662
-0.949495
-0.826536
-0.681309
-0.518281
-0.342621
-0.160042
0.0231378
0.200349
0.365213
0.511633
0.633959
0.727338
0.78794
0.81318
0.801767
0.754497
0.672813
0.560242
0.421753
0.263537
0.0928481
-0.0823217
-0.252938
-0.410976
-0.548509
-0.658635
-0.7359
-0.776561
-0.778846
-0.74375
-0.673431
-0.572794
-0.448546
-0.308907
-0.162902
-0.0211238
0.107535
0.214641
0.293466
0.339455
0.350499
0.328458
0.275773
0.198452
0.104591
0.00357354
-0.0968058
-0.183522
-0.250869
-0.292781
-0.306145
-0.291004
-0.250421
-0.190039
-0.11753
-0.0414129
0.0288344
0.0856057
0.122829
0.137069
0.127618
0.0966847
0.0489301
-0.00975949
-0.0732304
-0.131974
-0.181278
-0.216303
-0.234408
-0.235215
-0.220384
-0.193428
-0.158436
-0.120998
-0.0857584
-0.056898
-0.0375656
-0.029384
-0.0324938
-0.0455229
-0.0659534
-0.0905018
-0.115563
-0.138212
-0.154493
-0.162952
-0.162644
-0.153841
-0.137951
-0.117337
-0.0950077
-0.0742496
-0.058184
-0.0493616
4.07737
4.11413
4.18815
4.29888
4.44452
4.62263
4.82945
5.06118
5.31402
5.58235
5.86022
6.1358
6.40163
6.64954
6.872
7.06356
7.21893
7.33336
7.40291
7.42449
7.39576
7.31592
7.18461
7.003
6.77358
6.50058
6.18981
5.84963
5.48869
5.09372
4.68992
4.28328
3.87811
3.47774
3.08468
2.70087
2.3279
1.96699
1.61919
1.28643
0.967696
0.664624
0.378064
0.10866
-0.142837
-0.375739
-0.589357
-0.782974
-0.95598
-1.10787
-1.23797
-1.34592
-1.43128
-1.49374
-1.53313
-1.54975
-1.54361
-1.51488
-1.46396
-1.39149
-1.29833
-1.18562
-1.05467
-0.90709
-0.744665
-0.569425
-0.38361
-0.189662
0.0097535
0.211807
0.413595
0.612074
0.804075
0.986497
1.1563
1.31037
1.44585
1.55997
1.65021
1.71422
1.74984
1.75448
1.73663
1.68694
1.60658
1.49679
1.35929
1.19626
1.01044
0.80517
0.584284
0.352133
0.113541
-0.126328
-0.362168
-0.588454
-0.799764
-0.990772
-1.15653
-1.29258
-1.39527
-1.46217
-1.49263
-1.4746
-1.41926
-1.32584
-1.19621
-1.03377
-0.843238
-0.630489
-0.402275
-0.166054
0.0699129
0.297426
0.508235
0.694463
0.848998
0.965705
1.03981
1.06817
1.04942
0.984325
0.875406
0.72738
0.54681
0.341783
0.121682
-0.103364
-0.321049
-0.521365
-0.694307
-0.831198
-0.92521
-0.971704
-0.968957
-0.91799
-0.82244
-0.688857
-0.526089
-0.344709
-0.156098
0.0249
0.187339
0.320733
0.416738
0.469751
0.477629
0.442085
0.367685
0.262562
0.137305
0.00394674
-0.12548
-0.237301
-0.322431
-0.373577
-0.387163
-0.363675
-0.307473
-0.226359
-0.130513
-0.0310007
0.059501
0.131659
0.177886
0.194159
0.180124
0.138993
0.0770877
0.00221999
-0.0771167
-0.149924
-0.20986
-0.25115
-0.270853
-0.26884
-0.247638
-0.21191
-0.167017
-0.119912
-0.0763003
-0.0412762
-0.0185039
-0.00973689
-0.014856
-0.0319836
-0.0578798
-0.0884011
-0.119008
-0.146997
-0.166328
-0.17619
-0.175408
-0.164386
-0.144901
-0.119844
-0.0928429
-0.0678233
-0.0485051
-0.0379097
2.77978
2.85126
2.99602
3.2151
3.50793
3.87251
4.30174
4.79057
5.32448
5.87081
6.40441
6.92013
7.40246
7.8423
8.23151
8.56204
8.82753
9.02331
9.14597
9.19329
9.16286
9.05247
8.86056
8.58742
8.23432
7.80772
7.31377
6.77224
6.20179
5.64094
5.08502
4.54089
4.01105
3.49789
3.00262
2.52641
2.07032
1.63516
1.22141
0.829524
0.459406
0.110699
-0.216114
-0.520688
-0.802537
-1.06116
-1.29606
-1.5067
-1.69241
-1.85251
-1.98651
-2.0937
-2.17368
-2.22619
-2.25112
-2.24856
-2.21824
-2.16057
-2.07614
-1.96576
-1.83053
-1.67183
-1.49133
-1.291
-1.0731
-0.840155
-0.594965
-0.340586
-0.0803529
0.182202
0.443461
0.699616
0.946717
1.18094
1.39844
1.59539
1.76823
1.91363
2.02842
2.10998
2.15604
2.16475
2.13971
2.0763
1.97488
1.83673
1.66391
1.45924
1.2262
0.969054
0.692712
0.402701
0.105109
-0.193575
-0.486637
-0.767112
-1.02818
-1.26317
-1.46591
-1.63074
-1.75264
-1.82702
-1.84928
-1.83118
-1.75971
-1.63859
-1.4717
-1.26395
-1.02156
-0.752023
-0.463962
-0.16689
0.128909
0.413162
0.675531
0.906233
1.09646
1.23868
1.32706
1.35783
1.32947
1.2431
1.10234
0.91329
0.684373
0.425979
0.149756
-0.13247
-0.403153
-0.650734
-0.862973
-1.02917
-1.14105
-1.19304
-1.18328
-1.1132
-0.988018
-0.816303
-0.609473
-0.380825
-0.142504
0.0822793
0.282277
0.444588
0.558953
0.618705
0.621592
0.569747
0.469762
0.332221
0.170754
0.000524971
-0.162091
-0.301901
-0.406557
-0.467301
-0.480112
-0.44612
-0.371364
-0.266095
-0.143349
-0.0170843
0.0962222
0.185269
0.240988
0.25879
0.238828
0.185586
0.107317
0.0140595
-0.082984
-0.171293
-0.242672
-0.290413
-0.311336
-0.305698
-0.277032
-0.231328
-0.17536
-0.11764
-0.0649812
-0.0234451
0.00279378
0.0118973
0.00432014
-0.0174813
-0.0494598
-0.0865704
-0.123462
-0.156476
-0.179296
-0.190608
-0.189219
-0.175729
-0.152319
-0.122452
-0.0904254
-0.0608328
-0.0380387
-0.0255493
0.539761
0.654658
0.888011
1.24178
1.71639
2.31006
3.01218
3.80293
4.68881
5.61783
6.55436
7.48684
8.33784
9.10705
9.78557
10.3652
10.8379
11.196
11.4325
11.5411
11.5167
11.3595
11.068
10.6453
10.0953
9.43023
8.66321
7.8216
6.98739
6.17069
5.39227
4.65729
3.96845
3.32431
2.72249
2.1595
1.6321
1.13732
0.673614
0.238094
-0.171178
-0.554381
-0.911724
-1.24319
-1.54859
-1.82743
-2.07905
-2.30277
-2.49778
-2.66325
-2.79833
-2.9023
-2.97452
-3.01449
-3.02191
-2.99664
-2.93876
-2.84861
-2.72686
-2.57448
-2.39275
-2.18336
-1.94833
-1.69005
-1.41129
-1.11511
-0.804938
-0.484493
-0.157843
0.170696
0.496716
0.81559
1.12251
1.4128
1.68182
1.92496
2.13789
2.31664
2.45752
2.55745
2.61387
2.62507
2.59154
2.51142
2.38516
2.21427
2.00123
1.74951
1.46344
1.14828
0.810127
0.455815
0.092803
-0.270879
-0.627028
-0.967119
-1.28282
-1.56603
-1.80924
-2.00561
-2.14915
-2.23526
-2.26063
-2.22835
-2.13421
-1.98045
-1.77133
-1.51285
-1.21274
-0.880313
-0.526119
-0.161804
0.199721
0.546133
0.864721
1.1437
1.37236
1.54161
1.64456
1.67693
1.63679
1.526
1.34927
1.11421
0.831462
0.514135
0.176578
-0.170425
-0.498465
-0.797275
-1.05195
-1.24946
-1.37985
-1.43672
-1.41796
-1.32575
-1.16687
-0.95232
-0.696627
-0.416622
-0.121307
0.150431
0.390941
0.58424
0.717797
0.783823
0.779889
0.709038
0.579915
0.405873
0.203984
-0.00706968
-0.206492
-0.376606
-0.502074
-0.572492
-0.583429
-0.536839
-0.440753
-0.308267
-0.155573
0.000536669
0.13865
0.245676
0.311099
0.329814
0.302599
0.235443
0.138861
0.0253449
-0.0909445
-0.195843
-0.279194
-0.333367
-0.355038
-0.345
-0.307883
-0.251174
-0.18322
-0.11416
-0.0519851
-0.00374609
0.025894
0.0350456
0.0246081
-0.0023513
-0.0409036
-0.0850543
-0.128646
-0.16666
-0.193146
-0.205901
-0.203779
-0.187615
-0.160035
-0.125098
-0.0878001
-0.0534312
-0.027011
-0.012549
-3.02298
-2.85476
-2.5065
-1.96198
-1.20033
-0.186394
1.09586
2.71565
5.09509
6.98797
8.61821
10.0109
11.2279
12.2736
13.1506
13.8645
14.4189
14.8167
15.0591
15.1448
15.0698
14.8266
14.4023
13.7859
12.9472
11.8749
10.533
8.63918
7.33584
6.21254
5.22918
4.36625
3.58491
2.87027
2.20945
1.59796
1.02991
0.500393
0.00890844
-0.454546
-0.889403
-1.29622
-1.67548
-2.02712
-2.35074
-2.64558
-2.9107
-3.14497
-3.34723
-3.51628
-3.65097
-3.75018
-3.81301
-3.83872
-3.82684
-3.77708
-3.68949
-3.56442
-3.40262
-3.2052
-2.97369
-2.71006
-2.41672
-2.09653
-1.75276
-1.3891
-1.00962
-0.61877
-0.221409
0.177325
0.572167
0.957587
1.32785
1.67742
2.00081
2.29251
2.54744
2.7609
2.92863
3.04693
3.113
3.12479
3.0816
2.98264
2.82866
2.6215
2.36419
2.06095
1.71706
1.33885
0.93369
0.509821
0.0762067
-0.357468
-0.781406
-1.18541
-1.55956
-1.8942
-2.1804
-2.41012
-2.57652
-2.67434
-2.70024
-2.65393
-2.53457
-2.34472
-2.08934
-1.77566
-1.41301
-1.01262
-0.587234
-0.150745
0.281248
0.694017
1.07247
1.40257
1.67162
1.86893
1.98648
2.01956
1.96561
1.82764
1.6113
1.32607
0.984884
0.603943
0.202991
-0.218415
-0.605151
-0.958288
-1.25784
-1.4881
-1.6373
-1.69821
-1.66861
-1.55153
-1.3555
-1.09406
-0.78528
-0.452087
-0.0917229
0.227856
0.511304
0.73716
0.890377
0.962045
0.949619
0.857302
0.695886
0.481921
0.236122
-0.0188784
-0.257962
-0.460191
-0.607308
-0.687238
-0.695172
-0.63405
-0.514156
-0.351896
-0.167038
0.0220287
0.186137
0.311811
0.386942
0.405912
0.370162
0.287514
0.170973
0.0357669
-0.100947
-0.223167
-0.318754
-0.3792
-0.401107
-0.385942
-0.339544
-0.271027
-0.190412
-0.109524
-0.0375657
0.0174215
0.0503239
0.0592829
0.0455906
0.0130876
-0.0323863
-0.083865
-0.134295
-0.177505
-0.207624
-0.221762
-0.218793
-0.199805
-0.167894
-0.127728
-0.0850188
-0.0457668
-0.0156426
0.00083066
-7.93843
-7.72861
-7.29176
-6.60246
-5.62187
-4.29166
-2.53561
-0.198984
3.22511
5.96145
8.36533
10.4486
12.2311
13.7464
15.011
16.0407
16.8456
17.4311
17.799
17.9465
17.8688
17.5563
16.992
16.1586
15.0212
13.5503
11.7431
9.14526
7.38156
5.94999
4.76994
3.7664
2.9025
2.14323
1.46753
0.852169
0.283978
-0.243346
-0.743871
-1.21675
-1.66304
-2.08343
-2.47741
-2.84417
-3.18247
-3.49086
-3.76773
-4.01135
-4.21997
-4.3919
-4.52552
-4.61933
-4.67208
-4.68273
-4.6506
-4.57522
-4.45656
-4.29499
-4.09134
-3.84687
-3.56332
-3.24301
-2.88874
-2.50387
-2.09221
-1.6581
-1.2063
-0.74203
-0.270975
0.20085
0.667274
1.12184
1.55785
1.96884
2.34841
2.69016
2.98818
3.23703
3.43178
3.56822
3.6431
3.65407
3.59991
3.4803
3.29625
3.05004
2.74533
2.38715
1.98177
1.53671
1.06065
0.563333
0.0552929
-0.452043
-0.947166
-1.41816
-1.8534
-2.24161
-2.57247
-2.83666
-3.02629
-3.1354
-3.16013
-3.09916
-2.95281
-2.72434
-2.41968
-2.04741
-1.61861
-1.14654
-0.64619
-0.133886
0.371923
0.854046
1.29485
1.67795
1.98862
2.21451
2.34627
2.37797
2.30963
2.14234
1.88356
1.54479
1.14142
0.69218
0.218021
-0.265202
-0.719795
-1.13059
-1.47678
-1.74059
-1.9086
-1.97267
-1.93059
-1.78634
-1.55032
-1.23869
-0.872584
-0.476342
-0.0645434
0.311907
0.640955
0.900431
1.07343
1.14999
1.12758
1.01169
0.815523
0.558949
0.266608
-0.0348469
-0.315515
-0.551051
-0.72025
-0.809328
-0.813169
-0.735828
-0.590076
-0.395998
-0.177836
0.0474605
0.237778
0.38242
0.467068
0.485565
0.440199
0.340788
0.203039
0.0450694
-0.11283
-0.252754
-0.360598
-0.427033
-0.448666
-0.427744
-0.371427
-0.290523
-0.196821
-0.103849
-0.0220242
0.0396311
0.0755979
0.0840918
0.0668646
0.0285511
-0.0240574
-0.0830024
-0.1403
-0.188793
-0.222465
-0.237901
-0.233986
-0.212079
-0.175751
-0.1303
-0.0821348
-0.0379798
-0.00413948
0.0143486
-14.3218
-14.2515
-14.1047
-13.9265
-13.6841
-13.5419
-13.3738
-13.0892
3.94296
3.29544
3.17112
2.72668
2.19244
1.6624
1.08771
0.537411
-0.00516412
-0.523223
-1.03267
-1.52387
-1.99626
-2.44828
-2.87839
-3.28474
-3.66519
-4.01747
-4.33919
-4.62789
-4.88112
-5.09647
-5.27166
-5.40455
-5.49321
-5.53597
-5.5315
-5.4789
-5.37751
-5.22723
-5.02843
-4.78201
-4.4894
-4.15259
-3.77424
-3.35755
-2.90641
-2.42521
-1.91894
-1.39309
-0.853687
-0.307252
0.239284
0.778819
1.30393
1.80694
2.28043
2.71704
3.10948
3.45097
3.73533
3.95692
4.11099
4.19384
4.20283
4.13651
3.99476
3.77889
3.49162
3.1373
2.72181
2.25245
1.73798
1.1885
0.615226
0.0303019
-0.552966
-1.12135
-1.66115
-2.15902
-2.60203
-2.97837
-3.27744
-3.49029
-3.61017
-3.63267
-3.55611
-3.3814
-3.11252
-2.75651
-2.32339
-1.82605
-1.27984
-0.702138
-0.111813
0.469894
1.0231
1.52762
1.96471
2.31753
2.57205
2.71777
2.74847
2.66308
2.4645
2.1612
1.76668
1.29869
0.779082
0.231552
-0.319829
-0.841699
-1.31121
-1.70479
-2.00233
-2.1888
-2.25515
-2.19927
-2.02611
-1.74804
-1.38398
-0.95838
-0.499036
-0.0307391
0.402105
0.777576
1.07099
1.26353
1.34422
1.31053
1.16946
0.936715
0.635678
0.295032
-0.0545839
-0.377953
-0.647388
-0.838725
-0.936456
-0.9352
-0.840264
-0.667081
-0.439574
-0.188454
0.0769935
0.292423
0.456153
0.549992
0.567327
0.511449
0.394305
0.234479
0.05317
-0.126331
-0.284033
-0.403948
-0.475995
-0.496876
-0.469691
-0.403006
-0.309367
-0.202412
-0.0972913
-0.00568501
0.0624582
0.101256
0.109041
0.0880714
0.0437949
-0.016032
-0.0824565
-0.146554
-0.200308
-0.237415
-0.254051
-0.249114
-0.224244
-0.18349
-0.132777
-0.0792005
-0.0301964
0.00731484
0.0277909
-20.2727
-20.2382
-20.118
-20.0591
-19.863
-19.7416
-19.5985
-19.3118
2.68935
2.09485
1.97259
1.61708
1.10407
0.737061
0.126526
-0.335231
-0.821546
-1.30995
-1.79857
-2.28122
-2.75379
-3.21236
-3.65336
-4.07332
-4.46878
-4.83638
-5.17271
-5.47447
-5.73846
-5.9616
-6.141
-6.27399
-6.3582
-6.3916
-6.37255
-6.29969
-6.17245
-5.99059
-5.75451
-5.46518
-5.12419
-4.73378
-4.29698
-3.81742
-3.2995
-2.74823
-2.16925
-1.56883
-0.953777
-0.331485
0.290192
0.903203
1.49916
2.06936
2.60544
3.09911
3.5421
3.92681
4.24628
4.49418
4.66521
4.75523
4.76128
4.68183
4.51688
4.26801
3.93846
3.53321
3.05909
2.52442
1.93922
1.31504
0.664619
0.00172716
-0.65846
-1.30094
-1.91021
-2.47118
-2.96927
-3.39118
-3.72501
-3.96071
-4.09075
-4.11024
-4.01731
-3.81332
-3.50294
-3.09441
-2.59924
-2.03215
-1.41071
-0.754717
-0.0850883
0.573154
1.19797
1.76654
2.25771
2.65257
2.93535
3.09443
3.12304
3.01985
2.78884
2.4398
1.98821
1.45452
0.863403
0.242331
-0.379622
-0.968679
-1.49698
-1.93786
-2.26883
-2.47315
-2.54095
-2.4702
-2.26694
-1.9456
-1.52793
-1.04193
-0.519219
0.00806089
0.496872
0.918694
1.24578
1.45734
1.54138
1.49537
1.32801
1.05757
0.711
0.321189
-0.0775738
-0.443966
-0.747348
-0.960549
-1.06634
-1.05914
-0.945586
-0.743871
-0.481609
-0.192337
0.103621
0.348709
0.531683
0.634281
0.649828
0.582749
0.447258
0.264884
0.059979
-0.141141
-0.316411
-0.448041
-0.525268
-0.544967
-0.511159
-0.433852
-0.327337
-0.207183
-0.0900344
0.0111315
0.0855037
0.12688
0.133751
0.108905
0.0586175
-0.00839573
-0.0821978
-0.152951
-0.211851
-0.252247
-0.269979
-0.263967
-0.236136
-0.191013
-0.135131
-0.0762649
-0.0225261
0.0185632
0.0409748
-25.7094
-25.6874
-25.6381
-25.592
-25.4967
-25.4475
-25.3761
-25.2963
1.30145
1.01197
0.830991
0.651891
0.189376
-0.158761
-0.616522
-1.06907
-1.53783
-2.01581
-2.49986
-2.98435
-3.46424
-3.93453
-4.39039
-4.82716
-5.24032
-5.6255
-5.97843
-6.295
-6.57129
-6.80356
-6.98836
-7.12252
-7.20322
-7.22805
-7.19504
-7.10271
-6.95025
-6.73739
-6.46455
-6.13279
-5.7439
-5.30035
-4.80555
-4.26356
-3.67933
-3.05847
-2.40731
-1.73286
-1.04274
-0.345201
0.350968
1.03677
1.70284
2.33951
2.93743
3.48736
3.98012
4.40725
4.761
5.0344
5.22157
5.31797
5.32034
5.22708
5.03828
4.75584
4.38348
3.92689
3.39377
2.79354
2.13747
1.43848
0.710916
-0.029799
-0.766707
-1.48297
-2.16131
-2.78491
-3.33756
-3.80446
-4.17242
-4.43034
-4.5699
-4.58577
-4.47597
-4.2422
-3.88994
-3.42858
-2.87113
-2.23422
-1.53758
-0.803407
-0.0547638
0.679645
1.37555
2.00758
2.55218
2.98836
3.29867
3.47037
3.49613
3.37457
3.11053
2.71531
2.20638
1.60678
0.944425
0.249971
-0.44284
-1.09839
-1.68478
-2.17224
-2.53585
-2.75724
-2.82574
-2.73938
-2.50541
-2.14029
-1.66868
-1.12221
-0.53663
0.0503413
0.594388
1.06186
1.42189
1.65173
1.73842
1.6793
1.48501
1.17641
0.783984
0.345077
-0.10326
-0.512225
-0.849121
-1.08365
-1.19687
-1.18304
-1.05022
-0.819381
-0.521946
-0.19484
0.132017
0.40597
0.607793
0.718614
0.731827
0.653086
0.498934
0.293911
0.0655418
-0.156917
-0.349314
-0.492172
-0.574117
-0.592271
-0.551618
-0.463611
-0.344309
-0.211146
-0.0822677
0.0281233
0.108408
0.152106
0.157896
0.129113
0.07286
-0.00120726
-0.0821938
-0.159386
-0.223249
-0.266765
-0.285489
-0.278372
-0.247625
-0.198241
-0.137349
-0.0733689
-0.0150606
0.0294746
0.0537495
-30.6084
-30.5964
-30.5707
-30.5445
-30.4952
-30.4722
-30.431
-30.405
0.384112
0.208374
0.0286441
-0.156499
-0.511478
-0.860676
-1.26909
-1.70348
-2.16382
-2.64079
-3.12972
-3.62408
-4.11792
-4.60525
-5.08028
-5.53738
-5.97112
-6.37629
-6.74783
-7.08092
-7.37098
-7.61368
-7.80504
-7.94142
-8.01962
-8.03683
-7.99078
-7.87984
-7.70304
-7.46011
-7.15148
-6.7783
-6.34256
-5.847
-5.29536
-4.69218
-4.04294
-3.35386
-2.63193
-1.88492
-1.12126
-0.350038
0.419043
1.17605
1.91068
2.61226
3.27052
3.87529
4.41646
4.88473
5.27161
5.56946
5.77188
5.87392
5.87203
5.76453
5.55165
5.23561
4.8206
4.31302
3.72142
3.05632
2.33021
1.55743
0.753901
-0.0636885
-0.875956
-1.66469
-2.41078
-3.09574
-3.70171
-4.21248
-4.61358
-4.89285
-5.04127
-5.05305
-4.92612
-4.66257
-4.26867
-3.75491
-3.13584
-2.42995
-1.65923
-0.848151
-0.0217021
0.787447
1.553
2.2471
2.84383
3.32015
3.65697
3.84047
3.8628
3.72257
3.42549
2.98434
2.41855
1.75389
1.02124
0.254751
-0.507977
-1.22865
-1.87174
-2.4045
-2.79965
-3.03719
-3.10579
-3.00331
-2.73852
-2.32981
-1.80475
-1.19862
-0.551139
0.0948773
0.6929
1.2048
1.59671
1.84388
1.93265
1.85989
1.63849
1.29181
0.853869
0.366482
-0.130696
-0.581445
-0.951049
-1.20614
-1.32613
-1.30517
-1.15278
-0.892767
-0.560278
-0.196332
0.161785
0.46342
0.683389
0.801817
0.812235
0.721598
0.548762
0.321302
0.0699621
-0.173314
-0.382213
-0.535716
-0.621915
-0.63823
-0.590635
-0.492028
-0.360174
-0.214368
-0.0741776
0.0450196
0.130863
0.176629
0.181214
0.148501
0.0864047
0.00549815
-0.0824057
-0.165763
-0.23436
-0.28081
-0.300425
-0.292191
-0.258608
-0.205119
-0.139419
-0.0705456
-0.0078749
0.039947
0.0659976
-34.9845
-34.9776
-34.9625
-34.9477
-34.9186
-34.9073
-34.8818
-34.8711
-0.270573
-0.38949
-0.56786
-0.756193
-1.07062
-1.41283
-1.80841
-2.23896
-2.70157
-3.1866
-3.68821
-4.1991
-4.71247
-5.22146
-5.71941
-6.19988
-6.65665
-7.0838
-7.47561
-7.82662
-8.13164
-8.38582
-8.5847
-8.72423
-8.80086
-8.81145
-8.75329
-8.62471
-8.42467
-8.15287
-7.80975
-7.39659
-6.91554
-6.36961
-5.76291
-5.10041
-4.38814
-3.63293
-2.84242
-2.0251
-1.1902
-0.347621
0.492025
1.31792
2.11882
2.88311
3.59961
4.25726
4.84503
5.35282
5.77138
6.09245
6.30916
6.41618
6.4096
6.2877
6.0509
5.70171
5.24479
4.68723
4.03843
3.30994
2.51549
1.67081
0.79333
-0.0990938
-0.984575
-1.84365
-2.65546
-3.3998
-4.0573
-4.61037
-5.0433
-5.34289
-5.4995
-5.50686
-5.3628
-5.06987
-4.63509
-4.07005
-3.39077
-2.6176
-1.77478
-0.889376
0.0136383
0.894831
1.72782
2.48197
3.12896
3.64388
4.00599
4.20044
4.21891
4.06
3.73034
3.24408
2.62269
1.89456
1.09344
0.256937
-0.57379
-1.35752
-2.05538
-2.63173
-3.05703
-3.3097
-3.37782
-3.25915
-2.96387
-2.51234
-1.93497
-1.27056
-0.562976
0.1406
0.790845
1.34555
1.76795
2.03143
2.1218
2.03506
1.78685
1.40267
0.920195
0.385837
-0.159631
-0.650484
-1.05166
-1.32639
-1.4525
-1.42407
-1.25214
-0.963294
-0.596449
-0.196793
0.192227
0.520278
0.757508
0.882899
0.890171
0.787582
0.596333
0.346935
0.073308
-0.190011
-0.414643
-0.578149
-0.668146
-0.682402
-0.627883
-0.518908
-0.374878
-0.216938
-0.0659366
0.0615892
0.152616
0.20021
0.203502
0.166923
0.0991737
0.0117037
-0.0827931
-0.172001
-0.245067
-0.294257
-0.314668
-0.305326
-0.269014
-0.211607
-0.141337
-0.0678256
-0.00102485
0.0499046
0.0776329
-38.8772
-38.8731
-38.8628
-38.8538
-38.8347
-38.828
-38.8115
-38.806
-0.745996
-0.841719
-1.01578
-1.20803
-1.50844
-1.85084
-2.24794
-2.68529
-3.15888
-3.65921
-4.17969
-4.71226
-5.24949
-5.7837
-6.30743
-6.81351
-7.29507
-7.7456
-8.1588
-8.52867
-8.84947
-9.11586
-9.32292
-9.46631
-9.54221
-9.54719
-9.47778
-9.33257
-9.11052
-8.81124
-8.4352
-7.9838
-7.45937
-6.86516
-6.20562
-5.48617
-4.71342
-3.89474
-3.03842
-2.15365
-1.25044
-0.339451
0.567798
1.45966
2.324
3.14828
3.92046
4.62861
5.26083
5.80622
6.25483
6.59777
6.82776
6.93919
6.92763
6.79139
6.53113
6.14964
5.65203
5.04608
4.34195
3.55224
2.69185
1.77782
0.829172
-0.135307
-1.09115
-2.0178
-2.89267
-3.69392
-4.40071
-4.99419
-5.45739
-5.77613
-5.94025
-5.94303
-5.78204
-5.46048
-4.98605
-4.3714
-3.63394
-2.79585
-1.8836
-0.926774
0.0500958
1.00023
1.8979
2.70959
3.40459
3.95627
4.34228
4.54681
4.56113
4.38382
4.02237
3.49237
2.81727
2.02778
1.1608
0.256882
-0.639199
-1.48338
-2.2336
-2.85153
-3.30538
-3.57212
-3.63936
-3.50456
-3.17953
-2.68645
-2.05845
-1.33777
-0.572434
0.186593
0.886884
1.48243
1.93376
2.21242
2.30407
2.20322
1.92878
1.50821