/*--------------------------------*- C++ -*----------------------------------*\
  =========                 |
  \\      /  F ield         | OpenFOAM: The Open Source CFD Toolbox
   \\    /   O peration     | Website:  https://openfoam.org
    \\  /    A nd           | Version:  12
     \\/     M anipulation  |
\*---------------------------------------------------------------------------*/
FoamFile
{
    format      ascii;
    class       volScalarField;
    location    "3.44";
    object      p_rgh;
}
// * * * * * * * * * * * * * * * * * * * * * * * * * * * * * * * * * * * * * //

dimensions      [1 -1 -2 0 0 0 0];

internalField   nonuniform List<scalar> 
3829
(
0.367555
0.36751
0.367416
0.367268
0.367057
0.36677
0.366394
0.36591
0.3653
0.364539
0.363603
0.362465
0.361096
0.359466
0.357545
0.355301
0.352706
0.34973
0.346345
0.342527
0.338251
0.333496
0.328245
0.322487
0.316215
0.309428
0.302132
0.29434
0.286074
0.277359
0.268232
0.258733
0.248909
0.238815
0.228509
0.218056
0.207529
0.197007
0.186568
0.176282
0.166264
0.156578
0.14729
0.138463
0.130157
0.122429
0.115329
0.108901
0.103183
0.0982033
0.0939816
0.0905292
0.0878471
0.0859252
0.0847414
0.0842609
0.0844368
0.0852099
0.0865099
0.0882553
0.0903548
0.0927077
0.095206
0.0977346
0.100174
0.102401
0.104292
0.105724
0.106576
0.106732
0.106084
0.104533
0.101983
0.0983522
0.0928919
0.0870001
0.0799132
0.0716382
0.0620661
0.0513721
0.0396058
0.0266319
0.012933
-0.0014564
-0.0164033
-0.0317594
-0.0473484
-0.062976
-0.0784429
-0.0935409
-0.10806
-0.121793
-0.134539
-0.146114
-0.156345
-0.165082
-0.172204
-0.177614
-0.18125
-0.182968
-0.182833
-0.180891
-0.177198
-0.171841
-0.164941
-0.15665
-0.147146
-0.136626
-0.125305
-0.113412
-0.101182
-0.0888535
-0.0766674
-0.0648385
-0.0535899
-0.0431222
-0.0336178
-0.0252375
-0.018115
-0.0123561
-0.00803894
-0.00521264
-0.00389532
-0.00408252
-0.00573483
-0.00879103
-0.0131671
-0.0187579
-0.0254391
-0.0330715
-0.0415039
-0.0505761
-0.0601233
-0.0699774
-0.079973
-0.0899494
-0.0997284
-0.109204
-0.118224
-0.126663
-0.134412
-0.141374
-0.147475
-0.152651
-0.156858
-0.160071
-0.162277
-0.163482
-0.16371
-0.162995
-0.161384
-0.158936
-0.15572
-0.151815
-0.147306
-0.142284
-0.136843
-0.131081
-0.125095
-0.118983
-0.112839
-0.106759
-0.100824
-0.0951177
-0.0897135
-0.0846783
-0.0800701
-0.0759395
-0.0723274
-0.0692654
-0.0667765
-0.0648741
-0.0635641
-0.0628438
-0.0627021
-0.0631219
-0.0640739
-0.0655312
-0.067458
-0.0698143
-0.0725552
-0.0756333
-0.0789978
-0.0825956
-0.0863724
-0.0902723
-0.0942396
-0.098219
-0.102157
-0.106
-0.109697
-0.113201
-0.116465
-0.119446
-0.122102
-0.124396
-0.12629
-0.127753
-0.128754
-0.129265
0.374925
0.375025
0.375225
0.375518
0.375891
0.376325
0.376795
0.377271
0.377718
0.378094
0.378358
0.37846
0.378347
0.377961
0.377241
0.376125
0.374549
0.372449
0.369765
0.366439
0.362421
0.357668
0.352147
0.345834
0.33872
0.330805
0.322102
0.312638
0.302451
0.291593
0.280124
0.268119
0.25566
0.242837
0.229747
0.216487
0.203167
0.189901
0.176798
0.164137
0.151882
0.140136
0.128997
0.118557
0.108899
0.100097
0.0922152
0.085307
0.0794142
0.0745663
0.0707804
0.06806
0.0663944
0.0657573
0.0661065
0.0673848
0.0695192
0.0724216
0.0759911
0.080114
0.0846653
0.0895088
0.0945009
0.0994887
0.104318
0.108828
0.112862
0.116261
0.118871
0.120548
0.121156
0.120572
0.11869
0.115415
0.11067
0.104449
0.0967205
0.08748
0.0768426
0.0647954
0.0514158
0.0368226
0.0211764
0.00431539
-0.0129276
-0.030643
-0.0486204
-0.0666193
-0.0843925
-0.101687
-0.118248
-0.133831
-0.148198
-0.161135
-0.172444
-0.181959
-0.189539
-0.195077
-0.198476
-0.199742
-0.198887
-0.195951
-0.191018
-0.184218
-0.175711
-0.16569
-0.154372
-0.141997
-0.12882
-0.115111
-0.101145
-0.0872094
-0.0735263
-0.0603521
-0.0479329
-0.0364832
-0.0261944
-0.0172312
-0.00972477
-0.00377435
0.000551557
0.0032186
0.00422258
0.00359537
0.00138711
-0.00232029
-0.00742259
-0.0137936
-0.0212888
-0.0297513
-0.0390112
-0.048892
-0.0592152
-0.0697989
-0.0804648
-0.0910406
-0.101366
-0.11131
-0.120726
-0.129487
-0.137481
-0.144617
-0.150821
-0.156035
-0.16022
-0.163355
-0.165436
-0.166476
-0.166502
-0.165557
-0.163693
-0.160976
-0.15748
-0.153291
-0.148498
-0.143196
-0.137485
-0.131465
-0.125237
-0.118901
-0.112554
-0.106293
-0.100199
-0.0943574
-0.0888417
-0.0837182
-0.0790444
-0.0748698
-0.071234
-0.0681669
-0.0656898
-0.0638147
-0.0625451
-0.0618764
-0.0617956
-0.0622831
-0.0633112
-0.0648485
-0.0668584
-0.0692992
-0.0721255
-0.0752885
-0.0787364
-0.0824154
-0.08627
-0.0902439
-0.0942803
-0.0983237
-0.10232
-0.106215
-0.10996
-0.113505
-0.116806
-0.119818
-0.122501
-0.124817
-0.126729
-0.128206
-0.129216
-0.129732
0.372947
0.373505
0.374628
0.376308
0.378521
0.381229
0.384375
0.387886
0.391669
0.395619
0.399614
0.403523
0.407205
0.410517
0.413316
0.415455
0.416798
0.417213
0.416575
0.414769
0.411694
0.407266
0.401422
0.394123
0.385354
0.375127
0.363481
0.350478
0.336207
0.320775
0.304311
0.286958
0.26888
0.25026
0.231299
0.212208
0.19319
0.174434
0.156099
0.138451
0.121665
0.105874
0.0912068
0.0777792
0.0656973
0.0550541
0.0459273
0.0383781
0.032449
0.0281639
0.025526
0.024518
0.0251001
0.0272084
0.0307577
0.0356432
0.0417393
0.0489024
0.0569712
0.0657678
0.0751016
0.0847704
0.094561
0.104255
0.113629
0.122459
0.130523
0.137608
0.14348
0.147981
0.150932
0.152169
0.151556
0.148986
0.144379
0.137694
0.12894
0.117954
0.105043
0.0902251
0.0736296
0.0554295
0.0358306
0.0150646
-0.00659513
-0.0288176
-0.0513004
-0.0737294
-0.0957765
-0.117106
-0.137389
-0.15631
-0.173572
-0.18891
-0.202086
-0.2129
-0.221186
-0.226816
-0.229741
-0.23001
-0.227643
-0.222724
-0.215405
-0.205878
-0.194373
-0.181158
-0.166524
-0.150783
-0.134258
-0.11728
-0.100165
-0.083634
-0.0672741
-0.0517576
-0.0373401
-0.0242473
-0.0126768
-0.00279241
0.00528221
0.0114607
0.0156971
0.0179879
0.0183643
0.0168891
0.0136437
0.0087444
0.00233317
-0.00542881
-0.0143623
-0.0242788
-0.0349788
-0.0462596
-0.0579199
-0.0697573
-0.0815675
-0.093114
-0.104351
-0.115085
-0.12516
-0.134447
-0.142836
-0.150242
-0.156597
-0.161851
-0.165975
-0.168959
-0.170809
-0.171551
-0.171223
-0.169875
-0.167573
-0.164392
-0.160417
-0.155742
-0.150465
-0.14469
-0.138521
-0.132066
-0.125431
-0.118719
-0.112032
-0.105467
-0.0991096
-0.0930435
-0.0873437
-0.0820756
-0.0772955
-0.073051
-0.069379
-0.066307
-0.0638535
-0.0620273
-0.0608284
-0.0602491
-0.0602735
-0.0608781
-0.0620343
-0.0637071
-0.065857
-0.0684406
-0.0714104
-0.0747159
-0.0783039
-0.0821191
-0.0861046
-0.0902024
-0.0943546
-0.0985047
-0.102598
-0.106581
-0.110404
-0.114019
-0.11738
-0.120444
-0.123171
-0.125524
-0.127466
-0.128965
-0.129991
-0.130516
0.352264
0.353783
0.356838
0.361422
0.367488
0.374957
0.3837
0.393551
0.404311
0.415765
0.42769
0.439817
0.451838
0.463416
0.474196
0.483819
0.491933
0.498206
0.502341
0.504082
0.503221
0.499604
0.49313
0.483761
0.471512
0.456463
0.438751
0.418563
0.396135
0.371746
0.345714
0.318385
0.290118
0.261264
0.232158
0.203167
0.174647
0.146913
0.120249
0.0949145
0.0711857
0.0492812
0.0293914
0.0116787
-0.00372317
-0.016707
-0.0271944
-0.0351341
-0.040504
-0.0433108
-0.0435909
-0.0414122
-0.0368759
-0.0301117
-0.0212784
-0.0105594
0.00183502
0.0156729
0.0307046
0.0466585
0.0632505
0.0801753
0.0971285
0.113789
0.129843
0.144958
0.158848
0.171211
0.181768
0.190254
0.196434
0.200101
0.201087
0.199259
0.194512
0.186785
0.176007
0.162466
0.146118
0.127133
0.105731
0.0821722
0.056768
0.0298678
0.00185714
-0.0268905
-0.0558511
-0.0846196
-0.112743
-0.13977
-0.165264
-0.188804
-0.210015
-0.228556
-0.244153
-0.256566
-0.265677
-0.271424
-0.27325
-0.271778
-0.267002
-0.259073
-0.248215
-0.234714
-0.218902
-0.20115
-0.18186
-0.161449
-0.140346
-0.118981
-0.0977845
-0.0771796
-0.0574509
-0.0389663
-0.0220332
-0.00690468
0.00621131
0.0171517
0.0258035
0.0321039
0.0360377
0.0376467
0.0370698
0.0343553
0.0296292
0.0230597
0.0148409
0.00518414
-0.00568694
-0.0175405
-0.0301419
-0.0432555
-0.0566592
-0.0701428
-0.0835311
-0.0960198
-0.108518
-0.120267
-0.131158
-0.141079
-0.149935
-0.157646
-0.164155
-0.169424
-0.173435
-0.176191
-0.17771
-0.178051
-0.177246
-0.175365
-0.172485
-0.168698
-0.1641
-0.158797
-0.152898
-0.146515
-0.139763
-0.132753
-0.125601
-0.118414
-0.111299
-0.104354
-0.0976664
-0.0913214
-0.0853943
-0.0799495
-0.0750413
-0.0707147
-0.0670035
-0.0639317
-0.0615138
-0.0597545
-0.0586502
-0.0581887
-0.05835
-0.0591064
-0.0604268
-0.0622724
-0.0646007
-0.0673653
-0.0705167
-0.0740026
-0.077768
-0.0817555
-0.0859061
-0.0901603
-0.0944582
-0.0987423
-0.102957
-0.10705
-0.110971
-0.114671
-0.118108
-0.121236
-0.124018
-0.126416
-0.128396
-0.129924
-0.13097
-0.131504
0.265697
0.269239
0.2764
0.287181
0.301519
0.319254
0.340134
0.363798
0.389774
0.417458
0.446246
0.475449
0.50437
0.532274
0.558432
0.582148
0.602771
0.619706
0.632427
0.640487
0.643538
0.641334
0.633745
0.620758
0.602494
0.579188
0.551191
0.518934
0.482904
0.443682
0.401921
0.358315
0.31357
0.268389
0.223448
0.179322
0.136515
0.0954116
0.0574284
0.0221423
-0.0102033
-0.0393971
-0.065246
-0.0875789
-0.106254
-0.121166
-0.132254
-0.139496
-0.142915
-0.142577
-0.138592
-0.131114
-0.120336
-0.106484
-0.0898203
-0.0706331
-0.0492443
-0.0260059
-0.00128837
0.0245149
0.0509932
0.077723
0.104266
0.130173
0.155014
0.178376
0.199834
0.218987
0.235459
0.248903
0.259024
0.265563
0.268318
0.267156
0.262033
0.253007
0.239094
0.221454
0.200131
0.175329
0.147336
0.116517
0.0833126
0.0482141
0.0117598
-0.0254822
-0.0628984
-0.0998733
-0.135797
-0.170064
-0.202096
-0.231364
-0.25737
-0.279704
-0.298004
-0.312012
-0.321511
-0.326404
-0.327103
-0.323313
-0.315275
-0.303289
-0.287724
-0.269005
-0.247606
-0.224043
-0.198857
-0.1726
-0.145821
-0.119061
-0.0928914
-0.0676982
-0.0439367
-0.0219963
-0.00221008
0.015158
0.0299011
0.0418701
0.0509753
0.0571873
0.0605079
0.0609175
0.059199
0.0548702
0.0482356
0.0395597
0.0291032
0.0171355
0.00393304
-0.0102271
-0.0250651
-0.040311
-0.0557053
-0.0709941
-0.0859325
-0.100234
-0.113898
-0.126685
-0.138435
-0.149025
-0.158357
-0.166364
-0.172998
-0.178236
-0.182074
-0.184531
-0.185641
-0.185483
-0.1841
-0.181581
-0.178022
-0.173527
-0.168206
-0.162179
-0.155566
-0.148488
-0.141071
-0.133433
-0.125696
-0.117973
-0.110381
-0.103011
-0.0959559
-0.0893028
-0.0831267
-0.0774907
-0.0724465
-0.068036
-0.064289
-0.0612253
-0.0588549
-0.057178
-0.0561864
-0.0558635
-0.0561845
-0.0571158
-0.0586244
-0.060667
-0.0631977
-0.0661672
-0.0695235
-0.0732128
-0.0771779
-0.0813596
-0.0856965
-0.0901264
-0.0945877
-0.0990214
-0.103372
-0.107586
-0.111615
-0.115411
-0.11893
-0.12213
-0.124972
-0.127421
-0.129441
-0.131002
-0.13207
-0.132616
0.0659713
0.0736963
0.0894448
0.113139
0.144693
0.18373
0.22967
0.281644
0.338502
0.398916
0.461425
0.52448
0.586578
0.646267
0.702144
0.752852
0.797101
0.83372
0.861707
0.880314
0.889038
0.887547
0.875734
0.853749
0.822008
0.781186
0.732212
0.67627
0.614723
0.548997
0.480453
0.41032
0.33975
0.269866
0.201632
0.135794
0.0730656
0.0169707
-0.0355142
-0.0836062
-0.126857
-0.164939
-0.197618
-0.224746
-0.246248
-0.262107
-0.27236
-0.277101
-0.276469
-0.270653
-0.259889
-0.244455
-0.22467
-0.20089
-0.1735
-0.14293
-0.109641
-0.0741256
-0.0369005
0.00150291
0.0405273
0.0795917
0.11804
0.155429
0.191117
0.224538
0.255142
0.282412
0.305862
0.325048
0.33959
0.349156
0.353476
0.352351
0.345623
0.333163
0.316218
0.29379
0.266272
0.23409
0.19772
0.157709
0.114683
0.069325
0.0223747
-0.0253931
-0.0731641
-0.120114
-0.165437
-0.208351
-0.248116
-0.284044
-0.315531
-0.342077
-0.363269
-0.378824
-0.388572
-0.392459
-0.390801
-0.383581
-0.371137
-0.353902
-0.332395
-0.307212
-0.278993
-0.248432
-0.216237
-0.183112
-0.14975
-0.116826
-0.0849944
-0.0547262
-0.0265519
-0.000903589
0.0218712
0.0415013
0.0577934
0.0706322
0.0799816
0.085885
0.0884756
0.0880218
0.0840858
0.0775398
0.0685455
0.0573689
0.044315
0.029706
0.0138708
-0.0028646
-0.0201783
-0.0377611
-0.0553218
-0.0725885
-0.0892766
-0.105201
-0.120198
-0.134084
-0.146711
-0.157961
-0.167747
-0.176012
-0.182722
-0.18787
-0.191471
-0.193564
-0.194211
-0.193459
-0.191419
-0.188188
-0.183877
-0.178605
-0.172498
-0.165686
-0.158303
-0.15048
-0.142352
-0.134045
-0.125687
-0.117395
-0.109308
-0.101488
-0.0940499
-0.087078
-0.080647
-0.0748178
-0.0696395
-0.0651498
-0.0613745
-0.0583284
-0.0560164
-0.0544344
-0.0535689
-0.0533987
-0.0538948
-0.0550157
-0.0567269
-0.0589808
-0.0617273
-0.0649142
-0.0684877
-0.0723922
-0.0765689
-0.0809562
-0.0854903
-0.090106
-0.0947392
-0.0993296
-0.103821
-0.108162
-0.112303
-0.116199
-0.119804
-0.123077
-0.125981
-0.128482
-0.130545
-0.132139
-0.133231
-0.133791
-0.304936
-0.288071
-0.254341
-0.203878
-0.137575
-0.0570789
0.0365888
0.141965
0.256755
0.377803
0.501711
0.625138
0.744909
0.858084
0.962022
1.05442
1.13328
1.19707
1.24445
1.27432
1.28593
1.2789
1.25329
1.20957
1.14875
1.07243
0.982968
0.883509
0.777703
0.668125
0.557289
0.447452
0.340424
0.237407
0.13911
0.0456864
-0.0351462
-0.111007
-0.179429
-0.240305
-0.293509
-0.338923
-0.376471
-0.406147
-0.428004
-0.442168
-0.448826
-0.448209
-0.440604
-0.426341
-0.405802
-0.379399
-0.347583
-0.310861
-0.269768
-0.224873
-0.176797
-0.126184
-0.0737126
-0.0200819
0.0339838
0.0876378
0.140326
0.191209
0.239545
0.284616
0.325734
0.362247
0.39355
0.419095
0.438418
0.451131
0.456936
0.455639
0.447161
0.431543
0.409018
0.379768
0.344158
0.302695
0.255996
0.204787
0.149908
0.0922686
0.0328418
-0.0273572
-0.087263
-0.145819
-0.201992
-0.254787
-0.303275
-0.346611
-0.384068
-0.415048
-0.439103
-0.45593
-0.465417
-0.467591
-0.462678
-0.450997
-0.433024
-0.409358
-0.380708
-0.347874
-0.311703
-0.27308
-0.232908
-0.192064
-0.151407
-0.111786
-0.0738249
-0.0381619
-0.00537825
0.0240591
0.0497914
0.0715598
0.0891998
0.102642
0.111909
0.117103
0.118401
0.116077
0.110237
0.101328
0.0897067
0.075747
0.0598281
0.0423371
0.0236602
0.00416991
-0.015766
-0.0358051
-0.0556266
-0.0749373
-0.0934029
-0.110933
-0.12727
-0.142246
-0.155725
-0.167597
-0.177789
-0.186257
-0.192985
-0.197981
-0.201282
-0.202945
-0.20305
-0.201668
-0.198922
-0.194932
-0.189824
-0.183734
-0.176803
-0.169176
-0.160995
-0.152405
-0.143546
-0.134555
-0.125564
-0.116697
-0.108103
-0.0998327
-0.0920108
-0.0847226
-0.0780413
-0.0720255
-0.0667211
-0.0621614
-0.0583673
-0.0553481
-0.0531042
-0.0516265
-0.0508963
-0.0508875
-0.0515674
-0.052886
-0.0548074
-0.0572788
-0.0602463
-0.0636552
-0.0674497
-0.071573
-0.0759649
-0.0805617
-0.0852968
-0.0901013
-0.0949085
-0.0996565
-0.10429
-0.108757
-0.113011
-0.117005
-0.120695
-0.124041
-0.127007
-0.129559
-0.131665
-0.133293
-0.13441
-0.134983
-0.959601
-0.932179
-0.876596
-0.792291
-0.678994
-0.536644
-0.367569
-0.17396
0.0407859
0.259702
0.476273
0.685808
0.884349
1.0686
1.23575
1.38327
1.50885
1.6104
1.68607
1.73439
1.75423
1.74487
1.70614
1.63853
1.54328
1.42253
1.27933
1.12043
0.952791
0.784455
0.618833
0.458713
0.306115
0.16405
0.034252
-0.0817064
-0.191227
-0.289073
-0.374905
-0.448784
-0.510952
-0.561747
-0.601549
-0.630746
-0.649728
-0.658894
-0.658645
-0.649407
-0.631632
-0.605797
-0.57242
-0.532048
-0.48528
-0.432757
-0.375164
-0.313222
-0.247719
-0.179468
-0.109325
-0.0381602
0.0330517
0.103524
0.172273
0.238358
0.300864
0.358902
0.411633
0.458261
0.498047
0.530338
0.554584
0.570334
0.577251
0.575137
0.563921
0.543716
0.514736
0.477347
0.432079
0.379614
0.320766
0.256486
0.187857
0.116057
0.0423358
-0.0320213
-0.105656
-0.177248
-0.245511
-0.309207
-0.367197
-0.418475
-0.462171
-0.497612
-0.524301
-0.541951
-0.550497
-0.550088
-0.541059
-0.523904
-0.499311
-0.468099
-0.431202
-0.389651
-0.344532
-0.296953
-0.248024
-0.198806
-0.150282
-0.103758
-0.0593444
-0.0181316
0.0192895
0.0524461
0.0809786
0.104659
0.12337
0.137102
0.145946
0.150073
0.149711
0.145365
0.137164
0.125586
0.111087
0.0941221
0.0751474
0.054616
0.03297
0.0106295
-0.0119989
-0.0345372
-0.0566375
-0.0779505
-0.0982395
-0.117316
-0.134945
-0.150963
-0.165237
-0.177672
-0.188208
-0.196818
-0.203503
-0.208291
-0.211237
-0.212418
-0.211936
-0.209886
-0.206401
-0.201622
-0.195694
-0.18877
-0.181003
-0.172551
-0.163567
-0.154207
-0.14462
-0.134948
-0.125332
-0.115901
-0.106796
-0.0980888
-0.0898943
-0.0823006
-0.0753804
-0.06919
-0.0637711
-0.0591524
-0.0553492
-0.0523659
-0.0501978
-0.0488307
-0.0482414
-0.0483978
-0.0492607
-0.0507839
-0.0529179
-0.0556072
-0.058795
-0.0624241
-0.0664371
-0.0707767
-0.0753817
-0.0801866
-0.0851211
-0.0901127
-0.0950913
-0.0999936
-0.104764
-0.109355
-0.113717
-0.117808
-0.121581
-0.124997
-0.128022
-0.130623
-0.13277
-0.134433
-0.135575
-0.136161
-1.88483
-1.83761
-1.74152
-1.59494
-1.39648
-1.14558
-0.843475
-0.493872
-0.117443
0.275396
0.661662
1.02946
1.37225
1.68388
1.95974
2.1966
2.39186
2.5432
2.64859
2.70641
2.71536
2.67461
2.58379
2.44312
2.2536
2.01829
1.74207
1.44181
1.14511
0.866702
0.610169
0.376336
0.160648
-0.0237699
-0.183817
-0.323383
-0.445789
-0.552611
-0.644488
-0.721771
-0.784866
-0.834315
-0.870663
-0.894457
-0.906232
-0.906506
-0.89581
-0.874681
-0.843678
-0.803383
-0.754414
-0.697439
-0.633179
-0.562404
-0.485941
-0.404666
-0.319528
-0.231522
-0.141705
-0.0512107
0.0390657
0.127945
0.214276
0.296918
0.374775
0.446787
0.511942
0.569287
0.617952
0.657164
0.686299
0.704828
0.71238
0.708759
0.693925
0.668033
0.631405
0.584542
0.528145
0.463102
0.390456
0.311415
0.227349
0.139734
0.0501386
-0.0398293
-0.128536
-0.214349
-0.295692
-0.371073
-0.439129
-0.498663
-0.54868
-0.58843
-0.617388
-0.635287
-0.642139
-0.638333
-0.624266
-0.600651
-0.568418
-0.52864
-0.482525
-0.431364
-0.37649
-0.319261
-0.260999
-0.202992
-0.146492
-0.0924817
-0.0416581
0.00504999
0.0469922
0.0836746
0.114756
0.140054
0.159518
0.173205
0.181296
0.184068
0.181908
0.175122
0.164236
0.149744
0.132173
0.112054
0.0899086
0.0662543
0.0415873
0.0163709
-0.00895292
-0.0339806
-0.0583402
-0.0815637
-0.103621
-0.124188
-0.143043
-0.160028
-0.175026
-0.187953
-0.198767
-0.207457
-0.214043
-0.218572
-0.22112
-0.221779
-0.220684
-0.21794
-0.2137
-0.208122
-0.201371
-0.193612
-0.185015
-0.175747
-0.165973
-0.155858
-0.145558
-0.135223
-0.124998
-0.115023
-0.105427
-0.0962985
-0.0877482
-0.0798654
-0.0727218
-0.0663714
-0.0608513
-0.0561852
-0.0523826
-0.0494426
-0.0473558
-0.0461031
-0.0456569
-0.0459795
-0.0470244
-0.0487511
-0.0510947
-0.0539979
-0.0574008
-0.0612436
-0.0654683
-0.0700173
-0.0748292
-0.0798366
-0.0849656
-0.0901391
-0.0952832
-0.100333
-0.105235
-0.109942
-0.114409
-0.118592
-0.122444
-0.125926
-0.129005
-0.131653
-0.13384
-0.135536
-0.136703
-0.137302
-3.39445
-3.32469
-3.182
-2.96177
-2.6599
-2.27024
-1.79643
-1.13156
-0.306557
0.445206
1.04459
1.56922
2.01753
2.40189
2.73484
3.02261
3.2624
3.44846
3.57632
3.64426
3.65026
3.5924
3.46992
3.28451
3.03183
2.70358
2.22638
1.63532
1.14713
0.778539
0.45876
0.181416
-0.0522397
-0.263953
-0.452112
-0.61661
-0.756696
-0.872569
-0.967172
-1.04293
-1.10166
-1.14467
-1.1729
-1.18713
-1.18802
-1.17615
-1.15209
-1.11641
-1.06973
-1.01269
-0.94599
-0.870373
-0.786669
-0.695766
-0.598625
-0.496271
-0.389808
-0.280367
-0.169098
-0.0585108
0.0523669
0.16096
0.266013
0.366205
0.460251
0.546913
0.625011
0.69343
0.751154
0.7973
0.831142
0.852094
0.859753
0.853916
0.834631
0.80207
0.756686
0.699136
0.63031
0.551316
0.463459
0.368227
0.267301
0.162492
0.0557294
-0.0509774
-0.155809
-0.256755
-0.351918
-0.43952
-0.517963
-0.585874
-0.64213
-0.68591
-0.716683
-0.734211
-0.738513
-0.730608
-0.710619
-0.679621
-0.63884
-0.589641
-0.533512
-0.472034
-0.406806
-0.339428
-0.271435
-0.204328
-0.139896
-0.0784212
-0.0211777
0.0308916
0.0771292
0.117064
0.150392
0.176985
0.196865
0.210178
0.217194
0.218291
0.213986
0.20464
0.190891
0.173333
0.152573
0.12922
0.103859
0.0770675
0.0493902
0.0213314
-0.00663607
-0.0340903
-0.060689
-0.0856261
-0.10942
-0.131393
-0.151384
-0.169253
-0.184894
-0.198241
-0.209266
-0.217978
-0.224415
-0.228647
-0.230765
-0.230868
-0.229156
-0.225708
-0.22071
-0.214339
-0.206774
-0.198197
-0.188788
-0.178727
-0.168189
-0.157345
-0.146359
-0.135387
-0.12458
-0.114088
-0.104026
-0.0944978
-0.0856126
-0.0774601
-0.0701109
-0.0636164
-0.058009
-0.0533068
-0.0495133
-0.0466224
-0.04462
-0.0434831
-0.0431795
-0.0436669
-0.0448949
-0.0468155
-0.049362
-0.0524718
-0.0560811
-0.0601283
-0.0645546
-0.0693032
-0.074313
-0.0795148
-0.0848307
-0.0901786
-0.0954802
-0.10067
-0.105695
-0.110511
-0.115076
-0.119345
-0.123272
-0.126816
-0.129945
-0.132635
-0.13486
-0.136588
-0.137779
-0.138392
-5.54397
-5.46361
-5.2948
-5.02327
-4.6156
-4.03878
-3.28572
-2.32313
-0.986091
0.14537
1.05872
1.91353
2.66549
3.31373
3.85427
4.2873
4.62064
4.86428
5.02288
5.09741
5.08595
4.98361
4.78084
4.46137
4.01213
3.45542
2.71639
1.7461
1.0525
0.51498
0.0731818
-0.257916
-0.518629
-0.728734
-0.900082
-1.04126
-1.15883
-1.25735
-1.33787
-1.40132
-1.44837
-1.47967
-1.4958
-1.4973
-1.48465
-1.45836
-1.41893
-1.36693
-1.30294
-1.22764
-1.14176
-1.04613
-0.941668
-0.82937
-0.71034
-0.58575
-0.456887
-0.3251
-0.191822
-0.0586285
0.0732639
0.202191
0.32659
0.444903
0.555633
0.657332
0.748628
0.828246
0.895027
0.947965
0.986242
1.00922
1.01646
1.00778
0.983247
0.943147
0.888063
0.818811
0.736482
0.642435
0.538239
0.425688
0.306787
0.183689
0.0587222
-0.0653258
-0.187097
-0.303844
-0.413305
-0.513423
-0.602364
-0.678591
-0.740857
-0.788294
-0.820389
-0.837051
-0.838661
-0.825313
-0.798487
-0.759306
-0.709225
-0.649924
-0.583193
-0.510904
-0.434935
-0.357128
-0.2792
-0.202577
-0.131012
-0.0618684
0.0016453
0.0588227
0.109055
0.151916
0.187153
0.214704
0.234679
0.247321
0.252985
0.252136
0.245484
0.233432
0.216706
0.196
0.172003
0.1454
0.11684
0.086953
0.0563295
0.0255086
-0.00500693
-0.0347649
-0.0633479
-0.0902448
-0.115525
-0.138781
-0.159808
-0.178469
-0.194672
-0.208366
-0.219541
-0.228224
-0.234473
-0.238378
-0.24005
-0.239645
-0.237254
-0.233101
-0.227356
-0.220208
-0.211853
-0.202485
-0.192295
-0.181473
-0.170204
-0.158666
-0.147029
-0.135453
-0.124095
-0.11312
-0.10262
-0.0927173
-0.0835203
-0.075119
-0.0675827
-0.0609601
-0.055279
-0.0505511
-0.0467737
-0.043936
-0.0420194
-0.0409974
-0.0408335
-0.0414816
-0.0428865
-0.0449937
-0.0477345
-0.0510414
-0.0548466
-0.0590865
-0.0637023
-0.0686387
-0.0738354
-0.0792218
-0.0847156
-0.0902288
-0.0956785
-0.100998
-0.106137
-0.111055
-0.115711
-0.120061
-0.124056
-0.127656
-0.130832
-0.133561
-0.13582
-0.137579
-0.138794
-0.139421
-8.03124
-7.99574
-7.91858
-7.8473
-7.69297
-7.63992
-7.5574
-7.42223
-0.386073
-0.498135
-0.617879
-0.741738
-0.907788
-1.0667
-1.21834
-1.35669
-1.47727
-1.57788
-1.66026
-1.72551
-1.77431
-1.80722
-1.8246
-1.82674
-1.81392
-1.78641
-1.74456
-1.68877
-1.61951
-1.53737
-1.443
-1.33718
-1.2208
-1.09486
-0.960461
-0.818853
-0.671356
-0.519433
-0.364617
-0.208538
-0.0528591
0.100749
0.250495
0.394611
0.531323
0.658919
0.77575
0.880255
0.971004
1.04668
1.10616
1.14854
1.17311
1.17943
1.16734
1.13691
1.08857
1.02304
0.941292
0.844651
0.734737
0.613393
0.482732
0.345097
0.202931
0.0586437
-0.0822396
-0.221883
-0.354835
-0.478798
-0.591489
-0.69086
-0.775196
-0.843131
-0.893765
-0.926623
-0.941693
-0.939433
-0.92051
-0.886307
-0.838332
-0.778408
-0.708526
-0.630806
-0.547422
-0.460532
-0.372247
-0.28455
-0.19931
-0.11884
-0.0430369
0.0263083
0.0882366
0.142115
0.187548
0.224345
0.252533
0.272312
0.284024
0.288126
0.285105
0.276006
0.261135
0.241368
0.217492
0.190272
0.16046
0.128768
0.0958735
0.0624071
0.02894
-0.00400328
-0.0359455
-0.0664232
-0.0950749
-0.121773
-0.146205
-0.168169
-0.187532
-0.20422
-0.218195
-0.229465
-0.238077
-0.244107
-0.247662
-0.248876
-0.247911
-0.2449
-0.240061
-0.23359
-0.225693
-0.21658
-0.206456
-0.195523
-0.183981
-0.172021
-0.159828
-0.14758
-0.135438
-0.123562
-0.112141
-0.101232
-0.0909816
-0.081497
-0.0728679
-0.065163
-0.0584281
-0.0526858
-0.0479413
-0.0441858
-0.0414034
-0.0395722
-0.0386624
-0.0386338
-0.0394362
-0.0410099
-0.0432951
-0.0462201
-0.049713
-0.0537023
-0.058122
-0.0629142
-0.0680254
-0.0733971
-0.0789571
-0.0846186
-0.0902874
-0.0958752
-0.101314
-0.106557
-0.111568
-0.116309
-0.120733
-0.124792
-0.128444
-0.131661
-0.134425
-0.136716
-0.138504
-0.139743
-0.140383
-10.5295
-10.5163
-10.4899
-10.4546
-10.3995
-10.3622
-10.3049
-10.2696
-1.26047
-1.31137
-1.40555
-1.49202
-1.5917
-1.68653
-1.77528
-1.85896
-1.93719
-2.00788
-2.06751
-2.11415
-2.14677
-2.16475
-2.16774
-2.15555
-2.12813
-2.08552
-2.0279
-1.95554
-1.86885
-1.76835
-1.65471
-1.52874
-1.39138
-1.24372
-1.08701
-0.922594
-0.751972
-0.576784
-0.39875
-0.219702
-0.0414954
0.133932
0.304568
0.468423
0.623503
0.767885
0.899719
1.01727
1.11892
1.20321
1.2689
1.31501
1.34076
1.3457
1.3297
1.29288
1.23577
1.15925
1.06447
0.952992
0.826686
0.687708
0.53849
0.381749
0.220376
0.0574539
-0.103194
-0.259866
-0.408865
-0.547249
-0.672368
-0.781942
-0.874058
-0.947254
-1.0006
-1.03368
-1.0466
-1.03999
-1.01486
-0.972773
-0.915578
-0.845446
-0.7647
-0.6758
-0.581228
-0.483425
-0.384748
-0.28742
-0.193577
-0.105042
-0.0226302
0.0522111
0.118519
0.175672
0.22332
0.261351
0.28988
0.309208
0.319783
0.322194
0.317209
0.305246
0.287474
0.26466
0.237644
0.207264
0.174332
0.139616
0.103838
0.067664
0.0316897
-0.00354225
-0.0375468
-0.069766
-0.100026
-0.128041
-0.153544
-0.176345
-0.196327
-0.213427
-0.227624
-0.238943
-0.247449
-0.253239
-0.256435
-0.257187
-0.255674
-0.252057
-0.246556
-0.239388
-0.230777
-0.220944
-0.210105
-0.198473
-0.186254
-0.173647
-0.160844
-0.148025
-0.135358
-0.122997
-0.111171
-0.0998798
-0.08931
-0.079562
-0.0707259
-0.0628699
-0.0560372
-0.0502452
-0.045492
-0.0417625
-0.0390363
-0.0372887
-0.0364869
-0.0365876
-0.0375369
-0.03927
-0.0417232
-0.0448214
-0.0484886
-0.0526492
-0.0572356
-0.0621904
-0.067463
-0.072997
-0.0787192
-0.084538
-0.0903521
-0.0960676
-0.101616
-0.106953
-0.112049
-0.116867
-0.121361
-0.125478
-0.129176
-0.13243
-0.135225
-0.137546
-0.139361
-0.140623
-0.141275
-12.7547
-12.7464
-12.7295
-12.7058
-12.6683
-12.645
-12.6068
-12.5888
-1.80777
-1.82774
-1.9002
-1.96817
-2.05724
-2.14368
-2.22579
-2.29817
-2.36085
-2.41426
-2.45737
-2.48871
-2.50701
-2.51127
-2.50077
-2.47497
-2.43355
-2.37635
-2.30338
-2.21481
-2.11098
-1.99239
-1.85971
-1.71379
-1.55565
-1.38647
-1.2076
-1.02055
-0.82698
-0.628697
-0.427625
-0.22582
-0.0253111
0.171696
0.362969
0.546296
0.719458
0.880321
1.02684
1.15708
1.26928
1.36182
1.43335
1.48279
1.50934
1.51251
1.49221
1.44864
1.38242
1.29458
1.18648
1.0599
0.916973
0.76016
0.59223
0.41627
0.235564
0.0535816
-0.125917
-0.299931
-0.464873
-0.617452
-0.75471
-0.874134
-0.973616
-1.05163
-1.10721
-1.14002
-1.15031
-1.13892
-1.10714
-1.05681
-0.990134
-0.909602
-0.817898
-0.717814
-0.612139
-0.503586
-0.394738
-0.28803
-0.185948
-0.0898692
-0.00117161
0.0787922
0.149096
0.209149
0.258673
0.297638
0.326249
0.34491
0.354182
0.35476
0.347416
0.33288
0.312254
0.286444
0.256368
0.222929
0.187002
0.149401
0.110889
0.0721616
0.0338365
-0.00353033
-0.0394692
-0.0732653
-0.105006
-0.134225
-0.160695
-0.184242
-0.204764
-0.22221
-0.236577
-0.247907
-0.256283
-0.261819
-0.264653
-0.264949
-0.262908
-0.258706
-0.252572
-0.244743
-0.235457
-0.224946
-0.213438
-0.201152
-0.188302
-0.175094
-0.161725
-0.148379
-0.135227
-0.122428
-0.110213
-0.0985785
-0.0877169
-0.0777291
-0.0687057
-0.060715
-0.053798
-0.0479662
-0.0432108
-0.0395102
-0.0368397
-0.0351727
-0.0344739
-0.034697
-0.0357848
-0.0376674
-0.0402779
-0.0435377
-0.047367
-0.0516861
-0.0564258
-0.0615293
-0.0669498
-0.0726336
-0.0785064
-0.0844716
-0.0904207
-0.0962535
-0.101901
-0.107323
-0.112495
-0.117384
-0.121942
-0.126113
-0.129853
-0.133139
-0.135962
-0.138309
-0.140149
-0.141433
-0.142099
-14.7576
-14.7529
-14.7435
-14.7307
-14.7116
-14.701
-14.6822
-14.6759
-2.42525
-2.42491
-2.45594
-2.48889
-2.53451
-2.58982
-2.64725
-2.70257
-2.75127
-2.79188
-2.8226
-2.84195
-2.84847
-2.84098
-2.81852
-2.78036
-2.72598
-2.65508
-2.56755
-2.46347
-2.34314
-2.20705
-2.05588
-1.89054
-1.71211
-1.5219
-1.32136
-1.11216
-0.896111
-0.675225
-0.451612
-0.227514
-0.00522217
0.212857
0.424259
0.626553
0.817295
0.994145
1.15486
1.29733
1.41962
1.51997
1.59693
1.64934
1.67634
1.67742
1.65258
1.60202
1.52651
1.42723
1.30573
1.16402
1.00451
0.829941
0.643422
0.448395
0.248519
0.047647
-0.150183
-0.341308
-0.521864
-0.688261
-0.837247
-0.966069
-1.07246
-1.15482
-1.21218
-1.24429
-1.25154
-1.23503
-1.19632
-1.13757
-1.06129
-0.970348
-0.867764
-0.75665
-0.640113
-0.52111
-0.40243
-0.286623
-0.176936
-0.0737113
0.0208732
0.105555
0.179459
0.242058
0.293141
0.332769
0.361247
0.379076
0.386925
0.385608
0.375893
0.358781
0.335365
0.306651
0.27363
0.237267
0.198493
0.158168
0.117087
0.075974
0.0354644
-0.0038746
-0.041565
-0.0768792
-0.109938
-0.140242
-0.167579
-0.191786
-0.212776
-0.230511
-0.245005
-0.256316
-0.264543
-0.26982
-0.272296
-0.272149
-0.269604
-0.264844
-0.258111
-0.249659
-0.239739
-0.228597
-0.216466
-0.203574
-0.19014
-0.176377
-0.162487
-0.148657
-0.135061
-0.121864
-0.109281
-0.0973388
-0.0862124
-0.0760071
-0.066815
-0.0587048
-0.0517153
-0.0458525
-0.0411
-0.03743
-0.0348139
-0.0332236
-0.032622
-0.0329599
-0.0341776
-0.036199
-0.0389557
-0.0423656
-0.0463447
-0.0508096
-0.0556894
-0.0609282
-0.0664833
-0.0723046
-0.0783165
-0.0844175
-0.0904914
-0.0964314
-0.102168
-0.107667
-0.112908
-0.117861
-0.122477
-0.126696
-0.130474
-0.133789
-0.136635
-0.139006
-0.140872
-0.142177
-0.142854
-16.5468
-16.544
-16.5385
-16.5312
-16.5207
-16.515
-16.5045
-16.5017
-2.81865
-2.83759
-2.87374
-2.90325
-2.94147
-2.98435
-3.02876
-3.07104
-3.1093
-3.14027
-3.1614
-3.17136
-3.16835
-3.15098
-3.11815
-3.069
-3.00287
-2.91934
-2.81821
-2.69951
-2.5635
-2.41069
-2.2418
-2.05777
-1.85979
-1.64926
-1.42778
-1.19715
-0.959361
-0.7166
-0.471172
-0.225525
0.0178273
0.25626
0.487083
0.707649
0.915299
1.10749
1.2818
1.43592
1.56778
1.67548
1.75745
1.81246
1.83962
1.83838
1.80882
1.75117
1.66636
1.5557
1.42094
1.2643
1.08846
0.896452
0.691703
0.478006
0.259388
0.0400785
-0.175525
-0.383275
-0.57894
-0.758645
-0.918845
-1.05655
-1.16936
-1.2556
-1.31431
-1.34535
-1.34926
-1.32741
-1.28162
-1.21439
-1.12856
-1.02734
-0.914087
-0.792244
-0.665204
-0.536174
-0.408114
-0.283477
-0.167007
-0.0569309
0.0430843
0.132066
0.209184
0.273992
0.326353
0.366411
0.394577
0.41145
0.417808
0.414596
0.402517
0.382877