/*--------------------------------*- C++ -*----------------------------------*\
  =========                 |
  \\      /  F ield         | OpenFOAM: The Open Source CFD Toolbox
   \\    /   O peration     | Website:  https://openfoam.org
    \\  /    A nd           | Version:  12
     \\/     M anipulation  |
\*---------------------------------------------------------------------------*/
FoamFile
{
    format      ascii;
    class       volScalarField;
    location    "8.48";
    object      p_rgh;
}
// * * * * * * * * * * * * * * * * * * * * * * * * * * * * * * * * * * * * * //

dimensions      [1 -1 -2 0 0 0 0];

internalField   nonuniform List<scalar> 
3829
(
2.7188
2.71788
2.71601
2.71315
2.70924
2.70422
2.69804
2.69061
2.68186
2.6717
2.66004
2.64678
2.63183
2.61507
2.59641
2.57575
2.55299
2.52804
2.50081
2.47125
2.43928
2.40487
2.36798
2.32862
2.28677
2.24247
2.19578
2.14676
2.09551
2.04215
1.98682
1.92969
1.87096
1.81084
1.74957
1.68739
1.62459
1.56143
1.4982
1.4352
1.37271
1.311
1.25033
1.19177
1.13521
1.08087
1.02896
0.979706
0.933272
0.889823
0.849488
0.812372
0.778548
0.74806
0.720924
0.697124
0.676618
0.659324
0.645129
0.633869
0.625334
0.619275
0.615407
0.613406
0.612915
0.613548
0.614898
0.616538
0.618017
0.618877
0.618681
0.616992
0.613383
0.607451
0.598823
0.58717
0.572209
0.553711
0.531519
0.505566
0.475609
0.441897
0.40466
0.364155
0.320697
0.274683
0.226615
0.177073
0.126685
0.0761519
0.0262595
-0.0222393
-0.0685406
-0.111863
-0.151442
-0.186561
-0.21658
-0.240955
-0.259277
-0.271228
-0.275687
-0.27331
-0.264401
-0.249313
-0.228498
-0.202582
-0.172366
-0.138792
-0.102917
-0.0658367
-0.0289989
0.00643374
0.0392681
0.0683713
0.0927262
0.111494
0.124047
0.130021
0.128139
0.119426
0.104357
0.0835334
0.0578283
0.0283635
-0.00354605
-0.0364682
-0.0689117
-0.0993551
-0.12643
-0.148913
-0.165838
-0.176566
-0.180836
-0.17746
-0.168034
-0.153254
-0.134146
-0.112034
-0.088432
-0.06495
-0.0431652
-0.0245127
-0.0101759
-0.000990682
0.00263075
0.000176678
-0.00744866
-0.0194773
-0.0348702
-0.0526486
-0.0702566
-0.0866972
-0.100646
-0.111053
-0.117266
-0.118668
-0.115851
-0.109467
-0.100542
-0.0902875
-0.0801205
-0.0716477
-0.0659796
-0.0641204
-0.0666782
-0.0737897
-0.0851767
-0.100078
-0.117402
-0.135775
-0.153725
-0.169629
-0.182206
-0.190343
-0.19329
-0.190701
-0.182633
-0.169614
-0.152489
-0.132365
-0.110312
-0.0884255
-0.0678127
-0.0496659
-0.034983
-0.0254651
-0.0206584
-0.0207353
-0.0256304
-0.0353651
-0.0483018
-0.063964
-0.0814566
-0.0997416
-0.117784
-0.134609
-0.149328
-0.161168
-0.169493
-0.173818
2.81464
2.81402
2.81275
2.81078
2.80806
2.80451
2.80003
2.79452
2.78786
2.7799
2.7705
2.75948
2.74666
2.73186
2.71488
2.69553
2.67362
2.64897
2.6214
2.59077
2.55694
2.51982
2.47934
2.43547
2.38822
2.33764
2.28382
2.2269
2.16704
2.10447
2.03942
1.97218
1.90305
1.83236
1.76045
1.68769
1.61443
1.54104
1.46793
1.39547
1.32409
1.2542
1.18626
1.1204
1.05719
0.996955
0.940011
0.886628
0.837037
0.791431
0.74996
0.712734
0.679826
0.651269
0.627053
0.607128
0.591402
0.579724
0.571883
0.567624
0.566644
0.568594
0.573085
0.579688
0.587926
0.597305
0.607305
0.617367
0.626931
0.635453
0.642373
0.647149
0.649262
0.648224
0.64359
0.63499
0.622121
0.604766
0.582866
0.554827
0.522111
0.484771
0.442975
0.397
0.347255
0.294255
0.238638
0.18114
0.122549
0.0637087
0.00564334
-0.0507291
-0.104417
-0.154457
-0.199903
-0.239878
-0.273594
-0.300351
-0.319629
-0.331103
-0.334118
-0.328998
-0.315999
-0.295523
-0.268174
-0.234797
-0.19643
-0.15429
-0.109759
-0.0627522
-0.0176729
0.0255032
0.065257
0.100173
0.129011
0.150741
0.164588
0.170044
0.166801
0.155179
0.135697
0.109197
0.0768593
0.0401357
0.00068775
-0.0396901
-0.0791072
-0.115765
-0.14795
-0.174181
-0.193274
-0.204418
-0.207175
-0.202087
-0.189329
-0.169937
-0.145365
-0.11735
-0.0878183
-0.058782
-0.032197
-0.00979886
0.00698589
0.0171664
0.0202438
0.0163049
0.00595356
-0.00971398
-0.0292826
-0.051834
-0.0734981
-0.0934088
-0.10994
-0.121844
-0.128326
-0.129034
-0.124487
-0.115538
-0.103541
-0.0900191
-0.0768058
-0.0657146
-0.0581302
-0.0552282
-0.0576825
-0.0656424
-0.0786436
-0.0957772
-0.115695
-0.136788
-0.157349
-0.175473
-0.189733
-0.198888
-0.202138
-0.199145
-0.190101
-0.175599
-0.156651
-0.134511
-0.110221
-0.086472
-0.0642917
-0.0449637
-0.0295347
-0.0194896
-0.014597
-0.0149888
-0.0204925
-0.031377
-0.0453288
-0.0621276
-0.08078
-0.100169
-0.119208
-0.136881
-0.152286
-0.164642
-0.173312
-0.17781
2.9291
2.92949
2.93026
2.93133
2.9326
2.93393
2.93514
2.93598
2.9362
2.93548
2.93348
2.92984
2.92416
2.91605
2.90509
2.89089
2.87305
2.85122
2.82507
2.79432
2.75873
2.71812
2.67237
2.6214
2.56522
2.5039
2.43759
2.36651
2.29093
2.21122
2.1278
2.04115
1.95181
1.86035
1.76736
1.67345
1.57927
1.48544
1.39256
1.3012
1.21186
1.12499
1.04088
0.961552
0.887322
0.818194
0.754326
0.695904
0.643105
0.596084
0.554967
0.519844
0.490757
0.467703
0.450624
0.439395
0.433829
0.433661
0.438561
0.448122
0.461878
0.479308
0.499842
0.522852
0.547658
0.573556
0.599812
0.625662
0.650349
0.673096
0.693148
0.709766
0.722241
0.729914
0.732199
0.728551
0.718494
0.701703
0.677864
0.647656
0.610488
0.566536
0.516125
0.459736
0.398015
0.331725
0.261775
0.189191
0.115084
0.0406466
-0.0327845
-0.103919
-0.171416
-0.233971
-0.290312
-0.339265
-0.379804
-0.411004
-0.432131
-0.44271
-0.442602
-0.431864
-0.410751
-0.379813
-0.339948
-0.292346
-0.238438
-0.179862
-0.118423
-0.0560346
0.00507505
0.062931
0.115596
0.161244
0.198271
0.225365
0.241554
0.246186
0.239568
0.221749
0.19344
0.155927
0.110922
0.0604574
0.00683379
-0.0474874
-0.0999135
-0.148042
-0.18961
-0.222695
-0.245778
-0.257889
-0.258654
-0.248856
-0.228911
-0.200346
-0.165228
-0.125994
-0.0853157
-0.0459281
-0.0104833
0.018733
0.0398673
0.0517155
0.053692
0.0463982
0.0305163
0.00776836
-0.0196856
-0.0513265
-0.0804789
-0.106786
-0.128022
-0.142541
-0.149406
-0.148544
-0.140499
-0.126596
-0.108778
-0.0891554
-0.0702913
-0.0544168
-0.0434053
-0.0387077
-0.0411153
-0.0507155
-0.0667897
-0.0880638
-0.112733
-0.138735
-0.164025
-0.186071
-0.20326
-0.214152
-0.217864
-0.214084
-0.203181
-0.185973
-0.163812
-0.138467
-0.109434
-0.0828147
-0.0579622
-0.0366201
-0.0200655
-0.00904656
-0.00408213
-0.00511174
-0.0116566
-0.0246222
-0.0402832
-0.0590701
-0.0797223
-0.100992
-0.121711
-0.140811
-0.157361
-0.170573
-0.179812
-0.184595
3.06408
3.06673
3.07205
3.07993
3.0902
3.10259
3.11673
3.13224
3.14867
3.16542
3.18177
3.1969
3.2099
3.21985
3.22578
3.22671
3.22171
3.20991
3.19052
3.16288
3.12645
3.08083
3.02581
2.96137
2.88764
2.80496
2.71384
2.61495
2.50908
2.39712
2.28003
2.15881
2.0345
1.9081
1.78059
1.65292
1.52609
1.40104
1.27868
1.15991
1.04564
0.936735
0.834252
0.736476
0.645627
0.562345
0.487111
0.420268
0.362053
0.312627
0.272077
0.240427
0.217627
0.203556
0.198005
0.200659
0.211113
0.22887
0.253363
0.283956
0.319944
0.360536
0.404889
0.452088
0.50118
0.551165
0.60101
0.649663
0.696053
0.739111
0.777822
0.811185
0.838251
0.85817
0.870125
0.873459
0.867609
0.851995
0.825983
0.790283
0.744835
0.689882
0.625892
0.553575
0.473835
0.387744
0.296581
0.201793
0.10494
0.00771379
-0.0880992
-0.180672
-0.268154
-0.348761
-0.420761
-0.48252
-0.532643
-0.569983
-0.593611
-0.602726
-0.597731
-0.578364
-0.545
-0.498519
-0.440243
-0.371868
-0.295415
-0.21318
-0.127702
-0.0417422
0.0419372
0.120548
0.191435
0.252147
0.300533
0.334896
0.353995
0.357099
0.344778
0.317156
0.275414
0.221459
0.15774
0.0871563
0.0129356
-0.0615772
-0.132657
-0.197125
-0.251928
-0.29452
-0.322958
-0.336044
-0.333364
-0.316054
-0.285076
-0.242736
-0.192005
-0.136328
-0.0794499
-0.0252161
0.0228466
0.0616023
0.088647
0.102458
0.102469
0.0895887
0.0651149
0.0316409
-0.00766851
-0.0518053
-0.0919526
-0.127463
-0.155321
-0.173376
-0.180479
-0.176893
-0.163419
-0.142113
-0.115744
-0.0873143
-0.0603603
-0.0377675
-0.0220597
-0.0150255
-0.0175122
-0.0296902
-0.0502839
-0.0774707
-0.108829
-0.141617
-0.173525
-0.200834
-0.221916
-0.235029
-0.239206
-0.234231
-0.220634
-0.199602
-0.172824
-0.142295
-0.109142
-0.0778563
-0.0492661
-0.0252045
-0.00721587
0.0049477
0.00980816
0.00770651
-0.000789061
-0.0153321
-0.0337541
-0.0552492
-0.0785204
-0.102215
-0.125075
-0.145979
-0.163964
-0.178243
-0.188185
-0.193319
3.03527
3.04344
3.05977
3.08392
3.11547
3.15386
3.19833
3.24784
3.30103
3.35642
3.41252
3.46764
3.51982
3.56703
3.60729
3.63879
3.65982
3.66879
3.66434
3.64533
3.61094
3.56063
3.49418
3.41173
3.31375
3.20105
3.07474
2.93599
2.78616
2.62698
2.46032
2.28811
2.11226
1.93462
1.75697
1.58098
1.40814
1.23982
1.07727
0.921551
0.773623
0.63425
0.503889
0.382494
0.275763
0.181452
0.0990882
0.0286118
-0.0298995
-0.0763527
-0.110706
-0.133001
-0.143377
-0.142084
-0.129493
-0.106106
-0.0725352
-0.0295013
0.0221732
0.0815706
0.147687
0.219407
0.295547
0.374837
0.455964
0.537542
0.61817
0.696414
0.770828
0.839974
0.902478
0.957029
1.00238
1.0374
1.0612
1.07302
1.07252
1.05991
1.02745
0.982938
0.925561
0.855335
0.772837
0.678999
0.575057
0.462503
0.343109
0.218879
0.0919702
-0.0352805
-0.16046
-0.281067
-0.394573
-0.498576
-0.590797
-0.669069
-0.731474
-0.776422
-0.802772
-0.809844
-0.797738
-0.766372
-0.716393
-0.649126
-0.566418
-0.470631
-0.364567
-0.251394
-0.134579
-0.017902
0.0949416
0.200191
0.294284
0.373987
0.436488
0.4796
0.501763
0.502113
0.481361
0.440041
0.380011
0.30397
0.215364
0.118228
0.0170227
-0.0838368
-0.179016
-0.264381
-0.335901
-0.390243
-0.424931
-0.438549
-0.430657
-0.402663
-0.356593
-0.295701
-0.224171
-0.146799
-0.0687014
0.00479292
0.068982
0.119689
0.153833
0.169466
0.166233
0.145294
0.108936
0.0608498
0.005456
-0.0541595
-0.108879
-0.156284
-0.192452
-0.214673
-0.221627
-0.213898
-0.192891
-0.161612
-0.123933
-0.0840089
-0.0466467
-0.0156026
0.00584171
0.0155268
0.0127321
-0.00313615
-0.0296651
-0.0644769
-0.104368
-0.14581
-0.185439
-0.219322
-0.245075
-0.260729
-0.265249
-0.258587
-0.241537
-0.215707
-0.183252
-0.146608
-0.108136
-0.0714542
-0.0384484
-0.0111119
0.00905015
0.0218213
0.0262754
0.0227759
0.0120959
-0.00494646
-0.0264166
-0.051057
-0.0773639
-0.103841
-0.129134
-0.152065
-0.17165
-0.187104
-0.197816
-0.203331
2.71895
2.74336
2.79232
2.85775
2.93857
3.03485
3.14505
3.2671
3.39818
3.53502
3.6739
3.81106
3.94296
4.06616
4.17722
4.2727
4.34908
4.40279
4.43074
4.43156
4.40391
4.347
4.2606
4.14514
4.00165
3.83207
3.6391
3.42647
3.19822
2.95844
2.71072
2.45836
2.20452
1.95217
1.70393
1.46198
1.2282
1.00424
0.791554
0.591407
0.404826
0.232877
0.0767337
-0.0621073
-0.18575
-0.293638
-0.385088
-0.459812
-0.517732
-0.558921
-0.583534
-0.591862
-0.584349
-0.561561
-0.524192
-0.473035
-0.409005
-0.33313
-0.246554
-0.150537
-0.0464349
0.0642527
0.179941
0.29894
0.419478
0.539784
0.657975
0.772164
0.880436
0.980916
1.07181
1.15136
1.21791
1.26996
1.30611
1.32511
1.32572
1.30645
1.2742
1.22214
1.15112
1.06213
0.956425
0.835479
0.701092
0.555353
0.400695
0.239816
0.0756063
-0.0887935
-0.25017
-0.40523
-0.550631
-0.683156
-0.799785
-0.897785
-0.974745
-1.02864
-1.05793
-1.06154
-1.04008
-0.993322
-0.922337
-0.829001
-0.715832
-0.586038
-0.443391
-0.292135
-0.136885
0.0173287
0.165618
0.303025
0.424941
0.527162
0.60611
0.659016
0.683935
0.679899
0.647774
0.588715
0.505403
0.401577
0.281893
0.151787
0.0171845
-0.115513
-0.240107
-0.350723
-0.442119
-0.510079
-0.551587
-0.565023
-0.549479
-0.507468
-0.442095
-0.357814
-0.260316
-0.156071
-0.0517766
0.045153
0.128703
0.193502
0.235593
0.252739
0.244557
0.212847
0.161112
0.0944973
0.0190169
-0.0597148
-0.132228
-0.193916
-0.239776
-0.266485
-0.272678
-0.25918
-0.228414
-0.184555
-0.132829
-0.078756
-0.0288516
0.0121536
0.0401374
0.0524572
0.0479123
0.0282198
-0.00547379
-0.0495076
-0.0996008
-0.15125
-0.199842
-0.241219
-0.272191
-0.290533
-0.295193
-0.286325
-0.265096
-0.233612
-0.194598
-0.151083
-0.106275
-0.063671
-0.0258243
0.00505619
0.0274393
0.0407679
0.044588
0.0393928
0.0262023
0.0061689
-0.0186748
-0.0467705
-0.0763827
-0.105858
-0.133744
-0.158811
-0.180062
-0.196726
-0.208224
-0.214126
2.19428
2.22961
2.30076
2.41611
2.5744
2.77167
2.99976
3.25203
3.52136
3.80564
4.09497
4.3802
4.65262
4.90434
5.12833
5.31858
5.47022
5.57971
5.64401
5.65999
5.62534
5.53896
5.40081
5.21219
4.97584
4.69634
4.38012
4.03691
3.67771
3.30984
2.93961
2.5726
2.21308
1.86431
1.52888
1.20895
0.906258
0.62207
0.357348
0.112712
-0.111198
-0.314591
-0.498126
-0.663348
-0.792844
-0.902275
-0.991695
-1.06069
-1.10899
-1.13656
-1.1436
-1.13051
-1.09791
-1.04653
-0.97727
-0.891166
-0.789424
-0.673381
-0.544513
-0.404451
-0.254964
-0.0979764
0.0644797
0.230236
0.397049
0.562603
0.72452
0.880398
1.0278
1.16434
1.28775
1.39583
1.48649
1.55789
1.60836
1.6365
1.64118
1.62188
1.57971
1.51336
1.42315
1.31006
1.17557
1.02158
0.850448
0.664887
0.468092
0.263605
0.0551665
-0.15317
-0.357197
-0.55267
-0.735353
-0.901153
-1.04616
-1.16684
-1.2602
-1.32375
-1.35567
-1.35494
-1.32156
-1.2559
-1.15954
-1.03496
-0.88549
-0.715358
-0.529482
-0.333362
-0.132979
0.0651261
0.254626
0.42922
0.583064
0.710846
0.808126
0.871425
0.898493
0.888225
0.841655
0.760827
0.649324
0.512128
0.355391
0.186218
0.0123348
-0.157877
-0.316585
-0.456214
-0.570149
-0.653096
-0.701501
-0.714348
-0.688085
-0.628748
-0.539918
-0.427496
-0.299005
-0.162991
-0.0277797
0.0963786
0.202215
0.282876
0.333458
0.351433
0.336423
0.291186
0.220635
0.131651
0.0321761
-0.069349
-0.162552
-0.24061
-0.297249
-0.328507
-0.333026
-0.312065
-0.269263
-0.210285
-0.141959
-0.071127
-0.00683636
0.0453866
0.0805581
0.095622
0.0896503
0.0641325
0.0217414
-0.0330369
-0.0948058
-0.157923
-0.216626
-0.266167
-0.302691
-0.323725
-0.328242
-0.316653
-0.29058
-0.252713
-0.206426
-0.155377
-0.103565
-0.0546546
-0.0117204
0.0228064
0.0473226
0.0611369
0.0641168
0.0569637
0.0409765
0.0176323
-0.0108304
-0.0425831
-0.0756539
-0.108233
-0.138771
-0.165995
-0.188908
-0.206767
-0.21903
-0.225307
0.687929
0.758094
0.89989
1.11484
1.40187
1.76004
2.18297
2.67108
3.19079
3.71778
4.23488
4.73097
5.19355
5.6138
5.98478
6.30135
6.55912
6.75415
6.88261
6.94125
6.92632
6.83529
6.666
6.41806
6.09122
5.69071
5.21924
4.70457
4.16472
3.63399
3.11089
2.60487
2.11867
1.65635
1.22102
0.814898
0.439196
0.0943658
-0.21956
-0.502702
-0.755421
-0.977389
-1.16797
-1.32537
-1.47371
-1.59275
-1.6829
-1.74517
-1.78049
-1.78972
-1.77369
-1.73328
-1.66941
-1.58313
-1.47559
-1.34811
-1.20218
-1.03947
-0.861826
-0.671256
-0.469946
-0.260301
-0.044841
0.173739
0.392666
0.609052
0.819955
1.0224
1.21337
1.38994
1.54928
1.68869
1.80562
1.89783
1.96337
2.00059
2.00824
1.98558
1.93272
1.84942
1.73632
1.5947
1.42643
1.23391
1.02016
0.788665
0.543433
0.288955
0.0300002
-0.228361
-0.480857
-0.7221
-0.946813
-1.14992
-1.32662
-1.47254
-1.58393
-1.65777
-1.69193
-1.68513
-1.63743
-1.5496
-1.42374
-1.26308
-1.07194
-0.855676
-0.620544
-0.373445
-0.121673
0.125908
0.361666
0.57781
0.76707
0.922909
1.0399
1.11392
1.14244
1.12377
1.05974
0.953248
0.808917
0.63317
0.433893
0.220057
0.00152804
-0.211181
-0.4082
-0.58011
-0.718742
-0.817559
-0.87191
-0.878863
-0.843409
-0.764267
-0.648131
-0.503069
-0.338875
-0.166449
0.00343493
0.158359
0.289001
0.386938
0.446237
0.463927
0.440367
0.378917
0.286206
0.171164
0.0441938
-0.0834769
-0.199981
-0.296145
-0.364339
-0.399962
-0.401722
-0.371562
-0.314518
-0.238036
-0.15091
-0.0608336
0.0193073
0.0837206
0.126481
0.144123
0.135885
0.103646
0.0512805
-0.0155684
-0.0902645
-0.165863
-0.235528
-0.293694
-0.335942
-0.359568
-0.363592
-0.348809
-0.317315
-0.272456
-0.218339
-0.159305
-0.100047
-0.0445951
0.00353376
0.0416942
0.0682094
0.0823826
0.084327
0.0749967
0.0559936
0.0291228
-0.00311261
-0.0386264
-0.0752142
-0.110914
-0.144087
-0.173428
-0.197949
-0.216949
-0.229936
-0.236564
-1.29539
-1.18127
-0.948207
-0.590266
-0.102745
0.521152
1.25171
2.13281
3.04029
4.00051
4.95427
5.87257
6.71274
7.46413
8.12041
8.67246
9.11226
9.43381
9.63231
9.70312
9.64267
9.44827
9.11805
8.65339
8.05952
7.34733
6.50276
5.60656
4.70533
3.88524
3.11505
2.40761
1.76389
1.18098
0.654162
0.178578
-0.249854
-0.634711
-0.978739
-1.28409
-1.55265
-1.78598
-1.98518
-2.15187
-2.28739
-2.3914
-2.46474
-2.50766
-2.52049
-2.50377
-2.45817
-2.38454
-2.28384
-2.15725
-2.0061
-1.83192
-1.6365
-1.42181
-1.19007
-0.943678
-0.685283
-0.417785
-0.144222
0.132145
0.407953
0.679704
0.943841
1.19676
1.43482
1.65447
1.85233
2.02515
2.16988
2.28386
2.36476
2.4106
2.42002
2.39204
2.32651
2.22364
2.08436
1.9103
1.70383
1.468
1.20652
0.923702
0.624565
0.314612
-0.000301182
-0.313896
-0.619753
-0.911317
-1.18207
-1.42585
-1.6369
-1.80991
-1.94041
-2.02477
-2.06047
-2.0463
-1.98206
-1.86906
-1.71
-1.50898
-1.27138
-1.00392
-0.714388
-0.411262
-0.102302
0.199296
0.48544
0.746689
0.974165
1.15998
1.29758
1.3823
1.412
1.38216
1.29792
1.16226
0.980963
0.762098
0.515486
0.252175
-0.0157658
-0.275113
-0.513899
-0.720748
-0.88583
-1.00138
-1.06214
-1.06589
-1.01479
-0.911923
-0.764596
-0.582874
-0.378852
-0.165878
0.0418248
0.230458
0.387929
0.504195
0.572239
0.588686
0.554641
0.474373
0.356393
0.212062
0.054401
-0.102292
-0.244213
-0.359819
-0.440068
-0.479676
-0.477517
-0.436451
-0.363121
-0.266996
-0.159398
-0.0476786
0.0492264
0.126535
0.177074
0.196986
0.185721
0.145858
0.0824215
0.00241092
-0.0861684
-0.175066
-0.256235
-0.32328
-0.371267
-0.397303
-0.40056
-0.382082
-0.34468
-0.292388
-0.230039
-0.162721
-0.095788
-0.0337072
0.0196062
0.0613063
0.0896611
0.104037
0.104768
0.0930859
0.0709147
0.040397
0.00431629
-0.0349823
-0.0750705
-0.11384
-0.149575
-0.180947
-0.206991
-0.227055
-0.240709
-0.247657
-4.75353
-4.58882
-4.25757
-3.7525
-3.10313
-1.92413
-0.894021
0.855764
3.0231
5.00836
6.50155
7.81361
8.9321
9.86628
10.6256
11.2296
11.697
12.0418
12.2706
12.3682
12.3359
12.165
11.8312
11.2974
10.5157
9.52967
8.00028
6.05416
4.52127
3.62226
2.62599
1.80159
1.06708
0.415922
-0.160642
-0.671402
-1.12405
-1.52452
-1.87749
-2.18685
-2.45523
-2.68455
-2.87662
-3.03259
-3.15477
-3.24321
-3.29717
-3.31699
-3.30316
-3.25624
-3.17692
-3.06602
-2.92457
-2.7538
-2.55519
-2.33047
-2.08168
-1.81112
-1.52135
-1.21521
-0.895814
-0.56658
-0.231102
0.10676
0.443002
0.77349
1.094
1.40026
1.68798
1.95292
2.19112
2.39875
2.57222
2.70839
2.80454
2.8584
2.86838
2.83347
2.75334
2.62849
2.46013
2.25031
2.00195
1.71878
1.40534
1.06684
0.709328
0.339448
-0.0357727
-0.408793
-0.771899
-1.11728
-1.43719
-1.72428
-1.97165
-2.1731
-2.32339
-2.41832
-2.45502
-2.4319
-2.34909
-2.2083
-2.01289
-1.76787
-1.47985
-1.15704
-0.809013
-0.446836
-0.0741014
0.284104
0.623773
0.932847
1.20064
1.41774
1.57641
1.67081
1.69664
1.65778
1.55158
1.3838
1.16204
0.896262
0.598406
0.28174
-0.0395878
-0.348788
-0.631941
-0.875675
-1.0684
-1.20105
-1.26767
-1.26602
-1.19799
-1.06866
-0.886958
-0.665193
-0.41797
-0.161352
0.087109
0.311572
0.497344
0.632594
0.709226
0.723606
0.677096
0.575662
0.429726
0.253398
0.0623471
-0.125627
-0.294594
-0.430578
-0.523082
-0.566157
-0.55894
-0.505404
-0.413973
-0.296321
-0.166335
-0.0325112
0.082311
0.17304
0.231369
0.253154
0.238179
0.189854
0.114477
0.0204661
-0.0826662
-0.185425
-0.278379
-0.354367
-0.407983
-0.436181
-0.438291
-0.415801
-0.372144
-0.312105
-0.241324
-0.165549
-0.0908868
-0.0222161
0.0361774
0.0812657
0.111284
0.125699
0.125065
0.110908
0.0854817
0.0512716
0.0113455
-0.0316941
-0.0752052
-0.116945
-0.155129
-0.188418
-0.215878
-0.236918
-0.251175
-0.258408
-9.87398
-9.61896
-9.0799
-8.22581
-7.04048
-5.92639
-4.09545
-1.95024
1.16746
3.78728
6.01563
8.10999
9.88899
11.4562
12.7942
13.9033
14.7719
15.3887
15.7514
15.8558
15.6976
15.2752
14.5831
13.6331
12.367
11.1726
9.41168
5.76503
4.5821
2.979
1.74032
0.75609
-0.035265
-0.692469
-1.25228
-1.73987
-2.16861
-2.54737
-2.88132
-3.17355
-3.42627
-3.64071
-3.81771
-3.95774
-4.06105
-4.12754
-4.15743
-4.15064
-4.10727
-4.0276
-3.91214
-3.76162
-3.57706
-3.35974
-3.11127
-2.83355
-2.52888
-2.19988
-1.8495
-1.481
-1.09797
-0.704406
-0.304463
0.0973599
0.496412
0.887861
1.2668
1.62826
1.96725
2.27885
2.55846
2.80165
3.00425
3.16268
3.27378
3.33496
3.34439
3.3011
3.20468
3.05579
2.85599
2.60776
2.31463
1.98104
1.6124
1.2149
0.795674
0.362569
-0.0761649
-0.511641
-0.934796
-1.33649
-1.70767
-2.03979
-2.32481
-2.55555
-2.72593
-2.83117
-2.86805
-2.83481
-2.73176
-2.56107
-2.3268
-2.03499
-1.69351
-1.31206
-0.901772
-0.474753
-0.042365
0.377743
0.77383
1.13273
1.44221
1.69143
1.87149
1.97591
2.00098
1.94733
1.81628
1.61374
1.34869
1.03308
0.681111
0.308496
-0.0698052
-0.43085
-0.760074
-1.04194
-1.26294
-1.41267
-1.48445
-1.47593
-1.38939
-1.2314
-1.01287
-0.74841
-0.455457
-0.152912
0.138398
0.400169
0.615163
0.769684
0.854537
0.865789
0.805364
0.680798
0.504792
0.294204
0.0679025
-0.153049
-0.350194
-0.507096
-0.611783
-0.65772
-0.644398
-0.577055
-0.466045
-0.325337
-0.17091
-0.0161816
0.117937
0.222364
0.288329
0.311546
0.292242
0.234775
0.146795
0.0382357
-0.0798296
-0.196784
-0.301558
-0.386389
-0.44543
-0.475517
-0.476182
-0.449394
-0.399252
-0.331308
-0.251988
-0.167808
-0.0854684
-0.0103471
0.0529493
0.101234
0.132733
0.14703
0.144916
0.128211
0.0994996
0.0616161
0.0179057
-0.0287769
-0.0755875
-0.120162
-0.160656
-0.195729
-0.22449
-0.246411
-0.261203
-0.268688
-16.3408
-16.3011
-16.2332
-16.1975
-16.0413
-15.9222
-15.6939
-15.3408
-0.276732
-0.338309
-0.436775
-0.718419
-1.17309
-1.61536
-2.0676
-2.50098
-2.90676
-3.27919
-3.61704
-3.91926
-4.18588
-4.4166
-4.61112
-4.76886
-4.88932
-4.97205
-5.01646
-5.0218
-4.98771
-4.91402
-4.80079
-4.64835
-4.45734
-4.22872
-3.96384
-3.6644
-3.3325
-2.97072
-2.58198
-2.16962
-1.73737
-1.28933
-0.83005
-0.364286
0.102806
0.565886
1.01943
1.45781
1.87536
2.26634
2.62516
2.94655
3.22546
3.45716
3.63756
3.76311
3.83089
3.83889
3.78596
3.67182
3.49731
3.26429
2.97574
2.6358
2.24967
1.82365
1.36494
0.88182
0.383368
-0.120925
-0.62072
-1.10562
-1.56509
-1.98876
-2.36682
-2.6901
-2.95041
-3.14086
-3.256
-3.29218
-3.24795
-3.1234
-2.92124
-2.64634
-2.30581
-1.90883
-1.46666
-0.992212
-0.499499
-0.00333337
0.479179
0.932844
1.34254
1.69432
1.9759
2.17721
2.2911
2.31361
2.24468
2.08716
1.84795
1.53762
1.17015
0.76221
0.332433
-0.105949
-0.519546
-0.895727
-1.21631
-1.46577
-1.6323
-1.70849
-1.69193
-1.58552
-1.39724
-1.14011
-0.831131
-0.490765
-0.140846
0.19458
0.494491
0.739116
0.912873
1.00544
1.01265
0.937092
0.78791
0.580233
0.333905
0.0709682
-0.183987
-0.409909
-0.587894
-0.704482
-0.752632
-0.732293
-0.650075
-0.518403
-0.353676
-0.174299
0.0022335
0.155579
0.273614
0.346912
0.371105
0.346947
0.27983
0.178811
0.0554304
-0.0776688
-0.208964
-0.325366
-0.418807
-0.482999
-0.514692
-0.513658
-0.482376
-0.425625
-0.349751
-0.261974
-0.169481
-0.0796643
0.00168612
0.0696558
0.12092
0.153714
0.167758
0.164084
0.144804
0.11283
0.0713459
0.0239613
-0.0262247
-0.0761793
-0.123428
-0.166078
-0.202795
-0.232736
-0.255444
-0.270707
-0.278409
-22.7157
-22.6917
-22.6404
-22.5638
-22.4392
-22.3297
-22.163
-22.0373
-1.27964
-1.6348
-1.99325
-2.29465
-2.65311
-3.00829
-3.36697
-3.71856
-4.05691
-4.37612
-4.67229
-4.94208
-5.18257
-5.39125
-5.56602
-5.70507
-5.80673
-5.86957
-5.89204
-5.87327
-5.8124
-5.70888
-5.5625
-5.37339
-5.14209
-4.86955
-4.55712
-4.20668
-3.82049
-3.40141
-2.9527
-2.47811
-1.98183
-1.46848
-0.943198
-0.411342
0.121259
0.648558
1.16434
1.66225
2.13588
2.57879
2.98466
3.34758
3.66187
3.92222
4.12404
4.26339
4.33703
4.34272
4.27923
4.14636
3.94514
3.67779
3.34775
2.95982
2.51997
2.0354
1.51437
0.966288
0.401517
-0.169278
-0.734156
-1.28143
-1.79918
-2.27568
-2.69986
-3.0614
-3.3511
-3.56128
-3.68588
-3.72094
-3.6647
-3.51769
-3.28307
-2.96648
-2.57617
-2.12264
-1.61877
-1.07929
-0.520222
0.0410726
0.5863
1.0978
1.55841
1.95244
2.26609
2.48818
2.61081
2.62972
2.54474
2.35969
2.08267
1.72587
1.3053
0.840398
0.353953
-0.147564
-0.612817
-1.03624
-1.39559
-1.67326
-1.85608
-1.93594
-1.91041
-1.78311
-1.5635
-1.26664
-0.912188
-0.523554
-0.125598
0.254441
0.592701
0.866896
1.05957
1.1593
1.16169
1.07005
0.895261
0.654887
0.371956
0.0716719
-0.217737
-0.472563
-0.671455
-0.799496
-0.849219
-0.821104
-0.723243
-0.570205
-0.380955
-0.176489
0.022297
0.194582
0.325907
0.406128
0.430857
0.401419
0.324325
0.21007
0.0718197
-0.0761333
-0.221781
-0.349406
-0.451125
-0.520152
-0.553173
-0.550236
-0.51435
-0.450984
-0.367264
-0.271184
-0.170648
-0.0736078
0.013691
0.086068
0.140082
0.173995
0.187673
0.182391
0.160552
0.125383
0.0804129
0.0295015
-0.0240176
-0.0769388
-0.126686
-0.171331
-0.20955
-0.240554
-0.263958
-0.279629
-0.287518
-28.1294
-28.1091
-28.0679
-28.0064
-27.9139
-27.8481
-27.7531
-27.7077
-3.07484
-3.21079
-3.43624
-3.64718
-3.92848
-4.21682
-4.51752
-4.81947
-5.11621
-5.40081
-5.66841
-5.91439
-6.13472
-6.32575
-6.48424
-6.60732
-6.69248
-6.73748
-6.74007
-6.69893
-6.6128
-6.48081
-6.3025
-6.07783
-5.80725
-5.49169
-5.13259
-4.73193
-4.2922
-3.81652
-3.30852
-2.77237
-2.21272
-1.63473
-1.04411
-0.446845
0.150563
0.741369
1.31864
1.87532
2.40428
2.89833
3.35047
3.75414
4.10302
4.39123
4.61372
4.76612
4.84487
4.84756
4.77283
4.62059
4.39209
4.08989
3.71792
3.28162
2.78776
2.24444
1.66096
1.0479
0.416906
-0.220344
-0.850032
-1.45937
-2.03502
-2.5639
-3.0337
-3.43296
-3.75149
-3.98082
-4.11429
-4.14761
-4.07887
-3.90891
-3.64138
-3.28276
-2.84238
-2.33216
-1.76656
-1.16214
-0.536955
0.089409
0.696917
1.26572
1.77664
2.21227
2.5573
2.79944
2.93006
2.94461
2.84299
2.62985
2.31451
1.91086
1.43688
0.914258
0.366817
-0.187306
-0.708332
-1.17909
-1.57673
-1.88199
-2.08042
-2.16324
-2.12807
-1.97925
-1.72778
-1.3908
-0.99068
-0.553696
-0.107592
0.316744
0.692985
0.996284
1.20733
1.31363
1.31056
1.20225
1.00128
0.727792
0.407902
0.0702822
-0.253543
-0.536978
-0.756308
-0.895242
-0.94593
-0.909453
-0.795479
-0.620742
-0.406857
-0.177507
0.0435159
0.234272
0.378403
0.465072
0.489932
0.454909
0.367687
0.240191
0.0872142
-0.0751947
-0.234966
-0.373306
-0.482911
-0.556427
-0.590519
-0.585528
-0.545007
-0.475111
-0.383733
-0.279634
-0.171337
-0.0674237
0.0254998
0.101996
0.158527
0.193394
0.206617
0.199713
0.175366
0.137105
0.0887966
0.0345335
-0.022128
-0.0778245
-0.129891
-0.176366
-0.215948
-0.247901
-0.271917
-0.287941
-0.295988
-32.9944
-32.9823
-32.9582
-32.9251
-32.8782
-32.8472
-32.8004
-32.7832
-4.43012
-4.5004
-4.6629
-4.82695
-5.04749
-5.28831
-5.54703
-5.81391
-6.08173
-6.34296
-6.59149
-6.82163
-7.02835
-7.20704
-7.35361
-7.46441
-7.53623
-7.56646
-7.55126
-7.4899
-7.38051
-7.22188
-7.01333
-6.75471
-6.44639
-6.08931
-5.68498
-5.23553
-4.74367
-4.21281
-3.64696
-3.05067
-2.4291
-1.78792
-1.13345
-0.472251
0.188473
0.841297
1.47859
2.09259
2.67545
3.21928
3.71638
4.15955
4.54187
4.85692
5.09914
5.26377
5.34695
5.34606
5.25968
5.08781
4.83191
4.49489
4.08118
3.59688
3.04952
2.4481
1.80292
1.12574
0.429388
-0.272994
-0.966496
-1.63679
-2.26921
-2.84936
-3.3637
-3.79967
-4.14613
-4.39383
-4.53557
-4.56667
-4.48511
-4.29208
-3.99172
-3.59134
-3.10138
-2.5351
-1.90857
-1.24019
-0.549969
0.140407
0.808985
1.43384
1.99388
2.46996
2.84534
3.10662
3.2445
3.2541
3.13552
2.8942
2.54068
2.09044
1.56356
0.984022
0.377695
-0.230603
-0.805004
-1.32202
-1.75698
-2.0889
-2.30214
-2.38729
-2.34198
-2.17141
-1.88805
-1.51119
-1.06575
-0.580991
-0.0876316
0.380278
0.793665
1.12527
1.35397
1.46621
1.45724
1.33194
1.1047
0.798124
0.441589
0.0669999
-0.290656
-0.602038
-0.841111
-0.99029
-1.0414
-0.996152
-0.865862
-0.669465
-0.431202
-0.177405
0.0654303
0.274013
0.430347
0.522958
0.54759
0.506793
0.409448
0.268899
0.101509
-0.0748406
-0.24824
-0.39674
-0.513801
-0.59145
-0.62638
-0.619236
-0.574124
-0.497861
-0.399087
-0.287299
-0.171647
-0.0612251
0.0369728
0.117289
0.17611
0.211781
0.224484
0.21597
0.189196
0.147973
0.096498
0.0390773
-0.0205237
-0.0787979
-0.133
-0.181147
-0.221959
-0.254756
-0.279306
-0.295632
-0.303812
-37.3424
-37.3353
-37.321
-37.3024
-37.2758
-37.2597
-37.233
-37.2258
-5.47542
-5.52545
-5.6627
-5.80424
-5.99704
-6.21377
-6.45056
-6.69835
-6.95024
-7.19865
-7.43686
-7.65845
-7.85764
-8.02909
-8.16802
-8.27011
-8.33147
-8.34835
-8.31932
-8.24033
-8.10986
-7.92661
-7.68976
-7.39908
-7.05489
-6.65817
-6.2105
-5.71417
-5.17211
-4.58805
-3.96634
-3.31196
-2.63055
-1.92828
-1.21209
-0.489079
0.232818
0.945538
1.64077
2.31006
2.94488
3.53665
4.07698
4.55807
4.97242
5.31305
5.57396
5.74997
5.83695
5.83209
5.73385
5.54239
5.25938
4.88807
4.4334
3.90208
3.3024
2.64424
1.9389
1.19922
0.439251
-0.326435
-1.08192
-1.81136
-2.49879
-3.12853
-3.68588
-4.1572
-4.53044
-4.7956
-4.94494
-4.97348
-4.87901
-4.66311
-4.33045
-3.8891
-3.35067
-2.72966
-2.04376
-1.31312
-0.55962
0.192906
0.920673
1.59976
2.20721
2.72221
3.12664
3.40602
3.55044
3.55471
3.41913
3.14992
2.75884
2.26296
1.68439
1.04933
0.386237
-0.275724
-0.901398
-1.46308
-1.93396
-2.29139
-2.51852
-2.60543
-2.54974
-2.35749
-2.04269
-1.62666
-1.13691
-0.605633
-0.0661599
0.443958
0.893262
1.2521
1.49758
1.61519
1.59999
1.45771
1.20443
0.865297
0.472819
0.0622001
-0.328366
-0.666741
-0.924685
-1.0834
-1.13448
-1.08022
-0.933667
-0.715957
-0.453842
-0.17633
0.0876247
0.313238
0.481095
0.579129
0.603235
0.55658
0.449264
0.296005
0.114657
-0.0757873
-0.260633
-0.419437
-0.543506
-0.624931
-0.660494
-0.651147
-0.601544
-0.519148
-0.413308
-0.29423
-0.171617
-0.0551082
0.0479995
0.131836
0.192727
0.229071
0.241208
0.23112
0.202024
0.157989
0.103534
0.043161
-0.0191711
-0.0798251
-0.135985
-0.18565
-0.227566
-0.261111
-0.286126
-0.302708
-0.311
-41.2109
-41.2064
-41.197
-41.1854
-41.1684
-41.1589
-41.1421
-41.1385
-6.3378
-6.378
-6.49992
-6.63083
-6.80923
-7.01443
-7.24111
-7.48079
-7.72651
-7.9705
-8.20556
-8.4247
-8.62152
-8.79009
-8.92513
-9.02183
-9.07598
-9.08398
-9.04163
-8.94682
-8.7973
-8.59144
-8.32832
-8.00761
-7.62964
-7.1954
-6.70658
-6.16561
-5.57566
-4.94078
-4.26565
-3.5557
-2.817
-2.05627
-1.28098
-0.498824
0.281615
1.05163
1.80223
2.52435
3.20879
3.84629
4.42781
4.94496
5.38969
5.75454
6.033
6.21953
6.30976
6.30066
6.19055
5.97983
5.67036
5.26569
4.77127
4.19445
3.54418
2.83124
2.06788
1.26799
0.446771
-0.379859
-1.19488
-1.98111
-2.7213
-3.39853
-3.99698
-4.502
-4.90066
-5.18228
-5.33858
-5.36433
-5.257
-5.01875
-4.6547
-4.17366
-3.58832
-2.91448
-2.17135
-1.38074
-0.566396
0.245865
1.03041
1.76144
2.41419
2.96629
3.39829
3.69464
3.84492
3.84362
3.69122
3.39479
2.96724
2.42718
1.79858
1.11007
0.39251
-0.321521
-0.996179
-1.60054
-2.10569