/*--------------------------------*- C++ -*----------------------------------*\
  =========                 |
  \\      /  F ield         | OpenFOAM: The Open Source CFD Toolbox
   \\    /   O peration     | Website:  https://openfoam.org
    \\  /    A nd           | Version:  12
     \\/     M anipulation  |
\*---------------------------------------------------------------------------*/
FoamFile
{
    format      ascii;
    class       surfaceScalarField;
    location    "8.68";
    object      phi;
}
// * * * * * * * * * * * * * * * * * * * * * * * * * * * * * * * * * * * * * //

dimensions      [1 0 -1 0 0 0 0];

internalField   nonuniform List<scalar> 
7429
(
9.85907e-05
-9.85905e-05
0.00019888
-0.000100289
0.000301651
-0.000102771
0.000407581
-0.000105929
0.000517341
-0.00010976
0.000631587
-0.000114245
0.000750958
-0.000119371
0.000875963
-0.000125005
0.00100708
-0.000131117
0.00114463
-0.00013755
0.00128879
-0.000144162
0.00143965
-0.000150851
0.00159702
-0.00015737
0.00176068
-0.000163662
0.00193012
-0.000169437
0.0021046
-0.000174483
0.00228323
-0.000178632
0.00246514
-0.000181905
0.00264902
-0.000183881
0.00283345
-0.000184433
0.00301686
-0.00018341
0.00319748
-0.000180615
0.00337378
-0.000176298
0.00354379
-0.000170011
0.00370546
-0.000161676
0.0038568
-0.000151333
0.00399586
-0.000139066
0.00412069
-0.00012483
0.00422942
-0.000108729
0.00431996
-9.05393e-05
0.00439052
-7.05609e-05
0.00443955
-4.90245e-05
0.00446559
-2.60416e-05
0.00446733
-1.73687e-06
0.00444764
1.96904e-05
0.0044044
4.32405e-05
0.00433718
6.72196e-05
0.00424602
9.11552e-05
0.00413137
0.000114651
0.00399407
0.000137305
0.00383529
0.000158781
0.00365643
0.000178853
0.00345922
0.000197209
0.00324558
0.000213642
0.00301768
0.000227902
0.00277789
0.000239786
0.00252876
0.000249132
0.00227298
0.000255784
0.00201333
0.000259653
0.00175269
0.000260636
0.00149404
0.000258651
0.00124034
0.000253697
0.000994605
0.000245736
0.000759714
0.000234891
0.000538621
0.000221093
0.00033386
0.000204761
0.000148122
0.000185739
-1.62825e-05
0.000164404
-0.000157389
0.000141106
-0.00027325
0.000115862
-0.000362222
8.89712e-05
-0.000422616
6.03941e-05
-0.000454475
3.18596e-05
-0.00045414
-3.35671e-07
-0.000421884
-3.22562e-05
-0.000360085
-6.1799e-05
-0.000270017
-9.00677e-05
-0.000152831
-0.000117186
-1.00079e-05
-0.000142823
0.000156248
-0.000166256
0.000344055
-0.000187807
0.000550292
-0.000206237
0.000771429
-0.000221137
0.00100395
-0.000232523
0.00124371
-0.000239762
0.00148623
-0.000242513
0.00172701
-0.000240779
0.00196143
-0.000234424
0.00218457
-0.000223137
0.00239167
-0.000207104
0.00257813
-0.000186463
0.00273951
-0.000161373
0.00287172
-0.000132211
0.00297114
-9.94197e-05
0.00303483
-6.36891e-05
0.00306041
-2.55773e-05
0.00304115
1.92596e-05
0.00297694
6.4208e-05
0.00286907
0.000107867
0.00271924
0.000149834
0.0025295
0.000189738
0.00230258
0.000226922
0.00204183
0.00026075
0.00175143
0.0002904
0.00143675
0.000314681
0.00110387
0.000332873
0.0007596
0.000344272
0.000411498
0.000348102
6.71544e-05
0.000344344
-0.000265281
0.000332436
-0.000577749
0.000312467
-0.00086256
0.000284811
-0.00111233
0.000249772
-0.00132056
0.00020823
-0.00148168
0.000161115
-0.00159159
0.000109916
-0.00164709
5.54946e-05
-0.00164495
-2.13754e-06
-0.00158405
-6.08974e-05
-0.0014695
-0.000114556
-0.00130566
-0.000163838
-0.00109793
-0.000207727
-0.000853281
-0.00024465
-0.000580621
-0.000272659
-0.000289484
-0.000291137
9.12697e-06
-0.000298611
0.000303917
-0.00029479
0.000583449
-0.000279532
0.000836759
-0.00025331
0.00105376
-0.000216998
0.00122568
-0.000171922
0.00134567
-0.000119988
0.00140904
-6.33732e-05
0.0014126
-3.56293e-06
0.00135291
5.96963e-05
0.00123734
0.000115569
0.00107184
0.000165499
0.000864449
0.00020739
0.000625024
0.000239425
0.000365854
0.00025917
0.00010008
0.000265774
-0.000158956
0.000259036
-0.000397883
0.000238927
-0.000604555
0.000206672
-0.000768918
0.000164363
-0.0008832
0.000114282
-0.000942976
5.97767e-05
-0.000947022
4.04546e-06
-0.000894285
-5.27368e-05
-0.000794179
-0.000100106
-0.00065524
-0.00013894
-0.000488524
-0.000166716
-0.00030701
-0.000181514
-0.000124624
-0.000182386
4.51742e-05
-0.000169798
0.000190132
-0.000144957
0.000300559
-0.000110428
0.000369844
-6.92847e-05
0.000395394
-2.55499e-05
0.000375653
1.97414e-05
0.000317795
5.78571e-05
0.000230237
8.75587e-05
0.000123785
0.000106452
1.06981e-05
0.000113087
-9.52853e-05
0.000105983
-0.000182853
8.75676e-05
-0.000242167
5.93136e-05
-0.000266721
2.45543e-05
-0.000251125
-1.55958e-05
-0.000197828
-5.32975e-05
-0.000112532
-8.52957e-05
-3.33798e-06
-0.000109194
0.000119295
-0.000122633
0.000242884
-0.000123589
0.000355277
-0.000112393
0.000445222
-8.99448e-05
0.000503906
-5.86847e-05
0.000525632
-2.17255e-05
0.000506125
1.9507e-05
0.000448158
5.79666e-05
0.00035677
9.13884e-05
0.000239401
0.000117369
0.000105886
0.000133516
-3.30691e-05
0.000138955
-0.000166336
0.000133267
-0.00028397
0.000117634
-0.000377833
9.3863e-05
-0.000442155
6.43215e-05
-0.000474127
3.19723e-05
-0.000473352
-7.75523e-07
-0.000442634
-3.0718e-05
-0.000386893
-5.5741e-05
-0.00031265
-7.42426e-05
-0.000227174
-8.54755e-05
-0.00013816
-8.90148e-05
-5.26618e-05
-8.5498e-05
2.33763e-05
-7.60381e-05
8.54815e-05
-6.21051e-05
0.000131058
-4.55763e-05
0.000159252
-2.81943e-05
0.000170974
-1.17218e-05
0.000168373
2.60125e-06
0.000154719
1.36533e-05
0.000133633
2.10861e-05
0.000108905
2.47283e-05
8.31918e-05
2.57131e-05
5.88548e-05
2.43369e-05
3.71425e-05
2.17124e-05
1.78533e-05
1.92892e-05
1.78533e-05
6.99605e-05
-0.00016855
0.000143127
-0.000173455
0.000219974
-0.000179617
0.000301696
-0.00018765
0.00038998
-0.000198044
0.000486091
-0.000210355
0.00059138
-0.000224659
0.00070714
-0.000240764
0.000834372
-0.000258349
0.000973952
-0.000277129
0.00112646
-0.00029667
0.00129233
-0.000316722
0.00147159
-0.000336625
0.00166378
-0.000355852
0.00186832
-0.000373975
0.00208428
-0.000390443
0.00231032
-0.000404672
0.00254455
-0.000416138
0.00278495
-0.000424279
0.00302909
-0.000428577
0.0032743
-0.000428618
0.0035177
-0.000424016
0.00375588
-0.000414475
0.00398559
-0.000399719
0.00420365
-0.000379737
0.00440674
-0.000354427
0.00459163
-0.000323948
0.00475544
-0.00028864
0.00489544
-0.000248731
0.00500969
-0.000204793
0.00509631
-0.000157172
0.00515421
-0.000106927
0.00518303
-5.4861e-05
0.00518055
7.40317e-07
0.00513609
6.41492e-05
0.00505579
0.000123545
0.00494275
0.00018026
0.00480023
0.000233668
0.00463128
0.000283608
0.00443762
0.000330965
0.00422016
0.000376243
0.00398067
0.000418341
0.00372135
0.000456527
0.0034447
0.000490299
0.00315359
0.000519007
0.00285125
0.000542131
0.00254061
0.000559769
0.0022251
0.000571286
0.00190825
0.000576511
0.00159359
0.000575292
0.00128439
0.000567856
0.000984057
0.000554025
0.000695684
0.000534109
0.000422373
0.000508202
0.000166997
0.00047647
-6.64737e-05
0.000438231
-0.000275914
0.000395179
-0.000459659
0.00034815
-0.000613592
0.000295039
-0.000737965
0.000240235
-0.000830244
0.000181251
-0.000888569
0.000118719
-0.00091213
5.54208e-05
-0.000900822
-1.16434e-05
-0.00085669
-7.6389e-05
-0.000779394
-0.000139094
-0.00066953
-0.000199933
-0.000528479
-0.000258237
-0.000358435
-0.000312867
-0.00016187
-0.000362821
5.76273e-05
-0.000407304
0.000296968
-0.000445578
0.000552448
-0.000476617
0.000819639
-0.000499715
0.00109399
-0.000514114
0.00137052
-0.000519045
0.00164431
-0.000514562
0.00190999
-0.000500113
0.00216234
-0.000475483
0.00239616
-0.00044092
0.00260645
-0.00039676
0.00278835
-0.00034327
0.00293746
-0.000281321
0.0030495
-0.000211465
0.00312162
-0.000135807
0.00315098
-5.49359e-05
0.00313159
3.86541e-05
0.00306436
0.000131436
0.00295026
0.000221971
0.00279059
0.000309503
0.00258732
0.000393007
0.00234323
0.000471008
0.00206227
0.000541714
0.00174931
0.000603358
0.00141043
0.000653562
0.00105242
0.000690879
0.000682864
0.00071383
0.000310066
0.0007209
-5.76552e-05
0.000712065
-0.000411142
0.000685922
-0.000741761
0.000643087
-0.00104124
0.000584288
-0.00130169
0.000510223
-0.00151653
0.000423073
-0.00167969
0.000324277
-0.00178592
0.000216137
-0.00183382
0.0001034
-0.00181714
-1.88136e-05
-0.00174004
-0.000138002
-0.00160563
-0.000248971
-0.00141803
-0.000351432
-0.00118364
-0.000442117
-0.000910462
-0.000517829
-0.000608242
-0.00057488
-0.00028811
-0.00061127
3.82963e-05
-0.000625017
0.000358571
-0.000615064
0.000660267
-0.000581229
0.000931527
-0.00052457
0.00116172
-0.00044719
0.00134135
-0.000351554
0.00146298
-0.000241622
0.00152269
-0.00012308
0.00151444
4.68389e-06
0.00144191
0.000132235
0.00130922
0.000248252
0.00112284
0.000351884
0.000892022
0.000438208
0.000628628
0.000502819
0.000345741
0.000542057
5.77622e-05
0.000553753
-0.000219792
0.000536591
-0.000473216
0.00049235
-0.000689458
0.000422914
-0.000857754
0.000332659
-0.000970464
0.000226991
-0.00102306
0.000112375
-0.00101183
-7.18955e-06
-0.000943608
-0.000120956
-0.00082439
-0.000219324
-0.000664237
-0.000299093
-0.000476033
-0.00035492
-0.000274398
-0.000383149
-7.45729e-05
-0.000382211
0.000108367
-0.000352738
0.000261642
-0.000298232
0.000374683
-0.000223469
0.000441059
-0.000135661
0.000458191
-4.26825e-05
0.000426378
5.1555e-05
0.000353487
0.000130748
0.00024884
0.000192206
0.000125103
0.000230189
-3.73294e-06
0.000241923
-0.000123775
0.000226025
-0.000221642
0.000185435
-0.000286962
0.000124633
-0.000313062
5.06539e-05
-0.000295545
-3.31127e-05
-0.000237563
-0.00011128
-0.000145092
-0.000177767
-2.72329e-05
-0.000227053
0.000104002
-0.000253868
0.000235383
-0.00025497
0.000353864
-0.000230874
0.000447966
-0.000184046
0.000508515
-0.000119233
0.000529856
-4.30675e-05
0.000509054
4.03092e-05
0.000448989
0.000118032
0.000355043
0.000185335
0.00023562
0.000236792
0.000100771
0.000268364
-3.8034e-05
0.00027776
-0.000169821
0.000265054
-0.00028465
0.000232463
-0.000374621
0.000183834
-0.000434447
0.000124148
-0.00046167
5.91949e-05
-0.000456661
-5.78423e-06
-0.00042271
-6.46688e-05
-0.000364769
-0.000113682
-0.00028981
-0.000149202
-0.000205109
-0.000170176
-0.000118226
-0.000175898
-3.60327e-05
-0.000167691
3.57541e-05
-0.000147825
9.31965e-05
-0.000119548
0.000134052
-8.64318e-05
0.000157748
-5.18898e-05
0.000165471
-1.94449e-05
0.000159953
8.11937e-06
0.000144258
2.93479e-05
0.000122106
4.32378e-05
9.71911e-05
4.96435e-05
7.24891e-05
5.0415e-05
5.02499e-05
4.65762e-05
3.09907e-05
4.09715e-05
1.45892e-05
3.56907e-05
3.24426e-05
-6.53857e-05
-0.000103164
-0.00012791
-0.00011093
-0.000184081
-0.000123445
-0.000229374
-0.000142356
-0.000260356
-0.000167062
-0.000273336
-0.000197374
-0.000264607
-0.000233388
-0.000231173
-0.000274198
-0.000170795
-0.000318726
-8.11818e-05
-0.000366741
3.85503e-05
-0.000416401
0.000188584
-0.000466755
0.000368444
-0.000516484
0.000577616
-0.000565024
0.000815472
-0.00061183
0.00107913
-0.000654096
0.00136688
-0.000692421
0.00167509
-0.000724354
0.00200052
-0.000749709
0.00233854
-0.000766597
0.00268411
-0.000774182
0.00303176
-0.000771672
0.00337544
-0.000758151
0.00371034
-0.000734615
0.00402952
-0.000698919
0.00432948
-0.00065439
0.00460402
-0.000598484
0.00484676
-0.000531379
0.00505411
-0.000456079
0.0052218
-0.000372479
0.00534581
-0.000281187
0.00542278
-0.000183898
0.00544945
-8.15311e-05
0.00543209
1.80982e-05
0.00538083
0.000115415
0.00529006
0.000214312
0.00515853
0.000311789
0.00498606
0.000406142
0.00477365
0.000496015
0.00452435
0.00058027
0.00424269
0.000657902
0.00393287
0.000728159
0.00359919
0.000790208
0.003246
0.000843492
0.00287757
0.000887433
0.0024981
0.00092161
0.00211221
0.000945651
0.00172427
0.000959226
0.00133829
0.000962499
0.000958315
0.000955264
0.000588725
0.000937446
0.000233751
0.000908999
-0.000102536
0.000870395
-0.000416475
0.000822141
-0.0007052
0.000765194
-0.000965995
0.000699026
-0.00119488
0.000624061
-0.0013895
0.000542772
-0.00154896
0.000454495
-0.00166767
0.000358952
-0.0017465
0.000260073
-0.00178561
0.00015783
-0.0017831
5.29116e-05
-0.00173707
-5.76715e-05
-0.00165128
-0.000162179
-0.001526
-0.00026437
-0.00136237
-0.000363572
-0.00116247
-0.000458131
-0.00092898
-0.000546357
-0.000665212
-0.000626589
-0.000374443
-0.000698074
-6.16062e-05
-0.000758414
0.000268394
-0.000806618
0.000610908
-0.000842229
0.000960059
-0.000863264
0.00130999
-0.000868975
0.00165469
-0.000859266
0.00198777
-0.000833191
0.00230297
-0.000790683
0.00259388
-0.000731827
0.00285489
-0.000657771
0.00307987
-0.000568249
0.00326343
-0.000464884
0.00340193
-0.000349964
0.00349059
-0.000224467
0.00352666
-9.10071e-05
0.00350446
6.08536e-05
0.00342569
0.000210209
0.00329129
0.000356367
0.00310246
0.000498337
0.0028614
0.000634062
0.00257167
0.000760743
0.00223832
0.000875059
0.00186758
0.000974099
0.00146699
0.00105416
0.00104496
0.00111291
0.000610767
0.00114802
0.00017437
0.0011573
-0.000254317
0.00114075
-0.000664714
0.00109632
-0.00104629
0.00102467
-0.00138916
0.000927156
-0.00168387
0.000804933
-0.00192196
0.000661162
-0.00209777
0.000500086
-0.00220512
0.000323493
-0.00224207
0.000140347
-0.00220317
-5.77094e-05
-0.00209437
-0.000246805
-0.00191804
-0.000425297
-0.00167951
-0.000589964
-0.00138696
-0.000734666
-0.00105036
-0.000854435
-0.000681889
-0.000943349
-0.000294831
-0.000998327
9.64915e-05
-0.00101634
0.000477286
-0.000995859
0.000832716
-0.000936658
0.00114898
-0.000840835
0.0014135
-0.000711713
0.00161565
-0.000553701
0.00174689
-0.000372865
0.00180259
-0.000178778
0.00177747
2.98079e-05
0.00167769
0.000232009
0.0015073
0.000418644
0.00127436
0.000584829
0.000990765
0.0007218
0.000671105
0.000822479
0.00033186
0.000881301
-9.27459e-06
0.000894888
-0.000334724
0.00086204
-0.000627088
0.000784714
-0.000871946
0.000667772
-0.00105666
0.00051737
-0.00117246
0.000342792
-0.00121547
0.000155389
-0.00118288
-3.97792e-05
-0.00108336
-0.000220475
-0.000924665
-0.000378021
-0.000719858
-0.0005039
-0.000485088
-0.000589689
-0.000238473
-0.000629764
1.54186e-06
-0.000622225
0.000216891
-0.000568088
0.000392532
-0.000473873
0.000516635
-0.000347571
0.00058171
-0.000200736
0.000585953
-4.6925e-05
0.000532188
0.00010532
0.000429654
0.000233281
0.000290703
0.000331157
0.000131331
0.000389561
-3.11867e-05
0.00040444
-0.000179671
0.00037451
-0.000298703
0.000304467
-0.000376689
0.000202619
-0.000405626
7.95905e-05
-0.000382939
-5.57994e-05
-0.000312441
-0.000181778
-0.000201618
-0.000288591
-6.2151e-05
-0.000366519
9.13605e-05
-0.00040738
0.000243388
-0.000406998
0.000378844
-0.00036633
0.000484787
-0.00028999
0.000551447
-0.000185893
0.000573117
-6.47371e-05
0.000548028
6.53975e-05
0.000479872
0.000186188
0.00037523
0.000289977
0.000244184
0.000367838
9.83337e-05
0.000414214
-4.95168e-05
0.00042561
-0.00018765
0.000403187
-0.000305661
0.000350474
-0.000395596
0.000273769
-0.000452397
0.000180949
-0.000474277
8.1075e-05
-0.000462588
-1.74733e-05
-0.00042131
-0.000105946
-0.00035639
-0.000178602
-0.000275303
-0.000230289
-0.000186296
-0.000259183
-9.69637e-05
-0.00026523
-1.43407e-05
-0.000250314
5.60414e-05
-0.000218207
0.000110313
-0.000173819
0.000146702
-0.000122821
0.000165409
-7.05962e-05
0.000168034
-2.20697e-05
0.000157673
1.84805e-05
0.000138065
4.89559e-05
0.000113276
6.80266e-05
8.67574e-05
7.61619e-05
6.21458e-05
7.50266e-05
4.08814e-05
6.78405e-05
2.39298e-05
5.79232e-05
1.09472e-05
4.86733e-05
4.33897e-05
-0.000246332
0.000143168
-0.000486843
0.000129581
-0.00071532
0.000105033
-0.000924881
6.7205e-05
-0.00110981
1.78691e-05
-0.00125768
-4.95075e-05
-0.00135242
-0.000138643
-0.00138889
-0.000237725
-0.00136407
-0.000343544
-0.00127475
-0.000456067
-0.00111977
-0.000571383
-0.000898949
-0.000687571
-0.000613703
-0.00080173
-0.000267316
-0.00091141
0.000137958
-0.0010171
0.000598748
-0.00111489
0.0011094
-0.00120307
0.00166106
-0.00127602
0.00224548
-0.00133413
0.00285328
-0.00137439
0.00347273
-0.00139363
0.00409228
-0.00139122
0.00470022
-0.0013661
0.00528389
-0.00131828
0.00583212
-0.00124715
0.00633228
-0.00115454
0.00677371
-0.00103992
0.00715114
-0.000908811
0.00745485
-0.000759782
0.00768237
-0.000599999
0.0078318
-0.000430617
0.00790503
-0.000257134
0.00790566
-8.21576e-05
0.0078154
0.000108361
0.00764572
0.000285095
0.00741244
0.000447587
0.00712097
0.000603258
0.00677559
0.000751525
0.00638212
0.000889482
0.00594663
0.00101576
0.00547535
0.00112918
0.00497509
0.00122842
0.00445197
0.00131333
0.00391248
0.00138298
0.00336217
0.00143774
0.00280797
0.00147581
0.00225494
0.00149869
0.00170828
0.00150589
0.00117371
0.00149706
0.000657262
0.00147171
0.000162417
0.00143229
-0.000307626
0.00137904
-0.000745838
0.00130861
-0.001151
0.00122731
-0.00151593
0.00113012
-0.00184085
0.00102394
-0.00211906
0.000902276
-0.00235092
0.000774633
-0.00253384
0.000637416
-0.00266746
0.00049257
-0.00274908
0.000341692
-0.0027768
0.000185552
-0.00274913
2.52391e-05
-0.00267314
-0.000133663
-0.00254558
-0.000289735
-0.00236785
-0.000442099
-0.00214233
-0.000589089
-0.0018723
-0.000728168
-0.00156145
-0.000857203
-0.00121408
-0.000973957
-0.000835307
-0.00107685
-0.000430519
-0.0011632
-5.92125e-06
-0.00123122
0.000432003
-0.00128015
0.000876465
-0.00130773
0.00131971
-0.00131222
0.0017544
-0.00129396
0.00217286
-0.00125165
0.00256716
-0.00118498
0.00292991
-0.00109458
0.00325413
-0.000981993
0.00353287
-0.000846988
0.00376024
-0.000692254
0.00392946
-0.000519183
0.00403623
-0.000331234
0.00407689
-0.000131667
0.00404878
8.8957e-05
0.00395226
0.000306731
0.00378762
0.000521009
0.00355634
0.000729614
0.00326145
0.000928953
0.00290785
0.00111435
0.00250208
0.00128083
0.00205203
0.00142415
0.00156701
0.00153917
0.00105732
0.0016226
0.000534309
0.00167103
1.08292e-05
0.00168078
-0.000500615
0.0016522
-0.000987256
0.00158296
-0.0014366
0.00147401
-0.00183728
0.00132784
-0.00217816
0.00114582
-0.00244885
0.000931851
-0.00264228
0.000693515
-0.00275163
0.000432843
-0.00277483
0.000163541
-0.00270792
-0.000124619
-0.00255646
-0.000398264
-0.00232377
-0.000657986
-0.0020172
-0.000896536
-0.00164726
-0.0011046
-0.00122649
-0.00127521
-0.000770161
-0.00139968
-0.000294575
-0.00147391
0.000182628
-0.00149354
0.000643456
-0.00145669
0.0010699
-0.0013631
0.00144546
-0.0012164
0.00175505
-0.0010213
0.00198641
-0.000785058
0.00212948
-0.000515939
0.00217855
-0.000227848
0.0021315
7.68647e-05
0.00199406
0.000369447
0.00177154
0.000641158
0.00147517
0.000881207
0.00112064
0.00107633
0.000725803
0.00121731
0.000311181
0.00129592
-0.000100648
0.00130672
-0.000489148
0.00125054
-0.000834058
0.00112962
-0.00111653
0.00095024
-0.00132252
0.000723361
-0.00144281
0.000463087
-0.00147201
0.000184587
-0.00141186
-9.99344e-05
-0.00127045
-0.000361878
-0.00105896
-0.000589512
-0.000794574
-0.000768288
-0.000498341
-0.000885922
-0.000192186
-0.00093592
0.000100587
-0.000914998
0.000358611
-0.000826112
0.000563307
-0.000678569
0.000701013
-0.000485277
0.000764163
-0.000263886
0.000750586
-3.33484e-05
0.000667794
0.000188113
0.000526079
0.000374996
0.00034209
0.000515145
0.000135967
0.000595684
-6.99736e-05
0.000610381
-0.000255094
0.00055963
-0.000401077
0.000450451
-0.000493884
0.000295426
-0.000525944
0.000111651
-0.000494523
-8.72201e-05
-0.000405676
-0.000270625
-0.000269299
-0.000424967
-0.000100428
-0.000535391
8.30676e-05
-0.000590875
0.000262311
-0.000586241
0.000419941
-0.00052396
0.000541092
-0.000411141
0.00061527
-0.000260071
0.00063625
-8.57174e-05
0.000604689
9.6958e-05
0.000524541
0.000266337
0.000404627
0.00040989
0.00025698
0.000515485
9.5518e-05
0.000575676
-6.58426e-05
0.000586971
-0.000213795
0.00055114
-0.000337351
0.00047403
-0.000428412
0.00036483
-0.000482434
0.000234972
-0.000498253
9.68932e-05
-0.000478372
-3.73543e-05
-0.000427614
-0.000156703
-0.000353418
-0.000252799
-0.000264008
-0.0003197
-0.000168325
-0.000354866
-7.46677e-05
-0.000358887
9.74513e-06
-0.000334727
7.94773e-05
-0.000287939
0.000131144
-0.000225486
0.000163368
-0.000155045
0.000176765
-8.39931e-05
0.000173767
-1.90714e-05
0.000157824
3.44234e-05
0.000133439
7.33401e-05
0.000105202
9.62637e-05
7.68512e-05
0.000104513
5.15988e-05
0.000100279
3.12555e-05
8.81839e-05
1.68366e-05
7.23421e-05
6.96088e-06
5.8549e-05
5.03506e-05
-0.000658197
0.000801366
-0.00130609
0.000777477
-0.00192825
0.000727191
-0.00250661
0.000645569
-0.00302264
0.000533893
-0.003464
0.000391858
-0.00383429
0.000231649
-0.00410664
3.46232e-05
-0.00426449
-0.000185695
-0.00430302
-0.000417535
-0.004219
-0.000655402
-0.00400493
-0.000901647
-0.00365997
-0.00114669
-0.00318661
-0.00138477
-0.00259414
-0.00160957
-0.00189383
-0.0018152
-0.00110051
-0.00199638
-0.00022833
-0.0021482
0.000703742
-0.0022662
0.00167544
-0.0023461
0.0026663
-0.00238448
0.00365452
-0.00237945
0.00461754
-0.00232912
0.00553285
-0.00223359
0.00637861
-0.00209291
0.00713645
-0.00191238
0.00778853
-0.001692
0.00832451
-0.00144479
0.00873455
-0.00116982
0.009018
-0.000883452
0.00917389
-0.000586504
0.00919936
-0.000282612
0.00910621
1.09927e-05
0.00893056
0.000284013
0.00866686
0.000548798
0.00831615
0.000798292
0.00788936
0.00103005
0.00739834
0.00124255
0.00685357
0.00143426
0.00626465
0.00160468
0.00564088
0.00175295
0.00499052
0.00187879
0.00432201
0.00198184
0.00364263
0.00206235
0.00296089
0.00211949
0.00228195
0.00215475
0.00161271
0.00216793
0.000960088
0.00215851
0.000329021
0.00212813
-0.000276914
0.00207765
-0.000851233
0.00200661
-0.00138654
0.00191434
-0.00188395
0.00180603
-0.00233356
0.00167691
-0.00273755
0.00153411
-0.00308864
0.00137503
-0.00338496
0.0011986
-0.00362203
0.0010117
-0.00379854
0.000813925
-0.00391377
0.0006078
-0.00396869
0.00039661
-0.0039598
0.000176666
-0.00388822
-4.63401e-05
-0.00375617
-0.000265717
-0.00356362
-0.000482282
-0.00331266
-0.000693054
-0.00300619
-0.00089556
-0.00264797
-0.0010864
-0.00224273
-0.00126244
-0.00179584
-0.00142085
-0.00131286
-0.00155983
-0.000801013
-0.00167504
-0.000267937
-0.00176429
0.000278902
-0.00182699
0.000830737
-0.00185956
0.00137882
-0.00186031
0.00191427
-0.00182941
0.00242777
-0.00176515
0.00291019
-0.0016674
0.00335237
-0.00153676
0.00374548
-0.0013751
0.0040818
-0.00118331
0.00435396
-0.000964415
0.0045556
-0.000720825
0.00468081
-0.000456437
0.0047252
-0.000176063
0.00468675
0.000127413
0.00456624
0.000427232
0.00436368
0.000723577
0.00408093
0.00101236
0.00372223
0.00128765
0.00329389
0.00154268
0.00280391
0.00177082
0.00226208
0.00196598
0.00168058
0.00212067
0.00107189
0.00223129
0.000449598
0.00229333
-0.000172044
0.00230242
-0.000777663
0.00225782
-0.0013516
0.0021569
-0.00187808
0.00200049
-0.00234272
0.00179249
-0.00273359
0.00153669
-0.00303994
0.0012382
-0.00325039
0.000903963
-0.00336052
0.000542972
-0.00336638
0.000169404
-0.00326655
-0.000224448
-0.00306516
-0.000599656
-0.0027674
-0.000955748
-0.00238289
-0.00128104
-0.00192494
-0.00156255
-0.00140886
-0.00179129
-0.00085323
-0.0019553
-0.000278229
-0.00204891
0.000295179
-0.00206695
0.000844967
-0.00200647
0.00134977
-0.00186791
0.00178964
-0.00165626
0.0021476
-0.00137927
0.0024091
-0.00104655
0.00256292
-0.000669762
0.0026028
-0.000267724
0.002529
0.000150665
0.00234649
0.000551953
0.00206352
0.000924129
0.0016946
0.00125013
0.00125863
0.00151229
0.00077831
0.00169764
0.000278677
0.00179556
-0.000213903
0.0017993
-0.00067297
0.00170961
-0.00107418
0.00153084
-0.00139724
0.0012733
-0.00162609
0.000952215
-0.00174887
0.000585864
-0.00176248
0.000198195
-0.00166819
-0.000194223
-0.00147706
-0.000553012
-0.00120445
-0.000862114
-0.000872489
-0.00110025
-0.000505323
-0.00125309
-0.000132091
-0.00130915
0.000219106
-0.0012662
0.0005231
-0.00113011
0.000758787
-0.000914255
0.000910397
-0.000636888
0.000969846
-0.000323335
0.000934376
2.12185e-06
0.00081645
0.000306038
0.000628991
0.000562455
0.000393231
0.000750906
0.000134776
0.000854139
-0.000119776
0.000864934
-0.000345017
0.00078487
-0.000519365
0.000624799
-0.000626972
0.000403033
-0.000659133
0.000143812
-0.000616568
-0.000129786
-0.000505402
-0.000381791
-0.000339211
-0.000591158
-0.000136985
-0.000737617
7.99277e-05
-0.000807787
0.000289214
-0.000795527
0.000470326
-0.000705072
0.000607028
-0.000547843
0.000687829
-0.000340872
0.000707448
-0.000105336
0.00066697
0.000137435
0.00057243
0.000360877
0.00043504
0.000547281
0.000268917
0.000681608
9.02214e-05
0.000754372
-8.57206e-05
0.000762913
-0.000244116
0.000709535
-0.00037335
0.000603264
-0.000465392
0.000456873
-0.000516053
0.000285632
-0.000525185
0.000106025
-0.000496189
-6.63502e-05
-0.00043543
-0.000217463
-0.000351138
-0.00033709
-0.000252877
-0.000417961
-0.000150148
-0.000457595
-5.20752e-05
-0.00045696
3.43962e-05
-0.000421199
0.000103611
-0.000357154
0.000152553
-0.000274428
0.000180397
-0.000182889
0.000188382
-9.19783e-05
0.000179482
-1.01709e-05
0.00015819
5.57147e-05
0.000129063
0.000102468
9.6986e-05
0.00012834
6.65692e-05
0.00013493
4.03928e-05
0.000126455
2.15243e-05
0.000107052
9.17481e-06
8.46916e-05
3.02653e-06
6.46973e-05
5.33771e-05
-0.0013953
0.00219666
-0.00277125
0.00215343
-0.00409453
0.00205047
-0.00532715
0.00187819
-0.00643375
0.0016405
-0.00736804
0.00132614
-0.0081051
0.000968706
-0.00858527
0.000514801
-0.00885856
8.75909e-05
-0.0088666
-0.000409494
-0.00863217
-0.000889833
-0.00815963
-0.00137419
-0.00746579
-0.00184053
-0.0065648
-0.00228575
-0.00547643
-0.00269794
-0.00422112
-0.00307051
-0.00282296
-0.00339454
-0.00130833
-0.00366283
0.000293274
-0.0038678
0.00194972
-0.00400254
0.00362463
-0.00405939
0.00528176
-0.00403658
0.00688077
-0.00392812
0.00838566
-0.00373848
0.00975067
-0.00345793
0.0109534
-0.00311515
0.0119323
-0.00267084
0.0127171
-0.0022296
0.0132225
-0.00167526
0.0134969
-0.00115784
0.0135273
-0.000616843
0.013355
-0.000110351
0.0130292
0.000336802
0.0125517
0.000761495
0.011948
0.00115256
0.0112408
0.00150542
0.0104521
0.00181876
0.00960152
0.00209314
0.00870644
0.00232933
0.0077816
0.00252952
0.00683989
0.00269466
0.00589349
0.00282519
0.00495018
0.00292515
0.00402042
0.00299212
0.00310876
0.00303114
0.00222148
0.00304204
0.0013634
0.00302601
0.000542554
0.00297935
-0.000238258
0.00290894
-0.000976648
0.00281604
-0.0016634
0.00269337
-0.00230132
0.00255226
-0.00287897
0.00238368
-0.00339895
0.00219689
-0.00385647
0.00199163
-0.00424716
0.00176572
-0.00457042
0.00152185
-0.00482433
0.00126562
-0.0050057
0.000995296
-0.00511297
0.000715073
-0.00514386
0.000427498
-0.00510205
0.000134849
-0.00498877
-0.000159612
-0.00480228
-0.000452206
-0.00454504
-0.00073953
-0.00421997
-0.00101812
-0.00383116
-0.00128437
-0.00338317
-0.00153439
-0.00288169
-0.00176391
-0.00233325
-0.00196929
-0.00174487
-0.00214822
-0.00112462
-0.00229529
-0.000481422
-0.00240749
0.000175614
-0.00248403
0.000836612
-0.00252056
0.00149048
-0.00251417
0.00212673
-0.00246566
0.0027348
-0.00237321
0.00330459
-0.0022372
0.00382504
-0.00205721
0.00428571
-0.00183577
0.00467668
-0.00157428
0.00498998
-0.00127771
0.00522058
-0.000951427
0.00536232
-0.000598179
0.00540951
-0.000223254
0.00535707
0.000179857
0.00520843
0.000575866
0.0049633
0.000968712
0.00462417
0.00135149
0.00419658
0.00171524
0.00368881
0.00205046
0.00311073
0.00234889
0.00247312
0.0026036
0.00178981
0.00280397
0.00107679
0.00294431
0.000350185
0.00301993
-0.000371345
0.00302395
-0.00107117
0.00295764
-0.00173105
0.00281677
-0.00233533
0.00260477
-0.00286624
0.00232339
-0.00330641
0.00197686
-0.003647
0.00157878
-0.00387385
0.00113081
-0.00398257
0.000651696
-0.00396743
0.000154269
-0.00383084
-0.000361041
-0.0035754
-0.0008551
-0.00320867
-0.00132247
-0.00274224
-0.00174748
-0.00219198
-0.00211281
-0.00157763
-0.00240564
-0.00091987
-0.00261307
-0.00024282
-0.00272596
0.000428199
-0.00273797
0.00106794
-0.00264622
0.00165133
-0.00245131
0.00215545
-0.00216038
0.00255976
-0.00178358
0.00284901
-0.00133581
0.00301138
-0.00083213
0.00303847
-0.000294817
0.00293383
0.000255305
0.00270116
0.00078463
0.00235234
0.00127295
0.00190599
0.00169648
0.00138498
0.0020333
0.000816581
0.00226604
0.000230351
0.00238179
-0.000342974
0.00237262
-0.00087297
0.0022396
-0.00133231
0.00199018
-0.00169509
0.00163608
-0.00194336
0.00120049
-0.0020656
0.000708096
-0.00205726
0.000189857
-0.00192633
-0.000325151
-0.00168219
-0.000797153
-0.00134529
-0.00119901
-0.000941924
-0.00150362
-0.000502811
-0.0016922
-6.06769e-05
-0.00175129
0.000350436
-0.00167731
0.000701282
-0.00148095
0.000966879
-0.00117985
0.00112945
-0.000799459
0.00118037
-0.000374253
0.00112199
6.04947e-05
0.000964919
0.000463114
0.000728321
0.000799053
0.000438536
0.00104069
0.000125583
0.00116709
-0.000178234
0.00116875
-0.000443352
0.00104999
-0.000644759
0.000826206
-0.000765269
0.000523543
-0.000796587
0.000175131
-0.000739344
-0.000187029
-0.000603188
-0.000517946
-0.000405286
-0.00078906
-0.000168251
-0.000974653
8.23518e-05
-0.00105839
0.000320891
-0.00103407
0.000524664
-0.000908846
0.000675488
-0.000698667
0.000761317
-0.000426701
0.000777587
-0.000121605
0.000727049
0.000187974
0.000617171
0.000470755
0.000461784
0.000702668
0.000276957
0.000866435
8.12315e-05
0.000950097
-0.000107916
0.00095206
-0.000275518
0.000877137
-0.000409316
0.000737062
-0.000501261
0.000548817
-0.000547785
0.000332157
-0.000549607
0.000107848
-0.00051152
-0.000104437
-0.000440847
-0.000288136
-0.000346983
-0.000430954
-0.000240529
-0.000524415
-0.000131709
-0.000566415
-2.96776e-05
-0.000558991
5.80507e-05
-0.000508927
0.000126288
-0.000425391
0.000172226
-0.000320366
0.000195561
-0.000206225
0.000198137
-9.45545e-05
0.000183769
4.19766e-06
0.000156957
8.25267e-05
0.000123621
0.000135803
8.83391e-05
0.000163622
5.60914e-05
0.000167178
2.99727e-05
0.000152574
1.18606e-05
0.000125164
2.3717e-06
9.41804e-05
-6.80627e-07
6.77496e-05
5.26965e-05
-0.00250479
0.00470145
-0.00497406
0.0046227
-0.00734798
0.00442439
-0.00955717
0.00408738
-0.0115309
0.00361426
-0.0131798
0.00297505
-0.0144806
0.00226946
-0.0153098
0.00134405
-0.01592
0.000697757
-0.0162437
-8.58468e-05
-0.0160713
-0.00106222
-0.0154248
-0.00202067
-0.0143409
-0.00292445
-0.0128655
-0.00376111
-0.0110738
-0.00448961
-0.00901971
-0.00512465
-0.00674458
-0.00566967
-0.00429426
-0.00611315
-0.00172194
-0.00644012
0.000916924
-0.0066414
0.00356146
-0.00670392
0.00615666
-0.00663178
0.00862933
-0.00640079
0.0109166
-0.00602576
0.0129298
-0.00547109
0.0146105
-0.00479591
0.0158577
-0.00391805
0.0166863
-0.0030582
0.017019
-0.00200793
0.0169711
-0.0011099
0.0165965