/*--------------------------------*- C++ -*----------------------------------*\
  =========                 |
  \\      /  F ield         | OpenFOAM: The Open Source CFD Toolbox
   \\    /   O peration     | Website:  https://openfoam.org
    \\  /    A nd           | Version:  12
     \\/     M anipulation  |
\*---------------------------------------------------------------------------*/
FoamFile
{
    format      ascii;
    class       volVectorField;
    location    "16.76";
    object      U;
}
// * * * * * * * * * * * * * * * * * * * * * * * * * * * * * * * * * * * * * //

dimensions      [0 1 -1 0 0 0 0];

internalField   nonuniform List<vector> 
3829
(
(1.0308e-05 -0.000615852 0)
(2.93591e-05 -0.00064755 0)
(5.05547e-05 -0.000647775 0)
(7.08975e-05 -0.000646887 0)
(9.22683e-05 -0.000645665 0)
(0.000113817 -0.00064405 0)
(0.000135924 -0.000642014 0)
(0.000158489 -0.000639511 0)
(0.000181642 -0.00063649 0)
(0.00020532 -0.000632901 0)
(0.000229597 -0.000628696 0)
(0.000254428 -0.000623816 0)
(0.000279756 -0.000618213 0)
(0.000305634 -0.000611821 0)
(0.00033197 -0.000604597 0)
(0.000358722 -0.000596487 0)
(0.000385795 -0.000587448 0)
(0.000413089 -0.000577436 0)
(0.000440502 -0.000566414 0)
(0.000467903 -0.000554353 0)
(0.000495124 -0.000541243 0)
(0.00052205 -0.000527066 0)
(0.000548465 -0.000511837 0)
(0.000574199 -0.000495581 0)
(0.000599032 -0.000478317 0)
(0.000622709 -0.000460106 0)
(0.000645083 -0.000440991 0)
(0.000665839 -0.000421089 0)
(0.000684913 -0.000400405 0)
(0.000702067 -0.000379119 0)
(0.000716829 -0.000357287 0)
(0.000729273 -0.000335019 0)
(0.000738837 -0.000312445 0)
(0.000745787 -0.000289613 0)
(0.000749985 -0.000266685 0)
(0.000750945 -0.000243694 0)
(0.000749065 -0.000220861 0)
(0.000744182 -0.000198385 0)
(0.000736271 -0.000176411 0)
(0.000725322 -0.000155084 0)
(0.00071139 -0.000134537 0)
(0.000694534 -0.000114861 0)
(0.000674864 -9.61207e-05 0)
(0.000652513 -7.83968e-05 0)
(0.000627665 -6.17561e-05 0)
(0.000600513 -4.62596e-05 0)
(0.000571221 -3.19679e-05 0)
(0.000540109 -1.89096e-05 0)
(0.0005074 -7.14743e-06 0)
(0.000473386 3.32588e-06 0)
(0.000438328 1.24441e-05 0)
(0.00040242 2.02627e-05 0)
(0.000366119 2.67591e-05 0)
(0.000330008 3.19437e-05 0)
(0.000294092 3.57989e-05 0)
(0.000258532 3.84718e-05 0)
(0.000224056 3.98968e-05 0)
(0.000190899 4.01807e-05 0)
(0.000159022 3.93608e-05 0)
(0.000129277 3.76348e-05 0)
(0.000101926 3.48855e-05 0)
(7.67533e-05 3.12708e-05 0)
(5.45302e-05 2.6952e-05 0)
(3.53613e-05 2.19962e-05 0)
(1.91456e-05 1.65477e-05 0)
(6.44821e-06 1.0682e-05 0)
(-2.71026e-06 4.50513e-06 0)
(-8.43707e-06 -1.84834e-06 0)
(-1.04459e-05 -8.28348e-06 0)
(-8.67348e-06 -1.45834e-05 0)
(-2.92496e-06 -2.07566e-05 0)
(6.28375e-06 -2.66522e-05 0)
(1.85888e-05 -3.21489e-05 0)
(3.38882e-05 -3.71406e-05 0)
(5.18055e-05 -4.14081e-05 0)
(7.188e-05 -4.49015e-05 0)
(9.44327e-05 -4.75444e-05 0)
(0.000118119 -4.93193e-05 0)
(0.000142784 -5.00375e-05 0)
(0.000168408 -4.97655e-05 0)
(0.000193622 -4.84691e-05 0)
(0.000218311 -4.60667e-05 0)
(0.000241791 -4.26344e-05 0)
(0.000263351 -3.8191e-05 0)
(0.000282587 -3.27678e-05 0)
(0.000298836 -2.65419e-05 0)
(0.000311382 -1.94658e-05 0)
(0.000320096 -1.17972e-05 0)
(0.000324367 -3.6451e-06 0)
(0.00032355 4.83404e-06 0)
(0.000317227 1.3447e-05 0)
(0.000305444 2.2043e-05 0)
(0.000288343 3.04063e-05 0)
(0.000266085 3.8345e-05 0)
(0.000238999 4.56511e-05 0)
(0.000207416 5.21179e-05 0)
(0.000171832 5.75358e-05 0)
(0.000132907 6.17269e-05 0)
(9.14371e-05 6.45308e-05 0)
(4.81952e-05 6.58573e-05 0)
(4.25864e-06 6.55892e-05 0)
(-3.93083e-05 6.36412e-05 0)
(-8.13659e-05 6.00874e-05 0)
(-0.000120748 5.49055e-05 0)
(-0.000156397 4.82441e-05 0)
(-0.000187115 4.01909e-05 0)
(-0.000212052 3.09792e-05 0)
(-0.000230232 2.08551e-05 0)
(-0.000241115 1.00574e-05 0)
(-0.000243734 -9.91765e-07 0)
(-0.000237641 -1.20721e-05 0)
(-0.000223139 -2.26944e-05 0)
(-0.000200656 -3.26695e-05 0)
(-0.000170816 -4.1456e-05 0)
(-0.000134561 -4.8938e-05 0)
(-9.28943e-05 -5.45052e-05 0)
(-4.7199e-05 -5.82325e-05 0)
(1.2048e-06 -5.95739e-05 0)
(5.02696e-05 -5.88493e-05 0)
(9.76276e-05 -5.57054e-05 0)
(0.00014196 -5.03369e-05 0)
(0.00018108 -4.30362e-05 0)
(0.000213431 -3.3804e-05 0)
(0.000237639 -2.32878e-05 0)
(0.00025227 -1.18107e-05 0)
(0.000256558 1.76465e-07 0)
(0.000249799 1.18738e-05 0)
(0.000232245 2.29981e-05 0)
(0.000205099 3.28412e-05 0)
(0.000169481 4.09645e-05 0)
(0.000127103 4.68691e-05 0)
(8.02862e-05 5.02826e-05 0)
(3.10794e-05 5.07933e-05 0)
(-1.77056e-05 4.84435e-05 0)
(-6.28807e-05 4.34558e-05 0)
(-0.000102059 3.58785e-05 0)
(-0.000132861 2.63937e-05 0)
(-0.000153395 1.53252e-05 0)
(-0.000162439 3.68783e-06 0)
(-0.000158838 -8.12359e-06 0)
(-0.000142721 -1.88941e-05 0)
(-0.000115796 -2.82859e-05 0)
(-8.00636e-05 -3.52646e-05 0)
(-3.78393e-05 -3.96284e-05 0)
(7.97722e-06 -4.0599e-05 0)
(5.3106e-05 -3.83778e-05 0)
(9.34899e-05 -3.28362e-05 0)
(0.000126141 -2.47371e-05 0)
(0.000148258 -1.43859e-05 0)
(0.000157844 -2.94754e-06 0)
(0.000153089 8.72244e-06 0)
(0.000134174 1.95878e-05 0)
(0.000103096 2.86481e-05 0)
(6.26899e-05 3.50493e-05 0)
(1.54289e-05 3.79811e-05 0)
(-3.35601e-05 3.713e-05 0)
(-7.81787e-05 3.25397e-05 0)
(-0.0001148 2.46313e-05 0)
(-0.000139501 1.42019e-05 0)
(-0.000149649 2.222e-06 0)
(-0.000143182 -9.8546e-06 0)
(-0.000120374 -2.09142e-05 0)
(-8.4143e-05 -2.96692e-05 0)
(-3.80475e-05 -3.50613e-05 0)
(1.38698e-05 -3.64042e-05 0)
(6.45839e-05 -3.32948e-05 0)
(0.000107029 -2.62527e-05 0)
(0.00013713 -1.60859e-05 0)
(0.000151099 -4.01679e-06 0)
(0.000146396 8.31564e-06 0)
(0.000123519 1.95325e-05 0)
(8.58354e-05 2.80171e-05 0)
(3.80459e-05 3.27302e-05 0)
(-1.4588e-05 3.29275e-05 0)
(-6.38192e-05 2.84708e-05 0)
(-0.000101946 2.02525e-05 0)
(-0.000124846 9.476e-06 0)
(-0.000129118 -2.18364e-06 0)
(-0.000114498 -1.29292e-05 0)
(-8.41363e-05 -2.11588e-05 0)
(-4.33081e-05 -2.55939e-05 0)
(1.9058e-06 -2.56256e-05 0)
(4.31741e-05 -2.12432e-05 0)
(7.29684e-05 -1.36435e-05 0)
(8.75994e-05 -4.27282e-06 0)
(8.51641e-05 4.86368e-06 0)
(6.75298e-05 1.20686e-05 0)
(3.9918e-05 1.58406e-05 0)
(8.91243e-06 1.5493e-05 0)
(-1.73037e-05 1.10863e-05 0)
(-3.15619e-05 3.92902e-06 0)
(-3.05627e-05 -4.23884e-06 0)
(-1.45806e-05 -1.12856e-05 0)
(1.45312e-05 -1.53591e-05 0)
(4.799e-05 -1.51463e-05 0)
(7.52207e-05 -1.05919e-05 0)
(8.9615e-05 -2.61206e-06 0)
(8.52885e-05 6.79012e-06 0)
(6.13783e-05 1.51778e-05 0)
(2.23807e-05 2.01333e-05 0)
(1.15957e-05 0.000191618 0)
(3.68627e-05 0.000213957 0)
(6.26778e-05 0.000212283 0)
(8.91434e-05 0.000209066 0)
(0.000116391 0.000204759 0)
(0.000144573 0.000199428 0)
(0.000173795 0.000193142 0)
(0.000204144 0.000185975 0)
(0.000235761 0.000178026 0)
(0.000268536 0.000169416 0)
(0.000302587 0.000160288 0)
(0.00033785 0.000150804 0)
(0.000374297 0.000141121 0)
(0.000411912 0.000131446 0)
(0.000450496 0.000121942 0)
(0.000489978 0.000112807 0)
(0.000530167 0.000104267 0)
(0.000570905 9.65626e-05 0)
(0.000611957 8.9888e-05 0)
(0.000652982 8.44757e-05 0)
(0.000693716 8.05019e-05 0)
(0.000733874 7.81492e-05 0)
(0.000772927 7.75442e-05 0)
(0.000810671 7.87813e-05 0)
(0.000846681 8.19366e-05 0)
(0.000880533 8.70448e-05 0)
(0.000911726 9.4104e-05 0)
(0.000940232 0.00010306 0)
(0.000965605 0.000113786 0)
(0.000987294 0.000126219 0)
(0.00100533 0.000140136 0)
(0.00101936 0.000155289 0)
(0.00102923 0.00017151 0)
(0.00103505 0.000188409 0)
(0.00103679 0.000205673 0)
(0.00103368 0.000222972 0)
(0.00102518 0.000240212 0)
(0.0010117 0.000257181 0)
(0.000993676 0.000273692 0)
(0.000971231 0.000289549 0)
(0.000944773 0.000304533 0)
(0.000914778 0.000318456 0)
(0.000881447 0.000331064 0)
(0.000844904 0.000342193 0)
(0.000805468 0.00035165 0)
(0.000763381 0.000359296 0)
(0.000718997 0.000365014 0)
(0.000672635 0.000368674 0)
(0.000624712 0.000370193 0)
(0.000575518 0.000369531 0)
(0.000525549 0.000366616 0)
(0.00047524 0.00036148 0)
(0.00042479 0.000353962 0)
(0.000374818 0.000344375 0)
(0.000325978 0.000332405 0)
(0.000278201 0.000318457 0)
(0.000231967 0.000302291 0)
(0.00018802 0.000284356 0)
(0.000146697 0.000264409 0)
(0.000108116 0.000243073 0)
(7.23061e-05 0.000220029 0)
(4.03295e-05 0.000195867 0)
(1.24918e-05 0.000170546 0)
(-1.12198e-05 0.000144438 0)
(-3.08984e-05 0.00011768 0)
(-4.61871e-05 9.06974e-05 0)
(-5.68295e-05 6.361e-05 0)
(-6.301e-05 3.68461e-05 0)
(-6.41611e-05 1.06713e-05 0)
(-6.06759e-05 -1.45201e-05 0)
(-5.26484e-05 -3.84758e-05 0)
(-4.01159e-05 -6.08902e-05 0)
(-2.36432e-05 -8.14464e-05 0)
(-2.96822e-06 -9.99101e-05 0)
(2.12647e-05 -0.000115836 0)
(4.80004e-05 -0.000129113 0)
(7.7426e-05 -0.000139252 0)
(0.000108612 -0.000146412 0)
(0.000141065 -0.000150083 0)
(0.000174179 -0.000150479 0)
(0.000207133 -0.000147248 0)
(0.000239408 -0.000140679 0)
(0.000269957 -0.000130627 0)
(0.000298242 -0.000117372 0)
(0.000323317 -0.000100938 0)
(0.00034481 -8.18635e-05 0)
(0.000361767 -6.0177e-05 0)
(0.000373543 -3.65355e-05 0)
(0.000379908 -1.12311e-05 0)
(0.000379974 1.50464e-05 0)
(0.000373382 4.18729e-05 0)
(0.000360151 6.85545e-05 0)
(0.000340328 9.45876e-05 0)
(0.000314138 0.000119231 0)
(0.000281916 0.000141899 0)
(0.000244025 0.000161938 0)
(0.000201092 0.000178688 0)
(0.000153963 0.000191624 0)
(0.000103726 0.000200267 0)
(5.13063e-05 0.000204222 0)
(-2.18688e-06 0.000203273 0)
(-5.51262e-05 0.00019718 0)
(-0.000106191 0.000185984 0)
(-0.000154018 0.000169811 0)
(-0.000197257 0.000148971 0)
(-0.000234511 0.000123932 0)
(-0.000264525 9.5236e-05 0)
(-0.000286356 6.37062e-05 0)
(-0.000299052 3.01528e-05 0)
(-0.000301745 -4.26486e-06 0)
(-0.000293884 -3.85972e-05 0)
(-0.000275907 -7.16955e-05 0)
(-0.000248178 -0.000102463 0)
(-0.000211556 -0.000129836 0)
(-0.000166881 -0.000152644 0)
(-0.000115659 -0.000170026 0)
(-5.94964e-05 -0.000181094 0)
(-3.12147e-07 -0.000185422 0)
(5.93571e-05 -0.000182558 0)
(0.000117451 -0.000172584 0)
(0.000171152 -0.000155755 0)
(0.00021875 -0.000132539 0)
(0.000257926 -0.000103932 0)
(0.000286627 -7.10295e-05 0)
(0.000303941 -3.52634e-05 0)
(0.000308125 1.77696e-06 0)
(0.000298917 3.84241e-05 0)
(0.000276861 7.27297e-05 0)
(0.000242893 0.000103357 0)
(0.000198657 0.000128307 0)
(0.000146268 0.000146535 0)
(8.82776e-05 0.000156594 0)
(2.74049e-05 0.000158013 0)
(-3.22558e-05 0.000150501 0)
(-8.75196e-05 0.000134413 0)
(-0.000135146 0.00011076 0)
(-0.000172265 8.07476e-05 0)
(-0.000196436 4.63669e-05 0)
(-0.000206378 9.58168e-06 0)
(-0.000200678 -2.68113e-05 0)
(-0.000179655 -6.07647e-05 0)
(-0.000145452 -8.958e-05 0)
(-0.000100385 -0.000111435 0)
(-4.73112e-05 -0.000124291 0)
(1.0126e-05 -0.000127396 0)
(6.64803e-05 -0.000119742 0)
(0.000116757 -0.000102475 0)
(0.000157264 -7.66248e-05 0)
(0.000184606 -4.43799e-05 0)
(0.000195957 -8.36454e-06 0)
(0.000189838 2.81555e-05 0)
(0.000166302 6.20384e-05 0)
(0.000127749 9.027e-05 0)
(7.74142e-05 0.000109882 0)
(1.86957e-05 0.000119007 0)
(-4.19077e-05 0.00011598 0)
(-9.71691e-05 0.000101406 0)
(-0.000142358 7.64987e-05 0)
(-0.000172803 4.37432e-05 0)
(-0.000184999 6.35899e-06 0)
(-0.000176797 -3.1456e-05 0)
(-0.000148843 -6.58326e-05 0)
(-0.000104249 -9.29804e-05 0)
(-4.75292e-05 -0.00010947 0)
(1.62841e-05 -0.000113412 0)
(7.84684e-05 -0.000103442 0)
(0.000130323 -8.13209e-05 0)
(0.0001669 -4.95597e-05 0)
(0.000183405 -1.19757e-05 0)
(0.000177224 2.6494e-05 0)
(0.000149025 6.11873e-05 0)
(0.000102738 8.73999e-05 0)
(4.42827e-05 0.000101666 0)
(-1.98807e-05 0.000101879 0)
(-7.94524e-05 8.77729e-05 0)
(-0.000125125 6.19572e-05 0)
(-0.000151922 2.83254e-05 0)
(-0.000155857 -7.90045e-06 0)
(-0.000136894 -4.12041e-05 0)
(-9.89262e-05 -6.64512e-05 0)
(-4.84843e-05 -7.98721e-05 0)
(6.83384e-06 -7.93973e-05 0)
(5.66467e-05 -6.54144e-05 0)
(9.18475e-05 -4.12982e-05 0)
(0.000107964 -1.20251e-05 0)
(0.000102949 1.65821e-05 0)
(7.9351e-05 3.88552e-05 0)
(4.35805e-05 5.04381e-05 0)
(3.94042e-06 4.90008e-05 0)
(-2.92978e-05 3.49516e-05 0)
(-4.72887e-05 1.22683e-05 0)
(-4.6008e-05 -1.34738e-05 0)
(-2.5752e-05 -3.56485e-05 0)
(1.06792e-05 -4.85107e-05 0)
(5.2638e-05 -4.7873e-05 0)
(8.73454e-05 -3.36253e-05 0)
(0.000106254 -8.73161e-06 0)
(0.000102135 2.06722e-05 0)
(7.38831e-05 4.68011e-05 0)
(2.69911e-05 6.22805e-05 0)
(1.45251e-06 -0.000932216 0)
(5.40316e-06 -0.0009765 0)
(9.96442e-06 -0.00098214 0)
(1.53911e-05 -0.00098902 0)
(2.21486e-05 -0.000997752 0)
(3.04543e-05 -0.00100817 0)
(4.07583e-05 -0.00101966 0)
(5.31601e-05 -0.00103196 0)
(6.8073e-05 -0.00104417 0)
(8.57e-05 -0.00105597 0)
(0.00010633 -0.00106671 0)
(0.000129929 -0.00107608 0)
(0.000156678 -0.00108353 0)
(0.000186537 -0.00108867 0)
(0.000219317 -0.00109096 0)
(0.000255326 -0.00108993 0)
(0.000294662 -0.00108515 0)
(0.000336906 -0.00107622 0)
(0.000381799 -0.00106273 0)
(0.000428984 -0.00104438 0)
(0.000477878 -0.00102081 0)
(0.000527971 -0.000991922 0)
(0.000578403 -0.000957511 0)
(0.000628646 -0.000917625 0)
(0.000678076 -0.000872194 0)
(0.000725928 -0.000821659 0)
(0.000771483 -0.000766001 0)
(0.000813767 -0.000706058 0)
(0.000852624 -0.000641998 0)
(0.000887322 -0.000574729 0)
(0.000916465 -0.000504658 0)
(0.00094048 -0.000432775 0)
(0.000958199 -0.000359578 0)
(0.000969177 -0.000285766 0)
(0.000973789 -0.000211994 0)
(0.00097278 -0.000139076 0)
(0.000967019 -6.76958e-05 0)
(0.000955878 1.38161e-06 0)
(0.000939417 6.76712e-05 0)
(0.000917537 0.000130654 0)
(0.00089047 0.000189893 0)
(0.000858285 0.000245033 0)
(0.000821342 0.000295694 0)
(0.00078015 0.000341595 0)
(0.000735126 0.000382503 0)
(0.0006869 0.000418213 0)
(0.000635738 0.000448605 0)
(0.000582182 0.000473598 0)
(0.000526917 0.000493111 0)
(0.000470306 0.000507163 0)
(0.000412966 0.000515772 0)
(0.000354757 0.000518995 0)
(0.000297317 0.000516897 0)
(0.000240596 0.000509777 0)
(0.000185 0.000497601 0)
(0.000131035 0.000480721 0)
(7.94648e-05 0.000459256 0)
(3.06359e-05 0.000433733 0)
(-1.48415e-05 0.000404202 0)
(-5.64851e-05 0.000371078 0)
(-9.4342e-05 0.000334756 0)
(-0.000127342 0.00029572 0)
(-0.000155764 0.000254329 0)
(-0.000178825 0.000211021 0)
(-0.000196497 0.000166347 0)
(-0.000208361 0.000120854 0)
(-0.000214465 7.51151e-05 0)
(-0.00021446 2.97556e-05 0)
(-0.000208245 -1.45821e-05 0)
(-0.000195923 -5.7514e-05 0)
(-0.000177707 -9.82993e-05 0)
(-0.000153941 -0.000136612 0)
(-0.00012533 -0.000171508 0)
(-9.15102e-05 -0.000202638 0)
(-5.34244e-05 -0.000229526 0)
(-1.15284e-05 -0.000251594 0)
(3.35444e-05 -0.000268425 0)
(8.04983e-05 -0.00027958 0)
(0.000128954 -0.000284882 0)
(0.000178248 -0.000284205 0)
(0.000226859 -0.000277223 0)
(0.000273938 -0.000264261 0)
(0.000318832 -0.00024515 0)
(0.000360326 -0.000220323 0)
(0.000397198 -0.000190027 0)
(0.000428868 -0.000154751 0)
(0.000454331 -0.000115198 0)
(0.00047266 -7.19951e-05 0)
(0.000483291 -2.61018e-05 0)
(0.000485272 2.16804e-05 0)
(0.000478301 7.02649e-05 0)
(0.000462315 0.000118606 0)
(0.000437423 0.000165608 0)
(0.000403669 0.000210098 0)
(0.000361772 0.000250898 0)
(0.000311971 0.000286832 0)
(0.000255234 0.000316936 0)
(0.000192838 0.000340077 0)
(0.000126027 0.000355605 0)
(5.63598e-05 0.00036263 0)
(-1.46377e-05 0.000360837 0)
(-8.51612e-05 0.000349906 0)
(-0.000153117 0.000329723 0)
(-0.000216669 0.000300786 0)
(-0.000273935 0.000263419 0)
(-0.000323213 0.000218591 0)
(-0.000362839 0.000167296 0)
(-0.000391316 0.000110967 0)
(-0.000407423 5.11106e-05 0)
(-0.000410028 -1.02598e-05 0)
(-0.000398878 -7.14779e-05 0)
(-0.000374129 -0.000130373 0)
(-0.000336551 -0.000185133 0)
(-0.000286816 -0.000233545 0)
(-0.000226442 -0.0002738 0)
(-0.000157246 -0.000304358 0)
(-8.17046e-05 -0.0003236 0)
(-2.21148e-06 -0.000330782 0)
(7.80203e-05 -0.000325138 0)
(0.000155174 -0.000306799 0)
(0.000227009 -0.000276149 0)
(0.00028997 -0.000234288 0)
(0.000341259 -0.000182764 0)
(0.000378709 -0.000123699 0)
(0.000400187 -5.93982e-05 0)
(0.00040455 6.70358e-06 0)
(0.00039068 7.22537e-05 0)
(0.000359724 0.000133439 0)
(0.000312978 0.000187713 0)
(0.000252358 0.000231927 0)
(0.000180829 0.000263579 0)
(0.0001019 0.000280883 0)
(1.98653e-05 0.000282729 0)
(-6.08251e-05 0.000268379 0)
(-0.00013474 0.000238817 0)
(-0.000198024 0.00019584 0)
(-0.000246732 0.000141401 0)
(-0.000277811 7.93198e-05 0)
(-0.000288944 1.32052e-05 0)
(-0.000279079 -5.22972e-05 0)
(-0.000248812 -0.000112891 0)
(-0.000200503 -0.00016447 0)
(-0.000137494 -0.000202966 0)
(-6.4036e-05 -0.000225651 0)
(1.51437e-05 -0.000230407 0)
(9.26633e-05 -0.000216118 0)
(0.000161281 -0.000184314 0)
(0.000216499 -0.000137148 0)
(0.000253263 -7.88215e-05 0)
(0.000268166 -1.36492e-05 0)
(0.000258984 5.20565e-05 0)
(0.000226558 0.000113035 0)
(0.000173488 0.000163451 0)
(0.000104528 0.000198439 0)
(2.42867e-05 0.000214248 0)
(-5.84383e-05 0.000208442 0)
(-0.000133491 0.000181744 0)
(-0.000194715 0.000136707 0)
(-0.000235643 7.76038e-05 0)
(-0.000251578 1.0535e-05 0)
(-0.000239945 -5.74013e-05 0)
(-0.00020194 -0.000118862 0)
(-0.000141388 -0.000167103 0)
(-6.46222e-05 -0.000196216 0)
(2.14435e-05 -0.000202676 0)
(0.000105044 -0.000184434 0)
(0.00017429 -0.000144367 0)
(0.000222765 -8.71649e-05 0)
(0.000243979 -1.9814e-05 0)
(0.000234759 4.88776e-05 0)
(0.000196281 0.000110443 0)
(0.000133692 0.000156691 0)
(5.50537e-05 0.000181333 0)
(-3.04885e-05 0.000180868 0)
(-0.000109221 0.000154835 0)
(-0.000168853 0.000108145 0)
(-0.000202621 4.78414e-05 0)
(-0.000205679 -1.67991e-05 0)
(-0.000178277 -7.58607e-05 0)
(-0.000125832 -0.000120209 0)
(-5.71999e-05 -0.000143039 0)
(1.69773e-05 -0.000141026 0)
(8.26569e-05 -0.000114866 0)
(0.000127737 -7.09361e-05 0)
(0.000146342 -1.79659e-05 0)
(0.000136249 3.33679e-05 0)
(0.00010118 7.30322e-05 0)
(4.99551e-05 9.30563e-05 0)
(-6.00217e-06 8.95965e-05 0)
(-5.24202e-05 6.35571e-05 0)
(-7.73778e-05 2.20646e-05 0)
(-7.54159e-05 -2.47133e-05 0)
(-4.70361e-05 -6.50297e-05 0)
(3.28591e-06 -8.84992e-05 0)
(6.13754e-05 -8.75128e-05 0)
(0.000110143 -6.19703e-05 0)
(0.000137554 -1.72603e-05 0)
(0.000133796 3.55622e-05 0)
(9.73479e-05 8.25181e-05 0)
(3.5665e-05 0.000110335 0)
(-7.33203e-06 4.30836e-05 0)
(-1.76744e-05 4.81537e-05 0)
(-2.60425e-05 3.69835e-05 0)
(-3.06235e-05 1.95126e-05 0)
(-3.0624e-05 -3.01829e-06 0)
(-2.40723e-05 -3.1204e-05 0)
(-1.04318e-05 -6.31847e-05 0)
(1.23701e-05 -0.00010067 0)
(4.49888e-05 -0.000140708 0)
(8.54627e-05 -0.000185512 0)
(0.000134001 -0.00023313 0)
(0.000189598 -0.000283649 0)
(0.000252434 -0.000335156 0)
(0.000322194 -0.00038665 0)
(0.000398932 -0.000436197 0)
(0.000481848 -0.000482625 0)
(0.000570023 -0.000524065 0)
(0.000663016 -0.000560089 0)
(0.00075966 -0.000587887 0)
(0.000859063 -0.000607593 0)
(0.000959791 -0.000617942 0)
(0.00106066 -0.000618689 0)
(0.00116021 -0.000608841 0)
(0.00125732 -0.000588877 0)
(0.00134944 -0.000557941 0)
(0.0014358 -0.000517249 0)
(0.00151393 -0.000466463 0)
(0.00158274 -0.000407438 0)
(0.00164162 -0.000339843 0)
(0.00168902 -0.000266151 0)
(0.00172447 -0.000186651 0)
(0.00174738 -0.00010397 0)
(0.00175922 -1.90243e-05 0)
(0.00175947 6.62623e-05 0)
(0.00174772 0.00015068 0)
(0.00172376 0.000233361 0)
(0.00168802 0.000313504 0)
(0.00164213 0.000390164 0)
(0.00158783 0.000462709 0)
(0.00152565 0.000530508 0)
(0.00145672 0.000593022 0)
(0.00138176 0.000649834 0)
(0.0013014 0.000700631 0)
(0.00121649 0.000745092 0)
(0.00112776 0.000783108 0)
(0.001036 0.000814364 0)
(0.000942094 0.000838874 0)
(0.000846586 0.000856534 0)
(0.00075031 0.000867246 0)
(0.000653983 0.00087103 0)
(0.00055824 0.000868019 0)
(0.000463602 0.000858229 0)
(0.000371361 0.000841721 0)
(0.000281612 0.000818696 0)
(0.000195121 0.000789426 0)
(0.000112422 0.000754228 0)
(3.45918e-05 0.000713263 0)
(-3.79944e-05 0.000666778 0)
(-0.000105489 0.00061547 0)
(-0.000166525 0.000559281 0)
(-0.000220946 0.000499256 0)
(-0.00026797 0.000435503 0)
(-0.00030761 0.000368886 0)
(-0.000339241 0.000299994 0)
(-0.000362645 0.000229656 0)
(-0.000377534 0.000158544 0)
(-0.000383542 8.73927e-05 0)
(-0.000380722 1.71471e-05 0)
(-0.000369545 -5.13998e-05 0)
(-0.000350108 -0.000117249 0)
(-0.000322797 -0.000179729 0)
(-0.000287237 -0.000237867 0)
(-0.000244026 -0.000290921 0)
(-0.000194439 -0.000337786 0)
(-0.000138578 -0.000378022 0)
(-7.77211e-05 -0.000410653 0)
(-1.2264e-05 -0.00043531 0)
(5.60427e-05 -0.000451302 0)
(0.000125728 -0.000458173 0)
(0.000196591 -0.000455713 0)
(0.000266426 -0.000443856 0)
(0.000334222 -0.000422389 0)
(0.000398721 -0.000391815 0)
(0.000458187 -0.000352307 0)
(0.000511544 -0.000304574 0)
(0.000557257 -0.000249238 0)
(0.00059415 -0.000187422 0)
(0.000620963 -0.000120052 0)
(0.000637112 -4.84424e-05 0)
(0.000641554 2.57365e-05 0)
(0.000633483 0.00010118 0)
(0.000613098 0.000176238 0)
(0.000580299 0.00024898 0)
(0.000535267 0.000317826 0)
(0.000478607 0.000380875 0)
(0.000411352 0.00043636 0)
(0.000334448 0.000482641 0)
(0.000249683 0.000518382 0)
(0.000158867 0.00054214 0)
(6.38932e-05 0.000553014 0)
(-3.27119e-05 0.000550021 0)
(-0.000128806 0.000533127 0)
(-0.00022115 0.000502101 0)
(-0.00030739 0.000457427 0)
(-0.000385181 0.000399984 0)
(-0.000451767 0.000331016 0)
(-0.000505001 0.000252231 0)
(-0.000542986 0.000165957 0)
(-0.000563768 7.44586e-05 0)
(-0.000566355 -1.96504e-05 0)
(-0.000550209 -0.000113303 0)
(-0.000515692 -0.000203387 0)
(-0.00046341 -0.000286881 0)
(-0.00039448 -0.000360668 0)
(-0.000311376 -0.000421741 0)
(-0.000216214 -0.000467709 0)
(-0.000112406 -0.000496567 0)
(-3.68271e-06 -0.000506502 0)
(0.000105665 -0.000496914 0)
(0.000211235 -0.00046785 0)
(0.000308582 -0.000420006 0)
(0.000393811 -0.000355062 0)
(0.000462907 -0.000275312 0)
(0.000512723 -0.000184189 0)
(0.000540239 -8.55071e-05 0)
(0.000544018 1.64278e-05 0)
(0.000523418 0.00011632 0)
(0.000479084 0.000210369 0)
(0.000413457 0.0002927 0)
(0.000328587 0.000359902 0)
(0.000229215 0.000407238 0)
(0.000120417 0.000432765 0)
(6.89896e-06 0.000434305 0)
(-0.000103872 0.000410931 0)
(-0.00020457 0.000364549 0)
(-0.000290584 0.00029672 0)
(-0.000356104 0.00021249 0)
(-0.000396441 0.000115939 0)
(-0.000409387 1.36961e-05 0)
(-0.000392997 -8.71599e-05 0)
(-0.000348849 -0.000180519 0)
(-0.000279827 -0.000259324 0)
(-0.000190693 -0.000318188 0)
(-8.75044e-05 -0.000351728 0)
(2.35614e-05 -0.000357975 0)
(0.000131765 -0.000334553 0)
(0.000227501 -0.000284538 0)
(0.000303649 -0.000210838 0)
(0.000354072 -0.000119789 0)
(0.000373574 -1.88173e-05 0)
(0.000359832 8.29763e-05 0)
(0.000314116 0.000177183 0)
(0.000239823 0.000254526 0)
(0.000143389 0.00030789 0)
(3.16666e-05 0.000331639 0)
(-8.29449e-05 0.00032166 0)
(-0.000186861 0.000280012 0)
(-0.000271165 0.000209776 0)
(-0.000327137 0.000118199 0)
(-0.000348298 1.4687e-05 0)
(-0.000331569 -9.00344e-05 0)
(-0.000278621 -0.000184554 0)
(-0.000194792 -0.000258165 0)
(-8.88162e-05 -0.000302243 0)
(2.95145e-05 -0.000311177 0)
(0.000144065 -0.000282148 0)
(0.000238643 -0.000219949 0)
(0.000304118 -0.000131541 0)
(0.00033165 -2.82701e-05 0)
(0.000317602 7.72281e-05 0)
(0.000263954 0.000171258 0)
(0.000177527 0.000241088 0)
(6.96252e-05 0.000277698 0)
(-4.69439e-05 0.000275453 0)
(-0.00015324 0.000234276 0)
(-0.000232576 0.000161851 0)
(-0.000276044 6.89712e-05 0)
(-0.000277404 -3.0071e-05 0)
(-0.000237412 -0.000120046 0)
(-0.000163581 -0.000186737 0)
(-6.84436e-05 -0.000220073 0)
(3.30444e-05 -0.000214857 0)
(0.000121455 -0.000172936 0)
(0.000180536 -0.000103988 0)
(0.000202408 -2.17931e-05 0)
(0.00018447 5.7333e-05 0)
(0.000132293 0.000117742 0)
(5.8232e-05 0.000147635 0)
(-2.14086e-05 0.00014075 0)
(-8.68995e-05 9.92383e-05 0)
(-0.000121806 3.40667e-05 0)
(-0.000118746 -3.9093e-05 0)
(-7.8467e-05 -0.000101975 0)
(-7.76929e-06 -0.000138626 0)
(7.39279e-05 -0.000137404 0)
(0.000143272 -9.80811e-05 0)
(0.000183085 -2.9135e-05 0)
(0.000179894 5.23975e-05 0)
(0.000131549 0.000124781 0)
(4.82906e-05 0.000167716 0)
(-3.73947e-05 -0.000658812 0)
(-0.00010694 -0.000737761 0)
(-0.000174632 -0.000780472 0)
(-0.000236021 -0.000841809 0)
(-0.000290694 -0.000918996 0)
(-0.00033321 -0.00101537 0)
(-0.00036769 -0.00112009 0)
(-0.000389757 -0.00123787 0)
(-0.000406139 -0.0013517 0)
(-0.000420023 -0.00146263 0)
(-0.000420502 -0.001561 0)
(-0.000407356 -0.00165545 0)
(-0.000375271 -0.00174114 0)
(-0.000324083 -0.00182035 0)
(-0.000253611 -0.00188978 0)
(-0.000164474 -0.00194933 0)
(-6.05538e-05 -0.00199649 0)
(6.19217e-05 -0.00202901 0)
(0.000197649 -0.00204492 0)
(0.000341529 -0.00204511 0)
(0.000493005 -0.00202567 0)
(0.000649362 -0.00198592 0)
(0.000806094 -0.00192313 0)
(0.000962059 -0.00184082 0)
(0.00111259 -0.00173449 0)
(0.00125489 -0.00161175 0)
(0.00138475 -0.0014657 0)
(0.00150185 -0.0013097 0)
(0.00160262 -0.00113347 0)
(0.00168495 -0.000954192 0)
(0.00174668 -0.000766042 0)
(0.0017865 -0.000579279 0)
(0.00180721 -0.000393163 0)
(0.00180764 -0.000212328 0)
(0.00179267 -3.74284e-05 0)
(0.00176451 0.000129073 0)
(0.00172345 0.000285898 0)
(0.00166987 0.000432145 0)
(0.00160554 0.000566812 0)
(0.00153117 0.000689423 0)
(0.00144829 0.000799645 0)
(0.00135818 0.000897283 0)
(0.0012618 0.000982431 0)
(0.00116057 0.00105518 0)
(0.00105509 0.00111554 0)
(0.000946495 0.00116409 0)
(0.000835945 0.00120088 0)
(0.000723625 0.00122613 0)
(0.000610628 0.00124048 0)
(0.000498231 0.00124376 0)
(0.000386988 0.00123669 0)
(0.000276585 0.00121937 0)
(0.000169162 0.00119243 0)
(6.54336e-05 0.00115596 0)
(-3.38612e-05 0.00111071 0)
(-0.000128678 0.00105679 0)
(-0.000218521 0.000994936 0)
(-0.000301356 0.000925428 0)
(-0.000377703 0.000849153 0)
(-0.000446011 0.000766641 0)
(-0.00050585 0.00067871 0)
(-0.000556969 0.000586063 0)
(-0.000598163 0.00048969 0)
(-0.000629009 0.000390482 0)
(-0.000649268 0.000289358 0)
(-0.000659019 0.00018756 0)
(-0.000657593 8.61512e-05 0)
(-0.000644714 -1.37843e-05 0)
(-0.000620415 -0.000111176 0)
(-0.000585261 -0.000204631 0)
(-0.000539677 -0.00029294 0)
(-0.000483978 -0.00037469 0)
(-0.00041863 -0.000449024 0)
(-0.000344372 -0.000514618 0)
(-0.000262609 -0.000570392 0)
(-0.000174224 -0.000615412 0)
(-8.06486e-05 -0.00064878 0)
(1.69108e-05 -0.000669876 0)
(0.000116599 -0.000677971 0)
(0.000216754 -0.000672597 0)
(0.000315793 -0.000653932 0)
(0.000411417 -0.000621727 0)
(0.000501973 -0.000576469 0)
(0.000585759 -0.00051857 0)
(0.000660544 -0.000449041 0)
(0.0007248 -0.000368766 0)
(0.000776971 -0.000279165 0)
(0.000815781 -0.000181907 0)
(0.000839117 -7.87951e-05 0)
(0.000846292 2.78829e-05 0)
(0.000837245 0.000136345 0)
(0.000810809 0.000243838 0)
(0.000767443 0.000348308 0)
(0.000707552 0.000446758 0)
(0.000631721 0.000536834 0)
(0.000541082 0.000616108 0)
(0.000437749 0.000682178 0)
(0.000323682 0.000733067 0)
(0.000201251 0.000766803 0)
(7.31736e-05 0.000782093 0)
(-5.70655e-05 0.000777708 0)
(-0.000186064 0.000753238 0)
(-0.000310587 0.000708982 0)
(-0.000426587 0.000645285 0)
(-0.000530802 0.000563282 0)
(-0.000620005 0.000465298 0)
(-0.000690611 0.000353139 0)
(-0.000740307 0.000230373 0)
(-0.000767593 0.000100009 0)
(-0.000770205 -3.36462e-05 0)
(-0.00074732 -0.000166481 0)
(-0.000699598 -0.000294145 0)
(-0.000628137 -0.000412184 0)
(-0.000534063 -0.000516092 0)
(-0.000420592 -0.000601903 0)
(-0.000291564 -0.000665988 0)
(-0.0001508 -0.000705839 0)
(-3.37557e-06 -0.000718978 0)
(0.000144213 -0.000703869 0)
(0.000285963 -0.000661139 0)
(0.000416846 -0.000591727 0)
(0.000530902 -0.000498353 0)
(0.000622659 -0.000384075 0)
(0.000687793 -0.000254136 0)
(0.00072319 -0.000113589 0)
(0.000725842 3.11015e-05 0)
(0.000695919 0.000173428 0)
(0.000634182 0.000306318 0)
(0.000543048 0.000423147 0)
(0.000426604 0.000516967 0)
(0.000290471 0.000583348 0)
(0.00014228 0.000617883 0)
(-1.20534e-05 0.000618112 0)
(-0.00016197 0.0005833 0)
(-0.000298482 0.000514936 0)
(-0.000413641 0.000417445 0)
(-0.00050024 0.000295608 0)
(-0.000553377 0.000157312 0)
(-0.000567356 1.1062e-05 0)
(-0.000542311 -0.000133219 0)
(-0.000479572 -0.000266417 0)
(-0.000383015 -0.000378158 0)
(-0.000258772 -0.000461184 0)
(-0.000115929 -0.00050811 0)
(3.66546e-05 -0.000514877 0)
(0.000185036 -0.000480059 0)
(0.000315458 -0.0004066 0)
(0.000419583 -0.000300207 0)
(0.00048738 -0.000168813 0)
(0.000512633 -2.40258e-05 0)
(0.000492649 0.000122251 0)
(0.000428809 0.000256788 0)
(0.000325916 0.000367219 0)
(0.00019351 0.000442646 0)
(4.01705e-05 0.000475513 0)
(-0.000116341 0.000460339 0)
(-0.000257796 0.000399269 0)
(-0.00037253 0.000298231 0)
(-0.000447673 0.000166683 0)
(-0.000475374 1.84714e-05 0)
(-0.0004517 -0.000131051 0)
(-0.000378679 -0.000265502 0)
(-0.000263817 -0.000369381 0)
(-0.000119333 -0.000431133 0)
(4.14799e-05 -0.000442369 0)
(0.000196205 -0.000399967 0)
(0.00032332 -0.000310241 0)
(0.000410421 -0.000183903 0)
(0.000446108 -3.65713e-05 0)
(0.000425788 0.000113258 0)
(0.000351478 0.000245832 0)
(0.00023347 0.000344104 0)
(8.70878e-05 0.000394168 0)
(-6.99163e-05 0.000388435 0)
(-0.000211663 0.000328558 0)
(-0.000316367 0.000224348 0)
(-0.000372032 9.15083e-05 0)
(-0.000370702 -4.90842e-05 0)
(-0.0003136 -0.000175861 0)
(-0.000211382 -0.000268906 0)
(-8.12053e-05 -0.000313914 0)
(5.59582e-05 -0.000303356 0)
(0.00017374 -0.000241296 0)
(0.00025065 -0.000141337 0)
(0.000276139 -2.30358e-05 0)
(0.000247328 8.98185e-05 0)
(0.000172347 0.000175357 0)
(6.8048e-05 0.000216522 0)
(-4.29639e-05 0.00020452 0)
(-0.000133276 0.000143375 0)
(-0.000181134 4.86045e-05 0)
(-0.000176368 -5.71974e-05 0)
(-0.000120136 -0.000148026 0)
(-2.25496e-05 -0.000200958 0)
(9.02796e-05 -0.000199591 0)
(0.000186724 -0.000143487 0)
(0.000242877 -4.49114e-05 0)
(0.000240377 7.16087e-05 0)
(0.000176378 0.00017516 0)
(6.48767e-05 0.000236505 0)
(-0.000122628 0.000772718 0)
(-0.000358336 0.000713382 0)
(-0.000588 0.000644356 0)
(-0.000787098 0.000541497 0)
(-0.000964728 0.000417596 0)
(-0.00108351 0.000265909 0)
(-0.00116165 0.000129891 0)
(-0.0011717 -2.93854e-05 0)
(-0.00114156 -0.000128367 0)
(-0.00108674 -0.000283846 0)
(-0.000988328 -0.000471351 0)
(-0.000876453 -0.000703522 0)
(-0.000736299 -0.000944385 0)
(-0.000578664 -0.00118743 0)
(-0.000395387 -0.00141974 0)
(-0.000190965 -0.00163391 0)
(3.96618e-05 -0.00182328 0)
(0.000291312 -0.00198129 0)
(0.000558668 -0.00210387 0)
(0.000841026 -0.00218702 0)
(0.00113089 -0.00222654 0)
(0.00142885 -0.00223065 0)
(0.00172141 -0.0021898 0)
(0.00201314 -0.00211316 0)
(0.0022821 -0.0019893 0)
(0.00253796 -0.0018392 0)
(0.00275427 -0.00164147 0)
(0.00294433 -0.00143349 0)