/*--------------------------------*- C++ -*----------------------------------*\
  =========                 |
  \\      /  F ield         | OpenFOAM: The Open Source CFD Toolbox
   \\    /   O peration     | Website:  https://openfoam.org
    \\  /    A nd           | Version:  12
     \\/     M anipulation  |
\*---------------------------------------------------------------------------*/
FoamFile
{
    format      ascii;
    class       volVectorField;
    location    "16.08";
    object      zeta;
}
// * * * * * * * * * * * * * * * * * * * * * * * * * * * * * * * * * * * * * //

dimensions      [0 1 0 0 0 0 0];

internalField   uniform (0 0 0);

boundaryField
{
    freeSurface
    {
        type            calculated;
        value           nonuniform List<vector> 
181
(
(0 0.00532162 0)
(0 0.005321 0)
(0 0.00532085 0)
(0 0.00532072 0)
(0 0.0053209 0)
(0 0.00532092 0)
(0 0.00532185 0)
(0 0.00532181 0)
(0 6.20508e-05 0)
(0 7.62231e-05 0)
(0 9.44914e-05 0)
(0 0.000118435 0)
(0 0.00015561 0)
(0 0.000199274 0)
(0 0.000250097 0)
(0 0.000306455 0)
(0 0.000368403 0)
(0 0.000434224 0)
(0 0.000503952 0)
(0 0.000576201 0)
(0 0.000650173 0)
(0 0.000724484 0)
(0 0.000798027 0)
(0 0.000869756 0)
(0 0.000938838 0)
(0 0.00100453 0)
(0 0.00106591 0)
(0 0.00112217 0)
(0 0.00117226 0)
(0 0.00121521 0)
(0 0.00125029 0)
(0 0.00127667 0)
(0 0.00129369 0)
(0 0.00130097 0)
(0 0.00129792 0)
(0 0.00128411 0)
(0 0.00125915 0)
(0 0.00122297 0)
(0 0.00117549 0)
(0 0.00111683 0)
(0 0.00104726 0)
(0 0.000967107 0)
(0 0.000876825 0)
(0 0.000777063 0)
(0 0.000668664 0)
(0 0.000552378 0)
(0 0.000429469 0)
(0 0.000301068 0)
(0 0.000168546 0)
(0 3.35113e-05 0)
(0 -0.000102393 0)
(0 -0.000237374 0)
(0 -0.000369612 0)
(0 -0.000497122 0)
(0 -0.000617905 0)
(0 -0.000730019 0)
(0 -0.000831662 0)
(0 -0.000920957 0)
(0 -0.000996253 0)
(0 -0.00105589 0)
(0 -0.00109845 0)
(0 -0.00112277 0)
(0 -0.00112797 0)
(0 -0.0011134 0)
(0 -0.00107866 0)
(0 -0.00102383 0)
(0 -0.000949393 0)
(0 -0.000856177 0)
(0 -0.00074562 0)
(0 -0.000619263 0)
(0 -0.000479466 0)
(0 -0.000328877 0)
(0 -0.000170267 0)
(0 -7.10804e-06 0)
(0 0.000157193 0)
(0 0.000318907 0)
(0 0.000474144 0)
(0 0.000618971 0)
(0 0.000749331 0)
(0 0.000861721 0)
(0 0.000952747 0)
(0 0.00101912 0)
(0 0.00105851 0)
(0 0.00106918 0)
(0 0.00104992 0)
(0 0.00100037 0)
(0 0.000921356 0)
(0 0.000814383 0)
(0 0.000681969 0)
(0 0.000527651 0)
(0 0.000355801 0)
(0 0.000171793 0)
(0 -1.85302e-05 0)
(0 -0.000208678 0)
(0 -0.000392106 0)
(0 -0.000561948 0)
(0 -0.000711565 0)
(0 -0.000834755 0)
(0 -0.000926384 0)
(0 -0.000981934 0)
(0 -0.00099824 0)
(0 -0.000973779 0)
(0 -0.000908655 0)
(0 -0.00080485 0)
(0 -0.00066619 0)
(0 -0.000497835 0)
(0 -0.000307339 0)
(0 -0.000103169 0)
(0 0.000104691 0)
(0 0.000306245 0)
(0 0.000490802 0)
(0 0.000648265 0)
(0 0.000768988 0)
(0 0.000845668 0)
(0 0.000872942 0)
(0 0.000847989 0)
(0 0.000771518 0)
(0 0.000647389 0)
(0 0.000482543 0)
(0 0.000287739 0)
(0 7.53881e-05 0)
(0 -0.000139631 0)
(0 -0.000343458 0)
(0 -0.000520919 0)
(0 -0.000658417 0)
(0 -0.000745088 0)
(0 -0.000773838 0)
(0 -0.000741792 0)
(0 -0.000651004 0)
(0 -0.000508557 0)
(0 -0.00032608 0)
(0 -0.000119532 0)
(0 9.24407e-05 0)
(0 0.000292565 0)
(0 0.000461732 0)
(0 0.000583469 0)
(0 0.000645942 0)
(0 0.000642811 0)
(0 0.000573949 0)
(0 0.000446319 0)
(0 0.000273192 0)
(0 7.31779e-05 0)
(0 -0.000130759 0)
(0 -0.000318163 0)
(0 -0.000467064 0)
(0 -0.000559739 0)
(0 -0.000585442 0)
(0 -0.000541245 0)
(0 -0.000433175 0)
(0 -0.000275632 0)
(0 -8.96242e-05 0)
(0 9.86838e-05 0)
(0 0.000265843 0)
(0 0.000388598 0)
(0 0.00044974 0)
(0 0.000441378 0)
(0 0.000366168 0)
(0 0.000237477 0)
(0 7.70729e-05 0)
(0 -8.70996e-05 0)
(0 -0.000228643 0)
(0 -0.000324497 0)
(0 -0.000358368 0)
(0 -0.000325858 0)
(0 -0.000235226 0)
(0 -0.000105832 0)
(0 3.52886e-05 0)
(0 0.000158544 0)
(0 0.000240932 0)
(0 0.000264797 0)
(0 0.000226355 0)
(0 0.000136699 0)
(0 1.85966e-05 0)
(0 -9.80642e-05 0)
(0 -0.00018321 0)
(0 -0.000217003 0)
(0 -0.000190193 0)
(0 -0.000112056 0)
(0 -6.89934e-06 0)
(0 9.2037e-05 0)
(0 0.000152223 0)
)
;
    }
    walls
    {
        type            calculated;
        value           uniform (0 0 0);
    }
    floatingObject
    {
        type            calculated;
        value           uniform (0 0 0);
    }
    frontAndBack
    {
        type            empty;
    }
}


// ************************************************************************* //
