#           y            Uf            nu         nuEff             k       epsilon           Rff           Rww           Rfw             u             v             w            uv      gammaDot
     0.000625        7.0121         1e-05   0.000141665      0.881092        530.66      0.587395      0.587395      -0.79591      0.766417      0.766417      0.766417      -0.79591       6044.99
     0.001875       8.10037         1e-05   0.000448539      0.958186       188.423      0.638791      0.638791     -0.273999      0.799244      0.799244      0.799244     -0.273999       624.801
     0.003125        8.5741         1e-05   0.000909878       1.02958       106.018      0.686388      0.686388     -0.268101      0.828485      0.828485      0.828485     -0.268101       297.931
     0.004375       8.84519         1e-05    0.00148076       1.10286       74.4286      0.735239      0.735239      -0.26711      0.857461      0.857461      0.857461      -0.26711       181.613
     0.005625       9.02813         1e-05    0.00211225       1.17263       58.8678      0.781751      0.781751     -0.269555      0.884167      0.884167      0.884167     -0.269555       128.222
     0.006875       9.16575         1e-05    0.00276973       1.23785       49.9702      0.825233      0.825233     -0.275065      0.908424      0.908424      0.908424     -0.275065       99.6708
     0.008125       9.27731         1e-05    0.00343065       1.29872       44.3775      0.865811      0.865811     -0.283206       0.93049       0.93049       0.93049     -0.283206       82.7931
     0.009375       9.37273         1e-05    0.00408062       1.35565       40.6325      0.903764      0.903764     -0.293573      0.950665      0.950665      0.950665     -0.293573         72.12
     0.010625       9.45761         1e-05    0.00471068       1.40902       38.0118      0.939348      0.939348     -0.305774        0.9692        0.9692        0.9692     -0.305774        65.049
     0.011875       9.53535         1e-05    0.00531538       1.45915       36.1179      0.972764      0.972764     -0.319411      0.986288      0.986288      0.986288     -0.319411       60.2051
     0.013125       9.60812         1e-05    0.00589169       1.50623       34.7154       1.00415       1.00415     -0.334081       1.00207       1.00207       1.00207     -0.334081       56.8001
     0.014375       9.67735         1e-05    0.00643813       1.55042       33.6557       1.03362       1.03362     -0.349374       1.01667       1.01667       1.01667     -0.349374       54.3508
     0.015625         9.744         1e-05    0.00695426       1.59182       32.8402       1.06122       1.06122     -0.364885       1.03015       1.03015       1.03015     -0.364885       52.5449
     0.016875       9.80871         1e-05    0.00744034       1.63049       32.2011       1.08699       1.08699     -0.380215       1.04259       1.04259       1.04259     -0.380215       51.1706
     0.018125       9.87193         1e-05    0.00789705       1.66646       31.6897       1.11097       1.11097     -0.394976       1.05403       1.05403       1.05403     -0.394976        50.079
     0.019375       9.93391         1e-05    0.00832536       1.69976       31.2706       1.13317       1.13317     -0.408798       1.06451       1.06451       1.06451     -0.408798       49.1618
     0.020625       9.99483         1e-05    0.00872636        1.7304       30.9173        1.1536        1.1536     -0.421331       1.07406       1.07406       1.07406     -0.421331       48.3379
     0.021875       10.0548         1e-05    0.00910126       1.75841       30.6097       1.17227       1.17227     -0.432249       1.08272       1.08272       1.08272     -0.432249       47.5456
     0.023125       10.1137         1e-05    0.00945125       1.78381       30.3325        1.1892        1.1892     -0.441256       1.09051       1.09051       1.09051     -0.441256        46.737
     0.024375       10.1716         1e-05    0.00977753       1.80663       30.0743       1.20442       1.20442      -0.44808       1.09746       1.09746       1.09746      -0.44808       45.8745
     0.025625       10.2284         1e-05     0.0100813       1.82693       29.8264       1.21795       1.21795     -0.452487       1.10361       1.10361       1.10361     -0.452487       44.9285
     0.026875       10.2839         1e-05     0.0103636       1.84477       29.5826       1.22985       1.22985     -0.454271       1.10898       1.10898       1.10898     -0.454271       43.8758
     0.028125       10.3381         1e-05     0.0106255       1.86024       29.3388       1.24016       1.24016     -0.453264       1.11363       1.11363       1.11363     -0.453264       42.6983
     0.029375       10.3907         1e-05     0.0108681       1.87345       29.0922       1.24897       1.24897     -0.449335       1.11757       1.11757       1.11757     -0.449335       41.3826
     0.030625       10.4415         1e-05     0.0110922       1.88452       28.8417       1.25635       1.25635     -0.442386       1.12087       1.12087       1.12087     -0.442386       39.9187
     0.031875       10.4905         1e-05     0.0112987        1.8936       28.5874        1.2624        1.2624     -0.432361       1.12357       1.12357       1.12357     -0.432361       38.3003
     0.033125       10.5373         1e-05     0.0114885       1.90084       28.3302       1.26723       1.26723     -0.419237       1.12571       1.12571       1.12571     -0.419237       36.5238
     0.034375       10.5818         1e-05     0.0116622       1.90642        28.072       1.27095       1.27095     -0.403032       1.12736       1.12736       1.12736     -0.403032       34.5886
     0.035625       10.6237         1e-05     0.0118205       1.91053       27.8152       1.27368       1.27368     -0.383799       1.12858       1.12858       1.12858     -0.383799       32.4965
     0.036875        10.663         1e-05     0.0119639       1.91335       27.5627       1.27557       1.27557     -0.361627       1.12941       1.12941       1.12941     -0.361627       30.2517
     0.038125       10.6994         1e-05     0.0120931        1.9151       27.3179       1.27673       1.27673      -0.33664       1.12993       1.12993       1.12993      -0.33664       27.8604
     0.039375       10.7327         1e-05     0.0122084       1.91597       27.0844       1.27731       1.27731     -0.308995       1.13018       1.13018       1.13018     -0.308995       25.3308
     0.040625       10.7627         1e-05     0.0123101       1.91616       26.8656       1.27744       1.27744     -0.278879       1.13024       1.13024       1.13024     -0.278879       22.6729
     0.041875       10.7893         1e-05     0.0123986       1.91585       26.6651       1.27723       1.27723      -0.24651       1.13015       1.13015       1.13015      -0.24651       19.8982
     0.043125       10.8125         1e-05     0.0124741       1.91523       26.4862       1.27682       1.27682     -0.212133       1.12996       1.12996       1.12996     -0.212133       17.0194
     0.044375       10.8319         1e-05     0.0125368       1.91444       26.3321       1.27629       1.27629     -0.176013       1.12973       1.12973       1.12973     -0.176013       14.0508
     0.045625       10.8476         1e-05     0.0125869       1.91364       26.2053       1.27576       1.27576     -0.138438        1.1295        1.1295        1.1295     -0.138438       11.0074
     0.046875       10.8594         1e-05     0.0126243       1.91293       26.1082       1.27529       1.27529    -0.0997145       1.12929       1.12929       1.12929    -0.0997145       7.90486
     0.048125       10.8673         1e-05     0.0126493       1.91241       26.0425       1.27494       1.27494      -0.06016       1.12913       1.12913       1.12913      -0.06016       4.75976
     0.049375       10.8713         1e-05     0.0126617       1.91213       26.0093       1.27476       1.27476    -0.0201029       1.12905       1.12905       1.12905    -0.0201029       1.58895
     0.050625       10.8713         1e-05     0.0126617       1.91214       26.0093       1.27476       1.27476     0.0201222       1.12905       1.12905       1.12905     0.0201222       1.59047
     0.051875       10.8673         1e-05     0.0126493       1.91241       26.0425       1.27494       1.27494     0.0601792       1.12913       1.12913       1.12913     0.0601792       4.76128
     0.053125       10.8594         1e-05     0.0126243       1.91294       26.1083       1.27529       1.27529     0.0997337       1.12929       1.12929       1.12929     0.0997337       7.90637
     0.054375       10.8476         1e-05     0.0125869       1.91364       26.2054       1.27576       1.27576      0.138457        1.1295        1.1295        1.1295      0.138457       11.0089
     0.055625       10.8319         1e-05     0.0125369       1.91445       26.3322        1.2763        1.2763      0.176031       1.12973       1.12973       1.12973      0.176031       14.0523
     0.056875       10.8124         1e-05     0.0124741       1.91523       26.4864       1.27682       1.27682      0.212151       1.12997       1.12997       1.12997      0.212151       17.0209
     0.058125       10.7893         1e-05     0.0123986       1.91586       26.6653       1.27724       1.27724      0.246528       1.13015       1.13015       1.13015      0.246528       19.8996
     0.059375       10.7627         1e-05     0.0123101       1.91617       26.8658       1.27744       1.27744      0.278896       1.13024       1.13024       1.13024      0.278896       22.6743
     0.060625       10.7326         1e-05     0.0122084       1.91598       27.0847       1.27732       1.27732      0.309012       1.13019       1.13019       1.13019      0.309012       25.3322
     0.061875       10.6994         1e-05     0.0120931       1.91511       27.3182       1.27674       1.27674      0.336656       1.12993       1.12993       1.12993      0.336656       27.8618
     0.063125        10.663         1e-05      0.011964       1.91337        27.563       1.27558       1.27558      0.361643       1.12941       1.12941       1.12941      0.361643        30.253
     0.064375       10.6237         1e-05     0.0118205       1.91054       27.8155       1.27369       1.27369      0.383814       1.12858       1.12858       1.12858      0.383814       32.4978
     0.065625       10.5818         1e-05     0.0116622       1.90643       28.0723       1.27096       1.27096      0.403047       1.12737       1.12737       1.12737      0.403047       34.5898
     0.066875       10.5373         1e-05     0.0114885       1.90086       28.3306       1.26724       1.26724      0.419251       1.12572       1.12572       1.12572      0.419251       36.5249
     0.068125       10.4904         1e-05     0.0112987       1.89362       28.5878       1.26241       1.26241      0.432374       1.12357       1.12357       1.12357      0.432374       38.3013
     0.069375       10.4415         1e-05     0.0110922       1.88454       28.8421       1.25636       1.25636      0.442399       1.12087       1.12087       1.12087      0.442399       39.9198
     0.070625       10.3906         1e-05     0.0108681       1.87347       29.0926       1.24898       1.24898      0.449347       1.11758       1.11758       1.11758      0.449347       41.3836
     0.071875        10.338         1e-05     0.0106255       1.86026       29.3392       1.24017       1.24017      0.453275       1.11363       1.11363       1.11363      0.453275       42.6993
     0.073125       10.2839         1e-05     0.0103636       1.84479        29.583       1.22986       1.22986      0.454281       1.10899       1.10899       1.10899      0.454281       43.8766
     0.074375       10.2284         1e-05     0.0100813       1.82694       29.8268       1.21796       1.21796      0.452496       1.10361       1.10361       1.10361      0.452496       44.9293
     0.075625       10.1716         1e-05    0.00977757       1.80664       30.0747       1.20443       1.20443      0.448089       1.09746       1.09746       1.09746      0.448089       45.8752
     0.076875       10.1137         1e-05    0.00945129       1.78382       30.3329       1.18921       1.18921      0.441264       1.09051       1.09051       1.09051      0.441264       46.7377
     0.078125       10.0547         1e-05     0.0091013       1.75843       30.6101       1.17228       1.17228      0.432257       1.08272       1.08272       1.08272      0.432257       47.5462
     0.079375        9.9948         1e-05     0.0087264       1.73042       30.9177       1.15361       1.15361      0.421337       1.07406       1.07406       1.07406      0.421337       48.3384
     0.080625       9.93388         1e-05     0.0083254       1.69977        31.271       1.13318       1.13318      0.408803       1.06451       1.06451       1.06451      0.408803       49.1622
     0.081875       9.87189         1e-05    0.00789709       1.66648       31.6901       1.11098       1.11098      0.394981       1.05403       1.05403       1.05403      0.394981       50.0794
     0.083125       9.80868         1e-05    0.00744038        1.6305       32.2014         1.087         1.087      0.380219       1.04259       1.04259       1.04259      0.380219       51.1709
     0.084375       9.74396         1e-05     0.0069543       1.59184       32.8406       1.06122       1.06122      0.364889       1.03016       1.03016       1.03016      0.364889       52.5451
     0.085625       9.67732         1e-05    0.00643817       1.55044        33.656       1.03362       1.03362      0.349377       1.01667       1.01667       1.01667      0.349377       54.3509
     0.086875       9.60809         1e-05    0.00589174       1.50624       34.7157       1.00416       1.00416      0.334083       1.00208       1.00208       1.00208      0.334083       56.8001
     0.088125       9.53532         1e-05    0.00531542       1.45916       36.1182      0.972771      0.972771      0.319413      0.986291      0.986291      0.986291      0.319413        60.205
     0.089375       9.45757         1e-05    0.00471071       1.40903        38.012      0.939355      0.939355      0.305776      0.969203      0.969203      0.969203      0.305776       65.0487
     0.090625       9.37269         1e-05    0.00408066       1.35565       40.6327       0.90377       0.90377      0.293574      0.950668      0.950668      0.950668      0.293574       72.1196
     0.091875       9.27728         1e-05    0.00343068       1.29872       44.3776      0.865817      0.865817      0.283206      0.930493      0.930493      0.930493      0.283206       82.7924
     0.093125       9.16571         1e-05    0.00276976       1.23786       49.9703      0.825238      0.825238      0.275065      0.908426      0.908426      0.908426      0.275065       99.6699
     0.094375        9.0281         1e-05    0.00211227       1.17263       58.8678      0.781755      0.781755      0.269554      0.884169      0.884169      0.884169      0.269554        128.22
     0.095625       8.84516         1e-05    0.00148078       1.10286       74.4284      0.735242      0.735242       0.26711      0.857462      0.857462      0.857462       0.26711       181.611
     0.096875       8.57407         1e-05   0.000909886       1.02958       106.018       0.68639       0.68639      0.268101      0.828486      0.828486      0.828486      0.268101       297.927
     0.098125       8.10034         1e-05   0.000448541      0.958186       188.422      0.638791      0.638791      0.273998      0.799244      0.799244      0.799244      0.273998       624.796
     0.099375       7.01208         1e-05   0.000141664       0.88109       530.658      0.587393      0.587393      0.795907      0.766416      0.766416      0.766416      0.795907       6044.97
