/*--------------------------------*- C++ -*----------------------------------*\
  =========                 |
  \\      /  F ield         | OpenFOAM: The Open Source CFD Toolbox
   \\    /   O peration     | Website:  https://openfoam.org
    \\  /    A nd           | Version:  12
     \\/     M anipulation  |
\*---------------------------------------------------------------------------*/
FoamFile
{
    format      ascii;
    class       volScalarField;
    location    "11.98";
    object      p;
}
// * * * * * * * * * * * * * * * * * * * * * * * * * * * * * * * * * * * * * //

dimensions      [1 -1 -2 0 0 0 0];

internalField   nonuniform List<scalar> 
3829
(
-617.669
-617.668
-617.666
-617.662
-617.658
-617.652
-617.644
-617.635
-617.625
-617.613
-617.599
-617.584
-617.566
-617.546
-617.524
-617.5
-617.473
-617.444
-617.412
-617.377
-617.34
-617.299
-617.256
-617.209
-617.16
-617.107
-617.052
-616.994
-616.934
-616.871
-616.805
-616.738
-616.669
-616.598
-616.526
-616.452
-616.378
-616.304
-616.23
-616.156
-616.083
-616.01
-615.94
-615.871
-615.804
-615.74
-615.679
-615.621
-615.566
-615.516
-615.469
-615.425
-615.386
-615.351
-615.321
-615.294
-615.271
-615.252
-615.237
-615.225
-615.217
-615.211
-615.208
-615.208
-615.208
-615.21
-615.213
-615.216
-615.218
-615.219
-615.219
-615.216
-615.211
-615.202
-615.19
-615.173
-615.153
-615.127
-615.095
-615.058
-615.016
-614.969
-614.918
-614.862
-614.803
-614.74
-614.675
-614.607
-614.539
-614.472
-614.406
-614.343
-614.283
-614.229
-614.18
-614.138
-614.104
-614.079
-614.063
-614.058
-614.063
-614.079
-614.104
-614.138
-614.18
-614.229
-614.284
-614.343
-614.403
-614.465
-614.524
-614.58
-614.63
-614.672
-614.706
-614.729
-614.74
-614.739
-614.726
-614.7
-614.664
-614.618
-614.563
-614.503
-614.44
-614.376
-614.314
-614.257
-614.208
-614.169
-614.14
-614.125
-614.125
-614.139
-614.164
-614.2
-614.244
-614.293
-614.344
-614.393
-614.438
-614.474
-614.499
-614.511
-614.508
-614.491
-614.461
-614.42
-614.372
-614.32
-614.268
-614.221
-614.182
-614.154
-614.141
-614.141
-614.157
-614.185
-614.224
-614.268
-614.313
-614.356
-614.39
-614.414
-614.424
-614.42
-614.402
-614.373
-614.337
-614.297
-614.258
-614.225
-614.201
-614.188
-614.188
-614.197
-614.216
-614.24
-614.265
-614.289
-614.309
-614.323
-614.331
-614.334
-614.334
-614.332
-614.33
-614.33
-614.331
-614.334
-614.338
-614.34
-614.339
-614.334
-614.325
-614.312
-614.297
-614.282
-614.27
-614.263
-1776.14
-1776.14
-1776.14
-1776.13
-1776.13
-1776.13
-1776.12
-1776.12
-1776.11
-1776.1
-1776.09
-1776.07
-1776.06
-1776.04
-1776.02
-1776
-1775.97
-1775.94
-1775.91
-1775.87
-1775.83
-1775.79
-1775.74
-1775.69
-1775.64
-1775.58
-1775.51
-1775.45
-1775.38
-1775.31
-1775.23
-1775.15
-1775.07
-1774.99
-1774.9
-1774.82
-1774.73
-1774.64
-1774.56
-1774.47
-1774.38
-1774.3
-1774.22
-1774.14
-1774.07
-1774
-1773.93
-1773.87
-1773.81
-1773.76
-1773.71
-1773.67
-1773.63
-1773.6
-1773.58
-1773.55
-1773.54
-1773.53
-1773.52
-1773.52
-1773.52
-1773.52
-1773.53
-1773.54
-1773.55
-1773.56
-1773.58
-1773.59
-1773.6
-1773.62
-1773.62
-1773.63
-1773.63
-1773.63
-1773.62
-1773.61
-1773.59
-1773.56
-1773.53
-1773.49
-1773.45
-1773.39
-1773.34
-1773.27
-1773.2
-1773.13
-1773.06
-1772.98
-1772.9
-1772.82
-1772.74
-1772.67
-1772.6
-1772.53
-1772.48
-1772.43
-1772.39
-1772.36
-1772.34
-1772.34
-1772.35
-1772.37
-1772.4
-1772.44
-1772.5
-1772.56
-1772.63
-1772.7
-1772.77
-1772.85
-1772.92
-1772.99
-1773.05
-1773.1
-1773.14
-1773.17
-1773.18
-1773.18
-1773.16
-1773.13
-1773.09
-1773.03
-1772.96
-1772.89
-1772.81
-1772.73
-1772.66
-1772.59
-1772.53
-1772.49
-1772.45
-1772.44
-1772.44
-1772.46
-1772.49
-1772.54
-1772.59
-1772.66
-1772.72
-1772.78
-1772.84
-1772.88
-1772.91
-1772.93
-1772.92
-1772.9
-1772.86
-1772.81
-1772.75
-1772.69
-1772.63
-1772.57
-1772.52
-1772.49
-1772.47
-1772.48
-1772.5
-1772.53
-1772.58
-1772.63
-1772.69
-1772.74
-1772.78
-1772.81
-1772.82
-1772.81
-1772.79
-1772.76
-1772.71
-1772.66
-1772.62
-1772.58
-1772.55
-1772.54
-1772.54
-1772.55
-1772.58
-1772.61
-1772.64
-1772.66
-1772.69
-1772.7
-1772.71
-1772.71
-1772.71
-1772.7
-1772.7
-1772.7
-1772.7
-1772.7
-1772.71
-1772.71
-1772.71
-1772.71
-1772.7
-1772.68
-1772.67
-1772.65
-1772.63
-1772.63
-2802.45
-2802.45
-2802.45
-2802.45
-2802.45
-2802.46
-2802.46
-2802.46
-2802.46
-2802.46
-2802.46
-2802.46
-2802.45
-2802.44
-2802.43
-2802.41
-2802.39
-2802.37
-2802.34
-2802.3
-2802.26
-2802.21
-2802.16
-2802.1
-2802.03
-2801.96
-2801.88
-2801.79
-2801.7
-2801.61
-2801.51
-2801.41
-2801.3
-2801.19
-2801.08
-2800.97
-2800.86
-2800.75
-2800.64
-2800.53
-2800.43
-2800.33
-2800.23
-2800.14
-2800.05
-2799.97
-2799.89
-2799.82
-2799.75
-2799.7
-2799.65
-2799.61
-2799.57
-2799.55
-2799.53
-2799.52
-2799.51
-2799.51
-2799.52
-2799.54
-2799.56
-2799.58
-2799.61
-2799.64
-2799.67
-2799.7
-2799.74
-2799.77
-2799.8
-2799.83
-2799.86
-2799.88
-2799.89
-2799.9
-2799.9
-2799.9
-2799.88
-2799.86
-2799.82
-2799.78
-2799.73
-2799.66
-2799.59
-2799.51
-2799.43
-2799.34
-2799.24
-2799.14
-2799.04
-2798.94
-2798.84
-2798.74
-2798.65
-2798.57
-2798.5
-2798.44
-2798.39
-2798.35
-2798.33
-2798.33
-2798.35
-2798.38
-2798.43
-2798.49
-2798.56
-2798.65
-2798.74
-2798.84
-2798.94
-2799.04
-2799.14
-2799.23
-2799.31
-2799.38
-2799.43
-2799.47
-2799.48
-2799.47
-2799.45
-2799.4
-2799.34
-2799.26
-2799.17
-2799.07
-2798.97
-2798.87
-2798.77
-2798.68
-2798.6
-2798.55
-2798.51
-2798.49
-2798.5
-2798.53
-2798.58
-2798.64
-2798.72
-2798.81
-2798.89
-2798.98
-2799.05
-2799.11
-2799.15
-2799.17
-2799.16
-2799.13
-2799.08
-2799.01
-2798.93
-2798.85
-2798.76
-2798.69
-2798.62
-2798.58
-2798.56
-2798.57
-2798.6
-2798.65
-2798.72
-2798.79
-2798.87
-2798.93
-2798.99
-2799.02
-2799.03
-2799.02
-2798.99
-2798.94
-2798.88
-2798.82
-2798.76
-2798.71
-2798.68
-2798.67
-2798.67
-2798.69
-2798.72
-2798.76
-2798.8
-2798.84
-2798.86
-2798.88
-2798.88
-2798.88
-2798.87
-2798.86
-2798.86
-2798.85
-2798.86
-2798.86
-2798.87
-2798.88
-2798.88
-2798.88
-2798.87
-2798.85
-2798.83
-2798.8
-2798.79
-2798.78
-3711.6
-3711.6
-3711.61
-3711.62
-3711.63
-3711.65
-3711.67
-3711.69
-3711.71
-3711.74
-3711.76
-3711.78
-3711.8
-3711.81
-3711.82
-3711.82
-3711.81
-3711.8
-3711.78
-3711.74
-3711.7
-3711.65
-3711.58
-3711.51
-3711.42
-3711.32
-3711.22
-3711.1
-3710.98
-3710.85
-3710.71
-3710.57
-3710.42
-3710.27
-3710.12
-3709.97
-3709.82
-3709.67
-3709.53
-3709.39
-3709.25
-3709.12
-3708.99
-3708.87
-3708.77
-3708.67
-3708.58
-3708.51
-3708.44
-3708.38
-3708.34
-3708.3
-3708.28
-3708.26
-3708.26
-3708.26
-3708.28
-3708.3
-3708.34
-3708.38
-3708.42
-3708.48
-3708.54
-3708.6
-3708.66
-3708.73
-3708.79
-3708.85
-3708.91
-3708.97
-3709.02
-3709.06
-3709.09
-3709.12
-3709.13
-3709.13
-3709.12
-3709.1
-3709.06
-3709.01
-3708.95
-3708.87
-3708.78
-3708.68
-3708.56
-3708.44
-3708.32
-3708.19
-3708.05
-3707.92
-3707.79
-3707.66
-3707.54
-3707.43
-3707.34
-3707.26
-3707.2
-3707.16
-3707.13
-3707.14
-3707.16
-3707.21
-3707.27
-3707.36
-3707.46
-3707.58
-3707.71
-3707.85
-3707.99
-3708.13
-3708.26
-3708.39
-3708.49
-3708.59
-3708.66
-3708.7
-3708.72
-3708.71
-3708.67
-3708.61
-3708.52
-3708.41
-3708.28
-3708.15
-3708.01
-3707.86
-3707.73
-3707.61
-3707.51
-3707.44
-3707.39
-3707.38
-3707.39
-3707.44
-3707.51
-3707.6
-3707.71
-3707.83
-3707.96
-3708.07
-3708.17
-3708.25
-3708.3
-3708.32
-3708.31
-3708.27
-3708.2
-3708.11
-3707.99
-3707.88
-3707.76
-3707.66
-3707.58
-3707.53
-3707.5
-3707.52
-3707.56
-3707.63
-3707.72
-3707.82
-3707.93
-3708.02
-3708.09
-3708.13
-3708.15
-3708.13
-3708.08
-3708.02
-3707.93
-3707.85
-3707.77
-3707.71
-3707.67
-3707.65
-3707.66
-3707.7
-3707.74
-3707.8
-3707.85
-3707.89
-3707.92
-3707.94
-3707.94
-3707.93
-3707.91
-3707.9
-3707.89
-3707.88
-3707.89
-3707.9
-3707.91
-3707.92
-3707.93
-3707.93
-3707.91
-3707.89
-3707.86
-3707.84
-3707.81
-3707.8
-4516.92
-4516.93
-4516.95
-4516.98
-4517.02
-4517.07
-4517.13
-4517.19
-4517.26
-4517.33
-4517.4
-4517.47
-4517.53
-4517.59
-4517.64
-4517.67
-4517.7
-4517.7
-4517.69
-4517.67
-4517.62
-4517.56
-4517.48
-4517.38
-4517.26
-4517.12
-4516.97
-4516.8
-4516.62
-4516.43
-4516.24
-4516.03
-4515.83
-4515.62
-4515.41
-4515.2
-4514.99
-4514.79
-4514.6
-4514.41
-4514.24
-4514.07
-4513.92
-4513.78
-4513.65
-4513.53
-4513.43
-4513.34
-4513.27
-4513.21
-4513.17
-4513.14
-4513.13
-4513.13
-4513.15
-4513.18
-4513.22
-4513.28
-4513.34
-4513.42
-4513.51
-4513.6
-4513.7
-4513.8
-4513.9
-4514.01
-4514.11
-4514.21
-4514.31
-4514.4
-4514.48
-4514.55
-4514.61
-4514.65
-4514.68
-4514.69
-4514.69
-4514.66
-4514.62
-4514.56
-4514.48
-4514.38
-4514.26
-4514.13
-4513.98
-4513.83
-4513.66
-4513.49
-4513.31
-4513.13
-4512.96
-4512.79
-4512.63
-4512.49
-4512.37
-4512.27
-4512.19
-4512.14
-4512.11
-4512.12
-4512.16
-4512.22
-4512.32
-4512.44
-4512.58
-4512.74
-4512.92
-4513.1
-4513.29
-4513.48
-4513.66
-4513.83
-4513.98
-4514.1
-4514.19
-4514.24
-4514.27
-4514.25
-4514.19
-4514.1
-4513.98
-4513.83
-4513.66
-4513.47
-4513.28
-4513.09
-4512.92
-4512.76
-4512.63
-4512.53
-4512.48
-4512.46
-4512.49
-4512.55
-4512.66
-4512.79
-4512.94
-4513.11
-4513.28
-4513.43
-4513.57
-4513.68
-4513.74
-4513.77
-4513.75
-4513.69
-4513.59
-4513.46
-4513.31
-4513.15
-4513
-4512.86
-4512.76
-4512.69
-4512.66
-4512.68
-4512.75
-4512.85
-4512.97
-4513.11
-4513.25
-4513.37
-4513.46
-4513.52
-4513.53
-4513.51
-4513.44
-4513.35
-4513.24
-4513.12
-4513.02
-4512.94
-4512.89
-4512.88
-4512.9
-4512.94
-4513.01
-4513.08
-4513.15
-4513.2
-4513.24
-4513.25
-4513.25
-4513.23
-4513.21
-4513.18
-4513.17
-4513.16
-4513.17
-4513.18
-4513.2
-4513.22
-4513.23
-4513.23
-4513.21
-4513.19
-4513.15
-4513.12
-4513.09
-4513.07
-5229.79
-5229.82
-5229.88
-5229.97
-5230.07
-5230.18
-5230.31
-5230.45
-5230.6
-5230.75
-5230.91
-5231.06
-5231.21
-5231.35
-5231.48
-5231.59
-5231.68
-5231.75
-5231.8
-5231.82
-5231.8
-5231.75
-5231.67
-5231.55
-5231.39
-5231.2
-5230.98
-5230.73
-5230.47
-5230.19
-5229.9
-5229.6
-5229.3
-5229
-5228.71
-5228.43
-5228.15
-5227.88
-5227.63
-5227.39
-5227.17
-5226.96
-5226.77
-5226.59
-5226.44
-5226.32
-5226.21
-5226.12
-5226.05
-5226
-5225.97
-5225.96
-5225.97
-5226
-5226.04
-5226.11
-5226.19
-5226.28
-5226.39
-5226.51
-5226.64
-5226.79
-5226.93
-5227.09
-5227.24
-5227.4
-5227.55
-5227.7
-5227.84
-5227.97
-5228.09
-5228.19
-5228.28
-5228.35
-5228.4
-5228.42
-5228.42
-5228.4
-5228.34
-5228.27
-5228.17
-5228.04
-5227.89
-5227.72
-5227.53
-5227.33
-5227.11
-5226.88
-5226.65
-5226.42
-5226.19
-5225.98
-5225.77
-5225.59
-5225.43
-5225.3
-5225.21
-5225.15
-5225.13
-5225.13
-5225.18
-5225.27
-5225.4
-5225.56
-5225.75
-5225.96
-5226.2
-5226.45
-5226.7
-5226.95
-5227.19
-5227.4
-5227.59
-5227.75
-5227.87
-5227.94
-5227.96
-5227.93
-5227.86
-5227.73
-5227.57
-5227.37
-5227.14
-5226.9
-5226.64
-5226.4
-5226.16
-5225.96
-5225.79
-5225.67
-5225.6
-5225.59
-5225.63
-5225.73
-5225.87
-5226.05
-5226.26
-5226.48
-5226.7
-5226.91
-5227.09
-5227.23
-5227.32
-5227.35
-5227.32
-5227.24
-5227.1
-5226.93
-5226.73
-5226.51
-5226.31
-5226.13
-5226
-5225.91
-5225.88
-5225.91
-5226
-5226.14
-5226.3
-5226.49
-5226.67
-5226.83
-5226.95
-5227.02
-5227.03
-5226.99
-5226.9
-5226.78
-5226.63
-5226.47
-5226.34
-5226.25
-5226.19
-5226.18
-5226.21
-5226.28
-5226.37
-5226.46
-5226.55
-5226.61
-5226.65
-5226.67
-5226.65
-5226.62
-5226.59
-5226.55
-5226.53
-5226.53
-5226.54
-5226.56
-5226.59
-5226.61
-5226.63
-5226.63
-5226.61
-5226.57
-5226.53
-5226.49
-5226.45
-5226.43
-5861.46
-5861.5
-5861.57
-5861.67
-5861.82
-5862.02
-5862.28
-5862.57
-5862.94
-5863.29
-5863.65
-5864.01
-5864.34
-5864.65
-5864.91
-5865.13
-5865.3
-5865.42
-5865.47
-5865.47
-5865.4
-5865.27
-5865.09
-5864.86
-5864.57
-5864.23
-5863.85
-5863.45
-5863.02
-5862.59
-5862.16
-5861.73
-5861.31
-5860.89
-5860.5
-5860.12
-5859.76
-5859.42
-5859.11
-5858.81
-5858.55
-5858.3
-5858.09
-5857.91
-5857.73
-5857.59
-5857.47
-5857.37
-5857.31
-5857.27
-5857.25
-5857.27
-5857.3
-5857.36
-5857.45
-5857.55
-5857.68
-5857.82
-5857.98
-5858.16
-5858.34
-5858.54
-5858.75
-5858.96
-5859.18
-5859.39
-5859.6
-5859.81
-5860
-5860.18
-5860.34
-5860.48
-5860.61
-5860.7
-5860.77
-5860.81
-5860.82
-5860.78
-5860.72
-5860.63
-5860.5
-5860.34
-5860.15
-5859.93
-5859.69
-5859.43
-5859.15
-5858.86
-5858.57
-5858.27
-5857.98
-5857.71
-5857.45
-5857.22
-5857.02
-5856.86
-5856.74
-5856.66
-5856.64
-5856.66
-5856.73
-5856.84
-5857.01
-5857.22
-5857.47
-5857.75
-5858.05
-5858.37
-5858.7
-5859.02
-5859.32
-5859.6
-5859.84
-5860.04
-5860.18
-5860.27
-5860.3
-5860.25
-5860.15
-5859.99
-5859.77
-5859.51
-5859.22
-5858.9
-5858.58
-5858.26
-5857.97
-5857.71
-5857.5
-5857.35
-5857.27
-5857.26
-5857.32
-5857.44
-5857.63
-5857.87
-5858.14
-5858.43
-5858.72
-5858.99
-5859.22
-5859.4
-5859.5
-5859.54
-5859.5
-5859.39
-5859.21
-5858.99
-5858.73
-5858.45
-5858.19
-5857.97
-5857.79
-5857.69
-5857.65
-5857.7
-5857.82
-5858
-5858.21
-5858.45
-5858.68
-5858.88
-5859.03
-5859.12
-5859.13
-5859.07
-5858.95
-5858.79
-5858.6
-5858.41
-5858.24
-5858.12
-5858.06
-5858.05
-5858.1
-5858.19
-5858.3
-5858.42
-5858.53
-5858.61
-5858.66
-5858.67
-5858.64
-5858.6
-5858.55
-5858.5
-5858.47
-5858.47
-5858.48
-5858.51
-5858.55
-5858.59
-5858.61
-5858.61
-5858.59
-5858.54
-5858.49
-5858.43
-5858.39
-5858.36
-6419.11
-6419.19
-6419.36
-6419.63
-6420
-6420.46
-6420.98
-6421.53
-6422.12
-6422.72
-6423.3
-6423.85
-6424.36
-6424.83
-6425.24
-6425.6
-6425.91
-6426.15
-6426.31
-6426.4
-6426.41
-6426.34
-6426.17
-6425.91
-6425.56
-6425.12
-6424.59
-6424
-6423.4
-6422.78
-6422.18
-6421.59
-6421.02
-6420.48
-6419.97
-6419.49
-6419.05
-6418.64
-6418.26
-6417.92
-6417.61
-6417.33
-6417.09
-6416.88
-6416.7
-6416.56
-6416.45
-6416.37
-6416.32
-6416.3
-6416.31
-6416.36
-6416.43
-6416.53
-6416.66
-6416.81
-6416.99
-6417.19
-6417.41
-6417.65
-6417.9
-6418.17
-6418.44
-6418.72
-6419
-6419.28
-6419.56
-6419.82
-6420.08
-6420.31
-6420.52
-6420.71
-6420.87
-6420.99
-6421.08
-6421.13
-6421.14
-6421.11
-6421.04
-6420.92
-6420.76
-6420.57
-6420.33
-6420.06
-6419.76
-6419.43
-6419.08
-6418.72
-6418.35
-6417.99
-6417.63
-6417.28
-6416.97
-6416.68
-6416.43
-6416.23
-6416.08
-6415.99
-6415.96
-6415.99
-6416.08
-6416.24
-6416.45
-6416.72
-6417.03
-6417.39
-6417.77
-6418.17
-6418.58
-6418.98
-6419.35
-6419.7
-6420
-6420.24
-6420.42
-6420.52
-6420.54
-6420.49
-6420.36
-6420.15
-6419.88
-6419.55
-6419.18
-6418.78
-6418.37
-6417.98
-6417.61
-6417.29
-6417.04
-6416.86
-6416.76
-6416.75
-6416.84
-6417.01
-6417.25
-6417.55
-6417.9
-6418.27
-6418.63
-6418.96
-6419.25
-6419.47
-6419.6
-6419.64
-6419.59
-6419.44
-6419.21
-6418.93
-6418.6
-6418.25
-6417.93
-6417.65
-6417.44
-6417.31
-6417.28
-6417.34
-6417.49
-6417.72
-6417.99
-6418.29
-6418.58
-6418.82
-6419.01
-6419.11
-6419.12
-6419.04
-6418.89
-6418.68
-6418.44
-6418.2
-6418
-6417.86
-6417.78
-6417.78
-6417.85
-6417.97
-6418.11
-6418.27
-6418.4
-6418.49
-6418.54
-6418.55
-6418.51
-6418.45
-6418.38
-6418.32
-6418.29
-6418.28
-6418.3
-6418.34
-6418.39
-6418.43
-6418.46
-6418.46
-6418.44
-6418.39
-6418.32
-6418.25
-6418.2
-6418.17
-6912.8
-6912.94
-6913.23
-6913.66
-6914.23
-6914.94
-6915.83
-6916.88
-6917.98
-6919.11
-6920.26
-6921.36
-6922.39
-6923.32
-6924.16
-6924.83
-6925.35
-6925.72
-6925.92
-6925.98
-6925.88
-6925.63
-6925.22
-6924.66
-6923.96
-6923.14
-6922.21
-6921.02
-6920.02
-6919.08
-6918.2
-6917.37
-6916.62
-6915.92
-6915.3
-6914.73
-6914.21
-6913.75
-6913.33
-6912.95
-6912.62
-6912.33
-6912.08
-6911.87
-6911.7
-6911.56
-6911.45
-6911.39
-6911.36
-6911.37
-6911.41
-6911.49
-6911.6
-6911.75
-6911.93
-6912.14
-6912.38
-6912.64
-6912.92
-6913.23
-6913.56
-6913.89
-6914.24
-6914.6
-6914.95
-6915.31
-6915.65
-6915.98
-6916.3
-6916.59
-6916.86
-6917.09
-6917.29
-6917.44
-6917.56
-6917.62
-6917.63
-6917.6
-6917.51
-6917.37
-6917.18
-6916.94
-6916.65
-6916.32
-6915.95
-6915.55
-6915.13
-6914.69
-6914.24
-6913.79
-6913.35
-6912.93
-6912.55
-6912.2
-6911.9
-6911.66
-6911.48
-6911.38
-6911.34
-6911.38
-6911.5
-6911.69
-6911.96
-6912.29
-6912.68
-6913.11
-6913.58
-6914.07
-6914.57
-6915.06
-6915.52
-6915.94
-6916.3
-6916.59
-6916.8
-6916.92
-6916.94
-6916.87
-6916.7
-6916.44
-6916.1
-6915.7
-6915.24
-6914.76
-6914.26
-6913.78
-6913.33
-6912.95
-6912.64
-6912.43
-6912.32
-6912.32
-6912.43
-6912.64
-6912.95
-6913.33
-6913.75
-6914.21
-6914.65
-6915.06
-6915.41
-6915.67
-6915.83
-6915.87
-6915.8
-6915.61
-6915.33
-6914.98
-6914.58
-6914.15
-6913.75
-6913.42
-6913.16
-6913.01
-6912.98
-6913.06
-6913.25
-6913.53
-6913.87
-6914.23
-6914.58
-6914.88
-6915.1
-6915.22
-6915.22
-6915.12
-6914.93
-6914.67
-6914.38
-6914.1
-6913.86
-6913.68
-6913.6
-6913.61
-6913.69
-6913.84
-6914.03
-6914.21
-6914.37
-6914.48
-6914.54
-6914.53
-6914.48
-6914.4
-6914.31
-6914.24
-6914.2
-6914.19
-6914.21
-6914.27
-6914.33
-6914.38
-6914.42
-6914.42
-6914.39
-6914.34
-6914.26
-6914.18
-6914.11
-6914.07
-7347.7
-7347.89
-7348.29
-7348.91
-7349.76
-7350.91
-7352.53
-7354.61
-7357.49
-7359.77
-7361.63
-7363.24
-7364.52
-7365.47
-7366.19
-7366.77
-7367.25
-7367.63
-7367.89
-7368.01
-7367.97
-7367.78
-7367.4
-7366.81
-7365.95
-7364.86
-7363.32
-7360.86
-7359.39
-7358.12
-7357.02
-7356.04
-7355.17
-7354.4
-7353.71
-7353.1
-7352.55
-7352.06
-7351.63
-7351.24
-7350.9
-7350.61
-7350.36
-7350.15
-7349.99
-7349.87
-7349.78
-7349.74
-7349.74
-7349.78
-7349.86
-7349.98
-7350.14
-7350.34
-7350.57
-7350.84
-7351.14
-7351.47
-7351.83
-7352.21
-7352.61
-7353.03
-7353.45
-7353.89
-7354.32
-7354.75
-7355.17
-7355.58
-7355.96
-7356.32
-7356.64
-7356.92
-7357.16
-7357.35
-7357.49
-7357.57
-7357.58
-7357.54
-7357.44
-7357.27
-7357.04
-7356.75
-7356.41
-7356.01
-7355.57
-7355.09
-7354.58
-7354.05
-7353.51
-7352.98
-7352.46
-7351.96
-7351.5
-7351.09
-7350.73
-7350.45
-7350.24
-7350.12
-7350.08
-7350.14
-7350.28
-7350.52
-7350.84
-7351.24
-7351.71
-7352.23
-7352.8
-7353.38
-7353.98
-7354.56
-7355.11
-7355.6
-7356.03
-7356.37
-7356.62
-7356.76
-7356.78
-7356.69
-7356.48
-7356.16
-7355.75
-7355.26
-7354.72
-7354.14
-7353.53
-7352.96
-7352.44
-7351.99
-7351.62
-7351.38
-7351.25
-7351.26
-7351.4
-7351.67
-7352.04
-7352.49
-7353.01
-7353.55
-7354.08
-7354.57
-7354.98
-7355.29
-7355.48
-7355.52
-7355.43
-7355.2
-7354.86
-7354.44
-7353.96
-7353.43
-7352.97
-7352.57
-7352.27
-7352.1
-7352.07
-7352.17
-7352.41
-7352.75
-7353.15
-7353.59
-7354
-7354.35
-7354.61
-7354.74
-7354.74
-7354.62
-7354.38
-7354.07
-7353.72
-7353.38
-7353.1
-7352.9
-7352.81
-7352.83
-7352.94
-7353.12
-7353.35
-7353.57
-7353.75
-7353.88
-7353.94
-7353.92
-7353.86
-7353.76
-7353.64
-7353.55
-7353.5
-7353.49
-7353.53
-7353.59
-7353.67
-7353.74
-7353.78
-7353.79
-7353.75
-7353.69
-7353.59
-7353.5
-7353.42
-7353.38
-7730.94
-7731.18
-7731.68
-7732.48
-7733.65
-7735.26
-7737.21
-7739.78
-7743.57
-7746.56
-7749.23
-7751.58
-7753.73
-7755.73
-7757.48
-7758.94
-7760.08
-7760.87
-7761.33
-7761.48
-7761.31
-7760.81
-7759.95
-7758.75
-7757.2
-7755.28
-7753.04
-7749.64
-7748.55
-7746.7
-7745.23
-7744.09
-7743.15
-7742.36
-7741.68
-7741.08
-7740.55
-7740.08
-7739.66
-7739.29
-7738.96
-7738.68
-7738.45
-7738.26
-7738.11
-7738
-7737.94
-7737.92
-7737.95
-7738.02
-7738.14
-7738.31
-7738.51
-7738.76
-7739.05
-7739.38
-7739.75
-7740.15
-7740.58
-7741.04
-7741.52
-7742.02
-7742.53
-7743.05
-7743.56
-7744.08
-7744.57
-7745.05
-7745.51
-7745.93
-7746.31
-7746.64
-7746.93
-7747.15
-7747.31
-7747.4
-7747.43
-7747.38
-7747.25
-7747.06
-7746.78
-7746.44
-7746.04
-7745.57
-7745.05
-7744.49
-7743.89
-7743.27
-7742.64
-7742.01
-7741.4
-7740.82
-7740.28
-7739.8
-7739.39
-7739.06
-7738.82
-7738.68
-7738.64
-7738.71
-7738.89
-7739.17
-7739.56
-7740.03
-7740.58
-7741.2
-7741.86
-7742.55
-7743.24
-7743.92
-7744.56
-7745.14
-7745.64
-7746.04
-7746.32
-7746.47
-7746.49
-7746.37
-7746.12
-7745.75
-7745.26
-7744.69
-7744.04
-7743.36
-7742.66
-7741.99
-7741.38
-7740.85
-7740.44
-7740.15
-7740.02
-7740.04
-7740.21
-7740.53
-7740.97
-7741.51
-7742.12
-7742.75
-7743.38
-7743.95
-7744.43
-7744.78
-7744.99
-7745.04
-7744.92
-7744.65
-7744.25
-7743.75
-7743.19
-7742.56
-7742.03
-7741.57
-7741.22
-7741.02
-7740.99
-7741.12
-7741.4
-7741.81
-7742.29
-7742.79
-7743.28
-7743.69
-7743.98
-7744.13
-7744.12
-7743.97
-7743.68
-7743.32
-7742.91
-7742.52
-7742.19
-7741.96
-7741.86
-7741.89
-7742.03
-7742.25
-7742.52
-7742.77
-7742.99
-7743.13
-7743.19
-7743.17
-7743.08
-7742.96
-7742.82
-7742.72
-7742.66
-7742.65
-7742.69
-7742.77
-7742.86
-7742.94
-7743
-7743.01
-7742.97
-7742.89
-7742.78
-7742.67
-7742.58
-7742.53
-8068.75
-8068.87
-8069.1
-8069.44
-8069.82
-8070.22
-8070.45
-8070.91
-8088.72
-8088.29
-8087.92
-8087.36
-8086.77
-8086.15
-8085.59
-8085.03
-8084.52
-8084.05
-8083.62
-8083.23
-8082.88
-8082.58
-8082.32
-8082.09
-8081.92
-8081.79
-8081.7
-8081.66
-8081.67
-8081.73
-8081.84
-8082
-8082.21
-8082.46
-8082.77
-8083.12
-8083.51
-8083.94
-8084.42
-8084.92
-8085.46
-8086.02
-8086.6
-8087.2
-8087.8
-8088.4
-8088.99
-8089.57
-8090.13
-8090.66
-8091.14
-8091.59
-8091.97
-8092.3
-8092.56
-8092.74
-8092.85
-8092.88
-8092.82
-8092.67
-8092.44
-8092.13
-8091.73
-8091.26
-8090.72
-8090.12
-8089.47
-8088.79
-8088.07
-8087.35
-8086.62
-8085.92
-8085.25
-8084.64
-8084.08
-8083.61
-8083.24
-8082.96
-8082.81
-8082.77
-8082.85
-8083.06
-8083.39
-8083.84
-8084.39
-8085.03
-8085.74
-8086.5
-8087.3
-8088.1
-8088.88
-8089.61
-8090.27
-8090.84
-8091.29
-8091.61
-8091.78
-8091.8
-8091.66
-8091.36
-8090.92
-8090.36
-8089.69
-8088.95
-8088.16
-8087.36
-8086.59
-8085.89
-8085.29
-8084.81
-8084.5
-8084.35
-8084.38
-8084.58
-8084.96
-8085.47
-8086.1
-8086.81
-8087.54
-8088.26
-8088.91
-8089.46
-8089.87
-8090.1
-8090.15
-8090.01
-8089.69
-8089.22
-8088.64
-8087.99
-8087.28
-8086.66
-8086.13
-8085.74
-8085.52
-8085.49
-8085.65
-8085.98
-8086.45
-8087
-8087.59
-8088.14
-8088.61
-8088.94
-8089.1
-8089.09
-8088.9
-8088.57
-8088.14
-8087.67
-8087.23
-8086.86
-8086.6
-8086.49
-8086.53
-8086.7
-8086.96
-8087.27
-8087.57
-8087.81
-8087.97
-8088.03
-8087.99
-8087.89
-8087.74
-8087.58
-8087.46
-8087.39
-8087.39
-8087.44
-8087.53
-8087.64
-8087.73
-8087.79
-8087.8
-8087.76
-8087.67
-8087.55
-8087.43
-8087.33
-8087.27
-8366.89
-8366.92
-8367
-8367.09
-8367.21
-8367.34
-8367.51
-8367.8
-8391.89
-8391.56
-8391.27
-8390.88
-8390.43
-8389.97
-8389.51
-8389.06
-8388.63
-8388.22
-8387.83
-8387.48
-8387.15
-8386.87
-8386.62
-8386.42
-8386.26
-8386.14
-8386.08
-8386.06
-8386.09
-8386.18
-8386.33
-8386.52
-8386.77
-8387.08
-8387.43
-8387.84
-8388.3
-8388.8
-8389.35
-8389.93
-8390.55
-8391.19
-8391.85
-8392.53
-8393.22
-8393.91
-8394.58
-8395.24
-8395.88
-8396.48
-8397.03
-8397.53
-8397.97
-8398.34
-8398.64
-8398.85
-8398.97
-8399
-8398.93
-8398.76
-8398.5
-8398.14
-8397.69
-8397.15
-8396.54
-8395.86
-8395.12
-8394.34
-8393.53
-8392.7
-8391.89
-8391.09
-8390.33
-8389.64
-8389.01
-8388.48
-8388.06
-8387.76
-8387.58
-8387.54
-8387.65
-8387.89
-8388.27
-8388.78
-8389.4
-8390.13
-8390.94
-8391.81
-8392.71
-8393.61
-8394.49
-8395.32
-8396.07
-8396.71
-8397.22
-8397.57
-8397.76
-8397.77
-8397.6
-8397.26
-8396.76
-8396.11
-8395.35
-8394.51
-8393.61
-8392.71
-8391.84
-8391.05
-8390.37
-8389.84
-8389.49
-8389.33
-8389.37
-8389.62
-8390.05
-8390.64
-8391.35
-8392.15
-8392.99
-8393.8
-8394.54
-8395.16
-8395.62
-8395.88
-8395.92
-8395.76
-8395.39
-8394.85
-8394.18
-8393.44
-8392.65
-8391.95
-8391.35
-8390.91
-8390.67
-8390.64
-8390.83
-8391.21
-8391.74
-8392.37
-8393.04
-8393.66
-8394.18
-8394.55
-8394.73
-8394.71
-8394.49
-8394.11
-8393.62
-8393.09
-8392.59
-8392.17
-8391.89
-8391.78
-8391.83
-8392.03
-8392.34
-8392.68
-8393.02
-8393.29
-8393.46
-8393.52
-8393.48
-8393.35
-8393.18
-8392.99
-8392.86
-8392.78
-8392.78
-8392.84
-8392.94
-8393.07
-8393.18
-8393.25
-8393.26
-8393.21
-8393.11
-8392.98
-8392.84
-8392.73
-8392.66
-8631.08
-8631.11
-8631.18
-8631.29
-8631.43
-8631.61
-8631.73
-8631.92
-8660.51
-8660.31
-8660.12
-8659.84
-8659.51
-8659.13
-8658.76
-8658.36
-8657.98
-8657.61
-8657.25
-8656.92
-8656.61
-8656.34
-8656.11
-8655.92
-8655.77
-8655.67
-8655.62
-8655.62
-8655.68
-8655.8
-8655.97
-8656.21
-8656.5
-8656.85
-8657.26
-8657.73
-8658.25
-8658.82
-8659.43
-8660.09
-8660.78
-8661.51
-8662.26
-8663.02
-8663.79
-8664.56
-8665.32
-8666.06
-8666.78
-8667.45
-8668.07
-8668.63
-8669.12
-8669.54
-8669.86
-8670.1
-8670.23
-8670.26
-8670.18
-8669.99
-8669.7
-8669.29
-8668.79
-8668.19
-8667.5
-8666.73
-8665.9
-8665.03
-8664.12
-8663.2
-8662.29
-8661.4
-8660.55
-8659.78
-8659.08
-8658.5
-8658.03
-8657.69
-8657.5
-8657.46
-8657.58
-8657.86
-8658.29
-8658.86
-8659.56
-8660.38
-8661.28
-8662.25
-8663.26
-8664.27
-8665.26
-8666.18
-8667.01
-8667.72
-8668.28
-8668.67
-8668.87
-8668.88
-8668.68
-8668.29
-8667.73
-8667
-8666.15
-8665.2
-8664.2
-8663.19
-8662.23
-8661.35
-8660.6
-8660.01
-8659.62
-8659.45
-8659.51
-8659.79
-8660.28
-8660.94
-8661.75
-8662.65
-8663.58
-8664.49
-8665.31
-8666
-8666.5
-8666.79
-8666.83
-8666.64
-8666.22
-8665.61
-8664.86
-8664.03
-8663.16
-8662.38
-8661.71
-8661.23
-8660.96
-8660.94
-8661.15
-8661.58
-8662.18
-8662.89
-8663.63
-8664.32
-8664.91
-8665.31
-8665.51
-8665.47
-8665.22
-8664.79
-8664.24
-8663.65
-8663.09
-8662.63
-8662.33
-8662.21
-8662.28
-8662.51
-8662.85
-8663.24
-8663.61
-8663.91
-8664.1
-8664.16
-8664.1
-8663.95
-8663.76
-8663.55
-8663.4
-8663.31
-8663.31
-8663.38
-8663.5
-8663.64
-8663.76
-8663.84
-8663.85
-8663.8
-8663.69
-8663.54
-8663.39
-8663.27
-8663.19
-8865.01
-8865.03
-8865.06
-8865.11
-8865.16
-8865.2
-8865.18
-8865.15
-8898.68
-8898.55
-8898.39
-8898.18
-8897.91
-8897.59
-8897.26
-8896.91
-8896.56
-8896.21
-8895.87
-8895.56
-8895.26
-8895
-8894.78
-8894.59
-8894.45
-8894.36
-8894.33
-8894.35
-8894.43
-8894.57
-8894.78
-8895.04
-8895.38
-8895.77
-8896.24
-8896.76
-8897.34
-8897.97
-8898.66
-8899.39
-8900.16
-8900.96
-8901.79
-8902.64
-8903.49
-8904.34
-8905.19
-8906.01
-8906.79
-8907.53
-8908.22
-8908.84
-8909.38
-8909.84
-8910.2
-8910.46
-8910.6
-8910.63
-8910.55
-8910.34
-8910
-8909.56
-8908.99
-8908.33
-8907.57
-8906.72
-8905.8
-8904.84
-8903.83
-8902.82
-8901.81
-8900.83
-8899.9
-8899.04
-8898.28
-8897.63
-8897.12
-8896.75
-8896.55
-8896.51
-8896.65
-8896.96
-8897.43
-8898.07
-8898.85
-8899.75
-8900.75
-8901.83
-8902.94
-8904.05
-8905.13
-8906.15
-8907.06
-8907.84
-8908.45
-8908.88
-8909.09
-8909.09
-8908.87
-8908.44
-8907.81
-8907
-8906.06
-8905.01
-8903.91
-8902.8
-8901.73
-8900.77
-8899.94
-8899.3
-8898.88
-8898.7
-8898.77
-8899.09
-8899.63
-8900.37
-8901.27
-8902.26
-8903.3
-8904.3
-8905.2
-8905.96
-8906.51
-8906.81
-8906.86
-8906.64
-8906.17
-8905.49
-8904.66
-8903.74
-8902.79
-8901.92
-8901.19
-8900.66
-8900.37
-8900.35
-8900.6
-8901.08
-8901.75
-8902.53
-8903.34
-8904.11
-8904.74
-8905.19
-8905.39
-8905.35
-8905.06
-8904.58
-8903.98
-8903.32
-8902.71
-8902.21
-8901.88
-8901.75
-8901.84
-8902.1
-8902.48
-8902.92
-8903.33
-8903.65
-8903.85
-8903.91
-8903.84
-8903.67
-8903.45
-8903.22
-8903.05
-8902.96
-8902.96
-8903.04
-8903.17
-8903.33
-8903.46
-8903.55
-8903.57
-8903.51
-8903.39
-8903.23
-8903.06
-8902.92
-8902.85
-9072.19
-9072.2
-9072.21
-9072.24
-9072.26
-9072.28
-9072.28
-9072.29
-9109.84
-9109.72
-9109.58
-9109.4
-9109.15
-9108.87
-9108.56
-9108.23
-9107.9
-9107.56
-9107.23
-9106.92
-9106.63
-9106.37
-9106.15
-9105.97
-9105.84
-9105.76
-9105.73
-9105.77
-9105.86
-9106.03
-9106.26
-9106.56
-9106.94
-9107.38
-9107.88
-9108.46
-9109.1
-9109.8
-9110.55
-9111.35
-9112.19
-9113.07
-9113.98
-9114.91
-9115.84
-9116.77
-9117.69
-9118.59
-9119.45
-9120.26
-9121.01
-9121.69
-9122.28
-9122.78
-9123.17
-9123.45
-9123.61
-9123.64
-9123.54
-9123.31
-9122.94
-9122.45
-9121.83
-9121.1
-9120.27
-9119.34
-9118.34
-9117.28
-9116.19
-9115.08
-9113.98
-9112.91
-9111.89
-9110.96
-9110.13
-9109.43
-9108.87
-9108.48
-9108.26
-9108.22
-9108.37
-9108.72
-9109.24
-9109.94
-9110.79
-9111.78
-9112.88
-9114.05
-9115.26
-9116.48
-9117.66
-9118.76
-9119.75
-9120.6
-9121.26
-9121.72
-9121.95
-9121.94
-9121.69
-9121.21
-9120.52
-9119.64
-9118.6
-9117.46
-9116.25
-9115.04
-9113.88
-9112.83
-9111.94
-9111.25
-9110.79
-9110.61
-9110.69
-9111.04
-9111.64
-9112.46
-9113.44
-9114.53
-9115.66
-9116.75
-9117.73
-9118.55
-9119.15
-9119.48
-9119.52
-9119.27
-9118.75
-9118.01
-9117.1
-9116.09
-9115.06
-9114.11
-9113.32
-9112.75
-9112.44
-9112.42
-9112.7
-9113.23
-9113.96
-9114.81
-9115.7
-9116.53
-9117.22
-9117.7
-9117.92
-9117.86
-9117.54
-9117.02
-9116.35
-9115.64
-9114.97
-9114.43
-9114.08
-9113.95
-9114.05
-9114.34
-9114.76
-9115.24
-9115.69
-9116.04
-9116.25
-9116.31
-9116.22
-9116.03
-9115.78
-9115.53
-9115.35
-9115.25
-9115.25
-9115.34
-9115.49
-9115.66
-9115.81
-9115.91
-9115.92
-9115.86
-9115.73
-9115.56
-9115.38
-9115.23
-9115.14
-9255.7
-9255.7
-9255.71
-9255.73
-9255.74
-9255.75
-9255.75
-9255.77
-9296.95
-9296.87
-9296.74
-9296.56
-9296.33
-9296.06
-9295.76
-9295.44
-9295.11
-9294.78
-9294.45
-9294.14
-9293.84
-9293.58
-9293.36
-9293.18
-9293.05
-9292.97
-9292.95
-9293
-9293.12
-9293.3
-9293.56
-9293.89
-9294.3
-9294.78
-9295.33
-9295.96
-9296.65
-9297.41
-9298.23
-9299.1
-9300.01
-9300.96
-9301.95
-9302.95
-9303.96
-9304.97
-9305.97
-9306.93
-9307.86
-9308.74
-9309.55
-9310.28
-9310.92
-9311.46
-9311.88
-9312.18
-9312.35
-9312.38
-9312.27
-9312.02
-9311.62
-9311.09
-9310.42
-9309.63
-9308.72
-9307.72
-9306.63
-9305.49
-9304.3
-9303.1
-9301.91
-9300.76
-9299.67
-9298.66
-9297.77
-9297.01
-9296.41
-9295.99
-9295.75
-9295.72
-9295.89
-9296.26
-9296.84
-9297.59
-9298.52
-9299.59
-9300.78
-9302.04
-9303.35
-9304.66
-9305.94
-9307.13
-9308.2
-9309.1
-9309.81
-9310.3
-9310.54
-9310.53
-9310.26
-9309.73
-9308.98
-9308.02
-9306.9
-9305.66
-9304.36
-9303.05
-9301.81
-9300.67
-9299.71
-9298.97
-9298.49
-9298.29
-9298.39
-9298.78
-9299.43
-9300.32
-9301.38
-9302.56
-9303.78
-9304.96
-9306.02
-9306.9
-9307.54
-9307.89
-9307.93
-9307.65
-9307.09
-9306.28
-9305.29
-9304.2
-9303.09
-9302.07
-9301.22
-9300.6
-9300.28
-9300.27
-9300.57
-9301.15
-9301.94
-9302.86
-9303.83
-9304.72
-9305.46
-9305.97
-9306.2
-9306.13
-9305.78
-9305.21
-9304.49
-9303.72
-9303
-9302.42
-9302.05
-9301.92
-9302.03
-9302.35
-9302.81
-9303.33
-9303.81
-9304.19
-9304.41
-9304.46
-9304.36
-9304.15
-9303.88
-9303.61
-9303.41
-9303.31
-9303.31
-9303.41
-9303.57
-9303.76
-9303.92
-9304.02
-9304.04
-9303.98
-9303.84
-9303.65
-9303.46
-9303.3
-9303.21
-9418.25
-9418.25
-9418.26
-9418.27
-9418.28
-9418.29
-9418.29
-9418.31
-9462.78
-9462.72
-9462.58
-9462.4
-9462.18
-9461.91
-9461.61
-9461.29