/*--------------------------------*- C++ -*----------------------------------*\
  =========                 |
  \\      /  F ield         | OpenFOAM: The Open Source CFD Toolbox
   \\    /   O peration     | Website:  https://openfoam.org
    \\  /    A nd           | Version:  12
     \\/     M anipulation  |
\*---------------------------------------------------------------------------*/
FoamFile
{
    format      ascii;
    class       volScalarField;
    location    "11.98";
    object      p_rgh;
}
// * * * * * * * * * * * * * * * * * * * * * * * * * * * * * * * * * * * * * //

dimensions      [1 -1 -2 0 0 0 0];

internalField   nonuniform List<scalar> 
3829
(
-3.43047
-3.42938
-3.42716
-3.42376
-3.41911
-3.41314
-3.40579
-3.39699
-3.38663
-3.37463
-3.36088
-3.34526
-3.32767
-3.30797
-3.28604
-3.26176
-3.23501
-3.20568
-3.17366
-3.13887
-3.10123
-3.06068
-3.01718
-2.97073
-2.92132
-2.869
-2.81383
-2.75591
-2.69535
-2.63231
-2.56697
-2.49954
-2.43025
-2.35937
-2.28717
-2.21396
-2.14005
-2.06578
-1.99148
-1.9175
-1.84421
-1.77197
-1.70117
-1.63222
-1.56557
-1.50153
-1.44041
-1.38248
-1.32799
-1.27715
-1.23013
-1.18705
-1.14801
-1.11306
-1.08219
-1.0554
-1.0326
-1.01369
-0.998509
-0.986844
-0.978419
-0.972916
-0.969969
-0.969155
-0.970013
-0.972052
-0.974742
-0.977552
-0.979841
-0.981058
-0.980633
-0.978
-0.972613
-0.96396
-0.951577
-0.93506
-0.914091
-0.888467
-0.856853
-0.819945
-0.777922
-0.731003
-0.679476
-0.623707
-0.564164
-0.50143
-0.436222
-0.368519
-0.300982
-0.233758
-0.167926
-0.104625
-0.0450189
0.00975673
0.058596
0.100453
0.134408
0.159667
0.175584
0.180658
0.17518
0.159614
0.134486
0.100445
0.0583179
0.00922452
-0.0454639
-0.104151
-0.165058
-0.226249
-0.285713
-0.34144
-0.391465
-0.43395
-0.46728
-0.490121
-0.501537
-0.500997
-0.487429
-0.461902
-0.425397
-0.379152
-0.32492
-0.264854
-0.201442
-0.137405
-0.0756354
-0.0188378
0.0304053
0.0699043
0.097966
0.113554
0.113153
0.0996814
0.0742886
0.0385465
-0.0052464
-0.0544768
-0.105517
-0.154843
-0.199182
-0.235317
-0.260516
-0.272695
-0.269633
-0.252224
-0.222158
-0.181578
-0.133499
-0.0813599
-0.0296772
0.0175453
0.0565224
0.0840019
0.0977929
0.0969487
0.0812596
0.0529433
0.0148227
-0.0292435
-0.0747291
-0.117099
-0.151656
-0.175115
-0.185189
-0.181124
-0.16338
-0.134579
-0.0982002
-0.0584883
-0.0192475
0.0134207
0.0371974
0.0499356
0.0507344
0.0410853
0.0227883
-0.00112184
-0.026534
-0.0505928
-0.0705597
-0.0846561
-0.0927848
-0.0958851
-0.0952949
-0.0932065
-0.0914187
-0.0910822
-0.0927311
-0.0958877
-0.0993357
-0.101622
-0.100804
-0.0959903
-0.0867204
-0.073656
-0.0584353
-0.0434625
-0.0313787
-0.0245691
-3.53012
-3.52944
-3.52804
-3.52586
-3.52281
-3.51879
-3.51367
-3.50729
-3.49949
-3.49011
-3.47896
-3.46584
-3.45059
-3.43299
-3.41283
-3.38991
-3.36399
-3.33488
-3.30238
-3.26631
-3.22653
-3.18294
-3.13546
-3.08407
-3.02877
-2.96962
-2.90674
-2.84026
-2.77036
-2.69724
-2.62114
-2.54234
-2.46117
-2.37801
-2.29325
-2.20733
-2.12069
-2.03379
-1.94709
-1.86103
-1.77604
-1.6925
-1.61063
-1.53299
-1.45908
-1.38906
-1.32319
-1.2617
-1.20482
-1.15273
-1.10558
-1.0635
-1.02656
-0.994781
-0.968163
-0.94664
-0.930102
-0.918375
-0.911236
-0.90839
-0.909477
-0.914064
-0.921653
-0.931693
-0.943593
-0.956709
-0.970361
-0.983838
-0.996418
-1.00737
-1.01595
-1.02146
-1.02319
-1.02051
-1.01281
-0.999616
-0.980482
-0.955085
-0.922946
-0.884072
-0.838599
-0.786724
-0.728772
-0.665202
-0.596643
-0.523853
-0.447738
-0.369275
-0.289888
-0.210749
-0.133188
-0.0586077
0.0115578
0.0759207
0.13312
0.181914
0.221189
0.249992
0.267555
0.270679
0.261512
0.240395
0.207789
0.164411
0.1113
0.0498577
-0.0182156
-0.0909549
-0.16617
-0.241471
-0.314424
-0.382549
-0.443453
-0.494899
-0.534901
-0.561885
-0.574634
-0.572469
-0.555049
-0.523094
-0.477677
-0.42045
-0.353656
-0.28002
-0.202615
-0.124642
-0.0500574
0.017932
0.0762002
0.122023
0.153257
0.168478
0.166564
0.148377
0.115275
0.06943
0.0138288
-0.0481339
-0.111895
-0.173196
-0.228032
-0.272604
-0.303908
-0.32001
-0.313712
-0.291171
-0.253527
-0.203252
-0.144011
-0.080141
-0.0171549
0.0400467
0.086804
0.119204
0.134604
0.131851
0.111495
0.0757044
0.0281798
-0.0261696
-0.0817363
-0.133453
-0.174755
-0.202258
-0.213247
-0.206844
-0.184393
-0.148647
-0.104063
-0.0558296
-0.00983091
0.0285186
0.055463
0.0686203
0.0677688
0.054407
0.0311552
0.00188357
-0.0283583
-0.0562401
-0.0787566
-0.0928612
-0.0997937
-0.100803
-0.0976885
-0.0934342
-0.0900681
-0.0891325
-0.0911737
-0.0955323
-0.100604
-0.104468
-0.104713
-0.100133
-0.0901278
-0.0754522
-0.0580424
-0.040746
-0.0267188
-0.0187926
-3.68052
-3.68106
-3.68212
-3.68362
-3.68545
-3.68743
-3.68935
-3.69091
-3.69181
-3.69169
-3.69017
-3.68678
-3.68103
-3.6724
-3.66037
-3.64443
-3.62411
-3.59894
-3.56853
-3.53251
-3.4906
-3.44256
-3.38826
-3.32762
-3.26068
-3.18755
-3.10845
-3.02369
-2.93364
-2.83879
-2.73971
-2.63699
-2.53127
-2.42323
-2.31354
-2.20288
-2.09196
-1.98151
-1.87226
-1.76495
-1.66034
-1.55925
-1.46264
-1.36885
-1.28001
-1.19674
-1.1196
-1.04902
-0.985368
-0.928893
-0.879792
-0.838198
-0.80417
-0.777699
-0.758712
-0.747062
-0.742504
-0.744686
-0.753163
-0.767417
-0.786864
-0.810823
-0.838569
-0.869304
-0.902164
-0.936236
-0.970569
-1.00418
-1.03606
-1.06518
-1.09054
-1.11117
-1.12612
-1.13452
-1.13555
-1.12852
-1.11289
-1.08818
-1.05412
-1.01059
-0.957703
-0.895697
-0.825008
-0.746288
-0.660427
-0.568509
-0.471817
-0.371815
-0.2702
-0.168715
-0.0691836
0.0264626
0.116293
0.198421
0.27103
0.332471
0.381314
0.41639
0.436948
0.436438
0.420396
0.388859
0.342216
0.281357
0.207717
0.123201
0.0301271
-0.0688334
-0.170739
-0.272297
-0.370276
-0.461333
-0.542277
-0.610154
-0.662316
-0.696663
-0.711593
-0.706351
-0.681101
-0.636442
-0.573827
-0.495689
-0.405215
-0.306223
-0.203084
-0.0977622
0.000159397
0.0888068
0.163823
0.221514
0.259025
0.274419
0.267896
0.239573
0.191145
0.12583
0.0478569
-0.0379886
-0.125589
-0.20905
-0.282954
-0.342178
-0.382794
-0.402664
-0.393345
-0.362374
-0.310944
-0.242604
-0.162533
-0.0766261
0.00741059
0.0831003
0.144149
0.185406
0.203477
0.197005
0.167313
0.11721
0.0519401
-0.0218047
-0.0965851
-0.164374
-0.218362
-0.253163
-0.265555
-0.254732
-0.222865
-0.173922
-0.11401
-0.0500952
0.00912636
0.0574015
0.0897383
0.103437
0.0988476
0.0781818
0.0454661
0.00625223
-0.0327697
-0.0672707
-0.0939981
-0.10787
-0.112465
-0.109378
-0.101455
-0.093057
-0.0868014
-0.0848597
-0.0877995
-0.0945642
-0.102801
-0.109706
-0.111995
-0.107899
-0.0965607
-0.0789131
-0.0574557
-0.0358823
-0.0182723
-0.00829479
-3.78805
-3.79171
-3.79906
-3.80999
-3.82428
-3.84156
-3.8614
-3.8832
-3.90627
-3.92968
-3.95234
-3.97305
-3.99046
-4.00336
-4.01081
-4.01199
-4.00603
-3.99202
-3.96913
-3.9366
-3.89383
-3.84037
-3.77596
-3.70055
-3.61435
-3.51774
-3.41136
-3.29599
-3.17254
-3.0419
-2.90497
-2.76278
-2.61652
-2.46737
-2.31658
-2.16538
-2.01495
-1.86642
-1.72084
-1.5792
-1.44239
-1.31107
-1.18575
-1.06651
-0.959495
-0.862769
-0.776058
-0.699378
-0.632833
-0.57656
-0.530676
-0.495266
-0.470351
-0.455855
-0.451613
-0.457332
-0.472616
-0.496949
-0.529692
-0.570089
-0.617284
-0.670293
-0.728064
-0.789444
-0.853209
-0.918071
-0.982689
-1.04567
-1.1056
-1.16106
-1.21067
-1.25306
-1.28693
-1.31107
-1.32441
-1.326
-1.315
-1.29066
-1.2532
-1.20226
-1.13788
-1.06038
-0.97043
-0.869018
-0.757434
-0.637215
-0.510186
-0.378407
-0.244144
-0.109972
0.0215863
0.147872
0.266168
0.373827
0.468365
0.547478
0.609176
0.651825
0.674228
0.67068
0.645864
0.599776
0.533024
0.446963
0.343643
0.225751
0.0965357
-0.0402949
-0.180699
-0.320062
-0.453999
-0.577931
-0.687483
-0.778654
-0.84798
-0.89251
-0.910276
-0.900058
-0.862548
-0.79859
-0.710404
-0.601451
-0.476148
-0.339751
-0.198127
-0.0574855
0.0751848
0.193883
0.292936
0.367511
0.413869
0.429593
0.41527
0.371022
0.299513
0.205303
0.0944943
-0.0262743
-0.14837
-0.263752
-0.364798
-0.444322
-0.4965
-0.516919
-0.506886
-0.464463
-0.392989
-0.298193
-0.187673
-0.0698442
0.0446531
0.146849
0.22815
0.281716
0.303122
0.290846
0.246897
0.175631
0.0845051
-0.0172626
-0.119575
-0.210815
-0.282378
-0.327094
-0.340883
-0.323069
-0.277012
-0.208784
-0.126769
-0.0398546
0.0382296
0.100131
0.139508
0.153316
0.142447
0.110668
0.063981
0.01048
-0.0409114
-0.0839275
-0.113138
-0.128997
-0.130185
-0.120857
-0.105775
-0.0912224
-0.0808662
-0.0776653
-0.0821607
-0.0926634
-0.105678
-0.117128
-0.122468
-0.119135
-0.105935
-0.084068
-0.0568674
-0.0292098
-0.00652005
0.00636308
-3.82227
-3.83307
-3.85455
-3.88602
-3.92676
-3.97594
-4.0327
-4.09565
-4.16319
-4.23315
-4.3034
-4.37165
-4.43568
-4.49308
-4.54117
-4.57759
-4.60031
-4.60775
-4.59865
-4.57192
-4.52696
-4.46336
-4.38098
-4.27996
-4.16085
-4.02461
-3.87261
-3.70649
-3.52809
-3.33925
-3.14199
-2.93841
-2.73066
-2.52083
-2.31089
-2.10267
-1.8979
-1.69814
-1.50485
-1.31946
-1.1433
-0.977774
-0.824388
-0.685044
-0.555587
-0.439237
-0.336886
-0.24908
-0.176173
-0.118377
-0.0757755
-0.048334
-0.0358867
-0.0381551
-0.0546861
-0.0848638
-0.127935
-0.183027
-0.249143
-0.325175
-0.409898
-0.501926
-0.599779
-0.701855
-0.806471
-0.911853
-1.01615
-1.11749
-1.21393
-1.30354
-1.38446
-1.45485
-1.51291
-1.55709
-1.58593
-1.59805
-1.59231
-1.56794
-1.52503
-1.46321
-1.38261
-1.28375
-1.16762
-1.03563
-0.889546
-0.731523
-0.564095
-0.390127
-0.212606
-0.0352588
0.138534
0.305101
0.460692
0.601703
0.724697
0.826494
0.904355
0.956112
0.980504
0.972815
0.93662
0.871513
0.778357
0.659175
0.516869
0.355206
0.178672
-0.00767576
-0.198357
-0.386869
-0.567353
-0.733677
-0.880025
-1.00096
-1.09192
-1.1492
-1.17013
-1.15236
-1.09769
-1.00758
-0.885263
-0.735532
-0.564452
-0.379224
-0.187794
0.000739401
0.177892
0.335205
0.464993
0.560826
0.617839
0.633156
0.607465
0.54125
0.438617
0.305974
0.151677
-0.0150263
-0.182271
-0.339262
-0.475618
-0.581666
-0.649511
-0.673522
-0.658043
-0.598353
-0.499414
-0.369273
-0.21848
-0.0584275
0.095706
0.232104
0.339234
0.40809
0.433033
0.412384
0.349043
0.249618
0.124548
-0.0135445
-0.152281
-0.273477
-0.367096
-0.423746
-0.438312
-0.410618
-0.345457
-0.251936
-0.141676
-0.0231149
0.0783258
0.156951
0.204545
0.217514
0.197475
0.150481
0.0851735
0.0130803
-0.0542519
-0.10827
-0.142631
-0.157415
-0.152814
-0.134659
-0.109831
-0.0871006
-0.0715496
-0.0670082
-0.0738816
-0.0895884
-0.1091
-0.126658
-0.136071
-0.133813
-0.11825
-0.0909772
-0.0564127
-0.020972
0.00820925
0.0248133
-3.31149
-3.34207
-3.40765
-3.49318
-3.59252
-3.70655
-3.83443
-3.97413
-4.12309
-4.2767
-4.43183
-4.58474
-4.73258
-4.87718
-5.00398
-5.11547
-5.20851
-5.2797
-5.32564
-5.3429
-5.32833
-5.27922
-5.19373
-5.07151
-4.91382
-4.72319
-4.5033
-4.25828
-3.99298
-3.7125
-3.42187
-3.12548
-2.82713
-2.53013
-2.23739
-1.95149
-1.67469
-1.40896
-1.15594
-0.916985
-0.693058
-0.484819
-0.292185
-0.114799
0.0317699
0.157847
0.264998
0.353201
0.422191
0.471707
0.501629
0.512015
0.503116
0.475378
0.429424
0.366056
0.286279
0.191265
0.0823419
-0.0389905
-0.171065
-0.312033
-0.459926
-0.612598
-0.767807
-0.923211
-1.07636
-1.22478
-1.36589
-1.49714
-1.61606
-1.7203
-1.80755
-1.87566
-1.92275
-1.94713
-1.94721
-1.92166
-1.87083
-1.79443
-1.69272
-1.56649
-1.41712
-1.24652
-1.05708
-0.851686
-0.63376
-0.407155
-0.175813
0.0551651
0.281323
0.497752
0.699451
0.881619
1.03959
1.16901
1.26597
1.32689
1.34844
1.34011
1.29104
1.2024
1.07631
0.915877
0.725183
0.50934
0.274414
0.0271672
-0.225394
-0.474072
-0.711337
-0.929081
-1.11976
-1.27638
-1.39296
-1.46516
-1.48993
-1.46082
-1.38386
-1.26077
-1.09588
-0.895516
-0.667822
-0.422373
-0.169619
0.0778494
0.309129
0.513116
0.679802
0.800865
0.870102
0.883687
0.842742
0.748405
0.606509
0.425745
0.217388
-0.00588362
-0.22875
-0.436866
-0.616346
-0.754652
-0.841857
-0.871374
-0.846067
-0.763055
-0.629014
-0.454659
-0.253792
-0.0411348
0.161505
0.339349
0.47739
0.56406
0.592365
0.560357
0.472329
0.337672
0.170625
-0.0113629
-0.196146
-0.352685
-0.47237
-0.542612
-0.557117
-0.5161
-0.426611
-0.301642
-0.159248
0.00284096
0.129671
0.227738
0.28437
0.295139
0.262802
0.196332
0.107732
0.0128595
-0.0736749
-0.140553
-0.180315
-0.19265
-0.179893
-0.150167
-0.112887
-0.0800203
-0.0583334
-0.0525291
-0.0627568
-0.0852245
-0.112979
-0.138211
-0.152711
-0.151839
-0.133447
-0.0996439
-0.056186
-0.0113723
0.0256252
0.0466929
-3.02901
-3.06837
-3.1372
-3.24043
-3.38548
-3.58851
-3.84331
-4.13998
-4.50667
-4.85631
-5.21834
-5.57234
-5.90732
-6.21263
-6.47949
-6.70032
-6.86946
-6.98267
-7.03717
-7.03146
-6.96549
-6.84029
-6.65814
-6.42114
-6.13182
-5.79541
-5.41988
-5.01318
-4.5892
-4.15771
-3.72411
-3.29376
-2.87134
-2.46071
-2.06493
-1.68641
-1.32716
-0.988712
-0.672495
-0.379746
-0.111905
0.12976
0.343584
0.527802
0.7003
0.847775
0.968061
1.06105
1.12706
1.16652
1.17995
1.16798
1.13134
1.07091
0.987716
0.882954
0.757962
0.614263
0.453601
0.277896
0.0892956
-0.109824
-0.316936
-0.529313
-0.744057
-0.958154
-1.16848
-1.3718
-1.56486
-1.74444
-1.9074
-2.05061
-2.17116
-2.2665
-2.33438
-2.37294
-2.3814
-2.35087
-2.28868
-2.19372
-2.06602
-1.90654
-1.71706
-1.50004
-1.25863
-0.996608
-0.718458
-0.429206
-0.133781
0.16082
0.449022
0.72446
0.9807
1.21154
1.411
1.57354
1.69429
1.76902
1.7944
1.77704
1.70858
1.58991
1.42361
1.21363
0.965284
0.685277
0.381519
0.0629306
-0.263505
-0.582195
-0.885644
-1.16328
-1.40519
-1.60252
-1.74775
-1.83535
-1.86303
-1.82008
-1.71664
-1.55437
-1.33884
-1.07843
-0.7838
-0.467282
-0.142212
0.174321
0.468718
0.726817
0.935875
1.08542
1.16775
1.17852
1.11814
0.989503
0.800409
0.562324
0.289934
-0.000661137
-0.288763
-0.556582
-0.786224
-0.961839
-1.07103
-1.10597
-1.06776
-0.956001
-0.779638
-0.552536
-0.292114
-0.0172829
0.242392
0.468209
0.64159
0.748085
0.779271
0.732724
0.614722
0.437884
0.220693
-0.0146862
-0.248547
-0.447666
-0.597398
-0.682567
-0.695793
-0.637875
-0.518616
-0.354867
-0.167439
0.0277643
0.19083
0.311887
0.378093
0.385003
0.337129
0.246926
0.130495
0.00893581
-0.0996741
-0.180777
-0.225732
-0.234092
-0.210798
-0.166789
-0.114317
-0.069552
-0.0409732
-0.0341422
-0.0487798
-0.0795746
-0.117291
-0.151682
-0.172233
-0.173021
-0.15136
-0.109984
-0.0562395
-0.000602037
0.0453925
0.0716042
-0.846573
-0.924707
-1.09049
-1.35981
-1.73444
-2.19786
-2.71123
-3.26587
-3.85753
-4.45151
-5.03044
-5.58104
-6.09468
-6.56161
-6.97767
-7.33878
-7.64121
-7.87918
-8.04728
-8.13881
-8.14887
-8.07138
-7.90495
-7.6443
-7.29387
-6.85054
-6.32889
-5.73852
-5.12897
-4.51306
-3.90909
-3.32172
-2.75673
-2.21725
-1.70654
-1.22714
-0.780951
-0.369169
0.00784993
0.350253
0.658553
0.932865
1.17431
1.38416
1.56495
1.70711
1.81781
1.89752
1.94623
1.96401
1.95121
1.90832
1.83607
1.73542
1.60754
1.45382
1.27591
1.07572
0.855366
0.61725
0.364001
0.0985656
-0.175913
-0.456058
-0.738221
-1.01867
-1.29352
-1.55878
-1.81033
-2.04407
-2.25608
-2.44254
-2.59977
-2.72443
-2.81359
-2.86473
-2.87583
-2.84419
-2.77073
-2.65489
-2.49721
-2.29919
-2.06321
-1.79251
-1.49113
-1.16388
-0.816491
-0.455312
-0.0866639
0.28076
0.639833
0.982558
1.30089
1.58707
1.83366
2.03381
2.18156
2.27201
2.30168
2.27304
2.18123
2.02729
1.81429
1.5472
1.23268
0.879201
0.496701
0.096378
-0.311895
-0.710401
-1.08869
-1.43366
-1.73302
-1.97549
-2.15147
-2.25302
-2.27332
-2.22304
-2.09085
-1.88364
-1.60988
-1.28071
-0.909791
-0.512563
-0.104679
0.28994
0.655299
0.973936
1.23012
1.41085
1.50665
1.51269
1.4291
1.26044
1.01675
0.712742
0.367098
-3.99585e-05
-0.362235
-0.697481
-0.983437
-1.20041
-1.33335
-1.37301
-1.31906
-1.17365
-0.948424
-0.661062
-0.333479
0.014789
0.338134
0.617341
0.829706
0.957543
0.990654
0.926602
0.773702
0.54819
0.273625
-0.0224153
-0.310929
-0.557819
-0.740757
-0.841636
-0.851719
-0.77385
-0.619913
-0.411715
-0.175357
0.0616998
0.262848
0.40875
0.484452
0.485636
0.418942
0.300913
0.152527
0.000763198
-0.132306
-0.228565
-0.278146
-0.280936
-0.244792
-0.184005
-0.113625
-0.0555073
-0.0195074
-0.0120002
-0.0321168
-0.0727406
-0.122018
-0.166917
-0.194372
-0.197053
-0.171706
-0.121835
-0.0565769
0.0111328
0.067142
0.0990733
1.40138
1.2604
0.975501
0.544938
-0.0301841
-0.738958
-1.63299
-2.67634
-3.7814
-4.91414
-6.0576
-7.1564
-8.1885
-9.12179
-9.95648
-10.6321
-11.1505
-11.5143
-11.7239
-11.7791
-11.6795
-11.4249
-11.0173
-10.4599
-9.76276
-8.93976
-8.00521
-6.81848
-5.82064
-4.87847
-3.99517
-3.17218
-2.41428
-1.72291
-1.09495
-0.525799
-0.0106698
0.454592
0.873274
1.2477
1.57957
1.87066
2.12158
2.3328
2.50365
2.64495
2.74832
2.81387
2.84217
2.83387
2.78962
2.71021
2.59656
2.44979
2.27124
2.06253
1.82559
1.56264
1.27623
0.969202
0.644724
0.306352
-0.0421308
-0.39658
-0.752642
-1.10575
-1.45116
-1.784
-2.09927
-2.392
-2.65739
-2.89073
-3.08752
-3.24365
-3.35519
-3.41876
-3.43085
-3.39802
-3.31124
-3.17128
-2.97947
-2.73788
-2.44959
-2.11868
-1.75022
-1.35018
-0.925653
-0.484492
-0.0346364
0.41352
0.851057
1.26815
1.65498
2.00206
2.30037
2.54162
2.71868
2.82569
2.85856
2.81764
2.69963
2.50607
2.24087
1.9101
1.52202
1.08711
0.617494
0.126794
-0.370717
-0.857203
-1.31773
-1.73641
-2.09833
-2.38992
-2.59968
-2.7187
-2.74117
-2.66981
-2.50174
-2.24314
-1.90408
-1.49839
-1.04313
-0.557402
-0.0562353
0.423359
0.866051
1.25053
1.55759
1.77151
1.88101
1.88049
1.77003
1.55611
1.25129
0.873839
0.446853
-0.00453246
-0.448388
-0.857532
-1.20478
-1.46641
-1.62437
-1.66783
-1.59528
-1.41167
-1.13178
-0.778012
-0.376974
0.0555264
0.447513
0.78436
1.03871
1.18896
1.2225
1.13858
0.946333
0.666467
0.328347
-0.0341767
-0.383405
-0.681782
-0.900244
-1.01729
-1.02321
-0.921643
-0.728575
-0.471017
-0.181395
0.103403
0.344956
0.516946
0.601747
0.59524
0.506587
0.357027
0.173055
-0.011884
-0.171279
-0.283209
-0.336614
-0.332215
-0.281083
-0.201438
-0.110428
-0.0379623
0.0057735
0.0135494
-0.0130842
-0.0648998
-0.12713
-0.18369
-0.218766
-0.22351
-0.194107
-0.134961
-0.0571846
0.0236121
0.0904634
0.128573
5.83759
5.64317
5.24598
4.62955
3.77653
2.62483
1.00431
-1.07531
-3.95373
-6.23108
-8.09695
-9.70158
-10.9807
-11.9373
-12.6517
-13.232
-13.7103
-14.0913
-14.3531
-14.4719
-14.4364
-14.2404
-13.8673
-13.2693
-12.4173
-11.3215
-9.78532
-7.32506
-5.85427
-4.58474
-3.48429
-2.50082
-1.63327
-0.863624
-0.17656
0.437292
0.985838
1.47524
1.91019
2.2949
2.63261
2.92557
3.17516
3.38318
3.55138
3.67175
3.75281
3.79387
3.79443
3.75437
3.67392
3.55363
3.39436
3.19724
2.96372
2.69559
2.39507
2.06469
1.70741
1.32655
0.925839
0.509462
0.0818878
-0.351955
-0.78692
-1.21756
-1.63822
-2.0431
-2.42624
-2.78172
-3.10381
-3.38689
-3.62559
-3.8151
-3.95098
-4.02936
-4.04752
-4.00632
-3.90178
-3.73389
-3.50391
-3.21426
-2.86867
-2.47208
-2.03061
-1.55153
-1.04337
-0.515604
0.0218828
0.5572
1.07932
1.57643
2.03683
2.44921
2.80279
3.08778
3.29573
3.41981
3.45531
3.40053
3.25375
3.01702
2.69506
2.29534
1.82778
1.30492
0.741494
0.15386
-0.440125
-1.02056
-1.56887
-2.06613
-2.49458
-2.83818
-3.08343
-3.22018
-3.24221
-3.14874
-2.94088
-2.62578
-2.21558
-1.72696
-1.18088
-0.602602
0.0043199
0.572051
1.09706
1.5516
1.91241
2.16088
2.28384
2.27491
2.13456
1.8709
1.49947
1.04249
0.527925
-0.0149561
-0.545983
-1.03398
-1.44631
-1.75488
-1.93848
-1.98462
-1.89109
-1.66532
-1.32568
-0.900452
-0.42594
0.108763
0.568439
0.966059
1.26479
1.43823
1.47166
1.36487
1.1293
0.790343
0.38362
-0.0501229
-0.464668
-0.817443
-1.07301
-1.20624
-1.20637
-1.07839
-0.842429
-0.531469
-0.18474
0.151808
0.435762
0.634558
0.727826
0.711749
0.598335
0.41409
0.191516
-0.0289157
-0.215952
-0.343709
-0.400011
-0.386843
-0.318845
-0.218892
-0.104442
-0.0172314
0.034373
0.0419744
0.0079037
-0.0562672
-0.132591
-0.201723
-0.244981
-0.251891
-0.218125
-0.149091
-0.0580316
0.0366141
0.11492
0.159548
11.7805
11.541
11.0449
10.2464
9.07444
7.46647
5.51304
2.94055
-0.846712
-3.83561
-6.50707
-8.85333
-11.0087
-13.0017
-14.7536
-16.2186
-17.3543
-18.1457
-18.6086
-18.7577
-18.5887
-18.0821
-17.229
-16.0276
-14.4786
-12.5536
-10.3167
-6.91623
-5.8236
-3.97766
-2.50932
-1.36858
-0.428449
0.359354
1.04199
1.64037
2.17103
2.64294
3.06289
3.43446
3.75988
4.04031
4.27656
4.46793
4.61339
4.72204
4.78491
4.80206
4.77369
4.69996
4.58115
4.41772
4.21048
3.96057
3.66953
3.33931
2.97237
2.57159
2.14034
1.68243
1.20216
0.704378
0.194261
-0.322439
-0.839735
-1.35126
-1.85041
-2.33041
-2.78429
-3.20508
-3.58612
-3.92085
-4.203
-4.42691
-4.58759
-4.6807
-4.70315
-4.65341
-4.52939
-4.33111
-4.05998
-3.71881
-3.31205
-2.84554
-2.32655
-1.76366
-1.16697
-0.547728
0.0823522
0.709554
1.32071
1.90199
2.43963
2.92039
3.33171
3.66219
3.90202
4.04328
4.08042
4.01067
3.83319
3.55054
3.1684
2.69561
2.14408
1.52856
0.866428
0.176964
-0.51854
-1.19739
-1.83749
-2.4167
-2.91431
-3.31169
-3.59327
-3.7474
-3.76695
-3.6501
-3.39967
-3.02433
-2.53844
-1.96169
-1.31851
-0.636607
0.0650965
0.731528
1.34371
1.87136
2.28779
2.57157
2.70756
2.68862
2.5157
2.19883
1.75655
1.21532
0.608215
-0.0304291
-0.653091
-1.22349
-1.70348
-2.06042
-2.26982
-2.31745
-2.20083
-1.92965
-1.52607
-1.0242
-0.469656
0.163886
0.696816
1.15874
1.50364
1.70066
1.73328
1.60118
1.31917
0.917467
0.438356
-0.0700955
-0.553106
-0.962249
-1.25579
-1.40494
-1.39783
-1.24112
-0.959281
-0.591847
-0.185181
0.205818
0.533526
0.759393
0.860297
0.832991
0.692471
0.470973
0.207634
-0.0499803
-0.265437
-0.408872
-0.467102
-0.443707
-0.35722
-0.236391
-0.0954224
0.00616196
0.0656617
0.0726612
0.0303756
-0.0470789
-0.138355
-0.220705
-0.272534
-0.281656
-0.243285
-0.16393
-0.0590733
0.0499225
0.140074
0.191434
18.7384
18.62
18.389
18.0556
17.6696
17.2679
17.0372
16.5826
-1.22386
-0.793799
-0.431555
0.126826
0.725143
1.33798
1.90422
2.45739
2.96842
3.44069
3.87107
4.26006
4.60742
4.91313
5.17648
5.3967
5.57269
5.7036
5.78936
5.82793
5.81825
5.75948
5.65117
5.4932
5.28583
5.02974
4.72604
4.37635
3.98278
3.54804
3.07535
2.5685
2.03182
1.47018
0.889117
0.294529
-0.306987
-0.908563
-1.50289
-2.08239
-2.63926
-3.16547
-3.65303
-4.09425
-4.48161
-4.80787
-5.06663
-5.25214
-5.35948
-5.38491
-5.32614
-5.18152
-4.95119
-4.63683
-4.24176
-3.77116
-3.23182
-2.63222
-1.98237
-1.29392
-0.579921
0.146035
0.868103
1.57111
2.23911
2.85624
3.40725
3.87774
4.25462
4.52671
4.68491
4.72291
4.6373
4.42767
4.09713
3.65246
3.10395
2.46542
1.75411
0.990165
0.195794
-0.604319
-1.38427
-2.11852
-2.7816
-3.34976
-3.80175
-4.11981
-4.29074
-4.30654
-4.16491
-3.86985
-3.43163
-2.86701
-2.19897
-1.45551
-0.668072
0.133947
0.900161
1.6016
2.20395
2.67691
2.99609
3.14449
3.11417
2.9067
2.53401
2.01796
1.38936
0.68651
-0.0505206
-0.767583
-1.42245
-1.97147
-2.37738
-2.61234
-2.66037
-2.51898
-2.19998
-1.72934
-1.14621
-0.498759
0.211037
0.829596
1.35881
1.75091
1.97145
2.0022
1.84319
1.51254
1.04564
0.491759
-0.0936935
-0.64695
-1.11347
-1.44524
-1.60977
-1.5942
-1.40698
-1.07717
-0.651052
-0.18282
0.264246
0.63634
0.889144
0.996727
0.956842
0.787385
0.526816
0.221231
-0.0745532
-0.318703
-0.477406
-0.536613
-0.501728
-0.395347
-0.252949
-0.0843441
0.0315306
0.0989513
0.104953
0.0538347
-0.0375606
-0.14436
-0.240308
-0.300935
-0.312265
-0.269117
-0.17919
-0.0602582
0.0633322
0.165507
0.223698
26.0292
25.9916
25.9204
25.8216
25.708
25.5714
25.4051
25.1193
1.0214
1.35909
1.65012
2.03371
2.48577
2.94533
3.40116
3.85382
4.28749
4.69957
5.08505
5.44065
5.76275
6.04831
6.29465
6.49916
6.65965
6.77399
6.84034
6.8568
6.82152
6.73322
6.59102
6.39448
6.14363
5.83902
5.48175
5.07352
4.6166
4.11396
3.56917
2.98645
2.37065
1.72723
1.06241
0.38284
-0.304037
-0.990459
-1.66816
-2.32855
-2.9628
-3.56181
-4.11652
-4.61821
-5.05834
-5.42876
-5.72221
-5.93221
-6.05315
-6.08083
-6.01242
-5.84635
-5.5829
-5.22407
-4.77371
-4.23776
-3.624
-2.94212
-2.20363
-1.42177
-0.611384
0.21188
1.03026
1.82639
2.58221
3.27969
3.90162
4.4317
4.85515
5.15935
5.3341
5.37233
5.27017
5.02741
4.64788
4.13932
3.51371
2.78677
1.97823
1.11097
0.210251
-0.695656
-1.57773
-2.40691
-3.15437
-3.79336
-4.29991
-4.65408
-4.84113
-4.85211
-4.68466
-4.34366
-3.84111
-3.19621
-2.43517
-1.58998
-0.696414
0.208634
1.07498
1.86619
2.54355
3.07298
3.42717
3.58723
3.54437
3.30106
2.87106
2.2796
1.56207
0.762466
-0.0754251
-0.887263
-1.62718
-2.24551
-2.70022
-2.96018
-3.00761
-2.84027
-2.47195
-1.93251
-1.2665
-0.526461
0.262775
0.965897
1.56302
2.00239
2.24601
2.27398
2.08696
1.70633
1.17283
0.543021
-0.120222
-0.74438
-1.2684
-1.63806
-1.81728
-1.79223
-1.57332
-1.19427
-0.708412
-0.177773
0.325868
0.74229
1.02155
1.13584
1.08132
0.881647
0.580823
0.232366
-0.101994
-0.37465
-0.54801
-0.607307
-0.559931
-0.4325
-0.264722
-0.075171
0.0581847
0.133559
0.138203
0.0778121
-0.0279219
-0.150528
-0.260215
-0.32971
-0.343198
-0.29518
-0.194597
-0.0615445
0.0766553
0.190844
0.25585
32.3995
32.3677
32.3022
32.1938
32.0482
31.8755
31.7475
31.5614
2.96896
3.16709
3.36285
3.63738
3.97168
4.3461
4.72539
5.11625
5.50122
5.87501
6.23054
6.56264
6.8662
7.13672
7.37
7.56223
7.70995
7.81002
7.85961
7.85604
7.79715
7.68112
7.50664
7.27298
6.97996
6.62805
6.21834
5.75261
5.23331
4.66371
4.04772
3.38999
2.6959
1.9715
1.2237
0.459871
-0.311662
-1.08226
-1.84269
-2.58336
-3.29441
-3.96565
-4.58693
-5.14853
-5.64088
-6.05487
-6.38242
-6.61628
-6.75024
-6.77957
-6.701
-6.51298
-6.21592
-5.81214
-5.30604
-4.70432
-4.01575
-3.2513
-2.42387
-1.54843
-0.641611
0.278969
1.19355
2.08262
2.92597
3.70347
4.3959
4.9851
5.45461
5.79038
5.98113
6.01905
5.89984
5.62355
5.19466
4.62196
3.91902
3.10362
2.19787
1.22747
0.220685
-0.79066
-1.77434
-2.69783
-3.52898
-4.23806
-4.79834
-5.18781
-5.39016
-5.39556
-5.20166
-4.81415
-4.24679
-3.52131
-2.66721
-1.72052
-0.721338
0.287301
1.2529
2.13309
2.88463
3.46971
3.85807
4.02889
3.97278
3.69282
3.205
2.53775
1.73106
0.834674
-0.103583
-1.0098
-1.8342
-2.5211
-3.0238
-3.3079
-3.35394
-3.15986
-2.74163
-2.13301
-1.38388
-0.553062
0.318339
1.10395
1.76823
2.25419
2.52011
2.54457
2.32888
1.8978
1.29742
0.591486
-0.148928
-0.843644
-1.42445
-1.83119
-2.02427
-1.98898
-1.73776
-1.30907
-0.763191
-0.170488
0.389463
0.849542
1.15438
1.27364
1.20454
0.974026
0.632481
0.241105
-0.131603
-0.432185
-0.619447
-0.67804
-0.617467
-0.468369
-0.274833
-0.0650857
0.0857121
0.168842
0.17181
0.101877
-0.0183441
-0.156782
-0.280125
-0.35842
-0.373984
-0.321075
-0.209908
-0.0628856
0.0897256
0.215748
0.287464
38.1546
38.1366
38.1031
38.0538
38.0043
37.9658
37.9787
38.0162
4.48028
4.61042
4.77526
4.98769
5.25858
5.5725
5.90351
6.25249
6.60472
6.95334
7.28997
7.60781
7.90048
8.16216
8.38755
8.57179
8.71041
8.79941
8.83513
8.81445
8.7345
8.59301
8.38836
8.11955
7.78624
7.38884
6.92846
6.40699
5.82708
5.19229
4.50689
3.77596
3.00539
2.20182
1.37287
0.526574
-0.327847
-1.18089
-2.02237
-2.84171
-3.628
-4.37001
-5.05651
-5.67673
-6.22011
-6.67659
-7.03726
-7.29418
-7.4405
-7.47099
-7.38193
-7.17181
-6.84116
-6.39263
-5.83118
-5.16424
-4.40157
-3.55539
-2.64006
-1.67219
-0.670202
0.346344
1.35571
2.33625
3.26566
4.12176
4.88337
5.53047
6.04494
6.41139
6.61744
6.65459
6.51814
6.2084
5.73045
5.09427
4.31489
3.41216
2.41058
1.3386
0.227491
-0.887532
-1.97098
-2.98694
-3.90004
-4.67754
-5.29016
-5.71371
-5.93045
-5.92971
-5.70912
-5.27527
-4.64361
-3.83843
-2.8925
-1.84577
-0.742746
0.368084
1.43099
2.39829
3.22229
3.86151
4.2828
4.46355
4.39366
4.077
3.53157
2.78925
1.89436
0.902177
-0.133644
-1.13307
-2.04032
-2.79423
-3.34356
-3.65072
-3.69471
-3.47363
-3.00567
-2.32843
-1.49719
-0.57795
0.37602
1.24174
1.97156
2.5028
2.79006
2.81038
2.56587
2.08459
1.41798
0.637103
-0.179342
-0.943135
-1.57933
-2.02193
-2.22796
-2.18192
-1.8983
-1.42026
-0.815067
-0.16127
0.453886
0.95643
1.28575
1.40921
1.32499
1.06351
0.681338
0.247697
-0.162675
-0.490285
-0.690598
-0.747808
-0.673622
-0.50269
-0.283706
-0.0540085
0.113677
0.204213
0.205235
0.125652
-0.0089746
-0.163044
-0.299772
-0.38668
-0.404216
-0.346456
-0.224912
-0.0642488
0.102407
0.239944
0.318181
43.3038
43.2941
43.2775
43.2528
43.2316
43.2126
43.2133
43.2027
5.65006
5.77075
5.90916
6.09581
6.33637
6.62111
6.92828
7.25642
7.59232
7.92887
8.25718
8.56951
8.85851
9.11738
9.33992
9.52044
9.65371
9.73493
9.75986
9.7248
9.62635
9.46182
9.22928
8.92754
8.55616
8.11548
7.60665
7.03172
6.39355
5.69597
4.94364
4.14207
3.29763
2.41755
1.5101
0.58402
-0.350647
-1.28353
-2.20353
-3.09909
-3.9583
-4.76887
-5.51854
-6.19552
-6.78823
-7.28569
-7.67822
-7.9572
-8.11519
-8.14648
-8.04677
-7.81469
-7.45094
-6.95849
-6.34279
-5.61203
-4.77687
-3.85083
-2.84966
-1.79165
-0.696903
0.413114
1.51471
2.5842
3.59724
4.52963
5.3583
6.06145
6.61936
7.01528
7.23582
7.27184
7.11819
6.77551
6.24945
5.55125
4.69726
3.70934
2.61441
1.44359
0.231125
-0.984627
-2.16489
-3.27048
-4.26287
-5.10648
-5.76949
-6.22565
-6.4558
-6.44854
-6.20144
-5.72203
-5.02742
-4.14442
-3.10889
-1.96466
-0.760839
0.44935
1.60668
2.6583
3.5523
4.24363
4.69637
4.88621
4.80224
4.44938
3.84738
3.03156
2.05059
0.964892
-0.165083
-1.25525
-2.24279
-3.06145
-3.65557
-3.98461
-4.02596
-3.77807
-3.26123
-2.51685
-1.60566
-0.600516
0.434338
1.37741
2.17049
2.74526
3.05271
3.06843
2.79534
2.26481
1.53351
0.679374
-0.210568
-1.04142
-1.73103
-2.20795
-2.426
-2.36892
-2.05331
-1.52688
-0.86363
-0.150643
0.5181
1.0615
1.41406
1.54101
1.44142
1.14931
0.727208
0.252314
-0.194548
-0.548036
-0.760491
-0.815767
-0.727816
-0.535253
-0.291443
-0.0422128
0.141647
0.239153
0.238017
0.148827
6.70757e-05
-0.169234
-0.31893
-0.414165
-0.433552
-0.37104
-0.23944
-0.0656015
0.114588
0.263205
0.347714
47.8865
47.8807
47.8715
47.8567
47.8452
47.8318
47.8301
47.8168
6.63134
6.70889
6.8475
7.02325
7.25007
7.52143
7.81868
8.13909
8.47037
8.80494
9.13351
9.44759
9.73902
10.0002
10.2242
10.4048
10.536
10.6124
10.6292
10.5825
10.468
10.2828
10.0247
9.69235
9.28525
8.80375
8.24901
7.62325
6.92958
6.17213
5.35588
4.48679
3.57171
2.6184
1.63579
0.633275
-0.378297
-1.38774
-2.38305
-3.35172
-4.28087
-5.15723
-5.9675
-6.69889
-7.33884
-7.87545
-8.29834
-8.59825
-8.7672
-8.79905
-8.68858
-8.43498
-8.03903
-7.50397
-6.83575
-6.04319
-5.13795
-4.13474
-3.05067
-1.90571
-0.72155
0.478506
1.66891
2.82394
3.91737
4.92303
5.81606
6.57292
7.17237
7.59635
7.83042
7.86512
7.6945
7.31975
6.7471
5.98889
5.0629
3.9929
2.808
1.54197
0.232001
-1.08055
-2.35376
-3.54534
-4.61367
-5.52054
-6.23155
-6.71867
-6.96125
-6.94724
-6.6741
-6.15047
-5.39494
-4.43671
-3.31475
-2.07658
-0.775975
0.529874
1.77782
2.91025
3.87118
4.61222
5.09475
5.29281
5.19474
4.80656
4.14978
3.26284
2.19879
1.02341
-0.198022
-1.3748
-2.43933
-3.31991
-3.95666
-4.3063
-4.34458
-4.07039
-3.5061
-2.6968
-1.70852