/*--------------------------------*- C++ -*----------------------------------*\
  =========                 |
  \\      /  F ield         | OpenFOAM: The Open Source CFD Toolbox
   \\    /   O peration     | Website:  https://openfoam.org
    \\  /    A nd           | Version:  12
     \\/     M anipulation  |
\*---------------------------------------------------------------------------*/
FoamFile
{
    format      ascii;
    class       volScalarField;
    location    "18";
    object      p;
}
// * * * * * * * * * * * * * * * * * * * * * * * * * * * * * * * * * * * * * //

dimensions      [1 -1 -2 0 0 0 0];

internalField   nonuniform List<scalar> 
3829
(
-618.099
-618.097
-618.095
-618.091
-618.086
-618.079
-618.071
-618.061
-618.049
-618.035
-618.02
-618.002
-617.982
-617.96
-617.935
-617.908
-617.878
-617.845
-617.809
-617.77
-617.728
-617.682
-617.634
-617.582
-617.527
-617.468
-617.406
-617.342
-617.274
-617.203
-617.13
-617.055
-616.977
-616.898
-616.817
-616.735
-616.652
-616.568
-616.484
-616.401
-616.318
-616.236
-616.155
-616.076
-615.999
-615.925
-615.854
-615.786
-615.722
-615.662
-615.607
-615.555
-615.508
-615.466
-615.428
-615.395
-615.367
-615.342
-615.323
-615.307
-615.296
-615.288
-615.283
-615.282
-615.282
-615.285
-615.289
-615.294
-615.3
-615.305
-615.308
-615.31
-615.309
-615.306
-615.299
-615.288
-615.272
-615.252
-615.226
-615.194
-615.155
-615.11
-615.06
-615.005
-614.945
-614.88
-614.812
-614.741
-614.667
-614.593
-614.518
-614.445
-614.374
-614.306
-614.244
-614.188
-614.138
-614.097
-614.066
-614.043
-614.033
-614.033
-614.044
-614.065
-614.096
-614.135
-614.181
-614.232
-614.288
-614.346
-614.404
-614.459
-614.509
-614.552
-614.587
-614.611
-614.623
-614.622
-614.608
-614.579
-614.539
-614.487
-614.425
-614.357
-614.285
-614.212
-614.142
-614.079
-614.025
-613.984
-613.959
-613.951
-613.962
-613.992
-614.04
-614.103
-614.177
-614.26
-614.347
-614.431
-614.508
-614.572
-614.619
-614.647
-614.652
-614.633
-614.592
-614.532
-614.458
-614.376
-614.29
-614.211
-614.145
-614.097
-614.072
-614.072
-614.099
-614.148
-614.215
-614.293
-614.374
-614.448
-614.508
-614.545
-614.557
-614.538
-614.493
-614.429
-614.352
-614.273
-614.204
-614.153
-614.128
-614.133
-614.166
-614.224
-614.296
-614.381
-614.444
-614.484
-614.493
-614.469
-614.413
-614.334
-614.247
-614.165
-614.106
-614.08
-614.091
-614.138
-614.211
-614.293
-614.367
-614.423
-614.437
-614.414
-614.361
-614.293
-614.231
-614.194
-1776.58
-1776.58
-1776.58
-1776.58
-1776.57
-1776.57
-1776.56
-1776.55
-1776.54
-1776.53
-1776.52
-1776.5
-1776.49
-1776.47
-1776.44
-1776.42
-1776.39
-1776.36
-1776.32
-1776.28
-1776.23
-1776.19
-1776.13
-1776.08
-1776.01
-1775.95
-1775.88
-1775.8
-1775.73
-1775.65
-1775.56
-1775.47
-1775.38
-1775.29
-1775.2
-1775.1
-1775
-1774.91
-1774.81
-1774.71
-1774.62
-1774.53
-1774.43
-1774.34
-1774.26
-1774.18
-1774.1
-1774.03
-1773.96
-1773.9
-1773.84
-1773.79
-1773.74
-1773.7
-1773.67
-1773.64
-1773.62
-1773.6
-1773.59
-1773.58
-1773.58
-1773.58
-1773.59
-1773.6
-1773.61
-1773.63
-1773.64
-1773.66
-1773.67
-1773.69
-1773.7
-1773.72
-1773.72
-1773.73
-1773.73
-1773.72
-1773.71
-1773.69
-1773.67
-1773.64
-1773.59
-1773.55
-1773.49
-1773.43
-1773.36
-1773.29
-1773.21
-1773.13
-1773.04
-1772.95
-1772.87
-1772.78
-1772.7
-1772.62
-1772.55
-1772.48
-1772.42
-1772.38
-1772.34
-1772.32
-1772.31
-1772.31
-1772.33
-1772.36
-1772.4
-1772.45
-1772.51
-1772.58
-1772.65
-1772.72
-1772.79
-1772.86
-1772.93
-1772.98
-1773.02
-1773.05
-1773.07
-1773.07
-1773.05
-1773.02
-1772.97
-1772.9
-1772.83
-1772.75
-1772.66
-1772.57
-1772.48
-1772.4
-1772.33
-1772.28
-1772.25
-1772.24
-1772.25
-1772.29
-1772.35
-1772.43
-1772.52
-1772.62
-1772.73
-1772.83
-1772.92
-1773
-1773.06
-1773.09
-1773.09
-1773.07
-1773.02
-1772.94
-1772.85
-1772.75
-1772.64
-1772.55
-1772.47
-1772.41
-1772.38
-1772.38
-1772.42
-1772.48
-1772.56
-1772.66
-1772.76
-1772.85
-1772.92
-1772.97
-1772.98
-1772.96
-1772.9
-1772.82
-1772.72
-1772.63
-1772.54
-1772.48
-1772.45
-1772.46
-1772.5
-1772.57
-1772.66
-1772.77
-1772.85
-1772.9
-1772.91
-1772.88
-1772.81
-1772.72
-1772.61
-1772.51
-1772.44
-1772.41
-1772.42
-1772.48
-1772.57
-1772.67
-1772.76
-1772.83
-1772.84
-1772.81
-1772.74
-1772.66
-1772.58
-1772.53
-2802.92
-2802.92
-2802.92
-2802.92
-2802.92
-2802.93
-2802.93
-2802.93
-2802.93
-2802.92
-2802.92
-2802.91
-2802.91
-2802.89
-2802.88
-2802.86
-2802.84
-2802.81
-2802.77
-2802.73
-2802.68
-2802.63
-2802.57
-2802.5
-2802.43
-2802.35
-2802.26
-2802.17
-2802.07
-2801.96
-2801.86
-2801.74
-2801.63
-2801.51
-2801.39
-2801.26
-2801.14
-2801.02
-2800.9
-2800.78
-2800.66
-2800.54
-2800.43
-2800.33
-2800.23
-2800.13
-2800.04
-2799.96
-2799.88
-2799.81
-2799.75
-2799.7
-2799.66
-2799.62
-2799.59
-2799.57
-2799.56
-2799.56
-2799.56
-2799.57
-2799.59
-2799.61
-2799.64
-2799.67
-2799.7
-2799.74
-2799.78
-2799.82
-2799.85
-2799.89
-2799.93
-2799.96
-2799.98
-2800
-2800.01
-2800.01
-2800.01
-2800
-2799.97
-2799.94
-2799.89
-2799.84
-2799.77
-2799.7
-2799.62
-2799.52
-2799.42
-2799.32
-2799.21
-2799.1
-2798.99
-2798.88
-2798.77
-2798.67
-2798.58
-2798.5
-2798.43
-2798.37
-2798.33
-2798.31
-2798.3
-2798.31
-2798.34
-2798.38
-2798.44
-2798.51
-2798.6
-2798.69
-2798.79
-2798.89
-2798.99
-2799.09
-2799.18
-2799.25
-2799.31
-2799.36
-2799.38
-2799.38
-2799.35
-2799.31
-2799.24
-2799.15
-2799.05
-2798.94
-2798.82
-2798.7
-2798.58
-2798.47
-2798.38
-2798.31
-2798.27
-2798.25
-2798.27
-2798.32
-2798.4
-2798.5
-2798.63
-2798.76
-2798.91
-2799.04
-2799.17
-2799.27
-2799.34
-2799.38
-2799.39
-2799.35
-2799.28
-2799.18
-2799.06
-2798.92
-2798.77
-2798.64
-2798.53
-2798.46
-2798.42
-2798.43
-2798.48
-2798.56
-2798.68
-2798.81
-2798.95
-2799.07
-2799.17
-2799.23
-2799.24
-2799.21
-2799.13
-2799.02
-2798.89
-2798.76
-2798.64
-2798.56
-2798.52
-2798.53
-2798.59
-2798.69
-2798.81
-2798.96
-2799.07
-2799.14
-2799.15
-2799.11
-2799.02
-2798.9
-2798.75
-2798.62
-2798.53
-2798.49
-2798.51
-2798.59
-2798.71
-2798.85
-2798.97
-2799.05
-2799.07
-2799.02
-2798.93
-2798.81
-2798.7
-2798.63
-3712.1
-3712.11
-3712.11
-3712.12
-3712.13
-3712.15
-3712.17
-3712.19
-3712.21
-3712.23
-3712.25
-3712.26
-3712.28
-3712.29
-3712.29
-3712.29
-3712.28
-3712.26
-3712.24
-3712.2
-3712.15
-3712.09
-3712.02
-3711.94
-3711.85
-3711.74
-3711.63
-3711.5
-3711.37
-3711.23
-3711.08
-3710.93
-3710.77
-3710.6
-3710.44
-3710.28
-3710.11
-3709.95
-3709.79
-3709.63
-3709.48
-3709.33
-3709.19
-3709.06
-3708.93
-3708.82
-3708.71
-3708.62
-3708.54
-3708.47
-3708.41
-3708.36
-3708.32
-3708.3
-3708.28
-3708.28
-3708.29
-3708.3
-3708.33
-3708.37
-3708.41
-3708.46
-3708.52
-3708.58
-3708.65
-3708.72
-3708.79
-3708.86
-3708.93
-3709
-3709.06
-3709.12
-3709.17
-3709.21
-3709.24
-3709.25
-3709.26
-3709.25
-3709.23
-3709.19
-3709.14
-3709.08
-3708.99
-3708.9
-3708.79
-3708.67
-3708.55
-3708.41
-3708.27
-3708.12
-3707.98
-3707.83
-3707.69
-3707.56
-3707.44
-3707.33
-3707.24
-3707.17
-3707.12
-3707.09
-3707.09
-3707.11
-3707.15
-3707.22
-3707.3
-3707.41
-3707.53
-3707.66
-3707.8
-3707.95
-3708.09
-3708.23
-3708.35
-3708.46
-3708.54
-3708.6
-3708.63
-3708.63
-3708.6
-3708.53
-3708.44
-3708.32
-3708.18
-3708.02
-3707.86
-3707.69
-3707.53
-3707.38
-3707.26
-3707.16
-3707.1
-3707.07
-3707.1
-3707.17
-3707.28
-3707.42
-3707.59
-3707.78
-3707.97
-3708.16
-3708.33
-3708.47
-3708.56
-3708.62
-3708.62
-3708.57
-3708.47
-3708.33
-3708.15
-3707.96
-3707.76
-3707.59
-3707.44
-3707.34
-3707.29
-3707.3
-3707.37
-3707.49
-3707.65
-3707.83
-3708.03
-3708.2
-3708.33
-3708.41
-3708.43
-3708.38
-3708.27
-3708.12
-3707.93
-3707.75
-3707.59
-3707.48
-3707.43
-3707.44
-3707.53
-3707.67
-3707.84
-3708.05
-3708.19
-3708.29
-3708.32
-3708.26
-3708.14
-3707.97
-3707.77
-3707.59
-3707.46
-3707.41
-3707.44
-3707.56
-3707.72
-3707.91
-3708.08
-3708.19
-3708.21
-3708.14
-3708
-3707.83
-3707.68
-3707.59
-4517.44
-4517.45
-4517.47
-4517.5
-4517.53
-4517.58
-4517.63
-4517.7
-4517.76
-4517.83
-4517.9
-4517.97
-4518.04
-4518.1
-4518.15
-4518.19
-4518.22
-4518.23
-4518.22
-4518.19
-4518.13
-4518.06
-4517.97
-4517.85
-4517.72
-4517.57
-4517.41
-4517.23
-4517.04
-4516.84
-4516.63
-4516.41
-4516.19
-4515.97
-4515.74
-4515.52
-4515.29
-4515.08
-4514.86
-4514.66
-4514.47
-4514.28
-4514.11
-4513.95
-4513.8
-4513.67
-4513.54
-4513.44
-4513.34
-4513.27
-4513.21
-4513.16
-4513.13
-4513.12
-4513.12
-4513.14
-4513.18
-4513.22
-4513.28
-4513.35
-4513.43
-4513.53
-4513.63
-4513.73
-4513.84
-4513.95
-4514.07
-4514.18
-4514.29
-4514.4
-4514.5
-4514.59
-4514.67
-4514.73
-4514.79
-4514.82
-4514.84
-4514.84
-4514.81
-4514.77
-4514.71
-4514.63
-4514.53
-4514.41
-4514.27
-4514.12
-4513.95
-4513.77
-4513.58
-4513.39
-4513.2
-4513.01
-4512.82
-4512.65
-4512.5
-4512.36
-4512.24
-4512.15
-4512.09
-4512.06
-4512.06
-4512.09
-4512.15
-4512.24
-4512.37
-4512.51
-4512.68
-4512.87
-4513.06
-4513.26
-4513.46
-4513.65
-4513.82
-4513.96
-4514.08
-4514.16
-4514.2
-4514.2
-4514.16
-4514.07
-4513.94
-4513.78
-4513.59
-4513.37
-4513.15
-4512.92
-4512.7
-4512.5
-4512.33
-4512.2
-4512.12
-4512.09
-4512.13
-4512.22
-4512.37
-4512.56
-4512.78
-4513.03
-4513.31
-4513.56
-4513.78
-4513.96
-4514.09
-4514.16
-4514.16
-4514.08
-4513.95
-4513.75
-4513.52
-4513.26
-4512.99
-4512.75
-4512.55
-4512.42
-4512.35
-4512.37
-4512.47
-4512.64
-4512.86
-4513.1
-4513.39
-4513.61
-4513.79
-4513.89
-4513.91
-4513.84
-4513.69
-4513.48
-4513.23
-4512.98
-4512.76
-4512.61
-4512.54
-4512.57
-4512.69
-4512.88
-4513.12
-4513.39
-4513.6
-4513.73
-4513.76
-4513.69
-4513.53
-4513.29
-4513.03
-4512.78
-4512.61
-4512.54
-4512.59
-4512.75
-4512.98
-4513.24
-4513.46
-4513.6
-4513.62
-4513.52
-4513.33
-4513.09
-4512.88
-4512.76
-5230.49
-5230.51
-5230.56
-5230.61
-5230.69
-5230.79
-5230.89
-5231.01
-5231.14
-5231.27
-5231.4
-5231.52
-5231.64
-5231.74
-5231.84
-5231.91
-5231.98
-5232.02
-5232.05
-5232.07
-5232.07
-5232.05
-5232.01
-5231.92
-5231.8
-5231.63
-5231.43
-5231.19
-5230.92
-5230.63
-5230.32
-5230.01
-5229.7
-5229.38
-5229.07
-5228.76
-5228.46
-5228.18
-5227.9
-5227.64
-5227.39
-5227.16
-5226.95
-5226.76
-5226.58
-5226.42
-5226.28
-5226.17
-5226.08
-5226.01
-5225.96
-5225.93
-5225.92
-5225.93
-5225.96
-5226.01
-5226.08
-5226.16
-5226.26
-5226.38
-5226.51
-5226.65
-5226.8
-5226.95
-5227.12
-5227.29
-5227.45
-5227.62
-5227.78
-5227.93
-5228.08
-5228.21
-5228.32
-5228.42
-5228.5
-5228.55
-5228.59
-5228.59
-5228.57
-5228.52
-5228.45
-5228.35
-5228.22
-5228.06
-5227.88
-5227.69
-5227.47
-5227.24
-5226.99
-5226.74
-5226.49
-5226.25
-5226.01
-5225.79
-5225.59
-5225.41
-5225.26
-5225.15
-5225.07
-5225.03
-5225.04
-5225.09
-5225.18
-5225.3
-5225.47
-5225.67
-5225.9
-5226.15
-5226.41
-5226.68
-5226.94
-5227.19
-5227.42
-5227.61
-5227.77
-5227.87
-5227.93
-5227.93
-5227.87
-5227.75
-5227.58
-5227.37
-5227.11
-5226.83
-5226.53
-5226.22
-5225.93
-5225.67
-5225.45
-5225.28
-5225.18
-5225.15
-5225.19
-5225.31
-5225.5
-5225.75
-5226.04
-5226.36
-5226.74
-5227.07
-5227.36
-5227.6
-5227.77
-5227.85
-5227.84
-5227.75
-5227.56
-5227.3
-5226.98
-5226.64
-5226.29
-5225.97
-5225.71
-5225.53
-5225.45
-5225.48
-5225.62
-5225.84
-5226.14
-5226.48
-5226.84
-5227.14
-5227.37
-5227.51
-5227.53
-5227.43
-5227.23
-5226.94
-5226.61
-5226.28
-5225.99
-5225.79
-5225.7
-5225.75
-5225.91
-5226.17
-5226.49
-5226.85
-5227.12
-5227.3
-5227.34
-5227.25
-5227.03
-5226.72
-5226.39
-5226.03
-5225.82
-5225.73
-5225.8
-5226.01
-5226.32
-5226.66
-5226.96
-5227.14
-5227.16
-5227.02
-5226.76
-5226.44
-5226.16
-5225.99
-5861.81
-5861.86
-5861.96
-5862.1
-5862.29
-5862.52
-5862.79
-5863.1
-5863.42
-5863.76
-5864.11
-5864.45
-5864.78
-5865.1
-5865.39
-5865.65
-5865.87
-5866.05
-5866.18
-5866.26
-5866.29
-5866.2
-5865.99
-5865.69
-5865.34
-5864.94
-5864.51
-5864.05
-5863.59
-5863.12
-5862.66
-5862.2
-5861.75
-5861.31
-5860.89
-5860.48
-5860.09
-5859.73
-5859.38
-5859.06
-5858.76
-5858.49
-5858.24
-5858.02
-5857.82
-5857.66
-5857.51
-5857.39
-5857.3
-5857.23
-5857.19
-5857.18
-5857.19
-5857.23
-5857.29
-5857.38
-5857.49
-5857.62
-5857.77
-5857.94
-5858.13
-5858.33
-5858.54
-5858.76
-5858.98
-5859.21
-5859.44
-5859.67
-5859.88
-5860.09
-5860.29
-5860.47
-5860.62
-5860.76
-5860.87
-5860.95
-5860.99
-5861.01
-5860.99
-5860.93
-5860.84
-5860.71
-5860.55
-5860.35
-5860.13
-5859.87
-5859.6
-5859.3
-5859
-5858.68
-5858.36
-5858.05
-5857.75
-5857.47
-5857.21
-5856.99
-5856.8
-5856.66
-5856.57
-5856.53
-5856.54
-5856.6
-5856.72
-5856.89
-5857.12
-5857.38
-5857.68
-5858
-5858.34
-5858.69
-5859.03
-5859.35
-5859.65
-5859.9
-5860.1
-5860.23
-5860.3
-5860.3
-5860.22
-5860.07
-5859.85
-5859.57
-5859.24
-5858.87
-5858.49
-5858.09
-5857.72
-5857.38
-5857.1
-5856.89
-5856.76
-5856.73
-5856.78
-5856.93
-5857.17
-5857.49
-5857.87
-5858.28
-5858.77
-5859.18
-5859.55
-5859.86
-5860.07
-5860.18
-5860.17
-5860.04
-5859.79
-5859.45
-5859.05
-5858.6
-5858.15
-5857.74
-5857.41
-5857.18
-5857.09
-5857.13
-5857.31
-5857.6
-5857.99
-5858.43
-5858.88
-5859.28
-5859.58
-5859.75
-5859.77
-5859.65
-5859.38
-5859.01
-5858.58
-5858.14
-5857.77
-5857.52
-5857.41
-5857.47
-5857.69
-5858.03
-5858.44
-5858.9
-5859.25
-5859.48
-5859.53
-5859.41
-5859.13
-5858.73
-5858.3
-5857.85
-5857.58
-5857.48
-5857.57
-5857.84
-5858.24
-5858.67
-5859.06
-5859.29
-5859.31
-5859.13
-5858.78
-5858.37
-5858
-5857.78
-6419.91
-6420
-6420.18
-6420.47
-6420.83
-6421.25
-6421.76
-6422.31
-6422.91
-6423.54
-6424.16
-6424.76
-6425.33
-6425.84
-6426.3
-6426.68
-6426.98
-6427.19
-6427.3
-6427.28
-6427.12
-6426.87
-6426.66
-6426.41
-6426.1
-6425.68
-6425.17
-6424.59
-6423.97
-6423.34
-6422.71
-6422.1
-6421.5
-6420.93
-6420.39
-6419.87
-6419.4
-6418.95
-6418.54
-6418.16
-6417.82
-6417.51
-6417.24
-6416.99
-6416.78
-6416.6
-6416.45
-6416.34
-6416.26
-6416.21
-6416.19
-6416.21
-6416.25
-6416.33
-6416.43
-6416.56
-6416.72
-6416.91
-6417.12
-6417.35
-6417.6
-6417.86
-6418.14
-6418.43
-6418.73
-6419.03
-6419.32
-6419.62
-6419.9
-6420.17
-6420.43
-6420.66
-6420.86
-6421.04
-6421.18
-6421.28
-6421.34
-6421.37
-6421.34
-6421.28
-6421.16
-6421.01
-6420.81
-6420.57
-6420.29
-6419.97
-6419.63
-6419.26
-6418.88
-6418.48
-6418.09
-6417.7
-6417.33
-6416.98
-6416.66
-6416.38
-6416.16
-6415.98
-6415.87
-6415.82
-6415.84
-6415.93
-6416.09
-6416.31
-6416.59
-6416.93
-6417.3
-6417.71
-6418.15
-6418.58
-6419.01
-6419.42
-6419.79
-6420.1
-6420.35
-6420.52
-6420.61
-6420.6
-6420.5
-6420.31
-6420.04
-6419.68
-6419.26
-6418.8
-6418.31
-6417.82
-6417.36
-6416.93
-6416.58
-6416.31
-6416.15
-6416.11
-6416.18
-6416.37
-6416.67
-6417.08
-6417.55
-6418.08
-6418.67
-6419.19
-6419.65
-6420.03
-6420.3
-6420.43
-6420.41
-6420.24
-6419.93
-6419.51
-6418.99
-6418.43
-6417.87
-6417.36
-6416.94
-6416.66
-6416.54
-6416.6
-6416.83
-6417.21
-6417.7
-6418.25
-6418.82
-6419.32
-6419.69
-6419.91
-6419.93
-6419.77
-6419.42
-6418.95
-6418.41
-6417.86
-6417.4
-6417.08
-6416.95
-6417.03
-6417.31
-6417.74
-6418.26
-6418.83
-6419.28
-6419.56
-6419.63
-6419.48
-6419.12
-6418.62
-6418.07
-6417.53
-6417.19
-6417.06
-6417.18
-6417.53
-6418.02
-6418.56
-6419.06
-6419.33
-6419.36
-6419.12
-6418.68
-6418.16
-6417.69
-6417.41
-6913.65
-6913.78
-6914.05
-6914.44
-6915
-6915.72
-6916.61
-6917.62
-6918.69
-6919.75
-6920.82
-6921.86
-6922.84
-6923.72
-6924.49
-6925.14
-6925.66
-6926.05
-6926.32
-6926.46
-6926.48
-6926.41
-6926.11
-6925.56
-6924.82
-6923.92
-6922.92
-6921.83
-6920.77
-6919.75
-6918.81
-6917.93
-6917.13
-6916.4
-6915.73
-6915.13
-6914.57
-6914.07
-6913.62
-6913.2
-6912.83
-6912.5
-6912.21
-6911.96
-6911.74
-6911.57
-6911.43
-6911.32
-6911.25
-6911.22
-6911.23
-6911.28
-6911.36
-6911.47
-6911.62
-6911.8
-6912.02
-6912.26
-6912.54
-6912.83
-6913.15
-6913.49
-6913.85
-6914.21
-6914.59
-6914.96
-6915.34
-6915.7
-6916.06
-6916.4
-6916.71
-6917
-6917.26
-6917.47
-6917.65
-6917.78
-6917.86
-6917.89
-6917.87
-6917.79
-6917.65
-6917.46
-6917.22
-6916.92
-6916.58
-6916.2
-6915.78
-6915.33
-6914.87
-6914.39
-6913.9
-6913.43
-6912.98
-6912.56
-6912.17
-6911.84
-6911.56
-6911.36
-6911.23
-6911.17
-6911.2
-6911.32
-6911.51
-6911.79
-6912.14
-6912.55
-6913.02
-6913.52
-6914.05
-6914.59
-6915.12
-6915.62
-6916.07
-6916.45
-6916.76
-6916.96
-6917.07
-6917.06
-6916.94
-6916.7
-6916.36
-6915.92
-6915.41
-6914.84
-6914.24
-6913.64
-6913.07
-6912.55
-6912.12
-6911.79
-6911.6
-6911.54
-6911.63
-6911.87
-6912.25
-6912.74
-6913.33
-6913.97
-6914.68
-6915.31
-6915.88
-6916.35
-6916.67
-6916.83
-6916.8
-6916.59
-6916.21
-6915.68
-6915.05
-6914.36
-6913.67
-6913.05
-6912.54
-6912.21
-6912.07
-6912.14
-6912.43
-6912.9
-6913.5
-6914.18
-6914.88
-6915.48
-6915.94
-6916.2
-6916.23
-6916.02
-6915.59
-6915.01
-6914.34
-6913.67
-6913.11
-6912.72
-6912.56
-6912.67
-6913.01
-6913.55
-6914.19
-6914.88
-6915.43
-6915.77
-6915.86
-6915.67
-6915.23
-6914.61
-6913.94
-6913.3
-6912.88
-6912.72
-6912.88
-6913.3
-6913.9
-6914.56
-6915.18
-6915.51
-6915.53
-6915.23
-6914.69
-6914.05
-6913.47
-6913.13
-7348.63
-7348.83
-7349.24
-7349.88
-7350.79
-7351.97
-7353.52
-7355.51
-7358.4
-7360.41
-7362.21
-7363.75
-7365.07
-7366.2
-7367.15
-7367.93
-7368.55
-7369.02
-7369.32
-7369.48
-7369.54
-7369.47
-7369.12
-7368.42
-7367.35
-7365.95
-7364.3
-7361.8
-7360.27
-7358.83
-7357.63
-7356.6
-7355.69
-7354.88
-7354.16
-7353.51
-7352.92
-7352.39
-7351.92
-7351.5
-7351.12
-7350.78
-7350.49
-7350.23
-7350.02
-7349.85
-7349.71
-7349.63
-7349.59
-7349.58
-7349.62
-7349.7
-7349.82
-7349.98
-7350.18
-7350.42
-7350.69
-7351
-7351.34
-7351.71
-7352.11
-7352.52
-7352.96
-7353.41
-7353.86
-7354.32
-7354.77
-7355.22
-7355.65
-7356.06
-7356.44
-7356.79
-7357.1
-7357.36
-7357.58
-7357.73
-7357.83
-7357.87
-7357.84
-7357.75
-7357.59
-7357.36
-7357.07
-7356.72
-7356.31
-7355.85
-7355.35
-7354.82
-7354.26
-7353.69
-7353.11
-7352.55
-7352.01
-7351.51
-7351.05
-7350.66
-7350.34
-7350.09
-7349.94
-7349.88
-7349.92
-7350.06
-7350.3
-7350.63
-7351.06
-7351.55
-7352.12
-7352.72
-7353.36
-7354.01
-7354.64
-7355.24
-7355.78
-7356.24
-7356.6
-7356.85
-7356.97
-7356.96
-7356.81
-7356.52
-7356.11
-7355.58
-7354.97
-7354.29
-7353.57
-7352.85
-7352.17
-7351.55
-7351.03
-7350.64
-7350.41
-7350.34
-7350.46
-7350.74
-7351.2
-7351.79
-7352.5
-7353.27
-7354.1
-7354.86
-7355.54
-7356.09
-7356.48
-7356.66
-7356.62
-7356.36
-7355.9
-7355.27
-7354.51
-7353.69
-7352.87
-7352.12
-7351.52
-7351.12
-7350.96
-7351.05
-7351.4
-7351.97
-7352.7
-7353.52
-7354.35
-7355.07
-7355.62
-7355.93
-7355.95
-7355.69
-7355.18
-7354.48
-7353.67
-7352.87
-7352.2
-7351.73
-7351.55
-7351.68
-7352.1
-7352.74
-7353.52
-7354.35
-7354.99
-7355.41
-7355.51
-7355.28
-7354.75
-7354.01
-7353.21
-7352.45
-7351.95
-7351.77
-7351.96
-7352.46
-7353.19
-7353.97
-7354.72
-7355.1
-7355.12
-7354.76
-7354.11
-7353.33
-7352.64
-7352.23
-7731.9
-7732.14
-7732.64
-7733.44
-7734.6
-7736.2
-7738.21
-7740.89
-7745.1
-7748.48
-7751.3
-7753.74
-7755.84
-7757.62
-7759.08
-7760.25
-7761.13
-7761.71
-7761.99
-7761.93
-7761.48
-7760.66
-7759.61
-7758.44
-7757.08
-7755.4
-7753.46
-7750.54
-7748.63
-7746.97
-7745.61
-7744.59
-7743.64
-7742.84
-7742.13
-7741.5
-7740.93
-7740.43
-7739.97
-7739.55
-7739.18
-7738.85
-7738.57
-7738.32
-7738.12
-7737.97
-7737.87
-7737.79
-7737.76
-7737.78
-7737.84
-7737.96
-7738.12
-7738.32
-7738.58
-7738.87
-7739.21
-7739.58
-7739.99
-7740.44
-7740.91
-7741.41
-7741.93
-7742.46
-7743
-7743.54
-7744.08
-7744.61
-7745.12
-7745.6
-7746.05
-7746.47
-7746.83
-7747.14
-7747.39
-7747.58
-7747.69
-7747.74
-7747.7
-7747.59
-7747.4
-7747.14
-7746.8
-7746.38
-7745.91
-7745.37
-7744.79
-7744.16
-7743.51
-7742.84
-7742.17
-7741.51
-7740.88
-7740.29
-7739.76
-7739.3
-7738.93
-7738.65
-7738.47
-7738.41
-7738.46
-7738.63
-7738.91
-7739.31
-7739.81
-7740.4
-7741.06
-7741.78
-7742.53
-7743.29
-7744.03
-7744.73
-7745.36
-7745.9
-7746.32
-7746.61
-7746.75
-7746.73
-7746.55
-7746.22
-7745.73
-7745.11
-7744.39
-7743.59
-7742.75
-7741.91
-7741.1
-7740.37
-7739.77
-7739.31
-7739.04
-7738.97
-7739.1
-7739.45
-7739.98
-7740.68
-7741.51
-7742.42
-7743.38
-7744.27
-7745.07
-7745.71
-7746.16
-7746.37
-7746.32
-7746.01
-7745.47
-7744.72
-7743.83
-7742.87
-7741.9
-7741.03
-7740.33
-7739.86
-7739.67
-7739.79
-7740.21
-7740.88
-7741.74
-7742.71
-7743.68
-7744.53
-7745.17
-7745.53
-7745.55
-7745.24
-7744.63
-7743.8
-7742.85
-7741.91
-7741.12
-7740.58
-7740.37
-7740.53
-7741.03
-7741.79
-7742.7
-7743.67
-7744.43
-7744.91
-7745.03
-7744.75
-7744.13
-7743.27
-7742.32
-7741.44
-7740.85
-7740.65
-7740.87
-7741.47
-7742.32
-7743.22
-7744.13
-7744.56
-7744.58
-7744.15
-7743.38
-7742.46
-7741.64
-7741.16
-8069.68
-8069.8
-8070.03
-8070.34
-8070.68
-8070.99
-8071.32
-8071.69
-8089.21
-8088.7
-8088.34
-8087.8
-8087.24
-8086.65
-8086.07
-8085.49
-8084.95
-8084.45
-8083.98
-8083.55
-8083.16
-8082.8
-8082.49
-8082.21
-8081.98
-8081.79
-8081.65
-8081.55
-8081.5
-8081.49
-8081.54
-8081.64
-8081.79
-8081.99
-8082.25
-8082.55
-8082.9
-8083.3
-8083.74
-8084.23
-8084.75
-8085.3
-8085.88
-8086.49
-8087.11
-8087.74
-8088.37
-8088.99
-8089.6
-8090.19
-8090.75
-8091.27
-8091.75
-8092.17
-8092.52
-8092.81
-8093.03
-8093.16
-8093.21
-8093.17
-8093.04
-8092.83
-8092.52
-8092.13
-8091.65
-8091.1
-8090.48
-8089.81
-8089.09
-8088.35
-8087.56
-8086.8
-8086.04
-8085.32
-8084.65
-8084.04
-8083.51
-8083.08
-8082.76
-8082.57
-8082.5
-8082.56
-8082.76
-8083.09
-8083.56
-8084.13
-8084.81
-8085.58
-8086.41
-8087.27
-8088.15
-8089
-8089.81
-8090.54
-8091.16
-8091.64
-8091.97
-8092.13
-8092.11
-8091.9
-8091.51
-8090.95
-8090.23
-8089.4
-8088.48
-8087.5
-8086.53
-8085.61
-8084.77
-8084.07
-8083.55
-8083.24
-8083.16
-8083.32
-8083.71
-8084.33
-8085.14
-8086.1
-8087.14
-8088.24
-8089.27
-8090.18
-8090.92
-8091.43
-8091.67
-8091.61
-8091.26
-8090.63
-8089.76
-8088.74
-8087.62
-8086.51
-8085.51
-8084.7
-8084.16
-8083.96
-8084.1
-8084.58
-8085.37
-8086.36
-8087.48
-8088.6
-8089.57
-8090.31
-8090.72
-8090.74
-8090.38
-8089.67
-8088.71
-8087.61
-8086.53
-8085.62
-8085
-8084.76
-8084.95
-8085.53
-8086.41
-8087.47
-8088.57
-8089.45
-8090.01
-8090.14
-8089.82
-8089.1
-8088.1
-8087.01
-8086
-8085.33
-8085.1
-8085.36
-8086.06
-8087.04
-8088.07
-8089.12
-8089.61
-8089.62
-8089.12
-8088.23
-8087.17
-8086.22
-8085.67
-8367.68
-8367.72
-8367.78
-8367.88
-8368.03
-8368.36
-8368.56
-8368.82
-8392.48
-8392.12
-8391.81
-8391.42
-8390.98
-8390.51
-8390.05
-8389.56
-8389.1
-8388.65
-8388.22
-8387.82
-8387.45
-8387.11
-8386.8
-8386.54
-8386.31
-8386.13
-8386
-8385.91
-8385.88
-8385.9
-8385.97
-8386.1
-8386.29
-8386.53
-8386.83
-8387.19
-8387.6
-8388.06
-8388.57
-8389.13
-8389.73
-8390.36
-8391.03
-8391.72
-8392.42
-8393.14
-8393.86
-8394.57
-8395.26
-8395.93
-8396.57
-8397.16
-8397.7
-8398.17
-8398.58
-8398.91
-8399.15
-8399.3
-8399.36
-8399.31
-8399.17
-8398.92
-8398.57
-8398.12
-8397.58
-8396.96
-8396.26
-8395.49
-8394.68
-8393.84
-8392.95
-8392.08
-8391.23
-8390.41
-8389.65
-8388.96
-8388.37
-8387.89
-8387.53
-8387.31
-8387.23
-8387.31
-8387.54
-8387.92
-8388.45
-8389.11
-8389.89
-8390.76
-8391.7
-8392.68
-8393.67
-8394.64
-8395.56
-8396.38
-8397.08
-8397.63
-8398
-8398.18
-8398.15
-8397.91
-8397.47
-8396.83
-8396.01
-8395.07
-8394.02
-8392.92
-8391.81
-8390.76
-8389.82
-8389.03
-8388.44
-8388.09
-8388
-8388.18
-8388.63
-8389.34
-8390.26
-8391.34
-8392.53
-8393.76
-8394.93
-8395.96
-8396.8
-8397.37
-8397.64
-8397.57
-8397.16
-8396.44
-8395.46
-8394.3
-8393.03
-8391.77
-8390.64
-8389.72
-8389.12
-8388.89
-8389.06
-8389.61
-8390.5
-8391.64
-8392.91
-8394.18
-8395.28
-8396.12
-8396.57
-8396.59
-8396.17
-8395.36
-8394.27
-8393.03
-8391.8
-8390.77
-8390.06
-8389.8
-8390.02
-8390.68
-8391.69
-8392.89
-8394.14
-8395.13
-8395.76
-8395.91
-8395.55
-8394.72
-8393.59
-8392.36
-8391.22
-8390.46
-8390.2
-8390.5
-8391.3
-8392.41
-8393.58
-8394.76
-8395.32
-8395.33
-8394.76
-8393.74
-8392.53
-8391.46
-8390.82
-8631.89
-8631.94
-8632.04
-8632.21
-8632.44
-8632.66
-8632.53
-8632.58
-8661.16
-8660.95
-8660.75
-8660.46
-8660.12
-8659.73
-8659.34
-8658.91
-8658.49
-8658.08
-8657.68
-8657.29
-8656.93
-8656.6
-8656.3
-8656.04
-8655.82
-8655.65
-8655.52
-8655.45
-8655.43
-8655.47
-8655.57
-8655.73
-8655.95
-8656.24
-8656.58
-8656.99
-8657.46
-8657.98
-8658.56
-8659.19
-8659.86
-8660.58
-8661.32
-8662.1
-8662.89
-8663.69
-8664.5
-8665.29
-8666.07
-8666.82
-8667.53
-8668.19
-8668.8
-8669.33
-8669.78
-8670.15
-8670.42
-8670.58
-8670.64
-8670.59
-8670.43
-8670.15
-8669.76
-8669.25
-8668.65
-8667.95
-8667.17
-8666.32
-8665.41
-8664.46
-8663.47
-8662.5
-8661.55
-8660.64
-8659.79
-8659.03
-8658.37
-8657.83
-8657.44
-8657.19
-8657.11
-8657.21
-8657.47
-8657.9
-8658.49
-8659.23
-8660.1
-8661.08
-8662.13
-8663.23
-8664.34
-8665.43
-8666.45
-8667.37
-8668.15
-8668.76
-8669.17
-8669.37
-8669.34
-8669.06
-8668.56
-8667.84
-8666.93
-8665.87
-8664.7
-8663.47
-8662.23
-8661.06
-8660
-8659.12
-8658.47
-8658.07
-8657.98
-8658.19
-8658.7
-8659.49
-8660.52
-8661.73
-8663.05
-8664.43
-8665.73
-8666.88
-8667.82
-8668.45
-8668.75
-8668.67
-8668.21
-8667.4
-8666.3
-8664.99
-8663.58
-8662.17
-8660.91
-8659.89
-8659.22
-8658.96
-8659.16
-8659.78
-8660.79
-8662.06
-8663.48
-8664.9
-8666.14
-8667.06
-8667.57
-8667.59
-8667.11
-8666.2
-8664.97
-8663.58
-8662.2
-8661.05
-8660.27
-8659.98
-8660.23
-8660.98
-8662.11
-8663.45
-8664.84
-8665.95
-8666.66
-8666.82
-8666.41
-8665.49
-8664.22
-8662.84
-8661.58
-8660.74
-8660.45
-8660.78
-8661.68
-8662.93
-8664.25
-8665.53
-8666.16
-8666.18
-8665.53
-8664.39
-8663.04
-8661.83
-8661.12
-8865.77
-8865.79
-8865.81
-8865.82
-8865.77
-8865.63
-8865.83
-8865.94
-8899.42
-8899.28
-8899.11
-8898.9
-8898.58
-8898.25
-8897.9
-8897.51
-8897.12
-8896.73
-8896.34
-8895.97
-8895.61
-8895.28
-8894.98
-8894.72
-8894.51
-8894.34
-8894.22
-8894.15
-8894.15
-8894.2
-8894.32
-8894.51
-8894.77
-8895.09
-8895.48
-8895.94
-8896.46
-8897.04
-8897.69
-8898.38
-8899.13
-8899.92
-8900.75
-8901.61
-8902.48
-8903.37
-8904.26
-8905.14
-8906
-8906.83
-8907.61
-8908.34
-8909.01
-8909.59
-8910.09
-8910.5
-8910.79
-8910.98
-8911.04
-8910.98
-8910.8
-8910.49
-8910.05
-8909.5
-8908.83
-8908.06
-8907.19
-8906.25
-8905.25
-8904.2
-8903.12
-8902.05
-8901
-8900
-8899.06
-8898.22
-8897.5
-8896.91
-8896.47
-8896.21
-8896.12
-8896.23
-8896.52
-8897
-8897.66
-8898.48
-8899.44
-8900.52
-8901.69
-8902.9
-8904.13
-8905.32
-8906.45
-8907.46
-8908.33
-8909
-8909.45
-8909.67
-8909.63
-8909.32
-8908.76
-8907.97
-8906.96
-8905.79
-8904.5
-8903.13
-8901.77
-8900.48
-8899.32
-8898.34
-8897.62
-8897.19
-8897.09
-8897.32
-8897.89
-8898.76
-8899.9
-8901.24
-8902.7
-8904.22
-8905.64
-8906.92
-8907.94
-8908.64
-8908.96
-8908.87
-8908.36
-8907.47
-8906.25
-8904.8
-8903.24
-8901.69
-8900.29
-8899.17
-8898.44
-8898.16
-8898.38
-8899.08
-8900.19
-8901.6
-8903.17
-8904.74
-8906.1
-8907.13
-8907.68
-8907.69
-8907.16
-8906.15
-8904.79
-8903.25
-8901.73
-8900.46
-8899.6
-8899.28
-8899.56
-8900.4
-8901.65
-8903.14
-8904.67
-8905.89
-8906.67
-8906.85
-8906.39
-8905.37
-8903.97
-8902.45
-8901.06
-8900.13
-8899.81
-8900.19
-8901.18
-8902.57
-8904.04
-8905.42
-8906.12
-8906.13
-8905.42
-8904.16
-8902.66
-8901.33
-8900.54
-9072.93
-9072.94
-9072.94
-9072.95
-9072.95
-9072.97
-9073
-9073.04
-9110.64
-9110.53
-9110.38
-9110.19
-9109.91
-9109.6
-9109.26
-9108.9
-9108.52
-9108.13
-9107.74
-9107.37
-9107.01
-9106.68
-9106.38
-9106.11
-9105.89
-9105.72
-9105.61
-9105.55
-9105.55
-9105.62
-9105.76
-9105.98
-9106.26
-9106.62
-9107.05
-9107.56
-9108.13
-9108.78
-9109.48
-9110.25
-9111.07
-9111.93
-9112.84
-9113.78
-9114.73
-9115.7
-9116.67
-9117.64
-9118.57
-9119.48
-9120.33
-9121.13
-9121.85
-9122.49
-9123.04
-9123.47
-9123.8
-9123.99
-9124.06
-9124
-9123.79
-9123.45
-9122.98
-9122.37
-9121.64
-9120.8
-9119.85
-9118.82
-9117.73
-9116.58
-9115.41
-9114.24
-9113.1
-9112
-9110.99
-9110.07
-9109.28
-9108.64
-9108.17
-9107.89
-9107.8
-9107.92
-9108.24
-9108.77
-9109.49
-9110.39
-9111.44
-9112.62
-9113.89
-9115.22
-9116.56
-9117.86
-9119.09
-9120.2
-9121.14
-9121.87
-9122.36
-9122.59
-9122.54
-9122.21
-9121.6
-9120.73
-9119.63
-9118.35
-9116.93
-9115.45
-9113.96
-9112.55
-9111.28
-9110.22
-9109.43
-9108.97
-9108.86
-9109.11
-9109.74
-9110.69
-9111.94
-9113.4
-9114.99
-9116.64
-9118.2
-9119.59
-9120.7
-9121.47
-9121.81
-9121.71
-9121.15
-9120.17
-9118.84
-9117.26
-9115.55
-9113.86
-9112.34
-9111.11
-9110.31
-9110.02
-9110.26
-9111.03
-9112.25
-9113.8
-9115.51
-9117.22
-9118.71
-9119.82
-9120.42
-9120.43
-9119.85
-9118.73
-9117.24
-9115.56
-9113.9
-9112.52
-9111.58
-9111.24
-9111.55
-9112.47
-9113.85
-9115.47
-9117.13
-9118.47
-9119.32
-9119.51
-9119
-9117.89
-9116.36
-9114.7
-9113.19
-9112.18
-9111.83
-9112.25
-9113.34
-9114.86
-9116.47
-9117.94
-9118.71
-9118.73
-9117.95
-9116.56
-9114.93
-9113.47
-9112.61
-9256.44
-9256.44
-9256.44
-9256.45
-9256.46
-9256.47
-9256.47
-9256.5
-9297.84
-9297.75
-9297.6
-9297.41
-9297.16
-9296.86
-9296.53
-9296.16
-9295.78
-9295.39
-9295
-9294.62
-9294.25
-9293.91
-9293.6
-9293.33
-9293.11
-9292.93
-9292.82
-9292.76
-9292.77
-9292.86
-9293.02
-9293.25
-9293.57
-9293.96
-9294.43
-9294.98
-9295.61
-9296.31
-9297.07
-9297.9
-9298.79
-9299.73
-9300.71
-9301.72
-9302.76
-9303.81
-9304.86
-9305.89
-9306.91
-9307.88
-9308.81
-9309.67
-9310.45
-9311.14
-9311.73
-9312.2
-9312.54
-9312.75
-9312.83
-9312.75
-9312.53
-9312.16
-9311.65
-9310.99
-9310.2
-9309.29
-9308.26
-9307.15
-9305.97
-9304.73
-9303.46
-9302.2
-9300.97
-9299.79
-9298.69
-9297.71
-9296.86
-9296.17
-9295.66
-9295.36
-9295.26
-9295.39
-9295.75
-9296.32
-9297.1
-9298.07
-9299.21
-9300.49
-9301.87
-9303.3
-9304.75
-9306.16
-9307.49
-9308.68
-9309.69
-9310.48
-9311.01
-9311.26
-9311.21
-9310.84
-9310.18
-9309.23
-9308.05
-9306.66
-9305.13
-9303.52
-9301.92
-9300.4
-9299.02
-9297.88
-9297.03
-9296.53
-9296.41
-9296.69
-9297.37
-9298.4
-9299.75
-9301.33
-9303.05
-9304.83
-9306.51
-9308.01
-9309.21
-9310.03
-9310.4
-9310.29
-9309.68
-9308.62
-9307.17
-9305.47
-9303.62
-9301.8
-9300.15
-9298.83
-9297.97
-9297.66
-9297.92
-9298.76
-9300.08
-9301.76
-9303.62
-9305.46
-9307.07
-9308.27
-9308.92
-9308.92
-9308.28
-9307.07
-9305.45
-9303.63
-9301.85
-9300.35
-9299.34
-9298.98
-9299.32
-9300.31
-9301.81
-9303.57
-9305.35
-9306.8
-9307.71
-9307.92
-9307.37
-9306.16
-9304.51
-9302.71
-9301.1
-9300
-9299.63
-9300.08
-9301.26
-9302.91
-9304.66
-9306.22
-9307.06
-9307.08
-9306.24
-9304.73
-9302.96
-9301.39
-9300.46
-9418.99
-9418.99
-9419
-9419
-9419.01
-9419.02
-9419.03
-9419.05
-9463.75
-9463.66
-9463.52
-9463.32
-9463.08
-9462.77
-9462.44
-9462.07