/*--------------------------------*- C++ -*----------------------------------*\
  =========                 |
  \\      /  F ield         | OpenFOAM: The Open Source CFD Toolbox
   \\    /   O peration     | Website:  https://openfoam.org
    \\  /    A nd           | Version:  12
     \\/     M anipulation  |
\*---------------------------------------------------------------------------*/
FoamFile
{
    format      ascii;
    class       volScalarField;
    location    "18";
    object      p_rgh;
}
// * * * * * * * * * * * * * * * * * * * * * * * * * * * * * * * * * * * * * //

dimensions      [1 -1 -2 0 0 0 0];

internalField   nonuniform List<scalar> 
3829
(
-3.86018
-3.85893
-3.8564
-3.85252
-3.84723
-3.84046
-3.83214
-3.82216
-3.81043
-3.79685
-3.7813
-3.76365
-3.74378
-3.72156
-3.69686
-3.66953
-3.63946
-3.60651
-3.57059
-3.53158
-3.4894
-3.444
-3.39532
-3.34335
-3.2881
-3.22961
-3.16794
-3.10319
-3.0355
-2.96502
-2.89195
-2.81651
-2.73895
-2.65955
-2.57859
-2.49641
-2.41334
-2.32972
-2.24592
-2.1623
-2.07924
-1.99713
-1.91636
-1.83734
-1.76048
-1.6864
-1.61541
-1.54782
-1.48394
-1.424
-1.36824
-1.31682
-1.26989
-1.22753
-1.18977
-1.15663
-1.12807
-1.10401
-1.08431
-1.06881
-1.05727
-1.04938
-1.04481
-1.04313
-1.04388
-1.04656
-1.05063
-1.05548
-1.06157
-1.06616
-1.06968
-1.0715
-1.07097
-1.0675
-1.0605
-1.04945
-1.0339
-1.01348
-0.987906
-0.955114
-0.916386
-0.871903
-0.821892
-0.766646
-0.706528
-0.641995
-0.573689
-0.502377
-0.428916
-0.354338
-0.279751
-0.206322
-0.135297
-0.0679219
-0.00544603
0.0509233
0.100075
0.141008
0.172909
0.195163
0.205659
0.205236
0.194256
0.173219
0.1428
0.103913
0.0577888
0.0059574
-0.0498444
-0.107683
-0.165118
-0.220096
-0.270378
-0.313798
-0.348371
-0.372401
-0.384553
-0.384014
-0.369169
-0.340868
-0.30009
-0.248178
-0.186956
-0.11885
-0.046703
0.0262451
0.0962059
0.159824
0.213618
0.254425
0.279597
0.287234
0.276383
0.24627
0.198677
0.135858
0.0609353
-0.0219375
-0.108583
-0.192619
-0.269295
-0.333558
-0.381021
-0.408371
-0.413603
-0.394339
-0.353423
-0.293893
-0.219962
-0.13727
-0.0515913
0.0272595
0.0935476
0.141351
0.166367
0.166385
0.139584
0.0902105
0.0231116
-0.05485
-0.135811
-0.209872
-0.269148
-0.306869
-0.318763
-0.299081
-0.254355
-0.19012
-0.113361
-0.0345158
0.0346959
0.0854518
0.110392
0.1059
0.0720075
0.0149324
-0.0570711
-0.142546
-0.205547
-0.245651
-0.255033
-0.230646
-0.174201
-0.0957746
-0.00827724
0.073313
0.132486
0.15892
0.147387
0.10033
0.0278042
-0.054514
-0.128761
-0.184138
-0.198195
-0.175141
-0.122209
-0.0547321
0.00704549
0.0442065
-3.97222
-3.97138
-3.96965
-3.96698
-3.96326
-3.95839
-3.95225
-3.94469
-3.93553
-3.92458
-3.91165
-3.89653
-3.87899
-3.85882
-3.83584
-3.80981
-3.7805
-3.7477
-3.71118
-3.67076
-3.62628
-3.57763
-3.5247
-3.46748
-3.40596
-3.34021
-3.27034
-3.19651
-3.11891
-3.03776
-2.95331
-2.86584
-2.77571
-2.6833
-2.58904
-2.49336
-2.39675
-2.2997
-2.2027
-2.10625
-2.01084
-1.91689
-1.82478
-1.73474
-1.64908
-1.56755
-1.49043
-1.41801
-1.35053
-1.28824
-1.23134
-1.17998
-1.1343
-1.09435
-1.06018
-1.03176
-1.00902
-0.991826
-0.979982
-0.973237
-0.971277
-0.973702
-0.980046
-0.98978
-1.0023
-1.01697
-1.03308
-1.0499
-1.06668
-1.08255
-1.09673
-1.10843
-1.11685
-1.12124
-1.1209
-1.11517
-1.10347
-1.08534
-1.06046
-1.02734
-0.986842
-0.93906
-0.884159
-0.822434
-0.754333
-0.680486
-0.601706
-0.518979
-0.43341
-0.346273
-0.258996
-0.173021
-0.0899015
-0.0111807
0.0615901
0.126907
0.183385
0.229769
0.265018
0.2883
0.297832
0.294272
0.277887
0.249161
0.208879
0.158229
0.0987716
0.0324172
-0.0386367
-0.111972
-0.184673
-0.254151
-0.317632
-0.372443
-0.416135
-0.446599
-0.462145
-0.461659
-0.443973
-0.409732
-0.359938
-0.296187
-0.22083
-0.13687
-0.0478043
0.0422408
0.128661
0.207363
0.274109
0.325042
0.356861
0.367084
0.35334
0.316443
0.258223
0.181303
0.0895738
-0.0118682
-0.117866
-0.220405
-0.313604
-0.391303
-0.448143
-0.480033
-0.484509
-0.4601
-0.409238
-0.335539
-0.244343
-0.14233
-0.0347825
0.0617781
0.142263
0.199766
0.228957
0.226929
0.193094
0.131298
0.0475867
-0.0494685
-0.150162
-0.241484
-0.313917
-0.359053
-0.371406
-0.347179
-0.291694
-0.211775
-0.116464
-0.0187555
0.0665374
0.128667
0.158555
0.151597
0.108845
0.0373068
-0.0523555
-0.159706
-0.237926
-0.288043
-0.30021
-0.270568
-0.202518
-0.107049
-0.000338311
0.0993574
0.170964
0.202245
0.186732
0.127712
0.0380271
-0.0632211
-0.154231
-0.218293
-0.233732
-0.202722
-0.134636
-0.0492665
0.0286611
0.0754302
-4.15367
-4.15398
-4.15459
-4.15542
-4.15634
-4.15718
-4.15772
-4.15768
-4.15677
-4.15468
-4.15103
-4.14537
-4.13716
-4.12586
-4.11089
-4.09171
-4.06778
-4.03862
-4.00379
-3.9629
-3.91566
-3.86185
-3.80131
-3.73399
-3.65991
-3.5792
-3.49207
-3.39882
-3.29985
-3.19564
-3.08678
-2.97389
-2.85764
-2.7387
-2.61777
-2.49552
-2.37268
-2.24998
-2.12817
-2.00798
-1.89019
-1.77559
-1.66503
-1.55952
-1.4577
-1.36173
-1.27193
-1.18888
-1.11302
-1.0447
-0.9842
-0.931714
-0.887374
-0.851241
-0.823312
-0.803514
-0.791694
-0.787593
-0.790852
-0.800995
-0.817473
-0.839651
-0.866823
-0.898206
-0.932945
-0.970119
-1.00876
-1.04783
-1.08626
-1.12296
-1.15681
-1.18673
-1.21163
-1.23047
-1.24228
-1.24617
-1.24132
-1.22702
-1.2026
-1.16894
-1.1247
-1.07003
-1.00518
-0.930607
-0.846959
-0.755156
-0.656346
-0.551903
-0.443358
-0.332367
-0.221128
-0.111505
-0.00560799
0.0944435
0.186531
0.268604
0.338775
0.395341
0.436873
0.462222
0.469765
0.460005
0.433117
0.389654
0.330679
0.257855
0.173339
0.0797688
-0.0199102
-0.122243
-0.223472
-0.319997
-0.408075
-0.484059
-0.544611
-0.586861
-0.608647
-0.608257
-0.584874
-0.539062
-0.471954
-0.385746
-0.283734
-0.170013
-0.0493019
0.0726562
0.189783
0.296533
0.38726
0.456925
0.50137
0.517303
0.496992
0.44675
0.368358
0.265108
0.142098
0.00594694
-0.136771
-0.273793
-0.397641
-0.500171
-0.574276
-0.61444
-0.617501
-0.58271
-0.512514
-0.411954
-0.289197
-0.155255
0.00305776
0.128233
0.234231
0.309626
0.346611
0.340919
0.293215
0.207636
0.0926392
-0.0402374
-0.178921
-0.30252
-0.399338
-0.458154
-0.471856
-0.437991
-0.361407
-0.251622
-0.121366
0.0117518
0.127105
0.210391
0.24921
0.237468
0.177414
0.0783664
-0.0446918
-0.191978
-0.298763
-0.367645
-0.385071
-0.34574
-0.255389
-0.128007
0.0146658
0.148706
0.243443
0.283323
0.260128
0.178591
0.05653
-0.0802078
-0.202773
-0.282955
-0.300696
-0.254535
-0.157963
-0.038549
0.0697858
0.134632
-4.29495
-4.29816
-4.3046
-4.3142
-4.32677
-4.34203
-4.35955
-4.37876
-4.39894
-4.41918
-4.43849
-4.45581
-4.47007
-4.48011
-4.48476
-4.48288
-4.47342
-4.4555
-4.42831
-4.39111
-4.34328
-4.28434
-4.21397
-4.13204
-4.03867
-3.93417
-3.81915
-3.69441
-3.56092
-3.41972
-3.2717
-3.11788
-2.95944
-2.7976
-2.6336
-2.46871
-2.30418
-2.14116
-1.9808
-1.82416
-1.67219
-1.52576
-1.38555
-1.25199
-1.12514
-1.01071
-0.907375
-0.814843
-0.733118
-0.662315
-0.602569
-0.554022
-0.516734
-0.490713
-0.475894
-0.472081
-0.478958
-0.496108
-0.523015
-0.559018
-0.603322
-0.655021
-0.713106
-0.776447
-0.843834
-0.913974
-0.985499
-1.05697
-1.12689
-1.19375
-1.25603
-1.31221
-1.3608
-1.40039
-1.42969
-1.44746
-1.45263
-1.44427
-1.42161
-1.38502
-1.33378
-1.26785
-1.18749
-1.09331
-0.986298
-0.867762
-0.739329
-0.602955
-0.46082
-0.314298
-0.16812
-0.0239949
0.115111
0.246242
0.366442
0.472863
0.562874
0.634145
0.684719
0.713013
0.717617
0.69865
0.656193
0.591003
0.504653
0.39949
0.278479
0.145316
0.0041684
-0.140272
-0.282793
-0.418407
-0.541898
-0.648313
-0.733116
-0.792395
-0.822978
-0.822393
-0.790433
-0.727345
-0.634661
-0.515554
-0.374585
-0.217575
-0.0510724
0.117054
0.278448
0.425445
0.550283
0.646335
0.708475
0.733865
0.70261
0.632999
0.525785
0.385014
0.217457
0.0316303
-0.16702
-0.353228
-0.520679
-0.658579
-0.757234
-0.809316
-0.81001
-0.75942
-0.66011
-0.519034
-0.346935
-0.156709
0.0445363
0.221113
0.367258
0.469466
0.517735
0.506608
0.438012
0.31741
0.157152
-0.026719
-0.22462
-0.393587
-0.525181
-0.603767
-0.619195
-0.570439
-0.462295
-0.308521
-0.127233
0.0573968
0.21633
0.33006
0.381455
0.362309
0.276363
0.136739
-0.035313
-0.238655
-0.387107
-0.483105
-0.508054
-0.454771
-0.33174
-0.15836
0.0360563
0.221359
0.348945
0.40055
0.365805
0.25151
0.0823675
-0.105709
-0.27339
-0.378662
-0.398655
-0.32982
-0.191513
-0.0221639
0.130565
0.221749
-4.34551
-4.35482
-4.37358
-4.40171
-4.43893
-4.48481
-4.53886
-4.59979
-4.66611
-4.7359
-4.80715
-4.87748
-4.94449
-5.00542
-5.05752
-5.09794
-5.12394
-5.13286
-5.12253
-5.09141
-5.03884
-4.96505
-4.87115
-4.75815
-4.62716
-4.47902
-4.31524
-4.13727
-3.94694
-3.7458
-3.53557
-3.31831
-3.0961
-2.87104
-2.64512
-2.42026
-2.19825
-1.98076
-1.7693
-1.56533
-1.37027
-1.18541
-1.01216
-0.852028
-0.706758
-0.570619
-0.44821
-0.340595
-0.248399
-0.171987
-0.111561
-0.0671823
-0.0388431
-0.0263821
-0.0294984
-0.0477351
-0.0804853
-0.126977
-0.186312
-0.257478
-0.339332
-0.430573
-0.529799
-0.635451
-0.745864
-0.859269
-0.973792
-1.08748
-1.19832
-1.30422
-1.40318
-1.49315
-1.57211
-1.63822
-1.68966
-1.72474
-1.74217
-1.74075
-1.71949
-1.67846
-1.61703
-1.53521
-1.43343
-1.31261
-1.17415
-1.01983
-0.851889
-0.672994
-0.486089
-0.293704
-0.101226
0.0884126
0.271201
0.443133
0.600206
0.738549
0.854581
0.945021
1.00727
1.03919
1.03984
1.00854
0.945365
0.851438
0.728981
0.581233
0.412346
0.227317
0.0317518
-0.167751
-0.364268
-0.550912
-0.720669
-0.866717
-0.982881
-1.06382
-1.10515
-1.10434
-1.06068
-0.974434
-0.847796
-0.685195
-0.492944
-0.279009
-0.0524641
0.175998
0.395047
0.594082
0.762449
0.890829
0.971838
1.00075
0.963388
0.871959
0.728627
0.539777
0.315175
0.0661056
-0.210951
-0.459795
-0.683181
-0.866655
-0.997035
-1.06389
-1.06133
-0.989461
-0.851455
-0.656995
-0.420919
-0.160864
0.106135
0.345866
0.543287
0.67996
0.742327
0.723814
0.626632
0.459189
0.239469
-0.0078684
-0.290806
-0.515288
-0.691721
-0.796068
-0.813763
-0.744351
-0.593875
-0.381809
-0.133023
0.119133
0.334991
0.488159
0.555485
0.525986
0.405215
0.211711
-0.0253319
-0.299588
-0.502979
-0.634589
-0.668943
-0.597266
-0.431014
-0.197991
0.0619374
0.319769
0.487452
0.553186
0.5028
0.345454
0.114786
-0.140327
-0.367199
-0.505714
-0.527725
-0.428322
-0.234813
0.000448045
0.21174
0.337586
-4.02111
-4.04124
-4.08137
-4.14084
-4.21881
-4.31289
-4.42075
-4.5392
-4.66502
-4.79438
-4.9236
-5.04845
-5.16532
-5.27108
-5.36347
-5.44098
-5.50287
-5.54889
-5.57913
-5.59405
-5.59481
-5.57728
-5.5321
-5.45061
-5.32683
-5.15991
-4.953
-4.7119
-4.44324
-4.15408
-3.85115
-3.53976
-3.22436
-2.9087
-2.59604
-2.28922
-1.99075
-1.70277
-1.42714
-1.16545
-0.919011
-0.689109
-0.476381
-0.281367
-0.104078
0.0563654
0.189655
0.301533
0.39301
0.464174
0.514929
0.545225
0.555138
0.544938
0.515043
0.466029
0.398678
0.313966
0.21305
0.0972735
-0.0318349
-0.172552
-0.322998
-0.481094
-0.644648
-0.811319
-0.978633
-1.14404
-1.30485
-1.45834
-1.60184
-1.73274
-1.84836
-1.94621
-2.02406
-2.07972
-2.11138
-2.1173
-2.09665
-2.0493
-1.97446
-1.87216
-1.74311
-1.58862
-1.41061
-1.21145
-0.994164
-0.762302
-0.519815
-0.270514
-0.0207166
0.225238
0.462028
0.684335
0.88685
1.06445
1.21239
1.32639
1.40293
1.43917
1.43461
1.38762
1.29845
1.16872
1.00144
0.800966
0.572832
0.323699
0.061089
-0.206145
-0.468979
-0.718223
-0.944544
-1.139
-1.29335
-1.40054
-1.45505
-1.45342
-1.39474
-1.27924
-1.11016
-0.893589
-0.637936
-0.353658
-0.0527442
0.250032
0.539916
0.802686
1.02409
1.19131
1.29394
1.32549
1.28149
1.16367
0.975848
0.727769
0.433667
0.111244
-0.271291
-0.592712
-0.883836
-1.12308
-1.2921
-1.37715
-1.37025
-1.27134
-1.08508
-0.824703
-0.509913
-0.164458
0.186265
0.502943
0.762694
0.940894
1.02003
0.991208
0.857572
0.630897
0.334659
-0.00163644
-0.361332
-0.664555
-0.898565
-1.03452
-1.05467
-0.95879
-0.755123
-0.470326
-0.137956
0.197359
0.483242
0.684441
0.7705
0.727736
0.563191
0.302525
-0.0153574
-0.375016
-0.646283
-0.821484
-0.867175
-0.772196
-0.551972
-0.245692
0.0881555
0.448148
0.657694
0.739868
0.670059
0.459295
0.153127
-0.184261
-0.484797
-0.663949
-0.687383
-0.549448
-0.287251
0.0296402
0.313439
0.482246
-3.38073
-3.42816
-3.52382
-3.66721
-3.85644
-4.08843
-4.3595
-4.66239
-4.98869
-5.3276
-5.6725
-6.01612
-6.35064
-6.66766
-6.95975
-7.21951
-7.4404
-7.61672
-7.74463
-7.82217
-7.85435
-7.77107
-7.55833
-7.25935
-6.90274
-6.50354
-6.07362
-5.61922
-5.15527
-4.68973
-4.22593
-3.76674
-3.3162
-2.87771
-2.45411
-2.04766
-1.66021
-1.29323
-0.948064
-0.625886
-0.327634
-0.0540654
0.193812
0.415182
0.608999
0.773559
0.920654
1.04204
1.13633
1.20333
1.24324
1.25642
1.24337
1.20474
1.14132
1.05407
0.944157
0.812899
0.661811
0.492611
0.307256
0.107957
-0.102895
-0.322655
-0.548548
-0.777531
-1.0065
-1.23212
-1.451
-1.6597
-1.85481
-2.0329
-2.19062
-2.32491
-2.43283
-2.51163
-2.55902
-2.57315
-2.55194
-2.49576
-2.40381
-2.27626
-2.11411
-1.91909
-1.69366
-1.44097
-1.16491
-0.870081
-0.561638
-0.244637
0.0730144
0.385539
0.686067
0.967752
1.22376
1.44749
1.63288
1.77448
1.86771
1.90886
1.89759
1.83158
1.71126
1.5389
1.31847
1.0556
0.757474
0.43267
0.0911408
-0.255927
-0.596867
-0.91978
-1.21248
-1.46346
-1.66235
-1.80017
-1.86988
-1.86657
-1.7893
-1.63864
-1.41903
-1.13833
-0.807526
-0.44011
-0.0514493
0.338996
0.712458
1.05032
1.33418
1.5472
1.67487
1.70478
1.65647
1.5067
1.26516
0.9457
0.567139
0.153387
-0.335494
-0.746857
-1.11939
-1.42473
-1.63931
-1.74562
-1.73308
-1.60176
-1.35823
-1.01984
-0.612151
-0.165832
0.284281
0.691143
1.02371
1.25028
1.34803
1.30637
1.12855
0.830984
0.443985
0.0054833
-0.45058
-0.843396
-1.14484
-1.31793
-1.34058
-1.21164
-0.94407
-0.572749
-0.14128
0.292102
0.66024
0.917523
1.0249
0.965698
0.748582
0.407975
-0.00575593
-0.464861
-0.815986
-1.04218
-1.10065
-0.977507
-0.692603
-0.297447
0.136462
0.583837
0.855163
0.958196
0.86576
0.591423
0.19668
-0.237037
-0.625944
-0.852143
-0.876068
-0.691943
-0.348076
0.0654481
0.434983
0.654542
-1.64146
-1.72968
-1.91134
-2.20293
-2.56143
-2.98808
-3.49143
-4.04525
-4.6476
-5.27098
-5.89654
-6.49451
-7.05939
-7.57675
-8.03325
-8.41728
-8.71842
-8.92647
-9.0306
-9.01598
-8.85562
-8.60729
-8.39104
-8.14873
-7.8343
-7.41324
-6.90867
-6.32256
-5.70888
-5.07451
-4.44569
-3.82924
-3.23361
-2.66282
-2.12021
-1.60842
-1.12962
-0.684911
-0.274474
0.101943
0.444546
0.753831
1.03019
1.27419
1.48588
1.66569
1.81327
1.9256
2.00603
2.05505
2.07279
2.05935
2.01506
1.94048
1.83642
1.70392
1.5443
1.35915
1.15034
0.919979
0.670458
0.404509
0.125087
-0.164536
-0.460937
-0.760255
-1.05863
-1.352
-1.63613
-1.90671
-2.15952
-2.39033
-2.59498
-2.76959
-2.91057
-3.01464
-3.07881
-3.10084
-3.07823
-3.0111
-2.89878
-2.74162
-2.54098
-2.29908
-2.01903
-1.7048
-1.36133
-0.994409
-0.610539
-0.215901
0.179159
0.567539
0.940609
1.28976
1.60645
1.88244
2.1102
2.28291
2.39487
2.44154
2.42203
2.33375
2.17751
1.95628
1.67502
1.34086
0.962931
0.552093
0.120525
-0.317318
-0.746912
-1.15318
-1.52113
-1.83619
-2.08532
-2.25736
-2.34353
-2.33761
-2.23858
-2.04738
-1.76981
-1.41571
-0.998847
-0.536667
-0.0482581
0.442069
0.910679
1.33415
1.68939
1.95566
2.11562
2.15665
2.08885
1.89776
1.59278
1.19037
0.713272
0.189587
-0.401267
-0.920258
-1.38696
-1.76788
-2.03411
-2.16386
-2.14478
-1.97592
-1.66671
-1.23911
-0.725435
-0.164413
0.398892
0.908199
1.32316
1.60381
1.72208
1.66469
1.43563
1.05658
0.565891
0.0116833
-0.556728
-1.05031
-1.42752
-1.64221
-1.66678
-1.49907
-1.15774
-0.687058
-0.142423
0.402566
0.864096
1.18472
1.31555
1.23652
0.958632
0.526234
0.00317749
-0.568148
-1.00997
-1.29385
-1.36618
-1.21018
-0.850904
-0.353501
0.195967
0.735328
1.07837
1.20516
1.08716
0.739556
0.244609
-0.297242
-0.789875
-1.06793
-1.09123
-0.853785
-0.416327
0.107547
0.575002
0.85242
0.554795
0.419334
0.151556
-0.237172
-0.800263
-1.52088
-2.41117
-3.42358
-4.486
-5.55074
-6.62133
-7.66398
-8.63824
-9.51889
-10.2906
-10.9402
-11.461
-11.8526
-12.116
-12.2561
-12.2821
-12.2052
-11.908
-11.3561
-10.6175
-9.7224
-8.7197
-7.62575
-6.56612
-5.55202
-4.60819
-3.73391
-2.93159
-2.19926
-1.53243
-0.925773
-0.37363
0.12878
0.584866
0.997199
1.36779
1.69818
1.98955
2.24213
2.45678
2.63371
2.77367
2.87914
2.94679
2.97682
2.96965
2.92574
2.84565
2.73012
2.58012
2.39686
2.18189
1.93706
1.66454
1.36686
1.04688
0.70788
0.353445
-0.0124339
-0.386233
-0.762212
-1.13629
-1.50349
-1.85864
-2.1965
-2.51194
-2.79984
-3.05515
-3.27321
-3.44957
-3.58031
-3.66222
-3.69244
-3.6667
-3.5863
-3.45054
-3.25991
-3.01606
-2.72171
-2.38074
-1.99804
-1.5797
-1.13281
-0.665227
-0.184408
0.296366
0.768536
1.2216
1.6451
2.02858
2.36204
2.63627
2.843
2.97528
3.02785
2.99867
2.88536
2.68903
2.41342
2.06468
1.65156
1.1853
0.679296
0.148289
-0.389642
-0.916776
-1.41484
-1.86539
-2.25073
-2.55481
-2.76396
-2.86743
-2.85841
-2.73482
-2.49839
-2.15636
-1.72079
-1.20858
-0.641345
-0.0429281
0.557742
1.13138
1.64938
2.08344
2.40861
2.6043
2.65585
2.56705
2.32914
1.95293
1.45798
0.871642
0.226606
-0.475168
-1.11273
-1.68325
-2.14725
-2.46998
-2.62505
-2.59797
-2.38718
-2.00508
-1.47861
-0.847779
-0.159777
0.528618
1.15069
1.65594
1.99574
2.13572
2.05995
1.7735
1.30368
0.698048
0.0159421
-0.677815
-1.28224
-1.74238
-2.00186
-2.02758
-1.81612
-1.39228
-0.810911
-0.141107
0.527149
1.09173
1.4818
1.63786
1.53567
1.18968
0.65515
0.0110661
-0.68357
-1.22521
-1.57229
-1.6594
-1.46638
-1.02437
-0.413751
0.261128
0.90482
1.32467
1.47662
1.32108
0.900619
0.295946
-0.362733
-0.97527
-1.30768
-1.32917
-1.0322
-0.490841
0.155345
0.731255
1.07272
4.9048
4.70448
4.29471
3.65805
2.75046
1.56468
0.0217104
-1.97649
-4.8626
-6.87052
-8.66895
-10.2109
-11.5364
-12.6651
-13.6159
-14.3981
-15.0163
-15.4793
-15.78
-15.9398
-15.999
-15.9314
-15.5852
-14.8784
-13.8138
-12.4112
-10.7674
-8.26683
-6.73723
-5.29062
-4.09285
-3.06179
-2.15192
-1.34263
-0.618291
0.0314592
0.616122
1.14246
1.61598
2.04086
2.42022
2.75622
3.05027
3.30319
3.51612
3.69066
3.83018
3.90761
3.94942
3.95233
3.91474
3.83609
3.71643
3.55629
3.35662
3.11872
2.84431
2.5355
2.1948
1.82514
1.42986
1.01284
0.578267
0.130827
-0.324647
-0.782533
-1.23731
-1.68309
-2.11376
-2.52307
-2.90495
-3.25328
-3.56204
-3.82569
-4.03903
-4.19737
-4.29676
-4.33455
-4.30488
-4.20978
-4.04829
-3.82102
-3.53002
-3.17864
-2.77158
-2.31477
-1.81554
-1.2824
-0.72466
-0.149879
0.423031
0.985205
1.52417
2.02745
2.48259
2.87763
3.20157
3.44453
3.59832
3.65676
3.61674
3.47611
3.2363
2.90184
2.48016
1.98188
1.42049
0.811916
0.173984
-0.471478
-1.10347
-1.7001
-2.23908
-2.69946
-3.06207
-3.31057
-3.43229
-3.41935
-3.2688
-2.98328
-2.57139
-2.04777
-1.43291
-0.752402
-0.0351863
0.684076
1.37054
1.98998
2.50871
2.89696
3.13042
3.19253
3.08089
2.79212
2.33876
1.74366
1.04023
0.267135
-0.559394
-1.32195
-2.0033
-2.55609
-2.93898
-3.12089
-3.08457
-2.82813
-2.36696
-1.73375
-0.976445
-0.152287
0.67093
1.41407
2.01612
2.41892
2.58144
2.48499
2.13596
1.56761
0.837763
0.017734
-0.811543
-1.53491
-2.08375
-2.39062
-2.41654
-2.15693
-1.64323
-0.941909
-0.137184
0.663738
1.33897
1.80324
1.98571
1.85762
1.43742
0.792189
0.0176142
-0.809096
-1.45779
-1.87253
-1.97499
-1.74143
-1.20996
-0.477296
0.331061
1.08908
1.59009
1.76903
1.58166
1.07271
0.349434
-0.430553
-1.18058
-1.56658
-1.58531
-1.22384
-0.570267
0.208007
0.90083
1.31139
10.8289
10.5865
10.087
9.28322
8.12145
6.52441
4.51632
1.83394
-2.3722
-5.76026
-8.57395
-11.0193
-13.1194
-14.8928
-16.3573
-17.5248
-18.4028
-18.9811
-19.2613
-19.2077
-18.7601
-17.9324
-16.8837
-15.7185
-14.3545
-12.6798
-10.7343
-7.81856
-5.90671
-4.24435
-2.88245
-1.86877
-0.91819
-0.114181
0.596215
1.22457
1.78911
2.29813
2.75825
3.17273
3.54367
3.872
4.15793
4.4014
4.60104
4.75464
4.85744
4.93826
4.9676
4.94817
4.88111
4.76698
4.60628
4.39971
4.14832
3.85352
3.51722
3.14181
2.73012
2.28552
1.81186
1.3136
0.795629
0.263365
-0.277455
-0.82051
-1.35925
-1.88681
-2.39602
-2.87962
-3.33049
-3.74148
-4.10554
-4.41621
-4.66742
-4.85353
-4.96968
-5.01169
-4.97981
-4.86935
-4.68035
-4.41396
-4.07278
-3.66083
-3.18374
-2.64855
-2.06395
-1.44007
-0.787771
-0.112219
0.557144
1.21364
1.84277
2.42981
2.96013
3.41969
3.79561
4.07638
4.25243
4.31663
4.2648
4.09501
3.8091
3.41242
2.91377
2.3257
1.66398
0.947483
0.197198
-0.561273
-1.30343
-2.0034
-2.63516
-3.17407
-3.59778
-3.88719
-4.02773
-4.00999
-3.83058
-3.49287
-3.00701
-2.39049
-1.66753
-0.867828
-0.0252342
0.818627
1.62359
2.34946
2.95688
3.41098
3.6835
3.75537
3.62011
3.27772
2.7428
2.04227
1.21564
0.308795
-0.651103
-1.54408
-2.34124
-2.98684
-3.43253
-3.64211
-3.59543
-3.29058
-2.74578
-1.99984
-1.10947
-0.141631
0.823163
1.6934
2.39694
2.86542
3.05101
2.93195
2.51623
1.84342
0.982239
0.0168978
-0.955216
-1.80342
-2.44514
-2.80122
-2.82626
-2.51511
-1.90586
-1.0777
-0.130593
0.809821
1.60112
2.14292
2.35241
2.19632
1.69717
0.934618
0.0227499
-0.942359
-1.7034
-2.18898
-2.30709
-2.03033
-1.40423
-0.543043
0.404897
1.28431
1.86974
2.07655
1.85397
1.25205
0.403184
-0.496596
-1.40461
-1.83896
-1.85467
-1.42515
-0.653078
0.264402
1.08058
1.56389
17.8093
17.6921
17.4652
17.147
16.8118
16.4982
16.174
15.798
-1.71459
-1.21001
-0.846588
-0.310565
0.253223
0.844336
1.42156
2.00604
2.5374
3.04056
3.50767
3.93879
4.33235
4.68784
5.00402
5.27962
5.51303
5.70256
5.84652
5.94397
5.99635
5.99974
5.95239
5.85345
5.70261
5.50003
5.24622
4.9422
4.58947
4.19012
3.74679
3.26268
2.74159
2.18789
1.60667
1.00348
0.384542
-0.243568
-0.873667
-1.49821
-2.10932
-2.69877
-3.25819
-3.77943
-4.25426
-4.67461
-5.03305
-5.32262
-5.53688
-5.67029
-5.71791
-5.68096
-5.55328
-5.33501
-5.02758
-4.63403
-4.15908
-3.60927
-2.99281
-2.31989
-1.60249
-0.854002
-0.0710712
0.696298
1.4497
2.17167
2.84496
3.45264
3.97852
4.40778
4.72722
4.92584
4.99552
4.93121
4.73106
4.39728
3.93612
3.35783
2.67687
1.91153
1.08372
0.217724
-0.657261
-1.51287
-2.31917
-3.0463
-3.66583
-4.15217
-4.48332
-4.64274
-4.61953
-4.4099
-4.01791
-3.45541
-2.74275
-1.90812
-0.985454
-0.0134278
0.958816
1.8858
2.72118
3.41967
3.94123
4.25345
4.3344
4.17493
3.77701
3.15768
2.34842
1.39472
0.350161
-0.748138
-1.77501
-2.69097
-3.43175
-3.94174
-4.17934
-4.12141
-3.7662
-3.13488
-2.27226
-1.24447
-0.128209
0.982353
1.98348
2.79132
3.3271
3.53585
3.39277
2.90747
2.12615
1.12869
0.0137323
-1.10606
-2.08285
-2.8199
-3.2261
-3.24933
-2.88419
-2.17548
-1.21576
-0.121613
0.962662
1.87337
2.49467
2.7314
2.54568
1.96426
1.07985
0.0262784
-1.08085
-1.95753
-2.51592
-2.64974
-2.3279
-1.60378
-0.609642
0.481466
1.48663
2.15849
2.39353
2.13349
1.43527
0.455077
-0.573498
-1.62939
-2.11864
-2.13232
-1.63249
-0.737921
0.323533
1.26702
1.8256
25.2324
25.1976
25.1347
25.0392
24.8855
24.5585
24.3525
24.0973
0.432459
0.79951
1.10324
1.49843
1.93675
2.40377
2.86991
3.35281
3.81693
4.26556
4.69252
5.09467
5.46785
5.80861
6.11366
6.37995
6.60464
6.78504
6.91859
7.00324
7.03721
7.01824
6.94432
6.81421
6.6272
6.38316
6.08244
5.72604
5.31552
4.85316
4.34186
3.7852
3.18741
2.55339
1.88887
1.2001
0.494065
-0.221794
-0.939395
-1.6502
-2.3453
-3.01538
-3.65099
-4.24287
-4.78175
-5.2585
-5.66473
-5.9926
-6.23492
-6.38567
-6.43998
-6.39569
-6.24937
-6.00067
-5.65103
-5.20388
-4.6646
-4.04064
-3.34137
-2.57845
-1.76568
-0.919216
-0.0298461
0.837206
1.68914
2.50529
3.26594
3.95188
4.54475
5.02781
5.38611
5.60731
5.68218
5.60488
5.3737
4.99112
4.46434
3.80507
3.02979
2.15934
1.21862
0.23556
-0.757507
-1.72792
-2.64179
-3.46528
-4.16622
-4.71564
-5.08871
-5.26677
-5.23758
-4.99694
-4.54955
-3.90907
-3.09871
-2.15052
-1.10322
-0.000257612
1.10211
2.15258
3.09871
3.8892
4.47874
4.83068
4.92014
4.73603
4.28158
3.57649
2.65699
1.57441
0.390414
-0.848507
-2.01059
-3.04649
-3.88331
-4.45802
-4.72357
-4.65382
-4.2471
-3.52776
-2.54661
-1.37901
-0.112847
1.14554
2.27916
3.19242
3.79603
4.02774
3.85968
3.30313
2.41118
1.27515
0.00809458
-1.26136
-2.36826
-3.20155
-3.65793
-3.67861
-3.258
-2.44764
-1.35377
-0.110523
1.11944
2.15096
2.85245
3.11623
2.8998
2.23426
1.2255
0.0280389
-1.22203
-2.21579
-2.84776
-2.99714
-2.6292
-1.80534
-0.676113
0.559769
1.69236
2.4514
2.71461
2.41586
1.61945
0.50397
-0.666563
-1.84429
-2.40052
-2.41357
-1.8425
-0.823371
0.384203
1.457
2.09192
31.5902
31.5452
31.4445
31.2729
31.0428
30.821
30.9492
30.9036
2.31726
2.52969
2.73099
3.01709
3.36336
3.75022
4.14289
4.56716
4.98643
5.40099
5.80273
6.18652
6.54673
6.87844
7.17691
7.43783
7.65715
7.83112
7.95627
8.02947
8.04788
8.00888
7.91032
7.75064
7.52886
7.24461
6.89815
6.49044
6.02315
5.49875
4.92043
4.29213
3.61854
2.90509
2.15814
1.38464
0.592334
-0.210463
-1.01477
-1.81107
-2.58941
-3.3394
-4.05046
-4.71229
-5.31453
-5.84698
-6.30032
-6.66586
-6.93566
-7.1031
-7.16286
-7.1114
-6.94608
-6.66651
-6.27429
-5.77324
-5.16937
-4.47104
-3.68871
-2.83546
-1.92649
-0.978884
0.00741447
0.977194
1.92825
2.83854
3.68632
4.4502
5.10974
5.64624
6.04306
6.2865
6.36626
6.27571
6.01326
5.58172
4.98922
4.24895
3.37941
2.40402
1.35063
0.250596
-0.860165
-1.94495
-2.96595
-3.88536
-4.66727
-5.27929
-5.69386
-5.89013
-5.85461
-5.58265
-5.07965
-4.36105
-3.45299
-2.39112
-1.21945
0.0139274
1.24611
2.41968
3.47613
4.35817
5.01521
5.40637
5.50384
5.29491
4.78377
3.99295
2.96326
1.75209
0.428994
-0.950391
-2.24694
-3.40221
-4.33451
-4.97341
-5.2665
-5.18463
-4.72611
-3.91852
-2.81881
-1.51133
-0.0960763
1.30994
2.57566
3.59392
4.26484
4.51908
4.32549
3.6973
2.69434
1.41934
0.00032163
-1.41835
-2.65499
-3.58405
-4.08998
-4.10748
-3.63084
-2.71831
-1.48973
-0.0976548
1.27745
2.42939
3.21058
3.50087
3.25324
2.50313
1.3694
0.0280184
-1.36346
-2.47412
-3.17938
-3.34394
-2.92961
-2.00591
-0.741394
0.638613
1.89809
2.7439
3.0349
2.69696
1.80204
0.549922
-0.768363
-2.05171
-2.68073
-2.69424
-2.05206
-0.908299
0.445463
1.64734
2.35866
37.3888
37.3761
37.3569
37.3477
37.3975
37.538
37.3338
37.2238
3.74633
3.88718
4.0487
4.26647
4.58499
4.91561
5.26638
5.64946
6.04032
6.43465
6.8227
7.19779
7.55305
7.88225
8.17955
8.43958
8.65735
8.82818
8.94777
9.01215
9.01769
8.96112
8.84011
8.65287
8.3982
8.07556
7.6851
7.22781
6.70545
6.12074
5.47716
4.77902
4.03146
3.24045
2.41296
1.55663
0.679978
-0.207862
-1.09701
-1.97697
-2.83678
-3.66496
-4.44986
-5.18009
-5.84422
-6.43101
-6.93022
-7.33233
-7.62867
-7.81203
-7.87652
-7.81777
-7.6334
-7.32308
-6.8886
-6.33415
-5.66641
-4.89456
-4.03019
-3.0877
-2.08374
-1.03643
0.0443797
1.11532
2.16404
3.16698
4.10043
4.94089
5.66586
6.25477
6.68931
6.95442
7.03869
6.93488
6.64132
6.16136
5.50396
4.68382
3.72139
2.64262
1.47842
0.262945
-0.963483
-2.16069
-3.28697
-4.30058
-5.16194
-5.83529
-6.29042
-6.50431
-6.46221
-6.15911
-5.60111
-4.80531
-3.80087
-2.62688
-1.33272
0.0287868
1.3887
2.68332
3.84821
4.82016
5.54336
5.97279
6.07781
5.84417
5.27698
4.40165
3.26314
1.92535
0.465525
-1.05202
-2.4806
-3.75314
-4.77918
-5.48093
-5.8008
-5.70672
-5.19693
-4.30216
-3.08545
-1.64013
-0.0780508
1.47306
2.86873
3.99019
4.72705
5.00315
4.78395
4.08476
2.97194
1.55949
-0.00925443
-1.57453
-2.93887
-3.96198
-4.51626
-4.53011
-3.9977
-2.98398
-1.622
-0.0833409
1.43425
2.7047
3.56406
3.88003
3.60118
2.76732
1.50977
0.026204
-1.50292
-2.72894
-3.50625
-3.68544
-3.22511
-2.20289
-0.804873
0.717146
2.10082
3.03199
3.3501
2.97316
1.98086
0.59315
-0.871619
-2.2544
-2.95604
-2.97061
-2.25828
-0.991601
0.506231
1.8355
2.62205
42.559
42.5546
42.5479
42.5404
42.5382
42.5164
42.4935
42.4523
4.85348
4.96437
5.11397
5.30563
5.57727
5.8928
6.22916
6.59611
6.97568
7.36305
7.74817
8.12348
8.48111
8.81388
9.11507
9.37851
9.59839
9.76931
9.88623
9.94453
9.93987
9.86793
9.72658
9.51388
9.22843
8.8695
8.43717
7.93245
7.35724
6.71451
6.00805
5.24257
4.42363
3.55771
2.65241
1.71603
0.757816
-0.212286
-1.18353
-2.14445
-3.0831
-3.98697
-4.84333
-5.63971
-6.36365
-7.0029
-7.54629
-7.98352
-8.30521
-8.50361
-8.5724
-8.50618
-8.30298
-7.96246
-7.4866
-6.87998
-6.14988
-5.3063
-4.36192
-3.33249
-2.23618
-1.09286
0.0821946
1.25046
2.3939
3.48685
4.5035
5.4183
6.20674
6.84642
7.31746
7.60349
7.69192
7.57496
7.25091
6.72362
6.00294
5.10498
4.05211
2.87272
1.60073
0.272957
-1.06586
-2.37227
-3.60082
-4.70587
-5.64427
-6.37703
-6.87133
-7.10213
-7.0533
-6.71968
-6.10797
-5.23686
-4.13841
-2.8553
-1.4418
0.0440285
1.52804
2.94033
4.21053
5.26976
6.05707
6.52343
6.63559
6.37761
5.75572
4.79806
3.55337
2.09229
0.499623
-1.15177
-2.70863
-4.09509
-5.2121
-5.97471
-6.32032
-6.21416
-5.65427
-4.6745
-3.34376
-1.76414
-0.0591087
1.63272
3.15475
4.37649
5.17721
5.47428
5.22981
4.46109
3.24097
1.6941
-0.0202033
-1.72772
-3.21637
-4.33079
-4.93169
-4.94154
-4.35438
-3.24174
-1.7493
-0.0678946
1.58771
2.97349
3.90865
4.24922
3.93963
3.02385
1.64519
0.0226256
-1.63852
-2.97722
-3.82454
-4.01768
-3.51233
-2.39412
-0.865851
0.794441
2.29801
3.31233
3.6566
3.24139
2.15413
0.63388
-0.973879
-2.45112
-3.2236
-3.23956
-2.45888
-1.07244
0.565847
2.01914
2.87886
47.1475
47.1449
47.1404
47.1329
47.127
47.1138
47.1091
47.0848
5.74367
5.83536
5.97992
6.16867
6.42096
6.72555
7.05744
7.42106
7.80084
8.19126
8.58195
8.96467
9.3307
9.67205
9.98134
10.2517
10.4768
10.6506
10.7675
10.8222
10.8102
10.7245
10.5648
10.3288
10.0147
9.62181
9.14997
8.60025
7.97475
7.27669
6.51023
5.68043
4.79328
3.85572
2.87598
1.86299
0.826698
-0.222187
-1.27206
-2.31057
-3.32479
-4.30119
-5.22602
-6.08577
-6.86697
-7.55637
-8.1419
-8.61252
-8.95821
-9.17072
-9.24365
-9.16967
-8.94808
-8.57827
-8.06236
-7.40537
-6.6151
-5.70228
-4.68078
-3.56752
-2.38239
-1.14699
0.119742
1.38124
2.61564
3.79505
4.89163
5.87782
6.72719
7.41555
7.92157
8.22755
8.31987
8.18998
7.83643
7.26334
6.48164
5.50871
4.36877
3.09249
1.71654
0.28095
-1.16595
-2.57735
-3.9042
-5.09711
-6.10943
-6.89915
-7.43091
-7.67782
-7.62217
-7.259
-6.59543
-5.65165
-4.46253
-3.07439
-1.54573
0.059381
1.66267
3.18815
4.55955
5.70261
6.55141
7.05304
7.17195
6.89023
6.21554
5.17856
3.83139
2.25147
0.530933
-1.24831
-2.9287
-4.42468
-5.62908
-6.45003
-6.82017
-6.70214
-6.09389
-5.03214
-3.59152
-1.88232
-0.0396348
1.78712
3.43078
4.74896
5.61086
5.92789
5.65879
4.82278
3.49902
1.8222
-0.0323055
-1.8761
-3.48459
-4.68673
-5.33217
-5.33778
-4.6975
-3.48925
-1.87055
-0.0516627
1.73606
3.233
4.24089
4.60481
4.26531
3.2704
1.77464
0.0172344
-1.76871
-3.21656
-4.13117
-4.33745
-3.78855
-2.57783
-0.923896
0.869747
2.48761
3.58219
3.95148
3.4992
2.32035
0.672158
-1.07377
-2.64009
-3.48107
-3.49854
-2.65195
-1.15009
0.623606
2.1963
3.1266
51.2163
51.2142
51.2099
51.2021
51.1956
51.1835
51.1802
51.1597
6.45837
6.54786
6.69082
6.88133
7.13015
7.43459
7.76988
8.13901
8.52683
8.92752
9.33016
9.72581
10.1048
10.4585
10.779