/*--------------------------------*- C++ -*----------------------------------*\
  =========                 |
  \\      /  F ield         | OpenFOAM: The Open Source CFD Toolbox
   \\    /   O peration     | Website:  https://openfoam.org
    \\  /    A nd           | Version:  12
     \\/     M anipulation  |
\*---------------------------------------------------------------------------*/
FoamFile
{
    format      ascii;
    class       surfaceScalarField;
    location    "18";
    object      phi;
}
// * * * * * * * * * * * * * * * * * * * * * * * * * * * * * * * * * * * * * //

dimensions      [1 0 -1 0 0 0 0];

internalField   nonuniform List<scalar> 
7429
(
0.000150452
-0.000150453
0.000307572
-0.00015712
0.000466618
-0.000159047
0.0006273
-0.000160683
0.00078958
-0.00016228
0.000953348
-0.000163769
0.00111849
-0.000165142
0.00128489
-0.0001664
0.00145243
-0.000167543
0.00162103
-0.000168602
0.00179058
-0.000169549
0.00196103
-0.000170452
0.00213236
-0.00017133
0.00230452
-0.000172159
0.00247754
-0.000173024
0.00265145
-0.000173908
0.00282627
-0.000174819
0.00300205
-0.000175781
0.00317882
-0.000176774
0.00335659
-0.000177769
0.00353534
-0.000178754
0.00371501
-0.000179661
0.00389547
-0.000180464
0.00407648
-0.000181014
0.00425776
-0.000181283
0.0044389
-0.000181132
0.00461934
-0.000180448
0.00479844
-0.000179101
0.00497547
-0.000177024
0.00514956
-0.000174088
0.00531972
-0.000170164
0.00548497
-0.000165255
0.00564422
-0.000159245
0.00579636
-0.000152137
0.00594014
-0.000143781
0.00607439
-0.000134252
0.00619777
-0.00012338
0.00630963
-0.000111864
0.0064091
-9.94649e-05
0.0064951
-8.60011e-05
0.00656569
-7.05893e-05
0.00662016
-5.44705e-05
0.00665631
-3.61515e-05
0.00667323
-1.69263e-05
0.00666649
6.73953e-06
0.00663556
3.09348e-05
0.00657939
5.61695e-05
0.00649698
8.2409e-05
0.00638751
0.000109472
0.00625038
0.000137127
0.00608528
0.000165108
0.00589203
0.00019325
0.00567099
0.000221035
0.00542247
0.000248518
0.00514751
0.000274957
0.00484683
0.000300687
0.00452207
0.000324755
0.00417427
0.000347808
0.00380566
0.000368608
0.00341784
0.00038782
0.00301382
0.00040402
0.00259616
0.000417654
0.00216829
0.000427872
0.0017338
0.000434496
0.00129663
0.000437166
0.000860921
0.00043571
0.000431127
0.000429795
1.19154e-05
0.000419211
-0.000391495
0.000403411
-0.000774537
0.000383042
-0.00113244
0.000357902
-0.00146027
0.00032783
-0.00175336
0.000293089
-0.00200735
0.000253994
-0.00221834
0.000210989
-0.00238255
0.000164211
-0.00249734
0.000114793
-0.0025602
6.28562e-05
-0.00257102
1.08166e-05
-0.00251878
-5.22357e-05
-0.00240919
-0.000109596
-0.00224507
-0.00016411
-0.00202904
-0.000216038
-0.00176481
-0.000264226
-0.00145623
-0.000308579
-0.00110809
-0.000348139
-0.000727005
-0.000381087
-0.000320039
-0.000406965
0.00010469
-0.000424729
0.000538339
-0.00043365
0.000971197
-0.000432858
0.00139322
-0.000422027
0.00179389
-0.000400667
0.00216313
-0.000369242
0.00249072
-0.000327586
0.00276721
-0.000276495
0.00298404
-0.000216824
0.0031337
-0.000149661
0.00321051
-7.6811e-05
0.00320554
4.97035e-06
0.00311321
9.23248e-05
0.00293762
0.00017559
0.00268284
0.00025478
0.00235392
0.000328929
0.00195778
0.000396137
0.00150354
0.000454238
0.00100286
0.000500683
0.000469618
0.00053324
-8.06227e-05
0.000550241
-0.000630323
0.000549701
-0.00116148
0.000531154
-0.00165528
0.000493802
-0.00209389
0.000438607
-0.00246022
0.000366329
-0.00273926
0.000279042
-0.00291907
0.000179816
-0.00299103
7.19602e-05
-0.0029396
-5.14304e-05
-0.002767
-0.000172598
-0.00248165
-0.000285358
-0.00209334
-0.000388303
-0.00161564
-0.000477699
-0.00106611
-0.000549533
-0.000467156
-0.000598955
0.000154446
-0.000621602
0.000771086
-0.000616641
0.00135229
-0.000581203
0.0018699
-0.000517616
0.00229557
-0.000425663
0.00260611
-0.000310541
0.00278288
-0.00017677
0.00281511
-3.2236e-05
0.00268136
0.000133752
0.00239699
0.000284374
0.00197727
0.000419719
0.00144254
0.000534725
0.000821054
0.00062149
0.000147935
0.000673118
-0.000536721
0.000684656
-0.00118897
0.000652253
-0.00176647
0.000577492
-0.00223022
0.000463751
-0.00254736
0.00031714
-0.00269487
0.000147518
-0.00265174
-4.31361e-05
-0.00241964
-0.000232101
-0.00202088
-0.000398753
-0.00148297
-0.000537918
-0.000845596
-0.000637369
-0.00015835
-0.000687246
0.000524181
-0.000682531
0.00114381
-0.000619632
0.00164788
-0.000504067
0.00199347
-0.000345589
0.0021516
-0.00015813
0.00210048
5.11202e-05
0.0018505
0.000249976
0.00143542
0.000415083
0.000898267
0.000537153
0.000297654
0.000600613
-0.000299102
0.000596756
-0.000821871
0.00052277
-0.00120981
0.000387936
-0.00141704
0.000207233
-0.00141487
-2.16693e-06
-0.00119514
-0.000219729
-0.0007962
-0.000398944
-0.00026774
-0.00052846
0.000321674
-0.000589414
0.000888796
-0.000567122
0.0013539
-0.0004651
0.00164926
-0.000295367
0.00173032
-8.10545e-05
0.00156284
0.000167481
0.00117725
0.000385589
0.000623284
0.000553964
-2.63989e-05
0.000649683
-0.000679957
0.000653558
-0.00124282
0.00056286
-0.00163624
0.00039342
-0.00180758
0.000171338
-0.00172791
-7.967e-05
-0.0014239
-0.000304006
-0.000952241
-0.000471659
-0.000390575
-0.000561666
0.00016929
-0.000559865
0.000637344
-0.000468054
0.000948021
-0.000310677
0.00106627
-0.000118252
0.000984273
8.20005e-05
0.000744551
0.000239722
0.000402951
0.000341599
2.9008e-05
0.000373943
-0.000303202
0.00033221
-0.000544381
0.000241178
-0.000661323
0.000116942
-0.000642415
-1.89086e-05
-0.000505484
-0.000136931
-0.00027792
-0.000227564
-0.00027792
0.000227971
-0.000378424
0.000471875
-0.000401025
0.000718604
-0.000405777
0.000967726
-0.000409805
0.00121891
-0.000413469
0.00147197
-0.00041683
0.00172643
-0.000419599
0.00198194
-0.000421907
0.0022379
-0.000423506
0.00249385
-0.000424559
0.0027492
-0.0004249
0.00300368
-0.00042493
0.00325724
-0.000424892
0.00350988
-0.000424802
0.00376068
-0.000423824
0.00400867
-0.000421897
0.0042531
-0.000419245
0.00449348
-0.000416167
0.0047295
-0.000412788
0.00496094
-0.000409212
0.00518758
-0.000405398
0.00540929
-0.000401371
0.00562582
-0.00039699
0.00583691
-0.000392107
0.00604202
-0.000386397
0.00624067
-0.000379782
0.00643194
-0.000371714
0.00661505
-0.000362213
0.00678885
-0.000350826
0.00695287
-0.000338105
0.00710708
-0.000324373
0.00725167
-0.000309848
0.0073864
-0.000293973
0.00751084
-0.000276582
0.0076245
-0.000257437
0.00772659
-0.000236346
0.00781622
-0.000213013
0.0078919
-0.000187544
0.00795214
-0.0001597
0.00799573
-0.000129591
0.00802236
-9.72191e-05
0.00803065
-6.2759e-05
0.00802097
-2.64711e-05
0.00798045
2.35944e-05
0.00791264
7.455e-05
0.00781757
0.000126004
0.00769511
0.00017863
0.00754511
0.000232409
0.00736745
0.000287129
0.00716205
0.000342525
0.00692892
0.00039824
0.00666828
0.000453888
0.0063806
0.000508714
0.00606619
0.000562929
0.00572595
0.000615205
0.00536108
0.000665551
0.00497264
0.000713194
0.00456223
0.000758226
0.00413185
0.000798984
0.00368366
0.000836014
0.00322026
0.00086742
0.00274482
0.000893095
0.00226069
0.000911995
0.00177181
0.000923378
0.00128221
0.000926762
0.000796475
0.000921449
0.000319277
0.000906993
-0.000144282
0.00088277
-0.000589302
0.000848431
-0.00101012
0.000803865
-0.00140205
0.000749823
-0.00175938
0.000685161
-0.00207763
0.000611346
-0.00235197
0.00052833
-0.00257836
0.00043738
-0.00275254
0.000338388
-0.00287168
0.000233939
-0.00293392
0.000125088
-0.00293426
1.11564e-05
-0.00287059
-0.000115901
-0.00274618
-0.000234004
-0.00256203
-0.000348259
-0.00232141
-0.000456658
-0.00202696
-0.000558675
-0.00168383
-0.000651718
-0.00129733
-0.000734639
-0.000874751
-0.000803662
-0.000423931
-0.000857785
4.61287e-05
-0.000894789
0.000525343
-0.000912864
0.00100318
-0.000910692
0.00146868
-0.000887525
0.00191047
-0.000842461
0.00231738
-0.000776149
0.00267817
-0.000688377
0.00298263
-0.000580961
0.00322122
-0.00045541
0.00338594
-0.000314376
0.00346995
-0.00016083
0.0034643
1.06262e-05
0.00336594
0.000190685
0.00317786
0.000363671
0.00290315
0.000529492
0.00254695
0.000685129
0.00211654
0.000826546
0.0016221
0.000948673
0.00107715
0.00104563
0.000496408
0.00111399
-0.000101888
0.00114854
-0.000699647
0.00114746
-0.00127687
0.00110838
-0.00181323
0.00103016
-0.0022895
0.000914877
-0.00268668
0.000763506
-0.00298848
0.000580842
-0.00318007
0.000371403
-0.00325396
0.000145854
-0.00319451
-0.000110885
-0.00300676
-0.000360341
-0.002696
-0.000596127
-0.00227314
-0.000811159
-0.00175185
-0.000998992
-0.00115292
-0.00114846
-0.000500228
-0.00125165
0.000177176
-0.00129901
0.000848182
-0.00128765
0.00148031
-0.00121333
0.0020417
-0.00107901
0.00250299
-0.000886948
0.0028378
-0.000645354
0.00302685
-0.000365819
0.00305464
-6.00216e-05
0.00290795
0.000280437
0.00259917
0.000593157
0.00214267
0.000876219
0.00156067
0.00111673
0.000884929
0.00129723
0.000153978
0.00140407
-0.000587732
0.00142637
-0.00129331
0.00135783
-0.00191611
0.00120029
-0.00241408
0.000961718
-0.0027515
0.000654564
-0.0029029
0.000298919
-0.00284666
-9.93726e-05
-0.00259082
-0.000487949
-0.00215271
-0.000836858
-0.00156403
-0.0011266
-0.000867674
-0.00133372
-0.000119236
-0.00143569
0.000619339
-0.00142111
0.00128611
-0.0012864
0.00182399
-0.00104195
0.00218638
-0.000707983
0.00234208
-0.000313835
0.00226942
0.000123783
0.00198441
0.000534989
0.00151778
0.00088171
0.000919916
0.00113502
0.000254313
0.00126622
-0.000402833
0.0012539
-0.000975756
0.00109569
-0.00139745
0.000809632
-0.00161758
0.000427356
-0.00160502
-1.47215e-05
-0.00136016
-0.000464594
-0.000918293
-0.000840807
-0.000333787
-0.00111297
0.000316414
-0.00123961
0.000940365
-0.00119107
0.001451
-0.000975734
0.00177501
-0.000619374
0.00186345
-0.000169501
0.00168633
0.000344599
0.00127387
0.000798054
0.000678964
0.00114887
-1.74011e-05
0.00134605
-0.000714037
0.00135019
-0.00130899
0.00115781
-0.00171921
0.000803643
-0.00188874
0.000340867
-0.00179067
-0.000177739
-0.00145681
-0.000637865
-0.000946672
-0.000981796
-0.000347221
-0.00116112
0.000242238
-0.00114932
0.000725704
-0.000951519
0.00103564
-0.000620614
0.001138
-0.000220615
0.00103149
0.000188516
0.000761728
0.000509482
0.000391167
0.00071216
-3.40101e-06
0.000768511
-0.000348823
0.000677633
-0.000591579
0.000483934
-0.00070251
0.000227873
-0.000673459
-4.79594e-05
-0.000525155
-0.000285235
-0.000287112
-0.000465608
-0.000565032
0.000112234
-0.000490659
0.00022961
-0.000518402
0.000345625
-0.000521793
0.000459075
-0.000523256
0.000568173
-0.000522567
0.000672272
-0.000520931
0.000769834
-0.000517162
0.000861984
-0.000514058
0.00094791
-0.000509433
0.00102731
-0.000503957
0.0010989
-0.000496491
0.0011634
-0.000489434
0.00122109
-0.000482582
0.00127302
-0.000476732
0.00132202
-0.000472822
0.00137151
-0.000471388
0.00142401
-0.00047175
0.00148258
-0.000474742
0.00154882
-0.00047902
0.00162501
-0.000485406
0.00171277
-0.000493163
0.00181395
-0.000502545
0.00192939
-0.000512436
0.0020603
-0.000523019
0.00220682
-0.000532916
0.00236931
-0.000542275
0.00254691
-0.000549308
0.00273944
-0.000554742
0.00294476
-0.000556152
0.00316124
-0.000554587
0.00338527
-0.000548402
0.00361385
-0.00053843
0.00384382
-0.000523937
0.00407188
-0.000504644
0.00429546
-0.000481021
0.00451521
-0.000456095
0.00472957
-0.000427377
0.00493781
-0.000395781
0.00513718
-0.00035907
0.00532349
-0.000315899
0.00549365
-0.000267385
0.00564563
-0.000214731
0.00577331
-0.000154157
0.00588609
-8.91809e-05
0.00597399
-1.33574e-05
0.00603256
6.74419e-05
0.00605973
0.000151457
0.00605325
0.000238893
0.00601118
0.000329192
0.0059324
0.000421306
0.00581583
0.000514814
0.00566106
0.000608651
0.00546762
0.00070216
0.00523601
0.000794531
0.00496636
0.000884859
0.0046593
0.000972616
0.00431642
0.00105607
0.00393961
0.00113504
0.00353108
0.00120752
0.00309421
0.00127289
0.00263222
0.00132941
0.0021494
0.00137592
0.00165028
0.00141111
0.00114006
0.00143359
0.000623919
0.00144291
0.000107714
0.00143765
-0.000402753
0.00141746
-0.000900979
0.001381
-0.00138065
0.0013281
-0.00183513
0.00125835
-0.00225795
0.00117265
-0.00264298
0.00107019
-0.00298317
0.000951539
-0.00327382
0.000818977
-0.00350911
0.000672668
-0.00368477
0.000514055
-0.00379612
0.000345291
-0.00383956
0.000168518
-0.0038064
-2.19997e-05
-0.00370416
-0.000218138
-0.00353107
-0.000407094
-0.00328913
-0.000590202
-0.00298023
-0.000765553
-0.0026091
-0.000929803
-0.00218
-0.00108082
-0.00170078
-0.00121386
-0.00117913
-0.00132532
-0.000625061
-0.00141185
-4.94101e-05
-0.00147044
0.000536236
-0.00149851
0.00111929
-0.00149375
0.00168621
-0.00145444
0.00222353
-0.00137979
0.00271774
-0.00127035
0.00315559
-0.00112623
0.00352459
-0.000949966
0.00381362
-0.000744438
0.00401259
-0.000513347
0.00411408
-0.000262318
0.00410722
1.74843e-05
0.0039918
0.000306108
0.00376945
0.000586015
0.00344326
0.000855683
0.00301836
0.00111003
0.00250446
0.00134044
0.001914
0.00153914
0.00126252
0.00169711
0.000568825
0.00180768
-0.00014734
0.0018647
-0.000861862
0.00186198
-0.00155042
0.00179694
-0.00218973
0.00166947
-0.00275533
0.00148048
-0.00322534
0.00123352
-0.00357991
0.000935416
-0.00380516
0.000596652
-0.00388608
0.000226774
-0.00381011
-0.000186855
-0.00358315
-0.0005873
-0.00320988
-0.000969398
-0.00270149
-0.00131955
-0.0020759
-0.00162458
-0.00135903
-0.00186532
-0.000578164
-0.00203252
0.000231818
-0.00210899
0.00103181
-0.00208764
0.00178528
-0.00196679
0.00245192
-0.00174565
0.00299835
-0.00143338
0.00339305
-0.00104006
0.00361141
-0.000584177
0.00363628
-8.4897e-05
0.00345757
0.000459145
0.00308727
0.000963457
0.00253978
0.00142371
0.00184415
0.00181235
0.00103641
0.00210497
0.000165539
0.00227494
-0.000715369
0.00230727
-0.00155068
0.00219314
-0.00228512
0.00193473
-0.00286802
0.00154461
-0.00325669
0.00104324
-0.00342399
0.000466224
-0.00334481
-0.000178555
-0.00302991
-0.000802855
-0.00249894
-0.00136782
-0.00178996
-0.00183558
-0.000955496
-0.00216819
-6.02583e-05
-0.00233092
0.00081267
-0.00229403
0.00159774
-0.00207147
0.00222538
-0.00166958
0.00263845
-0.00112105
0.00280083
-0.000476219
0.00268901
0.000235597
0.00232547
0.000898531
0.00174511
0.00146207
0.0010094
0.00187073
0.000197726
0.00207789
-0.000596331
0.00204796
-0.0012829
0.00178226
-0.00178344
0.00131017
-0.00203897
0.000682888
-0.0020091
-4.45931e-05
-0.00170439
-0.000769301
-0.00116182
-0.00138338
-0.00045047
-0.00182431
0.000338127
-0.00202821
0.00109194
-0.00194489
0.00170671
-0.0015905
0.00209516
-0.00100783
0.00219877
-0.000273105
0.00199124
0.000552121
0.00150509
0.00128421
0.000804995
0.00184896
-1.19086e-05
0.00216295
-0.000821833
0.00216012
-0.00150743
0.00184341
-0.00196841
0.00126462
-0.00214401
0.000516466
-0.00200948
-0.000312266
-0.00160319
-0.00104416
-0.000997951
-0.00158703
-0.00029943
-0.00185964
0.000373682
-0.00182244
0.000911472
-0.00148931
0.00123903
-0.000948173
0.00132149
-0.000303074
0.00116779
0.000342216
0.000832596
0.000844676
0.000394119
0.00115064
-5.93482e-05
0.00122198
-0.000443197
0.00106148
-0.000702917
0.000743655
-0.000809167
0.000334123
-0.00076151
-9.56159e-05
-0.000586266
-0.000460479
-0.000317897
-0.000733976
-0.000882929
0.000255119
-0.000745779
0.000532451
-0.000795734
0.000818527
-0.000807871
0.00111513
-0.000819863
0.00142212
-0.000829553
0.00174219
-0.000841006
0.00207121
-0.000846183
0.00240976
-0.000852608
0.0027483
-0.000847971
0.00308209
-0.000837749
0.00339905
-0.000813455
0.0036964
-0.000786782
0.00397053
-0.00075671
0.00422288
-0.000729089
0.00445356
-0.000703497
0.00466455
-0.00068238
0.00485838
-0.000665581
0.00503843
-0.000654796
0.00520825
-0.000648838
0.00537402
-0.000651179
0.0055398
-0.000658942
0.00570946
-0.000672209
0.0058844
-0.000687373
0.00606823
-0.000706849
0.006259
-0.000723686
0.00645931
-0.000742587
0.00666201
-0.000752006
0.0068682
-0.000760927
0.00706512
-0.000753078
0.00725465
-0.00074412
0.00743615
-0.000729902
0.0076138
-0.00071608
0.00778692
-0.000697059
0.00795619
-0.00067391
0.00811996
-0.000644794
0.00827377
-0.0006099
0.00841512
-0.000568726
0.00854032
-0.000520989
0.00864772
-0.000466472
0.00873694
-0.000405113
0.00880631
-0.000336759
0.00885297
-0.000261389
0.00887842
-0.000179606
0.0088802
-9.09615e-05
0.00884122
2.56262e-05
0.00876164
0.000147019
0.00864517
0.000267923
0.008493
0.000391067
0.00830463
0.000517563
0.00807982
0.000646115
0.00781741
0.000777219
0.00751744
0.000908626
0.00717916
0.00104044
0.00680203
0.00117166
0.00638676
0.00130013
0.0059343
0.00142508
0.00544595
0.00154442
0.00492325
0.00165773
0.00436961
0.00176116
0.00378733
0.00185517
0.00318072
0.00193602
0.00255461
0.00200203
0.00191394
0.00205178
0.00126445
0.00208309
0.000612024
0.00209533
-3.66419e-05
0.00208632
-0.000674052
0.00205487
-0.00129358
0.00200052
-0.00188695
0.00192147
-0.00244667
0.00181807
-0.00296497
0.00169095
-0.00343453
0.00153975
-0.00384753
0.00136454
-0.00419831
0.00116976
-0.00447983
0.000954184
-0.00468556
0.000719792
-0.00481133
0.000471056
-0.00485334
0.000210535
-0.0048044
-7.09449e-05
-0.0046707
-0.000351841
-0.0044508
-0.000626992
-0.00414627
-0.000894734
-0.00375959
-0.00115223
-0.00329587
-0.00139352
-0.00276189
-0.0016148
-0.00216606
-0.00180969
-0.00151972
-0.00197166
-0.000834301
-0.00209727
-0.0001228
-0.00218194
0.000599967
-0.00222128
0.00131858
-0.00221236
0.00201623
-0.00215209
0.00267619
-0.00203975
0.00328243
-0.00187659
0.00381845
-0.00166225
0.00426922
-0.00140074
0.00462259
-0.0010978
0.0048653
-0.000756061
0.00498774
-0.000384758
0.00497834
2.68888e-05
0.00483769
0.000446759
0.00456684
0.000856859
0.0041684
0.00125413
0.00364927
0.00162915
0.00302119
0.00196852
0.00230046
0.00225987
0.00150559
0.00249199
0.000659715
0.00265355
-0.000209965
0.00273438
-0.00107751
0.00272953
-0.00191476
0.00263418
-0.00268971
0.00244442
-0.00337601
0.00216678
-0.0039452
0.00180271
-0.00437433
0.00136455
-0.00464149
0.000863813
-0.00473017
0.000315455
-0.00463298
-0.00028405
-0.004352
-0.000868276
-0.00389371
-0.00142769
-0.00327015
-0.00194311
-0.00250572
-0.00238901
-0.00162771
-0.00274333
-0.000676702
-0.00298353
0.000309156
-0.00309485
0.001282
-0.00306048
0.00219643
-0.00288122
0.00300399
-0.00255321
0.00366269
-0.00209208
0.0041355
-0.00151287
0.00438976
-0.000838431
0.00441581
-0.000110953
0.00419221
0.000682742
0.00373607
0.0014196
0.00306685
0.00209293
0.00221803
0.00266117
0.0012366
0.0030864
0.000179525
0.00333202
-0.000889146
0.00337595
-0.0018997
0.0032037
-0.00278432
0.00281935
-0.00348136
0.00224165
-0.00394325
0.00150513
-0.0041269
0.000649868
-0.0040172
-0.000288258
-0.00362357
-0.00119648
-0.00296679
-0.0020246
-0.00209565
-0.00270673
-0.00107651
-0.00318733
7.92047e-06
-0.00341535
0.00107102
-0.00335714
0.00201639
-0.00301684
0.00276228
-0.00241547
0.00324405
-0.00160282
0.00341283
-0.000645004
0.00325304
0.000395394
0.00278568
0.00136588
0.00205396
0.00219379
0.00113527
0.00278943
0.000128631
0.00308453
-0.000846835
0.00302343
-0.00168631
0.00262173
-0.00229013
0.00191399
-0.0025887
0.000981458
-0.00253823
-9.50667e-05
-0.00215219
-0.00115534
-0.00147441
-0.00206116
-0.000590952
-0.00270777
0.000379951
-0.00299911
0.0013052
-0.00287014
0.00205683
-0.00234213
0.00252809
-0.00147908
0.00264995
-0.000394965
0.0023988
0.000803264
0.00181021
0.0018728
0.000965511
0.00269366
-1.35181e-05
0.00314198
-0.00097677
0.00312337
-0.00178136
0.002648
-0.00231381
0.00179706
-0.00249555
0.000698211
-0.00231169
-0.000496129
-0.00180647
-0.00154938
-0.00107312
-0.00232038
-0.000239805
-0.00269295
0.000544941
-0.00260718
0.00115503
-0.00209939
0.00150629
-0.00129943
0.00156233
-0.000359117
0.00134647
0.000558081
0.000924807
0.00126633
0.00039552
0.00167992
-0.000133498
0.001751
-0.000567961
0.00149594
-0.000847487
0.00102318
-0.000946356
0.000432992
-0.00087461
-0.000167362
-0.00066358
-0.00067151
-0.000356761
-0.00104079
-0.00123969
0.000324169
-0.00106995
0.000672749
-0.00114432
0.00102189
-0.00115701
0.00137009
-0.00116806
0.00171142
-0.00117089
0.00205366
-0.00118324
0.00234289
-0.00113541
0.00255951
-0.00106923
0.00262214
-0.000910599
0.0025633
-0.000778911
0.00240231
-0.00065247
0.00218319
-0.000567664
0.00192391
-0.000497433
0.00164385
-0.000449028
0.00135755
-0.000417196
0.00108014
-0.000404974
0.000825651
-0.000411089
0.000604379
-0.000433525
0.000425905
-0.000470365
0.000296523
-0.000521797
0.000217698
-0.000580118
0.000198205
-0.000652717
0.000236238
-0.000725408
0.000338078
-0.000808689
0.000496416
-0.000882024
0.00072152
-0.000967691
0.000994726
-0.00102521
0.00132367
-0.00108987
0.00167402
-0.00110343
0.00204866
-0.00111876
0.00243575
-0.001117
0.00283132
-0.00111165
0.00323076
-0.0010965
0.00363171
-0.00107486
0.00403206
-0.00104515
0.00442846
-0.0010063
0.00481787
-0.000958134
0.00519739
-0.000900505
0.00556202
-0.000831103
0.00590584
-0.000748936
0.00622777
-0.000658685
0.00651661
-0.000550228
0.00676858
-0.000431574
0.00697644
-0.000298826
0.00715979
-0.000157721
0.00730121
5.59822e-06
0.00739505
0.000174078
0.0074373
0.00034882
0.00742537
0.00052949
0.00735665
0.000714839
0.00723029
0.00090358
0.00704462
0.0010943
0.0067994
0.00128566
0.00649553
0.00147553
0.00613306
0.0016626
0.00571367
0.00184447
0.00524018
0.00201791
0.00471563
0.00218228
0.00414452
0.00233227
0.00353089
0.0024688
0.00288144
0.00258546
0.00220091
0.00268256
0.00149644
0.00275625
0.000775868
0.00280366
4.7232e-05
0.00282396
-0.000681362
0.00281491
-0.00140086
0.00277437
-0.00210189
0.00270155
-0.00277531
0.00259489
-0.00341093
0.00245369
-0.00399934
0.00227935
-0.00453095
0.00207136
-0.00499811
0.0018317
-0.00538979
0.00156144
-0.00569854
0.00126294
-0.00592072
0.000941967
-0.00604846
0.000598793
-0.00607508
0.000237157
-0.00599519
-0.00015083
-0.0058134
-0.000533634
-0.00552894
-0.000911448
-0.00514273
-0.00128095
-0.00465901
-0.00163595
-0.00408395
-0.00196859
-0.00342563
-0.00227312
-0.0026956
-0.00253972
-0.00190517
-0.00276208
-0.00106829
-0.00293416
-0.000201564
-0.00304866
0.000676584
-0.00309943
0.00154797
-0.00308374
0.00239364
-0.00299776
0.00319338
-0.00283948
0.00392753
-0.00261075
0.00457567
-0.00231038
0.00512005
-0.00194513
0.00554294
-0.00152069
0.00583385
-0.00104698
0.00597834
-0.000529247
0.00596553
3.96951e-05
0.0057965
0.000615788
0.00546977
0.0011836
0.00498867
0.00173523
0.00436265
0.00225518
0.0036054
0.00272576
0.0027372
0.00312807
0.00178007
0.00344912
0.000762604
0.00367101
-0.000285982
0.00378297
-0.00133066
0.00377421
-0.0023352
0.00363873
-0.00326501
0.00337423
-0.00408397
0.00298573
-0.00476211
0.00248086
-0.00526915
0.00187158
-0.00557991
0.00117458
-0.00568308
0.000418624
-0.00556073
-0.000406405
-0.00521747
-0.00121153
-0.00466097
-0.00198419
-0.0039074
-0.00269669
-0.00298474
-0.00331167
-0.00192712
-0.00380095
-0.000779892
-0.00413076
0.000402597
-0.00427733
0.00156993
-0.00422782
0.00266431
-0.0039756
0.00362995
-0.00351886
0.00441447
-0.00287659
0.00497391
-0.0020723
0.00527138
-0.0011359
0.00528919
-0.000128759
0.00501589
0.000956035
0.00446186
0.00197364
0.00365241
0.00290238
0.00262765
0.00368594
0.0014488
0.00426525
0.000181708
0.00459911
-0.00109753
0.00465519
-0.00230201
0.00440817
-0.00335288
0.00387022
-0.00417787
0.00306665
-0.00471305
0.00204031
-0.00492059
0.000857409
-0.00477615
-0.000432699
-0.00428642
-0.00168621
-0.00348766
-0.00282336
-0.00243366
-0.00376072
-0.00120563
-0.00441536
9.98712e-05
-0.00472086
0.0013677
-0.00462496
0.00249254
-0.00414168
0.00337503
-0.00329797
0.00392829
-0.00215608
0.00410861
-0.000825318
0.00389058
0.000613421
0.00330008
0.00195639
0.00239631
0.00309755
0.00127313
0.0039126
4.73534e-05
0.00431031
-0.00113275
0.00420353
-0.00214244
0.00363143
-0.0028643
0.00263585
-0.00320734
0.0013245
-0.00313058
-0.00017182
-0.00264879
-0.00163713
-0.00181702
-0.00289294
-0.000741392
-0.0037834
0.000438578
-0.00417908
0.00155545
-0.00398702
0.00245926
-0.00324593
0.00302098
-0.00204081
0.00315802
-0.00053201
0.00285325
0.00110804
0.00214623
0.00257982
0.00113808
0.00370181
-2.45284e-05
0.00430459
-0.00115909
0.00425793
-0.00209839
0.00358731
-0.00270359
0.00240226
-0.00289354
0.000888165
-0.0026502
-0.000739469
-0.00203093
-0.00216866
-0.00115107
-0.00320024
-0.000167454
-0.00367656
0.000739267
-0.0035139
0.00142805
-0.00278817
0.00180149
-0.00167288
0.00182588
-0.000383506
0.00153637
0.00084759
0.00101739
0.00178532
0.000389083
0.00230823
-0.000223134
0.00236321
-0.000708275
0.00198108
-0.00100496
0.00131986
-0.001092
0.000520035
-0.000991096
-0.000268267
-0.000742097
-0.000920508
-0.000395885
-0.00138701
-0.00163558
5.68998e-05
-0.00112685
0.000142018
-0.00122943
0.000297941
-0.00131294
0.000566738
-0.00143686
0.00098088
-0.00158503
0.00157726
-0.00177963
0.00229139
-0.00184954
0.0031049
-0.00188274
0.00379942
-0.00160512
0.0044626
-0.0014421
0.00499469
-0.00118455
0.0053728
-0.000945774
0.00559911
-0.000723752
0.0056993
-0.000549219
0.00570142
-0.000419313
0.00563168
-0.000335236
0.00551099
-0.000290397
0.00535908
-0.000281618
0.00518798
-0.000299262
0.0050144
-0.00034822
0.00484867
-0.000414383
0.0047104
-0.000514449
0.00462164
-0.000636652
0.00462408
-0.000811126
0.00471965
-0.000977601
0.0049475
-0.00119553
0.00523381
-0.00131153
0.00565762
-0.00151368
0.00602408
-0.00146988
0.00640773
-0.00150241
0.00675507
-0.00146434
0.00709422
-0.0014508
0.00741698
-0.00141926
0.00772718
-0.00138506
0.00802298
-0.00134094
0.00830332
-0.00128665
0.00856718
-0.00122199
0.00881213
-0.00114545
0.00903659
-0.00105557
0.00923952
-0.000951866
0.00941247
-0.000831634
0.00956233
-0.000700093
0.00968143
-0.000550674
0.00976975
-0.000387138
0.00982302
-0.000210993
0.00982006
8.5611e-06
0.00976108
0.000233048
0.00965308
0.000456827
0.00949499
0.000687576
0.00928555
0.000924282
0.00902128
0.00116785
0.00870066
0.00141491
0.00832155
0.00166477
0.00788377
0.00191331
0.00738752
0.00215884
0.00683331
0.00239868
0.00622425
0.00262697
0.00556283
0.0028437
0.00485315
0.00304195
0.00409965
0.0032223
0.0033083
0.0033768
0.00248591
0.00350495
0.00164021
0.00360195
0.000779213
0.00366466
-8.86013e-05
0.00369178
-0.000952514
0.00367883
-0.00180431
0.00362617
-0.00263119
0.00352842
-0.00342246
0.00338617
-0.00416746
0.00319869
-0.00485729
0.00296918
-0.00547751
0.00269158
-0.00601788
0.00237208
-0.00647286
0.00201641
-0.00682849
0.00161857
-0.00707981
0.00119329
-0.00721486
0.000733833
-0.00723938
0.00026168
-0.00713798
-0.000252233
-0.00691681
-0.000754801
-0.00657362
-0.00125464
-0.00611133
-0.00174323
-0.00553416
-0.00221312
-0.00484966
-0.00265308
-0.00406866
-0.00305412
-0.00320223
-0.00340615
-0.00226582
-0.0036985
-0.00127705
-0.00392292
-0.000254642
-0.00407107
0.000781117
-0.00413518
0.00180882
-0.00411145
0.00280495
-0.00399389
0.00374614
-0.00378067
0.00460847
-0.00347308
0.00536892
-0.00307084
0.00600623
-0.00258243
0.00650105
-0.00201551
0.00683856
-0.00138449
0.00700368
-0.000694371
0.00698571
5.7666e-05
0.00678384
0.000817663
0.00639539
0.00157204
0.00582713
0.00230349
0.00508949
0.00299282
0.00419817
0.00361708
0.00317598
0.00415026
0.00205215
0.00457295
0.000858456
0.00486471
-0.000370834
0.00501226
-0.00159268
0.00499605
-0.00276774
0.00481379
-0.00385542
0.00446191
-0.00481425
0.00394455
-0.00560319
0.0032698
-0.00618906
0.00245745
-0.00654897
0.00153449
-0.00666236
0.00053201
-0.00651366
-0.000555097
-0.00610511
-0.00162008
-0.00544623
-0.00264308
-0.00455657
-0.00358634
-0.00346911
-0.00439913
-0.00222816
-0.00504191
-0.000883399
-0.00547551
0.000504827
-0.00566556
0.00187159
-0.00559458
0.00315104
-0.00525505
0.00427771
-0.00464554
0.00518975
-0.00378863
0.00583457
-0.00271713
0.00617714
-0.00147847
0.00618396
-0.000135584
0.00585656
0.00128344
0.0052014
0.0026288
0.00424607
0.0038577
0.00304058
0.00489143
0.00165589
0.00564994
0.000167726
0.00608727
-0.00132316
0.00614608
-0.00272542
0.00581042
-0.00394543
0.00509023
-0.00489668
0.0040179
-0.00550882
0.00265245
-0.0057366
0.00108519
-0.0055507
-0.000618597
-0.00496748
-0.00226944
-0.00401606
-0.00377478
-0.00276741
-0.00500937
-0.00132281
-0.00585996
0.000203929
-0.0062476
0.00168749
-0.00610852
0.00299499
-0.00544918
0.00400803
-0.004311
0.00464116
-0.00278921
0.00482173
-0.00100589
0.00454355
0.000891599
0.00382707
0.00267287
0.00274255
0.00418207
0.00140555
0.00524961
-4.031e-05
0.00575617
-0.00143533
0.00559855
-0.00261817
0.00481427
-0.00345475
0.00347242
-0.00384675
0.0017165
-0.0037406
-0.000277971
-0.00315552
-0.00222221
-0.00216012
-0.00388833
-0.000884119
-0.0050594
0.000507285
-0.00557049
0.00182119
-0.00530092
0.00287723
-0.00430198
0.00352869
-0.00269226
0.00368072
-0.000684036
0.00331686
0.0014719
0.00248367
0.00341301
0.00130413
0.00488135
-4.63404e-05
0.00565506
-0.00135561
0.0055672
-0.00243008
0.00466178
-0.00310684
0.00307902
-0.00329694
0.00107826
-0.00298792
-0.00104849
-0.0022495
-0.00290707
-0.00121991
-0.00422983
-7.5593e-05
-0.00482088
0.000944019
-0.00453351
0.00170814
-0.0035523
0.00209949
-0.00206423
0.00208619
-0.000370204
0.0017172
0.00121658
0.00109729
0.00240523
0.000368665
0.00303685
-0.00032251
0.00305439
-0.000852503
0.00251108
-0.00115971
0.00162707
-0.00123095
0.00059128
-0.00109775
-0.000401473
-0.000810185
-0.00120807
-0.00042787
-0.00176932
-0.00206345
0.000371799
-0.00149865
0.000835794
-0.00169343
0.00154558
-0.00202273
0.00269451
-0.00258579
0.00449668
-0.0033872
0.00703847
-0.00432141
0.00990893
-0.00472001
0.0122443
-0.00421809
0.0122359
-0.00159677
0.0107692
2.46235e-05
0.00891812
0.000666538
0.00705247
0.000919873
0.00531001
0.00101871
0.00371461
0.00104618
0.00225925
0.00103604
0.000938309
0.000985706
-0.000248811
0.000896722
-0.00130309
0.000772659
-0.00222264
0.00062029
-0.0030166
0.00044574
-0.00371216
0.000281174
-0.00410662
-0.000119992
-0.00422206
-0.000521211
-0.00407298
-0.0009602
-0.00372573
-0.00132486
-0.00308226
-0.001839
-0.00218354
-0.00221025
-0.000878432
-0.00281879
0.00024569
-0.00259401
0.00120591
-0.00246262
0.00202535
-0.00228379
0.00274613
-0.00217158
0.00340057
-0.00207371
0.00400982
-0.0019943
0.00459039
-0.00192151
0.00514939
-0.00184565
0.00569307
-0.00176568
0.00621847
-0.00167085
0.00672209
-0.00155919
0.00720334
-0.00143312
0.00765258
-0.00128087
0.00805615
-0.00110366
0.00841333
-0.000907861
0.00871527
-0.000689076
0.00895255
-0.000448268
0.00914729
-0.000186185
0.00928585
9.44927e-05
0.00935246
0.000390213
0.00934425
0.000695791
0.0092572
0.00101133
0.00908982
0.00133522
0.00884166
0.00166307
0.00851393
0.00199251
0.00810595
0.00232129