/*--------------------------------*- C++ -*----------------------------------*\
  =========                 |
  \\      /  F ield         | OpenFOAM: The Open Source CFD Toolbox
   \\    /   O peration     | Website:  https://openfoam.org
    \\  /    A nd           | Version:  12
     \\/     M anipulation  |
\*---------------------------------------------------------------------------*/
FoamFile
{
    format      ascii;
    class       volVectorField;
    location    "18";
    object      U;
}
// * * * * * * * * * * * * * * * * * * * * * * * * * * * * * * * * * * * * * //

dimensions      [0 1 -1 0 0 0 0];

internalField   nonuniform List<vector> 
3829
(
(6.56577e-06 -0.000623422 0)
(1.77261e-05 -0.000663026 0)
(3.12789e-05 -0.00066309 0)
(4.35091e-05 -0.000661503 0)
(5.66872e-05 -0.000659363 0)
(6.96292e-05 -0.000656618 0)
(8.28057e-05 -0.00065327 0)
(9.60194e-05 -0.000649299 0)
(0.000109381 -0.000644692 0)
(0.000122794 -0.00063944 0)
(0.000136313 -0.000633536 0)
(0.000149902 -0.000626971 0)
(0.000163521 -0.000619748 0)
(0.000177237 -0.000611851 0)
(0.000191009 -0.000603298 0)
(0.000204859 -0.000594081 0)
(0.000218777 -0.000584214 0)
(0.000232768 -0.00057371 0)
(0.000246836 -0.000562582 0)
(0.000260998 -0.000550858 0)
(0.000275227 -0.000538565 0)
(0.000289534 -0.000525716 0)
(0.00030391 -0.000512345 0)
(0.000318344 -0.000498479 0)
(0.000332817 -0.000484144 0)
(0.000347255 -0.000469388 0)
(0.000361688 -0.000454213 0)
(0.000375994 -0.000438702 0)
(0.000390222 -0.00042283 0)
(0.000404338 -0.000406709 0)
(0.000417936 -0.000390344 0)
(0.000431404 -0.000373755 0)
(0.000444479 -0.00035703 0)
(0.000456851 -0.000340149 0)
(0.000468653 -0.000323136 0)
(0.00047973 -0.000306002 0)
(0.000490041 -0.000288779 0)
(0.000499378 -0.000271475 0)
(0.000507814 -0.000254108 0)
(0.000515272 -0.000236731 0)
(0.000521496 -0.000219409 0)
(0.000526474 -0.000202153 0)
(0.000530116 -0.000185004 0)
(0.000532225 -0.000167988 0)
(0.000532628 -0.000151222 0)
(0.000531125 -0.000134767 0)
(0.00052761 -0.000118687 0)
(0.00052205 -0.000103024 0)
(0.000514379 -8.78405e-05 0)
(0.000504555 -7.31609e-05 0)
(0.000492491 -5.90877e-05 0)
(0.000478123 -4.5577e-05 0)
(0.000461509 -3.27037e-05 0)
(0.000442814 -2.05128e-05 0)
(0.000421903 -9.10301e-06 0)
(0.000398833 1.663e-06 0)
(0.000373851 1.15353e-05 0)
(0.000346951 2.06619e-05 0)
(0.000318286 2.88363e-05 0)
(0.000288026 3.61702e-05 0)
(0.000256393 4.25053e-05 0)
(0.000223407 4.79109e-05 0)
(0.000189498 5.2353e-05 0)
(0.000155155 5.57462e-05 0)
(0.000120242 5.81351e-05 0)
(8.52952e-05 5.95218e-05 0)
(5.07879e-05 5.98839e-05 0)
(1.71235e-05 5.92655e-05 0)
(-1.5675e-05 5.75673e-05 0)
(-4.73696e-05 5.49801e-05 0)
(-7.69467e-05 5.14621e-05 0)
(-0.000104338 4.70993e-05 0)
(-0.000128973 4.1891e-05 0)
(-0.000150882 3.60018e-05 0)
(-0.000169459 2.94405e-05 0)
(-0.000184317 2.23932e-05 0)
(-0.000195274 1.48951e-05 0)
(-0.000202434 7.06871e-06 0)
(-0.000205411 -8.99927e-07 0)
(-0.0002035 -8.80627e-06 0)
(-0.000197244 -1.66652e-05 0)
(-0.000186131 -2.41499e-05 0)
(-0.000170912 -3.13634e-05 0)
(-0.000151773 -3.79412e-05 0)
(-0.00012865 -4.38448e-05 0)
(-0.000102431 -4.89742e-05 0)
(-7.34224e-05 -5.30725e-05 0)
(-4.1886e-05 -5.61059e-05 0)
(-8.50878e-06 -5.79704e-05 0)
(2.58341e-05 -5.85973e-05 0)
(6.04531e-05 -5.79035e-05 0)
(9.45857e-05 -5.59089e-05 0)
(0.000127439 -5.26036e-05 0)
(0.000158178 -4.80197e-05 0)
(0.000186008 -4.22394e-05 0)
(0.00021011 -3.53609e-05 0)
(0.000229796 -2.75316e-05 0)
(0.00024439 -1.89176e-05 0)
(0.000253416 -9.72376e-06 0)
(0.000256231 -1.76391e-07 0)
(0.00025228 9.4587e-06 0)
(0.000241547 1.89591e-05 0)
(0.000224278 2.80325e-05 0)
(0.000200903 3.64545e-05 0)
(0.000171984 4.38918e-05 0)
(0.000137965 5.01167e-05 0)
(9.98356e-05 5.49197e-05 0)
(5.85131e-05 5.80056e-05 0)
(1.49866e-05 5.94384e-05 0)
(-2.91301e-05 5.88465e-05 0)
(-7.23354e-05 5.64189e-05 0)
(-0.000113185 5.20615e-05 0)
(-0.000150479 4.58583e-05 0)
(-0.000182557 3.81071e-05 0)
(-0.000208395 2.88079e-05 0)
(-0.00022666 1.86162e-05 0)
(-0.000236603 7.47062e-06 0)
(-0.000237274 -3.79055e-06 0)
(-0.000228189 -1.51142e-05 0)
(-0.000209799 -2.56934e-05 0)
(-0.00018268 -3.54244e-05 0)
(-0.000148072 -4.36144e-05 0)
(-0.000106848 -4.99874e-05 0)
(-6.10944e-05 -5.41579e-05 0)
(-1.1865e-05 -5.5809e-05 0)
(3.80361e-05 -5.49672e-05 0)
(8.59222e-05 -5.14031e-05 0)
(0.000129926 -4.54771e-05 0)
(0.000167469 -3.71416e-05 0)
(0.00019689 -2.69562e-05 0)
(0.000216316 -1.53412e-05 0)
(0.0002245 -2.92888e-06 0)
(0.000220206 9.6497e-06 0)
(0.000203306 2.16897e-05 0)
(0.000175072 3.26536e-05 0)
(0.000136624 4.16654e-05 0)
(9.03284e-05 4.83215e-05 0)
(3.86126e-05 5.19746e-05 0)
(-1.64699e-05 5.26e-05 0)
(-7.04745e-05 4.96777e-05 0)
(-0.000119602 4.38187e-05 0)
(-0.000161186 3.49161e-05 0)
(-0.000192324 2.39303e-05 0)
(-0.000210678 1.12085e-05 0)
(-0.000214596 -1.98724e-06 0)
(-0.000203234 -1.50705e-05 0)
(-0.000177746 -2.67554e-05 0)
(-0.000139994 -3.64724e-05 0)
(-9.26991e-05 -4.31188e-05 0)
(-3.94702e-05 -4.62871e-05 0)
(1.6109e-05 -4.57377e-05 0)
(6.87498e-05 -4.12752e-05 0)
(0.000113592 -3.34477e-05 0)
(0.00014744 -2.28956e-05 0)
(0.000167343 -1.06604e-05 0)
(0.00017123 2.15329e-06 0)
(0.000158641 1.42926e-05 0)
(0.000131547 2.46338e-05 0)
(9.30642e-05 3.20871e-05 0)
(4.7086e-05 3.58166e-05 0)
(-1.80609e-06 3.54911e-05 0)
(-4.7428e-05 3.09628e-05 0)
(-8.38308e-05 2.29378e-05 0)
(-0.000107474 1.23111e-05 0)
(-0.000115379 4.24002e-07 0)
(-0.000106057 -1.1209e-05 0)
(-8.09471e-05 -2.12892e-05 0)
(-4.35523e-05 -2.84678e-05 0)
(3.03969e-06 -3.17164e-05 0)
(5.11707e-05 -3.03895e-05 0)
(9.24999e-05 -2.48362e-05 0)
(0.000122765 -1.57296e-05 0)
(0.000137499 -4.37254e-06 0)
(0.000133458 7.7046e-06 0)
(0.00011073 1.88014e-05 0)
(7.27711e-05 2.73755e-05 0)
(2.3341e-05 3.20895e-05 0)
(-3.0753e-05 3.21897e-05 0)
(-8.00278e-05 2.76303e-05 0)
(-0.000118016 1.93168e-05 0)
(-0.000140079 8.57994e-06 0)
(-0.000142955 -2.95408e-06 0)
(-0.000126652 -1.33958e-05 0)
(-9.47034e-05 -2.13157e-05 0)
(-5.25865e-05 -2.5427e-05 0)
(-6.61019e-06 -2.53825e-05 0)
(3.50263e-05 -2.1181e-05 0)
(6.57724e-05 -1.4131e-05 0)
(8.22923e-05 -5.56723e-06 0)
(8.29214e-05 2.87585e-06 0)
(6.91954e-05 9.86291e-06 0)
(4.53165e-05 1.42968e-05 0)
(1.60693e-05 1.56949e-05 0)
(-1.22934e-05 1.39416e-05 0)
(-3.50052e-05 1.0096e-05 0)
(-4.89604e-05 4.96605e-06 0)
(-5.22605e-05 -4.83533e-07 0)
(-4.57843e-05 -5.37311e-06 0)
(-3.10504e-05 -8.96441e-06 0)
(-1.09687e-05 -1.08757e-05 0)
(9.72535e-06 0.000331072 0)
(3.15739e-05 0.000359279 0)
(5.37011e-05 0.000359668 0)
(7.60776e-05 0.000359241 0)
(9.86486e-05 0.000358574 0)
(0.000121409 0.000357671 0)
(0.000144322 0.000356499 0)
(0.000167331 0.00035499 0)
(0.000190463 0.000353116 0)
(0.000213556 0.000350811 0)
(0.000236669 0.000348034 0)
(0.000259701 0.000344695 0)
(0.000282649 0.00034077 0)
(0.000305482 0.000336193 0)
(0.000328102 0.000330894 0)
(0.000350566 0.000324855 0)
(0.000372713 0.000318058 0)
(0.00039456 0.000310516 0)
(0.000416021 0.000302242 0)
(0.000437007 0.000293302 0)
(0.000457614 0.00028374 0)
(0.000477836 0.000273651 0)
(0.000497558 0.000263091 0)
(0.000516827 0.000252212 0)
(0.000535513 0.000241112 0)
(0.000553714 0.000229912 0)
(0.000571222 0.000218762 0)
(0.000588096 0.000207825 0)
(0.00060423 0.000197166 0)
(0.000619396 0.000186973 0)
(0.000633772 0.000177409 0)
(0.000647227 0.000168465 0)
(0.000659756 0.000160335 0)
(0.000671453 0.000152956 0)
(0.000682236 0.000146483 0)
(0.000691917 0.000140866 0)
(0.00070052 0.000136177 0)
(0.000707982 0.000132455 0)
(0.000714184 0.000129791 0)
(0.000718823 0.000128242 0)
(0.000721884 0.000127835 0)
(0.000723478 0.000128613 0)
(0.000723443 0.00013052 0)
(0.000721157 0.000133528 0)
(0.00071627 0.000137664 0)
(0.000708902 0.000142908 0)
(0.000699069 0.000149192 0)
(0.000686755 0.000156401 0)
(0.000672002 0.000164424 0)
(0.000654591 0.000173122 0)
(0.000634776 0.000182372 0)
(0.000612671 0.000192056 0)
(0.000587867 0.000201819 0)
(0.000560444 0.000211749 0)
(0.000531158 0.000221356 0)
(0.000499366 0.000230675 0)
(0.000465335 0.00023931 0)
(0.000429318 0.000247283 0)
(0.000391261 0.000254072 0)
(0.000351608 0.000259791 0)
(0.000310366 0.000263914 0)
(0.000268149 0.000266564 0)
(0.000224673 0.000267353 0)
(0.000180791 0.000266304 0)
(0.000136753 0.000263106 0)
(9.27902e-05 0.000257849 0)
(4.95671e-05 0.000250304 0)
(7.17166e-06 0.000240498 0)
(-3.37898e-05 0.000228339 0)
(-7.28462e-05 0.000214017 0)
(-0.00010942 0.000197464 0)
(-0.00014331 0.000178851 0)
(-0.000173637 0.000158347 0)
(-0.000200399 0.000135972 0)
(-0.000222954 0.000112216 0)
(-0.000240835 8.70861e-05 0)
(-0.000254132 6.10892e-05 0)
(-0.000262396 3.44443e-05 0)
(-0.000264991 7.67704e-06 0)
(-0.000261987 -1.88869e-05 0)
(-0.000253516 -4.47492e-05 0)
(-0.000239412 -6.96287e-05 0)
(-0.000220342 -9.30356e-05 0)
(-0.000196001 -0.000114566 0)
(-0.000167298 -0.000133714 0)
(-0.000134393 -0.000150252 0)
(-9.78532e-05 -0.000163509 0)
(-5.84886e-05 -0.000173374 0)
(-1.68812e-05 -0.000179423 0)
(2.60053e-05 -0.000181613 0)
(6.91799e-05 -0.000179638 0)
(0.00011164 -0.000173562 0)
(0.000152557 -0.000163289 0)
(0.000190811 -0.000149068 0)
(0.00022542 -0.000131055 0)
(0.000255385 -0.000109637 0)
(0.00027984 -8.52328e-05 0)
(0.000297972 -5.83723e-05 0)
(0.000309157 -2.97032e-05 0)
(0.000312632 6.16916e-08 0)
(0.000307901 3.01164e-05 0)
(0.000294918 5.96874e-05 0)
(0.000273974 8.79639e-05 0)
(0.000245436 0.000114113 0)
(0.000209908 0.00013725 0)
(0.000168227 0.000156607 0)
(0.000121239 0.000171384 0)
(7.06305e-05 0.00018111 0)
(1.722e-05 0.000185165 0)
(-3.70399e-05 0.000183375 0)
(-8.99077e-05 0.000175547 0)
(-0.000140222 0.000161735 0)
(-0.0001858 0.000142352 0)
(-0.00022522 0.000117856 0)
(-0.000256614 8.9118e-05 0)
(-0.000278832 5.69603e-05 0)
(-0.000290767 2.2582e-05 0)
(-0.000291243 -1.2815e-05 0)
(-0.00027994 -4.77576e-05 0)
(-0.000257236 -8.09377e-05 0)
(-0.000224065 -0.000110946 0)
(-0.000181328 -0.000136364 0)
(-0.000130665 -0.000156032 0)
(-7.41162e-05 -0.000168814 0)
(-1.36952e-05 -0.000173852 0)
(4.75812e-05 -0.000170978 0)
(0.000106306 -0.000159738 0)
(0.000160228 -0.000141027 0)
(0.000206387 -0.000115049 0)
(0.000242183 -8.33297e-05 0)
(0.000265674 -4.71489e-05 0)
(0.000275256 -8.46949e-06 0)
(0.000269638 3.06138e-05 0)
(0.000248968 6.82334e-05 0)
(0.000214275 0.000101995 0)
(0.000167024 0.000130016 0)
(0.000110113 0.000150325 0)
(4.67395e-05 0.000161678 0)
(-2.07495e-05 0.00016302 0)
(-8.67201e-05 0.00015406 0)
(-0.000146608 0.000135144 0)
(-0.000197167 0.000107704 0)
(-0.000234724 7.2978e-05 0)
(-0.000256512 3.38601e-05 0)
(-0.000260541 -7.56871e-06 0)
(-0.000246048 -4.78291e-05 0)
(-0.000214324 -8.42854e-05 0)
(-0.000167656 -0.000113971 0)
(-0.000109118 -0.000134485 0)
(-4.38312e-05 -0.000144059 0)
(2.42394e-05 -0.000141773 0)
(8.85229e-05 -0.000127658 0)
(0.000142847 -0.000102993 0)
(0.000183309 -7.00815e-05 0)
(0.00020633 -3.1697e-05 0)
(0.000209632 8.23488e-06 0)
(0.000192849 4.61344e-05 0)
(0.000158323 7.80851e-05 0)
(0.000109712 0.000100999 0)
(5.21148e-05 0.000112317 0)
(-8.82804e-06 0.000110778 0)
(-6.54284e-05 9.6295e-05 0)
(-0.000110286 7.09581e-05 0)
(-0.000139054 3.77074e-05 0)
(-0.000148003 4.71008e-07 0)
(-0.000135836 -3.5938e-05 0)
(-0.000104357 -6.72604e-05 0)
(-5.75502e-05 -8.94137e-05 0)
(4.59974e-07 -9.93173e-05 0)
(6.01434e-05 -9.4968e-05 0)
(0.000111439 -7.73724e-05 0)
(0.000148918 -4.89236e-05 0)
(0.000167117 -1.33636e-05 0)
(0.000162421 2.41424e-05 0)
(0.000135043 5.8567e-05 0)
(8.90206e-05 8.49104e-05 0)
(2.9181e-05 9.93144e-05 0)
(-3.60436e-05 9.92304e-05 0)
(-9.51862e-05 8.4819e-05 0)
(-0.00014021 5.88465e-05 0)
(-0.000165739 2.54056e-05 0)
(-0.000167995 -1.00712e-05 0)
(-0.000147343 -4.22994e-05 0)
(-0.000108118 -6.62083e-05 0)
(-5.70854e-05 -7.85505e-05 0)
(-2.0164e-06 -7.76566e-05 0)
(4.71063e-05 -6.4365e-05 0)
(8.23564e-05 -4.22479e-05 0)
(0.000100158 -1.58483e-05 0)
(9.89515e-05 1.00743e-05 0)
(8.09318e-05 3.11672e-05 0)
(5.12494e-05 4.43247e-05 0)
(1.5729e-05 4.8092e-05 0)
(-1.78338e-05 4.2368e-05 0)
(-4.37946e-05 3.03975e-05 0)
(-5.92071e-05 1.45301e-05 0)
(-6.21632e-05 -2.01361e-06 0)
(-5.3818e-05 -1.66628e-05 0)
(-3.62071e-05 -2.74254e-05 0)
(-1.27462e-05 -3.31064e-05 0)
(5.41643e-06 -0.00088323 0)
(1.73485e-05 -0.000935065 0)
(2.92414e-05 -0.000934961 0)
(4.08723e-05 -0.000932685 0)
(5.22243e-05 -0.000929272 0)
(6.30601e-05 -0.000924797 0)
(7.33681e-05 -0.000918814 0)
(8.30244e-05 -0.000911451 0)
(9.21497e-05 -0.000902313 0)
(0.000100578 -0.000891592 0)
(0.000108207 -0.000879141 0)
(0.000115123 -0.00086528 0)
(0.000121493 -0.000850109 0)
(0.000127019 -0.000833914 0)
(0.000132084 -0.000816823 0)
(0.000137114 -0.000799073 0)
(0.000142303 -0.000780854 0)
(0.000147893 -0.000762352 0)
(0.00015421 -0.000743667 0)
(0.000161447 -0.000724925 0)
(0.000169768 -0.00070608 0)
(0.000179254 -0.000687232 0)
(0.000190209 -0.000668238 0)
(0.000202854 -0.000649136 0)
(0.000216922 -0.000629606 0)
(0.000232642 -0.000609836 0)
(0.000250214 -0.00058932 0)
(0.000269004 -0.000568382 0)
(0.000289118 -0.000546512 0)
(0.000311063 -0.00052406 0)
(0.000333321 -0.000500691 0)
(0.000356368 -0.000476693 0)
(0.000379693 -0.000451763 0)
(0.000402813 -0.000425825 0)
(0.000425951 -0.000398817 0)
(0.000448426 -0.000370652 0)
(0.000470518 -0.00034118 0)
(0.000491962 -0.000310619 0)
(0.000512711 -0.00027891 0)
(0.000532298 -0.000246244 0)
(0.000550457 -0.000212666 0)
(0.000566834 -0.00017825 0)
(0.00058104 -0.000143131 0)
(0.000593281 -0.000107373 0)
(0.000603458 -7.09889e-05 0)
(0.000610963 -3.42227e-05 0)
(0.000615266 2.67058e-06 0)
(0.000616191 3.95177e-05 0)
(0.000613613 7.60932e-05 0)
(0.000607463 0.000112236 0)
(0.000597819 0.00014774 0)
(0.000583671 0.000182319 0)
(0.000565966 0.000215771 0)
(0.000544372 0.00024795 0)
(0.000518613 0.00027843 0)
(0.000489224 0.000306918 0)
(0.000456368 0.000333259 0)
(0.00041967 0.000357083 0)
(0.000379625 0.000378117 0)
(0.000336556 0.000395958 0)
(0.000290684 0.000410568 0)
(0.000242767 0.0004215 0)
(0.000192732 0.000428565 0)
(0.000141503 0.000431626 0)
(8.92563e-05 0.000430406 0)
(3.68485e-05 0.000424856 0)
(-1.54762e-05 0.000414846 0)
(-6.68197e-05 0.000400323 0)
(-0.000116482 0.00038142 0)
(-0.000164114 0.0003581 0)
(-0.000208829 0.000330688 0)
(-0.000249744 0.000299172 0)
(-0.000286829 0.000264181 0)
(-0.000318981 0.000225701 0)
(-0.000345726 0.000184543 0)
(-0.000366704 0.000140856 0)
(-0.000381059 9.54701e-05 0)
(-0.000388873 4.89343e-05 0)
(-0.00038949 2.00962e-06 0)
(-0.000382468 -4.46719e-05 0)
(-0.000368502 -9.02076e-05 0)
(-0.000347282 -0.00013416 0)
(-0.000319233 -0.00017534 0)
(-0.00028452 -0.000213195 0)
(-0.000243819 -0.000246881 0)
(-0.000197514 -0.000275636 0)
(-0.000146392 -0.000298784 0)
(-9.15903e-05 -0.000315754 0)
(-3.40083e-05 -0.000326062 0)
(2.50656e-05 -0.000329277 0)
(8.45697e-05 -0.000325117 0)
(0.000143105 -0.000313586 0)
(0.000199363 -0.00029464 0)
(0.000251783 -0.000268605 0)
(0.000299232 -0.000235875 0)
(0.000340206 -0.000197121 0)
(0.000373694 -0.000153015 0)
(0.00039849 -0.000104708 0)
(0.000413712 -5.30454e-05 0)
(0.000418452 3.87641e-07 0)
(0.000412139 5.44189e-05 0)
(0.000394866 0.000107523 0)
(0.000366884 0.000158236 0)
(0.000328563 0.000204951 0)
(0.000280782 0.000246208 0)
(0.00022438 0.00028075 0)
(0.000161143 0.000306886 0)
(9.26183e-05 0.000324016 0)
(2.05475e-05 0.000331067 0)
(-5.23728e-05 0.000327545 0)
(-0.000124007 0.000313222 0)
(-0.000191581 0.000288416 0)
(-0.000252911 0.000253559 0)
(-0.000305446 0.000209661 0)
(-0.000347362 0.00015796 0)
(-0.000376759 0.000100185 0)
(-0.00039221 3.85645e-05 0)
(-0.000392361 -2.47705e-05 0)
(-0.000376697 -8.71818e-05 0)
(-0.000345978 -0.000146636 0)
(-0.000300812 -0.000199923 0)
(-0.000243098 -0.000245329 0)
(-0.000174521 -0.000279844 0)
(-9.79138e-05 -0.000302504 0)
(-1.64457e-05 -0.000311153 0)
(6.61996e-05 -0.000305507 0)
(0.00014522 -0.000285114 0)
(0.000217485 -0.000251035 0)
(0.000279295 -0.00020442 0)
(0.000327013 -0.000147374 0)
(0.000358164 -8.26025e-05 0)
(0.000370192 -1.34961e-05 0)
(0.000362266 5.6576e-05 0)
(0.000334033 0.000123616 0)
(0.000286945 0.000183724 0)
(0.000223162 0.000233298 0)
(0.000146404 0.000269243 0)
(6.09026e-05 0.000288891 0)
(-2.95513e-05 0.000290722 0)
(-0.000118015 0.000274202 0)
(-0.000197828 0.000240071 0)
(-0.000264923 0.0001904 0)
(-0.000314172 0.000128335 0)
(-0.000342095 5.78259e-05 0)
(-0.000346376 -1.61139e-05 0)
(-0.000325606 -8.79022e-05 0)
(-0.000282079 -0.000152881 0)
(-0.000218339 -0.000205341 0)
(-0.000139177 -0.000241453 0)
(-5.07469e-05 -0.000257758 0)
(4.06027e-05 -0.00025238 0)
(0.000126267 -0.000226209 0)
(0.000198107 -0.000181434 0)
(0.000250938 -0.000121875 0)
(0.000279768 -5.28849e-05 0)
(0.000281717 1.87665e-05 0)
(0.000256701 8.6423e-05 0)
(0.000207734 0.000143475 0)
(0.000140106 0.000183734 0)
(6.04638e-05 0.000203311 0)
(-2.31482e-05 0.000199361 0)
(-0.000100068 0.000172568 0)
(-0.000160469 0.000126271 0)
(-0.000198669 6.60988e-05 0)
(-0.000209601 -9.26973e-07 0)
(-0.000191756 -6.64676e-05 0)
(-0.000147884 -0.000122537 0)
(-8.32834e-05 -0.000161823 0)
(-3.87647e-06 -0.000179109 0)
(7.75398e-05 -0.000170725 0)
(0.000147351 -0.000138796 0)
(0.00019821 -8.73885e-05 0)
(0.000222682 -2.3773e-05 0)
(0.0002164 4.3376e-05 0)
(0.000180041 0.000104499 0)
(0.000118767 0.000151011 0)
(3.93997e-05 0.000175918 0)
(-4.65977e-05 0.00017494 0)
(-0.000123887 0.000148604 0)
(-0.00018187 0.000102052 0)
(-0.000213356 4.24652e-05 0)
(-0.000214158 -2.03762e-05 0)
(-0.000185064 -7.67487e-05 0)
(-0.000132049 -0.000118193 0)
(-6.43347e-05 -0.000138572 0)
(7.51157e-06 -0.000135768 0)
(7.00781e-05 -0.000110927 0)
(0.000113314 -7.12237e-05 0)
(0.000133021 -2.4302e-05 0)
(0.000128023 2.08421e-05 0)
(0.000101719 5.70917e-05 0)
(6.1252e-05 7.89626e-05 0)
(1.43367e-05 8.40822e-05 0)
(-2.84379e-05 7.32545e-05 0)
(-6.01583e-05 5.14951e-05 0)
(-7.79419e-05 2.36488e-05 0)
(-7.98615e-05 -4.82209e-06 0)
(-6.80291e-05 -2.96107e-05 0)
(-4.52921e-05 -4.76454e-05 0)
(-1.58514e-05 -5.70148e-05 0)
(1.34827e-05 2.44176e-05 0)
(4.48516e-05 3.83815e-05 0)
(7.67712e-05 4.34905e-05 0)
(0.000110177 5.02668e-05 0)
(0.000144233 6.00309e-05 0)
(0.000180209 7.13446e-05 0)
(0.00021748 8.60315e-05 0)
(0.000255908 0.000100941 0)
(0.000295374 0.000118484 0)
(0.000334302 0.000134012 0)
(0.000372239 0.000148546 0)
(0.000407621 0.000159528 0)
(0.000440676 0.000167514 0)
(0.000470979 0.000171459 0)
(0.000498899 0.000171792 0)
(0.000524405 0.000167868 0)
(0.000547651 0.000160471 0)
(0.000569206 0.00014886 0)
(0.000589246 0.000134745 0)
(0.000608505 0.000117439 0)
(0.000627346 9.7897e-05 0)
(0.000646353 7.60656e-05 0)
(0.000665821 5.32143e-05 0)
(0.000686681 2.9185e-05 0)
(0.000707939 5.32489e-06 0)
(0.000730515 -1.84324e-05 0)
(0.000753577 -4.05275e-05 0)
(0.00077694 -6.15807e-05 0)
(0.000800307 -7.94874e-05 0)
(0.000822624 -9.52925e-05 0)
(0.000844016 -0.000107765 0)
(0.000864128 -0.000117551 0)
(0.000884639 -0.000124094 0)
(0.000904403 -0.000127683 0)
(0.000923266 -0.000128081 0)
(0.000941617 -0.000125577 0)
(0.000958478 -0.000119826 0)
(0.000973621 -0.000110792 0)
(0.00098715 -9.83018e-05 0)
(0.000998296 -8.2294e-05 0)
(0.00100742 -6.28003e-05 0)
(0.00101411 -3.98399e-05 0)
(0.00101821 -1.35938e-05 0)
(0.00101972 1.56806e-05 0)
(0.00101753 4.76147e-05 0)
(0.00101065 8.21118e-05 0)
(0.000999382 0.000119003 0)
(0.000983905 0.000157921 0)
(0.000964318 0.000198559 0)
(0.000940565 0.000240253 0)
(0.00091242 0.00028278 0)
(0.000879952 0.000325535 0)
(0.000843508 0.000368002 0)
(0.000802313 0.000409582 0)
(0.000756479 0.000449738 0)
(0.000706643 0.000488013 0)
(0.000652825 0.000523677 0)
(0.00059481 0.000556095 0)
(0.000532576 0.000585039 0)
(0.000467456 0.000609549 0)
(0.000399427 0.000629566 0)
(0.000328585 0.000644278 0)
(0.000255873 0.000653481 0)
(0.00018184 0.000656676 0)
(0.000107081 0.000653644 0)
(3.24341e-05 0.000644113 0)
(-4.14795e-05 0.000627901 0)
(-0.00011359 0.000605056 0)
(-0.00018328 0.000575429 0)
(-0.000249463 0.000539299 0)
(-0.000311464 0.000496807 0)
(-0.000368142 0.000448334 0)
(-0.00041876 0.000394175 0)
(-0.000462662 0.000335189 0)
(-0.000498854 0.000271752 0)
(-0.000526975 0.000204896 0)
(-0.000545839 0.000135318 0)
(-0.000555427 6.39394e-05 0)
(-0.000555035 -7.996e-06 0)
(-0.000544382 -7.94906e-05 0)
(-0.000524325 -0.000149359 0)
(-0.000494075 -0.000216369 0)
(-0.000454078 -0.000279373 0)
(-0.000405192 -0.000336994 0)
(-0.000347838 -0.000388243 0)
(-0.000282819 -0.000431837 0)
(-0.000211385 -0.000466818 0)
(-0.000134971 -0.000492241 0)
(-5.46427e-05 -0.00050728 0)
(2.79959e-05 -0.00051148 0)
(0.000110787 -0.000504392 0)
(0.000192072 -0.000485887 0)
(0.00027017 -0.000456167 0)
(0.000342857 -0.00041544 0)
(0.00040839 -0.000364512 0)
(0.00046512 -0.000304234 0)
(0.000511166 -0.000235939 0)
(0.000545391 -0.000161041 0)
(0.000566292 -8.14602e-05 0)
(0.000572576 1.25978e-06 0)
(0.000564091 8.44369e-05 0)
(0.000540347 0.000166297 0)
(0.000501686 0.000244294 0)
(0.000448698 0.000316145 0)
(0.000383034 0.000379492 0)
(0.00030524 0.000432169 0)
(0.000217834 0.000472361 0)
(0.000123963 0.000498254 0)
(2.488e-05 0.000508758 0)
(-7.55353e-05 0.000502867 0)
(-0.000173397 0.000480326 0)
(-0.000266028 0.000441682 0)
(-0.000349952 0.000387646 0)
(-0.000422166 0.000319804 0)
(-0.000479557 0.000240091 0)
(-0.000519187 0.000151202 0)
(-0.00053944 5.64892e-05 0)
(-0.000538679 -4.08099e-05 0)
(-0.000517003 -0.000136722 0)
(-0.000474096 -0.000227698 0)
(-0.000411747 -0.000309601 0)
(-0.000331685 -0.000378506 0)
(-0.000237097 -0.000431248 0)
(-0.000131868 -0.000465096 0)
(-1.94795e-05 -0.000478179 0)
(9.39255e-05 -0.000468553 0)
(0.0002025 -0.000436986 0)
(0.000301261 -0.000383778 0)
(0.000385585 -0.00031185 0)
(0.000450422 -0.000223755 0)
(0.000492004 -0.00012407 0)
(0.000507868 -1.78715e-05 0)
(0.000496216 8.96734e-05 0)
(0.000456708 0.000192122 0)
(0.000391453 0.000284092 0)
(0.000303622 0.000359326 0)
(0.000197952 0.000413942 0)
(8.03615e-05 0.000442996 0)
(-4.32852e-05 0.000444919 0)
(-0.000163845 0.000418562 0)
(-0.000272808 0.000365519 0)
(-0.000363556 0.000288768 0)
(-0.000429897 0.000192864 0)
(-0.00046677 8.46071e-05 0)
(-0.000470326 -2.87478e-05 0)
(-0.000440691 -0.000138899 0)
(-0.000379625 -0.000237847 0)
(-0.000290983 -0.000317398 0)
(-0.000181413 -0.000371678 0)
(-5.89929e-05 -0.000395677 0)
(6.62599e-05 -0.00038564 0)
(0.000182372 -0.000344409 0)
(0.000279443 -0.000274373 0)
(0.000349788 -0.000181701 0)
(0.00038647 -7.53921e-05 0)
(0.000386086 3.53538e-05 0)
(0.000349043 0.000139184 0)
(0.000278864 0.0002261 0)
(0.000183076 0.000287134 0)
(7.12007e-05 0.000315866 0)
(-4.53955e-05 0.000308019 0)
(-0.000151642 0.000265314 0)
(-0.000234539 0.000192923 0)
(-0.000285891 9.90058e-05 0)
(-0.000299353 -4.69436e-06 0)
(-0.000273134 -0.00010587 0)
(-0.000210856 -0.000191828 0)
(-0.000120118 -0.000251824 0)
(-9.46843e-06 -0.000277477 0)
(0.000103368 -0.000263617 0)
(0.000200008 -0.000213577 0)
(0.000269886 -0.000134118 0)
(0.000303141 -3.58564e-05 0)
(0.000294384 6.68254e-05 0)
(0.000244578 0.000160194 0)
(0.000160952 0.000230305 0)
(5.31379e-05 0.000267489 0)
(-6.26993e-05 0.000264428 0)
(-0.000165826 0.000223239 0)
(-0.000242014 0.000151362 0)
(-0.000281886 6.04603e-05 0)
(-0.000279879 -3.48758e-05 0)
(-0.000238176 -0.000119775 0)
(-0.000164972 -0.000180973 0)
(-7.32145e-05 -0.000209935 0)
(2.25492e-05 -0.000203005 0)
(0.000104104 -0.000163605 0)
(0.000158091 -0.000102066 0)
(0.000179807 -3.09626e-05 0)
(0.000168636 3.67909e-05 0)
(0.000130187 8.97995e-05 0)
(7.3956e-05 0.000120543 0)
(1.11449e-05 0.000126131 0)
(-4.4354e-05 0.000107903 0)
(-8.37885e-05 7.41326e-05 0)
(-0.00010416 3.23114e-05 0)
(-0.000104226 -9.48515e-06 0)
(-8.72831e-05 -4.51384e-05 0)
(-5.74043e-05 -7.0619e-05 0)
(-1.99378e-05 -8.3836e-05 0)
(1.94211e-05 -0.00121526 0)
(6.44296e-05 -0.00128965 0)
(0.000108925 -0.00129748 0)
(0.000154745 -0.00130582 0)
(0.000198313 -0.00131258 0)
(0.000244092 -0.00132247 0)
(0.000284221 -0.00132562 0)
(0.000319533 -0.00133009 0)
(0.000338534 -0.00132064 0)
(0.000336061 -0.00130126 0)
(0.00032194 -0.0012623 0)
(0.000295273 -0.00121797 0)
(0.000264361 -0.00116709 0)
(0.000229127 -0.00111588 0)
(0.000192077 -0.00106446 0)
(0.000155704 -0.00101575 0)
(0.000120374 -0.000970184 0)
(9.10846e-05 -0.000928382 0)
(6.60082e-05 -0.00089023 0)
(4.57888e-05 -0.000859185 0)
(3.23027e-05 -0.000832808 0)
(2.63473e-05 -0.000811587 0)
(2.75633e-05 -0.00079318 0)
(3.672e-05 -0.000780822 0)
(5.34137e-05 -0.000768299 0)
(7.92245e-05 -0.000761199 0)
(0.000110759 -0.000748554 0)
(0.000150516 -0.000740452 0)
(0.000195226 -0.000721647 0)
(0.000242522 -0.000705601 0)
(0.00029217 -0.000682175 0)
(0.000342333 -0.000658017 0)
(0.000394286 -0.000629136 0)
(0.00044627 -0.000597453 0)
(0.000498084 -0.000561754 0)
(0.000549034 -0.0005226 0)
(0.000599954 -0.000480124 0)
(0.000649539 -0.000434356 0)
(0.000697819 -0.000385688 0)
(0.000743666 -0.000334162 0)
(0.000786782 -0.000279938 0)
(0.000826391 -0.000223306 0)
(0.000861355 -0.000164255 0)
(0.000891198 -0.000103007 0)
(0.000916521 -3.99386e-05 0)
(0.000937503 2.52801e-05 0)
(0.000952733 9.18977e-05 0)
(0.000961699 0.000159158 0)
(0.000963263 0.000227262 0)
(0.000957801 0.000295321 0)
(0.000945676 0.00036316 0)
(0.000925134 0.000430014 0)
(0.000897111 0.000495283 0)
(0.000861355 0.000558488 0)
(0.000818196 0.00061896 0)
(0.000767687 0.000675815 0)
(0.000709529 0.000728585 0)
(0.000645104 0.000776347 0)
(0.000573947 0.000818554 0)
(0.000497074 0.000854425 0)
(0.000415355 0.000883348 0)
(0.000329018 0.000904635 0)
(0.000239257 0.000917852 0)
(0.000146887 0.000922426 0)
(5.29378e-05 0.000918011 0)
(-4.16022e-05 0.000904268 0)
(-0.000135458 0.000881037 0)
(-0.000227605 0.0008482 0)
(-0.000316723 0.00080579 0)
(-0.000401549 0.000754113 0)
(-0.000480944 0.000693383 0)
(-0.0005537 0.000624163 0)
(-0.000618439 0.000546924 0)
(-0.000673922 0.000462792 0)
(-0.000719347 0.000372426 0)
(-0.00075368 0.000277151 0)
(-0.000776388 0.000178079 0)
(-0.000786293 7.67292e-05 0)
(-0.000782792 -2.55501e-05 0)
(-0.000765766 -0.000127018 0)
(-0.000735484 -0.000226228 0)
(-0.000691948 -0.000321125 0)
(-0.000635428 -0.000410347 0)
(-0.000566742 -0.000491793 0)
(-0.000486943 -0.000564159 0)
(-0.000396721 -0.000625378 0)
(-0.000297933 -0.000674399 0)
(-0.000192179 -0.000709724 0)
(-8.1609e-05 -0.000730192 0)
(3.14736e-05 -0.000735291 0)
(0.000145084 -0.000724258 0)
(0.000256339 -0.000697059 0)
(0.000363125 -0.000653648 0)
(0.00046256 -0.000594832 0)
(0.000552151 -0.000521352 0)
(0.000629379 -0.00043468 0)
(0.000692119 -0.000336573 0)
(0.000738164 -0.000229294 0)
(0.000766491 -0.000115195 0)
(0.000774934 2.89136e-06 0)
(0.000762772 0.000121908 0)
(0.000730604 0.000238554 0)
(0.00067799 0.00034976 0)
(0.000606009 0.000452098 0)
(0.000516164 0.000542053 0)
(0.000410597 0.000616664 0)
(0.000292072 0.000673417 0)
(0.000163884 0.00070976 0)
(2.93886e-05 0.000723991 0)
(-0.000106961 0.000715076 0)
(-0.000239968 0.000682559 0)
(-0.000365201 0.000626837 0)
(-0.000478601 0.000549359 0)
(-0.000575603 0.00045208 0)
(-0.000652554 0.00033843 0)
(-0.000705281 0.000211581 0)
(-0.000731825 7.68371e-05 0)
(-0.000730214 -6.20777e-05 0)
(-0.000699838 -0.000198585 0)
(-0.000641482 -0.000327713 0)
(-0.000555754 -0.000443674 0)
(-0.000446503 -0.000541263 0)
(-0.000317808 -0.000615816 0)
(-0.000174936 -0.00066305 0)
(-2.25306e-05 -0.000680474 0)
(0.000131291 -0.00066613 0)
(0.000278197 -0.000620096 0)
(0.000411768 -0.000544056 0)
(0.000525052 -0.000440546 0)
(0.000612193 -0.000315019 0)
(0.000667343 -0.000172727 0)
(0.000687582 -2.12835e-05 0)
(0.000670573 0.000131122 0)
(0.000616232 0.000276674 0)
(0.000526904 0.000406439 0)
(0.000407421 0.000512998 0)
(0.000263839 0.000589167 0)
(0.000103982 0.000629854 0)
(-6.28944e-05 0.000631366 0)
(-0.00022543 0.000592624 0)
(-0.000371552 0.000515603 0)
(-0.00049339 0.000405366 0)
(-0.000581308 0.000268495 0)
(-0.000628845 0.000114291 0)
(-0.000632275 -4.68473e-05 0)
(-0.000590103 -0.000203009 0)
(-0.000505403 -0.000342988 0)
(-0.000384007 -0.000455063 0)
(-0.000235138 -0.000530469 0)
(-6.80458e-05 -0.000562664 0)
(0.000101328 -0.00054712 0)
(0.000257051 -0.000485899 0)
(0.000387365 -0.000384477 0)
(0.0004799 -0.000251429 0)
(0.000526745 -9.86164e-05 0)
(0.000523159 5.9254e-05 0)
(0.000468987 0.000207002 0)
(0.000370593 0.000330256 0)
(0.000237888 0.000415773 0)
(8.31642e-05 0.000454862 0)
(-7.66002e-05 0.000440705 0)
(-0.000220728 0.000377736 0)
(-0.00033295 0.000272895 0)
(-0.000401371 0.000137794 0)
(-0.000417444 -1.11344e-05 0)
(-0.000379522 -0.000155962 0)
(-0.000292756 -0.000278375 0)
(-0.000167482 -0.000362691 0)
(-1.5632e-05 -0.000398057 0)
(0.000138387 -0.000376968 0)
(0.000269633 -0.000304446 0)
(0.000364254 -0.000190305 0)
(0.000408396 -5.02772e-05 0)
(0.000395622 9.59146e-05 0)
(0.000327871 0.00022782 0)
(0.00021479 0.000326194 0)
(6.97663e-05 0.00037711 0)
(-8.49809e-05 0.000370729 0)
(-0.000221254 0.000310652 0)
(-0.000320596 0.000207654 0)
(-0.000370381 7.87931e-05 0)
(-0.00036446 -5.53044e-05 0)
(-0.000305623 -0.000173259 0)
(-0.00020574 -0.00025708 0)
(-8.23785e-05 -0.000294796 0)
(4.41e-05 -0.000281092 0)
(0.000149295 -0.00022313 0)
(0.000216366 -0.000135137 0)
(0.000239769 -3.50008e-05 0)
(0.00021989 5.88259e-05 0)
(0.00016482 0.000130688 0)
(8.84254e-05 0.000170425 0)
(5.24618e-06 0.000174859 0)
(-6.60408e-05 0.000146699 0)
(-0.000114328 9.82591e-05 0)
(-0.000137252 4.03037e-05 0)
(-0.000134231 -1.64178e-05 0)
(-0.000110501 -6.36567e-05 0)
(-7.18945e-05 -9.66308e-05 0)
(-2.48606e-05 -0.000113388 0)
(1.8732e-06 -0.000562337 0)
(1.39932e-05 -0.000585315 0)
(2.57791e-05 -0.000569708 0)
(5.99268e-05 -0.000544794 0)
(0.000101582 -0.000496683 0)
(0.00018295 -0.000434972 0)
(0.000272825 -0.000308738 0)
(0.000394609 -0.000168361 0)
(0.000506888 7.13808e-05 0)
(0.000600923 0.000256185 0)
(0.000695896 0.000407211 0)
(0.000758252 0.000495211 0)
(0.000804963 0.000554574 0)
(0.000825379 0.000583765 0)
(0.000832494 0.000590646 0)
(0.000826017 0.00057573 0)
(0.000813568 0.000541762 0)
(0.000794788 0.000491872 0)
(0.000771028 0.000427705 0)
(0.000746417 0.000351189 0)
(0.000719886 0.000266498 0)
(0.000698873 0.000163643 0)
(0.000679007 5.67916e-05 0)
(0.000677286 -5.93965e-05 0)
(0.000680472 -0.000165886 0)