/*--------------------------------*- C++ -*----------------------------------*\
  =========                 |
  \\      /  F ield         | OpenFOAM: The Open Source CFD Toolbox
   \\    /   O peration     | Website:  https://openfoam.org
    \\  /    A nd           | Version:  12
     \\/     M anipulation  |
\*---------------------------------------------------------------------------*/
FoamFile
{
    format      ascii;
    class       volVectorField;
    location    "18";
    object      zeta;
}
// * * * * * * * * * * * * * * * * * * * * * * * * * * * * * * * * * * * * * //

dimensions      [0 1 0 0 0 0 0];

internalField   uniform (0 0 0);

boundaryField
{
    freeSurface
    {
        type            calculated;
        value           nonuniform List<vector> 
181
(
(0 0.00606753 0)
(0 0.00606729 0)
(0 0.00606663 0)
(0 0.00606557 0)
(0 0.00606472 0)
(0 0.00606329 0)
(0 0.00606334 0)
(0 0.00606132 0)
(0 0.00078619 0)
(0 0.000793856 0)
(0 0.000810503 0)
(0 0.000833645 0)
(0 0.00086066 0)
(0 0.000894958 0)
(0 0.000932346 0)
(0 0.000974109 0)
(0 0.00101773 0)
(0 0.00106361 0)
(0 0.00110961 0)
(0 0.0011552 0)
(0 0.00119849 0)
(0 0.00123888 0)
(0 0.00127526 0)
(0 0.00130704 0)
(0 0.00133352 0)
(0 0.00135385 0)
(0 0.00136717 0)
(0 0.00137271 0)
(0 0.0013698 0)
(0 0.00135793 0)
(0 0.00133669 0)
(0 0.00130591 0)
(0 0.00126536 0)
(0 0.00121506 0)
(0 0.00115475 0)
(0 0.00108465 0)
(0 0.00100505 0)
(0 0.000916439 0)
(0 0.000819396 0)
(0 0.00071453 0)
(0 0.000602576 0)
(0 0.000484306 0)
(0 0.000360888 0)
(0 0.000233373 0)
(0 0.000103015 0)
(0 -2.88905e-05 0)
(0 -0.000160845 0)
(0 -0.000291358 0)
(0 -0.00041872 0)
(0 -0.000541291 0)
(0 -0.000657356 0)
(0 -0.000765059 0)
(0 -0.000862859 0)
(0 -0.000948999 0)
(0 -0.00102192 0)
(0 -0.00108034 0)
(0 -0.00112305 0)
(0 -0.00114896 0)
(0 -0.00115727 0)
(0 -0.00114733 0)
(0 -0.00111885 0)
(0 -0.00107172 0)
(0 -0.00100622 0)
(0 -0.000923073 0)
(0 -0.000823209 0)
(0 -0.000707851 0)
(0 -0.000578987 0)
(0 -0.00043857 0)
(0 -0.000289235 0)
(0 -0.000133816 0)
(0 2.4678e-05 0)
(0 0.000183082 0)
(0 0.000337912 0)
(0 0.00048574 0)
(0 0.000622978 0)
(0 0.000746253 0)
(0 0.000852254 0)
(0 0.000937851 0)
(0 0.00100054 0)
(0 0.00103797 0)
(0 0.00104848 0)
(0 0.00103101 0)
(0 0.000985469 0)
(0 0.000912257 0)
(0 0.000812976 0)
(0 0.000689784 0)
(0 0.000545719 0)
(0 0.000384601 0)
(0 0.000210846 0)
(0 3.0256e-05 0)
(0 -0.000151723 0)
(0 -0.000329115 0)
(0 -0.000495786 0)
(0 -0.000645396 0)
(0 -0.000772073 0)
(0 -0.000870722 0)
(0 -0.000936726 0)
(0 -0.000966896 0)
(0 -0.000958936 0)
(0 -0.000912425 0)
(0 -0.000828158 0)
(0 -0.000708541 0)
(0 -0.000558235 0)
(0 -0.000383141 0)
(0 -0.000190204 0)
(0 1.13937e-05 0)
(0 0.000212809 0)
(0 0.000404555 0)
(0 0.000576644 0)
(0 0.000719885 0)
(0 0.000825968 0)
(0 0.000888218 0)
(0 0.000902266 0)
(0 0.000865911 0)
(0 0.000780177 0)
(0 0.000649095 0)
(0 0.000478778 0)
(0 0.000279579 0)
(0 6.27461e-05 0)
(0 -0.000157928 0)
(0 -0.000369286 0)
(0 -0.00055673 0)
(0 -0.000707364 0)
(0 -0.00080958 0)
(0 -0.000855042 0)
(0 -0.00083909 0)
(0 -0.000761535 0)
(0 -0.000627074 0)
(0 -0.000444975 0)
(0 -0.000229033 0)
(0 3.0217e-06 0)
(0 0.000231781 0)
(0 0.00043849 0)
(0 0.000603662 0)
(0 0.000710937 0)
(0 0.000749495 0)
(0 0.000713989 0)
(0 0.000607047 0)
(0 0.000438803 0)
(0 0.000226087 0)
(0 -8.4427e-06 0)
(0 -0.000238998 0)
(0 -0.000441676 0)
(0 -0.000592196 0)
(0 -0.000672049 0)
(0 -0.000671017 0)
(0 -0.000588575 0)
(0 -0.000434605 0)
(0 -0.000228889 0)
(0 1.00107e-06 0)
(0 0.000224571 0)
(0 0.000413085 0)
(0 0.000538949 0)
(0 0.000583319 0)
(0 0.000538957 0)
(0 0.000412081 0)
(0 0.000221918 0)
(0 -1.46151e-06 0)
(0 -0.000221362 0)
(0 -0.000404709 0)
(0 -0.000519393 0)
(0 -0.000544451 0)
(0 -0.000474438 0)
(0 -0.000321384 0)
(0 -0.000112504 0)
(0 0.000113539 0)
(0 0.000313898 0)
(0 0.000451558 0)
(0 0.000497089 0)
(0 0.000438962 0)
(0 0.000289479 0)
(0 8.04649e-05 0)
(0 -0.000142603 0)
(0 -0.000329057 0)
(0 -0.000437317 0)
(0 -0.000439597 0)
(0 -0.000332066 0)
(0 -0.000142001 0)
(0 8.2202e-05 0)
(0 0.000280855 0)
(0 0.000398307 0)
)
;
    }
    walls
    {
        type            calculated;
        value           uniform (0 0 0);
    }
    floatingObject
    {
        type            calculated;
        value           uniform (0 0 0);
    }
    frontAndBack
    {
        type            empty;
    }
}


// ************************************************************************* //
