/*--------------------------------*- C++ -*----------------------------------*\
  =========                 |
  \\      /  F ield         | OpenFOAM: The Open Source CFD Toolbox
   \\    /   O peration     | Website:  https://openfoam.org
    \\  /    A nd           | Version:  12
     \\/     M anipulation  |
\*---------------------------------------------------------------------------*/
FoamFile
{
    format      ascii;
    class       surfaceScalarField;
    location    "3.92";
    object      phi;
}
// * * * * * * * * * * * * * * * * * * * * * * * * * * * * * * * * * * * * * //

dimensions      [1 0 -1 0 0 0 0];

internalField   nonuniform List<scalar> 
7429
(
9.76504e-05
-9.76504e-05
0.000196652
-9.90019e-05
0.000297161
-0.000100508
0.000399415
-0.000102254
0.000503585
-0.00010417
0.000609897
-0.000106312
0.000718529
-0.000108632
0.00082966
-0.000111131
0.000943414
-0.000113754
0.0010599
-0.000116482
0.00117913
-0.000119232
0.00130108
-0.000121954
0.00142572
-0.000124637
0.0015529
-0.000127186
0.00168244
-0.000129534
0.00181395
-0.000131509
0.00194723
-0.00013328
0.00208191
-0.00013468
0.00221746
-0.000135553
0.00235334
-0.000135884
0.00248898
-0.000135633
0.00262367
-0.000134696
0.00275675
-0.000133072
0.00288743
-0.000130681
0.00301496
-0.000127532
0.00313853
-0.000123569
0.00325735
-0.00011882
0.00337061
-0.000113265
0.00347753
-0.000106917
0.00357735
-9.98164e-05
0.00366936
-9.20127e-05
0.00375287
-8.35122e-05
0.00382732
-7.4448e-05
0.00389208
-6.47587e-05
0.00394658
-5.45053e-05
0.00399038
-4.37971e-05
0.0040231
-3.2719e-05
0.00404461
-2.15114e-05
0.00405487
-1.02573e-05
0.00405342
1.45339e-06
0.00403942
1.39951e-05
0.00401317
2.62556e-05
0.00397476
3.84095e-05
0.00392432
5.04393e-05
0.00386205
6.2267e-05
0.00378823
7.38192e-05
0.00370319
8.50363e-05
0.00360736
9.58325e-05
0.00350121
0.000106149
0.00338531
0.000115903
0.00326026
0.000125045
0.00312678
0.000133481
0.00298563
0.000141153
0.00283762
0.000148008
0.00268371
0.00015391
0.00252483
0.000158881
0.00236215
0.000162681
0.00219664
0.00016551
0.00202957
0.000167072
0.001862
0.000167567
0.0016953
0.000166698
0.00153072
0.000164585
0.00136955
0.000161168
0.00121307
0.00015648
0.00106252
0.000150551
0.000919082
0.000143436
0.000784049
0.000135033
0.000658459
0.000125589
0.000543401
0.000115058
0.000439777
0.000103624
0.000348403
9.13734e-05
0.00026998
7.84233e-05
0.000205122
6.48582e-05
0.000154146
5.09755e-05
0.0001172
3.69458e-05
9.42312e-05
2.29693e-05
8.49384e-05
9.29276e-06
8.97422e-05
-4.80381e-06
0.000107427
-1.76852e-05
0.000137068
-2.9641e-05
0.000177518
-4.04492e-05
0.000227489
-4.99718e-05
0.00028559
-5.81008e-05
0.000350217
-6.46272e-05
0.000419619
-6.94018e-05
0.000491973
-7.23537e-05
0.000565315
-7.33422e-05
0.000637676
-7.23607e-05
0.000707084
-6.94076e-05
0.000771576
-6.44922e-05
0.000829292
-5.77166e-05
0.000878517
-4.92244e-05
0.000917651
-3.91346e-05
0.000945483
-2.78314e-05
0.000960899
-1.54164e-05
0.000962921
-2.02215e-06
0.000949355
1.35666e-05
0.000921326
2.80291e-05
0.000879355
4.19702e-05
0.000824042
5.53131e-05
0.00075622
6.7822e-05
0.000676913
7.93075e-05
0.000587581
8.93314e-05
0.000489904
9.76769e-05
0.000385816
0.000104089
0.000277476
0.00010834
0.000167103
0.000110373
5.70178e-05
0.000110085
-5.04586e-05
0.000107476
-0.000153084
0.000102625
-0.000248728
9.56447e-05
-0.000335423
8.66944e-05
-0.00041145
7.6027e-05
-0.000475366
6.39164e-05
-0.000526
5.06335e-05
-0.000562574
3.65742e-05
-0.000584656
2.20817e-05
-0.000592144
7.48845e-06
-0.000584895
-7.24883e-06
-0.00056392
-2.09751e-05
-0.000530032
-3.38888e-05
-0.000484443
-4.55884e-05
-0.0004285
-5.59435e-05
-0.00036384
-6.46593e-05
-0.000292206
-7.16345e-05
-0.00021547
-7.6736e-05
-0.000135506
-7.99641e-05
-5.42262e-05
-8.12796e-05
2.65048e-05
-8.0731e-05
0.000104969
-7.8464e-05
0.000179503
-7.45338e-05
0.000248632
-6.91295e-05
0.000311106
-6.24737e-05
0.000365829
-5.47228e-05
0.000411968
-4.6139e-05
0.000448881
-3.69136e-05
0.00047619
-2.73085e-05
0.000493748
-1.75586e-05
0.000501608
-7.85983e-06
0.000500043
1.56513e-06
0.0004895
1.0543e-05
0.000470611
1.88891e-05
0.000444118
2.64932e-05
0.000410885
3.32324e-05
0.000371916
3.89691e-05
0.000328256
4.36607e-05
0.00028098
4.72751e-05
0.000231192
4.97887e-05
0.000180032
5.11593e-05
0.000128468
5.15641e-05
7.76384e-05
5.08299e-05
2.83641e-05
4.92743e-05
-1.83399e-05
4.6704e-05
-6.17651e-05
4.34252e-05
-0.000101224
3.94587e-05
-0.00013612
3.4896e-05
-0.000166027
2.99075e-05
-0.000190591
2.45641e-05
-0.000209574
1.89831e-05
-0.000222891
1.33167e-05
-0.000230516
7.62448e-06
-0.000232557
2.04104e-06
-0.000229245
-3.31158e-06
-0.000220829
-8.41595e-06
-0.00020768
-1.3149e-05
-0.000190211
-1.74694e-05
-0.000168897
-2.13138e-05
-0.000144271
-2.46261e-05
-0.000116879
-2.73917e-05
-8.72939e-05
-2.95853e-05
-5.61043e-05
-3.11896e-05
-2.38821e-05
-3.22222e-05
8.79449e-06
-3.26766e-05
4.13572e-05
-3.25627e-05
7.32958e-05
-3.19387e-05
0.000104094
-3.07983e-05
0.000133298
-2.92042e-05
0.000160472
-2.71733e-05
0.000185259
-2.47877e-05
0.000207309
-2.20496e-05
0.000226374
-1.90655e-05
0.000242222
-1.58479e-05
0.000254686
-1.24635e-05
0.000263671
-8.98544e-06
0.000269107
-5.43537e-06
0.000270996
-1.88944e-06
0.000269381
1.61531e-06
0.000264327
5.05352e-06
0.000255952
8.37558e-06
0.00024439
1.15619e-05
0.000229805
1.45847e-05
0.000212402
1.74029e-05
0.000192379
2.00236e-05
0.000169975
2.24035e-05
0.000145417
2.4558e-05
0.000118978
2.6439e-05
9.09206e-05
2.80574e-05
6.15325e-05
2.93881e-05
3.11161e-05
3.04165e-05
3.11161e-05
8.03407e-05
-0.000177991
0.000162019
-0.00018068
0.000245364
-0.000183853
0.00033088
-0.000187769
0.000419015
-0.000192305
0.000510113
-0.00019741
0.000604507
-0.000203026
0.000702514
-0.000209137
0.000804507
-0.000215747
0.000910886
-0.000222861
0.00102174
-0.000230089
0.0011372
-0.000237411
0.00125737
-0.000244803
0.00138208
-0.000251894
0.00151122
-0.000258681
0.00164454
-0.000264828
0.00178137
-0.000270113
0.00192117
-0.000274474
0.00206328
-0.000277659
0.00220694
-0.000279548
0.00235124
-0.000279935
0.00249526
-0.000278716
0.00263801
-0.000275817
0.00277843
-0.000271106
0.00291548
-0.00026458
0.00304804
-0.000256128
0.00317508
-0.000245864
0.00329551
-0.000233695
0.0034084
-0.000219802
0.00351284
-0.000204254
0.00360795
-0.000187125
0.0036931
-0.000168658
0.00376764
-0.000148996
0.00383114
-0.000128256
0.00388333
-0.000106691
0.00392391
-8.43802e-05
0.00395272
-6.15313e-05
0.00396963
-3.84209e-05
0.00397469
-1.53194e-05
0.0039662
9.94923e-06
0.00394434
3.58549e-05
0.00390945
6.11443e-05
0.00386187
8.59906e-05
0.00380191
0.000110395
0.00372992
0.000134256
0.00364629
0.000157456
0.00355142
0.000179899
0.00344583
0.000201425
0.00333002
0.000221961
0.0032046
0.000241321
0.00307026
0.000259386
0.00292772
0.00027602
0.0027778
0.000291078
0.0026214
0.000304405
0.00245949
0.000315823
0.00229305
0.000325315
0.00212328
0.000332457
0.00195124
0.000337546
0.00177829
0.000340028
0.00160551
0.00034034
0.00143437
0.000337841
0.00126615
0.000332808
0.00110223
0.000325087
0.000943921
0.000314785
0.000792587
0.000301885
0.000649541
0.000286482
0.00051595
0.000268624
0.00039302
0.00024852
0.000281939
0.000226139
0.000183574
0.000201989
9.8665e-05
0.000176282
2.79882e-05
0.0001491
-2.80372e-05
0.000120883
-6.9222e-05
9.21603e-05
-9.5432e-05
6.31558e-05
-0.000106715
3.42521e-05
-0.000103307
5.88446e-06
-8.53149e-05
-2.27955e-05
-5.41699e-05
-4.88303e-05
-1.07982e-05
-7.30127e-05
4.38108e-05
-9.50582e-05
0.000108287
-0.000114448
0.000181073
-0.000130887
0.00026018
-0.000143734
0.000343678
-0.0001529
0.00042956
-0.000158236
0.000515632
-0.000159414
0.000599758
-0.000156486
0.000679815
-0.000149465
0.000753707
-0.000138384
0.000819534
-0.000123543
0.000875431
-0.000105121
0.000919806
-8.35104e-05
0.000951064
-5.90893e-05
0.000968506
-3.28581e-05
0.000971072
-4.58849e-06
0.000957228
2.74106e-05
0.000928092
5.71658e-05
0.000884028
8.60341e-05
0.000825673
0.000113668
0.000754028
0.000139467
0.000670427
0.000162909
0.00057657
0.000183188
0.000474341
0.000199907
0.000365968
0.000212461
0.000253796
0.000220512
0.000140227
0.000223942
2.7693e-05
0.000222619
-8.13422e-05
0.000216512
-0.000184618
0.000205901
-0.000279917
0.000190943
-0.000365379
0.000172156
-0.000439264
0.000149913
-0.000500248
0.0001249
-0.000547342
9.77273e-05
-0.000579826
6.90583e-05
-0.000597434
3.96893e-05
-0.000600229
1.02843e-05
-0.00058871
-1.87681e-05
-0.000563589
-4.60958e-05
-0.000525921
-7.15575e-05
-0.00047703
-9.44792e-05
-0.000418475
-0.000114498
-0.000351906
-0.000131228
-0.0002792
-0.000144341
-0.000202217
-0.000153719
-0.000122855
-0.000159326
-4.29793e-05
-0.000161155
3.56597e-05
-0.00015937
0.000111378
-0.000154182
0.00018263
-0.000145785
0.000248108
-0.000134608
0.00030663
-0.000120996
0.000357285
-0.000105378
0.000399339
-8.81927e-05
0.00043236
-6.99352e-05
0.000456025
-5.09733e-05
0.000470309
-3.18421e-05
0.000475368
-1.29191e-05
0.000471558
5.37542e-06
0.000459383
2.2718e-05
0.000439462
3.88102e-05
0.000412615
5.334e-05
0.000379719
6.61279e-05
0.000341737
7.69517e-05
0.000299623
8.57747e-05
0.000254455
9.24431e-05
0.000207281
9.69626e-05
0.000159014
9.94255e-05
0.000110808
9.97702e-05
6.34325e-05
9.82058e-05
1.79288e-05
9.4778e-05
-2.51216e-05
8.97543e-05
-6.48935e-05
8.31971e-05
-0.00010082
7.53852e-05
-0.000132405
6.64806e-05
-0.000159227
5.67301e-05
-0.000181067
4.64039e-05
-0.000197726
3.56416e-05
-0.000209122
2.47132e-05
-0.000215284
1.37863e-05
-0.000216364
3.1216e-06
-0.000212551
-7.12488e-06
-0.000204127
-1.68405e-05
-0.00019143
-2.58458e-05
-0.000174865
-3.40344e-05
-0.000154881
-4.12978e-05
-0.00013196
-4.7547e-05
-0.000106612
-5.27398e-05
-7.93647e-05
-5.68324e-05
-5.07544e-05
-5.97999e-05
-2.13061e-05
-6.16706e-05
8.47493e-06
-6.24576e-05
3.80844e-05
-6.21721e-05
6.70376e-05
-6.08919e-05
9.48972e-05
-5.86579e-05
0.000121258
-5.55653e-05
0.00014573
-5.16454e-05
0.000167988
-4.70455e-05
0.000187741
-4.18022e-05
0.000204767
-3.60915e-05
0.000218853
-2.9934e-05
0.000229891
-2.35013e-05
0.000237774
-1.68691e-05
0.00024245
-1.0111e-05
0.000243943
-3.38255e-06
0.000242299
3.25908e-06
0.000237587
9.76623e-06
0.000229892
1.60702e-05
0.000219369
2.20847e-05
0.000206176
2.77779e-05
0.000190467
3.31116e-05
0.000172441
3.80494e-05
0.000152295
4.25498e-05
0.000130257
4.65965e-05
0.00010654
5.01558e-05
8.13924e-05
5.32049e-05
5.50728e-05
5.57078e-05
2.78501e-05
5.76391e-05
5.89661e-05
4.68686e-05
-0.000224859
9.50356e-05
-0.000228847
0.000145645
-0.000234462
0.000199568
-0.000241692
0.000257763
-0.0002505
0.000321316
-0.000260964
0.000391239
-0.000272948
0.00046852
-0.000286418
0.00055391
-0.000301136
0.000648087
-0.000317038
0.000751585
-0.000333587
0.000864801
-0.000350627
0.000987628
-0.000367629
0.00112
-0.000384264
0.00126145
-0.000400136
0.00141132
-0.000414694
0.00156879
-0.000427577
0.00173265
-0.000438337
0.00190169
-0.000446696
0.00207441
-0.000452278
0.00224933
-0.000454851
0.00242477
-0.000454155
0.00259901
-0.000450058
0.00277022
-0.000442319
0.00293676
-0.000431121
0.00309681
-0.000416178
0.00324886
-0.000397914
0.00339146
-0.000376295
0.00352335
-0.000351683
0.00364355
-0.000324454
0.0037511
-0.000294677
0.00384563
-0.000263194
0.00392633
-0.000229691
0.00399278
-0.000194704
0.0040447
-0.000158616
0.00408208
-0.000121758
0.00410513
-8.45809e-05
0.00411403
-4.73229e-05
0.00410911
-1.03989e-05
0.00408764
3.14217e-05
0.00405211
7.13805e-05
0.00400264
0.000110618
0.00393944
0.000149186
0.00386284
0.000186994
0.00377322
0.000223884
0.00367101
0.000259663
0.0035567
0.000294205
0.00343088
0.000327245
0.0032942
0.000358647
0.00314741
0.000388106
0.00299122
0.000415575
0.00282654
0.000440703
0.00265429
0.000463325
0.0024755
0.0004832
0.0022913
0.000500021
0.00210284
0.000513771
0.0019115
0.000523796
0.00171857
0.000530479
0.00152558
0.000533022
0.00133386
0.000532053
0.00114494
0.000526767
0.000960394
0.000517351
0.000781709
0.000503772
0.000610514
0.00048598
0.000448203
0.000464196
0.000296491
0.000438194
0.000156352
0.000408763
2.9278e-05
0.000375594
-8.37464e-05
0.000339163
-0.000181356
0.000299598
-0.000262703
0.000257629
-0.000327067
0.000213464
-0.000374009
0.000167826
-0.000403179
0.00012133
-0.000414739
7.4716e-05
-0.000408963
2.84763e-05
-0.000384626
-1.84522e-05
-0.000345136
-6.22863e-05
-0.000290348
-0.000103618
-0.000221507
-0.000141853
-0.000140279
-0.000176286
-4.8572e-05
-0.000206155
5.14994e-05
-0.000230959
0.000157954
-0.000250189
0.000268408
-0.000263353
0.000380359
-0.000270187
0.000491219
-0.000270275
0.000598436
-0.000263703
0.000699502
-0.000250531
0.00079207
-0.000230953
0.000873784
-0.000205257
0.000942403
-0.00017374
0.000996504
-0.000137611
0.00103424
-9.68251e-05
0.00105489
-5.35105e-05
0.0010571
-6.79326e-06
0.00104069
4.38193e-05
0.00100638
9.14761e-05
0.000954587
0.000137825
0.000886246
0.000182008
0.000802686
0.000223027
0.00070585
0.000259745
0.000597887
0.000291151
0.000481279
0.000316515
0.000358655
0.000335086
0.000232801
0.000346366
0.000106597
0.000350145
-1.71278e-05
0.000346344
-0.000135678
0.000335062
-0.000246539
0.000316761
-0.000347384
0.000291788
-0.000436069
0.000260842
-0.000511201
0.000225044
-0.00057121
0.000184909
-0.000615379
0.000141896
-0.000643336
9.70152e-05
-0.000655086
5.14399e-05
-0.00065096
6.15758e-06
-0.000631638
-3.80893e-05
-0.000598206
-7.9528e-05
-0.000552139
-0.000117624
-0.000494991
-0.000151627
-0.000428622
-0.000180867
-0.000354897
-0.000204954
-0.000275885
-0.000223353
-0.000193587
-0.000236017
-0.000110079
-0.000242835
-2.72336e-05
-0.000244
5.32043e-05
-0.000239808
0.000129585
-0.000230563
0.00020044
-0.000216641
0.000264569
-0.000198736
0.000320888
-0.000177315
0.000368709
-0.000153198
0.000407445
-0.000126929
0.000436764
-9.92536e-05
0.000456568
-7.07777e-05
0.000466978
-4.22524e-05
0.000468219
-1.41594e-05
0.000460914
1.26799e-05
0.000445586
3.80456e-05
0.000423001
6.13953e-05
0.000394004
8.23371e-05
0.000359534
0.000100598
0.000320543
0.000115942
0.00027799
0.000128328
0.000233012
0.000137422
0.000186489
0.000143486
0.00013949
0.000146424
9.28905e-05
0.00014637
4.75834e-05
0.000143513
4.35354e-06
0.000138008
-3.61301e-05
0.000130238
-7.32233e-05
0.00012029
-0.00010642
0.000108582
-0.000135303
9.53639e-05
-0.000159518
8.09448e-05
-0.00017892
6.58065e-05
-0.000193343
5.00639e-05
-0.0002028
3.4171e-05
-0.000207342
1.83285e-05
-0.00020714
2.91925e-06
-0.000202414
-1.18506e-05
-0.00019346
-2.5795e-05
-0.000180628
-3.86781e-05
-0.00016431
-5.03517e-05
-0.000144938
-6.06702e-05
-0.000122985
-6.94995e-05
-9.8911e-05
-7.68141e-05
-7.32343e-05
-8.25091e-05
-4.64233e-05
-8.66109e-05
-1.89783e-05
-8.91155e-05
8.64079e-06
-9.00767e-05
3.59905e-05
-8.95219e-05
6.26235e-05
-8.75249e-05
8.8156e-05
-8.41904e-05
0.000112207
-7.96162e-05
0.000134468
-7.39062e-05
0.000154628
-6.72053e-05
0.000172455
-5.96294e-05
0.000187719
-5.13554e-05
0.000200274
-4.24894e-05
0.000210019
-3.32461e-05
0.000216853
-2.37031e-05
0.000220818
-1.40757e-05
0.000221868
-4.43333e-06
0.000220089
5.03851e-06
0.000215547
1.43081e-05
0.00020834
2.32773e-05
0.00019861
3.18148e-05
0.000186477
3.99111e-05
0.000172136
4.74522e-05
0.000155731
5.44543e-05
0.000137449
6.08314e-05
0.000117493
6.65525e-05
9.60579e-05
7.15914e-05
7.33634e-05
7.58993e-05
4.96275e-05
7.94438e-05
2.50898e-05
8.21768e-05
8.4056e-05
-1.00304e-05
-0.000214829
-1.85214e-05
-0.000220356
-2.31487e-05
-0.000229834
-2.17406e-05
-0.0002431
-1.20024e-05
-0.000260238
8.1561e-06
-0.000281122
4.09352e-05
-0.000305727
8.84361e-05
-0.000333918
0.0001527
-0.0003654
0.00023524
-0.000399577
0.000337122
-0.000435469
0.00045775
-0.000471255
0.000596411
-0.00050629
0.000752107
-0.00053996
0.000923242
-0.000571271
0.00110893
-0.000600384
0.00130751
-0.000626159
0.00151718
-0.000648004
0.00173639
-0.000665907
0.0019627
-0.000678581
0.00219336
-0.000685514
0.00242593
-0.000686728
0.00265719
-0.000681313
0.00288409
-0.000669216
0.00310363
-0.000650664
0.0033128
-0.000625343
0.00350897
-0.000594091
0.00368993
-0.000557247
0.00385344
-0.000515196
0.00399802
-0.000469037
0.00412308
-0.000419737
0.00422784
-0.000367957
0.00431289
-0.000314739
0.00437863
-0.000260443
0.00442528
-0.000205261
0.00445392
-0.000150405
0.00446529
-9.59429e-05
0.00446031
-4.23508e-05
0.00443447
1.54466e-05
0.00439157
7.43196e-05
0.00433208
0.000130872
0.00425675
0.000185946
0.00416631
0.000239625
0.00406143
0.000291872
0.00394277
0.000342545
0.00381098
0.000391458
0.00366674
0.00043844
0.00351072
0.000483273
0.00334348
0.000525886
0.00316577
0.000565808
0.00297847
0.000602877
0.00278258
0.00063659
0.00257915
0.000666761
0.00236929
0.000693064
0.00215431
0.000714995
0.00193569
0.000732394
0.00171476
0.000744728
0.00149292
0.000752316
0.00127212
0.000753821
0.00105367
0.000750503
0.000839738
0.0007407
0.000631847
0.000725242
0.000431795
0.000703824
0.000241699
0.000676076
6.28923e-05
0.000643003
-0.000103034
0.000604121
-0.000254006
0.000559735
-0.000388521
0.000510109
-0.000505124
0.000455766
-0.000602785
0.000397259
-0.000680559
0.000335404
-0.000737657
0.000270562
-0.000773599
0.000203768
-0.000788518
0.000136248
-0.000782094
6.8292e-05
-0.000753559
-5.86164e-08
-0.000705968
-6.60428e-05
-0.000639318
-0.000128936
-0.0005549
-0.000188036
-0.000454583
-0.00024217
-0.00034024
-0.000290629
-0.000214265
-0.00033213
-7.93631e-05
-0.00036586
6.18053e-05
-0.000391358
0.000206353
-0.000407901
0.000351268
-0.000415102
0.000493361
-0.000412368
0.000629519
-0.000399861
0.000756764
-0.000377776
0.00087217
-0.000346358
0.000972975
-0.000306062
0.00105696
-0.000257729
0.00112219
-0.000202836
0.00116674
-0.000141372
0.00118986
-7.66371e-05
0.00118976
-6.68976e-06
0.00116825
6.53317e-05
0.00112512
0.0001346
0.001061
0.000201946
0.000977476
0.000265534
0.000876586
0.000323917
0.000760771
0.00037556
0.000632858
0.000419064
0.000495991
0.000453381
0.000353501
0.000477575
0.000208719
0.000491149
6.50704e-05
0.000493794
-7.42222e-05
0.000485637
-0.00020599
0.00046683
-0.000327271
0.000438043
-0.000435802
0.000400319
-0.000529305
0.000354345
-0.000606238
0.000301977
-0.000665458
0.000244129
-0.000706363
0.000182801
-0.000728744
0.000119396
-0.000732842
5.55377e-05
-0.000719509
-7.17531e-06
-0.000690222
-6.73764e-05
-0.000646094
-0.000123657
-0.000589027
-0.000174691
-0.000521068
-0.000219587
-0.000444324
-0.000257611
-0.000361062
-0.000288215
-0.00027351
-0.000310905
-0.000183968
-0.000325558
-9.44481e-05
-0.000332355
-7.02597e-06
-0.000331422
7.65749e-05
-0.000323409
0.000154737
-0.000308725
0.000226082
-0.000287985
0.000289481
-0.000262135
0.000344171
-0.000232006
0.000389334
-0.000198362
0.000424748
-0.000162342
0.000450231
-0.000124737
0.0004659
-8.64463e-05
0.000471989
-4.83416e-05
0.000469089
-1.12594e-05
0.000457747
2.40221e-05
0.000438702
5.70901e-05
0.000412828
8.72694e-05
0.000380928
0.000114237
0.000344055
0.000137471
0.000303305
0.000156693
0.000259697
0.000171935
0.00021403
0.000183089
0.000167533
0.000189983
0.000120976
0.000192981
7.54254e-05
0.00019192
3.14841e-05
0.000187454
-1.00136e-05
0.000179506
-4.84574e-05
0.000168682
-8.33353e-05
0.000155168
-0.000114193
0.000139439
-0.000140664
0.000121835
-0.000162571
0.000102852
-0.000179713
8.29476e-05
-0.000192018
6.23689e-05
-0.000199587
4.17401e-05
-0.000202478
2.12193e-05
-0.000200934
1.3759e-06
-0.000195194
-1.75912e-05
-0.000185555
-3.54335e-05
-0.000172344
-5.18892e-05
-0.000156005
-6.66908e-05
-0.000136944
-7.97309e-05
-0.000115621
-9.08228e-05
-9.24828e-05
-9.99523e-05
-6.79771e-05
-0.000107015
-4.25922e-05
-0.000111996
-1.67633e-05
-0.000114944
9.09015e-06
-0.00011593
3.45564e-05
-0.000114988
5.92388e-05
-0.000112207
8.27978e-05
-0.000107749
0.000104888
-0.000101707
0.000125239
-9.42575e-05
0.000143582
-8.55477e-05
0.000159707
-7.57543e-05
0.000173419
-6.50679e-05
0.000184618
-5.36881e-05
0.000193192
-4.18204e-05
0.000199106
-2.96166e-05
0.000202361
-1.73305e-05
0.00020298
-5.05269e-06
0.00020103
6.98883e-06
0.00019659
1.87481e-05
0.000189758
3.01093e-05
0.000180664
4.09084e-05
0.000169464
5.11114e-05
0.000156246
6.067e-05
0.000141239
6.94609e-05
0.000124586
7.74847e-05
0.000106423
8.47158e-05
8.69645e-05
9.10498e-05
6.63782e-05
9.64856e-05
4.48892e-05
0.000100933
2.26876e-05
0.000104378
0.000106744
-0.000111346
-0.000103483
-0.000220856
-0.000110845
-0.000324601
-0.000126089
-0.000418457
-0.000149245
-0.000498366
-0.000180328
-0.000560579
-0.000218909
-0.000600717
-0.000265589
-0.000613131
-0.000321504
-0.0005909
-0.000387631
-0.000534415
-0.000456062
-0.000443076
-0.000526808
-0.00031605
-0.000598282
-0.000153243
-0.000669096
4.40437e-05
-0.000737247
0.00027385
-0.000801077
0.000532523
-0.000859057
0.000816075
-0.000909711
0.0011203
-0.000952229
0.00144
-0.000985603
0.00177032
-0.0010089
0.00210603
-0.00102122
0.00244121
-0.00102191
0.00277026
-0.00101037
0.00308754
-0.000986493
0.00338712
-0.000950247
0.00366405
-0.000902272
0.00391373
-0.000843769
0.00413317
-0.000776685
0.00432126
-0.000703282
0.00447896
-0.000626743
0.00460738
-0.000548156
0.00470822
-0.000468798
0.00478293
-0.000389453
0.00483324
-0.000310749
0.00486113
-0.000233154
0.00486801
-0.000157279
0.00485534
-8.32788e-05
0.00482501
-1.20208e-05
0.00476898
7.14801e-05
0.00469685
0.000146453
0.00460906
0.000218657
0.00450606
0.000288947
0.00438836
0.000357327
0.0042563
0.000423927
0.00411029
0.000488558
0.00395069
0.00055106
0.00377796
0.000611171
0.00359262
0.000668607
0.00339551
0.000723001
0.00318741
0.000773906
0.00296925
0.000821034
0.00274192
0.000863929
0.00250679
0.000901891
0.00226523
0.000934618
0.00201835
0.000961874
0.00176762
0.000983123
0.00151525
0.000997102
0.00126273
0.00100483
0.00101181
0.00100474
0.000764868
0.000997446
0.000523907
0.000981661
0.000290614
0.000958534
6.74772e-05
0.000926961
-0.000143857
0.00088741
-0.000340664
0.00083981
-0.000520954
0.00078441
-0.000683029
0.00072181
-0.000825155
0.000652236
-0.000945726
0.000576337
-0.00104342
0.000494949
-0.00111715
0.000409136
-0.00116611
0.000319526
-0.00119015
0.000227801
-0.00118816
0.000134263
-0.00116086
4.09952e-05
-0.00110922
-5.16977e-05
-0.00103432
-0.000140945
-0.000937214
-0.000226044
-0.000819837
-0.000305413
-0.000684343
-0.000377664
-0.000533258
-0.000441714
-0.000369505
-0.000495883
-0.00019609
-0.000539276
-1.66107e-05
-0.000570837
0.000165329
-0.000589841
0.00034602
-0.000595793
0.000521663
-0.000588011
0.000688708
-0.000566906
0.000843533
-0.0005326
0.000982882
-0.000485707
0.00110358
-0.000426757
0.00120262
-0.000356778
0.00127826
-0.000278472
0.0013285
-0.00019161
0.00135174
-9.9879e-05
0.00134781
-2.75966e-06
0.00131837
9.47768e-05
0.001263
0.000189964
0.00118311
0.000281843
0.00108082
0.000367823
0.000958963
0.00044577
0.000820628
0.000513896
0.00066948
0.000570212
0.000509297
0.000613564
0.000343978
0.000642894
0.000177779
0.000657348
1.48522e-05
0.000656721
-0.000141238
0.000641726
-0.000286989
0.000612581
-0.00041919
0.000570245
-0.000535249
0.000516377
-0.000632942
0.000452038
-0.000710958
0.000379993
-0.000768166
0.000301337
-0.000804256
0.000218892
-0.000819542
0.000134682
-0.000814696
5.06915e-05
-0.00079107
-3.08014e-05
-0.000750224
-0.000108223
-0.000694176
-0.000179704
-0.000624956
-0.000243911
-0.000545238
-0.000299304
-0.000457405
-0.000345445
-0.000363988
-0.000381632
-0.000267518
-0.000407374
-0.000170395
-0.000422682
-7.48388e-05
-0.000427911
1.71188e-05
-0.00042338
0.000103691
-0.000409981
0.000183382
-0.000388417
0.000254927
-0.00035953
0.000317356
-0.000324565
0.000369953
-0.000284602
0.000412338
-0.000240746
0.000444172
-0.000194177
0.000465612
-0.000146176
0.000477055
-9.78893e-05
0.000478721
-5.00081e-05
0.000471486
-4.024e-06
0.000455982
3.95257e-05
0.000433074
7.99979e-05
0.000403725
0.000116619
0.000368956
0.000149006
0.000329819
0.000176608
0.000287221
0.00019929
0.000242314
0.000216843
0.000196134
0.000229268
0.000149513
0.000236604
0.000103527
0.000238968
5.86914e-05
0.000236755
1.6224e-05
0.000229922
-2.37857e-05
0.000219515
-6.03951e-05
0.000205291
-9.32208e-05
0.000187994
-0.000121903
0.000168121
-0.000146142
0.000146074
-0.000165866
0.000122576
-0.000180884
9.79659e-05
-0.000191253
7.27381e-05
-0.000197046
4.75334e-05
-0.000198377
2.25496e-05
-0.000195572
-1.42882e-06
-0.000188837
-2.43264e-05
-0.000178492
-4.57785e-05
-0.000164929
-6.5452e-05
-0.000148527
-8.30924e-05
-0.000129715
-9.85431e-05
-0.000108921
-0.000111617
-8.65799e-05
-0.000122293
-6.31277e-05
-0.000130467
-3.90017e-05
-0.000136122
-1.46036e-05
-0.000139343
9.66673e-06
-0.0001402
3.3441e-05
-0.000138762
5.63974e-05
-0.000135164
7.81815e-05
-0.000129533
9.8531e-05
-0.000122056
0.000117177
-0.000112903
0.000133893
-0.000102264
0.000148486
-9.03473e-05
0.000160822
-7.74037e-05
0.000170784
-6.36503e-05
0.000178307
-4.93428e-05
0.000183384
-3.46943e-05
0.000186016
-1.99618e-05
0.000186253
-5.29048e-06
0.000184147
9.0949e-06
0.000179773
2.31227e-05
0.000173288
3.65942e-05
0.000164755
4.94415e-05
0.000154321
6.1545e-05
0.000142162
7.28296e-05
0.000128377
8.32453e-05
0.000113131
9.27311e-05
9.65798e-05
0.000101267
7.88681e-05
0.000108762
6.01713e-05
0.000115182
4.0673e-05
0.000120431
2.05533e-05
0.000124498
0.000127297
-0.000313747
0.000210264
-0.000623051
0.000198459
-0.000914343
0.000165204
-0.00117452
0.000110929
-0.00138554
3.06936e-05
-0.0015402
-6.42494e-05
-0.00164797
-0.000157818
-0.00169514
-0.000274336
-0.00168278
-0.000399986
-0.00160632
-0.000532521
-0.00147277
-0.000660361
-0.00128702
-0.000784027
-0.00105528
-0.000900844
-0.000782947
-0.00100958
-0.000474485
-0.00110954
-0.000133304
-0.00120024
0.000237665
-0.00128068
0.000635703
-0.00135027
0.00105737
-0.00140727
0.00149823
-0.00144977
0.00195189
-0.00147488
0.00240989
-0.00147991
0.00286272
-0.0014632
0.00330111
-0.00142488
0.00371505
-0.00136418
0.00409707
-0.0012843
0.00443557
-0.00118227
0.00472654
-0.00106765
0.00495865
-0.000935398
0.00513902
-0.000807109
0.00526934
-0.000678473
0.00535615
-0.000555609
0.00540491
-0.000438214
0.00542267
-0.000328508
0.00541539
-0.000225876
0.00538618
-0.00012807
0.00533689
-3.39906e-05
0.00525442
7.04508e-05
0.00516052
0.000165385
0.005051
0.000255968
0.0049264
0.000343259
0.00478744
0.00042791
0.00463461
0.000510157
0.00446846
0.000590076
0.00428915
0.000667866
0.00409713
0.000743085
0.00389253
0.000815765
0.00367589
0.000885253
0.00344766
0.000951231
0.00320844
0.00101313
0.00295907
0.0010704
0.00270084
0.00112215
0.00243461
0.00116813
0.00216108
0.00120814
0.00188285
0.00124011
0.00160099
0.00126498
0.00131769
0.0012804
0.00103466
0.00128786
0.000754554
0.00128485
0.000479023
0.00127298
0.000210541
0.00125014
-4.8016e-05
0.00121709
-0.000294208
0.00117315
-0.000525419
0.00111862
-0.000739517
0.00105391
-0.000934091
0.000978985
-0.00110708
0.000894803
-0.0012564
0.000801552
-0.00138029
0.000700225
-0.00147716
0.000591816
-0.00154597
0.000477951
-0.0015858
0.00035936
-0.00159586
0.000237858
-0.0015767
0.000115105
-0.00152793
-7.78295e-06
-0.00145149
-0.000128134
-0.00134797
-0.000244464
-0.00121922
-0.000354795
-0.00106754
-0.000457095
-0.00089568
-0.000549521
-0.000706748
-0.000630647
-0.000504228
-0.000698403
-0.0002918
-0.000751703
-7.36673e-05
-0.00078897
0.000145979
-0.000809487
0.000362863
-0.000812677
0.000572401
-0.000797549
0.000770083
-0.000764587
0.000951734
-0.000714252
0.00111348
-0.000647451
0.00125252
-0.000565803
0.00136517
-0.000469422
0.00144843
-0.000361735
0.00150262
-0.000245802
0.00152414
-0.000121399
0.00151439
6.9947e-06
0.00147411
0.00013506
0.00140386
0.000260208
0.00130572
0.000379982
0.00118243
0.000491113
0.00103759
0.000590617
0.000875033
0.000676448
0.000699277
0.000745968
0.00051475
0.000798091
0.000326457
0.000831187
0.000139077
0.000844728
-4.29608e-05
0.000838758
-0.000215236
0.000814002
-0.00037389
0.000771234
-0.000515447
0.000711802
-0.000637441
0.000638371
-0.000737936
0.000552534
-0.000815169
0.000457226
-0.000868669
0.000354837
-0.000898512
0.000248735
-0.000905371
0.000141541
-0.00089034
3.56603e-05
-0.000855453
-6.56882e-05
-0.000802591
-0.000161085
-0.000734267
-0.000248028
-0.000653093
-0.000325085
-0.000561871
-0.000390526
-0.000463483
-0.000443833
-0.000360645
-0.00048447
-0.000256135
-0.000511884
-0.000152433
-0.000526385
-5.18308e-05
-0.000528513
4.36802e-05
-0.000518891
0.000132321
-0.000498622
0.000212746
-0.000468841
0.000283612
-0.000430397
0.000344324
-0.000385276
0.000394248
-0.000334527
0.000433254
-0.000279753
0.000461434
-0.000222357
0.000478674
-0.000163416
0.000485609
-0.000104824
0.000483075
-4.74743e-05
0.000471703
7.34882e-06
0.000452319
5.89092e-05
0.000425946
0.000106371
0.000393495
0.000149071
0.000356121
0.000186379
0.000314904
0.000217825
0.000271019
0.000243176
0.00022517
0.000262691
0.00017862
0.000275819
0.000132286
0.000282938
8.6781e-05
0.000284472
4.32531e-05
0.000280283
1.90513e-06
0.00027127
-3.63093e-05
0.00025773
-7.09775e-05
0.000239959
-0.000101724
0.00021874
-0.000128284
0.000194682
-0.000150469
0.000168259
-0.000168071
0.000140177
-0.00018109
0.000110985
-0.000189661
8.13093e-05
-0.000193794
5.16658e-05
-0.000193821
2.25772e-05
-0.000189882
-5.36821e-06
-0.000182265
-3.19433e-05
-0.000171352
-5.66918e-05
-0.000157551
-7.9253e-05
-0.000141138
-9.95048e-05
-0.000122635
-0.000117046
-0.000102399
-0.000131854
-8.0867e-05
-0.000143825
-5.84589e-05
-0.000152875
-3.55413e-05
-0.000159039
-1.25046e-05
-0.000162379
1.02654e-05
-0.00016297
3.2465e-05
-0.000160962
5.38004e-05
-0.000156499
7.39479e-05
-0.000149681
9.26752e-05
-0.000140783
0.000109768
-0.000129996
0.000124984
-0.00011748
0.000138207
-0.00010357
0.000149287
-8.8484e-05
0.000158142
-7.2505e-05
0.000164718
-5.59187e-05
0.000169028
-3.90042e-05
0.000171102
-2.20365e-05
0.000170982
-5.17048e-06
0.000168753
1.13238e-05
0.000164486
2.73902e-05
0.000158296
4.27838e-05
0.000150291
5.74469e-05
0.000140615
7.12206e-05
0.000129374
8.40709e-05
0.000116726
9.58927e-05
0.000102792
0.000106665
8.76825e-05
0.000116376
7.15595e-05
0.000124885
5.45685e-05
0.000132173
3.68685e-05
0.000138131
1.86273e-05
0.000142739
0.000145924
-0.000541402
0.000751666
-0.00107739
0.000734445
-0.00159011
0.000677923
-0.00206331
0.000584131
-0.00249317
0.000460557
-0.00287191
0.000314487
-0.00318379
0.000154066
-0.00344323
-1.48939e-05
-0.00360327
-0.000239953
-0.00365075
-0.000485039
-0.00358228
-0.00072883
-0.00339475