/*--------------------------------*- C++ -*----------------------------------*\
  =========                 |
  \\      /  F ield         | OpenFOAM: The Open Source CFD Toolbox
   \\    /   O peration     | Website:  https://openfoam.org
    \\  /    A nd           | Version:  12
     \\/     M anipulation  |
\*---------------------------------------------------------------------------*/
FoamFile
{
    format      ascii;
    class       volVectorField;
    location    "7.04";
    object      U;
}
// * * * * * * * * * * * * * * * * * * * * * * * * * * * * * * * * * * * * * //

dimensions      [0 1 -1 0 0 0 0];

internalField   nonuniform List<vector> 
3829
(
(3.55884e-06 -8.11794e-05 0)
(1.06557e-05 -8.21288e-05 0)
(1.78813e-05 -8.19202e-05 0)
(2.51729e-05 -8.1594e-05 0)
(3.2505e-05 -8.1159e-05 0)
(3.98811e-05 -8.06116e-05 0)
(4.73262e-05 -7.99627e-05 0)
(5.48336e-05 -7.92232e-05 0)
(6.24185e-05 -7.83931e-05 0)
(7.00496e-05 -7.74974e-05 0)
(7.77059e-05 -7.65397e-05 0)
(8.53626e-05 -7.55246e-05 0)
(9.30278e-05 -7.44557e-05 0)
(0.000100647 -7.33418e-05 0)
(0.000108232 -7.21626e-05 0)
(0.000115803 -7.0953e-05 0)
(0.000123321 -6.96905e-05 0)
(0.000130803 -6.84035e-05 0)
(0.000138258 -6.70915e-05 0)
(0.000145692 -6.5763e-05 0)
(0.000153118 -6.44232e-05 0)
(0.00016055 -6.30755e-05 0)
(0.000167999 -6.17216e-05 0)
(0.000175475 -6.03589e-05 0)
(0.000182951 -5.8986e-05 0)
(0.000190488 -5.75945e-05 0)
(0.000198149 -5.61818e-05 0)
(0.000205883 -5.47488e-05 0)
(0.000213659 -5.32794e-05 0)
(0.000221468 -5.1774e-05 0)
(0.000229256 -5.02328e-05 0)
(0.000237065 -4.8645e-05 0)
(0.000244904 -4.70005e-05 0)
(0.000252622 -4.532e-05 0)
(0.000260214 -4.35607e-05 0)
(0.000267645 -4.17231e-05 0)
(0.000274811 -3.97421e-05 0)
(0.000281741 -3.76177e-05 0)
(0.000288421 -3.53258e-05 0)
(0.000294814 -3.28769e-05 0)
(0.000300772 -3.02541e-05 0)
(0.000306197 -2.7454e-05 0)
(0.000311087 -2.4474e-05 0)
(0.000315356 -2.13154e-05 0)
(0.000318903 -1.79989e-05 0)
(0.00032163 -1.45263e-05 0)
(0.000323442 -1.09114e-05 0)
(0.000324199 -7.16053e-06 0)
(0.000323737 -3.27377e-06 0)
(0.000321945 6.93713e-07 0)
(0.000318771 4.7033e-06 0)
(0.000314204 8.74364e-06 0)
(0.000308099 1.27551e-05 0)
(0.000300635 1.67609e-05 0)
(0.000291709 2.06561e-05 0)
(0.00028128 2.44706e-05 0)
(0.000269355 2.81154e-05 0)
(0.000256067 3.1613e-05 0)
(0.000241295 3.48731e-05 0)
(0.000225214 3.79258e-05 0)
(0.000208101 4.06614e-05 0)
(0.000189656 4.30416e-05 0)
(0.000170224 4.50917e-05 0)
(0.000149753 4.6745e-05 0)
(0.000128686 4.79908e-05 0)
(0.000106973 4.87482e-05 0)
(8.48617e-05 4.90714e-05 0)
(6.26009e-05 4.88588e-05 0)
(4.0253e-05 4.81938e-05 0)
(1.82412e-05 4.70188e-05 0)
(-3.18487e-06 4.53741e-05 0)
(-2.39711e-05 4.31923e-05 0)
(-4.3832e-05 4.05811e-05 0)
(-6.2433e-05 3.74813e-05 0)
(-7.95955e-05 3.40057e-05 0)
(-9.50692e-05 3.01113e-05 0)
(-0.000108643 2.59313e-05 0)
(-0.000120254 2.14553e-05 0)
(-0.000129541 1.67843e-05 0)
(-0.000136391 1.19441e-05 0)
(-0.000141049 7.06225e-06 0)
(-0.000142996 2.18408e-06 0)
(-0.000142285 -2.60228e-06 0)
(-0.000138919 -7.19386e-06 0)
(-0.000132994 -1.15471e-05 0)
(-0.000124718 -1.55876e-05 0)
(-0.00011423 -1.924e-05 0)
(-0.000101779 -2.2432e-05 0)
(-8.75556e-05 -2.5085e-05 0)
(-7.18548e-05 -2.71711e-05 0)
(-5.50336e-05 -2.8617e-05 0)
(-3.7402e-05 -2.94145e-05 0)
(-1.9381e-05 -2.95387e-05 0)
(-1.35892e-06 -2.89856e-05 0)
(1.62462e-05 -2.77749e-05 0)
(3.30225e-05 -2.59253e-05 0)
(4.85723e-05 -2.35006e-05 0)
(6.24891e-05 -2.05403e-05 0)
(7.44723e-05 -1.71293e-05 0)
(8.42022e-05 -1.33602e-05 0)
(9.14231e-05 -9.32883e-06 0)
(9.59197e-05 -5.15273e-06 0)
(9.76355e-05 -9.11424e-07 0)
(9.64175e-05 3.18804e-06 0)
(9.22387e-05 7.09769e-06 0)
(8.54321e-05 1.07023e-05 0)
(7.62037e-05 1.38821e-05 0)
(6.483e-05 1.65457e-05 0)
(5.16857e-05 1.86025e-05 0)
(3.71982e-05 2.00008e-05 0)
(2.18572e-05 2.06844e-05 0)
(6.16894e-06 2.06476e-05 0)
(-9.29133e-06 1.98985e-05 0)
(-2.40244e-05 1.84596e-05 0)
(-3.74765e-05 1.64201e-05 0)
(-4.91824e-05 1.38324e-05 0)
(-5.87584e-05 1.08333e-05 0)
(-6.58252e-05 7.52783e-06 0)
(-7.02311e-05 4.06415e-06 0)
(-7.17968e-05 5.89747e-07 0)
(-7.04331e-05 -2.71558e-06 0)
(-6.63082e-05 -5.75059e-06 0)
(-5.97618e-05 -8.38435e-06 0)
(-5.11658e-05 -1.04975e-05 0)
(-4.095e-05 -1.19983e-05 0)
(-2.9699e-05 -1.28335e-05 0)
(-1.79551e-05 -1.2965e-05 0)
(-6.38414e-06 -1.2421e-05 0)
(4.44172e-06 -1.12034e-05 0)
(1.39536e-05 -9.47263e-06 0)
(2.16386e-05 -7.25377e-06 0)
(2.71202e-05 -4.77552e-06 0)
(3.01692e-05 -2.09646e-06 0)
(3.06134e-05 5.18512e-07 0)
(2.84276e-05 2.99575e-06 0)
(2.39603e-05 5.13993e-06 0)
(1.7571e-05 6.84511e-06 0)
(9.71882e-06 7.99115e-06 0)
(8.81517e-07 8.55147e-06 0)
(-8.19204e-06 8.44158e-06 0)
(-1.67873e-05 7.74231e-06 0)
(-2.43496e-05 6.46779e-06 0)
(-3.03426e-05 4.76238e-06 0)
(-3.43218e-05 2.7121e-06 0)
(-3.59921e-05 4.94115e-07 0)
(-3.50893e-05 -1.73772e-06 0)
(-3.16584e-05 -3.86077e-06 0)
(-2.59757e-05 -5.70096e-06 0)
(-1.83759e-05 -7.17541e-06 0)
(-9.32769e-06 -8.17018e-06 0)
(7.7078e-07 -8.62668e-06 0)
(1.11352e-05 -8.54399e-06 0)
(2.09967e-05 -7.9417e-06 0)
(2.99122e-05 -6.86734e-06 0)
(3.73214e-05 -5.4277e-06 0)
(4.28283e-05 -3.69537e-06 0)
(4.61326e-05 -1.83868e-06 0)
(4.70585e-05 5.80802e-08 0)
(4.56064e-05 1.84332e-06 0)
(4.19306e-05 3.45019e-06 0)
(3.63557e-05 4.76781e-06 0)
(2.9248e-05 5.73942e-06 0)
(2.10585e-05 6.32494e-06 0)
(1.23116e-05 6.51066e-06 0)
(3.50151e-06 6.3222e-06 0)
(-4.86078e-06 5.79084e-06 0)
(-1.23215e-05 4.97596e-06 0)
(-1.85425e-05 3.94644e-06 0)
(-2.32304e-05 2.78978e-06 0)
(-2.62371e-05 1.57894e-06 0)
(-2.75257e-05 3.83301e-07 0)
(-2.71272e-05 -7.07179e-07 0)
(-2.52021e-05 -1.6502e-06 0)
(-2.20142e-05 -2.39357e-06 0)
(-1.7838e-05 -2.90999e-06 0)
(-1.30337e-05 -3.18889e-06 0)
(-7.9532e-06 -3.22589e-06 0)
(-2.96595e-06 -3.05055e-06 0)
(1.61446e-06 -2.67243e-06 0)
(5.50404e-06 -2.1524e-06 0)
(8.46582e-06 -1.5202e-06 0)
(1.03551e-05 -8.29097e-07 0)
(1.10898e-05 -1.3096e-07 0)
(1.06775e-05 5.33842e-07 0)
(9.19966e-06 1.11862e-06 0)
(6.79361e-06 1.59642e-06 0)
(3.64778e-06 1.93204e-06 0)
(-7.62277e-08 2.11706e-06 0)
(-4.01805e-06 2.14173e-06 0)
(-7.81584e-06 2.01188e-06 0)
(-1.12745e-05 1.73283e-06 0)
(-1.41324e-05 1.33756e-06 0)
(-1.61789e-05 8.43089e-07 0)
(-1.72478e-05 2.90384e-07 0)
(-1.72308e-05 -2.8523e-07 0)
(-1.60931e-05 -8.46633e-07 0)
(-1.38833e-05 -1.35664e-06 0)
(-1.07161e-05 -1.77737e-06 0)
(-6.77887e-06 -2.07964e-06 0)
(-2.32318e-06 -2.23808e-06 0)
(4.47231e-06 -6.3988e-05 0)
(1.35912e-05 -6.35454e-05 0)
(2.27561e-05 -6.31164e-05 0)
(3.19514e-05 -6.24814e-05 0)
(4.11545e-05 -6.16429e-05 0)
(5.02958e-05 -6.06092e-05 0)
(5.92744e-05 -5.94067e-05 0)
(6.81867e-05 -5.8052e-05 0)
(7.69337e-05 -5.65796e-05 0)
(8.54576e-05 -5.50256e-05 0)
(9.39177e-05 -5.34e-05 0)
(0.000102292 -5.17419e-05 0)
(0.000110556 -5.00615e-05 0)
(0.000118849 -4.8428e-05 0)
(0.000126976 -4.68787e-05 0)
(0.000134978 -4.54812e-05 0)
(0.000142872 -4.4264e-05 0)
(0.000150507 -4.32737e-05 0)
(0.000158048 -4.25269e-05 0)
(0.000165463 -4.20735e-05 0)
(0.000172804 -4.19044e-05 0)
(0.000180115 -4.20314e-05 0)
(0.000187449 -4.24523e-05 0)
(0.000194839 -4.31293e-05 0)
(0.000202297 -4.40757e-05 0)
(0.000209891 -4.51929e-05 0)
(0.000217617 -4.6464e-05 0)
(0.000225514 -4.7855e-05 0)
(0.000233552 -4.92701e-05 0)
(0.000241612 -5.06513e-05 0)
(0.00024971 -5.18915e-05 0)
(0.000257955 -5.29453e-05 0)
(0.000266151 -5.36908e-05 0)
(0.00027435 -5.41082e-05 0)
(0.000282675 -5.41276e-05 0)
(0.000291214 -5.36967e-05 0)
(0.000299856 -5.27462e-05 0)
(0.000308369 -5.12129e-05 0)
(0.000316674 -4.90488e-05 0)
(0.000324687 -4.61804e-05 0)
(0.000332344 -4.26155e-05 0)
(0.000339461 -3.83024e-05 0)
(0.000346007 -3.32346e-05 0)
(0.000351765 -2.7418e-05 0)
(0.000356638 -2.0872e-05 0)
(0.000360573 -1.36119e-05 0)
(0.000363448 -5.70645e-06 0)
(0.000365204 2.79639e-06 0)
(0.000365421 1.18124e-05 0)
(0.000363795 2.1341e-05 0)
(0.000360517 3.12851e-05 0)
(0.000355482 4.15664e-05 0)
(0.000348726 5.20558e-05 0)
(0.000340216 6.26269e-05 0)
(0.000329885 7.31957e-05 0)
(0.000317793 8.36871e-05 0)
(0.000303916 9.3811e-05 0)
(0.000288395 0.000103655 0)
(0.000271146 0.00011285 0)
(0.000252271 0.000121455 0)
(0.000231741 0.000129181 0)
(0.000209894 0.000136038 0)
(0.000186951 0.00014176 0)
(0.0001627 0.000146388 0)
(0.000137533 0.000149713 0)
(0.000111695 0.00015168 0)
(8.53512e-05 0.000152257 0)
(5.88727e-05 0.000151334 0)
(3.25148e-05 0.000148931 0)
(6.51286e-06 0.000144982 0)
(-1.89174e-05 0.000139532 0)
(-4.34593e-05 0.000132547 0)
(-6.67872e-05 0.000124155 0)
(-8.85601e-05 0.000114391 0)
(-0.000108541 0.000103356 0)
(-0.000126423 9.12061e-05 0)
(-0.000141867 7.80595e-05 0)
(-0.000154959 6.40959e-05 0)
(-0.000165216 4.95663e-05 0)
(-0.000172441 3.45324e-05 0)
(-0.000176822 1.93825e-05 0)
(-0.000178013 4.25231e-06 0)
(-0.000175876 -1.04957e-05 0)
(-0.000170591 -2.46926e-05 0)
(-0.000162373 -3.81208e-05 0)
(-0.000151335 -5.05265e-05 0)
(-0.000137642 -6.16898e-05 0)
(-0.000121546 -7.13853e-05 0)
(-0.000103399 -7.94082e-05 0)
(-8.35304e-05 -8.56226e-05 0)
(-6.23679e-05 -8.98675e-05 0)
(-4.03869e-05 -9.20789e-05 0)
(-1.80233e-05 -9.21944e-05 0)
(4.1927e-06 -9.02094e-05 0)
(2.57757e-05 -8.6182e-05 0)
(4.61848e-05 -8.01983e-05 0)
(6.49673e-05 -7.24106e-05 0)
(8.16665e-05 -6.30031e-05 0)
(9.58359e-05 -5.22257e-05 0)
(0.000107146 -4.03633e-05 0)
(0.00011529 -2.77133e-05 0)
(0.000120116 -1.46376e-05 0)
(0.000121339 -1.48658e-06 0)
(0.000118917 1.13098e-05 0)
(0.000113106 2.34449e-05 0)
(0.000104059 3.45755e-05 0)
(9.20647e-05 4.43473e-05 0)
(7.74974e-05 5.24634e-05 0)
(6.08536e-05 5.86701e-05 0)
(4.26627e-05 6.27918e-05 0)
(2.35412e-05 6.46888e-05 0)
(4.16496e-06 6.43321e-05 0)
(-1.48215e-05 6.17565e-05 0)
(-3.27214e-05 5.70743e-05 0)
(-4.89155e-05 5.0498e-05 0)
(-6.28366e-05 4.2279e-05 0)
(-7.39904e-05 3.27916e-05 0)
(-8.19948e-05 2.23909e-05 0)
(-8.66163e-05 1.15448e-05 0)
(-8.7625e-05 7.19225e-07 0)
(-8.50661e-05 -9.58802e-06 0)
(-7.92434e-05 -1.90025e-05 0)
(-7.04713e-05 -2.71019e-05 0)
(-5.92275e-05 -3.35518e-05 0)
(-4.61044e-05 -3.80428e-05 0)
(-3.18128e-05 -4.04354e-05 0)
(-1.70752e-05 -4.06301e-05 0)
(-2.64378e-06 -3.87032e-05 0)
(1.06369e-05 -3.4756e-05 0)
(2.21593e-05 -2.91362e-05 0)
(3.12892e-05 -2.21204e-05 0)
(3.75954e-05 -1.42301e-05 0)
(4.08012e-05 -5.86702e-06 0)
(4.07229e-05 2.36185e-06 0)
(3.74985e-05 1.00443e-05 0)
(3.14303e-05 1.66841e-05 0)
(2.30429e-05 2.18929e-05 0)
(1.2958e-05 2.53906e-05 0)
(1.73121e-06 2.69297e-05 0)
(-9.68568e-06 2.64921e-05 0)
(-2.03959e-05 2.41543e-05 0)
(-2.97387e-05 2.01272e-05 0)
(-3.70578e-05 1.47022e-05 0)
(-4.18681e-05 8.31678e-06 0)
(-4.37704e-05 1.3967e-06 0)
(-4.26147e-05 -5.51347e-06 0)
(-3.84299e-05 -1.20263e-05 0)
(-3.15751e-05 -1.76787e-05 0)
(-2.25008e-05 -2.21106e-05 0)
(-1.17264e-05 -2.50537e-05 0)
(1.56685e-07 -2.63857e-05 0)
(1.22351e-05 -2.6015e-05 0)
(2.36643e-05 -2.40749e-05 0)
(3.38689e-05 -2.07216e-05 0)
(4.22575e-05 -1.62533e-05 0)
(4.8351e-05 -1.09753e-05 0)
(5.18423e-05 -5.29258e-06 0)
(5.25961e-05 4.41563e-07 0)
(5.06498e-05 5.85226e-06 0)
(4.62296e-05 1.06585e-05 0)
(3.96829e-05 1.45692e-05 0)
(3.14861e-05 1.74184e-05 0)
(2.21556e-05 1.90798e-05 0)
(1.23101e-05 1.95654e-05 0)
(2.50533e-06 1.89101e-05 0)
(-6.70449e-06 1.7239e-05 0)
(-1.48194e-05 1.47313e-05 0)
(-2.147e-05 1.16083e-05 0)
(-2.63647e-05 8.10138e-06 0)
(-2.93866e-05 4.45695e-06 0)
(-3.04836e-05 9.01552e-07 0)
(-2.97281e-05 -2.33254e-06 0)
(-2.73345e-05 -5.11644e-06 0)
(-2.35889e-05 -7.2927e-06 0)
(-1.88208e-05 -8.79057e-06 0)
(-1.34197e-05 -9.5668e-06 0)
(-7.7863e-06 -9.6389e-06 0)
(-2.30566e-06 -9.0672e-06 0)
(2.67402e-06 -7.92001e-06 0)
(6.84774e-06 -6.3374e-06 0)
(9.99139e-06 -4.44147e-06 0)
(1.19384e-05 -2.38613e-06 0)
(1.26254e-05 -3.04847e-07 0)
(1.20692e-05 1.6563e-06 0)
(1.03696e-05 3.38543e-06 0)
(7.67903e-06 4.78065e-06 0)
(4.20807e-06 5.76555e-06 0)
(1.47006e-07 6.29685e-06 0)
(-4.12837e-06 6.35969e-06 0)
(-8.24049e-06 5.95265e-06 0)
(-1.1967e-05 5.13185e-06 0)
(-1.50357e-05 3.94816e-06 0)
(-1.723e-05 2.48775e-06 0)
(-1.83674e-05 8.52057e-07 0)
(-1.83462e-05 -8.48304e-07 0)
(-1.71323e-05 -2.50516e-06 0)
(-1.47759e-05 -4.00531e-06 0)
(-1.14018e-05 -5.24421e-06 0)
(-7.21126e-06 -6.13292e-06 0)
(-2.47078e-06 -6.59948e-06 0)
(5.39715e-06 -0.000239885 0)
(1.61868e-05 -0.000241395 0)
(2.69476e-05 -0.000240032 0)
(3.76423e-05 -0.000237947 0)
(4.81861e-05 -0.000235168 0)
(5.84229e-05 -0.000231702 0)
(6.83098e-05 -0.000227584 0)
(7.78044e-05 -0.000222843 0)
(8.67743e-05 -0.000217542 0)
(9.53848e-05 -0.000211769 0)
(0.000103631 -0.000205613 0)
(0.000111492 -0.000199234 0)
(0.000118774 -0.000192749 0)
(0.000125273 -0.000186276 0)
(0.000131013 -0.000179956 0)
(0.000136104 -0.000173899 0)
(0.00014068 -0.00016822 0)
(0.000144833 -0.00016303 0)
(0.000148583 -0.000158456 0)
(0.000152115 -0.000154541 0)
(0.000155701 -0.000151392 0)
(0.000159314 -0.000148999 0)
(0.000163283 -0.00014737 0)
(0.00016752 -0.000146409 0)
(0.000172366 -0.000146065 0)
(0.000178052 -0.000146209 0)
(0.000184218 -0.000146672 0)
(0.000191282 -0.000147313 0)
(0.00019933 -0.000148094 0)
(0.000208372 -0.000148804 0)
(0.000218261 -0.000149284 0)
(0.000229099 -0.00014955 0)
(0.000240698 -0.000149342 0)
(0.000252609 -0.000148536 0)
(0.000265011 -0.000146935 0)
(0.000277855 -0.000144328 0)
(0.000291075 -0.000140724 0)
(0.000304529 -0.000135934 0)
(0.000318224 -0.000129918 0)
(0.000331814 -0.000122597 0)
(0.000345035 -0.000113949 0)
(0.00035785 -0.000103941 0)
(0.000369956 -9.2582e-05 0)
(0.000381127 -7.99043e-05 0)
(0.000391223 -6.59338e-05 0)
(0.000399924 -5.07654e-05 0)
(0.000406985 -3.4505e-05 0)
(0.000412229 -1.72145e-05 0)
(0.000415705 9.67152e-07 0)
(0.000417241 2.00539e-05 0)
(0.000416469 3.96502e-05 0)
(0.000413256 5.96841e-05 0)
(0.000407293 7.99209e-05 0)
(0.000398971 0.000100166 0)
(0.000388451 0.000120248 0)
(0.000374846 0.00013988 0)
(0.000358892 0.000158944 0)
(0.00034044 0.000177161 0)
(0.000319265 0.000194276 0)
(0.000295924 0.000210067 0)
(0.000270482 0.000224313 0)
(0.000242863 0.000236802 0)
(0.000213533 0.000247322 0)
(0.000182686 0.000255628 0)
(0.000150391 0.000261648 0)
(0.000117355 0.000265164 0)
(8.36183e-05 0.000266119 0)
(4.96442e-05 0.000264371 0)
(1.56951e-05 0.000259903 0)
(-1.77387e-05 0.000252663 0)
(-5.02892e-05 0.000242675 0)
(-8.15881e-05 0.000230024 0)
(-0.00011111 0.000214816 0)
(-0.000138629 0.000197199 0)
(-0.000163573 0.000177351 0)
(-0.000185667 0.000155531 0)
(-0.00020462 0.000131985 0)
(-0.000219987 0.00010703 0)
(-0.000231847 8.10603e-05 0)
(-0.000239658 5.43996e-05 0)
(-0.000243453 2.74715e-05 0)
(-0.000242899 7.47221e-07 0)
(-0.000237968 -2.53549e-05 0)
(-0.000229194 -5.04354e-05 0)
(-0.000216457 -7.40636e-05 0)
(-0.000200002 -9.57732e-05 0)
(-0.000180115 -0.000115188 0)
(-0.000157124 -0.000131906 0)
(-0.000131539 -0.000145613 0)
(-0.000103825 -0.000156007 0)
(-7.45782e-05 -0.000162893 0)
(-4.44304e-05 -0.000166092 0)
(-1.39784e-05 -0.000165561 0)
(1.60353e-05 -0.000161303 0)
(4.49456e-05 -0.000153401 0)
(7.20857e-05 -0.000142037 0)
(9.68148e-05 -0.000127505 0)
(0.000118495 -0.000110174 0)
(0.00013658 -9.04629e-05 0)
(0.000150688 -6.8875e-05 0)
(0.000160414 -4.60115e-05 0)
(0.000165466 -2.24781e-05 0)
(0.000165661 1.03684e-06 0)
(0.000161029 2.39032e-05 0)
(0.000151856 4.5479e-05 0)
(0.000138397 6.51024e-05 0)
(0.000121028 8.21991e-05 0)
(0.000100327 9.62485e-05 0)
(7.70129e-05 0.000106821 0)
(5.182e-05 0.000113586 0)
(2.561e-05 0.000116368 0)
(-6.85384e-07 0.00011509 0)
(-2.61717e-05 0.000109844 0)
(-4.99508e-05 0.000100853 0)
(-7.1182e-05 8.85186e-05 0)
(-8.90739e-05 7.33367e-05 0)
(-0.000103061 5.59557e-05 0)
(-0.00011263 3.70929e-05 0)
(-0.000117439 1.75651e-05 0)
(-0.000117309 -1.84077e-06 0)
(-0.000112425 -2.0278e-05 0)
(-0.000103188 -3.69692e-05 0)
(-9.00633e-05 -5.11725e-05 0)
(-7.37087e-05 -6.23021e-05 0)
(-5.49962e-05 -6.98698e-05 0)
(-3.49568e-05 -7.36133e-05 0)
(-1.45757e-05 -7.34025e-05 0)
(5.09275e-06 -6.93607e-05 0)
(2.29558e-05 -6.18029e-05 0)
(3.81465e-05 -5.11891e-05 0)
(4.98694e-05 -3.82715e-05 0)
(5.75623e-05 -2.37746e-05 0)
(6.09007e-05 -8.66895e-06 0)
(5.97525e-05 6.21087e-06 0)
(5.43676e-05 1.99059e-05 0)
(4.51845e-05 3.16682e-05 0)
(3.29996e-05 4.07328e-05 0)
(1.8563e-05 4.66627e-05 0)
(2.82401e-06 4.90497e-05 0)
(-1.28993e-05 4.79087e-05 0)
(-2.75071e-05 4.33784e-05 0)
(-4.01052e-05 3.5902e-05 0)
(-4.98153e-05 2.59949e-05 0)
(-5.60207e-05 1.44607e-05 0)
(-5.82957e-05 2.13481e-06 0)
(-5.64964e-05 -1.01526e-05 0)
(-5.08441e-05 -2.15476e-05 0)
(-4.17073e-05 -3.13668e-05 0)
(-2.9762e-05 -3.89335e-05 0)
(-1.58623e-05 -4.38334e-05 0)
(-7.0203e-07 -4.58704e-05 0)
(1.45477e-05 -4.49452e-05 0)
(2.87613e-05 -4.13097e-05 0)
(4.12678e-05 -3.52656e-05 0)
(5.13205e-05 -2.73548e-05 0)
(5.83989e-05 -1.81509e-05 0)
(6.21695e-05 -8.31095e-06 0)
(6.25389e-05 1.49827e-06 0)
(5.96399e-05 1.07005e-05 0)
(5.37739e-05 1.87468e-05 0)
(4.54407e-05 2.52291e-05 0)
(3.52484e-05 2.9839e-05 0)
(2.38908e-05 3.24352e-05 0)
(1.21081e-05 3.30103e-05 0)
(5.36285e-07 3.16695e-05 0)
(-1.01403e-05 2.86585e-05 0)
(-1.93615e-05 2.42686e-05 0)
(-2.67411e-05 1.89062e-05 0)
(-3.19754e-05 1.29389e-05 0)
(-3.49447e-05 6.80665e-06 0)
(-3.56464e-05 8.82329e-07 0)
(-3.42442e-05 -4.4857e-06 0)
(-3.10034e-05 -9.04756e-06 0)
(-2.62645e-05 -1.2567e-05 0)
(-2.04421e-05 -1.49482e-05 0)
(-1.39986e-05 -1.61147e-05 0)
(-7.40281e-06 -1.61181e-05 0)
(-1.0763e-06 -1.50504e-05 0)
(4.58576e-06 -1.30715e-05 0)
(9.24896e-06 -1.03738e-05 0)
(1.26735e-05 -7.18945e-06 0)
(1.47107e-05 -3.75555e-06 0)
(1.52987e-05 -3.11081e-07 0)
(1.44768e-05 2.9256e-06 0)
(1.23804e-05 5.76103e-06 0)
(9.19e-06 8.03165e-06 0)
(5.15791e-06 9.62061e-06 0)
(5.10628e-07 1.04561e-05 0)
(-4.3491e-06 1.05201e-05 0)
(-8.99242e-06 9.82587e-06 0)
(-1.31752e-05 8.44936e-06 0)
(-1.66117e-05 6.48491e-06 0)
(-1.90499e-05 4.07796e-06 0)
(-2.03063e-05 1.38862e-06 0)
(-2.02739e-05 -1.403e-06 0)
(-1.89227e-05 -4.11562e-06 0)
(-1.63108e-05 -6.56846e-06 0)
(-1.25808e-05 -8.59221e-06 0)
(-7.95445e-06 -1.00421e-05 0)
(-2.72502e-06 -1.08034e-05 0)
(9.49886e-06 -0.000247038 0)
(2.86136e-05 -0.00024541 0)
(4.77176e-05 -0.000242076 0)
(6.66121e-05 -0.000237092 0)
(8.51256e-05 -0.000230489 0)
(0.000103037 -0.000222371 0)
(0.000120125 -0.000212738 0)
(0.000136297 -0.000201762 0)
(0.000151081 -0.000189516 0)
(0.000164321 -0.000176386 0)
(0.000175754 -0.000162657 0)
(0.000185213 -0.000148787 0)
(0.000193001 -0.000135137 0)
(0.000199118 -0.000122144 0)
(0.000203488 -0.000110137 0)
(0.000206381 -9.94784e-05 0)
(0.000207861 -9.05218e-05 0)
(0.000207777 -8.35623e-05 0)
(0.000206724 -7.87533e-05 0)
(0.000204843 -7.62951e-05 0)
(0.000202547 -7.62919e-05 0)
(0.00020045 -7.86926e-05 0)
(0.000199102 -8.33293e-05 0)
(0.000198837 -8.98e-05 0)
(0.000199862 -9.79101e-05 0)
(0.000202855 -0.000107106 0)
(0.000207778 -0.000117097 0)
(0.000213981 -0.00012753 0)
(0.000221758 -0.000137968 0)
(0.000231583 -0.000148285 0)
(0.000242257 -0.000158174 0)
(0.000254331 -0.00016737 0)
(0.000268296 -0.000175573 0)
(0.000283768 -0.000182289 0)
(0.000301224 -0.000187504 0)
(0.000319706 -0.000190758 0)
(0.000338955 -0.000191875 0)
(0.000358957 -0.000190567 0)
(0.000379116 -0.000186752 0)
(0.000399212 -0.000180352 0)
(0.000418931 -0.000171238 0)
(0.000437964 -0.000159444 0)
(0.000455956 -0.000144976 0)
(0.000472626 -0.000127911 0)
(0.000487612 -0.000108347 0)
(0.000500509 -8.64659e-05 0)
(0.000511352 -6.24932e-05 0)
(0.000519962 -3.6578e-05 0)
(0.000526313 -9.08819e-06 0)
(0.000529098 1.96311e-05 0)
(0.000528131 4.95138e-05 0)
(0.000524033 8.03088e-05 0)
(0.00051635 0.000111502 0)
(0.000505405 0.000143051 0)
(0.000490851 0.000174226 0)
(0.000472904 0.000204888 0)
(0.000451725 0.000234556 0)
(0.000426937 0.000262917 0)
(0.000398715 0.000289394 0)
(0.000367402 0.000313879 0)
(0.000333079 0.000335917 0)
(0.000296109 0.000355049 0)
(0.000256678 0.000371229 0)
(0.00021516 0.00038386 0)
(0.00017203 0.000392958 0)
(0.000127659 0.000398136 0)
(8.24948e-05 0.000399293 0)
(3.70654e-05 0.000396268 0)
(-8.07088e-06 0.000389032 0)
(-5.25095e-05 0.000377531 0)
(-9.5573e-05 0.000361859 0)
(-0.000136714 0.000342083 0)
(-0.000175407 0.00031843 0)
(-0.000211107 0.000291077 0)
(-0.000243268 0.000260428 0)
(-0.000271437 0.000226716 0)
(-0.000295132 0.000190519 0)
(-0.000314017 0.000152197 0)
(-0.000327749 0.000112361 0)
(-0.000336061 7.16476e-05 0)
(-0.000338763 3.06139e-05 0)
(-0.000335637 -1.00081e-05 0)
(-0.000326848 -4.96589e-05 0)
(-0.000312647 -8.76045e-05 0)
(-0.000293099 -0.000123168 0)
(-0.00026857 -0.000155703 0)
(-0.000239501 -0.000184564 0)
(-0.000206372 -0.000209212 0)
(-0.000169871 -0.000229147 0)
(-0.000130698 -0.000243959 0)
(-8.96648e-05 -0.000253348 0)
(-4.76708e-05 -0.000257076 0)
(-5.63597e-06 -0.000255035 0)
(3.55744e-05 -0.000247292 0)
(7.50357e-05 -0.000234015 0)
(0.000111706 -0.000215549 0)
(0.000144717 -0.000192254 0)
(0.000173357 -0.000164761 0)
(0.000196908 -0.000133718 0)
(0.000214712 -9.99908e-05 0)
(0.00022631 -6.44716e-05 0)
(0.000231423 -2.81171e-05 0)
(0.00022983 8.05619e-06 0)
(0.000221696 4.30834e-05 0)
(0.000207315 7.59148e-05 0)
(0.000187097 0.000105605 0)
(0.000161719 0.000131217 0)
(0.000131961 0.00015201 0)
(9.88082e-05 0.000167321 0)
(6.33835e-05 0.000176709 0)
(2.68779e-05 0.000179882 0)
(-9.4555e-06 0.00017683 0)
(-4.4356e-05 0.000167678 0)
(-7.65269e-05 0.000152878 0)
(-0.000104836 0.000132999 0)
(-0.000128281 0.000108883 0)
(-0.000146025 8.14905e-05 0)
(-0.000157455 5.1979e-05 0)
(-0.000162289 2.16307e-05 0)
(-0.000160345 -8.25361e-06 0)
(-0.000151814 -3.64602e-05 0)
(-0.000137303 -6.17937e-05 0)
(-0.000117563 -8.31327e-05 0)
(-9.36178e-05 -9.95324e-05 0)
(-6.67142e-05 -0.00011034 0)
(-3.82503e-05 -0.00011518 0)
(-9.64571e-06 -0.000113898 0)
(1.75728e-05 -0.000106697 0)
(4.20053e-05 -9.41367e-05 0)
(6.23531e-05 -7.70098e-05 0)
(7.76098e-05 -5.64471e-05 0)
(8.70642e-05 -3.36618e-05 0)
(9.03525e-05 -1.00293e-05 0)
(8.74192e-05 1.29303e-05 0)
(7.86403e-05 3.39185e-05 0)
(6.47241e-05 5.17003e-05 0)
(4.6768e-05 6.51928e-05 0)
(2.59978e-05 7.36827e-05 0)
(3.71695e-06 7.67525e-05 0)
(-1.82671e-05 7.43438e-05 0)
(-3.84334e-05 6.67857e-05 0)
(-5.55885e-05 5.47872e-05 0)
(-6.85981e-05 3.92264e-05 0)
(-7.6586e-05 2.1369e-05 0)
(-7.91909e-05 2.4213e-06 0)
(-7.6316e-05 -1.61721e-05 0)
(-6.82917e-05 -3.32757e-05 0)
(-5.57834e-05 -4.77873e-05 0)
(-3.96766e-05 -5.87612e-05 0)
(-2.12004e-05 -6.56624e-05 0)
(-1.38651e-06 -6.81633e-05 0)
(1.82476e-05 -6.63212e-05 0)
(3.63312e-05 -6.04323e-05 0)
(5.19476e-05 -5.11121e-05 0)
(6.41926e-05 -3.91073e-05 0)
(7.24933e-05 -2.53519e-05 0)
(7.64786e-05 -1.08274e-05 0)
(7.61695e-05 3.50666e-06 0)
(7.18042e-05 1.67839e-05 0)
(6.38537e-05 2.82484e-05 0)
(5.29953e-05 3.73195e-05 0)
(4.00475e-05 4.36142e-05 0)
(2.58984e-05 4.69581e-05 0)
(1.14561e-05 4.73755e-05 0)
(-2.44515e-06 4.50579e-05 0)
(-1.50496e-05 4.03973e-05 0)
(-2.5702e-05 3.38521e-05 0)
(-3.39774e-05 2.59733e-05 0)
(-3.95766e-05 1.73593e-05 0)
(-4.24057e-05 8.58739e-06 0)
(-4.25412e-05 1.99877e-07 0)
(-4.0214e-05 -7.34313e-06 0)
(-3.57764e-05 -1.36514e-05 0)
(-2.96872e-05 -1.8456e-05 0)
(-2.24518e-05 -2.1617e-05 0)
(-1.46133e-05 -2.30605e-05 0)
(-6.74037e-06 -2.28699e-05 0)
(6.82052e-07 -2.11894e-05 0)
(7.21639e-06 -1.82582e-05 0)
(1.25005e-05 -1.43623e-05 0)
(1.62813e-05 -9.81301e-06 0)
(1.84035e-05 -4.95281e-06 0)
(1.88355e-05 -1.1423e-07 0)
(1.76501e-05 4.40687e-06 0)
(1.50107e-05 8.334e-06 0)
(1.1149e-05 1.14553e-05 0)
(6.36567e-06 1.36145e-05 0)
(9.42392e-07 1.47183e-05 0)
(-4.66956e-06 1.47473e-05 0)
(-1.00106e-05 1.37342e-05 0)
(-1.47935e-05 1.17714e-05 0)
(-1.86943e-05 9.01446e-06 0)
(-2.14478e-05 5.65064e-06 0)
(-2.28529e-05 1.90968e-06 0)
(-2.28e-05 -1.9654e-06 0)
(-2.12649e-05 -5.72171e-06 0)
(-1.83172e-05 -9.1106e-06 0)
(-1.41193e-05 -1.19052e-05 0)
(-8.92333e-06 -1.39063e-05 0)
(-3.05616e-06 -1.49558e-05 0)
(1.64842e-05 -0.000527015 0)
(4.92284e-05 -0.000526825 0)
(8.15279e-05 -0.000521027 0)
(0.000112935 -0.000512285 0)
(0.000142913 -0.000500517 0)
(0.000171486 -0.000486098 0)
(0.00019822 -0.000468568 0)
(0.000222657 -0.000449363 0)
(0.000243445 -0.000427295 0)
(0.000259576 -0.000404159 0)
(0.000270743 -0.000379446 0)
(0.000276592 -0.000354418 0)
(0.000277235 -0.000329332 0)
(0.000272855 -0.000305074 0)
(0.000264044 -0.000282005 0)
(0.000250939 -0.000260589 0)
(0.000234144 -0.000240941 0)
(0.000214885 -0.000223479 0)
(0.000193824 -0.000208785 0)
(0.000171426 -0.000197098 0)
(0.00014933 -0.000188571 0)
(0.000128964 -0.000183544 0)
(0.000112364 -0.000182014 0)
(9.95397e-05 -0.00018395 0)
(9.14313e-05 -0.00018893 0)
(8.86426e-05 -0.000197306 0)
(8.97965e-05 -0.000208388 0)
(9.57031e-05 -0.000223113 0)
(0.000105328 -0.000238874 0)
(0.000118053 -0.000256281 0)
(0.000134149 -0.000272976 0)
(0.000153692 -0.000288876 0)
(0.000177459 -0.00030244 0)
(0.000203701 -0.000313484 0)
(0.000232364 -0.000321393 0)
(0.000263925 -0.000325846 0)
(0.00029743 -0.00032646 0)
(0.000332309 -0.00032313 0)
(0.000367598 -0.000315687 0)
(0.000403128 -0.000304103 0)
(0.000438177 -0.000288397 0)
(0.000472136 -0.000268739 0)
(0.000504536 -0.000245086 0)
(0.000534805 -0.000217811 0)
(0.000562412 -0.00018707 0)
(0.000586584 -0.000153168 0)
(0.000607284 -0.000116335 0)
(0.00062387 -7.69405e-05 0)
(0.000635722 -3.53493e-05 0)
(0.000643733 7.84277e-06 0)
(0.000647957 5.26536e-05 0)
(0.000646807 9.82776e-05 0)
(0.000640752 0.000144439 0)
(0.000629537 0.000190518 0)
(0.00061298 0.000236107 0)
(0.000591308 0.000280687 0)
(0.000564667 0.000323651 0)
(0.000532655 0.000364428 0)
(0.000495837 0.000402577 0)
(0.000455227 0.000437601 0)
(0.000409847 0.000468925 0)
(0.000361045 0.000496273 0)
(0.000308889 0.000518853 0)
(0.000253821 0.000536673 0)
(0.000196666 0.00054904 0)
(0.00013776 0.000555949 0)
(7.79261e-05 0.000556951 0)
(1.78563e-05 0.000552078 0)
(-4.18378e-05 0.000541084 0)
(-0.000100314 0.000524087 0)
(-0.000156825 0.000501121 0)
(-0.00021066 0.000472372 0)
(-0.000261006 0.000438095 0)
(-0.00030714 0.000398661 0)
(-0.00034843 0.000354528 0)
(-0.000384196 0.000306221 0)
(-0.000413817 0.000254426 0)
(-0.000436893 0.000199798 0)
(-0.000452854 0.000143155 0)
(-0.000461409 8.53362e-05 0)
(-0.000462421 2.73119e-05 0)
(-0.000455703 -2.9929e-05 0)
(-0.000441363 -8.55903e-05 0)
(-0.000419702 -0.000138684 0)
(-0.000390942 -0.000188224 0)
(-0.000355538 -0.000233331 0)
(-0.000314172 -0.000273083 0)
(-0.0002676 -0.000306749 0)
(-0.000216717 -0.000333589 0)
(-0.00016255 -0.000353058 0)
(-0.000106163 -0.000364678 0)
(-4.86786e-05 -0.000368263 0)
(8.58065e-06 -0.000363684 0)
(6.42566e-05 -0.000351022 0)
(0.000117086 -0.000330503 0)
(0.000165989 -0.000302628 0)
(0.00020976 -0.000268075 0)
(0.00024723 -0.000227695 0)
(0.000277427 -0.000182537 0)
(0.000299578 -0.000133746 0)
(0.00031322 -8.26281e-05 0)
(0.000317927 -3.06249e-05 0)
(0.000313642 2.08942e-05 0)
(0.000300474 7.05069e-05 0)
(0.000278888 0.000116751 0)
(0.000249511 0.000158225 0)
(0.000213244 0.000193718 0)
(0.000171303 0.000222116 0)
(0.000125075 0.000242593 0)
(7.60801e-05 0.000254499 0)
(2.60302e-05 0.000257529 0)
(-2.33537e-05 0.000251585 0)
(-7.03403e-05 0.000237043 0)
(-0.000113261 0.00021445 0)
(-0.000150634 0.00018478 0)
(-0.000181062 0.000149257 0)
(-0.000203542 0.00010933 0)
(-0.000217151 6.67001e-05 0)
(-0.000221449 2.31372e-05 0)
(-0.000216504 -1.95352e-05 0)
(-0.000202829 -5.9547e-05 0)
(-0.000181127 -9.51224e-05 0)
(-0.000152402 -0.000124695 0)
(-0.000118187 -0.000147066 0)
(-8.03538e-05 -0.000161273 0)
(-4.07756e-05 -0.000166816 0)
(-1.37364e-06 -0.000163572 0)
(3.56993e-05 -0.000151946 0)
(6.84961e-05 -0.000132688 0)
(9.53517e-05 -0.000107164 0)
(0.00011495 -7.68548e-05 0)
(0.00012648 -4.36062e-05 0)
(0.000129313 -9.53752e-06 0)
(0.000123573 2.33517e-05 0)
(0.000110048 5.3069e-05 0)
(8.96168e-05 7.79407e-05 0)
(6.39099e-05 9.64901e-05 0)
(3.4683e-05 0.000107665 0)
(3.82678e-06 0.000111081 0)
(-2.63068e-05 0.000106641 0)
(-5.36121e-05 9.50136e-05 0)
(-7.65171e-05 7.71455e-05 0)
(-9.34983e-05 5.45716e-05 0)
(-0.000103603 2.88888e-05 0)
(-0.000106301 2.05935e-06 0)
(-0.000101645 -2.40591e-05 0)
(-9.039e-05 -4.7796e-05 0)
(-7.325e-05 -6.76005e-05 0)
(-5.16593e-05 -8.22771e-05 0)
(-2.72838e-05 -9.11638e-05 0)
(-1.55633e-06 -9.3837e-05 0)
(2.3606e-05 -9.05406e-05 0)
(4.64492e-05 -8.17418e-05 0)
(6.58181e-05 -6.83666e-05 0)
(8.06589e-05 -5.15218e-05 0)
(9.02592e-05 -3.25047e-05 0)
(9.43234e-05 -1.26706e-05 0)
(9.2965e-05 6.68733e-06 0)
(8.66063e-05 2.43799e-05 0)
(7.59149e-05 3.94388e-05 0)
(6.18341e-05 5.11304e-05 0)
(4.54333e-05 5.89901e-05 0)
(2.78474e-05 6.28595e-05 0)
(1.01956e-05 6.28228e-05 0)
(-6.51887e-06 5.91952e-05 0)
(-2.13691e-05 5.25422e-05 0)
(-3.36651e-05 4.35009e-05 0)
(-4.29212e-05 3.28231e-05 0)
(-4.88458e-05 2.13227e-05 0)
(-5.14114e-05 9.72908e-06 0)
(-5.07659e-05 -1.22418e-06 0)
(-4.72467e-05 -1.09673e-05 0)
(-4.13223e-05 -1.90043e-05 0)
(-3.35834e-05 -2.50315e-05 0)
(-2.46341e-05 -2.88636e-05 0)
(-1.51405e-05 -3.0467e-05 0)
(-5.76455e-06 -2.99468e-05 0)
(2.94327e-06 -2.75261e-05 0)
(1.04786e-05 -2.35157e-05 0)
(1.64613e-05 -1.83054e-05 0)
(2.0622e-05 -1.2307e-05 0)
(2.28127e-05 -5.96512e-06 0)
(2.30308e-05 3.1103e-07 0)
(2.1379e-05 6.12021e-06 0)
(1.80756e-05 1.11353e-05 0)
(1.34103e-05 1.50842e-05 0)
(7.73902e-06 1.77843e-05 0)
(1.40139e-06 1.91185e-05 0)
(-5.09994e-06 1.90762e-05 0)
(-1.1253e-05 1.77038e-05 0)
(-1.67247e-05 1.51309e-05 0)
(-2.11643e-05 1.15538e-05 0)
(-2.4276e-05 7.21828e-06 0)
(-2.58459e-05 2.41545e-06 0)
(-2.57622e-05 -2.54403e-06 0)
(-2.40037e-05 -7.33992e-06 0)
(-2.06587e-05 -1.16603e-05 0)
(-1.59154e-05 -1.52158e-05 0)
(-1.00538e-05 -1.77588e-05 0)
(-3.44225e-06 -1.90924e-05 0)
(2.68502e-05 -0.000619538 0)
(8.04369e-05 -0.000608579 0)
(0.000133435 -0.000587975 0)
(0.000185773 -0.000556978 0)
(0.000235356 -0.000515443 0)
(0.000283798 -0.000464615 0)
(0.000325357 -0.000403577 0)
(0.000363602 -0.000336796 0)
(0.00039611 -0.00026132 0)
(0.000419718 -0.000185849 0)
(0.000437284 -0.000110002 0)
(0.000444902 -3.81091e-05 0)
(0.00044494 2.80692e-05 0)
(0.000437105 8.61232e-05 0)
(0.000423631 0.000135226 0)
(0.000406044 0.000174453 0)
(0.000384672 0.000202864 0)
(0.000357574 0.000220329 0)
(0.000326504 0.000226897 0)
(0.000292875 0.000223156 0)
(0.000257238 0.000208971 0)