# Residuals       
# Time            	p                 	Ux                	Uy                	h                 	k                 	epsilon           
1                 	N/A               	N/A               	N/A               	N/A               	N/A               	N/A               
