#           v             n
     0.523599   5.73201e-13
     0.648652   7.17636e-13
     0.790112   2.35425e-12
     0.953116   8.35375e-12
      1.13449   3.06394e-11
      1.34047   1.19746e-10
      1.56672   4.76916e-10
      1.82069   1.99254e-09
      2.09677   8.35265e-09
      2.40376   3.61081e-08
      2.73462   1.53847e-07
      3.09966   6.62658e-07
      3.49026   2.75195e-06
      3.91837   1.12652e-05
      4.37366   4.31589e-05
      4.86986   0.000157277
       5.3948   0.000512697
      5.96412     0.0015006
      6.56366    0.00362753
      7.21112     0.0070563
      7.89023    0.00967764
      8.62085     0.0091555
      9.38447     0.0072565
      10.2033    0.00378474
      11.0564             0
      11.9684             0
      12.9159             0
      13.9262             0
      14.9731             0
