#           y            Uf            nu         nuEff             k       epsilon           Rff           Rww           Rfw             u             v             w            uv      gammaDot
     0.000625       7.03016         1e-08   6.32687e-05      0.202856       58.5462      0.135237      0.135237     -0.370375      0.367746      0.367746      0.367746     -0.370375       5854.92
     0.001875       7.60716         1e-08    0.00019226      0.217694       22.1855       0.14513       0.14513    -0.0654666      0.380959      0.380959      0.380959    -0.0654666       340.528
     0.003125       7.88148         1e-08   0.000347025      0.223996       13.0129      0.149331      0.149331    -0.0625639      0.386433      0.386433      0.386433    -0.0625639       180.292
     0.004375       8.05788         1e-08    0.00051113       0.23406       9.64656       0.15604       0.15604    -0.0635936      0.395019      0.395019      0.395019    -0.0635936        124.42
     0.005625       8.19253         1e-08   0.000663353      0.245753       8.19414      0.163836      0.163836    -0.0663645      0.404766      0.404766      0.404766    -0.0663645       100.046
     0.006875         8.308         1e-08   0.000791128      0.258186       7.58347      0.172124      0.172124    -0.0704708      0.414879      0.414879      0.414879    -0.0704708       89.0775
     0.008125       8.41522         1e-08    0.00088926      0.270943       7.42977      0.180629      0.180629     -0.075501      0.425005      0.425005      0.425005     -0.075501       84.9041
     0.009375       8.52026         1e-08   0.000957134      0.283757       7.57126      0.189171      0.189171    -0.0810706      0.434938      0.434938      0.434938    -0.0810706       84.7022
     0.010625       8.62698         1e-08   0.000995109      0.296395       7.94546      0.197597      0.197597    -0.0869498      0.444519      0.444519      0.444519    -0.0869498        87.378
     0.011875        8.7387         1e-08   0.000994768      0.308643       8.61861      0.205762      0.205762    -0.0914783       0.45361       0.45361       0.45361    -0.0914783       91.9604
     0.013125       8.85688         1e-08   0.000994515      0.320428       9.29172      0.213619      0.213619     -0.096288      0.462189      0.462189      0.462189     -0.096288         96.82
     0.014375       8.98075         1e-08   0.000994348      0.331305       9.93491       0.22087       0.22087     -0.100489      0.469968      0.469968      0.469968     -0.100489       101.061
     0.015625       9.10953         1e-08   0.000994261      0.340916       10.5206      0.227277      0.227277     -0.104043      0.476736      0.476736      0.476736     -0.104043       104.644
     0.016875       9.24236         1e-08   0.000994245      0.348986       11.0248      0.232658      0.232658     -0.106923      0.482346      0.482346      0.482346     -0.106923       107.543
     0.018125       9.37839         1e-08    0.00099429      0.355321       11.4281      0.236881      0.236881     -0.109117      0.486704      0.486704      0.486704     -0.109117       109.745
     0.019375       9.51673         1e-08   0.000994386      0.359793       11.7165      0.239862      0.239862     -0.110625      0.489757      0.489757      0.489757     -0.110625       111.251
     0.020625       9.65652         1e-08   0.000994522      0.362337       11.8811      0.241558      0.241558     -0.111457      0.491486      0.491486      0.491486     -0.111457       112.072
     0.021875       9.79691         1e-08   0.000994687       0.36294       11.9188       0.24196       0.24196     -0.111633      0.491895      0.491895      0.491895     -0.111633        112.23
     0.023125       9.93709         1e-08   0.000994868      0.361631       11.8308      0.241088      0.241088     -0.111178      0.491007      0.491007      0.491007     -0.111178       111.753
     0.024375       10.0763         1e-08   0.000995057      0.358472       11.6227      0.238981      0.238981     -0.110126      0.488857      0.488857      0.488857     -0.110126       110.675
     0.025625       10.2138         1e-08   0.000995243      0.353549       11.3036      0.235699      0.235699     -0.108512      0.485489      0.485489      0.485489     -0.108512       109.032
     0.026875       10.3489         1e-08   0.000995416      0.346968       10.8848      0.231312      0.231312     -0.106372      0.480949      0.480949      0.480949     -0.106372       106.863
     0.028125       10.4809         1e-08   0.000995568      0.338846       10.3796      0.225897      0.225897     -0.103741      0.475286      0.475286      0.475286     -0.103741       104.204
     0.029375       10.6094         1e-08   0.000995693      0.329309       9.80233      0.219539      0.219539     -0.100652       0.46855       0.46855       0.46855     -0.100652       101.088
     0.030625       10.7337         1e-08   0.000995786      0.318492       9.16809      0.212328      0.212328     -0.097134      0.460791      0.460791      0.460791     -0.097134        97.546
     0.031875       10.8532         1e-08   0.000995845      0.306536       8.49217      0.204358      0.204358    -0.0932121      0.452059      0.452059      0.452059    -0.0932121        93.602
     0.033125       10.9677         1e-08   0.000995871      0.293593       7.78993      0.195728      0.195728    -0.0889058      0.442412      0.442412      0.442412    -0.0889058       89.2753
     0.034375       11.0764         1e-08   0.000995867      0.279827       7.07658      0.186551      0.186551    -0.0842301      0.431916      0.431916      0.431916    -0.0842301       84.5806
     0.035625       11.1791         1e-08   0.000995839      0.265423       6.36699      0.176949      0.176949    -0.0791964      0.420653      0.420653      0.420653    -0.0791964       79.5282
     0.036875       11.2753         1e-08   0.000995795      0.250591       5.67553       0.16706       0.16706    -0.0738134       0.40873       0.40873       0.40873    -0.0738134       74.1258
     0.038125       11.3644         1e-08   0.000995746      0.235568        5.0157      0.157045      0.157045    -0.0680886       0.39629       0.39629       0.39629    -0.0680886       68.3801
     0.039375       11.4462         1e-08   0.000995704      0.220627        4.3998      0.147085      0.147085    -0.0620305      0.383516      0.383516      0.383516    -0.0620305       62.2987
     0.040625       11.5202         1e-08    0.00099568       0.20607       3.83845       0.13738       0.13738    -0.0556499      0.370648      0.370648      0.370648    -0.0556499       55.8919
     0.041875       11.5859         1e-08   0.000995684      0.192229       3.34012      0.128152      0.128152    -0.0489621      0.357984      0.357984      0.357984    -0.0489621       49.1749
     0.043125       11.6431         1e-08    0.00099572      0.179455       2.91086      0.119637      0.119637    -0.0419878      0.345885      0.345885      0.345885    -0.0419878       42.1687
     0.044375       11.6914         1e-08   0.000995789      0.168106       2.55414       0.11207       0.11207    -0.0347543      0.334769      0.334769      0.334769    -0.0347543       34.9016
     0.045625       11.7304         1e-08   0.000995881      0.158525        2.2711      0.105684      0.105684    -0.0272959       0.32509       0.32509       0.32509    -0.0272959       27.4091
     0.046875       11.7599         1e-08    0.00099598      0.151026        2.0611      0.100684      0.100684    -0.0196539      0.317307      0.317307      0.317307    -0.0196539       19.7334
     0.048125       11.7797         1e-08   0.000996064      0.145865       1.92247     0.0972432     0.0972432    -0.0118754      0.311838      0.311838      0.311838    -0.0118754       11.9224
     0.049375       11.7897         1e-08   0.000996113      0.143226       1.85346     0.0954842     0.0954842   -0.00401271      0.309005      0.309005      0.309005   -0.00401271       4.02841
     0.050625       11.7898         1e-08   0.000996115      0.143207       1.85296     0.0954712     0.0954712     0.0038789      0.308984      0.308984      0.308984     0.0038789       3.89407
     0.051875       11.7799         1e-08   0.000996068      0.145808       1.92096      0.097205      0.097205      0.011743      0.311777      0.311777      0.311777      0.011743       11.7895
     0.053125       11.7603         1e-08   0.000995986      0.150934       2.05858      0.100623      0.100623     0.0195243      0.317211      0.317211      0.317211     0.0195243       19.6032
     0.054375       11.7309         1e-08   0.000995888      0.158403       2.26758      0.105602      0.105602     0.0271707      0.324965      0.324965      0.324965     0.0271707       27.2831
     0.055625       11.6921         1e-08   0.000995797      0.167959       2.54966      0.111973      0.111973     0.0346346      0.334623      0.334623      0.334623     0.0346346       34.7812
     0.056875        11.644         1e-08   0.000995728      0.179291       2.90552      0.119527      0.119527     0.0418751      0.345727      0.345727      0.345727     0.0418751       42.0552
     0.058125       11.5869         1e-08    0.00099569      0.192055       3.33406      0.128037      0.128037     0.0488575      0.357822      0.357822      0.357822     0.0488575       49.0695
     0.059375       11.5213         1e-08   0.000995686      0.205894       3.83187      0.137262      0.137262     0.0555546      0.370489      0.370489      0.370489     0.0555546       55.7959
     0.060625       11.4475         1e-08   0.000995708      0.220456       4.39297      0.146971      0.146971     0.0619454      0.383367      0.383367      0.383367     0.0619454        62.213
     0.061875       11.3658         1e-08   0.000995749      0.235409       5.00891      0.156939      0.156939     0.0680146      0.396156      0.396156      0.396156     0.0680146       68.3057
     0.063125       11.2767         1e-08   0.000995796      0.250449       5.66912      0.166966      0.166966     0.0737511      0.408615      0.408615      0.408615     0.0737511       74.0632
     0.064375       11.1806         1e-08   0.000995838      0.265304        6.3613      0.176869      0.176869     0.0791464      0.420558      0.420558      0.420558     0.0791464       79.4779
     0.065625        11.078         1e-08   0.000995865      0.279734       7.07192      0.186489      0.186489     0.0841925      0.431844      0.431844      0.431844     0.0841925       84.5429
     0.066875       10.9693         1e-08   0.000995868      0.293529        7.7866      0.195686      0.195686     0.0888805      0.442364      0.442364      0.442364     0.0888805       89.2502
     0.068125       10.8549         1e-08    0.00099584      0.306503       8.49039      0.204336      0.204336     0.0931989      0.452035      0.452035      0.452035     0.0931989       93.5891
     0.069375       10.7353         1e-08    0.00099578       0.31849       9.16803      0.212327      0.212327     0.0971323      0.460789      0.460789      0.460789     0.0971323       97.5449
     0.070625        10.611         1e-08   0.000995686      0.329338       9.80409      0.219558      0.219558      0.100661      0.468571      0.468571      0.468571      0.100661       101.098
     0.071875       10.4825         1e-08    0.00099556      0.338903       10.3832      0.225935      0.225935       0.10376      0.475326      0.475326      0.475326       0.10376       104.224
     0.073125       10.3505         1e-08   0.000995408      0.347052       10.8902      0.231368      0.231368        0.1064      0.481007      0.481007      0.481007        0.1064       106.892
     0.074375       10.2153         1e-08   0.000995234      0.353657       11.3106      0.235771      0.235771      0.108548      0.485563      0.485563      0.485563      0.108548       109.069
     0.075625       10.0778         1e-08   0.000995049        0.3586       11.6312      0.239067      0.239067      0.110169      0.488945      0.488945      0.488945      0.110169       110.718
     0.076875       9.93852         1e-08    0.00099486      0.361777       11.8404      0.241185      0.241185      0.111226      0.491106      0.491106      0.491106      0.111226       111.802
     0.078125       9.79828         1e-08   0.000994679        0.3631       11.9293      0.242066      0.242066      0.111685      0.492002      0.492002      0.492002      0.111685       112.283
     0.079375       9.65781         1e-08   0.000994515      0.362506       11.8923      0.241671      0.241671      0.111512        0.4916        0.4916        0.4916      0.111512       112.128
     0.080625       9.51795         1e-08    0.00099438      0.359968        11.728      0.239979      0.239979      0.110682      0.489876      0.489876      0.489876      0.110682       111.308
     0.081875       9.37954         1e-08   0.000994284      0.355498       11.4396      0.236999      0.236999      0.109174      0.486825      0.486825      0.486825      0.109174       109.803
     0.083125       9.24345         1e-08   0.000994239      0.349163        11.036      0.232775      0.232775      0.106979      0.482468      0.482468      0.482468      0.106979         107.6
     0.084375       9.11054         1e-08   0.000994255      0.341089       10.5313      0.227392      0.227392      0.104098      0.476857      0.476857      0.476857      0.104098         104.7
     0.085625        8.9817         1e-08   0.000994343      0.331471       9.94494      0.220981      0.220981      0.100542      0.470086      0.470086      0.470086      0.100542       101.115
     0.086875       8.85776         1e-08   0.000994511      0.320586       9.30091      0.213724      0.213724     0.0963374      0.462303      0.462303      0.462303     0.0963374       96.8701
     0.088125       8.73952         1e-08   0.000994764       0.30879       8.62687       0.20586       0.20586      0.091524      0.453718      0.453718      0.453718      0.091524       92.0067
     0.089375       8.62774         1e-08   0.000995106      0.296531       7.95275      0.197687      0.197687     0.0869899       0.44462       0.44462       0.44462     0.0869899       87.4185
     0.090625       8.52098         1e-08   0.000957209      0.283881       7.57728      0.189254      0.189254     0.0811079      0.435033      0.435033      0.435033     0.0811079       84.7347
     0.091875        8.4159         1e-08   0.000889371      0.271055       7.43498      0.180703      0.180703     0.0755323      0.425092      0.425092      0.425092     0.0755323       84.9288
     0.093125       8.30865         1e-08   0.000791261      0.258286       7.58804      0.172191      0.172191     0.0704966      0.414959      0.414959      0.414959     0.0704966       89.0951
     0.094375       8.19316         1e-08   0.000663492      0.245841       8.19826      0.163894      0.163894     0.0663854      0.404838      0.404838      0.404838     0.0663854       100.056
     0.095625       8.05851         1e-08   0.000511251      0.234135       9.65047       0.15609       0.15609     0.0636105      0.395082      0.395082      0.395082     0.0636105       124.424
     0.096875       7.88211         1e-08   0.000347108      0.224058        13.017      0.149372      0.149372     0.0625781      0.386487      0.386487      0.386487     0.0625781        180.29
     0.098125       7.60779         1e-08   0.000192296      0.217744       22.1914      0.145162      0.145162     0.0654792      0.381002      0.381002      0.381002     0.0654792        340.53
     0.099375       7.03078         1e-08   6.32747e-05      0.202894       58.5627      0.135263      0.135263      0.370442      0.367781      0.367781      0.367781      0.370442       5855.43
