/*--------------------------------*- C++ -*----------------------------------*\
  =========                 |
  \\      /  F ield         | OpenFOAM: The Open Source CFD Toolbox
   \\    /   O peration     | Website:  https://openfoam.org
    \\  /    A nd           | Version:  12
     \\/     M anipulation  |
\*---------------------------------------------------------------------------*/
FoamFile
{
    format      ascii;
    class       volScalarField;
    location    "0.09";
    object      epsilon;
}
// * * * * * * * * * * * * * * * * * * * * * * * * * * * * * * * * * * * * * //

dimensions      [0 2 -3 0 0 0 0];

internalField   nonuniform List<scalar> 
12225
(
278.515
263.66
249.434
236.839
226.74
219.487
215.077
213.277
213.728
216.025
219.764
224.576
230.145
236.206
242.566
249.06
255.77
265.578
61.1165
86.6974
97.9959
107.217
118.481
132.586
149.46
168.689
189.696
211.856
234.584
257.375
279.835
301.683
322.878
343.294
364.913
384.361
25.2776
36.1835
43.383
48.624
53.3916
58.3454
63.7858
69.8497
76.5632
83.8793
91.7099
99.9485
108.488
117.238
126.147
135.227
144.714
154.679
17.5217
21.2988
24.7151
27.6112
30.1642
32.5438
34.8727
37.2372
39.691
42.2611
44.9557
47.7718
50.7001
53.7318
56.8643
60.1183
63.5324
67.1671
15.4879
16.752
18.1861
19.5894
20.9105
22.1507
23.3291
24.4693
25.5925
26.714
27.8439
28.9885
30.1513
31.3351
32.5437
33.7862
35.0727
36.4072
14.9084
15.2396
15.7465
16.3343
16.9481
17.5598
18.1571
18.7376
19.3031
19.8569
20.4022
20.942
21.4788
22.0147
22.5524
23.0954
23.647
24.2028
14.7451
14.7391
14.8342
15.0037
15.2217
15.4683
15.7292
15.9958
16.2634
16.5295
16.7932
17.0541
17.3124
17.5687
17.8238
18.0787
18.3346
18.5874
14.7013
14.5825
14.5116
14.4858
14.4982
14.5404
14.6045
14.6841
14.7743
14.8717
14.9739
15.0792
15.1866
15.2954
15.4053
15.5164
15.6285
15.7389
14.6901
14.5373
14.407
14.3008
14.2182
14.1571
14.1146
14.0877
14.0735
14.0696
14.0741
14.0853
14.1019
14.123
14.1479
14.176
14.2069
14.2389
14.6874
14.5252
14.3761
14.2411
14.1204
14.0137
13.9203
13.8391
13.7688
13.7084
13.6565
13.6122
13.5745
13.5425
13.5157
13.4935
13.4753
13.4604
14.6868
14.5221
14.3677
14.2236
14.0896
13.9655
13.8511
13.7459
13.6494
13.5609
13.48
13.406
13.3383
13.2764
13.2199
13.1683
13.1211
13.0784
14.6866
14.5213
14.3656
14.219
14.0812
13.9518
13.8304
13.7168
13.6104
13.5109
13.418
13.3312
13.2502
13.1745
13.1039
13.038
12.9766
12.9197
14.6865
14.521
14.3648
14.2175
14.0785
13.9472
13.8233
13.7065
13.5962
13.4921
13.3939
13.3013
13.214
13.1317
13.0541
12.9809
12.9119
12.8476
14.6864
14.5208
14.3645
14.2169
14.0774
13.9456
13.8209
13.7029
13.5912
13.4854
13.3852
13.2903
13.2003
13.1151
13.0343
12.9577
12.8851
12.8171
14.6864
14.5207
14.3643
14.2165
14.0769
13.9449
13.8199
13.7016
13.5894
13.4831
13.3823
13.2867
13.1959
13.1097
13.0278
12.95
12.8762
12.8067
14.6863
14.5206
14.3641
14.2163
14.0766
13.9444
13.8193
13.7009
13.5886
13.4822
13.3812
13.2853
13.1943
13.1078
13.0257
12.9475
12.8733
12.8034
14.6863
14.5205
14.364
14.2161
14.0763
13.9441
13.8189
13.7004
13.5881
13.4815
13.3805
13.2845
13.1934
13.1069
13.0246
12.9463
12.8719
12.8019
14.6863
14.5204
14.3639
14.216
14.0761
13.9439
13.8187
13.7001
13.5877
13.4811
13.38
13.284
13.1928
13.1062
13.0238
12.9455
12.8711
12.801
14.6863
14.5204
14.3639
14.2159
14.0761
13.9438
13.8186
13.7
13.5876
13.481
13.3798
13.2838
13.1926
13.1059
13.0235
12.9452
12.8707
12.8005
14.6863
14.5205
14.3639
14.216
14.0762
13.9439
13.8187
13.7002
13.5878
13.4812
13.3801
13.2841
13.1929
13.1063
13.0239
12.9456
12.8712
12.8011
14.6863
14.5205
14.364
14.2162
14.0764
13.9443
13.8192
13.7008
13.5886
13.4822
13.3813
13.2856
13.1947
13.1084
13.0264
12.9485
12.8745
12.8049
14.6863
14.5206
14.3643
14.2167
14.0774
13.9457
13.8214
13.7039
13.5929
13.488
13.3887
13.2949
13.2061
13.122
13.0425
12.9672
12.8959
12.8291
14.6865
14.5212
14.3659
14.2202
14.0837
13.9561
13.8369
13.7256
13.6218
13.5251
13.4348
13.3507
13.2721
13.1987
13.1301
13.066
13.006
12.9506
14.6876
14.5264
14.3794
14.2467
14.1282
14.0231
13.9302
13.8484
13.7762
13.7126
13.6564
13.6067
13.5626
13.5235
13.4887
13.4578
13.4302
13.4061
14.6976
14.5664
14.4707
14.4075
14.3714
14.3568
14.3583
14.3718
14.3939
14.4221
14.4546
14.4902
14.528
14.5672
14.6075
14.6484
14.6899
14.7317
14.7737
14.8186
14.9602
15.159
15.3861
15.6231
15.8594
16.0899
16.3127
16.5274
16.7346
16.935
17.1294
17.3188
17.5039
17.6852
17.8633
18.0377
15.2587
16.1151
17.0711
17.9724
18.7874
19.5231
20.1934
20.8135
21.397
21.9549
22.4956
23.0253
23.5481
24.067
24.5837
25.0991
25.6134
26.124
18.0414
22.0078
24.9883
27.1527
28.8873
30.4033
31.8101
33.175
34.5391
35.9248
37.3432
38.7981
40.2886
41.8108
43.3591
44.9271
46.5083
48.0898
34.0238
45.6872
51.3756
54.9403
58.0775
61.2927
64.743
68.4719
72.4637
76.6751
81.056
85.5567
90.1308
94.7365
99.3382
103.907
108.428
112.873
163.308
157.417
151.704
146.261
141.3
136.946
133.249
130.205
127.778
125.915
124.553
123.63
123.084
122.859
122.903
123.17
123.621
124.218
2.99966
1.82746
2.49514
3.02337
3.46125
3.83654
4.16987
4.48093
4.79418
5.12749
5.48865
5.8867
6.32871
6.81489
7.33217
7.85583
8.33131
8.69859
8.91288
8.9572
8.80213
8.98134
9.03921
8.96174
39.1168
9.14482
9.17584
40.2488
40.3072
42.3094
46.328
50.5505
54.8842
59.3016
63.7831
68.3154
72.89
77.5027
82.1525
86.8414
91.5733
96.3538
101.19
106.089
111.06
116.111
121.251
126.488
131.83
137.285
142.861
148.564
154.4
160.376
166.497
172.766
179.189
185.768
192.506
199.405
206.466
213.689
221.076
228.626
236.336
244.207
252.234
260.416
268.75
277.23
285.852
294.612
303.504
312.521
321.657
330.905
340.258
349.707
359.243
368.859
378.543
388.287
398.08
407.911
417.769
427.641
437.517
447.383
457.227
467.037
476.805
486.522
496.191
505.827
515.469
525.05
534.482
543.764
552.886
561.838
570.603
579.168
587.518
595.639
603.517
611.138
618.489
625.557
632.331
638.8
644.952
650.777
656.267
661.412
666.205
670.638
674.706
678.401
681.719
684.656
687.208
689.371
691.143
692.522
693.506
694.094
694.287
694.082
693.481
692.483
691.09
689.301
687.118
684.542
681.573
678.213
674.463
670.325
665.799
660.888
655.595
649.921
643.87
637.446
630.653
623.499
615.99
608.135
599.946
591.435
582.619
573.52
564.234
555.335
549.757
547.118
544.532
541.733
538.698
535.434
531.957
528.29
524.458
520.489
516.414
512.264
508.068
503.858
499.662
495.505
491.407
487.381
483.427
479.529
475.633
471.625
467.209
461.656
452.768
439.203
4.38068
3.10793
3.04445
3.12652
3.24895
3.39782
3.57712
3.7983
4.07647
4.41981
4.83727
5.34008
5.94319
6.66636
7.48934
8.40975
9.42833
10.5634
11.8644
13.4116
15.3459
16.4194
17.941
19.9616
21.9181
23.075
24.9186
27.3874
29.8018
32.2003
34.2017
36.1276
38.0454
39.9678
41.8985
43.8409
45.7987
47.7757
49.7757
51.8021
53.8585
55.9479
58.0735
60.2381
62.4445
64.6951
66.9924
69.3385
71.7355
74.1853
76.6895
79.2495
81.8667
84.5422
87.2769
90.0715
92.9266
95.8425
98.8193
101.857
104.956
108.115
111.333
114.611
117.947
121.34
124.789
128.293
131.849
135.456
139.112
142.816
146.564
150.355
154.185
158.053
161.955
165.888
169.849
173.834
177.841
181.865
185.903
189.95
194.002
198.056
202.107
206.15
210.183
214.201
218.203
222.189
226.163
230.133
234.127
238.127
242.08
245.977
249.813
253.582
257.279
260.898
264.434
267.881
271.233
274.486
277.635
280.674
283.6
286.407
289.091
291.648
294.075
296.368
298.524
300.54
302.413
304.141
305.722
307.153
308.433
309.56
310.534
311.353
312.016
312.523
312.873
313.066
313.102
312.98
312.7
312.262
311.667
310.915
310.004
308.937
307.712
306.331
304.793
303.099
301.249
299.245
297.087
294.777
292.315
289.706
286.95
284.054
281.019
277.856
274.573
271.198
267.784
264.619
262.101
259.988
257.886
255.725
253.499
251.213
248.876
246.5
244.096
241.679
239.259
236.85
234.464
232.113
229.807
227.557
225.369
223.251
221.206
219.238
217.345
215.531
213.784
212.166
210.649
212.827
6.86654
4.4082
3.98857
3.88818
3.90162
3.98748
4.14054
4.369
4.6737
5.07106
5.5809
6.21196
6.9797
7.89316
8.94919
10.1361
11.4362
12.8303
14.2973
15.8059
17.3112
18.7243
20.1306
21.5489
22.9508
24.3745
25.8719
27.4333
29.0303
30.5983
32.1127
33.6223
35.1461
36.6893
38.2533
39.8389
41.4472
43.0795
44.7369
46.421
48.1332
49.8751
51.6483
53.4543
55.2947
57.1711
59.0848
61.0373
63.0299
65.0637
67.1399
69.2595
71.4233
73.632
75.8862
78.1866
80.5333
82.9267
85.3669
87.8538
90.3872
92.967
95.5927
98.2637
100.979
103.739
106.542
109.386
112.271
115.196
118.159
121.158
124.193
127.26
130.359
133.486
136.641
139.821
143.023
146.245
149.485
152.739
156.006
159.282
162.565
165.853
169.141
172.429
175.715
178.996
182.273
185.545
188.814
192.082
195.347
198.588
201.792
204.953
208.064
211.121
214.12
217.056
219.924
222.719
225.438
228.075
230.627
233.089
235.457
237.728
239.898
241.964
243.922
245.77
247.504
249.123
250.625
252.006
253.265
254.402
255.413
256.299
257.058
257.69
258.193
258.569
258.815
258.933
258.923
258.784
258.517
258.123
257.601
256.952
256.178
255.278
254.253
253.104
251.831
250.436
248.92
247.283
245.526
243.652
241.661
239.557
237.341
235.017
232.589
230.067
227.449
224.793
222.14
219.59
217.237
214.992
212.747
210.469
208.156
205.813
203.449
201.073
198.695
196.325
193.972
191.648
189.361
187.121
184.935
182.811
180.756
178.775
176.875
175.062
173.345
171.745
170.299
169.126
168.442
169.733
9.96014
5.84854
5.06946
4.83453
4.79245
4.86572
5.03897
5.29653
5.64807
6.1083
6.69374
7.41826
8.29082
9.31099
10.4657
11.7296
13.0689
14.4468
15.8297
17.1902
18.5108
19.7881
21.04
22.2865
23.544
24.8307
26.1546
27.512
28.8933
30.2861
31.6885
33.1079
34.5494
36.0148
37.5049
39.02
40.5606
42.127
43.72
45.3403
46.9889
48.6668
50.3751
52.115
53.8878
55.6947
57.5369
59.4157
61.3322
63.2876
65.2829
67.3191
69.3972
71.5178
73.6819
75.8899
78.1424
80.4398
82.7824
85.1704
87.6039
90.0827
92.6067
95.1755
97.7888
100.446
103.146
105.889
108.673
111.498
114.361
117.263
120.201
123.174
126.179
129.217
132.283
135.377
138.496
141.639
144.802
147.983
151.18
154.391
157.612
160.842
164.078
167.318
170.56
173.803
177.044
180.281
183.515
186.74
189.946
193.123
196.262
199.359
202.407
205.402
208.338
211.212
214.017
216.75
219.405
221.978
224.465
226.861
229.161
231.363
233.462
235.455
237.338
239.109
240.764
242.301
243.718
245.012
246.182
247.227
248.144
248.933
249.593
250.124
250.524
250.795
250.936
250.948
250.83
250.584
250.21
249.71
249.084
248.333
247.458
246.462
245.345
244.108
242.753
241.282
239.696
237.996
236.186
234.266
232.238
230.107
227.872
225.541
223.112
220.606
218.038
215.431
212.814
210.231
207.712
205.224
202.726
200.205
197.661
195.099
192.527
189.955
187.392
184.847
182.33
179.851
177.417
175.037
172.72
170.472
168.3
166.21
164.21
162.308
160.52
158.871
157.412
156.26
155.617
156.128
13.4341
7.40987
6.26034
5.90326
5.82179
5.89613
6.07837
6.35894
6.74453
7.24637
7.87614
8.64211
9.54542
10.577
11.7162
12.9331
14.1929
15.4627
16.7176
17.9434
19.138
20.3093
21.4723
22.6432
23.8357
25.0593
26.318
27.6108
28.9343
30.285
31.6618
33.0657
34.4974
35.9577
37.4465
38.964
40.5103
42.0856
43.6902
45.3247
46.9896
48.6858
50.4141
52.1756
53.9713
55.8023
57.6698
59.5751
61.5192
63.5035
65.5292
67.5973
69.7089
71.8652
74.0669
76.3151
78.6104
80.9536
83.3452
85.7856
88.2752
90.8142
93.4025
96.0402
98.727
101.462
104.246
107.078
109.956
112.88
115.849
118.861
121.915
125.01
128.144
131.316
134.522
137.762
141.032
144.332
147.657
151.007
154.377
157.767
161.172
164.59
168.019
171.456
174.898
178.342
181.785
185.226
188.66
192.076
195.466
198.823
202.14
205.411
208.63
211.793
214.893
217.924
220.882
223.76
226.555
229.259
231.87
234.38
236.787
239.085
241.269
243.338
245.285
247.109
248.805
250.371
251.805
253.104
254.266
255.289
256.173
256.915
257.516
257.975
258.292
258.466
258.499
258.391
258.143
257.755
257.23
256.569
255.773
254.845
253.785
252.598
251.283
249.845
248.283
246.603
244.806
242.893
240.869
238.736
236.494
234.153
231.707
229.171
226.557
223.871
221.123
218.332
215.516
212.699
209.895
207.091
204.273
201.437
198.584
195.721
192.856
189.999
187.158
184.343
181.565
178.831
176.151
173.533
170.985
168.515
166.13
163.837
161.644
159.563
157.611
155.817
154.233
152.963
152.157
152.114
17.1851
9.11788
7.55432
7.05798
6.9286
6.98239
7.15867
7.4444
7.83999
8.3509
8.98269
9.73726
10.6098
11.587
12.6475
13.7641
14.9092
16.0592
17.1988
18.3224
19.4329
20.5396
21.6545
22.7891
23.9526
25.1508
26.3865
27.6595
28.9687
30.3128
31.6908
33.1025
34.5479
36.0269
37.5394
39.0852
40.6645
42.2772
43.9235
45.6037
47.3182
49.0677
50.8529
52.6747
54.534
56.4319
58.3697
60.3485
62.3697
64.4347
66.5448
68.7013
70.9057
73.1591
75.4629
77.8183
80.2262
82.6876
85.2035
87.7746
90.4015
93.0846
95.8242
98.6206
101.474
104.383
107.349
110.371
113.447
116.578
119.762
122.997
126.283
129.618
133
136.427
139.897
143.409
146.959
150.545
154.164
157.814
161.491
165.194
168.917
172.659
176.416
180.184
183.96
187.741
191.521
195.298
199.063
202.804
206.513
210.185
213.813
217.389
220.909
224.364
227.75
231.059
234.286
237.423
240.465
243.407
246.241
248.963
251.567
254.048
256.401
258.621
260.705
262.647
264.445
266.096
267.596
268.943
270.134
271.168
272.044
272.76
273.315
273.71
273.944
274.018
273.932
273.687
273.285
272.728
272.017
271.155
270.144
268.985
267.684
266.242
264.663
262.95
261.104
259.133
257.037
254.819
252.486
250.042
247.48
244.824
242.074
239.237
236.319
233.329
230.277
227.176
224.04
220.885
217.72
214.542
211.348
208.139
204.92
201.697
198.479
195.276
192.097
188.952
185.85
182.801
179.814
176.898
174.061
171.311
168.655
166.103
163.664
161.35
159.179
157.184
155.411
153.949
152.9
152.411
20.7208
10.8136
8.85169
8.21928
8.02527
8.04092
8.19739
8.47036
8.8527
9.34374
9.94372
10.6502
11.4557
12.3469
13.3056
14.3109
15.3431
16.3869
17.4333
18.4806
19.5326
20.5965
21.6809
22.7937
23.941
25.1265
26.3524
27.6192
28.9267
30.2745
31.6621
33.0894
34.5561
36.0622
37.6075
39.1919
40.8155
42.478
44.1797
45.9208
47.7015
49.5223
51.384
53.2872
55.233
57.2224
59.2568
61.3374
63.4657
65.6432
67.8716
70.1524
72.4872
74.8778
77.3255
79.832
82.3986
85.0266
87.7173
90.4718
93.2909
96.1753
99.1258
102.143
105.226
108.376
111.592
114.874
118.222
121.634
125.109
128.647
132.245
135.902
139.616
143.385
147.207
151.079
154.999
158.963
162.968
167.012
171.091
175.201
179.339
183.5
187.681
191.876
196.083
200.296
204.509
208.719
212.906
217.065
221.188
225.268
229.297
233.269
237.175
241.009
244.762
248.429
252.001
255.471
258.832
262.078
265.201
268.195
271.054
273.772
276.342
278.761
281.022
283.122
285.056
286.821
288.412
289.829
291.067
292.125
293.001
293.694
294.204
294.53
294.673
294.632
294.41
294.007
293.426
292.668
291.737
290.636
289.367
287.933
286.339
284.59
282.69
280.641
278.446
276.117
273.656
271.059
268.341
265.513
262.573
259.531
256.394
253.168
249.86
246.479
243.035
239.538
236
232.434
228.847
225.243
221.624
217.994
214.36
210.728
207.11
203.513
199.948
196.425
192.954
189.545
186.207
182.949
179.78
176.708
173.743
170.892
168.167
165.582
163.155
160.916
158.909
157.205
155.872
154.981
23.8822
12.3902
10.0731
9.29782
9.02654
9.00021
9.12887
9.37711
9.73069
10.1838
10.733
11.3738
12.0984
12.896
13.7528
14.6543
15.5871
16.5417
17.5128
18.4998
19.5057
20.5355
21.5948
22.689
23.8221
24.997
26.2155
27.4785
28.7865
30.1397
31.5384
32.9825
34.4723
36.0078
37.589
39.2159
40.8885
42.6068
44.3709
46.1811
48.0375
49.9407
51.8912
53.8899
55.9378
58.0359
60.1858
62.3887
64.6465
66.9608
69.3334
71.7663
74.2613
76.8204
79.4456
82.1386
84.9012
87.7352
90.642
93.623
96.6795
99.8125
103.023
106.311
109.678
113.123
116.647
120.248
123.927
127.683
131.514
135.419
139.397
143.445
147.561
151.743
155.989
160.295
164.658
169.076
173.543
178.058
182.615
187.211
191.84
196.499
201.182
205.883
210.598
215.321
220.046
224.759
229.443
234.093
238.701
243.259
247.759
252.191
256.548
260.821
265.002
269.083
273.054
276.907
280.635
284.23
287.684
290.989
294.138
297.125
299.943
302.586
305.048
307.324
309.41
311.301
312.993
314.484
315.772
316.852
317.725
318.388
318.841
319.084
319.118
318.943
318.56
317.972
317.18
316.188
315.001
313.621
312.052
310.297
308.362
306.255
303.981
301.543
298.938
296.192
293.305
290.279
287.125
283.85
280.461
276.966
273.371
269.686
265.917
262.075
258.168
254.208
250.204
246.167
242.107
238.03
233.941
229.846
225.754
221.673
217.613
213.583
209.594
205.656
201.78
197.974
194.25
190.617
187.083
183.659
180.352
177.173
174.133
171.246
168.531
166.017
163.741
161.76
160.115
158.843
26.5941
13.7928
11.136
10.2183
9.87817
9.8115
9.90987
10.1282
10.4464
10.8548
11.3476
11.9198
12.5648
13.2745
14.0397
14.8507
15.6992
16.579
17.4868
18.4225
19.3877
20.3856
21.4199
22.4941
23.6113
24.7737
25.9831
27.241
28.5483
29.906
31.3146
32.7749
34.2874
35.8523
37.4702
39.1411
40.8652
42.6429
44.4741
46.3592
48.2986
50.2927
52.3423
54.4482
56.6116
58.8336
61.1157
63.4597
65.8674
68.3408
70.8819
73.4929
76.1762
78.9339
81.7683
84.6817
87.6762
90.7537
93.9162
97.1653
100.503
103.929
107.447
111.056
114.756
118.549
122.434
126.411
130.479
134.637
138.884
143.218
147.637
152.14
156.723
161.384
166.119
170.926
175.801
180.739
185.738
190.791
195.895
201.045
206.234
211.459
216.711
221.987
227.278
232.577
237.877
243.15
248.39
253.588
258.736
263.826
268.846
273.787
278.641
283.397
288.045
292.576
296.98
301.249
305.372
309.341
313.148
316.783
320.24
323.51
326.586
329.46
332.128
334.582
336.818
338.831
340.618
342.175
343.5
344.589
345.441
346.054
346.429
346.565
346.462
346.123
345.549
344.741
343.703
342.439
340.955
339.255
337.342
335.22
332.893
330.379
327.68
324.802
321.75
318.537
315.171
311.658
308.008
304.229
300.33
296.32
292.207
288.002
283.712
279.348
274.921
270.439
265.915
261.359
256.78
252.188
247.589
242.992
238.406
233.84
229.304
224.809
220.365
215.982
211.671
207.442
203.305
199.271
195.348
191.545
187.874
184.343
180.964
177.752
174.726
171.911
169.339
167.055
165.08
163.436
28.8082
14.9238
11.9807
10.9499
10.5528
10.4505
10.5201
10.7087
10.9917
11.3566
11.7966
12.3063
12.881
13.5151
14.2027
14.9379
15.7157
16.5322
17.3853
18.2748
19.2017
20.1678
21.1756
22.2276
23.3262
24.4736
25.6718
26.9226
28.2276
29.5881
31.0057
32.4813
34.0161
35.6108
37.2663
38.983
40.7616
42.6024
44.5058
46.4724
48.5027
50.5973
52.7572
54.9833
57.2768
59.6393
62.0725
64.5782
67.1585
69.8156
72.552
75.3702
78.2727
81.2622
84.3411
87.5122
90.7777
94.1402
97.6017
101.164
104.83
108.599
112.474
116.456
120.545
124.741
129.044
133.455
137.971
142.592
147.316
152.142
157.067
162.087
167.201
172.405
177.695
183.068
188.518
194.042
199.634
205.291
211.004
216.77
222.582
228.433
234.317
240.225
246.15
252.085
257.999
263.879
269.718
275.507
281.235
286.891
292.466
297.947
303.323
308.585
313.72
318.719
323.571
328.265
332.79
337.139
341.299
345.264
349.023
352.569
355.894
358.989
361.846
364.461
366.828
368.942
370.8
372.397
373.731
374.799
375.599
376.13
376.391
376.384
376.108
375.566
374.761
373.693
372.365
370.785
368.96
366.893
364.59
362.058
359.303
356.337
353.167
349.801
346.247
342.518
338.621
334.568
330.368
326.031
321.568
316.989
312.306
307.527
302.664
297.728
292.73
287.68
282.591
277.474
272.338
267.195
262.053
256.923
251.813
246.734
241.696
236.71
231.787
226.936
222.17
217.497
212.929
208.475
204.144
199.948
195.894
191.995
188.261
184.707
181.351
178.215
175.327
172.721
170.404
168.392
30.378
15.749
12.6036
11.4884
11.0464
10.9143
10.9586
11.1208
11.3728
11.7005
12.0958
12.554
13.0713
13.6441
14.269
14.9427
15.6623
16.4255
17.2311
18.0789
18.9695
19.9041
20.8846
21.9131
22.9918
24.123
25.309
26.552
27.8542
29.2178
30.6446
32.1366
33.6953
35.3222
37.0186
38.7855
40.6239
42.5347
44.5187
46.5766
48.7094
50.918
53.2035
55.5673
58.0108
60.5357
63.1441
65.8381
68.6201
71.4925
74.4582
77.5198
80.6803
83.9426
87.3095
90.784
94.3687
98.0661
101.879
105.809
109.858
114.028
118.321
122.736
127.275
131.938
136.724
141.633
146.664
151.815
157.084
162.469
167.966
173.572
179.284
185.096
191.006
197.009
203.099
209.27
215.518
221.837
228.219
234.658
241.148
247.679
254.245
260.837
267.445
274.043
280.604
287.122
293.587
299.989
306.316
312.557
318.698
324.726
330.63
336.397
342.017
347.476
352.764
357.869
362.781
367.487
371.979
376.246
380.28
384.071
387.612
390.891
393.901
396.637
399.093
401.266
403.15
404.741
406.038
407.038
407.739
408.14
408.239
408.038
407.539
406.745
405.658
404.282
402.62
400.679
398.465
395.986
393.247
390.257
387.023
383.557
379.869
375.967
371.863
367.568
363.094
358.452
353.654
348.712
343.638
338.445
333.145
327.749
322.27
316.72
311.111
305.456
299.766
294.054
288.332
282.61
276.901
271.213
265.558
259.946
254.388
248.895
243.477
238.145
232.91
227.782
222.77
217.886
213.139
208.538
204.093
199.816
195.717
191.81
188.113
184.644
181.426
178.485
175.82
173.442
31.4014
16.3102
13.0264
11.8494
11.3724
11.2159
11.239
11.3795
11.6068
11.9053
12.2665
12.6856
13.1595
13.686
14.2632
14.8893
15.5628
16.2828
17.0486
17.8602
18.7183
19.624
20.5791
21.5855
22.6456
23.7621
24.9377
26.1753
27.4776
28.8476
30.2879
31.8012
33.3897
35.0557
36.8011
38.6276
40.537
42.5306
44.6097
46.7758
49.0301
51.374
53.8091
56.337
58.9597
61.6791
64.4976
67.4177
70.442
73.5735
76.8149
80.1695
83.6403
87.2305
90.9432
94.7813
98.7477
102.845
107.076
111.443
115.947
120.589
125.372
130.296
135.361
140.566
145.912
151.396
157.018
162.775
168.664
174.683
180.827
187.091
193.471
199.962
206.559
213.255
220.047
226.926
233.887
240.922
248.025
255.187
262.401
269.657
276.947
284.261
291.57
298.838
306.059
313.221
320.315
327.328
334.249
341.065
347.756
354.311
360.717
366.961
373.031
378.913
384.597
390.069
395.318
400.332
405.101
409.615
413.864
417.839
421.536
424.937
428.034
430.825
433.304
435.467
437.31
438.829
440.021
440.885
441.42
441.624
441.498
441.043
440.261
439.155
437.729
435.987
433.934
431.576
428.921
425.977
422.75
419.25
415.488
411.474
407.219
402.735
398.034
393.13
388.034
382.761
377.324
371.737
366.014
360.169
354.216
348.168
342.04
335.844
329.596
323.307
316.992
310.663
304.335
298.018
291.725
285.467
279.255
273.1
267.014
261.006
255.089
249.271
243.564
237.978
232.522
227.207
222.042
217.035
212.198
207.541
203.074
198.811
194.767
190.959
187.404
184.124
181.109
178.371
32.0031
16.6553
13.2805
12.0588
11.5546
11.3786
11.385
11.5092
11.7188
11.9972
12.3353
12.7282
13.1731
13.6684
14.2128
14.8057
15.4465
16.1349
16.8709
17.655
18.4879
19.3713
20.307
21.2973
22.3452
23.4536
24.6261
25.8661
27.1773
28.5633
30.0278
31.5743
33.206
34.9261
36.7374
38.6425
40.6438
42.7437
44.9443
47.2475
49.6554
52.1699
54.7931
57.5271
60.3744
63.3375
66.4189
69.6216
72.9486
76.4028
79.9875
83.706
87.5613
91.5568
95.6955
99.9803
104.414
108.999
113.738
118.632
123.683
128.892
134.26
139.786
145.47
151.312
157.309
163.461
169.763
176.214
182.809
189.546
196.418
203.418
210.54
217.779
225.129
232.582
240.132
247.773
255.496
263.293
271.157
279.078
287.048
295.058
303.096
311.128
319.113
327.041
334.902
342.685
350.376
357.963
365.435
372.782
379.972
386.994
393.838
400.49
406.938
413.167
419.166
424.922
430.422
435.656
440.612
445.279
449.649
453.713
457.462
460.885
463.975
466.727
469.136
471.198
472.908
474.264
475.264
475.906
476.19
476.115
475.683
474.894
473.753
472.262
470.426
468.249
465.738
462.899
459.741
456.272
452.502
448.439
444.096
439.485
434.617
429.507
424.167
418.613
412.858
406.918
400.808
394.545
388.143
381.618
374.986
368.264
361.465
354.605
347.699
340.763
333.81
326.855
319.913
312.996
306.116
299.287
292.519
285.824
279.213
272.697
266.286
259.99
253.82
247.785
241.894
236.156
230.582
225.179
219.957
214.927
210.099
205.484
201.096
196.951
193.061
189.443
186.082
182.993
32.2642
16.8245
13.3982
12.1467
11.6229
11.4325
11.4275
11.5416
11.7416
12.0098
12.3368
12.7173
13.1483
13.6283
14.1566
14.7328
15.3568
16.029
16.7498
17.5201
18.3415
19.2158
20.1454
21.1334
22.1832
23.2989
24.4845
25.7445
27.0835
28.5062
30.0173
31.6215
33.3233
35.1268
37.036
39.0549
41.1869
43.4354
45.8034
48.2942
50.9105
53.6548
56.5297
59.5382
62.6832
65.9677
69.3948
72.9676
76.6892
80.5629
84.5917
88.7789
93.1273
97.64
102.32
107.169
112.189
117.383
122.752
128.297
134.018
139.915
145.989
152.237
158.659
165.251
172.012
178.938
186.024
193.267
200.663
208.207
215.896
223.71
231.646
239.697
247.857
256.119
264.473
272.913
281.429
290.014
298.658
307.351
316.083
324.849
333.59
342.272
350.885
359.416
367.852
376.182
384.39
392.464
400.389
408.15
415.728
423.108
430.277
437.22
443.926
450.379
456.568
462.48
468.102
473.424
478.435
483.125
487.484
491.504
495.176
498.492
501.446
504.032
506.245
508.082
509.54
510.616
511.308
511.617
511.542
511.084
510.244
509.026
507.432
505.467
503.135
500.443
497.397
494.005
490.276
486.219
481.844
477.162
472.187
466.93
461.405
455.627
449.61
443.372
436.927
430.293
423.486
416.525
409.425
402.205
394.883
387.474
379.997
372.468
364.903
357.319
349.732
342.157
334.608
327.1
319.647
312.26
304.951
297.733
290.616
283.611
276.727
269.974
263.362
256.899
250.594
244.456
238.493
232.713
227.126
221.74
216.566
211.614
206.895
202.422
198.208
194.261
190.566
187.138
32.2629
16.8556
13.4116
12.1451
11.6106
11.4133
11.4046
11.5176
11.7184
11.989
12.3194
12.7037
13.1388
13.6231
14.1558
14.7365
15.3657
16.044
16.7723
17.5522
18.3858
19.2756
20.2248
21.2374
22.3178
23.471
24.7026
26.0177
27.4221
28.9219
30.5233
32.2325
34.0553
35.9976
38.065
40.2625
42.5954
45.0682
47.6855
50.4519
53.3718
56.4478
59.6821
63.0789
66.6419
70.3746
74.2803
78.362
82.6227
87.0654
91.6925
96.5066
101.51
106.704
112.091
117.672
123.448
129.418
135.584
141.943
148.496
155.24
162.172
169.291
176.591
184.069
191.721
199.541
207.523
215.66
223.947
232.375
240.938
249.624
258.424
267.329
276.332
285.423
294.595
303.837
313.142
322.5
331.902
341.34
350.792
360.184
369.502
378.73
387.856
396.867
405.747
414.484
423.063
431.469
439.688
447.704
455.502
463.067
470.384
477.44
484.222
490.717
496.912
502.796
508.356
513.584
518.467
522.998
527.167
530.966
534.389
537.428
540.078
542.333
544.19
545.647
546.7
547.349
547.593
547.433
546.868
545.901
544.534
542.771
540.616
538.074
535.15
531.852
528.186
524.162
519.788
515.075
510.034
504.678
499.018
493.07
486.847
480.366
473.642
466.694
459.538
452.192
444.675
437.006
429.204
421.287
413.275
405.187
397.04
388.853
380.644
372.43
364.229
356.055
347.926
339.855
331.857
323.943
316.128
308.421
300.833
293.374
286.054
278.88
271.863
265.009
258.326
251.822
245.505
239.381
233.459
227.747
222.254
216.989
211.961
207.183
202.661
198.405
194.395
190.647
32.0675
16.7837
13.3524
12.0878
11.5558
11.3641
11.3652
11.4922
11.711
12.0034
12.3587
12.7709
13.2366
13.7538
14.3217
14.9402
15.6099
16.3318
17.1075
17.9392
18.8298
19.7829
20.8027
21.8938
23.0624
24.3155
25.6617
27.1054
28.6529
30.3132
32.0948
34.0059
36.0546
38.2487
40.5956
43.1025
45.7763
48.6232
51.6492
54.8599
58.2604
61.8548
65.647
69.6411
73.8404
78.2482
82.8672
87.6997
92.7474
98.0119
103.494
109.195
115.114
121.25
127.604
134.174
140.957
147.951
155.153
162.56
170.166
177.969
185.961
194.137
202.492
211.017
219.706
228.551
237.543
246.674
255.936
265.318
274.811
284.405
294.089
303.854
313.691
323.59
333.541
343.538
353.569
363.629
373.706
383.729
393.655
403.476
413.178
422.747
432.171
441.435
450.525
459.428
468.129
476.614
484.87
492.882
500.636
508.118
515.316
522.215
528.805
535.073
541.008
546.6
551.837
556.711
561.213
565.334
569.067
572.406
575.344
577.876
579.997
581.704
582.995
583.867
584.319
584.351
583.963
583.157
581.935
580.299
578.253
575.801
572.948
569.7
566.063
562.045
557.655
552.9
547.792
542.341
536.559
530.459
524.054
517.361
510.393
503.168
495.704
488.017
480.127
472.054
463.816
455.435
446.929
438.32
429.628
420.873
412.074
403.251
394.424
385.609
376.826
368.09
359.418
350.826
342.326
333.932
325.656
317.508
309.499
301.637
293.931
286.388
279.016
271.821
264.809
257.988
251.362
244.939
238.725
232.726
226.951
221.407
216.103
211.047
206.247
201.707
197.407
193.365
31.7771
16.6568
13.266
12.0268
11.5199
11.3578
11.3944
11.5636
11.8314
12.1793
12.5968
13.0777
13.6186
14.2177
14.8746
15.5896
16.3638
17.1991
18.098
19.0638
20.1002
21.2131
22.409
23.6889
25.0626
26.5395
28.1295
29.8417
31.686
33.673
35.8136
38.1186
40.5985
43.2635
46.1233
49.1873
52.464
55.9613
59.6862
63.645
67.8431
72.2849
76.9739
81.9129
87.1038
92.5477
98.2449
104.195
110.396
116.846
123.542
130.48
137.657
145.067
152.705
160.564
168.639
176.922
185.406
194.082
202.943
211.981
221.185
230.547
240.057
249.706
259.483
269.379
279.384
289.488
299.679
309.948
320.285
330.678
341.12
351.599
362.106
372.637
383.176
393.727
404.268
414.729
425.059
435.259
445.315
455.213
464.941
474.488
483.839
492.982
501.906
510.596
519.042
527.23
535.147
542.783
550.124
557.159
563.877
570.265
576.315
582.015
587.356
592.328
596.925
601.136
604.956
608.377
611.393
614
616.192
617.965
619.317
620.245
620.748
620.825
620.477
619.702
618.505
616.886
614.848
612.396
609.533
606.265
602.598
598.537
594.09
589.265
584.071
578.518
572.615
566.375
559.809
552.932
545.757
538.301
530.578
522.606
514.404
505.99
497.384
488.606
479.676
470.616
461.447
452.19
442.867
433.499
424.106
414.709
405.327
395.979
386.684
377.459
368.321
359.283
350.361
341.566
332.911
324.404
316.055
307.871
299.86
292.027
284.378
276.919
269.653
262.586
255.722
249.066
242.622
236.397
230.397
224.627
219.096
213.809
208.771
203.988
199.437
195.138
31.4722
16.5244
13.2053
12.0244
11.5782
11.4842
11.5984
11.8555
12.2221
12.6803
13.22
13.8358
14.5251
15.2874
16.1232
17.0344
18.0235
19.094
20.2503
21.4988
22.8392
24.2772
25.8225
27.4837
29.2718
31.1986
33.2768
35.5192
37.939
40.5499
43.3654
46.3988
49.6631
53.1703
56.9319
60.9578
65.2571
69.8374
74.7047
79.8636
85.3172
91.0668
97.1124
103.452
110.083
117.001
124.2
131.673
139.413
147.411
155.656
164.139
172.85
181.776
190.907
200.23
209.734
219.408
229.238
239.213
249.321
259.55
269.89
280.329
290.855
301.458
312.127
322.852
333.621
344.427
355.258
366.108
376.963
387.817
398.669
409.5
420.301
431.103
441.836
452.437
462.874
473.149
483.247
493.161
502.878
512.389
521.683
530.75
539.579
548.159
556.481
564.533
572.306
579.79
586.973
593.847
600.401
606.626
612.512
618.05
623.232
628.05
632.495
636.56
640.238
643.523
646.41
648.892
650.966
652.626
653.871
654.697
655.103
655.087