/*--------------------------------*- C++ -*----------------------------------*\
  =========                 |
  \\      /  F ield         | OpenFOAM: The Open Source CFD Toolbox
   \\    /   O peration     | Website:  https://openfoam.org
    \\  /    A nd           | Version:  12
     \\/     M anipulation  |
\*---------------------------------------------------------------------------*/
FoamFile
{
    format      ascii;
    class       volScalarField;
    location    "0.09";
    object      k;
}
// * * * * * * * * * * * * * * * * * * * * * * * * * * * * * * * * * * * * * //

dimensions      [0 2 -2 0 0 0 0];

internalField   nonuniform List<scalar> 
12225
(
0.353921
0.335043
0.316966
0.300962
0.288128
0.278912
0.273307
0.27102
0.271593
0.274512
0.279263
0.285378
0.292453
0.300155
0.308236
0.316488
0.325012
0.337472
0.436865
0.448981
0.43809
0.433072
0.438809
0.453626
0.474865
0.500081
0.527286
0.554998
0.58219
0.608204
0.632673
0.655436
0.676651
0.696225
0.716786
0.732479
0.395186
0.410873
0.41063
0.405747
0.402013
0.400931
0.402629
0.406833
0.413122
0.421041
0.430157
0.440093
0.450546
0.46128
0.472179
0.483156
0.494636
0.505898
0.379641
0.384839
0.386545
0.38573
0.383905
0.382028
0.380571
0.379745
0.379617
0.380166
0.38133
0.383029
0.385185
0.387728
0.390614
0.393825
0.397417
0.401295
0.374976
0.3759
0.376239
0.37572
0.37457
0.373083
0.371495
0.369967
0.368594
0.367429
0.366491
0.36578
0.365288
0.365003
0.364915
0.365022
0.365328
0.365807
0.373488
0.372554
0.371759
0.370806
0.36963
0.368274
0.366807
0.365298
0.363801
0.362356
0.360988
0.359713
0.358538
0.357467
0.356503
0.355646
0.354898
0.354256
0.373012
0.371296
0.369812
0.368416
0.367024
0.365609
0.364166
0.362708
0.361254
0.359819
0.35842
0.357066
0.355767
0.354527
0.35335
0.35224
0.351201
0.350238
0.372865
0.370838
0.369004
0.36731
0.36571
0.364172
0.362677
0.361213
0.359778
0.358376
0.357008
0.355679
0.354392
0.35315
0.351956
0.350812
0.349721
0.348694
0.37282
0.37068
0.368691
0.366836
0.365094
0.363447
0.361877
0.360373
0.358924
0.357526
0.356175
0.354871
0.353612
0.352397
0.351228
0.350105
0.34903
0.348013
0.372806
0.370628
0.368577
0.366647
0.364828
0.363109
0.36148
0.359931
0.358453
0.35704
0.355687
0.354389
0.353143
0.351947
0.3508
0.3497
0.348647
0.347653
0.372801
0.370609
0.368536
0.366575
0.36472
0.362963
0.361297
0.359716
0.358212
0.35678
0.355415
0.354111
0.352866
0.351675
0.350537
0.349449
0.34841
0.34743
0.372799
0.370602
0.368522
0.366549
0.364679
0.362906
0.361223
0.359625
0.358106
0.35666
0.355284
0.353972
0.352722
0.351529
0.350392
0.349306
0.348271
0.347296
0.372797
0.370599
0.368514
0.366537
0.36466
0.362879
0.361187
0.359579
0.358051
0.356597
0.355212
0.353894
0.352639
0.351442
0.350302
0.349214
0.348179
0.347204
0.372796
0.370596
0.368509
0.366528
0.364649
0.362863
0.361167
0.359554
0.35802
0.35656
0.355171
0.353848
0.352588
0.351387
0.350243
0.349153
0.348115
0.347138
0.372795
0.370593
0.368505
0.366523
0.364641
0.362853
0.361154
0.359538
0.358002
0.356539
0.355147
0.353821
0.352558
0.351354
0.350207
0.349114
0.348073
0.347093
0.372795
0.370592
0.368502
0.366518
0.364634
0.362845
0.361144
0.359527
0.357989
0.356524
0.35513
0.353803
0.352538
0.351332
0.350183
0.349088
0.348044
0.347062
0.372794
0.37059
0.368499
0.366515
0.36463
0.362839
0.361137
0.359519
0.357979
0.356514
0.355118
0.353789
0.352523
0.351317
0.350166
0.349069
0.348024
0.34704
0.372794
0.37059
0.368498
0.366512
0.364627
0.362835
0.361133
0.359513
0.357973
0.356506
0.35511
0.35378
0.352513
0.351305
0.350154
0.349055
0.348009
0.347023
0.372793
0.370589
0.368497
0.366512
0.364626
0.362834
0.361131
0.359511
0.35797
0.356504
0.355107
0.353776
0.352509
0.3513
0.350148
0.349049
0.348001
0.347015
0.372794
0.37059
0.368498
0.366513
0.364628
0.362837
0.361134
0.359515
0.357974
0.356508
0.355111
0.353781
0.352514
0.351305
0.350153
0.349054
0.348007
0.347021
0.372794
0.370591
0.3685
0.366516
0.364632
0.362842
0.361141
0.359523
0.357984
0.356519
0.355124
0.353795
0.352529
0.351323
0.350172
0.349074
0.348028
0.347043
0.372795
0.370593
0.368504
0.366522
0.364642
0.362856
0.361159
0.359547
0.358013
0.356554
0.355165
0.353842
0.352581
0.351379
0.350233
0.349139
0.348097
0.347115
0.372796
0.370598
0.368518
0.366547
0.364681
0.362913
0.361236
0.359643
0.358128
0.356687
0.355314
0.354004
0.352754
0.35156
0.35042
0.349329
0.348287
0.347304
0.372804
0.370631
0.368592
0.366677
0.364872
0.363167
0.361549
0.360007
0.358534
0.357123
0.355769
0.35447
0.353222
0.352024
0.350872
0.349767
0.348707
0.347703
0.372856
0.370818
0.368973
0.367264
0.365645
0.364086
0.362568
0.361084
0.359633
0.358215
0.356835
0.355495
0.354199
0.35295
0.351747
0.350594
0.349491
0.34845
0.373166
0.37177
0.370579
0.369371
0.36805
0.366606
0.365073
0.363493
0.361907
0.360344
0.358827
0.357374
0.355992
0.35469
0.353469
0.352331
0.351273
0.350303
0.374797
0.375829
0.376175
0.375401
0.373834
0.371876
0.369792
0.36774
0.365813
0.364066
0.362522
0.361192
0.360072
0.359152
0.358418
0.357855
0.357447
0.357178
0.382729
0.391671
0.392376
0.388806
0.384385
0.380403
0.377246
0.374994
0.373615
0.373029
0.37314
0.373849
0.375062
0.376689
0.378652
0.380882
0.383317
0.38589
0.407499
0.414513
0.405422
0.395989
0.390549
0.389281
0.391438
0.396189
0.402798
0.410675
0.419368
0.428537
0.437928
0.447353
0.456677
0.465806
0.474694
0.483255
0.360554
0.347547
0.334933
0.322917
0.311964
0.302352
0.294188
0.287468
0.28211
0.277997
0.274991
0.272952
0.271747
0.27125
0.271346
0.271936
0.272931
0.27425
0.0102964
0.0287544
0.039273
0.0475763
0.0544453
0.0603215
0.0655347
0.0703997
0.0753094
0.0805344
0.086199
0.0924449
0.0993797
0.107001
0.115092
0.123265
0.130619
0.136273
0.139603
0.140382
0.138236
0.141441
0.142235
0.140497
0.140747
0.143317
0.144256
0.145161
0.146618
0.15049
0.159825
0.169294
0.178741
0.188114
0.197384
0.206535
0.215564
0.224473
0.233271
0.241972
0.25059
0.259142
0.267646
0.276119
0.284578
0.29304
0.301519
0.310032
0.31859
0.327205
0.335887
0.344646
0.353488
0.362422
0.37145
0.380578
0.389809
0.399143
0.408582
0.418125
0.427772
0.43752
0.447367
0.45731
0.467343
0.477464
0.487665
0.497943
0.508289
0.518699
0.529164
0.539677
0.550231
0.560817
0.571427
0.582053
0.592685
0.603314
0.613931
0.624527
0.635091
0.645614
0.656086
0.666495
0.676832
0.687086
0.697247
0.707302
0.717243
0.727058
0.736742
0.746289
0.755704
0.765004
0.77423
0.783323
0.792195
0.800847
0.809275
0.817471
0.825425
0.833127
0.840566
0.847733
0.85462
0.861216
0.867513
0.873505
0.879183
0.88454
0.889571
0.89427
0.898631
0.90265
0.906324
0.909648
0.91262
0.915237
0.917497
0.9194
0.920943
0.922126
0.922949
0.923411
0.923514
0.923258
0.922643
0.921671
0.920343
0.918659
0.916621
0.914231
0.911488
0.908395
0.904952
0.901159
0.897019
0.89253
0.887695
0.882512
0.876984
0.87111
0.864891
0.858329
0.851425
0.844182
0.836603
0.828693
0.820457
0.811905
0.803042
0.79389
0.784498
0.775267
0.768477
0.765068
0.761873
0.758488
0.754878
0.751044
0.747001
0.742767
0.738363
0.733815
0.729148
0.724391
0.719572
0.714719
0.709858
0.705013
0.700204
0.695444
0.690734
0.686058
0.681368
0.676553
0.671331
0.664999
0.655413
0.641265
0.0151046
0.039348
0.0543756
0.0653138
0.0740424
0.081459
0.0881465
0.0945819
0.101097
0.107828
0.115039
0.122949
0.131736
0.141514
0.151855
0.16244
0.172824
0.182604
0.191619
0.200076
0.208742
0.216919
0.225493
0.234765
0.243452
0.254287
0.265811
0.277859
0.292545
0.308531
0.323433
0.338296
0.353313
0.368441
0.383614
0.398785
0.413921
0.429004
0.444027
0.458989
0.473899
0.488769
0.503616
0.518459
0.53332
0.54822
0.563181
0.578224
0.593371
0.608639
0.624047
0.639612
0.655347
0.671265
0.687378
0.703695
0.720224
0.73697
0.753939
0.771132
0.788553
0.806199
0.824071
0.842166
0.86048
0.879008
0.897744
0.916682
0.935813
0.955128
0.974618
0.994273
1.01408
1.03403
1.05411
1.07431
1.09461
1.11499
1.13545
1.15597
1.17654
1.19713
1.21773
1.23832
1.25889
1.27942
1.29989
1.32029
1.34058
1.36077
1.38081
1.4007
1.42041
1.43992
1.4591
1.47787
1.49633
1.51449
1.53234
1.54985
1.567
1.58378
1.60016
1.61612
1.63165
1.64673
1.66133
1.67545
1.68906
1.70215
1.71471
1.72673
1.73818
1.74907
1.75938
1.7691
1.77823
1.78675
1.79467
1.80198
1.80867
1.81474
1.8202
1.82503
1.82924
1.83283
1.8358
1.83814
1.83987
1.84098
1.84148
1.84135
1.84062
1.83927
1.8373
1.83472
1.83153
1.82773
1.8233
1.81826
1.81259
1.8063
1.79939
1.79183
1.78365
1.77482
1.76536
1.75526
1.74451
1.73314
1.72114
1.70857
1.6954
1.6821
1.66894
1.65587
1.64245
1.62864
1.61445
1.59992
1.5851
1.57005
1.55481
1.53945
1.52402
1.50859
1.49322
1.47795
1.46286
1.44798
1.43335
1.41902
1.405
1.39131
1.37794
1.36487
1.352
1.33939
1.32541
1.3071
0.0237125
0.0538639
0.0720961
0.0851599
0.0955751
0.104516
0.112709
0.120691
0.128586
0.136795
0.145676
0.155382
0.166106
0.17789
0.190578
0.203883
0.217456
0.230983
0.24429
0.257354
0.27025
0.283059
0.296042
0.309456
0.323493
0.338549
0.354724
0.371983
0.390215
0.408968
0.42791
0.447043
0.46634
0.485738
0.505174
0.524597
0.543975
0.563288
0.58253
0.601705
0.620823
0.639904
0.658967
0.678038
0.697142
0.716305
0.735553
0.754912
0.774406
0.794057
0.813887
0.833913
0.854154
0.874624
0.895335
0.916298
0.937523
0.959016
0.980782
1.00282
1.02514
1.04774
1.07061
1.09375
1.11716
1.14083
1.16475
1.18891
1.21331
1.23792
1.26275
1.28777
1.31298
1.33835
1.36388
1.38954
1.41531
1.44119
1.46715
1.49317
1.51924
1.54533
1.57142
1.59749
1.62352
1.6495
1.67539
1.70117
1.72683
1.75234
1.77768
1.80282
1.82775
1.85244
1.87673
1.90066
1.92422
1.9474
1.97017
1.99251
2.01439
2.03578
2.05666
2.07699
2.09676
2.11593
2.13449
2.15241
2.16968
2.18626
2.20214
2.2173
2.23173
2.24541
2.25832
2.27047
2.28183
2.29239
2.30215
2.31111
2.31926
2.32658
2.33309
2.33879
2.34366
2.34771
2.35095
2.35338
2.355
2.35581
2.35582
2.35503
2.35345
2.35109
2.34794
2.34401
2.3393
2.33382
2.32757
2.32055
2.31276
2.3042
2.29487
2.28477
2.2739
2.26227
2.24986
2.2367
2.22277
2.20811
2.19267
2.17666
2.16013
2.14322
2.12608
2.10862
2.09071
2.07232
2.0535
2.03429
2.01475
1.99494
1.97493
1.95479
1.93459
1.91441
1.89431
1.87437
1.85465
1.83521
1.81612
1.79741
1.77914
1.76134
1.74406
1.72736
1.7113
1.69615
1.68142
1.66594
0.0344301
0.0707864
0.0920939
0.107115
0.119068
0.129401
0.138984
0.148002
0.156957
0.166267
0.176282
0.187258
0.199348
0.212566
0.226768
0.241686
0.256996
0.272413
0.287764
0.303027
0.318295
0.333752
0.349634
0.366184
0.383595
0.402004
0.42144
0.441807
0.462914
0.484529
0.506464
0.52861
0.550892
0.573246
0.595622
0.617983
0.640305
0.662576
0.684794
0.706965
0.729105
0.75123
0.773365
0.795533
0.817761
0.840076
0.862504
0.885072
0.907805
0.930727
0.953859
0.977222
1.00083
1.02471
1.04887
1.07332
1.09807
1.12313
1.14851
1.17421
1.20023
1.22657
1.25323
1.2802
1.30749
1.33508
1.36296
1.39113
1.41957
1.44828
1.47723
1.50641
1.53581
1.5654
1.59518
1.62512
1.6552
1.6854
1.7157
1.74608
1.77651
1.80698
1.83745
1.86791
1.89832
1.92867
1.95893
1.98907
2.01907
2.0489
2.07854
2.10796
2.13715
2.16598
2.19441
2.22243
2.25003
2.27717
2.30383
2.32998
2.35557
2.38059
2.40498
2.42873
2.45179
2.47414
2.49576
2.5166
2.53664
2.55586
2.57424
2.59175
2.60837
2.62408
2.63887
2.65271
2.66561
2.67754
2.6885
2.69848
2.70747
2.71547
2.72247
2.72849
2.73351
2.73754
2.74058
2.74264
2.74373
2.74384
2.743
2.74121
2.73847
2.7348
2.7302
2.72469
2.71827
2.71096
2.70275
2.69366
2.68369
2.67285
2.66115
2.64859
2.63517
2.62091
2.6058
2.58986
2.57308
2.55553
2.53728
2.51839
2.4989
2.47893
2.45854
2.43768
2.41631
2.39444
2.37211
2.34938
2.3263
2.30294
2.27938
2.2557
2.23196
2.20826
2.18466
2.16125
2.1381
2.11529
2.09287
2.07092
2.0495
2.02868
2.00855
1.98924
1.97095
1.95407
1.93866
1.92463
0.0464732
0.0891228
0.113276
0.130123
0.143515
0.155081
0.165482
0.175287
0.185016
0.195094
0.205863
0.217573
0.230359
0.244224
0.259042
0.274593
0.29063
0.306948
0.323447
0.340145
0.357157
0.374655
0.392823
0.41182
0.431746
0.452632
0.474433
0.497036
0.520286
0.544017
0.568087
0.59239
0.616847
0.641398
0.666001
0.690623
0.715247
0.739863
0.764469
0.789073
0.813687
0.838328
0.863016
0.887774
0.912627
0.937601
0.96272
0.988012
1.0135
1.03921
1.06517
1.09139
1.1179
1.14471
1.17184
1.1993
1.22711
1.25527
1.2838
1.31269
1.34195
1.37158
1.40158
1.43195
1.46268
1.49376
1.52518
1.55694
1.58902
1.62141
1.65409
1.68704
1.72026
1.75371
1.78738
1.82124
1.85528
1.88946
1.92378
1.95819
1.99268
2.02721
2.06177
2.09631
2.13083
2.16528
2.19963
2.23386
2.26794
2.30184
2.33552
2.36896
2.40211
2.43484
2.46713
2.49896
2.5303
2.56113
2.5914
2.62107
2.6501
2.67846
2.70611
2.733
2.7591
2.78437
2.80878
2.83229
2.85486
2.87648
2.89711
2.91672
2.93529
2.9528
2.96922
2.98454
2.99874
3.01181
3.02373
3.03451
3.04412
3.05257
3.05985
3.06596
3.0709
3.07469
3.07731
3.07879
3.07913
3.07834
3.07643
3.07342
3.06932
3.06415
3.05791
3.05063
3.04232
3.033
3.02267
3.01137
2.9991
2.98586
2.97169
2.95658
2.94054
2.92362
2.90577
2.88708
2.86758
2.84731
2.82631
2.80461
2.78228
2.75939
2.73597
2.71203
2.68756
2.66258
2.63713
2.61128
2.58508
2.55861
2.53195
2.50517
2.47836
2.45159
2.42495
2.39853
2.3724
2.34665
2.32135
2.29658
2.27242
2.24898
2.22638
2.20481
2.18455
2.16606
2.14959
2.13543
0.0594785
0.107188
0.133908
0.152611
0.167475
0.180046
0.191188
0.201623
0.211888
0.22241
0.233527
0.245481
0.258409
0.272335
0.287186
0.302822
0.319089
0.335871
0.353126
0.370887
0.389249
0.40833
0.42824
0.449056
0.470803
0.493455
0.516938
0.541145
0.565951
0.591229
0.61687
0.642782
0.668897
0.695161
0.721535
0.747991
0.77451
0.801085
0.827711
0.854394
0.881142
0.907968
0.934891
0.961929
0.989106
1.01644
1.04397
1.0717
1.09967
1.1279
1.15642
1.18524
1.21438
1.24388
1.27374
1.30398
1.33461
1.36565
1.3971
1.42897
1.46126
1.49398
1.52713
1.5607
1.59469
1.62908
1.66388
1.69907
1.73464
1.77057
1.80684
1.84344
1.88034
1.91753
1.95498
1.99267
2.03056
2.06865
2.10689
2.14526
2.18373
2.22226
2.26084
2.29942
2.33798
2.37648
2.41488
2.45316
2.49128
2.52919
2.56687
2.60428
2.64132
2.67789
2.71398
2.74955
2.78458
2.81902
2.85283
2.88596
2.91837
2.95001
2.98083
3.0108
3.03986
3.06797
3.09509
3.12119
3.14622
3.17015
3.19295
3.21457
3.235
3.2542
3.27216
3.28885
3.30425
3.31834
3.33111
3.34256
3.35267
3.36143
3.36885
3.37492
3.37965
3.38304
3.38509
3.38583
3.38526
3.38339
3.38025
3.37584
3.3702
3.36333
3.35526
3.34603
3.33564
3.32412
3.31149
3.29779
3.28303
3.26722
3.25041
3.23262
3.2138
3.19409
3.1735
3.15203
3.12975
3.10667
3.08283
3.05829
3.03309
3.00729
2.98093
2.95402
2.92658
2.89863
2.87024
2.84146
2.81235
2.78299
2.75345
2.72381
2.69415
2.66456
2.63513
2.60593
2.57706
2.5486
2.52064
2.49327
2.46659
2.44073
2.41583
2.39214
2.36997
2.34978
2.33185
2.31641
0.0717228
0.123821
0.153171
0.173755
0.189891
0.203315
0.215139
0.226094
0.236726
0.247466
0.258653
0.270537
0.28328
0.296954
0.311553
0.327022
0.343292
0.36031
0.378063
0.39658
0.415914
0.436125
0.457256
0.479324
0.502308
0.526156
0.550788
0.576109
0.602018
0.628415
0.655215
0.682343
0.70974
0.737359
0.765164
0.793129
0.821236
0.849474
0.877837
0.906327
0.934948
0.963711
0.992628
1.02172
1.051
1.08049
1.11021
1.14019
1.17045
1.20102
1.23193
1.26318
1.29481
1.32684
1.35928
1.39216
1.42549
1.45927
1.49353
1.52828
1.5635
1.59922
1.63542
1.67212
1.70929
1.74694
1.78506
1.82362
1.86263
1.90206
1.94189
1.9821
2.02268
2.06359
2.10481
2.14631
2.18807
2.23005
2.27222
2.31456
2.35702
2.39958
2.44219
2.48483
2.52745
2.57002
2.6125
2.65484
2.69701
2.73897
2.78067
2.82207
2.86299
2.90341
2.9433
2.98263
3.02134
3.05939
3.09674
3.13332
3.16909
3.20399
3.23798
3.27099
3.30299
3.33392
3.36373
3.39238
3.41983
3.44603
3.47094
3.49453
3.51676
3.5376
3.55703
3.57502
3.59154
3.60658
3.62013
3.63216
3.64267
3.65166
3.65911
3.66503
3.66942
3.67229
3.67365
3.67351
3.67188
3.66879
3.66426
3.6583
3.65094
3.64221
3.63214
3.62077
3.60812
3.59422
3.5791
3.56281
3.54539
3.52681
3.50717
3.48653
3.46488
3.4423
3.41879
3.39442
3.3692
3.34319
3.31642
3.28895
3.26082
3.23207
3.20276
3.17291
3.14255
3.11172
3.08047
3.04886
3.01696
2.98483
2.95255
2.9202
2.88785
2.8556
2.82353
2.79173
2.76028
2.72928
2.69881
2.66899
2.63993
2.61176
2.58468
2.55892
2.53482
2.51281
2.49311
2.47584
0.0826685
0.138624
0.170405
0.192553
0.209745
0.224023
0.236507
0.247937
0.258863
0.269719
0.280855
0.292543
0.304981
0.318294
0.332544
0.347747
0.363898
0.380986
0.39901
0.417982
0.437919
0.458831
0.480718
0.503554
0.527298
0.551886
0.577242
0.603285
0.629932
0.657105
0.684736
0.712763
0.741137
0.769817
0.798771
0.827974
0.857407
0.887056
0.916915
0.94698
0.977254
1.00774
1.03845
1.0694
1.1006
1.13207
1.16384
1.19591
1.22833
1.26111
1.29427
1.32785
1.36186
1.39632
1.43126
1.4667
1.50265
1.53912
1.57613
1.61369
1.65181
1.69048
1.72972
1.76951
1.80985
1.85074
1.89217
1.93411
1.97657
2.0195
2.06291
2.10676
2.15102
2.19568
2.2407
2.28604
2.33169
2.3776
2.42375
2.47008
2.51658
2.56319
2.60987
2.6566
2.70332
2.75
2.79658
2.84302
2.88928
2.93531
2.98106
3.02641
3.07124
3.11553
3.15923
3.20231
3.24471
3.28637
3.32724
3.36726
3.40637
3.44452
3.48164
3.51767
3.55257
3.58628
3.61873
3.64989
3.6797
3.70812
3.7351
3.76059
3.78457
3.80698
3.82781
3.84703
3.8646
3.88051
3.89474
3.90727
3.9181
3.92721
3.93459
3.94026
3.94421
3.94645
3.94699
3.94585
3.94304
3.93859
3.93253
3.92487
3.91566
3.90492
3.89268
3.87901
3.86393
3.84749
3.82967
3.81063
3.79038
3.76894
3.74637
3.72275
3.69809
3.67246
3.64589
3.61845
3.59017
3.5611
3.53129
3.50079
3.46964
3.43791
3.40562
3.37284
3.33958
3.30591
3.27186
3.23749
3.20288
3.16808
3.13318
3.09823
3.06333
3.02856
2.99399
2.95972
2.92583
2.89242
2.85959
2.82745
2.79612
2.76575
2.73654
2.70875
2.68269
2.65875
2.63706
2.61768
0.0920518
0.151214
0.184818
0.208232
0.226469
0.241592
0.254733
0.266635
0.277852
0.288825
0.299915
0.311418
0.323566
0.336533
0.350435
0.365344
0.381298
0.398314
0.416398
0.435547
0.455751
0.476991
0.499237
0.522445
0.54656
0.571519
0.597254
0.623696
0.650777
0.678437
0.706619
0.735276
0.764365
0.793851
0.823706
0.853906
0.884431
0.915268
0.946406
0.977841
1.00957
1.0416
1.07392
1.10657
1.13954
1.17285
1.20652
1.24057
1.27503
1.30992
1.34526
1.38108
1.4174
1.45424
1.49163
1.52958
1.56811
1.60725
1.647
1.68737
1.72837
1.77
1.81227
1.85517
1.8987
1.94286
1.98761
2.03297
2.07889
2.12538
2.17239
2.21991
2.2679
2.31635
2.3652
2.41443
2.46401
2.51389
2.56403
2.6144
2.66495
2.71564
2.76643
2.81726
2.8681
2.91889
2.96959
3.02014
3.0705
3.1206
3.17038
3.21964
3.26835
3.31648
3.36396
3.41075
3.45679
3.50202
3.54636
3.58976
3.63215
3.67347
3.71365
3.75263
3.79035
3.82675
3.86176
3.89534
3.92742
3.95797
3.98691
4.01422
4.03983
4.06372
4.08584
4.10618
4.12469
4.14137
4.15617
4.1691
4.18013
4.18926
4.19647
4.20177
4.20517
4.20667
4.20628
4.20402
4.19991
4.19397
4.18625
4.17678
4.16558
4.15268
4.13813
4.12202
4.10438
4.08526
4.0647
4.04279
4.01958
3.99513
3.96949
3.94273
3.91492
3.8861
3.85635
3.82571
3.79424
3.76201
3.72905
3.69544
3.66122
3.62645
3.59118
3.55545
3.51933
3.48284
3.44604
3.40899
3.37176
3.33439
3.29697
3.25956
3.22223
3.18507
3.14815
3.11155
3.07538
3.03971
3.00465
2.97032
2.93684
2.90437
2.87311
2.84332
2.81529
2.78935
2.76554
2.7439
0.0997063
0.160985
0.196042
0.220633
0.239842
0.255766
0.269548
0.281934
0.293478
0.304623
0.31574
0.327143
0.339089
0.351787
0.365391
0.380013
0.395721
0.412551
0.430515
0.449604
0.469795
0.491054
0.513337
0.536593
0.560764
0.585793
0.61162
0.638188
0.665443
0.693338
0.721829
0.750877
0.780448
0.810512
0.841045
0.872025
0.903433
0.935254
0.967478
1.0001
1.03311
1.06651
1.1003
1.1345
1.1691
1.20414
1.23962
1.27556
1.31198
1.34891
1.38637
1.42439
1.46298
1.50217
1.54199
1.58246
1.62358
1.66539
1.70789
1.75109
1.795
1.83963
1.88497
1.93102
1.97778
2.02524
2.07338
2.12218
2.17164
2.22171
2.27238
2.32361
2.37538
2.42764
2.48037
2.53351
2.58704
2.6409
2.69506
2.74947
2.80408
2.85884
2.91371
2.96864
3.02357
3.07846
3.13324
3.18786
3.24226
3.29639
3.35005
3.40315
3.45566
3.50753
3.5587
3.6091
3.65867
3.70734
3.75503
3.80167
3.84721
3.89156
3.93465
3.97643
4.01682
4.05575
4.09316
4.129
4.1632
4.1957
4.22646
4.25542
4.28251
4.30772
4.33098
4.35229
4.37159
4.38888
4.40412
4.4173
4.4284
4.43741
4.44431
4.44912
4.45183
4.45246
4.45102
4.44753
4.44199
4.43446
4.42497
4.41356
4.40026
4.38512
4.3682
4.34957
4.32927
4.30738
4.28396
4.25908
4.23281
4.20523
4.1764
4.14641
4.11533
4.08323
4.05018
4.01625
3.98151
3.94602
3.90986
3.87308
3.83575
3.79793
3.75967
3.72104
3.68207
3.64283
3.60336
3.56371
3.52395
3.48413
3.44432
3.40458
3.36498
3.32559
3.28648
3.24773
3.20944
3.17167
3.13455
3.09817
3.06268
3.02823
2.99502
2.96329
2.9333
2.90533
2.87936
2.85539
0.105103
0.168019
0.204294
0.229872
0.24992
0.26656
0.280943
0.293812
0.305718
0.317105
0.328344
0.339757
0.351615
0.364144
0.377525
0.39189
0.407329
0.423893
0.441602
0.460449
0.480409
0.501445
0.523511
0.546557
0.570532
0.595383
0.621063
0.647526
0.674732
0.702644
0.731228
0.760456
0.790302
0.820741
0.851753
0.883319
0.915423
0.94805
0.981189
1.01483
1.04897
1.08361
1.11874
1.15438
1.19053
1.2272
1.26442
1.30218
1.34053
1.37947
1.41903
1.45924
1.50011
1.54168
1.58396
1.62696
1.67072
1.71525
1.76055
1.80664
1.85353
1.90121
1.94969
1.99896
2.04902
2.09985
2.15143
2.20375
2.25678
2.31049
2.36486
2.41985
2.47542
2.53153
2.58814
2.64521
2.70268
2.76051
2.81866
2.87707
2.9357
2.99448
3.05337
3.11232
3.17126
3.23014
3.28889
3.34747
3.40581
3.46374
3.52112
3.5779
3.63403
3.68946
3.74412
3.79794
3.85083
3.90272
3.95353
4.0032
4.05164
4.09878
4.14455
4.18887
4.23168
4.2729
4.31246
4.35031
4.38638
4.42061
4.45295
4.48332
4.51166
4.53795
4.56214
4.58419
4.60408
4.62177
4.63725
4.65049
4.66149
4.67021
4.67664
4.68079
4.68267
4.68229
4.67967
4.67482
4.66776
4.65854
4.6472
4.63377
4.6183
4.60085
4.58147
4.56024
4.53723
4.5125
4.48613
4.45821
4.42882
4.39804
4.36596
4.33267
4.29826
4.26281
4.22641
4.18915
4.15109
4.11233
4.07294
4.03299
3.99256
3.9517
3.9105
3.869
3.82727
3.78536
3.74331
3.70119
3.65904
3.61692
3.57488
3.53299
3.49129
3.44986
3.40876
3.36806
3.32784
3.28818
3.24918
3.21094
3.17361
3.13732
3.10228
3.06871
3.03682
3.00685
2.97873
2.95245
0.108629
0.172744
0.209906
0.236233
0.256945
0.274182
0.289093
0.302421
0.314708
0.32639
0.337836
0.349362
0.361241
0.373706
0.386944
0.401101
0.416277
0.432535
0.449904
0.468386
0.487961
0.508598
0.530259
0.5529
0.57648
0.600957
0.626296
0.652464
0.679432
0.707174
0.735668
0.764896
0.794837
0.825477
0.856798
0.888787
0.921431
0.954716
0.988633
1.02317
1.05833
1.09411
1.13049
1.1675
1.20514
1.24341
1.28233
1.32191
1.36218
1.40315
1.44485
1.4873
1.53051
1.57451
1.61932
1.66496
1.71144
1.75878
1.80698
1.85607
1.90603
1.95687
2.00858
2.06117
2.11461
2.16889
2.22399
2.27988
2.33655
2.39395
2.45206
2.51083
2.57022
2.63017
2.69065
2.7516
2.81297
2.87471
2.93676
2.99908
3.06161
3.12428
3.18705
3.24985
3.31263
3.37532
3.43786
3.50019
3.56216
3.62359
3.68441
3.74459
3.80406
3.86275
3.92059
3.9775
4.03339
4.08817
4.14176
4.19409
4.24508
4.29466
4.34274
4.38925
4.43411
4.47726
4.51862
4.55812
4.59571
4.63132
4.66492
4.69638
4.72565
4.75271
4.77752
4.80003
4.82022
4.83806
4.85351
4.86657
4.87722
4.88543
4.8912
4.89453
4.89543
4.8939
4.88996
4.88364
4.87496
4.86395
4.85067
4.83515
4.81744
4.79762
4.77573
4.75186
4.72609
4.69849
4.66915
4.63816
4.60562
4.57163
4.53628
4.49969
4.46194
4.42314
4.3834
4.3428
4.30146
4.25944
4.21686
4.17378
4.1303
4.08649
4.04243
3.99818
3.9538
3.90935
3.86488
3.82044
3.77608
3.73185
3.68779
3.64395
3.60039
3.55715
3.5143
3.47188
3.42998
3.38866
3.34801
3.30814
3.26917
3.23124
3.19453
3.15924
3.12557
3.09369
3.06349
3.03499
0.110698
0.175537
0.213257
0.240085
0.261269
0.278958
0.294302
0.308035
0.320691
0.332696
0.344406
0.356125
0.368119
0.380613
0.393792
0.407801
0.422747
0.4387
0.455697
0.47375
0.492852
0.512982
0.534113
0.556216
0.579261
0.603223
0.628076
0.653803
0.680387
0.707815
0.736076
0.765161
0.79506
0.825766
0.857269
0.889561
0.922632
0.956476
0.991083
1.02645
1.06256
1.09943
1.13705
1.17541
1.21454
1.25443
1.2951
1.33656
1.37882
1.42192
1.46585
1.51065
1.55632
1.60289
1.65038
1.69879
1.74815
1.79845
1.84971
1.90194
1.95512
2.00925
2.06433
2.12035
2.17728
2.23511
2.2938
2.35334
2.41369
2.4748
2.53665
2.59919
2.66237
2.72612
2.79039
2.85512
2.92027
2.98576
3.05156
3.11759
3.18381
3.25014
3.31653
3.38292
3.44925
3.51545
3.58147
3.64713
3.71225
3.77678
3.84065
3.9038
3.96615
4.02764
4.08819
4.14777
4.20618
4.26335
4.31922
4.37372
4.42676
4.47827
4.52817
4.57637
4.6228
4.66739
4.71007
4.75075
4.78939
4.82592
4.86027
4.89238
4.92217
4.94962
4.97468
4.9973
5.01746
5.03512
5.05027
5.06287
5.07291
5.08038
5.08526
5.08756
5.08728
5.08444
5.07904
5.07111
5.06069
5.0478
5.0325
5.01482
4.99483
4.97258
4.94816
4.92164
4.89309
4.86263
4.83033
4.79629
4.76064
4.72347
4.6849
4.64505
4.60403
4.56195
4.51893
4.47508
4.43052
4.38535
4.33968
4.29359
4.24719
4.20057
4.15379
4.10695
4.0601
4.01331
3.96662
3.92008
3.87375
3.82765
3.78183
3.73632
3.69117
3.64641
3.60209
3.55825
3.51495
3.47226
3.43024
3.389
3.34864
3.3093
3.27114
3.23433
3.19903
3.16539
3.13326
3.10266
0.111587
0.176753
0.214736
0.241829
0.263293
0.28128
0.29694
0.311002
0.323989
0.336315
0.348317
0.360284
0.372465
0.385068
0.398268
0.412203
0.426978
0.442664
0.459308
0.476929
0.495535
0.515118
0.535667
0.557168
0.579608
0.602976
0.627264
0.652467
0.678582
0.70561
0.733554
0.762415
0.792195
0.822897
0.85452
0.887063
0.920523
0.954898
0.990185
1.02638
1.06348
1.10149
1.14039
1.1802
1.22092
1.26255
1.3051
1.3486
1.39303
1.43843
1.4848
1.53216
1.58052
1.62989
1.68028
1.73169
1.78415
1.83764
1.89217
1.94773
2.00431
2.06192
2.12052
2.1801
2.24063
2.30209
2.36444
2.42765
2.49168
2.55648
2.62202
2.68825
2.75515
2.82255
2.89043
2.95873
3.02741
3.09639
3.16563
3.23505
3.3046
3.37421
3.44383
3.51338
3.58281
3.65207
3.72093
3.78926
3.85699
3.92405
3.99037
4.05586
4.12047
4.18411
4.2467
4.30817
4.3684
4.4273
4.4848
4.54081
4.59525
4.64805
4.69912
4.74839
4.79578
4.8412
4.8846
4.92589
4.96502
5.00192
5.03652
5.06876
5.09859
5.12595
5.15081
5.17312
5.19284
5.20995
5.22442
5.23623
5.24536
5.25179
5.25553
5.25656
5.25489
5.25054
5.24352
5.23385
5.22156
5.20669
5.18928
5.16939
5.14707
5.1224
5.09544
5.06628
5.035
5.00172
4.96652
4.92952
4.89084
4.8506
4.80891
4.76592
4.72174
4.67652
4.63037
4.58343
4.53582
4.48767
4.43908
4.39017
4.34106
4.29183
4.24257
4.19337
4.1443
4.09543
4.04679
3.99845
3.95044
3.90278
3.85552
3.80868
3.76227
3.71634
3.67089
3.62598
3.58164
3.53791
3.49486
3.45258
3.41114
3.37068
3.33132
3.29322
3.25652
3.22133
3.18747
3.15496
0.111569
0.176731
0.214719
0.241863
0.263422
0.281553
0.297407
0.311707
0.32497
0.337592
0.349893
0.362141
0.374562
0.387345
0.400647
0.414593
0.429281
0.444782
0.461143
0.478395
0.496556
0.515633
0.535631
0.556553
0.578404
0.601192
0.624928
0.649618
0.675274
0.701912
0.72955
0.758205
0.787894
0.818628
0.85042
0.883277
0.917206
0.952211
0.988296
1.02547
1.06373
1.10306
1.14347
1.18494
1.2275
1.27114
1.31587
1.3617
1.40863
1.45666
1.50581
1.55607
1.60745
1.65995
1.71357
1.76832
1.82417
1.88114
1.9392
1.99835
2.05856
2.11981
2.18208
2.24533
2.30954
2.37467
2.44067
2.5075
2.57512
2.64347
2.7125
2.78216
2.85239
2.9231
2.99422
3.0657
3.13748
3.20948
3.28166
3.35393
3.42625
3.49855
3.57077
3.64286
3.71472
3.78612
3.85698
3.92722
3.99677
4.06556
4.13349
4.20051
4.26653
4.33147
4.39525
4.45779
4.519
4.57878
4.63706
4.69375
4.74878
4.80207
4.85352
4.90308
4.95065
4.99618
5.03957
5.08078
5.11972
5.15633
5.19056
5.22234
5.25162
5.27835
5.30248
5.32397
5.34279
5.35891
5.37229
5.38293
5.3908
5.39588
5.39817
5.39767
5.39439
5.38832
5.3795
5.36794
5.35367
5.33673
5.31716
5.29502
5.27037
5.24328
5.21381
5.18208
5.14815
5.11215
5.07417
5.03434
4.99278
4.94962
4.90501
4.85907
4.81195
4.76379
4.71474
4.66494
4.61453
4.56365
4.51242
4.46097
4.40942
4.35788
4.30645
4.25522
4.20427
4.15365
4.10342
4.05364
4.00432
3.9555
3.90719
3.85941
3.81216
3.76546
3.71932
3.67374
3.62877
3.58441
3.54073
3.49777
3.45562
3.41438
3.37416
3.33508
3.29726
3.26078
3.22545
3.19128
0.110874
0.175756
0.213519
0.240516
0.261998
0.280128
0.29606
0.310515
0.324001
0.336897
0.349504
0.362066
0.374784
0.387825
0.401325
0.415393
0.430116
0.445559
0.461772
0.478791
0.496643
0.515353
0.534937
0.555412
0.576805
0.599152
0.622503
0.646847
0.672201
0.698611
0.726121
0.754764
0.784573
0.815577
0.847798
0.881256
0.915969
0.951947
0.989201
1.02774
1.06756
1.10866
1.15104
1.1947
1.23964
1.28585
1.33333
1.38207
1.43208
1.48334
1.53584
1.58958
1.64455
1.70072
1.7581
1.81664
1.87635
1.9372
1.99915
2.06218
2.12627
2.19136
2.25744
2.32445
2.39235
2.4611
2.53064
2.60093
2.6719
2.7435
2.81567
2.88835
2.96147
3.03497
3.10876
3.18279
3.257
3.33131
3.40567
3.48001
3.55428
3.62842
3.70237
3.77594
3.84899
3.92145
3.99327
4.06436
4.13464
4.20405
4.2725
4.33992
4.40623
4.47136
4.53523
4.59775
4.65884
4.71843
4.77643
4.83275
4.88733
4.94009
4.99094
5.03982
5.08665
5.13136
5.17388
5.21414
5.25207
5.28762
5.32071
5.35131
5.37934
5.40477
5.42755
5.44763
5.46499
5.47959
5.49141
5.50041
5.5066
5.50994
5.51045
5.5081
5.50292
5.4949
5.48406
5.47043
5.45403
5.4349
5.41309
5.38865
5.36164
5.33214
5.30021
5.26595
5.22947
5.19085
5.15023
5.10773
5.06347
5.0176
4.97026
4.9216
4.87179
4.82096
4.76929
4.71692
4.66401
4.61071
4.55717
4.50353
4.4499
4.39642
4.3432
4.29032
4.23788
4.18594
4.13455
4.08375
4.03358
3.98404
3.93515
3.8869
3.83929
3.79231
3.74594
3.70019
3.65505
3.61053
3.56667
3.52348
3.48104
3.43942
3.39871
3.35901
3.3204
3.28296
3.24646
3.21094
0.109866
0.174209
0.211529
0.23819
0.25943
0.277422
0.293322
0.30785
0.321503
0.334644
0.347557
0.360461
0.373538
0.386932
0.400759
0.415114
0.430074
0.445698
0.462037
0.47913
0.497011
0.515725
0.535312
0.555738
0.57707
0.599369
0.622691
0.647083
0.672593
0.699277
0.727191
0.756387
0.786912
0.818808
0.852114
0.886858
0.923067
0.960758
0.999944
1.04063
1.08283
1.12652
1.17171
1.21837
1.26651
1.31609
1.36711
1.41954
1.47335
1.52852
1.58502
1.64282
1.70188
1.76218
1.82367
1.88633
1.9501
2.01494
2.08083
2.1477
2.21552
2.28423
2.3538
2.42416
2.49526
2.56705
2.63947
2.71247
2.78599
2.85996
2.93433
3.00903
3.08399
3.15916
3.23447
3.30984
3.38523
3.46058
3.53583
3.61092
3.6858
3.76028
3.83424
3.90765
3.98042
4.05249
4.1238
4.19426
4.26381
4.33239
4.39991
4.4663
4.5315
4.59544
4.65803
4.71921
4.77889
4.83701
4.89348
4.94824
5.0012
5.0523
5.10146
5.14862
5.19369
5.23662
5.27733
5.31576
5.35184