/*--------------------------------*- C++ -*----------------------------------*\
  =========                 |
  \\      /  F ield         | OpenFOAM: The Open Source CFD Toolbox
   \\    /   O peration     | Website:  https://openfoam.org
    \\  /    A nd           | Version:  12
     \\/     M anipulation  |
\*---------------------------------------------------------------------------*/
FoamFile
{
    format      ascii;
    class       volScalarField;
    location    "0.09";
    object      nut;
}
// * * * * * * * * * * * * * * * * * * * * * * * * * * * * * * * * * * * * * //

dimensions      [0 2 -1 0 0 0 0];

internalField   nonuniform List<scalar> 
12225
(
4.04768e-05
3.83178e-05
3.62504e-05
3.442e-05
3.29522e-05
3.18982e-05
3.12573e-05
3.09956e-05
3.10612e-05
3.1395e-05
3.19383e-05
3.26376e-05
3.34468e-05
3.43276e-05
3.52517e-05
3.61953e-05
3.717e-05
3.85944e-05
0.000281047
0.000209263
0.000176263
0.000157435
0.000146266
0.000139682
0.000135787
0.000133425
0.00013191
0.000130853
0.000130039
0.000129353
0.000128736
0.00012816
0.000127624
0.000127079
0.000126716
0.00012563
0.000556045
0.000419901
0.000349804
0.000304721
0.000272427
0.000247957
0.000228733
0.00021326
0.000200623
0.000190211
0.000181585
0.000174404
0.000168398
0.000163344
0.000159067
0.000155365
0.000152161
0.000148914
0.000740306
0.000625815
0.000544104
0.00048498
0.000439743
0.000403612
0.000373791
0.000348539
0.00032677
0.000307786
0.000291111
0.000276398
0.000263374
0.000251805
0.000241489
0.000232189
0.000223739
0.000215781
0.000817068
0.000759138
0.000700536
0.00064856
0.000603869
0.000565543
0.000532417
0.000503438
0.00047778
0.000454833
0.000434149
0.000415391
0.000398298
0.000382651
0.000368263
0.000354928
0.000342484
0.000330795
0.0008421
0.000819685
0.000789918
0.000757593
0.000725532
0.00069513
0.000666917
0.000640949
0.000617083
0.000595117
0.000574845
0.000556078
0.000538647
0.000522399
0.000507196
0.000492893
0.000479374
0.000466672
0.000849261
0.000841807
0.000829738
0.00081418
0.000796466
0.000777738
0.000758813
0.000740204
0.000722197
0.000704937
0.000688482
0.00067284
0.000657984
0.000643874
0.000630455
0.000617665
0.000605455
0.000593952
0.00085112
0.000848747
0.000844479
0.000838232
0.000830238
0.000820881
0.000810576
0.000799688
0.000788506
0.000777245
0.000766061
0.000755058
0.000744305
0.00073384
0.000723683
0.000713839
0.000704318
0.000695276
0.00085156
0.000850665
0.000849169
0.000846885
0.000843737
0.000839751
0.000835021
0.000829674
0.000823845
0.000817663
0.00081124
0.000804669
0.000798026
0.000791371
0.000784746
0.000778189
0.000771734
0.00076552
0.000851652
0.000851133
0.000850468
0.000849563
0.000848345
0.000846768
0.000844819
0.000842509
0.000839867
0.000836934
0.000833756
0.000830377
0.000826841
0.000823186
0.000819448
0.000815658
0.000811848
0.000808117
0.000851668
0.00085123
0.000850778
0.000850278
0.000849696
0.000849004
0.000848178
0.000847205
0.000846078
0.000844801
0.00084338
0.000841828
0.000840159
0.000838388
0.000836531
0.000834605
0.00083263
0.000830661
0.000851669
0.000851245
0.000850835
0.000850429
0.000850013
0.000849574
0.000849098
0.000848576
0.000847997
0.000847357
0.000846653
0.000845886
0.000845058
0.000844173
0.000843235
0.000842252
0.000841232
0.00084021
0.000851668
0.000851245
0.000850843
0.000850459
0.000850088
0.000849725
0.000849363
0.000848999
0.000848625
0.000848238
0.000847834
0.000847412
0.000846969
0.000846505
0.000846021
0.000845517
0.000844999
0.000844485
0.000851667
0.000851242
0.000850839
0.000850458
0.000850096
0.000849751
0.000849419
0.0008491
0.00084879
0.000848488
0.00084819
0.000847897
0.000847605
0.000847314
0.000847024
0.000846733
0.000846444
0.000846169
0.000851666
0.000851239
0.000850835
0.000850452
0.00085009
0.000849746
0.000849419
0.000849107
0.00084881
0.000848526
0.000848254
0.000847994
0.000847743
0.000847501
0.000847269
0.000847044
0.000846829
0.000846634
0.000851665
0.000851237
0.000850831
0.000850447
0.000850083
0.000849737
0.000849409
0.000849097
0.000848801
0.000848519
0.00084825
0.000847994
0.000847749
0.000847516
0.000847294
0.000847082
0.000846882
0.000846704
0.000851664
0.000851235
0.000850828
0.000850442
0.000850077
0.00084973
0.000849401
0.000849088
0.00084879
0.000848507
0.000848237
0.000847981
0.000847736
0.000847503
0.00084728
0.000847068
0.000846869
0.000846692
0.000851664
0.000851234
0.000850826
0.00085044
0.000850073
0.000849725
0.000849395
0.000849081
0.000848783
0.000848499
0.000848228
0.00084797
0.000847725
0.00084749
0.000847267
0.000847054
0.000846853
0.000846674
0.000851663
0.000851233
0.000850825
0.000850439
0.000850072
0.000849724
0.000849393
0.000849079
0.00084878
0.000848495
0.000848224
0.000847966
0.000847719
0.000847484
0.00084726
0.000847046
0.000846844
0.000846664
0.000851664
0.000851234
0.000850826
0.00085044
0.000850074
0.000849727
0.000849396
0.000849082
0.000848784
0.000848499
0.000848227
0.000847968
0.000847721
0.000847484
0.000847258
0.000847042
0.000846838
0.000846655
0.000851664
0.000851235
0.000850829
0.000850444
0.000850078
0.00084973
0.000849399
0.000849084
0.000848781
0.000848491
0.000848212
0.000847943
0.000847683
0.000847432
0.000847188
0.000846951
0.000846722
0.000846514
0.000851665
0.000851237
0.00085083
0.000850442
0.000850069
0.000849707
0.000849352
0.000849
0.000848649
0.000848296
0.000847938
0.000847574
0.000847204
0.000846826
0.00084644
0.000846048
0.000845651
0.000845263
0.000851664
0.000851228
0.000850794
0.000850348
0.00084987
0.000849346
0.000848763
0.000848113
0.000847392
0.000846598
0.000845734
0.000844805
0.000843816
0.000842774
0.000841686
0.000840561
0.000839408
0.00083825
0.000851634
0.000851073
0.000850343
0.000849364
0.000848081
0.00084647
0.000844535
0.000842298
0.000839794
0.000837063
0.00083415
0.000831093
0.000827932
0.0008247
0.000821426
0.000818136
0.000814854
0.000811625
0.000851287
0.000849596
0.000846722
0.000842579
0.000837266
0.000830985
0.000823981
0.000816485
0.000808692
0.000800762
0.000792814
0.000784939
0.000777202
0.000769647
0.000762306
0.000755197
0.000748335
0.000741772
0.000848318
0.000839426
0.000826163
0.000810022
0.000792366
0.000774238
0.000756337
0.000739064
0.00072262
0.000707084
0.000692466
0.000678739
0.000665858
0.000653766
0.000642409
0.000631731
0.000621685
0.00061228
0.000828548
0.000788845
0.000746038
0.000705709
0.000669473
0.000637514
0.000609463
0.000584761
0.000562871
0.000543338
0.000525792
0.000509935
0.000495524
0.000482365
0.0004703
0.000459197
0.000448951
0.000439513
0.000730727
0.000627349
0.000554513
0.000501067
0.000460328
0.00042836
0.000402649
0.000381487
0.000363731
0.000348605
0.000335564
0.000324209
0.000314243
0.000305435
0.000297607
0.000290613
0.000284334
0.000278687
0.00043925
0.000338473
0.000287938
0.000256872
0.000236366
0.000222515
0.000212998
0.000206317
0.000201511
0.000197964
0.000195275
0.000193181
0.000191503
0.00019012
0.000188949
0.000187935
0.000187038
0.00018621
7.16431e-05
6.90587e-05
6.65522e-05
6.41645e-05
6.19882e-05
6.00782e-05
5.84561e-05
5.71207e-05
5.60561e-05
5.52388e-05
5.46415e-05
5.42365e-05
5.3997e-05
5.38982e-05
5.39174e-05
5.40345e-05
5.42323e-05
5.44944e-05
3.18083e-06
4.07197e-05
5.56333e-05
6.73803e-05
7.70778e-05
8.53586e-05
9.26962e-05
9.95444e-05
0.00010647
0.000113842
0.000121838
0.000130658
0.000140451
0.000151202
0.000162594
0.000174074
0.000184307
0.000192137
0.000196795
0.000198012
0.000195389
0.000200471
0.000201429
0.000198236
4.55779e-05
0.000202145
0.00020411
4.71185e-05
4.79992e-05
4.81749e-05
4.96238e-05
5.10269e-05
5.23894e-05
5.37056e-05
5.49744e-05
5.61968e-05
5.73754e-05
5.85131e-05
5.96135e-05
6.06801e-05
6.17166e-05
6.27264e-05
6.37128e-05
6.46789e-05
6.56274e-05
6.6561e-05
6.74819e-05
6.83921e-05
6.92934e-05
7.01872e-05
7.10749e-05
7.19575e-05
7.28358e-05
7.37107e-05
7.45827e-05
7.54521e-05
7.63192e-05
7.71841e-05
7.8047e-05
7.89078e-05
7.97663e-05
8.06224e-05
8.14758e-05
8.23263e-05
8.31733e-05
8.40167e-05
8.48559e-05
8.56905e-05
8.65201e-05
8.73441e-05
8.81621e-05
8.89735e-05
8.97778e-05
9.05746e-05
9.13633e-05
9.21433e-05
9.29142e-05
9.36754e-05
9.44264e-05
9.51666e-05
9.58957e-05
9.66129e-05
9.73179e-05
9.80101e-05
9.8689e-05
9.93541e-05
0.000100005
0.000100641
0.000101261
0.000101866
0.000102455
0.000103028
0.000103585
0.000104128
0.00010466
0.000105178
0.000105675
0.000106153
0.00010661
0.000107048
0.000107464
0.00010786
0.000108234
0.000108587
0.000108918
0.000109226
0.000109512
0.000109776
0.000110016
0.000110233
0.000110427
0.000110598
0.000110745
0.000110869
0.000110969
0.000111045
0.000111098
0.000111128
0.000111134
0.000111117
0.000111076
0.000111012
0.000110925
0.000110815
0.000110683
0.000110527
0.00011035
0.00011015
0.000109928
0.000109684
0.000109418
0.00010913
0.000108821
0.000108491
0.000108139
0.000107765
0.000107371
0.000106956
0.000106519
0.000106061
0.000105582
0.000105082
0.00010456
0.000104018
0.000103453
0.000102868
0.000102261
0.000101632
0.000100982
0.00010031
9.96172e-05
9.89043e-05
9.81673e-05
9.74072e-05
9.66792e-05
9.62857e-05
9.59366e-05
9.55772e-05
9.52029e-05
9.48131e-05
9.44081e-05
9.39887e-05
9.35561e-05
9.31116e-05
9.26565e-05
9.21924e-05
9.1721e-05
9.1244e-05
9.0763e-05
9.02794e-05
8.97947e-05
8.93096e-05
8.88245e-05
8.83384e-05
8.78483e-05
8.73473e-05
8.68171e-05
8.62117e-05
8.5388e-05
8.42661e-05
4.68725e-06
4.4835e-05
8.74062e-05
0.000122798
0.000151866
0.00017576
0.000195487
0.000211967
0.000225648
0.000236755
0.000246225
0.000254766
0.000262802
0.000270368
0.000277115
0.000282386
0.000285114
0.000284091
0.000278532
0.000268628
0.000255546
0.000257917
0.000255072
0.000248494
0.000243369
0.000252202
0.000255191
0.000253711
0.000258455
0.000266061
0.000275274
0.0002851
0.000295297
0.00030568
0.000316107
0.000326468
0.000336686
0.000346704
0.000356487
0.000366015
0.000375284
0.000384296
0.000393064
0.000401606
0.000409944
0.000418101
0.000426102
0.000433971
0.000441734
0.000449412
0.000457027
0.000464599
0.000472147
0.000479686
0.000487231
0.000494794
0.000502386
0.000510017
0.000517694
0.000525423
0.000533209
0.000541057
0.000548968
0.000556943
0.000564984
0.00057309
0.00058126
0.000589492
0.000597784
0.000606132
0.000614534
0.000622986
0.000631482
0.00064002
0.000648594
0.0006572
0.000665832
0.000674485
0.000683154
0.000691835
0.00070052
0.000709206
0.000717887
0.000726557
0.000735211
0.000743844
0.000752448
0.000761018
0.000769544
0.000778015
0.000786414
0.000794716
0.000802881
0.000810852
0.000818395
0.000825481
0.000832416
0.000839234
0.000845936
0.000852515
0.000858968
0.000865287
0.000871468
0.000877506
0.000883395
0.00088913
0.000894707
0.000900122
0.000905371
0.000910451
0.000915358
0.00092009
0.000924644
0.00092902
0.000933214
0.000937227
0.000941057
0.000944705
0.00094817
0.000951453
0.000954555
0.000957477
0.00096022
0.000962787
0.000965178
0.000967397
0.000969446
0.000971328
0.000973044
0.000974598
0.000975993
0.00097723
0.000978313
0.000979243
0.000980022
0.000980651
0.000981132
0.000981464
0.000981647
0.00098168
0.000981562
0.00098129
0.00098086
0.000980268
0.000979509
0.000978577
0.000977464
0.000976164
0.000974662
0.000972952
0.000970996
0.000968769
0.00096606
0.000962331
0.000956441
0.000949161
0.000941454
0.000933507
0.000925368
0.000917061
0.000908606
0.000900021
0.000891325
0.000882541
0.00087369
0.000864794
0.000855878
0.000846964
0.000838075
0.000829232
0.000820454
0.000811757
0.000803153
0.000794647
0.000786233
0.000777888
0.000769521
0.000760996
0.00075056
0.00072249
7.36983e-06
5.92349e-05
0.000117287
0.000167867
0.000210711
0.000246551
0.000276125
0.000300062
0.000318395
0.000332114
0.000342229
0.000349796
0.000355776
0.000360824
0.00036526
0.000369093
0.000372136
0.000374253
0.000375666
0.000377124
0.000379707
0.000385115
0.000391825
0.000399959
0.000410368
0.000423204
0.00043772
0.000453953
0.000472062
0.000491953
0.000513182
0.000534951
0.000556892
0.000578772
0.000600421
0.000621709
0.000642546
0.000662876
0.000682673
0.000701931
0.000720666
0.000738904
0.000756684
0.000774048
0.000791045
0.000807722
0.000824128
0.000840311
0.000856315
0.000872182
0.000887952
0.00090366
0.000919338
0.000935015
0.000950715
0.000966461
0.000982271
0.00099816
0.00101414
0.00103022
0.00104642
0.00106272
0.00107915
0.00109569
0.00111235
0.00112912
0.00114601
0.001163
0.00118009
0.00119727
0.00121454
0.00123188
0.00124929
0.00126675
0.00128426
0.0013018
0.00131937
0.00133695
0.00135452
0.00137208
0.00138962
0.00140712
0.00142457
0.00144195
0.00145926
0.00147647
0.00149356
0.00151052
0.00152733
0.00154396
0.00156036
0.00157652
0.00159236
0.00160785
0.00162271
0.00163719
0.00165138
0.00166533
0.00167901
0.00169243
0.00170558
0.00171843
0.00173099
0.00174323
0.00175514
0.00176673
0.00177796
0.00178885
0.00179937
0.00180952
0.0018193
0.00182869
0.0018377
0.00184631
0.00185452
0.00186234
0.00186975
0.00187676
0.00188337
0.00188957
0.00189538
0.00190078
0.00190579
0.00191041
0.00191464
0.00191848
0.00192194
0.00192504
0.00192776
0.00193012
0.00193213
0.0019338
0.00193512
0.0019361
0.00193675
0.00193708
0.00193709
0.00193677
0.00193614
0.0019352
0.00193394
0.00193236
0.00193046
0.00192822
0.00192566
0.00192275
0.00191948
0.00191584
0.0019118
0.00190735
0.00190242
0.00189689
0.00189048
0.00188263
0.00187271
0.00186131
0.00184913
0.00183641
0.00182323
0.00180964
0.00179567
0.00178134
0.00176668
0.00175173
0.00173653
0.00172111
0.00170551
0.00168978
0.00167397
0.00165811
0.00164224
0.00162641
0.00161063
0.00159492
0.00157926
0.00156359
0.00154769
0.00153095
0.00151059
0.00147162
1.07116e-05
7.71071e-05
0.000150571
0.000213595
0.000266241
0.000309719
0.000345008
0.000372209
0.000392559
0.000407318
0.000417819
0.000425421
0.000431389
0.000436753
0.00044222
0.000448188
0.000454839
0.000462301
0.000470809
0.000480756
0.00049258
0.000506622
0.000522906
0.0005415
0.00056248
0.000585753
0.000611175
0.000638536
0.000667493
0.000697652
0.000728516
0.000759594
0.00079056
0.00082119
0.000851327
0.000880863
0.00090973
0.000937892
0.000965343
0.000992097
0.00101819
0.00104365
0.00106855
0.00109294
0.00111688
0.00114042
0.00116364
0.00118658
0.00120931
0.00123188
0.00125433
0.0012767
0.00129905
0.00132139
0.00134377
0.00136621
0.00138873
0.00141135
0.00143408
0.00145694
0.00147994
0.00150308
0.00152637
0.00154979
0.00157336
0.00159706
0.00162089
0.00164485
0.00166892
0.00169309
0.00171734
0.00174168
0.00176607
0.00179052
0.00181499
0.00183948
0.00186397
0.00188844
0.00191288
0.00193727
0.00196158
0.00198581
0.00200992
0.00203391
0.00205775
0.00208141
0.00210488
0.00212813
0.00215112
0.00217384
0.00219624
0.00221828
0.00223996
0.00226107
0.00228164
0.00230179
0.00232157
0.00234099
0.00236004
0.00237872
0.00239699
0.00241486
0.0024323
0.00244929
0.00246583
0.00248189
0.00249746
0.00251253
0.00252708
0.00254111
0.00255461
0.00256756
0.00257996
0.0025918
0.00260307
0.00261378
0.00262391
0.00263346
0.00264244
0.00265085
0.00265868
0.00266594
0.00267262
0.00267875
0.00268431
0.00268932
0.00269379
0.00269772
0.00270112
0.00270401
0.00270638
0.00270826
0.00270965
0.00271056
0.002711
0.00271098
0.00271051
0.0027096
0.00270825
0.00270647
0.00270425
0.00270161
0.00269854
0.00269503
0.00269109
0.0026867
0.00268185
0.00267652
0.0026707
0.00266433
0.00265734
0.00264959
0.00264084
0.00263073
0.002619
0.00260597
0.00259203
0.00257737
0.00256209
0.00254621
0.00252977
0.00251279
0.00249531
0.00247737
0.00245899
0.00244022
0.00242111
0.00240172
0.00238208
0.00236226
0.00234231
0.00232227
0.00230218
0.00228208
0.00226193
0.00224168
0.00222103
0.00219925
0.00217364
0.00213529
1.4469e-05
9.64737e-05
0.000184466
0.000258142
0.000318405
0.000367108
0.000405468
0.000434868
0.000456784
0.000472727
0.000484268
0.000492983
0.00050033
0.000507524
0.000515459
0.000524711
0.000535616
0.000548387
0.000563218
0.000580318
0.000599882
0.000622028
0.000646781
0.000674093
0.000703838
0.000735808
0.000769731
0.000805266
0.000842003
0.000879508
0.000917354
0.00095517
0.000992681
0.00102969
0.00106606
0.0011017
0.00113655
0.00117061
0.00120387
0.00123635
0.00126811
0.00129918
0.00132962
0.0013595
0.00138889
0.00141784
0.00144642
0.0014747
0.00150273
0.00153057
0.00155827
0.00158589
0.00161345
0.00164101
0.0016686
0.00169624
0.00172397
0.00175179
0.00177973
0.0018078
0.00183601
0.00186437
0.00189287
0.00192152
0.00195031
0.00197923
0.00200828
0.00203745
0.00206673
0.0020961
0.00212554
0.00215505
0.0021846
0.00221417
0.00224375
0.00227332
0.00230285
0.00233234
0.00236174
0.00239106
0.00242025
0.00244931
0.00247821
0.00250692
0.00253542
0.00256369
0.00259169
0.00261941
0.00264681
0.00267387
0.00270055
0.00272682
0.00275265
0.00277786
0.00280255
0.00282679
0.00285059
0.00287397
0.00289689
0.00291936
0.00294135
0.00296285
0.00298382
0.00300427
0.00302415
0.00304347
0.0030622
0.00308032
0.00309782
0.00311469
0.00313091
0.00314647
0.00316136
0.00317558
0.0031891
0.00320194
0.00321408
0.00322552
0.00323625
0.00324628
0.00325561
0.00326424
0.00327218
0.00327942
0.00328597
0.00329185
0.00329706
0.00330161
0.00330551
0.00330878
0.00331143
0.00331347
0.00331492
0.00331578
0.00331608
0.00331583
0.00331504
0.00331373
0.0033119
0.00330957
0.00330675
0.00330344
0.00329965
0.00329537
0.00329062
0.00328537
0.00327965
0.0032734
0.00326661
0.00325924
0.00325122
0.00324243
0.0032327
0.00322183
0.0032097
0.00319647
0.00318234
0.00316744
0.00315183
0.00313553
0.00311858
0.003101
0.0030828
0.00306401
0.00304466
0.00302479
0.00300445
0.00298367
0.00296252
0.00294103
0.00291928
0.0028973
0.00287515
0.00285287
0.00283045
0.00280784
0.00278477
0.00276055
0.00273312
0.00269801
1.85272e-05
0.000113408
0.000213629
0.000296984
0.000364334
0.000417834
0.00045955
0.000491465
0.000515392
0.000533112
0.0005464
0.000556983
0.000566434
0.000576073
0.000586903
0.000599611
0.000614628
0.000632215
0.000652533
0.000675685
0.000701713
0.000730588
0.000762203
0.000796375
0.000832854
0.000871334
0.000911461
0.000952853
0.000995109
0.00103784
0.00108068
0.00112333
0.00116557
0.00120722
0.00124816
0.00128831
0.00132764
0.00136614
0.0014038
0.00144065
0.00147675
0.00151213
0.00154685
0.00158098
0.00161458
0.00164772
0.00168046
0.00171287
0.001745
0.00177691
0.00180866
0.00184029
0.00187186
0.0019034
0.00193494
0.00196653
0.00199818
0.00202991
0.00206176
0.00209371
0.0021258
0.00215802
0.00219037
0.00222286
0.00225548
0.00228822
0.00232107
0.00235403
0.00238708
0.0024202
0.00245338
0.00248659
0.00251983
0.00255307
0.00258628
0.00261946
0.00265257
0.00268559
0.00271851
0.00275129
0.00278392
0.00281637
0.00284861
0.00288063
0.0029124
0.00294389
0.00297507
0.00300593
0.00303642
0.00306654
0.00309624
0.0031255
0.00315423
0.00318238
0.00321001
0.00323716
0.00326384
0.00329004
0.00331575
0.00334095
0.00336562
0.00338974
0.00341328
0.00343623
0.00345856
0.00348026
0.0035013
0.00352167
0.00354134
0.0035603
0.00357854
0.00359604
0.00361279
0.00362877
0.00364398
0.0036584
0.00367204
0.00368489
0.00369694
0.00370819
0.00371865
0.0037283
0.00373716
0.00374524
0.00375253
0.00375904
0.0037648
0.0037698
0.00377407
0.00377761
0.00378044
0.00378259
0.00378406
0.00378488
0.00378507
0.00378464
0.00378362
0.00378202
0.00377987
0.00377717
0.00377395
0.00377023
0.00376601
0.0037613
0.00375612
0.00375045
0.00374429
0.00373763
0.00373047
0.00372275
0.00371444
0.00370543
0.00369563
0.00368492
0.00367323
0.00366064
0.00364723
0.00363308
0.00361823
0.00360268
0.00358646
0.00356957
0.00355202
0.00353382
0.00351499
0.00349555
0.00347554
0.00345498
0.00343393
0.00341242
0.00339051
0.00336825
0.00334568
0.00332287
0.00329982
0.0032765
0.00325271
0.00322791
0.00320063
0.00316853
2.23435e-05
0.000127604
0.000238544
0.000330586
0.000404382
0.000462677
0.000508163
0.000543147
0.000569718
0.000589867
0.000605518
0.000618498
0.000630455
0.00064278
0.000656557
0.000672558
0.000691281
0.000713014
0.000737888
0.000765927
0.000797059
0.000831134
0.000867929
0.000907164
0.000948509
0.000991605
0.00103607
0.00108154
0.00112762
0.00117398
0.00122031
0.00126637
0.00131195
0.0013569
0.00140113
0.00144455
0.00148715
0.0015289
0.00156981
0.00160992
0.00164925
0.00168785
0.00172579
0.00176311
0.00179989
0.00183617
0.00187203
0.00190753
0.00194273
0.00197768
0.00201244
0.00204706
0.00208158
0.00211605
0.0021505
0.00218496
0.00221947
0.00225404
0.00228869
0.00232345
0.00235831
0.00239329
0.00242838
0.00246359
0.00249892
0.00253435
0.00256988
0.00260549
0.00264118
0.00267692
0.0027127
0.0027485
0.00278431
0.00282009
0.00285582
0.0028915
0.00292708
0.00296256
0.0029979
0.00303308
0.00306808
0.00310287
0.00313744
0.00317175
0.00320578
0.00323951
0.00327291
0.00330596
0.00333864
0.0033709
0.00340274
0.00343412
0.00346491
0.00349517
0.00352493
0.00355419
0.00358297
0.00361125
0.00363901
0.00366623
0.0036929
0.00371898
0.00374445
0.0037693
0.00379349
0.003817
0.00383981
0.0038619
0.00388325
0.00390383
0.00392364
0.00394265
0.00396084
0.00397821
0.00399473
0.00401041
0.00402523
0.00403918
0.00405227
0.00406448
0.00407581
0.00408627
0.00409586
0.00410457
0.00411243
0.00411943
0.00412559
0.00413092
0.00413545
0.00413917
0.00414211
0.0041443
0.00414576
0.0041465
0.00414656
0.00414596
0.00414472
0.00414287
0.00414045
0.00413747
0.00413395
0.00412994
0.00412543
0.00412045
0.00411501
0.00410912
0.0041028
0.00409604
0.00408884
0.00408117
0.004073
0.00406427
0.00405492
0.00404487
0.00403409
0.00402259
0.00401042
0.0039976
0.00398414
0.00397005
0.00395532
0.00393994
0.00392391
0.00390723
0.0038899
0.00387191
0.0038533
0.00383406
0.00381424
0.00379385
0.00377296
0.00375159
0.0037298
0.00370764
0.00368515
0.00366233
0.00363904
0.00361489
0.00358887
0.00355967
2.57542e-05
0.000139585
0.000259442
0.00035889
0.000438635
0.000501851
0.000551459
0.000590006
0.00061978
0.000642916
0.000661429
0.000677202
0.000691926
0.000707039
0.000723682
0.000742688
0.000764603
0.000789734
0.000818193
0.000849946
0.000884848
0.000922665
0.000963102
0.00100582
0.00105045
0.00109661
0.00114393
0.00119205
0.00124063
0.00128936
0.00133798
0.00138627
0.00143406
0.00148123
0.00152766
0.00157331
0.00161814
0.00166213
0.00170531
0.00174767
0.00178927
0.00183015
0.00187035
0.00190992
0.00194893
0.00198744
0.0020255
0.00206318
0.00210053
0.0021376
0.00217446
0.00221115
0.00224772
0.00228421
0.00232066
0.00235709
0.00239354
0.00243004
0.0024666
0.00250324
0.00253997
0.0025768
0.00261373
0.00265076
0.00268789
0.00272511
0.00276242
0.00279981
0.00283725
0.00287474
0.00291226
0.00294979
0.00298731
0.00302479
0.00306222
0.00309958
0.00313683
0.00317397
0.00321095
0.00324777
0.00328439
0.00332079
0.00335695
0.00339285
0.00342846
0.00346375
0.00349871
0.00353331
0.00356753
0.00360134
0.00363472
0.0036676
0.00369994
0.00373178
0.00376314
0.00379402
0.00382441
0.0038543
0.00388367
0.00391249
0.00394074
0.00396839
0.00399542
0.00402179
0.00404749
0.00407249
0.00409676
0.00412028
0.00414302
0.00416496
0.00418608
0.00420636
0.00422578
0.00424432
0.00426197
0.00427871
0.00429453
0.00430943
0.0043234
0.00433643
0.00434852
0.00435966
0.00436986
0.00437912
0.00438744
0.00439484
0.00440133
0.00440692
0.00441164
0.00441549
0.00441849
0.00442067
0.00442207
0.00442271
0.00442261
0.00442181
0.00442034
0.00441823
0.00441555
0.00441228
0.00440848
0.00440418
0.00439941
0.0043942
0.00438858
0.00438258
0.00437621
0.00436948
0.0043624
0.00435497
0.00434717
0.00433896
0.0043303
0.00432116
0.0043115
0.00430132
0.00429063
0.00427943
0.00426772
0.00425547
0.00424267
0.00422931
0.00421534
0.00420077
0.00418556
0.0041697
0.00415318
0.00413601
0.00411818
0.00409973
0.00408066
0.00406102
0.00404086
0.00402021
0.00399915
0.00397767
0.00395573
0.00393303
0.00390887
0.00388247
2.86762e-05
0.000149203
0.000276058
0.000381907
0.000467285
0.000535392
0.00058931
0.000631748
0.000665125
0.000691656
0.000713401
0.000732255
0.00074992
0.000767852
0.000787224
0.000808905
0.000833478
0.000861266
0.000892377
0.000926754
0.000964211
0.00100448
0.00104722
0.00109208
0.00113867
0.00118663
0.00123558
0.00128518
0.00133514
0.00138517
0.00143505
0.00148457
0.00153359
0.00158199
0.00162968
0.0016766
0.00172273
0.00176804
0.00181255
0.00185628
0.00189924
0.00194149
0.00198307
0.00202402
0.0020644
0.00210426
0.00214367
0.00218268
0.00222134
0.00225971
0.00229785
0.00233579
0.00237359
0.0024113
0.00244894
0.00248655
0.00252416
0.0025618
0.00259949
0.00263725
0.00267508
0.00271301
0.00275103
0.00278915
0.00282736
0.00286566
0.00290405
0.00294251
0.00298103
0.0030196
0.0030582
0.00309681
0.00313542
0.00317399
0.00321252
0.00325097
0.00328932
0.00332755
0.00336564
0.00340356
0.00344128
0.00347879
0.00351607
0.00355307
0.0035898
0.00362621
0.0036623
0.00369803
0.00373339
0.00376835
0.00380288
0.00383692
0.0038705
0.00390362
0.00393629
0.0039685
0.00400024
0.00403149
0.00406222
0.00409241
0.00412203
0.00415104
0.00417943
0.00420717
0.00423421
0.00426054
0.00428612
0.00431093
0.00433494
0.00435812
0.00438045
0.00440191
0.00442246
0.00444209
0.00446078
0.00447852
0.00449529
0.00451108
0.00452588
0.00453969
0.00455249
0.00456428
0.00457506
0.00458483
0.0045936
0.00460138
0.00460818
0.00461401
0.0046189
0.00462286
0.0046259
0.00462806
0.00462938
0.00462989
0.00462963
0.0046286
0.00462687
0.00462448
0.00462148
0.0046179
0.00461379
0.00460919
0.00460415
0.00459872
0.00459292
0.00458681
0.0045804
0.00457374
0.00456683
0.00455969
0.00455231
0.00454469
0.00453681
0.00452864
0.00452017
0.00451137
0.00450226
0.0044928
0.00448298
0.00447277
0.00446214
0.00445105
0.00443946
0.00442733
0.00441463
0.00440132
0.00438736
0.00437274
0.00435744
0.00434145
0.00432479
0.00430747
0.00428953
0.00427101
0.00425197
0.00423245
0.00421242
0.00419169
0.00416974
0.00414603
3.10579e-05
0.00015629
0.000288708
0.000400104
0.000490597
0.000563367
0.000621581
0.000668039
0.000705227
0.000735389
0.000760583
0.000782687
0.00080338
0.000824105
0.000846036
0.000870061
0.000896785
0.00092655
0.000959479
0.000995516
0.00103447
0.00107608
0.00111999
0.00116585
0.00121328
0.00126192
0.00131144
0.00136151
0.00141186
0.00146223
0.00151241
0.00156224
0.00161156
0.00166027
0.0017083
0.0017556
0.00180212
0.00184786
0.00189281
0.00193701
0.00198046
0.00202321
0.0020653
0.00210678
0.00214768
0.00218808
0.00222801
0.00226755
0.00230673
0.00234561
0.00238425
0.00242269
0.00246098
0.00249917
0.00253728
0.00257536
0.00261344
0.00265155
0.0026897
0.00272792
0.00276623
0.00280463
0.00284314
0.00288175
0.00292046
0.00295929
0.00299821
0.00303721
0.0030763
0.00311546
0.00315466
0.00319389
0.00323313
0.00327237
0.00331157
0.00335072
0.00338978
0.00342875
0.00346758
0.00350626
0.00354476
0.00358306
0.00362114
0.00365896
0.00369652
0.00373378
0.00377073
0.00380734
0.0038436
0.00387948
0.00391495
0.00395002
0.00398469
0.00401896
0.00405281
0.00408623
0.00411921
0.00415172
0.00418372
0.00421519
0.00424611
0.00427643
0.00430612
0.00433516
0.0043635
0.00439112
0.00441799
0.00444407
0.00446932
0.00449374
0.00451727
0.0045399
0.00456159
0.00458232
0.00460207
0.00462082
0.00463855
0.00465526
0.00467091
0.00468552
0.00469907
0.00471154
0.00472294
0.00473326
0.0047425
0.00475068
0.00475782
0.00476392
0.00476902
0.00477311
0.00477622
0.00477838
0.00477962
0.00478
0.00477955
0.00477831
0.00477632
0.00477363
0.00477031
0.0047664
0.00476196
0.00475704
0.00475171
0.00474601
0.00474
0.00473374
0.00472727
0.00472063
0.00471385
0.00470697
0.0047
0.00469295
0.00468581
0.00467859
0.00467126
0.00466383
0.00465626
0.00464854
0.00464065
0.00463253
0.00462415
0.00461546
0.0046064
0.00459691
0.00458694
0.00457642
0.00456531
0.00455355
0.00454111
0.00452797
0.0045141
0.0044995
0.00448421
0.00446824
0.00445167
0.00443452
0.00441679
0.00439835
0.00437878
0.00435767
3.27277e-05
0.000161327
0.000298028
0.000413958
0.000508888
0.000585918
0.000648222
0.000698629
0.000739634
0.000773473
0.00080217
0.000827553
0.000851253
0.00087467
0.000898958
0.000924998
0.000953407
0.000984549
0.00101857
0.00105544
0.00109499
0.00113696
0.00118105
0.0012269
0.00127417
0.00132253
0.00137164
0.00142122
0.00147101
0.00152078
0.00157034
0.00161954
0.00166824
0.00171635
0.0017638
0.00181054
0.00185654
0.00190179
0.00194628
0.00199005
0.0020331
0.00207548
0.00211721
0.00215835
0.00219895
0.00223905
0.00227871
0.00231798
0.00235691
0.00239555
0.00243397
0.0024722
0.00251029
0.00254828
0.00258623
0.00262415
0.0026621
0.00270008
0.00273814
0.00277629
0.00281455
0.00285293
0.00289144
0.00293009
0.00296887
0.0030078
0.00304686
0.00308604
0.00312534
0.00316473
0.00320422
0.00324377
0.00328337
0.003323
0.00336262
0.00340223
0.00344178
0.00348126
0.00352064
0.00355989
0.003599
0.00363792
0.00367664
0.00371513
0.00375338
0.00379135
0.00382903
0.0038664
0.00390344
0.00394016
0.00397657
0.00401265
0.0040484
0.00408379
0.00411881
0.00415345
0.00418767
0.00422143
0.00425472
0.0042875
0.00431973
0.00435138
0.00438241
0.00441278
0.00444246
0.00447142
0.00449961
0.004527
0.00455356
0.00457926
0.00460406
0.00462792
0.00465081
0.00467271
0.00469358
0.00471342
0.00473219
0.00474988
0.00476647
0.00478195
0.00479632
0.00480957
0.00482166
0.0048326
0.0048424
0.00485107
0.00485861
0.00486505
0.00487041
0.00487468
0.00487791
0.00488013
0.00488137
0.00488167
0.00488108
0.00487965
0.00487742
0.00487447
0.00487084
0.0048666
0.00486183
0.00485658
0.00485092
0.00484493
0.00483868
0.00483222
0.00482562
0.00481895
0.00481224
0.00480556
0.00479892
0.00479236
0.00478589
0.00477952
0.00477325
0.00476708
0.00476099
0.00475494
0.00474892
0.00474288
0.00473675
0.00473047
0.00472399
0.00471721
0.00471007
0.00470249
0.00469438
0.00468568
0.00467632
0.00466625
0.00465543
0.00464384
0.00463148
0.00461837
0.00460456
0.00459007
0.0045749
0.00455896
0.00454189
0.0045233
3.38211e-05
0.00016466
0.000304415
0.000423867
0.000522483
0.000603235
0.000669252
0.00072334
0.000767969
0.000805333
0.000837399
0.000865928
0.000892476
0.000918386
0.000944764
0.00097247
0.00100212
0.00103408
0.00106855
0.00110551
0.00114484
0.00118633
0.00122968
0.0012746
0.00132077
0.00136787
0.00141562
0.00146374
0.00151201
0.00156022
0.00160819
0.00165578
0.00170289
0.00174942
0.00179531
0.00184052
0.00188502
0.00192881
0.00197189
0.00201428
0.00205601
0.00209709
0.00213759
0.00217753
0.00221697
0.00225596
0.00229454
0.00233278
0.00237072
0.00240842
0.00244593
0.0024833
0.00252057
0.00255779
0.002595
0.00263224
0.00266955
0.00270695
0.00274447
0.00278213
0.00281996
0.00285796
0.00289614
0.00293452