/*--------------------------------*- C++ -*----------------------------------*\
  =========                 |
  \\      /  F ield         | OpenFOAM: The Open Source CFD Toolbox
   \\    /   O peration     | Website:  https://openfoam.org
    \\  /    A nd           | Version:  12
     \\/     M anipulation  |
\*---------------------------------------------------------------------------*/
FoamFile
{
    format      ascii;
    class       volScalarField;
    location    "0.09";
    object      p;
}
// * * * * * * * * * * * * * * * * * * * * * * * * * * * * * * * * * * * * * //

dimensions      [0 2 -2 0 0 0 0];

internalField   nonuniform List<scalar> 
12225
(
-0.58923
-2.87202
-4.03401
-4.34143
-4.50873
-4.66717
-4.79016
-4.8766
-4.94375
-5.00172
-5.05212
-5.09448
-5.12871
-5.15333
-5.16617
-5.15355
-5.12531
-4.96541
-4.05676
-4.75866
-4.8484
-4.71259
-4.67154
-4.73758
-4.81675
-4.88065
-4.93524
-4.98564
-5.03146
-5.0713
-5.10449
-5.12945
-5.14516
-5.14184
-5.13598
-5.08781
-4.26153
-4.15837
-4.31467
-4.43608
-4.54246
-4.66353
-4.77027
-4.85102
-4.91587
-4.9728
-5.02335
-5.06704
-5.10375
-5.13266
-5.15389
-5.16293
-5.17812
-5.19649
-4.12427
-4.04594
-4.32152
-4.49953
-4.59302
-4.68895
-4.78256
-4.85825
-4.92057
-4.97599
-5.02585
-5.06963
-5.10724
-5.1385
-5.16443
-5.18484
-5.2152
-5.2642
-4.1313
-4.14836
-4.38797
-4.53716
-4.61226
-4.69579
-4.78394
-4.85821
-4.92
-4.97509
-5.02505
-5.06957
-5.10878
-5.14313
-5.17433
-5.20455
-5.24549
-5.30679
-4.19307
-4.23534
-4.41267
-4.54271
-4.61979
-4.70119
-4.78609
-4.85923
-4.92079
-4.97582
-5.02607
-5.0715
-5.11247
-5.14989
-5.18586
-5.22342
-5.27107
-5.33655
-4.25293
-4.29227
-4.42822
-4.54977
-4.63128
-4.70992
-4.79026
-4.86152
-4.92268
-4.97762
-5.02815
-5.07449
-5.11719
-5.15742
-5.19737
-5.24012
-5.2916
-5.35699
-4.30623
-4.34095
-4.45083
-4.56282
-4.64455
-4.71943
-4.79513
-4.86433
-4.925
-4.97984
-5.03065
-5.07788
-5.12221
-5.16488
-5.20793
-5.25405
-5.3072
-5.37027
-4.35621
-4.38778
-4.47817
-4.57837
-4.65767
-4.72919
-4.8008
-4.86782
-4.92779
-4.98246
-5.03349
-5.08151
-5.12722
-5.17183
-5.2171
-5.26512
-5.31839
-5.37822
-4.4038
-4.43227
-4.50708
-4.59543
-4.6711
-4.73963
-4.80753
-4.87216
-4.93118
-4.98555
-5.03667
-5.08528
-5.13206
-5.17806
-5.2247
-5.27347
-5.32587
-5.38224
-4.44886
-4.474
-4.53646
-4.61402
-4.68527
-4.75078
-4.81523
-4.87737
-4.93522
-4.98912
-5.04019
-5.08915
-5.13662
-5.18346
-5.23073
-5.27944
-5.33037
-5.38339
-4.48767
-4.50988
-4.56342
-4.63223
-4.69893
-4.76154
-4.82304
-4.88288
-4.93948
-4.99281
-5.04367
-5.0927
-5.14046
-5.18762
-5.23494
-5.28306
-5.3324
-5.38258
-4.52372
-4.54341
-4.58967
-4.65081
-4.71288
-4.77254
-4.83128
-4.88889
-4.94414
-4.99676
-5.04726
-5.09616
-5.14394
-5.19107
-5.23807
-5.28532
-5.33298
-5.38061
-4.56171
-4.57892
-4.61849
-4.67216
-4.72911
-4.78535
-4.84113
-4.8963
-4.94991
-5.00155
-5.05144
-5.09996
-5.14742
-5.19415
-5.24044
-5.28644
-5.33217
-5.3772
-4.60044
-4.61527
-4.64895
-4.69573
-4.74736
-4.79982
-4.85249
-4.90506
-4.95677
-5.00713
-5.05611
-5.1039
-5.15068
-5.19659
-5.24175
-5.28619
-5.32983
-5.37231
-4.638
-4.6507
-4.67947
-4.72026
-4.76677
-4.81536
-4.86488
-4.91479
-4.96442
-5.01322
-5.06098
-5.10768
-5.15338
-5.19808
-5.24179
-5.28444
-5.32594
-5.36602
-4.67155
-4.68254
-4.7075
-4.7435
-4.7856
-4.83062
-4.8772
-4.92459
-4.97211
-5.01918
-5.06547
-5.11081
-5.15512
-5.19833
-5.24036
-5.28113
-5.32055
-5.35844
-4.69674
-4.70657
-4.72901
-4.7618
-4.8008
-4.84315
-4.88743
-4.93278
-4.97849
-5.02396
-5.06876
-5.11265
-5.15547
-5.19709
-5.23743
-5.27639
-5.31389
-5.34984
-4.70661
-4.71603
-4.73764
-4.7694
-4.8074
-4.84879
-4.8921
-4.93647
-4.98119
-5.02563
-5.06936
-5.11208
-5.15363
-5.19388
-5.23275
-5.27016
-5.30608
-5.34046
-4.69288
-4.70303
-4.72622
-4.76017
-4.80037
-4.84348
-4.88795
-4.93313
-4.97837
-5.02305
-5.06672
-5.10915
-5.15022
-5.18984
-5.22794
-5.2645
-5.29949
-5.33293
-4.66754
-4.67883
-4.70486
-4.74295
-4.78718
-4.83332
-4.88004
-4.92703
-4.97365
-5.01922
-5.06337
-5.10601
-5.14708
-5.18653
-5.22433
-5.26049
-5.29502
-5.32798
-4.63323
-4.64572
-4.67601
-4.72088
-4.7709
-4.82065
-4.87011
-4.91964
-4.96828
-5.01514
-5.06006
-5.10314
-5.14443
-5.18391
-5.2216
-5.25754
-5.2918
-5.32446
-4.59307
-4.60579
-4.64144
-4.69644
-4.75411
-4.80776
-4.86009
-4.91234
-4.96307
-5.01129
-5.0571
-5.10078
-5.14242
-5.18204
-5.21972
-5.25557
-5.28968
-5.32216
-4.54956
-4.56125
-4.60392
-4.67097
-4.73622
-4.79453
-4.85121
-4.90677
-4.95925
-5.00838
-5.05485
-5.09904
-5.14096
-5.18067
-5.21832
-5.25409
-5.28807
-5.32039
-4.50293
-4.51081
-4.57215
-4.65238
-4.71808
-4.77843
-4.84111
-4.90157
-4.95631
-5.00641
-5.05358
-5.09825
-5.14039
-5.18013
-5.21772
-5.25337
-5.28723
-5.31947
-4.45513
-4.43162
-4.54271
-4.65208
-4.71322
-4.768
-4.83221
-4.89545
-4.9517
-5.00276
-5.05075
-5.09601
-5.13848
-5.17837
-5.21599
-5.25163
-5.28545
-5.31763
-4.44591
-4.30173
-4.46107
-4.62771
-4.71276
-4.77445
-4.84002
-4.90204
-4.95674
-5.00691
-5.05442
-5.09924
-5.14125
-5.18069
-5.21789
-5.25313
-5.28664
-5.3186
-4.59137
-4.30768
-4.34271
-4.47362
-4.59375
-4.70143
-4.79626
-4.87288
-4.93606
-4.99231
-5.04413
-5.09185
-5.13582
-5.17663
-5.21479
-5.2507
-5.28484
-5.31784
-4.52819
-5.02801
-5.03842
-4.87962
-4.79922
-4.82406
-4.87895
-4.9292
-4.97524
-5.0208
-5.06551
-5.10806
-5.14809
-5.18578
-5.22132
-5.25481
-5.28649
-5.31822
-1.18954
-3.06022
-4.13178
-4.42528
-4.56066
-4.69806
-4.81072
-4.89156
-4.95544
-5.01245
-5.06481
-5.11259
-5.15634
-5.1968
-5.23438
-5.26908
-5.30055
-5.32701
-6.35695
-6.35411
-6.35218
-6.35163
-6.35216
-6.35343
-6.35509
-6.35677
-6.35827
-6.35957
-6.36074
-6.36184
-6.36303
-6.36453
-6.36661
-6.36957
-6.37371
-6.37935
-6.38676
-6.3925
-6.3953
-6.40846
-6.42617
-6.43599
-6.45456
-6.46856
-6.4808
-6.51842
-6.55905
-6.57876
-6.59682
-6.62644
-6.65913
-6.69363
-6.72931
-6.76568
-6.80235
-6.83903
-6.87547
-6.9115
-6.94698
-6.9818
-7.01591
-7.04924
-7.08175
-7.11343
-7.14425
-7.17419
-7.20322
-7.23133
-7.25847
-7.28462
-7.30973
-7.33374
-7.3566
-7.37823
-7.39857
-7.41752
-7.43498
-7.45086
-7.46504
-7.4774
-7.48783
-7.49619
-7.50233
-7.50612
-7.50741
-7.50604
-7.50186
-7.49471
-7.48442
-7.47082
-7.45375
-7.43305
-7.40853
-7.38003
-7.34738
-7.31041
-7.26896
-7.22285
-7.17194
-7.11605
-7.05503
-6.98873
-6.91701
-6.83971
-6.75672
-6.66789
-6.57313
-6.47231
-6.36535
-6.25223
-6.13294
-6.00742
-5.87543
-5.73673
-5.59118
-5.43891
-5.27996
-5.11434
-4.94204
-4.76309
-4.57749
-4.38529
-4.18652
-3.98124
-3.76952
-3.55142
-3.32703
-3.09644
-2.85975
-2.61707
-2.36852
-2.11422
-1.85429
-1.58887
-1.3181
-1.04212
-0.761074
-0.475123
-0.184423
0.110865
0.410574
0.714531
1.02256
1.33447
1.65007
1.96917
2.29155
2.617
2.94529
3.27617
3.60939
3.94468
4.28174
4.62027
4.95996
5.30043
5.64134
5.98229
6.32285
6.66259
7.00104
7.33772
7.67211
8.00367
8.33186
8.65612
8.97586
9.29051
9.59949
9.90223
10.1982
10.4867
10.7672
11.0391
11.3019
11.5554
11.799
12.0326
12.2559
12.4686
12.6708
12.8623
13.0431
13.2135
13.3736
13.5237
13.664
13.7952
13.9176
14.032
14.1391
14.2398
14.3354
14.4275
14.5195
14.6158
14.7365
14.8785
-6.35946
-6.35699
-6.35532
-6.35526
-6.35616
-6.3572
-6.35792
-6.3581
-6.35761
-6.35642
-6.3547
-6.35281
-6.35113
-6.35001
-6.3497
-6.35031
-6.35175
-6.35378
-6.35591
-6.3576
-6.3652
-6.37416
-6.37937
-6.39275
-6.40493
-6.41964
-6.4483
-6.47134
-6.48698
-6.51641
-6.55674
-6.59432
-6.6312
-6.66828
-6.70558
-6.74296
-6.78022
-6.81718
-6.85369
-6.88963
-6.9249
-6.95944
-6.99321
-7.02619
-7.05834
-7.08967
-7.12015
-7.14978
-7.17853
-7.2064
-7.23334
-7.25932
-7.2843
-7.30823
-7.33105
-7.35269
-7.37307
-7.3921
-7.4097
-7.42575
-7.44015
-7.45277
-7.4635
-7.4722
-7.47873
-7.48296
-7.48472
-7.48387
-7.48025
-7.4737
-7.46405
-7.45114
-7.43481
-7.41488
-7.39118
-7.36355
-7.33181
-7.29579
-7.25534
-7.21029
-7.16046
-7.10572
-7.0459
-6.98084
-6.91042
-6.83448
-6.7529
-6.66554
-6.57229
-6.47303
-6.36765
-6.25604
-6.13806
-6.01355
-5.88235
-5.74463
-5.6005
-5.44983
-5.29254
-5.12862
-4.95805
-4.78083
-4.59699
-4.40655
-4.20956
-4.00606
-3.79612
-3.5798
-3.3572
-3.1284
-2.89349
-2.6526
-2.40582
-2.15328
-1.89511
-1.63144
-1.36241
-1.08816
-0.808829
-0.524581
-0.235566
0.0580523
0.356109
0.658434
0.96485
1.27517
1.58922
1.90678
2.22766
2.55164
2.87849
3.20797
3.53984
3.87382
4.20964
4.54698
4.88554
5.22497
5.5649
5.90495
6.24472
6.58376
6.92163
7.25784
7.59189
7.92326
8.2514
8.57575
8.89576
9.21084
9.52044
9.82399
10.1209
10.4107
10.6925
10.9658
11.2302
11.4854
11.7309
11.9664
12.1917
12.4067
12.611
12.8048
12.988
13.1608
13.3232
13.4756
13.6182
13.7516
13.8762
13.9927
14.1019
14.2046
14.3023
14.3966
14.491
14.5887
14.7062
14.836
-6.36099
-6.35936
-6.35824
-6.35852
-6.3595
-6.36034
-6.36064
-6.36026
-6.35912
-6.35727
-6.3549
-6.35225
-6.34963
-6.34731
-6.34556
-6.34454
-6.34432
-6.34495
-6.34654
-6.34946
-6.35506
-6.36381
-6.37378
-6.38696
-6.40353
-6.42223
-6.44597
-6.47106
-6.49561
-6.52355
-6.55605
-6.59024
-6.62538
-6.66107
-6.69703
-6.73303
-6.76888
-6.80444
-6.83959
-6.87423
-6.9083
-6.94172
-6.97447
-7.00652
-7.03784
-7.06842
-7.09823
-7.12725
-7.15548
-7.18287
-7.2094
-7.23502
-7.2597
-7.28337
-7.30598
-7.32746
-7.34772
-7.36668
-7.38424
-7.40031
-7.41477
-7.42749
-7.43837
-7.44726
-7.45403
-7.45854
-7.46064
-7.46017
-7.45698
-7.45091
-7.44179
-7.42947
-7.41377
-7.39453
-7.37158
-7.34475
-7.31386
-7.27876
-7.23928
-7.19525
-7.1465
-7.0929
-7.03426
-6.97046
-6.90133
-6.82675
-6.74657
-6.66066
-6.56891
-6.47119
-6.36739
-6.2574
-6.14106
-6.0183
-5.88905
-5.75328
-5.61103
-5.46224
-5.30688
-5.1449
-4.97631
-4.80109
-4.61927
-4.43087
-4.23593
-4.0345
-3.82664
-3.61242
-3.39191
-3.16521
-2.93241
-2.69362
-2.44895
-2.19852
-1.94245
-1.68088
-1.41394
-1.14177
-0.86452
-0.582337
-0.295375
-0.00379449
0.292241
0.592562
0.896994
1.20536
1.51746
1.83312
2.15212
2.47426
2.79931
3.12704
3.4572
3.78953
4.12375
4.45957
4.79667
5.13472
5.47337
5.81224
6.15093
6.48901
6.82605
7.16157
7.49508
7.82606
8.15399
8.47832
8.79849
9.11393
9.42407
9.72833
10.0261
10.3168
10.5999
10.8749
11.1413
11.3986
11.6464
11.8844
12.1123
12.3299
12.537
12.7336
12.9197
13.0953
13.2606
13.4158
13.5612
13.6973
13.8246
13.9436
14.0552
14.1604
14.2604
14.357
14.4536
14.552
14.6679
14.7757
-6.35954
-6.35974
-6.35994
-6.3608
-6.36179
-6.36237
-6.36231
-6.36147
-6.35987
-6.35758
-6.35477
-6.35165
-6.3485
-6.34561
-6.34324
-6.34165
-6.34107
-6.34169
-6.34381
-6.34784
-6.35426
-6.3635
-6.37541
-6.39023
-6.40819
-6.42894
-6.45257
-6.47832
-6.50554
-6.53452
-6.56546
-6.59784
-6.63115
-6.66505
-6.69925
-6.73354
-6.76775
-6.80173
-6.83539
-6.86864
-6.9014
-6.93363
-6.96529
-6.99635
-7.02678
-7.05655
-7.08565
-7.11405
-7.14172
-7.16863
-7.19475
-7.22003
-7.24442
-7.26787
-7.2903
-7.31165
-7.33184
-7.35077
-7.36835
-7.38447
-7.39903
-7.41189
-7.42295
-7.43206
-7.43909
-7.44389
-7.44632
-7.44622
-7.44344
-7.43782
-7.4292
-7.4174
-7.40227
-7.38364
-7.36133
-7.33519
-7.30503
-7.2707
-7.23202
-7.18883
-7.14098
-7.0883
-7.03063
-6.96783
-6.89974
-6.82623
-6.74715
-6.66238
-6.57179
-6.47524
-6.37264
-6.26386
-6.14879
-6.02734
-5.89949
-5.7652
-5.62442
-5.47712
-5.32326
-5.16281
-4.99576
-4.8221
-4.64186
-4.45506
-4.26173
-4.06192
-3.85569
-3.64311
-3.42426
-3.19922
-2.96809
-2.73098
-2.48799
-2.23925
-1.98487
-1.72499
-1.45975
-1.18927
-0.913706
-0.633206
-0.347922
-0.0580119
0.236363
0.535036
0.837835
1.14458
1.45509
1.76917
2.08663
2.40725
2.73082
3.0571
3.38585
3.71682
4.04974
4.38431
4.72023
5.05717
5.39479
5.73271
6.07055
6.40789
6.74428
7.07928
7.4124
7.74313
8.07094
8.3953
8.71564
9.03139
9.342
9.64689
9.94544
10.2371
10.5213
10.7975
11.0654
11.3243
11.5739
11.8138
12.0437
12.2634
12.4728
12.6716
12.8599
13.0378
13.2054
13.3628
13.5105
13.6487
13.778
13.8991
14.0126
14.1195
14.2211
14.319
14.416
14.513
14.623
14.7097
-6.35254
-6.35524
-6.35733
-6.35935
-6.36087
-6.36167
-6.36164
-6.3608
-6.35917
-6.35688
-6.35409
-6.35106
-6.34805
-6.34539
-6.34341
-6.3424
-6.34266
-6.34447
-6.34812
-6.35392
-6.36217
-6.37308
-6.38668
-6.40303
-6.42205
-6.4436
-6.4675
-6.4934
-6.52095
-6.54998
-6.58028
-6.61154
-6.64349
-6.6759
-6.70855
-6.7413
-6.77399
-6.80651
-6.83878
-6.87072
-6.90227
-6.93337
-6.96401
-6.99413
-7.02372
-7.05275
-7.08119
-7.10901
-7.13618
-7.16267
-7.18842
-7.21341
-7.23756
-7.26082
-7.28312
-7.30438
-7.32452
-7.34345
-7.36107
-7.37727
-7.39193
-7.40494
-7.41617
-7.42549
-7.43275
-7.43782
-7.44054
-7.44076
-7.43833
-7.43308
-7.42486
-7.41349
-7.39881
-7.38065
-7.35885
-7.33323
-7.30363
-7.26987
-7.2318
-7.18925
-7.14205
-7.09005
-7.0331
-6.97102
-6.9037
-6.83096
-6.75269
-6.66873
-6.57898
-6.48329
-6.38157
-6.27369
-6.15957
-6.03912
-5.9123
-5.77904
-5.63931
-5.49305
-5.34025
-5.18086
-5.01489
-4.84232
-4.66318
-4.47749
-4.28528
-4.08661
-3.88153
-3.67011
-3.45243
-3.22858
-2.99865
-2.76274
-2.52097
-2.27345
-2.02031
-1.76167
-1.49767
-1.22844
-0.954136
-0.674893
-0.390867
-0.102212
0.190912
0.48834
0.789902
1.09542
1.40472
1.71761
2.0339
2.35337
2.67582
3.00101
3.32872
3.65868
3.99063
4.32429
4.65936
4.99551
5.3324
5.66968
6.00695
6.3438
6.67982
7.01452
7.34745
7.6781
8.00594
8.33042
8.65101
8.96715
9.27824
9.58371
9.88293
10.1753
10.4604
10.7376
11.0065
11.2666
11.5175
11.7588
11.9902
12.2114
12.4223
12.6227
12.8127
12.9921
13.1613
13.3203
13.4695
13.6092
13.7399
13.8622
13.9769
14.0848
14.1871
14.2851
14.3813
14.4751
14.5779
14.6467
-6.34043
-6.34541
-6.35006
-6.35383
-6.35646
-6.35798
-6.35849
-6.35811
-6.35694
-6.35515
-6.35296
-6.35063
-6.34848
-6.34684
-6.34606
-6.34646
-6.34835
-6.352
-6.35767
-6.36557
-6.37587
-6.38866
-6.40395
-6.42169
-6.44175
-6.46395
-6.48806
-6.51384
-6.54103
-6.56943
-6.5988
-6.62895
-6.65964
-6.69071
-6.72199
-6.75336
-6.7847
-6.81592
-6.84695
-6.87771
-6.90818
-6.93828
-6.96801
-6.99731
-7.02616
-7.05453
-7.0824
-7.10972
-7.13647
-7.1626
-7.18807
-7.21282
-7.23679
-7.25992
-7.28214
-7.30337
-7.32352
-7.34248
-7.36017
-7.37647
-7.39127
-7.40444
-7.41585
-7.42537
-7.43286
-7.43817
-7.44116
-7.44167
-7.43953
-7.4346
-7.42671
-7.41569
-7.40137
-7.3836
-7.36219
-7.33698
-7.3078
-7.27449
-7.23687
-7.19479
-7.14808
-7.09658
-7.04014
-6.9786
-6.91181
-6.83964
-6.76194
-6.67857
-6.58942
-6.49435
-6.39326
-6.28603
-6.1726
-6.05286
-5.92675
-5.79421
-5.65519
-5.50966
-5.35757
-5.19891
-5.03367
-4.86185
-4.68347
-4.49854
-4.30711
-4.10923
-3.90496
-3.69436
-3.47751
-3.25451
-3.02544
-2.79041
-2.54953
-2.30292
-2.0507
-1.793
-1.52994
-1.26167
-0.988335
-0.710068
-0.427023
-0.139352
0.152786
0.449229
0.749811
1.05436
1.36269
1.67463
1.98999
2.30855
2.63011
2.95444
3.28133
3.6105
3.94171
4.27468
4.6091
4.94466
5.28104
5.61786
5.95475
6.2913
6.62709
6.96167
7.29454
7.62522
7.95319
8.27791
8.59883
8.91537
9.22694
9.53296
9.8328
10.1259
10.4117
10.6898
10.9596
11.2207
11.4726
11.715
11.9475
12.1699
12.382
12.5836
12.7747
12.9554
13.1257
13.2858
13.436
13.5767
13.7083
13.8314
13.9467
14.055
14.1573
14.2547
14.3491
14.439
14.5349
14.5886
-6.32504
-6.33235
-6.33967
-6.34548
-6.34952
-6.35213
-6.35356
-6.35402
-6.35371
-6.35284
-6.35167
-6.35051
-6.34969
-6.34955
-6.35043
-6.35265
-6.35649
-6.36218
-6.36992
-6.37984
-6.39203
-6.40651
-6.42322
-6.44207
-6.46291
-6.48556
-6.50981
-6.53544
-6.56224
-6.59001
-6.61857
-6.64774
-6.67738
-6.70732
-6.73746
-6.76768
-6.79789
-6.82803
-6.85802
-6.88782
-6.91738
-6.94666
-6.97563
-7.00425
-7.03251
-7.06036
-7.08777
-7.11471
-7.14114
-7.16701
-7.19228
-7.21688
-7.24076
-7.26384
-7.28604
-7.30729
-7.3275
-7.34655
-7.36435
-7.38079
-7.39574
-7.40908
-7.42069
-7.43042
-7.43813
-7.44367
-7.4469
-7.44765
-7.44578
-7.44112
-7.4335
-7.42276
-7.40874
-7.39126
-7.37015
-7.34525
-7.31639
-7.2834
-7.24611
-7.20436
-7.15799
-7.10684
-7.05075
-6.98958
-6.92316
-6.85137
-6.77405
-6.69108
-6.60233
-6.50767
-6.407
-6.30022
-6.18723
-6.06795
-5.94231
-5.81023
-5.67167
-5.52659
-5.37497
-5.21678
-5.05201
-4.88067
-4.70278
-4.51835
-4.32745
-4.1301
-3.92637
-3.71634
-3.50009
-3.27769
-3.04925
-2.81487
-2.57466
-2.32874
-2.07723
-1.82025
-1.55794
-1.29044
-1.01788
-0.740399
-0.458156
-0.171296
0.120026
0.415651
0.715414
1.01915
1.32667
1.63782
1.95238
2.27018
2.591
2.91462
3.24082
3.56935
3.89996
4.23236
4.56628
4.90139
5.23737
5.57387
5.9105
6.24687
6.58254
6.91708
7.25001
7.58082
7.90901
8.23403
8.55532
8.8723
9.18438
9.49097
9.79145
10.0852
10.3718
10.6507
10.9214
11.1834
11.4362
11.6795
11.913
12.1363
12.3493
12.5519
12.7439
12.9255
13.0966
13.2575
13.4084
13.5497
13.6819
13.8053
13.9208
14.029
14.1308
14.227
14.3191
14.4048
14.4943
14.5352
-6.30936
-6.31863
-6.32831
-6.33606
-6.34159
-6.34544
-6.34799
-6.34954
-6.35033
-6.35065
-6.35079
-6.35107
-6.35182
-6.35339
-6.35609
-6.36021
-6.366
-6.37365
-6.38329
-6.395
-6.4088
-6.42466
-6.44251
-6.46221
-6.48363
-6.50658
-6.53088
-6.55634
-6.58278
-6.61003
-6.63793
-6.66635
-6.69514
-6.72421
-6.75344
-6.78276
-6.8121
-6.84138
-6.87057
-6.89962
-6.92849
-6.95714
-6.98555
-7.01368
-7.0415
-7.06898
-7.09609
-7.12278
-7.14902
-7.17476
-7.19993
-7.22448
-7.24835
-7.27146
-7.29373
-7.31507
-7.33538
-7.35457
-7.37252
-7.38913
-7.40426
-7.4178
-7.4296
-7.43953
-7.44745
-7.45321
-7.45665
-7.45763
-7.45597
-7.45153
-7.44413
-7.43361
-7.4198
-7.40253
-7.38164
-7.35696
-7.32831
-7.29553
-7.25845
-7.21692
-7.17076
-7.11983
-7.06395
-7.00299
-6.9368
-6.86523
-6.78814
-6.70539
-6.61688
-6.52246
-6.42204
-6.3155
-6.20277
-6.08374
-5.95834
-5.82651
-5.6882
-5.54337
-5.392
-5.23406
-5.06956
-4.89849
-4.72088
-4.53676
-4.34617
-4.14916
-3.94579
-3.73614
-3.52029
-3.29832
-3.07033
-2.83643
-2.59673
-2.35134
-2.10038
-1.84399
-1.58229
-1.31541
-1.0435
-0.766687
-0.485126
-0.198959
0.0916599
0.386575
0.685626
0.988647
1.29547
1.60591
1.9198
2.23693
2.5571
2.88011
3.20572
3.5337
3.8638
4.19574
4.52925
4.86401
5.19969
5.53594
5.87241
6.20868
6.54434
6.87894
7.212
7.54303
7.87151
8.19689
8.51861
8.83608
9.14872
9.45591
9.75706
10.0516
10.3389
10.6186
10.8901
11.1529
11.4066
11.6507
11.885
12.1092
12.3229
12.5262
12.719
12.9012
13.0729
13.2343
13.3856
13.5273
13.6596
13.7831
13.8984
14.0061
14.107
14.2016
14.291
14.3725
14.4561
14.4861
-6.29575
-6.30643
-6.31792
-6.32727
-6.33415
-6.3392
-6.34291
-6.34562
-6.34763
-6.34925
-6.35079
-6.35258
-6.35494
-6.3582
-6.36264
-6.36854
-6.37608
-6.38543
-6.39667
-6.40984
-6.42492
-6.44186
-6.46056
-6.48089
-6.50271
-6.52585
-6.55015
-6.57545
-6.60159
-6.62842
-6.65581
-6.68364
-6.71181
-6.74022
-6.76879
-6.79746
-6.82616
-6.85484
-6.88347
-6.91199
-6.94039
-6.96863
-6.99668
-7.0245
-7.05207
-7.07936
-7.10632
-7.13292
-7.15911
-7.18483
-7.21003
-7.23464
-7.25859
-7.28181
-7.30422
-7.32571
-7.34619
-7.36555
-7.38369
-7.40049
-7.41582
-7.42955
-7.44155
-7.45168
-7.45979
-7.46574
-7.46936
-7.47051
-7.46903
-7.46474
-7.4575
-7.44713
-7.43346
-7.41633
-7.39556
-7.371
-7.34246
-7.30979
-7.27282
-7.23139
-7.18533
-7.13448
-7.0787
-7.01783
-6.95172
-6.88023
-6.80323
-6.72057
-6.63214
-6.53781
-6.43748
-6.33104
-6.21839
-6.09943
-5.97411
-5.84235
-5.70411
-5.55936
-5.40806
-5.25021
-5.0858
-4.91484
-4.73735
-4.55338
-4.36295
-4.16613
-3.96297
-3.75357
-3.53798
-3.31631
-3.08866
-2.85512
-2.61581
-2.37084
-2.12035
-1.86444
-1.60325
-1.33692
-1.06557
-0.789347
-0.508393
-0.22285
0.0671328
0.361403
0.659804
0.962175
1.26835
1.57816
1.89141
2.20794
2.52752
2.84997
3.17506
3.50255
3.8322
4.16374
4.49689
4.83136
5.16681
5.50291
5.83928
6.17553
6.51124
6.84597
7.17923
7.51055
7.83938
8.16518
8.48739
8.80541
9.11865
9.4265
9.72835
10.0236
10.3118
10.5922
10.8645
11.1281
11.3826
11.6275
11.8625
12.0873
12.3018
12.5057
12.6989
12.8816
13.0537
13.2154
13.3669
13.5087
13.6409
13.7642
13.879
13.9859
14.0856
14.1783
14.2648
14.3421
14.4204
14.4411
-6.28571
-6.29722
-6.30989
-6.32037
-6.32831
-6.3344
-6.33916
-6.34297
-6.34615
-6.34902
-6.3519
-6.35511
-6.35895
-6.36372
-6.36969
-6.37708
-6.38606
-6.39676
-6.40923
-6.4235
-6.43952
-6.45722
-6.4765
-6.49725
-6.51931
-6.54255
-6.56682
-6.59197
-6.61786
-6.64438
-6.6714
-6.69882
-6.72655
-6.75452
-6.78265
-6.81089
-6.8392
-6.86751
-6.89581
-6.92405
-6.9522
-6.98024
-7.00813
-7.03585
-7.06336
-7.09063
-7.11761
-7.14426
-7.17053
-7.19636
-7.2217
-7.24647
-7.2706
-7.29401
-7.31661
-7.33831
-7.359
-7.37857
-7.39692
-7.41392
-7.42945
-7.44337
-7.45555
-7.46584
-7.47411
-7.4802
-7.48396
-7.48523
-7.48386
-7.47967
-7.47251
-7.4622
-7.44859
-7.43151
-7.41078
-7.38624
-7.35772
-7.32506
-7.28809
-7.24664
-7.20057
-7.1497
-7.09389
-7.03299
-6.96685
-6.89533
-6.81828
-6.73559
-6.64712
-6.55275
-6.45237
-6.34587
-6.23315
-6.11413
-5.98873
-5.8569
-5.71859
-5.57377
-5.42241
-5.26451
-5.10007
-4.9291
-4.75161
-4.56766
-4.37729
-4.18055
-3.97751
-3.76824
-3.55284
-3.33139
-3.10398
-2.87073
-2.63175
-2.38715
-2.13705
-1.88157
-1.62085
-1.35502
-1.0842
-0.808527
-0.528149
-0.2432
0.046174
0.339824
0.6376
0.939343
1.24489
1.55408
1.86674
2.18267
2.50169
2.8236
3.14819
3.47522
3.80445
4.13562
4.46846
4.80267
5.13793
5.47391
5.81023
6.1465
6.48231
6.81721
7.15074
7.48238
7.81161
8.13789
8.46063
8.77925
9.09314
9.40168
9.70428
10.0003
10.2893
10.5705
10.8436
11.1079
11.3631
11.6088
11.8444
12.0699
12.2849
12.4893
12.6829
12.8659
13.0382
13.2001
13.3516
13.4933
13.6253
13.7481
13.8622
13.9681
14.0662
14.1568
14.2404
14.3135
14.3869
14.3997
-6.27994
-6.29176
-6.30495
-6.31606
-6.32471
-6.33157
-6.33719
-6.34193
-6.34612
-6.35007
-6.35411
-6.35853
-6.36361
-6.36962
-6.37679
-6.38533
-6.39539
-6.40706
-6.42039
-6.43538
-6.45199
-6.47016
-6.48978
-6.51074
-6.53291
-6.55615
-6.58034
-6.60535
-6.63105
-6.65734
-6.68411
-6.71127
-6.73875
-6.76647
-6.79437
-6.82241
-6.85053
-6.87871
-6.9069
-6.93508
-6.96321
-6.99126
-7.0192
-7.04701
-7.07463
-7.10205
-7.1292
-7.15604
-7.18253
-7.20859
-7.23416
-7.25918
-7.28356
-7.30721
-7.33006
-7.35199
-7.37291
-7.3927
-7.41125
-7.42844
-7.44414
-7.45822
-7.47054
-7.48096
-7.48933
-7.49551
-7.49933
-7.50065
-7.4993
-7.49513
-7.48796
-7.47764
-7.46399
-7.44686
-7.42607
-7.40146
-7.37285
-7.3401
-7.30302
-7.26146
-7.21527
-7.16428
-7.10834
-7.0473
-6.98102
-6.90935
-6.83216
-6.74933
-6.66071
-6.56618
-6.46563
-6.35895
-6.24604
-6.12682
-6.00123
-5.86921
-5.73071
-5.58572
-5.4342
-5.27615
-5.11158
-4.9405
-4.76294
-4.57894
-4.38854
-4.19181
-3.98882
-3.77965
-3.56437
-3.34309
-3.1159
-2.8829
-2.64421
-2.39995
-2.15023
-1.89518
-1.63491
-1.36957
-1.09927
-0.824156
-0.544355
-0.260008
0.028746
0.321764
0.618901
0.920004
1.22492
1.53348
1.84552
2.16085
2.4793
2.80067
3.12475
3.45131
3.78013
4.11093
4.44346
4.77743
5.11251
5.44837
5.78466
6.12097
6.4569
6.79201
7.12581
7.45781
7.78748
8.11425
8.43757
8.75681
9.07138
9.38065
9.684
9.98084
10.2706
10.5526
10.8265
11.0916
11.3475
11.5938
11.8301
12.0561
12.2716
12.4763
12.6703
12.8535
13.0259
13.1878
13.3392
13.4806
13.6121
13.7343
13.8475
13.9522
14.0487
14.137
14.2176
14.2867
14.3555
14.3617
-6.27844
-6.29013
-6.30328
-6.31456
-6.32356
-6.3309
-6.3371
-6.34252
-6.34748
-6.35228
-6.35721
-6.36254
-6.36855
-6.37546
-6.38349
-6.39282
-6.40357
-6.41583
-6.42965
-6.44502
-6.46192
-6.48028
-6.5
-6.52098
-6.54312
-6.56628
-6.59036
-6.61522
-6.64078
-6.66691
-6.69354
-6.72058
-6.74796
-6.7756
-6.80347
-6.8315
-6.85966
-6.88791
-6.91621
-6.94453
-6.97284
-7.0011
-7.02928
-7.05734
-7.08525
-7.11295
-7.14041
-7.16757
-7.19437
-7.22074
-7.24663
-7.27194
-7.29661
-7.32054
-7.34364
-7.36581
-7.38695
-7.40693
-7.42566
-7.44299
-7.45881
-7.47299
-7.48538
-7.49584
-7.50424
-7.51041
-7.51421
-7.51548
-7.51407
-7.5098
-7.50253
-7.49209
-7.47831
-7.46102
-7.44007
-7.41528
-7.3865
-7.35354
-7.31627
-7.2745
-7.22809
-7.17688
-7.12071
-7.05945
-6.99293
-6.92104
-6.84362
-6.76054
-6.67167
-6.57688
-6.47604
-6.36907
-6.25587
-6.13636
-6.01049
-5.87819
-5.73943
-5.59418
-5.44243
-5.28417
-5.11941
-4.94817
-4.77048
-4.58639
-4.39593
-4.19919
-3.99622
-3.78711
-3.57195
-3.35083
-3.12384
-2.89111
-2.65273
-2.40882
-2.1595
-1.90489
-1.64511
-1.38029
-1.11055
-0.836019
-0.556833
-0.273123
0.0149742
0.307323
0.603783
0.904207
1.20844
1.51634
1.82772
2.14242
2.46027
2.78106
3.1046
3.43066
3.75903
4.08944
4.42164
4.75534
5.09022
5.42596
5.7622
6.09855
6.4346
6.7699
7.10399
7.43635
7.76645
8.09374
8.41763
8.73751
9.05277
9.36277
9.6669
9.96452
10.2551
10.5379
10.8125
11.0784
11.335
11.5819
11.8188
12.0453
12.2611
12.4662
12.6604
12.8437
13.0162
13.1779
13.3291
13.4701
13.6011
13.7225
13.8347
13.938
14.0327
14.1187
14.1962
14.2616
14.3261
14.3267
-6.28076
-6.29199
-6.30471
-6.31577
-6.32478
-6.3323
-6.33879
-6.3446
-6.35002
-6.35535
-6.36085
-6.36677
-6.37336
-6.38081
-6.38933
-6.39907
-6.41015
-6.42265
-6.43662
-6.45207
-6.46896
-6.48726
-6.50687
-6.52771
-6.54968
-6.57268
-6.59659
-6.62132
-6.64675
-6.6728
-6.69938
-6.72642
-6.75383
-6.78157
-6.80957
-6.83778
-6.86616
-6.89467
-6.92327
-6.95192
-6.98058
-7.00922
-7.03779
-7.06626
-7.09457
-7.12269
-7.15055
-7.1781
-7.20527
-7.23201
-7.25823
-7.28386
-7.30881
-7.333
-7.35632
-7.37869
-7.39998
-7.4201
-7.43891
-7.45631
-7.47216
-7.48633
-7.49869
-7.5091
-7.5174
-7.52346
-7.52712
-7.52823
-7.52664
-7.52218
-7.51469
-7.50402
-7.48999
-7.47245
-7.45123
-7.42617
-7.3971
-7.36386
-7.32629
-7.28423
-7.23752
-7.18601
-7.12954
-7.06798
-7.00117
-6.92897
-6.85125
-6.76785
-6.67863
-6.58347
-6.48226
-6.37492
-6.26136
-6.14149
-6.01527
-5.88265
-5.74358
-5.59804
-5.44603
-5.28753
-5.12256
-4.95115
-4.77332
-4.58913
-4.39862
-4.20187
-3.99894
-3.78992
-3.5749
-3.35396
-3.12722
-2.89478
-2.65675
-2.41324
-2.16437
-1.91025
-1.65101
-1.38676
-1.11764
-0.84376
-0.565253
-0.282247
0.00512833
0.296742
0.592457
0.892135
1.19563
1.50279
1.81345
2.12746
2.44463
2.76479
3.08773
3.41324
3.74111
4.07108
4.4029
4.73628
5.07092
5.4065
5.74266
6.07901
6.41514
6.75062
7.08496
7.41766
7.74818
8.07597
8.40042
8.72093
9.03686
9.34759
9.65247
9.95087
10.2422
10.5258
10.8012
11.0677
11.325
11.5725
11.8099
12.0369
12.2531
12.4585
12.6528
12.8362
13.0086
13.1701
13.321
13.4615
13.5918
13.7124
13.8234
13.9253
14.0181
14.1017
14.1762
14.238
14.2985
14.2944
-6.28625
-6.29684
-6.30886
-6.31944
-6.32817
-6.33555
-6.34202
-6.34788
-6.35344
-6.35895
-6.36466
-6.3708
-6.37759
-6.38521
-6.39385
-6.40364
-6.41471
-6.42712
-6.44093
-6.45616
-6.47279
-6.49079
-6.5101
-6.53065
-6.55234
-6.57509
-6.5988
-6.62337
-6.64871
-6.67473
-6.70135
-6.72848
-6.75606
-6.78403
-6.81231
-6.84086
-6.86963
-6.89856
-6.92761
-6.95674
-6.98589
-7.01503
-7.04411
-7.07307
-7.10187
-7.13044
-7.15874
-7.1867
-7.21426
-7.24133
-7.26786
-7.29375
-7.31893
-7.34329
-7.36675
-7.38921
-7.41056
-7.43068
-7.44947
-7.4668
-7.48255
-7.49659
-7.50878
-7.51899
-7.52707
-7.53288
-7.53628
-7.5371
-7.5352
-7.53042
-7.5226
-7.51159
-7.49721
-7.47932
-7.45775
-7.43233
-7.4029
-7.3693
-7.33137
-7.28896
-7.24189
-7.19003
-7.13322
-7.07131
-7.00417
-6.93163
-6.85352
-6.76971
-6.68007
-6.58449
-6.48287
-6.37512
-6.26116
-6.14092
-6.01434
-5.88137
-5.74198
-5.59616
-5.44388
-5.28515
-5.11999
-4.94843
-4.77049
-4.58623
-4.39571
-4.19899
-3.99615
-3.78727
-3.57244
-3.35176
-3.12533
-2.89325
-2.65565
-2.41261
-2.16427
-1.91073
-1.65211
-1.38853
-1.12011
-0.846977
-0.56924
-0.287029
-0.000467679
0.290318
0.585199
0.88404
1.1867
1.49304
1.8029
2.11612
2.43254
2.75198
3.07424
3.39913
3.72642
4.05587
4.38724
4.72024
5.05457
5.38992
5.72594
6.06223
6.39839
6.73398
7.06853
7.40152
7.73242
8.06065
8.38563
8.70672
9.0233
9.33472
9.64032
9.93947
10.2315
10.5159
10.792
11.0592
11.3171
11.5652
11.8031
12.0305
12.247
12.4526
12.6471
12.8304
13.0027
13.164
13.3145
13.4544
13.584
13.7036
13.8135
13.9138
14.0047
14.0859
14.1576
14.216
14.2726
14.2647
-6.29424
-6.30416
-6.31539
-6.3253
-6.33349
-6.34044
-6.34654
-6.3521
-6.35741
-6.3627
-6.36823
-6.37419
-6.38079
-6.3882
-6.39658
-6.40606
-6.41676
-6.42876
-6.44211
-6.45685
-6.47297
-6.49047
-6.5093
-6.52939
-6.55069
-6.57311
-6.59657
-6.62098
-6.64624
-6.67228
-6.699
-6.72632
-6.75417
-6.78248
-6.81117
-6.84018
-6.86945
-6.89891
-6.92852
-6.95822
-6.98794
-7.01764
-7.04725
-7.07673
-7.10601
-7.13503
-7.16373
-7.19204
-7.21989
-7.24722
-7.27394
-7.29997
-7.32524
-7.34964
-7.37309
-7.39549
-7.41673
-7.43671
-7.45531
-7.47242
-7.48791
-7.50165
-7.51353
-7.52339
-7.53111
-7.53654
-7.53954
-7.53996
-7.53764
-7.53244
-7.5242
-7.51275
-7.49796
-7.47964
-7.45764
-7.43181
-7.40197
-7.36798
-7.32966
-7.28686
-7.23942
-7.1872
-7.13004
-7.06778
-7.00026
-6.9273
-6.84874
-6.76448
-6.67439
-6.57837
-6.47633
-6.36818
-6.25384
-6.13323
-6.00631
-5.87303
-5.73337
-5.58729
-5.4348
-5.27591
-5.11062
-4.93896
-4.76099
-4.57674
-4.38628
-4.18968
-3.98701
-3.77837
-3.56383
-3.3435
-3.11749
-2.88589
-2.64881
-2.40636
-2.15866
-1.90581
-1.64793
-1.38514
-1.11754
-0.84526
-0.56841
-0.287109
-0.0014752
0.288371
0.582305
0.880199
1.18192
1.48733
1.79628
2.10862
2.42418
2.7428
3.06429
3.38844
3.71506
4.0439
4.37472
4.70725
5.04119
5.37622
5.712
6.04815
6.38426
6.71989
7.05456
7.38777
7.71897
8.04758
8.37301
8.69463
9.01179
9.32384
9.63011
9.92995
10.2227
10.5078
10.7845
11.0524
11.3109
11.5595
11.7978
12.0256
12.2424
12.4481
12.6427
12.826
12.9981
13.1591
13.3092
13.4485
13.5774
13.696
13.8046
13.9033
13.9923
14.0712
14.1401
14.1953
14.2484
14.2374
-6.30468
-6.31404
-6.32451
-6.33362
-6.34102
-6.34718
-6.3525
-6.35732
-6.3619
-6.36652
-6.37138
-6.3767
-6.38265
-6.3894
-6.39708
-6.40584
-6.41577
-6.42697
-6.4395
-6.45342
-6.46874
-6.48547
-6.50358
-6.52304
-6.54379
-6.56577
-6.5889
-6.6131
-6.63827
-6.66434
-6.69121
-6.71878
-6.74697
-6.7757
-6.80487
-6.83442
-6.86425
-6.89431
-6.92451
-6.95479
-6.98508
-7.01532
-7.04543
-7.07535
-7.10502
-7.13438
-7.16335
-7.19187
-7.21987
-7.24727
-7.27401
-7.3
-7.32516
-7.34941
-7.37266
-7.3948
-7.41574
-7.43539
-7.45362
-7.47033
-7.48539
-7.49869
-7.51009
-7.51948
-7.5267
-7.53163
-7.53413
-7.53404
-7.53122
-7.52552
-7.51678
-7.50486
-7.48959
-7.47081
-7.44837
-7.42211
-7.39186
-7.35746
-7.31877
-7.27561
-7.22784
-7.17529
-7.11779
-7.05514
-6.98718
-6.91376
-6.83475
-6.75006
-6.65955
-6.56314
-6.46073
-6.35223
-6.23756
-6.11666
-5.98948
-5.85597
-5.71611
-5.56988
-5.41728
-5.25831
-5.093
-4.92138
-4.74348
-4.55937
-4.3691
-4.17275
-3.9704
-3.76212
-3.54803
-3.3282
-3.10274
-2.87177
-2.63537
-2.39367
-2.14676
-1.89476
-1.63778
-1.37593
-1.10932
-0.838048
-0.56224
-0.282002
0.00255219
0.291308
0.584148
0.88095
1.18159
1.48592
1.79383
2.10514
2.41972
2.73739
3.05797
3.38127
3.70709
4.0352
4.36535
4.69729
5.03071
5.36531
5.70075
6.03665
6.37259
6.70816