/*--------------------------------*- C++ -*----------------------------------*\
  =========                 |
  \\      /  F ield         | OpenFOAM: The Open Source CFD Toolbox
   \\    /   O peration     | Website:  https://openfoam.org
    \\  /    A nd           | Version:  12
     \\/     M anipulation  |
\*---------------------------------------------------------------------------*/
FoamFile
{
    format      ascii;
    class       surfaceScalarField;
    location    "0.09";
    object      phi;
}
// * * * * * * * * * * * * * * * * * * * * * * * * * * * * * * * * * * * * * //

dimensions      [0 3 -1 0 0 0 0];

internalField   nonuniform List<scalar> 
24170
(
3.13359e-06
5.48155e-08
3.04824e-06
8.53503e-08
2.97308e-06
7.5162e-08
2.90419e-06
6.88883e-08
2.83929e-06
6.49001e-08
2.78198e-06
5.73097e-08
2.73297e-06
4.90094e-08
2.69131e-06
4.16599e-08
2.6557e-06
3.56077e-08
2.62497e-06
3.07337e-08
2.59813e-06
2.68439e-08
2.57434e-06
2.37843e-08
2.55289e-06
2.14529e-08
2.53301e-06
1.98789e-08
2.51393e-06
1.90833e-08
2.49333e-06
2.06009e-08
2.46965e-06
2.3671e-08
4.75384e-08
2.42212e-06
3.45361e-06
1.84543e-08
3.45616e-06
8.28055e-08
3.44959e-06
8.17241e-08
3.43795e-06
8.05355e-08
3.42342e-06
7.94258e-08
3.40583e-06
7.49011e-08
3.38613e-06
6.87044e-08
3.36515e-06
6.26469e-08
3.34364e-06
5.71191e-08
3.3222e-06
5.21684e-08
3.30123e-06
4.78098e-08
3.28095e-06
4.40669e-08
3.26145e-06
4.09506e-08
3.2427e-06
3.86319e-08
3.22474e-06
3.7044e-08
3.20736e-06
3.79809e-08
3.19158e-06
3.94551e-08
5.44781e-08
3.18464e-06
3.66535e-06
1.56218e-08
3.67824e-06
6.99191e-08
3.68528e-06
7.46845e-08
3.68953e-06
7.6285e-08
3.69116e-06
7.77929e-08
3.68997e-06
7.6086e-08
3.68646e-06
7.2223e-08
3.68118e-06
6.79265e-08
3.67456e-06
6.37373e-08
3.66694e-06
5.9781e-08
3.65861e-06
5.61431e-08
3.64976e-06
5.29196e-08
3.64052e-06
5.0188e-08
3.63099e-06
4.81627e-08
3.62113e-06
4.69088e-08
3.61144e-06
4.76658e-08
3.60143e-06
4.9466e-08
5.71914e-08
3.59872e-06
3.92464e-06
1.63667e-08
3.93578e-06
5.87827e-08
3.9425e-06
6.79654e-08
3.94794e-06
7.08442e-08
3.95231e-06
7.34264e-08
3.95517e-06
7.32236e-08
3.95665e-06
7.07418e-08
3.95704e-06
6.75323e-08
3.95654e-06
6.42452e-08
3.95527e-06
6.10474e-08
3.95337e-06
5.80438e-08
3.95093e-06
5.53541e-08
3.94804e-06
5.30874e-08
3.94475e-06
5.14462e-08
3.9411e-06
5.05594e-08
3.93763e-06
5.11382e-08
3.93435e-06
5.27425e-08
5.67656e-08
3.93478e-06
4.20776e-06
1.57325e-08
4.21598e-06
5.05674e-08
4.22161e-06
6.23283e-08
4.22651e-06
6.59499e-08
4.23116e-06
6.87761e-08
4.23505e-06
6.9328e-08
4.23807e-06
6.77216e-08
4.24035e-06
6.52542e-08
4.242e-06
6.2602e-08
4.24308e-06
5.99576e-08
4.2437e-06
5.74338e-08
4.24389e-06
5.5159e-08
4.24372e-06
5.32537e-08
4.24328e-06
5.18888e-08
4.24265e-06
5.11884e-08
4.24228e-06
5.15119e-08
4.24243e-06
5.25918e-08
5.45516e-08
4.24464e-06
4.51043e-06
1.43862e-08
4.51684e-06
4.41627e-08
4.52212e-06
5.70457e-08
4.52674e-06
6.13303e-08
4.5313e-06
6.42142e-08
4.53543e-06
6.5201e-08
4.53893e-06
6.42158e-08
4.54188e-06
6.23045e-08
4.54436e-06
6.01299e-08
4.54641e-06
5.79082e-08
4.54808e-06
5.57583e-08
4.54943e-06
5.38076e-08
4.55051e-06
5.21736e-08
4.55141e-06
5.09889e-08
4.55226e-06
5.03421e-08
4.55339e-06
5.03791e-08
4.55511e-06
5.08736e-08
5.15396e-08
4.55812e-06
4.83411e-06
1.2992e-08
4.83955e-06
3.87222e-08
4.84478e-06
5.18239e-08
4.84932e-06
5.67817e-08
4.85378e-06
5.9758e-08
4.85794e-06
6.10385e-08
4.86163e-06
6.05309e-08
4.86487e-06
5.90657e-08
4.86772e-06
5.7273e-08
4.87024e-06
5.53905e-08
4.87246e-06
5.35419e-08
4.87442e-06
5.18478e-08
4.87618e-06
5.04138e-08
4.87783e-06
4.93357e-08
4.87951e-06
4.86612e-08
4.88148e-06
4.8414e-08
4.88397e-06
4.83825e-08
4.82166e-08
4.88729e-06
5.18089e-06
1.1679e-08
5.18568e-06
3.39367e-08
5.19078e-06
4.67206e-08
5.19532e-06
5.22456e-08
5.19973e-06
5.53492e-08
5.20392e-06
5.6846e-08
5.20772e-06
5.67286e-08
5.21114e-06
5.56466e-08
5.21423e-06
5.41804e-08
5.21704e-06
5.25848e-08
5.21959e-06
5.09874e-08
5.22194e-06
4.94993e-08
5.22415e-06
4.82112e-08
5.22629e-06
4.71877e-08
5.22851e-06
4.64426e-08
5.23099e-06
4.59376e-08
5.23389e-06
4.5483e-08
4.47841e-08
5.23732e-06
5.55259e-06
1.04226e-08
5.55682e-06
2.97065e-08
5.56171e-06
4.18347e-08
5.56623e-06
4.77219e-08
5.57063e-06
5.09479e-08
5.57487e-06
5.26059e-08
5.57879e-06
5.28126e-08
5.58237e-06
5.2071e-08
5.58565e-06
5.08969e-08
5.58868e-06
4.95535e-08
5.5915e-06
4.81721e-08
5.59414e-06
4.68533e-08
5.59668e-06
4.56729e-08
5.5992e-06
4.46723e-08
5.6018e-06
4.38432e-08
5.60461e-06
4.31231e-08
5.60774e-06
4.23542e-08
4.13234e-08
5.6112e-06
5.95098e-06
9.2196e-09
5.95473e-06
2.59541e-08
5.95936e-06
3.72106e-08
5.96385e-06
4.32306e-08
5.96825e-06
4.65454e-08
5.97254e-06
4.83181e-08
5.97656e-06
4.87859e-08
5.98029e-06
4.83431e-08
5.98376e-06
4.74324e-08
5.987e-06
4.63146e-08
5.99004e-06
4.51227e-08
5.99295e-06
4.39473e-08
5.99577e-06
4.28507e-08
5.99859e-06
4.1859e-08
6.00148e-06
4.09535e-08
6.00453e-06
4.00701e-08
6.0078e-06
3.90867e-08
3.78649e-08
6.01125e-06
6.37795e-06
8.08328e-09
6.3813e-06
2.26017e-08
6.38565e-06
3.28567e-08
6.39009e-06
3.87958e-08
6.39449e-06
4.21462e-08
6.39882e-06
4.39909e-08
6.40295e-06
4.46564e-08
6.40682e-06
4.44659e-08
6.41047e-06
4.37891e-08
6.41391e-06
4.28728e-08
6.41718e-06
4.18485e-08
6.42033e-06
4.07979e-08
6.42341e-06
3.97723e-08
6.42648e-06
3.87893e-08
6.4296e-06
3.78289e-08
6.43284e-06
3.68368e-08
6.4362e-06
3.57252e-08
3.44142e-08
6.43965e-06
5.74174e-06
7.17423e-09
5.74431e-06
2.00328e-08
5.74779e-06
2.93823e-08
5.75148e-06
3.51044e-08
5.75519e-06
3.84333e-08
5.75887e-06
4.03092e-08
5.76243e-06
4.10945e-08
5.76582e-06
4.10776e-08
5.76904e-06
4.0574e-08
5.7721e-06
3.981e-08
5.77504e-06
3.89125e-08
5.77788e-06
3.79569e-08
5.78066e-06
3.6988e-08
5.78343e-06
3.60196e-08
5.78623e-06
3.50347e-08
5.78907e-06
3.39914e-08
5.79197e-06
3.28268e-08
3.14989e-08
5.79489e-06
6.99913e-06
6.20282e-09
7.00184e-06
1.73161e-08
7.0056e-06
2.56225e-08
7.00973e-06
3.0975e-08
7.01397e-06
3.41994e-08
7.01821e-06
3.60639e-08
7.02237e-06
3.69377e-08
7.02637e-06
3.70765e-08
7.0302e-06
3.67405e-08
7.03388e-06
3.61294e-08
7.03743e-06
3.5362e-08
7.04088e-06
3.4507e-08
7.04427e-06
3.36034e-08
7.04762e-06
3.26642e-08
7.05098e-06
3.16788e-08
7.05435e-06
3.06197e-08
7.05773e-06
2.94478e-08
2.81508e-08
7.06108e-06
8.53187e-06
5.17796e-09
8.53471e-06
1.44772e-08
8.53873e-06
2.16027e-08
8.54329e-06
2.64116e-08
8.54807e-06
2.94186e-08
8.55293e-06
3.12073e-08
8.55775e-06
3.212e-08
8.56245e-06
3.23801e-08
8.56699e-06
3.21945e-08
8.57139e-06
3.17301e-08
8.57566e-06
3.10932e-08
8.57982e-06
3.03455e-08
8.5839e-06
2.95218e-08
8.58793e-06
2.8636e-08
8.59192e-06
2.76855e-08
8.59589e-06
2.66573e-08
8.5998e-06
2.55319e-08
2.43178e-08
8.60364e-06
1.04003e-05
4.10968e-09
1.04032e-05
1.15318e-08
1.04075e-05
1.73387e-08
1.04125e-05
2.14162e-08
1.04178e-05
2.40638e-08
1.04234e-05
2.56874e-08
1.04289e-05
2.65704e-08
1.04344e-05
2.69e-08
1.04398e-05
2.6834e-08
1.0445e-05
2.65027e-08
1.04501e-05
2.5995e-08
1.04551e-05
2.53646e-08
1.04599e-05
2.46425e-08
1.04647e-05
2.38443e-08
1.04694e-05
2.29746e-08
1.04741e-05
2.20323e-08
1.04786e-05
2.10119e-08
1.99339e-08
1.0483e-05
1.26779e-05
3.00265e-09
1.2681e-05
8.46895e-09
1.26855e-05
1.28176e-08
1.26909e-05
1.59716e-08
1.26969e-05
1.8093e-08
1.27031e-05
1.9435e-08
1.27095e-05
2.02018e-08
1.27159e-05
2.05347e-08
1.27222e-05
2.05461e-08
1.27283e-05
2.03284e-08
1.27344e-05
1.99488e-08
1.27403e-05
1.94502e-08
1.27461e-05
1.8859e-08
1.27517e-05
1.81911e-08
1.27573e-05
1.74557e-08
1.27626e-05
1.66588e-08
1.27678e-05
1.58032e-08
1.49139e-08
1.27729e-05
1.54543e-05
1.84439e-09
1.54576e-05
5.23384e-09
1.54624e-05
7.96594e-09
1.54684e-05
9.9994e-09
1.54751e-05
1.1412e-08
1.54822e-05
1.23355e-08
1.54895e-05
1.28863e-08
1.54969e-05
1.31493e-08
1.55042e-05
1.31914e-08
1.55115e-05
1.30673e-08
1.55186e-05
1.28183e-08
1.55256e-05
1.24728e-08
1.55324e-05
1.20496e-08
1.5539e-05
1.15616e-08
1.55455e-05
1.10184e-08
1.55517e-05
1.04283e-08
1.55577e-05
9.79667e-09
9.14802e-09
1.55635e-05
1.88389e-05
5.91508e-10
1.88424e-05
1.69029e-09
1.88478e-05
2.58979e-09
1.88545e-05
3.28385e-09
1.88621e-05
3.797e-09
1.88703e-05
4.16015e-09
1.88788e-05
4.39637e-09
1.88874e-05
4.52421e-09
1.88961e-05
4.56115e-09
1.89046e-05
4.52227e-09
1.8913e-05
4.41909e-09
1.89212e-05
4.2602e-09
1.89292e-05
4.05245e-09
1.8937e-05
3.80173e-09
1.89445e-05
3.51352e-09
1.89517e-05
3.19378e-09
1.89587e-05
2.8466e-09
2.49186e-09
1.89653e-05
2.29648e-05
-8.65661e-10
2.2969e-05
-2.46934e-09
2.29753e-05
-3.75708e-09
2.29833e-05
-4.68264e-09
2.29923e-05
-5.26065e-09
2.30021e-05
-5.5767e-09
2.30122e-05
-5.72372e-09
2.30225e-05
-5.76053e-09
2.30328e-05
-5.72444e-09
2.30429e-05
-5.64746e-09
2.30529e-05
-5.55571e-09
2.30626e-05
-5.4662e-09
2.30721e-05
-5.38853e-09
2.30812e-05
-5.32789e-09
2.309e-05
-5.28671e-09
2.30985e-05
-5.26478e-09
2.31066e-05
-5.26185e-09
-5.26485e-09
2.31143e-05
1.68119e-05
-2.02125e-09
1.68151e-05
-5.73233e-09
1.68201e-05
-8.73061e-09
1.68263e-05
-1.08691e-08
1.68332e-05
-1.21948e-08
1.68406e-05
-1.2941e-08
1.68482e-05
-1.33114e-08
1.68558e-05
-1.34143e-08
1.68634e-05
-1.33249e-08
1.68709e-05
-1.31144e-08
1.68782e-05
-1.28383e-08
1.68852e-05
-1.25313e-08
1.68921e-05
-1.22145e-08
1.68986e-05
-1.19014e-08
1.6905e-05
-1.16002e-08
1.6911e-05
-1.13149e-08
1.69168e-05
-1.10477e-08
-1.07897e-08
1.69223e-05
1.46357e-05
-3.14036e-09
1.46389e-05
-8.92056e-09
1.46437e-05
-1.3601e-08
1.46497e-05
-1.68137e-08
1.46562e-05
-1.87038e-08
1.4663e-05
-1.9745e-08
1.46699e-05
-2.02395e-08
1.46768e-05
-2.03214e-08
1.46836e-05
-2.01109e-08
1.46902e-05
-1.97245e-08
1.46966e-05
-1.9242e-08
1.47028e-05
-1.87089e-08
1.47088e-05
-1.81542e-08
1.47145e-05
-1.75984e-08
1.47199e-05
-1.7054e-08
1.47251e-05
-1.65277e-08
1.47301e-05
-1.60231e-08
-1.55343e-08
1.47348e-05
1.27412e-05
-4.1984e-09
1.27444e-05
-1.21588e-08
1.27494e-05
-1.86026e-08
1.27553e-05
-2.26672e-08
1.27615e-05
-2.48914e-08
1.27678e-05
-2.61195e-08
1.27743e-05
-2.66554e-08
1.27806e-05
-2.66261e-08
1.27867e-05
-2.62234e-08
1.27926e-05
-2.56187e-08
1.27982e-05
-2.49074e-08
1.28037e-05
-2.41392e-08
1.28089e-05
-2.33486e-08
1.28138e-05
-2.25602e-08
1.28186e-05
-2.1789e-08
1.28231e-05
-2.10424e-08
1.28274e-05
-2.0324e-08
-1.96293e-08
1.28315e-05
1.10918e-05
-5.0846e-09
1.10952e-05
-1.55063e-08
1.11005e-05
-2.39383e-08
1.11063e-05
-2.85027e-08
1.11122e-05
-3.07993e-08
1.11182e-05
-3.2117e-08
1.11242e-05
-3.26039e-08
1.11299e-05
-3.23791e-08
1.11355e-05
-3.17345e-08
1.11407e-05
-3.08866e-08
1.11457e-05
-2.99327e-08
1.11505e-05
-2.89244e-08
1.11551e-05
-2.79013e-08
1.11594e-05
-2.68909e-08
1.11635e-05
-2.59081e-08
1.11674e-05
-2.49596e-08
1.11712e-05
-2.40483e-08
-2.31704e-08
1.11747e-05
9.65584e-06
-5.70661e-09
9.65938e-06
-1.90533e-08
9.66502e-06
-2.95754e-08
9.67075e-06
-3.42339e-08
9.67645e-06
-3.64973e-08
9.68215e-06
-3.78219e-08
9.68767e-06
-3.81168e-08
9.69289e-06
-3.76014e-08
9.69784e-06
-3.66835e-08
9.70254e-06
-3.55854e-08
9.70699e-06
-3.43873e-08
9.71121e-06
-3.31405e-08
9.7152e-06
-3.189e-08
9.71897e-06
-3.06651e-08
9.72254e-06
-2.94799e-08
9.72592e-06
-2.83402e-08
9.72912e-06
-2.72471e-08
-2.61954e-08
9.73215e-06
8.40544e-06
-5.7938e-09
8.40983e-06
-2.34479e-08
8.41537e-06
-3.51099e-08
8.4206e-06
-3.94661e-08
8.42608e-06
-4.19789e-08
8.43161e-06
-4.33532e-08
8.43683e-06
-4.3335e-08
8.44167e-06
-4.24362e-08
8.44618e-06
-4.11928e-08
8.4504e-06
-3.98049e-08
8.45434e-06
-3.833e-08
8.45802e-06
-3.68201e-08
8.46145e-06
-3.53232e-08
8.46465e-06
-3.38681e-08
8.46764e-06
-3.24685e-08
8.47043e-06
-3.11303e-08
8.47304e-06
-2.98539e-08
-2.86352e-08
8.47548e-06
7.31506e-06
-3.57354e-09
7.32197e-06
-3.03498e-08
7.32744e-06
-4.05864e-08
7.33225e-06
-4.42698e-08
7.3376e-06
-4.73348e-08
7.34303e-06
-4.87784e-08
7.34805e-06
-4.83544e-08
7.35259e-06
-4.6981e-08
7.3567e-06
-4.53053e-08
7.3604e-06
-4.35058e-08
7.36372e-06
-4.16416e-08
7.36667e-06
-3.97761e-08
7.36931e-06
-3.79589e-08
7.37166e-06
-3.6216e-08
7.37375e-06
-3.45589e-08
7.37561e-06
-3.29922e-08
7.37727e-06
-3.15129e-08
-3.01145e-08
7.37875e-06
6.36223e-06
4.26598e-09
6.37297e-06
-4.10892e-08
6.38011e-06
-4.7735e-08
6.38632e-06
-5.0479e-08
6.39233e-06
-5.334e-08
6.39766e-06
-5.41075e-08
6.40206e-06
-5.27602e-08
6.40569e-06
-5.06098e-08
6.40866e-06
-4.827e-08
6.411e-06
-4.58534e-08
6.41279e-06
-4.34276e-08
6.41409e-06
-4.10703e-08
6.41496e-06
-3.88301e-08
6.41547e-06
-3.67265e-08
6.41567e-06
-3.47663e-08
6.41563e-06
-3.29503e-08
6.41539e-06
-3.12702e-08
-2.97056e-08
6.41498e-06
5.53608e-06
1.3647e-08
5.54777e-06
-5.27743e-08
5.55747e-06
-5.74394e-08
5.56607e-06
-5.9071e-08
5.57286e-06
-6.01359e-08
5.57732e-06
-5.85617e-08
5.5795e-06
-5.4945e-08
5.57998e-06
-5.10867e-08
5.57917e-06
-4.74615e-08
5.57736e-06
-4.40411e-08
5.57476e-06
-4.08329e-08
5.57157e-06
-3.78746e-08
5.56792e-06
-3.51796e-08
5.56393e-06
-3.27397e-08
5.5597e-06
-3.05404e-08
5.55533e-06
-2.85785e-08
5.55091e-06
-2.6845e-08
-2.52785e-08
5.54648e-06
4.85751e-06
-1.62539e-08
4.86092e-06
-5.61817e-08
4.86152e-06
-5.80439e-08
4.85887e-06
-5.64208e-08
4.85488e-06
-5.61498e-08
4.84822e-06
-5.18939e-08
4.839e-06
-4.57241e-08
4.82778e-06
-3.98732e-08
4.81521e-06
-3.48945e-08
4.80188e-06
-3.0711e-08
4.78824e-06
-2.71866e-08
4.77458e-06
-2.42182e-08
4.76112e-06
-2.17149e-08
4.74797e-06
-1.95976e-08
4.73524e-06
-1.78033e-08
4.72298e-06
-1.63219e-08
4.71132e-06
-1.51801e-08
-1.48712e-08
4.70091e-06
4.18642e-06
4.13024e-06
4.0722e-06
4.01578e-06
3.95963e-06
3.90773e-06
3.86201e-06
3.82213e-06
3.78724e-06
3.75653e-06
3.72934e-06
3.70512e-06
3.68341e-06
3.66381e-06
3.64601e-06
3.62969e-06
3.61451e-06
3.59964e-06
1.23375e-08
-1.23375e-08
3.49655e-08
-2.2628e-08
6.02002e-08
-2.52347e-08
8.41288e-08
-2.39286e-08
1.04355e-07
-2.02259e-08
1.19448e-07
-1.50931e-08
1.28594e-07
-9.14611e-09
1.31381e-07
-2.78717e-09
1.27755e-07
3.62649e-09
1.18066e-07
9.68863e-09
1.0301e-07
1.5056e-08
8.34945e-08
1.95154e-08
6.05276e-08
2.29669e-08
3.50977e-08
2.543e-08
8.05171e-09
2.7046e-08
-2.00202e-08
2.8072e-08
-4.88926e-08
2.88723e-08
-7.87317e-08
2.98391e-08
-1.09929e-07
3.11974e-08
-1.43667e-07
3.3738e-08
-1.79227e-07
3.55597e-08
-2.16959e-07
3.77319e-08
-2.59722e-07
4.27637e-08
-3.05173e-07
4.54509e-08
-3.56067e-07
5.08942e-08
-4.1435e-07
5.82827e-08
-4.73708e-07
5.93582e-08
-5.35936e-07
6.22277e-08
-6.00844e-07
6.49077e-08
-6.63671e-07
6.2827e-08
-7.24993e-07
6.13225e-08
-7.86562e-07
6.15684e-08
-8.47371e-07
6.08095e-08
-9.06795e-07
5.94244e-08
-9.64466e-07
5.76702e-08
-1.02019e-06
5.57264e-08
-1.07391e-06
5.37161e-08
-1.12563e-06
5.17244e-08
-1.17544e-06
4.98092e-08
-1.22345e-06
4.80083e-08
-1.26979e-06
4.6344e-08
-1.31462e-06
4.48273e-08
-1.35808e-06
4.34606e-08
-1.40032e-06
4.22404e-08
-1.44148e-06
4.11589e-08
-1.48169e-06
4.02056e-08
-1.52106e-06
3.93686e-08
-1.55969e-06
3.86349e-08
-1.59768e-06
3.79915e-08
-1.63511e-06
3.74256e-08
-1.67203e-06
3.69249e-08
-1.70851e-06
3.64777e-08
-1.74458e-06
3.60731e-08
-1.78028e-06
3.57011e-08
-1.81564e-06
3.53523e-08
-1.85065e-06
3.50183e-08
-1.88535e-06
3.46916e-08
-1.91971e-06
3.43652e-08
-1.95374e-06
3.4033e-08
-1.98743e-06
3.36895e-08
-2.02076e-06
3.33298e-08
-2.05371e-06
3.29499e-08
-2.08626e-06
3.25459e-08
-2.11837e-06
3.21147e-08
-2.15003e-06
3.16536e-08
-2.18119e-06
3.11603e-08
-2.21182e-06
3.06329e-08
-2.24189e-06
3.00699e-08
-2.27136e-06
2.94701e-08
-2.30019e-06
2.88323e-08
-2.32835e-06
2.81561e-08
-2.35579e-06
2.74409e-08
-2.38248e-06
2.66864e-08
-2.40837e-06
2.58924e-08
-2.43343e-06
2.50589e-08
-2.45761e-06
2.41861e-08
-2.48089e-06
2.3274e-08
-2.50321e-06
2.23229e-08
-2.52454e-06
2.13329e-08
-2.54485e-06
2.03042e-08
-2.56409e-06
1.92369e-08
-2.58222e-06
1.81307e-08
-2.5992e-06
1.69855e-08
-2.615e-06
1.58007e-08
-2.62958e-06
1.45752e-08
-2.64288e-06
1.33074e-08
-2.65488e-06
1.19948e-08
-2.66551e-06
1.06336e-08
-2.67473e-06
9.21864e-09
-2.68247e-06
7.74089e-09
-2.68866e-06
6.18965e-09
-2.69321e-06
4.55256e-09
-2.69604e-06
2.82503e-09
-2.69704e-06
9.99979e-10
-2.69631e-06
-7.31354e-10
-2.69404e-06
-2.26412e-09
-2.6903e-06
-3.74254e-09
-2.6851e-06
-5.20378e-09
-2.67843e-06
-6.66768e-09
-2.67029e-06
-8.14172e-09
-2.66066e-06
-9.62754e-09
-2.64954e-06
-1.11249e-08
-2.6369e-06
-1.26328e-08
-2.62275e-06
-1.415e-08
-2.60708e-06
-1.56753e-08
-2.58987e-06
-1.72076e-08
-2.57112e-06
-1.87457e-08
-2.55084e-06
-2.02886e-08
-2.529e-06
-2.18355e-08
-2.50562e-06
-2.33855e-08
-2.48068e-06
-2.49378e-08
-2.45419e-06
-2.6492e-08
-2.42614e-06
-2.80474e-08
-2.39653e-06
-2.96037e-08
-2.36537e-06
-3.11605e-08
-2.33266e-06
-3.27175e-08
-2.29838e-06
-3.42747e-08
-2.26255e-06
-3.5832e-08
-2.22516e-06
-3.73891e-08
-2.18621e-06
-3.89461e-08
-2.14571e-06
-4.05028e-08
-2.10365e-06
-4.20592e-08
-2.06004e-06
-4.3615e-08
-2.01487e-06
-4.51699e-08
-1.96814e-06
-4.67237e-08
-1.91987e-06
-4.82758e-08
-1.87004e-06
-4.98256e-08
-1.81867e-06
-5.13724e-08
-1.76575e-06
-5.2915e-08
-1.7113e-06
-5.44521e-08
-1.65532e-06
-5.5982e-08
-1.59782e-06
-5.75029e-08
-1.53881e-06
-5.90122e-08
-1.4783e-06
-6.05073e-08
-1.41631e-06
-6.19848e-08
-1.35287e-06
-6.34409e-08
-1.288e-06
-6.48712e-08
-1.22173e-06
-6.62707e-08
-1.1541e-06
-6.76336e-08
-1.08514e-06
-6.89537e-08
-1.01492e-06
-7.02237e-08
-9.43484e-07
-7.14357e-08
-8.70903e-07
-7.25812e-08
-7.97252e-07
-7.36505e-08
-7.22619e-07
-7.46336e-08
-6.47099e-07
-7.55195e-08
-5.70802e-07
-7.62968e-08
-4.93849e-07
-7.69536e-08
-4.16371e-07
-7.74775e-08
-3.38516e-07
-7.78555e-08
-2.60441e-07
-7.80753e-08
-1.82314e-07
-7.81267e-08
-1.0431e-07
-7.80041e-08
-2.66373e-08
-7.76725e-08
5.05063e-08
-7.71435e-08
1.26999e-07
-7.64928e-08
2.02677e-07
-7.56779e-08
2.77382e-07
-7.47055e-08
3.50953e-07
-7.35706e-08
4.23225e-07
-7.22719e-08
4.94038e-07
-7.08134e-08
5.63241e-07
-6.92032e-08
6.30694e-07
-6.74529e-08
6.96271e-07
-6.55765e-08
7.59861e-07
-6.35904e-08
8.21373e-07
-6.15122e-08
8.80734e-07
-5.93606e-08
9.37887e-07
-5.71533e-08
9.92794e-07
-5.49066e-08
1.04543e-06
-5.26322e-08
1.09576e-06
-5.03343e-08
1.14376e-06
-4.80036e-08
1.18937e-06
-4.56067e-08
1.23244e-06
-4.30677e-08
1.27265e-06
-4.02123e-08
1.30935e-06
-3.66956e-08
1.34077e-06
-3.14278e-08
1.36308e-06
-2.23038e-08
1.36253e-06
5.46589e-10
5.92819e-08
1.30325e-06
2.47958e-08
-3.71333e-08
5.0002e-08
-4.78341e-08
6.92028e-08
-4.44355e-08
8.24465e-08
-3.71724e-08
9.0361e-08
-2.81403e-08
9.34102e-08
-1.81424e-08
9.19248e-08
-7.66073e-09
8.61933e-08
2.94436e-09
7.64305e-08
1.33893e-08
6.27452e-08
2.3374e-08
4.51814e-08
3.26198e-08
2.38099e-08
4.08869e-08
-1.26676e-09
4.80435e-08
-2.99437e-08
5.41069e-08
-6.21705e-08
5.92728e-08
-9.8006e-08
6.39074e-08
-1.3762e-07
6.84861e-08
-1.81266e-07
7.34856e-08
-2.29273e-07
7.92039e-08
-2.81163e-07
8.56288e-08
-3.38042e-07
9.24383e-08
-3.99303e-07
9.89929e-08
-4.62642e-07
1.06103e-07
-5.29847e-07
1.12656e-07
-5.97252e-07
1.183e-07
-6.62743e-07
1.23773e-07
-7.2983e-07
1.26445e-07
-7.94937e-07
1.27335e-07
-8.57192e-07
1.27163e-07
-9.19222e-07
1.24857e-07
-9.7924e-07
1.2134e-07
-1.03545e-06
1.17777e-07
-1.08859e-06
1.1395e-07
-1.13911e-06
1.09945e-07
-1.18733e-06
1.05887e-07
-1.23349e-06
1.01892e-07
-1.27783e-06
9.80524e-08
-1.32054e-06
9.44325e-08
-1.3618e-06
9.10733e-08
-1.40179e-06
8.7996e-08
-1.44065e-06
8.52063e-08
-1.47852e-06
8.26984e-08
-1.51552e-06
8.04587e-08
-1.55175e-06
7.8468e-08
-1.58729e-06
7.67041e-08
-1.62223e-06
7.51431e-08
-1.65662e-06
7.37608e-08
-1.69052e-06
7.25331e-08
-1.72397e-06
7.14368e-08
-1.75699e-06
7.04499e-08
-1.78962e-06
6.95519e-08
-1.82186e-06
6.87237e-08
-1.85374e-06
6.79476e-08
-1.88524e-06
6.72077e-08
-1.91638e-06
6.64895e-08
-1.94714e-06
6.57799e-08
-1.97752e-06
6.50669e-08
-2.00749e-06
6.43402e-08
-2.03705e-06
6.35904e-08
-2.06617e-06
6.28093e-08
-2.09483e-06
6.19898e-08
-2.12301e-06
6.11255e-08
-2.15067e-06
6.02112e-08
-2.1778e-06
5.92422e-08
-2.20436e-06
5.82147e-08
-2.23033e-06
5.71255e-08
-2.25566e-06
5.59719e-08
-2.28035e-06
5.47521e-08
-2.30434e-06
5.34642e-08
-2.32762e-06
5.21073e-08
-2.35014e-06
5.06804e-08
-2.37188e-06
4.91831e-08
-2.39281e-06
4.76152e-08
-2.4129e-06
4.59766e-08
-2.4321e-06
4.42676e-08
-2.45041e-06
4.24886e-08
-2.46777e-06
4.064e-08
-2.48417e-06
3.87223e-08
-2.49958e-06
3.67361e-08
-2.51395e-06
3.46819e-08
-2.52728e-06
3.25602e-08
-2.53952e-06
3.03714e-08
-2.55065e-06
2.81159e-08
-2.56064e-06
2.57938e-08
-2.56947e-06
2.34051e-08
-2.57711e-06
2.09496e-08
-2.58354e-06
1.8427e-08
-2.58875e-06
1.58371e-08
-2.59271e-06
1.31802e-08
-2.59543e-06
1.04577e-08
-2.59691e-06
7.67416e-09
-2.5972e-06
4.8408e-09
-2.59636e-06
1.98452e-09
-2.59449e-06
-8.67617e-10
-2.59152e-06
-3.70018e-09
-2.58728e-06
-6.51088e-09
-2.58167e-06
-9.35027e-09
-2.57465e-06
-1.22174e-08
-2.56621e-06
-1.51121e-08
-2.55632e-06
-1.80337e-08
-2.54496e-06
-2.09808e-08
-2.53214e-06
-2.3951e-08
-2.51783e-06
-2.69419e-08
-2.50203e-06
-2.99509e-08
-2.48473e-06
-3.29755e-08
-2.46592e-06
-3.60134e-08
-2.44561e-06
-3.90625e-08
-2.42377e-06
-4.21209e-08
-2.40042e-06
-4.51867e-08
-2.37555e-06
-4.82586e-08
-2.34915e-06
-5.1335e-08
-2.32123e-06
-5.44148e-08
-2.29178e-06
-5.74972e-08
-2.2608e-06
-6.05813e-08
-2.2283e-06
-6.36665e-08
-2.19426e-06
-6.67525e-08
-2.1587e-06
-6.98389e-08
-2.1216e-06
-7.29258e-08
-2.08298e-06
-7.6013e-08
-2.04282e-06
-7.91004e-08
-2.00114e-06
-8.2188e-08
-1.95792e-06
-8.52755e-08
-1.91318e-06
-8.83628e-08
-1.8669e-06
-9.14493e-08
-1.81909e-06
-9.45345e-08
-1.76974e-06
-9.76176e-08
-1.71887e-06
-1.00697e-07
-1.66647e-06
-1.03772e-07
-1.61255e-06
-1.06841e-07
-1.5571e-06
-1.09899e-07
-1.50013e-06
-1.12946e-07
-1.44166e-06
-1.15975e-07
-1.38169e-06
-1.18984e-07
-1.32023e-06
-1.21966e-07
-1.2573e-06
-1.24914e-07
-1.19292e-06
-1.27823e-07
-1.12711e-06
-1.30681e-07
-1.0599e-06
-1.33481e-07
-9.91325e-07
-1.3621e-07
-9.21423e-07
-1.38856e-07
-8.50243e-07
-1.41404e-07
-7.77839e-07
-1.4384e-07
-7.04274e-07
-1.46146e-07
-6.29622e-07
-1.48303e-07
-5.53963e-07
-1.50292e-07
-4.77391e-07
-1.52091e-07
-4.00009e-07
-1.53679e-07
-3.21932e-07
-1.55031e-07
-2.43284e-07
-1.56125e-07
-1.64204e-07
-1.56936e-07
-8.48357e-08
-1.57443e-07
-5.33486e-09
-1.57628e-07
7.41393e-08
-1.57478e-07
1.53449e-07
-1.56982e-07
2.3244e-07
-1.56134e-07
3.1091e-07
-1.54963e-07
3.88699e-07
-1.53467e-07
4.65634e-07
-1.51641e-07
5.41545e-07
-1.49482e-07
6.16263e-07
-1.46989e-07
6.89623e-07
-1.44173e-07
7.61468e-07
-1.41049e-07
8.31653e-07
-1.37638e-07
9.00044e-07
-1.33968e-07
9.66524e-07
-1.3007e-07
1.03099e-06
-1.25978e-07
1.09336e-06
-1.21729e-07
1.15356e-06
-1.17356e-07
1.21155e-06
-1.12892e-07
1.26727e-06
-1.08358e-07
1.3207e-06
-1.03765e-07
1.37179e-06
-9.90925e-08
1.42046e-06
-9.42775e-08
1.46657e-06
-8.91732e-08
1.50981e-06
-8.34581e-08
1.54961e-06
-7.6495e-08
1.58482e-06
-6.66318e-08
1.61344e-06
-5.09255e-08
1.63296e-06
-1.89776e-08
5.03385e-08
1.64191e-06
2.35446e-08
-6.0678e-08
4.04148e-08
-6.47043e-08
5.00553e-08
-5.4076e-08
5.39722e-08
-4.10892e-08
5.31899e-08
-2.7358e-08
4.83698e-08
-1.33223e-08
3.99417e-08
7.67386e-10
2.81402e-08
1.47459e-08
1.31213e-08
2.84082e-08
-5.09346e-09
4.15888e-08
-2.65833e-08
5.41096e-08
-5.15177e-08
6.58214e-08
-8.01287e-08
7.66545e-08
-1.1268e-07
8.66585e-08
-1.49425e-07
9.6018e-08
-1.90544e-07
1.05026e-07
-2.36071e-07
1.14013e-07
-2.85821e-07
1.23236e-07
-3.39359e-07
1.32742e-07
-3.96016e-07
1.42286e-07
-4.55076e-07
1.51499e-07
-5.16022e-07
1.59939e-07
-5.77296e-07
1.67376e-07
-6.38082e-07
1.73442e-07
-6.97582e-07
1.778e-07
-7.54249e-07
1.8044e-07
-8.08817e-07
1.81013e-07
-8.61151e-07
1.79669e-07
-9.108e-07
1.76812e-07
-9.58595e-07
1.72652e-07
-1.00488e-06
1.67623e-07
-1.0493e-06
1.62203e-07
-1.092e-06
1.56641e-07
-1.13314e-06
1.51089e-07
-1.17292e-06
1.45668e-07
-1.2115e-06
1.40472e-07
-1.24902e-06
1.3557e-07
-1.28559e-06
1.31004e-07
-1.32131e-06
1.26798e-07
-1.35628e-06
1.22961e-07
-1.39056e-06
1.19485e-07
-1.42422e-06
1.16356e-07
-1.45731e-06
1.13552e-07
-1.48989e-06
1.11047e-07
-1.522e-06
1.08811e-07
-1.55367e-06
1.06815e-07
-1.58494e-06
1.05029e-07
-1.61583e-06
1.03423e-07
-1.64636e-06
1.01969e-07
-1.67655e-06
1.0064e-07
-1.70641e-06
9.941e-08
-1.73594e-06
9.82563e-08
-1.76515e-06
9.7157e-08
-1.79403e-06
9.60919e-08
-1.82259e-06
9.50429e-08
-1.8508e-06
9.39936e-08
-1.87866e-06
9.29293e-08
-1.90616e-06
9.18365e-08
-1.93327e-06
9.07035e-08
-1.95998e-06
8.952e-08
-1.98627e-06
8.82767e-08
-2.01211e-06
8.69658e-08
-2.03748e-06
8.55804e-08
-2.06235e-06
8.41147e-08
-2.0867e-06
8.25638e-08
-2.1105e-06
8.09235e-08
-2.13372e-06
7.91905e-08
-2.15633e-06
7.73624e-08
-2.1783e-06
7.54369e-08
-2.1996e-06
7.34126e-08
-2.22021e-06
7.12885e-08
-2.24009e-06
6.9064e-08
-2.25922e-06
6.6739e-08
-2.27755e-06
6.43134e-08
-2.29507e-06
6.17877e-08
-2.31175e-06
5.91625e-08
-2.32755e-06
5.64385e-08
-2.34244e-06
5.36166e-08
-2.3564e-06
5.06979e-08
-2.3694e-06
4.76833e-08
-2.38142e-06
4.45741e-08
-2.39242e-06
4.13714e-08
-2.40238e-06
3.80765e-08
-2.41128e-06
3.46908e-08
-2.41909e-06
3.12156e-08
-2.42579e-06
2.76525e-08
-2.43137e-06
2.40038e-08
-2.4358e-06
2.02722e-08
-2.43908e-06
1.64619e-08
-2.4412e-06
1.25791e-08
-2.44216e-06
8.63262e-09
-2.44196e-06
4.63561e-09
-2.44057e-06
6.00618e-10
-2.43799e-06
-3.45318e-09
-2.43415e-06
-7.54011e-09
-2.42899e-06
-1.16685e-08
-2.42249e-06
-1.58494e-08
-2.41463e-06
-2.00811e-08
-2.40538e-06
-2.43598e-08
-2.39473e-06
-2.86813e-08
-2.38267e-06
-3.30414e-08
-2.36919e-06
-3.74359e-08
-2.35427e-06
-4.18607e-08
-2.33791e-06
-4.63119e-08
-2.3201e-06
-5.07857e-08
-2.30083e-06
-5.52787e-08
-2.28011e-06
-5.97878e-08
-2.25792e-06
-6.43102e-08
-2.23426e-06
-6.88433e-08
-2.20913e-06
-7.33848e-08
-2.18254e-06
-7.7933e-08
-2.15446e-06
-8.2486e-08
-2.12492e-06
-8.70426e-08
-2.0939e-06
-9.16018e-08
-2.0614e-06
-9.61626e-08
-2.02743e-06
-1.00725e-07
-1.99198e-06
-1.05288e-07
-1.95506e-06
-1.09852e-07
-1.91665e-06
-1.14417e-07
-1.87677e-06
-1.18982e-07
-1.83541e-06
-1.23549e-07
-1.79257e-06
-1.28117e-07
-1.74825e-06
-1.32685e-07
-1.70244e-06
-1.37253e-07
-1.65516e-06
-1.41821e-07
-1.60639e-06
-1.46386e-07
-1.55614e-06
-1.50949e-07
-1.5044e-06
-1.55506e-07
-1.45119e-06
-1.60055e-07
-1.39649e-06
-1.64593e-07
-1.34033e-06
-1.69113e-07
-1.28269e-06
-1.73612e-07
-1.22359e-06
-1.78082e-07
-1.16304e-06
-1.82515e-07
-1.10105e-06
-1.86902e-07
-1.03764e-06
-1.91232e-07
-9.72834e-07
-1.95491e-07
-9.06649e-07
-1.99666e-07
-8.39119e-07
-2.0374e-07
-7.70281e-07
-2.07693e-07
-7.00179e-07
-2.11506e-07
-6.28862e-07
-2.15156e-07
-5.56391e-07
-2.18617e-07
-4.82831e-07
-2.21863e-07
-4.0826e-07
-2.24863e-07
-3.32765e-07
-2.27587e-07
-2.56441e-07
-2.30003e-07
-1.79396e-07
-2.32076e-07
-1.01747e-07
-2.33774e-07
-2.36185e-08
-2.35065e-07
5.48543e-08
-2.35916e-07
1.33532e-07
-2.36305e-07
2.12274e-07
-2.3622e-07
2.90946e-07
-2.35655e-07
3.69402e-07
-2.3459e-07
4.47458e-07
-2.33019e-07
5.24931e-07
-2.30939e-07
6.01642e-07
-2.28352e-07
6.77417e-07
-2.25257e-07
7.52086e-07
-2.21659e-07
8.25485e-07
-2.17573e-07
8.97459e-07
-2.13022e-07
9.67861e-07
-2.08039e-07
1.03656e-06
-2.02663e-07
1.10342e-06
-1.96938e-07
1.16836e-06
-1.90915e-07
1.23128e-06
-1.84646e-07
1.2921e-06
-1.7818e-07
1.35078e-06
-1.71565e-07
1.40725e-06
-1.64834e-07
1.46149e-06
-1.57999e-07
1.51343e-06
-1.51037e-07
1.56301e-06
-1.43858e-07
1.61009e-06
-1.36257e-07
1.65444e-06
-1.27808e-07
1.69563e-06
-1.17676e-07
1.73299e-06
-1.03993e-07
1.76551e-06
-8.34454e-08
1.79366e-06
-4.71301e-08
2.09107e-08
1.82309e-06
1.44086e-08
-7.50866e-08
1.92649e-08
-6.95605e-08
1.90202e-08
-5.38314e-08
1.49342e-08
-3.70032e-08
7.53935e-09
-1.99632e-08
-2.86078e-09
-2.92218e-09
-1.61067e-08
1.40133e-08
-3.21192e-08
3.07584e-08
-5.0931e-08
4.72199e-08
-7.2634e-08
6.32918e-08
-9.73877e-08
7.88633e-08
-1.25407e-07
9.38405e-08
-1.56927e-07
1.08174e-07
-1.92151e-07
1.21883e-07
-2.31183e-07
1.3505e-07
-2.73954e-07
1.47796e-07
-3.2016e-07
1.6022e-07
-3.69246e-07
1.72321e-07
-4.2045e-07
1.83946e-07
-4.72949e-07
1.94784e-07
-5.25905e-07
2.04455e-07
-5.7858e-07
2.12613e-07
-6.30199e-07
2.18995e-07
-6.80164e-07
2.23407e-07
-7.28145e-07
2.25781e-07
-7.73863e-07
2.26159e-07
-8.17483e-07
2.24632e-07
-8.59262e-07
2.21448e-07
-8.99397e-07
2.16948e-07
-9.3822e-07
2.11475e-07
-9.75984e-07
2.05387e-07
-1.01278e-06
1.99002e-07
-1.04869e-06
1.92544e-07
-1.08377e-06
1.86175e-07
-1.11812e-06
1.80013e-07
-1.15179e-06
1.74144e-07
-1.18484e-06
1.68624e-07
-1.21733e-06
1.6349e-07
-1.24929e-06
1.58758e-07
-1.28076e-06
1.5443e-07
-1.31177e-06
1.50495e-07
-1.34235e-06
1.46937e-07
-1.37253e-06
1.4373e-07
-1.40232e-06
1.40845e-07
-1.43177e-06
1.38252e-07
-1.46087e-06
1.35918e-07
-1.48965e-06
1.33811e-07
-1.51813e-06
1.31897e-07
-1.5463e-06
1.30146e-07
-1.57419e-06
1.28527e-07
-1.60179e-06
1.27012e-07
-1.62911e-06
1.25575e-07
-1.65614e-06
1.24189e-07
-1.68288e-06
1.22834e-07
-1.70933e-06
1.21486e-07
-1.73546e-06
1.20128e-07
-1.76127e-06
1.18742e-07
-1.78675e-06
1.17313e-07
-1.81187e-06
1.15826e-07
-1.83662e-06
1.14269e-07
-1.86098e-06
1.12631e-07
-1.88491e-06
1.10903e-07
-1.90841e-06
1.09077e-07
-1.93144e-06
1.07145e-07
-1.95398e-06
1.05102e-07
-1.976e-06
1.02943e-07
-1.99747e-06
1.00664e-07
-2.01837e-06
9.82615e-08
-2.03867e-06
9.57331e-08
-2.05833e-06
9.30772e-08
-2.07734e-06
9.02924e-08
-2.09565e-06
8.73781e-08
-2.11325e-06
8.43341e-08
-2.13009e-06
8.11606e-08
-2.14616e-06
7.7858e-08
-2.16143e-06
7.44273e-08
-2.17586e-06
7.08695e-08
-2.18943e-06
6.71858e-08
-2.20211e-06
6.33779e-08
-2.21387e-06
5.94473e-08
-2.22469e-06
5.53959e-08
-2.23455e-06
5.12256e-08
-2.24341e-06
4.69385e-08
-2.25126e-06
4.2537e-08
-2.25806e-06
3.80237e-08
-2.26381e-06
3.34017e-08
-2.26848e-06
2.86744e-08
-2.27206e-06
2.38464e-08
-2.27452e-06
1.89232e-08
-2.27585e-06
1.39116e-08
-2.27604e-06
8.82001e-09
-2.27506e-06
3.65753e-09
-2.27289e-06
-1.56779e-09
-2.2695e-06
-6.85014e-09
-2.26484e-06
-1.21948e-08
-2.2589e-06
-1.76087e-08
-2.25166e-06
-2.30942e-08
-2.24309e-06
-2.86474e-08
-2.23319e-06
-3.42632e-08
-2.22193e-06
-3.99354e-08
-2.20932e-06
-4.56581e-08
-2.19533e-06
-5.14255e-08
-2.17995e-06
-5.72319e-08
-2.16319e-06
-6.30722e-08
-2.14504e-06
-6.89414e-08
-2.12548e-06
-7.48351e-08
-2.10452e-06
-8.07491e-08
-2.08215e-06
-8.66797e-08
-2.05837e-06
-9.26238e-08
-2.03318e-06
-9.85784e-08
-2.00657e-06
-1.04541e-07
-1.97855e-06
-1.1051e-07
-1.94911e-06
-1.16483e-07
-1.91825e-06
-1.22459e-07
-1.88597e-06
-1.28437e-07
-1.85228e-06
-1.34416e-07
-1.81717e-06
-1.40397e-07
-1.78065e-06
-1.46379e-07
-1.7427e-06