/*--------------------------------*- C++ -*----------------------------------*\
  =========                 |
  \\      /  F ield         | OpenFOAM: The Open Source CFD Toolbox
   \\    /   O peration     | Website:  https://openfoam.org
    \\  /    A nd           | Version:  12
     \\/     M anipulation  |
\*---------------------------------------------------------------------------*/
FoamFile
{
    format      ascii;
    class       volVectorField;
    location    "0.09";
    object      U;
}
// * * * * * * * * * * * * * * * * * * * * * * * * * * * * * * * * * * * * * //

dimensions      [0 1 -1 0 0 0 0];

internalField   nonuniform List<vector> 
12225
(
(9.86106 -0.874315 0)
(9.67242 -0.700182 0)
(9.45882 -0.387572 0)
(9.22437 -0.188449 0)
(9.003 -0.0843584 0)
(8.80967 -0.0328299 0)
(8.64408 -0.00748992 0)
(8.50271 0.00510424 0)
(8.38206 0.0114399 0)
(8.2786 0.0146078 0)
(8.18889 0.0161476 0)
(8.11001 0.0168823 0)
(8.03945 0.0172675 0)
(7.97526 0.017632 0)
(7.91401 0.01818 0)
(7.85677 0.0200581 0)
(7.77781 0.0234007 0)
(7.75099 0.0394221 0)
(10.0547 0.263075 0)
(10.1201 0.360757 0)
(10.118 0.27385 0)
(10.0825 0.187136 0)
(10.0403 0.131225 0)
(9.99359 0.0970109 0)
(9.93962 0.0756681 0)
(9.87968 0.0618947 0)
(9.81684 0.0525328 0)
(9.75358 0.0457746 0)
(9.69132 0.040685 0)
(9.63086 0.0368177 0)
(9.57253 0.033939 0)
(9.51672 0.0320932 0)
(9.46235 0.0311638 0)
(9.41264 0.0334413 0)
(9.35823 0.0360419 0)
(9.33681 0.0633806 0)
(9.99918 0.0460945 0)
(10.0244 0.034235 0)
(10.0538 0.0149942 0)
(10.0706 0.0218807 0)
(10.0776 0.0367688 0)
(10.0779 0.0461355 0)
(10.0717 0.0501139 0)
(10.0595 0.0513533 0)
(10.0429 0.0513228 0)
(10.0233 0.0506904 0)
(10.0013 0.0498374 0)
(9.97779 0.0490286 0)
(9.95299 0.0484398 0)
(9.92739 0.0483815 0)
(9.90078 0.0489771 0)
(9.87444 0.0520349 0)
(9.84711 0.0565525 0)
(9.82719 0.0728878 0)
(9.99679 0.00643793 0)
(10.0085 0.0250505 0)
(10.0342 0.0389945 0)
(10.0527 0.0503871 0)
(10.0641 0.0572276 0)
(10.0727 0.059326 0)
(10.0784 0.0590661 0)
(10.0809 0.0582117 0)
(10.0806 0.0572899 0)
(10.0782 0.0563845 0)
(10.0741 0.0555612 0)
(10.0686 0.054929 0)
(10.0617 0.0546108 0)
(10.0538 0.0548777 0)
(10.045 0.0559389 0)
(10.0359 0.0590086 0)
(10.0271 0.0637309 0)
(10.0218 0.0737324 0)
(9.99922 0.00675098 0)
(10.0081 0.033617 0)
(10.027 0.0461192 0)
(10.0417 0.0509573 0)
(10.0522 0.0540697 0)
(10.0618 0.0557104 0)
(10.0703 0.0561212 0)
(10.0767 0.0560179 0)
(10.0813 0.055753 0)
(10.0844 0.0554277 0)
(10.0864 0.0551306 0)
(10.0874 0.0549907 0)
(10.0874 0.0551527 0)
(10.0866 0.0558608 0)
(10.0853 0.0573434 0)
(10.084 0.0603025 0)
(10.0835 0.0645559 0)
(10.0856 0.0709069 0)
(10.0002 0.00909165 0)
(10.0078 0.0321794 0)
(10.0224 0.0420059 0)
(10.0349 0.0458046 0)
(10.0445 0.049317 0)
(10.0538 0.0519164 0)
(10.0625 0.0531325 0)
(10.0698 0.053581 0)
(10.0757 0.0537445 0)
(10.0807 0.0537976 0)
(10.0848 0.0538474 0)
(10.0881 0.054026 0)
(10.0908 0.0544782 0)
(10.093 0.0554056 0)
(10.0948 0.0569955 0)
(10.0969 0.059608 0)
(10.0998 0.063069 0)
(10.1048 0.0672457 0)
(10.0003 0.00882228 0)
(10.0067 0.0275846 0)
(10.0189 0.0371972 0)
(10.0301 0.0419084 0)
(10.0392 0.0458912 0)
(10.0479 0.0487901 0)
(10.0561 0.0502906 0)
(10.0634 0.0509962 0)
(10.0696 0.0514005 0)
(10.0752 0.0516867 0)
(10.08 0.0519569 0)
(10.0843 0.0523334 0)
(10.0882 0.0529483 0)
(10.0917 0.053956 0)
(10.0951 0.0554839 0)
(10.0987 0.0576819 0)
(10.1032 0.0603536 0)
(10.1091 0.0631015 0)
(10.0004 0.00786353 0)
(10.0057 0.023774 0)
(10.016 0.0335042 0)
(10.0263 0.0387846 0)
(10.0349 0.0427517 0)
(10.0429 0.0456307 0)
(10.0507 0.047288 0)
(10.0578 0.048195 0)
(10.064 0.0487845 0)
(10.0697 0.0492408 0)
(10.0748 0.0496655 0)
(10.0796 0.0501704 0)
(10.0839 0.0508685 0)
(10.0881 0.0518706 0)
(10.0923 0.0532477 0)
(10.0967 0.0550266 0)
(10.1018 0.0570009 0)
(10.1079 0.0587626 0)
(10.0004 0.00698185 0)
(10.0049 0.0207998 0)
(10.0135 0.0301917 0)
(10.0228 0.0356291 0)
(10.031 0.0394956 0)
(10.0386 0.0423523 0)
(10.0459 0.0441582 0)
(10.0528 0.0452447 0)
(10.0589 0.0459841 0)
(10.0646 0.046568 0)
(10.0698 0.0471012 0)
(10.0748 0.0476828 0)
(10.0794 0.0484051 0)
(10.0839 0.0493421 0)
(10.0885 0.0505208 0)
(10.0933 0.0519041 0)
(10.0986 0.0532973 0)
(10.1045 0.0543709 0)
(10.0004 0.00619943 0)
(10.0042 0.0182274 0)
(10.0115 0.0269762 0)
(10.0198 0.0323974 0)
(10.0275 0.0361979 0)
(10.0347 0.0390348 0)
(10.0416 0.0409456 0)
(10.0482 0.0421701 0)
(10.0543 0.0430253 0)
(10.0599 0.0437031 0)
(10.0651 0.0443085 0)
(10.0701 0.044927 0)
(10.0749 0.0456309 0)
(10.0796 0.0464657 0)
(10.0844 0.0474301 0)
(10.0894 0.0484604 0)
(10.0946 0.0493897 0)
(10.1003 0.0499816 0)
(10.0003 0.00546695 0)
(10.0036 0.0159177 0)
(10.0098 0.0239117 0)
(10.0172 0.0291987 0)
(10.0243 0.0329173 0)
(10.0311 0.0356977 0)
(10.0377 0.0376532 0)
(10.044 0.0389698 0)
(10.05 0.0399091 0)
(10.0555 0.0406518 0)
(10.0608 0.0412993 0)
(10.0658 0.0419241 0)
(10.0706 0.0425809 0)
(10.0754 0.0432957 0)
(10.0803 0.0440515 0)
(10.0852 0.0447815 0)
(10.0904 0.0453528 0)
(10.0958 0.0456099 0)
(10.0003 0.00481841 0)
(10.0031 0.0139842 0)
(10.0085 0.0212568 0)
(10.0151 0.0263187 0)
(10.0218 0.0299181 0)
(10.0282 0.0326122 0)
(10.0345 0.0345623 0)
(10.0406 0.0359239 0)
(10.0464 0.0369111 0)
(10.0518 0.0376876 0)
(10.057 0.0383488 0)
(10.062 0.0389566 0)
(10.0669 0.0395529 0)
(10.0718 0.0401517 0)
(10.0766 0.0407313 0)
(10.0815 0.0412323 0)
(10.0865 0.0415535 0)
(10.0916 0.0415985 0)
(10.0003 0.00421567 0)
(10.0027 0.012228 0)
(10.0074 0.0187608 0)
(10.0133 0.0235065 0)
(10.0195 0.0269432 0)
(10.0256 0.029526 0)
(10.0316 0.031435 0)
(10.0374 0.0328074 0)
(10.0431 0.0338168 0)
(10.0484 0.0346058 0)
(10.0536 0.035262 0)
(10.0586 0.0358386 0)
(10.0635 0.0363675 0)
(10.0683 0.0368561 0)
(10.073 0.0372829 0)
(10.0778 0.0375999 0)
(10.0827 0.0377328 0)
(10.0875 0.0376289 0)
(10.0003 0.00358763 0)
(10.0024 0.0104012 0)
(10.0064 0.0160873 0)
(10.0116 0.0203857 0)
(10.0173 0.0235717 0)
(10.023 0.0259841 0)
(10.0287 0.0277992 0)
(10.0343 0.0291385 0)
(10.0397 0.030137 0)
(10.0449 0.0309119 0)
(10.05 0.0315396 0)
(10.055 0.0320648 0)
(10.0598 0.0325114 0)
(10.0645 0.0328832 0)
(10.0692 0.0331628 0)
(10.0739 0.0333165 0)
(10.0785 0.0332952 0)
(10.0831 0.0330799 0)
(10.0002 0.00293248 0)
(10.002 0.00850197 0)
(10.0055 0.0132452 0)
(10.0101 0.0169609 0)
(10.0152 0.0197858 0)
(10.0205 0.0219486 0)
(10.0258 0.0236013 0)
(10.0311 0.0248471 0)
(10.0364 0.0257869 0)
(10.0415 0.0265103 0)
(10.0464 0.0270794 0)
(10.0513 0.0275304 0)
(10.056 0.0278815 0)
(10.0607 0.0281356 0)
(10.0652 0.0282818 0)
(10.0697 0.0283006 0)
(10.0741 0.028164 0)
(10.0784 0.0278762 0)
(10.0002 0.00225008 0)
(10.0017 0.00652962 0)
(10.0047 0.0102373 0)
(10.0087 0.0132298 0)
(10.0134 0.0155634 0)
(10.0182 0.0173759 0)
(10.0232 0.0187799 0)
(10.0283 0.0198556 0)
(10.0333 0.0206737 0)
(10.0382 0.0212971 0)
(10.043 0.0217715 0)
(10.0478 0.0221245 0)
(10.0524 0.0223698 0)
(10.0569 0.022511 0)
(10.0613 0.0225438 0)
(10.0656 0.02246 0)
(10.0698 0.022247 0)
(10.0738 0.021922 0)
(10.0002 0.00153661 0)
(10.0015 0.00446547 0)
(10.0041 0.00703756 0)
(10.0077 0.00916396 0)
(10.0118 0.010862 0)
(10.0164 0.0122033 0)
(10.0211 0.0132561 0)
(10.0258 0.0140721 0)
(10.0306 0.0146949 0)
(10.0354 0.0151623 0)
(10.04 0.0155029 0)
(10.0446 0.0157348 0)
(10.0491 0.0158675 0)
(10.0534 0.0159046 0)
(10.0576 0.0158463 0)
(10.0617 0.0156914 0)
(10.0657 0.015436 0)
(10.0695 0.0151026 0)
(10.0001 0.000773423 0)
(10.0013 0.00225071 0)
(10.0037 0.00356197 0)
(10.0069 0.00466871 0)
(10.0108 0.00557544 0)
(10.0151 0.00630822 0)
(10.0195 0.00689288 0)
(10.0241 0.00734978 0)
(10.0287 0.00769636 0)
(10.0332 0.00794751 0)
(10.0378 0.0081142 0)
(10.0422 0.00820316 0)
(10.0465 0.00821797 0)
(10.0507 0.00816031 0)
(10.0547 0.00803096 0)
(10.0586 0.00783136 0)
(10.0624 0.00756091 0)
(10.066 0.00724139 0)
(10.0001 -8.73799e-05 0)
(10.0013 -0.000250456 0)
(10.0035 -0.000384787 0)
(10.0067 -0.000475664 0)
(10.0105 -0.000519002 0)
(10.0146 -0.000527717 0)
(10.019 -0.00052064 0)
(10.0234 -0.000511712 0)
(10.0279 -0.000510163 0)
(10.0324 -0.000524182 0)
(10.0368 -0.000561645 0)
(10.0411 -0.000629199 0)
(10.0453 -0.000731886 0)
(10.0493 -0.000873297 0)
(10.0532 -0.00105572 0)
(10.057 -0.00127956 0)
(10.0606 -0.00154609 0)
(10.0641 -0.00183866 0)
(10.0002 -0.000917397 0)
(10.0014 -0.00266918 0)
(10.0038 -0.00420819 0)
(10.0072 -0.00545072 0)
(10.0112 -0.00638937 0)
(10.0155 -0.00708505 0)
(10.02 -0.00760457 0)
(10.0245 -0.00799337 0)
(10.0291 -0.00828653 0)
(10.0336 -0.00851687 0)
(10.038 -0.00871196 0)
(10.0422 -0.00889159 0)
(10.0464 -0.00906945 0)
(10.0503 -0.0092554 0)
(10.0542 -0.00945637 0)
(10.0579 -0.00967633 0)
(10.0614 -0.00991878 0)
(10.0647 -0.0101727 0)
(10.0002 -0.00163755 0)
(10.0015 -0.00479126 0)
(10.0042 -0.00756256 0)
(10.008 -0.00974686 0)
(10.0124 -0.0113588 0)
(10.017 -0.0125545 0)
(10.0217 -0.0134519 0)
(10.0265 -0.0141103 0)
(10.0312 -0.0145847 0)
(10.0358 -0.0149345 0)
(10.0402 -0.0152076 0)
(10.0445 -0.0154351 0)
(10.0487 -0.0156375 0)
(10.0526 -0.0158296 0)
(10.0565 -0.0160219 0)
(10.0601 -0.0162208 0)
(10.0636 -0.0164312 0)
(10.0669 -0.0166457 0)
(10.0002 -0.00232564 0)
(10.0017 -0.0068984 0)
(10.0049 -0.0109293 0)
(10.0093 -0.0139595 0)
(10.0142 -0.0160821 0)
(10.0192 -0.0176346 0)
(10.0242 -0.0187972 0)
(10.0292 -0.0196343 0)
(10.0341 -0.0202186 0)
(10.0388 -0.0206332 0)
(10.0434 -0.02094 0)
(10.0477 -0.0211781 0)
(10.0519 -0.0213741 0)
(10.0559 -0.0215481 0)
(10.0597 -0.0217136 0)
(10.0633 -0.021879 0)
(10.0668 -0.0220498 0)
(10.0701 -0.0222211 0)
(10.0002 -0.00296702 0)
(10.0019 -0.00902467 0)
(10.0056 -0.01434 0)
(10.0109 -0.0181269 0)
(10.0165 -0.0206878 0)
(10.0219 -0.0225226 0)
(10.0273 -0.0238259 0)
(10.0325 -0.0247037 0)
(10.0377 -0.0252939 0)
(10.0425 -0.0257085 0)
(10.0472 -0.0260081 0)
(10.0516 -0.0262283 0)
(10.0558 -0.0263982 0)
(10.0598 -0.026541 0)
(10.0636 -0.026672 0)
(10.0672 -0.0268 0)
(10.0707 -0.0269304 0)
(10.0739 -0.0270601 0)
(10.0001 -0.00354839 0)
(10.0019 -0.0114713 0)
(10.0065 -0.0178195 0)
(10.0128 -0.0219004 0)
(10.0191 -0.0248363 0)
(10.025 -0.0270884 0)
(10.0307 -0.0285812 0)
(10.0363 -0.0294444 0)
(10.0416 -0.0299552 0)
(10.0466 -0.0302919 0)
(10.0513 -0.030521 0)
(10.0558 -0.0306748 0)
(10.0601 -0.0307833 0)
(10.0641 -0.0308702 0)
(10.0679 -0.0309496 0)
(10.0715 -0.0310287 0)
(10.0749 -0.0311112 0)
(10.0781 -0.0311931 0)
(9.99997 -0.00367332 0)
(10.0018 -0.0151294 0)
(10.0077 -0.0225655 0)
(10.0149 -0.0258601 0)
(10.0215 -0.0283868 0)
(10.0279 -0.0308115 0)
(10.0343 -0.0325515 0)
(10.0404 -0.0335519 0)
(10.046 -0.0341138 0)
(10.0511 -0.0344466 0)
(10.056 -0.0346339 0)
(10.0605 -0.0347248 0)
(10.0647 -0.0347618 0)
(10.0687 -0.0347748 0)
(10.0724 -0.0347805 0)
(10.0758 -0.0347875 0)
(10.079 -0.0347993 0)
(10.082 -0.0348137 0)
(9.99898 -0.00129699 0)
(10 -0.0179363 0)
(10.0085 -0.0290048 0)
(10.0175 -0.0326013 0)
(10.0245 -0.0339967 0)
(10.0314 -0.0351937 0)
(10.0385 -0.0361107 0)
(10.0452 -0.0367229 0)
(10.0512 -0.037143 0)
(10.0565 -0.0374116 0)
(10.0613 -0.0375433 0)
(10.0655 -0.0375746 0)
(10.0694 -0.0375468 0)
(10.0728 -0.0374897 0)
(10.0758 -0.0374217 0)
(10.0785 -0.0373543 0)
(10.0809 -0.037291 0)
(10.083 -0.0372311 0)
(9.99528 0.00387752 0)
(9.99335 -0.0102869 0)
(10.0071 -0.0270616 0)
(10.0213 -0.0388642 0)
(10.0312 -0.04478 0)
(10.0394 -0.0463636 0)
(10.0469 -0.045857 0)
(10.0533 -0.0448767 0)
(10.0585 -0.043978 0)
(10.0626 -0.0431823 0)
(10.0658 -0.0424463 0)
(10.0682 -0.0417673 0)
(10.0699 -0.0411519 0)
(10.071 -0.0405998 0)
(10.0715 -0.0401088 0)
(10.0717 -0.0396781 0)
(10.0714 -0.0392982 0)
(10.0709 -0.0389422 0)
(9.99144 -0.0172877 0)
(9.9919 0.00038308 0)
(10.01 0.017695 0)
(10.0296 0.0116317 0)
(10.0443 -0.00504751 0)
(10.0543 -0.0187476 0)
(10.0602 -0.0270794 0)
(10.0626 -0.0319421 0)
(10.0621 -0.034809 0)
(10.0596 -0.0363999 0)
(10.0555 -0.0371625 0)
(10.0502 -0.037422 0)
(10.044 -0.0373915 0)
(10.0371 -0.0372006 0)
(10.0297 -0.0369332 0)
(10.0219 -0.0366504 0)
(10.0139 -0.0364078 0)
(10.0059 -0.0361741 0)
(10.0235 -0.206003 0)
(10.0684 -0.312326 0)
(10.0789 -0.255571 0)
(10.0704 -0.184146 0)
(10.0606 -0.134861 0)
(10.05 -0.102676 0)
(10.0344 -0.0811061 0)
(10.0132 -0.0665506 0)
(9.98817 -0.05655 0)
(9.96103 -0.0493856 0)
(9.93292 -0.0440202 0)
(9.90454 -0.039864 0)
(9.87636 -0.036559 0)
(9.84874 -0.0338724 0)
(9.8219 -0.0316562 0)
(9.79596 -0.0298471 0)
(9.77117 -0.0284147 0)
(9.74754 -0.0276754 0)
(9.94227 0.671597 0)
(9.87998 0.567462 0)
(9.77452 0.33848 0)
(9.63252 0.183339 0)
(9.48788 0.0949273 0)
(9.35687 0.0471083 0)
(9.24142 0.0213286 0)
(9.14005 0.00711244 0)
(9.05125 -0.000941721 0)
(8.97342 -0.00557796 0)
(8.90481 -0.00826245 0)
(8.84391 -0.00982031 0)
(8.78944 -0.0107218 0)
(8.74044 -0.0112357 0)
(8.69607 -0.0115229 0)
(8.65562 -0.011708 0)
(8.61825 -0.0118849 0)
(8.58356 -0.0124148 0)
(0.00483147 -0.00448338 -3.25478e-20)
(0.0207858 -0.0195965 3.08263e-20)
(0.0419487 -0.0274872 0)
(0.0644533 -0.0296155 0)
(0.0845136 -0.0273367 0)
(0.100456 -0.0221043 -2.67891e-20)
(0.111414 -0.0150393 0)
(0.116925 -0.00691702 0)
(0.116642 0.00158959 0)
(0.110623 0.00972737 0)
(0.0994881 0.0168369 2.47722e-20)
(0.0839471 0.0224858 0)
(0.0648465 0.0264551 0)
(0.0431007 0.0287173 0)
(0.0195606 0.0294589 0)
(-0.00512244 0.0291015 2.33468e-20)
(-0.0306184 0.0282979 0)
(-0.0568938 0.0278771 0)
(-0.0842952 0.0283234 0)
(-0.112174 0.0316533 0)
(-0.14324 0.0294948 0)
(-0.178028 0.0299058 0)
(-0.211444 0.0394785 0)
(-0.251882 0.0386986 2.24397e-20)
(-0.29697 0.0499947 -2.17892e-20)
(-0.342071 0.0654149 2.24791e-20)
(-0.399191 0.0608623 2.20421e-20)
(-0.454205 0.0691071 0)
(-0.508645 0.0772949 0)
(-0.567899 0.065578 -2.08801e-20)
(-0.625243 0.0564097 -2.1218e-20)
(-0.680269 0.0566182 0)
(-0.735757 0.0558823 0)
(-0.790383 0.0543969 -2.0189e-20)
(-0.843609 0.0524716 0)
(-0.895205 0.0503207 0)
(-0.945061 0.0480897 1.93656e-20)
(-0.993161 0.045878 0)
(-1.03955 0.0437518 1.8907e-20)
(-1.08431 0.0417535 3.73973e-20)
(-1.12757 0.0399069 0)
(-1.16944 0.0382231 0)
(-1.21007 0.0367035 0)
(-1.24958 0.035343 0)
(-1.28811 0.0341322 0)
(-1.32577 0.033059 3.5284e-20)
(-1.36267 0.03211 3.4975e-20)
(-1.39892 0.031271 3.46738e-20)
(-1.4346 0.0305283 0)
(-1.46978 0.0298684 -3.40905e-20)
(-1.50454 0.0292787 0)
(-1.53891 0.0287474 3.35265e-20)
(-1.57296 0.0282637 3.32498e-20)
(-1.6067 0.0278178 0)
(-1.64018 0.027401 0)
(-1.67339 0.0270054 0)
(-1.70636 0.0266239 3.21639e-20)
(-1.73909 0.0262505 0)
(-1.77157 0.0258797 0)
(-1.8038 0.025507 0)
(-1.83576 0.0251284 0)
(-1.86743 0.0247404 0)
(-1.89881 0.0243402 0)
(-1.92985 0.0239254 0)
(-1.96055 0.0234943 0)
(-1.99086 0.0230451 -2.97163e-20)
(-2.02075 0.0225768 0)
(-2.0502 0.0220885 0)
(-2.07918 0.0215797 2.88598e-20)
(-2.10763 0.0210499 2.85664e-20)
(-2.13554 0.0204991 0)
(-2.16286 0.0199271 -2.79654e-20)
(-2.18955 0.0193343 2.76569e-20)
(-2.21559 0.0187208 0)
(-2.24092 0.018087 -2.70223e-20)
(-2.26552 0.0174332 0)
(-2.28934 0.0167598 0)
(-2.31236 0.0160672 2.60201e-20)
(-2.33452 0.0153556 0)
(-2.3558 0.0146251 -2.5314e-20)
(-2.37615 0.0138757 0)
(-2.39554 0.013107 2.45741e-20)
(-2.41393 0.0123184 2.41907e-20)
(-2.43128 0.0115086 2.37978e-20)
(-2.44755 0.0106759 4.67903e-20)
(-2.4627 0.00981748 -4.59649e-20)
(-2.47669 0.00892962 0)
(-2.48947 0.00800761 0)
(-2.501 0.00704616 0)
(-2.5112 0.00603972 -4.24514e-20)
(-2.52002 0.00498431 -4.15181e-20)
(-2.52739 0.00388449 4.05625e-20)
(-2.53321 0.00276383 0)
(-2.53739 0.00166886 -3.85838e-20)
(-2.53983 0.000652175 -3.75551e-20)
(-2.54076 -0.000252539 -3.64978e-20)
(-2.54035 -0.00107818 0)
(-2.53857 -0.00188117 0)
(-2.53543 -0.00267627 0)
(-2.5309 -0.00346833 -3.20044e-20)
(-2.52499 -0.00425864 0)
(-2.51766 -0.00504727 0)
(-2.50892 -0.00583391 2.83492e-20)
(-2.49874 -0.0066181 0)
(-2.48712 -0.00739938 0)
(-2.47403 -0.00817734 2.44462e-20)
(-2.45947 -0.00895157 0)
(-2.44343 -0.00972177 0)
(-2.42591 -0.0104877 -2.0295e-20)
(-2.40688 -0.011249 -1.88563e-20)
(-2.38635 -0.0120058 0)
(-2.36431 -0.0127577 1.58971e-20)
(-2.34075 -0.0135049 0)
(-2.31566 -0.0142472 -1.28294e-20)
(-2.28904 -0.0149849 0)
(-2.26088 -0.0157178 -9.65444e-21)
(-2.23118 -0.0164463 -8.027e-21)
(-2.19992 -0.0171705 0)
(-2.16711 -0.0178904 0)
(-2.13274 -0.0186063 0)
(-2.0968 -0.0193182 0)
(-2.05929 -0.0200264 0)
(-2.02019 -0.0207309 0)
(-1.97951 -0.0214317 0)
(-1.93724 -0.0221288 5.93347e-21)
(-1.89337 -0.0228222 -7.7941e-21)
(-1.84789 -0.0235116 0)
(-1.80081 -0.0241968 0)
(-1.75212 -0.0248775 0)
(-1.70181 -0.0255531 0)
(-1.64988 -0.0262229 -3.49406e-20)
(-1.59634 -0.026886 0)
(-1.54119 -0.0275415 4.30188e-20)
(-1.48443 -0.028188 -4.71268e-20)
(-1.42607 -0.0288242 0)
(-1.36611 -0.0294481 0)
(-1.30459 -0.0300579 0)
(-1.2415 -0.0306511 6.39848e-20)
(-1.17689 -0.0312253 6.82962e-20)
(-1.11077 -0.0317773 0)
(-1.04319 -0.032304 7.70167e-20)
(-0.9742 -0.0328016 8.1419e-20)
(-0.903843 -0.0332662 -8.5844e-20)
(-0.832185 -0.0336934 0)
(-0.7593 -0.0340785 0)
(-0.685271 -0.0344165 -9.92048e-20)
(-0.610195 -0.0347022 0)
(-0.53418 -0.0349301 0)
(-0.457345 -0.0350945 0)
(-0.379824 -0.0351886 0)
(-0.301764 -0.0352038 1.21372e-19)
(-0.223323 -0.0351251 1.2572e-19)
(-0.144679 -0.0349247 0)
(-0.0660499 -0.0345561 1.34275e-19)
(0.0123847 -0.0339599 0)
(0.0905021 -0.033229 0)
(0.168128 -0.0324449 1.40357e-19)
(0.245104 -0.0316176 0)
(0.321263 -0.0307453 1.42572e-19)
(0.396437 -0.0298292 0)
(0.470456 -0.0288733 0)
(0.543158 -0.0278827 1.44979e-19)
(0.614387 -0.026864 0)
(0.684001 -0.0258242 1.46031e-19)
(0.751873 -0.0247709 0)
(0.817892 -0.0237118 0)
(0.881964 -0.0226545 0)
(0.944014 -0.0216058 -1.47006e-19)
(1.00399 -0.0205718 0)
(1.06184 -0.0195563 1.47025e-19)
(1.11753 -0.0185605 0)
(1.17104 -0.0175807 0)
(1.2223 -0.0166046 0)
(1.27118 -0.0156062 0)
(1.31751 -0.0145257 0)
(1.36057 -0.0132531 0)
(1.39998 -0.0114085 0)
(1.42952 -0.00831512 -2.91853e-19)
(1.4574 0.000599975 0)
(1.40874 0.0203543 0)
(0.012591 -0.045259 9.65617e-20)
(0.0355374 -0.0678894 -8.9133e-20)
(0.0540296 -0.068454 0)
(0.0681522 -0.060765 5.10471e-20)
(0.0776335 -0.0488219 0)
(0.0825572 -0.0345673 2.33331e-20)
(0.0832634 -0.0191997 -4.5325e-20)
(0.0800333 -0.00353639 -4.4266e-20)
(0.0731705 0.0117478 0)
(0.0628173 0.0260082 -4.25939e-20)
(0.0489399 0.0386781 -2.10174e-20)
(0.0315972 0.0493663 0)
(0.0108737 0.0578992 0)
(-0.0131257 0.0643583 0)
(-0.0403211 0.0691028 0)
(-0.0707198 0.0727329 -1.96077e-20)
(-0.10441 0.0760177 0)
(-0.141535 0.0797287 3.80507e-20)
(-0.182337 0.0843514 0)
(-0.226833 0.0901872 0)
(-0.276462 0.0979026 -3.77507e-20)
(-0.328947 0.10455 0)
(-0.384874 0.112594 3.62347e-20)
(-0.444937 0.121656 -1.81036e-20)
(-0.504395 0.128525 1.75931e-20)
(-0.565236 0.137248 -1.748e-20)
(-0.625339 0.142737 -1.71544e-20)
(-0.683874 0.143647 0)
(-0.742194 0.143914 0)
(-0.79947 0.143831 1.62842e-20)
(-0.854188 0.141886 -1.5909e-20)
(-0.906859 0.138502 0)
(-0.956526 0.13406 0)
(-1.00366 0.129033 1.52657e-20)
(-1.04865 0.123734 0)
(-1.09173 0.1184 0)
(-1.13312 0.113198 -1.4678e-20)
(-1.173 0.108241 0)
(-1.21156 0.1036 1.42751e-20)
(-1.24894 0.0993143 -2.84018e-20)
(-1.28529 0.0953968 0)
(-1.32073 0.0918445 0)
(-1.35539 0.0886419 -5.50291e-20)
(-1.38935 0.0857654 -5.45361e-20)
(-1.42271 0.0831871 -5.40616e-20)
(-1.45553 0.0808766 2.67163e-20)
(-1.48788 0.0788027 -2.6665e-20)
(-1.51981 0.076935 -7.91735e-20)
(-1.55136 0.0752443 5.2301e-20)
(-1.58256 0.0737033 2.60302e-20)
(-1.61344 0.0722866 0)
(-1.64401 0.0709711 -2.56244e-20)
(-1.67429 0.0697359 2.52505e-20)
(-1.70429 0.0685621 0)
(-1.73399 0.0674332 0)
(-1.76341 0.0663342 0)
(-1.79253 0.0652522 -2.46375e-20)
(-1.82134 0.064176 0)
(-1.84982 0.0630958 4.83235e-20)
(-1.87796 0.0620033 0)
(-1.90575 0.0608915 4.7536e-20)
(-1.93315 0.0597543 0)
(-1.96014 0.0585872 -4.67377e-20)
(-1.9867 0.057386 0)
(-2.0128 0.0561479 4.59234e-20)
(-2.03842 0.0548704 -2.26819e-20)
(-2.06353 0.053552 0)
(-2.08809 0.0521917 -4.46613e-20)
(-2.11209 0.0507887 -2.21801e-20)
(-2.13548 0.0493431 -2.19571e-20)
(-2.15825 0.047855 0)
(-2.18035 0.0463251 -2.13792e-20)
(-2.20176 0.044754 -2.12619e-20)
(-2.22246 0.0431429 0)
(-2.2424 0.0414929 2.07735e-20)
(-2.26156 0.0398053 -4.09437e-20)
(-2.27992 0.0380814 0)
(-2.29743 0.0363225 -1.9998e-20)
(-2.31408 0.0345302 0)
(-2.32983 0.0327055 5.82731e-20)
(-2.34465 0.0308498 0)
(-2.35852 0.0289641 -5.65561e-20)
(-2.3714 0.0270493 -1.85731e-20)
(-2.38327 0.025106 1.82183e-20)
(-2.39411 0.0231344 3.5821e-20)
(-2.40388 0.0211344 -3.51895e-20)
(-2.41257 0.0191049 0)
(-2.42014 0.0170446 0)
(-2.42659 0.0149516 0)
(-2.43189 0.0128237 9.75034e-20)
(-2.43606 0.0106581 3.17709e-20)
(-2.43911 0.00845609 -3.1021e-20)
(-2.44107 0.00623325 0)
(-2.44204 0.0040307 -2.95181e-20)
(-2.44208 0.00189922 2.86519e-20)
(-2.44104 -0.000142733 2.78197e-20)
(-2.43873 -0.00212155 0)
(-2.43512 -0.00407303 0)
(-2.43018 -0.00600933 0)
(-2.42388 -0.00793482 2.43018e-20)
(-2.41622 -0.00985002 0)
(-2.40716 -0.011754 -4.50339e-20)
(-2.3967 -0.0136453 -6.45808e-20)
(-2.38483 -0.0155224 4.11658e-20)
(-2.37153 -0.0173839 0)
(-2.35679 -0.0192283 1.86957e-20)
(-2.3406 -0.0210545 0)
(-2.32295 -0.0228613 3.29737e-20)
(-2.30384 -0.0246479 -1.55642e-20)
(-2.28325 -0.0264136 -1.44832e-20)
(-2.26118 -0.0281577 0)
(-2.23761 -0.0298798 -3.61065e-20)
(-2.21255 -0.0315796 2.1899e-20)
(-2.18599 -0.0332568 9.5984e-21)
(-2.15792 -0.0349115 0)
(-2.12833 -0.0365437 7.20658e-21)
(-2.09722 -0.0381536 1.83826e-20)
(-2.06459 -0.0397414 0)
(-2.03041 -0.0413073 7.44166e-21)
(-1.9947 -0.0428517 4.91368e-21)
(-1.95744 -0.0443748 2.35296e-21)
(-1.91863 -0.0458768 0)
(-1.87826 -0.0473579 0)
(-1.83632 -0.048818 0)
(-1.7928 -0.0502573 3.82756e-21)
(-1.7477 -0.0516755 5.74761e-21)
(-1.70102 -0.0530724 0)
(-1.65274 -0.0544475 1.64512e-20)
(-1.60287 -0.0558 1.92569e-20)
(-1.55139 -0.057129 0)
(-1.4983 -0.0584329 2.55928e-20)
(-1.44361 -0.0597104 5.56768e-20)
(-1.38731 -0.0609593 -3.14196e-20)
(-1.32941 -0.0621772 -3.30053e-20)
(-1.26991 -0.0633614 0)
(-1.20882 -0.0645085 0)
(-1.14615 -0.0656147 0)
(-1.08192 -0.0666757 -4.63783e-20)
(-1.01616 -0.0676865 4.79428e-20)
(-0.948884 -0.0686416 1.03466e-19)
(-0.880136 -0.069535 -5.55544e-20)
(-0.809956 -0.07036 5.70963e-20)
(-0.738395 -0.0711093 6.17166e-20)
(-0.665511 -0.0717751 0)
(-0.591373 -0.072349 0)
(-0.516062 -0.0728223 -6.93818e-20)
(-0.439666 -0.0731859 0)
(-0.362288 -0.0734304 0)
(-0.284043 -0.0735462 1.58659e-19)
(-0.205054 -0.0735231 0)
(-0.125459 -0.0733495 8.45438e-20)
(-0.0454039 -0.0730161 -8.90134e-20)
(0.0349552 -0.0725161 0)
(0.115467 -0.0718469 9.13337e-20)
(0.195994 -0.0709784 0)
(0.276365 -0.0699309 0)
(0.356389 -0.0687438 -9.73206e-20)
(0.435898 -0.0674301 1.95948e-19)
(0.514718 -0.0659909 -9.98813e-20)
(0.592673 -0.0644294 0)
(0.669591 -0.0627524 0)
(0.745304 -0.0609697 1.01916e-19)
(0.819652 -0.0590936 0)
(0.892489 -0.0571382 1.0372e-19)
(0.963677 -0.0551191 0)
(1.0331 -0.0530523 0)
(1.10065 -0.0509543 0)
(1.16625 -0.0488404 1.07263e-19)
(1.22982 -0.0467241 0)
(1.29131 -0.0446148 -1.08102e-19)
(1.35067 -0.0425159 0)
(1.40785 -0.0404198 0)
(1.46279 -0.0383006 2.1726e-19)
(1.51536 -0.0361001 -2.17706e-19)
(1.56536 -0.033688 0)
(1.61226 -0.0308134 0)
(1.65558 -0.0267358 0)
(1.69207 -0.0202369 6.59818e-19)
(1.72487 -0.00543633 0)
(1.7333 0.0257604 -4.45619e-19)
(0.0134295 -0.0977486 3.62134e-25)
(0.0311296 -0.112784 1.15025e-19)
(0.0413099 -0.0976994 0)
(0.0469768 -0.0770716 -9.56816e-20)
(0.0483746 -0.0547365 0)
(0.0458795 -0.0318088 0)
(0.0399694 -0.00888634 -1.42513e-23)
(0.0309619 0.0135725 4.00369e-20)
(0.0190498 0.0351645 3.90674e-20)
(0.004293 0.0555267 3.83387e-20)
(-0.0133415 0.0742951 0)
(-0.0339734 0.0911708 0)
(-0.0577934 0.106026 -3.62945e-20)
(-0.0850322 0.118991 -7.13861e-20)
(-0.115934 0.130474 7.02258e-20)
(-0.150712 0.141123 0)
(-0.189475 0.151699 6.80035e-20)
(-0.232146 0.162869 -3.35061e-20)
(-0.27849 0.174941 0)
(-0.328046 0.187628 6.48927e-20)
(-0.380199 0.200199 3.19501e-20)
(-0.434282 0.212106 -6.26422e-20)
(-0.489423 0.223107 -3.07283e-20)
(-0.544663 0.232223 0)
(-0.599024 0.23912 5.90058e-20)
(-0.651543 0.243524 5.78553e-20)
(-0.701758 0.244284 0)
(-0.749962 0.242129 5.55576e-20)
(-0.796161 0.237617 0)
(-0.840398 0.23059 5.34604e-20)
(-0.883133 0.222179 2.62156e-20)
(-0.924376 0.213465 0)
(-0.964036 0.204658 0)
(-1.00227 0.195902 0)
(-1.03925 0.187362 0)
(-1.07512 0.17918 0)
(-1.11002 0.171462 0)
(-1.14407 0.164271 4.70893e-20)
(-1.17736 0.157642 -6.97977e-20)
(-1.20997 0.151579 0)
(-1.24197 0.146069 0)
(-1.27343 0.141082 0)
(-1.30439 0.136582 8.91467e-23)
(-1.33492 0.132525 4.41652e-20)
(-1.36504 0.128865 8.73991e-20)
(-1.39479 0.125557 -8.6593e-20)
(-1.42421 0.122555 -4.28548e-20)
(-1.45332 0.119817 4.25822e-20)
(-1.48214 0.117302 -1.08422e-22)
(-1.51069 0.114974 4.17457e-20)
(-1.53898 0.112798 0)
(-1.56701 0.110743 4.10442e-20)
(-1.59479 0.108783 -1.11899e-22)
(-1.62232 0.106891 0)
(-1.6496 0.105046 0)
(-1.67662 0.103229 -3.96897e-20)
(-1.70337 0.101422 0)
(-1.72983 0.0996125 0)
(-1.756 0.0977864 3.85803e-20)
(-1.78186 0.0959336 7.67082e-20)
(-1.80738 0.0940451 -3.81236e-20)
(-1.83256 0.0921136 0)
(-1.85735 0.0901333 3.74412e-20)
(-1.88175 0.0880993 0)
(-1.90573 0.0860083 3.65508e-20)
(-1.92925 0.0838576 3.63922e-20)
(-1.95231 0.0816454 -7.18825e-20)
(-1.97486 0.079371 -3.54906e-20)
(-1.99688 0.077034 0)
(-2.01835 0.0746346 6.96843e-20)
(-2.03923 0.0721737 0)
(-2.0595 0.0696524 1.02313e-19)
(-2.07912 0.0670722 6.73725e-20)
(-2.09808 0.0644349 6.65726e-20)
(-2.11633 0.0617425 -6.57567e-20)
(-2.13386 0.058997 9.74486e-20)
(-2.15063 0.0562008 0)
(-2.16662 0.053356 0)
(-2.18179 0.050465 -6.23168e-20)
(-2.19612 0.0475301 -9.21593e-20)
(-2.20958 0.0445534 0)
(-2.22215 0.0415372 2.98019e-20)
(-2.23379 0.0384836 0)
(-2.24449 0.0353947 -8.63739e-20)
(-2.25422 0.0322725 -4.37454e-23)
(-2.26296 0.0291192 3.35404e-23)
(-2.27068 0.025937 5.44404e-20)
(-2.27737 0.0227292 0)
(-2.28301 0.0195 -5.22349e-20)
(-2.28759 0.0162557 8.73147e-24)
(-2.29111 0.0130063 0)
(-2.29355 0.00976603 0)
(-2.29492 0.0065526 0)
(-2.29519 0.00338009 4.62022e-20)
(-2.29433 0.000247205 0)
(-2.29227 -0.00287003 0)
(-2.28896 -0.00598364 0)
(-2.28438 -0.0090888 0)
(-2.27851 -0.0121826 0)
(-2.27133 -0.0152623 3.81125e-20)
(-2.26282 -0.0183249 0)
(-2.25297 -0.0213677 3.50297e-20)
(-2.24175 -0.0243878 3.35105e-20)
(-2.22917 -0.0273825 -3.19642e-20)
(-2.2152 -0.0303494 0)
(-2.19984 -0.0332861 -2.8791e-20)
(-2.18307 -0.0361909 0)
(-2.16489 -0.0390619 -2.55121e-20)
(-2.14529 -0.0418978 2.38336e-20)
(-2.12427 -0.0446974 6.68869e-20)
(-2.1018 -0.0474598 0)
(-2.0779 -0.0501843 5.64855e-20)
(-2.05255 -0.0528704 1.74386e-20)
(-2.02574 -0.055518 0)
(-1.99748 -0.0581269 2.70955e-20)
(-1.96774 -0.0606973 2.34193e-20)
(-1.93654 -0.0632295 -2.92118e-20)
(-1.90385 -0.0657239 0)
(-1.86968 -0.068181 -5.70088e-21)
(-1.83402 -0.0706012 -3.76083e-21)
(-1.79686 -0.0729851 -6.15928e-21)
(-1.7582 -0.0753329 0)
(-1.71802 -0.0776449 0)
(-1.67632 -0.0799213 0)
(-1.6331 -0.0821621 5.40053e-21)
(-1.58834 -0.084367 0)
(-1.54204 -0.0865357 0)
(-1.49419 -0.0886673 -1.24976e-20)
(-1.44479 -0.0907607 -1.46149e-20)
(-1.39383 -0.0928141 0)
(-1.3413 -0.0948255 0)
(-1.2872 -0.0967923 -4.21307e-20)
(-1.23154 -0.0987114 0)
(-1.17431 -0.100579 5.0879e-20)
(-1.11551 -0.102391 5.42306e-20)
(-1.05516 -0.104141 0)
(-0.993257 -0.105824 0)
(-0.929823 -0.107433 -6.75414e-20)
(-0.864875 -0.10896 -1.12715e-21)
(-0.798437 -0.110397 -1.14123e-21)
(-0.730543 -0.111735 0)
(-0.661229 -0.112963 -1.7212e-19)
(-0.590541 -0.114069 0)
(-0.518535 -0.115043 0)
(-0.445273 -0.115871 0)
(-0.37083 -0.116541 1.04596e-19)
(-0.295289 -0.117038 0)
(-0.218745 -0.11735 -2.24517e-19)
(-0.141304 -0.117461 -1.17842e-19)
(-0.0630803 -0.11736 0)
(0.0157994 -0.117034 -1.25929e-19)
(0.0952039 -0.116476 0)
(0.174993 -0.115682 0)
(0.255034 -0.114656 -4.01277e-19)
(0.3352 -0.113402 2.72172e-19)
(0.415318 -0.111927 0)
(0.495201 -0.110233 2.82411e-19)
(0.574666 -0.108324 -1.4461e-19)
(0.653535 -0.106205 0)
(0.731631 -0.103881 0)
(0.808782 -0.101364 0)
(0.884821 -0.0986692 -4.56666e-19)
(0.959591 -0.0958147 0)
(1.03294 -0.0928224 -1.56188e-19)
(1.10474 -0.0897161 0)
(1.17486 -0.0865208 0)
(1.2432 -0.083262 0)
(1.30966 -0.0799638 0)
(1.37418 -0.0766473 0)
(1.43669 -0.0733281 0)
(1.49713 -0.0700117 -3.27874e-19)
(1.55546 -0.0666875 0)
(1.61161 -0.0633168 -1.66059e-19)
(1.66546 -0.0598122 4.99197e-19)
(1.71683 -0.0559888 0)
(1.76532 -0.0514842 0)
(1.81061 -0.0454476 -3.36551e-19)
(1.85073 -0.036341 -3.39177e-19)
(1.8888 -0.0197061 3.41177e-19)
(1.91339 0.0131745 3.45589e-19)
(0.00859078 -0.134859 -1.86869e-19)
(0.0169135 -0.131962 -1.67319e-19)
(0.0177488 -0.105023 -9.92636e-20)
(0.0156676 -0.0757337 -4.52726e-20)
(0.010591 -0.0462592 0)
(0.00268576 -0.0171223 8.01685e-20)
(-0.00783133 0.0114135 -3.83159e-20)
(-0.0208302 0.0391364 0)
(-0.0363037 0.0658575 -3.56194e-20)
(-0.054309 0.0913696 0)
(-0.0749636 0.115467 6.79676e-20)
(-0.0984434 0.137992 0)
(-0.124963 0.158901 3.28118e-20)
(-0.154736 0.178314 6.45545e-20)
(-0.187918 0.196516 -6.34833e-20)
(-0.224546 0.213899 0)
(-0.264464 0.230839 -6.12594e-20)
(-0.307286 0.247527 0)
(-0.352415 0.263829 0)
(-0.399136 0.279266 -5.77197e-20)
(-0.44669 0.293156 0)
(-0.494353 0.304905 -4.02228e-23)
(-0.54144 0.314095 0)
(-0.587334 0.320273 0)
(-0.631597 0.323282 7.46893e-23)
(-0.673947 0.323148 -5.05289e-20)
(-0.71432 0.319814 -4.95151e-20)
(-0.752942 0.313758 -4.83712e-20)
(-0.790051 0.305575 0)
(-0.825905 0.295754 -9.2844e-20)
(-0.860751 0.284974 0)
(-0.894732 0.273868 -4.46947e-20)
(-0.927918 0.262784 0)
(-0.960375 0.251957 0)
(-0.992174 0.241555 4.24537e-20)
(-1.02338 0.231697 0)
(-1.05405 0.222457 -4.12043e-20)
(-1.08422 0.213877 6.1876e-24)
(-1.11394 0.205967 8.02306e-20)
(-1.14324 0.198719 -7.92383e-20)
(-1.17216 0.192105 0)
(-1.20071 0.186088 0)
(-1.22893 0.180622 -3.8265e-20)
(-1.25683 0.175657 0)
(-1.28444 0.171141 -3.75517e-20)
(-1.31178 0.167023 3.71891e-20)
(-1.33885 0.16325 3.6839e-20)
(-1.36569 0.159776 0)
(-1.39229 0.156554 -3.61695e-20)
(-1.41866 0.153542 -3.58472e-20)
(-1.44481 0.1507 7.09593e-20)
(-1.47075 0.147992 -3.52209e-20)
(-1.49647 0.145387 -3.49149e-20)
(-1.52197 0.142855 0)
(-1.54724 0.14037 0)
(-1.57228 0.137909 3.40143e-20)
(-1.59707 0.135452 0)
(-1.62161 0.132983 0)
(-1.64587 0.130485 -6.62493e-20)
(-1.66984 0.127946 -6.56553e-20)