#           v             n
     0.523599   6.18871e-06
     0.648652   2.53501e-06
     0.790112   3.97693e-06
     0.953116    6.5958e-06
      1.13449   1.09898e-05
      1.34047   1.91858e-05
      1.56672   3.33558e-05
      1.82069   6.01033e-05
      2.09677   0.000106656
      2.40376   0.000193618
      2.73462   0.000341352
      3.09966   0.000606023
      3.49026    0.00102655
      3.91837    0.00171696
      4.37366    0.00267744
      4.86986    0.00401919
       5.3948     0.0054539
      5.96412    0.00689049
      6.56366    0.00755103
      7.21112    0.00738662
      7.89023    0.00594009
      8.62085    0.00400959
      9.38447    0.00193751
      10.2033    0.00054261
      11.0564             0
      11.9684             0
      12.9159             0
      13.9262             0
      14.9731             0
