/*--------------------------------*- C++ -*----------------------------------*\
  =========                 |
  \\      /  F ield         | OpenFOAM: The Open Source CFD Toolbox
   \\    /   O peration     | Website:  https://openfoam.org
    \\  /    A nd           | Version:  12
     \\/     M anipulation  |
\*---------------------------------------------------------------------------*/
FoamFile
{
    format      ascii;
    class       volScalarField;
    location    "2.54";
    object      p_rgh;
}
// * * * * * * * * * * * * * * * * * * * * * * * * * * * * * * * * * * * * * //

dimensions      [1 -1 -2 0 0 0 0];

internalField   nonuniform List<scalar> 
3829
(
1.07538
1.07494
1.07403
1.07265
1.07077
1.06837
1.06542
1.06191
1.0578
1.05306
1.04767
1.04159
1.0348
1.02726
1.01895
1.00984
0.999896
0.989089
0.977393
0.964784
0.95124
0.936746
0.921293
0.904877
0.887503
0.869182
0.849935
0.829789
0.80878
0.786951
0.764356
0.741055
0.717113
0.692605
0.667606
0.6422
0.61648
0.59054
0.564475
0.538378
0.512342
0.486681
0.461376
0.436519
0.412204
0.388527
0.365576
0.343437
0.322188
0.301899
0.282634
0.264449
0.24739
0.231494
0.216791
0.203299
0.191031
0.179989
0.170166
0.161542
0.154087
0.147761
0.142508
0.138262
0.134947
0.132477
0.130757
0.129683
0.129149
0.129037
0.129231
0.129609
0.130052
0.130436
0.130639
0.13055
0.13006
0.129071
0.127488
0.125231
0.122229
0.118423
0.113771
0.108247
0.101843
0.0944523
0.0861965
0.0770991
0.0671977
0.0565471
0.0452151
0.0332813
0.0208381
0.00798333
-0.00517661
-0.018528
-0.0319571
-0.0453449
-0.0585768
-0.0715391
-0.0841163
-0.0962035
-0.1077
-0.118515
-0.128563
-0.137772
-0.146078
-0.153431
-0.159791
-0.165129
-0.16943
-0.172689
-0.174913
-0.176122
-0.176341
-0.17561
-0.173972
-0.171481
-0.168198
-0.164189
-0.159525
-0.154281
-0.148535
-0.142366
-0.135856
-0.129084
-0.122131
-0.115076
-0.107994
-0.100959
-0.0940522
-0.0873157
-0.0808096
-0.0745932
-0.068717
-0.063225
-0.058156
-0.0535417
-0.0494081
-0.045776
-0.0426601
-0.0400692
-0.0380066
-0.0364709
-0.0354555
-0.0349489
-0.0349316
-0.0353871
-0.0362933
-0.0376248
-0.0393532
-0.0414475
-0.0438751
-0.0466016
-0.0495917
-0.0528094
-0.0562181
-0.0597823
-0.0634658
-0.0672339
-0.0710527
-0.0748898
-0.0787144
-0.0824972
-0.0862111
-0.0898311
-0.0933342
-0.0966756
-0.0998847
-0.102926
-0.105788
-0.108459
-0.110934
-0.113209
-0.115283
-0.117157
-0.118834
-0.12032
-0.121621
-0.122745
-0.123701
-0.124497
-0.125146
-0.125656
-0.126038
-0.126303
-0.126462
-0.126526
-0.12651
-0.126425
-0.126287
-0.12611
-0.125908
-0.125695
-0.125486
-0.125291
-0.125122
-0.124986
-0.124891
-0.124842
1.11753
1.11715
1.11637
1.11518
1.11354
1.11144
1.10883
1.10568
1.10196
1.09761
1.09258
1.08684
1.08034
1.07303
1.06485
1.05574
1.04564
1.03449
1.02225
1.00886
0.994301
0.978536
0.961551
0.943338
0.923905
0.903269
0.881462
0.858528
0.834523
0.809516
0.783587
0.756824
0.729328
0.701205
0.672569
0.64353
0.61421
0.584729
0.555207
0.525763
0.496516
0.467767
0.43957
0.412046
0.385313
0.359482
0.334655
0.310925
0.288377
0.267084
0.247112
0.228513
0.211333
0.195605
0.181353
0.168587
0.157312
0.147515
0.139172
0.132243
0.126674
0.122398
0.119334
0.117392
0.116466
0.116444
0.117201
0.118607
0.120526
0.122815
0.125329
0.127922
0.130449
0.132766
0.134739
0.136234
0.137132
0.137319
0.136695
0.135172
0.132676
0.129151
0.124555
0.118859
0.112056
0.104261
0.0954036
0.0855379
0.0747306
0.0630628
0.0506284
0.0375314
0.0238878
0.00981773
-0.00455105
-0.019085
-0.0336524
-0.0481069
-0.0623395
-0.0762149
-0.0896078
-0.102406
-0.114504
-0.125806
-0.13623
-0.145702
-0.154163
-0.161566
-0.167877
-0.173076
-0.177153
-0.180113
-0.18198
-0.182777
-0.182541
-0.181316
-0.179158
-0.176129
-0.172298
-0.167739
-0.162529
-0.156751
-0.150489
-0.143825
-0.136845
-0.129634
-0.122272
-0.114839
-0.10741
-0.100052
-0.0929613
-0.0859737
-0.0792659
-0.072888
-0.0668857
-0.0613001
-0.0561679
-0.0515187
-0.0473758
-0.0437577
-0.040677
-0.0381401
-0.0361478
-0.0346964
-0.0337764
-0.0333719
-0.0334662
-0.0340394
-0.0350677
-0.0365237
-0.0383772
-0.0405957
-0.0431454
-0.0459906
-0.0490949
-0.0524216
-0.0559332
-0.0595937
-0.0633663
-0.0672162
-0.0711093
-0.0750129
-0.0788963
-0.0827303
-0.0864879
-0.0901449
-0.0936797
-0.0970379
-0.100265
-0.103317
-0.106182
-0.108852
-0.11132
-0.113584
-0.115644
-0.117501
-0.119159
-0.120624
-0.121903
-0.123005
-0.123939
-0.124715
-0.125342
-0.125832
-0.126194
-0.12644
-0.126579
-0.126624
-0.126589
-0.126485
-0.126329
-0.126134
-0.125916
-0.12569
-0.125468
-0.125264
-0.125087
-0.124946
-0.124848
-0.124797
1.18315
1.183
1.18269
1.18219
1.18147
1.18049
1.17918
1.17747
1.17529
1.17254
1.16913
1.16493
1.15983
1.15371
1.14648
1.13801
1.12821
1.11696
1.10416
1.08972
1.07357
1.05566
1.03597
1.01448
0.991204
0.966184
0.939483
0.911188
0.881403
0.850253
0.817879
0.78443
0.750053
0.71492
0.679226
0.643168
0.606932
0.570702
0.534666
0.499011
0.463928
0.429115
0.395552
0.363255
0.332315
0.302831
0.274902
0.248621
0.224072
0.201328
0.180449
0.161488
0.14448
0.129449
0.116405
0.105342
0.0962395
0.0890574
0.0837328
0.0801838
0.0783149
0.0780127
0.079149
0.0815827
0.08516
0.0897177
0.0950819
0.101069
0.107493
0.114162
0.120885
0.127411
0.133663
0.139411
0.144486
0.148727
0.15199
0.154144
0.155077
0.154702
0.152948
0.149771
0.145146
0.139078
0.131528
0.122609
0.112365
0.100882
0.0882587
0.0746144
0.0600818
0.0448055
0.0289419
0.0126501
-0.00390541
-0.0205562
-0.0371397
-0.053481
-0.0694504
-0.0848945
-0.0996726
-0.113662
-0.12675
-0.13884
-0.149849
-0.159708
-0.168365
-0.175785
-0.181943
-0.186834
-0.190463
-0.192848
-0.194057
-0.194104
-0.193043
-0.190939
-0.187861
-0.183888
-0.179103
-0.173591
-0.167443
-0.160751
-0.153609
-0.146107
-0.138337
-0.130388
-0.122347
-0.114297
-0.106317
-0.0984842
-0.0908855
-0.0835471
-0.0765366
-0.0699093
-0.0637116
-0.0579829
-0.0527567
-0.0480596
-0.0439111
-0.0403259
-0.0373125
-0.0348738
-0.0330074
-0.031706
-0.0309561
-0.0307269
-0.0310113
-0.0317856
-0.033022
-0.0346895
-0.0367549
-0.0391836
-0.0419393
-0.0449842
-0.0482807
-0.05179
-0.055474
-0.0592954
-0.063217
-0.0672031
-0.0712196
-0.0752338
-0.0792149
-0.0831336
-0.0869628
-0.0906777
-0.0942554
-0.0976663
-0.100914
-0.103979
-0.106848
-0.109514
-0.11197
-0.114215
-0.11625
-0.118077
-0.119702
-0.121131
-0.122374
-0.123439
-0.124336
-0.125076
-0.125669
-0.126125
-0.126454
-0.126667
-0.126774
-0.126788
-0.12672
-0.126585
-0.126397
-0.126173
-0.125929
-0.125679
-0.125438
-0.125217
-0.125027
-0.124878
-0.124774
-0.124721
1.25544
1.2559
1.25682
1.25816
1.25987
1.26187
1.26403
1.26621
1.26825
1.26993
1.27105
1.27139
1.27072
1.26876
1.26522
1.25983
1.25234
1.24254
1.23024
1.21527
1.19751
1.17687
1.15332
1.12685
1.09751
1.06537
1.03059
0.993344
0.953853
0.912389
0.86924
0.824712
0.779131
0.732784
0.685957
0.638928
0.591974
0.545355
0.499319
0.454096
0.409903
0.366931
0.326535
0.288054
0.251649
0.217473
0.185652
0.156293
0.129481
0.105283
0.0837524
0.064925
0.0488193
0.0354359
0.0247559
0.0167365
0.0113131
0.00838722
0.00783869
0.0095273
0.013296
0.0189655
0.0263415
0.0352142
0.0453578
0.0565348
0.0684984
0.0809944
0.0937661
0.106551
0.119079
0.131123
0.142438
0.152792
0.161972
0.169785
0.176056
0.18064
0.183417
0.184292
0.183205
0.180123
0.175047
0.168005
0.159116
0.148407
0.136
0.122039
0.106685
0.0901161
0.0725263
0.0541189
0.0351077
0.0157044
-0.00387563
-0.0234199
-0.0427191
-0.0615798
-0.0798369
-0.0973179
-0.113865
-0.129346
-0.143644
-0.156662
-0.168325
-0.178573
-0.187366
-0.194685
-0.200526
-0.204907
-0.207861
-0.209444
-0.209685
-0.208668
-0.206465
-0.203161
-0.198843
-0.193611
-0.187564
-0.180803
-0.173434
-0.165561
-0.157286
-0.148711
-0.139935
-0.131054
-0.122157
-0.113331
-0.104659
-0.0962163
-0.0880721
-0.080281
-0.072897
-0.0659702
-0.0595436
-0.0536528
-0.0483264
-0.0435862
-0.0394471
-0.0359186
-0.0330046
-0.0307025
-0.0290056
-0.0279057
-0.0273989
-0.0273823
-0.0279138
-0.0289502
-0.0304557
-0.0323952
-0.0347322
-0.0374289
-0.0404464
-0.043745
-0.0472845
-0.0510247
-0.0549258
-0.0589495
-0.0630576
-0.0672141
-0.0713847
-0.0755366
-0.0796392
-0.0836633
-0.0875819
-0.0913702
-0.0950038
-0.0984643
-0.101743
-0.104824
-0.107697
-0.110355
-0.112795
-0.115014
-0.117016
-0.118804
-0.120386
-0.12177
-0.122965
-0.123982
-0.124833
-0.125528
-0.126077
-0.12649
-0.126779
-0.126952
-0.127019
-0.126992
-0.126884
-0.126709
-0.126482
-0.12622
-0.125942
-0.125662
-0.125396
-0.125155
-0.12495
-0.12479
-0.12468
-0.124623
1.30492
1.30676
1.31044
1.31593
1.32311
1.3318
1.34176
1.35269
1.36421
1.3759
1.38737
1.39813
1.4076
1.41515
1.42023
1.42228
1.42082
1.41538
1.4056
1.39116
1.37185
1.34753
1.31815
1.28377
1.24456
1.20082
1.15294
1.10143
1.04692
0.990059
0.931207
0.870777
0.809241
0.747099
0.684805
0.622811
0.561559
0.501457
0.442894
0.38622
0.331769
0.279827
0.228545
0.182273
0.139557
0.100295
0.0645157
0.0322697
0.00362034
-0.021386
-0.0427122
-0.0603443
-0.0742933
-0.0846013
-0.0913356
-0.0946003
-0.094535
-0.0913059
-0.0851055
-0.0761517
-0.0646775
-0.0509465
-0.0352417
-0.0178649
0.000870295
0.0206328
0.0410854
0.0618894
0.0826913
0.103139
0.122913
0.14169
0.159157
0.175031
0.189055
0.200987
0.210627
0.21782
0.222439
0.224398
0.223653
0.220206
0.214104
0.205448
0.194346
0.180947
0.16544
0.148041
0.128984
0.108527
0.0869405
0.0645015
0.0414941
0.0181943
-0.00512987
-0.02821
-0.0507457
-0.0726018
-0.0935339
-0.113353
-0.13189
-0.149007
-0.164588
-0.178542
-0.190807
-0.201341
-0.210123
-0.217159
-0.222473
-0.226102
-0.228096
-0.228622
-0.227662
-0.225325
-0.221719
-0.216956
-0.21115
-0.204419
-0.196883
-0.188662
-0.179874
-0.170636
-0.161065
-0.15127
-0.141356
-0.131426
-0.121573
-0.111885
-0.102445
-0.0933391
-0.0846141
-0.0763345
-0.068552
-0.0613117
-0.0546514
-0.0486015
-0.0431856
-0.0384198
-0.0343128
-0.0308686
-0.0280845
-0.0259515
-0.0244551
-0.0235729
-0.0232669
-0.0235867
-0.0244293
-0.025775
-0.027592
-0.0298434
-0.0324901
-0.0354916
-0.0388063
-0.0423915
-0.0462053
-0.0502051
-0.0543498
-0.0585997
-0.0629158
-0.0672619
-0.0716034
-0.0759077
-0.0801447
-0.0842851
-0.0883027
-0.0921738
-0.0958638
-0.0993762
-0.102687
-0.105786
-0.108661
-0.111309
-0.113727
-0.115916
-0.117878
-0.119621
-0.121153
-0.122484
-0.123624
-0.124587
-0.125385
-0.126029
-0.126529
-0.126897
-0.12714
-0.127268
-0.127292
-0.12722
-0.127067
-0.126845
-0.126573
-0.12627
-0.125952
-0.125639
-0.125344
-0.125081
-0.124859
-0.124688
-0.124571
-0.124512
1.29091
1.29561
1.30505
1.31916
1.33774
1.36041
1.38666
1.41577
1.44685
1.47887
1.51058
1.54067
1.56797
1.59131
1.60956
1.6217
1.62687
1.62451
1.61451
1.59774
1.57466
1.54518
1.50924
1.46688
1.41823
1.36344
1.30264
1.23614
1.16408
1.08723
1.00686
0.924166
0.840241
0.75606
0.672495
0.590318
0.510199
0.432726
0.358408
0.287698
0.220969
0.158615
0.100905
0.0447273
-0.00473488
-0.0492219
-0.0887791
-0.123402
-0.153074
-0.177801
-0.197606
-0.212531
-0.222653
-0.228091
-0.229
-0.225569
-0.218018
-0.206595
-0.191577
-0.173269
-0.152004
-0.128142
-0.102071
-0.0742028
-0.0449562
-0.01477
0.0159135
0.046638
0.0769549
0.106429
0.134636
0.161167
0.185633
0.207684
0.227013
0.24334
0.256443
0.266151
0.272348
0.274972
0.274022
0.269549
0.261656
0.250491
0.236264
0.219212
0.199616
0.177786
0.154055
0.128775
0.102305
0.0750117
0.0472597
0.0193972
-0.00823851
-0.0353247
-0.0615324
-0.0866871
-0.11052
-0.132827
-0.15343
-0.172191
-0.189004
-0.203795
-0.216521
-0.227162
-0.235733
-0.24227
-0.246831
-0.249495
-0.250373
-0.249523
-0.247088
-0.24319
-0.237961
-0.231535
-0.22405
-0.215647
-0.206465
-0.196642
-0.186309
-0.175599
-0.164637
-0.153539
-0.142419
-0.131384
-0.12053
-0.109949
-0.0997259
-0.0899306
-0.0806209
-0.0718543
-0.0636787
-0.0561354
-0.0492565
-0.0430662
-0.0375825
-0.0328152
-0.0287666
-0.0254343
-0.0228092
-0.0208762
-0.0196151
-0.0190003
-0.0189991
-0.0196073
-0.0207682
-0.0224439
-0.0245954
-0.0271818
-0.0301602
-0.033487
-0.0371179
-0.0410078
-0.045112
-0.0493863
-0.0537876
-0.0582749
-0.0628085
-0.0673521
-0.0718712
-0.0763338
-0.0807097
-0.0849705
-0.0890896
-0.0930426
-0.0967978
-0.100359
-0.103701
-0.106815
-0.109691
-0.112326
-0.114718
-0.116871
-0.11879
-0.120483
-0.12196
-0.123233
-0.124315
-0.12522
-0.125961
-0.126551
-0.127001
-0.12732
-0.127516
-0.127599
-0.127577
-0.127459
-0.127257
-0.126987
-0.126667
-0.126317
-0.125959
-0.12561
-0.125285
-0.124998
-0.124759
-0.124577
-0.124455
-0.124394
1.1739
1.18425
1.20511
1.23643
1.27791
1.32893
1.38851
1.45533
1.52791
1.60421
1.68188
1.75864
1.83228
1.9007
1.96172
2.01303
2.05243
2.07579
2.07185
2.05674
2.03075
1.99056
1.93656
1.86828
1.78653
1.69291
1.58967
1.48018
1.35868
1.23323
1.10791
0.984205
0.863178
0.745742
0.6326
0.524295
0.421274
0.323891
0.2324
0.147058
0.0679937
-0.00461576
-0.0706948
-0.130047
-0.186161
-0.234158
-0.275639
-0.310753
-0.339533
-0.362031
-0.378331
-0.388552
-0.392847
-0.391422
-0.384512
-0.372384
-0.355335
-0.3337
-0.30785
-0.278194
-0.245168
-0.209248
-0.170933
-0.130753
-0.0892561
-0.0470072
-0.0045909
0.037454
0.0785705
0.118184
0.155765
0.190813
0.222858
0.251483
0.276325
0.297081
0.313509
0.325436
0.332756
0.335449
0.333559
0.327183
0.316623
0.302023
0.283695
0.26199
0.237309
0.210081
0.180749
0.149776
0.117633
0.0847769
0.0516651
0.0187203
-0.0136515
-0.0450438
-0.0751921
-0.103809
-0.130633
-0.155444
-0.178066
-0.198373
-0.216276
-0.231725
-0.244706
-0.255235
-0.263361
-0.269156
-0.272714
-0.274152
-0.273653
-0.271266
-0.267176
-0.26154
-0.254524
-0.246287
-0.236995
-0.226807
-0.215884
-0.204378
-0.192436
-0.1802
-0.167805
-0.155375
-0.14303
-0.13088
-0.119024
-0.107554
-0.0965648
-0.0860939
-0.0762153
-0.0669831
-0.0584388
-0.0506181
-0.0435469
-0.0372431
-0.0317185
-0.0269761
-0.0230121
-0.0198171
-0.0173753
-0.015666
-0.0146636
-0.0143389
-0.014647
-0.0155728
-0.0170673
-0.0190857
-0.0215835
-0.0245154
-0.0278349
-0.0314955
-0.03545
-0.0396507
-0.0440509
-0.0486038
-0.0532646
-0.0579913
-0.0627434
-0.0674845
-0.0721808
-0.076801
-0.0813154
-0.0856956
-0.089915
-0.0939471
-0.0977699
-0.101376
-0.104748
-0.107874
-0.110747
-0.113366
-0.11573
-0.117845
-0.119717
-0.121357
-0.122776
-0.123989
-0.12501
-0.125854
-0.126537
-0.127074
-0.127473
-0.127744
-0.127894
-0.127932
-0.127864
-0.1277
-0.127449
-0.127128
-0.126758
-0.126361
-0.12596
-0.125575
-0.125221
-0.12491
-0.124654
-0.124461
-0.124334
-0.124272
0.845332
0.864201
0.902425
0.960201
1.0374
1.13354
1.24734
1.37747
1.52068
1.67217
1.82152
1.96329
2.09248
2.205
2.29624
2.35926
2.40737
2.44414
2.47766
2.48593
2.46604
2.42077
2.34963
2.25423
2.13583
1.99602
1.83628
1.66127
1.48754
1.31786
1.14995
0.987395
0.831176
0.682027
0.540496
0.407089
0.282268
0.166278
0.0592359
-0.0389447
-0.128342
-0.209146
-0.281357
-0.345297
-0.400889
-0.450405
-0.491831
-0.525363
-0.551156
-0.569343
-0.580103
-0.583638
-0.580184
-0.570011
-0.553416
-0.530734
-0.502348
-0.468684
-0.430214
-0.387443
-0.340922
-0.291254
-0.239062
-0.18501
-0.129766
-0.0740113
-0.0188399
0.035751
0.0886836
0.139286
0.186932
0.231021
0.270994
0.306377
0.336746
0.361767
0.38119
0.394849
0.402682
0.404714
0.401076
0.392027
0.377774
0.35872
0.335286
0.30795
0.277241
0.243718
0.207964
0.170556
0.132073
0.0930831
0.0541384
0.0157478
-0.0216165
-0.0574467
-0.0916492
-0.123778
-0.15356
-0.180783
-0.205285
-0.22696
-0.245745
-0.261625
-0.274623
-0.284798
-0.292239
-0.29706
-0.299392
-0.299365
-0.297317
-0.293226
-0.287327
-0.27982
-0.270902
-0.260763
-0.249586
-0.237556
-0.224848
-0.211631
-0.198062
-0.184294
-0.170469
-0.156719
-0.143165
-0.129922
-0.11709
-0.104781
-0.093038
-0.0819286
-0.0715188
-0.0618564
-0.0529785
-0.0449136
-0.0376817
-0.0312946
-0.0257569
-0.0210653
-0.0172093
-0.0141728
-0.0119335
-0.0104641
-0.00973389
-0.00971481
-0.010334
-0.01159
-0.0134257
-0.0157913
-0.0186381
-0.0219167
-0.0255774
-0.029571
-0.0338475
-0.038357
-0.0430503
-0.0478787
-0.0527952
-0.0577566
-0.0627219
-0.0676551
-0.0725232
-0.0772959
-0.0819445
-0.0864405
-0.0907567
-0.0948648
-0.0987509
-0.1024
-0.105798
-0.108934
-0.111802
-0.114402
-0.116736
-0.11881
-0.120634
-0.122219
-0.123579
-0.12473
-0.125689
-0.126474
-0.1271
-0.127583
-0.127932
-0.128157
-0.128263
-0.128258
-0.128147
-0.127936
-0.127637
-0.127266
-0.126844
-0.126399
-0.125956
-0.125536
-0.125153
-0.124819
-0.124546
-0.124343
-0.124213
-0.124151
0.263962
0.296813
0.363209
0.463186
0.595742
0.758031
0.945812
1.15149
1.37102
1.59339
1.82079
2.05126
2.27982
2.51345
2.71261
2.88769
3.02388
3.11888
3.17385
3.18814
3.16171
3.09475
2.98767
2.84147
2.65739
2.44038
2.19408
1.92918
1.66724
1.41138
1.17011
0.948667
0.742892
0.553913
0.381416
0.224401
0.0816517
-0.047978
-0.165428
-0.271469
-0.366655
-0.451444
-0.526237
-0.591381
-0.647196
-0.694354
-0.732304
-0.761478
-0.781912
-0.793722
-0.797085
-0.792216
-0.779372
-0.758857
-0.73102
-0.696253
-0.655018
-0.607833
-0.555269
-0.49794
-0.436522
-0.371743
-0.304365
-0.2352
-0.165094
-0.0949187
-0.025522
0.0423303
0.107755
0.16992
0.228072
0.281492
0.329525
0.371624
0.407342
0.436297
0.458242
0.473049
0.480685
0.481233
0.474856
0.462271
0.443475
0.41905
0.389589
0.355732
0.318158
0.277585
0.234719
0.190276
0.144954
0.0994187
0.0543099
0.0102479
-0.0320052
-0.072488
-0.110714
-0.146268
-0.178872
-0.208332
-0.234504
-0.257313
-0.276736
-0.292796
-0.305565
-0.315146
-0.321676
-0.325322
-0.326277
-0.324784
-0.320867
-0.314899
-0.307073
-0.29761
-0.286727
-0.274639
-0.261551
-0.247666
-0.233176
-0.218259
-0.203085
-0.187813
-0.172595
-0.157564
-0.142845
-0.128555
-0.114798
-0.101698
-0.0892453
-0.0775435
-0.0666472
-0.056598
-0.0474259
-0.0391535
-0.0317942
-0.0253529
-0.0198286
-0.0152105
-0.0114823
-0.00862061
-0.00659702
-0.00537678
-0.00492102
-0.00518098
-0.00614456
-0.00773671
-0.00991356
-0.0126237
-0.0158146
-0.0194339
-0.0234288
-0.0277475
-0.032338
-0.037148
-0.0421263
-0.0472217
-0.0523852
-0.0575722
-0.0627414
-0.0678574
-0.0728885
-0.0778061
-0.0825822
-0.0871885
-0.0915981
-0.0957742
-0.0997205
-0.10341
-0.10683
-0.109973
-0.112835
-0.115414
-0.117716
-0.119748
-0.121523
-0.123053
-0.124354
-0.125444
-0.126342
-0.127067
-0.127639
-0.128069
-0.128371
-0.128551
-0.128616
-0.12857
-0.128418
-0.128165
-0.127819
-0.127397
-0.126924
-0.126432
-0.125948
-0.125493
-0.125082
-0.124726
-0.124437
-0.124226
-0.124094
-0.124033
-0.696218
-0.646291
-0.542942
-0.38055
-0.151743
0.158329
0.561676
1.08284
1.7978
2.32169
2.74719
3.11631
3.40873
3.63117
3.82409
3.98167
4.10105
4.18051
4.21866
4.21387
4.16335
4.06339
3.90953
3.69609
3.4138
3.09701
2.7105
2.09882
1.69403
1.33157
1.00769
0.775336
0.536504
0.326283
0.138993
-0.0283212
-0.178275
-0.312791
-0.433326
-0.541044
-0.636789
-0.72123
-0.794849
-0.857942
-0.910779
-0.953545
-0.986977
-1.01049
-1.02424
-1.02838
-1.0231
-1.00861
-0.985188
-0.953163
-0.912924
-0.864933
-0.809722
-0.7479
-0.680133
-0.607155
-0.529758
-0.448826
-0.365274
-0.280062
-0.194178
-0.108823
-0.0246771
0.0571079
0.135526
0.20961
0.278474
0.341302
0.397343
0.445989
0.48673
0.519173
0.543086
0.558382
0.565112
0.563487
0.553934
0.536558
0.512217
0.481524
0.445211
0.40407
0.358946
0.310707
0.260216
0.208316
0.155818
0.103487
0.0520061
0.00187168
-0.0444286
-0.0898169
-0.132026
-0.170842
-0.20606
-0.237518
-0.265104
-0.288789
-0.308589
-0.324582
-0.336883
-0.345647
-0.351065
-0.353347
-0.352725
-0.34948
-0.343756
-0.335865
-0.326064
-0.314607
-0.301743
-0.287705
-0.27272
-0.257005
-0.240768
-0.224196
-0.207467
-0.190749
-0.174195
-0.157943
-0.14212
-0.126844
-0.112245
-0.0983738
-0.0852788
-0.0730395
-0.0617065
-0.0513156
-0.0418904
-0.0334469
-0.0259918
-0.0195236
-0.014035
-0.00950955
-0.00592396
-0.00324885
-0.00144878
-0.000483173
-0.000307374
-0.000872619
-0.0021482
-0.00406748
-0.00657788
-0.00962355
-0.0131484
-0.0170969
-0.0214138
-0.026045
-0.0309369
-0.036035
-0.041286
-0.0466364
-0.052035
-0.0574357
-0.0627968
-0.0680839
-0.0732673
-0.0783202
-0.0832159
-0.0879256
-0.0924181
-0.0966664
-0.100664
-0.104389
-0.107829
-0.110977
-0.11383
-0.116387
-0.118655
-0.120645
-0.122371
-0.123847
-0.125091
-0.12612
-0.126958
-0.127626
-0.128144
-0.128526
-0.128783
-0.128923
-0.12895
-0.128866
-0.128677
-0.128383
-0.127992
-0.12752
-0.126998
-0.126458
-0.125935
-0.125448
-0.125011
-0.124633
-0.12433
-0.124111
-0.123979
-0.123921
-2.06742
-2.01229
-1.89786
-1.71703
-1.45835
-1.10512
-0.634631
-0.0290224
0.881846
1.65216
2.35591
2.95142
3.47041
3.90484
4.2658
4.55692
4.78027
4.93678
5.02645
5.04832
5.0004
4.87956
4.68108
4.39989
4.01995
3.53556
2.93599
2.08932
1.53521
1.09048
0.737389
0.452073
0.209595
0.000276194
-0.182399
-0.343721
-0.487473
-0.616213
-0.731652
-0.834875
-0.92655
-1.00709
-1.07675
-1.13569
-1.18397
-1.22167
-1.24891
-1.26558
-1.2717
-1.26733
-1.25262
-1.22775
-1.19301
-1.14873
-1.09534
-1.03338
-0.963436
-0.886207
-0.802478
-0.7131
-0.619015
-0.521253
-0.420875
-0.319031
-0.216876
-0.115656
-0.0164302
0.0795861
0.171217
0.257346
0.336958
0.409112
0.472964
0.527838
0.573186
0.608604
0.633882
0.648976
0.654023
0.649322
0.635505
0.612913
0.582361
0.544708
0.500881
0.451857
0.39866
0.342326
0.283862
0.224252
0.16443
0.105266
0.0475897
-0.00778537
-0.0599969
-0.109417
-0.155217
-0.197005
-0.234562
-0.267741
-0.29647
-0.320767
-0.340697
-0.356386
-0.368006
-0.375762
-0.379902
-0.380686
-0.378394
-0.373324
-0.365703
-0.355849
-0.344058
-0.330612
-0.315785
-0.299832
-0.282996
-0.265509
-0.247588
-0.22943
-0.211219
-0.193128
-0.175312
-0.157912
-0.141056
-0.124855
-0.1095
-0.0949126
-0.0812308
-0.0685086
-0.0567892
-0.0461015
-0.0364624
-0.0278817
-0.020359
-0.0138873
-0.00845307
-0.00403464
-0.000602052
0.00187982
0.00345316
0.0041642
0.00406269
0.00320061
0.00162013
-0.000615394
-0.00344742
-0.00681555
-0.01066
-0.0149223
-0.0195452
-0.024473
-0.0296505
-0.0350216
-0.0405307
-0.0461219
-0.0517416
-0.0573422
-0.0628817
-0.068327
-0.0736507
-0.0788286
-0.0838355
-0.0886422
-0.0932097
-0.0975252
-0.101571
-0.105327
-0.108784
-0.111935
-0.114776
-0.11731
-0.119545
-0.121494
-0.123172
-0.124596
-0.125783
-0.126754
-0.127534
-0.128146
-0.128613
-0.12895
-0.129167
-0.129269
-0.129261
-0.129144
-0.128919
-0.128588
-0.128155
-0.127636
-0.127064
-0.126479
-0.125918
-0.125402
-0.12494
-0.124543
-0.124225
-0.124
-0.123869
-0.123816
-3.77399
-3.75232
-3.70828
-3.64611
-3.56854
-3.48571
-3.41721
-3.32787
0.4697
0.279648
0.193274
0.0734713
-0.110891
-0.263367
-0.413549
-0.557107
-0.692609
-0.818669
-0.934792
-1.04073
-1.13644
-1.22186
-1.29691
-1.36144
-1.41528
-1.45826
-1.49022
-1.51102
-1.52054
-1.5187
-1.5055
-1.48103
-1.44544
-1.39902
-1.34211
-1.27519
-1.19884
-1.11374
-1.02069
-0.920575
-0.814393
-0.703221
-0.588245
-0.470698
-0.3519
-0.233213
-0.115984
-0.00150461
0.108847
0.213715
0.31183
0.40205
0.483307
0.554664
0.61537
0.664857
0.702708
0.728739
0.742981
0.745679
0.73731
0.718541
0.689961
0.65256
0.607375
0.55553
0.498194
0.436576
0.371882
0.305271
0.237857
0.170684
0.104717
0.0408648
-0.0197081
-0.0770209
-0.130537
-0.179713
-0.224199
-0.263807
-0.298426
-0.328032
-0.352688
-0.372518
-0.387697
-0.398457
-0.405054
-0.407789
-0.406982
-0.402982
-0.39603
-0.386481
-0.374665
-0.360903
-0.345505
-0.328767
-0.310962
-0.292347
-0.273165
-0.253643
-0.233984
-0.214377
-0.194998
-0.176005
-0.157538
-0.139729
-0.122707
-0.106599
-0.0913872
-0.0771801
-0.0640294
-0.0519717
-0.0410292
-0.0312128
-0.0225247
-0.0149592
-0.00850315
-0.00313781
0.00116389
0.0044373
0.00672362
0.0080713
0.00853259
0.00816131
0.00701417
0.00513964
0.00260153
-0.000537219
-0.00421177
-0.00835871
-0.0129169
-0.0178275
-0.0230338
-0.0284793
-0.0341064
-0.0398574
-0.0456741
-0.0515001
-0.0572861
-0.0629898
-0.0685796
-0.0740313
-0.0793235
-0.0844329
-0.0893303
-0.093965
-0.098343
-0.102431
-0.106215
-0.109686
-0.112838
-0.115668
-0.118179
-0.120381
-0.122288
-0.12392
-0.125294
-0.126427
-0.127343
-0.128066
-0.128626
-0.129045
-0.129341
-0.129521
-0.129589
-0.129549
-0.129401
-0.129146
-0.12878
-0.128307
-0.127743
-0.127123
-0.126495
-0.125898
-0.125355
-0.124872
-0.124455
-0.124123
-0.123893
-0.123766
-0.123719
-5.39339
-5.38133
-5.35692
-5.32295
-5.2789
-5.23152
-5.19237
-5.12906
-0.119478
-0.261858
-0.338929
-0.433023
-0.557095
-0.677718
-0.799147
-0.918614
-1.03418
-1.14446
-1.24822
-1.34456
-1.43266
-1.51181
-1.58138
-1.64082
-1.68963
-1.72738
-1.75368
-1.76819
-1.77068
-1.76096
-1.73897
-1.70474
-1.6584
-1.60023
-1.53061
-1.45006
-1.3592
-1.25883
-1.14983
-1.03321
-0.910109
-0.781739
-0.649447
-0.514647
-0.378847
-0.243717
-0.110488
0.0191989
0.143776
0.261724
0.371613
0.472158
0.562181
0.640647
0.706751
0.759873
0.799615
0.825832
0.838612
0.838336
0.825815
0.801471
0.766375
0.721634
0.6685
0.6083
0.542394
0.472173
0.399019
0.324238
0.249069
0.174658
0.102028
0.0320026
-0.033165
-0.095346
-0.152722
-0.204997
-0.251891
-0.293263
-0.32905
-0.359279
-0.384069
-0.403598
-0.4181
-0.427858
-0.433181
-0.434426
-0.431963
-0.426207
-0.417403
-0.405946
-0.3922
-0.376517
-0.359231
-0.340657
-0.321084
-0.30078
-0.279997
-0.258969
-0.237905
-0.216997
-0.196423
-0.17634
-0.156889
-0.138201
-0.12044
-0.103645
-0.0878688
-0.0731939
-0.0596659
-0.0473149
-0.0361563
-0.0261942
-0.0174251
-0.00983718
-0.003412
0.00187434
0.00605354
0.00916547
0.0112575
0.0123842
0.0126039
0.011974
0.0105554
0.00840106
0.0055762
0.00214761
-0.0018154
-0.00624595
-0.0110806
-0.0162593
-0.0217248
-0.0274197
-0.033285
-0.0392613
-0.0452874
-0.0513046
-0.0572612
-0.0631147
-0.0688356
-0.0744029
-0.079799
-0.085002
-0.0899807
-0.0946822
-0.0991149
-0.103242
-0.10705
-0.110532
-0.113684
-0.116502
-0.118989
-0.121158
-0.123026
-0.124614
-0.12594
-0.127022
-0.127885
-0.128556
-0.129066
-0.129441
-0.129698
-0.129845
-0.129883
-0.129813
-0.129638
-0.129355
-0.128959
-0.128449
-0.127841
-0.127176
-0.126506
-0.125877
-0.125309
-0.124805
-0.124371
-0.124026
-0.123792
-0.123669
-0.123629
-6.88357
-6.8772
-6.86423
-6.84708
-6.82517
-6.80381
-6.78806
-6.76318
-0.670042
-0.735883
-0.791496
-0.857431
-0.948832
-1.0444
-1.14508
-1.24764
-1.34953
-1.44874
-1.54363
-1.63281
-1.71502
-1.78916
-1.85425
-1.90942
-1.95388
-1.98696
-2.00808
-2.01674
-2.01256
-1.9953
-1.96479
-1.92103
-1.86415
-1.79441
-1.71223
-1.61818
-1.51295
-1.39741
-1.27258
-1.13959
-0.999693
-0.854275
-0.704834
-0.552925
-0.400141
-0.249152
-0.100009
0.0446414
0.183151
0.313852
0.435159
0.545657
0.644042
0.729174
0.800193
0.856461
0.897595
0.923484
0.934266
0.930361
0.91323
0.883014
0.841018
0.78862
0.727284
0.65855
0.583971
0.505124
0.423557
0.340718
0.257964
0.176543
0.0975842
0.0221693
-0.0484819
-0.114707
-0.175545
-0.230595
-0.279602
-0.322457
-0.359158
-0.389782
-0.414509
-0.433573
-0.447268
-0.455921
-0.459896
-0.459601
-0.455458
-0.447973
-0.437342
-0.424019
-0.408403
-0.390872
-0.371781
-0.351465
-0.330223
-0.308331
-0.286051
-0.26362
-0.241251
-0.219141
-0.197466
-0.176384
-0.156031
-0.136537
-0.118115
-0.100699
-0.0844155
-0.0693261
-0.0554683
-0.0428646
-0.0315241
-0.0214443
-0.0126163
-0.00502232
0.00136079
0.00656161
0.0106159
0.0135674
0.0154692
0.0163824
0.016371
0.0154965
0.0138215
0.0114036
0.00830929
0.00460899
0.000376532
-0.00431786
-0.00940887
-0.0148355
-0.0205405
-0.0264658
-0.0325513
-0.0387359
-0.0449557
-0.0511488
-0.0572615
-0.0632508
-0.0690896
-0.0747608
-0.0802505
-0.0855392
-0.0905895
-0.0953576
-0.0998378
-0.103998
-0.107827
-0.111319
-0.114469
-0.117275
-0.119739
-0.121876
-0.123707
-0.125253
-0.126535
-0.127569
-0.128382
-0.129004
-0.129467
-0.129801
-0.130023
-0.13014
-0.13015
-0.130055
-0.129855
-0.129548
-0.129125
-0.128581
-0.127932
-0.127222
-0.126512
-0.125854
-0.125265
-0.124743
-0.124292
-0.123934
-0.123696
-0.123578
-0.123548
-8.22869
-8.22525
-8.21829
-8.2093
-8.19798
-8.1874
-8.17896
-8.16804
-1.07811
-1.1079
-1.15665
-1.21037
-1.2833
-1.36417
-1.45158
-1.5429
-1.63562
-1.72749
-1.81653
-1.90099
-1.9793
-2.05005
-2.11198
-2.16396
-2.20498
-2.23417
-2.25077
-2.25417
-2.24385
-2.21948
-2.18087
-2.12797
-2.0609
-1.97993
-1.88551
-1.77827
-1.65897
-1.5286
-1.38826
-1.23922
-1.08288
-0.920783
-0.754587
-0.586033
-0.416993
-0.249671
-0.0853524
0.0737498
0.225738
0.368747
0.501028
0.621015
0.727291
0.818616
0.894072
0.953026
0.995097
1.02023
1.02863
1.0203
0.998587
0.962156
0.913005
0.852773
0.783133
0.705835
0.622627
0.535265
0.445453
0.354777
0.264704
0.176569
0.091582
0.0109839
-0.0644971
-0.134576
-0.198564
-0.256077
-0.306907
-0.350987
-0.38837
-0.419195
-0.443697
-0.46217
-0.474961
-0.482446
-0.485032
-0.483182
-0.47754
-0.468219
-0.455799
-0.440675
-0.42327
-0.40398
-0.383183
-0.361229
-0.338426
-0.315057
-0.291386
-0.267658
-0.244088
-0.220873
-0.198192
-0.176199
-0.155026
-0.134778
-0.1158
-0.0978093
-0.0810724
-0.0656178
-0.051473
-0.0386533
-0.0271607
-0.0169872
-0.00811827
-0.00053112
0.00580235
0.0109143
0.0148441
0.0176387
0.0193567
0.0200657
0.0198358
0.0187333
0.0168169
0.0141529
0.0108072
0.00685386
0.00237137
-0.00256685
-0.00789392
-0.0135483
-0.0194733
-0.0256103
-0.0318982
-0.0382744
-0.0446723
-0.0510269
-0.0572815
-0.0633934
-0.0693377
-0.0751013
-0.0806752
-0.0860421
-0.0911573
-0.0959869
-0.10051
-0.1047
-0.108546
-0.112046
-0.115195
-0.117988
-0.120431
-0.122537
-0.124332
-0.125839
-0.127079
-0.128069
-0.128836
-0.12941
-0.129831
-0.130127
-0.130318
-0.130408
-0.130393
-0.130274
-0.130053
-0.129725
-0.129278
-0.128703
-0.128015
-0.127262
-0.126515
-0.12583
-0.125222
-0.124684
-0.124218
-0.123847
-0.123607
-0.123495
-0.123475
-9.43068
-9.42868
-9.42461
-9.41945
-9.41297
-9.40709
-9.40216
-9.39678
-1.39157
-1.41166
-1.45379
-1.50127
-1.56514
-1.63829
-1.71869
-1.80396
-1.89169
-1.97959
-2.06554
-2.14756
-2.22385
-2.29278
-2.35285
-2.40273
-2.44124
-2.46734
-2.48014
-2.47889
-2.46299
-2.43204
-2.38581
-2.32423
-2.24741
-2.15566
-2.04946
-1.92948
-1.79658
-1.65183
-1.49647
-1.33189
-1.15963
-0.98138
-0.798975
-0.614318
-0.429467
-0.24662
-0.067581
0.105444
0.270365
0.425146
0.567872
0.696836
0.8105
0.907536
0.986968
1.04817
1.09077
1.11482
1.12081
1.11006
1.08122
1.03809
0.981649
0.91355
0.835648
0.749887
0.658214
0.562557
0.464772
0.366568
0.269516
0.175011
0.0842836
-0.00102265
-0.080938
-0.154573
-0.221391
-0.281076
-0.333458
-0.37853
-0.416396
-0.447256
-0.471406
-0.489193
-0.501019
-0.507308
-0.508493
-0.505058
-0.49784
-0.486899
-0.472771
-0.455932
-0.43683
-0.415883
-0.393487
-0.370007
-0.345755
-0.32102
-0.296069
-0.27115
-0.246479
-0.222257
-0.19866