/*--------------------------------*- C++ -*----------------------------------*\
  =========                 |
  \\      /  F ield         | OpenFOAM: The Open Source CFD Toolbox
   \\    /   O peration     | Website:  https://openfoam.org
    \\  /    A nd           | Version:  12
     \\/     M anipulation  |
\*---------------------------------------------------------------------------*/
FoamFile
{
    format      ascii;
    class       volVectorField;
    location    "2.6";
    object      U;
}
// * * * * * * * * * * * * * * * * * * * * * * * * * * * * * * * * * * * * * //

dimensions      [0 1 -1 0 0 0 0];

internalField   nonuniform List<vector> 
3829
(
(-2.37974e-06 2.21382e-05 0)
(-7.17005e-06 2.21285e-05 0)
(-1.19906e-05 2.19615e-05 0)
(-1.68228e-05 2.17102e-05 0)
(-2.16392e-05 2.13733e-05 0)
(-2.64193e-05 2.09567e-05 0)
(-3.11431e-05 2.0456e-05 0)
(-3.57913e-05 1.98792e-05 0)
(-4.03436e-05 1.92342e-05 0)
(-4.47767e-05 1.85167e-05 0)
(-4.90873e-05 1.77437e-05 0)
(-5.32653e-05 1.69154e-05 0)
(-5.72924e-05 1.60408e-05 0)
(-6.11617e-05 1.51286e-05 0)
(-6.48683e-05 1.41967e-05 0)
(-6.83913e-05 1.32517e-05 0)
(-7.17078e-05 1.23119e-05 0)
(-7.48163e-05 1.13907e-05 0)
(-7.7713e-05 1.05011e-05 0)
(-8.04001e-05 9.65462e-06 0)
(-8.28846e-05 8.86177e-06 0)
(-8.51776e-05 8.13167e-06 0)
(-8.72943e-05 7.47118e-06 0)
(-8.92527e-05 6.88561e-06 0)
(-9.10719e-05 6.37814e-06 0)
(-9.27736e-05 5.94941e-06 0)
(-9.43833e-05 5.59841e-06 0)
(-9.59151e-05 5.31635e-06 0)
(-9.73893e-05 5.10687e-06 0)
(-9.88329e-05 4.95792e-06 0)
(-0.000100258 4.85994e-06 0)
(-0.000101679 4.8026e-06 0)
(-0.000103096 4.77408e-06 0)
(-0.000104518 4.76251e-06 0)
(-0.000105932 4.75739e-06 0)
(-0.000107349 4.74485e-06 0)
(-0.000108788 4.71631e-06 0)
(-0.000110259 4.66182e-06 0)
(-0.000111749 4.57282e-06 0)
(-0.000113221 4.43538e-06 0)
(-0.000114688 4.24472e-06 0)
(-0.000116092 3.99164e-06 0)
(-0.00011745 3.66668e-06 0)
(-0.00011873 3.27344e-06 0)
(-0.000119856 2.80116e-06 0)
(-0.000120839 2.25232e-06 0)
(-0.000121632 1.62527e-06 0)
(-0.000122206 9.23975e-07 0)
(-0.000122517 1.5033e-07 0)
(-0.00012248 -6.91278e-07 0)
(-0.000122046 -1.60333e-06 0)
(-0.00012121 -2.57453e-06 0)
(-0.00011995 -3.59968e-06 0)
(-0.000118244 -4.66012e-06 0)
(-0.000116069 -5.75156e-06 0)
(-0.000113435 -6.86397e-06 0)
(-0.000110332 -7.97889e-06 0)
(-0.000106727 -9.08736e-06 0)
(-0.000102653 -1.01791e-05 0)
(-9.81118e-05 -1.12386e-05 0)
(-9.30965e-05 -1.22426e-05 0)
(-8.75941e-05 -1.31908e-05 0)
(-8.17177e-05 -1.40736e-05 0)
(-7.5479e-05 -1.48541e-05 0)
(-6.88158e-05 -1.55354e-05 0)
(-6.17703e-05 -1.60875e-05 0)
(-5.45026e-05 -1.655e-05 0)
(-4.69774e-05 -1.68503e-05 0)
(-3.92661e-05 -1.70355e-05 0)
(-3.14612e-05 -1.70541e-05 0)
(-2.35824e-05 -1.69521e-05 0)
(-1.57235e-05 -1.66788e-05 0)
(-7.9277e-06 -1.62799e-05 0)
(-3.63651e-07 -1.5742e-05 0)
(6.9858e-06 -1.50574e-05 0)
(1.40641e-05 -1.42461e-05 0)
(2.07786e-05 -1.33099e-05 0)
(2.70692e-05 -1.22614e-05 0)
(3.28741e-05 -1.11161e-05 0)
(3.81115e-05 -9.88709e-06 0)
(4.2746e-05 -8.59025e-06 0)
(4.67304e-05 -7.24099e-06 0)
(5.0046e-05 -5.85529e-06 0)
(5.26389e-05 -4.45796e-06 0)
(5.44814e-05 -3.05612e-06 0)
(5.56244e-05 -1.67354e-06 0)
(5.60166e-05 -3.29575e-07 0)
(5.5652e-05 9.63176e-07 0)
(5.4573e-05 2.18628e-06 0)
(5.28177e-05 3.33071e-06 0)
(5.04105e-05 4.38316e-06 0)
(4.7403e-05 5.3335e-06 0)
(4.38552e-05 6.17132e-06 0)
(3.98128e-05 6.88904e-06 0)
(3.53435e-05 7.48288e-06 0)
(3.05177e-05 7.95024e-06 0)
(2.54019e-05 8.28839e-06 0)
(2.00758e-05 8.50209e-06 0)
(1.46047e-05 8.59112e-06 0)
(9.07024e-06 8.56272e-06 0)
(3.54588e-06 8.42181e-06 0)
(-1.90372e-06 8.17955e-06 0)
(-7.20961e-06 7.84204e-06 0)
(-1.23092e-05 7.4213e-06 0)
(-1.71445e-05 6.92453e-06 0)
(-2.16673e-05 6.36697e-06 0)
(-2.58255e-05 5.75842e-06 0)
(-2.95891e-05 5.10857e-06 0)
(-3.29195e-05 4.43308e-06 0)
(-3.57892e-05 3.74205e-06 0)
(-3.81916e-05 3.03983e-06 0)
(-4.01076e-05 2.34458e-06 0)
(-4.15337e-05 1.66036e-06 0)
(-4.246e-05 1.00008e-06 0)
(-4.29199e-05 3.6089e-07 0)
(-4.29237e-05 -2.36415e-07 0)
(-4.24666e-05 -7.96379e-07 0)
(-4.15854e-05 -1.3127e-06 0)
(-4.03172e-05 -1.78365e-06 0)
(-3.8689e-05 -2.19565e-06 0)
(-3.67228e-05 -2.56489e-06 0)
(-3.44559e-05 -2.87147e-06 0)
(-3.19345e-05 -3.13514e-06 0)
(-2.91946e-05 -3.34167e-06 0)
(-2.62698e-05 -3.49893e-06 0)
(-2.32025e-05 -3.60336e-06 0)
(-2.00281e-05 -3.66503e-06 0)
(-1.67892e-05 -3.68132e-06 0)
(-1.35083e-05 -3.65734e-06 0)
(-1.02428e-05 -3.59944e-06 0)
(-7.01996e-06 -3.50202e-06 0)
(-3.84839e-06 -3.37553e-06 0)
(-7.80639e-07 -3.22527e-06 0)
(2.1577e-06 -3.05164e-06 0)
(4.96484e-06 -2.85562e-06 0)
(7.60825e-06 -2.64749e-06 0)
(1.00713e-05 -2.42363e-06 0)
(1.23431e-05 -2.19507e-06 0)
(1.44011e-05 -1.95856e-06 0)
(1.62468e-05 -1.71892e-06 0)
(1.78702e-05 -1.48168e-06 0)
(1.92656e-05 -1.24617e-06 0)
(2.04342e-05 -1.015e-06 0)
(2.13753e-05 -7.90692e-07 0)
(2.20926e-05 -5.75477e-07 0)
(2.25899e-05 -3.71562e-07 0)
(2.28746e-05 -1.77623e-07 0)
(2.29593e-05 4.17347e-09 0)
(2.28519e-05 1.71636e-07 0)
(2.25575e-05 3.24418e-07 0)
(2.20977e-05 4.64448e-07 0)
(2.14836e-05 5.87818e-07 0)
(2.0722e-05 6.9555e-07 0)
(1.98346e-05 7.89741e-07 0)
(1.88322e-05 8.68266e-07 0)
(1.77328e-05 9.33361e-07 0)
(1.65511e-05 9.8364e-07 0)
(1.52997e-05 1.02129e-06 0)
(1.39971e-05 1.04571e-06 0)
(1.26529e-05 1.05881e-06 0)
(1.12846e-05 1.06135e-06 0)
(9.90714e-06 1.05304e-06 0)
(8.52874e-06 1.03612e-06 0)
(7.16229e-06 1.0108e-06 0)
(5.81968e-06 9.78035e-07 0)
(4.51131e-06 9.38761e-07 0)
(3.24595e-06 8.93833e-07 0)
(2.03151e-06 8.44575e-07 0)
(8.7464e-07 7.91882e-07 0)
(-2.14143e-07 7.36187e-07 0)
(-1.23192e-06 6.77875e-07 0)
(-2.17836e-06 6.17921e-07 0)
(-3.0466e-06 5.56986e-07 0)
(-3.83336e-06 4.95577e-07 0)
(-4.5361e-06 4.34211e-07 0)
(-5.15334e-06 3.73217e-07 0)
(-5.68431e-06 3.13415e-07 0)
(-6.12892e-06 2.55184e-07 0)
(-6.48795e-06 1.99155e-07 0)
(-6.76293e-06 1.45644e-07 0)
(-6.95621e-06 9.48769e-08 0)
(-7.07092e-06 4.74026e-08 0)
(-7.11088e-06 3.45091e-09 0)
(-7.08062e-06 -3.71644e-08 0)
(-6.98455e-06 -7.40985e-08 0)
(-6.82704e-06 -1.07435e-07 0)
(-6.61275e-06 -1.37378e-07 0)
(-6.34607e-06 -1.64215e-07 0)
(-6.03104e-06 -1.88284e-07 0)
(-5.67128e-06 -2.09883e-07 0)
(-5.27006e-06 -2.29249e-07 0)
(-4.83043e-06 -2.46492e-07 0)
(-4.35549e-06 -2.61645e-07 0)
(-3.84842e-06 -2.74713e-07 0)
(-3.31239e-06 -2.85689e-07 0)
(-2.7508e-06 -2.94592e-07 0)
(-2.16719e-06 -3.01545e-07 0)
(-1.56499e-06 -3.06678e-07 0)
(-9.47315e-07 -3.10028e-07 0)
(-3.17497e-07 -3.11645e-07 0)
(-3.13544e-06 7.18934e-05 0)
(-9.44844e-06 7.17838e-05 0)
(-1.57699e-05 7.11397e-05 0)
(-2.20766e-05 7.01673e-05 0)
(-2.82933e-05 6.88708e-05 0)
(-3.44266e-05 6.72541e-05 0)
(-4.04412e-05 6.53436e-05 0)
(-4.62143e-05 6.31389e-05 0)
(-5.1832e-05 6.06774e-05 0)
(-5.72002e-05 5.79871e-05 0)
(-6.22815e-05 5.5095e-05 0)
(-6.7136e-05 5.20594e-05 0)
(-7.16786e-05 4.89009e-05 0)
(-7.58397e-05 4.56644e-05 0)
(-7.96366e-05 4.23933e-05 0)
(-8.30515e-05 3.91221e-05 0)
(-8.60171e-05 3.5901e-05 0)
(-8.85811e-05 3.27731e-05 0)
(-9.07589e-05 2.97868e-05 0)
(-9.25777e-05 2.69768e-05 0)
(-9.40689e-05 2.43818e-05 0)
(-9.52736e-05 2.20315e-05 0)
(-9.62382e-05 1.99502e-05 0)
(-9.70093e-05 1.8154e-05 0)
(-9.76405e-05 1.66465e-05 0)
(-9.81831e-05 1.54385e-05 0)
(-9.87264e-05 1.4513e-05 0)
(-9.92508e-05 1.3856e-05 0)
(-9.9796e-05 1.3438e-05 0)
(-0.000100474 1.32302e-05 0)
(-0.000101282 1.31989e-05 0)
(-0.000102242 1.3301e-05 0)
(-0.00010336 1.35245e-05 0)
(-0.000104631 1.38244e-05 0)
(-0.000106049 1.41589e-05 0)
(-0.00010761 1.44682e-05 0)
(-0.0001093 1.4707e-05 0)
(-0.00011113 1.48381e-05 0)
(-0.000113104 1.48261e-05 0)
(-0.000115159 1.46389e-05 0)
(-0.000117277 1.42464e-05 0)
(-0.000119423 1.36284e-05 0)
(-0.00012154 1.27605e-05 0)
(-0.000123601 1.16379e-05 0)
(-0.000125536 1.02469e-05 0)
(-0.000127303 8.58284e-06 0)
(-0.00012885 6.6549e-06 0)
(-0.000130128 4.46261e-06 0)
(-0.000131093 2.03133e-06 0)
(-0.000131683 -6.34255e-07 0)
(-0.000131816 -3.52162e-06 0)
(-0.000131448 -6.60701e-06 0)
(-0.000130522 -9.84847e-06 0)
(-0.000129026 -1.32116e-05 0)
(-0.000126985 -1.66722e-05 0)
(-0.000124341 -2.01836e-05 0)
(-0.000121094 -2.37111e-05 0)
(-0.000117255 -2.71972e-05 0)
(-0.000112828 -3.06259e-05 0)
(-0.00010776 -3.39454e-05 0)
(-0.000102119 -3.70983e-05 0)
(-9.59592e-05 -4.0049e-05 0)
(-8.92305e-05 -4.2762e-05 0)
(-8.20067e-05 -4.51713e-05 0)
(-7.42618e-05 -4.72573e-05 0)
(-6.61982e-05 -4.89796e-05 0)
(-5.77955e-05 -5.03134e-05 0)
(-4.90495e-05 -5.12437e-05 0)
(-4.01297e-05 -5.17413e-05 0)
(-3.11182e-05 -5.17805e-05 0)
(-2.20431e-05 -5.13846e-05 0)
(-1.29928e-05 -5.05232e-05 0)
(-4.16445e-06 -4.92341e-05 0)
(4.49127e-06 -4.74951e-05 0)
(1.28594e-05 -4.53352e-05 0)
(2.08477e-05 -4.27675e-05 0)
(2.83949e-05 -3.98351e-05 0)
(3.53912e-05 -3.65683e-05 0)
(4.17782e-05 -3.30157e-05 0)
(4.74757e-05 -2.92142e-05 0)
(5.24431e-05 -2.52202e-05 0)
(5.66381e-05 -2.10758e-05 0)
(6.00128e-05 -1.68429e-05 0)
(6.25486e-05 -1.25764e-05 0)
(6.42253e-05 -8.32378e-06 0)
(6.50556e-05 -4.1455e-06 0)
(6.50328e-05 -9.49039e-08 0)
(6.41566e-05 3.78021e-06 0)
(6.24839e-05 7.44349e-06 0)
(6.00738e-05 1.08498e-05 0)
(5.69493e-05 1.39638e-05 0)
(5.31741e-05 1.67525e-05 0)
(4.8818e-05 1.91909e-05 0)
(4.39489e-05 2.12614e-05 0)
(3.86516e-05 2.29494e-05 0)
(3.3e-05 2.42526e-05 0)
(2.70828e-05 2.51694e-05 0)
(2.09872e-05 2.57062e-05 0)
(1.4785e-05 2.58704e-05 0)
(8.57184e-06 2.56906e-05 0)
(2.43104e-06 2.51787e-05 0)
(-3.57101e-06 2.43662e-05 0)
(-9.36508e-06 2.32781e-05 0)
(-1.48873e-05 2.19482e-05 0)
(-2.00729e-05 2.04063e-05 0)
(-2.48691e-05 1.86904e-05 0)
(-2.9241e-05 1.68317e-05 0)
(-3.31449e-05 1.4866e-05 0)
(-3.65438e-05 1.28288e-05 0)
(-3.94416e-05 1.07508e-05 0)
(-4.18131e-05 8.66294e-06 0)
(-4.36413e-05 6.59854e-06 0)
(-4.49383e-05 4.57714e-06 0)
(-4.57128e-05 2.62726e-06 0)
(-4.59797e-05 7.65904e-07 0)
(-4.57542e-05 -9.81058e-07 0)
(-4.50686e-05 -2.61126e-06 0)
(-4.39449e-05 -4.10566e-06 0)
(-4.24035e-05 -5.45921e-06 0)
(-4.05134e-05 -6.65829e-06 0)
(-3.82831e-05 -7.70383e-06 0)
(-3.57572e-05 -8.59076e-06 0)
(-3.29954e-05 -9.32948e-06 0)
(-3.00059e-05 -9.90696e-06 0)
(-2.68468e-05 -1.03394e-05 0)
(-2.35645e-05 -1.06274e-05 0)
(-2.01962e-05 -1.07816e-05 0)
(-1.6773e-05 -1.08075e-05 0)
(-1.33361e-05 -1.07133e-05 0)
(-9.91995e-06 -1.05162e-05 0)
(-6.5597e-06 -1.02194e-05 0)
(-3.28597e-06 -9.83832e-06 0)
(-1.30017e-07 -9.38196e-06 0)
(2.89165e-06 -8.8612e-06 0)
(5.75811e-06 -8.28337e-06 0)
(8.44633e-06 -7.66462e-06 0)
(1.09391e-05 -7.00909e-06 0)
(1.32247e-05 -6.33367e-06 0)
(1.52934e-05 -5.64252e-06 0)
(1.71301e-05 -4.94478e-06 0)
(1.87358e-05 -4.24962e-06 0)
(2.01102e-05 -3.56218e-06 0)
(2.12489e-05 -2.89114e-06 0)
(2.21524e-05 -2.2417e-06 0)
(2.28251e-05 -1.61777e-06 0)
(2.3277e-05 -1.02534e-06 0)
(2.35161e-05 -4.63899e-07 0)
(2.35486e-05 5.95235e-08 0)
(2.33859e-05 5.42657e-07 0)
(2.304e-05 9.8411e-07 0)
(2.25267e-05 1.38346e-06 0)
(2.18554e-05 1.73851e-06 0)
(2.1043e-05 2.04974e-06 0)
(2.01058e-05 2.31764e-06 0)
(1.90549e-05 2.54313e-06 0)
(1.79094e-05 2.72566e-06 0)
(1.66839e-05 2.87006e-06 0)
(1.5392e-05 2.97349e-06 0)
(1.40517e-05 3.04352e-06 0)
(1.26747e-05 3.07813e-06 0)
(1.1275e-05 3.08164e-06 0)
(9.86963e-06 3.05671e-06 0)
(8.46747e-06 3.00504e-06 0)
(7.07946e-06 2.92968e-06 0)
(5.71842e-06 2.83219e-06 0)
(4.3945e-06 2.71692e-06 0)
(3.11692e-06 2.58572e-06 0)
(1.89354e-06 2.44132e-06 0)
(7.2971e-07 2.28744e-06 0)
(-3.6477e-07 2.12659e-06 0)
(-1.38634e-06 1.95725e-06 0)
(-2.33437e-06 1.78327e-06 0)
(-3.20265e-06 1.60633e-06 0)
(-3.98814e-06 1.42813e-06 0)
(-4.68858e-06 1.25014e-06 0)
(-5.30215e-06 1.07368e-06 0)
(-5.82805e-06 9.00593e-07 0)
(-6.26648e-06 7.3238e-07 0)
(-6.61834e-06 5.69937e-07 0)
(-6.88565e-06 4.15086e-07 0)
(-7.07053e-06 2.68693e-07 0)
(-7.17612e-06 1.31603e-07 0)
(-7.2071e-06 4.4609e-09 0)
(-7.16789e-06 -1.12463e-07 0)
(-7.06276e-06 -2.18704e-07 0)
(-6.8967e-06 -3.14474e-07 0)
(-6.67457e-06 -4.00383e-07 0)
(-6.4009e-06 -4.77302e-07 0)
(-6.07969e-06 -5.46297e-07 0)
(-5.71444e-06 -6.08264e-07 0)
(-5.30821e-06 -6.63917e-07 0)
(-4.86382e-06 -7.13551e-07 0)
(-4.38427e-06 -7.57203e-07 0)
(-3.87269e-06 -7.94841e-07 0)
(-3.33225e-06 -8.26388e-07 0)
(-2.76649e-06 -8.51936e-07 0)
(-2.17905e-06 -8.71846e-07 0)
(-1.57325e-06 -8.86552e-07 0)
(-9.52215e-07 -8.96098e-07 0)
(-3.19125e-07 -9.00713e-07 0)
(-5.06274e-06 0.00013393 0)
(-1.5219e-05 0.000133456 0)
(-2.53576e-05 0.000131861 0)
(-3.53745e-05 0.000129468 0)
(-4.51845e-05 0.000126274 0)
(-5.46064e-05 0.000122312 0)
(-6.36593e-05 0.000117621 0)
(-7.22387e-05 0.000112262 0)
(-8.01342e-05 0.000106301 0)
(-8.74116e-05 9.98235e-05 0)
(-9.3859e-05 9.29239e-05 0)
(-9.95398e-05 8.56675e-05 0)
(-0.000104546 7.81873e-05 0)
(-0.00010872 7.05876e-05 0)
(-0.000112152 6.30189e-05 0)
(-0.000114796 5.56263e-05 0)
(-0.000116585 4.85532e-05 0)
(-0.000117555 4.18742e-05 0)
(-0.000117783 3.57069e-05 0)
(-0.000117355 3.01296e-05 0)
(-0.00011633 2.52111e-05 0)
(-0.000114829 2.1001e-05 0)
(-0.000112967 1.7531e-05 0)
(-0.000110904 1.48097e-05 0)
(-0.000108698 1.28375e-05 0)
(-0.000106502 1.15886e-05 0)
(-0.000104497 1.103e-05 0)
(-0.000102759 1.11066e-05 0)
(-0.00010139 1.17175e-05 0)
(-0.000100437 1.28447e-05 0)
(-9.99792e-05 1.43571e-05 0)
(-9.98936e-05 1.61306e-05 0)
(-0.000100178 1.80694e-05 0)
(-0.000100993 2.00665e-05 0)
(-0.000102394 2.20615e-05 0)
(-0.000104391 2.39198e-05 0)
(-0.000106853 2.5546e-05 0)
(-0.000109726 2.68694e-05 0)
(-0.000112958 2.78096e-05 0)
(-0.000116469 2.83079e-05 0)
(-0.000120197 2.83093e-05 0)
(-0.000124049 2.77778e-05 0)
(-0.000127949 2.66821e-05 0)
(-0.000131808 2.50057e-05 0)
(-0.000135548 2.27461e-05 0)
(-0.000139062 1.9906e-05 0)
(-0.000142282 1.64973e-05 0)
(-0.000145103 1.2554e-05 0)
(-0.000147461 8.10015e-06 0)
(-0.00014934 3.20571e-06 0)
(-0.000150603 -2.10648e-06 0)
(-0.000151115 -7.79621e-06 0)
(-0.000150809 -1.37719e-05 0)
(-0.000149759 -1.99957e-05 0)
(-0.000147902 -2.63742e-05 0)
(-0.000145206 -3.28367e-05 0)
(-0.000141629 -3.92983e-05 0)
(-0.000137234 -4.56963e-05 0)
(-0.000132086 -5.19346e-05 0)
(-0.000126017 -5.79479e-05 0)
(-0.000119112 -6.36274e-05 0)
(-0.000111469 -6.89097e-05 0)
(-0.000103069 -7.37305e-05 0)
(-9.4005e-05 -7.79864e-05 0)
(-8.43303e-05 -8.1635e-05 0)
(-7.4092e-05 -8.46462e-05 0)
(-6.35341e-05 -8.69002e-05 0)
(-5.26145e-05 -8.84399e-05 0)
(-4.13797e-05 -8.91803e-05 0)
(-3.01179e-05 -8.91279e-05 0)
(-1.88353e-05 -8.82572e-05 0)
(-7.67388e-06 -8.65904e-05 0)
(3.27745e-06 -8.41222e-05 0)
(1.39081e-05 -8.08739e-05 0)
(2.40997e-05 -7.68997e-05 0)
(3.37524e-05 -7.22312e-05 0)
(4.27217e-05 -6.69435e-05 0)
(5.09351e-05 -6.10983e-05 0)
(5.83219e-05 -5.47684e-05 0)
(6.47828e-05 -4.80514e-05 0)
(7.02733e-05 -4.10133e-05 0)
(7.47454e-05 -3.37698e-05 0)
(7.81484e-05 -2.64024e-05 0)
(8.04884e-05 -1.90185e-05 0)
(8.17307e-05 -1.1708e-05 0)
(8.19173e-05 -4.56105e-06 0)
(8.1056e-05 2.31789e-06 0)
(7.91988e-05 8.85905e-06 0)
(7.64046e-05 1.4994e-05 0)
(7.27266e-05 2.06447e-05 0)
(6.82317e-05 2.57545e-05 0)
(6.30094e-05 3.02809e-05 0)
(5.71681e-05 3.41794e-05 0)
(5.07882e-05 3.74277e-05 0)
(4.39849e-05 4.00141e-05 0)
(3.68648e-05 4.19392e-05 0)
(2.95195e-05 4.31998e-05 0)
(2.20532e-05 4.38219e-05 0)
(1.45873e-05 4.38266e-05 0)
(7.21363e-06 4.32558e-05 0)
(9.02843e-09 4.21476e-05 0)
(-6.93216e-06 4.05522e-05 0)
(-1.35411e-05 3.85168e-05 0)
(-1.97484e-05 3.61016e-05 0)
(-2.54912e-05 3.33614e-05 0)
(-3.07241e-05 3.0356e-05 0)
(-3.54076e-05 2.7145e-05 0)
(-3.95059e-05 2.37922e-05 0)
(-4.29987e-05 2.03459e-05 0)
(-4.58781e-05 1.68657e-05 0)
(-4.81348e-05 1.33899e-05 0)
(-4.97806e-05 9.97649e-06 0)
(-5.08287e-05 6.65731e-06 0)
(-5.1281e-05 3.46994e-06 0)
(-5.11776e-05 4.52829e-07 0)
(-5.05629e-05 -2.37509e-06 0)
(-4.94546e-05 -4.98689e-06 0)
(-4.78837e-05 -7.36654e-06 0)
(-4.58977e-05 -9.50105e-06 0)
(-4.35408e-05 -1.13868e-05 0)
(-4.08528e-05 -1.30126e-05 0)
(-3.7891e-05 -1.43849e-05 0)
(-3.46864e-05 -1.5498e-05 0)
(-3.12826e-05 -1.63647e-05 0)
(-2.77433e-05 -1.6992e-05 0)
(-2.40984e-05 -1.73885e-05 0)
(-2.03918e-05 -1.7572e-05 0)
(-1.66596e-05 -1.75553e-05 0)
(-1.29468e-05 -1.73509e-05 0)
(-9.29709e-06 -1.69734e-05 0)
(-5.73388e-06 -1.64502e-05 0)
(-2.2776e-06 -1.57935e-05 0)
(1.03156e-06 -1.50241e-05 0)
(4.17307e-06 -1.41505e-05 0)
(7.13518e-06 -1.31982e-05 0)
(9.89331e-06 -1.21828e-05 0)
(1.24311e-05 -1.11147e-05 0)
(1.47382e-05 -1.00158e-05 0)
(1.68081e-05 -8.89507e-06 0)
(1.86328e-05 -7.76861e-06 0)
(2.02113e-05 -6.64872e-06 0)
(2.15398e-05 -5.5445e-06 0)
(2.26196e-05 -4.47118e-06 0)
(2.34586e-05 -3.43236e-06 0)
(2.40597e-05 -2.43801e-06 0)
(2.44343e-05 -1.49333e-06 0)
(2.45891e-05 -6.05609e-07 0)
(2.45318e-05 2.21635e-07 0)
(2.42795e-05 9.82653e-07 0)
(2.3841e-05 1.67862e-06 0)
(2.32362e-05 2.30572e-06 0)
(2.2477e-05 2.86204e-06 0)
(2.15756e-05 3.34761e-06 0)
(2.05534e-05 3.76485e-06 0)
(1.94197e-05 4.11318e-06 0)
(1.8198e-05 4.39619e-06 0)
(1.68996e-05 4.61512e-06 0)
(1.55405e-05 4.77346e-06 0)
(1.41402e-05 4.87508e-06 0)
(1.27041e-05 4.92298e-06 0)
(1.12549e-05 4.91982e-06 0)
(9.80442e-06 4.87355e-06 0)
(8.36098e-06 4.78476e-06 0)
(6.93691e-06 4.6592e-06 0)
(5.54561e-06 4.50015e-06 0)
(4.19752e-06 4.31256e-06 0)
(2.89921e-06 4.101e-06 0)
(1.66061e-06 3.86913e-06 0)
(4.87693e-07 3.62142e-06 0)
(-6.15396e-07 3.36313e-06 0)
(-1.64426e-06 3.09302e-06 0)
(-2.59497e-06 2.81585e-06 0)
(-3.46337e-06 2.53406e-06 0)
(-4.24655e-06 2.25037e-06 0)
(-4.94257e-06 1.96727e-06 0)
(-5.54962e-06 1.68729e-06 0)
(-6.06683e-06 1.4124e-06 0)
(-6.49523e-06 1.14497e-06 0)
(-6.83544e-06 8.87459e-07 0)
(-7.08912e-06 6.41847e-07 0)
(-7.25968e-06 4.10121e-07 0)
(-7.35055e-06 1.93315e-07 0)
(-7.36626e-06 -7.64316e-09 0)
(-7.31153e-06 -1.91703e-07 0)
(-7.19121e-06 -3.58604e-07 0)
(-7.01082e-06 -5.08653e-07 0)
(-6.77562e-06 -6.42915e-07 0)
(-6.49038e-06 -7.62892e-07 0)
(-6.1591e-06 -8.70547e-07 0)
(-5.78499e-06 -9.67413e-07 0)
(-5.3707e-06 -1.0547e-06 0)
(-4.91859e-06 -1.13276e-06 0)
(-4.43146e-06 -1.20153e-06 0)
(-3.91238e-06 -1.26074e-06 0)
(-3.36461e-06 -1.31025e-06 0)
(-2.79194e-06 -1.35019e-06 0)
(-2.19822e-06 -1.38117e-06 0)
(-1.58654e-06 -1.40405e-06 0)
(-9.60036e-07 -1.41876e-06 0)
(-3.21757e-07 -1.42594e-06 0)
(-9.04686e-06 0.000234967 0)
(-2.71732e-05 0.000233566 0)
(-4.51325e-05 0.000229953 0)
(-6.27494e-05 0.000224529 0)
(-7.97965e-05 0.000217323 0)
(-9.5991e-05 0.000208414 0)
(-0.000111132 0.000197913 0)
(-0.00012495 0.000185966 0)
(-0.000137359 0.000172776 0)
(-0.000148139 0.000158457 0)
(-0.000157408 0.000143255 0)
(-0.000165021 0.000127339 0)
(-0.000170704 0.000111077 0)
(-0.000174328 9.48081e-05 0)
(-0.000175719 7.87806e-05 0)
(-0.000174964 6.34268e-05 0)
(-0.000172479 4.90898e-05 0)
(-0.000168511 3.60264e-05 0)
(-0.000163093 2.44028e-05 0)
(-0.000156585 1.4356e-05 0)
(-0.000149214 6.01137e-06 0)
(-0.00014126 -5.5474e-07 0)
(-0.000133021 -5.31495e-06 0)
(-0.000124735 -8.27896e-06 0)
(-0.000116645 -9.52682e-06 0)
(-0.000108987 -9.10898e-06 0)
(-0.000102002 -7.28242e-06 0)
(-9.60244e-05 -4.11067e-06 0)
(-9.08766e-05 8.10692e-08 0)
(-8.67912e-05 5.18213e-06 0)
(-8.42929e-05 1.0852e-05 0)
(-8.31618e-05 1.68333e-05 0)
(-8.32762e-05 2.2897e-05 0)
(-8.44417e-05 2.88042e-05 0)
(-8.67628e-05 3.43434e-05 0)
(-9.03725e-05 3.93662e-05 0)
(-9.4902e-05 4.37253e-05 0)
(-0.000100256 4.73342e-05 0)
(-0.000106353 5.00475e-05 0)
(-0.00011299 5.18024e-05 0)
(-0.000120022 5.25392e-05 0)
(-0.00012729 5.22165e-05 0)
(-0.000134637 5.08121e-05 0)
(-0.000141897 4.83338e-05 0)
(-0.000148916 4.47861e-05 0)
(-0.000155583 4.02205e-05 0)
(-0.000161715 3.46773e-05 0)
(-0.000167213 2.82252e-05 0)
(-0.000171894 2.09452e-05 0)
(-0.000175718 1.28972e-05 0)
(-0.000178734 4.23203e-06 0)
(-0.000180624 -4.9853e-06 0)
(-0.000181354 -1.46545e-05 0)
(-0.000180936 -2.46876e-05 0)
(-0.000179274 -3.49163e-05 0)
(-0.000176371 -4.52389e-05 0)
(-0.000172274 -5.55358e-05 0)
(-0.000166975 -6.56381e-05 0)
(-0.000160494 -7.54382e-05 0)
(-0.000152738 -8.48143e-05 0)
(-0.000143809 -9.3642e-05 0)
(-0.000133947 -0.000101782 0)
(-0.000122979 -0.000109127 0)
(-0.000111073 -0.000115598 0)
(-9.84816e-05 -0.000121042 0)
(-8.51341e-05 -0.00012545 0)
(-7.12987e-05 -0.000128747 0)
(-5.70979e-05 -0.000130832 0)
(-4.25643e-05 -0.000131693 0)
(-2.80071e-05 -0.000131336 0)
(-1.35015e-05 -0.000129704 0)
(7.95982e-07 -0.000126855 0)
(1.47075e-05 -0.000122786 0)
(2.80777e-05 -0.000117581 0)
(4.07732e-05 -0.000111254 0)
(5.26518e-05 -0.000103947 0)
(6.3557e-05 -9.57228e-05 0)
(7.34094e-05 -8.67092e-05 0)
(8.20643e-05 -7.70134e-05 0)
(8.94705e-05 -6.67935e-05 0)
(9.55514e-05 -5.61746e-05 0)
(0.000100243 -4.53249e-05 0)
(0.000103542 -3.43564e-05 0)
(0.000105423 -2.34406e-05 0)
(0.000105929 -1.27098e-05 0)
(0.000105057 -2.30834e-06 0)
(0.000102878 7.64121e-06 0)
(9.95054e-05 1.70171e-05 0)
(9.49832e-05 2.57103e-05 0)
(8.94154e-05 3.36244e-05 0)
(8.29326e-05 4.07004e-05 0)
(7.56416e-05 4.68527e-05 0)
(6.76718e-05 5.20681e-05 0)
(5.9177e-05 5.63e-05 0)
(5.03047e-05 5.95522e-05 0)
(4.11529e-05 6.18169e-05 0)
(3.18694e-05 6.31408e-05 0)
(2.25978e-05 6.3538e-05 0)
(1.34474e-05 6.30765e-05 0)
(4.54723e-06 6.18105e-05 0)
(-4.00959e-06 5.98081e-05 0)
(-1.21402e-05 5.71439e-05 0)
(-1.97621e-05 5.3896e-05 0)
(-2.68024e-05 5.01522e-05 0)
(-3.32075e-05 4.60023e-05 0)
(-3.8925e-05 4.15218e-05 0)
(-4.39191e-05 3.68078e-05 0)
(-4.81801e-05 3.195e-05 0)
(-5.16905e-05 2.69949e-05 0)
(-5.44811e-05 2.20454e-05 0)
(-5.65398e-05 1.7144e-05 0)
(-5.78719e-05 1.23626e-05 0)
(-5.8536e-05 7.76582e-06 0)
(-5.85331e-05 3.38364e-06 0)
(-5.79206e-05 -7.42754e-07 0)
(-5.67418e-05 -4.58032e-06 0)
(-5.50374e-05 -8.09048e-06 0)
(-5.28598e-05 -1.12688e-05 0)
(-5.02554e-05 -1.40959e-05 0)
(-4.72942e-05 -1.65673e-05 0)
(-4.40077e-05 -1.86719e-05 0)
(-4.04522e-05 -2.04254e-05 0)
(-3.66941e-05 -2.18217e-05 0)
(-3.27671e-05 -2.28874e-05 0)
(-2.87215e-05 -2.36296e-05 0)
(-2.4619e-05 -2.40614e-05 0)
(-2.05025e-05 -2.42023e-05 0)
(-1.63928e-05 -2.40716e-05 0)
(-1.23331e-05 -2.37012e-05 0)
(-8.3809e-06 -2.31095e-05 0)
(-4.5638e-06 -2.23152e-05 0)
(-8.98345e-07 -2.13566e-05 0)
(2.59069e-06 -2.02512e-05 0)
(5.88138e-06 -1.90189e-05 0)
(8.94458e-06 -1.76818e-05 0)
(1.17823e-05 -1.62681e-05 0)
(1.43696e-05 -1.47927e-05 0)
(1.66986e-05 -1.32829e-05 0)
(1.877e-05 -1.17505e-05 0)
(2.05662e-05 -1.02188e-05 0)
(2.20995e-05 -8.70232e-06 0)
(2.33658e-05 -7.21402e-06 0)
(2.43703e-05 -5.76429e-06 0)
(2.5123e-05 -4.36982e-06 0)
(2.5626e-05 -3.03887e-06 0)
(2.58939e-05 -1.77615e-06 0)
(2.59374e-05 -5.96259e-07 0)
(2.57654e-05 5.0283e-07 0)
(2.53964e-05 1.51285e-06 0)
(2.48446e-05 2.43188e-06 0)
(2.41225e-05 3.25548e-06 0)
(2.32447e-05 3.98529e-06 0)
(2.2233e-05 4.62158e-06 0)
(2.11036e-05 5.16257e-06 0)
(1.98682e-05 5.61368e-06 0)
(1.85489e-05 5.97927e-06 0)
(1.71592e-05 6.25448e-06 0)
(1.5716e-05 6.45488e-06 0)
(1.42365e-05 6.57443e-06 0)
(1.27299e-05 6.62501e-06 0)
(1.12165e-05 6.61196e-06 0)
(9.71024e-06 6.53523e-06 0)
(8.21679e-06 6.40637e-06 0)
(6.75003e-06 6.22887e-06 0)
(5.32158e-06 6.00965e-06 0)
(3.94274e-06 5.75308e-06 0)
(2.62064e-06 5.46465e-06 0)
(1.3629e-06 5.15064e-06 0)
(1.76336e-07 4.81548e-06 0)
(-9.3607e-07 4.46554e-06 0)
(-1.97143e-06 4.10266e-06 0)
(-2.92511e-06 3.73075e-06 0)
(-3.79343e-06 3.35368e-06 0)
(-4.57351e-06 2.97447e-06 0)
(-5.26346e-06 2.5962e-06 0)
(-5.86217e-06 2.2221e-06 0)
(-6.36909e-06 1.85497e-06 0)
(-6.78418e-06 1.49797e-06 0)
(-7.10887e-06 1.15503e-06 0)
(-7.34569e-06 8.28064e-07 0)
(-7.49786e-06 5.19814e-07 0)
(-7.56959e-06 2.32079e-07 0)
(-7.56561e-06 -3.4206e-08 0)
(-7.49096e-06 -2.7737e-07 0)
(-7.35119e-06 -4.97189e-07 0)
(-7.15249e-06 -6.94034e-07 0)
(-6.9007e-06 -8.69542e-07 0)
(-6.60103e-06 -1.0259e-06 0)
(-6.25742e-06 -1.16631e-06 0)
(-5.87263e-06 -1.29297e-06 0)
(-5.44861e-06 -1.40773e-06 0)
(-4.98706e-06 -1.5108e-06 0)
(-4.49047e-06 -1.6018e-06 0)
(-3.96191e-06 -1.68001e-06 0)
(-3.40484e-06 -1.74505e-06 0)
(-2.82342e-06 -1.79726e-06 0)
(-2.22183e-06 -1.83746e-06 0)
(-1.60281e-06 -1.8671e-06 0)
(-9.69578e-07 -1.886e-06 0)
(-3.24988e-07 -1.89528e-06 0)
(-1.69914e-05 0.000390977 0)
(-5.08801e-05 0.00038744 0)
(-8.43408e-05 0.00037964 0)
(-0.00011689 0.000367919 0)
(-0.000148017 0.000352387 0)
(-0.000177075 0.000333225 0)
(-0.000203703 0.000310723 0)
(-0.000227286 0.000285267 0)
(-0.000247885 0.000257361 0)
(-0.00026537 0.000227586 0)
(-0.000279327 0.000196709 0)
(-0.000289187 0.000165463 0)
(-0.000294161 0.000134568 0)
(-0.000294888 0.000104571 0)
(-0.000291037 7.59989e-05 0)
(-0.000282191 4.91236e-05 0)
(-0.000269418 2.42549e-05 0)
(-0.000253815 1.80474e-06 0)
(-0.000236152 -1.78493e-05 0)
(-0.000216811 -3.433e-05 0)
(-0.000196217 -4.73484e-05 0)
(-0.000175028 -5.67351e-05 0)
(-0.000153824 -6.24144e-05 0)
(-0.000133295 -6.44588e-05 0)
(-0.000113704 -6.30427e-05 0)
(-9.60251e-05 -5.82353e-05 0)
(-8.04633e-05 -5.06793e-05 0)
(-6.73756e-05 -4.05926e-05 0)
(-5.69966e-05 -2.86121e-05 0)
(-4.93802e-05 -1.53284e-05 0)
(-4.52512e-05 -1.43757e-06 0)
(-4.38806e-05 1.24523e-05 0)
(-4.50922e-05 2.62161e-05 0)
(-4.8857e-05 3.93215e-05 0)
(-5.47767e-05 5.14343e-05 0)
(-6.25403e-05 6.2245e-05 0)
(-7.16928e-05 7.15621e-05 0)
(-8.21316e-05 7.91626e-05 0)
(-9.36743e-05 8.49119e-05 0)
(-0.000105848 8.87653e-05 0)
(-0.00011848 9.06661e-05 0)
(-0.000131308 9.06103e-05 0)
(-0.000144049 8.86632e-05 0)
(-0.0001565 8.48614e-05 0)
(-0.000168412 7.9314e-05 0)
(-0.00017955 7.20959e-05 0)
(-0.000189784 6.3378e-05 0)
(-0.000198876 5.32433e-05 0)
(-0.000206799 4.18584e-05 0)
(-0.000213305 2.9384e-05 0)
(-0.000218285 1.60139e-05 0)
(-0.000221794 1.93133e-06 0)
(-0.000223708 -1.26872e-05 0)
(-0.000223883 -2.77308e-05 0)
(-0.000222233 -4.30121e-05 0)
(-0.000218934 -5.83217e-05 0)
(-0.000213757 -7.34775e-05 0)
(-0.000206821 -8.82881e-05 0)
(-0.000198374 -0.000102553 0)
(-0.000188226 -0.00011606 0)
(-0.000176438 -0.000128681 0)
(-0.00016321 -0.000140224 0)
(-0.000148719 -0.000150538 0)
(-0.000132941 -0.000159545 0)
(-0.000116183 -0.000167092 0)
(-9.87333e-05 -0.000172999 0)
(-8.05702e-05 -0.000177317 0)
(-6.18759e-05 -0.00017984 0)
(-4.30153e-05 -0.000180637 0)
(-2.41473e-05 -0.000179626 0)
(-5.43316e-06 -0.000176841 0)
(1.28347e-05 -0.000172308 0)
(3.04872e-05 -0.000166084 0)
(4.73657e-05 -0.000158261 0)
(6.32183e-05 -0.000148942 0)
(7.78257e-05 -0.000138267 0)
(9.10892e-05 -0.000126394 0)
(0.000102841 -0.000113493 0)
(0.000112956 -9.97433e-05 0)
(0.000121311 -8.53401e-05 0)
(0.000127856 -7.04819e-05 0)
(0.000132606 -5.53758e-05 0)
(0.000135535 -4.02492e-05 0)
(0.000136614 -2.53097e-05 0)
(0.000135908 -1.0755e-05 0)
(0.000133502 3.23687e-06 0)
(0.000129494 1.65022e-05 0)
(0.000123987 2.8862e-05 0)
(0.000117111 4.01995e-05 0)
(0.00010906 5.03662e-05 0)
(9.99435e-05 5.93374e-05 0)
(8.99659e-05 6.69876e-05 0)
(7.93306e-05 7.33073e-05 0)
(6.81635e-05 7.82831e-05 0)
(5.66728e-05 8.18765e-05 0)
(4.50523e-05 8.41837e-05 0)
(3.34427e-05 8.52228e-05 0)
(2.19904e-05 8.50476e-05 0)
(1.08919e-05 8.37449e-05 0)
(2.32952e-07 8.14325e-05 0)
(-9.87705e-06 7.82014e-05 0)
(-1.93355e-05 7.4146e-05 0)
(-2.8058e-05 6.94017e-05 0)
(-3.59634e-05 6.40685e-05 0)
(-4.30272e-05 5.82671e-05 0)
(-4.92023e-05 5.21371e-05 0)
(-5.44321e-05 4.57562e-05 0)
(-5.87909e-05 3.92508e-05 0)
(-6.22453e-05 3.26952e-05 0)
(-6.48066e-05 2.61982e-05 0)
(-6.6532e-05 1.98482e-05 0)
(-6.74001e-05 1.3701e-05 0)
(-6.75098e-05 7.83377e-06 0)
(-6.69116e-05 2.3005e-06 0)
(-6.56442e-05 -2.87668e-06 0)
(-6.37594e-05 -7.64046e-06 0)
(-6.13312e-05 -1.19788e-05 0)
(-5.84283e-05 -1.58588e-05 0)
(-5.5097e-05 -1.92767e-05 0)
(-5.13985e-05 -2.22302e-05 0)
(-4.74048e-05 -2.47222e-05 0)
(-4.31812e-05 -2.67497e-05 0)
(-3.87777e-05 -2.83541e-05 0)
(-3.42561e-05 -2.95118e-05 0)
(-2.96559e-05 -3.02834e-05 0)
(-2.50277e-05 -3.06739e-05 0)
(-2.04224e-05 -3.07056e-05 0)
(-1.58901e-05 -3.04071e-05 0)
(-1.14722e-05 -2.98095e-05 0)
(-7.19128e-06 -2.89585e-05 0)
(-3.09733e-06 -2.7866e-05 0)
(7.93517e-07 -2.65772e-05 0)
(4.47203e-06 -2.51125e-05 0)
(7.91292e-06 -2.35027e-05 0)
(1.10932e-05 -2.17758e-05 0)
(1.40039e-05 -1.99592e-05 0)
(1.66311e-05 -1.8086e-05 0)
(1.89701e-05 -1.61761e-05 0)
(2.10226e-05 -1.42496e-05 0)
(2.27779e-05 -1.23309e-05 0)
(2.4251e-05 -1.04358e-05 0)
(2.54444e-05 -8.58785e-06 0)
(2.63564e-05 -6.79549e-06 0)
(2.69991e-05 -5.07314e-06 0)
(2.73905e-05 -3.43379e-06 0)
(2.75351e-05 -1.88907e-06 0)
(2.74492e-05 -4.42828e-07 0)
(2.71484e-05 8.98511e-07 0)
(2.66454e-05 2.12935e-06 0)
(2.59545e-05 3.24237e-06 0)
(2.50988e-05 4.23905e-06 0)
(2.40959e-05 5.11682e-06 0)
(2.29552e-05 5.87968e-06 0)
(2.1703e-05 6.52568e-06 0)
(2.03553e-05 7.06057e-06 0)
(1.89241e-05 7.4856e-06 0)
(1.74326e-05 7.80782e-06 0)
(1.58954e-05 8.02961e-06 0)
(1.43274e-05 8.16211e-06 0)
(1.27456e-05 8.2046e-06 0)
(1.11602e-05 8.17306e-06 0)
(9.58871e-06 8.06631e-06 0)
(8.04248e-06 7.89238e-06 0)
(6.52884e-06 7.66203e-06 0)
(5.06149e-06 7.38067e-06 0)
(3.6492e-06 7.05544e-06 0)
(2.30002e-06 6.69271e-06 0)
(1.02219e-06 6.2994e-06 0)
(-1.78438e-07 5.88368e-06 0)
(-1.30057e-06 5.44903e-06 0)
(-2.3425e-06 4.99977e-06 0)
(-3.29857e-06 4.54117e-06 0)
(-4.16573e-06 4.0772e-06 0)
(-4.94198e-06 3.61113e-06 0)
(-5.62536e-06 3.14637e-06 0)
(-6.2146e-06 2.68645e-06 0)
(-6.70906e-06 2.23555e-06 0)
(-7.10888e-06 1.79771e-06 0)
(-7.41601e-06 1.37704e-06 0)
(-7.63336e-06 9.76976e-07 0)
(-7.76446e-06 6.00495e-07 0)
(-7.81441e-06 2.49264e-07 0)
(-7.78796e-06 -7.46507e-08 0)
(-7.69041e-06 -3.69758e-07 0)
(-7.52831e-06 -6.35612e-07 0)
(-7.30864e-06 -8.72465e-07 0)
(-7.03803e-06 -1.0827e-06 0)
(-6.72235e-06 -1.26916e-06 0)
(-6.36544e-06 -1.43689e-06 0)
(-5.96935e-06 -1.58873e-06 0)
(-5.53512e-06 -1.72741e-06 0)
(-5.06338e-06 -1.85263e-06 0)
(-4.55628e-06 -1.96354e-06 0)
(-4.01688e-06 -2.05847e-06 0)
(-3.4492e-06 -2.13686e-06 0)
(-2.85789e-06 -2.19937e-06 0)
(-2.24753e-06 -2.24699e-06 0)
(-1.62047e-06 -2.28199e-06 0)
(-9.79911e-07 -2.30439e-06 0)
(-3.28486e-07 -2.31522e-06 0)
(-3.19136e-05 0.000650535 0)
(-9.54616e-05 0.000642363 0)
(-0.000158111 0.000625542 0)
(-0.000218726 0.000600276 0)
(-0.000276119 0.000566808 0)
(-0.00032909 0.000525595 0)
(-0.000376428 0.000477344 0)
(-0.000416842 0.00042307 0)
(-0.000449407 0.00036392 0)
(-0.000472767 0.000301462 0)
(-0.000486485 0.000237384 0)
(-0.000490851 0.000173327 0)
(-0.000486688 0.000110595 0)
(-0.000475143 5.03885e-05 0)