#           v             n
     0.523599   1.63343e-05
     0.648652   6.14869e-06
     0.790112   9.23494e-06
     0.953116   1.46316e-05
      1.13449   2.32263e-05
      1.34047   3.85667e-05
      1.56672   6.36317e-05
      1.82069   0.000108681
      2.09677   0.000182477
      2.40376   0.000313205
      2.73462   0.000521381
      3.09966   0.000873827
      3.49026     0.0013962
      3.91837    0.00220382
      4.37366    0.00324324
      4.86986    0.00460192
       5.3948    0.00591055
      5.96412    0.00709215
      6.56366    0.00740609
      7.21112    0.00693976
      7.89023    0.00536145
      8.62085    0.00347679
      9.38447    0.00160111
      10.2033   0.000425638
      11.0564             0
      11.9684             0
      12.9159             0
      13.9262             0
      14.9731             0
