/*--------------------------------*- C++ -*----------------------------------*\
  =========                 |
  \\      /  F ield         | OpenFOAM: The Open Source CFD Toolbox
   \\    /   O peration     | Website:  https://openfoam.org
    \\  /    A nd           | Version:  12
     \\/     M anipulation  |
\*---------------------------------------------------------------------------*/
FoamFile
{
    format      ascii;
    class       volVectorField;
    location    "1.48";
    object      U;
}
// * * * * * * * * * * * * * * * * * * * * * * * * * * * * * * * * * * * * * //

dimensions      [0 1 -1 0 0 0 0];

internalField   nonuniform List<vector> 
3829
(
(-3.6007e-06 3.49455e-05 0)
(-1.08511e-05 3.49527e-05 0)
(-1.81755e-05 3.4867e-05 0)
(-2.55656e-05 3.47364e-05 0)
(-3.30123e-05 3.45596e-05 0)
(-4.05066e-05 3.43364e-05 0)
(-4.80393e-05 3.40641e-05 0)
(-5.56006e-05 3.37424e-05 0)
(-6.31797e-05 3.33707e-05 0)
(-7.07652e-05 3.29481e-05 0)
(-7.83446e-05 3.24738e-05 0)
(-8.59046e-05 3.19478e-05 0)
(-9.3433e-05 3.13689e-05 0)
(-0.000100915 3.07371e-05 0)
(-0.000108336 3.00527e-05 0)
(-0.00011568 2.93157e-05 0)
(-0.00012293 2.85265e-05 0)
(-0.000130067 2.76863e-05 0)
(-0.000137075 2.67963e-05 0)
(-0.000143933 2.58583e-05 0)
(-0.000150622 2.48743e-05 0)
(-0.000157122 2.38467e-05 0)
(-0.000163415 2.27779e-05 0)
(-0.00016948 2.16712e-05 0)
(-0.0001753 2.05296e-05 0)
(-0.000180856 1.9356e-05 0)
(-0.000186131 1.81544e-05 0)
(-0.000191109 1.69282e-05 0)
(-0.000195773 1.56813e-05 0)
(-0.000200111 1.44167e-05 0)
(-0.000204109 1.31382e-05 0)
(-0.000207756 1.18501e-05 0)
(-0.000211039 1.05548e-05 0)
(-0.000213943 9.25782e-06 0)
(-0.00021646 7.96276e-06 0)
(-0.000218585 6.67255e-06 0)
(-0.000220314 5.38919e-06 0)
(-0.000221653 4.11452e-06 0)
(-0.00022261 2.85e-06 0)
(-0.000223185 1.59711e-06 0)
(-0.000223364 3.59889e-07 0)
(-0.000223121 -8.54709e-07 0)
(-0.000222449 -2.04526e-06 0)
(-0.000221362 -3.21015e-06 0)
(-0.000219862 -4.34705e-06 0)
(-0.000217956 -5.45349e-06 0)
(-0.000215649 -6.52695e-06 0)
(-0.000212947 -7.56472e-06 0)
(-0.000209857 -8.56409e-06 0)
(-0.000206387 -9.52228e-06 0)
(-0.000202546 -1.04364e-05 0)
(-0.000198345 -1.13035e-05 0)
(-0.000193795 -1.21206e-05 0)
(-0.00018891 -1.28846e-05 0)
(-0.000183702 -1.35926e-05 0)
(-0.000178188 -1.42418e-05 0)
(-0.00017238 -1.48295e-05 0)
(-0.000166305 -1.53535e-05 0)
(-0.000159989 -1.58111e-05 0)
(-0.000153436 -1.61999e-05 0)
(-0.000146646 -1.65184e-05 0)
(-0.000139705 -1.67739e-05 0)
(-0.000132628 -1.69519e-05 0)
(-0.000125399 -1.70599e-05 0)
(-0.000118068 -1.70967e-05 0)
(-0.000110663 -1.70642e-05 0)
(-0.000103222 -1.6963e-05 0)
(-9.57621e-05 -1.67934e-05 0)
(-8.83136e-05 -1.65608e-05 0)
(-8.08997e-05 -1.6263e-05 0)
(-7.35691e-05 -1.5915e-05 0)
(-6.6344e-05 -1.55004e-05 0)
(-5.92388e-05 -1.50417e-05 0)
(-5.22926e-05 -1.45372e-05 0)
(-4.55202e-05 -1.39803e-05 0)
(-3.8923e-05 -1.33982e-05 0)
(-3.25564e-05 -1.27853e-05 0)
(-2.64772e-05 -1.21365e-05 0)
(-2.06312e-05 -1.14642e-05 0)
(-1.50606e-05 -1.07839e-05 0)
(-9.80092e-06 -1.00879e-05 0)
(-4.82701e-06 -9.37866e-06 0)
(-1.92035e-07 -8.67893e-06 0)
(4.11618e-06 -7.97524e-06 0)
(8.12078e-06 -7.27577e-06 0)
(1.17996e-05 -6.58818e-06 0)
(1.51478e-05 -5.91297e-06 0)
(1.8167e-05 -5.25568e-06 0)
(2.08597e-05 -4.61842e-06 0)
(2.32334e-05 -4.00418e-06 0)
(2.52899e-05 -3.41602e-06 0)
(2.704e-05 -2.85427e-06 0)
(2.84924e-05 -2.32351e-06 0)
(2.96519e-05 -1.8218e-06 0)
(3.05366e-05 -1.35085e-06 0)
(3.11579e-05 -9.11258e-07 0)
(3.15266e-05 -5.05289e-07 0)
(3.16623e-05 -1.28806e-07 0)
(3.15766e-05 2.16926e-07 0)
(3.12965e-05 5.335e-07 0)
(3.0832e-05 8.16559e-07 0)
(3.01845e-05 1.06958e-06 0)
(2.93756e-05 1.29368e-06 0)
(2.8428e-05 1.4906e-06 0)
(2.73523e-05 1.65658e-06 0)
(2.61568e-05 1.79894e-06 0)
(2.48648e-05 1.91675e-06 0)
(2.3481e-05 2.00887e-06 0)
(2.20286e-05 2.08282e-06 0)
(2.05208e-05 2.13437e-06 0)
(1.89604e-05 2.16578e-06 0)
(1.73697e-05 2.18232e-06 0)
(1.57559e-05 2.18145e-06 0)
(1.41288e-05 2.16695e-06 0)
(1.24969e-05 2.1379e-06 0)
(1.08765e-05 2.10017e-06 0)
(9.27638e-06 2.04973e-06 0)
(7.69109e-06 1.98966e-06 0)
(6.14386e-06 1.92472e-06 0)
(4.63856e-06 1.85102e-06 0)
(3.16763e-06 1.77002e-06 0)
(1.75313e-06 1.68895e-06 0)
(3.98323e-07 1.60131e-06 0)
(-9.03518e-07 1.51193e-06 0)
(-2.14437e-06 1.42045e-06 0)
(-3.32105e-06 1.32794e-06 0)
(-4.43092e-06 1.23518e-06 0)
(-5.47219e-06 1.14263e-06 0)
(-6.44369e-06 1.0508e-06 0)
(-7.34465e-06 9.60257e-07 0)
(-8.17441e-06 8.71402e-07 0)
(-8.93296e-06 7.84718e-07 0)
(-9.62105e-06 7.00565e-07 0)
(-1.02395e-05 6.19247e-07 0)
(-1.07893e-05 5.41055e-07 0)
(-1.12715e-05 4.66219e-07 0)
(-1.16878e-05 3.94955e-07 0)
(-1.20404e-05 3.27401e-07 0)
(-1.23315e-05 2.63519e-07 0)
(-1.25635e-05 2.0346e-07 0)
(-1.2739e-05 1.47316e-07 0)
(-1.28605e-05 9.51039e-08 0)
(-1.29306e-05 4.67695e-08 0)
(-1.29529e-05 2.07503e-09 0)
(-1.29307e-05 -3.88472e-08 0)
(-1.28667e-05 -7.59601e-08 0)
(-1.27636e-05 -1.09374e-07 0)
(-1.26245e-05 -1.3921e-07 0)
(-1.24524e-05 -1.65607e-07 0)
(-1.22503e-05 -1.88707e-07 0)
(-1.20213e-05 -2.08658e-07 0)
(-1.17683e-05 -2.25617e-07 0)
(-1.14941e-05 -2.39747e-07 0)
(-1.12016e-05 -2.51219e-07 0)
(-1.08935e-05 -2.60217e-07 0)
(-1.05722e-05 -2.66934e-07 0)
(-1.02404e-05 -2.71569e-07 0)
(-9.90003e-06 -2.74326e-07 0)
(-9.55337e-06 -2.75408e-07 0)
(-9.20228e-06 -2.75009e-07 0)
(-8.84849e-06 -2.73314e-07 0)
(-8.49357e-06 -2.70497e-07 0)
(-8.13888e-06 -2.66716e-07 0)
(-7.78571e-06 -2.62111e-07 0)
(-7.43514e-06 -2.56802e-07 0)
(-7.08815e-06 -2.50904e-07 0)
(-6.74559e-06 -2.44508e-07 0)
(-6.40828e-06 -2.37696e-07 0)
(-6.07695e-06 -2.30546e-07 0)
(-5.75218e-06 -2.23129e-07 0)
(-5.43451e-06 -2.15518e-07 0)
(-5.12441e-06 -2.0778e-07 0)
(-4.82221e-06 -1.99982e-07 0)
(-4.52821e-06 -1.9218e-07 0)
(-4.24258e-06 -1.84427e-07 0)
(-3.96546e-06 -1.7677e-07 0)
(-3.69691e-06 -1.69237e-07 0)
(-3.43697e-06 -1.61831e-07 0)
(-3.1857e-06 -1.54516e-07 0)
(-2.94326e-06 -1.47223e-07 0)
(-2.70993e-06 -1.39852e-07 0)
(-2.48612e-06 -1.32301e-07 0)
(-2.27249e-06 -1.24498e-07 0)
(-2.06972e-06 -1.16431e-07 0)
(-1.87851e-06 -1.08142e-07 0)
(-1.69946e-06 -9.97371e-08 0)
(-1.53292e-06 -9.13868e-08 0)
(-1.3789e-06 -8.32937e-08 0)
(-1.23706e-06 -7.56839e-08 0)
(-1.10669e-06 -6.87803e-08 0)
(-9.86581e-07 -6.28232e-08 0)
(-8.75079e-07 -5.80088e-08 0)
(-7.70186e-07 -5.44826e-08 0)
(-6.69543e-07 -5.2296e-08 0)
(-5.70655e-07 -5.13161e-08 0)
(-4.71486e-07 -5.12459e-08 0)
(-3.7071e-07 -5.17673e-08 0)
(-2.67662e-07 -5.25201e-08 0)
(-1.62038e-07 -5.31433e-08 0)
(-5.42991e-08 -5.34435e-08 0)
(-3.9876e-06 0.00010471 0)
(-1.20213e-05 0.000104721 0)
(-2.01318e-05 0.000104456 0)
(-2.83128e-05 0.000104055 0)
(-3.65454e-05 0.000103508 0)
(-4.48338e-05 0.000102815 0)
(-5.31668e-05 0.000101975 0)
(-6.15159e-05 0.00010098 0)
(-6.98779e-05 9.98301e-05 0)
(-7.8242e-05 9.85235e-05 0)
(-8.65874e-05 9.70576e-05 0)
(-9.49047e-05 9.54313e-05 0)
(-0.000103181 9.3643e-05 0)
(-0.00011139 9.16911e-05 0)
(-0.000119519 8.95809e-05 0)
(-0.000127549 8.73044e-05 0)
(-0.000135456 8.48696e-05 0)
(-0.000143215 8.22771e-05 0)
(-0.000150805 7.95331e-05 0)
(-0.000158204 7.66432e-05 0)
(-0.000165387 7.36144e-05 0)
(-0.000172332 7.04544e-05 0)
(-0.000179017 6.71722e-05 0)
(-0.00018542 6.37773e-05 0)
(-0.000191525 6.02801e-05 0)
(-0.000197311 5.66927e-05 0)
(-0.000202757 5.30245e-05 0)
(-0.00020785 4.929e-05 0)
(-0.000212579 4.55029e-05 0)
(-0.000216932 4.16747e-05 0)
(-0.000220891 3.78189e-05 0)
(-0.000224454 3.39408e-05 0)
(-0.000227601 3.00634e-05 0)
(-0.000230314 2.61927e-05 0)
(-0.000232601 2.23375e-05 0)
(-0.000234468 1.85028e-05 0)
(-0.00023592 1.46936e-05 0)
(-0.000236965 1.09144e-05 0)
(-0.000237617 7.16851e-06 0)
(-0.000237857 3.46391e-06 0)
(-0.000237645 -1.81248e-07 0)
(-0.000236969 -3.759e-06 0)
(-0.000235855 -7.26458e-06 0)
(-0.000234312 -1.06914e-05 0)
(-0.000232338 -1.4033e-05 0)
(-0.00022994 -1.72823e-05 0)
(-0.000227122 -2.04321e-05 0)
(-0.00022389 -2.34746e-05 0)
(-0.000220251 -2.64019e-05 0)
(-0.000216214 -2.92054e-05 0)
(-0.000211788 -3.18765e-05 0)
(-0.000206983 -3.44064e-05 0)
(-0.000201812 -3.67805e-05 0)
(-0.000196288 -3.89994e-05 0)
(-0.000190427 -4.10488e-05 0)
(-0.000184246 -4.29189e-05 0)
(-0.000177762 -4.46053e-05 0)
(-0.000171004 -4.60977e-05 0)
(-0.000163994 -4.73909e-05 0)
(-0.000156744 -4.84768e-05 0)
(-0.0001493 -4.93563e-05 0)
(-0.000141687 -5.00296e-05 0)
(-0.000133921 -5.04837e-05 0)
(-0.000126048 -5.07253e-05 0)
(-0.00011809 -5.07556e-05 0)
(-0.000110082 -5.05789e-05 0)
(-0.000102057 -5.01863e-05 0)
(-9.40509e-05 -4.96079e-05 0)
(-8.60817e-05 -4.88273e-05 0)
(-7.82123e-05 -4.78779e-05 0)
(-7.04326e-05 -4.67562e-05 0)
(-6.27926e-05 -4.54752e-05 0)
(-5.53663e-05 -4.40465e-05 0)
(-4.80749e-05 -4.24823e-05 0)
(-4.10458e-05 -4.07978e-05 0)
(-3.42823e-05 -3.90033e-05 0)
(-2.77133e-05 -3.71343e-05 0)
(-2.14646e-05 -3.51877e-05 0)
(-1.5557e-05 -3.31791e-05 0)
(-9.95683e-06 -3.11237e-05 0)
(-4.65028e-06 -2.90482e-05 0)
(2.78268e-07 -2.69594e-05 0)
(4.83478e-06 -2.48711e-05 0)
(9.08456e-06 -2.2788e-05 0)
(1.29755e-05 -2.0731e-05 0)
(1.65142e-05 -1.87056e-05 0)
(1.97049e-05 -1.6726e-05 0)
(2.25437e-05 -1.48027e-05 0)
(2.5042e-05 -1.29447e-05 0)
(2.72053e-05 -1.11584e-05 0)
(2.90445e-05 -9.4519e-06 0)
(3.05663e-05 -7.82894e-06 0)
(3.17865e-05 -6.29392e-06 0)
(3.27194e-05 -4.84854e-06 0)
(3.33751e-05 -3.49905e-06 0)
(3.37635e-05 -2.24113e-06 0)
(3.391e-05 -1.07806e-06 0)
(3.38369e-05 -6.66094e-09 0)
(3.35475e-05 9.72866e-07 0)
(3.30604e-05 1.86327e-06 0)
(3.23906e-05 2.6605e-06 0)
(3.15556e-05 3.37072e-06 0)
(3.05715e-05 3.99603e-06 0)
(2.94468e-05 4.54042e-06 0)
(2.82077e-05 5.00279e-06 0)
(2.68701e-05 5.39352e-06 0)
(2.54335e-05 5.71269e-06 0)
(2.39253e-05 5.96524e-06 0)
(2.23603e-05 6.15718e-06 0)
(2.07371e-05 6.28939e-06 0)
(1.90834e-05 6.36832e-06 0)
(1.74086e-05 6.39895e-06 0)
(1.57157e-05 6.38352e-06 0)
(1.40185e-05 6.32779e-06 0)
(1.23303e-05 6.23536e-06 0)
(1.06596e-05 6.11226e-06 0)
(9.00786e-06 5.95609e-06 0)
(7.39092e-06 5.77745e-06 0)
(5.81496e-06 5.57898e-06 0)
(4.27591e-06 5.3591e-06 0)
(2.79205e-06 5.12474e-06 0)
(1.36678e-06 4.88048e-06 0)
(-2.3905e-09 4.62496e-06 0)
(-1.30818e-06 4.36243e-06 0)
(-2.55131e-06 4.09512e-06 0)
(-3.72611e-06 3.82521e-06 0)
(-4.83141e-06 3.55442e-06 0)
(-5.86611e-06 3.28482e-06 0)
(-6.82884e-06 3.01807e-06 0)
(-7.71919e-06 2.75554e-06 0)
(-8.53672e-06 2.49843e-06 0)
(-9.28156e-06 2.24762e-06 0)
(-9.95484e-06 2.00399e-06 0)
(-1.05576e-05 1.76903e-06 0)
(-1.1091e-05 1.54335e-06 0)
(-1.15563e-05 1.32751e-06 0)
(-1.19554e-05 1.12168e-06 0)
(-1.22908e-05 9.26446e-07 0)
(-1.2565e-05 7.42345e-07 0)
(-1.278e-05 5.69512e-07 0)
(-1.29386e-05 4.08044e-07 0)
(-1.30436e-05 2.57924e-07 0)
(-1.30982e-05 1.19042e-07 0)
(-1.31054e-05 -8.71109e-09 0)
(-1.30682e-05 -1.25618e-07 0)
(-1.29896e-05 -2.31696e-07 0)
(-1.28727e-05 -3.27193e-07 0)
(-1.27204e-05 -4.12425e-07 0)
(-1.25359e-05 -4.87777e-07 0)
(-1.23222e-05 -5.53652e-07 0)
(-1.20823e-05 -6.1047e-07 0)
(-1.18192e-05 -6.58679e-07 0)
(-1.15357e-05 -6.98744e-07 0)
(-1.12346e-05 -7.31156e-07 0)
(-1.09187e-05 -7.56443e-07 0)
(-1.05904e-05 -7.75165e-07 0)
(-1.02523e-05 -7.87911e-07 0)
(-9.90643e-06 -7.95278e-07 0)
(-9.55498e-06 -7.97855e-07 0)
(-9.19977e-06 -7.96209e-07 0)
(-8.84247e-06 -7.90875e-07 0)
(-8.48459e-06 -7.82352e-07 0)
(-8.12746e-06 -7.71104e-07 0)
(-7.77225e-06 -7.57525e-07 0)
(-7.42003e-06 -7.41972e-07 0)
(-7.0717e-06 -7.24742e-07 0)
(-6.72808e-06 -7.06108e-07 0)
(-6.38995e-06 -6.863e-07 0)
(-6.05802e-06 -6.65527e-07 0)
(-5.73285e-06 -6.43999e-07 0)
(-5.41498e-06 -6.21917e-07 0)
(-5.10485e-06 -5.99485e-07 0)
(-4.8028e-06 -5.7689e-07 0)
(-4.50906e-06 -5.54301e-07 0)
(-4.22383e-06 -5.3187e-07 0)
(-3.94718e-06 -5.09739e-07 0)
(-3.67914e-06 -4.88006e-07 0)
(-3.41966e-06 -4.66687e-07 0)
(-3.16871e-06 -4.45682e-07 0)
(-2.92639e-06 -4.24771e-07 0)
(-2.69294e-06 -4.03629e-07 0)
(-2.46882e-06 -3.81921e-07 0)
(-2.25479e-06 -3.59416e-07 0)
(-2.05167e-06 -3.36066e-07 0)
(-1.86029e-06 -3.12013e-07 0)
(-1.68138e-06 -2.87578e-07 0)
(-1.51537e-06 -2.63272e-07 0)
(-1.36234e-06 -2.39692e-07 0)
(-1.22193e-06 -2.17513e-07 0)
(-1.09344e-06 -1.97382e-07 0)
(-9.75628e-07 -1.80015e-07 0)
(-8.66716e-07 -1.66018e-07 0)
(-7.64554e-07 -1.55847e-07 0)
(-6.66502e-07 -1.49688e-07 0)
(-5.69727e-07 -1.47119e-07 0)
(-4.72026e-07 -1.47261e-07 0)
(-3.72034e-07 -1.49123e-07 0)
(-2.69071e-07 -1.51602e-07 0)
(-1.63064e-07 -1.535e-07 0)
(-5.46806e-08 -1.54452e-07 0)
(-4.70862e-06 0.000176279 0)
(-1.41873e-05 0.000176254 0)
(-2.37378e-05 0.000175761 0)
(-3.33832e-05 0.00017501 0)
(-4.31171e-05 0.000173998 0)
(-5.28647e-05 0.000172721 0)
(-6.26563e-05 0.000171164 0)
(-7.24856e-05 0.000169333 0)
(-8.22952e-05 0.000167223 0)
(-9.20918e-05 0.000164819 0)
(-0.000101856 0.000162128 0)
(-0.00011157 0.000159146 0)
(-0.000121222 0.000155874 0)
(-0.00013075 0.000152321 0)
(-0.000140184 0.000148473 0)
(-0.00014949 0.000144349 0)
(-0.000158594 0.000139957 0)
(-0.00016749 0.000135313 0)
(-0.000176129 0.000130421 0)
(-0.000184491 0.000125302 0)
(-0.000192545 0.000119969 0)
(-0.000200262 0.000114438 0)
(-0.000207615 0.000108727 0)
(-0.000214582 0.000102854 0)
(-0.000221131 9.68342e-05 0)
(-0.000227257 9.06902e-05 0)
(-0.000232933 8.44411e-05 0)
(-0.000238121 7.8102e-05 0)
(-0.000242829 7.1705e-05 0)
(-0.000247052 6.52665e-05 0)
(-0.000250816 5.88056e-05 0)
(-0.000254062 5.23443e-05 0)
(-0.000256778 4.59071e-05 0)
(-0.000259033 3.95057e-05 0)
(-0.000260826 3.31566e-05 0)
(-0.000262181 2.68578e-05 0)
(-0.000263099 2.0615e-05 0)
(-0.000263594 1.4434e-05 0)
(-0.000263661 8.32279e-06 0)
(-0.000263219 2.28756e-06 0)
(-0.000262258 -3.63399e-06 0)
(-0.000260825 -9.44303e-06 0)
(-0.000258927 -1.51328e-05 0)
(-0.000256568 -2.06935e-05 0)
(-0.000253752 -2.61153e-05 0)
(-0.000250483 -3.13871e-05 0)
(-0.000246764 -3.64965e-05 0)
(-0.000242601 -4.14306e-05 0)
(-0.000237998 -4.61748e-05 0)
(-0.000232961 -5.07103e-05 0)
(-0.000227504 -5.50285e-05 0)
(-0.000221611 -5.91083e-05 0)
(-0.000215338 -6.29338e-05 0)
(-0.000208701 -6.64843e-05 0)
(-0.000201671 -6.97506e-05 0)
(-0.000194308 -7.2714e-05 0)
(-0.000186627 -7.53467e-05 0)
(-0.000178652 -7.76638e-05 0)
(-0.000170419 -7.96393e-05 0)
(-0.000161958 -8.12643e-05 0)
(-0.00015331 -8.25306e-05 0)
(-0.000144499 -8.34393e-05 0)
(-0.000135564 -8.39927e-05 0)
(-0.000126555 -8.41807e-05 0)
(-0.000117505 -8.4016e-05 0)
(-0.000108404 -8.34881e-05 0)
(-9.93877e-05 -8.26411e-05 0)
(-9.04441e-05 -8.14618e-05 0)
(-8.16095e-05 -7.99685e-05 0)
(-7.29595e-05 -7.81916e-05 0)
(-6.44573e-05 -7.61309e-05 0)
(-5.61783e-05 -7.38219e-05 0)
(-4.81385e-05 -7.12773e-05 0)
(-4.0376e-05 -6.85224e-05 0)
(-3.29044e-05 -6.56049e-05 0)
(-2.5791e-05 -6.25173e-05 0)
(-1.90298e-05 -5.93049e-05 0)
(-1.26115e-05 -5.59935e-05 0)
(-6.54844e-06 -5.26054e-05 0)
(-9.09277e-07 -4.91688e-05 0)
(4.3076e-06 -4.56952e-05 0)
(9.16198e-06 -4.22293e-05 0)
(1.36164e-05 -3.87659e-05 0)
(1.76685e-05 -3.53403e-05 0)
(2.13313e-05 -3.19725e-05 0)
(2.46107e-05 -2.86778e-05 0)
(2.74913e-05 -2.54758e-05 0)
(2.99905e-05 -2.23837e-05 0)
(3.21253e-05 -1.94062e-05 0)
(3.39073e-05 -1.65557e-05 0)
(3.53484e-05 -1.38443e-05 0)
(3.64717e-05 -1.12716e-05 0)
(3.72921e-05 -8.85046e-06 0)
(3.78103e-05 -6.58092e-06 0)
(3.80613e-05 -4.4688e-06 0)
(3.80645e-05 -2.51167e-06 0)
(3.78286e-05 -7.09424e-07 0)
(3.73817e-05 9.44946e-07 0)
(3.6732e-05 2.4438e-06 0)
(3.58964e-05 3.79857e-06 0)
(3.48937e-05 5.00669e-06 0)
(3.37422e-05 6.07545e-06 0)
(3.24567e-05 7.00578e-06 0)
(3.10494e-05 7.81009e-06 0)
(2.95481e-05 8.49267e-06 0)
(2.79641e-05 9.05668e-06 0)
(2.63035e-05 9.50874e-06 0)
(2.45873e-05 9.86191e-06 0)
(2.28272e-05 1.01167e-05 0)
(2.10349e-05 1.02826e-05 0)
(1.92251e-05 1.03685e-05 0)
(1.74077e-05 1.03772e-05 0)
(1.55908e-05 1.03174e-05 0)
(1.37868e-05 1.01951e-05 0)
(1.20045e-05 1.00204e-05 0)
(1.02458e-05 9.79476e-06 0)
(8.52778e-06 9.52594e-06 0)
(6.85749e-06 9.2207e-06 0)
(5.22986e-06 8.88332e-06 0)
(3.65654e-06 8.51935e-06 0)
(2.14509e-06 8.13312e-06 0)
(6.97818e-07 7.72983e-06 0)
(-6.83567e-07 7.31503e-06 0)
(-1.99719e-06 6.88914e-06 0)
(-3.24071e-06 6.45736e-06 0)
(-4.41185e-06 6.02306e-06 0)
(-5.50859e-06 5.58898e-06 0)
(-6.52968e-06 5.15766e-06 0)
(-7.47532e-06 4.73143e-06 0)
(-8.34593e-06 4.31239e-06 0)
(-9.142e-06 3.9027e-06 0)
(-9.86409e-06 3.50445e-06 0)
(-1.0512e-05 3.11879e-06 0)
(-1.10873e-05 2.74649e-06 0)
(-1.15926e-05 2.38906e-06 0)
(-1.20299e-05 2.04801e-06 0)
(-1.24009e-05 1.72368e-06 0)
(-1.27072e-05 1.41629e-06 0)
(-1.29518e-05 1.12631e-06 0)
(-1.31379e-05 8.54244e-07 0)
(-1.32683e-05 6.00544e-07 0)
(-1.33459e-05 3.65155e-07 0)
(-1.33734e-05 1.47961e-07 0)
(-1.33546e-05 -5.17877e-08 0)
(-1.32928e-05 -2.34095e-07 0)
(-1.31903e-05 -3.99286e-07 0)
(-1.30505e-05 -5.478e-07 0)
(-1.28766e-05 -6.80162e-07 0)
(-1.26716e-05 -7.96991e-07 0)
(-1.24387e-05 -8.98929e-07 0)
(-1.21808e-05 -9.86636e-07 0)
(-1.19009e-05 -1.06081e-06 0)
(-1.16019e-05 -1.12215e-06 0)
(-1.12866e-05 -1.17144e-06 0)
(-1.09577e-05 -1.20951e-06 0)
(-1.06179e-05 -1.23726e-06 0)
(-1.02695e-05 -1.25565e-06 0)
(-9.91462e-06 -1.26565e-06 0)
(-9.55536e-06 -1.26822e-06 0)
(-9.19345e-06 -1.26428e-06 0)
(-8.83049e-06 -1.25465e-06 0)
(-8.46788e-06 -1.24014e-06 0)
(-8.10682e-06 -1.22146e-06 0)
(-7.74839e-06 -1.19924e-06 0)
(-7.39355e-06 -1.17403e-06 0)
(-7.04311e-06 -1.14629e-06 0)
(-6.69781e-06 -1.11641e-06 0)
(-6.35839e-06 -1.08472e-06 0)
(-6.02551e-06 -1.05155e-06 0)
(-5.69974e-06 -1.01721e-06 0)
(-5.38158e-06 -9.82021e-07 0)
(-5.07147e-06 -9.4632e-07 0)
(-4.76969e-06 -9.10399e-07 0)
(-4.47647e-06 -8.74523e-07 0)
(-4.19195e-06 -8.38935e-07 0)
(-3.91619e-06 -8.03892e-07 0)
(-3.64911e-06 -7.69588e-07 0)
(-3.39051e-06 -7.36092e-07 0)
(-3.1402e-06 -7.03234e-07 0)
(-2.89812e-06 -6.70619e-07 0)
(-2.66444e-06 -6.37626e-07 0)
(-2.43972e-06 -6.03611e-07 0)
(-2.2249e-06 -5.68126e-07 0)
(-2.02107e-06 -5.31071e-07 0)
(-1.82931e-06 -4.92708e-07 0)
(-1.65057e-06 -4.53601e-07 0)
(-1.48543e-06 -4.14629e-07 0)
(-1.33404e-06 -3.76756e-07 0)
(-1.19607e-06 -3.41131e-07 0)
(-1.07078e-06 -3.0876e-07 0)
(-9.56904e-07 -2.80855e-07 0)
(-8.52492e-07 -2.58436e-07 0)
(-7.55126e-07 -2.42373e-07 0)
(-6.61628e-07 -2.33059e-07 0)
(-5.6855e-07 -2.29826e-07 0)
(-4.73384e-07 -2.31089e-07 0)
(-3.74669e-07 -2.35066e-07 0)
(-2.7163e-07 -2.39826e-07 0)
(-1.64803e-07 -2.43027e-07 0)
(-5.53327e-08 -2.44688e-07 0)
(-5.82215e-06 0.000254763 0)
(-1.75413e-05 0.000254632 0)
(-2.93698e-05 0.00025383 0)
(-4.12585e-05 0.000252609 0)
(-5.31697e-05 0.00025097 0)
(-6.51701e-05 0.000248897 0)
(-7.71989e-05 0.000246396 0)
(-8.91525e-05 0.000243461 0)
(-0.000101167 0.000240096 0)
(-0.000113153 0.0002363 0)
(-0.000125014 0.000232064 0)
(-0.000136782 0.00022742 0)
(-0.000148357 0.000222311 0)
(-0.000159818 0.0002168 0)
(-0.000171092 0.000210849 0)
(-0.000182022 0.000204497 0)
(-0.000192606 0.000197753 0)
(-0.000202848 0.000190636 0)
(-0.000212703 0.000183171 0)
(-0.000222106 0.000175373 0)
(-0.000231056 0.000167267 0)
(-0.000239521 0.000158879 0)
(-0.000247471 0.000150234 0)
(-0.000254908 0.000141357 0)
(-0.000261795 0.000132291 0)
(-0.000268095 0.000123076 0)
(-0.000273841 0.00011375 0)
(-0.000278953 0.000104365 0)
(-0.000283423 9.49531e-05 0)
(-0.000287318 8.5585e-05 0)
(-0.000290602 7.62969e-05 0)
(-0.000293246 6.71034e-05 0)
(-0.000295292 5.8041e-05 0)
(-0.000296778 4.90889e-05 0)
(-0.000297777 4.02325e-05 0)
(-0.000298358 3.14866e-05 0)
(-0.000298488 2.28327e-05 0)
(-0.000298163 1.43008e-05 0)
(-0.000297397 5.87734e-06 0)
(-0.00029603 -2.36084e-06 0)
(-0.000294063 -1.04459e-05 0)
(-0.000291637 -1.83743e-05 0)
(-0.000288727 -2.6141e-05 0)
(-0.00028533 -3.37372e-05 0)
(-0.000281442 -4.11512e-05 0)
(-0.000277061 -4.83637e-05 0)
(-0.000272186 -5.53654e-05 0)
(-0.000266816 -6.2127e-05 0)
(-0.000260939 -6.86318e-05 0)
(-0.000254589 -7.48512e-05 0)
(-0.000247771 -8.076e-05 0)
(-0.000240467 -8.63309e-05 0)
(-0.000232699 -9.15402e-05 0)
(-0.000224513 -9.63532e-05 0)
(-0.000215928 -0.000100748 0)
(-0.000206901 -0.000104702 0)
(-0.000197579 -0.00010819 0)
(-0.000188 -0.000111182 0)
(-0.000178097 -0.00011369 0)
(-0.000167954 -0.000115682 0)
(-0.000157653 -0.00011716 0)
(-0.000147258 -0.00011811 0)
(-0.000136745 -0.000118535 0)
(-0.000126197 -0.000118448 0)
(-0.000115636 -0.000117861 0)
(-0.000105195 -0.000116757 0)
(-9.49086e-05 -0.000115209 0)
(-8.47131e-05 -0.000113194 0)
(-7.47714e-05 -0.000110757 0)
(-6.50828e-05 -0.000107903 0)
(-5.5647e-05 -0.00010468 0)
(-4.65508e-05 -0.000101121 0)
(-3.78235e-05 -9.72684e-05 0)
(-2.95084e-05 -9.31487e-05 0)
(-2.16073e-05 -8.88049e-05 0)
(-1.41159e-05 -8.42748e-05 0)
(-7.072e-06 -7.95887e-05 0)
(-5.07516e-07 -7.48062e-05 0)
(5.55862e-06 -6.99405e-05 0)
(1.11823e-05 -6.5043e-05 0)
(1.63311e-05 -6.01242e-05 0)
(2.09924e-05 -5.52352e-05 0)
(2.51993e-05 -5.03968e-05 0)
(2.8939e-05 -4.56441e-05 0)
(3.22264e-05 -4.0999e-05 0)
(3.50744e-05 -3.64954e-05 0)
(3.74844e-05 -3.21345e-05 0)
(3.94956e-05 -2.79478e-05 0)
(4.11336e-05 -2.39328e-05 0)
(4.23875e-05 -2.01179e-05 0)
(4.3303e-05 -1.65044e-05 0)
(4.38889e-05 -1.31002e-05 0)
(4.41595e-05 -9.90777e-06 0)
(4.41448e-05 -6.93513e-06 0)
(4.38655e-05 -4.17764e-06 0)
(4.33464e-05 -1.64086e-06 0)
(4.26211e-05 6.90145e-07 0)
(4.16938e-05 2.80871e-06 0)
(4.0577e-05 4.71963e-06 0)
(3.93021e-05 6.42884e-06 0)
(3.78738e-05 7.94309e-06 0)
(3.63163e-05 9.2696e-06 0)
(3.4656e-05 1.04139e-05 0)
(3.29083e-05 1.13913e-05 0)
(3.10779e-05 1.22087e-05 0)
(2.91845e-05 1.28687e-05 0)
(2.72481e-05 1.33903e-05 0)
(2.52812e-05 1.37779e-05 0)
(2.32894e-05 1.40422e-05 0)
(2.12895e-05 1.4192e-05 0)
(1.92923e-05 1.42377e-05 0)
(1.73062e-05 1.41868e-05 0)
(1.53403e-05 1.40501e-05 0)
(1.3409e-05 1.38372e-05 0)
(1.15162e-05 1.35544e-05 0)
(9.664e-06 1.32104e-05 0)
(7.86459e-06 1.28144e-05 0)
(6.12542e-06 1.23713e-05 0)
(4.44847e-06 1.18911e-05 0)
(2.83103e-06 1.13794e-05 0)
(1.28862e-06 1.08389e-05 0)
(-1.73994e-07 1.0283e-05 0)
(-1.5677e-06 9.71095e-06 0)
(-2.88691e-06 9.12839e-06 0)
(-4.12745e-06 8.5404e-06 0)
(-5.28862e-06 7.95151e-06 0)
(-6.3708e-06 7.36534e-06 0)
(-7.37404e-06 6.78455e-06 0)
(-8.29806e-06 6.21206e-06 0)
(-9.14311e-06 5.65059e-06 0)
(-9.90918e-06 5.10336e-06 0)
(-1.05981e-05 4.5715e-06 0)
(-1.12132e-05 4.05718e-06 0)
(-1.17551e-05 3.56238e-06 0)
(-1.22241e-05 3.08815e-06 0)
(-1.26234e-05 2.63508e-06 0)
(-1.29571e-05 2.20509e-06 0)
(-1.32271e-05 1.79926e-06 0)
(-1.34357e-05 1.41737e-06 0)
(-1.35852e-05 1.0598e-06 0)
(-1.36792e-05 7.26431e-07 0)
(-1.37211e-05 4.1729e-07 0)
(-1.37151e-05 1.32015e-07 0)
(-1.36642e-05 -1.30102e-07 0)
(-1.35707e-05 -3.68405e-07 0)
(-1.34381e-05 -5.83765e-07 0)
(-1.32696e-05 -7.76964e-07 0)
(-1.30686e-05 -9.48793e-07 0)
(-1.28381e-05 -1.10012e-06 0)
(-1.25812e-05 -1.23184e-06 0)
(-1.23009e-05 -1.3448e-06 0)
(-1.20001e-05 -1.43991e-06 0)
(-1.16817e-05 -1.51807e-06 0)
(-1.13487e-05 -1.58026e-06 0)
(-1.10037e-05 -1.6276e-06 0)
(-1.06494e-05 -1.66132e-06 0)
(-1.02882e-05 -1.68275e-06 0)
(-9.92232e-06 -1.69325e-06 0)
(-9.55353e-06 -1.69414e-06 0)
(-9.18349e-06 -1.68666e-06 0)
(-8.81367e-06 -1.67191e-06 0)
(-8.44537e-06 -1.65094e-06 0)
(-8.07962e-06 -1.62467e-06 0)
(-7.71737e-06 -1.59395e-06 0)
(-7.35943e-06 -1.55949e-06 0)
(-7.00651e-06 -1.52187e-06 0)
(-6.6592e-06 -1.48155e-06 0)
(-6.31822e-06 -1.43891e-06 0)
(-5.9842e-06 -1.39434e-06 0)
(-5.6577e-06 -1.34825e-06 0)
(-5.33925e-06 -1.30108e-06 0)
(-5.02921e-06 -1.25331e-06 0)
(-4.72784e-06 -1.20531e-06 0)
(-4.43532e-06 -1.15742e-06 0)
(-4.15177e-06 -1.10995e-06 0)
(-3.87724e-06 -1.06332e-06 0)
(-3.61154e-06 -1.01785e-06 0)
(-3.35425e-06 -9.73757e-07 0)
(-3.1049e-06 -9.30798e-07 0)
(-2.86318e-06 -8.88357e-07 0)
(-2.62913e-06 -8.45395e-07 0)
(-2.40341e-06 -8.00826e-07 0)
(-2.18731e-06 -7.539e-07 0)
(-1.98233e-06 -7.04454e-07 0)
(-1.78989e-06 -6.52929e-07 0)
(-1.61124e-06 -6.00168e-07 0)
(-1.44713e-06 -5.475e-07 0)
(-1.29782e-06 -4.9619e-07 0)
(-1.16293e-06 -4.47957e-07 0)
(-1.04174e-06 -4.04006e-07 0)
(-9.32954e-07 -3.66181e-07 0)
(-8.34455e-07 -3.35879e-07 0)
(-7.43514e-07 -3.14585e-07 0)
(-6.56205e-07 -3.03026e-07 0)
(-5.68114e-07 -3.00239e-07 0)
(-4.76219e-07 -3.03836e-07 0)
(-3.78973e-07 -3.10921e-07 0)
(-2.75367e-07 -3.18649e-07 0)
(-1.67129e-07 -3.2316e-07 0)
(-5.62075e-08 -3.25449e-07 0)
(-7.38696e-06 0.000341452 0)
(-2.21877e-05 0.000341035 0)
(-3.70936e-05 0.000339691 0)
(-5.20536e-05 0.000337656 0)
(-6.70622e-05 0.000334926 0)
(-8.2034e-05 0.000331488 0)
(-9.69325e-05 0.000327368 0)
(-0.000111752 0.000322561 0)
(-0.000126432 0.000317051 0)
(-0.000141037 0.000310836 0)
(-0.000155364 0.000303963 0)
(-0.000169667 0.000296395 0)
(-0.000183756 0.000288267 0)
(-0.000197479 0.000279567 0)
(-0.000210994 0.00027041 0)
(-0.000223998 0.000260766 0)
(-0.000236541 0.000250735 0)
(-0.000248551 0.000240324 0)
(-0.000260002 0.000229599 0)
(-0.000270871 0.000218583 0)
(-0.000281092 0.000207311 0)
(-0.00029065 0.000195809 0)
(-0.000299519 0.000184096 0)
(-0.000307606 0.000172195 0)
(-0.000314825 0.000160138 0)
(-0.000321201 0.00014793 0)
(-0.000326666 0.000135678 0)
(-0.000331226 0.000123413 0)
(-0.000334812 0.000111199 0)
(-0.000337422 9.91175e-05 0)
(-0.000339352 8.72438e-05 0)
(-0.000340551 7.56359e-05 0)
(-0.000341176 6.42338e-05 0)
(-0.000341519 5.30155e-05 0)
(-0.000341426 4.19753e-05 0)
(-0.000340944 3.10833e-05 0)
(-0.000340008 2.03346e-05 0)
(-0.000338605 9.73605e-06 0)
(-0.000336544 -6.19878e-07 0)
(-0.000333815 -1.07842e-05 0)
(-0.000330717 -2.07961e-05 0)
(-0.000327151 -3.06521e-05 0)
(-0.000323101 -4.03449e-05 0)
(-0.000318546 -4.98635e-05 0)
(-0.000313449 -5.91882e-05 0)
(-0.000307828 -6.82991e-05 0)
(-0.000301651 -7.71683e-05 0)
(-0.000294897 -8.5736e-05 0)
(-0.000287579 -9.39791e-05 0)
(-0.000279679 -0.000101867 0)
(-0.000271219 -0.000109366 0)
(-0.000262196 -0.00011642 0)
(-0.000252641 -0.000122989 0)
(-0.000242584 -0.000128998 0)
(-0.000232051 -0.000134473 0)
(-0.000221085 -0.000139305 0)
(-0.000209688 -0.000143548 0)
(-0.000198019 -0.00014712 0)
(-0.000186102 -0.000149998 0)
(-0.000173929 -0.000152189 0)
(-0.000161614 -0.00015368 0)
(-0.000149193 -0.000154465 0)
(-0.000136771 -0.000154551 0)
(-0.000124433 -0.00015394 0)
(-0.000112121 -0.000152653 0)
(-0.000100012 -0.000150739 0)
(-8.82109e-05 -0.000148197 0)
(-7.66143e-05 -0.000145055 0)
(-6.53482e-05 -0.000141377 0)
(-5.44832e-05 -0.000137191 0)
(-4.40618e-05 -0.000132535 0)
(-3.41276e-05 -0.000127502 0)
(-2.468e-05 -0.000122095 0)
(-1.57561e-05 -0.000116382 0)
(-7.38428e-06 -0.000110421 0)
(4.19958e-07 -0.000104275 0)
(7.60089e-06 -9.79939e-05 0)
(1.42179e-05 -9.16018e-05 0)
(2.02909e-05 -8.51662e-05 0)
(2.57735e-05 -7.87219e-05 0)
(3.06694e-05 -7.23252e-05 0)
(3.50121e-05 -6.59988e-05 0)
(3.88189e-05 -5.97922e-05 0)
(4.20861e-05 -5.37384e-05 0)
(4.48331e-05 -4.78619e-05 0)
(4.71222e-05 -4.21836e-05 0)
(4.89526e-05 -3.67393e-05 0)
(5.03505e-05 -3.15227e-05 0)
(5.1343e-05 -2.65727e-05 0)
(5.19332e-05 -2.18855e-05 0)
(5.21853e-05 -1.74711e-05 0)
(5.21198e-05 -1.33468e-05 0)
(5.17506e-05 -9.50228e-06 0)
(5.10965e-05 -5.94557e-06 0)
(5.01983e-05 -2.66567e-06 0)
(4.90965e-05 3.42946e-07 0)
(4.77995e-05 3.08426e-06 0)
(4.63102e-05 5.5458e-06 0)
(4.46625e-05 7.75817e-06 0)
(4.28791e-05 9.71127e-06 0)
(4.09785e-05 1.14314e-05 0)
(3.89753e-05 1.29168e-05 0)
(3.69004e-05 1.41933e-05 0)
(3.47675e-05 1.52609e-05 0)
(3.25754e-05 1.61313e-05 0)
(3.03589e-05 1.68248e-05 0)
(2.81272e-05 1.7351e-05 0)
(2.58827e-05 1.77176e-05 0)
(2.36438e-05 1.79385e-05 0)
(2.14209e-05 1.80238e-05 0)
(1.92239e-05 1.79907e-05 0)
(1.70626e-05 1.78466e-05 0)
(1.49476e-05 1.76038e-05 0)
(1.28817e-05 1.72733e-05 0)
(1.08712e-05 1.68625e-05 0)
(8.92191e-06 1.63835e-05 0)
(7.04263e-06 1.58425e-05 0)
(5.24068e-06 1.52559e-05 0)
(3.51224e-06 1.46263e-05 0)
(1.85484e-06 1.39622e-05 0)
(2.88669e-07 1.3275e-05 0)
(-1.19029e-06 1.25645e-05 0)
(-2.59438e-06 1.18396e-05 0)
(-3.91243e-06 1.11071e-05 0)
(-5.14452e-06 1.03714e-05 0)
(-6.29111e-06 9.63693e-06 0)
(-7.35357e-06 8.90808e-06 0)
(-8.33233e-06 8.18851e-06 0)
(-9.2276e-06 7.48181e-06 0)
(-1.00397e-05 6.79122e-06 0)
(-1.07717e-05 6.11858e-06 0)
(-1.14258e-05 5.46584e-06 0)
(-1.20012e-05 4.83656e-06 0)
(-1.25011e-05 4.23141e-06 0)
(-1.29299e-05 3.65232e-06 0)
(-1.32887e-05 3.10113e-06 0)
(-1.35789e-05 2.57864e-06 0)
(-1.38048e-05 2.08528e-06 0)
(-1.39704e-05 1.62217e-06 0)
(-1.40789e-05 1.18941e-06 0)
(-1.41332e-05 7.86949e-07 0)
(-1.41368e-05 4.14436e-07 0)
(-1.40933e-05 7.16804e-08 0)
(-1.40053e-05 -2.42246e-07 0)
(-1.3876e-05 -5.27395e-07 0)
(-1.37095e-05 -7.84641e-07 0)
(-1.35091e-05 -1.01495e-06 0)
(-1.3278e-05 -1.21932e-06 0)
(-1.30192e-05 -1.39889e-06 0)
(-1.27358e-05 -1.55475e-06 0)
(-1.24306e-05 -1.68796e-06 0)
(-1.21066e-05 -1.79954e-06 0)
(-1.17667e-05 -1.8905e-06 0)
(-1.14138e-05 -1.962e-06 0)
(-1.10509e-05 -2.01537e-06 0)
(-1.06807e-05 -2.0522e-06 0)
(-1.03055e-05 -2.07421e-06 0)
(-9.92756e-06 -2.08319e-06 0)
(-9.54848e-06 -2.08085e-06 0)
(-9.16973e-06 -2.06869e-06 0)
(-8.7926e-06 -2.04804e-06 0)
(-8.41824e-06 -2.02011e-06 0)
(-8.04757e-06 -1.98608e-06 0)
(-7.68136e-06 -1.94698e-06 0)
(-7.32023e-06 -1.90362e-06 0)
(-6.96472e-06 -1.8567e-06 0)
(-6.61532e-06 -1.8067e-06 0)
(-6.27266e-06 -1.75397e-06 0)
(-5.93741e-06 -1.69889e-06 0)
(-5.61015e-06 -1.64197e-06 0)
(-5.29142e-06 -1.5838e-06 0)
(-4.98156e-06 -1.525e-06 0)
(-4.68071e-06 -1.46602e-06 0)
(-4.389e-06 -1.40724e-06 0)
(-4.10662e-06 -1.34897e-06 0)
(-3.83363e-06 -1.29185e-06 0)
(-3.56973e-06 -1.2364e-06 0)
(-3.31422e-06 -1.18313e-06 0)
(-3.06621e-06 -1.13172e-06 0)
(-2.82497e-06 -1.08128e-06 0)
(-2.59034e-06 -1.03019e-06 0)
(-2.36317e-06 -9.76735e-07 0)
(-2.14521e-06 -9.19745e-07 0)
(-1.93855e-06 -8.59007e-07 0)
(-1.74508e-06 -7.95228e-07 0)
(-1.56639e-06 -7.29584e-07 0)
(-1.40336e-06 -6.64025e-07 0)
(-1.25638e-06 -5.99926e-07 0)
(-1.12497e-06 -5.39789e-07 0)
(-1.00843e-06 -4.84772e-07 0)
(-9.05556e-07 -4.37472e-07 0)
(-8.14041e-07 -3.99609e-07 0)
(-7.30902e-07 -3.73621e-07 0)
(-6.51143e-07 -3.6067e-07 0)
(-5.69094e-07 -3.59583e-07 0)
(-4.80963e-07 -3.66918e-07 0)
(-3.85104e-07 -3.78142e-07 0)
(-2.80218e-07 -3.89451e-07 0)
(-1.69832e-07 -3.95377e-07 0)
(-5.71877e-08 -3.97814e-07 0)
(-9.80865e-06 0.000442572 0)
(-2.93894e-05 0.000441624 0)
(-4.90542e-05 0.00043945 0)
(-6.87047e-05 0.000436182 0)
(-8.83009e-05 0.000431826 0)
(-0.000107726 0.00042643 0)