#           v             n
     0.523599             0
     0.648652             0
     0.790112             0
     0.953116             0
      1.13449             0
      1.34047             0
      1.56672             0
      1.82069             0
      2.09677   6.65936e-07
      2.40376   9.59376e-06
      2.73462   7.04958e-05
      3.09966   0.000295319
      3.49026   0.000908826
      3.91837    0.00201671
      4.37366    0.00367444
      4.86986    0.00527423
       5.3948    0.00643214
      5.96412    0.00634608
      6.56366    0.00535587
      7.21112    0.00371097
      7.89023    0.00221979
      8.62085    0.00110871
      9.38447   0.000484348
      10.2033   0.000179715
      11.0564   5.91075e-05
      11.9684   1.67639e-05
      12.9159   4.26541e-06
      13.9262   9.47987e-07
      14.9731   4.90557e-07
