/*--------------------------------*- C++ -*----------------------------------*\
  =========                 |
  \\      /  F ield         | OpenFOAM: The Open Source CFD Toolbox
   \\    /   O peration     | Website:  https://openfoam.org
    \\  /    A nd           | Version:  12
     \\/     M anipulation  |
\*---------------------------------------------------------------------------*/
FoamFile
{
    format      ascii;
    class       volVectorField;
    location    "15.12";
    object      zeta;
}
// * * * * * * * * * * * * * * * * * * * * * * * * * * * * * * * * * * * * * //

dimensions      [0 1 0 0 0 0 0];

internalField   uniform (0 0 0);

boundaryField
{
    freeSurface
    {
        type            calculated;
        value           nonuniform List<vector> 
181
(
(0 0.00436014 0)
(0 0.00435954 0)
(0 0.00435958 0)
(0 0.00435964 0)
(0 0.00436017 0)
(0 0.00436028 0)
(0 0.00436142 0)
(0 0.00436124 0)
(0 -0.000278599 0)
(0 -0.000261781 0)
(0 -0.00024493 0)
(0 -0.000220198 0)
(0 -0.000184005 0)
(0 -0.000137499 0)
(0 -8.60863e-05 0)
(0 -2.56954e-05 0)
(0 3.97179e-05 0)
(0 0.000110476 0)
(0 0.000185924 0)
(0 0.000265243 0)
(0 0.000347864 0)
(0 0.000432633 0)
(0 0.000518532 0)
(0 0.000604296 0)
(0 0.000689032 0)
(0 0.00077195 0)
(0 0.00085219 0)
(0 0.000928917 0)
(0 0.00100116 0)
(0 0.00106792 0)
(0 0.00112815 0)
(0 0.00118092 0)
(0 0.00122541 0)
(0 0.00126093 0)
(0 0.00128675 0)
(0 0.00130219 0)
(0 0.00130664 0)
(0 0.00129965 0)
(0 0.00128085 0)
(0 0.00125003 0)
(0 0.0012072 0)
(0 0.00115233 0)
(0 0.00108559 0)
(0 0.00100729 0)
(0 0.000917963 0)
(0 0.000818264 0)
(0 0.000708869 0)
(0 0.000590798 0)
(0 0.000465182 0)
(0 0.000333276 0)
(0 0.000196645 0)
(0 5.68696e-05 0)
(0 -8.4303e-05 0)
(0 -0.000224795 0)
(0 -0.000362669 0)
(0 -0.000495951 0)
(0 -0.000622509 0)
(0 -0.000740203 0)
(0 -0.000847025 0)
(0 -0.000941078 0)
(0 -0.00102062 0)
(0 -0.00108379 0)
(0 -0.00112908 0)
(0 -0.0011553 0)
(0 -0.00116145 0)
(0 -0.00114672 0)
(0 -0.00111093 0)
(0 -0.00105414 0)
(0 -0.000976962 0)
(0 -0.000880489 0)
(0 -0.000766009 0)
(0 -0.000635611 0)
(0 -0.000491646 0)
(0 -0.000336958 0)
(0 -0.000174659 0)
(0 -8.38349e-06 0)
(0 0.000158167 0)
(0 0.000321061 0)
(0 0.000476089 0)
(0 0.000619153 0)
(0 0.000746398 0)
(0 0.000853735 0)
(0 0.000938139 0)
(0 0.000996409 0)
(0 0.00102624 0)
(0 0.00102639 0)
(0 0.000995919 0)
(0 0.000935189 0)
(0 0.000845319 0)
(0 0.000728493 0)
(0 0.000587839 0)
(0 0.000427857 0)
(0 0.000252908 0)
(0 6.92494e-05 0)
(0 -0.000116781 0)
(0 -0.000298638 0)
(0 -0.000469269 0)
(0 -0.000621748 0)
(0 -0.000749401 0)
(0 -0.00084632 0)
(0 -0.000907654 0)
(0 -0.000929951 0)
(0 -0.000911097 0)
(0 -0.000851057 0)
(0 -0.000751555 0)
(0 -0.000616394 0)
(0 -0.000451654 0)
(0 -0.0002648 0)
(0 -6.51087e-05 0)
(0 0.000136983 0)
(0 0.000331451 0)
(0 0.000506881 0)
(0 0.000653563 0)
(0 0.000762127 0)
(0 0.000825362 0)
(0 0.000838738 0)
(0 0.000800763 0)
(0 0.000712825 0)
(0 0.000579559 0)
(0 0.0004091 0)
(0 0.00021224 0)
(0 2.32713e-06 0)
(0 -0.000206658 0)
(0 -0.000400633 0)
(0 -0.00056528 0)
(0 -0.000688095 0)
(0 -0.000759462 0)
(0 -0.000773468 0)
(0 -0.000728395 0)
(0 -0.000627532 0)
(0 -0.000478755 0)
(0 -0.000294153 0)
(0 -8.96744e-05 0)
(0 0.000116833 0)
(0 0.000308582 0)
(0 0.000467683 0)
(0 0.000579618 0)
(0 0.000633778 0)
(0 0.000625629 0)
(0 0.000556152 0)
(0 0.00043302 0)
(0 0.000269543 0)
(0 8.43558e-05 0)
(0 -0.000102023 0)
(0 -0.000270325 0)
(0 -0.000401069 0)
(0 -0.000479558 0)
(0 -0.000497714 0)
(0 -0.000454737 0)
(0 -0.000357828 0)
(0 -0.000221128 0)
(0 -6.45693e-05 0)
(0 8.90231e-05 0)
(0 0.00021973 0)
(0 0.000308207 0)
(0 0.000342528 0)
(0 0.000319096 0)
(0 0.000243655 0)
(0 0.00013009 0)
(0 -1.25966e-06 0)
(0 -0.000126922 0)
(0 -0.000227328 0)
(0 -0.000284606 0)
(0 -0.00028971 0)
(0 -0.000243763 0)
(0 -0.000157615 0)
(0 -4.97054e-05 0)
(0 5.67731e-05 0)
(0 0.000141452 0)
(0 0.000188003 0)
(0 0.000188396 0)
(0 0.000145926 0)
(0 7.40573e-05 0)
(0 -7.00676e-06 0)
(0 -7.5542e-05 0)
(0 -0.000115018 0)
(0 -0.000117311 0)
(0 -8.55018e-05 0)
(0 -3.3452e-05 0)
(0 1.89085e-05 0)
(0 5.16922e-05 0)
)
;
    }
    walls
    {
        type            calculated;
        value           uniform (0 0 0);
    }
    floatingObject
    {
        type            calculated;
        value           uniform (0 0 0);
    }
    frontAndBack
    {
        type            empty;
    }
}


// ************************************************************************* //
