/*--------------------------------*- C++ -*----------------------------------*\
  =========                 |
  \\      /  F ield         | OpenFOAM: The Open Source CFD Toolbox
   \\    /   O peration     | Website:  https://openfoam.org
    \\  /    A nd           | Version:  12
     \\/     M anipulation  |
\*---------------------------------------------------------------------------*/
FoamFile
{
    format      ascii;
    class       volScalarField;
    location    "17";
    object      p;
}
// * * * * * * * * * * * * * * * * * * * * * * * * * * * * * * * * * * * * * //

dimensions      [1 -1 -2 0 0 0 0];

internalField   nonuniform List<scalar> 
3829
(
-618.034
-618.033
-618.03
-618.027
-618.021
-618.015
-618.007
-617.997
-617.985
-617.972
-617.957
-617.94
-617.92
-617.898
-617.874
-617.847
-617.818
-617.785
-617.75
-617.711
-617.67
-617.625
-617.577
-617.526
-617.471
-617.413
-617.352
-617.288
-617.221
-617.152
-617.079
-617.005
-616.928
-616.849
-616.769
-616.687
-616.605
-616.522
-616.439
-616.355
-616.273
-616.191
-616.111
-616.032
-615.956
-615.882
-615.811
-615.744
-615.68
-615.62
-615.564
-615.513
-615.466
-615.423
-615.385
-615.352
-615.323
-615.298
-615.278
-615.262
-615.25
-615.241
-615.235
-615.233
-615.233
-615.234
-615.237
-615.241
-615.245
-615.249
-615.251
-615.251
-615.25
-615.245
-615.237
-615.224
-615.207
-615.186
-615.159
-615.126
-615.088
-615.044
-614.995
-614.94
-614.881
-614.818
-614.751
-614.681
-614.61
-614.538
-614.466
-614.396
-614.329
-614.266
-614.209
-614.157
-614.114
-614.079
-614.054
-614.039
-614.037
-614.045
-614.065
-614.095
-614.135
-614.183
-614.239
-614.3
-614.366
-614.433
-614.5
-614.564
-614.622
-614.674
-614.716
-614.746
-614.764
-614.768
-614.756
-614.73
-614.69
-614.638
-614.574
-614.503
-614.426
-614.346
-614.269
-614.196
-614.131
-614.079
-614.041
-614.02
-614.016
-614.031
-614.063
-614.11
-614.17
-614.239
-614.313
-614.386
-614.453
-614.51
-614.552
-614.577
-614.583
-614.565
-614.528
-614.475
-614.41
-614.337
-614.256
-614.189
-614.134
-614.096
-614.079
-614.085
-614.115
-614.165
-614.23
-614.303
-614.377
-614.442
-614.492
-614.519
-614.52
-614.493
-614.44
-614.369
-614.287
-614.2
-614.127
-614.073
-614.046
-614.049
-614.084
-614.144
-614.223
-614.308
-614.387
-614.449
-614.487
-614.494
-614.472
-614.429
-614.372
-614.307
-614.262
-614.238
-614.24
-614.266
-614.309
-614.357
-614.397
-614.417
-614.408
-614.371
-614.311
-614.244
-614.184
-614.149
-1776.51
-1776.51
-1776.51
-1776.51
-1776.51
-1776.5
-1776.49
-1776.49
-1776.48
-1776.47
-1776.46
-1776.44
-1776.42
-1776.4
-1776.38
-1776.36
-1776.33
-1776.3
-1776.26
-1776.22
-1776.18
-1776.13
-1776.08
-1776.02
-1775.96
-1775.89
-1775.82
-1775.75
-1775.68
-1775.59
-1775.51
-1775.42
-1775.34
-1775.24
-1775.15
-1775.06
-1774.96
-1774.86
-1774.77
-1774.67
-1774.58
-1774.48
-1774.39
-1774.3
-1774.22
-1774.13
-1774.06
-1773.99
-1773.92
-1773.86
-1773.8
-1773.75
-1773.7
-1773.66
-1773.63
-1773.6
-1773.58
-1773.56
-1773.54
-1773.54
-1773.53
-1773.54
-1773.54
-1773.55
-1773.56
-1773.57
-1773.59
-1773.61
-1773.62
-1773.64
-1773.65
-1773.66
-1773.67
-1773.67
-1773.67
-1773.66
-1773.65
-1773.63
-1773.6
-1773.57
-1773.53
-1773.48
-1773.42
-1773.36
-1773.3
-1773.22
-1773.14
-1773.06
-1772.98
-1772.9
-1772.81
-1772.73
-1772.65
-1772.57
-1772.51
-1772.45
-1772.4
-1772.36
-1772.33
-1772.31
-1772.31
-1772.32
-1772.35
-1772.39
-1772.44
-1772.5
-1772.57
-1772.64
-1772.73
-1772.81
-1772.89
-1772.97
-1773.04
-1773.11
-1773.16
-1773.2
-1773.22
-1773.22
-1773.21
-1773.18
-1773.13
-1773.06
-1772.99
-1772.9
-1772.8
-1772.71
-1772.61
-1772.52
-1772.45
-1772.38
-1772.34
-1772.31
-1772.31
-1772.33
-1772.37
-1772.43
-1772.51
-1772.59
-1772.69
-1772.78
-1772.86
-1772.93
-1772.98
-1773.01
-1773.01
-1772.99
-1772.95
-1772.88
-1772.8
-1772.71
-1772.61
-1772.53
-1772.46
-1772.41
-1772.39
-1772.4
-1772.44
-1772.5
-1772.58
-1772.67
-1772.76
-1772.85
-1772.91
-1772.94
-1772.94
-1772.91
-1772.85
-1772.76
-1772.66
-1772.55
-1772.46
-1772.4
-1772.37
-1772.37
-1772.41
-1772.49
-1772.58
-1772.69
-1772.78
-1772.85
-1772.9
-1772.9
-1772.87
-1772.81
-1772.74
-1772.66
-1772.61
-1772.58
-1772.58
-1772.62
-1772.67
-1772.74
-1772.79
-1772.81
-1772.8
-1772.76
-1772.69
-1772.6
-1772.53
-1772.49
-2802.85
-2802.85
-2802.85
-2802.85
-2802.85
-2802.85
-2802.86
-2802.86
-2802.86
-2802.85
-2802.85
-2802.85
-2802.84
-2802.83
-2802.81
-2802.8
-2802.77
-2802.74
-2802.71
-2802.67
-2802.62
-2802.57
-2802.51
-2802.45
-2802.37
-2802.29
-2802.21
-2802.12
-2802.02
-2801.91
-2801.81
-2801.69
-2801.58
-2801.46
-2801.34
-2801.22
-2801.1
-2800.98
-2800.85
-2800.74
-2800.62
-2800.5
-2800.39
-2800.29
-2800.19
-2800.09
-2800
-2799.92
-2799.84
-2799.78
-2799.72
-2799.66
-2799.62
-2799.58
-2799.55
-2799.53
-2799.52
-2799.52
-2799.52
-2799.53
-2799.54
-2799.56
-2799.59
-2799.62
-2799.65
-2799.69
-2799.73
-2799.76
-2799.8
-2799.84
-2799.87
-2799.9
-2799.92
-2799.94
-2799.95
-2799.95
-2799.94
-2799.93
-2799.91
-2799.87
-2799.82
-2799.77
-2799.7
-2799.63
-2799.54
-2799.45
-2799.35
-2799.25
-2799.14
-2799.03
-2798.93
-2798.82
-2798.72
-2798.62
-2798.53
-2798.46
-2798.39
-2798.34
-2798.31
-2798.29
-2798.3
-2798.31
-2798.35
-2798.4
-2798.47
-2798.56
-2798.65
-2798.76
-2798.87
-2798.98
-2799.1
-2799.2
-2799.3
-2799.39
-2799.46
-2799.51
-2799.54
-2799.54
-2799.52
-2799.48
-2799.41
-2799.33
-2799.22
-2799.1
-2798.98
-2798.85
-2798.72
-2798.6
-2798.5
-2798.42
-2798.36
-2798.33
-2798.33
-2798.36
-2798.42
-2798.5
-2798.61
-2798.73
-2798.85
-2798.98
-2799.09
-2799.18
-2799.25
-2799.29
-2799.29
-2799.26
-2799.2
-2799.11
-2798.99
-2798.87
-2798.74
-2798.63
-2798.53
-2798.47
-2798.44
-2798.46
-2798.51
-2798.6
-2798.71
-2798.83
-2798.96
-2799.07
-2799.15
-2799.2
-2799.2
-2799.16
-2799.07
-2798.95
-2798.82
-2798.68
-2798.56
-2798.47
-2798.43
-2798.44
-2798.5
-2798.6
-2798.73
-2798.86
-2798.99
-2799.08
-2799.13
-2799.13
-2799.09
-2799
-2798.9
-2798.8
-2798.72
-2798.68
-2798.69
-2798.74
-2798.82
-2798.91
-2798.99
-2799.03
-2799.02
-2798.96
-2798.86
-2798.75
-2798.65
-2798.59
-3712.02
-3712.03
-3712.03
-3712.04
-3712.06
-3712.07
-3712.09
-3712.11
-3712.13
-3712.15
-3712.17
-3712.19
-3712.21
-3712.22
-3712.22
-3712.22
-3712.21
-3712.2
-3712.17
-3712.14
-3712.09
-3712.03
-3711.96
-3711.88
-3711.79
-3711.69
-3711.58
-3711.45
-3711.32
-3711.18
-3711.03
-3710.88
-3710.72
-3710.56
-3710.4
-3710.23
-3710.07
-3709.91
-3709.75
-3709.59
-3709.44
-3709.3
-3709.16
-3709.02
-3708.9
-3708.78
-3708.68
-3708.59
-3708.51
-3708.44
-3708.38
-3708.33
-3708.29
-3708.26
-3708.25
-3708.25
-3708.25
-3708.27
-3708.29
-3708.33
-3708.37
-3708.42
-3708.48
-3708.54
-3708.61
-3708.67
-3708.74
-3708.81
-3708.88
-3708.95
-3709.01
-3709.06
-3709.11
-3709.14
-3709.17
-3709.19
-3709.19
-3709.18
-3709.15
-3709.12
-3709.06
-3709
-3708.91
-3708.82
-3708.71
-3708.59
-3708.46
-3708.33
-3708.19
-3708.04
-3707.9
-3707.76
-3707.62
-3707.5
-3707.38
-3707.28
-3707.2
-3707.14
-3707.09
-3707.07
-3707.08
-3707.11
-3707.16
-3707.24
-3707.34
-3707.45
-3707.59
-3707.73
-3707.89
-3708.05
-3708.2
-3708.35
-3708.49
-3708.6
-3708.7
-3708.77
-3708.8
-3708.81
-3708.78
-3708.72
-3708.63
-3708.51
-3708.37
-3708.21
-3708.03
-3707.86
-3707.69
-3707.53
-3707.39
-3707.28
-3707.2
-3707.16
-3707.17
-3707.21
-3707.3
-3707.42
-3707.56
-3707.73
-3707.91
-3708.08
-3708.23
-3708.36
-3708.46
-3708.51
-3708.51
-3708.46
-3708.37
-3708.24
-3708.08
-3707.91
-3707.73
-3707.57
-3707.44
-3707.36
-3707.32
-3707.34
-3707.42
-3707.54
-3707.7
-3707.87
-3708.05
-3708.2
-3708.32
-3708.38
-3708.38
-3708.32
-3708.21
-3708.05
-3707.86
-3707.67
-3707.51
-3707.39
-3707.34
-3707.35
-3707.43
-3707.57
-3707.74
-3707.93
-3708.09
-3708.22
-3708.28
-3708.27
-3708.2
-3708.08
-3707.94
-3707.79
-3707.69
-3707.64
-3707.66
-3707.73
-3707.85
-3707.97
-3708.08
-3708.14
-3708.13
-3708.05
-3707.92
-3707.77
-3707.63
-3707.55
-4517.36
-4517.37
-4517.38
-4517.41
-4517.45
-4517.5
-4517.55
-4517.61
-4517.68
-4517.75
-4517.82
-4517.89
-4517.96
-4518.02
-4518.08
-4518.12
-4518.15
-4518.16
-4518.15
-4518.12
-4518.07
-4518
-4517.91
-4517.8
-4517.67
-4517.52
-4517.36
-4517.19
-4517
-4516.8
-4516.59
-4516.37
-4516.15
-4515.93
-4515.7
-4515.48
-4515.26
-4515.04
-4514.83
-4514.63
-4514.43
-4514.25
-4514.08
-4513.92
-4513.77
-4513.64
-4513.52
-4513.41
-4513.32
-4513.24
-4513.18
-4513.14
-4513.11
-4513.09
-4513.1
-4513.11
-4513.15
-4513.19
-4513.25
-4513.32
-4513.4
-4513.49
-4513.59
-4513.69
-4513.8
-4513.91
-4514.02
-4514.13
-4514.24
-4514.34
-4514.44
-4514.53
-4514.6
-4514.67
-4514.71
-4514.75
-4514.76
-4514.76
-4514.73
-4514.69
-4514.63
-4514.54
-4514.44
-4514.32
-4514.18
-4514.02
-4513.85
-4513.68
-4513.49
-4513.3
-4513.11
-4512.92
-4512.74
-4512.58
-4512.43
-4512.29
-4512.18
-4512.1
-4512.05
-4512.03
-4512.04
-4512.08
-4512.15
-4512.26
-4512.4
-4512.56
-4512.74
-4512.94
-4513.15
-4513.37
-4513.58
-4513.78
-4513.96
-4514.12
-4514.25
-4514.34
-4514.39
-4514.4
-4514.36
-4514.28
-4514.16
-4513.99
-4513.8
-4513.58
-4513.34
-4513.1
-4512.87
-4512.66
-4512.47
-4512.33
-4512.22
-4512.18
-4512.19
-4512.25
-4512.37
-4512.54
-4512.75
-4512.97
-4513.21
-4513.45
-4513.66
-4513.84
-4513.96
-4514.03
-4514.03
-4513.96
-4513.83
-4513.65
-4513.43
-4513.19
-4512.95
-4512.74
-4512.56
-4512.45
-4512.4
-4512.43
-4512.54
-4512.71
-4512.92
-4513.16
-4513.41
-4513.62
-4513.77
-4513.86
-4513.86
-4513.78
-4513.62
-4513.4
-4513.15
-4512.89
-4512.68
-4512.52
-4512.45
-4512.47
-4512.58
-4512.77
-4513
-4513.25
-4513.47
-4513.63
-4513.71
-4513.69
-4513.59
-4513.42
-4513.22
-4513.03
-4512.89
-4512.82
-4512.85
-4512.95
-4513.12
-4513.29
-4513.45
-4513.53
-4513.52
-4513.41
-4513.23
-4513.03
-4512.84
-4512.74
-5230.4
-5230.42
-5230.46
-5230.52
-5230.6
-5230.69
-5230.8
-5230.92
-5231.05
-5231.18
-5231.31
-5231.44
-5231.56
-5231.67
-5231.77
-5231.85
-5231.92
-5231.98
-5232.02
-5232.05
-5232.06
-5232.04
-5231.99
-5231.91
-5231.78
-5231.6
-5231.39
-5231.15
-5230.88
-5230.59
-5230.29
-5229.97
-5229.66
-5229.34
-5229.03
-5228.73
-5228.43
-5228.14
-5227.87
-5227.61
-5227.37
-5227.14
-5226.92
-5226.73
-5226.55
-5226.39
-5226.26
-5226.15
-5226.06
-5225.99
-5225.94
-5225.91
-5225.9
-5225.91
-5225.94
-5225.99
-5226.05
-5226.14
-5226.23
-5226.35
-5226.48
-5226.61
-5226.76
-5226.92
-5227.08
-5227.24
-5227.41
-5227.57
-5227.73
-5227.88
-5228.02
-5228.14
-5228.26
-5228.35
-5228.42
-5228.48
-5228.5
-5228.51
-5228.48
-5228.43
-5228.35
-5228.25
-5228.12
-5227.96
-5227.78
-5227.58
-5227.36
-5227.13
-5226.89
-5226.64
-5226.39
-5226.15
-5225.92
-5225.7
-5225.5
-5225.33
-5225.19
-5225.09
-5225.02
-5224.99
-5225.01
-5225.07
-5225.17
-5225.32
-5225.5
-5225.72
-5225.96
-5226.23
-5226.51
-5226.79
-5227.07
-5227.34
-5227.58
-5227.79
-5227.96
-5228.08
-5228.14
-5228.15
-5228.1
-5227.99
-5227.82
-5227.6
-5227.34
-5227.05
-5226.74
-5226.43
-5226.12
-5225.84
-5225.6
-5225.41
-5225.28
-5225.22
-5225.24
-5225.33
-5225.5
-5225.72
-5226
-5226.3
-5226.62
-5226.93
-5227.22
-5227.45
-5227.61
-5227.69
-5227.69
-5227.6
-5227.43
-5227.18
-5226.89
-5226.57
-5226.25
-5225.96
-5225.73
-5225.58
-5225.52
-5225.57
-5225.71
-5225.94
-5226.23
-5226.55
-5226.87
-5227.15
-5227.36
-5227.47
-5227.47
-5227.36
-5227.15
-5226.86
-5226.53
-5226.19
-5225.91
-5225.7
-5225.61
-5225.64
-5225.79
-5226.04
-5226.35
-5226.68
-5226.97
-5227.17
-5227.26
-5227.23
-5227.08
-5226.86
-5226.59
-5226.33
-5226.15
-5226.07
-5226.11
-5226.25
-5226.47
-5226.71
-5226.92
-5227.03
-5227.02
-5226.88
-5226.64
-5226.37
-5226.13
-5225.99
-5861.7
-5861.75
-5861.85
-5861.99
-5862.18
-5862.41
-5862.69
-5863
-5863.33
-5863.67
-5864.02
-5864.37
-5864.71
-5865.03
-5865.33
-5865.61
-5865.84
-5866.04
-5866.19
-5866.3
-5866.32
-5866.17
-5865.93
-5865.63
-5865.27
-5864.87
-5864.45
-5864
-5863.54
-5863.08
-5862.62
-5862.16
-5861.71
-5861.27
-5860.85
-5860.45
-5860.06
-5859.7
-5859.36
-5859.04
-5858.74
-5858.47
-5858.22
-5858
-5857.81
-5857.65
-5857.5
-5857.38
-5857.28
-5857.22
-5857.18
-5857.16
-5857.18
-5857.22
-5857.28
-5857.36
-5857.47
-5857.6
-5857.75
-5857.92
-5858.1
-5858.3
-5858.51
-5858.72
-5858.95
-5859.17
-5859.4
-5859.62
-5859.83
-5860.04
-5860.23
-5860.4
-5860.56
-5860.69
-5860.79
-5860.86
-5860.91
-5860.92
-5860.89
-5860.83
-5860.73
-5860.6
-5860.44
-5860.24
-5860.01
-5859.76
-5859.48
-5859.18
-5858.88
-5858.56
-5858.24
-5857.93
-5857.64
-5857.36
-5857.11
-5856.89
-5856.72
-5856.58
-5856.5
-5856.47
-5856.5
-5856.58
-5856.71
-5856.9
-5857.14
-5857.42
-5857.74
-5858.08
-5858.44
-5858.81
-5859.17
-5859.51
-5859.82
-5860.09
-5860.3
-5860.46
-5860.54
-5860.55
-5860.48
-5860.33
-5860.12
-5859.83
-5859.5
-5859.13
-5858.73
-5858.32
-5857.93
-5857.57
-5857.26
-5857.02
-5856.86
-5856.78
-5856.82
-5856.94
-5857.16
-5857.45
-5857.81
-5858.21
-5858.62
-5859.03
-5859.39
-5859.68
-5859.89
-5860
-5859.99
-5859.87
-5859.64
-5859.32
-5858.94
-5858.52
-5858.11
-5857.74
-5857.44
-5857.25
-5857.18
-5857.24
-5857.43
-5857.72
-5858.1
-5858.52
-5858.93
-5859.3
-5859.57
-5859.71
-5859.71
-5859.56
-5859.28
-5858.91
-5858.48
-5858.05
-5857.69
-5857.43
-5857.32
-5857.36
-5857.56
-5857.87
-5858.27
-5858.71
-5859.07
-5859.32
-5859.43
-5859.38
-5859.18
-5858.88
-5858.54
-5858.2
-5857.97
-5857.87
-5857.92
-5858.12
-5858.4
-5858.72
-5858.99
-5859.14
-5859.12
-5858.94
-5858.64
-5858.29
-5857.98
-5857.79
-6419.75
-6419.85
-6420.05
-6420.33
-6420.69
-6421.11
-6421.62
-6422.17
-6422.78
-6423.4
-6424.03
-6424.63
-6425.2
-6425.72
-6426.17
-6426.55
-6426.84
-6427.02
-6427.09
-6427.02
-6426.84
-6426.67
-6426.52
-6426.32
-6426.02
-6425.62
-6425.12
-6424.54
-6423.92
-6423.29
-6422.67
-6422.05
-6421.46
-6420.89
-6420.35
-6419.85
-6419.37
-6418.93
-6418.52
-6418.15
-6417.81
-6417.5
-6417.22
-6416.98
-6416.77
-6416.59
-6416.45
-6416.33
-6416.25
-6416.21
-6416.19
-6416.2
-6416.25
-6416.32
-6416.42
-6416.55
-6416.71
-6416.9
-6417.1
-6417.33
-6417.58
-6417.84
-6418.12
-6418.4
-6418.7
-6418.99
-6419.29
-6419.57
-6419.85
-6420.12
-6420.37
-6420.59
-6420.79
-6420.96
-6421.1
-6421.19
-6421.25
-6421.27
-6421.24
-6421.17
-6421.05
-6420.89
-6420.69
-6420.44
-6420.16
-6419.84
-6419.49
-6419.13
-6418.74
-6418.35
-6417.95
-6417.57
-6417.2
-6416.85
-6416.54
-6416.28
-6416.06
-6415.89
-6415.79
-6415.76
-6415.79
-6415.9
-6416.07
-6416.31
-6416.61
-6416.96
-6417.36
-6417.79
-6418.25
-6418.71
-6419.16
-6419.59
-6419.97
-6420.31
-6420.58
-6420.77
-6420.87
-6420.87
-6420.78
-6420.6
-6420.33
-6419.97
-6419.55
-6419.08
-6418.58
-6418.08
-6417.59
-6417.14
-6416.76
-6416.46
-6416.26
-6416.18
-6416.22
-6416.38
-6416.65
-6417.03
-6417.47
-6417.98
-6418.51
-6419.01
-6419.47
-6419.83
-6420.09
-6420.22
-6420.21
-6420.05
-6419.76
-6419.35
-6418.87
-6418.34
-6417.82
-6417.36
-6416.98
-6416.74
-6416.66
-6416.74
-6416.98
-6417.36
-6417.84
-6418.36
-6418.89
-6419.34
-6419.68
-6419.86
-6419.85
-6419.67
-6419.32
-6418.85
-6418.31
-6417.78
-6417.32
-6417
-6416.87
-6416.93
-6417.17
-6417.57
-6418.05
-6418.63
-6419.07
-6419.37
-6419.49
-6419.42
-6419.17
-6418.79
-6418.35
-6417.93
-6417.64
-6417.52
-6417.59
-6417.84
-6418.21
-6418.61
-6418.96
-6419.14
-6419.12
-6418.9
-6418.52
-6418.08
-6417.68
-6417.45
-6913.46
-6913.59
-6913.84
-6914.24
-6914.81
-6915.54
-6916.43
-6917.45
-6918.52
-6919.6
-6920.67
-6921.72
-6922.7
-6923.59
-6924.37
-6925.03
-6925.55
-6925.96
-6926.23
-6926.4
-6926.47
-6926.4
-6926.08
-6925.51
-6924.77
-6923.88
-6922.87
-6921.77
-6920.72
-6919.7
-6918.76
-6917.89
-6917.09
-6916.37
-6915.7
-6915.1
-6914.55
-6914.05
-6913.6
-6913.19
-6912.82
-6912.5
-6912.21
-6911.96
-6911.74
-6911.57
-6911.43
-6911.32
-6911.26
-6911.23
-6911.23
-6911.28
-6911.36
-6911.47
-6911.62
-6911.8
-6912.02
-6912.26
-6912.53
-6912.83
-6913.14
-6913.48
-6913.83
-6914.19
-6914.56
-6914.93
-6915.3
-6915.66
-6916.01
-6916.35
-6916.66
-6916.94
-6917.19
-6917.4
-6917.57
-6917.69
-6917.77
-6917.79
-6917.76
-6917.67
-6917.53
-6917.33
-6917.08
-6916.79
-6916.44
-6916.05
-6915.63
-6915.18
-6914.72
-6914.24
-6913.76
-6913.29
-6912.84
-6912.42
-6912.04
-6911.71
-6911.45
-6911.25
-6911.13
-6911.09
-6911.14
-6911.27
-6911.48
-6911.78
-6912.15
-6912.58
-6913.07
-6913.6
-6914.16
-6914.72
-6915.27
-6915.79
-6916.27
-6916.67
-6917
-6917.23
-6917.35
-6917.35
-6917.24
-6917.01
-6916.67
-6916.24
-6915.72
-6915.15
-6914.54
-6913.92
-6913.32
-6912.78
-6912.32
-6911.96
-6911.73
-6911.64
-6911.68
-6911.88
-6912.22
-6912.68
-6913.23
-6913.84
-6914.5
-6915.12
-6915.67
-6916.12
-6916.44
-6916.59
-6916.57
-6916.37
-6916
-6915.5
-6914.91
-6914.26
-6913.62
-6913.05
-6912.6
-6912.3
-6912.2
-6912.31
-6912.61
-6913.08
-6913.67
-6914.32
-6914.96
-6915.51
-6915.92
-6916.14
-6916.13
-6915.9
-6915.47
-6914.89
-6914.24
-6913.59
-6913.04
-6912.65
-6912.49
-6912.57
-6912.87
-6913.36
-6913.94
-6914.67
-6915.18
-6915.54
-6915.69
-6915.59
-6915.27
-6914.8
-6914.26
-6913.75
-6913.39
-6913.25
-6913.34
-6913.65
-6914.11
-6914.6
-6915.04
-6915.26
-6915.24
-6914.97
-6914.5
-6913.96
-6913.48
-6913.2
-7348.38
-7348.59
-7349
-7349.64
-7350.56
-7351.76
-7353.31
-7355.32
-7358.26
-7360.31
-7362.09
-7363.62
-7364.95
-7366.08
-7367.03
-7367.82
-7368.45
-7368.92
-7369.22
-7369.42
-7369.52
-7369.45
-7369.08
-7368.36
-7367.3
-7365.92
-7364.32
-7361.72
-7360.2
-7358.77
-7357.58
-7356.55
-7355.65
-7354.85
-7354.13
-7353.48
-7352.9
-7352.38
-7351.91
-7351.49
-7351.11
-7350.78
-7350.49
-7350.24
-7350.03
-7349.85
-7349.72
-7349.64
-7349.6
-7349.6
-7349.63
-7349.71
-7349.83
-7349.99
-7350.19
-7350.43
-7350.7
-7351.01
-7351.34
-7351.71
-7352.1
-7352.52
-7352.95
-7353.39
-7353.84
-7354.29
-7354.74
-7355.18
-7355.61
-7356.01
-7356.39
-7356.73
-7357.03
-7357.29
-7357.49
-7357.64
-7357.73
-7357.76
-7357.73
-7357.62
-7357.46
-7357.22
-7356.92
-7356.57
-7356.15
-7355.69
-7355.19
-7354.65
-7354.09
-7353.52
-7352.95
-7352.39
-7351.85
-7351.35
-7350.9
-7350.52
-7350.2
-7349.97
-7349.83
-7349.79
-7349.84
-7350
-7350.26
-7350.62
-7351.06
-7351.58
-7352.17
-7352.81
-7353.47
-7354.14
-7354.8
-7355.43
-7355.99
-7356.48
-7356.86
-7357.13
-7357.27
-7357.27
-7357.14
-7356.86
-7356.45
-7355.93
-7355.31
-7354.62
-7353.89
-7353.15
-7352.44
-7351.8
-7351.24
-7350.82
-7350.55
-7350.45
-7350.51
-7350.75
-7351.16
-7351.71
-7352.37
-7353.1
-7353.92
-7354.65
-7355.31
-7355.84
-7356.22
-7356.4
-7356.36
-7356.12
-7355.68
-7355.07
-7354.36
-7353.58
-7352.81
-7352.13
-7351.58
-7351.24
-7351.12
-7351.25
-7351.62
-7352.18
-7352.89
-7353.67
-7354.44
-7355.11
-7355.6
-7355.85
-7355.84
-7355.56
-7355.04
-7354.35
-7353.56
-7352.79
-7352.13
-7351.68
-7351.49
-7351.59
-7351.96
-7352.54
-7353.24
-7354.1
-7354.71
-7355.14
-7355.3
-7355.17
-7354.78
-7354.21
-7353.56
-7352.95
-7352.53
-7352.36
-7352.48
-7352.86
-7353.41
-7354
-7354.53
-7354.8
-7354.78
-7354.45
-7353.89
-7353.24
-7352.67
-7352.33
-7731.59
-7731.83
-7732.34
-7733.15
-7734.32
-7735.94
-7737.92
-7740.6
-7744.83
-7748.19
-7751.04
-7753.52
-7755.64
-7757.42
-7758.9
-7760.08
-7760.96
-7761.55
-7761.84
-7761.75
-7761.28
-7760.47
-7759.46
-7758.35
-7757.01
-7755.35
-7753.42
-7750.5
-7748.6
-7746.94
-7745.6
-7744.54
-7743.6
-7742.81
-7742.11
-7741.49
-7740.93
-7740.42
-7739.97
-7739.55
-7739.19
-7738.86
-7738.58
-7738.34
-7738.14
-7737.99
-7737.88
-7737.8
-7737.78
-7737.8
-7737.86
-7737.98
-7738.14
-7738.34
-7738.59
-7738.89
-7739.22
-7739.59
-7740
-7740.44
-7740.91
-7741.41
-7741.92
-7742.45
-7742.99
-7743.52
-7744.06
-7744.58
-7745.08
-7745.56
-7746
-7746.4
-7746.76
-7747.06
-7747.31
-7747.48
-7747.59
-7747.63
-7747.58
-7747.47
-7747.27
-7746.99
-7746.64
-7746.23
-7745.74
-7745.2
-7744.61
-7743.98
-7743.33
-7742.66
-7741.99
-7741.33
-7740.7
-7740.12
-7739.6
-7739.15
-7738.78
-7738.51
-7738.35
-7738.3
-7738.37
-7738.56
-7738.87
-7739.29
-7739.81
-7740.42
-7741.11
-7741.86
-7742.64
-7743.43
-7744.2
-7744.93
-7745.59
-7746.15
-7746.6
-7746.91
-7747.08
-7747.08
-7746.91
-7746.58
-7746.1
-7745.49
-7744.76
-7743.95
-7743.09
-7742.23
-7741.4
-7740.64
-7740
-7739.51
-7739.19
-7739.08
-7739.16
-7739.45
-7739.94
-7740.58
-7741.36
-7742.21
-7743.2
-7744.05
-7744.81
-7745.44
-7745.87
-7746.08
-7746.03
-7745.74
-7745.22
-7744.5
-7743.66
-7742.74
-7741.84
-7741.04
-7740.4
-7740
-7739.86
-7740.02
-7740.46
-7741.13
-7741.96
-7742.88
-7743.79
-7744.57
-7745.14
-7745.44
-7745.42
-7745.08
-7744.47
-7743.65
-7742.74
-7741.83
-7741.06
-7740.54
-7740.32
-7740.45
-7740.89
-7741.58
-7742.41
-7743.38
-7744.1
-7744.59
-7744.78
-7744.62
-7744.15
-7743.48
-7742.71
-7742
-7741.51
-7741.32
-7741.46
-7741.91
-7742.56
-7743.25
-7743.89
-7744.21
-7744.18
-7743.79
-7743.14
-7742.37
-7741.7
-7741.3
-8069.3
-8069.41
-8069.63
-8069.94
-8070.25
-8070.54
-8070.89
-8071.29
-8089.19
-8088.69
-8088.33
-8087.79
-8087.22
-8086.63
-8086.06
-8085.48
-8084.95
-8084.45
-8083.99
-8083.56
-8083.17
-8082.82
-8082.5
-8082.23
-8082
-8081.81
-8081.67
-8081.57
-8081.52
-8081.52
-8081.57
-8081.67
-8081.82
-8082.02
-8082.27
-8082.57
-8082.93
-8083.32
-8083.76
-8084.25
-8084.76
-8085.31
-8085.89
-8086.49
-8087.1
-8087.72
-8088.35
-8088.97
-8089.57
-8090.15
-8090.71
-8091.22
-8091.68
-8092.1
-8092.45
-8092.73
-8092.93
-8093.06
-8093.1
-8093.05
-8092.91
-8092.68
-8092.37
-8091.96
-8091.48
-8090.92
-8090.3
-8089.62
-8088.9
-8088.14
-8087.37
-8086.6
-8085.85
-8085.13
-8084.46
-8083.86
-8083.34
-8082.92
-8082.61
-8082.43
-8082.37
-8082.46
-8082.68
-8083.04
-8083.52
-8084.13
-8084.84
-8085.63
-8086.49
-8087.39
-8088.29
-8089.18
-8090.02
-8090.78
-8091.43
-8091.94
-8092.3
-8092.48
-8092.48
-8092.28
-8091.9
-8091.35
-8090.63
-8089.8
-8088.86
-8087.88
-8086.88
-8085.93
-8085.06
-8084.32
-8083.76
-8083.4
-8083.27
-8083.37
-8083.72
-8084.28
-8085.03
-8085.93
-8086.91
-8088.05
-8089.02
-8089.91
-8090.63
-8091.12
-8091.36
-8091.3
-8090.96
-8090.35
-8089.52
-8088.54
-8087.48
-8086.44
-8085.52
-8084.79
-8084.32
-8084.18
-8084.36
-8084.87
-8085.65
-8086.62
-8087.68
-8088.72
-8089.62
-8090.28
-8090.61
-8090.59
-8090.2
-8089.49
-8088.55
-8087.49
-8086.44
-8085.57
-8084.97
-8084.72
-8084.88
-8085.39
-8086.19
-8087.15
-8088.24
-8089.07
-8089.64
-8089.84
-8089.65
-8089.11
-8088.32
-8087.44
-8086.62
-8086.06
-8085.84
-8086.01
-8086.54
-8087.29
-8088.08
-8088.84
-8089.2
-8089.16
-8088.72
-8087.96
-8087.08
-8086.31
-8085.85
-8367.24
-8367.27
-8367.33
-8367.42
-8367.57
-8367.89
-8368.1
-8368.36
-8392.48
-8392.11
-8391.81
-8391.41
-8390.98
-8390.51
-8390.04
-8389.57
-8389.11
-8388.66
-8388.24
-8387.84
-8387.47
-8387.13
-8386.83
-8386.56
-8386.34
-8386.16
-8386.03
-8385.95
-8385.91
-8385.93
-8386.01
-8386.14
-8386.32
-8386.57
-8386.87
-8387.22
-8387.63
-8388.09
-8388.6
-8389.15
-8389.75
-8390.38
-8391.04
-8391.72
-8392.42
-8393.13
-8393.84
-8394.55
-8395.24
-8395.9
-8396.52
-8397.11
-8397.64
-8398.1
-8398.5
-8398.82
-8399.05
-8399.19
-8399.24
-8399.18
-8399.02
-8398.77
-8398.41
-8397.95
-8397.4
-8396.77
-8396.06
-8395.29
-8394.47
-8393.62
-8392.74
-8391.87
-8391.02
-8390.2
-8389.44
-8388.77
-8388.18
-8387.71
-8387.36
-8387.16
-8387.1
-8387.2
-8387.45
-8387.86
-8388.41
-8389.1
-8389.9
-8390.8
-8391.78
-8392.8
-8393.82
-8394.83
-8395.78
-8396.63
-8397.37
-8397.94
-8398.35
-8398.55
-8398.54
-8398.32
-8397.88
-8397.25
-8396.44
-8395.49
-8394.43
-8393.31
-8392.19
-8391.11
-8390.13
-8389.3
-8388.66
-8388.26
-8388.11
-8388.24
-8388.63
-8389.28
-8390.14
-8391.16
-8392.29
-8393.54
-8394.66
-8395.66
-8396.48
-8397.04
-8397.3
-8397.23
-8396.84
-8396.14
-8395.2
-8394.08
-8392.88
-8391.7
-8390.65
-8389.82
-8389.3
-8389.14
-8389.35
-8389.93
-8390.82
-8391.92
-8393.13
-8394.31
-8395.33
-8396.07
-8396.45
-8396.42
-8395.97
-8395.16
-8394.09
-8392.89
-8391.71
-8390.73
-8390.05
-8389.78
-8389.96
-8390.55
-8391.47
-8392.56
-8393.77
-8394.71
-8395.35
-8395.57
-8395.34
-8394.72
-8393.82
-8392.82
-8391.9
-8391.26
-8391.02
-8391.22
-8391.82
-8392.68
-8393.57
-8394.45
-8394.85
-8394.81
-8394.3
-8393.45
-8392.45
-8391.57
-8391.05
-8631.41
-8631.46
-8631.55
-8631.72
-8631.95
-8632.16
-8632.04
-8632.09
-8661.17
-8660.95
-8660.75
-8660.47
-8660.13
-8659.74
-8659.35
-8658.93
-8658.51
-8658.1
-8657.7
-8657.32
-8656.96
-8656.63
-8656.33
-8656.08
-8655.86
-8655.69
-8655.56
-8655.49
-8655.48
-8655.52
-8655.61
-8655.77
-8656
-8656.28
-8656.62
-8657.03
-8657.5
-8658.02
-8658.59
-8659.22
-8659.89
-8660.6
-8661.34
-8662.11
-8662.89
-8663.69
-8664.49
-8665.28
-8666.05
-8666.79
-8667.49
-8668.14
-8668.74
-8669.26
-8669.7
-8670.06
-8670.31
-8670.47
-8670.52
-8670.46
-8670.28
-8669.99
-8669.59
-8669.07
-8668.46
-8667.75
-8666.96
-8666.1
-8665.19
-8664.23
-8663.25
-8662.28
-8661.33
-8660.42
-8659.57
-8658.82
-8658.16
-8657.64
-8657.26
-8657.03
-8656.97
-8657.08
-8657.36
-8657.82
-8658.44
-8659.21
-8660.11
-8661.12
-8662.21
-8663.35
-8664.49
-8665.62
-8666.67
-8667.63
-8668.44
-8669.09
-8669.53
-8669.76
-8669.74
-8669.49
-8669
-8668.29
-8667.38
-8666.32
-8665.14
-8663.89
-8662.63
-8661.43
-8660.33
-8659.41
-8658.7
-8658.26
-8658.1
-8658.25
-8658.69
-8659.42
-8660.39
-8661.54
-8662.8
-8664.18
-8665.44
-8666.56
-8667.47
-8668.1
-8668.38
-8668.3
-8667.86
-8667.07
-8666.01
-8664.76
-8663.41
-8662.09
-8660.92
-8659.99
-8659.41
-8659.24
-8659.49
-8660.14
-8661.14
-8662.38
-8663.73
-8665.05
-8666.18
-8667.01
-8667.43
-8667.39
-8666.88
-8665.98
-8664.78
-8663.44
-8662.12
-8661.02
-8660.27
-8659.98
-8660.19
-8660.86
-8661.89
-8663.11
-8664.44
-8665.49
-8666.19
-8666.44
-8666.18
-8665.47
-8664.46
-8663.34
-8662.31
-8661.6
-8661.33
-8661.57
-8662.25
-8663.21
-8664.22
-8665.19
-8665.64
-8665.59
-8665.03
-8664.07
-8662.96
-8661.97
-8661.39
-8865.27
-8865.28
-8865.3
-8865.31
-8865.26
-8865.13
-8865.33
-8865.44
-8899.43
-8899.29
-8899.12
-8898.9
-8898.6
-8898.27
-8897.92
-8897.54
-8897.15
-8896.75
-8896.37
-8896
-8895.64
-8895.32
-8895.02
-8894.76
-8894.55
-8894.38
-8894.26
-8894.2
-8894.2
-8894.25
-8894.37
-8894.56
-8894.82
-8895.14
-8895.53
-8895.98
-8896.5
-8897.09
-8897.73
-8898.42
-8899.17
-8899.95
-8900.77
-8901.62
-8902.5
-8903.38
-8904.26
-8905.13
-8905.98
-8906.8
-8907.58
-8908.3
-8908.95
-8909.53
-8910.01
-8910.4
-8910.69
-8910.86
-8910.91
-8910.84
-8910.64
-8910.32
-8909.88
-8909.31
-8908.63
-8907.85
-8906.98
-8906.03
-8905.02
-8903.97
-8902.88
-8901.81
-8900.76
-8899.76
-8898.83
-8897.99
-8897.28
-8896.7
-8896.28
-8896.03
-8895.96
-8896.09
-8896.41
-8896.91
-8897.6
-8898.45
-8899.45
-8900.56
-8901.77
-8903.02
-8904.28
-8905.52
-8906.69
-8907.74
-8908.63
-8909.34
-8909.83
-8910.07
-8910.05
-8909.77
-8909.23
-8908.44
-8907.44
-8906.26
-8904.95
-8903.58
-8902.19
-8900.86
-8899.66
-8898.64
-8897.87
-8897.38
-8897.21
-8897.38
-8897.88
-8898.69
-8899.76
-8901.03
-8902.44
-8903.95
-8905.33
-8906.57
-8907.58
-8908.27
-8908.58
-8908.49
-8907.99
-8907.12
-8905.94
-8904.55
-8903.07
-8901.61
-8900.31
-8899.29
-8898.65
-8898.46
-8898.74
-8899.47
-8900.58
-8901.95
-8903.44
-8904.9
-8906.15
-8907.07
-8907.53
-8907.47
-8906.91
-8905.9
-8904.58
-8903.1
-8901.65
-8900.44
-8899.62
-8899.3
-8899.54
-8900.28
-8901.42
-8902.78
-8904.23
-8905.38
-8906.16
-8906.42
-8906.12
-8905.34
-8904.22
-8902.98
-8901.85
-8901.06
-8900.77
-8901.03
-8901.79
-8902.86
-8903.99
-8905.03
-8905.54
-8905.49
-8904.87
-8903.82
-8902.58
-8901.49
-8900.85
-9072.4
-9072.41
-9072.41
-9072.42
-9072.43
-9072.46
-9072.48
-9072.51
-9110.65
-9110.54
-9110.4
-9110.2
-9109.94
-9109.62
-9109.29
-9108.92
-9108.54
-9108.16
-9107.78
-9107.4
-9107.05
-9106.72
-9106.42
-9106.16
-9105.94
-9105.77
-9105.66
-9105.6
-9105.61
-9105.68
-9105.82
-9106.04
-9106.32
-9106.68
-9107.11
-9107.61
-9108.19
-9108.83
-9109.53
-9110.29
-9111.11
-9111.97
-9112.87
-9113.8
-9114.75
-9115.71
-9116.68
-9117.63
-9118.56
-9119.45
-9120.3
-9121.09
-9121.8
-9122.43
-9122.96
-9123.38
-9123.69
-9123.88
-9123.93
-9123.85
-9123.64
-9123.28
-9122.79
-9122.18
-9121.44
-9120.58
-9119.63
-9118.59
-9117.49
-9116.35
-9115.15
-9113.98
-9112.84
-9111.75
-9110.74
-9109.83
-9109.05
-9108.42
-9107.96
-9107.7
-9107.63
-9107.77
-9108.12
-9108.67
-9109.42
-9110.35
-9111.44
-9112.66
-9113.97
-9115.34
-9116.72
-9118.07
-9119.33
-9120.48
-9121.46
-9122.22
-9122.75
-9123.01
-9122.99
-9122.68
-9122.08
-9121.22
-9120.13
-9118.84
-9117.41
-9115.91
-9114.4
-9112.95
-9111.64
-9110.54
-9109.7
-9109.17
-9108.99
-9109.18
-9109.73
-9110.61
-9111.79
-9113.18
-9114.72
-9116.35
-9117.87
-9119.22
-9120.32
-9121.07
-9121.4
-9121.3
-9120.75
-9119.8
-9118.51
-9116.99
-9115.36
-9113.77
-9112.35
-9111.24
-9110.55
-9110.34
-9110.66
-9111.46
-9112.67
-9114.17
-9115.8
-9117.39
-9118.76
-9119.75
-9120.25
-9120.19
-9119.57
-9118.47
-9117.02
-9115.41
-9113.83
-9112.51
-9111.62
-9111.28
-9111.54
-9112.36
-9113.61
-9115.1
-9116.66
-9117.91
-9118.76
-9119.03
-9118.71
-9117.84
-9116.62
-9115.26
-9114.03
-9113.18
-9112.86
-9113.15
-9113.98
-9115.16
-9116.4
-9117.52
-9118.08
-9118.03
-9117.35
-9116.2
-9114.85
-9113.66
-9112.96
-9255.88
-9255.89
-9255.89
-9255.9
-9255.91
-9255.92
-9255.92
-9255.95
-9297.86
-9297.77
-9297.63
-9297.44
-9297.19
-9296.89
-9296.56
-9296.19
-9295.82
-9295.43
-9295.04
-9294.66
-9294.3
-9293.96
-9293.65
-9293.38
-9293.16
-9292.99
-9292.87
-9292.82
-9292.84
-9292.92
-9293.08
-9293.32
-9293.63
-9294.02
-9294.5
-9295.04
-9295.67
-9296.36
-9297.13
-9297.95
-9298.83
-9299.77
-9300.74
-9301.75
-9302.78
-9303.82
-9304.86
-9305.89
-9306.9
-9307.86
-9308.78
-9309.63
-9310.39
-9311.07
-9311.64
-9312.1
-9312.43
-9312.63
-9312.69
-9312.6
-9312.37
-9311.99
-9311.46
-9310.79
-9309.98
-9309.06
-9308.03
-9306.91
-9305.72
-9304.48
-9303.19
-9301.93
-9300.7
-9299.52
-9298.43
-9297.45
-9296.61
-9295.93
-9295.44
-9295.15
-9295.08
-9295.23
-9295.61
-9296.22
-9297.03
-9298.04
-9299.21
-9300.53
-9301.95
-9303.42
-9304.91
-9306.37
-9307.74
-9308.97
-9310.02
-9310.85
-9311.42
-9311.7
-9311.67
-9311.33
-9310.68
-9309.75
-9308.56
-9307.17
-9305.63
-9304
-9302.37
-9300.81
-9299.4
-9298.21
-9297.3
-9296.74
-9296.55
-9296.76
-9297.36
-9298.32
-9299.59
-9301.11
-9302.77
-9304.52
-9306.16
-9307.63
-9308.81
-9309.62
-9309.98
-9309.86
-9309.26
-9308.23
-9306.83
-9305.18
-9303.42
-9301.7
-9300.17
-9298.97
-9298.22
-9298
-9298.35
-9299.22
-9300.54
-9302.16
-9303.93
-9305.64
-9307.12
-9308.19
-9308.73
-9308.66
-9307.98
-9306.79
-9305.22
-9303.48
-9301.78
-9300.36
-9299.4
-9299.04
-9299.33
-9300.22
-9301.58
-9303.18
-9304.85
-9306.21
-9307.11
-9307.4
-9307.04
-9306.1
-9304.77
-9303.31
-9301.98
-9301.06
-9300.72
-9301.04
-9301.95
-9303.22
-9304.57
-9305.77
-9306.38
-9306.33
-9305.6
-9304.35
-9302.89
-9301.61
-9300.85
-9418.42
-9418.42
-9418.42
-9418.43
-9418.44
-9418.45
-9418.45
-9418.47
-9463.77
-9463.69
-9463.54
-9463.35
-9463.11
-9462.8
-9462.47
-9462.1
-9461.72