/*--------------------------------*- C++ -*----------------------------------*\
  =========                 |
  \\      /  F ield         | OpenFOAM: The Open Source CFD Toolbox
   \\    /   O peration     | Website:  https://openfoam.org
    \\  /    A nd           | Version:  12
     \\/     M anipulation  |
\*---------------------------------------------------------------------------*/
FoamFile
{
    format      ascii;
    class       volScalarField;
    location    "17";
    object      p_rgh;
}
// * * * * * * * * * * * * * * * * * * * * * * * * * * * * * * * * * * * * * //

dimensions      [1 -1 -2 0 0 0 0];

internalField   nonuniform List<scalar> 
3829
(
-3.79576
-3.79454
-3.79205
-3.78824
-3.78306
-3.77642
-3.76826
-3.75848
-3.74698
-3.73366
-3.7184
-3.70109
-3.68159
-3.65978
-3.63551
-3.60865
-3.57908
-3.54668
-3.51132
-3.4729
-3.43135
-3.38659
-3.33857
-3.28729
-3.23274
-3.17496
-3.11401
-3.04998
-2.98302
-2.91326
-2.84091
-2.76618
-2.68932
-2.6106
-2.53031
-2.44877
-2.36632
-2.28331
-2.20007
-2.11699
-2.03443
-1.9528
-1.87247
-1.79385
-1.71735
-1.64359
-1.57285
-1.50546
-1.4417
-1.38183
-1.32606
-1.27457
-1.2275
-1.18491
-1.14687
-1.11336
-1.08436
-1.05979
-1.03951
-1.02337
-1.0111
-1.00243
-0.997004
-0.994409
-0.994196
-0.995865
-0.998875
-1.00265
-1.00662
-1.01008
-1.01241
-1.013
-1.01123
-1.00649
-0.998204
-0.985848
-0.968962
-0.947152
-0.920159
-0.887834
-0.849558
-0.805572
-0.75616
-0.701671
-0.642526
-0.579222
-0.512421
-0.442924
-0.371622
-0.299586
-0.227981
-0.157969
-0.0908142
-0.0277772
0.0298858
0.0809583
0.124332
0.159015
0.184176
0.199245
0.201879
0.193161
0.173507
0.143475
0.103791
0.0554343
-0.000297723
-0.0618035
-0.127243
-0.194553
-0.261275
-0.32521
-0.384001
-0.435362
-0.477184
-0.507652
-0.525324
-0.529254
-0.517787
-0.491619
-0.451654
-0.399163
-0.335949
-0.26437
-0.187132
-0.107916
-0.0301021
0.0427144
0.106973
0.159448
0.197384
0.21881
0.222682
0.207815
0.17568
0.128194
0.0681276
-0.000773709
-0.0741798
-0.14742
-0.214616
-0.271567
-0.31404
-0.338832
-0.344076
-0.326476
-0.289699
-0.236597
-0.171239
-0.0988497
-0.0178142
0.0493694
0.104623
0.142542
0.159292
0.152986
0.123173
0.0735039
0.00888477
-0.064449
-0.138795
-0.20398
-0.253359
-0.280658
-0.282028
-0.254134
-0.201831
-0.130762
-0.0485263
0.0388056
0.111832
0.165673
0.192893
0.189559
0.154592
0.0940019
0.0159323
-0.0694975
-0.148724
-0.211
-0.248093
-0.255741
-0.233999
-0.190325
-0.133833
-0.0682111
-0.0236371
0.000171944
-0.00160977
-0.0276173
-0.0705371
-0.118736
-0.158635
-0.178286
-0.169515
-0.132196
-0.0730342
-0.00510622
0.0541869
0.0891414
-3.90579
-3.90499
-3.90334
-3.90078
-3.89722
-3.89255
-3.88664
-3.87935
-3.8705
-3.85991
-3.84737
-3.83267
-3.81559
-3.79594
-3.7735
-3.74806
-3.71937
-3.68722
-3.65138
-3.61168
-3.56794
-3.52005
-3.46791
-3.41149
-3.35079
-3.28586
-3.21682
-3.14382
-3.06705
-2.98672
-2.90308
-2.81642
-2.72707
-2.63542
-2.54189
-2.44693
-2.35101
-2.25461
-2.15823
-2.06236
-1.96749
-1.87405
-1.78243
-1.69272
-1.60745
-1.52626
-1.44943
-1.37724
-1.30994
-1.24775
-1.19087
-1.13946
-1.09363
-1.05347
-1.01899
-0.990167
-0.966942
-0.949175
-0.936669
-0.929175
-0.926381
-0.927897
-0.933254
-0.941917
-0.953297
-0.966752
-0.981588
-0.99708
-1.0125
-1.02697
-1.03977
-1.05009
-1.05715
-1.06023
-1.05861
-1.05167
-1.03882
-1.01957
-0.993499
-0.960068
-0.919233
-0.871219
-0.816284
-0.754787
-0.687225
-0.614242
-0.536674
-0.455532
-0.371933
-0.287105
-0.202706
-0.120108
-0.04087
0.0334554
0.101304
0.161168
0.211663
0.251518
0.279692
0.295402
0.296698
0.284425
0.258913
0.220697
0.170617
0.109909
0.0402274
-0.0364314
-0.117798
-0.201303
-0.283986
-0.363106
-0.435778
-0.499196
-0.550773
-0.588266
-0.609853
-0.614154
-0.600134
-0.568252
-0.519396
-0.455078
-0.377576
-0.289909
-0.195338
-0.0986064
-0.00381463
0.0846634
0.162443
0.225551
0.270659
0.29523
0.297715
0.27766
0.236392
0.176172
0.100569
0.0143325
-0.0771437
-0.167822
-0.250952
-0.320965
-0.372652
-0.401997
-0.406464
-0.384454
-0.338535
-0.272109
-0.190488
-0.100524
-0.00119071
0.0818187
0.15009
0.196661
0.216701
0.207909
0.170499
0.108236
0.0274036
-0.064118
-0.156649
-0.237741
-0.299094
-0.33286
-0.33429
-0.300887
-0.237263
-0.150353
-0.0497275
0.056121
0.145105
0.210385
0.242905
0.237761
0.195012
0.120903
0.0258088
-0.0777077
-0.172611
-0.246038
-0.287828
-0.293025
-0.263193
-0.206612
-0.135132
-0.0542246
0.000531162
0.028916
0.0249742
-0.00947237
-0.0650048
-0.127126
-0.178927
-0.205539
-0.196585
-0.151872
-0.0804075
0.00328965
0.0760792
0.11891
-4.08193
-4.0823
-4.08302
-4.08401
-4.08516
-4.0863
-4.0872
-4.08758
-4.08714
-4.08556
-4.08247
-4.07742
-4.06989
-4.0593
-4.04512
-4.02678
-4.00376
-3.97556
-3.94174
-3.90192
-3.85579
-3.80311
-3.74372
-3.67756
-3.60463
-3.52506
-3.43904
-3.34689
-3.24899
-3.14581
-3.03794
-2.92602
-2.8107
-2.69267
-2.5726
-2.4512
-2.32917
-2.20724
-2.08617
-1.96669
-1.84956
-1.73557
-1.62555
-1.52064
-1.41925
-1.3237
-1.23426
-1.15149
-1.07581
-1.00759
-0.947099
-0.89453
-0.850013
-0.813602
-0.785296
-0.765015
-0.752612
-0.747824
-0.750288
-0.759527
-0.774993
-0.796057
-0.822021
-0.852097
-0.885437
-0.921133
-0.958221
-0.995685
-1.03246
-1.06748
-1.09966
-1.12792
-1.15123
-1.16858
-1.17905
-1.18185
-1.17628
-1.16189
-1.13836
-1.10138
-1.05481
-0.998529
-0.932657
-0.857549
-0.773833
-0.68242
-0.584479
-0.481417
-0.374825
-0.264946
-0.156698
-0.0505248
0.0514098
0.146927
0.233893
0.310264
0.374114
0.423691
0.457631
0.474798
0.473471
0.454295
0.417481
0.363648
0.29392
0.210029
0.114207
0.00916582
-0.102024
-0.215751
-0.32816
-0.435512
-0.533915
-0.619625
-0.689157
-0.739492
-0.768175
-0.773309
-0.754147
-0.711071
-0.645092
-0.558273
-0.453881
-0.335987
-0.209236
-0.0797012
0.0468435
0.164493
0.267356
0.350051
0.408087
0.43822
0.438061
0.407898
0.349035
0.264654
0.159757
0.0408773
-0.0846521
-0.20812
-0.32096
-0.415331
-0.484084
-0.521858
-0.525377
-0.494104
-0.430074
-0.33792
-0.224987
-0.100265
0.0289635
0.143253
0.236355
0.299184
0.325345
0.31158
0.259205
0.172878
0.0613758
-0.0643903
-0.191072
-0.301919
-0.385631
-0.431448
-0.432903
-0.388566
-0.303207
-0.18641
-0.0513163
0.0890862
0.207726
0.294228
0.336347
0.327684
0.2698
0.170129
0.043059
-0.0945393
-0.218543
-0.31234
-0.36251
-0.362838
-0.31694
-0.235693
-0.135719
-0.0271115
0.0467986
0.0835514
0.0753023
0.0247677
-0.0547328
-0.143066
-0.217129
-0.25756
-0.247803
-0.188641
-0.091326
0.019262
0.116946
0.174609
-4.21723
-4.22052
-4.22712
-4.23695
-4.24985
-4.26551
-4.28353
-4.30336
-4.32427
-4.34536
-4.36564
-4.38401
-4.39934
-4.41049
-4.41626
-4.41556
-4.40739
-4.39088
-4.36517
-4.3295
-4.28323
-4.22583
-4.15699
-4.07655
-3.98461
-3.8815
-3.76781
-3.64436
-3.51211
-3.3721
-3.22521
-3.0725
-2.91513
-2.75432
-2.59132
-2.42742
-2.26382
-2.10171
-1.9422
-1.78635
-1.63513
-1.48936
-1.34981
-1.2169
-1.09048
-0.976659
-0.873858
-0.781744
-0.700328
-0.629713
-0.570034
-0.52143
-0.483959
-0.457627
-0.442355
-0.43795
-0.444106
-0.460405
-0.486324
-0.521207
-0.564259
-0.614573
-0.671147
-0.732855
-0.798491
-0.866773
-0.936336
-1.00575
-1.07355
-1.13822
-1.19825
-1.25218
-1.29852
-1.33588
-1.36296
-1.37857
-1.3816
-1.37104
-1.346
-1.30806
-1.25538
-1.18811
-1.10663
-1.01163
-0.904168
-0.785592
-0.657562
-0.52205
-0.381254
-0.2372
-0.0935413
0.0473628
0.182541
0.309067
0.423979
0.524394
0.60764
0.671398
0.71376
0.733106
0.728038
0.698717
0.645282
0.568575
0.470194
0.352567
0.218822
0.0726969
-0.0815631
-0.23897
-0.394317
-0.542369
-0.67779
-0.795421
-0.890562
-0.959105
-0.997678
-1.0038
-0.976927
-0.917154
-0.825886
-0.706231
-0.562686
-0.400863
-0.227175
-0.0502683
0.122084
0.281752
0.420672
0.531594
0.608127
0.645563
0.641568
0.596001
0.510972
0.391124
0.243474
0.0769926
-0.0982862
-0.269473
-0.425307
-0.554796
-0.648246
-0.6982
-0.700179
-0.654443
-0.563191
-0.433116
-0.274726
-0.10043
0.0764155
0.234853
0.363331
0.449356
0.48394
0.462686
0.388013
0.266223
0.109849
-0.0658927
-0.242149
-0.396126
-0.512057
-0.575232
-0.576654
-0.515826
-0.39833
-0.237895
-0.0527633
0.137659
0.298983
0.41571
0.471259
0.457457
0.376835
0.23982
0.0662504
-0.12122
-0.287069
-0.409663
-0.471003
-0.463702
-0.393425
-0.275751
-0.133938
0.0139429
0.115576
0.164083
0.149096
0.0747662
-0.0400125
-0.166643
-0.272359
-0.334873
-0.322905
-0.243092
-0.110798
0.0414502
0.175723
0.254997
-4.26079
-4.27016
-4.28905
-4.31741
-4.35498
-4.40135
-4.45593
-4.51746
-4.58445
-4.65497
-4.72701
-4.79818
-4.86611
-4.92807
-4.98129
-5.02292
-5.05021
-5.06058
-5.05186
-5.02276
-4.97287
-4.90244
-4.81213
-4.70257
-4.57451
-4.42884
-4.26703
-4.09066
-3.90165
-3.70164
-3.49247
-3.27624
-3.05507
-2.83108
-2.60626
-2.38251
-2.16163
-1.94527
-1.73496
-1.53211
-1.3381
-1.15432
-0.982063
-0.822766
-0.678431
-0.542771
-0.420766
-0.313485
-0.221527
-0.145251
-0.0848359
-0.0403464
-0.0117626
0.00109377
-0.00146827
-0.0189923
-0.0508687
-0.0963181
-0.154446
-0.22424
-0.304548
-0.394089
-0.49146
-0.595088
-0.703312
-0.814388
-0.926447
-1.03755
-1.14567
-1.24878
-1.34486
-1.43188
-1.50786
-1.57093
-1.61933
-1.6514
-1.66582
-1.66152
-1.63746
-1.59404
-1.53042
-1.44662
-1.34315
-1.22095
-1.08149
-0.926594
-0.758573
-0.580122
-0.394254
-0.204199
-0.0140823
0.172464
0.351406
0.518685
0.670227
0.802137
0.910879
0.993285
1.0466
1.06865
1.05869
1.01592
0.940504
0.833642
0.697621
0.53577
0.352356
0.152519
-0.057937
-0.272352
-0.483625
-0.684666
-0.86817
-1.02719
-1.15532
-1.24713
-1.29814
-1.30517
-1.26756
-1.18531
-1.06047
-0.897444
-0.702296
-0.482865
-0.247923
-0.00909459
0.222907
0.437209
0.622918
0.770163
0.870835
0.918285
0.907697
0.840946
0.720944
0.554116
0.350101
0.121105
-0.119583
-0.353347
-0.565342
-0.74053
-0.865777
-0.93112
-0.930508
-0.865052
-0.737323
-0.557012
-0.338562
-0.0991635
0.141395
0.357564
0.532178
0.647869
0.69278
0.661442
0.556676
0.387797
0.172127
-0.0694141
-0.310591
-0.521028
-0.678824
-0.76425
-0.765342
-0.682177
-0.522035
-0.304141
-0.053403
0.202191
0.418856
0.574442
0.646991
0.625829
0.514806
0.328881
0.094431
-0.159392
-0.379344
-0.538334
-0.613228
-0.594878
-0.491543
-0.325466
-0.128444
0.0701753
0.207945
0.271322
0.246753
0.1405
-0.0210545
-0.198736
-0.349637
-0.433297
-0.421479
-0.315115
-0.136813
0.0699252
0.252164
0.359812
-3.92202
-3.94221
-3.98271
-4.04295
-4.12189
-4.2172
-4.32651
-4.4466
-4.57431
-4.70582
-4.83753
-4.96551
-5.08634
-5.19705
-5.2954
-5.37985
-5.44958
-5.50437
-5.54504
-5.57242
-5.58314
-5.56878
-5.52122
-5.43393
-5.30333
-5.13024
-4.91873
-4.67454
-4.40416
-4.11429
-3.81133
-3.50042
-3.18586
-2.8713
-2.5599
-2.25444
-1.9574
-1.67086
-1.39666
-1.1364
-0.891443
-0.662735
-0.451264
-0.257398
-0.0809894
0.0789344
0.211322
0.322507
0.413497
0.484362
0.535013
0.5654
0.575599
0.565868
0.536635
0.488478
0.422171
0.338699
0.239226
0.125103
-0.00215102
-0.140805
-0.288981
-0.444615
-0.605519
-0.769349
-0.933648
-1.09587
-1.25334
-1.40337
-1.54329
-1.67044
-1.78223
-1.87628
-1.95022
-2.00202
-2.02978
-2.03202
-2.00753
-1.95699
-1.87919
-1.77417
-1.64269
-1.48612
-1.30644
-1.10608
-0.888138
-0.656234
-0.414421
-0.166939
0.0807434
0.323792
0.556784
0.774294
0.971011
1.14184
1.28207
1.38741
1.45423
1.4797
1.46334
1.40363
1.3008
1.15656
0.974028
0.757657
0.513097
0.247143
-0.032598
-0.316979
-0.596777
-0.862632
-1.10495
-1.31444
-1.48269
-1.60251
-1.66822
-1.6759
-1.62435
-1.51366
-1.34689
-1.13
-0.871057
-0.580558
-0.270268
0.0445926
0.349801
0.630853
0.873419
1.06485
1.19462
1.25549
1.23452
1.14055
0.97692
0.752012
0.478225
0.171831
-0.149878
-0.460773
-0.741678
-0.972696
-1.13658
-1.22031
-1.21636
-1.12525
-0.951566
-0.708448
-0.415286
-0.095307
0.224456
0.511825
0.742958
0.894919
0.952078
0.907162
0.764296
0.536613
0.247329
-0.0756988
-0.396824
-0.676672
-0.885872
-0.99809
-0.998325
-0.886645
-0.673239
-0.384186
-0.0524953
0.282825
0.567053
0.769811
0.862145
0.831165
0.682138
0.436172
0.127246
-0.210959
-0.496048
-0.698052
-0.788125
-0.755167
-0.61003
-0.383621
-0.118259
0.142425
0.324275
0.405279
0.368469
0.221749
0.00206034
-0.238812
-0.445083
-0.556848
-0.544021
-0.404655
-0.169377
0.104501
0.346011
0.488681
-3.26641
-3.31466
-3.41176
-3.55633
-3.74705
-3.98106
-4.2549
-4.5614
-4.89231
-5.2366
-5.58552
-5.93429
-6.27502
-6.59956
-6.90076
-7.17159
-7.40649
-7.60132
-7.75576
-7.86833
-7.88224
-7.73968
-7.49998
-7.19182
-6.83523
-6.43993
-6.01497
-5.56477
-5.10431
-4.64212
-4.18125
-3.72475
-3.27674
-2.84067
-2.41941
-2.01524
-1.63001
-1.26522
-0.92215
-0.601952
-0.30559
-0.033966
0.212299
0.432205
0.624579
0.78771
0.934299
1.05528
1.14925
1.21607
1.25594
1.26925
1.25654
1.21845
1.1558
1.06956
0.960862
0.831061
0.681663
0.514409
0.331246
0.134376
-0.0738169
-0.290677
-0.513401
-0.738993
-0.96435
-1.18615
-1.401
-1.60548
-1.79622
-1.96985
-2.12303
-2.2526
-2.35569
-2.42964
-2.47222
-2.48128
-2.45589
-2.39564
-2.29983
-2.16867
-2.0032
-1.80526
-1.57736
-1.32272
-1.04532
-0.749893
-0.441624
-0.126013
0.18984
0.499633
0.796408
1.07326
1.32332
1.54004
1.71727
1.84951
1.93216
1.96147
1.93728
1.85725
1.72178
1.53325
1.29573
1.01495
0.698296
0.354488
-0.00666046
-0.373174
-0.733392
-1.07515
-1.38622
-1.65468
-1.86966
-2.02193
-2.10425
-2.1119
-2.04317
-1.89834
-1.68166
-1.40083
-1.0665
-0.692084
-0.292857
0.111383
0.502288
0.861292
1.17002
1.41223
1.57482
1.64996
1.61642
1.49049
1.27556
0.982132
0.626086
0.227873
-0.189826
-0.591994
-0.953739
-1.24988
-1.45866
-1.56327
-1.5543
-1.43215
-1.20334
-0.885397
-0.503664
-0.087813
0.325656
0.696854
0.994102
1.18823
1.25874
1.1973
1.00872
0.710835
0.333983
-0.0852188
-0.500664
-0.862093
-1.13152
-1.27495
-1.27349
-1.12687
-0.849968
-0.476549
-0.0495627
0.379406
0.742622
0.999728
1.11442
1.07073
0.87613
0.56006
0.165987
-0.278713
-0.636965
-0.887482
-0.993952
-0.942483
-0.747094
-0.448864
-0.102722
0.230842
0.464072
0.564868
0.51315
0.317547
0.0290662
-0.286396
-0.558613
-0.704451
-0.689714
-0.511007
-0.208229
0.144828
0.456386
0.640289
-1.48767
-1.58297
-1.78055
-2.0661
-2.42162
-2.84747
-3.35081
-3.9059
-4.51027
-5.13579
-5.76631
-6.3672
-6.93346
-7.45015
-7.90316
-8.28012
-8.56904
-8.75686
-8.82521
-8.75268
-8.57557
-8.40324
-8.25304
-8.0495
-7.7563
-7.34948
-6.85131
-6.26901
-5.65865
-5.02732
-4.40136
-3.78783
-3.19512
-2.62731
-2.08785
-1.57928
-1.10349
-0.661471
-0.253516
0.120393
0.460822
0.767901
1.04234
1.28438
1.49413
1.67232
1.81972
1.93135
2.01131
2.06007
2.07772
2.0644
2.02046
1.94649
1.84327
1.71187
1.55364
1.37017
1.16331
0.935171
0.688151
0.424997
0.148671
-0.137555
-0.430232
-0.725623
-1.01981
-1.30875
-1.58822
-1.85389
-2.10157
-2.32706
-2.5262
-2.6952
-2.83047
-2.92864
-2.98699
-3.00326
-2.97529
-2.90318
-2.78607
-2.62434
-2.41944
-2.1737
-1.89029
-1.57327
-1.2277
-0.859497
-0.475182
-0.0817773
0.311817
0.69771
1.06718
1.41157
1.72229
1.99104
2.21019
2.37287
2.47333
2.50707
2.4735
2.36985
2.19694
1.9578
1.65753
1.30342
0.904707
0.472461
0.0189882
-0.440709
-0.892063
-1.31972
-1.70841
-2.04328
-2.31083
-2.49942
-2.60002
-2.60687
-2.51773
-2.33343
-2.05944
-1.70545
-1.28508
-0.815159
-0.314808
0.190833
0.678947
1.12603
1.50894
1.80709
2.00416
2.09093
2.04608
1.88518
1.6123
1.24097
0.791712
0.289623
-0.241252
-0.746324
-1.19906
-1.56858
-1.82753
-1.95518
-1.93991
-1.78124
-1.48898
-1.08498
-0.601576
-0.0764653
0.4439
0.91041
1.28275
1.524
1.60911
1.5279
1.28636
0.907772
0.430755
-0.0985071
-0.62114
-1.07515
-1.41233
-1.59062
-1.58642
-1.39922
-1.04933
-0.579539
-0.0440445
0.490882
0.943168
1.26117
1.39983
1.3404
1.09304
0.697787
0.214803
-0.367596
-0.799999
-1.10354
-1.22762
-1.1539
-0.900359
-0.519799
-0.0815364
0.334727
0.625859
0.747902
0.673175
0.426196
0.0595672
-0.340662
-0.68931
-0.874098
-0.856555
-0.632699
-0.252825
0.190346
0.581582
0.812614
0.742174
0.612838
0.359377
-0.0404557
-0.611805
-1.33854
-2.23319
-3.25085
-4.32221
-5.39635
-6.47249
-7.52048
-8.50073
-9.38811
-10.1668
-10.8242
-11.3534
-11.7545
-12.0321
-12.1973
-12.2704
-12.198
-11.8834
-11.3139
-10.5691
-9.67436
-8.67297
-7.5733
-6.5147
-5.50345
-4.56317
-3.69232
-2.89374
-2.16548
-1.50271
-0.899942
-0.351487
0.147224
0.599969
1.00946
1.37742
1.70552
1.99466
2.24556
2.45909
2.63509
2.77286
2.87732
2.94422
2.97378
2.96644
2.92265
2.84295
2.72808
2.57903
2.39703
2.18362
1.94066
1.67034
1.37518
1.05802
0.722168
0.371184
0.00903022
-0.360189
-0.731811
-1.10116
-1.46332
-1.81312
-2.14536
-2.45491
-2.73669
-2.98565
-3.19718
-3.36693
-3.49089
-3.56556
-3.58818
-3.55706
-3.47093
-3.32941
-3.13317
-2.88402
-2.58482
-2.2395
-1.85309
-1.43178
-0.982822
-0.514262
-0.034592
0.445021
0.915051
1.36481
1.78371
2.16122
2.48722
2.75243
2.94848
3.06842
3.10699
3.0626
2.9325
2.71788
2.42264
2.05295
1.61781
1.12855
0.598774
0.0435259
-0.518857
-1.0704
-1.59248
-2.06626
-2.4738
-2.79865
-3.0267
-3.14692
-3.15218
-3.03978
-2.81127
-2.47353
-2.03834
-1.5227
-0.947259
-0.33534
0.282078
0.8771
1.42091
1.88501
2.24389
2.47575
2.56095
2.51653
2.31863
1.98143
1.52404
0.972384
0.356059
-0.304067
-0.921907
-1.47378
-1.9234
-2.23723
-2.38969
-2.3664
-2.16664
-1.80329
-1.30358
-0.707433
-0.0609081
0.577652
1.14937
1.60433
1.89721
1.99775
1.8934
1.59234
1.12381
0.53563
-0.115504
-0.756455
-1.31248
-1.72384
-1.93967
-1.93167
-1.69888
-1.26761
-0.691072
-0.0358389
0.615639
1.16554
1.54978
1.7137
1.63529
1.32822
0.844037
0.265229
-0.469128
-0.980193
-1.3421
-1.48494
-1.38564
-1.06702
-0.594863
-0.0548941
0.452569
0.807156
0.952335
0.856325
0.546686
0.0930451
-0.400355
-0.835666
-1.06292
-1.04169
-0.767683
-0.302532
0.240369
0.719656
1.00272
5.15181
4.95053
4.53804
3.89512
2.97737
1.7817
0.229656
-1.78153
-4.72431
-6.77253
-8.54978
-10.0849
-11.4103
-12.5411
-13.4955
-14.2835
-14.9115
-15.3785
-15.6849
-15.886
-15.9792
-15.9112
-15.5454
-14.8206
-13.7647
-12.3802
-10.7816
-8.18809
-6.66213
-5.2347
-4.04589
-3.01758
-2.11308
-1.31044
-0.592213
0.0522363
0.632165
1.15455
1.62443
2.04605
2.42256
2.75601
3.0478
3.29878
3.51007
3.68325
3.82168
3.89764
3.9385
3.94088
3.90311
3.82457
3.70534
3.54596
3.34737
3.11086
2.83819
2.53145
2.19318
1.82631
1.4342
1.02072
0.590091
0.147004
-0.304008
-0.756818
-1.20621
-1.64629
-2.07092
-2.47392
-2.8492
-3.19066
-3.4923
-3.74861
-3.95445
-4.10513
-4.19674
-4.22609
-4.1898
-4.08769
-3.91919
-3.68516
-3.38776
-3.03045
-2.61802
-2.15649
-1.65326
-1.11712
-0.557673
0.0151403
0.587453
1.14803
1.6841
2.18303
2.63222
3.01961
3.33411
3.56577
3.70646
3.75003
3.69356
3.53471
3.27497
2.91906
2.47454
1.9521
1.36543
0.730821
0.0663084
-0.606248
-1.26526
-1.88846
-2.45328
-2.9384
-3.32419
-3.59402
-3.73464
-3.73755
-3.59959
-3.32304
-2.91619
-2.39323
-1.77487
-1.08575
-0.353926
0.383647
1.0933
1.74075
2.29201
2.7166
2.98874
3.08862
3.02644
2.78419
2.37615
1.82553
1.16496
0.43296
-0.384131
-1.11565
-1.77233
-2.30767
-2.68002
-2.85848
-2.82586
-2.58128
-2.14053
-1.537
-0.818541
-0.0416021
0.724497
1.40952
1.95293
2.30085
2.41691
2.28694
1.92102
1.35484
0.646376
-0.136126
-0.904362
-1.56981
-2.06054
-2.31593
-2.30288
-2.02023
-1.50066
-0.808697
-0.024945
0.751604
1.40585
1.86032
2.05029
1.94998
1.57695
0.993754
0.297295
-0.562774
-1.17228
-1.59869
-1.76129
-1.63353
-1.24398
-0.672524
-0.0232015
0.582267
1.00465
1.1741
1.05409
0.676369
0.12868
-0.463348
-0.996186
-1.26732
-1.24162
-0.913483
-0.356317
0.293914
0.868146
1.20722
11.1369
10.8925
10.3886
9.57651
8.39954
6.78216
4.80035
2.12742
-2.10253
-5.46142
-8.31723
-10.7911
-12.912
-14.7008
-16.1769
-17.3528
-18.2347
-18.8238
-19.1126
-19.0272
-18.5582
-17.7471
-16.7379
-15.6274
-14.2864
-12.6261
-10.6931
-7.77486
-5.87166
-4.22077
-2.87616
-1.81181
-0.879625
-0.0861336
0.616074
1.23837
1.79795
2.30261
2.75897
3.17013
3.53809
3.86385
4.14747
4.38882
4.58657
4.73847
4.83971
4.91965
4.94828
4.92838
4.86113
4.74713
4.5869
4.38116
4.13094
3.83766
3.50326
3.13011
2.72109
2.27955
1.80936
1.315
0.801339
0.27381
-0.261985
-0.79949
-1.33229
-1.85353
-2.35606
-2.83263
-3.27614
-3.67948
-4.03566
-4.33827
-4.5813
-4.75929
-4.86762
-4.90267
-4.86066
-4.74113
-4.54368
-4.2693
-3.92061
-3.50168
-3.01819
-2.47725
-1.88759
-1.25948
-0.604229
0.06692
0.736842
1.39261
2.01935
2.60228
3.12666
3.57837
3.94447
4.21337
4.37558
4.424
4.35453
4.16521
3.85784
3.43787
2.91442
2.30008
1.61091
0.866024
0.0869635
-0.70123
-1.473
-2.20211
-2.86226
-3.42843
-3.87767
-4.19072
-4.3522
-4.35204
-4.18671
-3.85917
-3.3791
-2.76355
-2.03672
-1.22809
-0.370183
0.493457
1.32351
2.07966
2.72223
3.21582
3.531
3.6475
3.56381
3.27287
2.7888
2.13901
1.36337
0.514507
-0.47569
-1.32137
-2.08832
-2.71392
-3.14764
-3.35292
-3.30983
-3.01729
-2.49447
-1.78086
-0.933478
-0.0184622
0.881892
1.68591
2.32206
2.72727
2.85911
2.70124
2.26617
1.59635
0.760517
-0.159839
-1.06212
-1.84239
-2.41614
-2.71246
-2.69309
-2.35717
-1.74408
-0.930329
-0.0113208
0.896361
1.65969
2.18709
2.40333
2.27878
1.83488
1.14513
0.318253
-0.654481
-1.37364
-1.86868
-2.05159
-1.89303
-1.42799
-0.75144
0.0129608
0.721321
1.21453
1.40882
1.26239
0.812534
0.165472
-0.527466
-1.16893
-1.48315
-1.45248
-1.06729
-0.41323
0.350105
1.02419
1.42235
18.1953
18.0816
17.8617
17.5553
17.24
16.9505
16.6009
16.2061
-1.70092
-1.19832
-0.834792
-0.29781
0.271281
0.862431
1.43642
2.0122
2.54037
3.03982
3.50345
3.93119
4.32167
4.67432
4.98791
5.26115
5.4924
5.67994
5.82218
5.91818
5.96957
5.97218
5.92435
5.82524
5.67457
5.47249
5.21955
4.91679
4.56569
4.16838
3.7275
3.24628
2.72851
2.17857
1.60157
1.00305
0.389238
-0.233342
-0.857413
-1.47548
-2.07968
-2.66179
-3.21349
-3.72663
-4.19305
-4.60473
-4.95431
-5.2349
-5.4402
-5.56501
-5.60541
-5.55669
-5.41872
-5.19089
-4.87441
-4.47234
-3.98943
-3.43227
-2.80913
-2.13015
-1.40707
-0.652873
0.120326
0.890852
1.64462
2.36468
3.03403
3.63575
4.15359
4.57268
4.87974
5.06385
5.11687
5.03374
4.81278
4.45605
3.96993
3.36491
2.65567
1.8608
1.00233
0.105028
-0.802123
-1.68979
-2.52771
-3.28571
-3.93496
-4.44913
-4.8061
-4.98843
-4.98464
-4.79064
-4.41002
-3.85403
-3.14271
-2.30374
-1.37186
-0.383986
0.609402
1.56336
2.43129
3.16761
3.73186
4.09081
4.22182
4.11724
3.77521
3.21183
2.45822
1.56054
0.579987
-0.55732
-1.53211
-2.41538
-3.13457
-3.63159
-3.86412
-3.8096
-3.46683
-2.85865
-2.03085
-1.05012
0.00791419
1.0468
1.97342
2.70498
3.16879
3.31638
3.12879
2.62152
1.84403
0.876367
-0.186525
-1.2269
-2.12529
-2.7841
-3.12199
-3.09529
-2.70372
-1.99349
-1.05363
0.00465094
1.04722
1.92241
2.52425
2.7666
2.616
2.09789
1.29707
0.337257
-0.751832
-1.5819
-2.14748
-2.3507
-2.15959
-1.61588
-0.830194
0.0526654
0.867001
1.43279
1.65205
1.47749
0.952586
0.202257
-0.589947
-1.35228
-1.70597
-1.67031
-1.22625
-0.472165
0.407862
1.18511
1.64418
25.68
25.6468
25.5873
25.4971
25.3497
25.0251
24.8155
24.5562
0.439227
0.804663
1.10733
1.50125
1.93848
2.40617
2.87114
3.34956
3.81041
4.25586
4.67971
5.07891
5.44929
5.78737
6.0899
6.35386
6.57642
6.75483
6.88662
6.96978
7.00261
6.98276
6.90832
6.77803
6.59121
6.34771
6.04793
5.69285
5.28407
4.82388
4.31521
3.76163
3.16739
2.53741
1.8774
1.19363
0.493099
-0.216778
-0.927884
-1.6317
-2.31932
-2.98145
-3.60867
-4.19175
-4.72146
-5.18874
-5.58526
-5.90325
-6.13556
-6.27611
-6.3196
-6.26521
-6.10836
-5.84932
-5.48972
-5.03312
-4.485
-3.85287
-3.14615
-2.37646
-1.55717
-0.702867
0.175024
1.04713
1.89994
2.71436
3.47111
4.15103
4.73571
5.20829
5.55377
5.7598
5.81713
5.71997
5.46669
5.05975
4.50643
3.81865
3.0132
2.1112
1.1377
0.120433
-0.906967
-1.91174
-2.85959
-3.71636
-4.44932
-5.02886
-5.42987
-5.63279
-5.62483
-5.40133
-4.96641
-4.3332
-3.52456
-2.57175
-1.51477
-0.395453
0.729295
1.80854
2.7894
3.62032
4.25567
4.65819
4.8023
4.67689
4.2827
3.63812
2.7782
1.7543
0.629633
-0.628555
-1.74475
-2.74798
-3.56249
-4.12355
-4.38334
-4.3167
-3.92245
-3.22702
-2.28286
-1.16606
0.0365101
1.2161
2.26698
3.09498
3.61781
3.78085
3.56231
2.98107
2.09371
0.992013
-0.215557
-1.39579
-2.41359
-3.15811
-3.5375
-3.5027
-3.05412
-2.24478
-1.1766
0.0225858
1.20148
2.18954
2.86609
3.1341
2.95623
2.36202
1.44786
0.354933
-0.853659
-1.79407
-2.43053
-2.65369
-2.42884
-1.80472
-0.907788
0.0951783
1.01658
1.65552
1.89954
1.69575
1.09409
0.237762
-0.658257
-1.53455
-1.93134
-1.89135
-1.38767
-0.532143
0.466322
1.34813
1.86904
32.0695
32.0252
31.9259
31.7566
31.5316
31.3248
31.4418
31.3915
2.31546
2.52693
2.7281
3.0132
3.35367
3.73996
4.13288
4.55394
4.97098
5.38302
5.78211
6.16324
6.52084
6.84999
7.14599
7.40457
7.62168
7.7936
7.9169
7.98851
8.00566
7.96576
7.86667
7.70684
7.48526
7.20159
6.8561
6.44979
5.98433
5.46221
4.88666
4.26163
3.59181
2.88265
2.14049
1.3723
0.585857
-0.210553
-1.00793
-1.79675
-2.56708
-3.30854
-4.01058
-4.66293
-5.25526
-5.77747
-6.2203
-6.57512
-6.83398
-6.9902
-7.03824
-6.97572
-6.7991
-6.50836
-6.1053
-5.59391
-4.98039
-4.27315
-3.48279
-2.62241
-1.70716
-0.753367
0.230354
1.20333
2.15467
3.06307
3.9069
4.66471
5.31593
5.84174
6.22531
6.45295
6.51434
6.40297
6.11715
5.65993
5.03942
4.26894
3.36741
2.35849
1.27025
0.133435
-1.0138
-2.1352
-3.19242
-4.14737
-4.96348
-5.60789
-6.05246
-6.27552
-6.26291
-6.00953
-5.52006
-4.80951
-3.90351
-2.83693
-1.6549
-0.404789
0.850995
2.05501
3.14821
4.07313
4.77896
5.22428
5.38052
5.23426
4.78776
4.0615
3.09489
1.94454
0.678882
-0.704005
-1.95805
-3.08127
-3.99107
-4.61585
-4.90256
-4.82329
-4.37721
-3.59407
-2.53313
-1.27974
0.0666402
1.38695
2.56182
3.4858
4.06722
4.24527
3.99505
3.33933
2.34172
1.10572
-0.246291
-1.56598
-2.7027
-3.53235
-3.95261
-3.90912
-3.40308
-2.49425
-1.29737
0.041968
1.35662
2.45688
3.20738
3.50029
3.29449
2.62363
1.59575
0.370824
-0.95768
-2.00695
-2.71356
-2.95596
-2.69679
-1.99179
-0.983187
0.139542
1.16745
1.87908
2.14733
1.91381
1.23493
0.271326
-0.73858
-1.70562
-2.15554
-2.11219
-1.54903
-0.592202
0.524525
1.51085
2.09345
37.8953
37.8824
37.863
37.8532
37.9006
38.0342
37.8324
37.7261
3.73785
3.87782
4.04158
4.26666
4.55878
4.89423
5.2464
5.62817
6.0173
6.40944
6.79514
7.16777
7.52052
7.84723
8.14206
8.39971
8.61518
8.78385
8.90145
8.96409
8.96823
8.91075
8.78924
8.60187
8.34742
8.02537
7.63592
7.18006
6.65961
6.07729
5.43661
4.74191
3.99833
3.21183
2.38939
1.53866
0.668193
-0.212895
-1.0947
-1.96673
-2.81803
-3.63714
-4.41242
-5.13251
-5.78602
-6.36184
-6.84981
-7.24044
-7.52505
-7.69638
-7.74855
-7.67755
-7.48096
-7.1586
-6.71242
-6.14681
-5.46864
-4.6872
-3.81423
-2.8644
-1.85473
-0.803935
0.286012
1.35726
2.40531
3.40612
4.33559
5.16995
5.88654
6.46459
6.88548
7.13418
7.1993
7.07372
6.75569
6.24881
5.562
4.71002
3.71385
2.59967
1.39852
0.14421
-1.12086
-2.35685
-3.52148
-4.57276
-5.47037
-6.17829
-6.66542
-6.90799
-6.89039
-6.60719
-6.06377
-5.27685
-4.27471
-3.09603
-1.79067
-0.412182
0.972528
2.29915
3.50262
4.5197
5.2945
5.78141
5.94903
5.782
5.2837
4.47672
3.40464
2.12967
0.72716
-0.782089
-2.16961
-3.4108
-4.41443
-5.10171
-5.41468
-5.32247
-4.82495
-3.95496
-2.77847
-1.39035
0.0981005
1.5568
2.85369
3.87194
4.51071
4.70325
4.42109
3.69152
2.58487
1.21604
-0.278128
-1.73491
-2.98853
-3.90162
-4.36166
-4.30907
-3.74596
-2.73872
-1.41477
0.0626273
1.51032
2.72074
3.54351
3.86031
3.62644
2.87958
1.7392
0.384415
-1.0617
-2.21757
-2.99272
-3.25348
-2.95994
-2.17482
-1.05567
0.184957
1.31725
2.10024
2.39193
2.12866
1.37331
0.302917
-0.822411
-1.87029
-2.37587
-2.32984
-1.70868
-0.651566
0.581804
1.671
2.31445
43.0896
43.0847
43.077
43.0675
43.0608
43.0294
43.0116
42.9764
4.83762
4.9472
5.09491
5.29265
5.55534
5.86816
6.20341
6.5687
6.94644
7.33171
7.71457
8.08748
8.44267
8.77297
9.07167
9.33264
9.55012
9.71872
9.83347
9.8898
9.88349
9.8107
9.66893
9.45615
9.17094
8.81261
8.38129
7.87803
7.30478
6.66452
5.96109
5.1992
4.38444
3.52325
2.62322
1.69269
0.740951
-0.22206
-1.18557
-2.13815
-3.06784
-3.96213
-4.8083
-5.59392
-6.30655
-6.93412
-7.46559
-7.89067
-8.19993
-8.38561
-8.44144
-8.36187
-8.14552
-7.79213
-7.30374
-6.68517
-5.94389
-5.09005
-4.13651
-3.09937
-1.99769
-0.854214
0.341685
1.50675
2.64887
3.73959
4.75228
5.661
6.44107
7.06978
7.52683
7.79583
7.86437
7.72476
7.37523
6.81989
6.06846
5.13714
4.04886
2.83229
1.52137
0.152961
-1.2266
-2.57386
-3.84274
-4.98743
-5.96404
-6.7334
-7.26164
-7.52296
-7.50011
-7.18758
-6.59148
-5.73009
-4.6342
-3.34641
-1.9209
-0.417777
1.09217
2.53786
3.84831
4.95468
5.79622
6.32316
6.50148
6.31399
5.76493
4.87931
3.70434
2.30785
0.773352
-0.860497
-2.37686
-3.73268
-4.82752
-5.57538
-5.91363
-5.80846
-5.26046
-4.30557
-3.01623
-1.49677
0.130172
1.72341
3.13895
4.24867
4.94294
5.14945
4.83547
4.03367
2.82044
1.32171
-0.310351
-1.90033
-3.2676
-4.26153
-4.75986
-4.69799
-4.07889
-2.97556
-1.52763
0.0841748
1.66058
2.97797
3.87058
4.21011
3.94845
3.12725
1.87691
0.395462
-1.16383
-2.42336
-3.26475
-3.54284
-3.21534
-2.35191
-1.12476
0.23079
1.46393
2.31623
2.63038
2.3378
1.5077
0.332727
-0.90592
-2.02939
-2.59009
-2.54178
-1.86369
-0.709459
0.637386
1.82683
2.52946
47.7009
47.698
47.6928
47.6843
47.6772
47.6639
47.6646
47.6371
5.72055
5.8145
5.95689
6.14589
6.39493
6.69685
7.02693
7.38857
7.76633
8.15459
8.54302
8.9234
9.28703
9.62591
9.93265
10.2005
10.4231
10.5944
10.7088
10.7613
10.7471
10.6608
10.5008
10.2648
9.95103
9.55869
9.08783
8.53959
7.91608
7.22056
6.45724
5.6312
4.74842
3.81581
2.84153
1.83458
0.805009
-0.236471
-1.27827
-2.30803
-3.31287
-4.27924
-5.19337
-6.04176
-6.81098
-7.48798
-8.06097
-8.51887
-8.85153
-9.05066
-9.11019
-9.02162
-8.78597
-8.40254
-7.87337
-7.20365
-6.40144
-5.47774
-4.44647
-3.32491
-2.13386
-0.897953
0.391217
1.64969
2.88299
4.06035
5.15305
6.13324
6.97429
7.65164
8.14337
8.4317
8.50344
8.35009
7.97009
7.36798
6.55425
5.54653
4.36954
3.05442
1.63794
0.159903
-1.32973
-2.78395
-4.15291
-5.38729
-6.43965
-7.26787
-7.8354
-8.11464
-8.08637
-7.74535
-7.09835
-6.16516
-4.97881
-3.58595
-2.04485
-0.421607
1.2085
2.76862
4.1818
5.37375
6.27924
6.84433
7.03275
6.82525
6.22703
5.2656
3.99143
2.47777
0.816527
-0.93743
-2.57754
-4.04366
-5.2262
-6.03217
-6.39453
-6.27658
-5.67956
-4.64262
-3.24434
-1.59811
0.162327
1.88485
3.41461
4.61219
5.35956
5.57955
5.23417
4.36252
3.04635
1.422
-0.342545
-2.06044
-3.53706
-4.60853
-5.14334
-5.07216
-4.39878
-3.20275
-1.63501
0.106261
1.80571
3.226
4.18543
4.5464
4.25759
3.36452
2.00795
0.403872
-1.26254
-2.62221
-3.52699
-3.82129
-3.46066
-2.52155
-1.19006
0.276361
1.60581
2.52483
2.86028
2.53918
1.6369
0.360775
-0.987506
-2.18199
-2.79632
-2.74595
-2.01306
-0.765306
0.690777
1.97679
2.73646
51.7906
51.7883
51.7837
51.7754
51.7686
51.7567
51.754
51.7337
6.43393
6.51994
6.66292
6.85279
7.09978
7.40168
7.73519
8.1021