/*--------------------------------*- C++ -*----------------------------------*\
  =========                 |
  \\      /  F ield         | OpenFOAM: The Open Source CFD Toolbox
   \\    /   O peration     | Website:  https://openfoam.org
    \\  /    A nd           | Version:  12
     \\/     M anipulation  |
\*---------------------------------------------------------------------------*/
FoamFile
{
    format      ascii;
    class       surfaceScalarField;
    location    "17";
    object      phi;
}
// * * * * * * * * * * * * * * * * * * * * * * * * * * * * * * * * * * * * * //

dimensions      [1 0 -1 0 0 0 0];

internalField   nonuniform List<scalar> 
7429
(
0.000155186
-0.000155186
0.000316319
-0.000161133
0.00047949
-0.000163171
0.00064451
-0.00016502
0.000811373
-0.000166864
0.000980016
-0.000168643
0.00115036
-0.000170339
0.0013223
-0.000171944
0.00149576
-0.000173464
0.00167067
-0.000174907
0.00184692
-0.000176247
0.00202444
-0.000177522
0.00220322
-0.000178782
0.00238318
-0.000179965
0.00256433
-0.000181141
0.00274663
-0.000182307
0.00293009
-0.000183463
0.0031147
-0.000184604
0.00330044
-0.000185744
0.00348727
-0.000186824
0.0036751
-0.000187835
0.00386382
-0.000188719
0.00405324
-0.000189416
0.00424308
-0.000189844
0.00443301
-0.000189931
0.00462254
-0.000189532
0.00481113
-0.000188585
0.00499809
-0.000186959
0.00518264
-0.000184556
0.00536389
-0.000181251
0.00554089
-0.000176995
0.00571261
-0.000171724
0.00587793
-0.000165315
0.00603566
-0.000157737
0.00618466
-0.000148994
0.00632366
-0.000138998
0.00645126
-0.000127599
0.00656701
-0.000115755
0.00666989
-0.000102882
0.00675867
-8.87816e-05
0.00683159
-7.29117e-05
0.00688745
-5.58625e-05
0.00692481
-3.73607e-05
0.00694227
-1.74616e-05
0.00693607
6.20389e-06
0.00690518
3.08814e-05
0.00684858
5.66048e-05
0.00676524
8.33436e-05
0.00665434
0.000110898
0.00651526
0.000139079
0.00634769
0.000167569
0.0061515
0.000196189
0.00592704
0.000224459
0.00567459
0.000252449
0.00539522
0.000279377
0.00508959
0.000305628
0.00475938
0.000330205
0.00440569
0.000353698
0.00403074
0.000374943
0.00363603
0.000394713
0.00322467
0.000411364
0.00279926
0.00042541
0.00236326
0.000435996
0.00192032
0.000442941
0.00147432
0.000446002
0.00102945
0.000444872
0.000590237
0.000439209
0.000161282
0.000428955
-0.000252355
0.000413637
-0.000645807
0.000393452
-0.0010143
0.000368488
-0.00135283
0.000338532
-0.00165672
0.000303892
-0.00192158
0.000264865
-0.00214346
0.000221878
-0.00231859
0.000175129
-0.00244417
0.000125581
-0.00251789
7.37126e-05
-0.0025386
2.07183e-05
-0.00249763
-4.09751e-05
-0.00239868
-9.89447e-05
-0.00224469
-0.000153994
-0.00203844
-0.000206249
-0.00178331
-0.000255127
-0.00148346
-0.000299857
-0.00114343
-0.000340028
-0.000769806
-0.000373625
-0.000369547
-0.000400259
4.91577e-05
-0.000418704
0.000477412
-0.000428255
0.000905677
-0.000428265
0.00132391
-0.000418236
0.00172161
-0.000397696
0.00208881
-0.000367203
0.00241516
-0.000326352
0.00269133
-0.000276171
0.00290878
-0.000217445
0.0030596
-0.000150816
0.00313886
-7.92634e-05
0.00313785
1.00702e-06
0.00304989
8.79585e-05
0.00287956
0.000170338
0.00263087
0.000248686
0.00230902
0.000321853
0.00192083
0.000388183
0.00147543
0.000445399
0.000984502
0.000490932
0.000461525
0.000522977
-7.74003e-05
0.000538926
-0.000615215
0.000537815
-0.00113357
0.000518355
-0.00161412
0.000480546
-0.00203896
0.000424847
-0.00239105
0.000352083
-0.00265531
0.000264266
-0.00281982
0.000164511
-0.00287605
5.62277e-05
-0.00280706
-6.89865e-05
-0.00261711
-0.00018995
-0.00231432
-0.000302793
-0.00190812
-0.000406207
-0.00141225
-0.000495863
-0.000844572
-0.00056768
-0.000227431
-0.000617141
0.000412797
-0.000640228
0.00104778
-0.000634979
0.00164792
-0.000600144
0.00218392
-0.000536004
0.00262817
-0.000444245
0.00295698
-0.000328806
0.00315144
-0.000194461
0.00320047
-4.90366e-05
0.00308377
0.000116705
0.00281467
0.000269099
0.00240898
0.000405685
0.00188596
0.000523027
0.00127405
0.000611908
0.000607252
0.000666796
-7.46269e-05
0.000681879
-0.000727917
0.00065329
-0.00131113
0.000583214
-0.00178569
0.000474561
-0.00211971
0.000334015
-0.00229059
0.00017088
-0.00228197
-8.61665e-06
-0.00209044
-0.000191536
-0.0017402
-0.000350235
-0.00125873
-0.000481466
-0.000685419
-0.000573315
-6.837e-05
-0.000617049
0.000536923
-0.000605293
0.0010767
-0.000539782
0.00150091
-0.000424208
0.00176942
-0.000268507
0.00185648
-8.7058e-05
0.00173936
0.000117119
0.00143757
0.000301788
0.00098264
0.000454929
0.000418801
0.000563839
-0.000195848
0.00061465
-0.000792661
0.000596813
-0.0013056
0.000512939
-0.00167564
0.000370037
-0.00185954
0.000183903
-0.00182656
-3.29825e-05
-0.0015771
-0.000249456
-0.00114616
-0.000430947
-0.000582369
-0.000563787
4.70163e-05
-0.000629386
0.000661205
-0.000614189
0.00118207
-0.000520864
0.00154341
-0.000361345
0.00169976
-0.000156348
0.00162274
7.70235e-05
0.00133255
0.000290188
0.000876169
0.000456379
0.000320116
0.000556053
-0.000252198
0.000572314
-0.000750941
0.000498742
-0.00110244
0.000351497
-0.00125603
0.000153595
-0.00118446
-7.15747e-05
-0.000910727
-0.000273731
-0.000485556
-0.000425171
1.96064e-05
-0.000505163
0.000517734
-0.000498128
0.00092886
-0.000411126
0.00119255
-0.000263694
0.00127742
-8.4865e-05
0.00117645
0.00010097
0.000929143
0.000247306
0.000588441
0.000340701
0.000220134
0.000368308
-0.000113372
0.000333505
-0.000359919
0.000246548
-0.00049258
0.000132661
-0.000503397
1.08164e-05
-0.000404909
-9.84874e-05
-0.000224877
-0.000180033
-0.000224877
0.000225682
-0.000380869
0.000465377
-0.000400828
0.000707725
-0.00040552
0.000952351
-0.000409646
0.00119897
-0.000413479
0.00144739
-0.000417067
0.00169725
-0.000420199
0.00194831
-0.000423002
0.00220008
-0.000425238
0.00245224
-0.000427067
0.00270436
-0.000428368
0.0029563
-0.000429465
0.00320811
-0.000430592
0.00345972
-0.000431574
0.00371021
-0.000431633
0.00395867
-0.00043077
0.0042044
-0.000429186
0.00444693
-0.000427139
0.0046859
-0.000424711
0.00492107
-0.000421996
0.00515217
-0.000418931
0.00537899
-0.000415542
0.00560124
-0.000411668
0.00581856
-0.000407162
0.00603037
-0.00040174
0.0062361
-0.000395262
0.00643475
-0.000387242
0.0066255
-0.000377702
0.00680717
-0.000366235
0.00697919
-0.000353264
0.00714143
-0.000339242
0.00729401
-0.000324301
0.00743665
-0.000307951
0.00756893
-0.000290016
0.00769029
-0.00027036
0.00780001
-0.000248717
0.0078972
-0.000224794
0.0079801
-0.000198656
0.00804736
-0.000170135
0.00809787
-0.000139297
0.00813109
-0.000106127
0.00814595
-7.07186e-05
0.0081429
-3.43175e-05
0.00811024
1.52037e-05
0.00804871
6.77344e-05
0.00795925
0.000120337
0.0078418
0.000174059
0.00769623
0.000228912
0.00752242
0.000284704
0.0073203
0.000341196
0.00708992
0.000397952
0.00683144
0.000454671
0.00654536
0.000510541
0.00623201
0.000565797
0.0058922
0.000619188
0.00552706
0.00067077
0.00513792
0.000719343
0.00472598
0.00076564
0.00429347
0.000807452
0.00384252
0.000845664
0.00337582
0.000878064
0.00289627
0.000904956
0.00240757
0.000924699
0.00191341
0.000937101
0.00141798
0.000941426
0.000925981
0.000936875
0.000441926
0.000923263
-2.89602e-05
0.000899841
-0.000481445
0.000866122
-0.000910177
0.000822183
-0.00131034
0.000768651
-0.00167626
0.000704449
-0.00200324
0.000630872
-0.0022867
0.000548325
-0.00252214
0.000457323
-0.00270558
0.000358565
-0.00283378
0.000253783
-0.00290498
0.000144912
-0.0029164
3.21417e-05
-0.00286178
-9.55959e-05
-0.00274613
-0.000214592
-0.0025706
-0.000329528
-0.0023381
-0.000438752
-0.00205171
-0.000541512
-0.00171609
-0.00063548
-0.00133705
-0.000719069
-0.000921309
-0.000789363
-0.000476923
-0.000844645
-1.25963e-05
-0.000883031
0.000461888
-0.000902739
0.000935758
-0.000902135
0.00139791
-0.000880383
0.00183731
-0.000837102
0.00224247
-0.000772358
0.00260232
-0.000686205
0.00290687
-0.000580722
0.0031461
-0.000456673
0.00331197
-0.000316693
0.00339859
-0.000165879
0.00339661
2.99003e-06
0.00330247
0.000182093
0.00311935
0.000353466
0.00285059
0.000517436
0.00250104
0.000671408
0.00207818
0.000811045
0.00159207
0.00093151
0.00105583
0.00102717
0.00048493
0.00109387
-0.000103176
0.00112703
-0.000690053
0.00112469
-0.00125587
0.00108418
-0.00178042
0.00100509
-0.00224389
0.000888317
-0.00262767
0.000735858
-0.0029157
0.000552303
-0.00309376
0.00034257
-0.0031524
0.000114864
-0.00307768
-0.00014371
-0.00287477
-0.000392858
-0.00254831
-0.000629252
-0.00210985
-0.000844667
-0.00157292
-0.0010328
-0.0009579
-0.0011827
-0.000288676
-0.00128637
0.000405565
-0.00133447
0.00109386
-0.00132327
0.00174282
-0.00124911
0.00232164
-0.00111482
0.0027999
-0.000922505
0.00315181
-0.000680712
0.00335605
-0.000398699
0.00340084
-9.38297e-05
0.00326978
0.000247764
0.00297583
0.000563046
0.00253267
0.000848853
0.00196227
0.00109342
0.00129614
0.00127804
0.000572319
0.00139061
-0.000165229
0.00141943
-0.000870252
0.00135831
-0.00149648
0.00120944
-0.00200284
0.000980924
-0.00235369
0.000684866
-0.00252443
0.000341614
-0.00249725
-3.57959e-05
-0.00227685
-0.00041194
-0.00188299
-0.000744096
-0.00134692
-0.00101753
-0.000711277
-0.00120896
-3.04444e-05
-0.00129788
0.000634293
-0.00127003
0.00122439
-0.00112988
0.00168543
-0.000885245
0.00197331
-0.000556389
0.00206092
-0.000174669
0.00192661
0.000251431
0.00159186
0.000636528
0.00108877
0.000958021
0.000467491
0.00118512
-0.000207497
0.00128964
-0.00086047
0.00124979
-0.00141971
0.00107218
-0.00182074
0.000771065
-0.00201718
0.000380336
-0.00197579
-7.43681e-05
-0.00170325
-0.000521995
-0.00123277
-0.000901432
-0.000619153
-0.0011774
6.34928e-05
-0.00131203
0.000726001
-0.0012767
0.0012843
-0.00107916
0.00166665
-0.000743696
0.00182478
-0.000314483
0.00173099
0.00017081
0.0014096
0.000611579
0.000909256
0.000956726
0.000304508
0.0011608
-0.000312466
0.00118929
-0.000845734
0.00103201
-0.0012154
0.000721164
-0.00136998
0.000308171
-0.00128299
-0.000158566
-0.000982026
-0.000574691
-0.000521206
-0.000885991
2.00983e-05
-0.00104647
0.000546177
-0.00102421
0.000973253
-0.000838202
0.00123858
-0.000529021
0.0013108
-0.000157089
0.00118953
0.000222243
0.000916624
0.000520213
0.000551951
0.000705375
0.00016548
0.000754778
-0.000175026
0.000674012
-0.00042028
0.000491801
-0.000543009
0.00025539
-0.000540534
8.34125e-06
-0.000428315
-0.000210706
-0.000235906
-0.000372441
-0.000460783
0.000114857
-0.000495726
0.000233685
-0.000519656
0.000351432
-0.000523267
0.000467019
-0.000525234
0.000578984
-0.000525444
0.000686768
-0.000524851
0.000789133
-0.000522564
0.000887266
-0.000521136
0.000981315
-0.000519287
0.00107116
-0.000516912
0.00115535
-0.00051256
0.00123409
-0.0005082
0.00130736
-0.000503865
0.00137605
-0.000500264
0.00144288
-0.000498467
0.0015108
-0.000498692
0.00158197
-0.000500351
0.00165917
-0.000504342
0.00174364
-0.000509185
0.00183742
-0.000515769
0.00194191
-0.000523424
0.00205869
-0.000532321
0.00218856
-0.00054154
0.00233259
-0.000551197
0.00249075
-0.000559894
0.0026634
-0.000567912
0.00284969
-0.000573531
0.00304942
-0.000577432
0.00326063
-0.000577452
0.00348183
-0.000574459
0.00370944
-0.000566856
0.00394083
-0.00055569
0.0041729
-0.00054002
0.0044028
-0.000519922
0.00462754
-0.000495095
0.00484704
-0.000468222
0.00506141
-0.000439157
0.00526811
-0.000405359
0.00546604
-0.000368061
0.00565087
-0.000324131
0.00581879
-0.000274047
0.00596678
-0.000218712
0.00609211
-0.000159647
0.00619983
-9.25174e-05
0.00628358
-1.6015e-05
0.00633775
6.61736e-05
0.00636032
0.000151482
0.00634896
0.000240276
0.00630183
0.000331835
0.00621765
0.000425371
0.00609534
0.000520261
0.00593444
0.000615574
0.00573453
0.000710446
0.00549604
0.000804296
0.00521919
0.000896035
0.00490471
0.000985252
0.00455389
0.00107016
0.00416885
0.00115068
0.00375176
0.00122453
0.00330622
0.00129121
0.00283539
0.00134889
0.00234356
0.00139679
0.00183518
0.00143308
0.00131543
0.00145685
0.000789414
0.00146744
0.000263019
0.00146327
-0.000257728
0.00144401
-0.00076637
0.00140848
-0.00125663
0.00135638
-0.00172188
0.00128743
-0.00215568
0.00120246
-0.00255145
0.00110021
-0.00290243
0.000981856
-0.00320373
0.000849628
-0.0034495
0.000703087
-0.00363528
0.000544345
-0.0037573
0.000375805
-0.00381081
0.000198419
-0.00379116
1.2495e-05
-0.00369818
-0.000188573
-0.00353439
-0.000378384
-0.00330153
-0.000562391
-0.00300149
-0.000738794
-0.0026386
-0.0009044
-0.00221753
-0.00105655
-0.00174502
-0.00119158
-0.00122983
-0.00130455
-0.000681507
-0.00139297
-0.000110967
-0.00145357
0.000469725
-0.00148343
0.00104877
-0.00148118
0.00161256
-0.00144417
0.00214694
-0.00137148
0.00263921
-0.00126463
0.00307638
-0.00112337
0.00344548
-0.000949825
0.00373454
-0.000745733
0.00393526
-0.000517407
0.00403924
-0.000269862
0.00403599
6.24201e-06
0.00392477
0.000293307
0.00370731
0.000570933
0.00338663
0.000838113
0.00296828
0.00108976
0.00246141
0.00131792
0.0018791
0.00151382
0.00123658
0.00166969
0.00055207
0.00177839
-0.000153646
0.00183275
-0.000857211
0.00182826
-0.00153516
0.00176212
-0.00216306
0.001633
-0.00271792
0.00144317
-0.00317648
0.00119442
-0.0035195
0.000895323
-0.00373074
0.000553807
-0.00379725
0.000181378
-0.00370798
-0.000232983
-0.00346714
-0.0006337
-0.00308003
-0.00101636
-0.00255782
-0.00136688
-0.00191777
-0.00167285
-0.00118445
-0.00191601
-0.000388904
-0.00208191
0.000435285
-0.00215866
0.00125008
-0.00213807
0.00201926
-0.00201829
0.00270172
-0.00179729
0.00326349
-0.00148427
0.00367351
-0.00109074
0.00390955
-0.000634738
0.00394954
-0.000133819
0.00378643
0.00041087
0.00343054
0.000918941
0.00289662
0.00138277
0.00221343
0.00177661
0.00141625
0.00207522
0.00055405
0.00225281
-0.000320867
0.00229434
-0.00115301
0.00219045
-0.00188816
0.00194459
-0.00247533
0.0015681
-0.00287475
0.00108429
-0.00305837
0.000525226
-0.00300185
-9.23128e-05
-0.00271901
-0.000694781
-0.00222815
-0.00123496
-0.00156894
-0.00167674
-0.000793129
-0.00198477
3.19561e-05
-0.00212297
0.000835126
-0.0020732
0.00154297
-0.00183772
0.0020905
-0.00143278
0.00242673
-0.000892614
0.00251749
-0.000265437
0.00234579
0.000423135
0.00193383
0.00104849
0.00132008
0.00157177
0.000566445
0.00193876
-0.000247958
0.00210404
-0.00103237
0.0020342
-0.0017001
0.00173991
-0.00217438
0.00124535
-0.00240028
0.000606239
-0.0023425
-0.000132152
-0.00201275
-0.000851738
-0.00144734
-0.00146685
-0.000713134
-0.0019116
9.92955e-05
-0.00212446
0.000882234
-0.00205964
0.00153574
-0.00173266
0.00197571
-0.00118367
0.00214335
-0.000482118
0.0020164
0.000297758
0.00162192
0.00100606
0.00101843
0.00156022
0.000297453
0.00188178
-0.000430815
0.00191756
-0.00105194
0.00165314
-0.00147457
0.0011438
-0.00163671
0.000470309
-0.00151825
-0.000277031
-0.00115159
-0.00094135
-0.000603586
-0.00143399
2.98829e-05
-0.00167994
0.000634498
-0.00162882
0.00111343
-0.00131713
0.00139621
-0.000811808
0.00145189
-0.000212768
0.00128852
0.000385611
0.000956881
0.000851856
0.000530333
0.00113192
9.08154e-05
0.0011943
-0.000280214
0.00104504
-0.000536691
0.000748278
-0.00065204
0.000370739
-0.000627263
-1.64356e-05
-0.000488133
-0.000349837
-0.000266051
-0.000594523
-0.000726834
0.000246966
-0.000742692
0.000513473
-0.000786164
0.000788056
-0.000797851
0.00107241
-0.000809585
0.00136624
-0.000819274
0.00167201
-0.000830622
0.00198585
-0.000836406
0.00230814
-0.000843426
0.00262919
-0.000840337
0.00294448
-0.000832207
0.00324509
-0.000813169
0.00352978
-0.000792888
0.00379534
-0.000769422
0.00404311
-0.000748035
0.00427294
-0.000728303
0.00448618
-0.000711925
0.00468518
-0.00069935
0.0048727
-0.00069187
0.00505206
-0.000688544
0.0052288
-0.000692505
0.00540644
-0.000701064
0.00558848
-0.00071437
0.00577605
-0.000729104
0.00597244
-0.00074759
0.00617566
-0.000763111
0.00638786
-0.000780115
0.00660218
-0.000787849
0.00681939
-0.00079464
0.00702731
-0.000785373
0.00722771
-0.000774862
0.00742008
-0.000759228
0.00760842
-0.000744029
0.00779205
-0.000723647
0.00797141
-0.000699289
0.00814532
-0.000668997
0.00830989
-0.000632798
0.00846105
-0.000590314
0.00859694
-0.000541249
0.00871421
-0.000485333
0.00881257
-0.000422488
0.00889103
-0.000352505
0.00894725
-0.000274938
0.00897883
-0.00019123
0.00898892
-0.000102601
0.00895909
1.38118e-05
0.00888686
0.000138406
0.00877674
0.000261596
0.00862984
0.000387183
0.00844598
0.000515689
0.00822495
0.000646401
0.00796569
0.000779526
0.00766834
0.000912919
0.00733182
0.00104697
0.00695601
0.00118011
0.00654142
0.00131062
0.00608896
0.00143771
0.00559993
0.00155919
0.0050759
0.00167471
0.00451975
0.00178069
0.00393456
0.0018764
0.00332423
0.00195921
0.00269374
0.00202728
0.00204758
0.00207924
0.00139199
0.00211245
0.000733192
0.00212623
7.81083e-05
0.00211835
-0.000566438
0.00208856
-0.00119347
0.00203552
-0.00179467
0.00195758
-0.00236225
0.00185501
-0.00288919
0.0017294
-0.00336779
0.00157882
-0.00378999
0.00140405
-0.00414993
0.00120957
-0.00444104
0.000994188
-0.00465623
0.000759535
-0.00479124
0.000510817
-0.00484287
0.000250047
-0.0048015
-2.88753e-05
-0.00467775
-0.00031232
-0.00446703
-0.000589107
-0.0041707
-0.000858713
-0.00379198
-0.00111752
-0.00333565
-0.00136072
-0.00280845
-0.00158376
-0.00222015
-0.00177988
-0.00158052
-0.00194417
-0.000901072
-0.00207242
-0.000194575
-0.00216007
0.000524295
-0.0022023
0.00123864
-0.00219553
0.00193289
-0.00213842
0.00259147
-0.00203007
0.00319761
-0.00187077
0.00373393
-0.00165969
0.00418491
-0.00140081
0.00453908
-0.0010999
0.00478446
-0.000762782
0.00490957
-0.000394977
0.00490377
1.20491e-05
0.00476741
0.000429663
0.0045018
0.00083654
0.00410966
0.00123026
0.00359722
0.00160221
0.00297697
0.00193816
0.00226364
0.00222716
0.00147708
0.00245624
0.000640029
0.00261544
-0.000221936
0.00269471
-0.00108088
0.0026872
-0.00190723
0.00258847
-0.00267216
0.00239793
-0.0033469
0.00211791
-0.00390515
0.00175268
-0.0043215
0.00131167
-0.00457647
0.000808778
-0.0046545
0.000259404
-0.0045455
-0.000341977
-0.00425177
-0.000927432
-0.00378045
-0.00148768
-0.00314456
-0.00200276
-0.00236595
-0.00245146
-0.0014769
-0.00280506
-0.000511366
-0.00304745
0.00048839
-0.00315841
0.0014762
-0.00312587
0.00240407
-0.00294616
0.00322637
-0.00261959
0.00390103
-0.00215893
0.00438749
-0.0015772
0.00465894
-0.000906184
0.0047
-0.000174878
0.0044916
0.000619272
0.0040503
0.00136024
0.00339497
0.00203809
0.00255795
0.00261364
0.00158947
0.0030437
0.000541906
0.00330038
-0.000518323
0.00335457
-0.00152313
0.00319526
-0.00240456
0.00282602
-0.0031042
0.00226774
-0.00356899
0.00154908
-0.00376667
0.000722909
-0.00367412
-0.000184861
-0.00330535
-0.00106356
-0.00268574
-0.00185457
-0.00186108
-0.0025014
-0.000899692
-0.00294616
0.000119132
-0.00314179
0.0011038
-0.00305787
0.00196711
-0.00270104
0.0026312
-0.00209687
0.00302973
-0.00129114
0.00312286
-0.000358574
0.00290028
0.000645716
0.00238354
0.00156523
0.00162074
0.00233457
0.000690126
0.00286937
-0.00031027
0.00310444
-0.00126917
0.0029931
-0.0020807
0.00255144
-0.00265259
0.00181723
-0.002916
0.000869653
-0.00283612
-0.000212037
-0.00242521
-0.00126265
-0.00172871
-0.00216335
-0.000832308
-0.002808
0.000151925
-0.00310869
0.00109535
-0.00300306
0.00187634
-0.00251365
0.00238924
-0.00169657
0.00257389
-0.00066677
0.00240084
0.000470804
0.00190614
0.00150076
0.00116412
0.00230224
0.000288425
0.00275747
-0.000587418
0.0027934
-0.00132532
0.00239104
-0.00181508
0.00163356
-0.00198948
0.000644706
-0.00182687
-0.000439641
-0.00137016
-0.00139805
-0.00070417
-0.00209999
5.24278e-05
-0.00243653
0.000761549
-0.00233794
0.00130968
-0.00186526
0.00161738
-0.0011195
0.00164987
-0.000245256
0.0014295
0.000605975
0.00101953
0.00126183
0.000510891
0.00164056
1.65148e-06
0.00170353
-0.000411115
0.00145781
-0.000681356
0.00101852
-0.000787284
0.000476667
-0.000736344
-6.73761e-05
-0.000561398
-0.000524783
-0.000302373
-0.000853548
-0.00102921
0.000303091
-0.00104578
0.000625181
-0.00110825
0.000945406
-0.00111808
0.00126183
-0.00112601
0.0015697
-0.00112714
0.00187637
-0.00113729
0.00213385
-0.00109389
0.00232879
-0.00103836
0.00239273
-0.000904279
0.00235473
-0.000794204
0.00223098
-0.00068942
0.00205704
-0.000618943
0.00184784
-0.000560231
0.00162036
-0.000520552
0.00138784
-0.000495778
0.00116402
-0.000488105
0.000961856
-0.000497191
0.000790543
-0.000520557
0.000658507
-0.000556508
0.000570568
-0.000604567
0.000527353
-0.000657849
0.000536629
-0.000723646
0.000596978
-0.000789452
0.00071471
-0.000865322
0.000884111
-0.000932513
0.00111421
-0.00101021
0.00138809
-0.00106173
0.00171317
-0.00111972
0.00205706
-0.00112926
0.0024237
-0.0011415
0.00280256
-0.00113809
0.00318986
-0.00113133
0.00358191
-0.00111569
0.00397609
-0.00109347
0.00437016
-0.00106307
0.00476103
-0.00102367
0.00514535
-0.000974632
0.0055199
-0.000915802
0.00588075
-0.000846188
0.00622298
-0.00076471
0.00653766
-0.000667185
0.00682214
-0.000559423
0.00707469
-0.00044378
0.00727838
-0.000306285
0.00745288
-0.000160687
0.00758981
1.46941e-06
0.00767903
0.000172373
0.00771676
0.000349455
0.00769961
0.000532846
0.00762561
0.000720401
0.00749335
0.000911783
0.00730159
0.00110468
0.00704982
0.00129874
0.00673876
0.00149117
0.00636865
0.00168073
0.00594113
0.00186523
0.00545938
0.00204095
0.00492642
0.00220766
0.00434685
0.00236027
0.00372463
0.00249862
0.00306568
0.00261816
0.00237563
0.00271733
0.00166222
0.00279265
0.00093258
0.00284208
0.000194149
0.00286466
-0.000544691
0.00285719
-0.00127443
0.0028183
-0.00198595
0.00274704
-0.00267016
0.00264179
-0.00331697
0.00250182
-0.00391673
0.00232916
-0.00445954
0.00212162
-0.00493623
0.00188074
-0.0053391
0.00161244
-0.00565824
0.00131333
-0.00589069
0.000991987
-0.00602994
0.000650059
-0.00606691
0.000287022
-0.0059956
-0.000100186
-0.00582278
-0.000485142
-0.00554742
-0.00086447
-0.00517077
-0.00123536
-0.00469615
-0.00159214
-0.0041297
-0.00192717
-0.00347967
-0.00223379
-0.00275573
-0.00250382
-0.00197084
-0.00272907
-0.00113944
-0.00290381
-0.000278531
-0.00302098
0.000594582
-0.00307541
0.00146299
-0.00306394
0.00230704
-0.00298247
0.00310538
-0.0028284
0.00383709
-0.00260249
0.00448411
-0.00230671
0.00502934
-0.00194603
0.00545648
-0.00152704
0.00574925
-0.00105555
0.00589641
-0.000542139
0.00588688
2.15856e-05
0.00572117
0.000595372
0.00539828
0.00115943
0.00492213
0.00170641
0.00430199
0.00222234
0.00355126
0.0026889
0.00269043
0.00308798
0.00174211
0.00340457
0.000733747
0.0036238
-0.000303528
0.00373199
-0.00133677
0.00372045
-0.00233163
0.00358333
-0.00324971
0.00331601
-0.0040591
0.0029273
-0.00472689
0.00242047
-0.00522473
0.00180951
-0.00552781
0.00111186
-0.00561743
0.000349029
-0.00548416
-0.000475253
-0.00512997
-0.00128162
-0.00456234
-0.00205531
-0.00379599
-0.00276911
-0.00286179
-0.00338567
-0.00179273
-0.00387412
-0.000635231
-0.00420495
0.000560931
-0.00435458
0.0017401
-0.00430505
0.00284805
-0.00405411
0.00382844
-0.00359997
0.0046257
-0.0029562
0.00520345
-0.00215494
0.00551463
-0.00121737
0.00554612
-0.000206371
0.00528896
0.000876437
0.00475065
0.00189855
0.00395546
0.00283329
0.00294585
0.00362325
0.00177752
0.00421203
0.000520798
0.0045571
-0.000748398
0.00462377
-0.00194511
0.00439198
-0.00298991
0.00387082
-0.00381093
0.00308876
-0.00434865
0.00208679
-0.00455951
0.000933773
-0.00442831
-0.000316063
-0.00396265
-0.00152922
-0.00319317
-0.00262404
-0.0021814
-0.00351317
-0.0010105
-0.00411707
0.000225596
-0.00437789
0.00141443
-0.0042467
0.00245236
-0.00373898
0.00324176
-0.00288626
0.00370884
-0.00175822
0.00380836
-0.000458089
0.00352263
0.000931445
0.0028824
0.00220545
0.0019492
0.00326778
0.000818828
0.00399974
-0.000391615
0.00431488
-0.00154641
0.00414789
-0.00251724
0.00352226
-0.00319648
0.00249648
-0.00350003
0.0011732
-0.00339134
-0.000320735
-0.00288642
-0.00176757
-0.00204138
-0.00300839
-0.000960469
-0.00388891
0.000220724
-0.00428989
0.00134399
-0.00412633
0.00226311
-0.00343277
0.0028631
-0.00229656
0.0030571
-0.000860775
0.00283104
0.000696865
0.00222101
0.00211079
0.00132128
0.00320197
0.000270178
0.00380857
-0.00077008
0.00383366
-0.00163598
0.00325693
-0.00219862
0.0021962
-0.00237938
0.000825466
-0.00216473
-0.000654289
-0.00160417
-0.00195862
-0.00080462
-0.00289954
8.99035e-05
-0.00333106
0.000914951
-0.00316299
0.00153732
-0.00248763
0.00186621
-0.00144839
0.00187166
-0.000250711
0.00158363
0.000894011
0.00108427
0.00176118
0.00048586
0.00223897
-9.27037e-05
0.0022821
-0.000553299
0.0019184
-0.00083731
0.00130253
-0.000928267
0.000567624
-0.000847265
-0.000148378
-0.000635275
-0.000736773
-0.000338803
-0.00115002
-0.00136801
6.90031e-05
-0.00111479
0.000163348
-0.0012026
0.000319116
-0.00127384
0.00057066
-0.00137755
0.000942179
-0.00149866
0.00146437
-0.00165948
0.00208987
-0.0017194
0.00283035
-0.00177884
0.00348609
-0.00156002
0.00411156
-0.00141967
0.00461692
-0.00119478
0.00498778
-0.00098981
0.00522552
-0.000797974
0.00534926
-0.00064429
0.00538101
-0.000527529
0.00534307
-0.000450165
0.00525304
-0.000407162
0.00512934
-0.000396852
0.0049824
-0.000409571
0.00482703
-0.000449194
0.0046795
-0.00051032
0.00456729
-0.000611436
0.00451145
-0.000733617
0.00454923
-0.000903101
0.0046768
-0.00106009
0.00492707
-0.00126048
0.00522793
-0.00136258
0.005654
-0.00154579
0.00602482
-0.00150009
0.00641426
-0.00153094
0.00676969
-0.00149352
0.00711911
-0.00148075
0.00745288
-0.00144946
0.00777463
-0.00141522
0.00808228
-0.00137072
0.00837461
-0.001316
0.00865022
-0.00125025
0.00890657
-0.00117215
0.00914082
-0.00108044
0.00935047
-0.000974355
0.00953742
-0.000854134
0.00969392
-0.000715922
0.00981665
-0.000566514
0.00991231
-0.000401944
0.00997452
-0.000222898
0.00997756
-1.57589e-06
0.00992248
0.000227462
0.00981795
0.000453982
0.00966286
0.000687931
0.0094554
0.000927867
0.00919233
0.00117485
0.00887205
0.00142496
0.00849292
0.00167787
0.00805432
0.00192976
0.00755662
0.00217843
0.00700069
0.00242116
0.00638909
0.00265255
0.0057242
0.00287256
0.00501058
0.00307389
0.00425191
0.00325728
0.00345543
0.00341465
0.00262714
0.00354563
0.00177437
0.00364542
0.000905508
0.00371094
3.00052e-05
0.00374017
-0.000842257
0.00372946
-0.00170246
0.0036785
-0.00253835
0.00358293
-0.00333893
0.00344237
-0.00409315
0.00325603
-0.00479051
0.00302652
-0.0054199
0.00275101
-0.00597351
0.00243436
-0.00643608
0.00207501
-0.00680341
0.00168065
-0.00706276
0.00125134
-0.00721126
0.000798564
-0.00724092
0.00031668
-0.00714947
-0.000191634
-0.00693768
-0.000696934
-0.00660404
-0.00119812
-0.00614949
-0.0016899
-0.00558002
-0.00216162
-0.00490316
-0.00260403
-0.0041298
-0.00300716
-0.00327001
-0.0033636
-0.00233954
-0.00365955
-0.00135652
-0.00388683
-0.000338717
-0.00403878
0.000694717
-0.00410885
0.00172013
-0.00408934
0.00271291
-0.00397526
0.00365019
-0.00376568
0.00451099
-0.00346329
0.00527195
-0.00306767
0.00591265
-0.00258673
0.00641125
-0.00202565
0.00675099
-0.00139529
0.0069185
-0.000709652
0.00690321
3.688e-05
0.00670678
0.000791802
0.00632523
0.00154097
0.00576294
0.0022687
0.00503169
0.0029536
0.00414691
0.00357367
0.00313226
0.00410263
0.00201544
0.00452139
0.000828558
0.00481067
-0.000391767
0.00495231
-0.00160474
0.00493342
-0.00277165
0.00475024
-0.00384835
0.00439271
-0.00479364
0.00387259
-0.00557366
0.00320048
-0.00615188
0.00238773
-0.00650339
0.00146337
-0.00660421
0.000449855
-0.00644418
-0.00063529
-0.00602595
-0.00169985
-0.00535703
-0.00272423
-0.00445716
-0.00366899
-0.00336176
-0.00448107
-0.00210944
-0.00512644
-0.000753939
-0.00556045
0.000646351
-0.00575487
0.00202524
-0.00568393
0.00331493
-0.0053438
0.00445174
-0.00473678
0.0053783
-0.00388277
0.00603878
-0.00281541
0.0063977
-0.0015763
0.00641608
-0.000224754
0.00610513
0.0011874
0.00546539
0.00253828
0.00452606
0.00377262
0.00333689
0.00481241
0.00196448
0.00558444
0.000494752
0.00602682
-0.000988189
0.00610671
-0.0023842
0.00578799
-0.00359886
0.00508548
-0.00454328
0.00403318
-0.00515471
0.00269823
-0.00538321
0.00116227
-0.00520311
-0.000496163
-0.00463243
-0.00209991
-0.00370971
-0.00354676
-0.00250374
-0.00471915
-0.00111081
-0.00551
0.000346854
-0.00583555
0.0017474
-0.00564724
0.0029629
-0.00495448
0.00388001
-0.00380338
0.00441604
-0.00229425
0.00450917
-0.000551215
0.00415881
0.0012818
0.00339064
0.00297362
0.0022801
0.00437832
0.000943151
0.00533668
-0.000485339
0.00574337
-0.00184128
0.00550383
-0.00297488
0.00465586
-0.00375826
0.00327987
-0.00410333
0.00151827
-0.00396173
-0.000462335
-0.00335574
-0.00237356
-0.00235453
-0.00400961
-0.00108379
-0.00515966
0.000298398
-0.00567207
0.00160604
-0.00543397
0.00267084
-0.00449757
0.00334749
-0.00297322
0.00355463
-0.00106791
0.0032687
0.000982793
0.0025362
0.00284329
0.00147234
0.00426583
0.000241167
0.00503975
-0.000964609
0.00503943
-0.00195774
0.00425006
-0.00259224
0.0028307
-0.00277621
0.00100944
-0.00250214
-0.000928365
-0.00183103
-0.00262972
-0.00089339
-0.00383718
0.000140927
-0.00436538
0.00108127
-0.00410333
0.00177534
-0.0031817
0.00212158
-0.00179464
0.00209212
-0.000221244
0.00173158
0.00125454
0.00113983
0.00235293
0.000450152
0.00292866
-0.000200176
0.00293243
-0.000699567
0.00241779
-0.000989999
0.00159296
-0.00106288
0.000640504
-0.000948836
-0.000262421
-0.000698509
-0.0009871
-0.000367897
-0.00148063
-0.00173591
0.000455154
-0.00156994
0.000976491
-0.00172394
0.00170065
-0.001998
0.00275821
-0.00243511
0.00433549
-0.00307594
0.00650773
-0.00383172
0.00893481
-0.00414648
0.0108993
-0.00374332
0.0108074
-0.00146815
0.00955165
-0.000163894
0.00794365
0.000413224
0.0063303
0.000623539
0.0048078
0.000724521
0.00339415
0.000769365
0.0020894
0.000777221
0.000897224
0.000742006
-0.000177971
0.000668032
-0.00113468
0.000559861
-0.0019685
0.000424242
-0.0027025
0.000284809
-0.00328386
7.10353e-05
-0.0035377
-0.000357594
-0.00357991
-0.000691411
-0.00340364
-0.00107936
-0.00306006
-0.00140367
-0.0024484
-0.00187214
-0.00161328
-0.00219771
-0.000397097
-0.00276197
0.00064826
-0.00254544
0.00154659
-0.00242927
0.00232335
-0.00227029
0.00301793
-0.00217533
0.00365773
-0.00208926
0.00426009
-0.00201757
0.0048385
-0.00194913
0.00539759
-0.00187509
0.00594206
-0.00179471
0.00647016
-0.00170025
0.00697722
-0.00158751
0.00745648
-0.00145361
0.00790186
-0.00129951
0.00831022
-0.00112428
0.00866896
-0.000925262
0.00897068
-0.000703655
0.0092077
-0.000459919
0.00939968
-0.00019356
0.00953558
9.15621e-05
0.00959983
0.000389734
0.00958706
0.000700697
0.00949501
0.00101992
0.0093235
0.00134636
0.00907091
0.00167754
0.00873776
0.00201103