/*--------------------------------*- C++ -*----------------------------------*\
  =========                 |
  \\      /  F ield         | OpenFOAM: The Open Source CFD Toolbox
   \\    /   O peration     | Website:  https://openfoam.org
    \\  /    A nd           | Version:  12
     \\/     M anipulation  |
\*---------------------------------------------------------------------------*/
FoamFile
{
    format      ascii;
    class       volVectorField;
    location    "17";
    object      U;
}
// * * * * * * * * * * * * * * * * * * * * * * * * * * * * * * * * * * * * * //

dimensions      [0 1 -1 0 0 0 0];

internalField   nonuniform List<vector> 
3829
(
(6.6885e-06 -0.000579664 0)
(1.83364e-05 -0.000612835 0)
(3.20766e-05 -0.000612726 0)
(4.47539e-05 -0.000611258 0)
(5.82163e-05 -0.000609277 0)
(7.15609e-05 -0.000606743 0)
(8.51284e-05 -0.000603655 0)
(9.87738e-05 -0.000599999 0)
(0.000112592 -0.00059576 0)
(0.000126494 -0.000590932 0)
(0.000140538 -0.000585512 0)
(0.000154679 -0.000579491 0)
(0.000168872 -0.000572871 0)
(0.000183195 -0.000565637 0)
(0.000197603 -0.000557794 0)
(0.000212115 -0.000549339 0)
(0.000226714 -0.000540284 0)
(0.000241402 -0.000530639 0)
(0.000256187 -0.000520416 0)
(0.000271064 -0.000509632 0)
(0.000286009 -0.000498313 0)
(0.000301052 -0.00048647 0)
(0.000316142 -0.000474131 0)
(0.000331285 -0.000461325 0)
(0.000346445 -0.000448065 0)
(0.00036155 -0.000434391 0)
(0.000376634 -0.000420316 0)
(0.000391555 -0.000405916 0)
(0.000406417 -0.00039115 0)
(0.000421145 -0.000376142 0)
(0.000435417 -0.00036089 0)
(0.000449425 -0.000345432 0)
(0.000462717 -0.000329821 0)
(0.000475613 -0.000314022 0)
(0.000488027 -0.000298114 0)
(0.000499444 -0.000282067 0)
(0.00051011 -0.000265916 0)
(0.000519816 -0.000249682 0)
(0.000528539 -0.00023338 0)
(0.000536185 -0.000217051 0)
(0.000542647 -0.000200749 0)
(0.000547792 -0.000184501 0)
(0.000551514 -0.000168324 0)
(0.000553693 -0.000152246 0)
(0.000554137 -0.00013637 0)
(0.000552657 -0.000120767 0)
(0.000549121 -0.000105504 0)
(0.000543528 -9.06169e-05 0)
(0.000535766 -7.6181e-05 0)
(0.000525795 -6.22095e-05 0)
(0.000513549 -4.87928e-05 0)
(0.000498903 -3.59137e-05 0)
(0.000481989 -2.36377e-05 0)
(0.000463081 -1.20082e-05 0)
(0.000441918 -1.10703e-06 0)
(0.000418399 9.13748e-06 0)
(0.000392995 1.85747e-05 0)
(0.000365721 2.7218e-05 0)
(0.000336351 3.50032e-05 0)
(0.000305558 4.2018e-05 0)
(0.000273495 4.80394e-05 0)
(0.000239892 5.31058e-05 0)
(0.000205487 5.72522e-05 0)
(0.000170438 6.03657e-05 0)
(0.000134775 6.25166e-05 0)
(9.9196e-05 6.36747e-05 0)
(6.38602e-05 6.3809e-05 0)
(2.92035e-05 6.30008e-05 0)
(-4.36864e-06 6.11545e-05 0)
(-3.66899e-05 5.84165e-05 0)
(-6.70371e-05 5.47261e-05 0)
(-9.52599e-05 5.02046e-05 0)
(-0.000120919 4.48962e-05 0)
(-0.000143551 3.88583e-05 0)
(-0.00016284 3.22026e-05 0)
(-0.000178793 2.50102e-05 0)
(-0.000190578 1.74146e-05 0)
(-0.000198534 9.45325e-06 0)
(-0.000202355 1.43096e-06 0)
(-0.000201375 -6.63701e-06 0)
(-0.000195985 -1.46254e-05 0)
(-0.000185711 -2.22408e-05 0)
(-0.000171123 -2.9539e-05 0)
(-0.000152745 -3.62766e-05 0)
(-0.00013053 -4.2314e-05 0)
(-0.000104865 -4.75791e-05 0)
(-7.63706e-05 -5.18057e-05 0)
(-4.53832e-05 -5.49835e-05 0)
(-1.26331e-05 -5.69849e-05 0)
(2.1214e-05 -5.77264e-05 0)
(5.54342e-05 -5.71864e-05 0)
(8.92344e-05 -5.53136e-05 0)
(0.000121823 -5.21411e-05 0)
(0.000152353 -4.76891e-05 0)
(0.000180054 -4.20356e-05 0)
(0.0002041 -3.52811e-05 0)
(0.000223786 -2.75717e-05 0)
(0.000238462 -1.90812e-05 0)
(0.000247651 -1.00167e-05 0)
(0.000250711 -5.77818e-07 0)
(0.000247105 8.94783e-06 0)
(0.000236752 1.83034e-05 0)
(0.000219964 2.72837e-05 0)
(0.000197122 3.55878e-05 0)
(0.000168709 4.29612e-05 0)
(0.000135411 4.909e-05 0)
(9.79061e-05 5.37908e-05 0)
(5.74342e-05 5.69028e-05 0)
(1.48081e-05 5.81741e-05 0)
(-2.83516e-05 5.75926e-05 0)
(-7.05084e-05 5.50158e-05 0)
(-0.00011044 5.06285e-05 0)
(-0.000146613 4.43541e-05 0)
(-0.000177615 3.65493e-05 0)
(-0.000202246 2.72189e-05 0)
(-0.00021934 1.69551e-05 0)
(-0.000228115 5.80732e-06 0)
(-0.000227469 -5.42469e-06 0)
(-0.000216954 -1.67883e-05 0)
(-0.000197246 -2.74003e-05 0)
(-0.000168732 -3.71277e-05 0)
(-0.000132724 -4.54171e-05 0)
(-9.02769e-05 -5.17141e-05 0)
(-4.28229e-05 -5.58788e-05 0)
(7.86133e-06 -5.7586e-05 0)
(5.92713e-05 -5.66435e-05 0)
(0.000108655 -5.3185e-05 0)
(0.000153991 -4.71215e-05 0)
(0.000193149 -3.88351e-05 0)
(0.000223956 -2.85964e-05 0)
(0.000244708 -1.69439e-05 0)
(0.000254376 -4.39494e-06 0)
(0.000251417 8.21768e-06 0)
(0.000235712 2.04092e-05 0)
(0.000208572 3.14515e-05 0)
(0.000171182 4.06794e-05 0)
(0.000125644 4.75142e-05 0)
(7.4386e-05 5.14464e-05 0)
(2.00619e-05 5.23856e-05 0)
(-3.37065e-05 4.97609e-05 0)
(-8.31761e-05 4.42408e-05 0)
(-0.000125407 3.57665e-05 0)
(-0.000157671 2.5202e-05 0)
(-0.00017763 1.29458e-05 0)
(-0.000183815 2.62556e-07 0)
(-0.000175544 -1.22114e-05 0)
(-0.000153493 -2.3327e-05 0)
(-0.000119909 -3.24967e-05 0)
(-7.75136e-05 -3.86125e-05 0)
(-2.94762e-05 -4.14355e-05 0)
(2.01578e-05 -4.04325e-05 0)
(6.64843e-05 -3.58654e-05 0)
(0.000104989 -2.81106e-05 0)
(0.000132629 -1.77971e-05 0)
(0.00014667 -6.01066e-06 0)
(0.000145079 6.25803e-06 0)
(0.000127959 1.77082e-05 0)
(9.73054e-05 2.72523e-05 0)
(5.63452e-05 3.3864e-05 0)
(7.91216e-06 3.67854e-05 0)
(-4.18639e-05 3.55816e-05 0)
(-8.63134e-05 3.04311e-05 0)
(-0.000121562 2.19149e-05 0)
(-0.000143502 1.09765e-05 0)
(-0.000149192 -1.15055e-06 0)
(-0.000137393 -1.29869e-05 0)
(-0.000109661 -2.32032e-05 0)
(-6.94562e-05 -3.05254e-05 0)
(-2.04103e-05 -3.39894e-05 0)
(3.07805e-05 -3.30449e-05 0)
(7.64617e-05 -2.79023e-05 0)
(0.000111604 -1.93729e-05 0)
(0.000131995 -8.50565e-06 0)
(0.000134633 3.12737e-06 0)
(0.000119236 1.39031e-05 0)
(8.86999e-05 2.2381e-05 0)
(4.75044e-05 2.73374e-05 0)
(8.62571e-07 2.80737e-05 0)
(-4.30317e-05 2.44042e-05 0)
(-7.68794e-05 1.71806e-05 0)
(-9.67266e-05 7.65962e-06 0)
(-9.93838e-05 -2.66466e-06 0)
(-8.48278e-05 -1.2074e-05 0)
(-5.64096e-05 -1.91911e-05 0)
(-1.80428e-05 -2.28323e-05 0)
(2.35364e-05 -2.25079e-05 0)
(6.01391e-05 -1.85581e-05 0)
(8.6691e-05 -1.19791e-05 0)
(0.000100022 -4.02122e-06 0)
(9.85408e-05 3.79159e-06 0)
(8.37092e-05 1.02211e-05 0)
(5.96569e-05 1.42563e-05 0)
(3.07505e-05 1.54333e-05 0)
(2.57073e-06 1.40362e-05 0)
(-2.04655e-05 1.03421e-05 0)
(-3.5229e-05 5.64397e-06 0)
(-4.03497e-05 5.98953e-07 0)
(-3.6569e-05 -3.80545e-06 0)
(-2.51208e-05 -7.04029e-06 0)
(-8.9201e-06 -8.77878e-06 0)
(9.69521e-06 0.000283674 0)
(3.11759e-05 0.00030735 0)
(5.29248e-05 0.000307577 0)
(7.48992e-05 0.000307136 0)
(9.7062e-05 0.000306469 0)
(0.000119411 0.00030557 0)
(0.000141909 0.000304405 0)
(0.000164518 0.000302926 0)
(0.000187276 0.000301088 0)
(0.000210002 0.000298855 0)
(0.000232768 0.000296192 0)
(0.000255499 0.000293048 0)
(0.0002782 0.000289361 0)
(0.000300923 0.000285108 0)
(0.000323528 0.000280229 0)
(0.000345989 0.000274693 0)
(0.000368214 0.000268494 0)
(0.000390191 0.000261657 0)
(0.000411889 0.000254182 0)
(0.000433218 0.000246134 0)
(0.000454196 0.000237557 0)
(0.000474866 0.000228537 0)
(0.000495038 0.00021915 0)
(0.000514843 0.000209484 0)
(0.000534198 0.000199658 0)
(0.00055301 0.000189792 0)
(0.000571091 0.000180019 0)
(0.000588676 0.000170464 0)
(0.000605556 0.000161222 0)
(0.000621408 0.000152485 0)
(0.000636482 0.000144331 0)
(0.000650626 0.000136833 0)
(0.000663846 0.000130159 0)
(0.000676288 0.000124275 0)
(0.000687832 0.000119225 0)
(0.000698271 0.000115053 0)
(0.000707535 0.000111809 0)
(0.00071561 0.00010953 0)
(0.000722423 0.000108284 0)
(0.000727687 0.000108141 0)
(0.00073138 0.000109123 0)
(0.000733565 0.000111257 0)
(0.000734147 0.00011448 0)
(0.000732516 0.000118778 0)
(0.000728264 0.000124151 0)
(0.00072143 0.00013059 0)
(0.000712084 0.000138029 0)
(0.000700202 0.000146352 0)
(0.000685809 0.000155444 0)
(0.000668806 0.000165199 0)
(0.000649281 0.000175436 0)
(0.000627271 0.000186052 0)
(0.000602586 0.000196711 0)
(0.000575451 0.000207519 0)
(0.000546165 0.000217931 0)
(0.000514331 0.000228081 0)
(0.000480113 0.000237433 0)
(0.00044398 0.000246109 0)
(0.000406036 0.000253517 0)
(0.000366237 0.000259878 0)
(0.000324499 0.000264557 0)
(0.000281774 0.000267751 0)
(0.000238101 0.000268994 0)
(0.000193794 0.000268365 0)
(0.000149255 0.000265584 0)
(0.000104727 0.000260694 0)
(6.08617e-05 0.000253464 0)
(1.78288e-05 0.000243989 0)
(-2.37275e-05 0.000232135 0)
(-6.34983e-05 0.000218015 0)
(-0.000100862 0.000201654 0)
(-0.000135277 0.000183195 0)
(-0.000166573 0.000162778 0)
(-0.000194029 0.00014053 0)
(-0.000217268 0.000116811 0)
(-0.000236248 9.17233e-05 0)
(-0.000250323 6.57351e-05 0)
(-0.00025921 3.90431e-05 0)
(-0.000262735 1.21929e-05 0)
(-0.000260939 -1.45045e-05 0)
(-0.000253206 -4.04762e-05 0)
(-0.00023977 -6.55202e-05 0)
(-0.000221425 -8.90852e-05 0)
(-0.00019801 -0.000110859 0)
(-0.000170118 -0.000130202 0)
(-0.000137739 -0.000146955 0)
(-0.000101731 -0.000160493 0)
(-6.29349e-05 -0.000170658 0)
(-2.18443e-05 -0.000177024 0)
(2.05017e-05 -0.000179522 0)
(6.32626e-05 -0.000177857 0)
(0.000105469 -0.000172096 0)
(0.000146098 -0.000162154 0)
(0.000184172 -0.000148279 0)
(0.000218686 -0.000130625 0)
(0.000248625 -0.000109525 0)
(0.000273091 -8.5462e-05 0)
(0.000291284 -5.89674e-05 0)
(0.000302686 -3.06473e-05 0)
(0.000306473 -1.2367e-06 0)
(0.00030199 2.85038e-05 0)
(0.00028944 5.77456e-05 0)
(0.000269063 8.57104e-05 0)
(0.000241145 0.000111534 0)
(0.000206191 0.000134405 0)
(0.000165131 0.000153529 0)
(0.000119102 0.000168067 0)
(6.91927e-05 0.000177551 0)
(1.66399e-05 0.000181388 0)
(-3.66212e-05 0.000179414 0)
(-8.8545e-05 0.000171385 0)
(-0.000137735 0.000157488 0)
(-0.000182248 0.00013801 0)
(-0.000220489 0.000113405 0)
(-0.000250718 8.45256e-05 0)
(-0.000271693 5.22354e-05 0)
(-0.000282213 1.77795e-05 0)
(-0.000281461 -1.76359e-05 0)
(-0.000268875 -5.26138e-05 0)
(-0.000244749 -8.58455e-05 0)
(-0.000210334 -0.000115896 0)
(-0.000166033 -0.000141328 0)
(-0.000113906 -0.000160975 0)
(-5.5953e-05 -0.000173783 0)
(6.13037e-06 -0.000178922 0)
(6.88112e-05 -0.000175955 0)
(0.000129107 -0.000164769 0)
(0.000184487 -0.000145945 0)
(0.000232078 -0.000119892 0)
(0.000269442 -8.81026e-05 0)
(0.000294427 -5.17163e-05 0)
(0.000305484 -1.28271e-05 0)
(0.000301223 2.65428e-05 0)
(0.000281834 6.44744e-05 0)
(0.000248355 9.85789e-05 0)
(0.000202352 0.000127137 0)
(0.000146309 0.000148005 0)
(8.36397e-05 0.000160135 0)
(1.69312e-05 0.000162313 0)
(-4.87704e-05 0.000154281 0)
(-0.000108776 0.000136465 0)
(-0.000159848 0.000110181 0)
(-0.000198483 7.68622e-05 0)
(-0.000221733 3.90893e-05 0)
(-0.000227798 -8.23844e-07 0)
(-0.00021632 -3.93514e-05 0)
(-0.000188162 -7.41202e-05 0)
(-0.000145749 -0.000102212 0)
(-9.24668e-05 -0.000121194 0)
(-3.25188e-05 -0.000129549 0)
(2.92033e-05 -0.000126043 0)
(8.6312e-05 -0.000111495 0)
(0.00013375 -8.69168e-05 0)
(0.000167418 -5.46952e-05 0)
(0.000184112 -1.76242e-05 0)
(0.000181585 2.0508e-05 0)
(0.000159908 5.61731e-05 0)
(0.000121619 8.56909e-05 0)
(7.05414e-05 0.000106008 0)
(1.04649e-05 0.000114841 0)
(-5.10658e-05 0.000110703 0)
(-0.000105912 9.44275e-05 0)
(-0.000149156 6.762e-05 0)
(-0.000175855 3.34651e-05 0)
(-0.00018243 -4.3238e-06 0)
(-0.000167637 -4.10809e-05 0)
(-0.000133448 -7.27409e-05 0)
(-8.39334e-05 -9.52562e-05 0)
(-2.37795e-05 -0.000105813 0)
(3.8716e-05 -0.000102499 0)
(9.41249e-05 -8.62671e-05 0)
(0.000136392 -5.94129e-05 0)
(0.000160432 -2.54937e-05 0)
(0.000162639 1.05925e-05 0)
(0.000143033 4.40076e-05 0)
(0.000105125 7.00789e-05 0)
(5.44013e-05 8.512e-05 0)
(-2.61025e-06 8.70212e-05 0)
(-5.58577e-05 7.52502e-05 0)
(-9.63879e-05 5.2647e-05 0)
(-0.000119593 2.28204e-05 0)
(-0.00012187 -9.05324e-06 0)
(-0.000103453 -3.81053e-05 0)
(-6.84065e-05 -5.96955e-05 0)
(-2.17162e-05 -7.06612e-05 0)
(2.81634e-05 -6.91061e-05 0)
(7.14431e-05 -5.65678e-05 0)
(0.000102132 -3.59343e-05 0)
(0.000116589 -1.13615e-05 0)
(0.000113338 1.26137e-05 0)
(9.44642e-05 3.20899e-05 0)
(6.49611e-05 4.40559e-05 0)
(3.05438e-05 4.7261e-05 0)
(-2.46353e-06 4.23489e-05 0)
(-2.86837e-05 3.09602e-05 0)
(-4.46644e-05 1.63974e-05 0)
(-4.94003e-05 1.17323e-06 0)
(-4.38048e-05 -1.20308e-05 0)
(-2.97813e-05 -2.17072e-05 0)
(-1.05369e-05 -2.68183e-05 0)
(5.59739e-06 -0.000844443 0)
(1.76521e-05 -0.000888277 0)
(2.96762e-05 -0.000887944 0)
(4.14893e-05 -0.000885804 0)
(5.30761e-05 -0.000882635 0)
(6.4216e-05 -0.000878482 0)
(7.49633e-05 -0.000872997 0)
(8.5126e-05 -0.00086631 0)
(9.49143e-05 -0.000858003 0)
(0.000104277 -0.00084829 0)
(0.0001132 -0.000837075 0)
(0.000121455 -0.000824623 0)
(0.000129201 -0.000811005 0)
(0.000136534 -0.000796455 0)
(0.000143402 -0.000781102 0)
(0.000150225 -0.000765124 0)
(0.000157384 -0.000748688 0)
(0.000164917 -0.000731954 0)
(0.000173097 -0.000714983 0)
(0.000182175 -0.000697897 0)
(0.000192255 -0.000680636 0)
(0.000203569 -0.000663299 0)
(0.000216026 -0.000645749 0)
(0.000229877 -0.000627979 0)
(0.000245259 -0.000609733 0)
(0.000262134 -0.000591129 0)
(0.000280484 -0.000571711 0)
(0.000299977 -0.000551779 0)
(0.000320998 -0.000530894 0)
(0.000343331 -0.000509321 0)
(0.000365991 -0.00048679 0)
(0.000389625 -0.000463546 0)
(0.000413238 -0.000439327 0)
(0.000436425 -0.000414074 0)
(0.000459579 -0.000387728 0)
(0.000482205 -0.000360212 0)
(0.000504313 -0.000331363 0)
(0.000525667 -0.000301351 0)
(0.000546253 -0.000270183 0)
(0.000565682 -0.000237995 0)
(0.000583666 -0.000204868 0)
(0.000599727 -0.000170847 0)
(0.000613601 -0.000136059 0)
(0.000625467 -0.000100613 0)
(0.00063518 -6.44868e-05 0)
(0.000642269 -2.79211e-05 0)
(0.000646137 8.83521e-06 0)
(0.0006466 4.55842e-05 0)
(0.000643637 8.21105e-05 0)
(0.000636949 0.000118234 0)
(0.000626539 0.000153734 0)
(0.000611689 0.000188388 0)
(0.000593436 0.000221905 0)
(0.000571229 0.000254191 0)
(0.000544987 0.000284769 0)
(0.000514766 0.000313498 0)
(0.000480914 0.000339961 0)
(0.000443409 0.000364037 0)
(0.000402461 0.000385256 0)
(0.000358606 0.000403307 0)
(0.00031185 0.000418044 0)
(0.000262882 0.000429239 0)
(0.000211862 0.000436483 0)
(0.000159784 0.000439711 0)
(0.000106572 0.000438689 0)
(5.31184e-05 0.000433278 0)
(-1.75275e-07 0.000423416 0)
(-5.25275e-05 0.000409044 0)
(-0.000103443 0.000390217 0)
(-0.000152151 0.000366986 0)
(-0.000197823 0.000339643 0)
(-0.00023992 0.000308127 0)
(-0.00027813 0.000273065 0)
(-0.000311186 0.00023462 0)
(-0.00033894 0.000193249 0)
(-0.000361113 0.00014948 0)
(-0.000376593 0.000103908 0)
(-0.000385492 5.72152e-05 0)
(-0.000387242 9.9718e-06 0)
(-0.000381262 -3.69692e-05 0)
(-0.000368236 -8.2712e-05 0)
(-0.000347983 -0.000126948 0)
(-0.000320811 -0.000168507 0)
(-0.00028698 -0.000206753 0)
(-0.000247067 -0.000240808 0)
(-0.000201566 -0.000270028 0)
(-0.000151202 -0.00029367 0)
(-9.70336e-05 -0.000311116 0)
(-4.00705e-05 -0.000321945 0)
(1.85424e-05 -0.000325692 0)
(7.76501e-05 -0.000322121 0)
(0.000135826 -0.000311154 0)
(0.000191748 -0.00029284 0)
(0.000243907 -0.0002674 0)
(0.000291329 -0.000235254 0)
(0.000332319 -0.000197064 0)
(0.000365702 -0.000153545 0)
(0.000390578 -0.000105775 0)
(0.000406023 -5.46688e-05 0)
(0.000411127 -1.72742e-06 0)
(0.000405233 5.17784e-05 0)
(0.000388371 0.000104394 0)
(0.000360909 0.000154547 0)
(0.000323264 0.000200868 0)
(0.000276238 0.000241702 0)
(0.000220624 0.000275758 0)
(0.000158046 0.000301659 0)
(9.04159e-05 0.000318395 0)
(1.93871e-05 0.000325061 0)
(-5.2519e-05 0.000321285 0)
(-0.000122882 0.000306655 0)
(-0.000189263 0.000281616 0)
(-0.000249529 0.000246487 0)
(-0.000301075 0.000202399 0)
(-0.000341832 0.000150598 0)
(-0.000369906 9.27183e-05 0)
(-0.000383912 3.09975e-05 0)
(-0.000382663 -3.24665e-05 0)
(-0.000365654 -9.50011e-05 0)
(-0.000333617 -0.000154529 0)
(-0.000286993 -0.00020788 0)
(-0.000227733 -0.000253214 0)
(-0.00015793 -0.000288032 0)
(-7.98946e-05 -0.000310502 0)
(3.2842e-06 -0.000319164 0)
(8.752e-05 -0.000313593 0)
(0.000168081 -0.000293089 0)
(0.000241939 -0.000259074 0)
(0.000305258 -0.000212303 0)
(0.000354617 -0.000155039 0)
(0.000387364 -9.00962e-05 0)
(0.00040101 -2.06407e-05 0)
(0.000394594 4.98187e-05 0)
(0.000367652 0.000117344 0)
(0.000322049 0.000178018 0)
(0.0002597 0.000228549 0)
(0.000184095 0.000265325 0)
(9.95226e-05 0.00028611 0)
(1.00473e-05 0.000289219 0)
(-7.77772e-05 0.000274107 0)
(-0.000157575 0.000241732 0)
(-0.000224854 0.000193935 0)
(-0.000274968 0.000133972 0)
(-0.000304362 6.58214e-05 0)
(-0.000310336 -5.49918e-06 0)
(-0.000292441 -7.47089e-05 0)
(-0.000252637 -0.000136654 0)
(-0.000193365 -0.000186189 0)
(-0.000119749 -0.000219683 0)
(-3.70315e-05 -0.00023366 0)
(4.71573e-05 -0.000226628 0)
(0.00012451 -0.000199613 0)
(0.000188359 -0.000154912 0)
(0.000233219 -9.62981e-05 0)
(0.000254634 -2.94926e-05 0)
(0.000249858 3.90656e-05 0)
(0.000219478 0.000102878 0)
(0.000166517 0.000155516 0)
(9.64203e-05 0.000191389 0)
(1.43942e-05 0.000206586 0)
(-6.91076e-05 0.000198454 0)
(-0.000143284 0.000168688 0)
(-0.000201316 0.000120223 0)
(-0.000236594 5.86232e-05 0)
(-0.000244588 -9.03332e-06 0)
(-0.000223974 -7.48667e-05 0)
(-0.000177477 -0.000131038 0)
(-0.000110442 -0.000170688 0)
(-2.93918e-05 -0.000188769 0)
(5.42555e-05 -0.000182064 0)
(0.000127782 -0.000152448 0)
(0.00018323 -0.000103857 0)
(0.000213616 -4.32574e-05 0)
(0.000214776 2.12238e-05 0)
(0.000187084 8.05138e-05 0)
(0.000135106 0.000126294 0)
(6.64809e-05 0.000152205 0)
(-9.88903e-06 0.000154568 0)
(-8.03494e-05 0.000132814 0)
(-0.000133216 9.18407e-05 0)
(-0.000162317 3.86203e-05 0)
(-0.000163452 -1.81206e-05 0)
(-0.000137517 -6.92225e-05 0)
(-8.99441e-05 -0.000106719 0)
(-2.77063e-05 -0.000125043 0)
(3.75811e-05 -0.000121108 0)
(9.29764e-05 -9.79622e-05 0)
(0.000130989 -6.09666e-05 0)
(0.000147092 -1.73191e-05 0)
(0.000140223 2.45768e-05 0)
(0.000113566 5.80075e-05 0)
(7.39425e-05 7.79028e-05 0)
(2.92496e-05 8.24279e-05 0)
(-1.22885e-05 7.23522e-05 0)
(-4.39182e-05 5.20219e-05 0)
(-6.18651e-05 2.64404e-05 0)
(-6.55081e-05 3.7356e-07 0)
(-5.65974e-05 -2.20753e-05 0)
(-3.79303e-05 -3.81446e-05 0)
(-1.33149e-05 -4.65124e-05 0)
(1.31526e-05 -1.83959e-05 0)
(4.33236e-05 -5.89608e-06 0)
(7.40364e-05 -1.38911e-06 0)
(0.000106022 4.67609e-06 0)
(0.000138784 1.32265e-05 0)
(0.000173091 2.31526e-05 0)
(0.000208168 3.58767e-05 0)
(0.000244714 4.86798e-05 0)
(0.000282513 6.34951e-05 0)
(0.000319323 7.67085e-05 0)
(0.000355186 8.8889e-05 0)
(0.000388959 9.81488e-05 0)
(0.000420828 0.000104721 0)
(0.000450416 0.000107809 0)
(0.000478055 0.000107652 0)
(0.000503689 0.000103839 0)
(0.000527362 9.69612e-05 0)
(0.000549684 8.62214e-05 0)
(0.000570767 7.34626e-05 0)
(0.000591243 5.79095e-05 0)
(0.000611377 4.03989e-05 0)
(0.000631742 2.09569e-05 0)
(0.000652686 6.38048e-07 0)
(0.000674939 -2.0721e-05 0)
(0.000697703 -4.16683e-05 0)
(0.000721799 -6.25496e-05 0)
(0.000746154 -8.18357e-05 0)
(0.000770681 -0.000100059 0)
(0.000795345 -0.000115384 0)
(0.000818979 -0.000128744 0)
(0.000841624 -0.000138811 0)
(0.00086308 -0.00014649 0)
(0.000884703 -0.000151051 0)
(0.000905577 -0.000152812 0)
(0.000925577 -0.00015153 0)
(0.000945145 -0.000147256 0)
(0.000963397 -0.000139774 0)
(0.000979731 -0.000129087 0)
(0.000994304 -0.000114982 0)
(0.00100652 -9.73943e-05 0)
(0.00101665 -7.63316e-05 0)
(0.00102441 -5.19026e-05 0)
(0.00102941 -2.42225e-05 0)
(0.00103178 6.51035e-06 0)
(0.00103058 3.98888e-05 0)
(0.00102463 7.56756e-05 0)
(0.00101416 0.000113832 0)
(0.000999351 0.000154 0)
(0.000980329 0.000195719 0)
(0.000957026 0.00023858 0)
(0.000929391 0.0002822 0)
(0.000897158 0.000326008 0)
(0.000860838 0.00036944 0)
(0.000819906 0.000411971 0)
(0.00077449 0.000453078 0)
(0.000724567 0.000492193 0)
(0.000670459 0.000528715 0)
(0.000612448 0.000561946 0)
(0.000549998 0.000591636 0)
(0.000484406 0.000616823 0)
(0.000415988 0.000637522 0)
(0.000344729 0.000652813 0)
(0.000271349 0.00066257 0)
(0.000196874 0.000666279 0)
(0.000121437 0.000663728 0)
(4.59703e-05 0.000654627 0)
(-2.86109e-05 0.0006388 0)
(-0.000101664 0.000616266 0)
(-0.000172247 0.000586903 0)
(-0.000239223 0.000551032 0)
(-0.000302331 0.000508675 0)
(-0.000360066 0.000460283 0)
(-0.000411568 0.000406168 0)
(-0.000456627 0.00034717 0)
(-0.000493907 0.000283628 0)
(-0.000523044 0.000216627 0)
(-0.000542949 0.000146878 0)
(-0.000553594 7.52418e-05 0)
(-0.000554447 2.99257e-06 0)
(-0.000544639 -6.88107e-05 0)
(-0.0005254 -0.000139081 0)
(-0.000496322 -0.000206542 0)
(-0.000457351 -0.000270024 0)
(-0.000409333 -0.00032818 0)
(-0.000352966 -0.00037999 0)
(-0.000288824 -0.000424158 0)
(-0.000217942 -0.0004598 0)
(-0.000142148 -0.000485916 0)
(-6.24651e-05 -0.000501722 0)
(1.95012e-05 -0.000506676 0)
(0.000101828 -0.000500383 0)
(0.000182773 -0.000482647 0)
(0.000260534 -0.00045372 0)
(0.000333184 -0.00041378 0)
(0.000398741 -0.000363648 0)
(0.000455478 -0.000304263 0)
(0.000501614 -0.000236828 0)
(0.000536005 -0.000162649 0)
(0.000557259 -8.36974e-05 0)
(0.000563962 -1.78791e-06 0)
(0.000555779 8.07024e-05 0)
(0.000532413 0.000161859 0)
(0.000494548 0.00023918 0)
(0.00044252 0.000310411 0)
(0.000377268 0.000373149 0)
(0.000300534 0.000425242 0)
(0.000214274 0.00046484 0)
(0.000120825 0.000490369 0)
(2.29265e-05 0.000500502 0)
(-7.63124e-05 0.000494191 0)
(-0.000173136 0.000471432 0)
(-0.000264551 0.000432467 0)
(-0.000347316 0.000378213 0)
(-0.000418023 0.000310105 0)
(-0.000474079 0.000230326 0)
(-0.000512453 0.000141357 0)
(-0.000531327 4.63034e-05 0)
(-0.000529358 -5.10394e-05 0)
(-0.000506286 -0.00014719 0)
(-0.000461853 -0.000238302 0)
(-0.000397973 -0.000320077 0)
(-0.000316774 -0.00038938 0)
(-0.000220543 -0.00044213 0)
(-0.000113389 -0.000475922 0)
(2.03137e-07 -0.000488827 0)
(0.000115245 -0.000479212 0)
(0.000225408 -0.000447843 0)
(0.000325712 -0.00039461 0)
(0.000411944 -0.000322647 0)
(0.000478374 -0.000234306 0)
(0.000521664 -0.000134412 0)
(0.000539355 -2.7665e-05 0)
(0.000529277 8.01786e-05 0)
(0.000491315 0.000183301 0)
(0.00042801 0.000276114 0)
(0.000341827 0.00035235 0)
(0.000237293 0.000408042 0)
(0.000121066 0.000438758 0)
(-1.42242e-06 0.000442321 0)
(-0.000121022 0.000417821 0)
(-0.000229469 0.000366786 0)
(-0.000320264 0.000292569 0)
(-0.000387043 0.000199439 0)
(-0.000424735 9.45548e-05 0)
(-0.000430063 -1.52155e-05 0)
(-0.000402951 -0.000121245 0)
(-0.000345088 -0.000216069 0)
(-0.000261367 -0.000291445 0)
(-0.000157954 -0.00034172 0)
(-4.22346e-05 -0.000361938 0)
(7.46212e-05 -0.000349829 0)
(0.000181207 -0.000306836 0)
(0.000269015 -0.000236795 0)
(0.000329839 -0.000145777 0)
(0.000357488 -4.22925e-05 0)
(0.000349241 6.3616e-05 0)
(0.000305768 0.000162035 0)
(0.00023127 0.000242431 0)
(0.000133173 0.000296835 0)
(1.91801e-05 0.00031909 0)
(-9.62121e-05 0.000305521 0)
(-0.000198228 0.000258537 0)
(-0.000277637 0.000183325 0)
(-0.000325083 8.79704e-05 0)
(-0.000334843 -1.62289e-05 0)
(-0.000305401 -0.000117157 0)
(-0.000240491 -0.000202884 0)
(-0.000147799 -0.000262694 0)
(-3.64123e-05 -0.000289283 0)
(7.76381e-05 -0.000277536 0)
(0.000177238 -0.000230871 0)
(0.000251234 -0.0001559 0)
(0.000290549 -6.22443e-05 0)
(0.000289979 3.63647e-05 0)
(0.000249973 0.000126495 0)
(0.000177341 0.000195461 0)
(8.26792e-05 0.000233614 0)
(-2.14766e-05 0.00023552 0)
(-0.000116615 0.000200709 0)
(-0.000186711 0.000137014 0)
(-0.000223902 5.52272e-05 0)
(-0.000223058 -3.103e-05 0)
(-0.000185711 -0.000108128 0)
(-0.00011973 -0.000163658 0)
(-3.49425e-05 -0.00018977 0)
(5.22513e-05 -0.000181678 0)
(0.000124569 -0.000144993 0)
(0.000172643 -8.77882e-05 0)
(0.000190595 -2.1693e-05 0)
(0.000177828 4.11093e-05 0)
(0.000139662 9.00504e-05 0)
(8.54994e-05 0.00011805 0)
(2.60898e-05 0.000122904 0)
(-2.71986e-05 0.000105523 0)
(-6.57112e-05 7.42428e-05 0)
(-8.58926e-05 3.57482e-05 0)
(-8.77161e-05 -2.36242e-06 0)
(-7.39073e-05 -3.46118e-05 0)
(-4.86881e-05 -5.74063e-05 0)
(-1.69601e-05 -6.91372e-05 0)
(1.8422e-05 -0.00117394 0)
(5.99995e-05 -0.00123731 0)
(0.00010121 -0.00124403 0)
(0.000142882 -0.0012515 0)
(0.000182161 -0.00125737 0)
(0.000223386 -0.00126612 0)
(0.000259302 -0.0012687 0)
(0.000290567 -0.0012724 0)
(0.000308237 -0.00126285 0)
(0.000307328 -0.00124402 0)
(0.000297047 -0.00120898 0)
(0.000276415 -0.00116976 0)
(0.00025136 -0.00112458 0)
(0.000222776 -0.001079 0)
(0.000192717 -0.0010328 0)
(0.00016361 -0.00098884 0)
(0.000134369 -0.000947703 0)
(0.000111407 -0.000909764 0)
(9.33257e-05 -0.000875345 0)
(7.8747e-05 -0.000847443 0)
(7.02232e-05 -0.000823904 0)
(6.84648e-05 -0.000805331 0)
(7.25114e-05 -0.000789352 0)
(8.46747e-05 -0.000778951 0)
(0.000103597 -0.000768114 0)
(0.000129954 -0.000761897 0)
(0.000162006 -0.000750137 0)
(0.000201281 -0.000742351 0)
(0.000245144 -0.000724248 0)
(0.000292105 -0.000708547 0)
(0.000340681 -0.000685563 0)
(0.000389442 -0.000661625 0)
(0.000440287 -0.000632875 0)
(0.000490707 -0.000601346 0)
(0.000541885 -0.000565718 0)
(0.000592781 -0.000526604 0)
(0.000642892 -0.000484157 0)
(0.000691672 -0.000438366 0)
(0.000739384 -0.000389578 0)
(0.000784876 -0.000337875 0)
(0.000827422 -0.000283443 0)
(0.000866297 -0.000226431 0)
(0.00090102 -0.000166967 0)
(0.000930677 -0.000105316 0)
(0.000955064 -4.17507e-05 0)
(0.000975115 2.40228e-05 0)
(0.000989923 9.12801e-05 0)
(0.000997902 0.000159398 0)
(0.000998893 0.000228287 0)
(0.000993071 0.000297081 0)
(0.00097994 0.00036566 0)
(0.000958354 0.000433239 0)
(0.000929505 0.000499483 0)
(0.000893196 0.000563469 0)
(0.000849281 0.000624785 0)
(0.0007977 0.000682481 0)
(0.000738533 0.000736049 0)
(0.000673017 0.000784581 0)
(0.000600572 0.00082753 0)
(0.00052273 0.000864139 0)
(0.000439861 0.000893804 0)
(0.000352127 0.00091576 0)
(0.000261194 0.000929667 0)
(0.000167786 0.000934859 0)
(7.26343e-05 0.000930931 0)
(-2.32332e-05 0.000917696 0)
(-0.000118387 0.000894867 0)
(-0.000211908 0.000862365 0)
(-0.000302402 0.00082027 0)
(-0.000388648 0.000768785 0)
(-0.000469532 0.000708196 0)
(-0.000543716 0.000639186 0)
(-0.000609811 0.000562115 0)
(-0.000666634 0.000477857 0)
(-0.000713435 0.00038748 0)
(-0.000749108 0.000291978 0)
(-0.000773217 0.000192739 0)
(-0.000784567 9.10239e-05 0)
(-0.000782327 -1.1551e-05 0)
(-0.000766526 -0.000113388 0)
(-0.00073751 -0.000213124 0)
(-0.00069513 -0.00030869 0)
(-0.000639685 -0.000398493 0)
(-0.000572051 -0.000480681 0)
(-0.000493128 -0.0005538 0)
(-0.000403927 -0.000615793 0)
(-0.000306121 -0.000665594 0)
(-0.000201206 -0.000701789 0)
(-9.13622e-05 -0.000723243 0)
(2.12107e-05 -0.000729346 0)
(0.000134425 -0.000719175 0)
(0.000245369 -0.000692935 0)
(0.00035182 -0.000650407 0)
(0.000451053 -0.000592668 0)
(0.000540435 -0.000520357 0)
(0.000617581 -0.000434788 0)
(0.000680647 -0.000337713 0)
(0.000727304 -0.000231264 0)
(0.000755718 -0.000118138 0)
(0.000764443 -1.02963e-06 0)
(0.00075294 0.00011716 0)
(0.000721234 0.000232936 0)
(0.000669365 0.000343357 0)
(0.000598255 0.000444825 0)
(0.000509223 0.000534017 0)
(0.000404529 0.000608209 0)
(0.000287156 0.000664165 0)
(0.000160248 0.000700076 0)
(2.67234e-05 0.000713764 0)
(-0.000108302 0.000704254 0)
(-0.00023987 0.000671344 0)
(-0.000363899 0.000615289 0)
(-0.000476117 0.000537403 0)
(-0.000571798 0.000440079 0)
(-0.000647243 0.000326112 0)
(-0.000699116 0.000199398 0)
(-0.000724159 6.39773e-05 0)
(-0.000720986 -7.46863e-05 0)
(-0.000689411 -0.00021149 0)
(-0.000629118 -0.000340513 0)
(-0.000542331 -0.000456503 0)
(-0.0004318 -0.000554437 0)
(-0.000301111 -0.000628681 0)
(-0.000156467 -0.000676253 0)
(-2.51259e-06 -0.000693814 0)
(0.000152331 -0.000679484 0)
(0.000300837 -0.000633409 0)
(0.000436344 -0.000557314 0)
(0.0005515 -0.000453922 0)
(0.000640528 -0.000328325 0)
(0.000697706 -0.000185845 0)
(0.000719706 -3.37688e-05 0)
(0.000704371 0.000119114 0)
(0.000652086 0.000265456 0)
(0.000564719 0.000396153 0)
(0.00044698 0.000503985 0)
(0.000305392 0.000581384 0)
(0.000147218 0.000623845 0)
(-1.84578e-05 0.000627371 0)
(-0.000179895 0.000591102 0)
(-0.000325141 0.000516859 0)
(-0.000446252 0.000409737 0)
(-0.000534023 0.000276249 0)
(-0.000582043 0.000125898 0)
(-0.000586368 -3.06903e-05 0)
(-0.000546487 -0.000181849 0)
(-0.000465502 -0.000316101 0)
(-0.000348877 -0.000422641 0)
(-0.000206194 -0.000492305 0)
(-4.72373e-05 -0.000519694 0)
(0.000112459 -0.000500296 0)
(0.000257375 -0.00043697 0)
(0.000375745 -0.000334918 0)
(0.000457049 -0.000203781 0)
(0.00049291 -5.51406e-05 0)
(0.000479788 9.64422e-05 0)
(0.000418478 0.000236203 0)
(0.000314918 0.000350357 0)
(0.000179964 0.000426554 0)
(2.39648e-05 0.000456796 0)
(-0.000133206 0.000435835 0)
(-0.00027141 0.000367183 0)
(-0.000378248 0.000258769 0)
(-0.00044132 0.000122296 0)
(-0.000452722 -2.64217e-05 0)
(-0.000411276 -0.00017002 0)
(-0.000321947 -0.000291066 0)
(-0.000195381 -0.000374784 0)
(-4.40997e-05 -0.000410826 0)
(0.000109849 -0.000392436 0)
(0.000242643 -0.000324704 0)
(0.000340781 -0.000216243 0)
(0.000391309 -8.30034e-05 0)
(0.000387335 5.70894e-05 0)
(0.000330962 0.000184293 0)
(0.000230985 0.000280456 0)
(0.000102099 0.000332208 0)
(-3.83463e-05 0.000332621 0)
(-0.000165132 0.000281138 0)
(-0.000257161 0.000189448 0)
(-0.000303965 7.27952e-05 0)
(-0.000299675 -4.90085e-05 0)
(-0.000246955 -0.000156556 0)
(-0.000156666 -0.000232803 0)
(-4.24792e-05 -0.000266824 0)
(7.29756e-05 -0.000252681 0)
(0.000166658 -0.000198513 0)
(0.00022679 -0.000116665 0)
(0.000246196 -2.35714e-05 0)
(0.000225235 6.33391e-05 0)
(0.000171532 0.000129579 0)
(9.8526e-05 0.0001658 0)
(2.02373e-05 0.000169379 0)
(-4.74795e-05 0.000142582 0)
(-9.39178e-05 9.76465e-05 0)
(-0.000116204 4.40772e-05 0)
(-0.00011491 -7.59898e-06 0)
(-9.48349e-05 -5.02249e-05 0)
(-6.16586e-05 -7.97239e-05 0)
(-2.13131e-05 -9.44333e-05 0)
(2.92741e-06 -0.000557697 0)
(1.66853e-05 -0.000573189 0)
(2.98572e-05 -0.000555554 0)
(6.25239e-05 -0.000528091 0)
(0.000100244 -0.000479018 0)
(0.000171606 -0.000417356 0)
(0.000249939 -0.000302306 0)
(0.000357149 -0.000178887 0)
(0.000463267 2.8049e-05 0)
(0.000552495 0.000186127 0)
(0.000642358 0.000314865 0)
(0.000702072 0.000391633 0)
(0.000748617 0.000444371 0)
(0.000772176 0.00047051 0)
(0.000783888 0.00047602 0)
(0.000781062 0.000461874 0)
(0.000772694 0.000429653 0)
(0.000758893 0.000382535 0)
(0.000739171 0.000321974 0)
(0.000717842 0.000249871 0)
(0.000693832 0.000169404 0)
(0.000676067 7.27502e-05 0)
(0.000661077 -2.54047e-05 0)
(0.000663691 -0.000131119 0)