/*--------------------------------*- C++ -*----------------------------------*\
  =========                 |
  \\      /  F ield         | OpenFOAM: The Open Source CFD Toolbox
   \\    /   O peration     | Website:  https://openfoam.org
    \\  /    A nd           | Version:  12
     \\/     M anipulation  |
\*---------------------------------------------------------------------------*/
FoamFile
{
    format      ascii;
    class       volVectorField;
    location    "17";
    object      zeta;
}
// * * * * * * * * * * * * * * * * * * * * * * * * * * * * * * * * * * * * * //

dimensions      [0 1 0 0 0 0 0];

internalField   uniform (0 0 0);

boundaryField
{
    freeSurface
    {
        type            calculated;
        value           nonuniform List<vector> 
181
(
(0 0.00613054 0)
(0 0.00613027 0)
(0 0.00612961 0)
(0 0.00612855 0)
(0 0.00612772 0)
(0 0.00612631 0)
(0 0.00612631 0)
(0 0.00612432 0)
(0 0.000782812 0)
(0 0.000790304 0)
(0 0.000806822 0)
(0 0.000829748 0)
(0 0.000856672 0)
(0 0.000890781 0)
(0 0.000927978 0)
(0 0.000969426 0)
(0 0.00101281 0)
(0 0.00105844 0)
(0 0.00110421 0)
(0 0.00114955 0)
(0 0.00119264 0)
(0 0.00123278 0)
(0 0.00126886 0)
(0 0.00130032 0)
(0 0.00132645 0)
(0 0.00134649 0)
(0 0.00135954 0)
(0 0.00136484 0)
(0 0.00136171 0)
(0 0.00134965 0)
(0 0.00132836 0)
(0 0.00129755 0)
(0 0.0012571 0)
(0 0.00120674 0)
(0 0.00114652 0)
(0 0.00107656 0)
(0 0.000997184 0)
(0 0.00090884 0)
(0 0.000812155 0)
(0 0.000707721 0)
(0 0.000596282 0)
(0 0.000478646 0)
(0 0.000355787 0)
(0 0.000228904 0)
(0 9.92633e-05 0)
(0 -3.17678e-05 0)
(0 -0.000162766 0)
(0 -0.000292273 0)
(0 -0.00041857 0)
(0 -0.000540004 0)
(0 -0.000654803 0)
(0 -0.000761207 0)
(0 -0.000857536 0)
(0 -0.000942133 0)
(0 -0.0010136 0)
(0 -0.00107063 0)
(0 -0.00111182 0)
(0 -0.00113611 0)
(0 -0.0011427 0)
(0 -0.00113109 0)
(0 -0.00110095 0)
(0 -0.00105222 0)
(0 -0.000985149 0)
(0 -0.000900459 0)
(0 -0.000799081 0)
(0 -0.000682484 0)
(0 -0.000552431 0)
(0 -0.000410846 0)
(0 -0.00026053 0)
(0 -0.000104249 0)
(0 5.48951e-05 0)
(0 0.000213734 0)
(0 0.000368778 0)
(0 0.00051652 0)
(0 0.000653417 0)
(0 0.000776105 0)
(0 0.000881306 0)
(0 0.000965815 0)
(0 0.00102698 0)
(0 0.00106239 0)
(0 0.00107057 0)
(0 0.00105047 0)
(0 0.00100194 0)
(0 0.000925539 0)
(0 0.000822591 0)
(0 0.000695418 0)
(0 0.00054703 0)
(0 0.00038141 0)
(0 0.000203222 0)
(0 1.77235e-05 0)
(0 -0.000169322 0)
(0 -0.000351692 0)
(0 -0.000523082 0)
(0 -0.000677501 0)
(0 -0.000808821 0)
(0 -0.000911961 0)
(0 -0.000982164 0)
(0 -0.00101617 0)
(0 -0.00101151 0)
(0 -0.000967542 0)
(0 -0.000885233 0)
(0 -0.000767089 0)
(0 -0.000617076 0)
(0 -0.000441383 0)
(0 -0.000247236 0)
(0 -4.33466e-05 0)
(0 0.00016103 0)
(0 0.00035666 0)
(0 0.000533444 0)
(0 0.000682119 0)
(0 0.000794727 0)
(0 0.000864275 0)
(0 0.000886378 0)
(0 0.000858854 0)
(0 0.00078206 0)
(0 0.000659694 0)
(0 0.000498041 0)
(0 0.000306119 0)
(0 9.54457e-05 0)
(0 -0.000120219 0)
(0 -0.000327601 0)
(0 -0.000512424 0)
(0 -0.000660941 0)
(0 -0.000761589 0)
(0 -0.000806084 0)
(0 -0.000789794 0)
(0 -0.000713112 0)
(0 -0.000580949 0)
(0 -0.000403385 0)
(0 -0.000194559 0)
(0 2.75714e-05 0)
(0 0.000244291 0)
(0 0.000436939 0)
(0 0.000587002 0)
(0 0.000679979 0)
(0 0.000705648 0)
(0 0.000661019 0)
(0 0.000549684 0)
(0 0.000382376 0)
(0 0.000176361 0)
(0 -4.61657e-05 0)
(0 -0.000261615 0)
(0 -0.000447269 0)
(0 -0.000581134 0)
(0 -0.00064713 0)
(0 -0.000636643 0)
(0 -0.00055047 0)
(0 -0.000398762 0)
(0 -0.000200367 0)
(0 1.88642e-05 0)
(0 0.000230597 0)
(0 0.000408503 0)
(0 0.000527436 0)
(0 0.000570843 0)
(0 0.000532476 0)
(0 0.00041829 0)
(0 0.000245854 0)
(0 4.2116e-05 0)
(0 -0.000160058 0)
(0 -0.000331421 0)
(0 -0.000443688 0)
(0 -0.00047855 0)
(0 -0.000430984 0)
(0 -0.000310878 0)
(0 -0.000141593 0)
(0 4.37467e-05 0)
(0 0.00020934 0)
(0 0.000324528 0)
(0 0.000365346 0)
(0 0.000323304 0)
(0 0.000208149 0)
(0 4.5593e-05 0)
(0 -0.000127588 0)
(0 -0.000270827 0)
(0 -0.000351202 0)
(0 -0.000345372 0)
(0 -0.000253037 0)
(0 -9.59901e-05 0)
(0 8.74285e-05 0)
(0 0.00024949 0)
(0 0.000345219 0)
)
;
    }
    walls
    {
        type            calculated;
        value           uniform (0 0 0);
    }
    floatingObject
    {
        type            calculated;
        value           uniform (0 0 0);
    }
    frontAndBack
    {
        type            empty;
    }
}


// ************************************************************************* //
