/*--------------------------------*- C++ -*----------------------------------*\
  =========                 |
  \\      /  F ield         | OpenFOAM: The Open Source CFD Toolbox
   \\    /   O peration     | Website:  https://openfoam.org
    \\  /    A nd           | Version:  12
     \\/     M anipulation  |
\*---------------------------------------------------------------------------*/
FoamFile
{
    format      ascii;
    class       volScalarField;
    location    "150";
    object      p;
}
// * * * * * * * * * * * * * * * * * * * * * * * * * * * * * * * * * * * * * //

dimensions      [0 2 -2 0 0 0 0];

internalField   nonuniform List<scalar> 
10720
(
-77.6962
-150.883
-237.298
-322.036
-400.085
-479.746
-550.134
-609.095
-660.377
-700.401
-731.091
-753.74
-769.04
-778.178
-781.661
-779.064
-771.261
-756.911
-737.147
-710.6
-678.296
-639.439
-596.243
-549.612
-503.024
-461.523
-424.116
-387.251
-350.653
-314.544
-278.748
-243.13
-207.585
-171.891
-135.799
-98.2196
-58.8105
-11.7024
35.4743
-3.86065
63.169
135.163
202.626
260.459
304.625
331.491
341.285
339.672
327.639
307.23
283.812
260.13
237.2
215.712
195.483
176.58
158.583
141.234
124.031
106.927
89.6017
72.1496
54.9738
39.9862
28.2592
18.727
10.9972
5.07276
1.00877
-1.29278
-1.93862
-1.00987
1.49567
5.5873
11.6817
20.328
35.2573
60.3487
31.4579
-24.2218
-86.4833
-152.521
-220.279
-289.575
-356.78
-419.796
-477.981
-529.559
-574.194
-611.836
-642.55
-666.43
-683.391
-693.107
-696.17
-692.158
-681.611
-663.919
-639.629
-608.472
-572.112
-531.685
-490.252
-452.094
-416.763
-381.498
-346.131
-310.982
-275.961
-240.97
-205.932
-170.642
-134.863
-97.5234
-58.2986
-11.2766
35.1398
81.6037
129.52
177.431
223.843
264.916
298.032
320.211
330.435
330.026
320.24
303.804
284.019
262.923
241.618
220.861
200.888
181.841
163.557
145.854
128.406
111.119
93.7806
76.4771
59.6198
44.696
32.6243
22.6725
14.51
8.15882
3.673
0.981246
-0.016109
0.597812
2.82449
6.6831
12.5942
21.0974
35.9385
60.0137
47.1246
-2.69675
-58.6508
-120.292
-184.123
-249.476
-314.756
-377.287
-435.503
-488.401
-534.741
-574.198
-606.601
-631.848
-650.105
-661.557
-666.451
-664.598
-656.185
-640.975
-619.265
-591.107
-557.751
-520.47
-481.799
-445.247
-410.931
-376.713
-342.28
-307.909
-273.542
-239.087
-204.479
-169.532
-134.019
-96.89
-57.837
-11.0029
34.8997
92.1264
135.966
179.648
221.176
257.214
286.152
305.977
316.14
317.307
310.335
297.199
280.16
261.018
241.032
221.072
201.581
182.772
164.629
147.024
129.723
112.598
95.5067
78.5152
61.9986
47.1357
34.8258
24.6533
16.3015
9.77109
5.10706
2.24706
1.0918
1.5601
3.65478
7.40339
13.2276
21.6645
36.383
59.4793
70.5887
28.6517
-19.1406
-71.66
-126.745
-184.332
-242.759
-300.212
-355.366
-407.08
-454.214
-496.092
-532.227
-562.309
-586.097
-603.602
-614.601
-618.803
-616.148
-606.511
-590.058
-566.992
-538.322
-505.364
-470.308
-436.151
-403.48
-370.724
-337.514
-304.131
-270.583
-236.8
-202.737
-168.225
-133.055
-96.2025
-57.3854
-10.8638
34.5197
108.18
144.37
180.709
215.874
246.787
272.203
290.323
300.497
302.993
298.347
288.072
273.86
257.176
239.171
220.687
202.228
184.082
166.353
149
131.885
114.917
98.0175
81.2604
64.9977
50.1977
37.7075
27.3191
18.7408
11.9665
7.04616
3.92956
2.52928
2.77347
4.67036
8.25504
13.9482
22.2746
36.7951
58.9181
78.0237
40.763
-1.91076
-49.1079
-98.7488
-151.24
-205.187
-258.959
-311.537
-361.766
-408.5
-450.941
-488.417
-520.39
-546.465
-566.41
-579.853
-586.67
-586.72
-579.985
-566.571
-546.755
-521.362
-491.639
-459.472
-427.361
-396.113
-364.627
-332.523
-300.072
-267.329
-234.234
-200.751
-166.722
-131.946
-95.4293
-56.9158
-10.8108
33.9013
111.51
143.576
175.863
207.115
234.619
257.526
274.405
284.573
288.09
285.386
277.581
265.953
251.644
235.643
218.737
201.451
184.134
166.976
150.026
133.232
116.543
99.9331
83.4861
67.531
52.871
40.2811
29.7174
20.9466
13.9646
8.8248
5.49058
3.88465
3.94109
5.66964
9.11072
14.6831
22.8944
37.1873
58.3213
82.574
49.5388
11.5022
-30.5542
-74.8103
-121.973
-170.751
-219.842
-268.5
-315.669
-360.369
-401.831
-439.314
-472.177
-499.916
-522.128
-538.428
-548.576
-552.294
-549.427
-539.972
-524.158
-502.654
-476.596
-447.627
-417.859
-388.258
-358.163
-327.252
-295.792
-263.885
-231.501
-198.618
-165.095
-130.743
-94.6031
-56.4504
-10.8723
33.0519
112.264
140.582
169.291
197.275
222.032
242.937
258.813
268.92
273.191
272.031
266.271
256.901
244.812
230.817
215.614
199.699
183.435
167.065
150.701
134.367
118.062
101.804
85.6961
70.0519
55.5542
42.9075
32.1942
23.2495
16.071
10.7149
7.15892
5.33634
5.18914
6.73216
10.0126
15.4467
23.5221
37.5421
57.6713
83.2402
53.4382
19.0289
-19.0436
-59.0291
-101.87
-146.409
-191.511
-236.672
-280.949
-323.494
-363.611
-400.54
-433.6
-462.213
-485.862
-504.066
-516.431
-522.622
-522.442
-515.876
-503.137
-484.79
-461.845
-435.714
-408.157
-380.186
-351.476
-321.775
-291.327
-260.278
-228.626
-196.363
-163.367
-129.466
-93.7374
-56.0012
-11.0591
31.9855
110.054
135.547
161.524
186.95
209.532
228.826
243.854
253.837
258.656
258.703
254.613
247.169
237.071
224.973
211.466
196.989
181.892
166.44
150.794
135.033
119.206
103.371
87.6528
72.3511
58.0593
45.4192
34.6034
25.5164
18.1637
12.6064
8.83779
6.80456
6.45713
7.8158
10.9339
16.2225
24.1471
37.8509
56.9742
82.1331
55.0716
23.7586
-10.8605
-47.124
-86.1025
-126.733
-168.025
-209.649
-250.801
-290.744
-328.898
-364.557
-397.054
-425.78
-450.166
-469.656
-483.82
-492.28
-494.747
-491.109
-481.496
-466.348
-446.525
-423.241
-397.971
-371.73
-344.47
-316.032
-286.647
-256.495
-225.607
-193.993
-161.548
-128.122
-92.8378
-55.5689
-11.3633
30.7154
106.517
129.649
153.348
176.653
197.433
215.384
229.662
239.468
244.676
245.651
242.907
237.077
228.721
218.361
206.484
193.457
179.6
165.174
150.363
135.284
120.029
104.691
89.4116
74.4835
60.4366
47.8572
36.9809
27.7796
20.273
14.5282
10.5549
8.31411
7.76538
8.93536
11.8838
17.0148
24.7695
38.113
56.2352
79.7387
54.9602
26.2525
-5.46089
-38.5765
-74.2316
-111.462
-149.372
-187.779
-225.977
-263.351
-299.426
-333.563
-365.137
-393.553
-418.215
-438.531
-454.012
-464.219
-468.792
-467.548
-460.573
-448.213
-431.194
-410.544
-387.487
-362.985
-337.192
-310.04
-281.751
-252.532
-222.443
-191.509
-159.645
-126.721
-91.9112
-55.1505
-11.77
29.2649
102.1
123.278
145.081
166.608
185.861
202.676
216.277
225.868
231.34
233.025
231.357
226.866
220.009
211.203
200.844
189.229
176.631
163.294
149.399
135.09
120.487
105.713
90.9237
76.4072
62.6467
50.1827
39.293
30.0111
22.3755
16.4616
12.295
9.8526
9.1044
10.0838
12.8572
17.8196
25.3856
38.3272
55.455
76.615
53.7935
27.3325
-1.86288
-32.2522
-64.9976
-99.2021
-134.059
-169.486
-204.862
-239.683
-273.567
-305.946
-336.272
-363.98
-388.471
-409.158
-425.511
-437.068
-443.434
-444.335
-439.787
-430.032
-415.664
-397.538
-376.664
-353.928
-329.631
-303.794
-276.636
-248.383
-219.126
-188.905
-157.655
-125.265
-90.9635
-54.7467
-12.2687
27.6663
97.2463
116.76
136.944
156.947
174.89
190.714
203.698
213.047
218.682
220.906
220.096
216.705
211.121
203.683
194.709
184.432
173.076
160.852
147.929
134.459
120.579
106.43
92.1816
78.116
64.6835
52.3875
41.5322
32.2048
24.467
18.4033
14.0561
11.4191
10.4738
11.2608
13.8533
18.6354
25.9933
38.4933
54.6355
73.0525
51.922
27.4103
0.402169
-27.6117
-57.8084
-89.3428
-121.48
-154.199
-186.96
-219.35
-251.074
-281.632
-310.545
-337.3
-361.331
-382.058
-398.944
-411.487
-419.285
-421.978
-419.522
-412.08
-400.118
-384.341
-365.567
-344.592
-321.803
-297.301
-271.303
-244.048
-215.654
-186.18
-155.575
-123.754
-89.9982
-54.3615
-12.8537
25.9441
92.188
110.269
129.053
147.733
164.534
179.48
191.89
200.984
206.705
209.333
209.201
206.712
202.203
195.953
188.222
179.188
169.026
157.908
145.986
133.401
120.299
106.83
93.1694
79.5936
66.5308
54.4536
43.6813
34.346
26.5348
20.3435
15.8308
13.0082
11.8698
12.4634
14.8699
19.4599
26.5901
38.6117
53.7801
69.2624
49.6148
26.8164
1.73256
-24.1961
-52.1398
-81.2983
-110.994
-141.255
-171.603
-201.698
-231.319
-260.034
-287.437
-313.066
-336.399
-356.884
-373.994
-387.206
-396.121
-400.318
-399.689
-394.319
-384.561
-370.977
-354.224
-334.993
-313.72
-290.566
-265.752
-239.525
-212.026
-183.33
-153.405
-122.186
-89.0168
-53.9993
-13.5231
24.1141
87.0909
103.922
121.479
138.992
154.786
168.943
180.815
189.647
195.392
198.317
198.722
196.97
193.361
188.135
181.506
173.606
164.569
154.529
143.609
131.937
119.654
106.909
93.8784
80.8311
68.1782
56.3682
45.7269
36.4229
28.5692
22.2741
17.613
14.6151
13.2889
13.689
15.9046
20.2906
27.1737
38.6833
52.8917
65.3842
47.0451
25.7662
2.38791
-21.6946
-47.6362
-74.6755
-102.178
-130.214
-158.355
-186.314
-213.932
-240.84
-266.697
-291.101
-313.577
-333.614
-350.701
-364.316
-374.061
-379.486
-380.41
-376.857
-369.08
-357.517
-342.682
-325.161
-305.396
-283.598
-259.988
-234.816
-208.24
-180.354
-151.142
-120.562
-88.02
-53.6633
-14.2736
22.1851
82.0528
97.7851
114.25
130.723
145.62
159.061
170.426
178.992
184.716
187.854
188.681
187.529
184.674
180.324
174.661
167.785
159.791
150.78
140.846
130.095
118.654
106.667
94.3018
81.8197
69.6154
58.118
47.6547
38.4223
30.5584
24.1855
19.395
16.2342
14.7267
14.9344
16.9545
21.1251
27.7417
38.7091
51.9741
61.5096
44.337
24.4169
2.56314
-19.8723
-44.0235
-69.1643
-94.6927
-120.713
-146.836
-172.815
-198.544
-223.709
-248.026
-271.153
-292.667
-312.094
-328.958
-342.749
-353.067
-359.468
-361.698
-359.725
-353.72
-344.01
-330.984
-315.122
-296.851
-276.408
-254.016
-229.921
-204.297
-177.251
-148.786
-118.881
-87.0081
-53.3564
-15.1011
20.1652
77.1422
91.8937
107.385
122.92
137.011
149.793
160.679
168.979
174.647
177.933
179.09
178.425
176.197
172.595
167.774
161.81
154.772
146.729
137.748
127.908
117.319
106.11
94.4395
82.5543
70.8342
59.692
49.4522
40.3318
32.4913
26.068
21.1689
17.8593
16.1785
16.1957
18.0165
21.9605
28.2919
38.6913
51.0307
57.6996
41.5764
22.8795
2.39836
-18.5593
-41.1021
-64.5305
-88.279
-112.468
-136.743
-160.896
-184.859
-208.366
-231.183
-253.019
-273.504
-292.209
-308.694
-322.476
-333.152
-340.299
-343.602
-342.985
-338.544
-330.515
-319.177
-304.911
-288.105
-269.009
-247.842
-224.843
-200.197
-174.021
-146.337
-117.144
-85.9813
-53.0787
-16.0018
18.0637
72.4007
86.27
100.88
115.566
128.924
141.098
151.532
159.566
165.151
168.533
169.945
169.675
167.97
165.003
160.912
155.758
149.586
142.441
134.365
125.412
115.67
105.251
94.2951
83.0328
71.8283
61.0804
51.1068
42.1388
34.3563
27.9114
22.9261
19.4835
17.6389
17.4687
19.0872
22.7939
28.8221
38.6316
50.0657
53.995
38.8237
21.2348
1.99742
-17.627
-38.7137
-60.5923
-82.7285
-105.253
-127.838
-150.311
-172.631
-194.57
-215.942
-236.501
-255.925
-273.832
-289.82
-303.439
-314.288
-321.977
-326.145
-326.673
-323.599
-317.081
-307.307
-294.562
-279.184
-261.419
-241.477
-219.589
-195.942
-170.665
-143.794
-115.349
-84.9394
-52.8305
-16.9688
15.8895
67.8527
80.9236
94.7319
108.643
121.328
132.937
142.943
150.713
156.198
159.634
161.242
161.292
160.02
157.591
154.13
149.688
144.295
137.975
130.748
122.647
113.736
104.104
93.8748
83.2558
72.595
62.2758
52.6083
43.8317
36.142
29.7051
24.6577
21.0994
19.1018
18.7486
20.1623
23.622
29.3302
38.5327
49.0834
50.424
36.1189
19.5398
1.4366
-16.9781
-36.7409
-57.2127
-77.8815
-98.8881
-119.93
-140.856
-161.649
-182.118
-202.11
-221.425
-239.783
-256.845
-272.251
-285.584
-296.456
-304.505
-309.349
-310.829
-308.935
-303.762
-295.422
-284.112
-270.115
-253.655
-234.933
-214.165
-191.536
-167.183
-141.158
-113.498
-83.8828
-52.6102
-17.9953
13.6519
63.5114
75.8561
88.9298
102.129
114.194
125.275
134.874
142.385
147.753
151.211
152.967
153.273
152.362
150.389
147.471
143.653
138.954
133.385
126.947
119.654
111.547
102.692
93.1909
83.2281
73.1326
63.2724
53.9474
45.3995
37.8371
31.4387
26.3542
22.699
20.5606
20.0303
21.2377
24.4416
29.8144
38.3975
48.0881
47.0029
33.4908
17.8395
0.772054
-16.5362
-35.093
-54.2794
-73.6107
-93.2297
-112.857
-132.359
-151.74
-170.834
-189.522
-207.637
-224.939
-241.135
-255.897
-268.849
-279.619
-287.872
-293.226
-295.481
-294.593
-290.605
-283.568
-273.601
-260.926
-245.74
-228.225
-208.579
-186.984
-163.58
-138.43
-111.592
-82.8103
-52.4165
-19.073
11.3631
59.3832
71.0624
83.4598
96.0011
107.491
118.077
127.29
134.545
139.788
143.243
145.106
145.619
145.007
143.42
140.969
137.695
133.612
128.721
123.01
116.474
109.135
101.038
92.2581
82.9575
73.4432
64.067
55.1164
46.8324
39.431
33.1015
28.0058
24.2738
22.0082
21.3078
22.3086
25.2492
30.2728
38.229
47.0851
43.7407
30.9591
16.1613
0.048838
-16.2472
-33.6965
-51.7063
-69.8114
-88.1612
-106.489
-124.682
-142.755
-160.568
-178.026
-194.995
-211.267
-226.59
-240.672
-253.171
-263.742
-272.066
-277.781
-280.653
-280.609
-277.654
-271.789
-263.068
-251.649
-237.697
-221.368
-202.844
-182.294
-159.858
-135.612
-109.63
-81.722
-52.2468
-20.193
9.03458
55.4692
66.5348
78.3064
90.2381
101.191
111.313
120.157
127.162
132.271
135.703
137.643
138.322
137.958
136.697
134.647
131.847
128.309
124.026
118.977
113.146
106.533
99.1647
91.0928
82.4538
73.5316
64.6589
56.1102
48.1218
40.9136
34.6832
29.6027
25.815
23.4369
22.5749
23.3699
26.0411
30.7042
38.0307
46.0793
40.6426
28.5369
14.528
-0.702928
-16.0659
-32.4973
-49.424
-66.4047
-83.5877
-100.722
-117.706
-134.569
-151.188
-167.492
-183.371
-198.649
-213.108
-226.49
-238.487
-248.781
-257.067
-263.014
-266.362
-267.013
-264.947
-260.128
-252.551
-242.317
-229.551
-214.383
-196.972
-177.472
-156.022
-132.706
-107.614
-80.6166
-52.098
-21.3457
6.67871
51.7667
62.2649
73.455
84.8195
95.2692
104.951
113.445
120.206
125.177
128.57
130.563
131.373
131.213
130.229
128.523
126.136
123.077
119.337
114.89
109.706
103.775
97.1011
89.7161
81.7312
73.4044
65.0491
56.925
49.2604
42.2757
36.1737
31.1349
27.3135
24.8387
23.8251
24.4163
26.8137
31.107
37.8058
45.0755
37.7093
26.2311
12.9554
-1.45817
-15.9595
-31.4502
-47.3788
-63.3234
-79.4317
-95.4657
-111.336
-127.079
-142.59
-157.813
-172.661
-186.986
-200.599
-213.273
-224.733
-234.689
-242.85
-248.919
-252.618
-253.832
-252.523
-248.625
-242.09
-232.964
-221.33
-207.29
-190.977
-172.529
-152.079
-129.716
-105.544
-79.4927
-51.9655
-22.5208
4.30888
48.2723
58.2421
68.89
79.7239
89.7012
98.9675
107.127
113.651
118.48
121.823
123.847
124.761
124.772
124.021
122.611
120.581
117.944
114.687
110.781
106.19
100.891
94.8744
88.1501
80.8046
73.0708
65.2413
57.5592
50.2429
43.5093
37.5637
32.5928
28.7599
26.2054
25.0511
25.442
27.5633
31.4801
37.5579
44.0788
34.9399
24.0463
11.453
-2.19956
-15.9015
-30.5209
-45.5255
-60.5135
-75.6277
-90.6468
-105.488
-120.196
-134.676
-148.889
-162.767
-176.183
-188.975
-200.945
-211.848
-221.421
-229.387
-235.485
-239.427
-241.084
-240.409
-237.316
-231.722
-223.623
-213.062
-200.112
-184.877
-167.477
-148.036
-126.646
-103.423
-78.3488
-51.8446
-23.707
1.93925
44.9789
54.4559
64.5959
74.932
84.4644
93.3379
101.178
107.47
112.158
115.441
117.481
118.475
118.627
118.074
116.917
115.199
112.93
110.102
106.681
102.63
97.914
92.512
86.4166
79.691
72.5425
65.2415
58.0138
51.0654
44.6074
38.8444
33.9668
30.145
27.5283
26.2454
26.4413
28.2859
31.8225
37.2904
43.0943
32.3313
21.9834
10.0284
-2.9137
-15.8736
-29.6819
-43.8298
-57.931
-72.1268
-86.2053
-100.095
-113.842
-127.366
-140.636
-153.603
-166.155
-178.157
-189.436
-199.773
-208.931
-216.65
-222.698
-226.788
-228.787
-228.633
-226.236
-221.481
-214.327
-204.776
-192.871
-178.69
-162.329
-143.901
-123.501
-101.252
-77.1829
-51.7296
-24.8941
-0.416997
41.8791
50.8961
60.5593
70.4262
79.5392
88.0399
95.5734
101.641
106.186
109.404
111.447
112.503
112.771
112.387
111.447
109.998
108.053
105.603
102.616
99.0518
94.8709
90.0407
84.5393
78.4094
71.8329
65.0575
58.2913
51.7261
45.5646
40.0081
35.2481
31.4595
28.7988
27.4006
27.4081
28.9778
32.1336
37.0066
42.1268
29.879
20.0426
8.68557
-3.59156
-15.8589
-28.912
-42.2625
-55.5405
-68.8835
-82.0921
-95.0991
-107.956
-120.59
-132.981
-145.091
-156.829
-168.075
-178.68
-188.449
-197.171
-204.604
-210.537
-214.699
-216.947
-217.215
-215.411
-211.401
-205.109
-196.504
-185.595
-172.435
-157.099
-139.685
-120.286
-99.0315
-75.9931
-51.6136
-26.0699
-2.74521
38.9658
47.5505
56.7656
66.1905
74.9065
83.0521
90.292
96.1421
100.546
103.694
105.729
106.831
107.196
106.954
106.202
104.987
103.325
101.209
98.6081
95.4822
91.7882
87.4859
82.5417
76.9792
70.9566
64.6989
58.3959
52.2248
46.3771
41.0481
36.4283
32.6947
30.0082
28.5086
28.3363
29.6351
32.4124
36.7095
41.1806
27.5775
18.222
7.42678
-4.22678
-15.8458
-28.1937
-40.8001
-53.3117
-65.8627
-78.263
-90.4513
-102.481
-114.288
-125.86
-137.168
-148.136
-158.663
-168.616
-177.825
-186.099
-193.217
-198.986
-203.153
-205.57
-206.173
-204.868
-201.512
-196.001
-188.272
-178.308
-166.134
-151.804
-135.398
-117.008
-96.7653
-74.7762
-51.49
-27.2229
-5.03149
36.2308
44.4093
53.2012
62.2078
70.5474
78.3551
85.3142
90.9544
95.2193
98.2928
100.312
101.449
101.893
101.772
101.181
100.17
98.7551
96.9324
94.6746
91.9417
88.6892
84.8713
80.4456
75.4199
69.9293
64.177
58.3344
52.5632
47.0424
41.9593
37.5
33.8419
31.1483
29.5619
29.2197
30.254
32.6586
36.4018
40.2598
25.4214
16.5191
6.25242
-4.8151
-15.8265
-27.514
-39.425
-51.2217
-63.0348
-74.6829
-86.1107
-97.3711
-108.408
-119.217
-129.775
-140.018
-149.861
-159.188
-167.849
-175.671
-182.455
-188.021
-192.139
-194.66
-195.519
-194.629
-191.842
-187.031
-180.11
-171.036
-159.809
-146.459
-131.053
-113.674
-94.4542
-73.5309
-51.3502
-28.3412
-7.26185
33.6661
41.4613
49.8533
58.4631
66.4457
73.9316
80.621
86.0585
90.1869
93.1843
95.1814
96.3424
96.8512
96.8334
96.382
95.5469
94.3485
92.7843
90.8305
88.4487
85.5944
82.2184
78.2722
73.7501
68.767
63.5039
58.1145
52.7446
47.5598
42.7371
38.4568
34.8935
32.2108
30.5529
30.0521
30.8307
32.8713
36.0861
39.3679
23.405
14.9295
5.16226
-5.35356
-15.7939
-26.8618
-38.1217
-49.2502
-60.3746
-71.3215
-82.0414
-92.5864
-102.907
-113.003
-122.86
-132.423
-141.618
-150.347
-158.474
-165.848
-172.285
-177.618
-181.645
-184.212
-185.261
-184.711
-182.413
-178.227
-172.047
-163.805
-153.481
-141.084
-126.662
-110.291
-92.1028
-72.2536
-51.1872
-29.4147
-9.42279
31.2633
38.6965
46.7097
54.9434
62.5861
69.7655
76.1961
81.4375
85.4322
88.3524
90.3225
91.4993
92.0612
92.1311
91.8001
91.1186
90.1094
88.7726
87.0874
85.0182
82.5215
79.5471
76.0419
71.9899
67.4867
62.693
57.7452
52.774
47.9301
43.3793
39.2933
35.8425
33.1881
31.4743
30.8278
31.3617
33.0502
35.7642
38.5077
21.5217
13.4503
4.15407
-5.84033
-15.7439
-26.2291
-36.8778
-47.3816
-57.8617
-68.1546
-78.2145
-88.0937
-97.7465
-107.179
-116.379
-125.302
-133.886
-142.044
-149.657
-156.589
-162.674
-167.755
-171.655
-174.223
-175.404
-175.128
-173.248
-169.615
-164.107
-156.641
-147.174
-135.696
-122.239
-106.869
-89.7124
-70.9426
-50.9938
-30.4313
-11.5015
29.0142
36.105
43.7593
51.6352
58.9543
65.8413
72.0234
77.0754
80.9395
83.7823
85.722
86.9078
87.5135
87.6579
87.4307
86.883
86.0391
84.902
83.4541
81.6625
79.4859
76.875
73.7733
70.1568
66.1043
61.7577
57.237
52.6575
48.1556
43.8842
40.0055
36.6826
34.0732
32.3191
31.5409
31.8433
33.1946
35.4377
37.6814
19.7654
12.0764
3.2262
-6.27541
-15.6729
-25.6101
-35.6841
-45.6015
-55.4788
-65.1606
-74.6037
-83.8619
-92.8928
-101.704
-110.292
-118.616
-126.624
-134.24
-141.359
-147.858
-153.59
-158.407
-162.154
-164.685
-165.95
-165.889
-164.362
-161.215
-156.317
-149.569
-140.91
-130.314
-117.797
-103.415
-87.2871
-69.5953
-50.7599
-31.3812
-13.4852
26.9112
33.6771
40.9906
48.5259
55.5367
62.1442
68.0881
72.9572
76.6942
79.4597
81.3662
82.5557
83.1969
83.4052
83.2674
82.8362
82.1371
81.1753
79.9366
78.3913
76.501
74.217
71.4825
68.2674
64.6357
60.7118
56.6006
52.4028
48.2403
44.2525
40.5905
37.4093
34.86
33.0812
32.1863
32.2722
33.3041
35.1077
36.8905
18.1299
10.8033
2.37604
-6.65936
-15.5791
-24.9988
-34.5323
-43.8987
-53.2107
-62.3202
-71.1876
-79.8655
-88.3159
-96.5487
-104.563
-112.325
-119.791
-126.894
-133.54
-139.621
-145.004
-149.549
-153.124
-155.588
-156.897
-157.002
-155.771
-153.048
-148.697
-142.61
-134.71
-124.958
-113.353
-99.9402
-84.8309
-68.2093
-50.48
-32.2538
-15.3628
24.9466
31.4038
38.3934
45.6045
52.3208
58.661
64.3765
69.0689
72.6824
75.3713
77.2425
78.4316
79.1009
79.364
79.304
78.9744
78.4021
77.594
76.5394
75.2122
73.5765
71.5861
69.1845
66.3375
63.0962
59.5693
55.8475
52.0182
48.1889
44.4855
41.047
38.0183
35.5433
33.7546
32.7589
32.6454
33.3777
34.7747
36.1354
16.609
9.6265
1.60039
-6.99298
-15.4611
-24.3925
-33.4163
-42.2647
-51.0459
-59.6194
-67.9478
-76.0834
-83.9917
-91.6837
-99.162
-106.398
-113.355
-119.972
-126.169
-131.847
-136.886
-141.159
-144.549
-146.922
-148.243
-148.471
-147.484
-145.13
-141.269
-135.786
-128.597
-119.645
-108.92
-96.4537
-82.3473
-66.7836
-50.1462
-33.0406
-17.1249
23.1129
29.2769
35.9579
42.8598
49.2948
55.3792
60.875
65.3979
68.8914
71.5047
73.339
74.5239
75.2161
75.5254
75.5331
75.2921
74.8308
74.1577
73.2652
72.1307
70.7213
68.9934
66.8923
64.3811
61.5001
58.3436
54.9895
51.5129
48.0077
44.5863
41.3749
38.5075
36.1189
34.3349
33.2546
32.9599
33.4147
34.4387
35.4159
15.1967
8.54113
0.896183
-7.2779
-15.3187
-23.7884
-32.3313
-40.6922
-48.9747
-57.0449
-64.8688
-72.4969
-79.8982
-87.0848
-94.0622
-100.806
-107.284
-113.444
-119.214
-124.506
-129.211
-133.213
-136.408
-138.675
-139.981
-140.296
-139.509
-137.473
-134.049
-129.118
-122.588
-114.395
-104.513
-92.9651
-79.8411
-65.3172
-49.7523
-33.7337
-18.7629
21.4028
27.288
33.675
40.2813
46.4476
52.2871
57.572
61.9314
65.3085
67.8475
69.6444
70.8223
71.5324
71.8809
71.9471
71.7838
71.4194
70.865
70.1151
69.1504
67.9416
66.4479
64.6172
62.4111
59.8607
57.0475
54.0383
50.8966
47.7038
44.5589
41.5754
38.8755
36.5838
34.818
33.6696
33.2131
33.4143
34.0994
34.7309
13.8871
7.54239
0.260022
-7.51592
-15.1518
-23.1845
-31.273
-39.174
-46.9873
-54.5847
-61.936
-69.0891
-76.0163
-82.7311
-89.2396
-95.5223
-101.551
-107.281
-112.647
-117.57
-121.953
-125.689
-128.686
-130.833
-132.104
-132.477
-131.851
-130.088
-127.052
-122.623
-116.704
-109.223
-100.146
-89.4848
-77.3174
-63.8089
-49.2931
-34.3259
-20.2688
19.8096
25.4292
31.5357
37.8596
43.769
49.3738
54.4563
58.6578
61.9225
64.3887
66.1474
67.3157
68.0394
68.4217
68.5386
68.4429
68.1638
67.713
67.0886
66.2736
65.2422
63.957
62.3686
60.4383
58.1899
55.6932
53.0053
50.1794
47.285
44.4087
41.6512
39.1225
36.9362
35.2011
34.0012
33.4029
33.3755
33.7557
34.0788
12.6743
6.62573
-0.31161
-7.70907
-14.9609
-22.5799
-30.2386
-37.7059
-45.0766
-52.2299
-59.1373
-65.8454
-72.3288
-78.6022
-84.6729
-90.5242
-96.1322
-101.458
-106.442
-111.015
-115.088
-118.565
-121.362
-123.382
-124.603
-125.01
-124.514
-122.984
-120.29
-116.315
-110.959
-104.146
-95.8327
-86.0227
-74.781
-62.26
-48.7637
-34.8113
-21.637
18.3266
23.693
29.5317
35.5858
41.2491
46.629
51.5168
55.5663
58.722
61.1169
62.8372
63.9941
64.7279
65.1387
65.2998
65.2632
65.0583
64.6989
64.1843
63.5011
62.6263
61.5259
60.154
58.4724
56.4986
54.2923
51.9017
49.3712
46.7598
44.1419
41.6058
39.2497
37.1757
35.4826
34.247
33.5275
33.2971
33.4065
33.457
11.553
5.78639
-0.822207
-7.85972
-14.747
-21.9737
-29.2259
-36.2834
-43.2374
-49.9726
-56.4631
-62.7541
-68.8223
-74.6824
-80.3434
-85.7911
-91.0049
-95.9505
-100.575
-104.816
-108.594
-111.82
-114.421
-116.31
-117.469
-117.89
-117.496
-116.165
-113.773
-110.207
-105.369
-99.178
-91.5866
-82.5889
-72.2379
-60.6708
-48.1617
-35.1864
-22.8628
16.9473
22.0722
27.6551
33.4509
38.8786
44.0428
48.7435
52.6466
55.6969
58.022
59.7039
60.8476
61.5888
62.0237
62.223
62.2377
62.0981
61.8185
61.4002
60.8327
60.0959
59.1593
57.9802
56.5217
54.7964
52.855
50.738
48.4821
46.1367
43.7652
41.4444
39.26
37.303
35.6618
34.4057
33.5855
33.1784
33.05
32.8625
10.5176
5.02005
-1.27536
-7.9702
-14.5112
-21.3658
-28.2328
-34.903
-41.4641
-47.8055
-53.9044
-59.8039
-65.4828
-70.9566
-76.2345
-81.3047
-86.1495
-90.7387
-95.0255
-98.9532
-102.45
-105.436
-107.844
-109.6
-110.69
-111.111
-110.796
-109.634
-107.508
-104.31
-99.9453
-94.3326
-87.4193
-79.1926
-69.6939
-59.0433
-47.4853
-35.4474
-23.943
15.6659
20.5603
25.8984
31.4472
36.649
41.6062
46.1269
49.8887
52.8371
55.0942
56.7379
57.8672
58.613
59.0678
59.3001
59.3598
59.2772
59.0674
58.7335
58.2675
57.6518
56.8597
55.8519
54.5933
53.0919
51.391
49.5244
47.522
45.4249
43.2865
41.1724
39.1571
37.32
35.7394
34.4769
33.5762
33.0181
32.6843
32.2916
9.56316
4.32222
-1.67456
-8.04312
-14.255
-20.7564
-27.2585
-33.5625
-39.7523
-45.723
-51.4533
-56.9855
-62.2996
-67.4115
-72.3311
-77.0484
-81.5481
-85.8036
-89.7731
-93.406
-96.6368
-99.3932
-101.616
-103.24
-104.255
-104.665
-104.411
-103.392
-101.499
-98.6326
-94.6995
-89.621
-83.3418
-75.8431
-67.1548
-57.3802
-46.7332
-35.5933
-24.8761
14.4765
19.1505
24.2547
29.5666
34.5521
39.3104
43.658
47.2837
50.1334
52.3241
53.9297
55.0437
55.7918
56.2633
56.5238
56.6226
56.5896
56.4408
56.1807
55.8034
55.2942
54.6293
53.7732
52.6927
51.3923
49.9087
48.27
46.5004
44.6334
42.7137
40.7965
38.9457
37.2299
35.7169
34.461
33.4992
32.8155
32.3073
31.7406
8.68466
3.68877
-2.02322
-8.08075
-13.9797
-20.1456
-26.3018
-32.2593
-38.0982
-43.7195
-49.1034
-54.2906
-59.2628
-64.0358
-68.6203
-73.0075
-77.1846
-81.128
-84.8003
-88.1557
-91.136
-93.6749
-95.7194
-97.2148
-98.1529
-98.5433
-98.335
-97.4365
-95.7493
-93.1794
-89.6393
-85.0529
-79.364
-72.5485
-64.6268
-55.685
-45.9066
-35.6235
-25.6616
13.3734
17.837
22.7169
27.8021
32.5801
37.1474
41.3283
44.8228
47.5769
49.703
51.2706
52.3682
53.1167
53.6017
53.8865
54.0192
54.0294
53.9337
53.738
53.4381
53.0223
52.469
51.7468
50.8246
49.7041
48.4159
46.9835
45.4262
43.7712
42.055
40.324
38.6318
37.0368
35.597
34.3595
33.3548
32.5699
31.9166
31.2052
7.8774
3.11534
-2.32461
-8.0857
-13.6871
-19.534
-25.3622
-30.9916
-36.4993
-41.791
-46.8488
-51.7118
-56.3633
-60.8194
-65.0903
-69.169
-73.0447
-76.6964
-80.0906
-83.1861
-85.9305
-88.2641
-90.1392
-91.5096
-92.3707
-92.7358
-92.5613
-91.7655
-90.2585
-87.9542
-84.7708
-80.6362
-75.4941
-69.3171
-62.1164
-53.9615
-45.0076
-35.5397
-26.301
12.3514
16.6137
21.2791
26.1467
30.7256
35.1094
39.1298
42.4975
45.1593
47.2223
48.7522
49.8327
50.5796
51.0754
51.3808
51.5427
51.5905
51.541
51.4013
51.169
50.8343
50.379
49.7748
48.9927
48.0323
46.9192
45.6727
44.3081
42.8469
41.319
39.7624
38.2217
36.7457
35.3833
34.1744
33.1439
32.2808
31.5102
30.6812
7.13683
2.59824
-2.58215
-8.06051
-13.3787
-18.9224
-24.4392
-29.758
-34.9524
-39.9334
-44.684
-49.2425
-53.5933
-57.7523
-61.7302
-65.5208
-69.1151
-72.4945
-75.6289
-78.4815
-81.0046
-83.1453
-84.8603
-86.1112
-86.8964
-87.2322
-87.0824
-86.3737
-85.0254
-82.9586
-80.0984
-76.3767
-71.7393
-66.1558
-59.6294
-52.2146
-44.0392
-35.3443
-26.7967
11.4054
15.4753
19.9351
24.5941
28.9818
33.1892
37.0551
40.3004
42.8726
44.8739
46.3665
47.4292
48.1729
48.6771
48.9997
49.1867
49.267
49.2574
49.1662
48.9926
48.7288
48.359
47.8583
47.1998
46.3816
45.4246
44.3449
43.154
41.8692
40.5142
39.1198
37.7226
36.3627
35.0804
33.9089
32.8679
31.9479
31.0858
30.1644
6.45861
2.13354
-2.79888
-8.00761
-13.0562
-18.3117
-23.5328
-28.5575
-33.4557
-38.1433
-42.605
-46.8772
-50.9459
-54.8268
-58.5305
-62.0519
-65.3837
-68.5092
-71.4014
-74.0271
-76.3439
-78.3036
-79.8682
-81.0056
-81.7173
-82.0221
-81.8897
-81.2552
-80.0465
-78.1922
-75.6241
-72.2792
-68.1053
-63.0707
-57.172
-50.4495
-43.0059
-35.0414
-27.1522
10.5308
14.4163
18.6793
23.138
27.3422
31.3799
35.0967
38.224
40.7094
42.6506
44.1061
45.1503
45.8893
46.3995
46.7365
46.9447
47.0527
47.0778
47.0286
46.9057
46.7034
46.4081
45.9977
45.4482
44.7556
43.9373
43.0063
41.9714
40.8461
39.6489
38.4045
37.1421
35.8942
34.6934
33.5666
32.5288
31.5715
30.6416
29.6508
5.83857
1.7177
-2.9779
-7.92938
-12.7212
-17.7027
-22.643
-27.3891
-32.0073
-36.4179
-40.6074
-44.6106
-48.4147
-52.035
-55.4825
-58.7528
-61.8396
-64.7284
-67.3952
-69.8097
-71.934
-73.7248
-75.1489
-76.1796
-76.8212
-77.0942
-76.974
-76.4029
-75.3172
-73.6529
-71.3485
-68.346
-64.5966
-60.0674
-54.7499
-48.6718
-41.9128
-34.636
-27.373
9.72287
13.4319
17.506
21.7728
25.8006
29.6749
33.2483
36.2613
38.6624
40.5448
41.9636
42.9886
43.7216
44.2358
44.5843
44.8104
44.9423
44.9969
44.9838
44.9047
44.7554
44.5247
44.1933
43.7391
43.1573
42.4616
41.6628
40.7673
39.7854
38.7314
37.6246
36.488
35.3473
34.2282
33.1519
32.1293
31.1522
30.1757
29.1363
5.27289
1.3471
-3.12204
-7.82819
-12.3753
-17.0962
-21.7701
-26.252
-30.6052
-34.7545
-38.6876
-42.4379
-45.9938
-49.3703
-52.5782
-55.6141
-58.4729
-61.1415
-63.5983
-65.8167
-67.7618
-69.3959
-70.6891
-71.6201
-72.1954
-72.4369
-72.325
-71.8088
-70.8317
-69.3373
-67.2705
-64.5788
-61.2162
-57.1506
-52.3687
-46.8873
-40.766
-34.1343
-27.4647
8.97725
12.5174
16.4104
20.4928
24.3511
28.0683
31.5031
34.4056
36.725
38.5499
39.9322
40.9375
41.6632
42.1794
42.5371
42.7781
42.93
43.0098
43.0276
42.9862
42.8826
42.7076
42.4446
42.0736
41.589
41.0015
40.3195
39.548
38.6944
37.7696
36.7883
35.7683
34.7293
33.6911
32.6698
31.6724
30.6908
29.6868
28.6176
4.75775
1.0186
-3.23423
-7.70616
-12.0203
-16.4933
-20.9141
-25.1456
-29.2482
-33.1509
-36.8424
-40.355
-43.6781
-46.8263
-49.8104
-52.6276
-55.274
-57.7378
-59.9999
-62.0359
-63.8153
-65.304
-66.4759
-67.3146
-67.8278
-68.039
-67.9324
-67.4638
-66.5831
-65.2407
-63.3878
-60.9772
-57.9663
-54.3239
-50.0333
-45.102
-39.5721
-33.5433
-27.4343
8.2899
11.6682
15.3876
19.2928
22.9882
26.554
29.8552
32.6509
34.8907
36.6593
38.0054
38.9905
39.7077
40.2241
40.5887
40.8418
41.0106
41.1116
41.1556
41.1462
41.0817
40.9548
40.7511
40.4525
40.0527
39.56
38.981
38.3192
37.58
36.7711
35.9037
34.991
34.0479
33.0889
32.1255
31.1616
30.1888
29.174
28.0916
4.28963
0.728971
-3.31712
-7.5655
-11.6578
-15.8947
-20.0752
-24.0694
-27.935
-31.6048
-35.0688
-38.3579
-41.4627
-44.3973
-47.1724
-49.7858
-52.2345
-54.508
-56.5893
-58.4567
-60.0826
-61.437
-62.497
-63.2502
-63.7061
-63.8887
-63.7858
-63.3587
-62.5637
-61.3573
-59.6968
-57.5398
-54.8476
-51.5901
-47.7483
-43.3221
-38.3382
-32.8706
-27.2895
7.65689
10.8801
14.433
18.168
21.7068
25.1268
28.2989
30.9911
33.1537
34.8672
36.1772
37.1414
37.849
38.3641
38.7334
38.9963
39.1788
39.2976
39.3637
39.3814
39.3503
39.2645
39.1117
38.8758
38.5499
38.14
37.6514
37.0863
36.4484
35.7431
34.9785
34.1641
33.3106
32.4283
31.5247
30.6009
29.6479
28.6369
27.5556
3.86515
0.475268
-3.37322
-7.40821