/*--------------------------------*- C++ -*----------------------------------*\
  =========                 |
  \\      /  F ield         | OpenFOAM: The Open Source CFD Toolbox
   \\    /   O peration     | Website:  https://openfoam.org
    \\  /    A nd           | Version:  12
     \\/     M anipulation  |
\*---------------------------------------------------------------------------*/
FoamFile
{
    format      ascii;
    class       surfaceScalarField;
    location    "150";
    object      phi;
}
// * * * * * * * * * * * * * * * * * * * * * * * * * * * * * * * * * * * * * //

dimensions      [0 3 -1 0 0 0 0];

internalField   nonuniform List<scalar> 
21254
(
-0.238146
0.257703
-0.019557
0.279696
-0.0219936
0.298587
-0.0188902
0.315448
-0.0168608
0.33141
-0.0159622
0.344166
-0.0127564
0.354251
-0.0100849
0.362463
-0.00821148
0.367885
-0.00542162
0.37158
-0.00369516
0.373798
-0.00221732
0.374387
-0.000589537
0.373725
0.000662648
0.371732
0.00199307
0.368336
0.00339594
0.363818
0.00451788
0.358003
0.0058144
0.351001
0.00700266
0.342681
0.00832015
0.333291
0.00939
0.322524
0.0107666
0.310967
0.0115572
0.298898
0.0120695
0.287625
0.0112733
0.278344
0.00928079
0.270373
0.0079708
0.262588
0.0077855
0.254671
0.00791692
0.246288
0.00838297
0.23735
0.00893781
0.227831
0.00951987
0.21772
0.0101108
0.206951
0.0107688
0.195285
0.0116671
0.182191
0.0130939
0.166614
0.0155786
0.146205
0.0204118
0.115619
0.0305893
0.0950083
0.0206685
-0.215058
-0.0230884
-0.191156
-0.023901
-0.161749
-0.0294079
-0.129449
-0.0322999
-0.0953624
-0.0340862
-0.0600914
-0.0352711
-0.0252269
-0.0348644
0.00714092
-0.0323678
0.0365077
-0.0293667
0.0624792
-0.0259714
0.084672
-0.0221928
0.103495
-0.0188229
0.119313
-0.015818
0.132502
-0.0131895
0.143785
-0.0112826
0.15349
-0.00970478
0.162098
-0.00860792
0.169845
-0.007747
0.177043
-0.00719853
0.183817
-0.00677384
0.190338
-0.00652047
0.196595
-0.00625754
0.202521
-0.00592556
0.207485
-0.00496415
0.2113
-0.00381518
0.214245
-0.00294559
0.216318
-0.00207287
0.217637
-0.00131872
0.218209
-0.000572017
0.217976
0.000232735
0.216853
0.00112247
0.214979
0.00187458
0.212475
0.00250313
0.209405
0.00307041
0.205626
0.0037787
0.200714
0.00491085
0.193502
0.0072118
0.178673
0.0148272
0.156362
0.0223112
-0.217323
0.238869
-0.0411024
0.260903
-0.0440281
0.28391
-0.0418975
0.305374
-0.0383239
0.326311
-0.0368998
0.345712
-0.0321573
0.363174
-0.027546
0.378954
-0.0239917
0.392648
-0.0191157
0.404314
-0.0153614
0.413976
-0.0118782
0.421741
-0.00835524
0.427915
-0.00551116
0.4327
-0.00279183
0.435991
0.000105255
0.437472
0.00303743
0.43706
0.00622598
0.434876
0.00918724
0.430413
0.012783
0.423957
0.0158459
0.415105
0.0196182
0.404148
0.0225147
0.391077
0.0251396
0.376532
0.0258185
0.361775
0.0240371
0.347255
0.0224909
0.333072
0.021969
0.319449
0.0215393
0.306213
0.0216196
0.293221
0.0219308
0.280267
0.022475
0.267193
0.0231854
0.253749
0.0242133
0.239723
0.0256944
0.224717
0.0281019
0.207735
0.0325626
0.187497
0.0406533
0.155144
0.0629448
0.112097
0.063752
-0.195302
-0.0451099
-0.171702
-0.0475005
-0.144069
-0.0570407
-0.114837
-0.0615316
-0.0837907
-0.0651329
-0.0513616
-0.0677001
-0.0190729
-0.0671531
0.0118005
-0.0632411
0.040099
-0.0576652
0.0653086
-0.051181
0.0873105
-0.0441947
0.106412
-0.0379243
0.123044
-0.03245
0.137432
-0.027577
0.150018
-0.0238686
0.161103
-0.0207901
0.170979
-0.0184837
0.179954
-0.0167221
0.188283
-0.0155272
0.196077
-0.0145683
0.203497
-0.0139406
0.210613
-0.0133735
0.217351
-0.0126632
0.223249
-0.0108623
0.228032
-0.00859786
0.231904
-0.00681792
0.234862
-0.00503141
0.236957
-0.00341415
0.238243
-0.00185789
0.238867
-0.000391914
0.238921
0.00106806
0.238345
0.00245025
0.237012
0.00383545
0.234881
0.00520051
0.231899
0.00676032
0.22782
0.00898824
0.222639
0.0123921
0.211727
0.0257369
0.190865
0.0431722
-0.210924
0.232665
-0.0628441
0.254571
-0.0659337
0.278211
-0.0655377
0.299833
-0.0599458
0.3204
-0.0574672
0.340094
-0.0518507
0.357623
-0.0450746
0.373397
-0.0397654
0.386973
-0.0326921
0.398635
-0.0270225
0.40841
-0.0216535
0.416467
-0.0164122
0.422628
-0.0116719
0.427362
-0.00752597
0.430409
-0.00294174
0.432512
0.000934115
0.433367
0.00537094
0.433326
0.0092283
0.432065
0.0140442
0.429529
0.0183825
0.425605
0.0235417
0.420128
0.0279924
0.41307
0.0321979
0.404524
0.0343644
0.395005
0.0335567
0.384569
0.0329266
0.373104
0.0334341
0.360751
0.0338918
0.347681
0.0346902
0.333987
0.0356241
0.319818
0.0366444
0.305204
0.0377995
0.290088
0.0393286
0.274298
0.0414844
0.257445
0.0449554
0.238535
0.0514735
0.216386
0.0628025
0.183362
0.0959714
0.135709
0.11143
-0.189045
-0.066988
-0.165076
-0.0714703
-0.136399
-0.0857174
-0.106556
-0.0913749
-0.0753697
-0.0963188
-0.0429979
-0.100072
-0.0110434
-0.0991076
0.0188272
-0.0931116
0.0462603
-0.0850982
0.0711148
-0.0760355
0.093083
-0.0661628
0.112331
-0.057172
0.129216
-0.0493349
0.144011
-0.0423721
0.157029
-0.0368863
0.168607
-0.0323689
0.179014
-0.0288898
0.188514
-0.0262223
0.197316
-0.0243299
0.205586
-0.0228378
0.213507
-0.0218619
0.221093
-0.0209597
0.228251
-0.0198213
0.234678
-0.0172895
0.240086
-0.0140065
0.244579
-0.0113108
0.248214
-0.00866627
0.251023
-0.00622276
0.25307
-0.00390496
0.25435
-0.00167171
0.254934
0.000484221
0.254815
0.00256914
0.254016
0.00463434
0.252465
0.00675178
0.250058
0.00916691
0.246412
0.0126336
0.241108
0.0176957
0.230445
0.0363991
0.210552
0.0630649
-0.203506
0.226246
-0.0855831
0.249049
-0.0887374
0.274122
-0.0906098
0.297004
-0.0828279
0.31918
-0.0796438
0.340434
-0.0731038
0.359941
-0.064582
0.377522
-0.0573455
0.393385
-0.0485559
0.407309
-0.0409457
0.419408
-0.0337524
0.42968
-0.0266843
0.438154
-0.020146
0.444865
-0.0142369
0.450137
-0.00821359
0.453606
-0.00253467
0.455412
0.00356527
0.45531
0.00933003
0.453622
0.0157326
0.450223
0.0217813
0.44526
0.028505
0.438982
0.0342702
0.431521
0.039659
0.423384
0.0425008
0.415006
0.0419351
0.406443
0.0414891
0.397326
0.0425507
0.387506
0.0437126
0.3768
0.0453967
0.365028
0.047397
0.352181
0.0494928
0.338243
0.051738
0.323212
0.05436
0.306963
0.0577343
0.289241
0.0626801
0.269099
0.0716167
0.245283
0.0866211
0.210981
0.130277
0.162539
0.159893
-0.181047
-0.0894479
-0.156959
-0.0955575
-0.127736
-0.114941
-0.0977343
-0.121376
-0.0664575
-0.127595
-0.0339555
-0.132574
-0.0020545
-0.131009
0.0274619
-0.122628
0.0544142
-0.11205
0.0788871
-0.100508
0.100541
-0.0878169
0.11962
-0.076251
0.136534
-0.0662488
0.151521
-0.0573593
0.1649
-0.0502648
0.176895
-0.0443635
0.187797
-0.0397923
0.197786
-0.0362114
0.207093
-0.0336365
0.215856
-0.0316009
0.224188
-0.0301934
0.232153
-0.0289253
0.239692
-0.0273604
0.246485
-0.024082
0.252288
-0.0198102
0.257164
-0.0161865
0.261156
-0.0126587
0.264314
-0.00938071
0.266669
-0.00626092
0.26828
-0.00328278
0.269174
-0.000410389
0.269377
0.00236578
0.268887
0.00512351
0.26769
0.00794842
0.265665
0.0111901
0.262436
0.015862
0.257415
0.0227157
0.247265
0.0465476
0.227697
0.0826311
-0.199495
0.223057
-0.109145
0.24675
-0.112431
0.273242
-0.117102
0.296898
-0.106484
0.320103
-0.102848
0.342463
-0.0954637
0.362875
-0.0849942
0.381445
-0.0759155
0.398471
-0.065581
0.413296
-0.0557713
0.426314
-0.0467698
0.43746
-0.0378305
0.44701
-0.0296963
0.454632
-0.0218586
0.460506
-0.0140876
0.46463
-0.0066588
0.467157
0.00103856
0.468127
0.00835991
0.467296
0.016564
0.464926
0.0241518
0.46087
0.0325607
0.455267
0.039873
0.448353
0.0465737
0.440523
0.0503306
0.432354
0.0501049
0.424052
0.049791
0.415474
0.0511286
0.406559
0.0526283
0.397165
0.0547902
0.387126
0.0574352
0.376195
0.0604238
0.364141
0.0637921
0.350745
0.0677554
0.335715
0.0727647
0.318634
0.0797609
0.29862
0.0916305
0.274236
0.111005
0.239227
0.165287
0.190664
0.208473
-0.175994
-0.11295
-0.1512
-0.120351
-0.120737
-0.145405
-0.0899057
-0.152208
-0.0579166
-0.159584
-0.0247836
-0.165707
0.0075382
-0.16333
0.0371095
-0.152199
0.0639085
-0.138849
0.0881468
-0.124747
0.10953
-0.1092
0.128401
-0.0951219
0.145253
-0.0831012
0.160296
-0.0724027
0.173845
-0.0638132
0.186161
-0.0566796
0.197421
-0.0510527
0.20781
-0.0465996
0.21752
-0.0433467
0.22669
-0.0407715
0.235414
-0.0389175
0.243732
-0.0372429
0.251608
-0.0352363
0.258766
-0.0312404
0.264946
-0.0259903
0.270179
-0.0214203
0.274499
-0.0169789
0.277958
-0.0128396
0.280584
-0.00888661
0.28241
-0.00510836
0.283476
-0.00147609
0.283836
0.00200578
0.283484
0.00547546
0.282383
0.00904986
0.28048
0.0130926
0.277387
0.0189551
0.272502
0.0276005
0.262905
0.0561439
0.243988
0.101548
-0.196276
0.220855
-0.133723
0.245873
-0.137448
0.273742
-0.144971
0.298604
-0.131345
0.322825
-0.127069
0.346552
-0.119191
0.367927
-0.10637
0.387771
-0.0957598
0.405774
-0.0835839
0.421819
-0.0718158
0.436134
-0.0610853
0.448532
-0.0502279
0.459232
-0.0403961
0.46821
-0.0308369
0.475327
-0.0212043
0.480894
-0.012226
0.484536
-0.00260369
0.486346
0.00655042
0.486431
0.0164788
0.484616
0.0259679
0.480948
0.0362279
0.475652
0.0451693
0.468879
0.0533471
0.461048
0.0581609
0.452675
0.0584776
0.444023
0.058443
0.435047
0.0601048
0.425761
0.0619136
0.416172
0.0643794
0.40621
0.0673984
0.395803
0.0708314
0.384722
0.074874
0.372697
0.0797818
0.359297
0.0861663
0.343903
0.095157
0.325324
0.11021
0.301933
0.1344
0.267543
0.19968
0.219531
0.2565
-0.171806
-0.13742
-0.146194
-0.145963
-0.114418
-0.17718
-0.0824443
-0.184182
-0.0494527
-0.192576
-0.015388
-0.199771
0.0176537
-0.196372
0.047581
-0.182126
0.0744834
-0.165752
0.0986614
-0.148924
0.119879
-0.130417
0.138544
-0.113787
0.155254
-0.0998113
0.170266
-0.0874139
0.183883
-0.0774305
0.196364
-0.0691603
0.207869
-0.0625576
0.21859
-0.0573213
0.228655
-0.0534113
0.23819
-0.050307
0.247288
-0.048015
0.255968
-0.0459234
0.264177
-0.0434456
0.27173
-0.0387928
0.278297
-0.0325571
0.283869
-0.0269931
0.288533
-0.0216424
0.292282
-0.016589
0.295165
-0.0117697
0.297211
-0.00715475
0.298458
-0.00272433
0.298934
0.00152937
0.298644
0.00576449
0.297606
0.010088
0.295669
0.0150284
0.292543
0.0220796
0.287542
0.0326008
0.278234
0.06545
0.26001
0.11977
-0.194336
0.220244
-0.159631
0.246301
-0.163505
0.27574
-0.174411
0.301879
-0.157484
0.327357
-0.152547
0.352161
-0.143994
0.374708
-0.128917
0.395403
-0.116454
0.414455
-0.102635
0.431438
-0.0887991
0.446584
-0.0762317
0.460033
-0.0636767
0.471649
-0.0520125
0.481496
-0.0406835
0.489635
-0.0293428
0.495885
-0.0184767
0.500402
-0.00711993
0.503084
0.00386826
0.503955
0.0156073
0.502952
0.0269713
0.500113
0.0390666
0.495502
0.0497808
0.489442
0.0594073
0.482117
0.0654863
0.474035
0.0665599
0.465433
0.0670452
0.456317
0.0692209
0.44672
0.0715102
0.436728
0.0743717
0.426307
0.0778186
0.415468
0.0816709
0.404166
0.0861753
0.392274
0.0916733
0.379459
0.0989806
0.365214
0.109402
0.348331
0.127093
0.326968
0.155763
0.294865
0.231785
0.248415
0.302961
-0.168658
-0.163098
-0.14194
-0.172681
-0.108716
-0.210405
-0.0754312
-0.217466
-0.0412375
-0.22677
-0.00592829
-0.23508
0.0280921
-0.230392
0.0586829
-0.212717
0.0859388
-0.193008
0.110278
-0.173264
0.131435
-0.151573
0.149959
-0.132312
0.166529
-0.116382
0.181442
-0.102327
0.195033
-0.0910216
0.207587
-0.0817141
0.219273
-0.074243
0.230231
-0.0682792
0.240594
-0.0637744
0.250454
-0.0601672
0.259882
-0.0574428
0.268891
-0.0549323
0.277456
-0.0520116
0.285333
-0.0466699
0.292292
-0.0395163
0.298256
-0.0329565
0.303244
-0.0266306
0.307306
-0.0206517
0.310445
-0.0149085
0.312722
-0.00943178
0.314137
-0.00413933
0.314749
0.000918458
0.314563
0.00595048
0.313528
0.0111229
0.311591
0.0169656
0.308372
0.0252985
0.303186
0.0377874
0.293958
0.0746771
0.276349
0.13738
-0.193115
0.220359
-0.186874
0.247849
-0.190995
0.278972
-0.205534
0.306311
-0.184823
0.333079
-0.179315
0.359134
-0.170049
0.382698
-0.152481
0.404603
-0.13836
0.424468
-0.1225
0.442383
-0.106714
0.458575
-0.0924246
0.472882
-0.0779833
0.485376
-0.0645066
0.496175
-0.0514821
0.50521
-0.0383778
0.512436
-0.025703
0.517881
-0.0125643
0.521471
0.000278278
0.52312
0.0139583
0.522831
0.0272606
0.520688
0.0412103
0.516691
0.0537773
0.511082
0.0650164
0.504213
0.0723549
0.49641
0.0743634
0.487929
0.0755254
0.478828
0.0783215
0.46911
0.0812285
0.458819
0.0846628
0.448018
0.0886201
0.436658
0.0930321
0.424786
0.0980485
0.41231
0.10415
0.399133
0.112159
0.384865
0.123672
0.368659
0.143301
0.348997
0.175427
0.320076
0.260708
0.276382
0.346667
-0.166206
-0.190008
-0.138329
-0.200557
-0.103389
-0.245345
-0.0685827
-0.252272
-0.0329583
-0.262394
0.00372236
-0.271761
0.0389656
-0.265635
0.0704324
-0.244184
0.0982321
-0.220807
0.122872
-0.197904
0.144115
-0.172816
0.162568
-0.150765
0.179019
-0.132832
0.193812
-0.11712
0.207328
-0.104537
0.21991
-0.0942963
0.231674
-0.0860071
0.2428
-0.0794051
0.253385
-0.0743588
0.263519
-0.0703017
0.273233
-0.0671567
0.282569
-0.0642687
0.291464
-0.0609058
0.299708
-0.0549148
0.307037
-0.0468447
0.313366
-0.039286
0.318708
-0.0319728
0.323091
-0.0250349
0.326509
-0.018326
0.329003
-0.0119268
0.330621
-0.00575779
0.331366
0.000173679
0.331267
0.00604813
0.330281
0.0121081
0.328296
0.01895
0.324985
0.0286081
0.319628
0.0431437
0.310398
0.0839055
0.293394
0.154382
-0.19273
0.221341
-0.215486
0.250279
-0.219933
0.283102
-0.238356
0.311832
-0.213554
0.340071
-0.207553
0.367483
-0.197461
0.392268
-0.177267
0.415058
-0.161149
0.436036
-0.143477
0.454785
-0.125463
0.471685
-0.109325
0.486807
-0.0931057
0.500164
-0.0778636
0.511765
-0.0630827
0.52161
-0.0482231
0.529721
-0.0338142
0.535964
-0.0188071
0.540293
-0.00405049
0.542695
0.011556
0.543124
0.026832
0.541659
0.0426759
0.538338
0.0570979
0.53333
0.0700243
0.526948
0.078737
0.519523
0.081789
0.51126
0.0837885
0.502213
0.087369
0.492454
0.0909876
0.482044
0.0950727
0.470974
0.0996898
0.459254
0.104752
0.446885
0.110417
0.433812
0.117222
0.419919
0.126051
0.404986
0.138605
0.388373
0.159913
0.369192
0.194609
0.343056
0.286845
0.302563
0.387168
-0.16433
-0.218407
-0.135099
-0.229788
-0.0983824
-0.282062
-0.0620142
-0.28864
-0.0247353
-0.299673
0.0135256
-0.310022
0.0502371
-0.302347
0.082758
-0.276704
0.111285
-0.249334
0.1364
-0.223018
0.157848
-0.194264
0.176335
-0.169252
0.192719
-0.149216
0.207404
-0.131805
0.220826
-0.11796
0.233345
-0.106815
0.245148
-0.09781
0.256368
-0.0906249
0.267111
-0.0851017
0.277465
-0.0806564
0.287465
-0.0771564
0.297073
-0.0738772
0.306275
-0.0701073
0.314872
-0.0635122
0.32259
-0.0545629
0.329273
-0.0459686
0.334971
-0.0376716
0.339656
-0.02972
0.343374
-0.022044
0.346122
-0.0146747
0.347929
-0.00756472
0.348832
-0.000728726
0.348819
0.00606121
0.347877
0.0130507
0.34589
0.0209369
0.342504
0.0319941
0.336959
0.0486892
0.327746
0.0931188
0.311339
0.17079
-0.192782
0.223007
-0.245711
0.253495
-0.25042
0.288212
-0.273073
0.3184
-0.243742
0.347927
-0.23708
0.376814
-0.226348
0.402771
-0.203224
0.426702
-0.18508
0.448665
-0.165441
0.468292
-0.145089
0.486047
-0.12708
0.502045
-0.109103
0.516106
-0.0919253
0.528424
-0.0753998
0.53913
-0.0589293
0.547945
-0.042629
0.554963
-0.025825
0.560044
-0.00913144
0.563242
0.00835832
0.564455
0.0256183
0.563602
0.0435292
0.560931
0.0597692
0.556503
0.0744529
0.550625
0.084615
0.543553
0.0888611
0.53546
0.0918813
0.52652
0.0963084
0.516779
0.100729
0.506231
0.105621
0.494982
0.110938
0.482985
0.11675
0.470213
0.12319
0.456628
0.130808
0.442107
0.140573
0.426424
0.15429
0.40896
0.177379
0.389181
0.21439
0.364542
0.311487
0.326832
0.424886
-0.163011
-0.248179
-0.132314
-0.260486
-0.093635
-0.32074
-0.0554063
-0.326869
-0.0164432
-0.338636
0.0236563
-0.350121
0.0619026
-0.340593
0.0956669
-0.310469
0.125092
-0.278759
0.15085
-0.248776
0.172628
-0.216042
0.19122
-0.187844
0.207603
-0.165599
0.222205
-0.146406
0.235524
-0.131278
0.247972
-0.119264
0.259744
-0.109582
0.270997
-0.101877
0.281868
-0.095973
0.292391
-0.0911796
0.302576
-0.0873414
0.312463
-0.0837641
0.321971
-0.079615
0.330899
-0.0724404
0.338965
-0.0626296
0.346032
-0.0530349
0.352063
-0.0437026
0.357091
-0.0347489
0.361093
-0.0260458
0.364093
-0.0176752
0.366126
-0.00959808
0.367172
-0.00177525
0.367279
0.00595349
0.366394
0.0139357
0.364387
0.0229423
0.360913
0.0354675
0.355246
0.0543546
0.346072
0.102292
0.330238
0.186623
-0.193451
0.225247
-0.277507
0.257314
-0.282487
0.293961
-0.30972
0.325831
-0.275612
0.356975
-0.268224
0.387336
-0.256709
0.414439
-0.230328
0.439599
-0.21024
0.462599
-0.18844
0.483167
-0.165658
0.501713
-0.145625
0.518344
-0.125735
0.533204
-0.106785
0.546363
-0.0885591
0.557656
-0.0702228
0.567244
-0.0522169
0.57498
-0.0335602
0.580846
-0.0149977
0.584702
0.00450284
0.586583
0.0237369
0.586446
0.043666
0.584352
0.061864
0.580501
0.0783035
0.575132
0.0899841
0.56846
0.0955336
0.560672
0.0996697
0.551852
0.105128
0.542082
0.110499
0.531487
0.116216
0.520024
0.122401
0.507757
0.129017
0.494657
0.136289
0.480641
0.144823
0.465573
0.155641
0.449192
0.17067
0.430925
0.195646
0.4101
0.235215
0.38579
0.335798
0.349934
0.460748
-0.162004
-0.279625
-0.129799
-0.292691
-0.0890443
-0.361495
-0.0488831
-0.36703
-0.00795428
-0.379565
0.034015
-0.39209
0.0740279
-0.380606
0.109186
-0.345627
0.139681
-0.309254
0.166158
-0.275253
0.188405
-0.238289
0.207214
-0.206653
0.223671
-0.182056
0.238223
-0.160958
0.251451
-0.144507
0.263805
-0.131618
0.275518
-0.121295
0.286778
-0.113137
0.297682
-0.106877
0.308321
-0.101818
0.318712
-0.0977331
0.328824
-0.0938757
0.338589
-0.0893803
0.347847
-0.0816986
0.356265
-0.0710478
0.363684
-0.0604536
0.370082
-0.0501011
0.375433
-0.0401001
0.37975
-0.030363
0.383012
-0.0209371
0.385245
-0.0118308
0.386486
-0.0030154
0.3867
0.00573941
0.385879
0.0147574
0.383862
0.0249588
0.380337
0.0389928
0.374534
0.0601582
0.365415
0.111411
0.350213
0.201826
-0.194436
0.228032
-0.311103
0.261859
-0.316313
0.300545
-0.348406
0.334018
-0.309085
0.366776
-0.300981
0.398721
-0.288654
0.427333
-0.258939
0.453629
-0.236536
0.477702
-0.212513
0.499174
-0.18713
0.518618
-0.165069
0.536113
-0.143229
0.551587
-0.122259
0.565367
-0.102339
0.577431
-0.0822867
0.587702
-0.0624887
0.596094
-0.0419517
0.60259
-0.0214938
0.607123
-2.98331e-05
0.609692
0.0211686
0.610228
0.0431299
0.608794
0.0632982
0.605524
0.0815735
0.600652
0.0948567
0.594367
0.101818
0.586853
0.107183
0.578186
0.113794
0.56849
0.120195
0.557802
0.126904
0.546193
0.134009
0.533667
0.141544
0.520212
0.149745
0.505796
0.159239
0.490218
0.17122
0.473225
0.187665
0.454257
0.214616
0.432411
0.257062
0.407686
0.360526
0.372947
0.495493
-0.161351
-0.31271
-0.127416
-0.326626
-0.0845272
-0.404384
-0.0422737
-0.409284
0.000700351
-0.422539
0.0447218
-0.436112
0.0866787
-0.422563
0.123337
-0.382285
0.155008
-0.340924
0.18239
-0.302635
0.205216
-0.261115
0.224342
-0.225778
0.240906
-0.19862
0.25547
-0.175522
0.268629
-0.157665
0.280895
-0.143884
0.292518
-0.132918
0.303731
-0.124351
0.314666
-0.117812
0.32537
-0.112522
0.335885
-0.108247
0.34618
-0.104171
0.356221
-0.0994215
0.36578
-0.0912578
0.374537
-0.0798051
0.382309
-0.068225
0.389046
-0.0568382
0.394744
-0.0457985
0.399345
-0.0349638
0.40289
-0.0244821
0.405358
-0.0142994
0.406766
-0.00442412
0.407125
0.00538018
0.406355
0.0155267
0.404354
0.0269585
0.400768
0.0425785
0.394856
0.0660681
0.385859
0.120407
0.371308
0.216375
-0.195918
0.231224
-0.346409
0.266912
-0.352001
0.307757
-0.389251
0.343085
-0.344414
0.377596
-0.335492
0.411183
-0.322242
0.441216
-0.288972
0.468848
-0.264168
0.493983
-0.237649
0.516442
-0.209589
0.536722
-0.185348
0.554954
-0.161461
0.571247
-0.138552
0.58573
-0.116822
0.598408
-0.0949647
0.609273
-0.0733533
0.618332
-0.0510113
0.625513
-0.0286749
0.630703
-0.00521973
0.63384
0.0180326
0.635002
0.0419674
0.634148
0.0641526
0.63144
0.0842812
0.627113
0.0991836
0.62132
0.107612
0.614103
0.114401
0.605641
0.122256
0.595999
0.129838
0.585266
0.137637
0.573521
0.145754
0.560768
0.154296
0.546985
0.163528
0.532126
0.174098
0.516037
0.187308
0.498453
0.205248
0.478834
0.234235
0.456179
0.279716
0.4308
0.385905
0.396732
0.529566
-0.160913
-0.347714
-0.125318
-0.362221
-0.0800609
-0.449641
-0.0356152
-0.453729
0.00960448
-0.467758
0.0558918
-0.482399
0.0998158
-0.466487
0.138179
-0.420648
0.171151
-0.373895
0.199541
-0.331026
0.223041
-0.284615
0.242569
-0.245306
0.259363
-0.215414
0.273989
-0.190148
0.287109
-0.170786
0.299293
-0.156067
0.310825
-0.14445
0.321966
-0.135491
0.332864
-0.128709
0.343608
-0.123267
0.35421
-0.118849
0.364675
-0.114636
0.374926
-0.109673
0.384779
-0.101111
0.393853
-0.0888788
0.401963
-0.0763355
0.409043
-0.0639185
0.41505
-0.0518056
0.419975
-0.0398889
0.423797
-0.0283045
0.426511
-0.0170131
0.428125
-0.00603769
0.428613
0.00489195
0.427933
0.0162074
0.425936
0.0289556
0.422329
0.0461867
0.416338
0.0720589
0.407426
0.129319
0.393578
0.230224
-0.19764
0.234892
-0.383662
0.272545
-0.389654
0.315691
-0.432397
0.35291
-0.381633
0.389204
-0.371786
0.424551
-0.357589
0.456133
-0.320553
0.485079
-0.293115
0.511449
-0.264019
0.534905
-0.233045
0.556151
-0.206594
0.575169
-0.180479
0.592173
-0.155556
0.60733
-0.131979
0.62055
-0.108185
0.632094
-0.0848975
0.641773
-0.0606897
0.649543
-0.036445
0.655381
-0.0110579
0.659178
0.0142361
0.660919
0.0402269
0.660673
0.0643986
0.658538
0.0864159
0.654715
0.103006
0.64934
0.112988
0.64245
0.12129
0.634224
0.130482
0.624704
0.139357
0.613962
0.148379
0.602093
0.157624
0.589105
0.167284
0.57501
0.177623
0.559716
0.189393
0.543138
0.203887
0.52496
0.223427
0.504699
0.254497
0.481292
0.303125
0.455326
0.411873
0.421768
0.563129
-0.160855
-0.384499
-0.123215
-0.399862
-0.0755777
-0.497278
-0.0287549
-0.500552
0.0187784
-0.515292
0.0673985
-0.531019
0.113588
-0.512676
0.153738
-0.460799
0.188183
-0.40834
0.217682
-0.360525
0.241968
-0.3089
0.261973
-0.265312
0.279048
-0.232489
0.293783
-0.204883
0.306893
-0.183895
0.319022
-0.168196
0.330472
-0.1559
0.34151
-0.14653
0.352355
-0.139554
0.363101
-0.134012
0.373762
-0.12951
0.384339
-0.125213
0.394796
-0.12013
0.404903
-0.111218
0.414273
-0.0982492
0.422705
-0.0847673
0.430117
-0.0713309
0.436465
-0.0581535
0.441702
-0.0451259
0.445808
-0.03241
0.448763
-0.0199692
0.450568
-0.00784261
0.451214
0.00424616
0.450623
0.0167971
0.448656
0.0309217
0.445022
0.0498205
0.438986
0.0780935
0.430246
0.138057
0.417085
0.243383
-0.199674
0.239034
-0.423021
0.278711
-0.429331
0.32427
-0.477956
0.363445
-0.420808
0.401673
-0.410014
0.438975
-0.394892
0.472085
-0.353662
0.502478
-0.323508
0.530207
-0.291748
0.554767
-0.257605
0.576901
-0.228728
0.596768
-0.200346
0.614404
-0.173192
0.630238
-0.147812
0.64421
-0.122157
0.65632
-0.097007
0.666598
-0.0709681
0.674937
-0.0447839
0.681261
-0.0173818
0.685625
0.00987202
0.687977
0.0378756
0.688251
0.0641249
0.686669
0.0879971
0.683369
0.106307
0.678461
0.117896
0.671976
0.127776
0.66396
0.138498
0.654578
0.148739
0.643895
0.159063
0.631933
0.169585
0.618756
0.180462
0.604341
0.192038
0.588677
0.205056
0.571586
0.220976
0.552791
0.242222
0.53188
0.275408
0.50783
0.327174
0.481296
0.438406
0.448272
0.596156
-0.160886
-0.423287
-0.121368
-0.43938
-0.0710688
-0.547576
-0.0217614
-0.54986
0.0282637
-0.565317
0.0794527
-0.582208
0.127934
-0.561157
0.170067
-0.502932
0.206036
-0.444309
0.2368
-0.39129
0.261945
-0.334044
0.282554
-0.285922
0.299987
-0.249922
0.314897
-0.219793
0.328059
-0.197058
0.340135
-0.180272
0.351493
-0.167258
0.362457
-0.157494
0.373224
-0.150321
0.383925
-0.144713
0.394607
-0.140192
0.405289
-0.135896
0.41591
-0.130751
0.426244
-0.121552
0.435909
-0.107914
0.444642
-0.0935006
0.452373
-0.0790618
0.45903
-0.06481
0.464577
-0.0506739
0.468957
-0.0367899
0.472174
-0.0231863
0.474206
-0.00987463
0.474994
0.0034582
0.474521
0.0172708
0.472602
0.032841
0.468959
0.0534645
0.462907
0.0841455
0.454311
0.146654
0.441893
0.255802
-0.202075
0.243594
-0.46454
0.285401
-0.471137
0.333474
-0.526029
0.374717
-0.462051
0.415065
-0.450362
0.454324
-0.434151
0.48914
-0.388478
0.521092
-0.35546
0.550118
-0.320774
0.575775
-0.283262
0.598905
-0.251858
0.61965
-0.221091
0.638158
-0.191701
0.654623
-0.164276
0.669182
-0.136717
0.681873
-0.109698
0.692701
-0.0817951
0.701594
-0.0536773
0.708563
-0.0243503
0.713444
0.00499101
0.716288
0.0350317
0.717145
0.0632678
0.71606
0.0890823
0.713255
0.109113
0.708784
0.122367
0.70267
0.13389
0.69496
0.146208
0.685747
0.157952
0.675104
0.169706
0.663084
0.181605
0.649748
0.193798
0.635072
0.206713
0.618997
0.221131
0.601415
0.238559
0.582048
0.26159
0.56051
0.296947
0.535797
0.35189
0.508767
0.465437
0.476295
0.628631
-0.161121
-0.464241
-0.119456
-0.481046
-0.0664546
-0.600578
-0.0145171
-0.601797
0.0381538
-0.617988
0.092031
-0.636085
0.143012
-0.612138
0.187219
-0.547139
0.22489
-0.48198
0.256981
-0.42338
0.28312
-0.360183
0.304376
-0.307178
0.322225
-0.267771
0.337375
-0.234943
0.350619
-0.210302
0.362695
-0.192348
0.373978
-0.178541
0.384844
-0.16836
0.395524
-0.161001
0.406175
-0.155363
0.416845
-0.150863
0.427576
-0.146626
0.438337
-0.141513
0.448903
-0.132117
0.458813
-0.117824
0.467825
-0.102513
0.475857
-0.0870943
0.482824
-0.0717768
0.488677
-0.0565276
0.493357
-0.0414692
0.49683
-0.0266599
0.49906
-0.0121048
0.500042
0.00247618
0.499674
0.0176382
0.497819
0.0346957
0.494191
0.0570912
0.488141
0.0901939
0.479752
0.155043
0.468105
0.267447
-0.204687
0.248427
-0.508279
0.292563
-0.515274
0.343319
-0.576785
0.386798
-0.50553
0.429307
-0.492871
0.470601
-0.475445
0.507275
-0.425152
0.540839
-0.389025
0.571247
-0.351181
0.598137
-0.310153
0.622402
-0.276122
0.644003
-0.242692
0.663277
-0.210975
0.680471
-0.18147
0.695628
-0.151874
0.708918
-0.122988
0.720283
-0.0931598
0.729738
-0.0631327
0.737172
-0.0317836
0.742608
-0.000444723
0.745955
0.0316848
0.747278
0.0619445
0.746723
0.0896378
0.744391
0.111444
0.740399
0.126359
0.734653
0.139636
0.727233
0.153628
0.718216
0.166968
0.707646
0.180277
0.695617
0.193633
0.682138
0.207278
0.667215
0.221635
0.650788
0.237559
0.632735
0.256611
0.61282
0.281504
0.590615
0.319151
0.565305
0.377199
0.537823
0.492918
0.505872
0.660584
-0.161511
-0.507417
-0.117635
-0.524922
-0.0617643
-0.656448
-0.00699239
-0.656569
0.0484535
-0.673433
0.10514
-0.692771
0.158828
-0.665826
0.205221
-0.593533
0.244727
-0.521486
0.278259
-0.456912
0.305447
-0.387372
0.327442
-0.329173
0.345808
-0.286137
0.361245
-0.250379
0.374623
-0.223681
0.386736
-0.20446
0.397977
-0.189783
0.408759
-0.179142
0.419345
-0.171587
0.429911
-0.16593
0.440561
-0.161512
0.45132
-0.157385
0.462191
-0.152384
0.472926
-0.142852
0.483062
-0.127961
0.492351
-0.111801
0.500665
-0.0954081
0.507941
-0.0790526
0.51408
-0.0626671
0.519046
-0.046435
0.522778
-0.0303923
0.525253
-0.0145797
0.526401
0.00132832
0.526154
0.0178857
0.524384
0.0364659
0.520783
0.0606923
0.5148
0.096178
0.506608
0.163235
0.495714
0.278341
-0.207624
0.253765
-0.55442
0.300343
-0.561851
0.353786
-0.630228
0.39973
-0.551474
0.444408
-0.53755
0.487974
-0.51901
0.526497
-0.463675
0.561777
-0.424305
0.593727
-0.383131
0.621927
-0.338353
0.647176
-0.301371
0.669813
-0.26533
0.689852
-0.231014
0.707762
-0.19938
0.723652
-0.167763
0.73748
-0.136816
0.74942
-0.1051
0.759376
-0.0730883
0.767358
-0.0397658
0.773245
-0.00633151
0.777061
0.0278685
0.778905
0.060101
0.778764
0.0897785
0.776895
0.113314
0.773314
0.12994
0.76795
0.145
0.760852
0.160726
0.752057
0.175763
0.741641
0.190693
0.729603
0.20567
0.716014
0.220867
0.70086
0.236789
0.684095
0.254324
0.665614
0.275092
0.645119
0.302
0.622336
0.341934
0.596428
0.403109
0.568476
0.520872
0.53707
0.691991
-0.162106
-0.552936
-0.115848
-0.57118
-0.056895
-0.715401
0.000785038
-0.714249
0.0592248
-0.731873
0.118922
-0.752468
0.175351
-0.722255
0.224172
-0.642354
0.265586
-0.562899
0.30071
-0.492035
0.32906
-0.415722
0.351883
-0.351996
0.370808
-0.305062
0.386593
-0.266163
0.400162
-0.23725
0.412321
-0.216619
0.423559
-0.201021
0.434255
-0.189837
0.444746
-0.182078
0.455227
-0.176412
0.465824
-0.172109
0.47659
-0.168151
0.487551
-0.163345
0.498446
-0.153747
0.508794
-0.138309
0.518311
-0.121318
0.526883
-0.103981
0.534426
-0.0865957
0.540866
-0.0691068
0.546101
-0.0516704
0.550107
-0.034398
0.552795
-0.0172681
0.554147
-2.38327e-05
0.554061
0.0179711
0.552356
0.0381706
0.548848
0.0641996
0.542923
0.102101
0.535006
0.171151
0.524879
0.288467
-0.210793
0.259463
-0.60309
0.308511
-0.6109
0.365021
-0.686739
0.413278
-0.59973
0.460478
-0.58475
0.50631
-0.564842
0.546941
-0.504306
0.583953
-0.461317
0.617486
-0.416664
0.647019
-0.367885
0.673546
-0.327898
0.697113
-0.288897
0.718092
-0.251993
0.736756
-0.218043
0.753274
-0.184281
0.76772
-0.151263
0.780176
-0.117556
0.790613
-0.0835248
0.799025
-0.0481782
0.805394
-0.0127003
0.809702
0.0235603
0.811916
0.0578871
0.812222
0.0894725
0.810804
0.114732
0.807639
0.133106
0.802694
0.149945
0.795913
0.167507
0.78734
0.184336
0.777038
0.200995
0.76506
0.217648
0.751396
0.234532
0.736046
0.252138
0.718975
0.271394
0.70007
0.293997
0.679083
0.322987
0.655713
0.365304
0.629249
0.429572
0.600874
0.549247
0.569973
0.722894
-0.162806
-0.600922
-0.114045
-0.619941
-0.0518744
-0.777571
0.00887274
-0.774996
0.0704518
-0.793452
0.133338
-0.815354
0.192772
-0.781689
0.244069
-0.693652
0.287556
-0.606386
0.324335
-0.528814
0.353953
-0.44534
0.377688
-0.375731
0.397244
-0.324618
0.413451
-0.28237
0.427255
-0.251053
0.439525
-0.228889
0.450758
-0.212255
0.461406
-0.200485
0.471806
-0.192478
0.482219
-0.186825
0.492736
-0.182626
0.503502
-0.178918
0.514515
-0.174358
0.525544
-0.164776
0.536076
-0.148842
0.545792
-0.131034
0.554624
-0.112813
0.562428
-0.0943997
0.569117
-0.0757965
0.574652
-0.057205
0.578905
-0.038651
0.581837
-0.0202001
0.583364
-0.00155075
0.58343
0.0179051
0.581863
0.0397376
0.578423
0.0676403
0.572638
0.107887
0.564971
0.178819
0.555628
0.297811
-0.214252
0.265539
-0.654378
0.317261
-0.662622
0.376824
-0.746301
0.427802
-0.650708
0.477446
-0.634394
0.525807
-0.613203
0.568456
-0.546954
0.607421
-0.500282
0.642651
-0.451894
0.673668
-0.398902
0.701371
-0.355602
0.72609
-0.313616
0.747949
-0.273852
0.767407
-0.237501
0.784567
-0.201441
0.799652
-0.166348
0.812616
-0.13052
0.823537
-0.0944458
0.832453
-0.0570941
0.83923
-0.0194765
0.843922
0.0188679
0.846562
0.055247
0.847268
0.0887674
0.846246
0.115753
0.843495
0.135857
0.838901
0.15454
0.832437
0.173971
0.824155
0.192618
0.814026
0.211124
0.802087
0.229587
0.788367
0.248252
0.772873
0.267632
0.755535
0.288733
0.736238
0.313294
0.714771
0.344454
0.690854
0.389221
0.663871
0.456556
0.635093
0.578026
0.604649
0.753339
-0.16362