/*--------------------------------*- C++ -*----------------------------------*\
  =========                 |
  \\      /  F ield         | OpenFOAM: The Open Source CFD Toolbox
   \\    /   O peration     | Website:  https://openfoam.org
    \\  /    A nd           | Version:  12
     \\/     M anipulation  |
\*---------------------------------------------------------------------------*/
FoamFile
{
    format      ascii;
    class       volVectorField;
    location    "150";
    object      U;
}
// * * * * * * * * * * * * * * * * * * * * * * * * * * * * * * * * * * * * * //

dimensions      [0 1 -1 0 0 0 0];

internalField   nonuniform List<vector> 
10720
(
(0.413588 28.1351 1.54636e-17)
(2.21052 30.4102 -1.43263e-17)
(4.45065 32.5991 0)
(7.01667 34.2851 -3.9984e-16)
(9.84606 35.5614 4.47956e-16)
(12.8724 36.3843 3.25202e-16)
(15.9393 36.6503 4.47454e-16)
(18.9536 36.4006 0)
(21.8373 35.6976 0)
(24.5125 34.5799 0)
(26.9506 33.1293 1.16346e-16)
(29.1389 31.433 0)
(31.0529 29.5206 2.34921e-15)
(32.6824 27.4233 0)
(34.0151 25.1703 0)
(35.0631 22.8072 0)
(35.814 20.3526 -3.9655e-15)
(36.2711 17.858 -5.9315e-15)
(36.4158 15.3477 5.27935e-15)
(36.2591 12.882 0)
(35.7835 10.4976 4.34416e-15)
(35.026 8.26821 -8.51562e-15)
(34.034 6.246 4.24273e-15)
(32.9171 4.49483 -1.27271e-16)
(31.8734 3.06297 0)
(30.988 1.89844 1.6843e-15)
(30.1652 0.913476 2.60676e-17)
(29.3067 0.0667079 -7.38305e-16)
(28.3753 -0.664674 -2.69577e-15)
(27.3671 -1.29547 -9.78809e-15)
(26.2854 -1.83238 4.36302e-15)
(25.1334 -2.27883 7.9554e-15)
(23.9091 -2.63586 6.86241e-15)
(22.6036 -2.90401 2.3451e-14)
(21.1702 -3.07899 -9.48347e-15)
(19.5713 -3.15882 -6.70815e-17)
(17.5067 -3.09162 2.17272e-17)
(15.0778 -2.86345 3.78444e-15)
(9.66543 -2.3069 1.38436e-14)
(-1.01548 25.6989 2.85872e-19)
(-2.17756 22.9467 -1.03518e-17)
(-3.00386 19.8431 4.98301e-17)
(-3.35995 16.2385 -1.4563e-16)
(-3.09126 12.5081 -4.96867e-16)
(-2.15542 8.78938 8.81908e-16)
(-0.624456 5.36567 4.4349e-15)
(1.2612 2.51303 2.5828e-15)
(3.24963 0.134503 0)
(5.46697 -1.91564 0)
(7.74044 -3.44304 2.01095e-15)
(9.84921 -4.43109 7.37483e-16)
(11.7232 -5.00208 -1.23231e-15)
(13.3657 -5.27987 1.01629e-15)
(14.7999 -5.36487 1.6786e-15)
(16.0588 -5.32248 1.08263e-15)
(17.1732 -5.20136 1.38086e-15)
(18.1754 -5.03096 9.16327e-16)
(19.0962 -4.83152 0)
(19.958 -4.60623 0)
(20.7788 -4.35673 -1.26029e-15)
(21.5699 -4.07267 -5.77354e-17)
(22.3332 -3.73864 8.47723e-16)
(23.0384 -3.32369 -5.8542e-16)
(23.6192 -2.82245 2.37729e-17)
(24.057 -2.27243 0)
(24.3777 -1.69994 9.33364e-17)
(24.5974 -1.12087 0)
(24.7228 -0.54657 0)
(24.7507 0.011684 1.10045e-17)
(24.6606 0.545775 0)
(24.4666 1.04875 3.65009e-17)
(24.1876 1.51457 7.94596e-18)
(23.8382 1.93778 -3.1803e-16)
(23.4132 2.3146 4.42115e-16)
(22.9026 2.64581 -2.3668e-18)
(22.1812 2.92391 0)
(21.1835 3.11094 4.9758e-15)
(18.3596 3.25152 9.00973e-15)
(7.04001 24.4414 -6.34953e-18)
(8.94311 26.1808 -1.73917e-18)
(11.2608 27.7568 0)
(13.9252 29.0652 0)
(16.7901 30.0453 -1.31471e-16)
(19.8591 30.6367 -3.11593e-16)
(23.0152 30.7947 0)
(26.124 30.5412 0)
(29.1295 29.8874 6.63172e-16)
(31.9433 28.8836 0)
(34.5106 27.59 2.44297e-15)
(36.8026 26.0552 0)
(38.8082 24.3523 8.75175e-16)
(40.537 22.5434 -8.62125e-16)
(41.9978 20.6484 1.73738e-15)
(43.1582 18.6971 -3.47579e-15)
(44.0171 16.7016 3.72126e-15)
(44.5641 14.687 3.40601e-15)
(44.799 12.6613 3.33621e-15)
(44.7036 10.6553 2.02787e-16)
(44.2782 8.69471 -3.48422e-15)
(43.5136 6.83379 3.30873e-15)
(42.435 5.11381 -1.86631e-16)
(41.0777 3.59214 0)
(39.5501 2.32026 0)
(37.9996 1.24495 0)
(36.4841 0.289259 1.40632e-16)
(34.9953 -0.556543 -3.142e-17)
(33.5348 -1.29479 1.97643e-15)
(32.0978 -1.93183 3.74889e-17)
(30.6687 -2.47027 -2.96868e-17)
(29.2298 -2.91255 -8.67445e-17)
(27.7624 -3.26087 4.72345e-15)
(26.2514 -3.51754 -7.92434e-15)
(24.6563 -3.68241 -4.29985e-17)
(22.958 -3.75637 -9.15516e-15)
(20.8986 -3.69887 0)
(18.6953 -3.50966 -1.09291e-15)
(13.3956 -2.75142 7.34092e-15)
(5.43084 22.5879 8.18818e-18)
(4.03358 20.5263 -4.17442e-17)
(2.8059 18.1119 -5.16542e-16)
(1.87245 15.3695 6.36374e-16)
(1.40957 12.3947 0)
(1.50307 9.32195 -1.35499e-15)
(2.17544 6.34811 -9.7153e-16)
(3.34432 3.68651 -7.38236e-15)
(4.84472 1.36478 2.29805e-15)
(6.59414 -0.553833 -1.74206e-15)
(8.47012 -1.95616 2.19765e-15)
(10.3148 -2.89 -6.26434e-16)
(12.0436 -3.47068 0)
(13.6242 -3.79566 -4.17969e-16)
(15.0478 -3.94787 5.31338e-17)
(16.3257 -3.9806 -9.31395e-16)
(17.4742 -3.93849 0)
(18.5163 -3.84669 0)
(19.476 -3.72312 -9.62028e-17)
(20.3757 -3.56524 9.24547e-17)
(21.231 -3.37118 -1.09097e-15)
(22.054 -3.12427 -1.17461e-16)
(22.8465 -2.80452 5.14991e-17)
(23.585 -2.37508 5.68503e-16)
(24.2155 -1.84887 -3.96927e-16)
(24.7132 -1.29304 -2.89712e-16)
(25.094 -0.736455 0)
(25.371 -0.190189 0)
(25.5473 0.339324 0)
(25.6298 0.843256 8.58641e-18)
(25.6461 1.31411 0)
(25.5922 1.74897 0)
(25.4576 2.14675 2.58746e-17)
(25.2365 2.50653 1.28759e-16)
(24.9207 2.83013 -3.58105e-16)
(24.5194 3.12301 7.34138e-16)
(23.931 3.38325 -2.34897e-15)
(23.3445 3.60528 -3.81791e-15)
(21.2469 3.6451 -6.07835e-15)
(8.36999 22.5063 -1.23173e-18)
(9.75445 24.03 1.52549e-17)
(11.4347 25.5089 -1.27874e-17)
(13.3645 26.8677 -4.06622e-17)
(15.4897 27.9889 -1.71729e-16)
(17.8107 28.8481 5.96756e-16)
(20.2532 29.4047 -4.18092e-16)
(22.7415 29.6219 -4.91502e-16)
(25.2207 29.4981 4.89683e-18)
(27.6329 29.0449 -6.40718e-16)
(29.9261 28.2832 5.95901e-16)
(32.0686 27.2429 -1.54861e-15)
(34.0326 25.9556 -7.40501e-16)
(35.8043 24.4489 0)
(37.3647 22.7587 -1.77466e-15)
(38.7285 20.9094 3.57e-15)
(39.9017 18.9207 0)
(40.8654 16.8362 -6.76666e-15)
(41.6099 14.6856 -3.38452e-15)
(42.1079 12.5212 3.94856e-16)
(42.3473 10.381 -3.91263e-16)
(42.3069 8.33295 -1.77467e-16)
(41.9882 6.42625 -2.52214e-15)
(41.3988 4.72346 1.26735e-15)
(40.5892 3.26954 0)
(39.6361 2.00874 1.10735e-15)
(38.5603 0.872488 -1.30799e-16)
(37.3556 -0.139316 0)
(36.0392 -1.02345 1.73902e-15)
(34.6383 -1.78412 3.22787e-15)
(33.1734 -2.42407 -5.69027e-15)
(31.6581 -2.9472 -4.89716e-15)
(30.0951 -3.35846 -1.05158e-16)
(28.4802 -3.66249 -6.95409e-15)
(26.7789 -3.8615 -5.57239e-15)
(24.9729 -3.95498 7.9838e-15)
(22.821 -3.90979 0)
(20.5447 -3.68265 -8.53299e-16)
(15.6662 -2.99889 -1.11653e-14)
(7.23457 20.8991 -1.34243e-17)
(6.23658 19.1399 -5.21395e-17)
(5.39705 17.0671 2.04679e-16)
(4.7199 14.7421 0)
(4.35307 12.2449 3.91616e-16)
(4.34626 9.64233 0)
(4.72761 7.06326 2.77982e-15)
(5.48055 4.66762 1.645e-15)
(6.55916 2.53466 1.51215e-15)
(7.90241 0.723229 0)
(9.39155 -0.715431 -2.21963e-15)
(10.9123 -1.79709 -4.75343e-16)
(12.392 -2.57727 2.15243e-15)
(13.7903 -3.11351 0)
(15.0875 -3.45858 -1.0008e-15)
(16.2816 -3.65718 -3.02238e-16)
(17.3786 -3.74816 1.24568e-15)
(18.3917 -3.75842 6.45085e-16)
(19.3375 -3.70712 1.77092e-16)
(20.2328 -3.60016 -9.62071e-17)
(21.09 -3.44042 9.94846e-16)
(21.9177 -3.2197 0)
(22.7162 -2.92467 0)
(23.4658 -2.53347 2.35151e-17)
(24.1228 -2.05941 0)
(24.6635 -1.55103 6.01509e-16)
(25.0983 -1.02775 -7.84932e-18)
(25.4387 -0.497374 -3.62242e-17)
(25.6883 0.0323323 0)
(25.8487 0.55132 -1.78015e-17)
(25.9252 1.05223 2.46699e-17)
(25.9233 1.52853 0)
(25.8449 1.97425 -3.29763e-17)
(25.6904 2.3842 0)
(25.4477 2.75659 0)
(25.1162 3.09223 3.89414e-17)
(24.5841 3.39046 -5.32107e-17)
(23.9747 3.61014 3.81568e-15)
(22.0986 3.65228 1.17677e-14)
(10.8928 20.6297 -1.07478e-17)
(12.1697 21.93 -7.65497e-18)
(13.6986 23.1955 -4.52811e-18)
(15.455 24.3515 -9.80399e-18)
(17.3904 25.3078 0)
(19.511 26.0462 0)
(21.76 26.5232 -6.99171e-16)
(24.0755 26.7042 8.38353e-16)
(26.4106 26.5828 0)
(28.7097 26.1613 -1.01797e-15)
(30.9211 25.4546 -1.29074e-15)
(33.0067 24.4856 -1.22042e-15)
(34.9322 23.2844 1.45532e-15)
(36.6706 21.8836 1.37304e-15)
(38.2022 20.3167 0)
(39.5127 18.6175 2.18153e-15)
(40.574 16.8284 7.55966e-16)
(41.3753 14.9826 6.09855e-15)
(41.9139 13.1062 3.69605e-16)
(42.1949 11.2278 -3.66453e-16)
(42.2258 9.37859 3.09887e-15)
(42.0218 7.60285 -5.07544e-16)
(41.611 5.94122 2.76407e-15)
(41.0295 4.43808 1.15401e-15)
(40.3334 3.12509 -6.83281e-17)
(39.5796 1.9652 -1.00176e-15)
(38.7715 0.90413 7.39664e-18)
(37.876 -0.0624952 -7.42124e-18)
(36.8741 -0.931078 -1.66654e-15)
(35.7592 -1.70204 -4.41154e-17)
(34.5284 -2.37156 2.78228e-15)
(33.1844 -2.93531 -4.73346e-15)
(31.7312 -3.39046 -3.82118e-15)
(30.1737 -3.7355 -2.03795e-18)
(28.49 -3.96858 5.06945e-15)
(26.6705 -4.08392 0)
(24.4965 -4.05187 4.14099e-15)
(22.1527 -3.78301 7.38335e-16)
(17.5297 -3.14173 4.65324e-15)
(9.81751 19.2678 -2.59766e-17)
(8.85159 17.7894 6.83863e-17)
(8.00264 16.0453 3.03042e-16)
(7.28996 14.0734 0)
(6.83983 11.9467 -3.48829e-16)
(6.69041 9.70907 0)
(6.86671 7.45975 -2.22536e-15)
(7.35395 5.32651 -1.00985e-16)
(8.12496 3.37912 1.10979e-15)
(9.14062 1.67262 9.86443e-16)
(10.3151 0.257406 3.50353e-17)
(11.5669 -0.858401 1.66538e-15)
(12.8353 -1.70359 -1.0801e-15)
(14.0767 -2.31782 3.427e-16)
(15.2635 -2.74107 1.16804e-15)
(16.3828 -3.01296 1.28473e-15)
(17.4317 -3.16788 -1.15035e-15)
(18.4138 -3.23296 5.7107e-18)
(19.3389 -3.22801 0)
(20.2182 -3.16245 1.1925e-15)
(21.0612 -3.03957 5.81987e-17)
(21.8741 -2.8539 -8.9261e-16)
(22.6563 -2.59448 0)
(23.3911 -2.24445 2.23119e-17)
(24.0422 -1.81102 0)
(24.5864 -1.33283 -2.8344e-16)
(25.0296 -0.832728 0)
(25.3819 -0.322503 3.39973e-17)
(25.6473 0.187746 -1.034e-18)
(25.8282 0.687539 5.69548e-19)
(25.9288 1.16786 -2.23439e-17)
(25.9546 1.62121 -7.56485e-19)
(25.9087 2.04358 0)
(25.793 2.43248 1.45325e-16)
(25.5979 2.78805 2.8179e-18)
(25.3227 3.11032 -7.44233e-16)
(24.8614 3.40021 4.78449e-15)
(24.3055 3.58911 1.15725e-17)
(22.6112 3.62183 0)
(12.4662 19.1931 -1.52471e-17)
(13.551 20.3443 -1.48478e-18)
(14.8563 21.4861 -7.4718e-18)
(16.348 22.5545 1.49342e-16)
(17.9845 23.467 -5.21288e-17)
(19.7874 24.218 -1.88555e-16)
(21.7098 24.7672 3.00848e-16)
(23.7041 25.0788 0)
(25.7399 25.142 1.17712e-15)
(27.7711 24.9494 5.48922e-16)
(29.7565 24.5017 0)
(31.6626 23.8089 1.17229e-15)
(33.4557 22.8876 -6.18139e-16)
(35.1076 21.7569 1.7191e-15)
(36.5959 20.4395 0)
(37.9 18.9589 -2.85864e-15)
(39.0069 17.333 2.72056e-15)
(39.9072 15.5819 -1.66974e-16)
(40.5859 13.7375 0)
(41.0273 11.8439 2.94539e-15)
(41.2217 9.94681 -2.97327e-15)
(41.1681 8.10425 -1.5174e-16)
(40.8837 6.36928 -2.31102e-15)
(40.404 4.79379 -2.12171e-15)
(39.7891 3.41367 0)
(39.1056 2.202 0)
(38.379 1.10731 -2.29424e-16)
(37.5982 0.116386 -2.56928e-17)
(36.7541 -0.772473 1.58455e-15)
(35.8405 -1.56385 -4.20611e-17)
(34.8443 -2.25813 4.19998e-17)
(33.7488 -2.85296 4.43129e-15)
(32.5351 -3.34505 0)
(31.1879 -3.73002 1.23359e-14)
(29.6736 -4.00202 -4.24631e-17)
(27.9791 -4.14875 0)
(25.9022 -4.14078 -3.16112e-17)
(23.6019 -3.85146 0)
(19.2004 -3.22757 -3.95577e-15)
(11.5468 17.9939 2.50582e-17)
(10.7181 16.7044 -1.61174e-16)
(9.96915 15.1822 1.77269e-16)
(9.31249 13.463 2.82402e-16)
(8.85983 11.6141 -1.11835e-15)
(8.64 9.65954 -1.44496e-15)
(8.68354 7.6742 1.75286e-15)
(8.98741 5.76376 -1.90787e-15)
(9.53775 3.99363 -8.59113e-16)
(10.3084 2.41136 -7.63908e-16)
(11.2372 1.0578 1.47351e-15)
(12.2628 -0.0523221 -1.41517e-15)
(13.3375 -0.934262 -6.19906e-16)
(14.4217 -1.61347 6.03336e-16)
(15.4865 -2.11567 -1.31002e-15)
(16.5149 -2.47084 2.40196e-16)
(17.4981 -2.70555 0)
(18.434 -2.84235 -9.10624e-16)
(19.3261 -2.89846 3.21981e-16)
(20.181 -2.88416 -1.24831e-15)
(21.0045 -2.80349 0)
(21.8004 -2.65367 7.73721e-16)
(22.5665 -2.42697 6.0731e-16)
(23.2881 -2.11235 -4.58733e-16)
(23.9341 -1.7157 0)
(24.4818 -1.26916 -3.02117e-16)
(24.9327 -0.796468 0)
(25.2947 -0.309621 0)
(25.5712 0.181723 0)
(25.7644 0.667269 3.43365e-17)
(25.8782 1.13798 0)
(25.9175 1.58711 0)
(25.8858 2.0095 -1.23762e-16)
(25.7856 2.40088 -1.38112e-16)
(25.609 2.7596 0)
(25.357 3.08338 -7.80371e-16)
(24.9319 3.37257 6.32257e-17)
(24.4232 3.54432 0)
(22.9212 3.56483 -5.11442e-15)
(13.9484 17.9365 1.83843e-17)
(14.9303 18.9563 -1.31069e-17)
(16.1075 19.9744 0)
(17.4476 20.9311 8.30712e-18)
(18.9105 21.7535 -1.25181e-16)
(20.5264 22.442 1.777e-16)
(22.2543 22.9582 4.51094e-17)
(24.0557 23.2701 -7.51621e-16)
(25.9096 23.3648 -9.17375e-17)
(27.7777 23.2313 1.1252e-15)
(29.6243 22.8654 -4.01377e-16)
(31.4197 22.2705 9.05369e-16)
(33.1305 21.4563 4.53032e-16)
(34.7273 20.4367 3.28553e-16)
(36.1847 19.23 0)
(37.4788 17.8577 -6.20381e-16)
(38.5887 16.345 -1.36949e-15)
(39.4898 14.7293 -5.0698e-15)
(40.1649 13.0444 1.4954e-15)
(40.6043 11.3218 -1.89852e-15)
(40.8036 9.59581 -2.97385e-16)
(40.7664 7.90788 0)
(40.5089 6.30107 2.06874e-15)
(40.062 4.81798 1.3178e-16)
(39.4767 3.49121 -5.8849e-17)
(38.8102 2.30803 -8.19979e-16)
(38.0912 1.23103 1.89109e-16)
(37.3192 0.249701 3.95736e-16)
(36.4952 -0.634765 -1.48108e-15)
(35.6241 -1.42522 -7.91212e-17)
(34.7054 -2.12321 2.52242e-15)
(33.7311 -2.72799 4.0969e-15)
(32.6841 -3.2378 0)
(31.5405 -3.64871 -1.83898e-17)
(30.2507 -3.95351 -4.61238e-15)
(28.7817 -4.13451 0)
(26.9232 -4.15982 -7.32545e-15)
(24.8121 -3.87181 0)
(20.7044 -3.27671 3.5843e-15)
(13.1078 16.8779 -2.52187e-17)
(12.3464 15.7469 6.57332e-17)
(11.6443 14.4087 0)
(11.0145 12.8938 0)
(10.556 11.2657 4.80204e-16)
(10.2885 9.53847 2.39379e-15)
(10.2404 7.76898 0)
(10.4156 6.04864 -1.39907e-15)
(10.806 4.43976 -1.34283e-15)
(11.3911 2.97933 1.34974e-15)
(12.1258 1.70057 -5.42991e-17)
(12.9641 0.621489 5.88544e-16)
(13.8695 -0.26526 2.96172e-17)
(14.8092 -0.97531 1.55395e-15)
(15.756 -1.52433 1.39339e-15)
(16.6921 -1.93381 -1.30729e-15)
(17.6056 -2.22392 1.8394e-16)
(18.4901 -2.41308 -3.41906e-16)
(19.3442 -2.51622 1.58195e-16)
(20.17 -2.54343 9.18594e-16)
(20.9703 -2.49946 1.18787e-16)
(21.7459 -2.38352 -8.58701e-17)
(22.4935 -2.19007 -5.17526e-16)
(23.1995 -1.91169 0)
(23.8371 -1.55323 2.1343e-17)
(24.3846 -1.14071 5.63149e-16)
(24.8398 -0.696882 -2.94722e-18)
(25.2083 -0.234168 2.92319e-18)
(25.4928 0.237276 0)
(25.695 0.706535 -3.22524e-17)
(25.8183 1.16395 0)
(25.8673 1.60169 0)
(25.845 2.01389 1.13769e-16)
(25.7541 2.3961 1.84214e-16)
(25.5869 2.74647 0)
(25.3446 3.0611 7.26587e-16)
(24.9361 3.33992 -4.45732e-15)
(24.4471 3.48832 2.0878e-17)
(23.1 3.48608 4.67969e-15)
(15.1565 16.8679 -6.25484e-20)
(16.0406 17.7828 -1.27013e-17)
(17.1001 18.7036 -1.29652e-19)
(18.3011 19.5744 1.26347e-19)
(19.6037 20.3301 8.48116e-17)
(21.0439 20.9766 0)
(22.5844 21.4801 -3.3857e-16)
(24.1927 21.8112 8.09029e-18)
(25.8564 21.9584 -3.38377e-16)
(27.543 21.9093 -6.83985e-16)
(29.2239 21.6563 0)
(30.8751 21.198 -1.6467e-15)
(32.466 20.5378 -1.41197e-15)
(33.9696 19.6833 -3.43045e-15)
(35.3605 18.6467 0)
(36.6135 17.4442 -2.10925e-15)
(37.7056 16.0961 -2.20976e-15)
(38.618 14.6219 2.39254e-15)
(39.334 13.0459 -2.35266e-15)
(39.8378 11.4016 2.1785e-15)
(40.119 9.7285 2.67417e-16)
(40.174 8.07427 -2.30214e-15)
(40.0119 6.48702 0)
(39.6569 5.01156 -1.97315e-15)
(39.1507 3.68026 1.15701e-16)
(38.543 2.4868 8.58525e-16)
(37.8633 1.40095 0)
(37.1168 0.411776 -2.93964e-17)
(36.3076 -0.479846 6.30141e-17)
(35.4448 -1.27635 2.42229e-15)
(34.5354 -1.9796 -2.24525e-15)
(33.5821 -2.58976 -3.89986e-15)
(32.5816 -3.10638 3.30561e-15)
(31.5248 -3.52785 -6.08604e-17)
(30.3738 -3.84913 4.4193e-15)
(29.1006 -4.05273 6.16585e-15)
(27.4945 -4.10743 3.55658e-15)
(25.6837 -3.8324 -1.0973e-17)
(21.9944 -3.28425 -3.74071e-18)
(14.3939 15.9202 1.0223e-17)
(13.7001 14.914 1.28567e-16)
(13.048 13.7212 1.75693e-16)
(12.4502 12.3695 -3.30261e-16)
(11.9961 10.9193 -1.3137e-15)
(11.7008 9.37695 4.32295e-16)
(11.5901 7.78615 1.11467e-15)
(11.6733 6.22861 2.87802e-15)
(11.9454 4.76356 1.16162e-15)
(12.3893 3.41838 -1.08939e-15)
(12.9714 2.22054 -3.69133e-17)
(13.6566 1.18803 -5.27261e-16)
(14.4171 0.316838 0)
(15.2265 -0.402694 -2.53584e-17)
(16.0613 -0.979582 -8.59465e-16)
(16.905 -1.42875 3.75379e-16)
(17.7448 -1.76458 -3.68107e-16)
(18.5718 -2.00071 0)
(19.3815 -2.14885 5.57817e-16)
(20.1726 -2.21769 -9.72562e-16)
(20.9447 -2.21155 0)
(21.6965 -2.13057 7.11858e-16)
(22.4234 -1.97108 0)
(23.1126 -1.72838 -2.68895e-17)
(23.7404 -1.40685 2.66133e-17)
(24.2858 -1.02783 -2.75843e-16)
(24.744 -0.612587 -5.00978e-18)
(25.1183 -0.174136 -2.99605e-18)
(25.4103 0.276906 7.6322e-19)
(25.6213 0.729378 -4.31933e-17)
(25.7539 1.17318 -6.04133e-17)
(25.8123 1.60022 9.07933e-17)
(25.7991 2.00421 2.50836e-18)
(25.7166 2.37991 2.60461e-17)
(25.5573 2.72454 0)
(25.3222 3.03211 1.41364e-17)
(24.9256 3.30143 2.06266e-15)
(24.4473 3.42812 -1.04584e-17)
(23.2172 3.39948 4.28247e-15)
(16.2127 15.928 3.85164e-18)
(17.023 16.7533 1.90483e-17)
(17.9925 17.5877 0)
(19.0873 18.3785 -2.50645e-17)
(20.2676 19.0672 3.3776e-17)
(21.5722 19.6634 0)
(22.9671 20.1361 -1.26042e-16)
(24.4241 20.4591 9.78812e-16)
(25.9362 20.6221 -1.3515e-15)
(27.4766 20.6125 4.31077e-16)
(29.0215 20.421 5.8309e-16)
(30.5518 20.0435 2.098e-15)
(32.0407 19.4792 1.4991e-15)
(33.4633 18.7311 1.7831e-15)
(34.795 17.8066 4.70164e-16)
(36.0103 16.7178 1.5511e-15)
(37.0854 15.4806 2.12249e-15)
(37.998 14.1163 2.05094e-15)
(38.726 12.655 -1.50666e-15)
(39.2528 11.1273 -4.60697e-15)
(39.5681 9.56747 0)
(39.669 8.01486 8.44901e-17)
(39.5635 6.51132 1.79243e-15)
(39.2725 5.09665 1.87795e-15)
(38.8304 3.80103 -1.06624e-16)
(38.2786 2.62539 -7.74927e-16)
(37.6446 1.54906 5.55339e-18)
(36.9359 0.563735 -3.93422e-16)
(36.1564 -0.328378 4.13955e-17)
(35.3145 -1.12773 -4.54298e-15)
(34.4172 -1.83504 -7.70113e-18)
(33.4697 -2.44958 -6.12979e-17)
(32.4738 -2.97041 -3.17709e-15)
(31.4304 -3.39584 -6.05442e-17)
(30.3181 -3.72199 -4.12548e-15)
(29.133 -3.93271 -1.17832e-14)
(27.6961 -4.00219 3.36761e-15)
(26.1795 -3.73696 6.2733e-16)
(23.0056 -3.24346 2.87687e-15)
(15.509 15.0747 -4.66163e-17)
(14.8668 14.1724 -1.75226e-16)
(14.2544 13.1009 -1.27714e-16)
(13.684 11.8845 -3.25699e-16)
(13.237 10.5815 7.34398e-16)
(12.9248 9.19239 -5.30312e-17)
(12.7712 7.75181 -2.83412e-15)
(12.7875 6.33478 -9.92243e-16)
(12.9708 4.99683 1.44394e-17)
(13.3066 3.75768 0)
(13.7685 2.64063 -9.33121e-16)
(14.3288 1.6624 8.72144e-16)
(14.9665 0.820032 -8.41463e-16)
(15.6608 0.107154 -4.31441e-16)
(16.3924 -0.480957 3.61126e-16)
(17.147 -0.954503 3.5882e-16)
(17.9126 -1.3229 1.28979e-15)
(18.6793 -1.59552 -3.05404e-16)
(19.4406 -1.78094 -5.21281e-16)
(20.1929 -1.88609 0)
(20.9333 -1.91452 -7.93393e-16)
(21.6585 -1.86678 -5.91088e-16)
(22.3626 -1.74031 -1.18831e-17)
(23.0334 -1.53238 -6.37259e-17)
(23.6493 -1.24706 -2.08913e-17)
(24.1904 -0.901632 3.19185e-16)
(24.6497 -0.515709 -6.16295e-18)
(25.0281 -0.102579 4.95385e-17)
(25.3264 0.326881 8.78882e-18)
(25.5453 0.761399 3.95644e-17)
(25.6867 1.19053 -1.02792e-17)
(25.754 1.6057 -1.99569e-16)
(25.7495 1.99997 -1.88199e-16)
(25.6754 2.36747 -1.87371e-16)
(25.5241 2.70464 -8.46502e-18)
(25.2962 3.00366 4.78578e-18)
(24.9114 3.26196 -2.07604e-15)
(24.4446 3.368 -2.9335e-15)
(23.3122 3.31344 -3.93774e-15)
(17.1264 15.0965 -1.17854e-17)
(17.8734 15.8455 -6.86771e-18)
(18.7659 16.6055 -1.18671e-17)
(19.7699 17.3276 -2.7277e-17)
(20.8461 17.9575 6.34741e-17)
(22.0341 18.5084 -1.49956e-16)
(23.3026 18.9518 4.77393e-16)
(24.6263 19.2647 0)
(26.0025 19.4387 4.12361e-16)
(27.4078 19.4616 1.11422e-17)
(28.8234 19.324 -5.00713e-16)
(30.2343 19.0203 -1.93464e-15)
(31.6177 18.5472 -7.83568e-16)
(32.9512 17.9043 0)
(34.2124 17.0954 0)
(35.3768 16.1282 0)
(36.4204 15.0155 0)
(37.3205 13.7747 -1.98532e-15)
(38.0567 12.4261 1.97153e-15)
(38.6105 10.9972 1.92885e-15)
(38.9689 9.52101 -1.55161e-15)
(39.1255 8.03701 1.36011e-15)
(39.0843 6.58702 -1.40155e-15)
(38.8617 5.21077 -1.02532e-16)
(38.4861 3.93784 -4.66633e-17)
(37.9928 2.7731 7.84522e-16)
(37.408 1.70244 1.68808e-16)
(36.7421 0.719317 0)
(36.0001 -0.173752 0)
(35.1896 -0.975982 3.80694e-17)
(34.3173 -1.68743 0)
(33.3874 -2.30671 3.38299e-15)
(32.4015 -2.83212 -3.00556e-15)
(31.3621 -3.26104 -4.84867e-15)
(30.2531 -3.58924 7.69834e-15)
(29.0851 -3.79932 5.61213e-15)
(27.7117 -3.87061 -3.2161e-15)
(26.3737 -3.6016 -1.21925e-15)
(23.7114 -3.15248 -2.75671e-15)
(16.4738 14.3229 0)
(15.8764 13.5077 4.90434e-17)
(15.2995 12.5378 2.43634e-16)
(14.7551 11.435 -1.05269e-15)
(14.3181 10.2558 9.26085e-16)
(13.9965 8.99575 -7.50975e-16)
(13.8133 7.683 7.62586e-18)
(13.7808 6.38803 7.55098e-16)
(13.8968 5.16226 8.02313e-16)
(14.1489 4.0199 0)
(14.5156 2.98067 3.87321e-16)
(14.9743 2.05985 -1.18402e-15)
(15.5088 1.25442 1.87885e-15)
(16.1029 0.55955 3.42628e-16)
(16.741 -0.0273338 -6.9757e-16)
(17.4119 -0.512975 -6.49954e-16)
(18.1046 -0.903207 -5.97714e-16)
(18.8096 -1.20387 0)
(19.5199 -1.42055 0)
(20.23 -1.55799 0)
(20.9354 -1.6187 7.45929e-16)
(21.6311 -1.60299 0)
(22.3104 -1.50894 -4.80945e-16)
(22.9611 -1.33504 -6.1475e-17)
(23.5634 -1.08497 -3.69986e-16)
(24.0982 -0.772871 -2.83108e-16)
(24.5567 -0.416479 0)
(24.9379 -0.0290979 -4.13194e-17)
(25.2416 0.378253 -9.33967e-18)
(25.4676 0.794215 1.73927e-18)
(25.6172 1.20806 1.39547e-16)
(25.6932 1.61077 -1.76211e-17)
(25.6975 1.99496 1.82691e-16)
(25.6317 2.35401 -2.25988e-16)
(25.4884 2.68354 0)
(25.2681 2.97391 -1.36068e-17)
(24.8956 3.22092 -3.48645e-17)
(24.4425 3.30819 2.78972e-15)
(23.3997 3.22958 -2.35656e-17)
(17.9295 14.3514 1.41748e-17)
(18.6234 15.0341 0)
(19.4513 15.7285 4.35335e-17)
(20.3793 16.3889 -9.41473e-18)
(21.3686 16.9651 -3.70111e-17)
(22.459 17.4721 1.40756e-16)
(23.6211 17.884 -2.10952e-16)
(24.8319 18.1806 -2.52468e-16)
(26.0913 18.355 0)
(27.3794 18.3959 -4.33381e-16)
(28.6808 18.2943 -4.63023e-16)
(29.9842 18.0438 4.59479e-16)
(31.2699 17.6398 1.7107e-15)
(32.5191 17.0793 6.83608e-16)
(33.7115 16.363 -2.0676e-15)
(34.8237 15.4955 -1.48687e-15)
(35.8329 14.486 1.16905e-15)
(36.7163 13.3483 8.61508e-16)
(37.4524 12.1018 -4.31442e-16)
(38.0213 10.7727 4.29983e-16)
(38.4083 9.3908 1.09105e-15)
(38.6062 7.99113 2.03008e-16)
(38.6164 6.61158 -1.90691e-16)
(38.4517 5.28901 -1.2684e-15)
(38.1352 4.05153 0)
(37.6961 2.9072 -6.64836e-16)
(37.1585 1.84848 -3.17383e-16)
(36.5345 0.871824 -2.92764e-16)
(35.8303 -0.0192417 -1.08288e-15)
(35.0537 -0.822461 4.05386e-15)
(34.2111 -1.53686 1.66918e-15)
(33.3067 -2.16035 3.92466e-18)
(32.3411 -2.69038 3.86453e-17)
(31.3156 -3.12329 0)
(30.2143 -3.45387 -3.63587e-15)
(29.0493 -3.66232 0)
(27.6908 -3.73117 0)
(26.4076 -3.44897 5.88689e-16)
(24.1531 -3.02162 4.66418e-18)
(17.3201 13.6466 -4.78764e-17)
(16.7611 12.9059 1.64391e-16)
(16.2152 12.0229 1.10041e-17)
(15.6946 11.0175 2.3444e-16)
(15.2691 9.94377 -8.48488e-16)
(14.9432 8.79392 6.317e-16)
(14.7396 7.59138 3.48831e-17)
(14.6712 6.40334 -6.30649e-16)
(14.7358 5.27666 -6.20563e-16)
(14.9226 4.22186 -6.62787e-16)
(15.2136 3.25604 -1.31918e-15)
(15.5896 2.39287 0)
(16.0377 1.62867 -6.79473e-16)
(16.5453 0.959132 -2.41713e-17)
(17.1001 0.382952 0)
(17.6934 -0.104757 -5.74352e-16)
(18.3162 -0.507153 -2.73871e-16)
(18.9601 -0.827477 -2.58202e-16)
(19.6179 -1.0688 8.93024e-16)
(20.2837 -1.23371 7.98517e-16)
(20.9515 -1.3233 -8.30763e-17)
(21.6154 -1.33744 6.19663e-16)
(22.268 -1.27442 1.23405e-16)
(22.897 -1.13326 -5.91681e-17)
(23.484 -0.917296 3.30326e-16)
(24.0104 -0.638115 2.0165e-17)
(24.4663 -0.311423 0)
(24.8488 0.0497504 0)
(25.1567 0.434309 -1.83595e-18)
(25.389 0.830922 4.61118e-18)
(25.5463 1.22866 -1.55511e-16)
(25.6306 1.6181 -1.71755e-17)
(25.6434 1.99141 2.40484e-16)
(25.5859 2.34125 2.16394e-16)
(25.4509 2.66242 1.0109e-17)
(25.2386 2.94358 3.64426e-18)
(24.8792 3.1789 3.86396e-15)
(24.4411 3.24883 -2.66632e-15)
(23.4839 3.14871 2.19957e-17)
(18.6389 13.6783 5.42321e-18)
(19.2867 14.303 0)
(20.0587 14.9396 -2.79111e-17)
(20.921 15.5449 0)
(21.8354 16.0729 -8.27064e-17)
(22.8416 16.5394 8.01322e-17)
(23.9116 16.921 1.60804e-16)
(25.024 17.1998 2.38164e-16)
(26.1807 17.3701 0)
(27.3641 17.4221 -2.89045e-16)
(28.5619 17.3476 4.74629e-16)
(29.7658 17.14 -9.72326e-16)
(30.9591 16.7939 -5.43267e-16)
(32.1257 16.305 -5.51224e-16)
(33.2478 15.6718 1.31803e-15)
(34.3042 14.8964 1.42204e-15)
(35.2732 13.9848 -1.51961e-15)
(36.1327 12.948 -1.50739e-15)
(36.8615 11.8016 0)
(37.4398 10.5674 3.94989e-16)
(37.8513 9.27226 -7.64728e-16)
(38.0868 7.94905 1.88373e-16)
(38.1449 6.63368 4.17026e-18)
(38.0348 5.36132 3.00041e-15)
(37.7748 4.15895 -1.64051e-16)
(37.3885 3.03655 9.94362e-17)
(36.8979 1.99153 2.94701e-16)
(36.3156 1.02311 3.11998e-16)
(35.6491 0.135682 9.35909e-16)
(34.9063 -0.667148 -1.87432e-15)
(34.0942 -1.38337 -1.53706e-15)
(33.2171 -2.01023 -6.02925e-15)
(32.2759 -2.54443 5.19344e-15)
(31.2714 -2.98129 -7.35686e-17)
(30.1872 -3.31471 3.39958e-15)
(29.0333 -3.5223 -1.06237e-16)
(27.6896 -3.58901 5.91708e-17)
(26.4001 -3.29359 4.16524e-18)
(24.4189 -2.86538 -2.12822e-15)
(18.0673 13.0335 2.33636e-17)
(17.5419 12.3571 -8.52649e-17)
(17.024 11.5495 1.68805e-16)
(16.5255 10.6283 0)
(16.112 9.6458 4.9622e-16)
(15.7858 8.59113 0)
(15.5685 7.48493 0)
(15.4735 6.39099 0)
(15.4986 5.35227 1.15573e-15)
(15.6342 4.37661 -5.72426e-16)
(15.8645 3.47912 6.46572e-16)
(16.173 2.67212 0)
(16.549 1.95107 0)
(16.9825 1.3115 -5.8727e-16)
(17.4638 0.752679 0)
(17.9864 0.270826 5.35293e-16)
(18.5434 -0.135883 1.24196e-17)
(19.1278 -0.468587 0)
(19.733 -0.728278 -6.38642e-16)
(20.3529 -0.915789 -9.47055e-16)
(20.9813 -1.03088 -6.5995e-16)
(21.6115 -1.07261 -5.75135e-16)
(22.2355 -1.039 9.86259e-16)
(22.8413 -0.929238 0)
(23.4113 -0.74618 3.31776e-16)
(23.9275 -0.499202 3.08357e-16)
(24.3789 -0.202105 1.1623e-16)
(24.7613 0.132599 0)
(25.0722 0.493879 -8.94593e-18)
(25.31 0.870491 -5.53846e-17)
(25.4743 1.25143 1.6481e-16)
(25.5666 1.62692 -1.66938e-17)
(25.5877 1.98871 -2.20292e-16)
(25.5386 2.32877 2.43091e-16)
(25.4121 2.64107 -2.07273e-18)
(25.2082 2.91268 9.90785e-18)
(24.8627 3.13597 -3.76809e-15)
(24.4406 3.19026 2.49771e-15)
(23.5654 3.07148 6.14539e-15)
(19.2699 13.0658 2.31785e-18)
(19.8774 13.6392 -1.584e-17)
(20.6004 14.2242 0)
(21.4056 14.78 -3.90257e-18)
(22.2553 15.2642 0)
(23.1884 15.6929 0)
(24.1783 16.0452 1.86307e-17)
(25.2049 16.3048 2.06213e-16)
(26.2714 16.4675 4.75442e-16)
(27.3622 16.5246 1.20811e-15)
(28.4672 16.4688 6.81101e-16)
(29.5805 16.2939 7.83953e-16)
(30.6879 15.9941 0)
(31.7763 15.5643 1.5185e-15)
(32.8302 15.0015 -5.37269e-16)
(33.8304 14.3057 0)
(34.7569 13.4805 1.26884e-15)
(35.5886 12.534 1.44421e-15)
(36.305 11.479 0)
(36.8861 10.3346 1.40443e-15)
(37.3146 9.12519 -1.37224e-15)
(37.58 7.8802 0)
(37.6789 6.63238 -1.62469e-16)
(37.6172 5.41451 3.14245e-17)
(37.4088 4.25212 7.73834e-17)
(37.0729 3.15647 1.15925e-15)
(36.6281 2.12895 -3.96462e-18)
(36.0874 1.17166 -3.087e-17)
(35.4587 0.290216 -2.59823e-17)
(34.75 -0.510524 5.68524e-17)
(33.9683 -1.22728 1.54891e-15)
(33.1188 -1.85649 5.45704e-15)
(32.2027 -2.3941 4.28832e-17)
(31.2211 -2.83446 -3.96222e-15)
(30.1587 -3.17069 -3.0899e-15)
(29.0235 -3.37807 -4.57137e-15)
(27.7067 -3.44321 -2.66299e-15)
(26.4071 -3.14071 2.09644e-17)
(24.5958 -2.69837 1.98439e-15)
(18.7316 12.4738 -5.43266e-17)
(18.236 11.8538 -2.04835e-16)
(17.7434 11.1121 4.08041e-16)
(17.2656 10.2647 0)
(16.8644 9.36172 8.09522e-16)
(16.5406 8.39038 0)
(16.3145 7.36908 -4.52642e-16)
(16.1997 6.35854 1.81977e-15)
(16.1944 5.39817 -1.41023e-15)
(16.2895 4.49422 0)
(16.4711 3.65993 1.04968e-15)
(16.7243 2.90644 1.01671e-15)
(17.0402 2.22857 0)
(17.4103 1.62167 -1.00582e-15)
(17.8272 1.08489 2.43996e-16)
(18.2862 0.614709 -2.44112e-16)
(18.7822 0.210216 2.38127e-16)
(19.3096 -0.128464 4.19175e-16)
(19.8631 -0.400825 -1.50838e-17)
(20.4368 -0.606162 5.09403e-16)
(21.0245 -0.74297 1.51468e-16)
(21.6194 -0.80944 -1.44611e-16)
(22.2133 -0.803221 -4.68393e-16)
(22.7946 -0.72321 4.03379e-16)
(23.346 -0.5716 -2.94655e-16)
(23.85 -0.355975 -3.12735e-16)
(24.2953 -0.0882361 -1.10577e-16)
(24.676 0.219831 -1.26476e-18)
(24.9887 0.557387 9.80807e-18)
(25.231 0.913402 5.29711e-17)
(25.4017 1.27685 8.90025e-18)
(25.5015 1.63769 -1.61743e-17)
(25.5309 1.98726 2.75612e-16)
(25.4901 2.3169 -2.4931e-16)
(25.3723 2.61973 1.04003e-17)
(25.1772 2.88138 -7.48148e-16)
(24.8463 3.09248 1.83137e-15)
(24.4413 3.13266 0)
(23.6444 2.99763 -5.89239e-15)
(19.8341 12.5049 8.97605e-18)
(20.4059 13.0327 0)
(21.0855 13.5714 0)
(21.8403 14.0827 -1.31777e-17)
(22.6329 14.5271 -1.95844e-17)
(23.5018 14.9211 0)
(24.4212 15.2454 0)
(25.3721 15.4857 -6.79745e-16)
(26.3587 15.6388 -3.4042e-17)
(27.367 15.6972 -4.11968e-17)
(28.3883 15.6545 -1.57633e-15)
(29.419 15.5049 -4.10831e-16)
(30.4469 15.2429 7.8168e-16)
(31.4612 14.8629 -6.68092e-17)
(32.4488 14.3611 0)
(33.3928 13.7358 0)
(34.2749 12.9888 -3.48207e-15)
(35.0754 12.1255 -6.38377e-16)
(35.7745 11.1566 6.52881e-16)
(36.353 10.0974 -1.36258e-15)
(36.793 8.96956 2.58662e-15)
(37.0827 7.79972 1.22445e-15)
(37.2168 6.61788 -1.1844e-15)
(37.1985 5.45468 -1.33577e-15)
(37.0378 4.33423 2.1156e-16)
(36.7497 3.26822 -1.14224e-15)
(36.3498 2.26097 -1.28838e-16)
(35.8504 1.31725 2.87161e-17)
(35.2598 0.443857 -2.86787e-17)
(34.5856 -0.353038 9.63454e-17)
(33.8351 -1.06896 -3.98529e-17)
(33.0136 -1.69947 -2.69592e-15)
(32.1229 -2.23965 -1.02122e-16)
(31.1646 -2.68294 1.21215e-16)
(30.1251 -3.02159 0)
(29.0117 -3.22911 4.25094e-15)
(27.7288 -3.29246 2.49395e-15)
(26.437 -2.98934 0)
(24.7412 -2.52939 0)
(19.3256 11.9599 0)
(18.8566 11.3896 1.83646e-16)
(18.3873 10.7062 -6.12074e-16)
(17.9289 9.92416 -2.9783e-16)
(17.5401 9.09126 -7.354e-16)
(17.2206 8.19343 0)
(16.9892 7.24763 0)
(16.8599 6.3115 -8.14635e-16)
(16.8311 5.42139 8.53397e-16)
(16.8941 4.58231 0)
(17.0362 3.8061 -4.45199e-16)
(17.2441 3.10308 -4.80679e-16)
(17.5097 2.46761 4.5544e-16)
(17.8259 1.89444 4.72903e-16)
(18.1867 1.38245 -8.78674e-16)
(18.5889 0.928249 0)
(19.029 0.53114 -1.99372e-16)
(19.5028 0.191961 1.20189e-17)
(20.0061 -0.087866 8.86177e-16)
(20.534 -0.306475 -1.64847e-16)
(21.0805 -0.461221 1.58091e-16)
(21.6391 -0.54948 -1.21225e-16)
(22.2018 -0.56836 1.71692e-16)
(22.757 -0.516295 -8.19868e-16)
(23.2883 -0.394616 -2.91949e-16)
(23.7785 -0.209258 2.54641e-16)
(24.2158 0.0295859 -1.56298e-17)
(24.5934 0.31104 0)
(24.9067 0.624613 -9.32871e-18)
(25.1524 0.959539 5.64743e-17)
(25.3289 1.30488 -8.51253e-17)
(25.4358 1.65039 1.4821e-16)
(25.473 1.98708 -5.58669e-16)
(25.4407 2.30568 5.80615e-16)
(25.3317 2.59848 -8.83521e-18)
(25.1459 2.84982 7.08737e-16)
(24.8304 3.04852 3.36231e-17)
(24.4434 3.07624 -7.26171e-17)
(23.7208 2.92764 -5.28556e-15)
(20.341 11.9888 -8.64983e-18)
(20.8807 12.4756 0)
(21.5215 12.9725 0)
(22.2313 13.4433 1.41556e-17)
(22.9734 13.8515 1.99496e-17)