/*--------------------------------*- C++ -*----------------------------------*\
  =========                 |
  \\      /  F ield         | OpenFOAM: The Open Source CFD Toolbox
   \\    /   O peration     | Website:  https://openfoam.org
    \\  /    A nd           | Version:  12
     \\/     M anipulation  |
\*---------------------------------------------------------------------------*/
FoamFile
{
    format      ascii;
    class       volScalarField;
    location    "0.16";
    object      epsilon;
}
// * * * * * * * * * * * * * * * * * * * * * * * * * * * * * * * * * * * * * //

dimensions      [0 2 -3 0 0 0 0];

internalField   nonuniform List<scalar> 
12225
(
278.515
263.66
249.434
236.839
226.738
219.484
215.07
213.265
213.709
215.995
219.719
224.512
230.054
236.081
242.392
248.819
255.4
264.932
61.1161
86.6956
97.992
107.209
118.467
132.561
149.417
168.621
189.592
211.703
234.365
257.067
279.405
301.083
322.011
342.029
362.683
381.302
25.2776
36.1831
43.3819
48.6217
53.387
58.3374
63.7725
69.8285
76.5306
83.8305
91.6384
99.8452
108.34
117.023
125.828
134.737
143.905
153.33
17.5217
21.2987
24.7146
27.6102
30.1622
32.5405
34.8674
37.2291
39.6788
42.243
44.9294
47.7336
50.6446
53.6504
56.7427
59.9301
63.2323
66.6779
15.4878
16.7519
18.1859
19.589
20.9096
22.1492
23.3267
24.4657
25.5871
26.7062
27.8327
28.9725
30.1283
31.3018
32.4947
33.7124
34.96
36.2348
14.9084
15.2396
15.7464
16.3341
16.9477
17.559
18.156
18.7359
19.3005
19.8531
20.3969
20.9345
21.4681
21.9996
22.5306
23.0637
23.6007
24.1358
14.7451
14.7391
14.8342
15.0036
15.2216
15.468
15.7287
15.995
16.2621
16.5277
16.7906
17.0504
17.3072
17.5614
17.8134
18.064
18.3137
18.5584
14.7012
14.5825
14.5116
14.4858
14.4981
14.5403
14.6043
14.6838
14.7738
14.8709
14.9727
15.0774
15.184
15.2918
15.4003
15.5093
15.6186
15.7255
14.6901
14.5373
14.407
14.3009
14.2182
14.1571
14.1145
14.0876
14.0733
14.0693
14.0736
14.0845
14.1008
14.1214
14.1455
14.1727
14.2022
14.2326
14.6874
14.5252
14.3761
14.2411
14.1204
14.0137
13.9203
13.8391
13.7688
13.7083
13.6564
13.612
13.5741
13.5419
13.5148
13.4921
13.4733
13.4576
14.6868
14.5221
14.3677
14.2236
14.0896
13.9655
13.8512
13.746
13.6495
13.561
13.4801
13.406
13.3383
13.2763
13.2197
13.1678
13.1204
13.0773
14.6866
14.5213
14.3656
14.219
14.0812
13.9518
13.8305
13.7168
13.6105
13.5111
13.4181
13.3314
13.2503
13.1746
13.104
13.038
12.9764
12.9194
14.6865
14.521
14.3648
14.2175
14.0785
13.9472
13.8234
13.7065
13.5963
13.4922
13.3941
13.3015
13.2142
13.1319
13.0542
12.981
12.912
12.8475
14.6864
14.5208
14.3645
14.2169
14.0774
13.9456
13.8209
13.7029
13.5912
13.4855
13.3853
13.2904
13.2005
13.1152
13.0344
12.9578
12.8852
12.8171
14.6864
14.5207
14.3643
14.2165
14.0769
13.9449
13.8199
13.7016
13.5895
13.4832
13.3824
13.2868
13.196
13.1098
13.0279
12.9501
12.8762
12.8067
14.6863
14.5206
14.3641
14.2163
14.0766
13.9444
13.8193
13.7009
13.5886
13.4822
13.3812
13.2854
13.1943
13.1078
13.0257
12.9475
12.8732
12.8033
14.6863
14.5205
14.364
14.2161
14.0763
13.9441
13.8189
13.7004
13.5881
13.4815
13.3805
13.2845
13.1934
13.1068
13.0245
12.9462
12.8718
12.8018
14.6863
14.5204
14.3639
14.216
14.0761
13.9439
13.8187
13.7001
13.5877
13.4811
13.3799
13.2839
13.1928
13.1061
13.0237
12.9454
12.8709
12.8008
14.6863
14.5204
14.3639
14.2159
14.0761
13.9438
13.8186
13.6999
13.5875
13.4809
13.3797
13.2837
13.1925
13.1058
13.0234
12.945
12.8704
12.8003
14.6863
14.5205
14.3639
14.216
14.0762
13.9439
13.8187
13.7001
13.5877
13.4811
13.38
13.284
13.1928
13.1061
13.0237
12.9454
12.8709
12.8008
14.6863
14.5205
14.364
14.2162
14.0764
13.9443
13.8192
13.7007
13.5885
13.4821
13.3812
13.2854
13.1946
13.1082
13.0262
12.9483
12.8743
12.8046
14.6863
14.5206
14.3643
14.2167
14.0773
13.9457
13.8214
13.7039
13.5928
13.4879
13.3886
13.2947
13.2059
13.1219
13.0423
12.967
12.8957
12.8289
14.6865
14.5212
14.3659
14.2202
14.0837
13.956
13.8368
13.7256
13.6218
13.525
13.4348
13.3506
13.272
13.1986
13.1301
13.0659
13.006
12.9505
14.6876
14.5264
14.3793
14.2467
14.1282
14.0231
13.9302
13.8484
13.7762
13.7126
13.6564
13.6068
13.5628
13.5237
13.489
13.4581
13.4306
13.4065
14.6976
14.5664
14.4707
14.4075
14.3714
14.3568
14.3584
14.3719
14.3941
14.4223
14.455
14.4907
14.5285
14.5679
14.6083
14.6494
14.691
14.733
14.7737
14.8187
14.9602
15.1591
15.3863
15.6233
15.8597
16.0903
16.3133
16.5282
16.7356
16.9362
17.1309
17.3206
17.506
17.6877
17.8662
18.041
15.2587
16.1151
17.0712
17.9727
18.7878
19.5237
20.1943
20.8146
21.3985
21.9569
22.4981
23.0284
23.5519
24.0716
24.5891
25.1054
25.6206
26.1322
18.0414
22.0078
24.9885
27.1531
28.8882
30.4046
31.8121
33.1779
34.5431
35.9301
37.35
38.8067
40.2992
41.8236
43.3743
44.9449
46.529
48.1135
34.024
45.6877
51.3767
54.9421
58.0805
61.2973
64.7498
68.4818
72.4772
76.6932
81.0794
85.5862
90.167
94.7801
99.3898
103.967
108.497
112.951
163.308
157.417
151.704
146.261
141.3
136.947
133.25
130.206
127.78
125.918
124.558
123.636
123.092
122.869
122.915
123.184
123.638
124.238
0.394032
0.424839
0.684942
0.927714
1.19611
1.49683
1.83503
2.21603
2.6189
3.02798
3.44105
3.85461
4.26544
4.67095
5.06911
5.45833
5.83733
6.20495
6.56008
6.90154
7.22799
7.53786
7.82934
8.10037
8.3486
8.57136
8.76576
8.92925
9.06074
9.16107
9.22818
9.24174
9.14712
39.3833
9.2976
39.5806
9.266
9.34428
40.0186
40.6295
40.2379
41.065
42.2775
45.055
48.043
51.2003
54.521
58.0036
61.6481
65.4558
69.429
73.57
77.8814
82.366
87.0264
91.865
96.8843
102.086
107.473
113.046
118.806
124.755
130.892
137.219
143.734
150.438
157.328
164.404
171.663
179.102
186.72
194.512
202.474
210.603
218.893
227.338
235.934
244.674
253.551
262.559
271.69
280.935
290.288
299.739
309.28
318.901
328.592
338.343
348.144
357.984
367.852
377.735
387.623
397.502
407.361
417.192
426.986
436.747
446.488
456.253
465.933
475.48
484.893
494.161
503.269
512.204
520.948
529.486
537.802
545.881
553.707
561.266
568.543
575.524
582.196
588.545
594.56
600.229
605.54
610.485
615.053
619.235
623.025
626.416
629.402
631.977
634.138
635.881
637.206
638.11
638.595
638.66
638.309
637.544
636.369
634.79
632.813
630.444
627.692
624.565
621.074
617.228
613.039
608.518
603.679
598.535
593.099
587.385
581.409
575.185
568.73
562.057
555.185
548.128
540.902
533.526
526.013
518.375
510.641
502.812
494.92
486.974
478.976
471.029
463.339
458.63
455.775
453
450.215
447.418
444.608
441.787
438.946
436.063
433.094
429.936
426.356
421.749
414.615
398.715
1.31685
0.807062
0.82841
0.954304
1.13425
1.35594
1.61518
1.9067
2.2223
2.55402
2.89612
3.24441
3.59596
3.94878
4.30165
4.6539
5.00532
5.35605
5.70657
6.0577
6.41061
6.76695
7.12902
7.50001
7.88433
8.28789
8.71857
9.18703
9.70867
10.3079
11.028
11.9446
13.1313
14.5807
14.9509
16.7461
17.4925
18.7217
20.493
21.8718
23.5919
25.0855
26.8148
28.3672
29.9348
31.5511
33.2243
34.9569
36.7503
38.6063
40.526
42.5108
44.5616
46.6794
48.865
51.119
53.4421
55.8347
58.297
60.8294
63.4319
66.1045
68.8469
71.6589
74.5399
77.4896
80.507
83.5913
86.7416
89.9566
93.2351
96.5756
99.9765
103.436
106.952
110.523
114.147
117.821
121.543
125.31
129.12
132.97
136.856
140.776
144.727
148.704
152.705
156.725
160.761
164.81
168.865
172.925
176.984
181.038
185.085
189.123
193.151
197.175
201.202
205.273
209.336
213.355
217.325
221.24
225.093
228.879
232.592
236.226
239.775
243.232
246.592
249.85
252.998
256.033
258.948
261.739
264.4
266.927
269.316
271.562
273.661
275.61
277.405
279.044
280.524
281.843
282.998
283.988
284.812
285.468
285.957
286.278
286.432
286.419
286.241
285.897
285.392
284.726
283.902
282.923
281.792
280.514
279.09
277.527
275.827
273.996
272.039
269.961
267.767
265.463
263.055
260.548
257.948
255.262
252.494
249.653
246.744
243.77
240.744
237.664
234.547
231.39
228.186
225.03
221.978
219.495
217.411
215.404
213.415
211.432
209.454
207.483
205.517
203.558
201.602
199.641
197.654
195.631
193.453
192.252
2.51982
1.3141
1.20898
1.27643
1.41453
1.60121
1.82749
2.08669
2.37212
2.67729
2.9967
3.32616
3.66276
4.00476
4.35134
4.70239
5.0584
5.42032
5.78952
6.16777
6.55726
6.96066
7.38119
7.82272
8.28987
8.78796
9.32289
9.90094
10.5285
11.212
11.958
12.7713
13.6436
14.541
15.4614
16.4683
17.4927
18.5719
19.72
20.9111
22.1639
23.4206
24.7073
26
27.3268
28.6987
30.119
31.589
33.1093
34.6805
36.3032
37.9778
39.7048
41.4846
43.3178
45.2044
47.1449
49.1394
51.1881
53.2909
55.4479
57.6589
59.9237
62.2421
64.6137
67.038
69.5145
72.0424
74.6211
77.2497
79.9272
82.6526
85.4246
88.242
91.1035
94.0075
96.9524
99.9366
102.958
106.015
109.106
112.228
115.379
118.558
121.76
124.985
128.229
131.49
134.765
138.052
141.347
144.649
147.956
151.265
154.575
157.886
161.199
164.514
167.836
171.156
174.454
177.72
180.945
184.127
187.259
190.337
193.355
196.309
199.194
202.006
204.738
207.387
209.947
212.415
214.786
217.056
219.221
221.277
223.221
225.049
226.757
228.344
229.806
231.14
232.346
233.42
234.362
235.17
235.843
236.379
236.78
237.045
237.173
237.166
237.025
236.749
236.342
235.805
235.139
234.348
233.432
232.397
231.244
229.977
228.599
227.115
225.527
223.842
222.061
220.191
218.235
216.199
214.087
211.904
209.654
207.344
204.978
202.554
200.092
197.579
195.038
192.479
189.901
187.339
184.837
182.536
180.399
178.323
176.272
174.235
172.212
170.203
168.212
166.242
164.298
162.394
160.546
158.821
157.309
156.821
3.83894
1.87586
1.61881
1.62602
1.73084
1.89344
2.09898
2.33914
2.60739
2.89798
3.20597
3.52745
3.85963
4.20083
4.55031
4.90812
5.27493
5.65189
6.04057
6.44287
6.861
7.29745
7.75498
8.23663
8.74564
9.28538
9.85914
10.4699
11.1202
11.8115
12.5448
13.32
14.1357
14.9884
15.8811
16.816
17.7918
18.8106
19.8731
20.9766
22.1192
23.2943
24.5024
25.7441
27.0246
28.3479
29.7163
31.131
32.5932
34.1033
35.662
37.2699
38.9275
40.6352
42.3936
44.2029
46.0636
47.9759
49.9402
51.9566
54.0253
56.1464
58.3198
60.5454
62.8233
65.1529
67.5342
69.9666
72.4496
74.9825
77.5647
80.1953
82.8734
85.5978
88.3674
91.1809
94.0369
96.9338
99.87
102.844
105.853
108.896
111.971
115.075
118.206
121.362
124.54
127.738
130.954
134.185
137.429
140.683
143.946
147.215
150.489
153.766
157.046
160.326
163.602
166.861
170.095
173.295
176.456
179.574
182.642
185.656
188.611
191.502
194.323
197.07
199.737
202.322
204.817
207.22
209.525
211.729
213.827
215.816
217.692
219.452
221.093
222.612
224.006
225.272
226.41
227.417
228.291
229.032
229.638
230.11
230.446
230.647
230.713
230.645
230.444
230.111
229.647
229.056
228.338
227.497
226.534
225.454
224.259
222.952
221.538
220.02
218.402
216.689
214.884
212.992
211.019
208.968
206.844
204.653
202.398
200.085
197.722
195.297
192.846
190.359
187.846
185.314
182.769
180.231
177.729
175.32
172.997
170.722
168.474
166.247
164.04
161.855
159.695
157.57
155.487
153.469
151.546
149.798
148.342
147.645
5.08992
2.41105
2.00833
1.96098
2.0368
2.17952
2.36873
2.59422
2.84922
3.12836
3.42718
3.74214
4.07066
4.4111
4.7627
5.12544
5.49992
5.8872
6.2887
6.70613
7.14141
7.59662
8.07399
8.5758
9.10439
9.66203
10.2509
10.8728
11.5294
12.2218
12.9507
13.7166
14.52
15.361
16.2407
17.1597
18.1186
19.1178
20.1575
21.2372
22.3563
23.5145
24.7118
25.9494
27.2292
28.5529
29.9223
31.3384
32.8023
34.315
35.8773
37.49
39.1537
40.8693
42.6374
44.4586
46.3336
48.263
50.2473
52.2869
54.3823
56.5339
58.7419
61.0065
63.3279
65.7061
68.1409
70.6322
73.1797
75.783
78.4415
81.1544
83.9211
86.7404
89.6114
92.5327
95.5029
98.5206
101.584
104.691
107.84
111.029
114.256
117.518
120.813
124.138
127.492
130.87
134.271
137.691
141.129
144.581
148.045
151.518
154.998
158.481
161.966
165.448
168.915
172.36
175.775
179.155
182.492
185.782
189.018
192.196
195.31
198.353
201.322
204.209
207.011
209.721
212.335
214.848
217.255
219.552
221.734
223.797
225.738
227.553
229.239
230.792
232.211
233.492
234.633
235.634
236.492
237.207
237.777
238.203
238.483
238.619
238.611
238.46
238.168
237.735
237.164
236.458
235.618
234.648
233.55
232.329
230.987
229.529
227.958
226.28
224.498
222.618
220.642
218.578
216.431
214.203
211.9
209.532
207.096
204.603
202.066
199.48
196.861
194.209
191.532
188.836
186.129
183.425
180.743
178.111
175.532
172.992
170.481
167.995
165.535
163.105
160.71
158.359
156.067
153.857
151.767
149.873
148.272
147.222
6.19206
2.88641
2.3578
2.26279
2.3132
2.43853
2.61345
2.82597
3.06886
3.33694
3.62613
3.93326
4.25596
4.59269
4.94267
5.3058
5.68251
6.07371
6.48062
6.90472
7.34767
7.81124
8.29729
8.80772
9.34442
9.90923
10.5039
11.13
11.789
12.482
13.2102
13.9743
14.7753
15.6139
16.491
17.4073
18.3635
19.3602
20.3979
21.477
22.5979
23.7612
24.9676
26.2181
27.514
28.8565
30.2471
31.6869
33.1773
34.7193
36.3141
37.9628
39.6664
41.4261
43.2428
45.1176
47.0514
49.0451
51.0998
53.216
55.3948
57.6367
59.9424
62.3124
64.7472
67.247
69.812
72.4424
75.1379
77.8984
80.7235
83.6126
86.565
89.5796
92.6556
95.7914
98.9858
102.237
105.543
108.902
112.312
115.771
119.275
122.823
126.411
130.037
133.698
137.39
141.111
144.856
148.624
152.41
156.211
160.024
163.845
167.67
171.496
175.31
179.105
182.872
186.604
190.296
193.941
197.532
201.063
204.528
207.92
211.233
214.461
217.598
220.638
223.575
226.403
229.117
231.713
234.184
236.526
238.735
240.806
242.735
244.52
246.157
247.643
248.976
250.153
251.173
252.035
252.738
253.28
253.662
253.884
253.947
253.851
253.598
253.189
252.628
251.915
251.054
250.048
248.9
247.613
246.194
244.644
242.97
241.173
239.262
237.241
235.115
232.887
230.566
228.159
225.665
223.092
220.457
217.757
215.001
212.197
209.347
206.461
203.544
200.602
197.642
194.672
191.701
188.746
185.822
182.935
180.082
177.259
174.467
171.707
168.984
166.307
163.685
161.134
158.681
156.363
154.248
152.404
150.974
7.11165
3.29531
2.65921
2.5224
2.55005
2.65953
2.82118
3.02134
3.25229
3.50888
3.78734
4.08478
4.39908
4.72885
5.07334
5.43238
5.80633
6.19593
6.60227
7.02665
7.47055
7.93555
8.42333
8.93557
9.47396
10.0402
10.6358
11.2624
11.9213
12.6139
13.3414
14.1048
14.9053
15.7438
16.6213
17.5388
18.4971
19.4972
20.54
21.6262
22.7569
23.9331
25.1557
26.426
27.7453
29.1148
30.536
32.0105
33.5396
35.1248
36.7677
38.4698
40.2324
42.0571
43.9453
45.8984
47.9179
50.0052
52.1615
54.3881
56.6862
59.057
61.5013
64.0203
66.6145
69.2847
72.0313
74.8547
77.755
80.7321
83.7859
86.9157
90.1211
93.401
96.7543
100.18
103.675
107.24
110.87
114.565
118.322
122.137
126.008
129.933
133.907
137.927
141.99
146.092
150.228
154.396
158.591
162.809
167.045
171.295
175.554
179.818
184.08
188.322
192.539
196.722
200.865
204.961
209.003
212.982
216.892
220.726
224.475
228.134
231.695
235.151
238.496
241.722
244.825
247.796
250.631
253.325
255.871
258.265
260.503
262.579
264.491
266.235
267.808
269.208
270.433
271.48
272.349
273.039
273.549
273.88
274.032
274.005
273.802
273.424
272.873
272.153
271.266
270.215
269.005
267.638
266.119
264.455
262.65
260.708
258.633
256.434
254.118
251.69
249.147
246.508
243.781
240.967
238.073
235.11
232.081
228.994
225.856
222.674
219.454
216.204
212.929
209.638
206.336
203.035
199.745
196.477
193.24
190.035
186.862
183.725
180.627
177.575
174.577
171.646
168.799
166.061
163.47
161.08
158.936
157.12
7.86677
3.6376
2.90967
2.7358
2.74259
2.83711
2.98594
3.17391
3.39275
3.63731
3.90399
4.19016
4.49396
4.81414
5.15003
5.5015
5.86884
6.25274
6.65415
7.07429
7.51449
7.97625
8.46111
8.97064
9.50646
10.0701
10.6632
11.2872
11.9435
12.6336
13.3588
14.1203
14.9193
15.7572
16.635
17.554
18.5153
19.5201
20.5698
21.6654
22.8084
24
25.2417
26.5349
27.8812
29.2822
30.7396
32.2552
33.831
35.4686
37.1702
38.9375
40.7726
42.6775
44.654
46.7041
48.8297
51.0328
53.315
55.6783
58.1242
60.6543
63.2702
65.973
68.7641
71.6443
74.6145
77.6753
80.8271
84.07
87.4038
90.8283
94.3427
97.9461
101.637
105.415
109.276
113.22
117.244
121.344
125.519
129.765
134.077
138.454
142.89
147.382
151.925
156.515
161.147
165.817
170.519
175.248
179.999
184.766
189.543
194.326
199.096
203.841
208.553
213.226
217.85
222.419
226.923
231.355
235.705
239.966
244.129
248.186
252.13
255.951
259.644
263.2
266.613
269.875
272.981
275.923
278.697
281.297
283.718
285.954
288.003
289.861
291.525
292.993
294.261
295.33
296.197
296.863
297.326
297.588
297.649
297.511
297.176
296.645
295.922
295.011
293.916
292.64
291.187
289.562
287.769
285.818
283.714
281.461
279.06
276.525
273.867
271.089
268.196
265.197
262.103
258.918
255.65
252.307
248.897
245.427
241.905
238.338
234.733
231.098
227.44
223.766
220.084
216.402
212.731
209.08
205.456
201.866
198.311
194.798
191.331
187.918
184.569
181.298
178.122
175.066
172.163
169.459
166.979
164.772
8.45909
3.91277
3.10855
2.90212
2.88964
2.96977
3.10596
3.2817
3.48823
3.7203
3.97445
4.24827
4.5401
4.84887
5.17402
5.51547
5.87352
6.2488
6.64222
7.05492
7.48815
7.94333
8.42191
8.92541
9.45538
10.0134
10.6009
11.2195
11.8706
12.5558
13.2765
14.0341
14.8301
15.6659
16.5429
17.4625
18.4264
19.4359
20.4927
21.5984
22.7546
23.9631
25.2257
26.5442
27.9206
29.357
30.8555
32.4183
34.0477
35.7461
37.516
39.3598
41.28
43.2793
45.36
47.5247
49.7759
52.1161
54.5477
57.0729
59.694
62.4131
65.232
68.1527
71.1766
74.3052
77.5395
80.8806
84.3288
87.8847
91.548
95.3185
99.1955
103.178
107.264
111.453
115.741
120.127
124.607
129.179
133.838
138.581
143.403
148.3
153.268
158.301
163.395
168.543
173.741
178.983
184.262
189.572
194.908
200.26
205.624
210.989
216.328
221.635
226.901
232.119
237.279
242.371
247.387
252.316
257.15
261.877
266.49
270.979
275.335
279.55
283.615
287.521
291.262
294.83
298.217
301.418
304.425
307.234
309.837
312.231
314.411
316.374
318.118
319.639
320.936
322.007
322.852
323.47
323.862
324.028
323.97
323.69
323.19
322.474
321.544
320.406
319.064
317.525
315.791
313.868
311.758
309.479
307.034
304.429
301.669
298.764
295.724
292.556
289.266
285.865
282.361
278.762
275.076
271.312
267.478
263.582
259.634
255.64
251.608
247.548
243.466
239.37
235.268
231.168
227.08
223.012
218.973
214.969
211.007
207.091
203.229
199.43
195.705
192.068
188.536
185.134
181.891
178.842
175.999
173.399
8.89471
4.12257
3.25745
3.02296
2.99272
3.05895
3.18259
3.34603
3.54009
3.75941
4.00061
4.26146
4.54046
4.83671
5.14978
5.47963
5.82661
6.19133
6.57467
6.97769
7.40162
7.8478
8.31763
8.81259
9.33421
9.88402
10.4636
11.0745
11.7183
12.3966
13.111
13.8631
14.6546
15.4872
16.3625
17.2824
18.2487
19.2632
20.328
21.4449
22.6162
23.844
25.1305
26.4782
27.8895
29.3669
30.9131
32.531
34.2233
35.9931
37.8435
39.7774
41.7982
43.9089
46.1128
48.413
50.8128
53.3151
55.923
58.6394
61.467
64.4086
67.4665
70.643
73.9402
77.3596
80.9029
84.571
88.3648
92.2846
96.3304
100.502
104.798
109.217
113.759
118.419
123.197
128.088
133.089
138.197
143.406
148.712
154.11
159.594
165.159
170.799
176.508
182.28
188.108
193.985
199.903
205.857
211.838
217.837
223.847
229.836
235.792
241.705
247.568
253.371
259.102
264.753
270.311
275.765
281.105
286.319
291.399
296.333
301.112
305.726
310.167
314.425
318.492
322.36
326.021
329.469
332.697
335.699
338.467
340.998
343.286
345.33
347.126
348.672
349.967
351.01
351.799
352.336
352.619
352.652
352.437
351.977
351.274
350.332
349.153
347.747
346.119
344.274
342.219
339.959
337.501
334.857
332.033
329.037
325.876
322.561
319.101
315.504
311.78
307.937
303.986
299.936
295.795
291.574
287.28
282.924
278.515
274.06
269.569
265.051
260.513
255.964
251.412
246.865
242.332
237.823
233.345
228.906
224.513
220.175
215.899
211.694
207.572
203.549
199.641
195.871
192.263
188.848
185.625
182.629
9.1842
4.27091
3.3598
3.10175
3.05535
3.10822
3.21943
3.37057
3.55211
3.75861
3.98674
4.23438
4.5002
4.78342
5.08372
5.40114
5.73603
6.08902
6.46097
6.8529
7.26601
7.70159
8.16104
8.64582
9.15745
9.69752
10.2676
10.8695
11.5047
12.1752
12.8826
13.6288
14.4158
15.2455
16.1199
17.0413
18.0117
19.0336
20.1093
21.2413
22.4322
23.6847
25.0017
26.386
27.8408
29.3692
30.9746
32.6604
34.4302
36.2876
38.2365
40.2806
42.424
44.6704
47.0239
49.4884
52.0676
54.7655
57.5856
60.5314
63.6063
66.8135
70.1558
73.636
77.2564
81.0191
84.9256
88.9773
93.1749
97.5188
102.009
106.644
111.424
116.346
121.408
126.608
131.942
137.407
142.997
148.708
154.534
160.47
166.509
172.645
178.871
185.18
191.565
198.019
204.534
211.103
217.717
224.366
231.044
237.739
244.426
251.074
257.676
264.225
270.708
277.114
283.434
289.654
295.763
301.747
307.595
313.293
318.833
324.202
329.39
334.388
339.185
343.771
348.139
352.279
356.184
359.847
363.261
366.42
369.315
371.942
374.298
376.379
378.184
379.71
380.957
381.925
382.612
383.019
383.148
383
382.58
381.891
380.938
379.725
378.256
376.539
374.582
372.391
369.973
367.335
364.486
361.437
358.195
354.77
351.171
347.408
343.491
339.431
335.237
330.92
326.49
321.957
317.331
312.622
307.841
302.997
298.099
293.158
288.182
283.181
278.164
273.139
268.114
263.099
258.102
253.133
248.199
243.31
238.474
233.698
228.993
224.368
219.837
215.412
211.113
206.959
202.972
199.174
195.562
192.167
9.34198
4.36342
3.42035
3.14322
3.08235
3.12252
3.22159
3.36058
3.52973
3.72356
3.93879
4.17338
4.42612
4.69633
4.98378
5.28857
5.61108
5.95195
6.31202
6.69232
7.09403
7.51843
7.96693
8.44103
8.9423
9.47241
10.0331
10.6261
11.2534
11.917
12.6188
13.361
14.1459
14.9758
15.8532
16.7805
17.7606
18.7963
19.8904
21.046
22.2664
23.5549
24.915
26.3504
27.8647
29.4621
31.1465
32.9223
34.7937
36.7654
38.8419
41.0278
43.328
45.7471
48.29
50.9613
53.7657
56.7076
59.7913
63.0208
66.3998
69.932
73.6207
77.4689
81.4792
85.6537
89.9941
94.5015
99.1766
104.019
109.029
114.205
119.545
125.046
130.706
136.521
142.487
148.598
154.85
161.236
167.75
174.383
181.128
187.978
194.924
201.958
209.074
216.261
223.513
230.819
238.171
245.558
252.97
260.384
267.753
275.072
282.329
289.514
296.615
303.619
310.515
317.289
323.93
330.421
336.747
342.897
348.86
354.625
360.18
365.515
370.619
375.484
380.099
384.456
388.548
392.367
395.908
399.166
402.126
404.787
407.146
409.202
410.952
412.396
413.532
414.361
414.884
415.102
415.017
414.633
413.953
412.982
411.726
410.19
408.38
406.304
403.97
401.386
398.56
395.502
392.22
388.724
385.026
381.135
377.062
372.817
368.412
363.857
359.164
354.344
349.408
344.367
339.232
334.013
328.723
323.37
317.965
312.52
307.042
301.543
296.031
290.515
285.005
279.509
274.036
268.596
263.198
257.85
252.562
247.342
242.201
237.149
232.2
227.367
222.668
218.121
213.744
209.557
205.551
201.76
9.38542
4.40686
3.44464
3.1528
3.07933
3.10769
3.19512
3.32237
3.47957
3.66122
3.86409
4.08623
4.32652
4.58436
4.85958
5.15233
5.46303
5.79234
6.14113
6.51044
6.90147
7.31556
7.75416
8.21888
8.7114
9.23354
9.7872
10.3744
10.9974
11.6583
12.3596
13.1037
13.8935
14.7316
15.6211
16.565
17.5667
18.6297
19.7575
20.9541
22.2233
23.5693
24.9964
26.5091
28.1121
29.8101
31.6083
33.5119
35.5261
37.6564
39.9083
42.2874
44.7994
47.4499
50.2445
53.1887
56.2879
59.5472
62.9713
66.5644
70.3304
74.2731
78.3961
82.7023
87.1943
91.874
96.7427
101.801
107.049
112.486
118.111
123.92
129.913
136.084
142.431
148.946
155.626
162.465
169.454
176.588
183.859
191.256
198.767
206.385
214.102
221.908
229.795
237.753
245.773
253.846
261.962
270.108
278.258
286.357
294.396
302.364
310.248
318.037
325.717
333.274
340.697
347.971
355.09
362.026
368.763
375.294
381.607
387.69
393.533
399.124
404.452
409.51
414.286
418.773
422.963
426.849
430.425
433.685
436.622
439.231
441.51
443.458
445.073
446.354
447.301
447.917
448.201
448.158
447.789
447.099
446.093
444.777
443.156
441.238
439.03
436.54
433.778
430.752
427.472
423.948
420.191
416.211
412.019
407.628
403.047
398.291
393.369
388.294
383.079
377.734
372.272
366.705
361.045
355.302
349.489
343.615
337.694
331.734
325.747
319.742
313.729
307.718
301.718
295.738
289.788
283.876
278.012
272.206
266.466
260.802
255.226
249.747
244.38
239.138
234.037
229.095
224.328
219.751
215.353
211.173
9.33425
4.40873
3.43862
3.13631
3.05229
3.07007
3.14679
3.26315
3.40931
3.57981
3.77149
3.98248
4.21174
4.45873
4.72336
5.00582
5.3066
5.62641
5.96618
6.32702
6.71022
7.11723
7.54968
8.00932
8.49806
9.01797
9.57127
10.1603
10.7877
11.4561
12.1684
12.9276
13.7371
14.6002
15.5206
16.5023
17.5493
18.6661
19.8571
21.1272
22.4814
23.9247
25.4625
27.1002
28.8437
30.6987
32.6716
34.7685
36.9959
39.3602
41.8679
44.5255
47.3396
50.3165
53.4626
56.7841
60.2871
63.9772
67.8597
71.9371
76.2129
80.6911
85.3748
90.2666
95.3683
100.681
106.205
111.94
117.884
124.037
130.393
136.951
143.705
150.651
157.782
165.091
172.572
180.216
188.016
195.964
204.056
212.269
220.591
229.015
237.532
246.132
254.806
263.545
272.338
281.177
290.052
298.919
307.724
316.455
325.1
333.646
342.081
350.389
358.558
366.573
374.42
382.086
389.558
396.818
403.851
410.645
417.189
423.47
429.478
435.202
440.632
445.759
450.574
455.069
459.236
463.069
466.563
469.712
472.511
474.956
477.046
478.778
480.153
481.171
481.832
482.139
482.095
481.702
480.965
479.889
478.481
476.746
474.692
472.326
469.659
466.697
463.452
459.934
456.153
452.12
447.847
443.345
438.627
433.705
428.591
423.298
417.839
412.226
406.471
400.589
394.59
388.488
382.295
376.023
369.684
363.289
356.85
350.377
343.883
337.376
330.867
324.367
317.883
311.426
305.005
298.63
292.31
286.054
279.872
273.774
267.771
261.874
256.097
250.453
244.958
239.628
234.476
229.517
224.736
220.177
9.20999
4.37673
3.40829
3.09968
3.00757
3.01658
3.0842
3.19133
3.32825
3.48962
3.67237
3.87475
4.09577
4.33501
4.59244
4.86838
5.1634
5.47835
5.81429
6.17251
6.5545
6.96197
7.39682
7.86113
8.35721
8.88755
9.45487
10.0621
10.7125
11.4093
12.1563
12.9572
13.8162
14.7377
15.7263
16.7871
17.9254
19.1467
20.457
21.8624
23.3694
24.9847
26.7143
28.5648
30.5432
32.657
34.9134
37.3201
39.8842
42.6134
45.5148
48.5957
51.863
55.3236
58.9839
62.8502
66.9289
71.2263
75.7511
80.4954
85.4632
90.6583
96.0831
101.739
107.625
113.742
120.087
126.658
133.452
140.464
147.689
155.122
162.756
170.582
178.594
186.781
195.136
203.648
212.307
221.103
230.026
239.061
248.196
257.419
266.721
276.093
285.523
295.005
304.523
314.08
323.595
333.031
342.374
351.611
360.728
369.713
378.549
387.225
395.725
404.035
412.141
420.03
427.688
435.101
442.254
449.135
455.734
462.038
468.037
473.721
479.082
484.109
488.795
493.133
497.117
500.74
503.998
506.887
509.402
511.542
513.305
514.691
515.699
516.332
516.59
516.477
515.998
515.155
513.955
512.403
510.507
508.274
505.712
502.831
499.639
496.147
492.365
488.306
483.979
479.397
474.573
469.519
464.247
458.771
453.104
447.259
441.25
435.089
428.79
422.366
415.831
409.196
402.475
395.68
388.824
381.917
374.973
368.002
361.014
354.022
347.034
340.061
333.112
326.197
319.325
312.506
305.749
299.063
292.459
285.946
279.536
273.24
267.071
261.042
255.168
249.464
243.943
238.617
233.47
228.55
9.0277
4.31622
3.35804
3.04761
2.95054
2.95352
3.0148
3.11566
3.24665
3.40262
3.58068
3.7792
3.99735
4.23487
4.49191
4.76899
5.06693
5.38684
5.73013
6.09845
6.49373
6.91818
7.37426
7.86473
8.3926
8.96114
9.57397
10.235
10.9487
11.7196
12.5527
13.4531
14.4261
15.4777
16.6142
17.8424
19.1695
20.6029
22.1503
23.8202
25.6214
27.5642
29.6529
31.8947
34.299
36.8747
39.6303
42.574
45.7139
49.0575
52.6121
56.3845
60.381
64.6074
69.0688
73.7698
78.7145
83.9062
89.3472
95.0359
100.972
107.155
113.584
120.256
127.169
134.318
141.699
149.306
157.132
165.171
173.414
181.853
190.478
199.28
208.248
217.372
226.64
236.04
245.562
255.195
264.925
274.741
284.631
294.583
304.588
314.64
324.723
334.847
344.953
354.96
364.866
374.654
384.31
393.82
403.17
412.346
421.334
430.122
438.695
447.04
455.145
462.995
470.579
477.884
484.898
491.61
498.008
504.083
509.825
515.226
520.276
524.969
529.298
533.256
536.839
540.041
542.859
545.29
547.331
548.982
550.241
551.11
551.589
551.681
551.389
550.717
549.67
548.252
546.471
544.333
541.846
539.019
535.86
532.38
528.589
524.498
520.117
515.46
510.537
505.362
499.948
494.308
488.454
482.401
476.162
469.751
463.181
456.467
449.621
442.657
435.588
428.428
421.189
413.884
406.525
399.124
391.693
384.243
376.785
369.329
361.886
354.465
347.077
339.73
332.433
325.197
318.03
310.941
303.941
297.04
290.248
283.577
277.039
270.648
264.417
258.361
252.491
246.818
241.328
236.069
8.84091
4.24522
3.30173
2.99434
2.89737
2.89976
2.9607
3.06203
3.19463
3.35365
3.53646
3.74171
3.96889
4.21808
4.48986
4.78521
5.1055
5.45251
5.82835
6.23552
6.6769
7.15573
7.67568
8.24093
8.85605
9.52566
10.255
11.0501
11.9175
12.8647
13.8999
15.0298
16.2604
17.6012
19.0616
20.651
22.3793
24.2566
26.2929
28.4987
30.8843
33.4597
36.2334
39.2141
42.4104
45.8309
49.4832
53.3742
57.5101
61.8963
66.5371
71.4361
76.5958
82.0179
87.7031
93.6513
99.8614
106.331
113.058
120.037
127.263
134.73
142.432
150.363
158.515
166.88
175.449
184.214
193.165
202.291
211.583
221.029
230.62
240.342
250.186
260.14
270.192
280.332
290.546
300.826
311.161
321.539
331.953
342.392
352.844
363.328
373.777
384.111
394.32
404.392
414.314
424.074
433.658
443.055
452.251
461.233
469.991
478.511
486.781
494.791
502.528
509.981
517.14
523.993
530.531
536.743
542.62
548.154
553.337
558.16
562.618
566.704
570.413
573.739
576.679
579.229
581.386
583.15
584.518
585.491
586.068
586.253
586.046
585.451
584.472
583.114
581.382
579.283
576.823
574.011
570.854
567.363
563.546
559.414
554.978
550.249
545.239
539.961
534.426
528.648
522.64
516.415
509.987
503.37
496.576
489.621
482.517
475.279
467.919
460.452
452.89
445.247
437.534
429.766
421.953
414.107
406.24
398.363
390.487
382.622
374.778
366.964
359.189
351.464
343.796
336.195
328.67
321.229
313.883
306.642
299.515
292.515
285.653
278.942
272.395
266.025
259.844
253.863
248.065
242.504
8.67906
4.17489
3.25023
2.95277
2.86391
2.8748
2.9457
3.05909
3.20639
3.38323
3.58751
3.81847
4.07632
4.36193
4.67685
5.02316
5.40351
5.82111
6.27973
6.78371
7.33813
7.94836
8.6205
9.36204
10.182
11.0865
12.0835
13.1836
14.3974
15.7363
17.2121
18.8362
20.6202
22.5767
24.7183
27.0576
29.607
32.3784
35.383
38.6314
42.133
45.8963
49.9278
54.233
58.8162
63.6806
68.8276
74.2576
79.9696
85.9613
92.2292
98.7687
105.574
112.64
119.958
127.52
135.319
143.346
151.591
160.044
168.696
177.536
186.554
195.74
205.084
214.574
224.201
233.955
243.825
253.801
263.872
274.029
284.262
294.561
304.916
315.317
325.756
336.225
346.714
357.214
367.727
378.234
388.738
399.245
409.685
419.974
430.119
440.107
449.929
459.574
469.03
478.288
487.336
496.164
504.761
513.118
521.222
529.066
536.637
543.927
550.926
557.625
564.014
570.084
575.827
581.234
586.299
591.014
595.371
599.366
602.992
606.245
609.12
611.614
613.723
615.445
616.779
617.723
618.278
618.445