/*--------------------------------*- C++ -*----------------------------------*\
  =========                 |
  \\      /  F ield         | OpenFOAM: The Open Source CFD Toolbox
   \\    /   O peration     | Website:  https://openfoam.org
    \\  /    A nd           | Version:  12
     \\/     M anipulation  |
\*---------------------------------------------------------------------------*/
FoamFile
{
    format      ascii;
    class       volScalarField;
    location    "0.16";
    object      k;
}
// * * * * * * * * * * * * * * * * * * * * * * * * * * * * * * * * * * * * * //

dimensions      [0 2 -2 0 0 0 0];

internalField   nonuniform List<scalar> 
12225
(
0.353921
0.335043
0.316966
0.300961
0.288126
0.278907
0.273299
0.271004
0.271568
0.274473
0.279206
0.285296
0.292339
0.299998
0.308018
0.316185
0.324547
0.33666
0.436864
0.448979
0.438085
0.433062
0.43879
0.45359
0.474807
0.49999
0.527152
0.554808
0.581929
0.607851
0.632196
0.654789
0.675739
0.694943
0.714508
0.729846
0.395187
0.410874
0.410631
0.405747
0.402011
0.400925
0.402616
0.40681
0.413086
0.420984
0.430073
0.439972
0.450371
0.461027
0.471801
0.482583
0.493665
0.504411
0.379641
0.38484
0.386546
0.38573
0.383905
0.382026
0.380567
0.37974
0.379607
0.380149
0.381304
0.382989
0.385123
0.38763
0.390459
0.393576
0.397
0.40063
0.374976
0.3759
0.376239
0.375721
0.37457
0.373084
0.371496
0.369967
0.368593
0.367426
0.366485
0.365769
0.365269
0.36497
0.36486
0.364929
0.365174
0.365563
0.373488
0.372555
0.371759
0.370807
0.369631
0.368275
0.366809
0.3653
0.363803
0.362358
0.36099
0.359713
0.358537
0.357462
0.356489
0.355618
0.354849
0.354175
0.373012
0.371296
0.369813
0.368416
0.367025
0.36561
0.364168
0.362711
0.361257
0.359823
0.358425
0.357072
0.355773
0.354532
0.353353
0.352239
0.351191
0.350216
0.372865
0.370838
0.369004
0.36731
0.365711
0.364174
0.362679
0.361216
0.359782
0.358381
0.357014
0.355686
0.354401
0.35316
0.351965
0.35082
0.349726
0.348694
0.37282
0.37068
0.368691
0.366836
0.365095
0.363448
0.36188
0.360375
0.358928
0.35753
0.356181
0.354878
0.35362
0.352407
0.351239
0.350116
0.349039
0.34802
0.372806
0.370628
0.368578
0.366648
0.364829
0.36311
0.361482
0.359934
0.358457
0.357045
0.355692
0.354396
0.353151
0.351957
0.35081
0.34971
0.348657
0.347661
0.372801
0.370609
0.368537
0.366576
0.36472
0.362964
0.361299
0.359718
0.358215
0.356784
0.35542
0.354117
0.352873
0.351683
0.350545
0.349457
0.348418
0.347437
0.372799
0.370602
0.368522
0.36655
0.36468
0.362907
0.361224
0.359627
0.358108
0.356663
0.355288
0.353977
0.352728
0.351536
0.350398
0.349313
0.348277
0.347302
0.372797
0.370599
0.368514
0.366537
0.36466
0.362879
0.361188
0.359581
0.358053
0.356599
0.355216
0.353898
0.352643
0.351447
0.350307
0.349219
0.348183
0.347208
0.372796
0.370596
0.368509
0.366528
0.364649
0.362864
0.361167
0.359555
0.358021
0.356562
0.355173
0.353851
0.352591
0.351391
0.350247
0.349156
0.348117
0.34714
0.372795
0.370593
0.368505
0.366523
0.364641
0.362853
0.361154
0.359539
0.358002
0.35654
0.355148
0.353822
0.352559
0.351356
0.350209
0.349115
0.348074
0.347093
0.372794
0.370592
0.368502
0.366518
0.364634
0.362845
0.361145
0.359527
0.357989
0.356525
0.355131
0.353803
0.352538
0.351333
0.350183
0.349088
0.348044
0.347061
0.372794
0.37059
0.368499
0.366515
0.36463
0.362839
0.361137
0.359519
0.357979
0.356513
0.355118
0.353789
0.352523
0.351316
0.350165
0.349067
0.348021
0.347037
0.372794
0.370589
0.368498
0.366512
0.364627
0.362835
0.361132
0.359513
0.357972
0.356506
0.355109
0.353779
0.352512
0.351303
0.350151
0.349052
0.348005
0.34702
0.372793
0.370589
0.368497
0.366512
0.364626
0.362834
0.361131
0.359511
0.35797
0.356503
0.355106
0.353775
0.352507
0.351298
0.350145
0.349045
0.347997
0.347011
0.372794
0.37059
0.368498
0.366513
0.364628
0.362836
0.361133
0.359514
0.357973
0.356506
0.35511
0.353779
0.352511
0.351302
0.35015
0.34905
0.348002
0.347016
0.372794
0.370591
0.3685
0.366516
0.364632
0.362841
0.36114
0.359522
0.357983
0.356517
0.355122
0.353793
0.352527
0.351319
0.350168
0.34907
0.348024
0.347038
0.372795
0.370593
0.368504
0.366522
0.364641
0.362855
0.361159
0.359546
0.358012
0.356552
0.355163
0.35384
0.352578
0.351376
0.350229
0.349135
0.348092
0.347109
0.372796
0.370598
0.368518
0.366547
0.364681
0.362913
0.361235
0.359642
0.358127
0.356685
0.355312
0.354001
0.352751
0.351557
0.350416
0.349325
0.348283
0.347299
0.372804
0.370631
0.368592
0.366676
0.364872
0.363166
0.361548
0.360006
0.358532
0.357121
0.355767
0.354468
0.353219
0.35202
0.350868
0.349762
0.348702
0.347698
0.372856
0.370818
0.368973
0.367264
0.365645
0.364085
0.362567
0.361083
0.359631
0.358213
0.356833
0.355493
0.354197
0.352947
0.351744
0.350591
0.349487
0.348446
0.373166
0.37177
0.370579
0.369371
0.368049
0.366605
0.365072
0.363492
0.361906
0.360343
0.358826
0.357372
0.355991
0.354689
0.353468
0.352329
0.351272
0.350303
0.374797
0.375829
0.376175
0.375401
0.373834
0.371876
0.369792
0.36774
0.365814
0.364066
0.362524
0.361194
0.360075
0.359156
0.358423
0.357862
0.357455
0.357188
0.382729
0.39167
0.392375
0.388805
0.384384
0.380403
0.377247
0.374997
0.37362
0.373037
0.373151
0.373863
0.37508
0.376711
0.378679
0.380915
0.383356
0.385935
0.407499
0.414514
0.405423
0.395992
0.390554
0.38929
0.391453
0.396211
0.40283
0.410718
0.419423
0.428606
0.438012
0.447452
0.456793
0.465938
0.474843
0.483421
0.360554
0.347547
0.334933
0.322917
0.311965
0.302353
0.29419
0.28747
0.282114
0.278003
0.275
0.272965
0.271764
0.271271
0.271373
0.271968
0.272969
0.274295
0.00137111
0.00674373
0.0108646
0.0147038
0.018943
0.0236861
0.0290132
0.0350067
0.0413339
0.0477476
0.0542128
0.0606745
0.0670819
0.0733942
0.0795801
0.0856148
0.0914784
0.0971531
0.102622
0.107866
0.112866
0.117597
0.122031
0.126137
0.12988
0.133219
0.136115
0.138534
0.140464
0.141897
0.142753
0.142749
0.141608
0.140757
0.143322
0.141516
0.142876
0.143847
0.143562
0.14473
0.144166
0.147735
0.150172
0.156648
0.163433
0.170449
0.177671
0.185085
0.192682
0.200456
0.208402
0.216519
0.224804
0.233255
0.241869
0.250645
0.259581
0.268673
0.27792
0.287317
0.296861
0.306549
0.316376
0.326337
0.336428
0.346643
0.356976
0.367422
0.377974
0.388624
0.399367
0.410195
0.4211
0.432074
0.443109
0.454196
0.465328
0.476496
0.48769
0.498902
0.510123
0.521343
0.532553
0.543744
0.554906
0.56603
0.577106
0.588124
0.599075
0.609948
0.620734
0.631421
0.642
0.65246
0.662793
0.672991
0.683052
0.692979
0.702793
0.71254
0.722108
0.731456
0.740583
0.749485
0.758152
0.766573
0.774737
0.782633
0.790251
0.797579
0.804607
0.811327
0.817728
0.823802
0.82954
0.834935
0.839979
0.844666
0.848988
0.852941
0.856519
0.859719
0.862535
0.864965
0.867007
0.868659
0.869919
0.870786
0.871261
0.871345
0.871039
0.870346
0.869268
0.867809
0.865973
0.863765
0.86119
0.858256
0.854968
0.851334
0.847362
0.843061
0.838441
0.833509
0.828277
0.822756
0.816956
0.810888
0.804565
0.797999
0.791202
0.784186
0.776965
0.769553
0.76196
0.754202
0.746292
0.738238
0.730067
0.721777
0.713397
0.704936
0.696392
0.687867
0.679558
0.674126
0.670521
0.666989
0.663443
0.659877
0.656295
0.652695
0.649069
0.645398
0.641635
0.637678
0.633298
0.627891
0.619957
0.603183
0.00458541
0.0167183
0.0246027
0.0310215
0.0369115
0.0427382
0.0487818
0.0551263
0.0617258
0.0684914
0.0753436
0.0822162
0.0890581
0.0958322
0.102512
0.10908
0.115522
0.121831
0.127998
0.134018
0.139884
0.145588
0.151123
0.156483
0.161659
0.166648
0.171454
0.176105
0.18066
0.185193
0.189763
0.194493
0.199702
0.205051
0.211177
0.217553
0.225252
0.233038
0.240913
0.250015
0.260987
0.271828
0.284059
0.295385
0.30679
0.318575
0.330734
0.343243
0.356087
0.369257
0.382747
0.396555
0.41068
0.42512
0.439876
0.454947
0.47033
0.486027
0.502033
0.518349
0.53497
0.551893
0.569115
0.586632
0.604437
0.622524
0.640889
0.659522
0.678417
0.697565
0.716955
0.73658
0.756427
0.776487
0.796747
0.817194
0.837818
0.858603
0.879537
0.900605
0.921794
0.943089
0.964474
0.985934
1.00745
1.02902
1.05061
1.07222
1.09382
1.1154
1.13694
1.15843
1.17985
1.20118
1.2224
1.2435
1.26444
1.28522
1.30581
1.326
1.34583
1.36538
1.38463
1.40358
1.4222
1.44046
1.45835
1.47585
1.49293
1.50958
1.52576
1.54146
1.55667
1.57135
1.5855
1.59909
1.6121
1.62453
1.63635
1.64755
1.65811
1.66803
1.67729
1.68588
1.69379
1.70102
1.70755
1.71338
1.7185
1.72291
1.72661
1.7296
1.73187
1.73343
1.73428
1.73443
1.73387
1.73262
1.73068
1.72806
1.72478
1.72084
1.71625
1.71104
1.70521
1.69877
1.69176
1.68417
1.67604
1.66738
1.65821
1.64855
1.63843
1.62787
1.61688
1.60549
1.59374
1.58162
1.56919
1.55645
1.54345
1.5302
1.51666
1.50309
1.48949
1.47632
1.46344
1.45053
1.43757
1.42456
1.41152
1.39847
1.3854
1.37233
1.35923
1.34607
1.33269
1.31899
1.30373
1.28403
0.0087758
0.0265467
0.0367535
0.0444441
0.0512653
0.0578524
0.0644935
0.0713081
0.0783136
0.0854737
0.0927332
0.100038
0.107343
0.114617
0.121838
0.128994
0.13608
0.143097
0.150049
0.156941
0.163784
0.170589
0.177369
0.184144
0.190937
0.19778
0.204717
0.211808
0.219127
0.226755
0.234762
0.243218
0.252185
0.261605
0.271621
0.282186
0.293409
0.305217
0.317631
0.330705
0.344449
0.358633
0.373192
0.387968
0.403073
0.41858
0.434506
0.450849
0.467602
0.484761
0.502323
0.520284
0.538642
0.557396
0.576543
0.596082
0.61601
0.636325
0.657024
0.678103
0.699559
0.721385
0.743578
0.766129
0.789033
0.812282
0.835866
0.859776
0.884003
0.908535
0.93336
0.958465
0.983838
1.00946
1.03533
1.06142
1.08771
1.1142
1.14085
1.16767
1.19462
1.22169
1.24886
1.27611
1.30343
1.33078
1.35816
1.38554
1.4129
1.44023
1.46749
1.49468
1.52176
1.54873
1.57556
1.60222
1.62871
1.655
1.68103
1.70668
1.73198
1.75694
1.78153
1.80572
1.8295
1.85282
1.87567
1.89801
1.91981
1.94105
1.9617
1.98174
2.00113
2.01985
2.03788
2.0552
2.07178
2.08759
2.10264
2.11688
2.13031
2.1429
2.15465
2.16554
2.17556
2.18469
2.19293
2.20027
2.2067
2.21222
2.21683
2.22052
2.22329
2.22515
2.2261
2.22614
2.22528
2.22354
2.22091
2.21741
2.21305
2.20786
2.20183
2.195
2.18738
2.17899
2.16985
2.15998
2.14941
2.13816
2.12626
2.11374
2.10062
2.08693
2.07269
2.05795
2.04274
2.02704
2.01097
1.99446
1.97764
1.96058
1.94324
1.92574
1.90815
1.8907
1.87335
1.85595
1.8385
1.821
1.80348
1.78597
1.76848
1.75104
1.73367
1.7164
1.69921
1.6822
1.66482
1.64675
0.0133702
0.0354859
0.0474639
0.0562184
0.063822
0.0710033
0.0781006
0.0852757
0.0925901
0.100046
0.107616
0.115264
0.122955
0.130663
0.138372
0.146075
0.153771
0.16147
0.169181
0.176923
0.184713
0.192576
0.200539
0.208634
0.216899
0.225376
0.234115
0.243173
0.25261
0.262483
0.27284
0.283719
0.29515
0.307143
0.31972
0.33289
0.346669
0.361052
0.376027
0.391572
0.407659
0.42423
0.441229
0.458625
0.47643
0.494666
0.513348
0.532482
0.55207
0.572113
0.592611
0.613563
0.634969
0.656827
0.679137
0.701898
0.725107
0.748763
0.772862
0.797402
0.822378
0.847785
0.873618
0.89987
0.926534
0.953601
0.981062
1.00891
1.03712
1.0657
1.09462
1.12388
1.15345
1.18333
1.21349
1.24391
1.27459
1.30549
1.3366
1.3679
1.39936
1.43097
1.46269
1.49452
1.52643
1.55838
1.59037
1.62236
1.65433
1.68626
1.71813
1.74991
1.78157
1.8131
1.84446
1.87565
1.90663
1.93739
1.96778
1.9978
2.02742
2.05665
2.08543
2.11375
2.14157
2.16886
2.19557
2.22168
2.24716
2.27197
2.29608
2.31945
2.34206
2.36388
2.38488
2.40502
2.4243
2.44267
2.46012
2.47662
2.49215
2.5067
2.52025
2.53278
2.54428
2.55473
2.56413
2.57246
2.57972
2.58591
2.59101
2.59504
2.59798
2.59985
2.60065
2.60038
2.59905
2.59667
2.59326
2.58883
2.58339
2.57696
2.56957
2.56123
2.55196
2.54179
2.53074
2.51884
2.50613
2.49262
2.47835
2.46335
2.44765
2.43129
2.41429
2.3967
2.37857
2.35984
2.34073
2.32119
2.30128
2.28105
2.26052
2.23977
2.21888
2.19799
2.17709
2.15615
2.13515
2.11411
2.09307
2.07206
2.05112
2.03031
2.00968
1.98933
1.96935
1.94998
1.93105
1.9128
0.017727
0.0433031
0.0568229
0.0665756
0.0748901
0.0825929
0.0900761
0.0975431
0.105093
0.112764
0.120556
0.128453
0.136434
0.144483
0.15259
0.16075
0.16897
0.17726
0.185638
0.194127
0.202751
0.21154
0.220529
0.229754
0.239256
0.24908
0.25927
0.269876
0.280944
0.292515
0.304623
0.317294
0.330545
0.344387
0.358827
0.373867
0.389507
0.40574
0.422552
0.439925
0.457839
0.476267
0.495185
0.514577
0.534442
0.554788
0.575623
0.596953
0.618783
0.641117
0.663957
0.687305
0.711162
0.735531
0.76041
0.785801
0.811703
0.838116
0.865036
0.892463
0.920392
0.948819
0.97774
1.00715
1.03704
1.06739
1.09821
1.12949
1.1612
1.19333
1.22588
1.25882
1.29214
1.32583
1.35985
1.39419
1.42884
1.46376
1.49893
1.53433
1.56994
1.60572
1.64166
1.67772
1.71388
1.75011
1.78639
1.82268
1.85896
1.89521
1.93138
1.96746
2.00342
2.03922
2.07485
2.11027
2.14545
2.18035
2.21484
2.2489
2.28253
2.31568
2.34834
2.38046
2.412
2.44292
2.47319
2.50277
2.53161
2.55967
2.58693
2.61335
2.63889
2.66351
2.68719
2.70989
2.73158
2.75224
2.77184
2.79034
2.80774
2.82401
2.83913
2.85307
2.86584
2.87741
2.88777
2.89691
2.90483
2.91152
2.91697
2.9212
2.92419
2.92595
2.92649
2.92582
2.92394
2.92088
2.91663
2.91123
2.90469
2.89702
2.88826
2.87843
2.86755
2.85564
2.84276
2.82891
2.81412
2.79845
2.78193
2.76457
2.74643
2.72756
2.70795
2.68768
2.66685
2.64542
2.62351
2.60113
2.57832
2.55515
2.53165
2.50788
2.48393
2.45988
2.43577
2.41159
2.38736
2.3631
2.33885
2.31468
2.29063
2.26678
2.24324
2.22014
2.19767
2.17613
2.15552
2.13605
0.0215652
0.0499371
0.064846
0.0755079
0.084472
0.0926486
0.100476
0.108194
0.115934
0.123762
0.131707
0.139775
0.14796
0.156257
0.164662
0.173178
0.181815
0.190586
0.199512
0.208619
0.217934
0.227492
0.237327
0.247476
0.257981
0.26888
0.280216
0.292026
0.304348
0.317212
0.330643
0.34466
0.359274
0.374494
0.39032
0.406754
0.423792
0.441427
0.45965
0.478449
0.497812
0.517727
0.538181
0.559166
0.580683
0.602734
0.625324
0.64846
0.672149
0.696395
0.721203
0.746579
0.772524
0.799044
0.826141
0.853817
0.882073
0.91091
0.940328
0.970326
1.0009
1.03205
1.06377
1.09606
1.1289
1.1623
1.19623
1.2307
1.26568
1.30116
1.33713
1.37357
1.41046
1.44778
1.48551
1.52362
1.56209
1.6009
1.64002
1.67941
1.71906
1.75892
1.79898
1.83919
1.87954
1.91997
1.96047
2.001
2.04153
2.08203
2.12245
2.16278
2.20298
2.24301
2.28284
2.32244
2.36178
2.40072
2.43921
2.47724
2.51477
2.55178
2.58821
2.62404
2.6592
2.69367
2.72738
2.76031
2.79241
2.82363
2.85394
2.88328
2.91163
2.93895
2.96519
2.99033
3.01433
3.03715
3.05878
3.07918
3.09832
3.11619
3.13276
3.14801
3.16193
3.17451
3.18572
3.19557
3.20405
3.21114
3.21685
3.22118
3.22412
3.2257
3.22591
3.22476
3.22228
3.21846
3.21333
3.20691
3.19922
3.19028
3.18013
3.16878
3.15627
3.14262
3.12789
3.1121
3.09526
3.07745
3.0587
3.03902
3.01846
2.99714
2.97505
2.95224
2.92879
2.90471
2.88007
2.85492
2.82931
2.80328
2.77689
2.7502
2.72328
2.69621
2.66903
2.64176
2.61444
2.5871
2.5598
2.53261
2.5056
2.47887
2.45256
2.42684
2.40194
2.3782
2.35562
2.33434
0.0247681
0.0554785
0.0715629
0.0830125
0.0925489
0.101147
0.109281
0.117216
0.125111
0.133058
0.141107
0.149284
0.157602
0.166065
0.174681
0.183456
0.192406
0.201546
0.210901
0.220496
0.230361
0.240529
0.251035
0.261915
0.273204
0.28494
0.297156
0.309886
0.323157
0.336994
0.351417
0.36644
0.382072
0.39832
0.415186
0.432669
0.450769
0.469482
0.488802
0.508724
0.529243
0.550353
0.572049
0.59433
0.617197
0.640654
0.664706
0.689361
0.714626
0.740509
0.767017
0.794157
0.821935
0.850357
0.879429
0.909155
0.939538
0.970582
1.00229
1.03466
1.06769
1.10138
1.13573
1.17074
1.20639
1.24268
1.2796
1.31713
1.35527
1.39401
1.43331
1.47317
1.51356
1.55446
1.59584
1.63768
1.67996
1.72263
1.76567
1.80905
1.85273
1.89668
1.94086
1.98524
2.02977
2.07443
2.11917
2.16396
2.20876
2.25353
2.29823
2.34283
2.38728
2.43155
2.4756
2.51939
2.56286
2.60585
2.64835
2.69034
2.73176
2.77259
2.81278
2.85228
2.89104
2.929
2.96613
3.00237
3.03767
3.07199
3.10528
3.13749
3.16859
3.19853
3.22726
3.25476
3.28099
3.30591
3.32948
3.35168
3.37248
3.39186
3.4098
3.42627
3.44125
3.45475
3.46673
3.4772
3.48614
3.49355
3.49943
3.50379
3.50662
3.50793
3.50773
3.50604
3.50288
3.49825
3.49217
3.48468
3.47579
3.46554
3.45395
3.44106
3.42688
3.41147
3.39488
3.37713
3.35821
3.33825
3.31729
3.29535
3.27248
3.24875
3.22419
3.19887
3.17282
3.14612
3.1188
3.09092
3.06254
3.03371
3.00448
2.97492
2.94509
2.91506
2.88489
2.85463
2.8243
2.79397
2.76371
2.73358
2.7037
2.67416
2.64515
2.61685
2.58952
2.56347
2.53869
2.51523
0.0273982
0.0599794
0.0770147
0.0891142
0.0991308
0.108087
0.116482
0.124602
0.132622
0.140655
0.148771
0.157012
0.165406
0.17397
0.18272
0.191671
0.20084
0.210248
0.219919
0.22988
0.240159
0.25079
0.261803
0.273233
0.285112
0.297471
0.310339
0.323745
0.337712
0.35226
0.367405
0.383161
0.399537
0.416538
0.43417
0.452434
0.471332
0.490865
0.51103
0.53183
0.553262
0.575327
0.598027
0.621364
0.645342
0.669968
0.695249
0.721196
0.747816
0.775121
0.803121
0.831824
0.86124
0.891379
0.922247
0.953852
0.9862
1.0193
1.05315
1.08775
1.12311
1.15923
1.19611
1.23373
1.2721
1.31121
1.35104
1.39159
1.43285
1.47479
1.51739
1.56065
1.60452
1.649
1.69404
1.73962
1.7857
1.83226
1.87925
1.92664
1.97439
2.02246
2.0708
2.11938
2.16815
2.21707
2.26609
2.31518
2.36428
2.41336
2.46237
2.51127
2.56001
2.60855
2.65685
2.70485
2.75242
2.79947
2.84597
2.8919
2.93721
2.98185
3.02577
3.06891
3.11122
3.15265
3.19313
3.23263
3.27108
3.30843
3.34463
3.37964
3.41341
3.44589
3.47703
3.50681
3.53517
3.56209
3.58752
3.61143
3.63379
3.65458
3.67378
3.69137
3.70733
3.72164
3.7343
3.74529
3.75461
3.76225
3.76821
3.7725
3.77513
3.7761
3.77543
3.77312
3.76921
3.7637
3.75663
3.748
3.73786
3.72625
3.71319
3.69872
3.68285
3.66564
3.64717
3.62746
3.60654
3.58448
3.56134
3.53715
3.51196
3.48585
3.45885
3.43102
3.40243
3.37313
3.34316
3.3126
3.2815
3.24991
3.21789
3.18551
3.15282
3.11991
3.08683
3.05363
3.02038
2.98714
2.95398
2.92099
2.8883
2.85602
2.82434
2.79347
2.76367
2.73521
2.70804
2.6822
0.0294616
0.0634922
0.0812612
0.0938692
0.104266
0.113509
0.122113
0.130379
0.138494
0.146585
0.154735
0.163003
0.171429
0.180041
0.188863
0.197917
0.207224
0.216808
0.226692
0.236905
0.247474
0.258428
0.269799
0.281615
0.293906
0.306699
0.320021
0.333894
0.34834
0.363378
0.379021
0.395284
0.412176
0.429706
0.44788
0.466705
0.486184
0.506323
0.527125
0.548595
0.570737
0.593558
0.617062
0.641257
0.666151
0.691755
0.718078
0.745134
0.772934
0.801491
0.830819
0.86093
0.891836
0.923551
0.956083
0.989444
1.02364
1.05869
1.09458
1.13134
1.16895
1.20742
1.24676
1.28695
1.328
1.36989
1.41261
1.45616
1.50051
1.54566
1.59157
1.63823
1.68561
1.73367
1.7824
1.83174
1.88167
1.93215
1.98313
2.03457
2.08643
2.13865
2.19119
2.244
2.29704
2.35025
2.40358
2.45699
2.51042
2.56383
2.61716
2.67037
2.7234
2.7762
2.82873
2.88091
2.93255
2.98362
3.03409
3.08391
3.13305
3.18143
3.22901
3.27573
3.32151
3.36631
3.41007
3.45272
3.49421
3.53449
3.57349
3.61118
3.64749
3.68239
3.71582
3.74775
3.77813
3.80691
3.83407
3.85956
3.88335
3.90543
3.92577
3.94435
3.96115
3.97617
3.98938
4.00079
4.01037
4.01813
4.02407
4.0282
4.03054
4.03108
4.02984
4.02684
4.02211
4.01566
4.00753
3.99773
3.98628
3.97327
3.95871
3.94265
3.9251
3.90614
3.88581
3.86417
3.84124
3.8171
3.79179
3.76538
3.73791
3.70945
3.68006
3.64978
3.61869
3.58683
3.55428
3.5211
3.48733
3.45305
3.4183
3.38317
3.34771
3.31199
3.27608
3.24005
3.20396
3.16788
3.13191
3.09615
3.06071
3.02575
2.99145
2.95803
2.92573
2.89479
2.86513
2.83679
0.0309792
0.0660849
0.0843849
0.0973639
0.10804
0.117493
0.12625
0.134618
0.142793
0.150912
0.159068
0.167331
0.175751
0.184367
0.193208
0.202302
0.211675
0.221351
0.231356
0.241716
0.252459
0.263612
0.275202
0.287257
0.299803
0.312864
0.326464
0.340625
0.355366
0.370705
0.386658
0.403237
0.420457
0.438327
0.456858
0.476058
0.495938
0.516505
0.537769
0.559738
0.582423
0.605833
0.629979
0.654873
0.680528
0.706958
0.734177
0.762202
0.791047
0.82073
0.851266
0.882674
0.914967
0.948162
0.982273
1.01731
1.05329
1.09023
1.12812
1.16698
1.20681
1.24761
1.28939
1.33214
1.37585
1.42053
1.46615
1.51271
1.56019
1.60856
1.65781
1.7079
1.75881
1.8105
1.86294
1.91609
1.9699
2.02433
2.07933
2.13485
2.19084
2.24724
2.304
2.36106
2.41836
2.47586
2.53349
2.5912
2.64893
2.70663
2.76425
2.82172
2.879
2.93602
2.99273
3.04893
3.10454
3.15953
3.21386
3.26747
3.3203
3.37231
3.42341
3.47356
3.52267
3.57068
3.61754
3.66318
3.70754
3.75056
3.79219
3.83237
3.87105
3.90817
3.94371
3.97759
4.0098
4.04028
4.06898
4.09587
4.12092
4.14411
4.16542
4.18483
4.20232
4.21788
4.2315
4.24317
4.25289
4.26064
4.26644
4.2703
4.27223
4.27224
4.27035
4.26658
4.26096
4.25351
4.24426
4.23326
4.22051
4.20609
4.19004
4.17238
4.15317
4.13246
4.1103
4.08675
4.06185
4.03567
4.00825
3.97967
3.94998
3.91924
3.88751
3.85486
3.82135
3.78703
3.75198
3.71625
3.67992
3.64304
3.60567
3.56788
3.52975
3.49133
3.45271
3.41395
3.37514
3.33635
3.29767
3.25923
3.22114
3.18357
3.14671
3.11078
3.07598
3.04255
3.01035
2.97947
0.031988
0.067841
0.0864881
0.0997097
0.110566
0.120153
0.129003
0.137426
0.145624
0.153738
0.161871
0.170099
0.17848
0.187058
0.195871
0.20495
0.214323
0.224017
0.234058
0.244472
0.255285
0.266522
0.27821
0.290372
0.303033
0.316218
0.329946
0.34424
0.35912
0.374602
0.390705
0.407444
0.424834
0.442889
0.461623
0.48105
0.501183
0.522036
0.543622
0.565956
0.589051
0.612924
0.637591
0.663067
0.689371
0.716521
0.744536
0.773436
0.803242
0.833973
0.865651
0.898295
0.931925
0.966559
1.00222
1.03891
1.07666
1.11548
1.15537
1.19634
1.2384
1.28156
1.32581
1.37116
1.41758
1.46509
1.51366
1.56328
1.61392
1.66557
1.7182
1.77178
1.82627
1.88163
1.93782
1.9948
2.05252
2.11092
2.16995
2.22955
2.28967
2.35023
2.41118
2.47244
2.53397
2.59569
2.65755
2.71948
2.78142
2.84332
2.9051
2.96672
3.02811
3.08922
3.14987
3.20992
3.26932
3.32804
3.38602
3.4432
3.49952
3.55491
3.60932
3.66265
3.71483
3.76581
3.81551
3.86387
3.91083
3.95633
4.00031
4.04272
4.08349
4.12259
4.15995
4.19555
4.22932
4.26125
4.29125
4.3193
4.34537
4.36945
4.39151
4.41153
4.4295
4.44542
4.45927
4.47105
4.48072
4.48831
4.49383
4.49729
4.4987
4.49808
4.49545
4.49084
4.48427
4.47578
4.46539
4.45315
4.43909
4.42327
4.40572
4.3865
4.36565
4.34322
4.31928
4.29387
4.26706
4.2389
4.20946
4.1788
4.14697
4.11405
4.0801
4.04518
4.00936
3.9727
3.93527
3.89714
3.85837
3.81903
3.77917
3.73888
3.69821
3.65724
3.61605
3.57472
3.53333
3.49196
3.45072
3.40973
3.36911
3.32905
3.28972
3.25133
3.2141
3.1782
3.14348
3.11007
0.0325381
0.068856
0.0876874
0.101035
0.111981
0.121627
0.130509
0.138937
0.147117
0.155193
0.163271
0.171433
0.179741
0.188245
0.196987
0.206
0.215315
0.22496
0.234962
0.245345
0.256135
0.267357
0.279033
0.291189
0.303848
0.317032
0.330763
0.345062
0.359951
0.375448
0.391573
0.408345
0.425783
0.443903
0.462725
0.482266
0.502546
0.523581
0.545393
0.567999
0.591422
0.61568
0.640795
0.66679
0.693687
0.721509
0.750281
0.780028
0.810773
0.842543
0.87536
0.909251
0.944237
0.980341
1.01758
1.05598
1.09556
1.13632
1.17829
1.22146
1.26584
1.31144
1.35825
1.40628
1.45551
1.50594
1.55754
1.61031
1.6642
1.71921
1.77529
1.8324
1.89052
1.94958
2.00956
2.07038
2.132
2.19435
2.25739
2.32103
2.38521
2.44987
2.51491
2.58027
2.64589
2.7117
2.77762
2.8436
2.90956
2.97545
3.04119
3.10673
3.17201
3.23688
3.30114
3.36474
3.42764
3.48976
3.55106
3.61147
3.67093
3.72936
3.78671
3.84287
3.89776
3.95132
4.00349
4.0542
4.10339
4.15099
4.19695
4.24122
4.28372
4.32442
4.36327
4.40021
4.43523
4.46829
4.49927
4.52817
4.55497
4.57964
4.60217
4.62255
4.64076
4.65679
4.67063
4.68229
4.69175
4.69902
4.70411
4.70703
4.70782
4.70647
4.70302
4.6975
4.68993
4.68035
4.6688
4.65531
4.63994
4.62272
4.60371
4.58295
4.56051
4.53643
4.51077
4.4836
4.45497
4.42494
4.39359
4.36096
4.32714
4.29218
4.25615
4.21912
4.18115
4.14232
4.10268
4.06232
4.02129
3.97966
3.93751
3.89488
3.85187
3.80855
3.76499
3.72127
3.67748
3.63372
3.59009
3.54672
3.50374
3.46132
3.41965
3.37893
3.33935
3.30106
3.26391
3.22805
0.0326899
0.0692329
0.0881074
0.101479
0.112431
0.122066
0.13092
0.139304
0.147424
0.155424
0.163414
0.171478
0.179681
0.188076
0.196706
0.205608
0.214813
0.224351
0.234246
0.244526
0.255213
0.266334
0.27791
0.289966
0.302525
0.31561
0.329244
0.34345
0.35825
0.373667
0.389724
0.406441
0.423843
0.441952
0.46079
0.480382
0.500751
0.521922
0.54392
0.56677
0.590499
0.615133
0.640699
0.667224
0.694738
0.723268
0.752845
0.783497
0.815254
0.848145
0.882199
0.917443
0.953904
0.991607
1.03057
1.07083
1.11239
1.15526
1.19947
1.24501
1.29189
1.3401
1.38965
1.44052
1.49271
1.5462
1.60098
1.65701
1.71427
1.77272
1.83232
1.89303
1.95481
2.0176
2.08134
2.14598
2.21144
2.27768
2.34461
2.41217
2.48029
2.54886
2.6178
2.68704
2.75651
2.82613
2.89583
2.96554
3.0352
3.10474
3.1741
3.2432
3.31192
3.38003
3.44746
3.51417
3.58008
3.64514
3.70927
3.77241
3.8345
3.89547
3.95528
4.01376
4.07084
4.12647
4.1806
4.23314
4.28405
4.33326
4.38072
4.42635
4.47012
4.51196
4.55183
4.58969
4.6255
4.65922
4.69078
4.72015
4.74732
4.77227
4.79497
4.8154
4.83357
4.84946
4.86307
4.8744
4.88344
4.8902
4.8947
4.89696
4.89698
4.8948
4.89045
4.88394
4.87532
4.86463
4.85189
4.83717
4.82049
4.80191
4.78149
4.75927
4.73531
4.70967
4.68241
4.65359
4.62328
4.59153
4.55841
4.524
4.48835
4.45153
4.41362
4.37468
4.33477
4.29398
4.25236
4.20999
4.16693
4.12325
4.07903
4.03432
3.9892
3.94376
3.89806
3.85219
3.80624
3.76032
3.71452
3.66898
3.62384
3.57926
3.53542
3.49252
3.45074
3.4102
3.37075
3.33257
0.0325123
0.069079
0.0878761
0.101182
0.112065
0.121626
0.130396
0.138686
0.146703
0.15459
0.162459
0.170393
0.178459
0.186712
0.195195
0.203945
0.212995
0.222374
0.232109
0.242225
0.252747
0.2637
0.275108
0.286994
0.299384
0.312303
0.325775
0.339827
0.354483
0.36977
0.385715
0.402344
0.419684
0.437765
0.456614
0.476262
0.49674
0.518078
0.540309
0.563465
0.587579
0.612685
0.638814
0.665999
0.694274
0.723674
0.754233
0.785985
0.818964
0.853203
0.888734
0.925585
0.963786
1.00336
1.04434
1.08673
1.13057
1.17586
1.22262
1.27083
1.32048
1.37158
1.42412
1.47808
1.53345
1.59021
1.64833
1.70778
1.76852
1.83051
1.89369
1.95803
2.02346
2.08992
2.15734
2.22567
2.29483
2.36474
2.43534
2.50656
2.57835
2.65053
2.72301
2.79573
2.86862
2.94161
3.01462
3.08758
3.16043
3.2331
3.30553
3.37755
3.44896
3.51968
3.58965
3.6588
3.72707
3.79438
3.86067
3.92585
3.98987
4.05266
4.11414
4.17421
4.2328
4.28984
4.34526
4.399
4.451
4.5012
4.54954
4.59597
4.64042
4.68285
4.72322
4.76148
4.79759
4.8315
4.86319
4.89261
4.91975
4.94457
4.96707
4.98723
5.00504
5.0205
5.03361
5.04436
5.05276
5.05883
5.06256
5.06399
5.06314
5.06002
5.05468
5.04713
5.03743
5.0256
5.01169
4.99574
4.97781
4.95794
4.93618
4.9126
4.88725
4.86018
4.83147
4.80117
4.76935
4.73607
4.7014
4.66541
4.62816
4.58973
4.55018
4.50959
4.46801
4.42553
4.3822
4.3381
4.2933
4.24786
4.20185
4.15535
4.10842
4.06115
4.0136
3.96588
3.91806
3.87024
3.82255
3.77511
3.72805
3.68154
3.63577
3.5909
3.54711
3.50451
3.46295
3.42264
0.03208
0.0685012
0.0871184
0.100282
0.111031
0.120458
0.129093
0.137244
0.145117
0.152856
0.160571
0.168345
0.176246
0.184326
0.19263
0.201196
0.210056
0.21924
0.228775
0.238688
0.249004
0.25975
0.270951
0.282634
0.294827
0.307557
0.320853
0.334744
0.349262
0.364437
0.380302
0.396889
0.414232
0.432365
0.451324
0.471148
0.491874
0.513542
0.536193
0.559869
0.584611
0.610459
0.637448
0.665611
0.694991
0.725627
0.757558
0.790822
0.825455
0.861491
0.898962
0.937896
0.978321
1.02026
1.06373
1.10876
1.15535
1.20354
1.25335
1.30467
1.35752
1.41188
1.46776
1.52512
1.58395
1.6442
1.70585
1.76884
1.83314
1.89869
1.96543
2.0333
2.10224
2.17218
2.24305
2.31477
2.38727
2.46046
2.53427
2.60861
2.6834
2.75854
2.83393
2.90947
2.98511
3.06076
3.13636
3.21183
3.2871
3.36214
3.43669
3.51062
3.58385
3.65631
3.72793
3.79864
3.86836
3.93702
4.00456
4.0709
4.13596
4.19969
4.262
4.32282
4.38207
4.43968
4.49559
4.54974
4.60206
4.6525
4.701
4.74751
4.79197
4.83433
4.87457
4.91262
4.94846
4.98204
5.01333
5.04231
5.06894
5.09321
5.1151
5.13461
5.15172
5.16644
5.17875
5.18868
5.19621
5.20137
5.20417
5.20463
5.20278
5.19864
5.19224
5.18362
5.17281
5.15986
5.14481
5.12771
5.1086
5.08753
5.06458
5.03977
5.01319
4.98489
4.95492
4.92336
4.89027
4.85571
4.81975
4.78246
4.74391
4.70416
4.66328
4.62135
4.57843
4.53458
4.48989
4.4444
4.3982
4.35135
4.30392
4.25598
4.20759
4.15884
4.1098
4.06055
4.0112
3.96184
3.91258
3.86354
3.81487
3.76673
3.71929
3.67272
3.62717
3.58277
3.53934
3.49714
0.0314444
0.0675713
0.0859159
0.0988651
0.109419
0.118656
0.127104
0.13507
0.142758
0.150311
0.157838
0.165421
0.173127
0.181007
0.189106
0.197461
0.206106
0.215072
0.224387
0.234082
0.244183
0.25472
0.265724
0.277224
0.289253
0.301844
0.31503
0.32885
0.34334
0.358543
0.374498
0.391244
0.40882
0.42727
0.446641
0.466981
0.488338
0.510762
0.534303
0.559013
0.58495
0.61218
0.640704
0.670552
0.701777
0.734426
0.76854
0.804154
0.841303
0.880015
0.920316
0.962227
1.00577
1.05095
1.09777
1.14626
1.19639
1.24818
1.30161
1.35663
1.41322
1.47136
1.53101
1.59213
1.6547
1.71865
1.78395
1.85053
1.91835
1.98734
2.05743
2.12856
2.20065
2.27364
2.34744
2.42197
2.49716
2.57293
2.64918
2.72584
2.80281
2.88002
2.95736
3.03476
3.11214
3.18943
3.26656
3.3435
3.42009
3.49608
3.57143
3.64608
3.71994
3.79294
3.865
3.93605
4.00603
4.07486
4.14248
4.2088
4.27378
4.33732
4.39938
4.45987
4.51872
4.57588
4.63128
4.68485
4.73655
4.78632
4.83409
4.87983
4.92348
4.965
5.00435
5.04148
5.07637
5.10897
5.13927
5.16722
5.19281
5.21602
5.23685
5.25527
5.27128
5.28489
5.29609
5.30489
5.3113
5.31533
5.317
5.31634
5.31336
5.30809
5.30058
5.29084
5.27893
5.26488
5.24874
5.23055
5.21036
5.18824
5.16422
5.13837
5.11075
5.08142
5.05044
5.01786
4.98377
4.94821
4.91126
4.87299
4.83345
4.79272
4.75086
4.70795
4.66404
4.61921
4.57352
4.52704
4.47982
4.43195
4.38348
4.33448
4.28503
4.23518
4.18503
4.13466
4.08415
4.0336
3.98312
3.93284
3.8829
3.83344
3.78464
3.73666
3.68964
3.64371
3.59869
3.55487
0.0307969
0.0665175
0.084519
0.097197
0.107505
0.116509
0.124732
0.132481
0.139958
0.147305
0.154629
0.162011
0.169516
0.177196
0.185096
0.193255
0.201708
0.210491
0.219635
0.229175
0.239145
0.249579
0.260514
0.27199
0.284049
0.29673
0.310074
0.32413
0.338952
0.354596
0.371129
0.388586
0.407
0.426435
0.446955
0.46862
0.491489
0.515621
0.541074
0.567904
0.596166
0.62591
0.657168
0.689975
0.724367
0.760377
0.798034
0.837361
0.878374
0.921084
0.965498
1.01162
1.05943
1.10894
1.16012
1.21296
1.26743
1.32351
1.38116
1.44033
1.50098
1.56306
1.62653
1.69134
1.75743
1.82475
1.89324
1.96284
2.03349
2.10512
2.17766
2.25105
2.32521
2.40007
2.47556