/*--------------------------------*- C++ -*----------------------------------*\
  =========                 |
  \\      /  F ield         | OpenFOAM: The Open Source CFD Toolbox
   \\    /   O peration     | Website:  https://openfoam.org
    \\  /    A nd           | Version:  12
     \\/     M anipulation  |
\*---------------------------------------------------------------------------*/
FoamFile
{
    format      ascii;
    class       volScalarField;
    location    "0.16";
    object      nut;
}
// * * * * * * * * * * * * * * * * * * * * * * * * * * * * * * * * * * * * * //

dimensions      [0 2 -1 0 0 0 0];

internalField   nonuniform List<scalar> 
12225
(
4.04768e-05
3.83178e-05
3.62504e-05
3.44199e-05
3.2952e-05
3.18977e-05
3.12563e-05
3.09939e-05
3.10584e-05
3.13906e-05
3.19318e-05
3.26284e-05
3.34339e-05
3.43098e-05
3.5227e-05
3.6161e-05
3.71173e-05
3.85026e-05
0.000281048
0.000209266
0.000176266
0.000157439
0.000146271
0.000139687
0.000135793
0.00013343
0.000131915
0.000130858
0.000130044
0.000129357
0.00012874
0.000128162
0.000127623
0.00012708
0.000126686
0.000125729
0.000556047
0.000419907
0.000349814
0.000304735
0.000272447
0.000247983
0.000228766
0.000213301
0.000200672
0.000190271
0.000181656
0.000174488
0.000168498
0.000163465
0.000159215
0.00015556
0.000152416
0.000149343
0.000740308
0.000625821
0.000544116
0.000484998
0.00043977
0.00040365
0.00037384
0.000348604
0.000326853
0.00030789
0.000291242
0.000276561
0.000263577
0.000252061
0.000241815
0.000232624
0.000224329
0.000216645
0.000817069
0.000759141
0.000700545
0.000648577
0.000603896
0.000565582
0.000532472
0.000503511
0.000477876
0.000454957
0.000434309
0.000415596
0.000398561
0.000382991
0.000368707
0.000355525
0.000343297
0.000331926
0.0008421
0.000819688
0.000789924
0.000757605
0.000725553
0.000695162
0.000666964
0.000641015
0.000617173
0.000595236
0.000575
0.00055628
0.000538909
0.000522742
0.000507647
0.000493494
0.00048018
0.000467752
0.000849261
0.000841808
0.000829742
0.000814188
0.00079648
0.00077776
0.000758848
0.000740254
0.000722267
0.000705032
0.000688609
0.000673007
0.000658204
0.000644162
0.000630834
0.000618164
0.000606112
0.000594805
0.00085112
0.000848747
0.00084448
0.000838236
0.000830246
0.000820895
0.000810598
0.000799721
0.000788553
0.000777311
0.000766151
0.000755179
0.000744465
0.000734051
0.00072396
0.0007142
0.000704786
0.000695869
0.00085156
0.000850665
0.00084917
0.000846887
0.000843741
0.000839758
0.000835033
0.000829693
0.000823874
0.000817704
0.000811296
0.000804746
0.000798129
0.000791507
0.000784925
0.00077842
0.00077203
0.000765889
0.000851652
0.000851133
0.000850468
0.000849564
0.000848347
0.000846772
0.000844825
0.000842519
0.000839882
0.000836957
0.000833788
0.000830421
0.0008269
0.000823265
0.000819552
0.000815791
0.000812016
0.000808324
0.000851668
0.00085123
0.000850778
0.000850278
0.000849698
0.000849006
0.000848182
0.000847211
0.000846087
0.000844813
0.000843397
0.000841851
0.00084019
0.000838429
0.000836585
0.000834674
0.000832715
0.000830766
0.000851669
0.000851245
0.000850835
0.000850429
0.000850013
0.000849575
0.000849101
0.000848579
0.000848002
0.000847364
0.000846663
0.0008459
0.000845076
0.000844195
0.000843263
0.000842287
0.000841275
0.000840262
0.000851668
0.000851244
0.000850843
0.000850459
0.000850088
0.000849725
0.000849365
0.000849001
0.000848628
0.000848242
0.00084784
0.000847419
0.000846978
0.000846516
0.000846035
0.000845534
0.000845019
0.000844508
0.000851667
0.000851242
0.000850839
0.000850458
0.000850096
0.000849751
0.00084942
0.000849102
0.000848792
0.00084849
0.000848194
0.000847901
0.00084761
0.00084732
0.00084703
0.00084674
0.000846452
0.000846178
0.000851666
0.000851239
0.000850835
0.000850452
0.00085009
0.000849746
0.000849419
0.000849108
0.000848811
0.000848528
0.000848256
0.000847996
0.000847745
0.000847504
0.000847271
0.000847046
0.000846831
0.000846636
0.000851665
0.000851236
0.000850831
0.000850447
0.000850083
0.000849737
0.000849409
0.000849098
0.000848801
0.000848519
0.00084825
0.000847994
0.00084775
0.000847517
0.000847294
0.000847082
0.000846881
0.000846702
0.000851664
0.000851235
0.000850828
0.000850442
0.000850077
0.00084973
0.000849401
0.000849088
0.00084879
0.000848507
0.000848237
0.00084798
0.000847735
0.000847502
0.000847279
0.000847066
0.000846866
0.000846689
0.000851663
0.000851234
0.000850826
0.00085044
0.000850073
0.000849725
0.000849395
0.000849081
0.000848782
0.000848498
0.000848227
0.000847969
0.000847723
0.000847488
0.000847264
0.00084705
0.000846849
0.00084667
0.000851663
0.000851233
0.000850825
0.000850439
0.000850072
0.000849724
0.000849393
0.000849078
0.000848779
0.000848494
0.000848223
0.000847964
0.000847717
0.000847481
0.000847256
0.000847042
0.000846839
0.000846659
0.000851664
0.000851234
0.000850826
0.00085044
0.000850074
0.000849726
0.000849396
0.000849082
0.000848782
0.000848497
0.000848225
0.000847966
0.000847718
0.000847481
0.000847254
0.000847038
0.000846832
0.00084665
0.000851664
0.000851235
0.000850829
0.000850443
0.000850078
0.00084973
0.000849399
0.000849082
0.00084878
0.000848489
0.00084821
0.00084794
0.00084768
0.000847428
0.000847183
0.000846945
0.000846716
0.000846507
0.000851665
0.000851237
0.00085083
0.000850442
0.000850069
0.000849706
0.000849351
0.000848999
0.000848648
0.000848293
0.000847935
0.00084757
0.000847199
0.00084682
0.000846433
0.00084604
0.000845642
0.000845253
0.000851664
0.000851228
0.000850794
0.000850348
0.00084987
0.000849345
0.000848762
0.000848111
0.000847388
0.000846593
0.000845728
0.000844797
0.000843806
0.000842762
0.000841673
0.000840545
0.000839389
0.000838228
0.000851634
0.000851073
0.000850343
0.000849363
0.00084808
0.000846468
0.000844531
0.000842292
0.000839786
0.000837053
0.000834136
0.000831076
0.000827911
0.000824674
0.000821396
0.0008181
0.000814812
0.000811578
0.000851287
0.000849596
0.000846721
0.000842578
0.000837263
0.000830979
0.000823972
0.000816471
0.000808675
0.000800738
0.000792785
0.000784903
0.000777159
0.000769597
0.000762248
0.000755131
0.00074826
0.000741689
0.000848318
0.000839426
0.000826161
0.000810017
0.000792357
0.000774225
0.000756318
0.00073904
0.000722589
0.000707045
0.000692419
0.000678684
0.000665793
0.000653692
0.000642326
0.000631638
0.000621582
0.000612167
0.000828548
0.000788843
0.000746033
0.0007057
0.00066946
0.000637496
0.000609438
0.00058473
0.000562832
0.000543292
0.000525738
0.000509872
0.000495452
0.000482285
0.000470211
0.0004591
0.000448845
0.000439399
0.000730726
0.000627345
0.000554505
0.000501056
0.000460313
0.000428341
0.000402626
0.00038146
0.000363699
0.000348568
0.000335522
0.000324162
0.000314191
0.000305378
0.000297545
0.000290547
0.000284265
0.000278614
0.000439249
0.00033847
0.000287934
0.000256868
0.00023636
0.000222509
0.000212992
0.00020631
0.000201505
0.000197958
0.00019527
0.000193177
0.000191499
0.000190116
0.000188947
0.000187933
0.000187036
0.00018621
7.16431e-05
6.90587e-05
6.65522e-05
6.41646e-05
6.19883e-05
6.00784e-05
5.84564e-05
5.71212e-05
5.6057e-05
5.524e-05
5.46433e-05
5.4239e-05
5.40003e-05
5.39024e-05
5.39226e-05
5.40408e-05
5.42398e-05
5.45032e-05
4.29394e-07
9.63428e-06
1.55102e-05
2.09744e-05
2.70002e-05
3.37332e-05
4.12848e-05
4.97701e-05
5.87133e-05
6.7763e-05
7.68698e-05
8.59556e-05
9.49486e-05
0.000103791
0.00011244
0.000120859
0.000129022
0.000136904
0.000144482
0.000151729
0.000158617
0.000165115
0.000171182
0.000176777
0.00018185
0.000186349
0.000190223
0.000193437
0.000195978
0.000197808
0.000198746
0.000198443
0.000197302
4.52762e-05
0.000198838
4.55379e-05
0.000198276
0.000199296
4.63512e-05
4.64001e-05
4.6487e-05
4.78338e-05
4.80077e-05
4.90174e-05
5.00369e-05
5.10692e-05
5.2109e-05
5.31534e-05
5.42007e-05
5.52498e-05
5.62998e-05
5.73502e-05
5.84005e-05
5.94505e-05
6.04996e-05
6.15477e-05
6.25942e-05
6.3639e-05
6.46817e-05
6.57218e-05
6.6759e-05
6.77929e-05
6.88231e-05
6.98491e-05
7.08706e-05
7.1887e-05
7.2898e-05
7.39029e-05
7.49014e-05
7.5893e-05
7.68771e-05
7.78533e-05
7.88211e-05
7.97799e-05
8.07294e-05
8.1669e-05
8.25982e-05
8.35166e-05
8.44237e-05
8.53191e-05
8.62023e-05
8.70728e-05
8.79303e-05
8.87744e-05
8.96045e-05
9.04204e-05
9.12215e-05
9.20076e-05
9.27782e-05
9.3533e-05
9.42714e-05
9.49933e-05
9.5698e-05
9.63854e-05
9.70551e-05
9.7707e-05
9.83412e-05
9.89585e-05
9.95605e-05
0.000100151
0.000100722
0.000101271
0.000101799
0.000102306
0.000102791
0.000103254
0.000103695
0.000104113
0.000104508
0.00010488
0.000105228
0.000105552
0.000105851
0.000106127
0.000106377
0.000106603
0.000106803
0.000106978
0.000107128
0.000107252
0.000107351
0.000107424
0.000107471
0.000107492
0.000107488
0.000107458
0.000107403
0.000107322
0.000107216
0.000107085
0.000106928
0.000106747
0.000106541
0.000106312
0.000106058
0.00010578
0.000105479
0.000105155
0.000104808
0.000104439
0.000104049
0.000103637
0.000103205
0.000102752
0.000102279
0.000101788
0.000101277
0.000100749
0.000100204
9.96414e-05
9.9063e-05
9.84692e-05
9.78607e-05
9.72382e-05
9.66024e-05
9.59539e-05
9.52937e-05
9.46219e-05
9.39403e-05
9.32487e-05
9.25487e-05
9.18408e-05
9.11249e-05
9.04074e-05
8.97009e-05
8.91789e-05
8.87802e-05
8.83857e-05
8.79891e-05
8.75903e-05
8.71893e-05
8.67861e-05
8.63802e-05
8.59702e-05
8.55531e-05
8.5122e-05
8.46615e-05
8.41312e-05
8.34296e-05
8.21257e-05
1.43702e-06
3.11689e-05
6.576e-05
9.07574e-05
0.000108108
0.000121237
0.000132598
0.000143442
0.000154303
0.000165307
0.000176408
0.000187509
0.000198507
0.000209316
0.000219865
0.000230098
0.000239962
0.000249409
0.00025839
0.000266847
0.000274711
0.000281903
0.000288321
0.000293842
0.000298316
0.000301576
0.000303453
0.000303816
0.000302557
0.000299448
0.000293878
0.000285023
0.000273338
0.000259531
0.000268453
0.000254367
0.000261052
0.000261066
0.000254893
0.000257212
0.000259848
0.000265099
0.000270823
0.000276825
0.000282975
0.000289501
0.000296308
0.000303329
0.000310523
0.000317864
0.000325336
0.000332928
0.000340634
0.000348451
0.000356374
0.000364402
0.000372533
0.000380766
0.0003891
0.000397533
0.000406063
0.000414689
0.000423408
0.000432219
0.000441118
0.000450103
0.000459171
0.000468317
0.000477539
0.000486831
0.000496189
0.000505609
0.000515085
0.000524613
0.000534186
0.000543799
0.000553447
0.000563124
0.000572823
0.000582538
0.000592265
0.000601997
0.000611729
0.000621454
0.000631168
0.000640866
0.000650542
0.000660191
0.00066981
0.000679394
0.000688938
0.000698438
0.000707887
0.00071728
0.000726605
0.000735848
0.000744981
0.000753962
0.000762732
0.0007709
0.000778722
0.000786404
0.000793967
0.000801408
0.000808722
0.000815905
0.00082295
0.000829851
0.000836604
0.000843202
0.000849641
0.000855915
0.000862019
0.000867948
0.000873697
0.000879263
0.00088464
0.000889825
0.000894814
0.000899602
0.000904188
0.000908566
0.000912735
0.000916692
0.000920435
0.000923961
0.000927268
0.000930354
0.000933218
0.000935859
0.000938276
0.000940468
0.000942435
0.000944176
0.000945694
0.000946986
0.000948056
0.000948903
0.000949529
0.000949936
0.000950126
0.000950101
0.000949864
0.000949418
0.000948766
0.000947912
0.00094686
0.000945613
0.000944176
0.000942554
0.000940752
0.000938775
0.000936627
0.000934318
0.000931849
0.00092923
0.000926467
0.000923561
0.000920532
0.000917374
0.000914105
0.000910736
0.000907254
0.000903594
0.000899512
0.000893678
0.000886567
0.000879111
0.000871515
0.000863839
0.000856106
0.00084833
0.000840516
0.000832667
0.000824775
0.000816816
0.000808716
0.000800365
0.000790755
0.000771833
2.75072e-06
4.82653e-05
0.00010056
0.000139275
0.000167216
0.00018812
0.000204842
0.000219311
0.000232692
0.000245591
0.000258268
0.000270788
0.000283129
0.000295232
0.000307032
0.000318464
0.000329472
0.00034
0.000349997
0.00035941
0.000368184
0.000376264
0.000383593
0.00039012
0.000395799
0.000400609
0.000404577
0.000407802
0.000410457
0.000412736
0.000414801
0.000416867
0.000419519
0.000423584
0.000429459
0.000435175
0.000442927
0.000451442
0.00046045
0.000470703
0.000481778
0.000494249
0.000507319
0.00052103
0.000535083
0.000549462
0.000564148
0.000579119
0.000594354
0.000609836
0.000625553
0.000641496
0.000657659
0.000674035
0.000690621
0.000707413
0.000724407
0.000741601
0.00075899
0.000776571
0.000794339
0.00081229
0.000830418
0.000848716
0.000867179
0.000885798
0.000904567
0.000923475
0.000942515
0.000961676
0.000980948
0.00100032
0.00101978
0.00103932
0.00105892
0.00107858
0.00109827
0.001118
0.00113774
0.00115748
0.00117721
0.00119691
0.00121658
0.00123621
0.00125577
0.00127526
0.00129467
0.00131398
0.00133319
0.00135227
0.00137122
0.00139002
0.00140866
0.00142711
0.00144534
0.00146334
0.00148105
0.00149842
0.00151533
0.00153163
0.00154756
0.00156322
0.00157863
0.00159378
0.00160866
0.00162326
0.00163757
0.00165157
0.00166526
0.00167862
0.00169165
0.00170433
0.00171665
0.0017286
0.00174018
0.00175136
0.00176216
0.00177255
0.00178252
0.00179208
0.00180121
0.00180991
0.00181817
0.00182599
0.00183336
0.00184027
0.00184673
0.00185273
0.00185826
0.00186333
0.00186793
0.00187206
0.00187573
0.00187892
0.00188165
0.0018839
0.0018857
0.00188703
0.0018879
0.00188831
0.00188827
0.00188779
0.00188687
0.00188551
0.00188372
0.00188151
0.00187889
0.00187586
0.00187244
0.00186863
0.00186445
0.00185991
0.00185501
0.00184977
0.0018442
0.00183833
0.00183215
0.00182568
0.00181895
0.00181198
0.00180476
0.00179733
0.00178966
0.00178161
0.00177289
0.00176254
0.00175084
0.00173848
0.00172579
0.00171288
0.00169982
0.00168663
0.00167334
0.00165995
0.00164643
0.00163271
0.00161859
0.00160358
0.0015857
0.0015563
4.19088e-06
6.04163e-05
0.000125249
0.000174934
0.0002118
0.000239634
0.000261543
0.000279793
0.000295914
0.000310846
0.000325115
0.000338976
0.000352525
0.000365775
0.000378703
0.00039127
0.000403439
0.000415175
0.000426452
0.00043725
0.000447558
0.000457379
0.000466724
0.000475626
0.000484134
0.000492332
0.000500336
0.000508311
0.000516454
0.000524975
0.000534064
0.000543894
0.000554641
0.000566458
0.000579297
0.000593092
0.000607927
0.000623706
0.000640345
0.000657856
0.000676189
0.000695338
0.000715091
0.000735326
0.000755929
0.000776865
0.000798127
0.000819706
0.000841598
0.000863795
0.000886292
0.000909082
0.000932161
0.000955525
0.000979169
0.00100309
0.00102728
0.00105174
0.00107646
0.00110143
0.00112665
0.00115211
0.0011778
0.00120371
0.00122983
0.00125615
0.00128266
0.00130934
0.00133619
0.00136318
0.0013903
0.00141753
0.00144487
0.00147228
0.00149976
0.00152728
0.00155483
0.00158239
0.00160994
0.00163746
0.00166494
0.00169235
0.00171967
0.0017469
0.00177401
0.00180098
0.0018278
0.00185445
0.00188091
0.00190717
0.0019332
0.00195898
0.00198449
0.0020097
0.0020346
0.00205914
0.00208329
0.00210704
0.00213014
0.00215273
0.00217491
0.00219673
0.00221818
0.00223928
0.00225999
0.00228031
0.00230022
0.00231972
0.00233877
0.00235737
0.0023755
0.00239315
0.00241031
0.00242696
0.00244308
0.00245868
0.00247372
0.00248821
0.00250213
0.00251548
0.00252823
0.00254039
0.00255195
0.00256289
0.00257322
0.00258292
0.00259199
0.00260042
0.00260822
0.00261537
0.00262188
0.00262774
0.00263296
0.00263752
0.00264144
0.00264471
0.00264734
0.00264933
0.00265068
0.00265139
0.00265148
0.00265095
0.0026498
0.00264805
0.0026457
0.00264277
0.00263925
0.00263517
0.00263054
0.00262536
0.00261966
0.00261345
0.00260673
0.00259954
0.00259188
0.00258378
0.00257526
0.00256633
0.00255703
0.00254736
0.00253735
0.00252699
0.00251627
0.00250507
0.00249317
0.00248006
0.0024658
0.00245082
0.00243537
0.0024196
0.00240358
0.00238738
0.00237101
0.00235448
0.00233777
0.00232079
0.00230327
0.00228452
0.00226238
0.00223029
5.55653e-06
6.99961e-05
0.000144695
0.000203423
0.000247823
0.000281687
0.000308281
0.000330087
0.000348872
0.000365818
0.000381663
0.000396833
0.000411552
0.000425924
0.000439986
0.000453746
0.0004672
0.000480347
0.000493193
0.000505756
0.000518063
0.000530161
0.000542108
0.000553981
0.000565873
0.000577898
0.000590184
0.000602879
0.000616133
0.000630092
0.000644874
0.000660568
0.000677232
0.00069489
0.000713522
0.000733106
0.000753613
0.000774995
0.000797197
0.00082017
0.000843854
0.000868179
0.000893044
0.000918365
0.000944082
0.000970166
0.000996608
0.0010234
0.00105055
0.00107803
0.00110587
0.00113403
0.00116254
0.00119137
0.00122053
0.00125001
0.0012798
0.00130989
0.00134029
0.00137098
0.00140194
0.00143318
0.00146468
0.00149642
0.00152839
0.00156058
0.00159298
0.00162555
0.0016583
0.0016912
0.00172422
0.00175736
0.00179058
0.00182387
0.00185721
0.00189057
0.00192394
0.00195728
0.00199058
0.00202381
0.00205696
0.00208999
0.00212289
0.00215564
0.00218822
0.00222059
0.00225275
0.00228468
0.00231634
0.00234773
0.00237882
0.00240959
0.00244001
0.00247006
0.00249972
0.00252896
0.00255774
0.00258604
0.00261371
0.00264086
0.00266757
0.00269385
0.0027197
0.00274512
0.00277008
0.00279459
0.00281861
0.00284213
0.00286513
0.0028876
0.00290951
0.00293087
0.00295163
0.00297181
0.00299136
0.00301029
0.00302858
0.00304621
0.00306318
0.00307947
0.00309506
0.00310995
0.00312413
0.0031376
0.00315033
0.00316233
0.00317359
0.0031841
0.00319385
0.00320284
0.00321107
0.00321854
0.00322524
0.00323117
0.00323634
0.00324074
0.00324437
0.00324724
0.00324936
0.00325072
0.00325133
0.0032512
0.00325034
0.00324875
0.00324644
0.00324343
0.00323973
0.00323534
0.00323028
0.00322457
0.00321822
0.00321125
0.00320367
0.00319551
0.00318678
0.00317751
0.00316771
0.00315742
0.00314665
0.00313542
0.00312375
0.00311164
0.00309909
0.00308601
0.00307226
0.00305759
0.00304199
0.00302568
0.00300886
0.00299164
0.00297412
0.00295635
0.00293839
0.00292024
0.0029019
0.00288328
0.00286411
0.00284373
0.00282024
0.00278927
6.75952e-06
7.77555e-05
0.00016051
0.000226768
0.000277623
0.000316805
0.000347661
0.000372805
0.00039417
0.000413114
0.000430546
0.000447043
0.000462951
0.000478469
0.000493706
0.000508721
0.000523552
0.000538231
0.000552794
0.000567286
0.000581761
0.000596287
0.000610942
0.000625816
0.00064101
0.00065663
0.000672787
0.000689589
0.000707142
0.000725531
0.000744823
0.000765056
0.000786246
0.000808386
0.000831452
0.000855411
0.000880222
0.000905838
0.000932206
0.000959272
0.000986976
0.00101526
0.00104405
0.00107331
0.00110298
0.00113305
0.00116351
0.00119434
0.00122556
0.00125714
0.00128909
0.0013214
0.00135408
0.00138711
0.00142049
0.00145421
0.00148826
0.00152264
0.00155734
0.00159234
0.00162763
0.00166321
0.00169905
0.00173515
0.00177148
0.00180803
0.00184478
0.00188171
0.0019188
0.00195603
0.00199338
0.00203082
0.00206833
0.0021059
0.00214348
0.00218107
0.00221862
0.00225613
0.00229356
0.00233088
0.00236808
0.00240513
0.002442
0.00247867
0.00251512
0.00255132
0.00258726
0.00262291
0.00265825
0.00269326
0.00272791
0.0027622
0.00279609
0.00282956
0.0028626
0.00289519
0.00292731
0.00295881
0.00298975
0.00302018
0.00305014
0.00307963
0.00310866
0.00313722
0.00316529
0.00319285
0.00321988
0.00324637
0.0032723
0.00329764
0.00332239
0.00334652
0.00337002
0.00339287
0.00341506
0.00343656
0.00345736
0.00347745
0.00349681
0.00351543
0.0035333
0.0035504
0.00356672
0.00358226
0.00359701
0.00361095
0.00362408
0.00363638
0.00364786
0.00365851
0.00366832
0.00367729
0.00368542
0.00369271
0.00369915
0.00370474
0.00370949
0.0037134
0.00371647
0.0037187
0.00372011
0.00372069
0.00372046
0.00371942
0.00371758
0.00371495
0.00371155
0.00370738
0.00370247
0.00369682
0.00369044
0.00368337
0.00367562
0.00366719
0.00365812
0.00364843
0.00363814
0.00362727
0.00361585
0.0036039
0.00359144
0.00357847
0.003565
0.00355097
0.00353631
0.00352089
0.0035047
0.00348786
0.00347048
0.00345268
0.00343453
0.00341611
0.00339746
0.00337863
0.00335963
0.0033404
0.00332073
0.00330004
0.00327686
0.0032484
7.76348e-06
8.40612e-05
0.000173327
0.000245876
0.000302299
0.000346213
0.000380976
0.000409278
0.000433158
0.000454103
0.000473157
0.000491024
0.000508163
0.000524861
0.0005413
0.000557594
0.000573821
0.000590044
0.000606324
0.000622721
0.000639304
0.000656146
0.000673329
0.000690939
0.000709064
0.000727792
0.000747207
0.000767387
0.000788395
0.000810282
0.00083308
0.000856801
0.00088144
0.000906978
0.000933387
0.000960628
0.00098866
0.00101744
0.00104691
0.00107703
0.00110774
0.00113901
0.00117077
0.001203
0.00123567
0.00126875
0.00130223
0.00133612
0.00137039
0.00140504
0.00144008
0.00147549
0.00151127
0.00154741
0.00158392
0.00162077
0.00165796
0.00169548
0.00173332
0.00177146
0.0018099
0.00184862
0.0018876
0.00192683
0.00196629
0.00200596
0.00204582
0.00208585
0.00212603
0.00216633
0.00220674
0.00224723
0.00228778
0.00232835
0.00236892
0.00240948
0.00244998
0.00249041
0.00253074
0.00257093
0.00261097
0.00265083
0.00269049
0.00272991
0.00276907
0.00280796
0.00284654
0.0028848
0.00292272
0.00296027
0.00299744
0.00303421
0.00307055
0.00310646
0.0031419
0.00317687
0.00321134
0.00324519
0.00327851
0.00331133
0.00334367
0.00337554
0.00340693
0.00343783
0.00346822
0.00349808
0.0035274
0.00355615
0.00358433
0.00361189
0.00363884
0.00366515
0.00369079
0.00371577
0.00374004
0.00376361
0.00378644
0.00380853
0.00382986
0.00385042
0.00387018
0.00388914
0.00390729
0.00392461
0.0039411
0.00395674
0.00397153
0.00398545
0.0039985
0.00401067
0.00402196
0.00403236
0.00404187
0.00405048
0.00405821
0.00406504
0.00407096
0.00407599
0.00408014
0.00408339
0.00408577
0.00408726
0.00408788
0.00408764
0.00408655
0.00408461
0.00408183
0.00407823
0.00407384
0.00406864
0.00406265
0.00405591
0.00404842
0.00404021
0.0040313
0.00402171
0.00401146
0.00400058
0.00398908
0.003977
0.00396435
0.00395114
0.00393737
0.00392304
0.00390809
0.00389248
0.0038762
0.0038593
0.00384187
0.00382401
0.00380578
0.00378726
0.00376851
0.0037496
0.00373055
0.00371134
0.00369184
0.0036716
0.00364954
0.00362384
8.58799e-06
8.90087e-05
0.000183462
0.000261248
0.000322477
0.000370606
0.000408958
0.000440248
0.000466578
0.000489525
0.000510234
0.000529513
0.000547916
0.000565813
0.000583453
0.000601
0.000618574
0.000636264
0.000654147
0.000672296
0.000690783
0.000709681
0.000729064
0.000749006
0.00076958
0.000790852
0.000812883
0.000835724
0.000859413
0.000883976
0.000909424
0.000935755
0.000962955
0.000990999
0.00101986
0.00104949
0.00107986
0.00111092
0.00114263
0.00117495
0.00120784
0.00124125
0.00127516
0.00130953
0.00134435
0.00137958
0.00141522
0.00145127
0.00148771
0.00152454
0.00156174
0.00159933
0.00163728
0.00167559
0.00171426
0.00175327
0.00179262
0.00183229
0.00187228
0.00191257
0.00195314
0.00199398
0.00203508
0.00207642
0.00211798
0.00215975
0.00220169
0.0022438
0.00228605
0.00232842
0.00237088
0.00241341
0.00245599
0.00249859
0.00254118
0.00258374
0.00262624
0.00266866
0.00271096
0.00275312
0.00279512
0.00283691
0.00287849
0.00291981
0.00296087
0.00300162
0.00304206
0.00308216
0.00312189
0.00316125
0.00320021
0.00323875
0.00327686
0.00331452
0.00335171
0.00338843
0.00342459
0.00346021
0.00349533
0.00352997
0.00356414
0.00359784
0.00363107
0.0036638
0.00369603
0.00372772
0.00375887
0.00378945
0.00381944
0.00384883
0.00387758
0.00390569
0.00393313
0.00395987
0.00398592
0.00401124
0.00403581
0.00405963
0.00408267
0.00410491
0.00412634
0.00414694
0.00416671
0.00418564
0.0042037
0.00422089
0.00423721
0.00425264
0.00426716
0.00428077
0.00429347
0.00430525
0.00431612
0.00432606
0.00433507
0.00434316
0.0043503
0.00435652
0.00436181
0.00436618
0.00436964
0.00437217
0.00437378
0.0043745
0.00437434
0.00437329
0.00437135
0.00436854
0.00436489
0.0043604
0.00435508
0.00434897
0.00434207
0.0043344
0.00432599
0.00431685
0.00430702
0.0042965
0.00428532
0.00427351
0.00426108
0.00424806
0.00423444
0.00422024
0.00420543
0.00419
0.00417395
0.00415732
0.00414017
0.00412258
0.00410461
0.00408635
0.00406786
0.00404922
0.0040305
0.0040117
0.00399276
0.00397336
0.00395269
0.00392955
9.23486e-06
9.27253e-05
0.000191184
0.000273258
0.000338598
0.000390461
0.000432089
0.000466185
0.00049488
0.000519805
0.000542178
0.000562887
0.000582564
0.00060165
0.000620453
0.000639185
0.000657999
0.00067701
0.000696309
0.000715975
0.00073608
0.000756694
0.000777879
0.000799698
0.000822205
0.00084545
0.000869474
0.000894308
0.000919975
0.000946484
0.000973835
0.00100202
0.00103101
0.00106079
0.00109133
0.00112259
0.00115453
0.00118711
0.00122031
0.00125408
0.00128839
0.0013232
0.00135849
0.00139424
0.00143042
0.00146702
0.00150402
0.00154142
0.00157921
0.00161738
0.00165592
0.00169483
0.00173409
0.00177372
0.00181368
0.00185398
0.00189461
0.00193556
0.00197681
0.00201835
0.00206017
0.00210226
0.0021446
0.00218717
0.00222997
0.00227296
0.00231614
0.00235948
0.00240296
0.00244656
0.00249027
0.00253405
0.00257788
0.00262174
0.0026656
0.00270944
0.00275323
0.00279694
0.00284054
0.00288401
0.00292731
0.00297042
0.00301331
0.00305596
0.00309833
0.00314041
0.00318216
0.00322357
0.00326462
0.00330528
0.00334554
0.00338539
0.00342481
0.00346378
0.00350229
0.00354031
0.00357782
0.00361485
0.00365142
0.00368754
0.00372321
0.00375844
0.0037932
0.00382748
0.00386126
0.00389452
0.00392724
0.0039594
0.00399097
0.00402194
0.00405229
0.00408198
0.004111
0.00413934
0.00416697
0.00419387
0.00422002
0.00424541
0.00427
0.0042938
0.00431677
0.0043389
0.00436018
0.00438061
0.00440016
0.00441882
0.0044366
0.00445347
0.00446942
0.00448444
0.00449852
0.00451166
0.00452386
0.00453513
0.00454546
0.00455482
0.00456322
0.00457066
0.00457715
0.00458271
0.00458734
0.004591
0.00459371
0.0045955
0.00459637
0.00459632
0.00459537
0.00459352
0.00459079
0.0045872
0.00458276
0.00457749
0.0045714
0.00456451
0.00455684
0.00454841
0.00453924
0.00452936
0.00451879
0.00450753
0.00449563
0.00448309
0.00446994
0.00445617
0.00444179
0.00442681
0.00441123
0.00439509
0.00437844
0.00436134
0.00434387
0.00432609
0.00430809
0.00428997
0.0042718
0.00425363
0.00423545
0.00421704
0.0041978
0.00417686
9.71072e-06
9.53407e-05
0.000196741
0.000282232
0.000351029
0.000406154
0.000450738
0.000487436
0.000518376
0.000545217
0.000569224
0.000591343
0.000612267
0.000632495
0.000652384
0.000672189
0.000692092
0.000712229
0.000732704
0.000753601
0.000774992
0.000796939
0.000819497
0.000842715
0.000866635
0.000891292
0.000916712
0.000942914
0.000969908
0.000997695
0.00102627
0.00105561
0.0010857
0.00111652
0.00114803
0.0011802
0.00121301
0.00124641
0.00128038
0.00131488
0.00134989
0.00138538
0.00142132
0.0014577
0.0014945
0.00153169
0.00156928
0.00160726
0.0016456
0.00168431
0.00172339
0.00176281
0.00180259
0.0018427
0.00188315
0.00192393
0.00196503
0.00200644
0.00204815
0.00209015
0.00213243
0.00217498
0.00221779
0.00226084
0.00230412
0.00234762
0.00239132
0.00243519
0.00247923
0.00252341
0.00256772
0.00261213
0.00265662
0.00270116
0.00274573
0.00279031
0.00283486
0.00287937
0.00292379
0.00296811
0.00301228
0.00305629
0.0031001
0.00314368
0.003187
0.00323004
0.00327277
0.00331517
0.0033572
0.00339887
0.00344014
0.00348101
0.00352145
0.00356146
0.00360103
0.00364014
0.00367882
0.00371707
0.00375492
0.00379235
0.00382936
0.00386595
0.0039021
0.00393779
0.00397299
0.00400769
0.00404186
0.00407547
0.00410852
0.00414096
0.00417279
0.00420397
0.00423449
0.00426432
0.00429344
0.00432184
0.00434949
0.00437638
0.00440247
0.00442775
0.0044522
0.0044758
0.00449855
0.00452043
0.00454143
0.00456154
0.00458075
0.00459905
0.0046164
0.00463281
0.00464827
0.00466278
0.00467633
0.00468894
0.00470061
0.00471128
0.00472097
0.00472968
0.00473743
0.00474422
0.00475004
0.0047549
0.0047588
0.00476175
0.00476376
0.00476484
0.004765
0.00476424
0.00476259
0.00476004
0.00475663
0.00475236
0.00474724
0.00474131
0.00473457
0.00472704
0.00471875
0.00470971
0.00469994
0.00468947
0.00467832
0.0046665
0.00465403
0.00464093
0.00462721
0.00461287
0.00459796
0.00458248
0.00456649
0.00455005
0.00453323
0.0045161
0.00449876
0.0044813
0.00446382
0.00444641
0.00442909
0.00441171
0.0043938
0.00437472
1.00271e-05
9.69854e-05
0.000200374
0.000288476
0.000360104
0.000418024
0.000465224
0.000504284
0.000537306
0.000565952
0.000591514
0.000614974
0.000637071
0.000658348
0.000679203
0.000699925
0.000720721
0.000741747
0.000763117
0.000784921
0.000807228
0.000830096
0.000853574
0.000877699
0.000902504
0.000928012
0.000954241
0.0009812
0.00100889
0.00103731
0.00106644
0.00109627
0.00112679
0.00115795
0.00118975
0.00122214
0.00125511
0.00128861
0.00132264
0.00135715
0.00139212
0.00142754
0.00146338
0.00149963
0.00153627
0.00157329
0.00161068
0.00164843
0.00168654
0.001725
0.0017638
0.00180295
0.00184244
0.00188226
0.00192241
0.00196289
0.0020037
0.00204482
0.00208626
0.002128
0.00217004
0.00221237
0.00225498
0.00229787
0.00234102
0.00238442
0.00242806
0.00247192
0.00251599
0.00256025
0.00260468
0.00264926
0.00269397
0.00273879
0.00278369
0.00282865
0.00287363
0.00291862
0.00296357
0.00300845
0.00305324
0.0030979
0.0031424
0.0031867
0.00323076
0.00327457
0.00331809
0.0033613
0.00340416
0.00344666
0.00348879
0.00353052
0.00357185
0.00361275
0.00365327
0.00369342
0.00373322
0.00377265
0.00381172
0.00385041
0.00388873
0.00392664
0.00396413
0.00400119
0.00403778
0.00407387
0.00410946
0.0041445
0.00417898
0.00421286
0.00424614
0.00427878
0.00431076
0.00434206
0.00437265
0.00440253
0.00443165
0.00446002
0.00448759
0.00451433
0.00454025
0.00456531
0.00458952
0.00461284
0.00463528
0.00465682
0.00467747
0.00469721
0.00471598
0.0047338
0.00475065
0.00476654
0.00478147
0.00479543
0.00480843
0.00482044
0.00483146
0.0048415
0.00485056
0.00485864
0.00486575
0.00487189
0.00487705
0.00488126
0.00488452
0.00488683
0.0048882
0.00488865
0.00488818
0.00488682
0.00488456
0.00488143
0.00487745
0.00487261
0.00486696
0.00486049
0.00485324
0.00484521
0.00483643
0.00482692
0.0048167
0.00480579
0.0047942
0.00478195
0.00476907
0.00475556
0.00474146
0.0047268
0.00471162
0.00469597
0.00467994
0.00466358
0.00464701
0.00463033
0.00461365
0.00459707
0.00458064
0.00456427
0.00454759
0.00453006
1.01997e-05
9.77911e-05
0.000202323
0.000292291
0.000366144
0.000426383
0.00047583
0.000516971
0.000551859
0.000582141
0.000609115
0.000633786
0.000656921
0.000679096
0.00070074
0.000722168
0.00074361
0.000765236
0.00078717
0.000809507
0.000832316
0.000855652
0.000879556
0.000904063
0.000929194
0.000954967
0.000981391
0.00100847
0.0010362
0.00106458
0.00109358
0.0011232
0.00115342
0.00118421
0.00121555
0.00124741
0.00127978
0.00131262
0.00134592
0.00137965
0.0014138
0.00144834
0.00148327
0.00151857
0.00155423
0.00159024
0.0016266
0.00166331
0.00170036
0.00173775
0.00177548
0.00181356
0.00185198
0.00189074
0.00192986