/*--------------------------------*- C++ -*----------------------------------*\
  =========                 |
  \\      /  F ield         | OpenFOAM: The Open Source CFD Toolbox
   \\    /   O peration     | Website:  https://openfoam.org
    \\  /    A nd           | Version:  12
     \\/     M anipulation  |
\*---------------------------------------------------------------------------*/
FoamFile
{
    format      ascii;
    class       volScalarField;
    location    "0.16";
    object      p;
}
// * * * * * * * * * * * * * * * * * * * * * * * * * * * * * * * * * * * * * //

dimensions      [0 2 -2 0 0 0 0];

internalField   nonuniform List<scalar> 
12225
(
-1.12678
-3.40976
-4.57219
-4.88032
-5.04852
-5.20815
-5.33263
-5.42091
-5.49034
-5.55114
-5.60508
-5.65196
-5.69207
-5.72466
-5.74854
-5.75314
-5.74814
-5.63624
-4.59429
-5.29638
-5.38657
-5.25146
-5.21134
-5.27854
-5.35919
-5.42492
-5.48178
-5.53498
-5.58429
-5.62855
-5.66743
-5.7
-5.72579
-5.73758
-5.74842
-5.73036
-4.79904
-4.69607
-4.85281
-4.97489
-5.0822
-5.20444
-5.31265
-5.3952
-5.46227
-5.52194
-5.57588
-5.62384
-5.66594
-5.70188
-5.73207
-5.75328
-5.78005
-5.81107
-4.66175
-4.5836
-4.85964
-5.03832
-5.13272
-5.2298
-5.32483
-5.40229
-5.46677
-5.52483
-5.57794
-5.62572
-5.66829
-5.70578
-5.7392
-5.76858
-5.80587
-5.85747
-4.66872
-4.68596
-4.92601
-5.07588
-5.15187
-5.23652
-5.32606
-5.40205
-5.46592
-5.52353
-5.57654
-5.62475
-5.66841
-5.70806
-5.7452
-5.78154
-5.82591
-5.88525
-4.73042
-4.77287
-4.95062
-5.08132
-5.15927
-5.24176
-5.32801
-5.40279
-5.46633
-5.52372
-5.57678
-5.62554
-5.67036
-5.71212
-5.75253
-5.79392
-5.84256
-5.90403
-4.79017
-4.82968
-4.96605
-5.08823
-5.17058
-5.25026
-5.3319
-5.4047
-5.46771
-5.52483
-5.57789
-5.62714
-5.67306
-5.71668
-5.75972
-5.80452
-5.85539
-5.91599
-4.84334
-4.87822
-4.98849
-5.10109
-5.18362
-5.25949
-5.3364
-5.40704
-5.4694
-5.52621
-5.57923
-5.62893
-5.67583
-5.721
-5.76601
-5.81287
-5.86444
-5.92267
-4.89315
-4.92487
-5.01563
-5.11641
-5.19645
-5.2689
-5.34162
-5.40995
-5.47144
-5.52783
-5.58074
-5.63076
-5.67844
-5.72475
-5.77106
-5.8189
-5.87007
-5.92537
-4.94054
-4.96915
-5.0443
-5.13318
-5.20953
-5.2789
-5.34781
-5.41361
-5.47396
-5.52978
-5.58245
-5.6326
-5.68078
-5.7278
-5.77476
-5.82275
-5.87282
-5.92511
-4.98534
-5.01061
-5.07339
-5.15143
-5.22329
-5.28956
-5.35489
-5.41803
-5.477
-5.53209
-5.58436
-5.63443
-5.68279
-5.7301
-5.77716
-5.8247
-5.87328
-5.92269
-5.02389
-5.04621
-5.10003
-5.16927
-5.23652
-5.29978
-5.36204
-5.42274
-5.48026
-5.53452
-5.58627
-5.63606
-5.68431
-5.73153
-5.77828
-5.82504
-5.87208
-5.91906
-5.05962
-5.07941
-5.12592
-5.18743
-5.24998
-5.31019
-5.36957
-5.42788
-5.48385
-5.53716
-5.58826
-5.6376
-5.68552
-5.73238
-5.77856
-5.82433
-5.8698
-5.91458
-5.0972
-5.1145
-5.15427
-5.20825
-5.26558
-5.32226
-5.37853
-5.4342
-5.48831
-5.54038
-5.59057
-5.6392
-5.68649
-5.73267
-5.77793
-5.82241
-5.86609
-5.90861
-5.13539
-5.15029
-5.18412
-5.23112
-5.28302
-5.33579
-5.38877
-5.44163
-5.49359
-5.54411
-5.59311
-5.6407
-5.68702
-5.73215
-5.77617
-5.81908
-5.86082
-5.90112
-5.17225
-5.185
-5.21385
-5.25477
-5.30142
-5.35016
-5.3998
-5.44979
-5.49942
-5.5481
-5.59559
-5.64184
-5.68685
-5.73061
-5.77309
-5.81425
-5.85402
-5.89218
-5.20491
-5.21591
-5.24089
-5.27691
-5.31901
-5.36401
-5.41051
-5.45776
-5.50504
-5.55175
-5.59753
-5.6422
-5.68565
-5.7278
-5.76858
-5.80792
-5.84574
-5.88192
-5.229
-5.2388
-5.2612
-5.29389
-5.33275
-5.37491
-5.41892
-5.46392
-5.50918
-5.55407
-5.59817
-5.64123
-5.68307
-5.72358
-5.76266
-5.80024
-5.83626
-5.87066
-5.23757
-5.24693
-5.26842
-5.29997
-5.3377
-5.37874
-5.42161
-5.46545
-5.50954
-5.55326
-5.59615
-5.63793
-5.67843
-5.71753
-5.75516
-5.79126
-5.8258
-5.85876
-5.22275
-5.23281
-5.25582
-5.28949
-5.32933
-5.37199
-5.41592
-5.46046
-5.50498
-5.54884
-5.5916
-5.63304
-5.67303
-5.71149
-5.74837
-5.78365
-5.81733
-5.84943
-5.19665
-5.20785
-5.23366
-5.27143
-5.31524
-5.36087
-5.40699
-5.45329
-5.49913
-5.54382
-5.58703
-5.62864
-5.66862
-5.70692
-5.74352
-5.77843
-5.81168
-5.84334
-5.16178
-5.17417
-5.20423
-5.24875
-5.2983
-5.3475
-5.39633
-5.44512
-5.49294
-5.53891
-5.58285
-5.6249
-5.66509
-5.70342
-5.73991
-5.77464
-5.80765
-5.83904
-5.12121
-5.13383
-5.16923
-5.22386
-5.28104
-5.33412
-5.38578
-5.43727
-5.48716
-5.53446
-5.57929
-5.62192
-5.66246
-5.70093
-5.73743
-5.77207
-5.80496
-5.8362
-5.07741
-5.08899
-5.13141
-5.19807
-5.26282
-5.32054
-5.37653
-5.43131
-5.48294
-5.53113
-5.57661
-5.61975
-5.66057
-5.69913
-5.73562
-5.77018
-5.80296
-5.83406
-5.03058
-5.03835
-5.09942
-5.17926
-5.24445
-5.30419
-5.36617
-5.42584
-5.47971
-5.52889
-5.57505
-5.61867
-5.65971
-5.69831
-5.73473
-5.76919
-5.80186
-5.83289
-4.98264
-4.95901
-5.06983
-5.17881
-5.23944
-5.2936
-5.35711
-5.41956
-5.47494
-5.52505
-5.57204
-5.61625
-5.65762
-5.69637
-5.73284
-5.76729
-5.79993
-5.8309
-4.97334
-4.82903
-4.98809
-5.15432
-5.23887
-5.29994
-5.3648
-5.42604
-5.47987
-5.5291
-5.5756
-5.61938
-5.66029
-5.6986
-5.73465
-5.76871
-5.80104
-5.83181
-5.11875
-4.83496
-4.86972
-5.00021
-5.11983
-5.22688
-5.321
-5.39683
-5.45914
-5.51445
-5.56526
-5.61193
-5.65481
-5.69449
-5.7315
-5.76623
-5.79919
-5.83101
-5.05555
-5.55526
-5.5654
-5.40617
-5.32523
-5.34948
-5.40367
-5.45313
-5.49829
-5.54291
-5.58662
-5.62812
-5.66705
-5.70362
-5.73801
-5.77032
-5.80082
-5.83136
-1.71688
-3.58745
-4.65874
-4.95182
-5.08669
-5.22348
-5.33543
-5.41548
-5.47849
-5.53457
-5.58593
-5.63266
-5.67533
-5.71467
-5.75111
-5.78464
-5.81494
-5.84022
-6.73231
-6.73229
-6.73268
-6.73347
-6.73453
-6.73587
-6.73749
-6.7394
-6.74162
-6.74417
-6.74707
-6.75035
-6.75407
-6.75825
-6.76293
-6.76815
-6.77395
-6.78037
-6.78742
-6.79517
-6.80363
-6.81284
-6.82286
-6.83371
-6.84544
-6.85809
-6.87172
-6.88634
-6.902
-6.91901
-6.93744
-6.9556
-6.97515
-6.99784
-7.02386
-7.05125
-7.06472
-7.07189
-7.10303
-7.14527
-7.16594
-7.19366
-7.22411
-7.24069
-7.26498
-7.29183
-7.32009
-7.34926
-7.37908
-7.40936
-7.43996
-7.47076
-7.50166
-7.53257
-7.56339
-7.59401
-7.62434
-7.65425
-7.68365
-7.71241
-7.74041
-7.76752
-7.79359
-7.8185
-7.84209
-7.86422
-7.88471
-7.90342
-7.92016
-7.93478
-7.94709
-7.95691
-7.96406
-7.96835
-7.96961
-7.96764
-7.96224
-7.95325
-7.94045
-7.92368
-7.90274
-7.87745
-7.84763
-7.81309
-7.77368
-7.72922
-7.67954
-7.62448
-7.56389
-7.49763
-7.42555
-7.34751
-7.2634
-7.1731
-7.07649
-6.97351
-6.86415
-6.74841
-6.62617
-6.4973
-6.36135
-6.21841
-6.06857
-5.91187
-5.74834
-5.57798
-5.40085
-5.21697
-5.02643
-4.82928
-4.62563
-4.41559
-4.19928
-3.97684
-3.74843
-3.51422
-3.2744
-3.02916
-2.77871
-2.5233
-2.26315
-1.99851
-1.72965
-1.45684
-1.18036
-0.900501
-0.617557
-0.331834
-0.0436407
0.246709
0.538898
0.832606
1.12751
1.4233
1.71964
2.01621
2.31272
2.60883
2.90425
3.19867
3.49181
3.78337
4.07308
4.36068
4.6459
4.92851
5.20826
5.48493
5.75832
6.02822
6.29445
6.55684
6.81523
7.06947
7.31942
7.56497
7.80599
8.04241
8.27412
8.50105
8.72314
8.94034
9.15261
9.35993
9.56228
9.75955
9.95156
10.1383
10.3197
10.4958
10.6667
10.8323
10.9927
11.1479
11.298
11.4433
11.5848
11.724
11.8701
12.024
-6.73063
-6.73099
-6.73152
-6.73216
-6.73275
-6.73335
-6.73411
-6.73517
-6.7366
-6.73843
-6.74069
-6.74339
-6.74655
-6.75019
-6.75435
-6.75904
-6.7643
-6.77017
-6.77666
-6.78382
-6.79168
-6.80025
-6.80957
-6.81966
-6.83052
-6.84217
-6.85457
-6.86773
-6.88173
-6.89644
-6.91125
-6.92768
-6.94594
-6.96401
-6.98073
-6.99382
-7.01668
-7.05389
-7.07791
-7.08757
-7.11592
-7.14428
-7.16938
-7.2064
-7.23822
-7.26827
-7.29803
-7.3279
-7.35799
-7.38832
-7.41887
-7.44957
-7.48034
-7.51111
-7.54179
-7.57228
-7.60249
-7.63231
-7.66164
-7.69035
-7.71833
-7.74545
-7.77157
-7.79656
-7.82026
-7.84253
-7.8632
-7.88213
-7.89913
-7.91405
-7.92669
-7.93689
-7.94446
-7.94922
-7.95099
-7.94956
-7.94477
-7.93641
-7.9243
-7.90825
-7.88809
-7.86362
-7.83466
-7.80104
-7.76259
-7.71913
-7.67051
-7.61657
-7.55715
-7.4921
-7.4213
-7.3446
-7.26188
-7.17303
-7.07793
-6.97646
-6.86853
-6.75401
-6.63271
-6.5044
-6.3695
-6.22797
-6.07969
-5.92461
-5.76271
-5.59402
-5.41856
-5.23636
-5.0475
-4.85203
-4.65006
-4.44169
-4.22703
-4.00624
-3.77945
-3.54684
-3.30859
-3.06489
-2.81597
-2.56203
-2.30332
-2.04008
-1.77258
-1.50108
-1.22586
-0.947209
-0.66542
-0.380795
-0.0936423
0.195727
0.486996
0.779847
1.07396
1.36901
1.66469
1.96067
2.25664
2.55229
2.84731
3.1414
3.43426
3.72562
4.01518
4.3027
4.5879
4.87054
5.15038
5.42719
5.70077
5.97092
6.23744
6.50016
6.75892
7.01357
7.26397
7.50999
7.75153
7.98847
8.22074
8.44826
8.67095
8.88877
9.10168
9.30966
9.51266
9.71057
9.90324
10.0906
10.2727
10.4496
10.6212
10.7876
10.9487
11.1048
11.2559
11.4026
11.546
11.6872
11.8367
11.9844
-6.72644
-6.72778
-6.72917
-6.73035
-6.73115
-6.73177
-6.73243
-6.73332
-6.73453
-6.73613
-6.73816
-6.74064
-6.7436
-6.74706
-6.75104
-6.75558
-6.7607
-6.76643
-6.7728
-6.77983
-6.78756
-6.79601
-6.80521
-6.81518
-6.82593
-6.83749
-6.84987
-6.86309
-6.87721
-6.89225
-6.90799
-6.92459
-6.94257
-6.96119
-6.98008
-6.99945
-7.0216
-7.04759
-7.07238
-7.09398
-7.11758
-7.14258
-7.16761
-7.19595
-7.22477
-7.25381
-7.28306
-7.31252
-7.34222
-7.37214
-7.40223
-7.43247
-7.46277
-7.49307
-7.52328
-7.55333
-7.58312
-7.61254
-7.64149
-7.66985
-7.69752
-7.72436
-7.75023
-7.77501
-7.79855
-7.82069
-7.84129
-7.86019
-7.87721
-7.89218
-7.90495
-7.91531
-7.92311
-7.92815
-7.93025
-7.92921
-7.92487
-7.91702
-7.90548
-7.89006
-7.87059
-7.84686
-7.81872
-7.78598
-7.74846
-7.706
-7.65843
-7.6056
-7.54735
-7.48354
-7.41402
-7.33866
-7.25734
-7.16992
-7.07629
-6.97636
-6.86998
-6.75701
-6.63744
-6.5111
-6.37808
-6.23837
-6.09192
-5.93871
-5.77871
-5.61194
-5.43841
-5.25817
-5.07126
-4.87776
-4.67775
-4.47133
-4.25863
-4.03977
-3.81491
-3.58421
-3.34784
-3.106
-2.8589
-2.60675
-2.34979
-2.08826
-1.82241
-1.55252
-1.27886
-1.00171
-0.721363
-0.438119
-0.152282
0.135838
0.425928
0.71767
1.01075
1.30484
1.59963
1.8948
2.19004
2.48503
2.77947
3.07305
3.36549
3.6565
3.9458
4.23311
4.51818
4.80077
5.08062
5.35752
5.63124
5.90159
6.16838
6.43142
6.69055
6.94562
7.19649
7.44302
7.6851
7.92264
8.15552
8.38368
8.60703
8.82552
9.03909
9.24771
9.45133
9.64988
9.84329
10.0315
10.2145
10.3922
10.5647
10.732
10.8942
11.0513
11.2037
11.3518
11.4971
11.6401
11.792
11.9292
-6.72027
-6.72257
-6.72525
-6.72745
-6.72895
-6.73005
-6.73104
-6.73212
-6.73342
-6.73505
-6.73707
-6.73951
-6.74243
-6.74584
-6.74977
-6.75426
-6.75933
-6.765
-6.77131
-6.77828
-6.78593
-6.7943
-6.8034
-6.81325
-6.82387
-6.83529
-6.84752
-6.86057
-6.87449
-6.88929
-6.90495
-6.92149
-6.93899
-6.95739
-6.97659
-6.99682
-7.01843
-7.04146
-7.06507
-7.08885
-7.11319
-7.13832
-7.16409
-7.1909
-7.21851
-7.24666
-7.27523
-7.30415
-7.33337
-7.36285
-7.39253
-7.42236
-7.45227
-7.4822
-7.51206
-7.54177
-7.57125
-7.60038
-7.62907
-7.65721
-7.68468
-7.71135
-7.73709
-7.76177
-7.78524
-7.80735
-7.82796
-7.8469
-7.864
-7.8791
-7.89203
-7.9026
-7.91064
-7.91597
-7.91839
-7.91774
-7.9138
-7.90641
-7.89538
-7.88051
-7.86162
-7.83853
-7.81107
-7.77905
-7.7423
-7.70065
-7.65393
-7.602
-7.54469
-7.48185
-7.41335
-7.33904
-7.25879
-7.17248
-7.07998
-6.98119
-6.87598
-6.76426
-6.64594
-6.52099
-6.3894
-6.25113
-6.10613
-5.95437
-5.79586
-5.63058
-5.45855
-5.27982
-5.09443
-4.90244
-4.70396
-4.49906
-4.28787
-4.07052
-3.84715
-3.61792
-3.38301
-3.14261
-2.89693
-2.64617
-2.39057
-2.13036
-1.86581
-1.59718
-1.32473
-1.04876
-0.769541
-0.487379
-0.202575
0.0845621
0.373721
0.664588
0.956843
1.25017
1.54426
1.83878
2.13343
2.42789
2.72186
3.01504
3.30713
3.59785
3.88691
4.17405
4.45901
4.74153
5.02138
5.29832
5.57215
5.84265
6.10963
6.37291
6.63232
6.88771
7.13893
7.38586
7.62837
7.86635
8.09971
8.32836
8.55224
8.77127
8.98541
9.19458
9.3987
9.59773
9.79166
9.98044
10.164
10.3424
10.5155
10.6835
10.8463
11.0042
11.1575
11.3065
11.4527
11.5957
11.7465
11.8712
-6.7137
-6.71702
-6.72105
-6.72441
-6.72679
-6.72856
-6.73007
-6.73155
-6.73317
-6.73503
-6.73724
-6.73984
-6.74288
-6.74641
-6.75045
-6.75504
-6.7602
-6.76596
-6.77235
-6.77939
-6.78712
-6.79556
-6.80472
-6.81464
-6.82533
-6.83681
-6.84911
-6.86224
-6.87623
-6.89108
-6.90681
-6.92344
-6.94098
-6.95941
-6.97873
-6.99899
-7.02026
-7.04251
-7.06549
-7.08909
-7.11342
-7.13849
-7.16426
-7.19075
-7.21786
-7.24549
-7.27358
-7.30206
-7.33089
-7.36
-7.38934
-7.41885
-7.44847
-7.47812
-7.50773
-7.53721
-7.56647
-7.59542
-7.62395
-7.65195
-7.6793
-7.70588
-7.73156
-7.7562
-7.77966
-7.80179
-7.82244
-7.84145
-7.85866
-7.87389
-7.88697
-7.89773
-7.90598
-7.91155
-7.91424
-7.91388
-7.91028
-7.90324
-7.89259
-7.87813
-7.85969
-7.83707
-7.81011
-7.77861
-7.74242
-7.70135
-7.65525
-7.60396
-7.54732
-7.48517
-7.41739
-7.34383
-7.26435
-7.17883
-7.08716
-6.9892
-6.88486
-6.77406
-6.6567
-6.53275
-6.40216
-6.26489
-6.12089
-5.97015
-5.81265
-5.6484
-5.4774
-5.2997
-5.11534
-4.9244
-4.72694
-4.52308
-4.31291
-4.09658
-3.87422
-3.646
-3.41208
-3.17266
-2.92793
-2.67811
-2.42343
-2.16413
-1.90046
-1.63268
-1.36106
-1.08589
-0.807441
-0.526018
-0.241921
0.0445442
0.333066
0.623329
0.91502
1.20782
1.50142
1.79549
2.08973
2.38382
2.67746
2.97035
3.26219
3.5527
3.8416
4.12861
4.41348
4.69595
4.97579
5.25275
5.52664
5.79723
6.06434
6.32778
6.58738
6.84299
7.09445
7.34165
7.58444
7.82274
8.05644
8.28546
8.50971
8.72913
8.94364
9.15317
9.35763
9.55698
9.75121
9.94031
10.1242
10.303
10.4765
10.6449
10.8082
10.9665
11.1202
11.2695
11.4156
11.5575
11.7053
11.8182
-6.70813
-6.71231
-6.71752
-6.72196
-6.72523
-6.72773
-6.72986
-6.73187
-6.73392
-6.73616
-6.73869
-6.74158
-6.7449
-6.74867
-6.75295
-6.75776
-6.76314
-6.76912
-6.77571
-6.78297
-6.7909
-6.79953
-6.80889
-6.81901
-6.82989
-6.84158
-6.85407
-6.86739
-6.88156
-6.89658
-6.91246
-6.92922
-6.94685
-6.96534
-6.9847
-7.00494
-7.02605
-7.04799
-7.07067
-7.09404
-7.11811
-7.14289
-7.16835
-7.19446
-7.22117
-7.24841
-7.27613
-7.30428
-7.33279
-7.36162
-7.3907
-7.41998
-7.44938
-7.47885
-7.50829
-7.53762
-7.56676
-7.5956
-7.62405
-7.65198
-7.67929
-7.70585
-7.73154
-7.7562
-7.7797
-7.8019
-7.82263
-7.84174
-7.85907
-7.87444
-7.88768
-7.89861
-7.90706
-7.91283
-7.91576
-7.91564
-7.9123
-7.90555
-7.89519
-7.88105
-7.86294
-7.84067
-7.81407
-7.78296
-7.74716
-7.70651
-7.66085
-7.61
-7.55383
-7.49218
-7.4249
-7.35186
-7.27292
-7.18797
-7.09687
-6.99951
-6.8958
-6.78565
-6.66897
-6.54571
-6.4158
-6.27921
-6.13589
-5.98583
-5.82901
-5.66544
-5.49512
-5.3181
-5.13443
-4.94417
-4.74739
-4.54421
-4.33472
-4.11906
-3.89737
-3.66981
-3.43655
-3.19778
-2.95369
-2.7045
-2.45043
-2.19174
-1.92866
-1.66145
-1.39039
-1.11576
-0.837834
-0.556915
-0.273302
0.0126998
0.30078
0.590625
0.88192
1.17435
1.4676
1.76135
2.05529
2.34912
2.64251
2.93519
3.22684
3.51719
3.80595
4.09286
4.37764
4.66006
4.93986
5.21683
5.49073
5.76137
6.02855
6.29208
6.55179
6.80753
7.05915
7.30652
7.54952
7.78803
8.02195
8.2512
8.4757
8.69536
8.9101
9.11986
9.32455
9.52411
9.71855
9.90787
10.092
10.271
10.4448
10.6134
10.7769
10.9354
11.0892
11.2385
11.384
11.5241
11.6688
11.7712
-6.70444
-6.70926
-6.71539
-6.72072
-6.72478
-6.72798
-6.73072
-6.73327
-6.7358
-6.73848
-6.7414
-6.74466
-6.74831
-6.75241
-6.757
-6.76211
-6.76779
-6.77405
-6.78092
-6.78845
-6.79665
-6.80554
-6.81516
-6.82552
-6.83664
-6.84855
-6.86125
-6.87477
-6.8891
-6.90427
-6.92027
-6.93711
-6.95479
-6.9733
-6.99264
-7.0128
-7.03377
-7.05552
-7.07801
-7.10121
-7.1251
-7.14966
-7.17487
-7.20072
-7.22715
-7.25412
-7.28159
-7.3095
-7.3378
-7.36643
-7.39535
-7.42449
-7.45377
-7.48314
-7.5125
-7.54177
-7.57087
-7.59969
-7.62813
-7.65608
-7.68343
-7.71003
-7.73578
-7.76052
-7.78411
-7.80641
-7.82727
-7.8465
-7.86397
-7.87949
-7.89289
-7.90399
-7.91261
-7.91858
-7.9217
-7.92178
-7.91865
-7.91211
-7.90198
-7.88807
-7.87019
-7.84817
-7.82182
-7.79096
-7.75544
-7.71507
-7.66969
-7.61914
-7.56328
-7.50194
-7.43499
-7.3623
-7.28372
-7.19913
-7.10841
-7.01145
-6.90815
-6.79843
-6.68219
-6.55936
-6.42988
-6.29372
-6.15083
-6.00119
-5.8448
-5.68164
-5.51175
-5.33515
-5.1519
-4.96206
-4.76571
-4.56294
-4.35388
-4.13864
-3.91737
-3.69023
-3.45739
-3.21902
-2.97534
-2.72656
-2.4729
-2.2146
-1.9519
-1.68508
-1.4144
-1.14013
-0.862561
-0.581989
-0.298711
-0.0130331
0.274735
0.564281
0.855289
1.14745
1.44044
1.73395
2.02766
2.32127
2.61448
2.90697
3.19847
3.48867
3.77731
4.0641
4.3488
4.63114
4.9109
5.18782
5.46171
5.73234
5.99953
6.26309
6.52285
6.77866
7.03037
7.27784
7.52094
7.75958
7.99364
8.22303
8.44767
8.66747
8.88237
9.09227
9.29711
9.49682
9.69142
9.88088
10.0652
10.2443
10.4182
10.587
10.7506
10.9092
11.0629
11.2118
11.3565
11.4945
11.6363
11.7295
-6.70312
-6.70837
-6.71512
-6.72111
-6.72579
-6.72957
-6.73286
-6.73591
-6.73892
-6.74202
-6.74535
-6.74898
-6.75299
-6.75743
-6.76235
-6.76779
-6.77378
-6.78034
-6.78752
-6.79533
-6.8038
-6.81297
-6.82284
-6.83344
-6.84479
-6.8569
-6.86979
-6.88347
-6.89795
-6.91323
-6.92932
-6.94621
-6.96391
-6.98242
-7.00172
-7.02181
-7.04267
-7.06429
-7.08664
-7.1097
-7.13345
-7.15786
-7.18292
-7.2086
-7.23486
-7.26168
-7.289
-7.31678
-7.34496
-7.37351
-7.40236
-7.43144
-7.4607
-7.49005
-7.51941
-7.54871
-7.57785
-7.60673
-7.63524
-7.66327
-7.69071
-7.71742
-7.74328
-7.76814
-7.79187
-7.81431
-7.8353
-7.85469
-7.8723
-7.88797
-7.90153
-7.91278
-7.92156
-7.92768
-7.93096
-7.9312
-7.92822
-7.92183
-7.91185
-7.89809
-7.88036
-7.85848
-7.83229
-7.80158
-7.76621
-7.72599
-7.68077
-7.63039
-7.5747
-7.51354
-7.44677
-7.37426
-7.29588
-7.2115
-7.121
-7.02427
-6.9212
-6.81172
-6.69571
-6.57311
-6.44387
-6.30793
-6.16527
-6.01585
-5.85966
-5.69672
-5.52705
-5.35067
-5.16763
-4.97801
-4.78188
-4.57934
-4.37051
-4.1555
-3.93447
-3.70756
-3.47495
-3.23683
-2.99339
-2.74485
-2.49143
-2.23338
-1.97093
-1.70435
-1.43391
-1.15988
-0.882552
-0.602215
-0.31917
-0.0337201
0.253824
0.543151
0.833946
1.12589
1.41868
1.712
2.00553
2.29897
2.592
2.88434
3.17569
3.46575
3.75426
4.04094
4.32554
4.60778
4.88745
5.16431
5.43814
5.70873
5.97589
6.23943
6.49919
6.75501
7.00673
7.25423
7.49738
7.73607
7.9702
8.19966
8.42437
8.64426
8.85924
9.06923
9.27415
9.47397
9.66867
9.85823
10.0426
10.2219
10.3959
10.5647
10.7283
10.8869
11.0403
11.1886
11.3322
11.4682
11.6073
11.6925
-6.70434
-6.70979
-6.71688
-6.72328
-6.7284
-6.73264
-6.73636
-6.73984
-6.74324
-6.74673
-6.75042
-6.7544
-6.75874
-6.7635
-6.76873
-6.77446
-6.78073
-6.78757
-6.79502
-6.80309
-6.81181
-6.8212
-6.83129
-6.84209
-6.85363
-6.8659
-6.87894
-6.89274
-6.90732
-6.92268
-6.93882
-6.95575
-6.97346
-6.99195
-7.01122
-7.03126
-7.05205
-7.07358
-7.09585
-7.11882
-7.14248
-7.16681
-7.19179
-7.21739
-7.24358
-7.27033
-7.2976
-7.32534
-7.35351
-7.38206
-7.41092
-7.44004
-7.46935
-7.49877
-7.52822
-7.55761
-7.58685
-7.61585
-7.64449
-7.67266
-7.70024
-7.7271
-7.75311
-7.77813
-7.80202
-7.82461
-7.84576
-7.8653
-7.88306
-7.89887
-7.91256
-7.92395
-7.93285
-7.93908
-7.94246
-7.9428
-7.93991
-7.93361
-7.9237
-7.91001
-7.89235
-7.87053
-7.84439
-7.81373
-7.77841
-7.73824
-7.69306
-7.64273
-7.58708
-7.52597
-7.45926
-7.38682
-7.3085
-7.22419
-7.13377
-7.03712
-6.93414
-6.82473
-6.70879
-6.58627
-6.45709
-6.32121
-6.1786
-6.02923
-5.8731
-5.71022
-5.5406
-5.36428
-5.18131
-4.99175
-4.7957
-4.59324
-4.38449
-4.16957
-3.94864
-3.72183
-3.48934
-3.25133
-3.00802
-2.7596
-2.50632
-2.2484
-1.9861
-1.71967
-1.44938
-1.17551
-0.898343
-0.618171
-0.335291
-0.050009
0.237366
0.526522
0.817147
1.10893
1.40155
1.6947
1.98806
2.28134
2.57422
2.8664
3.15759
3.44751
3.73588
4.02242
4.30689
4.58902
4.86858
5.14533
5.41907
5.68958
5.95666
6.22014
6.47985
6.73563
6.98732
7.2348
7.47794
7.71662
7.95075
8.18023
8.40497
8.62488
8.83989
9.04992
9.25489
9.45477
9.64953
9.83916
10.0236
10.2029
10.3769
10.5457
10.7093
10.8676
11.0207
11.1683
11.3107
11.4446
11.5813
11.6596
-6.70802
-6.71348
-6.72064
-6.72721
-6.73259
-6.73711
-6.74115
-6.74495
-6.74866
-6.75246
-6.75643
-6.76069
-6.7653
-6.77031
-6.77578
-6.78175
-6.78824
-6.7953
-6.80295
-6.81122
-6.82012
-6.82969
-6.83993
-6.85088
-6.86254
-6.87493
-6.88806
-6.90194
-6.91658
-6.93198
-6.94815
-6.9651
-6.98281
-7.00129
-7.02054
-7.04055
-7.06131
-7.0828
-7.10503
-7.12797
-7.15161
-7.17592
-7.20089
-7.22649
-7.25269
-7.27946
-7.30677
-7.33456
-7.3628
-7.39142
-7.42038
-7.44961
-7.47904
-7.50859
-7.53818
-7.56773
-7.59714
-7.6263
-7.65511
-7.68345
-7.71121
-7.73824
-7.76442
-7.7896
-7.81365
-7.83639
-7.85768
-7.87735
-7.89524
-7.91116
-7.92495
-7.93642
-7.94539
-7.95168
-7.95511
-7.95548
-7.95261
-7.94631
-7.9364
-7.9227
-7.90501
-7.88316
-7.85697
-7.82627
-7.7909
-7.75067
-7.70544
-7.65505
-7.59934
-7.53818
-7.47142
-7.39892
-7.32056
-7.23622
-7.14576
-7.04907
-6.94604
-6.83657
-6.72058
-6.59799
-6.46874
-6.33279
-6.19011
-6.04067
-5.88447
-5.72152
-5.55184
-5.37546
-5.19245
-5.00285
-4.80676
-4.60428
-4.39552
-4.1806
-3.95967
-3.73288
-3.50041
-3.26244
-3.01917
-2.77082
-2.5176
-2.25976
-1.99754
-1.73121
-1.46102
-1.18726
-0.910219
-0.630175
-0.347429
-0.0622887
0.22494
0.513945
0.804415
1.09604
1.38849
1.68147
1.97467
2.26777
2.56047
2.85249
3.14351
3.43326
3.72147
4.00785
4.29216
4.57414
4.85356
5.13017
5.40378
5.67416
5.94113
6.2045
6.46411
6.71979
6.9714
7.21881
7.46189
7.70052
7.93461
8.16406
8.38877
8.60867
8.82366
9.03369
9.23868
9.43859
9.63337
9.82302
10.0075
10.1868
10.3608
10.5295
10.693
10.851
11.0036
11.1504
11.2916
11.4235
11.5579
11.6304
-6.7139
-6.7192
-6.7262
-6.73272
-6.73817
-6.74284
-6.74706
-6.75105
-6.75497
-6.75896
-6.76313
-6.76757
-6.77235
-6.77753
-6.78316
-6.78927
-6.79591
-6.8031
-6.81087
-6.81925
-6.82826
-6.83792
-6.84826
-6.85928
-6.87101
-6.88345
-6.89663
-6.91054
-6.92521
-6.94063
-6.95682
-6.97377
-6.99148
-7.00997
-7.02921
-7.04922
-7.06998
-7.09149
-7.11373
-7.13669
-7.16036
-7.18472
-7.20975
-7.23542
-7.2617
-7.28857
-7.31598
-7.34389
-7.37226
-7.40103
-7.43014
-7.45954
-7.48914
-7.51887
-7.54865
-7.57838
-7.60797
-7.63733
-7.66632
-7.69485
-7.72277
-7.74997
-7.77631
-7.80164
-7.82582
-7.84868
-7.87007
-7.88983
-7.90779
-7.92376
-7.93759
-7.94908
-7.95805
-7.96433
-7.96772
-7.96804
-7.9651
-7.95872
-7.94872
-7.93491
-7.9171
-7.89513
-7.86881
-7.83797
-7.80245
-7.76208
-7.7167
-7.66616
-7.61031
-7.549
-7.4821
-7.40947
-7.33098
-7.2465
-7.15591
-7.05908
-6.95589
-6.84626
-6.73009
-6.60733
-6.47792
-6.3418
-6.19896
-6.04936
-5.893
-5.7299
-5.56008
-5.38357
-5.20044
-5.01073
-4.81455
-4.61198
-4.40314
-4.18817
-3.96719
-3.74037
-3.50789
-3.26992
-3.02666
-2.77833
-2.52515
-2.26736
-2.00521
-1.73895
-1.46885
-1.1952
-0.918263
-0.638345
-0.355739
-0.0707474
0.216324
0.505165
0.795464
1.08691
1.37918
1.67197
1.96497
2.25788
2.55038
2.8422
3.13302
3.42257
3.71057
3.99676
4.28087
4.56265
4.84187
5.1183
5.39173
5.66194
5.92874
6.19196
6.45142
6.70696
6.95845
7.20574
7.44871
7.68725
7.92125
8.15062
8.37526
8.5951
8.81006
9.02005
9.22502
9.42492
9.61971
9.80935
9.99382
10.1731
10.347
10.5157
10.6789
10.8366
10.9887
11.1346
11.2745
11.4045
11.5368
11.6044
-6.72159
-6.7266
-6.73326
-6.73956
-6.74491
-6.74958
-6.75383
-6.75788
-6.76188
-6.76595
-6.7702
-6.77471
-6.77956
-6.7848
-6.79048
-6.79664
-6.80332
-6.81055
-6.81835
-6.82676
-6.8358
-6.84548
-6.85583
-6.86687
-6.8786
-6.89105
-6.90423
-6.91815
-6.93282
-6.94824
-6.96443
-6.98139
-6.99911
-7.01761
-7.03688
-7.05691
-7.07771
-7.09927
-7.12157
-7.1446
-7.16836
-7.19282
-7.21796
-7.24375
-7.27017
-7.29719
-7.32476
-7.35284
-7.38139
-7.41034
-7.43964
-7.46923
-7.49902
-7.52895
-7.55892
-7.58884
-7.61862
-7.64814
-7.6773
-7.70598
-7.73404
-7.76137
-7.78781
-7.81323
-7.83747
-7.86039
-7.88181
-7.90158
-7.91952
-7.93547
-7.94924
-7.96065
-7.96953
-7.97569
-7.97895
-7.97912
-7.97602
-7.96947
-7.95928
-7.94527
-7.92725
-7.90507
-7.87853
-7.84747
-7.81172
-7.77113
-7.72552
-7.67476
-7.61869
-7.55717
-7.49006
-7.41723
-7.33855
-7.25387
-7.16305
-7.06598
-6.96255
-6.85267
-6.73626
-6.61326
-6.48361
-6.34726
-6.20419
-6.05438
-5.89782
-5.73452
-5.56452
-5.38784
-5.20455
-5.01471
-4.8184
-4.61572
-4.4068
-4.19174
-3.97071
-3.74385
-3.51135
-3.27337
-3.03013
-2.78183
-2.52871
-2.27098
-2.00891
-1.74275
-1.47277
-1.19924
-0.922441
-0.642677
-0.360239
-0.0754257
0.211456
0.500098
0.790188
1.08141
1.37346
1.66602
1.95878
2.25144
2.5437
2.83526
3.12582
3.41512
3.70287
3.9888
4.27266
4.55419
4.83317
5.10936
5.38255
5.65253
5.91912
6.18213
6.44139
6.69675
6.94805
7.19518
7.438
7.6764
7.91027
8.13952
8.36407
8.58382
8.7987
9.00863
9.21356
9.41342
9.60818
9.7978
9.98223
10.1614
10.3353
10.5038
10.6668
10.8241
10.9755
11.1206
11.2592
11.3873
11.5177
11.5812
-6.73069
-6.73532
-6.7415
-6.74743
-6.75255
-6.75705
-6.76121
-6.76518
-6.76911
-6.77313
-6.77732
-6.78178
-6.78658
-6.79176
-6.79738
-6.80348
-6.8101
-6.81727
-6.82502
-6.83337
-6.84236
-6.85199
-6.86229
-6.87328
-6.88498
-6.89739
-6.91055
-6.92444
-6.93909
-6.95451
-6.9707
-6.98766
-7.00541
-7.02394
-7.04325
-7.06334
-7.08421
-7.10585
-7.12825
-7.15139
-7.17527
-7.19987
-7.22516
-7.25111
-7.2777
-7.30489
-7.33264
-7.3609
-7.38963
-7.41877
-7.44825
-7.47802
-7.50798
-7.53807
-7.56819
-7.59826
-7.62816
-7.65779
-7.68705
-7.7158
-7.74391
-7.77127
-7.79772
-7.82313
-7.84734
-7.8702
-7.89154
-7.9112
-7.92901
-7.94481
-7.95841
-7.96963
-7.9783
-7.98423
-7.98725
-7.98716
-7.9838
-7.97697
-7.96649
-7.95219
-7.93389
-7.9114
-7.88457
-7.85322
-7.81718
-7.7763
-7.73042
-7.67939
-7.62306
-7.56128
-7.49393
-7.42087
-7.34193
-7.25696
-7.16585
-7.06848
-6.96476
-6.85459
-6.73789
-6.61461
-6.48469
-6.34809
-6.20477
-6.05473
-5.89795
-5.73446
-5.56428
-5.38744
-5.204
-5.01403
-4.81761
-4.61485
-4.40585
-4.19075
-3.96969
-3.74283
-3.51033
-3.27239
-3.0292
-2.78098
-2.52794
-2.27033
-2.00838
-1.74237
-1.47255
-1.19919
-0.922593
-0.643039
-0.360826
-0.0762519
0.210378
0.498757
0.788572
1.07951
1.37127
1.66353
1.95598
2.24833
2.54027
2.83151
3.12175
3.41073
3.69815
3.98376
4.2673
4.54853
4.8272
5.10308
5.37598
5.64568
5.91199
6.17473
6.43374
6.68886
6.93994
7.18685
7.42947
7.66768
7.90139
8.13049
8.3549
8.57453
8.7893
8.99915
9.20401
9.40382
9.59853
9.7881
9.97248
10.1516
10.3253
10.4936
10.6564
10.8133
10.9641
11.1082
11.2455
11.3719
11.5005
11.5607
-6.74082
-6.74501
-6.75063
-6.75608
-6.76082
-6.76503
-6.76893
-6.77267
-6.77639
-6.7802
-6.7842
-6.78846
-6.79307
-6.79807
-6.80352
-6.80946
-6.81592
-6.82293
-6.83054
-6.83876
-6.84762
-6.85714
-6.86734
-6.87824
-6.88986
-6.90221
-6.91531
-6.92916
-6.94378
-6.95919
-6.97537
-6.99235
-7.01013
-7.0287
-7.04807
-7.06824
-7.08919
-7.11093
-7.13345
-7.15672
-7.18074
-7.20547
-7.23091
-7.25702
-7.28376
-7.3111
-7.339
-7.36741
-7.39628
-7.42554
-7.45514
-7.48501
-7.51506
-7.54521
-7.57538
-7.60548
-7.63539
-7.665
-7.69422
-7.7229
-7.75093
-7.77817
-7.80449
-7.82973
-7.85376
-7.8764
-7.89751
-7.91692
-7.93446
-7.94997
-7.96326
-7.97416
-7.98249
-7.98808
-7.99074
-7.9903
-7.98656
-7.97937
-7.96852
-7.95386
-7.9352
-7.91236
-7.88519
-7.85351
-7.81715
-7.77597
-7.72979
-7.67848
-7.62188
-7.55986
-7.49226
-7.41891
-7.33966
-7.25437
-7.16294
-7.06525
-6.96122
-6.85075
-6.73377
-6.61022
-6.48004
-6.3432
-6.19966
-6.04941
-5.89245
-5.7288
-5.55847
-5.3815
-5.19796
-5.00791
-4.81144
-4.60864
-4.39964
-4.18455
-3.96352
-3.73671
-3.50429
-3.26646
-3.0234
-2.77532
-2.52245
-2.26503
-2.0033
-1.73751
-1.46793
-1.19485
-0.918527
-0.63927
-0.357369
-0.0731212
0.213169
0.501196
0.790648
1.08122
1.37259
1.66446
1.95652
2.24847
2.54001
2.83084
3.12069
3.40926
3.69628
3.98149
4.26464
4.54547
4.82376
5.09928
5.37181
5.64116
5.90713
6.16955
6.42825
6.68307
6.93387
7.18052
7.4229
7.66088
7.89438
8.1233
8.34754
8.56702
8.78166
8.9914
9.19617
9.39591
9.59057
9.78008
9.96438
10.1434
10.317
10.4851
10.6475
10.804
10.9542
11.0973
11.2335
11.3582
11.4849
11.5426
-6.75167
-6.75542
-6.76044
-6.76531
-6.76955
-6.77331
-6.77678
-6.78011
-6.78344
-6.78688
-6.79052
-6.79444
-6.79872
-6.80341
-6.80857
-6.81423
-6.82044
-6.82722
-6.8346
-6.84263
-6.8513
-6.86066
-6.87072
-6.88149
-6.893
-6.90526
-6.91828
-6.93207
-6.94666
-6.96204
-6.97822
-6.9952
-7.013
-7.03162
-7.05104
-7.07127
-7.0923
-7.11412
-7.13672
-7.16009
-7.1842
-7.20903
-7.23455
-7.26073
-7.28754
-7.31494
-7.34288
-7.37132
-7.40019
-7.42944
-7.459
-7.4888
-7.51877
-7.54881
-7.57885
-7.60878
-7.6385
-7.66791
-7.69688
-7.72531
-7.75306
-7.78
-7.80599
-7.83089
-7.85455
-7.87682
-7.89754
-7.91655
-7.93367
-7.94875
-7.9616
-7.97206
-7.97996
-7.9851
-7.98732
-7.98644
-7.98228
-7.97466
-7.9634
-7.94834
-7.9293
-7.9061
-7.87858
-7.84657
-7.8099
-7.76842
-7.72198
-7.67042
-7.61359
-7.55133
-7.48346
-7.40979
-7.33021
-7.24461
-7.15286
-7.05489
-6.95058
-6.83985
-6.72263
-6.59885
-6.46847
-6.33144
-6.18774
-6.03736
-5.88029
-5.71655
-5.54616
-5.36916
-5.1856
-4.99557
-4.79913
-4.5964
-4.38748
-4.1725
-3.95161
-3.72496
-3.49274
-3.25511
-3.01228
-2.76447
-2.51188
-2.25476
-1.99335
-1.7279
-1.45869
-1.18598
-0.910054
-0.631209
-0.349733
-0.0659246
0.219914
0.507477
0.796456
1.08654
1.37743
1.6688
1.96037
2.25181
2.54285
2.83318
3.12252
3.41059
3.69712
3.98185
4.26452
4.54488
4.82271
5.09778
5.36987
5.6388
5.90437
6.16639
6.42472
6.67919
6.92966
7.176
7.41809
7.65581
7.88906
8.11776
8.3418
8.56111
8.77561
8.98522
9.18989
9.38954
9.58413
9.77357
9.95779
10.1367
10.3102
10.4781
10.6402
10.7962
10.9457
11.088
11.2229
11.3461
11.471
11.5268
-6.76351
-6.76683
-6.77123
-6.77544
-6.77903
-6.78213
-6.78494
-6.78763
-6.79034
-6.79317
-6.79625
-6.79964
-6.80343
-6.80766
-6.81239
-6.81767
-6.82351
-6.82997
-6.83706
-6.84481
-6.85324
-6.86238
-6.87224
-6.88283
-6.89419
-6.90631
-6.91921
-6.93291
-6.94741
-6.96272
-6.97885
-6.9958
-7.01356
-7.03215
-7.05155
-7.07176
-7.09277
-7.11456
-7.13713
-7.16045
-7.18451
-7.20927
-7.2347
-7.26077
-7.28745
-7.3147
-7.34246
-7.37068
-7.39932
-7.42831
-7.45758
-7.48707
-7.51669
-7.54637
-7.57601
-7.60553
-7.63482
-7.66377
-7.69228
-7.72021
-7.74746
-7.77388
-7.79935
-7.82372
-7.84684
-7.86856
-7.88873
-7.90718
-7.92376
-7.93829
-7.95061
-7.96054
-7.96791
-7.97255
-7.97427
-7.97292
-7.9683
-7.96024
-7.94857
-7.93312
-7.91371
-7.89018
-7.86235
-7.83007
-7.79316
-7.75147
-7.70485
-7.65312
-7.59609
-7.53357
-7.46539
-7.39143
-7.31158
-7.22572
-7.13374
-7.03555
-6.93104
-6.82015
-6.70278
-6.57888
-6.4484
-6.31131
-6.16756
-6.01716
-5.86011
-5.6964
-5.52607
-5.34917
-5.16573
-4.97585
-4.77959
-4.57706
-4.36837
-4.15365
-3.93305
-3.70671
-3.47482
-3.23756
-2.99512
-2.74771
-2.49556
-2.2389
-1.97796
-1.71301
-1.44431
-1.17214
-0.896762
-0.618479
-0.33758
-0.0543596
0.23088