/*--------------------------------*- C++ -*----------------------------------*\
  =========                 |
  \\      /  F ield         | OpenFOAM: The Open Source CFD Toolbox
   \\    /   O peration     | Website:  https://openfoam.org
    \\  /    A nd           | Version:  12
     \\/     M anipulation  |
\*---------------------------------------------------------------------------*/
FoamFile
{
    format      ascii;
    class       surfaceScalarField;
    location    "0.16";
    object      phi;
}
// * * * * * * * * * * * * * * * * * * * * * * * * * * * * * * * * * * * * * //

dimensions      [0 3 -1 0 0 0 0];

internalField   nonuniform List<scalar> 
24170
(
3.1336e-06
5.48079e-08
3.04827e-06
8.53305e-08
2.97314e-06
7.51302e-08
2.90429e-06
6.88449e-08
2.83945e-06
6.4841e-08
2.78222e-06
5.7236e-08
2.7333e-06
4.89174e-08
2.69175e-06
4.15456e-08
2.65629e-06
3.5465e-08
2.62573e-06
3.05531e-08
2.59912e-06
2.66111e-08
2.57565e-06
2.34759e-08
2.55462e-06
2.10298e-08
2.53535e-06
1.92627e-08
2.51721e-06
1.81473e-08
2.49836e-06
1.88445e-08
2.47754e-06
2.08241e-08
3.84953e-08
2.43904e-06
3.45361e-06
1.84461e-08
3.45616e-06
8.27786e-08
3.44962e-06
8.16777e-08
3.43799e-06
8.04704e-08
3.4235e-06
7.93354e-08
3.40595e-06
7.4785e-08
3.38631e-06
6.85572e-08
3.36539e-06
6.24624e-08
3.34397e-06
5.6888e-08
3.32264e-06
5.1877e-08
3.30182e-06
4.74377e-08
3.28171e-06
4.35811e-08
3.26244e-06
4.03016e-08
3.24399e-06
3.77138e-08
3.2264e-06
3.57327e-08
3.20952e-06
3.57274e-08
3.19424e-06
3.60992e-08
4.66423e-08
3.1861e-06
3.66535e-06
1.561e-08
3.67825e-06
6.98814e-08
3.68531e-06
7.462e-08
3.68958e-06
7.61934e-08
3.69125e-06
7.76683e-08
3.69011e-06
7.59253e-08
3.68665e-06
7.20195e-08
3.68144e-06
6.76711e-08
3.67491e-06
6.34172e-08
3.66741e-06
5.93776e-08
3.65922e-06
5.56294e-08
3.65055e-06
5.22525e-08
3.64155e-06
4.93039e-08
3.63232e-06
4.6938e-08
3.62287e-06
4.51827e-08
3.61363e-06
4.49663e-08
3.60426e-06
4.54754e-08
5.0335e-08
3.60056e-06
3.92465e-06
1.63503e-08
3.9358e-06
5.8732e-08
3.94254e-06
6.788e-08
3.94801e-06
7.07228e-08
3.95241e-06
7.32635e-08
3.95532e-06
7.30141e-08
3.95687e-06
7.04777e-08
3.95733e-06
6.72021e-08
3.95692e-06
6.38331e-08
3.95577e-06
6.05307e-08
3.95401e-06
5.73896e-08
3.95175e-06
5.45123e-08
3.94907e-06
5.19839e-08
3.94605e-06
4.99525e-08
3.94273e-06
4.85e-08
3.93956e-06
4.81447e-08
3.93652e-06
4.85109e-08
5.05839e-08
3.93627e-06
4.20777e-06
1.57109e-08
4.216e-06
5.05027e-08
4.22166e-06
6.222e-08
4.22658e-06
6.57963e-08
4.23127e-06
6.85718e-08
4.23522e-06
6.90665e-08
4.23831e-06
6.73935e-08
4.24066e-06
6.4846e-08
4.2424e-06
6.20953e-08
4.2436e-06
5.93262e-08
4.24435e-06
5.66409e-08
4.24471e-06
5.41502e-08
4.24475e-06
5.19507e-08
4.24453e-06
5.01683e-08
4.24415e-06
4.88854e-08
4.24394e-06
4.83559e-08
4.24409e-06
4.8357e-08
4.89368e-08
4.24574e-06
4.51044e-06
1.43591e-08
4.51686e-06
4.40827e-08
4.52217e-06
5.69129e-08
4.52682e-06
6.11427e-08
4.53143e-06
6.39662e-08
4.53561e-06
6.48849e-08
4.53918e-06
6.3821e-08
4.54221e-06
6.18158e-08
4.54478e-06
5.95269e-08
4.54694e-06
5.71624e-08
4.54875e-06
5.48304e-08
4.55026e-06
5.2642e-08
4.55152e-06
5.06932e-08
4.5526e-06
4.90829e-08
4.55362e-06
4.78704e-08
4.55482e-06
4.71535e-08
4.55643e-06
4.67516e-08
4.64274e-08
4.55894e-06
4.83412e-06
1.29592e-08
4.83958e-06
3.86263e-08
4.84482e-06
5.16655e-08
4.84941e-06
5.65585e-08
4.85391e-06
5.94643e-08
4.85813e-06
6.0666e-08
4.86188e-06
6.00677e-08
4.8652e-06
5.84955e-08
4.86816e-06
5.65736e-08
4.87079e-06
5.45325e-08
4.87313e-06
5.24853e-08
4.87523e-06
5.05385e-08
4.87715e-06
4.87807e-08
4.87894e-06
4.72849e-08
4.88073e-06
4.60829e-08
4.8827e-06
4.51856e-08
4.88502e-06
4.44303e-08
4.35478e-08
4.8879e-06
5.1809e-06
1.16404e-08
5.1857e-06
3.38243e-08
5.19083e-06
4.65357e-08
5.1954e-06
5.19858e-08
5.19986e-06
5.50088e-08
5.20411e-06
5.6416e-08
5.20798e-06
5.61964e-08
5.21148e-06
5.4995e-08
5.21467e-06
5.33867e-08
5.21758e-06
5.16193e-08
5.22026e-06
4.98113e-08
5.22273e-06
4.80628e-08
5.22506e-06
4.64521e-08
5.22731e-06
4.5031e-08
5.22959e-06
4.3809e-08
5.23202e-06
4.27545e-08
5.23472e-06
4.17258e-08
4.05045e-08
5.23777e-06
5.5526e-06
1.03781e-08
5.55685e-06
2.95774e-08
5.56176e-06
4.16229e-08
5.56632e-06
4.74252e-08
5.57077e-06
5.05605e-08
5.57507e-06
5.21185e-08
5.57905e-06
5.22121e-08
5.5827e-06
5.13401e-08
5.58608e-06
5.0013e-08
5.58921e-06
4.8488e-08
5.59213e-06
4.6889e-08
5.59489e-06
4.53089e-08
5.59752e-06
4.38159e-08
5.60011e-06
4.24465e-08
5.60272e-06
4.11964e-08
5.60545e-06
4.00194e-08
5.60838e-06
3.88e-08
3.7386e-08
5.6115e-06
5.95098e-06
9.1693e-09
5.95475e-06
2.58083e-08
5.9594e-06
3.69721e-08
5.96393e-06
4.28973e-08
5.96838e-06
4.61117e-08
5.97273e-06
4.77746e-08
5.97682e-06
4.81196e-08
5.98062e-06
4.7537e-08
5.98417e-06
4.6465e-08
5.9875e-06
4.51594e-08
5.99064e-06
4.3748e-08
5.99363e-06
4.23164e-08
5.99652e-06
4.09241e-08
5.99937e-06
3.95979e-08
6.00224e-06
3.83278e-08
6.00519e-06
3.70691e-08
6.00826e-06
3.57345e-08
3.42298e-08
6.01141e-06
6.37795e-06
8.02729e-09
6.38132e-06
2.24395e-08
6.3857e-06
3.2592e-08
6.39017e-06
3.8427e-08
6.39462e-06
4.16679e-08
6.399e-06
4.33941e-08
6.40319e-06
4.39286e-08
6.40713e-06
4.3591e-08
6.41085e-06
4.27474e-08
6.41437e-06
4.16409e-08
6.41772e-06
4.03997e-08
6.42093e-06
3.91035e-08
6.42405e-06
3.78041e-08
6.42713e-06
3.65233e-08
6.4302e-06
3.52519e-08
6.43332e-06
3.39543e-08
6.43648e-06
3.25696e-08
3.10479e-08
6.43966e-06
5.74175e-06
7.11359e-09
5.74433e-06
1.98575e-08
5.74783e-06
2.90966e-08
5.75155e-06
3.47072e-08
5.75529e-06
3.79197e-08
5.75902e-06
3.96707e-08
5.76263e-06
4.03194e-08
5.76607e-06
4.01511e-08
5.76934e-06
3.94783e-08
5.77245e-06
3.85249e-08
5.77543e-06
3.74162e-08
5.77831e-06
3.62273e-08
5.78111e-06
3.50052e-08
5.78386e-06
3.37701e-08
5.7866e-06
3.2516e-08
5.78934e-06
3.12174e-08
5.79207e-06
2.98322e-08
2.83393e-08
5.79478e-06
6.99913e-06
6.13718e-09
7.00186e-06
1.71267e-08
7.00564e-06
2.53144e-08
7.0098e-06
3.05478e-08
7.01407e-06
3.36489e-08
7.01836e-06
3.53826e-08
7.02257e-06
3.61152e-08
7.02662e-06
3.60999e-08
7.0305e-06
3.55948e-08
7.03423e-06
3.47984e-08
7.03782e-06
3.38292e-08
7.04129e-06
3.27575e-08
7.04466e-06
3.1626e-08
7.04798e-06
3.04547e-08
7.05125e-06
2.9243e-08
7.05449e-06
2.79767e-08
7.05769e-06
2.66316e-08
2.52084e-08
7.06083e-06
8.53188e-06
5.10722e-09
8.53473e-06
1.42734e-08
8.53877e-06
2.12721e-08
8.54337e-06
2.59547e-08
8.54818e-06
2.88324e-08
8.55308e-06
3.04857e-08
8.55794e-06
3.12544e-08
8.56268e-06
3.13602e-08
8.56727e-06
3.10089e-08
8.5717e-06
3.03673e-08
8.57598e-06
2.95427e-08
8.58014e-06
2.85995e-08
8.58419e-06
2.75768e-08
8.58815e-06
2.64951e-08
8.59203e-06
2.53603e-08
8.59584e-06
2.4169e-08
8.59956e-06
2.29114e-08
2.16029e-08
8.60317e-06
1.04003e-05
4.0342e-09
1.04033e-05
1.13149e-08
1.04075e-05
1.69878e-08
1.04126e-05
2.09334e-08
1.04179e-05
2.34474e-08
1.04235e-05
2.49331e-08
1.04291e-05
2.56725e-08
1.04346e-05
2.58513e-08
1.044e-05
2.56273e-08
1.04452e-05
2.51314e-08
1.04503e-05
2.44546e-08
1.04552e-05
2.36535e-08
1.046e-05
2.27634e-08
1.04647e-05
2.18054e-08
1.04693e-05
2.07903e-08
1.04738e-05
1.97234e-08
1.04781e-05
1.86048e-08
1.74579e-08
1.04822e-05
1.26779e-05
2.92356e-09
1.2681e-05
8.24255e-09
1.26855e-05
1.24525e-08
1.2691e-05
1.54715e-08
1.2697e-05
1.74581e-08
1.27032e-05
1.86636e-08
1.27096e-05
1.9291e-08
1.2716e-05
1.94812e-08
1.27223e-05
1.93469e-08
1.27284e-05
1.89819e-08
1.27344e-05
1.84553e-08
1.27403e-05
1.78132e-08
1.27459e-05
1.70853e-08
1.27514e-05
1.62917e-08
1.27568e-05
1.54454e-08
1.2762e-05
1.45562e-08
1.27669e-05
1.36297e-08
1.26917e-08
1.27717e-05
1.54543e-05
1.76399e-09
1.54576e-05
5.0047e-09
1.54624e-05
7.59778e-09
1.54684e-05
9.49756e-09
1.54751e-05
1.0779e-08
1.54822e-05
1.15723e-08
1.54895e-05
1.1993e-08
1.54968e-05
1.21263e-08
1.55041e-05
1.20395e-08
1.55113e-05
1.17889e-08
1.55184e-05
1.14176e-08
1.55252e-05
1.09563e-08
1.55319e-05
1.04263e-08
1.55383e-05
9.84299e-09
1.55446e-05
9.21826e-09
1.55506e-05
8.56221e-09
1.55563e-05
7.88138e-09
7.19977e-09
1.55618e-05
1.88389e-05
5.13719e-10
1.88424e-05
1.46942e-09
1.88478e-05
2.23626e-09
1.88545e-05
2.80446e-09
1.88621e-05
3.19628e-09
1.88702e-05
3.44143e-09
1.88786e-05
3.56257e-09
1.88872e-05
3.57845e-09
1.88957e-05
3.50726e-09
1.89041e-05
3.36521e-09
1.89124e-05
3.16517e-09
1.89204e-05
2.91726e-09
1.89282e-05
2.62982e-09
1.89357e-05
2.31008e-09
1.8943e-05
1.96456e-09
1.895e-05
1.59987e-09
1.89566e-05
1.22035e-09
8.45085e-10
1.8963e-05
2.29648e-05
-9.34724e-10
2.29689e-05
-2.66588e-09
2.29752e-05
-4.07081e-09
2.29831e-05
-5.10612e-09
2.29921e-05
-5.78817e-09
2.30018e-05
-6.20342e-09
2.30118e-05
-6.44506e-09
2.30219e-05
-6.57174e-09
2.30321e-05
-6.62029e-09
2.3042e-05
-6.62197e-09
2.30518e-05
-6.6021e-09
2.30613e-05
-6.57687e-09
2.30705e-05
-6.55513e-09
2.30793e-05
-6.54155e-09
2.30878e-05
-6.5382e-09
2.3096e-05
-6.54482e-09
2.31038e-05
-6.5613e-09
-6.57541e-09
2.31112e-05
1.68119e-05
-2.08137e-09
1.68151e-05
-5.90402e-09
1.682e-05
-9.00437e-09
1.68262e-05
-1.12377e-08
1.6833e-05
-1.26526e-08
1.68403e-05
-1.34828e-08
1.68478e-05
-1.39324e-08
1.68553e-05
-1.41094e-08
1.68628e-05
-1.40888e-08
1.68701e-05
-1.39413e-08
1.68772e-05
-1.37219e-08
1.68841e-05
-1.34648e-08
1.68908e-05
-1.31907e-08
1.68971e-05
-1.29128e-08
1.69032e-05
-1.26393e-08
1.69091e-05
-1.23743e-08
1.69146e-05
-1.21203e-08
-1.1869e-08
1.69199e-05
1.46357e-05
-3.19154e-09
1.46388e-05
-9.06697e-09
1.46437e-05
-1.38342e-08
1.46496e-05
-1.71274e-08
1.4656e-05
-1.90925e-08
1.46627e-05
-2.02039e-08
1.46696e-05
-2.0764e-08
1.46764e-05
-2.09068e-08
1.4683e-05
-2.07522e-08
1.46895e-05
-2.04166e-08
1.46957e-05
-1.99792e-08
1.47018e-05
-1.94854e-08
1.47075e-05
-1.89639e-08
1.47131e-05
-1.84351e-08
1.47183e-05
-1.79117e-08
1.47234e-05
-1.74003e-08
1.47281e-05
-1.6905e-08
-1.64203e-08
1.47327e-05
1.27412e-05
-4.24106e-09
1.27444e-05
-1.2281e-08
1.27494e-05
-1.87973e-08
1.27552e-05
-2.29288e-08
1.27613e-05
-2.52152e-08
1.27676e-05
-2.65012e-08
1.27739e-05
-2.70909e-08
1.27801e-05
-2.71113e-08
1.27861e-05
-2.67539e-08
1.27919e-05
-2.61901e-08
1.27974e-05
-2.55149e-08
1.28027e-05
-2.47779e-08
1.28078e-05
-2.40134e-08
1.28126e-05
-2.32461e-08
1.28172e-05
-2.24911e-08
1.28215e-05
-2.17557e-08
1.28256e-05
-2.10441e-08
-2.03522e-08
1.28296e-05
1.10918e-05
-5.11943e-09
1.10951e-05
-1.56061e-08
1.11004e-05
-2.40975e-08
1.11062e-05
-2.87165e-08
1.11121e-05
-3.10637e-08
1.1118e-05
-3.24285e-08
1.11239e-05
-3.29591e-08
1.11295e-05
-3.27744e-08
1.11349e-05
-3.21664e-08
1.11401e-05
-3.13512e-08
1.1145e-05
-3.04263e-08
1.11497e-05
-2.94427e-08
1.11541e-05
-2.84403e-08
1.11583e-05
-2.74465e-08
1.11623e-05
-2.64764e-08
1.11661e-05
-2.55366e-08
1.11697e-05
-2.46305e-08
-2.37544e-08
1.11731e-05
9.65583e-06
-5.73442e-09
9.65936e-06
-1.91328e-08
9.66496e-06
-2.97024e-08
9.67065e-06
-3.44046e-08
9.67629e-06
-3.67084e-08
9.68194e-06
-3.80707e-08
9.68738e-06
-3.84005e-08
9.69252e-06
-3.79173e-08
9.69738e-06
-3.70285e-08
9.70199e-06
-3.59565e-08
9.70634e-06
-3.47813e-08
9.71045e-06
-3.35542e-08
9.71433e-06
-3.23201e-08
9.718e-06
-3.11083e-08
9.72145e-06
-2.99331e-08
9.72472e-06
-2.88003e-08
9.7278e-06
-2.77112e-08
-2.66609e-08
9.7307e-06
8.40543e-06
-5.81522e-09
8.40981e-06
-2.35094e-08
8.41532e-06
-3.52084e-08
8.42051e-06
-3.95984e-08
8.42594e-06
-4.21427e-08
8.43142e-06
-4.35467e-08
8.43658e-06
-4.35561e-08
8.44134e-06
-4.26824e-08
8.44577e-06
-4.1462e-08
8.44991e-06
-4.00946e-08
8.45377e-06
-3.86377e-08
8.45736e-06
-3.71432e-08
8.4607e-06
-3.56592e-08
8.4638e-06
-3.42144e-08
8.46669e-06
-3.28227e-08
8.46938e-06
-3.14899e-08
8.47189e-06
-3.02167e-08
-2.89992e-08
8.47423e-06
7.31506e-06
-3.58878e-09
7.32194e-06
-3.03956e-08
7.3274e-06
-4.06602e-08
7.33217e-06
-4.43688e-08
7.33748e-06
-4.74574e-08
7.34286e-06
-4.89239e-08
7.34782e-06
-4.85211e-08
7.35231e-06
-4.71671e-08
7.35635e-06
-4.55089e-08
7.35999e-06
-4.37252e-08
7.36322e-06
-4.18748e-08
7.3661e-06
-4.00212e-08
7.36866e-06
-3.82139e-08
7.37092e-06
-3.64789e-08
7.37292e-06
-3.48278e-08
7.3747e-06
-3.32653e-08
7.37627e-06
-3.17885e-08
-3.0391e-08
7.37766e-06
6.36222e-06
4.25616e-09
6.37295e-06
-4.11212e-08
6.38007e-06
-4.77879e-08
6.38626e-06
-5.055e-08
6.39223e-06
-5.34276e-08
6.39751e-06
-5.42123e-08
6.40187e-06
-5.28806e-08
6.40545e-06
-5.07445e-08
6.40836e-06
-4.84177e-08
6.41065e-06
-4.60126e-08
6.41237e-06
-4.35969e-08
6.4136e-06
-4.12483e-08
6.4144e-06
-3.90153e-08
6.41484e-06
-3.69175e-08
6.41497e-06
-3.49615e-08
6.41485e-06
-3.31485e-08
6.41453e-06
-3.14702e-08
-2.99061e-08
6.41405e-06
5.53608e-06
1.36406e-08
5.54775e-06
-5.27955e-08
5.55744e-06
-5.74748e-08
5.56601e-06
-5.91194e-08
5.57278e-06
-6.01948e-08
5.5772e-06
-5.86332e-08
5.57935e-06
-5.50271e-08
5.57978e-06
-5.11785e-08
5.57892e-06
-4.7562e-08
5.57706e-06
-4.41491e-08
5.57441e-06
-4.09474e-08
5.57116e-06
-3.79945e-08
5.56745e-06
-3.5304e-08
5.5634e-06
-3.28675e-08
5.5591e-06
-3.06706e-08
5.55467e-06
-2.87103e-08
5.55017e-06
-2.69775e-08
-2.54113e-08
5.54568e-06
4.85751e-06
-1.62599e-08
4.86091e-06
-5.61972e-08
4.8615e-06
-5.80679e-08
4.85884e-06
-5.64521e-08
4.85483e-06
-5.61883e-08
4.84813e-06
-5.19385e-08
4.83888e-06
-4.57744e-08
4.82763e-06
-3.99281e-08
4.81502e-06
-3.49534e-08
4.80165e-06
-3.07732e-08
4.78795e-06
-2.72515e-08
4.77424e-06
-2.42852e-08
4.76072e-06
-2.17833e-08
4.74752e-06
-1.96669e-08
4.73472e-06
-1.7873e-08
4.7224e-06
-1.63916e-08
4.71068e-06
-1.52492e-08
-1.4939e-08
4.7002e-06
4.18642e-06
4.13022e-06
4.07215e-06
4.0157e-06
3.95951e-06
3.90757e-06
3.8618e-06
3.82187e-06
3.78692e-06
3.75614e-06
3.72889e-06
3.70461e-06
3.68282e-06
3.66316e-06
3.64528e-06
3.62889e-06
3.61364e-06
3.5987e-06
1.14917e-08
-1.14917e-08
2.26899e-08
-1.11983e-08
2.91782e-08
-6.48827e-09
3.0078e-08
-8.99772e-10
2.5785e-08
4.29299e-09
1.72101e-08
8.57487e-09
5.38437e-09
1.18257e-08
-8.80485e-09
1.41892e-08
-2.47185e-08
1.59136e-08
-4.19391e-08
1.72207e-08
-6.02092e-08
1.82701e-08
-7.93767e-08
1.91675e-08
-9.93521e-08
1.99753e-08
-1.20079e-07
2.07274e-08
-1.4152e-07
2.14408e-08
-1.63643e-07
2.21226e-08
-1.86418e-07
2.27754e-08
-2.09817e-07
2.33987e-08
-2.33808e-07
2.39909e-08
-2.58358e-07
2.455e-08
-2.83432e-07
2.50746e-08
-3.08997e-07
2.55643e-08
-3.35017e-07
2.602e-08
-3.61461e-07
2.64442e-08
-3.88306e-07
2.68451e-08
-4.15548e-07
2.72423e-08
-4.43215e-07
2.76666e-08
-4.7135e-07
2.81351e-08
-4.99948e-07
2.85984e-08
-5.28927e-07
2.89784e-08
-5.58762e-07
2.98351e-08
-5.9046e-07
3.1698e-08
-6.20773e-07
3.0313e-08
-6.51568e-07
3.07955e-08
-6.83833e-07
3.22645e-08
-7.18905e-07
3.50725e-08
-7.56332e-07
3.74273e-08
-7.91446e-07
3.51136e-08
-8.28041e-07
3.65952e-08
-8.70432e-07
4.23907e-08
-9.1184e-07
4.14086e-08
-9.50927e-07
3.9087e-08
-9.89901e-07
3.89737e-08
-1.02743e-06
3.7533e-08
-1.06721e-06
3.97778e-08
-1.1082e-06
4.09906e-08
-1.14993e-06
4.17304e-08
-1.19211e-06
4.21807e-08
-1.23457e-06
4.24541e-08
-1.27718e-06
4.26134e-08
-1.31988e-06
4.26942e-08
-1.36259e-06
4.27172e-08
-1.40529e-06
4.26942e-08
-1.44792e-06
4.26326e-08
-1.49046e-06
4.25361e-08
-1.53286e-06
4.24069e-08
-1.57511e-06
4.22459e-08
-1.61716e-06
4.20528e-08
-1.65899e-06
4.18275e-08
-1.70056e-06
4.15689e-08
-1.74183e-06
4.1276e-08
-1.78278e-06
4.0948e-08
-1.82337e-06
4.05835e-08
-1.86355e-06
4.01817e-08
-1.90329e-06
3.97414e-08
-1.94255e-06
3.92617e-08
-1.98129e-06
3.8742e-08
-2.01947e-06
3.81814e-08
-2.05705e-06
3.75796e-08
-2.09399e-06
3.69361e-08
-2.13024e-06
3.62507e-08
-2.16576e-06
3.55233e-08
-2.20052e-06
3.4754e-08
-2.23446e-06
3.3943e-08
-2.26755e-06
3.30905e-08
-2.29975e-06
3.2197e-08
-2.33101e-06
3.12631e-08
-2.3613e-06
3.02894e-08
-2.39058e-06
2.92765e-08
-2.4188e-06
2.82253e-08
-2.44594e-06
2.71365e-08
-2.47195e-06
2.6011e-08
-2.4968e-06
2.48495e-08
-2.52045e-06
2.36528e-08
-2.54287e-06
2.24214e-08
-2.56403e-06
2.11557e-08
-2.58388e-06
1.9856e-08
-2.60241e-06
1.8522e-08
-2.61956e-06
1.71533e-08
-2.63531e-06
1.57485e-08
-2.64961e-06
1.43057e-08
-2.66244e-06
1.28218e-08
-2.67373e-06
1.12926e-08
-2.68344e-06
9.71025e-09
-2.6915e-06
8.06537e-09
-2.69785e-06
6.34384e-09
-2.70238e-06
4.53e-09
-2.705e-06
2.62107e-09
-2.70556e-06
5.63836e-10
-2.70434e-06
-1.22223e-09
-2.70149e-06
-2.8483e-09
-2.69708e-06
-4.41654e-09
-2.69111e-06
-5.96684e-09
-2.68359e-06
-7.51778e-09
-2.67452e-06
-9.07516e-09
-2.66388e-06
-1.06397e-08
-2.65167e-06
-1.22104e-08
-2.63788e-06
-1.37852e-08
-2.62252e-06
-1.53623e-08
-2.60558e-06
-1.69396e-08
-2.58706e-06
-1.85148e-08
-2.56698e-06
-2.00859e-08
-2.54533e-06
-2.16507e-08
-2.52212e-06
-2.32072e-08
-2.49737e-06
-2.47532e-08
-2.47108e-06
-2.62866e-08
-2.44328e-06
-2.78053e-08
-2.41397e-06
-2.93073e-08
-2.38318e-06
-3.07903e-08
-2.35093e-06
-3.22525e-08
-2.31723e-06
-3.36916e-08
-2.28213e-06
-3.51059e-08
-2.24563e-06
-3.64934e-08
-2.20778e-06
-3.78523e-08
-2.1686e-06
-3.91807e-08
-2.12812e-06
-4.04769e-08
-2.08639e-06
-4.17392e-08
-2.04342e-06
-4.2966e-08
-1.99926e-06
-4.41555e-08
-1.95396e-06
-4.53062e-08
-1.90754e-06
-4.64166e-08
-1.86006e-06
-4.74855e-08
-1.81154e-06
-4.85117e-08
-1.76205e-06
-4.94941e-08
-1.71162e-06
-5.04316e-08
-1.66029e-06
-5.13232e-08
-1.60813e-06
-5.2168e-08
-1.55516e-06
-5.29655e-08
-1.50145e-06
-5.3715e-08
-1.44703e-06
-5.44162e-08
-1.39196e-06
-5.50689e-08
-1.33629e-06
-5.56728e-08
-1.28006e-06
-5.6228e-08
-1.22333e-06
-5.67346e-08
-1.16613e-06
-5.71932e-08
-1.10853e-06
-5.76041e-08
-1.05056e-06
-5.79679e-08
-9.92275e-07
-5.82856e-08
-9.33717e-07
-5.85582e-08
-8.7493e-07
-5.87868e-08
-8.15957e-07
-5.89728e-08
-7.5684e-07
-5.91176e-08
-6.97617e-07
-5.92229e-08
-6.38326e-07
-5.92905e-08
-5.79004e-07
-5.93221e-08
-5.19685e-07
-5.93196e-08
-4.604e-07
-5.92847e-08
-4.01181e-07
-5.92191e-08
-3.42057e-07
-5.91237e-08
-2.83058e-07
-5.89991e-08
-2.24214e-07
-5.88437e-08
-1.65561e-07
-5.86537e-08
-1.07128e-07
-5.84324e-08
-4.8954e-08
-5.81742e-08
8.91851e-09
-5.78725e-08
6.64487e-08
-5.75302e-08
1.23623e-07
-5.71747e-08
1.80455e-07
-5.6832e-08
2.36969e-07
-5.65133e-08
2.93173e-07
-5.62039e-08
3.49057e-07
-5.58847e-08
4.04588e-07
-5.55305e-08
4.5969e-07
-5.51024e-08
5.14223e-07
-5.45325e-08
5.67911e-07
-5.36886e-08
6.20213e-07
-5.23014e-08
6.69889e-07
-4.96765e-08
7.14039e-07
-4.415e-08
7.44849e-07
-3.08101e-08
1.00657e-08
7.34783e-07
6.45109e-09
-1.79428e-08
6.86563e-09
-1.16128e-08
3.07046e-09
-2.6931e-09
-3.55357e-09
5.72426e-09
-1.25855e-08
1.33249e-08
-2.3915e-08
1.99044e-08
-3.74662e-08
2.53769e-08
-5.30808e-08
2.98038e-08
-7.05211e-08
3.3354e-08
-8.95324e-08
3.62319e-08
-1.09887e-07
3.86249e-08
-1.31402e-07
4.06821e-08
-1.53938e-07
4.25115e-08
-1.77397e-07
4.41862e-08
-2.01709e-07
4.57534e-08
-2.26829e-07
4.72427e-08
-2.52726e-07
4.86722e-08
-2.79381e-07
5.00536e-08
-3.06785e-07
5.13951e-08
-3.34939e-07
5.2704e-08
-3.63853e-07
5.39881e-08
-3.93545e-07
5.52568e-08
-4.24047e-07
5.65218e-08
-4.55401e-07
5.7798e-08
-4.8766e-07
5.91043e-08
-5.20883e-07
6.04651e-08
-5.55121e-07
6.1905e-08
-5.90417e-07
6.34309e-08
-6.26827e-07
6.50082e-08
-6.64466e-07
6.66176e-08
-7.03033e-07
6.84024e-08
-7.41682e-07
7.0346e-08
-7.83062e-07
7.16933e-08
-8.25365e-07
7.30983e-08
-8.68115e-07
7.50151e-08
-9.10041e-07
7.6998e-08
-9.51374e-07
7.87605e-08
-9.95494e-07
7.92333e-08
-1.03902e-06
8.01174e-08
-1.07849e-06
8.1869e-08
-1.11953e-06
8.24411e-08
-1.16228e-06
8.18446e-08
-1.20499e-06
8.16808e-08
-1.24865e-06
8.11955e-08
-1.29028e-06
8.14084e-08
-1.33095e-06
8.16515e-08
-1.37102e-06
8.18092e-08
-1.41071e-06
8.18658e-08
-1.45008e-06
8.18279e-08
-1.48918e-06
8.1708e-08
-1.528e-06
8.15175e-08
-1.56655e-06
8.12646e-08
-1.60481e-06
8.0955e-08
-1.64277e-06
8.05917e-08
-1.68041e-06
8.01763e-08
-1.71771e-06
7.97087e-08
-1.75465e-06
7.91881e-08
-1.79121e-06
7.86132e-08
-1.82737e-06
7.79821e-08
-1.86309e-06
7.72927e-08
-1.89836e-06
7.65431e-08
-1.93314e-06
7.57311e-08
-1.96741e-06
7.48547e-08
-2.00114e-06
7.3912e-08
-2.0343e-06
7.29013e-08
-2.06686e-06
7.18212e-08
-2.09879e-06
7.06703e-08
-2.13006e-06
6.94476e-08
-2.16063e-06
6.81523e-08
-2.19048e-06
6.6784e-08
-2.21957e-06
6.53422e-08
-2.24787e-06
6.38269e-08
-2.27536e-06
6.22384e-08
-2.30199e-06
6.05768e-08
-2.32774e-06
5.8843e-08
-2.35258e-06
5.70376e-08
-2.37648e-06
5.51615e-08
-2.39941e-06
5.32158e-08
-2.42133e-06
5.12018e-08
-2.44223e-06
4.91207e-08
-2.46207e-06
4.69738e-08
-2.48082e-06
4.47625e-08
-2.49846e-06
4.24881e-08
-2.51496e-06
4.01519e-08
-2.53029e-06
3.77549e-08
-2.54443e-06
3.52981e-08
-2.55736e-06
3.27824e-08
-2.56904e-06
3.0208e-08
-2.57947e-06
2.75751e-08
-2.5886e-06
2.48836e-08
-2.59643e-06
2.21329e-08
-2.60293e-06
1.93224e-08
-2.60809e-06
1.64514e-08
-2.6119e-06
1.35196e-08
-2.61436e-06
1.05286e-08
-2.6155e-06
7.48298e-09
-2.61537e-06
4.39565e-09
-2.61405e-06
1.30595e-09
-2.6117e-06
-1.7843e-09
-2.60812e-06
-4.80062e-09
-2.60317e-06
-7.80677e-09
-2.59675e-06
-1.08358e-08
-2.58883e-06
-1.38858e-08
-2.57939e-06
-1.69562e-08
-2.56842e-06
-2.00456e-08
-2.55591e-06
-2.3151e-08
-2.54185e-06
-2.6269e-08
-2.52624e-06
-2.93956e-08
-2.50907e-06
-3.25264e-08
-2.49036e-06
-3.56574e-08
-2.47009e-06
-3.87842e-08
-2.44827e-06
-4.19026e-08
-2.42491e-06
-4.50084e-08
-2.40002e-06
-4.80974e-08
-2.37361e-06
-5.11654e-08
-2.34569e-06
-5.42083e-08
-2.31627e-06
-5.72218e-08
-2.28538e-06
-6.02018e-08
-2.25302e-06
-6.31442e-08
-2.21923e-06
-6.60449e-08
-2.18402e-06
-6.88998e-08
-2.14742e-06
-7.1705e-08
-2.10946e-06
-7.44568e-08
-2.07016e-06
-7.71514e-08
-2.02956e-06
-7.97854e-08
-1.98768e-06
-8.23553e-08
-1.94456e-06
-8.48575e-08
-1.90024e-06
-8.72889e-08
-1.85475e-06
-8.96461e-08
-1.80813e-06
-9.1926e-08
-1.76042e-06
-9.41257e-08
-1.71166e-06
-9.62426e-08
-1.6619e-06
-9.82743e-08
-1.61117e-06
-1.00219e-07
-1.55953e-06
-1.02074e-07
-1.50702e-06
-1.03837e-07
-1.45368e-06
-1.05508e-07
-1.39956e-06
-1.07084e-07
-1.34471e-06
-1.08564e-07
-1.28918e-06
-1.09948e-07
-1.23301e-06
-1.11236e-07
-1.17626e-06
-1.12427e-07
-1.11896e-06
-1.1352e-07
-1.06118e-06
-1.14517e-07
-1.00296e-06
-1.15417e-07
-9.44339e-07
-1.16223e-07
-8.85371e-07
-1.16936e-07
-8.26101e-07
-1.17556e-07
-7.66573e-07
-1.18086e-07
-7.0683e-07
-1.18529e-07
-6.46916e-07
-1.18887e-07
-5.8687e-07
-1.19163e-07
-5.26732e-07
-1.19361e-07
-4.66539e-07
-1.19484e-07
-4.06326e-07
-1.19535e-07
-3.46128e-07
-1.19518e-07
-2.85976e-07
-1.19437e-07
-2.25899e-07
-1.19296e-07
-1.65927e-07
-1.19096e-07
-1.06087e-07
-1.18839e-07
-4.64051e-08
-1.18526e-07
1.30921e-08
-1.18151e-07
7.23757e-08
-1.17716e-07
1.31421e-07
-1.1722e-07
1.90216e-07
-1.16667e-07
2.48757e-07
-1.16071e-07
3.07042e-07
-1.15459e-07
3.65067e-07
-1.14858e-07
4.22827e-07
-1.14273e-07
4.80312e-07
-1.13689e-07
5.37501e-07
-1.13073e-07
5.9435e-07
-1.1238e-07
6.50778e-07
-1.1153e-07
7.06635e-07
-1.1039e-07
7.61649e-07
-1.08702e-07
8.15314e-07
-1.05967e-07
8.66648e-07
-1.01011e-07
9.14011e-07
-9.15122e-08
9.54091e-07
-7.08909e-08
-2.28215e-08
9.86979e-07
-2.35503e-09
-1.55877e-08
-9.89775e-09
-4.07009e-09
-1.96752e-08
7.08439e-09
-3.09227e-08
1.69718e-08
-4.34331e-08
2.58352e-08
-5.72262e-08
3.36975e-08
-7.23961e-08
4.05468e-08
-8.90103e-08
4.6418e-08
-1.07066e-07
5.14097e-08
-1.26497e-07
5.5663e-08
-1.47203e-07
5.93309e-08
-1.69075e-07
6.25544e-08
-1.92015e-07
6.54508e-08
-2.15939e-07
6.81107e-08
-2.40786e-07
7.06005e-08
-2.66512e-07
7.29679e-08
-2.93086e-07
7.52465e-08
-3.20493e-07
7.7461e-08
-3.48728e-07
7.96302e-08
-3.77795e-07
8.17702e-08
-4.07702e-07
8.38958e-08
-4.38467e-07
8.60212e-08
-4.70105e-07
8.81606e-08
-5.02635e-07
9.03279e-08
-5.36067e-07
9.25357e-08
-5.70396e-07
9.47938e-08
-6.05594e-07
9.71038e-08
-6.41614e-07
9.94506e-08
-6.78405e-07
1.01799e-07
-7.15902e-07
1.04115e-07
-7.53877e-07
1.06378e-07
-7.92054e-07
1.08523e-07
-8.30809e-07
1.10449e-07
-8.69885e-07
1.12175e-07
-9.08727e-07
1.13857e-07
-9.47057e-07
1.15329e-07
-9.84816e-07
1.16519e-07
-1.02288e-06
1.17293e-07
-1.06067e-06
1.17911e-07
-1.09723e-06
1.18425e-07
-1.1334e-06
1.18616e-07
-1.16996e-06
1.18402e-07
-1.20639e-06
1.18118e-07
-1.24301e-06
1.17806e-07
-1.27916e-06
1.17565e-07
-1.31488e-06
1.17372e-07
-1.35024e-06
1.1717e-07
-1.38531e-06
1.1693e-07
-1.42012e-06
1.16639e-07
-1.4547e-06
1.16291e-07
-1.48907e-06
1.15883e-07
-1.52322e-06
1.15415e-07
-1.55715e-06
1.14884e-07
-1.59085e-06
1.1429e-07
-1.6243e-06
1.1363e-07
-1.65749e-06
1.12902e-07
-1.69041e-06
1.12103e-07
-1.72303e-06
1.11229e-07
-1.75532e-06
1.10278e-07
-1.78727e-06
1.09245e-07
-1.81886e-06
1.08127e-07
-1.85005e-06
1.06921e-07
-1.88081e-06
1.05624e-07
-1.91113e-06
1.04233e-07
-1.94098e-06
1.02745e-07
-1.97032e-06
1.01159e-07
-1.99912e-06
9.94717e-08
-2.02735e-06
9.76824e-08
-2.05499e-06
9.57897e-08
-2.082e-06
9.37926e-08
-2.10835e-06
9.16906e-08
-2.134e-06
8.94835e-08
-2.15894e-06
8.71713e-08
-2.18311e-06
8.47545e-08
-2.2065e-06
8.22337e-08
-2.22908e-06
7.96101e-08
-2.2508e-06
7.68848e-08
-2.27164e-06
7.40591e-08
-2.29158e-06
7.11348e-08
-2.31057e-06
6.81136e-08
-2.32859e-06
6.49973e-08
-2.34562e-06
6.17881e-08
-2.36162e-06
5.84877e-08
-2.37656e-06
5.50983e-08
-2.39043e-06
5.16218e-08
-2.40319e-06
4.80599e-08
-2.41483e-06
4.44145e-08
-2.4253e-06
4.06871e-08
-2.43461e-06
3.68791e-08
-2.44272e-06
3.29923e-08
-2.44961e-06
2.9028e-08
-2.45528e-06
2.49883e-08
-2.4597e-06
2.08761e-08
-2.46288e-06
1.66956e-08
-2.4648e-06
1.24533e-08
-2.46548e-06
8.15891e-09
-2.46491e-06
3.82743e-09
-2.46308e-06
-5.25234e-10
-2.45998e-06
-4.88604e-09
-2.45551e-06
-9.26448e-09
-2.44964e-06
-1.36808e-08
-2.44233e-06
-1.81428e-08
-2.43357e-06
-2.2647e-08
-2.42334e-06
-2.71883e-08
-2.41162e-06
-3.17609e-08
-2.39842e-06
-3.6359e-08
-2.38371e-06
-4.09762e-08
-2.3675e-06
-4.56065e-08
-2.34978e-06
-5.02434e-08
-2.33056e-06
-5.48805e-08
-2.30983e-06
-5.95117e-08
-2.2876e-06
-6.41304e-08
-2.26388e-06
-6.87305e-08
-2.23867e-06
-7.33058e-08
-2.21199e-06
-7.78499e-08
-2.18384e-06
-8.23569e-08
-2.15424e-06
-8.68205e-08
-2.12321e-06
-9.12345e-08
-2.09076e-06
-9.55928e-08
-2.05691e-06
-9.98892e-08
-2.0217e-06
-1.04118e-07
-1.98513e-06
-1.08273e-07
-1.94724e-06
-1.12349e-07
-1.90805e-06
-1.1634e-07
-1.86759e-06
-1.20241e-07
-1.8259e-06
-1.24046e-07
-1.78301e-06
-1.27752e-07
-1.73894e-06
-1.31352e-07
-1.69375e-06
-1.34843e-07
-1.64746e-06
-1.38218e-07
-1.60011e-06
-1.41475e-07
-1.55174e-06
-1.44608e-07
-1.5024e-06
-1.47615e-07
-1.45213e-06
-1.50492e-07
-1.40096e-06
-1.53237e-07
-1.34896e-06
-1.55846e-07
-1.29615e-06
-1.58317e-07
-1.24258e-06
-1.60647e-07
-1.18831e-06
-1.62835e-07
-1.13338e-06
-1.6488e-07
-1.07783e-06
-1.66782e-07
-1.02172e-06
-1.6854e-07
-9.65088e-07
-1.70153e-07
-9.07982e-07
-1.71623e-07
-8.50449e-07
-1.7295e-07
-7.92535e-07
-1.74137e-07
-7.34286e-07
-1.75184e-07
-6.75747e-07
-1.76095e-07
-6.16961e-07
-1.76872e-07
-5.57971e-07
-1.7752e-07
-4.98817e-07
-1.78041e-07
-4.39539e-07
-1.78441e-07
-3.80176e-07
-1.78724e-07
-3.20763e-07
-1.78896e-07
-2.61335e-07
-1.78962e-07
-2.01925e-07
-1.78928e-07
-1.42563e-07
-1.78799e-07
-8.32772e-08
-1.78581e-07
-2.40947e-08
-1.78278e-07
3.49589e-08
-1.77893e-07
9.38588e-08
-1.77426e-07
1.52584e-07
-1.76877e-07
2.11116e-07
-1.76248e-07
2.69442e-07
-1.75546e-07
3.27565e-07
-1.7479e-07
3.85495e-07
-1.74001e-07
4.43226e-07
-1.73191e-07
5.00743e-07
-1.72375e-07
5.58028e-07
-1.71557e-07
6.15061e-07
-1.70722e-07
6.71815e-07
-1.69828e-07
7.28245e-07
-1.6881e-07
7.84269e-07
-1.67554e-07
8.39747e-07
-1.65867e-07
8.94437e-07
-1.63392e-07
9.47929e-07
-1.59459e-07
9.99585e-07
-1.52666e-07
1.04849e-06
-1.40415e-07
1.09415e-06
-1.16554e-07
-6.94478e-08
1.14078e-06
-9.41429e-09
-6.17343e-09
-2.22852e-08
8.80078e-09
-3.62338e-08
2.10331e-08
-5.08341e-08
3.1572e-08
-6.60488e-08
4.105e-08
-8.19677e-08
4.96164e-08
-9.87252e-08
5.73043e-08
-1.16447e-07
6.41399e-08
-1.35217e-07
7.01799e-08
-1.55069e-07
7.55146e-08
-1.75992e-07
8.02541e-08
-1.9795e-07
8.45122e-08
-2.20893e-07
8.8394e-08
-2.44771e-07
9.19886e-08
-2.69538e-07
9.5368e-08
-2.95158e-07
9.85874e-08
-3.216e-07
1.01689e-07
-3.48844e-07
1.04705e-07
-3.76872e-07
1.07658e-07
-4.05671e-07
1.10569e-07
-4.35228e-07
1.13453e-07
-4.65527e-07
1.1632e-07
-4.96545e-07
1.19178e-07
-5.28249e-07
1.22032e-07
-5.60592e-07
1.24879e-07
-5.9351e-07
1.27712e-07
-6.26918e-07
1.30512e-07
-6.60719e-07
1.33251e-07
-6.94809e-07
1.35889e-07
-7.29081e-07
1.38386e-07
-7.63409e-07
1.40706e-07
-7.97689e-07
1.42803e-07
-8.31888e-07
1.44648e-07
-8.65959e-07
1.46245e-07
-8.99719e-07
1.47616e-07
-9.33131e-07
1.48741e-07
-9.66215e-07
1.49603e-07
-9.99112e-07
1.5019e-07
-1.03177e-06
1.5057e-07
-1.06412e-06
1.50771e-07
-1.09625e-06
1.50746e-07
-1.12836e-06
1.5052e-07
-1.16045e-06
1.50201e-07
-1.19249e-06
1.49848e-07
-1.22442e-06
1.49498e-07
-1.2562e-06
1.4915e-07
-1.28782e-06
1.48787e-07
-1.31928e-06
1.48394e-07
-1.3506e-06
1.47957e-07
-1.38178e-06
1.47468e-07
-1.41281e-06
1.4692e-07
-1.4437e-06
1.46308e-07
-1.47445e-06
1.45625e-07
-1.50502e-06
1.44868e-07
-1.53542e-06
1.44031e-07
-1.56563e-06
1.43108e-07
-1.59562e-06
1.42096e-07
-1.62538e-06
1.40988e-07
-1.65488e-06
1.39781e-07
-1.68411e-06
1.38468e-07
-1.71303e-06
1.37045e-07
-1.74161e-06
1.35508e-07
-1.76984e-06
1.33853e-07
-1.79769e-06
1.32075e-07
-1.82511e-06
1.30173e-07
-1.8521e-06
1.28141e-07
-1.8786e-06
1.25978e-07
-1.9046e-06
1.23683e-07
-1.93006e-06
1.21252e-07
-1.95496e-06
1.18685e-07
-1.97925e-06
1.15982e-07
-2.00291e-06
1.13141e-07
-2.0259e-06
1.10163e-07
-2.04819e-06
1.07048e-07
-2.06975e-06
1.03797e-07
-2.09056e-06
1.00412e-07
-2.11056e-06
9.68936e-08
-2.12975e-06
9.3244e-08
-2.14808e-06
8.94651e-08
-2.16553e-06
8.55593e-08
-2.18206e-06
8.15292e-08
-2.19765e-06
7.73773e-08
-2.21227e-06
7.31064e-08
-2.22589e-06
6.87194e-08
-2.23848e-06
6.42189e-08
-2.25003e-06
5.96081e-08
-2.26051e-06
5.48894e-08
-2.26989e-06
5.00658e-08
-2.27815e-06
4.514e-08
-2.28527e-06
4.01149e-08
-2.29123e-06
3.49938e-08
-2.29603e-06
2.97802e-08
-2.29963e-06
2.44787e-08
-2.30203e-06
1.9095e-08
-2.30321e-06
1.36361e-08
-2.30316e-06
8.11074e-09
-2.30186e-06
2.52855e-09
-2.29929e-06
-3.10219e-09
-2.2954e-06
-8.77777e-09
-2.29015e-06
-1.45059e-08
-2.28354e-06
-2.02969e-08
-2.27553e-06
-2.61509e-08
-2.26611e-06
-3.20627e-08
-2.25528e-06
-3.8025e-08
-2.24301e-06
-4.40298e-08
-2.2293e-06
-5.00686e-08
-2.21414e-06
-5.61331e-08
-2.19753e-06
-6.2215e-08
-2.17947e-06
-6.83058e-08
-2.15995e-06
-7.43971e-08
-2.13899e-06
-8.04806e-08
-2.11657e-06
-8.65479e-08
-2.09271e-06
-9.25909e-08
-2.06741e-06
-9.86012e-08
-2.04069e-06
-1.04571e-07
-2.01256e-06
-1.10492e-07
-1.98302e-06
-1.16356e-07
-1.9521e-06
-1.22154e-07
-1.91981e-06