/*--------------------------------*- C++ -*----------------------------------*\
  =========                 |
  \\      /  F ield         | OpenFOAM: The Open Source CFD Toolbox
   \\    /   O peration     | Website:  https://openfoam.org
    \\  /    A nd           | Version:  12
     \\/     M anipulation  |
\*---------------------------------------------------------------------------*/
FoamFile
{
    format      ascii;
    class       volVectorField;
    location    "0.16";
    object      U;
}
// * * * * * * * * * * * * * * * * * * * * * * * * * * * * * * * * * * * * * //

dimensions      [0 1 -1 0 0 0 0];

internalField   nonuniform List<vector> 
12225
(
(9.86107 -0.874317 0)
(9.67247 -0.70019 0)
(9.45894 -0.387589 0)
(9.22461 -0.188473 0)
(9.00341 -0.0843883 0)
(8.81027 -0.0328691 0)
(8.64495 -0.00754191 0)
(8.50389 0.005036 0)
(8.38364 0.0113508 0)
(8.28068 0.0144906 0)
(8.19161 0.0159909 0)
(8.11356 0.0166674 0)
(8.04412 0.0169639 0)
(7.98147 0.0171751 0)
(7.92266 0.0174942 0)
(7.86866 0.018662 0)
(7.7985 0.0216627 0)
(7.77199 0.0306648 0)
(10.0547 0.26307 0)
(10.1201 0.360743 0)
(10.118 0.273825 0)
(10.0826 0.187094 0)
(10.0405 0.131171 0)
(9.99386 0.0969388 0)
(9.94004 0.0755726 0)
(9.88028 0.0617696 0)
(9.81767 0.0523693 0)
(9.7547 0.0455591 0)
(9.6928 0.0403967 0)
(9.6328 0.0364225 0)
(9.57506 0.0333822 0)
(9.51997 0.0312616 0)
(9.46673 0.0298989 0)
(9.41784 0.0310956 0)
(9.36617 0.0323016 0)
(9.3411 0.0531774 0)
(9.99919 0.0460879 0)
(10.0244 0.0342131 0)
(10.0538 0.014956 0)
(10.0708 0.0218203 0)
(10.0778 0.0366856 0)
(10.0782 0.0460258 0)
(10.0721 0.049971 0)
(10.0601 0.0511679 0)
(10.0438 0.0510818 0)
(10.0244 0.0503748 0)
(10.0028 0.049419 0)
(9.97967 0.0484619 0)
(9.95544 0.0476558 0)
(9.93055 0.04724 0)
(9.90493 0.0472919 0)
(9.87965 0.0491787 0)
(9.8539 0.0520641 0)
(9.8339 0.0637999 0)
(9.9968 0.00642926 0)
(10.0085 0.0250226 0)
(10.0342 0.0389454 0)
(10.0528 0.0503133 0)
(10.0644 0.0571229 0)
(10.073 0.0591841 0)
(10.0789 0.0588783 0)
(10.0815 0.0579659 0)
(10.0814 0.0569689 0)
(10.0793 0.0559636 0)
(10.0755 0.055004 0)
(10.0704 0.0541784 0)
(10.064 0.0535799 0)
(10.0568 0.0534079 0)
(10.0487 0.0538022 0)
(10.0403 0.0556615 0)
(10.0323 0.0586516 0)
(10.0268 0.0653484 0)
(9.99922 0.00673922 0)
(10.0081 0.0335794 0)
(10.0271 0.0460529 0)
(10.0418 0.0508591 0)
(10.0524 0.0539329 0)
(10.0621 0.0555276 0)
(10.0707 0.0558816 0)
(10.0773 0.0557068 0)
(10.0821 0.0553496 0)
(10.0855 0.0549024 0)
(10.0878 0.0544407 0)
(10.0891 0.0540711 0)
(10.0896 0.053906 0)
(10.0893 0.0541247 0)
(10.0886 0.0548841 0)
(10.0878 0.0566892 0)
(10.0875 0.0593549 0)
(10.0891 0.0633923 0)
(10.0002 0.00907633 0)
(10.0078 0.0321317 0)
(10.0225 0.0419232 0)
(10.035 0.0456827 0)
(10.0448 0.0491486 0)
(10.0541 0.0516925 0)
(10.0629 0.0528405 0)
(10.0704 0.0532036 0)
(10.0765 0.0532579 0)
(10.0817 0.0531683 0)
(10.0861 0.0530279 0)
(10.0898 0.0529466 0)
(10.0928 0.0530379 0)
(10.0954 0.0534491 0)
(10.0977 0.0543086 0)
(10.1 0.0558663 0)
(10.103 0.0579644 0)
(10.1073 0.0604554 0)
(10.0003 0.00880332 0)
(10.0068 0.0275266 0)
(10.0189 0.0370973 0)
(10.0303 0.0417616 0)
(10.0395 0.0456896 0)
(10.0482 0.0485232 0)
(10.0565 0.0499441 0)
(10.064 0.0505506 0)
(10.0704 0.0508294 0)
(10.0761 0.0509538 0)
(10.0813 0.0510117 0)
(10.0859 0.051105 0)
(10.09 0.0513374 0)
(10.0938 0.051822 0)
(10.0975 0.0526453 0)
(10.1013 0.053904 0)
(10.1056 0.0554367 0)
(10.1109 0.0569222 0)
(10.0004 0.00784092 0)
(10.0057 0.0237053 0)
(10.016 0.0333864 0)
(10.0264 0.038612 0)
(10.0351 0.0425156 0)
(10.0432 0.0453194 0)
(10.0511 0.0468857 0)
(10.0583 0.0476805 0)
(10.0648 0.0481295 0)
(10.0706 0.0484071 0)
(10.076 0.0486019 0)
(10.081 0.0488073 0)
(10.0856 0.0491135 0)
(10.09 0.0496023 0)
(10.0943 0.0503205 0)
(10.0988 0.0512785 0)
(10.1037 0.0523143 0)
(10.1092 0.0531153 0)
(10.0004 0.00695556 0)
(10.0049 0.0207202 0)
(10.0136 0.0300555 0)
(10.0229 0.03543 0)
(10.0312 0.0392244 0)
(10.0389 0.0419962 0)
(10.0463 0.0437002 0)
(10.0533 0.0446623 0)
(10.0596 0.0452479 0)
(10.0655 0.0456392 0)
(10.0709 0.0459295 0)
(10.076 0.0462027 0)
(10.0808 0.0465344 0)
(10.0855 0.0469803 0)
(10.0902 0.0475573 0)
(10.0949 0.0482326 0)
(10.1 0.0488578 0)
(10.1055 0.0491887 0)
(10.0004 0.00616946 0)
(10.0042 0.0181367 0)
(10.0116 0.0268215 0)
(10.0199 0.032172 0)
(10.0276 0.0358919 0)
(10.0349 0.0386345 0)
(10.042 0.0404333 0)
(10.0487 0.0415224 0)
(10.0549 0.0422125 0)
(10.0606 0.0426873 0)
(10.0661 0.0430418 0)
(10.0712 0.0433503 0)
(10.0761 0.0436737 0)
(10.0809 0.0440486 0)
(10.0857 0.044473 0)
(10.0906 0.044898 0)
(10.0956 0.0451992 0)
(10.1009 0.0452073 0)
(10.0003 0.00543336 0)
(10.0036 0.0158162 0)
(10.0099 0.0237388 0)
(10.0173 0.0289475 0)
(10.0245 0.0325773 0)
(10.0314 0.0352549 0)
(10.0381 0.0370892 0)
(10.0445 0.0382613 0)
(10.0505 0.0390269 0)
(10.0562 0.0395597 0)
(10.0615 0.0399535 0)
(10.0667 0.0402731 0)
(10.0716 0.0405668 0)
(10.0765 0.0408578 0)
(10.0813 0.0411353 0)
(10.0861 0.0413502 0)
(10.091 0.0414059 0)
(10.096 0.0411955 0)
(10.0003 0.00478156 0)
(10.0031 0.013873 0)
(10.0086 0.0210678 0)
(10.0152 0.0260448 0)
(10.0219 0.0295486 0)
(10.0284 0.0321328 0)
(10.0348 0.0339546 0)
(10.041 0.0351651 0)
(10.0468 0.0359732 0)
(10.0524 0.0365371 0)
(10.0577 0.0369464 0)
(10.0628 0.0372585 0)
(10.0677 0.0375121 0)
(10.0725 0.0377231 0)
(10.0773 0.0378783 0)
(10.0821 0.0379364 0)
(10.0868 0.0378249 0)
(10.0916 0.0374824 0)
(10.0003 0.00417572 0)
(10.0028 0.0121077 0)
(10.0075 0.0185567 0)
(10.0134 0.0232114 0)
(10.0196 0.0265464 0)
(10.0258 0.0290133 0)
(10.0318 0.0307885 0)
(10.0378 0.0320052 0)
(10.0435 0.0328325 0)
(10.0489 0.0334092 0)
(10.0541 0.0338188 0)
(10.0591 0.0341122 0)
(10.064 0.0343214 0)
(10.0688 0.0344576 0)
(10.0735 0.0345092 0)
(10.0782 0.0344444 0)
(10.0827 0.0342114 0)
(10.0873 0.0337818 0)
(10.0003 0.00354453 0)
(10.0024 0.0102715 0)
(10.0064 0.0158676 0)
(10.0117 0.020069 0)
(10.0174 0.0231475 0)
(10.0231 0.0254386 0)
(10.0289 0.0271155 0)
(10.0345 0.0282961 0)
(10.04 0.0291124 0)
(10.0453 0.0296787 0)
(10.0504 0.0300695 0)
(10.0553 0.0303293 0)
(10.0601 0.0304839 0)
(10.0648 0.0305425 0)
(10.0694 0.0304973 0)
(10.0739 0.0303277 0)
(10.0783 0.0300012 0)
(10.0827 0.0295142 0)
(10.0002 0.00288635 0)
(10.002 0.00836312 0)
(10.0055 0.0130107 0)
(10.0101 0.0166239 0)
(10.0153 0.0193364 0)
(10.0206 0.0213741 0)
(10.026 0.0228861 0)
(10.0313 0.0239733 0)
(10.0366 0.0247344 0)
(10.0417 0.0252575 0)
(10.0467 0.0256045 0)
(10.0515 0.025813 0)
(10.0562 0.0259042 0)
(10.0607 0.0258866 0)
(10.0652 0.0257575 0)
(10.0695 0.0255072 0)
(10.0737 0.0251189 0)
(10.0778 0.0246055 0)
(10.0002 0.0022014 0)
(10.0017 0.00638321 0)
(10.0047 0.00999057 0)
(10.0088 0.0128768 0)
(10.0134 0.0150952 0)
(10.0183 0.0167812 0)
(10.0233 0.0180455 0)
(10.0284 0.0189664 0)
(10.0334 0.019614 0)
(10.0383 0.0200506 0)
(10.0431 0.0203228 0)
(10.0477 0.0204605 0)
(10.0523 0.0204807 0)
(10.0567 0.0203921 0)
(10.061 0.0201964 0)
(10.0651 0.0198922 0)
(10.0691 0.0194736 0)
(10.073 0.0189624 0)
(10.0002 0.00148649 0)
(10.0015 0.00431486 0)
(10.0041 0.00678452 0)
(10.0077 0.00880353 0)
(10.0119 0.0103868 0)
(10.0164 0.0116041 0)
(10.021 0.0125225 0)
(10.0258 0.0131928 0)
(10.0306 0.0136583 0)
(10.0353 0.0139575 0)
(10.0399 0.0141204 0)
(10.0444 0.0141674 0)
(10.0488 0.014111 0)
(10.053 0.0139587 0)
(10.0571 0.0137147 0)
(10.0611 0.0133823 0)
(10.0649 0.0129611 0)
(10.0685 0.0124759 0)
(10.0001 0.000723816 0)
(10.0013 0.00210177 0)
(10.0037 0.00331245 0)
(10.0069 0.00431496 0)
(10.0108 0.00511198 0)
(10.015 0.00572835 0)
(10.0194 0.00618919 0)
(10.024 0.00651469 0)
(10.0285 0.0067226 0)
(10.033 0.00682875 0)
(10.0375 0.00684557 0)
(10.0418 0.00678178 0)
(10.046 0.00664329 0)
(10.0501 0.00643438 0)
(10.054 0.00615842 0)
(10.0578 0.00581926 0)
(10.0614 0.00541837 0)
(10.0649 0.00497824 0)
(10.0001 -0.000133472 0)
(10.0013 -0.000388651 0)
(10.0035 -0.000615565 0)
(10.0067 -0.000801285 0)
(10.0104 -0.000942988 0)
(10.0145 -0.0010543 0)
(10.0188 -0.00115434 0)
(10.0232 -0.0012569 0)
(10.0277 -0.00137069 0)
(10.0321 -0.00150297 0)
(10.0364 -0.00166041 0)
(10.0406 -0.0018482 0)
(10.0447 -0.00206979 0)
(10.0486 -0.00232717 0)
(10.0524 -0.0026211 0)
(10.056 -0.00295069 0)
(10.0595 -0.00331611 0)
(10.0628 -0.00370055 0)
(10.0001 -0.000958071 0)
(10.0014 -0.00279086 0)
(10.0038 -0.00441067 0)
(10.0071 -0.00573518 0)
(10.0111 -0.00675788 0)
(10.0153 -0.00754012 0)
(10.0198 -0.0081488 0)
(10.0242 -0.00862915 0)
(10.0287 -0.00901573 0)
(10.0331 -0.00934065 0)
(10.0374 -0.00963055 0)
(10.0416 -0.0099042 0)
(10.0456 -0.0101742 0)
(10.0495 -0.0104495 0)
(10.0532 -0.0107359 0)
(10.0568 -0.0110367 0)
(10.0602 -0.0113548 0)
(10.0634 -0.0116791 0)
(10.0002 -0.00167266 0)
(10.0015 -0.00489622 0)
(10.0042 -0.00773696 0)
(10.008 -0.00999134 0)
(10.0123 -0.0116746 0)
(10.0169 -0.0129434 0)
(10.0215 -0.0139154 0)
(10.0262 -0.0146499 0)
(10.0308 -0.0152012 0)
(10.0353 -0.0156284 0)
(10.0397 -0.0159784 0)
(10.0439 -0.0162818 0)
(10.0479 -0.0165582 0)
(10.0518 -0.0168215 0)
(10.0554 -0.0170819 0)
(10.059 -0.017345 0)
(10.0623 -0.0176154 0)
(10.0655 -0.0178856 0)
(10.0002 -0.00235529 0)
(10.0017 -0.00698698 0)
(10.0049 -0.0110764 0)
(10.0092 -0.0141654 0)
(10.0141 -0.0163478 0)
(10.019 -0.017961 0)
(10.024 -0.0191853 0)
(10.0289 -0.0200851 0)
(10.0337 -0.0207324 0)
(10.0384 -0.02121 0)
(10.0428 -0.0215792 0)
(10.047 -0.0218785 0)
(10.0511 -0.022134 0)
(10.055 -0.0223651 0)
(10.0587 -0.0225851 0)
(10.0622 -0.0228018 0)
(10.0655 -0.0230205 0)
(10.0687 -0.0232363 0)
(10.0002 -0.00299154 0)
(10.0018 -0.00909787 0)
(10.0056 -0.0144615 0)
(10.0108 -0.0182969 0)
(10.0164 -0.0209069 0)
(10.0217 -0.0227916 0)
(10.027 -0.0241454 0)
(10.0322 -0.0250742 0)
(10.0372 -0.0257156 0)
(10.042 -0.0261812 0)
(10.0466 -0.0265313 0)
(10.0509 -0.0268007 0)
(10.055 -0.0270184 0)
(10.0589 -0.0272071 0)
(10.0626 -0.0273817 0)
(10.0661 -0.0275508 0)
(10.0694 -0.0277195 0)
(10.0725 -0.0278849 0)
(10.0001 -0.00356821 0)
(10.0019 -0.0115306 0)
(10.0065 -0.0179178 0)
(10.0127 -0.0220377 0)
(10.0189 -0.0250133 0)
(10.0248 -0.0273056 0)
(10.0305 -0.0288392 0)
(10.036 -0.0297435 0)
(10.0412 -0.0302954 0)
(10.0461 -0.0306731 0)
(10.0507 -0.0309425 0)
(10.0551 -0.0311357 0)
(10.0592 -0.0312824 0)
(10.0631 -0.031406 0)
(10.0668 -0.0315202 0)
(10.0703 -0.0316322 0)
(10.0736 -0.0317452 0)
(10.0767 -0.0318555 0)
(9.99997 -0.00368863 0)
(10.0018 -0.015176 0)
(10.0076 -0.0226433 0)
(10.0148 -0.0259686 0)
(10.0214 -0.0285262 0)
(10.0277 -0.0309825 0)
(10.034 -0.0327548 0)
(10.04 -0.0337876 0)
(10.0455 -0.0343822 0)
(10.0506 -0.0347474 0)
(10.0553 -0.0349666 0)
(10.0598 -0.0350887 0)
(10.0639 -0.035156 0)
(10.0677 -0.035198 0)
(10.0713 -0.0352312 0)
(10.0746 -0.0352641 0)
(10.0777 -0.0353002 0)
(10.0806 -0.0353371 0)
(9.99898 -0.00130831 0)
(9.99999 -0.0179711 0)
(10.0085 -0.0290641 0)
(10.0174 -0.0326852 0)
(10.0244 -0.0341047 0)
(10.0312 -0.0353261 0)
(10.0382 -0.036268 0)
(10.0449 -0.0369052 0)
(10.0508 -0.0373505 0)
(10.056 -0.037644 0)
(10.0606 -0.0378004 0)
(10.0648 -0.0378558 0)
(10.0685 -0.0378514 0)
(10.0718 -0.0378167 0)
(10.0747 -0.03777 0)
(10.0773 -0.0377226 0)
(10.0796 -0.037678 0)
(10.0816 -0.0376356 0)
(9.99528 0.00386956 0)
(9.99334 -0.0103097 0)
(10.007 -0.0270997 0)
(10.0212 -0.0389199 0)
(10.0311 -0.0448547 0)
(10.0392 -0.0464577 0)
(10.0466 -0.0459705 0)
(10.053 -0.0450097 0)
(10.0581 -0.0441305 0)
(10.0621 -0.043354 0)
(10.0652 -0.042637 0)
(10.0675 -0.0419764 0)
(10.0691 -0.0413787 0)
(10.0701 -0.0408436 0)
(10.0705 -0.0403688 0)
(10.0705 -0.0399532 0)
(10.0701 -0.0395874 0)
(10.0695 -0.0392445 0)
(9.99144 -0.017293 0)
(9.99189 0.000367008 0)
(10.01 0.0176681 0)
(10.0296 0.0115921 0)
(10.0442 -0.00510329 0)
(10.0541 -0.0188177 0)
(10.06 -0.0271626 0)
(10.0623 -0.0320382 0)
(10.0617 -0.0349182 0)
(10.0591 -0.0365221 0)
(10.0549 -0.0372975 0)
(10.0496 -0.0375696 0)
(10.0432 -0.0375512 0)
(10.0362 -0.0373719 0)
(10.0286 -0.0371155 0)
(10.0207 -0.0368431 0)
(10.0126 -0.0366102 0)
(10.0045 -0.0363857 0)
(10.0236 -0.206007 0)
(10.0684 -0.312338 0)
(10.0789 -0.25559 0)
(10.0704 -0.184174 0)
(10.0606 -0.134897 0)
(10.0499 -0.102721 0)
(10.0342 -0.0811598 0)
(10.0129 -0.0666125 0)
(9.98782 -0.0566199 0)
(9.96059 -0.0494633 0)
(9.93238 -0.0441051 0)
(9.90389 -0.0399559 0)
(9.8756 -0.0366574 0)
(9.84786 -0.0339768 0)
(9.8209 -0.0317662 0)
(9.79483 -0.029962 0)
(9.76991 -0.0285341 0)
(9.74615 -0.0277988 0)
(9.94226 0.671595 0)
(9.87996 0.567455 0)
(9.77445 0.338468 0)
(9.63238 0.183321 0)
(9.48765 0.0949081 0)
(9.35654 0.0470856 0)
(9.24099 0.0213013 0)
(9.13949 0.00708045 0)
(9.05056 -0.000978338 0)
(8.97257 -0.00561895 0)
(8.90382 -0.00830752 0)
(8.84276 -0.00986917 0)
(8.78813 -0.0107741 0)
(8.73897 -0.0112912 0)
(8.69443 -0.0115812 0)
(8.65381 -0.0117688 0)
(8.61628 -0.0119478 0)
(8.58143 -0.0124793 0)
(0.00527017 -0.01235 -3.4995e-20)
(0.0161744 -0.0162034 3.44014e-20)
(0.0239643 -0.0117123 0)
(0.0274625 -0.00445652 0)
(0.0258497 0.00276918 0)
(0.0199107 0.00853521 -3.18508e-20)
(0.0106335 0.012526 0)
(-0.00110377 0.0150501 0)
(-0.0145977 0.0166099 0)
(-0.0294082 0.0176211 0)
(-0.0452597 0.0183499 2.85939e-20)
(-0.0619762 0.0189491 0)
(-0.0794578 0.0194949 0)
(-0.0976458 0.0200193 0)
(-0.116502 0.0205314 0)
(-0.135998 0.02103 2.54983e-20)
(-0.156108 0.02151 0)
(-0.176808 0.0219645 0)
(-0.198073 0.0223865 0)
(-0.219874 0.0227694 0)
(-0.242182 0.0231086 0)
(-0.264967 0.0234024 0)
(-0.288199 0.0236518 0)
(-0.31185 0.0238624 2.21018e-20)
(-0.335893 0.0240536 -2.17916e-20)
(-0.360312 0.0242754 2.15052e-20)
(-0.38512 0.0246182 2.12419e-20)
(-0.410361 0.0251616 0)
(-0.436029 0.0258312 0)
(-0.462191 0.0265731 -2.05822e-20)
(-0.489104 0.0291372 -2.04067e-20)
(-0.516396 0.0340969 0)
(-0.544828 0.0280238 0)
(-0.573242 0.0286695 -1.99192e-20)
(-0.601343 0.0333529 0)
(-0.632368 0.0426186 0)
(-0.663958 0.0465882 2.13443e-20)
(-0.698313 0.0341852 0)
(-0.731989 0.0382853 1.9569e-20)
(-0.767473 0.0585618 3.87409e-20)
(-0.805234 0.054129 0)
(-0.843448 0.044902 0)
(-0.877703 0.0399996 0)
(-0.913717 0.0289407 0)
(-0.949081 0.0310803 0)
(-0.986373 0.0320844 3.98053e-20)
(-1.02457 0.0326566 3.93725e-20)
(-1.06334 0.0329373 3.89497e-20)
(-1.10249 0.0330446 0)
(-1.14188 0.0330439 -3.81363e-20)
(-1.18144 0.0329715 0)
(-1.22109 0.0328486 3.73648e-20)
(-1.2608 0.0326877 3.69937e-20)
(-1.30053 0.0324963 0)
(-1.34025 0.0322788 0)
(-1.37992 0.0320376 0)
(-1.41953 0.0317742 3.55951e-20)
(-1.45903 0.031489 0)
(-1.4984 0.0311823 0)
(-1.53762 0.0308538 0)
(-1.57664 0.0305032 0)
(-1.61545 0.0301302 0)
(-1.654 0.0297343 0)
(-1.69226 0.0293151 0)
(-1.7302 0.0288725 0)
(-1.76779 0.0284061 -3.2792e-20)
(-1.80497 0.0279158 0)
(-1.84173 0.0274017 0)
(-1.87802 0.0268638 3.19089e-20)
(-1.9138 0.0263024 3.16154e-20)
(-1.94903 0.0257177 0)
(-1.98368 0.0251101 -3.10264e-20)
(-2.0177 0.0244803 3.07298e-20)
(-2.05105 0.0238288 0)
(-2.0837 0.0231563 -3.01297e-20)
(-2.1156 0.0224634 0)
(-2.14672 0.0217511 0)
(-2.17702 0.0210202 2.92045e-20)
(-2.20646 0.0202714 0)
(-2.235 0.0195057 -2.85651e-20)
(-2.26261 0.0187239 0)
(-2.28925 0.0179268 2.79031e-20)
(-2.31488 0.017115 2.75624e-20)
(-2.33947 0.0162891 2.72147e-20)
(-2.36299 0.0154494 5.3719e-20)
(-2.3854 0.0145961 -5.29929e-20)
(-2.40666 0.0137288 0)
(-2.42674 0.0128467 0)
(-2.44561 0.0119485 0)
(-2.46323 0.0110318 -4.99151e-20)
(-2.47957 0.0100935 -4.90987e-20)
(-2.49458 0.00912949 4.82624e-20)
(-2.50822 0.00813477 0)
(-2.52044 0.00710356 -4.65276e-20)
(-2.53118 0.00602893 -4.56284e-20)
(-2.54038 0.00490601 -4.47075e-20)
(-2.54796 0.00374013 0)
(-2.55382 0.00255836 0)
(-2.55783 0.00141029 0)
(-2.55991 0.000354956 -4.07995e-20)
(-2.56047 -0.000547216 0)
(-2.55958 -0.00138197 0)
(-2.55722 -0.00219468 3.75943e-20)
(-2.55341 -0.00299815 0)
(-2.54813 -0.00379625 0)
(-2.54137 -0.00458969 3.41519e-20)
(-2.53313 -0.00537816 0)
(-2.52339 -0.00616095 0)
(-2.51214 -0.00693724 -3.04692e-20)
(-2.49938 -0.00770616 -2.91884e-20)
(-2.48511 -0.00846682 0)
(-2.46932 -0.00921838 2.6548e-20)
(-2.45201 -0.00995999 0)
(-2.43318 -0.0106908 -2.38045e-20)
(-2.41284 -0.01141 0)
(-2.391 -0.0121169 -2.09608e-20)
(-2.36765 -0.0128105 -1.95027e-20)
(-2.34282 -0.0134902 0)
(-2.3165 -0.0141552 0)
(-2.28873 -0.0148048 0)
(-2.2595 -0.0154384 0)
(-2.22884 -0.0160552 0)
(-2.19677 -0.0166546 0)
(-2.16331 -0.0172361 0)
(-2.12848 -0.0177992 -7.05569e-21)
(-2.09231 -0.0183433 5.41462e-21)
(-2.05482 -0.0188678 0)
(-2.01604 -0.0193724 0)
(-1.97601 -0.0198565 0)
(-1.93474 -0.0203197 0)
(-1.89228 -0.0207617 -6.00594e-21)
(-1.84866 -0.0211822 0)
(-1.80391 -0.021581 1.28934e-20)
(-1.75808 -0.0219579 -1.63598e-20)
(-1.71119 -0.0223126 0)
(-1.6633 -0.0226449 0)
(-1.61444 -0.0229549 0)
(-1.56464 -0.0232424 3.0313e-20)
(-1.51396 -0.0235075 3.38093e-20)
(-1.46244 -0.0237504 0)
(-1.41011 -0.0239711 4.07916e-20)
(-1.35703 -0.0241699 4.42719e-20)
(-1.30323 -0.0243468 -4.77413e-20)
(-1.24876 -0.0245024 0)
(-1.19367 -0.024637 0)
(-1.13799 -0.0247509 -5.80554e-20)
(-1.08177 -0.0248448 0)
(-1.02505 -0.024919 0)
(-0.967879 -0.0249744 0)
(-0.910291 -0.0250115 0)
(-0.852328 -0.025031 7.47699e-20)
(-0.794028 -0.0250337 7.80183e-20)
(-0.735429 -0.0250205 0)
(-0.676565 -0.0249923 8.44015e-20)
(-0.617472 -0.0249498 0)
(-0.558181 -0.0248941 0)
(-0.498723 -0.0248257 9.36601e-20)
(-0.439128 -0.0247457 0)
(-0.379421 -0.0246544 9.95988e-20)
(-0.319633 -0.0245517 0)
(-0.25979 -0.0244364 0)
(-0.199922 -0.024304 1.08122e-19)
(-0.140061 -0.0241478 0)
(-0.0802351 -0.0239643 1.13531e-19)
(-0.0204572 -0.0237333 0)
(0.0391342 -0.0233919 0)
(0.0985708 -0.0229924 0)
(0.157885 -0.0226139 -1.19425e-19)
(0.217082 -0.022259 0)
(0.276176 -0.0219179 1.2087e-19)
(0.335169 -0.0215815 0)
(0.394042 -0.02124 0)
(0.452744 -0.0208792 0)
(0.511165 -0.0204754 0)
(0.569121 -0.0199827 0)
(0.626096 -0.0193081 0)
(0.681666 -0.0182017 0)
(0.731673 -0.0160281 -2.48633e-19)
(0.780236 -0.01109 0)
(0.781246 0.00659885 0)
(0.00390466 -0.0323569 1.03841e-19)
(0.00709033 -0.0265639 -9.89182e-20)
(0.0049665 -0.0124351 0)
(0.000297864 0.00149523 5.9009e-20)
(-0.00659159 0.0139691 0)
(-0.0156517 0.0243543 2.74889e-20)
(-0.026773 0.0324921 -5.34365e-20)
(-0.0398174 0.0386081 -5.20378e-20)
(-0.0545987 0.0431374 0)
(-0.0708965 0.0465381 -4.94329e-20)
(-0.0884952 0.0491817 -2.41204e-20)
(-0.107213 0.0513326 0)
(-0.12691 0.0531632 0)
(-0.147486 0.0547785 0)
(-0.168867 0.0562389 0)
(-0.191007 0.0575781 -2.14977e-20)
(-0.213873 0.0588137 0)
(-0.237446 0.0599552 4.12574e-20)
(-0.261713 0.0610076 0)
(-0.286674 0.0619749 0)
(-0.312334 0.0628618 -3.91006e-20)
(-0.338707 0.0636758 0)
(-0.365817 0.0644266 3.79081e-20)
(-0.393697 0.0651281 -1.87177e-20)
(-0.422394 0.0658012 1.84815e-20)
(-0.451961 0.0664766 -1.82708e-20)
(-0.482449 0.0671866 -1.8086e-20)
(-0.513892 0.0679329 0)
(-0.546378 0.0686433 0)
(-0.579991 0.0692244 1.7685e-20)
(-0.614404 0.069892 -1.75333e-20)
(-0.649407 0.0710852 0)
(-0.686275 0.0719716 0)
(-0.723924 0.0725597 1.73986e-20)
(-0.762947 0.0735139 0)
(-0.801143 0.0743252 0)
(-0.839873 0.0766531 -1.72929e-20)
(-0.879157 0.0783559 0)
(-0.918713 0.0785086 1.66848e-20)
(-0.956071 0.0785754 -3.31872e-20)
(-0.994057 0.0798257 0)
(-1.03175 0.0800067 0)
(-1.07204 0.0815679 -6.49443e-20)
(-1.11153 0.0833228 -6.42792e-20)
(-1.15077 0.0845825 -6.35636e-20)
(-1.18878 0.0851262 3.13486e-20)
(-1.22611 0.0852294 -3.11675e-20)
(-1.26308 0.0850458 -9.23425e-20)
(-1.29979 0.0846665 6.08614e-20)
(-1.33629 0.0841501 3.0191e-20)
(-1.3726 0.0835334 0)
(-1.40871 0.0828396 -2.95846e-20)
(-1.44462 0.0820832 2.9141e-20)
(-1.48032 0.0812731 0)
(-1.51579 0.0804146 0)
(-1.55101 0.0795107 0)
(-1.58597 0.0785627 -2.81926e-20)
(-1.62065 0.077571 0)
(-1.65503 0.0765354 5.51972e-20)
(-1.68908 0.0754554 0)
(-1.72278 0.0743302 5.41952e-20)
(-1.75611 0.0731592 0)
(-1.78903 0.0719417 -5.32191e-20)
(-1.82153 0.070677 0)
(-1.85358 0.069365 5.22617e-20)
(-1.88515 0.0680053 -2.58219e-20)
(-1.9162 0.066598 0)
(-1.94672 0.0651435 -5.08448e-20)
(-1.97667 0.0636421 -2.52556e-20)
(-2.00603 0.0620946 -2.50186e-20)
(-2.03475 0.0605019 0)
(-2.06282 0.058865 -2.4413e-20)
(-2.09021 0.0571855 -2.43006e-20)
(-2.11687 0.0554645 0)
(-2.14279 0.0537039 2.3812e-20)
(-2.16794 0.0519054 -4.70132e-20)
(-2.19227 0.0500708 0)
(-2.21578 0.0482019 -2.30561e-20)
(-2.23841 0.0463009 0)
(-2.26016 0.0443698 6.75018e-20)
(-2.28098 0.0424104 0)
(-2.30086 0.0404249 -6.58836e-20)
(-2.31976 0.038415 -2.17102e-20)
(-2.33766 0.0363825 2.13505e-20)
(-2.35452 0.0343291 4.21298e-20)
(-2.37034 0.032256 -4.15461e-20)
(-2.38507 0.0301645 0)
(-2.39869 0.0280552 0)
(-2.41118 0.0259286 0)
(-2.42251 0.0237844 1.17374e-19)
(-2.43267 0.0216218 3.84811e-20)
(-2.44162 0.0194394 -3.77972e-20)
(-2.44935 0.0172352 0)
(-2.45584 0.0150067 -3.6364e-20)
(-2.46109 0.0127504 3.56462e-20)
(-2.46511 0.0104619 3.48952e-20)
(-2.46791 0.00814211 0)
(-2.46958 0.00581188 0)
(-2.4702 0.00352115 0)
(-2.46989 0.00131999 3.1701e-20)
(-2.46832 -0.000766109 0)
(-2.4654 -0.00279022 -6.00623e-20)
(-2.46107 -0.00478318 -8.74019e-20)
(-2.45532 -0.00675608 5.65115e-20)
(-2.44813 -0.00871213 0)
(-2.43948 -0.010651 2.64869e-20)
(-2.42936 -0.0125709 0)
(-2.41775 -0.0144697 4.89698e-20)
(-2.40466 -0.016345 -2.36008e-20)
(-2.39008 -0.0181947 -2.26028e-20)
(-2.374 -0.0200162 0)
(-2.35642 -0.0218075 -6.11508e-20)
(-2.33733 -0.0235663 3.87364e-20)
(-2.31675 -0.0252907 1.81505e-20)
(-2.29468 -0.0269786 0)
(-2.27112 -0.0286281 1.59381e-20)
(-2.24607 -0.0302373 4.47569e-20)
(-2.21956 -0.0318044 0)
(-2.19158 -0.0333278 2.53723e-20)
(-2.16216 -0.0348057 2.30428e-20)
(-2.1313 -0.0362367 2.06873e-20)
(-2.09904 -0.0376194 0)
(-2.06537 -0.0389523 0)
(-2.03034 -0.0402344 0)
(-1.99395 -0.0414647 -5.73273e-21)
(-1.95624 -0.042642 -4.06096e-21)
(-1.91722 -0.0437654 0)
(-1.87694 -0.0448342 -3.58706e-21)
(-1.83541 -0.0458475 -1.07555e-21)
(-1.79267 -0.0468047 0)
(-1.74875 -0.0477053 4.47474e-21)
(-1.70368 -0.048549 1.30488e-20)
(-1.6575 -0.0493355 -9.58169e-21)
(-1.61026 -0.050065 -1.11122e-20)
(-1.56197 -0.0507372 0)
(-1.51269 -0.0513524 0)
(-1.46246 -0.0519106 0)
(-1.41131 -0.0524124 -2.23897e-20)
(-1.35928 -0.0528582 2.38607e-20)
(-1.30642 -0.0532489 5.38889e-20)
(-1.25278 -0.0535852 -3.00261e-20)
(-1.19838 -0.053868 3.14522e-20)
(-1.14329 -0.0540983 3.50655e-20)
(-1.08754 -0.0542774 0)
(-1.03117 -0.0544067 0)
(-0.974223 -0.0544876 -4.14021e-20)
(-0.91675 -0.0545216 0)
(-0.858789 -0.0545106 0)
(-0.800381 -0.0544563 9.84496e-20)
(-0.741566 -0.0543608 0)
(-0.682385 -0.0542261 5.34035e-20)
(-0.622874 -0.0540544 -5.68209e-20)
(-0.563072 -0.0538479 0)
(-0.503012 -0.0536089 6.02944e-20)
(-0.44273 -0.0533397 0)
(-0.382256 -0.0530427 0)
(-0.32162 -0.05272 -6.79618e-20)
(-0.260852 -0.0523733 1.3913e-19)
(-0.199976 -0.0520041 -7.21791e-20)
(-0.139021 -0.0516119 0)
(-0.07801 -0.0511956 0)
(-0.0169681 -0.0507527 7.71265e-20)
(0.0440796 -0.0502789 0)
(0.105109 -0.0497762 7.96844e-20)
(0.166106 -0.0492545 0)
(0.227046 -0.0486987 0)
(0.287945 -0.0481171 0)
(0.348807 -0.0475437 8.46182e-20)
(0.409624 -0.0469883 0)
(0.470392 -0.0464439 -8.6337e-20)
(0.531098 -0.045897 0)
(0.591715 -0.045328 0)
(0.652185 -0.0447066 1.76267e-19)
(0.712392 -0.0439804 -1.77562e-19)
(0.772144 -0.0430478 0)
(0.830999 -0.0417121 0)
(0.888499 -0.0394646 0)
(0.942069 -0.0353363 5.47667e-19)
(0.994266 -0.0259915 0)
(1.02444 -0.00342465 -3.72549e-19)
(-0.000184 -0.0347255 -5.28163e-23)
(-0.00497162 -0.0170742 1.27665e-19)
(-0.0129172 0.0022562 0)
(-0.0221287 0.0194992 -1.07847e-19)
(-0.0326611 0.0347324 0)
(-0.0443624 0.0478815 0)
(-0.0572535 0.0589117 1.08048e-23)
(-0.0714132 0.0679375 4.60807e-20)
(-0.0868777 0.0752192 4.48684e-20)
(-0.103617 0.0810918 4.37691e-20)
(-0.121553 0.0858896 0)
(-0.140591 0.0899 0)
(-0.160638 0.093346 -4.07933e-20)
(-0.181615 0.096389 -7.98198e-20)
(-0.203459 0.0991403 7.8153e-20)
(-0.226124 0.101675 0)
(-0.249579 0.104043 7.51094e-20)
(-0.273806 0.10628 -3.68773e-20)
(-0.298798 0.108412 0)
(-0.324556 0.110464 7.1221e-20)
(-0.351087 0.112457 3.5061e-20)
(-0.378406 0.114416 -6.90421e-20)
(-0.406528 0.116368 -3.40493e-20)
(-0.435472 0.118342 0)
(-0.465253 0.12037 6.63351e-20)
(-0.495878 0.122485 6.55703e-20)
(-0.527335 0.124707 0)
(-0.559587 0.127032 6.42163e-20)
(-0.592596 0.129412 0)
(-0.626332 0.131819 6.3031e-20)
(-0.660612 0.134259 3.12518e-20)
(-0.695227 0.136599 0)
(-0.730328 0.138517 0)
(-0.765766 0.140217 0)
(-0.801374 0.142088 0)
(-0.836631 0.143771 0)
(-0.871478 0.144829 0)
(-0.906217 0.144893 5.82195e-20)
(-0.941033 0.145033 -8.62975e-20)
(-0.975057 0.145221 0)
(-1.00841 0.144298 0)
(-1.04191 0.142585 0)
(-1.07568 0.140922 2.02219e-23)
(-1.10947 0.139262 5.4184e-20)
(-1.14313 0.138047 1.06997e-19)
(-1.17641 0.137004 -1.05711e-19)
(-1.20937 0.135956 -5.2187e-20)
(-1.2421 0.134846 5.16582e-20)
(-1.27462 0.13366 -8.54927e-23)
(-1.30698 0.132398 5.03963e-20)
(-1.33918 0.131066 0)
(-1.37124 0.129669 4.9277e-20)
(-1.40315 0.128211 -9.17203e-23)
(-1.4349 0.126695 0)
(-1.46649 0.125121 0)
(-1.49789 0.12349 -4.71907e-20)
(-1.5291 0.121802 0)
(-1.5601 0.120054 0)
(-1.59087 0.118245 4.56366e-20)
(-1.62138 0.116374 9.053e-20)
(-1.65162 0.114439 -4.49009e-20)
(-1.68156 0.112438 0)
(-1.71118 0.110371 4.3994e-20)
(-1.74045 0.108237 0)
(-1.76935 0.106034 4.29117e-20)
(-1.79785 0.103763 4.26654e-20)
(-1.82592 0.101424 -8.42668e-20)
(-1.85354 0.0990164 -4.16055e-20)
(-1.88067 0.0965421 0)
(-1.90729 0.0940017 8.16658e-20)
(-1.93337 0.0913967 0)
(-1.95887 0.0887288 1.19985e-19)
(-1.98377 0.0859999 7.9061e-20)
(-2.00804 0.0832123 7.81856e-20)
(-2.03164 0.0803683 -7.73047e-20)
(-2.05456 0.0774705 1.14702e-19)
(-2.07674 0.0745218 0)
(-2.09818 0.071525 0)
(-2.11883 0.068483 -7.37e-20)
(-2.13866 0.0653989 -1.09223e-19)
(-2.15766 0.0622756 0)
(-2.17578 0.0591162 3.54963e-20)
(-2.19301 0.0559235 0)
(-2.20931 0.0527003 -1.03439e-19)
(-2.22466 0.0494493 -8.89846e-23)
(-2.23903 0.0461728 8.0291e-23)
(-2.2524 0.0428731 6.58704e-20)
(-2.26473 0.0395521 0)
(-2.27601 0.0362116 -6.37375e-20)
(-2.28622 0.0328533 -4.29226e-23)
(-2.29533 0.0294786 0)
(-2.30333 0.0260895 0)
(-2.31019 0.0226886 0)
(-2.31591 0.0192797 5.80309e-20)
(-2.32048 0.0158693 0)
(-2.3239 0.0124674 0)
(-2.32617 0.0090891 0)
(-2.32727 0.00575413 0)
(-2.32721 0.0024799 0)
(-2.32593 -0.000740367 5.03494e-20)
(-2.32333 -0.00394433 0)
(-2.3194 -0.00713556 4.7477e-20)
(-2.31411 -0.0103091 4.6035e-20)
(-2.30744 -0.0134616 -4.45674e-20)
(-2.29936 -0.0165896 0)
(-2.28987 -0.0196893 -4.15552e-20)
(-2.27895 -0.022757 0)
(-2.2666 -0.0257885 -3.84416e-20)
(-2.2528 -0.02878 3.68476e-20)
(-2.23754 -0.0317276 1.06053e-19)
(-2.22084 -0.0346275 0)
(-2.20267 -0.0374761 9.61756e-20)
(-2.18305 -0.0402701 3.06668e-20)
(-2.16197 -0.0430062 0)
(-2.13944 -0.045681 5.40605e-20)
(-2.11546 -0.0482916 5.05775e-20)
(-2.09004 -0.0508351 -7.03218e-20)
(-2.0632 -0.0533087 0)
(-2.03493 -0.0557095 -1.96674e-20)
(-2.00525 -0.058035 -1.78415e-20)
(-1.97418 -0.0602829 -4.85989e-20)
(-1.94174 -0.0624508 0)
(-1.90794 -0.0645368 0)
(-1.8728 -0.066539 0)
(-1.83635 -0.0684558 -9.16476e-21)
(-1.7986 -0.0702857 0)
(-1.7596 -0.0720274 0)
(-1.71935 -0.0736795 2.753e-21)
(-1.67789 -0.075241 8.24585e-22)
(-1.63525 -0.076711 0)
(-1.59147 -0.0780886 0)
(-1.54656 -0.0793735 -9.97276e-21)
(-1.50058 -0.0805656 0)
(-1.45356 -0.0816649 1.77367e-20)
(-1.40552 -0.0826716 2.08178e-20)
(-1.35652 -0.083586 0)
(-1.30658 -0.0844083 0)
(-1.25575 -0.0851395 -3.2385e-20)
(-1.20407 -0.0857806 -8.25891e-22)
(-1.15158 -0.086333 -8.30935e-22)
(-1.09833 -0.0867981 0)
(-1.04434 -0.0871774 -9.60627e-20)
(-0.989671 -0.0874727 0)
(-0.93436 -0.0876862 0)
(-0.878448 -0.0878202 0)
(-0.821979 -0.0878773 6.33083e-20)
(-0.764992 -0.0878599 0)
(-0.70753 -0.0877711 -1.39401e-19)
(-0.649632 -0.087614 -7.4105e-20)
(-0.591338 -0.0873918 0)
(-0.532687 -0.0871079 -8.11052e-20)
(-0.473714 -0.0867659 0)
(-0.414457 -0.0863695 0)
(-0.354948 -0.0859225 -2.72165e-19)
(-0.295222 -0.0854286 1.87489e-19)
(-0.235307 -0.0848916 0)
(-0.175234 -0.084315 2.0037e-19)
(-0.11503 -0.0837016 -1.04125e-19)
(-0.0547189 -0.0830539 0)
(0.00567422 -0.0823744 0)
(0.0661269 -0.0816634 0)
(0.126619 -0.08092 -3.41394e-19)
(0.187131 -0.0801437 0)
(0.24765 -0.0793376 -1.18124e-19)
(0.308168 -0.0785135 0)
(0.368703 -0.0776844 0)
(0.429262 -0.0768581 0)
(0.489832 -0.0760429 0)
(0.550398 -0.0752416 0)
(0.610945 -0.0744454 0)
(0.671454 -0.0736365 -2.58031e-19)
(0.731891 -0.0727863 0)
(0.792196 -0.0718476 -1.32344e-19)
(0.852261 -0.0707391 3.99543e-19)
(0.911906 -0.0693106 0)
(0.970762 -0.0672756 0)
(1.02848 -0.0640093 -2.73011e-19)
(1.08335 -0.0583185 -2.76527e-19)
(1.13802 -0.0471959 2.78532e-19)
(1.18048 -0.0242404 2.83378e-19)
(-0.00440406 -0.0224257 -2.04584e-19)
(-0.0143744 0.00274181 -1.86301e-19)
(-0.0259904 0.0247738 -1.10573e-19)
(-0.0384319 0.0437304 -5.05277e-20)
(-0.051667 0.0604718 0)
(-0.0655198 0.0752041 9.03813e-20)
(-0.0800544 0.0879936 -4.35134e-20)
(-0.0954011 0.0989332 0)
(-0.111664 0.108193 -4.10294e-20)
(-0.128898 0.116007 0)
(-0.147112 0.122636 7.8113e-20)
(-0.166284 0.128331 0)
(-0.186375 0.13331 3.73533e-20)
(-0.20734 0.137747 7.31487e-20)
(-0.229137 0.141777 -7.16794e-20)
(-0.251731 0.145501 0)
(-0.275094 0.148991 -6.89897e-20)
(-0.299203 0.152301 0)
(-0.324046 0.155474 0)
(-0.349608 0.158543 -6.55175e-20)
(-0.375882 0.161537 0)
(-0.402855 0.164479 2.14139e-24)
(-0.430513 0.16739 0)
(-0.458833 0.170285 0)
(-0.487782 0.173172 -2.68575e-24)
(-0.517311 0.176049 -6.01757e-20)
(-0.547354 0.1789 -5.94318e-20)
(-0.57783 0.181683 -5.87202e-20)
(-0.608648 0.184338 0)
(-0.639715 0.186802 -1.14667e-19)
(-0.670925 0.18903 0)
(-0.702166 0.190928 -5.59624e-20)
(-0.733389 0.192401 0)
(-0.764557 0.193518 0)
(-0.795559 0.194347 5.38732e-20)
(-0.826296 0.19483 0)
(-0.856761 0.19488 -5.24719e-20)
(-0.88703 0.194416 -1.86797e-23)
(-0.917144 0.193711 1.02195e-19)
(-0.947031 0.19286 -1.00799e-19)
(-0.976703 0.191563 0)
(-1.00633 0.189869 0)
(-1.03601 0.188048 -4.83848e-20)
(-1.0657 0.186164 0)
(-1.09535 0.18438 -4.71521e-20)
(-1.12492 0.182658 4.65494e-20)
(-1.15438 0.180951 4.59627e-20)
(-1.18375 0.179225 0)
(-1.21301 0.177462 -4.48351e-20)
(-1.2422 0.17565 -4.42931e-20)
(-1.2713 0.173783 8.74532e-20)
(-1.30031 0.171857 -4.32494e-20)
(-1.32924 0.169869 -4.27463e-20)
(-1.35807 0.167817 0)
(-1.38679 0.165698 0)
(-1.41538 0.163508 4.13033e-20)
(-1.44384 0.161245 0)