/*--------------------------------*- C++ -*----------------------------------*\
  =========                 |
  \\      /  F ield         | OpenFOAM: The Open Source CFD Toolbox
   \\    /   O peration     | Website:  https://openfoam.org
    \\  /    A nd           | Version:  12
     \\/     M anipulation  |
\*---------------------------------------------------------------------------*/
FoamFile
{
    format      ascii;
    class       volVectorField;
    location    "12.62";
    object      U;
}
// * * * * * * * * * * * * * * * * * * * * * * * * * * * * * * * * * * * * * //

dimensions      [0 1 -1 0 0 0 0];

internalField   nonuniform List<vector> 
3829
(
(4.79267e-06 -0.00035794 0)
(1.37113e-05 -0.000369108 0)
(2.34616e-05 -0.000368882 0)
(3.29474e-05 -0.000368224 0)
(4.27791e-05 -0.000367319 0)
(5.27231e-05 -0.000366133 0)
(6.28987e-05 -0.000364647 0)
(7.32459e-05 -0.00036283 0)
(8.37973e-05 -0.000360648 0)
(9.45184e-05 -0.000358077 0)
(0.000105465 -0.000355071 0)
(0.000116614 -0.000351606 0)
(0.000127852 -0.000347642 0)
(0.000139213 -0.000343141 0)
(0.000150661 -0.000338073 0)
(0.000162144 -0.00033241 0)
(0.000173592 -0.000326122 0)
(0.000184936 -0.000319191 0)
(0.000196093 -0.000311604 0)
(0.000206993 -0.000303341 0)
(0.000217522 -0.000294413 0)
(0.000227557 -0.000284814 0)
(0.000236944 -0.000274567 0)
(0.000245638 -0.000263682 0)
(0.000253511 -0.000252205 0)
(0.000260483 -0.000240172 0)
(0.000266235 -0.000227635 0)
(0.000270645 -0.00021462 0)
(0.000273824 -0.000201201 0)
(0.000275398 -0.000187448 0)
(0.000275443 -0.000173381 0)
(0.000274137 -0.000159178 0)
(0.000271201 -0.000145004 0)
(0.000266728 -0.000131043 0)
(0.000260484 -0.000117393 0)
(0.000252518 -0.000104133 0)
(0.000242993 -9.14298e-05 0)
(0.000231755 -7.92905e-05 0)
(0.000218984 -6.78258e-05 0)
(0.000204754 -5.70434e-05 0)
(0.000189245 -4.70181e-05 0)
(0.000172602 -3.7796e-05 0)
(0.000154975 -2.93956e-05 0)
(0.000136567 -2.18631e-05 0)
(0.000117587 -1.52315e-05 0)
(9.82384e-05 -9.51618e-06 0)
(7.87689e-05 -4.73169e-06 0)
(5.93996e-05 -8.79963e-07 0)
(4.03661e-05 2.03633e-06 0)
(2.19809e-05 4.06138e-06 0)
(4.48476e-06 5.17056e-06 0)
(-1.18971e-05 5.46115e-06 0)
(-2.70857e-05 4.91131e-06 0)
(-4.06162e-05 3.65474e-06 0)
(-5.24843e-05 1.67364e-06 0)
(-6.22498e-05 -8.49783e-07 0)
(-6.97988e-05 -3.99721e-06 0)
(-7.53675e-05 -7.50407e-06 0)
(-7.85575e-05 -1.14399e-05 0)
(-7.8927e-05 -1.54816e-05 0)
(-7.62852e-05 -1.98215e-05 0)
(-7.10375e-05 -2.41976e-05 0)
(-6.31178e-05 -2.86401e-05 0)
(-5.27387e-05 -3.29692e-05 0)
(-3.9949e-05 -3.71169e-05 0)
(-2.5e-05 -4.09998e-05 0)
(-8.17535e-06 -4.44398e-05 0)
(1.12297e-05 -4.73737e-05 0)
(3.23936e-05 -4.97783e-05 0)
(5.46692e-05 -5.14858e-05 0)
(7.80539e-05 -5.24791e-05 0)
(0.00010199 -5.27017e-05 0)
(0.000126393 -5.20938e-05 0)
(0.0001505 -5.06696e-05 0)
(0.000174272 -4.8347e-05 0)
(0.000196821 -4.52401e-05 0)
(0.000218044 -4.12144e-05 0)
(0.000237191 -3.65311e-05 0)
(0.000254046 -3.09554e-05 0)
(0.000268127 -2.48586e-05 0)
(0.000278734 -1.8058e-05 0)
(0.000286272 -1.08338e-05 0)
(0.000289698 -3.28442e-06 0)
(0.000288721 4.5092e-06 0)
(0.000283112 1.23867e-05 0)
(0.000272906 2.01632e-05 0)
(0.000258246 2.77272e-05 0)
(0.000239179 3.48938e-05 0)
(0.000216031 4.15385e-05 0)
(0.00018907 4.74304e-05 0)
(0.00015859 5.24837e-05 0)
(0.000125273 5.65214e-05 0)
(8.95652e-05 5.94099e-05 0)
(5.22251e-05 6.10685e-05 0)
(1.39272e-05 6.13773e-05 0)
(-2.45175e-05 6.03328e-05 0)
(-6.20954e-05 5.78973e-05 0)
(-9.80057e-05 5.4085e-05 0)
(-0.000131292 4.89692e-05 0)
(-0.000161172 4.26181e-05 0)
(-0.000186677 3.52187e-05 0)
(-0.000207114 2.68604e-05 0)
(-0.000221876 1.78284e-05 0)
(-0.000230442 8.30962e-06 0)
(-0.000232211 -1.39555e-06 0)
(-0.000226824 -1.10389e-05 0)
(-0.000214445 -2.02821e-05 0)
(-0.00019538 -2.89677e-05 0)
(-0.000170319 -3.66945e-05 0)
(-0.000139862 -4.33079e-05 0)
(-0.000104944 -4.84643e-05 0)
(-6.63765e-05 -5.19576e-05 0)
(-2.56103e-05 -5.37197e-05 0)
(1.61868e-05 -5.35248e-05 0)
(5.75582e-05 -5.15087e-05 0)
(9.67119e-05 -4.76244e-05 0)
(0.000132302 -4.20269e-05 0)
(0.000162949 -3.48593e-05 0)
(0.000187557 -2.63958e-05 0)
(0.000204879 -1.69718e-05 0)
(0.000214359 -6.93709e-06 0)
(0.000215094 3.19382e-06 0)
(0.000206735 1.31348e-05 0)
(0.000189976 2.23878e-05 0)
(0.000165506 3.05607e-05 0)
(0.000134375 3.72521e-05 0)
(9.79303e-05 4.2144e-05 0)
(5.77776e-05 4.49432e-05 0)
(1.57524e-05 4.55614e-05 0)
(-2.601e-05 4.3891e-05 0)
(-6.53392e-05 4.00621e-05 0)
(-0.00010034 3.42544e-05 0)
(-0.000129138 2.67809e-05 0)
(-0.000150231 1.80431e-05 0)
(-0.000162598 8.55434e-06 0)
(-0.000165262 -1.1172e-06 0)
(-0.000157983 -1.04154e-05 0)
(-0.000141675 -1.88135e-05 0)
(-0.0001175 -2.57023e-05 0)
(-8.70653e-05 -3.07517e-05 0)
(-5.24333e-05 -3.34897e-05 0)
(-1.57077e-05 -3.38211e-05 0)
(2.01463e-05 -3.16779e-05 0)
(5.22955e-05 -2.72589e-05 0)
(7.86221e-05 -2.08594e-05 0)
(9.70555e-05 -1.29932e-05 0)
(0.000106275 -4.23651e-06 0)
(0.000105141 4.65023e-06 0)
(9.35349e-05 1.30846e-05 0)
(7.27532e-05 2.03304e-05 0)
(4.45316e-05 2.58418e-05 0)
(1.03324e-05 2.90731e-05 0)
(-2.656e-05 2.98206e-05 0)
(-6.22235e-05 2.79271e-05 0)
(-9.40798e-05 2.36853e-05 0)
(-0.000119434 1.73636e-05 0)
(-0.000136086 9.72953e-06 0)
(-0.000142464 1.34521e-06 0)
(-0.000137893 -6.83676e-06 0)
(-0.000122778 -1.42092e-05 0)
(-9.90114e-05 -1.99305e-05 0)
(-6.89485e-05 -2.35809e-05 0)
(-3.56505e-05 -2.48065e-05 0)
(-2.2238e-06 -2.35004e-05 0)
(2.79044e-05 -1.99605e-05 0)
(5.16457e-05 -1.46924e-05 0)
(6.7216e-05 -8.35266e-06 0)
(7.35091e-05 -1.74381e-06 0)
(7.04542e-05 4.28073e-06 0)
(5.93069e-05 9.10349e-06 0)
(4.24753e-05 1.21773e-05 0)
(2.26857e-05 1.31668e-05 0)
(2.87825e-06 1.21686e-05 0)
(-1.38209e-05 9.43211e-06 0)
(-2.50746e-05 5.54779e-06 0)
(-2.97926e-05 1.2336e-06 0)
(-2.77336e-05 -2.78105e-06 0)
(-1.98165e-05 -5.87026e-06 0)
(-8.02775e-06 -7.57743e-06 0)
(5.59368e-06 -7.6454e-06 0)
(1.77502e-05 -6.17503e-06 0)
(2.59172e-05 -3.57333e-06 0)
(2.89981e-05 -3.99603e-07 0)
(2.64047e-05 2.68993e-06 0)
(1.88122e-05 5.1071e-06 0)
(8.00815e-06 6.42366e-06 0)
(-4.07916e-06 6.36433e-06 0)
(-1.49404e-05 4.95107e-06 0)
(-2.17817e-05 2.53911e-06 0)
(-2.36472e-05 -4.0461e-07 0)
(-1.97855e-05 -3.23865e-06 0)
(-1.10266e-05 -5.48605e-06 0)
(1.06033e-06 -6.62452e-06 0)
(1.43747e-05 -6.46661e-06 0)
(2.59454e-05 -5.02912e-06 0)
(3.36394e-05 -2.58118e-06 0)
(3.5785e-05 4.39423e-07 0)
(3.16739e-05 3.45632e-06 0)
(2.18082e-05 5.89612e-06 0)
(7.78648e-06 7.26583e-06 0)
(6.16429e-06 0.00015757 0)
(1.93529e-05 0.000165733 0)
(3.28424e-05 0.000164759 0)
(4.66759e-05 0.000163138 0)
(6.09183e-05 0.000160996 0)
(7.56527e-05 0.000158356 0)
(9.0934e-05 0.000155273 0)
(0.000106832 0.000151791 0)
(0.000123315 0.00014798 0)
(0.000140389 0.000143932 0)
(0.000158131 0.000139682 0)
(0.00017645 0.000135403 0)
(0.000195299 0.000131117 0)
(0.000214647 0.000127027 0)
(0.000234354 0.000123147 0)
(0.000254346 0.000119683 0)
(0.000274484 0.000116655 0)
(0.000294559 0.000114246 0)
(0.000314475 0.00011253 0)
(0.000333989 0.000111651 0)
(0.000352901 0.000111677 0)
(0.00037099 0.000112686 0)
(0.000387992 0.000114728 0)
(0.000403725 0.000117838 0)
(0.000417876 0.000122032 0)
(0.000430352 0.000127275 0)
(0.000440939 0.00013347 0)
(0.000449364 0.000140542 0)
(0.000455477 0.000148383 0)
(0.000459296 0.000156747 0)
(0.000460215 0.000165445 0)
(0.000457516 0.000174357 0)
(0.00045096 0.000183381 0)
(0.000441117 0.000192431 0)
(0.000428462 0.00020134 0)
(0.000412681 0.000209804 0)
(0.000394412 0.000217709 0)
(0.000373889 0.000224813 0)
(0.000351331 0.000230916 0)
(0.000327056 0.000235829 0)
(0.00030103 0.000239374 0)
(0.000273732 0.000241431 0)
(0.000245322 0.000241819 0)
(0.000215927 0.000240511 0)
(0.000185938 0.000237409 0)
(0.000155661 0.000232487 0)
(0.000125417 0.000225722 0)
(9.54918e-05 0.000217146 0)
(6.63567e-05 0.000206759 0)
(3.8207e-05 0.000194676 0)
(1.1535e-05 0.000180945 0)
(-1.34164e-05 0.000165725 0)
(-3.64189e-05 0.000148991 0)
(-5.6997e-05 0.000131159 0)
(-7.49446e-05 0.000112094 0)
(-9.01433e-05 9.23381e-05 0)
(-0.000102128 7.16674e-05 0)
(-0.000111083 5.06936e-05 0)
(-0.000116389 2.93372e-05 0)
(-0.000118191 8.17517e-06 0)
(-0.000116639 -1.29201e-05 0)
(-0.000111385 -3.33103e-05 0)
(-0.000102787 -5.30564e-05 0)
(-9.06331e-05 -7.1728e-05 0)
(-7.54348e-05 -8.91767e-05 0)
(-5.6992e-05 -0.000105071 0)
(-3.57038e-05 -0.000119196 0)
(-1.15608e-05 -0.000131294 0)
(1.50251e-05 -0.000141271 0)
(4.33777e-05 -0.000148831 0)
(7.30126e-05 -0.000153832 0)
(0.000103518 -0.000156108 0)
(0.000134528 -0.000155639 0)
(0.000165356 -0.000152292 0)
(0.000195571 -0.000146095 0)
(0.000224491 -0.000137192 0)
(0.000251452 -0.000125437 0)
(0.00027609 -0.000111229 0)
(0.00029781 -9.44515e-05 0)
(0.000315927 -7.57082e-05 0)
(0.000330119 -5.48633e-05 0)
(0.000339781 -3.26887e-05 0)
(0.000344634 -9.21924e-06 0)
(0.000344192 1.48282e-05 0)
(0.000337886 3.93018e-05 0)
(0.000325961 6.34175e-05 0)
(0.000308612 8.69542e-05 0)
(0.000285863 0.000109185 0)
(0.000257922 0.000129757 0)
(0.000225222 0.000148054 0)
(0.000188275 0.000163663 0)
(0.000147632 0.000176106 0)
(0.000104079 0.000184956 0)
(5.84391e-05 0.000189953 0)
(1.16434e-05 0.000190803 0)
(-3.52305e-05 0.000187374 0)
(-8.11165e-05 0.000179636 0)
(-0.00012488 0.000167625 0)
(-0.000165412 0.000151546 0)
(-0.00020162 0.000131686 0)
(-0.0002325 0.000108499 0)
(-0.000257108 8.24405e-05 0)
(-0.000274596 5.42579e-05 0)
(-0.000284448 2.45298e-05 0)
(-0.000285944 -5.70188e-06 0)
(-0.000278678 -3.56815e-05 0)
(-0.000263106 -6.45444e-05 0)
(-0.000239418 -9.13833e-05 0)
(-0.000208359 -0.000115395 0)
(-0.000170732 -0.000135644 0)
(-0.00012738 -0.000151411 0)
(-7.98642e-05 -0.000162126 0)
(-2.96106e-05 -0.000167268 0)
(2.16882e-05 -0.000166514 0)
(7.21206e-05 -0.000159894 0)
(0.000119863 -0.00014758 0)
(0.000163123 -0.000129854 0)
(0.000200267 -0.000107338 0)
(0.00022978 -8.09139e-05 0)
(0.000250286 -5.14932e-05 0)
(0.00026088 -2.02704e-05 0)
(0.000260871 1.14008e-05 0)
(0.000250013 4.22312e-05 0)
(0.000228817 7.08823e-05 0)
(0.000198264 9.61163e-05 0)
(0.000159615 0.000116669 0)
(0.000114505 0.000131604 0)
(6.5069e-05 0.000139972 0)
(1.356e-05 0.000141557 0)
(-3.74245e-05 0.000135985 0)
(-8.51283e-05 0.000123764 0)
(-0.00012731 0.000105345 0)
(-0.000161686 8.18528e-05 0)
(-0.00018641 5.45023e-05 0)
(-0.000200197 2.48345e-05 0)
(-0.000202064 -5.23189e-06 0)
(-0.000191927 -3.42078e-05 0)
(-0.000170668 -6.0017e-05 0)
(-0.000139887 -8.13965e-05 0)
(-0.000101512 -9.66306e-05 0)
(-5.80781e-05 -0.000105004 0)
(-1.24547e-05 -0.000105618 0)
(3.1861e-05 -9.86431e-05 0)
(7.14053e-05 -8.45685e-05 0)
(0.000103543 -6.4424e-05 0)
(0.000125767 -3.97747e-05 0)
(0.000136406 -1.24295e-05 0)
(0.000134387 1.53886e-05 0)
(0.000119712 4.15675e-05 0)
(9.38127e-05 6.40395e-05 0)
(5.88077e-05 8.09049e-05 0)
(1.67671e-05 9.07339e-05 0)
(-2.83635e-05 9.28185e-05 0)
(-7.18666e-05 8.65842e-05 0)
(-0.000110508 7.30905e-05 0)
(-0.000140901 5.33257e-05 0)
(-0.000160448 2.93458e-05 0)
(-0.000167376 3.31107e-06 0)
(-0.00016102 -2.20618e-05 0)
(-0.000142029 -4.46549e-05 0)
(-0.000112638 -6.2203e-05 0)
(-7.59665e-05 -7.31653e-05 0)
(-3.55542e-05 -7.65555e-05 0)
(4.55941e-06 -7.21205e-05 0)
(4.01082e-05 -6.08201e-05 0)
(6.75513e-05 -4.42172e-05 0)
(8.47606e-05 -2.43821e-05 0)
(9.04366e-05 -3.86845e-06 0)
(8.48263e-05 1.47276e-05 0)
(6.96549e-05 2.94265e-05 0)
(4.77471e-05 3.8584e-05 0)
(2.26884e-05 4.13444e-05 0)
(-1.83126e-06 3.77636e-05 0)
(-2.20867e-05 2.88938e-05 0)
(-3.51988e-05 1.65512e-05 0)
(-3.99644e-05 2.94076e-06 0)
(-3.63138e-05 -9.53757e-06 0)
(-2.55473e-05 -1.90702e-05 0)
(-1.01308e-05 -2.41749e-05 0)
(7.22001e-06 -2.41403e-05 0)
(2.2437e-05 -1.93439e-05 0)
(3.24941e-05 -1.10394e-05 0)
(3.60528e-05 -1.02098e-06 0)
(3.25395e-05 8.66121e-06 0)
(2.2928e-05 1.61487e-05 0)
(9.38438e-06 2.01804e-05 0)
(-5.65399e-06 1.98838e-05 0)
(-1.89997e-05 1.54197e-05 0)
(-2.74049e-05 7.8627e-06 0)
(-2.96481e-05 -1.26159e-06 0)
(-2.50054e-05 -1.00414e-05 0)
(-1.44689e-05 -1.69447e-05 0)
(6.89257e-08 -2.04466e-05 0)
(1.59488e-05 -1.99182e-05 0)
(2.97472e-05 -1.54919e-05 0)
(3.89336e-05 -7.95478e-06 0)
(4.15663e-05 1.29206e-06 0)
(3.68422e-05 1.05232e-05 0)
(2.53784e-05 1.79614e-05 0)
(9.06061e-06 2.21475e-05 0)
(4.5853e-07 -0.000522653 0)
(1.73497e-06 -0.000539688 0)
(3.33519e-06 -0.000542463 0)
(5.48567e-06 -0.000546157 0)
(8.37668e-06 -0.000550826 0)
(1.21879e-05 -0.000556333 0)
(1.71743e-05 -0.000562332 0)
(2.33563e-05 -0.000568562 0)
(3.11179e-05 -0.000574561 0)
(4.01094e-05 -0.000580149 0)
(5.09078e-05 -0.000584855 0)
(6.33647e-05 -0.000588464 0)
(7.7518e-05 -0.000590604 0)
(9.32716e-05 -0.000590904 0)
(0.000110582 -0.00058908 0)
(0.000129394 -0.000584763 0)
(0.000149391 -0.000577671 0)
(0.000170829 -0.000567537 0)
(0.000193327 -0.000554141 0)
(0.000216694 -0.000537299 0)
(0.000240338 -0.000516949 0)
(0.000264 -0.000493 0)
(0.000287204 -0.000465392 0)
(0.000309671 -0.000434315 0)
(0.000330821 -0.000399789 0)
(0.0003499 -0.000362235 0)
(0.000366372 -0.000321752 0)
(0.000380082 -0.000278938 0)
(0.000390151 -0.000234047 0)
(0.000395853 -0.000187721 0)
(0.000398014 -0.000140293 0)
(0.000397262 -9.26412e-05 0)
(0.000393565 -4.53836e-05 0)
(0.00038677 7.3965e-07 0)
(0.000375584 4.51094e-05 0)
(0.000360385 8.71657e-05 0)
(0.000341771 0.000126768 0)
(0.000319183 0.000163346 0)
(0.000293115 0.000196608 0)
(0.000263837 0.000226171 0)
(0.00023194 0.000251699 0)
(0.000197661 0.000273027 0)
(0.000161674 0.000289925 0)
(0.000124634 0.000302288 0)
(8.67915e-05 0.000310079 0)
(4.87598e-05 0.000313259 0)
(1.10595e-05 0.000311926 0)
(-2.59706e-05 0.000306175 0)
(-6.16827e-05 0.000296175 0)
(-9.55768e-05 0.000282123 0)
(-0.000127225 0.000264268 0)
(-0.000156755 0.00024287 0)
(-0.000182973 0.000218245 0)
(-0.000205913 0.000190716 0)
(-0.000225095 0.0001607 0)
(-0.000240523 0.000128545 0)
(-0.000251852 9.47511e-05 0)
(-0.000258692 5.97193e-05 0)
(-0.0002609 2.41172e-05 0)
(-0.000258309 -1.18171e-05 0)
(-0.000250657 -4.7538e-05 0)
(-0.000238014 -8.27002e-05 0)
(-0.00022131 -0.000116628 0)
(-0.000199905 -0.000148958 0)
(-0.000174363 -0.000179024 0)
(-0.000144682 -0.000206424 0)
(-0.000111522 -0.000230661 0)
(-7.47747e-05 -0.000251365 0)
(-3.51128e-05 -0.000268169 0)
(6.94899e-06 -0.000280712 0)
(5.08397e-05 -0.000288699 0)
(9.55479e-05 -0.00029188 0)
(0.000140807 -0.000290104 0)
(0.000185695 -0.00028327 0)
(0.000229156 -0.000271363 0)
(0.000270953 -0.00025444 0)
(0.000310063 -0.000232683 0)
(0.000345696 -0.000206239 0)
(0.000377 -0.000175587 0)
(0.000403547 -0.000141066 0)
(0.000424219 -0.000103238 0)
(0.000438815 -6.26963e-05 0)
(0.000446683 -2.01233e-05 0)
(0.00044719 2.36409e-05 0)
(0.000439966 6.78003e-05 0)
(0.000424954 0.00011155 0)
(0.000402616 0.000153959 0)
(0.000372671 0.000194115 0)
(0.000335862 0.00023114 0)
(0.000292401 0.000264009 0)
(0.000243115 0.00029194 0)
(0.000188714 0.000314125 0)
(0.000130371 0.000329832 0)
(6.92868e-05 0.000338645 0)
(6.56489e-06 0.00033999 0)
(-5.62013e-05 0.00033361 0)
(-0.000117535 0.000319473 0)
(-0.000175983 0.000297727 0)
(-0.000229926 0.000268698 0)
(-0.000277966 0.000232916 0)
(-0.000318774 0.000191147 0)
(-0.00035096 0.000144395 0)
(-0.000373691 9.38309e-05 0)
(-0.000385835 4.07913e-05 0)
(-0.000386481 -1.33373e-05 0)
(-0.000375867 -6.69133e-05 0)
(-0.000353942 -0.000118467 0)
(-0.000321288 -0.000166215 0)
(-0.000278688 -0.000208747 0)
(-0.000227083 -0.000244529 0)
(-0.000168364 -0.000272175 0)
(-0.000103984 -0.000290636 0)
(-3.60078e-05 -0.000299179 0)
(3.30598e-05 -0.000297165 0)
(0.00010061 -0.000284764 0)
(0.00016432 -0.000261962 0)
(0.000221881 -0.000229756 0)
(0.000270706 -0.000188969 0)
(0.000309143 -0.000141219 0)
(0.000335414 -8.83223e-05 0)
(0.000348192 -3.24254e-05 0)
(0.000346593 2.41054e-05 0)
(0.000330481 7.90667e-05 0)
(0.000300806 0.000129958 0)
(0.000258631 0.000174457 0)
(0.000205759 0.00021048 0)
(0.000144311 0.000236352 0)
(7.74251e-05 0.000250501 0)
(8.13167e-06 0.000252379 0)
(-6.00321e-05 0.000241569 0)
(-0.000123336 0.000218874 0)
(-0.000178812 0.00018513 0)
(-0.000223281 0.000142562 0)
(-0.000254621 9.31101e-05 0)
(-0.000270731 3.99356e-05 0)
(-0.000270935 -1.41385e-05 0)
(-0.000254957 -6.55327e-05 0)
(-0.000224268 -0.000111537 0)
(-0.000180889 -0.000149017 0)
(-0.000127517 -0.000175685 0)
(-6.77324e-05 -0.000189631 0)
(-5.21629e-06 -0.00019 0)
(5.47659e-05 -0.000176621 0)
(0.000108017 -0.00015061 0)
(0.00015078 -0.00011397 0)
(0.000179882 -6.93406e-05 0)
(0.000193163 -2.01607e-05 0)
(0.000189244 2.96692e-05 0)
(0.000168471 7.62394e-05 0)
(0.000132684 0.000115999 0)
(8.47755e-05 0.000145452 0)
(2.81361e-05 0.000162366 0)
(-3.25609e-05 0.000165318 0)
(-9.07953e-05 0.000153633 0)
(-0.000141779 0.000128764 0)
(-0.000181494 9.31617e-05 0)
(-0.000206255 5.01462e-05 0)
(-0.000213795 3.74102e-06 0)
(-0.000203717 -4.13421e-05 0)
(-0.000177264 -8.10488e-05 0)
(-0.0001373 -0.000111674 0)
(-8.80593e-05 -0.000130215 0)
(-3.4382e-05 -0.000135231 0)
(1.8058e-05 -0.000126261 0)
(6.35404e-05 -0.000105325 0)
(9.76868e-05 -7.51005e-05 0)
(0.000117646 -3.95165e-05 0)
(0.000121861 -2.97128e-06 0)
(0.000111174 2.99376e-05 0)
(8.8184e-05 5.55436e-05 0)
(5.6777e-05 7.09267e-05 0)
(2.17967e-05 7.49118e-05 0)
(-1.15695e-05 6.72564e-05 0)
(-3.82249e-05 5.05536e-05 0)
(-5.46219e-05 2.78803e-05 0)
(-5.91808e-05 3.16154e-06 0)
(-5.22662e-05 -1.92473e-05 0)
(-3.59675e-05 -3.60559e-05 0)
(-1.35948e-05 -4.47332e-05 0)
(1.07413e-05 -4.39452e-05 0)
(3.16395e-05 -3.48146e-05 0)
(4.51489e-05 -1.94603e-05 0)
(4.94584e-05 -1.23387e-06 0)
(4.40485e-05 1.62254e-05 0)
(3.05298e-05 2.95903e-05 0)
(1.17881e-05 3.65696e-05 0)
(-8.77012e-06 3.5729e-05 0)
(-2.67041e-05 2.75508e-05 0)
(-3.79388e-05 1.39629e-05 0)
(-4.08044e-05 -2.28391e-06 0)
(-3.46528e-05 -1.7853e-05 0)
(-2.07903e-05 -2.9941e-05 0)
(-1.71591e-06 -3.60007e-05 0)
(1.88859e-05 -3.50119e-05 0)
(3.67498e-05 -2.71779e-05 0)
(4.86389e-05 -1.3991e-05 0)
(5.21199e-05 2.12604e-06 0)
(4.62506e-05 1.81392e-05 0)
(3.18667e-05 3.10588e-05 0)
(1.13816e-05 3.8281e-05 0)
(-4.03783e-06 0.000101001 0)
(-1.00575e-05 0.000102328 0)
(-1.48742e-05 9.5641e-05 0)
(-1.73556e-05 8.53862e-05 0)
(-1.68604e-05 7.19864e-05 0)
(-1.24071e-05 5.53621e-05 0)
(-3.17795e-06 3.64297e-05 0)
(1.16748e-05 1.45473e-05 0)
(3.15836e-05 -9.01666e-06 0)
(5.63823e-05 -3.48221e-05 0)
(8.64074e-05 -6.16918e-05 0)
(0.000120792 -8.94028e-05 0)
(0.000160311 -0.000116702 0)
(0.00020423 -0.000143153 0)
(0.000252246 -0.000167526 0)
(0.000304089 -0.0001891 0)
(0.000358806 -0.000206997 0)
(0.000415788 -0.000220101 0)
(0.000474282 -0.000227791 0)
(0.000533025 -0.000229733 0)
(0.000591338 -0.000225352 0)
(0.000648906 -0.00021432 0)
(0.000703831 -0.000196456 0)
(0.000755482 -0.000172019 0)
(0.000802317 -0.000140893 0)
(0.000843794 -0.000103948 0)
(0.000878864 -6.12687e-05 0)
(0.000906538 -1.41748e-05 0)
(0.000926493 3.70525e-05 0)
(0.00093846 9.07497e-05 0)
(0.00094096 0.000146087 0)
(0.000932133 0.000201882 0)
(0.000912735 0.000257077 0)
(0.00088345 0.000310711 0)
(0.000845593 0.000361882 0)
(0.000801531 0.000409758 0)
(0.000752053 0.000453434 0)
(0.000696783 0.000492202 0)
(0.000637024 0.00052557 0)
(0.000572965 0.00055321 0)
(0.000505698 0.00057483 0)
(0.000436185 0.000590211 0)
(0.000364949 0.000599314 0)
(0.000293057 0.000601979 0)
(0.000221164 0.000598372 0)
(0.000150182 0.000588503 0)
(8.10002e-05 0.000572539 0)
(1.41603e-05 0.000550687 0)
(-4.94658e-05 0.000523239 0)
(-0.000109388 0.000490464 0)
(-0.000164949 0.000452735 0)
(-0.000215768 0.000410487 0)
(-0.000261326 0.000364217 0)
(-0.000300931 0.000314407 0)
(-0.000334332 0.000261568 0)
(-0.000361251 0.000206333 0)
(-0.000381139 0.000149334 0)
(-0.00039361 9.0996e-05 0)
(-0.000398818 3.22586e-05 0)
(-0.000397456 -2.63999e-05 0)
(-0.000389341 -8.40264e-05 0)
(-0.000373844 -0.000140174 0)
(-0.000351418 -0.000193947 0)
(-0.000321986 -0.000244745 0)
(-0.000286012 -0.000291766 0)
(-0.000244027 -0.000334406 0)
(-0.000196675 -0.000371966 0)
(-0.000144476 -0.000403732 0)
(-8.79838e-05 -0.000429371 0)
(-2.8135e-05 -0.000448179 0)
(3.41483e-05 -0.000459905 0)
(9.78625e-05 -0.000464093 0)
(0.000162164 -0.000460515 0)
(0.000225894 -0.000449132 0)
(0.000288064 -0.000429874 0)
(0.00034747 -0.000402804 0)
(0.000403148 -0.000368287 0)
(0.000453868 -0.00032661 0)
(0.000498523 -0.000278378 0)
(0.000536299 -0.000224249 0)
(0.00056613 -0.000165256 0)
(0.000587263 -0.000101966 0)
(0.000598829 -3.58207e-05 0)
(0.000600136 3.22686e-05 0)
(0.000590877 0.000100759 0)
(0.00057107 0.000168761 0)
(0.000540845 0.000234414 0)
(0.000500466 0.000296536 0)
(0.000450062 0.000353702 0)
(0.000390462 0.000404306 0)
(0.000322924 0.000447402 0)
(0.000248289 0.000481347 0)
(0.000168475 0.000505382 0)
(8.48311e-05 0.000518562 0)
(-1.23349e-06 0.00052026 0)
(-8.72168e-05 0.000510087 0)
(-0.000171028 0.000487941 0)
(-0.000250677 0.000454062 0)
(-0.000324136 0.000408927 0)
(-0.000389373 0.000353486 0)
(-0.000444385 0.00028888 0)
(-0.00048739 0.000216785 0)
(-0.000516992 0.00013875 0)
(-0.000532314 5.72238e-05 0)
(-0.000532178 -2.59607e-05 0)
(-0.000516314 -0.00010811 0)
(-0.000485027 -0.000186887 0)
(-0.000438906 -0.000259857 0)
(-0.000379465 -0.000324467 0)
(-0.000307765 -0.000378501 0)
(-0.000225956 -0.000420072 0)
(-0.000137059 -0.000447446 0)
(-4.34926e-05 -0.000459516 0)
(5.1113e-05 -0.000455336 0)
(0.000143526 -0.000435173 0)
(0.000230306 -0.000399109 0)
(0.000308098 -0.000348602 0)
(0.000374155 -0.00028524 0)
(0.00042525 -0.000211443 0)
(0.000459206 -0.000129943 0)
(0.00047436 -4.38974e-05 0)
(0.000470189 4.29381e-05 0)
(0.000446484 0.000127004 0)
(0.000403884 0.000204521 0)
(0.000344407 0.000272159 0)
(0.000270722 0.00032623 0)
(0.000185592 0.000364499 0)
(9.33281e-05 0.000384899 0)
(-1.71163e-06 0.00038617 0)
(-9.45903e-05 0.000368082 0)
(-0.000180447 0.000331837 0)
(-0.000254802 0.00027891 0)
(-0.000313702 0.000212559 0)
(-0.000354064 0.000135842 0)
(-0.000373411 5.39171e-05 0)
(-0.000370511 -2.91128e-05 0)
(-0.000345749 -0.000107911 0)
(-0.000301056 -0.000177901 0)
(-0.000238994 -0.000234583 0)
(-0.000163635 -0.000274102 0)
(-7.98795e-05 -0.000294215 0)
(6.71347e-06 -0.000293411 0)
(8.96446e-05 -0.000271389 0)
(0.000162416 -0.000230136 0)
(0.00022033 -0.00017274 0)
(0.000259082 -0.00010342 0)
(0.000275562 -2.76344e-05 0)
(0.000268377 4.89374e-05 0)
(0.000238375 0.000120292 0)
(0.000187915 0.000180585 0)
(0.000121188 0.000224972 0)
(4.32854e-05 0.000249649 0)
(-3.96671e-05 0.000253037 0)
(-0.000119122 0.000233772 0)
(-0.000187891 0.000194654 0)
(-0.000240442 0.000139382 0)
(-0.000272413 7.30443e-05 0)
(-0.000280653 2.19214e-06 0)
(-0.000264845 -6.6577e-05 0)
(-0.000227217 -0.000126565 0)
(-0.00017158 -0.000172143 0)
(-0.000103983 -0.000198953 0)
(-3.11115e-05 -0.000204914 0)
(3.89442e-05 -0.000189502 0)
(9.83986e-05 -0.000155981 0)
(0.000141747 -0.000108715 0)
(0.000165203 -5.36637e-05 0)
(0.00016705 2.05645e-06 0)
(0.000148677 5.19659e-05 0)
(0.000113928 8.99341e-05 0)
(6.85069e-05 0.000112071 0)
(1.89688e-05 0.000116334 0)
(-2.70571e-05 0.000102865 0)
(-6.251e-05 7.57467e-05 0)
(-8.33453e-05 3.98392e-05 0)
(-8.73308e-05 1.41508e-06 0)
(-7.53137e-05 -3.32236e-05 0)
(-5.06439e-05 -5.86182e-05 0)
(-1.78793e-05 -7.11697e-05 0)
(1.66511e-05 -6.87704e-05 0)
(4.55964e-05 -5.37661e-05 0)
(6.39419e-05 -2.93983e-05 0)
(6.91211e-05 -9.06167e-07 0)
(6.07988e-05 2.61412e-05 0)
(4.13936e-05 4.65627e-05 0)
(1.49363e-05 5.69453e-05 0)
(-1.35834e-05 5.50227e-05 0)
(-3.80055e-05 4.21859e-05 0)
(-5.31896e-05 2.11941e-05 0)
(-5.68519e-05 -3.61476e-06 0)
(-4.8402e-05 -2.72539e-05 0)
(-2.96685e-05 -4.53266e-05 0)
(-4.15842e-06 -5.43819e-05 0)
(2.31177e-05 -5.26249e-05 0)
(4.66897e-05 -4.07983e-05 0)
(6.23068e-05 -2.10191e-05 0)
(6.69171e-05 2.98674e-06 0)
(5.94221e-05 2.67727e-05 0)
(4.09333e-05 4.58659e-05 0)
(1.45979e-05 5.65572e-05 0)
(-2.23912e-05 -0.000351335 0)
(-6.50433e-05 -0.000387452 0)
(-0.000106368 -0.000412207 0)
(-0.000144394 -0.000448563 0)
(-0.000178154 -0.000495109 0)
(-0.000204244 -0.000552958 0)
(-0.000225036 -0.000616331 0)
(-0.000239493 -0.000688193 0)
(-0.000248607 -0.000757071 0)
(-0.000251934 -0.00082572 0)
(-0.000245125 -0.000888844 0)
(-0.000228137 -0.000948889 0)
(-0.000200232 -0.00100304 0)
(-0.000162012 -0.00105146 0)
(-0.000112049 -0.0010919 0)
(-5.26014e-05 -0.00112405 0)
(1.80541e-05 -0.00114597 0)
(9.83013e-05 -0.00115654 0)
(0.000183097 -0.001155 0)
(0.000272317 -0.0011407 0)
(0.000365108 -0.00111178 0)
(0.000458839 -0.00106823 0)
(0.000549976 -0.00100859 0)
(0.000637915 -0.000935237 0)
(0.000719063 -0.000845833 0)
(0.000791899 -0.000745759 0)
(0.000853801 -0.000630627 0)
(0.00090392 -0.000510702 0)
(0.000939936 -0.000378412 0)
(0.00095938 -0.000247012 0)
(0.0009651 -0.00011208 0)
(0.000957003 1.89455e-05 0)
(0.000936392 0.000146693 0)
(0.000904385 0.000267936 0)
(0.000860678 0.000381366 0)
(0.000805955 0.000485355 0)
(0.000741373 0.00057859 0)
(0.000668228 0.000660224 0)
(0.000588864 0.000729682 0)
(0.000504533 0.000786634 0)
(0.000416475 0.000831079 0)
(0.000326129 0.00086302 0)
(0.000234437 0.000882943 0)
(0.000142901 0.000890917 0)
(5.24969e-05 0.000887727 0)
(-3.61709e-05 0.000873731 0)
(-0.000121846 0.000849713 0)
(-0.000203751 0.000816063 0)
(-0.000281063 0.000773603 0)
(-0.000353084 0.000723052 0)
(-0.000418872 0.000665084 0)
(-0.000478117 0.000600452 0)
(-0.000529727 0.000530045 0)
(-0.000573693 0.000454741 0)
(-0.000609189 0.000375237 0)
(-0.000635923 0.000292463 0)
(-0.000654387 0.000207563 0)
(-0.000663295 0.000121333 0)
(-0.000662493 3.47976e-05 0)
(-0.000652042 -5.13697e-05 0)
(-0.000631959 -0.00013586 0)
(-0.000602619 -0.000217722 0)
(-0.000564501 -0.000295935 0)
(-0.00051753 -0.000369338 0)
(-0.000462319 -0.000437144 0)
(-0.000399411 -0.000498254 0)
(-0.000329257 -0.000551881 0)
(-0.000253055 -0.00059706 0)
(-0.000171604 -0.000633157 0)
(-8.57708e-05 -0.00065938 0)
(3.05876e-06 -0.000675213 0)
(9.37447e-05 -0.000680233 0)
(0.000184725 -0.000674116 0)
(0.000274606 -0.000656689 0)
(0.000362083 -0.000627969 0)
(0.000445647 -0.000588148 0)
(0.00052372 -0.000537649 0)
(0.000594919 -0.00047698 0)
(0.000657523 -0.000407066 0)
(0.00071005 -0.000328648 0)
(0.000751753 -0.000243123 0)
(0.00078155 -0.000151864 0)
(0.000798075 -5.63014e-05 0)
(0.000800636 4.15745e-05 0)
(0.000789092 0.000140202 0)
(0.000762897 0.000237644 0)
(0.00072202 0.000332052 0)
(0.000667484 0.00042095 0)
(0.000599158 0.000502666 0)
(0.000518672 0.00057491 0)
(0.000427034 0.000636099 0)
(0.000325563 0.000684397 0)
(0.000217234 0.000718362 0)
(0.000103664 0.000736569 0)
(-1.26981e-05 0.000738489 0)
(-0.000128978 0.000723216 0)
(-0.000242286 0.000690959 0)
(-0.000349919 0.000641925 0)
(-0.000448792 0.000576964 0)
(-0.000536231 0.000497315 0)
(-0.000609537 0.000404842 0)
(-0.000666633 0.00030165 0)
(-0.000705361 0.000190337 0)
(-0.000724303 7.37712e-05 0)
(-0.000722385 -4.44066e-05 0)
(-0.000699132 -0.000161206 0)
(-0.00065532 -0.00027309 0)
(-0.000591439 -0.00037614 0)
(-0.000509088 -0.000467336 0)
(-0.000410712 -0.000542976 0)
(-0.000299354 -0.000601209 0)
(-0.000178244 -0.00063837 0)
(-5.10209e-05 -0.000654133 0)
(7.71962e-05 -0.000646616 0)
(0.000201925 -0.000616148 0)
(0.000318736 -0.000563516 0)
(0.000422786 -0.000490352 0)
(0.000510099 -0.000398928 0)
(0.00057718 -0.0002928 0)
(0.000621288 -0.000176115 0)
(0.0006398 -5.34485e-05 0)
(0.000631633 6.97433e-05 0)
(0.00059697 0.000189102 0)
(0.000537472 0.000298252 0)
(0.000454868 0.000393173 0)
(0.000353041 0.000468788 0)
(0.00023691 0.000521246 0)
(0.000111401 0.00054833 0)
(-1.74733e-05 0.000548023 0)
(-0.000142408 0.000520188 0)
(-0.000257179 0.000466366 0)
(-0.000355893 0.000389385 0)
(-0.000433307 0.000293256 0)
(-0.000484909 0.000183426 0)
(-0.000507506 6.60762e-05 0)
(-0.000500589 -5.1888e-05 0)
(-0.000463763 -0.000163772 0)
(-0.000400084 -0.00026244 0)
(-0.000312986 -0.000341568 0)
(-0.000208597 -0.000396235 0)
(-9.38845e-05 -0.000422674 0)
(2.46688e-05 -0.000419523 0)
(0.000137255 -0.000385967 0)
(0.000235342 -0.000325651 0)
(0.00031258 -0.000242281 0)
(0.000363133 -0.00014267 0)
(0.000383426 -3.39308e-05 0)
(0.000371901 7.50767e-05 0)
(0.00032923 0.000176018 0)
(0.00025912 0.000260825 0)
(0.000167335 0.000322451 0)
(6.14324e-05 0.000355775 0)
(-5.08309e-05 0.000358474 0)
(-0.000157843 0.000329451 0)
(-0.000249116 0.000272489 0)
(-0.000318279 0.000192814 0)
(-0.00035888 9.79561e-05 0)
(-0.00036741 -2.47567e-06 0)
(-0.000343813 -9.95202e-05 0)
(-0.000290897 -0.00018319 0)
(-0.000214426 -0.000245951 0)
(-0.000122716 -0.000281729 0)
(-2.48153e-05 -0.000287677 0)
(6.80546e-05 -0.000263567 0)
(0.000145321 -0.000213937 0)
(0.000200171 -0.000145332 0)
(0.000227408 -6.65729e-05 0)
(0.000225406 1.23977e-05 0)
(0.000196404 8.23057e-05 0)
(0.00014589 0.000134519 0)
(8.19496e-05 0.00016365 0)
(1.33769e-05 0.000167036 0)
(-4.89402e-05 0.000145636 0)
(-9.57061e-05 0.000104899 0)
(-0.00012172 5.22867e-05 0)
(-0.000124435 -3.1191e-06 0)
(-0.000105318 -5.24843e-05 0)
(-6.91796e-05 -8.79326e-05 0)
(-2.24798e-05 -0.000104528 0)
(2.54599e-05 -9.95382e-05 0)
(6.47293e-05 -7.67326e-05 0)
(8.91339e-05 -4.08872e-05 0)
(9.51858e-05 3.11781e-07 0)
(8.27216e-05 3.90412e-05 0)
(5.53757e-05 6.7879e-05 0)
(1.8597e-05 8.2036e-05 0)
(-2.03041e-05 7.84688e-05 0)
(-5.29518e-05 5.96957e-05 0)
(-7.31112e-05 2.96448e-05 0)
(-7.7616e-05 -5.44171e-06 0)
(-6.60113e-05 -3.86119e-05 0)
(-4.0976e-05 -6.36434e-05 0)
(-7.12747e-06 -7.59842e-05 0)
(2.86911e-05 -7.32621e-05 0)
(5.93864e-05 -5.66385e-05 0)
(7.96709e-05 -2.91668e-05 0)
(8.5626e-05 3.9468e-06 0)
(7.59893e-05 3.66113e-05 0)
(5.23078e-05 6.27361e-05 0)
(1.86628e-05 7.73382e-05 0)
(-7.25994e-05 0.000534969 0)
(-0.000212625 0.000503318 0)
(-0.000348254 0.000460022 0)
(-0.000469029 0.000395368 0)
(-0.00057926 0.000314997 0)
(-0.000659 0.000215764 0)
(-0.00072112 0.000116371 0)
(-0.000734161 -1.77176e-06 0)
(-0.00071136 -9.76557e-05 0)
(-0.00067595 -0.000217429 0)
(-0.00060802 -0.000345889 0)
(-0.00052744 -0.00048773 0)
(-0.00042691 -0.000628479 0)
(-0.000310367 -0.000765843 0)
(-0.000176904 -0.000892736 0)
(-2.90029e-05 -0.00100593 0)
(0.000135011 -0.00110077 0)
(0.000308784 -0.00117465 0)
(0.000493023 -0.00122393 0)
(0.000685941 -0.00124458 0)
(0.000878754 -0.00123501 0)
(0.00107395 -0.00119933 0)