/*--------------------------------*- C++ -*----------------------------------*\
  =========                 |
  \\      /  F ield         | OpenFOAM: The Open Source CFD Toolbox
   \\    /   O peration     | Website:  https://openfoam.org
    \\  /    A nd           | Version:  12
     \\/     M anipulation  |
\*---------------------------------------------------------------------------*/
FoamFile
{
    format      ascii;
    class       volVectorField;
    location    "6.44";
    object      U;
}
// * * * * * * * * * * * * * * * * * * * * * * * * * * * * * * * * * * * * * //

dimensions      [0 1 -1 0 0 0 0];

internalField   nonuniform List<vector> 
3829
(
(-5.84867e-06 2.54022e-05 0)
(-1.7692e-05 2.49823e-05 0)
(-2.96733e-05 2.51711e-05 0)
(-4.18399e-05 2.5461e-05 0)
(-5.4251e-05 2.58455e-05 0)
(-6.69218e-05 2.63229e-05 0)
(-7.98463e-05 2.68804e-05 0)
(-9.30667e-05 2.75139e-05 0)
(-0.000106571 2.82113e-05 0)
(-0.000120429 2.89503e-05 0)
(-0.000134648 2.97244e-05 0)
(-0.000149195 3.05208e-05 0)
(-0.00016407 3.13088e-05 0)
(-0.000179312 3.20659e-05 0)
(-0.000194889 3.27883e-05 0)
(-0.000210754 3.34369e-05 0)
(-0.000226909 3.4006e-05 0)
(-0.000243306 3.44616e-05 0)
(-0.000259897 3.47899e-05 0)
(-0.000276629 3.49717e-05 0)
(-0.000293437 3.49896e-05 0)
(-0.00031025 3.48281e-05 0)
(-0.000326992 3.44732e-05 0)
(-0.000343585 3.39141e-05 0)
(-0.000359986 3.31408e-05 0)
(-0.000376039 3.21528e-05 0)
(-0.000391574 3.09383e-05 0)
(-0.00040656 2.94843e-05 0)
(-0.000420973 2.77982e-05 0)
(-0.000434664 2.58853e-05 0)
(-0.000447582 2.37338e-05 0)
(-0.000459621 2.13666e-05 0)
(-0.000470636 1.87792e-05 0)
(-0.000480661 1.59994e-05 0)
(-0.000489555 1.30427e-05 0)
(-0.000497259 9.90465e-06 0)
(-0.000503765 6.65047e-06 0)
(-0.000508978 3.27351e-06 0)
(-0.000512848 -1.99941e-07 0)
(-0.000515354 -3.76443e-06 0)
(-0.000516475 -7.37882e-06 0)
(-0.000516037 -1.10348e-05 0)
(-0.000513932 -1.47112e-05 0)
(-0.000510139 -1.83982e-05 0)
(-0.000504685 -2.20849e-05 0)
(-0.000497618 -2.57445e-05 0)
(-0.000488937 -2.93549e-05 0)
(-0.000478677 -3.28897e-05 0)
(-0.000466865 -3.63209e-05 0)
(-0.000453542 -3.96199e-05 0)
(-0.000438782 -4.27625e-05 0)
(-0.000422601 -4.57016e-05 0)
(-0.000405067 -4.84348e-05 0)
(-0.000386282 -5.09058e-05 0)
(-0.000366412 -5.31164e-05 0)
(-0.000345334 -5.49986e-05 0)
(-0.000323401 -5.65901e-05 0)
(-0.000300614 -5.77935e-05 0)
(-0.00027719 -5.86583e-05 0)
(-0.000253354 -5.90888e-05 0)
(-0.000228937 -5.9125e-05 0)
(-0.000204401 -5.87426e-05 0)
(-0.000179814 -5.79383e-05 0)
(-0.000155497 -5.66912e-05 0)
(-0.000131377 -5.5014e-05 0)
(-0.000107901 -5.29749e-05 0)
(-8.52765e-05 -5.04899e-05 0)
(-6.35311e-05 -4.76468e-05 0)
(-4.29959e-05 -4.4424e-05 0)
(-2.37865e-05 -4.08895e-05 0)
(-6.22859e-06 -3.70683e-05 0)
(9.59312e-06 -3.29888e-05 0)
(2.37401e-05 -2.86591e-05 0)
(3.58969e-05 -2.42053e-05 0)
(4.58936e-05 -1.9602e-05 0)
(5.3792e-05 -1.49714e-05 0)
(5.94412e-05 -1.03415e-05 0)
(6.27716e-05 -5.7643e-06 0)
(6.39656e-05 -1.316e-06 0)
(6.28451e-05 2.89214e-06 0)
(5.94325e-05 6.86596e-06 0)
(5.41465e-05 1.051e-05 0)
(4.6906e-05 1.37835e-05 0)
(3.80578e-05 1.66329e-05 0)
(2.76919e-05 1.89958e-05 0)
(1.60104e-05 2.08652e-05 0)
(3.44387e-06 2.21893e-05 0)
(-9.80345e-06 2.29533e-05 0)
(-2.33689e-05 2.31579e-05 0)
(-3.69737e-05 2.27805e-05 0)
(-5.03075e-05 2.18609e-05 0)
(-6.29875e-05 2.04156e-05 0)
(-7.47362e-05 1.84744e-05 0)
(-8.52441e-05 1.61009e-05 0)
(-9.42394e-05 1.33487e-05 0)
(-0.00010147 1.02957e-05 0)
(-0.000106753 7.0082e-06 0)
(-0.000109966 3.59386e-06 0)
(-0.000110899 1.5362e-07 0)
(-0.000109465 -3.24226e-06 0)
(-0.000105748 -6.48561e-06 0)
(-9.99165e-05 -9.49644e-06 0)
(-9.21349e-05 -1.21824e-05 0)
(-8.25988e-05 -1.4473e-05 0)
(-7.15963e-05 -1.62902e-05 0)
(-5.94207e-05 -1.75747e-05 0)
(-4.64661e-05 -1.82989e-05 0)
(-3.31595e-05 -1.84313e-05 0)
(-1.98868e-05 -1.79704e-05 0)
(-7.06857e-06 -1.69268e-05 0)
(4.85548e-06 -1.53686e-05 0)
(1.54839e-05 -1.33348e-05 0)
(2.45256e-05 -1.09021e-05 0)
(3.16126e-05 -8.1865e-06 0)
(3.65688e-05 -5.25555e-06 0)
(3.92601e-05 -2.26493e-06 0)
(3.95184e-05 6.94384e-07 0)
(3.74016e-05 3.47378e-06 0)
(3.30468e-05 5.98945e-06 0)
(2.68191e-05 8.14126e-06 0)
(1.90073e-05 9.81384e-06 0)
(9.92444e-06 1.09566e-05 0)
(-5.14995e-10 1.15265e-05 0)
(-1.02038e-05 1.15009e-05 0)
(-2.00734e-05 1.08973e-05 0)
(-2.91943e-05 9.74598e-06 0)
(-3.71421e-05 8.12272e-06 0)
(-4.3488e-05 6.116e-06 0)
(-4.78971e-05 3.84743e-06 0)
(-5.01605e-05 1.42123e-06 0)
(-5.00827e-05 -1.00222e-06 0)
(-4.76746e-05 -3.31994e-06 0)
(-4.31261e-05 -5.39673e-06 0)
(-3.67582e-05 -7.13721e-06 0)
(-2.88791e-05 -8.42021e-06 0)
(-1.993e-05 -9.20918e-06 0)
(-1.04513e-05 -9.45011e-06 0)
(-9.0143e-07 -9.17004e-06 0)
(8.12204e-06 -8.36083e-06 0)
(1.60848e-05 -7.11885e-06 0)
(2.25889e-05 -5.48859e-06 0)
(2.73084e-05 -3.62456e-06 0)
(2.99395e-05 -1.59628e-06 0)
(3.0373e-05 4.37152e-07 0)
(2.85839e-05 2.374e-06 0)
(2.47109e-05 4.12338e-06 0)
(1.90774e-05 5.57032e-06 0)
(1.20138e-05 6.65013e-06 0)
(3.81754e-06 7.30864e-06 0)
(-4.95662e-06 7.54455e-06 0)
(-1.36942e-05 7.33132e-06 0)
(-2.19847e-05 6.72116e-06 0)
(-2.93861e-05 5.75223e-06 0)
(-3.55012e-05 4.50379e-06 0)
(-4.00114e-05 3.04685e-06 0)
(-4.2699e-05 1.48111e-06 0)
(-4.34187e-05 -1.08847e-07 0)
(-4.21439e-05 -1.63954e-06 0)
(-3.8992e-05 -3.04647e-06 0)
(-3.41449e-05 -4.2536e-06 0)
(-2.78569e-05 -5.21633e-06 0)
(-2.04539e-05 -5.89687e-06 0)
(-1.23008e-05 -6.27854e-06 0)
(-3.73872e-06 -6.36825e-06 0)
(4.81568e-06 -6.16601e-06 0)
(1.2965e-05 -5.71567e-06 0)
(2.04018e-05 -5.04546e-06 0)
(2.68265e-05 -4.20916e-06 0)
(3.20456e-05 -3.24583e-06 0)
(3.58777e-05 -2.22477e-06 0)
(3.82414e-05 -1.18308e-06 0)
(3.91347e-05 -1.75033e-07 0)
(3.8592e-05 7.58507e-07 0)
(3.67317e-05 1.58164e-06 0)
(3.37127e-05 2.27114e-06 0)
(2.97299e-05 2.80362e-06 0)
(2.50163e-05 3.17829e-06 0)
(1.98069e-05 3.38126e-06 0)
(1.43519e-05 3.43591e-06 0)
(8.88523e-06 3.34334e-06 0)
(3.62004e-06 3.13166e-06 0)
(-1.2509e-06 2.81715e-06 0)
(-5.58295e-06 2.42669e-06 0)
(-9.25993e-06 1.98862e-06 0)
(-1.22043e-05 1.5238e-06 0)
(-1.43775e-05 1.06687e-06 0)
(-1.57838e-05 6.23785e-07 0)
(-1.64792e-05 2.25715e-07 0)
(-1.65141e-05 -1.18569e-07 0)
(-1.59802e-05 -4.02679e-07 0)
(-1.50011e-05 -6.27235e-07 0)
(-1.36695e-05 -7.77466e-07 0)
(-1.21031e-05 -8.73327e-07 0)
(-1.04045e-05 -9.14055e-07 0)
(-8.65755e-06 -9.13786e-07 0)
(-6.92794e-06 -8.84288e-07 0)
(-5.26351e-06 -8.40838e-07 0)
(-3.68135e-06 -7.92802e-07 0)
(-2.17492e-06 -7.53821e-07 0)
(-7.19961e-07 -7.31104e-07 0)
(-5.01454e-06 0.000203838 0)
(-1.50667e-05 0.000204667 0)
(-2.53263e-05 0.000205179 0)
(-3.58315e-05 0.000205943 0)
(-4.66589e-05 0.000206942 0)
(-5.79077e-05 0.000208169 0)
(-6.95913e-05 0.000209583 0)
(-8.17382e-05 0.00021115 0)
(-9.44832e-05 0.000212833 0)
(-0.000107843 0.00021455 0)
(-0.000121735 0.00021627 0)
(-0.000136318 0.000217897 0)
(-0.000151657 0.000219355 0)
(-0.000167565 0.000220574 0)
(-0.000184131 0.000221484 0)
(-0.000201311 0.000221972 0)
(-0.000219057 0.000221978 0)
(-0.000237372 0.00022142 0)
(-0.000256086 0.000220244 0)
(-0.000275166 0.000218358 0)
(-0.000294508 0.000215734 0)
(-0.000314011 0.000212314 0)
(-0.00033356 0.000208067 0)
(-0.000353041 0.000202984 0)
(-0.000372338 0.000197013 0)
(-0.000391303 0.000190213 0)
(-0.000409852 0.000182583 0)
(-0.000427818 0.000174117 0)
(-0.000445055 0.000164881 0)
(-0.000461545 0.000154918 0)
(-0.000477123 0.000144302 0)
(-0.000491638 0.000133041 0)
(-0.000504921 0.000121225 0)
(-0.000516884 0.000108886 0)
(-0.000527596 9.60911e-05 0)
(-0.000536701 8.28734e-05 0)
(-0.000544212 6.92974e-05 0)
(-0.000550284 5.5412e-05 0)
(-0.000554798 4.12762e-05 0)
(-0.000557654 2.69664e-05 0)
(-0.000558821 1.25294e-05 0)
(-0.000558252 -1.93217e-06 0)
(-0.000555838 -1.6325e-05 0)
(-0.00055162 -3.05593e-05 0)
(-0.000545536 -4.45655e-05 0)
(-0.00053758 -5.82639e-05 0)
(-0.000527762 -7.15899e-05 0)
(-0.000516093 -8.44606e-05 0)
(-0.0005026 -9.68247e-05 0)
(-0.000487352 -0.00010858 0)
(-0.000470338 -0.000119671 0)
(-0.000451695 -0.00012999 0)
(-0.000431456 -0.000139492 0)
(-0.00040975 -0.000148105 0)
(-0.000386695 -0.00015573 0)
(-0.000362352 -0.000162235 0)
(-0.000336942 -0.000167764 0)
(-0.000310522 -0.000171976 0)
(-0.000283333 -0.000175069 0)
(-0.000255553 -0.000176741 0)
(-0.000227355 -0.000177184 0)
(-0.000198999 -0.000176241 0)
(-0.000170571 -0.000173971 0)
(-0.000142463 -0.000170319 0)
(-0.000114998 -0.000165331 0)
(-8.81894e-05 -0.000159012 0)
(-6.23264e-05 -0.000151441 0)
(-3.77029e-05 -0.000142679 0)
(-1.45483e-05 -0.000132783 0)
(6.82702e-06 -0.000121878 0)
(2.6273e-05 -0.000110026 0)
(4.37917e-05 -9.73605e-05 0)
(5.9057e-05 -8.40321e-05 0)
(7.18909e-05 -7.02229e-05 0)
(8.2169e-05 -5.60753e-05 0)
(8.97563e-05 -4.17745e-05 0)
(9.47869e-05 -2.75183e-05 0)
(9.70207e-05 -1.35289e-05 0)
(9.64405e-05 4.9924e-08 0)
(9.31881e-05 1.29322e-05 0)
(8.73586e-05 2.50473e-05 0)
(7.92143e-05 3.61454e-05 0)
(6.88415e-05 4.60528e-05 0)
(5.6519e-05 5.46373e-05 0)
(4.25103e-05 6.17039e-05 0)
(2.70649e-05 6.72024e-05 0)
(1.05921e-05 7.10111e-05 0)
(-6.52119e-06 7.30718e-05 0)
(-2.39379e-05 7.337e-05 0)
(-4.12503e-05 7.18916e-05 0)
(-5.80216e-05 6.87137e-05 0)
(-7.39103e-05 6.39051e-05 0)
(-8.84955e-05 5.7599e-05 0)
(-0.000101403 4.99611e-05 0)
(-0.000112332 4.11707e-05 0)
(-0.000121005 3.14782e-05 0)
(-0.000127166 2.1124e-05 0)
(-0.000130606 1.0385e-05 0)
(-0.000131246 -4.47143e-07 0)
(-0.000129 -1.10571e-05 0)
(-0.000123941 -2.117e-05 0)
(-0.000116298 -3.05253e-05 0)
(-0.000106283 -3.88418e-05 0)
(-9.41445e-05 -4.58492e-05 0)
(-8.02159e-05 -5.13605e-05 0)
(-6.49417e-05 -5.51948e-05 0)
(-4.87985e-05 -5.72459e-05 0)
(-3.22865e-05 -5.74515e-05 0)
(-1.59059e-05 -5.58173e-05 0)
(-2.573e-07 -5.24094e-05 0)
(1.41541e-05 -4.73621e-05 0)
(2.69159e-05 -4.08546e-05 0)
(3.7553e-05 -3.31464e-05 0)
(4.57386e-05 -2.45377e-05 0)
(5.12149e-05 -1.53561e-05 0)
(5.38068e-05 -5.98875e-06 0)
(5.33884e-05 3.2201e-06 0)
(5.00542e-05 1.18641e-05 0)
(4.40737e-05 1.96383e-05 0)
(3.5752e-05 2.62211e-05 0)
(2.55096e-05 3.13277e-05 0)
(1.38376e-05 3.47492e-05 0)
(1.23382e-06 3.63718e-05 0)
(-1.15992e-05 3.61193e-05 0)
(-2.39332e-05 3.40659e-05 0)
(-3.52309e-05 3.03224e-05 0)
(-4.49515e-05 2.51308e-05 0)
(-5.25822e-05 1.87687e-05 0)
(-5.77697e-05 1.1585e-05 0)
(-6.02431e-05 4.00287e-06 0)
(-5.98278e-05 -3.58125e-06 0)
(-5.6605e-05 -1.07614e-05 0)
(-5.07952e-05 -1.71775e-05 0)
(-4.27645e-05 -2.24718e-05 0)
(-3.29493e-05 -2.63583e-05 0)
(-2.19326e-05 -2.86882e-05 0)
(-1.03809e-05 -2.93257e-05 0)
(1.15834e-06 -2.82852e-05 0)
(1.19611e-05 -2.5694e-05 0)
(2.14007e-05 -2.17267e-05 0)
(2.8984e-05 -1.66608e-05 0)
(3.43506e-05 -1.08324e-05 0)
(3.72047e-05 -4.58384e-06 0)
(3.7394e-05 1.67092e-06 0)
(3.50286e-05 7.5963e-06 0)
(3.02356e-05 1.28886e-05 0)
(2.33954e-05 1.72503e-05 0)
(1.49517e-05 2.04486e-05 0)
(5.31308e-06 2.23621e-05 0)
(-4.91616e-06 2.29812e-05 0)
(-1.50344e-05 2.22439e-05 0)
(-2.45278e-05 2.02961e-05 0)
(-3.29176e-05 1.72976e-05 0)
(-3.97612e-05 1.34612e-05 0)
(-4.47172e-05 9.03463e-06 0)
(-4.75561e-05 4.28602e-06 0)
(-4.8167e-05 -5.0454e-07 0)
(-4.65626e-05 -5.10538e-06 0)
(-4.28795e-05 -9.28974e-06 0)
(-3.73351e-05 -1.28655e-05 0)
(-3.02457e-05 -1.56884e-05 0)
(-2.1981e-05 -1.76561e-05 0)
(-1.29716e-05 -1.87402e-05 0)
(-3.58263e-06 -1.89225e-05 0)
(5.71927e-06 -1.82733e-05 0)
(1.44999e-05 -1.68747e-05 0)
(2.24423e-05 -1.48457e-05 0)
(2.92364e-05 -1.23198e-05 0)
(3.46729e-05 -9.45484e-06 0)
(3.85774e-05 -6.40414e-06 0)
(4.08935e-05 -3.32267e-06 0)
(4.16181e-05 -3.48145e-07 0)
(4.08131e-05 2.39189e-06 0)
(3.86223e-05 4.80448e-06 0)
(3.52226e-05 6.80602e-06 0)
(3.0838e-05 8.34989e-06 0)
(2.5714e-05 9.40987e-06 0)
(2.01146e-05 9.9892e-06 0)
(1.43076e-05 1.01118e-05 0)
(8.53077e-06 9.81035e-06 0)
(3.01392e-06 9.1575e-06 0)
(-2.05375e-06 8.21378e-06 0)
(-6.51574e-06 7.04874e-06 0)
(-1.02647e-05 5.75021e-06 0)
(-1.32183e-05 4.38566e-06 0)
(-1.5356e-05 3.03321e-06 0)
(-1.66878e-05 1.74532e-06 0)
(-1.72676e-05 5.81037e-07 0)
(-1.71736e-05 -4.17788e-07 0)
(-1.65077e-05 -1.24861e-06 0)
(-1.53851e-05 -1.87465e-06 0)
(-1.39184e-05 -2.31068e-06 0)
(-1.22392e-05 -2.57115e-06 0)
(-1.04437e-05 -2.67702e-06 0)
(-8.62753e-06 -2.66285e-06 0)
(-6.85647e-06 -2.56508e-06 0)
(-5.17523e-06 -2.42365e-06 0)
(-3.59843e-06 -2.27452e-06 0)
(-2.11684e-06 -2.15342e-06 0)
(-6.98814e-07 -2.08497e-06 0)
(-3.69996e-06 0.000196108 0)
(-1.12004e-05 0.000196065 0)
(-1.89751e-05 0.000197825 0)
(-2.71955e-05 0.000200494 0)
(-3.59555e-05 0.00020403 0)
(-4.54472e-05 0.000208399 0)
(-5.58626e-05 0.000213537 0)
(-6.71834e-05 0.000219342 0)
(-7.97476e-05 0.000225712 0)
(-9.35659e-05 0.000232502 0)
(-0.000108692 0.000239582 0)
(-0.000125404 0.000246754 0)
(-0.000143496 0.00025389 0)
(-0.000162904 0.000260799 0)
(-0.000183856 0.000267286 0)
(-0.000206211 0.000273174 0)
(-0.00022972 0.000278232 0)
(-0.000254248 0.000282331 0)
(-0.00027978 0.000285286 0)
(-0.000306076 0.000286984 0)
(-0.000332814 0.000287262 0)
(-0.000359917 0.000286052 0)
(-0.000386984 0.000283234 0)
(-0.000414054 0.000278795 0)
(-0.000440654 0.00027265 0)
(-0.000466316 0.000264826 0)
(-0.000491283 0.000255334 0)
(-0.000515119 0.000244255 0)
(-0.000537504 0.000231577 0)
(-0.000558299 0.000217449 0)
(-0.000577653 0.000202 0)
(-0.000595383 0.000185204 0)
(-0.000611243 0.000167365 0)
(-0.000625395 0.000148482 0)
(-0.000637726 0.000128708 0)
(-0.0006482 0.00010826 0)
(-0.000656736 8.70991e-05 0)
(-0.00066332 6.5409e-05 0)
(-0.000667775 4.32607e-05 0)
(-0.000670161 2.07662e-05 0)
(-0.000670345 -1.96372e-06 0)
(-0.000667954 -2.47549e-05 0)
(-0.000662979 -4.75567e-05 0)
(-0.000655553 -7.0255e-05 0)
(-0.000645773 -9.27306e-05 0)
(-0.000633728 -0.00011485 0)
(-0.000619427 -0.000136485 0)
(-0.000602983 -0.000157468 0)
(-0.000584358 -0.0001777 0)
(-0.000563598 -0.00019697 0)
(-0.000540768 -0.000215205 0)
(-0.000515962 -0.000232211 0)
(-0.000489429 -0.000247842 0)
(-0.00046105 -0.000261975 0)
(-0.000430741 -0.000274427 0)
(-0.000399487 -0.000285096 0)
(-0.000366745 -0.000293842 0)
(-0.000332736 -0.000300498 0)
(-0.000297893 -0.000305034 0)
(-0.000262403 -0.000307409 0)
(-0.000226756 -0.000307479 0)
(-0.000190833 -0.000305219 0)
(-0.000155125 -0.000300543 0)
(-0.000119898 -0.000293579 0)
(-8.5366e-05 -0.000284242 0)
(-5.20395e-05 -0.000272608 0)
(-2.03403e-05 -0.000258788 0)
(9.79012e-06 -0.000242895 0)
(3.78197e-05 -0.000225014 0)
(6.36043e-05 -0.000205349 0)
(8.68257e-05 -0.000184066 0)
(0.000107142 -0.000161413 0)
(0.000124427 -0.000137673 0)
(0.000138426 -0.000113109 0)
(0.000149032 -8.8038e-05 0)
(0.000156141 -6.27619e-05 0)
(0.000159532 -3.76391e-05 0)
(0.000159352 -1.30113e-05 0)
(0.00015561 1.07068e-05 0)
(0.000148432 3.32334e-05 0)
(0.000138005 5.42493e-05 0)
(0.000124443 7.3418e-05 0)
(0.0001081 9.04059e-05 0)
(8.92758e-05 0.00010498 0)
(6.83604e-05 0.000116823 0)
(4.58169e-05 0.000125815 0)
(2.20647e-05 0.00013176 0)
(-2.33973e-06 0.000134589 0)
(-2.6902e-05 0.00013425 0)
(-5.10618e-05 0.0001308 0)
(-7.42631e-05 0.000124319 0)
(-9.59902e-05 0.000114978 0)
(-0.000115696 0.000103007 0)
(-0.000132966 8.86967e-05 0)
(-0.000147332 7.24247e-05 0)
(-0.000158413 5.46133e-05 0)
(-0.000165996 3.56998e-05 0)
(-0.000169862 1.6207e-05 0)
(-0.000169759 -3.3681e-06 0)
(-0.000165709 -2.24558e-05 0)
(-0.000157993 -4.05812e-05 0)
(-0.000146806 -5.72136e-05 0)
(-0.000132345 -7.18745e-05 0)
(-0.00011509 -8.41188e-05 0)
(-9.55916e-05 -9.35945e-05 0)
(-7.43867e-05 -0.000100022 0)
(-5.21828e-05 -0.00010321 0)
(-2.96917e-05 -0.000103065 0)
(-7.6154e-06 -9.96086e-05 0)
(1.33141e-05 -9.29979e-05 0)
(3.24114e-05 -8.34633e-05 0)
(4.90179e-05 -7.13786e-05 0)
(6.25853e-05 -5.72043e-05 0)
(7.26493e-05 -4.14896e-05 0)
(7.88797e-05 -2.48438e-05 0)
(8.11518e-05 -7.92953e-06 0)
(7.93242e-05 8.59184e-06 0)
(7.35992e-05 2.40346e-05 0)
(6.43529e-05 3.78107e-05 0)
(5.2026e-05 4.93273e-05 0)
(3.71989e-05 5.8118e-05 0)
(2.05827e-05 6.38557e-05 0)
(2.89746e-06 6.63172e-05 0)
(-1.48959e-05 6.54157e-05 0)
(-3.18088e-05 6.12821e-05 0)
(-4.71049e-05 5.41602e-05 0)
(-6.00528e-05 4.449e-05 0)
(-7.00512e-05 3.27963e-05 0)
(-7.65325e-05 1.97281e-05 0)
(-7.92441e-05 6.02157e-06 0)
(-7.80802e-05 -7.56495e-06 0)
(-7.31719e-05 -2.0356e-05 0)
(-6.4846e-05 -3.16487e-05 0)
(-5.36026e-05 -4.0839e-05 0)
(-4.01644e-05 -4.7493e-05 0)
(-2.52735e-05 -5.12918e-05 0)
(-9.77468e-06 -5.20766e-05 0)
(5.41672e-06 -4.98778e-05 0)
(1.94323e-05 -4.49784e-05 0)
(3.15011e-05 -3.7701e-05 0)
(4.09797e-05 -2.85634e-05 0)
(4.74684e-05 -1.81497e-05 0)
(5.05805e-05 -7.15432e-06 0)
(5.02558e-05 3.80948e-06 0)
(4.66944e-05 1.41148e-05 0)
(4.01247e-05 2.31726e-05 0)
(3.10171e-05 3.05447e-05 0)
(2.00044e-05 3.58571e-05 0)
(7.74218e-06 3.89005e-05 0)
(-5.11441e-06 3.96504e-05 0)
(-1.77168e-05 3.81374e-05 0)
(-2.93302e-05 3.4561e-05 0)
(-3.94307e-05 2.92302e-05 0)
(-4.75122e-05 2.25249e-05 0)
(-5.32009e-05 1.48906e-05 0)
(-5.6259e-05 6.77575e-06 0)
(-5.66188e-05 -1.35273e-06 0)
(-5.43545e-05 -9.09776e-06 0)
(-4.9659e-05 -1.60628e-05 0)
(-4.28435e-05 -2.19584e-05 0)
(-3.42997e-05 -2.65367e-05 0)
(-2.45159e-05 -2.96734e-05 0)
(-1.39756e-05 -3.12983e-05 0)
(-3.14608e-06 -3.14279e-05 0)
(7.42962e-06 -3.01942e-05 0)
(1.72985e-05 -2.77213e-05 0)
(2.60991e-05 -2.4238e-05 0)
(3.34962e-05 -1.99541e-05 0)
(3.92832e-05 -1.51572e-05 0)
(4.32955e-05 -1.00836e-05 0)
(4.54855e-05 -4.99829e-06 0)
(4.58935e-05 -1.22568e-07 0)
(4.46175e-05 4.34217e-06 0)
(4.1836e-05 8.24178e-06 0)
(3.7767e-05 1.14502e-05 0)
(3.26753e-05 1.38909e-05 0)
(2.68511e-05 1.55371e-05 0)
(2.0586e-05 1.63981e-05 0)
(1.4162e-05 1.65022e-05 0)
(7.86086e-06 1.59373e-05 0)
(1.92234e-06 1.47977e-05 0)
(-3.46948e-06 1.32008e-05 0)
(-8.14626e-06 1.12615e-05 0)
(-1.20002e-05 9.11939e-06 0)
(-1.49682e-05 6.88621e-06 0)
(-1.70331e-05 4.68072e-06 0)
(-1.82226e-05 2.60465e-06 0)
(-1.86058e-05 7.27758e-07 0)
(-1.82921e-05 -8.74458e-07 0)
(-1.73808e-05 -2.18165e-06 0)
(-1.60107e-05 -3.15771e-06 0)
(-1.43239e-05 -3.82689e-06 0)
(-1.24439e-05 -4.20496e-06 0)
(-1.04891e-05 -4.33628e-06 0)
(-8.55652e-06 -4.2749e-06 0)
(-6.71399e-06 -4.08168e-06 0)
(-5.00641e-06 -3.8229e-06 0)
(-3.44477e-06 -3.55934e-06 0)
(-2.0106e-06 -3.34714e-06 0)
(-6.61015e-07 -3.22839e-06 0)
(1.41569e-06 0.000350015 0)
(4.31553e-06 0.000352607 0)
(6.82208e-06 0.000356995 0)
(8.59188e-06 0.000363582 0)
(9.26892e-06 0.000372322 0)
(8.54173e-06 0.000383073 0)
(5.95518e-06 0.000395718 0)
(1.27429e-06 0.000409968 0)
(-5.88442e-06 0.000425603 0)
(-1.56757e-05 0.000442187 0)
(-2.8296e-05 0.000459303 0)
(-4.38284e-05 0.000476398 0)
(-6.2198e-05 0.000492996 0)
(-8.35646e-05 0.000508538 0)
(-0.000107886 0.000522577 0)
(-0.000135242 0.000534687 0)
(-0.000165186 0.000544507 0)
(-0.00019737 0.000551688 0)
(-0.000231486 0.000555874 0)
(-0.000267275 0.000556817 0)
(-0.000304324 0.000554416 0)
(-0.000342243 0.000548583 0)
(-0.000380536 0.000539235 0)
(-0.000418902 0.000526505 0)
(-0.000456958 0.000510357 0)
(-0.000493988 0.000491154 0)
(-0.000529673 0.000469052 0)
(-0.000563956 0.00044434 0)
(-0.000596328 0.000417472 0)
(-0.000626075 0.000388623 0)
(-0.00065399 0.000358174 0)
(-0.000679095 0.000326288 0)
(-0.000701121 0.00029331 0)
(-0.000720802 0.000259379 0)
(-0.000737173 0.000224542 0)
(-0.000750891 0.000189008 0)
(-0.000762166 0.000152894 0)
(-0.000770625 0.00011647 0)
(-0.000776515 7.97889e-05 0)
(-0.000779607 4.29593e-05 0)
(-0.000779615 6.13074e-06 0)
(-0.000776769 -3.04103e-05 0)
(-0.000771278 -6.64992e-05 0)
(-0.000762914 -0.00010201 0)
(-0.00075159 -0.000136812 0)
(-0.000737305 -0.000170773 0)
(-0.000719964 -0.000203745 0)
(-0.000699749 -0.000235543 0)
(-0.000676538 -0.000266012 0)
(-0.000650547 -0.000294912 0)
(-0.000621883 -0.000322121 0)
(-0.000590415 -0.000347364 0)
(-0.00055652 -0.000370585 0)
(-0.000520195 -0.000391241 0)
(-0.000481646 -0.000409509 0)
(-0.00044125 -0.000425001 0)
(-0.000398916 -0.00043752 0)
(-0.000355152 -0.000446878 0)
(-0.000310721 -0.000453105 0)
(-0.000265387 -0.000455948 0)
(-0.000219432 -0.000455283 0)
(-0.000173294 -0.00045114 0)
(-0.000127652 -0.000443335 0)
(-8.28844e-05 -0.000432068 0)
(-3.90953e-05 -0.000417193 0)
(2.96271e-06 -0.000398965 0)
(4.28878e-05 -0.000377352 0)
(8.05616e-05 -0.000352606 0)
(0.000115459 -0.000324895 0)
(0.000147033 -0.00029455 0)
(0.000175015 -0.00026184 0)
(0.00019908 -0.000227164 0)
(0.000218922 -0.000190882 0)
(0.000234276 -0.000153492 0)
(0.000245005 -0.000115369 0)
(0.00025093 -7.71292e-05 0)
(0.000252054 -3.92089e-05 0)
(0.000248103 -2.14399e-06 0)
(0.000239336 3.35042e-05 0)
(0.000226217 6.72295e-05 0)
(0.000208746 9.84802e-05 0)
(0.000187206 0.000126783 0)
(0.000162065 0.00015168 0)
(0.000133694 0.000172733 0)
(0.000102718 0.000189638 0)
(6.97924e-05 0.000202045 0)
(3.54894e-05 0.000209782 0)
(6.03215e-07 0.000212719 0)
(-3.41726e-05 0.000210816 0)
(-6.80708e-05 0.000204146 0)
(-0.000100375 0.000192862 0)
(-0.000130373 0.000177242 0)
(-0.000157367 0.000157697 0)
(-0.000180662 0.000134691 0)
(-0.000199685 0.00010879 0)
(-0.000214069 8.06043e-05 0)
(-0.0002234 5.09111e-05 0)
(-0.000227406 2.04812e-05 0)
(-0.000225952 -9.7975e-06 0)
(-0.000219118 -3.9267e-05 0)
(-0.000207176 -6.70663e-05 0)
(-0.000190407 -9.23933e-05 0)
(-0.000169292 -0.000114514 0)
(-0.000144453 -0.000132809 0)
(-0.000116666 -0.000146717 0)
(-8.67756e-05 -0.000155818 0)
(-5.57094e-05 -0.000159876 0)
(-2.44553e-05 -0.000158759 0)
(5.94331e-06 -0.000152575 0)
(3.44544e-05 -0.000141526 0)
(6.0151e-05 -0.000126049 0)
(8.21752e-05 -0.000106713 0)
(9.97559e-05 -8.42597e-05 0)
(0.000112337 -5.95474e-05 0)
(0.000119507 -3.35676e-05 0)
(0.000121076 -7.29305e-06 0)
(0.000116972 1.80502e-05 0)
(0.000107532 4.16579e-05 0)
(9.32822e-05 6.25567e-05 0)
(7.48345e-05 7.97973e-05 0)
(5.31794e-05 9.27727e-05 0)
(2.93153e-05 0.000100873 0)
(4.21689e-06 0.000103871 0)
(-2.07498e-05 0.000101709 0)
(-4.42622e-05 9.45841e-05 0)
(-6.52591e-05 8.2913e-05 0)
(-8.27454e-05 6.74055e-05 0)
(-9.59125e-05 4.89031e-05 0)
(-0.0001041 2.84885e-05 0)
(-0.000106944 7.18632e-06 0)
(-0.000104463 -1.37051e-05 0)
(-9.69088e-05 -3.31997e-05 0)
(-8.47e-05 -5.01965e-05 0)
(-6.87081e-05 -6.38577e-05 0)
(-4.9895e-05 -7.34901e-05 0)
(-2.9318e-05 -7.86839e-05 0)
(-8.21073e-06 -7.92526e-05 0)
(1.21779e-05 -7.53373e-05 0)
(3.06955e-05 -6.7326e-05 0)
(4.63935e-05 -5.58474e-05 0)
(5.84303e-05 -4.16881e-05 0)
(6.62452e-05 -2.57631e-05 0)
(6.95549e-05 -9.12668e-06 0)
(6.83799e-05 7.2878e-06 0)
(6.29297e-05 2.25322e-05 0)
(5.36535e-05 3.57835e-05 0)
(4.12812e-05 4.63509e-05 0)
(2.66157e-05 5.37979e-05 0)
(1.05751e-05 5.7833e-05 0)
(-5.9101e-06 5.84193e-05 0)
(-2.18381e-05 5.57546e-05 0)
(-3.63302e-05 5.01093e-05 0)
(-4.87008e-05 4.19851e-05 0)
(-5.83629e-05 3.19637e-05 0)
(-6.49241e-05 2.07012e-05 0)
(-6.81674e-05 8.88086e-06 0)
(-6.80847e-05 -2.85427e-06 0)
(-6.48162e-05 -1.38993e-05 0)
(-5.86627e-05 -2.3733e-05 0)
(-5.00501e-05 -3.19327e-05 0)
(-3.95119e-05 -3.82083e-05 0)
(-2.76452e-05 -4.23768e-05 0)
(-1.505e-05 -4.43792e-05 0)
(-2.32599e-06 -4.42826e-05 0)
(9.94052e-06 -4.22642e-05 0)
(2.12203e-05 -3.85392e-05 0)
(3.11138e-05 -3.34291e-05 0)
(3.92647e-05 -2.7275e-05 0)
(4.54536e-05 -2.04386e-05 0)
(4.955e-05 -1.32976e-05 0)
(5.1532e-05 -6.18534e-06 0)
(5.14825e-05 5.75059e-07 0)
(4.95484e-05 6.71663e-06 0)
(4.59633e-05 1.20312e-05 0)
(4.09933e-05 1.63556e-05 0)
(3.49682e-05 1.96007e-05 0)
(2.82229e-05 2.17333e-05 0)
(2.1076e-05 2.27654e-05 0)
(1.38679e-05 2.27743e-05 0)
(6.89785e-06 2.18609e-05 0)
(4.16999e-07 2.01806e-05 0)
(-5.37469e-06 1.7884e-05 0)
(-1.03075e-05 1.51504e-05 0)
(-1.42843e-05 1.21525e-05 0)
(-1.72508e-05 9.057e-06 0)
(-1.92025e-05 6.02262e-06 0)
(-2.01991e-05 3.18319e-06 0)
(-2.03232e-05 6.47036e-07 0)
(-1.97011e-05 -1.51226e-06 0)
(-1.84696e-05 -3.23897e-06 0)
(-1.67833e-05 -4.5229e-06 0)
(-1.47999e-05 -5.3665e-06 0)
(-1.26647e-05 -5.81894e-06 0)
(-1.05042e-05 -5.9314e-06 0)
(-8.42425e-06 -5.78386e-06 0)
(-6.49693e-06 -5.46445e-06 0)
(-4.76352e-06 -5.06138e-06 0)
(-3.22734e-06 -4.66483e-06 0)
(-1.86119e-06 -4.35024e-06 0)
(-6.07663e-07 -4.17427e-06 0)
(1.07433e-05 0.000151589 0)
(3.22209e-05 0.000153899 0)
(5.28834e-05 0.000163289 0)
(7.20713e-05 0.000177394 0)
(8.89086e-05 0.000196081 0)
(0.000102776 0.000218747 0)
(0.000112663 0.000245253 0)
(0.000118026 0.000274606 0)
(0.0001178 0.000307164 0)
(0.000110944 0.000341231 0)
(9.68847e-05 0.000376579 0)
(7.52022e-05 0.000412069 0)
(4.62245e-05 0.000447177 0)
(1.03685e-05 0.000481111 0)
(-3.16196e-05 0.000513361 0)
(-7.89999e-05 0.000543208 0)
(-0.000130974 0.000570124 0)
(-0.000187244 0.00059337 0)
(-0.000247083 0.000612262 0)
(-0.00030883 0.00062632 0)
(-0.000371286 0.000635059 0)
(-0.000434221 0.000638226 0)
(-0.00049612 0.000635731 0)
(-0.00055674 0.000627326 0)
(-0.000614569 0.000613414 0)
(-0.000668253 0.000593781 0)
(-0.000718371 0.000569377 0)
(-0.000763282 0.000539919 0)
(-0.000803274 0.000507452 0)
(-0.000838587 0.000471304 0)
(-0.000869607 0.000433451 0)
(-0.000896281 0.000393157 0)
(-0.000918588 0.000351576 0)
(-0.000938101 0.000308702 0)
(-0.000954342 0.000264798 0)
(-0.000967106 0.000219894 0)
(-0.000976167 0.000174212 0)
(-0.000981795 0.000127795 0)
(-0.000984567 8.08719e-05 0)
(-0.000984142 3.36621e-05 0)
(-0.000979689 -1.34872e-05 0)
(-0.00097089 -6.06445e-05 0)
(-0.000958458 -0.000107565 0)
(-0.000942652 -0.000154145 0)
(-0.000923558 -0.000200062 0)
(-0.000901234 -0.000245144 0)
(-0.000875494 -0.000289101 0)
(-0.000846476 -0.000331708 0)
(-0.00081398 -0.000372604 0)
(-0.00077822 -0.000411571 0)
(-0.0007392 -0.000448216 0)
(-0.00069725 -0.000482245 0)
(-0.00065175 -0.000513289 0)
(-0.000603436 -0.000541227 0)
(-0.000552862 -0.000565593 0)
(-0.00049967 -0.000586213 0)
(-0.000444113 -0.000602723 0)
(-0.000387224 -0.00061502 0)
(-0.00032928 -0.000622749 0)
(-0.000269937 -0.000625746 0)
(-0.00021059 -0.000623932 0)
(-0.000151016 -0.000617034 0)
(-9.2246e-05 -0.00060538 0)
(-3.46843e-05 -0.000588519 0)
(2.13244e-05 -0.000566888 0)
(7.4903e-05 -0.000540325 0)
(0.000125678 -0.000509193 0)
(0.000173129 -0.000473589 0)
(0.000216569 -0.000434003 0)
(0.000255544 -0.000390724 0)
(0.000289594 -0.000344249 0)
(0.000318238 -0.000295056 0)
(0.000341123 -0.000243763 0)
(0.000357981 -0.000190971 0)
(0.00036852 -0.000137351 0)
(0.000372571 -8.36335e-05 0)
(0.000370205 -3.05262e-05 0)
(0.000361295 2.10768e-05 0)
(0.000346085 7.0654e-05 0)
(0.000324829 0.000117307 0)
(0.000297853 0.00016036 0)
(0.000265636 0.000199059 0)
(0.000228711 0.000232811 0)
(0.000187818 0.000260995 0)
(0.000143645 0.000283194 0)
(9.70468e-05 0.000298949 0)
(4.90247e-05 0.000308031 0)
(4.81147e-07 0.000310227 0)
(-4.7593e-05 0.000305565 0)
(-9.41782e-05 0.00029413 0)
(-0.000138259 0.000276261 0)
(-0.000178768 0.000252344 0)
(-0.000214786 0.000222951 0)
(-0.000245595 0.000188732 0)
(-0.000270496 0.000150565 0)
(-0.000288741 0.000109419 0)
(-0.000299862 6.63691e-05 0)
(-0.000303519 2.25181e-05 0)
(-0.000299809 -2.0987e-05 0)
(-0.000288956 -6.30596e-05 0)
(-0.00027105 -0.000102488 0)
(-0.000246651 -0.000138177 0)
(-0.000216455 -0.000169079 0)
(-0.000181381 -0.000194319 0)
(-0.000142471 -0.000213145 0)
(-0.000100973 -0.000225013 0)
(-5.81968e-05 -0.000229552 0)
(-1.5544e-05 -0.000226693 0)
(2.56338e-05 -0.000216553 0)
(6.39965e-05 -0.000199516 0)
(9.82215e-05 -0.000176261 0)
(0.000127152 -0.00014763 0)
(0.000149789 -0.000114764 0)
(0.000165336 -7.88428e-05 0)
(0.000173359 -4.13061e-05 0)
(0.00017344 -3.68449e-06 0)
(0.000165866 3.25525e-05 0)
(0.000151405 6.60219e-05 0)
(0.000130298 9.53077e-05 0)
(0.000103697 0.000119245 0)
(7.28698e-05 0.000136835 0)
(3.92207e-05 0.000147386 0)
(4.40263e-06 0.000150592 0)
(-2.99096e-05 0.000146328 0)
(-6.19779e-05 0.000135032 0)
(-9.0291e-05 0.000117354 0)
(-0.000113513 9.434e-05 0)
(-0.000130557 6.7238e-05 0)
(-0.000140671 3.76166e-05 0)
(-0.000143395 7.05626e-06 0)
(-0.000138808 -2.27302e-05 0)
(-0.000127443 -5.0216e-05 0)
(-0.000109942 -7.39032e-05 0)
(-8.75063e-05 -9.2615e-05 0)
(-6.15361e-05 -0.000105434 0)
(-3.35426e-05 -0.000111824 0)
(-5.17096e-06 -0.000111734 0)
(2.18705e-05 -0.000105306 0)
(4.60744e-05 -9.32061e-05 0)
(6.61876e-05 -7.64073e-05 0)
(8.12453e-05 -5.6062e-05 0)
(9.05679e-05 -3.35252e-05 0)
(9.38451e-05 -1.0206e-05 0)
(9.12481e-05 1.25334e-05 0)
(8.31869e-05 3.33436e-05 0)
(7.02954e-05 5.11776e-05 0)
(5.35975e-05 6.51695e-05 0)
(3.42577e-05 7.4713e-05 0)
(1.34498e-05 7.95338e-05 0)
(-7.56763e-06 7.9651e-05 0)
(-2.75883e-05 7.53288e-05 0)
(-4.55428e-05 6.70924e-05 0)
(-6.0576e-05 5.56274e-05 0)
(-7.20471e-05 4.17721e-05 0)
(-7.95187e-05 2.64201e-05 0)
(-8.28211e-05 1.04923e-05 0)
(-8.20236e-05 -5.14043e-06 0)
(-7.73823e-05 -1.96839e-05 0)
(-6.93319e-05 -3.24751e-05 0)
(-5.84639e-05 -4.29913e-05 0)
(-4.54529e-05 -5.0871e-05 0)
(-3.10449e-05 -5.59398e-05 0)
(-1.59907e-05 -5.81369e-05 0)
(-1.00067e-06 -5.76137e-05 0)
(1.32438e-05 -5.45906e-05 0)
(2.61578e-05 -4.94117e-05 0)
(3.72762e-05 -4.24945e-05 0)
(4.62473e-05 -3.4315e-05 0)
(5.28517e-05 -2.53303e-05 0)
(5.69781e-05 -1.60394e-05 0)
(5.86545e-05 -6.86818e-06 0)
(5.80051e-05 1.7704e-06 0)
(5.52524e-05 9.55592e-06 0)
(5.06855e-05 1.62192e-05 0)
(4.46405e-05 2.15777e-05 0)
(3.75073e-05 2.5533e-05 0)
(2.96684e-05 2.80432e-05 0)
(2.15102e-05 2.91537e-05 0)
(1.33911e-05 2.89737e-05 0)
(5.65239e-06 2.7636e-05 0)
(-1.43265e-06 2.5347e-05 0)
(-7.66845e-06 2.2306e-05 0)
(-1.28785e-05 1.87431e-05 0)
(-1.69757e-05 1.48725e-05 0)
(-1.99178e-05 1.092e-05 0)
(-2.17228e-05 7.07024e-06 0)
(-2.24672e-05 3.49847e-06 0)
(-2.22725e-05 3.33909e-07 0)
(-2.12927e-05 -2.33228e-06 0)
(-1.96803e-05 -4.43638e-06 0)
(-1.7619e-05 -5.9702e-06 0)
(-1.52941e-05 -6.94623e-06 0)
(-1.28644e-05 -7.42032e-06 0)
(-1.04678e-05 -7.47396e-06 0)
(-8.22403e-06 -7.20448e-06 0)
(-6.20304e-06 -6.72743e-06 0)
(-4.44642e-06 -6.15736e-06 0)
(-2.95176e-06 -5.60611e-06 0)
(-1.67378e-06 -5.17258e-06 0)
(-5.40929e-07 -4.93347e-06 0)
(2.90327e-05 9.60349e-05 0)
(8.73074e-05 0.000105549 0)
(0.000143972 0.00012808 0)
(0.000197611 0.000162036 0)
(0.000244903 0.000207388 0)
(0.000285396 0.000263218 0)
(0.0003166 0.000329592 0)
(0.000340868 0.000403331 0)
(0.000354214 0.000486584 0)
(0.000354351 0.000573041 0)
(0.000344222 0.000661574 0)
(0.000322391 0.000747878 0)
(0.000290885 0.000830226 0)
(0.000249917 0.000906323 0)
(0.000200138 0.000974432 0)