/*--------------------------------*- C++ -*----------------------------------*\
  =========                 |
  \\      /  F ield         | OpenFOAM: The Open Source CFD Toolbox
   \\    /   O peration     | Website:  https://openfoam.org
    \\  /    A nd           | Version:  12
     \\/     M anipulation  |
\*---------------------------------------------------------------------------*/
FoamFile
{
    format      ascii;
    class       volScalarField;
    location    "0.27";
    object      epsilon;
}
// * * * * * * * * * * * * * * * * * * * * * * * * * * * * * * * * * * * * * //

dimensions      [0 2 -3 0 0 0 0];

internalField   nonuniform List<scalar> 
12225
(
278.515
263.66
249.434
236.839
226.738
219.483
215.069
213.262
213.705
215.988
219.71
224.499
230.037
236.058
242.362
248.78
255.345
264.85
61.116
86.6952
97.9911
107.207
118.464
132.555
149.408
168.607
189.571
211.673
234.323
257.009
279.328
300.98
321.872
341.839
362.39
380.916
25.2776
36.183
43.3817
48.6211
53.386
58.3357
63.7697
69.8241
76.5239
83.8208
91.6246
99.8258
108.313
116.986
125.776
134.664
143.796
153.164
17.5217
21.2986
24.7145
27.6099
30.1618
32.5398
34.8663
37.2274
39.6763
42.2394
44.9243
47.7264
50.6346
53.6365
56.7231
59.9019
63.1908
66.6155
15.4878
16.7519
18.1858
19.5889
20.9094
22.1489
23.3262
24.465
25.5861
26.7046
27.8305
28.9694
30.1241
31.296
32.4867
33.7011
34.9438
36.2115
14.9084
15.2396
15.7463
16.334
16.9476
17.5589
18.1557
18.7355
19.3
19.8524
20.3959
20.9331
21.4662
21.9969
22.527
23.0587
23.5937
24.1263
14.7451
14.7391
14.8342
15.0036
15.2215
15.4679
15.7285
15.9948
16.2619
16.5273
16.79
17.0497
17.3062
17.56
17.8116
18.0616
18.3105
18.5541
14.7012
14.5825
14.5116
14.4858
14.4981
14.5403
14.6043
14.6837
14.7736
14.8707
14.9724
15.0771
15.1836
15.2911
15.3994
15.5081
15.617
15.7235
14.6901
14.5373
14.407
14.3009
14.2182
14.1571
14.1145
14.0875
14.0732
14.0692
14.0735
14.0844
14.1006
14.1211
14.1451
14.1721
14.2015
14.2317
14.6874
14.5252
14.3761
14.2411
14.1204
14.0137
13.9203
13.8391
13.7688
13.7083
13.6564
13.6119
13.574
13.5418
13.5147
13.4919
13.473
13.4572
14.6868
14.5221
14.3677
14.2236
14.0896
13.9656
13.8512
13.746
13.6495
13.5611
13.4801
13.4061
13.3383
13.2764
13.2197
13.1678
13.1203
13.0771
14.6866
14.5213
14.3656
14.219
14.0812
13.9518
13.8305
13.7169
13.6105
13.5111
13.4182
13.3314
13.2504
13.1747
13.104
13.038
12.9764
12.9194
14.6865
14.521
14.3648
14.2175
14.0785
13.9473
13.8234
13.7065
13.5963
13.4922
13.3941
13.3016
13.2143
13.1319
13.0543
12.9811
12.912
12.8476
14.6864
14.5208
14.3645
14.2169
14.0774
13.9456
13.8209
13.7029
13.5913
13.4855
13.3853
13.2904
13.2005
13.1153
13.0345
12.9579
12.8853
12.8172
14.6864
14.5207
14.3643
14.2165
14.0769
13.9449
13.8199
13.7016
13.5895
13.4832
13.3824
13.2868
13.196
13.1098
13.0279
12.9501
12.8762
12.8068
14.6863
14.5206
14.3641
14.2163
14.0766
13.9444
13.8194
13.7009
13.5886
13.4822
13.3812
13.2854
13.1943
13.1079
13.0257
12.9475
12.8732
12.8034
14.6863
14.5205
14.364
14.2161
14.0763
13.9441
13.8189
13.7004
13.5881
13.4815
13.3805
13.2845
13.1934
13.1068
13.0245
12.9462
12.8718
12.8018
14.6863
14.5204
14.3639
14.216
14.0761
13.9439
13.8186
13.7001
13.5877
13.4811
13.3799
13.2839
13.1927
13.1061
13.0237
12.9454
12.8709
12.8008
14.6863
14.5204
14.3639
14.2159
14.0761
13.9438
13.8185
13.6999
13.5875
13.4809
13.3797
13.2837
13.1924
13.1057
13.0233
12.9449
12.8704
12.8002
14.6863
14.5205
14.3639
14.216
14.0762
13.9439
13.8187
13.7001
13.5877
13.4811
13.38
13.284
13.1928
13.1061
13.0237
12.9453
12.8709
12.8007
14.6863
14.5205
14.364
14.2162
14.0764
13.9443
13.8192
13.7007
13.5885
13.4821
13.3812
13.2854
13.1945
13.1082
13.0262
12.9482
12.8742
12.8046
14.6863
14.5206
14.3643
14.2167
14.0773
13.9457
13.8214
13.7039
13.5928
13.4878
13.3886
13.2947
13.2059
13.1218
13.0423
12.9669
12.8956
12.8288
14.6865
14.5212
14.3659
14.2202
14.0837
13.956
13.8368
13.7255
13.6218
13.525
13.4348
13.3506
13.272
13.1986
13.13
13.0659
13.006
12.9505
14.6876
14.5264
14.3793
14.2467
14.1282
14.0231
13.9302
13.8484
13.7762
13.7126
13.6565
13.6068
13.5628
13.5237
13.489
13.4581
13.4306
13.4066
14.6976
14.5664
14.4707
14.4075
14.3715
14.3568
14.3585
14.372
14.3941
14.4224
14.4551
14.4908
14.5287
14.5681
14.6085
14.6497
14.6913
14.7334
14.7737
14.8187
14.9603
15.1591
15.3863
15.6233
15.8598
16.0905
16.3135
16.5284
16.7359
16.9366
17.1313
17.3211
17.5066
17.6884
17.8669
18.0419
15.2587
16.1151
17.0712
17.9727
18.7879
19.5239
20.1945
20.8149
21.3989
21.9574
22.4988
23.0292
23.5529
24.0728
24.5905
25.107
25.6225
26.1345
18.0414
22.0079
24.9885
27.1533
28.8884
30.405
31.8126
33.1787
34.5441
35.9314
37.3517
38.8089
40.3019
41.827
43.3783
44.9497
46.5346
48.1199
34.024
45.6879
51.3769
54.9426
58.0812
61.2985
64.7516
68.4843
72.4807
76.6979
81.0855
85.5939
90.1765
94.7917
99.4035
103.983
108.515
112.972
163.308
157.417
151.704
146.261
141.3
136.947
133.25
130.206
127.781
125.919
124.559
123.638
123.094
122.871
122.918
123.188
123.643
124.244
0.190618
0.237631
0.394786
0.533092
0.673822
0.841865
1.03743
1.26677
1.53677
1.84471
2.17071
2.51546
2.8766
3.25102
3.63558
4.02726
4.42318
4.82059
5.21688
5.60954
5.99616
6.37443
6.74203
7.09655
7.43536
7.75556
8.054
8.32751
8.57318
8.78851
8.97078
9.11464
9.20744
9.2275
9.17791
9.22511
9.27623
9.25344
9.30402
9.24706
9.37634
40.7566
40.9205
40.5112
42.4301
45.3765
48.5581
51.9211
55.4585
59.1677
63.0478
67.0997
71.3246
75.7243
80.3009
85.0565
89.9931
95.1127
100.417
105.908
111.587
117.454
123.51
129.757
136.193
142.818
149.632
156.633
163.818
171.187
178.735
186.46
194.359
202.426
210.657
219.048
227.591
236.282
245.114
254.08
263.172
272.383
281.705
291.129
300.646
310.248
319.924
329.665
339.46
349.298
359.169
369.061
378.961
388.859
398.742
408.599
418.423
428.211
437.973
447.739
457.484
467.099
476.582
485.925
495.115
504.139
512.98
521.622
530.051
538.249
546.203
553.896
561.316
568.447
575.276
581.79
587.977
593.825
599.322
604.459
609.226
613.614
617.615
621.222
624.43
627.233
629.626
631.607
633.173
634.322
635.055
635.372
635.274
634.765
633.849
632.529
630.812
628.704
626.213
623.346
620.114
616.526
612.594
608.328
603.74
598.845
593.655
588.183
582.445
576.456
570.23
563.782
557.129
550.286
543.269
536.093
528.779
521.337
513.785
506.143
498.409
490.636
482.795
474.957
467.2
460.376
457.167
454.509
451.868
449.216
446.554
443.88
441.187
438.454
435.636
432.631
429.204
424.751
417.795
401.879
0.734546
0.461338
0.476208
0.546888
0.651191
0.784341
0.944713
1.13335
1.34992
1.59195
1.85545
2.13772
2.43651
2.74976
3.07559
3.41229
3.75828
4.11215
4.47266
4.83884
5.21
5.58583
5.96648
6.35263
6.74565
7.1478
7.5625
7.99477
8.45177
8.94417
9.48917
10.1165
10.8734
11.8079
12.8764
13.8262
14.8667
16.1136
17.3457
18.8356
20.1717
22.003
23.7871
25.5986
27.2105
28.8267
30.4734
32.1736
33.9328
35.7534
37.637
39.5849
41.5984
43.6787
45.8266
48.043
50.3285
52.6836
55.1089
57.6045
60.1707
62.8075
65.5148
68.2923
71.1397
74.0564
77.0418
80.095
83.2152
86.4012
89.6517
92.9654
96.3407
99.7759
103.269
106.819
110.422
114.077
117.781
121.532
125.328
129.164
133.039
136.95
140.892
144.863
148.859
152.877
156.912
160.961
165.02
169.085
173.151
177.214
181.272
185.321
189.36
193.394
197.427
201.481
205.565
209.613
213.612
217.559
221.448
225.273
229.027
232.705
236.301
239.809
243.223
246.537
249.745
252.842
255.822
258.681
261.414
264.015
266.48
268.805
270.986
273.02
274.902
276.631
278.203
279.615
280.866
281.954
282.877
283.635
284.226
284.652
284.911
285.005
284.933
284.698
284.302
283.745
283.031
282.162
281.141
279.971
278.657
277.202
275.61
273.886
272.035
270.062
267.972
265.77
263.462
261.054
258.552
255.961
253.287
250.537
247.717
244.833
241.892
238.9
235.854
232.783
229.655
226.532
223.459
220.619
218.45
216.476
214.542
212.62
210.704
208.795
206.892
204.995
203.101
201.202
199.274
197.305
195.171
193.921
1.4741
0.778718
0.722037
0.771503
0.86249
0.985243
1.13704
1.31659
1.52229
1.75182
2.0025
2.27186
2.55784
2.85876
3.17328
3.50039
3.83935
4.18965
4.55108
4.9237
5.30796
5.7047
6.11528
6.54163
6.98633
7.45273
7.94493
8.46781
9.0269
9.62837
10.2795
10.9897
11.7701
12.6252
13.5329
14.4573
15.4267
16.4504
17.5064
18.6118
19.759
21.0064
22.334
23.6854
25.026
26.3823
27.7746
29.2137
30.7031
32.2437
33.8363
35.4813
37.1791
38.9301
40.7346
42.5931
44.5056
46.4725
48.4939
50.5699
52.7004
54.8854
57.1247
59.418
61.7651
64.1655
66.6187
69.124
71.6809
74.2883
76.9455
79.6514
82.4048
85.2046
88.0494
90.9377
93.868
96.8387
99.8478
102.894
105.974
109.087
112.231
115.403
118.6
121.821
125.063
128.323
131.598
134.887
138.185
141.491
144.803
148.118
151.435
154.753
158.072
161.394
164.72
168.051
171.369
174.658
177.909
181.118
184.281
187.391
190.445
193.436
196.361
199.214
201.991
204.686
207.296
209.815
212.24
214.566
216.79
218.906
220.912
222.805
224.58
226.235
227.768
229.175
230.455
231.605
232.624
233.51
234.263
234.882
235.365
235.714
235.927
236.005
235.95
235.762
235.442
234.992
234.414
233.711
232.883
231.935
230.87
229.689
228.398
226.999
225.496
223.894
222.197
220.408
218.533
216.576
214.541
212.435
210.26
208.021
205.727
203.378
200.981
198.545
196.052
193.554
191.03
188.503
186.004
183.608
181.445
179.391
177.378
175.386
173.409
171.447
169.501
167.577
165.68
163.82
162.016
160.329
158.848
158.368
2.36356
1.14882
1.00472
1.0211
1.09857
1.21484
1.36273
1.53902
1.74135
1.96743
2.21491
2.48162
2.76571
3.06572
3.38062
3.70972
4.0527
4.40953
4.78046
5.16606
5.56721
5.98512
6.42135
6.87786
7.35696
7.86134
8.39398
8.95797
9.55633
10.1918
10.8667
11.5833
12.3437
13.1484
13.994
14.8766
15.7999
16.7658
17.7737
18.8275
19.9298
21.0838
22.2844
23.5214
24.7893
26.0914
27.4335
28.8201
30.2537
31.7354
33.2662
34.8464
36.4768
38.1576
39.8894
41.6724
43.507
45.3936
47.3323
49.3235
51.3672
53.4635
55.6126
57.8143
60.0686
62.3753
64.734
67.1445
69.6062
72.1185
74.6808
77.2923
79.9521
82.6592
85.4124
88.2104
91.052
93.9356
96.8595
99.8222
102.822
105.856
108.923
112.021
115.147
118.299
121.476
124.673
127.889
131.121
134.368
137.626
140.893
144.167
147.448
150.732
154.019
157.308
160.596
163.872
167.127
170.351
173.538
176.684
179.783
182.83
185.82
188.748
191.609
194.398
197.11
199.74
202.285
204.738
207.097
209.356
211.512
213.561
215.498
217.322
219.028
220.614
222.077
223.414
224.624
225.705
226.655
227.472
228.156
228.707
229.123
229.405
229.553
229.567
229.449
229.2
228.82
228.313
227.679
226.922
226.043
225.046
223.934
222.711
221.378
219.941
218.404
216.77
215.043
213.228
211.331
209.355
207.303
205.184
203
200.752
198.455
196.104
193.707
191.282
188.821
186.343
183.846
181.345
178.86
176.432
174.11
171.858
169.644
167.455
165.287
163.142
161.022
158.936
156.893
154.913
153.027
151.313
149.885
149.208
3.25499
1.53056
1.28436
1.26731
1.33104
1.44094
1.58537
1.75919
1.95935
2.1834
2.42917
2.69471
2.97838
3.27891
3.59541
3.92737
4.27465
4.63738
5.016
5.4112
5.82392
6.25535
6.70689
7.18017
7.67704
8.1995
8.74963
9.32954
9.94119
10.5863
11.2662
11.9822
12.7353
13.5264
14.3562
15.2251
16.1347
17.0863
18.081
19.1203
20.2051
21.3347
22.5074
23.7216
24.9766
26.2735
27.6144
29.0013
30.4359
31.9192
33.4524
35.0362
36.6713
38.3584
40.0983
41.8916
43.7387
45.6404
47.5972
49.6095
51.6778
53.8025
55.9839
58.2223
60.5178
62.8705
65.2804
67.7473
70.2711
72.8514
75.4876
78.1792
80.9253
83.7252
86.5777
89.4816
92.4356
95.4383
98.4879
101.583
104.721
107.9
111.118
114.373
117.662
120.983
124.334
127.71
131.111
134.533
137.973
141.429
144.898
148.377
151.864
155.356
158.851
162.345
165.83
169.295
172.733
176.138
179.504
182.825
186.094
189.308
192.459
195.543
198.554
201.486
204.335
207.095
209.761
212.328
214.792
217.147
219.39
221.517
223.523
225.405
227.159
228.783
230.274
231.63
232.847
233.926
234.862
235.657
236.309
236.816
237.18
237.4
237.477
237.412
237.205
236.859
236.375
235.755
235.001
234.117
233.105
231.969
230.713
229.339
227.852
226.255
224.555
222.754
220.858
218.871
216.799
214.647
212.416
210.119
207.758
205.325
202.852
200.332
197.77
195.177
192.553
189.909
187.249
184.585
181.93
179.308
176.745
174.231
171.752
169.302
166.878
164.485
162.127
159.812
157.556
155.38
153.324
151.461
149.885
148.858
4.09299
1.88029
1.54321
1.49569
1.54638
1.64978
1.79033
1.9612
2.1586
2.37992
2.62305
2.88622
3.16796
3.46715
3.78302
4.11513
4.46341
4.82804
5.20948
5.60842
6.02574
6.46253
6.92002
7.39963
7.90289
8.43143
8.98698
9.57127
10.186
10.8327
11.5128
12.2277
12.9785
13.7666
14.5931
15.4593
16.3667
17.3164
18.3096
19.3474
20.4303
21.5584
22.7314
23.9496
25.2133
26.5236
27.8815
29.2886
30.7462
32.2555
33.8178
35.434
37.1054
38.8328
40.6175
42.4602
44.3621
46.324
48.3468
50.4315
52.5788
54.7894
57.0641
59.4034
61.8078
64.2778
66.8135
69.4151
72.0827
74.816
77.6147
80.4785
83.4065
86.3981
89.4521
92.5673
95.7424
98.9757
102.265
105.61
109.006
112.453
115.947
119.486
123.068
126.688
130.345
134.036
137.756
141.503
145.273
149.063
152.87
156.69
160.519
164.355
168.192
172.025
175.841
179.631
183.39
187.111
190.788
194.413
197.981
201.485
204.92
208.277
211.553
214.739
217.831
220.823
223.709
226.483
229.14
231.675
234.084
236.362
238.504
240.507
242.367
244.081
245.646
247.059
248.319
249.423
250.37
251.159
251.789
252.26
252.572
252.725
252.72
252.558
252.242
251.772
251.151
250.382
249.468
248.411
247.216
245.886
244.426
242.84
241.132
239.306
237.369
235.328
233.183
230.94
228.611
226.198
223.697
221.133
218.505
215.814
213.074
210.289
207.462
204.603
201.715
198.807
195.885
192.957
190.036
187.137
184.275
181.451
178.661
175.903
173.177
170.49
167.846
165.258
162.74
160.319
158.032
155.945
154.126
152.718
4.81261
2.19013
1.77352
1.6984
1.73661
1.83322
1.96916
2.13609
2.32956
2.54675
2.78557
3.04437
3.32183
3.61696
3.92907
4.25782
4.60314
4.96524
5.34458
5.74182
6.15782
6.59359
7.0503
7.52924
8.03184
8.55962
9.11416
9.69712
10.3101
10.9549
11.6328
12.3456
13.0945
13.881
14.7066
15.5727
16.4806
17.4317
18.4272
19.4682
20.5558
21.6904
22.8729
24.1039
25.3845
26.7156
28.0987
29.5351
31.0262
32.5736
34.1786
35.8428
37.5677
39.3545
41.2049
43.1202
45.1019
47.1514
49.2699
51.4588
53.7193
56.0526
58.4598
60.9419
63.4997
66.134
68.8453
71.6341
74.5007
77.445
80.467
83.5663
86.7424
89.9943
93.3211
96.7215
100.194
103.737
107.348
111.025
114.765
118.566
122.425
126.339
130.305
134.318
138.377
142.476
146.612
150.78
154.978
159.201
163.444
167.702
171.972
176.248
180.527
184.791
189.033
193.244
197.418
201.547
205.625
209.643
213.595
217.473
221.27
224.98
228.594
232.106
235.509
238.797
241.963
245.001
247.906
250.671
253.291
255.762
258.079
260.237
262.232
264.061
265.722
267.211
268.526
269.666
270.628
271.413
272.02
272.447
272.697
272.769
272.666
272.387
271.936
271.316
270.528
269.577
268.465
267.197
265.776
264.208
262.498
260.652
258.672
256.562
254.336
251.996
249.546
246.985
244.34
241.607
238.789
235.899
232.943
229.925
226.854
223.737
220.579
217.387
214.168
210.93
207.678
204.421
201.17
197.935
194.729
191.555
188.416
185.312
182.248
179.229
176.264
173.364
170.548
167.84
165.277
162.913
160.793
158.997
5.4272
2.45932
1.9721
1.87139
1.89727
1.98647
2.11684
2.27865
2.46684
2.67836
2.91109
3.16348
3.43433
3.72276
4.02821
4.35038
4.68927
5.04511
5.41836
5.80971
6.22
6.65024
7.10157
7.57528
8.07275
8.59548
9.14505
9.72309
10.3313
10.9713
11.6448
12.3535
13.0989
13.8826
14.7062
15.5712
16.4791
17.4315
18.4297
19.4752
20.5693
21.7131
22.9079
24.1549
25.4556
26.8114
28.2239
29.6948
31.2258
32.8188
34.4756
36.1982
37.9883
39.8482
41.7795
43.7844
45.8647
48.0223
50.2591
52.577
54.9776
57.4627
60.0336
62.692
65.4391
68.2759
71.2035
74.2226
77.3336
80.5369
83.8324
87.22
90.699
94.2687
97.928
101.675
105.509
109.427
113.427
117.506
121.661
125.89
130.188
134.552
138.978
143.462
148
152.586
157.218
161.888
166.594
171.328
176.087
180.865
185.655
190.451
195.246
200.018
204.76
209.464
214.125
218.732
223.278
227.754
232.152
236.464
240.681
244.796
248.8
252.685
256.444
260.069
263.554
266.892
270.075
273.098
275.956
278.642
281.151
283.478
285.621
287.574
289.335
290.901
292.271
293.442
294.413
295.183
295.753
296.122
296.291
296.261
296.035
295.614
295
294.198
293.21
292.042
290.698
289.18
287.493
285.645
283.644
281.493
279.197
276.755
274.192
271.508
268.708
265.796
262.788
259.687
256.499
253.234
249.9
246.502
243.049
239.548
236.007
232.433
228.832
225.212
221.581
217.947
214.317
210.704
207.115
203.558
200.037
196.557
193.122
189.741
186.423
183.181
180.034
177.005
174.129
171.449
168.989
166.802
5.93207
2.6852
2.13688
2.01262
2.0262
2.1073
2.23106
2.38653
2.5681
2.77247
2.99751
3.24171
3.50399
3.78358
4.08003
4.39312
4.72291
5.06969
5.43396
5.81641
6.21792
6.63951
7.08233
7.54769
8.03697
8.55167
9.09338
9.66375
10.2645
10.8973
11.564
12.2664
13.0061
13.7849
14.6046
15.4668
16.3734
17.326
18.3263
19.3762
20.4773
21.6313
22.8399
24.1049
25.4281
26.8116
28.2573
29.7673
31.344
32.9895
34.7063
36.4968
38.3635
40.309
42.3357
44.4462
46.643
48.9287
51.3057
53.7763
56.3429
59.0077
61.7727
64.6399
67.611
70.6874
73.8705
77.1614
80.5608
84.0692
87.6866
91.413
95.2477
99.1899
103.238
107.391
111.646
116.001
120.454
125
129.636
134.359
139.165
144.048
149.004
154.028
159.115
164.26
169.457
174.7
179.983
185.3
190.645
196.01
201.39
206.777
212.145
217.483
222.784
228.04
233.241
238.378
243.442
248.423
253.312
258.098
262.773
267.328
271.753
276.04
280.18
284.165
287.988
291.64
295.115
298.407
301.508
304.413
307.116
309.612
311.897
313.966
315.818
317.449
318.858
320.043
321.003
321.738
322.247
322.531
322.592
322.432
322.052
321.456
320.646
319.626
318.403
316.981
315.365
313.559
311.565
309.397
307.062
304.566
301.915
299.112
296.174
293.106
289.914
286.606
283.193
279.682
276.081
272.398
268.643
264.823
260.946
257.021
253.056
249.058
245.034
240.994
236.944
232.893
228.849
224.822
220.82
216.851
212.922
209.039
205.208
201.44
197.743
194.133
190.628
187.251
184.031
181.004
178.18
175.597
6.32714
2.86699
2.2674
2.12181
2.12323
2.19557
2.31171
2.45971
2.63344
2.8294
3.04542
3.28004
3.53227
3.80145
4.08722
4.38947
4.70832
5.04413
5.39744
5.76897
6.15964
6.57047
7.00266
7.4575
7.93642
8.44092
8.97262
9.5332
10.1244
10.7481
11.406
12.1002
12.8324
13.6047
14.419
15.2773
16.1817
17.1341
18.1366
19.1915
20.3008
21.4667
22.6915
23.9775
25.3272
26.7429
28.2274
29.7834
31.4135
33.1208
34.9083
36.779
38.7361
40.7828
42.9222
45.1577
47.4924
49.9296
52.4722
55.1234
57.886
60.7628
63.7564
66.8691
70.1033
73.4607
76.9431
80.5517
84.2875
88.1512
92.1428
96.2621
100.509
104.881
109.378
113.997
118.736
123.591
128.56
133.638
138.822
144.105
149.484
154.952
160.504
166.135
171.837
177.605
183.432
189.311
195.235
201.197
207.189
213.203
219.231
225.255
231.246
237.198
243.102
248.949
254.729
260.431
266.045
271.559
276.963
282.246
287.396
292.405
297.263
301.96
306.486
310.833
314.992
318.956
322.717
326.267
329.6
332.71
335.59
338.235
340.64
342.803
344.72
346.388
347.808
348.976
349.893
350.558
350.972
351.136
351.052
350.722
350.151
349.341
348.295
347.017
345.518
343.801
341.873
339.739
337.405
334.881
332.176
329.297
326.252
323.048
319.696
316.205
312.584
308.841
304.986
301.028
296.977
292.841
288.63
284.353
280.018
275.635
271.212
266.757
262.28
257.787
253.289
248.791
244.304
239.836
235.396
230.993
226.634
222.328
218.081
213.904
209.81
205.811
201.927
198.179
194.592
191.195
187.989
185.007
6.61663
3.00582
2.36481
2.20027
2.1898
2.25284
2.36053
2.50008
2.66496
2.85152
3.05753
3.28158
3.52277
3.78052
4.05458
4.34492
4.65173
4.97543
5.3166
5.67601
6.05459
6.4534
6.87365
7.31667
7.7839
8.27688
8.79727
9.3468
9.92732
10.5407
11.189
11.8743
12.5986
13.3642
14.1733
15.0282
15.9314
16.8852
17.8921
18.9549
20.0762
21.2587
22.5052
23.8188
25.2025
26.6594
28.1928
29.8061
31.5029
33.2867
35.1614
37.1308
39.1988
41.3693
43.6463
46.0339
48.536
51.1565
53.8992
56.7678
59.7658
62.8964
66.1629
69.568
73.1144
76.8042
80.6395
84.6217
88.7517
93.0303
97.4574
102.033
106.755
111.623
116.635
121.787
127.077
132.501
138.055
143.733
149.531
155.443
161.461
167.58
173.793
180.092
186.471
192.922
199.437
206.01
212.63
219.291
225.982
232.694
239.417
246.104
252.749
259.343
265.874
272.334
278.71
284.99
291.164
297.218
303.139
308.916
314.537
319.992
325.27
330.361
335.255
339.942
344.414
348.663
352.679
356.456
359.988
363.268
366.289
369.043
371.529
373.742
375.681
377.343
378.728
379.834
380.662
381.212
381.483
381.479
381.203
380.657
379.848
378.778
377.452
375.876
374.059
372.006
369.725
367.223
364.507
361.588
358.474
355.174
351.697
348.053
344.252
340.304
336.22
332.007
327.679
323.243
318.711
314.092
309.396
304.633
299.813
294.945
290.039
285.104
280.148
275.18
270.21
265.245
260.294
255.367
250.471
245.618
240.814
236.069
231.391
226.793
222.285
217.883
213.605
209.47
205.5
201.718
198.118
194.736
6.80862
3.10448
2.43151
2.2505
2.22859
2.28203
2.38064
2.51099
2.6663
2.84277
3.03816
3.25111
3.48075
3.72663
3.98854
4.26656
4.56093
4.87212
5.20076
5.54766
5.91376
6.30019
6.70816
7.13905
7.59435
8.07567
8.58475
9.12342
9.69365
10.2975
10.9372
11.615
12.3333
13.0946
13.9016
14.7569
15.6634
16.6241
17.642
18.7202
19.8622
21.0714
22.3512
23.7054
25.1378
26.6523
28.2531
29.9443
31.7303
33.6156
35.6049
37.7028
39.9142
42.2438
44.6966
47.2773
49.9907
52.8416
55.8344
58.9734
62.2626
65.7057
69.3062
73.0674
76.9921
81.0827
85.3411
89.7689
94.3669
99.1353
104.074
109.182
114.457
119.898
125.502
131.264
137.181
143.249
149.461
155.812
162.296
168.904
175.629
182.462
189.395
196.421
203.531
210.718
217.971
225.283
232.644
240.045
247.475
254.924
262.338
269.703
277.01
284.249
291.408
298.474
305.436
312.28
318.995
325.568
331.979
338.219
344.275
350.138
355.794
361.235
366.449
371.427
376.16
380.638
384.854
388.801
392.472
395.864
398.965
401.768
404.271
406.473
408.371
409.964
411.252
412.234
412.911
413.285
413.356
413.128
412.604
411.79
410.689
409.308
407.653
405.729
403.546
401.112
398.433
395.52
392.38
389.024
385.462
381.705
377.761
373.643
369.36
364.924
360.346
355.636
350.806
345.867
340.83
335.704
330.502
325.234
319.909
314.538
309.132
303.699
298.249
292.791
287.335
281.889
276.462
271.064
265.704
260.39
255.133
249.942
244.827
239.798
234.87
230.056
225.374
220.843
216.48
212.305
208.308
204.526
6.91448
3.16702
2.47083
2.27586
2.24319
2.28698
2.37617
2.49694
2.64231
2.80842
2.99303
3.19482
3.413
3.64716
3.8972
4.16322
4.44555
4.7447
5.06136
5.39638
5.75076
6.12566
6.52239
6.94239
7.38724
7.85869
8.3586
8.88899
9.45202
10.05
10.6855
11.361
12.0793
12.8434
13.6564
14.5216
15.4422
16.422
17.4647
18.5742
19.7546
21.0102
22.3454
23.7649
25.2733
26.8754
28.5764
30.3814
32.2959
34.3252
36.475
38.7511
41.159
43.7047
46.3938
49.2321
52.2251
55.3783
58.6969
62.1856
65.8485
69.6894
73.7118
77.9192
82.3144
86.8995
91.6763
96.6457
101.808
107.163
112.709
118.445
124.368
130.474
136.76
143.22
149.849
156.642
163.59
170.688
177.928
185.301
192.794
200.398
208.104
215.904
223.789
231.748
239.773
247.855
255.982
264.144
272.332
280.482
288.574
296.598
304.542
312.395
320.143
327.773
335.272
342.628
349.828
356.861
363.698
370.331
376.75
382.943
388.9
394.61
400.062
405.246
410.153
414.775
419.104
423.132
426.853
430.262
433.352
436.117
438.554
440.662
442.439
443.884
444.997
445.779
446.231
446.356
446.157
445.636
444.799
443.651
442.199
440.448
438.405
436.08
433.479
430.613
427.49
424.121
420.515
416.683
412.636
408.386
403.943
399.319
394.526
389.576
384.48
379.251
373.9
368.439
362.879
357.233
351.51
345.724
339.883
334
328.084
322.147
316.196
310.243
304.297
298.366
292.46
286.589
280.762
274.988
269.277
263.64
258.086
252.628
247.279
242.052
236.965
232.035
227.277
222.709
218.316
214.14
6.94835
3.19841
2.48674
2.28032
2.23781
2.27225
2.35211
2.46337
2.59895
2.755
2.92932
3.12061
3.32815
3.55162
3.79095
4.04634
4.31818
4.60704
4.91369
5.23906
5.58426
5.95055
6.33936
6.75229
7.19112
7.65778
8.15441
8.68331
9.24698
9.84811
10.4896
11.1746
11.9064
12.6886
13.5249
14.4193
15.376
16.3994
17.4942
18.6652
19.9177
21.2571
22.6889
24.2189
25.8529
27.5968
29.4567
31.4389
33.55
35.7966
38.1854
40.723
43.4162
46.2716
49.2957
52.495
55.8756
59.4436
63.2047
67.1643
71.3254
75.6903
80.2627
85.0455
90.0409
95.2505
100.675
106.314
112.167
118.232
124.507
130.987
137.669
144.548
151.618
158.871
166.302
173.901
181.661
189.573
197.631
205.83
214.138
222.551
231.061
239.659
248.335
257.079
265.881
274.732
283.619
292.532
301.392
310.182
318.89
327.504
336.009
344.393
352.642
360.742
368.678
376.438
384.008
391.373
398.517
405.426
412.089
418.494
424.63
430.486
436.053
441.321
446.281
450.925
455.245
459.234
462.888
466.2
469.165
471.78
474.042
475.949
477.5
478.695
479.536
480.023
480.16
479.949
479.394
478.501
477.274
475.719
473.845
471.658
469.167
466.38
463.307
459.958
456.344
452.474
448.361
444.016
439.45
434.676
429.706
424.552
419.226
413.743
408.113
402.35
396.465
390.473
384.383
378.209
371.963
365.656
359.299
352.904
346.481
340.042
333.595
327.151
320.72
314.311
307.933
301.597
295.311
289.085
282.93
276.855
270.872
264.992
259.229
253.597
248.111
242.788
237.642
232.686
227.907
223.348
6.92667
3.20423
2.48359
2.26825
2.21718
2.24312
2.31439
2.41693
2.54371
2.69091
2.8564
3.03895
3.23793
3.45307
3.68442
3.93226
4.19709
4.47961
4.78073
5.10155
5.44335
5.80764
6.19608
6.61059
7.05326
7.52644
8.03267
8.57477
9.1558
9.77907
10.4482
11.167
11.9397
12.7709
13.6652
14.6276
15.6634
16.7782
17.978
19.269
20.6579
22.1516
23.7572
25.4822
27.3341
29.3191
31.4445
33.718
36.1473
38.7403
41.5045
44.4475
47.5765
50.8988
54.4209
58.1495
62.0908
66.2507
70.6355
75.2529
80.1008
85.1757
90.4824
96.023
101.798
107.808
114.051
120.524
127.225
134.15
141.294
148.651
156.215
163.977
171.931
180.067
188.375
196.847
205.471
214.238
223.137
232.157
241.281
250.498
259.799
269.172
278.609
288.099
297.633
307.205
316.775
326.269
335.677
344.983
354.175
363.237
372.157
380.92
389.512
397.919
406.128
414.123
421.893
429.423
436.699
443.708
450.439
456.88
463.021
468.851
474.362
479.543
484.389
488.89
493.04
496.833
500.265
503.331
506.027
508.35
510.299
511.872
513.07
513.894
514.345
514.425
514.139
513.491
512.485
511.127
509.424
507.383
505.012
502.319
499.313
496.005
492.405
488.524
484.372
479.961
475.304
470.413
465.3
459.978
454.46
448.759
442.889
436.861
430.691
424.389
417.971
411.447
404.832
398.137
391.374
384.556
377.694
370.8
363.884
356.957
350.03
343.113
336.215
329.345
322.515
315.732
309.006
302.348
295.767
289.274
282.88
276.596
270.437
264.415
258.546
252.845
247.324
241.997
236.847
231.923
6.86497
3.18983
2.46552
2.24388
2.18601
2.20498
2.26927
2.36496
2.48515
2.62614
2.7859
2.96333
3.15793
3.36958
3.59848
3.84512
4.11021
4.39474
4.6999
5.02714
5.37817
5.75494
6.15965
6.5948
7.06316
7.56782
8.11216
8.69993
9.33524
10.0225
10.7665
11.5723
12.4459
13.3933
14.4211
15.5358
16.744
18.0531
19.471
21.0061
22.6671
24.4628
26.4028
28.4973
30.7583
33.1867
35.7915
38.5824
41.5682
44.7572
48.1573
51.7757
55.6191
59.6939
64.0054
68.5587
73.358
78.4069
83.7084
89.2644
95.0738
101.135
107.445
114.004
120.809
127.855
135.138
142.653
150.394
158.352
166.521
174.892
183.455
192.201
201.119
210.198
219.428
228.796
238.291
247.901
257.615
267.42
277.304
287.255
297.263
307.319
317.412
327.54
337.681
347.756
357.729
367.588
377.32
386.909
396.344
405.609
414.692
423.579
432.256
440.71
448.928
456.898
464.606
472.041
479.19
486.041
492.584
498.808
504.705
510.264
515.478
520.339
524.84
528.974
532.737
536.122
539.127
541.749
543.983
545.83
547.288
548.357
549.038
549.334
549.246
548.779
547.937
546.725
545.149
543.215
540.932
538.306
535.348
532.065
528.469
524.57
520.378
515.906
511.165
506.168
500.927
495.455
489.765
483.87
477.785
471.521
465.093
458.515
451.799
444.96
438.01
430.962
423.829
416.624
409.359
402.045
394.696
387.322
379.933
372.542
365.157
357.79
350.449
343.145
335.887
328.683
321.544
314.479
307.499
300.613
293.832
287.17
280.637
274.248
268.017
261.959
256.084
250.405
244.906
239.639
6.79582
3.16518
2.441
2.21677
2.15578
2.17175
2.23353
2.32748
2.44692
2.58838
2.75003
2.93101
3.13108
3.35044
3.58969
3.84973
4.13183
4.43754
4.76878
5.12778
5.51713
5.9398
6.39916
6.89895
7.44341
8.0372
8.68533
9.39354
10.1682
11.0161
11.9434
12.958
14.0685
15.2846
16.6173
18.0756
19.6644
21.3954
23.2797
25.3283
27.5519
29.9615
32.5677
35.3811
38.4113
41.6653
45.1508
48.8755
52.8461
57.0686
61.5482
66.2887
71.2932
76.5638
82.1015
87.9063
93.9774
100.313
106.911
113.767
120.876
128.232
135.829
143.659
151.716
159.992
168.477
177.163
186.041
195.099
204.329
213.718
223.257
232.933
242.736
252.653
262.674
272.787
282.98
293.242
303.564
313.933
324.34
334.779
345.236
355.714
366.193
376.592
386.862
397.002
406.997
416.835
426.502
435.985
445.273
454.354
463.213
471.841
480.225
488.352
496.213
503.795
511.088
518.081
524.763
531.125
537.158
542.852
548.2
553.193
557.826
562.091
565.983
569.496
572.628
575.373
577.729
579.694
581.266
582.446
583.233
583.628
583.634
583.253
582.489
581.346
579.829
577.944
575.698
573.099
570.154
566.872
563.262
559.335
555.1
550.57
545.755
540.667
535.319
529.723
523.892
517.839
511.577
505.121
498.483
491.677
484.717
477.616
470.387
463.045
455.601
448.07
440.463
432.793
425.073
417.313
409.526
401.723
393.915
386.111
378.322
370.559
362.829
355.143
347.509
339.937
332.436
325.015
317.685
310.454
303.335
296.338
289.476
282.762
276.209
269.832
263.641
257.647
251.836
246.261
6.74194
3.13898
2.4187
2.19721
2.13917
2.15907
2.22632
2.3277
2.45691
2.61088
2.78821
2.98859
3.2124
3.4606
3.73464
4.03651
4.36864
4.73401
5.13612
5.57904
6.06739
6.60651
7.20238
7.86148
8.59145
9.40078
10.2969
11.2899
12.3918
13.6166
14.9673
16.4582
18.103
19.9152
21.9085
24.0956
26.4877
29.0973
31.9365
35.0168
38.3485
41.9412
45.8029
49.9405
54.3591
59.0617
64.0502
69.325
74.8856
80.73
86.8548
93.2558
99.9275
106.864
114.057
121.499
129.183
137.098
145.237
153.588
162.143
170.89
179.819
188.921
198.184
207.598
217.153
226.838
236.643
246.557
256.572
266.676
276.859
287.112
297.425
307.788
318.192
328.631
339.093
349.571
360.061
370.553
381.034
391.532
401.991
412.338
422.533
432.579
442.463
452.174
461.703
471.039
480.171
489.088
497.78
506.236
514.447
522.401
530.09
537.504
544.631
551.464
557.993
564.209
570.104
575.669
580.896
585.779
590.31
594.482
598.292
601.732
604.799
607.488
609.798