/*--------------------------------*- C++ -*----------------------------------*\
  =========                 |
  \\      /  F ield         | OpenFOAM: The Open Source CFD Toolbox
   \\    /   O peration     | Website:  https://openfoam.org
    \\  /    A nd           | Version:  12
     \\/     M anipulation  |
\*---------------------------------------------------------------------------*/
FoamFile
{
    format      ascii;
    class       volScalarField;
    location    "0.27";
    object      k;
}
// * * * * * * * * * * * * * * * * * * * * * * * * * * * * * * * * * * * * * //

dimensions      [0 2 -2 0 0 0 0];

internalField   nonuniform List<scalar> 
12225
(
0.353921
0.335043
0.316966
0.300961
0.288125
0.278906
0.273297
0.271001
0.271563
0.274465
0.279194
0.285281
0.292318
0.299969
0.30798
0.316135
0.324477
0.336556
0.436864
0.448979
0.438084
0.43306
0.438785
0.453583
0.474794
0.499971
0.527125
0.554771
0.581878
0.607784
0.63211
0.654677
0.675592
0.694749
0.714211
0.729499
0.395187
0.410874
0.410631
0.405747
0.40201
0.400923
0.402613
0.406805
0.413078
0.420973
0.430057
0.43995
0.45034
0.460984
0.471741
0.482499
0.493537
0.504228
0.379641
0.38484
0.386546
0.38573
0.383905
0.382026
0.380567
0.379738
0.379605
0.380146
0.381299
0.382982
0.385112
0.387615
0.390436
0.39354
0.396946
0.400549
0.374976
0.3759
0.376239
0.375721
0.37457
0.373084
0.371496
0.369967
0.368593
0.367426
0.366484
0.365767
0.365266
0.364965
0.364852
0.364916
0.365154
0.365533
0.373488
0.372555
0.371759
0.370807
0.369631
0.368275
0.366809
0.3653
0.363804
0.362358
0.36099
0.359714
0.358537
0.357461
0.356487
0.355615
0.354843
0.354165
0.373012
0.371296
0.369813
0.368416
0.367025
0.36561
0.364169
0.362712
0.361258
0.359824
0.358426
0.357073
0.355774
0.354533
0.353354
0.35224
0.351191
0.350215
0.372865
0.370838
0.369004
0.367311
0.365711
0.364174
0.362679
0.361216
0.359783
0.358382
0.357015
0.355688
0.354402
0.353161
0.351968
0.350822
0.349728
0.348696
0.37282
0.37068
0.368691
0.366836
0.365095
0.363449
0.36188
0.360376
0.358928
0.357532
0.356183
0.35488
0.353622
0.352409
0.351241
0.350119
0.349042
0.348023
0.372806
0.370628
0.368578
0.366648
0.364829
0.36311
0.361482
0.359934
0.358457
0.357046
0.355694
0.354397
0.353153
0.351959
0.350812
0.349713
0.34866
0.347664
0.372801
0.370609
0.368537
0.366576
0.36472
0.362964
0.361299
0.359719
0.358216
0.356785
0.355421
0.354118
0.352874
0.351685
0.350547
0.34946
0.348421
0.34744
0.372799
0.370602
0.368522
0.36655
0.36468
0.362907
0.361225
0.359627
0.358109
0.356664
0.355289
0.353978
0.352729
0.351537
0.3504
0.349315
0.34828
0.347304
0.372797
0.370599
0.368514
0.366537
0.364661
0.36288
0.361188
0.359581
0.358053
0.3566
0.355216
0.353899
0.352644
0.351448
0.350308
0.349221
0.348185
0.34721
0.372796
0.370596
0.368509
0.366528
0.364649
0.362864
0.361168
0.359555
0.358022
0.356563
0.355174
0.353851
0.352592
0.351392
0.350248
0.349157
0.348119
0.347141
0.372795
0.370593
0.368505
0.366523
0.364641
0.362853
0.361154
0.359539
0.358003
0.35654
0.355148
0.353823
0.35256
0.351357
0.35021
0.349116
0.348074
0.347094
0.372794
0.370592
0.368502
0.366518
0.364634
0.362845
0.361145
0.359527
0.357989
0.356525
0.355131
0.353803
0.352538
0.351333
0.350184
0.349088
0.348044
0.347061
0.372794
0.37059
0.368499
0.366515
0.36463
0.362839
0.361137
0.359519
0.357979
0.356514
0.355118
0.353789
0.352523
0.351316
0.350165
0.349067
0.348021
0.347037
0.372794
0.370589
0.368498
0.366512
0.364627
0.362835
0.361132
0.359513
0.357972
0.356506
0.355109
0.353779
0.352511
0.351303
0.350151
0.349052
0.348005
0.347019
0.372793
0.370589
0.368497
0.366512
0.364626
0.362834
0.361131
0.359511
0.357969
0.356502
0.355105
0.353774
0.352506
0.351297
0.350144
0.349044
0.347996
0.34701
0.372794
0.37059
0.368498
0.366513
0.364628
0.362836
0.361133
0.359514
0.357973
0.356506
0.355109
0.353779
0.352511
0.351302
0.350149
0.349049
0.348001
0.347015
0.372794
0.370591
0.3685
0.366516
0.364632
0.362841
0.36114
0.359522
0.357982
0.356517
0.355122
0.353793
0.352526
0.351319
0.350167
0.349069
0.348023
0.347037
0.372795
0.370593
0.368504
0.366522
0.364641
0.362855
0.361158
0.359546
0.358012
0.356552
0.355163
0.353839
0.352578
0.351375
0.350228
0.349134
0.348091
0.347108
0.372796
0.370598
0.368518
0.366547
0.364681
0.362912
0.361235
0.359642
0.358127
0.356685
0.355311
0.354001
0.35275
0.351556
0.350415
0.349324
0.348281
0.347298
0.372804
0.370631
0.368592
0.366676
0.364872
0.363166
0.361548
0.360006
0.358532
0.35712
0.355767
0.354467
0.353219
0.352019
0.350867
0.349761
0.348701
0.347697
0.372856
0.370818
0.368973
0.367264
0.365645
0.364085
0.362567
0.361083
0.359631
0.358213
0.356833
0.355493
0.354196
0.352946
0.351743
0.35059
0.349486
0.348445
0.373166
0.37177
0.370579
0.369371
0.368049
0.366605
0.365072
0.363492
0.361905
0.360342
0.358826
0.357372
0.355991
0.354688
0.353468
0.352329
0.351272
0.350303
0.374797
0.375829
0.376175
0.375401
0.373834
0.371876
0.369792
0.36774
0.365814
0.364067
0.362524
0.361195
0.360076
0.359157
0.358425
0.357864
0.357457
0.35719
0.382729
0.39167
0.392375
0.388805
0.384384
0.380403
0.377247
0.374998
0.373621
0.373039
0.373153
0.373867
0.375084
0.376717
0.378687
0.380923
0.383366
0.385947
0.407499
0.414514
0.405423
0.395992
0.390555
0.389292
0.391457
0.396217
0.402838
0.410729
0.419437
0.428624
0.438034
0.447479
0.456823
0.465973
0.474883
0.483466
0.360554
0.347547
0.334933
0.322917
0.311965
0.302353
0.29419
0.287471
0.282115
0.278005
0.275002
0.272968
0.271768
0.271276
0.27138
0.271976
0.272979
0.274307
0.000665144
0.00378057
0.00627537
0.00846643
0.0106921
0.0133467
0.0164325
0.0200469
0.0242977
0.0291397
0.0342576
0.0396615
0.045313
0.0511625
0.0571599
0.063257
0.0694083
0.0755705
0.0817023
0.0877643
0.0937191
0.0995307
0.105163
0.110579
0.115738
0.120596
0.125105
0.129216
0.132885
0.136076
0.138747
0.140817
0.142093
0.142244
0.14132
0.141885
0.142508
0.141994
0.142604
0.141564
0.143373
0.146729
0.147063
0.146021
0.150536
0.157361
0.164565
0.172006
0.179657
0.187501
0.195527
0.203729
0.212101
0.220639
0.22934
0.2382
0.247219
0.256391
0.265715
0.275188
0.284805
0.294565
0.304461
0.314491
0.32465
0.334932
0.345332
0.355844
0.366462
0.37718
0.387991
0.398887
0.409861
0.420906
0.432013
0.443174
0.454381
0.465625
0.476897
0.488188
0.49949
0.510792
0.522087
0.533363
0.544613
0.555826
0.566993
0.578105
0.58915
0.60012
0.611005
0.621794
0.632477
0.643043
0.653484
0.663792
0.673961
0.683992
0.693899
0.703718
0.713422
0.722903
0.732163
0.7412
0.750006
0.758569
0.76688
0.774927
0.782699
0.790186
0.797378
0.804265
0.810838
0.817088
0.823006
0.828585
0.833816
0.838694
0.843212
0.847363
0.851143
0.854548
0.857573
0.860215
0.862472
0.86434
0.86582
0.86691
0.86761
0.86792
0.867842
0.867379
0.866532
0.865305
0.863702
0.861728
0.859388
0.856688
0.853634
0.850234
0.846496
0.842428
0.838038
0.833336
0.828333
0.823038
0.817462
0.811617
0.805514
0.799165
0.792582
0.785777
0.778764
0.771556
0.764164
0.756602
0.748886
0.741026
0.733038
0.724936
0.71672
0.708438
0.700061
0.691657
0.683301
0.675828
0.671877
0.668461
0.665055
0.661633
0.658196
0.654741
0.651262
0.647739
0.644126
0.640321
0.636095
0.630846
0.6231
0.606348
0.00256314
0.0108612
0.0164103
0.0208334
0.0249979
0.0290934
0.0333507
0.037934
0.0429069
0.0482572
0.0539268
0.0598654
0.0660256
0.072363
0.0788365
0.0854085
0.0920439
0.0987101
0.105377
0.112017
0.118604
0.125115
0.131527
0.137818
0.143964
0.149946
0.155744
0.161345
0.166744
0.171947
0.176969
0.181833
0.186564
0.191222
0.196064
0.201682
0.20804
0.215129
0.22239
0.230756
0.240551
0.250238
0.260341
0.272346
0.284453
0.296149
0.308143
0.320544
0.333328
0.346471
0.359957
0.373776
0.387921
0.402388
0.417175
0.432279
0.447698
0.463431
0.479474
0.495827
0.512485
0.529447
0.546708
0.564263
0.582109
0.600239
0.618647
0.637327
0.65627
0.675469
0.694915
0.714598
0.734507
0.754633
0.774963
0.795485
0.816187
0.837055
0.858076
0.879237
0.900522
0.921917
0.943407
0.964977
0.986612
1.00829
1.03001
1.05174
1.07347
1.09519
1.11687
1.13851
1.16008
1.18156
1.20294
1.2242
1.24532
1.26627
1.28704
1.30755
1.3276
1.34736
1.36683
1.386
1.40485
1.42336
1.4415
1.45925
1.47659
1.49351
1.50997
1.52597
1.54147
1.55646
1.57092
1.58483
1.59817
1.61094
1.6231
1.63466
1.64558
1.65587
1.6655
1.67448
1.68278
1.6904
1.69733
1.70357
1.7091
1.71394
1.71806
1.72148
1.72418
1.72618
1.72747
1.72806
1.72795
1.72715
1.72567
1.7235
1.72067
1.71719
1.71306
1.70829
1.70291
1.69693
1.69036
1.68323
1.67554
1.66732
1.65859
1.64937
1.63968
1.62954
1.61897
1.608
1.59666
1.58495
1.57292
1.56059
1.54794
1.53509
1.52194
1.50866
1.49532
1.48208
1.4694
1.4568
1.44416
1.43147
1.41875
1.40601
1.39326
1.3805
1.36771
1.35485
1.34178
1.32835
1.31335
1.29391
0.00514376
0.018061
0.025628
0.0314299
0.0365453
0.0415006
0.0465552
0.0518515
0.0574536
0.0633701
0.0695761
0.076034
0.0827033
0.0895459
0.0965274
0.103618
0.110791
0.118023
0.125296
0.132593
0.139902
0.147212
0.154515
0.161807
0.169087
0.176358
0.18363
0.190924
0.198271
0.205719
0.21333
0.221182
0.229367
0.237985
0.247133
0.256877
0.267274
0.278307
0.289873
0.302181
0.315362
0.329117
0.343339
0.358149
0.373362
0.388851
0.404721
0.421027
0.437771
0.454947
0.472545
0.490556
0.508975
0.527795
0.547013
0.566625
0.586627
0.607017
0.62779
0.648942
0.67047
0.692368
0.714632
0.737256
0.760232
0.783553
0.807212
0.8312
0.855506
0.88012
0.90503
0.930226
0.955692
0.981416
1.00738
1.03358
1.05999
1.08659
1.11337
1.14032
1.1674
1.19461
1.22193
1.24934
1.27681
1.30432
1.33187
1.35942
1.38697
1.41447
1.44193
1.46931
1.49659
1.52377
1.5508
1.57769
1.60439
1.63091
1.65722
1.68315
1.70873
1.73396
1.75883
1.78332
1.8074
1.83104
1.85421
1.87688
1.89903
1.92062
1.94164
1.96205
1.98183
2.00095
2.01938
2.03712
2.05412
2.07038
2.08587
2.10057
2.11447
2.12754
2.13977
2.15115
2.16167
2.17132
2.18008
2.18794
2.19491
2.20097
2.20612
2.21036
2.21369
2.21611
2.21763
2.21824
2.21796
2.21678
2.21473
2.21181
2.20804
2.20342
2.19798
2.19172
2.18468
2.17686
2.16829
2.159
2.14899
2.13831
2.12697
2.115
2.10242
2.08927
2.07558
2.06135
2.04666
2.0315
2.01591
1.99995
1.98354
1.96695
1.95007
1.93298
1.91575
1.89852
1.88148
1.86448
1.84743
1.83033
1.81321
1.79608
1.77899
1.76194
1.74495
1.72805
1.71123
1.69455
1.67746
1.65956
0.00824745
0.024907
0.0341807
0.0409431
0.0468479
0.0524798
0.0581257
0.0639422
0.0700085
0.0763516
0.0829656
0.0898266
0.096904
0.104167
0.111586
0.119138
0.126804
0.134568
0.14242
0.150353
0.158363
0.166453
0.174625
0.18289
0.191258
0.199751
0.208394
0.217221
0.226277
0.235617
0.245302
0.255403
0.265988
0.277127
0.28887
0.301252
0.314292
0.32799
0.342335
0.357362
0.373082
0.389404
0.406255
0.423621
0.441458
0.459723
0.478426
0.497588
0.517216
0.537311
0.557873
0.578897
0.600381
0.622322
0.644716
0.667562
0.690857
0.714597
0.738779
0.763401
0.788458
0.813945
0.839858
0.866189
0.892933
0.920082
0.947626
0.975557
1.00386
1.03253
1.06155
1.09091
1.12059
1.15058
1.18086
1.21141
1.24222
1.27326
1.30452
1.33597
1.36759
1.39937
1.43127
1.46328
1.49537
1.52752
1.55971
1.59191
1.6241
1.65625
1.68835
1.72036
1.75226
1.78403
1.81565
1.8471
1.87834
1.90937
1.9401
1.97044
2.00039
2.02994
2.05907
2.08774
2.11593
2.14359
2.17069
2.1972
2.22309
2.24832
2.27287
2.29669
2.31976
2.34205
2.36353
2.38418
2.40396
2.42285
2.44083
2.45787
2.47396
2.48908
2.5032
2.51631
2.5284
2.53946
2.54946
2.55842
2.56631
2.57313
2.57887
2.58355
2.58715
2.58967
2.59113
2.59153
2.59087
2.58917
2.58643
2.58267
2.57791
2.57216
2.56544
2.55777
2.54918
2.53968
2.5293
2.51806
2.506
2.49314
2.47952
2.46516
2.45009
2.43436
2.41799
2.40098
2.38345
2.36536
2.34677
2.3278
2.30841
2.28871
2.26869
2.24843
2.22798
2.20745
2.18696
2.16646
2.14591
2.12533
2.10473
2.08417
2.06367
2.0433
2.0231
2.00316
1.98359
1.96459
1.94598
1.92793
0.011358
0.0312675
0.0418601
0.0495305
0.0561391
0.0623453
0.0684709
0.0746943
0.0811133
0.0877735
0.0946865
0.101843
0.109224
0.116807
0.124571
0.132496
0.140571
0.148785
0.157134
0.16562
0.174246
0.18302
0.191957
0.201073
0.21039
0.219935
0.229744
0.239855
0.250317
0.26118
0.272501
0.284333
0.296729
0.309732
0.323376
0.33768
0.352653
0.368295
0.3846
0.401569
0.419187
0.437414
0.45621
0.47555
0.495412
0.515776
0.53664
0.558009
0.579886
0.602276
0.625179
0.648596
0.672526
0.69697
0.721926
0.747394
0.773372
0.79986
0.826855
0.854355
0.882356
0.910856
0.939849
0.96933
0.999292
1.02973
1.06063
1.09198
1.12378
1.15601
1.18866
1.22171
1.25514
1.28894
1.32309
1.35757
1.39236
1.42743
1.46277
1.49835
1.53413
1.57011
1.60625
1.64252
1.67889
1.71535
1.75186
1.7884
1.82493
1.86143
1.89786
1.93422
1.97045
2.00654
2.04246
2.07819
2.11368
2.14893
2.18378
2.21821
2.25221
2.28575
2.31881
2.35133
2.38329
2.41465
2.44537
2.47541
2.50472
2.53328
2.56104
2.58797
2.61404
2.63921
2.66344
2.68671
2.70899
2.73024
2.75045
2.76958
2.78761
2.80452
2.82029
2.8349
2.84835
2.8606
2.87166
2.88151
2.89014
2.89755
2.90373
2.90869
2.91242
2.91493
2.91622
2.9163
2.91519
2.91288
2.9094
2.90476
2.89898
2.89208
2.88408
2.875
2.86487
2.85372
2.84158
2.82847
2.81443
2.79948
2.78368
2.76704
2.7496
2.73142
2.71253
2.69289
2.6727
2.65194
2.63064
2.60887
2.58666
2.56407
2.54113
2.5179
2.49445
2.47087
2.44723
2.42354
2.3998
2.37604
2.35228
2.32859
2.30502
2.28164
2.25856
2.23592
2.21388
2.19274
2.17246
2.15324
0.0142822
0.0367621
0.0486101
0.0571226
0.0643695
0.071082
0.0776164
0.0841732
0.0908686
0.097766
0.104894
0.112258
0.119851
0.127661
0.135674
0.143877
0.152264
0.16083
0.169577
0.178509
0.187638
0.196978
0.206547
0.216368
0.226468
0.236879
0.247639
0.258788
0.270371
0.282435
0.295026
0.308187
0.321955
0.336362
0.351427
0.367165
0.38358
0.400672
0.418434
0.43686
0.455936
0.475641
0.495951
0.516848
0.538319
0.560352
0.582944
0.606095
0.629809
0.654089
0.678937
0.704358
0.730352
0.756923
0.784071
0.811799
0.840107
0.868997
0.898466
0.928516
0.959144
0.990347
1.02212
1.05446
1.08737
1.12082
1.15482
1.18936
1.22442
1.25999
1.29605
1.33259
1.36959
1.40703
1.44489
1.48315
1.52177
1.56075
1.60004
1.63962
1.67947
1.71955
1.75983
1.80027
1.84086
1.88155
1.92231
1.96312
2.00393
2.04472
2.08545
2.12608
2.1666
2.20695
2.24712
2.28706
2.32674
2.36611
2.40502
2.44347
2.48143
2.51887
2.55576
2.59205
2.62769
2.66265
2.69688
2.73033
2.76296
2.79474
2.82561
2.85554
2.88449
2.91242
2.93929
2.96507
2.98972
3.01322
3.03553
3.05663
3.07648
3.09507
3.11237
3.12837
3.14305
3.1564
3.16839
3.17903
3.1883
3.19619
3.20272
3.20786
3.21164
3.21404
3.21509
3.21478
3.21313
3.21015
3.20587
3.20029
3.19344
3.18535
3.17603
3.16552
3.15384
3.14102
3.12711
3.11213
3.09611
3.07908
3.06112
3.04225
3.02245
3.00186
2.98052
2.95843
2.93567
2.9123
2.88834
2.86385
2.83888
2.81348
2.78771
2.76161
2.73525
2.70871
2.68205
2.65531
2.62852
2.60171
2.57494
2.54826
2.52175
2.49552
2.46969
2.44445
2.42001
2.39669
2.37447
2.35348
0.0167932
0.0414857
0.0544194
0.0636722
0.071481
0.0786349
0.0855184
0.0923506
0.0992637
0.106337
0.113613
0.121113
0.128842
0.136797
0.144973
0.153365
0.161972
0.170793
0.179836
0.189109
0.198628
0.208411
0.218479
0.22886
0.239583
0.250681
0.262191
0.274153
0.286606
0.299592
0.313147
0.327308
0.342102
0.357553
0.373677
0.390482
0.407973
0.42615
0.44501
0.464547
0.484752
0.505615
0.527121
0.549261
0.572027
0.595412
0.619416
0.64404
0.669286
0.69516
0.721667
0.74881
0.776596
0.80503
0.834114
0.863854
0.894253
0.925313
0.957036
0.989424
1.02248
1.05619
1.09057
1.1256
1.16128
1.19761
1.23457
1.27216
1.31037
1.34917
1.38855
1.4285
1.469
1.51002
1.55153
1.59352
1.63595
1.6788
1.72203
1.76561
1.80951
1.85369
1.89811
1.94274
1.98755
2.03249
2.07753
2.12262
2.16774
2.21284
2.25788
2.30282
2.34764
2.39228
2.43671
2.48089
2.52478
2.56823
2.6112
2.65365
2.69556
2.73688
2.77758
2.8176
2.85689
2.89541
2.93311
2.96994
3.00584
3.04078
3.0747
3.10757
3.13933
3.16995
3.19938
3.2276
3.25455
3.28022
3.30455
3.32753
3.34912
3.3693
3.38804
3.40534
3.42116
3.43551
3.44835
3.45969
3.46951
3.47781
3.48458
3.48983
3.49357
3.49579
3.49651
3.49574
3.4935
3.48979
3.48464
3.47807
3.4701
3.46076
3.45009
3.43811
3.42484
3.41032
3.39461
3.37775
3.35974
3.34061
3.3205
3.2994
3.27734
3.25441
3.23065
3.2061
3.18081
3.15485
3.12826
3.10109
3.0734
3.04524
3.01667
2.98774
2.95852
2.92908
2.89948
2.86978
2.84002
2.81025
2.78053
2.75094
2.72158
2.69257
2.66406
2.63625
2.60939
2.58377
2.55938
2.53624
0.0189378
0.0454564
0.0592897
0.0691635
0.0774458
0.0849703
0.0921428
0.0991962
0.106275
0.113472
0.120843
0.12842
0.136221
0.144253
0.152519
0.161022
0.169766
0.178755
0.188001
0.197517
0.207319
0.21743
0.227873
0.238677
0.249871
0.261488
0.273564
0.286134
0.299233
0.312898
0.32716
0.342047
0.357585
0.373791
0.390681
0.408262
0.42654
0.445519
0.465197
0.485574
0.506645
0.528408
0.550856
0.573985
0.597794
0.622282
0.64745
0.673301
0.699842
0.727079
0.755019
0.78367
0.81304
0.843136
0.873964
0.905533
0.937848
0.970914
1.00473
1.03931
1.07465
1.11075
1.14761
1.18523
1.2236
1.26272
1.30257
1.34315
1.38444
1.42643
1.4691
1.51244
1.55641
1.60099
1.64616
1.69188
1.73813
1.78487
1.83206
1.87966
1.92764
1.97596
2.02457
2.07343
2.1225
2.17173
2.22108
2.27051
2.31996
2.36941
2.4188
2.46809
2.51723
2.56618
2.61489
2.66332
2.71141
2.75897
2.80599
2.85244
2.89828
2.94347
2.98795
3.03167
3.07458
3.11663
3.15774
3.19789
3.237
3.27504
3.31195
3.34767
3.38218
3.41541
3.44732
3.47789
3.50705
3.53479
3.56105
3.58582
3.60905
3.63072
3.65081
3.66931
3.68618
3.70142
3.71502
3.72696
3.73724
3.74585
3.75279
3.75806
3.76167
3.76363
3.76396
3.76265
3.75973
3.75523
3.74915
3.74153
3.73239
3.72176
3.70969
3.69621
3.68133
3.66506
3.64754
3.62878
3.60881
3.58765
3.56541
3.54211
3.5178
3.49254
3.46639
3.43939
3.4116
3.38308
3.35389
3.32408
3.2937
3.26283
3.2315
3.19979
3.16776
3.13547
3.103
3.07041
3.03774
3.00508
2.97249
2.94006
2.90791
2.87616
2.845
2.81464
2.78531
2.7573
2.73053
2.70503
0.0206995
0.048687
0.0632367
0.0736076
0.082269
0.0900883
0.0974866
0.104707
0.111903
0.119177
0.126595
0.1342
0.14202
0.150073
0.158368
0.166916
0.175725
0.184806
0.194172
0.20384
0.213829
0.224161
0.234863
0.245961
0.257485
0.269467
0.281938
0.294932
0.30848
0.322613
0.337359
0.352744
0.368789
0.385513
0.402929
0.421048
0.439878
0.459426
0.479695
0.500689
0.52241
0.54486
0.568039
0.591951
0.616598
0.641984
0.668116
0.695
0.722646
0.751062
0.78026
0.81025
0.841042
0.872648
0.905077
0.93834
0.972445
1.0074
1.04321
1.07989
1.11742
1.15583
1.19511
1.23525
1.27625
1.31812
1.36082
1.40437
1.44873
1.49391
1.53986
1.58658
1.63404
1.68221
1.73105
1.78054
1.83064
1.8813
1.93249
1.98415
2.03626
2.08875
2.14159
2.19471
2.24807
2.30162
2.35532
2.4091
2.46292
2.51673
2.57048
2.62411
2.67759
2.73085
2.78385
2.83655
2.88874
2.94037
2.9914
3.04181
3.09153
3.14052
3.18872
3.23608
3.28252
3.328
3.37245
3.41582
3.45804
3.49907
3.53884
3.57732
3.61444
3.65016
3.68443
3.71722
3.74847
3.77815
3.80622
3.83264
3.85738
3.88042
3.90173
3.92129
3.93909
3.95511
3.96935
3.98178
3.9924
4.00121
4.00821
4.01341
4.01681
4.01842
4.01826
4.01633
4.01268
4.00731
4.00025
3.99153
3.98116
3.9692
3.95569
3.94068
3.92418
3.90624
3.88692
3.86628
3.84435
3.82118
3.79683
3.77136
3.74482
3.71726
3.68876
3.65935
3.62911
3.59808
3.56634
3.53394
3.50095
3.46741
3.4334
3.39897
3.36419
3.32913
3.29386
3.25846
3.22298
3.18751
3.15212
3.11693
3.08205
3.04763
3.01385
2.98094
2.94913
2.91865
2.8894
2.86141
0.022078
0.0512077
0.0662986
0.0770441
0.0859887
0.0940246
0.101583
0.108915
0.116179
0.123485
0.130908
0.138499
0.146294
0.154319
0.162592
0.171128
0.179941
0.189046
0.198459
0.208198
0.218285
0.228741
0.239593
0.250867
0.262592
0.274796
0.28751
0.300764
0.314586
0.329005
0.344047
0.359736
0.376092
0.393135
0.41088
0.429341
0.44853
0.468456
0.48913
0.510559
0.53275
0.555712
0.579452
0.603978
0.629299
0.655424
0.682363
0.710129
0.738734
0.768192
0.798516
0.829721
0.861821
0.894831
0.928764
0.963633
0.99945
1.03623
1.07397
1.11269
1.15238
1.19307
1.23473
1.27738
1.32101
1.36562
1.41119
1.45771
1.50517
1.55354
1.60281
1.65295
1.70393
1.75571
1.80827
1.86155
1.91553
1.97015
2.02537
2.08113
2.13739
2.19408
2.25115
2.30855
2.36621
2.42408
2.48211
2.54023
2.59839
2.65653
2.71461
2.77255
2.83031
2.88783
2.94505
3.00186
3.05808
3.11368
3.16863
3.22287
3.27635
3.32902
3.3808
3.43165
3.48148
3.53024
3.57785
3.62427
3.66943
3.71327
3.75573
3.79677
3.83632
3.87435
3.91079
3.94561
3.97876
4.01021
4.0399
4.0678
4.09387
4.1181
4.14046
4.16093
4.17949
4.19614
4.21086
4.22364
4.23448
4.24336
4.2503
4.2553
4.25837
4.25953
4.2588
4.25618
4.2517
4.2454
4.23731
4.22744
4.21584
4.20255
4.18761
4.17107
4.15296
4.13333
4.11225
4.08975
4.0659
4.04074
4.01434
3.98675
3.95803
3.92825
3.89745
3.86571
3.83308
3.79964
3.76543
3.73053
3.695
3.65889
3.62228
3.58523
3.54781
3.51008
3.47212
3.43402
3.39583
3.35765
3.31958
3.28171
3.24419
3.20717
3.17084
3.13542
3.10112
3.06814
3.03636
3.00584
0.0230882
0.0530667
0.0685354
0.0795387
0.0886729
0.0968474
0.104501
0.111887
0.119171
0.126466
0.133853
0.14139
0.149122
0.157078
0.165284
0.17376
0.182524
0.191594
0.200988
0.210726
0.220829
0.23132
0.242223
0.253566
0.265374
0.277674
0.290496
0.303867
0.317814
0.332365
0.347543
0.363374
0.379879
0.39708
0.414994
0.433639
0.453031
0.473185
0.494115
0.515835
0.538358
0.561699
0.58587
0.610886
0.636761
0.663511
0.69115
0.719696
0.749167
0.779579
0.810951
0.843302
0.876651
0.911014
0.946409
0.982853
1.02036
1.05894
1.09861
1.13938
1.18125
1.22423
1.26831
1.3135
1.3598
1.40719
1.45566
1.50521
1.55581
1.60743
1.66006
1.71367
1.76821
1.82366
1.87996
1.93708
1.99496
2.05356
2.11282
2.17269
2.23309
2.29397
2.35526
2.41689
2.47881
2.54095
2.60323
2.66561
2.72802
2.7904
2.85268
2.91481
2.97673
3.03836
3.09966
3.16035
3.22041
3.27978
3.33843
3.3963
3.45332
3.50943
3.56457
3.61867
3.67164
3.72342
3.77394
3.82315
3.87097
3.91736
3.96224
4.00557
4.04729
4.08735
4.12569
4.16229
4.19708
4.23005
4.26112
4.29025
4.31742
4.34261
4.3658
4.38696
4.40608
4.42316
4.43818
4.45114
4.46202
4.47082
4.47755
4.48222
4.48485
4.48546
4.48405
4.48066
4.47531
4.46804
4.45887
4.44784
4.43498
4.42035
4.40399
4.38593
4.36624
4.34496
4.32214
4.29785
4.27214
4.24506
4.21667
4.18705
4.15624
4.12432
4.09134
4.05737
4.02247
3.98672
3.95017
3.91289
3.87495
3.83641
3.79734
3.7578
3.71787
3.67762
3.63711
3.59645
3.5557
3.51495
3.47432
3.43391
3.39387
3.35435
3.31555
3.27768
3.24094
3.20549
3.17119
3.13816
0.0237581
0.0543267
0.0700248
0.0811775
0.0904126
0.0986502
0.106333
0.113718
0.120972
0.128213
0.135526
0.142974
0.150606
0.158458
0.166558
0.174932
0.1836
0.192582
0.201898
0.211569
0.221616
0.232062
0.24293
0.254245
0.266034
0.278322
0.291137
0.304505
0.318453
0.333008
0.348196
0.364042
0.38057
0.397804
0.415766
0.434477
0.453959
0.474232
0.495315
0.517229
0.539994
0.563629
0.588155
0.613591
0.639959
0.667279
0.695572
0.724862
0.755169
0.786518
0.81893
0.852429
0.887038
0.922777
0.959667
0.997728
1.03698
1.07743
1.1191
1.16199
1.20612
1.25148
1.29807
1.3459
1.39495
1.44522
1.4967
1.54935
1.60318
1.65813
1.7142
1.77133
1.82949
1.88863
1.94872
2.00969
2.07148
2.13405
2.19733
2.26125
2.32574
2.39074
2.45616
2.52192
2.58797
2.65422
2.72061
2.78707
2.85354
2.91995
2.98623
3.05232
3.11816
3.18368
3.24862
3.31291
3.3765
3.43934
3.50136
3.56251
3.62271
3.68192
3.74006
3.79705
3.85279
3.90721
3.96027
4.01188
4.062
4.11055
4.15748
4.20273
4.24625
4.28798
4.32787
4.36589
4.40198
4.43614
4.46828
4.49834
4.5263
4.55216
4.5759
4.59748
4.61692
4.63418
4.64927
4.66219
4.67292
4.68147
4.68784
4.69205
4.69412
4.69407
4.69191
4.68768
4.6814
4.6731
4.66283
4.65062
4.63651
4.62054
4.60277
4.58324
4.56201
4.53913
4.51466
4.48865
4.46116
4.43226
4.402
4.37046
4.33769
4.30377
4.26874
4.2327
4.19569
4.15779
4.11906
4.07958
4.0394
3.9986
3.95725
3.91541
3.87315
3.83055
3.78769
3.74465
3.70151
3.65838
3.61537
3.57258
3.53017
3.4883
3.44716
3.40695
3.36785
3.33001
3.29328
3.2578
0.0241275
0.0550617
0.0708572
0.0820613
0.0913152
0.0995446
0.107194
0.114523
0.1217
0.128846
0.136047
0.143372
0.150872
0.158586
0.166546
0.17478
0.183311
0.192159
0.201346
0.210893
0.220821
0.231153
0.241911
0.25312
0.264805
0.276993
0.28971
0.302982
0.316838
0.331305
0.346411
0.362184
0.378651
0.395838
0.413774
0.432484
0.451996
0.472334
0.493527
0.5156
0.538581
0.562496
0.587371
0.613236
0.640115
0.668036
0.697026
0.727113
0.758325
0.790689
0.824233
0.858983
0.894967
0.932208
0.97073
1.01055
1.0517
1.09419
1.13802
1.18322
1.22978
1.2777
1.32698
1.37761
1.42958
1.48289
1.5375
1.59341
1.65057
1.70896
1.76854
1.82926
1.89109
1.95396
2.01782
2.08261
2.14827
2.21473
2.28193
2.34978
2.41823
2.48719
2.55654
2.62622
2.69615
2.76625
2.83645
2.90669
2.97689
3.04698
3.1169
3.18659
3.25597
3.32479
3.39295
3.46038
3.52704
3.59285
3.65775
3.72168
3.78457
3.84636
3.90698
3.96638
4.02437
4.08093
4.13599
4.1895
4.2414
4.29161
4.34009
4.38678
4.43162
4.47455
4.51554
4.55453
4.59149
4.62638
4.65915
4.68975
4.71816
4.74435
4.76831
4.79003
4.8095
4.82669
4.84162
4.85427
4.86465
4.87276
4.87861
4.88221
4.88359
4.88277
4.87977
4.87462
4.86735
4.858
4.8466
4.8332
4.81784
4.80058
4.78145
4.76051
4.73781
4.71342
4.68739
4.65978
4.63065
4.60007
4.56809
4.53479
4.50024
4.46449
4.42761
4.38969
4.35077
4.31093
4.27024
4.22877
4.18659
4.14376
4.10035
4.05644
4.01209
3.96738
3.92239
3.87721
3.83192
3.78663
3.74145
3.69649
3.65191
3.60788
3.56456
3.52217
3.48085
3.44076
3.40172
3.36393
0.0242457
0.0553538
0.0711314
0.0822995
0.0914978
0.0996528
0.107211
0.114431
0.121486
0.128496
0.135551
0.142721
0.150058
0.157605
0.165395
0.173457
0.181815
0.190491
0.199507
0.208884
0.218642
0.228806
0.239398
0.250442
0.261964
0.273991
0.28655
0.29967
0.31338
0.32771
0.342691
0.358355
0.374732
0.391856
0.409758
0.428471
0.448028
0.468462
0.489807
0.512096
0.535365
0.559649
0.584982
0.611399
0.638934
0.667617
0.697481
0.72856
0.760885
0.79449
0.829406
0.865663
0.903289
0.94231
0.982752
1.02463
1.06798
1.1128
1.15911
1.20693
1.25622
1.307
1.35923
1.41292
1.46806
1.52461
1.58256
1.64187
1.70251
1.76444
1.82761
1.89196
1.95745
2.024
2.09157
2.16007
2.22944
2.29961
2.37049
2.44202
2.51412
2.58676
2.6597
2.73289
2.80627
2.87977
2.95332
3.02683
3.10025
3.1735
3.24651
3.31923
3.39136
3.46282
3.53354
3.60346
3.67251
3.74061
3.80771
3.87373
3.9386
4.00226
4.06463
4.12563
4.18517
4.24318
4.29959
4.35435
4.40739
4.45865
4.50807
4.5556
4.60118
4.64476
4.6863
4.72575
4.76307
4.79822
4.83117
4.86187
4.8903
4.91644
4.94027
4.96177
4.98094
4.99777
5.01225
5.02439
5.03419
5.04166
5.04681
5.04965
5.05021
5.04851
5.04458
5.03844
5.03014
5.01971
5.00719
4.99262
4.97606
4.95754
4.93713
4.91487
4.89083
4.86505
4.83761
4.80855
4.77796
4.74588
4.71239
4.67754
4.64142
4.60408
4.5656
4.52604
4.48548
4.44397
4.40159
4.35841
4.3145
4.26992
4.22475
4.17905
4.1329
4.08637
4.03954
3.9925
3.94534
3.89816
3.85108
3.80421
3.75772
3.71175
3.66648
3.6221
3.57877
3.53661
3.49546
3.45553
0.02417
0.0552896
0.0709496
0.0820048
0.0910805
0.099101
0.106513
0.113577
0.120467
0.127305
0.134182
0.141168
0.148317
0.155673
0.163268
0.171132
0.179291
0.187767
0.196581
0.205756
0.215315
0.225279
0.235675
0.246526
0.257862
0.269709
0.282098
0.295062
0.308631
0.322842
0.337728
0.353326
0.369675
0.386814
0.404781
0.423616
0.443358
0.464048
0.485729
0.508443
0.532235
0.557148
0.583228
0.610519
0.639062
0.668884
0.70002
0.732509
0.766388
0.801692
0.838455
0.876707
0.916475
0.957783
1.00065
1.0451
1.09114
1.13879
1.18806
1.23898
1.29149
1.34552
1.40109
1.45818
1.51677
1.57682
1.6383
1.70117
1.76539
1.83089
1.89763
1.96554
2.03457
2.10463
2.17566
2.24758
2.32031
2.39378
2.4679
2.54259
2.61776
2.69334
2.76919
2.84523
2.92138
2.99756
3.07371
3.14975
3.22561
3.30124
3.3765
3.45115
3.52512
3.59834
3.67073
3.74223
3.81276
3.88225
3.95064
4.01784
4.08379
4.14843
4.21167
4.27345
4.33368
4.3923
4.44925
4.50445
4.55785
4.60939
4.65902
4.70667
4.75231
4.79588
4.83733
4.87662
4.91372
4.94859
4.9812
5.0115
5.03948
5.06512
5.08839
5.1093
5.12782
5.14395
5.1577
5.16907
5.17805
5.18467
5.18893
5.19086
5.19047
5.18779
5.18286
5.1757
5.16634
5.15484
5.14122
5.12554
5.10784
5.08818
5.0666
5.04316
5.01792
4.99094
4.96228
4.932
4.90016
4.86683
4.83208
4.79596
4.75855
4.71992
4.68013
4.63926
4.59736
4.55451
4.51078
4.46623
4.42093
4.37495
4.32835
4.28122
4.23361
4.18561
4.13728
4.08873
4.04003
3.9913
3.94264
3.89418
3.84606
3.79844
3.7515
3.7054
3.6603
3.61632
3.57329
3.53145
0.0239537
0.0549455
0.0703965
0.0812661
0.0901541
0.0979801
0.105191
0.112051
0.118734
0.125362
0.132029
0.138803
0.145738
0.152878
0.160256
0.167902
0.175843
0.184101
0.1927
0.201663
0.211016
0.220784
0.230993
0.241673
0.252855
0.264572
0.276858
0.289751
0.303289
0.317514
0.332466
0.348191
0.364737
0.382152
0.400488
0.419791
0.440104
0.461477
0.483964
0.507619
0.532495
0.558648
0.586132
0.615011
0.645359
0.677133
0.710376
0.745138
0.781458
0.819371
0.858904
0.900079
0.942916
0.987429
1.03363
1.08151
1.13109
1.18235
1.23529
1.2899
1.34613
1.40394
1.4633
1.52418
1.58653
1.65032
1.71548
1.78198
1.84974
1.91872
1.98884
2.06004
2.13224
2.20537
2.27935
2.35411
2.42956
2.50561
2.58219
2.65921
2.73658
2.81422
2.89202
2.96991
3.0478
3.12563
3.20331
3.28079
3.358
3.43469
3.51076
3.58613
3.66073
3.73449
3.80733
3.87919
3.94999
4.01966
4.08813
4.15535
4.22122
4.2857
4.34871
4.41018
4.47004
4.52823
4.58469
4.63935
4.69216
4.74306
4.792
4.83892
4.88378
4.92653
4.96714
5.00556
5.04175
5.07568
5.10732
5.13665
5.16363
5.18825
5.2105
5.23036
5.24783
5.2629
5.27558
5.28587
5.29377
5.2993
5.30248
5.30332
5.30185
5.29809
5.29208
5.28384
5.27342
5.26085
5.24618
5.22945
5.21071
5.19001
5.16741
5.14296
5.11671
5.08873
5.05907
5.0278
4.99498
4.96068
4.92495
4.88787
4.8495
4.8099
4.76915
4.7273
4.68443
4.6406
4.59588
4.55034
4.50403
4.45703
4.40941
4.36122
4.31254
4.26344
4.21401
4.16431
4.11445
4.06452
4.01464
3.96493
3.91552
3.86657
3.81825
3.77073
3.72414
3.67861
3.63397
3.5905
0.0237143
0.0544659
0.0696383
0.0802645
0.0889133
0.0964998
0.103473
0.110098
0.116551
0.122954
0.1294
0.135957
0.14268
0.14961
0.156783
0.164229
0.171977
0.180053
0.188485
0.197299
0.206526
0.216196
0.226343
0.237003
0.248215
0.26002
0.272462
0.285588
0.299452
0.314105
0.329592
0.345971
0.363307
0.381668
0.401138
0.421768
0.443562
0.466599
0.490949
0.516675
0.543836
0.572489
0.602689
0.634485
0.667919
0.703007
0.739771
0.778236
0.818422
0.860344
0.90401
0.94942
0.996572
1.04545
1.09605
1.14835
1.20232
1.25794
1.31517
1.37397
1.43431
1.49611