/*--------------------------------*- C++ -*----------------------------------*\
  =========                 |
  \\      /  F ield         | OpenFOAM: The Open Source CFD Toolbox
   \\    /   O peration     | Website:  https://openfoam.org
    \\  /    A nd           | Version:  12
     \\/     M anipulation  |
\*---------------------------------------------------------------------------*/
FoamFile
{
    format      ascii;
    class       volScalarField;
    location    "0.27";
    object      nut;
}
// * * * * * * * * * * * * * * * * * * * * * * * * * * * * * * * * * * * * * //

dimensions      [0 2 -1 0 0 0 0];

internalField   nonuniform List<scalar> 
12225
(
4.04768e-05
3.83178e-05
3.62504e-05
3.44199e-05
3.29519e-05
3.18976e-05
3.12561e-05
3.09935e-05
3.10578e-05
3.13897e-05
3.19306e-05
3.26266e-05
3.34314e-05
3.43065e-05
3.52226e-05
3.61553e-05
3.71094e-05
3.84908e-05
0.000281048
0.000209266
0.000176267
0.00015744
0.000146272
0.000139688
0.000135794
0.000133431
0.000131916
0.000130859
0.000130045
0.000129358
0.00012874
0.000128162
0.000127623
0.00012708
0.000126683
0.000125737
0.000556048
0.000419908
0.000349817
0.000304738
0.000272451
0.000247988
0.000228773
0.00021331
0.000200683
0.000190283
0.00018167
0.000174504
0.000168517
0.000163487
0.00015924
0.00015559
0.000152453
0.000149396
0.000740308
0.000625822
0.000544118
0.000485002
0.000439776
0.000403658
0.000373851
0.000348617
0.00032687
0.000307911
0.000291267
0.000276592
0.000263614
0.000252105
0.00024187
0.000232692
0.000224414
0.00021676
0.000817069
0.000759142
0.000700547
0.00064858
0.000603902
0.000565591
0.000532484
0.000503527
0.000477896
0.000454983
0.00043434
0.000415635
0.000398609
0.000383051
0.000368783
0.00035562
0.000343419
0.000332085
0.0008421
0.000819688
0.000789925
0.000757608
0.000725557
0.00069517
0.000666974
0.000641029
0.000617191
0.00059526
0.000575031
0.000556318
0.000538958
0.000522803
0.000507724
0.000493593
0.000480306
0.000467913
0.000849261
0.000841808
0.000829742
0.000814189
0.000796483
0.000777765
0.000758855
0.000740265
0.000722281
0.000705051
0.000688634
0.000673039
0.000658245
0.000644215
0.0006309
0.000618249
0.00060622
0.00059494
0.00085112
0.000848748
0.000844481
0.000838237
0.000830247
0.000820898
0.000810603
0.000799728
0.000788562
0.000777324
0.000766169
0.000755203
0.000744496
0.00073409
0.00072401
0.000714264
0.000704866
0.000695968
0.00085156
0.000850665
0.00084917
0.000846887
0.000843742
0.00083976
0.000835036
0.000829697
0.00082388
0.000817712
0.000811308
0.000804761
0.00079815
0.000791533
0.000784959
0.000778463
0.000772083
0.000765955
0.000851652
0.000851133
0.000850468
0.000849564
0.000848347
0.000846773
0.000844827
0.000842521
0.000839886
0.000836962
0.000833794
0.00083043
0.000826912
0.000823281
0.000819572
0.000815816
0.000812048
0.000808363
0.000851668
0.00085123
0.000850778
0.000850278
0.000849698
0.000849007
0.000848183
0.000847212
0.000846089
0.000844816
0.000843401
0.000841856
0.000840197
0.000838438
0.000836596
0.000834688
0.000832733
0.000830787
0.000851669
0.000851245
0.000850835
0.000850429
0.000850014
0.000849575
0.000849101
0.00084858
0.000848003
0.000847366
0.000846665
0.000845902
0.000845079
0.0008442
0.00084327
0.000842295
0.000841285
0.000840274
0.000851668
0.000851244
0.000850843
0.000850459
0.000850088
0.000849726
0.000849365
0.000849001
0.000848629
0.000848243
0.000847841
0.000847421
0.00084698
0.000846519
0.000846038
0.000845538
0.000845024
0.000844514
0.000851667
0.000851242
0.000850839
0.000850458
0.000850096
0.000849751
0.000849421
0.000849102
0.000848793
0.000848491
0.000848195
0.000847902
0.000847611
0.000847321
0.000847032
0.000846742
0.000846454
0.000846181
0.000851666
0.000851239
0.000850835
0.000850452
0.00085009
0.000849746
0.000849419
0.000849108
0.000848812
0.000848528
0.000848257
0.000847996
0.000847746
0.000847505
0.000847272
0.000847048
0.000846832
0.000846638
0.000851665
0.000851236
0.000850831
0.000850447
0.000850083
0.000849737
0.000849409
0.000849098
0.000848801
0.000848519
0.000848251
0.000847994
0.00084775
0.000847517
0.000847294
0.000847082
0.000846881
0.000846703
0.000851664
0.000851235
0.000850828
0.000850442
0.000850077
0.00084973
0.000849401
0.000849088
0.00084879
0.000848507
0.000848237
0.00084798
0.000847735
0.000847502
0.000847279
0.000847066
0.000846866
0.000846688
0.000851663
0.000851234
0.000850826
0.00085044
0.000850073
0.000849725
0.000849395
0.000849081
0.000848782
0.000848498
0.000848227
0.000847969
0.000847722
0.000847488
0.000847264
0.00084705
0.000846848
0.000846669
0.000851663
0.000851233
0.000850825
0.000850439
0.000850072
0.000849724
0.000849393
0.000849078
0.000848779
0.000848494
0.000848222
0.000847963
0.000847716
0.000847481
0.000847256
0.000847041
0.000846838
0.000846658
0.000851664
0.000851234
0.000850826
0.00085044
0.000850074
0.000849726
0.000849396
0.000849081
0.000848782
0.000848497
0.000848225
0.000847965
0.000847717
0.00084748
0.000847253
0.000847037
0.000846831
0.000846648
0.000851664
0.000851235
0.000850829
0.000850443
0.000850078
0.00084973
0.000849399
0.000849082
0.000848779
0.000848489
0.000848209
0.00084794
0.000847679
0.000847427
0.000847182
0.000846944
0.000846715
0.000846505
0.000851665
0.000851237
0.00085083
0.000850442
0.000850068
0.000849706
0.000849351
0.000848999
0.000848647
0.000848293
0.000847934
0.000847569
0.000847198
0.000846818
0.000846432
0.000846038
0.00084564
0.00084525
0.000851664
0.000851228
0.000850794
0.000850348
0.00084987
0.000849345
0.000848761
0.00084811
0.000847388
0.000846592
0.000845727
0.000844795
0.000843804
0.000842759
0.000841669
0.000840541
0.000839384
0.000838222
0.000851634
0.000851073
0.000850343
0.000849363
0.000848079
0.000846467
0.00084453
0.000842291
0.000839784
0.00083705
0.000834132
0.000831071
0.000827905
0.000824668
0.000821388
0.000818091
0.000814801
0.000811566
0.000851287
0.000849596
0.000846721
0.000842577
0.000837262
0.000830978
0.00082397
0.000816468
0.00080867
0.000800733
0.000792777
0.000784894
0.000777148
0.000769584
0.000762233
0.000755113
0.00074824
0.000741667
0.000848318
0.000839425
0.00082616
0.000810016
0.000792355
0.000774222
0.000756314
0.000739034
0.000722581
0.000707035
0.000692406
0.000678669
0.000665776
0.000653673
0.000642303
0.000631613
0.000621554
0.000612136
0.000828548
0.000788842
0.000746032
0.000705698
0.000669456
0.000637491
0.000609431
0.000584722
0.000562822
0.00054328
0.000525724
0.000509855
0.000495434
0.000482264
0.000470187
0.000459074
0.000448817
0.000439368
0.000730725
0.000627344
0.000554503
0.000501053
0.00046031
0.000428337
0.00040262
0.000381453
0.000363691
0.000348558
0.000335511
0.00032415
0.000314177
0.000305363
0.000297529
0.00029053
0.000284246
0.000278595
0.000439249
0.00033847
0.000287933
0.000256866
0.000236359
0.000222507
0.00021299
0.000206309
0.000201503
0.000197956
0.000195269
0.000193175
0.000191498
0.000190115
0.000188946
0.000187932
0.000187036
0.000186209
7.16431e-05
6.90587e-05
6.65522e-05
6.41646e-05
6.19883e-05
6.00784e-05
5.84565e-05
5.71213e-05
5.60572e-05
5.52404e-05
5.46438e-05
5.42396e-05
5.40011e-05
5.39034e-05
5.39239e-05
5.40425e-05
5.42418e-05
5.45055e-05
2.08887e-07
5.4132e-06
8.97758e-06
1.21016e-05
1.52694e-05
1.90435e-05
2.34255e-05
2.85523e-05
3.45751e-05
4.14273e-05
4.86582e-05
5.62811e-05
6.42405e-05
7.24647e-05
8.08818e-05
8.94231e-05
9.80238e-05
0.000106622
0.00011516
0.000123581
0.000131834
0.000139867
0.000147631
0.000155075
0.000162142
0.000168771
0.000174896
0.000180451
0.000185377
0.000189622
0.000193134
0.0001958
0.000197355
0.000197344
0.000195841
0.000196402
0.000197038
0.0001961
0.000196713
0.00019505
0.000197309
4.75418e-05
4.75672e-05
4.73697e-05
4.80669e-05
4.91142e-05
5.01946e-05
5.12846e-05
5.23796e-05
5.34767e-05
5.45741e-05
5.56708e-05
5.67659e-05
5.7859e-05
5.89495e-05
6.00372e-05
6.11217e-05
6.22027e-05
6.32801e-05
6.43534e-05
6.54225e-05
6.6487e-05
6.75465e-05
6.86008e-05
6.96494e-05
7.06921e-05
7.17283e-05
7.27578e-05
7.378e-05
7.47946e-05
7.58011e-05
7.6799e-05
7.7788e-05
7.87675e-05
7.9737e-05
8.06963e-05
8.16446e-05
8.25818e-05
8.35072e-05
8.44204e-05
8.53211e-05
8.62088e-05
8.70831e-05
8.79436e-05
8.87898e-05
8.96215e-05
9.04382e-05
9.12395e-05
9.20252e-05
9.27947e-05
9.35477e-05
9.42839e-05
9.50028e-05
9.57042e-05
9.63876e-05
9.7053e-05
9.77004e-05
9.83302e-05
9.89437e-05
9.95438e-05
0.000100129
0.000100692
0.000101233
0.000101752
0.00010225
0.000102727
0.00010318
0.000103611
0.000104019
0.000104404
0.000104765
0.000105102
0.000105415
0.000105704
0.000105967
0.000106206
0.00010642
0.000106608
0.000106771
0.000106909
0.000107021
0.000107108
0.000107168
0.000107204
0.000107213
0.000107197
0.000107156
0.000107089
0.000106996
0.000106879
0.000106737
0.000106569
0.000106378
0.000106162
0.000105922
0.000105658
0.000105371
0.000105061
0.000104728
0.000104374
0.000103997
0.000103599
0.00010318
0.000102741
0.000102283
0.000101805
0.000101308
0.000100793
0.000100261
9.97124e-05
9.91473e-05
9.85667e-05
9.79713e-05
9.73617e-05
9.67387e-05
9.61029e-05
9.54553e-05
9.47963e-05
9.41268e-05
9.34478e-05
9.2759e-05
9.20634e-05
9.13591e-05
9.06504e-05
8.99423e-05
8.92898e-05
8.88684e-05
8.84813e-05
8.80939e-05
8.77045e-05
8.7313e-05
8.69193e-05
8.65231e-05
8.61228e-05
8.57155e-05
8.52946e-05
8.48444e-05
8.43247e-05
8.36363e-05
8.23362e-05
8.04947e-07
2.30135e-05
5.08955e-05
7.14275e-05
8.63655e-05
9.7124e-05
0.000105962
0.000114271
0.000122741
0.000131655
0.00014106
0.000150884
0.000161027
0.000171388
0.000181873
0.000192397
0.000202882
0.000213254
0.000223444
0.000233383
0.000243
0.000252218
0.000260949
0.000269091
0.000276522
0.000283101
0.00028867
0.000293055
0.000296071
0.000297504
0.000297037
0.000294144
0.000288093
0.000278706
0.000268684
0.000264772
0.000262013
0.000258491
0.000256615
0.000254431
0.000258176
0.000256134
0.000256441
0.000260776
0.000267625
0.000273822
0.000280431
0.00028742
0.00029469
0.000302175
0.000309834
0.00031764
0.000325575
0.000333629
0.000341791
0.000350059
0.000358426
0.00036689
0.00037545
0.000384101
0.000392844
0.000401676
0.000410595
0.000419599
0.000428685
0.000437853
0.000447097
0.000456416
0.000465806
0.000475263
0.000484783
0.000494361
0.000503994
0.000513675
0.000523399
0.000533162
0.000542958
0.00055278
0.000562624
0.000572482
0.00058235
0.000592221
0.00060209
0.000611951
0.000621798
0.000631627
0.000641432
0.000651208
0.000660951
0.000670657
0.000680321
0.000689938
0.000699504
0.000709012
0.000718454
0.000727816
0.000737077
0.0007462
0.00075513
0.0007637
0.000771665
0.000779461
0.000787132
0.000794681
0.000802104
0.000809395
0.000816548
0.000823559
0.000830421
0.000837129
0.000843677
0.000850062
0.000856277
0.000862318
0.00086818
0.000873859
0.00087935
0.00088465
0.000889754
0.000894658
0.000899361
0.000903857
0.000908145
0.000912221
0.000916084
0.000919731
0.00092316
0.000926369
0.000929357
0.000932122
0.000934664
0.000936982
0.000939075
0.000940944
0.000942589
0.000944011
0.000945209
0.000946185
0.000946941
0.000947478
0.000947799
0.000947905
0.000947799
0.000947484
0.000946963
0.00094624
0.000945318
0.000944202
0.000942895
0.000941403
0.000939731
0.000937882
0.000935864
0.000933682
0.000931341
0.000928846
0.000926209
0.000923432
0.000920523
0.000917495
0.000914338
0.000911089
0.000907741
0.000904262
0.000900556
0.000896073
0.000889551
0.000882338
0.000874907
0.000867372
0.000859772
0.000852123
0.000844434
0.000836708
0.000828936
0.000821097
0.000813115
0.000804879
0.000795398
0.000777013
1.61539e-06
3.77004e-05
8.18679e-05
0.000115236
0.000139364
0.000157329
0.000171555
0.000183786
0.000195155
0.000206311
0.000217566
0.000229021
0.000240666
0.000252439
0.000264263
0.000276054
0.000287733
0.000299225
0.000310458
0.000321362
0.000331866
0.000341897
0.000351372
0.000360207
0.00036831
0.000375592
0.00038198
0.000387429
0.000391944
0.000395585
0.000398449
0.000400639
0.000402275
0.000403739
0.000406175
0.000410779
0.000416756
0.000423753
0.000431979
0.000441557
0.000452999
0.000464078
0.000475033
0.000487404
0.000501315
0.000515818
0.00053077
0.000546103
0.000561766
0.000577723
0.000593944
0.000610409
0.0006271
0.000644004
0.000661111
0.000678415
0.000695909
0.000713588
0.000731447
0.000749483
0.000767692
0.000786068
0.000804607
0.000823304
0.000842154
0.000861149
0.000880283
0.000899548
0.000918936
0.000938438
0.000958045
0.000977745
0.00099753
0.00101739
0.0010373
0.00105727
0.00107727
0.0010973
0.00111734
0.00113738
0.0011574
0.0011774
0.00119736
0.00121726
0.0012371
0.00125687
0.00127655
0.00129613
0.0013156
0.00133495
0.00135416
0.00137322
0.00139211
0.00141082
0.00142932
0.00144759
0.00146558
0.00148326
0.00150057
0.00151721
0.0015334
0.00154929
0.00156493
0.0015803
0.0015954
0.00161023
0.00162476
0.00163899
0.00165291
0.0016665
0.00167976
0.00169267
0.00170523
0.00171742
0.00172923
0.00174066
0.00175169
0.00176232
0.00177255
0.00178235
0.00179173
0.00180068
0.0018092
0.00181727
0.00182489
0.00183207
0.00183879
0.00184505
0.00185085
0.00185618
0.00186105
0.00186545
0.00186939
0.00187285
0.00187585
0.00187839
0.00188046
0.00188207
0.00188322
0.00188391
0.00188416
0.00188395
0.00188331
0.00188223
0.00188073
0.0018788
0.00187646
0.00187371
0.00187057
0.00186705
0.00186315
0.00185888
0.00185426
0.0018493
0.00184401
0.00183839
0.00183249
0.00182629
0.00181982
0.00181311
0.00180615
0.00179898
0.00179159
0.00178393
0.00177582
0.00176677
0.00175589
0.00174404
0.00173171
0.00171912
0.00170634
0.00169343
0.00168041
0.00166728
0.00165401
0.00164055
0.00162668
0.00161191
0.00159428
0.00156518
2.59009e-06
4.85997e-05
0.000104655
0.000147752
0.000179802
0.000204036
0.000223135
0.000239097
0.000253313
0.000266673
0.000279693
0.000292629
0.000305576
0.000318542
0.000331487
0.000344354
0.00035708
0.000369604
0.00038187
0.000393827
0.000405428
0.000416631
0.000427396
0.00043769
0.000447492
0.000456798
0.000465633
0.000474063
0.000482206
0.000490236
0.000498366
0.000506828
0.000515849
0.000525685
0.000536667
0.000549033
0.000562673
0.000577484
0.000593428
0.000610475
0.000628564
0.000647282
0.00066656
0.000686651
0.000707549
0.000729016
0.000750917
0.000773191
0.000795807
0.000818748
0.000841996
0.000865538
0.000889364
0.000913463
0.000937826
0.000962448
0.000987322
0.00101244
0.0010378
0.00106339
0.00108922
0.00111526
0.00114151
0.00116797
0.00119463
0.00122147
0.00124849
0.00127567
0.001303
0.00133047
0.00135806
0.00138575
0.00141354
0.00144141
0.00146933
0.00149729
0.00152528
0.00155327
0.00158124
0.00160919
0.00163708
0.00166491
0.00169264
0.00172027
0.00174778
0.00177515
0.00180237
0.0018294
0.00185625
0.00188288
0.00190929
0.00193545
0.00196133
0.00198692
0.0020122
0.00203712
0.00206166
0.00208579
0.00210938
0.00213237
0.0021549
0.00217704
0.00219882
0.00222024
0.00224127
0.00226192
0.00228216
0.00230197
0.00232135
0.00234028
0.00235875
0.00237674
0.00239423
0.00241122
0.00242768
0.00244362
0.00245902
0.00247386
0.00248813
0.00250183
0.00251495
0.00252747
0.00253939
0.00255071
0.0025614
0.00257148
0.00258093
0.00258975
0.00259793
0.00260547
0.00261237
0.00261862
0.00262423
0.00262919
0.00263351
0.00263718
0.00264021
0.00264261
0.00264436
0.00264549
0.00264598
0.00264586
0.00264513
0.00264379
0.00264185
0.00263932
0.00263622
0.00263255
0.00262833
0.00262356
0.00261827
0.00261246
0.00260616
0.00259937
0.00259211
0.00258441
0.00257628
0.00256774
0.00255882
0.00254953
0.00253991
0.00252994
0.00251965
0.00250896
0.00249775
0.00248568
0.00247229
0.00245795
0.00244302
0.00242771
0.00241211
0.00239631
0.00238033
0.00236419
0.00234786
0.00233125
0.00231408
0.00229567
0.00227385
0.00224198
3.56696e-06
5.74881e-05
0.000122788
0.000174222
0.000213099
0.000242775
0.000266149
0.000285433
0.000302214
0.000317567
0.00033217
0.000346413
0.000360497
0.000374502
0.000388442
0.000402298
0.000416036
0.000429621
0.000443023
0.000456218
0.000469192
0.000481937
0.000494459
0.000506775
0.000518917
0.000530941
0.000542926
0.000554984
0.000567262
0.000579935
0.000593198
0.000607242
0.000622234
0.00063831
0.000655569
0.00067405
0.000693708
0.000714473
0.000736274
0.000759044
0.000782703
0.000807126
0.000832235
0.000858009
0.000884387
0.00091127
0.000938585
0.000966289
0.000994358
0.00102278
0.00105154
0.00108062
0.00111003
0.00113975
0.00116977
0.00120009
0.0012307
0.0012616
0.00129277
0.0013242
0.0013559
0.00138784
0.00142002
0.00145244
0.00148506
0.00151789
0.00155091
0.0015841
0.00161744
0.00165093
0.00168453
0.00171824
0.00175203
0.00178588
0.00181977
0.00185368
0.00188759
0.00192147
0.0019553
0.00198906
0.00202272
0.00205627
0.00208969
0.00212294
0.00215602
0.00218889
0.00222154
0.00225395
0.00228609
0.00231796
0.00234952
0.00238075
0.00241164
0.00244215
0.00247228
0.00250198
0.00253124
0.00256004
0.00258819
0.0026158
0.00264292
0.0026696
0.00269586
0.00272167
0.00274704
0.00277194
0.00279636
0.00282028
0.00284369
0.00286657
0.0028889
0.00291067
0.00293185
0.00295244
0.00297243
0.00299179
0.00301051
0.00302858
0.00304598
0.00306271
0.00307876
0.0030941
0.00310874
0.00312266
0.00313586
0.00314832
0.00316005
0.00317104
0.00318127
0.00319075
0.00319946
0.00320742
0.00321461
0.00322104
0.00322671
0.00323161
0.00323575
0.00323912
0.00324174
0.00324361
0.00324474
0.00324512
0.00324477
0.0032437
0.00324191
0.00323942
0.00323623
0.00323236
0.00322782
0.00322262
0.00321679
0.00321032
0.00320326
0.0031956
0.00318738
0.00317861
0.00316931
0.00315951
0.00314923
0.00313848
0.00312731
0.0031157
0.00310367
0.00309119
0.00307815
0.00306436
0.0030496
0.00303401
0.0030178
0.00300115
0.00298416
0.0029669
0.00294942
0.00293176
0.00291389
0.00289573
0.00287701
0.00285704
0.00283392
0.0028032
4.48528e-06
6.46874e-05
0.000137807
0.000196343
0.00024115
0.000275635
0.000302841
0.000325138
0.000344269
0.000361457
0.000377516
0.000392958
0.000408082
0.000423045
0.00043792
0.000452733
0.000467487
0.000482176
0.000496798
0.000511357
0.000525866
0.00054035
0.000554845
0.000569399
0.000584076
0.000598957
0.00061414
0.000629741
0.000645894
0.000662741
0.000680426
0.000699079
0.0007188
0.000739655
0.00076167
0.000784829
0.000809087
0.000834378
0.000860631
0.000887778
0.000915748
0.000944462
0.000973851
0.00100385
0.00103441
0.00106545
0.00109693
0.00112882
0.0011611
0.00119375
0.00122675
0.00126011
0.00129381
0.00132784
0.0013622
0.00139687
0.00143186
0.00146714
0.00150272
0.00153858
0.00157471
0.00161109
0.00164772
0.00168459
0.00172167
0.00175896
0.00179643
0.00183406
0.00187185
0.00190976
0.00194778
0.00198589
0.00202406
0.00206227
0.0021005
0.00213872
0.0021769
0.00221503
0.00225307
0.00229101
0.00232882
0.00236646
0.00240393
0.00244119
0.00247822
0.00251499
0.0025515
0.00258771
0.0026236
0.00265916
0.00269436
0.00272918
0.00276361
0.00279762
0.00283118
0.00286429
0.00289691
0.00292901
0.00296047
0.0029914
0.00302183
0.00305179
0.00308129
0.0031103
0.00313883
0.00316685
0.00319434
0.0032213
0.00324769
0.00327351
0.00329873
0.00332334
0.00334732
0.00337066
0.00339333
0.00341532
0.00343663
0.00345722
0.00347709
0.00349622
0.00351461
0.00353223
0.00354908
0.00356515
0.00358043
0.00359491
0.00360859
0.00362144
0.00363348
0.00364469
0.00365506
0.0036646
0.00367329
0.00368115
0.00368817
0.00369435
0.00369968
0.00370417
0.00370783
0.00371066
0.00371266
0.00371384
0.0037142
0.00371375
0.00371252
0.00371049
0.00370769
0.00370412
0.00369981
0.00369476
0.00368898
0.0036825
0.00367535
0.00366751
0.00365903
0.00364993
0.00364022
0.00362993
0.00361908
0.00360771
0.00359582
0.00358343
0.00357056
0.00355718
0.00354324
0.00352864
0.00351325
0.00349715
0.00348046
0.00346329
0.00344576
0.00342792
0.00340985
0.00339159
0.00337313
0.00335444
0.00333528
0.00331506
0.00329231
0.00326416
5.27387e-06
7.07244e-05
0.000150285
0.000214833
0.000264802
0.00030357
0.000334257
0.000359338
0.00038067
0.000399597
0.000417046
0.000433636
0.000449756
0.000465641
0.000481423
0.000497175
0.00051294
0.000528741
0.000544604
0.000560556
0.00057663
0.000592872
0.000609334
0.000626081
0.000643188
0.00066074
0.000678832
0.000697566
0.000717049
0.000737385
0.000758672
0.000780988
0.000804389
0.000828901
0.000854518
0.000881213
0.000908935
0.000937624
0.000967214
0.000997642
0.00102884
0.00106075
0.00109331
0.00112645
0.00116013
0.0011943
0.00122891
0.00126395
0.00129938
0.0013352
0.00137139
0.00140794
0.00144484
0.00148208
0.00151965
0.00155755
0.00159576
0.00163428
0.00167308
0.00171217
0.00175153
0.00179114
0.001831
0.00187108
0.00191137
0.00195186
0.00199252
0.00203333
0.00207428
0.00211535
0.00215651
0.00219773
0.002239
0.00228029
0.00232158
0.00236284
0.00240404
0.00244516
0.00248617
0.00252704
0.00256775
0.00260828
0.00264859
0.00268866
0.00272847
0.00276799
0.00280721
0.00284609
0.00288462
0.00292278
0.00296055
0.00299791
0.00303485
0.00307134
0.00310736
0.00314291
0.00317796
0.0032124
0.00324628
0.00327963
0.00331249
0.00334487
0.00337676
0.00340817
0.00343906
0.00346943
0.00349926
0.00352853
0.00355722
0.0035853
0.00361277
0.00363961
0.00366579
0.0036913
0.00371611
0.00374022
0.00376361
0.00378626
0.00380815
0.00382928
0.00384961
0.00386915
0.00388788
0.00390579
0.00392287
0.00393911
0.0039545
0.00396904
0.0039827
0.00399549
0.0040074
0.00401843
0.00402857
0.00403782
0.00404619
0.00405366
0.00406023
0.00406592
0.00407071
0.00407462
0.00407766
0.00407981
0.00408109
0.00408151
0.00408108
0.00407982
0.00407771
0.00407477
0.00407104
0.00406652
0.0040612
0.00405512
0.0040483
0.00404075
0.00403249
0.00402355
0.00401395
0.00400371
0.00399286
0.00398142
0.00396941
0.00395684
0.00394374
0.0039301
0.00391588
0.00390105
0.00388556
0.00386942
0.00385272
0.00383555
0.00381799
0.00380012
0.00378201
0.00376372
0.00374528
0.00372667
0.00370774
0.00368803
0.00366644
0.00364111
5.94736e-06
7.56168e-05
0.000160425
0.000230054
0.000284518
0.00032711
0.000360974
0.000388646
0.000412066
0.000432666
0.000451469
0.000469183
0.000486281
0.000503067
0.000519733
0.000536399
0.000553144
0.000570021
0.000587078
0.00060436
0.000621916
0.0006398
0.000658074
0.000676805
0.000696068
0.000715939
0.000736502
0.000757837
0.000780024
0.000803137
0.000827235
0.000852365
0.000878551
0.000905797
0.000934086
0.000963382
0.00099364
0.0010248
0.00105681
0.00108961
0.00112314
0.00115734
0.00119216
0.00122755
0.00126346
0.00129986
0.00133671
0.00137398
0.00141166
0.00144972
0.00148815
0.00152694
0.00156609
0.00160557
0.00164538
0.00168551
0.00172595
0.00176669
0.00180772
0.00184901
0.00189057
0.00193238
0.00197442
0.00201667
0.00205913
0.00210177
0.00214458
0.00218753
0.0022306
0.00227379
0.00231705
0.00236037
0.00240373
0.0024471
0.00249045
0.00253377
0.00257701
0.00262017
0.0026632
0.00270609
0.0027488
0.00279131
0.00283359
0.00287562
0.00291737
0.00295881
0.00299992
0.00304069
0.00308109
0.0031211
0.0031607
0.00319988
0.00323862
0.0032769
0.00331471
0.00335203
0.00338883
0.00342505
0.00346075
0.00349595
0.00353067
0.00356492
0.00359869
0.00363196
0.00366473
0.00369697
0.00372867
0.0037598
0.00379035
0.00382029
0.00384961
0.00387828
0.00390629
0.00393362
0.00396025
0.00398616
0.00401133
0.00403574
0.00405939
0.00408224
0.00410429
0.00412552
0.00414592
0.00416548
0.00418418
0.00420202
0.00421899
0.00423507
0.00425026
0.00426454
0.00427792
0.00429037
0.00430192
0.00431254
0.00432225
0.00433103
0.00433888
0.00434579
0.00435179
0.00435686
0.00436103
0.00436428
0.00436662
0.00436805
0.00436859
0.00436828
0.00436706
0.00436497
0.00436204
0.00435827
0.00435368
0.00434828
0.0043421
0.00433514
0.00432744
0.00431901
0.00430988
0.00430006
0.00428958
0.00427846
0.00426673
0.0042544
0.00424149
0.00422801
0.00421395
0.0041993
0.00418403
0.00416817
0.00415178
0.00413492
0.00411767
0.0041001
0.0040823
0.00406433
0.00404626
0.00402811
0.00400978
0.00399096
0.00397081
0.00394809
6.50062e-06
7.94494e-05
0.000168423
0.000242285
0.000300629
0.000346619
0.000383373
0.000413453
0.000438849
0.000461061
0.000481185
0.000500004
0.000518062
0.000535725
0.000553242
0.000570774
0.000588435
0.000606306
0.000624452
0.000642932
0.000661804
0.000681127
0.000700962
0.000721373
0.000742427
0.00076419
0.000786728
0.000810102
0.000834369
0.000859577
0.000885762
0.000912946
0.000941136
0.000970323
0.00100049
0.00103159
0.00106358
0.00109642
0.00113005
0.00116442
0.00119948
0.00123518
0.00127147
0.00130831
0.00134565
0.00138347
0.00142173
0.0014604
0.00149948
0.00153893
0.00157875
0.00161892
0.00165943
0.00170027
0.00174143
0.00178291
0.00182468
0.00186673
0.00190907
0.00195167
0.00199453
0.00203762
0.00208094
0.00212447
0.0021682
0.00221211
0.00225619
0.0023004
0.00234475
0.0023892
0.00243374
0.00247834
0.00252299
0.00256765
0.0026123
0.00265692
0.00270148
0.00274596
0.00279033
0.00283455
0.0028786
0.00292246
0.00296609
0.00300947
0.00305257
0.00309537
0.00313784
0.00317995
0.0032217
0.00326305
0.00330399
0.00334451
0.00338459
0.00342421
0.00346336
0.00350204
0.00354019
0.00357783
0.00361499
0.00365169
0.00368794
0.00372374
0.00375907
0.00379392
0.00382827
0.00386211
0.00389541
0.00392815
0.00396031
0.00399187
0.0040228
0.0040531
0.00408273
0.00411168
0.00413992
0.00416744
0.00419422
0.00422025
0.00424549
0.00426993
0.00429356
0.00431635
0.0043383
0.0043594
0.00437963
0.00439898
0.00441745
0.00443501
0.00445167
0.0044674
0.00448219
0.00449606
0.00450898
0.00452097
0.00453202
0.00454213
0.00455128
0.00455947
0.00456671
0.004573
0.00457839
0.00458282
0.00458629
0.00458884
0.00459046
0.00459118
0.004591
0.00458991
0.00458795
0.00458512
0.00458145
0.00457693
0.0045716
0.00456546
0.00455855
0.00455087
0.00454245
0.00453331
0.00452348
0.00451296
0.0045018
0.00449
0.00447758
0.00446457
0.00445096
0.00443675
0.00442196
0.00440661
0.00439073
0.00437439
0.00435766
0.00434061
0.00432334
0.00430592
0.00428844
0.00427096
0.00425343
0.00423563
0.00421695
0.0041965
6.93355e-06
8.23165e-05
0.000174471
0.000251776
0.000313421
0.000362393
0.000401748
0.000434044
0.000461294
0.000485042
0.000506438
0.000526327
0.00054531
0.00056381
0.00058212
0.000600444
0.000618924
0.000637664
0.000656745
0.000676237
0.000696201
0.000716697
0.000737783
0.000759516
0.000781952
0.000805145
0.000829144
0.000853996
0.000879737
0.000906397
0.000933995
0.000962538
0.000992024
0.00102244
0.00105375
0.00108592
0.00111893
0.00115271
0.00118723
0.00122243
0.00125828
0.00129472
0.00133173
0.00136924
0.00140725
0.0014457
0.00148458
0.00152386
0.00156352
0.00160354
0.00164392
0.00168464
0.00172568
0.00176705
0.00180872
0.00185069
0.00189295
0.0019355
0.00197832
0.0020214
0.00206473
0.00210831
0.00215211
0.00219614
0.00224037
0.00228479
0.0023294
0.00237416
0.00241907
0.00246411
0.00250926
0.0025545
0.00259981
0.00264516
0.00269053
0.0027359
0.00278125
0.00282653
0.00287173
0.00291682
0.00296176
0.00300654
0.00305111
0.00309544
0.00313952
0.0031833
0.00322677
0.00326989
0.00331266
0.00335504
0.00339702
0.00343858
0.00347971
0.00352039
0.00356062
0.00360039
0.0036397
0.00367858
0.00371703
0.00375506
0.00379267
0.00382985
0.00386658
0.00390286
0.00393866
0.00397395
0.00400873
0.00404295
0.0040766
0.00410966
0.00414211
0.00417392
0.00420507
0.00423554
0.00426531
0.00429436
0.00432267
0.00435022
0.00437698
0.00440294
0.00442808
0.00445238
0.00447583
0.00449842
0.00452013
0.00454095
0.00456088
0.00457991
0.00459801
0.00461516
0.00463138
0.00464664
0.00466095
0.00467431
0.00468673
0.00469819
0.00470867
0.00471816
0.00472669
0.00473426
0.00474088
0.00474653
0.00475123
0.00475498
0.00475778
0.00475966
0.00476062
0.00476066
0.0047598
0.00475806
0.00475544
0.00475196
0.00474765
0.0047425
0.00473655
0.0047298
0.00472229
0.00471403
0.00470504
0.00469534
0.00468496
0.00467391
0.00466221
0.00464988
0.00463694
0.00462341
0.00460928
0.0045946
0.0045794
0.00456374
0.00454769
0.00453131
0.00451471
0.00449799
0.00448124
0.00446453
0.00444788
0.00443115
0.00441384
0.00439529
7.25078e-06
8.43185e-05
0.000178762
0.000258776
0.000323162
0.000374703
0.000416362
0.000450659
0.000479613
0.000504791
0.000527382
0.000548275
0.00056812
0.000587383
0.0006064
0.000625405
0.000644568
0.000664012
0.000683831
0.0007041
0.000724884
0.000746241
0.000768223
0.000790879
0.000814256
0.000838393
0.000863329
0.000889093
0.000915709
0.000943194
0.000971555
0.00100079
0.00103089
0.00106183
0.00109359
0.00112614
0.00115943
0.00119344
0.00122811
0.0012634
0.00129928
0.00133571
0.00137266
0.00141008
0.00144795
0.00148624
0.00152493
0.001564
0.00160343
0.0016432
0.00168331
0.00172375
0.00176451
0.00180557
0.00184694
0.00188861
0.00193057
0.00197281
0.00201534
0.00205815
0.00210123
0.00214457
0.00218816
0.00223201
0.00227609
0.0023204
0.00236493
0.00240966
0.00245458
0.00249968
0.00254494
0.00259034
0.00263586
0.00268148
0.00272717
0.00277291
0.00281868
0.00286444
0.00291017
0.00295582
0.00300139
0.00304682
0.00309208
0.00313715
0.00318198
0.00322655
0.00327083
0.00331478
0.00335839
0.00340163
0.00344448
0.00348693
0.00352896
0.00357056
0.00361173
0.00365253
0.00369295
0.00373301
0.00377269
0.00381199
0.00385091
0.00388943
0.00392753
0.00396519
0.00400239
0.00403911
0.00407531
0.00411098
0.00414609
0.00418061
0.00421453
0.00424782
0.00428045
0.00431241
0.00434367
0.00437422
0.00440403
0.00443308
0.00446135
0.00448881
0.00451544
0.00454122
0.00456615
0.00459021
0.00461339
0.00463567
0.00465706
0.00467756
0.00469711
0.0047157
0.00473334
0.00475001
0.00476573
0.00478048
0.00479427
0.00480709
0.00481892
0.00482977
0.00483964
0.00484854
0.00485647
0.00486343
0.00486942
0.00487445
0.00487853
0.00488167
0.00488387
0.00488515
0.00488551
0.00488497
0.00488354
0.00488123
0.00487807
0.00487405
0.00486921
0.00486356
0.00485711
0.00484989
0.00484192
0.00483321
0.00482378
0.00481366
0.00480287
0.00479142
0.00477933
0.00476663
0.00475333
0.00473947
0.00472509
0.00471024
0.00469499
0.00467941
0.0046636
0.00464768
0.00463174
0.00461588
0.00460015
0.00458445
0.00456839
0.00455143
7.46117e-06
8.55617e-05
0.000181497
0.000263534
0.000330118
0.00038381
0.00042745
0.000463505
0.000493975
0.000520434
0.000544098
0.000565885
0.000586482
0.000606392
0.000625981
0.00064551
0.000665172
0.000685103
0.000705409
0.000726169
0.000747448
0.000769301
0.000791773
0.000814907
0.000838738
0.000863296
0.000888606
0.000914689
0.000941557
0.000969216
0.000997666
0.0010269
0.0010569
0.00108765
0.00111912
0.00115128
0.0011841
0.00121755
0.00125158
0.00128617
0.00132127
0.00135687
0.00139292
0.0014294
0.00146629
0.00150356
0.00154121
0.00157921
0.00161755
0.00165622