/*--------------------------------*- C++ -*----------------------------------*\
  =========                 |
  \\      /  F ield         | OpenFOAM: The Open Source CFD Toolbox
   \\    /   O peration     | Website:  https://openfoam.org
    \\  /    A nd           | Version:  12
     \\/     M anipulation  |
\*---------------------------------------------------------------------------*/
FoamFile
{
    format      ascii;
    class       volScalarField;
    location    "0.27";
    object      p;
}
// * * * * * * * * * * * * * * * * * * * * * * * * * * * * * * * * * * * * * //

dimensions      [0 2 -2 0 0 0 0];

internalField   nonuniform List<scalar> 
12225
(
-1.11318
-3.3962
-4.55873
-4.86701
-5.0354
-5.19529
-5.32008
-5.40874
-5.47864
-5.53999
-5.59459
-5.64229
-5.68341
-5.71727
-5.74278
-5.74969
-5.74769
-5.64116
-4.58068
-5.28281
-5.3731
-5.23815
-5.19822
-5.26568
-5.34664
-5.41275
-5.47006
-5.52381
-5.57379
-5.61885
-5.65872
-5.69252
-5.71986
-5.73377
-5.74702
-5.73275
-4.78542
-4.68249
-4.83933
-4.96156
-5.06908
-5.19157
-5.30009
-5.38302
-5.45054
-5.51075
-5.56534
-5.61408
-5.65713
-5.69425
-5.72587
-5.74892
-5.77763
-5.8109
-4.64813
-4.57002
-4.84615
-5.02499
-5.11959
-5.21691
-5.31225
-5.39008
-5.455
-5.51359
-5.56733
-5.61586
-5.65933
-5.6979
-5.73261
-5.76352
-5.80229
-5.85515
-4.65509
-4.67237
-4.91252
-5.06253
-5.13871
-5.22361
-5.31346
-5.38981
-5.45411
-5.51222
-5.56584
-5.61476
-5.65926
-5.69989
-5.73815
-5.77573
-5.8212
-5.88129
-4.71677
-4.75926
-4.93711
-5.06795
-5.14609
-5.22882
-5.31536
-5.39049
-5.45445
-5.51233
-5.56596
-5.61538
-5.66097
-5.7036
-5.74495
-5.78732
-5.83677
-5.89869
-4.7765
-4.81604
-4.95251
-5.07483
-5.15736
-5.23728
-5.31919
-5.39234
-5.45574
-5.51332
-5.56692
-5.61677
-5.66338
-5.70775
-5.75158
-5.79712
-5.84858
-5.90943
-4.82964
-4.86455
-4.97491
-5.08765
-5.17035
-5.24644
-5.32363
-5.39459
-5.45732
-5.51455
-5.56807
-5.61831
-5.66581
-5.71161
-5.75726
-5.80468
-5.85664
-5.915
-4.87941
-4.91116
-5.00201
-5.10292
-5.18313
-5.25578
-5.32876
-5.39738
-5.45922
-5.516
-5.56934
-5.61984
-5.66803
-5.71487
-5.76166
-5.80991
-5.86133
-5.91667
-4.92675
-4.95539
-5.03062
-5.11962
-5.19614
-5.2657
-5.33484
-5.40091
-5.46157
-5.51774
-5.57079
-5.62135
-5.66994
-5.71738
-5.76471
-5.81298
-5.86318
-5.91543
-4.9715
-4.9968
-5.05965
-5.1378
-5.20981
-5.27625
-5.34179
-5.40518
-5.46442
-5.51981
-5.5724
-5.62281
-5.6715
-5.71912
-5.76644
-5.81415
-5.86277
-5.91208
-5.00998
-5.03233
-5.08622
-5.15556
-5.22294
-5.28636
-5.34881
-5.40972
-5.46748
-5.522
-5.57401
-5.62407
-5.67258
-5.72002
-5.76694
-5.81378
-5.86081
-5.90763
-5.04565
-5.06546
-5.11203
-5.17363
-5.2363
-5.29665
-5.35619
-5.41468
-5.47085
-5.52437
-5.57568
-5.62523
-5.67334
-5.72034
-5.76661
-5.8124
-5.85778
-5.90237
-5.08313
-5.10045
-5.14027
-5.19433
-5.25176
-5.30855
-5.36495
-5.42077
-5.47503
-5.52726
-5.57761
-5.62637
-5.67377
-5.72001
-5.76529
-5.80971
-5.85325
-5.89555
-5.1212
-5.13611
-5.16999
-5.21705
-5.26902
-5.32187
-5.37495
-5.42792
-5.47998
-5.5306
-5.57968
-5.62733
-5.67368
-5.7188
-5.76275
-5.80554
-5.84709
-5.88713
-5.1579
-5.17065
-5.19954
-5.24049
-5.28719
-5.33598
-5.38567
-5.43572
-5.48539
-5.53411
-5.58162
-5.62786
-5.67282
-5.71649
-5.75884
-5.79981
-5.83934
-5.87721
-5.19035
-5.20135
-5.22634
-5.26237
-5.3045
-5.3495
-5.39601
-5.44326
-5.49053
-5.53721
-5.58294
-5.62752
-5.67085
-5.71285
-5.75344
-5.79254
-5.83008
-5.86593
-5.21418
-5.22398
-5.24636
-5.27904
-5.31788
-5.36001
-5.40398
-5.44893
-5.49411
-5.53891
-5.58289
-5.6258
-5.66746
-5.70776
-5.7466
-5.7839
-5.81961
-5.85367
-5.22244
-5.23179
-5.25324
-5.28476
-5.32242
-5.36339
-5.40618
-5.44991
-5.49388
-5.53744
-5.58015
-5.62173
-5.662
-5.70086
-5.7382
-5.774
-5.8082
-5.84081
-5.20735
-5.21739
-5.24036
-5.27397
-5.31373
-5.35628
-5.40009
-5.44449
-5.48884
-5.53251
-5.57506
-5.61626
-5.656
-5.69418
-5.73077
-5.76573
-5.79907
-5.83081
-5.18106
-5.19224
-5.218
-5.25569
-5.29941
-5.34491
-5.39089
-5.43702
-5.48268
-5.52716
-5.57014
-5.6115
-5.6512
-5.68921
-5.7255
-5.76008
-5.793
-5.82431
-5.14605
-5.15841
-5.18842
-5.23285
-5.2823
-5.33137
-5.38003
-5.42864
-5.47626
-5.52201
-5.56571
-5.60749
-5.64739
-5.68542
-5.72161
-5.756
-5.78868
-5.81972
-5.10538
-5.11797
-5.15331
-5.20785
-5.26492
-5.31785
-5.36934
-5.42064
-5.47032
-5.51739
-5.56196
-5.60432
-5.64457
-5.68274
-5.71892
-5.75323
-5.78578
-5.81667
-5.06151
-5.07306
-5.11541
-5.18198
-5.24661
-5.30417
-5.35999
-5.41458
-5.46598
-5.51394
-5.55916
-5.60202
-5.64254
-5.6808
-5.71697
-5.7512
-5.78364
-5.81439
-5.01462
-5.02237
-5.08338
-5.16311
-5.22817
-5.28776
-5.34956
-5.40904
-5.46268
-5.51161
-5.55751
-5.60085
-5.6416
-5.67989
-5.71599
-5.75012
-5.78244
-5.81314
-4.96666
-4.94299
-5.05375
-5.16262
-5.22312
-5.27713
-5.34045
-5.4027
-5.45785
-5.50772
-5.55444
-5.59837
-5.63945
-5.67789
-5.71403
-5.74816
-5.78046
-5.81109
-4.95733
-4.81299
-4.97198
-5.13811
-5.22252
-5.28344
-5.34812
-5.40915
-5.46275
-5.51174
-5.55798
-5.60147
-5.64208
-5.68008
-5.71581
-5.74954
-5.78153
-5.81196
-5.10273
-4.81891
-4.85361
-4.98399
-5.10348
-5.21037
-5.3043
-5.37992
-5.44201
-5.49707
-5.54762
-5.59401
-5.63658
-5.67595
-5.71264
-5.74705
-5.77967
-5.81115
-5.03953
-5.5392
-5.54927
-5.38994
-5.30886
-5.33296
-5.38696
-5.43622
-5.48116
-5.52553
-5.56897
-5.61019
-5.64882
-5.68507
-5.71914
-5.75113
-5.78129
-5.81149
-1.70084
-3.57139
-4.64261
-4.93559
-5.07032
-5.20695
-5.31873
-5.39857
-5.46135
-5.51718
-5.56828
-5.61473
-5.6571
-5.69614
-5.73225
-5.76546
-5.79542
-5.82036
-6.71876
-6.71873
-6.71904
-6.71965
-6.72047
-6.72144
-6.72258
-6.72391
-6.72543
-6.72717
-6.72917
-6.73146
-6.73406
-6.73701
-6.74036
-6.74415
-6.74841
-6.75318
-6.7585
-6.76442
-6.77096
-6.77817
-6.7861
-6.79478
-6.80427
-6.81462
-6.82587
-6.8381
-6.85135
-6.86572
-6.88129
-6.89805
-6.91596
-6.93504
-6.95521
-6.9765
-7.00171
-7.03393
-7.06062
-7.0643
-7.07381
-7.11969
-7.16676
-7.18492
-7.19982
-7.22581
-7.25307
-7.28199
-7.31192
-7.34259
-7.37381
-7.4054
-7.43723
-7.46918
-7.50114
-7.53298
-7.5646
-7.59589
-7.62671
-7.65696
-7.6865
-7.7152
-7.74293
-7.76955
-7.7949
-7.81884
-7.84121
-7.86184
-7.88056
-7.89721
-7.91161
-7.92357
-7.93292
-7.93947
-7.94302
-7.94341
-7.94042
-7.93387
-7.92358
-7.90935
-7.891
-7.86834
-7.84119
-7.80937
-7.77271
-7.73103
-7.68417
-7.63197
-7.57427
-7.51092
-7.44178
-7.36672
-7.2856
-7.19832
-7.10477
-7.00484
-6.89851
-6.7858
-6.66668
-6.54092
-6.40833
-6.26863
-6.12202
-5.96855
-5.80824
-5.64112
-5.46722
-5.28658
-5.09926
-4.90534
-4.7049
-4.49806
-4.28492
-4.06563
-3.84035
-3.60922
-3.37245
-3.13022
-2.88274
-2.63024
-2.37294
-2.1111
-1.84497
-1.57482
-1.30092
-1.02356
-0.743032
-0.459636
-0.173678
0.114535
0.404687
0.696462
0.989543
1.28361
1.57835
1.87343
2.16856
2.46342
2.7577
3.0511
3.34333
3.63411
3.92315
4.21019
4.49497
4.77725
5.05678
5.33334
5.60672
5.87671
6.14314
6.40581
6.66458
6.91929
7.16981
7.416
7.65775
7.89497
8.12756
8.35544
8.57854
8.79681
9.01021
9.2187
9.42227
9.62087
9.81436
10.0026
10.1855
10.3632
10.5356
10.7028
10.8648
11.0216
11.1733
11.3202
11.4632
11.6037
11.7506
11.9046
-6.71778
-6.71797
-6.71832
-6.71884
-6.71938
-6.71991
-6.72047
-6.72117
-6.7221
-6.7233
-6.72481
-6.72663
-6.7288
-6.73134
-6.73428
-6.73764
-6.74147
-6.74578
-6.75061
-6.75601
-6.76202
-6.76866
-6.77599
-6.78404
-6.79285
-6.80246
-6.81291
-6.82421
-6.83635
-6.84933
-6.8631
-6.87761
-6.89274
-6.90842
-6.92494
-6.94317
-6.9623
-6.97684
-6.98877
-7.02338
-7.07216
-7.0883
-7.09067
-7.12026
-7.16421
-7.19746
-7.22859
-7.25946
-7.2904
-7.32156
-7.35298
-7.38462
-7.41641
-7.44827
-7.48011
-7.51183
-7.54333
-7.5745
-7.60523
-7.63541
-7.6649
-7.69358
-7.72132
-7.74798
-7.7734
-7.79745
-7.81996
-7.84077
-7.85972
-7.87663
-7.89134
-7.90365
-7.91338
-7.92036
-7.9244
-7.9253
-7.92288
-7.91694
-7.9073
-7.89378
-7.87617
-7.8543
-7.82799
-7.79706
-7.76133
-7.72063
-7.6748
-7.62368
-7.56711
-7.50495
-7.43706
-7.3633
-7.28355
-7.19769
-7.1056
-7.00719
-6.90233
-6.79092
-6.67284
-6.54784
-6.41596
-6.27755
-6.13244
-5.98055
-5.82186
-5.65639
-5.48414
-5.30517
-5.11952
-4.92726
-4.72849
-4.5233
-4.3118
-4.09415
-3.87048
-3.64095
-3.40574
-3.16505
-2.91909
-2.66806
-2.4122
-2.15176
-1.88699
-1.61815
-1.34551
-1.06937
-0.790001
-0.507712
-0.222804
0.0644172
0.353638
0.644543
0.936816
1.23014
1.5242
1.81867
2.11325
2.40762
2.70148
2.99452
3.28646
3.57701
3.86589
4.15282
4.43756
4.71984
4.99944
5.27612
5.54967
5.81988
6.08657
6.34956
6.60868
6.86378
7.11472
7.36136
7.6036
7.84133
8.07445
8.30288
8.52657
8.74543
8.95944
9.16856
9.37276
9.57198
9.76609
9.95495
10.1386
10.3169
10.4901
10.658
10.8208
10.9784
11.1311
11.2793
11.4242
11.5667
11.7171
11.8651
-6.71474
-6.7156
-6.71652
-6.71738
-6.71801
-6.71848
-6.71892
-6.71946
-6.72021
-6.72121
-6.72251
-6.72413
-6.72611
-6.72846
-6.73123
-6.73443
-6.73809
-6.74225
-6.74695
-6.75221
-6.75808
-6.76458
-6.77177
-6.77967
-6.78832
-6.79776
-6.80802
-6.81912
-6.8311
-6.84396
-6.85772
-6.87238
-6.88802
-6.90469
-6.92248
-6.94164
-6.96207
-6.98167
-7.00005
-7.02438
-7.05548
-7.08111
-7.10121
-7.12613
-7.15603
-7.18559
-7.21545
-7.24565
-7.27613
-7.30687
-7.33783
-7.36898
-7.40027
-7.43161
-7.46292
-7.49413
-7.52513
-7.55583
-7.58611
-7.61586
-7.64496
-7.67329
-7.70071
-7.7271
-7.75229
-7.77615
-7.79853
-7.81925
-7.83815
-7.85508
-7.86984
-7.88227
-7.89218
-7.89939
-7.90372
-7.90497
-7.90295
-7.89748
-7.88837
-7.87544
-7.85848
-7.83733
-7.81179
-7.7817
-7.74687
-7.70713
-7.66232
-7.61228
-7.55686
-7.4959
-7.42926
-7.35681
-7.27843
-7.19397
-7.10334
-7.00642
-6.90311
-6.79326
-6.67672
-6.55361
-6.42369
-6.28711
-6.14382
-5.99377
-5.83696
-5.67338
-5.50305
-5.326
-5.14229
-4.95198
-4.75515
-4.5519
-4.34235
-4.12662
-3.90486
-3.67723
-3.4439
-3.20506
-2.96091
-2.71166
-2.45755
-2.19882
-1.9357
-1.66847
-1.3974
-1.12276
-0.844845
-0.563945
-0.280362
0.00559838
0.293626
0.583408
0.874628
1.16697
1.46012
1.75377
2.04759
2.34128
2.63454
2.92706
3.21855
3.50872
3.7973
4.08401
4.36859
4.65079
4.93037
5.20711
5.48077
5.75117
6.01809
6.28137
6.54083
6.79632
7.0477
7.29482
7.53758
7.77586
8.00957
8.23862
8.46293
8.68245
8.8971
9.10685
9.31167
9.51148
9.70624
9.89586
10.0803
10.2595
10.4335
10.6024
10.7661
10.9248
11.0787
11.2283
11.3751
11.5193
11.6724
11.8103
-6.70996
-6.71148
-6.71328
-6.71485
-6.71595
-6.71673
-6.7174
-6.71809
-6.71891
-6.71994
-6.72123
-6.72284
-6.72479
-6.72711
-6.72984
-6.733
-6.73663
-6.74075
-6.7454
-6.75062
-6.75643
-6.76288
-6.77
-6.77782
-6.78637
-6.7957
-6.80582
-6.81677
-6.82858
-6.84127
-6.85487
-6.86937
-6.88484
-6.90135
-6.91899
-6.9378
-6.95768
-6.97837
-7
-7.0234
-7.04849
-7.07371
-7.09882
-7.12502
-7.15253
-7.18082
-7.20977
-7.23922
-7.26907
-7.29926
-7.32972
-7.36039
-7.39121
-7.4221
-7.45298
-7.48377
-7.51438
-7.54471
-7.57465
-7.60409
-7.63292
-7.66101
-7.68823
-7.71444
-7.73951
-7.76328
-7.7856
-7.80632
-7.82525
-7.84225
-7.85713
-7.86972
-7.87983
-7.88729
-7.8919
-7.89348
-7.89185
-7.88681
-7.87817
-7.86574
-7.84935
-7.8288
-7.80391
-7.77451
-7.74041
-7.70146
-7.65748
-7.60831
-7.55379
-7.49378
-7.42814
-7.35672
-7.27939
-7.19602
-7.1065
-7.01071
-6.90855
-6.79989
-6.68465
-6.5628
-6.43431
-6.29915
-6.15728
-6.00868
-5.85333
-5.69122
-5.52238
-5.34683
-5.16462
-4.97581
-4.78049
-4.57875
-4.3707
-4.15646
-3.93619
-3.71002
-3.47815
-3.24074
-2.998
-2.75014
-2.49739
-2.23998
-1.97816
-1.71219
-1.44234
-1.16888
-0.892096
-0.612286
-0.329746
-0.0447778
0.242309
0.531202
0.821588
1.11315
1.40558
1.69856
1.99178
2.28492
2.57769
2.86978
3.16091
3.45077
3.73909
4.02561
4.31005
4.59217
4.87172
5.14848
5.42222
5.69273
5.95983
6.22332
6.48304
6.73883
6.99054
7.23803
7.48119
7.7199
7.95406
8.18358
8.40838
8.62842
8.84361
9.0539
9.25923
9.45952
9.65474
9.84487
10.0299
10.2097
10.3843
10.5538
10.7182
10.8776
11.0324
11.1829
11.3306
11.4749
11.6269
11.7527
-6.70449
-6.70674
-6.70958
-6.71202
-6.71376
-6.71503
-6.71607
-6.71707
-6.71813
-6.71935
-6.72081
-6.72255
-6.72462
-6.72706
-6.72989
-6.73315
-6.73687
-6.74109
-6.74583
-6.75114
-6.75704
-6.76357
-6.77078
-6.77868
-6.78733
-6.79674
-6.80697
-6.81802
-6.82995
-6.84278
-6.85654
-6.87124
-6.88692
-6.90362
-6.92139
-6.94023
-6.96007
-6.98088
-7.00285
-7.02609
-7.05025
-7.07489
-7.10018
-7.12646
-7.15364
-7.1815
-7.20994
-7.23888
-7.26825
-7.29799
-7.32802
-7.35829
-7.38873
-7.41926
-7.44981
-7.48029
-7.51061
-7.54067
-7.57037
-7.5996
-7.62825
-7.65618
-7.68327
-7.70939
-7.73439
-7.75812
-7.78044
-7.80117
-7.82017
-7.83725
-7.85224
-7.86498
-7.87527
-7.88293
-7.88778
-7.88963
-7.88829
-7.88357
-7.87529
-7.86325
-7.84727
-7.82717
-7.80276
-7.77386
-7.7403
-7.70191
-7.65851
-7.60996
-7.5561
-7.49676
-7.43182
-7.36112
-7.28454
-7.20195
-7.11323
-7.01826
-6.91694
-6.80918
-6.69488
-6.574
-6.44649
-6.31233
-6.17145
-6.02385
-5.8695
-5.70841
-5.54058
-5.36605
-5.18486
-4.99708
-4.80279
-4.60207
-4.39503
-4.18181
-3.96254
-3.73737
-3.50648
-3.27004
-3.02826
-2.78135
-2.52952
-2.27301
-2.01207
-1.74695
-1.47793
-1.20528
-0.92927
-0.650205
-0.368378
-0.0840905
0.202349
0.490631
0.780442
1.07147
1.3634
1.65591
1.94871
2.24147
2.5339
2.82568
3.11654
3.40618
3.69432
3.98069
4.26503
4.54708
4.8266
5.10337
5.37715
5.64774
5.91494
6.17858
6.43847
6.69445
6.94639
7.19413
7.43755
7.67656
7.91103
8.1409
8.36606
8.58646
8.80202
9.01267
9.21834
9.41894
9.61445
9.80488
9.99019
10.1704
10.3454
10.5152
10.68
10.8399
10.995
11.1459
11.2935
11.4367
11.5859
11.7
-6.69927
-6.70227
-6.70609
-6.70941
-6.71185
-6.71368
-6.7152
-6.71661
-6.71802
-6.71955
-6.72129
-6.72328
-6.72559
-6.72825
-6.7313
-6.73478
-6.73872
-6.74315
-6.74811
-6.75363
-6.75975
-6.76651
-6.77394
-6.78209
-6.79097
-6.80064
-6.81113
-6.82246
-6.83467
-6.84779
-6.86184
-6.87686
-6.89285
-6.90984
-6.92783
-6.94683
-6.9668
-6.98771
-7.00962
-7.03255
-7.05634
-7.08081
-7.10598
-7.13197
-7.15873
-7.18615
-7.21416
-7.24268
-7.27166
-7.30103
-7.33072
-7.36068
-7.39082
-7.42109
-7.45139
-7.48165
-7.51177
-7.54165
-7.5712
-7.6003
-7.62884
-7.65669
-7.68373
-7.70981
-7.73481
-7.75855
-7.78091
-7.8017
-7.82078
-7.83796
-7.85308
-7.86596
-7.87641
-7.88426
-7.88931
-7.89138
-7.89028
-7.88582
-7.87781
-7.86607
-7.8504
-7.83062
-7.80655
-7.77802
-7.74484
-7.70684
-7.66386
-7.61575
-7.56233
-7.50347
-7.43901
-7.36882
-7.29276
-7.21072
-7.12256
-7.02817
-6.92745
-6.82031
-6.70668
-6.58647
-6.45964
-6.32615
-6.18595
-6.03902
-5.88534
-5.72492
-5.55776
-5.38391
-5.20339
-5.01629
-4.82266
-4.62262
-4.41626
-4.2037
-3.98509
-3.76059
-3.53035
-3.29456
-3.05341
-2.80712
-2.55591
-2.3
-2.03965
-1.77511
-1.50665
-1.23454
-0.959065
-0.680509
-0.399171
-0.115353
0.170639
0.458495
0.747903
1.03855
1.33012
1.62231
1.9148
2.20728
2.49946
2.79102
3.08168
3.37114
3.65914
3.94539
4.22963
4.51161
4.79109
5.06784
5.34162
5.61225
5.87951
6.14322
6.40321
6.65931
6.91138
7.15928
7.40289
7.64209
7.87678
8.10686
8.33225
8.55288
8.76867
8.97955
9.18544
9.38624
9.58196
9.77258
9.9581
10.1385
10.3137
10.4838
10.6488
10.8089
10.9642
11.1149
11.262
11.4035
11.5496
11.6533
-6.69538
-6.69892
-6.70355
-6.70763
-6.71072
-6.71311
-6.71512
-6.71696
-6.71877
-6.72067
-6.72274
-6.72505
-6.72767
-6.73063
-6.73397
-6.73774
-6.74197
-6.74669
-6.75195
-6.75777
-6.7642
-6.77126
-6.77901
-6.78747
-6.79667
-6.80667
-6.81747
-6.82913
-6.84166
-6.85509
-6.86944
-6.88473
-6.90097
-6.91817
-6.93632
-6.95543
-6.97546
-6.99641
-7.01826
-7.04101
-7.06457
-7.08889
-7.11393
-7.13971
-7.16618
-7.1933
-7.221
-7.24923
-7.27793
-7.30704
-7.3365
-7.36623
-7.39619
-7.42628
-7.45643
-7.48656
-7.51657
-7.54637
-7.57585
-7.60491
-7.63343
-7.66128
-7.68833
-7.71444
-7.73948
-7.7633
-7.78573
-7.80662
-7.8258
-7.84311
-7.85836
-7.87138
-7.88199
-7.89
-7.89522
-7.89748
-7.89657
-7.8923
-7.8845
-7.87297
-7.85752
-7.83797
-7.81414
-7.78584
-7.75292
-7.71518
-7.67248
-7.62464
-7.57152
-7.51296
-7.44881
-7.37895
-7.30324
-7.22154
-7.13375
-7.03974
-6.93942
-6.83269
-6.71948
-6.59971
-6.4733
-6.34023
-6.20045
-6.05393
-5.90067
-5.74066
-5.57392
-5.40048
-5.22038
-5.03369
-4.84048
-4.64085
-4.4349
-4.22277
-4.00458
-3.78048
-3.55066
-3.31528
-3.07454
-2.82866
-2.57784
-2.32233
-2.06237
-1.79822
-1.53014
-1.25839
-0.983276
-0.705071
-0.424073
-0.140583
0.145092
0.432643
0.721759
1.01213
1.30344
1.59537
1.88763
2.1799
2.47187
2.76324
3.05373
3.34305
3.63091
3.91704
4.20118
4.48309
4.7625
5.0392
5.31296
5.58357
5.85083
6.11456
6.37458
6.63074
6.88288
7.13087
7.37457
7.61388
7.84869
8.07891
8.30444
8.52521
8.74114
8.95216
9.15818
9.35913
9.55498
9.74575
9.9314
10.1119
10.2873
10.4575
10.6226
10.7827
10.9379
11.0883
11.2345
11.3741
11.5174
11.612
-6.69316
-6.69712
-6.70236
-6.70707
-6.71071
-6.7136
-6.71607
-6.71834
-6.72054
-6.72281
-6.72523
-6.72789
-6.73083
-6.73412
-6.73779
-6.74188
-6.74643
-6.75148
-6.75706
-6.76322
-6.76998
-6.77738
-6.78546
-6.79425
-6.8038
-6.81412
-6.82525
-6.83721
-6.85004
-6.86375
-6.87836
-6.89388
-6.91031
-6.92767
-6.94594
-6.96511
-6.98518
-7.00613
-7.02793
-7.05057
-7.074
-7.09819
-7.12311
-7.14874
-7.17504
-7.20197
-7.22949
-7.25754
-7.28608
-7.31503
-7.34436
-7.37398
-7.40384
-7.43386
-7.46395
-7.49405
-7.52404
-7.55384
-7.58335
-7.61244
-7.64101
-7.66892
-7.69605
-7.72225
-7.74739
-7.77131
-7.79386
-7.81487
-7.83418
-7.85162
-7.86701
-7.88017
-7.89091
-7.89906
-7.90443
-7.90682
-7.90605
-7.90192
-7.89426
-7.88286
-7.86755
-7.84813
-7.82444
-7.79629
-7.7635
-7.72591
-7.68335
-7.63566
-7.58269
-7.52429
-7.46032
-7.39063
-7.3151
-7.2336
-7.14601
-7.05221
-6.95211
-6.84562
-6.73264
-6.61309
-6.48691
-6.35406
-6.21449
-6.06819
-5.91513
-5.75533
-5.5888
-5.41556
-5.23568
-5.0492
-4.85621
-4.6568
-4.45108
-4.23917
-4.02121
-3.79735
-3.56776
-3.33262
-3.09213
-2.84648
-2.59591
-2.34065
-2.08093
-1.81702
-1.54918
-1.27769
-1.00281
-0.724843
-0.44408
-0.160822
0.124626
0.411954
0.700853
0.99101
1.28211
1.57385
1.86592
2.15801
2.4498
2.74102
3.03135
3.32052
3.60825
3.89426
4.1783
4.4601
4.73942
5.01604
5.28973
5.56029
5.82751
6.09121
6.35122
6.60738
6.85953
7.10754
7.35128
7.59063
7.8255
8.05577
8.28137
8.50222
8.71822
8.92931
9.13541
9.33645
9.5324
9.72326
9.909
10.0896
10.265
10.4353
10.6004
10.7605
10.9154
11.0652
11.2104
11.348
11.4887
11.5754
-6.69292
-6.69714
-6.7028
-6.70794
-6.71202
-6.71533
-6.7182
-6.72084
-6.7234
-6.72602
-6.72877
-6.73175
-6.73501
-6.73861
-6.74259
-6.747
-6.75186
-6.75723
-6.76312
-6.76959
-6.77667
-6.78438
-6.79278
-6.80188
-6.81172
-6.82234
-6.83375
-6.84598
-6.85906
-6.87299
-6.8878
-6.9035
-6.92008
-6.93755
-6.9559
-6.97513
-6.99522
-7.01616
-7.03793
-7.06051
-7.08387
-7.10798
-7.13283
-7.15837
-7.18458
-7.21143
-7.23886
-7.26683
-7.2953
-7.32421
-7.3535
-7.3831
-7.41296
-7.443
-7.47313
-7.50327
-7.53333
-7.56321
-7.59281
-7.622
-7.65068
-7.67871
-7.70596
-7.7323
-7.75757
-7.78163
-7.80431
-7.82546
-7.8449
-7.86247
-7.87798
-7.89126
-7.90211
-7.91037
-7.91583
-7.91831
-7.91762
-7.91357
-7.90597
-7.89464
-7.87938
-7.86001
-7.83636
-7.80825
-7.77549
-7.73794
-7.69541
-7.64776
-7.59483
-7.53647
-7.47254
-7.4029
-7.32742
-7.24598
-7.15846
-7.06474
-6.96472
-6.85829
-6.74538
-6.62589
-6.49977
-6.36697
-6.22746
-6.0812
-5.9282
-5.76845
-5.60196
-5.42879
-5.24896
-5.06255
-4.86963
-4.67029
-4.46465
-4.25283
-4.03496
-3.8112
-3.58172
-3.3467
-3.10632
-2.86081
-2.61037
-2.35525
-2.09568
-1.83192
-1.56423
-1.29289
-1.01818
-0.740382
-0.459787
-0.176699
0.108577
0.395733
0.684459
0.974443
1.26537
1.55695
1.84884
2.14076
2.4324
2.72346
3.01364
3.30266
3.59024
3.87611
4.16001
4.44169
4.7209
4.99741
5.271
5.54147
5.80861
6.07224
6.33219
6.5883
6.84041
7.08839
7.3321
7.57145
7.80631
8.03659
8.26221
8.48307
8.6991
8.91022
9.11635
9.31744
9.51345
9.70436
9.89014
10.0708
10.2462
10.4165
10.5816
10.7414
10.896
11.0451
11.1891
11.3246
11.463
11.5429
-6.69473
-6.69907
-6.70494
-6.71036
-6.71473
-6.71836
-6.72153
-6.72448
-6.72734
-6.73024
-6.73328
-6.73653
-6.74007
-6.74393
-6.74818
-6.75285
-6.75798
-6.76361
-6.76977
-6.7765
-6.78384
-6.79181
-6.80046
-6.80981
-6.81989
-6.83073
-6.84236
-6.85479
-6.86805
-6.88216
-6.89711
-6.91293
-6.92961
-6.94716
-6.96557
-6.98483
-7.00494
-7.02589
-7.04765
-7.07022
-7.09356
-7.11765
-7.14248
-7.168
-7.1942
-7.22104
-7.24847
-7.27646
-7.30495
-7.3339
-7.36324
-7.39292
-7.42286
-7.45299
-7.48323
-7.51349
-7.54368
-7.5737
-7.60344
-7.63279
-7.66162
-7.6898
-7.71721
-7.7437
-7.76912
-7.79332
-7.81613
-7.83741
-7.85697
-7.87464
-7.89024
-7.9036
-7.91452
-7.92283
-7.92833
-7.93084
-7.93016
-7.92611
-7.9185
-7.90714
-7.89185
-7.87245
-7.84875
-7.82058
-7.78776
-7.75014
-7.70755
-7.65983
-7.60683
-7.54841
-7.48441
-7.41472
-7.33919
-7.2577
-7.17013
-7.07637
-6.9763
-6.86982
-6.75683
-6.63728
-6.51109
-6.37821
-6.23862
-6.09229
-5.93921
-5.77939
-5.61284
-5.4396
-5.25972
-5.07327
-4.88031
-4.68095
-4.47529
-4.26346
-4.0456
-3.82185
-3.5924
-3.35741
-3.11708
-2.87162
-2.62125
-2.3662
-2.10672
-1.84306
-1.57548
-1.30425
-1.02966
-0.751992
-0.471533
-0.188588
0.0965397
0.383542
0.672111
0.961935
1.2527
1.5441
1.83583
2.12757
2.41904
2.70992
2.99993
3.28878
3.57619
3.8619
4.14564
4.42717
4.70623
4.98259
5.25605
5.52639
5.7934
6.05692
6.31676
6.57277
6.82479
7.07269
7.31634
7.55562
7.79044
8.02068
8.24626
8.4671
8.68311
8.89422
9.10036
9.30146
9.49748
9.68841
9.87421
10.0548
10.2303
10.4005
10.5654
10.7249
10.8791
11.0274
11.1702
11.3038
11.44
11.514
-6.69851
-6.70284
-6.70874
-6.71426
-6.7188
-6.72262
-6.72601
-6.72917
-6.73225
-6.73536
-6.73861
-6.74206
-6.74579
-6.74985
-6.75429
-6.75915
-6.76447
-6.77029
-6.77664
-6.78356
-6.79107
-6.79923
-6.80805
-6.81757
-6.82781
-6.8388
-6.85057
-6.86314
-6.87651
-6.89072
-6.90577
-6.92166
-6.93841
-6.95601
-6.97446
-6.99376
-7.0139
-7.03486
-7.05665
-7.07923
-7.10259
-7.12672
-7.15158
-7.17715
-7.2034
-7.2303
-7.25781
-7.28589
-7.31448
-7.34354
-7.37301
-7.40282
-7.43291
-7.4632
-7.4936
-7.52403
-7.55439
-7.58459
-7.6145
-7.64402
-7.67301
-7.70136
-7.72892
-7.75555
-7.7811
-7.80541
-7.82834
-7.8497
-7.86933
-7.88705
-7.90269
-7.91606
-7.92699
-7.93528
-7.94074
-7.9432
-7.94245
-7.93832
-7.93061
-7.91915
-7.90373
-7.8842
-7.86036
-7.83204
-7.79907
-7.7613
-7.71855
-7.67067
-7.61752
-7.55894
-7.4948
-7.42496
-7.34929
-7.26767
-7.17997
-7.08606
-6.98583
-6.87918
-6.76603
-6.6463
-6.51993
-6.38689
-6.24713
-6.10064
-5.9474
-5.78742
-5.62073
-5.44735
-5.26735
-5.08078
-4.88772
-4.68827
-4.48254
-4.27065
-4.05274
-3.82896
-3.59949
-3.3645
-3.12418
-2.87874
-2.62841
-2.37342
-2.114
-1.85042
-1.58293
-1.3118
-1.03732
-0.759778
-0.479458
-0.196663
0.0883062
0.375143
0.66354
0.953185
1.24377
1.53498
1.82651
2.11806
2.40932
2.7
2.98981
3.27845
3.56566
3.85117
4.13471
4.41603
4.6949
4.97108
5.24435
5.51451
5.78136
6.04471
6.3044
6.56026
6.81215
7.05992
7.30346
7.54264
7.77736
8.00752
8.23303
8.4538
8.66976
8.88083
9.08693
9.28802
9.48404
9.67495
9.86074
10.0413
10.2167
10.3868
10.5515
10.7107
10.8643
11.0119
11.1534
11.2851
11.4193
11.4884
-6.70405
-6.70828
-6.71406
-6.71953
-6.72411
-6.72801
-6.73151
-6.73478
-6.73797
-6.7412
-6.74455
-6.74811
-6.75195
-6.75611
-6.76065
-6.7656
-6.77102
-6.77692
-6.78337
-6.79037
-6.79798
-6.80623
-6.81513
-6.82473
-6.83505
-6.84612
-6.85796
-6.87059
-6.88402
-6.89828
-6.91337
-6.9293
-6.94608
-6.96372
-6.9822
-7.00153
-7.02171
-7.04271
-7.06454
-7.08718
-7.1106
-7.1348
-7.15975
-7.18542
-7.21178
-7.2388
-7.26644
-7.29466
-7.32341
-7.35263
-7.38227
-7.41225
-7.44252
-7.47299
-7.50358
-7.53419
-7.56473
-7.59509
-7.62517
-7.65484
-7.68398
-7.71245
-7.74012
-7.76685
-7.79247
-7.81685
-7.8398
-7.86118
-7.8808
-7.8985
-7.91409
-7.9274
-7.93823
-7.94641
-7.95174
-7.95405
-7.95314
-7.94882
-7.94092
-7.92925
-7.91363
-7.89387
-7.8698
-7.84125
-7.80806
-7.77005
-7.72707
-7.67897
-7.62559
-7.56679
-7.50243
-7.43239
-7.35652
-7.2747
-7.18678
-7.09263
-6.99216
-6.88527
-6.77187
-6.6519
-6.52529
-6.39202
-6.25203
-6.10532
-5.95187
-5.79169
-5.62481
-5.45127
-5.2711
-5.08439
-4.8912
-4.69164
-4.48582
-4.27385
-4.05588
-3.83206
-3.60256
-3.36757
-3.12726
-2.88186
-2.63158
-2.37666
-2.11732
-1.85383
-1.58646
-1.31546
-1.04112
-0.763727
-0.483576
-0.20096
0.0838194
0.370457
0.658644
0.948072
1.23843
1.52941
1.8207
2.112
2.40301
2.69344
2.98299
3.27139
3.55834
3.84359
4.12688
4.40795
4.68657
4.9625
5.23554
5.50547
5.77209
6.03523
6.29472
6.55039
6.80209
7.04969
7.29307
7.5321
7.76668
7.99672
8.22212
8.4428
8.65867
8.86967
9.07572
9.27676
9.47275
9.66363
9.84937
10.0299
10.2052
10.3751
10.5396
10.6984
10.8515
10.9981
11.1384
11.2683
11.4006
11.4657
-6.71113
-6.71516
-6.72071
-6.72602
-6.73052
-6.73438
-6.73786
-6.74112
-6.74431
-6.74754
-6.75089
-6.75444
-6.75827
-6.76242
-6.76694
-6.77188
-6.77728
-6.78318
-6.78961
-6.79661
-6.80422
-6.81245
-6.82136
-6.83096
-6.84128
-6.85234
-6.86418
-6.87681
-6.89025
-6.90451
-6.91961
-6.93555
-6.95234
-6.97
-6.9885
-7.00787
-7.02808
-7.04914
-7.07104
-7.09375
-7.11727
-7.14157
-7.16663
-7.19243
-7.21893
-7.2461
-7.2739
-7.30229
-7.3312
-7.3606
-7.39041
-7.42057
-7.45101
-7.48164
-7.51239
-7.54315
-7.57382
-7.6043
-7.63448
-7.66424
-7.69344
-7.72196
-7.74965
-7.77638
-7.80198
-7.8263
-7.84919
-7.87047
-7.88998
-7.90753
-7.92296
-7.93607
-7.9467
-7.95465
-7.95975
-7.9618
-7.96062
-7.95602
-7.94784
-7.93587
-7.91995
-7.89989
-7.87552
-7.84667
-7.81318
-7.77488
-7.73162
-7.68324
-7.62959
-7.57054
-7.50594
-7.43565
-7.35954
-7.27745
-7.18924
-7.0948
-6.99403
-6.88685
-6.77316
-6.65291
-6.52603
-6.3925
-6.25226
-6.10531
-5.95165
-5.79127
-5.62421
-5.4505
-5.27018
-5.08334
-4.89004
-4.69039
-4.48449
-4.27248
-4.05448
-3.83065
-3.60116
-3.3662
-3.12595
-2.88062
-2.63043
-2.37561
-2.1164
-1.85306
-1.58585
-1.31503
-1.04088
-0.763701
-0.483774
-0.201397
0.0831305
0.369505
0.657418
0.946563
1.23663
1.52731
1.81829
2.10928
2.39998
2.69009
2.97932
3.26739
3.55402
3.83895
4.12192
4.40267
4.68098
4.95661
5.22935
5.49899
5.76534
6.02821
6.28743
6.54286
6.79433
7.04171
7.28488
7.52372
7.75813
7.98801
8.21326
8.43381
8.64957
8.86048
9.06645
9.26743
9.46336
9.65419
9.83987
10.0203
10.1955
10.3652
10.5294
10.6879
10.8403
10.986
11.1251
11.2532
11.3838
11.4456
-6.7195
-6.7233
-6.72854
-6.73359
-6.73788
-6.74158
-6.7449
-6.74803
-6.75108
-6.75416
-6.75737
-6.76078
-6.76447
-6.76848
-6.77287
-6.77768
-6.78296
-6.78874
-6.79506
-6.80196
-6.80946
-6.81761
-6.82642
-6.83594
-6.84619
-6.85719
-6.86897
-6.88155
-6.89494
-6.90916
-6.92423
-6.94015
-6.95694
-6.97459
-6.99312
-7.01251
-7.03276
-7.05388
-7.07584
-7.09864
-7.12225
-7.14666
-7.17184
-7.19776
-7.2244
-7.2517
-7.27964
-7.30816
-7.33721
-7.36673
-7.39666
-7.42693
-7.45746
-7.48818
-7.51898
-7.54978
-7.58048
-7.61097
-7.64112
-7.67083
-7.69996
-7.72838
-7.75595
-7.78253
-7.80796
-7.83209
-7.85476
-7.8758
-7.89504
-7.91231
-7.92743
-7.94023
-7.95053
-7.95814
-7.96288
-7.96456
-7.96302
-7.95805
-7.94949
-7.93716
-7.92087
-7.90045
-7.87574
-7.84656
-7.81274
-7.77413
-7.73057
-7.68191
-7.62799
-7.56868
-7.50384
-7.4333
-7.3569
-7.27449
-7.18596
-7.09121
-6.99014
-6.88265
-6.76868
-6.64816
-6.52103
-6.38725
-6.24679
-6.09963
-5.94578
-5.78523
-5.61802
-5.44419
-5.26377
-5.07684
-4.88349
-4.6838
-4.47789
-4.26588
-4.04791
-3.82414
-3.59473
-3.35987
-3.11974
-2.87456
-2.62454
-2.36992
-2.11092
-1.8478
-1.58084
-1.31028
-1.03642
-0.759531
-0.479916
-0.197864
0.0863256
0.372349
0.659901
0.948675
1.23836
1.52865
1.81925
2.10984
2.40014
2.68984
2.97867
3.26633
3.55256
3.83709
4.11967
4.40004
4.67796
4.95322
5.22559
5.49488
5.76088
6.02342
6.28233
6.53745
6.78864
7.03575
7.27867
7.51728
7.75148
7.98116
8.20624
8.42663
8.64226
8.85304
9.05892
9.25981
9.45568
9.64644
9.83205
10.0124
10.1874
10.357
10.5209
10.6789
10.8306
10.9755
11.1133
11.2399
11.3687
11.4279
-6.72899
-6.73254
-6.73743
-6.74213
-6.74611
-6.74949
-6.75251
-6.75533
-6.75807
-6.76085
-6.76376
-6.76688
-6.77028
-6.77402
-6.77815
-6.78271
-6.78775
-6.79331
-6.79942
-6.80612
-6.81344
-6.82141
-6.83007
-6.83944
-6.84954
-6.86042
-6.87208
-6.88455
-6.89785
-6.91199
-6.92699
-6.94285
-6.9596
-6.97722
-6.99573
-7.01512
-7.03539
-7.05653
-7.07852
-7.10136
-7.12502
-7.14949
-7.17473
-7.20071
-7.22739
-7.25475
-7.28272
-7.31126
-7.34032
-7.36984
-7.39975
-7.42997
-7.46043
-7.49105
-7.52174
-7.55241
-7.58294
-7.61323
-7.64317
-7.67264
-7.70151
-7.72964
-7.75691
-7.78316
-7.80824
-7.832
-7.85429
-7.87493
-7.89377
-7.91062
-7.92531
-7.93768
-7.94753
-7.9547
-7.959
-7.96025
-7.95827
-7.95288
-7.9439
-7.93117
-7.91449
-7.8937
-7.86864
-7.83912
-7.80499
-7.76609
-7.72226
-7.67335
-7.61921
-7.55968
-7.49459
-7.42376
-7.34704
-7.26432
-7.17549
-7.08045
-6.9791
-6.87136
-6.75715
-6.6364
-6.50907
-6.37511
-6.23449
-6.0872
-5.93323
-5.7726
-5.60532
-5.43144
-5.25101
-5.0641
-4.87078
-4.67115
-4.46532
-4.25343
-4.0356
-3.81199
-3.58276
-3.34811
-3.10822
-2.8633
-2.61356
-2.35923
-2.10055
-1.83778
-1.57117
-1.30099
-1.02752
-0.75105
-0.471858
-0.190244
0.0934949
0.379057
0.666138
0.954431
1.24363
1.53343
1.82353
2.11362
2.40342
2.69262
2.98095
3.26811
3.55385
3.83789
4.11999
4.39988
4.67734
4.95215
5.22409
5.49295
5.75854
6.02069
6.27922
6.53398
6.78483
7.03163
7.27425
7.51259
7.74654
7.97599
8.20087
8.42108
8.63655
8.8472
9.05296
9.25376
9.44955
9.64024
9.82577
10.006
10.1809
10.3503
10.5139
10.6714
10.8225
10.9665
11.1031
11.2282
11.3552
11.4126
-6.73991
-6.74324
-6.74777
-6.75203
-6.75553
-6.75841
-6.76091
-6.76318
-6.76539
-6.76765
-6.77006
-6.7727
-6.77565
-6.77896
-6.78268
-6.78687
-6.79155
-6.79678
-6.80257
-6.80897
-6.81601
-6.82372
-6.83212
-6.84126
-6.85114
-6.8618
-6.87327
-6.88555
-6.89867
-6.91265
-6.9275
-6.94323
-6.95984
-6.97735
-6.99575
-7.01503
-7.0352
-7.05625
-7.07815
-7.10089
-7.12446
-7.14882
-7.17394
-7.19979
-7.22634
-7.25353
-7.28133
-7.30967
-7.33851
-7.36778
-7.39742
-7.42735
-7.45749
-7.48777
-7.51809
-7.54836
-7.57848
-7.60834
-7.63783
-7.66683
-7.69521
-7.72285
-7.7496
-7.77533
-7.79988
-7.82311
-7.84486
-7.86496
-7.88325
-7.89957
-7.91373
-7.92557
-7.9349
-7.94156
-7.94537
-7.94614
-7.9437
-7.93787
-7.92848
-7.91535
-7.8983
-7.87718
-7.85181
-7.82201
-7.78764
-7.74853
-7.70452
-7.65545
-7.60114
-7.5414
-7.47604
-7.40493
-7.32794
-7.24497
-7.15592
-7.06067
-6.95914
-6.85123
-6.73688
-6.61601
-6.48858
-6.35455
-6.21389
-6.06658
-5.91262
-5.75203
-5.58482
-5.41103
-5.23072
-5.04395
-4.85081
-4.65138
-4.44579
-4.23415
-4.0166
-3.7933
-3.56442
-3.33013
-3.09062
-2.84611
-2.5968
-2.34293
-2.08473
-1.82245
-1.55635
-1.28671
-1.01378
-0.737871
-0.459253
-0.178225
0.104917