/*--------------------------------*- C++ -*----------------------------------*\
  =========                 |
  \\      /  F ield         | OpenFOAM: The Open Source CFD Toolbox
   \\    /   O peration     | Website:  https://openfoam.org
    \\  /    A nd           | Version:  12
     \\/     M anipulation  |
\*---------------------------------------------------------------------------*/
FoamFile
{
    format      ascii;
    class       surfaceScalarField;
    location    "0.27";
    object      phi;
}
// * * * * * * * * * * * * * * * * * * * * * * * * * * * * * * * * * * * * * //

dimensions      [0 3 -1 0 0 0 0];

internalField   nonuniform List<scalar> 
24170
(
3.1336e-06
5.48062e-08
3.04827e-06
8.53262e-08
2.97315e-06
7.51233e-08
2.90431e-06
6.88355e-08
2.83949e-06
6.48284e-08
2.78227e-06
5.72207e-08
2.73337e-06
4.88986e-08
2.69184e-06
4.1523e-08
2.65641e-06
3.54377e-08
2.62589e-06
3.05201e-08
2.59932e-06
2.65705e-08
2.57589e-06
2.34251e-08
2.55493e-06
2.09647e-08
2.53575e-06
1.91754e-08
2.51773e-06
1.80253e-08
2.49908e-06
1.86424e-08
2.47857e-06
2.05167e-08
3.76302e-08
2.44094e-06
3.45361e-06
1.84442e-08
3.45616e-06
8.27726e-08
3.44962e-06
8.16674e-08
3.438e-06
8.04563e-08
3.42351e-06
7.93159e-08
3.40597e-06
7.47605e-08
3.38634e-06
6.85269e-08
3.36544e-06
6.24253e-08
3.34404e-06
5.68429e-08
3.32273e-06
5.18221e-08
3.30193e-06
4.73707e-08
3.28186e-06
4.3498e-08
3.26263e-06
4.0197e-08
3.24423e-06
3.7577e-08
3.2267e-06
3.55507e-08
3.20989e-06
3.54495e-08
3.1947e-06
3.57077e-08
4.5839e-08
3.1865e-06
3.66535e-06
1.56074e-08
3.67825e-06
6.9873e-08
3.68531e-06
7.46058e-08
3.6896e-06
7.61735e-08
3.69127e-06
7.76414e-08
3.69014e-06
7.58913e-08
3.68669e-06
7.19772e-08
3.6815e-06
6.76193e-08
3.67499e-06
6.33543e-08
3.66751e-06
5.9301e-08
3.65934e-06
5.55358e-08
3.6507e-06
5.21369e-08
3.64174e-06
4.9159e-08
3.63257e-06
4.67509e-08
3.62318e-06
4.49365e-08
3.61401e-06
4.46159e-08
3.60473e-06
4.49881e-08
4.95627e-08
3.60101e-06
3.92465e-06
1.63466e-08
3.9358e-06
5.87208e-08
3.94255e-06
6.78612e-08
3.94802e-06
7.06963e-08
3.95244e-06
7.32284e-08
3.95536e-06
7.29697e-08
3.95691e-06
7.04228e-08
3.9574e-06
6.7135e-08
3.957e-06
6.37516e-08
3.95587e-06
6.04318e-08
3.95413e-06
5.72693e-08
3.95191e-06
5.43645e-08
3.94927e-06
5.18001e-08
3.9463e-06
4.97187e-08
3.94304e-06
4.81975e-08
3.93992e-06
4.77365e-08
3.93694e-06
4.79639e-08
4.98249e-08
3.93668e-06
4.20777e-06
1.57061e-08
4.216e-06
5.04883e-08
4.22167e-06
6.21961e-08
4.2266e-06
6.57627e-08
4.2313e-06
6.85277e-08
4.23526e-06
6.90109e-08
4.23836e-06
6.73249e-08
4.24073e-06
6.47626e-08
4.24249e-06
6.19945e-08
4.24371e-06
5.92045e-08
4.24449e-06
5.64935e-08
4.24488e-06
5.39705e-08
4.24495e-06
5.17295e-08
4.24478e-06
4.98917e-08
4.24444e-06
4.8535e-08
4.24428e-06
4.79027e-08
4.24447e-06
4.7774e-08
4.81868e-08
4.2461e-06
4.51044e-06
1.43531e-08
4.51686e-06
4.40649e-08
4.52218e-06
5.68835e-08
4.52684e-06
6.11015e-08
4.53145e-06
6.39124e-08
4.53565e-06
6.48174e-08
4.53923e-06
6.37382e-08
4.54228e-06
6.17155e-08
4.54487e-06
5.9406e-08
4.54706e-06
5.70172e-08
4.54889e-06
5.46557e-08
4.55043e-06
5.24309e-08
4.55173e-06
5.04363e-08
4.55285e-06
4.8767e-08
4.55391e-06
4.74791e-08
4.55514e-06
4.66646e-08
4.55677e-06
4.61454e-08
4.56856e-08
4.55927e-06
4.83412e-06
1.29518e-08
4.83958e-06
3.86049e-08
4.84483e-06
5.16304e-08
4.84943e-06
5.65094e-08
4.85394e-06
5.94005e-08
4.85817e-06
6.05861e-08
4.86194e-06
5.99701e-08
4.86528e-06
5.83776e-08
4.86825e-06
5.64324e-08
4.8709e-06
5.43637e-08
4.87328e-06
5.22836e-08
4.87541e-06
5.02969e-08
4.87736e-06
4.84901e-08
4.87919e-06
4.69335e-08
4.88101e-06
4.56568e-08
4.88301e-06
4.46685e-08
4.88534e-06
4.38089e-08
4.28138e-08
4.88822e-06
5.1809e-06
1.16317e-08
5.18571e-06
3.37992e-08
5.19084e-06
4.64946e-08
5.19542e-06
5.19286e-08
5.19989e-06
5.49346e-08
5.20415e-06
5.63234e-08
5.20804e-06
5.60835e-08
5.21156e-06
5.48593e-08
5.21476e-06
5.32249e-08
5.2177e-06
5.1427e-08
5.2204e-06
4.95833e-08
5.22291e-06
4.77921e-08
5.22527e-06
4.61304e-08
5.22755e-06
4.46482e-08
5.22985e-06
4.33539e-08
5.23231e-06
4.22156e-08
5.23502e-06
4.10948e-08
3.97786e-08
5.23806e-06
5.5526e-06
1.03681e-08
5.55685e-06
2.95484e-08
5.56177e-06
4.15757e-08
5.56634e-06
4.73596e-08
5.5708e-06
5.04756e-08
5.57511e-06
5.2013e-08
5.57911e-06
5.2084e-08
5.58278e-06
5.11866e-08
5.58618e-06
4.98308e-08
5.58933e-06
4.82728e-08
5.59228e-06
4.66357e-08
5.59506e-06
4.50111e-08
5.59772e-06
4.34663e-08
5.60033e-06
4.20367e-08
5.60297e-06
4.07178e-08
5.60572e-06
3.94642e-08
5.60865e-06
3.81638e-08
3.66688e-08
5.61176e-06
5.95099e-06
9.15796e-09
5.95476e-06
2.57755e-08
5.95942e-06
3.69187e-08
5.96395e-06
4.28233e-08
5.96841e-06
4.60162e-08
5.97277e-06
4.76562e-08
5.97688e-06
4.79763e-08
5.9807e-06
4.73661e-08
5.98426e-06
4.62632e-08
5.98761e-06
4.49225e-08
5.99078e-06
4.34712e-08
5.9938e-06
4.19942e-08
5.99671e-06
4.05501e-08
5.99958e-06
3.91656e-08
6.00247e-06
3.7831e-08
6.00543e-06
3.65029e-08
6.0085e-06
3.5097e-08
3.35227e-08
6.01164e-06
6.37796e-06
8.01463e-09
6.38133e-06
2.24029e-08
6.38571e-06
3.25325e-08
6.39019e-06
3.83447e-08
6.39465e-06
4.1562e-08
6.39904e-06
4.32632e-08
6.40325e-06
4.37707e-08
6.40721e-06
4.34035e-08
6.41094e-06
4.25271e-08
6.41448e-06
4.1384e-08
6.41785e-06
4.01019e-08
6.42109e-06
3.87601e-08
6.42423e-06
3.74099e-08
6.42732e-06
3.60735e-08
6.43041e-06
3.47423e-08
6.43353e-06
3.33822e-08
6.43669e-06
3.19349e-08
3.03532e-08
6.43986e-06
5.74175e-06
7.09983e-09
5.74433e-06
1.98177e-08
5.74783e-06
2.90321e-08
5.75156e-06
3.46181e-08
5.75532e-06
3.78053e-08
5.75905e-06
3.95297e-08
5.76267e-06
4.01498e-08
5.76613e-06
3.99505e-08
5.76941e-06
3.92437e-08
5.77254e-06
3.82529e-08
5.77554e-06
3.71029e-08
5.77843e-06
3.58686e-08
5.78124e-06
3.45973e-08
5.78401e-06
3.33092e-08
5.78675e-06
3.19995e-08
5.78949e-06
3.0644e-08
5.79222e-06
2.92029e-08
2.76569e-08
5.79492e-06
6.99913e-06
6.12222e-09
7.00187e-06
1.70835e-08
7.00565e-06
2.52445e-08
7.00982e-06
3.04514e-08
7.0141e-06
3.35255e-08
7.0184e-06
3.52309e-08
7.02262e-06
3.59334e-08
7.02668e-06
3.58857e-08
7.03058e-06
3.53458e-08
7.03432e-06
3.45114e-08
7.03792e-06
3.35012e-08
7.04141e-06
3.23852e-08
7.0448e-06
3.12066e-08
7.04812e-06
2.99858e-08
7.0514e-06
2.87233e-08
7.05463e-06
2.74062e-08
7.05782e-06
2.60121e-08
2.4543e-08
7.06094e-06
8.53188e-06
5.091e-09
8.53474e-06
1.42267e-08
8.53878e-06
2.11965e-08
8.54338e-06
2.58508e-08
8.54821e-06
2.86997e-08
8.55312e-06
3.03232e-08
8.55799e-06
3.10606e-08
8.56274e-06
3.11332e-08
8.56734e-06
3.07465e-08
8.57179e-06
3.00671e-08
8.57608e-06
2.92023e-08
8.58025e-06
2.82168e-08
8.58431e-06
2.715e-08
8.58827e-06
2.60232e-08
8.59215e-06
2.4843e-08
8.59595e-06
2.36073e-08
8.59966e-06
2.23076e-08
2.09604e-08
8.60324e-06
1.04003e-05
4.01676e-09
1.04033e-05
1.12648e-08
1.04075e-05
1.6907e-08
1.04126e-05
2.08225e-08
1.0418e-05
2.33062e-08
1.04235e-05
2.4761e-08
1.04291e-05
2.54682e-08
1.04346e-05
2.56135e-08
1.044e-05
2.53543e-08
1.04453e-05
2.48217e-08
1.04504e-05
2.41066e-08
1.04553e-05
2.3266e-08
1.04601e-05
2.23358e-08
1.04648e-05
2.13377e-08
1.04694e-05
2.02833e-08
1.04738e-05
1.91787e-08
1.04781e-05
1.8025e-08
1.68464e-08
1.04822e-05
1.26779e-05
2.9051e-09
1.2681e-05
8.18966e-09
1.26855e-05
1.23674e-08
1.2691e-05
1.53551e-08
1.2697e-05
1.73106e-08
1.27033e-05
1.84847e-08
1.27096e-05
1.908e-08
1.2716e-05
1.92371e-08
1.27223e-05
1.90689e-08
1.27285e-05
1.86691e-08
1.27345e-05
1.81072e-08
1.27403e-05
1.74295e-08
1.2746e-05
1.66663e-08
1.27515e-05
1.58382e-08
1.27568e-05
1.49589e-08
1.27619e-05
1.40388e-08
1.27669e-05
1.30842e-08
1.21212e-08
1.27716e-05
1.54543e-05
1.74498e-09
1.54576e-05
4.95047e-09
1.54624e-05
7.51073e-09
1.54684e-05
9.37897e-09
1.54751e-05
1.06294e-08
1.54822e-05
1.13918e-08
1.54895e-05
1.17815e-08
1.54968e-05
1.18835e-08
1.55041e-05
1.17653e-08
1.55113e-05
1.1483e-08
1.55184e-05
1.10804e-08
1.55252e-05
1.05883e-08
1.55318e-05
1.00284e-08
1.55383e-05
9.41672e-09
1.55444e-05
8.76545e-09
1.55504e-05
8.08517e-09
1.55561e-05
7.38283e-09
6.68254e-09
1.55615e-05
1.88389e-05
4.95027e-10
1.88424e-05
1.41632e-09
1.88478e-05
2.1513e-09
1.88545e-05
2.68916e-09
1.8862e-05
3.05156e-09
1.88702e-05
3.26785e-09
1.88786e-05
3.3605e-09
1.88871e-05
3.34823e-09
1.88956e-05
3.24929e-09
1.8904e-05
3.08004e-09
1.89123e-05
2.85362e-09
1.89203e-05
2.5804e-09
1.8928e-05
2.26904e-09
1.89355e-05
1.92709e-09
1.89427e-05
1.56136e-09
1.89496e-05
1.17871e-09
1.89562e-05
7.83724e-10
3.9543e-10
1.89625e-05
2.29648e-05
-9.51616e-10
2.29689e-05
-2.71394e-09
2.29752e-05
-4.14756e-09
2.29831e-05
-5.20991e-09
2.29921e-05
-5.91784e-09
2.30017e-05
-6.35808e-09
2.30117e-05
-6.62396e-09
2.30218e-05
-6.77416e-09
2.30319e-05
-6.84541e-09
2.30419e-05
-6.86887e-09
2.30516e-05
-6.86967e-09
2.3061e-05
-6.8638e-09
2.30702e-05
-6.85992e-09
2.30789e-05
-6.86251e-09
2.30874e-05
-6.87348e-09
2.30954e-05
-6.89245e-09
2.31032e-05
-6.91922e-09
-6.94164e-09
2.31105e-05
1.68118e-05
-2.09623e-09
1.68151e-05
-5.94643e-09
1.682e-05
-9.07206e-09
1.68261e-05
-1.13291e-08
1.6833e-05
-1.27664e-08
1.68402e-05
-1.36182e-08
1.68477e-05
-1.40885e-08
1.68552e-05
-1.42853e-08
1.68626e-05
-1.42837e-08
1.68699e-05
-1.41542e-08
1.6877e-05
-1.39515e-08
1.68839e-05
-1.37099e-08
1.68905e-05
-1.34499e-08
1.68968e-05
-1.31845e-08
1.69028e-05
-1.29221e-08
1.69086e-05
-1.26663e-08
1.69141e-05
-1.24197e-08
-1.21743e-08
1.69193e-05
1.46357e-05
-3.20428e-09
1.46388e-05
-9.10341e-09
1.46437e-05
-1.38924e-08
1.46495e-05
-1.72058e-08
1.4656e-05
-1.919e-08
1.46627e-05
-2.03197e-08
1.46695e-05
-2.08971e-08
1.46762e-05
-2.10564e-08
1.46829e-05
-2.09176e-08
1.46893e-05
-2.05967e-08
1.46955e-05
-2.01729e-08
1.47015e-05
-1.96915e-08
1.47072e-05
-1.91813e-08
1.47127e-05
-1.86624e-08
1.47179e-05
-1.81474e-08
1.47229e-05
-1.76431e-08
1.47277e-05
-1.71534e-08
-1.6673e-08
1.47322e-05
1.27412e-05
-4.25175e-09
1.27444e-05
-1.23116e-08
1.27493e-05
-1.88461e-08
1.27551e-05
-2.29946e-08
1.27612e-05
-2.52969e-08
1.27675e-05
-2.65981e-08
1.27738e-05
-2.72022e-08
1.278e-05
-2.72363e-08
1.2786e-05
-2.68917e-08
1.27917e-05
-2.63399e-08
1.27972e-05
-2.56757e-08
1.28025e-05
-2.49488e-08
1.28075e-05
-2.41932e-08
1.28123e-05
-2.34338e-08
1.28168e-05
-2.26854e-08
1.28211e-05
-2.19555e-08
1.28252e-05
-2.12482e-08
-2.05595e-08
1.28291e-05
1.10918e-05
-5.12818e-09
1.10951e-05
-1.56312e-08
1.11004e-05
-2.41375e-08
1.11062e-05
-2.87705e-08
1.1112e-05
-3.11307e-08
1.11179e-05
-3.2508e-08
1.11238e-05
-3.30503e-08
1.11294e-05
-3.28767e-08
1.11348e-05
-3.22791e-08
1.11399e-05
-3.14737e-08
1.11448e-05
-3.05576e-08
1.11495e-05
-2.95821e-08
1.11539e-05
-2.85868e-08
1.1158e-05
-2.75993e-08
1.1162e-05
-2.66344e-08
1.11657e-05
-2.5699e-08
1.11693e-05
-2.47961e-08
-2.39225e-08
1.11726e-05
9.65583e-06
-5.74143e-09
9.65935e-06
-1.91528e-08
9.66495e-06
-2.97344e-08
9.67062e-06
-3.44478e-08
9.67626e-06
-3.67621e-08
9.68188e-06
-3.81343e-08
9.6873e-06
-3.84736e-08
9.69243e-06
-3.79993e-08
9.69727e-06
-3.71188e-08
9.70185e-06
-3.60546e-08
9.70618e-06
-3.48865e-08
9.71026e-06
-3.36658e-08
9.71411e-06
-3.24374e-08
9.71774e-06
-3.12305e-08
9.72117e-06
-3.00595e-08
9.7244e-06
-2.89301e-08
9.72745e-06
-2.78436e-08
-2.67952e-08
9.73032e-06
8.40543e-06
-5.82063e-09
8.4098e-06
-2.35249e-08
8.4153e-06
-3.52332e-08
8.42049e-06
-3.9632e-08
8.42591e-06
-4.21845e-08
8.43137e-06
-4.35964e-08
8.43651e-06
-4.36132e-08
8.44126e-06
-4.27465e-08
8.44567e-06
-4.15326e-08
8.44979e-06
-4.01713e-08
8.45362e-06
-3.872e-08
8.45719e-06
-3.72306e-08
8.4605e-06
-3.5751e-08
8.46358e-06
-3.43102e-08
8.46644e-06
-3.29217e-08
8.4691e-06
-3.15916e-08
8.47158e-06
-3.03204e-08
-2.91044e-08
8.47389e-06
7.31506e-06
-3.59263e-09
7.32194e-06
-3.04072e-08
7.32738e-06
-4.06789e-08
7.33215e-06
-4.43939e-08
7.33745e-06
-4.74887e-08
7.34282e-06
-4.89613e-08
7.34777e-06
-4.85642e-08
7.35224e-06
-4.72155e-08
7.35627e-06
-4.55625e-08
7.35988e-06
-4.37834e-08
7.36309e-06
-4.19374e-08
7.36595e-06
-4.00876e-08
7.36848e-06
-3.82837e-08
7.37073e-06
-3.65517e-08
7.37271e-06
-3.49031e-08
7.37446e-06
-3.33426e-08
7.37601e-06
-3.18673e-08
-3.04709e-08
7.37737e-06
6.36222e-06
4.25368e-09
6.37294e-06
-4.11293e-08
6.38006e-06
-4.78013e-08
6.38624e-06
-5.0568e-08
6.3922e-06
-5.34499e-08
6.39748e-06
-5.42392e-08
6.40182e-06
-5.29118e-08
6.40539e-06
-5.07796e-08
6.40828e-06
-4.84565e-08
6.41055e-06
-4.60549e-08
6.41226e-06
-4.36424e-08
6.41347e-06
-4.12966e-08
6.41425e-06
-3.90661e-08
6.41467e-06
-3.69704e-08
6.41478e-06
-3.50162e-08
6.41464e-06
-3.32047e-08
6.4143e-06
-3.15275e-08
-2.99642e-08
6.4138e-06
5.53608e-06
1.3639e-08
5.54775e-06
-5.28009e-08
5.55743e-06
-5.74837e-08
5.566e-06
-5.91317e-08
5.57276e-06
-6.02099e-08
5.57717e-06
-5.86516e-08
5.57931e-06
-5.50483e-08
5.57973e-06
-5.12024e-08
5.57886e-06
-4.75884e-08
5.57698e-06
-4.41779e-08
5.57432e-06
-4.09782e-08
5.57105e-06
-3.80271e-08
5.56732e-06
-3.53382e-08
5.56325e-06
-3.2903e-08
5.55895e-06
-3.07072e-08
5.55449e-06
-2.87477e-08
5.54998e-06
-2.70156e-08
-2.54499e-08
5.54546e-06
4.85751e-06
-1.62614e-08
4.86091e-06
-5.62011e-08
4.8615e-06
-5.8074e-08
4.85883e-06
-5.64601e-08
4.85481e-06
-5.61982e-08
4.84811e-06
-5.195e-08
4.83885e-06
-4.57874e-08
4.82759e-06
-3.99425e-08
4.81497e-06
-3.4969e-08
4.80158e-06
-3.07899e-08
4.78788e-06
-2.72691e-08
4.77415e-06
-2.43035e-08
4.76062e-06
-2.18024e-08
4.7474e-06
-1.96865e-08
4.73459e-06
-1.78929e-08
4.72225e-06
-1.64117e-08
4.7105e-06
-1.52695e-08
-1.49591e-08
4.70001e-06
4.18641e-06
4.13021e-06
4.07214e-06
4.01568e-06
3.95948e-06
3.90753e-06
3.86174e-06
3.8218e-06
3.78683e-06
3.75604e-06
3.72877e-06
3.70447e-06
3.68267e-06
3.66298e-06
3.64509e-06
3.62868e-06
3.61341e-06
3.59845e-06
9.25362e-09
-9.25362e-09
2.00965e-08
-1.08429e-08
2.80252e-08
-7.92862e-09
3.18259e-08
-3.80074e-09
3.12252e-08
6.00665e-10
2.67506e-08
4.47464e-09
1.90915e-08
7.65908e-09
8.97779e-09
1.01137e-08
-2.99351e-09
1.19713e-08
-1.64103e-08
1.34168e-08
-3.10167e-08
1.46064e-08
-4.66587e-08
1.5642e-08
-6.32478e-08
1.65892e-08
-8.07327e-08
1.74849e-08
-9.90812e-08
1.83484e-08
-1.1827e-07
1.91886e-08
-1.38279e-07
2.00088e-08
-1.59088e-07
2.08097e-08
-1.80679e-07
2.15904e-08
-2.03028e-07
2.23491e-08
-2.26111e-07
2.30829e-08
-2.49898e-07
2.37873e-08
-2.74353e-07
2.44555e-08
-2.99431e-07
2.50778e-08
-3.25073e-07
2.5642e-08
-3.51209e-07
2.61361e-08
-3.77764e-07
2.6555e-08
-4.04677e-07
2.69132e-08
-4.31933e-07
2.72555e-08
-4.59578e-07
2.76447e-08
-4.87703e-07
2.81254e-08
-5.16426e-07
2.87229e-08
-5.45965e-07
2.95388e-08
-5.76745e-07
3.07803e-08
-6.09112e-07
3.23669e-08
-6.42387e-07
3.32756e-08
-6.74778e-07
3.23902e-08
-7.09463e-07
3.46852e-08
-7.56522e-07
4.70587e-08
-8.01364e-07
4.48424e-08
-8.26047e-07
2.46831e-08
-8.61365e-07
3.53178e-08
-9.15341e-07
5.39761e-08
-9.63085e-07
4.7744e-08
-9.99578e-07
3.64927e-08
-1.04062e-06
4.10423e-08
-1.0835e-06
4.28837e-08
-1.12743e-06
4.39298e-08
-1.17196e-06
4.45279e-08
-1.2168e-06
4.48424e-08
-1.26178e-06
4.498e-08
-1.30678e-06
4.50004e-08
-1.35172e-06
4.49387e-08
-1.39654e-06
4.48163e-08
-1.44119e-06
4.46463e-08
-1.48562e-06
4.44368e-08
-1.52982e-06
4.41928e-08
-1.57373e-06
4.39169e-08
-1.61734e-06
4.36106e-08
-1.66062e-06
4.32744e-08
-1.70353e-06
4.29079e-08
-1.74604e-06
4.25106e-08
-1.78812e-06
4.20815e-08
-1.82974e-06
4.16196e-08
-1.87086e-06
4.11238e-08
-1.91145e-06
4.05928e-08
-1.95148e-06
4.00258e-08
-1.9909e-06
3.94216e-08
-2.02968e-06
3.87795e-08
-2.06778e-06
3.80988e-08
-2.10516e-06
3.73789e-08
-2.14178e-06
3.66194e-08
-2.1776e-06
3.58201e-08
-2.21258e-06
3.4981e-08
-2.24668e-06
3.4102e-08
-2.27986e-06
3.31836e-08
-2.31209e-06
3.2226e-08
-2.34332e-06
3.12298e-08
-2.37352e-06
3.01955e-08
-2.40264e-06
2.91239e-08
-2.43065e-06
2.80156e-08
-2.45753e-06
2.68715e-08
-2.48322e-06
2.56924e-08
-2.5077e-06
2.44789e-08
-2.53093e-06
2.32319e-08
-2.55288e-06
2.19517e-08
-2.57352e-06
2.06387e-08
-2.59281e-06
1.92928e-08
-2.61073e-06
1.79138e-08
-2.62723e-06
1.65008e-08
-2.64228e-06
1.50519e-08
-2.65584e-06
1.35647e-08
-2.66788e-06
1.20355e-08
-2.67834e-06
1.04576e-08
-2.68716e-06
8.82256e-09
-2.69428e-06
7.11853e-09
-2.69961e-06
5.32846e-09
-2.70305e-06
3.44129e-09
-2.70451e-06
1.45983e-09
-2.70397e-06
-5.41535e-10
-2.70176e-06
-2.20268e-09
-2.69797e-06
-3.79278e-09
-2.69262e-06
-5.35298e-09
-2.68571e-06
-6.90581e-09
-2.67725e-06
-8.46287e-09
-2.66722e-06
-1.00262e-08
-2.65563e-06
-1.15952e-08
-2.64246e-06
-1.31683e-08
-2.62772e-06
-1.47436e-08
-2.6114e-06
-1.6319e-08
-2.5935e-06
-1.78925e-08
-2.57404e-06
-1.94618e-08
-2.55302e-06
-2.1025e-08
-2.53044e-06
-2.258e-08
-2.50631e-06
-2.41246e-08
-2.48066e-06
-2.56568e-08
-2.45348e-06
-2.71746e-08
-2.42481e-06
-2.86759e-08
-2.39465e-06
-3.01586e-08
-2.36303e-06
-3.16208e-08
-2.32997e-06
-3.30605e-08
-2.29549e-06
-3.44756e-08
-2.25963e-06
-3.58644e-08
-2.2224e-06
-3.72251e-08
-2.18384e-06
-3.85558e-08
-2.14399e-06
-3.98548e-08
-2.10287e-06
-4.11206e-08
-2.06052e-06
-4.23514e-08
-2.01697e-06
-4.35455e-08
-1.97227e-06
-4.47015e-08
-1.92645e-06
-4.58179e-08
-1.87956e-06
-4.68933e-08
-1.83163e-06
-4.79266e-08
-1.78272e-06
-4.89166e-08
-1.73285e-06
-4.98623e-08
-1.68209e-06
-5.07628e-08
-1.63047e-06
-5.1617e-08
-1.57805e-06
-5.24244e-08
-1.52487e-06
-5.31842e-08
-1.47097e-06
-5.38962e-08
-1.41641e-06
-5.45601e-08
-1.36123e-06
-5.51757e-08
-1.30549e-06
-5.57428e-08
-1.24923e-06
-5.62616e-08
-1.1925e-06
-5.67326e-08
-1.13534e-06
-5.71562e-08
-1.07781e-06
-5.7533e-08
-1.01994e-06
-5.78637e-08
-9.61794e-07
-5.81495e-08
-9.03403e-07
-5.83914e-08
-8.44812e-07
-5.85908e-08
-7.86063e-07
-5.87492e-08
-7.27195e-07
-5.88681e-08
-6.68245e-07
-5.89496e-08
-6.0925e-07
-5.89953e-08
-5.50243e-07
-5.90072e-08
-4.91255e-07
-5.89875e-08
-4.32318e-07
-5.89378e-08
-3.73458e-07
-5.88596e-08
-3.14704e-07
-5.87537e-08
-2.56083e-07
-5.8621e-08
-1.97626e-07
-5.84577e-08
-1.39362e-07
-5.82638e-08
-8.13228e-08
-5.8039e-08
-2.35499e-08
-5.77729e-08
3.39216e-08
-5.74715e-08
9.10523e-08
-5.71307e-08
1.47842e-07
-5.679e-08
2.04313e-07
-5.64711e-08
2.60482e-07
-5.61687e-08
3.16345e-07
-5.5863e-08
3.71873e-07
-5.55278e-08
4.26997e-07
-5.5124e-08
4.81581e-07
-5.45846e-08
5.35361e-07
-5.37792e-08
5.87803e-07
-5.24422e-08
6.37697e-07
-4.98946e-08
6.82198e-07
-4.45004e-08
7.13768e-07
-3.15705e-08
8.33784e-09
7.0543e-07
7.00401e-09
-1.62576e-08
9.54541e-09
-1.33843e-08
8.21026e-09
-6.59348e-09
4.12591e-09
2.83614e-10
-2.07492e-09
6.80149e-09
-1.02752e-08
1.26749e-08
-2.03998e-08
1.77837e-08
-3.23841e-08
2.2098e-08
-4.61035e-08
2.56907e-08
-6.13857e-08
2.86989e-08
-7.80536e-08
3.12743e-08
-9.5958e-08
3.35464e-08
-1.14982e-07
3.56133e-08
-1.35041e-07
3.75437e-08
-1.56075e-07
3.93827e-08
-1.78045e-07
4.11585e-08
-2.00924e-07
4.28881e-08
-2.24696e-07
4.45815e-08
-2.4935e-07
4.62446e-08
-2.74882e-07
4.78805e-08
-3.0129e-07
4.94904e-08
-3.28576e-07
5.10741e-08
-3.56751e-07
5.26302e-08
-3.85831e-07
5.41573e-08
-4.15844e-07
5.56557e-08
-4.46841e-07
5.71322e-08
-4.78891e-07
5.86057e-08
-5.12092e-07
6.01141e-08
-5.46553e-07
6.1716e-08
-5.82384e-07
6.34766e-08
-6.19702e-07
6.54433e-08
-6.58616e-07
6.7636e-08
-6.99139e-07
7.00627e-08
-7.41051e-07
7.26922e-08
-7.83966e-07
7.5282e-08
-8.28026e-07
7.73346e-08
-8.7445e-07
7.88148e-08
-9.21297e-07
8.15316e-08
-9.60325e-07
8.6087e-08
-1.00175e-06
8.62636e-08
-1.05875e-06
8.16884e-08
-1.10689e-06
8.34598e-08
-1.14186e-06
8.89462e-08
-1.18296e-06
8.88389e-08
-1.23258e-06
8.61136e-08
-1.2776e-06
8.60653e-08
-1.32097e-06
8.62546e-08
-1.36337e-06
8.63249e-08
-1.40511e-06
8.62665e-08
-1.44634e-06
8.60807e-08
-1.48715e-06
8.57857e-08
-1.52755e-06
8.54005e-08
-1.56755e-06
8.49403e-08
-1.60715e-06
8.44165e-08
-1.64634e-06
8.38367e-08
-1.68511e-06
8.32059e-08
-1.72345e-06
8.25263e-08
-1.76133e-06
8.1799e-08
-1.79874e-06
8.10236e-08
-1.83566e-06
8.01987e-08
-1.87208e-06
7.93229e-08
-1.90796e-06
7.83939e-08
-1.94329e-06
7.74094e-08
-1.97804e-06
7.63674e-08
-2.01218e-06
7.52654e-08
-2.04569e-06
7.41015e-08
-2.07854e-06
7.28737e-08
-2.1107e-06
7.15803e-08
-2.14214e-06
7.022e-08
-2.17283e-06
6.87917e-08
-2.20274e-06
6.72943e-08
-2.23185e-06
6.57274e-08
-2.26012e-06
6.40907e-08
-2.28753e-06
6.23841e-08
-2.31403e-06
6.06079e-08
-2.33961e-06
5.87625e-08
-2.36423e-06
5.68486e-08
-2.38787e-06
5.4867e-08
-2.41049e-06
5.28189e-08
-2.43208e-06
5.07053e-08
-2.45259e-06
4.85276e-08
-2.472e-06
4.6287e-08
-2.4903e-06
4.39849e-08
-2.50744e-06
4.16226e-08
-2.52341e-06
3.92012e-08
-2.53818e-06
3.67219e-08
-2.55173e-06
3.41854e-08
-2.56403e-06
3.15924e-08
-2.57505e-06
2.89432e-08
-2.58479e-06
2.62377e-08
-2.59322e-06
2.34755e-08
-2.60031e-06
2.06559e-08
-2.60605e-06
1.77783e-08
-2.61043e-06
1.4842e-08
-2.61346e-06
1.18476e-08
-2.61514e-06
8.79824e-09
-2.61551e-06
5.70238e-09
-2.61465e-06
2.58198e-09
-2.61269e-06
-5.02105e-10
-2.60963e-06
-3.60096e-09
-2.60523e-06
-6.60721e-09
-2.59938e-06
-9.63556e-09
-2.59205e-06
-1.26854e-08
-2.5832e-06
-1.57537e-08
-2.57283e-06
-1.88401e-08
-2.56091e-06
-2.19421e-08
-2.54745e-06
-2.50563e-08
-2.53244e-06
-2.8179e-08
-2.51588e-06
-3.13059e-08
-2.49776e-06
-3.44331e-08
-2.4781e-06
-3.75561e-08
-2.45689e-06
-4.06709e-08
-2.43414e-06
-4.37732e-08
-2.40986e-06
-4.6859e-08
-2.38406e-06
-4.9924e-08
-2.35676e-06
-5.29643e-08
-2.32795e-06
-5.59758e-08
-2.29768e-06
-5.89543e-08
-2.26594e-06
-6.18959e-08
-2.23276e-06
-6.47966e-08
-2.19817e-06
-6.76522e-08
-2.16219e-06
-7.04591e-08
-2.12484e-06
-7.32133e-08
-2.08615e-06
-7.59114e-08
-2.04616e-06
-7.85499e-08
-2.00489e-06
-8.11252e-08
-1.96237e-06
-8.36341e-08
-1.91865e-06
-8.60734e-08
-1.87376e-06
-8.84397e-08
-1.82773e-06
-9.073e-08
-1.78061e-06
-9.29413e-08
-1.73243e-06
-9.5071e-08
-1.68324e-06
-9.71166e-08
-1.63308e-06
-9.90761e-08
-1.58199e-06
-1.00947e-07
-1.53003e-06
-1.02728e-07
-1.47723e-06
-1.04417e-07
-1.42364e-06
-1.06013e-07
-1.36931e-06
-1.07514e-07
-1.31429e-06
-1.0892e-07
-1.25862e-06
-1.10229e-07
-1.20235e-06
-1.11443e-07
-1.14553e-06
-1.1256e-07
-1.08821e-06
-1.13581e-07
-1.03044e-06
-1.14506e-07
-9.7226e-07
-1.15337e-07
-9.13718e-07
-1.16075e-07
-8.54861e-07
-1.16721e-07
-7.95732e-07
-1.17278e-07
-7.36376e-07
-1.17748e-07
-6.76834e-07
-1.18132e-07
-6.17148e-07
-1.18436e-07
-5.57356e-07
-1.1866e-07
-4.97495e-07
-1.18811e-07
-4.376e-07
-1.1889e-07
-3.77705e-07
-1.18902e-07
-3.17842e-07
-1.18851e-07
-2.58038e-07
-1.18741e-07
-1.98322e-07
-1.18575e-07
-1.38721e-07
-1.18355e-07
-7.92579e-08
-1.18084e-07
-1.99575e-08
-1.17758e-07
3.91544e-08
-1.17376e-07
9.80515e-08
-1.16936e-07
1.56717e-07
-1.16438e-07
2.15138e-07
-1.15893e-07
2.7332e-07
-1.15312e-07
3.31258e-07
-1.14728e-07
3.88947e-07
-1.1416e-07
4.46377e-07
-1.13598e-07
5.03528e-07
-1.13014e-07
5.60361e-07
-1.12361e-07
6.16797e-07
-1.1156e-07
6.72693e-07
-1.1048e-07
7.27781e-07
-1.08867e-07
7.81568e-07
-1.06229e-07
8.33089e-07
-1.01415e-07
8.80736e-07
-9.2148e-08
9.21217e-07
-7.20509e-08
-2.50986e-08
9.54653e-07
1.97093e-10
-1.64547e-08
-4.47465e-09
-8.71256e-09
-1.15948e-08
5.26632e-10
-2.0231e-08
8.9198e-09
-3.00953e-08
1.66659e-08
-4.11368e-08
2.37163e-08
-5.33926e-08
3.00396e-08
-6.69247e-08
3.56301e-08
-8.17673e-08
4.05333e-08
-9.79073e-08
4.48389e-08
-1.15293e-07
4.86599e-08
-1.33855e-07
5.21089e-08
-1.53526e-07
5.52843e-08
-1.74247e-07
5.82641e-08
-1.95971e-07
6.11069e-08
-2.18667e-07
6.38542e-08
-2.42314e-07
6.65351e-08
-2.66902e-07
6.91697e-08
-2.92429e-07
7.1772e-08
-3.18901e-07
7.43521e-08
-3.46328e-07
7.69175e-08
-3.74728e-07
7.94743e-08
-4.04126e-07
8.20281e-08
-4.34554e-07
8.45855e-08
-4.66054e-07
8.71554e-08
-4.98673e-07
8.97515e-08
-5.32462e-07
9.23945e-08
-5.6746e-07
9.51122e-08
-6.03679e-07
9.79354e-08
-6.4109e-07
1.00888e-07
-6.79619e-07
1.03972e-07
-7.19136e-07
1.07153e-07
-7.59427e-07
1.10354e-07
-8.0017e-07
1.13435e-07
-8.41093e-07
1.16204e-07
-8.82258e-07
1.185e-07
-9.23907e-07
1.20464e-07
-9.648e-07
1.22424e-07
-1.00278e-06
1.24067e-07
-1.04095e-06
1.24437e-07
-1.0833e-06
1.24034e-07
-1.1244e-06
1.24557e-07
-1.161e-06
1.25547e-07
-1.19764e-06
1.2548e-07
-1.23627e-06
1.24741e-07
-1.27437e-06
1.24173e-07
-1.31181e-06
1.23694e-07
-1.34871e-06
1.2322e-07
-1.38515e-06
1.22711e-07
-1.42122e-06
1.22145e-07
-1.45694e-06
1.21514e-07
-1.49236e-06
1.20818e-07
-1.52748e-06
1.20059e-07
-1.5623e-06
1.19239e-07
-1.59682e-06
1.18359e-07
-1.63104e-06
1.17419e-07
-1.66493e-06
1.16417e-07
-1.69848e-06
1.15353e-07
-1.73168e-06
1.14223e-07
-1.76451e-06
1.13024e-07
-1.79694e-06
1.11752e-07
-1.82895e-06
1.10405e-07
-1.86052e-06
1.08978e-07
-1.89162e-06
1.07468e-07
-1.92222e-06
1.05872e-07
-1.95231e-06
1.04186e-07
-1.98184e-06
1.02407e-07
-2.01079e-06
1.00534e-07
-2.03914e-06
9.85647e-08
-2.06684e-06
9.64966e-08
-2.09388e-06
9.43289e-08
-2.12021e-06
9.20607e-08
-2.14581e-06
8.96915e-08
-2.17065e-06
8.72212e-08
-2.19469e-06
8.46501e-08
-2.21791e-06
8.19788e-08
-2.24027e-06
7.92082e-08
-2.26174e-06
7.63395e-08
-2.2823e-06
7.33741e-08
-2.3019e-06
7.03137e-08
-2.32054e-06
6.71601e-08
-2.33816e-06
6.39151e-08
-2.35476e-06
6.05808e-08
-2.3703e-06
5.71593e-08
-2.38475e-06
5.36525e-08
-2.39809e-06
5.00624e-08
-2.41029e-06
4.63908e-08
-2.42134e-06
4.26394e-08
-2.43121e-06
3.88099e-08
-2.43987e-06
3.49037e-08
-2.44732e-06
3.09224e-08
-2.45353e-06
2.68678e-08
-2.4585e-06
2.27423e-08
-2.4622e-06
1.85496e-08
-2.46465e-06
1.42951e-08
-2.46584e-06
9.98691e-09
-2.46578e-06
5.6374e-09
-2.46446e-06
1.26359e-09
-2.46185e-06
-3.11338e-09
-2.45794e-06
-7.50985e-09
-2.45262e-06
-1.19249e-08
-2.44587e-06
-1.63824e-08
-2.43768e-06
-2.08813e-08
-2.42801e-06
-2.54169e-08
-2.41687e-06
-2.99836e-08
-2.40424e-06
-3.45756e-08
-2.39011e-06
-3.91867e-08
-2.37447e-06
-4.38108e-08
-2.35734e-06
-4.84415e-08
-2.3387e-06
-5.30726e-08
-2.31856e-06
-5.76978e-08
-2.29692e-06
-6.23109e-08
-2.27379e-06
-6.69056e-08
-2.24917e-06
-7.14758e-08
-2.22308e-06
-7.60154e-08
-2.19552e-06
-8.05183e-08
-2.16652e-06
-8.49786e-08
-2.13608e-06
-8.93902e-08
-2.10423e-06
-9.37471e-08
-2.07099e-06
-9.80433e-08
-2.03637e-06
-1.02273e-07
-2.00039e-06
-1.0643e-07
-1.9631e-06
-1.10509e-07
-1.9245e-06
-1.14505e-07
-1.88464e-06
-1.18413e-07
-1.84354e-06
-1.22227e-07
-1.80123e-06
-1.25942e-07
-1.75775e-06
-1.29553e-07
-1.71313e-06
-1.33057e-07
-1.66742e-06
-1.36448e-07
-1.62064e-06
-1.39721e-07
-1.57283e-06
-1.42874e-07
-1.52405e-06
-1.45901e-07
-1.47432e-06
-1.48801e-07
-1.4237e-06
-1.51569e-07
-1.37223e-06
-1.54204e-07
-1.31994e-06
-1.56702e-07
-1.26689e-06
-1.59061e-07
-1.21313e-06
-1.6128e-07
-1.15869e-06
-1.63356e-07
-1.10363e-06
-1.65291e-07
-1.04799e-06
-1.67083e-07
-9.9182e-07
-1.68731e-07
-9.35164e-07
-1.70236e-07
-8.78069e-07
-1.716e-07
-8.20582e-07
-1.72824e-07
-7.62748e-07
-1.7391e-07
-7.04611e-07
-1.74859e-07
-6.46214e-07
-1.75675e-07
-5.87599e-07
-1.76362e-07
-5.28808e-07
-1.76923e-07
-4.69881e-07
-1.77363e-07
-4.10854e-07
-1.77687e-07
-3.51764e-07
-1.779e-07
-2.92646e-07
-1.78008e-07
-2.33531e-07
-1.78017e-07
-1.74449e-07
-1.77933e-07
-1.1543e-07
-1.77761e-07
-5.64976e-08
-1.77507e-07
2.32314e-09
-1.77176e-07
6.10085e-08
-1.76769e-07
1.19537e-07
-1.76287e-07
1.77891e-07
-1.75729e-07
2.36054e-07
-1.751e-07
2.94023e-07
-1.74407e-07
3.51803e-07
-1.73673e-07
4.09404e-07
-1.72914e-07
4.66815e-07
-1.72139e-07
5.24016e-07
-1.71361e-07
5.80986e-07
-1.70568e-07
6.37698e-07
-1.69726e-07
6.94108e-07
-1.6877e-07
7.50136e-07
-1.67589e-07
8.05647e-07
-1.65991e-07
8.60406e-07
-1.63625e-07
9.14009e-07
-1.59833e-07
9.65828e-07
-1.53235e-07
1.01497e-06
-1.41285e-07
1.06091e-06
-1.17996e-07
-7.20062e-08
1.10782e-06
-6.07175e-09
-1.0383e-08
-1.59397e-08
1.15536e-09
-2.6994e-08
1.1581e-08
-3.88822e-08
2.0808e-08
-5.1462e-08
2.92457e-08
-6.47562e-08
3.70106e-08
-7.88434e-08
4.41268e-08
-9.38186e-08
5.06053e-08
-1.09763e-07
5.64775e-08
-1.26727e-07
6.18027e-08
-1.44727e-07
6.66607e-08
-1.63758e-07
7.11393e-08
-1.83796e-07
7.53228e-08
-2.04817e-07
7.92849e-08
-2.26796e-07
8.30857e-08
-2.49714e-07
8.6772e-08
-2.73557e-07
9.03788e-08
-2.9832e-07
9.39324e-08
-3.24e-07
9.74519e-08
-3.50599e-07
1.00951e-07
-3.78124e-07
1.04442e-07
-4.0658e-07
1.07931e-07
-4.35976e-07
1.11425e-07
-4.66319e-07
1.14929e-07
-4.97612e-07
1.18448e-07
-5.29847e-07
1.21987e-07
-5.63e-07
1.25548e-07
-5.97021e-07
1.29133e-07
-6.31822e-07
1.32736e-07
-6.67271e-07
1.36337e-07
-7.032e-07
1.399e-07
-7.39407e-07
1.43361e-07
-7.75683e-07
1.46629e-07
-8.11842e-07
1.49594e-07
-8.47791e-07
1.52153e-07
-8.83548e-07
1.54257e-07
-9.19053e-07
1.55969e-07
-9.53985e-07
1.57357e-07
-9.88204e-07
1.58286e-07
-1.02237e-06
1.58607e-07
-1.05698e-06
1.58643e-07
-1.09123e-06
1.588e-07
-1.12455e-06
1.5887e-07
-1.15759e-06
1.58522e-07
-1.19075e-06
1.57904e-07
-1.22382e-06
1.57241e-07
-1.25669e-06
1.56561e-07
-1.28933e-06
1.55859e-07
-1.32174e-06
1.55124e-07
-1.35394e-06
1.54343e-07
-1.38593e-06
1.53508e-07
-1.41773e-06
1.52615e-07
-1.44933e-06
1.5166e-07
-1.48073e-06
1.5064e-07
-1.51193e-06
1.49552e-07
-1.5429e-06
1.48391e-07
-1.57363e-06
1.47154e-07
-1.60412e-06
1.45837e-07
-1.63433e-06
1.44434e-07
-1.66425e-06
1.42941e-07
-1.69385e-06
1.41352e-07
-1.7231e-06
1.39662e-07
-1.75199e-06
1.37868e-07
-1.78049e-06
1.35963e-07
-1.80856e-06
1.33943e-07
-1.83618e-06
1.31805e-07
-1.86332e-06
1.29546e-07
-1.88994e-06
1.27161e-07
-1.91603e-06
1.24648e-07
-1.94154e-06
1.22005e-07
-1.96644e-06
1.19232e-07
-1.9907e-06
1.16325e-07
-2.0143e-06
1.13286e-07
-2.03719e-06
1.10114e-07
-2.05935e-06
1.06809e-07
-2.08074e-06
1.03372e-07
-2.10134e-06
9.9804e-08
-2.12111e-06
9.6107e-08
-2.14001e-06
9.22828e-08
-2.15803e-06
8.83334e-08
-2.17513e-06
8.42614e-08
-2.19129e-06
8.00693e-08
-2.20647e-06
7.576e-08
-2.22065e-06
7.13363e-08
-2.23379e-06
6.68011e-08
-2.24589e-06
6.21574e-08
-2.25691e-06
5.74081e-08
-2.26682e-06
5.25561e-08
-2.27562e-06
4.76042e-08
-2.28327e-06
4.25555e-08
-2.28976e-06
3.74129e-08
-2.29507e-06
3.218e-08
-2.29919e-06
2.6861e-08
-2.3021e-06
2.1461e-08
-2.30379e-06
1.59866e-08
-2.30425e-06
1.04456e-08
-2.30346e-06
4.84769e-09
-2.3014e-06
-7.97598e-10
-2.29803e-06
-6.48356e-09
-2.29332e-06
-1.22156e-08
-2.28725e-06
-1.80016e-08
-2.27978e-06
-2.38484e-08
-2.27091e-06
-2.97518e-08
-2.26062e-06
-3.57055e-08
-2.24891e-06
-4.17015e-08
-2.23575e-06
-4.77317e-08
-2.22115e-06
-5.37876e-08
-2.2051e-06
-5.98608e-08
-2.1876e-06
-6.59431e-08
-2.16864e-06
-7.2026e-08
-2.14824e-06
-7.81013e-08
-2.12639e-06
-8.41608e-08
-2.1031e-06
-9.01963e-08
-2.07837e-06
-9.61997e-08
-2.05223e-06
-1.02163e-07
-2.02467e-06
-1.08078e-07
-1.99571e-06
-1.13937e-07
-1.96537e-06
-1.19733e-07