/*--------------------------------*- C++ -*----------------------------------*\
  =========                 |
  \\      /  F ield         | OpenFOAM: The Open Source CFD Toolbox
   \\    /   O peration     | Website:  https://openfoam.org
    \\  /    A nd           | Version:  12
     \\/     M anipulation  |
\*---------------------------------------------------------------------------*/
FoamFile
{
    format      ascii;
    class       volVectorField;
    location    "0.27";
    object      U;
}
// * * * * * * * * * * * * * * * * * * * * * * * * * * * * * * * * * * * * * //

dimensions      [0 1 -1 0 0 0 0];

internalField   nonuniform List<vector> 
12225
(
(9.86107 -0.874318 0)
(9.67248 -0.700192 0)
(9.45897 -0.387593 0)
(9.22467 -0.188479 0)
(9.00349 -0.0843947 0)
(8.81041 -0.0328773 0)
(8.64513 -0.00755256 0)
(8.50414 0.0050224 0)
(8.38397 0.0113336 0)
(8.2811 0.0144689 0)
(8.19214 0.0159632 0)
(8.11423 0.0166314 0)
(8.04497 0.0169163 0)
(7.98256 0.017109 0)
(7.92407 0.0174018 0)
(7.87049 0.0184991 0)
(7.80127 0.02146 0)
(7.77499 0.0298326 0)
(10.0547 0.263069 0)
(10.1201 0.36074 0)
(10.118 0.27382 0)
(10.0826 0.187085 0)
(10.0405 0.131159 0)
(9.99392 0.0969236 0)
(9.94013 0.075553 0)
(9.8804 0.0617446 0)
(9.81785 0.0523376 0)
(9.75493 0.045519 0)
(9.69311 0.0403455 0)
(9.63319 0.0363561 0)
(9.57555 0.0332944 0)
(9.52059 0.0311405 0)
(9.46752 0.029728 0)
(9.41879 0.0308148 0)
(9.36746 0.0318783 0)
(9.34221 0.052164 0)
(9.99919 0.0460864 0)
(10.0244 0.0342082 0)
(10.0538 0.0149476 0)
(10.0708 0.0218071 0)
(10.0778 0.0366677 0)
(10.0783 0.0460026 0)
(10.0722 0.0499413 0)
(10.0603 0.0511304 0)
(10.0439 0.0510346 0)
(10.0246 0.0503151 0)
(10.0031 0.0493431 0)
(9.98004 0.0483642 0)
(9.95591 0.0475282 0)
(9.93114 0.0470674 0)
(9.90569 0.0470543 0)
(9.88058 0.0488161 0)
(9.85506 0.0515294 0)
(9.83518 0.0628221 0)
(9.9968 0.00642732 0)
(10.0085 0.0250164 0)
(10.0342 0.0389345 0)
(10.0528 0.0502972 0)
(10.0644 0.0571003 0)
(10.0731 0.059154 0)
(10.079 0.0588393 0)
(10.0817 0.057916 0)
(10.0816 0.0569056 0)
(10.0795 0.0558834 0)
(10.0758 0.054902 0)
(10.0707 0.0540474 0)
(10.0645 0.0534095 0)
(10.0573 0.0531805 0)
(10.0494 0.0534929 0)
(10.0412 0.0552159 0)
(10.0333 0.0580147 0)
(10.0278 0.0643665 0)
(9.99922 0.00673659 0)
(10.0081 0.0335711 0)
(10.0271 0.0460383 0)
(10.0418 0.0508376 0)
(10.0524 0.0539033 0)
(10.0622 0.0554887 0)
(10.0708 0.0558317 0)
(10.0775 0.0556433 0)
(10.0823 0.0552696 0)
(10.0858 0.0548016 0)
(10.0881 0.0543132 0)
(10.0895 0.0539085 0)
(10.09 0.0536964 0)
(10.0899 0.0538494 0)
(10.0892 0.0545167 0)
(10.0885 0.0561839 0)
(10.0884 0.0586626 0)
(10.09 0.0624316 0)
(10.0002 0.00907291 0)
(10.0078 0.0321211 0)
(10.0225 0.0419049 0)
(10.035 0.045656 0)
(10.0448 0.0491122 0)
(10.0542 0.0516448 0)
(10.063 0.0527794 0)
(10.0705 0.0531263 0)
(10.0767 0.0531607 0)
(10.0819 0.0530464 0)
(10.0864 0.0528747 0)
(10.0901 0.0527529 0)
(10.0932 0.0527907 0)
(10.0959 0.0531298 0)
(10.0983 0.0538919 0)
(10.1007 0.0553147 0)
(10.1037 0.0572389 0)
(10.1081 0.05951 0)
(10.0003 0.00879908 0)
(10.0068 0.0275136 0)
(10.019 0.0370751 0)
(10.0303 0.0417294 0)
(10.0395 0.0456459 0)
(10.0482 0.0484661 0)
(10.0566 0.0498712 0)
(10.0641 0.0504588 0)
(10.0706 0.0507146 0)
(10.0764 0.0508104 0)
(10.0815 0.0508326 0)
(10.0862 0.0508805 0)
(10.0904 0.0510544 0)
(10.0943 0.0514626 0)
(10.098 0.0521863 0)
(10.1019 0.0533156 0)
(10.1063 0.0546892 0)
(10.1116 0.0559881 0)
(10.0004 0.00783585 0)
(10.0057 0.02369 0)
(10.016 0.0333602 0)
(10.0264 0.038574 0)
(10.0351 0.0424642 0)
(10.0433 0.0452525 0)
(10.0512 0.0468007 0)
(10.0585 0.0475738 0)
(10.0649 0.0479966 0)
(10.0708 0.0482422 0)
(10.0763 0.0483974 0)
(10.0813 0.0485532 0)
(10.086 0.0487971 0)
(10.0904 0.0492069 0)
(10.0948 0.049826 0)
(10.0993 0.0506613 0)
(10.1042 0.0515524 0)
(10.1098 0.0521918 0)
(10.0004 0.00694966 0)
(10.0049 0.0207023 0)
(10.0136 0.0300252 0)
(10.023 0.0353861 0)
(10.0312 0.0391651 0)
(10.0389 0.0419194 0)
(10.0464 0.0436028 0)
(10.0534 0.0445405 0)
(10.0598 0.045097 0)
(10.0656 0.0454531 0)
(10.0711 0.0457003 0)
(10.0763 0.0459207 0)
(10.0812 0.0461874 0)
(10.0859 0.0465534 0)
(10.0906 0.0470336 0)
(10.0954 0.0475935 0)
(10.1005 0.0480872 0)
(10.1059 0.048276 0)
(10.0004 0.00616272 0)
(10.0042 0.0181164 0)
(10.0116 0.0267869 0)
(10.0199 0.0321221 0)
(10.0277 0.0358247 0)
(10.035 0.0385476 0)
(10.0421 0.0403235 0)
(10.0488 0.0413858 0)
(10.055 0.042044 0)
(10.0608 0.0424806 0)
(10.0663 0.0427894 0)
(10.0715 0.0430427 0)
(10.0764 0.0432997 0)
(10.0813 0.0435951 0)
(10.0861 0.0439259 0)
(10.091 0.0442432 0)
(10.096 0.044425 0)
(10.1013 0.0443066 0)
(10.0003 0.00542578 0)
(10.0036 0.0157933 0)
(10.0099 0.0237001 0)
(10.0173 0.0288916 0)
(10.0245 0.0325023 0)
(10.0314 0.0351581 0)
(10.0381 0.0369674 0)
(10.0446 0.0381103 0)
(10.0506 0.0388416 0)
(10.0563 0.039334 0)
(10.0617 0.0396798 0)
(10.0669 0.0399428 0)
(10.0719 0.0401696 0)
(10.0768 0.0403828 0)
(10.0816 0.0405709 0)
(10.0864 0.0406856 0)
(10.0913 0.0406327 0)
(10.0964 0.040309 0)
(10.0003 0.00477321 0)
(10.0031 0.0138478 0)
(10.0086 0.0210253 0)
(10.0152 0.0259835 0)
(10.0219 0.0294665 0)
(10.0285 0.0320272 0)
(10.0349 0.0338223 0)
(10.041 0.0350017 0)
(10.0469 0.0357737 0)
(10.0525 0.0362954 0)
(10.0578 0.0366555 0)
(10.063 0.0369103 0)
(10.0679 0.0370978 0)
(10.0728 0.0372331 0)
(10.0776 0.0373035 0)
(10.0823 0.0372682 0)
(10.0871 0.0370572 0)
(10.0919 0.0366118 0)
(10.0003 0.00416664 0)
(10.0028 0.0120804 0)
(10.0075 0.0185105 0)
(10.0134 0.023145 0)
(10.0197 0.0264577 0)
(10.0258 0.0288996 0)
(10.0319 0.0306464 0)
(10.0378 0.0318304 0)
(10.0436 0.0326202 0)
(10.049 0.0331536 0)
(10.0543 0.0335133 0)
(10.0593 0.0337496 0)
(10.0642 0.0338938 0)
(10.069 0.0339572 0)
(10.0737 0.0339285 0)
(10.0784 0.033777 0)
(10.0829 0.0334528 0)
(10.0875 0.0329296 0)
(10.0003 0.00353468 0)
(10.0024 0.0102418 0)
(10.0064 0.0158176 0)
(10.0117 0.0199973 0)
(10.0174 0.0230519 0)
(10.0232 0.0253165 0)
(10.0289 0.0269634 0)
(10.0346 0.02811 0)
(10.0401 0.0288876 0)
(10.0454 0.02941 0)
(10.0505 0.0297508 0)
(10.0555 0.0299544 0)
(10.0603 0.0300463 0)
(10.065 0.0300359 0)
(10.0696 0.0299159 0)
(10.0741 0.0296669 0)
(10.0785 0.0292579 0)
(10.0828 0.0286868 0)
(10.0002 0.00287572 0)
(10.002 0.00833115 0)
(10.0055 0.0129569 0)
(10.0101 0.0165468 0)
(10.0153 0.0192341 0)
(10.0206 0.0212439 0)
(10.026 0.0227248 0)
(10.0314 0.023777 0)
(10.0366 0.0244988 0)
(10.0418 0.024978 0)
(10.0467 0.025276 0)
(10.0516 0.0254302 0)
(10.0563 0.0254619 0)
(10.0608 0.0253801 0)
(10.0653 0.0251828 0)
(10.0696 0.0248611 0)
(10.0738 0.0243994 0)
(10.0778 0.023812 0)
(10.0002 0.00219009 0)
(10.0017 0.00634918 0)
(10.0047 0.00993338 0)
(10.0088 0.0127952 0)
(10.0134 0.0149872 0)
(10.0183 0.0166444 0)
(10.0233 0.0178768 0)
(10.0284 0.0187626 0)
(10.0334 0.0193712 0)
(10.0383 0.0197649 0)
(10.0431 0.0199902 0)
(10.0478 0.0200768 0)
(10.0523 0.0200421 0)
(10.0567 0.0198952 0)
(10.061 0.0196386 0)
(10.0651 0.0192716 0)
(10.0691 0.0187893 0)
(10.0729 0.0182143 0)
(10.0002 0.00147471 0)
(10.0015 0.00427945 0)
(10.0041 0.00672511 0)
(10.0077 0.008719 0)
(10.0119 0.0102754 0)
(10.0164 0.0114638 0)
(10.0211 0.0123506 0)
(10.0258 0.0129865 0)
(10.0306 0.0134146 0)
(10.0353 0.0136733 0)
(10.0399 0.0137926 0)
(10.0444 0.013793 0)
(10.0487 0.0136875 0)
(10.053 0.0134839 0)
(10.0571 0.0131872 0)
(10.061 0.0128011 0)
(10.0648 0.0123262 0)
(10.0684 0.0117874 0)
(10.0001 0.000711993 0)
(10.0013 0.00206624 0)
(10.0037 0.00325296 0)
(10.0069 0.0042306 0)
(10.0108 0.00500135 0)
(10.015 0.0055897 0)
(10.0194 0.00602051 0)
(10.0239 0.00631378 0)
(10.0285 0.00648722 0)
(10.033 0.00655665 0)
(10.0374 0.00653468 0)
(10.0417 0.00643024 0)
(10.0459 0.00624957 0)
(10.05 0.00599736 0)
(10.0539 0.00567746 0)
(10.0576 0.0052942 0)
(10.0612 0.00484959 0)
(10.0646 0.00436639 0)
(10.0001 -0.000144634 0)
(10.0013 -0.000422155 0)
(10.0035 -0.000671539 0)
(10.0066 -0.000880379 0)
(10.0104 -0.00104623 0)
(10.0145 -0.00118297 0)
(10.0188 -0.00130987 0)
(10.0232 -0.00144081 0)
(10.0276 -0.00158447 0)
(10.032 -0.00174805 0)
(10.0363 -0.00193802 0)
(10.0405 -0.00215936 0)
(10.0445 -0.00241523 0)
(10.0484 -0.00270729 0)
(10.0522 -0.00303596 0)
(10.0558 -0.0034 0)
(10.0592 -0.00379923 0)
(10.0625 -0.00421669 0)
(10.0001 -0.00096806 0)
(10.0014 -0.00282076 0)
(10.0037 -0.00446049 0)
(10.0071 -0.00580533 0)
(10.011 -0.00684906 0)
(10.0153 -0.00765323 0)
(10.0197 -0.00828482 0)
(10.0242 -0.0087891 0)
(10.0286 -0.00920059 0)
(10.033 -0.00955129 0)
(10.0373 -0.00986769 0)
(10.0415 -0.0101684 0)
(10.0455 -0.0104657 0)
(10.0493 -0.0107683 0)
(10.053 -0.011082 0)
(10.0565 -0.0114096 0)
(10.0599 -0.0117537 0)
(10.0631 -0.0121033 0)
(10.0002 -0.00168137 0)
(10.0015 -0.00492225 0)
(10.0042 -0.00778026 0)
(10.0079 -0.0100522 0)
(10.0123 -0.0117536 0)
(10.0168 -0.0130411 0)
(10.0215 -0.0140325 0)
(10.0261 -0.0147872 0)
(10.0307 -0.0153595 0)
(10.0352 -0.0158081 0)
(10.0395 -0.01618 0)
(10.0437 -0.0165056 0)
(10.0477 -0.0168042 0)
(10.0515 -0.0170898 0)
(10.0552 -0.017372 0)
(10.0587 -0.0176566 0)
(10.062 -0.0179478 0)
(10.0651 -0.0182382 0)
(10.0002 -0.00236269 0)
(10.0017 -0.00700908 0)
(10.0048 -0.0111132 0)
(10.0092 -0.014217 0)
(10.014 -0.0164147 0)
(10.019 -0.0180436 0)
(10.0239 -0.0192843 0)
(10.0288 -0.0202008 0)
(10.0336 -0.0208655 0)
(10.0382 -0.0213607 0)
(10.0427 -0.0217479 0)
(10.0469 -0.0220653 0)
(10.0509 -0.022339 0)
(10.0548 -0.0225881 0)
(10.0584 -0.0228257 0)
(10.0619 -0.0230596 0)
(10.0652 -0.023295 0)
(10.0683 -0.0235269 0)
(10.0002 -0.00299769 0)
(10.0018 -0.00911622 0)
(10.0056 -0.014492 0)
(10.0108 -0.0183398 0)
(10.0163 -0.0209624 0)
(10.0217 -0.02286 0)
(10.027 -0.0242273 0)
(10.0321 -0.0251699 0)
(10.0371 -0.0258255 0)
(10.0419 -0.0263055 0)
(10.0464 -0.0266702 0)
(10.0507 -0.0269543 0)
(10.0548 -0.0271867 0)
(10.0586 -0.0273899 0)
(10.0623 -0.0275788 0)
(10.0658 -0.0277616 0)
(10.069 -0.0279437 0)
(10.0721 -0.0281219 0)
(10.0001 -0.0035732 0)
(10.0019 -0.0115455 0)
(10.0064 -0.0179426 0)
(10.0127 -0.0220725 0)
(10.0189 -0.0250582 0)
(10.0247 -0.0273611 0)
(10.0304 -0.0289056 0)
(10.0359 -0.0298211 0)
(10.0411 -0.0303844 0)
(10.046 -0.0307737 0)
(10.0506 -0.0310549 0)
(10.0549 -0.0312599 0)
(10.059 -0.0314184 0)
(10.0629 -0.0315536 0)
(10.0666 -0.0316792 0)
(10.07 -0.0318022 0)
(10.0732 -0.0319259 0)
(10.0763 -0.0320465 0)
(9.99997 -0.00369249 0)
(10.0018 -0.0151878 0)
(10.0076 -0.0226629 0)
(10.0148 -0.0259961 0)
(10.0214 -0.0285617 0)
(10.0277 -0.0310263 0)
(10.034 -0.0328072 0)
(10.0399 -0.0338489 0)
(10.0454 -0.0344525 0)
(10.0505 -0.034827 0)
(10.0552 -0.0350555 0)
(10.0596 -0.035187 0)
(10.0637 -0.0352636 0)
(10.0675 -0.0353148 0)
(10.071 -0.0353571 0)
(10.0743 -0.0353988 0)
(10.0773 -0.0354432 0)
(10.0802 -0.0354882 0)
(9.99898 -0.00131117 0)
(9.99999 -0.0179799 0)
(10.0085 -0.0290791 0)
(10.0174 -0.0327065 0)
(10.0244 -0.0341322 0)
(10.0311 -0.0353601 0)
(10.0382 -0.0363086 0)
(10.0448 -0.0369527 0)
(10.0507 -0.037405 0)
(10.0558 -0.0377056 0)
(10.0605 -0.0378693 0)
(10.0646 -0.0379319 0)
(10.0683 -0.0379347 0)
(10.0716 -0.0379071 0)
(10.0744 -0.0378674 0)
(10.077 -0.0378268 0)
(10.0792 -0.0377887 0)
(10.0812 -0.0377525 0)
(9.99528 0.00386755 0)
(9.99333 -0.0103155 0)
(10.007 -0.0271093 0)
(10.0212 -0.0389341 0)
(10.0311 -0.0448738 0)
(10.0391 -0.0464819 0)
(10.0465 -0.0459998 0)
(10.0529 -0.0450444 0)
(10.058 -0.0441706 0)
(10.062 -0.0433997 0)
(10.0651 -0.0426881 0)
(10.0673 -0.042033 0)
(10.0689 -0.0414408 0)
(10.0698 -0.0409111 0)
(10.0702 -0.0404416 0)
(10.0702 -0.0400311 0)
(10.0698 -0.0396702 0)
(10.0691 -0.0393319 0)
(9.99144 -0.0172943 0)
(9.99188 0.000362942 0)
(10.01 0.0176612 0)
(10.0295 0.011582 0)
(10.0441 -0.00511755 0)
(10.0541 -0.0188357 0)
(10.0599 -0.0271841 0)
(10.0622 -0.0320632 0)
(10.0616 -0.0349469 0)
(10.059 -0.0365545 0)
(10.0548 -0.0373338 0)
(10.0494 -0.0376096 0)
(10.043 -0.037595 0)
(10.036 -0.0374194 0)
(10.0284 -0.0371666 0)
(10.0204 -0.0368977 0)
(10.0123 -0.0366682 0)
(10.0041 -0.0364469 0)
(10.0236 -0.206008 0)
(10.0684 -0.312341 0)
(10.0788 -0.255595 0)
(10.0704 -0.184181 0)
(10.0605 -0.134907 0)
(10.0498 -0.102733 0)
(10.0342 -0.0811737 0)
(10.0129 -0.0666287 0)
(9.98773 -0.0566383 0)
(9.96047 -0.049484 0)
(9.93224 -0.0441281 0)
(9.90372 -0.039981 0)
(9.8754 -0.0366846 0)
(9.84763 -0.034006 0)
(9.82063 -0.0317973 0)
(9.79453 -0.029995 0)
(9.76957 -0.0285688 0)
(9.74577 -0.0278351 0)
(9.94226 0.671595 0)
(9.87995 0.567454 0)
(9.77443 0.338465 0)
(9.63235 0.183317 0)
(9.4876 0.0949032 0)
(9.35646 0.0470798 0)
(9.24087 0.0212943 0)
(9.13935 0.00707209 0)
(9.05038 -0.000988004 0)
(8.97236 -0.00562988 0)
(8.90356 -0.00831968 0)
(8.84245 -0.0098825 0)
(8.78779 -0.0107886 0)
(8.73857 -0.0113067 0)
(8.69399 -0.0115977 0)
(8.65332 -0.0117863 0)
(8.61574 -0.0119661 0)
(8.58084 -0.0124983 0)
(0.00383033 -0.00919756 -3.50276e-20)
(0.0135043 -0.0143964 3.46304e-20)
(0.0219776 -0.012637 0)
(0.027373 -0.00776673 0)
(0.0289391 -0.00199907 0)
(0.0265287 0.0032901 -3.25578e-20)
(0.0209797 0.0073911 0)
(0.0129515 0.0102467 0)
(0.00301639 0.0121284 0)
(-0.00835238 0.0133947 0)
(-0.0208646 0.0143232 3.00687e-20)
(-0.0343695 0.0150802 0)
(-0.0487604 0.0157585 0)
(-0.0639799 0.0164038 0)
(-0.0799951 0.0170357 0)
(-0.0967842 0.0176605 2.68472e-20)
(-0.11433 0.0182788 0)
(-0.132617 0.0188882 0)
(-0.15163 0.0194856 0)
(-0.171349 0.0200667 0)
(-0.191757 0.020626 0)
(-0.212831 0.0211558 0)
(-0.234543 0.0216443 0)
(-0.256859 0.0220748 2.28548e-20)
(-0.279732 0.0224244 -2.24683e-20)
(-0.303107 0.0226682 2.2107e-20)
(-0.326918 0.0227914 2.1771e-20)
(-0.351097 0.0228148 0)
(-0.375598 0.0228235 0)
(-0.400447 0.0229584 -2.0914e-20)
(-0.425745 0.023347 -2.06771e-20)
(-0.451541 0.0240752 0)
(-0.477855 0.0254173 0)
(-0.505143 0.0280138 -2.01251e-20)
(-0.534089 0.0317987 0)
(-0.563955 0.0339756 0)
(-0.593664 0.0323463 1.96387e-20)
(-0.625885 0.0413848 0)
(-0.661185 0.0752208 1.97842e-20)
(-0.699384 0.0562542 4.1683e-20)
(-0.737698 -0.0124752 0)
(-0.766525 0.027141 0)
(-0.802244 0.0883035 0)
(-0.848538 0.0661539 0)
(-0.891397 0.0247559 0)
(-0.924525 0.0316762 4.0113e-20)
(-0.963703 0.0333026 3.96591e-20)
(-1.00376 0.0341811 3.92115e-20)
(-1.04464 0.0346219 0)
(-1.08597 0.0347782 -3.83467e-20)
(-1.12755 0.0347655 0)
(-1.16926 0.0346438 3.75291e-20)
(-1.21101 0.0344489 3.7138e-20)
(-1.25272 0.0342023 0)
(-1.29437 0.0339176 0)
(-1.3359 0.0336029 0)
(-1.37729 0.0332637 3.56776e-20)
(-1.41851 0.0329032 0)
(-1.45952 0.0325231 0)
(-1.5003 0.0321245 0)
(-1.54083 0.0317076 0)
(-1.58107 0.0312725 0)
(-1.621 0.0308189 0)
(-1.66058 0.0303464 0)
(-1.69979 0.0298545 0)
(-1.7386 0.0293427 -3.28158e-20)
(-1.77697 0.0288108 0)
(-1.81487 0.0282584 0)
(-1.85226 0.0276852 3.19289e-20)
(-1.88911 0.0270912 3.16353e-20)
(-1.92538 0.0264765 0)
(-1.96103 0.0258411 -3.10476e-20)
(-1.99603 0.0251853 3.07523e-20)
(-2.03034 0.0245096 0)
(-2.06392 0.0238143 -3.01562e-20)
(-2.09673 0.0231001 0)
(-2.12874 0.0223677 0)
(-2.15991 0.0216177 2.92395e-20)
(-2.1902 0.020851 0)
(-2.21957 0.0200682 -2.86073e-20)
(-2.24799 0.0192703 0)
(-2.27543 0.0184579 2.79534e-20)
(-2.30184 0.0176318 2.76171e-20)
(-2.3272 0.0167926 2.7274e-20)
(-2.35147 0.0159406 5.38473e-20)
(-2.37462 0.0150761 -5.31311e-20)
(-2.39661 0.014199 0)
(-2.41741 0.0133086 0)
(-2.43699 0.0124039 0)
(-2.45531 0.0114828 -5.00963e-20)
(-2.47234 0.0105427 -4.92914e-20)
(-2.48804 0.00957973 4.84667e-20)
(-2.50237 0.00858917 0)
(-2.51529 0.00756564 -4.67558e-20)
(-2.52673 0.00650249 -4.58687e-20)
(-2.53665 0.00539331 -4.496e-20)
(-2.54495 0.00423766 0)
(-2.55158 0.00305291 0)
(-2.5564 0.00188252 0)
(-2.55931 0.000782091 -4.11058e-20)
(-2.56042 -0.000196273 0)
(-2.56013 -0.00104729 0)
(-2.55836 -0.00186689 3.79431e-20)
(-2.55513 -0.00267204 0)
(-2.55044 -0.00347053 0)
(-2.54427 -0.00426372 3.45453e-20)
(-2.53661 -0.0050517 0)
(-2.52746 -0.00583387 0)
(-2.51681 -0.00660946 -3.09084e-20)
(-2.50465 -0.00737765 -2.96432e-20)
(-2.49098 -0.00813757 0)
(-2.47579 -0.00888838 2.70342e-20)
(-2.45908 -0.00962926 0)
(-2.44087 -0.0103594 -2.43224e-20)
(-2.42114 -0.011078 0)
(-2.39991 -0.0117842 -2.15108e-20)
(-2.37718 -0.0124774 -2.00688e-20)
(-2.35297 -0.0131568 0)
(-2.32728 -0.0138217 0)
(-2.30012 -0.0144712 0)
(-2.27152 -0.0151049 0)
(-2.24149 -0.015722 0)
(-2.21005 -0.016322 0)
(-2.17721 -0.0169042 0)
(-2.14301 -0.0174682 -7.75027e-21)
(-2.10746 -0.0180134 6.125e-21)
(-2.0706 -0.0185394 0)
(-2.03244 -0.0190456 0)
(-1.99302 -0.0195316 0)
(-1.95237 -0.019997 0)
(-1.91052 -0.0204415 -4.43176e-21)
(-1.86751 -0.0208647 0)
(-1.82337 -0.0212663 1.12607e-20)
(-1.77813 -0.0216463 -1.46985e-20)
(-1.73184 -0.0220044 0)
(-1.68453 -0.0223403 0)
(-1.63624 -0.0226541 0)
(-1.58702 -0.0229456 2.85436e-20)
(-1.5369 -0.023215 3.20145e-20)
(-1.48593 -0.0234622 0)
(-1.43415 -0.0236874 3.89481e-20)
(-1.3816 -0.0238907 4.24053e-20)
(-1.32833 -0.0240725 -4.58522e-20)
(-1.27437 -0.0242329 0)
(-1.21978 -0.0243724 0)
(-1.1646 -0.0244914 -5.6104e-20)
(-1.10886 -0.0245903 0)
(-1.05261 -0.0246697 0)
(-0.995899 -0.0247302 0)
(-0.938759 -0.0247725 0)
(-0.881232 -0.0247973 7.27315e-20)
(-0.823356 -0.0248053 7.59651e-20)
(-0.765168 -0.0247975 0)
(-0.706704 -0.0247747 8.23214e-20)
(-0.647998 -0.0247377 0)
(-0.589082 -0.0246877 0)
(-0.529985 -0.0246254 9.15466e-20)
(-0.470736 -0.0245517 0)
(-0.411362 -0.0244673 9.74677e-20)
(-0.351888 -0.0243724 0)
(-0.29234 -0.0242671 0)
(-0.232744 -0.024149 1.05971e-19)
(-0.173128 -0.0240114 0)
(-0.113521 -0.0238499 1.11371e-19)
(-0.0539478 -0.0236589 0)
(0.00556464 -0.0233921 0)
(0.0648714 -0.0230218 0)
(0.124069 -0.0226387 -1.1822e-19)
(0.183158 -0.0222793 0)
(0.242148 -0.0219385 1.19728e-19)
(0.301047 -0.0216058 0)
(0.359842 -0.0212702 0)
(0.418488 -0.0209173 0)
(0.476881 -0.0205236 0)
(0.534844 -0.0200432 0)
(0.591875 -0.0193843 0)
(0.647556 -0.0183008 0)
(0.697817 -0.0161639 -2.46749e-19)
(0.7467 -0.0113639 0)
(0.749122 0.00624234 0)
(0.00383755 -0.0272389 1.04131e-19)
(0.00847683 -0.027361 -1.00208e-19)
(0.00842356 -0.0172692 0)
(0.00591387 -0.00612764 6.08513e-20)
(0.00135326 0.0045195 0)
(-0.00500935 0.0139295 2.87085e-20)
(-0.0131734 0.0217446 -5.60209e-20)
(-0.0230506 0.027958 -5.47484e-20)
(-0.0345396 0.0327926 0)
(-0.0475016 0.0365767 -5.22927e-20)
(-0.0617813 0.0396353 -2.55537e-20)
(-0.0772336 0.0422163 0)
(-0.0937418 0.0444868 0)
(-0.111219 0.0465515 0)
(-0.129605 0.0484715 0)
(-0.148857 0.0502807 -2.27395e-20)
(-0.16895 0.0519969 0)
(-0.189866 0.0536288 4.34834e-20)
(-0.211594 0.0551802 0)
(-0.234131 0.0566518 0)
(-0.257474 0.0580419 -4.08944e-20)
(-0.281625 0.0593458 0)
(-0.306593 0.0605559 3.94058e-20)
(-0.332387 0.0616618 -1.93882e-20)
(-0.359031 0.0626537 1.9077e-20)
(-0.386559 0.0635276 -1.87906e-20)
(-0.415026 0.0642973 -1.85297e-20)
(-0.44451 0.0650081 0)
(-0.475109 0.0657405 0)
(-0.506928 0.066585 1.79035e-20)
(-0.540063 0.0675977 -1.76889e-20)
(-0.574618 0.068797 0)
(-0.610694 0.0702155 0)
(-0.648218 0.071873 1.75255e-20)
(-0.686789 0.0735287 0)
(-0.726319 0.0745291 0)
(-0.768156 0.0742497 -1.72855e-20)
(-0.810462 0.0751903 0)
(-0.848063 0.0811692 1.6875e-20)
(-0.887646 0.0863712 -3.40597e-20)
(-0.933459 0.0835583 0)
(-0.97859 0.0807883 0)
(-1.01646 0.0836391 -6.47545e-20)
(-1.05398 0.0855776 -6.49295e-20)
(-1.09499 0.0861254 -6.43572e-20)
(-1.13843 0.0878748 3.16957e-20)
(-1.17934 0.0888718 -3.14948e-20)
(-1.21894 0.0891304 -9.32397e-20)
(-1.25791 0.0889557 6.14119e-20)
(-1.29642 0.0884877 3.04427e-20)
(-1.33457 0.08782 0)
(-1.37239 0.0870135 -2.97971e-20)
(-1.40991 0.0861071 2.93419e-20)
(-1.44713 0.0851263 0)
(-1.48403 0.0840875 0)
(-1.52061 0.0830012 0)
(-1.55685 0.0818739 -2.83361e-20)
(-1.59275 0.0807092 0)
(-1.62829 0.0795091 5.54511e-20)
(-1.66344 0.0782743 0)
(-1.6982 0.0770046 5.44194e-20)
(-1.73254 0.0756995 0)
(-1.76643 0.0743579 -5.34203e-20)
(-1.79987 0.0729791 0)
(-1.83282 0.071562 5.24455e-20)
(-1.86526 0.0701057 -2.59111e-20)
(-1.89716 0.0686097 0)
(-1.92849 0.0670734 -5.10113e-20)
(-1.95924 0.0654968 -2.53367e-20)
(-1.98937 0.0638797 -2.50983e-20)
(-2.01886 0.0622225 0)
(-2.04767 0.0605258 -2.44913e-20)
(-2.07577 0.0587904 -2.43787e-20)
(-2.10315 0.0570171 0)
(-2.12976 0.0552074 2.38907e-20)
(-2.15558 0.0533625 -4.71713e-20)
(-2.18059 0.0514841 0)
(-2.20474 0.0495738 -2.31379e-20)
(-2.22803 0.0476335 0)
(-2.25041 0.045665 6.77551e-20)
(-2.27186 0.0436701 0)
(-2.29235 0.0416508 -6.61485e-20)
(-2.31185 0.039609 -2.18013e-20)
(-2.33035 0.0375464 2.14421e-20)
(-2.34781 0.0354646 4.2318e-20)
(-2.3642 0.0333651 -4.17395e-20)
(-2.37951 0.0312491 0)
(-2.39371 0.0291174 0)
(-2.40676 0.0269705 0)
(-2.41866 0.0248086 1.18035e-19)
(-2.42937 0.0226309 3.87098e-20)
(-2.43888 0.0204362 -3.80327e-20)
(-2.44716 0.0182226 0)
(-2.4542 0.0159878 -3.66078e-20)
(-2.45998 0.0137287 3.59035e-20)
(-2.46452 0.0114411 3.516e-20)
(-2.46782 0.00912132 0)
(-2.46995 0.00677876 0)
(-2.47098 0.00445437 0)
(-2.47102 0.0022122 3.20017e-20)
(-2.47001 7.34315e-05 0)
(-2.46762 -0.00196941 -6.0689e-20)
(-2.46385 -0.00397329 -8.83707e-20)
(-2.45867 -0.00595166 5.7172e-20)
(-2.45204 -0.00791144 0)
(-2.44396 -0.00985316 2.68309e-20)
(-2.43441 -0.0117756 0)
(-2.42338 -0.0136768 4.97012e-20)
(-2.41087 -0.0155546 -2.39717e-20)
(-2.39687 -0.0174065 -2.29828e-20)
(-2.38138 -0.0192304 0)
(-2.36438 -0.021024 -6.2363e-20)
(-2.34589 -0.0227853 3.95606e-20)
(-2.32591 -0.0245122 1.85763e-20)
(-2.30443 -0.0262028 0)
(-2.28147 -0.0278552 1.6383e-20)
(-2.25703 -0.0294676 4.61117e-20)
(-2.23112 -0.0310383 0)
(-2.20376 -0.0325655 2.63108e-20)
(-2.17494 -0.0340477 2.40004e-20)
(-2.1447 -0.0354834 2.16639e-20)
(-2.11305 -0.0368711 0)
(-2.08 -0.0382096 0)
(-2.04558 -0.0394977 0)
(-2.0098 -0.0407344 -6.25435e-21)
(-1.9727 -0.0419188 -4.60058e-21)
(-1.9343 -0.0430498 0)
(-1.89462 -0.0441267 -4.69395e-21)
(-1.8537 -0.0451488 -2.2003e-21)
(-1.81157 -0.0461153 0)
(-1.76825 -0.0470257 3.30659e-21)
(-1.72378 -0.0478797 1.06955e-20)
(-1.6782 -0.0486772 -8.38002e-21)
(-1.63153 -0.0494179 -9.91073e-21)
(-1.58383 -0.0501019 0)
(-1.53513 -0.0507293 0)
(-1.48546 -0.0513003 0)
(-1.43487 -0.0518151 -2.11107e-20)
(-1.38339 -0.0522743 2.25828e-20)
(-1.33108 -0.0526785 5.129e-20)
(-1.27797 -0.0530287 -2.87059e-20)
(-1.2241 -0.0533256 3.01335e-20)
(-1.16953 -0.0535702 3.372e-20)
(-1.11428 -0.0537636 0)
(-1.0584 -0.0539072 0)
(-1.00195 -0.0540026 -4.00353e-20)
(-0.944947 -0.0540512 0)
(-0.887448 -0.0540546 0)
(-0.829492 -0.0540147 9.56419e-20)
(-0.771118 -0.0539336 0)
(-0.712365 -0.0538133 5.19873e-20)
(-0.653271 -0.0536558 -5.53853e-20)
(-0.593873 -0.0534634 0)
(-0.534206 -0.0532387 5.88541e-20)
(-0.474304 -0.0529838 0)
(-0.414197 -0.0527012 0)
(-0.353915 -0.0523933 -6.64926e-20)
(-0.293486 -0.052062 1.3619e-19)
(-0.232936 -0.0517093 -7.06997e-20)
(-0.17229 -0.051336 0)
(-0.11157 -0.0509412 0)
(-0.0507992 -0.0505233 7.57297e-20)
(0.0100001 -0.0500788 0)
(0.0708036 -0.0496049 7.86604e-20)
(0.131594 -0.0491079 0)
(0.192357 -0.0485888 0)
(0.253072 -0.0480346 0)
(0.31377 -0.0474691 8.36097e-20)
(0.374441 -0.0469182 0)
(0.435078 -0.0463813 -8.53591e-20)
(0.495669 -0.0458458 0)
(0.55619 -0.0452921 0)
(0.616586 -0.0446897 1.74399e-19)
(0.676748 -0.0439866 -1.75722e-19)
(0.736489 -0.0430829 0)
(0.795376 -0.0417843 0)
(0.852961 -0.0395921 0)
(0.906711 -0.0355548 5.42407e-19)
(0.959195 -0.0264456 0)
(0.989799 -0.00434947 -3.6901e-19)
(0.00129516 -0.0337089 -4.01419e-23)
(-0.00120317 -0.023052 1.30012e-19)
(-0.0069054 -0.00749185 0)
(-0.0138407 0.00707319 -1.1247e-19)
(-0.0220381 0.0203251 0)
(-0.0313343 0.032134 0)
(-0.0416995 0.0424106 1.1415e-23)
(-0.0531804 0.0511565 4.86868e-20)
(-0.0658271 0.058497 4.74904e-20)
(-0.0796521 0.0646507 4.63879e-20)
(-0.0946256 0.0698704 0)
(-0.110692 0.0743917 0)
(-0.12779 0.0784071 -4.32708e-20)
(-0.145863 0.0820605 -8.46091e-20)
(-0.164865 0.085453 8.2751e-20)
(-0.184765 0.0886524 0)
(-0.20554 0.0917031 7.92717e-20)
(-0.22718 0.0946342 -3.88416e-20)
(-0.24968 0.0974648 0)
(-0.273043 0.100208 7.46652e-20)
(-0.297279 0.102873 3.66613e-20)
(-0.322402 0.105467 -7.19994e-20)
(-0.348432 0.107998 -3.54084e-20)
(-0.375397 0.110473 0)
(-0.403331 0.112907 6.85926e-20)
(-0.432277 0.115327 6.76115e-20)
(-0.462282 0.117774 0)
(-0.493393 0.120312 6.58695e-20)
(-0.525639 0.12302 0)
(-0.559019 0.125974 6.43866e-20)
(-0.593479 0.129215 3.18807e-20)
(-0.62893 0.132735 0)
(-0.665259 0.136463 0)
(-0.702227 0.140201 0)
(-0.739421 0.143534 0)
(-0.776764 0.14606 0)
(-0.814822 0.148154 0)
(-0.852769 0.15063 5.93976e-20)
(-0.888386 0.15261 -8.79696e-20)
(-0.92318 0.151369 0)
(-0.960649 0.148697 0)
(-0.999107 0.149472 0)
(-1.03448 0.151214 -3.19621e-23)
(-1.06816 0.149615 5.50565e-20)
(-1.10303 0.146642 1.08833e-19)
(-1.13865 0.144856 -1.07456e-19)
(-1.17363 0.143428 -5.30135e-20)
(-1.20808 0.142049 5.24223e-20)
(-1.24215 0.140619 -7.5798e-23)
(-1.27589 0.139101 5.10762e-20)
(-1.30936 0.137495 0)
(-1.34259 0.135811 4.98743e-20)
(-1.3756 0.134058 -8.39828e-23)
(-1.40839 0.132248 0)
(-1.44095 0.130386 0)
(-1.47329 0.128477 -4.7657e-20)
(-1.5054 0.126523 0)
(-1.53725 0.124525 0)
(-1.56884 0.122483 4.60348e-20)
(-1.60015 0.120394 9.12771e-20)
(-1.63116 0.118259 -4.52526e-20)
(-1.66185 0.116073 0)
(-1.6922 0.113836 4.43147e-20)
(-1.72218 0.111546 0)
(-1.75178 0.1092 4.32108e-20)
(-1.78096 0.106798 4.29499e-20)
(-1.8097 0.104338 -8.48188e-20)
(-1.83797 0.10182 -4.18735e-20)
(-1.86575 0.0992438 0)
(-1.893 0.0966091 8.21697e-20)
(-1.91971 0.0939165 0)
(-1.94583 0.0911671 1.20705e-19)
(-1.97134 0.088362 7.95319e-20)
(-1.99621 0.0855028 7.86484e-20)
(-2.02041 0.0825915 -7.77607e-20)
(-2.04391 0.0796302 1.15378e-19)
(-2.06669 0.0766212 0)
(-2.0887 0.0735672 0)
(-2.10992 0.0704708 -7.41399e-20)
(-2.13033 0.0673349 -1.09882e-19)
(-2.14989 0.0641624 0)
(-2.16857 0.0609561 3.57166e-20)
(-2.18635 0.0577189 0)
(-2.2032 0.0544535 -1.04101e-19)
(-2.21909 0.0511627 -9.23213e-23)
(-2.234 0.0478489 8.37947e-23)
(-2.2479 0.0445143 6.63193e-20)
(-2.26076 0.041161 0)
(-2.27257 0.0377908 -6.4195e-20)
(-2.2833 0.0344053 -4.70165e-23)
(-2.29293 0.0310061 0)
(-2.30143 0.0275947 0)
(-2.30881 0.0241732 0)
(-2.31503 0.0207449 5.85227e-20)
(-2.3201 0.0173148 0)
(-2.324 0.0138915 0)
(-2.32675 0.0104872 0)
(-2.32833 0.00711936 0)
(-2.32874 0.00380717 0)
(-2.32795 0.00056182 5.08922e-20)
(-2.32589 -0.00264516 0)
(-2.32249 -0.00584226 4.80426e-20)
(-2.31774 -0.00902144 4.66101e-20)
(-2.31161 -0.0121791 -4.51523e-20)
(-2.30408 -0.0153118 0)
(-2.29514 -0.0184161 -4.21603e-20)
(-2.28477 -0.0214881 0)
(-2.27298 -0.0245239 -3.90679e-20)
(-2.25974 -0.0275196 3.74847e-20)
(-2.24505 -0.0304714 1.07984e-19)
(-2.22891 -0.0333756 0)
(-2.21132 -0.0362287 9.81739e-20)
(-2.19227 -0.0390273 3.13357e-20)
(-2.17177 -0.0417682 0)
(-2.14982 -0.0444481 5.54566e-20)
(-2.12642 -0.0470642 5.19966e-20)
(-2.10159 -0.0496136 -7.24917e-20)
(-2.07533 -0.0520935 0)
(-2.04765 -0.0545012 -2.04182e-20)
(-2.01857 -0.0568344 -1.8604e-20)
(-1.98809 -0.0590905 -5.09079e-20)
(-1.95624 -0.0612674 0)
(-1.92304 -0.0633631 0)
(-1.8885 -0.0653758 0)
(-1.85264 -0.0673039 -9.97158e-21)
(-1.81549 -0.0691459 0)
(-1.77708 -0.0709005 0)
(-1.73743 -0.0725666 3.60618e-21)
(-1.69656 -0.0741429 1.68858e-21)
(-1.65451 -0.0756285 0)
(-1.61131 -0.0770228 0)
(-1.56699 -0.0783251 -8.18203e-21)
(-1.52158 -0.0795354 0)
(-1.47513 -0.0806536 1.59062e-20)
(-1.42766 -0.0816799 1.898e-20)
(-1.37921 -0.0826146 0)
(-1.32983 -0.083458 0)
(-1.27955 -0.0842108 -3.04922e-20)
(-1.22841 -0.0848739 -8.14759e-22)
(-1.17645 -0.0854487 -8.20015e-22)
(-1.12371 -0.0859366 0)
(-1.07024 -0.086339 -9.21341e-20)
(-1.01607 -0.0866578 0)
(-0.961257 -0.0868947 0)
(-0.905829 -0.0870523 0)
(-0.849833 -0.087133 6.12822e-20)
(-0.793309 -0.0871394 0)
(-0.736299 -0.0870742 -1.35317e-19)
(-0.678843 -0.0869406 -7.20421e-20)
(-0.620979 -0.0867418 0)
(-0.562746 -0.0864812 -7.90204e-20)
(-0.50418 -0.0861624 0)
(-0.445318 -0.0857891 0)
(-0.386193 -0.0853651 -2.65838e-19)
(-0.326837 -0.0848944 1.83257e-19)
(-0.267281 -0.0843807 0)
(-0.207554 -0.0838279 1.96106e-19)
(-0.147682 -0.0832393 -1.01979e-19)
(-0.087689 -0.0826177 0)
(-0.0275989 -0.0819659 0)
(0.0325678 -0.0812856 0)
(0.0927904 -0.0805766 -3.36396e-19)
(0.153052 -0.0798375 0)
(0.213336 -0.0790685 -1.16492e-19)
(0.273634 -0.0782756 0)
(0.333946 -0.0774716 0)
(0.394295 -0.076667 0)
(0.45468 -0.0758681 0)
(0.515084 -0.0750815 0)
(0.575489 -0.0743025 0)
(0.635876 -0.0735149 -2.54848e-19)
(0.696212 -0.0726905 0)
(0.756441 -0.0717826 -1.30783e-19)
(0.816456 -0.0707111 3.94896e-19)
(0.876083 -0.0693278 0)
(0.934961 -0.0673504 0)
(0.992751 -0.0641655 -2.69977e-19)
(1.04775 -0.0586037 -2.73505e-19)
(1.10263 -0.0477418 2.75501e-19)
(1.14536 -0.0253233 2.80296e-19)
(-0.00234552 -0.0271247 -2.05484e-19)
(-0.00983373 -0.00877798 -1.9051e-19)
(-0.019036 0.00983072 -1.14775e-19)
(-0.0290403 0.0263175 -5.28734e-20)
(-0.0398968 0.0411792 0)
(-0.0514117 0.054548 9.53669e-20)
(-0.0635925 0.066457 -4.60175e-20)
(-0.0765254 0.0769457 0)
(-0.0902989 0.0861103 -4.35149e-20)
(-0.104976 0.0941064 0)
(-0.120586 0.101125 8.29201e-20)
(-0.137135 0.107361 0)
(-0.154609 0.112992 3.96279e-20)
(-0.172987 0.118165 7.75349e-20)
(-0.192246 0.122993 -7.5887e-20)
(-0.21237 0.127562 0)
(-0.233344 0.131933 -7.28092e-20)
(-0.255163 0.136151 0)
(-0.277822 0.140247 0)
(-0.301326 0.144245 -6.87285e-20)
(-0.325678 0.148164 0)
(-0.350887 0.152018 4.94963e-24)
(-0.376961 0.155822 0)
(-0.403908 0.159587 0)
(-0.431736 0.163331 -4.64284e-24)
(-0.460446 0.16707 -6.23214e-20)
(-0.490027 0.170825 -6.14443e-20)
(-0.52045 0.174619 -6.06209e-20)
(-0.551656 0.178465 0)
(-0.583551 0.182356 -1.18131e-19)
(-0.615996 0.186252 0)
(-0.648821 0.190063 -5.75918e-20)
(-0.681841 0.19364 0)
(-0.714878 0.1968 0)
(-0.747778 0.19935 5.54189e-20)
(-0.780517 0.201182 0)
(-0.813151 0.202424 -5.39263e-20)
(-0.845464 0.20333 -2.98506e-24)
(-0.877097 0.203629 1.04834e-19)
(-0.908403 0.202579 -1.0336e-19)
(-0.94012 0.200834 0)
(-0.971941 0.199906 0)
(-1.00304 0.199208 -4.95038e-20)
(-1.03361 0.197454 0)
(-1.06426 0.195037 -4.81479e-20)
(-1.09498 0.192739 4.74893e-20)
(-1.12559 0.190523 4.68473e-20)
(-1.15604 0.188339 0)
(-1.18632 0.186146 -4.56173e-20)
(-1.21644 0.183921 -4.50286e-20)
(-1.24642 0.181652 8.88538e-20)
(-1.27627 0.179333 -4.39006e-20)
(-1.30598 0.176965 -4.33598e-20)
(-1.33556 0.174546 0)
(-1.365 0.172077 0)