/*--------------------------------*- C++ -*----------------------------------*\
  =========                 |
  \\      /  F ield         | OpenFOAM: The Open Source CFD Toolbox
   \\    /   O peration     | Website:  https://openfoam.org
    \\  /    A nd           | Version:  12
     \\/     M anipulation  |
\*---------------------------------------------------------------------------*/
FoamFile
{
    format      ascii;
    class       volScalarField;
    location    "1000";
    object      epsilon;
}
// * * * * * * * * * * * * * * * * * * * * * * * * * * * * * * * * * * * * * //

dimensions      [0 2 -3 0 0 0 0];

internalField   nonuniform List<scalar> 
80
(
56.1674
337.879
851.894
979.286
848.696
684.948
547.723
441.611
360.396
297.604
248.305
208.988
177.181
151.122
129.54
111.496
96.288
83.3788
72.3538
62.887
54.7191
47.6415
41.4847
36.1098
31.4017
27.2645
23.6181
20.3945
17.5366
14.9956
12.7304
10.7063
8.89502
7.27474
5.83126
4.56027
3.47055
2.58668
1.94669
1.59537
1.59676
1.95072
2.59292
3.47843
4.56925
5.84093
7.28482
8.90531
10.7166
12.7407
15.0057
17.5463
20.4037
23.6265
27.2721
31.408
36.1146
41.4877
47.6422
54.717
62.8817
72.3447
83.3651
96.2688
111.471
129.507
151.08
177.128
208.923
248.225
297.506
360.275
441.461
547.535
684.711
848.388
978.884
851.443
337.673
56.1351
)
;

boundaryField
{
    lowerWall
    {
        type            fixedValue;
        value           uniform 1e-08;
    }
    upperWall
    {
        type            fixedValue;
        value           uniform 1e-08;
    }
    front
    {
        type            cyclic;
    }
    back
    {
        type            cyclic;
    }
    defaultFaces
    {
        type            empty;
    }
}


// ************************************************************************* //
