/*--------------------------------*- C++ -*----------------------------------*\
  =========                 |
  \\      /  F ield         | OpenFOAM: The Open Source CFD Toolbox
   \\    /   O peration     | Website:  https://openfoam.org
    \\  /    A nd           | Version:  12
     \\/     M anipulation  |
\*---------------------------------------------------------------------------*/
FoamFile
{
    format      ascii;
    class       volVectorField;
    location    "1000";
    object      U;
}
// * * * * * * * * * * * * * * * * * * * * * * * * * * * * * * * * * * * * * //

dimensions      [0 1 -1 0 0 0 0];

internalField   nonuniform List<vector> 
80
(
(0.643397 0 0)
(1.97763 0 0)
(3.15139 0 0)
(3.9798 0 0)
(4.5693 0 0)
(5.01686 0 0)
(5.37701 0 0)
(5.68116 0 0)
(5.9478 0 0)
(6.18825 0 0)
(6.40981 0 0)
(6.61733 0 0)
(6.8142 0 0)
(7.00285 0 0)
(7.1851 0 0)
(7.36232 0 0)
(7.5356 0 0)
(7.70579 0 0)
(7.8736 0 0)
(8.03963 0 0)
(8.20438 0 0)
(8.36825 0 0)
(8.53164 0 0)
(8.69485 0 0)
(8.85816 0 0)
(9.02179 0 0)
(9.18593 0 0)
(9.35071 0 0)
(9.51616 0 0)
(9.68226 0 0)
(9.84882 0 0)
(10.0155 0 0)
(10.1815 0 0)
(10.3459 0 0)
(10.5066 0 0)
(10.6608 0 0)
(10.8035 0 0)
(10.9277 0 0)
(11.0232 0 0)
(11.0783 0 0)
(11.0781 0 0)
(11.0225 0 0)
(10.9266 0 0)
(10.8022 0 0)
(10.6593 0 0)
(10.505 0 0)
(10.3442 0 0)
(10.1798 0 0)
(10.0137 0 0)
(9.84707 0 0)
(9.68051 0 0)
(9.51443 0 0)
(9.34899 0 0)
(9.18424 0 0)
(9.02013 0 0)
(8.85653 0 0)
(8.69326 0 0)
(8.53008 0 0)
(8.36674 0 0)
(8.2029 0 0)
(8.0382 0 0)
(7.87222 0 0)
(7.70445 0 0)
(7.53431 0 0)
(7.36108 0 0)
(7.18391 0 0)
(7.00171 0 0)
(6.81311 0 0)
(6.61629 0 0)
(6.40882 0 0)
(6.18732 0 0)
(5.94691 0 0)
(5.68033 0 0)
(5.37623 0 0)
(5.01613 0 0)
(4.56862 0 0)
(3.97918 0 0)
(3.15083 0 0)
(1.97722 0 0)
(0.643258 0 0)
)
;

boundaryField
{
    lowerWall
    {
        type            noSlip;
    }
    upperWall
    {
        type            noSlip;
    }
    front
    {
        type            cyclic;
    }
    back
    {
        type            cyclic;
    }
    defaultFaces
    {
        type            empty;
    }
}


// ************************************************************************* //
