/*--------------------------------*- C++ -*----------------------------------*\
  =========                 |
  \\      /  F ield         | OpenFOAM: The Open Source CFD Toolbox
   \\    /   O peration     | Website:  https://openfoam.org
    \\  /    A nd           | Version:  12
     \\/     M anipulation  |
\*---------------------------------------------------------------------------*/
FoamFile
{
    format      ascii;
    class       surfaceScalarField;
    location    "17.58";
    object      phi;
}
// * * * * * * * * * * * * * * * * * * * * * * * * * * * * * * * * * * * * * //

dimensions      [1 0 -1 0 0 0 0];

internalField   nonuniform List<scalar> 
7429
(
7.17867e-05
-7.17864e-05
0.000148235
-7.64482e-05
0.000225353
-7.71177e-05
0.000302668
-7.73146e-05
0.000379975
-7.73069e-05
0.000456986
-7.7011e-05
0.000533403
-7.64161e-05
0.000608895
-7.54923e-05
0.000683205
-7.43088e-05
0.000755965
-7.27605e-05
0.00082683
-7.08644e-05
0.000895565
-6.87343e-05
0.000961711
-6.61457e-05
0.00102485
-6.31391e-05
0.0010847
-5.98544e-05
0.00114064
-5.59355e-05
0.00119205
-5.14066e-05
0.00123868
-4.66357e-05
0.00127961
-4.09254e-05
0.00131404
-3.44289e-05
0.00134114
-2.71e-05
0.00136021
-1.90737e-05
0.00137026
-1.00448e-05
0.00137151
-1.25537e-06
0.00136489
6.62752e-06
0.00134894
1.59485e-05
0.00132224
2.66961e-05
0.00128355
3.86888e-05
0.00123182
5.17293e-05
0.00116627
6.55537e-05
0.00108635
7.9918e-05
0.000991877
9.44747e-05
0.000882903
0.000108974
0.000759881
0.000123022
0.000623345
0.000136536
0.000474206
0.000149139
0.00031362
0.000160586
0.000142961
0.000170659
-3.62038e-05
0.000179165
-0.000222162
0.000185958
-0.000412941
0.000190779
-0.000606516
0.000193575
-0.000800629
0.000194112
-0.000992949
0.00019232
-0.00118101
0.000188061
-0.00136227
0.000181262
-0.00153419
0.000171915
-0.00169416
0.000159973
-0.00183961
0.000145448
-0.001968
0.000128393
-0.00207713
0.000109133
-0.00216467
8.7533e-05
-0.00222824
6.35707e-05
-0.0022672
3.89574e-05
-0.00227922
1.20253e-05
-0.00225466
-2.45593e-05
-0.00219696
-5.77002e-05
-0.00210695
-9.00123e-05
-0.00198487
-0.000122082
-0.00183174
-0.000153126
-0.00164851
-0.000183229
-0.00143668
-0.000211835
-0.00119745
-0.000239232
-0.000932721
-0.000264727
-0.00064437
-0.000288351
-0.000335249
-0.000309121
-8.42646e-06
-0.000326823
0.00033206
-0.000340487
0.000682133
-0.000350073
0.0010371
-0.00035497
0.0013923
-0.000355195
0.00174226
-0.00034996
0.00208144
-0.000339186
0.00240461
-0.000323163
0.00270587
-0.000301261
0.0029798
-0.000273935
0.00322097
-0.000241171
0.00342463
-0.000203658
0.00358589
-0.000161256
0.00370055
-0.000114668
0.00376572
-6.51702e-05
0.00377955
-1.38238e-05
0.00372998
4.95707e-05
0.0036213
0.000108675
0.00345503
0.000166274
0.00323375
0.000221276
0.00296038
0.000273376
0.00263888
0.000321502
0.00227364
0.000365237
0.0018709
0.000402738
0.00143761
0.000433296
0.000982388
0.000455217
0.000514498
0.000467891
4.39961e-05
0.000470501
-0.000418147
0.000462143
-0.00086081
0.000442663
-0.00127285
0.000412043
-0.00164316
0.000370306
-0.00196153
0.000318371
-0.00221831
0.000256777
-0.00240534
0.000187037
-0.00251625
0.000110905
-0.00254683
3.05849e-05
-0.0024833
-6.35314e-05
-0.00233213
-0.000151176
-0.00209863
-0.000233491
-0.0017887
-0.000309939
-0.00141013
-0.000378568
-0.000973457
-0.000436671
-0.000491363
-0.000482094
1.99582e-05
-0.000511321
0.000543494
-0.000523536
0.0010605
-0.000517002
0.0015509
-0.000490404
0.00199525
-0.000444348
0.00237455
-0.000379299
0.00267206
-0.000297516
0.00287223
-0.000200165
0.00296445
-9.22235e-05
0.00293354
3.09094e-05
0.00277618
0.000157357
0.00249917
0.000277017
0.0021123
0.00038687
0.00162878
0.000483517
0.00106584
0.000562937
0.000446669
0.000619175
-0.000203021
0.000649691
-0.000851667
0.000648646
-0.0014689
0.000617237
-0.00202267
0.000553766
-0.00248345
0.000460784
-0.00282558
0.000342124
-0.00302825
0.000202675
-0.00307949
5.12362e-05
-0.00295758
-0.000121906
-0.00267672
-0.000280865
-0.00225362
-0.000423098
-0.00170944
-0.000544181
-0.00107453
-0.000634911
-0.000386275
-0.000688254
0.000311946
-0.000698221
0.000974052
-0.000662106
0.00155567
-0.000581614
0.00201563
-0.000459966
0.00232151
-0.000305876
0.00245142
-0.000129911
0.00238478
6.66395e-05
0.00213053
0.000254248
0.00171362
0.000416906
0.00116619
0.000547437
0.000533657
0.000632531
-0.000129645
0.000663301
-0.000763801
0.000634156
-0.00131036
0.000546557
-0.00171838
0.000408022
-0.00194873
0.000230348
-0.00198068
3.19529e-05
-0.00179344
-0.000187244
-0.00142093
-0.000372512
-0.000901005
-0.000519922
-0.000288393
-0.000612611
0.000350107
-0.0006385
0.000939553
-0.000589446
0.00141133
-0.000471775
0.00170964
-0.000298311
0.00179878
-8.91389e-05
0.00165338
0.000145396
0.00130265
0.000350736
0.000791196
0.000511449
0.000183874
0.000607323
-0.000437046
0.000620919
-0.000982387
0.000545341
-0.00137461
0.000392225
-0.001556
0.000181383
-0.00148647
-6.95207e-05
-0.0011768
-0.000309674
-0.000672415
-0.000504386
-4.27108e-05
-0.000629704
0.000619569
-0.000662279
0.00120975
-0.000590182
0.00163689
-0.000427138
0.0018334
-0.000196507
0.00175842
7.49815e-05
0.00142841
0.000330001
0.000896793
0.000531621
0.000247064
0.000649729
-0.000415003
0.000662067
-0.000979142
0.000564138
-0.00135561
0.00037647
-0.00148886
0.000133251
-0.00136226
-0.000126603
-0.00101502
-0.000347237
-0.000520095
-0.000494928
2.03026e-05
-0.000540397
0.000497853
-0.00047755
0.000817187
-0.000319335
0.000917715
-0.000100527
0.000783467
0.000134248
0.000450465
0.000333002
0.000450465
0.000156593
-0.000228379
0.00032721
-0.000247065
0.000500666
-0.000250574
0.000676991
-0.000253639
0.000856216
-0.00025653
0.00103839
-0.000259189
0.00122324
-0.00026126
0.00141046
-0.000262714
0.00159928
-0.00026313
0.00178899
-0.000262469
0.00197853
-0.000260399
0.00216678
-0.000256987
0.00235272
-0.000252082
0.00253516
-0.000245578
0.00271268
-0.000237383
0.00288413
-0.000227381
0.00304818
-0.000215453
0.00320305
-0.000201514
0.00334759
-0.000185458
0.00348037
-0.000167212
0.00359997
-0.000146695
0.00370489
-0.000123993
0.00379388
-9.90426e-05
0.0038651
-7.24701e-05
0.00391532
-4.35896e-05
0.0039459
-1.46357e-05
0.00393858
3.40211e-05
0.00390017
7.70994e-05
0.00383228
0.000119618
0.00373625
0.000161583
0.00361291
0.000203257
0.00346373
0.000243653
0.00328996
0.000282746
0.00309317
0.000319808
0.00287526
0.000354449
0.0026386
0.000385803
0.0023861
0.000413085
0.00212008
0.000436672
0.00184097
0.000458282
0.00155065
0.00047627
0.00125128
0.000490154
0.000946193
0.000498661
0.000638687
0.000501619
0.00033195
0.000499057
2.90141e-05
0.000490996
-0.000265643
0.00047592
-0.00054925
0.000455521
-0.00081803
0.000428752
-0.00106726
0.000394676
-0.00129571
0.000356844
-0.00149755
0.000310976
-0.00167259
0.000262568
-0.00181498
0.000205966
-0.00192451
0.00014848
-0.00199695
8.44691e-05
-0.00203685
1.53392e-05
-0.00203613
-5.84212e-05
-0.00199621
-0.000129936
-0.00191737
-0.000200916
-0.00179974
-0.00027076
-0.00164408
-0.000338888
-0.00145129
-0.00040462
-0.00122311
-0.000467414
-0.00096201
-0.00052583
-0.000671168
-0.000579193
-0.000354186
-0.000626104
-1.51656e-05
-0.000665843
0.000341743
-0.000697396
0.000711315
-0.000719645
0.00108822
-0.000731875
0.00146683
-0.00073381
0.00184124
-0.000724365
0.00220493
-0.000702881
0.00255209
-0.00067032
0.00287612
-0.000625291
0.00317086
-0.000568677
0.00343046
-0.000500762
0.00364897
-0.000422171
0.00382132
-0.000333613
0.00394329
-0.000236637
0.00401062
-0.000132492
0.00402061
-2.38195e-05
0.00396305
0.00010713
0.00384259
0.000229138
0.00366079
0.000348069
0.00341913
0.000462941
0.00312056
0.000571944
0.00276888
0.000673179
0.00236939
0.000764729
0.00192872
0.00084341
0.001455
0.000907011
0.000957432
0.000952788
0.00044638
0.000978942
-6.70039e-05
0.000983886
-0.000570843
0.000965981
-0.00105302
0.000924845
-0.00150135
0.000860369
-0.00190333
0.000772282
-0.00224816
0.0006632
-0.00252488
0.000533501
-0.00272473
0.000386887
-0.00284047
0.000226639
-0.00286675
5.68678e-05
-0.00279279
-0.00013749
-0.00262525
-0.000318712
-0.00236772
-0.000491029
-0.00202561
-0.000652044
-0.0016086
-0.000795581
-0.00112689
-0.000918381
-0.000596746
-0.00101223
-3.35374e-05
-0.00107453
0.00054344
-0.00110051
0.00111265
-0.00108621
0.0016526
-0.00103035
0.00214162
-0.000933362
0.0025599
-0.000797583
0.0028876
-0.00062522
0.0031092
-0.000421762
0.00321099
-0.000194009
0.00318032
6.15735e-05
0.00301399
0.000323685
0.00271936
0.00057165
0.00230423
0.000801998
0.00178264
0.00100511
0.00117401
0.00117157
0.000504052
0.00128913
-0.000199169
0.00135291
-0.000901443
0.00135092
-0.00156845
0.00128425
-0.00216638
0.00115169
-0.00266242
0.000956821
-0.00302902
0.000708723
-0.00324378
0.000417437
-0.00329215
9.96112e-05
-0.00315647
-0.000257586
-0.00285094
-0.0005864
-0.00238992
-0.000884121
-0.00179784
-0.00113625
-0.00110777
-0.00132498
-0.000362024
-0.001434
0.000393847
-0.00145409
0.00110815
-0.00137641
0.00173271
-0.00120617
0.00222382
-0.000951073
0.00254627
-0.000628324
0.00267308
-0.000256724
0.00258856
0.000151165
0.00230291
0.000539894
0.00184041
0.000879409
0.00123631
0.00115153
0.000541193
0.00132765
-0.000185735
0.00139023
-0.000877167
0.00132559
-0.00147079
0.00114018
-0.00191061
0.000847842
-0.00215324
0.000472982
-0.00217439
5.30993e-05
-0.00196325
-0.000398379
-0.00154916
-0.000786604
-0.000974191
-0.00109489
-0.000299356
-0.00128745
0.000400134
-0.00133799
0.00104311
-0.00123243
0.00155495
-0.000983616
0.00187461
-0.000617962
0.00196374
-0.000178276
0.00179944
0.000309701
0.00141132
0.00073885
0.000847582
0.00107519
0.000181633
0.00127327
-0.000497794
0.00130035
-0.00109277
0.00114031
-0.0015185
0.000817961
-0.00171306
0.000375946
-0.0016365
-0.000146084
-0.00130266
-0.000643517
-0.000757303
-0.00104974
-7.78045e-05
-0.0013092
0.000635463
-0.00137555
0.00126864
-0.00122336
0.00172357
-0.00088207
0.00192907
-0.000402004
0.00184492
0.000159129
0.00149021
0.000684709
0.000921572
0.00110026
0.000230997
0.0013403
-0.000467462
0.00136053
-0.00105633
0.00115301
-0.00144201
0.000762148
-0.00156691
0.000258147
-0.00141747
-0.000276043
-0.00103585
-0.000728858
-0.000502625
-0.00102815
7.35228e-05
-0.00111654
0.000577196
-0.000981223
0.000908923
-0.000651063
0.00100571
-0.00019731
0.000852686
0.000287267
0.000488609
0.00069708
0.000939074
3.56626e-05
-0.000264041
7.81686e-05
-0.00028957
0.000120958
-0.000293363
0.000163862
-0.000296542
0.000206047
-0.000298715
0.000247375
-0.000300517
0.000286379
-0.000300264
0.000323461
-0.000299795
0.000357109
-0.000296778
0.000388594
-0.000293953
0.000418381
-0.000290186
0.000447845
-0.000286451
0.000477995
-0.000282231
0.00050989
-0.000277472
0.000544081
-0.000271573
0.000581331
-0.000264631
0.000621717
-0.000255838
0.000667475
-0.000247272
0.000714183
-0.000232165
0.000762312
-0.00021534
0.000809959
-0.000194342
0.000857245
-0.000171279
0.00089913
-0.000140928
0.000932056
-0.000105395
0.000950051
-6.15844e-05
0.000949686
-1.42708e-05
0.000956295
2.74123e-05
0.000952974
8.0421e-05
0.000932772
0.000139819
0.000891758
0.000202598
0.000826493
0.000268522
0.000734878
0.000335269
0.00061568
0.000401943
0.000468694
0.000466794
0.000294661
0.000528482
9.49269e-05
0.000585537
-0.00012925
0.000637262
-0.000375101
0.000682523
-0.000637449
0.00072063
-0.000912127
0.000750949
-0.00119464
0.000772667
-0.00148143
0.000785455
-0.0017685
0.000788689
-0.00205151
0.000782067
-0.00232598
0.00076546
-0.00258872
0.000738664
-0.00283508
0.000701878
-0.00306104
0.000654713
-0.00326492
0.00059856
-0.00344035
0.000532273
-0.00358745
0.000458071
-0.00369993
0.000375051
-0.00377967
0.000285708
-0.00381912
0.000187924
-0.00382268
8.80305e-05
-0.00377275
-3.45958e-05
-0.00367812
-0.000153045
-0.00353996
-0.000268097
-0.00336003
-0.000380846
-0.00313841
-0.000492377
-0.00287658
-0.000600722
-0.00257516
-0.000706039
-0.00223663
-0.000805948
-0.00186317
-0.000899287
-0.00145831
-0.000984056
-0.00102606
-0.00105835
-0.000570943
-0.00112096
-9.86391e-05
-0.0011697
0.000385311
-0.0012036
0.000874513
-0.00122108
0.00136251
-0.0012218
0.00184189
-0.00120375
0.00230574
-0.00116673
0.00274645
-0.00111103
0.003157
-0.00103584
0.00352915
-0.00094083
0.00385642
-0.000828029
0.0041319
-0.000697659
0.00434943
-0.000551133
0.00450401
-0.000391217
0.00459143
-0.000219918
0.00460795
-4.03403e-05
0.00454524
0.000169838
0.00440763
0.000366749
0.0041956
0.000560105
0.00391068
0.000747854
0.0035562
0.000926428
0.00313699
0.00109239
0.00265992
0.00124179
0.00213317
0.00137016
0.00156643
0.00147376
0.00097134
0.00154787
0.000360648
0.00158963
-0.000253118
0.00159765
-0.000854912
0.00156778
-0.00143
0.00149994
-0.00196361
0.00139397
-0.00244124
0.00124992
-0.00284904
0.00107099
-0.00317473
0.000859195
-0.00340716
0.000619318
-0.00353807
0.000357543
-0.00355748
7.6282e-05
-0.0034623
-0.000232673
-0.0032555
-0.000525508
-0.0029406
-0.000805933
-0.00252437
-0.00106827
-0.00201634
-0.00130361
-0.00143259
-0.00150213
-0.000788056
-0.00165677
-0.00010484
-0.00175775
0.000591785
-0.00179714
0.00127957
-0.001774
0.00193188
-0.00168267
0.00252341
-0.00152489
0.00302892
-0.00130309
0.00342607
-0.00102237
0.00369447
-0.000690166
0.0038189
-0.000318439
0.00378547
9.50052e-05
0.00359322
0.000515938
0.00324673
0.000918139
0.00275611
0.00129261
0.00213736
0.00162386
0.00141515
0.00189378
0.000618588
0.00208569
-0.000214642
0.00218614
-0.00104774
0.00218402
-0.00183743
0.00207394
-0.00254387
0.00185814
-0.00312934
0.00154229
-0.00355747
0.00113685
-0.00380407
0.000664033
-0.00384879
0.00014433
-0.00368309
-0.000423287
-0.0033151
-0.000954384
-0.00276258
-0.00143664
-0.00205404
-0.00184479
-0.00123086
-0.00214817
-0.00034226
-0.0023226
0.000553332
-0.00234968
0.00139687
-0.00221995
0.00213152
-0.00194083
0.00270256
-0.0015221
0.00306731
-0.000993079
0.00320224
-0.000391655
0.00308258
0.000270828
0.00272641
0.000896058
0.00215799
0.00144783
0.0014225
0.00188703
0.000581347
0.0021688
-0.000292906
0.00226448
-0.00112095
0.00215363
-0.00182604
0.00184527
-0.00234126
0.00136306
-0.00261781
0.000749537
-0.00262735
6.26397e-05
-0.00235982
-0.000665911
-0.00184994
-0.00129649
-0.00114936
-0.00179547
-0.000332561
-0.00210424
0.000511104
-0.00218166
0.00128168
-0.002003
0.00188977
-0.0015917
0.00226247
-0.000990659
0.00235541
-0.000271218
0.00214831
0.000516802
0.00167354
0.00121362
0.000989678
0.00175906
0.000185384
0.00207756
-0.000629819
0.00211555
-0.00133989
0.00185038
-0.00184597
0.00132404
-0.00207289
0.000602866
-0.00197878
-0.000240194
-0.00158064
-0.00104166
-0.000932806
-0.00169757
-0.000129012
-0.002113
0.000710532
-0.00221509
0.00145087
-0.00196369
0.00197847
-0.00140967
0.00221005
-0.000633585
0.00210424
0.000264943
0.00168459
0.00110436
0.00101925
0.00176559
0.000218648
0.00214091
-0.000582881
0.00216206
-0.00124944
0.00181957
-0.00167315
0.00118586
-0.00179192
0.000376921
-0.00159627
-0.000471693
-0.00113604
-0.00118909
-0.000508196
-0.00165599
0.00016082
-0.00178556
0.000737154
-0.00155756
0.00110879
-0.0010227
0.00120568
-0.000294196
0.00101308
0.000479868
0.000577867
0.00113229
0.00151694
9.0239e-05
-0.00035428
0.000205469
-0.0004048
0.000336259
-0.000424152
0.000488714
-0.000448997
0.000666619
-0.00047662
0.000876311
-0.000510209
0.00111723
-0.000541181
0.00139306
-0.000575623
0.00169761
-0.000601327
0.00202573
-0.000622074
0.00236591
-0.000630369
0.00271526
-0.000635796
0.0030698
-0.000636771
0.00342823
-0.000635908
0.00378895
-0.000632289
0.00415028
-0.000625966
0.0045066
-0.000612153
0.00485162
-0.00059229
0.00518508
-0.000565631
0.00550141
-0.00053166
0.0057958
-0.000488737
0.00606177
-0.000437249
0.00629784
-0.000376994
0.00650299
-0.000310548
0.00666916
-0.000227755
0.00679889
-0.000144001
0.0068715
-4.51977e-05
0.00686355
8.83743e-05
0.00678025
0.000223119
0.00662985
0.000352997
0.00641104
0.000487335
0.00613055
0.000615754
0.00579274
0.000739756
0.00540611
0.000853425
0.00497967
0.000954924
0.00451579
0.00104941
0.00401597
0.00113709
0.00348421
0.00121428
0.00292718
0.00127766
0.00235169
0.00132644
0.00176554
0.00135882
0.00117615
0.00137484
0.000590971
0.00137387
1.52317e-05
0.00135781
-0.000543508
0.0013242
-0.00107837
0.00127353
-0.00158184
0.00120535
-0.00205103
0.0011239
-0.00247942
0.00102695
-0.00286188
0.000914735
-0.00319719
0.000793382
-0.00347597
0.000653832
-0.00369726
0.000506995
-0.00386204
0.000352704
-0.00396193
0.000187925
-0.00400664
1.01052e-05
-0.00399281
-0.000166866
-0.00391667
-0.000344238
-0.00377752
-0.000520005
-0.00357587
-0.000694017
-0.0033137
-0.0008629
-0.00299389
-0.00102585
-0.00262064
-0.0011792
-0.0021987
-0.00132122
-0.00173293
-0.00144983
-0.00122918
-0.0015621
-0.000693631
-0.00165651
-0.0001334
-0.00172993
0.000443713
-0.00178071
0.00102933
-0.00180669
0.00161537
-0.00180785
0.0021923
-0.00178067
0.00275095
-0.00172538
0.00328207
-0.00164216
0.00377669
-0.00153046
0.00422546
-0.0013896
0.004619
-0.00122157
0.00495001
-0.00102866
0.00521096
-0.00081209
0.00539445
-0.000574704
0.00549229
-0.000317758
0.00550514
-5.31867e-05
0.00542279
0.000252184
0.0052492
0.000540339
0.00498518
0.000824127
0.0046324
0.00110063
0.00419529
0.00136353
0.00367937
0.00160832
0.00309254
0.00182862
0.00244593
0.00201678
0.0017516
0.00216809
0.00102271
0.00227676
0.000274851
0.0023375
-0.000474672
0.00234717
-0.00120847
0.00230157
-0.00190882
0.00220029
-0.00255749
0.00204265
-0.0031366
0.00182902
-0.00362958
0.00156398
-0.00402089
0.0012505
-0.00429674
0.000895171
-0.00444434
0.000505141
-0.00446381
9.57504e-05
-0.00434049
-0.000355994
-0.00408096
-0.000785038
-0.0036887
-0.0011982
-0.00317226
-0.00158471
-0.00254363
-0.00193224
-0.0018212
-0.00222456
-0.00102911
-0.00244886
-0.000189109
-0.00259775
0.000670247
-0.00265649
0.00151671
-0.00262046
0.00231858
-0.00248453
0.00304481
-0.00225112
0.00366566
-0.00192394
0.00415281
-0.00150952
0.00448188
-0.00101923
0.00463493
-0.000471488
0.00459654
0.000133392
0.00436693
0.000745552
0.00394957
0.0013355
0.00335567
0.00188651
0.00260581
0.00237372
0.0017299
0.00276969
0.000765082
0.00305051
-0.000245766
0.00319699
-0.00125219
0.00319044
-0.00220603
0.00302778
-0.00305662
0.00270873
-0.00375842
0.00224408
-0.00427106
0.0016495
-0.00456083
0.000953798
-0.00460789
0.000191391
-0.00439647
-0.000634701
-0.00394325
-0.00140761
-0.00326549
-0.0021144
-0.00240075
-0.00270953
-0.00139833
-0.00315058
-0.000321762
-0.00339917
0.000761651
-0.0034331
0.00177914
-0.00323744
0.00265766
-0.00281935
0.00333718
-0.00220163
0.00376623
-0.00142213
0.00390442
-0.000529837
0.00374015
0.000435096
0.00328848
0.00134772
0.002579
0.00215731
0.00167047
0.00279556
0.000635286
0.00320398
-0.000435823
0.00333559
-0.00144396
0.00316177
-0.00229841
0.00269972
-0.00291786
0.00198251
-0.00323954
0.00107121
-0.00322434
4.744e-05
-0.00288372
-0.00100653
-0.00224615
-0.00193406
-0.0013763
-0.00266532
-0.000368723
-0.00311182
0.000664429
-0.00321481
0.00160331
-0.00294188
0.00233881
-0.0023272
0.00278261
-0.00143446
0.00287829
-0.000366908
0.00261387
0.000781231
0.00202145
0.00180603
0.00117648
0.00260403
0.000189852
0.00306419
-0.000806542
0.00311194
-0.00167019
0.00271403
-0.00227975
0.00193361
-0.00254719
0.000870305
-0.00242771
-0.000359671
-0.00194182
-0.00152756
-0.00115522
-0.00248417
-0.00018506
-0.00308315
0.000822946
-0.0032231
0.00170625
-0.002847
0.00232845
-0.00203187
0.00259317
-0.000898306
0.00245644
0.000401672
0.00194739
0.00161341
0.00115101
0.00256197
0.000201749
0.00309017
-0.000737395
0.0031012
-0.00150682
0.00258899
-0.00198344
0.00166247
-0.00209492
0.000488408
-0.00183773
-0.000728885
-0.00127431
-0.00175252
-0.000521682
-0.00240861
0.000269433
-0.00257668
0.000942048
-0.00223017
0.00136681
-0.00144746
0.0014649
-0.000392287
0.00122228
0.000722495
0.000694859
0.00165971
0.0022118
-7.30569e-06
-0.000346974
1.97786e-05
-0.000431883
6.25093e-05
-0.000466882
0.00012987
-0.000516358
0.000220469
-0.000567218
0.000337336
-0.000627075
0.000445777
-0.000649622
0.000538691
-0.000668536
0.000539862
-0.000602497
0.000486645
-0.000568857
0.000414462
-0.000558185
0.000360856
-0.000582189
0.000338028
-0.000613942
0.000355242
-0.000653121
0.000414824
-0.000691871
0.000517551
-0.000728692
0.000665642
-0.000760243
0.000855873
-0.000782521
0.00108238
-0.000792138
0.00133889
-0.000788165
0.00161352
-0.000763369
0.00190244
-0.000726166
0.00218973
-0.000664283
0.00246839
-0.000589214
0.00272335
-0.000482715
0.00294628
-0.000366927
0.00311455
-0.000213464
0.00325645
-5.35335e-05
0.0033178
0.000161778
0.00331683
0.000353961
0.00323491
0.000569259
0.00307086
0.000779802
0.00282561
0.000985011
0.00250313
0.0011759
0.00210782
0.00135023
0.00165158
0.00150566
0.00114892
0.00163974
0.000611556
0.00175165
4.96901e-05
0.00183952
-0.000527429
0.00190356
-0.00111096
0.00194236
-0.00169274
0.00195662
-0.00226529
0.00194642
-0.00281903
0.00191154
-0.00334821
0.00185338
-0.00384719
0.00177251
-0.00431059
0.00166875
-0.00473125
0.00154456
-0.00510369
0.00139939
-0.00542633
0.00123738
-0.00568784
0.00105489
-0.00589539
0.000861384
-0.00604216
0.000653767
-0.0061195
0.000430044
-0.0061305
0.000198928
-0.00606709
-5.33128e-05
-0.00593336
-0.000300592
-0.00573324
-0.000544356
-0.00546659
-0.000786656
-0.00513449
-0.00102612
-0.0047384
-0.00125899
-0.00428109
-0.00148316
-0.00376571
-0.00169458
-0.00319744
-0.00188949
-0.00258183
-0.00206544
-0.00192583
-0.0022181
-0.00123656
-0.00234578
-0.000522201
-0.00244429
0.000208264
-0.00251117
0.000945351
-0.00254378
0.00167903
-0.00254153
0.00239835
-0.0025
0.00309197
-0.00241899
0.00375048
-0.00230067
0.0043613
-0.00214127
0.00491364
-0.00194195
0.00539819
-0.00170611
0.00580504
-0.00143552
0.00612197
-0.00112901
0.00634591
-0.000798643
0.00646705
-0.000438897
0.0064811
-6.72355e-05
0.00638406
0.000349221
0.006177
0.000747394
0.00585925
0.00114189
0.00543336
0.00152652
0.0049045
0.00189239
0.00428095
0.00223187
0.00357298
0.00253659
0.00279241
0.00279735
0.00195378
0.00300672
0.00107508
0.00315545
0.00017465
0.00323793
-0.000727433
0.00324926
-0.00160988
0.00318402
-0.00245072
0.00304112
-0.0032285
0.00282043
-0.0039211
0.00252162
-0.0045093
0.00215219
-0.00497318
0.00171438
-0.00529514
0.00121714
-0.00546706
0.000677057
-0.00548074
0.000109432
-0.00532365
-0.00051308
-0.0050027
-0.001106
-0.00452202
-0.00167887
-0.00389162
-0.0022151
-0.00312698
-0.00269688
-0.00225025
-0.00310129
-0.00128616
-0.00341295
-0.000269731
-0.00361418
0.000769564
-0.00369579
0.00179405
-0.00364495
0.00276358
-0.00345407
0.00364185
-0.00312939
0.00439082
-0.00267291
0.00497868
-0.00209739
0.00537439
-0.00141494
0.00555836
-0.000655466
0.00551358
0.000178177
0.00523951
0.00101962
0.00473962
0.00183539
0.004027
0.00259913
0.00312732
0.00327339
0.00207721
0.0038198
0.000921949
0.00420578
-0.000287014
0.00440595
-0.00149091
0.00439434
-0.00263106
0.00416793
-0.00364637
0.00372403
-0.00447768
0.00307539
-0.00508177
0.00225359
-0.00541745
0.00128948
-0.00546287
0.00023681
-0.0052026
-0.000894965
-0.00465
-0.00196021
-0.00383038
-0.00293402
-0.00278998
-0.00374993
-0.0015856
-0.00435496
-0.000295525
-0.00468925
0.00100165
-0.00473027
0.0022128
-0.00444859
0.0032588
-0.00386534
0.00405716
-0.00299999
0.00454758
-0.00191255
0.00469788
-0.000680142
0.00448302
0.000649957
0.00392029
0.00191045
0.00304973
0.00302787
0.00194115
0.00390414
0.000687566
0.00445757
-0.000605105
0.00462826
-0.00181828
0.00437494
-0.00283785
0.0037193
-0.00356797
0.00271263
-0.0039396
0.00144284
-0.00390179
9.6339e-06
-0.00347322
-0.0014351
-0.00268711
-0.00272017
-0.00162543
-0.003727
-0.000404345
-0.0043329
0.000845634
-0.00446479
0.00197325
-0.0040695
0.00285035
-0.0032043
0.00337098
-0.00195509
0.00347328
-0.000469205
0.00313741
0.0011171
0.00241017
0.00253326
0.00138173
0.00363247
0.000186458
0.00425947
-0.00101087
0.00430927
-0.00204396
0.00374713
-0.00276924
0.00265888
-0.00307889
0.00117996
-0.00292891
-0.000509659
-0.00233931
-0.00211715
-0.00139507
-0.00342841
-0.000237538
-0.00424069
0.000957779
-0.00441841
0.00199971
-0.00388893
0.0027266
-0.00275877
0.00302387
-0.00119557
0.00285002
0.000575522
0.00223783
0.0022256
0.00129293
0.00350687
0.000177858
0.00420524
-0.000914001
0.00419306
-0.0017972
0.00347219
-0.00232834
0.00219361
-0.00243079
0.000590861
-0.00210323
-0.00105644
-0.00142416
-0.0024316
-0.000533904
-0.00329887
0.000390975
-0.00350156
0.00116811
-0.00300731
0.00165016
-0.00192951
0.00174804
-0.000490171
0.00144899
0.00102154
0.000820609
0.00228809
0.00303241
-0.000643784
0.000296811
-0.00126075
0.000185079
-0.00180456
7.69356e-05
-0.0021349
-0.000186024
-0.00221176
-0.000490348
-0.00196162
-0.000877223
-0.00146603
-0.00114521
-0.000738735
-0.00139583
-3.972e-05
-0.00130151
0.000704925
-0.0013135
0.00139883
-0.00125209
0.00202715
-0.0012105
0.00260078
-0.00118757
0.00314535
-0.00119769
0.00368316
-0.00122968
0.00423534
-0.00128087
0.00481304
-0.00133795
0.00542641
-0.00139589
0.00607147
-0.00143719
0.00674705
-0.00146374
0.00744167
-0.00145799
0.00814388
-0.00142837
0.00882354
-0.00134394
0.00946532
-0.001231
0.0100241
-0.00104154
0.0105158
-0.00085863
0.0108389
-0.000536551
0.0110914
-0.000306
0.0110949
0.000158242
0.0109242
0.000524716
0.0105427
0.000950779
0.0100025
0.00131993
0.00931494
0.00167261
0.00850984
0.001981
0.0076096
0.00225047
0.00663865
0.00247661
0.00561926
0.00265913
0.00457198
0.00279894
0.00351333
0.00289817
0.00245954
0.00295734
0.0014237
0.0029782
0.000416402
0.00296392
-0.000552343
0.00291517
-0.00147396
0.00283316
-0.00234194
0.00272136
-0.00314716
0.00257773
-0.00388593
0.00240753
-0.00455212
0.00221074
-0.00514293
0.0019902
-0.00565248
0.00174693
-0.00608167
0.00148408
-0.00642285
0.00120256
-0.0066741
0.000905024
-0.00683737
0.000593313
-0.00690907
0.000270623
-0.00690099
-6.13907e-05
-0.00680475
-0.000396834
-0.0066169
-0.000732199
-0.00633993
-0.00106363
-0.00597702
-0.00138904
-0.00553194
-0.00170406
-0.00500954
-0.00200555
-0.00441591
-0.00228822
-0.00375738
-0.00254803
-0.00304138
-0.00278144
-0.0022758
-0.00298367
-0.00146915
-0.00315243
-0.00063238
-0.00328106
0.000223488
-0.00336704
0.00108703
-0.00340732
0.00194661
-0.0034011
0.00278934
-0.00334273
0.00360225
-0.0032319
0.00437248
-0.00307091
0.00508742
-0.00285621
0.0057318
-0.00258633
0.00629721
-0.00227152
0.0067666
-0.00190491
0.00713773
-0.00150015
0.00739043
-0.00105134
0.00753062
-0.000579083
0.00753378
-7.03949e-05
0.00741375
0.000469252
0.00716489
0.000996257
0.00678511
0.00152166
0.00627871
0.00203292
0.0056521
0.00251901
0.00491419
0.00296978
0.00407678
0.00337399
0.00315481
0.00371932
0.00216675
0.00399478
0.00113168
0.00419052
7.27347e-05
0.00429687
-0.000987121
0.00430911
-0.00202246
0.00421936
-0.00300838
0.00402704
-0.00391888
0.00373094
-0.00472864
0.00333137
-0.00541351
0.00283706
-0.00595015
0.00225101
-0.00632263
0.00158961
-0.0065213
0.000875726
-0.00652137
0.000109499
-0.00633094
-0.000703501
-0.00594655
-0.00149039
-0.00537288
-0.00225254
-0.00462372
-0.00296426
-0.00371816
-0.00360244
-0.00268043
-0.00413902
-0.00154266
-0.00455072
-0.00034026
-0.00481658
0.000883724
-0.00491977
0.00208908
-0.00485031
0.00322957
-0.00459456
0.0042621
-0.00416192
0.00514151
-0.00355231
0.00583096
-0.00278684
0.00629444
-0.00187842
0.0065078
-0.000868824
0.00645451
0.000231468
0.00613446
0.00133967
0.00554469
0.00242516
0.00470998
0.00343385
0.00365588
0.0043275
0.00242667
0.00504901
0.00107419
0.00555826
-0.000338378
0.00581852
-0.00174376
0.00579972
-0.00307254
0.00549671
-0.00425228
0.00490377
-0.00522299
0.0040461
-0.00591854
0.00294914
-0.00629989
0.00167083
-0.0063354
0.000272315
-0.00602461
-0.00120575
-0.00536905
-0.00261578
-0.00440372
-0.00389935
-0.00317682
-0.00497683
-0.00176863
-0.00576315
-0.000254046
-0.00620383
0.00125634
-0.00624066
0.00266788
-0.00586013
0.00387488
-0.00507234
0.00479698
-0.00392209
0.00536041
-0.00247597
0.00550831
-0.000828045
0.00523689
0.000921377
0.0045586
0.00258874
0.0035221
0.00406437
0.00220704
0.0052192
0.000727464
0.00593715
-0.000791501
0.00614723
-0.00220958
0.00579302
-0.00340011
0.00490984
-0.00424509
0.0035576
-0.00465965
0.00185739
-0.00459841
-5.16043e-05
-0.00407551
-0.001958
-0.00313379
-0.00366189
-0.0018731
-0.00498769
-0.000425796
-0.00578021
0.00104293
-0.00593351
0.00236482
-0.00539139
0.00338506
-0.00422455
0.00398051
-0.00255054
0.00408009
-0.000568792
0.0036716
0.00152559
0.00280262
0.00340224
0.00158507
0.00485002
0.000178595
0.00566595
-0.00122686
0.00571473
-0.00243311
0.00495338
-0.00327152
0.00349729
-0.00362223
0.00153067
-0.00343679
-0.000695093
-0.00273938
-0.00281456
-0.00163209
-0.00453571
-0.000281346
-0.00559143
0.00110502
-0.00580478
0.00230424
-0.00508814
0.00313326
-0.00358778
0.00346263
-0.00152494
0.00324578
0.000792372
0.00252551
0.00294587
0.0014288
0.00460358
0.000144296
0.00548975
-0.001099
0.00543635
-0.00209367
0.00446687
-0.00267817
0.00277811
-0.00276518
0.000677871
-0.00236458
-0.00145704
-0.00156814
-0.00322803
-0.000539414
-0.0043276
0.000517787
-0.00455876
0.00139689
-0.00388641
0.00193297
-0.00246558
0.00202873
-0.00058594
0.00167411
0.00137617
0.000946258
0.00301594
0.00397867
-0.00115954
0.00145635
-0.00221732
0.00124286
-0.00300135
0.000860967
-0.00337114
0.000183763
-0.00292933
-0.000932158
-0.00157023
-0.00223632
0.00033005
-0.00304549
0.00221479
-0.00328057
0.00236177
-0.0014485
0.0015333
-0.000485025
0.000446067
-0.000164862
-0.000420912
-0.000343521
-0.000938509
-0.000669976
-0.00113368
-0.00100252
-0.00106864
-0.00129473
-0.000795478
-0.00155402
-0.000335314
-0.00179811
0.000292054
-0.00202326
0.00106232
-0.00220746
0.00193083
-0.00233225
0.00285386
-0.00238102
0.0038321
-0.00240662
0.00481547
-0.0023273
0.00579846
-0.00221399
0.00672759
-0.00197066
0.0076246
-0.00175564
0.00842029
-0.00133224
0.00923823
-0.00112394
0.00954232
-0.000145849
0.00945086
0.000616179
0.00901161
0.00139002
0.00832174
0.0020098
0.0074558
0.00253855
0.00646998
0.00296682
0.00540854
0.00331191
0.00430103
0.00358412
0.00317468
0.00378547
0.00204647
0.00392715
0.000934678
0.00400997
-0.000150733
0.00404275
-0.00119817
0.00402563
-0.00219874
0.00396449
-0.00314635
0.00386278
-0.00403497
0.00372178
-0.0048558
0.00354218
-0.00561129
0.00333321
-0.00629003
0.00308628
-0.0068961
0.00281681
-0.0074172
0.00251129
-0.00785781
0.00218755
-0.00821373
0.00183999
-0.00848147
0.0014703