/*--------------------------------*- C++ -*----------------------------------*\
  =========                 |
  \\      /  F ield         | OpenFOAM: The Open Source CFD Toolbox
   \\    /   O peration     | Website:  https://openfoam.org
    \\  /    A nd           | Version:  12
     \\/     M anipulation  |
\*---------------------------------------------------------------------------*/
FoamFile
{
    format      ascii;
    class       volScalarField;
    location    "0.3";
    object      epsilon;
}
// * * * * * * * * * * * * * * * * * * * * * * * * * * * * * * * * * * * * * //

dimensions      [0 2 -3 0 0 0 0];

internalField   nonuniform List<scalar> 
12225
(
278.515
263.66
249.434
236.839
226.738
219.483
215.069
213.262
213.704
215.988
219.709
224.499
230.037
236.058
242.361
248.778
255.343
264.847
61.1159
86.6952
97.991
107.207
118.464
132.555
149.408
168.606
189.57
211.672
234.321
257.007
279.325
300.976
321.867
341.833
362.382
380.906
25.2776
36.183
43.3817
48.6211
53.386
58.3356
63.7695
69.8239
76.5237
83.8205
91.624
99.825
108.312
116.984
125.775
134.662
143.793
153.16
17.5217
21.2986
24.7144
27.6099
30.1618
32.5398
34.8663
37.2273
39.6762
42.2393
44.9241
47.7262
50.6343
53.636
56.7225
59.901
63.1896
66.6139
15.4878
16.7519
18.1858
19.5888
20.9094
22.1489
23.3262
24.465
25.586
26.7046
27.8305
28.9693
30.1239
31.2958
32.4864
33.7007
34.9433
36.2109
14.9084
15.2396
15.7463
16.334
16.9476
17.5589
18.1557
18.7355
19.3
19.8523
20.3958
20.933
21.4661
21.9968
22.5268
23.0585
23.5935
24.126
14.7451
14.7391
14.8342
15.0036
15.2215
15.4679
15.7285
15.9948
16.2618
16.5273
16.79
17.0496
17.3062
17.56
17.8115
18.0615
18.3104
18.5539
14.7012
14.5825
14.5116
14.4858
14.4981
14.5403
14.6043
14.6837
14.7736
14.8707
14.9724
15.0771
15.1835
15.2911
15.3993
15.5081
15.617
15.7234
14.6901
14.5373
14.407
14.3009
14.2182
14.1571
14.1145
14.0875
14.0732
14.0692
14.0735
14.0844
14.1006
14.1211
14.1451
14.1721
14.2015
14.2316
14.6874
14.5252
14.3761
14.2411
14.1204
14.0137
13.9203
13.8391
13.7688
13.7083
13.6564
13.6119
13.574
13.5418
13.5147
13.4919
13.473
13.4572
14.6868
14.5221
14.3677
14.2236
14.0896
13.9656
13.8512
13.746
13.6495
13.5611
13.4801
13.4061
13.3383
13.2764
13.2197
13.1678
13.1203
13.0771
14.6866
14.5213
14.3656
14.219
14.0812
13.9518
13.8305
13.7169
13.6105
13.5111
13.4182
13.3314
13.2504
13.1747
13.104
13.038
12.9764
12.9194
14.6865
14.521
14.3648
14.2175
14.0785
13.9473
13.8234
13.7065
13.5963
13.4922
13.3941
13.3016
13.2143
13.1319
13.0543
12.9811
12.912
12.8476
14.6864
14.5208
14.3645
14.2169
14.0774
13.9456
13.8209
13.7029
13.5913
13.4855
13.3853
13.2904
13.2005
13.1153
13.0345
12.9579
12.8853
12.8172
14.6864
14.5207
14.3643
14.2165
14.0769
13.9449
13.8199
13.7016
13.5895
13.4832
13.3824
13.2868
13.196
13.1098
13.0279
12.9501
12.8763
12.8068
14.6863
14.5206
14.3641
14.2163
14.0766
13.9444
13.8194
13.7009
13.5886
13.4822
13.3812
13.2854
13.1943
13.1079
13.0257
12.9475
12.8732
12.8034
14.6863
14.5205
14.364
14.2161
14.0763
13.9441
13.8189
13.7004
13.5881
13.4815
13.3805
13.2845
13.1934
13.1068
13.0245
12.9462
12.8718
12.8018
14.6863
14.5204
14.3639
14.216
14.0761
13.9439
13.8186
13.7001
13.5877
13.4811
13.3799
13.2839
13.1927
13.1061
13.0237
12.9454
12.8709
12.8007
14.6863
14.5204
14.3639
14.2159
14.0761
13.9438
13.8185
13.6999
13.5875
13.4809
13.3797
13.2837
13.1924
13.1057
13.0233
12.9449
12.8704
12.8002
14.6863
14.5205
14.3639
14.216
14.0762
13.9439
13.8187
13.7001
13.5877
13.4811
13.38
13.284
13.1928
13.1061
13.0237
12.9453
12.8708
12.8007
14.6863
14.5205
14.364
14.2162
14.0764
13.9443
13.8192
13.7007
13.5885
13.4821
13.3812
13.2854
13.1945
13.1082
13.0262
12.9482
12.8742
12.8046
14.6863
14.5206
14.3643
14.2167
14.0773
13.9457
13.8214
13.7039
13.5928
13.4878
13.3886
13.2947
13.2059
13.1218
13.0423
12.9669
12.8956
12.8288
14.6865
14.5212
14.3659
14.2202
14.0837
13.956
13.8368
13.7255
13.6218
13.525
13.4348
13.3506
13.272
13.1986
13.13
13.0659
13.006
12.9505
14.6876
14.5264
14.3793
14.2467
14.1282
14.0231
13.9302
13.8484
13.7762
13.7126
13.6565
13.6068
13.5628
13.5237
13.489
13.4581
13.4306
13.4066
14.6976
14.5664
14.4707
14.4075
14.3715
14.3568
14.3585
14.372
14.3941
14.4224
14.4551
14.4908
14.5287
14.5681
14.6085
14.6497
14.6914
14.7334
14.7737
14.8187
14.9603
15.1591
15.3863
15.6233
15.8598
16.0905
16.3135
16.5285
16.7359
16.9366
17.1314
17.3211
17.5066
17.6884
17.867
18.0419
15.2587
16.1151
17.0712
17.9727
18.7879
19.5239
20.1945
20.8149
21.3989
21.9574
22.4988
23.0292
23.5529
24.0728
24.5906
25.1071
25.6226
26.1346
18.0414
22.0079
24.9885
27.1533
28.8884
30.405
31.8127
33.1787
34.5441
35.9315
37.3518
38.809
40.3021
41.8271
43.3785
44.9499
46.5348
48.1202
34.024
45.6879
51.377
54.9426
58.0813
61.2985
64.7517
68.4844
72.4809
76.6981
81.0858
85.5942
90.177
94.7922
99.4042
103.984
108.516
112.973
163.308
157.417
151.704
146.261
141.3
136.947
133.25
130.206
127.781
125.919
124.559
123.638
123.094
122.871
122.918
123.188
123.643
124.244
0.186116
0.233464
0.388612
0.524658
0.661411
0.825545
1.01672
1.24098
1.50501
1.81057
2.13426
2.47719
2.83707
3.21073
3.59496
3.98669
4.38303
4.78131
5.17894
5.57346
5.96244
6.34346
6.71408
7.07187
7.41433
7.73895
8.04311
8.32394
8.57801
8.80102
8.9878
9.13339
9.23587
9.29975
9.33641
9.35884
9.37503
9.37182
9.18898
9.27519
9.37555
40.5541
40.3234
41.1336
42.3552
45.283
48.4543
51.8147
55.3509
59.0599
62.9405
66.993
71.2186
75.619
80.1963
84.9525
89.8897
95.0098
100.315
105.806
111.485
117.352
123.409
129.656
136.092
142.717
149.531
156.532
163.718
171.086
178.635
186.36
194.258
202.326
210.557
218.947
227.491
236.182
245.014
253.98
263.072
272.284
281.606
291.03
300.548
310.15
319.826
329.567
339.363
349.201
359.072
368.964
378.865
388.762
398.645
408.502
418.326
428.114
437.876
447.641
457.386
467.001
476.483
485.826
495.017
504.04
512.881
521.523
529.951
538.149
546.102
553.795
561.214
568.344
575.173
581.686
587.872
593.719
599.215
604.351
609.117
613.505
617.505
621.112
624.32
627.122
629.516
631.496
633.062
634.212
634.945
635.263
635.167
634.659
633.744
632.426
630.711
628.605
626.116
623.253
620.024
616.439
612.51
608.247
603.664
598.772
593.586
588.119
582.385
576.399
570.177
563.734
557.084
550.246
543.233
536.061
528.75
521.312
513.765
506.126
498.395
490.625
482.788
474.953
467.198
460.358
457.138
454.482
451.843
449.193
446.533
443.861
441.171
438.441
435.625
432.623
429.199
424.749
417.797
401.883
0.721097
0.45274
0.466901
0.53563
0.637209
0.76759
0.924799
1.11011
1.3235
1.56296
1.82437
2.10505
2.40269
2.71519
3.04064
3.37725
3.72345
4.07784
4.43923
4.80667
5.17946
5.55725
5.94008
6.32844
6.72346
7.12701
7.54196
7.9726
8.42547
8.91067
9.44353
10.0455
10.742
11.5552
12.4916
13.5341
14.6723
15.997
17.6234
18.7924
20.0378
21.9833
23.6522
25.4168
27.1445
28.7755
30.4289
32.1305
33.891
35.7124
37.5965
39.5447
41.5583
43.6386
45.7864
48.0027
50.288
52.643
55.0681
57.5635
60.1295
62.7661
65.4732
68.2505
71.0977
74.0143
76.9995
80.0526
83.1726
86.3585
89.6089
92.9224
96.2976
99.7327
103.226
106.775
110.378
114.033
117.738
121.489
125.284
129.12
132.995
136.906
140.848
144.819
148.815
152.832
156.868
160.917
164.976
169.04
173.106
177.169
181.227
185.275
189.315
193.348
197.381
201.434
205.518
209.565
213.565
217.512
221.4
225.225
228.979
232.657
236.253
239.76
243.174
246.487
249.695
252.792
255.772
258.631
261.363
263.964
266.43
268.755
270.936
272.97
274.852
276.581
278.153
279.565
280.816
281.905
282.828
283.587
284.179
284.605
284.865
284.959
284.889
284.655
284.26
283.704
282.991
282.123
281.103
279.935
278.622
277.169
275.579
273.856
272.007
270.035
267.947
265.746
263.44
261.033
258.532
255.943
253.271
250.521
247.703
244.821
241.881
238.89
235.845
232.776
229.649
226.527
223.455
220.613
218.442
216.468
214.536
212.614
210.7
208.792
206.891
204.995
203.102
201.205
199.279
197.311
195.178
193.927
1.44814
0.765257
0.708605
0.757208
0.846622
0.967289
1.11668
1.29371
1.49699
1.72438
1.9733
2.24131
2.52631
2.82661
3.14083
3.46793
3.80714
4.15795
4.52016
4.89384
5.27941
5.67765
6.08978
6.51748
6.96295
7.42899
7.91905
8.43743
8.9896
9.58264
10.2255
10.928
11.6983
12.5384
13.4407
14.3902
15.3779
16.415
17.5034
18.5968
19.7415
20.9798
22.2768
23.6279
24.9864
26.3477
27.7413
29.1803
30.6693
32.2098
33.8021
35.4469
37.1445
38.8953
40.6997
42.558
44.4704
46.4371
48.4584
50.5342
52.6645
54.8493
57.0885
59.3817
61.7286
64.1289
66.5819
69.0871
71.6438
74.2511
76.9082
79.6139
82.3673
85.1669
88.0116
90.8998
93.83
96.8005
99.8095
102.855
105.936
109.049
112.192
115.364
118.561
121.782
125.024
128.283
131.559
134.847
138.145
141.451
144.763
148.078
151.395
154.712
158.032
161.353
164.679
168.01
171.328
174.616
177.867
181.077
184.239
187.349
190.402
193.394
196.319
199.172
201.948
204.644
207.253
209.773
212.198
214.524
216.747
218.864
220.87
222.762
224.538
226.193
227.726
229.133
230.413
231.564
232.584
233.471
234.224
234.843
235.327
235.676
235.89
235.969
235.915
235.727
235.408
234.959
234.382
233.68
232.853
231.906
230.842
229.663
228.372
226.974
225.473
223.872
222.176
220.388
218.515
216.559
214.525
212.42
210.246
208.009
205.715
203.368
200.972
198.537
196.045
193.548
191.025
188.499
186.001
183.605
181.441
179.388
177.377
175.386
173.41
171.448
169.504
167.581
165.685
163.827
162.024
160.338
158.858
158.378
2.32485
1.12963
0.988205
1.00458
1.08106
1.19582
1.34191
1.51626
1.71669
1.94104
2.18706
2.45262
2.73588
3.03538
3.35004
3.67917
4.02241
4.37973
4.75136
5.13787
5.54007
5.9591
6.39639
6.85367
7.33294
7.83647
8.36679
8.92669
9.51929
10.1482
10.8172
11.5303
12.2899
13.0961
13.9462
14.8361
15.764
16.7325
17.7442
18.7977
19.8979
21.0483
22.245
23.4826
24.7529
26.0563
27.3989
28.7856
30.2191
31.7007
33.2313
34.8114
36.4416
38.1223
39.8539
41.6368
43.4713
45.3577
47.2963
49.2873
51.3309
53.4271
55.576
57.7776
60.0317
62.3382
64.6968
67.1071
69.5687
72.0809
74.643
77.2544
79.914
82.621
85.374
88.1719
91.0134
93.8968
96.8206
99.7831
102.782
105.817
108.884
111.981
115.107
118.26
121.436
124.633
127.849
131.081
134.327
137.585
140.852
144.127
147.407
150.691
153.978
157.267
160.554
163.831
167.085
170.309
173.497
176.642
179.741
182.788
185.778
188.706
191.567
194.356
197.068
199.699
202.243
204.697
207.055
209.315
211.471
213.519
215.457
217.281
218.987
220.573
222.037
223.374
224.585
225.666
226.616
227.434
228.118
228.669
229.086
229.368
229.517
229.532
229.415
229.166
228.788
228.281
227.648
226.892
226.014
225.018
223.907
222.685
221.353
219.917
218.381
216.748
215.023
213.209
211.313
209.338
207.287
205.169
202.987
200.74
198.444
196.094
193.698
191.275
188.815
186.337
183.842
181.342
178.858
176.43
174.109
171.858
169.645
167.457
165.29
163.146
161.028
158.943
156.902
154.922
153.038
151.325
149.897
149.222
3.20938
1.50889
1.26597
1.24928
1.31241
1.42123
1.5643
1.73665
1.93533
2.15801
2.4026
2.6672
2.95017
3.25027
3.56658
3.89858
4.2461
4.60927
4.98848
5.38441
5.79794
6.23017
6.68242
7.15615
7.65299
8.17468
8.72307
9.30009
9.90778
10.5483
11.224
11.9369
12.6889
13.481
14.3131
15.1852
16.0973
17.0507
18.0467
19.0861
20.1696
21.2977
22.4697
23.6839
24.9393
26.2366
27.5777
28.9647
30.3992
31.8825
33.4155
34.9992
36.6342
38.3212
40.0609
41.854
43.701
45.6026
47.5592
49.5714
51.6395
53.764
55.9453
58.1835
60.4788
62.8314
65.2411
67.7079
70.2315
72.8116
75.4476
78.139
80.885
83.6847
86.5371
89.4408
92.3947
95.3972
98.4467
101.541
104.679
107.858
111.076
114.331
117.62
120.941
124.292
127.668
131.069
134.491
137.931
141.386
144.855
148.334
151.821
155.313
158.808
162.302
165.786
169.252
172.69
176.095
179.461
182.781
186.051
189.264
192.416
195.5
198.511
201.443
204.292
207.052
209.718
212.286
214.749
217.105
219.348
221.475
223.481
225.363
227.118
228.742
230.233
231.589
232.807
233.885
234.823
235.618
236.27
236.778
237.142
237.363
237.441
237.376
237.17
236.824
236.341
235.722
234.969
234.086
233.075
231.94
230.685
229.312
227.826
226.23
224.531
222.732
220.837
218.851
216.781
214.63
212.4
210.104
207.744
205.313
202.841
200.323
197.762
195.17
192.547
189.904
187.246
184.583
181.929
179.308
176.746
174.233
171.755
169.306
166.884
164.492
162.135
159.822
157.567
155.393
153.337
151.475
149.901
148.875
4.0426
1.85666
1.52353
1.47673
1.52713
1.62979
1.76935
1.9391
2.13536
2.35562
2.59782
2.86023
3.14141
3.44024
3.75595
4.0881
4.43657
4.80154
5.18343
5.5829
6.00079
6.43811
6.89604
7.37588
7.87902
8.40698
8.96133
9.54372
10.1559
10.7996
11.4767
12.189
12.9383
13.7259
14.553
15.4205
16.3291
17.2799
18.2739
19.3116
20.3939
21.5211
22.6936
23.9114
25.175
26.4851
27.8429
29.2499
30.7074
32.2166
33.7787
35.3948
37.066
38.7933
40.5777
42.4203
44.322
46.2837
48.3064
50.3909
52.5379
54.7484
57.0229
59.362
61.7662
64.2359
66.7715
69.3729
72.0402
74.7734
77.5719
80.4355
83.3634
86.3547
89.4086
92.5236
95.6985
98.9317
102.221
105.565
108.962
112.408
115.903
119.442
123.023
126.643
130.3
133.99
137.711
141.457
145.228
149.018
152.825
156.645
160.474
164.309
168.146
171.98
175.795
179.586
183.345
187.066
190.742
194.368
197.936
201.44
204.874
208.232
211.508
214.694
217.787
220.778
223.664
226.438
229.096
231.631
234.04
236.318
238.461
240.464
242.324
244.038
245.603
247.017
248.277
249.381
250.329
251.118
251.749
252.22
252.532
252.686
252.681
252.521
252.204
251.735
251.115
250.347
249.434
248.378
247.184
245.855
244.397
242.812
241.105
239.28
237.345
235.304
233.161
230.919
228.592
226.181
223.681
221.118
218.491
215.802
213.064
210.279
207.454
204.596
201.71
198.803
195.883
192.956
190.036
187.138
184.278
181.455
178.666
175.909
173.185
170.499
167.857
165.27
162.754
160.334
158.048
155.963
154.144
152.738
4.76149
2.16557
1.75319
1.67904
1.71722
1.81335
1.94858
2.11469
2.30731
2.52369
2.76179
3.02
3.29701
3.59184
3.90381
4.23255
4.57798
4.94031
5.31994
5.71751
6.13384
6.5699
7.02679
7.50577
8.00817
8.53545
9.08911
9.67078
10.2821
10.9248
11.6006
12.3114
13.0587
13.8442
14.6694
15.5355
16.4438
17.3952
18.3909
19.4318
20.5188
21.6528
22.8346
24.065
25.3451
26.6758
28.0586
29.4947
30.9855
32.5326
34.1374
35.8014
37.526
39.3126
41.1628
43.0778
45.0593
47.1085
49.2267
51.4154
53.6757
56.0087
58.4157
60.8975
63.4551
66.0891
68.8002
71.5888
74.4551
77.3992
80.421
83.5201
86.6959
89.9477
93.2743
96.6745
100.147
103.689
107.3
110.977
114.717
118.518
122.377
126.291
130.257
134.27
138.328
142.427
146.563
150.732
154.93
159.152
163.395
167.654
171.924
176.2
180.479
184.743
188.985
193.196
197.37
201.499
205.577
209.595
213.547
217.425
221.223
224.932
228.546
232.059
235.462
238.75
241.916
244.954
247.859
250.624
253.245
255.716
258.033
260.191
262.187
264.016
265.677
267.166
268.481
269.621
270.585
271.37
271.977
272.405
272.655
272.728
272.625
272.347
271.897
271.277
270.49
269.54
268.43
267.162
265.742
264.176
262.467
260.622
258.643
256.535
254.31
251.972
249.523
246.964
244.32
241.588
238.772
235.884
232.93
229.913
226.844
223.728
220.571
217.381
214.164
210.927
207.677
204.422
201.172
197.938
194.733
191.561
188.423
185.321
182.258
179.241
176.277
173.379
170.564
167.857
165.296
162.934
160.814
159.02
5.37603
2.43438
1.95163
1.85209
1.87814
1.96708
2.09698
2.2582
2.44577
2.65668
2.88886
3.14079
3.41128
3.69946
4.00475
4.32687
4.66578
5.02171
5.39509
5.78657
6.19697
6.62727
7.07857
7.55212
8.04928
8.57151
9.12033
9.69738
10.3043
10.9429
11.6148
12.3219
13.0658
13.8484
14.6711
15.5355
16.4432
17.3953
18.3933
19.4383
20.5318
21.6749
22.8689
24.1153
25.4153
26.7705
28.1825
29.6529
31.1834
32.776
34.4324
36.1546
37.9445
39.8039
41.735
43.7395
45.8195
47.9768
50.2133
52.5308
54.9311
57.4158
59.9865
62.6446
65.3913
68.2279
71.1552
74.1739
77.2847
80.4877
83.7829
87.1703
90.6491
94.2186
97.8776
101.625
105.458
109.376
113.376
117.455
121.61
125.839
130.137
134.501
138.927
143.411
147.948
152.535
157.166
161.837
166.542
171.277
176.036
180.813
185.603
190.4
195.195
199.967
204.709
209.414
214.074
218.681
223.227
227.703
232.102
236.414
240.631
244.746
248.75
252.635
256.394
260.02
263.505
266.843
270.026
273.05
275.907
278.593
281.103
283.43
285.573
287.526
289.287
290.854
292.224
293.395
294.366
295.137
295.707
296.077
296.246
296.217
295.992
295.571
294.958
294.157
293.171
292.004
290.66
289.143
287.458
285.611
283.611
281.462
279.167
276.727
274.165
271.483
268.684
265.774
262.767
259.668
256.482
253.219
249.886
246.49
243.039
239.54
236.001
232.428
228.829
225.211
221.581
217.948
214.321
210.709
207.121
203.566
200.047
196.568
193.135
189.756
186.439
183.199
180.053
177.026
174.151
171.472
169.014
166.828
5.88205
2.66042
2.11666
1.99373
2.00766
2.08868
2.21214
2.36722
2.54835
2.75228
2.9769
3.22074
3.48272
3.76209
4.05836
4.37134
4.70107
5.04781
5.41204
5.79445
6.19587
6.61732
7.05992
7.52495
8.01379
8.52792
9.0689
9.63839
10.2381
10.8698
11.5352
12.2362
12.9746
13.7522
14.5709
15.4322
16.3381
17.2901
18.2898
19.339
20.4394
21.5926
22.8003
24.0645
25.387
26.7697
28.2147
29.7241
31.3001
32.9451
34.6614
36.4514
38.3176
40.2626
42.2888
44.3989
46.5953
48.8805
51.2571
53.7273
56.2935
58.9579
61.7225
64.5893
67.56
70.636
73.8188
77.1093
80.5084
84.0164
87.6336
91.3597
95.1941
99.1361
103.184
107.337
111.592
115.947
120.399
124.945
129.582
134.304
139.11
143.993
148.949
153.973
159.06
164.205
169.402
174.645
179.928
185.246
190.59
195.956
201.335
206.722
212.091
217.429
222.731
227.986
233.188
238.325
243.389
248.371
253.259
258.046
262.721
267.276
271.701
275.988
280.128
284.113
287.936
291.589
295.064
298.356
301.457
304.363
307.066
309.562
311.846
313.916
315.768
317.4
318.809
319.994
320.955
321.69
322.199
322.484
322.545
322.385
322.007
321.411
320.602
319.584
318.362
316.941
315.326
313.521
311.528
309.361
307.028
304.534
301.884
299.083
296.146
293.08
289.89
286.584
283.172
279.663
276.064
272.384
268.63
264.812
260.937
257.014
253.05
249.054
245.033
240.994
236.946
232.897
228.855
224.829
220.829
216.862
212.934
209.053
205.224
201.457
197.762
194.154
190.65
187.275
184.056
181.031
178.208
175.626
6.27921
2.84278
2.24776
2.10361
2.10551
2.17791
2.29392
2.44167
2.6151
2.81074
3.02645
3.26079
3.51276
3.78172
4.0673
4.36938
4.68808
5.02373
5.37687
5.74821
6.13862
6.54914
6.98095
7.43532
7.91368
8.41753
8.94847
9.50818
10.0984
10.721
11.3778
12.0708
12.8019
13.573
14.3862
15.2435
16.1469
17.0984
18.1002
19.1542
20.2626
21.4276
22.6515
23.9366
25.2853
26.7002
28.1839
29.739
31.3684
33.075
34.8618
36.7318
38.6883
40.7343
42.8732
45.1081
47.4423
49.8788
52.4209
55.0716
57.8337
60.7099
63.703
66.8153
70.049
73.406
76.8879
80.4961
84.2316
88.0948
92.0861
96.2052
100.451
104.823
109.32
113.939
118.677
123.533
128.502
133.58
138.763
144.047
149.425
154.894
160.446
166.076
171.779
177.547
183.374
189.253
195.178
201.14
207.132
213.146
219.173
225.198
231.189
237.141
243.046
248.893
254.673
260.375
265.989
271.504
276.908
282.191
287.342
292.351
297.209
301.906
306.432
310.779
314.939
318.903
322.663
326.214
329.547
332.657
335.538
338.183
340.588
342.751
344.668
346.337
347.756
348.925
349.842
350.508
350.922
351.087
351.003
350.674
350.104
349.294
348.249
346.972
345.474
343.759
341.832
339.699
337.367
334.844
332.141
329.264
326.22
323.018
319.668
316.179
312.56
308.819
304.966
301.01
296.961
292.827
288.618
284.343
280.01
275.629
271.208
266.756
262.28
257.79
253.293
248.797
244.312
239.846
235.408
231.007
226.65
222.345
218.1
213.925
209.832
205.835
201.953
198.206
194.621
191.226
188.021
185.04
6.57153
2.9825
2.34596
2.18294
2.17305
2.23628
2.34395
2.48337
2.64806
2.83439
3.04017
3.26399
3.50495
3.76248
4.03633
4.32645
4.63303
4.95648
5.29737
5.65647
6.03467
6.43305
6.85279
7.29523
7.76179
8.25404
8.77361
9.32226
9.90182
10.5142
11.1614
11.8456
12.5687
13.3332
14.1411
14.995
15.897
16.8498
17.8558
18.9176
20.0378
21.2193
22.4648
23.7774
25.16
26.6159
28.1484
29.7608
31.4566
33.2396
35.1135
37.082
39.1492
41.3189
43.5952
45.9821
48.4834
51.1032
53.8453
56.7132
59.7106
62.8406
66.1064
69.511
73.0568
76.7461
80.5809
84.5626
88.6922
92.9704
97.3971
101.972
106.694
111.562
116.573
121.725
127.015
132.439
137.993
143.671
149.469
155.381
161.399
167.518
173.731
180.03
186.409
192.86
199.376
205.949
212.569
219.23
225.921
232.634
239.357
246.045
252.69
259.283
265.816
272.275
278.651
284.932
291.106
297.161
303.082
308.859
314.481
319.936
325.214
330.305
335.199
339.887
344.359
348.608
352.624
356.401
359.933
363.214
366.234
368.989
371.475
373.688
375.628
377.29
378.675
379.782
380.61
381.16
381.432
381.428
381.152
380.608
379.799
378.73
377.405
375.83
374.014
371.963
369.683
367.182
364.468
361.55
358.438
355.14
351.665
348.023
344.224
340.279
336.196
331.986
327.659
323.226
318.696
314.079
309.385
304.625
299.807
294.942
290.038
285.104
280.151
275.185
270.217
265.254
260.305
255.38
250.486
245.634
240.833
236.089
231.414
226.817
222.311
217.911
213.634
209.501
205.533
201.753
198.155
194.773
6.7669
3.0823
2.41362
2.23415
2.21291
2.26662
2.3653
2.49561
2.6508
2.82712
3.02233
3.23508
3.46452
3.71017
3.97185
4.24961
4.5437
4.85457
5.18286
5.52934
5.89499
6.28088
6.68826
7.11849
7.57306
8.05359
8.5618
9.09955
9.6688
10.2716
10.9102
11.5869
12.3041
13.0642
13.87
14.7242
15.6296
16.5891
17.6059
18.683
19.8239
21.0319
22.3106
23.6636
25.0949
26.6083
28.208
29.8981
31.683
33.5673
35.5556
37.6525
39.8629
42.1916
44.6434
47.2233
49.9358
52.7859
55.7778
58.916
62.2045
65.6468
69.2467
73.0072
76.9312
81.0212
85.2791
89.7063
94.3038
99.0717
104.01
109.117
114.393
119.833
125.436
131.199
137.116
143.183
149.395
155.746
162.23
168.838
175.563
182.396
189.33
196.356
203.467
210.653
217.907
225.219
232.58
239.981
247.412
254.861
262.275
269.641
276.949
284.188
291.347
298.413
305.375
312.22
318.936
325.508
331.92
338.16
344.217
350.08
355.737
361.178
366.392
371.37
376.103
380.582
384.798
388.745
392.416
395.808
398.91
401.712
404.216
406.418
408.316
409.91
411.198
412.18
412.858
413.232
413.303
413.076
412.553
411.739
410.639
409.259
407.605
405.683
403.501
401.068
398.391
395.479
392.341
388.987
385.427
381.671
377.73
373.613
369.333
364.899
360.323
355.616
350.788
345.852
340.817
335.694
330.494
325.228
319.905
314.537
309.133
303.702
298.255
292.799
287.345
281.902
276.477
271.081
265.722
260.411
255.156
249.966
244.853
239.827
234.9
230.088
225.408
220.878
216.517
212.344
208.349
204.568
6.87661
3.14615
2.45401
2.26057
2.2286
2.27273
2.36205
2.48284
2.62814
2.79415
2.97862
3.18024
3.39822
3.63217
3.88195
4.14769
4.4297
4.72849
5.04474
5.3793
5.73316
6.10748
6.50356
6.92284
7.36692
7.83753
8.33653
8.86597
9.42799
10.0249
10.6593
11.3336
12.0508
12.8138
13.6256
14.4895
15.4089
16.3875
17.4289
18.5372
19.7164
20.9707
22.3047
23.7228
25.2299
26.8309
28.5306
30.3344
32.2476
34.2757
36.4244
38.6992
41.1061
43.6506
46.3387
49.1759
52.1678
55.32
58.6376
62.1254
65.7874
69.6274
73.6491
77.8557
82.2501
86.8346
91.6107
96.5796
101.741
107.096
112.642
118.377
124.3
130.406
136.691
143.151
149.78
156.572
163.521
170.619
177.859
185.232
192.725
200.329
208.036
215.836
223.721
231.681
239.706
247.788
255.915
264.078
272.266
280.417
288.509
296.533
304.478
312.332
320.08
327.711
335.21
342.566
349.767
356.8
363.637
370.271
376.69
382.884
388.841
394.551
400.004
405.188
410.096
414.718
419.046
423.074
426.796
430.205
433.295
436.06
438.498
440.606
442.383
443.828
444.942
445.724
446.177
446.302
446.103
445.583
444.747
443.6
442.149
440.399
438.357
436.033
433.434
430.569
427.448
424.08
420.476
416.646
412.601
408.353
403.912
399.291
394.5
389.553
384.46
379.233
373.884
368.426
362.869
357.225
351.505
345.721
339.883
334.002
328.089
322.154
316.206
310.255
304.311
298.382
292.479
286.61
280.785
275.013
269.304
263.669
258.117
252.661
247.313
242.089
237.003
232.075
227.319
222.752
218.361
214.187
6.91468
3.17901
2.47105
2.26611
2.22431
2.25912
2.33915
2.45047
2.58603
2.742
2.9162
3.10734
3.31469
3.53794
3.77702
4.03211
4.30361
4.59208
4.8983
5.22318
5.56783
5.9335
6.32164
6.73384
7.17186
7.63767
8.13337
8.66129
9.22392
9.82397
10.4644
11.1482
11.8788
12.6597
13.4948
14.3879
15.3433
16.3653
17.4588
18.6285
19.8796
21.2176
22.648
24.1765
25.8091
27.5516
29.4101
31.3909
33.5007
35.7459
38.1333
40.6696
43.3615
46.2156
49.2384
52.4364
55.8158
59.3827
63.1427
67.1012
71.2613
75.6254
80.1969
84.9788
89.9734
95.1823
100.606
106.245
112.097
118.162
124.436
130.916
137.598
144.476
151.545
158.799
166.229
173.828
181.588
189.501
197.559
205.758
214.066
222.48
230.99
239.588
248.264
257.009
265.811
274.662
283.55
292.463
301.324
310.115
318.823
327.437
335.943
344.328
352.577
360.677
368.614
376.375
383.945
391.311
398.455
405.365
412.028
418.433
424.57
430.427
435.994
441.262
446.222
450.866
455.186
459.176
462.83
466.142
469.108
471.723
473.985
475.892
477.444
478.64
479.481
479.969
480.106
479.895
479.341
478.448
477.222
475.669
473.795
471.61
469.119
466.334
463.263
459.915
456.303
452.435
448.324
443.98
439.417
434.645
429.677
424.526
419.203
413.722
408.095
402.334
396.453
390.463
384.376
378.205
371.961
365.657
359.303
352.911
346.49
340.053
333.609
327.168
320.739
314.332
307.957
301.623
295.339
289.115
282.962
276.889
270.908
265.03
259.269
253.639
248.155
242.833
237.689
232.735
227.957
223.4
6.89752
3.18642
2.46909
2.25514
2.20477
2.23107
2.30253
2.40514
2.53192
2.67906
2.84445
3.02686
3.22566
3.44058
3.67168
3.91922
4.1837
4.46583
4.76651
5.08682
5.42807
5.79173
6.1795
6.59326
7.03513
7.50743
8.01273
8.55384
9.13381
9.75598
10.4239
11.1415
11.913
12.7428
13.6358
14.5969
15.6313
16.7447
17.943
19.2326
20.62
22.1121
23.7161
25.4395
27.2898
29.2733
31.3971
33.669
36.0968
38.6882
41.4509
44.3924
47.52
50.8408
54.3615
58.0888
62.0287
66.1873
70.5709
75.187
80.034
85.108
90.4137
95.9535
101.728
107.737
113.979
120.452
127.152
134.077
141.22
148.577
156.14
163.902
171.856
179.992
188.3
196.772
205.396
214.163
223.062
232.082
241.207
250.424
259.725
269.099
278.536
288.026
297.56
307.133
316.704
326.199
335.607
344.914
354.106
363.169
372.09
380.854
389.446
397.854
406.063
414.059
421.829
429.36
436.636
443.646
450.377
456.819
462.96
468.791
474.301
479.484
484.329
488.831
492.981
496.775
500.207
503.273
505.97
508.293
510.242
511.816
513.014
513.838
514.289
514.371
514.085
513.438
512.432
511.075
509.373
507.333
504.963
502.271
499.267
495.961
492.362
488.482
484.333
479.924
475.269
470.38
465.27
459.95
454.435
448.737
442.869
436.844
430.676
424.378
417.962
411.442
404.829
398.137
391.377
384.562
377.703
370.811
363.898
356.974
350.05
343.135
336.239
329.372
322.544
315.763
309.04
302.383
295.805
289.314
282.921
276.64
270.482
264.462
258.595
252.896
247.377
242.051
236.903
231.98
6.84085
3.17381
2.45231
2.23192
2.17469
2.194
2.25847
2.35424
2.47443
2.61537
2.77503
2.95234
3.14676
3.3582
3.58686
3.8332
4.09796
4.38209
4.68682
5.01357
5.36405
5.74021
6.14425
6.57866
7.04622
7.55001
8.09342
8.68019
9.31443
10.0006
10.7434
11.548
12.4202
13.3662
14.3925
15.5059
16.7126
18.0202
19.4366
20.9701
22.6294
24.4234
26.3616
28.4542
30.7131
33.1402
35.7434
38.5326
41.5167
44.7041
48.1025
51.7193
55.5612
59.6344
63.9445
68.4963
73.2943
78.3419
83.6421
89.1969
95.0053
101.065
107.375
113.933
120.737
127.782
135.065
142.579
150.319
158.277
166.446
174.816
183.379
192.124
201.042
210.121
219.351
228.719
238.214
247.824
257.538
267.343
277.227
287.179
297.187
307.243
317.337
327.464
337.606
347.682
357.656
367.516
377.248
386.839
396.274
405.54
414.624
423.511
432.189
440.643
448.862
456.832
464.541
471.977
479.126
485.978
492.521
498.746
504.643
510.203
515.417
520.279
524.78
528.915
532.677
536.064
539.069
541.691
543.926
545.773
547.231
548.301
548.983
549.279
549.192
548.726
547.884
546.673
545.097
543.165
540.882
538.258
535.301
532.02
528.425
524.528
520.338
515.868
511.129
506.134
500.895
495.425
489.738
483.846
477.763
471.503
465.078
458.502
451.79
444.953
438.006
430.961
423.832
416.629
409.367
402.057
394.711
387.339
379.954
372.565
365.183
357.818
350.48
343.179
335.922
328.721
321.584
314.521
307.543
300.659
293.881
287.22
280.689
274.301
268.072
262.015
256.142
250.465
244.967
239.701
6.77656
3.15092
2.42905
2.20589
2.14546
2.16173
2.22366
2.31768
2.43712
2.57853
2.7401
2.92096
3.12088
3.34005
3.57907
3.83884
4.12062
4.42597
4.7568
5.11533
5.50416
5.92625
6.38497
6.88407
7.42775
8.0207
8.66794
9.37515
10.1487
10.9955
11.9218
12.9352
14.0444
15.2589
16.5895
18.047
19.6345
21.364
23.2467
25.2936
27.5156
29.9234
32.5278
35.3393
38.3676
41.6199
45.1038
48.8267
52.7956
57.0165
61.4944
66.2334
71.2364
76.5055
82.0418
87.8453
93.9152
100.25
106.846
113.701
120.809
128.164
135.76
143.59
151.646
159.921
168.405
177.09
185.967
195.025
204.254
213.643
223.181
232.857
242.659
252.576
262.597
272.709
282.902
293.164
303.486
313.855
324.262
334.701
345.158
355.635
366.114
376.514
386.786
396.926
406.923
416.761
426.429
435.913
445.202
454.283
463.143
471.772
480.156
488.284
496.145
503.728
511.022
518.015
524.698
531.061
537.094
542.789
548.137
553.131
557.764
562.03
565.922
569.437
572.568
575.314
577.67
579.636
581.209
582.389
583.177
583.573
583.579
583.199
582.436
581.293
579.777
577.894
575.649
573.051
570.107
566.826
563.218
559.292
555.06
550.531
545.718
540.632
535.286
529.693
523.864
517.814
511.555
505.102
498.467
491.664
484.707
477.609
470.384
463.044
455.604
448.076
440.472
432.806
425.088
417.332
409.548
401.748
393.942
386.142
378.356
370.594
362.867
355.184
347.552
339.983
332.484
325.065
317.736
310.507
303.39
296.394
289.534
282.821
276.271
269.895
263.705
257.713
251.902
246.329
6.7272
3.12641
2.40795
2.18735
2.12977
2.14992
2.21729
2.31872
2.44794
2.60187
2.77914
2.97943
3.20311
3.45115
3.72501
4.02666
4.35854
4.72361
5.12537
5.56791
6.05583
6.59447
7.18985
7.84839
8.5777
9.38627
10.2818
11.274
12.3747
13.5986
14.9491
16.4393
18.0831
19.8942
21.8863
24.0724
26.4634
29.0718
31.9098
34.9887
38.3191
41.9103
45.7705
49.9065
54.3235
59.0246
64.0115
69.2849
74.844
80.6869
86.8103
93.2099
99.8802
106.815
114.007
121.448
129.13
137.045
145.182
153.532
162.086
170.832
179.76
188.86
198.122
207.535
217.088
226.772
236.575
246.489
256.502
266.605
276.787
287.039
297.351
307.713
318.117
328.554
339.016
349.493
359.983
370.474
380.955
391.452
401.911
412.259
422.454
432.501
442.385
452.098
461.627
470.964
480.096
489.014
497.706
506.163
514.375
522.33
530.02
537.433
544.562
551.395
557.925
564.142
570.037
575.603
580.831
585.714
590.246
594.419
598.229