/*--------------------------------*- C++ -*----------------------------------*\
  =========                 |
  \\      /  F ield         | OpenFOAM: The Open Source CFD Toolbox
   \\    /   O peration     | Website:  https://openfoam.org
    \\  /    A nd           | Version:  12
     \\/     M anipulation  |
\*---------------------------------------------------------------------------*/
FoamFile
{
    format      ascii;
    class       volScalarField;
    location    "0.3";
    object      k;
}
// * * * * * * * * * * * * * * * * * * * * * * * * * * * * * * * * * * * * * //

dimensions      [0 2 -2 0 0 0 0];

internalField   nonuniform List<scalar> 
12225
(
0.353921
0.335043
0.316966
0.300961
0.288125
0.278906
0.273297
0.271001
0.271563
0.274465
0.279194
0.28528
0.292317
0.299968
0.307978
0.316133
0.324475
0.336553
0.436864
0.448979
0.438084
0.43306
0.438785
0.453582
0.474794
0.49997
0.527124
0.554769
0.581877
0.607782
0.632107
0.654673
0.675587
0.694743
0.714203
0.72949
0.395187
0.410874
0.410631
0.405747
0.40201
0.400923
0.402613
0.406805
0.413078
0.420973
0.430056
0.439949
0.450339
0.460983
0.471739
0.482496
0.493534
0.504223
0.379641
0.38484
0.386546
0.38573
0.383905
0.382026
0.380567
0.379738
0.379605
0.380146
0.381298
0.382981
0.385112
0.387614
0.390435
0.393539
0.396944
0.400547
0.374976
0.3759
0.376239
0.375721
0.37457
0.373084
0.371496
0.369967
0.368593
0.367426
0.366484
0.365767
0.365266
0.364965
0.364852
0.364916
0.365153
0.365532
0.373488
0.372555
0.371759
0.370807
0.369631
0.368275
0.366809
0.3653
0.363804
0.362358
0.36099
0.359714
0.358537
0.357461
0.356487
0.355615
0.354843
0.354165
0.373012
0.371296
0.369813
0.368416
0.367025
0.36561
0.364169
0.362712
0.361258
0.359824
0.358426
0.357073
0.355774
0.354533
0.353354
0.35224
0.351191
0.350215
0.372865
0.370838
0.369004
0.367311
0.365711
0.364174
0.362679
0.361216
0.359783
0.358382
0.357015
0.355688
0.354402
0.353162
0.351968
0.350823
0.349729
0.348697
0.37282
0.37068
0.368691
0.366836
0.365095
0.363449
0.36188
0.360376
0.358928
0.357532
0.356183
0.35488
0.353622
0.35241
0.351242
0.350119
0.349042
0.348023
0.372806
0.370628
0.368578
0.366648
0.364829
0.36311
0.361482
0.359934
0.358457
0.357046
0.355694
0.354397
0.353153
0.351959
0.350812
0.349713
0.34866
0.347664
0.372801
0.370609
0.368537
0.366576
0.36472
0.362964
0.361299
0.359719
0.358216
0.356785
0.355421
0.354118
0.352874
0.351685
0.350548
0.34946
0.348421
0.34744
0.372799
0.370602
0.368522
0.36655
0.36468
0.362907
0.361225
0.359627
0.358109
0.356664
0.355289
0.353978
0.352729
0.351537
0.3504
0.349315
0.34828
0.347304
0.372797
0.370599
0.368514
0.366537
0.364661
0.36288
0.361188
0.359581
0.358053
0.3566
0.355216
0.353899
0.352644
0.351448
0.350308
0.349221
0.348185
0.34721
0.372796
0.370596
0.368509
0.366528
0.364649
0.362864
0.361168
0.359555
0.358022
0.356563
0.355174
0.353852
0.352592
0.351392
0.350248
0.349157
0.348119
0.347141
0.372795
0.370593
0.368505
0.366523
0.364641
0.362853
0.361154
0.359539
0.358003
0.35654
0.355148
0.353823
0.35256
0.351357
0.35021
0.349116
0.348075
0.347094
0.372794
0.370592
0.368502
0.366518
0.364634
0.362845
0.361145
0.359527
0.357989
0.356525
0.355131
0.353803
0.352538
0.351333
0.350184
0.349088
0.348044
0.347061
0.372794
0.37059
0.368499
0.366515
0.36463
0.362839
0.361137
0.359519
0.357979
0.356514
0.355118
0.353789
0.352523
0.351316
0.350165
0.349067
0.348021
0.347037
0.372794
0.370589
0.368498
0.366512
0.364627
0.362835
0.361132
0.359513
0.357972
0.356506
0.355109
0.353779
0.352511
0.351303
0.350151
0.349052
0.348005
0.347019
0.372793
0.370589
0.368497
0.366512
0.364626
0.362834
0.361131
0.359511
0.357969
0.356502
0.355105
0.353774
0.352506
0.351297
0.350144
0.349044
0.347996
0.34701
0.372794
0.37059
0.368498
0.366513
0.364628
0.362836
0.361133
0.359514
0.357973
0.356506
0.355109
0.353779
0.352511
0.351302
0.350149
0.349049
0.348001
0.347015
0.372794
0.370591
0.3685
0.366516
0.364632
0.362841
0.36114
0.359522
0.357982
0.356517
0.355122
0.353793
0.352526
0.351319
0.350167
0.349069
0.348022
0.347037
0.372795
0.370593
0.368504
0.366522
0.364641
0.362855
0.361158
0.359546
0.358012
0.356552
0.355163
0.353839
0.352578
0.351375
0.350228
0.349134
0.348091
0.347108
0.372796
0.370598
0.368518
0.366547
0.364681
0.362912
0.361235
0.359641
0.358127
0.356685
0.355311
0.354001
0.35275
0.351556
0.350415
0.349324
0.348281
0.347298
0.372804
0.370631
0.368592
0.366676
0.364872
0.363166
0.361548
0.360006
0.358532
0.35712
0.355767
0.354467
0.353219
0.352019
0.350867
0.349761
0.348701
0.347697
0.372856
0.370818
0.368973
0.367264
0.365645
0.364085
0.362567
0.361083
0.359631
0.358213
0.356832
0.355493
0.354196
0.352946
0.351743
0.35059
0.349486
0.348445
0.373166
0.37177
0.370579
0.369371
0.368049
0.366605
0.365072
0.363492
0.361905
0.360342
0.358826
0.357372
0.355991
0.354688
0.353468
0.352329
0.351272
0.350303
0.374797
0.375829
0.376175
0.375401
0.373834
0.371876
0.369792
0.36774
0.365814
0.364067
0.362524
0.361195
0.360076
0.359157
0.358425
0.357864
0.357457
0.35719
0.382729
0.39167
0.392375
0.388805
0.384384
0.380403
0.377247
0.374998
0.373621
0.373039
0.373154
0.373867
0.375085
0.376718
0.378687
0.380924
0.383367
0.385947
0.407499
0.414514
0.405423
0.395992
0.390555
0.389292
0.391457
0.396217
0.402839
0.410729
0.419438
0.428624
0.438035
0.44748
0.456825
0.465975
0.474885
0.483468
0.360554
0.347547
0.334933
0.322917
0.311965
0.302353
0.29419
0.287471
0.282116
0.278005
0.275002
0.272968
0.271768
0.271277
0.27138
0.271977
0.27298
0.274307
0.000649438
0.00371428
0.00617723
0.0083325
0.0104951
0.013088
0.0161043
0.0196388
0.0237956
0.0286005
0.0336824
0.0390581
0.0446903
0.0505285
0.0565212
0.0626197
0.0687784
0.0749547
0.0811081
0.0871999
0.0931921
0.0990471
0.104727
0.110194
0.115411
0.120338
0.124936
0.129161
0.13296
0.13627
0.13901
0.141107
0.142532
0.143357
0.14376
0.143942
0.144026
0.14381
0.14084
0.141995
0.143361
0.146242
0.145629
0.147513
0.150358
0.157145
0.164331
0.171771
0.179424
0.187273
0.195305
0.203513
0.211891
0.220434
0.22914
0.238006
0.247029
0.256206
0.265534
0.275011
0.284632
0.294395
0.304295
0.314328
0.324489
0.334774
0.345177
0.355691
0.366312
0.377032
0.387845
0.398744
0.40972
0.420767
0.431876
0.443039
0.454248
0.465494
0.476768
0.488061
0.499364
0.510669
0.521965
0.533243
0.544494
0.555709
0.566878
0.577991
0.589038
0.600009
0.610895
0.621685
0.632369
0.642937
0.653379
0.663687
0.673857
0.683889
0.693797
0.703615
0.71332
0.722802
0.732063
0.7411
0.749906
0.75847
0.766781
0.774828
0.782601
0.790088
0.79728
0.804167
0.81074
0.816989
0.822907
0.828486
0.833717
0.838594
0.843111
0.847263
0.851043
0.854447
0.857472
0.860114
0.86237
0.864239
0.865719
0.866809
0.867509
0.86782
0.867743
0.86728
0.866434
0.865208
0.863607
0.861635
0.859296
0.856598
0.853547
0.850149
0.846414
0.842348
0.837961
0.833263
0.828263
0.822971
0.817399
0.811558
0.805458
0.799112
0.792533
0.785732
0.778723
0.771518
0.76413
0.756571
0.748859
0.741003
0.733018
0.72492
0.716707
0.708428
0.700055
0.691653
0.683299
0.675811
0.671849
0.668434
0.66503
0.661611
0.658175
0.654723
0.651246
0.647726
0.644115
0.640314
0.63609
0.630844
0.623102
0.606352
0.00251621
0.0107143
0.0162005
0.0205669
0.0246802
0.02873
0.0329328
0.0374582
0.0423762
0.047682
0.0533167
0.0592296
0.0653723
0.0716998
0.0781704
0.0847461
0.0913921
0.0980762
0.104769
0.111441
0.118068
0.124623
0.131085
0.137433
0.143649
0.149717
0.155622
0.161351
0.166886
0.172209
0.177306
0.182197
0.186967
0.191798
0.196921
0.202466
0.208427
0.214972
0.222975
0.231615
0.240489
0.24946
0.260357
0.271837
0.283939
0.295869
0.307829
0.320208
0.332982
0.346123
0.359611
0.373434
0.387584
0.402056
0.416848
0.431957
0.447381
0.463118
0.479166
0.495523
0.512186
0.529151
0.546415
0.563974
0.581823
0.599956
0.618367
0.63705
0.655996
0.675198
0.694646
0.714332
0.734244
0.754372
0.774704
0.795228
0.815932
0.836803
0.857826
0.878989
0.900276
0.921674
0.943166
0.964738
0.986374
1.00806
1.02978
1.05151
1.07324
1.09496
1.11665
1.13828
1.15985
1.18134
1.20272
1.22398
1.2451
1.26605
1.28683
1.30733
1.32739
1.34715
1.36662
1.38579
1.40464
1.42314
1.44129
1.45904
1.47639
1.4933
1.50976
1.52576
1.54126
1.55625
1.57071
1.58462
1.59797
1.61073
1.6229
1.63445
1.64538
1.65566
1.6653
1.67427
1.68258
1.6902
1.69713
1.70337
1.70891
1.71374
1.71787
1.72128
1.72399
1.72599
1.72729
1.72788
1.72778
1.72698
1.7255
1.72334
1.72051
1.71703
1.7129
1.70815
1.70277
1.69679
1.69023
1.6831
1.67542
1.66721
1.65848
1.64927
1.63958
1.62945
1.61889
1.60792
1.59658
1.58488
1.57286
1.56053
1.54789
1.53505
1.5219
1.50862
1.49529
1.48205
1.46937
1.45678
1.44415
1.43147
1.41875
1.40602
1.39328
1.38052
1.36774
1.35489
1.34182
1.3284
1.3134
1.29397
0.00505316
0.0178144
0.0253171
0.0310741
0.0361471
0.0410576
0.0460652
0.0513145
0.0568729
0.0627521
0.0689285
0.0753648
0.0820204
0.0888566
0.0958387
0.102936
0.110123
0.117376
0.124676
0.132005
0.139349
0.146698
0.154045
0.161385
0.168721
0.176058
0.18341
0.190792
0.198229
0.205753
0.213414
0.221287
0.229479
0.238116
0.247302
0.257054
0.267332
0.278192
0.289816
0.302144
0.315084
0.328587
0.342771
0.357593
0.372841
0.38838
0.404259
0.420563
0.43731
0.454489
0.472092
0.49011
0.508535
0.527363
0.546588
0.566206
0.586215
0.606611
0.62739
0.648548
0.670081
0.691985
0.714253
0.736881
0.759862
0.783188
0.806851
0.830842
0.855152
0.879769
0.904683
0.929882
0.955351
0.981079
1.00705
1.03325
1.05966
1.08626
1.11305
1.14
1.16708
1.1943
1.22162
1.24902
1.2765
1.30402
1.33157
1.35912
1.38667
1.41418
1.44163
1.46901
1.4963
1.52348
1.55051
1.5774
1.60411
1.63063
1.65693
1.68286
1.70845
1.73368
1.75855
1.78304
1.80712
1.83076
1.85393
1.87661
1.89875
1.92035
1.94137
1.96178
1.98156
2.00068
2.01912
2.03685
2.05386
2.07012
2.0856
2.10031
2.1142
2.12727
2.13951
2.15089
2.16141
2.17106
2.17982
2.18769
2.19465
2.20072
2.20587
2.21011
2.21345
2.21587
2.21739
2.21801
2.21773
2.21656
2.21451
2.2116
2.20783
2.20322
2.19778
2.19154
2.1845
2.17669
2.16813
2.15884
2.14884
2.13817
2.12683
2.11487
2.1023
2.08916
2.07547
2.06125
2.04657
2.03141
2.01583
1.99989
1.98349
1.96689
1.95002
1.93294
1.91572
1.89849
1.88146
1.86447
1.84742
1.83034
1.81322
1.79611
1.77902
1.76198
1.745
1.72812
1.71131
1.69463
1.67755
1.65966
0.00811238
0.0246145
0.0338209
0.0405339
0.0463949
0.0519851
0.0575899
0.0633669
0.0693967
0.0757085
0.0822973
0.0891402
0.0962065
0.103465
0.110887
0.118448
0.126128
0.133912
0.141788
0.149748
0.157788
0.165908
0.174112
0.182409
0.190815
0.199349
0.208038
0.216915
0.226018
0.235397
0.245108
0.255223
0.265817
0.276965
0.288719
0.301092
0.314079
0.327703
0.34201
0.356996
0.372617
0.388832
0.405632
0.42299
0.440838
0.459125
0.477847
0.497022
0.516662
0.536768
0.557339
0.578373
0.599865
0.621815
0.644218
0.667071
0.690373
0.714121
0.73831
0.762938
0.788001
0.813494
0.839412
0.865749
0.892498
0.919652
0.9472
0.975135
1.00345
1.03212
1.06114
1.09051
1.12019
1.15018
1.18047
1.21102
1.24183
1.27287
1.30413
1.33559
1.36721
1.39899
1.4309
1.46291
1.49501
1.52716
1.55935
1.59156
1.62375
1.6559
1.688
1.72001
1.75191
1.78369
1.81531
1.84676
1.878
1.90903
1.93976
1.9701
2.00006
2.02961
2.05874
2.08742
2.1156
2.14326
2.17037
2.19688
2.22277
2.248
2.27255
2.29637
2.31944
2.34174
2.36322
2.38386
2.40364
2.42254
2.44052
2.45756
2.47365
2.48877
2.50289
2.51601
2.5281
2.53915
2.54916
2.55812
2.56601
2.57283
2.57858
2.58326
2.58686
2.58939
2.59086
2.59126
2.59061
2.58891
2.58618
2.58243
2.57768
2.57193
2.56522
2.55756
2.54897
2.53948
2.52911
2.51788
2.50583
2.49298
2.47937
2.46502
2.44995
2.43423
2.41787
2.40088
2.38336
2.36528
2.3467
2.32774
2.30835
2.28866
2.26865
2.24839
2.22795
2.20743
2.18695
2.16646
2.14592
2.12535
2.10477
2.08421
2.06373
2.04336
2.02318
2.00326
1.98369
1.9647
1.9461
1.92806
0.0111989
0.0309551
0.0414722
0.0490891
0.0556537
0.0618207
0.0679099
0.0740994
0.0804876
0.0871213
0.0940131
0.101155
0.108526
0.116106
0.123873
0.131806
0.139894
0.148125
0.156494
0.165001
0.173648
0.182444
0.1914
0.200536
0.209873
0.219441
0.229272
0.239407
0.249888
0.260766
0.272093
0.283926
0.29632
0.309323
0.322968
0.337267
0.352221
0.367831
0.384107
0.401039
0.418606
0.43678
0.455542
0.47487
0.494734
0.51511
0.535989
0.557372
0.579263
0.601665
0.62458
0.648007
0.671947
0.6964
0.721365
0.746841
0.772828
0.799323
0.826326
0.853832
0.881841
0.910347
0.939346
0.968832
0.9988
1.02924
1.06015
1.0915
1.12331
1.15554
1.18819
1.22124
1.25468
1.28849
1.32264
1.35713
1.39192
1.427
1.46234
1.49791
1.53371
1.56968
1.60582
1.6421
1.67848
1.71494
1.75145
1.78799
1.82452
1.86103
1.89747
1.93382
1.97006
2.00615
2.04208
2.0778
2.1133
2.14855
2.1834
2.21783
2.25183
2.28538
2.31843
2.35096
2.38293
2.41429
2.44501
2.47504
2.50436
2.53292
2.56068
2.58762
2.61368
2.63885
2.66309
2.68636
2.70864
2.72989
2.7501
2.76923
2.78726
2.80417
2.81995
2.83456
2.84801
2.86026
2.87132
2.88117
2.88981
2.89722
2.90341
2.90837
2.91211
2.91462
2.91592
2.91601
2.91489
2.9126
2.90912
2.90449
2.89871
2.89182
2.88383
2.87476
2.86465
2.8535
2.84137
2.82827
2.81424
2.7993
2.78351
2.76689
2.74945
2.73128
2.71241
2.69278
2.6726
2.65185
2.63056
2.60881
2.5866
2.56402
2.5411
2.51788
2.49444
2.47086
2.44724
2.42356
2.39983
2.37608
2.35234
2.32866
2.3051
2.28174
2.25867
2.23604
2.21401
2.19288
2.17262
2.1534
0.0141063
0.0364362
0.0482073
0.0566656
0.0638692
0.0705448
0.0770464
0.0835735
0.0902427
0.0971177
0.104228
0.111579
0.119164
0.126971
0.134986
0.143196
0.151593
0.160172
0.168933
0.177881
0.187024
0.196375
0.205955
0.215785
0.225894
0.236314
0.247082
0.258238
0.269826
0.281891
0.294478
0.307632
0.321392
0.335792
0.350854
0.366589
0.382997
0.400076
0.417822
0.436227
0.455276
0.474954
0.495244
0.516131
0.537601
0.559641
0.582243
0.605407
0.629132
0.653424
0.678283
0.703714
0.729718
0.756298
0.783456
0.811193
0.839509
0.868406
0.897883
0.92794
0.958574
0.989784
1.02156
1.05391
1.08682
1.12028
1.15429
1.18883
1.22389
1.25947
1.29553
1.33208
1.36908
1.40653
1.44439
1.48265
1.52128
1.56026
1.59956
1.63915
1.67899
1.71908
1.75936
1.79981
1.8404
1.88109
1.92186
1.96267
2.00348
2.04427
2.08501
2.12565
2.16616
2.20652
2.24669
2.28664
2.32632
2.36569
2.4046
2.44305
2.48102
2.51846
2.55535
2.59164
2.62729
2.66225
2.69648
2.72993
2.76257
2.79435
2.82522
2.85515
2.8841
2.91203
2.9389
2.96468
2.98934
3.01284
3.03515
3.05625
3.0761
3.09469
3.112
3.128
3.14268
3.15603
3.16803
3.17867
3.18794
3.19584
3.20237
3.20752
3.21129
3.21371
3.21476
3.21445
3.21281
3.20984
3.20557
3.2
3.19316
3.18507
3.17577
3.16527
3.1536
3.14079
3.12689
3.11192
3.09591
3.0789
3.06095
3.04209
3.0223
3.00173
2.9804
2.95831
2.93558
2.91221
2.88826
2.86379
2.83883
2.81345
2.78768
2.7616
2.73525
2.70872
2.68207
2.65535
2.62857
2.60178
2.57502
2.54835
2.52186
2.49564
2.46983
2.4446
2.42018
2.39686
2.37466
2.35368
0.0166148
0.0411574
0.0540147
0.0632137
0.0709804
0.0780994
0.0849529
0.0917587
0.0986489
0.105703
0.112964
0.120452
0.128174
0.136126
0.144303
0.1527
0.161313
0.170143
0.179195
0.188477
0.198003
0.207791
0.217863
0.228245
0.238968
0.250066
0.261575
0.273535
0.285986
0.298965
0.312513
0.326663
0.341447
0.356889
0.373006
0.389807
0.407294
0.425466
0.444318
0.463845
0.484037
0.504885
0.52638
0.548514
0.571279
0.594668
0.618678
0.643311
0.668567
0.694451
0.720967
0.74812
0.775916
0.804358
0.833451
0.8632
0.893606
0.924674
0.956405
0.988799
1.02186
1.05558
1.08996
1.125
1.16069
1.19702
1.23399
1.27159
1.30979
1.3486
1.38799
1.42795
1.46845
1.50947
1.55099
1.59298
1.63542
1.67827
1.7215
1.76509
1.80899
1.85317
1.8976
1.94224
1.98705
2.032
2.07704
2.12214
2.16726
2.21236
2.2574
2.30235
2.34717
2.39181
2.43624
2.48043
2.52432
2.56778
2.61075
2.65321
2.69512
2.73644
2.77714
2.81716
2.85646
2.89498
2.93268
2.96951
3.00542
3.04036
3.07428
3.10715
3.13891
3.16953
3.19897
3.22719
3.25414
3.27981
3.30414
3.32712
3.34871
3.36889
3.38764
3.40494
3.42077
3.43511
3.44796
3.4593
3.46912
3.47743
3.48421
3.48946
3.4932
3.49543
3.49616
3.4954
3.49316
3.48946
3.48432
3.47776
3.4698
3.46047
3.44981
3.43784
3.42459
3.41008
3.39438
3.37753
3.35954
3.34042
3.32032
3.29924
3.27719
3.25428
3.23053
3.20599
3.18072
3.15477
3.12819
3.10104
3.07336
3.04522
3.01666
2.98775
2.95854
2.92911
2.89953
2.86984
2.8401
2.81034
2.78064
2.75107
2.72172
2.69272
2.66423
2.63644
2.60959
2.58399
2.5596
2.53648
0.0187592
0.0451333
0.0588928
0.0687143
0.0769561
0.0844476
0.0915922
0.0986219
0.105681
0.112861
0.120218
0.127784
0.135578
0.143607
0.151872
0.160377
0.169124
0.178118
0.187368
0.196887
0.206692
0.216802
0.227243
0.238042
0.249231
0.260843
0.272912
0.285475
0.298567
0.312223
0.326474
0.341351
0.356878
0.373075
0.389956
0.407532
0.425806
0.444781
0.464455
0.484827
0.505892
0.527647
0.550088
0.573214
0.597022
0.621512
0.646684
0.672542
0.69909
0.726335
0.754283
0.782942
0.81232
0.842424
0.873261
0.904837
0.937159
0.970232
1.00406
1.03865
1.07399
1.1101
1.14697
1.18459
1.22296
1.26208
1.30194
1.34253
1.38382
1.42582
1.4685
1.51183
1.55581
1.6004
1.64557
1.6913
1.73755
1.78429
1.83149
1.8791
1.92709
1.97541
2.02402
2.07289
2.12196
2.1712
2.22055
2.26998
2.31945
2.3689
2.41829
2.46758
2.51673
2.56568
2.6144
2.66283
2.71092
2.75849
2.80551
2.85197
2.89781
2.943
2.98749
3.03121
3.07412
3.11617
3.15729
3.19744
3.23656
3.2746
3.3115
3.34723
3.38174
3.41497
3.44689
3.47745
3.50662
3.53436
3.56063
3.58539
3.60862
3.6303
3.65039
3.66889
3.68576
3.70101
3.71461
3.72655
3.73683
3.74545
3.75239
3.75767
3.76129
3.76326
3.76358
3.76229
3.75938
3.75488
3.74882
3.74121
3.73207
3.72146
3.7094
3.69592
3.68106
3.66481
3.6473
3.62856
3.60859
3.58746
3.56523
3.54195
3.51765
3.49241
3.46627
3.43928
3.41151
3.38301
3.35383
3.32404
3.29368
3.26282
3.23151
3.19982
3.1678
3.13553
3.10307
3.07049
3.03785
3.0052
2.97263
2.94022
2.90808
2.87635
2.84521
2.81486
2.78555
2.75756
2.7308
2.70532
0.0205249
0.0483751
0.0628546
0.0731756
0.0817984
0.0895866
0.0969591
0.104158
0.111335
0.118594
0.125999
0.133594
0.141408
0.149455
0.157748
0.166295
0.175104
0.184185
0.193552
0.203219
0.213205
0.223534
0.234229
0.245319
0.256834
0.268806
0.281268
0.294251
0.307789
0.321911
0.336647
0.352021
0.368056
0.38477
0.402177
0.42029
0.439116
0.45866
0.478926
0.499916
0.521632
0.544078
0.567253
0.591162
0.615808
0.641196
0.66733
0.694218
0.721869
0.750291
0.779495
0.809491
0.84029
0.871903
0.904339
0.937609
0.97172
1.00668
1.0425
1.07918
1.11673
1.15514
1.19442
1.23457
1.27558
1.31744
1.36016
1.40371
1.44808
1.49326
1.53922
1.58595
1.63341
1.68158
1.73043
1.77992
1.83002
1.88069
1.93188
1.98356
2.03567
2.08817
2.14101
2.19414
2.2475
2.30106
2.35476
2.40855
2.46237
2.51619
2.56994
2.62358
2.67706
2.73033
2.78334
2.83603
2.88823
2.93986
2.9909
3.04131
3.09104
3.14003
3.18824
3.2356
3.28204
3.32753
3.37198
3.41535
3.45757
3.4986
3.53838
3.57686
3.61398
3.6497
3.68398
3.71677
3.74802
3.7777
3.80577
3.8322
3.85694
3.87998
3.90129
3.92086
3.93866
3.95468
3.96892
3.98136
3.99198
4.0008
4.0078
4.013
4.01641
4.01802
4.01787
4.01596
4.01231
4.00695
3.9999
3.99119
3.98083
3.96888
3.95539
3.94039
3.92391
3.90598
3.88668
3.86605
3.84414
3.82098
3.79665
3.7712
3.74467
3.71714
3.68865
3.65926
3.62903
3.59803
3.5663
3.53392
3.50094
3.46742
3.43343
3.39901
3.36425
3.32921
3.29396
3.25857
3.22311
3.18766
3.15229
3.11712
3.08225
3.04785
3.01409
2.9812
2.94941
2.91894
2.88971
2.86174
0.0219108
0.0509114
0.0659365
0.076635
0.0855433
0.0935499
0.101084
0.108396
0.115643
0.122934
0.130345
0.137926
0.145714
0.153732
0.162001
0.170533
0.179344
0.188446
0.197856
0.207591
0.217672
0.228121
0.238964
0.250228
0.261941
0.274134
0.286836
0.300077
0.313888
0.328295
0.343326
0.359003
0.375349
0.392382
0.410119
0.428573
0.447756
0.467678
0.488348
0.509772
0.53196
0.554919
0.578656
0.60318
0.628499
0.654624
0.681564
0.709332
0.73794
0.767402
0.79773
0.82894
0.861046
0.894061
0.928
0.962874
0.998697
1.03548
1.07323
1.11195
1.15165
1.19234
1.23401
1.27667
1.32031
1.36492
1.41049
1.45702
1.50448
1.55286
1.60213
1.65228
1.70326
1.75505
1.80761
1.8609
1.91488
1.96951
2.02473
2.0805
2.13676
2.19346
2.25054
2.30795
2.36562
2.42349
2.48153
2.53965
2.59782
2.65597
2.71405
2.77199
2.82976
2.88728
2.94451
3.00133
3.05755
3.11316
3.16811
3.22235
3.27584
3.32851
3.3803
3.43115
3.48099
3.52974
3.57737
3.62379
3.66895
3.71279
3.75526
3.7963
3.83586
3.87388
3.91033
3.94515
3.9783
4.00975
4.03944
4.06734
4.09342
4.11765
4.14001
4.16048
4.17905
4.1957
4.21042
4.22321
4.23405
4.24293
4.24987
4.25488
4.25796
4.25913
4.2584
4.25579
4.25132
4.24503
4.23695
4.2271
4.21551
4.20223
4.1873
4.17077
4.15268
4.13307
4.112
4.08953
4.06569
4.04055
4.01417
3.9866
3.9579
3.92813
3.89736
3.86563
3.83303
3.7996
3.76541
3.73053
3.69501
3.65893
3.62234
3.58531
3.5479
3.51019
3.47226
3.43417
3.396
3.35784
3.31978
3.28194
3.24444
3.20744
3.17112
3.13572
3.10144
3.06848
3.03671
3.00621
0.0229308
0.0527891
0.0681967
0.0791562
0.0882563
0.0964032
0.104034
0.111401
0.118668
0.125949
0.133324
0.140852
0.148575
0.156524
0.164724
0.173194
0.181953
0.191018
0.200406
0.210137
0.220232
0.230714
0.241607
0.252938
0.264733
0.277021
0.289829
0.303187
0.317121
0.331659
0.346826
0.362646
0.379141
0.396331
0.414236
0.432874
0.452259
0.472407
0.493332
0.515048
0.537567
0.560904
0.585072
0.610085
0.635958
0.662706
0.690345
0.718892
0.748363
0.778777
0.810152
0.842507
0.875858
0.910225
0.945625
0.982073
1.01958
1.05817
1.09785
1.13862
1.18049
1.22347
1.26756
1.31276
1.35906
1.40646
1.45494
1.50449
1.55509
1.60672
1.65936
1.71297
1.76752
1.82297
1.87928
1.9364
1.99429
2.0529
2.11217
2.17203
2.23244
2.29333
2.35463
2.41627
2.47819
2.54033
2.60263
2.66501
2.72743
2.78981
2.8521
2.91424
2.97616
3.0378
3.0991
3.1598
3.21986
3.27924
3.3379
3.39577
3.45279
3.50891
3.56406
3.61816
3.67113
3.72291
3.77344
3.82265
3.87048
3.91687
3.96176
4.00509
4.04681
4.08687
4.12522
4.16182
4.19661
4.22958
4.26065
4.28979
4.31696
4.34215
4.36534
4.3865
4.40563
4.42271
4.43773
4.4507
4.46159
4.47039
4.47712
4.4818
4.48443
4.48505
4.48365
4.48027
4.47493
4.46767
4.45851
4.44749
4.43465
4.42003
4.40368
4.38564
4.36597
4.3447
4.32191
4.29763
4.27194
4.24488
4.21651
4.18691
4.15612
4.12422
4.09126
4.05731
4.02244
3.9867
3.95018
3.91292
3.875
3.83648
3.79743
3.75791
3.718
3.67776
3.63728
3.59663
3.5559
3.51518
3.47456
3.43418
3.39415
3.35466
3.31588
3.27803
3.2413
3.20587
3.17159
3.13858
0.0236125
0.0540699
0.0697118
0.0808238
0.0900269
0.0982385
0.1059
0.113266
0.120504
0.127732
0.135032
0.14247
0.150093
0.157936
0.166029
0.174396
0.183057
0.192032
0.20134
0.211003
0.221041
0.231476
0.242333
0.253636
0.265411
0.277686
0.290487
0.303841
0.317776
0.332319
0.347494
0.363329
0.379846
0.39707
0.415022
0.433725
0.453199
0.473465
0.494543
0.516451
0.539211
0.562841
0.587363
0.612795
0.63916
0.666477
0.694769
0.724057
0.754364
0.785713
0.818126
0.851626
0.886237
0.921978
0.958871
0.996934
1.03619
1.07664
1.11831
1.16121
1.20534
1.2507
1.2973
1.34513
1.39419
1.44447
1.49595
1.54861
1.60244
1.6574
1.71347
1.7706
1.82877
1.88792
1.94801
2.00899
2.07079
2.13336
2.19665
2.26057
2.32508
2.39008
2.45551
2.52128
2.58733
2.65359
2.71999
2.78646
2.85294
2.91935
2.98563
3.05173
3.11758
3.18311
3.24805
3.31235
3.37595
3.43879
3.50082
3.56197
3.62218
3.68139
3.73953
3.79653
3.85227
3.90671
3.95976
4.01138
4.0615
4.11006
4.15699
4.20224
4.24576
4.2875
4.32739
4.36541
4.40151
4.43567
4.46781
4.49787
4.52584
4.5517
4.57544
4.59703
4.61646
4.63373
4.64883
4.66175
4.67248
4.68103
4.68741
4.69163
4.69371
4.69366
4.69151
4.68729
4.68102
4.67273
4.66247
4.65027
4.63617
4.62022
4.60247
4.58296
4.56175
4.53889
4.51443
4.48844
4.46097
4.43209
4.40186
4.37034
4.33759
4.30369
4.26869
4.23266
4.19568
4.1578
4.1191
4.07963
4.03948
3.99871
3.95737
3.91555
3.87332
3.83074
3.7879
3.74488
3.70176
3.65865
3.61566
3.57289
3.5305
3.48865
3.44753
3.40734
3.36826
3.33044
3.29373
3.25827
0.0239953
0.0548271
0.0705712
0.0817374
0.0909614
0.0991659
0.106795
0.114106
0.121267
0.128398
0.135588
0.142902
0.150391
0.158096
0.166048
0.174274
0.182796
0.191636
0.200815
0.210353
0.220271
0.230592
0.241338
0.252535
0.264208
0.276382
0.289085
0.302344
0.316186
0.330641
0.345734
0.361495
0.37795
0.395127
0.413053
0.431754
0.451257
0.471588
0.492774
0.51484
0.537815
0.561723
0.586594
0.612453
0.639328
0.667245
0.696232
0.726316
0.757525
0.789888
0.82343
0.858181
0.894164
0.931406
0.969929
1.00975
1.0509
1.09339
1.13723
1.18243
1.22899
1.27691
1.3262
1.37683
1.42881
1.48212
1.53674
1.59265
1.64981
1.70821
1.76779
1.82852
1.89035
1.95323
2.0171
2.0819
2.14756
2.21403
2.28123
2.3491
2.41755
2.48651
2.55588
2.62556
2.6955
2.76561
2.83582
2.90607
2.97627
3.04637
3.1163
3.18599
3.25538
3.32421
3.39237
3.45981
3.52647
3.59229
3.65721
3.72114
3.78404
3.84583
3.90645
3.96586
4.02385
4.08042
4.13549
4.189
4.2409
4.29112
4.3396
4.38629
4.43113
4.47407
4.51506
4.55406
4.59102
4.62591
4.65868
4.68928
4.71769
4.74389
4.76786
4.78958
4.80904
4.82624
4.84117
4.85383
4.86421
4.87232
4.87818
4.88179
4.88318
4.88237
4.87937
4.87423
4.86697
4.85763
4.84625
4.83287
4.81752
4.80027
4.78116
4.76024
4.73756
4.71319
4.68718
4.65959
4.63048
4.59992
4.56797
4.53469
4.50016
4.46444
4.42759
4.38968
4.35079
4.31098
4.27031
4.22887
4.18671
4.1439
4.10052
4.05663
4.0123
3.96761
3.92264
3.87748
3.83222
3.78695
3.74178
3.69685
3.65229
3.60828
3.56498
3.52261
3.48131
3.44124
3.40222
3.36445
0.0241282
0.0551425
0.0708732
0.082006
0.0911758
0.099307
0.106844
0.114047
0.121086
0.128081
0.135124
0.142282
0.149609
0.157146
0.164928
0.172981
0.18133
0.189998
0.199005
0.208372
0.218121
0.228274
0.238855
0.249887
0.261397
0.273411
0.285958
0.299064
0.312761
0.327079
0.342047
0.357699
0.374065
0.391177
0.409069
0.427772
0.44732
0.467745
0.489081
0.511363
0.534624
0.5589
0.584227
0.610637
0.638166
0.666844
0.696703
0.727777
0.760099
0.7937
0.828613
0.864868
0.902492
0.941512
0.981953
1.02384
1.06718
1.112
1.15832
1.20613
1.25543
1.3062
1.35844
1.41214
1.46728
1.52383
1.58179
1.6411
1.70175
1.76368
1.82685
1.89121
1.9567
2.02327
2.09084
2.15935
2.22873
2.2989
2.36979
2.44133
2.51344
2.58608
2.65903
2.73223
2.80562
2.87913
2.95268
3.0262
3.09963
3.17288
3.24591
3.31863
3.39077
3.46223
3.53296
3.60289
3.67194
3.74006
3.80716
3.87319
3.93807
4.00173
4.0641
4.12511
4.18466
4.24267
4.29909
4.35385
4.40689
4.45816
4.50758
4.55511
4.6007
4.64429
4.68583
4.72528
4.7626
4.79776
4.83071
4.86141
4.88985
4.91599
4.93982
4.96132
4.9805
4.99733
5.01182
5.02396
5.03377
5.04124
5.04639
5.04924
5.04981
5.04812
5.04419
5.03807
5.02978
5.01936
5.00685
4.9923
4.97575
4.95725
4.93686
4.91462
4.89059
4.86484
4.83742
4.80839
4.77781
4.74576
4.71229
4.67747
4.64137
4.60406
4.56561
4.52607
4.48553
4.44405
4.4017
4.35855
4.31466
4.27011
4.22496
4.17928
4.13315
4.08665
4.03984
3.99282
3.94569
3.89853
3.85147
3.80463
3.75815
3.7122
3.66695
3.6226
3.57928
3.53715
3.49601
3.4561
0.0240683
0.0551025
0.0707197
0.0817417
0.0907901
0.0987872
0.106179
0.113225
0.120099
0.126922
0.133786
0.140761
0.147899
0.155244
0.162831
0.170686
0.178836
0.187304
0.19611
0.205276
0.214826
0.224781
0.235166
0.246007
0.257331
0.269167
0.281545
0.294496
0.308053
0.322251
0.337125
0.352712
0.369049
0.386176
0.404132
0.422956
0.442688
0.463368
0.48504
0.507745
0.531528
0.556432
0.582504
0.609786
0.638321
0.668137
0.699267
0.73175
0.765623
0.800922
0.837681
0.875929
0.915693
0.956999
0.999866
1.04431
1.09035
1.138
1.18727
1.23819
1.2907
1.34474
1.40031
1.4574
1.51599
1.57604
1.63753
1.70041
1.76462
1.83013
1.89688
1.9648
2.03382
2.10389
2.17493
2.24686
2.3196
2.39307
2.4672
2.5419
2.61708
2.69266
2.76852
2.84456
2.92072
2.99692
3.07307
3.14911
3.22498
3.30062
3.37589
3.45055
3.52453
3.59775
3.67016
3.74166
3.8122
3.8817
3.95009
4.0173
4.08326
4.14789
4.21114
4.27293
4.33317
4.3918
4.44874
4.50395
4.55736
4.60891
4.65854
4.7062
4.75184
4.79541
4.83686
4.87616
4.91327
4.94814
4.98074
5.01105
5.03904
5.06468
5.08796
5.10886
5.12739
5.14353
5.15728
5.16865
5.17764
5.18426
5.18853
5.19047
5.19009
5.18742
5.18249
5.17534
5.166
5.1545
5.1409
5.12524
5.10756
5.08791
5.06635
5.04293
5.01772
4.99076
4.96212
4.93186
4.90004
4.86674
4.83201
4.79592
4.75854
4.71994
4.68018
4.63933
4.59746
4.55463
4.51093
4.4664
4.42113
4.37518
4.32861
4.2815
4.23392
4.18594
4.13764
4.08911
4.04043
3.99172
3.94308
3.89465
3.84655
3.79895
3.75203
3.70595
3.66087
3.61691
3.57389
3.53208
0.0238696
0.0547846
0.0701964
0.0810346
0.0898957
0.0976982
0.104889
0.11173
0.118396
0.125009
0.131663
0.138425
0.14535
0.15248
0.15985
0.167488
0.17542
0.183671
0.192263
0.201219
0.210564
0.220323
0.230524
0.241195
0.252368
0.264074
0.27635
0.289232
0.302759
0.316973
0.331914
0.347627
0.364161
0.381564
0.399888
0.41918
0.439483
0.460845
0.483322
0.506967
0.531833
0.557975
0.585449
0.614316
0.644651
0.676421
0.709658
0.744413
0.780728
0.818634
0.858161
0.899332
0.942164
0.986673
1.03287
1.08075
1.13033
1.18159
1.23453
1.28913
1.34537
1.40318
1.46254
1.52342
1.58578
1.64956
1.71473
1.78123
1.849
1.91798
1.9881
2.0593
2.13151
2.20465
2.27864
2.3534
2.42885
2.50492
2.5815
2.65853
2.73591
2.81355
2.89136
2.96926
3.04716
3.12499
3.20267
3.28017
3.35738
3.43408
3.51016
3.58554
3.66014
3.73391
3.80676
3.87862
3.94943
4.01911
4.08759
4.15481
4.22069
4.28517
4.34819
4.40966
4.46953
4.52773
4.58419
4.63886
4.69167
4.74258
4.79152
4.83845
4.88331
4.92607
4.96668
5.0051
5.0413
5.07524
5.10688
5.13621
5.1632
5.18782
5.21008
5.22994
5.24741
5.26249
5.27518
5.28547
5.29338
5.29892
5.3021
5.30295
5.30149
5.29774
5.29173
5.28351
5.2731
5.26054
5.24589
5.22917
5.21045
5.18977
5.16719
5.14276
5.11653
5.08857
5.05894
5.0277
4.9949
4.96062
4.92492
4.88787
4.84952
4.80996
4.76923
4.72741
4.68457
4.64077
4.59608
4.55057
4.50429
4.45732
4.40972
4.36155
4.3129
4.26383
4.21442
4.16475
4.11491
4.06501
4.01515
3.96545
3.91607
3.86714
3.81884
3.77134
3.72477
3.67926
3.63463
3.59118
0.0236471
0.0543299
0.069466
0.0800618
0.0886837
0.0962461
0.103198
0.109804
0.116239
0.122628
0.129061
0.135607
0.142319
0.149241
0.156406
0.163845
0.171587
0.179657
0.188083
0.196892
0.206112
0.215776
0.225917
0.23657
0.247774
0.259571
0.272004
0.285121
0.298975
0.313618
0.329096
0.345465
0.362789
0.381137
0.400589
0.421215
0.443
0.466029
0.490368
0.516083
0.543233
0.571876
0.602065
0.63385
0.667274
0.702353
0.73911
0.777567
0.817747
0.859662
0.903322
0.948727
0.995874
1.04475
1.09535
1.14764
1.20161
1.25723
1.31446
1.37326
1.43359
1.4954
1.55864