/*--------------------------------*- C++ -*----------------------------------*\
  =========                 |
  \\      /  F ield         | OpenFOAM: The Open Source CFD Toolbox
   \\    /   O peration     | Website:  https://openfoam.org
    \\  /    A nd           | Version:  12
     \\/     M anipulation  |
\*---------------------------------------------------------------------------*/
FoamFile
{
    format      ascii;
    class       volScalarField;
    location    "0.3";
    object      nut;
}
// * * * * * * * * * * * * * * * * * * * * * * * * * * * * * * * * * * * * * //

dimensions      [0 2 -1 0 0 0 0];

internalField   nonuniform List<scalar> 
12225
(
4.04768e-05
3.83178e-05
3.62504e-05
3.44199e-05
3.29519e-05
3.18976e-05
3.12561e-05
3.09935e-05
3.10578e-05
3.13897e-05
3.19305e-05
3.26265e-05
3.34313e-05
3.43064e-05
3.52225e-05
3.61551e-05
3.71091e-05
3.84904e-05
0.000281048
0.000209266
0.000176267
0.00015744
0.000146272
0.000139688
0.000135794
0.000133431
0.000131916
0.000130859
0.000130045
0.000129358
0.00012874
0.000128162
0.000127623
0.00012708
0.000126683
0.000125737
0.000556048
0.000419909
0.000349817
0.000304739
0.000272452
0.000247989
0.000228773
0.00021331
0.000200683
0.000190283
0.00018167
0.000174505
0.000168518
0.000163487
0.00015924
0.000155591
0.000152454
0.000149397
0.000740308
0.000625822
0.000544118
0.000485002
0.000439776
0.000403658
0.000373851
0.000348618
0.00032687
0.000307912
0.000291268
0.000276593
0.000263616
0.000252107
0.000241872
0.000232694
0.000224417
0.000216763
0.000817069
0.000759142
0.000700547
0.000648581
0.000603902
0.000565591
0.000532484
0.000503527
0.000477897
0.000454984
0.000434342
0.000415637
0.000398611
0.000383053
0.000368785
0.000355623
0.000343423
0.00033209
0.000842101
0.000819688
0.000789926
0.000757608
0.000725558
0.00069517
0.000666975
0.00064103
0.000617192
0.00059526
0.000575032
0.00055632
0.00053896
0.000522806
0.000507727
0.000493596
0.00048031
0.000467918
0.000849261
0.000841808
0.000829742
0.000814189
0.000796483
0.000777765
0.000758856
0.000740265
0.000722282
0.000705052
0.000688635
0.00067304
0.000658247
0.000644217
0.000630903
0.000618252
0.000606223
0.000594944
0.00085112
0.000848748
0.000844481
0.000838237
0.000830247
0.000820898
0.000810603
0.000799728
0.000788563
0.000777325
0.000766169
0.000755204
0.000744497
0.000734092
0.000724012
0.000714266
0.000704869
0.000695972
0.00085156
0.000850665
0.00084917
0.000846887
0.000843742
0.00083976
0.000835036
0.000829697
0.00082388
0.000817713
0.000811308
0.000804762
0.00079815
0.000791534
0.00078496
0.000778465
0.000772085
0.000765957
0.000851652
0.000851133
0.000850468
0.000849564
0.000848347
0.000846773
0.000844827
0.000842521
0.000839886
0.000836962
0.000833795
0.00083043
0.000826913
0.000823282
0.000819573
0.000815817
0.000812049
0.000808365
0.000851668
0.00085123
0.000850778
0.000850278
0.000849698
0.000849007
0.000848183
0.000847212
0.000846089
0.000844816
0.000843401
0.000841857
0.000840197
0.000838438
0.000836597
0.000834688
0.000832733
0.000830788
0.000851669
0.000851245
0.000850835
0.000850429
0.000850014
0.000849575
0.000849101
0.00084858
0.000848003
0.000847366
0.000846665
0.000845903
0.00084508
0.0008442
0.00084327
0.000842295
0.000841285
0.000840274
0.000851668
0.000851244
0.000850843
0.000850459
0.000850088
0.000849726
0.000849365
0.000849001
0.000848629
0.000848243
0.000847841
0.000847421
0.00084698
0.000846519
0.000846038
0.000845539
0.000845024
0.000844514
0.000851667
0.000851242
0.000850839
0.000850458
0.000850096
0.000849751
0.000849421
0.000849102
0.000848793
0.000848491
0.000848195
0.000847902
0.000847611
0.000847321
0.000847032
0.000846742
0.000846455
0.000846181
0.000851666
0.000851239
0.000850835
0.000850452
0.00085009
0.000849746
0.000849419
0.000849108
0.000848812
0.000848528
0.000848257
0.000847996
0.000847746
0.000847505
0.000847272
0.000847048
0.000846833
0.000846638
0.000851665
0.000851236
0.000850831
0.000850447
0.000850083
0.000849737
0.000849409
0.000849098
0.000848801
0.000848519
0.000848251
0.000847994
0.00084775
0.000847517
0.000847294
0.000847082
0.000846881
0.000846703
0.000851664
0.000851235
0.000850828
0.000850442
0.000850077
0.00084973
0.000849401
0.000849088
0.00084879
0.000848507
0.000848237
0.00084798
0.000847735
0.000847502
0.000847279
0.000847066
0.000846866
0.000846688
0.000851663
0.000851234
0.000850826
0.00085044
0.000850073
0.000849725
0.000849395
0.000849081
0.000848782
0.000848498
0.000848227
0.000847969
0.000847722
0.000847488
0.000847264
0.00084705
0.000846848
0.000846669
0.000851663
0.000851233
0.000850825
0.000850439
0.000850072
0.000849724
0.000849393
0.000849078
0.000848779
0.000848494
0.000848222
0.000847963
0.000847716
0.000847481
0.000847255
0.000847041
0.000846838
0.000846658
0.000851664
0.000851234
0.000850826
0.00085044
0.000850074
0.000849726
0.000849396
0.000849081
0.000848782
0.000848497
0.000848225
0.000847965
0.000847717
0.00084748
0.000847253
0.000847036
0.000846831
0.000846648
0.000851664
0.000851235
0.000850829
0.000850443
0.000850078
0.00084973
0.000849399
0.000849082
0.000848779
0.000848489
0.000848209
0.00084794
0.000847679
0.000847427
0.000847182
0.000846944
0.000846715
0.000846505
0.000851665
0.000851237
0.00085083
0.000850442
0.000850068
0.000849706
0.000849351
0.000848999
0.000848647
0.000848293
0.000847934
0.000847569
0.000847198
0.000846818
0.000846432
0.000846038
0.00084564
0.00084525
0.000851664
0.000851228
0.000850794
0.000850348
0.00084987
0.000849345
0.000848761
0.00084811
0.000847388
0.000846592
0.000845727
0.000844795
0.000843804
0.000842759
0.000841669
0.00084054
0.000839384
0.000838222
0.000851634
0.000851073
0.000850343
0.000849363
0.000848079
0.000846467
0.00084453
0.000842291
0.000839784
0.00083705
0.000834132
0.000831071
0.000827905
0.000824667
0.000821387
0.00081809
0.000814801
0.000811565
0.000851287
0.000849596
0.000846721
0.000842577
0.000837262
0.000830978
0.000823969
0.000816468
0.00080867
0.000800732
0.000792777
0.000784894
0.000777148
0.000769584
0.000762232
0.000755112
0.000748239
0.000741666
0.000848318
0.000839425
0.00082616
0.000810016
0.000792355
0.000774221
0.000756313
0.000739034
0.000722581
0.000707034
0.000692406
0.000678668
0.000665775
0.000653672
0.000642303
0.000631612
0.000621553
0.000612135
0.000828548
0.000788842
0.000746032
0.000705698
0.000669456
0.000637491
0.000609431
0.000584721
0.000562822
0.000543279
0.000525723
0.000509855
0.000495433
0.000482263
0.000470186
0.000459073
0.000448815
0.000439367
0.000730725
0.000627344
0.000554503
0.000501053
0.00046031
0.000428336
0.00040262
0.000381452
0.00036369
0.000348558
0.00033551
0.000324149
0.000314176
0.000305363
0.000297529
0.000290529
0.000284245
0.000278594
0.000439249
0.00033847
0.000287933
0.000256866
0.000236359
0.000222507
0.00021299
0.000206309
0.000201503
0.000197956
0.000195269
0.000193175
0.000191498
0.000190115
0.000188946
0.000187932
0.000187036
0.000186209
7.16431e-05
6.90587e-05
6.65522e-05
6.41646e-05
6.19883e-05
6.00784e-05
5.84565e-05
5.71213e-05
5.60572e-05
5.52404e-05
5.46438e-05
5.42396e-05
5.40012e-05
5.39035e-05
5.3924e-05
5.40426e-05
5.42419e-05
5.45056e-05
2.03954e-07
5.31827e-06
8.83719e-06
1.19101e-05
1.49881e-05
1.86744e-05
2.29577e-05
2.79711e-05
3.38606e-05
4.06606e-05
4.78412e-05
5.5425e-05
6.33577e-05
7.15667e-05
7.99782e-05
8.85223e-05
9.71342e-05
0.000105753
0.000114322
0.000122786
0.000131092
0.000139187
0.000147019
0.000154535
0.000161683
0.000168409
0.00017466
0.000180374
0.000185481
0.000189892
0.0001935
0.000196203
0.000197965
0.000198889
0.000199223
0.000199249
0.000199136
0.000198609
0.000194281
0.000195643
0.000197292
4.74629e-05
4.73347e-05
4.76111e-05
4.80386e-05
4.90805e-05
5.01588e-05
5.12496e-05
5.23457e-05
5.34442e-05
5.45431e-05
5.56413e-05
5.67378e-05
5.78321e-05
5.89239e-05
6.00127e-05
6.10983e-05
6.21803e-05
6.32586e-05
6.43328e-05
6.54026e-05
6.64678e-05
6.7528e-05
6.8583e-05
6.96322e-05
7.06754e-05
7.17122e-05
7.27422e-05
7.37649e-05
7.478e-05
7.57869e-05
7.67852e-05
7.77746e-05
7.87545e-05
7.97244e-05
8.0684e-05
8.16327e-05
8.25701e-05
8.34959e-05
8.44094e-05
8.53104e-05
8.61984e-05
8.70729e-05
8.79336e-05
8.87802e-05
8.96121e-05
9.0429e-05
9.12306e-05
9.20164e-05
9.27861e-05
9.35393e-05
9.42756e-05
9.49947e-05
9.56962e-05
9.63799e-05
9.70454e-05
9.76929e-05
9.83228e-05
9.89364e-05
9.95365e-05
0.000100122
0.000100685
0.000101226
0.000101746
0.000102244
0.00010272
0.000103174
0.000103605
0.000104013
0.000104398
0.000104759
0.000105096
0.000105409
0.000105697
0.000105961
0.0001062
0.000106414
0.000106602
0.000106765
0.000106903
0.000107015
0.000107101
0.000107162
0.000107197
0.000107207
0.000107191
0.000107149
0.000107082
0.00010699
0.000106873
0.00010673
0.000106563
0.000106372
0.000106156
0.000105916
0.000105652
0.000105365
0.000105055
0.000104723
0.000104368
0.000103992
0.000103594
0.000103176
0.000102737
0.000102278
0.000101801
0.000101304
0.00010079
0.000100258
9.97091e-05
9.91443e-05
9.85639e-05
9.79687e-05
9.73594e-05
9.67366e-05
9.6101e-05
9.54536e-05
9.47948e-05
9.41256e-05
9.34467e-05
9.27581e-05
9.20627e-05
9.13587e-05
9.06502e-05
8.99421e-05
8.92887e-05
8.88665e-05
8.84795e-05
8.80923e-05
8.7703e-05
8.73116e-05
8.69181e-05
8.6522e-05
8.61219e-05
8.57148e-05
8.5294e-05
8.4844e-05
8.43246e-05
8.36364e-05
8.23365e-05
7.90209e-07
2.28202e-05
5.05914e-05
7.10747e-05
8.60313e-05
9.678e-05
0.000105549
0.000113755
0.000122113
0.000130919
0.000140235
0.000149988
0.000160078
0.000170403
0.000180868
0.00019139
0.00020189
0.000212295
0.000222534
0.000232536
0.000242225
0.000251524
0.000260351
0.000268615
0.00027622
0.000283058
0.000289002
0.000293891
0.000297501
0.000299531
0.00029961
0.000297409
0.000292878
0.000286518
0.000279388
0.000272595
0.000266472
0.000259998
0.000253903
0.000256916
0.000259766
0.000254771
0.000257935
0.000261661
0.000267306
0.000273792
0.000280269
0.000287202
0.000294442
0.000301915
0.000309572
0.000317381
0.000325323
0.000333384
0.000341555
0.000349831
0.000358206
0.000366679
0.000375245
0.000383904
0.000392654
0.000401492
0.000410416
0.000419426
0.000428518
0.00043769
0.000446939
0.000456262
0.000465656
0.000475116
0.00048464
0.000494222
0.000503857
0.000513542
0.000523269
0.000533035
0.000542833
0.000552658
0.000562504
0.000572365
0.000582236
0.000592109
0.00060198
0.000611843
0.000621693
0.000631524
0.000641331
0.00065111
0.000660855
0.000670563
0.000680228
0.000689847
0.000699415
0.000708925
0.000718368
0.000727732
0.000736994
0.000746119
0.00075505
0.000763626
0.000771593
0.000779389
0.000787062
0.000794613
0.000802036
0.000809328
0.000816483
0.000823494
0.000830357
0.000837066
0.000843615
0.00085
0.000856216
0.000862258
0.00086812
0.0008738
0.000879292
0.000884592
0.000889696
0.000894601
0.000899303
0.0009038
0.000908088
0.000912164
0.000916027
0.000919674
0.000923103
0.000926312
0.0009293
0.000932065
0.000934607
0.000936925
0.000939018
0.000940888
0.000942533
0.000943954
0.000945153
0.000946129
0.000946886
0.000947423
0.000947744
0.000947851
0.000947746
0.000947432
0.000946912
0.00094619
0.000945269
0.000944154
0.000942849
0.000941358
0.000939687
0.00093784
0.000935823
0.000933642
0.000931303
0.00092881
0.000926174
0.000923398
0.000920491
0.000917465
0.00091431
0.000911062
0.000907716
0.000904239
0.000900536
0.000896065
0.000889553
0.000882345
0.000874917
0.000867386
0.000859788
0.000852142
0.000844456
0.000836733
0.000828965
0.000821129
0.00081315
0.000804917
0.00079544
0.000777061
1.58693e-06
3.7323e-05
8.14077e-05
0.000114769
0.0001389
0.000156846
0.000171025
0.000183183
0.000194463
0.000205525
0.000216694
0.000228075
0.000239662
0.000251395
0.000263196
0.000274986
0.000286683
0.00029821
0.000309493
0.000320458
0.000331029
0.000341133
0.000350699
0.000359658
0.000367948
0.000375514
0.000382308
0.000388286
0.0003934
0.000397602
0.000400871
0.000403286
0.000405139
0.000406985
0.000409521
0.000413261
0.000418262
0.000424317
0.000431881
0.000441808
0.000452601
0.000463173
0.000474677
0.000487074
0.00050071
0.000515246
0.000530193
0.000545527
0.000561198
0.000577168
0.000593406
0.00060989
0.0006266
0.000643523
0.000660649
0.000677971
0.000695482
0.000713177
0.000731052
0.000749102
0.000767324
0.000785713
0.000804264
0.000822972
0.000841832
0.000860837
0.00087998
0.000899254
0.00091865
0.00093816
0.000957774
0.000977482
0.000997273
0.00101714
0.00103706
0.00105703
0.00107704
0.00109708
0.00111712
0.00113716
0.00115719
0.00117719
0.00119715
0.00121707
0.00123691
0.00125668
0.00127637
0.00129595
0.00131543
0.00133478
0.00135399
0.00137305
0.00139195
0.00141066
0.00142917
0.00144744
0.00146543
0.00148311
0.00150043
0.00151707
0.00153326
0.00154916
0.0015648
0.00158017
0.00159528
0.00161011
0.00162464
0.00163887
0.00165279
0.00166639
0.00167965
0.00169256
0.00170511
0.0017173
0.00172911
0.00174054
0.00175158
0.00176221
0.00177243
0.00178224
0.00179162
0.00180057
0.00180908
0.00181715
0.00182478
0.00183195
0.00183867
0.00184493
0.00185073
0.00185606
0.00186093
0.00186534
0.00186927
0.00187274
0.00187574
0.00187827
0.00188035
0.00188195
0.00188311
0.0018838
0.00188405
0.00188385
0.00188321
0.00188213
0.00188063
0.0018787
0.00187637
0.00187363
0.00187049
0.00186697
0.00186307
0.00185881
0.00185419
0.00184923
0.00184394
0.00183833
0.00183243
0.00182624
0.00181977
0.00181306
0.00180611
0.00179894
0.00179156
0.0017839
0.0017758
0.00176675
0.00175589
0.00174405
0.00173172
0.00171913
0.00170636
0.00169346
0.00168044
0.00166732
0.00165406
0.0016406
0.00162674
0.00161197
0.00159435
0.00156525
2.54767e-06
4.82711e-05
0.000104176
0.000147196
0.000179198
0.000203391
0.00022244
0.000238338
0.000252481
0.000265764
0.00027871
0.000291581
0.000304477
0.000317407
0.000330334
0.000343201
0.000355944
0.000368499
0.000380806
0.00039281
0.00040446
0.000415715
0.000426544
0.000436932
0.000446879
0.000456406
0.000465554
0.000474384
0.000482975
0.000491423
0.000499853
0.000508441
0.000517439
0.000527168
0.000537942
0.000549945
0.000563189
0.000577619
0.000593284
0.000610188
0.000628
0.000646474
0.000665692
0.000685735
0.000706602
0.000728103
0.000750045
0.000772358
0.000795012
0.000817987
0.000841267
0.00086484
0.000888694
0.00091282
0.00093721
0.000961856
0.000986752
0.00101189
0.00103727
0.00106289
0.00108872
0.00111478
0.00114105
0.00116753
0.0011942
0.00122105
0.00124808
0.00127527
0.00130262
0.00133009
0.00135769
0.0013854
0.0014132
0.00144107
0.00146901
0.00149698
0.00152497
0.00155297
0.00158095
0.0016089
0.0016368
0.00166463
0.00169238
0.00172002
0.00174753
0.00177491
0.00180213
0.00182917
0.00185602
0.00188266
0.00190907
0.00193523
0.00196112
0.00198672
0.002012
0.00203692
0.00206147
0.0020856
0.0021092
0.00213219
0.00215472
0.00217687
0.00219865
0.00222007
0.0022411
0.00226175
0.00228199
0.00230181
0.00232119
0.00234012
0.00235859
0.00237657
0.00239407
0.00241105
0.00242752
0.00244346
0.00245886
0.0024737
0.00248797
0.00250167
0.00251479
0.00252731
0.00253923
0.00255054
0.00256124
0.00257132
0.00258076
0.00258958
0.00259776
0.0026053
0.0026122
0.00261846
0.00262407
0.00262903
0.00263335
0.00263702
0.00264006
0.00264245
0.00264421
0.00264534
0.00264584
0.00264572
0.00264499
0.00264365
0.00264172
0.0026392
0.0026361
0.00263244
0.00262822
0.00262346
0.00261817
0.00261237
0.00260607
0.00259929
0.00259204
0.00258434
0.00257621
0.00256768
0.00255876
0.00254948
0.00253987
0.0025299
0.00251961
0.00250893
0.00249773
0.00248567
0.00247229
0.00245796
0.00244304
0.00242773
0.00241214
0.00239635
0.00238037
0.00236424
0.00234792
0.00233132
0.00231416
0.00229575
0.00227394
0.00224207
3.51698e-06
5.71543e-05
0.000122273
0.0001736
0.000212403
0.000242018
0.000265331
0.00028455
0.000301263
0.000316547
0.000331084
0.000345269
0.000359307
0.000373281
0.000387205
0.00040106
0.00041481
0.000428416
0.000441845
0.000455068
0.000468067
0.000480839
0.000493395
0.000505764
0.000517996
0.000530159
0.000542345
0.000554661
0.000567227
0.000580177
0.00059365
0.000607798
0.000622786
0.000638773
0.000655884
0.000674171
0.000693614
0.000714163
0.000735779
0.000758402
0.000781907
0.000806185
0.000831195
0.000856916
0.000883286
0.000910197
0.000937555
0.000965305
0.000993419
0.00102188
0.00105068
0.0010798
0.00110924
0.00113899
0.00116905
0.00119939
0.00123003
0.00126095
0.00129214
0.0013236
0.00135532
0.00138728
0.00141948
0.00145191
0.00148455
0.0015174
0.00155043
0.00158363
0.00161699
0.00165049
0.00168411
0.00171783
0.00175163
0.00178549
0.00181939
0.00185331
0.00188722
0.00192111
0.00195495
0.00198872
0.00202239
0.00205595
0.00208937
0.00212264
0.00215572
0.0021886
0.00222125
0.00225367
0.00228582
0.00231769
0.00234926
0.00238049
0.00241139
0.00244191
0.00247203
0.00250174
0.00253101
0.00255981
0.00258797
0.00261557
0.0026427
0.00266939
0.00269564
0.00272146
0.00274683
0.00277173
0.00279615
0.00282008
0.00284349
0.00286637
0.0028887
0.00291047
0.00293165
0.00295224
0.00297223
0.00299159
0.00301031
0.00302838
0.00304578
0.00306251
0.00307855
0.0030939
0.00310854
0.00312246
0.00313566
0.00314812
0.00315985
0.00317083
0.00318107
0.00319055
0.00319926
0.00320722
0.00321442
0.00322085
0.00322651
0.00323142
0.00323556
0.00323894
0.00324157
0.00324344
0.00324457
0.00324496
0.00324461
0.00324355
0.00324176
0.00323928
0.00323609
0.00323223
0.00322769
0.00322251
0.00321668
0.00321022
0.00320317
0.00319552
0.0031873
0.00317854
0.00316924
0.00315945
0.00314917
0.00313844
0.00312727
0.00311567
0.00310364
0.00309116
0.00307814
0.00306436
0.00304961
0.00303402
0.00301783
0.00300118
0.0029842
0.00296695
0.00294948
0.00293182
0.00291396
0.00289581
0.0028771
0.00285714
0.00283403
0.00280332
4.43005e-06
6.43542e-05
0.000137283
0.000195695
0.000240409
0.000274816
0.00030195
0.000324176
0.000343237
0.000360358
0.000376356
0.000391745
0.000406826
0.000421758
0.000436616
0.000451423
0.00046618
0.000480879
0.000495513
0.000510082
0.000524598
0.000539086
0.000553588
0.00056816
0.000582879
0.000597833
0.000613128
0.000628877
0.0006452
0.000662215
0.000680037
0.000698772
0.000718514
0.000739336
0.000761277
0.000784337
0.00080848
0.000833651
0.000859795
0.000886847
0.000914729
0.000943366
0.000972697
0.00100267
0.00103322
0.00106429
0.00109581
0.00112775
0.00116007
0.00119276
0.00122581
0.0012592
0.00129294
0.001327
0.00136139
0.0013961
0.00143111
0.00146643
0.00150203
0.00153791
0.00157406
0.00161047
0.00164712
0.001684
0.0017211
0.00175841
0.00179589
0.00183355
0.00187135
0.00190927
0.00194731
0.00198543
0.00202361
0.00206183
0.00210007
0.0021383
0.00217649
0.00221463
0.00225269
0.00229063
0.00232845
0.0023661
0.00240358
0.00244084
0.00247788
0.00251467
0.00255118
0.0025874
0.0026233
0.00265886
0.00269407
0.00272889
0.00276332
0.00279733
0.00283091
0.00286402
0.00289664
0.00292874
0.00296021
0.00299114
0.00302158
0.00305154
0.00308104
0.00311005
0.00313858
0.0031666
0.0031941
0.00322106
0.00324745
0.00327327
0.0032985
0.00332311
0.00334709
0.00337042
0.0033931
0.00341509
0.00343639
0.00345699
0.00347686
0.00349599
0.00351437
0.003532
0.00354885
0.00356492
0.0035802
0.00359468
0.00360836
0.00362121
0.00363325
0.00364446
0.00365483
0.00366437
0.00367307
0.00368093
0.00368796
0.00369413
0.00369947
0.00370397
0.00370763
0.00371046
0.00371247
0.00371366
0.00371403
0.00371359
0.00371236
0.00371034
0.00370755
0.00370399
0.00369968
0.00369464
0.00368887
0.0036824
0.00367525
0.00366743
0.00365895
0.00364986
0.00364015
0.00362987
0.00361904
0.00360767
0.00359579
0.00358341
0.00357054
0.00355717
0.00354324
0.00352864
0.00351327
0.00349718
0.00348049
0.00346334
0.00344581
0.00342799
0.00340993
0.00339167
0.00337323
0.00335454
0.00333539
0.00331519
0.00329245
0.0032643
5.21785e-06
7.03989e-05
0.000149774
0.000214192
0.000264055
0.000302731
0.000333334
0.000358337
0.000379596
0.000398454
0.000415843
0.00043238
0.000448457
0.000464309
0.00048007
0.000495811
0.000511571
0.000527371
0.000543233
0.000559181
0.000575247
0.000591477
0.000607927
0.000624669
0.000641783
0.000659364
0.000677509
0.000696319
0.000715894
0.000736327
0.000757699
0.000780077
0.000803508
0.000828019
0.000853614
0.000880268
0.000907939
0.000936573
0.000966111
0.000996493
0.00102765
0.00105953
0.00109207
0.00112521
0.0011589
0.00119309
0.00122774
0.00126282
0.00129829
0.00133415
0.00137038
0.00140697
0.00144391
0.00148119
0.00151879
0.00155672
0.00159496
0.00163351
0.00167234
0.00171146
0.00175084
0.00179047
0.00183035
0.00187045
0.00191076
0.00195127
0.00199194
0.00203278
0.00207374
0.00211482
0.00215599
0.00219723
0.00223851
0.00227982
0.00232112
0.00236239
0.0024036
0.00244473
0.00248575
0.00252663
0.00256735
0.00260788
0.0026482
0.00268828
0.0027281
0.00276763
0.00280685
0.00284574
0.00288428
0.00292245
0.00296022
0.00299759
0.00303453
0.00307102
0.00310705
0.0031426
0.00317766
0.00321211
0.00324598
0.00327934
0.0033122
0.00334459
0.00337648
0.00340789
0.00343879
0.00346916
0.00349899
0.00352826
0.00355695
0.00358504
0.00361251
0.00363934
0.00366553
0.00369103
0.00371585
0.00373996
0.00376335
0.003786
0.0038079
0.00382902
0.00384936
0.0038689
0.00388763
0.00390554
0.00392262
0.00393886
0.00395425
0.00396878
0.00398245
0.00399524
0.00400716
0.00401819
0.00402833
0.00403759
0.00404595
0.00405343
0.00406001
0.0040657
0.0040705
0.00407442
0.00407746
0.00407962
0.00408091
0.00408134
0.00408092
0.00407966
0.00407756
0.00407464
0.00407091
0.0040664
0.00406109
0.00405502
0.00404821
0.00404067
0.00403242
0.00402349
0.0040139
0.00400367
0.00399283
0.00398139
0.00396939
0.00395683
0.00394374
0.0039301
0.0039159
0.00390108
0.00388559
0.00386946
0.00385278
0.00383562
0.00381807
0.00380021
0.00378211
0.00376383
0.0037454
0.0037268
0.00370788
0.00368819
0.0036666
0.00364128
5.89128e-06
7.53091e-05
0.000159944
0.000229442
0.000283792
0.000326283
0.000360053
0.000387639
0.000410979
0.000431508
0.000450247
0.000467907
0.00048496
0.000501711
0.000518351
0.000534999
0.000551731
0.000568598
0.000585645
0.000602914
0.000620452
0.000638315
0.000656566
0.000675278
0.000694528
0.000714401
0.000734981
0.00075635
0.000778585
0.000801751
0.000825903
0.000851077
0.000877294
0.000904557
0.000932851
0.000962142
0.000992388
0.00102354
0.00105553
0.00108832
0.00112184
0.00115604
0.00119086
0.00122627
0.0012622
0.00129863
0.00133551
0.00137282
0.00141054
0.00144864
0.00148711
0.00152594
0.00156512
0.00160464
0.00164449
0.00168465
0.00172512
0.00176589
0.00180694
0.00184826
0.00188985
0.00193168
0.00197374
0.00201601
0.00205849
0.00210115
0.00214397
0.00218694
0.00223003
0.00227323
0.00231651
0.00235984
0.00240321
0.00244659
0.00248996
0.00253329
0.00257654
0.00261971
0.00266275
0.00270565
0.00274837
0.00279089
0.00283318
0.00287522
0.00291697
0.00295842
0.00299954
0.00304032
0.00308072
0.00312074
0.00316035
0.00319953
0.00323827
0.00327656
0.00331437
0.0033517
0.00338851
0.00342473
0.00346043
0.00349564
0.00353036
0.00356461
0.00359838
0.00363166
0.00366443
0.00369668
0.00372838
0.00375951
0.00379006
0.00382
0.00384932
0.003878
0.00390601
0.00393334
0.00395996
0.00398587
0.00401104
0.00403546
0.00405911
0.00408196
0.00410401
0.00412524
0.00414564
0.0041652
0.00418391
0.00420175
0.00421872
0.0042348
0.00424999
0.00426428
0.00427766
0.00429012
0.00430166
0.00431229
0.004322
0.00433079
0.00433864
0.00434557
0.00435157
0.00435665
0.00436083
0.00436409
0.00436643
0.00436787
0.00436842
0.00436812
0.00436691
0.00436483
0.00436191
0.00435816
0.00435357
0.00434819
0.00434201
0.00433507
0.00432738
0.00431896
0.00430984
0.00430003
0.00428956
0.00427845
0.00426673
0.00425441
0.00424151
0.00422804
0.00421399
0.00419934
0.00418409
0.00416824
0.00415186
0.00413501
0.00411777
0.00410021
0.00408242
0.00406447
0.00404641
0.00402827
0.00400996
0.00399114
0.00397101
0.0039483
6.4458e-06
7.91653e-05
0.000167983
0.000241718
0.000299946
0.000345826
0.000382478
0.000412464
0.000437775
0.00045991
0.000479967
0.000498728
0.000516736
0.000534361
0.000551847
0.000569355
0.000586997
0.000604851
0.000622981
0.000641442
0.000660291
0.000679589
0.000699397
0.000719782
0.000740816
0.000762567
0.000785104
0.000808489
0.000832778
0.000858016
0.000884234
0.000911451
0.000939671
0.000968883
0.000999063
0.00103018
0.00106218
0.00109503
0.00112867
0.00116306
0.00119813
0.00123384
0.00127015
0.00130701
0.00134438
0.00138223
0.00142052
0.00145924
0.00149835
0.00153784
0.0015777
0.0016179
0.00165845
0.00169933
0.00174052
0.00178203
0.00182383
0.00186591
0.00190828
0.0019509
0.00199378
0.0020369
0.00208024
0.00212379
0.00216754
0.00221147
0.00225556
0.0022998
0.00234416
0.00238862
0.00243318
0.00247779
0.00252245
0.00256712
0.00261179
0.00265642
0.00270099
0.00274548
0.00278985
0.00283409
0.00287815
0.00292202
0.00296566
0.00300905
0.00305216
0.00309496
0.00313743
0.00317956
0.00322131
0.00326266
0.00330361
0.00334414
0.00338422
0.00342385
0.00346301
0.00350169
0.00353984
0.00357748
0.00361465
0.00365136
0.00368761
0.00372341
0.00375874
0.00379359
0.00382795
0.00386179
0.00389509
0.00392783
0.00396
0.00399156
0.0040225
0.00405279
0.00408243
0.00411137
0.00413962
0.00416714
0.00419393
0.00421995
0.00424519
0.00426963
0.00429326
0.00431606
0.00433801
0.00435911
0.00437934
0.00439869
0.00441716
0.00443473
0.00445139
0.00446712
0.00448192
0.00449579
0.00450872
0.00452071
0.00453177
0.00454188
0.00455104
0.00455923
0.00456648
0.00457279
0.00457818
0.00458261
0.0045861
0.00458865
0.00459029
0.00459103
0.00459085
0.00458978
0.00458783
0.00458501
0.00458135
0.00457684
0.00457152
0.0045654
0.0045585
0.00455083
0.00454243
0.0045333
0.00452347
0.00451297
0.00450182
0.00449003
0.00447762
0.00446462
0.00445102
0.00443683
0.00442205
0.00440671
0.00439084
0.00437452
0.0043578
0.00434076
0.0043235
0.00430609
0.00428863
0.00427116
0.00425364
0.00423586
0.00421719
0.00419674
6.88103e-06
8.20597e-05
0.000174078
0.000251265
0.000312793
0.00036165
0.000400897
0.000433092
0.00046025
0.000483914
0.000505239
0.000525065
0.000543994
0.000562451
0.000580726
0.000599021
0.000617477
0.000636196
0.000655257
0.000674727
0.000694668
0.000715138
0.000736197
0.000757905
0.000780318
0.000803495
0.000827486
0.000852338
0.000878088
0.000904765
0.000932386
0.000960956
0.000990468
0.00102091
0.00105224
0.00108445
0.00111747
0.00115128
0.00118582
0.00122105
0.00125692
0.00129339
0.00133041
0.00136796
0.00140599
0.00144448
0.00148339
0.00152271
0.0015624
0.00160247
0.00164288
0.00168363
0.00172471
0.0017661
0.00180781
0.00184981
0.0018921
0.00193467
0.00197752
0.00202062
0.00206398
0.00210758
0.0021514
0.00219545
0.0022397
0.00228414
0.00232876
0.00237354
0.00241846
0.00246352
0.00250868
0.00255393
0.00259925
0.00264462
0.00269
0.00273538
0.00278074
0.00282603
0.00287124
0.00291634
0.00296129
0.00300607
0.00305065
0.003095
0.00313908
0.00318287
0.00322634
0.00326948
0.00331225
0.00335463
0.00339662
0.00343819
0.00347932
0.00352001
0.00356025
0.00360002
0.00363934
0.00367822
0.00371667
0.0037547
0.00379232
0.0038295
0.00386624
0.00390252
0.00393832
0.00397362
0.00400839
0.00404262
0.00407628
0.00410934
0.00414179
0.0041736
0.00420475
0.00423522
0.004265
0.00429405
0.00432236
0.00434991
0.00437667
0.00440264
0.00442778
0.00445208
0.00447553
0.00449812
0.00451983
0.00454065
0.00456058
0.00457962
0.00459772
0.00461488
0.0046311
0.00464636
0.00466068
0.00467404
0.00468647
0.00469794
0.00470842
0.00471793
0.00472646
0.00473404
0.00474067
0.00474633
0.00475104
0.0047548
0.00475762
0.00475951
0.00476047
0.00476053
0.00475968
0.00475795
0.00475535
0.00475189
0.00474758
0.00474245
0.00473651
0.00472978
0.00472228
0.00471403
0.00470506
0.00469537
0.004685
0.00467396
0.00466228
0.00464996
0.00463704
0.00462351
0.0046094
0.00459473
0.00457955
0.0045639
0.00454786
0.0045315
0.00451491
0.0044982
0.00448146
0.00446477
0.00444813
0.00443141
0.00441411
0.00439558
7.20136e-06
8.40912e-05
0.000178422
0.000258328
0.000322599
0.000374023
0.000415567
0.000449757
0.000478612
0.000503701
0.000526214
0.000547039
0.000566826
0.000586042
0.000605018
0.000623991
0.000643126
0.000662546
0.000682343
0.000702591
0.000723354
0.000744688
0.000766646
0.00078928
0.000812637
0.000836759
0.000861685
0.000887447
0.000914068
0.000941565
0.000969943
0.0009992
0.00102932
0.00106029
0.00109208
0.00112466
0.00115798
0.00119201
0.00122671
0.00126204
0.00129795
0.00133441
0.00137138
0.00140883
0.00144673
0.00148506
0.00152378
0.00156288
0.00160234
0.00164215
0.00168229
0.00172276
0.00176355
0.00180464
0.00184604
0.00188774
0.00192972
0.001972
0.00201455
0.00205738
0.00210048
0.00214384
0.00218745
0.00223131
0.00227541
0.00231974
0.00236428
0.00240903
0.00245396
0.00249908
0.00254435
0.00258976
0.00263529
0.00268092
0.00272662
0.00277238
0.00281815
0.00286392
0.00290966
0.00295533
0.0030009
0.00304634
0.00309161
0.00313668
0.00318153
0.0032261
0.00327039
0.00331435
0.00335797
0.00340121
0.00344407
0.00348652
0.00352856
0.00357017
0.00361134
0.00365214
0.00369257
0.00373263
0.00377232
0.00381163
0.00385055
0.00388907
0.00392717
0.00396484
0.00400204
0.00403876
0.00407497
0.00411064
0.00414575
0.00418028
0.0042142
0.00424749
0.00428013
0.00431209
0.00434335
0.0043739
0.00440371
0.00443276
0.00446104
0.00448849
0.00451512
0.00454091
0.00456584
0.00458991
0.00461309
0.00463537
0.00465676
0.00467726
0.00469682
0.00471541
0.00473305
0.00474973
0.00476545
0.00478021
0.004794
0.00480683
0.00481867
0.00482953
0.00483941
0.00484832
0.00485626
0.00486323
0.00486923
0.00487427
0.00487837
0.00488152
0.00488373
0.00488502
0.0048854
0.00488487
0.00488346
0.00488117
0.00487801
0.00487402
0.00486919
0.00486355
0.00485712
0.00484992
0.00484196
0.00483326
0.00482385
0.00481374
0.00480296
0.00479153
0.00477946
0.00476677
0.00475349
0.00473964
0.00472527
0.00471044
0.0046952
0.00467963
0.00466384
0.00464793
0.004632
0.00461616
0.00460044
0.00458476
0.00456871
0.00455176
7.41546e-06
8.53648e-05
0.000181212
0.000263153
0.000329628
0.000383201
0.000426722
0.000462663
0.000493027
0.000519392
0.000542971
0.000564685
0.00058522
0.000605078
0.000624622
0.000644117
0.000663749
0.000683656
0.00070394
0.00072468
0.00074594
0.000767775
0.000790229
0.000813347
0.000837163
0.00086171
0.000887014
0.000913096
0.000939968
0.000967638
0.000996104
0.00102536
0.00105538
0.00108616
0.00111766
0.00114985
0.0011827
0.00121617
0.00125024
0.00128485
0.00131999
0.00135562
0.0013917
0.00142821
0.00146513
0.00150243
0.00154011
0.00157814
0.00161651
0.00165521
0.00169424
0.00173359