/*--------------------------------*- C++ -*----------------------------------*\
  =========                 |
  \\      /  F ield         | OpenFOAM: The Open Source CFD Toolbox
   \\    /   O peration     | Website:  https://openfoam.org
    \\  /    A nd           | Version:  12
     \\/     M anipulation  |
\*---------------------------------------------------------------------------*/
FoamFile
{
    format      ascii;
    class       volScalarField;
    location    "0.3";
    object      p;
}
// * * * * * * * * * * * * * * * * * * * * * * * * * * * * * * * * * * * * * //

dimensions      [0 2 -2 0 0 0 0];

internalField   nonuniform List<scalar> 
12225
(
-1.11049
-3.39352
-4.55605
-4.86434
-5.03275
-5.19265
-5.31745
-5.40613
-5.47604
-5.53742
-5.59206
-5.63979
-5.68095
-5.71486
-5.74043
-5.74741
-5.7455
-5.63909
-4.57799
-5.28013
-5.37042
-5.23548
-5.19556
-5.26303
-5.34401
-5.41014
-5.46747
-5.52125
-5.57126
-5.61635
-5.65626
-5.69011
-5.71751
-5.73148
-5.74483
-5.73066
-4.78274
-4.67981
-4.83665
-4.95889
-5.06642
-5.18892
-5.29745
-5.3804
-5.44794
-5.50818
-5.5628
-5.61158
-5.65467
-5.69183
-5.72351
-5.74663
-5.77542
-5.80878
-4.64544
-4.56734
-4.84348
-5.02232
-5.11693
-5.21426
-5.30962
-5.38747
-5.45241
-5.51102
-5.56479
-5.61335
-5.65687
-5.69548
-5.73024
-5.76122
-5.80006
-5.853
-4.65241
-4.66969
-4.90984
-5.05986
-5.13605
-5.22097
-5.31082
-5.38719
-5.45151
-5.50965
-5.56329
-5.61225
-5.65678
-5.69746
-5.73577
-5.77341
-5.81894
-5.87911
-4.71408
-4.75657
-4.93443
-5.06528
-5.14343
-5.22617
-5.31273
-5.38787
-5.45185
-5.50975
-5.56341
-5.61286
-5.65849
-5.70116
-5.74256
-5.78498
-5.83449
-5.89646
-4.77381
-4.81336
-4.94983
-5.07215
-5.1547
-5.23463
-5.31656
-5.38972
-5.45314
-5.51074
-5.56436
-5.61425
-5.66089
-5.7053
-5.74917
-5.79476
-5.84626
-5.90716
-4.82695
-4.86187
-4.97223
-5.08498
-5.16769
-5.24379
-5.32099
-5.39196
-5.45471
-5.51197
-5.56551
-5.61577
-5.66331
-5.70914
-5.75482
-5.80229
-5.85429
-5.91268
-4.87672
-4.90848
-4.99933
-5.10024
-5.18046
-5.25312
-5.32611
-5.39475
-5.45661
-5.51341
-5.56677
-5.61729
-5.66551
-5.71238
-5.75921
-5.80749
-5.85894
-5.9143
-4.92406
-4.9527
-5.02794
-5.11694
-5.19347
-5.26304
-5.33219
-5.39827
-5.45895
-5.51514
-5.5682
-5.61879
-5.66741
-5.71487
-5.76222
-5.81052
-5.86075
-5.91302
-4.9688
-4.9941
-5.05696
-5.13512
-5.20713
-5.27358
-5.33914
-5.40254
-5.46179
-5.5172
-5.56981
-5.62023
-5.66895
-5.71659
-5.76393
-5.81166
-5.8603
-5.90962
-5.00728
-5.02964
-5.08352
-5.15288
-5.22026
-5.28369
-5.34615
-5.40707
-5.46484
-5.51937
-5.57141
-5.62148
-5.67001
-5.71747
-5.7644
-5.81126
-5.85829
-5.90513
-5.04295
-5.06276
-5.10933
-5.17094
-5.23361
-5.29397
-5.35352
-5.41202
-5.4682
-5.52173
-5.57306
-5.62262
-5.67074
-5.71776
-5.76405
-5.80984
-5.85523
-5.89982
-5.08043
-5.09775
-5.13757
-5.19163
-5.24907
-5.30587
-5.36228
-5.4181
-5.47237
-5.52461
-5.57497
-5.62374
-5.67115
-5.71741
-5.76269
-5.80711
-5.85065
-5.89295
-5.11849
-5.1334
-5.16728
-5.21434
-5.26632
-5.31918
-5.37226
-5.42523
-5.47731
-5.52793
-5.57702
-5.62468
-5.67103
-5.71616
-5.76011
-5.8029
-5.84445
-5.88448
-5.15518
-5.16794
-5.19682
-5.23778
-5.28448
-5.33327
-5.38297
-5.43302
-5.4827
-5.53142
-5.57893
-5.62517
-5.67014
-5.71381
-5.75616
-5.79713
-5.83664
-5.8745
-5.18762
-5.19862
-5.22362
-5.25965
-5.30177
-5.34678
-5.39329
-5.44054
-5.48781
-5.53449
-5.58022
-5.6248
-5.66813
-5.71013
-5.75071
-5.7898
-5.82733
-5.86317
-5.21144
-5.22124
-5.24362
-5.2763
-5.31514
-5.35727
-5.40124
-5.44618
-5.49136
-5.53616
-5.58014
-5.62304
-5.6647
-5.70499
-5.74382
-5.78111
-5.81681
-5.85085
-5.21968
-5.22903
-5.25049
-5.282
-5.31966
-5.36063
-5.40341
-5.44714
-5.4911
-5.53466
-5.57736
-5.61893
-5.65919
-5.69804
-5.73537
-5.77115
-5.80534
-5.83794
-5.20458
-5.21462
-5.23759
-5.2712
-5.31095
-5.35349
-5.3973
-5.44169
-5.48604
-5.5297
-5.57224
-5.61343
-5.65316
-5.69133
-5.7279
-5.76284
-5.79617
-5.82789
-5.17828
-5.18946
-5.21522
-5.25291
-5.29662
-5.34212
-5.38809
-5.43421
-5.47986
-5.52433
-5.5673
-5.60865
-5.64834
-5.68633
-5.7226
-5.75717
-5.79007
-5.82137
-5.14326
-5.15563
-5.18563
-5.23006
-5.2795
-5.32856
-5.37722
-5.42582
-5.47343
-5.51917
-5.56285
-5.60462
-5.64451
-5.68253
-5.7187
-5.75307
-5.78573
-5.81676
-5.10259
-5.11518
-5.15052
-5.20505
-5.26211
-5.31504
-5.36652
-5.41782
-5.46748
-5.51454
-5.5591
-5.60144
-5.64168
-5.67983
-5.716
-5.75029
-5.78282
-5.8137
-5.05871
-5.07026
-5.11261
-5.17917
-5.2438
-5.30136
-5.35717
-5.41174
-5.46314
-5.51108
-5.55629
-5.59913
-5.63964
-5.67789
-5.71404
-5.74825
-5.78067
-5.81141
-5.01183
-5.01957
-5.08057
-5.16031
-5.22536
-5.28494
-5.34673
-5.4062
-5.45983
-5.50875
-5.55464
-5.59796
-5.63869
-5.67697
-5.71305
-5.74716
-5.77948
-5.81015
-4.96386
-4.94019
-5.05094
-5.15982
-5.22031
-5.2743
-5.33762
-5.39986
-5.455
-5.50486
-5.55156
-5.59548
-5.63654
-5.67496
-5.7111
-5.7452
-5.77748
-5.8081
-4.95453
-4.81018
-4.96917
-5.1353
-5.21971
-5.28062
-5.34529
-5.40631
-5.4599
-5.50887
-5.5551
-5.59857
-5.63917
-5.67716
-5.71287
-5.74658
-5.77856
-5.80897
-5.09993
-4.81611
-4.8508
-4.98118
-5.10066
-5.20755
-5.30147
-5.37708
-5.43915
-5.4942
-5.54474
-5.59111
-5.63367
-5.67303
-5.7097
-5.74409
-5.77669
-5.80816
-5.03673
-5.5364
-5.54646
-5.38713
-5.30604
-5.33013
-5.38413
-5.43337
-5.4783
-5.52266
-5.56609
-5.60729
-5.64591
-5.68215
-5.7162
-5.74817
-5.77832
-5.8085
-1.69804
-3.56858
-4.6398
-4.93277
-5.06751
-5.20413
-5.3159
-5.39573
-5.4585
-5.51432
-5.5654
-5.61184
-5.65419
-5.69321
-5.72931
-5.7625
-5.79244
-5.81737
-6.7168
-6.71676
-6.71706
-6.71766
-6.71846
-6.71941
-6.72052
-6.72181
-6.72328
-6.72497
-6.72691
-6.72912
-6.73164
-6.73451
-6.73777
-6.74146
-6.74562
-6.75028
-6.75548
-6.76128
-6.7677
-6.77478
-6.78258
-6.79113
-6.80047
-6.81065
-6.82172
-6.83374
-6.84676
-6.86081
-6.87592
-6.89208
-6.90929
-6.92772
-6.94773
-6.96971
-6.99377
-7.02009
-7.05005
-7.08427
-7.1137
-7.12732
-7.14143
-7.16533
-7.19069
-7.21807
-7.24667
-7.27624
-7.30657
-7.33749
-7.36887
-7.40058
-7.43251
-7.46453
-7.49655
-7.52846
-7.56013
-7.59146
-7.62234
-7.65263
-7.68221
-7.71096
-7.73873
-7.76539
-7.79078
-7.81475
-7.83716
-7.85782
-7.87658
-7.89327
-7.9077
-7.91971
-7.92909
-7.93568
-7.93928
-7.9397
-7.93676
-7.93026
-7.92002
-7.90584
-7.88754
-7.86493
-7.83783
-7.80607
-7.76946
-7.72784
-7.68104
-7.6289
-7.57126
-7.50797
-7.4389
-7.3639
-7.28285
-7.19563
-7.10214
-7.00227
-6.89601
-6.78336
-6.6643
-6.53859
-6.40606
-6.26642
-6.11987
-5.96644
-5.80618
-5.6391
-5.46523
-5.28463
-5.09734
-4.90344
-4.70302
-4.49619
-4.28307
-4.06379
-3.83851
-3.60739
-3.37062
-3.12839
-2.88091
-2.6284
-2.3711
-2.10926
-1.84313
-1.57298
-1.29909
-1.02174
-0.741226
-0.45785
-0.171917
0.116264
0.406379
0.698111
0.991142
1.28515
1.57983
1.87485
2.1699
2.46467
2.75887
3.05218
3.34431
3.63499
3.92393
4.21086
4.49553
4.77769
5.05711
5.33355
5.60681
5.87669
6.143
6.40556
6.66421
6.9188
7.1692
7.41527
7.65691
7.89401
8.12649
8.35426
8.57726
8.79542
9.0087
9.21709
9.42056
9.61907
9.81245
10.0006
10.1834
10.361
10.5334
10.7005
10.8624
11.0191
11.1707
11.3175
11.4605
11.6008
11.7477
11.9016
-6.71588
-6.71605
-6.71638
-6.71689
-6.71743
-6.71794
-6.71848
-6.71915
-6.72003
-6.72117
-6.72261
-6.72435
-6.72644
-6.72889
-6.73173
-6.73499
-6.73871
-6.74291
-6.74763
-6.75291
-6.75878
-6.76528
-6.77246
-6.78034
-6.78898
-6.79842
-6.8087
-6.81986
-6.83192
-6.84487
-6.85869
-6.87339
-6.88906
-6.90579
-6.92351
-6.94181
-6.96018
-6.97843
-6.99586
-7.0099
-7.02462
-7.0588
-7.1018
-7.13392
-7.16434
-7.19441
-7.2245
-7.25489
-7.28566
-7.31678
-7.34822
-7.37989
-7.41174
-7.44365
-7.47554
-7.50732
-7.53887
-7.57009
-7.60087
-7.63108
-7.66062
-7.68934
-7.71712
-7.74381
-7.76928
-7.79336
-7.81591
-7.83676
-7.85574
-7.87269
-7.88743
-7.89978
-7.90955
-7.91657
-7.92065
-7.92159
-7.91921
-7.91332
-7.90373
-7.89025
-7.87269
-7.85088
-7.82462
-7.79374
-7.75807
-7.71743
-7.67166
-7.6206
-7.56409
-7.50199
-7.43416
-7.36047
-7.28078
-7.19498
-7.10296
-7.00461
-6.89982
-6.78847
-6.67045
-6.54552
-6.41369
-6.27534
-6.13028
-5.97844
-5.8198
-5.65437
-5.48216
-5.30322
-5.1176
-4.92537
-4.72661
-4.52144
-4.30996
-4.09231
-3.86864
-3.63912
-3.40392
-3.16323
-2.91726
-2.66623
-2.41037
-2.14992
-1.88515
-1.61631
-1.34368
-1.06755
-0.788197
-0.505927
-0.221043
0.0661479
0.355332
0.646195
0.93842
1.23169
1.52568
1.82009
2.11459
2.40888
2.70266
2.99561
3.28746
3.5779
3.86668
4.15351
4.43813
4.7203
4.99979
5.27635
5.54978
5.81988
6.08645
6.34932
6.60833
6.86331
7.11413
7.36066
7.60278
7.84039
8.0734
8.30173
8.5253
8.74406
8.95796
9.16698
9.37107
9.5702
9.76421
9.95298
10.1365
10.3148
10.4878
10.6557
10.8183
10.9759
11.1286
11.2767
11.4214
11.5639
11.7142
11.8621
-6.71294
-6.71375
-6.71464
-6.71548
-6.7161
-6.71655
-6.71696
-6.71747
-6.71816
-6.7191
-6.72033
-6.72188
-6.72377
-6.72603
-6.7287
-6.73179
-6.73535
-6.7394
-6.74398
-6.74912
-6.75486
-6.76123
-6.76828
-6.77604
-6.78455
-6.79384
-6.80397
-6.81496
-6.82683
-6.83961
-6.8533
-6.86794
-6.88364
-6.90054
-6.91871
-6.93804
-6.95837
-6.97969
-7.00146
-7.02204
-7.04208
-7.0666
-7.0951
-7.12332
-7.15215
-7.18146
-7.21113
-7.24117
-7.27154
-7.30223
-7.33319
-7.36436
-7.39567
-7.42705
-7.45841
-7.48966
-7.5207
-7.55144
-7.58176
-7.61155
-7.64069
-7.66906
-7.69652
-7.72294
-7.74817
-7.77207
-7.79448
-7.81523
-7.83417
-7.85113
-7.86593
-7.8784
-7.88834
-7.89559
-7.89996
-7.90124
-7.89927
-7.89385
-7.88479
-7.8719
-7.85499
-7.83389
-7.80841
-7.77837
-7.74359
-7.70391
-7.65917
-7.60919
-7.55382
-7.49293
-7.42635
-7.35397
-7.27564
-7.19126
-7.10069
-7.00384
-6.90059
-6.7908
-6.67432
-6.55127
-6.42142
-6.28489
-6.14165
-5.99166
-5.83489
-5.67136
-5.50107
-5.32405
-5.14037
-4.95009
-4.75328
-4.55005
-4.34051
-4.12479
-3.90304
-3.67541
-3.44208
-3.20324
-2.95908
-2.70984
-2.45572
-2.19698
-1.93387
-1.66664
-1.39557
-1.12094
-0.843041
-0.562159
-0.278599
0.00733266
0.295326
0.585067
0.87624
1.16853
1.46162
1.7552
2.04895
2.34256
2.63573
2.92817
3.21956
3.50964
3.79811
4.08472
4.36919
4.65128
4.93075
5.20736
5.48091
5.75119
6.018
6.28116
6.5405
6.79588
7.04713
7.29414
7.53679
7.77496
8.00856
8.2375
8.4617
8.6811
8.89565
9.1053
9.31001
9.50972
9.70438
9.89392
10.0783
10.2574
10.4313
10.6001
10.7637
10.9223
11.0762
11.2257
11.3724
11.5166
11.6695
11.8073
-6.70825
-6.70973
-6.71147
-6.71299
-6.71407
-6.71482
-6.71545
-6.7161
-6.71687
-6.71783
-6.71906
-6.72058
-6.72245
-6.72468
-6.72731
-6.73037
-6.73389
-6.7379
-6.74244
-6.74754
-6.75324
-6.75956
-6.76656
-6.77426
-6.7827
-6.79191
-6.80194
-6.81282
-6.82457
-6.83721
-6.85076
-6.86527
-6.88077
-6.89733
-6.915
-6.93373
-6.95351
-6.97436
-6.9962
-7.01877
-7.04214
-7.06683
-7.09286
-7.11985
-7.14769
-7.17618
-7.20519
-7.23464
-7.26449
-7.29468
-7.32515
-7.35584
-7.38668
-7.4176
-7.44852
-7.47935
-7.50999
-7.54036
-7.57033
-7.59981
-7.62868
-7.6568
-7.68405
-7.7103
-7.7354
-7.7592
-7.78156
-7.8023
-7.82127
-7.8383
-7.85322
-7.86584
-7.87599
-7.88348
-7.88813
-7.88975
-7.88816
-7.88316
-7.87457
-7.86219
-7.84584
-7.82535
-7.80051
-7.77116
-7.73713
-7.69823
-7.65431
-7.6052
-7.55075
-7.4908
-7.42522
-7.35386
-7.27659
-7.19329
-7.10384
-7.00812
-6.90602
-6.79743
-6.68224
-6.56046
-6.43203
-6.29693
-6.15512
-6.00657
-5.85126
-5.6892
-5.5204
-5.34488
-5.16271
-4.97393
-4.77863
-4.5769
-4.36887
-4.15464
-3.93437
-3.70821
-3.47633
-3.23892
-2.99618
-2.74832
-2.49556
-2.23815
-1.97633
-1.71036
-1.44051
-1.16706
-0.89029
-0.610496
-0.327977
-0.043037
0.244016
0.53287
0.82321
1.11472
1.40709
1.70001
1.99315
2.28622
2.57891
2.87091
3.16194
3.4517
3.73993
4.02633
4.31067
4.59268
4.87212
5.14876
5.42238
5.69278
5.95976
6.22314
6.48274
6.73841
6.99
7.23738
7.48043
7.71902
7.95307
8.18248
8.40718
8.6271
8.84219
9.05238
9.25761
9.45779
9.65291
9.84295
10.0279
10.2076
10.3821
10.5515
10.7158
10.8752
11.0299
11.1803
11.3279
11.4722
11.6241
11.7497
-6.70283
-6.70502
-6.70781
-6.71019
-6.71188
-6.71311
-6.71412
-6.71506
-6.71607
-6.71723
-6.71861
-6.72028
-6.72226
-6.7246
-6.72734
-6.7305
-6.73412
-6.73822
-6.74286
-6.74806
-6.75385
-6.76027
-6.76736
-6.77516
-6.7837
-6.79303
-6.80317
-6.81416
-6.82603
-6.83881
-6.85252
-6.86719
-6.88286
-6.89956
-6.91729
-6.93604
-6.95579
-6.97651
-6.99816
-7.02075
-7.04441
-7.06921
-7.095
-7.12159
-7.1489
-7.17684
-7.20533
-7.2343
-7.26369
-7.29345
-7.3235
-7.3538
-7.38426
-7.41482
-7.4454
-7.47591
-7.50626
-7.53636
-7.56609
-7.59535
-7.62403
-7.65199
-7.67911
-7.70526
-7.73029
-7.75405
-7.7764
-7.79716
-7.81619
-7.8333
-7.84833
-7.86109
-7.87142
-7.87912
-7.884
-7.88589
-7.88459
-7.87992
-7.87168
-7.85969
-7.84376
-7.82371
-7.79935
-7.77051
-7.737
-7.69867
-7.65534
-7.60685
-7.55304
-7.49377
-7.42889
-7.35826
-7.28175
-7.19922
-7.11057
-7.01566
-6.91441
-6.80671
-6.69248
-6.57166
-6.44421
-6.3101
-6.16929
-6.02174
-5.86744
-5.70639
-5.53861
-5.36412
-5.18296
-4.99521
-4.80093
-4.60023
-4.39321
-4.18
-3.96073
-3.73557
-3.50467
-3.26824
-3.02645
-2.77953
-2.52769
-2.27118
-2.01024
-1.74512
-1.4761
-1.20345
-0.927458
-0.648408
-0.366602
-0.0823407
0.204067
0.49231
0.782076
1.07305
1.36492
1.65737
1.9501
2.24278
2.53513
2.82683
3.11759
3.40713
3.69517
3.98144
4.26567
4.54761
4.82702
5.10366
5.37733
5.6478
5.91489
6.17841
6.43818
6.69405
6.94587
7.1935
7.43681
7.6757
7.91007
8.13982
8.36488
8.58516
8.80062
9.01117
9.21674
9.41724
9.61265
9.80298
9.9882
10.1683
10.3432
10.513
10.6777
10.8374
10.9925
11.1433
11.2908
11.434
11.5831
11.6971
-6.69766
-6.70058
-6.70433
-6.70758
-6.70996
-6.71175
-6.71322
-6.71457
-6.71592
-6.71739
-6.71904
-6.72096
-6.72318
-6.72575
-6.72871
-6.73209
-6.73593
-6.74025
-6.74511
-6.75053
-6.75655
-6.7632
-6.77053
-6.77857
-6.78737
-6.79695
-6.80735
-6.81862
-6.83077
-6.84383
-6.85783
-6.87279
-6.88873
-6.90567
-6.9236
-6.94253
-6.96244
-6.98327
-7.00501
-7.02764
-7.05118
-7.07567
-7.10103
-7.12717
-7.15402
-7.18151
-7.20957
-7.23813
-7.26714
-7.29654
-7.32626
-7.35624
-7.38641
-7.4167
-7.44703
-7.47731
-7.50746
-7.53737
-7.56695
-7.59608
-7.62465
-7.65253
-7.67959
-7.7057
-7.73072
-7.75449
-7.77687
-7.7977
-7.8168
-7.83401
-7.84916
-7.86207
-7.87255
-7.88043
-7.88552
-7.88763
-7.88657
-7.88215
-7.87419
-7.86249
-7.84687
-7.82715
-7.80313
-7.77465
-7.74153
-7.7036
-7.66068
-7.61262
-7.55927
-7.50047
-7.43608
-7.36595
-7.28996
-7.20798
-7.11989
-7.02557
-6.92491
-6.81784
-6.70428
-6.58414
-6.45737
-6.32393
-6.18379
-6.03691
-5.88329
-5.72291
-5.5558
-5.38198
-5.2015
-5.01442
-4.82082
-4.62079
-4.41444
-4.2019
-3.98329
-3.75879
-3.52855
-3.29275
-3.0516
-2.8053
-2.55408
-2.29817
-2.03782
-1.77328
-1.50482
-1.23271
-0.957245
-0.678704
-0.397385
-0.113592
0.172369
0.460187
0.749551
1.04015
1.33166
1.62379
1.91621
2.20861
2.5007
2.79218
3.08274
3.37211
3.66
3.94615
4.23028
4.51215
4.79152
5.06815
5.34182
5.61233
5.87948
6.14307
6.40294
6.65893
6.91088
7.15867
7.40216
7.64125
7.87583
8.1058
8.33109
8.55161
8.7673
8.97807
9.18385
9.38456
9.58017
9.7707
9.95612
10.1364
10.3115
10.4816
10.6465
10.8065
10.9617
11.1123
11.2593
11.4008
11.5468
11.6505
-6.69371
-6.69718
-6.70173
-6.70575
-6.70878
-6.71112
-6.71308
-6.71486
-6.7166
-6.71843
-6.72043
-6.72267
-6.7252
-6.72807
-6.73132
-6.735
-6.73913
-6.74375
-6.74891
-6.75463
-6.76096
-6.76793
-6.77558
-6.78395
-6.79307
-6.80298
-6.81371
-6.82529
-6.83776
-6.85113
-6.86542
-6.88065
-6.89683
-6.91397
-6.93207
-6.95111
-6.97108
-6.99196
-7.01372
-7.03634
-7.05981
-7.08411
-7.1092
-7.13504
-7.16156
-7.18873
-7.21647
-7.24473
-7.27346
-7.3026
-7.33208
-7.36184
-7.39182
-7.42194
-7.45211
-7.48226
-7.5123
-7.54213
-7.57164
-7.60072
-7.62926
-7.65713
-7.68421
-7.71035
-7.73541
-7.75925
-7.78171
-7.80262
-7.82183
-7.83916
-7.85444
-7.86749
-7.87813
-7.88617
-7.89143
-7.89372
-7.89285
-7.88863
-7.88087
-7.86938
-7.85398
-7.83449
-7.81071
-7.78247
-7.7496
-7.71193
-7.66929
-7.62151
-7.56845
-7.50995
-7.44588
-7.37608
-7.30043
-7.2188
-7.13107
-7.03714
-6.93688
-6.83023
-6.71708
-6.59737
-6.47103
-6.33802
-6.1983
-6.05184
-5.89863
-5.73867
-5.57197
-5.39857
-5.2185
-5.03184
-4.83865
-4.63904
-4.43311
-4.22098
-4.00279
-3.7787
-3.54887
-3.31348
-3.07274
-2.82684
-2.57602
-2.3205
-2.06054
-1.79638
-1.5283
-1.25656
-0.981447
-0.703254
-0.422274
-0.138809
0.146836
0.43435
0.723423
1.01374
1.30499
1.59687
1.88905
2.18124
2.47313
2.76442
3.05481
3.34403
3.63179
3.91782
4.20185
4.48364
4.76295
5.03953
5.31318
5.58367
5.85081
6.11443
6.37433
6.63038
6.8824
7.13027
7.37387
7.61306
7.84776
8.07787
8.30329
8.52396
8.73978
8.95069
9.15661
9.35746
9.55321
9.74388
9.92944
10.1099
10.2851
10.4553
10.6203
10.7803
10.9355
11.0858
11.2319
11.3714
11.5146
11.6092
-6.69138
-6.69528
-6.70045
-6.70509
-6.70868
-6.71152
-6.71394
-6.71614
-6.71828
-6.72048
-6.72284
-6.72542
-6.72828
-6.73148
-6.73506
-6.73907
-6.74353
-6.74849
-6.75398
-6.76004
-6.7667
-6.77401
-6.78201
-6.79072
-6.80018
-6.81042
-6.82148
-6.83338
-6.84614
-6.85979
-6.87434
-6.8898
-6.90618
-6.92348
-6.9417
-6.96082
-6.98084
-7.00173
-7.02347
-7.04605
-7.06943
-7.09361
-7.11855
-7.1442
-7.17053
-7.19749
-7.22503
-7.25311
-7.28167
-7.31065
-7.33999
-7.36964
-7.39952
-7.42956
-7.45967
-7.48979
-7.51981
-7.54963
-7.57916
-7.60827
-7.63686
-7.66479
-7.69194
-7.71817
-7.74333
-7.76727
-7.78984
-7.81088
-7.83021
-7.84767
-7.86308
-7.87627
-7.88704
-7.89522
-7.90062
-7.90305
-7.90232
-7.89823
-7.89061
-7.87926
-7.864
-7.84464
-7.821
-7.79291
-7.76018
-7.72265
-7.68015
-7.63253
-7.57962
-7.52129
-7.45738
-7.38776
-7.31229
-7.23086
-7.14334
-7.04961
-6.94958
-6.84316
-6.73024
-6.61076
-6.48465
-6.35186
-6.21235
-6.06611
-5.91311
-5.75336
-5.58687
-5.41367
-5.23382
-5.04737
-4.85441
-4.65501
-4.4493
-4.2374
-4.01944
-3.79557
-3.56598
-3.33083
-3.09032
-2.84467
-2.59409
-2.33882
-2.07909
-1.81518
-1.54734
-1.27584
-1.00097
-0.723014
-0.442268
-0.159033
0.126385
0.413678
0.702533
0.99264
1.28369
1.57536
1.86736
2.15937
2.45109
2.74221
3.03245
3.32153
3.60915
3.89506
4.17898
4.46067
4.73988
5.01639
5.28997
5.56041
5.82751
6.0911
6.35099
6.60703
6.85907
7.10696
7.35059
7.58983
7.82458
8.05475
8.28024
8.50098
8.71688
8.92786
9.13386
9.3348
9.53065
9.72141
9.90706
10.0876
10.2629
10.4331
10.5981
10.7581
10.913
11.0627
11.2078
11.3453
11.4859
11.5725
-6.69099
-6.69517
-6.70076
-6.70585
-6.70988
-6.71314
-6.71595
-6.71854
-6.72104
-6.72359
-6.72628
-6.72918
-6.73237
-6.73589
-6.73979
-6.74411
-6.74889
-6.75417
-6.75998
-6.76636
-6.77335
-6.78099
-6.7893
-6.79832
-6.80809
-6.81863
-6.82997
-6.84214
-6.85516
-6.86904
-6.88379
-6.89943
-6.91596
-6.93338
-6.95169
-6.97087
-6.99092
-7.01182
-7.03355
-7.05609
-7.07943
-7.10353
-7.12838
-7.15393
-7.18016
-7.20701
-7.23446
-7.26245
-7.29094
-7.31987
-7.34917
-7.3788
-7.40868
-7.43873
-7.46888
-7.49904
-7.52912
-7.55902
-7.58864
-7.61785
-7.64655
-7.6746
-7.70187
-7.72823
-7.75352
-7.7776
-7.8003
-7.82146
-7.84093
-7.85851
-7.87405
-7.88735
-7.89823
-7.90652
-7.91201
-7.91453
-7.91388
-7.90987
-7.90231
-7.89103
-7.87582
-7.85651
-7.83292
-7.80486
-7.77217
-7.73467
-7.69221
-7.64462
-7.59175
-7.53346
-7.46959
-7.40002
-7.32462
-7.24324
-7.15579
-7.06214
-6.96219
-6.85584
-6.74299
-6.62357
-6.49752
-6.36479
-6.22534
-6.07914
-5.92619
-5.76649
-5.60005
-5.42691
-5.24712
-5.06074
-4.86784
-4.66852
-4.46288
-4.25107
-4.0332
-3.80944
-3.57995
-3.34491
-3.10453
-2.859
-2.60855
-2.35341
-2.09383
-1.83006
-1.56237
-1.29104
-1.01633
-0.738538
-0.457959
-0.174893
0.110354
0.397475
0.686158
0.976092
1.26697
1.55847
1.8503
2.14215
2.4337
2.72467
3.01475
3.30368
3.59116
3.87692
4.16071
4.44228
4.72137
4.99777
5.27125
5.5416
5.80863
6.07214
6.33198
6.58797
6.83996
7.08782
7.33143
7.57066
7.80541
8.03558
8.26109
8.48184
8.69776
8.90878
9.11481
9.3158
9.51171
9.70252
9.88821
10.0688
10.2441
10.4143
10.5793
10.739
10.8935
11.0426
11.1865
11.322
11.4603
11.5401
-6.69264
-6.69694
-6.70276
-6.70813
-6.71246
-6.71604
-6.71917
-6.72206
-6.72487
-6.72771
-6.73068
-6.73387
-6.73733
-6.74113
-6.7453
-6.74989
-6.75494
-6.76049
-6.76658
-6.77323
-6.78049
-6.78839
-6.79696
-6.80624
-6.81625
-6.82702
-6.83859
-6.85096
-6.86416
-6.87821
-6.89311
-6.90888
-6.92552
-6.94302
-6.96139
-6.98062
-7.0007
-7.02161
-7.04334
-7.06588
-7.0892
-7.11329
-7.13811
-7.16363
-7.18984
-7.21668
-7.24413
-7.27212
-7.30063
-7.32959
-7.35895
-7.38864
-7.4186
-7.44875
-7.479
-7.50929
-7.5395
-7.56953
-7.59929
-7.62866
-7.6575
-7.68571
-7.71313
-7.73964
-7.76507
-7.78929
-7.81212
-7.83341
-7.85299
-7.87067
-7.8863
-7.89968
-7.91063
-7.91896
-7.92449
-7.92704
-7.9264
-7.92239
-7.91483
-7.90352
-7.88828
-7.86893
-7.84529
-7.81718
-7.78443
-7.74687
-7.70434
-7.65669
-7.60375
-7.54539
-7.48147
-7.41184
-7.33638
-7.25496
-7.16746
-7.07377
-6.97377
-6.86736
-6.75445
-6.63497
-6.50885
-6.37604
-6.23652
-6.09025
-5.93723
-5.77745
-5.61095
-5.43775
-5.25791
-5.07148
-4.87854
-4.67919
-4.47354
-4.26171
-4.04385
-3.8201
-3.59063
-3.35563
-3.11529
-2.86981
-2.61943
-2.36436
-2.10487
-1.8412
-1.57361
-1.30238
-1.02779
-0.750131
-0.469688
-0.186763
0.0983361
0.385304
0.67383
0.963605
1.25432
1.54565
1.83731
2.12898
2.42036
2.71115
3.00107
3.28982
3.57713
3.86273
4.14637
4.42778
4.70672
4.98297
5.25632
5.52653
5.79344
6.05684
6.31656
6.57245
6.82436
7.07214
7.31568
7.55485
7.78955
8.01968
8.24516
8.46589
8.68179
8.8928
9.09883
9.29983
9.49576
9.68659
9.87229
10.0528
10.2282
10.3983
10.5631
10.7226
10.8766
11.0249
11.1676
11.3011
11.4373
11.5112
-6.69623
-6.70054
-6.7064
-6.71189
-6.7164
-6.72018
-6.72353
-6.72664
-6.72967
-6.73272
-6.73591
-6.73931
-6.74297
-6.74697
-6.75134
-6.75613
-6.76138
-6.76712
-6.7734
-6.78025
-6.78769
-6.79578
-6.80453
-6.81398
-6.82416
-6.83509
-6.8468
-6.85931
-6.87263
-6.88679
-6.90179
-6.91763
-6.93434
-6.9519
-6.97031
-6.98958
-7.00968
-7.03062
-7.05238
-7.07494
-7.09829
-7.1224
-7.14726
-7.17283
-7.19908
-7.22599
-7.2535
-7.28159
-7.31019
-7.33926
-7.36874
-7.39856
-7.42867
-7.45897
-7.48939
-7.51984
-7.55022
-7.58043
-7.61036
-7.6399
-7.66891
-7.69727
-7.72485
-7.75149
-7.77706
-7.80139
-7.82432
-7.8457
-7.86534
-7.88308
-7.89874
-7.91213
-7.92308
-7.93139
-7.93689
-7.93938
-7.93867
-7.93458
-7.92692
-7.9155
-7.90015
-7.88067
-7.85689
-7.82863
-7.79573
-7.75802
-7.71534
-7.66752
-7.61444
-7.55592
-7.49185
-7.42208
-7.34648
-7.26493
-7.1773
-7.08346
-6.98331
-6.87673
-6.76365
-6.644
-6.51771
-6.38474
-6.24504
-6.09861
-5.94543
-5.78551
-5.61886
-5.44553
-5.26556
-5.07901
-4.88598
-4.68654
-4.48081
-4.26892
-4.051
-3.82722
-3.59773
-3.36272
-3.12239
-2.87693
-2.62658
-2.37157
-2.11214
-1.84854
-1.58104
-1.30992
-1.03544
-0.7579
-0.477595
-0.194819
0.0901227
0.376925
0.66528
0.954876
1.2454
1.53655
1.82801
2.11948
2.41066
2.70125
2.99096
3.27951
3.56662
3.85202
4.13545
4.41666
4.69541
4.97148
5.24463
5.51467
5.78141
6.04464
6.30421
6.55996
6.81173
7.05939
7.30281
7.54188
7.77649
8.00654
8.23194
8.4526
8.66845
8.87941
9.08542
9.2864
9.48232
9.67314
9.85882
10.0393
10.2146
10.3846
10.5492
10.7084
10.8619
11.0093
11.1508
11.2824
11.4166
11.4857
-6.7016
-6.70581
-6.71157
-6.71703
-6.72158
-6.72545
-6.72891
-6.73214
-6.73529
-6.73847
-6.74177
-6.74528
-6.74906
-6.75316
-6.75764
-6.76253
-6.76788
-6.77372
-6.78009
-6.78704
-6.79458
-6.80276
-6.8116
-6.82114
-6.8314
-6.84241
-6.85419
-6.86677
-6.88015
-6.89436
-6.9094
-6.92529
-6.94203
-6.95963
-6.97808
-6.99738
-7.01752
-7.0385
-7.0603
-7.08292
-7.10633
-7.13052
-7.15546
-7.18112
-7.20748
-7.2345
-7.26214
-7.29037
-7.31912
-7.34835
-7.378
-7.408
-7.43828
-7.46876
-7.49937
-7.53
-7.56056
-7.59094
-7.62104
-7.65073
-7.67988
-7.70837
-7.73606
-7.7628
-7.78844
-7.81282
-7.83579
-7.85718
-7.87681
-7.89452
-7.91012
-7.92344
-7.9343
-7.9425
-7.94786
-7.9502
-7.94933
-7.94506
-7.93721
-7.92559
-7.91002
-7.89032
-7.86632
-7.83783
-7.8047
-7.76676
-7.72385
-7.67581
-7.6225
-7.56377
-7.49948
-7.4295
-7.35371
-7.27196
-7.18411
-7.09004
-6.98964
-6.88282
-6.7695
-6.64961
-6.52308
-6.38987
-6.24996
-6.10331
-5.94992
-5.7898
-5.62297
-5.44946
-5.26934
-5.08265
-4.88948
-4.68993
-4.48411
-4.27214
-4.05416
-3.83033
-3.60082
-3.3658
-3.12548
-2.88005
-2.62975
-2.3748
-2.11545
-1.85195
-1.58456
-1.31356
-1.03922
-0.761832
-0.481693
-0.199096
0.0856567
0.37226
0.660406
0.949784
1.24009
1.531
1.82222
2.11344
2.40437
2.69471
2.98417
3.27246
3.55931
3.84445
4.12763
4.40859
4.68709
4.96291
5.23583
5.50565
5.77216
6.03518
6.29455
6.5501
6.80169
7.04917
7.29244
7.53136
7.76583
7.99575
8.22104
8.44161
8.65738
8.86827
9.07421
9.27515
9.47104
9.66183
9.84747
10.0279
10.2031
10.3729
10.5373
10.6961
10.849
10.9956
11.1358
11.2656
11.3979
11.4629
-6.70851
-6.71254
-6.71809
-6.72339
-6.72787
-6.73171
-6.73516
-6.7384
-6.74155
-6.74473
-6.74804
-6.75155
-6.75532
-6.75942
-6.76389
-6.76877
-6.77411
-6.77995
-6.78632
-6.79326
-6.8008
-6.80898
-6.81782
-6.82736
-6.83763
-6.84864
-6.86042
-6.873
-6.88639
-6.9006
-6.91565
-6.93155
-6.94831
-6.96592
-6.98439
-7.00372
-7.02391
-7.04494
-7.06681
-7.08951
-7.11301
-7.13729
-7.16235
-7.18814
-7.21463
-7.2418
-7.2696
-7.29799
-7.32691
-7.35631
-7.38613
-7.41631
-7.44676
-7.47741
-7.50817
-7.53895
-7.56964
-7.60015
-7.63035
-7.66013
-7.68935
-7.71788
-7.74559
-7.77233
-7.79794
-7.82228
-7.84517
-7.86646
-7.88597
-7.90353
-7.91897
-7.9321
-7.94274
-7.95072
-7.95584
-7.95792
-7.95678
-7.95223
-7.94409
-7.93218
-7.91632
-7.89632
-7.87202
-7.84324
-7.80982
-7.77159
-7.72839
-7.68008
-7.6265
-7.56751
-7.50298
-7.43277
-7.35673
-7.27471
-7.18657
-7.09221
-6.99152
-6.88441
-6.7708
-6.65063
-6.52383
-6.39037
-6.25021
-6.10333
-5.94972
-5.7894
-5.62239
-5.44872
-5.26844
-5.08162
-4.88834
-4.6887
-4.48281
-4.27078
-4.05277
-3.82893
-3.59942
-3.36443
-3.12416
-2.87881
-2.62859
-2.37375
-2.11453
-1.85117
-1.58394
-1.31311
-1.03897
-0.761787
-0.481872
-0.199513
0.0849891
0.37133
0.659202
0.948297
1.23831
1.52892
1.81983
2.11075
2.40136
2.69138
2.98051
3.26848
3.55501
3.83983
4.12268
4.40333
4.68152
4.95704
5.22966
5.49918
5.76541
6.02817
6.28728
6.54258
6.79394
7.04121
7.28426
7.52299
7.75729
7.98706
8.2122
8.43264
8.64829
8.85909
9.06495
9.26583
9.46166
9.6524
9.83798
10.0183
10.1934
10.3631
10.5272
10.6855
10.8379
10.9835
11.1225
11.2506
11.3811
11.4429
-6.71673
-6.72054
-6.7258
-6.73085
-6.73514
-6.73883
-6.74214
-6.74524
-6.74826
-6.75131
-6.75448
-6.75785
-6.76149
-6.76546
-6.7698
-6.77456
-6.77978
-6.7855
-6.79177
-6.7986
-6.80605
-6.81414
-6.8229
-6.83236
-6.84255
-6.8535
-6.86522
-6.87774
-6.89108
-6.90526
-6.92028
-6.93616
-6.9529
-6.97052
-6.989
-7.00836
-7.02859
-7.04967
-7.07161
-7.09438
-7.11798
-7.14237
-7.16754
-7.19345
-7.22008
-7.24738
-7.27531
-7.30383
-7.33289
-7.36242
-7.39236
-7.42264
-7.45319
-7.48392
-7.51475
-7.54557
-7.5763
-7.60681
-7.63699
-7.66672
-7.69587
-7.72431
-7.7519
-7.77849
-7.80393
-7.82806
-7.85073
-7.87177
-7.89102
-7.90829
-7.92342
-7.93623
-7.94654
-7.95417
-7.95893
-7.96065
-7.95914
-7.95423
-7.94572
-7.93344
-7.91722
-7.89687
-7.87222
-7.84311
-7.80937
-7.77083
-7.72734
-7.67874
-7.62489
-7.56565
-7.50088
-7.43041
-7.35408
-7.27174
-7.18329
-7.08861
-6.98762
-6.88021
-6.76632
-6.64588
-6.51883
-6.38513
-6.24474
-6.09766
-5.94387
-5.78339
-5.61623
-5.44243
-5.26205
-5.07515
-4.88181
-4.68213
-4.47622
-4.26421
-4.04623
-3.82243
-3.593
-3.35811
-3.11796
-2.87275
-2.6227
-2.36805
-2.10903
-1.8459
-1.57891
-1.30835
-1.03448
-0.757598
-0.477993
-0.195959
0.0882054
0.374196
0.661707
0.950431
1.24006
1.53029
1.82081
2.11132
2.40153
2.69115
2.97988
3.26744
3.55357
3.83799
4.12045
4.40071
4.67852
4.95366
5.22592
5.49508
5.76097
6.0234
6.28219
6.53719
6.78826
7.03526
7.27807
7.51657
7.75065
7.98022
8.20519
8.42547
8.64099
8.85167
9.05743
9.25823
9.45399
9.64466
9.83017
10.0104
10.1854
10.3548
10.5187
10.6766
10.8282
10.973
11.1108
11.2373
11.366
11.4252
-6.72611
-6.72968
-6.73461
-6.73933
-6.74331
-6.7467
-6.74971
-6.75251
-6.75523
-6.75798
-6.76085
-6.76394
-6.7673
-6.771
-6.77508
-6.77959
-6.78458
-6.79008
-6.79614
-6.80278
-6.81004
-6.81795
-6.82655
-6.83586
-6.84591
-6.85672
-6.86833
-6.88074
-6.89399
-6.90808
-6.92303
-6.93885
-6.95555
-6.97313
-6.9916
-7.01095
-7.03119
-7.05229
-7.07426
-7.09708
-7.12072
-7.14516
-7.17039
-7.19636
-7.22303
-7.25038
-7.27835
-7.30689
-7.33596
-7.36548
-7.3954
-7.42564
-7.45612
-7.48677
-7.51748
-7.54817
-7.57873
-7.60905
-7.63903
-7.66852
-7.69741
-7.72557
-7.75285
-7.77911
-7.8042
-7.82797
-7.85026
-7.8709
-7.88973
-7.90657
-7.92127
-7.93364
-7.94351
-7.95069
-7.95501
-7.95629
-7.95435
-7.94901
-7.94009
-7.92742
-7.91081
-7.8901
-7.8651
-7.83566
-7.80161
-7.76278
-7.71902
-7.67018
-7.61611
-7.55665
-7.49162
-7.42086
-7.34421
-7.26156
-7.17281
-7.07785
-6.97658
-6.86892
-6.75479
-6.63413
-6.50688
-6.373
-6.23246
-6.08524
-5.93134
-5.77077
-5.60355
-5.42972
-5.24932
-5.06243
-4.86912
-4.6695
-4.46368
-4.25177
-4.03392
-3.81029
-3.58104
-3.34636
-3.10644
-2.86148
-2.61171
-2.35736
-2.09865
-1.83586
-1.56923
-1.29905
-1.02557
-0.749098
-0.469916
-0.188319
0.0953953
0.380924
0.667964
0.956208
1.24535
1.53508
1.82511
2.11512
2.40483
2.69394
2.98217
3.26924
3.55487
3.8388
4.12078
4.40057
4.67791
4.9526
5.22442
5.49317
5.75864
6.02067
6.27909
6.53374
6.78447
7.03115
7.27366
7.51189
7.74572
7.97506
8.19983
8.41993
8.63529
8.84583
9.05149
9.25219
9.44787
9.63847
9.8239
10.0041
10.1789
10.3481
10.5116
10.6691
10.8201
10.964
11.1006
11.2256
11.3526
11.4099
-6.73695
-6.74031
-6.74489
-6.74919
-6.75271
-6.7556
-6.75809
-6.76036
-6.76256
-6.76479
-6.76717
-6.76978
-6.77269
-6.77596
-6.77964
-6.78378
-6.78841
-6.79358
-6.79931
-6.80566
-6.81263
-6.82028
-6.82862
-6.83769
-6.84751
-6.85811
-6.86951
-6.88174
-6.8948
-6.90873
-6.92352
-6.9392
-6.95576
-6.97322
-6.99158
-7.01083
-7.03096
-7.05197
-7.07384
-7.09656
-7.1201
-7.14443
-7.16954
-7.19538
-7.22191
-7.2491
-7.27689
-7.30524
-7.33408
-7.36336
-7.39301
-7.42296
-7.45313
-7.48343
-7.51379
-7.54409
-7.57425
-7.60414
-7.63367
-7.6627
-7.69111
-7.71877
-7.74555
-7.77128
-7.79584
-7.81907
-7.84081
-7.86091
-7.87919
-7.89549
-7.90965
-7.92149
-7.93083
-7.9375
-7.94133
-7.94213
-7.93973
-7.93396
-7.92462
-7.91156
-7.89459
-7.87355
-7.84825
-7.81854
-7.78424
-7.7452
-7.70127
-7.65227
-7.59803
-7.53836
-7.47307
-7.40202
-7.32511
-7.24221
-7.15323
-7.05806
-6.95661
-6.84878
-6.73452
-6.61374
-6.4864
-6.35245
-6.21187
-6.06464
-5.91076
-5.75022
-5.58307
-5.40933
-5.22905
-5.04231
-4.84918
-4.64976
-4.44416
-4.23251
-4.01494
-3.79162
-3.5627
-3.32838
-3.08884
-2.84429
-2.59495
-2.34105
-2.08282
-1.82052
-1.5544
-1.28474
-1.01181
-0.735901
-0.457292
-0.17628