/*--------------------------------*- C++ -*----------------------------------*\
  =========                 |
  \\      /  F ield         | OpenFOAM: The Open Source CFD Toolbox
   \\    /   O peration     | Website:  https://openfoam.org
    \\  /    A nd           | Version:  12
     \\/     M anipulation  |
\*---------------------------------------------------------------------------*/
FoamFile
{
    format      ascii;
    class       surfaceScalarField;
    location    "0.3";
    object      phi;
}
// * * * * * * * * * * * * * * * * * * * * * * * * * * * * * * * * * * * * * //

dimensions      [0 3 -1 0 0 0 0];

internalField   nonuniform List<scalar> 
24170
(
3.1336e-06
5.48061e-08
3.04827e-06
8.5326e-08
2.97315e-06
7.51229e-08
2.90432e-06
6.88351e-08
2.83949e-06
6.48278e-08
2.78227e-06
5.722e-08
2.73337e-06
4.88978e-08
2.69185e-06
4.1522e-08
2.65641e-06
3.54365e-08
2.62589e-06
3.05187e-08
2.59932e-06
2.65689e-08
2.5759e-06
2.34232e-08
2.55494e-06
2.09624e-08
2.53577e-06
1.91726e-08
2.51774e-06
1.80219e-08
2.49911e-06
1.86379e-08
2.4786e-06
2.0511e-08
3.76202e-08
2.44098e-06
3.45361e-06
1.84441e-08
3.45616e-06
8.27723e-08
3.44962e-06
8.1667e-08
3.438e-06
8.04556e-08
3.42351e-06
7.93151e-08
3.40597e-06
7.47594e-08
3.38635e-06
6.85255e-08
3.36544e-06
6.24236e-08
3.34404e-06
5.6841e-08
3.32274e-06
5.18199e-08
3.30194e-06
4.7368e-08
3.28187e-06
4.34948e-08
3.26264e-06
4.01932e-08
3.24424e-06
3.75723e-08
3.22671e-06
3.55451e-08
3.20991e-06
3.54423e-08
3.19472e-06
3.56989e-08
4.58257e-08
3.18652e-06
3.66535e-06
1.56073e-08
3.67825e-06
6.98726e-08
3.68532e-06
7.46051e-08
3.6896e-06
7.61725e-08
3.69127e-06
7.76402e-08
3.69014e-06
7.58898e-08
3.68669e-06
7.19754e-08
3.6815e-06
6.76171e-08
3.67499e-06
6.33515e-08
3.66751e-06
5.92978e-08
3.65935e-06
5.5532e-08
3.65071e-06
5.21324e-08
3.64175e-06
4.91537e-08
3.63258e-06
4.67445e-08
3.62319e-06
4.49287e-08
3.61403e-06
4.46062e-08
3.60475e-06
4.49759e-08
4.95462e-08
3.60103e-06
3.92465e-06
1.63464e-08
3.9358e-06
5.87203e-08
3.94255e-06
6.78603e-08
3.94802e-06
7.06951e-08
3.95244e-06
7.32267e-08
3.95536e-06
7.29677e-08
3.95691e-06
7.04203e-08
3.9574e-06
6.71321e-08
3.957e-06
6.37481e-08
3.95587e-06
6.04277e-08
3.95414e-06
5.72644e-08
3.95191e-06
5.43587e-08
3.94927e-06
5.17932e-08
3.94631e-06
4.97105e-08
3.94305e-06
4.81876e-08
3.93993e-06
4.77243e-08
3.93696e-06
4.79487e-08
4.98055e-08
3.9367e-06
4.20777e-06
1.57058e-08
4.216e-06
5.04876e-08
4.22167e-06
6.2195e-08
4.2266e-06
6.57612e-08
4.2313e-06
6.85256e-08
4.23526e-06
6.90083e-08
4.23836e-06
6.73219e-08
4.24073e-06
6.4759e-08
4.24249e-06
6.19901e-08
4.24372e-06
5.91993e-08
4.24449e-06
5.64874e-08
4.24489e-06
5.39634e-08
4.24496e-06
5.1721e-08
4.24479e-06
4.98816e-08
4.24446e-06
4.8523e-08
4.24429e-06
4.78881e-08
4.24448e-06
4.77563e-08
4.81648e-08
4.24612e-06
4.51044e-06
1.43528e-08
4.51686e-06
4.40641e-08
4.52218e-06
5.68822e-08
4.52684e-06
6.10996e-08
4.53145e-06
6.391e-08
4.53565e-06
6.48144e-08
4.53923e-06
6.37345e-08
4.54228e-06
6.1711e-08
4.54487e-06
5.94008e-08
4.54706e-06
5.70111e-08
4.5489e-06
5.46485e-08
4.55044e-06
5.24224e-08
4.55174e-06
5.04263e-08
4.55286e-06
4.87552e-08
4.55392e-06
4.74651e-08
4.55516e-06
4.66479e-08
4.55679e-06
4.61253e-08
4.56613e-08
4.55929e-06
4.83412e-06
1.29515e-08
4.83958e-06
3.86039e-08
4.84483e-06
5.16287e-08
4.84943e-06
5.65072e-08
4.85394e-06
5.93976e-08
4.85817e-06
6.05825e-08
4.86194e-06
5.99657e-08
4.86528e-06
5.83724e-08
4.86825e-06
5.64262e-08
4.87091e-06
5.43565e-08
4.87328e-06
5.22751e-08
4.87542e-06
5.02871e-08
4.87736e-06
4.84786e-08
4.8792e-06
4.692e-08
4.88102e-06
4.56409e-08
4.88302e-06
4.46498e-08
4.88536e-06
4.37867e-08
4.27876e-08
4.88823e-06
5.1809e-06
1.16313e-08
5.18571e-06
3.3798e-08
5.19084e-06
4.64927e-08
5.19542e-06
5.19259e-08
5.19989e-06
5.49312e-08
5.20415e-06
5.63192e-08
5.20804e-06
5.60784e-08
5.21156e-06
5.48533e-08
5.21477e-06
5.32178e-08
5.21771e-06
5.14187e-08
5.22041e-06
4.95736e-08
5.22291e-06
4.77809e-08
5.22528e-06
4.61174e-08
5.22756e-06
4.46331e-08
5.22987e-06
4.33362e-08
5.23232e-06
4.2195e-08
5.23504e-06
4.10708e-08
3.97507e-08
5.23807e-06
5.5526e-06
1.03677e-08
5.55685e-06
2.95471e-08
5.56177e-06
4.15735e-08
5.56634e-06
4.73565e-08
5.5708e-06
5.04717e-08
5.57511e-06
5.20082e-08
5.57911e-06
5.20782e-08
5.58278e-06
5.11798e-08
5.58618e-06
4.98228e-08
5.58934e-06
4.82634e-08
5.59228e-06
4.66248e-08
5.59507e-06
4.49985e-08
5.59773e-06
4.34517e-08
5.60034e-06
4.20199e-08
5.60298e-06
4.06985e-08
5.60574e-06
3.9442e-08
5.60867e-06
3.81383e-08
3.66396e-08
5.61178e-06
5.95099e-06
9.15744e-09
5.95476e-06
2.5774e-08
5.95942e-06
3.69162e-08
5.96395e-06
4.28198e-08
5.96841e-06
4.60118e-08
5.97277e-06
4.76508e-08
5.97688e-06
4.79698e-08
5.9807e-06
4.73584e-08
5.98427e-06
4.62542e-08
5.98762e-06
4.49121e-08
5.99079e-06
4.34592e-08
5.9938e-06
4.19803e-08
5.99672e-06
4.05342e-08
5.99959e-06
3.91474e-08
6.00248e-06
3.78103e-08
6.00545e-06
3.64793e-08
6.00851e-06
3.50703e-08
3.34926e-08
6.01166e-06
6.37796e-06
8.01404e-09
6.38133e-06
2.24012e-08
6.38571e-06
3.25297e-08
6.39019e-06
3.83409e-08
6.39465e-06
4.15571e-08
6.39904e-06
4.32572e-08
6.40325e-06
4.37635e-08
6.40721e-06
4.3395e-08
6.41095e-06
4.25172e-08
6.41449e-06
4.13725e-08
6.41786e-06
4.00888e-08
6.42109e-06
3.8745e-08
6.42424e-06
3.73927e-08
6.42733e-06
3.6054e-08
6.43042e-06
3.47203e-08
6.43354e-06
3.33574e-08
6.4367e-06
3.19072e-08
3.03223e-08
6.43987e-06
5.74175e-06
7.09919e-09
5.74433e-06
1.98159e-08
5.74784e-06
2.90291e-08
5.75156e-06
3.4614e-08
5.75532e-06
3.78e-08
5.75905e-06
3.95232e-08
5.76267e-06
4.0142e-08
5.76613e-06
3.99413e-08
5.76941e-06
3.92331e-08
5.77254e-06
3.82406e-08
5.77554e-06
3.70888e-08
5.77844e-06
3.58527e-08
5.78125e-06
3.45792e-08
5.78402e-06
3.32889e-08
5.78676e-06
3.19767e-08
5.7895e-06
3.06185e-08
5.79223e-06
2.91746e-08
2.76258e-08
5.79493e-06
6.99913e-06
6.12152e-09
7.00187e-06
1.70815e-08
7.00566e-06
2.52412e-08
7.00982e-06
3.04469e-08
7.0141e-06
3.35197e-08
7.0184e-06
3.52238e-08
7.02262e-06
3.59249e-08
7.02668e-06
3.58759e-08
7.03058e-06
3.53343e-08
7.03433e-06
3.44983e-08
7.03793e-06
3.34863e-08
7.04141e-06
3.23684e-08
7.0448e-06
3.11876e-08
7.04813e-06
2.99646e-08
7.05141e-06
2.86997e-08
7.05464e-06
2.73802e-08
7.05783e-06
2.59834e-08
2.45118e-08
7.06095e-06
8.53188e-06
5.09024e-09
8.53474e-06
1.42245e-08
8.53878e-06
2.1193e-08
8.54338e-06
2.58459e-08
8.54821e-06
2.86934e-08
8.55312e-06
3.03156e-08
8.55799e-06
3.10515e-08
8.56275e-06
3.11226e-08
8.56735e-06
3.07343e-08
8.57179e-06
3.00532e-08
8.57609e-06
2.91866e-08
8.58026e-06
2.81991e-08
8.58432e-06
2.71303e-08
8.58828e-06
2.60013e-08
8.59216e-06
2.48189e-08
8.59596e-06
2.3581e-08
8.59966e-06
2.2279e-08
2.09295e-08
8.60325e-06
1.04003e-05
4.01593e-09
1.04033e-05
1.12624e-08
1.04075e-05
1.69031e-08
1.04126e-05
2.08172e-08
1.0418e-05
2.32995e-08
1.04235e-05
2.47529e-08
1.04291e-05
2.54586e-08
1.04346e-05
2.56023e-08
1.044e-05
2.53414e-08
1.04453e-05
2.48071e-08
1.04504e-05
2.40902e-08
1.04553e-05
2.32478e-08
1.04601e-05
2.23156e-08
1.04648e-05
2.13155e-08
1.04694e-05
2.02591e-08
1.04738e-05
1.91525e-08
1.04781e-05
1.79968e-08
1.68163e-08
1.04822e-05
1.26779e-05
2.90422e-09
1.2681e-05
8.18715e-09
1.26855e-05
1.23633e-08
1.2691e-05
1.53495e-08
1.2697e-05
1.73036e-08
1.27033e-05
1.84761e-08
1.27096e-05
1.90699e-08
1.2716e-05
1.92255e-08
1.27223e-05
1.90556e-08
1.27285e-05
1.86541e-08
1.27345e-05
1.80906e-08
1.27403e-05
1.74111e-08
1.2746e-05
1.66461e-08
1.27515e-05
1.58162e-08
1.27568e-05
1.49351e-08
1.27619e-05
1.40134e-08
1.27669e-05
1.30571e-08
1.20926e-08
1.27716e-05
1.54543e-05
1.74406e-09
1.54576e-05
4.94787e-09
1.54624e-05
7.50654e-09
1.54684e-05
9.37325e-09
1.54751e-05
1.06222e-08
1.54822e-05
1.13831e-08
1.54895e-05
1.17713e-08
1.54968e-05
1.18718e-08
1.55041e-05
1.1752e-08
1.55113e-05
1.14682e-08
1.55184e-05
1.1064e-08
1.55252e-05
1.05703e-08
1.55318e-05
1.00088e-08
1.55383e-05
9.3956e-09
1.55444e-05
8.74287e-09
1.55504e-05
8.06123e-09
1.55561e-05
7.35762e-09
6.65617e-09
1.55615e-05
1.88389e-05
4.94106e-10
1.88424e-05
1.41376e-09
1.88478e-05
2.14717e-09
1.88545e-05
2.68355e-09
1.8862e-05
3.04449e-09
1.88702e-05
3.25935e-09
1.88786e-05
3.35059e-09
1.88871e-05
3.33691e-09
1.88956e-05
3.23657e-09
1.8904e-05
3.06594e-09
1.89123e-05
2.83814e-09
1.89203e-05
2.56359e-09
1.8928e-05
2.25094e-09
1.89355e-05
1.90777e-09
1.89427e-05
1.54091e-09
1.89496e-05
1.15722e-09
1.89562e-05
7.61304e-10
3.72195e-10
1.89625e-05
2.29648e-05
-9.52461e-10
2.29689e-05
-2.71628e-09
2.29752e-05
-4.15132e-09
2.29831e-05
-5.21502e-09
2.29921e-05
-5.92424e-09
2.30017e-05
-6.36575e-09
2.30117e-05
-6.63285e-09
2.30218e-05
-6.78425e-09
2.30319e-05
-6.85668e-09
2.30418e-05
-6.88127e-09
2.30516e-05
-6.88317e-09
2.3061e-05
-6.87834e-09
2.30701e-05
-6.87545e-09
2.30789e-05
-6.87895e-09
2.30874e-05
-6.89074e-09
2.30954e-05
-6.91043e-09
2.31031e-05
-6.93782e-09
-6.96077e-09
2.31105e-05
1.68118e-05
-2.09698e-09
1.68151e-05
-5.94851e-09
1.682e-05
-9.0754e-09
1.68261e-05
-1.13336e-08
1.6833e-05
-1.27721e-08
1.68402e-05
-1.3625e-08
1.68477e-05
-1.40963e-08
1.68552e-05
-1.42942e-08
1.68626e-05
-1.42935e-08
1.68699e-05
-1.41649e-08
1.6877e-05
-1.39632e-08
1.68838e-05
-1.37224e-08
1.68904e-05
-1.34632e-08
1.68968e-05
-1.31986e-08
1.69028e-05
-1.29367e-08
1.69086e-05
-1.26815e-08
1.69141e-05
-1.24354e-08
-1.21904e-08
1.69193e-05
1.46357e-05
-3.20493e-09
1.46388e-05
-9.1052e-09
1.46437e-05
-1.38953e-08
1.46495e-05
-1.72097e-08
1.4656e-05
-1.91949e-08
1.46627e-05
-2.03255e-08
1.46695e-05
-2.09038e-08
1.46762e-05
-2.1064e-08
1.46829e-05
-2.09259e-08
1.46893e-05
-2.06058e-08
1.46955e-05
-2.01828e-08
1.47015e-05
-1.97021e-08
1.47072e-05
-1.91925e-08
1.47127e-05
-1.86742e-08
1.47179e-05
-1.81597e-08
1.47229e-05
-1.76558e-08
1.47276e-05
-1.71665e-08
-1.66863e-08
1.47321e-05
1.27412e-05
-4.25229e-09
1.27444e-05
-1.23131e-08
1.27493e-05
-1.88485e-08
1.27551e-05
-2.29978e-08
1.27612e-05
-2.5301e-08
1.27675e-05
-2.6603e-08
1.27738e-05
-2.72079e-08
1.278e-05
-2.72426e-08
1.2786e-05
-2.68987e-08
1.27917e-05
-2.63476e-08
1.27972e-05
-2.5684e-08
1.28025e-05
-2.49576e-08
1.28075e-05
-2.42025e-08
1.28122e-05
-2.34435e-08
1.28168e-05
-2.26955e-08
1.28211e-05
-2.1966e-08
1.28252e-05
-2.1259e-08
-2.05704e-08
1.28291e-05
1.10918e-05
-5.12863e-09
1.10951e-05
-1.56324e-08
1.11004e-05
-2.41395e-08
1.11062e-05
-2.87732e-08
1.1112e-05
-3.11341e-08
1.11179e-05
-3.2512e-08
1.11238e-05
-3.30549e-08
1.11294e-05
-3.28819e-08
1.11348e-05
-3.22849e-08
1.11399e-05
-3.14799e-08
1.11448e-05
-3.05643e-08
1.11494e-05
-2.95893e-08
1.11538e-05
-2.85944e-08
1.1158e-05
-2.76072e-08
1.1162e-05
-2.66427e-08
1.11657e-05
-2.57075e-08
1.11692e-05
-2.48048e-08
-2.39314e-08
1.11726e-05
9.65583e-06
-5.74179e-09
9.65935e-06
-1.91538e-08
9.66495e-06
-2.9736e-08
9.67062e-06
-3.445e-08
9.67625e-06
-3.67648e-08
9.68188e-06
-3.81376e-08
9.6873e-06
-3.84773e-08
9.69242e-06
-3.80035e-08
9.69726e-06
-3.71234e-08
9.70184e-06
-3.60596e-08
9.70617e-06
-3.48919e-08
9.71025e-06
-3.36716e-08
9.7141e-06
-3.24435e-08
9.71773e-06
-3.12369e-08
9.72115e-06
-3.00661e-08
9.72438e-06
-2.89369e-08
9.72743e-06
-2.78506e-08
-2.68023e-08
9.7303e-06
8.40543e-06
-5.82091e-09
8.4098e-06
-2.35256e-08
8.4153e-06
-3.52345e-08
8.42049e-06
-3.96337e-08
8.42591e-06
-4.21866e-08
8.43137e-06
-4.35989e-08
8.43651e-06
-4.36161e-08
8.44125e-06
-4.27498e-08
8.44567e-06
-4.15362e-08
8.44978e-06
-4.01753e-08
8.45361e-06
-3.87243e-08
8.45718e-06
-3.72352e-08
8.46049e-06
-3.57558e-08
8.46357e-06
-3.43152e-08
8.46643e-06
-3.29269e-08
8.46909e-06
-3.15969e-08
8.47156e-06
-3.03258e-08
-2.91099e-08
8.47387e-06
7.31506e-06
-3.59283e-09
7.32194e-06
-3.04078e-08
7.32738e-06
-4.06798e-08
7.33215e-06
-4.43952e-08
7.33745e-06
-4.74903e-08
7.34281e-06
-4.89632e-08
7.34776e-06
-4.85664e-08
7.35223e-06
-4.7218e-08
7.35626e-06
-4.55652e-08
7.35987e-06
-4.37864e-08
7.36309e-06
-4.19406e-08
7.36594e-06
-4.00911e-08
7.36848e-06
-3.82873e-08
7.37072e-06
-3.65555e-08
7.3727e-06
-3.49071e-08
7.37445e-06
-3.33467e-08
7.37599e-06
-3.18715e-08
-3.04752e-08
7.37736e-06
6.36222e-06
4.25355e-09
6.37294e-06
-4.11297e-08
6.38006e-06
-4.78019e-08
6.38624e-06
-5.05689e-08
6.3922e-06
-5.34511e-08
6.39748e-06
-5.42406e-08
6.40182e-06
-5.29133e-08
6.40539e-06
-5.07814e-08
6.40828e-06
-4.84585e-08
6.41055e-06
-4.60571e-08
6.41225e-06
-4.36447e-08
6.41346e-06
-4.12991e-08
6.41424e-06
-3.90687e-08
6.41466e-06
-3.69731e-08
6.41477e-06
-3.50191e-08
6.41463e-06
-3.32076e-08
6.41429e-06
-3.15305e-08
-2.99673e-08
6.41379e-06
5.53608e-06
1.36389e-08
5.54775e-06
-5.28012e-08
5.55743e-06
-5.74842e-08
5.566e-06
-5.91323e-08
5.57276e-06
-6.02106e-08
5.57717e-06
-5.86525e-08
5.5793e-06
-5.50494e-08
5.57973e-06
-5.12036e-08
5.57886e-06
-4.75898e-08
5.57698e-06
-4.41793e-08
5.57431e-06
-4.09798e-08
5.57104e-06
-3.80288e-08
5.56732e-06
-3.534e-08
5.56325e-06
-3.29049e-08
5.55894e-06
-3.07091e-08
5.55448e-06
-2.87497e-08
5.54997e-06
-2.70176e-08
-2.54519e-08
5.54545e-06
4.85751e-06
-1.62615e-08
4.86091e-06
-5.62013e-08
4.8615e-06
-5.80743e-08
4.85883e-06
-5.64605e-08
4.85481e-06
-5.61987e-08
4.84811e-06
-5.19505e-08
4.83885e-06
-4.57881e-08
4.82759e-06
-3.99432e-08
4.81497e-06
-3.49698e-08
4.80158e-06
-3.07907e-08
4.78787e-06
-2.727e-08
4.77415e-06
-2.43045e-08
4.76061e-06
-2.18034e-08
4.74739e-06
-1.96875e-08
4.73458e-06
-1.7894e-08
4.72224e-06
-1.64128e-08
4.71049e-06
-1.52706e-08
-1.49602e-08
4.7e-06
4.18641e-06
4.13021e-06
4.07214e-06
4.01568e-06
3.95948e-06
3.90753e-06
3.86174e-06
3.8218e-06
3.78683e-06
3.75604e-06
3.72877e-06
3.70446e-06
3.68266e-06
3.66297e-06
3.64508e-06
3.62867e-06
3.61339e-06
3.59843e-06
9.03906e-09
-9.03906e-09
1.9829e-08
-1.079e-08
2.78944e-08
-8.06537e-09
3.19776e-08
-4.0832e-09
3.17252e-08
2.52377e-10
2.76336e-08
4.0916e-09
2.03338e-08
7.29982e-09
1.05358e-08
9.79803e-09
-1.16474e-09
1.17005e-08
-1.4348e-08
1.31832e-08
-2.875e-08
1.4402e-08
-4.42099e-08
1.54599e-08
-6.06346e-08
1.64248e-08
-7.797e-08
1.73353e-08
-9.61821e-08
1.82121e-08
-1.15247e-07
1.90647e-08
-1.35144e-07
1.98969e-08
-1.55853e-07
2.07096e-08
-1.77356e-07
2.15028e-08
-1.99632e-07
2.22762e-08
-2.22663e-07
2.30306e-08
-2.4643e-07
2.37673e-08
-2.70918e-07
2.44878e-08
-2.96109e-07
2.51912e-08
-3.21979e-07
2.58698e-08
-3.48486e-07
2.65068e-08
-3.75566e-07
2.70803e-08
-4.03147e-07
2.75811e-08
-4.31183e-07
2.80362e-08
-4.59699e-07
2.85152e-08
-4.88777e-07
2.90785e-08
-5.18447e-07
2.96699e-08
-5.48504e-07
3.00568e-08
-5.78492e-07
2.99877e-08
-6.08067e-07
2.95753e-08
-6.37621e-07
2.95543e-08
-6.68575e-07
3.09539e-08
-7.02822e-07
3.42465e-08
-7.41641e-07
3.88198e-08
-7.86725e-07
4.50831e-08
-8.38896e-07
5.21716e-08
-8.81637e-07
4.27412e-08
-9.13912e-07
3.22744e-08
-9.52533e-07
3.86207e-08
-9.93586e-07
4.10537e-08
-1.03634e-06
4.27551e-08
-1.08019e-06
4.3844e-08
-1.12469e-06
4.45014e-08
-1.16958e-06
4.48893e-08
-1.21467e-06
4.50936e-08
-1.25984e-06
4.517e-08
-1.30499e-06
4.5154e-08
-1.35006e-06
4.5069e-08
-1.39499e-06
4.49303e-08
-1.43974e-06
4.47479e-08
-1.48427e-06
4.45283e-08
-1.52854e-06
4.42758e-08
-1.57254e-06
4.39925e-08
-1.61622e-06
4.36796e-08
-1.65955e-06
4.33375e-08
-1.70252e-06
4.29657e-08
-1.74508e-06
4.25635e-08
-1.78721e-06
4.21301e-08
-1.82888e-06
4.16643e-08
-1.87004e-06
4.1165e-08
-1.91067e-06
4.06309e-08
-1.95074e-06
4.0061e-08
-1.99019e-06
3.94544e-08
-2.029e-06
3.88101e-08
-2.06713e-06
3.81274e-08
-2.10453e-06
3.74059e-08
-2.14118e-06
3.66449e-08
-2.17702e-06
3.58443e-08
-2.21203e-06
3.5004e-08
-2.24615e-06
3.41241e-08
-2.27936e-06
3.32048e-08
-2.3116e-06
3.22465e-08
-2.34285e-06
3.12497e-08
-2.37307e-06
3.02148e-08
-2.40221e-06
2.91427e-08
-2.43024e-06
2.8034e-08
-2.45713e-06
2.68895e-08
-2.48284e-06
2.57101e-08
-2.50734e-06
2.44963e-08
-2.53059e-06
2.3249e-08
-2.55256e-06
2.19685e-08
-2.57321e-06
2.06552e-08
-2.59252e-06
1.93092e-08
-2.61045e-06
1.793e-08
-2.62697e-06
1.65167e-08
-2.64203e-06
1.50677e-08
-2.65562e-06
1.35803e-08
-2.66767e-06
1.20509e-08
-2.67814e-06
1.04729e-08
-2.68698e-06
8.8378e-09
-2.69411e-06
7.13377e-09
-2.69945e-06
5.34373e-09
-2.70291e-06
3.4566e-09
-2.70439e-06
1.47584e-09
-2.70386e-06
-5.30209e-10
-2.70166e-06
-2.1921e-09
-2.69788e-06
-3.78343e-09
-2.69254e-06
-5.34467e-09
-2.68564e-06
-6.89846e-09
-2.67718e-06
-8.4565e-09
-2.66716e-06
-1.00208e-08
-2.65557e-06
-1.15909e-08
-2.6424e-06
-1.31651e-08
-2.62766e-06
-1.47415e-08
-2.61134e-06
-1.63181e-08
-2.59345e-06
-1.78927e-08
-2.57399e-06
-1.94632e-08
-2.55296e-06
-2.10274e-08
-2.53038e-06
-2.25833e-08
-2.50625e-06
-2.41289e-08
-2.48059e-06
-2.5662e-08
-2.45341e-06
-2.71805e-08
-2.42472e-06
-2.86825e-08
-2.39456e-06
-3.01657e-08
-2.36293e-06
-3.16283e-08
-2.32986e-06
-3.30682e-08
-2.29538e-06
-3.44835e-08
-2.25951e-06
-3.58723e-08
-2.22227e-06
-3.72328e-08
-2.18371e-06
-3.85633e-08
-2.14385e-06
-3.98619e-08
-2.10272e-06
-4.11272e-08
-2.06036e-06
-4.23573e-08
-2.01681e-06
-4.35507e-08
-1.97211e-06
-4.47059e-08
-1.92629e-06
-4.58214e-08
-1.87939e-06
-4.68958e-08
-1.83146e-06
-4.7928e-08
-1.78255e-06
-4.89169e-08
-1.73268e-06
-4.98615e-08
-1.68192e-06
-5.07609e-08
-1.63031e-06
-5.16139e-08
-1.57789e-06
-5.24201e-08
-1.52471e-06
-5.31788e-08
-1.47082e-06
-5.38897e-08
-1.41627e-06
-5.45525e-08
-1.3611e-06
-5.5167e-08
-1.30537e-06
-5.57331e-08
-1.24912e-06
-5.6251e-08
-1.1924e-06
-5.6721e-08
-1.13525e-06
-5.71438e-08
-1.07773e-06
-5.75197e-08
-1.01988e-06
-5.78496e-08
-9.61748e-07
-5.81346e-08
-9.03372e-07
-5.83758e-08
-8.44798e-07
-5.85745e-08
-7.86065e-07
-5.87321e-08
-7.27215e-07
-5.88504e-08
-6.68284e-07
-5.89311e-08
-6.09308e-07
-5.89761e-08
-5.5032e-07
-5.89874e-08
-4.91353e-07
-5.8967e-08
-4.32437e-07
-5.89167e-08
-3.73599e-07
-5.88378e-08
-3.14868e-07
-5.87313e-08
-2.5627e-07
-5.85981e-08
-1.97835e-07
-5.84342e-08
-1.39596e-07
-5.82399e-08
-8.15808e-08
-5.80147e-08
-2.38325e-08
-5.77484e-08
3.36143e-08
-5.74468e-08
9.072e-08
-5.71057e-08
1.47485e-07
-5.67646e-08
2.0393e-07
-5.64454e-08
2.60073e-07
-5.61428e-08
3.1591e-07
-5.58371e-08
3.71412e-07
-5.55021e-08
4.26511e-07
-5.50986e-08
4.8107e-07
-5.45597e-08
5.34826e-07
-5.37552e-08
5.87245e-07
-5.24194e-08
6.37119e-07
-4.98738e-08
6.81602e-07
-4.44831e-08
7.13164e-07
-3.15621e-08
8.32193e-09
7.04842e-07
7.07452e-09
-1.61136e-08
9.88039e-09
-1.35958e-08
8.80876e-09
-6.99374e-09
4.97778e-09
-2.52223e-10
-9.59518e-10
6.18968e-09
-8.90043e-09
1.20325e-08
-1.87536e-08
1.7153e-08
-3.04629e-08
2.15073e-08
-4.39159e-08
2.51535e-08
-5.89497e-08
2.8217e-08
-7.53917e-08
3.0844e-08
-9.30939e-08
3.31621e-08
-1.11939e-07
3.52694e-08
-1.31839e-07
3.72358e-08
-1.52734e-07
3.91075e-08
-1.74583e-07
4.09138e-08
-1.97359e-07
4.26728e-08
-2.21046e-07
4.43961e-08
-2.45634e-07
4.60911e-08
-2.71122e-07
4.77641e-08
-2.97512e-07
4.94207e-08
-3.24811e-07
5.10661e-08
-3.53028e-07
5.27046e-08
-3.82173e-07
5.43369e-08
-4.12262e-07
5.59584e-08
-4.43316e-07
5.75607e-08
-4.75375e-07
5.91398e-08
-5.08505e-07
6.07109e-08
-5.42791e-07
6.23215e-08
-5.78316e-07
6.40404e-08
-6.15144e-07
6.59067e-08
-6.53335e-07
6.78609e-08
-6.93019e-07
6.97408e-08
-7.34454e-07
7.14231e-08
-7.77921e-07
7.30421e-08
-8.23395e-07
7.5028e-08
-8.70206e-07
7.77647e-08
-9.1709e-07
8.1131e-08
-9.62888e-07
8.46181e-08
-1.00578e-06
8.79727e-08
-1.04362e-06
9.00181e-08
-1.08879e-06
8.79049e-08
-1.14154e-06
8.50225e-08
-1.18837e-06
8.54503e-08
-1.2333e-06
8.5987e-08
-1.27694e-06
8.63946e-08
-1.31974e-06
8.66407e-08
-1.36193e-06
8.66989e-08
-1.40364e-06
8.66012e-08
-1.44493e-06
8.63752e-08
-1.4858e-06
8.60452e-08
-1.52628e-06
8.56307e-08
-1.56636e-06
8.51461e-08
-1.60603e-06
8.46018e-08
-1.64528e-06
8.40044e-08
-1.68411e-06
8.33582e-08
-1.7225e-06
8.2665e-08
-1.76044e-06
8.19256e-08
-1.7979e-06
8.11393e-08
-1.83486e-06
8.03047e-08
-1.87132e-06
7.942e-08
-1.90724e-06
7.84831e-08
-1.9426e-06
7.74916e-08
-1.97738e-06
7.64432e-08
-2.01155e-06
7.53355e-08
-2.04508e-06
7.41665e-08
-2.07796e-06
7.29342e-08
-2.11014e-06
7.16369e-08
-2.1416e-06
7.02731e-08
-2.17232e-06
6.88416e-08
-2.20225e-06
6.73415e-08
-2.23138e-06
6.57723e-08
-2.25967e-06
6.41335e-08
-2.28709e-06
6.24251e-08
-2.31361e-06
6.06474e-08
-2.33921e-06
5.88006e-08
-2.36385e-06
5.68856e-08
-2.3875e-06
5.4903e-08
-2.41014e-06
5.2854e-08
-2.43174e-06
5.07397e-08
-2.45226e-06
4.85613e-08
-2.47169e-06
4.63201e-08
-2.49e-06
4.40174e-08
-2.50716e-06
4.16545e-08
-2.52314e-06
3.92327e-08
-2.53793e-06
3.67529e-08
-2.55149e-06
3.4216e-08
-2.5638e-06
3.16225e-08
-2.57485e-06
2.89729e-08
-2.5846e-06
2.6267e-08
-2.59303e-06
2.35044e-08
-2.60014e-06
2.06844e-08
-2.60589e-06
1.78064e-08
-2.61029e-06
1.48696e-08
-2.61333e-06
1.18747e-08
-2.61502e-06
8.82465e-09
-2.6154e-06
5.72793e-09
-2.61455e-06
2.60608e-09
-2.6126e-06
-4.77981e-10
-2.60955e-06
-3.58044e-09
-2.60515e-06
-6.58776e-09
-2.59932e-06
-9.61752e-09
-2.59199e-06
-1.2669e-08
-2.58315e-06
-1.57391e-08
-2.57278e-06
-1.88273e-08
-2.56087e-06
-2.19312e-08
-2.54741e-06
-2.50475e-08
-2.53241e-06
-2.81723e-08
-2.51585e-06
-3.13015e-08
-2.49773e-06
-3.44308e-08
-2.47807e-06
-3.7556e-08
-2.45686e-06
-4.06729e-08
-2.43411e-06
-4.37773e-08
-2.40983e-06
-4.6865e-08
-2.38403e-06
-4.99318e-08
-2.35671e-06
-5.29738e-08
-2.32791e-06
-5.59867e-08
-2.29762e-06
-5.89664e-08
-2.26588e-06
-6.1909e-08
-2.2327e-06
-6.48104e-08
-2.1981e-06
-6.76665e-08
-2.16211e-06
-7.04736e-08
-2.12475e-06
-7.32279e-08
-2.08606e-06
-7.59257e-08
-2.04606e-06
-7.85635e-08
-2.00479e-06
-8.11381e-08
-1.96227e-06
-8.3646e-08
-1.91854e-06
-8.6084e-08
-1.87364e-06
-8.84488e-08
-1.82761e-06
-9.07375e-08
-1.78048e-06
-9.2947e-08
-1.73231e-06
-9.50747e-08
-1.68312e-06
-9.71183e-08
-1.63296e-06
-9.90756e-08
-1.58187e-06
-1.00945e-07
-1.52991e-06
-1.02723e-07
-1.47711e-06
-1.0441e-07
-1.42353e-06
-1.06004e-07
-1.36921e-06
-1.07502e-07
-1.31419e-06
-1.08906e-07
-1.25853e-06
-1.10213e-07
-1.20227e-06
-1.11424e-07
-1.14547e-06
-1.12539e-07
-1.08816e-06
-1.13558e-07
-1.0304e-06
-1.14482e-07
-9.72232e-07
-1.15311e-07
-9.13704e-07
-1.16048e-07
-8.54862e-07
-1.16692e-07
-7.95749e-07
-1.17247e-07
-7.36409e-07
-1.17715e-07
-6.76885e-07
-1.18099e-07
-6.17217e-07
-1.184e-07
-5.57444e-07
-1.18624e-07
-4.97602e-07
-1.18773e-07
-4.37728e-07
-1.1885e-07
-3.77854e-07
-1.18861e-07
-3.18012e-07
-1.18809e-07
-2.58231e-07
-1.18698e-07
-1.98538e-07
-1.18531e-07
-1.3896e-07
-1.18309e-07
-7.9521e-08
-1.18037e-07
-2.02453e-08
-1.1771e-07
3.88414e-08
-1.17327e-07
9.77131e-08
-1.16886e-07
1.56352e-07
-1.16388e-07
2.14748e-07
-1.15842e-07
2.72903e-07
-1.15261e-07
3.30814e-07
-1.14676e-07
3.88476e-07
-1.14107e-07
4.45879e-07
-1.13545e-07
5.03003e-07
-1.12961e-07
5.59809e-07
-1.12308e-07
6.16219e-07
-1.11509e-07
6.72089e-07
-1.1043e-07
7.27152e-07
-1.08818e-07
7.80916e-07
-1.06183e-07
8.32414e-07
-1.01372e-07
8.80043e-07
-9.21114e-08
9.20508e-07
-7.20274e-08
-2.51048e-08
9.53935e-07
5.36864e-10
-1.66504e-08
-3.82528e-09
-9.2337e-09
-1.06843e-08
-1.34765e-10
-1.90678e-08
8.13135e-09
-2.86998e-08
1.58217e-08
-3.95202e-08
2.28529e-08
-5.15568e-08
2.91895e-08
-6.48684e-08
3.4819e-08
-7.94923e-08
3.97774e-08
-9.54214e-08
4.41461e-08
-1.12609e-07
4.80317e-08
-1.3099e-07
5.15433e-08
-1.50498e-07
5.47775e-08
-1.71075e-07
5.78123e-08
-1.92674e-07
6.07064e-08
-2.15263e-07
6.35025e-08
-2.3882e-07
6.62307e-08
-2.63337e-07
6.89127e-08
-2.8881e-07
7.15645e-08
-3.15245e-07
7.41989e-08
-3.42651e-07
7.68266e-08
-3.71041e-07
7.94563e-08
-4.00431e-07
8.20946e-08
-4.30839e-07
8.47446e-08
-4.62287e-07
8.74061e-08
-4.94804e-07
9.00777e-08
-5.28427e-07
9.27628e-08
-5.63192e-07
9.54764e-08
-5.99118e-07
9.82467e-08
-6.36177e-07
1.011e-07
-6.74302e-07
1.04031e-07
-7.13413e-07
1.06972e-07
-7.53487e-07
1.09814e-07
-7.94545e-07
1.12482e-07
-8.36519e-07
1.15016e-07
-8.79043e-07
1.17552e-07
-9.21432e-07
1.20153e-07
-9.6297e-07
1.22669e-07
-1.00318e-06
1.24828e-07
-1.04157e-06
1.2636e-07
-1.07844e-06
1.2689e-07
-1.11685e-06
1.2632e-07
-1.1573e-06
1.25466e-07
-1.19684e-06
1.2499e-07
-1.23549e-06
1.24639e-07
-1.27341e-06
1.24316e-07
-1.31073e-06
1.23962e-07
-1.34757e-06
1.23539e-07
-1.38401e-06
1.23039e-07
-1.4201e-06
1.22462e-07
-1.45586e-06
1.21812e-07
-1.49133e-06
1.21094e-07
-1.52649e-06
1.20313e-07
-1.56136e-06
1.19472e-07
-1.59593e-06
1.18572e-07
-1.63019e-06
1.17614e-07
-1.66412e-06
1.16596e-07
-1.69771e-06
1.15517e-07
-1.73094e-06
1.14374e-07
-1.7638e-06
1.13162e-07
-1.79626e-06
1.1188e-07
-1.8283e-06
1.10523e-07
-1.8599e-06
1.09087e-07
-1.89102e-06
1.07569e-07
-1.92165e-06
1.05965e-07
-1.95176e-06
1.04273e-07
-1.98131e-06
1.02489e-07
-2.01029e-06
1.00611e-07
-2.03865e-06
9.86367e-08
-2.06637e-06
9.65647e-08
-2.09343e-06
9.43936e-08
-2.11978e-06
9.21224e-08
-2.14539e-06
8.97506e-08
-2.17025e-06
8.72781e-08
-2.1943e-06
8.47051e-08
-2.21754e-06
8.20321e-08
-2.23991e-06
7.92601e-08
-2.2614e-06
7.63901e-08
-2.28197e-06
7.34237e-08
-2.30159e-06
7.03623e-08
-2.32024e-06
6.72078e-08
-2.33788e-06
6.3962e-08
-2.35449e-06
6.0627e-08
-2.37004e-06
5.72048e-08
-2.3845e-06
5.36974e-08
-2.39786e-06
5.01067e-08
-2.41007e-06
4.64345e-08
-2.42113e-06
4.26826e-08
-2.43101e-06
3.88525e-08
-2.43969e-06
3.49458e-08
-2.44715e-06
3.09639e-08
-2.45338e-06
2.69086e-08
-2.45835e-06
2.27825e-08
-2.46207e-06
1.8589e-08
-2.46453e-06
1.43335e-08
-2.46573e-06
1.00243e-08
-2.46568e-06
5.67345e-09
-2.46437e-06
1.29808e-09
-2.46177e-06
-3.08043e-09
-2.45787e-06
-7.47908e-09
-2.45256e-06
-1.1896e-08
-2.44582e-06
-1.63556e-08
-2.43763e-06
-2.08568e-08
-2.42798e-06
-2.53949e-08
-2.41684e-06
-2.99643e-08
-2.40421e-06
-3.45592e-08
-2.39009e-06
-3.91733e-08
-2.37446e-06
-4.38005e-08
-2.35733e-06
-4.84344e-08
-2.33869e-06
-5.30687e-08
-2.31855e-06
-5.76971e-08
-2.29691e-06
-6.23132e-08
-2.27377e-06
-6.69109e-08
-2.24915e-06
-7.14839e-08
-2.22306e-06
-7.60261e-08
-2.1955e-06
-8.05314e-08
-2.16649e-06
-8.49938e-08
-2.13605e-06
-8.94071e-08
-2.1042e-06
-9.37654e-08
-2.07094e-06
-9.80626e-08
-2.03632e-06
-1.02293e-07
-2.00034e-06
-1.0645e-07
-1.96304e-06
-1.1053e-07
-1.92444e-06
-1.14525e-07
-1.88457e-06
-1.18432e-07
-1.84347e-06
-1.22244e-07
-1.80115e-06
-1.25958e-07
-1.75767e-06
-1.29568e-07
-1.71305e-06
-1.33069e-07
-1.66733e-06
-1.36458e-07
-1.62055e-06
-1.39728e-07
-1.57275e-06
-1.42878e-07
-1.52396e-06
-1.45902e-07
-1.47424e-06
-1.48799e-07
-1.42362e-06
-1.51564e-07
-1.37215e-06
-1.54195e-07
-1.31987e-06
-1.5669e-07
-1.26683e-06
-1.59046e-07
-1.21307e-06
-1.61261e-07
-1.15864e-06
-1.63334e-07
-1.10359e-06
-1.65266e-07
-1.04796e-06
-1.67054e-07
-9.91796e-07
-1.687e-07
-9.35153e-07
-1.70202e-07
-8.78071e-07
-1.71563e-07
-8.20598e-07
-1.72784e-07
-7.62779e-07
-1.73867e-07
-7.04657e-07
-1.74814e-07
-6.46276e-07
-1.75628e-07
-5.87679e-07
-1.76313e-07
-5.28906e-07
-1.76872e-07
-4.69996e-07
-1.7731e-07
-4.10989e-07
-1.77631e-07
-3.51919e-07
-1.77842e-07
-2.92821e-07
-1.77948e-07
-2.33728e-07
-1.77955e-07
-1.74668e-07
-1.77869e-07
-1.15671e-07
-1.77695e-07
-5.67624e-08
-1.77439e-07
2.03451e-09
-1.77106e-07
6.06954e-08
-1.76698e-07
1.19199e-07
-1.76214e-07
1.77528e-07
-1.75655e-07
2.35665e-07
-1.75024e-07
2.93607e-07
-1.7433e-07
3.5136e-07
-1.73595e-07
4.08935e-07
-1.72835e-07
4.66319e-07
-1.7206e-07
5.23492e-07
-1.71281e-07
5.80434e-07
-1.70488e-07
6.3712e-07
-1.69646e-07
6.93502e-07
-1.68691e-07
7.49505e-07
-1.67511e-07
8.0499e-07
-1.65915e-07
8.59723e-07
-1.63551e-07
9.13302e-07
-1.59762e-07
9.65099e-07
-1.53169e-07
1.01422e-06
-1.41228e-07
1.06014e-06
-1.17955e-07
-7.19949e-08
1.10703e-06
-5.71202e-09
-1.09384e-08
-1.52809e-08
3.35199e-10
-2.60229e-08
1.06072e-08
-3.76617e-08
1.97701e-08
-5.00174e-08
2.81774e-08
-6.31052e-08
3.59407e-08
-7.69965e-08
4.30808e-08
-9.17819e-08
4.96044e-08
-1.07542e-07
5.55372e-08
-1.24328e-07
6.09325e-08
-1.42162e-07
6.58652e-08
-1.61038e-07
7.04193e-08
-1.80937e-07
7.46767e-08
-2.01834e-07
7.87099e-08
-2.23707e-07
8.25789e-08
-2.46535e-07
8.63306e-08
-2.70305e-07
9.00012e-08
-2.95011e-07
9.36179e-08
-3.20648e-07
9.72014e-08
-3.47216e-07
1.00767e-07
-3.74717e-07
1.04328e-07
-4.03153e-07
1.07892e-07
-4.32521e-07
1.11463e-07
-4.62818e-07
1.15042e-07
-4.94038e-07
1.18626e-07
-5.2617e-07
1.22209e-07
-5.59193e-07
1.25786e-07
-5.93069e-07
1.29352e-07
-6.27726e-07
1.32904e-07
-6.63053e-07
1.36428e-07
-6.9891e-07
1.39888e-07
-7.35156e-07
1.43218e-07
-7.7168e-07
1.46338e-07
-8.08387e-07
1.49189e-07
-8.45135e-07
1.51764e-07
-8.81674e-07
1.5409e-07
-9.17688e-07
1.56168e-07
-9.52951e-07
1.57932e-07
-9.87408e-07
1.59285e-07
-1.02116e-06
1.60112e-07
-1.05458e-06
1.60311e-07
-1.08822e-06
1.59956e-07
-1.12212e-06
1.59369e-07
-1.1559e-06
1.5877e-07
-1.18943e-06
1.58166e-07
-1.22266e-06
1.5755e-07
-1.25561e-06
1.56908e-07
-1.28829e-06
1.56224e-07
-1.32074e-06
1.55488e-07
-1.35297e-06
1.54694e-07
-1.385e-06
1.53842e-07
-1.41684e-06
1.52928e-07
-1.44848e-06
1.51951e-07
-1.47991e-06
1.50909e-07
-1.51114e-06
1.498e-07
-1.54215e-06
1.4862e-07
-1.57291e-06
1.47365e-07
-1.60343e-06
1.46031e-07
-1.63367e-06
1.44613e-07
-1.66361e-06
1.43106e-07
-1.69323e-06
1.41505e-07
-1.72252e-06
1.39804e-07
-1.75143e-06
1.37999e-07
-1.77994e-06
1.36085e-07
-1.80804e-06
1.34057e-07
-1.83567e-06
1.31912e-07
-1.86283e-06
1.29645e-07
-1.88947e-06
1.27254e-07
-1.91557e-06
1.24737e-07
-1.9411e-06
1.2209e-07
-1.96602e-06
1.19312e-07
-1.9903e-06
1.16402e-07
-2.01391e-06
1.1336e-07
-2.03681e-06
1.10185e-07
-2.05899e-06
1.06878e-07
-2.08039e-06
1.03439e-07
-2.101e-06
9.98697e-08
-2.12078e-06
9.61713e-08
-2.13971e-06
9.23458e-08
-2.15774e-06
8.83954e-08
-2.17485e-06
8.43224e-08
-2.19102e-06
8.01295e-08
-2.20621e-06
7.58193e-08
-2.2204e-06
7.13948e-08
-2.23357e-06
6.68589e-08
-2.24567e-06
6.22145e-08
-2.2567e-06
5.74645e-08
-2.26663e-06
5.26118e-08
-2.27544e-06
4.76593e-08
-2.2831e-06
4.26098e-08
-2.28961e-06
3.74665e-08
-2.29493e-06
3.22328e-08
-2.29906e-06
2.69129e-08
-2.30198e-06
2.15119e-08
-2.30369e-06
1.60363e-08
-2.30416e-06
1.0494e-08
-2.30338e-06
4.89444e-09
-2.30133e-06
-7.52673e-10
-2.29797e-06
-6.44065e-09
-2.29327e-06
-1.2175e-08
-2.2872e-06
-1.79634e-08
-2.27975e-06
-2.38129e-08
-2.27088e-06
-2.97193e-08
-2.2606e-06
-3.56762e-08
-2.24889e-06
-4.16758e-08
-2.23574e-06
-4.77096e-08
-2.22114e-06
-5.37694e-08
-2.2051e-06
-5.98467e-08
-2.1876e-06
-6.59331e-08
-2.16865e-06
-7.20202e-08
-2.14824e-06
-7.80996e-08
-2.1264e-06
-8.41631e-08
-2.1031e-06
-9.02025e-08
-2.07838e-06
-9.62095e-08
-2.05223e-06
-1.02176e-07
-2.02466e-06
-1.08094e-07
-1.9957e-06
-1.13956e-07
-1.96536e-06
-1.19754e-07