/*--------------------------------*- C++ -*----------------------------------*\
  =========                 |
  \\      /  F ield         | OpenFOAM: The Open Source CFD Toolbox
   \\    /   O peration     | Website:  https://openfoam.org
    \\  /    A nd           | Version:  12
     \\/     M anipulation  |
\*---------------------------------------------------------------------------*/
FoamFile
{
    format      ascii;
    class       volVectorField;
    location    "0.3";
    object      U;
}
// * * * * * * * * * * * * * * * * * * * * * * * * * * * * * * * * * * * * * //

dimensions      [0 1 -1 0 0 0 0];

internalField   nonuniform List<vector> 
12225
(
(9.86107 -0.874318 0)
(9.67248 -0.700192 0)
(9.45897 -0.387593 0)
(9.22467 -0.188479 0)
(9.0035 -0.084395 0)
(8.81041 -0.0328776 0)
(8.64514 -0.00755303 0)
(8.50415 0.0050218 0)
(8.38398 0.0113329 0)
(8.28112 0.014468 0)
(8.19217 0.0159621 0)
(8.11426 0.0166301 0)
(8.04501 0.0169146 0)
(7.9826 0.0171069 0)
(7.92412 0.017399 0)
(7.87056 0.0184954 0)
(7.80135 0.0214555 0)
(7.77509 0.0298228 0)
(10.0547 0.263069 0)
(10.1201 0.36074 0)
(10.118 0.27382 0)
(10.0826 0.187085 0)
(10.0405 0.131159 0)
(9.99393 0.096923 0)
(9.94013 0.0755521 0)
(9.88041 0.0617435 0)
(9.81785 0.0523363 0)
(9.75494 0.0455174 0)
(9.69312 0.0403435 0)
(9.6332 0.0363536 0)
(9.57557 0.0332913 0)
(9.52061 0.0311366 0)
(9.46755 0.0297229 0)
(9.41883 0.030808 0)
(9.36751 0.0318695 0)
(9.34226 0.0521495 0)
(9.99919 0.0460863 0)
(10.0244 0.034208 0)
(10.0538 0.0149472 0)
(10.0708 0.0218065 0)
(10.0778 0.0366668 0)
(10.0783 0.0460015 0)
(10.0722 0.04994 0)
(10.0603 0.0511287 0)
(10.0439 0.0510325 0)
(10.0246 0.0503126 0)
(10.0031 0.04934 0)
(9.98006 0.0483604 0)
(9.95593 0.0475235 0)
(9.93117 0.0470615 0)
(9.90572 0.0470469 0)
(9.88062 0.0488063 0)
(9.85511 0.0515167 0)
(9.83523 0.0628036 0)
(9.9968 0.00642723 0)
(10.0085 0.0250162 0)
(10.0342 0.038934 0)
(10.0528 0.0502965 0)
(10.0644 0.0570993 0)
(10.0731 0.0591527 0)
(10.079 0.0588375 0)
(10.0817 0.0579138 0)
(10.0816 0.0569029 0)
(10.0795 0.0558801 0)
(10.0758 0.0548978 0)
(10.0708 0.0540423 0)
(10.0645 0.0534031 0)
(10.0574 0.0531725 0)
(10.0494 0.0534829 0)
(10.0412 0.055203 0)
(10.0333 0.057998 0)
(10.0279 0.0643437 0)
(9.99922 0.00673647 0)
(10.0081 0.0335707 0)
(10.0271 0.0460376 0)
(10.0418 0.0508366 0)
(10.0524 0.053902 0)
(10.0622 0.055487 0)
(10.0709 0.0558295 0)
(10.0775 0.0556406 0)
(10.0823 0.0552662 0)
(10.0858 0.0547973 0)
(10.0881 0.0543079 0)
(10.0895 0.0539021 0)
(10.09 0.0536885 0)
(10.0899 0.0538396 0)
(10.0892 0.0545044 0)
(10.0885 0.0561682 0)
(10.0884 0.0586425 0)
(10.09 0.0624053 0)
(10.0002 0.00907275 0)
(10.0078 0.0321206 0)
(10.0225 0.041904 0)
(10.035 0.0456548 0)
(10.0448 0.0491106 0)
(10.0542 0.0516427 0)
(10.063 0.0527767 0)
(10.0705 0.0531229 0)
(10.0767 0.0531565 0)
(10.0819 0.0530412 0)
(10.0864 0.0528684 0)
(10.0901 0.0527451 0)
(10.0933 0.0527812 0)
(10.0959 0.0531181 0)
(10.0983 0.0538773 0)
(10.1007 0.0552964 0)
(10.1038 0.0572159 0)
(10.1081 0.0594806 0)
(10.0003 0.00879888 0)
(10.0068 0.027513 0)
(10.019 0.0370741 0)
(10.0303 0.0417279 0)
(10.0395 0.0456439 0)
(10.0483 0.0484635 0)
(10.0566 0.049868 0)
(10.0641 0.0504547 0)
(10.0706 0.0507096 0)
(10.0764 0.0508043 0)
(10.0816 0.0508252 0)
(10.0862 0.0508714 0)
(10.0904 0.0510433 0)
(10.0943 0.051449 0)
(10.098 0.0521696 0)
(10.1019 0.0532949 0)
(10.1063 0.0546635 0)
(10.1116 0.0559561 0)
(10.0004 0.00783562 0)
(10.0057 0.0236893 0)
(10.016 0.033359 0)
(10.0264 0.0385722 0)
(10.0351 0.0424618 0)
(10.0433 0.0452495 0)
(10.0512 0.0467969 0)
(10.0585 0.0475691 0)
(10.0649 0.0479908 0)
(10.0708 0.0482351 0)
(10.0763 0.0483888 0)
(10.0813 0.0485427 0)
(10.086 0.0487844 0)
(10.0904 0.0491915 0)
(10.0948 0.0498072 0)
(10.0994 0.0506383 0)
(10.1043 0.0515244 0)
(10.1098 0.0521575 0)
(10.0004 0.00694938 0)
(10.0049 0.0207015 0)
(10.0136 0.0300238 0)
(10.023 0.035384 0)
(10.0312 0.0391624 0)
(10.0389 0.0419159 0)
(10.0464 0.0435984 0)
(10.0534 0.0445351 0)
(10.0598 0.0450903 0)
(10.0657 0.045445 0)
(10.0711 0.0456905 0)
(10.0763 0.0459089 0)
(10.0812 0.0461731 0)
(10.0859 0.0465363 0)
(10.0906 0.0470128 0)
(10.0954 0.0475685 0)
(10.1005 0.0480572 0)
(10.106 0.0482398 0)
(10.0004 0.00616241 0)
(10.0042 0.0181154 0)
(10.0116 0.0267853 0)
(10.0199 0.0321198 0)
(10.0277 0.0358216 0)
(10.035 0.0385436 0)
(10.0421 0.0403185 0)
(10.0488 0.0413797 0)
(10.055 0.0420365 0)
(10.0608 0.0424716 0)
(10.0663 0.0427784 0)
(10.0715 0.0430296 0)
(10.0764 0.043284 0)
(10.0813 0.0435763 0)
(10.0861 0.0439035 0)
(10.091 0.0442165 0)
(10.096 0.0443933 0)
(10.1013 0.044269 0)
(10.0003 0.00542543 0)
(10.0036 0.0157923 0)
(10.0099 0.0236983 0)
(10.0173 0.028889 0)
(10.0245 0.0324988 0)
(10.0314 0.0351537 0)
(10.0381 0.0369619 0)
(10.0446 0.0381035 0)
(10.0506 0.0388333 0)
(10.0563 0.0393239 0)
(10.0617 0.0396678 0)
(10.0669 0.0399284 0)
(10.0719 0.0401526 0)
(10.0768 0.0403625 0)
(10.0816 0.0405469 0)
(10.0865 0.0406574 0)
(10.0914 0.0405996 0)
(10.0964 0.0402703 0)
(10.0003 0.00477282 0)
(10.0031 0.0138466 0)
(10.0086 0.0210233 0)
(10.0152 0.0259807 0)
(10.0219 0.0294627 0)
(10.0285 0.0320224 0)
(10.0349 0.0338162 0)
(10.0411 0.0349943 0)
(10.0469 0.0357647 0)
(10.0525 0.0362846 0)
(10.0579 0.0366426 0)
(10.063 0.0368949 0)
(10.0679 0.0370796 0)
(10.0728 0.0372117 0)
(10.0776 0.0372784 0)
(10.0823 0.0372389 0)
(10.0871 0.0370232 0)
(10.0919 0.0365725 0)
(10.0003 0.00416621 0)
(10.0028 0.0120791 0)
(10.0075 0.0185083 0)
(10.0134 0.0231419 0)
(10.0197 0.0264536 0)
(10.0258 0.0288943 0)
(10.0319 0.0306398 0)
(10.0378 0.0318224 0)
(10.0436 0.0326105 0)
(10.049 0.033142 0)
(10.0543 0.0334995 0)
(10.0593 0.0337333 0)
(10.0642 0.0338747 0)
(10.069 0.0339348 0)
(10.0737 0.0339025 0)
(10.0784 0.0337469 0)
(10.083 0.0334182 0)
(10.0875 0.0328901 0)
(10.0003 0.00353422 0)
(10.0024 0.0102404 0)
(10.0064 0.0158152 0)
(10.0117 0.0199939 0)
(10.0174 0.0230475 0)
(10.0232 0.0253108 0)
(10.0289 0.0269563 0)
(10.0346 0.0281014 0)
(10.0401 0.0288772 0)
(10.0454 0.0293976 0)
(10.0505 0.0297362 0)
(10.0555 0.0299372 0)
(10.0603 0.0300263 0)
(10.065 0.0300126 0)
(10.0696 0.0298891 0)
(10.0741 0.0296362 0)
(10.0785 0.029223 0)
(10.0828 0.0286475 0)
(10.0002 0.00287522 0)
(10.002 0.00832964 0)
(10.0055 0.0129543 0)
(10.0101 0.0165432 0)
(10.0153 0.0192293 0)
(10.0206 0.0212378 0)
(10.026 0.0227172 0)
(10.0314 0.0237678 0)
(10.0366 0.0244878 0)
(10.0418 0.024965 0)
(10.0467 0.0252606 0)
(10.0516 0.0254123 0)
(10.0563 0.0254413 0)
(10.0608 0.0253564 0)
(10.0653 0.0251556 0)
(10.0696 0.0248303 0)
(10.0738 0.0243648 0)
(10.0779 0.0237734 0)
(10.0002 0.00218955 0)
(10.0017 0.00634757 0)
(10.0047 0.00993066 0)
(10.0088 0.0127913 0)
(10.0134 0.0149821 0)
(10.0183 0.0166379 0)
(10.0233 0.0178688 0)
(10.0284 0.0187529 0)
(10.0334 0.0193597 0)
(10.0383 0.0197514 0)
(10.0431 0.0199744 0)
(10.0478 0.0200585 0)
(10.0523 0.0200212 0)
(10.0567 0.0198714 0)
(10.061 0.0196116 0)
(10.0651 0.0192414 0)
(10.0691 0.0187556 0)
(10.0729 0.0181771 0)
(10.0002 0.00147414 0)
(10.0015 0.00427776 0)
(10.0041 0.00672227 0)
(10.0077 0.00871494 0)
(10.0119 0.0102701 0)
(10.0164 0.011457 0)
(10.0211 0.0123424 0)
(10.0258 0.0129766 0)
(10.0306 0.0134028 0)
(10.0353 0.0136595 0)
(10.0399 0.0137767 0)
(10.0444 0.0137748 0)
(10.0487 0.0136668 0)
(10.053 0.0134606 0)
(10.0571 0.0131611 0)
(10.061 0.0127721 0)
(10.0648 0.0122943 0)
(10.0684 0.0117526 0)
(10.0001 0.000711414 0)
(10.0013 0.00206453 0)
(10.0037 0.00325008 0)
(10.0069 0.00422651 0)
(10.0108 0.00499598 0)
(10.015 0.00558295 0)
(10.0194 0.00601229 0)
(10.0239 0.00630397 0)
(10.0285 0.00647569 0)
(10.033 0.00654329 0)
(10.0374 0.00651935 0)
(10.0417 0.00641282 0)
(10.0459 0.00622996 0)
(10.05 0.00597547 0)
(10.0539 0.00565322 0)
(10.0576 0.00526757 0)
(10.0612 0.00482055 0)
(10.0646 0.00433493 0)
(10.0001 -0.000145188 0)
(10.0013 -0.000423782 0)
(10.0035 -0.00067427 0)
(10.0066 -0.000884254 0)
(10.0104 -0.0010513 0)
(10.0145 -0.00118931 0)
(10.0188 -0.00131755 0)
(10.0232 -0.00144992 0)
(10.0276 -0.0015951 0)
(10.032 -0.00176027 0)
(10.0363 -0.00195194 0)
(10.0405 -0.00217503 0)
(10.0445 -0.00243272 0)
(10.0484 -0.00272664 0)
(10.0522 -0.0030572 0)
(10.0558 -0.00342313 0)
(10.0592 -0.00382423 0)
(10.0625 -0.00424355 0)
(10.0001 -0.000968561 0)
(10.0014 -0.00282223 0)
(10.0037 -0.00446294 0)
(10.0071 -0.0058088 0)
(10.011 -0.00685358 0)
(10.0153 -0.00765886 0)
(10.0197 -0.00829161 0)
(10.0242 -0.00879711 0)
(10.0286 -0.00920988 0)
(10.033 -0.00956192 0)
(10.0373 -0.00987971 0)
(10.0415 -0.0101818 0)
(10.0455 -0.0104806 0)
(10.0493 -0.0107848 0)
(10.053 -0.0110999 0)
(10.0565 -0.0114289 0)
(10.0599 -0.0117745 0)
(10.063 -0.0121256 0)
(10.0002 -0.00168181 0)
(10.0015 -0.00492353 0)
(10.0042 -0.0077824 0)
(10.0079 -0.0100552 0)
(10.0123 -0.0117575 0)
(10.0168 -0.013046 0)
(10.0215 -0.0140384 0)
(10.0261 -0.0147942 0)
(10.0307 -0.0153675 0)
(10.0352 -0.0158172 0)
(10.0395 -0.0161903 0)
(10.0437 -0.0165171 0)
(10.0477 -0.0168169 0)
(10.0515 -0.0171037 0)
(10.0552 -0.0173871 0)
(10.0587 -0.0176729 0)
(10.062 -0.0179652 0)
(10.0651 -0.0182567 0)
(10.0002 -0.00236306 0)
(10.0017 -0.00701018 0)
(10.0048 -0.011115 0)
(10.0092 -0.0142196 0)
(10.014 -0.016418 0)
(10.019 -0.0180478 0)
(10.0239 -0.0192892 0)
(10.0288 -0.0202067 0)
(10.0336 -0.0208722 0)
(10.0382 -0.0213684 0)
(10.0426 -0.0217566 0)
(10.0469 -0.0220749 0)
(10.0509 -0.0223496 0)
(10.0547 -0.0225996 0)
(10.0584 -0.0228383 0)
(10.0619 -0.0230731 0)
(10.0652 -0.0233094 0)
(10.0683 -0.0235422 0)
(10.0002 -0.002998 0)
(10.0018 -0.00911713 0)
(10.0056 -0.0144935 0)
(10.0108 -0.0183419 0)
(10.0163 -0.0209652 0)
(10.0217 -0.0228635 0)
(10.0269 -0.0242314 0)
(10.0321 -0.0251747 0)
(10.0371 -0.0258311 0)
(10.0419 -0.0263119 0)
(10.0464 -0.0266773 0)
(10.0507 -0.0269623 0)
(10.0548 -0.0271954 0)
(10.0586 -0.0273994 0)
(10.0623 -0.027589 0)
(10.0657 -0.0277727 0)
(10.069 -0.0279555 0)
(10.0721 -0.0281344 0)
(10.0001 -0.00357345 0)
(10.0019 -0.0115462 0)
(10.0064 -0.0179438 0)
(10.0127 -0.0220742 0)
(10.0189 -0.0250605 0)
(10.0247 -0.0273639 0)
(10.0304 -0.0289089 0)
(10.0359 -0.029825 0)
(10.0411 -0.030389 0)
(10.0459 -0.0307789 0)
(10.0506 -0.0310607 0)
(10.0549 -0.0312664 0)
(10.059 -0.0314255 0)
(10.0629 -0.0315613 0)
(10.0665 -0.0316875 0)
(10.07 -0.0318111 0)
(10.0732 -0.0319355 0)
(10.0763 -0.0320566 0)
(9.99997 -0.00369269 0)
(10.0018 -0.0151884 0)
(10.0076 -0.0226639 0)
(10.0148 -0.0259975 0)
(10.0214 -0.0285635 0)
(10.0277 -0.0310285 0)
(10.034 -0.0328099 0)
(10.0399 -0.033852 0)
(10.0454 -0.0344561 0)
(10.0505 -0.0348311 0)
(10.0552 -0.0350601 0)
(10.0596 -0.0351921 0)
(10.0637 -0.0352692 0)
(10.0675 -0.0353209 0)
(10.071 -0.0353637 0)
(10.0743 -0.0354058 0)
(10.0773 -0.0354508 0)
(10.0802 -0.0354962 0)
(9.99898 -0.00131131 0)
(9.99999 -0.0179804 0)
(10.0085 -0.0290798 0)
(10.0174 -0.0327075 0)
(10.0244 -0.0341336 0)
(10.0311 -0.0353618 0)
(10.0382 -0.0363107 0)
(10.0448 -0.0369551 0)
(10.0507 -0.0374078 0)
(10.0558 -0.0377088 0)
(10.0605 -0.0378728 0)
(10.0646 -0.0379358 0)
(10.0683 -0.037939 0)
(10.0716 -0.0379119 0)
(10.0744 -0.0378725 0)
(10.077 -0.0378323 0)
(10.0792 -0.0377946 0)
(10.0812 -0.0377587 0)
(9.99528 0.00386744 0)
(9.99333 -0.0103158 0)
(10.007 -0.0271098 0)
(10.0212 -0.0389348 0)
(10.0311 -0.0448748 0)
(10.0391 -0.0464831 0)
(10.0465 -0.0460013 0)
(10.0529 -0.0450461 0)
(10.058 -0.0441727 0)
(10.062 -0.043402 0)
(10.0651 -0.0426907 0)
(10.0673 -0.042036 0)
(10.0689 -0.0414441 0)
(10.0698 -0.0409147 0)
(10.0702 -0.0404454 0)
(10.0702 -0.0400352 0)
(10.0698 -0.0396745 0)
(10.0691 -0.0393366 0)
(9.99144 -0.0172944 0)
(9.99188 0.000362741 0)
(10.01 0.0176609 0)
(10.0295 0.0115815 0)
(10.0441 -0.00511827 0)
(10.054 -0.0188366 0)
(10.0599 -0.0271852 0)
(10.0622 -0.0320645 0)
(10.0616 -0.0349484 0)
(10.059 -0.0365562 0)
(10.0548 -0.0373356 0)
(10.0494 -0.0376117 0)
(10.043 -0.0375973 0)
(10.0359 -0.0374219 0)
(10.0284 -0.0371693 0)
(10.0204 -0.0369006 0)
(10.0123 -0.0366713 0)
(10.0041 -0.0364502 0)
(10.0236 -0.206008 0)
(10.0684 -0.312341 0)
(10.0788 -0.255596 0)
(10.0704 -0.184181 0)
(10.0605 -0.134907 0)
(10.0498 -0.102733 0)
(10.0342 -0.0811744 0)
(10.0129 -0.0666295 0)
(9.98772 -0.0566393 0)
(9.96047 -0.049485 0)
(9.93223 -0.0441293 0)
(9.90371 -0.0399823 0)
(9.87539 -0.036686 0)
(9.84762 -0.0340076 0)
(9.82062 -0.031799 0)
(9.79452 -0.0299968 0)
(9.76956 -0.0285706 0)
(9.74576 -0.027837 0)
(9.94226 0.671595 0)
(9.87995 0.567454 0)
(9.77443 0.338465 0)
(9.63235 0.183316 0)
(9.48759 0.0949029 0)
(9.35646 0.0470795 0)
(9.24087 0.0212939 0)
(9.13934 0.00707166 0)
(9.05037 -0.0009885 0)
(8.97234 -0.00563045 0)
(8.90355 -0.00832031 0)
(8.84244 -0.00988319 0)
(8.78777 -0.0107893 0)
(8.73855 -0.0113075 0)
(8.69396 -0.0115986 0)
(8.6533 -0.0117872 0)
(8.61571 -0.0119671 0)
(8.58081 -0.0124993 0)
(0.00370408 -0.00885854 -3.5022e-20)
(0.0132467 -0.0141481 3.46296e-20)
(0.0217726 -0.0126795 0)
(0.0273451 -0.00807873 0)
(0.0292185 -0.0024735 0)
(0.0271439 0.0027898 -3.25613e-20)
(0.02193 0.0069481 0)
(0.0142084 0.00989135 0)
(0.00453382 0.0118538 0)
(-0.00661502 0.0131789 0)
(-0.0189316 0.0141458 3.01181e-20)
(-0.0322646 0.0149274 0)
(-0.0465013 0.0156223 0)
(-0.0615804 0.0162798 0)
(-0.0774673 0.0169217 0)
(-0.0941394 0.0175552 2.68924e-20)
(-0.111579 0.0181808 0)
(-0.12977 0.0187964 0)
(-0.148697 0.0193989 0)
(-0.168343 0.0199864 0)
(-0.188692 0.0205581 0)
(-0.209729 0.021116 0)
(-0.23144 0.0216631 0)
(-0.253812 0.022199 2.28749e-20)
(-0.27683 0.0227124 -2.24836e-20)
(-0.300467 0.023173 2.21165e-20)
(-0.324678 0.023536 2.17735e-20)
(-0.349398 0.023771 0)
(-0.374567 0.0239128 0)
(-0.400169 0.0240855 -2.08919e-20)
(-0.426261 0.0244194 -2.06478e-20)
(-0.452919 0.0248435 0)
(-0.480091 0.0249496 0)
(-0.507473 0.0242888 -2.00611e-20)
(-0.534634 0.0231665 0)
(-0.56145 0.0232438 0)
(-0.588554 0.0269694 1.9627e-20)
(-0.617609 0.0359319 0)
(-0.651466 0.049752 1.93631e-20)
(-0.691814 0.0704654 3.83261e-20)
(-0.734346 0.092453 0)
(-0.776914 0.0594132 0)
(-0.814896 0.0191042 0)
(-0.844188 0.0297014 0)
(-0.881815 0.0315599 0)
(-0.920283 0.0331755 4.01193e-20)
(-0.96027 0.0341641 3.96587e-20)
(-1.00104 0.0346873 3.92071e-20)
(-1.04233 0.0349314 0)
(-1.08393 0.0349897 -3.83387e-20)
(-1.12571 0.0349233 0)
(-1.16757 0.0347702 3.75194e-20)
(-1.20944 0.0345553 3.71277e-20)
(-1.25127 0.0342947 0)
(-1.29301 0.0339993 0)
(-1.33463 0.0336761 0)
(-1.37609 0.0333295 3.56658e-20)
(-1.41738 0.0329626 0)
(-1.45846 0.0325768 0)
(-1.4993 0.0321731 0)
(-1.53988 0.0317517 0)
(-1.58017 0.0313126 0)
(-1.62015 0.0308553 0)
(-1.65977 0.0303795 0)
(-1.69903 0.0298847 0)
(-1.73787 0.0293703 -3.28034e-20)
(-1.77627 0.0288361 0)
(-1.8142 0.0282816 0)
(-1.85162 0.0277067 3.19167e-20)
(-1.8885 0.0271112 3.16232e-20)
(-1.92479 0.026495 0)
(-1.96047 0.0258584 -3.10357e-20)
(-1.99549 0.0252016 3.07405e-20)
(-2.02982 0.024525 0)
(-2.06342 0.023829 -3.01446e-20)
(-2.09625 0.0231141 0)
(-2.12828 0.0223811 0)
(-2.15946 0.0216306 2.92285e-20)
(-2.18977 0.0208634 0)
(-2.21916 0.0200803 -2.85966e-20)
(-2.2476 0.019282 0)
(-2.27505 0.0184693 2.7943e-20)
(-2.30148 0.0176429 2.76069e-20)
(-2.32686 0.0168034 2.7264e-20)
(-2.35114 0.0159512 5.38277e-20)
(-2.3743 0.0150865 -5.31119e-20)
(-2.39631 0.0142091 0)
(-2.41713 0.0133186 0)
(-2.43672 0.0124136 0)
(-2.45506 0.0114925 -5.00787e-20)
(-2.4721 0.0105523 -4.92742e-20)
(-2.48782 0.00958917 4.84499e-20)
(-2.50216 0.00859856 0)
(-2.51509 0.00757504 -4.67397e-20)
(-2.52655 0.00651195 -4.5853e-20)
(-2.53648 0.00540289 -4.49447e-20)
(-2.5448 0.00424735 0)
(-2.55144 0.00306255 0)
(-2.55628 0.00189166 0)
(-2.5592 0.000789742 -4.1092e-20)
(-2.56032 -0.000190706 0)
(-2.56004 -0.00104253 0)
(-2.55828 -0.00186277 3.79304e-20)
(-2.55506 -0.00266848 0)
(-2.55037 -0.00346753 0)
(-2.54421 -0.0042613 3.45334e-20)
(-2.53656 -0.00504986 0)
(-2.52741 -0.00583263 0)
(-2.51676 -0.00660883 -3.08972e-20)
(-2.5046 -0.00737761 -2.96321e-20)
(-2.49093 -0.00813812 0)
(-2.47574 -0.00888949 2.70234e-20)
(-2.45903 -0.0096309 0)
(-2.44081 -0.0103615 -2.43117e-20)
(-2.42108 -0.0110806 0)
(-2.39985 -0.0117872 -2.15002e-20)
(-2.37711 -0.0124808 -2.00582e-20)
(-2.35289 -0.0131604 0)
(-2.32719 -0.0138255 0)
(-2.30003 -0.0144752 0)
(-2.27143 -0.015109 0)
(-2.24139 -0.0157261 0)
(-2.20993 -0.016326 0)
(-2.17709 -0.0169082 0)
(-2.14288 -0.017472 -7.73971e-21)
(-2.10733 -0.018017 6.11447e-21)
(-2.07045 -0.0185426 0)
(-2.03229 -0.0190485 0)
(-1.99287 -0.0195342 0)
(-1.95221 -0.0199992 0)
(-1.91036 -0.0204432 -4.45166e-21)
(-1.86734 -0.0208659 0)
(-1.8232 -0.0212671 1.12797e-20)
(-1.77796 -0.0216465 -1.4717e-20)
(-1.73167 -0.0220041 0)
(-1.68436 -0.0223395 0)
(-1.63608 -0.0226528 0)
(-1.58686 -0.0229438 2.85591e-20)
(-1.53674 -0.0232126 3.2029e-20)
(-1.48578 -0.0234593 0)
(-1.434 -0.023684 3.89606e-20)
(-1.38146 -0.0238869 4.24167e-20)
(-1.3282 -0.0240682 -4.58624e-20)
(-1.27425 -0.0242282 0)
(-1.21967 -0.0243673 0)
(-1.1645 -0.0244859 -5.61103e-20)
(-1.10878 -0.0245845 0)
(-1.05254 -0.0246636 0)
(-0.995845 -0.0247237 0)
(-0.93872 -0.0247657 0)
(-0.881209 -0.0247902 7.27305e-20)
(-0.823349 -0.0247979 7.59626e-20)
(-0.76518 -0.0247898 0)
(-0.706734 -0.0247666 8.23158e-20)
(-0.648047 -0.0247294 0)
(-0.58915 -0.024679 0)
(-0.530074 -0.0246165 9.15361e-20)
(-0.470847 -0.0245425 0)
(-0.411495 -0.0244578 9.74539e-20)
(-0.352043 -0.0243626 0)
(-0.29252 -0.024257 0)
(-0.232947 -0.0241387 1.05952e-19)
(-0.173356 -0.0240009 0)
(-0.113775 -0.0238393 1.11349e-19)
(-0.0542269 -0.0236483 0)
(0.00525986 -0.0233821 0)
(0.0645404 -0.0230122 0)
(0.123711 -0.022629 -1.18201e-19)
(0.182773 -0.0222696 0)
(0.241735 -0.0219288 1.19708e-19)
(0.300606 -0.0215961 0)
(0.359373 -0.0212608 0)
(0.417992 -0.0209081 0)
(0.476358 -0.0205147 0)
(0.534293 -0.0200347 0)
(0.591299 -0.0193763 0)
(0.646955 -0.0182936 0)
(0.697196 -0.0161579 -2.46704e-19)
(0.746059 -0.0113608 0)
(0.748488 0.00623826 0)
(0.00384378 -0.026762 1.04117e-19)
(0.00866417 -0.0274329 -1.002e-19)
(0.00884153 -0.0177524 0)
(0.00655527 -0.00688388 6.08428e-20)
(0.00221784 0.00360848 0)
(-0.00390896 0.0129726 2.87284e-20)
(-0.0118317 0.020823 -5.6068e-20)
(-0.0214623 0.0271195 -5.48045e-20)
(-0.0327082 0.0320536 0)
(-0.0454394 0.0359311 -5.23652e-20)
(-0.0595067 0.0390693 -2.55924e-20)
(-0.0747676 0.0417163 0)
(-0.091105 0.0440417 0)
(-0.108431 0.0461533 0)
(-0.126683 0.0481149 0)
(-0.145819 0.0499625 -2.27775e-20)
(-0.16581 0.0517155 0)
(-0.18664 0.0533841 4.35503e-20)
(-0.208299 0.0549745 0)
(-0.230784 0.0564916 0)
(-0.254097 0.0579405 -4.09432e-20)
(-0.278245 0.0593272 0)
(-0.303234 0.0606558 3.94406e-20)
(-0.329077 0.0619252 -1.94013e-20)
(-0.355786 0.063124 1.9085e-20)
(-0.383377 0.0642309 -1.87924e-20)
(-0.41188 0.065227 -1.85237e-20)
(-0.441342 0.0661233 0)
(-0.471834 0.0669879 0)
(-0.503437 0.0679346 1.78718e-20)
(-0.536217 0.0690358 -1.76537e-20)
(-0.570225 0.0701895 0)
(-0.605545 0.0710893 0)
(-0.642371 0.0714597 1.74114e-20)
(-0.680985 0.0714722 0)
(-0.721523 0.0718708 0)
(-0.763736 0.0733874 -1.71761e-20)
(-0.806967 0.0758471 0)
(-0.849738 0.0782389 1.68484e-20)
(-0.888975 0.080223 -3.35725e-20)
(-0.924878 0.0818971 0)
(-0.965629 0.082213 0)
(-1.00983 0.0831765 -6.58536e-20)
(-1.05548 0.0863626 -6.50654e-20)
(-1.09781 0.0883827 -6.42977e-20)
(-1.13851 0.0894222 3.16865e-20)
(-1.17839 0.0898435 -3.14776e-20)
(-1.2177 0.0897974 -9.3207e-20)
(-1.25658 0.0894396 6.1394e-20)
(-1.2951 0.0888603 3.04331e-20)
(-1.33331 0.0881222 0)
(-1.3712 0.087268 -2.97879e-20)
(-1.40879 0.0863274 2.93331e-20)
(-1.44607 0.0853203 0)
(-1.48303 0.0842604 0)
(-1.51967 0.0831563 0)
(-1.55597 0.0820136 -2.83264e-20)
(-1.59191 0.0808355 0)
(-1.62749 0.0796235 5.54316e-20)
(-1.66269 0.078378 0)
(-1.69748 0.0770988 5.43997e-20)
(-1.73185 0.0757852 0)
(-1.76578 0.0744361 -5.34006e-20)
(-1.79925 0.0730505 0)
(-1.83222 0.0716273 5.2426e-20)
(-1.86469 0.0701657 -2.59014e-20)
(-1.89661 0.068665 0)
(-1.92797 0.0671245 -5.09922e-20)
(-1.95874 0.0655442 -2.53272e-20)
(-1.98889 0.0639239 -2.50889e-20)
(-2.01839 0.0622639 0)
(-2.04722 0.0605647 -2.44821e-20)
(-2.07534 0.058827 -2.43696e-20)
(-2.10273 0.0570519 0)
(-2.12936 0.0552405 2.38818e-20)
(-2.1552 0.0533942 -4.71538e-20)
(-2.18022 0.0515146 0)
(-2.20439 0.0496032 -2.31293e-20)
(-2.22769 0.0476619 0)
(-2.25008 0.0456925 6.77302e-20)
(-2.27155 0.0436968 0)
(-2.29205 0.0416769 -6.61245e-20)
(-2.31157 0.0396344 -2.17935e-20)
(-2.33008 0.0375712 2.14344e-20)
(-2.34755 0.0354888 4.23028e-20)
(-2.36396 0.0333888 -4.17246e-20)
(-2.37928 0.0312722 0)
(-2.39349 0.02914 0)
(-2.40656 0.0269927 0)
(-2.41847 0.0248303 1.17994e-19)
(-2.42919 0.0226522 3.86966e-20)
(-2.43871 0.0204571 -3.80199e-20)
(-2.447 0.0182431 0)
(-2.45405 0.0160079 -3.65955e-20)
(-2.45985 0.0137484 3.58916e-20)
(-2.4644 0.0114602 3.51484e-20)
(-2.46771 0.0091399 0)
(-2.46985 0.00679644 0)
(-2.47088 0.00447082 0)
(-2.47094 0.00222749 3.19914e-20)
(-2.46994 8.69057e-05 0)
(-2.46755 -0.00195729 -6.06694e-20)
(-2.46379 -0.00396247 -8.8342e-20)
(-2.45861 -0.00594211 5.71534e-20)
(-2.45199 -0.0079032 0)
(-2.44392 -0.00984626 2.6822e-20)
(-2.43437 -0.0117701 0)
(-2.42335 -0.0136727 4.96841e-20)
(-2.41084 -0.0155519 -2.39633e-20)
(-2.39684 -0.0174052 -2.29745e-20)
(-2.38135 -0.0192305 0)
(-2.36436 -0.0210255 -6.23387e-20)
(-2.34586 -0.0227881 3.95446e-20)
(-2.32588 -0.0245162 1.85683e-20)
(-2.3044 -0.0262078 0)
(-2.28143 -0.0278612 1.6375e-20)
(-2.25699 -0.0294745 4.60879e-20)
(-2.23107 -0.0310458 0)
(-2.2037 -0.0325736 2.6295e-20)
(-2.17488 -0.0340562 2.39846e-20)
(-2.14464 -0.0354921 2.16481e-20)
(-2.11297 -0.0368799 0)
(-2.07992 -0.0382184 0)
(-2.04549 -0.0395063 0)
(-2.00971 -0.0407426 -6.24647e-21)
(-1.9726 -0.0419264 -4.5927e-21)
(-1.9342 -0.0430569 0)
(-1.89452 -0.0441331 -4.67843e-21)
(-1.85359 -0.0451543 -2.18495e-21)
(-1.81145 -0.0461199 0)
(-1.76813 -0.0470293 3.32146e-21)
(-1.72366 -0.0478823 1.07246e-20)
(-1.67807 -0.0486785 -8.3942e-21)
(-1.63141 -0.0494181 -9.9246e-21)
(-1.58371 -0.050101 0)
(-1.53501 -0.0507272 0)
(-1.48534 -0.051297 0)
(-1.43476 -0.0518107 -2.11223e-20)
(-1.38329 -0.0522687 2.25938e-20)
(-1.33098 -0.0526719 5.13105e-20)
(-1.27788 -0.053021 -2.87153e-20)
(-1.22402 -0.0533169 3.01423e-20)
(-1.16945 -0.0535605 3.37277e-20)
(-1.11422 -0.053753 0)
(-1.05836 -0.0538958 0)
(-1.00191 -0.0539904 -4.00405e-20)
(-0.944925 -0.0540382 0)
(-0.887442 -0.0540409 0)
(-0.829501 -0.0540004 9.56458e-20)
(-0.771143 -0.0539187 0)
(-0.712407 -0.0537977 5.19873e-20)
(-0.653331 -0.0536396 -5.53838e-20)
(-0.593952 -0.0534467 0)
(-0.534305 -0.0532214 5.88508e-20)
(-0.474423 -0.052966 0)
(-0.414337 -0.0526828 0)
(-0.354077 -0.0523744 -6.64855e-20)
(-0.293671 -0.0520427 1.36173e-19)
(-0.233145 -0.0516894 -7.06902e-20)
(-0.172522 -0.0513157 0)
(-0.111827 -0.0509205 0)
(-0.0510819 -0.0505023 7.57172e-20)
(0.00969126 -0.0500576 0)
(0.0704682 -0.0495835 7.86501e-20)
(0.131231 -0.0490862 0)
(0.191966 -0.0485672 0)
(0.252654 -0.048013 0)
(0.313324 -0.0474475 8.35962e-20)
(0.373966 -0.0468965 0)
(0.434573 -0.0463596 -8.53445e-20)
(0.495136 -0.0458243 0)
(0.555628 -0.0452708 0)
(0.615995 -0.0446688 1.74368e-19)
(0.676128 -0.0439664 -1.7569e-19)
(0.735841 -0.0430634 0)
(0.794701 -0.0417659 0)
(0.85226 -0.0395752 0)
(0.905987 -0.0355405 5.42298e-19)
(0.95845 -0.0264371 0)
(0.989043 -0.00435445 -3.68932e-19)
(0.0013564 -0.0337432 -3.91256e-23)
(-0.000786941 -0.0237591 1.30033e-19)
(-0.0062068 -0.00851924 0)
(-0.0129182 0.00584691 -1.12554e-19)
(-0.0209026 0.0189849 0)
(-0.0299968 0.0307547 0)
(-0.0401657 0.0410587 1.12796e-23)
(-0.0514499 0.049881 4.87375e-20)
(-0.0638996 0.0573258 4.75455e-20)
(-0.0775314 0.0635932 4.64472e-20)
(-0.0923211 0.0689243 0)
(-0.108217 0.0735489 0)
(-0.12516 0.0776578 -4.33362e-20)
(-0.143095 0.0813956 -8.47388e-20)
(-0.161977 0.0848649 8.28773e-20)
(-0.181772 0.0881357 0)
(-0.202458 0.0912546 7.93857e-20)
(-0.224024 0.0942534 -3.88943e-20)
(-0.246467 0.0971549 0)
(-0.269788 0.0999773 7.47517e-20)
(-0.293997 0.102736 3.66994e-20)
(-0.319106 0.105445 -7.20656e-20)
(-0.345129 0.108115 -3.54358e-20)
(-0.372083 0.110751 0)
(-0.399987 0.113352 6.86197e-20)
(-0.428866 0.115917 6.76193e-20)
(-0.458751 0.118454 0)
(-0.489682 0.121 6.58259e-20)
(-0.521688 0.123626 0)
(-0.554772 0.126408 6.42919e-20)
(-0.588886 0.129368 3.18264e-20)
(-0.623955 0.132413 0)
(-0.65993 0.135367 0)
(-0.696838 0.138127 0)
(-0.734698 0.140838 0)
(-0.773321 0.14383 0)
(-0.812233 0.147269 0)
(-0.850823 0.150847 5.93283e-20)
(-0.888381 0.153902 -8.79443e-20)
(-0.924049 0.155728 0)
(-0.9581 0.155412 0)
(-0.992856 0.152331 0)
(-1.02941 0.148978 3.51302e-23)
(-1.06645 0.147317 5.51518e-20)
(-1.10251 0.146088 1.08842e-19)
(-1.13786 0.144958 -1.07443e-19)
(-1.17268 0.143777 -5.30037e-20)
(-1.20706 0.142473 5.24121e-20)
(-1.24111 0.141041 -7.52696e-23)
(-1.27486 0.139496 5.10648e-20)
(-1.30836 0.137855 0)
(-1.34163 0.136136 4.98617e-20)
(-1.37468 0.134352 -8.35389e-23)
(-1.40751 0.132512 0)
(-1.44012 0.130625 0)
(-1.4725 0.128693 -4.76427e-20)
(-1.50464 0.126719 0)
(-1.53653 0.124703 0)
(-1.56815 0.122644 4.602e-20)
(-1.59949 0.120541 9.12471e-20)
(-1.63053 0.118392 -4.52374e-20)
(-1.66125 0.116195 0)
(-1.69162 0.113948 4.42994e-20)
(-1.72163 0.111648 0)
(-1.75124 0.109294 4.31957e-20)
(-1.78044 0.106885 4.29348e-20)
(-1.8092 0.104418 -8.47887e-20)
(-1.83749 0.101895 -4.18585e-20)
(-1.86529 0.0993134 0)
(-1.89256 0.0966742 8.21401e-20)
(-1.91928 0.0939777 0)
(-1.94542 0.0912249 1.20661e-19)
(-1.97095 0.0884168 7.95031e-20)
(-1.99583 0.0855551 7.862e-20)
(-2.02005 0.0826415 -7.77325e-20)
(-2.04356 0.0796782 1.15336e-19)
(-2.06635 0.0766675 0)
(-2.08837 0.0736119 0)
(-2.10961 0.0705142 -7.41132e-20)
(-2.13003 0.0673771 -1.09843e-19)
(-2.1496 0.0642034 0)
(-2.1683 0.0609961 3.5704e-20)
(-2.18609 0.0577579 0)
(-2.20295 0.0544917 -1.04064e-19)
(-2.21885 0.0512001 -9.24397e-23)
(-2.23377 0.0478855 8.39112e-23)
(-2.24768 0.0445501 6.62963e-20)
(-2.26056 0.0411961 0)
(-2.27238 0.0378252 -6.4173e-20)
(-2.28312 0.034439 -4.71226e-23)
(-2.29276 0.031039 0)
(-2.30128 0.0276268 0)
(-2.30867 0.0242046 0)
(-2.3149 0.0207755 5.85034e-20)
(-2.31998 0.0173445 0)
(-2.3239 0.0139201 0)
(-2.32665 0.0105146 0)
(-2.32824 0.0071451 0)
(-2.32866 0.00383103 0)
(-2.32788 0.000584115 5.08761e-20)
(-2.32583 -0.00262424 0)
(-2.32244 -0.00582299 4.80274e-20)
(-2.31769 -0.00900399 4.65953e-20)
(-2.31157 -0.0121636 -4.51378e-20)
(-2.30405 -0.0152984 0)
(-2.29511 -0.0184048 -4.21466e-20)
(-2.28475 -0.0214789 0)
(-2.27296 -0.024517 -3.90547e-20)
(-2.25972 -0.0275149 3.74717e-20)
(-2.24504 -0.030469 1.07946e-19)
(-2.2289 -0.0333754 0)
(-2.2113 -0.0362306 9.81366e-20)
(-2.19226 -0.0390312 3.13235e-20)
(-2.17175 -0.0417739 0)
(-2.1498 -0.0444555 5.54323e-20)
(-2.1264 -0.0470731 5.19724e-20)
(-2.10157 -0.0496238 -7.24553e-20)
(-2.0753 -0.0521047 0)
(-2.04762 -0.0545134 -2.04061e-20)
(-2.01853 -0.0568471 -1.85918e-20)
(-1.98805 -0.0591036 -5.08715e-20)
(-1.9562 -0.0612806 0)
(-1.92299 -0.0633762 0)
(-1.88844 -0.0653885 0)
(-1.85258 -0.067316 -9.95949e-21)
(-1.81543 -0.0691572 0)
(-1.77701 -0.0709108 0)
(-1.73735 -0.0725757 3.59427e-21)
(-1.69648 -0.0741507 1.67681e-21)
(-1.65443 -0.0756348 0)
(-1.61122 -0.0770275 0)
(-1.5669 -0.0783281 -8.20437e-21)
(-1.5215 -0.0795366 0)
(-1.47504 -0.080653 1.59274e-20)
(-1.42758 -0.0816775 1.90006e-20)
(-1.37913 -0.0826103 0)
(-1.32975 -0.0834519 0)
(-1.27948 -0.0842028 -3.05102e-20)
(-1.22834 -0.0848642 -8.14573e-22)
(-1.17639 -0.0854372 -8.19817e-22)
(-1.12366 -0.0859234 0)
(-1.0702 -0.0863243 -9.21609e-20)
(-1.01605 -0.0866416 0)
(-0.96124 -0.0868771 0)
(-0.905824 -0.0870333 0)
(-0.849842 -0.0871128 6.129e-20)
(-0.793332 -0.087118 0)
(-0.736337 -0.0870517 -1.35327e-19)
(-0.678897 -0.086917 -7.20453e-20)
(-0.62105 -0.0867172 0)
(-0.562834 -0.0864557 -7.90204e-20)
(-0.504288 -0.086136 0)
(-0.445445 -0.0857618 0)
(-0.38634 -0.0853369 -2.65823e-19)
(-0.327005 -0.0848653 1.83245e-19)
(-0.26747 -0.0843509 0)
(-0.207765 -0.0837973 1.96086e-19)
(-0.147916 -0.0832079 -1.01967e-19)
(-0.0879474 -0.0825856 0)
(-0.0278818 -0.0819332 0)
(0.0322596 -0.0812523 0)
(0.0924563 -0.0805427 -3.36356e-19)
(0.152691 -0.0798032 0)
(0.212948 -0.079034 -1.16476e-19)
(0.273218 -0.0782408 0)
(0.333502 -0.0774365 0)
(0.393823 -0.0766318 0)
(0.454179 -0.0758327 0)
(0.514553 -0.075046 0)
(0.574929 -0.0742671 0)
(0.635287 -0.0734797 -2.54803e-19)
(0.695594 -0.0726558 0)
(0.755793 -0.0717486 -1.30758e-19)
(0.815779 -0.070678 3.9482e-19)
(0.875379 -0.0692958 0)
(0.934229 -0.0673201 0)
(0.991993 -0.0641375 -2.69921e-19)
(1.04697 -0.0585794 -2.73447e-19)
(1.10183 -0.0477245 2.75441e-19)
(1.14454 -0.0253205 2.80233e-19)
(-0.00214244 -0.0278654 -2.05446e-19)
(-0.00935063 -0.0100927 -1.90597e-19)
(-0.0183007 0.0082673 -1.14873e-19)
(-0.0280659 0.0246179 -5.29254e-20)
(-0.0387109 0.0394137 0)
(-0.0500348 0.0527758 9.54664e-20)
(-0.062037 0.0647296 -4.60677e-20)
(-0.074798 0.0753042 0)
(-0.0884041 0.0845824 -4.35681e-20)
(-0.102918 0.0927068 0)
(-0.118374 0.0998579 8.30327e-20)
(-0.134778 0.106224 0)
(-0.15212 0.111979 3.96848e-20)
(-0.170379 0.117268 7.76466e-20)
(-0.189535 0.122205 -7.59949e-20)
(-0.20957 0.126877 0)
(-0.230471 0.131346 -7.29056e-20)
(-0.252229 0.135661 0)
(-0.274843 0.139855 0)
(-0.298313 0.143956 -6.88024e-20)
(-0.322641 0.147986 0)
(-0.34783 0.151962 4.73631e-24)
(-0.373882 0.155895 0)
(-0.400797 0.159791 0)
(-0.428572 0.163649 -3.94829e-24)
(-0.457202 0.16747 -6.23393e-20)
(-0.486675 0.171253 -6.14472e-20)
(-0.516969 0.17501 -6.06041e-20)
(-0.54804 0.178758 0)
(-0.579808 0.182497 -1.18027e-19)
(-0.612154 0.186185 0)
(-0.644947 0.189718 -5.75277e-20)
(-0.678071 0.192957 0)
(-0.711449 0.195809 0)
(-0.74499 0.198285 5.53657e-20)
(-0.778514 0.20047 0)
(-0.811749 0.202389 -5.3884e-20)
(-0.844432 0.203918 -1.21385e-23)
(-0.876403 0.204872 1.04792e-19)
(-0.907639 0.205065 -1.03291e-19)
(-0.938409 0.204189 0)
(-0.969264 0.202097 0)
(-1.00049 0.199558 -4.95095e-20)
(-1.03181 0.197274 0)
(-1.06295 0.19511 -4.81505e-20)
(-1.09388 0.193004 4.74883e-20)
(-1.12458 0.190904 4.68435e-20)
(-1.15508 0.188772 0)
(-1.18539 0.186589 -4.56096e-20)
(-1.21555 0.18435 -4.50197e-20)
(-1.24556 0.182056 8.88349e-20)
(-1.27544 0.179708 -4.38901e-20)
(-1.30519 0.17731 -4.33487e-20)
(-1.3348 0.174861 0)
(-1.36427 0.172364 0)