/*--------------------------------*- C++ -*----------------------------------*\
  =========                 |
  \\      /  F ield         | OpenFOAM: The Open Source CFD Toolbox
   \\    /   O peration     | Website:  https://openfoam.org
    \\  /    A nd           | Version:  12
     \\/     M anipulation  |
\*---------------------------------------------------------------------------*/
FoamFile
{
    format      ascii;
    class       surfaceScalarField;
    location    "4";
    object      phi;
}
// * * * * * * * * * * * * * * * * * * * * * * * * * * * * * * * * * * * * * //

dimensions      [0 3 -1 0 0 0 0];

internalField   nonuniform List<scalar> 
760
(
1.47223e-07
-1.47228e-07
1.33874e-07
1.33492e-08
-1.96593e-07
3.30467e-07
-1.12859e-06
9.31998e-07
-2.53606e-06
1.40747e-06
-3.80388e-06
1.26782e-06
-4.827e-06
1.02312e-06
-5.61669e-06
7.89694e-07
-6.19308e-06
5.7639e-07
-6.62363e-06
4.30546e-07
-6.8871e-06
2.63468e-07
-7.06908e-06
1.81987e-07
-7.10677e-06
3.76831e-08
-7.03283e-06
-7.39344e-08
-6.78578e-06
-2.47048e-07
-6.30873e-06
-4.77055e-07
-5.36263e-06
-9.46096e-07
-3.82512e-06
-1.53752e-06
-1.69976e-06
-2.12536e-06
-1.69976e-06
-1.42125e-07
-5.10299e-09
-7.1257e-07
5.83794e-07
-1.91501e-06
1.5329e-06
-3.33249e-06
2.34948e-06
-4.32866e-06
2.40364e-06
-5.07436e-06
2.01353e-06
-5.72172e-06
1.67047e-06
-6.19881e-06
1.26678e-06
-6.57595e-06
9.53528e-07
-6.77965e-06
6.34247e-07
-6.9042e-06
3.88017e-07
-6.86792e-06
1.45711e-07
-6.77453e-06
-5.57089e-08
-6.60662e-06
-2.41843e-07
-6.3535e-06
-5.00172e-07
-5.94487e-06
-8.8568e-07
-5.28117e-06
-1.6098e-06
-4.0645e-06
-2.75419e-06
-2.19383e-06
-3.99603e-06
-3.89359e-06
-5.7884e-07
5.73737e-07
-1.68034e-06
1.6853e-06
-2.94208e-06
2.79464e-06
-3.81616e-06
3.22356e-06
-4.39074e-06
2.97822e-06
-4.81454e-06
2.43733e-06
-5.03946e-06
1.89539e-06
-5.06438e-06
1.29171e-06
-4.96196e-06
8.51103e-07
-4.79873e-06
4.71022e-07
-4.62579e-06
2.15073e-07
-4.48457e-06
4.49305e-09
-4.34454e-06
-1.95739e-07
-4.22958e-06
-3.56798e-07
-4.11394e-06
-6.15812e-07
-3.99039e-06
-1.00924e-06
-3.76032e-06
-1.83987e-06
-3.11391e-06
-3.4006e-06
-1.90645e-06
-5.20349e-06
-5.80004e-06
-9.09046e-07
1.48278e-06
-2.08661e-06
2.86286e-06
-2.97528e-06
3.68331e-06
-3.50936e-06
3.75764e-06
-3.71138e-06
3.18024e-06
-3.68009e-06
2.40604e-06
-3.55578e-06
1.77107e-06
-3.47521e-06
1.21115e-06
-3.40629e-06
7.82178e-07
-3.2828e-06
3.47529e-07
-3.12203e-06
5.4306e-08
-2.87539e-06
-2.42145e-07
-2.63687e-06
-4.34264e-07
-2.40741e-06
-5.86253e-07
-2.22644e-06
-7.96788e-07
-2.16946e-06
-1.06621e-06
-2.27734e-06
-1.73199e-06
-2.20457e-06
-3.47337e-06
-1.41915e-06
-5.98891e-06
-7.21919e-06
-9.42565e-07
2.42535e-06
-1.87508e-06
3.79537e-06
-2.4634e-06
4.27163e-06
-2.75216e-06
4.04639e-06
-2.76395e-06
3.19203e-06
-2.78318e-06
2.42528e-06
-2.88046e-06
1.86835e-06
-3.03488e-06
1.36556e-06
-3.11636e-06
8.63659e-07
-3.07302e-06
3.04191e-07
-2.88374e-06
-1.34978e-07
-2.56855e-06
-5.57329e-07
-2.19867e-06
-8.04147e-07
-1.82238e-06
-9.62543e-07
-1.49772e-06
-1.12145e-06
-1.25229e-06
-1.31164e-06
-1.23139e-06
-1.75289e-06
-1.30213e-06
-3.40262e-06
-1.06759e-06
-6.22345e-06
-8.28678e-06
-8.04727e-07
3.23008e-06
-1.4707e-06
4.46135e-06
-1.89252e-06
4.69345e-06
-2.09596e-06
4.24983e-06
-2.19657e-06
3.29263e-06
-2.41678e-06
2.64549e-06
-2.76161e-06
2.21318e-06
-3.06616e-06
1.67012e-06
-3.24379e-06
1.04129e-06
-3.24635e-06
3.0675e-07
-3.05215e-06
-3.29182e-07
-2.71154e-06
-8.97933e-07
-2.24347e-06
-1.27222e-06
-1.73959e-06
-1.46642e-06
-1.27956e-06
-1.58149e-06
-8.94228e-07
-1.69697e-06
-7.32623e-07
-1.9145e-06
-7.39486e-07
-3.39576e-06
-6.90681e-07
-6.27226e-06
-8.97746e-06
-5.48476e-07
3.77855e-06
-1.02485e-06
4.93772e-06
-1.35852e-06
5.02712e-06
-1.57248e-06
4.4638e-06
-1.82334e-06
3.54349e-06
-2.21922e-06
3.04137e-06
-2.65342e-06
2.64737e-06
-3.00685e-06
2.02355e-06
-3.21709e-06
1.25153e-06
-3.24859e-06
3.38243e-07
-3.08123e-06
-4.96536e-07
-2.75229e-06
-1.22688e-06
-2.26854e-06
-1.75596e-06
-1.72308e-06
-2.01189e-06
-1.22006e-06
-2.08451e-06
-7.8039e-07
-2.13665e-06
-4.98366e-07
-2.19652e-06
-4.8977e-07
-3.40435e-06
-5.61947e-07
-6.20008e-06
-9.53941e-06
-3.20093e-07
4.09864e-06
-6.35721e-07
5.25335e-06
-9.11403e-07
5.3028e-06
-1.1662e-06
4.7186e-06
-1.50345e-06
3.88074e-06
-1.94765e-06
3.48557e-06
-2.37881e-06
3.07853e-06
-2.70526e-06
2.35e-06
-2.88889e-06
1.43517e-06
-2.93615e-06
3.85502e-07
-2.8225e-06
-6.10188e-07
-2.55264e-06
-1.49674e-06
-2.1332e-06
-2.17541e-06
-1.61983e-06
-2.52525e-06
-1.11385e-06
-2.59049e-06
-6.93841e-07
-2.55666e-06
-3.69425e-07
-2.52094e-06
-3.08534e-07
-3.46524e-06
-3.77311e-07
-6.1313e-06
-9.91672e-06
-8.41195e-08
4.18276e-06
-2.74008e-07
5.44323e-06
-4.67252e-07
5.49605e-06
-7.11238e-07
4.96259e-06
-1.05842e-06
4.22792e-06
-1.42722e-06
3.85437e-06
-1.76791e-06
3.41922e-06
-2.02162e-06
2.60372e-06
-2.16132e-06
1.57487e-06
-2.2184e-06
4.42583e-07
-2.17976e-06
-6.48833e-07
-2.01824e-06
-1.65826e-06
-1.7225e-06
-2.47115e-06
-1.32543e-06
-2.92232e-06
-8.91856e-07
-3.02406e-06
-5.25439e-07
-2.92307e-06
-2.57603e-07
-2.78877e-06
-2.0142e-07
-3.52143e-06
-3.34196e-07
-5.99853e-06
-1.02509e-05
1.45837e-07
4.03693e-06
9.35205e-08
5.49555e-06
-2.139e-08
5.61096e-06
-2.06355e-07
5.14755e-06
-4.60506e-07
4.48208e-06
-7.21777e-07
4.11564e-06
-9.28531e-07
3.62597e-06
-1.0796e-06
2.75479e-06
-1.17359e-06
1.66886e-06
-1.23589e-06
5.04883e-07
-1.24612e-06
-6.38606e-07
-1.19557e-06
-1.70881e-06
-1.06192e-06
-2.60479e-06
-8.13518e-07
-3.17072e-06
-5.32477e-07
-3.3051e-06
-2.92877e-07
-3.16267e-06
-9.74728e-08
-2.98418e-06
-1.13057e-07
-3.50584e-06
-2.43416e-07
-5.86817e-06
-1.04943e-05
3.57139e-07
3.67979e-06
5.0204e-07
5.35065e-06
5.22164e-07
5.59083e-06
4.07987e-07
5.26173e-06
2.60846e-07
4.62922e-06
1.4249e-07
4.234e-06
6.24322e-08
3.70603e-06
7.55466e-11
2.81715e-06
-6.3805e-08
1.73274e-06
-1.18514e-07
5.59592e-07
-1.64354e-07
-5.92767e-07
-2.15988e-07
-1.65718e-06
-2.114e-07
-2.60938e-06
-1.75501e-07
-3.20662e-06
-4.17015e-08
-3.4389e-06
-3.61015e-08
-3.16827e-06
7.83844e-08
-3.09866e-06
-4.46381e-08
-3.38282e-06
-2.32903e-07
-5.6799e-06
-1.07272e-05
6.03276e-07
3.07651e-06
9.11154e-07
5.04277e-06
1.05328e-06
5.44871e-06
1.05673e-06
5.25828e-06
9.82823e-07
4.70313e-06
1.02233e-06
4.19448e-06
1.07476e-06
3.6536e-06
1.09025e-06
2.80165e-06
1.06049e-06
1.76251e-06
9.91821e-07
6.28257e-07
8.87319e-07
-4.88265e-07
7.70884e-07
-1.54074e-06
6.46941e-07
-2.48543e-06
5.52577e-07
-3.11226e-06
4.23466e-07
-3.30979e-06
3.3436e-07
-3.07917e-06
2.55829e-07
-3.02013e-06
2.60106e-08
-3.153e-06
-1.71599e-07
-5.48229e-06
-1.08988e-05
7.97612e-07
2.2789e-06
1.26558e-06
4.57481e-06
1.53359e-06
5.1807e-06
1.69e-06
5.10187e-06
1.7412e-06
4.65192e-06
1.86082e-06
4.07487e-06
2.00814e-06
3.50628e-06
2.09871e-06
2.71108e-06
2.11098e-06
1.75024e-06
2.04212e-06
6.97111e-07
1.90005e-06
-3.46195e-07
1.71509e-06
-1.35578e-06
1.48667e-06
-2.25702e-06
1.22428e-06
-2.84987e-06
9.50658e-07
-3.03617e-06
7.02511e-07
-2.83102e-06
4.34932e-07
-2.75255e-06
1.08663e-07
-2.82673e-06
-1.56485e-07
-5.21714e-06
-1.10553e-05
7.88689e-07
1.49021e-06
1.49672e-06
3.86677e-06
1.8975e-06
4.77992e-06
2.18395e-06
4.81542e-06
2.358e-06
4.47788e-06
2.54008e-06
3.89278e-06
2.75279e-06
3.29358e-06
2.90901e-06
2.55486e-06
2.97586e-06
1.68339e-06
2.92922e-06
7.43755e-07
2.79016e-06
-2.07137e-07
2.57376e-06
-1.13938e-06
2.26636e-06
-1.94961e-06
1.86732e-06
-2.45083e-06
1.43382e-06
-2.60267e-06
1.00342e-06
-2.40062e-06
5.90822e-07
-2.33996e-06
1.57882e-07
-2.39379e-06
-5.3626e-08
-5.00563e-06
-1.11089e-05
6.25273e-07
8.64937e-07
1.53316e-06
2.95889e-06
2.16087e-06
4.15221e-06
2.61623e-06
4.36005e-06
2.94546e-06
4.14865e-06
3.20941e-06
3.62883e-06
3.46572e-06
3.03727e-06
3.66304e-06
2.35753e-06
3.76126e-06
1.58517e-06
3.7416e-06
7.63415e-07
3.59888e-06
-6.4425e-08
3.33824e-06
-8.78736e-07
2.93656e-06
-1.54793e-06
2.41448e-06
-1.92875e-06
1.82655e-06
-2.01474e-06
1.25827e-06
-1.83234e-06
7.2554e-07
-1.80722e-06
2.23539e-07
-1.89179e-06
3.91769e-08
-4.82127e-06
-1.10698e-05
3.49369e-07
5.15569e-07
1.1681e-06
2.14016e-06
2.01196e-06
3.30835e-06
2.67371e-06
3.6983e-06
3.19496e-06
3.6274e-06
3.60328e-06
3.22051e-06
3.95047e-06
2.69008e-06
4.2152e-06
2.0928e-06
4.35559e-06
1.44478e-06
4.35822e-06
7.60785e-07
4.20233e-06
9.1468e-08
3.86577e-06
-5.42179e-07
3.37682e-06
-1.05897e-06
2.75884e-06
-1.31078e-06
2.08239e-06
-1.33828e-06
1.42214e-06
-1.17209e-06
8.19051e-07
-1.20413e-06
3.25258e-07
-1.398e-06
2.20007e-07
-4.71602e-06
-1.08498e-05
3.73482e-08
4.78221e-07
6.07915e-07
1.56959e-06
1.50388e-06
2.41239e-06
2.39423e-06
2.80795e-06
3.16281e-06
2.85882e-06
3.74676e-06
2.63655e-06
4.19029e-06
2.24655e-06
4.49628e-06
1.78682e-06
4.66081e-06
1.28025e-06
4.66067e-06
7.60924e-07
4.47837e-06
2.73772e-07
4.0953e-06
-1.5911e-07
3.54088e-06
-5.04556e-07
2.86706e-06
-6.36952e-07
2.17698e-06
-6.48208e-07
1.53113e-06
-5.26246e-07
9.31027e-07
-6.04028e-07
5.3382e-07
-1.00079e-06
5.04122e-07
-4.68632e-06
-1.03456e-05
-4.80892e-07
9.59113e-07
-1.85984e-07
1.27468e-06
5.88431e-07
1.63798e-06
1.52972e-06
1.86666e-06
2.46476e-06
1.92378e-06
3.25696e-06
1.84435e-06
3.87879e-06
1.62472e-06
4.30619e-06
1.35942e-06
4.5352e-06
1.05125e-06
4.54113e-06
7.54991e-07
4.3513e-06
4.63596e-07
3.96634e-06
2.25856e-07
3.40101e-06
6.07718e-08
2.77566e-06
-1.1605e-08
2.1327e-06
-5.24674e-09
1.55626e-06
5.02011e-08
1.11358e-06
-1.61353e-07
1.08244e-06
-9.69646e-07
1.05398e-06
-4.65787e-06
-9.29166e-06
-1.04189e-06
2.001e-06
-8.53047e-07
1.08584e-06
-1.15751e-07
9.00683e-07
7.91599e-07
9.59306e-07
1.75366e-06
9.61727e-07
2.64162e-06
9.5639e-07
3.4e-06
8.66345e-07
3.96805e-06
7.91366e-07
4.35095e-06
6.68353e-07
4.52106e-06
5.84877e-07
4.51565e-06
4.69007e-07
4.32809e-06
4.13411e-07
4.02052e-06
3.68351e-07
3.63843e-06
3.70482e-07
3.31569e-06
3.17496e-07
3.09929e-06
2.66595e-07
2.96985e-06
-3.19153e-08
3.05862e-06
-1.05841e-06
2.30203e-06
-3.90128e-06
-6.98963e-06
2.001e-06
3.08684e-06
3.98753e-06
4.94683e-06
5.90856e-06
6.86495e-06
7.73129e-06
8.52266e-06
9.19101e-06
9.77589e-06
1.02449e-05
1.06583e-05
1.10267e-05
1.13971e-05
1.17146e-05
1.19812e-05
1.19493e-05
1.08909e-05
6.98963e-06
)
;

boundaryField
{
    movingWall
    {
        type            calculated;
        value           uniform 0;
    }
    fixedWalls
    {
        type            calculated;
        value           uniform 0;
    }
    frontAndBack
    {
        type            empty;
    }
}


// ************************************************************************* //
