/*--------------------------------*- C++ -*----------------------------------*\
  =========                 |
  \\      /  F ield         | OpenFOAM: The Open Source CFD Toolbox
   \\    /   O peration     | Website:  https://openfoam.org
    \\  /    A nd           | Version:  12
     \\/     M anipulation  |
\*---------------------------------------------------------------------------*/
FoamFile
{
    format      ascii;
    class       volVectorField;
    location    "4";
    object      U;
}
// * * * * * * * * * * * * * * * * * * * * * * * * * * * * * * * * * * * * * //

dimensions      [0 1 -1 0 0 0 0];

internalField   nonuniform List<vector> 
400
(
(0.00167778 -0.00224964 0)
(0.00397822 -0.00190442 0)
(0.000938379 7.92531e-05 0)
(-0.00813278 0.0056374 0)
(-0.0338332 0.0152161 0)
(-0.0697636 0.0143673 0)
(-0.0878506 0.0107731 0)
(-0.108232 0.0104674 0)
(-0.118333 0.00711517 0)
(-0.129547 0.00714047 0)
(-0.135035 0.00455277 0)
(-0.140153 0.00475165 0)
(-0.142504 0.00275605 0)
(-0.143512 0.00199455 0)
(-0.141397 -0.00121709 0)
(-0.13244 -0.00378366 0)
(-0.115895 -0.0105511 0)
(-0.0893567 -0.0161916 0)
(-0.0536168 -0.0201958 0)
(-0.0194875 -0.00903039 0)
(-6.84444e-05 -0.00384279 0)
(-0.00591033 0.00257287 0)
(-0.0213581 0.014626 0)
(-0.0530537 0.0340715 0)
(-0.0792039 0.0390573 0)
(-0.0972942 0.0332336 0)
(-0.109006 0.0282419 0)
(-0.121878 0.0200636 0)
(-0.127874 0.0152078 0)
(-0.134307 0.00978087 0)
(-0.136249 0.00583721 0)
(-0.138397 0.00202307 0)
(-0.137121 -0.00168629 0)
(-0.136476 -0.00576364 0)
(-0.132484 -0.0107126 0)
(-0.12658 -0.0187945 0)
(-0.112229 -0.0325334 0)
(-0.0913099 -0.0515364 0)
(-0.0602565 -0.0703083 0)
(-0.0275463 -0.0593615 0)
(-0.00346694 0.00376294 0)
(-0.0190058 0.0221197 0)
(-0.0470182 0.0459517 0)
(-0.0701538 0.0568595 0)
(-0.0846563 0.0541007 0)
(-0.0936474 0.0443468 0)
(-0.100762 0.0353508 0)
(-0.103027 0.0267482 0)
(-0.0996954 0.0193739 0)
(-0.098009 0.0125838 0)
(-0.0930534 0.00731331 0)
(-0.0906625 0.00239093 0)
(-0.0872991 -0.00133314 0)
(-0.0870243 -0.00532448 0)
(-0.0841434 -0.0112067 0)
(-0.0848387 -0.0199641 0)
(-0.0794849 -0.0376422 0)
(-0.067675 -0.0673106 0)
(-0.0475299 -0.0984936 0)
(-0.0239854 -0.10485 0)
(-0.00651017 0.0208288 0)
(-0.0293716 0.0469314 0)
(-0.0541278 0.0659889 0)
(-0.0675723 0.0693418 0)
(-0.0753448 0.0613845 0)
(-0.0753611 0.0493318 0)
(-0.0737207 0.0373716 0)
(-0.0688756 0.0250637 0)
(-0.0696435 0.0165289 0)
(-0.0659249 0.0081447 0)
(-0.0641304 0.0027373 0)
(-0.0588586 -0.00191738 0)
(-0.0548818 -0.00508945 0)
(-0.0507615 -0.00742439 0)
(-0.0460527 -0.0117594 0)
(-0.0446759 -0.0181506 0)
(-0.0467643 -0.034045 0)
(-0.0429857 -0.0704897 0)
(-0.0396104 -0.115724 0)
(-0.0109518 -0.133688 0)
(-0.00673259 0.0383381 0)
(-0.0305459 0.0667074 0)
(-0.0467682 0.0792365 0)
(-0.0550652 0.0782688 0)
(-0.0571893 0.064512 0)
(-0.0543481 0.0491442 0)
(-0.0570372 0.0368085 0)
(-0.0590285 0.0262166 0)
(-0.0629643 0.0167138 0)
(-0.0615095 0.00683826 0)
(-0.0597949 -0.000218354 0)
(-0.0539017 -0.00724732 0)
(-0.0472581 -0.0115199 0)
(-0.0400714 -0.0147148 0)
(-0.0321166 -0.0182289 0)
(-0.0265995 -0.0219504 0)
(-0.027165 -0.0317782 0)
(-0.0213597 -0.064546 0)
(-0.029045 -0.122755 0)
(-0.00769887 -0.157415 0)
(-0.00648899 0.056375 0)
(-0.0257611 0.0824826 0)
(-0.0359466 0.0892937 0)
(-0.0425804 0.0829199 0)
(-0.0426538 0.0652196 0)
(-0.0438953 0.0505777 0)
(-0.0532629 0.0400747 0)
(-0.059069 0.0296284 0)
(-0.0645633 0.0186437 0)
(-0.0650677 0.00596507 0)
(-0.0630204 -0.00468934 0)
(-0.0572972 -0.0144605 0)
(-0.0490867 -0.0204043 0)
(-0.0397145 -0.0240222 0)
(-0.0289538 -0.0269487 0)
(-0.0204622 -0.0299791 0)
(-0.0183382 -0.036133 0)
(-0.00944458 -0.0676425 0)
(-0.0222682 -0.123376 0)
(-0.000702245 -0.172057 0)
(-0.00344326 0.0697052 0)
(-0.0184866 0.093415 0)
(-0.0252083 0.0966795 0)
(-0.0311979 0.086926 0)
(-0.0320884 0.0677892 0)
(-0.0391714 0.0557947 0)
(-0.0510027 0.0477943 0)
(-0.0578217 0.0360529 0)
(-0.0639415 0.0221722 0)
(-0.0648535 0.0058035 0)
(-0.0633275 -0.0091032 0)
(-0.0577177 -0.0222668 0)
(-0.0498435 -0.0313312 0)
(-0.0396631 -0.0354525 0)
(-0.0281958 -0.0368866 0)
(-0.0185702 -0.0384025 0)
(-0.015588 -0.0403464 0)
(-0.00262937 -0.0663173 0)
(-0.0191035 -0.124895 0)
(0.000287409 -0.185065 0)
(-0.00140357 0.0788836 0)
(-0.0113592 0.101838 0)
(-0.0161736 0.103189 0)
(-0.0218961 0.0908186 0)
(-0.0243911 0.0730705 0)
(-0.0341671 0.0641833 0)
(-0.0458254 0.0558796 0)
(-0.0521743 0.0425301 0)
(-0.0580411 0.0257949 0)
(-0.0579635 0.00651564 0)
(-0.0577567 -0.0123557 0)
(-0.0527611 -0.0290457 0)
(-0.0464298 -0.0412005 0)
(-0.0373102 -0.0471777 0)
(-0.0265288 -0.0479465 0)
(-0.0158414 -0.0480674 0)
(-0.0148686 -0.048205 0)
(0.00193963 -0.0694525 0)
(-0.0164133 -0.122268 0)
(0.00426882 -0.193255 0)
(0.00126029 0.0838662 0)
(-0.00456992 0.107122 0)
(-0.00765782 0.107384 0)
(-0.0123041 0.0956006 0)
(-0.0156804 0.0793631 0)
(-0.0250762 0.0722691 0)
(-0.0343755 0.0639647 0)
(-0.0389327 0.0483981 0)
(-0.0438549 0.0290752 0)
(-0.0433241 0.00748711 0)
(-0.0440158 -0.0139157 0)
(-0.041053 -0.0335492 0)
(-0.0368257 -0.0485679 0)
(-0.0299761 -0.0563967 0)
(-0.0230498 -0.0575065 0)
(-0.0103836 -0.0556965 0)
(-0.0134093 -0.0535559 0)
(0.00500829 -0.069812 0)
(-0.0151403 -0.121623 0)
(0.00460694 -0.201516 0)
(0.00463374 0.0832015 0)
(0.00148859 0.110179 0)
(0.00152039 0.111661 0)
(-0.00266495 0.100927 0)
(-0.00508375 0.0873757 0)
(-0.0121759 0.0795608 0)
(-0.0185768 0.0702322 0)
(-0.0206438 0.0531023 0)
(-0.0237839 0.0318896 0)
(-0.0238214 0.00909871 0)
(-0.0247135 -0.0134895 0)
(-0.0234882 -0.0348514 0)
(-0.0224085 -0.0526007 0)
(-0.0177066 -0.0621365 0)
(-0.0157538 -0.0650112 0)
(-0.00335847 -0.0618931 0)
(-0.0107823 -0.0589513 0)
(0.00839244 -0.0704842 0)
(-0.014858 -0.118002 0)
(0.00783261 -0.206924 0)
(0.00661988 0.0790302 0)
(0.00809357 0.109958 0)
(0.0105398 0.112724 0)
(0.00879064 0.104328 0)
(0.00749259 0.0906617 0)
(0.00387625 0.0834734 0)
(0.000886182 0.0735311 0)
(0.000922972 0.0561196 0)
(-0.00110918 0.0342866 0)
(-0.00151931 0.0106446 0)
(-0.00299975 -0.0123662 0)
(-0.00305036 -0.033551 0)
(-0.0049223 -0.0520379 0)
(-0.0022968 -0.0647507 0)
(-0.00532791 -0.0683945 0)
(0.00432619 -0.0636081 0)
(-0.00675108 -0.0614274 0)
(0.0116301 -0.0686265 0)
(-0.014916 -0.116344 0)
(0.0086795 -0.212761 0)
(0.00974846 0.0703247 0)
(0.0145875 0.106179 0)
(0.0201427 0.112105 0)
(0.0205091 0.107154 0)
(0.020639 0.0947122 0)
(0.0197954 0.0857295 0)
(0.0192752 0.0753103 0)
(0.0213604 0.0578993 0)
(0.0208341 0.0361972 0)
(0.0209208 0.0124515 0)
(0.0190102 -0.0105443 0)
(0.0178569 -0.0316872 0)
(0.0145087 -0.0510647 0)
(0.0136878 -0.0632419 0)
(0.00768481 -0.0676068 0)
(0.0116152 -0.0633583 0)
(-0.00155126 -0.061815 0)
(0.0153667 -0.0654887 0)
(-0.0160856 -0.110533 0)
(0.0123056 -0.216164 0)
(0.0124012 0.0550013 0)
(0.0198218 0.0979387 0)
(0.0289807 0.107415 0)
(0.0314591 0.104575 0)
(0.0339637 0.0949502 0)
(0.0357395 0.0841273 0)
(0.0369983 0.0732959 0)
(0.0405715 0.0566426 0)
(0.0412929 0.0363242 0)
(0.0422022 0.0138866 0)
(0.0397334 -0.00791225 0)
(0.037944 -0.0283709 0)
(0.0329483 -0.0466537 0)
(0.0297479 -0.0593099 0)
(0.0202813 -0.0631317 0)
(0.0201626 -0.0594153 0)
(0.00361102 -0.0576962 0)
(0.018634 -0.0595777 0)
(-0.0173471 -0.107616 0)
(0.014433 -0.219802 0)
(0.00871814 0.036731 0)
(0.024005 0.0873742 0)
(0.0342628 0.102448 0)
(0.0405408 0.101597 0)
(0.044619 0.0936982 0)
(0.0484948 0.0813889 0)
(0.0514768 0.0693177 0)
(0.055906 0.0539738 0)
(0.0580014 0.0355019 0)
(0.0597662 0.0151774 0)
(0.0576377 -0.00499874 0)
(0.0558661 -0.0241562 0)
(0.0499479 -0.0413517 0)
(0.0443285 -0.0523287 0)
(0.0320314 -0.0563722 0)
(0.0276436 -0.0520745 0)
(0.00773339 -0.0509365 0)
(0.0215403 -0.0520307 0)
(-0.0191846 -0.101135 0)
(0.0193346 -0.221156 0)
(0.00338862 0.021662 0)
(0.0233458 0.0667698 0)
(0.0379157 0.0895015 0)
(0.0481733 0.0929376 0)
(0.0548569 0.087913 0)
(0.0608947 0.0767159 0)
(0.0654147 0.06435 0)
(0.0705671 0.0498788 0)
(0.0734081 0.0332384 0)
(0.075654 0.0154911 0)
(0.0741234 -0.00271855 0)
(0.0720109 -0.0196813 0)
(0.0645249 -0.0344138 0)
(0.0566605 -0.0433753 0)
(0.0413394 -0.04576 0)
(0.0338463 -0.0421038 0)
(0.011758 -0.0411219 0)
(0.0232519 -0.0422735 0)
(-0.0192317 -0.0981639 0)
(0.0235973 -0.222866 0)
(0.000304962 0.0122571 0)
(0.0147525 0.050298 0)
(0.0336269 0.0770946 0)
(0.0478415 0.0835324 0)
(0.0581895 0.0806054 0)
(0.0675855 0.071465 0)
(0.0742072 0.0602816 0)
(0.0811716 0.0474236 0)
(0.0849417 0.0328506 0)
(0.0879778 0.0170685 0)
(0.0864925 0.000829997 0)
(0.0833734 -0.0134636 0)
(0.0742776 -0.0253327 0)
(0.0641966 -0.0320121 0)
(0.0472897 -0.0334432 0)
(0.0377967 -0.0301705 0)
(0.0147991 -0.0303695 0)
(0.0237942 -0.0329275 0)
(-0.0168138 -0.0956509 0)
(0.0309805 -0.223355 0)
(-0.00363125 0.00848515 0)
(0.00500388 0.0331528 0)
(0.0213612 0.0539475 0)
(0.0402297 0.0640408 0)
(0.0556754 0.065522 0)
(0.0690025 0.0594052 0)
(0.078449 0.0496824 0)
(0.0867157 0.0384192 0)
(0.0910932 0.0266778 0)
(0.0942004 0.0146053 0)
(0.0922256 0.00322635 0)
(0.0883696 -0.00734668 0)
(0.0781391 -0.0158045 0)
(0.0663943 -0.0192807 0)
(0.0491855 -0.0195495 0)
(0.0393843 -0.0169743 0)
(0.0182696 -0.0184207 0)
(0.0242124 -0.0242397 0)
(-0.0105244 -0.0974812 0)
(0.0394816 -0.226009 0)
(-0.00968849 0.0118071 0)
(-0.00875281 0.0319439 0)
(0.00252947 0.044539 0)
(0.0223855 0.0500973 0)
(0.0396388 0.0511135 0)
(0.0573444 0.0484901 0)
(0.0705217 0.0423387 0)
(0.0819626 0.0346188 0)
(0.0883882 0.0258263 0)
(0.0919133 0.0170385 0)
(0.0898889 0.00870456 0)
(0.0853635 0.00184718 0)
(0.074968 -0.00330007 0)
(0.0635415 -0.0053487 0)
(0.0479414 -0.00541719 0)
(0.0387923 -0.00279001 0)
(0.020615 -0.00407821 0)
(0.0276615 -0.0178112 0)
(0.00440791 -0.104401 0)
(0.0528945 -0.220856 0)
(-0.0172054 0.0310993 0)
(-0.0222595 0.0169955 0)
(-0.0104656 0.0178966 0)
(0.00667669 0.0222007 0)
(0.0250986 0.0235371 0)
(0.0439156 0.0230954 0)
(0.0597496 0.0207275 0)
(0.0736828 0.0180715 0)
(0.083103 0.0147107 0)
(0.0894502 0.0115798 0)
(0.0914596 0.00829802 0)
(0.0897077 0.00589752 0)
(0.0848031 0.00504454 0)
(0.0782785 0.00462898 0)
(0.06897 0.00499288 0)
(0.064119 0.00382447 0)
(0.0535535 -0.00487912 0)
(0.0579827 -0.0289293 0)
(0.0458343 -0.103812 0)
(0.0767154 -0.178249 0)
(0.0428899 0.0400353 0)
(0.0477778 0.029363 0)
(0.0692609 0.0216395 0)
(0.0891326 0.0187265 0)
(0.109425 0.0166659 0)
(0.126699 0.0164308 0)
(0.145275 0.0148311 0)
(0.161334 0.014485 0)
(0.176724 0.0126705 0)
(0.189473 0.0123763 0)
(0.200476 0.0106897 0)
(0.210281 0.0107992 0)
(0.217425 0.00946388 0)
(0.224513 0.00996619 0)
(0.228594 0.00880074 0)
(0.234422 0.00900066 0)
(0.235504 0.00514922 0)
(0.227496 -0.00148755 0)
(0.195553 -0.0135245 0)
(0.147002 -0.0325935 0)
)
;

boundaryField
{
    movingWall
    {
        type            fixedValue;
        value           uniform (1 0 0);
    }
    fixedWalls
    {
        type            noSlip;
    }
    frontAndBack
    {
        type            empty;
    }
}


// ************************************************************************* //
