/*--------------------------------*- C++ -*----------------------------------*\
  =========                 |
  \\      /  F ield         | OpenFOAM: The Open Source CFD Toolbox
   \\    /   O peration     | Website:  https://openfoam.org
    \\  /    A nd           | Version:  12
     \\/     M anipulation  |
\*---------------------------------------------------------------------------*/
FoamFile
{
    format      ascii;
    class       volScalarField;
    location    "4.12";
    object      p;
}
// * * * * * * * * * * * * * * * * * * * * * * * * * * * * * * * * * * * * * //

dimensions      [1 -1 -2 0 0 0 0];

internalField   nonuniform List<scalar> 
3829
(
-616.342
-616.342
-616.34
-616.338
-616.336
-616.332
-616.328
-616.323
-616.318
-616.311
-616.303
-616.295
-616.285
-616.274
-616.262
-616.248
-616.233
-616.217
-616.2
-616.181
-616.161
-616.139
-616.116
-616.092
-616.065
-616.038
-616.009
-615.978
-615.946
-615.913
-615.878
-615.841
-615.804
-615.765
-615.724
-615.683
-615.641
-615.599
-615.556
-615.512
-615.468
-615.424
-615.379
-615.335
-615.291
-615.247
-615.204
-615.162
-615.12
-615.08
-615.04
-615.002
-614.965
-614.93
-614.896
-614.864
-614.834
-614.806
-614.78
-614.756
-614.734
-614.714
-614.696
-614.68
-614.665
-614.653
-614.642
-614.633
-614.625
-614.618
-614.612
-614.608
-614.604
-614.6
-614.597
-614.594
-614.591
-614.588
-614.584
-614.58
-614.574
-614.568
-614.561
-614.552
-614.543
-614.532
-614.519
-614.506
-614.491
-614.475
-614.459
-614.441
-614.424
-614.406
-614.388
-614.37
-614.353
-614.336
-614.321
-614.307
-614.295
-614.284
-614.276
-614.269
-614.265
-614.264
-614.265
-614.268
-614.273
-614.28
-614.289
-614.3
-614.312
-614.324
-614.338
-614.351
-614.365
-614.378
-614.39
-614.401
-614.41
-614.418
-614.425
-614.429
-614.431
-614.431
-614.43
-614.426
-614.42
-614.413
-614.404
-614.394
-614.383
-614.372
-614.36
-614.348
-614.336
-614.324
-614.313
-614.303
-614.295
-614.287
-614.281
-614.276
-614.273
-614.272
-614.272
-614.273
-614.276
-614.281
-614.286
-614.293
-614.301
-614.309
-614.318
-614.327
-614.336
-614.346
-614.355
-614.363
-614.371
-614.379
-614.386
-614.391
-614.396
-614.4
-614.403
-614.405
-614.405
-614.405
-614.404
-614.401
-614.398
-614.394
-614.389
-614.384
-614.378
-614.372
-614.366
-614.359
-614.352
-614.345
-614.339
-614.332
-614.326
-614.32
-614.315
-614.31
-614.305
-614.301
-614.297
-614.293
-614.29
-614.288
-614.286
-614.284
-614.283
-614.282
-614.281
-614.28
-1774.77
-1774.77
-1774.77
-1774.77
-1774.76
-1774.76
-1774.76
-1774.75
-1774.75
-1774.74
-1774.73
-1774.72
-1774.72
-1774.71
-1774.7
-1774.68
-1774.67
-1774.65
-1774.64
-1774.62
-1774.6
-1774.57
-1774.55
-1774.52
-1774.49
-1774.46
-1774.43
-1774.4
-1774.36
-1774.32
-1774.29
-1774.24
-1774.2
-1774.16
-1774.11
-1774.07
-1774.02
-1773.97
-1773.93
-1773.88
-1773.83
-1773.78
-1773.73
-1773.68
-1773.63
-1773.59
-1773.54
-1773.49
-1773.45
-1773.4
-1773.36
-1773.32
-1773.28
-1773.25
-1773.21
-1773.18
-1773.15
-1773.12
-1773.1
-1773.08
-1773.05
-1773.04
-1773.02
-1773.01
-1773
-1772.99
-1772.98
-1772.97
-1772.97
-1772.97
-1772.96
-1772.96
-1772.96
-1772.96
-1772.96
-1772.96
-1772.96
-1772.96
-1772.96
-1772.96
-1772.96
-1772.95
-1772.94
-1772.94
-1772.93
-1772.91
-1772.9
-1772.89
-1772.87
-1772.85
-1772.83
-1772.81
-1772.79
-1772.77
-1772.75
-1772.73
-1772.71
-1772.69
-1772.68
-1772.66
-1772.65
-1772.64
-1772.63
-1772.62
-1772.62
-1772.62
-1772.62
-1772.62
-1772.63
-1772.64
-1772.65
-1772.66
-1772.68
-1772.69
-1772.71
-1772.72
-1772.74
-1772.75
-1772.77
-1772.78
-1772.79
-1772.8
-1772.8
-1772.81
-1772.81
-1772.81
-1772.81
-1772.8
-1772.8
-1772.79
-1772.78
-1772.77
-1772.76
-1772.74
-1772.73
-1772.72
-1772.7
-1772.69
-1772.68
-1772.67
-1772.66
-1772.65
-1772.65
-1772.64
-1772.64
-1772.64
-1772.64
-1772.64
-1772.64
-1772.65
-1772.65
-1772.66
-1772.67
-1772.68
-1772.69
-1772.7
-1772.71
-1772.72
-1772.73
-1772.73
-1772.74
-1772.75
-1772.76
-1772.76
-1772.77
-1772.77
-1772.77
-1772.78
-1772.78
-1772.78
-1772.77
-1772.77
-1772.77
-1772.76
-1772.76
-1772.75
-1772.75
-1772.74
-1772.74
-1772.73
-1772.72
-1772.71
-1772.71
-1772.7
-1772.7
-1772.69
-1772.68
-1772.68
-1772.67
-1772.67
-1772.67
-1772.66
-1772.66
-1772.66
-1772.65
-1772.65
-1772.65
-1772.65
-1772.65
-1772.65
-2801.04
-2801.04
-2801.03
-2801.03
-2801.03
-2801.03
-2801.03
-2801.03
-2801.03
-2801.03
-2801.02
-2801.02
-2801.01
-2801
-2800.99
-2800.98
-2800.96
-2800.95
-2800.93
-2800.91
-2800.89
-2800.86
-2800.84
-2800.81
-2800.77
-2800.74
-2800.7
-2800.66
-2800.62
-2800.57
-2800.52
-2800.47
-2800.42
-2800.37
-2800.31
-2800.26
-2800.2
-2800.14
-2800.09
-2800.03
-2799.97
-2799.91
-2799.85
-2799.8
-2799.74
-2799.68
-2799.63
-2799.58
-2799.53
-2799.48
-2799.43
-2799.39
-2799.35
-2799.31
-2799.28
-2799.24
-2799.21
-2799.19
-2799.16
-2799.14
-2799.13
-2799.11
-2799.1
-2799.09
-2799.09
-2799.08
-2799.08
-2799.08
-2799.08
-2799.09
-2799.09
-2799.1
-2799.11
-2799.11
-2799.12
-2799.13
-2799.13
-2799.14
-2799.14
-2799.14
-2799.14
-2799.14
-2799.13
-2799.13
-2799.11
-2799.1
-2799.09
-2799.07
-2799.05
-2799.03
-2799.01
-2798.98
-2798.96
-2798.93
-2798.91
-2798.88
-2798.86
-2798.83
-2798.81
-2798.79
-2798.78
-2798.76
-2798.75
-2798.75
-2798.74
-2798.74
-2798.75
-2798.75
-2798.76
-2798.78
-2798.79
-2798.81
-2798.83
-2798.85
-2798.87
-2798.89
-2798.91
-2798.92
-2798.94
-2798.95
-2798.97
-2798.98
-2798.98
-2798.99
-2798.99
-2798.99
-2798.99
-2798.98
-2798.97
-2798.96
-2798.95
-2798.93
-2798.92
-2798.9
-2798.89
-2798.87
-2798.86
-2798.85
-2798.83
-2798.82
-2798.81
-2798.8
-2798.8
-2798.79
-2798.79
-2798.79
-2798.79
-2798.79
-2798.8
-2798.8
-2798.81
-2798.82
-2798.83
-2798.84
-2798.85
-2798.86
-2798.87
-2798.88
-2798.89
-2798.9
-2798.91
-2798.91
-2798.92
-2798.93
-2798.93
-2798.94
-2798.94
-2798.94
-2798.94
-2798.94
-2798.94
-2798.94
-2798.93
-2798.93
-2798.92
-2798.92
-2798.91
-2798.9
-2798.9
-2798.89
-2798.88
-2798.87
-2798.87
-2798.86
-2798.85
-2798.85
-2798.84
-2798.84
-2798.83
-2798.83
-2798.83
-2798.82
-2798.82
-2798.82
-2798.81
-2798.81
-2798.81
-2798.81
-2798.81
-2798.81
-3710.16
-3710.16
-3710.16
-3710.17
-3710.17
-3710.17
-3710.17
-3710.17
-3710.18
-3710.18
-3710.18
-3710.18
-3710.19
-3710.19
-3710.18
-3710.18
-3710.17
-3710.16
-3710.15
-3710.13
-3710.11
-3710.08
-3710.05
-3710.02
-3709.98
-3709.94
-3709.89
-3709.84
-3709.79
-3709.73
-3709.67
-3709.6
-3709.54
-3709.47
-3709.4
-3709.33
-3709.26
-3709.19
-3709.11
-3709.04
-3708.97
-3708.9
-3708.83
-3708.76
-3708.69
-3708.63
-3708.57
-3708.51
-3708.45
-3708.39
-3708.34
-3708.3
-3708.25
-3708.21
-3708.17
-3708.14
-3708.11
-3708.09
-3708.07
-3708.05
-3708.04
-3708.03
-3708.03
-3708.03
-3708.03
-3708.04
-3708.04
-3708.05
-3708.07
-3708.08
-3708.1
-3708.11
-3708.13
-3708.15
-3708.16
-3708.18
-3708.19
-3708.2
-3708.21
-3708.22
-3708.22
-3708.22
-3708.22
-3708.21
-3708.2
-3708.18
-3708.16
-3708.14
-3708.12
-3708.09
-3708.06
-3708.03
-3708
-3707.97
-3707.93
-3707.9
-3707.87
-3707.84
-3707.81
-3707.79
-3707.77
-3707.75
-3707.74
-3707.74
-3707.73
-3707.74
-3707.74
-3707.75
-3707.77
-3707.79
-3707.81
-3707.83
-3707.85
-3707.88
-3707.91
-3707.93
-3707.96
-3707.98
-3708
-3708.02
-3708.03
-3708.04
-3708.05
-3708.05
-3708.05
-3708.05
-3708.05
-3708.04
-3708.03
-3708.01
-3708
-3707.98
-3707.96
-3707.95
-3707.93
-3707.91
-3707.89
-3707.88
-3707.86
-3707.85
-3707.84
-3707.83
-3707.82
-3707.82
-3707.82
-3707.82
-3707.82
-3707.82
-3707.83
-3707.83
-3707.84
-3707.85
-3707.86
-3707.87
-3707.88
-3707.9
-3707.91
-3707.92
-3707.93
-3707.94
-3707.95
-3707.96
-3707.96
-3707.97
-3707.98
-3707.98
-3707.98
-3707.98
-3707.98
-3707.98
-3707.98
-3707.98
-3707.97
-3707.97
-3707.96
-3707.96
-3707.95
-3707.94
-3707.94
-3707.93
-3707.92
-3707.91
-3707.91
-3707.9
-3707.89
-3707.89
-3707.88
-3707.88
-3707.87
-3707.87
-3707.86
-3707.86
-3707.86
-3707.85
-3707.85
-3707.85
-3707.85
-3707.85
-3707.85
-3707.85
-4515.55
-4515.55
-4515.56
-4515.56
-4515.58
-4515.59
-4515.6
-4515.62
-4515.64
-4515.66
-4515.67
-4515.69
-4515.7
-4515.71
-4515.72
-4515.72
-4515.72
-4515.72
-4515.71
-4515.69
-4515.67
-4515.64
-4515.61
-4515.56
-4515.52
-4515.46
-4515.4
-4515.33
-4515.26
-4515.18
-4515.1
-4515.02
-4514.93
-4514.84
-4514.75
-4514.66
-4514.57
-4514.47
-4514.38
-4514.29
-4514.2
-4514.11
-4514.03
-4513.94
-4513.86
-4513.79
-4513.71
-4513.64
-4513.58
-4513.52
-4513.46
-4513.41
-4513.36
-4513.32
-4513.28
-4513.25
-4513.23
-4513.21
-4513.19
-4513.18
-4513.18
-4513.18
-4513.18
-4513.19
-4513.2
-4513.22
-4513.24
-4513.27
-4513.29
-4513.32
-4513.35
-4513.38
-4513.41
-4513.44
-4513.46
-4513.49
-4513.51
-4513.53
-4513.55
-4513.56
-4513.57
-4513.57
-4513.57
-4513.56
-4513.55
-4513.53
-4513.51
-4513.48
-4513.45
-4513.41
-4513.37
-4513.33
-4513.29
-4513.25
-4513.21
-4513.16
-4513.12
-4513.09
-4513.05
-4513.02
-4513
-4512.98
-4512.97
-4512.96
-4512.96
-4512.97
-4512.98
-4512.99
-4513.01
-4513.04
-4513.07
-4513.1
-4513.13
-4513.16
-4513.2
-4513.23
-4513.26
-4513.29
-4513.31
-4513.33
-4513.35
-4513.36
-4513.37
-4513.37
-4513.37
-4513.37
-4513.36
-4513.35
-4513.33
-4513.32
-4513.3
-4513.28
-4513.26
-4513.23
-4513.21
-4513.19
-4513.17
-4513.16
-4513.14
-4513.12
-4513.11
-4513.1
-4513.1
-4513.09
-4513.09
-4513.09
-4513.09
-4513.1
-4513.1
-4513.11
-4513.12
-4513.13
-4513.15
-4513.16
-4513.17
-4513.18
-4513.2
-4513.21
-4513.22
-4513.23
-4513.24
-4513.25
-4513.26
-4513.26
-4513.27
-4513.27
-4513.28
-4513.28
-4513.28
-4513.27
-4513.27
-4513.27
-4513.26
-4513.26
-4513.25
-4513.25
-4513.24
-4513.23
-4513.22
-4513.22
-4513.21
-4513.2
-4513.19
-4513.19
-4513.18
-4513.17
-4513.17
-4513.16
-4513.16
-4513.15
-4513.15
-4513.15
-4513.14
-4513.14
-4513.14
-4513.14
-4513.14
-4513.14
-4513.14
-4513.14
-5228.88
-5228.89
-5228.9
-5228.92
-5228.94
-5228.97
-5229.01
-5229.05
-5229.09
-5229.14
-5229.19
-5229.23
-5229.28
-5229.32
-5229.35
-5229.38
-5229.4
-5229.41
-5229.42
-5229.41
-5229.39
-5229.36
-5229.32
-5229.27
-5229.21
-5229.13
-5229.05
-5228.96
-5228.86
-5228.76
-5228.64
-5228.53
-5228.41
-5228.3
-5228.18
-5228.06
-5227.94
-5227.83
-5227.71
-5227.6
-5227.49
-5227.38
-5227.28
-5227.18
-5227.09
-5227
-5226.91
-5226.83
-5226.76
-5226.69
-5226.63
-5226.57
-5226.52
-5226.48
-5226.45
-5226.42
-5226.4
-5226.38
-5226.37
-5226.37
-5226.38
-5226.39
-5226.4
-5226.43
-5226.45
-5226.49
-5226.52
-5226.56
-5226.6
-5226.65
-5226.69
-5226.74
-5226.78
-5226.82
-5226.87
-5226.9
-5226.94
-5226.97
-5226.99
-5227.01
-5227.02
-5227.03
-5227.02
-5227.02
-5227
-5226.98
-5226.95
-5226.92
-5226.88
-5226.83
-5226.78
-5226.73
-5226.67
-5226.62
-5226.56
-5226.51
-5226.46
-5226.41
-5226.37
-5226.34
-5226.31
-5226.29
-5226.27
-5226.26
-5226.27
-5226.28
-5226.29
-5226.31
-5226.34
-5226.38
-5226.41
-5226.45
-5226.5
-5226.54
-5226.58
-5226.62
-5226.66
-5226.69
-5226.72
-5226.75
-5226.76
-5226.78
-5226.79
-5226.79
-5226.79
-5226.78
-5226.77
-5226.75
-5226.73
-5226.71
-5226.69
-5226.66
-5226.64
-5226.61
-5226.59
-5226.56
-5226.54
-5226.52
-5226.5
-5226.49
-5226.48
-5226.47
-5226.46
-5226.45
-5226.45
-5226.45
-5226.46
-5226.46
-5226.47
-5226.48
-5226.49
-5226.51
-5226.52
-5226.53
-5226.55
-5226.56
-5226.58
-5226.59
-5226.6
-5226.61
-5226.62
-5226.63
-5226.64
-5226.65
-5226.65
-5226.66
-5226.66
-5226.66
-5226.66
-5226.66
-5226.65
-5226.65
-5226.65
-5226.64
-5226.63
-5226.63
-5226.62
-5226.61
-5226.6
-5226.59
-5226.59
-5226.58
-5226.57
-5226.56
-5226.56
-5226.55
-5226.54
-5226.54
-5226.53
-5226.53
-5226.53
-5226.52
-5226.52
-5226.52
-5226.52
-5226.52
-5226.51
-5226.51
-5226.51
-5226.51
-5860.7
-5860.71
-5860.74
-5860.78
-5860.84
-5860.9
-5860.98
-5861.07
-5861.16
-5861.25
-5861.35
-5861.45
-5861.54
-5861.63
-5861.71
-5861.77
-5861.83
-5861.86
-5861.88
-5861.89
-5861.87
-5861.84
-5861.78
-5861.71
-5861.62
-5861.51
-5861.39
-5861.25
-5861.11
-5860.96
-5860.81
-5860.65
-5860.49
-5860.34
-5860.18
-5860.03
-5859.88
-5859.73
-5859.59
-5859.46
-5859.32
-5859.2
-5859.08
-5858.96
-5858.85
-5858.75
-5858.65
-5858.57
-5858.48
-5858.41
-5858.34
-5858.28
-5858.23
-5858.19
-5858.16
-5858.13
-5858.12
-5858.11
-5858.11
-5858.12
-5858.14
-5858.16
-5858.19
-5858.23
-5858.27
-5858.32
-5858.38
-5858.43
-5858.5
-5858.56
-5858.62
-5858.69
-5858.75
-5858.81
-5858.86
-5858.92
-5858.96
-5859
-5859.04
-5859.06
-5859.08
-5859.09
-5859.09
-5859.08
-5859.06
-5859.03
-5858.99
-5858.95
-5858.9
-5858.84
-5858.77
-5858.71
-5858.64
-5858.57
-5858.5
-5858.43
-5858.37
-5858.31
-5858.26
-5858.22
-5858.18
-5858.16
-5858.14
-5858.14
-5858.14
-5858.16
-5858.18
-5858.21
-5858.25
-5858.29
-5858.34
-5858.39
-5858.45
-5858.5
-5858.55
-5858.6
-5858.64
-5858.68
-5858.72
-5858.75
-5858.77
-5858.78
-5858.79
-5858.79
-5858.79
-5858.78
-5858.76
-5858.74
-5858.72
-5858.69
-5858.66
-5858.63
-5858.6
-5858.57
-5858.54
-5858.52
-5858.49
-5858.47
-5858.45
-5858.43
-5858.42
-5858.41
-5858.4
-5858.4
-5858.4
-5858.4
-5858.41
-5858.41
-5858.42
-5858.43
-5858.45
-5858.46
-5858.48
-5858.49
-5858.51
-5858.52
-5858.54
-5858.55
-5858.57
-5858.58
-5858.59
-5858.6
-5858.61
-5858.62
-5858.62
-5858.62
-5858.63
-5858.63
-5858.63
-5858.62
-5858.62
-5858.61
-5858.61
-5858.6
-5858.6
-5858.59
-5858.58
-5858.57
-5858.56
-5858.55
-5858.55
-5858.54
-5858.53
-5858.52
-5858.52
-5858.51
-5858.5
-5858.5
-5858.49
-5858.49
-5858.49
-5858.48
-5858.48
-5858.48
-5858.48
-5858.47
-5858.47
-5858.47
-5858.47
-5858.47
-6420.09
-6420.11
-6420.17
-6420.25
-6420.35
-6420.48
-6420.64
-6420.82
-6421.02
-6421.22
-6421.42
-6421.6
-6421.77
-6421.93
-6422.06
-6422.18
-6422.27
-6422.34
-6422.38
-6422.39
-6422.37
-6422.33
-6422.25
-6422.14
-6422.01
-6421.84
-6421.66
-6421.45
-6421.24
-6421.02
-6420.8
-6420.59
-6420.39
-6420.19
-6420
-6419.81
-6419.63
-6419.46
-6419.3
-6419.14
-6418.99
-6418.84
-6418.71
-6418.58
-6418.45
-6418.34
-6418.24
-6418.14
-6418.05
-6417.97
-6417.9
-6417.84
-6417.79
-6417.75
-6417.72
-6417.7
-6417.69
-6417.69
-6417.7
-6417.72
-6417.75
-6417.79
-6417.84
-6417.89
-6417.96
-6418.03
-6418.1
-6418.18
-6418.26
-6418.35
-6418.43
-6418.52
-6418.6
-6418.68
-6418.75
-6418.82
-6418.88
-6418.93
-6418.97
-6419.01
-6419.03
-6419.04
-6419.04
-6419.03
-6419
-6418.97
-6418.92
-6418.86
-6418.8
-6418.72
-6418.64
-6418.56
-6418.47
-6418.39
-6418.3
-6418.22
-6418.14
-6418.08
-6418.01
-6417.96
-6417.92
-6417.89
-6417.88
-6417.88
-6417.88
-6417.9
-6417.94
-6417.98
-6418.03
-6418.08
-6418.14
-6418.21
-6418.27
-6418.33
-6418.4
-6418.45
-6418.51
-6418.55
-6418.59
-6418.62
-6418.65
-6418.66
-6418.67
-6418.67
-6418.66
-6418.65
-6418.63
-6418.6
-6418.57
-6418.54
-6418.51
-6418.47
-6418.44
-6418.4
-6418.37
-6418.34
-6418.31
-6418.29
-6418.27
-6418.25
-6418.23
-6418.22
-6418.22
-6418.21
-6418.21
-6418.22
-6418.22
-6418.23
-6418.24
-6418.26
-6418.27
-6418.29
-6418.31
-6418.32
-6418.34
-6418.36
-6418.37
-6418.39
-6418.4
-6418.42
-6418.43
-6418.44
-6418.45
-6418.45
-6418.46
-6418.46
-6418.46
-6418.46
-6418.46
-6418.46
-6418.46
-6418.45
-6418.44
-6418.44
-6418.43
-6418.42
-6418.41
-6418.4
-6418.39
-6418.39
-6418.38
-6418.37
-6418.36
-6418.35
-6418.35
-6418.34
-6418.33
-6418.33
-6418.32
-6418.32
-6418.32
-6418.31
-6418.31
-6418.31
-6418.31
-6418.31
-6418.31
-6418.3
-6418.3
-6418.3
-6915.24
-6915.29
-6915.37
-6915.5
-6915.67
-6915.89
-6916.14
-6916.44
-6916.77
-6917.1
-6917.45
-6917.78
-6918.09
-6918.36
-6918.61
-6918.82
-6918.99
-6919.11
-6919.19
-6919.23
-6919.21
-6919.14
-6919.03
-6918.87
-6918.66
-6918.41
-6918.12
-6917.8
-6917.49
-6917.18
-6916.89
-6916.61
-6916.35
-6916.1
-6915.87
-6915.65
-6915.44
-6915.24
-6915.06
-6914.88
-6914.71
-6914.55
-6914.4
-6914.26
-6914.13
-6914.01
-6913.89
-6913.79
-6913.69
-6913.61
-6913.54
-6913.47
-6913.42
-6913.39
-6913.36
-6913.35
-6913.34
-6913.35
-6913.38
-6913.41
-6913.46
-6913.51
-6913.58
-6913.66
-6913.74
-6913.83
-6913.93
-6914.03
-6914.14
-6914.24
-6914.35
-6914.46
-6914.56
-6914.66
-6914.75
-6914.84
-6914.91
-6914.98
-6915.03
-6915.07
-6915.1
-6915.11
-6915.11
-6915.09
-6915.06
-6915.02
-6914.96
-6914.89
-6914.81
-6914.72
-6914.62
-6914.52
-6914.41
-6914.31
-6914.2
-6914.11
-6914.01
-6913.93
-6913.86
-6913.8
-6913.75
-6913.72
-6913.71
-6913.71
-6913.72
-6913.75
-6913.79
-6913.84
-6913.9
-6913.97
-6914.05
-6914.12
-6914.2
-6914.28
-6914.35
-6914.42
-6914.48
-6914.53
-6914.57
-6914.61
-6914.63
-6914.65
-6914.65
-6914.65
-6914.64
-6914.62
-6914.59
-6914.56
-6914.53
-6914.49
-6914.45
-6914.41
-6914.37
-6914.33
-6914.3
-6914.26
-6914.23
-6914.21
-6914.18
-6914.16
-6914.15
-6914.14
-6914.13
-6914.13
-6914.13
-6914.14
-6914.14
-6914.16
-6914.17
-6914.18
-6914.2
-6914.22
-6914.24
-6914.26
-6914.27
-6914.29
-6914.31
-6914.33
-6914.34
-6914.36
-6914.37
-6914.38
-6914.39
-6914.39
-6914.4
-6914.4
-6914.4
-6914.4
-6914.4
-6914.4
-6914.39
-6914.39
-6914.38
-6914.37
-6914.37
-6914.36
-6914.35
-6914.34
-6914.33
-6914.32
-6914.31
-6914.3
-6914.29
-6914.29
-6914.28
-6914.27
-6914.27
-6914.26
-6914.26
-6914.25
-6914.25
-6914.25
-6914.24
-6914.24
-6914.24
-6914.24
-6914.24
-6914.24
-6914.24
-6914.24
-7353.35
-7353.41
-7353.54
-7353.74
-7354.03
-7354.41
-7354.9
-7355.49
-7356.41
-7357.07
-7357.65
-7358.16
-7358.59
-7358.95
-7359.25
-7359.5
-7359.69
-7359.82
-7359.9
-7359.92
-7359.89
-7359.8
-7359.64
-7359.41
-7359.1
-7358.7
-7358.22
-7357.48
-7356.99
-7356.56
-7356.19
-7355.86
-7355.57
-7355.29
-7355.04
-7354.8
-7354.58
-7354.37
-7354.17
-7353.98
-7353.81
-7353.64
-7353.48
-7353.33
-7353.18
-7353.05
-7352.93
-7352.82
-7352.72
-7352.63
-7352.56
-7352.5
-7352.45
-7352.41
-7352.39
-7352.38
-7352.39
-7352.41
-7352.45
-7352.5
-7352.56
-7352.63
-7352.72
-7352.82
-7352.92
-7353.04
-7353.16
-7353.29
-7353.42
-7353.55
-7353.68
-7353.81
-7353.94
-7354.06
-7354.17
-7354.27
-7354.36
-7354.44
-7354.51
-7354.55
-7354.58
-7354.6
-7354.59
-7354.57
-7354.53
-7354.48
-7354.41
-7354.32
-7354.22
-7354.11
-7354
-7353.87
-7353.75
-7353.62
-7353.5
-7353.39
-7353.28
-7353.18
-7353.1
-7353.03
-7352.98
-7352.95
-7352.93
-7352.93
-7352.95
-7352.99
-7353.04
-7353.11
-7353.18
-7353.26
-7353.35
-7353.44
-7353.53
-7353.62
-7353.71
-7353.78
-7353.85
-7353.91
-7353.96
-7353.99
-7354.02
-7354.03
-7354.04
-7354.03
-7354.02
-7353.99
-7353.96
-7353.93
-7353.89
-7353.84
-7353.8
-7353.75
-7353.71
-7353.67
-7353.63
-7353.59
-7353.56
-7353.53
-7353.5
-7353.48
-7353.47
-7353.46
-7353.45
-7353.45
-7353.45
-7353.46
-7353.47
-7353.48
-7353.49
-7353.51
-7353.53
-7353.55
-7353.57
-7353.59
-7353.61
-7353.63
-7353.65
-7353.67
-7353.68
-7353.7
-7353.71
-7353.72
-7353.73
-7353.74
-7353.74
-7353.74
-7353.75
-7353.75
-7353.74
-7353.74
-7353.73
-7353.73
-7353.72
-7353.71
-7353.7
-7353.69
-7353.68
-7353.68
-7353.67
-7353.66
-7353.65
-7353.64
-7353.63
-7353.62
-7353.61
-7353.61
-7353.6
-7353.6
-7353.59
-7353.59
-7353.58
-7353.58
-7353.58
-7353.58
-7353.58
-7353.58
-7353.57
-7353.57
-7353.57
-7353.57
-7740.78
-7740.85
-7741.01
-7741.27
-7741.64
-7742.15
-7742.83
-7743.72
-7745.06
-7745.95
-7746.76
-7747.48
-7748.11
-7748.64
-7749.09
-7749.46
-7749.74
-7749.95
-7750.07
-7750.12
-7750.09
-7749.96
-7749.75
-7749.45
-7749.03
-7748.51
-7747.89
-7746.88
-7746.25
-7745.7
-7745.25
-7744.87
-7744.54
-7744.25
-7743.99
-7743.75
-7743.53
-7743.31
-7743.11
-7742.92
-7742.73
-7742.56
-7742.39
-7742.23
-7742.08
-7741.94
-7741.81
-7741.7
-7741.59
-7741.5
-7741.42
-7741.36
-7741.31
-7741.28
-7741.26
-7741.26
-7741.28
-7741.31
-7741.36
-7741.43
-7741.51
-7741.6
-7741.71
-7741.83
-7741.96
-7742.1
-7742.25
-7742.4
-7742.56
-7742.71
-7742.87
-7743.03
-7743.18
-7743.32
-7743.45
-7743.57
-7743.68
-7743.77
-7743.84
-7743.9
-7743.93
-7743.95
-7743.94
-7743.91
-7743.86
-7743.8
-7743.71
-7743.61
-7743.49
-7743.36
-7743.23
-7743.08
-7742.94
-7742.79
-7742.65
-7742.51
-7742.39
-7742.28
-7742.18
-7742.11
-7742.05
-7742.01
-7742
-7742.01
-7742.03
-7742.08
-7742.14
-7742.22
-7742.31
-7742.41
-7742.51
-7742.62
-7742.72
-7742.82
-7742.92
-7743
-7743.08
-7743.14
-7743.2
-7743.24
-7743.26
-7743.27
-7743.28
-7743.27
-7743.25
-7743.22
-7743.18
-7743.14
-7743.09
-7743.05
-7742.99
-7742.94
-7742.9
-7742.85
-7742.8
-7742.76
-7742.73
-7742.7
-7742.67
-7742.65
-7742.64
-7742.63
-7742.62
-7742.62
-7742.62
-7742.63
-7742.64
-7742.66
-7742.67
-7742.69
-7742.71
-7742.73
-7742.75
-7742.78
-7742.8
-7742.82
-7742.84
-7742.86
-7742.87
-7742.89
-7742.9
-7742.91
-7742.92
-7742.93
-7742.94
-7742.94
-7742.94
-7742.94
-7742.94
-7742.93
-7742.93
-7742.92
-7742.91
-7742.9
-7742.89
-7742.88
-7742.87
-7742.86
-7742.85
-7742.84
-7742.83
-7742.82
-7742.82
-7742.81
-7742.8
-7742.79
-7742.79
-7742.78
-7742.78
-7742.77
-7742.77
-7742.77
-7742.77
-7742.76
-7742.76
-7742.76
-7742.76
-7742.76
-7742.76
-7742.76
-8083.29
-8083.31
-8083.37
-8083.45
-8083.53
-8083.65
-8083.68
-8083.84
-8089.73
-8089.55
-8089.45
-8089.27
-8089.08
-8088.88
-8088.67
-8088.45
-8088.24
-8088.03
-8087.82
-8087.62
-8087.43
-8087.24
-8087.05
-8086.88
-8086.71
-8086.55
-8086.41
-8086.27
-8086.15
-8086.04
-8085.94
-8085.87
-8085.8
-8085.76
-8085.73
-8085.72
-8085.72
-8085.75
-8085.79
-8085.86
-8085.94
-8086.04
-8086.15
-8086.28
-8086.42
-8086.58
-8086.74
-8086.92
-8087.1
-8087.28
-8087.47
-8087.65
-8087.83
-8088
-8088.17
-8088.32
-8088.46
-8088.58
-8088.68
-8088.77
-8088.83
-8088.87
-8088.88
-8088.87
-8088.84
-8088.78
-8088.7
-8088.6
-8088.48
-8088.34
-8088.2
-8088.04
-8087.87
-8087.7
-8087.53
-8087.37
-8087.22
-8087.07
-8086.95
-8086.84
-8086.76
-8086.7
-8086.66
-8086.65
-8086.66
-8086.69
-8086.75
-8086.83
-8086.92
-8087.02
-8087.13
-8087.25
-8087.37
-8087.49
-8087.61
-8087.71
-8087.81
-8087.89
-8087.96
-8088.02
-8088.06
-8088.08
-8088.09
-8088.09
-8088.08
-8088.06
-8088.02
-8087.98
-8087.93
-8087.88
-8087.83
-8087.77
-8087.71
-8087.66
-8087.61
-8087.56
-8087.52
-8087.48
-8087.45
-8087.42
-8087.4
-8087.39
-8087.37
-8087.37
-8087.37
-8087.38
-8087.38
-8087.4
-8087.41
-8087.43
-8087.45
-8087.47
-8087.5
-8087.52
-8087.54
-8087.57
-8087.59
-8087.61
-8087.63
-8087.65
-8087.66
-8087.68
-8087.69
-8087.7
-8087.7
-8087.71
-8087.71
-8087.71
-8087.71
-8087.71
-8087.7
-8087.7
-8087.69
-8087.68
-8087.67
-8087.66
-8087.65
-8087.64
-8087.63
-8087.62
-8087.61
-8087.6
-8087.59
-8087.58
-8087.57
-8087.57
-8087.56
-8087.55
-8087.55
-8087.54
-8087.54
-8087.54
-8087.53
-8087.53
-8087.53
-8087.53
-8087.53
-8087.53
-8087.53
-8087.53
-8087.53
-8386.6
-8386.62
-8386.65
-8386.7
-8386.76
-8386.83
-8386.87
-8386.99
-8394.75
-8394.59
-8394.49
-8394.33
-8394.16
-8393.98
-8393.8
-8393.6
-8393.4
-8393.2
-8393
-8392.8
-8392.6
-8392.41
-8392.22
-8392.03
-8391.86
-8391.69
-8391.54
-8391.39
-8391.27
-8391.15
-8391.05
-8390.97
-8390.9
-8390.86
-8390.83
-8390.83
-8390.84
-8390.88
-8390.94
-8391.01
-8391.11
-8391.23
-8391.36
-8391.51
-8391.68
-8391.86
-8392.05
-8392.25
-8392.46
-8392.67
-8392.88
-8393.09
-8393.29
-8393.49
-8393.68
-8393.85
-8394.01
-8394.15
-8394.26
-8394.36
-8394.42
-8394.46
-8394.48
-8394.47
-8394.42
-8394.36
-8394.26
-8394.15
-8394.01
-8393.85
-8393.68
-8393.5
-8393.31
-8393.12
-8392.93
-8392.75
-8392.57
-8392.41
-8392.27
-8392.16
-8392.06
-8392
-8391.96
-8391.95
-8391.97
-8392.01
-8392.08
-8392.17
-8392.27
-8392.39
-8392.52
-8392.65
-8392.79
-8392.92
-8393.05
-8393.16
-8393.27
-8393.36
-8393.43
-8393.49
-8393.54
-8393.56
-8393.57
-8393.57
-8393.55
-8393.52
-8393.48
-8393.43
-8393.38
-8393.32
-8393.26
-8393.2
-8393.14
-8393.08
-8393.03
-8392.98
-8392.93
-8392.89
-8392.86
-8392.83
-8392.81
-8392.79
-8392.78
-8392.78
-8392.78
-8392.79
-8392.8
-8392.81
-8392.83
-8392.85
-8392.87
-8392.89
-8392.92
-8392.94
-8392.97
-8392.99
-8393.01
-8393.04
-8393.06
-8393.07
-8393.09
-8393.11
-8393.12
-8393.13
-8393.13
-8393.14
-8393.14
-8393.14
-8393.14
-8393.14
-8393.13
-8393.12
-8393.12
-8393.11
-8393.1
-8393.09
-8393.08
-8393.07
-8393.06
-8393.04
-8393.03
-8393.02
-8393.01
-8393.01
-8393
-8392.99
-8392.98
-8392.98
-8392.97
-8392.97
-8392.96
-8392.96
-8392.96
-8392.96
-8392.95
-8392.95
-8392.95
-8392.95
-8392.95
-8392.95
-8392.95
-8655.23
-8655.23
-8655.25
-8655.28
-8655.3
-8655.34
-8655.35
-8655.41
-8664.85
-8664.76
-8664.69
-8664.58
-8664.44
-8664.28
-8664.11
-8663.93
-8663.73
-8663.54
-8663.34
-8663.13
-8662.93
-8662.73
-8662.53
-8662.34
-8662.16
-8661.98
-8661.82
-8661.67
-8661.53
-8661.41
-8661.3
-8661.22
-8661.15
-8661.11
-8661.09
-8661.09
-8661.11
-8661.16
-8661.22
-8661.32
-8661.43
-8661.56
-8661.72
-8661.89
-8662.08
-8662.29
-8662.5
-8662.73
-8662.96
-8663.2
-8663.44
-8663.68
-8663.91
-8664.13
-8664.34
-8664.53
-8664.7
-8664.86
-8664.98
-8665.09
-8665.16
-8665.2
-8665.22
-8665.2
-8665.15
-8665.07
-8664.97
-8664.83
-8664.68
-8664.5
-8664.31
-8664.11
-8663.89
-8663.68
-8663.47
-8663.26
-8663.07
-8662.89
-8662.74
-8662.61
-8662.51
-8662.44
-8662.4
-8662.39
-8662.42
-8662.47
-8662.55
-8662.65
-8662.77
-8662.91
-8663.05
-8663.2
-8663.35
-8663.49
-8663.63
-8663.76
-8663.87
-8663.97
-8664.05
-8664.11
-8664.15
-8664.18
-8664.19
-8664.18
-8664.16
-8664.12
-8664.08
-8664.03
-8663.97
-8663.9
-8663.84
-8663.77
-8663.71
-8663.64
-8663.59
-8663.53
-8663.48
-8663.44
-8663.41
-8663.38
-8663.36
-8663.34
-8663.33
-8663.33
-8663.33
-8663.34
-8663.35
-8663.36
-8663.38
-8663.41
-8663.43
-8663.45
-8663.48
-8663.51
-8663.53
-8663.56
-8663.58
-8663.6
-8663.62
-8663.64
-8663.66
-8663.67
-8663.69
-8663.7
-8663.7
-8663.71
-8663.71
-8663.71
-8663.71
-8663.7
-8663.7
-8663.69
-8663.68
-8663.67
-8663.66
-8663.65
-8663.64
-8663.63
-8663.62
-8663.61
-8663.6
-8663.59
-8663.58
-8663.57
-8663.56
-8663.55
-8663.55
-8663.54
-8663.54
-8663.53
-8663.53
-8663.52
-8663.52
-8663.52
-8663.52
-8663.52
-8663.52
-8663.52
-8663.52
-8663.52
-8663.52
-8893.16
-8893.16
-8893.17
-8893.18
-8893.2
-8893.22
-8893.22
-8893.25
-8904.25
-8904.18
-8904.12
-8904.02
-8903.9
-8903.75
-8903.59
-8903.41
-8903.22
-8903.02
-8902.82
-8902.61
-8902.4
-8902.19
-8901.98
-8901.78
-8901.59
-8901.4
-8901.23
-8901.07
-8900.92
-8900.8
-8900.69
-8900.6
-8900.53
-8900.49
-8900.47
-8900.47
-8900.5
-8900.56
-8900.64
-8900.75
-8900.87
-8901.03
-8901.2
-8901.4
-8901.61
-8901.84
-8902.08
-8902.33
-8902.59
-8902.86
-8903.12
-8903.38
-8903.64
-8903.88
-8904.11
-8904.33
-8904.52
-8904.68
-8904.83
-8904.94
-8905.01
-8905.06
-8905.07
-8905.05
-8904.99
-8904.91
-8904.79
-8904.64
-8904.46
-8904.27
-8904.05
-8903.83
-8903.59
-8903.35
-8903.12
-8902.89
-8902.68
-8902.49
-8902.32
-8902.18
-8902.08
-8902
-8901.96
-8901.96
-8901.99
-8902.05
-8902.14
-8902.26
-8902.39
-8902.54
-8902.7
-8902.87
-8903.03
-8903.19
-8903.34
-8903.47
-8903.59
-8903.7
-8903.78
-8903.84
-8903.89
-8903.91
-8903.92
-8903.91
-8903.88
-8903.84
-8903.79
-8903.73
-8903.67
-8903.6
-8903.53
-8903.46
-8903.39
-8903.32
-8903.26
-8903.21
-8903.16
-8903.11
-8903.08
-8903.05
-8903.02
-8903.01
-8903
-8903
-8903
-8903.01
-8903.02
-8903.04
-8903.06
-8903.08
-8903.11
-8903.13
-8903.16
-8903.19
-8903.21
-8903.24
-8903.27
-8903.29
-8903.31
-8903.33
-8903.35
-8903.36
-8903.37
-8903.38
-8903.39
-8903.39
-8903.4
-8903.4
-8903.39
-8903.39
-8903.38
-8903.38
-8903.37
-8903.36
-8903.35
-8903.34
-8903.33
-8903.31
-8903.3
-8903.29
-8903.28
-8903.27
-8903.26
-8903.25
-8903.24
-8903.23
-8903.23
-8903.22
-8903.22
-8903.21
-8903.21
-8903.21
-8903.2
-8903.2
-8903.2
-8903.2
-8903.2
-8903.2
-8903.2
-8903.2
-8903.2
-9103.92
-9103.92
-9103.92
-9103.93
-9103.94
-9103.95
-9103.96
-9103.97
-9116.38
-9116.32
-9116.26
-9116.17
-9116.05
-9115.91
-9115.75
-9115.57
-9115.38
-9115.18
-9114.97
-9114.75
-9114.53
-9114.31
-9114.1
-9113.88
-9113.68
-9113.48
-9113.3
-9113.13
-9112.98
-9112.84
-9112.73
-9112.64
-9112.57
-9112.53
-9112.51
-9112.52
-9112.55
-9112.62
-9112.71
-9112.83
-9112.98
-9113.15
-9113.34
-9113.56
-9113.79
-9114.04
-9114.31
-9114.59
-9114.87
-9115.16
-9115.45
-9115.74
-9116.02
-9116.29
-9116.54
-9116.77
-9116.98
-9117.16
-9117.31
-9117.43
-9117.51
-9117.56
-9117.57
-9117.54
-9117.48
-9117.38
-9117.25
-9117.08
-9116.89
-9116.67
-9116.44
-9116.19
-9115.93
-9115.67
-9115.42
-9115.17
-9114.94
-9114.73
-9114.55
-9114.4
-9114.29
-9114.21
-9114.17
-9114.17
-9114.21
-9114.28
-9114.38
-9114.51
-9114.66
-9114.82
-9115
-9115.18
-9115.36
-9115.53
-9115.69
-9115.83
-9115.96
-9116.07
-9116.16
-9116.22
-9116.27
-9116.29
-9116.29
-9116.28
-9116.25
-9116.2
-9116.15
-9116.08
-9116.01
-9115.94
-9115.87
-9115.79
-9115.72
-9115.65
-9115.58
-9115.52
-9115.47
-9115.43
-9115.39
-9115.36
-9115.34
-9115.32
-9115.31
-9115.31
-9115.31
-9115.32
-9115.34
-9115.36
-9115.38
-9115.4
-9115.43
-9115.46
-9115.48
-9115.51
-9115.54
-9115.57
-9115.59
-9115.62
-9115.64
-9115.66
-9115.68
-9115.69
-9115.71
-9115.72
-9115.72
-9115.73
-9115.73
-9115.73
-9115.73
-9115.72
-9115.71
-9115.71
-9115.7
-9115.69
-9115.68
-9115.67
-9115.65
-9115.64
-9115.63
-9115.62
-9115.61
-9115.6
-9115.59
-9115.58
-9115.57
-9115.56
-9115.55
-9115.55
-9115.54
-9115.54
-9115.54
-9115.53
-9115.53
-9115.53
-9115.53
-9115.53
-9115.53
-9115.53
-9115.53
-9115.53
-9115.53
-9290.61
-9290.62
-9290.62
-9290.62
-9290.63
-9290.64
-9290.64
-9290.65
-9304.34
-9304.29
-9304.23
-9304.14
-9304.02
-9303.88
-9303.72
-9303.53
-9303.34
-9303.13
-9302.91
-9302.68
-9302.45
-9302.22
-9301.99
-9301.77
-9301.55
-9301.34
-9301.15
-9300.97
-9300.81
-9300.67
-9300.55
-9300.45
-9300.38
-9300.34
-9300.32
-9300.34
-9300.38
-9300.46
-9300.56
-9300.69
-9300.85
-9301.04
-9301.25
-9301.49
-9301.74
-9302.02
-9302.31
-9302.61
-9302.92
-9303.24
-9303.55
-9303.86
-9304.16
-9304.45
-9304.72
-9304.97
-9305.2
-9305.39
-9305.55
-9305.68
-9305.77
-9305.82
-9305.83
-9305.79
-9305.72
-9305.61
-9305.46
-9305.28
-9305.07
-9304.84
-9304.58
-9304.31
-9304.03
-9303.75
-9303.48
-9303.21
-9302.97
-9302.74
-9302.55
-9302.39
-9302.27
-9302.19
-9302.15
-9302.16
-9302.2
-9302.28
-9302.39
-9302.53
-9302.7
-9302.88
-9303.06
-9303.26
-9303.45
-9303.63
-9303.8
-9303.96
-9304.09
-9304.2
-9304.29
-9304.36
-9304.4
-9304.43
-9304.43
-9304.41
-9304.37
-9304.33
-9304.27
-9304.2
-9304.12
-9304.04
-9303.96
-9303.88
-9303.81
-9303.74
-9303.67
-9303.61
-9303.55
-9303.51
-9303.47
-9303.44
-9303.41
-9303.4
-9303.39
-9303.39
-9303.39
-9303.41
-9303.42
-9303.44
-9303.46
-9303.49
-9303.52
-9303.55
-9303.57
-9303.6
-9303.63
-9303.66
-9303.69
-9303.71
-9303.74
-9303.76
-9303.77
-9303.79
-9303.8
-9303.81
-9303.82
-9303.82
-9303.82
-9303.82
-9303.82
-9303.82
-9303.81
-9303.8
-9303.79
-9303.78
-9303.77
-9303.76
-9303.75
-9303.74
-9303.72
-9303.71
-9303.7
-9303.69
-9303.68
-9303.67
-9303.66
-9303.65
-9303.65
-9303.64
-9303.63
-9303.63
-9303.63
-9303.62
-9303.62
-9303.62
-9303.62
-9303.62
-9303.62
-9303.62
-9303.62
-9303.62
-9303.62
-9456
-9456
-9456
-9456.01
-9456.01
-9456.01
-9456.02
-9456.02
-9470.87
-9470.82
-9470.76