/*--------------------------------*- C++ -*----------------------------------*\
  =========                 |
  \\      /  F ield         | OpenFOAM: The Open Source CFD Toolbox
   \\    /   O peration     | Website:  https://openfoam.org
    \\  /    A nd           | Version:  12
     \\/     M anipulation  |
\*---------------------------------------------------------------------------*/
FoamFile
{
    format      ascii;
    class       volVectorField;
    location    "2.52";
    object      U;
}
// * * * * * * * * * * * * * * * * * * * * * * * * * * * * * * * * * * * * * //

dimensions      [0 1 -1 0 0 0 0];

internalField   nonuniform List<vector> 
3829
(
(-3.96319e-06 3.83802e-05 0)
(-1.19346e-05 3.83592e-05 0)
(-1.99821e-05 3.82289e-05 0)
(-2.80949e-05 3.80321e-05 0)
(-3.62534e-05 3.77659e-05 0)
(-4.44439e-05 3.74342e-05 0)
(-5.26525e-05 3.70294e-05 0)
(-6.08654e-05 3.65559e-05 0)
(-6.90667e-05 3.60172e-05 0)
(-7.72352e-05 3.5404e-05 0)
(-8.53676e-05 3.47285e-05 0)
(-9.345e-05 3.39858e-05 0)
(-0.000101457 3.31798e-05 0)
(-0.000109373 3.23103e-05 0)
(-0.000117197 3.13843e-05 0)
(-0.000124906 3.03975e-05 0)
(-0.000132473 2.93591e-05 0)
(-0.000139883 2.82743e-05 0)
(-0.000147113 2.71488e-05 0)
(-0.000154141 2.59881e-05 0)
(-0.000160947 2.47974e-05 0)
(-0.000167512 2.35823e-05 0)
(-0.000173821 2.23471e-05 0)
(-0.000179857 2.10959e-05 0)
(-0.000185605 1.98326e-05 0)
(-0.000191054 1.85599e-05 0)
(-0.000196193 1.72805e-05 0)
(-0.000201004 1.59909e-05 0)
(-0.000205475 1.4702e-05 0)
(-0.000209605 1.341e-05 0)
(-0.000213379 1.2115e-05 0)
(-0.000216788 1.08171e-05 0)
(-0.000219817 9.5161e-06 0)
(-0.000222464 8.21202e-06 0)
(-0.000224701 6.90753e-06 0)
(-0.000226522 5.59723e-06 0)
(-0.00022794 4.28116e-06 0)
(-0.000228976 2.95854e-06 0)
(-0.000229624 1.63013e-06 0)
(-0.000229854 2.91113e-07 0)
(-0.00022964 -1.04844e-06 0)
(-0.000228908 -2.39249e-06 0)
(-0.000227706 -3.74292e-06 0)
(-0.000226027 -5.08925e-06 0)
(-0.000223818 -6.43595e-06 0)
(-0.000221114 -7.77604e-06 0)
(-0.000217898 -9.10578e-06 0)
(-0.000214168 -1.042e-05 0)
(-0.000209922 -1.17128e-05 0)
(-0.000205162 -1.29779e-05 0)
(-0.000199893 -1.42084e-05 0)
(-0.000194122 -1.53963e-05 0)
(-0.00018786 -1.65378e-05 0)
(-0.000181118 -1.76158e-05 0)
(-0.000173909 -1.86278e-05 0)
(-0.000166274 -1.95662e-05 0)
(-0.000158233 -2.04149e-05 0)
(-0.000149784 -2.11683e-05 0)
(-0.000140989 -2.18203e-05 0)
(-0.000131877 -2.23605e-05 0)
(-0.00012247 -2.2772e-05 0)
(-0.000112787 -2.30628e-05 0)
(-0.000102975 -2.32319e-05 0)
(-9.30762e-05 -2.32508e-05 0)
(-8.30511e-05 -2.31317e-05 0)
(-7.29643e-05 -2.28541e-05 0)
(-6.29963e-05 -2.24676e-05 0)
(-5.31252e-05 -2.19084e-05 0)
(-4.34328e-05 -2.12332e-05 0)
(-3.40176e-05 -2.04e-05 0)
(-2.48995e-05 -1.94644e-05 0)
(-1.61676e-05 -1.8384e-05 0)
(-7.85864e-06 -1.72144e-05 0)
(-1.4424e-07 -1.59511e-05 0)
(7.01713e-06 -1.45893e-05 0)
(1.36031e-05 -1.31576e-05 0)
(1.95365e-05 -1.1664e-05 0)
(2.47835e-05 -1.01251e-05 0)
(2.93119e-05 -8.56094e-06 0)
(3.30713e-05 -6.98711e-06 0)
(3.60613e-05 -5.42085e-06 0)
(3.8272e-05 -3.87779e-06 0)
(3.97233e-05 -2.37316e-06 0)
(4.04019e-05 -9.29812e-07 0)
(4.03045e-05 4.4298e-07 0)
(3.95117e-05 1.73115e-06 0)
(3.80237e-05 2.92158e-06 0)
(3.58878e-05 4.01178e-06 0)
(3.31726e-05 4.98062e-06 0)
(2.99265e-05 5.82611e-06 0)
(2.61988e-05 6.54326e-06 0)
(2.20648e-05 7.13003e-06 0)
(1.76035e-05 7.58384e-06 0)
(1.2874e-05 7.90481e-06 0)
(7.95366e-06 8.09665e-06 0)
(2.91854e-06 8.16393e-06 0)
(-2.16385e-06 8.11068e-06 0)
(-7.21639e-06 7.94781e-06 0)
(-1.21803e-05 7.68073e-06 0)
(-1.69836e-05 7.32204e-06 0)
(-2.15665e-05 6.87908e-06 0)
(-2.58817e-05 6.36625e-06 0)
(-2.9877e-05 5.79311e-06 0)
(-3.35086e-05 5.17316e-06 0)
(-3.67409e-05 4.51445e-06 0)
(-3.95488e-05 3.83255e-06 0)
(-4.1904e-05 3.13676e-06 0)
(-4.38e-05 2.43577e-06 0)
(-4.52218e-05 1.7439e-06 0)
(-4.61647e-05 1.06929e-06 0)
(-4.66446e-05 4.13786e-07 0)
(-4.66641e-05 -2.07257e-07 0)
(-4.62395e-05 -7.93107e-07 0)
(-4.53783e-05 -1.33425e-06 0)
(-4.41314e-05 -1.83677e-06 0)
(-4.25211e-05 -2.2824e-06 0)
(-4.05526e-05 -2.67864e-06 0)
(-3.8275e-05 -3.02248e-06 0)
(-3.57347e-05 -3.31499e-06 0)
(-3.29648e-05 -3.54528e-06 0)
(-2.9991e-05 -3.73215e-06 0)
(-2.68536e-05 -3.85813e-06 0)
(-2.35998e-05 -3.94507e-06 0)
(-2.02646e-05 -3.98053e-06 0)
(-1.6879e-05 -3.97398e-06 0)
(-1.34817e-05 -3.92343e-06 0)
(-1.01032e-05 -3.84001e-06 0)
(-6.77996e-06 -3.72184e-06 0)
(-3.52706e-06 -3.57476e-06 0)
(-3.97403e-07 -3.40609e-06 0)
(2.59142e-06 -3.21125e-06 0)
(5.44102e-06 -2.99863e-06 0)
(8.11892e-06 -2.77186e-06 0)
(1.06033e-05 -2.5354e-06 0)
(1.28896e-05 -2.28774e-06 0)
(1.4962e-05 -2.03899e-06 0)
(1.68135e-05 -1.78502e-06 0)
(1.84425e-05 -1.53635e-06 0)
(1.98347e-05 -1.28892e-06 0)
(2.10004e-05 -1.04679e-06 0)
(2.19377e-05 -8.14805e-07 0)
(2.26483e-05 -5.9143e-07 0)
(2.31402e-05 -3.78474e-07 0)
(2.3419e-05 -1.77681e-07 0)
(2.34953e-05 9.52998e-09 0)
(2.33791e-05 1.81586e-07 0)
(2.30818e-05 3.40863e-07 0)
(2.26174e-05 4.8495e-07 0)
(2.19963e-05 6.12636e-07 0)
(2.12271e-05 7.2443e-07 0)
(2.03342e-05 8.22842e-07 0)
(1.93301e-05 9.04499e-07 0)
(1.82226e-05 9.70903e-07 0)
(1.70338e-05 1.02458e-06 0)
(1.57742e-05 1.0638e-06 0)
(1.44615e-05 1.0911e-06 0)
(1.31092e-05 1.10543e-06 0)
(1.17286e-05 1.10916e-06 0)
(1.03363e-05 1.10195e-06 0)
(8.9402e-06 1.08577e-06 0)
(7.55534e-06 1.06151e-06 0)
(6.19439e-06 1.02896e-06 0)
(4.86288e-06 9.90347e-07 0)
(3.57099e-06 9.45909e-07 0)
(2.32787e-06 8.96598e-07 0)
(1.14113e-06 8.43343e-07 0)
(1.86458e-08 7.87075e-07 0)
(-1.03683e-06 7.29099e-07 0)
(-2.02335e-06 6.6968e-07 0)
(-2.93558e-06 6.09237e-07 0)
(-3.77091e-06 5.48372e-07 0)
(-4.52742e-06 4.87865e-07 0)
(-5.20383e-06 4.2812e-07 0)
(-5.79939e-06 3.69411e-07 0)
(-6.31376e-06 3.12017e-07 0)
(-6.74733e-06 2.56042e-07 0)
(-7.10092e-06 2.02063e-07 0)
(-7.3757e-06 1.50245e-07 0)
(-7.57342e-06 1.01003e-07 0)
(-7.69629e-06 5.44705e-08 0)
(-7.74709e-06 1.07108e-08 0)
(-7.72966e-06 -2.98323e-08 0)
(-7.64788e-06 -6.70562e-08 0)
(-7.50558e-06 -1.00788e-07 0)
(-7.30731e-06 -1.30957e-07 0)
(-7.05791e-06 -1.57594e-07 0)
(-6.76225e-06 -1.80852e-07 0)
(-6.425e-06 -2.00995e-07 0)
(-6.05046e-06 -2.18384e-07 0)
(-5.64244e-06 -2.33391e-07 0)
(-5.20423e-06 -2.46378e-07 0)
(-4.73862e-06 -2.57603e-07 0)
(-4.24816e-06 -2.67246e-07 0)
(-3.73521e-06 -2.75433e-07 0)
(-3.20187e-06 -2.82237e-07 0)
(-2.65034e-06 -2.87725e-07 0)
(-2.08282e-06 -2.92038e-07 0)
(-1.50137e-06 -2.95286e-07 0)
(-9.07765e-07 -2.97448e-07 0)
(-3.04072e-07 -2.98498e-07 0)
(-4.55196e-06 0.000117197 0)
(-1.37099e-05 0.000117091 0)
(-2.29378e-05 0.000116643 0)
(-3.2231e-05 0.000115962 0)
(-4.15338e-05 0.000115049 0)
(-5.08731e-05 0.000113898 0)
(-6.02314e-05 0.000112523 0)
(-6.95e-05 0.000110909 0)
(-7.87786e-05 0.000109073 0)
(-8.79767e-05 0.000107022 0)
(-9.70527e-05 0.000104754 0)
(-0.000106064 0.000102299 0)
(-0.000114945 9.96455e-05 0)
(-0.000123663 9.68127e-05 0)
(-0.000132244 9.38187e-05 0)
(-0.000140655 9.06671e-05 0)
(-0.000148795 8.7376e-05 0)
(-0.000156679 8.39587e-05 0)
(-0.000164286 8.04361e-05 0)
(-0.000171601 7.68197e-05 0)
(-0.000178605 7.31288e-05 0)
(-0.000185291 6.93782e-05 0)
(-0.000191654 6.55831e-05 0)
(-0.000197684 6.17561e-05 0)
(-0.000203379 5.79032e-05 0)
(-0.000208735 5.40452e-05 0)
(-0.000213786 5.01827e-05 0)
(-0.000218459 4.63263e-05 0)
(-0.000222746 4.24769e-05 0)
(-0.000226717 3.86395e-05 0)
(-0.000230333 3.48168e-05 0)
(-0.000233586 3.10005e-05 0)
(-0.000236462 2.72066e-05 0)
(-0.00023894 2.34258e-05 0)
(-0.000241026 1.96557e-05 0)
(-0.000242731 1.5874e-05 0)
(-0.000244037 1.20671e-05 0)
(-0.000244962 8.22963e-06 0)
(-0.000245524 4.35672e-06 0)
(-0.000245637 4.45664e-07 0)
(-0.000245271 -3.49864e-06 0)
(-0.00024442 -7.46845e-06 0)
(-0.000243054 -1.14637e-05 0)
(-0.000241176 -1.54683e-05 0)
(-0.000238758 -1.94792e-05 0)
(-0.000235789 -2.34824e-05 0)
(-0.000232264 -2.74644e-05 0)
(-0.00022817 -3.14093e-05 0)
(-0.000223503 -3.5299e-05 0)
(-0.00021826 -3.91129e-05 0)
(-0.00021244 -4.28286e-05 0)
(-0.000206069 -4.6423e-05 0)
(-0.000199112 -4.98655e-05 0)
(-0.000191592 -5.31284e-05 0)
(-0.000183571 -5.61951e-05 0)
(-0.000175026 -5.90261e-05 0)
(-0.00016599 -6.15958e-05 0)
(-0.000156511 -6.38583e-05 0)
(-0.00014663 -6.58123e-05 0)
(-0.00013633 -6.74241e-05 0)
(-0.000125719 -6.86573e-05 0)
(-0.000114891 -6.95014e-05 0)
(-0.000103829 -6.9947e-05 0)
(-9.2634e-05 -6.99547e-05 0)
(-8.13066e-05 -6.95326e-05 0)
(-7.00726e-05 -6.86682e-05 0)
(-5.89259e-05 -6.73655e-05 0)
(-4.78702e-05 -6.56391e-05 0)
(-3.70849e-05 -6.34891e-05 0)
(-2.66571e-05 -6.09186e-05 0)
(-1.66078e-05 -5.79785e-05 0)
(-7.01803e-06 -5.46742e-05 0)
(1.92208e-06 -5.10561e-05 0)
(1.02868e-05 -4.71296e-05 0)
(1.79893e-05 -4.2943e-05 0)
(2.49621e-05 -3.85316e-05 0)
(3.11766e-05 -3.39548e-05 0)
(3.6557e-05 -2.92575e-05 0)
(4.10821e-05 -2.4499e-05 0)
(4.47145e-05 -1.97223e-05 0)
(4.74573e-05 -1.49868e-05 0)
(4.93138e-05 -1.03343e-05 0)
(5.02819e-05 -5.82353e-06 0)
(5.03726e-05 -1.50287e-06 0)
(4.96171e-05 2.59209e-06 0)
(4.80858e-05 6.41836e-06 0)
(4.58226e-05 9.94008e-06 0)
(4.28486e-05 1.31244e-05 0)
(3.92354e-05 1.59492e-05 0)
(3.5088e-05 1.83923e-05 0)
(3.04561e-05 2.04423e-05 0)
(2.54233e-05 2.209e-05 0)
(2.00754e-05 2.33346e-05 0)
(1.44912e-05 2.41813e-05 0)
(8.76132e-06 2.46384e-05 0)
(2.96165e-06 2.47248e-05 0)
(-2.82251e-06 2.44592e-05 0)
(-8.51143e-06 2.3866e-05 0)
(-1.40433e-05 2.2972e-05 0)
(-1.93426e-05 2.18103e-05 0)
(-2.4347e-05 2.04098e-05 0)
(-2.90045e-05 1.88077e-05 0)
(-3.32686e-05 1.70377e-05 0)
(-3.71015e-05 1.51374e-05 0)
(-4.04644e-05 1.31388e-05 0)
(-4.33316e-05 1.10796e-05 0)
(-4.56952e-05 8.98877e-06 0)
(-4.7537e-05 6.89844e-06 0)
(-4.88459e-05 4.83918e-06 0)
(-4.96517e-05 2.83533e-06 0)
(-4.99527e-05 9.10803e-07 0)
(-4.97558e-05 -9.12349e-07 0)
(-4.90933e-05 -2.62346e-06 0)
(-4.79908e-05 -4.20455e-06 0)
(-4.64778e-05 -5.65014e-06 0)
(-4.45802e-05 -6.93775e-06 0)
(-4.23419e-05 -8.0755e-06 0)
(-3.97959e-05 -9.05366e-06 0)
(-3.69701e-05 -9.87582e-06 0)
(-3.3939e-05 -1.05364e-05 0)
(-3.07135e-05 -1.10435e-05 0)
(-2.73395e-05 -1.13992e-05 0)
(-2.38762e-05 -1.162e-05 0)
(-2.03292e-05 -1.16978e-05 0)
(-1.67534e-05 -1.16532e-05 0)
(-1.31899e-05 -1.14908e-05 0)
(-9.66928e-06 -1.12242e-05 0)
(-6.21543e-06 -1.08614e-05 0)
(-2.86273e-06 -1.04125e-05 0)
(3.58517e-07 -9.90165e-06 0)
(3.42908e-06 -9.32216e-06 0)
(6.33396e-06 -8.69361e-06 0)
(9.04947e-06 -8.02329e-06 0)
(1.15645e-05 -7.3235e-06 0)
(1.38639e-05 -6.60022e-06 0)
(1.59372e-05 -5.86815e-06 0)
(1.77775e-05 -5.12972e-06 0)
(1.93829e-05 -4.40005e-06 0)
(2.0752e-05 -3.68114e-06 0)
(2.18785e-05 -2.9799e-06 0)
(2.27713e-05 -2.30328e-06 0)
(2.34378e-05 -1.65411e-06 0)
(2.38801e-05 -1.03887e-06 0)
(2.41048e-05 -4.6034e-07 0)
(2.4123e-05 7.98811e-08 0)
(2.39512e-05 5.78544e-07 0)
(2.35994e-05 1.03597e-06 0)
(2.30757e-05 1.44873e-06 0)
(2.23953e-05 1.81553e-06 0)
(2.15731e-05 2.13732e-06 0)
(2.06271e-05 2.41544e-06 0)
(1.95679e-05 2.64909e-06 0)
(1.8413e-05 2.84016e-06 0)
(1.71791e-05 2.99045e-06 0)
(1.58767e-05 3.10191e-06 0)
(1.45244e-05 3.17502e-06 0)
(1.31355e-05 3.21539e-06 0)
(1.17221e-05 3.22087e-06 0)
(1.03003e-05 3.19954e-06 0)
(8.87945e-06 3.14977e-06 0)
(7.47147e-06 3.07608e-06 0)
(6.09083e-06 2.98133e-06 0)
(4.74361e-06 2.86726e-06 0)
(3.43805e-06 2.73695e-06 0)
(2.1842e-06 2.59195e-06 0)
(9.89562e-07 2.43656e-06 0)
(-1.37591e-07 2.27282e-06 0)
(-1.19551e-06 2.10441e-06 0)
(-2.18348e-06 1.93149e-06 0)
(-3.09576e-06 1.7562e-06 0)
(-3.92933e-06 1.58029e-06 0)
(-4.68259e-06 1.40524e-06 0)
(-5.35493e-06 1.23219e-06 0)
(-5.9458e-06 1.06219e-06 0)
(-6.45508e-06 8.96071e-07 0)
(-6.88284e-06 7.34468e-07 0)
(-7.22984e-06 5.78537e-07 0)
(-7.49744e-06 4.2913e-07 0)
(-7.6875e-06 2.86541e-07 0)
(-7.80263e-06 1.52038e-07 0)
(-7.84527e-06 2.60448e-08 0)
(-7.81922e-06 -9.10842e-08 0)
(-7.7287e-06 -1.98468e-07 0)
(-7.57758e-06 -2.95679e-07 0)
(-7.37063e-06 -3.82515e-07 0)
(-7.11294e-06 -4.59037e-07 0)
(-6.80962e-06 -5.257e-07 0)
(-6.46555e-06 -5.83296e-07 0)
(-6.0851e-06 -6.32947e-07 0)
(-5.67207e-06 -6.75778e-07 0)
(-5.2296e-06 -7.12886e-07 0)
(-4.76026e-06 -7.45031e-07 0)
(-4.26647e-06 -7.72693e-07 0)
(-3.75046e-06 -7.96192e-07 0)
(-3.21426e-06 -8.15682e-07 0)
(-2.66013e-06 -8.31386e-07 0)
(-2.09032e-06 -8.4372e-07 0)
(-1.50671e-06 -8.53059e-07 0)
(-9.11008e-07 -8.59258e-07 0)
(-3.05171e-07 -8.62299e-07 0)
(-5.83619e-06 0.00020051 0)
(-1.75546e-05 0.000200193 0)
(-2.93536e-05 0.000199246 0)
(-4.11808e-05 0.000197823 0)
(-5.30083e-05 0.000195909 0)
(-6.47098e-05 0.000193512 0)
(-7.63643e-05 0.00019064 0)
(-8.79189e-05 0.000187311 0)
(-9.92091e-05 0.000183539 0)
(-0.00011035 0.000179345 0)
(-0.000121169 0.000174751 0)
(-0.000131747 0.000169744 0)
(-0.000142124 0.000164379 0)
(-0.000152082 0.000158662 0)
(-0.000161741 0.000152654 0)
(-0.000171085 0.000146421 0)
(-0.000180018 0.000140039 0)
(-0.000188516 0.000133523 0)
(-0.000196576 0.000126943 0)
(-0.000204198 0.00012034 0)
(-0.000211348 0.000113753 0)
(-0.00021804 0.000107216 0)
(-0.000224283 0.000100753 0)
(-0.000230124 9.43788e-05 0)
(-0.000235504 8.81092e-05 0)
(-0.000240451 8.19454e-05 0)
(-0.000245027 7.58909e-05 0)
(-0.000249205 6.99349e-05 0)
(-0.00025301 6.4032e-05 0)
(-0.00025644 5.8232e-05 0)
(-0.000259558 5.24796e-05 0)
(-0.000262276 4.67354e-05 0)
(-0.000264585 4.10013e-05 0)
(-0.000266587 3.52544e-05 0)
(-0.000268325 2.95171e-05 0)
(-0.000269852 2.37282e-05 0)
(-0.000271081 1.78613e-05 0)
(-0.000271982 1.19103e-05 0)
(-0.000272535 5.85306e-06 0)
(-0.000272651 -3.12818e-07 0)
(-0.000272251 -6.59495e-06 0)
(-0.000271295 -1.29851e-05 0)
(-0.000269783 -1.94782e-05 0)
(-0.000267695 -2.60579e-05 0)
(-0.000264995 -3.27048e-05 0)
(-0.000261667 -3.93952e-05 0)
(-0.000257688 -4.60988e-05 0)
(-0.000253039 -5.27831e-05 0)
(-0.000247701 -5.94089e-05 0)
(-0.000241661 -6.59347e-05 0)
(-0.000234918 -7.23186e-05 0)
(-0.000227453 -7.85074e-05 0)
(-0.000219256 -8.44382e-05 0)
(-0.000210412 -9.00906e-05 0)
(-0.000200892 -9.53865e-05 0)
(-0.000190701 -0.000100272 0)
(-0.000179843 -0.000104684 0)
(-0.00016843 -0.000108585 0)
(-0.00015658 -0.000111912 0)
(-0.000144176 -0.000114636 0)
(-0.000131353 -0.000116689 0)
(-0.000118256 -0.000118052 0)
(-0.000104898 -0.000118703 0)
(-9.14002e-05 -0.000118587 0)
(-7.78373e-05 -0.000117709 0)
(-6.42759e-05 -0.000116088 0)
(-5.0979e-05 -0.000113655 0)
(-3.79085e-05 -0.000110504 0)
(-2.51087e-05 -0.000106601 0)
(-1.28646e-05 -0.000102013 0)
(-1.20081e-06 -9.67503e-05 0)
(9.81255e-06 -9.08753e-05 0)
(2.01259e-05 -8.4432e-05 0)
(2.96049e-05 -7.74816e-05 0)
(3.81865e-05 -7.01155e-05 0)
(4.58185e-05 -6.23961e-05 0)
(5.23999e-05 -5.44263e-05 0)
(5.79094e-05 -4.62878e-05 0)
(6.23387e-05 -3.8067e-05 0)
(6.5646e-05 -2.98715e-05 0)
(6.78437e-05 -2.17685e-05 0)
(6.89431e-05 -1.38699e-05 0)
(6.89507e-05 -6.24658e-06 0)
(6.79371e-05 1.01046e-06 0)
(6.59275e-05 7.83916e-06 0)
(6.30101e-05 1.41728e-05 0)
(5.9232e-05 1.99431e-05 0)
(5.46812e-05 2.51015e-05 0)
(4.94618e-05 2.96236e-05 0)
(4.36661e-05 3.34717e-05 0)
(3.73836e-05 3.66299e-05 0)
(3.07213e-05 3.90975e-05 0)
(2.38e-05 4.08712e-05 0)
(1.67047e-05 4.19684e-05 0)
(9.55014e-06 4.24156e-05 0)
(2.43776e-06 4.22487e-05 0)
(-4.55354e-06 4.1501e-05 0)
(-1.13287e-05 4.02232e-05 0)
(-1.78107e-05 3.84602e-05 0)
(-2.39288e-05 3.62746e-05 0)
(-2.96184e-05 3.37187e-05 0)
(-3.4825e-05 3.08564e-05 0)
(-3.95034e-05 2.77441e-05 0)
(-4.36206e-05 2.44462e-05 0)
(-4.71475e-05 2.10178e-05 0)
(-5.00725e-05 1.75161e-05 0)
(-5.23876e-05 1.39954e-05 0)
(-5.4087e-05 1.0511e-05 0)
(-5.51796e-05 7.1002e-06 0)
(-5.56842e-05 3.80905e-06 0)
(-5.56242e-05 6.60853e-07 0)
(-5.50361e-05 -2.30176e-06 0)
(-5.39493e-05 -5.06249e-06 0)
(-5.23875e-05 -7.59904e-06 0)
(-5.03905e-05 -9.8882e-06 0)
(-4.8011e-05 -1.19266e-05 0)
(-4.52885e-05 -1.37031e-05 0)
(-4.22605e-05 -1.52163e-05 0)
(-3.89796e-05 -1.64672e-05 0)
(-3.54925e-05 -1.74642e-05 0)
(-3.18388e-05 -1.82078e-05 0)
(-2.80753e-05 -1.87147e-05 0)
(-2.42293e-05 -1.89881e-05 0)
(-2.03389e-05 -1.9049e-05 0)
(-1.64619e-05 -1.8911e-05 0)
(-1.26217e-05 -1.85884e-05 0)
(-8.85426e-06 -1.81033e-05 0)
(-5.18595e-06 -1.74721e-05 0)
(-1.66333e-06 -1.67104e-05 0)
(1.6965e-06 -1.58419e-05 0)
(4.88626e-06 -1.48776e-05 0)
(7.88042e-06 -1.38367e-05 0)
(1.06625e-05 -1.27373e-05 0)
(1.32155e-05 -1.15906e-05 0)
(1.55306e-05 -1.0419e-05 0)
(1.76e-05 -9.23538e-06 0)
(1.94174e-05 -8.0472e-06 0)
(2.09821e-05 -6.87314e-06 0)
(2.22965e-05 -5.71877e-06 0)
(2.33612e-05 -4.59674e-06 0)
(2.41831e-05 -3.51574e-06 0)
(2.47654e-05 -2.48112e-06 0)
(2.51163e-05 -1.50445e-06 0)
(2.52496e-05 -5.85692e-07 0)
(2.51755e-05 2.69038e-07 0)
(2.49076e-05 1.05787e-06 0)
(2.44572e-05 1.77603e-06 0)
(2.38353e-05 2.42226e-06 0)
(2.30594e-05 2.99484e-06 0)
(2.21428e-05 3.49774e-06 0)
(2.11064e-05 3.92981e-06 0)
(1.99631e-05 4.29147e-06 0)
(1.87255e-05 4.58486e-06 0)
(1.74148e-05 4.81432e-06 0)
(1.60397e-05 4.98102e-06 0)
(1.46225e-05 5.09008e-06 0)
(1.31731e-05 5.14396e-06 0)
(1.17057e-05 5.14722e-06 0)
(1.02376e-05 5.10446e-06 0)
(8.77148e-06 5.01929e-06 0)
(7.32792e-06 4.89465e-06 0)
(5.91584e-06 4.73859e-06 0)
(4.54085e-06 4.55184e-06 0)
(3.21246e-06 4.34011e-06 0)
(1.9412e-06 4.10661e-06 0)
(7.35062e-07 3.85583e-06 0)
(-3.9914e-07 3.59621e-06 0)
(-1.46123e-06 3.32506e-06 0)
(-2.45133e-06 3.04818e-06 0)
(-3.36231e-06 2.76868e-06 0)
(-4.19248e-06 2.4893e-06 0)
(-4.94075e-06 2.21159e-06 0)
(-5.60648e-06 1.93711e-06 0)
(-6.18938e-06 1.66753e-06 0)
(-6.68968e-06 1.40429e-06 0)
(-7.10742e-06 1.14882e-06 0)
(-7.44324e-06 9.0198e-07 0)
(-7.6993e-06 6.65112e-07 0)
(-7.87698e-06 4.39657e-07 0)
(-7.97846e-06 2.26754e-07 0)
(-8.00745e-06 2.78029e-08 0)
(-7.96735e-06 -1.57434e-07 0)
(-7.86206e-06 -3.26913e-07 0)
(-7.6961e-06 -4.80106e-07 0)
(-7.47454e-06 -6.16635e-07 0)
(-7.20287e-06 -7.36519e-07 0)
(-6.88668e-06 -8.40515e-07 0)
(-6.53122e-06 -9.2995e-07 0)
(-6.14105e-06 -1.00685e-06 0)
(-5.71989e-06 -1.07316e-06 0)
(-5.27059e-06 -1.13077e-06 0)
(-4.79529e-06 -1.18085e-06 0)
(-4.29612e-06 -1.22411e-06 0)
(-3.77509e-06 -1.26087e-06 0)
(-3.23418e-06 -1.29129e-06 0)
(-2.67583e-06 -1.31571e-06 0)
(-2.10234e-06 -1.33486e-06 0)
(-1.51525e-06 -1.34947e-06 0)
(-9.16195e-07 -1.35915e-06 0)
(-3.06967e-07 -1.36403e-06 0)
(-8.06838e-06 0.000306258 0)
(-2.42625e-05 0.000305455 0)
(-4.04673e-05 0.000303585 0)
(-5.66452e-05 0.000300774 0)
(-7.27177e-05 0.000297018 0)
(-8.85432e-05 0.000292341 0)
(-0.00010406 0.000286775 0)
(-0.000119136 0.000280372 0)
(-0.000133816 0.00027322 0)
(-0.000148003 0.000265321 0)
(-0.000161878 0.000256817 0)
(-0.000175284 0.000247702 0)
(-0.000188053 0.000238109 0)
(-0.000200128 0.000228147 0)
(-0.000211182 0.000217831 0)
(-0.000221109 0.000207351 0)
(-0.000230161 0.000196754 0)
(-0.000238402 0.000186128 0)
(-0.000245682 0.000175557 0)
(-0.000252178 0.000165105 0)
(-0.000257934 0.00015485 0)
(-0.000263047 0.000144848 0)
(-0.000267628 0.000135133 0)
(-0.000271731 0.000125735 0)
(-0.000275423 0.000116644 0)
(-0.000278778 0.000107912 0)
(-0.000281894 9.94148e-05 0)
(-0.000284961 9.12483e-05 0)
(-0.00028765 8.32877e-05 0)
(-0.00029007 7.56526e-05 0)
(-0.000292652 6.82282e-05 0)
(-0.000295072 6.09514e-05 0)
(-0.000297227 5.38093e-05 0)
(-0.000299004 4.66709e-05 0)
(-0.0003006 3.94201e-05 0)
(-0.000302261 3.20134e-05 0)
(-0.000303686 2.44076e-05 0)
(-0.000304857 1.66064e-05 0)
(-0.000305768 8.54364e-06 0)
(-0.000306262 2.22164e-07 0)
(-0.000306255 -8.40696e-06 0)
(-0.00030568 -1.72938e-05 0)
(-0.000304474 -2.6417e-05 0)
(-0.000302579 -3.57498e-05 0)
(-0.000299941 -4.52612e-05 0)
(-0.000296507 -5.49159e-05 0)
(-0.000292241 -6.46573e-05 0)
(-0.000287101 -7.44384e-05 0)
(-0.000281052 -8.41901e-05 0)
(-0.000274093 -9.38485e-05 0)
(-0.000266186 -0.000103318 0)
(-0.00025728 -0.000112555 0)
(-0.000247488 -0.00012142 0)
(-0.000236793 -0.000129881 0)
(-0.000225127 -0.000137791 0)
(-0.000212545 -0.000145081 0)
(-0.000199153 -0.00015167 0)
(-0.000185019 -0.000157439 0)
(-0.000170235 -0.000162337 0)
(-0.000154766 -0.000166301 0)
(-0.000138763 -0.000169266 0)
(-0.000122512 -0.000171156 0)
(-0.000105867 -0.000171933 0)
(-8.90293e-05 -0.000171587 0)
(-7.22793e-05 -0.000170037 0)
(-5.5561e-05 -0.000167349 0)
(-3.91519e-05 -0.000163524 0)
(-2.31701e-05 -0.000158531 0)
(-7.67221e-06 -0.00015246 0)
(7.08407e-06 -0.000145352 0)
(2.11016e-05 -0.000137247 0)
(3.42116e-05 -0.000128235 0)
(4.62548e-05 -0.000118409 0)
(5.71357e-05 -0.000107901 0)
(6.67948e-05 -9.67725e-05 0)
(7.51533e-05 -8.52125e-05 0)
(8.21219e-05 -7.33173e-05 0)
(8.77047e-05 -6.12377e-05 0)
(9.18315e-05 -4.90966e-05 0)
(9.45313e-05 -3.70617e-05 0)
(9.58117e-05 -2.52545e-05 0)
(9.56897e-05 -1.38295e-05 0)
(9.42411e-05 -2.87337e-06 0)
(9.15192e-05 7.47558e-06 0)
(8.76333e-05 1.71218e-05 0)
(8.26535e-05 2.59683e-05 0)
(7.66886e-05 3.39392e-05 0)
(6.9888e-05 4.09732e-05 0)
(6.23598e-05 4.70228e-05 0)
(5.42363e-05 5.20532e-05 0)
(4.56694e-05 5.60693e-05 0)
(3.67785e-05 5.90473e-05 0)
(2.76968e-05 6.10358e-05 0)
(1.85742e-05 6.2046e-05 0)
(9.54492e-06 6.21343e-05 0)
(6.97592e-07 6.13452e-05 0)
(-7.85512e-06 5.97709e-05 0)
(-1.60121e-05 5.74692e-05 0)
(-2.36902e-05 5.4523e-05 0)
(-3.08081e-05 5.10215e-05 0)
(-3.73103e-05 4.70413e-05 0)
(-4.31443e-05 4.2679e-05 0)
(-4.82732e-05 3.8019e-05 0)
(-5.2671e-05 3.31503e-05 0)
(-5.63266e-05 2.81587e-05 0)
(-5.9227e-05 2.31115e-05 0)
(-6.13752e-05 1.80943e-05 0)
(-6.2798e-05 1.31807e-05 0)
(-6.35136e-05 8.39685e-06 0)
(-6.35844e-05 3.82587e-06 0)
(-6.30243e-05 -5.14213e-07 0)
(-6.18616e-05 -4.57332e-06 0)
(-6.01721e-05 -8.30941e-06 0)
(-5.79711e-05 -1.17134e-05 0)
(-5.53274e-05 -1.47642e-05 0)
(-5.22938e-05 -1.74538e-05 0)
(-4.89197e-05 -1.97646e-05 0)
(-4.52621e-05 -2.1713e-05 0)
(-4.13683e-05 -2.32972e-05 0)
(-3.73075e-05 -2.45295e-05 0)
(-3.31089e-05 -2.54134e-05 0)
(-2.88229e-05 -2.59774e-05 0)
(-2.45103e-05 -2.62275e-05 0)
(-2.01977e-05 -2.61998e-05 0)
(-1.59259e-05 -2.59096e-05 0)
(-1.17466e-05 -2.53768e-05 0)
(-7.69218e-06 -2.46255e-05 0)
(-3.77348e-06 -2.36784e-05 0)
(-3.62047e-08 -2.25814e-05 0)
(3.50055e-06 -2.13374e-05 0)
(6.8286e-06 -1.99722e-05 0)
(9.92213e-06 -1.85164e-05 0)
(1.27728e-05 -1.69866e-05 0)
(1.53641e-05 -1.54087e-05 0)
(1.76805e-05 -1.37981e-05 0)
(1.9737e-05 -1.2179e-05 0)
(2.15192e-05 -1.05621e-05 0)
(2.30287e-05 -8.97031e-06 0)
(2.42752e-05 -7.41062e-06 0)
(2.52497e-05 -5.90151e-06 0)
(2.59721e-05 -4.4527e-06 0)
(2.64459e-05 -3.07187e-06 0)
(2.66822e-05 -1.76457e-06 0)
(2.66968e-05 -5.4254e-07 0)
(2.6498e-05 5.91717e-07 0)
(2.6104e-05 1.63511e-06 0)
(2.55264e-05 2.581e-06 0)
(2.47776e-05 3.43095e-06 0)
(2.388e-05 4.18326e-06 0)
(2.28489e-05 4.83967e-06 0)
(2.16979e-05 5.39896e-06 0)
(2.0442e-05 5.86579e-06 0)
(1.91028e-05 6.24323e-06 0)
(1.7696e-05 6.53197e-06 0)
(1.62325e-05 6.73969e-06 0)
(1.47327e-05 6.87274e-06 0)
(1.32083e-05 6.92791e-06 0)
(1.16738e-05 6.92207e-06 0)
(1.01441e-05 6.85023e-06 0)
(8.62539e-06 6.72475e-06 0)
(7.13529e-06 6.55138e-06 0)
(5.68476e-06 6.33009e-06 0)
(4.27679e-06 6.07237e-06 0)
(2.92223e-06 5.78175e-06 0)
(1.62948e-06 5.46521e-06 0)
(4.11464e-07 5.12725e-06 0)
(-7.31803e-07 4.7753e-06 0)
(-1.80191e-06 4.40887e-06 0)
(-2.7922e-06 4.03657e-06 0)
(-3.70026e-06 3.66222e-06 0)
(-4.52503e-06 3.2886e-06 0)
(-5.2663e-06 2.91786e-06 0)
(-5.92346e-06 2.55243e-06 0)
(-6.49618e-06 2.1939e-06 0)
(-6.98478e-06 1.84384e-06 0)
(-7.3899e-06 1.50398e-06 0)
(-7.71247e-06 1.17565e-06 0)
(-7.95346e-06 8.60581e-07 0)
(-8.11494e-06 5.61326e-07 0)
(-8.19961e-06 2.78559e-07 0)
(-8.21132e-06 1.39881e-08 0)
(-8.15333e-06 -2.31229e-07 0)
(-8.02917e-06 -4.55624e-07 0)
(-7.84429e-06 -6.58186e-07 0)
(-7.60399e-06 -8.38192e-07 0)
(-7.31439e-06 -9.95458e-07 0)
(-6.9817e-06 -1.13108e-06 0)
(-6.61185e-06 -1.2469e-06 0)
(-6.20962e-06 -1.34619e-06 0)
(-5.77857e-06 -1.43171e-06 0)
(-5.3211e-06 -1.50641e-06 0)
(-4.83865e-06 -1.57176e-06 0)
(-4.3329e-06 -1.62853e-06 0)
(-3.80562e-06 -1.67675e-06 0)
(-3.2588e-06 -1.71644e-06 0)
(-2.69514e-06 -1.74814e-06 0)
(-2.11716e-06 -1.77284e-06 0)
(-1.52583e-06 -1.79193e-06 0)
(-9.22666e-07 -1.80466e-06 0)
(-3.09248e-07 -1.81125e-06 0)
(-1.20352e-05 0.000430821 0)
(-3.60571e-05 0.000428916 0)
(-6.00031e-05 0.000425226 0)
(-8.37147e-05 0.000419657 0)
(-0.000107014 0.000412237 0)
(-0.00012957 0.000403004 0)
(-0.000151309 0.00039203 0)
(-0.000171847 0.000379413 0)
(-0.000191366 0.000365274 0)
(-0.000209677 0.000349738 0)
(-0.00022672 0.000333041 0)
(-0.000242633 0.000315461 0)
(-0.000256798 0.000297353 0)
(-0.00026974 0.000278966 0)
(-0.000281105 0.000260639 0)
(-0.000290728 0.000242566 0)
(-0.000299148 0.000225 0)
(-0.000306174 0.000208146 0)
(-0.000311956 0.000192086 0)
(-0.000316562 0.00017696 0)
(-0.000320028 0.000162868 0)
(-0.00032263 0.000149847 0)
(-0.00032453 0.000137906 0)
(-0.000326 0.000126974 0)
(-0.000326894 0.000116961 0)
(-0.000327799 0.000107968 0)
(-0.000328564 9.95879e-05 0)
(-0.00032917 9.19908e-05 0)
(-0.000329504 8.49308e-05 0)
(-0.000329518 7.83008e-05 0)
(-0.000330147 7.18949e-05 0)
(-0.000330795 6.55274e-05 0)
(-0.000331726 5.91705e-05 0)
(-0.000333448 5.25276e-05 0)
(-0.000335607 4.55172e-05 0)
(-0.000337936 3.801e-05 0)
(-0.00034012 2.99725e-05 0)
(-0.000342214 2.13164e-05 0)
(-0.000344198 1.20162e-05 0)
(-0.000345894 2.11347e-06 0)
(-0.000347031 -8.39217e-06 0)
(-0.000347281 -1.95578e-05 0)
(-0.00034674 -3.12844e-05 0)
(-0.000345352 -4.35319e-05 0)
(-0.000343057 -5.62218e-05 0)
(-0.000339746 -6.92664e-05 0)
(-0.000335361 -8.25789e-05 0)
(-0.000329848 -9.60566e-05 0)
(-0.000323138 -0.000109574 0)
(-0.000315141 -0.000123029 0)
(-0.000305945 -0.000136286 0)
(-0.000295389 -0.000149198 0)
(-0.000283534 -0.000161605 0)
(-0.000270454 -0.000173402 0)
(-0.000256002 -0.000184449 0)
(-0.000240442 -0.000194596 0)
(-0.000223642 -0.000203729 0)
(-0.000205816 -0.000211734 0)
(-0.00018729 -0.000218484 0)
(-0.000167921 -0.000223846 0)
(-0.000147818 -0.000227773 0)
(-0.000127236 -0.000230163 0)
(-0.000106387 -0.000230957 0)
(-8.52752e-05 -0.000230177 0)
(-6.4233e-05 -0.000227768 0)
(-4.35635e-05 -0.000223651 0)
(-2.32359e-05 -0.000217983 0)
(-3.48689e-06 -0.000210676 0)
(1.54449e-05 -0.000201874 0)
(3.3422e-05 -0.000191606 0)
(5.02883e-05 -0.000179997 0)
(6.58499e-05 -0.000167171 0)
(7.99396e-05 -0.000153272 0)
(9.25172e-05 -0.000138463 0)
(0.000103407 -0.000122907 0)
(0.000112486 -0.000106808 0)
(0.00011977 -9.03561e-05 0)
(0.000125199 -7.37535e-05 0)
(0.000128749 -5.71922e-05 0)
(0.000130405 -4.08642e-05 0)
(0.000130236 -2.49519e-05 0)
(0.000128373 -9.63431e-06 0)
(0.000124891 4.90503e-06 0)
(0.000119851 1.85101e-05 0)
(0.000113405 3.1047e-05 0)
(0.000105704 4.24107e-05 0)
(9.69056e-05 5.25093e-05 0)
(8.71752e-05 6.12579e-05 0)
(7.66842e-05 6.86276e-05 0)
(6.56565e-05 7.45592e-05 0)
(5.42155e-05 7.91167e-05 0)
(4.2567e-05 8.22624e-05 0)
(3.09067e-05 8.40699e-05 0)
(1.93369e-05 8.46031e-05 0)
(8.041e-06 8.38946e-05 0)
(-2.81462e-06 8.21101e-05 0)
(-1.31298e-05 7.93137e-05 0)
(-2.28411e-05 7.56066e-05 0)
(-3.18158e-05 7.11346e-05 0)
(-4.00102e-05 6.59777e-05 0)
(-4.73586e-05 6.02881e-05 0)
(-5.38023e-05 5.41686e-05 0)
(-5.93265e-05 4.77549e-05 0)
(-6.39068e-05 4.11411e-05 0)
(-6.75719e-05 3.44367e-05 0)
(-7.03222e-05 2.77655e-05 0)
(-7.21464e-05 2.11819e-05 0)
(-7.31634e-05 1.47861e-05 0)
(-7.33743e-05 8.62495e-06 0)
(-7.28223e-05 2.77901e-06 0)
(-7.15969e-05 -2.70264e-06 0)
(-6.96947e-05 -7.78966e-06 0)
(-6.72267e-05 -1.2436e-05 0)
(-6.42563e-05 -1.66203e-05 0)
(-6.08282e-05 -2.03352e-05 0)
(-5.70023e-05 -2.35634e-05 0)
(-5.28618e-05 -2.6319e-05 0)
(-4.84734e-05 -2.85924e-05 0)
(-4.38797e-05 -3.04026e-05 0)
(-3.91371e-05 -3.17673e-05 0)
(-3.43094e-05 -3.27057e-05 0)
(-2.94547e-05 -3.32311e-05 0)
(-2.46128e-05 -3.3398e-05 0)
(-1.9833e-05 -3.31931e-05 0)
(-1.51427e-05 -3.26858e-05 0)
(-1.05799e-05 -3.18885e-05 0)
(-6.18201e-06 -3.08287e-05 0)
(-2.00257e-06 -2.95396e-05 0)
(1.94382e-06 -2.80656e-05 0)
(5.67233e-06 -2.64275e-05 0)
(9.13767e-06 -2.46561e-05 0)
(1.23295e-05 -2.27754e-05 0)
(1.52415e-05 -2.08185e-05 0)
(1.78605e-05 -1.88108e-05 0)
(2.01814e-05 -1.67746e-05 0)
(2.22072e-05 -1.4732e-05 0)
(2.39344e-05 -1.2711e-05 0)
(2.53682e-05 -1.07255e-05 0)
(2.65194e-05 -8.78955e-06 0)
(2.73853e-05 -6.92135e-06 0)
(2.79889e-05 -5.13042e-06 0)
(2.83393e-05 -3.43398e-06 0)
(2.84407e-05 -1.83455e-06 0)
(2.83117e-05 -3.40786e-07 0)
(2.79731e-05 1.04245e-06 0)
(2.7434e-05 2.30736e-06 0)
(2.67119e-05 3.45265e-06 0)
(2.58239e-05 4.47844e-06 0)
(2.47879e-05 5.385e-06 0)
(2.36181e-05 6.16914e-06 0)
(2.23377e-05 6.83626e-06 0)
(2.09643e-05 7.38723e-06 0)
(1.95069e-05 7.82929e-06 0)
(1.79909e-05 8.16351e-06 0)
(1.64308e-05 8.39834e-06 0)
(1.48368e-05 8.53747e-06 0)
(1.32296e-05 8.58994e-06 0)
(1.16212e-05 8.55979e-06 0)
(1.00232e-05 8.4592e-06 0)
(8.44975e-06 8.288e-06 0)
(6.90765e-06 8.06225e-06 0)
(5.41151e-06 7.78072e-06 0)
(3.96985e-06 7.45124e-06 0)
(2.58726e-06 7.0845e-06 0)
(1.27468e-06 6.68624e-06 0)
(4.06967e-08 6.26517e-06 0)
(-1.11378e-06 5.82362e-06 0)
(-2.18803e-06 5.36994e-06 0)
(-3.17756e-06 4.91014e-06 0)
(-4.0815e-06 4.44894e-06 0)
(-4.89999e-06 3.98927e-06 0)
(-5.63249e-06 3.53479e-06 0)
(-6.279e-06 3.08778e-06 0)
(-6.84007e-06 2.64963e-06 0)
(-7.31592e-06 2.22184e-06 0)
(-7.707e-06 1.80606e-06 0)
(-8.01398e-06 1.40463e-06 0)
(-8.23797e-06 1.01984e-06 0)
(-8.38146e-06 6.5405e-07 0)
(-8.44743e-06 3.09037e-07 0)
(-8.43925e-06 -1.38415e-08 0)
(-8.3606e-06 -3.1225e-07 0)
(-8.2155e-06 -5.8539e-07 0)
(-8.00918e-06 -8.31611e-07 0)
(-7.74742e-06 -1.04966e-06 0)
(-7.43717e-06 -1.23894e-06 0)
(-7.08556e-06 -1.40096e-06 0)
(-6.69944e-06 -1.53801e-06 0)
(-6.28392e-06 -1.65508e-06 0)
(-5.84232e-06 -1.75585e-06 0)
(-5.37636e-06 -1.8446e-06 0)
(-4.88646e-06 -1.92293e-06 0)
(-4.37361e-06 -1.99158e-06 0)
(-3.83926e-06 -2.04976e-06 0)
(-3.28573e-06 -2.0972e-06 0)
(-2.71612e-06 -2.13478e-06 0)
(-2.13329e-06 -2.16378e-06 0)
(-1.53752e-06 -2.18652e-06 0)
(-9.29938e-07 -2.20222e-06 0)
(-3.11844e-07 -2.21041e-06 0)
(-1.89319e-05 0.000607377 0)
(-5.66225e-05 0.000603294 0)
(-9.41511e-05 0.000595987 0)
(-0.000131111 0.000585012 0)
(-0.000167108 0.000570484 0)
(-0.00020177 0.000552583 0)
(-0.000234736 0.000531572 0)
(-0.000265629 0.00050781 0)
(-0.000294407 0.000481601 0)
(-0.000320436 0.000453496 0)
(-0.000343154 0.000424118 0)
(-0.000361938 0.000394191 0)
(-0.000376816 0.000364228 0)