# vtk DataFile Version 2.0
tracks
ASCII
DATASET POLYDATA
POINTS 600 float
-0.5 -0.5 -0.05 -0.5 -0.5 -0.05 -0.5 -0.5 -0.05 -0.5 -0.5
-0.05 -0.5 -0.5 -0.05 -0.5 -0.5 -0.05 -0.5 -0.489899 -0.0489899
-0.49798 -0.489899 -0.0489899 -0.49596 -0.489899 -0.0489899 -0.493939 -0.489899 -0.0489899 -0.491919
-0.489899 -0.0489899 -0.489899 -0.489899 -0.0489899 -0.5 -0.479798 -0.0479798 -0.49596 -0.479798
-0.0479798 -0.491919 -0.479798 -0.0479798 -0.487879 -0.479798 -0.0479798 -0.483838 -0.479798 -0.0479798
-0.479798 -0.479798 -0.0479798 -0.5 -0.469697 -0.0469697 -0.493939 -0.469697 -0.0469697 -0.487879
-0.469697 -0.0469697 -0.481818 -0.469697 -0.0469697 -0.475758 -0.469697 -0.0469697 -0.469697 -0.469697
-0.0469697 -0.5 -0.459596 -0.0459596 -0.491919 -0.459596 -0.0459596 -0.483838 -0.459596 -0.0459596
-0.475758 -0.459596 -0.0459596 -0.467677 -0.459596 -0.0459596 -0.459596 -0.459596 -0.0459596 -0.5
-0.449495 -0.0449495 -0.489899 -0.449495 -0.0449495 -0.479798 -0.449495 -0.0449495 -0.469697 -0.449495
-0.0449495 -0.459596 -0.449495 -0.0449495 -0.449495 -0.449495 -0.0449495 -0.5 -0.439394 -0.0439394
-0.487879 -0.439394 -0.0439394 -0.475758 -0.439394 -0.0439394 -0.463636 -0.439394 -0.0439394 -0.451515
-0.439394 -0.0439394 -0.439394 -0.439394 -0.0439394 -0.5 -0.429293 -0.0429293 -0.485859 -0.429293
-0.0429293 -0.471717 -0.429293 -0.0429293 -0.457576 -0.429293 -0.0429293 -0.443434 -0.429293 -0.0429293
-0.429293 -0.429293 -0.0429293 -0.5 -0.419192 -0.0419192 -0.483838 -0.419192 -0.0419192 -0.467677
-0.419192 -0.0419192 -0.451515 -0.419192 -0.0419192 -0.435354 -0.419192 -0.0419192 -0.419192 -0.419192
-0.0419192 -0.5 -0.409091 -0.0409091 -0.481818 -0.409091 -0.0409091 -0.463636 -0.409091 -0.0409091
-0.445455 -0.409091 -0.0409091 -0.427273 -0.409091 -0.0409091 -0.409091 -0.409091 -0.0409091 -0.5
-0.39899 -0.039899 -0.479798 -0.39899 -0.039899 -0.459596 -0.39899 -0.039899 -0.439394 -0.39899
-0.039899 -0.419192 -0.39899 -0.039899 -0.39899 -0.39899 -0.039899 -0.5 -0.388889 -0.0388889
-0.477778 -0.388889 -0.0388889 -0.455556 -0.388889 -0.0388889 -0.433333 -0.388889 -0.0388889 -0.411111
-0.388889 -0.0388889 -0.388889 -0.388889 -0.0388889 -0.5 -0.378788 -0.0378788 -0.475758 -0.378788
-0.0378788 -0.451515 -0.378788 -0.0378788 -0.427273 -0.378788 -0.0378788 -0.40303 -0.378788 -0.0378788
-0.378788 -0.378788 -0.0378788 -0.5 -0.368687 -0.0368687 -0.473737 -0.368687 -0.0368687 -0.447475
-0.368687 -0.0368687 -0.421212 -0.368687 -0.0368687 -0.394949 -0.368687 -0.0368687 -0.368687 -0.368687
-0.0368687 -0.5 -0.358586 -0.0358586 -0.471717 -0.358586 -0.0358586 -0.443434 -0.358586 -0.0358586
-0.415152 -0.358586 -0.0358586 -0.386869 -0.358586 -0.0358586 -0.358586 -0.358586 -0.0358586 -0.5
-0.348485 -0.0348485 -0.469697 -0.348485 -0.0348485 -0.439394 -0.348485 -0.0348485 -0.409091 -0.348485
-0.0348485 -0.378788 -0.348485 -0.0348485 -0.348485 -0.348485 -0.0348485 -0.5 -0.338384 -0.0338384
-0.467677 -0.338384 -0.0338384 -0.435354 -0.338384 -0.0338384 -0.40303 -0.338384 -0.0338384 -0.370707
-0.338384 -0.0338384 -0.338384 -0.338384 -0.0338384 -0.5 -0.328283 -0.0328283 -0.465657 -0.328283
-0.0328283 -0.431313 -0.328283 -0.0328283 -0.39697 -0.328283 -0.0328283 -0.362626 -0.328283 -0.0328283
-0.328283 -0.328283 -0.0328283 -0.5 -0.318182 -0.0318182 -0.463636 -0.318182 -0.0318182 -0.427273
-0.318182 -0.0318182 -0.390909 -0.318182 -0.0318182 -0.354545 -0.318182 -0.0318182 -0.318182 -0.318182
-0.0318182 -0.5 -0.308081 -0.0308081 -0.461616 -0.308081 -0.0308081 -0.423232 -0.308081 -0.0308081
-0.384848 -0.308081 -0.0308081 -0.346465 -0.308081 -0.0308081 -0.308081 -0.308081 -0.0308081 -0.5
-0.29798 -0.029798 -0.459596 -0.29798 -0.029798 -0.419192 -0.29798 -0.029798 -0.378788 -0.29798
-0.029798 -0.338384 -0.29798 -0.029798 -0.29798 -0.29798 -0.029798 -0.5 -0.287879 -0.0287879
-0.457576 -0.287879 -0.0287879 -0.415152 -0.287879 -0.0287879 -0.372727 -0.287879 -0.0287879 -0.330303
-0.287879 -0.0287879 -0.287879 -0.287879 -0.0287879 -0.5 -0.277778 -0.0277778 -0.455556 -0.277778
-0.0277778 -0.411111 -0.277778 -0.0277778 -0.366667 -0.277778 -0.0277778 -0.322222 -0.277778 -0.0277778
-0.277778 -0.277778 -0.0277778 -0.5 -0.267677 -0.0267677 -0.453535 -0.267677 -0.0267677 -0.407071
-0.267677 -0.0267677 -0.360606 -0.267677 -0.0267677 -0.314141 -0.267677 -0.0267677 -0.267677 -0.267677
-0.0267677 -0.5 -0.257576 -0.0257576 -0.451515 -0.257576 -0.0257576 -0.40303 -0.257576 -0.0257576
-0.354545 -0.257576 -0.0257576 -0.306061 -0.257576 -0.0257576 -0.257576 -0.257576 -0.0257576 -0.5
-0.247475 -0.0247475 -0.449495 -0.247475 -0.0247475 -0.39899 -0.247475 -0.0247475 -0.348485 -0.247475
-0.0247475 -0.29798 -0.247475 -0.0247475 -0.247475 -0.247475 -0.0247475 -0.5 -0.237374 -0.0237374
-0.447475 -0.237374 -0.0237374 -0.394949 -0.237374 -0.0237374 -0.342424 -0.237374 -0.0237374 -0.289899
-0.237374 -0.0237374 -0.237374 -0.237374 -0.0237374 -0.5 -0.227273 -0.0227273 -0.445455 -0.227273
-0.0227273 -0.390909 -0.227273 -0.0227273 -0.336364 -0.227273 -0.0227273 -0.281818 -0.227273 -0.0227273
-0.227273 -0.227273 -0.0227273 -0.5 -0.217172 -0.0217172 -0.443434 -0.217172 -0.0217172 -0.386869
-0.217172 -0.0217172 -0.330303 -0.217172 -0.0217172 -0.273737 -0.217172 -0.0217172 -0.217172 -0.217172
-0.0217172 -0.5 -0.207071 -0.0207071 -0.441414 -0.207071 -0.0207071 -0.382828 -0.207071 -0.0207071
-0.324242 -0.207071 -0.0207071 -0.265657 -0.207071 -0.0207071 -0.207071 -0.207071 -0.0207071 -0.5
-0.19697 -0.019697 -0.439394 -0.19697 -0.019697 -0.378788 -0.19697 -0.019697 -0.318182 -0.19697
-0.019697 -0.257576 -0.19697 -0.019697 -0.19697 -0.19697 -0.019697 -0.5 -0.186869 -0.0186869
-0.437374 -0.186869 -0.0186869 -0.374747 -0.186869 -0.0186869 -0.312121 -0.186869 -0.0186869 -0.249495
-0.186869 -0.0186869 -0.186869 -0.186869 -0.0186869 -0.5 -0.176768 -0.0176768 -0.435354 -0.176768
-0.0176768 -0.370707 -0.176768 -0.0176768 -0.306061 -0.176768 -0.0176768 -0.241414 -0.176768 -0.0176768
-0.176768 -0.176768 -0.0176768 -0.5 -0.166667 -0.0166667 -0.433333 -0.166667 -0.0166667 -0.366667
-0.166667 -0.0166667 -0.3 -0.166667 -0.0166667 -0.233333 -0.166667 -0.0166667 -0.166667 -0.166667
-0.0166667 -0.5 -0.156566 -0.0156566 -0.431313 -0.156566 -0.0156566 -0.362626 -0.156566 -0.0156566
-0.293939 -0.156566 -0.0156566 -0.225253 -0.156566 -0.0156566 -0.156566 -0.156566 -0.0156566 -0.5
-0.146465 -0.0146465 -0.429293 -0.146465 -0.0146465 -0.358586 -0.146465 -0.0146465 -0.287879 -0.146465
-0.0146465 -0.217172 -0.146465 -0.0146465 -0.146465 -0.146465 -0.0146465 -0.5 -0.136364 -0.0136364
-0.427273 -0.136364 -0.0136364 -0.354545 -0.136364 -0.0136364 -0.281818 -0.136364 -0.0136364 -0.209091
-0.136364 -0.0136364 -0.136364 -0.136364 -0.0136364 -0.5 -0.126263 -0.0126263 -0.425253 -0.126263
-0.0126263 -0.350505 -0.126263 -0.0126263 -0.275758 -0.126263 -0.0126263 -0.20101 -0.126263 -0.0126263
-0.126263 -0.126263 -0.0126263 -0.5 -0.116162 -0.0116162 -0.423232 -0.116162 -0.0116162 -0.346465
-0.116162 -0.0116162 -0.269697 -0.116162 -0.0116162 -0.192929 -0.116162 -0.0116162 -0.116162 -0.116162
-0.0116162 -0.5 -0.106061 -0.0106061 -0.421212 -0.106061 -0.0106061 -0.342424 -0.106061 -0.0106061
-0.263636 -0.106061 -0.0106061 -0.184848 -0.106061 -0.0106061 -0.106061 -0.106061 -0.0106061 -0.5
-0.0959596 -0.00959596 -0.419192 -0.0959596 -0.00959596 -0.338384 -0.0959596 -0.00959596 -0.257576 -0.0959596
-0.00959596 -0.176768 -0.0959596 -0.00959596 -0.0959596 -0.0959596 -0.00959596 -0.5 -0.0858586 -0.00858586
-0.417172 -0.0858586 -0.00858586 -0.334343 -0.0858586 -0.00858586 -0.251515 -0.0858586 -0.00858586 -0.168687
-0.0858586 -0.00858586 -0.0858586 -0.0858586 -0.00858586 -0.5 -0.0757576 -0.00757576 -0.415152 -0.0757576
-0.00757576 -0.330303 -0.0757576 -0.00757576 -0.245455 -0.0757576 -0.00757576 -0.160606 -0.0757576 -0.00757576
-0.0757576 -0.0757576 -0.00757576 -0.5 -0.0656566 -0.00656566 -0.413131 -0.0656566 -0.00656566 -0.326263
-0.0656566 -0.00656566 -0.239394 -0.0656566 -0.00656566 -0.152525 -0.0656566 -0.00656566 -0.0656566 -0.0656566
-0.00656566 -0.5 -0.0555556 -0.00555556 -0.411111 -0.0555556 -0.00555556 -0.322222 -0.0555556 -0.00555556
-0.233333 -0.0555556 -0.00555556 -0.144444 -0.0555556 -0.00555556 -0.0555556 -0.0555556 -0.00555556 -0.5
-0.0454545 -0.00454545 -0.409091 -0.0454545 -0.00454545 -0.318182 -0.0454545 -0.00454545 -0.227273 -0.0454545
-0.00454545 -0.136364 -0.0454545 -0.00454545 -0.0454545 -0.0454545 -0.00454545 -0.5 -0.0353535 -0.00353535
-0.407071 -0.0353535 -0.00353535 -0.314141 -0.0353535 -0.00353535 -0.221212 -0.0353535 -0.00353535 -0.128283
-0.0353535 -0.00353535 -0.0353535 -0.0353535 -0.00353535 -0.5 -0.0252525 -0.00252525 -0.405051 -0.0252525
-0.00252525 -0.310101 -0.0252525 -0.00252525 -0.215152 -0.0252525 -0.00252525 -0.120202 -0.0252525 -0.00252525
-0.0252525 -0.0252525 -0.00252525 -0.5 -0.0151515 -0.00151515 -0.40303 -0.0151515 -0.00151515 -0.306061
-0.0151515 -0.00151515 -0.209091 -0.0151515 -0.00151515 -0.112121 -0.0151515 -0.00151515 -0.0151515 -0.0151515
-0.00151515 -0.5 -0.00505051 -0.000505051 -0.40101 -0.00505051 -0.000505051 -0.30202 -0.00505051 -0.000505051
-0.20303 -0.00505051 -0.000505051 -0.10404 -0.00505051 -0.000505051 -0.00505051 -0.00505051 -0.000505051 -0.5
0.00505051 0.000505051 -0.39899 0.00505051 0.000505051 -0.29798 0.00505051 0.000505051 -0.19697 0.00505051
0.000505051 -0.0959596 0.00505051 0.000505051 0.00505051 0.00505051 0.000505051 -0.5 0.0151515 0.00151515
-0.39697 0.0151515 0.00151515 -0.293939 0.0151515 0.00151515 -0.190909 0.0151515 0.00151515 -0.0878788
0.0151515 0.00151515 0.0151515 0.0151515 0.00151515 -0.5 0.0252525 0.00252525 -0.394949 0.0252525
0.00252525 -0.289899 0.0252525 0.00252525 -0.184848 0.0252525 0.00252525 -0.079798 0.0252525 0.00252525
0.0252525 0.0252525 0.00252525 -0.5 0.0353535 0.00353535 -0.392929 0.0353535 0.00353535 -0.285859
0.0353535 0.00353535 -0.178788 0.0353535 0.00353535 -0.0717172 0.0353535 0.00353535 0.0353535 0.0353535
0.00353535 -0.5 0.0454545 0.00454545 -0.390909 0.0454545 0.00454545 -0.281818 0.0454545 0.00454545
[...]
POINT_DATA 600
FIELD attributes 3
age 1 600 float
0 0 0 0 0 0 -0.00249509 -0.00199207 -0.00149107 -0.000992067 -0.00049505
0 -0.00493158 -0.00392958 -0.00293554 -0.00194935 -0.000970874 0 -0.00731194 -0.00581494 -0.00433565
-0.00287366 -0.00142857 0 -0.00963849 -0.00765042 -0.00569347 -0.00376669 -0.00186916 0 -0.0119134
-0.00943816 -0.00701098 -0.00463003 -0.00229358 0 -0.0141387 -0.0111802 -0.00828999 -0.00546513 -0.0027027
0 -0.0163164 -0.0128783 -0.00953223 -0.00627339 -0.00309735 0 -0.0184483 -0.0145344 -0.0107393
-0.00705608 -0.00347826 0 -0.020536 -0.0161501 -0.0119128 -0.00781441 -0.00384615 0 -0.0225813
-0.0177269 -0.013054 -0.00854951 -0.00420168 0 -0.0245856 -0.0192664 -0.0141644 -0.00926244 -0.00454545
0 -0.0265504 -0.0207701 -0.0152452 -0.00995419 -0.00487805 0 -0.0284771 -0.0222391 -0.0162976
-0.0106257 -0.0052 0 -0.030367 -0.0236749 -0.0173228 -0.0112779 -0.00551181 0 -0.0322214
-0.0250785 -0.0183218 -0.0119115 -0.00581395 0 -0.0340414 -0.0264512 -0.0192956 -0.0125274 -0.00610687
0 -0.0358281 -0.0277941 -0.0202452 -0.0131263 -0.00639098 0 -0.0375827 -0.0291081 -0.0211716
-0.0137089 -0.00666667 0 -0.0393061 -0.0303943 -0.0220756 -0.0142759 -0.00693431 0 -0.0409994
-0.0316536 -0.0229579 -0.0148278 -0.00719424 0 -0.0426634 -0.0328868 -0.0238195 -0.0153654 -0.00744681
0 -0.044299 -0.0340949 -0.024661 -0.015889 -0.00769231 0 -0.0459071 -0.0352787 -0.0254831
-0.0163994 -0.00793103 0 -0.0474886 -0.0364388 -0.0262866 -0.0168969 -0.00816326 0 -0.0490441
-0.0375762 -0.027072 -0.0173821 -0.00838926 0 -0.0505744 -0.0386914 -0.02784 -0.0178554 -0.00860927
0 -0.0520803 -0.0397852 -0.0285912 -0.0183172 -0.00882353 0 -0.0535624 -0.0408582 -0.0293261
-0.018768 -0.00903226 0 -0.0550213 -0.041911 -0.0300452 -0.0192082 -0.00923567 0 -0.0564578
-0.0429443 -0.0307492 -0.019638 -0.00943396 0 -0.0578724 -0.0439585 -0.0314383 -0.020058 -0.00962733
0 -0.0592656 -0.0449543 -0.0321132 -0.0204684 -0.00981595 0 -0.0606381 -0.0459322 -0.0327743
-0.0208696 -0.01 0 -0.0619904 -0.0468927 -0.033422 -0.0212618 -0.0101796 0 -0.063323
-0.0478362 -0.0340567 -0.0216454 -0.010355 0 -0.0646363 -0.0487633 -0.0346788 -0.0220206 -0.0105263
0 -0.065931 -0.0496744 -0.0352887 -0.0223877 -0.0106936 0 -0.0672073 -0.0505699 -0.0358867
-0.022747 -0.0108571 0 -0.0684659 -0.0514502 -0.0364732 -0.0230987 -0.0110169 0 -0.069707
-0.0523157 -0.0370486 -0.0234431 -0.0111732 0 -0.0709312 -0.0531669 -0.0376131 -0.0237804 -0.011326
0 -0.0721388 -0.0540041 -0.038167 -0.0241108 -0.0114754 0 -0.0733302 -0.0548277 -0.0387107
-0.0244345 -0.0116216 0 -0.0745058 -0.0556379 -0.0392445 -0.0247517 -0.0117647 0 -0.075666
-0.0564352 -0.0397685 -0.0250627 -0.0119048 0 -0.076811 -0.0572199 -0.0402832 -0.0253675 -0.0120419
0 -0.0779413 -0.0579922 -0.0407887 -0.0256664 -0.0121762 0 -0.0790571 -0.0587525 -0.0412852
-0.0259596 -0.0123077 0 -0.0801587 -0.0595011 -0.0417731 -0.0262471 -0.0124365 0 -0.0813741
-0.0603657 -0.0423801 -0.0266568 -0.0126904 0 -0.0827113 -0.0613545 -0.0431141 -0.0271965 -0.0130769
0 -0.0840456 -0.0623428 -0.0438506 -0.0277415 -0.0134715 0 -0.0853776 -0.063331 -0.0445899
-0.0282922 -0.0138743 0 -0.0867077 -0.0643197 -0.0453323 -0.0288488 -0.0142857 0 -0.0880365
-0.0653092 -0.0460784 -0.0294118 -0.0147059 0 -0.0896532 -0.0665889 -0.0471174 -0.0302703 -0.0151351
0 -0.0912812 -0.0678822 -0.0481726 -0.0311475 -0.0155738 0 -0.0929212 -0.0691897 -0.0492447
-0.0320442 -0.0160221 0 -0.0945741 -0.0705121 -0.0503343 -0.0329609 -0.0164804 0 -0.0962406
-0.0718503 -0.0514422 -0.0338983 -0.0169492 0 -0.0979215 -0.0732051 -0.0525691 -0.0348571 -0.0174286
0 -0.099659 -0.0746186 -0.0537572 -0.0358381 -0.0179191 0 -0.10171 -0.0763475 -0.0552632
-0.0368421 -0.0184211 0 -0.103792 -0.0781097 -0.0568047 -0.0378698 -0.0189349 0 -0.105906
-0.0799064 -0.0583832 -0.0389222 -0.0194611 0 -0.108055 -0.0817391 -0.06 -0.04 -0.02
0 -0.110239 -0.0836093 -0.0616564 -0.0411043 -0.0205521 0 -0.11246 -0.0855183 -0.063354
-0.042236 -0.021118 0 -0.114719 -0.0874679 -0.0650943 -0.0433962 -0.0216981 0 -0.117019
-0.0894596 -0.066879 -0.044586 -0.022293 0 -0.119478 -0.0916129 -0.0687097 -0.0458065 -0.0229032
0 -0.122287 -0.0941176 -0.0705882 -0.0470588 -0.0235294 0 -0.12516 -0.0966887 -0.0725166
-0.0483444 -0.0241722 0 -0.1281 -0.0993289 -0.0744966 -0.0496644 -0.0248322 0 -0.131111
-0.102041 -0.0765306 -0.0510204 -0.0255102 0 -0.134194 -0.104828 -0.0786207 -0.0524138 -0.0262069
0 -0.137353 -0.107692 -0.0807692 -0.0538462 -0.0269231 0 -0.140592 -0.110638 -0.0829787
-0.0553191 -0.0276596 0 -0.143914 -0.113669 -0.0852518 -0.0568345 -0.0284173 0 -0.147323
-0.116788 -0.0875912 -0.0583942 -0.0291971 0 -0.150822 -0.12 -0.09 -0.06 -0.03
0 -0.154416 -0.123308 -0.0924812 -0.0616541 -0.0308271 0 -0.158397 -0.126718 -0.0950382
-0.0633588 -0.0316794 0 -0.162791 -0.130233 -0.0976744 -0.0651163 -0.0325581 0 -0.167323
-0.133858 -0.100394 -0.0669291 -0.0334646 0 -0.172 -0.1376 -0.1032 -0.0688 -0.0344
0 -0.176829 -0.141463 -0.106098 -0.0707317 -0.0353659 0 -0.181818 -0.145455 -0.109091
-0.0727273 -0.0363636 0 -0.186975 -0.14958 -0.112185 -0.0747899 -0.037395 0 -0.192308
-0.153846 -0.115385 -0.0769231 -0.0384615 0 -0.197826 -0.158261 -0.118696 -0.0791304 -0.0395652
0 -0.20354 -0.162832 -0.122124 -0.0814159 -0.040708 0 -0.209459 -0.167568 -0.125676
-0.0837838 -0.0418919 0 -0.215596 -0.172477 -0.129358 -0.0862385 -0.0431193 0 -0.221963
-0.17757 -0.133178 -0.088785 -0.0443925 0 -0.228571 -0.182857 -0.137143 -0.0914286 -0.0457143
0 -0.235437 -0.18835 -0.141262 -0.0941748 -0.0470874 0 -0.242574 -0.194059 -0.145545
-0.0970297 -0.0485149 0 -0.25 -0.2 -0.15 -0.1 -0.05 0 
p 1 600 float
100000 100000 100000 100000 100000 100000 100000 100000 100000 100000 100000
100000 100000 100000 100000 100000 100000 100000 100000 100000 100000
100000 100000 100000 100000 100000 100000 100000 100000 100000 100000
100000 100000 100000 100000 100000 100000 100000 100000 100000 100000
100000 100000 100000 100000 100000 100000 100000 100000 100000 100000
100000 100000 100000 100000 100000 100000 100000 100000 100000 100000
100000 100000 100000 100000 100000 100000 100000 100000 100000 100000
100000 100000 100000 100000 100000 100000 100000 100000 100000 100000
100000 100000 100000 100000 100000 100000 100000 100000 100000 100000
100000 100000 100000 100000 100000 100000 100000 100000 100000 100000
100000 100000 100000 100000 100000 100000 100000 100000 100000 100000
100000 100000 100000 100000 100000 100000 100000 100000 100000 100000
100000 100000 100000 100000 100000 100000 100000 100000 100000 100000
100000 100000 100000 100000 100000 100000 100000 100000 100000 100000
100000 100000 100000 100000 100000 100000 100000 100000 100000 100000
100000 100000 100000 100000 100000 100000 100000 100000 100000 100000
100000 100000 100000 100000 100000 100000 100000 100000 100000 100000
100000 100000 100000 100000 100000 100000 100000 100000 100000 100000
100000 100000 100000 100000 100000 100000 100000 100000 100000 100000
100000 100000 100000 100000 100000 100000 100000 100000 100000 100000
100000 100000 100000 100000 100000 100000 100000 100000 100000 100000
100000 100000 100000 100000 100000 100000 100000 100000 100000 100000
100000 100000 100000 100000 100000 100000 100000 100000 100000 100000
100000 100000 100000 100000 100000 100000 100000 100000 100000 100000
100000 100000 100000 100000 100000 100000 100000 100000 100000 100000
100000 100000 100000 100000 100000 100000 100000 100000 100000 100000
100000 100000 100000 100000 100000 100000 100000 100000 100000 100000
100000 100000 100000 100000 100000 100000 100000 100000 100000 100000
100000 100000 100000 100000 100000 100000 100000 100000 100000 100000
100000 100000 100000 100000 100000 100000 100000 100000 100000 100000
100000 100000 100000 100000 100000 100000 100000 100000 100000 100000
100000 100000 100000 100000 100000 100000 100000 100000 100000 100000
100000 100000 100000 100000 100000 100000 100000 100000 100000 100000
100000 100000 100000 100000 100000 100000 100000 100000 100000 100000
100000 100000 100000 100000 100000 100000 100000 100000 100000 100000
100000 100000 100000 100000 100000 100000 100000 100000 100000 100000
100000 100000 100000 100000 100000 100000 100000 100000 100000 100000
100000 100000 100000 100000 100000 100000 100000 100000 100000 100000
100000 100000 100000 100000 100000 100000 100000 100000 100000 100000
100000 100000 100000 100000 100000 100000 100000 100000 100000 100000
100000 100000 100000 100000 100000 100000 100000 100000 100000 100000
100000 100000 100000 100000 100000 100000 100000 100000 100000 100000
100000 100000 100000 100000 100000 100000 100000 100000 100000 100000
100000 100000 100000 100000 100000 100000 100000 100000 100000 100000
100000 100000 100000 100000 100000 100000 100000 100000 100000 100000
100000 100000 100000 100000 100000 100000 100000 100000 100000 100000
100000 100000 100000 100000 100000 100000 100000 100000 100000 100000
100000 100000 100000 100000 100000 100000 100000 100000 100000 100000
100000 100000 100000 100000 100000 100000 100000 100000 100000 100000
100000 100000 100000 100000 100000 100000 100000 100000 100000 100000
100000 100000 100000 100000 100000 100000 100000 100000 100000 100000
100000 100000 100000 100000 100000 100000 100000 100000 100000 100000
100000 100000 100000 100000 100000 100000 100000 100000 100000 100000
100000 100000 100000 100000 100000 100000 100000 100000 100000 100000
100000 100000 100000 100000 100000 100000 100000 100000 100000 100000
100000 100000 100000 100000 100000 100000 100000 100000 100000 100000
100000 100000 100000 100000 100000 100000 100000 100000 100000 100000
100000 100000 100000 100000 100000 100000 100000 100000 100000 100000
100000 100000 100000 100000 100000 100000 100000 100000 100000 100000
100000 100000 100000 100000 100000 100000 100000 100000 100000 
U 3 600 float
4 0 0 4 0 0 4 0 0 4 0
0 4 0 0 4 0 0 4 0 0
4.01616 0 0 4.03232 0 0 4.04848 0 0 4.06465
0 0 4.08081 0 0 4 0 0 4.03232 0
0 4.06465 0 0 4.09697 0 0 4.12929 0 0
4.16162 0 0 4 0 0 4.04848 0 0 4.09697
0 0 4.14545 0 0 4.19394 0 0 4.24242 0
0 4 0 0 4.06465 0 0 4.12929 0 0
4.19394 0 0 4.25859 0 0 4.32323 0 0 4
0 0 4.08081 0 0 4.16162 0 0 4.24242 0
0 4.32323 0 0 4.40404 0 0 4 0 0
4.09697 0 0 4.19394 0 0 4.29091 0 0 4.38788
0 0 4.48485 0 0 4 0 0 4.11313 0
0 4.22626 0 0 4.33939 0 0 4.45253 0 0
4.56566 0 0 4 0 0 4.12929 0 0 4.25859
0 0 4.38788 0 0 4.51717 0 0 4.64646 0
0 4 0 0 4.14545 0 0 4.29091 0 0
4.43636 0 0 4.58182 0 0 4.72727 0 0 4
0 0 4.16162 0 0 4.32323 0 0 4.48485 0
0 4.64646 0 0 4.80808 0 0 4 0 0
4.17778 0 0 4.35556 0 0 4.53333 0 0 4.71111
0 0 4.88889 0 0 4 0 0 4.19394 0
0 4.38788 0 0 4.58182 0 0 4.77576 0 0
4.9697 0 0 4 0 0 4.2101 0 0 4.4202
0 0 4.6303 0 0 4.8404 0 0 5.05051 0
0 4 0 0 4.22626 0 0 4.45253 0 0
4.67879 0 0 4.90505 0 0 5.13131 0 0 4
0 0 4.24242 0 0 4.48485 0 0 4.72727 0
0 4.9697 0 0 5.21212 0 0 4 0 0
4.25859 0 0 4.51717 0 0 4.77576 0 0 5.03434
0 0 5.29293 0 0 4 0 0 4.27475 0
0 4.54949 0 0 4.82424 0 0 5.09899 0 0
5.37374 0 0 4 0 0 4.29091 0 0 4.58182
0 0 4.87273 0 0 5.16364 0 0 5.45455 0
0 4 0 0 4.30707 0 0 4.61414 0 0
4.92121 0 0 5.22828 0 0 5.53535 0 0 4
0 0 4.32323 0 0 4.64646 0 0 4.9697 0
0 5.29293 0 0 5.61616 0 0 4 0 0
4.33939 0 0 4.67879 0 0 5.01818 0 0 5.35758
0 0 5.69697 0 0 4 0 0 4.35556 0
0 4.71111 0 0 5.06667 0 0 5.42222 0 0
5.77778 0 0 4 0 0 4.37172 0 0 4.74343
0 0 5.11515 0 0 5.48687 0 0 5.85859 0
0 4 0 0 4.38788 0 0 4.77576 0 0
5.16364 0 0 5.55152 0 0 5.93939 0 0 4
0 0 4.40404 0 0 4.80808 0 0 5.21212 0
0 5.61616 0 0 6.0202 0 0 4 0 0
4.4202 0 0 4.8404 0 0 5.26061 0 0 5.68081
0 0 6.10101 0 0 4 0 0 4.43636 0
0 4.87273 0 0 5.30909 0 0 5.74545 0 0
6.18182 0 0 4 0 0 4.45253 0 0 4.90505
0 0 5.35758 0 0 5.8101 0 0 6.26263 0
0 4 0 0 4.46869 0 0 4.93737 0 0
5.40606 0 0 5.87475 0 0 6.34343 0 0 4
0 0 4.48485 0 0 4.9697 0 0 5.45455 0
0 5.93939 0 0 6.42424 0 0 4 0 0
4.50101 0 0 5.00202 0 0 5.50303 0 0 6.00404
0 0 6.50505 0 0 4 0 0 4.51717 0
0 5.03434 0 0 5.55152 0 0 6.06869 0 0
6.58586 0 0 4 0 0 4.53333 0 0 5.06667
0 0 5.6 0 0 6.13333 0 0 6.66667 0
0 4 0 0 4.54949 0 0 5.09899 0 0
5.64848 0 0 6.19798 0 0 6.74747 0 0 4
0 0 4.56566 0 0 5.13131 0 0 5.69697 0
0 6.26263 0 0 6.82828 0 0 4 0 0
4.58182 0 0 5.16364 0 0 5.74545 0 0 6.32727
0 0 6.90909 0 0 4 0 0 4.59798 0
0 5.19596 0 0 5.79394 0 0 6.39192 0 0
6.9899 0 0 4 0 0 4.61414 0 0 5.22828
0 0 5.84242 0 0 6.45657 0 0 7.07071 0
0 4 0 0 4.6303 0 0 5.26061 0 0
5.89091 0 0 6.52121 0 0 7.15152 0 0 4
0 0 4.64646 0 0 5.29293 0 0 5.93939 0
0 6.58586 0 0 7.23232 0 0 4 0 0
4.66263 0 0 5.32525 0 0 5.98788 0 0 6.65051
0 0 7.31313 0 0 4 0 0 4.67879 0
0 5.35758 0 0 6.03636 0 0 6.71515 0 0
7.39394 0 0 4 0 0 4.69495 0 0 5.3899
0 0 6.08485 0 0 6.7798 0 0 7.47475 0
0 4 0 0 4.71111 0 0 5.42222 0 0
6.13333 0 0 6.84444 0 0 7.55556 0 0 4
0 0 4.72727 0 0 5.45455 0 0 6.18182 0
0 6.90909 0 0 7.63636 0 0 4 0 0
4.74343 0 0 5.48687 0 0 6.2303 0 0 6.97374
0 0 7.71717 0 0 4 0 0 4.7596 0
0 5.51919 0 0 6.27879 0 0 7.03838 0 0
7.79798 0 0 4 0 0 4.77576 0 0 5.55152
0 0 6.32727 0 0 7.10303 0 0 7.87879 0
0 4 0 0 4.79192 0 0 5.58384 0 0
6.37576 0 0 7.16768 0 0 7.9596 0 0 4
0 0 4.80808 0 0 5.61616 0 0 6.42424 0
0 7.23232 0 0 7.9596 0 0 4 0 0
4.82424 0 0 5.64848 0 0 6.47273 0 0 7.29697
0 0 7.87879 0 0 4 0 0 4.8404 0
0 5.68081 0 0 6.52121 0 0 7.36162 0 0
7.79798 0 0 4 0 0 4.85657 0 0 5.71313
0 0 6.5697 0 0 7.42626 0 0 7.71717 0
0 4 0 0 4.87273 0 0 5.74545 0 0
6.61818 0 0 7.49091 0 0 7.63636 0 0 4
0 0 4.88889 0 0 5.77778 0 0 6.66667 0
0 7.55556 0 0 7.55556 0 0 4 0 0
4.90505 0 0 5.8101 0 0 6.71515 0 0 7.47475
0 0 7.47475 0 0 4 0 0 4.92121 0
0 5.84242 0 0 6.76364 0 0 7.39394 0 0
7.39394 0 0 4 0 0 4.93737 0 0 5.87475
0 0 6.81212 0 0 7.31313 0 0 7.31313 0
0 4 0 0 4.95354 0 0 5.90707 0 0
6.86061 0 0 7.23232 0 0 7.23232 0 0 4
0 0 4.9697 0 0 5.93939 0 0 6.90909 0
0 7.15152 0 0 7.15152 0 0 4 0 0
4.98586 0 0 5.97172 0 0 6.95758 0 0 7.07071
0 0 7.07071 0 0 4 0 0 5.00202 0
0 6.00404 0 0 6.9899 0 0 6.9899 0 0
6.9899 0 0 4 0 0 5.01818 0 0 6.03636
0 0 6.90909 0 0 6.90909 0 0 6.90909 0
0 4 0 0 5.03434 0 0 6.06869 0 0
6.82828 0 0 6.82828 0 0 6.82828 0 0 4
0 0 5.05051 0 0 6.10101 0 0 6.74747 0
0 6.74747 0 0 6.74747 0 0 4 0 0
5.06667 0 0 6.13333 0 0 6.66667 0 0 6.66667
0 0 6.66667 0 0 4 0 0 5.08283 0
0 6.16566 0 0 6.58586 0 0 6.58586 0 0
6.58586 0 0 4 0 0 5.09899 0 0 6.19798
0 0 6.50505 0 0 6.50505 0 0 6.50505 0
0 4 0 0 5.11515 0 0 6.2303 0 0
6.42424 0 0 6.42424 0 0 6.42424 0 0 4
0 0 5.13131 0 0 6.26263 0 0 6.34343 0
0 6.34343 0 0 6.34343 0 0 4 0 0
5.14747 0 0 6.26263 0 0 6.26263 0 0 6.26263
0 0 6.26263 0 0 4 0 0 5.16364 0
0 6.18182 0 0 6.18182 0 0 6.18182 0 0
6.18182 0 0 4 0 0 5.1798 0 0 6.10101
0 0 6.10101 0 0 6.10101 0 0 6.10101 0
0 4 0 0 5.19596 0 0 6.0202 0 0
6.0202 0 0 6.0202 0 0 6.0202 0 0 4
0 0 5.21212 0 0 5.93939 0 0 5.93939 0
0 5.93939 0 0 5.93939 0 0 4 0 0
5.22828 0 0 5.85859 0 0 5.85859 0 0 5.85859
0 0 5.85859 0 0 4 0 0 5.24444 0
0 5.77778 0 0 5.77778 0 0 5.77778 0 0
5.77778 0 0 4 0 0 5.26061 0 0 5.69697
0 0 5.69697 0 0 5.69697 0 0 5.69697 0
0 4 0 0 5.27677 0 0 5.61616 0 0
5.61616 0 0 5.61616 0 0 5.61616 0 0 4
0 0 5.29293 0 0 5.53535 0 0 5.53535 0
0 5.53535 0 0 5.53535 0 0 4 0 0
5.30909 0 0 5.45455 0 0 5.45455 0 0 5.45455
0 0 5.45455 0 0 4 0 0 5.32525 0
0 5.37374 0 0 5.37374 0 0 5.37374 0 0
5.37374 0 0 4 0 0 5.29293 0 0 5.29293
0 0 5.29293 0 0 5.29293 0 0 5.29293 0
0 4 0 0 5.21212 0 0 5.21212 0 0
5.21212 0 0 5.21212 0 0 5.21212 0 0 4
0 0 5.13131 0 0 5.13131 0 0 5.13131 0
0 5.13131 0 0 5.13131 0 0 4 0 0
5.05051 0 0 5.05051 0 0 5.05051 0 0 5.05051
0 0 5.05051 0 0 4 0 0 4.9697 0
0 4.9697 0 0 4.9697 0 0 4.9697 0 0
4.9697 0 0 4 0 0 4.88889 0 0 4.88889
0 0 4.88889 0 0 4.88889 0 0 4.88889 0
0 4 0 0 4.80808 0 0 4.80808 0 0
4.80808 0 0 4.80808 0 0 4.80808 0 0 4
0 0 4.72727 0 0 4.72727 0 0 4.72727 0
0 4.72727 0 0 4.72727 0 0 4 0 0
4.64646 0 0 4.64646 0 0 4.64646 0 0 4.64646
0 0 4.64646 0 0 4 0 0 4.56566 0
0 4.56566 0 0 4.56566 0 0 4.56566 0 0
4.56566 0 0 4 0 0 4.48485 0 0 4.48485
0 0 4.48485 0 0 4.48485 0 0 4.48485 0
0 4 0 0 4.40404 0 0 4.40404 0 0
4.40404 0 0 4.40404 0 0 4.40404 0 0 4
0 0 4.32323 0 0 4.32323 0 0 4.32323 0
0 4.32323 0 0 4.32323 0 0 4 0 0
4.24242 0 0 4.24242 0 0 4.24242 0 0 4.24242
0 0 4.24242 0 0 4 0 0 4.16162 0
0 4.16162 0 0 4.16162 0 0 4.16162 0 0
4.16162 0 0 4 0 0 4.08081 0 0 4.08081
0 0 4.08081 0 0 4.08081 0 0 4.08081 0
0 4 0 0 4 0 0 4 0 0
4 0 0 4 0 0 4 0 0 
