/*--------------------------------*- C++ -*----------------------------------*\
  =========                 |
  \\      /  F ield         | OpenFOAM: The Open Source CFD Toolbox
   \\    /   O peration     | Website:  https://openfoam.org
    \\  /    A nd           | Version:  12
     \\/     M anipulation  |
\*---------------------------------------------------------------------------*/
FoamFile
{
    format      ascii;
    class       volVectorField;
    location    "16.32";
    object      zeta;
}
// * * * * * * * * * * * * * * * * * * * * * * * * * * * * * * * * * * * * * //

dimensions      [0 1 0 0 0 0 0];

internalField   uniform (0 0 0);

boundaryField
{
    freeSurface
    {
        type            calculated;
        value           nonuniform List<vector> 
181
(
(0 -0.00270879 0)
(0 -0.00270964 0)
(0 -0.00270938 0)
(0 -0.0027091 0)
(0 -0.00270839 0)
(0 -0.00270796 0)
(0 -0.00270704 0)
(0 -0.00270647 0)
(0 -0.00150947 0)
(0 -0.00150152 0)
(0 -0.00150014 0)
(0 -0.00149413 0)
(0 -0.0014839 0)
(0 -0.00147252 0)
(0 -0.0014558 0)
(0 -0.00143663 0)
(0 -0.0014106 0)
(0 -0.00138004 0)
(0 -0.00134242 0)
(0 -0.00129925 0)
(0 -0.0012496 0)
(0 -0.00119372 0)
(0 -0.0011313 0)
(0 -0.00106216 0)
(0 -0.000986258 0)
(0 -0.000903738 0)
(0 -0.000815008 0)
(0 -0.00072061 0)
(0 -0.000621028 0)
(0 -0.000516653 0)
(0 -0.000407919 0)
(0 -0.000295544 0)
(0 -0.000180301 0)
(0 -6.30223e-05 0)
(0 5.52014e-05 0)
(0 0.000173312 0)
(0 0.000290254 0)
(0 0.000404972 0)
(0 0.000516085 0)
(0 0.000622505 0)
(0 0.00072297 0)
(0 0.000816158 0)
(0 0.000900795 0)
(0 0.000975742 0)
(0 0.00104006 0)
(0 0.00109266 0)
(0 0.00113254 0)
(0 0.00115889 0)
(0 0.00117102 0)
(0 0.00116828 0)
(0 0.00115027 0)
(0 0.00111678 0)
(0 0.00106779 0)
(0 0.00100354 0)
(0 0.000924404 0)
(0 0.000831086 0)
(0 0.000724626 0)
(0 0.000606367 0)
(0 0.000477768 0)
(0 0.000340669 0)
(0 0.000197027 0)
(0 4.9051e-05 0)
(0 -0.00010074 0)
(0 -0.000249834 0)
(0 -0.000395705 0)
(0 -0.000535299 0)
(0 -0.000666242 0)
(0 -0.000785517 0)
(0 -0.000890496 0)
(0 -0.000978631 0)
(0 -0.00104769 0)
(0 -0.0010954 0)
(0 -0.00112039 0)
(0 -0.00112137 0)
(0 -0.00109764 0)
(0 -0.00104915 0)
(0 -0.000976366 0)
(0 -0.00088033 0)
(0 -0.000762763 0)
(0 -0.000626007 0)
(0 -0.000473078 0)
(0 -0.000307504 0)
(0 -0.000133534 0)
(0 4.41382e-05 0)
(0 0.000220923 0)
(0 0.000391613 0)
(0 0.000550908 0)
(0 0.000693797 0)
(0 0.00081544 0)
(0 0.000911519 0)
(0 0.00097825 0)
(0 0.00101247 0)
(0 0.00101241 0)
(0 0.000977019 0)
(0 0.000907031 0)
(0 0.000803893 0)
(0 0.000670783 0)
(0 0.00051203 0)
(0 0.000333345 0)
(0 0.000141638 0)
(0 -5.56102e-05 0)
(0 -0.000250536 0)
(0 -0.000434716 0)
(0 -0.000599864 0)
(0 -0.00073803 0)
(0 -0.00084246 0)
(0 -0.000907373 0)
(0 -0.000928848 0)
(0 -0.000904793 0)
(0 -0.000835129 0)
(0 -0.000722612 0)
(0 -0.000572297 0)
(0 -0.000391581 0)
(0 -0.000189774 0)
(0 2.12334e-05 0)
(0 0.000229667 0)
(0 0.000423026 0)
(0 0.000588627 0)
(0 0.00071524 0)
(0 0.00079332 0)
(0 0.000816872 0)
(0 0.000783072 0)
(0 0.000693106 0)
(0 0.00055267 0)
(0 0.000371216 0)
(0 0.000161887 0)
(0 -5.90618e-05 0)
(0 -0.000274995 0)
(0 -0.00046895 0)
(0 -0.000624309 0)
(0 -0.000727363 0)
(0 -0.00076859 0)
(0 -0.000743532 0)
(0 -0.00065354 0)
(0 -0.000506338 0)
(0 -0.000315187 0)
(0 -9.81926e-05 0)
(0 0.000123242 0)
(0 0.000329273 0)
(0 0.000498445 0)
(0 0.000613037 0)
(0 0.000660904 0)
(0 0.000636549 0)
(0 0.000542693 0)
(0 0.000389801 0)
(0 0.000195775 0)
(0 -1.55428e-05 0)
(0 -0.000220249 0)
(0 -0.000394089 0)
(0 -0.000515175 0)
(0 -0.000568737 0)
(0 -0.000548674 0)
(0 -0.000458671 0)
(0 -0.000312128 0)
(0 -0.000130907 0)
(0 5.76435e-05 0)
(0 0.000228677 0)
(0 0.000356604 0)
(0 0.00042322 0)
(0 0.0004202 0)
(0 0.00035055 0)
(0 0.000228089 0)
(0 7.6274e-05 0)
(0 -7.78058e-05 0)
(0 -0.000209084 0)
(0 -0.000294743 0)
(0 -0.000321679 0)
(0 -0.000287921 0)
(0 -0.000202725 0)
(0 -8.61581e-05 0)
(0 3.82192e-05 0)
(0 0.000147184 0)
(0 0.000220384 0)
(0 0.000246059 0)
(0 0.000221825 0)
(0 0.000156223 0)
(0 6.42838e-05 0)
(0 -3.76183e-05 0)
(0 -0.000131377 0)
(0 -0.000202446 0)
(0 -0.000240752 0)
)
;
    }
    walls
    {
        type            calculated;
        value           uniform (0 0 0);
    }
    floatingObject
    {
        type            calculated;
        value           uniform (0 0 0);
    }
    frontAndBack
    {
        type            empty;
    }
}


// ************************************************************************* //
