/*--------------------------------*- C++ -*----------------------------------*\
  =========                 |
  \\      /  F ield         | OpenFOAM: The Open Source CFD Toolbox
   \\    /   O peration     | Website:  https://openfoam.org
    \\  /    A nd           | Version:  12
     \\/     M anipulation  |
\*---------------------------------------------------------------------------*/
FoamFile
{
    format      ascii;
    class       surfaceScalarField;
    location    "17.64";
    object      phi;
}
// * * * * * * * * * * * * * * * * * * * * * * * * * * * * * * * * * * * * * //

dimensions      [1 0 -1 0 0 0 0];

internalField   nonuniform List<scalar> 
7429
(
0.000144729
-0.000144728
0.000295256
-0.000150527
0.000447945
-0.000152689
0.000602677
-0.000154731
0.000759578
-0.000156901
0.000918689
-0.000159111
0.00108002
-0.000161328
0.00124352
-0.000163503
0.00140912
-0.0001656
0.00157667
-0.000167552
0.00174594
-0.000169263
0.00191666
-0.000170727
0.00208846
-0.000171798
0.00226082
-0.000172356
0.00243323
-0.000172411
0.00260494
-0.000171713
0.0027751
-0.000170156
0.00294293
-0.000167833
0.00310725
-0.000164316
0.00326682
-0.000159573
0.00342033
-0.000153508
0.00356643
-0.000146095
0.00370356
-0.000137132
0.00382989
-0.000126335
0.00394388
-0.000113982
0.00404367
-9.97943e-05
0.00412734
-8.36683e-05
0.00419304
-6.56963e-05
0.00423898
-4.59404e-05
0.00426328
-2.43008e-05
0.00426487
-1.5877e-06
0.00424658
1.82823e-05
0.0042057
4.08798e-05
0.00414118
6.45264e-05
0.00405236
8.88216e-05
0.00393916
0.000113192
0.00380199
0.000137174
0.00364166
0.000160327
0.0034594
0.000182263
0.00325672
0.000202681
0.00303549
0.000221227
0.00279774
0.000237754
0.00254582
0.000251915
0.00228228
0.000263542
0.00200989
0.000272392
0.00173162
0.000278273
0.00145054
0.000281082
0.00116989
0.000280644
0.000892959
0.000276932
0.000623111
0.000269848
0.000363751
0.000259359
0.000118148
0.000245603
-0.000110243
0.000228391
-0.000318584
0.000208341
-0.00050362
0.000185036
-0.000662989
0.000159369
-0.000793769
0.00013078
-0.000894375
0.000100605
-0.000961929
6.75545e-05
-0.00099605
3.4121e-05
-0.00099134
-4.7107e-06
-0.000947022
-4.43179e-05
-0.000865183
-8.18397e-05
-0.000747607
-0.000117576
-0.000595655
-0.000151952
-0.000411017
-0.000184638
-0.00019528
-0.000215737
4.90443e-05
-0.000244324
0.000319336
-0.000270291
0.0006118
-0.000292464
0.000922547
-0.000310748
0.00124672
-0.000324174
0.0015791
-0.000332382
0.00191449
-0.000335393
0.0022468
-0.000332301
0.00257002
-0.000323228
0.00287791
-0.000307885
0.00316445
-0.000286545
0.00342323
-0.00025878
0.0036482
-0.000224967
0.00383405
-0.000185847
0.00397559
-0.000141541
0.00406864
-9.30537e-05
0.00410981
-4.11697e-05
0.0040898
2.00136e-05
0.00400738
8.24161e-05
0.00386378
0.000143602
0.00366103
0.000202752
0.00340149
0.000259537
0.00308891
0.000312578
0.00272741
0.000361505
0.00232277
0.000404639
0.00188189
0.000440875
0.00141304
0.000468852
0.000925937
0.000487106
0.00043112
0.000494817
-6.01343e-05
0.000491254
-0.000535814
0.00047568
-0.000984142
0.000448327
-0.00139296
0.000408819
-0.00175082
0.00035786
-0.00204727
0.000296446
-0.00227297
0.000225705
-0.00242069
0.000147717
-0.00248427
6.35829e-05
-0.00245404
-3.02317e-05
-0.00233049
-0.000123553
-0.00211946
-0.000211024
-0.00182758
-0.000291887
-0.00146275
-0.000364826
-0.00103613
-0.000426619
-0.000560997
-0.000475133
-5.3426e-05
-0.000507571
0.00046783
-0.000521256
0.000982894
-0.000515064
0.00147097
-0.000488072
0.00191185
-0.000440888
0.00228496
-0.000373106
0.00257301
-0.000288047
0.00276096
-0.000187951
0.00283829
-7.73315e-05
0.00278662
5.16704e-05
0.00260704
0.000179575
0.00230796
0.000299085
0.0018999
0.000408056
0.00139808
0.000501822
0.000821085
0.000576996
0.00019601
0.000625074
-0.000450381
0.000646391
-0.00108467
0.000634288
-0.00167419
0.000589521
-0.00218721
0.000513023
-0.002594
0.00040679
-0.00287047
0.00027647
-0.00299894
0.000128467
-0.00295997
-3.89693e-05
-0.00275308
-0.000206894
-0.00239321
-0.000359863
-0.0019003
-0.000492916
-0.00130116
-0.000599134
-0.000631898
-0.000669264
6.47612e-05
-0.00069666
0.000742024
-0.000677263
0.00135254
-0.000610514
0.0018531
-0.000500563
0.00220667
-0.000353568
0.00238706
-0.000180393
0.00237385
1.32144e-05
0.00216352
0.000210327
0.00178126
0.000382257
0.00125854
0.000522726
0.000638922
0.000619616
-2.37497e-05
0.000662672
-0.000666259
0.00064251
-0.00122881
0.000562547
-0.00165648
0.000427678
-0.00190695
0.000250466
-0.00195586
4.89131e-05
-0.00178022
-0.000175639
-0.00141115
-0.000369074
-0.000887392
-0.000523759
-0.000263989
-0.000623402
0.000389495
-0.000653485
0.000994739
-0.000605244
0.00148015
-0.00048541
0.00178642
-0.000306267
0.00187638
-8.99671e-05
0.00172296
0.00015342
0.00135643
0.000366537
0.00082352
0.000532906
0.00019367
0.00062985
-0.000447333
0.000641003
-0.00100544
0.000558107
-0.00139949
0.000394049
-0.00157053
0.000171046
-0.00147947
-9.10635e-05
-0.0011435
-0.000335972
-0.000612658
-0.000530841
3.53919e-05
-0.00064805
0.000699314
-0.000663922
0.001268
-0.000568684
0.00164643
-0.000378431
0.00176951
-0.000123082
0.00160137
0.000168145
0.00117643
0.000424936
0.000561485
0.000614945
-0.000139888
0.000701373
-0.000801394
0.000661506
-0.00130629
0.000504897
-0.00156458
0.000258287
-0.00152886
-3.57137e-05
-0.00121462
-0.000314244
-0.000689512
-0.000525109
-6.71784e-05
-0.000622333
0.000517023
-0.000584202
0.000933293
-0.00041627
0.00108922
-0.000155931
0.000950015
0.000139208
0.000552616
0.000397399
0.000552616
0.000204213
-0.000348941
0.000423959
-0.000370273
0.000648332
-0.000377061
0.000877986
-0.000384385
0.00111361
-0.000392522
0.0013559
-0.000401399
0.00160517
-0.0004106
0.00186169
-0.000420019
0.00212522
-0.000429136
0.00239546
-0.00043779
0.00267166
-0.000445456
0.00295299
-0.000452055
0.00323847
-0.000457285
0.0035269
-0.000460782
0.00381679
-0.000462302
0.00410657
-0.000461489
0.00439437
-0.000457961
0.00467798
-0.000451439
0.00495523
-0.000441563
0.00522368
-0.000428022
0.00548065
-0.000410485
0.00572335
-0.000388794
0.00594898
-0.000362755
0.00615494
-0.000332295
0.00633821
-0.000297255
0.00649635
-0.000257934
0.00662693
-0.000214242
0.00672812
-0.000166885
0.00679828
-0.000116107
0.00683686
-6.28812e-05
0.00684301
-7.73288e-06
0.00679541
6.58857e-05
0.00670341
0.00013287
0.00657007
0.000197876
0.00639808
0.000260813
0.00619029
0.000320974
0.00594994
0.000377525
0.00568083
0.000429435
0.00538542
0.000477678
0.00506588
0.000522223
0.00472379
0.000563315
0.00436202
0.000599528
0.00398376
0.000630172
0.00359243
0.000654871
0.00319161
0.000673214
0.00278587
0.00068401
0.00237894
0.000688013
0.00197523
0.000684356
0.00157967
0.000672487
0.00119541
0.000654106
0.000827774
0.000627
0.000479442
0.000593935
0.0001559
0.000551932
-0.00014096
0.000505201
-0.000406337
0.000450413
-0.000636579
0.000389611
-0.000830587
0.000324788
-0.000985146
0.000255164
-0.00109865
0.000181062
-0.00116852
0.000103987
-0.00119749
2.42574e-05
-0.00117886
-6.29458e-05
-0.00111688
-0.000143815
-0.00101177
-0.000222689
-0.00086435
-0.000299374
-0.000676229
-0.000372759
-0.000450121
-0.000441845
-0.000189149
-0.000505297
0.000102208
-0.000561648
0.000420091
-0.000610347
0.000759746
-0.000650403
0.00111558
-0.000680007
0.00148138
-0.000698183
0.00185131
-0.000705325
0.0022185
-0.000699491
0.00257614
-0.000680869
0.00291739
-0.000649132
0.00323504
-0.000604199
0.00352228
-0.000546018
0.00377267
-0.000475359
0.00397962
-0.000392794
0.00413781
-0.000299735
0.0042421
-0.000197344
0.00428869
-8.77518e-05
0.00426926
3.94439e-05
0.0041829
0.000168772
0.00403093
0.000295571
0.00381468
0.000419007
0.00353642
0.000537792
0.00319942
0.000649579
0.00280849
0.000752433
0.00236996
0.00084317
0.00189178
0.000919057
0.00138316
0.000977469
0.000854746
0.00101552
0.000318094
0.00103147
-0.000214477
0.00102382
-0.000729442
0.000990645
-0.00121426
0.000933147
-0.00165528
0.000849834
-0.00204018
0.000742761
-0.0023575
0.000613772
-0.002597
0.000465203
-0.00274923
0.00029995
-0.00281142
0.000125774
-0.0027697
-7.19524e-05
-0.00262882
-0.000264436
-0.00239379
-0.00044605
-0.0020693
-0.000616381
-0.00166534
-0.000768781
-0.0011926
-0.000899363
-0.000666994
-0.00100074
-0.0001061
-0.00106846
0.000469631
-0.00109699
0.00103779
-0.00108323
0.00157653
-0.00102681
0.00206235
-0.000926705
0.00247436
-0.000785116
0.00279197
-0.000605658
0.00300051
-0.000396488
0.00308595
-0.000162768
0.00303283
0.000104787
0.00284328
0.000369129
0.00252383
0.000618533
0.00208447
0.000847411
0.0015418
0.0010445
0.000916899
0.00120189
0.000237461
0.00130451
-0.000462206
0.00134606
-0.00114924
0.00132132
-0.00178722
0.0012275
-0.00234158
0.00106739
-0.00278041
0.000845613
-0.00307683
0.000572894
-0.00321081
0.000262444
-0.00316362
-8.61605e-05
-0.00293777
-0.000432739
-0.00254667
-0.000750968
-0.00200996
-0.00102962
-0.00135893
-0.00125017
-0.000632255
-0.00139594
0.000122932
-0.00145185
0.000855102
-0.00140943
0.00151334
-0.00126875
0.00205057
-0.00103779
0.00242473
-0.000727735
0.00260934
-0.000365002
0.00258066
4.18918e-05
0.00234388
0.000447106
0.00191946
0.000806679
0.00134175
0.00110044
0.000659218
0.00130215
-6.72698e-05
0.00138916
-0.000770136
0.00134538
-0.00138306
0.00117547
-0.00184556
0.000890184
-0.00211151
0.000516415
-0.00215414
9.15364e-05
-0.00195673
-0.000373045
-0.00154822
-0.000777588
-0.000970025
-0.00110195
-0.000284818
-0.00130861
0.00043058
-0.00136888
0.0010911
-0.00126576
0.00161826
-0.00101257
0.00194769
-0.000635695
0.00203696
-0.000179235
0.00186498
0.000325396
0.0014606
0.00077092
0.00087487
0.00111863
0.000184424
0.0013203
-0.000515669
0.0013411
-0.00112287
0.0011653
-0.00154963
0.000820813
-0.00173166
0.000353072
-0.00163081
-0.000191909
-0.00126582
-0.00070096
-0.000688885
-0.00110778
1.37967e-05
-0.00135073
0.000733218
-0.00138334
0.00134692
-0.00118238
0.00175361
-0.000785122
0.00188286
-0.000252337
0.00170237
0.000348637
0.0012454
0.000881902
0.00058596
0.00127439
-0.000163364
0.0014507
-0.000866377
0.00136452
-0.00139881
0.00103733
-0.00166438
0.000523862
-0.00161454
-8.55543e-05
-0.00126718
-0.000661607
-0.00069629
-0.001096
-2.33263e-05
-0.0012953
0.000601083
-0.00120861
0.00104283
-0.000858021
0.00120221
-0.000315306
0.00104299
0.000298428
0.00060517
0.000835219
0.00115779
2.9217e-05
-0.000378157
6.64035e-05
-0.000407459
0.000107168
-0.000417824
0.000153175
-0.000430391
0.000205333
-0.000444679
0.000265289
-0.000461355
0.000333207
-0.000478517
0.00041092
-0.000497731
0.000498042
-0.000516257
0.000596782
-0.000536529
0.000707898
-0.000556571
0.000832764
-0.000576921
0.000971587
-0.000596107
0.00112415
-0.000613349
0.00129108
-0.00062923
0.00147362
-0.000644031
0.00167136
-0.000655698
0.00188438
-0.000664457
0.00210857
-0.000665752
0.00234202
-0.000661469
0.00258111
-0.000649572
0.00282316
-0.000630849
0.00306264
-0.000602235
0.00329512
-0.000564767
0.003514
-0.000516143
0.00371597
-0.0004599
0.00389425
-0.000392522
0.00404337
-0.000316003
0.00415602
-0.000228762
0.0042272
-0.000134052
0.00425011
-3.06499e-05
0.00425304
6.29603e-05
0.00422106
0.000164851
0.00414928
0.000269656
0.0040355
0.000374588
0.00387958
0.000476898
0.00368197
0.000575133
0.00344378
0.000667625
0.00316824
0.000753224
0.00285952
0.000830938
0.00252319
0.000899652
0.00216395
0.000958766
0.00178677
0.00100735
0.00139677
0.00104487
0.000999105
0.00107088
0.000598268
0.00108485
0.000199547
0.00108673
-0.000192215
0.00107612
-0.000573167
0.00105344
-0.00093704
0.00101798
-0.00128101
0.000970968
-0.00159904
0.000911971
-0.00188908
0.000841973
-0.00214457
0.000760692
-0.00236442
0.000670254
-0.00254546
0.000570651
-0.0026823
0.000461634
-0.002774
0.000346863
-0.00281941
0.000226467
-0.00281696
0.000101539
-0.00275621
-3.6492e-05
-0.00264831
-0.000170847
-0.00249199
-0.000300131
-0.00228831
-0.000426366
-0.0020389
-0.000548789
-0.00174564
-0.000666016
-0.00141116
-0.000776328
-0.00103924
-0.000877213
-0.000633905
-0.000966988
-0.000200755
-0.0010435
0.000254452
-0.00110561
0.000725377
-0.00115093
0.00120532
-0.00117813
0.00168663
-0.00118663
0.00216189
-0.00117475
0.00262215
-0.00114114
0.00305977
-0.00108675
0.00346622
-0.00101064
0.00383331
-0.000913112
0.00415357
-0.000795618
0.00441989
-0.000659109
0.00462542
-0.000505265
0.00476426
-0.00033619
0.00482876
-0.000152251
0.00481622
5.19834e-05
0.00472372
0.000261276
0.00455227
0.000467022
0.00430287
0.000668404
0.003978
0.000862659
0.00358149
0.00104609
0.00311918
0.00121475
0.0025993
0.00136305
0.00203181
0.00148655
0.00142726
0.00158202
0.000799137
0.00164364
0.00016149
0.00166912
-0.000470585
0.0016559
-0.00108136
0.00160142
-0.00165483
0.00150661
-0.00217542
0.00137043
-0.0026277
0.00119504
-0.00299818
0.000984247
-0.00327296
0.000739984
-0.00344625
0.000473245
-0.00350667
0.000186189
-0.00344497
-0.000133646
-0.00326692
-0.000442491
-0.00297501
-0.000737964
-0.00257703
-0.00101436
-0.00208132
-0.00126449
-0.00150376
-0.00147692
-0.000863692
-0.00164081
-0.000182393
-0.00174976
0.000515383
-0.00179476
0.00120443
-0.00177227
0.00185682
-0.0016792
0.00244586
-0.00151575
0.00294471
-0.00128397
0.00332992
-0.000990867
0.00358206
-0.000648621
0.003687
-0.000267708
0.00362678
0.000165004
0.0034056
0.000590312
0.00302876
0.000995367
0.00250835
0.00136782
0.0018627
0.00169015
0.00112097
0.00194363
0.000313908
0.00211157
-0.000519193
0.00217916
-0.00133587
0.002138
-0.00209355
0.00198518
-0.00274893
0.00172276
-0.00326598
0.00136266
-0.00361125
0.000918167
-0.00376174
0.000412937
-0.00369887
-0.000149034
-0.00342687
-0.000704735
-0.00295748
-0.00122036
-0.00231493
-0.00167217
-0.00153598
-0.00202912
-0.000669828
-0.00226209
0.000227364
-0.00234904
0.00109535
-0.00227742
0.00187127
-0.00204467
0.00249824
-0.00166476
0.00293201
-0.0011615
0.0031336
-0.000566591
0.00308105
9.44377e-05
0.00278275
0.000745411
0.0022604
0.00132903
0.00155588
0.00180496
0.000729241
0.00212879
-0.000147293
0.00226569
-0.000990359
0.00218844
-0.00172028
0.00190539
-0.00226738
0.00143728
-0.00257584
0.000824883
-0.0026117
0.000127388
-0.00236348
-0.000621263
-0.00186261
-0.00127846
-0.00115975
-0.00180481
-0.000330573
-0.00213779
0.000530873
-0.00223033
0.00132192
-0.00205681
0.00194803
-0.00163868
0.0023331
-0.00102077
0.00242962
-0.000275753
0.00221386
0.000541153
0.00172071
0.00126408
0.00101116
0.00182818
0.000179162
0.0021523
-0.000658935
0.00217919
-0.00138381
0.00189018
-0.00188944
0.00132644
-0.00209946
0.000563095
-0.00197457
-0.000316805
-0.00153645
-0.00113907
-0.000847003
-0.00179723
-1.15778e-05
-0.00218616
0.000841001
-0.00223592
0.00156502
-0.00190641
0.00204091
-0.00126101
0.00218854
-0.000399963
0.00197359
0.000563579
0.0014344
0.0014211
0.000660581
0.0020482
-0.000213954
0.00232523
-0.00102905
0.00217961
-0.00163826
0.00164655
-0.00193195
0.000817546
-0.00185645
-0.000161052
-0.00143398
-0.00108408
-0.000754338
-0.00177564
3.75902e-05
-0.00208722
0.000770152
-0.00194117
0.00128118
-0.00136904
0.00145634
-0.000490472
0.0012549
0.000499867
0.000725693
0.00136443
0.00188348
-8.12854e-06
-0.000370028
1.21779e-05
-0.000427764
5.36419e-05
-0.000459288
0.000126081
-0.000502829
0.000237109
-0.000555707
0.000396944
-0.000621189
0.000607599
-0.000689171
0.000874827
-0.000764959
0.00119308
-0.000834507
0.00155842
-0.000901876
0.00195977
-0.000957914
0.00239574
-0.0010129
0.00286372
-0.00106408
0.00336333
-0.00111296
0.00389126
-0.00115716
0.0044434
-0.00119617
0.0050123
-0.0012246
0.00559036
-0.00124252
0.00617266
-0.00124805
0.00675232
-0.00124112
0.00732141
-0.00121867
0.00787054
-0.00117998
0.00839034
-0.00112203
0.00887266
-0.00104709
0.00930559
-0.000949074
0.00968169
-0.000835997
0.0099882
-0.000699037
0.0102239
-0.00055166
0.0103768
-0.000381734
0.0104508
-0.000207981
0.0104444
-2.4257e-05
0.0103128
0.000194544
0.0100825
0.000395092
0.009767
0.000585198
0.00937948
0.000762109
0.0089309
0.00092548
0.00842487
0.00108116
0.00786504
0.00122745
0.00725829
0.00135998
0.00661196
0.00147727
0.00593441
0.0015772
0.00523382
0.00165936
0.00451842
0.00172276
0.00379503
0.00176825
0.00307195
0.00179396
0.00235695
0.00179985
0.00165793
0.00178575
0.000980168
0.00175388
0.000330409
0.0017032
-0.0002848
0.00163319
-0.000862115
0.00154828
-0.00139225
0.00144211
-0.00187269
0.00132241
-0.00230129
0.0011893
-0.00267183
0.0010408
-0.00297969
0.000878507
-0.00322482
0.000706769
-0.00340479
0.000526826
-0.00351385
0.000335527
-0.00355253
0.000140227
-0.00352842
-6.06092e-05
-0.0034389
-0.000260366
-0.00328165
-0.00045738
-0.00305778
-0.000650241
-0.00277001
-0.000836554
-0.00242257
-0.00101345
-0.00202009
-0.00117881
-0.00156808
-0.00132922
-0.00107282
-0.00146225
-0.000541427
-0.00157489
1.90375e-05
-0.00166607
0.000599845
-0.00173174
0.00119205
-0.00177034
0.00178635
-0.00178093
0.00237318
-0.00176158
0.00294202
-0.00170997
0.0034825
-0.00162723
0.00398482
-0.00151296
0.00443898
-0.00136727
0.00483464
-0.00119128
0.00516222
-0.000986687
0.00541507
-0.000758114
0.00558566
-0.000506777
0.00566615
-0.000232748
0.00565118
6.69589e-05
0.00553953
0.000372922
0.00533207
0.000674481
0.00502923
0.000971247
0.00463336
0.00125852
0.00415015
0.0015293
0.00358704
0.00177786
0.00295341
0.00199668
0.00226145
0.0021785
0.00152566
0.00231781
0.000761765
0.00240754
-1.31682e-05
0.00244405
-0.0007805
0.00242323
-0.00152074
0.00234166
-0.00221471
0.00220059
-0.00284281
0.00199853
-0.00338646
0.00173868
-0.00382775
0.00142554
-0.00415509
0.00106732
-0.00435442
0.000672584
-0.00441219
0.000243956
-0.00432688
-0.000218958
-0.00409976
-0.000669615
-0.00373273
-0.00110499
-0.00323435
-0.00151275
-0.00261975
-0.00187909
-0.00190472
-0.00219194
-0.00111263
-0.0024329
-0.000270529
-0.00259187
0.000590857
-0.00265615
0.0014397
-0.00262112
0.00224319
-0.00248269
0.00296752
-0.00224007
0.00358049
-0.00189695
0.00405385
-0.00146423
0.00436292
-0.000957686
0.00449173
-0.00039652
0.00442174
0.000234991
0.00415618
0.000855877
0.00370028
0.00145127
0.00306825
0.00199985
0.00228451
0.00247388
0.00138226
0.00284588
0.000403476
0.00309036
-0.000606412
0.00318905
-0.00159456
0.00312615
-0.00251021
0.00290083
-0.0033023
0.00251485
-0.00392348
0.00198384
-0.00433542
0.00133011
-0.0045106
0.000588113
-0.00442608
-0.000233551
-0.00408871
-0.00104211
-0.0035125
-0.00179658
-0.0027265
-0.00245817
-0.00177884
-0.00297677
-0.000726227
-0.0033147
0.000362495
-0.00343776
0.00140997
-0.0033249
0.00234438
-0.00297908
0.00309635
-0.00241673
0.00360391
-0.00166906
0.00383104
-0.000793717
0.0037483
0.000177168
0.0033673
0.00112641
0.00271496
0.00198137
0.00184139
0.00267853
0.000821757
0.00314842
-0.000252876
0.00334033
-0.00128324
0.00321881
-0.00217178
0.00279394
-0.00282987
0.00209537
-0.00319005
0.00118506
-0.00321789
0.000155224
-0.00290141
-0.000937738
-0.00227514
-0.00190473
-0.00140477
-0.00267518
-0.000384969
-0.00315759
0.000671149
-0.00328645
0.00163576
-0.00302142
0.00239406
-0.00239698
0.0028527
-0.0014794
0.00295452
-0.000377572
0.00268051
0.000815159
0.00206722
0.00187736
0.00119302
0.00270238
0.000174314
0.003171
-0.000850103
0.00320361
-0.00172936
0.00276944
-0.00233826
0.00193534
-0.00258443
0.000809261
-0.00242724
-0.000473993
-0.0018889
-0.00167741
-0.00104777
-0.00263835
-3.13062e-05
-0.00320262
0.000994937
-0.00326217
0.00186373
-0.0027752
0.00243136
-0.00182864
0.00259994
-0.00056854
0.00233722
0.000826296
0.00168657
0.00207175
0.000758911
0.00297586
-0.000283245
0.00336739
-0.00124745
0.00314382
-0.0019608
0.00235989
-0.00229215
0.0011489
-0.00218286
-0.000270345
-0.00166109
-0.00160585
-0.000836698
-0.00260003
0.000115382
-0.00303931
0.000989104
-0.0028149
0.00159204
-0.00197198
0.00178915
-0.000687583
0.00153383
0.000755187
0.000884972
0.00201329
0.00276845
-0.000283201
-8.6827e-05
-0.000524983
-0.000185981
-0.000738811
-0.000245459
-0.000910866
-0.000330774
-0.00103692
-0.000429657
-0.00110717
-0.000550934
-0.00114917
-0.000647175
-0.0011639
-0.000750222
-0.00122432
-0.000774088
-0.00127929
-0.000846909
-0.0012995
-0.0009377
-0.00124587
-0.00106653
-0.00110669
-0.00120325
-0.000873935
-0.00134571
-0.000548306
-0.00148279
-0.000133452
-0.00161102
0.000366727
-0.00172478
0.000943359
-0.00181915
0.00158383
-0.00188852
0.00227284
-0.00193014
0.00299057
-0.00193639
0.00372409
-0.0019135
0.00445199
-0.00184994
0.00516006
-0.00175516
0.0058236
-0.00161261
0.00643352
-0.00144591
0.00696093
-0.00122645
0.00740408
-0.000994806
0.00772609
-0.000703747
0.00792133
-0.000403222
0.00797038
-7.33074e-05
0.00793265
0.000232281
0.0077852
0.000542542
0.00753114
0.000839253
0.00717446
0.00111879
0.00672228
0.00137765
0.00619042
0.00161303
0.005594
0.00182387
0.00494589
0.00200808
0.0042575
0.00216566
0.00353971
0.00229499
0.00280237
0.0023967
0.00205463
0.0024705
0.00130668
0.0025162
0.000566339
0.00253431
-0.00015973
0.00252592
-0.000864405
0.00249042
-0.00153993
0.00242941
-0.00217981
0.00234308
-0.00277969
0.00223307
-0.00332984
0.00209843
-0.00383124
0.0019435
-0.00427665
0.00176782
-0.00465759
0.00157023
-0.00497279
0.001356
-0.00522093
0.00112665
-0.00539879
0.000884629
-0.00550382
0.000631861
-0.00553244
0.000364141
-0.00549247
0.000100262
-0.00536192
-0.000191158
-0.0051581
-0.000464188
-0.00488112
-0.000734356
-0.00453255
-0.000998818
-0.00411467
-0.00125443
-0.00363151
-0.00149661
-0.0030878
-0.00172252
-0.00248946
-0.00192756
-0.00184367
-0.00210805
-0.00115827
-0.00226029
-0.000442086
-0.00238226
0.000294674
-0.0024685
0.00104109
-0.00251676
0.00178739
-0.00252722
0.00252068
-0.00249487
0.00322904
-0.00241833
0.00390076
-0.00229895
0.00452381
-0.00213602
0.0050842
-0.00192766
0.00557336
-0.00168044
0.00597864
-0.00139197
0.00629143
-0.0010709
0.00650291
-0.000718253
0.00660436
-0.000334197
0.00659061
8.07048e-05
0.00646114
0.000502391
0.00621465
0.00092097
0.00585234
0.00133356
0.00537778
0.00173309
0.00479679
0.00211029
0.00411877
0.00245587
0.00335675
0.0027587
0.00252518
0.00301007
0.00164093
0.00320206
0.000723179
0.00332529
-0.000206692
0.00337392
-0.0011267
0.00334324
-0.00201275
0.0032277
-0.00284239
0.00303022
-0.00359115
0.0027473
-0.0042357
0.00238323
-0.00475849
0.00194834
-0.00514222
0.00145104
-0.00536437
0.000894733
-0.00542964
0.000309225
-0.0053148
-0.000333791
-0.00502984
-0.000954578
-0.00457691
-0.00155792
-0.00396631
-0.00212335
-0.0032133
-0.0026321
-0.00234336
-0.00306189
-0.00138068
-0.00339559
-0.000358005
-0.00361454
0.000687065
-0.00370122
0.00171645
-0.00365051
0.00268874
-0.00345497
0.00356515
-0.00311649
0.0043054
-0.00263719
0.00487696
-0.00203579
0.00524878
-0.00132951
0.00540234
-0.000550076
0.00531935
0.000317977
0.00500146
0.00117377
0.00445364
0.00199909
0.00369407
0.00275942
0.00275313
0.00341482
0.00167015
0.00392886
0.000495811
0.0042647
-0.000714812
0.00439967
-0.00189876
0.0043101
-0.00299074
0.00399281
-0.00393424
0.00345836
-0.0046713
0.0027209
-0.0051575
0.00181631
-0.00535729
0.0007879
-0.00524782
-0.000343024
-0.00483608
-0.00145385
-0.0041388
-0.00249386
-0.0031901
-0.00340686
-0.00204912
-0.00411776
-0.000785691
-0.00457813
0.000518384
-0.00474184
0.00177275
-0.00457926
0.00288359
-0.00408992
0.00376929
-0.00330243
0.00436719
-0.00226697
0.00461808
-0.0010446
0.00450108
0.000294161
0.00402504
0.00160246
0.00322146
0.00278494
0.0021562
0.00374378
0.000917859
0.00438677
-0.000381487
0.00463967
-0.00162098
0.0044583
-0.00268349
0.00385645
-0.00346611
0.00287798
-0.00389064
0.00160959
-0.00390073
0.000165322
-0.00350456
-0.00133391
-0.0027348
-0.00267448
-0.00167403
-0.00373596
-0.000435378
-0.00439624
0.000838134
-0.00455996
0.00199701
-0.0041803
0.00290288
-0.00330285
0.00344576
-0.00202228
0.00354913
-0.000480944
0.00320683
0.00115746
0.00245574
0.00262846
0.00139288
0.00376524
0.00016041
0.00440347
-0.00106874
0.00443276
-0.00212127
0.00382196
-0.00284364
0.00265771
-0.00312988
0.00109551
-0.00293198
-0.000671897
-0.00227874
-0.00233065
-0.00126666
-0.00365044
-5.04327e-05
-0.00441885
0.00117374
-0.00448633
0.0022047
-0.00380616
0.00287232
-0.00249626
0.0030618
-0.000758019
0.00274297
0.00114513
0.00196525
0.00284948
0.000864687
0.00407642
-0.000365194
0.00459727
-0.00149583
0.00427446
-0.00232291
0.00318697
-0.00269568
0.00152167
-0.00254717
-0.000418854
-0.00191318
-0.00223984
-0.000927496
-0.00358572
0.000202943
-0.00416974
0.00123302
-0.00384498
0.00193778
-0.00267674
0.00215844
-0.000908241
0.00184188
0.00107175
0.00105996
0.00279521
0.00382841
-0.00114472
0.00105789
-0.00225412
0.000923418
-0.00325934
0.000759765
-0.00408931
0.000499193
-0.00468149
0.000162525
-0.0048805
-0.000351921
-0.00474548
-0.000782197
-0.00427941
-0.00121629
-0.00373588
-0.00131762
-0.00303496
-0.00154783
-0.00227906
-0.0016936
-0.00149255
-0.00185304
-0.000673896
-0.00202191
0.000200244
-0.00221985
0.0011484
-0.00243094
0.00218322
-0.00264584
0.00330584
-0.0028474
0.00451468
-0.00302798
0.00579442
-0.00316825
0.00713122
-0.00326694
0.00850021
-0.00330538
0.00987673
-0.00329002
0.0112169
-0.00319009
0.0124942
-0.00303253
0.0136506
-0.00276893
0.0146865
-0.00248184
0.0154952
-0.00203511
0.0161608
-0.00166047
0.0164658
-0.00100876
0.0165192
-0.000456603
0.016314
0.000131928
0.0158903
0.000656007
0.0152671
0.00116568
0.0144789
0.00162749
0.0135533
0.00204434
0.0125195
0.00241146
0.0114043
0.00272824
0.0102319
0.00299633
0.00902269
0.00321727
0.00779528
0.00339307
0.00656519
0.00352508
0.00534513
0.00361675
0.00414659
0.00366904
0.00297902
0.00368377
0.0018509
0.00366243
0.000770712
0.0036061
-0.000256768
0.0035179
-0.00122434
0.00339698
-0.00212746
0.0032462
-0.00296006
0.00306567
-0.00372001
0.00285839
-0.00440076
0.00262425
-0.00499875
0.00236581
-0.00551278
0.00208426
-0.00593904
0.00178225
-0.00627437
0.00146198
-0.00651467
0.00112493
-0.0066582
0.000775389
-0.0067094
0.000415344
-0.00665731
4.81698e-05
-0.00652516
-0.00032331
-0.0062964
-0.000692947
-0.00597405
-0.0010567
-0.00556224
-0.00141062
-0.00506602
-0.00175066
-0.00449077
-0.00207186
-0.00384258
-0.00237071
-0.00312978
-0.00264036
-0.00236119
-0.00287665
-0.00154649
-0.00307499
-0.000695978
-0.00323276
0.000178139
-0.00334262
0.00106349
-0.00340211
0.0019471
-0.00341083
0.00281532
-0.0033631
0.00365203
-0.00325503
0.00444583
-0.00309276
0.00517863
-0.00286882
0.00584149
-0.00259051
0.00641446
-0.00225341
0.00689262
-0.00187013
0.00725544
-0.00143373
0.00750109
-0.000963898
0.00761749
-0.000450604
0.00759885
9.93466e-05
0.00744471
0.000656538
0.00715286
0.00121281
0.00672412
0.0017623
0.00616268
0.00229452
0.00547665
0.00279633
0.00467816
0.00325436
0.00378088
0.00365598
0.00280319
0.00398776
0.00176459
0.00424066
0.000687304
0.00440258
-0.000403526
0.00446475
-0.00148127
0.00442099
-0.00251836
0.0042648
-0.0034869
0.00399876
-0.00435857
0.00361897
-0.00510886
0.00313352
-0.00571723
0.0025567
-0.00615488
0.00188869
-0.00640926
0.00114912
-0.00646822
0.000368184
-0.00632445
-0.000477558
-0.0059793
-0.00129973
-0.00543682
-0.0021004
-0.00470834
-0.00285183
-0.00381446
-0.00352598
-0.00278125
-0.00409509
-0.00164323
-0.00453361
-0.000435454
-0.00482231
0.000797259
-0.00493393
0.00201071
-0.00486396
0.00315538
-0.00459964
0.00418646
-0.00414756
0.00505665
-0.00350738
0.00572685
-0.00270599
0.00616264
-0.0017653
0.00633873
-0.00072616
0.00623978
0.000416927
0.00586748
0.00154607
0.00522384
0.00264273
0.00433235
0.00365091
0.0032276
0.00451957
0.00195831
0.00519814
0.000583345
0.00563967
-0.000832304
0.00581532
-0.00221469
0.00569248
-0.00349299
0.00527111
-0.00459018
0.00455555
-0.00544522
0.00357594
-0.00600181
0.0023729
-0.00622444
0.00101054
-0.00608846
-0.000479004
-0.00559945
-0.00194286
-0.00477241
-0.0033209
-0.00365895
-0.00452031
-0.00231656
-0.00546016
-0.000834305
-0.00606038
0.0006891
-0.00626524
0.00214704
-0.0060372
0.0034404
-0.00538328
0.00446986
-0.00433188
0.00514677
-0.00294388
0.00542552
-0.00132335
0.00527048
0.000449205
0.00469423
0.00217871
0.00373387
0.0037453
0.00247094
0.00500671
0.00101092
0.00584679
-0.000520413
0.006171
-0.0019775
0.00591539
-0.00322073
0.00509967
-0.00412815
0.0037854
-0.00460426
0.0020857
-0.00460593
0.000166998
-0.00412157
-0.00181827
-0.00320158
-0.00359447
-0.0019407
-0.00499684
-0.000479001
-0.00585794
0.00102092
-0.00605989
0.00237852
-0.00553789
0.00343171
-0.00435604
0.00405258
-0.00264315
0.00416377
-0.000592126
0.00374506
0.00157616
0.00284956
0.00352396
0.00159316
0.00502163
0.000143607
0.00585302
-0.0012995
0.00587587
-0.00252637
0.00504883
-0.00336248
0.00349382
-0.0036873
0.00142033
-0.0034461
-0.000913099
-0.00267277
-0.00310399
-0.00148307
-0.00484013
-6.18433e-05
-0.00584008
0.00136147
-0.00590965
0.00255511
-0.0049998
0.00332273
-0.00326388
0.00353326
-0.000968552
0.00315263
0.00152576
0.00224384
0.00375827
0.00096619
0.00535406
-0.000453948
0.00601741
-0.00175224
0.00557275
-0.00269369
0.00412842
-0.00310432
0.0019323
-0.00291398
-0.000609198
-0.00216515
-0.00298866
-0.0010149
-0.00473598
0.00029526
-0.0054799
0.00148234
-0.00503206
0.00228824
-0.00348264
0.00253152
-0.00115152
0.00215377
0.0014495
0.00123797
0.003711
0.00506639
-0.00215074
0.00320863
-0.0041977
0.00297038
-0.00594771
0.00250978
-0.00715156
0.00170304
-0.00754076
0.000551724
-0.006878
-0.00101468
-0.00547997
-0.00218023
-0.00394081
-0.00275545
-0.00405503
-0.0012034
-0.00508487
-0.000517992
-0.00616
-0.000618459
-0.00683092
-0.00118212
-0.00697762
-0.00187521
-0.00662361
-0.00257386
-0.00584278
-0.00321177
-0.00473152
-0.00375711
-0.00336193
-0.00421699
-0.00175988
-0.00463003
2.96903e-05
-0.00495782
0.00194361
-0.00518086
0.00391582
-0.00527758
0.00592794
-0.00530214
0.00790568
-0.00516783
0.00981932
-0.00494617
0.0115858
-0.00453539
0.0132089
-0.004105
0.0145869
-0.00341306
0.0158353
-0.0029089
0.0164651
-0.00163853
0.0165721
-0.000563571
0.0162186
0.000485383
0.01552
0.00135459
0.0145791
0.00210661
0.0134708
0.00273581
0.0122523
0.00326282
0.0109622
0.00370157
0.00963339
0.00405701
0.00828698
0.00434274
0.00694317
0.00456108
0.00561359
0.00472265
0.00431046
0.00482821
0.00304295
0.00488426
0.00181734
0.00489464
0.000639803
0.00486131
-0.00048467
0.00478691
-0.0015538
0.00467523
-0.00255822
0.00452233
-0.00349963
0.00433839
-0.00436801
0.00411457
-0.00516484
0.0038625
-0.00588521
0.00357876
-0.00652468
0.00326372
-0.00707719
0.00291832
-0.00754359
0.00255067
-0.00791837
0.00215703
-0.00819328
0.00173689
-0.0083715
0.00130314
-0.00844979
0.000853688