/*--------------------------------*- C++ -*----------------------------------*\
  =========                 |
  \\      /  F ield         | OpenFOAM: The Open Source CFD Toolbox
   \\    /   O peration     | Website:  https://openfoam.org
    \\  /    A nd           | Version:  12
     \\/     M anipulation  |
\*---------------------------------------------------------------------------*/
FoamFile
{
    format      ascii;
    class       volScalarField;
    location    "350";
    object      epsilon;
}
// * * * * * * * * * * * * * * * * * * * * * * * * * * * * * * * * * * * * * //

dimensions      [0 2 -3 0 0 0 0];

internalField   nonuniform List<scalar> 
5000
(
0.124515
0.106949
0.0933488
0.0824222
0.0736759
0.0663943
0.0604464
0.0552984
0.0516002
0.0480832
0.0437196
0.0420287
0.0385377
0.0372197
0.0346421
0.0320138
0.0307951
0.0286996
0.0277491
0.0260151
0.0252467
0.0237926
0.023174
0.0224864
0.0213543
0.1245
0.106978
0.0933303
0.0824397
0.0736619
0.0664289
0.0604395
0.055891
0.0505516
0.0471859
0.0431438
0.0415942
0.0382373
0.0369371
0.0341594
0.0329713
0.0306375
0.0296146
0.0276576
0.0267708
0.0251276
0.0243773
0.0230021
0.0223922
0.0216287
0.124513
0.106954
0.0933468
0.0824158
0.0736849
0.066378
0.0604429
0.0552967
0.0515691
0.0481061
0.0439454
0.0424719
0.0388872
0.0373657
0.0347024
0.0320708
0.0308594
0.0287561
0.0278171
0.0260848
0.0253068
0.0238495
0.0232161
0.0225133
0.0213703
0.124512
0.106955
0.0933367
0.0824279
0.0736951
0.0663351
0.060487
0.0552566
0.050925
0.0475089
0.0439572
0.0402056
0.0386347
0.035663
0.0344159
0.0319638
0.0309225
0.0288219
0.0279062
0.026902
0.0252062
0.0243766
0.0229727
0.0222757
0.0211833
0.124517
0.106949
0.0933461
0.0824279
0.0736669
0.06642
0.0604304
0.0558668
0.0505289
0.0471878
0.0431301
0.0415256
0.0381909
0.0367877
0.0340373
0.0330003
0.0310784
0.0288841
0.027865
0.026106
0.025292
0.0238236
0.0231637
0.0219181
0.0213509
0.124517
0.106948
0.0933514
0.0824087
0.0736981
0.0663773
0.0604028
0.0552939
0.0510341
0.0476444
0.0451415
0.041876
0.0397683
0.0366862
0.0337746
0.032471
0.030179
0.0291465
0.0272562
0.0264305
0.0248479
0.0241768
0.0234449
0.0221269
0.0213905
0.124516
0.10695
0.0933517
0.0824073
0.0737006
0.0663726
0.0604048
0.0552889
0.0510054
0.0477138
0.045133
0.0421172
0.0397984
0.0367191
0.0338022
0.0324869
0.0301907
0.0291416
0.0272536
0.0264198
0.0248416
0.0241679
0.0234463
0.0221355
0.0213931
0.124511
0.106955
0.0933413
0.0824328
0.073663
0.0664292
0.060452
0.0558813
0.050537
0.047186
0.0431672
0.0416987
0.0383961
0.037084
0.0342767
0.0332013
0.0311085
0.0288936
0.0278713
0.0260957
0.0252888
0.0238205
0.0231968
0.0224915
0.0213457
0.124513
0.106954
0.0933441
0.0824194
0.0736801
0.0663817
0.0604409
0.0553005
0.0515476
0.0480918
0.0437144
0.0420455
0.0385783
0.0372235
0.0346511
0.0320579
0.030815
0.0286997
0.0277349
0.0259908
0.0252192
0.0237623
0.0231507
0.0224609
0.0213183
0.124512
0.106955
0.0933395
0.0824346
0.0736589
0.0664282
0.0604438
0.0558701
0.0505306
0.0471698
0.0430897
0.0415433
0.0381977
0.0368763
0.0341224
0.0330321
0.0311258
0.0289214
0.027871
0.0260895
0.0252659
0.0237871
0.0231304
0.0218902
0.0213279
0.124513
0.106957
0.0933325
0.0824363
0.0736768
0.0663655
0.0604941
0.05522
0.050732
0.046999
0.0428335
0.0411395
0.0378665
0.0365191
0.0338142
0.0327568
0.0304554
0.0294006
0.0282441
0.0263819
0.0254611
0.0239375
0.0232119
0.0219364
0.0212241
0.124515
0.106951
0.093347
0.0824134
0.0736924
0.0663786
0.0603984
0.0552912
0.0510516
0.0476136
0.0451438
0.0417251
0.0397211
0.0366793
0.0337952
0.0324994
0.0302131
0.029201
0.0273218
0.0264923
0.0249048
0.024222
0.0234733
0.0221523
0.021397
0.124509
0.106962
0.0933285
0.0824377
0.0736802
0.0663523
0.0604616
0.0552859
0.050913
0.0474981
0.0439851
0.0401984
0.0386445
0.0356438
0.0344366
0.0319765
0.0309653
0.0288735
0.0279319
0.0269165
0.0252075
0.0243796
0.0229713
0.0222796
0.0211618
0.124514
0.106959
0.093334
0.0824601
0.0736304
0.0664786
0.0602817
0.0554634
0.0512401
0.0462325
0.0441665
0.0405049
0.0390836
0.036055
0.0349074
0.0323771
0.0312318
0.0297576
0.0277064
0.0267007
0.0250452
0.0242418
0.0228649
0.0222191
0.0210593
0.124512
0.106955
0.0933403
0.0824207
0.0736912
0.0663549
0.0604381
0.0552842
0.0509657
0.0474924
0.0447284
0.0412882
0.0378428
0.0363094
0.0336001
0.0324606
0.0302143
0.0292701
0.0273696
0.0265531
0.0256529
0.0241016
0.0233478
0.0220393
0.0213179
0.124514
0.106953
0.0933468
0.0824145
0.0736907
0.0663847
0.0603897
0.0552945
0.0510626
0.0476358
0.0451666
0.041772
0.0397161
0.0366421
0.0337409
0.0324324
0.030135
0.0291302
0.0272444
0.026441
0.0248645
0.0241945
0.0234596
0.0221392
0.0213905
0.124515
0.106952
0.0933502
0.0824086
0.0736982
0.0663757
0.0604006
0.0552884
0.0510684
0.047642
0.0451943
0.0417947
0.0397369
0.0366616
0.033765
0.0324265
0.0301256
0.0291127
0.0272257
0.0264136
0.0248335
0.0241711
0.023445
0.0221305
0.021384
0.124515
0.106951
0.0933496
0.0824078
0.0736988
0.0663687
0.0604092
0.0552764
0.0510792
0.0476122
0.0452118
0.0416182
0.0396915
0.036668
0.0337928
0.0324563
0.0301677
0.0291532
0.0272717
0.0264545
0.0248702
0.0242004
0.0234651
0.0221495
0.0213994
0.124512
0.106955
0.093337
0.0824277
0.0736922
0.0663399
0.0604769
0.0552631
0.0509278
0.0475058
0.043971
0.0401947
0.0385575
0.0355612
0.0343317
0.0318665
0.0308636
0.0287779
0.0278687
0.026873
0.0251819
0.0243679
0.0229648
0.0222715
0.0211708
0.124513
0.106955
0.0933471
0.0824109
0.0736978
0.0663744
0.0603896
0.0553196
0.0510891
0.0477471
0.0444349
0.042123
0.0388258
0.0356241
0.0342354
0.0317462
0.0306543
0.0285968
0.0277264
0.0260074
0.02527
0.0244669
0.0230406
0.0223461
0.0211602
0.119805
0.0961362
0.078845
0.0659045
0.0559107
0.0480938
0.0419351
0.0369604
0.0330532
0.0289225
0.026463
0.0236474
0.0212582
0.0195795
0.0180974
0.0167263
0.015484
0.0143752
0.013388
0.0125
0.0117029
0.0109809
0.0103283
0.00973718
0.00919475
0.119801
0.0961416
0.0788329
0.0659272
0.0558803
0.048153
0.0419656
0.0369528
0.0330907
0.0288845
0.0265625
0.0237828
0.0210536
0.0193875
0.017909
0.0165703
0.0153773
0.0143171
0.0133597
0.0124986
0.0117136
0.0110031
0.0103518
0.00976092
0.00922021
0.1198
0.0961463
0.0788392
0.0659103
0.055907
0.0481107
0.041957
0.0370106
0.0328259
0.0296769
0.0257951
0.0238288
0.0214421
0.0195868
0.0180799
0.0167374
0.015503
0.014391
0.0134016
0.0125129
0.0117162
0.0109953
0.0103442
0.00975412
0.00921348
0.119796
0.0961511
0.0788204
0.0659373
0.0558835
0.0481245
0.0419756
0.0369864
0.0328678
0.029664
0.0258045
0.0237736
0.0215667
0.0195031
0.0179741
0.0166248
0.0154089
0.0143177
0.0133461
0.0124762
0.0116868
0.0109749
0.0103238
0.00973331
0.0091914
0.119803
0.0961393
0.078839
0.0659124
0.0559045
0.0480986
0.0419761
0.0369523
0.0328992
0.029566
0.0260869
0.0237966
0.0214408
0.0195167
0.0179899
0.0166672
0.0154641
0.0143635
0.0133799
0.0124937
0.0116974
0.0109761
0.0103239
0.00973007
0.00919083
0.119807
0.0961341
0.0788478
0.0659043
0.0559109
0.0481242
0.0420044
0.0369632
0.0328158
0.0298295
0.0257733
0.0236757
0.0216079
0.0195465
0.0180057
0.016666
0.015428
0.0143209
0.0133313
0.0124513
0.0116577
0.0109468
0.0103032
0.00971568
0.00917979
0.119804
0.0961382
0.0788454
0.0659058
0.0559098
0.0481217
0.0420028
0.0369697
0.0328017
0.0298498
0.0257897
0.0236059
0.0215783
0.0195561
0.0180097
0.0166692
0.0154322
0.0143228
0.0133314
0.0124498
0.0116552
0.0109435
0.0102994
0.00971166
0.0091755
0.119793
0.0961561
0.0788257
0.0659301
0.0558963
0.0481074
0.041983
0.0369588
0.0329067
0.0295602
0.0260871
0.0237949
0.0214615
0.0195265
0.0180141
0.0166994
0.0154923
0.014387
0.0133992
0.0125091
0.0117096
0.0109858
0.0103324
0.00974054
0.00919892
0.119794
0.0961547
0.0788269
0.0659259
0.0558896
0.0481187
0.0419725
0.0369887
0.0328794
0.0295918
0.0258436
0.0238665
0.0214686
0.019591
0.0180859
0.016743
0.0155044
0.0143905
0.0134
0.0125104
0.011713
0.0109914
0.0103399
0.00974951
0.00920876
0.119789
0.096161
0.0788136
0.0659449
0.0558817
0.0481255
0.0420106
0.0369278
0.033003
0.0294338
0.0258957
0.0238344
0.0212983
0.0195055
0.0179993
0.0166688
0.0154441
0.014348
0.0133704
0.0124896
0.0116973
0.0109781
0.0103265
0.0097319
0.00919217
0.119798
0.0961524
0.0788176
0.0659503
0.0558497
0.0481699
0.0419775
0.0369679
0.0329521
0.0295363
0.0257674
0.0237703
0.0213488
0.0193773
0.0178847
0.0165578
0.0153545
0.0142893
0.0133358
0.0124723
0.0116914
0.0109791
0.0103307
0.00973697
0.00919467
0.119799
0.0961462
0.0788359
0.0659171
0.0558957
0.0481261
0.0419954
0.0369285
0.0329706
0.0295296
0.0257565
0.0237761
0.0214827
0.0195678
0.0180485
0.0167022
0.0154536
0.0143489
0.0133605
0.0124803
0.0116853
0.010972
0.0103254
0.00973476
0.0091956
0.119801
0.0961467
0.0788251
0.0659415
0.0558591
0.0481583
0.0419725
0.0369667
0.0329247
0.0295703
0.0258104
0.0237853
0.0214538
0.0195181
0.0179922
0.0166322
0.0154148
0.0143278
0.0133597
0.0124922
0.0117038
0.0109918
0.0103398
0.00974796
0.00920426
0.119803
0.0961454
0.0788243
0.065942
0.0558594
0.0481578
0.0420076
0.0369245
0.0329954
0.0295224
0.0259592
0.0237799
0.0212314
0.0194862
0.0179957
0.0166551
0.0154515
0.0143742
0.0134005
0.0125252
0.0117287
0.0110088
0.0103498
0.00975236
0.00920416
0.119804
0.0961386
0.0788367
0.0659268
0.0558784
0.0481434
0.0419894
0.0369167
0.0330455
0.0294086
0.0259359
0.0236911
0.021343
0.0193699
0.0178792
0.0165491
0.0153389
0.0142704
0.0133113
0.0124536
0.0116783
0.0109708
0.0103262
0.00973527
0.00919478
0.119801
0.0961439
0.078838
0.065913
0.0559007
0.0481071
0.0419688
0.0369711
0.0329307
0.0294802
0.0257549
0.0237528
0.0214446
0.0196072
0.0180902
0.0167357
0.01548
0.0143714
0.0133802
0.0124979
0.0117013
0.0109866
0.010339
0.00974686
0.00920732
0.119794
0.0961544
0.0788274
0.0659259
0.0558941
0.0481087
0.0419748
0.0369834
0.0329332
0.0294311
0.025762
0.0238414
0.0213698
0.0196404
0.0181305
0.0167528
0.0154942
0.0143855
0.0133946
0.0125123
0.0117153
0.011
0.0103515
0.00975853
0.00921815
0.119795
0.0961529
0.0788287
0.0659244
0.0558982
0.0481036
0.0419799
0.0369672
0.0329766
0.0293227
0.0259981
0.023886
0.021351
0.0196332
0.0181264
0.0167454
0.0154897
0.0143841
0.013396
0.0125158
0.0117199
0.0110049
0.0103561
0.00976252
0.00922142
0.119805
0.0961357
0.078841
0.0659207
0.0558866
0.0481437
0.0419849
0.036912
0.0331587
0.0289711
0.026127
0.0241037
0.0209144
0.0192817
0.0178519
0.0165264
0.0153443
0.0142851
0.0133363
0.0124806
0.0116988
0.0109898
0.0103388
0.00974659
0.00920328
0.119805
0.0961386
0.078848
0.0659008
0.0559162
0.0481027
0.0420046
0.0368924
0.0329894
0.0296024
0.0257216
0.0237809
0.0213469
0.0194252
0.0179378
0.016595
0.015366
0.0142716
0.0133017
0.0124316
0.0116517
0.0109485
0.0103045
0.00971927
0.00918158
0.11979
0.0960518
0.0786199
0.0656108
0.055468
0.0476245
0.0414453
0.036462
0.0322664
0.0287917
0.0257978
0.0232902
0.0210569
0.0192111
0.017503
0.0161154
0.014761
0.0137099
0.0126023
0.0118106
0.0108717
0.0102904
0.00945368
0.00908884
0.00812096
0.11979
0.0960524
0.0786182
0.065613
0.0554652
0.0476284
0.0414487
0.0364638
0.0322689
0.0287908
0.0257998
0.0232952
0.0210558
0.0192073
0.0174973
0.0161115
0.0147593
0.0137112
0.0126044
0.0118141
0.0108744
0.0102938
0.00945585
0.00909074
0.00812516
0.119789
0.0960539
0.0786184
0.0656125
0.0554669
0.0476255
0.0414493
0.0364631
0.0322673
0.0288003
0.0257911
0.0232888
0.021058
0.0192109
0.017502
0.0161165
0.0147619
0.0137118
0.0126035
0.0118127
0.0108732
0.0102899
0.00946753
0.0090248
0.00821566
0.119789
0.0960538
0.0786167
0.0656148
0.0554643
0.0476283
0.0414506
0.0364619
0.0322701
0.0287989
0.0257897
0.0232925
0.0210603
0.0192099
0.017499
0.0161124
0.0147585
0.0137095
0.0126023
0.0118118
0.0108721
0.0102912
0.00945353
0.00908868
0.00812273
0.119789
0.096053
0.0786181
0.065613
0.0554654
0.0476272
0.0414495
0.0364612
0.0322697
0.0287976
0.0257904
0.0232914
0.021058
0.01921
0.0174994
0.0161159
0.0147613
0.0137123
0.0126021
0.0118125
0.0108707
0.0102921
0.00945328
0.00908859
0.00812758
0.11979
0.0960526
0.0786193
0.0656118
0.0554668
0.0476272
0.0414513
0.0364604
0.0322687
0.0288012
0.0257878
0.0232895
0.021058
0.0192094
0.0174982
0.0161133
0.0147579
0.0137094
0.0126003
0.0118115
0.0108704
0.0102918
0.00945294
0.00908826
0.00812728
0.119789
0.096053
0.0786192
0.0656119
0.0554669
0.0476265
0.0414514
0.0364603
0.0322686
0.0288016
0.0257879
0.0232891
0.0210583
0.0192092
0.0174985
0.0161131
0.0147583
0.0137089
0.0126008
0.011811
0.0108708
0.0102909
0.00945285
0.00908816
0.00812406
0.119788
0.0960545
0.078617
0.0656143
0.0554652
0.0476272
0.0414501
0.0364613
0.0322703
0.0287974
0.0257912
0.0232907
0.0210578
0.0192096
0.0175006
0.0161164
0.0147627
0.0137125
0.0126037
0.0118123
0.0108724
0.0102886
0.00946624
0.00902335
0.00821422
0.119788
0.0960546
0.0786171
0.065614
0.0554653
0.0476268
0.0414498
0.036463
0.0322685
0.0287992
0.0257911
0.0232895
0.0210583
0.019211
0.0175023
0.0161167
0.0147622
0.013712
0.0126037
0.0118126
0.0108733
0.0102898
0.00946768
0.00902431
0.00821629
0.119788
0.096055
0.0786159
0.0656154
0.0554642
0.0476281
0.041451
0.0364618
0.0322719
0.0287955
0.0257913
0.0232929
0.0210581
0.0192095
0.0175006
0.0161147
0.0147607
0.0137107
0.0126027
0.0118116
0.0108724
0.0102888
0.009467
0.00902348
0.00821567
0.119789
0.0960537
0.0786168
0.0656159
0.0554616
0.0476316
0.04145
0.0364628
0.0322717
0.0287955
0.0257899
0.0232959
0.0210594
0.0192088
0.0174977
0.0161118
0.0147575
0.01371
0.0126018
0.0118125
0.0108711
0.0102919
0.00945281
0.00908788
0.00812666
0.119789
0.0960533
0.0786187
0.0656123
0.0554663
0.0476272
0.04145
0.036461
0.032271
0.0287962
0.0257894
0.0232906
0.0210587
0.0192103
0.017501
0.0161144
0.01476
0.0137098
0.0126023
0.0118112
0.0108719
0.0102908
0.00945379
0.009089
0.00812204
0.11979
0.0960528
0.0786178
0.0656148
0.0554629
0.0476304
0.0414498
0.0364619
0.0322707
0.0287967
0.025789
0.0232938
0.0210606
0.01921
0.0174993
0.016112
0.0147588
0.01371
0.0126035
0.0118128
0.0108735
0.0102921
0.00945482
0.00908973
0.00812253
0.11979
0.096053
0.0786174
0.0656154
0.0554619
0.0476314
0.0414508
0.0364616
0.0322721
0.0287952
0.0257896
0.0232929
0.0210582
0.0192096
0.0175
0.0161134
0.0147601
0.0137112
0.0126039
0.0118129
0.0108731
0.0102918
0.00945434
0.00908911
0.00812216
0.11979
0.0960525
0.0786185
0.0656139
0.0554641
0.0476302
0.0414495
0.0364621
0.032272
0.0287936
0.0257882
0.0232956
0.021059
0.0192085
0.017497
0.0161114
0.014757
0.0137105
0.0126026
0.0118142
0.0108726
0.0102934
0.00945388
0.00908877
0.00812758
0.119789
0.0960535
0.0786181
0.0656129
0.0554656
0.0476271
0.0414491
0.0364631
0.0322685
0.0287972
0.0257913
0.0232907
0.0210581
0.0192117
0.0175017
0.0161162
0.0147602
0.0137115
0.0126023
0.0118129
0.010872
0.0102901
0.00946562
0.00902634
0.00821374
0.119788
0.0960548
0.0786168
0.0656143
0.0554652
0.0476268
0.04145
0.0364638
0.0322684
0.0287973
0.0257925
0.0232904
0.0210584
0.019212
0.0175031
0.016116
0.0147613
0.0137111
0.0126035
0.0118125
0.0108738
0.0102897
0.00946837
0.00902357
0.00821759
0.119788
0.0960546
0.0786169
0.0656142
0.0554654
0.0476266
0.04145
0.0364636
0.0322688
0.0287963
0.0257935
0.0232911
0.0210583
0.0192123
0.017503
0.016116
0.0147612
0.0137114
0.0126036
0.0118129
0.0108739
0.01029
0.00946843
0.00902386
0.00821764
0.11979
0.0960521
0.078619
0.0656128
0.0554654
0.0476292
0.0414491
0.0364628
0.0322709
0.0287894
0.0257961
0.0232976
0.0210559
0.0192075
0.0174969
0.0161115
0.0147582
0.013712
0.012604
0.0118148
0.0108734
0.0102912
0.0094658
0.00902737
0.00821338
0.11979
0.0960526
0.0786197
0.0656112
0.0554678
0.0476248
0.0414435
0.0364542
0.0322678
0.0287921
0.0257856
0.0232906
0.0210563
0.019207
0.0174976
0.016111
0.014757
0.0137082
0.0126015
0.0118112
0.0108725
0.0102885
0.00946676
0.00902277
0.00821517
0.119788
0.0960536
0.0786106
0.065608
0.0554496
0.0476154
0.0414291
0.0364431
0.0322429
0.0287728
0.0257652
0.0232671
0.0210329
0.019189
0.0174739
0.0160896
0.0147305
0.0136831
0.0125706
0.0117815
0.0108379
0.0102579
0.00941804
0.00905366
0.00808065
0.119787
0.0960541
0.07861
0.0656087
0.0554488
0.0476163
0.0414313
0.036445
0.032244
0.028774
0.0257657
0.023268
0.0210331
0.0191895
0.0174737
0.01609
0.0147302
0.0136837
0.0125703
0.0117821
0.0108375
0.0102585
0.0094178
0.0090534
0.00808288
0.119787
0.0960542
0.07861
0.0656087
0.0554489
0.0476162
0.0414313
0.0364451
0.0322441
0.0287741
0.0257657
0.023268
0.0210331
0.0191897
0.0174737
0.0160902
0.0147301
0.0136839
0.01257
0.0117822
0.0108376
0.0102562
0.00943021
0.00898751
0.0081752
0.119787
0.0960541
0.07861
0.0656088
0.0554488
0.0476162
0.0414314
0.036445
0.0322442
0.0287741
0.0257656
0.023268
0.0210332
0.0191897
0.0174737
0.0160901
0.01473
0.0136838
0.01257
0.0117823
0.0108371
0.0102587
0.00941731
0.00905301
0.00808499
0.119787
0.0960546
0.0786096
0.0656093
0.0554482
0.0476171
0.0414313
0.0364454
0.032244
0.0287745
0.0257654
0.0232684
0.0210328
0.0191901
0.0174732
0.0160907
0.0147296
0.0136845
0.0125694
0.0117829
0.0108367
0.0102571
0.00942885
0.00899017
0.00817335
0.119787
0.0960543
0.0786099
0.0656089
0.0554486
0.0476166
0.0414314
0.0364451
0.0322441
0.0287742
0.0257656
0.0232681
0.0210331
0.0191896
0.0174737
0.0160901
0.0147302
0.0136836
0.0125702
0.0117819
0.010838
0.0102556
0.00943116
0.00898553
0.0081773
0.119787
0.0960542
0.07861
0.0656088
0.0554488
0.0476164
0.0414314
0.0364451
0.0322441
0.0287742
0.0257656
0.023268
0.0210331
0.0191897
0.0174737
0.0160901
0.0147301
0.0136837
0.0125701
0.0117821
0.0108378
0.0102559
0.0094306
0.00898656
0.00817615
0.119787
0.0960541
0.0786101
0.0656086
0.055449
0.047616
0.0414314
0.0364449
0.0322442
0.028774
0.0257658
0.0232679
0.0210332
0.0191895
0.0174739
0.01609
0.0147304
0.0136836
0.0125703
0.011782
0.0108374
0.0102583
0.00941747
0.00905323
0.00808331
0.119787
0.0960541
0.0786101
0.0656086
0.055449
0.047616
0.0414313
0.036445
0.0322442
0.028774
0.0257658
0.0232679
0.0210332
0.0191896
0.0174738
0.0160901
0.0147303
0.0136837
0.0125702
0.0117821
0.0108374
0.0102585
0.00941755
0.00905325
0.00808387
0.119787
0.0960542
0.07861
0.0656087
0.0554489
0.0476161
0.0414314
0.036445
0.0322442
0.0287741
0.0257657
0.023268
0.0210331
0.0191896
0.0174737
0.0160902
0.0147301
0.0136838
0.01257
0.0117822
0.0108376
0.0102562
0.00943027
0.00898743
0.0081753
0.119787
0.0960546
0.0786095
0.0656094
0.055448
0.0476172
0.0414314
0.0364455
0.0322441
0.0287744
0.0257654
0.0232684
0.0210328
0.0191901
0.0174733
0.0160906
0.0147296
0.0136843
0.0125694
0.0117829
0.0108364
0.0102594
0.00941687
0.00905254
0.00808756
0.119787
0.0960542
0.07861
0.0656087
0.0554488
0.0476163
0.0414314
0.036445
0.0322442
0.0287741
0.0257657
0.023268
0.0210332
0.0191896
0.0174738
0.01609
0.0147303
0.0136835
0.0125703
0.0117818
0.0108376
0.0102581
0.00941785
0.00905344
0.00808147
0.119787
0.0960539
0.0786102
0.0656086
0.0554489
0.0476161
0.0414314
0.0364449
0.0322443
0.028774
0.0257657
0.0232679
0.0210333
0.0191895
0.0174738
0.0160899
0.0147303
0.0136835
0.0125703
0.011782
0.0108375
0.0102583
0.00941776
0.00905332
0.00808268
0.119787
0.096054
0.0786101
0.0656087
0.0554488
0.0476162
0.0414314
0.036445
0.0322443
0.028774
0.0257657
0.0232679
0.0210332
0.0191895
0.0174738
0.01609
0.0147303
0.0136836
0.0125703
0.011782
0.0108375
0.0102583
0.00941775
0.00905331
0.00808267
0.119787
0.0960543
0.0786098
0.065609
0.0554485
0.0476167
0.0414314
0.0364452
0.0322442
0.0287741
0.0257656
0.0232682
0.0210331
0.0191897
0.0174737
0.0160901
0.0147301
0.0136837
0.0125702
0.0117822
0.0108374
0.0102585
0.0094177
0.00905332
0.00808295
0.119787
0.0960544
0.0786098
0.065609
0.0554486
0.0476166
0.0414314
0.0364452
0.0322441
0.0287742
0.0257657
0.0232681
0.0210331
0.0191897
0.0174738
0.0160901
0.0147302
0.0136836
0.0125703
0.0117819
0.010838
0.0102556
0.00943118
0.00898549
0.00817726
0.119787
0.0960544
0.0786097
0.065609
0.0554486
0.0476165
0.0414314
0.0364452
0.0322441
0.0287742
0.0257657
0.023268
0.0210331
0.0191896
0.0174738
0.0160901
0.0147303
0.0136836
0.0125704
0.0117818
0.0108381
0.0102555
0.00943131
0.00898513
0.008178
0.119787
0.0960544
0.0786097
0.065609
0.0554486
0.0476165
0.0414313
0.0364453
0.032244
0.0287743
0.0257656
0.0232682
0.0210329
0.01919
0.0174734
0.0160906
0.0147297
0.0136843
0.0125695
0.0117829
0.0108368
0.0102573
0.00942862
0.00899041
0.00817359
0.119787
0.0960541
0.07861
0.0656087
0.0554488
0.0476164
0.0414313
0.036445
0.032244
0.028774
0.0257656
0.023268
0.021033
0.0191896
0.0174736
0.0160901
0.01473
0.0136838
0.0125701
0.0117824
0.0108373
0.0102587
0.00941736
0.00905317
0.00808468
0.119787
0.0960541
0.0786101
0.0656086
0.0554489
0.0476162
0.041424
0.0364397
0.0322398
0.0287711
0.025763
0.0232664
0.0210315
0.0191888
0.0174726
0.0160898
0.0147293
0.0136838
0.0125695
0.0117826
0.0108368
0.0102592
0.00941724
0.00905294
0.00808633
0.119787
0.0960537
0.0786079
0.0656059
0.0554445
0.0476117
0.041424
0.0364381
0.0322373
0.0287676
0.0257593
0.0232618
0.0210272
0.0191839
0.0174683
0.0160847
0.0147251
0.0136785
0.0125655
0.0117771
0.0108329
0.0102536
0.00941327
0.00904897
0.00807781
0.119787
0.0960544
0.0786073
0.0656067
0.0554436
0.0476128
0.0414261
0.0364402
0.0322383
0.0287689
0.0257597
0.0232629
0.0210272
0.0191847
0.017468
0.0160855
0.0147245
0.0136794
0.0125646
0.0117781
0.0108318
0.0102546
0.00941256
0.00904819
0.00808212
0.119787
0.096054
0.0786077
0.0656062
0.0554442
0.0476121
0.0414262
0.0364399
0.0322385
0.0287687
0.02576
0.0232625
0.0210275
0.0191844
0.0174684
0.016085
0.014725
0.0136788
0.0125652
0.0117774
0.0108326
0.0102539
0.00941293
0.0090487
0.0080795
0.119787
0.0960538
0.0786078
0.065606
0.0554444
0.0476118
0.0414262
0.0364398
0.0322385
0.0287686
0.02576
0.0232625
0.0210276
0.0191843
0.0174684
0.016085
0.0147251
0.0136788
0.0125653
0.0117773
0.0108331
0.0102513
0.00942609
0.00898238
0.00817117
0.119787
0.0960542
0.0786074
0.0656065
0.0554438
0.0476125
0.0414261
0.0364401
0.0322384
0.0287689
0.0257598
0.0232629
0.0210272
0.0191848
0.0174679
0.0160856
0.0147244
0.0136796
0.0125644
0.0117784
0.0108314
0.0102552
0.00941197
0.0090478
0.00808556
0.119787
0.0960544
0.0786072
0.0656068
0.0554436
0.0476129
0.0414262
0.0364402
0.0322383
0.028769
0.0257597
0.0232629
0.0210272
0.0191848
0.017468
0.0160856
0.0147245
0.0136795
0.0125645
0.0117781
0.0108321
0.0102525
0.0094244
0.00898525
0.00816958
0.119787
0.0960542
0.0786074
0.0656065
0.0554438
0.0476125
0.0414262
0.0364401
0.0322384
0.0287689
0.0257598
0.0232628
0.0210273
0.0191847
0.0174681
0.0160854
0.0147246
0.0136793
0.0125647
0.011778
0.0108323
0.0102524
0.00942448
0.00898494
0.00817008
0.119787
0.0960538
0.0786079
0.065606
0.0554445
0.0476118
0.0414262
0.0364397
0.0322385
0.0287685
0.02576
0.0232624
0.0210276
0.0191843
0.0174685
0.0160849
0.0147251
0.0136787
0.0125653
0.0117773
0.0108326
0.0102538
0.00941298
0.00904872
0.0080792
0.119787
0.0960537
0.078608
0.0656058
0.0554446
0.0476116
0.0414262
0.0364396
0.0322386
0.0287684
0.0257601
0.0232623
0.0210277
0.0191841
0.0174686
0.0160848
0.0147253
0.0136785
0.0125656
0.011777
0.010833
0.0102534
0.00941338
0.00904899
0.0080769
0.119787
0.0960539
0.0786078
0.0656061
0.0554444
0.0476119
0.0414262
0.0364398
0.0322385
0.0287686
0.02576
0.0232625
0.0210276
0.0191844
0.0174684
0.0160851
0.014725
0.0136789
0.0125651
0.0117775
0.0108324
0.0102541
0.00941277
0.00904854
0.00808073
0.119787
0.0960544
0.0786073
0.0656067
0.0554436
0.0476128
0.0414262
0.0364402
0.0322383
0.028769
0.0257597
0.0232629
0.0210272
0.0191848
0.0174679
0.0160856
0.0147244
0.0136795
0.0125645
0.0117782
0.0108321
0.0102525
0.00942432
0.00898566
0.00816888
0.119787
0.0960541
0.0786076
0.0656064
0.055444
0.0476123
0.0414262
0.03644
0.0322384
0.0287688
0.0257598
0.0232628
0.0210273
0.0191847
0.017468
0.0160855
0.0147245
0.0136795
0.0125645
0.0117783
0.0108315
0.010255
0.00941218
0.0090479
0.00808456
0.119787
0.0960538
0.0786079
0.065606
0.0554444
0.0476118
0.0414262
0.0364398
0.0322385
0.0287686
0.02576
0.0232625
0.0210276
0.0191843
0.0174684
0.016085
0.014725
0.0136788
0.0125652
0.0117773
0.010833
0.0102514
0.00942603
0.00898246
0.00817109
0.119787
0.0960538
0.0786078
0.065606
0.0554444
0.0476119
0.0414262
0.0364398
0.0322385
0.0287686
0.02576
0.0232625
0.0210276
0.0191844
0.0174684
0.0160851
0.014725
0.0136789
0.0125651
0.0117774
0.0108329
0.0102516
0.00942565
0.00898301
0.00817072
0.119787
0.0960543
0.0786073
0.0656067
0.0554437
0.0476128
0.0414262
0.0364402
0.0322384
0.028769
0.0257597
0.0232629
0.0210272
0.0191848
0.017468
0.0160855
0.0147245
0.0136794
0.0125646
0.0117782
0.0108317
0.0102548
0.00941236
0.00904808
0.0080831
0.119787
0.0960543
0.0786074
0.0656066
0.0554438
0.0476126
0.0414262
0.0364401
0.0322384
0.0287689
0.0257598
0.0232628
0.0210273
0.0191847
0.017468
0.0160855
0.0147246
0.0136794
0.0125646
0.011778
0.0108322
0.0102524
0.0094244
0.00898531
0.00816947
0.119787
0.0960543
0.0786074
0.0656066
0.0554438
0.0476126
0.0414262
0.0364401
0.0322384
0.0287689
0.0257598
0.0232628
0.0210273
0.0191847
0.0174681
0.0160854
0.0147246
0.0136793
0.0125647
0.011778
0.0108323
0.0102523
0.00942453
0.00898485
0.00817018
0.119787
0.0960539
0.0786078
0.0656061
0.0554443
0.047612
0.0414262
0.0364398
0.0322385
0.0287686
0.02576
0.0232625
0.0210275
0.0191844
0.0174683
0.0160851
0.0147249
0.013679
0.012565
0.0117777
0.0108323
0.0102543
0.00941259
0.00904847
0.00808156
0.119787
0.0960541
0.0786076
0.0656063
0.0554441
0.0476123
0.0414261
0.0364399
0.0322383
0.0287687
0.0257597
0.0232627
0.0210272
0.0191847
0.0174679
0.0160855
0.0147244
0.0136795
0.0125644
0.0117783
0.0108319
0.0102529
0.00942382
0.00898683
0.00816771
0.119787
0.0960535
0.0786081
0.0656056
0.0554448
0.0476114
0.0414189
0.0364342
0.0322343
0.0287653
0.0257575
0.0232606
0.0210262
0.0191832
0.0174677
0.0160844
0.0147247
0.0136785
0.0125652
0.0117773
0.0108327
0.0102539
0.00941315
0.00904895
0.00807921
0.119787
0.0960538
0.0786067
0.0656048
0.055442
0.0476099
0.0414213
0.0364355
0.0322342
0.0287648
0.0257561
0.0232591
0.021024
0.0191814
0.0174651
0.0160824
0.0147219
0.0136765
0.0125623
0.0117753
0.0108302
0.0102497
0.00942309
0.00898178
0.00816877
0.119787
0.0960539
0.0786066
0.0656049
0.0554419
0.04761
0.0414234
0.0364371
0.0322354
0.0287658
0.0257567
0.0232597
0.0210243
0.0191818
0.0174651
0.0160827
0.0147218
0.0136769
0.012562
0.0117758
0.0108296
0.0102505
0.00942171
0.00898429
0.00816633
0.119787
0.0960537
0.0786068
0.0656046
0.0554422
0.0476096
0.0414235
0.036437
0.0322355
0.0287656
0.0257569
0.0232595
0.0210246
0.0191815
0.0174655
0.0160823
0.0147223
0.0136763
0.0125626
0.0117751
0.01083
0.0102519
0.0094106
0.00904642
0.00807872
0.119787
0.0960537
0.0786068
0.0656046
0.0554422
0.0476096
0.0414236
0.036437
0.0322356
0.0287656
0.025757
0.0232594
0.0210247
0.0191814
0.0174657
0.0160821
0.0147225
0.013676
0.0125629
0.0117746
0.010831
0.0102486
0.00942449
0.00897886
0.00817089
0.119787
0.0960536
0.0786069
0.0656045
0.0554423
0.0476095
0.0414235
0.0364369
0.0322356
0.0287655
0.025757
0.0232594
0.0210246
0.0191814
0.0174656
0.0160822
0.0147224
0.0136761
0.0125628
0.0117748
0.0108308
0.0102489
0.00942403
0.00897978
0.00816992
0.119787
0.0960541
0.0786064
0.0656052
0.0554415
0.0476104
0.0414235
0.0364374
0.0322354
0.028766
0.0257567
0.0232599
0.0210242
0.0191819
0.0174651
0.0160828
0.0147218
0.0136769
0.012562
0.0117758
0.0108293
0.0102526
0.00940998
0.00904585
0.00808211
0.119787
0.096054
0.0786064
0.0656051
0.0554417
0.0476103
0.0414235
0.0364373
0.0322354
0.0287659
0.0257567
0.0232598
0.0210243
0.0191818
0.0174652
0.0160827
0.0147218
0.0136768
0.0125621
0.0117756
0.0108298
0.0102502
0.00942222
0.00898319
0.00816747
0.119787
0.0960537
0.0786068
0.0656047
0.0554422
0.0476096
0.0414235
0.036437
0.0322355
0.0287656
0.0257569
0.0232595
0.0210245
0.0191815
0.0174655
0.0160823
0.0147223
0.0136763
0.0125626
0.011775
0.0108305
0.0102493
0.00942345
0.0089809
0.00816872
0.119787
0.0960535
0.078607
0.0656045
0.0554424
0.0476094
0.0414235
0.0364369
0.0322356
0.0287655
0.025757
0.0232594
0.0210247
0.0191813
0.0174656
0.0160822
0.0147225
0.0136761
0.0125628
0.0117749
0.0108303
0.0102516
0.00941081
0.00904658
0.00807729
0.119787
0.0960537
0.0786068
0.0656047
0.0554422
0.0476097
0.0414236
0.036437
0.0322356
0.0287656
0.025757
0.0232595
0.0210246
0.0191814
0.0174656
0.0160822
0.0147224
0.0136761
0.0125629
0.0117747
0.0108309
0.0102488
0.00942436
0.00897936
0.00817013
0.119787
0.0960536
0.0786069
0.0656046
0.0554423
0.0476095
0.0414236
0.0364369
0.0322356
0.0287655
0.025757
0.0232594
0.0210247
0.0191813
0.0174657
0.0160821
0.0147226
0.0136759
0.0125631
0.0117745
0.0108312
0.0102485
0.00942463
0.00897837
0.00817159
0.119787
0.0960536
0.0786069
0.0656045
0.0554424
0.0476094
0.0414235
0.0364369
0.0322356
0.0287656
0.025757
0.0232595
0.0210246
0.0191814
0.0174655
0.0160823
0.0147223
0.0136763
0.0125626
0.011775
0.0108305
0.0102493
0.00942349
0.00898084
0.00816881
0.119787
0.0960534
0.078607
0.0656044
0.0554425
0.0476093
0.0414236
0.0364368
0.0322356
0.0287655
0.025757
0.0232594
0.0210247
0.0191813
0.0174657
0.0160821
0.0147225
0.013676
0.0125629
0.0117748
0.0108304
0.0102515
0.00941081
0.00904665
0.00807689
0.119787
0.0960534
0.0786071
0.0656043
0.0554426
0.0476092
0.0414236
0.0364368
0.0322356
0.0287654
0.0257571
0.0232593
0.0210247
0.0191812
0.0174657
0.016082
0.0147226
0.0136759
0.012563
0.0117747
0.0108306
0.0102513
0.00941101
0.00904675
0.00807594
0.119787
0.0960536
0.0786069
0.0656045
0.0554424
0.0476094
0.0414236
0.0364369
0.0322356
0.0287655
0.025757
0.0232594
0.0210247
0.0191813
0.0174657
0.0160821
0.0147225
0.0136761
0.0125629
0.0117748
0.0108304
0.0102514
0.00941099
0.00904668
0.00807633
0.119787
0.0960536
0.0786069
0.0656046
0.0554423
0.0476095
0.0414235
0.036437
0.0322356
0.0287656
0.025757
0.0232595
0.0210246
0.0191814
0.0174655
0.0160823
0.0147223
0.0136763
0.0125626
0.0117751
0.01083
0.0102518
0.00941061
0.00904642
0.00807864
0.119787
0.0960537
0.0786068
0.0656046
0.0554422
0.0476096
0.0414235
0.036437
0.0322355
0.0287656
0.025757
0.0232595
0.0210246
0.0191814
0.0174656
0.0160822
0.0147224
0.0136762
0.0125628
0.0117748
0.0108308
0.010249
0.00942397
0.00897987
0.00816983
0.119787
0.0960537
0.0786068
0.0656046
0.0554422
0.0476096
0.0414235
0.036437
0.0322355
0.0287656
0.0257569
0.0232595
0.0210246
0.0191814
0.0174655
0.0160822
0.0147224
0.0136762
0.0125627
0.0117749
0.0108307
0.010249
0.00942397
0.00897988
0.00816984
0.119787
0.0960539
0.0786066
0.0656049
0.0554419
0.04761
0.0414234