/*--------------------------------*- C++ -*----------------------------------*\
  =========                 |
  \\      /  F ield         | OpenFOAM: The Open Source CFD Toolbox
   \\    /   O peration     | Website:  https://openfoam.org
    \\  /    A nd           | Version:  12
     \\/     M anipulation  |
\*---------------------------------------------------------------------------*/
FoamFile
{
    format      ascii;
    class       volScalarField;
    location    "350";
    object      k;
}
// * * * * * * * * * * * * * * * * * * * * * * * * * * * * * * * * * * * * * //

dimensions      [0 2 -2 0 0 0 0];

internalField   nonuniform List<scalar> 
5000
(
1.44057
1.33509
1.2473
1.17205
1.1081
1.0518
1.00371
0.957984
0.927364
0.868251
0.845759
0.797363
0.777427
0.736028
0.72101
0.689153
0.655069
0.639133
0.61083
0.59766
0.573358
0.562331
0.541305
0.532101
0.520497
1.44049
1.33524
1.2472
1.17218
1.10798
1.05201
1.00366
0.955505
0.917893
0.861065
0.838484
0.79162
0.772763
0.732306
0.716307
0.681356
0.666199
0.635754
0.622197
0.595645
0.583499
0.560352
0.549713
0.529613
0.520274
1.44056
1.33511
1.24731
1.17201
1.10817
1.05173
1.00368
0.958134
0.927084
0.868713
0.847363
0.79958
0.780969
0.739172
0.722506
0.690052
0.655942
0.64001
0.611639
0.598627
0.574378
0.563232
0.54218
0.532786
0.520995
1.44055
1.33514
1.24724
1.17203
1.10826
1.05144
1.00378
0.959658
0.921276
0.883032
0.848076
0.804152
0.759063
0.738988
0.70176
0.685654
0.653685
0.639684
0.611644
0.599379
0.585774
0.561889
0.550115
0.529448
0.51784
1.44058
1.33509
1.24727
1.17209
1.10799
1.05198
1.00358
0.955973
0.917686
0.861536
0.838394
0.791614
0.772261
0.732019
0.714809
0.680145
0.664491
0.64411
0.614506
0.599912
0.575158
0.563319
0.542021
0.532209
0.513575
1.44058
1.33508
1.24734
1.17195
1.1082
1.0518
1.00317
0.959982
0.920898
0.890412
0.838936
0.819802
0.773116
0.752492
0.715535
0.678615
0.661485
0.630999
0.616854
0.590803
0.579072
0.55657
0.546892
0.535956
0.517318
1.44058
1.33508
1.24734
1.17194
1.10823
1.05177
1.00321
0.959939
0.921119
0.889392
0.843739
0.822046
0.779251
0.754919
0.716635
0.679473
0.661969
0.631345
0.61689
0.590835
0.578957
0.556503
0.546778
0.535812
0.517909
1.44055
1.33514
1.24725
1.17213
1.10799
1.05197
1.00376
0.955248
0.91776
0.861282
0.838651
0.79213
0.774253
0.734149
0.717783
0.682862
0.667801
0.644623
0.614726
0.599989
0.57501
0.563278
0.541995
0.532671
0.520795
1.44056
1.33512
1.24729
1.17203
1.10813
1.05175
1.00367
0.958184
0.92689
0.86812
0.845583
0.797133
0.777724
0.736474
0.72096
0.689562
0.655811
0.639501
0.610988
0.597572
0.573127
0.562014
0.54093
0.531825
0.520065
1.44055
1.33513
1.24723
1.17214
1.10796
1.05198
1.00369
0.955557
0.917702
0.861146
0.837922
0.790942
0.772203
0.73173
0.715601
0.680903
0.66421
0.644614
0.614922
0.600062
0.574997
0.563019
0.541545
0.531749
0.513181
1.44055
1.33515
1.2472
1.17212
1.10813
1.05153
1.00396
0.95934
0.919529
0.88288
0.838266
0.789591
0.768911
0.72885
0.711794
0.677474
0.663305
0.633075
0.619535
0.604499
0.578727
0.565859
0.543846
0.532918
0.514709
1.44057
1.3351
1.24731
1.17199
1.10817
1.05181
1.00319
0.959958
0.921006
0.890672
0.837818
0.818194
0.771582
0.751663
0.715333
0.67874
0.661662
0.631316
0.617466
0.591616
0.579933
0.557397
0.547575
0.536308
0.518079
1.44053
1.33518
1.24719
1.17211
1.10815
1.0516
1.00355
0.959912
0.921168
0.883068
0.848132
0.804465
0.7589
0.739002
0.701503
0.685776
0.653785
0.640147
0.612265
0.599717
0.586016
0.561954
0.550211
0.529498
0.517822
1.44055
1.33516
1.24714
1.17232
1.10761
1.05261
1.00234
0.95997
0.924122
0.877805
0.825062
0.803831
0.760431
0.74258
0.705282
0.690532
0.657799
0.642356
0.625451
0.59756
0.583659
0.560086
0.548394
0.528078
0.51633
1.44056
1.33513
1.24727
1.17201
1.10824
1.05163
1.00339
0.959898
0.921644
0.88646
0.84595
0.815496
0.772872
0.730424
0.710674
0.675946
0.660566
0.630766
0.617786
0.591846
0.580622
0.568139
0.545913
0.534878
0.515783
1.44057
1.33511
1.24731
1.172
1.10815
1.05186
1.00312
0.959987
0.920977
0.891027
0.836971
0.818548
0.772064
0.751669
0.71497
0.678162
0.660865
0.630354
0.616504
0.59051
0.579116
0.556718
0.547087
0.53614
0.517563
1.44057
1.33509
1.24733
1.17195
1.10821
1.05179
1.00319
0.959934
0.920981
0.891086
0.836332
0.818537
0.772101
0.751867
0.715306
0.67848
0.660877
0.630322
0.616334
0.590304
0.578765
0.556296
0.546761
0.535945
0.517369
1.44057
1.33509
1.24733
1.17195
1.10823
1.05173
1.00328
0.95983
0.921136
0.890807
0.836074
0.816944
0.770717
0.751238
0.71527
0.678695
0.661187
0.630812
0.616833
0.59091
0.579348
0.55684
0.547207
0.53622
0.517755
1.44055
1.33514
1.24724
1.17204
1.10824
1.05149
1.0037
0.959715
0.921302
0.883425
0.848274
0.804397
0.758968
0.738158
0.70077
0.684561
0.652504
0.638811
0.610919
0.598767
0.585325
0.561503
0.54998
0.529333
0.517768
1.44056
1.33511
1.24731
1.17197
1.10822
1.05178
1.00319
0.959734
0.92276
0.883713
0.85374
0.805546
0.78224
0.742192
0.702385
0.684285
0.651652
0.636873
0.609034
0.596885
0.572902
0.562513
0.551111
0.530259
0.518292
1.41307
1.26579
1.14633
1.04803
0.965321
0.895279
0.83479
0.781863
0.736502
0.691433
0.660518
0.627793
0.581884
0.542973
0.528808
0.512281
0.475551
0.456405
0.439894
0.424576
0.410233
0.396838
0.384214
0.372406
0.361281
1.41304
1.26584
1.14623
1.04823
0.964976
0.895851
0.833876
0.782918
0.734916
0.693478
0.659072
0.627739
0.582346
0.54552
0.533275
0.504578
0.480131
0.461782
0.444777
0.4289
0.414006
0.400028
0.386872
0.374523
0.362984
1.41303
1.26585
1.14629
1.04808
0.965254
0.895458
0.834268
0.783115
0.73336
0.697849
0.653744
0.612127
0.597803
0.553529
0.522325
0.508119
0.484589
0.459492
0.441688
0.425593
0.410829
0.397254
0.384596
0.372851
0.361791
1.41301
1.26591
1.14616
1.04827
0.965086
0.895431
0.834754
0.781856
0.735135
0.696426
0.651954
0.624609
0.599537
0.558819
0.51598
0.500123
0.480451
0.460531
0.443107
0.427087
0.412197
0.39833
0.385344
0.373174
0.361774
1.41305
1.26582
1.14629
1.04809
0.965267
0.895303
0.834783
0.7819
0.735408
0.695702
0.652453
0.618336
0.597784
0.558159
0.516906
0.500289
0.483712
0.461593
0.442652
0.426057
0.410835
0.396879
0.383932
0.371952
0.360753
1.41307
1.26577
1.14635
1.04805
0.965227
0.895583
0.834055
0.783165
0.733649
0.697792
0.651854
0.616504
0.60011
0.557987
0.520377
0.506425
0.487069
0.457062
0.440017
0.424318
0.40979
0.396323
0.383784
0.37206
0.360987
1.41306
1.2658
1.14634
1.04806
0.965232
0.895561
0.83409
0.783143
0.733659
0.697574
0.652956
0.614259
0.599699
0.559405
0.519842
0.505226
0.487453
0.456936
0.439788
0.424023
0.409451
0.395956
0.383405
0.371668
0.360621
1.41299
1.26592
1.14619
1.04819
0.965197
0.895322
0.834842
0.781745
0.735379
0.695898
0.651962
0.616597
0.598073
0.55358
0.51903
0.502838
0.486212
0.462244
0.443009
0.42628
0.410963
0.396938
0.383948
0.371979
0.360788
1.413
1.26591
1.1462
1.04819
0.965139
0.895533
0.834284
0.7829
0.733555
0.697901
0.652602
0.614924
0.598172
0.552191
0.523484
0.510495
0.484634
0.458415
0.440784
0.424852
0.410225
0.396756
0.384182
0.372504
0.361497
1.41297
1.26597
1.14611
1.04831
0.965071
0.895399
0.83489
0.781376
0.73582
0.695522
0.650038
0.62635
0.59479
0.548355
0.523877
0.508051
0.482978
0.460187
0.442362
0.426198
0.411314
0.397569
0.384713
0.372727
0.361454
1.413
1.26591
1.14609
1.04841
0.964795
0.895882
0.834201
0.782115
0.73553
0.69488
0.653959
0.626968
0.596502
0.549603
0.522271
0.504928
0.480582
0.460663
0.443503
0.427731
0.412996
0.399223
0.386214
0.374001
0.362467
1.41303
1.26585
1.14627
1.04815
0.965143
0.895601
0.834219
0.782679
0.734561
0.696877
0.649381
0.625836
0.598369
0.551414
0.521677
0.508571
0.48155
0.455631
0.438919
0.423577
0.409366
0.396146
0.383784
0.372163
0.361179
1.41302
1.26588
1.14615
1.04834
0.964866
0.895853
0.834116
0.782431
0.735038
0.696043
0.651927
0.628454
0.597966
0.554793
0.517166
0.501728
0.47944
0.461203
0.444186
0.428417
0.413632
0.399755
0.386678
0.374369
0.362805
1.41303
1.26587
1.14614
1.04835
0.964878
0.895738
0.834467
0.781562
0.736302
0.694937
0.650322
0.629549
0.594859
0.549313
0.520845
0.502734
0.481629
0.463292
0.446162
0.430103
0.415005
0.400811
0.387434
0.374859
0.363073
1.41305
1.26582
1.14624
1.04823
0.964994
0.895762
0.834138
0.782482
0.735071
0.695891
0.65149
0.628372
0.59642
0.549665
0.522432
0.506291
0.479537
0.458602
0.441667
0.426118
0.411689
0.398166
0.385347
0.373271
0.361828
1.41304
1.26584
1.14628
1.0481
0.965231
0.895425
0.834489
0.782467
0.734487
0.697153
0.649881
0.626029
0.597837
0.551132
0.525235
0.512031
0.481188
0.455161
0.438658
0.423512
0.409473
0.396396
0.384144
0.372602
0.361661
1.413
1.26591
1.14621
1.04818
0.965178
0.895439
0.834488
0.782485
0.734174
0.697722
0.648417
0.630362
0.59324
0.545916
0.530547
0.513273
0.477047
0.455383
0.439169
0.424232
0.41032
0.397305
0.385068
0.373521
0.362526
1.41301
1.2659
1.14622
1.04816
0.965213
0.895362
0.834655
0.782138
0.734896
0.696404
0.649887
0.630951
0.588532
0.54757
0.534409
0.513344
0.476483
0.455981
0.439726
0.424757
0.4108
0.397721
0.385405
0.373775
0.362701
1.41306
1.2658
1.14628
1.04818
0.965036
0.895765
0.834042
0.782671
0.735067
0.694876
0.655469
0.62877
0.590016
0.543833
0.530333
0.508172
0.476178
0.458907
0.442679
0.427425
0.412929
0.399187
0.386155
0.373853
0.362288
1.41306
1.26579
1.14636
1.04802
0.965325
0.895384
0.834395
0.782753
0.734302
0.696911
0.651745
0.626524
0.596474
0.549224
0.527301
0.515413
0.48025
0.455976
0.439277
0.423971
0.409744
0.39654
0.384078
0.372314
0.361163
1.41298
1.26525
1.1447
1.04571
0.961491
0.890922
0.828567
0.775376
0.726894
0.685442
0.646752
0.613871
0.581586
0.555038
0.52822
0.506594
0.482994
0.465122
0.444413
0.430001
0.411319
0.399829
0.382635
0.37286
0.355044
1.41297
1.26526
1.14468
1.04573
0.961463
0.890958
0.828521
0.775405
0.72685
0.68546
0.646715
0.613896
0.581571
0.555042
0.528126
0.506383
0.482978
0.465279
0.444613
0.43023
0.411501
0.400012
0.382737
0.373034
0.355112
1.41297
1.26526
1.14469
1.04572
0.961482
0.890931
0.828551
0.775397
0.726807
0.685591
0.646516
0.613747
0.581861
0.555084
0.528016
0.506537
0.483069
0.465214
0.444456
0.430079
0.411354
0.399978
0.382393
0.374615
0.352886
1.41297
1.26527
1.14467
1.04574
0.961459
0.890942
0.82857
0.77533
0.726887
0.685539
0.646498
0.613862
0.58195
0.555126
0.527942
0.506358
0.482924
0.465178
0.444478
0.430098
0.411362
0.399872
0.382617
0.372925
0.354999
1.41297
1.26526
1.14468
1.04573
0.96147
0.890943
0.828552
0.775362
0.726884
0.685527
0.646511
0.613826
0.581886
0.555142
0.527875
0.506449
0.483076
0.465289
0.444423
0.430051
0.411233
0.39991
0.382285
0.37451
0.352943
1.41297
1.26525
1.14469
1.04572
0.961476
0.890947
0.828531
0.775403
0.726828
0.685572
0.646524
0.613779
0.581894
0.555132
0.52797
0.506567
0.483115
0.465258
0.444429
0.430078
0.411282
0.399936
0.382302
0.374516
0.352922
1.41297
1.26526
1.14469
1.04572
0.96148
0.89094
0.828541
0.775394
0.726831
0.685569
0.646537
0.613748
0.581902
0.555135
0.527978
0.506547
0.483136
0.465243
0.444444
0.430047
0.411295
0.399829
0.382559
0.372911
0.354925
1.41297
1.26527
1.14468
1.04573
0.961468
0.890937
0.828567
0.775339
0.726897
0.685515
0.646507
0.613796
0.581882
0.555068
0.527919
0.506492
0.483155
0.465301
0.444483
0.430041
0.411276
0.399863
0.382274
0.374489
0.352754
1.41296
1.26527
1.14468
1.04573
0.961468
0.890943
0.828545
0.775387
0.726821
0.685573
0.646511
0.613767
0.581865
0.555066
0.52803
0.50658
0.483108
0.465241
0.44448
0.430099
0.411373
0.399995
0.382415
0.374635
0.352864
1.41296
1.26527
1.14467
1.04574
0.961459
0.89094
0.828574
0.775315
0.726919
0.685475
0.646514
0.613906
0.581797
0.55499
0.528022
0.506493
0.483037
0.465222
0.444509
0.430105
0.411386
0.399971
0.382395
0.374601
0.352792
1.41297
1.26526
1.14467
1.04575
0.961435
0.890982
0.82852
0.775363
0.72689
0.685488
0.64654
0.613951
0.581822
0.555008
0.527986
0.506394
0.48291
0.465252
0.444543
0.430224
0.41141
0.400038
0.382365
0.374553
0.352977
1.41297
1.26526
1.14469
1.04572
0.961473
0.890947
0.828538
0.775384
0.726875
0.685493
0.646556
0.613879
0.58185
0.555022
0.527992
0.506504
0.482987
0.465126
0.444396
0.430013
0.411318
0.399847
0.382658
0.37293
0.355078
1.41297
1.26526
1.14468
1.04574
0.961444
0.890974
0.828525
0.775365
0.726889
0.685513
0.646527
0.613921
0.581908
0.555079
0.527981
0.506329
0.482909
0.465199
0.444552
0.430164
0.411446
0.399927
0.382693
0.372947
0.355101
1.41297
1.26526
1.14467
1.04575
0.961437
0.890977
0.82853
0.775336
0.726932
0.685458
0.646543
0.613956
0.581822
0.555028
0.528023
0.506381
0.48298
0.465301
0.444629
0.430241
0.411479
0.399969
0.382685
0.372975
0.355061
1.41297
1.26526
1.14468
1.04574
0.961451
0.890975
0.828513
0.775388
0.726877
0.685491
0.646566
0.61393
0.581809
0.555024
0.527997
0.506424
0.48288
0.465241
0.444526
0.430239
0.411401
0.400038
0.382333
0.374522
0.353004
1.41297
1.26526
1.14468
1.04573
0.961471
0.890946
0.82854
0.775388
0.726845
0.685531
0.646543
0.613876
0.581816
0.555081
0.528042
0.506592
0.482971
0.465184
0.444387
0.430105
0.41131
0.399953
0.382596
0.373134
0.354953
1.41296
1.26527
1.14467
1.04573
0.961468
0.890941
0.82855
0.775375
0.72684
0.685526
0.646538
0.613907
0.581739
0.555054
0.528184
0.5066
0.482994
0.465174
0.44447
0.430132
0.41143
0.400056
0.382467
0.374683
0.352911
1.41297
1.26527
1.14468
1.04573
0.961469
0.890938
0.828555
0.775367
0.726856
0.685495
0.646578
0.613905
0.581674
0.555078
0.528236
0.506614
0.482982
0.4652
0.444484
0.430166
0.411434
0.400076
0.382466
0.374679
0.352965
1.41297
1.26525
1.14469
1.04573
0.961461
0.890965
0.828516
0.775396
0.72687
0.685476
0.646638
0.613924
0.581648
0.555045
0.528149
0.50647
0.482953
0.465345
0.444635
0.430291
0.411449
0.399989
0.382616
0.373101
0.354954
1.41297
1.26525
1.1447
1.04571
0.96149
0.890925
0.828564
0.77539
0.726882
0.685547
0.646598
0.613929
0.581823
0.55505
0.528162
0.506651
0.483057
0.4652
0.444497
0.430106
0.41138
0.399932
0.382338
0.374543
0.35275
1.41296
1.26526
1.14463
1.04569
0.961332
0.890837
0.8283
0.775168
0.726485
0.685174
0.646103
0.613297
0.581091
0.554649
0.527477
0.505965
0.482501
0.464944
0.444223
0.429974
0.411247
0.399838
0.382655
0.37288
0.355116
1.41296
1.26527
1.14463
1.0457
0.961325
0.890845
0.82829
0.77517
0.726469
0.685175
0.646083
0.613298
0.58107
0.554653
0.527449
0.505964
0.482471
0.464955
0.4442
0.429994
0.411222
0.399867
0.382611
0.372953
0.355048
1.41296
1.26527
1.14463
1.04569
0.961326
0.890844
0.828291
0.775169
0.72647
0.685175
0.646079
0.613296
0.581073
0.55465
0.527447
0.505968
0.482472
0.464955
0.444193
0.429992
0.411202
0.399918
0.382306
0.374562
0.352829
1.41296
1.26527
1.14462
1.0457
0.961325
0.890844
0.828293
0.775166
0.726473
0.685174
0.64608
0.613296
0.581077
0.554648
0.52745
0.50596
0.482472
0.464947
0.444198
0.429983
0.411219
0.39985
0.382611
0.372934
0.35504
1.41296
1.26527
1.14462
1.0457
0.96132
0.890852
0.828282
0.775177
0.72646
0.685185
0.646065
0.613311
0.581057
0.554667
0.527424
0.505986
0.48245
0.464981
0.444163
0.430016
0.411171
0.399898
0.382538
0.373073
0.354932
1.41296
1.26527
1.14462
1.0457
0.961324
0.890848
0.828287
0.775172
0.726467
0.685178
0.646076
0.6133
0.58107
0.554651
0.527443
0.505968
0.482471
0.464954
0.444193
0.429987
0.411205
0.399908
0.382307
0.374562
0.352779
1.41296
1.26527
1.14462
1.0457
0.961325
0.890846
0.828289
0.77517
0.726469
0.685177
0.646077
0.613299
0.581071
0.554651
0.527444
0.50597
0.482471
0.464956
0.444191
0.429992
0.411199
0.399914
0.382299
0.374553
0.352819
1.41296
1.26527
1.14463
1.04569
0.961327
0.890842
0.828294
0.775165
0.726476
0.685171
0.646083
0.613293
0.581079
0.554644
0.527452
0.505961
0.482484
0.464948
0.444206
0.429976
0.411223
0.399839
0.382624
0.372912
0.355053
1.41296
1.26527
1.14463
1.04569
0.961328
0.890842
0.828294
0.775166
0.726473
0.685171
0.646084
0.613292
0.581078
0.554645
0.527453
0.505963
0.482481
0.46495
0.444203
0.429984
0.411224
0.399855
0.382621
0.37294
0.355053
1.41296
1.26527
1.14462
1.0457
0.961326
0.890843
0.828293
0.775166
0.726474
0.685171
0.646082
0.613296
0.581075
0.554645
0.527451
0.505961
0.482477
0.464949
0.444201
0.429986
0.411211
0.399912
0.382314
0.374567
0.35279
1.41296
1.26527
1.14462
1.0457
0.961319
0.890853
0.828281
0.775177
0.72646
0.685184
0.646066
0.613312
0.581056
0.554665
0.527428
0.505982
0.482445
0.464976
0.444169
0.430023
0.411174
0.399947
0.382287
0.374539
0.352946
1.41296
1.26527
1.14463
1.0457
0.961325
0.890845
0.82829
0.77517
0.72647
0.685174
0.64608
0.613298
0.581072
0.554648
0.527447
0.505965
0.482471
0.464949
0.444195
0.429982
0.411217
0.39985
0.382616
0.372929
0.355055
1.41296
1.26527
1.14463
1.04569
0.961326
0.890843
0.828293
0.775165
0.726476
0.685171
0.646084
0.613294
0.581079
0.554645
0.527454
0.505956
0.482475
0.464944
0.444205
0.429982
0.411227
0.399848
0.382619
0.37292
0.355067
1.41296
1.26527
1.14463
1.0457
0.961325
0.890845
0.828292
0.775165
0.726475
0.685171
0.646084
0.613296
0.581077
0.554646
0.527454
0.505958
0.482477
0.464947
0.444207
0.429984
0.411227
0.39985
0.38262
0.372921
0.355067
1.41296
1.26527
1.14462
1.0457
0.961322
0.890849
0.828286
0.775173
0.726467
0.685178
0.646075
0.613303
0.581066
0.554654
0.527442
0.505968
0.482461
0.464957
0.444193
0.429999
0.411215
0.399866
0.382602
0.37296
0.355023
1.41296
1.26527
1.14462
1.0457
0.961324
0.890848
0.828287
0.775172
0.726466
0.685178
0.646076
0.6133
0.581067
0.554653
0.527445
0.50597
0.482468
0.464954
0.444191
0.429991
0.411204
0.399914
0.382304
0.374561
0.35281
1.41296
1.26527
1.14462
1.0457
0.961324
0.890847
0.828288
0.775171
0.726466
0.685177
0.646077
0.613299
0.581067
0.554653
0.527447
0.505971
0.482469
0.464956
0.444193
0.429994
0.411207
0.399919
0.382315
0.374569
0.352798
1.41296
1.26527
1.14462
1.0457
0.961323
0.890847
0.828288
0.775172
0.726465
0.685178
0.646076
0.613302
0.581063
0.554658
0.527442
0.505978
0.48246
0.464967
0.444181
0.43001
0.411198
0.39989
0.382575
0.373041
0.354977
1.41296
1.26527
1.14463
1.0457
0.961325
0.890846
0.828289
0.77517
0.726471
0.685175
0.646083
0.613299
0.581071
0.554652
0.527454
0.505965
0.482475
0.464957
0.444211
0.429996
0.411232
0.399857
0.382623
0.372929
0.35507
1.41296
1.26527
1.14463
1.04569
0.961327
0.890844
0.828291
0.775189
0.726484
0.685209
0.646101
0.613341
0.581093
0.554696
0.527472
0.50602
0.48249
0.465008
0.44421
0.430052
0.411216
0.399974
0.38232
0.374573
0.352959
1.41296
1.26527
1.14461
1.04567
0.961289
0.890802
0.828236
0.775116
0.726408
0.685112
0.646011
0.613222
0.580995
0.554568
0.527366
0.505871
0.482386
0.464854
0.444114
0.429888
0.411142
0.399757
0.38255
0.372825
0.355009
1.41296
1.26527
1.14461
1.04568
0.96128
0.890813
0.828223
0.775122
0.726387
0.685119
0.645984
0.613231
0.580962
0.554581
0.527327
0.50589
0.48234
0.464881
0.44406
0.429928
0.411068
0.399861
0.382186
0.374446
0.352928
1.41296
1.26527
1.14461
1.04568
0.961286
0.890806
0.828232
0.775114
0.726398
0.685108
0.645998
0.613217
0.580979
0.554562
0.527348
0.505866
0.482366
0.464851
0.444093
0.429888
0.411118
0.39976
0.382522
0.37286
0.354949
1.41296
1.26527
1.14461
1.04567
0.961288
0.890803
0.828235
0.775111
0.726402
0.685104
0.646002
0.613212
0.580985
0.554557
0.527355
0.50586
0.482374
0.464844
0.444101
0.429881
0.411116
0.39981
0.38222
0.374477
0.352694
1.41296
1.26527
1.14461
1.04568
0.961283
0.89081
0.828227
0.775119
0.726392
0.685114
0.64599
0.613225
0.580969
0.554572
0.527335
0.505879
0.48235
0.464868
0.444072
0.429912
0.411081
0.399843
0.382198
0.374453
0.352848
1.41296
1.26527
1.14461
1.04568
0.96128
0.890813
0.828223
0.775122
0.726387
0.685118
0.645985
0.613229
0.580963
0.554578
0.527329
0.505885
0.482343
0.464875
0.444064
0.429917
0.411083
0.399801
0.38246
0.372974
0.354861
1.41296
1.26527
1.14461
1.04568
0.961282
0.89081
0.828227
0.775119
0.726392
0.685114
0.64599
0.613224
0.58097
0.554571
0.527336
0.505878
0.482352
0.464866
0.444075
0.429907
0.411095
0.399788
0.382477
0.372937
0.354905
1.41296
1.26527
1.14461
1.04567
0.961288
0.890803
0.828235
0.77511
0.726402
0.685104
0.646003
0.613212
0.580985
0.554557
0.527354
0.50586
0.482374
0.464844
0.444101
0.42988
0.411127
0.399753
0.382528
0.372835
0.354986
1.41296
1.26526
1.14461
1.04567
0.961289
0.890801
0.828237
0.775108
0.726405
0.685101
0.646006
0.613209
0.580989
0.554553
0.527359
0.505856
0.48238
0.464839
0.444108
0.429873
0.411136
0.399742
0.382545
0.372805
0.355019
1.41296
1.26527
1.14461
1.04567
0.961287
0.890804
0.828234
0.775112
0.726401
0.685105
0.646001
0.613214
0.580983
0.554559
0.527352
0.505863
0.482371
0.464847
0.444098
0.429884
0.411123
0.399757
0.382524
0.372851
0.354963
1.41296
1.26527
1.14461
1.04568
0.961281
0.890812
0.828224
0.775122
0.726388
0.685117
0.645985
0.613229
0.580963
0.554578
0.527328
0.505887
0.482342
0.464877
0.444062
0.429921
0.411079
0.399808
0.382449
0.372989
0.354851
1.41296
1.26527
1.14461
1.04568
0.961284
0.890808
0.828229
0.775117
0.726394
0.685112
0.645993
0.613222
0.580972
0.554569
0.527339
0.505876
0.482354
0.464864
0.444077
0.429908
0.411086
0.39984
0.382199
0.374455
0.352838
1.41296
1.26527
1.14461
1.04567
0.961288
0.890803
0.828235
0.775111
0.726401
0.685105
0.646002
0.613214
0.580983
0.554559
0.527353
0.505862
0.482371
0.464847
0.444098
0.429886
0.411112
0.399814
0.382219
0.374476
0.352709
1.41296
1.26527
1.14461
1.04567
0.961287
0.890804
0.828234
0.775111
0.726401
0.685105
0.646001
0.613214
0.580983
0.554559
0.527352
0.505862
0.482371
0.464847
0.444097
0.429886
0.411112
0.399814
0.382219
0.374475
0.352711
1.41296
1.26527
1.14461
1.04568
0.961281
0.890812
0.828224
0.775121
0.726388
0.685117
0.645985
0.613229
0.580963
0.554578
0.527329
0.505886
0.482342
0.464877
0.444062
0.429922
0.411071
0.399854
0.38219
0.374447
0.352896
1.41296
1.26527
1.14461
1.04568
0.961282
0.890811
0.828226
0.775119
0.726391
0.685114
0.645989
0.613225
0.580968
0.554573
0.527335
0.505879
0.48235
0.464868
0.444073
0.429909
0.411092
0.39979
0.382475
0.372948
0.354889
1.41296
1.26527
1.14461
1.04568
0.961282
0.890811
0.828226
0.77512
0.72639
0.685115
0.645988
0.613226
0.580967
0.554574
0.527333
0.505882
0.482347
0.464871
0.444069
0.429914
0.411087
0.399798
0.382463
0.372965
0.354876
1.41296
1.26527
1.14461
1.04567
0.961287
0.890804
0.828234
0.775112
0.7264
0.685106
0.646001
0.613214
0.580982
0.554559
0.527352
0.505862
0.482371
0.464846
0.444099
0.429882
0.411125
0.399755
0.382527
0.372839
0.354982
1.41296
1.26527
1.14461
1.04568
0.961285
0.890807
0.82823
0.775116
0.726396
0.685112
0.645995
0.613223
0.580976
0.554571
0.527343
0.505878
0.482359
0.464868
0.444082
0.429911
0.4111
0.399797
0.382476
0.372952
0.354908
1.41296
1.26526
1.14461
1.04567
0.961291
0.890799
0.82824
0.775127
0.726422
0.685132
0.646031
0.613247
0.581017
0.554595
0.527389
0.5059
0.482408
0.464885
0.444136
0.42992
0.411162
0.399791
0.382566
0.372874
0.355004
1.41296
1.26527
1.1446
1.04566
0.961266
0.890785
0.828202
0.775092
0.726364
0.685084
0.64596
0.613192
0.580937
0.554538
0.527302
0.505843
0.482316
0.46483
0.444038
0.429871
0.411058
0.399753
0.382438
0.372901
0.354868
1.41296
1.26527
1.1446
1.04567
0.961266
0.890786
0.828201
0.775086
0.726359
0.685075
0.645953
0.613181
0.58093
0.554526
0.527295
0.50583
0.482309
0.464817
0.444032
0.429858
0.411052
0.39974
0.382434
0.372888
0.354865
1.41296
1.26526
1.1446
1.04566
0.961268
0.890783
0.828205
0.775082
0.726364
0.68507
0.645959
0.613174
0.580937
0.554517
0.527304
0.505819
0.48232
0.464803
0.444046
0.42984
0.411069
0.399716
0.382465
0.372817
0.354908
1.41296
1.26526
1.1446
1.04566
0.961268
0.890782
0.828206
0.775082
0.726365
0.685069
0.64596
0.613173
0.580938
0.554516
0.527305
0.505817
0.482322
0.4648
0.444049
0.429838
0.411064
0.399765
0.382172
0.374429
0.352653
1.41296
1.26526
1.1446
1.04566
0.961269
0.890781
0.828207
0.77508
0.726367
0.685067
0.645963
0.61317
0.580942
0.554511
0.52731
0.505812
0.482329
0.464793
0.444057
0.429829
0.411074
0.399754
0.382183
0.374436
0.352592
1.41296
1.26527
1.1446
1.04567
0.961263
0.89079
0.828196
0.775091
0.726353
0.68508
0.645945
0.613188
0.58092
0.554533
0.527283
0.50584
0.482295
0.464829
0.444015
0.429874
0.411023
0.399805
0.382143
0.3744
0.352845
1.41296
1.26527
1.1446
1.04567
0.961264
0.890789
0.828198
0.775089
0.726355
0.685078
0.645948
0.613185
0.580923
0.55453
0.527287
0.505836
0.4823
0.464823
0.444021
0.429865
0.411039
0.399749
0.382416
0.372915
0.354834
1.41296
1.26526
1.1446
1.04566
0.961268
0.890783
0.828205
0.775082
0.726364
0.68507
0.645959
0.613174
0.580937
0.554517
0.527303
0.505819
0.48232
0.464803
0.444046
0.429841
0.411059
0.399771
0.382166
0.374425
0.352689
1.41296
1.26526
1.1446
1.04566
0.96127
0.89078
0.828208
0.77508
0.726367
0.685067
0.645963
0.613171
0.580941
0.554513
0.527308
0.505815
0.482325
0.464798
0.444052
0.429834
0.411077
0.399707
0.382479
0.372799
0.354921
1.41296
1.26526
1.1446
1.04566
0.961268
0.890783
0.828205
0.775082
0.726364
0.68507
0.645958
0.613175
0.580936
0.554517
0.527303
0.505819
0.48232
0.464803
0.444046
0.429841
0.41106
0.39977
0.382166
0.374426
0.352683
1.41296
1.26526
1.1446
1.04566
0.961269
0.890782
0.828207
0.77508
0.726366
0.685067
0.645962
0.613171
0.58094
0.554513
0.527308
0.505813
0.482327
0.464795
0.444054
0.429831
0.411071
0.399757
0.382178
0.374434
0.352613
1.41296
1.26526
1.1446
1.04566
0.96127
0.890781
0.828207
0.77508
0.726367
0.685067
0.645962
0.613171
0.580941
0.554513
0.527308
0.505814
0.482326
0.464797
0.444052
0.429835
0.411068
0.399761
0.382177
0.374431
0.352634
1.41296
1.26526
1.1446
1.04566
0.961271
0.890779
0.828209
0.775078
0.726369
0.685065
0.645965
0.613169
0.580943
0.554511
0.527311
0.505812
0.482329
0.464795
0.444056
0.42983
0.411082
0.3997
0.382491
0.372783
0.354931
1.41296
1.26526
1.1446
1.04566
0.961271
0.890779
0.82821
0.775077
0.72637
0.685064
0.645966
0.613168
0.580945
0.554509
0.527313
0.50581
0.482331
0.464792
0.444059
0.429827
0.411085
0.399697
0.382494
0.37277
0.354952
1.41296
1.26526
1.1446
1.04566
0.96127
0.890781
0.828207
0.77508
0.726367
0.685067
0.645963
0.613171
0.580941
0.554512
0.527309
0.505813
0.482328
0.464795
0.444055
0.429829
0.411083
0.399698
0.382492
0.372771
0.354951
1.41296
1.26526
1.1446
1.04566
0.961269
0.890781
0.828207
0.77508
0.726366
0.685067
0.645962
0.613172
0.58094
0.554513
0.527308
0.505815
0.482325
0.464797
0.444052
0.429833
0.411077
0.399706
0.382479
0.37279
0.354936
1.41296
1.26526
1.1446
1.04566
0.961268
0.890782
0.828206
0.775082
0.726364
0.685069
0.645959
0.613174
0.580937
0.554516
0.527304
0.505819
0.482321
0.464802
0.444046
0.429841
0.41106
0.39977
0.382167
0.374425
0.352686
1.41296
1.26526
1.1446
1.04566
0.961268
0.890782
0.828206
0.775082
0.726365
0.685069
0.64596
0.613174
0.580938
0.554516
0.527305
0.505818
0.482322
0.464801
0.444048
0.429839
0.411063
0.399767
0.382172
0.374429
0.35266
1.41296
1.26527
1.1446
1.04566
0.961266
0.890786
0.828201
0.775087
0.726359
0.685076
0.645953
0.613184
0.58093
0.554529
0.527294
0.505835
0.482308
0.464824
0.44403
0.429868
0.411039
0.3998
0.382156
0.374411
0.352807
1.41296
1.26526
1.14461
1.04566
0.961275
0.890774
0.828215
0.775093
0.726391
0.685091
0.645995
0.613201
0.580979
0.554546
0.52735
0.505848
0.482369
0.46483
0.444096
0.429866
0.411112
0.399792
0.382216
0.374472
0.352645
1.41296
1.26526
1.1446
1.04565
0.96126
0.890765
0.828191
0.775064
0.726349
0.685049
0.645943
0.613152
0.580921
0.554493
0.527288
0.505794
0.482305
0.464776
0.444032
0.429813
0.411048
0.399741
0.382154
0.374412
0.352619
1.41296
1.26526
1.1446
1.04566
0.961258
0.890767
0.828188
0.77506
0.726342
0.685043
0.645934
0.613144
0.58091
0.554485
0.527276
0.505786
0.482293
0.464769
0.444019
0.429805
0.411045
0.399678
0.382448
0.372771
0.35489
1.41296
1.26526
1.1446
1.04566
0.961257
0.890769
0.828186
0.775062
0.726339
0.685045
0.64593
0.613146
0.580905
0.554487
0.527271
0.505788
0.482287
0.464771
0.444013
0.42981
0.411028
0.399739
0.382135
0.374395
0.352653
1.41296
1.26527
1.1446
1.04566
0.961252
0.890775
0.828179
0.775069
0.72633
0.685054
0.645918
0.613158
0.58089
0.554502
0.527252
0.505807
0.482264
0.464795
0.443985
0.429838
0.411003
0.399723
0.38238
0.372899
0.35478
1.41296
1.26526
1.1446
1.04566
0.961257
0.890769
0.828187
0.775061
0.72634
0.685044
0.64593
0.613146
0.580905
0.554487
0.52727
0.505789
0.482286
0.464773
0.444011
0.429813
0.411025
0.399742
0.382135
0.374393
0.352667
1.41296
1.26526
1.1446
1.04566
0.961258
0.890768
0.828188
0.77506
0.726342
0.685042
0.645933
0.613143
0.580909
0.554483
0.527275
0.505783
0.482293
0.464765
0.44402
0.4298
0.411048
0.399669
0.382459
0.372751
0.354904
1.41296
1.26526
1.1446
1.04566
0.961258
0.890768
0.828187
0.775061
0.726341
0.685043
0.645932
0.613144
0.580908
0.554485
0.527274
0.505785
0.482291
0.464767
0.444018
0.429802
0.411045
0.399674
0.38245
0.372754
0.354912
1.41296
1.26526
1.1446
1.04566
0.961255
0.890772
0.828183
0.775065
0.726335
0.685049
0.645924
0.613153
0.580897
0.554496
0.527259
0.505801
0.482272
0.464789
0.443992
0.429833
0.411002
0.399765
0.382119
0.374374
0.352777
1.41296
1.26526
1.1446
1.04566
0.961258
0.890767
0.828189
0.775059
0.726343
0.685041
0.645934
0.613142
0.58091
0.554482
0.527277
0.505782
0.482295
0.464763
0.444023
0.429797
0.411051
0.399667
0.382461
0.37274
0.354921
1.41296
1.26527
1.1446
1.04566
0.961252
0.890775
0.828179
0.775069
0.726329
0.685054
0.645917
0.613159
0.580889
0.554503
0.527251
0.505809
0.482262
0.464798
0.443982
0.429841
0.410998
0.399729
0.382369
0.372913
0.354771
1.41296
1.26526
1.1446
1.04566
0.961256
0.89077
0.828185
0.775063
0.726338
0.685045
0.645929
0.613147
0.580904
0.554487
0.52727
0.505788
0.482287
0.464771
0.444014
0.429808
0.41103
0.399735
0.38214
0.374398
0.352624
1.41296
1.26527
1.1446
1.04566
0.961254
0.890772
0.828182
0.775066
0.726334
0.68505
0.645923
0.613153
0.580896
0.554496
0.527259
0.5058
0.482272
0.464788
0.443993
0.429831
0.411004
0.399761
0.382124
0.374377
0.35275
1.41296
1.26526
1.1446
1.04566
0.961258
0.890767
0.828189
0.77506
0.726342
0.685042
0.645933
0.613143
0.580909
0.554484
0.527275
0.505784
0.482291
0.464767
0.444018
0.429803
0.411044
0.399676
0.382447
0.372766
0.354894
1.41296
1.26526
1.1446
1.04565
0.96126
0.890765
0.828191
0.775057
0.726345
0.685039
0.645938
0.613139
0.580914
0.554478
0.527281
0.505777
0.4823
0.464759
0.444028
0.429793
0.411055
0.399664
0.382463
0.372731
0.354937
1.41296
1.26526
1.1446
1.04566
0.961255
0.890771
0.828184
0.775064
0.726336
0.685048
0.645926
0.613151
0.5809
0.554493
0.527263
0.505796
0.482277
0.464782