/*--------------------------------*- C++ -*----------------------------------*\
  =========                 |
  \\      /  F ield         | OpenFOAM: The Open Source CFD Toolbox
   \\    /   O peration     | Website:  https://openfoam.org
    \\  /    A nd           | Version:  12
     \\/     M anipulation  |
\*---------------------------------------------------------------------------*/
FoamFile
{
    format      ascii;
    class       volScalarField;
    location    "350";
    object      nut;
}
// * * * * * * * * * * * * * * * * * * * * * * * * * * * * * * * * * * * * * //

dimensions      [0 2 -1 0 0 0 0];

internalField   nonuniform List<scalar> 
5000
(
1.5
1.49999
1.49995
1.5
1.49994
1.4996
1.5
1.49364
1.5
1.41104
1.47251
1.36147
1.41148
1.30996
1.35058
1.33517
1.25411
1.281
1.21014
1.23573
1.1719
1.19615
1.13795
1.13321
1.14181
1.5
1.49992
1.5
1.5
1.4999
1.49943
1.5
1.47017
1.5
1.41417
1.46661
1.35595
1.40556
1.30667
1.35186
1.26723
1.30376
1.22833
1.25975
1.19277
1.21947
1.15925
1.18235
1.12736
1.12636
1.5
1.49996
1.5
1.5
1.49994
1.49977
1.5
1.49416
1.5
1.41187
1.47051
1.35477
1.41157
1.31601
1.35383
1.33627
1.25483
1.28199
1.21038
1.23642
1.17328
1.19712
1.13957
1.13477
1.14314
1.49999
1.5
1.5
1.49984
1.5
1.49992
1.49919
1.5
1.5
1.47714
1.47259
1.44754
1.34221
1.37816
1.28784
1.32371
1.24367
1.27776
1.20654
1.20188
1.22517
1.16566
1.18559
1.13255
1.13931
1.49999
1.5
1.49992
1.5
1.49984
1.49953
1.5
1.47224
1.5
1.41566
1.46676
1.35816
1.40544
1.31094
1.35104
1.26161
1.27868
1.29272
1.21965
1.24073
1.17715
1.1988
1.14147
1.16307
1.11182
1.5
1.49996
1.5
1.5
1.49977
1.5
1.49946
1.5
1.49556
1.49766
1.40322
1.44443
1.35268
1.38913
1.36432
1.27642
1.3049
1.22946
1.25644
1.18857
1.21455
1.15314
1.14815
1.16837
1.12599
1.5
1.49996
1.5
1.5
1.49979
1.5
1.49954
1.5
1.49712
1.49206
1.4196
1.44403
1.37319
1.39685
1.36739
1.27902
1.3063
1.23101
1.25671
1.18917
1.21438
1.15329
1.1476
1.16729
1.12843
1.5
1.5
1.49994
1.5
1.4999
1.4993
1.5
1.46963
1.5
1.41488
1.4664
1.35429
1.40515
1.30805
1.35279
1.26402
1.2902
1.29436
1.22025
1.24154
1.1767
1.19878
1.13974
1.13538
1.14358
1.5
1.49998
1.5
1.5
1.49995
1.49975
1.5
1.49421
1.5
1.41036
1.47208
1.36014
1.41108
1.31142
1.35004
1.33492
1.25614
1.28247
1.21138
1.23653
1.17223
1.19632
1.13752
1.13332
1.14184
1.49999
1.5
1.49993
1.5
1.49991
1.49935
1.5
1.47088
1.5
1.41492
1.46648
1.35529
1.40497
1.30676
1.35066
1.26321
1.27565
1.29307
1.22104
1.24214
1.17771
1.19936
1.14111
1.16254
1.11131
1.49998
1.5
1.49998
1.49992
1.5
1.4995
1.49954
1.5
1.5
1.49265
1.47646
1.36392
1.40521
1.30918
1.3485
1.26103
1.30018
1.22687
1.22305
1.2466
1.18389
1.20387
1.14679
1.16519
1.12341
1.5
1.49997
1.5
1.5
1.49981
1.5
1.49962
1.5
1.4954
1.4995
1.39941
1.44397
1.34892
1.38633
1.36271
1.27577
1.30413
1.2284
1.25591
1.18906
1.21539
1.15442
1.14962
1.16856
1.12897
1.49999
1.5
1.5
1.49987
1.5
1.5
1.49915
1.5
1.5
1.47759
1.47185
1.44893
1.34129
1.37895
1.28612
1.32366
1.24233
1.27733
1.20787
1.20259
1.22612
1.16578
1.18608
1.13257
1.14039
1.49995
1.5
1.4998
1.5
1.49955
1.5
1.5
1.49538
1.5
1.5
1.38715
1.4357
1.33158
1.37646
1.28248
1.32548
1.2469
1.24795
1.27071
1.2036
1.22416
1.16463
1.18375
1.12957
1.13934
1.5
1.49999
1.5
1.49992
1.5
1.5
1.49925
1.5
1.5
1.48914
1.43996
1.44964
1.42061
1.32243
1.35283
1.2668
1.29976
1.22336
1.25502
1.18726
1.18275
1.20533
1.1488
1.1683
1.12314
1.5
1.49997
1.5
1.5
1.49978
1.5
1.49965
1.5
1.49498
1.5
1.39587
1.44359
1.35077
1.38776
1.36352
1.27623
1.30436
1.22763
1.25556
1.18691
1.21393
1.15291
1.14825
1.16852
1.12706
1.5
1.49995
1.5
1.5
1.49978
1.5
1.49958
1.5
1.49483
1.5
1.39289
1.44277
1.35019
1.38776
1.36383
1.27766
1.30481
1.22824
1.25573
1.18732
1.21397
1.15228
1.14759
1.16813
1.12656
1.5
1.49996
1.5
1.5
1.49984
1.5
1.49962
1.5
1.49502
1.5
1.39149
1.44326
1.3469
1.38519
1.36257
1.2773
1.30421
1.22845
1.25564
1.18791
1.21462
1.15314
1.14848
1.16833
1.12743
1.5
1.5
1.5
1.49986
1.5
1.49996
1.4992
1.5
1.5
1.47855
1.47281
1.44882
1.34456
1.379
1.28736
1.32353
1.24154
1.27623
1.20529
1.20072
1.22447
1.16447
1.18542
1.13228
1.13966
1.5
1.49995
1.5
1.5
1.49981
1.5
1.49984
1.49853
1.5
1.47203
1.47628
1.38645
1.41841
1.39165
1.29693
1.32747
1.24676
1.27653
1.20402
1.2329
1.16896
1.16394
1.18639
1.13244
1.14254
1.5
1.49996
1.5
1.49996
1.5
1.49993
1.49561
1.48856
1.47699
1.48767
1.4838
1.5
1.43347
1.35518
1.39066
1.41208
1.31448
1.30415
1.30084
1.29791
1.29422
1.29072
1.28635
1.28187
1.27759
1.49999
1.5
1.49994
1.5
1.49974
1.5
1.49126
1.49289
1.46897
1.49845
1.47177
1.49121
1.4497
1.38147
1.42914
1.38283
1.34922
1.34048
1.3327
1.32462
1.31694
1.3089
1.30126
1.29333
1.28611
1.5
1.49993
1.5
1.49996
1.49989
1.5
1.49297
1.49131
1.47455
1.47689
1.49115
1.41522
1.5
1.40786
1.35809
1.38831
1.36325
1.3204
1.31014
1.30278
1.29652
1.29173
1.28693
1.2827
1.2786
1.49999
1.5
1.5
1.49987
1.5
1.49948
1.49404
1.48749
1.47981
1.47151
1.48245
1.47694
1.5
1.44106
1.33309
1.35407
1.34824
1.33318
1.32405
1.31582
1.30845
1.30115
1.29449
1.28767
1.28155
1.5
1.49997
1.5
1.49994
1.5
1.49986
1.49413
1.48903
1.4795
1.47332
1.46865
1.44603
1.5
1.43665
1.3367
1.35151
1.36173
1.33506
1.318
1.30764
1.29864
1.29155
1.28501
1.27968
1.27441
1.5
1.49995
1.5
1.5
1.4997
1.5
1.49051
1.49341
1.47617
1.46909
1.48379
1.44481
1.5
1.43358
1.35353
1.38498
1.38393
1.31287
1.3071
1.3014
1.29644
1.29138
1.2866
1.28231
1.2776
1.5
1.49994
1.5
1.5
1.49975
1.5
1.4907
1.49306
1.47684
1.46717
1.48787
1.43855
1.5
1.44016
1.35045
1.37816
1.38574
1.31197
1.30573
1.29975
1.29458
1.28938
1.28453
1.28014
1.2756
1.5
1.49995
1.5
1.49983
1.5
1.49965
1.49409
1.48818
1.47904
1.47444
1.46643
1.43801
1.5
1.41247
1.34591
1.36269
1.37334
1.33664
1.31822
1.30739
1.29809
1.29079
1.28407
1.27849
1.27353
1.5
1.49996
1.5
1.49992
1.5
1.5
1.49247
1.49137
1.47294
1.48135
1.48315
1.42592
1.5
1.40076
1.36367
1.40085
1.36337
1.31426
1.30494
1.29851
1.29306
1.28895
1.28469
1.28092
1.27717
1.5
1.49999
1.5
1.49981
1.5
1.49934
1.49328
1.48802
1.47649
1.47917
1.46856
1.4814
1.49495
1.38742
1.37229
1.39365
1.35936
1.32838
1.3172
1.30893
1.30168
1.29581
1.28992
1.28477
1.27917
1.49996
1.5
1.49989
1.5
1.5
1.49958
1.49199
1.48922
1.47761
1.47132
1.49373
1.48832
1.5
1.40296
1.37262
1.38579
1.35376
1.33659
1.32744
1.32019
1.31301
1.3065
1.29948
1.2929
1.28601
1.5
1.49995
1.5
1.5
1.49985
1.5
1.49142
1.49296
1.47289
1.48012
1.47352
1.4826
1.5
1.39848
1.35707
1.39371
1.35051
1.30212
1.29774
1.29385
1.2907
1.28726
1.28384
1.28051
1.27675
1.49997
1.5
1.49989
1.5
1.49997
1.49984
1.49187
1.49047
1.47686
1.47455
1.48199
1.49445
1.5
1.41928
1.33789
1.36217
1.34206
1.33613
1.32916
1.32232
1.31566
1.30846
1.30145
1.29398
1.28707
1.49995
1.5
1.49988
1.5
1.5
1.49947
1.49188
1.48887
1.47877
1.47225
1.46625
1.5
1.5
1.39366
1.35673
1.36575
1.35113
1.3439
1.33692
1.32924
1.3216
1.31336
1.30528
1.29679
1.28898
1.49999
1.5
1.49991
1.5
1.49985
1.5
1.49135
1.49268
1.4716
1.48201
1.47284
1.5
1.5
1.40382
1.3739
1.39401
1.34925
1.32641
1.3189
1.31222
1.30617
1.30056
1.29421
1.28808
1.28146
1.5
1.49995
1.5
1.49996
1.49999
1.5
1.49334
1.49043
1.47438
1.48378
1.47588
1.48497
1.5
1.39424
1.37248
1.40991
1.34618
1.2974
1.29429
1.29163
1.28962
1.28717
1.28456
1.28194
1.27854
1.5
1.49995
1.5
1.49987
1.5
1.5
1.49312
1.49
1.47302
1.48868
1.46883
1.5
1.48219
1.36566
1.39727
1.41531
1.32189
1.29739
1.29591
1.29453
1.29341
1.29151
1.28918
1.28673
1.28315
1.5
1.49995
1.5
1.49986
1.5
1.4999
1.49354
1.48934
1.47397
1.48854
1.4621
1.5
1.46004
1.37446
1.41801
1.41633
1.31915
1.30093
1.29906
1.29737
1.29593
1.29364
1.29087
1.28795
1.28393
1.5
1.5
1.49992
1.5
1.49976
1.5
1.49116
1.4936
1.46656
1.5
1.47998
1.47619
1.49804
1.38048
1.41793
1.40633
1.32994
1.32681
1.32246
1.31743
1.31176
1.30499
1.29806
1.2906
1.28353
1.5
1.49993
1.5
1.49999
1.49986
1.5
1.49173
1.4947
1.47102
1.47662
1.48628
1.48556
1.5
1.39758
1.39506
1.44071
1.35088
1.31116
1.3056
1.30133
1.29681
1.2926
1.28841
1.2836
1.27859
1.5
1.49999
1.5
1.49999
1.5
1.5
1.49081
1.48398
1.47378
1.46865
1.45927
1.45621
1.44569
1.44323
1.4347
1.43324
1.42236
1.42018
1.41048
1.40899
1.40056
1.39816
1.39384
1.37665
1.39701
1.5
1.5
1.5
1.5
1.49998
1.5
1.49052
1.48402
1.47349
1.46877
1.45899
1.45602
1.44569
1.44354
1.43465
1.4324
1.42243
1.421
1.41151
1.41008
1.40145
1.39899
1.39426
1.37765
1.39683
1.5
1.49999
1.5
1.49999
1.5
1.5
1.49061
1.48401
1.47339
1.46885
1.45858
1.4557
1.44699
1.44348
1.43366
1.43283
1.42272
1.42054
1.41062
1.40926
1.4006
1.39928
1.39003
1.39951
1.36417
1.5
1.5
1.5
1.49999
1.5
1.49995
1.49063
1.4838
1.47359
1.46869
1.45858
1.45602
1.44727
1.44378
1.43352
1.43218
1.42219
1.42056
1.41089
1.40949
1.4008
1.39836
1.39373
1.37716
1.39635
1.5
1.5
1.5
1.5
1.5
1.49999
1.49061
1.48395
1.47359
1.46871
1.4586
1.45592
1.44711
1.44386
1.43311
1.43238
1.42282
1.42095
1.41056
1.40909
1.4001
1.3985
1.39134
1.3889
1.3794
1.5
1.49999
1.5
1.5
1.49998
1.5
1.49047
1.48415
1.47341
1.46872
1.4588
1.45582
1.44715
1.44385
1.43373
1.43328
1.42338
1.42106
1.4108
1.40939
1.40048
1.39873
1.39152
1.389
1.37929
1.5
1.49999
1.5
1.5
1.49999
1.5
1.4905
1.48411
1.47343
1.46868
1.45886
1.45569
1.44717
1.44388
1.43375
1.43319
1.42346
1.42101
1.41084
1.40925
1.40051
1.3981
1.3934
1.37714
1.39554
1.5
1.5
1.5
1.49999
1.5
1.49997
1.49064
1.48386
1.47362
1.46867
1.45854
1.45582
1.44711
1.4435
1.43326
1.43258
1.42315
1.421
1.41077
1.40906
1.40018
1.39865
1.38936
1.3988
1.36339
1.5
1.5
1.5
1.49999
1.5
1.5
1.49057
1.48397
1.4734
1.46882
1.45856
1.45576
1.44698
1.44338
1.43372
1.43306
1.42291
1.42069
1.41075
1.40939
1.40073
1.39941
1.39017
1.39973
1.3639
1.5
1.5
1.5
1.49999
1.5
1.49995
1.49063
1.48375
1.47363
1.46859
1.45856
1.45621
1.44666
1.4431
1.43382
1.43274
1.42265
1.4207
1.41104
1.40956
1.40093
1.39938
1.39013
1.39961
1.36344
1.49999
1.5
1.49999
1.5
1.49999
1.49998
1.49048
1.48389
1.47353
1.46865
1.45876
1.45623
1.4467
1.44325
1.43386
1.43243
1.4222
1.42096
1.41137
1.41023
1.40126
1.39943
1.39199
1.38933
1.37982
1.5
1.49999
1.5
1.5
1.49999
1.5
1.49054
1.48405
1.4735
1.46864
1.45886
1.45622
1.44688
1.4432
1.43363
1.43283
1.42242
1.4202
1.41037
1.409
1.40053
1.39824
1.39399
1.37715
1.39709
1.5
1.5
1.49999
1.5
1.49999
1.49999
1.4905
1.48394
1.47357
1.4687
1.45875
1.45622
1.44704
1.44352
1.4337
1.43205
1.42207
1.42064
1.41122
1.4098
1.4012
1.39862
1.39409
1.37716
1.39718
1.49999
1.5
1.49998
1.5
1.49999
1.49997
1.49048
1.48384
1.47368
1.46853
1.45879
1.45645
1.44678
1.4433
1.43387
1.43222
1.42236
1.42114
1.41166
1.41029
1.40147
1.39896
1.3941
1.37747
1.39694
1.5
1.5
1.49999
1.5
1.49998
1.5
1.49047
1.48402
1.47346
1.46876
1.45897
1.45616
1.44666
1.44335
1.43397
1.43264
1.42208
1.42084
1.41116
1.41012
1.40101
1.39921
1.3916
1.38896
1.37988
1.5
1.49999
1.5
1.5
1.5
1.5
1.49058
1.48397
1.47349
1.46874
1.45869
1.4562
1.44675
1.44341
1.43384
1.43316
1.4223
1.42039
1.41032
1.4094
1.40046
1.39908
1.39179
1.38823
1.38052
1.5
1.5
1.5
1.49998
1.5
1.49999
1.49058
1.4839
1.47347
1.46872
1.4586
1.45636
1.44635
1.44325
1.43449
1.43323
1.42234
1.42037
1.41071
1.40963
1.40106
1.39984
1.39045
1.40021
1.36404
1.5
1.5
1.5
1.49998
1.5
1.49999
1.4906
1.48388
1.47352
1.46864
1.45873
1.45631
1.44604
1.44335
1.43478
1.43331
1.42228
1.42049
1.41078
1.4098
1.40106
1.39995
1.39043
1.40013
1.36445
1.5
1.5
1.49999
1.5
1.49998
1.5
1.49049
1.48402
1.47348
1.46891
1.45885
1.456
1.44607
1.44354
1.43481
1.43289
1.42239
1.42132
1.4117
1.41039
1.40123
1.39917
1.39191
1.38782
1.38059
1.5
1.49999
1.5
1.49999
1.5
1.5
1.49086
1.48435
1.47368
1.46907
1.45927
1.45646
1.44691
1.4436
1.43482
1.43397
1.42312
1.42083
1.4111
1.40961
1.40088
1.39914
1.38975
1.39929
1.3632
1.5
1.5
1.5
1.5
1.5
1.5
1.49043
1.48395
1.4732
1.46846
1.45819
1.45493
1.44488
1.44287
1.43305
1.43199
1.4224
1.42187
1.41283
1.4123
1.40444
1.40267
1.39925
1.38216
1.40455
1.5
1.5
1.5
1.5
1.5
1.5
1.49032
1.48388
1.47308
1.4684
1.45807
1.45488
1.44476
1.44285
1.43291
1.43195
1.42225
1.42188
1.41272
1.41236
1.40432
1.40278
1.39897
1.38274
1.40362
1.5
1.5
1.5
1.5
1.5
1.5
1.49032
1.48387
1.47308
1.4684
1.45805
1.45487
1.44477
1.44282
1.4329
1.43194
1.42227
1.42185
1.4127
1.41232
1.40417
1.40345
1.3949
1.40492
1.37048
1.5
1.5
1.5
1.5
1.5
1.5
1.49032
1.48386
1.47309
1.46839
1.45805
1.45487
1.44479
1.44281
1.43291
1.43191
1.42227
1.42181
1.41274
1.41226
1.40435
1.40263
1.39904
1.38265
1.4032
1.5
1.5
1.5
1.5
1.5
1.5
1.49029
1.48389
1.47305
1.46842
1.458
1.45491
1.44472
1.44288
1.43281
1.432
1.42218
1.42195
1.41259
1.41241
1.40407
1.40318
1.39679
1.39335
1.38718
1.5
1.5
1.5
1.5
1.5
1.5
1.4903
1.48388
1.47307
1.46841
1.45804
1.45488
1.44476
1.44283
1.43288
1.43196
1.42226
1.42188
1.41268
1.41234
1.40414
1.40347
1.39477
1.40523
1.36974
1.5
1.5
1.5
1.5
1.5
1.5
1.49031
1.48388
1.47308
1.4684
1.45804
1.45488
1.44477
1.44283
1.43288
1.43196
1.42226
1.42188
1.41268
1.41235
1.40413
1.40346
1.39479
1.405
1.37024
1.5
1.5
1.5
1.5
1.5
1.5
1.49033
1.48386
1.4731
1.46839
1.45806
1.45486
1.4448
1.4428
1.43291
1.43192
1.42231
1.42184
1.41274
1.41226
1.40434
1.40261
1.39911
1.38246
1.40359
1.5
1.5
1.5
1.5
1.5
1.5
1.49033
1.48387
1.4731
1.46839
1.45807
1.45486
1.44479
1.44281
1.43292
1.43193
1.4223
1.42184
1.41274
1.41229
1.40435
1.40269
1.39908
1.38266
1.40349
1.5
1.5
1.5
1.5
1.5
1.5
1.49033
1.48386
1.47309
1.46838
1.45806
1.45486
1.44478
1.4428
1.43292
1.43191
1.42229
1.42182
1.41275
1.4123
1.40423
1.40341
1.39495
1.40497
1.37016
1.5
1.5
1.5
1.5
1.5
1.5
1.49028
1.48389
1.47305
1.46842
1.45801
1.45492
1.44471
1.44287
1.43283
1.43199
1.42216
1.42194
1.41261
1.41245
1.40413
1.40322
1.39674
1.39465
1.38625
1.5
1.5
1.5
1.5
1.5
1.5
1.49031
1.48388
1.47308
1.4684
1.45805
1.45488
1.44476
1.44282
1.43289
1.43195
1.42224
1.42186
1.41267
1.41231
1.40427
1.40271
1.399
1.38255
1.40392
1.5
1.5
1.5
1.5
1.5
1.5
1.49032
1.48386
1.4731
1.46839
1.45807
1.45487
1.44479
1.44281
1.43292
1.4319
1.42227
1.42182
1.41274
1.41229
1.40435
1.40267
1.39904
1.38251
1.40381
1.5
1.5
1.5
1.5
1.5
1.5
1.49032
1.48386
1.4731
1.46839
1.45807
1.45487
1.44479
1.44281
1.43292
1.43191
1.42228
1.42184
1.41275
1.41231
1.40436
1.40269
1.39904
1.38251
1.40381
1.5
1.5
1.5
1.5
1.5
1.5
1.4903
1.48388
1.47307
1.46841
1.45804
1.45489
1.44474
1.44284
1.43287
1.43196
1.42221
1.42189
1.41268
1.41238
1.40428
1.40278
1.39892
1.3828
1.40342
1.5
1.5
1.5
1.5
1.5
1.5
1.4903
1.48388
1.47307
1.46841
1.45804
1.45489
1.44475
1.44284
1.43288
1.43197
1.42223
1.42188
1.41266
1.41237
1.40412
1.40351
1.39474
1.40523
1.36999
1.5
1.5
1.5
1.5
1.5
1.5
1.49031
1.48388
1.47307
1.4684
1.45804
1.45488
1.44474
1.44284
1.43289
1.43198
1.42223
1.42189
1.41266
1.41239
1.40413
1.40355
1.3948
1.40534
1.36977
1.5
1.5
1.5
1.5
1.5
1.5
1.49031
1.48388
1.47307
1.4684
1.45804
1.45488
1.44474
1.44284
1.43289
1.43197
1.42224
1.42188
1.41268
1.41236
1.40424
1.40311
1.3971
1.39308
1.38749
1.5
1.5
1.5
1.5
1.5
1.5
1.49031
1.48388
1.47309
1.4684
1.45807
1.45488
1.44477
1.44284
1.43294
1.43194
1.42229
1.42187
1.4128
1.41234
1.40442
1.40268
1.39912
1.38259
1.40349
1.5
1.5
1.5
1.5
1.5
1.5
1.49058
1.48417
1.47334
1.4687
1.4583
1.45518
1.44499
1.44313
1.43312
1.43227
1.42245
1.42218
1.41286
1.41267
1.40437
1.40344
1.39693
1.39485
1.38656
1.5
1.5
1.5
1.5
1.5
1.5
1.49039
1.48395
1.47314
1.46846
1.4581
1.45491
1.44479
1.44283
1.4329
1.43189
1.42224
1.42179
1.41271
1.41226
1.40437
1.40268
1.3992
1.38247
1.4042
1.5
1.5
1.5
1.5
1.5
1.5
1.49026
1.48389
1.47301
1.46842
1.45796
1.45488
1.44463
1.44283
1.43272
1.43193
1.42203
1.42187
1.41246
1.4124
1.404
1.40327
1.39664
1.39463
1.38704
1.5
1.5
1.5
1.5
1.5
1.5
1.49029
1.48387
1.47305
1.46839
1.45801
1.45483
1.44469
1.44276
1.4328
1.43183
1.42213
1.42174
1.4126
1.41222
1.40425
1.40266
1.39904
1.38276
1.40342
1.5
1.5
1.5
1.5
1.5
1.5
1.4903
1.48387
1.47306
1.46838
1.45802
1.45482
1.44471
1.44274
1.43283
1.4318
1.42217
1.4217
1.41265
1.41219
1.40417
1.40336
1.39488
1.40508
1.37011
1.5
1.5
1.5
1.5
1.5
1.5
1.49028
1.48388
1.47303
1.4684
1.45798
1.45485
1.44466
1.44279
1.43276
1.43186
1.4221
1.42177
1.41257
1.41226
1.40415
1.40307
1.39681
1.39474
1.38582
1.5
1.5
1.5
1.5
1.5
1.5
1.49026
1.48389
1.47301
1.46841
1.45796
1.45487
1.44463
1.44281
1.43273
1.43189
1.42205
1.42182
1.4125
1.41233
1.40406
1.40314
1.39689
1.39338
1.38726
1.5
1.5
1.5
1.5
1.5
1.5
1.49027
1.48388
1.47303
1.4684
1.45798
1.45485
1.44466
1.44279
1.43276
1.43186
1.42209
1.42178
1.41255
1.41228
1.40413
1.40307
1.397
1.39315
1.38752
1.5
1.5
1.5
1.5
1.5
1.5
1.4903
1.48387
1.47306
1.46838
1.45802
1.45482
1.44471
1.44275
1.43282
1.43181
1.42217
1.42171
1.41264
1.41218
1.4043
1.40262
1.39908
1.38257
1.40377
1.5
1.5
1.5
1.5
1.5
1.5
1.49031
1.48386
1.47307
1.46837
1.45804
1.45481
1.44473
1.44274
1.43284
1.4318
1.42218
1.4217
1.41266
1.41217
1.40431
1.4026
1.39914
1.38231
1.40444
1.5
1.5
1.5
1.5
1.5
1.5
1.4903
1.48387
1.47306
1.46838
1.45802
1.45482
1.44471
1.44275
1.43282
1.43181
1.42216
1.42171
1.41264
1.41218
1.40431
1.40261
1.39908
1.38272
1.40333
1.5
1.5
1.5
1.5
1.5
1.5
1.49026
1.48389
1.47301
1.46841
1.45796
1.45487
1.44464
1.44281
1.43273
1.4319
1.42204
1.42183
1.41249
1.41235
1.40405
1.40318
1.39682
1.39343
1.3873
1.5
1.5
1.5
1.5
1.5
1.5
1.49028
1.48388
1.47304
1.46839
1.45799
1.45485
1.44467
1.44278
1.43278
1.43185
1.42211
1.42176
1.41258
1.41225
1.40416
1.40307
1.39679
1.39474
1.38592
1.5
1.5
1.5
1.5
1.5
1.5
1.4903
1.48387
1.47306
1.46838
1.45802
1.45482
1.44471
1.44275
1.43282
1.43181
1.42216
1.42172
1.41263
1.41222
1.40415
1.40338
1.39489
1.40506
1.37024
1.5
1.5
1.5
1.5
1.5
1.5
1.4903
1.48387
1.47306
1.46838
1.45802
1.45482
1.44471
1.44275
1.43282
1.43181
1.42216
1.42171
1.41264
1.41221
1.40417
1.40336
1.39494
1.40497
1.37031
1.5
1.5
1.5
1.5
1.5
1.5
1.49027
1.48389
1.47301
1.46841
1.45796
1.45487
1.44463
1.44282
1.43272
1.4319
1.42204
1.42184
1.41248
1.41236
1.40404
1.4032
1.3967
1.39466
1.38662
1.5
1.5
1.5
1.5
1.5
1.5
1.49027
1.48388
1.47302
1.4684
1.45798
1.45486
1.44465
1.44279
1.43275
1.43187
1.42208
1.42179
1.41254
1.41229
1.40412
1.40307
1.397
1.39317
1.3875
1.5
1.5
1.5
1.5
1.5
1.5
1.49027
1.48388
1.47302
1.46841
1.45797
1.45486
1.44465
1.4428
1.43274
1.43188
1.42206
1.42181
1.41251
1.41232
1.40408
1.40314
1.39689
1.39337
1.38728
1.5
1.5
1.5
1.5
1.5
1.5
1.4903
1.48387
1.47306
1.46838
1.45802
1.45482
1.44471
1.44274
1.43282
1.4318
1.42217
1.4217
1.41266
1.41216
1.40434
1.40257
1.39913
1.38265
1.40333
1.5
1.5
1.5
1.5
1.5
1.5
1.49029
1.48388
1.47305
1.4684
1.45801
1.45485
1.4447
1.44279
1.43281
1.43186
1.42215
1.42177
1.41263
1.41227
1.40422
1.40306
1.39709
1.39297
1.38795
1.5
1.5
1.5
1.5
1.5
1.5
1.49058
1.48415
1.47334
1.46866
1.45829
1.4551
1.44497
1.44302
1.43308
1.43208
1.42241
1.42198
1.41288
1.41245
1.40453
1.40288
1.39933
1.38283
1.40391
1.5
1.5
1.5
1.5
1.5
1.5
1.49036
1.48396
1.47311
1.46848
1.45806
1.45493
1.44473
1.44286
1.43282
1.43194
1.42214
1.42186
1.41258
1.41237
1.40414
1.40319
1.39692
1.39337
1.38745
1.5
1.5
1.5
1.5
1.5
1.5
1.49028
1.48388
1.47303
1.46839
1.45799
1.45484
1.44467
1.44277
1.43277
1.43183
1.42211
1.42174
1.41258
1.41222
1.40418
1.40298
1.39709
1.39289
1.38785
1.5
1.5
1.5
1.5
1.5
1.5
1.49029
1.48387
1.47305
1.46838
1.458
1.45482
1.44469
1.44275
1.43279
1.43181
1.42213
1.42171
1.4126
1.41218
1.40425
1.40263
1.39897
1.3828
1.40324
1.5
1.5
1.5
1.5
1.5
1.5
1.49029
1.48387
1.47305
1.46838
1.458
1.45482
1.44468
1.44275
1.43279
1.43181
1.42212
1.42172
1.41258
1.41223
1.40408
1.40341
1.39477
1.40527
1.36983
1.5
1.5
1.5
1.5
1.5
1.5
1.4903
1.48386
1.47306
1.46837
1.45802
1.45481
1.4447
1.44273
1.43282
1.43178
1.42216
1.42167
1.41264
1.41215
1.40418
1.4033
1.39492
1.40518
1.36952
1.5
1.5
1.5
1.5
1.5
1.5
1.49026
1.48388
1.47301
1.46841
1.45795
1.45486
1.44462
1.4428
1.43271
1.43188
1.42203
1.42181
1.41247
1.41232
1.40403
1.40315
1.39671
1.39465
1.38639
1.5
1.5
1.5
1.5
1.5
1.5
1.49027
1.48388
1.47302
1.4684
1.45796
1.45485
1.44464
1.44279
1.43273
1.43186
1.42205
1.42179
1.4125
1.41229
1.40407
1.4031
1.39689
1.39326
1.38741
1.5
1.5
1.5
1.5
1.5
1.5
1.49029
1.48387
1.47305
1.46838
1.458
1.45482
1.44469
1.44275
1.43279
1.4318
1.42213
1.42171
1.4126
1.4122
1.40412
1.40336
1.39488
1.40492
1.37048
1.5
1.5
1.5
1.5
1.5
1.5
1.4903
1.48386
1.47306
1.46837
1.45801
1.45481
1.4447
1.44274
1.43281
1.4318
1.42214
1.4217
1.41261
1.41217
1.40426
1.40261
1.39904
1.38263
1.40359
1.5
1.5
1.5
1.5
1.5
1.5
1.49029
1.48387
1.47304
1.46838
1.458
1.45483
1.44468
1.44275
1.43278
1.43182
1.42211
1.42173
1.41257
1.41224
1.40407
1.40343
1.39475
1.40517
1.37019
1.5
1.5
1.5
1.5
1.5
1.5
1.4903
1.48386
1.47305
1.46837
1.45801
1.45482
1.44469
1.44274
1.4328
1.4318
1.42214
1.4217
1.4126
1.4122
1.40411
1.40338
1.39479
1.40538
1.36941
1.5
1.5
1.5
1.5
1.5
1.5
1.4903
1.48386
1.47306
1.46837
1.45802
1.45481
1.4447
1.44273
1.43281
1.43178
1.42216
1.42168
1.41263
1.41216
1.40417
1.4033
1.39496
1.40498
1.37004
1.5
1.5
1.5
1.5
1.5
1.5
1.4903
1.48386
1.47306
1.46837
1.45802
1.45481
1.44471
1.44273
1.43281
1.43179
1.42215
1.42169
1.41262
1.41216
1.40428
1.40257
1.39913
1.38251
1.40374
1.5
1.5
1.5
1.5
1.5
1.5
1.49031
1.48386
1.47307
1.46837
1.45803
1.4548
1.44471
1.44272
1.43282
1.43178
1.42216
1.42168
1.41263
1.41215
1.40429
1.40257
1.39912
1.3824
1.40407
1.5
1.5
1.5
1.5
1.5
1.5
1.4903
1.48386
1.47306
1.46837
1.45801
1.45481
1.4447
1.44273
1.43281
1.43179
1.42215
1.42169
1.41263
1.41215
1.40429
1.40257
1.39911
1.38242
1.404
1.5
1.5
1.5
1.5
1.5
1.5
1.4903
1.48386
1.47305
1.46837
1.45801
1.45481
1.4447
1.44273
1.43281
1.43178
1.42215
1.42168
1.41263
1.41214
1.4043
1.40256
1.39907
1.38259
1.40348
1.5
1.5
1.5
1.5
1.5
1.5
1.49029
1.48387
1.47305
1.46838
1.458
1.45482
1.44469
1.44275
1.43279
1.43181
1.42212
1.42172
1.41258
1.41222
1.40409
1.4034
1.39481
1.40509
1.37027
1.5
1.5
1.5
1.5
1.5
1.5
1.49029
1.48387
1.47305
1.46838
1.45801
1.45482
1.44469
1.44275
1.43279
1.43181
1.42213
1.42171
1.4126
1.41221
1.40411
1.40338
1.39485
1.40511
1.37007
1.5
1.5
1.5
1.5
1.5
1.5
1.49028
1.48388
1.47304
1.4684
1.45799
1.45485
1.44468
1.44279
1.43278
1.43186
1.42211
1.42177
1.41258
1.41227
1.40417
1.40308
1.39683
1.39475
1.38584
1.5
1.5
1.5
1.5
1.5
1.5
1.49059
1.48414
1.47335
1.46864
1.4583
1.45508
1.44499
1.44299
1.43309
1.43203
1.42244
1.42192
1.41291
1.4124
1.40443
1.40355
1.39513
1.4054
1.37
1.5
1.5
1.5
1.5
1.5
1.5
1.49038
1.48395
1.47313
1.46845
1.45809
1.45489
1.44477
1.44281
1.43287
1.43187
1.4222
1.42178
1.41266
1.41227
1.40417
1.40345
1.39485
1.40537
1.36978
1.5
1.5
1.5
1.5
1.5
1.5
1.4903
1.48387
1.47305
1.46838
1.45801
1.45482
1.44469
1.44274
1.4328
1.4318
1.42214
1.4217
1.41261
1.41217
1.40427
1.40259
1.39906
1.38266
1.40339
1.5
1.5
1.5
1.5
1.5
1.5
1.49029
1.48387
1.47304
1.46838
1.45799
1.45482
1.44467
1.44275
1.43277
1.43181
1.4221
1.42173
1.41256
1.41223
1.40405
1.40342
1.39474
1.40516
1.37018
1.5
1.5
1.5
1.5
1.5
1.5
1.49026
1.48388
1.473
1.4684
1.45795
1.45486
1.44461
1.4428
1.4327
1.43189
1.422
1.42182
1.41244
1.41234
1.40398
1.40318
1.39675
1.39358
1.38691
1.5
1.5
1.5
1.5
1.5
1.5
1.49029
1.48387
1.47304
1.46838
1.45799
1.45482
1.44467
1.44275
1.43277
1.43181
1.4221
1.42172
1.41256
1.41222
1.40407
1.40338
1.39486
1.40497
1.37041
1.5
1.5
1.5
1.5
1.5
1.5
1.49029
1.48386
1.47305
1.46837
1.458
1.45481
1.44468
1.44274
1.43279
1.4318
1.42212
1.4217
1.41259
1.41217
1.40424
1.40259
1.39908
1.38247
1.40392
1.5
1.5
1.5
1.5
1.5
1.5
1.49029
1.48387
1.47304
1.46837
1.458
1.45482
1.44468
1.44274
1.43278
1.4318
1.42211
1.42171
1.41258
1.41218
1.40423
1.40262
1.39902
1.38249
1.40398
1.5
1.5
1.5
1.5
1.5
1.5
1.49027
1.48387
1.47302
1.46839
1.45797
1.45484
1.44465
1.44277
1.43274
1.43185
1.42206
1.42177
1.41251
1.41227
1.40407
1.4031
1.39672
1.39466
1.38623
1.5
1.5
1.5
1.5
1.5
1.5
1.4903
1.48386
1.47305
1.46837
1.45801
1.45481
1.44469
1.44273
1.4328
1.43178
1.42214
1.42168
1.41261
1.41214
1.40427
1.40256
1.3991
1.3824
1.40399
1.5
1.5
1.5
1.5
1.5
1.5
1.49026
1.48388
1.473
1.4684
1.45795
1.45486
1.44461
1.44281
1.43269
1.43189
1.422
1.42183
1.41243
1.41236
1.40396
1.40321
1.39668
1.39363
1.38695
1.5
1.5
1.5
1.5
1.5
1.5
1.49028
1.48387
1.47303
1.46838
1.45799
1.45482
1.44467
1.44275
1.43277
1.43181
1.4221
1.42172
1.41256
1.41221
1.40408
1.40338
1.39481
1.40517
1.3699
1.5
1.5
1.5
1.5
1.5
1.5
1.49027
1.48388
1.47302
1.46839
1.45797
1.45484
1.44464
1.44278
1.43274
1.43185
1.42206
1.42177
1.41251
1.41227
1.40407
1.40309
1.39676
1.39467
1.38607
1.5
1.5
1.5
1.5
1.5
1.5
1.49029
1.48386
1.47305
1.46837
1.458
1.45481
1.44469
1.44274
1.43279
1.4318
1.42212
1.4217
1.41259
1.41218
1.40423
1.40262
1.399
1.3826
1.40375
1.5
1.5
1.5
1.5
1.5
1.5
1.4903
1.48386
1.47306
1.46836
1.45802
1.45479
1.44471
1.44271
1.43282
1.43176
1.42217
1.42165
1.41266
1.4121
1.40433
1.40251
1.39914
1.38235
1.4039
1.5
1.5
1.5
1.5
1.5
1.5
1.49028
1.48387
1.47303
1.46838
1.45798
1.45483
1.44466
1.44276
1.43275
1.43183
1.42208
1.42174
1.41254
1.41223
1.40412
1.40303
1.39695
1.39303
1.38772
1.5
1.5
1.5
1.5
1.5
1.5
1.49028
1.48387
1.47303
1.46839
1.45798
1.45484
1.44465
1.44277
1.43275
1.43184
1.42207
1.42175
1.41252
1.41225
1.40409
1.40306
1.39691
1.39315
1.38755
1.5
1.5
1.5
1.5
1.5
1.5
1.4903
1.48386
1.47306
1.46836
1.45801
1.4548
1.4447
1.44271
1.43282
1.43176
1.42217
1.42165
1.41265
1.4121
1.40433
1.40249
1.39917
1.38249
1.40338
1.5
1.5
1.5
1.5
1.5
1.5
1.49028
1.48387
1.47303
1.46838
1.45798
1.45483
1.44466
1.44276
1.43276
1.43182
1.42209
1.42173
1.41255
1.41222
1.40413
1.40301
1.397
1.39304
1.38763
1.5
1.5
1.5
1.5
1.5
1.5
1.49027
1.48388
1.47303
1.4684
1.45798
1.45485
1.44466
1.44279
1.43276
1.43186
1.42209
1.42178
1.41255
1.41227
1.40413
1.40307
1.397
1.39312
1.38762
1.5
1.5
1.5
1.5
1.5
1.5
1.49057
1.48415
1.47332
1.46866
1.45826
1.4551
1.44494
1.44302
1.43303
1.43208
1.42236
1.42198
1.41282
1.41246
1.4044
1.40326
1.39705
1.39497
1.38592
1.5
1.5
1.5
1.5
1.5
1.5
1.49037
1.48395
1.47312
1.46846
1.45808
1.4549
1.44475
1.44282
1.43285
1.43188
1.42218
1.42179
1.41263
1.41229
1.40414
1.40347
1.39484
1.40535
1.36987
1.5
1.5
1.5
1.5
1.5
1.5
1.49028
1.48387
1.47304
1.46838
1.45799
1.45483
1.44467
1.44276
1.43277
1.43182
1.42209
1.42174
1.41255
1.41222
1.40419
1.40267
1.39893
1.38283
1.40333
1.5
1.5
1.5
1.5
1.5
1.5
1.49029
1.48386
1.47304
1.46837
1.45799
1.45481
1.44467
1.44274
1.43277
1.4318
1.42211
1.4217
1.41257
1.4122
1.40409
1.40336
1.39483
1.4051
1.37002
1.5
1.5
1.5
1.5
1.5
1.5
1.49027
1.48387
1.47302
1.46839
1.45797
1.45484
1.44464
1.44277
1.43274
1.43183
1.42206
1.42175
1.41252
1.41224
1.4041
1.40303
1.39697
1.3931
1.3875
1.5
1.5
1.5
1.5
1.5
1.5
1.4903
1.48386
1.47305
1.46836
1.45801
1.4548
1.4447
1.44272
1.4328
1.43177
1.42214
1.42167
1.41262
1.41214
1.40428
1.40254
1.39913
1.3824
1.40389
1.5
1.5
1.5
1.5
1.5
1.5
1.4903
1.48386
1.47305
1.46836
1.45801
1.4548
1.44469
1.44272
1.4328
1.43178
1.42213
1.42169
1.4126
1.41216
1.40425
1.4026
1.39901
1.38251
1.4039
1.5
1.5
1.5
1.5
1.5
1.5
1.49029
1.48386
1.47305
1.46837
1.458
1.45481
1.44468
1.44273
1.43278
1.43179
1.42212
1.4217
1.41258
1.41218
1.40422
1.40263
1.39894
1.38275
1.4034
1.5
1.5
1.5
1.5
1.5
1.5
1.49029
1.48386
1.47305
1.46837
1.458
1.45481
1.44469
1.44273
1.43279
1.43179
1.42213
1.42169
1.41259
1.41218
1.40411
1.40334
1.39484
1.40503
1.37016
1.5
1.5
1.5
1.5
1.5
1.5
1.4903
1.48386
1.47305
1.46837
1.45801
1.45481
1.44469
1.44273
1.43279
1.43179
1.42213
1.42169
1.4126
1.41216
1.40424
1.40259
1.39903
1.38261
1.40358
1.5
1.5
1.5
1.5
1.5
1.5
1.49028
1.48387
1.47302
1.46838
1.45797
1.45483
1.44465
1.44276
1.43274
1.43183
1.42207
1.42175
1.41252
1.41226
1.40401
1.40344
1.39475
1.40502
1.37057
1.5
1.5
1.5
1.5
1.5
1.5
1.49026
1.48388
1.47301
1.46839
1.45796
1.45484
1.44463
1.44278
1.43272
1.43185
1.42204
1.42177
1.41249
1.41227
1.40406
1.40307
1.39691
1.39325
1.38728
1.5
1.5
1.5
1.5
1.5
1.5
1.49027
1.48388
1.47302
1.46839
1.45796
1.45484
1.44464
1.44277
1.43273
1.43183
1.42206
1.42174
1.41252
1.41223
1.4041
1.40305
1.39675
1.39469
1.3859
1.5
1.5
1.5
1.5
1.5
1.5
1.49028
1.48387
1.47303
1.46838
1.45798
1.45482
1.44466
1.44275
1.43276
1.43182
1.42208
1.42173
1.41254
1.41223
1.40405
1.4034
1.3948
1.40498
1.37047
1.5
1.5
1.5
1.5
1.5
1.5
1.49026
1.48388
1.47301
1.46839
1.45795
1.45485
1.44462
1.44279
1.43271
1.43186
1.42202
1.42179
1.41246
1.4123
1.40401
1.40313
1.39679
1.39341
1.38719
1.5
1.5
1.5
1.5
1.5
1.5
1.49025
1.48388
1.473
1.4684
1.45794
1.45486
1.4446
1.4428
1.43269
1.43188
1.422
1.42181
1.41244
1.41232
1.40399
1.40315
1.39676
1.39343
1.38717
1.5
1.5
1.5
1.5
1.5
1.5
1.49028
1.48387
1.47303
1.46838
1.45797
1.45483
1.44465
1.44276
1.43275
1.43182
1.42207
1.42174
1.41252
1.41225
1.40402
1.40344
1.3947
1.40529
1.36991
1.5
1.5
1.5
1.5
1.5
1.5
1.49027
1.48387
1.47302
1.46839
1.45797
1.45483
1.44465
1.44276
1.43274
1.43183
1.42207
1.42174
1.41253
1.41223
1.40411
1.40302
1.39697
1.39306
1.38759
1.5
1.5
1.5
1.5
1.5
1.5
1.4903
1.48386
1.47306
1.46836
1.45802
1.4548
1.4447
1.44271
1.43281
1.43176
1.42215
1.42166
1.41263
1.41212
1.4043
1.40253
1.39915
1.38231
1.40406
1.5
1.5
1.5
1.5
1.5
1.5
1.4903
1.48386
1.47306
1.46837
1.45802
1.45481
1.44471
1.44274
1.43282
1.43179
1.42217
1.42169
1.41265
1.41215
1.40432
1.40258
1.39909
1.38261
1.40351
1.5
1.5
1.5
1.5
1.5
1.5
1.49059
1.48414
1.47334
1.46864
1.45829
1.45507
1.44497
1.44299
1.43307
1.43204
1.4224
1.42194
1.41286
1.41242
1.40437
1.40359
1.39508
1.40534
1.37029
1.5
1.5
1.5
1.5
1.5
1.5
1.49036
1.48396
1.47311
1.46848
1.45806
1.45493
1.44474
1.44286
1.43283
1.43193
1.42216
1.42185
1.41262
1.41234
1.4042
1.40313
1.39707
1.39322
1.38757
1.5
1.5
1.5
1.5
1.5
1.5
1.49026
1.48389
1.47301
1.46841
1.45796
1.45487
1.44463
1.44281
1.43272
1.43189
1.42205
1.42182
1.4125
1.41233
1.40406
1.40317
1.3967
1.39467
1.38649
1.5
1.5
1.5
1.5
1.5
1.5
1.49026
1.48388
1.47301
1.4684
1.45797
1.45485
1.44464
1.44279
1.43274
1.43186
1.42207
1.42178
1.41252
1.41228
1.4041
1.40309
1.39678
1.39471
1.38603
1.5
1.5
1.5
1.5
1.5
1.5
1.49027
1.48388
1.47302
1.4684
1.45797
1.45485
1.44464
1.44279
1.43274
1.43187
1.42206
1.42179
1.41251
1.4123
1.40408
1.40311
1.3969
1.39327
1.38741
1.5
1.5
1.5
1.5
1.5
1.5
1.4903
1.48386
1.47306
1.46837
1.45802
1.45481
1.4447
1.44274
1.43281
1.4318
1.42215
1.4217
1.41263
1.41217
1.40429
1.4026
1.39907
1.38256
1.40377
1.5
1.5
1.5
1.5
1.5
1.5
1.49029
1.48387
1.47305
1.46838
1.458
1.45483
1.44468
1.44276
1.43279
1.43182
1.42212
1.42174
1.41258
1.41225
1.40408
1.40345
1.39476
1.40519
1.37021
1.5
1.5
1.5
1.5
1.5
1.5
1.49029
1.48387
1.47304
1.46838
1.458
1.45483
1.44469
1.44275
1.43279
1.43182
1.42212
1.42173
1.41258