/*--------------------------------*- C++ -*----------------------------------*\
  =========                 |
  \\      /  F ield         | OpenFOAM: The Open Source CFD Toolbox
   \\    /   O peration     | Website:  https://openfoam.org
    \\  /    A nd           | Version:  12
     \\/     M anipulation  |
\*---------------------------------------------------------------------------*/
FoamFile
{
    format      ascii;
    class       volScalarField;
    location    "350";
    object      p;
}
// * * * * * * * * * * * * * * * * * * * * * * * * * * * * * * * * * * * * * //

dimensions      [0 2 -2 0 0 0 0];

internalField   nonuniform List<scalar> 
5000
(
0.587753
0.432343
0.343831
0.310518
0.28678
0.262024
0.23933
0.219714
0.202137
0.185763
0.170255
0.155539
0.141446
0.127874
0.114806
0.102113
0.0897057
0.0775113
0.0654733
0.0535775
0.0418041
0.0300391
0.0180749
0.00574503
-0.0112258
0.587511
0.432542
0.343863
0.310457
0.286773
0.262049
0.239351
0.219725
0.20213
0.185766
0.170287
0.155582
0.141509
0.12797
0.114884
0.102151
0.0897248
0.0775263
0.0654769
0.0535674
0.0417811
0.0300127
0.0180718
0.00573609
-0.0111463
0.587482
0.432591
0.343856
0.310428
0.286766
0.26205
0.239333
0.219686
0.20209
0.185718
0.170225
0.155517
0.141462
0.127906
0.114798
0.102107
0.0897377
0.0775669
0.0655345
0.0536304
0.04184
0.030056
0.0180837
0.00574122
-0.0111339
0.587469
0.43259
0.343858
0.310421
0.286758
0.262045
0.239317
0.219635
0.201984
0.185584
0.170138
0.155523
0.141562
0.128063
0.114942
0.102206
0.0898108
0.0776321
0.0655656
0.0536246
0.0418017
0.0299986
0.0180444
0.00572273
-0.0111325
0.587463
0.432588
0.343858
0.310415
0.286749
0.262037
0.239324
0.21967
0.20205
0.185682
0.170221
0.15556
0.14156
0.128027
0.114863
0.1021
0.0897196
0.0775562
0.0655257
0.053621
0.0418216
0.0300262
0.018077
0.00575507
-0.0111424
0.587458
0.432583
0.343853
0.310409
0.286741
0.262031
0.239317
0.219678
0.202096
0.185755
0.170276
0.15554
0.141471
0.12792
0.114791
0.102097
0.0897443
0.0775796
0.0655531
0.053659
0.0418606
0.0300311
0.0180485
0.00571505
-0.0111539
0.587452
0.432577
0.343847
0.310403
0.286734
0.262026
0.239316
0.219683
0.202111
0.185778
0.170295
0.155542
0.141451
0.127882
0.114747
0.102061
0.089725
0.0775737
0.065557
0.0536717
0.0418824
0.0300571
0.0180695
0.00572832
-0.0111486
0.587446
0.432571
0.34384
0.310395
0.286728
0.262019
0.239319
0.219686
0.202099
0.185766
0.170324
0.155642
0.141579
0.127978
0.114787
0.102037
0.0896748
0.0775237
0.0655136
0.0536355
0.0418631
0.0300754
0.0180889
0.00573702
-0.0111459
0.587438
0.432563
0.343832
0.310385
0.286717
0.262006
0.239297
0.219658
0.202066
0.185703
0.170216
0.155525
0.141487
0.127913
0.114788
0.102105
0.089749
0.0775889
0.0655737
0.0536884
0.0419081
0.0301179
0.0181288
0.00577152
-0.0111269
0.58743
0.432554
0.343822
0.310374
0.286704
0.261989
0.239274
0.219611
0.201979
0.185609
0.170174
0.155545
0.141542
0.128009
0.114899
0.102186
0.0898059
0.0776318
0.0656023
0.0537008
0.0419034
0.0301068
0.0181464
0.00580671
-0.0111211
0.587421
0.432544
0.343812
0.310361
0.286688
0.261968
0.239232
0.219538
0.20187
0.185504
0.17012
0.155539
0.141586
0.128108
0.115044
0.102344
0.0899459
0.0777365
0.0656665
0.0537266
0.0418933
0.0300669
0.0180921
0.00576033
-0.0111205
0.587412
0.432535
0.343801
0.310349
0.286672
0.261948
0.23921
0.219531
0.201906
0.185555
0.170126
0.155493
0.141516
0.128048
0.115014
0.102363
0.0900021
0.0778211
0.065765
0.0538214
0.0419673
0.0300923
0.0180774
0.00572739
-0.0111345
0.587403
0.432525
0.34379
0.310337
0.28666
0.261937
0.239199
0.219507
0.20185
0.185477
0.170083
0.155529
0.141625
0.128189
0.115144
0.10245
0.0900564
0.0778625
0.0657658
0.0537787
0.0418972
0.0300319
0.0180362
0.00570535
-0.0111343
0.587394
0.432516
0.34378
0.310327
0.286652
0.26193
0.239212
0.219548
0.201913
0.185567
0.170182
0.155613
0.141673
0.12819
0.115111
0.102388
0.0899613
0.077762
0.0656909
0.0537299
0.0418669
0.0300176
0.0180365
0.00572087
-0.0111293
0.587386
0.432507
0.343771
0.310318
0.286644
0.261929
0.239209
0.21955
0.201936
0.185579
0.170153
0.15556
0.14163
0.128178
0.115135
0.102443
0.0900271
0.077818
0.0657404
0.0537476
0.0418557
0.0299845
0.0179913
0.00567566
-0.0111496
0.587378
0.432499
0.343762
0.310312
0.286639
0.261927
0.239221
0.2196
0.202053
0.185756
0.170328
0.155656
0.141621
0.128107
0.115046
0.10236
0.0899479
0.0777309
0.0656622
0.0537128
0.0418543
0.0299742
0.0179694
0.0056479
-0.0111685
0.587374
0.432491
0.343752
0.310307
0.286638
0.261928
0.239228
0.219621
0.202096
0.185814
0.170383
0.155698
0.14163
0.128096
0.115047
0.102353
0.0899221
0.0776953
0.0656192
0.0536738
0.0418239
0.0299497
0.0179477
0.00563253
-0.011176
0.58738
0.432484
0.343741
0.310305
0.286636
0.261924
0.23922
0.219606
0.202068
0.185771
0.170343
0.15567
0.141612
0.128092
0.115057
0.102365
0.0899339
0.0777101
0.0656324
0.0536831
0.0418292
0.0299551
0.0179541
0.00563909
-0.0111754
0.587403
0.432429
0.343742
0.310328
0.286636
0.26191
0.239201
0.219559
0.201964
0.185629
0.170238
0.155659
0.141694
0.128214
0.115174
0.102458
0.0900169
0.0777893
0.0656739
0.0536794
0.0417935
0.0299286
0.0179434
0.00563697
-0.0111771
0.587643
0.432228
0.343709
0.310387
0.286641
0.261882
0.239182
0.219553
0.201974
0.185659
0.170236
0.155598
0.141637
0.128174
0.115135
0.102459
0.0900478
0.0778186
0.0657239
0.0537398
0.0418235
0.0299316
0.0179302
0.00562748
-0.0112475
0.441234
0.3768
0.328121
0.30606
0.286124
0.264717
0.24462
0.226463
0.209583
0.193458
0.177985
0.163148
0.148902
0.13511
0.12163
0.108688
0.096218
0.0838917
0.0716333
0.0595181
0.0475978
0.0358699
0.0242889
0.0131875
0.00117854
0.441355
0.3769
0.328105
0.305978
0.286083
0.264702
0.244603
0.226421
0.209532
0.19342
0.177963
0.163145
0.1489
0.135117
0.121693
0.108777
0.0963017
0.0839594
0.0716837
0.0595498
0.0476062
0.0358504
0.0242428
0.013167
0.00120129
0.441376
0.376911
0.328084
0.305949
0.286072
0.264699
0.244593
0.226422
0.209542
0.193424
0.177975
0.163156
0.148872
0.135074
0.121646
0.108719
0.096239
0.08392
0.0716734
0.0595582
0.0476296
0.0358871
0.0242899
0.013179
0.00119595
0.441377
0.37692
0.328087
0.305944
0.286064
0.264689
0.244574
0.226385
0.209489
0.193371
0.177909
0.163114
0.148858
0.135086
0.121715
0.108805
0.0963216
0.0839981
0.0717609
0.0596147
0.0476515
0.03587
0.0242254
0.0131145
0.00115999
0.441375
0.37692
0.328085
0.305937
0.286056
0.264683
0.244575
0.226383
0.209498
0.193409
0.177979
0.163171
0.148882
0.135082
0.121713
0.108793
0.0962531
0.0839081
0.0716597
0.0595484
0.047622
0.0358661
0.0242326
0.013135
0.00119063
0.441371
0.376916
0.328081
0.305931
0.28605
0.264679
0.244579
0.226417
0.209556
0.193489
0.178059
0.163234
0.148896
0.135027
0.121636
0.108702
0.0961957
0.0838724
0.071634
0.0595382
0.0476353
0.0359123
0.0242603
0.013134
0.00118386
0.441365
0.37691
0.328075
0.305925
0.286043
0.264674
0.244577
0.22642
0.209564
0.1935
0.178069
0.163235
0.148883
0.135007
0.121616
0.108684
0.0961776
0.0838579
0.071626
0.0595382
0.0476431
0.0359298
0.0242863
0.0131577
0.00119664
0.441359
0.376904
0.328068
0.305917
0.286036
0.264666
0.244567
0.226388
0.209515
0.193435
0.178014
0.163197
0.148894
0.135084
0.121701
0.108771
0.0962266
0.0838875
0.0716429
0.0595424
0.0476306
0.0359015
0.0243019
0.0131783
0.00119194
0.441351
0.376896
0.328059
0.305908
0.286025
0.264654
0.244551
0.226379
0.209501
0.193391
0.177951
0.163136
0.14886
0.135075
0.121662
0.108742
0.0962589
0.0839489
0.0717121
0.059609
0.0476861
0.0359413
0.0243319
0.0131999
0.00120309
0.441343
0.376887
0.32805
0.305897
0.286012
0.264635
0.244521
0.226319
0.209418
0.193317
0.177897
0.163112
0.148874
0.135128
0.121765
0.108859
0.0963572
0.0840355
0.0717796
0.0596567
0.0477114
0.0359341
0.0242857
0.013167
0.00120624
0.441334
0.376878
0.32804
0.305885
0.285997
0.264614
0.244487
0.226281
0.209366
0.19326
0.177861
0.163104
0.148889
0.135156
0.121817
0.108941
0.0964978
0.0841948
0.0718965
0.0597259
0.0477391
0.0359266
0.0242467
0.0131088
0.00116739
0.441325
0.376868
0.328029
0.305873
0.285983
0.264599
0.244478
0.226292
0.209406
0.193332
0.177918
0.163141
0.148898
0.135129
0.121795
0.108916
0.0964712
0.0841642
0.0718943
0.0597393
0.0477659
0.0359752
0.0242786
0.0131304
0.00117958
0.441316
0.376859
0.328019
0.305862
0.285971
0.264587
0.244464
0.226269
0.209373
0.193284
0.177858
0.163109
0.148914
0.135206
0.121895
0.109037
0.0965925
0.0842602
0.0719821
0.0597787
0.0477495
0.0359026
0.0242016
0.0130692
0.00113746
0.441308
0.37685
0.328009
0.305852
0.285962
0.264582
0.24447
0.226281
0.209381
0.193322
0.177927
0.163167
0.148963
0.135245
0.121915
0.109043
0.0965908
0.0842133
0.0719011
0.059718
0.0477056
0.035868
0.0241794
0.0130593
0.00114027
0.4413
0.376842
0.328
0.305844
0.285955
0.26458
0.244476
0.226313
0.209454
0.193402
0.177979
0.16317
0.148942
0.135202
0.121856
0.108968
0.0965076
0.0841674
0.0718863
0.0597437
0.0477282
0.0358861
0.0241908
0.0130633
0.00115434
0.441293
0.376834
0.327992
0.305837
0.285951
0.264581
0.244492
0.22636
0.209538
0.193518
0.178118
0.163306
0.149012
0.135183
0.121794
0.108872
0.0963949
0.0840618
0.0717828
0.0596364
0.0476714
0.0358959
0.024212
0.0130845
0.00116699
0.441285
0.376824
0.327983
0.305833
0.28595
0.264582
0.244499
0.226379
0.209569
0.193557
0.178162
0.163349
0.149052
0.135203
0.12178
0.108846
0.0963717
0.0840338
0.0717491
0.059597
0.0476379
0.035873
0.0241937
0.0130718
0.00116006
0.441276
0.376807
0.327972
0.30583
0.285949
0.264579
0.244495
0.226372
0.209556
0.193538
0.178139
0.163334
0.149055
0.135216
0.121786
0.108849
0.0963738
0.0840386
0.0717607
0.0596104
0.04765
0.0358793
0.0242004
0.0130789
0.00116149
0.441251
0.376791
0.327988
0.305853
0.285952
0.264571
0.244479
0.226338
0.209504
0.193455
0.178048
0.163281
0.149051
0.135285
0.12188
0.108951
0.0964621
0.0841103
0.0718358
0.0596501
0.047646
0.0358196
0.0241408
0.0130352
0.00112257
0.441128
0.376689
0.328003
0.305933
0.285991
0.264583
0.244493
0.22636
0.209534
0.193496
0.178109
0.163319
0.149035
0.135273
0.121881
0.10893
0.0964259
0.0840779
0.0717964
0.0596474
0.047689
0.0358499
0.0241586
0.0130492
0.00110783
0.379769
0.362006
0.332767
0.306539
0.284286
0.263568
0.244165
0.226036
0.20899
0.192743
0.177201
0.162301
0.147948
0.134045
0.120313
0.107288
0.0950734
0.0828389
0.0705675
0.0584818
0.0466528
0.0350943
0.0239146
0.0133874
0.00392443
0.379742
0.361959
0.332746
0.306526
0.284287
0.263578
0.244174
0.226038
0.208991
0.19275
0.177218
0.162326
0.147973
0.134065
0.120338
0.107323
0.0951085
0.0828639
0.0705833
0.0584892
0.0466518
0.0350846
0.0238981
0.0133736
0.00392207
0.379737
0.36195
0.332743
0.306519
0.284286
0.263579
0.244172
0.226036
0.208989
0.192747
0.177215
0.162321
0.147954
0.134048
0.120336
0.107317
0.0950934
0.0828558
0.070585
0.058497
0.046663
0.0350975
0.0239103
0.0133805
0.00392491
0.379734
0.361944
0.332734
0.306511
0.284278
0.263572
0.244164
0.226026
0.20898
0.19274
0.177211
0.162326
0.147964
0.134064
0.120357
0.107338
0.0951166
0.0828768
0.0706048
0.0585099
0.0466677
0.0350926
0.0238945
0.013362
0.00391532
0.37973
0.36194
0.332728
0.306505
0.284271
0.263568
0.244162
0.226026
0.208984
0.192754
0.177232
0.162339
0.147962
0.13404
0.120339
0.107331
0.0950956
0.0828518
0.0705844
0.0585011
0.0466702
0.0351019
0.0239043
0.0133715
0.00392272
0.379726
0.361935
0.332722
0.306498
0.284265
0.263563
0.244162
0.226034
0.209
0.192775
0.17725
0.162349
0.147957
0.134024
0.12032
0.107304
0.0950748
0.0828425
0.0705822
0.0585042
0.0466781
0.0351147
0.0239131
0.0133743
0.00392366
0.37972
0.361929
0.332716
0.306492
0.284258
0.263557
0.244158
0.226033
0.209001
0.192775
0.177248
0.162343
0.147946
0.134011
0.12031
0.107299
0.0950721
0.0828438
0.070588
0.0585145
0.0466919
0.0351315
0.0239317
0.0133902
0.00393154
0.379714
0.361922
0.332708
0.306484
0.28425
0.263549
0.244149
0.226018
0.20898
0.192752
0.177228
0.162329
0.147946
0.134023
0.120329
0.107331
0.0951035
0.0828698
0.0706093
0.0585317
0.0467042
0.0351395
0.0239444
0.0134014
0.00393433
0.379706
0.361915
0.3327
0.306475
0.28424
0.263538
0.244134
0.226
0.208957
0.192719
0.177193
0.162301
0.147934
0.134034
0.12034
0.107343
0.0951361
0.082916
0.0706571
0.0585746
0.0467382
0.0351627
0.0239592
0.0134094
0.00393704
0.379698
0.361906
0.332691
0.306465
0.284228
0.263522
0.244113
0.22597
0.208921
0.192689
0.177176
0.162301
0.147955
0.134071
0.120387
0.107397
0.0951929
0.0829693
0.070701
0.0586064
0.0467569
0.0351671
0.0239505
0.0133994
0.0039353
0.37969
0.361898
0.332681
0.306454
0.284215
0.263505
0.244091
0.225948
0.208899
0.192671
0.177169
0.162312
0.147984
0.134116
0.120438
0.107451
0.0952596
0.0830332
0.0707465
0.0586296
0.046759
0.0351523
0.0239237
0.0133706
0.00392077
0.379682
0.361889
0.332672
0.306443
0.284202
0.263492
0.244079
0.22594
0.2089
0.192682
0.177183
0.162328
0.148001
0.134138
0.120472
0.10748
0.0952784
0.0830471
0.0707592
0.0586372
0.0467607
0.0351502
0.0239162
0.0133628
0.00391745
0.379673
0.36188
0.332662
0.306432
0.284192
0.263481
0.24407
0.225933
0.208897
0.192682
0.177189
0.162346
0.148034
0.134184
0.120517
0.107526
0.0953222
0.0830759
0.0707751
0.058636
0.0467418
0.0351168
0.0238805
0.0133337
0.00390283
0.379665
0.361872
0.332654
0.306424
0.284184
0.263476
0.24407
0.225941
0.20891
0.192709
0.177224
0.162377
0.14806
0.134198
0.120522
0.10753
0.0953211
0.0830617
0.0707528
0.0586157
0.0467239
0.0351008
0.0238684
0.0133274
0.0039022
0.379658
0.361864
0.332646
0.306417
0.284179
0.263475
0.244077
0.225961
0.208947
0.192751
0.177258
0.162397
0.148067
0.134196
0.120511
0.107502
0.0952852
0.0830324
0.0707289
0.0585989
0.0467091
0.0350887
0.0238593
0.0133222
0.00390238
0.379652
0.361858
0.33264
0.306411
0.284175
0.263476
0.244087
0.225986
0.208988
0.192803
0.177312
0.16244
0.148086
0.134188
0.120487
0.107462
0.0952331
0.082982
0.0706818
0.0585563
0.0466812
0.0350796
0.0238595
0.013327
0.00390571
0.379646
0.361853
0.332637
0.306408
0.284173
0.263476
0.244092
0.225999
0.209008
0.192828
0.177338
0.162463
0.148104
0.134195
0.120476
0.107442
0.0952115
0.0829586
0.070657
0.0585307
0.046659
0.0350635
0.0238486
0.0133214
0.00390356
0.379642
0.361852
0.332638
0.306409
0.284173
0.263474
0.24409
0.225997
0.209007
0.192827
0.177338
0.162468
0.148114
0.134206
0.12048
0.10744
0.0952067
0.082952
0.0706522
0.0585274
0.0466564
0.0350602
0.0238464
0.0133212
0.003903
0.379643
0.361856
0.332637
0.30641
0.284169
0.263466
0.24408
0.225985
0.208994
0.19281
0.177327
0.162469
0.14813
0.134237
0.12051
0.107469
0.0952303
0.0829648
0.0706598
0.0585265
0.046646
0.0350387
0.0238245
0.0133044
0.00389299
0.379668
0.361901
0.332657
0.306422
0.284167
0.263454
0.244069
0.225976
0.208988
0.192806
0.177328
0.162471
0.148124
0.134234
0.120518
0.107468
0.0952158
0.0829514
0.0706482
0.058522
0.046649
0.0350387
0.0238219
0.0133019
0.00388743
0.343826
0.33483
0.313951
0.29195
0.273505
0.256615
0.239841
0.223474
0.207826
0.192773
0.178159
0.163915
0.15002
0.136452
0.123178
0.110317
0.0978043
0.0853967
0.0731208
0.0610698
0.0492701
0.0376338
0.0264464
0.0148824
0.0060244
0.34382
0.334845
0.313991
0.29197
0.273502
0.256608
0.239836
0.223468
0.20782
0.192769
0.178159
0.163918
0.150024
0.136457
0.123186
0.110328
0.0978133
0.0854017
0.0731226
0.0610675
0.0492632
0.0376235
0.0264322
0.0148766
0.00601238
0.343818
0.334849
0.313999
0.291967
0.273493
0.256601
0.239831
0.223462
0.207813
0.192762
0.178152
0.16391
0.150012
0.136445
0.123177
0.110321
0.0978078
0.0854007
0.0731255
0.0610733
0.0492705
0.0376309
0.0264381
0.0148814
0.00601414
0.343815
0.334847
0.313999
0.291967
0.273492
0.256599
0.239828
0.223458
0.207809
0.192759
0.17815
0.163909
0.150014
0.13645
0.123188
0.110335
0.097822
0.0854133
0.0731367
0.0610802
0.0492715
0.0376249
0.0264254
0.0148656
0.00600422
0.343812
0.334843
0.313996
0.291964
0.273488
0.256595
0.239824
0.223456
0.207811
0.192764
0.178156
0.163912
0.150011
0.136441
0.123179
0.110327
0.0978133
0.0854063
0.0731323
0.0610803
0.0492758
0.0376317
0.0264323
0.0148723
0.00600952
0.343807
0.334839
0.313991
0.29196
0.273483
0.25659
0.239822
0.223456
0.207813
0.192767
0.178158
0.16391
0.150003
0.13643
0.123169
0.110319
0.0978097
0.0854079
0.0731376
0.0610888
0.0492869
0.0376441
0.0264426
0.0148789
0.00601132
0.343802
0.334833
0.313985
0.291954
0.273477
0.256585
0.239817
0.223453
0.20781
0.192764
0.178154
0.163906
0.149998
0.136427
0.123168
0.110321
0.0978149
0.0854161
0.0731479
0.0611011
0.0493004
0.0376582
0.026456
0.0148895
0.00601631
0.343795
0.334827
0.313979
0.291947
0.27347
0.256577
0.239809
0.223444
0.2078
0.192755
0.178148
0.163906
0.150007
0.136443
0.123188
0.110343
0.0978366
0.0854359
0.0731646
0.0611138
0.049309
0.0376632
0.0264599
0.0148909
0.0060162
0.343788
0.334819
0.313971
0.291938
0.273461
0.256567
0.239797
0.223429
0.207783
0.192737
0.178132
0.163896
0.150007
0.136454
0.123205
0.110367
0.097867
0.0854688
0.0731955
0.061139
0.0493264
0.0376727
0.0264631
0.0148901
0.00601499
0.343781
0.334812
0.313962
0.291929
0.27345
0.256554
0.239782
0.223412
0.207766
0.192723
0.178126
0.163901
0.150025
0.136483
0.123242
0.110407
0.0979067
0.0855038
0.0732228
0.0611566
0.0493333
0.0376694
0.0264526
0.014878
0.00601024
0.343773
0.334803
0.313953
0.291919
0.273438
0.256541
0.239767
0.223397
0.207752
0.192713
0.178124
0.163909
0.150044
0.136513
0.123279
0.110448
0.0979479
0.0855392
0.0732487
0.0611696
0.0493332
0.0376581
0.0264338
0.0148579
0.00599927
0.343765
0.334795
0.313944
0.291909
0.273428
0.25653
0.239757
0.223389
0.207748
0.192715
0.178131
0.16392
0.150058
0.13653
0.123298
0.110466
0.0979642
0.0855528
0.0732587
0.0611753
0.0493345
0.0376558
0.0264296
0.0148555
0.00599888
0.343757
0.334787
0.313936
0.2919
0.273419
0.256522
0.239751
0.223386
0.207751
0.192723
0.178144
0.16394
0.150085
0.136561
0.123329
0.110494
0.0979865
0.0855653
0.0732623
0.0611685
0.0493178
0.037632
0.0264042
0.0148337
0.00598809
0.34375
0.334779
0.313928
0.291892
0.273412
0.256517
0.23975
0.223392
0.207763
0.192743
0.178168
0.163964
0.150105
0.136576
0.123337
0.110496
0.097981
0.0855529
0.0732455
0.0611513
0.0493017
0.0376182
0.0263946
0.0148294
0.00598819
0.343743
0.334772
0.313921
0.291885
0.273406
0.256515
0.239754
0.223403
0.207783
0.192766
0.178189
0.163978
0.15011
0.136572
0.123327
0.11048
0.0979629
0.0855357
0.0732301
0.0611389
0.0492923
0.0376124
0.0263924
0.0148311
0.00598909
0.343737
0.334766
0.313915
0.291879
0.273402
0.256515
0.239759
0.223417
0.207805
0.192795
0.178218
0.163999
0.15012
0.136568
0.123311
0.110455
0.0979339
0.0855082
0.0732048
0.0611181
0.0492795
0.0376093
0.0263964
0.0148398
0.00599466
0.343732
0.334761
0.313909
0.291874
0.273399
0.256515
0.239764
0.223427
0.20782
0.192813
0.178237
0.164016
0.150132
0.136573
0.123307
0.110444
0.09792
0.0854922
0.0731877
0.061101
0.0492648
0.0375987
0.0263902
0.0148375
0.00599419
0.343729
0.334757
0.313902
0.291867
0.273394
0.256512
0.239762
0.223428
0.207824
0.192819
0.178244
0.164024
0.15014
0.136579
0.123309
0.110442
0.0979142
0.0854842
0.0731799
0.061094
0.049259
0.0375942
0.026388
0.0148376
0.00599476
0.343726
0.334749
0.313891
0.291866
0.273399
0.256514
0.239762
0.223428
0.207825
0.192819
0.178246
0.16403
0.150151
0.136594
0.123323
0.110454
0.0979204
0.0854839
0.0731759
0.061086
0.049247
0.0375784
0.0263726
0.0148239
0.00598955
0.343731
0.334732
0.313849
0.291845
0.273401
0.256519
0.239766
0.223433
0.207832
0.192827
0.178254
0.164037
0.150155
0.136598
0.123328
0.110456
0.0979175
0.0854799
0.0731725
0.0610854
0.0492492
0.03758
0.0263753
0.0148196
0.0059958
0.319264
0.313954
0.300854
0.285038
0.269894
0.254953
0.239379
0.223794
0.208629
0.193846
0.179331
0.165077
0.151118
0.137464
0.124101
0.111038
0.0982795
0.0857655
0.0734545
0.0613378
0.0494462
0.0376896
0.0263789
0.014627
0.00605081
0.319263
0.31395
0.300853
0.285027
0.269877
0.254943
0.239377
0.223794
0.20863
0.193848
0.179336
0.165083
0.151124
0.13747
0.124108
0.111046
0.098286
0.0857705
0.0734578
0.0613395
0.0494458
0.0376881
0.0263744
0.0146293
0.00604021
0.319261
0.313948
0.300851
0.285021
0.269868
0.25494
0.239377
0.223793
0.208628
0.193847
0.179334
0.16508
0.15112
0.137466
0.124106
0.111045
0.0982857
0.0857715
0.0734602
0.0613425
0.0494488
0.0376905
0.0263758
0.014631
0.00603959
0.319258
0.313945
0.300848
0.285017
0.269863
0.254933
0.239372
0.223789
0.208625
0.193845
0.179333
0.16508
0.151121
0.137469
0.124112
0.111052
0.0982939
0.0857789
0.0734662
0.0613461
0.0494492
0.0376877
0.0263702
0.014625
0.0060358
0.319255
0.313942
0.300844
0.285012
0.269858
0.254928
0.239368
0.223787
0.208625
0.193846
0.179335
0.165081
0.15112
0.137468
0.124111
0.111054
0.0982958
0.0857814
0.0734695
0.0613505
0.0494542
0.0376925
0.0263739
0.0146276
0.00603729
0.31925
0.313937
0.300839
0.285007
0.269852
0.254923
0.239363
0.223784
0.208623
0.193845
0.179334
0.165079
0.151118
0.137466
0.124112
0.111056
0.0983006
0.0857883
0.073478
0.0613599
0.0494638
0.0377011
0.0263804
0.0146311
0.00603826
0.319245
0.313932
0.300834
0.285001
0.269846
0.254917
0.239358
0.22378
0.208619
0.193842
0.179331
0.165078
0.151118
0.137468
0.124116
0.111063
0.09831
0.0857995
0.0734901
0.0613722
0.0494753
0.0377111
0.0263881
0.0146359
0.00603996
0.319239
0.313925
0.300827
0.284994
0.269839
0.254909
0.239351
0.223772
0.208612
0.193836
0.179328
0.165079
0.151124
0.137478
0.124129
0.111079
0.0983265
0.0858156
0.0735044
0.0613837
0.0494834
0.0377158
0.0263902
0.0146356
0.00603934
0.319232
0.313918
0.30082
0.284987
0.269831
0.254901
0.239341
0.223762
0.208602
0.193827
0.179322
0.165078
0.151129
0.13749
0.124145
0.111098
0.0983471
0.0858359
0.073522
0.0613967
0.049491
0.0377182
0.0263887
0.0146321
0.00603701
0.319225
0.313911
0.300812
0.284978
0.269822
0.25489
0.23933
0.223751
0.208592
0.19382
0.17932
0.165083
0.151142
0.13751
0.124169
0.111123
0.0983719
0.0858572
0.0735376
0.0614055
0.0494928
0.0377142
0.0263814
0.0146248
0.00603403
0.319217
0.313903
0.300804
0.284969
0.269812
0.25488
0.23932
0.223742
0.208585
0.193816
0.179322
0.165091
0.151157
0.137531
0.124193
0.111148
0.0983956
0.0858766
0.0735503
0.06141
0.0494896
0.0377048
0.026369
0.0146135
0.00602883
0.31921
0.313896
0.300796
0.284961
0.269803
0.254871
0.239312
0.223736
0.208582
0.193818
0.179328
0.165102
0.151172
0.137547
0.124211
0.111164
0.0984088
0.085886
0.0735554
0.0614106
0.0494859
0.0376984
0.0263621
0.0146091
0.00602779
0.319203
0.313888
0.300788
0.284953
0.269795
0.254865
0.239308
0.223735
0.208585
0.193826
0.17934
0.165118
0.151189
0.137566
0.124228
0.111179
0.0984186
0.0858899
0.0735534
0.0614028
0.0494736
0.0376836
0.0263479
0.0145983
0.00602306
0.319196
0.313881
0.300781
0.284946
0.269789
0.254861
0.239307
0.223739
0.208594
0.19384
0.179357
0.165134
0.151203
0.137576
0.124234
0.111179
0.0984144
0.0858815
0.0735424
0.0613911
0.0494624
0.0376742
0.0263414
0.0145956
0.00602291
0.31919
0.313875
0.300775
0.28494
0.269785
0.254859
0.23931
0.223747
0.208607
0.193855
0.179373
0.165147
0.151212
0.137579
0.124231
0.111172
0.098404
0.0858699
0.0735308
0.0613804
0.0494534
0.0376675
0.0263376
0.0145946
0.0060229
0.319185
0.31387
0.30077
0.284936
0.269783
0.25486
0.239314
0.223756
0.208622
0.193873
0.179391
0.165161
0.15122
0.13758
0.124225
0.111161
0.0983899
0.085855
0.0735164
0.0613682
0.0494447
0.0376632
0.0263371
0.0145967
0.00602431
0.319181
0.313866
0.300766
0.284933
0.269782
0.254861
0.239318
0.223763
0.208632
0.193886
0.179404
0.165172
0.151228
0.137583
0.124223
0.111154
0.0983793
0.0858425
0.0735032
0.0613553
0.0494339
0.0376554
0.0263328
0.0145955
0.00602433
0.319178
0.313863
0.300763
0.284932
0.269783
0.254863
0.23932
0.223767
0.208638
0.193893
0.179411
0.165179
0.151232
0.137584
0.12422
0.111147
0.0983697
0.0858311
0.0734915
0.0613444
0.0494248
0.037649
0.0263296
0.0145951
0.00602507
0.319175
0.313861
0.300762
0.284935
0.269788
0.254864
0.239319
0.223766
0.208639
0.193894
0.179412
0.165181
0.151235
0.137587
0.124221
0.111146
0.0983653
0.0858238
0.0734824
0.0613345
0.049415
0.0376402
0.0263235
0.0145913
0.00602617
0.319175
0.313864
0.300761
0.284945
0.269805
0.254875
0.239321
0.223767
0.20864
0.193894
0.179411
0.165178
0.151231
0.137583
0.124216
0.111139
0.0983571
0.085815
0.0734743
0.0613282
0.0494111
0.0376372
0.0263243
0.0145868
0.00603637
0.302113
0.298587
0.289362
0.276788
0.263359
0.249621
0.235424
0.221029
0.206725
0.192585
0.178602
0.164796
0.151205
0.137846
0.12472
0.111835
0.0991953
0.0867678
0.0745177
0.0624287
0.0505397
0.0387463
0.0273747
0.0153941
0.00658926
0.302112
0.298581
0.289365
0.276793
0.263363
0.249624
0.235427
0.221031
0.206726
0.192586
0.178602
0.164797
0.151206
0.137846
0.124721
0.111836
0.0991955
0.0867675
0.0745168
0.0624272
0.050537
0.0387437
0.0273695
0.0153972
0.00657747
0.30211
0.298579
0.289365
0.276793
0.263361
0.249622
0.235426
0.22103
0.206724
0.192584
0.178601
0.164795
0.151203
0.137844
0.124719
0.111835
0.0991956
0.0867683
0.0745181
0.0624287
0.0505383
0.0387448
0.0273702
0.015399
0.00657671
0.302107
0.298576
0.289362
0.276791
0.263358
0.24962
0.235425
0.221029
0.206724
0.192584
0.1786
0.164795
0.151204
0.137846
0.124722
0.111839
0.0991996
0.0867719
0.0745208
0.0624299
0.0505379
0.0387429
0.0273671
0.0153962
0.00657485
0.302104
0.298573
0.289358
0.276787
0.263355
0.249617
0.235422
0.221027
0.206722
0.192583
0.1786
0.164795
0.151204
0.137846
0.124724
0.111841
0.0992027
0.0867755
0.0745247
0.062434
0.0505416
0.0387458
0.0273691
0.0153975
0.00657559
0.302099
0.298568
0.289354
0.276782
0.26335
0.249612
0.235419
0.221024
0.206721
0.192582
0.178599
0.164794
0.151204
0.137847
0.124727
0.111846
0.0992091
0.0867829
0.0745325
0.0624414
0.0505479
0.0387504
0.0273716
0.015398
0.00657521
0.302094
0.298563
0.289348
0.276777
0.263345
0.249607
0.235414
0.22102
0.206717
0.19258
0.178598
0.164794
0.151206
0.137851
0.124733
0.111854
0.0992186
0.0867931
0.0745425
0.0624503
0.0505549
0.0387551
0.0273739
0.0153982
0.00657463
0.302088
0.298557
0.289342
0.276771
0.263338
0.249601
0.235408
0.221015
0.206712
0.192576
0.178597
0.164797
0.151211
0.13786
0.124744
0.111867
0.0992315
0.0868053
0.0745529
0.062458
0.0505596
0.0387567
0.0273732
0.0153962
0.00657334
0.302082
0.29855
0.289335
0.276763
0.263331
0.249593
0.2354
0.221008
0.206706
0.192572
0.178596
0.164799
0.151218
0.137871
0.124757
0.111882
0.0992464
0.0868187
0.0745634
0.0624647
0.0505621
0.0387557
0.0273699
0.0153922
0.00657108
0.302075
0.298544
0.289328
0.276756
0.263323
0.249585
0.235392
0.221001
0.206701
0.192569
0.178597
0.164805
0.151229
0.137886
0.124775
0.1119
0.0992629
0.0868319
0.0745721
0.0624684
0.0505612
0.0387513
0.0273639
0.0153869
0.00656912
0.302068
0.298536
0.289321
0.276748
0.263315
0.249577
0.235385
0.220995
0.206697
0.192569
0.178601
0.164814
0.151242
0.137902
0.124792
0.111917
0.0992779
0.086843
0.0745779
0.0624687
0.0505566
0.0387434
0.0273551
0.0153798
0.00656615
0.302061
0.298529
0.289313
0.276741
0.263308
0.24957
0.235379
0.220991
0.206697
0.192572
0.178608
0.164824
0.151254
0.137916
0.124806
0.111929
0.0992873
0.0868489
0.07458
0.062467
0.0505519
0.0387372
0.0273493
0.0153763
0.00656524
0.302055
0.298523
0.289306
0.276734
0.263301
0.249565
0.235376
0.220991
0.2067
0.192579
0.178618
0.164836
0.151268
0.137929
0.124818
0.111938
0.0992922
0.0868496
0.0745766
0.06246
0.0505426
0.0387271
0.0273405
0.0153703
0.00656295
0.302049
0.298516
0.2893
0.276728
0.263296
0.249562
0.235376
0.220994
0.206706
0.192589
0.178629
0.164848
0.151278
0.137937
0.124822
0.111939
0.0992897
0.0868442
0.0745692
0.0624518
0.0505346
0.0387204
0.027336
0.0153685
0.00656279
0.302043
0.298511
0.289295
0.276723
0.263293
0.24956
0.235377
0.220999
0.206715
0.1926
0.178641
0.164858
0.151285
0.13794
0.124822
0.111935
0.0992834
0.0868363
0.0745607
0.0624436
0.0505275
0.0387152
0.0273331
0.0153679
0.00656292
0.302039
0.298507
0.289291
0.276719
0.26329
0.24956
0.235379
0.221004
0.206724
0.192611
0.178652
0.164867
0.151291
0.137941
0.124818
0.111928
0.0992738
0.0868256
0.0745502
0.0624345
0.0505207
0.0387113
0.0273321
0.0153688
0.00656379
0.302035
0.298503
0.289287
0.276716
0.263288
0.24956
0.235381
0.221009
0.206732
0.19262
0.178662
0.164875
0.151296
0.137943
0.124816
0.111922
0.0992654
0.0868157
0.0745399
0.062425
0.0505132
0.0387065
0.0273301
0.0153691
0.00656442
0.302033
0.2985
0.289285
0.276714
0.263286
0.249559
0.235382
0.221011
0.206736
0.192626
0.178667
0.16488
0.151299
0.137943
0.124814
0.111917
0.0992579
0.0868069
0.074531
0.0624171
0.0505073
0.0387032
0.0273296
0.0153704
0.00656605
0.302031
0.298499
0.289282
0.276711
0.263286
0.249559
0.235382
0.221013
0.206739
0.192629
0.178671
0.164883
0.151302
0.137945
0.124813
0.111914
0.099253
0.0868003
0.0745237
0.0624101
0.0505018
0.0386994
0.0273283
0.0153701
0.00656891
0.302031
0.298503
0.289277
0.276705
0.263282
0.249556
0.235379
0.221012
0.206739
0.19263
0.178672
0.164884
0.151302
0.137945
0.124813
0.111913
0.099251
0.0867979
0.0745216
0.062409
0.0505024
0.0387007
0.0273331
0.0153673
0.00658117
0.289949
0.28728
0.280191
0.27001
0.258483
0.246267
0.233402
0.220033
0.206431
0.192772
0.179131
0.165558
0.152105
0.138811
0.125699
0.112783
0.10007
0.0875488
0.0752068
0.0630268
0.051038
0.039125
0.0276168
0.0154686
0.00657511
0.289949
0.287276
0.280192
0.270011
0.25848
0.246263
0.233398
0.220031
0.206429
0.192771
0.17913
0.165558
0.152106
0.138812
0.1257
0.112785
0.100072
0.0875508
0.0752085
0.063028
0.0510384
0.0391257
0.0276149
0.0154744
0.00656434
0.289947
0.287274
0.280191
0.27001
0.258477
0.246259
0.233395
0.220029
0.206428
0.19277
0.17913
0.165558
0.152106
0.138812
0.125701
0.112787
0.100074
0.0875529
0.0752106
0.06303
0.0510399
0.039127
0.0276156
0.015476
0.00656286
0.289944
0.287271
0.280189
0.270007
0.258474
0.246256
0.233392
0.220027
0.206426
0.192768
0.179129
0.165558
0.152106
0.138814
0.125704
0.11279
0.100078
0.0875568
0.075214
0.0630325
0.0510413
0.0391274
0.0276152
0.0154755
0.00656229
0.289941
0.287267
0.280185
0.270004
0.258471
0.246252
0.233389
0.220024
0.206424
0.192767
0.179128
0.165558
0.152107
0.138815
0.125707
0.112794
0.100082
0.0875614
0.0752184
0.0630363
0.0510442
0.0391292
0.027616
0.0154759
0.00656237
0.289936
0.287263
0.280181
0.269999
0.258466
0.246248
0.233385
0.220021
0.206422
0.192766
0.179128
0.165558
0.152108
0.138818
0.125711
0.112799
0.100089
0.0875679
0.0752244
0.0630412
0.0510476
0.0391309
0.0276163
0.0154752
0.00656189
0.289931
0.287258
0.280176
0.269994
0.258461
0.246243
0.233381