/*--------------------------------*- C++ -*----------------------------------*\
  =========                 |
  \\      /  F ield         | OpenFOAM: The Open Source CFD Toolbox
   \\    /   O peration     | Website:  https://openfoam.org
    \\  /    A nd           | Version:  12
     \\/     M anipulation  |
\*---------------------------------------------------------------------------*/
FoamFile
{
    format      ascii;
    class       surfaceScalarField;
    location    "350";
    object      phi;
}
// * * * * * * * * * * * * * * * * * * * * * * * * * * * * * * * * * * * * * //

dimensions      [0 3 -1 0 0 0 0];

internalField   nonuniform List<scalar> 
14050
(
1958.43
0.00342843
1.56216
1956.2
-0.000572385
2.23271
1953.79
-0.000473294
2.40995
1951.36
0.000522162
2.42861
1948.92
0.000447677
2.43924
1946.5
6.3958e-05
2.4247
1944.11
-0.000224481
2.38729
1941.77
0.000685751
2.33889
1939.48
0.0020306
2.28733
1937.25
0.00171178
2.22742
1935.08
0.000680469
2.16975
1932.97
-0.000305997
2.11332
1930.92
-0.00186386
2.0564
1928.92
-0.00499639
2.00159
1926.98
-0.00613005
1.94479
1925.09
-0.00480419
1.89887
1923.24
-0.00326139
1.85266
1921.43
-0.00233123
1.80649
1919.67
-0.00100845
1.76256
1917.95
0.000386188
1.72079
1916.27
0.00174044
1.6798
1914.63
0.00311902
1.63764
1913.04
0.00214498
1.59099
1911.5
0.00201974
1.53751
0.000357837
1.34674
1958.44
0.000720726
1.56713
1956.2
0.000590586
2.23544
1953.79
-6.71422e-05
2.41112
1951.36
0.00016599
2.4287
1948.92
0.000437381
2.43903
1946.5
0.000397013
2.42432
1944.11
0.000579788
2.38711
1941.77
-8.12586e-05
2.33522
1939.49
-0.000939267
2.28305
1937.27
8.80903e-05
2.22638
1935.1
0.00108305
2.1692
1932.98
0.00219562
2.1135
1930.92
0.00165643
2.05845
1928.91
0.00155744
2.00416
1926.95
0.00343863
1.95481
1925.03
0.00328743
1.90852
1923.16
0.00103043
1.86094
1921.35
-0.000287531
1.81342
1919.58
-0.00036939
1.76718
1917.86
0.000149701
1.72326
1916.18
0.000713577
1.68016
1914.54
0.000996854
1.63666
1912.96
0.00267519
1.58249
1911.43
0.00217808
1.53377
-8.05458e-05
1.34757
1958.43
0.000167858
1.56649
1956.2
0.00025829
2.23547
1953.79
-5.22673e-06
2.41158
1951.36
0.00012915
2.42875
1948.92
0.000366558
2.43904
1946.5
0.000382373
2.42449
1944.11
0.00062026
2.3869
1941.77
0.00139867
2.33835
1939.48
0.0026421
2.28635
1937.25
0.00478216
2.2266
1935.07
0.00589036
2.16926
1932.96
0.0052493
2.11232
1930.9
0.00253223
2.05712
1928.9
-0.00119217
2.00373
1926.96
-0.00254116
1.94465
1925.07
-0.00189216
1.89744
1923.22
-0.00144311
1.85225
1921.41
-0.0021812
1.80698
1919.65
-0.00117417
1.76307
1917.93
0.000283224
1.72087
1916.25
0.0019384
1.67915
1914.61
0.00366929
1.636
1913.02
0.00337454
1.58919
1911.49
0.00179427
1.53553
-0.000305798
1.34583
1958.43
3.10661e-05
1.56632
1956.2
0.00015928
2.23519
1953.79
0.000165065
2.41134
1951.36
0.000243531
2.42864
1948.92
0.000329535
2.43891
1946.49
0.00045361
2.42449
1944.11
0.000107646
2.38676
1941.77
0.000157977
2.3376
1939.49
0.000183838
2.28442
1937.27
-0.00170697
2.22521
1935.12
-0.00215044
2.16073
1933.02
-0.000355169
2.10447
1930.97
0.00118567
2.05244
1928.97
0.00171758
2.00141
1927.01
0.00297597
1.95156
1925.1
0.0056954
1.90537
1923.23
0.0061692
1.86033
1921.41
0.00561402
1.81354
1919.63
0.00384507
1.77395
1917.9
0.00181941
1.72778
1916.22
0.000455538
1.68237
1914.58
-0.00028284
1.63679
1913.01
-0.00119269
1.58198
1911.48
-0.00225379
1.52913
-0.00076661
1.34061
1958.43
8.39994e-06
1.56628
1956.2
0.000158808
2.23512
1953.79
0.000244271
2.41131
1951.36
0.000296872
2.42864
1948.92
0.000418945
2.43896
1946.5
0.000458136
2.42429
1944.11
0.000535207
2.38697
1941.77
-0.00062661
2.33477
1939.49
-0.00248139
2.28233
1937.27
-0.00335495
2.22496
1935.1
-0.00257044
2.1666
1932.99
0.00125485
2.10939
1930.93
0.00597699
2.05589
1928.92
0.00891387
2.00358
1926.96
0.00919964
1.95203
1925.06
0.00642879
1.90744
1923.2
0.00380856
1.85566
1921.4
0.00209574
1.80888
1919.64
0.000339182
1.76355
1917.92
-0.00178314
1.72041
1916.25
-0.00369531
1.67801
1914.62
-0.00324438
1.63427
1913.03
-0.00162815
1.58158
1911.5
0.000398547
1.52874
0.00115924
1.34571
1958.43
4.79787e-06
1.56627
1956.2
0.000179241
2.2351
1953.79
0.000293097
2.41128
1951.36
0.000375869
2.42864
1948.92
0.00045518
2.43892
1946.49
0.000486353
2.42439
1944.11
0.000457293
2.38678
1941.77
0.000445089
2.33859
1939.48
0.000132342
2.28577
1937.25
-0.000401859
2.22937
1935.08
-0.000930144
2.1697
1932.97
-0.000872499
2.11108
1930.92
-0.000347442
2.05441
1928.94
0.00024253
1.99322
1927
0.00137452
1.94057
1925.11
0.00219482
1.89411
1923.27
0.00253378
1.8508
1921.46
0.00252165
1.807
1919.69
0.00228731
1.76399
1917.96
0.00178444
1.72265
1916.28
0.000857625
1.68074
1914.63
0.000205409
1.64336
1913.04
0.000338864
1.58897
1911.51
0.000660878
1.53399
0.000957952
1.34815
1958.43
3.519e-06
1.56627
1956.2
0.000205974
2.23509
1953.79
0.000338941
2.41127
1951.36
0.0004584
2.42864
1948.92
0.000496126
2.43891
1946.49
0.000581985
2.42438
1944.11
0.000479032
2.38683
1941.77
0.00145785
2.33865
1939.48
0.00292623
2.2861
1937.25
0.00269117
2.22979
1935.07
0.000893274
2.17076
1932.96
-0.00294111
2.11201
1930.92
-0.00697626
2.05421
1928.93
-0.00793315
1.99274
1927
-0.00583384
1.93978
1925.11
-0.00162817
1.89324
1923.26
0.00162419
1.84997
1921.46
0.00345579
1.80629
1919.69
0.00448626
1.76359
1917.96
0.00524629
1.72252
1916.28
0.00537293
1.68108
1914.63
0.0028986
1.64406
1913.04
0.00186314
1.58952
1911.5
0.00133877
1.53421
0.000572436
1.34818
1958.43
2.60562e-06
1.56627
1956.2
0.000233418
2.23509
1953.79
0.00040441
2.41128
1951.36
0.000534519
2.42863
1948.92
0.000662885
2.43894
1946.49
0.000767481
2.42427
1944.11
0.00113553
2.38706
1941.77
0.000858
2.33515
1939.49
0.000412208
2.2831
1937.27
0.00132968
2.22641
1935.1
0.00200931
2.16867
1932.98
0.00141314
2.11217
1930.91
0.000345781
2.05911
1928.9
0.000863446
2.00581
1926.94
0.000395303
1.95252
1925.04
-0.00183909
1.90616
1923.19
-0.00161105
1.85324
1921.38
6.08017e-05
1.80603
1919.63
0.00125693
1.76091
1917.91
0.00234816
1.71825
1916.23
0.00317466
1.67667
1914.6
0.00294434
1.6334
1913.01
0.00200339
1.58656
1911.48
0.000842623
1.53356
0.000468786
1.34433
1958.43
-1.052e-06
1.56626
1956.2
0.000256466
2.23508
1953.79
0.000440594
2.41126
1951.36
0.000613972
2.42862
1948.92
0.000732047
2.43892
1946.49
0.000887086
2.42443
1944.11
0.00103177
2.38698
1941.77
0.00223876
2.33836
1939.48
0.00414656
2.28642
1937.25
0.00475275
2.22645
1935.08
0.0039093
2.1684
1932.97
0.00184795
2.11128
1930.91
-0.000450659
2.05728
1928.91
-0.00370008
2.00508
1926.97
-0.00647546
1.94499
1925.08
-0.00676103
1.8963
1923.23
-0.0048621
1.85041
1921.43
-0.00238622
1.80407
1919.67
-0.000337701
1.75965
1917.96
0.00159517
1.71742
1916.28
0.00352488
1.67607
1914.64
0.00520774
1.63337
1913.05
0.00414488
1.58701
1911.52
0.00110276
1.53447
9.79483e-05
1.34536
1958.43
-8.30492e-06
1.56626
1956.2
0.000267822
2.23508
1953.79
0.00047356
2.41126
1951.36
0.000660998
2.42861
1948.92
0.000851695
2.43893
1946.5
0.000971677
2.42429
1944.11
0.00162077
2.38698
1941.77
0.00183526
2.3347
1939.49
0.00257282
2.28205
1937.27
0.00439744
2.22501
1935.1
0.0049542
2.16716
1932.99
0.00463968
2.11119
1930.92
0.00358631
2.05819
1928.92
0.00109031
2.0047
1926.96
-0.00248372
1.95288
1925.05
-0.00659087
1.90874
1923.2
-0.00816175
1.85578
1921.39
-0.00694749
1.80647
1919.64
-0.0052537
1.7601
1917.93
-0.00357411
1.71639
1916.26
-0.00139475
1.67404
1914.63
0.000991318
1.63119
1913.05
0.00294864
1.57913
1911.52
0.00346192
1.52719
0.00162124
1.34487
1958.43
-1.73088e-05
1.56626
1956.2
0.000258735
2.23506
1953.79
0.000497423
2.41125
1951.36
0.000668002
2.4286
1948.92
0.000832421
2.43887
1946.5
0.000963117
2.42446
1944.11
0.000728798
2.38633
1941.78
-0.000132842
2.33683
1939.5
-0.00120098
2.2825
1937.28
-0.00103683
2.22032
1935.12
0.000853813
2.16306
1933.02
0.00338783
2.10727
1930.96
0.00578684
2.05516
1928.95
0.00606563
2.00363
1926.99
0.00426131
1.95393
1925.07
0.00120308
1.90807
1923.21
-0.00166834
1.86023
1921.39
-0.00417181
1.81714
1919.62
-0.00563051
1.76754
1917.9
-0.006158
1.72112
1916.23
-0.00594441
1.67639
1914.6
-0.00364862
1.6314
1913.03
-0.00118276
1.57837
1911.51
0.000542241
1.52535
0.000950516
1.34166
1958.43
-3.09179e-05
1.56625
1956.2
0.000249211
2.23506
1953.79
0.000474501
2.41123
1951.36
0.000654933
2.42859
1948.92
0.000774834
2.43886
1946.5
0.000772473
2.42428
1944.11
0.000892695
2.38647
1941.77
0.00149474
2.33783
1939.48
0.00273371
2.28432
1937.25
0.00471165
2.22756
1935.08
0.00540881
2.16792
1932.97
0.00361139
2.11091
1930.91
0.000361125
2.05627
1928.93
-0.00202204
1.99517
1926.99
-0.00368582
1.94384
1925.1
-0.00347744
1.89876
1923.24
-0.00293314
1.85419
1921.43
-0.00359871
1.8085
1919.67
-0.00293878
1.76414
1917.94
-0.00143204
1.72172
1916.26
0.000689179
1.679
1914.61
0.00100137
1.64151
1913.02
0.000827464
1.58718
1911.49
0.000579103
1.53238
-0.000715944
1.34734
1958.43
-4.25501e-05
1.56624
1956.2
0.000214557
2.23505
1953.79
0.000455166
2.41123
1951.36
0.000626959
2.42858
1948.92
0.000650241
2.43881
1946.5
0.000754889
2.42433
1944.11
0.000411547
2.38647
1941.77
0.000189908
2.33718
1939.49
0.000761982
2.28371
1937.27
0.000234902
2.22413
1935.12
-0.000347297
2.15992
1933.02
-1.66099e-05
2.10406
1930.97
0.000139616
2.05234
1928.96
0.000702515
2.00158
1927
0.000967675
1.9526
1925.09
0.00134691
1.90731
1923.22
0.00267718
1.86124
1921.4
0.00303098
1.81318
1919.63
0.00171531
1.77267
1917.9
0.000391949
1.72603
1916.22
-0.00022649
1.68044
1914.59
-0.0007846
1.63454
1913.01
-0.00128428
1.5802
1911.48
-0.00148354
1.52807
-0.00104979
1.34033
1958.43
-5.12046e-05
1.56624
1956.2
0.000181316
2.23504
1953.79
0.000441319
2.41123
1951.36
0.000553847
2.42854
1948.92
0.000689863
2.43885
1946.5
0.000573362
2.42423
1944.11
0.00055266
2.38655
1941.77
1.53798e-05
2.33716
1939.49
-0.00143948
2.27948
1937.27
-0.00134338
2.22244
1935.11
0.00234227
2.16422
1932.99
0.00656061
2.10886
1930.92
0.00925068
2.05704
1928.91
0.0100615
2.00552
1926.95
0.00904784
1.95562
1925.03
0.00547847
1.90818
1923.17
0.000742052
1.86475
1921.36
-0.00298195
1.81261
1919.61
-0.00615701
1.76443
1917.9
-0.00729337
1.719
1916.23
-0.00737272
1.67481
1914.6
-0.00641862
1.63039
1913.03
-0.00441357
1.57744
1911.51
-0.00156786
1.52558
0.000948401
1.33786
1958.43
-5.69874e-05
1.56623
1956.2
0.000137084
2.23504
1953.79
0.000399771
2.41122
1951.36
0.000524489
2.42856
1948.92
0.000558193
2.43879
1946.5
0.00055897
2.42424
1944.11
0.00028427
2.38655
1941.77
-0.000540325
2.33775
1939.49
-0.00193497
2.28401
1937.26
-0.00332372
2.22633
1935.1
-0.00299471
2.16551
1933.01
0.000176513
2.10104
1930.96
0.00568627
2.04733
1928.97
0.00970979
1.99577
1927.02
0.0106593
1.94742
1925.11
0.00868856
1.9037
1923.25
0.00524452
1.85877
1921.43
0.002267
1.81308
1919.66
0.000336911
1.76774
1917.92
-0.00288623
1.73025
1916.24
-0.00610915
1.685
1914.6
-0.006334
1.63851
1913.02
-0.00489117
1.58374
1911.49
-0.00224807
1.52897
8.4212e-05
1.34445
1958.43
-7.58659e-05
1.56624
1956.2
7.91148e-05
2.23506
1953.79
0.000357111
2.41123
1951.36
0.000459841
2.42856
1948.92
0.000474125
2.43879
1946.5
0.000468174
2.42419
1944.11
0.00041363
2.3865
1941.77
0.000239759
2.33815
1939.48
-5.37093e-05
2.28516
1937.25
-0.000307782
2.22837
1935.08
3.54008e-05
2.16796
1932.97
0.00129259
2.10955
1930.92
0.00376317
2.05287
1928.93
0.00552742
1.99105
1927
0.00469461
1.94071
1925.1
0.00359574
1.89694
1923.25
0.00273063
1.85294
1921.45
0.0014043
1.80794
1919.68
0.000124733
1.76466
1917.96
-0.00136928
1.72279
1916.27
-0.0026373
1.68035
1914.63
-0.00300312
1.64227
1913.04
-0.00266978
1.58756
1911.51
-0.0016075
1.53242
-0.000409988
1.34714
1958.43
-0.000201055
1.56627
1956.2
-6.96627e-05
2.23512
1953.79
0.000394027
2.41125
1951.36
0.000424305
2.42853
1948.92
0.000364703
2.43876
1946.5
0.00043058
2.42417
1944.11
0.000653662
2.3865
1941.77
0.000968228
2.33822
1939.48
0.00160812
2.28535
1937.25
0.00246672
2.2289
1935.08
0.00302785
2.16866
1932.97
0.00249704
2.10993
1930.92
0.00172747
2.05192
1928.93
0.000731372
1.98936
1927
-0.000637927
1.94001
1925.11
-0.00128486
1.8968
1923.26
-0.00147961
1.85249
1921.45
-0.00156537
1.80712
1919.69
-0.00146669
1.76329
1917.97
-0.00109615
1.72157
1916.29
-0.000746892
1.67949
1914.65
-0.000542188
1.64153
1913.06
-0.000459993
1.58696
1911.52
-0.00071914
1.53201
-0.000594402
1.34704
1958.43
-0.000736616
1.56642
1956.2
-0.000471706
2.23538
1953.79
0.000326326
2.41148
1951.36
0.000201302
2.42862
1948.92
0.00011694
2.43883
1946.5
0.000266575
2.4242
1944.11
0.000757076
2.38645
1941.77
0.00170994
2.33798
1939.48
0.00340506
2.28475
1937.25
0.00580439
2.22805
1935.08
0.00677239
2.16725
1932.97
0.0049933
2.10856
1930.92
0.000736325
2.05128
1928.93
-0.00272826
1.98904
1927
-0.00428129
1.9406
1925.1
-0.00451144
1.89787
1923.25
-0.00455159
1.85396
1921.45
-0.0049837
1.80898
1919.68
-0.0038281
1.76505
1917.96
-0.00162321
1.72304
1916.28
0.000950549
1.68038
1914.63
0.00154996
1.64215
1913.05
0.00141772
1.58719
1911.51
0.000547074
1.53188
-0.000680619
1.34681
1958.44
-0.00344826
1.56707
1956.2
0.00060698
2.23532
1953.79
0.000593142
2.41102
1951.36
-0.000387926
2.42854
1948.92
-0.000217563
2.43874
1946.5
0.000219712
2.42416
1944.11
0.00025232
2.38622
1941.77
-4.7283e-05
2.33698
1939.49
-0.000203307
2.28374
1937.28
-0.000527252
2.22414
1935.12
0.000138407
2.15865
1933.03
0.00307241
2.10051
1930.98
0.00387775
2.04587
1928.98
0.00316149
1.99369
1927.02
0.00362524
1.9473
1925.11
0.00226351
1.90505
1923.24
-6.80496e-05
1.861
1921.43
-0.000786241
1.8146
1919.65
-0.00192238
1.77549
1917.92
-0.00319548
1.72981
1916.24
-0.00221498
1.68416
1914.61
-0.000967279
1.63772
1913.02
-4.08557e-05
1.58244
1911.5
2.05955e-05
1.52932
0.00116775
1.34084
1958.43
1.56211
1956.2
2.23261
1953.79
2.40984
1951.36
2.42846
1948.92
2.43899
1946.5
2.42433
1944.11
2.3866
1941.78
2.33797
1939.49
2.28474
1937.26
2.22523
1935.1
2.16598
1933
2.10553
1930.96
2.04269
1928.97
1.98921
1927.03
1.94177
1925.13
1.90034
1923.28
1.85793
1921.46
1.81364
1919.69
1.76991
1917.96
1.72677
1916.27
1.6889
1914.63
1.6422
1913.04
1.58644
1911.51
1.53233
1.34248
1960.94
-0.00121042
0.62283
1961.7
-0.00267063
1.4806
1962.26
-0.00186903
1.84925
1962.64
-0.000696812
2.0499
1962.91
-0.000272895
2.16543
1963.11
-7.97707e-05
2.22188
1963.26
0.000202843
2.23925
1963.36
0.00139462
2.23552
1963.43
0.0017026
2.22111
1963.46
0.00109664
2.19619
1963.46
0.00105499
2.16687
1963.44
0.000681556
2.13288
1963.4
0.000878113
2.09794
1963.33
0.0015407
2.06364
1963.25
-0.00089614
2.02776
1963.16
-0.00264907
1.99247
1963.06
-0.00344503
1.95492
1962.95
-0.00326057
1.91956
1962.83
-0.00269501
1.88655
1962.7
-0.001924
1.85528
1962.56
-0.000972245
1.8237
1962.4
0.000302862
1.79168
1962.24
0.00291735
1.75269
1962.05
0.00213387
1.72236
0.000519019
1.59077
1960.94
-0.000110878
0.622002
1961.7
-0.00104522
1.47968
1962.26
-0.00108136
1.84849
1962.64
-0.000665672
2.04911
1962.91
-0.000232504
2.16487
1963.12
-9.68116e-05
2.22149
1963.26
-3.70649e-05
2.23895
1963.37
-0.000739977
2.2345
1963.43
-0.000619808
2.22026
1963.46
0.000435302
2.196
1963.47
0.00105824
2.1673
1963.44
0.00110664
2.13446
1963.4
0.00230504
2.10043
1963.34
0.00276197
2.06596
1963.26
0.00220025
2.03202
1963.16
0.00169952
1.99823
1963.06
0.00247082
1.96076
1962.94
0.00237563
1.9241
1962.82
0.00145454
1.88962
1962.68
0.000978567
1.85681
1962.53
0.000727277
1.82382
1962.38
0.000939881
1.7905
1962.22
7.72626e-05
1.74928
1962.03
0.00167691
1.71973
0.00195156
1.58977
1960.94
-1.76588e-05
0.622266
1961.7
-0.000220078
1.4799
1962.26
-0.000291599
1.84883
1962.64
-0.000109906
2.04895
1962.91
0.000124709
2.16467
1963.12
0.000246254
2.22139
1963.26
0.000406489
2.2389
1963.37
0.000625149
2.23518
1963.43
0.00103112
2.22082
1963.46
0.00102987
2.19601
1963.46
0.00307671
2.16681
1963.44
0.00368233
2.13373
1963.4
0.00387572
2.09741
1963.34
0.00386602
2.06152
1963.25
0.000571837
2.02779
1963.16
-0.00132832
1.99382
1963.06
-0.00120396
1.95537
1962.95
-0.000639527
1.91962
1962.83
-0.00176567
1.88696
1962.7
-0.00124071
1.85574
1962.56
-0.000562425
1.82405
1962.4
0.000497521
1.79184
1962.23
0.00354529
1.75255
1962.05
0.00415765
1.72208
0.00250162
1.59131
1960.94
-1.98129e-06
0.622305
1961.7
2.57509e-05
1.48007
1962.26
3.21643e-05
1.84894
1962.64
0.000112058
2.04911
1962.91
0.000211739
2.16476
1963.12
0.000340038
2.22142
1963.27
0.000408646
2.23881
1963.37
0.00124229
2.23495
1963.43
0.00104712
2.22034
1963.46
0.000151927
2.19525
1963.46
-0.00166145
2.16399
1963.44
-0.00154785
2.13093
1963.4
-0.000298536
2.09568
1963.35
0.00116375
2.06086
1963.27
0.000780071
2.03033
1963.17
-0.000374103
1.99832
1963.07
0.00218736
1.96018
1962.96
0.00397282
1.9235
1962.83
0.00613383
1.8911
1962.69
0.00526575
1.85815
1962.55
0.0035857
1.82457
1962.39
0.00201562
1.79063
1962.23
0.00169425
1.7485
1962.04
0.00141963
1.71733
-0.000503466
1.58774
1960.94
2.29237e-06
0.622316
1961.7
0.000110413
1.48013
1962.26
0.000188422
1.84899
1962.64
0.000258208
2.04916
1962.91
0.000324908
2.16476
1963.12
0.000314865
2.22135
1963.27
0.000102977
2.23871
1963.37
-0.00107537
2.23412
1963.43
-0.00145872
2.21978
1963.47
-0.00237775
2.19554
1963.47
-0.00266046
2.1663
1963.44
-0.00229538
2.13331
1963.4
-0.000767234
2.09702
1963.35
0.00286462
2.06059
1963.26
0.00445818
2.02974
1963.17
0.00665095
1.99787
1963.06
0.00586379
1.95719
1962.95
0.00530319
1.91946
1962.83
0.00478756
1.88581
1962.7
0.00338912
1.85396
1962.56
0.00150333
1.82205
1962.4
-0.00214417
1.78986
1962.24
-0.00294874
1.74883
1962.06
-0.00255385
1.71843
-0.00131736
1.59038
1960.94
3.28141e-06
0.622318
1961.7
0.000154414
1.48014
1962.26
0.000271702
1.84901
1962.64
0.000363081
2.04918
1962.91
0.000431209
2.16479
1963.12
0.000477718
2.22141
1963.26
0.000474954
2.23891
1963.37
0.000417951
2.23523
1963.43
0.000273678
2.2208
1963.46
4.74359e-05
2.19722
1963.46
-0.000436784
2.16762
1963.44
-0.000646976
2.13404
1963.39
-0.000576643
2.09651
1963.33
-0.000351209
2.05773
1963.25
-5.32281e-05
2.0262
1963.16
0.000738543
1.99311
1963.06
0.00160377
1.95435
1962.95
0.00233227
1.91842
1962.83
0.00269883
1.8856
1962.7
0.0025774
1.85451
1962.56
0.00212576
1.82321
1962.4
0.00140999
1.79285
1962.24
0.000258788
1.75149
1962.05
5.03359e-05
1.72003
0.000541395
1.59058
1960.94
2.66119e-06
0.622317
1961.7
0.000184536
1.48015
1962.26
0.000331439
1.84901
1962.64
0.00044969
2.04919
1962.91
0.000540903
2.1648
1963.12
0.00066922
2.22141
1963.26
0.000940754
2.23893
1963.37
0.00209267
2.23529
1963.43
0.00230884
2.22093
1963.46
0.00290154
2.19743
1963.46
0.00236807
2.16805
1963.44
0.00149821
2.13449
1963.39
-0.000490256
2.09675
1963.33
-0.00429248
2.05775
1963.25
-0.00515815
2.02594
1963.16
-0.00534135
1.99267
1963.06
-0.0027254
1.9536
1962.95
-0.000876939
1.91748
1962.83
0.000641959
1.88469
1962.7
0.00188143
1.8538
1962.56
0.00299872
1.82275
1962.41
0.00542791
1.79272
1962.24
0.00279399
1.75181
1962.05
0.00143513
1.72047
0.00167955
1.59071
1960.94
1.11309e-06
0.622315
1961.7
0.000210186
1.48014
1962.26
0.000386523
1.84901
1962.64
0.00052733
2.04919
1962.91
0.000634479
2.16479
1963.12
0.00071404
2.22137
1963.27
0.000833982
2.23877
1963.37
0.000372892
2.23423
1963.43
0.000668469
2.22001
1963.47
0.00196572
2.19591
1963.47
0.00219241
2.16734
1963.44
0.0018534
2.13489
1963.4
0.000469625
2.09896
1963.34
-0.00184085
2.06291
1963.26
-0.000341233
2.03128
1963.16
0.00112885
1.99777
1963.06
-0.000502372
1.95572
1962.95
-0.00151888
1.91747
1962.83
-0.00140618
1.88337
1962.7
-0.000670017
1.85162
1962.55
0.000506488
1.82002
1962.4
0.00205549
1.78846
1962.24
0.00252601
1.74978
1962.05
0.00220128
1.7195
0.00119495
1.58956
1960.94
-3.08144e-06
0.622311
1961.7
0.00022971
1.48014
1962.26
0.000429739
1.849
1962.64
0.000598721
2.04918
1962.91
0.000754393
2.16478
1963.12
0.000963051
2.22138
1963.27
0.00129241
2.23877
1963.37
0.00243118
2.23478
1963.43
0.00316073
2.22034
1963.46
0.00308046
2.19544
1963.46
0.0032591
2.16641
1963.44
0.00316462
2.13346
1963.4
0.00234129
2.09745
1963.34
0.00112573
2.06225
1963.26
-0.00216225
2.02877
1963.16
-0.00493693
1.9941
1963.06
-0.00537972
1.95418
1962.95
-0.00612583
1.91756
1962.83
-0.0052626
1.8841
1962.7
-0.00365335
1.85263
1962.56
-0.00151511
1.82101
1962.4
0.000919087
1.78909
1962.24
0.00479628
1.75025
1962.05
0.00585803
1.71987
0.00275062
1.58978
1960.94
-1.04581e-05
0.622306
1961.7
0.000238837
1.48012
1962.26
0.000457153
1.84898
1962.64
0.000639348
2.04916
1962.91
0.000799027
2.16474
1963.12
0.000894185
2.22127
1963.27
0.00105186
2.23853
1963.37
0.000494344
2.23374
1963.43
0.001267
2.21913
1963.47
0.00279259
2.19447
1963.47
0.0034553
2.16558
1963.45
0.00362104
2.13288
1963.4
0.00346855
2.09769
1963.34
0.00328336
2.06328
1963.26
0.00197378
2.03188
1963.17
0.000580763
1.99811
1963.06
-0.00328551
1.95703
1962.95
-0.00722216
1.91965
1962.83
-0.00735237
1.88518
1962.69
-0.00620758
1.85268
1962.55
-0.00437187
1.82031
1962.4
-0.00273341
1.78778
1962.23
-0.000395546
1.74698
1962.05
0.00158637
1.71667
0.00182477
1.58903
1960.94
-2.12052e-05
0.6223
1961.7
0.000233309
1.48011
1962.26
0.000464885
1.84896
1962.64
0.000644162
2.04913
1962.91
0.00077648
2.16469
1963.12
0.000846067
2.22125
1963.27
0.000681604
2.23842
1963.37
0.00030583
2.23431
1963.43
0.000108173
2.21912
1963.46
-0.000794252
2.19309
1963.47
0.000415519
2.16363
1963.45
0.00124044
2.13109
1963.41
0.0021212
2.09636
1963.35
0.00431762
2.0622
1963.27
0.00388269
2.03179
1963.17
0.0028065
1.99909
1963.07
0.00113985
1.96076
1962.95
0.000643364
1.92511
1962.82
-0.0016146
1.88976
1962.69
-0.0029105
1.85575
1962.54
-0.00323219
1.82181
1962.38
-0.00479198
1.78791
1962.22
-0.00373948
1.74572
1962.04
-0.00216982
1.71449
-0.000551234
1.58683
1960.94
-3.44086e-05
0.622293
1961.7
0.000223288
1.4801
1962.26
0.000448798
1.84894
1962.64
0.000626407
2.0491
1962.91
0.000753537
2.16466
1963.12
0.000816592
2.22121
1963.27
0.000864528
2.23853
1963.37
0.00103902
2.2347
1963.43
0.00137016
2.21976
1963.46
0.00219008
2.19526
1963.46
0.00406598
2.16501
1963.44
0.00460722
2.13126
1963.4
0.00375012
2.09472
1963.34
0.000745217
2.0579
1963.26
-0.000764861
2.02727
1963.17
-0.00236406
1.99463
1963.07
-0.00400756
1.95715
1962.96
-0.00410259
1.92186
1962.84
-0.00567509
1.88872
1962.71
-0.00504588
1.85672
1962.56
-0.00349138
1.82431
1962.41
-5.38869e-05
1.79269
1962.24
0.00131422
1.75059
1962.05
0.00196754
1.71891
0.00251967
1.58976
1960.94
-4.60081e-05
0.622287
1961.7
0.000201287
1.48008
1962.26
0.000424781
1.84892
1962.64
0.000591413
2.04907
1962.91
0.000673937
2.16462
1963.12
0.00072567
2.22118
1963.27
0.000710281
2.23847
1963.37
0.000890487
2.23454
1963.43
0.00189066
2.21946
1963.46
0.00136514
2.19404
1963.46
0.000288301
2.16228
1963.44
0.00113452
2.12888
1963.4
0.00148379
2.09397
1963.34
0.000947616
2.06009
1963.27
0.00049519
2.0305
1963.17
-2.22801e-05
1.99917
1963.07
-0.00190115
1.96227
1962.95
-0.00142835
1.92563
1962.83
0.000250607
1.89263
1962.69
-0.00046427
1.8589
1962.54
-0.000769729
1.82449
1962.39
-0.000318808
1.78984
1962.22
-1.30507e-05
1.74683
1962.04
0.000771962
1.71528
0.00102895
1.58641
1960.94
-5.45721e-05
0.622281
1961.7
0.000179
1.48006
1962.26
0.000401567
1.84889
1962.64
0.000546174
2.04903
1962.91
0.000625041
2.1646
1963.12
0.000581022
2.22114
1963.27
0.000371729
2.23845
1963.37
-0.000238318
2.23446
1963.43
-0.00169232
2.21842
1963.47
-0.00190292
2.19397
1963.47
-0.000990549
2.16388
1963.44
0.00192399
2.13025
1963.4
0.00396044
2.09508
1963.34
0.00606613
2.06145
1963.26
0.00715898
2.03138
1963.16
0.00747495
1.99916
1963.06
0.00771104
1.96256
1962.94
0.00453313
1.92469
1962.81
0.00154957
1.88975
1962.68
-0.00312106
1.8565
1962.53
-0.00552293
1.82279
1962.38
-0.00674171
1.78861
1962.22
-0.00688821
1.74613
1962.04
-0.0057894
1.71484
-0.00414347
1.5863
1960.94
-5.41023e-05
0.622275
1961.7
0.000166583
1.48004
1962.26
0.000394001
1.84887
1962.64
0.000534235
2.049
1962.91
0.000575128
2.16457
1963.12
0.000526926
2.22114
1963.27
0.000359195
2.23856
1963.37
-0.000114002
2.23481
1963.43
-0.000738755
2.21988
1963.46
-0.00124644
2.19524
1963.46
-0.00153582
2.16386
1963.44
-0.00236551
2.12771
1963.4
-0.000282096
2.09142
1963.34
0.0042435
2.05687
1963.26
0.00635551
2.02689
1963.17
0.00722043
1.99537
1963.07
0.00720331
1.9596
1962.96
0.00549419
1.92457
1962.83
0.0033308
1.89135
1962.7
0.00254032
1.86077
1962.55
-0.000613367
1.82732
1962.4
-0.00523298
1.79283
1962.23
-0.00664362
1.7495
1962.04
-0.00649682
1.71701
-0.0041211
1.58785
1960.94
-4.25235e-05
0.622266
1961.7
0.000196268
1.48001
1962.26
0.000449666
1.84883
1962.64
0.000569578
2.04894
1962.91
0.000589825
2.16453
1963.12
0.00057581
2.22113
1963.26
0.000525262
2.23862
1963.37
0.000397856
2.23516
1963.43
0.000294433
2.22061
1963.46
0.0002393
2.19647
1963.46
0.000288925
2.16586
1963.44
0.000422986
2.13066
1963.4
0.000821131
2.09272
1963.33
0.00172492
2.05479
1963.26
0.00316312
2.02354
1963.16
0.00347314
1.99108
1963.07
0.00258444
1.95484
1962.96
0.00153938
1.92069
1962.84
0.000605305
1.88859
1962.71
-6.75608e-05
1.85794
1962.56
-0.00130812
1.82627
1962.41
-0.00259374
1.79515
1962.24
-0.00303886
1.75276
1962.05
-0.00291561
1.72045
-0.00182192
1.59037
1960.94
-2.27131e-05
0.622251
1961.7
0.000392526
1.47994
1962.26
0.000666246
1.84875
1962.64
0.000658991
2.04886
1962.91
0.000578642
2.16449
1963.12
0.000578579
2.22111
1963.26
0.000654786
2.23863
1963.37
0.000806254
2.23524
1963.43
0.00114313
2.22074
1963.46
0.00183267
2.19665
1963.46
0.00263355
2.16608
1963.44
0.00292338
2.13073
1963.4
0.00201876
2.09306
1963.33
0.000754902
2.0551
1963.25
0.0002855
2.02258
1963.16
-0.000462272
1.9898
1963.07
-0.00163678
1.95434
1962.96
-0.00250339
1.92053
1962.83
-0.00310937
1.88853
1962.7
-0.00277979
1.85768
1962.56
-0.00196232
1.82608
1962.4
-0.000745608
1.79522
1962.23
9.50247e-05
1.75287
1962.04
0.000638027
1.7205
0.000928703
1.59035
1960.94
6.79964e-05
0.622207
1961.7
0.0011695
1.47975
1962.26
0.00132953
1.84862
1962.64
0.00104162
2.04866
1962.91
0.000731983
2.16433
1963.12
0.000651628
2.22099
1963.26
0.000710188
2.23849
1963.37
0.000959129
2.23505
1963.43
0.00125973
2.22046
1963.46
0.00278673
2.19616
1963.46
0.00451168
2.1651
1963.44
0.00481726
2.12956
1963.4
0.00420936
2.09242
1963.33
0.000413365
2.05506
1963.25
-0.00170353
2.02245
1963.16
-0.00326042
1.98989
1963.06
-0.00429736
1.95493
1962.95
-0.00448299
1.92147
1962.83
-0.00593159
1.88984
1962.7
-0.00509975
1.85906
1962.55
-0.00339826
1.82736
1962.4
0.000737485
1.79609
1962.23
0.00238401
1.75349
1962.04
0.00267721
1.72093
0.00296359
1.59047
1960.94
0.00117371
0.621941
1961.7
0.00271389
1.47952
1962.26
0.0019818
1.84826
1962.64
0.000852872
2.04878
1962.91
0.000491785
2.16447
1963.12
0.000423108
2.22104
1963.26
0.00023883
2.23842
1963.37
5.81455e-05
2.23479
1963.43
-6.12525e-05
2.22016
1963.46
-0.000155088
2.19436
1963.47
-0.00149296
2.16186
1963.45
-0.000843829
2.12676
1963.4
0.00193074
2.09073
1963.34
0.00181703
2.05655
1963.26
0.000451235
2.02543
1963.17
0.000355748
1.99422
1963.06
0.000967395
1.95956
1962.95
0.000851115
1.92514
1962.82
0.00168021
1.89373
1962.69
0.000325796
1.86127
1962.54
-0.00227752
1.82787
1962.39
-0.00189329
1.7934
1962.23
-0.00130085
1.74997
1962.04
-0.000760226
1.71773
0.000250608
1.58764
1960.94
0.622769
1961.7
1.48043
1962.26
1.84902
1962.64
2.04956
1962.91
2.16502
1963.12
2.22133
1963.26
2.23861
1963.37
2.23488
1963.43
2.22021
1963.46
2.19469
1963.46
2.16342
1963.44
2.12753
1963.39
2.08846
1963.33
2.05386
1963.25
2.02392
1963.16
1.9922
1963.06
1.95669
1962.95
1.92301
1962.83
1.89124
1962.7
1.86015
1962.56
1.82955
1962.4
1.79531
1962.24
1.75171
1962.05
1.71917
1.5878
1960.26
0.000227699
0.361412
1960.72
0.00091127
1.02514
1961.18
0.000980902
1.38443
1961.64
0.00102294
1.5857
1962.08
0.000914684
1.72739
1962.48
0.000743004
1.82381
1962.84
0.000633567
1.87133
1963.19
0.000667914
1.89329
1963.51
0.000560506
1.89971
1963.81
0.000349951
1.8946
1964.09
0.000127284
1.88178
1964.36
-0.000171867
1.86278
1964.62
-0.000252858
1.83975
1964.87
-0.00023341
1.81431
1965.12
-0.000551587
1.78311
1965.36
-0.000923477
1.75256
1965.59
-0.00123109
1.7277
1965.8
-0.00111965
1.70412
1966.01
-0.000871957
1.68037
1966.21
-0.000563281
1.6575
1966.4
-0.000231281
1.63452
1966.58
0.000126134
1.61325
1966.74
0.0005985
1.58947
1966.88
0.000508485
1.58199
4.42539e-05
1.53979
1960.26
-1.15822e-05
0.360542
1960.72
0.000321193
1.02569
1961.18
0.000519468
1.38569
1961.64
0.000703627
1.5867
1962.08
0.000733315
1.72796
1962.48
0.000686838
1.82418
1962.84
0.000583069
1.87159
1963.19
0.000385097
1.89335
1963.51
0.000350802
1.89972
1963.81
0.000472989
1.89466
1964.09
0.000656058
1.88193
1964.36
0.000717392
1.8632
1964.62
0.00127686
1.84047
1964.87
0.0015816
1.81535
1965.12
0.000753638
1.78466
1965.36
0.000269083
1.75461
1965.59
0.000815262
1.73007
1965.8
0.00102165
1.70601
1966.01
0.000747361
1.68168
1966.21
0.000519564
1.65808
1966.4
0.000394583
1.63435
1966.57
0.000328763
1.6123
1966.74
0.000181805
1.58783
1966.88
0.000271452
1.5804
3.54977e-05
1.53881
1960.26
-4.80551e-06
0.360498
1960.72
0.00013003
1.02562
1961.18
0.00028701
1.38569
1961.64
0.000399944
1.58665
1962.08
0.000502397
1.72783
1962.48
0.000537735
1.82418
1962.84
0.000562719
1.8716
1963.19
0.000575743
1.89343
1963.51
0.000577274
1.89971
1963.81
0.000602904
1.8945
1964.09
0.000965909
1.88159
1964.36
0.00108169
1.86271
1964.62
0.00122188
1.83916
1964.87
0.00113233
1.81319
1965.12
0.000441831
1.7827
1965.36
2.83941e-05
1.75272
1965.59
5.5636e-05
1.72765
1965.8
0.000323997
1.70384
1966.01
0.000292162
1.6802
1966.21
0.000438895
1.6574
1966.4
0.000617072
1.63443
1966.58
0.000837814
1.61307
1966.74
0.00127481
1.58919
1966.88
0.00136726
1.58175
0.000721151
1.54009
1960.26
-1.23138e-06
0.360489
1960.72
0.000108373
1.02559
1961.18
0.000233686
1.38563
1961.64
0.00034257
1.58657
1962.08
0.000438152
1.72778
1962.48
0.00050494
1.82407
1962.84
0.000532898
1.87147
1963.19
0.000622355
1.89324
1963.51
0.000497271
1.89942
1963.81
0.00019633
1.89397
1964.09
-0.000163746
1.88056
1964.36
-5.1953e-05
1.86164
1964.62
0.000468189
1.8384
1964.87
0.0013104
1.81318
1965.12
0.00132008
1.78381
1965.36
0.000757723
1.75456
1965.59
0.0011947
1.72976
1965.8
0.00184647
1.7057
1966.01
0.00228529
1.68193
1966.21
0.00205866
1.65845
1966.4
0.00152194
1.6346
1966.58
0.000946005
1.61227
1966.74
0.000695082
1.58726
1966.88
0.0004795
1.57914
3.98972e-05
1.53781
1960.26
6.95718e-07