/*--------------------------------*- C++ -*----------------------------------*\
  =========                 |
  \\      /  F ield         | OpenFOAM: The Open Source CFD Toolbox
   \\    /   O peration     | Website:  https://openfoam.org
    \\  /    A nd           | Version:  12
     \\/     M anipulation  |
\*---------------------------------------------------------------------------*/
FoamFile
{
    format      ascii;
    class       volVectorField;
    location    "350";
    object      U;
}
// * * * * * * * * * * * * * * * * * * * * * * * * * * * * * * * * * * * * * //

dimensions      [0 1 -1 0 0 0 0];

internalField   nonuniform List<vector> 
5000
(
(9.9911 9.23225e-06 0.00342431)
(9.98604 3.03322e-06 0.00850372)
(9.97559 -7.73095e-07 0.0102194)
(9.96256 1.33882e-06 0.010954)
(9.94966 1.8318e-06 0.011357)
(9.93721 7.88787e-07 0.0115447)
(9.92498 -1.62779e-07 0.0115709)
(9.91292 -5.95499e-07 0.0114967)
(9.9011 -1.24561e-06 0.0113666)
(9.88954 -3.60922e-06 0.0111319)
(9.87835 -1.02876e-05 0.0109123)
(9.86742 -2.07471e-05 0.0106727)
(9.85677 -2.82955e-05 0.0104289)
(9.84642 -3.29335e-05 0.0102239)
(9.83642 -3.42482e-05 0.00990838)
(9.82666 -2.68045e-05 0.00966439)
(9.8171 -1.59101e-05 0.00942014)
(9.80779 -5.73419e-06 0.00918012)
(9.79869 4.11696e-06 0.00894952)
(9.78982 1.16812e-05 0.00872453)
(9.78113 1.62585e-05 0.0084969)
(9.77267 1.79879e-05 0.00825319)
(9.76437 1.70558e-05 0.00808219)
(9.75654 1.67307e-05 0.00779082)
(9.747 9.82539e-06 0.00712508)
(9.99108 1.19483e-05 0.00341359)
(9.986 2.70658e-06 0.00848434)
(9.97557 -1.69728e-06 0.0102068)
(9.96254 1.1174e-06 0.0109448)
(9.94964 2.61048e-06 0.0113502)
(9.93719 1.53564e-06 0.011538)
(9.92496 8.45868e-07 0.0115662)
(9.91288 1.49465e-06 0.0114582)
(9.90113 3.2002e-06 0.0113343)
(9.88962 5.17139e-06 0.0111398)
(9.87843 6.96823e-06 0.0109165)
(9.86749 7.13451e-06 0.0106793)
(9.85683 2.34467e-06 0.0104374)
(9.84644 -1.26269e-06 0.0102005)
(9.83632 1.19772e-06 0.00996743)
(9.8264 1.83231e-06 0.00973251)
(9.81677 -1.89712e-06 0.00948701)
(9.80737 -4.64376e-06 0.00924333)
(9.79824 -4.15516e-06 0.00900091)
(9.78933 -1.67597e-06 0.00876606)
(9.78066 1.4228e-06 0.00852838)
(9.77221 3.89606e-06 0.00828085)
(9.76398 4.81029e-06 0.00800309)
(9.75617 5.55747e-06 0.00777001)
(9.74666 -2.12136e-06 0.00715618)
(9.99108 1.65478e-06 0.00341185)
(9.986 1.72629e-07 0.00848248)
(9.97557 -3.59863e-07 0.0102059)
(9.96254 1.01965e-06 0.0109444)
(9.94964 1.85871e-06 0.0113501)
(9.93719 1.92818e-06 0.0115403)
(9.92496 2.56812e-06 0.0115685)
(9.9129 5.11827e-06 0.0114968)
(9.90108 1.12032e-05 0.0113673)
(9.88952 2.26935e-05 0.0111381)
(9.87831 2.83689e-05 0.0109193)
(9.86735 2.78991e-05 0.0106849)
(9.85673 2.07186e-05 0.0104485)
(9.84633 1.17246e-05 0.0102328)
(9.8363 7.48132e-06 0.00990551)
(9.82657 1.36465e-06 0.00966047)
(9.81701 -4.40094e-06 0.00941995)
(9.80769 -7.8833e-06 0.00918219)
(9.79858 -4.49649e-06 0.00895328)
(9.78971 1.07706e-06 0.00872694)
(9.78103 6.96416e-06 0.00849648)
(9.77257 1.1184e-05 0.00824878)
(9.76429 1.4165e-05 0.00807393)
(9.75647 7.49566e-06 0.00778)
(9.74697 -2.0536e-06 0.00711593)
(9.99108 5.52379e-07 0.00341157)
(9.986 1.07912e-06 0.00848083)
(9.97557 9.54256e-07 0.0102046)
(9.96254 1.33994e-06 0.0109431)
(9.94963 1.91311e-06 0.0113485)
(9.93719 2.33302e-06 0.0115393)
(9.92496 2.74734e-06 0.0115673)
(9.91291 3.25519e-06 0.0114953)
(9.90111 4.34343e-06 0.0113605)
(9.88961 5.05108e-06 0.0111581)
(9.87847 4.50221e-06 0.0108628)
(9.86766 9.97721e-07 0.0106241)
(9.85707 -6.82073e-06 0.0103901)
(9.84672 -1.16762e-05 0.0101577)
(9.8366 -6.28771e-06 0.00992796)
(9.82676 4.01508e-06 0.00970433)
(9.8171 1.00737e-05 0.00947088)
(9.8077 1.23155e-05 0.00921441)
(9.7985 1.39456e-05 0.00905748)
(9.78954 1.52536e-05 0.00880595)
(9.78085 1.66455e-05 0.00855466)
(9.77239 1.51561e-05 0.00830271)
(9.76419 8.39052e-06 0.00802969)
(9.75643 1.90918e-06 0.00773501)
(9.74697 -4.41525e-07 0.00707206)
(9.99107 2.80122e-07 0.0034115)
(9.986 9.57422e-07 0.00848041)
(9.97557 1.19846e-06 0.0102043)
(9.96254 1.5572e-06 0.0109428)
(9.94964 2.25788e-06 0.0113485)
(9.93719 2.73104e-06 0.0115368)
(9.92496 2.59698e-06 0.011565)
(9.91289 1.29134e-06 0.0114552)
(9.90114 -2.15386e-06 0.0113299)
(9.88962 -6.57513e-06 0.0111349)
(9.87844 -2.23571e-06 0.0109055)
(9.86752 1.37459e-05 0.0106666)
(9.85691 2.6641e-05 0.0104261)
(9.8465 3.39769e-05 0.0101792)
(9.83638 3.81536e-05 0.00994635)
(9.82652 3.94125e-05 0.00977191)
(9.81694 3.23557e-05 0.00946585)
(9.80761 1.9502e-05 0.00921001)
(9.79851 4.44523e-06 0.00896756)
(9.78965 -8.81696e-06 0.00873273)
(9.78099 -1.54082e-05 0.00850246)
(9.77256 -1.7235e-05 0.00826623)
(9.76434 -1.60538e-05 0.00800372)
(9.75656 -1.09791e-05 0.00769134)
(9.74704 -4.52004e-06 0.00711044)
(9.99107 2.63709e-07 0.00341149)
(9.986 1.11364e-06 0.00848031)
(9.97557 1.66076e-06 0.0102042)
(9.96254 2.11149e-06 0.0109428)
(9.94963 2.63838e-06 0.0113484)
(9.93719 2.85739e-06 0.0115386)
(9.92496 2.85244e-06 0.0115666)
(9.91291 2.08e-06 0.0114973)
(9.90108 4.08292e-07 0.0113543)
(9.88954 -3.15961e-07 0.0111656)
(9.87829 3.55073e-06 0.0109271)
(9.86737 1.25716e-05 0.0106984)
(9.85677 2.13608e-05 0.0104573)
(9.84648 2.56937e-05 0.0101173)
(9.83652 2.20778e-05 0.00986534)
(9.82679 1.35298e-05 0.00963515)
(9.81726 6.35265e-06 0.00940864)
(9.80791 1.26394e-06 0.00918155)
(9.7988 -3.2531e-06 0.00895654)
(9.78989 -8.60826e-06 0.00872964)
(9.7812 -1.04538e-05 0.00849066)
(9.77267 -5.73927e-06 0.0083445)
(9.76438 2.30415e-06 0.00808056)
(9.75657 7.23635e-06 0.00776201)
(9.74706 7.71763e-06 0.00715252)
(9.99108 3.03444e-07 0.00341149)
(9.986 1.2921e-06 0.00848027)
(9.97557 1.96275e-06 0.0102041)
(9.96254 2.50325e-06 0.0109427)
(9.94963 2.85426e-06 0.0113484)
(9.93719 3.05724e-06 0.0115385)
(9.92496 2.76937e-06 0.0115668)
(9.91291 2.37951e-06 0.0114976)
(9.90108 6.05895e-07 0.0113559)
(9.88954 -4.45636e-06 0.0111655)
(9.87828 -1.52199e-05 0.0109345)
(9.86736 -2.62883e-05 0.010706)
(9.85675 -3.07919e-05 0.0104548)
(9.84647 -2.73879e-05 0.0101157)
(9.8365 -1.127e-05 0.00986336)
(9.82678 6.76222e-06 0.0096329)
(9.81725 1.90333e-05 0.0094063)
(9.8079 2.55994e-05 0.00917934)
(9.7988 2.85091e-05 0.00895513)
(9.78988 2.86564e-05 0.00872887)
(9.78119 2.24944e-05 0.00849039)
(9.77267 1.41907e-05 0.0083447)
(9.76437 9.30558e-06 0.00808297)
(9.75656 6.29602e-06 0.00776507)
(9.74705 5.59605e-06 0.00715422)
(9.99108 3.39645e-07 0.00341148)
(9.986 1.48754e-06 0.00848027)
(9.97557 2.30976e-06 0.0102042)
(9.96254 2.9505e-06 0.0109426)
(9.94964 3.39948e-06 0.0113483)
(9.93719 3.80039e-06 0.0115365)
(9.92496 4.07178e-06 0.0115648)
(9.91288 4.20871e-06 0.0114559)
(9.90113 4.23113e-06 0.0113311)
(9.88961 2.79479e-06 0.0111347)
(9.87842 -1.69455e-06 0.0109076)
(9.86748 -9.23239e-06 0.0106721)
(9.85684 -1.35016e-05 0.0104395)
(9.84638 -1.09531e-05 0.0102007)
(9.83626 -7.01009e-06 0.00996447)
(9.82641 -1.32578e-06 0.00977523)
(9.81684 8.20626e-06 0.00945694)
(9.80753 1.682e-05 0.00920038)
(9.79844 2.16233e-05 0.00895649)
(9.78959 2.3905e-05 0.00871973)
(9.78094 2.2741e-05 0.00848211)
(9.7725 1.7302e-05 0.0082327)
(9.76425 1.25933e-05 0.00805983)
(9.75644 8.59906e-06 0.00776656)
(9.74694 7.02234e-06 0.00710372)
(9.99108 3.7045e-07 0.00341148)
(9.986 1.67265e-06 0.00848026)
(9.97557 2.62396e-06 0.0102042)
(9.96254 3.42121e-06 0.0109426)
(9.94964 4.08838e-06 0.0113483)
(9.93719 4.78264e-06 0.0115387)
(9.92496 5.81189e-06 0.011567)
(9.9129 7.59085e-06 0.0114931)
(9.90108 1.04843e-05 0.0113641)
(9.88952 1.39958e-05 0.0111311)
(9.87832 1.54626e-05 0.0109106)
(9.86739 1.38794e-05 0.0106737)
(9.85679 9.78654e-06 0.0104368)
(9.84638 3.79856e-06 0.010231)
(9.83636 -5.07782e-06 0.00990863)
(9.82663 -1.10221e-05 0.00966247)
(9.81707 -9.06364e-06 0.00941648)
(9.80777 -3.27767e-06 0.00917279)
(9.79868 2.78765e-06 0.00893778)
(9.78983 9.39228e-06 0.00870897)
(9.78117 1.40809e-05 0.00847819)
(9.77272 1.31265e-05 0.0082326)
(9.76446 5.62946e-06 0.00806331)
(9.75664 -2.02039e-06 0.00777237)
(9.74714 -2.89281e-06 0.00711097)
(9.99108 3.97468e-07 0.00341148)
(9.986 1.80888e-06 0.00848024)
(9.97557 2.85253e-06 0.0102041)
(9.96254 3.86346e-06 0.0109426)
(9.94964 4.72535e-06 0.0113482)
(9.93719 5.69501e-06 0.0115366)
(9.92496 7.30179e-06 0.011565)
(9.91289 1.07467e-05 0.0114552)
(9.90114 1.70434e-05 0.0113302)
(9.88962 2.32066e-05 0.0111344)
(9.87844 2.23346e-05 0.0109065)
(9.86751 1.19032e-05 0.0106685)
(9.85688 -2.74205e-06 0.0104293)
(9.84645 -1.81158e-05 0.0101858)
(9.83635 -3.04509e-05 0.00995382)
(9.82649 -3.83069e-05 0.00977836)
(9.81689 -3.06046e-05 0.00946627)
(9.80757 -1.68753e-05 0.0092013)
(9.79849 -5.53132e-06 0.00895117)
(9.78966 4.48746e-06 0.00871261)
(9.78103 1.32116e-05 0.00848196)
(9.77263 1.86492e-05 0.00824748)
(9.76443 2.05391e-05 0.00798951)
(9.75667 1.0539e-05 0.00768186)
(9.74715 2.31396e-06 0.00710435)
(9.99108 4.03919e-07 0.00341147)
(9.986 1.89977e-06 0.0084802)
(9.97557 3.09774e-06 0.0102041)
(9.96254 4.17476e-06 0.0109426)
(9.94964 5.31802e-06 0.011348)
(9.9372 6.54117e-06 0.0115391)
(9.92496 8.22739e-06 0.0115642)
(9.91292 1.1155e-05 0.0114895)
(9.90113 1.58604e-05 0.0113467)
(9.88966 2.43599e-05 0.0111005)
(9.87853 3.31033e-05 0.0108788)
(9.86764 3.93025e-05 0.0106426)
(9.85705 4.13146e-05 0.0104081)
(9.84663 3.04729e-05 0.0101692)
(9.83654 1.02156e-05 0.00994069)
(9.82664 -1.16288e-05 0.00971528)
(9.81699 -3.03169e-05 0.00946141)
(9.80757 -4.02498e-05 0.00929229)
(9.79841 -4.51983e-05 0.00902253)
(9.78953 -4.60628e-05 0.00876368)
(9.78088 -3.72785e-05 0.00851557)
(9.77248 -2.24578e-05 0.00826967)
(9.76429 -8.17075e-06 0.00800725)
(9.75655 1.68345e-06 0.00769616)
(9.7471 3.10648e-06 0.00709097)
(9.99108 3.97955e-07 0.00341146)
(9.986 1.93897e-06 0.00848023)
(9.97557 3.23036e-06 0.0102041)
(9.96255 4.38892e-06 0.0109426)
(9.94964 5.5163e-06 0.0113482)
(9.9372 6.60389e-06 0.0115385)
(9.92497 8.07172e-06 0.0115662)
(9.91292 1.00857e-05 0.0114965)
(9.90109 1.38335e-05 0.0113526)
(9.88955 1.84777e-05 0.0111637)
(9.87829 2.31605e-05 0.0109214)
(9.86738 2.49249e-05 0.010695)
(9.85675 2.18438e-05 0.0104613)
(9.84644 1.42303e-05 0.0101252)
(9.83647 2.74442e-06 0.00987931)
(9.82671 -1.00185e-05 0.00964984)
(9.81714 -2.15983e-05 0.00941899)
(9.80779 -2.98463e-05 0.00918854)
(9.79867 -3.201e-05 0.00896068)
(9.78976 -2.91172e-05 0.00873113)
(9.78107 -2.38256e-05 0.00849003)
(9.77255 -1.61557e-05 0.00834111)
(9.76428 -8.00149e-06 0.00807582)
(9.75648 -1.18859e-06 0.00775755)
(9.74699 -1.23123e-07 0.00714659)
(9.99108 3.77358e-07 0.00341146)
(9.986 1.8725e-06 0.00848019)
(9.97557 3.27961e-06 0.0102041)
(9.96255 4.48709e-06 0.0109426)
(9.94964 5.42734e-06 0.0113479)
(9.9372 6.43832e-06 0.0115385)
(9.92497 7.18537e-06 0.0115662)
(9.91292 7.80286e-06 0.0114937)
(9.90112 9.17247e-06 0.0113569)
(9.88961 9.13209e-06 0.0111552)
(9.87847 4.23291e-06 0.010861)
(9.86764 -5.45502e-06 0.0106234)
(9.85704 -1.51072e-05 0.0103884)
(9.84669 -1.83667e-05 0.0101558)
(9.83658 -1.80263e-05 0.00992979)
(9.82672 -7.95034e-06 0.00970565)
(9.81707 1.96136e-06 0.00947231)
(9.80767 6.38571e-06 0.00921433)
(9.79848 9.2496e-06 0.00905366)
(9.78954 1.18702e-05 0.00879965)
(9.78086 1.43662e-05 0.00854802)
(9.77241 1.04896e-05 0.00829801)
(9.76421 3.88606e-06 0.00802775)
(9.75645 -1.60393e-06 0.00773373)
(9.74699 -2.99354e-06 0.00707037)
(9.99108 3.44543e-07 0.00341144)
(9.986 1.74499e-06 0.00848016)
(9.97557 3.25087e-06 0.0102041)
(9.96255 4.39381e-06 0.0109423)
(9.94964 5.45533e-06 0.011348)
(9.9372 6.25596e-06 0.0115378)
(9.92497 6.86047e-06 0.0115641)
(9.91291 7.12404e-06 0.0114861)
(9.90111 6.86227e-06 0.0113045)
(9.88966 9.06248e-06 0.0111252)
(9.87844 1.54375e-05 0.0108948)
(9.86755 2.28232e-05 0.0106597)
(9.85686 2.72495e-05 0.0104211)
(9.84644 2.70385e-05 0.0101874)
(9.83629 2.13366e-05 0.00996147)
(9.82642 1.09859e-05 0.00972518)
(9.81677 -5.6975e-07 0.00954988)
(9.80741 -1.30115e-05 0.00925272)
(9.79834 -2.32292e-05 0.00898578)
(9.78949 -2.80437e-05 0.00873738)
(9.78088 -2.79051e-05 0.0084969)
(9.77248 -2.35576e-05 0.00825665)
(9.76431 -1.7538e-05 0.00799622)
(9.75656 -8.53341e-06 0.00769595)
(9.7471 -1.11121e-06 0.00703283)
(9.99108 2.92788e-07 0.00341144)
(9.986 1.58729e-06 0.0084802)
(9.97557 3.0879e-06 0.010204)
(9.96255 4.11308e-06 0.0109425)
(9.94964 5.17654e-06 0.0113479)
(9.9372 5.92236e-06 0.011538)
(9.92497 6.51977e-06 0.0115661)
(9.91292 6.46494e-06 0.011495)
(9.90111 4.85364e-06 0.0113508)
(9.88959 5.91148e-06 0.0111649)
(9.87838 1.91201e-05 0.0109294)
(9.86755 3.41218e-05 0.010612)
(9.85702 4.31399e-05 0.0103655)
(9.84668 4.65119e-05 0.0101245)
(9.83666 4.21604e-05 0.00989974)
(9.82682 2.18503e-05 0.00967957)
(9.8172 -1.38021e-06 0.00945137)
(9.8078 -2.08392e-05 0.00921571)
(9.79865 -3.17387e-05 0.00896622)
(9.78969 -3.87535e-05 0.00881949)
(9.78096 -4.12765e-05 0.00857653)
(9.77248 -3.6467e-05 0.00832569)
(9.76424 -2.2689e-05 0.00805601)
(9.75647 -5.365e-06 0.00773562)
(9.74699 2.49712e-06 0.00712518)
(9.99108 2.09049e-07 0.00341143)
(9.986 1.30985e-06 0.00848032)
(9.97557 2.93006e-06 0.0102041)
(9.96255 3.85082e-06 0.0109425)
(9.94964 4.55784e-06 0.0113481)
(9.9372 5.27357e-06 0.0115381)
(9.92497 5.60473e-06 0.0115654)
(9.91292 4.74667e-06 0.0114952)
(9.90109 1.47545e-06 0.0113508)
(9.88956 -3.20184e-06 0.0111618)
(9.87829 -2.03736e-06 0.0109196)
(9.86738 9.15229e-06 0.0106903)
(9.85675 2.35094e-05 0.0104523)
(9.84645 3.12474e-05 0.0101146)
(9.83649 3.18361e-05 0.00986996)
(9.82674 2.9663e-05 0.00964142)
(9.81719 2.21602e-05 0.00941093)
(9.80785 1.2812e-05 0.00917986)
(9.79875 7.88942e-07 0.00895276)
(9.78985 -1.18075e-05 0.00872619)
(9.78117 -1.9991e-05 0.00848697)
(9.77266 -2.0894e-05 0.00834046)
(9.76438 -1.86993e-05 0.00807672)
(9.75658 -1.12547e-05 0.0077589)
(9.74708 -2.87253e-06 0.00714975)
(9.99108 -1.75122e-07 0.00341148)
(9.986 7.3028e-07 0.00848072)
(9.97557 2.22648e-06 0.0102043)
(9.96255 3.05223e-06 0.0109427)
(9.94964 3.58902e-06 0.0113481)
(9.9372 4.24275e-06 0.0115381)
(9.92497 5.15509e-06 0.0115654)
(9.91292 6.04232e-06 0.0114951)
(9.90109 6.98104e-06 0.0113501)
(9.88955 8.29563e-06 0.011162)
(9.87829 9.24016e-06 0.0109209)
(9.86738 1.07669e-05 0.010691)
(9.85673 1.27582e-05 0.0104505)
(9.84646 1.1359e-05 0.0101127)
(9.83651 5.32709e-06 0.00986962)
(9.82675 5.06242e-07 0.00963872)
(9.81721 -2.28952e-06 0.00940501)
(9.80788 -5.57095e-06 0.00917202)
(9.7988 -7.66407e-06 0.00894381)
(9.78991 -9.63058e-06 0.00871579)
(9.78124 -1.01584e-05 0.00847666)
(9.77274 -9.02708e-06 0.00833226)
(9.76447 -6.61851e-06 0.00807092)
(9.75666 -3.75696e-06 0.00775535)
(9.74717 -8.13175e-07 0.00714793)
(9.99108 -1.32096e-06 0.00341175)
(9.986 1.13596e-06 0.00848229)
(9.97557 2.67675e-06 0.0102056)
(9.96255 2.19853e-06 0.0109439)
(9.94964 2.20826e-06 0.0113493)
(9.9372 3.17345e-06 0.0115391)
(9.92497 4.81576e-06 0.0115662)
(9.91292 7.23313e-06 0.0114955)
(9.9011 1.32752e-05 0.0113493)
(9.88956 1.9343e-05 0.0111618)
(9.8783 2.09793e-05 0.0109144)
(9.86739 1.17825e-05 0.010682)
(9.85673 -9.2914e-07 0.0104485)
(9.84646 -1.15908e-05 0.0101153)
(9.83651 -1.8689e-05 0.00987565)
(9.82673 -2.15076e-05 0.00964634)
(9.81718 -2.17084e-05 0.00941368)
(9.80784 -1.78063e-05 0.00918141)
(9.79875 -1.13673e-05 0.00895365)
(9.78986 -2.85665e-06 0.00872469)
(9.78119 2.11862e-06 0.0084836)
(9.77269 3.78291e-06 0.00833597)
(9.76441 2.95414e-06 0.00807204)
(9.75661 -2.1509e-06 0.00775452)
(9.74711 -3.46669e-06 0.00714536)
(9.99108 -1.15694e-05 0.00341348)
(9.986 -1.93528e-06 0.00848404)
(9.97558 3.05743e-06 0.0102064)
(9.96255 5.34274e-07 0.0109443)
(9.94965 -2.1137e-08 0.0113491)
(9.93721 1.58983e-06 0.0115391)
(9.92497 3.55941e-06 0.011566)
(9.91293 6.11231e-06 0.0114926)
(9.90113 1.13497e-05 0.0113554)
(9.88963 1.8065e-05 0.0111505)
(9.87847 2.13947e-05 0.0108525)
(9.86766 2.20634e-05 0.0106087)
(9.85705 1.36867e-05 0.0103649)
(9.84675 5.05317e-06 0.0101312)
(9.83667 -4.28663e-08 0.00991078)
(9.82682 -6.23473e-06 0.00969142)
(9.81717 -1.259e-05 0.00946142)
(9.80779 -1.62005e-05 0.00921083)
(9.7986 -1.5574e-05 0.00905862)
(9.78966 -1.06096e-05 0.00880976)
(9.78097 -4.07576e-06 0.00856119)
(9.77251 -4.28631e-07 0.00831167)
(9.76429 1.87944e-06 0.00803904)
(9.75652 -9.48635e-08 0.00774363)
(9.74704 1.75058e-06 0.00707875)
(9.9911 -9.29259e-06 0.00342423)
(9.98604 -2.7329e-06 0.00850353)
(9.97559 1.29514e-06 0.010219)
(9.96257 -7.3006e-07 0.0109535)
(9.94966 -8.49596e-07 0.0113562)
(9.93723 1.41391e-07 0.0115431)
(9.925 1.1373e-06 0.0115687)
(9.91295 2.03709e-06 0.0114962)
(9.90113 2.94321e-06 0.0113544)
(9.8896 5.02375e-06 0.0111412)
(9.87838 1.11051e-05 0.0109233)
(9.86748 1.70795e-05 0.010681)
(9.85693 1.91599e-05 0.0103467)
(9.84667 1.90364e-05 0.0100966)
(9.83668 1.95157e-05 0.0098706)
(9.82692 1.27108e-05 0.00965514)
(9.81732 1.78305e-06 0.00943209)
(9.80796 -7.94555e-06 0.00920411)
(9.79881 -1.36812e-05 0.00897414)
(9.78989 -1.65933e-05 0.00873253)
(9.78115 -1.4916e-05 0.00858823)
(9.77264 -1.07236e-05 0.0083416)
(9.76439 -6.04775e-06 0.00806831)
(9.75659 -2.5528e-06 0.00776327)
(9.74711 4.32005e-06 0.0070884)
(10.0012 -2.62728e-06 0.00553089)
(10.0059 -9.33678e-06 0.0111437)
(10.011 -8.9969e-06 0.013199)
(10.0128 -5.80096e-06 0.0135219)
(10.0142 -3.06735e-06 0.0135496)
(10.0154 -1.76996e-06 0.0134098)
(10.0163 -8.98072e-07 0.013148)
(10.017 5.64581e-07 0.0128206)
(10.0174 1.4952e-06 0.012476)
(10.0176 1.81442e-06 0.0121123)
(10.0177 1.6367e-06 0.0117522)
(10.0176 7.18367e-08 0.0113962)
(10.0175 -2.33161e-06 0.0110573)
(10.0172 -6.68116e-06 0.0107437)
(10.0168 -1.33624e-05 0.0104619)
(10.0164 -1.82762e-05 0.0102053)
(10.0159 -2.06837e-05 0.00995527)
(10.0154 -1.77178e-05 0.00971322)
(10.0148 -1.19965e-05 0.00948344)
(10.0141 -4.92836e-06 0.00926738)
(10.0134 2.77367e-06 0.00905626)
(10.0127 1.03397e-05 0.00884693)
(10.0118 1.43541e-05 0.00857035)
(10.011 1.43769e-05 0.00839034)
(10.0095 1.16235e-05 0.00736197)
(10.0012 -2.95757e-06 0.0055231)
(10.0059 -1.16213e-05 0.0111427)
(10.011 -1.03448e-05 0.0132032)
(10.0128 -5.60947e-06 0.0135236)
(10.0142 -2.1294e-06 0.0135507)
(10.0154 -7.08288e-07 0.0134115)
(10.0163 4.53653e-07 0.0131501)
(10.017 2.24173e-06 0.0128226)
(10.0174 4.25248e-06 0.0124794)
(10.0176 6.65027e-06 0.0121148)
(10.0177 8.01784e-06 0.0117604)
(10.0176 8.7348e-06 0.0114128)
(10.0175 1.20083e-05 0.0110837)
(10.0172 1.18943e-05 0.0107736)
(10.0168 6.71647e-06 0.0104888)
(10.0164 3.40501e-06 0.010232)
(10.0159 2.49507e-06 0.00998006)
(10.0153 1.17908e-06 0.00972885)
(10.0147 -1.3408e-06 0.00948803)
(10.014 -2.73949e-06 0.00926144)
(10.0133 -3.19709e-06 0.00904255)
(10.0125 -1.67012e-06 0.00882886)
(10.0117 2.09941e-07 0.0085525)
(10.0109 1.94696e-06 0.00837189)
(10.0094 7.08807e-08 0.00735112)
(10.0012 -4.82753e-07 0.00552206)
(10.006 -1.70713e-06 0.0111431)
(10.011 -1.47916e-06 0.0132072)
(10.0128 -7.42646e-08 0.0135239)
(10.0142 9.03196e-07 0.0135507)
(10.0154 1.30697e-06 0.0134115)
(10.0163 2.23363e-06 0.0131497)
(10.017 3.92156e-06 0.0128213)
(10.0174 7.59591e-06 0.012475)
(10.0176 1.31178e-05 0.0121092)
(10.0177 1.83897e-05 0.0117491)
(10.0176 1.98218e-05 0.0113975)
(10.0175 2.05653e-05 0.0110553)
(10.0172 1.83918e-05 0.0107363)
(10.0168 9.87343e-06 0.0104627)
(10.0164 5.32681e-06 0.0102115)
(10.0159 4.25886e-06 0.00995704)
(10.0154 5.62843e-07 0.00971235)
(10.0148 -3.14735e-06 0.00948206)
(10.0141 -4.08397e-06 0.00926491)
(10.0134 -3.40692e-06 0.0090523)
(10.0127 1.54401e-06 0.00884201)
(10.0118 9.66029e-06 0.0085663)
(10.011 1.46937e-05 0.00838651)
(10.0095 1.18491e-05 0.0073653)
(10.0012 7.65903e-08 0.0055217)
(10.0059 -1.06014e-07 0.011143)
(10.011 -2.67818e-07 0.0132066)
(10.0128 1.1347e-07 0.0135243)
(10.0142 6.90508e-07 0.0135511)
(10.0154 1.23122e-06 0.013412)
(10.0164 1.81389e-06 0.01315)
(10.017 2.9405e-06 0.0128206)
(10.0174 3.84224e-06 0.0124726)
(10.0176 4.17969e-06 0.0121009)
(10.0177 5.06867e-06 0.0117372)
(10.0177 5.60463e-06 0.0113921)
(10.0175 4.04967e-06 0.0110631)
(10.0173 -8.6997e-07 0.0107553)
(10.0169 -7.50814e-06 0.0104862)
(10.0165 -1.05003e-05 0.0102378)
(10.0159 -2.57702e-06 0.00998268)
(10.0154 5.20011e-06 0.00973191)
(10.0148 1.0679e-05 0.00949158)
(10.0141 1.33961e-05 0.00926278)
(10.0134 1.54668e-05 0.00903905)
(10.0126 1.85189e-05 0.00882046)
(10.0118 2.1527e-05 0.00854222)
(10.011 1.87765e-05 0.00836418)
(10.0095 9.14117e-06 0.0073506)
(10.0012 1.73379e-07 0.00552161)
(10.0059 5.79725e-07 0.011143)
(10.011 8.99256e-07 0.0132065)
(10.0128 1.33303e-06 0.0135246)
(10.0142 1.86215e-06 0.0135512)
(10.0154 2.24949e-06 0.0134119)
(10.0164 1.99224e-06 0.0131502)
(10.017 8.63322e-07 0.0128212)
(10.0174 -1.85554e-06 0.0124754)
(10.0176 -6.347e-06 0.0121059)
(10.0177 -9.97757e-06 0.0117461)
(10.0177 -7.19753e-06 0.0113986)
(10.0175 1.45491e-06 0.0110638)
(10.0172 1.1152e-05 0.0107469)
(10.0169 1.67037e-05 0.0104705)
(10.0164 2.3271e-05 0.0102188)
(10.0159 2.8828e-05 0.00996018)
(10.0154 3.33945e-05 0.00970818)
(10.0148 3.23524e-05 0.00947357)
(10.0141 2.18549e-05 0.00925276)
(10.0134 7.92792e-06 0.00903687)
(10.0127 -4.93171e-06 0.00882588)
(10.0118 -1.03539e-05 0.00855444)
(10.0111 -1.36076e-05 0.0083811)
(10.0096 -1.197e-05 0.00736363)
(10.0012 2.45416e-07 0.00552159)
(10.0059 9.54479e-07 0.011143)
(10.011 1.5053e-06 0.0132065)
(10.0128 1.98039e-06 0.0135246)
(10.0142 2.39135e-06 0.0135512)
(10.0154 2.62462e-06 0.0134119)
(10.0163 2.36615e-06 0.0131499)
(10.017 1.21825e-06 0.0128212)
(10.0174 -5.56679e-07 0.0124743)
(10.0176 -3.20914e-06 0.0121076)
(10.0177 -4.40029e-06 0.0117427)
(10.0176 -2.43166e-06 0.011387)
(10.0174 3.51837e-06 0.0110446)
(10.0172 1.19485e-05 0.0107279)
(10.0168 1.6686e-05 0.0104567)
(10.0164 1.94426e-05 0.0102077)
(10.0159 1.79041e-05 0.0099545)
(10.0153 1.58856e-05 0.00971137)
(10.0148 1.23993e-05 0.00948402)
(10.0141 6.55354e-06 0.00926854)
(10.0134 -1.01539e-06 0.00905449)
(10.0127 -7.63779e-06 0.00883963)
(10.0118 -8.18481e-06 0.00856175)
(10.011 -2.66313e-06 0.00838141)
(10.0095 3.66163e-06 0.00736133)
(10.0012 2.94363e-07 0.00552158)
(10.0059 1.18128e-06 0.011143)
(10.011 1.89004e-06 0.0132064)
(10.0128 2.4619e-06 0.0135247)
(10.0142 2.86652e-06 0.0135512)
(10.0154 3.10753e-06 0.0134119)
(10.0163 3.18285e-06 0.01315)
(10.017 3.20061e-06 0.0128215)
(10.0174 2.65366e-06 0.0124751)
(10.0176 1.58446e-06 0.0121092)
(10.0177 -1.82835e-06 0.0117449)
(10.0176 -6.78286e-06 0.0113893)
(10.0174 -1.33557e-05 0.0110463)
(10.0172 -1.80389e-05 0.0107271)
(10.0168 -1.80469e-05 0.0104539)
(10.0164 -1.07158e-05 0.0102047)
(10.0159 2.16527e-07 0.0099507)
(10.0153 9.51711e-06 0.00970707)
(10.0148 1.66847e-05 0.00948081)
(10.0141 2.13044e-05 0.00926725)
(10.0134 2.37681e-05 0.00905525)
(10.0127 2.32421e-05 0.00884141)
(10.0118 1.49063e-05 0.0085632)
(10.0111 9.11706e-06 0.00838191)
(10.0095 5.69904e-06 0.00736045)
(10.0012 3.36826e-07 0.00552157)
(10.0059 1.37655e-06 0.011143)
(10.011 2.23292e-06 0.0132064)
(10.0128 2.9244e-06 0.0135247)
(10.0142 3.42819e-06 0.0135513)
(10.0154 3.8464e-06 0.013412)
(10.0163 4.30221e-06 0.0131505)
(10.017 4.70182e-06 0.0128223)
(10.0174 5.37196e-06 0.0124782)
(10.0176 6.71103e-06 0.0121118)
(10.0177 5.56064e-06 0.0117561)
(10.0177 2.20326e-06 0.0114113)
(10.0175 -4.80302e-06 0.0110748)
(10.0172 -1.04139e-05 0.0107538)
(10.0169 -7.12098e-06 0.0104719)
(10.0164 -3.44931e-06 0.0102128)
(10.0159 -1.40514e-06 0.00994883)
(10.0153 3.36814e-07 0.00969517)
(10.0147 4.26396e-06 0.00946203)
(10.0141 9.68957e-06 0.00924545)
(10.0134 1.46317e-05 0.00903482)
(10.0127 1.76211e-05 0.00882639)
(10.0119 1.31774e-05 0.00855292)
(10.011 8.91049e-06 0.00837616)
(10.0095 4.91235e-06 0.00735816)
(10.0012 3.70328e-07 0.00552156)
(10.0059 1.5475e-06 0.0111429)
(10.011 2.54077e-06 0.0132063)
(10.0129 3.37072e-06 0.0135246)
(10.0142 4.07166e-06 0.0135512)
(10.0154 4.83768e-06 0.013412)
(10.0163 5.92164e-06 0.0131502)
(10.017 7.6161e-06 0.0128221)
(10.0174 1.01827e-05 0.0124765)
(10.0176 1.30823e-05 0.0121106)
(10.0177 1.51464e-05 0.0117513)
(10.0176 1.53115e-05 0.0114016)
(10.0175 1.14835e-05 0.0110621)
(10.0172 5.10177e-06 0.0107428)
(10.0168 7.22256e-07 0.010463)
(10.0164 -3.59742e-06 0.0102036)
(10.0159 -1.00181e-05 0.00994363)
(10.0154 -1.46204e-05 0.00969604)
(10.0148 -1.47239e-05 0.00946447)
(10.0141 -1.09366e-05 0.00924762)
(10.0134 -3.26837e-06 0.00903646)
(10.0127 6.5855e-06 0.00882824)
(10.0118 1.34402e-05 0.00855531)
(10.011 1.25014e-05 0.0083791)
(10.0095 5.7629e-06 0.0073604)
(10.0012 3.92359e-07 0.00552155)
(10.0059 1.67837e-06 0.0111429)
(10.011 2.78851e-06 0.0132063)
(10.0129 3.76281e-06 0.0135246)
(10.0142 4.67071e-06 0.0135512)
(10.0154 5.75168e-06 0.0134119)
(10.0164 7.54011e-06 0.0131501)
(10.017 1.08049e-05 0.0128214)
(10.0174 1.61508e-05 0.0124758)
(10.0176 2.09897e-05 0.0121074)
(10.0177 2.32093e-05 0.0117509)
(10.0177 2.19846e-05 0.0114052)
(10.0175 1.6051e-05 0.011072)
(10.0173 4.82211e-06 0.0107594)
(10.0169 -9.32139e-06 0.0104795)
(10.0164 -2.41715e-05 0.0102144)
(10.0159 -3.34615e-05 0.00995044)
(10.0154 -3.99342e-05 0.00969871)
(10.0147 -3.52107e-05 0.00946155)
(10.0141 -2.54792e-05 0.00923902)
(10.0134 -1.10765e-05 0.00902339)
(10.0126 4.33812e-06 0.00881426)
(10.0118 1.76607e-05 0.0085452)
(10.011 2.57403e-05 0.00837461)
(10.0095 1.93024e-05 0.00735917)
(10.0012 3.98689e-07 0.00552153)
(10.0059 1.76035e-06 0.0111429)
(10.011 2.98334e-06 0.0132062)
(10.0129 4.056e-06 0.0135245)
(10.0142 5.10768e-06 0.0135511)
(10.0154 6.2513e-06 0.0134118)
(10.0164 7.69474e-06 0.0131495)
(10.017 9.47985e-06 0.0128206)
(10.0174 1.24152e-05 0.0124719)
(10.0176 1.55475e-05 0.012099)
(10.0177 1.93392e-05 0.0117395)
(10.0177 2.29775e-05 0.0113961)
(10.0175 2.68674e-05 0.0110685)
(10.0173 2.96965e-05 0.010764)
(10.0169 2.33826e-05 0.0104922)
(10.0164 1.11064e-05 0.010235)
(10.016 -5.04932e-06 0.00997491)
(10.0154 -1.86478e-05 0.00971902)
(10.0147 -2.83091e-05 0.00947514)
(10.0141 -3.38401e-05 0.00924517)
(10.0133 -3.5607e-05 0.00902152)
(10.0126 -3.63065e-05 0.00880482)
(10.0117 -2.7101e-05 0.00853047)
(10.011 -1.39375e-05 0.00835825)
(10.0095 -2.59053e-06 0.00734859)
(10.0012 3.90407e-07 0.00552151)
(10.006 1.80339e-06 0.0111428)
(10.011 3.07956e-06 0.0132061)
(10.0129 4.21882e-06 0.0135244)
(10.0142 5.3019e-06 0.0135508)
(10.0154 6.33854e-06 0.0134113)
(10.0164 7.43683e-06 0.0131487)
(10.017 8.78199e-06 0.0128186)
(10.0174 1.05527e-05 0.012469)
(10.0176 1.36516e-05 0.012099)
(10.0177 1.86087e-05 0.0117346)
(10.0176 2.01885e-05 0.0113809)
(10.0174 1.89758e-05 0.0110425)
(10.0172 1.54588e-05 0.0107336)
(10.0169 9.23777e-06 0.0104677)
(10.0164 9.29647e-07 0.0102188)
(10.0159 -8.08186e-06 0.00996581)
(10.0154 -1.73212e-05 0.00972075)
(10.0148 -2.5688e-05 0.00948818)
(10.0142 -2.7965e-05 0.00926776)
(10.0135 -2.52042e-05 0.00904997)
(10.0127 -1.96154e-05 0.00883311)
(10.0118 -1.27806e-05 0.00855478)
(10.011 -5.17208e-06 0.00837587)
(10.0095 7.01062e-07 0.00735908)
(10.0012 3.68628e-07 0.00552149)
(10.006 1.77572e-06 0.0111428)
(10.011 3.08458e-06 0.0132061)
(10.0129 4.26491e-06 0.0135242)
(10.0142 5.28876e-06 0.0135506)
(10.0154 6.25186e-06 0.013411)
(10.0164 7.10179e-06 0.0131483)
(10.017 8.43514e-06 0.0128179)
(10.0174 1.0518e-05 0.0124678)
(10.0176 1.19153e-05 0.0120935)
(10.0177 1.26061e-05 0.0117288)
(10.0177 1.03166e-05 0.0113836)
(10.0175 2.03918e-06 0.0110571)
(10.0173 -8.22143e-06 0.0107555)
(10.0169 -1.55308e-05 0.0104898)
(10.0164 -1.99513e-05 0.0102417)
(10.0159 -2.25271e-05 0.00998724)
(10.0154 -1.95131e-05 0.00973479)
(10.0148 -1.47826e-05 0.00949146)
(10.0141 -7.88363e-06 0.00925975)
(10.0134 1.69607e-06 0.00903311)
(10.0126 1.21599e-05 0.00881226)
(10.0118 1.67814e-05 0.00853391)
(10.011 1.94775e-05 0.00835819)
(10.0095 1.42735e-05 0.0073487)
(10.0012 3.33181e-07 0.00552147)
(10.006 1.70139e-06 0.0111427)
(10.011 3.02818e-06 0.013206)
(10.0129 4.18183e-06 0.013524)
(10.0142 5.19562e-06 0.0135504)
(10.0154 6.03556e-06 0.0134107)
(10.0164 6.51351e-06 0.0131483)
(10.017 6.38851e-06 0.0128195)
(10.0174 5.59746e-06 0.012468)
(10.0176 4.88397e-06 0.0120975)
(10.0177 7.11897e-06 0.0117363)
(10.0177 1.29544e-05 0.0113912)
(10.0175 1.63343e-05 0.0110635)
(10.0173 1.75465e-05 0.0107601)
(10.0169 1.71077e-05 0.0104885)
(10.0164 1.47645e-05 0.0102336)
(10.0159 1.00299e-05 0.00997528)
(10.0153 2.91237e-06 0.00972254)
(10.0147 -5.85498e-06 0.00948136)
(10.014 -1.64252e-05 0.00925193)
(10.0133 -2.15572e-05 0.00902769)
(10.0125 -2.24975e-05 0.00880972)
(10.0117 -2.05559e-05 0.00853446)
(10.011 -1.59379e-05 0.00836136)
(10.0095 -7.8748e-06 0.00735032)
(10.0012 2.97498e-07 0.00552145)
(10.006 1.6106e-06 0.0111426)
(10.011 2.9225e-06 0.0132059)
(10.0129 4.01538e-06 0.0135238)
(10.0142 4.9667e-06 0.01355)
(10.0154 5.70158e-06 0.0134103)
(10.0164 6.08759e-06 0.0131475)
(10.017 5.14437e-06 0.0128168)
(10.0174 2.74427e-06 0.0124658)
(10.0176 1.03884e-06 0.0120919)
(10.0177 1.83328e-06 0.0117219)
(10.0176 7.46842e-06 0.0113695)
(10.0175 1.78179e-05 0.0110391)
(10.0172 2.92024e-05 0.0107381)
(10.0169 3.4879e-05 0.0104748)
(10.0164 3.47624e-05 0.0102291)
(10.016 2.84566e-05 0.00998226)
(10.0154 1.52888e-05 0.00974012)
(10.0148 1.35523e-06 0.00950587)
(10.0141 -1.34333e-05 0.00927791)
(10.0134 -2.9009e-05 0.00905089)
(10.0126 -3.83801e-05 0.00882738)
(10.0118 -4.07761e-05 0.00854457)
(10.011 -3.55561e-05 0.00836323)
(10.0095 -2.07655e-05 0.0073486)
(10.0012 2.95716e-07 0.00552143)
(10.006 1.56945e-06 0.0111426)
(10.011 2.90362e-06 0.0132059)
(10.0129 3.8613e-06 0.0135236)
(10.0142 4.53429e-06 0.0135496)
(10.0154 5.11976e-06 0.0134097)
(10.0164 5.36812e-06 0.0131468)
(10.017 4.58166e-06 0.0128167)
(10.0174 2.64436e-06 0.0124674)
(10.0176 -9.43611e-07 0.0120963)
(10.0177 -4.28469e-06 0.0117281)
(10.0176 -5.28755e-06 0.0113686)
(10.0174 1.49102e-06 0.0110261)
(10.0172 1.11343e-05 0.0107174)
(10.0168 1.77967e-05 0.0104535)
(10.0164 2.01406e-05 0.0102088)
(10.0159 1.97019e-05 0.00996296)
(10.0154 1.69866e-05 0.00972533)
(10.0148 1.33731e-05 0.00949861)
(10.0142 7.181e-06 0.00928134)
(10.0135 -5.20473e-06 0.00906379)
(10.0127 -1.6935e-05 0.00884435)
(10.0118 -2.21563e-05 0.0085621)
(10.011 -2.38591e-05 0.00837833)
(10.0095 -1.72731e-05 0.00735815)
(10.0012 3.49571e-07 0.00552149)
(10.006 1.82177e-06 0.0111425)
(10.011 3.29891e-06 0.0132058)
(10.0129 4.15886e-06 0.013523)