/*--------------------------------*- C++ -*----------------------------------*\
  =========                 |
  \\      /  F ield         | OpenFOAM: The Open Source CFD Toolbox
   \\    /   O peration     | Website:  https://openfoam.org
    \\  /    A nd           | Version:  12
     \\/     M anipulation  |
\*---------------------------------------------------------------------------*/
FoamFile
{
    format      ascii;
    class       surfaceScalarField;
    location    "16.1";
    object      phi;
}
// * * * * * * * * * * * * * * * * * * * * * * * * * * * * * * * * * * * * * //

dimensions      [1 0 -1 0 0 0 0];

internalField   nonuniform List<scalar> 
7429
(
3.27517e-05
-3.27519e-05
6.90035e-05
-3.62521e-05
0.000104887
-3.58839e-05
0.000139701
-3.48141e-05
0.000172637
-3.29365e-05
0.0002027
-3.00637e-05
0.000228875
-2.61754e-05
0.000250128
-2.12531e-05
0.000265381
-1.52529e-05
0.000273419
-8.03873e-06
0.000272464
9.54345e-07
0.000263143
9.32123e-06
0.000248916
1.42264e-05
0.000229155
1.97601e-05
0.000204048
2.51072e-05
0.000174105
2.99428e-05
0.000139835
3.42692e-05
0.000102018
3.78173e-05
6.16525e-05
4.03649e-05
1.98802e-05
4.17721e-05
-2.20121e-05
4.1892e-05
-6.26764e-05
4.0664e-05
-0.00010069
3.80131e-05
-0.000134614
3.39243e-05
-0.000163168
2.85538e-05
-0.000184875
2.17069e-05
-0.000198718
1.38428e-05
-0.000203686
4.96765e-06
-0.000191795
-1.18912e-05
-0.000164999
-2.67968e-05
-0.000123672
-4.13271e-05
-6.80151e-05
-5.56565e-05
1.68637e-06
-6.97016e-05
8.49987e-05
-8.33124e-05
0.000181443
-9.64446e-05
0.000290254
-0.000108811
0.00041038
-0.000120126
0.000540635
-0.000130255
0.000679988
-0.000139353
0.000827217
-0.000147229
0.000980863
-0.000153646
0.00113953
-0.000158665
0.0013014
-0.000161876
0.00146416
-0.00016276
0.00162563
-0.000161464
0.00178362
-0.000157991
0.00193502
-0.000151396
0.00207719
-0.000142177
0.00220782
-0.000130623
0.0023246
-0.000116784
0.00242456
-9.99552e-05
0.00250506
-8.05068e-05
0.00256392
-5.8854e-05
0.00259804
-3.41231e-05
0.00260495
-6.91018e-06
0.00258053
2.44185e-05
0.0025254
5.51334e-05
0.0024387
8.67013e-05
0.00232075
0.000117947
0.00217136
0.000149393
0.00199154
0.000179814
0.00178188
0.00020966
0.0015436
0.000238288
0.00127813
0.000265466
0.000987377
0.000290754
0.000673873
0.000313504
0.000340583
0.00033329
-8.90682e-06
0.00034949
-0.000370438
0.000361532
-0.000739549
0.000369111
-0.00111162
0.000372066
-0.00148107
0.000369458
-0.00184251
0.000361439
-0.00219022
0.000347706
-0.00251847
0.000328248
-0.00282115
0.000302688
-0.00309285
0.0002717
-0.00332761
0.000234754
-0.00352051
0.000192907
-0.00366659
0.000146076
-0.00376209
9.55029e-05
-0.00380364
4.15432e-05
-0.00378329
-2.0342e-05
-0.00369849
-8.48028e-05
-0.00355117
-0.000147322
-0.00334266
-0.000208509
-0.00307597
-0.00026669
-0.00275416
-0.000321806
-0.00238145
-0.000372717
-0.00196315
-0.000418297
-0.00150582
-0.000457327
-0.00101741
-0.000488417
-0.000507238
-0.000510168
1.47605e-05
-0.000521999
0.000537253
-0.000522493
0.0010487
-0.000511447
0.00153709
-0.00048839
0.00199017
-0.000453076
0.00239651
-0.00040634
0.00274482
-0.000348319
0.00302491
-0.000280088
0.00322832
-0.000203409
0.00334766
-0.000119342
0.00337989
-3.22238e-05
0.00330992
6.99717e-05
0.00314523
0.000164684
0.00289115
0.000254085
0.00255386
0.000337287
0.00214189
0.000411972
0.00166594
0.000475946
0.00114036
0.000525584
0.000581345
0.000559013
6.8474e-06
0.000574498
-0.000563002
0.000569849
-0.00110769
0.000544686
-0.00160709
0.000499398
-0.00204175
0.000434664
-0.00239391
0.000352159
-0.00264863
0.000254718
-0.0027955
0.000146875
-0.00282749
3.19914e-05
-0.00272846
-9.90343e-05
-0.00251121
-0.000217252
-0.0021861
-0.000325108
-0.00176706
-0.000419036
-0.0012718
-0.000495259
-0.000722919
-0.000548886
-0.00014777
-0.000575149
0.000423974
-0.000571744
0.000962617
-0.000538643
0.00143852
-0.000475898
0.00182465
-0.000386134
0.00209846
-0.000273809
0.0022431
-0.000144639
0.00224716
-4.06542e-06
0.0021005
0.000146664
0.00182074
0.000279757
0.00142674
0.000394001
0.000941995
0.000484744
0.000400065
0.00054193
-0.000161318
0.000561383
-0.000699836
0.000538518
-0.00117459
0.000474759
-0.00154682
0.000372222
-0.00178507
0.000238254
-0.00186703
8.19605e-05
-0.00176911
-9.79165e-05
-0.001501
-0.000268111
-0.00108381
-0.000417191
-0.00054718
-0.000536633
6.75224e-05
-0.000614702
0.000711853
-0.000644331
0.00132679
-0.000614936
0.00185672
-0.000529926
0.00225178
-0.000395063
0.00247309
-0.000221313
0.00249733
-2.42415e-05
0.00230211
0.000195225
0.00191626
0.000385848
0.00137384
0.000542417
0.000725245
0.000648598
3.33487e-05
0.000691896
-0.000625052
0.000658401
-0.00118551
0.000560455
-0.00158727
0.000401766
-0.00178805
0.000200773
-0.00176183
-2.62177e-05
-0.00151393
-0.0002479
-0.00108257
-0.000431362
-0.000521162
-0.000561404
9.84573e-05
-0.00061962
0.000693888
-0.00059543
0.0011882
-0.000494314
0.00151797
-0.000329764
0.00164298
-0.000125016
0.00154311
9.98739e-05
0.00124692
0.000296192
0.000803269
0.000443647
0.000282322
0.000520947
-0.000233616
0.000515938
-0.000663069
0.000429454
-0.000942635
0.000279565
-0.00103654
9.39031e-05
-0.000934421
-0.000102116
-0.000674125
-0.000260296
-0.000313913
-0.000360212
6.83123e-05
-0.000382225
0.000388472
-0.00032016
0.000578467
-0.000189995
0.000597377
-1.89105e-05
0.000428924
0.000168453
0.000111231
0.000317693
-0.000296146
0.000407377
-0.000707049
0.000410903
-0.00103614
0.000329089
-0.00120897
0.000172835
-0.00117707
-3.1907e-05
-0.000935978
-0.000241089
-0.000519701
-0.000416277
-0.000519701
0.000133307
-0.00016606
0.000276285
-0.00017923
0.000417965
-0.000177565
0.000556577
-0.000173427
0.000690627
-0.000166986
0.00081886
-0.000158297
0.000939997
-0.000147314
0.00105306
-0.000134313
0.00115726
-0.000119459
0.0012524
-0.000103177
0.00133919
-8.58344e-05
0.00141652
-6.80127e-05
0.00148067
-4.99245e-05
0.00153226
-3.18339e-05
0.00157193
-1.45605e-05
0.00160157
2.99558e-07
0.00161861
1.72358e-05
0.00162029
3.61315e-05
0.00160869
5.19702e-05
0.0015872
6.32587e-05
0.00155676
7.23311e-05
0.00152075
7.66761e-05
0.00148182
7.69409e-05
0.0014427
7.30486e-05
0.00140671
6.4536e-05
0.00137603
5.2386e-05
0.00135427
3.56044e-05
0.00134427
1.49698e-05
0.00133563
-3.25581e-06
0.00133109
-2.22483e-05
0.0013353
-4.55432e-05
0.00135176
-7.21198e-05
0.00138262
-0.000100559
0.00142908
-0.00012977
0.00149149
-0.000158852
0.00156952
-0.000186843
0.00166238
-0.000212984
0.00176904
-0.000236923
0.00188782
-0.000258126
0.00201678
-0.000276196
0.00215381
-0.000290673
0.00229634
-0.000301192
0.00244182
-0.000307354
0.00258792
-0.000308864
0.00273187
-0.000305416
0.00287074
-0.000296859
0.00300232
-0.000282979
0.00312382
-0.00026367
0.0032322
-0.000239005
0.00332441
-0.000208996
0.00339841
-0.000173949
0.00345184
-0.000133943
0.00348193
-8.89401e-05
0.00348742
-3.96189e-05
0.00345748
2.30347e-05
0.00339511
8.67843e-05
0.00330019
0.000150062
0.00317267
0.00021422
0.00301273
0.000277882
0.00282062
0.000341504
0.00259688
0.000403562
0.00234211
0.000464426
0.0020576
0.000522802
0.00174489
0.000578174
0.00140585
0.000629791
0.00104311
0.000676244
0.000659907
0.000716495
0.000260148
0.00074925
-0.000151665
0.000773344
-0.000570591
0.000788037
-0.000991618
0.000793093
-0.00140888
0.000786723
-0.0018163
0.000768856
-0.00220784
0.000739248
-0.00257723
0.000697635
-0.00291777
0.000643226
-0.00322353
0.00057746
-0.00348831
0.000499536
-0.0037065
0.000411097
-0.00387294
0.000312521
-0.00398357
0.000206127
-0.00403412
9.20942e-05
-0.004017
-3.74635e-05
-0.00393142
-0.000170381
-0.00377853
-0.000300211
-0.00355972
-0.000427317
-0.00327692
-0.000549494
-0.00293342
-0.000665298
-0.00253375
-0.000772395
-0.00208387
-0.000868175
-0.00159113
-0.000950064
-0.00106447
-0.00101508
-0.000514054
-0.00106058
4.91131e-05
-0.00108517
0.000612638
-0.00108602
0.00116398
-0.00106279
0.00169002
-0.00101443
0.00217728
-0.000940337
0.0026134
-0.000842452
0.00298607
-0.00072099
0.00328429
-0.000578309
0.00349811
-0.000417228
0.0036209
-0.000242138
0.0036468
-5.81239e-05
0.00356505
0.000151727
0.00338239
0.000347346
0.00310302
0.000533448
0.00273308
0.000707226
0.00228197
0.000863088
0.00176198
0.000995936
0.00118833
0.00109924
0.000579418
0.00116792
-4.48646e-05
0.00119878
-0.00066244
0.00118742
-0.00125187
0.00113411
-0.00179034
0.00103787
-0.00225741
0.000901736
-0.00263367
0.000728413
-0.00290311
0.000524162
-0.00305185
0.000295611
-0.00307292
5.30612e-05
-0.00295679
-0.000215163
-0.00271309
-0.00046095
-0.00235158
-0.000686622
-0.00188709
-0.000883519
-0.00134059
-0.00104177
-0.000737819
-0.00115165
-0.000106611
-0.00120636
0.000519046
-0.0011974
0.00110683
-0.00112643
0.00162359
-0.000992663
0.0020404
-0.000802934
0.00233206
-0.000565473
0.00248173
-0.000294304
0.00247224
5.42001e-06
0.00230385
0.000315055
0.00199013
0.00059348
0.00154872
0.000835411
0.0010097
0.00102376
0.000406832
0.0011448
-0.000216298
0.00118451
-0.000813447
0.00113567
-0.0013386
0.000999914
-0.00175007
0.000783686
-0.00201306
0.000501252
-0.0021028
0.000171693
-0.00199769
-0.000203019
-0.00170894
-0.000556861
-0.00125509
-0.000871047
-0.000670356
-0.00112137
3.35398e-07
-0.00128539
0.000703042
-0.00134704
0.00137234
-0.00128424
0.00194768
-0.00110526
0.00237519
-0.000822578
0.00261233
-0.000458455
0.00263473
-4.66364e-05
0.00242336
0.000406597
0.00200606
0.000803141
0.00141971
0.00112877
0.00072005
0.00134826
-2.31329e-05
0.00143508
-0.000732177
0.00136744
-0.00132986
0.00115813
-0.0017534
0.000825306
-0.00195755
0.000404925
-0.00191493
-6.88324e-05
-0.00163746
-0.000525377
-0.00116251
-0.000906305
-0.000550421
-0.0011735
0.000120994
-0.00129103
0.000761042
-0.00123548
0.00128682
-0.00102009
0.0016301
-0.000673048
0.00175032
-0.000245232
0.00162945
0.000220746
0.00129811
0.000627529
0.000810615
0.000931143
0.000244829
0.00108673
-0.000308942
0.00106971
-0.000762965
0.000883476
-0.0010497
0.000566301
-0.00113196
0.000176166
-0.00100405
-0.000230025
-0.00070572
-0.000558631
-0.000302434
-0.000763499
0.000120474
-0.000805133
0.000472625
-0.000672311
0.000680544
-0.000397914
0.000700675
-3.90408e-05
0.000521181
0.000347947
0.000179791
0.000659083
-0.000257777
0.000844946
-0.000699012
0.000852137
-0.00105278
0.000682856
-0.00124118
0.000361241
-0.00121457
-5.85203e-05
-0.000968039
-0.000487621
-0.000537974
-0.000846342
-0.00105768
0.000139682
-0.000305742
0.000281395
-0.000320944
0.000418784
-0.000314954
0.000548885
-0.000303528
0.000667986
-0.000286088
0.000772037
-0.000262349
0.000854647
-0.000229924
0.000910067
-0.000189733
0.000930666
-0.000140058
0.000911051
-8.35625e-05
0.000843536
-1.832e-05
0.000733171
4.23521e-05
0.000593932
8.93139e-05
0.000425853
0.000136245
0.000230261
0.000181031
8.87317e-06
0.000221687
-0.000231215
0.000257324
-0.000481417
0.000286333
-0.000737951
0.000308503
-0.000997086
0.000322394
-0.00125232
0.000327568
-0.00149899
0.000323343
-0.00173209
0.000310041
-0.00194618
0.000287139
-0.00213764
0.000255994
-0.00230138
0.000216124
-0.0024355
0.000169722
-0.00253826
0.000117736
-0.0026046
6.30786e-05
-0.00262043
-6.41706e-06
-0.00257817
-8.77996e-05
-0.00248896
-0.000161333
-0.00235975
-0.000229769
-0.00219575
-0.000293772
-0.00200255
-0.000352048
-0.00178377
-0.000405631
-0.00154007
-0.00045668
-0.00127278
-0.00050421
-0.000983951
-0.000546957
-0.000676353
-0.000583793
-0.000353991
-0.000613035
-2.03875e-05
-0.000634795
0.00031897
-0.000646711
0.000660849
-0.000650743
0.000999957
-0.000644524
0.00133152
-0.000628423
0.00165036
-0.000601815
0.00195293
-0.00056624
0.00223616
-0.000522238
0.0024936
-0.000466433
0.00271947
-0.000399823
0.00291158
-0.000326049
0.00306996
-0.000247327
0.00318599
-0.000155647
0.00326694
-5.79094e-05
0.00330342
5.02963e-05
0.00329433
0.000159154
0.00323909
0.000269463
0.00313654
0.000380435
0.00298702
0.000491018
0.00279019
0.000600398
0.00254751
0.0007071
0.00226047
0.000809842
0.00193203
0.00090662
0.0015657
0.000996116
0.00116573
0.00107622
0.000736644
0.00114558
0.000283639
0.00120225
-0.000187438
0.00124442
-0.000670935
0.00127153
-0.0011596
0.00128175
-0.00164619
0.00127332
-0.00212316
0.00124582
-0.00258324
0.00119934
-0.00301815
0.00113254
-0.00342018
0.00104526
-0.00378116
0.000938437
-0.00409458
0.000812956
-0.00435256
0.000669079
-0.00454956
0.000509521
-0.00467939
0.000335956
-0.00473627
0.000148976
-0.00471452
-5.92184e-05
-0.00461328
-0.000271617
-0.00443271
-0.000480786
-0.00417423
-0.000685788
-0.00383968
-0.000884052
-0.00343287
-0.00107211
-0.00295894
-0.00124632
-0.00242499
-0.00140213
-0.00184045
-0.00153461
-0.0012156
-0.00163993
-0.000563037
-0.00171314
0.000104211
-0.00175241
0.000771101
-0.00175291
0.00142284
-0.00171453
0.00204348
-0.00163508
0.00261719
-0.00151404
0.00312912
-0.00135438
0.00356481
-0.00115668
0.00391047
-0.000923973
0.00415515
-0.000661901
0.00429215
-0.000379143
0.00430885
-7.48246e-05
0.00420373
0.000256849
0.00397976
0.000571313
0.00364076
0.000872447
0.0031936
0.00115439
0.00264961
0.00140707
0.00202447
0.00162108
0.00133673
0.00178697
0.000608392
0.00189626
-0.0001359
0.00194307
-0.000870851
0.00192238
-0.00156876
0.00183202
-0.00220498
0.0016741
-0.0027526
0.00144936
-0.00318854
0.00116435
-0.00349525
0.000830868
-0.00365833
0.000458698
-0.00366935
6.4079e-05
-0.00351516
-0.000369352
-0.00321051
-0.000765603
-0.00276572
-0.00113141
-0.00219841
-0.00145083
-0.00153362
-0.00170656
-0.000802503
-0.00188277
-4.17031e-05
-0.00196716
0.000710047
-0.00194915
0.00141309
-0.00182947
0.00202746
-0.00160703
0.00251935
-0.00129482
0.00285891
-0.000905025
0.00302263
-0.000458031
0.00299334
3.47171e-05
0.00277748
0.000530908
0.00238564
0.000985321
0.00184108
0.00137997
0.00117727
0.00168757
0.000439685
0.00188238
-0.0003217
0.0019459
-0.00104919
0.00186316
-0.00168786
0.00163858
-0.00218716
0.00128298
-0.00250472
0.00081882
-0.00261219
0.000279162
-0.00248674
-0.000328472
-0.0021411
-0.000902496
-0.00159731
-0.00141484
-0.000894916
-0.00182376
-8.94528e-05
-0.00209086
0.000748081
-0.00218457
0.0015454
-0.00208156
0.00223018
-0.00179003
0.00273639
-0.00132879
0.00301336
-0.000735429
0.00303273
-6.60052e-05
0.00277888
0.000660448
0.00228035
0.00130167
0.00158306
0.00182606
0.000754331
0.00217699
-0.00012188
0.00231129
-0.0009518
0.00219737
-0.00164705
0.00185338
-0.00213075
0.00130901
-0.00235064
0.000624822
-0.00227911
-0.000140362
-0.00193406
-0.000870434
-0.0013576
-0.00148276
-0.000623321
-0.00190778
0.000172423
-0.00208678
0.000923238
-0.00198629
0.00153189
-0.00162874
0.0019192
-0.00106035
0.0020371
-0.000363138
0.00187304
0.000384806
0.00146245
0.00103812
0.000872588
0.001521
0.000199044
0.00176028
-0.000449505
0.00171826
-0.000970709
0.00140468
-0.00128694
0.000882529
-0.00135635
0.000245578
-0.00117833
-0.000408047
-0.000800257
-0.000936701
-0.000303069
-0.00126069
0.000211077
-0.00131928
0.000634527
-0.00109576
0.000882104
-0.000645491
0.000903982
-6.09187e-05
0.000692381
0.000559548
0.000290861
0.0010606
-0.000221759
0.00135757
-0.000738141
0.00136852
-0.00115264
0.00109735
-0.00137619
0.000584789
-0.00135445
-8.02619e-05
-0.00108228
-0.000759787
-0.00060219
-0.00132643
-0.00165987
0.000396759
-0.000702502
0.000805514
-0.000729699
0.00120938
-0.000718824
0.00160277
-0.000696917
0.00197852
-0.000661835
0.00233345
-0.000617286
0.00266127
-0.00055774
0.00296199
-0.000490461
0.00322859
-0.000406654
0.00345809
-0.000313067
0.00364767
-0.000207893
0.00379139
-0.000101376
0.00388058
1.28283e-07
0.0038889
0.000127921
0.003818
0.000251936
0.00367685
0.000362833
0.00347418
0.000459995
0.00321952
0.000540988
0.00292369
0.000604338
0.00259843
0.000647656
0.00225548
0.000670512
0.00190659
0.000672233
0.0015616
0.000655033
0.00123371
0.000615031
0.000929925
0.000559775
0.000662938
0.000483111
0.000436408
0.000396251
0.00026282
0.000291324
0.000142679
0.000183219
7.58708e-05
6.03911e-05
2.98611e-05
-4.17901e-05
1.69606e-05
-0.000148433
4.73719e-05
-0.00026018
0.000126299
-0.000372699
0.000254698
-0.000480447
0.000430305
-0.000581237
0.000646908
-0.000673283
0.000897877
-0.00075518
0.00117675
-0.000825833
0.00147743
-0.000884475
0.00179448
-0.000930082
0.00212185
-0.000962169
0.00245515
-0.000980009
0.0027879
-0.000983487
0.00311537
-0.000972001
0.00343202
-0.000945068
0.00373349
-0.000903286
0.00401484
-0.000847592
0.0042691
-0.000776495
0.00449373
-0.000691062
0.00468609
-0.00059219
0.00483931
-0.000479261
0.00495128
-0.000359304
0.00502161
-0.000225972
0.00505034
-8.66447e-05
0.00501171
8.89357e-05
0.00491986
0.000250995
0.00477679
0.000412533
0.00458212
0.000575114
0.00433565
0.000737479
0.00403792
0.000898134
0.00368951
0.00105551
0.00329238
0.00120697
0.00284914
0.00134986
0.0023634
0.00148185
0.00183962
0.0016
0.00128297
0.00170223
0.000699474
0.00178575
9.61619e-05
0.00184773
-0.000518777
0.00188647
-0.00113806
0.00190104
-0.00175279
0.00188805
-0.0023538
0.00184683
-0.00293179
0.00177732
-0.00347734
0.00167809
-0.00398081
0.00154873
-0.00443351
0.00139114
-0.00482635
0.0012058
-0.00515099
0.000993712
-0.00539903
0.000757569
-0.00556275
0.000499674
-0.00563818
0.000224409
-0.00561802
-7.93824e-05
-0.00550192
-0.000387717
-0.00528974
-0.00069297
-0.00498165
-0.000993874
-0.00458026
-0.00128544
-0.00409026
-0.00156211
-0.00351817
-0.0018184
-0.00287315
-0.00204715
-0.00216638
-0.00224137
-0.0014118
-0.00239452
-0.000623306
-0.00250163
0.000182189
-0.00255791
0.000987457
-0.00255818
0.00177344
-0.00250051
0.00252063
-0.00238226
0.00320976
-0.00220317
0.00382301
-0.00196763
0.00434181
-0.00167548
0.00475074
-0.00133291
0.00503918
-0.000950338
0.00518873
-0.000528691
0.00520328
-8.93796e-05
0.00506406
0.000396068
0.00478143
0.000853951
0.00435959
0.00129428
0.00380699
0.001707
0.00313909
0.00207498
0.00237463
0.00238555
0.00153558
0.00262601
0.000648654
0.00278319
-0.000256341
0.00284807
-0.00114674
0.00281277
-0.00199128
0.00267656
-0.0027558
0.00243862
-0.00341263
0.00210618
-0.00393399
0.00168572
-0.00429278
0.00118965
-0.00447299
0.000638904
-0.00445999
5.10822e-05
-0.00425946
-0.000569884
-0.00387484
-0.00115023
-0.00331779
-0.00168846
-0.00261283
-0.00215579
-0.001791
-0.00252839
-0.000889394
-0.00278437
4.34019e-05
-0.00289995
0.000963913
-0.00286966
0.00181983
-0.00268539
0.00256647
-0.00235367
0.00315843
-0.00188678
0.0035585
-0.0013051
0.00374329
-0.000642816
0.00369165
8.63554e-05
0.00341102
0.000811532
0.00291392
0.00148242
0.00222922
0.00206468
0.00139898
0.00251781
0.000479346
0.00280201
-0.000462888
0.00288813
-0.00136207
0.00276234
-0.00215057
0.00242708
-0.00276465
0.00189706
-0.00315356
0.00120773
-0.00328296
0.000408566
-0.00312956
-0.000481876
-0.00270585
-0.00132621
-0.00203895
-0.00208173
-0.00117937
-0.00268334
-0.000196289
-0.00307394
0.000827938
-0.0032088
0.00179901
-0.00305263
0.00262913
-0.00262016
0.00324038
-0.00194004
0.00356805
-0.0010631
0.0035802
-7.81474e-05
0.00326762
0.000973021
0.00265958
0.0019097
0.00181169
0.00267396
0.000808228
0.00318045
-0.000247385
0.0033669
-0.00124111
0.00319109
-0.00206386
0.00267613
-0.00262807
0.00187321
-0.00287097
0.000867728
-0.00276202
-0.000249311
-0.00232433
-0.00130812
-0.00161098
-0.00219611
-0.000715963
-0.00280279
0.000247412
-0.00305015
0.00114713
-0.00288601
0.00186579
-0.00234741
0.00231058
-0.00150514
0.00242454
-0.000477104
0.00220263
0.000606722
0.0016856
0.00155515
0.00095928
0.00224732
0.00013954
0.00258002
-0.000634325
0.00249212
-0.00124518
0.00201554
-0.0016009
0.00123825
-0.00165304
0.000297721
-0.00140829
-0.0006528
-0.000925618
-0.00141937
-0.000305788
-0.00188052
0.000326272
-0.00195134
0.000841732
-0.00161122
0.00113999
-0.000943748
0.00116243
-8.33559e-05
0.000905923
0.000816052
0.000422996
0.00154353
-0.000189506
0.00197007
-0.000804738
0.00198375
-0.00129769
0.00159031
-0.00156549
0.00085259
-0.00154763
-9.81197e-05
-0.00123868
-0.00106874
-0.000689555
-0.00187556
-0.00234942
0.000839273
-0.00154177
0.00169227
-0.0015827
0.00253241
-0.00155897
0.00334731
-0.00151181
0.0041119
-0.00142643
0.00479715
-0.00130254
0.00534752
-0.0011081
0.00573954
-0.000882483
0.00589872
-0.000565843
0.00583506
-0.000249402
0.00554483
8.23375e-05
0.00511351
0.000329945
0.00453768
0.000575954
0.00386122
0.00080438
0.00310083
0.00101233
0.00227085
0.00119281
0.00138883
0.00134202
0.000472501
0.00145731
-0.000459586
0.00153642
-0.00138801
0.00157608
-0.00229496
0.00157747
-0.00315522
0.00153249
-0.00395022
0.00145003
-0.00465648
0.00132129
-0.005261
0.0011643
-0.00574173
0.000963835
-0.00609978
0.000754303
-0.00631915
0.00051069
-0.00642659
0.000290666
-0.00643762
7.14183e-05
-0.00627935
-0.000200058
-0.00600249
-0.000425293
-0.00564579
-0.000616887
-0.00523056
-0.000787929
-0.00476235
-0.000948659
-0.00424399
-0.00109959
-0.00368101
-0.00123626
-0.00308021
-0.00135598
-0.00244907
-0.00145697
-0.00179625
-0.00153729
-0.00113052
-0.00159581
-0.000460007
-0.00163268
0.000209485
-0.0016495
0.000865169
-0.00163917
0.00150199
-0.00160882
0.00211572
-0.0015588
0.00269378
-0.00148135
0.00323041
-0.00138422
0.00372099
-0.00126707
0.00416457
-0.00113465
0.00454869
-0.000976312
0.00487414
-0.000804708
0.00513223
-0.000617396
0.00532263
-0.000416371
0.0054359
-0.000199912
0.00549731
2.75227e-05
0.00548748
0.000260822
0.00540272
0.000497298
0.0052425
0.000735328
0.00500685
0.000973131
0.00469845
0.00120654
0.00431994
0.00143402
0.00387538
0.00165153
0.0033696
0.00185564
0.00280788
0.00204357
0.00219663
0.00221125
0.00154266
0.0023562
0.000854309
0.0024741
0.000139415
0.00256263
-0.000591664
0.00261755
-0.00132967
0.00263905
-0.00206295
0.00262133
-0.002781
0.00256488
-0.00347219
0.00246852
-0.00412592
0.00233181
-0.00472954
0.00215235
-0.00527245
0.00193405
-0.00574235
0.0016757
-0.00612958
0.00138094
-0.0064247
0.00105269
-0.00662013
0.000695103
-0.00670822
0.000312505
-0.00668269
-0.000104915
-0.00654298
-0.000527428
-0.00628771
-0.000948235
-0.0059173
-0.00136429
-0.00543552
-0.00176722
-0.00484651
-0.00215113
-0.00416013
-0.00250478
-0.00338696
-0.00282032
-0.0025408
-0.00308754
-0.00163666
-0.00329866
-0.000692961
-0.00344532
0.000270345
-0.00352122
0.00123233
-0.00352016
0.00216966
-0.00343784
0.00305931
-0.00327192
0.00387854
-0.0030224
0.00460541
-0.0026945
0.00521848
-0.00228855
0.00570171
-0.00181614
0.00603468
-0.0012833
0.00620366
-0.000697675
0.00620274
-8.84562e-05
0.00602765
0.000571151
0.00567995
0.00120165
0.00516456
0.00180967
0.00449426
0.00237729
0.00368509
0.00288415
0.0027595
0.00331113
0.0017477
0.00363781
0.00068315
0.00384774
-0.000402883
0.0039341
-0.00146883
0.00387872
-0.00247586
0.00368359
-0.00338781
0.00335057
-0.0041631
0.00288147
-0.00477171
0.00229433
-0.00518843
0.00160638
-0.00539239
0.000842862
-0.0053572
1.58927e-05
-0.0051012
-0.000825887
-0.00462032
-0.00163111
-0.00393565
-0.00237313
-0.00307372
-0.00301772
-0.00207323
-0.00352888
-0.000983019
-0.00387458
0.000149186
-0.00403216
0.00125849
-0.00397897
0.00228844
-0.00371534
0.00318134
-0.00324657
0.00388169
-0.00258714
0.00435349
-0.0017769
0.00456044
-0.000849764
0.00448081
0.000165981
0.00412423
0.00116812
0.00350797
0.00209868
0.00266311
0.00290954
0.00164765
0.00353327
0.000527502
0.00392216
-0.000625569
0.0040412
-0.00172069
0.00385746
-0.00267607
0.00338247
-0.00341921
0.0026402
-0.00388479
0.00167331
-0.00403615
0.000559925
-0.00384782
-0.000670201
-0.00333231
-0.00184172
-0.00252489
-0.00288915
-0.00148452
-0.00372372
-0.000296537
-0.00426192
0.000931631
-0.00443697
0.00209691
-0.00421791
0.00308854
-0.00361179
0.00381295
-0.00266445
0.00420243
-0.00145257
0.00420088
-7.65988e-05
0.00382008
0.00135381
0.00308473
0.00264506
0.00206547
0.00369322
0.000865757
0.00438016
-0.000391104
0.00462376
-0.00156652
0.00436651
-0.00253496
0.00364457
-0.00318622
0.00252447
-0.00345118
0.00113268
-0.00329805
-0.000402439
-0.00275305
-0.00185312
-0.00188558
-0.00306359
-0.000805711
-0.00388266
0.000343507
-0.00419937
0.0014082
-0.0039507
0.00224787
-0.00318707
0.00275355
-0.00201082
0.0028621
-0.000585652
0.00257098
0.000897835
0.00193172
0.00219442
0.00105047
0.00312857
6.57136e-05
0.00356477
-0.000845478
0.00340332
-0.00155541
0.00272547
-0.00195362
0.00163646
-0.00198409
0.000328189
-0.00166327
-0.00097362
-0.00106251
-0.00202014
-0.000305173
-0.00263785
0.000458616
-0.00271513
0.00107472
-0.00222732
0.00142519
-0.00129422
0.00144467
-0.000102836
0.00113596
0.00112476
0.00056174
0.00211775
-0.000161509
0.00269332
-0.00088497
0.00270721
-0.00146305
0.00216839
-0.001778
0.00116754
-0.00176234
-0.000113779
-0.00141164
-0.00141944
-0.000785979
-0.00250122
-0.0031354
0.00107105
-0.00261283
0.00215029
-0.00266194
0.00323716
-0.00264583
0.0043327
-0.00260735
0.00543672
-0.00253046
0.00657459
-0.00244041
0.00767947
-0.00221299
0.0087627
-0.00196571
0.00962396
-0.0014271
0.0103
-0.000925479
0.0107305
-0.000348172
0.0108602
0.000200275
0.0106488
0.000787318
0.0101431
0.00131015
0.00938517
0.00177023
0.00841842
0.00215956
0.00728665
0.00247379
0.00603586
0.00270811
0.00470712
0.00286516
0.003349
0.0029342
0.00200383
0.00292264
0.000715277
0.00282104
-0.000485994
0.0026513
-0.0015525
0.0023878
-0.00247478
0.00208659
-0.00318914
0.0016782
-0.00374066
0.00130582
-0.00401476
0.000784793
-0.00418423
0.000460129
-0.00413357
2.07675e-05
-0.00407909
-0.00025454
-0.00392831
-0.000576075
-0.00367272
-0.000872481
-0.00330679
-0.00115386
-0.0028474
-0.00140805
-0.00231398
-0.00163301
-0.00172311
-0.00182713
-0.00108998
-0.00198911
-0.00042811
-0.00211884
0.000251511
-0.00221692
0.000939327
-0.00228363
0.0016252
-0.00231856
0.00229791
-0.0023222
0.00295507
-0.00229634
0.00358718
-0.00224093
0.00418543
-0.00215705
0.00474767
-0.00204358
0.00526627
-0.00190283
0.00573509
-0.00173589
0.00614185
-0.0015414
0.00649523
-0.00132969
0.00677944
-0.00108892
0.00699987
-0.000837823
0.00714484
-0.000561342
0.00721537
-0.000270445
0.00720074
4.21585e-05
0.00710651
0.000355047
0.00693377
0.000670042
0.00668211
0.000986985
0.00635082
0.00130442
0.00594083
0.00161653
0.00545452
0.00192033
0.0048955
0.00221054
0.00426867
0.00248248
0.00357956
0.00273267
0.00283507
0.00295575
0.00204294
0.00314833
0.00121227
0.00330477
0.000353706
0.00342119
-0.000521591
0.00349285
-0.00140279
0.00352025
-0.00227835
0.00349689
-0.00313302
0.00341954
-0.00395559
0.00329109
-0.00473056
0.00310678
-0.00544626
0.00286805
-0.00608713
0.00257492
-0.00664158
0.00223015
-0.007099
0.00183837
-0.00744958
0.00140326
-0.00768404
0.000929566
-0.00778769
0.000416153
-0.00775956
-0.000133042
-0.00759806
-0.000688927
-0.00730023
-0.00124607
-0.00686734
-0.00179717
-0.00630206
-0.0023325
-0.00561334
-0.00283984
-0.00480907
-0.00330906
-0.00390394
-0.00372544
-0.00291302
-0.00407846
-0.00185475
-0.00435694
-0.000753574
-0.0045465
0.00037032
-0.00464511
0.00149191
-0.00464175
0.00258392
-0.00452985
0.00361933
-0.00430733
0.00457194
-0.00397501
0.00541471
-0.00353726
0.00612533
-0.00299918
0.00667973
-0.00237054
0.00705363
-0.00165721
0.00724855
-0.000892587
0.00722629
-6.62008e-05
0.00701229
0.000785155
0.00659706
0.00161688
0.00598483
0.0024219
0.00518975
0.00317237
0.00423395
0.00383995
0.0031468
0.00439829
0.0019583
0.00482631
0.000705152
0.00510089
-0.000563945
0.0052032
-0.00180981
0.00512459
-0.00298379
0.00485756
-0.00404082
0.00440761
-0.00494318
0.00378383
-0.00564451
0.00299566
-0.00611458
0.00207644
-0.00633247
0.00106075
-0.00627951
-3.70721e-05
-0.00596063
-0.00114476
-0.00538441
-0.00220733
-0.00456549
-0.00319204
-0.0035396
-0.00404362
-0.00235427
-0.00471421
-0.00106098
-0.00516787
0.000268757
-0.0053619
0.00157275
-0.00528296
0.00278147
-0.00492405
0.00382132
-0.00428643
0.00463969
-0.00340551
0.00518016
-0.00231736
0.00540189
-0.0010715
0.00529575
0.000272126
0.00486161
0.00160226
0.00411562
0.00284467
0.00310618
0.00391898
0.00189399
0.00474546
0.000557075
0.00525907
-0.000804619
0.0054029
-0.0020977
0.00515054
-0.00322415
0.00450892
-0.00409776
0.00351381
-0.00464225
0.0022178
-0.00481296
0.00073063
-0.00458638
-0.00089678
-0.00397356
-0.00245454
-0.00301619
-0.00384652
-0.00179214
-0.00494777
-0.000398974
-0.00565508
0.0010483
-0.00588424
0.00241203
-0.00558164
0.00357097
-0.00477073
0.00441443
-0.00350792
0.00485663
-0.00189477
0.00484335
-6.33135e-05
0.00438706
0.0018101
0.00351819
0.00351393
0.00232097
0.00489045
0.000918319
0.00578281
-0.000544755
0.00608684
-0.00190849
0.00573025
-0.00302048
0.00475656
-0.00376032
0.00326431
-0.00404125
0.00141362
-0.00384107
-0.000602619
-0.00318308
-0.00251112
-0.00215294
-0.00409373
-0.000885686
-0.00514991
0.000454016
-0.00553907
0.00168446
-0.00518114
0.00264611
-0.00414873
0.00320981
-0.00257452
0.00330907
-0.000684906
0.00294252
0.00126438
0.00217562
0.00296131
0.00113602
0.00416817
-8.06212e-06
0.00470885
-0.00106783
0.00446309
-0.00187774
0.00353538
-0.00231536
0.00207407
-0.00232144
0.000334272
-0.00191828
-0.00137678
-0.00119474
-0.00274367
-0.000297628
-0.00353496
0.00059714
-0.0036099
0.00131292
-0.00294311
0.00171499
-0.00169629
0.00172891
-0.000116759
0.00136439
0.00148929
0.000695953
0.00278619
-0.000139002
0.00352827
-0.000969829
0.00353804
-0.00163089
0.00282945
-0.00199024
0.00152689
-0.00197507
-0.000128943
-0.00158201
-0.0018125
-0.000880511
-0.00320272
-0.00401591
0.002457
-0.00506983
0.00495604
-0.00516098
0.00755351
-0.0052433
0.0103275
-0.00538134
0.0133661
-0.0055691
0.0166786
-0.00575287
0.019903
-0.00543735
0.0223981
-0.00446087
0.0227442
-0.00177314
0.0217698
4.89234e-05
0.0201298
0.00129174
0.0180953
0.00223487
0.015829
0.00305361
0.0133744
0.00376475
0.0107741
0.00437053
0.0080757
0.00485792
0.00532529
0.0052242
0.00256433
0.00546907
-0.00016245
0.00559193
-0.00282029
0.00559204
-0.00537506
0.00547741
-0.00773918
0.00518515
-0.00986884
0.00478096
-0.0116662
0.00418512
-0.0130843
0.00350471
-0.0139919
0.00258577
-0.0143869
0.00170086
-0.0141223
0.000520228
-0.0136065
-5.56984e-05
-0.0128737
-0.000712079
-0.0119852
-0.00114304
-0.0110252
-0.00153607
-0.0100075
-0.00189019
-0.00894244
-0.00221888
-0.00784195
-0.00250854
-0.00672026
-0.0027547
-0.00558467
-0.00296272
-0.00444594
-0.00312784
-0.00330888
-0.00325591
-0.00218588
-0.00333991
-0.00108818
-0.00338132
-1.91599e-05
-0.00338759
0.00101224
-0.00335361
0.00199708
-0.00328118
0.00292752
-0.00317136
0.0037957
-0.00302523
0.00459851
-0.00284639
0.00532914
-0.00263346
0.00598087
-0.00238762
0.00655741
-0.00211795