/*--------------------------------*- C++ -*----------------------------------*\
  =========                 |
  \\      /  F ield         | OpenFOAM: The Open Source CFD Toolbox
   \\    /   O peration     | Website:  https://openfoam.org
    \\  /    A nd           | Version:  12
     \\/     M anipulation  |
\*---------------------------------------------------------------------------*/
FoamFile
{
    format      ascii;
    class       volScalarField;
    location    "9.5";
    object      p;
}
// * * * * * * * * * * * * * * * * * * * * * * * * * * * * * * * * * * * * * //

dimensions      [0 2 -2 0 0 0 0];

internalField   nonuniform List<scalar> 
400
(
8.45896e-08
-0.000128042
-0.000263991
-0.000168491
-0.00107214
-0.0030616
-0.00538861
-0.00750711
-0.00921786
-0.0103984
-0.0109938
-0.0109423
-0.0101934
-0.00854026
-0.00588917
-0.0022397
0.00224018
0.00691176
0.0102185
0.0115196
1.5525e-05
-8.17187e-05
-0.000246509
-0.000928507
-0.00235979
-0.00441677
-0.00653601
-0.00854051
-0.0101247
-0.0112307
-0.0118054
-0.0118225
-0.0111933
-0.00979581
-0.00752102
-0.00435087
-0.00032248
0.00415933
0.0079512
0.0100599
0.000341499
-0.000144127
-0.000990603
-0.00245134
-0.00446264
-0.00660116
-0.00867416
-0.0105158
-0.0118565
-0.0127357
-0.0131528
-0.0130945
-0.0124974
-0.0113217
-0.00949295
-0.00698735
-0.00376503
0.000125679
0.00390288
0.00642126
0.000170114
-0.000693583
-0.00228746
-0.00449541
-0.00687635
-0.00906618
-0.0108953
-0.0122632
-0.0132339
-0.0138509
-0.0141219
-0.014043
-0.0135715
-0.0126503
-0.0112172
-0.00927558
-0.00681398
-0.00370793
-0.000434796
0.0019462
-0.000821106
-0.00198143
-0.00412611
-0.00670501
-0.00908013
-0.011014
-0.0124849
-0.0135496
-0.0142972
-0.0147602
-0.0149574
-0.014887
-0.0145226
-0.0138195
-0.0127112
-0.0111906
-0.00932801
-0.00693256
-0.00445454
-0.00229653
-0.00261542
-0.00388505
-0.00616712
-0.00868199
-0.0108139
-0.0124115
-0.013584
-0.0144552
-0.0150726
-0.0154517
-0.0156094
-0.0155536
-0.015276
-0.0147466
-0.0139261
-0.0127374
-0.0113238
-0.00950659
-0.00768636
-0.00587817
-0.00469576
-0.00590464
-0.00801989
-0.0102926
-0.0121145
-0.0134184
-0.0143989
-0.0151418
-0.0156663
-0.0159833
-0.0161128
-0.016065
-0.0158448
-0.0154335
-0.0148319
-0.0139104
-0.0128435
-0.0114609
-0.0101549
-0.00868377
-0.00656573
-0.00764161
-0.00949738
-0.0115013
-0.0130483
-0.0141442
-0.0150057
-0.0156589
-0.0161104
-0.0163754
-0.0164788
-0.0164317
-0.0162521
-0.0159184
-0.0154691
-0.0147349
-0.0139401
-0.0128407
-0.0119276
-0.0107702
-0.00792708
-0.00887971
-0.0105156
-0.0123155
-0.0136651
-0.0146379
-0.0154238
-0.0160149
-0.0164121
-0.0166351
-0.0167158
-0.0166638
-0.0165103
-0.0162237
-0.0158805
-0.0152461
-0.0146908
-0.0136966
-0.0131506
-0.0122045
-0.00870126
-0.00954995
-0.011047
-0.012738
-0.0139794
-0.0148984
-0.0156476
-0.0162043
-0.0165734
-0.0167717
-0.0168421
-0.0167847
-0.0166427
-0.0163723
-0.0160985
-0.0154743
-0.015143
-0.0140754
-0.0139038
-0.0130292
-0.0088614
-0.00965567
-0.0111012
-0.0127537
-0.0139943
-0.0149246
-0.0156725
-0.0162264
-0.0165939
-0.016786
-0.0168524
-0.0167932
-0.0166504
-0.0163801
-0.0161169
-0.0154737
-0.0152671
-0.0140307
-0.0142291
-0.0132112
-0.00842971
-0.00923256
-0.0106784
-0.0123831
-0.0137018
-0.0147001
-0.0154899
-0.0160755
-0.0164692
-0.0166801
-0.0167545
-0.0166962
-0.0165365
-0.0162546
-0.015925
-0.0152857
-0.0149663
-0.0136094
-0.0140213
-0.0127301
-0.00751295
-0.0083704
-0.00985142
-0.0116349
-0.0130949
-0.0142136
-0.0150917
-0.0157468
-0.0161972
-0.0164487
-0.0165404
-0.0164754
-0.0162822
-0.0159555
-0.0155162
-0.0148402
-0.0142458
-0.0128062
-0.0132348
-0.0115802
-0.00638784
-0.00727267
-0.0087437
-0.0105075
-0.0121455
-0.0134378
-0.0144538
-0.0152198
-0.0157566
-0.0160654
-0.0161794
-0.0161061
-0.0158654
-0.0154548
-0.0148746
-0.0140623
-0.0131148
-0.0115836
-0.0118756
-0.00980413
-0.0052951
-0.0061475
-0.00748037
-0.00908004
-0.0108007
-0.0123068
-0.0135355
-0.0144711
-0.0151321
-0.0155216
-0.0156678
-0.0155798
-0.0152693
-0.0147292
-0.0139572
-0.0129093
-0.0116057
-0.00994672
-0.0100181
-0.00745773
-0.00474928
-0.00522128
-0.0061042
-0.0073853
-0.00905626
-0.010763
-0.0122657
-0.0134493
-0.0143004
-0.0148131
-0.0150092
-0.0149023
-0.0145015
-0.0137935
-0.0127756
-0.0114281
-0.0097953
-0.00794916
-0.00770871
-0.00457503
-0.00477105
-0.00468245
-0.00469558
-0.00546874
-0.00698911
-0.0088172
-0.0105979
-0.0120746
-0.0131757
-0.0138807
-0.0141893
-0.0140971
-0.0136009
-0.0127059
-0.0114172
-0.00973841
-0.00774857
-0.00568952
-0.00500074
-0.00103114
-0.0047182
-0.00406113
-0.00320982
-0.00346846
-0.00480939
-0.00669079
-0.0086707
-0.0103957
-0.0117469
-0.0126497
-0.0130833
-0.0130335
-0.0125084
-0.011488
-0.00998477
-0.00800862
-0.005708
-0.00326452
-0.00150057
0.00459616
-0.00405987
-0.00306987
-0.00184392
-0.00187189
-0.00305136
-0.00494522
-0.00705323
-0.00900857
-0.0105739
-0.0116683
-0.0122332
-0.0122673
-0.0117478
-0.0106719
-0.00903847
-0.0068336
-0.00404769
-0.000500761
0.004932
0.0177875
-0.00529786
-0.00205578
-0.000727403
-0.00082237
-0.00188595
-0.00375183
-0.00594503
-0.00809417
-0.00985109
-0.0110985
-0.0117758
-0.011886
-0.0114243
-0.0104054
-0.00879305
-0.00643068
-0.00238791
0.0051044
0.0194881
0.0425239
)
;

boundaryField
{
    movingWall
    {
        type            zeroGradient;
    }
    fixedWalls
    {
        type            zeroGradient;
    }
    frontAndBack
    {
        type            empty;
    }
}


// ************************************************************************* //
