/*--------------------------------*- C++ -*----------------------------------*\
  =========                 |
  \\      /  F ield         | OpenFOAM: The Open Source CFD Toolbox
   \\    /   O peration     | Website:  https://openfoam.org
    \\  /    A nd           | Version:  12
     \\/     M anipulation  |
\*---------------------------------------------------------------------------*/
FoamFile
{
    format      ascii;
    class       surfaceScalarField;
    location    "9.5";
    object      phi;
}
// * * * * * * * * * * * * * * * * * * * * * * * * * * * * * * * * * * * * * //

dimensions      [0 3 -1 0 0 0 0];

internalField   nonuniform List<scalar> 
760
(
3.13431e-07
-3.13439e-07
1.50646e-07
1.62784e-07
-6.83909e-07
8.34555e-07
-2.34808e-06
1.66417e-06
-4.18653e-06
1.83846e-06
-5.72219e-06
1.53566e-06
-7.01854e-06
1.29635e-06
-7.93983e-06
9.2129e-07
-8.66563e-06
7.25801e-07
-9.12312e-06
4.57487e-07
-9.43006e-06
3.06936e-07
-9.49667e-06
6.66138e-08
-9.39739e-06
-9.9279e-08
-9.0574e-06
-3.39987e-07
-8.48837e-06
-5.69038e-07
-7.52439e-06
-9.63978e-07
-6.11731e-06
-1.40707e-06
-4.09428e-06
-2.02303e-06
-1.68916e-06
-2.40512e-06
-1.68916e-06
-3.33065e-07
1.96265e-08
-1.41151e-06
1.24123e-06
-3.18266e-06
2.60571e-06
-4.85205e-06
3.33355e-06
-6.05867e-06
3.04507e-06
-7.17108e-06
2.64807e-06
-7.96508e-06
2.09035e-06
-8.6584e-06
1.61462e-06
-9.09979e-06
1.16719e-06
-9.3896e-06
7.47287e-07
-9.4642e-06
3.81537e-07
-9.3828e-06
-1.47865e-08
-9.16948e-06
-3.1259e-07
-8.82165e-06
-6.87819e-07
-8.247e-06
-1.14369e-06
-7.46376e-06
-1.74722e-06
-6.29719e-06
-2.57364e-06
-4.65853e-06
-3.6617e-06
-2.40016e-06
-4.66348e-06
-4.08932e-06
-1.13018e-06
1.14981e-06
-2.76902e-06
2.88006e-06
-4.27431e-06
4.111e-06
-5.3805e-06
4.43974e-06
-6.23748e-06
3.90205e-06
-6.88851e-06
3.29911e-06
-7.26417e-06
2.466e-06
-7.48884e-06
1.83929e-06
-7.485e-06
1.16335e-06
-7.44716e-06
7.0945e-07
-7.33829e-06
2.7267e-07
-7.26736e-06
-8.57236e-08
-7.04929e-06
-5.30651e-07
-6.75859e-06
-9.78521e-07
-6.30476e-06
-1.59752e-06
-5.7326e-06
-2.31937e-06
-4.99209e-06
-3.31416e-06
-3.95448e-06
-4.69931e-06
-2.32236e-06
-6.2956e-06
-6.41169e-06
-1.44655e-06
2.59636e-06
-3.03272e-06
4.46624e-06
-4.23919e-06
5.31746e-06
-4.98035e-06
5.18091e-06
-5.42496e-06
4.34666e-06
-5.5564e-06
3.43055e-06
-5.53866e-06
2.44826e-06
-5.50302e-06
1.80365e-06
-5.50218e-06
1.16251e-06
-5.51227e-06
7.19544e-07
-5.47327e-06
2.33671e-07
-5.39172e-06
-1.67282e-07
-5.25878e-06
-6.63589e-07
-5.05676e-06
-1.18053e-06
-4.72492e-06
-1.92937e-06
-4.23045e-06
-2.81384e-06
-3.63667e-06
-3.90793e-06
-2.91359e-06
-5.4224e-06
-1.81644e-06
-7.39274e-06
-8.22813e-06
-1.44178e-06
4.03814e-06
-2.71729e-06
5.74175e-06
-3.54399e-06
6.14417e-06
-3.98305e-06
5.61996e-06
-4.10521e-06
4.46882e-06
-4.07999e-06
3.40533e-06
-4.07415e-06
2.44242e-06
-4.08175e-06
1.81125e-06
-4.08805e-06
1.16881e-06
-4.08501e-06
7.16504e-07
-4.04781e-06
1.96472e-07
-3.98147e-06
-2.33627e-07
-3.86797e-06
-7.77088e-07
-3.70907e-06
-1.33943e-06
-3.51359e-06
-2.12485e-06
-3.17484e-06
-3.15259e-06
-2.72607e-06
-4.3567e-06
-2.23892e-06
-5.90955e-06
-1.42219e-06
-8.20947e-06
-9.65032e-06
-1.16664e-06
5.20477e-06
-2.07319e-06
6.64831e-06
-2.66051e-06
6.73148e-06
-2.9263e-06
5.88575e-06
-2.97982e-06
4.52234e-06
-2.96374e-06
3.38925e-06
-3.00567e-06
2.48436e-06
-3.03151e-06
1.83709e-06
-3.04587e-06
1.18316e-06
-3.02583e-06
6.96467e-07
-2.97521e-06
1.45856e-07
-2.89649e-06
-3.12353e-07
-2.79652e-06
-8.77059e-07
-2.64895e-06
-1.487e-06
-2.47783e-06
-2.29597e-06
-2.24048e-06
-3.38994e-06
-1.89242e-06
-4.70476e-06
-1.50694e-06
-6.29502e-06
-1.08789e-06
-8.62853e-06
-1.07382e-05
-8.22544e-07
6.02732e-06
-1.45623e-06
7.28199e-06
-1.86913e-06
7.14439e-06
-2.02106e-06
6.03768e-06
-2.07397e-06
4.57525e-06
-2.11807e-06
3.43335e-06
-2.18781e-06
2.5541e-06
-2.21994e-06
1.86922e-06
-2.22655e-06
1.18978e-06
-2.18608e-06
6.55993e-07
-2.13361e-06
9.33881e-08
-2.05314e-06
-3.92821e-07
-1.98006e-06
-9.5014e-07
-1.87879e-06
-1.58826e-06
-1.75782e-06
-2.41695e-06
-1.59936e-06
-3.5484e-06
-1.35268e-06
-4.95145e-06
-1.07273e-06
-6.57497e-06
-7.92232e-07
-8.90903e-06
-1.15304e-05
-4.84222e-07
6.51154e-06
-8.87574e-07
7.68534e-06
-1.1518e-06
7.40862e-06
-1.28162e-06
6.16749e-06
-1.34397e-06
4.6376e-06
-1.41618e-06
3.50556e-06
-1.48713e-06
2.62505e-06
-1.51249e-06
1.89458e-06
-1.51191e-06
1.18919e-06
-1.46952e-06
6.136e-07
-1.42372e-06
4.75969e-08
-1.34761e-06
-4.68933e-07
-1.28098e-06
-1.01677e-06
-1.2106e-06
-1.65865e-06
-1.12443e-06
-2.50312e-06
-1.02769e-06
-3.64513e-06
-8.57941e-07
-5.1212e-06
-6.73947e-07
-6.75897e-06
-5.84438e-07
-8.99854e-06
-1.21149e-05
-2.04055e-07
6.7156e-06
-4.16589e-07
7.89788e-06
-5.66083e-07
7.55811e-06
-6.57818e-07
6.25923e-06
-7.21513e-07
4.7013e-06
-7.9009e-07
3.57414e-06
-8.55287e-07
2.69025e-06
-8.84348e-07
1.92364e-06
-8.92622e-07
1.19747e-06
-8.66241e-07
5.87219e-07
-8.41657e-07
2.30133e-08
-8.02405e-07
-5.08185e-07
-7.60354e-07
-1.05882e-06
-7.249e-07
-1.6941e-06
-6.76739e-07
-2.55128e-06
-6.20026e-07
-3.70185e-06
-5.56861e-07
-5.18436e-06
-4.65096e-07
-6.85073e-06
-4.11753e-07
-9.05188e-06
-1.25266e-05
6.69835e-08
6.64861e-06
9.83219e-09
7.95503e-06
-3.26451e-08
7.60059e-06
-6.1172e-08
6.28775e-06
-1.34947e-07
4.77507e-06
-2.15984e-07
3.65518e-06
-2.71843e-07
2.7461e-06
-2.98786e-07
1.95059e-06
-3.11937e-07
1.21062e-06
-3.06321e-07
5.81604e-07
-3.06227e-07
2.29189e-08
-3.04386e-07
-5.10025e-07
-2.80102e-07
-1.0831e-06
-2.80478e-07
-1.69373e-06
-2.44859e-07
-2.5869e-06
-2.48724e-07
-3.69798e-06
-2.14765e-07
-5.21832e-06
-2.23826e-07
-6.84167e-06
-3.17521e-07
-8.95818e-06
-1.28441e-05
3.3052e-07
6.31809e-06
4.69062e-07
7.81649e-06
5.28295e-07
7.54135e-06
4.69283e-07
6.34677e-06
4.01711e-07
4.84265e-06
3.45767e-07
3.71112e-06
3.04099e-07
2.78777e-06
2.74001e-07
1.98069e-06
2.4196e-07
1.24266e-06
2.08987e-07
6.14576e-07
1.85027e-07
4.68794e-08
1.55164e-07
-4.80163e-07
1.39539e-07
-1.06748e-06
1.01108e-07
-1.6553e-06
1.1741e-07
-2.6032e-06
9.57063e-09
-3.59014e-06
5.12765e-08
-5.26003e-06
-1.02958e-07
-6.68744e-06
-2.12917e-07
-8.84822e-06
-1.30571e-05
5.62415e-07
5.75568e-06
9.09442e-07
7.46946e-06
1.09717e-06
7.35363e-06
1.04081e-06
6.40312e-06
9.70747e-07
4.91271e-06
9.19946e-07
3.76192e-06
8.84241e-07
2.82348e-06
8.50082e-07
2.01484e-06
8.01649e-07
1.29109e-06
7.48662e-07
6.67564e-07
6.97837e-07
9.77041e-08
6.52713e-07
-4.35039e-07
5.9132e-07
-1.00608e-06
5.66251e-07
-1.63023e-06
4.9344e-07
-2.53039e-06
4.29541e-07
-3.52624e-06
3.07675e-07
-5.13816e-06
5.71291e-08
-6.43689e-06
-1.30545e-07
-8.66055e-06
-1.31876e-05
8.40158e-07
4.91552e-06
1.31877e-06
6.99084e-06
1.62424e-06
7.04816e-06
1.66382e-06
6.36354e-06
1.58956e-06
4.98698e-06
1.54952e-06
3.80196e-06
1.52703e-06
2.84597e-06
1.49818e-06
2.04369e-06
1.44882e-06
1.34045e-06
1.38604e-06
7.30344e-07
1.30456e-06
1.79189e-07
1.22484e-06
-3.55326e-07
1.12565e-06
-9.06895e-07
1.05594e-06
-1.56052e-06
9.18124e-07
-2.39257e-06
8.09142e-07
-3.41726e-06
5.60374e-07
-4.88939e-06
2.42461e-07
-6.11898e-06
1.93809e-08
-8.43747e-06
-1.31682e-05
1.08515e-06
3.83037e-06
1.77468e-06
6.30131e-06
2.18284e-06
6.64e-06
2.34928e-06
6.19709e-06
2.29537e-06
5.04088e-06
2.26068e-06
3.83665e-06
2.24706e-06
2.85959e-06
2.22882e-06
2.06193e-06
2.18535e-06
1.38392e-06
2.1215e-06
7.94189e-07
2.02996e-06
2.70726e-07
1.92681e-06
-2.52177e-07
1.80527e-06
-7.85348e-07
1.67968e-06
-1.43493e-06
1.50059e-06
-2.21348e-06
1.32394e-06
-3.24061e-06
9.6502e-07
-4.53047e-06
5.28775e-07
-5.68273e-06
1.37026e-07
-8.04572e-06
-1.30312e-05
1.30709e-06
2.52329e-06
2.1065e-06
5.5019e-06
2.65822e-06
6.08829e-06
3.02373e-06
5.83159e-06
3.13109e-06
4.93352e-06
3.13732e-06
3.83042e-06
3.11881e-06
2.87811e-06
3.10183e-06
2.07891e-06
3.06073e-06
1.42503e-06
2.99887e-06
8.56047e-07
2.90614e-06
3.63452e-07
2.79035e-06
-1.36378e-07
2.63811e-06
-6.33114e-07
2.45928e-06
-1.2561e-06
2.22593e-06
-1.98013e-06
1.92337e-06
-2.93805e-06
1.40285e-06
-4.00995e-06
7.7107e-07
-5.05095e-06
2.99778e-07
-7.57443e-06
-1.27314e-05
1.40178e-06
1.1215e-06
2.31172e-06
4.59196e-06
3.00156e-06
5.39845e-06
3.61505e-06
5.21809e-06
3.96473e-06
4.58384e-06
4.11636e-06
3.67879e-06
4.18004e-06
2.81443e-06
4.19862e-06
2.06033e-06
4.16901e-06
1.45464e-06
4.10708e-06
9.17974e-07
4.00891e-06
4.61625e-07
3.88768e-06
-1.51465e-08
3.69671e-06
-4.42149e-07
3.46166e-06
-1.02105e-06
3.12838e-06
-1.64685e-06
2.66392e-06
-2.47359e-06
1.98793e-06
-3.33397e-06
1.17145e-06
-4.23446e-06
5.46321e-07
-6.9493e-06
-1.21851e-05
8.92821e-07
2.28682e-07
2.02302e-06
3.46176e-06
3.09851e-06
4.32296e-06
3.99619e-06
4.32042e-06
4.66185e-06
3.91818e-06
5.09175e-06
3.24889e-06
5.34452e-06
2.56167e-06
5.48144e-06
1.9234e-06
5.53308e-06
1.403e-06
5.53061e-06
9.20451e-07
5.44963e-06
5.42599e-07
5.28094e-06
1.53547e-07
5.04838e-06
-2.09592e-07
4.71624e-06
-6.8891e-07
4.22467e-06
-1.15528e-06
3.54032e-06
-1.78924e-06
2.59603e-06
-2.38967e-06
1.55203e-06
-3.19046e-06
8.72467e-07
-6.26974e-06
-1.13126e-05
-1.61728e-07
3.9041e-07
1.2854e-06
2.01463e-06
2.6682e-06
2.94016e-06
3.90392e-06
3.08469e-06
4.92259e-06
2.89951e-06
5.71066e-06
2.46082e-06
6.25704e-06
2.01528e-06
6.64636e-06
1.53409e-06
6.8504e-06
1.19896e-06
6.94518e-06
8.2567e-07
6.89041e-06
5.97371e-07
6.76709e-06
2.76868e-07
6.46348e-06
9.4016e-08
6.03238e-06
-2.57809e-07
5.36103e-06
-4.83928e-07
4.50559e-06
-9.33807e-07
3.27899e-06
-1.16308e-06
2.22766e-06
-2.13913e-06
1.43731e-06
-5.47939e-06
-9.87533e-06
-1.1814e-06
1.57181e-06
-1.0183e-07
9.35066e-07
1.51369e-06
1.32463e-06
3.09092e-06
1.50746e-06
4.46247e-06
1.52795e-06
5.56909e-06
1.35421e-06
6.40054e-06
1.18383e-06
6.99176e-06
9.42861e-07
7.39237e-06
7.9835e-07
7.59612e-06
6.21921e-07
7.66799e-06
5.25497e-07
7.5634e-06
3.81464e-07
7.33347e-06
3.23942e-07
6.8957e-06
1.79966e-07
6.30604e-06
1.05727e-07
5.46967e-06
-9.74357e-08
4.59943e-06
-2.92834e-07
3.88038e-06
-1.42008e-06
2.64152e-06
-4.24053e-06
-7.23381e-06
1.57181e-06
2.50687e-06
3.83151e-06
5.33897e-06
6.86692e-06
8.22113e-06
9.40496e-06
1.03478e-05
1.11462e-05
1.17681e-05
1.22936e-05
1.26751e-05
1.2999e-05
1.3179e-05
1.32847e-05
1.31873e-05
1.28944e-05
1.14743e-05
7.23381e-06
)
;

boundaryField
{
    movingWall
    {
        type            calculated;
        value           uniform 0;
    }
    fixedWalls
    {
        type            calculated;
        value           uniform 0;
    }
    frontAndBack
    {
        type            empty;
    }
}


// ************************************************************************* //
