/*--------------------------------*- C++ -*----------------------------------*\
  =========                 |
  \\      /  F ield         | OpenFOAM: The Open Source CFD Toolbox
   \\    /   O peration     | Website:  https://openfoam.org
    \\  /    A nd           | Version:  12
     \\/     M anipulation  |
\*---------------------------------------------------------------------------*/
FoamFile
{
    format      ascii;
    class       volVectorField;
    location    "9.5";
    object      U;
}
// * * * * * * * * * * * * * * * * * * * * * * * * * * * * * * * * * * * * * //

dimensions      [0 1 -1 0 0 0 0];

internalField   nonuniform List<vector> 
400
(
(0.00325665 -0.00484294 0)
(0.00850155 -0.0019767 0)
(-0.00327909 0.00379951 0)
(-0.0201521 0.0144283 0)
(-0.0721622 0.0217313 0)
(-0.102393 0.0153385 0)
(-0.133314 0.0154238 0)
(-0.151483 0.0112505 0)
(-0.169132 0.0101688 0)
(-0.178678 0.00693334 0)
(-0.18701 0.0059026 0)
(-0.1905 0.00318163 0)
(-0.191511 0.00142284 0)
(-0.186567 -0.00232682 0)
(-0.176525 -0.00479418 0)
(-0.159062 -0.010517 0)
(-0.133651 -0.015108 0)
(-0.0986735 -0.0216074 0)
(-0.0587616 -0.020543 0)
(-0.0133021 -0.00519113 0)
(-0.00199841 -0.00897388 0)
(-0.0117126 0.00915212 0)
(-0.0415041 0.032948 0)
(-0.0825339 0.0524064 0)
(-0.11428 0.0479753 0)
(-0.135386 0.0423446 0)
(-0.154466 0.0347274 0)
(-0.168082 0.0244843 0)
(-0.179416 0.0179206 0)
(-0.185715 0.0103208 0)
(-0.190311 0.00524024 0)
(-0.190453 -0.00127025 0)
(-0.18842 -0.00651127 0)
(-0.182173 -0.0137961 0)
(-0.17236 -0.0216948 0)
(-0.156689 -0.0333984 0)
(-0.135288 -0.0477378 0)
(-0.105834 -0.0665576 0)
(-0.0717206 -0.0800665 0)
(-0.0201736 -0.0578077 0)
(-0.0107248 0.010314 0)
(-0.0359933 0.0433564 0)
(-0.0714687 0.0685179 0)
(-0.10118 0.0773768 0)
(-0.119932 0.0687393 0)
(-0.133106 0.058768 0)
(-0.144746 0.0439463 0)
(-0.149098 0.0346932 0)
(-0.149752 0.0239577 0)
(-0.149565 0.0158064 0)
(-0.148309 0.00746177 0)
(-0.146962 0.000226374 0)
(-0.144898 -0.00777194 0)
(-0.139599 -0.0161477 0)
(-0.132451 -0.0275455 0)
(-0.121683 -0.0417482 0)
(-0.106284 -0.0628555 0)
(-0.0852895 -0.089667 0)
(-0.0639772 -0.117552 0)
(-0.021694 -0.11547 0)
(-0.0136938 0.0381619 0)
(-0.045883 0.0750849 0)
(-0.0775182 0.0954305 0)
(-0.0973175 0.0952983 0)
(-0.107081 0.0816067 0)
(-0.112961 0.066952 0)
(-0.111268 0.0499379 0)
(-0.108848 0.0365322 0)
(-0.110221 0.0233787 0)
(-0.109656 0.0140528 0)
(-0.110425 0.00456239 0)
(-0.109375 -0.00306143 0)
(-0.107821 -0.0124065 0)
(-0.10446 -0.0220821 0)
(-0.0983857 -0.0354113 0)
(-0.0919313 -0.0507348 0)
(-0.0799787 -0.0722114 0)
(-0.0601583 -0.103686 0)
(-0.0495759 -0.141034 0)
(-0.0166828 -0.150525 0)
(-0.0136878 0.0651463 0)
(-0.0459322 0.101274 0)
(-0.0673905 0.112611 0)
(-0.0802328 0.106411 0)
(-0.082759 0.0883006 0)
(-0.0821715 0.0698375 0)
(-0.0794622 0.050176 0)
(-0.0814614 0.0372006 0)
(-0.0810066 0.0239454 0)
(-0.0820733 0.0147601 0)
(-0.0810939 0.00436218 0)
(-0.081246 -0.00407835 0)
(-0.0788539 -0.0149532 0)
(-0.0775168 -0.0261709 0)
(-0.0715434 -0.0420531 0)
(-0.067489 -0.0607282 0)
(-0.0625791 -0.0827691 0)
(-0.0419314 -0.113993 0)
(-0.0440233 -0.160015 0)
(-0.00628276 -0.183723 0)
(-0.011702 0.0908693 0)
(-0.0370895 0.12268 0)
(-0.0508175 0.127994 0)
(-0.0606956 0.115484 0)
(-0.0588187 0.0918101 0)
(-0.058302 0.0691954 0)
(-0.0580644 0.0502833 0)
(-0.060907 0.0373251 0)
(-0.0599048 0.0241241 0)
(-0.0614544 0.0146089 0)
(-0.0591973 0.00379184 0)
(-0.0596668 -0.00508236 0)
(-0.0565759 -0.0162086 0)
(-0.0561892 -0.0277678 0)
(-0.0514478 -0.0437914 0)
(-0.0454345 -0.0652972 0)
(-0.0467279 -0.0898846 0)
(-0.0253549 -0.12073 0)
(-0.0343967 -0.167743 0)
(-0.00330626 -0.204325 0)
(-0.00888533 0.111549 0)
(-0.0260227 0.137893 0)
(-0.0365779 0.137617 0)
(-0.042636 0.118511 0)
(-0.0394753 0.0906431 0)
(-0.0410084 0.0683857 0)
(-0.0422097 0.0504078 0)
(-0.0446426 0.0368951 0)
(-0.0436431 0.0234687 0)
(-0.044857 0.013183 0)
(-0.0423261 0.00198864 0)
(-0.0426513 -0.00757095 0)
(-0.0396891 -0.0190412 0)
(-0.0391897 -0.0315762 0)
(-0.0379073 -0.0476748 0)
(-0.0302167 -0.0700733 0)
(-0.0358877 -0.0968256 0)
(-0.0151686 -0.129445 0)
(-0.0297253 -0.17598 0)
(0.00283781 -0.223854 0)
(-0.00508672 0.125132 0)
(-0.0158433 0.149373 0)
(-0.0228222 0.145542 0)
(-0.0267849 0.122571 0)
(-0.0241979 0.0935025 0)
(-0.0273918 0.070015 0)
(-0.0287069 0.0520708 0)
(-0.0304292 0.0378066 0)
(-0.0294839 0.0240417 0)
(-0.0303623 0.0130253 0)
(-0.0281414 0.00178464 0)
(-0.0282586 -0.00801817 0)
(-0.0261084 -0.0189267 0)
(-0.0242923 -0.0318144 0)
(-0.0259861 -0.048311 0)
(-0.0169283 -0.0713263 0)
(-0.0262689 -0.0994397 0)
(-0.00528476 -0.132026 0)
(-0.0238227 -0.177938 0)
(0.00423573 -0.235619 0)
(-0.00199928 0.133399 0)
(-0.00716306 0.155997 0)
(-0.0115141 0.149432 0)
(-0.0136714 0.123679 0)
(-0.0117567 0.0922557 0)
(-0.015581 0.0700362 0)
(-0.0162873 0.0528663 0)
(-0.0177126 0.0380785 0)
(-0.0171304 0.0237863 0)
(-0.017948 0.0118083 0)
(-0.0164634 0.000241424 0)
(-0.0165886 -0.0103362 0)
(-0.0160848 -0.0212179 0)
(-0.0133528 -0.0339891 0)
(-0.0173824 -0.0510301 0)
(-0.00755951 -0.07385 0)
(-0.0196778 -0.103929 0)
(0.000456829 -0.136943 0)
(-0.021619 -0.180935 0)
(0.00824071 -0.247664 0)
(0.00170996 0.134719 0)
(0.000498683 0.159947 0)
(-0.000394275 0.152496 0)
(-0.00156151 0.126114 0)
(-0.000493104 0.0960895 0)
(-0.00427712 0.0732679 0)
(-0.00465391 0.0550847 0)
(-0.00604175 0.0392629 0)
(-0.0056129 0.0244032 0)
(-0.00639048 0.0118851 0)
(-0.00592812 0.000652056 0)
(-0.00584995 -0.00989041 0)
(-0.00679414 -0.0209774 0)
(-0.00361278 -0.0332019 0)
(-0.00896056 -0.0510593 0)
(0.000904302 -0.072811 0)
(-0.0130791 -0.104328 0)
(0.00710465 -0.13534 0)
(-0.0186462 -0.180659 0)
(0.00893564 -0.254111 0)
(0.00490691 0.13155 0)
(0.00756189 0.159306 0)
(0.00928392 0.152124 0)
(0.00943642 0.126136 0)
(0.0102147 0.0949093 0)
(0.00678157 0.0726734 0)
(0.00680864 0.0547666 0)
(0.00557478 0.0388973 0)
(0.00561351 0.0241926 0)
(0.00452001 0.0116164 0)
(0.00379947 0.000324921 0)
(0.00396969 -0.0102014 0)
(0.00189398 -0.0219518 0)
(0.00427874 -0.0340181 0)
(-0.00110004 -0.0526947 0)
(0.00715861 -0.0737117 0)
(-0.00750309 -0.106917 0)
(0.011134 -0.13648 0)
(-0.0175705 -0.179888 0)
(0.0120691 -0.260264 0)
(0.0068744 0.122566 0)
(0.0144964 0.155429 0)
(0.0195736 0.151007 0)
(0.0209546 0.128299 0)
(0.0216207 0.0987325 0)
(0.0185005 0.0754213 0)
(0.018458 0.056566 0)
(0.0173527 0.0403345 0)
(0.0169897 0.0256556 0)
(0.01582 0.0129957 0)
(0.0142428 0.00148519 0)
(0.0142375 -0.00927325 0)
(0.0114507 -0.0209405 0)
(0.0130582 -0.0329646 0)
(0.0079573 -0.0511431 0)
(0.0141858 -0.0714742 0)
(-0.000343386 -0.103577 0)
(0.0167529 -0.131137 0)
(-0.0164473 -0.176094 0)
(0.0139957 -0.262823 0)
(0.0103162 0.111667 0)
(0.0215154 0.147024 0)
(0.028769 0.145181 0)
(0.0323357 0.127756 0)
(0.0338431 0.096724 0)
(0.0312352 0.0740616 0)
(0.0312728 0.0555543 0)
(0.0304648 0.0396065 0)
(0.029795 0.0254236 0)
(0.0290191 0.0132175 0)
(0.0265875 0.00219688 0)
(0.0262943 -0.00851103 0)
(0.0224501 -0.0197492 0)
(0.023156 -0.0328745 0)
(0.0175987 -0.05042 0)
(0.0213876 -0.0713867 0)
(0.0072346 -0.101916 0)
(0.0205952 -0.127977 0)
(-0.0152262 -0.171002 0)
(0.0178521 -0.263387 0)
(0.0126407 0.0888352 0)
(0.0284388 0.136594 0)
(0.0397721 0.138788 0)
(0.0441455 0.128221 0)
(0.0474 0.101212 0)
(0.0457088 0.0762654 0)
(0.0454944 0.0570972 0)
(0.0451935 0.0413728 0)
(0.0442115 0.0276675 0)
(0.044135 0.0156772 0)
(0.0410875 0.00483472 0)
(0.0408012 -0.00593977 0)
(0.0360752 -0.0170216 0)
(0.0360396 -0.0303487 0)
(0.0298736 -0.0465611 0)
(0.0315572 -0.0669113 0)
(0.0181611 -0.0931874 0)
(0.0270718 -0.117332 0)
(-0.0124558 -0.164332 0)
(0.0213929 -0.261316 0)
(0.016106 0.0699072 0)
(0.0332895 0.119874 0)
(0.0483375 0.127806 0)
(0.0557241 0.120332 0)
(0.0614383 0.100065 0)
(0.0622992 0.0755405 0)
(0.0625781 0.0556222 0)
(0.0630092 0.0398892 0)
(0.0614561 0.0270166 0)
(0.0619625 0.0158269 0)
(0.058463 0.00593454 0)
(0.0583145 -0.00421551 0)
(0.0529209 -0.014587 0)
(0.0521534 -0.0272541 0)
(0.0449288 -0.0423646 0)
(0.044524 -0.0619321 0)
(0.0307557 -0.0860979 0)
(0.0327342 -0.108466 0)
(-0.00990093 -0.155928 0)
(0.0273985 -0.25851 0)
(0.0173502 0.0315339 0)
(0.0376229 0.10394 0)
(0.0543694 0.117817 0)
(0.0653968 0.114211 0)
(0.0747513 0.0991956 0)
(0.0800582 0.0780555 0)
(0.0820997 0.0582147 0)
(0.0847613 0.0417169 0)
(0.0832514 0.0286069 0)
(0.0844701 0.0175108 0)
(0.0805059 0.00829601 0)
(0.0804078 -0.00102405 0)
(0.0744516 -0.0101983 0)
(0.072847 -0.0220136 0)
(0.064538 -0.0352846 0)
(0.0617591 -0.053312 0)
(0.046479 -0.0723924 0)
(0.0411232 -0.0913224 0)
(-0.00419293 -0.145442 0)
(0.034011 -0.254089 0)
(0.00546524 0.00978063 0)
(0.0318698 0.0740735 0)
(0.0537528 0.0968289 0)
(0.0698165 0.097439 0)
(0.0847799 0.0878895 0)
(0.0966353 0.0725992 0)
(0.102654 0.0567395 0)
(0.109126 0.0418106 0)
(0.109413 0.0292312 0)
(0.112295 0.0181667 0)
(0.109038 0.0091602 0)
(0.108993 0.000224661 0)
(0.10236 -0.00812004 0)
(0.0992395 -0.0181909 0)
(0.0889782 -0.0289169 0)
(0.0819778 -0.0430473 0)
(0.0632952 -0.0573957 0)
(0.0486401 -0.0760634 0)
(0.00189408 -0.137985 0)
(0.0440007 -0.249159 0)
(-0.0211057 -0.00213059 0)
(0.015817 0.0606947 0)
(0.0411057 0.0793445 0)
(0.0649818 0.080944 0)
(0.0857072 0.0744425 0)
(0.106037 0.0626265 0)
(0.117574 0.0506028 0)
(0.130005 0.0396062 0)
(0.133685 0.0306377 0)
(0.13954 0.0216867 0)
(0.137752 0.0148867 0)
(0.138422 0.00719989 0)
(0.1315 0.00118114 0)
(0.127313 -0.00676924 0)
(0.114071 -0.0138809 0)
(0.103549 -0.024182 0)
(0.080119 -0.034325 0)
(0.0576742 -0.0540877 0)
(0.0171713 -0.127273 0)
(0.0572575 -0.236031 0)
(-0.0284441 0.0219906 0)
(-0.0151581 0.023043 0)
(0.0127801 0.0401256 0)
(0.046609 0.0443773 0)
(0.0732922 0.0435858 0)
(0.100657 0.0377404 0)
(0.118024 0.0321646 0)
(0.13446 0.0237454 0)
(0.143351 0.0192288 0)
(0.15077 0.0128115 0)
(0.153095 0.0101516 0)
(0.153274 0.00445206 0)
(0.149183 0.00298131 0)
(0.14398 -0.00274284 0)
(0.131366 -0.00415687 0)
(0.120464 -0.0113512 0)
(0.095056 -0.0149496 0)
(0.0800485 -0.0411555 0)
(0.0557044 -0.114002 0)
(0.0820005 -0.185054 0)
(0.0346888 0.0320294 0)
(0.0396201 0.018183 0)
(0.05735 0.0169577 0)
(0.0918024 0.0191257 0)
(0.119398 0.0209957 0)
(0.149752 0.0199808 0)
(0.17399 0.0184827 0)
(0.196889 0.0165501 0)
(0.214441 0.0145667 0)
(0.229808 0.0133074 0)
(0.241031 0.0115644 0)
(0.250521 0.01089 0)
(0.257036 0.00925104 0)
(0.261683 0.00898261 0)
(0.264981 0.00749255 0)
(0.264243 0.00667625 0)
(0.258277 0.00585474 0)
(0.243714 -0.00148363 0)
(0.20304 -0.0140863 0)
(0.150712 -0.0334362 0)
)
;

boundaryField
{
    movingWall
    {
        type            fixedValue;
        value           uniform (1 0 0);
    }
    fixedWalls
    {
        type            noSlip;
    }
    frontAndBack
    {
        type            empty;
    }
}


// ************************************************************************* //
