#           v             n
   1.1734e-05       1.00338
  1.76009e-05       1.00338
  2.64014e-05       1.00338
  3.96021e-05       1.00338
  5.94032e-05       1.00338
  8.91048e-05       1.00338
  0.000133657       1.00338
  0.000200486       1.00338
  0.000300729       1.00338
  0.000451093       1.00338
  0.000676639       1.00337
   0.00101496       1.00337
   0.00152244       1.00335
   0.00228366       1.00332
   0.00342549       1.00326
   0.00513823        1.0031
   0.00770735       1.00276
     0.011561       1.00199
    0.0173415       1.00026
    0.0260123      0.996376
    0.0390184      0.987623
    0.0585277       0.96819
    0.0877915      0.925394
     0.131687      0.834511
     0.197531      0.659774
     0.296296      0.392747
     0.444444      0.131744
     0.666667     0.0143898
            1   0.000533665
