#           v             n
     0.523599             0
     0.648652             0
     0.790112             0
     0.953116             0
      1.13449             0
      1.34047             0
      1.56672             0
      1.82069             0
      2.09677    0.00526447
      2.40376    0.00861839
      2.73462    0.00977712
      3.09966    0.00990953
      3.49026     0.0100228
      3.91837    0.00995105
      4.37366    0.00331893
      4.86986   0.000606314
       5.3948   7.50972e-05
      5.96412   6.70702e-06
      6.56366   4.68124e-07
      7.21112     2.572e-08
      7.89023   1.17085e-09
      8.62085   4.37768e-11
      9.38447   1.39975e-12
      10.2033   3.76847e-14
      11.0564   8.84893e-16
      11.9684   1.77799e-17
      12.9159    3.1573e-19
      13.9262   4.85088e-21
      14.9731   1.39595e-22
