/*--------------------------------*- C++ -*----------------------------------*\
  =========                 |
  \\      /  F ield         | OpenFOAM: The Open Source CFD Toolbox
   \\    /   O peration     | Website:  https://openfoam.org
    \\  /    A nd           | Version:  12
     \\/     M anipulation  |
\*---------------------------------------------------------------------------*/
FoamFile
{
    format      ascii;
    class       surfaceScalarField;
    location    "17.26";
    object      phi;
}
// * * * * * * * * * * * * * * * * * * * * * * * * * * * * * * * * * * * * * //

dimensions      [1 0 -1 0 0 0 0];

internalField   nonuniform List<scalar> 
7429
(
-0.000117813
0.000117813
-0.000234363
0.000116549
-0.000354771
0.000120407
-0.000480657
0.000125886
-0.000613419
0.000132762
-0.000754449
0.00014103
-0.00090507
0.00015062
-0.0010665
0.000161432
-0.00123985
0.000173343
-0.00142601
0.000186168
-0.00162566
0.000199648
-0.00183922
0.000213554
-0.00206685
0.000227633
-0.0023084
0.000241543
-0.00256331
0.000254912
-0.00283073
0.000267427
-0.00310947
0.000278738
-0.00339803
0.000288552
-0.00369455
0.000296522
-0.00399691
0.00030236
-0.00430269
0.000305776
-0.00460924
0.000306552
-0.00491371
0.000304471
-0.0052131
0.000299387
-0.00550434
0.000291243
-0.00578425
0.000279908
-0.00604975
0.000265497
-0.00629775
0.000248002
-0.00652535
0.0002276
-0.00672975
0.000204397
-0.00690839
0.000178641
-0.00705896
0.000150577
-0.00717945
0.000120484
-0.00726812
8.86733e-05
-0.00732372
5.56016e-05
-0.00734562
2.18957e-05
-0.00732929
-1.63325e-05
-0.00727337
-5.59164e-05
-0.00717917
-9.42028e-05
-0.0070479
-0.00013127
-0.00688126
-0.000166644
-0.0066812
-0.000200061
-0.00644957
-0.000231621
-0.00618805
-0.000261524
-0.00589845
-0.000289597
-0.00558288
-0.000315578
-0.00524374
-0.000339136
-0.00488395
-0.000359789
-0.00450662
-0.00037733
-0.00411524
-0.00039138
-0.00371327
-0.000401973
-0.00330454
-0.000408729
-0.00289288
-0.000411662
-0.00248249
-0.000410383
-0.00207737
-0.000405123
-0.00168171
-0.000395666
-0.00129953
-0.00038218
-0.000935329
-0.000364197
-0.000592494
-0.000342836
-0.000274634
-0.00031786
1.45223e-05
-0.000289156
0.00027142
-0.000256898
0.000493031
-0.000221611
0.000676176
-0.000183145
0.000819399
-0.000143224
0.000920254
-0.000100855
0.000977578
-5.73236e-05
0.00099121
-1.3632e-05
0.000955542
3.56683e-05
0.000875384
8.01577e-05
0.000752477
0.000122907
0.000588699
0.000163778
0.00038649
0.000202209
0.000148833
0.000237657
-0.000120408
0.000269242
-0.000416975
0.000296567
-0.000735444
0.000318469
-0.00106965
0.000334208
-0.00141338
0.000343728
-0.00175953
0.000346151
-0.00210116
0.000341631
-0.00243066
0.000329496
-0.00274047
0.000309809
-0.00302289
0.000282423
-0.00327087
0.000247975
-0.00347726
0.000206395
-0.00363592
0.000158655
-0.00374119
0.000105272
-0.00378834
4.71574e-05
-0.00376809
-2.02573e-05
-0.00367763
-9.04546e-05
-0.00351837
-0.000159263
-0.00329256
-0.000225813
-0.00300305
-0.000289512
-0.00265405
-0.000348998
-0.00225076
-0.00040329
-0.00179994
-0.00045082
-0.00131049
-0.000489447
-0.000792388
-0.000518103
-0.000257484
-0.000534904
0.000281209
-0.000538693
0.000810235
-0.000529026
0.00131515
-0.000504914
0.00178195
-0.000466799
0.00219661
-0.000414663
0.00254607
-0.000349455
0.00281893
-0.000272862
0.00300537
-0.000186439
0.00309847
-9.31022e-05
0.00308833
1.01367e-05
0.00297041
0.000117918
0.00275169
0.000218728
0.00243934
0.000312351
0.00204243
0.000396908
0.00157283
0.000469596
0.00104569
0.000527143
0.000480594
0.000565094
-0.000102671
0.000583264
-0.000680011
0.00057734
-0.00122836
0.000548344
-0.00172392
0.000495562
-0.00214441
0.000420492
-0.00247029
0.000325884
-0.00268538
0.000215088
-0.00277842
9.30361e-05
-0.00273301
-4.54034e-05
-0.00255206
-0.000180952
-0.00224592
-0.000306139
-0.00182982
-0.000416098
-0.00132087
-0.000508953
-0.000744046
-0.000576826
-0.000129099
-0.000614947
0.000491099
-0.000620197
0.0010809
-0.000589801
0.00160633
-0.000525435
0.0020348
-0.000428463
0.00233954
-0.000304741
0.00249981
-0.000160271
0.00250111
-1.30329e-06
0.00233276
0.00016835
0.00201412
0.000318643
0.00156616
0.000447963
0.00101706
0.000549092
0.000404624
0.000612439
-0.000226416
0.00063104
-0.000827729
0.000601313
-0.00135245
0.000524719
-0.00175804
0.000405587
-0.00201165
0.000253618
-0.00209257
8.09217e-05
-0.00197891
-0.000113665
-0.0016894
-0.000289505
-0.00125316
-0.000436247
-0.000708512
-0.000544645
-0.000106965
-0.000601547
0.000490614
-0.000597579
0.00102266
-0.000532048
0.0014331
-0.000410436
0.00167662
-0.000243521
0.00172674
-5.01234e-05
0.00155745
0.000169291
0.00119801
0.000359438
0.000687804
0.00051021
8.19204e-05
0.000605883
-0.000549067
0.000630987
-0.00112535
0.000576281
-0.00157389
0.000448547
-0.00183564
0.000261742
-0.00187449
3.88571e-05
-0.00166319
-0.000211306
-0.00123839
-0.0004248
-0.000650937
-0.00058745
2.55367e-05
-0.000676474
0.000698955
-0.000673418
0.00127721
-0.000578257
0.0016815
-0.000404291
0.00185845
-0.000176951
0.00177858
7.98781e-05
0.00146736
0.000311217
0.000983009
0.000484351
0.000409225
0.000573784
-0.000153383
0.000562608
-0.000603785
0.000450402
-0.000865927
0.000262141
-0.000900909
3.49824e-05
-0.000703213
-0.000197696
-0.000332797
-0.000370416
0.000123897
-0.000456694
0.000555651
-0.000431755
0.000858559
-0.000302908
0.000957014
-9.84544e-05
0.000814334
0.000142679
0.000464863
0.000349472
-1.27465e-05
0.000477609
-0.000502279
0.000489533
-0.000872716
0.000370437
-0.00102029
0.000147576
-0.000895801
-0.000124492
-0.000523941
-0.00037186
-0.000523941
5.27446e-05
6.50678e-05
0.000117566
5.17273e-05
0.000178215
5.97571e-05
0.000231667
7.24322e-05
0.000275047
8.93811e-05
0.000305505
0.000110571
0.000320017
0.000136107
0.000315836
0.000165612
0.000290097
0.000199082
0.000240284
0.00023598
0.00016413
0.000275802
5.99469e-05
0.000317737
-7.32273e-05
0.000360806
-0.000235629
0.000403944
-0.000427036
0.000446318
-0.000646479
0.000486869
-0.000892335
0.000524593
-0.00116234
0.000558555
-0.00145366
0.000587838
-0.00176303
0.00061173
-0.00208669
0.000629434
-0.00242057
0.000640437
-0.00276043
0.000644324
-0.0031016
0.000640563
-0.00343984
0.000629478
-0.00377032
0.00061039
-0.00408883
0.000584009
-0.00439074
0.000549905
-0.00467201
0.000508872
-0.00492863
0.000461014
-0.00515723
0.000407239
-0.0053543
0.00034765
-0.00551706
0.00028325
-0.005643
0.000214607
-0.00572999
0.000142589
-0.00577585
6.77564e-05
-0.00578615
-6.02834e-06
-0.00576424
-7.78268e-05
-0.00570671
-0.000151736
-0.00561233
-0.000225644
-0.00548073
-0.000298252
-0.00531221
-0.000368573
-0.00510803
-0.000435801
-0.00487031
-0.000499251
-0.00460162
-0.000558287
-0.00430495
-0.000612248
-0.00398341
-0.000660669
-0.0036403
-0.000702902
-0.00327903
-0.000738603
-0.00290328
-0.000767133
-0.00251689
-0.000788357
-0.00212398
-0.000801643
-0.00172845
-0.000807192
-0.00133459
-0.000804246
-0.000946588
-0.00079312
-0.000568659
-0.000773595
-0.000205534
-0.000745305
0.000139598
-0.000709329
0.000461663
-0.0006649
0.000756419
-0.000612616
0.0010202
-0.000552938
0.00124957
-0.000486268
0.00144206
-0.000414103
0.00159467
-0.000335752
0.00170474
-0.00025329
0.00176974
-0.000165854
0.00178932
-7.69115e-05
0.00175545
2.02443e-05
0.00167559
0.000115531
0.00154938
0.00020636
0.00137821
0.000294081
0.00116423
0.000377758
0.000909521
0.000456916
0.000618022
0.000529156
0.000293247
0.000594017
-5.85203e-05
0.000648334
-0.00043304
0.000692989
-0.000823519
0.000724686
-0.00122271
0.000742918
-0.00162302
0.000746462
-0.00201715
0.000735763
-0.00239634
0.000708682
-0.00275273
0.000666197
-0.00307797
0.00060767
-0.0033641
0.0005341
-0.00360346
0.000445756
-0.00378887
0.000344071
-0.00391435
0.000230743
-0.00397557
0.000108383
-0.0039635
-3.23248e-05
-0.00387585
-0.000178107
-0.00371372
-0.000321397
-0.00347869
-0.000460841
-0.00317329
-0.000594907
-0.00280186
-0.000720429
-0.00236996
-0.000835194
-0.00188561
-0.000935168
-0.00135857
-0.00101649
-0.000800097
-0.00107657
-0.000223107
-0.00111189
0.000358189
-0.00111999
0.000928747
-0.00109958
0.00147308
-0.00104924
0.0019754
-0.00096912
0.00242106
-0.000860325
0.00279521
-0.000723605
0.00308566
-0.000563313
0.00328183
-0.00038261
0.00337496
-0.000186225
0.00335575
2.93386e-05
0.00322352
0.000250155
0.00298281
0.000459436
0.00263986
0.000655301
0.00220441
0.00083236
0.00168936
0.000984646
0.0011133
0.0011032
0.000494661
0.00118374
-0.000140461
0.00121839
-0.000769196
0.00120607
-0.00136475
0.00114389
-0.00190241
0.00103323
-0.00235708
0.000875154
-0.00270719
0.000676003
-0.00293523
0.000443119
-0.0030283
0.000186108
-0.00297283
-0.000100874
-0.00277272
-0.000381061
-0.00243736
-0.000641499
-0.00198006
-0.0008734
-0.00142268
-0.00106633
-0.000792032
-0.00120747
-0.000121036
-0.00128594
0.000555646
-0.00129688
0.00119733
-0.00123149
0.00176702
-0.00109512
0.002229
-0.000890449
0.00255488
-0.000630614
0.00272208
-0.000327472
0.00271241
8.36805e-06
0.00252388
0.000356876
0.00217221
0.000670311
0.00167763
0.000942549
0.00107374
0.00115298
0.000402006
0.00128418
-0.000287443
0.00132049
-0.000942989
0.00125686
-0.00151235
0.00109408
-0.00195041
0.000843647
-0.00221954
0.000522738
-0.00229572
0.000157109
-0.00216252
-0.000246867
-0.00183885
-0.000613178
-0.00135289
-0.000922204
-0.000749166
-0.00114837
-8.54445e-05
-0.00126527
0.000573678
-0.0012567
0.00115845
-0.00111682
0.00160735
-0.000859331
0.001871
-0.00050717
0.0019197
-9.88287e-05
0.00173313
0.000355869
0.00133842
0.000754141
0.000777351
0.00107128
0.000111912
0.00127132
-0.000579342
0.00132224
-0.00120974
0.00120668
-0.00169967
0.000938477
-0.00198433
0.000546407
-0.00202457
7.90947e-05
-0.00179768
-0.000438195
-0.00133926
-0.00088322
-0.000704369
-0.00122235
2.57165e-05
-0.00140656
0.000748847
-0.00139655
0.00136576
-0.00119517
0.00179084
-0.00082937
0.00196596
-0.000352077
0.00186469
0.000181152
0.00151514
0.000660769
0.000979329
0.00102016
0.000350856
0.00120226
-0.000259444
0.00117291
-0.000742021
0.000932979
-0.00101412
0.000534243
-0.00103434
5.52027e-05
-0.000802851
-0.000429188
-0.00038258
-0.000790687
0.000130249
-0.000969523
0.00061209
-0.000913596
0.000949428
-0.000640246
0.00105883
-0.000207854
0.000904142
0.000297365
0.000519871
0.000733743
-5.25913e-06
0.00100274
-0.000543829
0.0010281
-0.000951024
0.000777632
-0.0011142
0.000310753
-0.000979147
-0.000259545
-0.000572898
-0.000778109
-0.00109684
0.000128169
-6.31017e-05
0.000254788
-7.48924e-05
0.000366473
-5.19288e-05
0.000452813
-1.39095e-05
0.000511079
3.11145e-05
0.000538694
8.29553e-05
0.000527008
0.000147793
0.000470088
0.000222532
0.000361453
0.000307715
0.000198116
0.000399316
-2.2036e-05
0.000495953
-0.000298779
0.000594479
-0.000631653
0.000693679
-0.00101841
0.000790698
-0.00145593
0.000883842
-0.00193965
0.000970581
-0.00246427
0.00104921
-0.00302288
0.00111717
-0.00360886
0.00117381
-0.00421369
0.00121656
-0.00482889
0.00124463
-0.00544501
0.00125655
-0.00605298
0.0012523
-0.00664322
0.0012308
-0.00720692
0.00119319
-0.00773543
0.00113889
-0.00822162
0.0010702
-0.00865854
0.000986829
-0.00904182
0.000892151
-0.00936699
0.000786184
-0.00963178
0.000672028
-0.00983419
0.000550059
-0.0099737
0.000422764
-0.0100505
0.000291452
-0.0100664
0.000158488
-0.0100263
2.76142e-05
-0.0099068
-0.000125534
-0.00971736
-0.000267272
-0.00946715
-0.000401941
-0.00916347
-0.000529332
-0.00881227
-0.000649447
-0.00841764
-0.000763199
-0.00798257
-0.000870874
-0.00751103
-0.000970796
-0.00700744
-0.00106188
-0.00647493
-0.00114476
-0.00591924
-0.00121635
-0.00534484
-0.0012773
-0.00475619
-0.00132725
-0.00415811
-0.00136522
-0.00355703
-0.00138944
-0.00295766
-0.00140101
-0.00236416
-0.00140069
-0.00178315
-0.00138525
-0.00121926
-0.00135701
-0.000677431
-0.00131542
-0.00016187
-0.00126087
0.000320891
-0.00119209
0.000766345
-0.00111035
0.0011714
-0.00101767
0.00153124
-0.000912773
0.00184365
-0.000798684
0.00210172
-0.000672175
0.00230605
-0.000540075
0.00245256
-0.000399803
0.0025406
-0.000253894
0.00256817
-0.00010448
0.00253274
5.56728e-05
0.00243906
0.00020921
0.00228632
0.000359102
0.00207551
0.000504891
0.00180946
0.000643804
0.00149288
0.000773498
0.00112937
0.000892672
0.000725412
0.00099797
0.000287004
0.00108674
-0.000177672
0.00115767
-0.000661804
0.00120882
-0.00115657
0.00123769
-0.00165283
0.00124271
-0.00214087
0.00122381
-0.00261071
0.00117852
-0.00305214
0.00110762
-0.00345531
0.00101084
-0.00381049
0.000889283
-0.00410913
0.000744392
-0.0043426
0.000577548
-0.00450358
0.000391716
-0.00458553
0.000190335
-0.00457959
-3.82646e-05
-0.00448375
-0.000273945
-0.00429952
-0.000505633
-0.00402799
-0.000732363
-0.00367158
-0.000951318
-0.00323508
-0.00115693
-0.00272614
-0.00134414
-0.00215428
-0.00150703
-0.0015311
-0.00163967
-0.000870147
-0.00173752
-0.000186997
-0.00179504
0.000500685
-0.00180767
0.00117528
-0.00177418
0.00181774
-0.0016917
0.0024103
-0.00156168
0.00293399
-0.00138401
0.0033727
-0.00116232
0.00371006
-0.000900673
0.00393359
-0.000606143
0.00403616
-0.000288792
0.00400181
6.36896e-05
0.0038358
0.000416166
0.00354151
0.000753725
0.00312514
0.00107167
0.00259875
0.00135875
0.00197951
0.00160389
0.0012866
0.0017961
0.000546415
0.00192392
-0.000214827
0.00197963
-0.000965645
0.00195689
-0.0016751
0.00185335
-0.00231307
0.0016712
-0.00285019
0.00141228
-0.00326116
0.00108698
-0.0035247
0.000706658
-0.00362797
0.000289378
-0.00355168
-0.000177166
-0.00330425
-0.000628491
-0.00289731
-0.00104844
-0.00234371
-0.001427
-0.00167034
-0.00173969
-0.000911357
-0.00196646
-0.000104021
-0.00209328
0.000702326
-0.00210323
0.00146643
-0.00199559
0.0021418
-0.00177048
0.00268819
-0.00143684
0.00306637
-0.0010088
0.00325496
-0.000516063
0.00322894
3.43872e-05
0.00299434
0.000591476
0.00256361
0.00110105
0.00196298
0.00154318
0.00123191
0.00188404
0.000422218
0.00209387
-0.000407276
0.00214998
-0.00119196
0.00204154
-0.00186927
0.00177139
-0.00238445
0.00135883
-0.00269358
0.000831865
-0.00277146
0.000234991
-0.00259706
-0.000421263
-0.00219546
-0.00101479
-0.00159841
-0.00151925
-0.000859828
-0.00188695
-4.77116e-05
-0.00207739
0.000747042
-0.00205146
0.00145132
-0.00182111
0.00199
-0.00139801
0.0023032
-0.000820367
0.00235165
-0.000147279
0.00212282
0.000584698
0.00164414
0.00123282
0.000964991
0.00175043
0.000161613
0.0020747
-0.000671727
0.00215558
-0.00142933
0.00196428
-0.00201562
0.00152477
-0.00235374
0.000884529
-0.00239753
0.000122887
-0.0021274
-0.000708324
-0.00158173
-0.00142889
-0.000827568
-0.00197651
3.47405e-05
-0.00226887
0.000883897
-0.0022457
0.00160148
-0.00191276
0.00208647
-0.00131435
0.00227183
-0.000537436
0.00212868
0.000324301
0.00169273
0.00109672
0.00103923
0.00167366
0.000282074
0.00195942
-0.000443196
0.00189818
-0.00100709
0.00149688
-0.00131244
0.000839587
-0.00130891
5.16769e-05
-0.00100763
-0.000730467
-0.000480591
-0.00131773
0.00015384
-0.00160395
0.000746363
-0.00150612
0.00115933
-0.00105321
0.00129265
-0.000341178
0.00110642
0.000483595
0.000640514
0.00119965
3.34378e-06
0.00163991
-0.000647405
0.00167885
-0.00113985
0.00127008
-0.00133817
0.000509071
-0.00117752
-0.000420201
-0.000689345
-0.00126628
-0.00178618
0.000562898
-0.000626001
0.00113926
-0.000651252
0.00171019
-0.000622865
0.00227038
-0.0005741
0.00280436
-0.000502865
0.0033006
-0.000413282
0.00374757
-0.000299179
0.00413952
-0.000169417
0.00446684
-1.96066e-05
0.00468803
0.000178118
0.00478742
0.000396568
0.0047621
0.000619797
0.00460929
0.000846482
0.00433226
0.00106774
0.00393595
0.00128015
0.00342941
0.00147711
0.00282389
0.00165474
0.00213233
0.00180873
0.00136912
0.00193702
0.000552543
0.00203314
-0.00030051
0.00209769
-0.00117254
0.00212858
-0.00204783
0.00212759
-0.00290759
0.00209056
-0.00373878
0.00202438
-0.00452325
0.00192335
-0.00525301
0.00179997
-0.00591205
0.00164586
-0.00649928
0.00147939
-0.00700264
0.00128954
-0.00742197
0.00109136
-0.00775236
0.000880445
-0.00799395
0.000664353
-0.00814635
0.000443856
-0.00820963
0.000221762
-0.00818672
4.70579e-06
-0.00811627
-0.000195979
-0.00798397
-0.000399569
-0.00778787
-0.000598048
-0.00752847
-0.000788734
-0.0072083
-0.000969612
-0.00683203
-0.00113947
-0.00640606
-0.00129685
-0.00593584
-0.00144102
-0.00542665
-0.00157107
-0.0048857
-0.00168571
-0.00431721
-0.00178484
-0.0037271
-0.00186742
-0.00312211
-0.00193224
-0.00250749
-0.00197984
-0.00188797
-0.00200896
-0.00126957
-0.00201941
-0.000659305
-0.00201096
-6.16299e-05
-0.00198293
0.000517324
-0.00193597
0.00107137
-0.00186947
0.00159411
-0.00178361
0.00208238
-0.00168036
0.00252956
-0.00155753
0.0029302
-0.00141831
0.00327859
-0.00126117
0.00357153
-0.00109162
0.00380476
-0.000905405
0.00397352
-0.000708826
0.0040766
-0.000502887
0.00411027
-0.000287563
0.00407605
-7.02564e-05
0.00396654
0.000165178
0.00378853
0.000387221
0.0035424
0.000605226
0.00322995
0.00081735
0.00285404
0.00101971
0.00241928
0.00120826
0.00193083
0.00138112
0.00139587
0.00153293
0.000821923
0.00166068
0.00021713
0.00176246
-0.000408219
0.00183417
-0.00104376
0.00187323
-0.00167839
0.00187734
-0.00230017
0.00184559
-0.00289746
0.00177581
-0.00345806
0.00166822
-0.00397016
0.00152294
-0.0044222
0.00134133
-0.00480307
0.00112526
-0.005102
0.000876479
-0.00531024
0.000599957
-0.00541785
0.000297947
-0.00542118
-3.49414e-05
-0.00531561
-0.000379506
-0.00510164
-0.000719608
-0.00477973
-0.00105427
-0.00435337
-0.00137767
-0.00382865
-0.00168166
-0.00321481
-0.00195797
-0.0025234
-0.00219844
-0.00177014
-0.00239292
-0.00097008
-0.00253759
-0.000144711
-0.00262041
0.000686136
-0.00263852
0.00150038
-0.00258843
0.00227516
-0.00246648
0.00298813
-0.00227465
0.00361596
-0.00201185
0.00413904
-0.0016854
0.00453987
-0.0013015
0.00480236
-0.00086863
0.00491333
-0.00039977
0.00486155
0.00011547
0.0046511
0.000626623
0.004285
0.00111982
0.00377118
0.00158549
0.00312342
0.00200651
0.00236229
0.00236502
0.00151346
0.00264493
0.000607727
0.00282966
-0.000319446
0.0029068
-0.0012318
0.00286925
-0.00209333
0.00271487
-0.00286515
0.00244302
-0.00351183
0.00205896
-0.0040036
0.00157874
-0.00431471
0.00101777
-0.00442528
0.000399953
-0.00432165
-0.000280797
-0.00401329
-0.000936855
-0.00350723
-0.0015545
-0.00282556
-0.00210868
-0.00199864
-0.00256661
-0.00106924
-0.00289585
-8.36916e-05
-0.00307883
0.000901268
-0.00308819
0.00182948
-0.00292381
0.00264699
-0.002588
0.00330311
-0.00209296
0.00375559
-0.00146128
0.00396906
-0.000729531
0.00392415
7.93004e-05
0.00362557
0.000890056
0.00308739
0.00163923
0.00234248
0.00228808
0.00144133
0.0027852
0.000447601
0.00308759
-0.000568246
0.00316583
-0.00152534
0.00299864
-0.00234804
0.00259409
-0.00296833
0.00197913
-0.00333205
0.00119559
-0.00340497
0.00030791
-0.00317736
-0.000648879
-0.00266971
-0.00152243
-0.00192364
-0.00226532
-0.00100739
-0.0028032
-7.99341e-06
-0.00307679
0.000975797
-0.00303525
0.00184098
-0.00268629
0.00249786
-0.00205489
0.00287477
-0.00119728
0.00292506
-0.000197568
0.00263756
0.000872191
0.00204317
0.00182722
0.00120398
0.00258962
0.000215937
0.00306274
-0.000805167
0.00317668
-0.00173049
0.0028896
-0.0024438
0.00223807
-0.00285229
0.00129302
-0.00289858
0.000169172
-0.00256818
-0.00103872
-0.00190301
-0.00209405
-0.000989167
-0.00289035
5.32693e-05
-0.0033113
0.00107338
-0.00326582
0.00192792
-0.0027673
0.002493
-0.00187943
0.00269079
-0.000735223
0.00249333
0.000521762
0.00194151
0.00164854
0.00113052
0.00248464
0.000201112
0.00288883
-0.000676024
0.00277531
-0.00134934
0.0021702
-0.00170098
0.00119122
-0.00166549
1.61882e-05
-0.00127216
-0.00112379
-0.000603367
-0.00198652
0.000192329
-0.00239965
0.000930341
-0.00224413
0.00144261
-0.00156547
0.00160633
-0.000504904
0.00137622
0.000713704
0.000800537
0.00177534
1.39241e-05
0.00242652
-0.000787456
0.00248023
-0.00139449
0.00187711
-0.00163947
0.000754052
-0.00144308
-0.00061659
-0.000844742
-0.00186462
-0.00263093
0.00131795
-0.00194395
0.0026504
-0.0019837
0.00394873
-0.00192121
0.0051814
-0.00180676
0.00630594
-0.00162741
0.00728515
-0.00139249
0.00805102
-0.00106505
0.00856627
-0.000684668
0.00873026
-0.000183592
0.00861207
0.000296307
0.00823489
0.000773746
0.00762521
0.00122948
0.00679842
0.00167327
0.00577609
0.00209006
0.00458028
0.00247596
0.00323579
0.0028216
0.00177042
0.00312011
0.000211885
0.00336726
-0.00140931
0.00355821
-0.00306371
0.00368754
-0.00472162
0.00375559
-0.00634434
0.0037513
-0.00790073
0.00368397
-0.00935369
0.00354352
-0.0106792
0.00334991
-0.0118419
0.003086
-0.0128342
0.00279232
-0.0136302
0.00244185
-0.0142525
0.00210163
-0.0147018
0.00173886
-0.014994
0.0013836
-0.0151391
0.00102556
-0.0151493
0.000674522
-0.0150387
0.0003333
-0.0148184
1.43974e-06
-0.0144663
-0.000347364
-0.014005
-0.000657303
-0.0134609
-0.000943672
-0.0128463
-0.00121272
-0.0121695
-0.00146548
-0.0114385
-0.00170063
-0.0106601
-0.0019178
-0.00984082
-0.00211618
-0.00898942
-0.00229241
-0.0081118
-0.00244869
-0.00721356
-0.00258394
-0.0063041
-0.00269431
-0.00538888
-0.00278264
-0.00447351
-0.0028476
-0.00356277
-0.00289058
-0.00266648
-0.00290525
-0.00178802
-0.00289787
-0.000935255
-0.00286372
-0.000110669
-0.00280752
0.000675317
-0.00272195
0.00141905
-0.0026132
0.0021138
-0.00247836
0.00275388
-0.00232044
0.00333399
-0.00213763
0.00384981
-0.00193413
0.00429549
-0.00170685
0.00466535
-0.00146149
0.00495948
-0.00119953
0.0051714
-0.000920752
0.00529809
-0.00062957
0.00533607
-0.000325548
0.00528074
-1.49305e-05
0.0051474
0.000298518
0.0049258
0.000608821
0.00461806
0.000912974
0.00422757
0.00120784
0.00375963
0.00148764
0.00322
0.00174789
0.00261569
0.00198543
0.00195455
0.00219408
0.0012467
0.00236853
0.000502293
0.00250687
-0.000266034
0.00260249
-0.00104581
0.00265301
-0.00182374
0.00265526
-0.00258644
0.00260829
-0.00331834
0.00250771
-0.00400419
0.00235407
-0.00462961
0.00214836
-0.00518201
0.00189373
-0.00564736
0.00159061
-0.00601338
0.00124249
-0.00626599
0.000852572
-0.00640029
0.000432247
-0.00640908
-2.61524e-05
-0.00628722
-0.000501361
-0.00603405
-0.000972779
-0.00565052
-0.0014378
-0.00514097
-0.00188723
-0.0045132
-0.00230943
-0.00377804
-0.00269312
-0.00295026
-0.00302623
-0.00204674
-0.00329645
-0.00109113
-0.0034932
-0.000102409
-0.00360913
0.000890787
-0.00363171
0.00186339
-0.00356104
0.00278872
-0.0033918
0.0036372
-0.00312314
0.00438616
-0.0027608
0.00500558
-0.00230482
0.00547535
-0.00177127
0.00577753
-0.00117081
0.00589672
-0.000518957
0.00582711
0.00018508
0.00556715
0.000886583
0.00511889
0.00156808
0.00449237
0.00221201
0.0037058
0.00279307
0.00278436
0.00328646
0.00176167
0.00366763
0.000670759
0.00392056
-0.000445257
0.00402282
-0.00154078
0.00396478
-0.00257176
0.00374585
-0.00349253
0.00336378
-0.00426309
0.00282952
-0.00484362
0.00215928
-0.00520584
0.00137999
-0.00532262
0.000516731
-0.00519072
-0.000412699
-0.00480929
-0.00131828
-0.00419007
-0.00217372
-0.00336168
-0.00293707
-0.00235933
-0.00356896
-0.00123551
-0.00401967
-5.11563e-05
-0.00426319
0.0011332
-0.00427254
0.00224696
-0.00403757
0.00322397
-0.00356501
0.00400111
-0.00287009
0.00453329
-0.00199346
0.00477553
-0.000971772
0.00470793
0.000146899
0.00433649
0.0012615
0.00367657
0.00229915
0.00276873
0.00319592
0.00167332
0.00388061
0.000465506
0.00429541
-0.000759471
0.00439081
-0.00190883
0.00414799
-0.00289222
0.00357748
-0.00362687
0.00271377
-0.00405261
0.00162134
-0.0041238
0.000379099
-0.00383407
-0.000938612
-0.00320375
-0.00215275
-0.00228688
-0.00318219
-0.00116677
-0.00392331
4.9563e-05
-0.00429312
0.00124053
-0.00422621
0.00228675
-0.00373251
0.0030748
-0.00284294
0.00351901
-0.00164149
0.00357244
-0.000250996
0.00321512
0.00122951
0.00248766
0.00255468
0.00146718
0.0036101
0.000270369
0.00425956
-0.000962839
0.00440989
-0.00207745
0.00400422
-0.00293445
0.00309507
-0.00341691
0.00177548
-0.00346301
0.000215271
-0.00306155
-0.00144018
-0.00225986
-0.00289575
-0.00116178
-0.00398843
8.33547e-05
-0.00455644
0.0012947
-0.00447717
0.00230082
-0.00377341
0.00295837
-0.00253698
0.00316725
-0.000944106
0.00290627
0.000782744
0.00222228
0.00233253
0.00123318
0.00347374
0.000106007
0.00401599
-0.000939172
0.00382049
-0.00173261
0.00296363
-0.00213289
0.00159151
-0.00206626
-5.045e-05
-0.00156506
-0.00162499
-0.000735346
-0.00281624
0.000242038
-0.00337704
0.00114399
-0.00314608
0.00176693
-0.00218842
0.00196373
-0.00070171
0.00168221
0.000995229
0.00098134
0.00247621
2.6425e-05
0.00338144
-0.00094754
0.0034542
-0.00168395
0.00261352
-0.00198151
0.00105161
-0.00174534
-0.000852758
-0.00102232
-0.00258764
-0.00365324
0.00190963
-0.00385359
0.00382963
-0.00390369
0.00575234
-0.00384391
0.00767727
-0.0037317
0.00959811
-0.00354825
0.0115216
-0.003316
0.0133333
-0.00287669
0.0149809
-0.00233233
0.0162199
-0.00142253
0.0170642
-0.000548003
0.0174093
0.000428613
0.0172407
0.00139805
0.0165914
0.00232257
0.015511
0.00317054
0.0140543
0.00393259
0.012281
0.00459495
0.01025
0.00515113
0.00802417
0.00559305
0.00566109
0.00592129
0.00322735
0.00612128
0.000782576
0.00620037
-0.00160963
0.00614351
-0.00390175
0.00597609
-0.0060278
0.00566957
-0.00796011
0.00528221
-0.00961933
0.00474522
-0.0110271
0.00420013
-0.0120666
0.00348128
-0.0129147
0.00294976
-0.0134955
0.00231962
-0.0138802
0.00176837
-0.014057
0.00120236
-0.0140553
0.000672821
-0.0138861
0.000164015
-0.0136061
-0.000278547
-0.0132458
-0.000707665
-0.0127893
-0.00111374
-0.0122407
-0.00149235
-0.0116107
-0.00184271
-0.0109116
-0.00216453
-0.0101546
-0.00245761
-0.00935013
-0.0027223
-0.00850766
-0.00295865
-0.00763205
-0.00316802
-0.00673132
-0.00334942
-0.00581376
-0.00350151
-0.00488215
-0.00362591
-0.00394348
-0.00372131
-0.00300434
-0.00378674
-0.00207179
-0.00382313
-0.00114878
-0.00382826
-0.000245113
-0.00380154
0.000636082
-0.00374492
0.00148491
-0.00365635
0.00229668
-0.00353372
0.00306363
-0.00338015
0.00377944
-0.00319418
0.00443909
-0.00298009
0.00503273
-0.00273127
0.00555428
-0.00245568
0.00599948
-0.00215205
0.00636443
-0.00182644
0.00664065
-0.00147575
0.00682548
-0.00110558
0.00691291
-0.000717002
0.00690393
-0.000316563
0.00679209
9.69026e-05
0.00658276
0.000507849
0.00627558
0.000916007
0.00587212
0.00131643
0.00537524
0.00170472
0.00479
0.00207288
0.00412258
0.00241531
0.00338186
0.00272615
0.00257704
0.0029989
0.00171998
0.00322558
0.000822411
0.00340444
-0.000101951
0.00352686
-0.00103847
0.00358953
-0.00196932
0.00358611
-0.00287859
0.00351757
-0.00375088
0.00338
-0.00456889
0.00317208
-0.00531295
0.00289242
-0.00597025
0.00255102
-0.00652358
0.00214395
-0.00695529
0.0016742
-0.00725709
0.00115436
-0.0074206
0.00059576
-0.0074329
-1.38512e-05
-0.00729244
-0.000641824
-0.00699785
-0.00126737
-0.00655044
-0.00188521
-0.00595367
-0.002484
-0.00521773
-0.00304537
-0.00435545
-0.0035554
-0.00338482
-0.00399685
-0.00232894
-0.00435233
-0.00120756
-0.00461458
-5.4247e-05
-0.00476245
0.00110627
-0.00479224
0.0022422
-0.00469696
0.00332037
-0.00446997
0.00430789
-0.00411066
0.00517457
-0.00362748
0.00589461
-0.00302486
0.00643545
-0.00231211
0.00677862
-0.00151397
0.00691439
-0.000654733
0.00682056
0.000278911
0.00650447
0.00120268
0.00596853
0.00210402
0.00522518
0.00295537
0.00429401
0.00372424
0.00320983
0.00437064
0.00200243
0.00487502
0.000724317
0.00519868
-0.000584827
0.00533196
-0.00186864
0.00524859
-0.00307419
0.0049514
-0.00414744
0.00443703
-0.00504205
0.00372413
-0.00571062
0.00282784
-0.00611967
0.00178905
-0.00624684
0.000643903
-0.00608062
-0.000578928
-0.00562209
-0.00177681
-0.0048858
-0.00291
-0.00390381
-0.00391906
-0.00272282
-0.00474995
-0.00139913
-0.00534336
-6.44714e-06
-0.00565587
0.00138013
-0.00565912
0.00268344
-0.00534088
0.0038241
-0.00470567
0.00472879
-0.00377479
0.00533493
-0.0025996
0.00561098
-0.00124783
0.00551781
0.000240076
0.00506593
0.00171338
0.00427492
0.00309016
0.00319501
0.00427583
0.00189784
0.00517778
0.000480778
0.00571247
-0.00096201
0.0058336
-0.00231324
0.00549922
-0.00346434
0.00472858
-0.0043191
0.00356853
-0.00479835
0.00210059
-0.00486703
0.000447783
-0.00450707
-0.00129857
-0.00374752
-0.0029123
-0.00265408
-0.00427563
-0.00132583
-0.00525155
0.000116008
-0.00573496
0.00152305
-0.00563325
0.00275267
-0.00496213
0.00367697
-0.00376724
0.00419047
-0.00215499
0.00423678
-0.000297309
0.00380646
0.00165983
0.00294023
0.00342091
0.00173041
0.00481992
0.000316686
0.00567328
-0.00113442
0.005861
-0.00244155
0.00531134
-0.00344052
0.00409403
-0.00400237
0.00233733
-0.0040437
0.000256599
-0.00356531
-0.00191856
-0.00261866
-0.0038424
-0.0013313
-0.00527579
0.000122433
-0.00601018
0.0015312
-0.00588593
0.00269403
-0.00493625
0.00343787
-0.00328082
0.00365947
-0.00116571
0.00332925
0.00111297
0.00250663
0.00315515
0.00133383
0.00464654
1.21081e-05
0.00533772
-0.00121114
0.00504374
-0.00213035
0.00388284
-0.00257719
0.00203835
-0.00247654
-0.000151092
-0.0018616
-0.00223993
-0.000864578
-0.00381326
0.000300347
-0.00454196
0.00137011
-0.00421584
0.00210632
-0.00292463
0.00233587
-0.000931255
0.0019989
0.00133219
0.00116714
0.00330797
3.66319e-05
0.00451195
-0.00111452
0.00460535
-0.00198487
0.00348387
-0.00233634
0.00140307
-0.00205741
-0.00113169
-0.00120453
-0.00344051
-0.00485777
0.00386353
-0.00771712
0.00777345
-0.00781361
0.0117897
-0.00786016
0.0160019
-0.00794392
0.0205139
-0.00806023
0.0253341
-0.00813624
0.0300058
-0.00754832
0.0336836
-0.00601013
0.0346806
-0.00241959
0.0339085
0.000224116
0.0319369
0.00240023
0.0292704
0.00406449
0.0261131
0.00547986
0.022574
0.00670968
0.0187333
0.00777329
0.0146666
0.00866162
0.0104448
0.00937296
0.00613297
0.00990489
0.00179982
0.0102544
-0.00249663
0.0104177
-0.00669626
0.0104
-0.0106822
0.0101295
-0.0143804
0.00967434
-0.0176578
0.00894693
-0.0204266
0.00805104
-0.0225116
0.00683021
-0.0238627
0.00555124
-0.0242943
0.00391288
-0.0243428
0.0029982
-0.0240839
0.00206073
-0.0236156
0.00130013
-0.0229811
0.000567823
-0.0221928
-0.000115476
-0.0212823
-0.000746487
-0.0202658
-0.00129502
-0.0191832
-0.00179034
-0.0180509
-0.00224598
-0.0168826
-0.00266069
-0.015686
-0.00303928
-0.0144691
-0.00338139
-0.0132376
-0.00368918
-0.011996
-0.00396388
-0.0107494
-0.00420526
-0.00950279
-0.00441462
-0.00826152
-0.00459068
-0.00702788
-0.00473515
-0.0058073
-0.00484648
-0.00460464
-0.00492398
-0.00342151
-0.00496987
-0.00226425
-0.00498039
-0.00113715
-0.00495536
-4.34177e-05
-0.00489528
0.00100912
-0.00479745
0.00201459
-0.00466182