#           v             n
     0.523599   2.12098e-11
     0.648652   2.12751e-11
     0.790112   5.89999e-11
     0.953116   1.76391e-10
      1.13449   5.42811e-10
      1.34047   1.77577e-09
      1.56672   5.90039e-09
      1.82069    2.0532e-08
      2.09677   7.14917e-08
      2.40376   2.56403e-07
      2.73462   9.04301e-07
      3.09966   3.22168e-06
      3.49026   1.10459e-05
      3.91837   3.73226e-05
      4.37366   0.000117885
      4.86986   0.000354494
       5.3948   0.000954113
      5.96412     0.0023159
      6.56366    0.00467631
      7.21112    0.00774862
      7.89023    0.00943761
      8.62085    0.00860522
      9.38447    0.00634395
      10.2033    0.00296889
      11.0564             0
      11.9684             0
      12.9159             0
      13.9262             0
      14.9731             0
