# Selection :     sampledSurface(triSurfaceAverage(triSurface=mid.obj,p))
# Faces  :        80
# Area   :        1.0000000000e-01
# Time            	areaAverage(p)
1                 	1.0000015661e+05
