/*--------------------------------*- C++ -*----------------------------------*\
  =========                 |
  \\      /  F ield         | OpenFOAM: The Open Source CFD Toolbox
   \\    /   O peration     | Website:  https://openfoam.org
    \\  /    A nd           | Version:  12
     \\/     M anipulation  |
\*---------------------------------------------------------------------------*/
FoamFile
{
    format      ascii;
    class       volVectorField;
    location    "600";
    object      U;
}
// * * * * * * * * * * * * * * * * * * * * * * * * * * * * * * * * * * * * * //

dimensions      [0 1 -1 0 0 0 0];

internalField   nonuniform List<vector> 
80
(
(0.00195919 0 0)
(0.00584059 0 0)
(0.00965846 0 0)
(0.0133822 0 0)
(0.0169877 0 0)
(0.0204564 0 0)
(0.0237761 0 0)
(0.0269401 0 0)
(0.0299464 0 0)
(0.0327968 0 0)
(0.0354957 0 0)
(0.0380495 0 0)
(0.0404655 0 0)
(0.0427519 0 0)
(0.0449171 0 0)
(0.0469694 0 0)
(0.0489171 0 0)
(0.0507681 0 0)
(0.0525302 0 0)
(0.0542106 0 0)
(0.0558161 0 0)
(0.0573531 0 0)
(0.0588274 0 0)
(0.0602445 0 0)
(0.0616094 0 0)
(0.0629266 0 0)
(0.0642003 0 0)
(0.0654342 0 0)
(0.0666315 0 0)
(0.0677953 0 0)
(0.0689281 0 0)
(0.0700322 0 0)
(0.0711095 0 0)
(0.0721613 0 0)
(0.0731881 0 0)
(0.0741904 0 0)
(0.0751637 0 0)
(0.0761099 0 0)
(0.0769918 0 0)
(0.0778641 0 0)
(0.0782995 0 0)
(0.0773882 0 0)
(0.0765503 0 0)
(0.0756069 0 0)
(0.07464 0 0)
(0.0736386 0 0)
(0.0726114 0 0)
(0.0715579 0 0)
(0.0704782 0 0)
(0.0693709 0 0)
(0.0682345 0 0)
(0.0670666 0 0)
(0.0658648 0 0)
(0.0646261 0 0)
(0.063347 0 0)
(0.062024 0 0)
(0.0606529 0 0)
(0.059229 0 0)
(0.0577474 0 0)
(0.0562025 0 0)
(0.0545885 0 0)
(0.052899 0 0)
(0.0511269 0 0)
(0.0492651 0 0)
(0.0473059 0 0)
(0.0452411 0 0)
(0.0430625 0 0)
(0.0407615 0 0)
(0.0383298 0 0)
(0.0357591 0 0)
(0.0330419 0 0)
(0.0301719 0 0)
(0.0271443 0 0)
(0.0239575 0 0)
(0.0206134 0 0)
(0.0171187 0 0)
(0.0134858 0 0)
(0.00973343 0 0)
(0.00588598 0 0)
(0.00197442 0 0)
)
;

boundaryField
{
    lowerWall
    {
        type            noSlip;
    }
    upperWall
    {
        type            noSlip;
    }
    front
    {
        type            cyclic;
    }
    back
    {
        type            cyclic;
    }
    defaultFaces
    {
        type            empty;
    }
}


// ************************************************************************* //
