/*--------------------------------*- C++ -*----------------------------------*\
  =========                 |
  \\      /  F ield         | OpenFOAM: The Open Source CFD Toolbox
   \\    /   O peration     | Website:  https://openfoam.org
    \\  /    A nd           | Version:  12
     \\/     M anipulation  |
\*---------------------------------------------------------------------------*/
FoamFile
{
    format      ascii;
    class       volScalarField;
    location    "0.15";
    object      epsilon;
}
// * * * * * * * * * * * * * * * * * * * * * * * * * * * * * * * * * * * * * //

dimensions      [0 2 -3 0 0 0 0];

internalField   nonuniform List<scalar> 
12225
(
278.515
263.66
249.434
236.839
226.738
219.484
215.071
213.265
213.71
215.996
219.721
224.515
230.059
236.087
242.401
248.831
255.416
264.958
61.1161
86.6957
97.9922
107.209
118.468
132.562
149.419
168.625
189.597
211.711
234.377
257.083
279.427
301.112
322.051
342.085
362.774
381.424
25.2776
36.1831
43.382
48.6218
53.3873
58.3378
63.7732
69.8297
76.5323
83.8331
91.6422
99.8504
108.347
117.033
125.842
134.759
143.938
153.383
17.5217
21.2987
24.7146
27.6102
30.1624
32.5407
34.8677
37.2295
39.6794
42.244
44.9308
47.7356
50.6474
53.6543
56.7483
59.9383
63.2448
66.6974
15.4878
16.7519
18.1859
19.589
20.9097
22.1493
23.3268
24.4659
25.5874
26.7066
27.8333
28.9733
30.1294
31.3034
32.497
33.7157
34.9648
36.2419
14.9084
15.2396
15.7464
16.3341
16.9477
17.5591
18.1561
18.736
19.3006
19.8533
20.3972
20.9349
21.4687
22.0003
22.5317
23.0652
23.6027
24.1387
14.7451
14.7391
14.8342
15.0036
15.2216
15.468
15.7287
15.995
16.2622
16.5278
16.7907
17.0506
17.3075
17.5617
17.8139
18.0647
18.3147
18.5597
14.7012
14.5825
14.5116
14.4858
14.4981
14.5403
14.6043
14.6838
14.7738
14.8709
14.9727
15.0775
15.1842
15.292
15.4005
15.5096
15.619
15.7261
14.6901
14.5373
14.407
14.3009
14.2182
14.1571
14.1145
14.0876
14.0733
14.0693
14.0736
14.0846
14.1009
14.1215
14.1457
14.1728
14.2025
14.2329
14.6874
14.5252
14.3761
14.2411
14.1204
14.0137
13.9203
13.8391
13.7688
13.7083
13.6564
13.612
13.5741
13.542
13.5149
13.4922
13.4734
13.4578
14.6868
14.5221
14.3677
14.2236
14.0896
13.9655
13.8512
13.746
13.6495
13.561
13.4801
13.406
13.3383
13.2763
13.2197
13.1678
13.1204
13.0773
14.6866
14.5213
14.3656
14.219
14.0812
13.9518
13.8305
13.7168
13.6105
13.5111
13.4181
13.3313
13.2503
13.1746
13.104
13.038
12.9764
12.9194
14.6865
14.521
14.3648
14.2175
14.0785
13.9472
13.8234
13.7065
13.5962
13.4922
13.3941
13.3015
13.2142
13.1319
13.0542
12.981
12.912
12.8475
14.6864
14.5208
14.3645
14.2169
14.0774
13.9456
13.8209
13.7029
13.5912
13.4855
13.3853
13.2904
13.2004
13.1152
13.0344
12.9578
12.8852
12.8171
14.6864
14.5207
14.3643
14.2165
14.0769
13.9449
13.8199
13.7016
13.5895
13.4832
13.3824
13.2868
13.196
13.1098
13.0279
12.9501
12.8762
12.8067
14.6863
14.5206
14.3641
14.2163
14.0766
13.9444
13.8193
13.7009
13.5886
13.4822
13.3812
13.2853
13.1943
13.1078
13.0256
12.9475
12.8732
12.8033
14.6863
14.5205
14.364
14.2161
14.0763
13.9441
13.8189
13.7004
13.5881
13.4815
13.3805
13.2845
13.1934
13.1068
13.0245
12.9462
12.8718
12.8018
14.6863
14.5204
14.3639
14.216
14.0761
13.9439
13.8187
13.7001
13.5877
13.4811
13.3799
13.2839
13.1928
13.1061
13.0237
12.9454
12.8709
12.8008
14.6863
14.5204
14.3639
14.2159
14.0761
13.9438
13.8186
13.6999
13.5875
13.4809
13.3797
13.2837
13.1925
13.1058
13.0234
12.945
12.8705
12.8003
14.6863
14.5205
14.3639
14.216
14.0762
13.9439
13.8187
13.7001
13.5877
13.4811
13.38
13.284
13.1928
13.1061
13.0238
12.9454
12.8709
12.8008
14.6863
14.5205
14.364
14.2162
14.0764
13.9443
13.8192
13.7007
13.5885
13.4821
13.3812
13.2855
13.1946
13.1082
13.0262
12.9483
12.8743
12.8046
14.6863
14.5206
14.3643
14.2167
14.0773
13.9457
13.8214
13.7039
13.5928
13.4879
13.3886
13.2947
13.2059
13.1219
13.0423
12.967
12.8957
12.8289
14.6865
14.5212
14.3659
14.2202
14.0837
13.956
13.8368
13.7256
13.6218
13.525
13.4348
13.3506
13.272
13.1986
13.1301
13.0659
13.006
12.9505
14.6876
14.5264
14.3793
14.2467
14.1282
14.0231
13.9302
13.8484
13.7762
13.7126
13.6564
13.6068
13.5627
13.5237
13.4889
13.458
13.4305
13.4065
14.6976
14.5664
14.4707
14.4075
14.3714
14.3568
14.3584
14.3719
14.3941
14.4223
14.4549
14.4907
14.5285
14.5679
14.6083
14.6494
14.691
14.7329
14.7737
14.8187
14.9602
15.1591
15.3863
15.6233
15.8597
16.0903
16.3133
16.5282
16.7356
16.9361
17.1308
17.3205
17.5059
17.6876
17.866
18.0408
15.2587
16.1151
17.0712
17.9727
18.7878
19.5237
20.1942
20.8146
21.3984
21.9568
22.498
23.0282
23.5516
24.0713
24.5887
25.1049
25.6201
26.1317
18.0414
22.0078
24.9885
27.1531
28.8881
30.4046
31.812
33.1778
34.5428
35.9297
37.3495
38.8061
40.2985
41.8228
43.3733
44.9437
46.5276
48.1119
34.024
45.6877
51.3766
54.942
58.0803
61.297
64.7494
68.4811
72.4763
76.692
81.0779
85.5843
90.1646
94.7772
99.3864
103.963
108.492
112.946
163.308
157.417
151.704
146.261
141.3
136.947
133.25
130.206
127.78
125.918
124.557
123.636
123.091
122.868
122.914
123.183
123.637
124.237
0.442663
0.466643
0.747409
1.0075
1.29099
1.60882
1.96684
2.37118
2.80337
3.24151
3.68211
4.12054
4.55274
4.97556
5.38671
5.7845
6.16765
6.53505
6.88562
7.21823
7.53158
7.82421
8.09423
8.33904
8.55479
8.73662
8.88098
8.99036
9.07705
9.15636
9.22507
9.25284
9.23943
9.29177
9.31291
9.26839
9.32147
40.137
9.37857
40.0306
40.2388
41.6088
44.3038
47.2045
50.2725
53.4994
56.8836
60.4252
64.1254
67.9863
72.0107
76.2012
80.5608
85.0923
89.7985
94.682
99.7451
104.99
110.419
116.033
121.833
127.821
133.996
140.36
146.911
153.65
160.574
167.682
174.972
182.442
190.088
197.907
205.895
214.048
222.36
230.827
239.443
248.201
257.094
266.116
275.26
284.517
293.879
303.338
312.884
322.509
332.202
341.954
351.753
361.59
371.451
381.327
391.204
401.071
410.916
420.73
430.507
440.251
449.979
459.74
469.384
478.898
488.275
497.506
506.574
515.465
524.163
532.651
540.915
548.938
556.705
564.201
571.413
578.326
584.926
591.201
597.139
602.727
607.956
612.815
617.294
621.387
625.084
628.379
631.267
633.743
635.803
637.444
638.664
639.463
639.841
639.798
639.339
638.464
637.18
635.492
633.405
630.926
628.065
624.83
621.23
617.277
612.983
608.358
603.416
598.17
592.635
586.823
580.752
574.435
567.888
561.127
554.169
547.028
539.721
532.266
524.676
516.967
509.163
501.26
493.307
485.289
477.247
469.266
461.802
457.918
455.054
452.226
449.386
446.532
443.666
440.788
437.89
434.95
431.921
428.703
425.062
420.393
413.186
397.292
1.43223
0.879161
0.899576
1.03213
1.2239
1.46069
1.73851
2.05212
2.39279
2.75097
3.11946
3.49289
3.86746
4.24068
4.61106
4.97792
5.34122
5.70137
6.05928
6.41634
6.77457
7.13691
7.50747
7.89173
8.2965
8.72974
9.20045
9.71811
10.2917
10.9329
11.6666
12.5261
13.4949
14.4941
15.6878
17.2122
18.4801
20.1543
21.2281
23.2576
24.9356
26.4452
27.9432
29.4738
31.0517
32.6853
34.3768
36.1279
37.9401
39.8148
41.7533
43.7568
45.8262
47.9623
50.166
52.4379
54.7786
57.1884
59.6676
62.2165
64.8351
67.5234
70.281
73.1078
76.0032
78.9666
81.9973
85.0944
88.2569
91.4836
94.7731
98.124
101.535
105.004
108.529
112.108
115.739
119.419
123.147
126.92
130.734
134.588
138.477
142.4
146.352
150.33
154.331
158.351
162.385
166.431
170.484
174.539
178.593
182.641
186.682
190.712
194.734
198.751
202.774
206.851
210.902
214.907
218.862
222.76
226.596
230.363
234.056
237.669
241.195
244.628
247.963
251.194
254.315
257.321
260.206
262.965
265.593
268.087
270.44
272.65
274.712
276.623
278.379
279.978
281.417
282.693
283.806
284.752
285.532
286.144
286.587
286.862
286.97
286.91
286.685
286.295
285.742
285.028
284.157
283.131
281.954
280.628
279.158
277.549
275.804
273.928
271.926
269.805
267.568
265.221
262.771
260.223
257.584
254.858
252.053
249.175
246.229
243.221
240.162
237.045
233.898
230.7
227.483
224.313
221.306
218.963
216.887
214.862
212.85
210.842
208.839
206.842
204.852
202.868
200.886
198.9
196.888
194.843
192.646
191.465
2.72007
1.42472
1.31011
1.38186
1.52944
1.72946
1.97258
2.25187
2.56001
2.88957
3.23395
3.58796
3.94795
4.31168
4.67811
5.04716
5.4195
5.79641
6.17972
6.57182
6.9757
7.39508
7.83452
8.29934
8.79536
9.3284
9.90355
10.5243
11.1919
11.9075
12.6755
13.5019
14.3805
15.2976
16.2721
17.3083
18.3778
19.5039
20.6699
21.8931
23.1356
24.3823
25.6462
26.944
28.285
29.6733
31.1101
32.5963
34.1324
35.7191
37.3568
39.0463
40.7878
42.5819
44.429
46.3293
48.2831
50.2907
52.352
54.4672
56.6362
58.859
61.1352
63.4646
65.8468
68.2814
70.7678
73.3052
75.893
78.5302
81.2159
83.949
86.7283
89.5526
92.4204
95.3302
98.2805
101.27
104.295
107.356
110.45
113.575
116.728
119.908
123.111
126.336
129.58
132.84
136.114
139.398
142.691
145.99
149.293
152.598
155.903
159.21
162.518
165.829
169.147
172.461
175.749
179.003
182.216
185.383
188.5
191.562
194.564
197.5
200.366
203.157
205.868
208.495
211.032
213.476
215.822
218.066
220.204
222.233
224.147
225.945
227.623
229.179
230.609
231.911
233.083
234.123
235.03
235.802
236.439
236.939
237.303
237.53
237.621
237.577
237.397
237.084
236.638
236.063
235.359
234.529
233.576
232.502
231.312
230.007
228.593
227.072
225.448
223.727
221.911
220.007
218.018
215.948
213.804
211.589
209.307
206.967
204.571
202.121
199.631
197.084
194.523
191.939
189.344
186.77
184.279
182.015
179.88
177.792
175.724
173.669
171.627
169.599
167.588
165.599
163.636
161.713
159.847
158.105
156.581
156.087
4.14863
2.03564
1.75847
1.76499
1.87662
2.05068
2.27136
2.52977
2.81878
3.13188
3.46327
3.80824
4.16337
4.52651
4.89672
5.274
5.65917
6.05363
6.45929
6.8785
7.31399
7.76883
8.24645
8.75043
9.28435
9.85144
10.4543
11.0945
11.7726
12.4886
13.2432
14.038
14.873
15.7473
16.6631
17.6215
18.6212
19.662
20.7421
21.8591
23.0098
24.1921
25.4077
26.6609
27.9554
29.2938
30.6775
32.1076
33.5847
35.1096
36.6828
38.3049
39.9763
41.6976
43.4693
45.2917
47.1652
49.09
51.0666
53.095
55.1754
57.3079
59.4924
61.7289
64.0172
66.3571
68.7482
71.1901
73.6821
76.2238
78.8144
81.4528
84.1383
86.8698
89.6459
92.4654
95.3269
98.2288
101.169
104.147
107.16
110.206
113.283
116.388
119.52
122.677
125.855
129.053
132.268
135.497
138.738
141.99
145.249
148.514
151.784
155.057
158.332
161.607
164.876
168.126
171.349
174.538
177.686
180.79
183.843
186.841
189.779
192.651
195.454
198.181
200.827
203.39
205.862
208.241
210.522
212.7
214.772
216.733
218.581
220.312
221.923
223.411
224.773
226.008
227.113
228.087
228.927
229.634
230.205
230.641
230.942
231.106
231.136
231.032
230.794
230.424
229.924
229.296
228.541
227.663
226.664
225.548
224.317
222.975
221.525
219.972
218.32
216.573
214.735
212.811
210.806
208.723
206.569
204.348
202.062
199.721
197.328
194.879
192.404
189.89
187.355
184.802
182.239
179.687
177.183
174.781
172.454
170.168
167.905
165.662
163.438
161.235
159.059
156.917
154.818
152.783
150.844
149.082
147.614
146.907
5.51027
2.62502
2.18797
2.13432
2.2139
2.36594
2.5684
2.81023
3.08398
3.38362
3.70399
4.04089
4.39118
4.75282
5.12481
5.50707
5.90025
6.30557
6.7247
7.15963
7.61261
8.08605
8.58248
9.10443
9.65431
10.2343
10.8463
11.4916
12.1712
12.8858
13.636
14.4227
15.2467
16.1087
17.0094
17.9493
18.9284
19.9467
21.0037
22.0993
23.233
24.4052
25.6167
26.8691
28.1643
29.5038
30.8889
32.3208
33.8004
35.3285
36.906
38.5336
40.2121
41.9422
43.7245
45.5598
47.4487
49.3917
51.3893
53.4421
55.5504
57.7146
59.935
62.2117
64.5449
66.9346
69.3806
71.8827
74.4406
77.0539
79.7219
82.444
85.2193
88.0469
90.9255
93.8539
96.8307
99.8544
102.923
106.035
109.189
112.381
115.611
118.875
122.172
125.498
128.852
132.23
135.63
139.049
142.484
145.934
149.394
152.864
156.339
159.818
163.297
166.772
170.23
173.665
177.068
180.435
183.758
187.033
190.254
193.415
196.51
199.535
202.483
205.349
208.128
210.815
213.405
215.893
218.274
220.543
222.698
224.732
226.643
228.428
230.082
231.603
232.989
234.236
235.344
236.31
237.133
237.812
238.346
238.735
238.978
239.077
239.032
238.843
238.513
238.042
237.434
236.69
235.812
234.804
233.67
232.411
231.033
229.539
227.932
226.219
224.402
222.487
220.478
218.381
216.202
213.941
211.609
209.211
206.742
204.224
201.66
199.049
196.405
193.728
191.029
188.312
185.586
182.866
180.175
177.538
174.951
172.399
169.873
167.372
164.896
162.45
160.039
157.673
155.366
153.14
151.035
149.128
147.515
146.454
6.71977
3.1501
2.57448
2.468
2.5192
2.65166
2.83784
3.06468
3.32422
3.61064
3.91929
4.24642
4.5892
4.94574
5.31502
5.69684
6.09167
6.50049
6.92471
7.366
7.82625
8.30745
8.81167
9.34092
9.89715
10.4822
11.0977
11.7451
12.4256
13.1403
13.8899
14.6756
15.498
16.358
17.2564
18.1936
19.1702
20.1866
21.2432
22.3407
23.4794
24.6602
25.8839
27.1517
28.4649
29.8249
31.2328
32.6899
34.1974
35.7564
37.3681
39.0335
40.7536
42.5297
44.3626
46.2533
48.203
50.2124
52.2824
54.414
56.6078
58.8645
61.1847
63.569
66.0178
68.5312
71.1096
73.7528
76.4609
79.2335
82.0702
84.9704
87.9333
90.9579
94.0433
97.1879
100.39
103.649
106.962
110.327
113.743
117.206
120.714
124.265
127.856
131.483
135.145
138.837
142.557
146.302
150.068
153.851
157.649
161.457
165.273
169.093
172.912
176.718
180.501
184.256
187.976
191.654
195.283
198.858
202.371
205.817
209.189
212.482
215.688
218.801
221.817
224.728
227.53
230.217
232.784
235.225
237.537
239.714
241.753
243.649
245.4
247.002
248.453
249.75
250.89
251.873
252.697
253.361
253.865
254.208
254.391
254.414
254.278
253.984
253.536
252.934
252.181
251.28
250.234
249.046
247.721
246.263
244.675
242.962
241.128
239.18
237.124
234.962
232.697
230.343
227.903
225.374
222.772
220.107
217.377
214.593
211.761
208.885
205.974
203.032
200.067
197.085
194.095
191.108
188.139
185.204
182.306
179.439
176.602
173.794
171.019
168.281
165.588
162.951
160.386
157.918
155.587
153.458
151.602
150.162
7.72407
3.60089
2.90771
2.75507
2.78087
2.89538
3.06634
3.27882
3.5243
3.79707
4.09281
4.40817
4.74066
5.08855
5.45091
5.82748
6.2186
6.6251
7.04816
7.48926
7.95005
8.43228
8.93777
9.46831
10.0257
10.6115
11.2274
11.8748
12.555
13.2693
14.0186
14.8042
15.6268
16.4875
17.3872
18.3266
19.3065
20.3279
21.3915
22.4984
23.6494
24.8456
26.0881
27.3782
28.717
30.1061
31.5469
33.0408
34.5893
36.1939
37.856
39.5772
41.3588
43.2024
45.1094
47.0813
49.1193
51.225
53.3995
55.6442
57.9603
60.3487
62.8105
65.3466
67.9576
70.6443
73.4071
76.2462
79.1617
82.1536
85.2216
88.3651
91.5834
94.8756
98.2406
101.677
105.183
108.756
112.395
116.098
119.861
123.683
127.559
131.488
135.465
139.488
143.552
147.654
151.791
155.958
160.151
164.366
168.598
172.844
177.097
181.354
185.607
189.839
194.043
198.213
202.342
206.422
210.446
214.407
218.297
222.11
225.837
229.473
233.009
236.439
239.757
242.955
246.027
248.968
251.772
254.433
256.945
259.305
261.506
263.546
265.421
267.127
268.661
270.021
271.206
272.212
273.04
273.688
274.156
274.444
274.553
274.484
274.238
273.816
273.222
272.459
271.529
270.435
269.182
267.772
266.212
264.506
262.661
260.678
258.563
256.325
253.972
251.505
248.924
246.252
243.49
240.642
237.716
234.721
231.661
228.545
225.379
222.169
218.924
215.648
212.35
209.035
205.713
202.393
199.087
195.805
192.554
189.334
186.146
182.994
179.881
176.814
173.801
170.855
167.994
165.243
162.638
160.235
158.08
156.254
8.5477
3.9777
3.1843
2.99086
2.99342
3.09104
3.24734
3.44573
3.67714
3.93582
4.21771
4.51981
4.83993
5.17656
5.52889
5.89668
6.28023
6.68026
7.09784
7.53429
7.99111
8.4699
8.97234
9.50008
10.0548
10.638
11.2514
11.8963
12.5741
13.2862
14.0338
14.8181
15.6402
16.5013
17.4023
18.3446
19.3291
20.357
21.4296
22.548
23.7137
24.9278
26.192
27.5075
28.8761
30.2993
31.7789
33.3168
34.9147
36.5746
38.2983
40.0878
41.945
43.8719
45.8705
47.9426
50.0901
52.315
54.619
57.0038
59.4711
62.0224
64.6592
67.3827
70.1941
73.0942
76.084
79.1639
82.3342
85.595
88.9462
92.3873
95.9176
99.5361
103.241
107.032
110.906
114.862
118.896
123.006
127.189
131.442
135.761
140.143
144.583
149.078
153.624
158.215
162.847
167.516
172.216
176.942
181.689
186.451
191.222
195.998
200.755
205.487
210.185
214.842
219.45
224.001
228.485
232.896
237.224
241.461
245.598
249.629
253.545
257.337
260.999
264.524
267.903
271.131
274.202
277.108
279.844
282.405
284.786
286.982
288.99
290.806
292.427
293.85
295.075
296.099
296.921
297.54
297.957
298.172
298.187
298.002
297.62
297.042
296.272
295.314
294.172
292.85
291.351
289.68
287.842
285.847
283.699
281.403
278.958
276.383
273.685
270.868
267.935
264.9
261.769
258.548
255.246
251.871
248.429
244.928
241.377
237.781
234.149
230.488
226.805
223.108
219.404
215.702
212.013
208.345
204.706
201.1
197.53
194.001
190.519
187.091
183.728
180.443
177.253
174.184
171.268
168.552
166.061
163.845
9.19246
4.27998
3.40353
3.17435
3.15554
3.23704
3.37905
3.56352
3.78085
4.02522
4.29276
4.58074
4.88722
5.21095
5.55124
5.90793
6.28132
6.67208
7.0812
7.50989
7.95956
8.43169
8.92785
9.44962
9.99859
10.5763
11.1843
11.8242
12.4972
13.205
13.9487
14.7299
15.5499
16.41
17.3116
18.256
19.2447
20.2793
21.3611
22.4919
23.6733
24.907
26.1947
27.5385
28.9401
30.4018
31.9256
33.5138
35.1687
36.8927
38.6883
40.5578
42.5038
44.5289
46.6355
48.8261
51.1032
53.4692
55.9265
58.4774
61.124
63.8683
66.7123
69.6577
72.706
75.8585
79.1163
82.4803
85.9509
89.5283
93.2125
97.003
100.899
104.9
109.003
113.208
117.511
121.911
126.404
130.987
135.656
140.408
145.238
150.142
155.115
160.152
165.248
170.398
175.596
180.837
186.114
191.421
196.751
202.098
207.454
212.808
218.133
223.425
228.675
233.874
239.015
244.086
249.08
253.985
258.793
263.493
268.077
272.536
276.861
281.042
285.072
288.943
292.647
296.176
299.524
302.684
305.649
308.415
310.974
313.322
315.457
317.373
319.069
320.542
321.79
322.812
323.607
324.174
324.515
324.63
324.521
324.19
323.639
322.871
321.89
320.701
319.31
317.72
315.937
313.963
311.806
309.48
306.988
304.337
301.531
298.582
295.5
292.29
288.959
285.519
281.976
278.34
274.618
270.82
266.952
263.025
259.046
255.022
250.963
246.875
242.768
238.647
234.523
230.402
226.294
222.208
218.152
214.132
210.153
206.222
202.345
198.532
194.792
191.141
187.597
184.182
180.926
177.866
175.013
172.404
9.66521
4.50969
3.56722
3.30738
3.26903
3.33514
3.46316
3.63388
3.83724
4.06733
4.3204
4.59391
4.88619
5.19615
5.52327
5.86746
6.22906
6.60871
7.00736
7.42614
7.86636
8.32945
8.8169
9.33024
9.87103
10.4408
11.0412
11.6737
12.3399
13.0413
13.7796
14.5562
15.3728
16.2309
17.1323
18.0786
19.0717
20.1133
21.2054
22.3499
23.549
24.8048
26.1195
27.4956
28.9353
30.4415
32.0166
33.6636
35.3852
37.1845
39.0646
41.0284
43.0792
45.2201
47.4543
49.7849
52.2151
54.7478
57.3861
60.1328
62.9906
65.9621
69.0497
72.2555
75.5816
79.0294
82.6005
86.2958
90.1161
94.0615
98.132
102.327
106.646
111.087
115.648
120.328
125.123
130.031
135.047
140.168
145.389
150.705
156.112
161.603
167.174
172.819
178.531
184.304
190.132
196.008
201.924
207.874
213.848
219.84
225.841
231.815
237.754
243.65
249.493
255.275
260.984
266.61
272.142
277.569
282.879
288.063
293.109
298.009
302.752
307.329
311.731
315.948
319.974
323.798
327.415
330.818
333.999
336.952
339.671
342.151
344.389
346.381
348.124
349.617
350.858
351.846
352.581
353.062
353.29
353.267
352.996
352.48
351.721
350.724
349.489
348.028
346.346
344.447
342.339
340.026
337.517
334.822
331.948
328.903
325.694
322.332
318.827
315.186
311.418
307.534
303.543
299.454
295.275
291.018
286.69
282.3
277.859
273.374
268.854
264.308
259.743
255.169
250.593
246.024
241.471
236.943
232.447
227.991
223.582
219.228
214.937
210.718
206.583
202.546
198.626
194.844
191.225
187.799
184.567
181.562
9.97781
4.67131
3.67932
3.39393
3.33796
3.38944
3.50384
3.66107
3.85069
4.06673
4.3055
4.56464
4.84263
5.13858
5.45207
5.7831
6.13203
6.49952
6.88646
7.29395
7.72325
8.17573
8.65284
9.15612
9.68712
10.2474
10.8387
11.4627
12.1209
12.8152
13.5473
14.319
15.1323
15.989
16.8911
17.8407
18.8401
19.8913
20.9969
22.1592
23.3808
24.6645
26.013
27.4292
28.9162
30.4772
32.1156
33.8347
35.6381
37.5296
39.5128
41.5915
43.7698
46.0514
48.4402
50.9402
53.5551
56.2885
59.1442
62.1256
65.2358
68.478
71.8551
75.3697
79.024
82.8199
86.759
90.8425
95.0709
99.4446
103.963
108.626
113.432
118.379
123.465
128.686
134.041
139.523
145.131
150.857
156.697
162.644
168.693
174.836
181.068
187.382
193.77
200.226
206.741
213.307
219.918
226.563
233.234
239.921
246.59
253.219
259.803
266.33
272.79
279.173
285.466
291.658
297.737
303.689
309.502
315.165
320.667
325.997
331.145
336.1
340.853
345.394
349.715
353.807
357.662
361.274
364.637
367.742
370.582
373.153
375.452
377.476
379.223
380.691
381.878
382.786
383.413
383.76
383.827
383.619
383.138
382.389
381.375
380.102
378.573
376.798
374.782
372.533
370.058
367.364
364.461
361.357
358.062
354.585
350.935
347.123
343.159
339.052
334.813
330.452
325.979
321.406
316.74
311.994
307.177
302.298
297.368
292.395
287.39
282.36
277.316
272.265
267.216
262.178
257.16
252.171
247.219
242.313
237.46
232.669
227.949
223.311
218.766
214.329
210.018
205.853
201.855
198.048
194.427
191.025
10.1463
4.77122
3.74524
3.43935
3.36779
3.40557
3.50687
3.65099
3.82728
4.02971
4.25465
4.49986
4.76396
5.04616
5.34616
5.66402
6.00014
6.35517
6.73001
7.12573
7.54357
7.98489
8.45116
8.94392
9.46482
10.0155
10.5978
11.2135
11.8646
12.5528
13.2804
14.0494
14.862
15.7206
16.6275
17.5853
18.5966
19.6643
20.7912
21.9803
23.2348
24.558
25.9534
27.4247
28.9756
30.61
32.332
34.1459
36.056
38.0668
40.1829
42.4089
44.7495
47.2095
49.7934
52.5061
55.3519
58.3353
61.4603
64.7309
68.1509
71.7237
75.4527
79.3406
83.39
87.6028
91.9806
96.5244
101.235
106.111
111.154
116.361
121.73
127.259
132.945
138.785
144.772
150.904
157.174
163.577
170.105
176.75
183.505
190.363
197.315
204.354
211.472
218.66
225.91
233.214
240.561
247.942
255.347
262.741
270.091
277.388
284.621
291.781
298.855
305.831
312.696
319.439
326.046
332.499
338.785
344.894
350.815
356.535
362.044
367.331
372.387
377.2
381.763
386.066
390.103
393.865
397.35
400.547
403.446
406.045
408.342
410.335
412.021
413.401
414.472
415.237
415.694
415.846
415.696
415.245
414.5
413.464
412.143
410.542
408.668
406.529
404.133
401.488
398.601
395.483
392.142
388.59
384.836
380.89
376.763
372.466
368.011
363.408
358.668
353.802
348.822
343.739
338.563
333.306
327.977
322.589
317.151
311.673
306.165
300.636
295.097
289.555
284.02
278.502
273.008
267.548
262.131
256.766
251.462
246.227
241.071
236.006
231.044
226.2
221.49
216.932
212.546
208.351
204.337
200.539
10.1899
4.81705
3.77123
3.4498
3.36483
3.39006
3.47899
3.61067
3.7743
3.96387
4.17581
4.40797
4.65906
4.92839
5.21574
5.52123
5.84528
6.18858
6.55204
6.93674
7.34396
7.7751
8.23169
8.71539
9.22795
9.77122
10.3472
10.9579
11.6055
12.2923
13.0207
13.7932
14.6124
15.4813
16.4027
17.3796
18.4155
19.5137
20.6778
21.9115
23.2188
24.6038
26.0707
27.6241
29.2685
31.0088
32.85
34.7973
36.8559
39.0313
41.329
43.7544
46.3131
49.0108
51.853
54.845
57.9922
61.2994
64.771
68.4112
72.2239
76.213
80.3817
84.7331
89.2693
93.9921
98.9028
104.002
109.289
114.764
120.424
126.268
132.293
138.495
144.869
151.41
158.114
164.974
171.983
179.134
186.42
193.827
201.347
208.973
216.694
224.504
232.392
240.35
248.367
256.436
264.545
272.684
280.813
288.89
296.905
304.846
312.703
320.462
328.11
335.634
343.021
350.259
357.34
364.23
370.923
377.407
383.672
389.705
395.496
401.033
406.307
411.307
416.025
420.452
424.581
428.405
431.917
435.112
437.982
440.524
442.735
444.614
446.16
447.371
448.248
448.793
449.007
448.892
448.453
447.692
446.616
445.23
443.54
441.553
439.277
436.72
433.892
430.8
427.456
423.869
420.05
416.01
411.76
407.311
402.675
397.864
392.89
387.765
382.5
377.109
371.602
365.991
360.289
354.506
348.654
342.745
336.789
330.797
324.778
318.744
312.704
306.667
300.642
294.639
288.668
282.736
276.854
271.03
265.275
259.597
254.006
248.516
243.136
237.884
232.773
227.822
223.047
218.463
214.058
209.872
10.1302
4.81713
3.76395
3.43176
3.33578
3.34993
3.42766
3.54798
3.70014
3.87815
4.07853
4.29921
4.53899
4.79726
5.07385
5.36896
5.68307
6.01692
6.37147
6.74791
7.14759
7.57204
8.02296
8.50217
9.01168
9.55361
10.1302
10.744
11.3975
12.0934
12.8347
13.6244
14.4657
15.3623
16.3177
17.3357
18.4206
19.5766
20.8083
22.1203
23.5176
25.0051
26.5881
28.2722
30.063
31.9665
33.9888
36.1361
38.4147
40.831
43.3914
46.1024
48.9703
52.0016
55.2024
58.5788
62.1369
65.882
69.818
73.9481
78.2762
82.8061
87.5406
92.4823
97.6326
102.993
108.562
114.341
120.328
126.52
132.915
139.509
146.296
153.273
160.432
167.768
175.272
182.938
190.756
198.721
206.829
215.05
223.378
231.807
240.327
248.928
257.602
266.339
275.128
283.96
292.826
301.67
310.449
319.153
327.769
336.284
344.685
352.958
361.09
369.066
376.872
384.495
391.921
399.133
406.115
412.857
419.346
425.572
431.522
437.187
442.556
447.62
452.371
456.799
460.9
464.664
468.089
471.166
473.893
476.266
478.281
479.94
481.24
482.182
482.768
483
482.879
482.411
481.598
480.447
478.964
477.155
475.027
472.589
469.849
466.817
463.503
459.916
456.068
451.969
447.631
443.067
438.288
433.306
428.134
422.786
417.272
411.606
405.802
399.871
393.826
387.679
381.444
375.131
368.753
362.322
355.848
349.343
342.817
336.281
329.745
323.218
316.71
310.231
303.789
297.395
291.056
284.784
278.587
272.475
266.46
260.552
254.764
249.111
243.607
238.269
233.11
228.145
223.36
218.796
9.99048
4.77999
3.73005
3.39179
3.28761
3.29279
3.36122
3.47211
3.61488
3.78365
3.97506
4.18713
4.41874
4.66938
4.93898
5.22784
5.53654
5.86596
6.21721
6.59166
6.99088
7.41665
7.87096
8.35601
8.87417
9.42805
10.0205
10.6544
11.3331
12.06
12.8388
13.6732
14.5676
15.5262
16.5539
17.6557
18.8368
20.1028
21.4596
22.9134
24.4704
26.1363
27.9177
29.8214
31.8545
34.0242
36.3378
38.8025
41.4257
44.2147
47.1766
50.3185
53.6472
57.1694
60.8916
64.82
68.9611
73.3224
77.9047
82.7054
87.7296
92.9804
98.4597
104.168
110.106
116.272
122.665
129.281
136.118
143.17
150.434
157.902
165.568
173.424
181.463
189.675
198.051
206.582
215.257
224.067
233.001
242.043
251.182
260.408
269.711
279.081
288.508
297.986
307.502
317.043
326.53
335.936
345.248
354.452
363.535
372.482
381.28
389.914
398.371
406.636
414.695
422.535
430.141
437.5
444.597
451.421
457.959
464.202
470.137
475.756
481.05
486.008
490.625
494.891
498.802
502.351
505.534
508.346
510.784
512.846
514.53
515.836
516.765
517.317
517.495
517.302
516.741
515.818
514.538
512.907
510.932
508.621
505.982
503.024
499.757
496.191
492.337
488.206
483.81
479.16
474.269
469.15
463.815
458.278
452.552
446.65
440.585
434.371
428.021
421.548
414.965
408.285
401.521
394.686
387.79
380.847
373.868
366.864
359.846
352.825
345.81
338.812
331.839
324.902
318.01
311.172
304.398
297.697
291.079
284.554
278.132
271.826
265.647
259.61
253.729
248.019
242.493
237.162
232.012
227.089
9.78673
4.71142
3.67436
3.33508
3.22627
3.22559
3.28783
3.39266
3.52976
3.69349
3.88062
4.08933
4.31866
4.56828
4.83829
5.12919
5.44184
5.77739
6.13729
6.5233
6.93745
7.38203
7.85963
8.37311
8.92556
9.52042
10.1614
10.8527
11.5988
12.4042
13.2736
14.2122
15.2257
16.3201
17.5019
18.7778
20.1549
21.6407
23.2431
24.9706
26.8332
28.8343
30.9821
33.2855
35.7533
38.3939
41.2155
44.2262
47.4336
50.8452
54.4682
58.3089
62.3737
66.668
71.1969
75.9648
80.9757
86.2324
91.7356
97.4845
103.479
109.719
116.203
122.928
129.891
137.088
144.515
152.165
160.032
168.109
176.387
184.857
193.512
202.339
211.331
220.474
229.759
239.175
248.709
258.35
268.087
277.907
287.799
297.751
307.753
317.8
327.875
337.992
348.071
358.05
367.924
377.678
387.298
396.769
406.078
415.212
424.155
432.896
441.42
449.715
457.766
465.561
473.088
480.334
487.287
493.935
500.268
506.275
511.949
517.278
522.257
526.876
531.129
535.011
538.515
541.638
544.376
546.725
548.684
550.252
551.428
552.212
552.607
552.614
552.238
551.481
550.349
548.847
546.982
544.762
542.193
539.284
536.045
532.486
528.617
524.449
519.994
515.263
510.269
505.024
499.541
493.835
487.917
481.802
475.503
469.033
462.408
455.639
448.742
441.729
434.613
427.408
420.126
412.78
405.383
397.946
390.48
382.998
375.51
368.026
360.557
353.112
345.7
338.332
331.017
323.763
316.58
309.477
302.464
295.552
288.75
282.07
275.525
269.127
262.891
256.83
250.957
245.282
239.79
234.529
9.57718
4.63133
3.61206
3.27713
3.16926
3.16874
3.23142
3.33756
3.47723
3.64508
3.83818
4.055
4.29489
4.55788
4.84452
5.15579
5.49312
5.85832
6.25361
6.68157
7.14519
7.64788
8.19352
8.78639
9.43072
10.1316
10.8947
11.7263
12.6334
13.6243
14.703
15.8776
17.1566
18.5489
20.0638
21.7105
23.4988
25.4386
27.54
29.8132
32.268
34.913
37.7571
40.8093
44.0782
47.572
51.298
55.2628
59.4724
63.9318
68.6452
73.6158
78.8461
84.3374
90.0905
96.1049
102.379
108.912
115.698
122.734
130.015
137.534
145.287
153.265
161.462
169.869
178.478
187.279
196.264
205.421
214.742
224.214
233.827
243.57
253.431
263.4
273.464
283.613
293.836
304.121
314.459
324.838
335.251
345.687
356.135
366.612
377.04
387.338
397.514
407.55
417.436
427.156
436.7
446.053
455.203
464.138
472.846
481.315
489.532
497.486
505.165
512.559
519.656
526.445
532.917
539.061
544.869
550.331
555.44
560.189
564.57
568.578
572.207
575.452
578.31
580.776
582.85
584.528
585.809
586.695
587.186
587.282
586.987
586.305
585.238
583.792
581.973
579.786
577.24
574.343
571.102
567.527
563.627
559.415
554.899
550.092
545.006
539.653
534.045
528.196
522.119
515.827
509.335
502.654
495.801
488.787
481.628
474.336
466.925
459.408
451.8
444.112
436.358
428.549
420.698
412.817
404.917
397.009
389.104
381.211
373.342
365.504
357.709
349.963
342.278
334.661
327.121
319.668
312.311
305.06
297.925
290.917
284.049
277.334
270.783
264.411
258.229
252.246
246.449
240.888
9.39369
4.55198
3.55504
3.232
3.13387
3.14344
3.21778
3.33784
3.49424
3.68217
3.89924
4.14454
4.41816
4.72098
5.05451
5.42091
5.82287
6.26371
6.74726
7.27809
7.86109
8.50192
9.20757
9.98665
10.8434
11.7867
12.8263
13.9724
15.2356
16.627
18.1574
19.8383
21.6821
23.7012
25.9082
28.3153
30.9348
33.7782
36.8564
40.1796
43.7568
47.5955
51.7023
56.0825
60.7402
65.6783
70.8981
76.3997
82.1818
88.242
94.5767
101.181
108.05
115.176
122.553
130.172
138.026
146.105
154.4
162.901
171.598
180.481
189.54
198.765
208.145
217.669
227.328
237.111
247.008
257.009
267.103
277.281
287.532
297.846
308.215
318.628
329.078
339.554
350.049
360.556
371.07
381.576
392.086
402.583
412.998
423.256
433.371
443.326
453.112
462.719
472.136
481.352
490.357
499.139
507.689
515.995
524.048
531.837
539.353
546.584
553.523
560.159
566.483
572.487
578.161
583.498
588.49
593.131
597.412
601.329
604.876
608.048
610.84
613.25
615.274
616.91