/*--------------------------------*- C++ -*----------------------------------*\
  =========                 |
  \\      /  F ield         | OpenFOAM: The Open Source CFD Toolbox
   \\    /   O peration     | Website:  https://openfoam.org
    \\  /    A nd           | Version:  12
     \\/     M anipulation  |
\*---------------------------------------------------------------------------*/
FoamFile
{
    format      ascii;
    class       volScalarField;
    location    "0.15";
    object      k;
}
// * * * * * * * * * * * * * * * * * * * * * * * * * * * * * * * * * * * * * //

dimensions      [0 2 -2 0 0 0 0];

internalField   nonuniform List<scalar> 
12225
(
0.353921
0.335043
0.316966
0.300961
0.288126
0.278907
0.273299
0.271005
0.27157
0.274475
0.279209
0.285301
0.292345
0.300006
0.308028
0.316199
0.324567
0.336692
0.436864
0.448979
0.438085
0.433063
0.438791
0.453592
0.47481
0.499995
0.527159
0.554818
0.581943
0.607869
0.63222
0.65482
0.675781
0.694999
0.714601
0.729954
0.395187
0.410873
0.410631
0.405747
0.402011
0.400925
0.402617
0.406811
0.413088
0.420987
0.430077
0.439978
0.450379
0.461039
0.471818
0.482607
0.493704
0.504469
0.379641
0.38484
0.386546
0.38573
0.383905
0.382027
0.380568
0.37974
0.379607
0.38015
0.381305
0.382991
0.385126
0.387635
0.390466
0.393586
0.397017
0.400656
0.374976
0.3759
0.376239
0.375721
0.37457
0.373084
0.371496
0.369967
0.368593
0.367426
0.366485
0.36577
0.36527
0.364972
0.364862
0.364933
0.36518
0.365573
0.373488
0.372555
0.371759
0.370807
0.369631
0.368275
0.366809
0.3653
0.363803
0.362358
0.36099
0.359713
0.358537
0.357462
0.35649
0.355619
0.354851
0.354178
0.373012
0.371296
0.369813
0.368416
0.367025
0.36561
0.364168
0.362711
0.361257
0.359823
0.358424
0.357071
0.355772
0.354532
0.353353
0.352239
0.351191
0.350217
0.372865
0.370838
0.369004
0.36731
0.365711
0.364174
0.362679
0.361215
0.359782
0.35838
0.357014
0.355686
0.3544
0.353159
0.351965
0.35082
0.349726
0.348694
0.37282
0.37068
0.368691
0.366836
0.365095
0.363448
0.361879
0.360375
0.358927
0.35753
0.356181
0.354878
0.35362
0.352407
0.351238
0.350115
0.349038
0.34802
0.372806
0.370628
0.368578
0.366648
0.364828
0.36311
0.361482
0.359933
0.358456
0.357044
0.355692
0.354395
0.353151
0.351956
0.350809
0.349709
0.348656
0.34766
0.372801
0.370609
0.368537
0.366576
0.36472
0.362964
0.361299
0.359718
0.358215
0.356784
0.355419
0.354117
0.352872
0.351682
0.350545
0.349457
0.348417
0.347437
0.372799
0.370602
0.368522
0.36655
0.36468
0.362907
0.361224
0.359627
0.358108
0.356663
0.355288
0.353977
0.352727
0.351535
0.350398
0.349312
0.348277
0.347301
0.372797
0.370599
0.368514
0.366537
0.36466
0.362879
0.361188
0.359581
0.358053
0.356599
0.355215
0.353898
0.352643
0.351447
0.350306
0.349219
0.348183
0.347208
0.372796
0.370596
0.368509
0.366528
0.364649
0.362864
0.361167
0.359555
0.358021
0.356562
0.355173
0.353851
0.352591
0.35139
0.350246
0.349156
0.348117
0.34714
0.372795
0.370593
0.368505
0.366523
0.364641
0.362853
0.361154
0.359539
0.358002
0.35654
0.355148
0.353822
0.352559
0.351356
0.350209
0.349115
0.348073
0.347093
0.372794
0.370592
0.368502
0.366518
0.364634
0.362845
0.361144
0.359527
0.357989
0.356525
0.355131
0.353803
0.352538
0.351333
0.350183
0.349088
0.348044
0.347061
0.372794
0.37059
0.368499
0.366515
0.36463
0.362839
0.361137
0.359519
0.357979
0.356513
0.355118
0.353789
0.352523
0.351316
0.350165
0.349067
0.348022
0.347037
0.372794
0.370589
0.368498
0.366512
0.364627
0.362835
0.361132
0.359513
0.357972
0.356506
0.355109
0.353779
0.352512
0.351303
0.350151
0.349053
0.348006
0.34702
0.372793
0.370589
0.368497
0.366512
0.364626
0.362834
0.361131
0.359511
0.35797
0.356503
0.355106
0.353775
0.352507
0.351298
0.350145
0.349045
0.347998
0.347011
0.372794
0.37059
0.368498
0.366513
0.364628
0.362836
0.361133
0.359514
0.357973
0.356506
0.35511
0.353779
0.352511
0.351302
0.35015
0.34905
0.348003
0.347016
0.372794
0.370591
0.3685
0.366516
0.364632
0.362841
0.36114
0.359522
0.357983
0.356517
0.355122
0.353793
0.352527
0.35132
0.350168
0.34907
0.348024
0.347039
0.372795
0.370593
0.368504
0.366522
0.364641
0.362855
0.361159
0.359546
0.358012
0.356553
0.355163
0.35384
0.352579
0.351376
0.350229
0.349135
0.348092
0.34711
0.372796
0.370598
0.368518
0.366547
0.364681
0.362913
0.361235
0.359642
0.358127
0.356685
0.355312
0.354002
0.352751
0.351557
0.350416
0.349325
0.348283
0.347299
0.372804
0.370631
0.368592
0.366676
0.364872
0.363167
0.361548
0.360006
0.358532
0.357121
0.355767
0.354468
0.35322
0.35202
0.350869
0.349763
0.348702
0.347698
0.372856
0.370818
0.368973
0.367264
0.365645
0.364085
0.362567
0.361083
0.359631
0.358214
0.356833
0.355493
0.354197
0.352947
0.351744
0.350591
0.349487
0.348446
0.373166
0.37177
0.370579
0.369371
0.368049
0.366605
0.365072
0.363492
0.361906
0.360343
0.358826
0.357372
0.355991
0.354689
0.353468
0.352329
0.351272
0.350303
0.374797
0.375829
0.376175
0.375401
0.373834
0.371876
0.369792
0.36774
0.365814
0.364066
0.362524
0.361194
0.360075
0.359155
0.358423
0.357862
0.357455
0.357187
0.382729
0.39167
0.392375
0.388805
0.384384
0.380403
0.377247
0.374997
0.37362
0.373036
0.37315
0.373862
0.375078
0.37671
0.378678
0.380912
0.383353
0.385932
0.407499
0.414514
0.405423
0.395992
0.390554
0.389289
0.391452
0.39621
0.402828
0.410715
0.419419
0.428601
0.438006
0.447446
0.456785
0.465929
0.474833
0.48341
0.360554
0.347547
0.334933
0.322917
0.311965
0.302353
0.29419
0.28747
0.282114
0.278003
0.274999
0.272964
0.271763
0.27127
0.271371
0.271966
0.272967
0.274292
0.00153993
0.00740578
0.0118537
0.0159673
0.0204465
0.0254614
0.0311027
0.0374651
0.044252
0.0511201
0.0580141
0.0648617
0.0715992
0.0781775
0.0845611
0.090724
0.0966463
0.102311
0.107703
0.112803
0.117592
0.122048
0.12614
0.129825
0.133046
0.13574
0.137879
0.139527
0.140864
0.142049
0.142999
0.143425
0.143515
0.144166
0.144278
0.143106
0.143701
0.14363
0.144634
0.144263
0.144543
0.148621
0.154919
0.161547
0.168408
0.175472
0.182726
0.190159
0.197767
0.205545
0.213492
0.221606
0.229885
0.238327
0.246931
0.255695
0.264617
0.273695
0.282925
0.292305
0.301832
0.3115
0.321307
0.331247
0.341316
0.351508
0.361818
0.372238
0.382764
0.393388
0.404103
0.414902
0.425777
0.436721
0.447724
0.45878
0.469878
0.481012
0.492171
0.503347
0.514531
0.525714
0.536885
0.548037
0.559159
0.570243
0.581277
0.592253
0.60316
0.613989
0.624729
0.63537
0.645902
0.656314
0.666598
0.676747
0.686758
0.696637
0.706408
0.716122
0.725628
0.734916
0.743984
0.752825
0.76143
0.769787
0.777885
0.785714
0.793262
0.80052
0.807476
0.814122
0.820448
0.826444
0.832104
0.837419
0.842381
0.846984
0.851221
0.855088
0.858579
0.86169
0.864416
0.866755
0.868705
0.870263
0.871429
0.872201
0.872581
0.872568
0.872165
0.871375
0.870199
0.868641
0.866707
0.864401
0.861729
0.858696
0.855311
0.85158
0.847512
0.843115
0.838399
0.833373
0.828049
0.822435
0.816544
0.810387
0.803976
0.797323
0.79044
0.783341
0.776038
0.768545
0.760872
0.753038
0.745052
0.736927
0.728684
0.720318
0.711875
0.703338
0.694745
0.686179
0.678076
0.673447
0.669833
0.66625
0.662648
0.659027
0.655389
0.651733
0.648051
0.644322
0.640499
0.636483
0.632041
0.62657
0.618558
0.601774
0.00498716
0.0178023
0.0261117
0.0328689
0.0391067
0.0452598
0.0516391
0.0583457
0.0653348
0.0724993
0.0797402
0.086974
0.094136
0.10118
0.108075
0.1148
0.121344
0.127697
0.133855
0.139814
0.145572
0.151125
0.156464
0.161576
0.166443
0.171065
0.175499
0.179886
0.184392
0.189081
0.193912
0.198957
0.204479
0.210505
0.216924
0.224152
0.231621
0.239184
0.24897
0.258558
0.270087
0.281577
0.292761
0.303939
0.31548
0.327388
0.339642
0.352224
0.365125
0.378342
0.39187
0.40571
0.419862
0.434324
0.449098
0.464183
0.479579
0.495283
0.511296
0.527614
0.544236
0.561158
0.578376
0.595886
0.613683
0.63176
0.650111
0.668729
0.687607
0.706735
0.726104
0.745704
0.765525
0.785556
0.805785
0.8262
0.846788
0.867536
0.888431
0.909458
0.930603
0.951852
0.97319
0.994601
1.01607
1.03758
1.05912
1.08067
1.10221
1.12373
1.14522
1.16664
1.18799
1.20925
1.23041
1.25143
1.2723
1.293
1.31351
1.33355
1.35329
1.37274
1.39189
1.41074
1.42926
1.44742
1.4652
1.48259
1.49955
1.51608
1.53214
1.54772
1.56279
1.57734
1.59135
1.6048
1.61767
1.62995
1.64162
1.65267
1.66308
1.67284
1.68194
1.69036
1.69811
1.70516
1.71152
1.71717
1.72211
1.72634
1.72986
1.73266
1.73475
1.73612
1.73679
1.73674
1.73599
1.73455
1.73242
1.72961
1.72614
1.722
1.71723
1.71182
1.7058
1.69917
1.69197
1.6842
1.67588
1.66704
1.65769
1.64785
1.63756
1.62682
1.61565
1.6041
1.59218
1.5799
1.56732
1.5544
1.54126
1.52782
1.51418
1.50048
1.48681
1.47367
1.46068
1.44764
1.43455
1.42141
1.40824
1.39506
1.38186
1.36867
1.35544
1.34214
1.32864
1.31482
1.29945
1.27966
0.00947357
0.0281565
0.0388861
0.0469973
0.0541846
0.0611168
0.0681027
0.0752732
0.0826477
0.0901823
0.0978097
0.105463
0.113086
0.120638
0.128094
0.135441
0.142673
0.149794
0.15681
0.163735
0.170583
0.177372
0.184122
0.190858
0.197607
0.204416
0.211364
0.21856
0.226102
0.234039
0.242386
0.251193
0.26053
0.270392
0.280788
0.291759
0.303313
0.31547
0.328349
0.341752
0.355698
0.369985
0.384511
0.399328
0.414525
0.430127
0.446136
0.462547
0.479356
0.49656
0.514157
0.532146
0.550526
0.569295
0.588454
0.607999
0.627931
0.648246
0.668942
0.690015
0.711461
0.733277
0.755455
0.77799
0.800875
0.824102
0.847662
0.871547
0.895745
0.920245
0.945036
0.970106
0.99544
1.02102
1.04685
1.07289
1.09913
1.12556
1.15217
1.17893
1.20582
1.23283
1.25993
1.28712
1.31437
1.34165
1.36896
1.39626
1.42355
1.45079
1.47797
1.50507
1.53207
1.55895
1.58569
1.61226
1.63865
1.66485
1.69074
1.71627
1.74145
1.76629
1.79076
1.81483
1.83847
1.86166
1.88436
1.90656
1.92821
1.9493
1.96979
1.98966
2.00889
2.02744
2.0453
2.06243
2.07883
2.09446
2.10931
2.12336
2.13659
2.14898
2.16052
2.1712
2.181
2.18992
2.19794
2.20505
2.21126
2.21655
2.22092
2.22438
2.22692
2.22854
2.22925
2.22905
2.22795
2.22596
2.22308
2.21934
2.21474
2.2093
2.20303
2.19596
2.18809
2.17946
2.17008
2.15998
2.14917
2.13769
2.12556
2.11281
2.09947
2.08555
2.0711
2.05614
2.04071
2.02482
2.00854
1.99181
1.97483
1.95757
1.94006
1.9224
1.90468
1.88714
1.86964
1.85208
1.83446
1.8168
1.79912
1.78144
1.76379
1.74619
1.72866
1.71123
1.69389
1.67674
1.65924
1.64109
0.0144479
0.0376388
0.0502387
0.059449
0.0674401
0.0749784
0.0824223
0.089945
0.0976115
0.105422
0.113341
0.121324
0.129328
0.137321
0.145282
0.153204
0.161087
0.168942
0.176784
0.184637
0.192526
0.200483
0.208543
0.216743
0.225128
0.233751
0.242678
0.251984
0.261733
0.271962
0.282693
0.293951
0.305766
0.318145
0.331095
0.344622
0.358733
0.37342
0.388675
0.404454
0.420715
0.437402
0.454477
0.471941
0.489819
0.508129
0.526879
0.546073
0.565712
0.585797
0.60633
0.627309
0.648737
0.670611
0.692933
0.7157
0.738913
0.762569
0.786665
0.811199
0.836166
0.861561
0.88738
0.913614
0.940258
0.967303
0.994738
1.02255
1.05074
1.07928
1.10817
1.13739
1.16692
1.19675
1.22686
1.25723
1.28785
1.31869
1.34974
1.38097
1.41236
1.4439
1.47555
1.5073
1.53913
1.571
1.6029
1.6348
1.66668
1.69852
1.73029
1.76196
1.79353
1.82495
1.85621
1.88728
1.91815
1.94878
1.97904
2.00891
2.0384
2.06748
2.09612
2.12429
2.15195
2.17908
2.20563
2.23157
2.25687
2.2815
2.30542
2.3286
2.35102
2.37264
2.39343
2.41336
2.43242
2.45057
2.4678
2.48407
2.49937
2.51368
2.52699
2.53927
2.55052
2.56072
2.56986
2.57793
2.58493
2.59085
2.59569
2.59944
2.60211
2.6037
2.60422
2.60367
2.60206
2.5994
2.59571
2.59099
2.58527
2.57856
2.57088
2.56226
2.55271
2.54226
2.53094
2.51877
2.50577
2.492
2.47746
2.46219
2.44624
2.42962
2.41236
2.39453
2.37615
2.35719
2.33786
2.31808
2.29796
2.27751
2.25678
2.23583
2.21477
2.19373
2.17266
2.15153
2.13034
2.10912
2.08789
2.06669
2.04557
2.02458
2.00377
1.98324
1.96309
1.94356
1.9245
1.90616
0.0191882
0.0460058
0.0601994
0.0704412
0.0791621
0.0872298
0.0950579
0.102862
0.110748
0.118753
0.126875
0.135092
0.143379
0.151714
0.160083
0.168484
0.176921
0.18541
0.193972
0.202635
0.211431
0.220397
0.229571
0.238998
0.248722
0.258793
0.269264
0.280188
0.291609
0.303558
0.316055
0.329114
0.342748
0.356961
0.371753
0.387123
0.403065
0.419569
0.436622
0.454202
0.472286
0.490849
0.509874
0.529357
0.549305
0.569728
0.590633
0.612026
0.633911
0.656293
0.679174
0.702557
0.726444
0.750836
0.775735
0.801141
0.827055
0.853474
0.880399
0.907827
0.935753
0.964176
0.993088
1.02248
1.05236
1.0827
1.1135
1.14474
1.17643
1.20853
1.24104
1.27395
1.30723
1.34086
1.37483
1.40912
1.44371
1.47856
1.51367
1.549
1.58453
1.62024
1.65609
1.69207
1.72814
1.76427
1.80045
1.83665
1.87282
1.90896
1.94502
1.98098
2.01682
2.05251
2.08802
2.12331
2.15837
2.19311
2.22744
2.26134
2.29481
2.32781
2.36029
2.39224
2.4236
2.45434
2.48442
2.5138
2.54244
2.5703
2.59735
2.62355
2.64886
2.67326
2.6967
2.71916
2.74061
2.76102
2.78036
2.79861
2.81574
2.83174
2.84659
2.86026
2.87274
2.88402
2.8941
2.90295
2.91057
2.91696
2.92211
2.92603
2.92871
2.93016
2.93039
2.9294
2.92721
2.92383
2.91927
2.91355
2.90669
2.89871
2.88964
2.87949
2.86829
2.85608
2.84288
2.82873
2.81364
2.79767
2.78085
2.76319
2.74477
2.72561
2.7057
2.68517
2.66407
2.64239
2.62022
2.59758
2.57454
2.55112
2.52739
2.50341
2.47925
2.45501
2.4307
2.40632
2.38188
2.35741
2.33296
2.30858
2.28433
2.26029
2.23655
2.21326
2.1906
2.16889
2.14813
2.12856
0.0233974
0.0531081
0.0687513
0.0799376
0.0893276
0.0978768
0.106048
0.114093
0.122152
0.130297
0.138553
0.146925
0.155405
0.163985
0.172658
0.181429
0.190306
0.199309
0.20846
0.21779
0.227333
0.237127
0.247211
0.257628
0.26842
0.279628
0.291297
0.303463
0.316161
0.329414
0.343238
0.357643
0.372636
0.388217
0.404385
0.421136
0.438464
0.456362
0.474818
0.493824
0.513365
0.533432
0.554017
0.575116
0.596734
0.618877
0.64155
0.664762
0.688519
0.712827
0.73769
0.763114
0.789103
0.815661
0.842791
0.870496
0.898776
0.927634
0.957069
0.98708
1.01767
1.04882
1.08055
1.11283
1.14567
1.17906
1.21298
1.24743
1.28239
1.31784
1.35378
1.39019
1.42704
1.46431
1.50199
1.54005
1.57846
1.61721
1.65625
1.69557
1.73514
1.77492
1.81488
1.855
1.89524
1.93558
1.97597
2.01639
2.0568
2.09717
2.13748
2.17768
2.21774
2.25764
2.29733
2.33678
2.37597
2.41474
2.45306
2.49091
2.52827
2.56509
2.60133
2.63696
2.67192
2.70618
2.73969
2.7724
2.80427
2.83526
2.86532
2.89443
2.92253
2.94959
2.97557
3.00044
3.02417
3.04672
3.06806
3.08817
3.10702
3.12459
3.14085
3.1558
3.16941
3.18167
3.19257
3.20209
3.21024
3.217
3.22237
3.22637
3.22898
3.23021
3.23008
3.22859
3.22575
3.22159
3.21611
3.20934
3.20131
3.19202
3.18153
3.16983
3.15697
3.14299
3.12793
3.11179
3.09462
3.07648
3.05741
3.03739
3.01654
2.99491
2.97251
2.94941
2.92566
2.9013
2.87638
2.85096
2.82508
2.79879
2.77215
2.74522
2.71807
2.69077
2.66336
2.63587
2.60832
2.58076
2.55324
2.52583
2.49861
2.47167
2.44514
2.41922
2.39413
2.3702
2.34747
2.32607
0.0268929
0.0590365
0.0759111
0.0879192
0.0979011
0.10688
0.115357
0.123613
0.131815
0.140061
0.148405
0.156872
0.165474
0.174215
0.183101
0.192141
0.201349
0.210745
0.220356
0.230212
0.240345
0.250794
0.261595
0.272786
0.284405
0.296487
0.309067
0.322175
0.335835
0.350066
0.364882
0.380292
0.396298
0.412904
0.430108
0.447907
0.466298
0.485277
0.504839
0.524979
0.545692
0.566975
0.588825
0.611244
0.634236
0.657806
0.681962
0.706712
0.732066
0.758029
0.784612
0.81182
0.83966
0.86814
0.897264
0.927037
0.957463
0.988546
1.02029
1.05269
1.08574
1.11946
1.15383
1.18884
1.2245
1.2608
1.29772
1.33525
1.37338
1.41209
1.45137
1.4912
1.53156
1.57242
1.61376
1.65555
1.69776
1.74037
1.78334
1.82664
1.87023
1.91409
1.95818
2.00245
2.04688
2.09142
2.13605
2.18071
2.22538
2.27002
2.31458
2.35904
2.40334
2.44746
2.49136
2.53498
2.57827
2.62107
2.66338
2.70517
2.7464
2.78702
2.827
2.86628
2.90481
2.94255
2.97944
3.01544
3.05049
3.08455
3.11758
3.14952
3.18034
3.21
3.23845
3.26565
3.29158
3.31619
3.33945
3.36133
3.38181
3.40086
3.41847
3.4346
3.44925
3.46239
3.47403
3.48414
3.49273
3.49978
3.5053
3.50928
3.51174
3.51269
3.51212
3.51006
3.50651
3.50151
3.49506
3.48719
3.47792
3.4673
3.45534
3.44207
3.42752
3.41175
3.39479
3.37667
3.35739
3.33709
3.31578
3.29349
3.27029
3.24622
3.22134
3.19569
3.16934
3.14233
3.11471
3.08654
3.05787
3.02876
2.99926
2.96943
2.93935
2.90907
2.87866
2.84815
2.81758
2.78701
2.75651
2.72616
2.69604
2.66629
2.63705
2.60854
2.581
2.55476
2.52981
2.50623
0.0297596
0.0638459
0.0817174
0.0944052
0.104885
0.114232
0.122972
0.131408
0.139728
0.148049
0.156446
0.164965
0.173634
0.182472
0.191494
0.200716
0.210157
0.219839
0.22979
0.240038
0.250616
0.261557
0.272896
0.284667
0.296901
0.309629
0.322879
0.336675
0.351037
0.365982
0.38152
0.397662
0.414411
0.431771
0.449743
0.468328
0.487526
0.507336
0.527758
0.548793
0.570441
0.592703
0.615582
0.639083
0.663212
0.687978
0.713389
0.739456
0.76619
0.7936
0.821698
0.850494
0.879996
0.910215
0.941159
0.972835
1.00525
1.03841
1.07231
1.10697
1.14238
1.17854
1.21545
1.2531
1.2915
1.33062
1.37047
1.41103
1.45229
1.49423
1.53682
1.58006
1.6239
1.66834
1.71334
1.75887
1.8049
1.85139
1.89831
1.94562
1.99328
2.04125
2.08949
2.13796
2.18661
2.23541
2.2843
2.33325
2.38222
2.43115
2.48001
2.52875
2.57733
2.6257
2.67383
2.72166
2.76901
2.81584
2.86214
2.90785
2.95294
2.99735
3.04103
3.08393
3.126
3.16717
3.20739
3.24662
3.28479
3.32186
3.35778
3.39249
3.42595
3.45812
3.48896
3.51841
3.54645
3.57303
3.59811
3.62168
3.64369
3.66413
3.68297
3.70019
3.71578
3.72972
3.742
3.75261
3.76154
3.76879
3.77436
3.77826
3.78049
3.78106
3.77998
3.77728
3.77296
3.76705
3.75957
3.75054
3.74
3.72799
3.71453
3.69966
3.68338
3.66579
3.64694
3.62684
3.60553
3.5831
3.55959
3.53503
3.50949
3.48302
3.45567
3.42751
3.39858
3.36895
3.33867
3.30779
3.27638
3.24449
3.21218
3.17951
3.14655
3.11337
3.08003
3.04657
3.01306
2.97957
2.94616
2.91294
2.88
2.84749
2.81558
2.78449
2.75447
2.72582
2.69848
2.67249
0.0320038
0.0675909
0.0862321
0.0994528
0.11033
0.119973
0.128927
0.137509
0.145918
0.154291
0.162715
0.171254
0.179949
0.188832
0.197927
0.207257
0.216845
0.226717
0.236897
0.247416
0.258303
0.269589
0.281304
0.293478
0.30614
0.319314
0.333026
0.347295
0.36214
0.377576
0.393613
0.410263
0.427531
0.445423
0.463945
0.483099
0.502891
0.523323
0.5444
0.566127
0.588509
0.611553
0.635264
0.659652
0.684727
0.7105
0.736982
0.764188
0.792129
0.820821
0.850276
0.880507
0.911528
0.943351
0.975986
1.00944
1.04374
1.07887
1.11484
1.15167
1.18936
1.22789
1.26729
1.30753
1.34862
1.39055
1.43331
1.47688
1.52125
1.5664
1.61232
1.65897
1.70633
1.75437
1.80305
1.85235
1.90223
1.95264
2.00355
2.0549
2.10667
2.15879
2.21122
2.26391
2.31682
2.3699
2.42309
2.47635
2.52963
2.58287
2.63604
2.68907
2.74193
2.79455
2.84689
2.89885
2.95025
3.00109
3.05133
3.10092
3.14981
3.19795
3.24527
3.29172
3.33723
3.38175
3.42522
3.46758
3.50877
3.54874
3.58743
3.62479
3.66078
3.69534
3.72843
3.76001
3.79003
3.81845
3.84523
3.87035
3.89377
3.91546
3.93541
3.9536
3.97001
3.98462
3.99742
4.00842
4.01758
4.02493
4.03045
4.03416
4.03607
4.03618
4.03451
4.03109
4.02593
4.01905
4.01049
4.00026
3.98839
3.97495
3.95997
3.94348
3.92552
3.90614
3.88541
3.86335
3.84002
3.81548
3.78979
3.76299
3.73514
3.70631
3.67654
3.64591
3.61446
3.58226
3.54937
3.51585
3.48176
3.44716
3.41211
3.37667
3.34091
3.30491
3.26872
3.23241
3.19606
3.15972
3.12349
3.08747
3.05179
3.01658
2.98205
2.9484
2.91588
2.88474
2.8549
2.8264
0.0336492
0.0703451
0.0895439
0.103155
0.114325
0.124188
0.133301
0.141989
0.150459
0.158858
0.167286
0.175817
0.184504
0.193389
0.202504
0.211879
0.221539
0.231512
0.241823
0.252502
0.263575
0.27507
0.287015
0.299437
0.31236
0.325808
0.339802
0.354361
0.369502
0.38524
0.401588
0.418557
0.436157
0.454396
0.473283
0.492827
0.513034
0.533913
0.555473
0.577724
0.600674
0.624335
0.648718
0.673836
0.699704
0.726335
0.753745
0.781952
0.810971
0.84082
0.871516
0.903076
0.935515
0.96885
1.00309
1.03826
1.07436
1.11141
1.14941
1.18837
1.2283
1.26919
1.31105
1.35388
1.39766
1.44239
1.48807
1.53467
1.58218
1.63057
1.67983
1.72993
1.78083
1.8325
1.88491
1.93802
1.99178
2.04614
2.10107
2.1565
2.21239
2.26868
2.32532
2.38225
2.43942
2.49677
2.55425
2.61179
2.66936
2.72689
2.78432
2.8416
2.89868
2.9555
3.012
3.06795
3.12331
3.17805
3.23212
3.28547
3.33804
3.38978
3.4406
3.49045
3.53927
3.58697
3.63352
3.67884
3.72287
3.76556
3.80684
3.84667
3.885
3.92176
3.95693
3.99044
4.02226
4.05235
4.08065
4.10714
4.13178
4.15456
4.17545
4.19444
4.2115
4.22663
4.23982
4.25106
4.26033
4.26764
4.27299
4.2764
4.27788
4.27745
4.2751
4.27087
4.2648
4.25689
4.2472
4.23574
4.22255
4.20768
4.19118
4.17308
4.15343
4.13228
4.1097
4.08571
4.06039
4.03379
4.00597
3.97698
3.94689
3.91576
3.88365
3.85061
3.81673
3.78205
3.74664
3.71057
3.67389
3.63668
3.59898
3.56088
3.52243
3.48372
3.4448
3.40576
3.36666
3.32759
3.28865
3.24994
3.2116
3.17379
3.13668
3.10051
3.0655
3.03185
2.99947
2.96841
0.0347374
0.0721997
0.0917641
0.105632
0.116995
0.127002
0.136216
0.144964
0.153461
0.161858
0.170264
0.178761
0.187409
0.196259
0.205348
0.21471
0.224375
0.234371
0.244724
0.255462
0.26661
0.278195
0.290241
0.302773
0.315814
0.329385
0.343508
0.3582
0.373479
0.389361
0.405861
0.422992
0.440769
0.459202
0.478304
0.498088
0.518567
0.539752
0.561657
0.584297
0.607686
0.63184
0.656774
0.682507
0.709057
0.736442
0.764684
0.793801
0.823816
0.854749
0.886621
0.919453
0.953263
0.988072
1.0239
1.06075
1.09866
1.13762
1.17765
1.21875
1.26094
1.30421
1.34857
1.39401
1.44053
1.48811
1.53675
1.58643
1.63712
1.68881
1.74147
1.79505
1.84954
1.90489
1.96106
2.018
2.07566
2.13399
2.19295
2.25246
2.31247
2.37291
2.43373
2.49486
2.55624
2.6178
2.67949
2.74124
2.803
2.86471
2.9263
2.98771
3.04889
3.10977
3.17016
3.22994
3.28908
3.34753
3.40523
3.46213
3.51816
3.57326
3.62735
3.68037
3.73223
3.78287
3.83223
3.88025
3.92686
3.972
4.01561
4.05764
4.09803
4.13674
4.17371
4.2089
4.24227
4.27377
4.30335
4.33097
4.35661
4.38024
4.40186
4.42143
4.43895
4.45441
4.46781
4.47912
4.48832
4.49544
4.50049
4.50347
4.50441
4.50332
4.50021
4.49512
4.48808
4.47911
4.46825
4.45554
4.44101
4.42472
4.40671
4.38702
4.36571
4.34283
4.31844
4.29258
4.26533
4.23674
4.20687
4.17578
4.14354
4.11021
4.07586
4.04055
4.00434
3.9673
3.92951
3.89101
3.85188
3.81219
3.772
3.73137
3.69038
3.6491
3.6076
3.56597
3.52428
3.48263
3.44111
3.39985
3.35897
3.31865
3.27907
3.24045
3.20299
3.16688
3.13196
3.09838
0.0353239
0.0732589
0.0930195
0.107025
0.118487
0.128563
0.137816
0.146578
0.155064
0.163428
0.171784
0.180219
0.188798
0.197577
0.206597
0.215896
0.225505
0.235454
0.24577
0.256478
0.267604
0.279173
0.291207
0.303732
0.316767
0.330336
0.344459
0.359154
0.374442
0.390339
0.406864
0.424034
0.441864
0.460372
0.479575
0.499489
0.520132
0.541522
0.563678
0.586618
0.610362
0.634932
0.660349
0.686634
0.713812
0.741906
0.770942
0.800943
0.831936
0.863944
0.896994
0.931109
0.966313
1.00263
1.04007
1.07867
1.11843
1.15937
1.20151
1.24484
1.28937
1.33512
1.38206
1.43021
1.47955
1.53008
1.58177
1.63461
1.68856
1.74362
1.79973
1.85687
1.91499
1.97404
2.03399
2.09477
2.15634
2.21863
2.28158
2.34512
2.40919
2.47372
2.53862
2.60383
2.66928
2.73491
2.80066
2.86644
2.9322
2.99788
3.06341
3.12874
3.19378
3.25838
3.32236
3.38568
3.44828
3.51011
3.57111
3.63122
3.69036
3.74848
3.8055
3.86132
3.91586
3.96906
4.02086
4.0712
4.12001
4.16723
4.21279
4.25666
4.29875
4.33904
4.37746
4.41399
4.44858
4.48118
4.51171
4.54015
4.56649
4.59069
4.61276
4.63266
4.65039
4.66594
4.67931
4.69047
4.69944
4.70622
4.71081
4.71324
4.71353
4.71169
4.70774
4.70172
4.69365
4.68358
4.67153
4.65756
4.64169
4.62399
4.6045
4.58326
4.56034
4.53579
4.50967
4.48203
4.45295
4.42247
4.39067
4.35761
4.32335
4.28797
4.25152
4.21408
4.17571
4.13649
4.09647
4.05573
4.01433
3.97235
3.92984
3.88687
3.84353
3.79987
3.75599
3.71196
3.66788
3.62382
3.57991
3.53626
3.49301
3.45033
3.40841
3.36745
3.32764
3.28913
3.25178
3.21574
0.0354757
0.0736349
0.0934455
0.107482
0.118958
0.129032
0.138267
0.146993
0.155427
0.163724
0.171999
0.180341
0.188821
0.197494
0.206406
0.215596
0.225096
0.234937
0.245146
0.255749
0.26677
0.278234
0.290164
0.302584
0.315515
0.328981
0.343003
0.357603
0.372801
0.388619
0.405078
0.422199
0.440002
0.458509
0.477742
0.497724
0.518477
0.540025
0.562393
0.585606
0.609688
0.634666
0.660567
0.687419
0.71525
0.74409
0.773968
0.804914
0.836958
0.870128
0.904453
0.939961
0.976678
1.01463
1.05384
1.09432
1.1361
1.17919
1.2236
1.26933
1.31638
1.36475
1.41445
1.46547
1.51779
1.5714
1.62627
1.68239
1.73972
1.79822
1.85787
1.9186
1.98039
2.04316
2.10688
2.17147
2.23688
2.30304
2.36988
2.43734
2.50533
2.57376
2.64254
2.71162
2.7809
2.85033
2.91983
2.98934
3.05878
3.1281
3.19722
3.26609
3.33453
3.40234
3.46948
3.53588
3.60148
3.66622
3.73004
3.79285
3.8546
3.91523
3.9747
4.03281
4.08951
4.14476
4.19849
4.25064
4.30115
4.34995
4.39698
4.4422
4.48553
4.52693
4.56636
4.60377
4.63912
4.67237
4.70345
4.73235
4.75903
4.78349
4.80569
4.82564
4.84331
4.85869
4.8718
4.88261
4.89114
4.89739
4.90138
4.90312
4.90263
4.89993
4.89506
4.88804
4.87891
4.8677
4.85445
4.83922
4.82204
4.80296
4.78203
4.75932
4.73487
4.70875
4.68101
4.65171
4.62093
4.58872
4.55514
4.52028
4.48418
4.44693
4.40859
4.36923
4.32891
4.28771
4.2457
4.20294
4.1595
4.11545
4.07086
4.0258
3.98034
3.93456
3.88853
3.84235
3.79609
3.74987
3.70378
3.65796
3.61254
3.5677
3.52361
3.48047
3.43845
3.39769
3.35804
3.31968
0.0352679
0.0734435
0.0931795
0.107155
0.118569
0.128575
0.137735
0.146377
0.154717
0.16291
0.171072
0.179293
0.187642
0.196177
0.204945
0.213985
0.223331
0.233013
0.243059
0.253495
0.264346
0.275638
0.287394
0.299638
0.312396
0.325691
0.339547
0.35399
0.369043
0.384733
0.401083
0.418121
0.435871
0.454362
0.473622
0.493679
0.514562
0.536303
0.558933
0.582482
0.606983
0.632466
0.658965
0.686512
0.715142
0.74489
0.77579
0.807876
0.841182
0.875739
0.91158
0.948733
0.987227
1.02709
1.06834
1.111
1.15509
1.20063
1.24761
1.29602
1.34587
1.39715
1.44986
1.50397
1.55949
1.61637
1.6746
1.73414
1.79495
1.85699
1.92022
1.98457
2.05
2.11645
2.18384
2.25212
2.32121
2.39104
2.46154
2.53264
2.60431
2.67631
2.74861
2.82115
2.89384
2.96662
3.03942
3.11216
3.18478
3.2572
3.32939
3.40112
3.47222
3.54263
3.61229
3.68112
3.74906
3.81603
3.88198
3.94681
4.01048
4.0729
4.13401
4.1937
4.25189
4.30852
4.36354
4.41686
4.46844
4.51821
4.56611
4.61208
4.65608
4.69805
4.73795
4.77574
4.81137
4.8448
4.87599
4.90491
4.93154
4.95585
4.97784
4.99749
5.01478
5.02972
5.0423
5.05252
5.0604
5.06593
5.06913
5.07003
5.06864
5.065
5.05912
5.05104
5.04081
5.02845
5.01402
4.99755
4.97909
4.95871
4.93644
4.91235
4.8865
4.85894
4.82973
4.79895
4.76664
4.73289
4.69776
4.6613
4.62361
4.58473
4.54474
4.50371
4.46172
4.41882
4.37508
4.33059
4.2854
4.23958
4.1932
4.14634
4.09906
4.05144
4.00356
3.95551
3.90737
3.85926
3.81127
3.76354
3.7162
3.66943
3.6234
3.57829
3.53426
3.49145
3.44968
3.40919
0.0347818
0.0727995
0.0923553
0.106191
0.117476
0.127356
0.136388
0.1449
0.153106
0.16116
0.169177
0.177246
0.185436
0.193805
0.202398
0.211255
0.220412
0.229897
0.239741
0.24997
0.260611
0.27169
0.283235
0.295271
0.307827
0.320929
0.334606
0.348888
0.363804
0.379385
0.395661
0.412663
0.430426
0.448982
0.468369
0.488621
0.509778
0.531877
0.554958
0.579063
0.604229
0.630489
0.657879
0.686439
0.71621
0.747232
0.779542
0.813178
0.848174
0.884564
0.92238
0.961649
1.0024
1.04465
1.08843
1.13375
1.18063
1.2291
1.27913
1.33066
1.38371
1.43826
1.49431
1.55183
1.61079
1.67117
1.73292
1.796
1.86037
1.92596
1.99273
2.06062
2.12955
2.19946
2.27028
2.34194
2.41435
2.48744
2.56113
2.63534
2.70999
2.78495
2.86015
2.9355
3.01092
3.08636
3.16172
3.23696
3.312
3.38677
3.46102
3.53463
3.60755
3.67969
3.75098
3.82135
3.89072
3.95904
4.02622
4.09219
4.15688
4.22022
4.28214
4.34256
4.4014
4.45859
4.51408
4.56779
4.61967
4.66966
4.7177
4.76374
4.80773
4.84962
4.88937
4.92693
4.96227
4.99535
5.02613
5.05459
5.0807
5.10444
5.12581
5.14478
5.16136
5.17554
5.18731
5.19669
5.20368
5.2083
5.21055
5.21047
5.20807
5.20338
5.19644
5.18727
5.17593
5.16244
5.14685
5.12921
5.10958
5.08799
5.06451
5.03919
5.0121
4.98329
4.95282
4.92077
4.88719
4.85215
4.81571
4.77795
4.73894
4.69874
4.65742
4.61504
4.57169
4.52743
4.48232
4.43643
4.38984
4.3426
4.29479
4.24647
4.19773
4.14863
4.09925
4.04967
4
3.95033
3.90077
3.85145
3.8025
3.75409
3.70639
3.65958
3.6138
3.56918
3.52555
3.48316
0.0340713
0.0717783
0.0910585
0.104681
0.115773
0.125469
0.134323
0.142658
0.150689
0.158567
0.166406
0.174292
0.182295
0.190469
0.198862
0.207512
0.216455
0.225723
0.235346
0.245355
0.255779
0.266647
0.277991
0.289841
0.30223
0.315192
0.32876
0.342973
0.357869
0.373487
0.38986
0.407029
0.425036
0.443925
0.463743
0.484535
0.506348
0.529233
0.55324
0.578423
0.60485
0.632511
0.661452
0.691724
0.723372
0.756439
0.790963
0.826979
0.864519
0.903611
0.944279
0.986546
1.03043
1.07593
1.12307
1.17185
1.22228
1.27433
1.32799
1.38323
1.44002
1.49834
1.55815
1.61942
1.6821
1.74617
1.81155
1.87821
1.94607
2.01509
2.0852
2.15632
2.22839
2.30133
2.37507
2.44952
2.52461
2.60026
2.67638
2.75289
2.82971
2.90673
2.98388
3.06107
3.13823
3.2153
3.29219
3.36889
3.44518
3.52088
3.59593
3.67027
3.7438
3.81647
3.88819
3.9589
4.02852
4.09699
4.16424
4.23019
4.29477
4.35793
4.41958
4.47965
4.53809
4.59482
4.64978
4.70291
4.75415
4.80345
4.85076
4.89602
4.93919
4.98022
5.01907
5.0557
5.09007
5.12216
5.15193
5.17935
5.20441
5.22708
5.24736
5.26524
5.28071
5.29376
5.30441
5.31266
5.31851
5.32199
5.3231
5.32188
5.31835
5.31253
5.30446
5.29417
5.28171
5.26712
5.25043
5.2317
5.21098
5.18833
5.16378
5.13742
5.10928
5.07944
5.04795
5.01487
4.98028
4.94424
4.90681
4.86806
4.82806
4.78687
4.74457
4.70121
4.65687
4.61161
4.5655
4.51861
4.471
4.42273
4.37388
4.32451
4.27469
4.22449
4.17399
4.12329
4.07245
4.02159
3.97082
3.92025
3.87003
3.82031
3.77125
3.72303
3.67578
3.62963
3.58441
3.54039
0.0333448
0.0706243
0.0895546
0.102903
0.113751
0.123217
0.131852
0.139978
0.147807
0.155488
0.163133
0.170827
0.178637
0.186619
0.194819
0.203278
0.212035
0.221124
0.23058
0.240438
0.250732
0.2615
0.272781
0.284613
0.297034
0.310087
0.323818
0.338278
0.353524
0.369622
0.38658
0.404455
0.423309
0.443199
0.464184
0.486322
0.50967
0.534286
0.560226
0.587545
0.616292
0.646502
0.678214
0.711466
0.746296
0.782735
0.82081
0.860541
0.901944
0.945031
0.989805
1.03627
1.08441
1.13423
1.1857
1.23881
1.29354
1.34985
1.40771
1.46707
1.5279
1.59014
1.65374
1.71867
1.78486
1.85226
1.92082
1.99047
2.06114
2.13278
2.20532
2.27869