/*--------------------------------*- C++ -*----------------------------------*\
  =========                 |
  \\      /  F ield         | OpenFOAM: The Open Source CFD Toolbox
   \\    /   O peration     | Website:  https://openfoam.org
    \\  /    A nd           | Version:  12
     \\/     M anipulation  |
\*---------------------------------------------------------------------------*/
FoamFile
{
    format      ascii;
    class       volScalarField;
    location    "0.15";
    object      nut;
}
// * * * * * * * * * * * * * * * * * * * * * * * * * * * * * * * * * * * * * //

dimensions      [0 2 -1 0 0 0 0];

internalField   nonuniform List<scalar> 
12225
(
4.04768e-05
3.83178e-05
3.62504e-05
3.44199e-05
3.2952e-05
3.18977e-05
3.12563e-05
3.0994e-05
3.10585e-05
3.13908e-05
3.19322e-05
3.26289e-05
3.34345e-05
3.43107e-05
3.52282e-05
3.61626e-05
3.71196e-05
3.85062e-05
0.000281048
0.000209266
0.000176266
0.000157439
0.000146271
0.000139687
0.000135792
0.00013343
0.000131915
0.000130858
0.000130044
0.000129357
0.000128739
0.000128162
0.000127623
0.00012708
0.000126687
0.000125726
0.000556047
0.000419907
0.000349814
0.000304734
0.000272446
0.000247981
0.000228764
0.000213299
0.00020067
0.000190268
0.000181652
0.000174484
0.000168493
0.000163459
0.000159208
0.000155552
0.000152405
0.000149326
0.000740308
0.00062582
0.000544115
0.000484997
0.000439769
0.000403648
0.000373837
0.0003486
0.000326848
0.000307885
0.000291235
0.000276552
0.000263567
0.000252048
0.0002418
0.000232604
0.000224303
0.000216609
0.000817069
0.000759141
0.000700544
0.000648576
0.000603895
0.00056558
0.000532469
0.000503507
0.000477871
0.000454951
0.0004343
0.000415585
0.000398547
0.000382974
0.000368686
0.000355497
0.000343261
0.000331878
0.0008421
0.000819687
0.000789924
0.000757604
0.000725552
0.000695161
0.000666962
0.000641011
0.000617168
0.000595229
0.000574992
0.000556269
0.000538896
0.000522725
0.000507625
0.000493466
0.000480144
0.000467704
0.000849261
0.000841808
0.000829742
0.000814187
0.000796479
0.000777759
0.000758846
0.000740251
0.000722263
0.000705026
0.000688602
0.000672998
0.000658193
0.000644148
0.000630815
0.00061814
0.000606081
0.000594766
0.00085112
0.000848747
0.00084448
0.000838236
0.000830245
0.000820894
0.000810597
0.000799719
0.00078855
0.000777307
0.000766146
0.000755173
0.000744457
0.00073404
0.000723946
0.000714183
0.000704763
0.000695841
0.00085156
0.000850665
0.00084917
0.000846886
0.000843741
0.000839758
0.000835032
0.000829692
0.000823872
0.000817702
0.000811293
0.000804742
0.000798124
0.0007915
0.000784916
0.000778409
0.000772015
0.000765871
0.000851652
0.000851133
0.000850468
0.000849564
0.000848347
0.000846772
0.000844825
0.000842518
0.000839882
0.000836956
0.000833786
0.000830419
0.000826897
0.000823261
0.000819546
0.000815784
0.000812007
0.000808313
0.000851668
0.00085123
0.000850778
0.000850278
0.000849697
0.000849006
0.000848182
0.00084721
0.000846086
0.000844812
0.000843396
0.00084185
0.000840188
0.000838427
0.000836582
0.00083467
0.000832711
0.00083076
0.000851669
0.000851245
0.000850835
0.000850429
0.000850013
0.000849575
0.0008491
0.000848579
0.000848002
0.000847364
0.000846663
0.000845899
0.000845075
0.000844194
0.000843262
0.000842285
0.000841273
0.000840259
0.000851668
0.000851244
0.000850843
0.000850459
0.000850088
0.000849725
0.000849365
0.000849001
0.000848628
0.000848242
0.00084784
0.000847418
0.000846977
0.000846516
0.000846034
0.000845533
0.000845017
0.000844506
0.000851667
0.000851242
0.000850839
0.000850458
0.000850096
0.000849751
0.00084942
0.000849102
0.000848792
0.00084849
0.000848194
0.0008479
0.000847609
0.000847319
0.00084703
0.00084674
0.000846451
0.000846177
0.000851666
0.000851239
0.000850835
0.000850452
0.00085009
0.000849746
0.000849419
0.000849108
0.000848811
0.000848528
0.000848256
0.000847995
0.000847745
0.000847504
0.000847271
0.000847046
0.000846831
0.000846636
0.000851665
0.000851236
0.000850831
0.000850447
0.000850083
0.000849737
0.000849409
0.000849098
0.000848801
0.000848519
0.00084825
0.000847994
0.00084775
0.000847516
0.000847294
0.000847081
0.000846881
0.000846702
0.000851664
0.000851235
0.000850828
0.000850442
0.000850077
0.00084973
0.000849401
0.000849088
0.00084879
0.000848507
0.000848237
0.00084798
0.000847735
0.000847502
0.000847279
0.000847067
0.000846866
0.000846689
0.000851663
0.000851234
0.000850826
0.00085044
0.000850073
0.000849725
0.000849395
0.000849081
0.000848782
0.000848498
0.000848227
0.000847969
0.000847723
0.000847488
0.000847264
0.000847051
0.000846849
0.00084667
0.000851663
0.000851233
0.000850825
0.000850439
0.000850072
0.000849724
0.000849393
0.000849078
0.000848779
0.000848494
0.000848223
0.000847964
0.000847717
0.000847481
0.000847256
0.000847042
0.000846839
0.000846659
0.000851664
0.000851234
0.000850826
0.00085044
0.000850074
0.000849726
0.000849396
0.000849082
0.000848782
0.000848497
0.000848225
0.000847966
0.000847718
0.000847481
0.000847254
0.000847038
0.000846833
0.00084665
0.000851664
0.000851235
0.000850829
0.000850443
0.000850078
0.00084973
0.000849399
0.000849083
0.00084878
0.000848489
0.00084821
0.000847941
0.00084768
0.000847428
0.000847183
0.000846946
0.000846717
0.000846507
0.000851665
0.000851237
0.00085083
0.000850442
0.000850069
0.000849706
0.000849351
0.000848999
0.000848648
0.000848294
0.000847935
0.000847571
0.000847199
0.00084682
0.000846434
0.000846041
0.000845643
0.000845254
0.000851664
0.000851228
0.000850794
0.000850348
0.00084987
0.000849345
0.000848762
0.000848111
0.000847389
0.000846594
0.000845729
0.000844798
0.000843807
0.000842763
0.000841673
0.000840546
0.00083939
0.000838229
0.000851634
0.000851073
0.000850343
0.000849363
0.00084808
0.000846468
0.000844531
0.000842293
0.000839786
0.000837054
0.000834137
0.000831077
0.000827912
0.000824676
0.000821398
0.000818103
0.000814815
0.000811582
0.000851287
0.000849596
0.000846721
0.000842578
0.000837263
0.00083098
0.000823972
0.000816472
0.000808676
0.00080074
0.000792787
0.000784906
0.000777162
0.000769601
0.000762252
0.000755135
0.000748265
0.000741695
0.000848318
0.000839426
0.000826161
0.000810017
0.000792358
0.000774226
0.00075632
0.000739042
0.000722591
0.000707047
0.000692422
0.000678687
0.000665797
0.000653697
0.000642331
0.000631644
0.000621589
0.000612174
0.000828548
0.000788843
0.000746033
0.000705701
0.000669461
0.000637497
0.000609439
0.000584732
0.000562835
0.000543295
0.000525741
0.000509876
0.000495457
0.00048229
0.000470217
0.000459106
0.000448852
0.000439407
0.000730726
0.000627345
0.000554506
0.000501057
0.000460314
0.000428343
0.000402627
0.000381462
0.000363701
0.000348571
0.000335525
0.000324165
0.000314194
0.000305382
0.00029755
0.000290552
0.000284269
0.000278619
0.000439249
0.00033847
0.000287935
0.000256868
0.000236361
0.000222509
0.000212992
0.000206311
0.000201505
0.000197958
0.000195271
0.000193177
0.000191499
0.000190116
0.000188947
0.000187933
0.000187036
0.00018621
7.16431e-05
6.90587e-05
6.65522e-05
6.41646e-05
6.19883e-05
6.00784e-05
5.84564e-05
5.71211e-05
5.60569e-05
5.524e-05
5.46432e-05
5.42388e-05
5.40001e-05
5.39021e-05
5.39222e-05
5.40404e-05
5.42393e-05
5.45026e-05
4.82138e-07
1.05779e-05
1.69196e-05
2.27752e-05
2.91447e-05
3.62661e-05
4.4266e-05
5.32762e-05
6.28678e-05
7.25567e-05
8.22647e-05
9.18894e-05
0.000101341
0.000110551
0.00011947
0.000128062
0.000136299
0.000144159
0.000151618
0.000158654
0.000165239
0.000171342
0.000176917
0.000181905
0.000186225
0.000189809
0.000192653
0.000194888
0.000196741
0.000198335
0.000199498
0.000200086
0.000200628
0.000201312
0.000201169
0.000198863
0.000199379
4.6258e-05
0.000200747
4.67909e-05
4.67297e-05
4.77771e-05
4.87541e-05
4.97574e-05
5.07739e-05
5.17978e-05
5.28268e-05
5.38589e-05
5.48932e-05
5.59288e-05
5.69653e-05
5.80021e-05
5.90391e-05
6.00757e-05
6.11119e-05
6.21471e-05
6.31812e-05
6.42138e-05
6.52445e-05
6.62729e-05
6.72988e-05
6.83216e-05
6.93409e-05
7.03564e-05
7.13675e-05
7.23738e-05
7.33749e-05
7.43702e-05
7.53592e-05
7.63416e-05
7.73166e-05
7.8284e-05
7.92431e-05
8.01935e-05
8.11346e-05
8.20661e-05
8.29874e-05
8.38979e-05
8.47974e-05
8.56853e-05
8.65611e-05
8.74244e-05
8.82748e-05
8.91119e-05
8.99352e-05
9.07444e-05
9.1539e-05
9.23186e-05
9.30829e-05
9.38313e-05
9.45636e-05
9.52794e-05
9.59782e-05
9.66596e-05
9.73235e-05
9.79696e-05
9.85982e-05
9.92101e-05
9.98072e-05
0.000100393
0.000100958
0.000101502
0.000102024
0.000102526
0.000103005
0.000103463
0.000103898
0.000104311
0.0001047
0.000105066
0.000105409
0.000105727
0.000106022
0.000106291
0.000106536
0.000106756
0.000106951
0.00010712
0.000107264
0.000107383
0.000107476
0.000107543
0.000107585
0.0001076
0.00010759
0.000107555
0.000107494
0.000107407
0.000107295
0.000107158
0.000106996
0.000106809
0.000106598
0.000106362
0.000106102
0.000105819
0.000105512
0.000105182
0.00010483
0.000104456
0.000104059
0.000103642
0.000103204
0.000102745
0.000102267
0.00010177
0.000101255
0.000100721
0.00010017
9.96025e-05
9.90188e-05
9.84199e-05
9.78063e-05
9.71787e-05
9.65378e-05
9.58844e-05
9.52192e-05
9.45428e-05
9.38564e-05
9.31597e-05
9.24553e-05
9.17424e-05
9.10229e-05
9.03024e-05
8.96072e-05
8.91377e-05
8.87386e-05
8.83406e-05
8.79405e-05
8.7538e-05
8.71334e-05
8.67266e-05
8.63169e-05
8.59031e-05
8.54821e-05
8.50471e-05
8.45825e-05
8.40478e-05
8.33407e-05
8.20351e-05
1.56292e-06
3.24434e-05
6.8214e-05
9.42058e-05
0.00011246
0.000126214
0.000138046
0.000149299
0.000160556
0.000171959
0.00018345
0.000194911
0.000206219
0.000217269
0.000227978
0.000238277
0.000248105
0.000257409
0.000266127
0.000274195
0.000281526
0.000288008
0.00029348
0.000297731
0.000300523
0.00030169
0.000301287
0.000299678
0.000297328
0.000294308
0.000290072
0.000284411
0.00027885
0.000275155
0.000269957
0.000262719
0.000261271
0.00025547
0.0002628
0.000258699
0.000263286
0.00026983
0.000276054
0.000282084
0.00028847
0.000295132
0.000302008
0.000309056
0.000316249
0.000323568
0.000331006
0.000338555
0.000346211
0.000353973
0.000361839
0.000369807
0.000377878
0.000386049
0.000394319
0.000402689
0.000411156
0.000419719
0.000428376
0.000437125
0.000445962
0.000454886
0.000463893
0.000472979
0.000482141
0.000491374
0.000500673
0.000510035
0.000519453
0.000528923
0.000538439
0.000547996
0.000557588
0.000567208
0.000576852
0.000586514
0.000596186
0.000605865
0.000615544
0.000625218
0.000634881
0.000644528
0.000654155
0.000663756
0.000673328
0.000682865
0.000692364
0.000701818
0.000711224
0.000720573
0.000729855
0.000739053
0.000748137
0.000757063
0.000765765
0.000773758
0.000781523
0.000789161
0.000796682
0.000804082
0.000811355
0.000818496
0.0008255
0.00083236
0.00083907
0.000845627
0.000852023
0.000858254
0.000864316
0.000870202
0.000875908
0.00088143
0.000886764
0.000891904
0.000896848
0.000901592
0.000906131
0.000910464
0.000914587
0.000918498
0.000922193
0.000925672
0.000928931
0.000931969
0.000934784
0.000937375
0.000939743
0.000941884
0.000943801
0.000945492
0.000946958
0.000948199
0.000949216
0.000950011
0.000950585
0.000950939
0.000951076
0.000950999
0.000950709
0.00095021
0.000949505
0.000948598
0.000947493
0.000946193
0.000944704
0.00094303
0.000941176
0.000939147
0.000936949
0.000934589
0.00093207
0.000929402
0.00092659
0.000923636
0.000920561
0.000917354
0.000914041
0.000910627
0.000907085
0.000903337
0.000898998
0.000892631
0.000885358
0.000877819
0.00087016
0.000862427
0.00085464
0.000846811
0.000838946
0.000831044
0.0008231
0.000815089
0.000806937
0.000798534
0.000788869
0.000769737
2.96954e-06
5.00806e-05
0.000103878
0.000143855
0.000172767
0.000194381
0.00021161
0.000226455
0.000240139
0.00025331
0.00026624
0.000278993
0.000291532
0.000303784
0.000315669
0.000327111
0.00033804
0.000348394
0.000358116
0.000367147
0.000375426
0.000382885
0.000389443
0.000395019
0.000399569
0.000403148
0.00040599
0.000408498
0.000411099
0.000414001
0.000417151
0.000420594
0.0004248
0.000430136
0.000436069
0.000442627
0.000450536
0.000459235
0.000469434
0.000480128
0.000492181
0.000505285
0.000518845
0.000532648
0.000546748
0.00056114
0.000575805
0.000590726
0.000605887
0.000621278
0.000636889
0.000652716
0.000668755
0.000685003
0.000701456
0.000718113
0.000734972
0.000752029
0.000769282
0.000786727
0.000804361
0.000822177
0.000840172
0.000858339
0.000876672
0.000895163
0.000913804
0.000932587
0.000951502
0.000970539
0.000989689
0.00100894
0.00102828
0.0010477
0.00106718
0.00108672
0.0011063
0.00112591
0.00114554
0.00116517
0.00118479
0.00120438
0.00122395
0.00124346
0.00126292
0.00128231
0.00130162
0.00132083
0.00133993
0.00135892
0.00137777
0.00139648
0.00141502
0.00143337
0.00145151
0.00146941
0.00148702
0.00150429
0.00152101
0.00153717
0.00155301
0.00156858
0.00158391
0.00159898
0.00161377
0.00162829
0.00164252
0.00165644
0.00167005
0.00168332
0.00169627
0.00170886
0.0017211
0.00173296
0.00174445
0.00175555
0.00176626
0.00177656
0.00178645
0.00179591
0.00180495
0.00181356
0.00182173
0.00182945
0.00183673
0.00184355
0.00184991
0.00185581
0.00186124
0.00186621
0.00187071
0.00187474
0.0018783
0.00188139
0.00188401
0.00188616
0.00188785
0.00188907
0.00188984
0.00189014
0.00189
0.00188941
0.00188837
0.0018869
0.001885
0.00188269
0.00187996
0.00187682
0.00187329
0.00186938
0.00186509
0.00186043
0.00185543
0.00185009
0.00184442
0.00183844
0.00183216
0.00182559
0.00181877
0.00181169
0.00180438
0.00179685
0.00178905
0.00178083
0.00177178
0.00176092
0.00174893
0.0017364
0.00172357
0.00171055
0.00169737
0.00168408
0.00167068
0.00165718
0.00164355
0.00162973
0.00161551
0.00160039
0.00158241
0.00155289
4.5284e-06
6.26343e-05
0.000129177
0.000180214
0.000218124
0.000246728
0.000269182
0.000287816
0.000304217
0.000319372
0.000333833
0.000347865
0.000361564
0.000374933
0.00038794
0.000400536
0.000412677
0.000424326
0.000435456
0.000446052
0.000456109
0.000465633
0.000474642
0.000483174
0.000491302
0.00049917
0.000507002
0.000515088
0.000523704
0.000533023
0.000543099
0.000553972
0.000565745
0.00057848
0.000592094
0.000606577
0.000621979
0.00063828
0.000655486
0.000673518
0.000692319
0.000711755
0.000731643
0.000751871
0.000772411
0.000793259
0.000814411
0.000835864
0.000857612
0.000879652
0.000901982
0.000924597
0.000947494
0.000970672
0.000994127
0.00101786
0.00104186
0.00106612
0.00109065
0.00111543
0.00114046
0.00116574
0.00119124
0.00121697
0.00124291
0.00126905
0.00129539
0.00132189
0.00134856
0.00137538
0.00140233
0.0014294
0.00145656
0.00148381
0.00151112
0.00153848
0.00156587
0.00159327
0.00162066
0.00164802
0.00167534
0.0017026
0.00172978
0.00175685
0.00178381
0.00181064
0.00183732
0.00186382
0.00189015
0.00191626
0.00194215
0.0019678
0.00199317
0.00201825
0.002043
0.0020674
0.00209141
0.00211499
0.00213793
0.00216037
0.00218243
0.00220413
0.00222547
0.00224645
0.00226705
0.00228726
0.00230706
0.00232644
0.00234537
0.00236386
0.00238188
0.00239941
0.00241645
0.00243298
0.00244898
0.00246446
0.00247938
0.00249375
0.00250754
0.00252076
0.00253339
0.00254542
0.00255685
0.00256766
0.00257785
0.00258742
0.00259636
0.00260466
0.00261232
0.00261933
0.0026257
0.00263142
0.00263649
0.00264091
0.00264468
0.0026478
0.00265028
0.00265212
0.00265331
0.00265388
0.00265381
0.00265313
0.00265183
0.00264992
0.00264741
0.00264432
0.00264065
0.00263642
0.00263163
0.0026263
0.00262044
0.00261407
0.0026072
0.00259986
0.00259205
0.0025838
0.00257513
0.00256606
0.00255661
0.00254681
0.00253665
0.00252614
0.00251524
0.00250383
0.00249161
0.00247807
0.0024635
0.00244828
0.00243264
0.00241669
0.00240052
0.00238415
0.00236763
0.00235095
0.0023341
0.00231697
0.00229931
0.00228041
0.00225815
0.00222596
6.01362e-06
7.25664e-05
0.000149068
0.000209236
0.000254752
0.000289446
0.000316633
0.000338854
0.000357934
0.000375103
0.000391132
0.000406467
0.000421341
0.000435856
0.000450046
0.000463914
0.000477454
0.000490665
0.000503558
0.000516157
0.000528503
0.00054065
0.000552668
0.000564648
0.0005767
0.000588966
0.000601617
0.000614838
0.000628795
0.000643599
0.000659298
0.000675912
0.00069345
0.000711906
0.000731245
0.000751438
0.000772464
0.000794291
0.000816877
0.000840162
0.000864064
0.000888495
0.000913365
0.000938612
0.000964209
0.000990147
0.00101642
0.00104304
0.00106998
0.00109727
0.00112488
0.00115283
0.00118111
0.00120971
0.00123864
0.00126788
0.00129744
0.0013273
0.00135747
0.00138792
0.00141866
0.00144967
0.00148094
0.00151246
0.00154421
0.00157618
0.00160836
0.00164072
0.00167326
0.00170594
0.00173876
0.00177169
0.00180471
0.00183779
0.00187093
0.00190409
0.00193726
0.0019704
0.00200351
0.00203655
0.0020695
0.00210235
0.00213507
0.00216763
0.00220002
0.00223222
0.00226421
0.00229596
0.00232745
0.00235867
0.00238959
0.00242019
0.00245044
0.00248033
0.00250982
0.0025389
0.00256753
0.00259562
0.00262311
0.00265011
0.00267667
0.00270281
0.00272853
0.00275381
0.00277864
0.002803
0.00282689
0.00285027
0.00287313
0.00289546
0.00291724
0.00293845
0.00295908
0.00297911
0.00299852
0.0030173
0.00303545
0.00305293
0.00306975
0.00308588
0.00310132
0.00311606
0.00313009
0.00314339
0.00315597
0.0031678
0.0031789
0.00318924
0.00319883
0.00320765
0.00321571
0.003223
0.00322953
0.00323529
0.00324028
0.00324449
0.00324795
0.00325063
0.00325256
0.00325374
0.00325416
0.00325384
0.00325279
0.00325101
0.00324851
0.00324531
0.00324141
0.00323682
0.00323158
0.00322567
0.00321913
0.00321196
0.0032042
0.00319584
0.00318693
0.00317747
0.00316748
0.00315701
0.00314605
0.00313464
0.00312279
0.00311049
0.00309772
0.00308441
0.00307036
0.00305532
0.00303941
0.00302283
0.00300577
0.00298834
0.00297062
0.00295266
0.0029345
0.00291617
0.00289764
0.00287884
0.00285951
0.00283896
0.00281533
0.00278427
7.33199e-06
8.05821e-05
0.00016524
0.000233024
0.00028507
0.00032515
0.000356661
0.000382274
0.000403978
0.00042318
0.000440827
0.000457522
0.000473628
0.000489348
0.000504792
0.000520021
0.000535073
0.000549982
0.000564788
0.000579543
0.00059431
0.000609165
0.000624195
0.000639498
0.00065518
0.000671356
0.000688145
0.000705662
0.000724002
0.000743228
0.000763366
0.00078442
0.000806374
0.000829203
0.000852872
0.000877344
0.000902579
0.000928534
0.000955161
0.000982404
0.0010102
0.0010385
0.00106723
0.00109637
0.00112588
0.00115577
0.00118602
0.00121664
0.00124762
0.00127896
0.00131066
0.00134272
0.00137513
0.00140789
0.00144101
0.00147446
0.00150824
0.00154236
0.00157679
0.00161153
0.00164656
0.00168187
0.00171746
0.0017533
0.00178938
0.00182567
0.00186218
0.00189886
0.00193571
0.0019727
0.00200981
0.00204701
0.0020843
0.00212163
0.00215898
0.00219634
0.00223367
0.00227095
0.00230816
0.00234526
0.00238225
0.00241908
0.00245574
0.0024922
0.00252844
0.00256444
0.00260018
0.00263563
0.00267077
0.00270559
0.00274005
0.00277415
0.00280785
0.00284114
0.002874
0.0029064
0.00293833
0.00296963
0.00300039
0.00303065
0.00306045
0.00308979
0.00311867
0.00314707
0.00317499
0.00320239
0.00322927
0.00325561
0.00328138
0.00330657
0.00333116
0.00335514
0.00337848
0.00340117
0.00342319
0.00344452
0.00346516
0.00348508
0.00350428
0.00352273
0.00354042
0.00355735
0.0035735
0.00358886
0.00360342
0.00361718
0.00363013
0.00364225
0.00365354
0.00366399
0.00367361
0.00368239
0.00369032
0.0036974
0.00370364
0.00370903
0.00371358
0.00371727
0.00372013
0.00372216
0.00372335
0.00372372
0.00372326
0.003722
0.00371995
0.0037171
0.00371347
0.00370908
0.00370395
0.00369807
0.00369147
0.00368418
0.0036762
0.00366755
0.00365826
0.00364835
0.00363784
0.00362676
0.00361513
0.00360296
0.00359028
0.00357709
0.00356338
0.0035491
0.00353414
0.0035184
0.0035019
0.00348477
0.00346713
0.00344908
0.0034307
0.00341206
0.00339319
0.00337415
0.00335494
0.00333551
0.00331563
0.00329476
0.00327143
0.00324286
8.42698e-06
8.71112e-05
0.000178362
0.000252509
0.000310197
0.000355084
0.000390579
0.000419423
0.00044371
0.000464976
0.000484305
0.000502431
0.000519832
0.000536808
0.000553547
0.000570165
0.000586743
0.000603346
0.000620036
0.00063688
0.000653949
0.000671322
0.000689082
0.000707316
0.000726111
0.000745553
0.000765721
0.000786684
0.000808494
0.000831182
0.000854756
0.000879208
0.000904515
0.000930646
0.000957564
0.000985229
0.0010136
0.00104263
0.00107227
0.00110249
0.00113323
0.00116445
0.00119611
0.0012282
0.00126068
0.00129355
0.0013268
0.00136043
0.00139444
0.00142883
0.00146358
0.00149871
0.0015342
0.00157005
0.00160626
0.00164281
0.00167971
0.00171694
0.00175448
0.00179234
0.00183049
0.00186892
0.00190762
0.00194657
0.00198575
0.00202514
0.00206473
0.00210449
0.00214441
0.00218445
0.0022246
0.00226483
0.00230512
0.00234544
0.00238577
0.00242607
0.00246633
0.00250652
0.0025466
0.00258656
0.00262637
0.002666
0.00270542
0.00274461
0.00278355
0.00282222
0.00286058
0.00289863
0.00293633
0.00297367
0.00301064
0.0030472
0.00308334
0.00311905
0.0031543
0.00318907
0.00322332
0.00325698
0.00329012
0.00332276
0.00335493
0.00338663
0.00341786
0.00344859
0.00347881
0.00350851
0.00353766
0.00356625
0.00359425
0.00362165
0.00364843
0.00367457
0.00370004
0.00372484
0.00374894
0.00377233
0.00379498
0.00381689
0.00383804
0.00385841
0.00387799
0.00389676
0.00391472
0.00393184
0.00394814
0.00396358
0.00397817
0.00399189
0.00400474
0.0040167
0.00402778
0.00403796
0.00404726
0.00405566
0.00406317
0.00406977
0.00407547
0.00408028
0.00408419
0.00408722
0.00408936
0.00409061
0.00409099
0.00409051
0.00408918
0.004087
0.00408397
0.00408012
0.00407549
0.00407004
0.00406381
0.00405682
0.00404908
0.00404062
0.00403146
0.00402163
0.00401113
0.00400001
0.00398827
0.00397594
0.00396305
0.00394959
0.00393557
0.00392096
0.00390572
0.0038898
0.00387321
0.00385602
0.00383832
0.00382018
0.0038017
0.00378293
0.00376394
0.00374479
0.00372551
0.00370608
0.00368636
0.00366593
0.00364369
0.00361786
9.32497e-06
9.22307e-05
0.000188738
0.000268187
0.000330755
0.00037994
0.000419111
0.000451032
0.000477857
0.000501208
0.000522271
0.000541886
0.000560629
0.000578888
0.000596918
0.000614891
0.000632927
0.000651118
0.000669542
0.000688272
0.00070738
0.000726939
0.000747021
0.000767695
0.000789029
0.000811082
0.000833905
0.000857536
0.000882003
0.000907316
0.000933472
0.000960455
0.000988238
0.00101679
0.00104608
0.00107606
0.00110669
0.00113794
0.00116977
0.00120213
0.00123499
0.00126833
0.00130211
0.00133631
0.00137091
0.00140591
0.00144131
0.00147708
0.00151324
0.00154977
0.00158667
0.00162395
0.00166159
0.00169959
0.00173794
0.00177664
0.00181567
0.00185503
0.00189471
0.00193468
0.00197495
0.00201549
0.00205629
0.00209733
0.0021386
0.00218007
0.00222173
0.00226355
0.00230552
0.00234761
0.0023898
0.00243206
0.00247437
0.00251671
0.00255904
0.00260134
0.00264359
0.00268575
0.0027278
0.00276971
0.00281145
0.00285301
0.00289434
0.00293543
0.00297624
0.00301677
0.00305697
0.00309684
0.00313635
0.00317549
0.00321423
0.00325255
0.00329045
0.0033279
0.00336489
0.0034014
0.00343735
0.00347277
0.00350769
0.00354215
0.00357614
0.00360967
0.00364272
0.00367528
0.00370733
0.00373885
0.00376983
0.00380023
0.00383005
0.00385925
0.00388783
0.00391575
0.00394301
0.00396957
0.00399543
0.00402056
0.00404495
0.00406857
0.00409141
0.00411346
0.00413469
0.0041551
0.00417467
0.00419338
0.00421124
0.00422823
0.00424433
0.00425955
0.00427385
0.00428725
0.00429972
0.00431128
0.00432192
0.00433163
0.00434041
0.00434826
0.00435516
0.00436114
0.00436619
0.00437031
0.00437352
0.0043758
0.00437716
0.00437762
0.00437721
0.00437589
0.00437368
0.00437061
0.0043667
0.00436194
0.00435636
0.00434997
0.00434281
0.00433487
0.00432619
0.00431679
0.00430668
0.0042959
0.00428446
0.00427238
0.00425969
0.00424639
0.0042325
0.00421801
0.00420291
0.00418717
0.00417081
0.00415388
0.00413644
0.00411857
0.00410033
0.00408179
0.00406305
0.00404415
0.00402518
0.00400615
0.00398697
0.00396736
0.00394651
0.00392322
1.0028e-05
9.60678e-05
0.000196631
0.000280428
0.000347179
0.000400184
0.000442727
0.000477555
0.000506844
0.000532269
0.000555088
0.00057622
0.000596322
0.000615852
0.00063513
0.000654374
0.00067374
0.000693343
0.000713273
0.000733609
0.000754419
0.000775768
0.000797715
0.000820314
0.000843612
0.00086765
0.000892459
0.000918058
0.000944458
0.000971659
0.000999648
0.00102841
0.00105791
0.00108813
0.00111902
0.00115056
0.00118271
0.00121543
0.00124869
0.00128246
0.00131671
0.00135142
0.00138656
0.00142211
0.00145807
0.00149442
0.00153115
0.00156826
0.00160575
0.00164361
0.00168183
0.00172042
0.00175936
0.00179865
0.00183829
0.00187826
0.00191856
0.00195918
0.00200011
0.00204133
0.00208283
0.00212461
0.00216664
0.00220891
0.0022514
0.00229409
0.00233698
0.00238003
0.00242323
0.00246655
0.00250998
0.00255348
0.00259704
0.00264063
0.00268423
0.0027278
0.00277133
0.00281478
0.00285812
0.00290133
0.00294438
0.00298724
0.00302989
0.00307228
0.00311441
0.00315625
0.00319776
0.00323893
0.00327975
0.00332018
0.00336022
0.00339984
0.00343904
0.0034778
0.00351609
0.0035539
0.0035912
0.00362803
0.0036644
0.00370034
0.00373583
0.00377087
0.00380545
0.00383955
0.00387315
0.00390623
0.00393876
0.00397074
0.00400213
0.00403291
0.00406306
0.00409257
0.0041214
0.00414955
0.00417698
0.00420368
0.00422964
0.00425482
0.00427922
0.0043028
0.00432557
0.00434749
0.00436857
0.00438878
0.00440811
0.00442656
0.00444412
0.00446077
0.00447649
0.00449128
0.00450513
0.00451804
0.00453
0.00454103
0.00455112
0.00456023
0.00456838
0.00457557
0.00458181
0.00458712
0.00459148
0.00459487
0.00459732
0.00459884
0.00459943
0.00459911
0.00459788
0.00459576
0.00459275
0.00458888
0.00458416
0.0045786
0.00457222
0.00456505
0.00455709
0.00454838
0.00453893
0.00452876
0.0045179
0.00450636
0.00449417
0.00448135
0.0044679
0.00445383
0.00443915
0.00442386
0.00440797
0.00439152
0.00437457
0.00435718
0.00433941
0.00432135
0.00430308
0.00428468
0.00426625
0.00424783
0.00422941
0.00421077
0.00419133
0.00417023
1.05434e-05
9.87562e-05
0.000202295
0.000289559
0.000359836
0.000416189
0.000461785
0.000499319
0.00053096
0.000558405
0.000582957
0.00060559
0.000627024
0.000647775
0.000668214
0.0006886
0.000709122
0.000729913
0.000751077
0.000772695
0.000794832
0.000817547
0.000840886
0.000864891
0.000889594
0.000915023
0.000941192
0.000968112
0.000995783
0.0010242
0.00105334
0.00108319
0.00111372
0.0011449
0.00117671
0.00120911
0.00124207
0.00127556
0.00130955
0.00134402
0.00137895
0.0014143
0.00145007
0.00148624
0.0015228
0.00155973
0.00159704
0.00163472
0.00167275
0.00171114
0.00174989
0.00178898
0.00182842
0.0018682
0.00190832
0.00194876
0.00198953
0.00203061
0.00207199
0.00211367
0.00215564
0.00219788
0.00224038
0.00228312
0.00232611
0.00236931
0.00241271
0.00245631
0.00250006
0.00254397
0.002588
0.00263214
0.00267636
0.00272063
0.00276494
0.00280926
0.00285355
0.0028978
0.00294196
0.00298602
0.00302994
0.0030737
0.00311726
0.00316058
0.00320366
0.00324645
0.00328893
0.00333108
0.00337288
0.00341431
0.00345535
0.00349599
0.00353621
0.003576
0.00361534
0.00365424
0.00369271
0.00373077
0.00376842
0.00380566
0.00384249
0.00387889
0.00391485
0.00395035
0.00398536
0.00401987
0.00405385
0.00408728
0.00412013
0.00415238
0.00418401
0.00421499
0.00424531
0.00427494
0.00430387
0.00433206
0.00435951
0.00438619
0.00441207
0.00443713
0.00446137
0.00448476
0.00450729
0.00452895
0.00454973
0.00456961
0.0045886
0.00460666
0.00462378
0.00463996
0.00465518
0.00466945
0.00468276
0.00469512
0.00470654
0.00471695
0.00472638
0.00473484
0.00474232
0.00474885
0.0047544
0.00475899
0.00476261
0.00476528
0.00476702
0.00476781
0.00476768
0.00476663
0.00476469
0.00476185
0.00475814
0.00475357
0.00474816
0.00474193
0.00473489
0.00472706
0.00471846
0.00470912
0.00469906
0.00468828
0.00467683
0.0046647
0.00465193
0.00463852
0.00462448
0.00460983
0.0045946
0.0045788
0.00456251
0.00454576
0.00452863
0.00451121
0.00449357
0.00447583
0.00445808
0.00444041
0.00442282
0.00440521
0.00438709
0.00436783
1.08843e-05
0.000100433
0.000205978
0.000295892
0.000369061
0.00042829
0.000476597
0.000516598
0.000550428
0.000579785
0.00060599
0.000630057
0.000652745
0.000674618
0.000696085
0.000717443
0.000738903
0.000760621
0.000782708
0.000805251
0.000828314
0.000851949
0.000876195
0.000901083
0.000926638
0.000952873
0.000979798
0.00100741
0.00103571
0.00106469
0.00109432
0.00112459
0.00115547
0.00118694
0.00121897
0.00125153
0.0012846
0.00131816
0.00135217
0.00138662
0.00142148
0.00145675
0.0014924
0.00152842
0.00156482
0.00160157
0.00163867
0.00167612
0.00171391
0.00175205
0.00179053
0.00182935
0.0018685
0.001908
0.00194782
0.00198797
0.00202845
0.00206926
0.00211038
0.00215181
0.00219354
0.00223557
0.00227789
0.00232049
0.00236335
0.00240647
0.00244983
0.00249342
0.00253722
0.00258121
0.00262538
0.0026697
0.00271416
0.00275872
0.00280336
0.00284807
0.0028928
0.00293752
0.00298222
0.00302685
0.00307139
0.00311579
0.00316004
0.00320408
0.0032479
0.00329145
0.00333472
0.00337768
0.0034203
0.00346256
0.00350444
0.00354594
0.00358703
0.00362771
0.00366801
0.00370797
0.00374756
0.00378679
0.00382566
0.00386416
0.00390228
0.00394
0.00397731
0.00401417
0.00405056
0.00408646
0.00412185
0.00415669
0.00419097
0.00422466
0.00425773
0.00429017
0.00432194
0.00435304
0.00438342
0.00441309
0.00444201
0.00447016
0.0044975
0.00452403
0.00454972
0.00457457
0.00459854
0.00462165
0.00464386
0.00466517
0.00468559
0.00470509
0.00472362
0.00474119
0.0047578
0.00477345
0.00478813
0.00480184
0.00481458
0.00482633
0.00483709
0.00484686
0.00485565
0.00486347
0.0048703
0.00487616
0.00488104
0.00488497
0.00488793
0.00488995
0.00489103
0.00489118
0.00489042
0.00488875
0.00488619
0.00488275
0.00487846
0.00487332
0.00486735
0.00486057
0.004853
0.00484466
0.00483557
0.00482574
0.0048152
0.00480397
0.00479206
0.00477949
0.00476628
0.00475245
0.00473802
0.00472304
0.00470753
0.00469157
0.00467522
0.00465856
0.00464169
0.00462471
0.00460775
0.00459089
0.0045742
0.00455758
0.00454067
0.00452295
1.10681e-05
0.000101236
0.000207927
0.000299733
0.000375179
0.0004368
0.000487445
0.000529625
0.000565424
0.000596517
0.000624231
0.000649594
0.000673396
0.00069623
0.000718537
0.00074064
0.000762772
0.000785106
0.000807762
0.000830832
0.00085438
0.000878454
0.00090309
0.000928312
0.000954138
0.000980575
0.00100763
0.00103529
0.00106355
0.00109241
0.00112184
0.00115182
0.00118234
0.00121337
0.00124488
0.00127686
0.00130929
0.00134214
0.00137539
0.00140903
0.00144304
0.00147742
0.00151215
0.00154722
0.00158263
0.00161837
0.00165445
0.00169086
0.00172761
0.00176469
0.00180211
0.00183987
0.00187798
0.00191643