/*--------------------------------*- C++ -*----------------------------------*\
  =========                 |
  \\      /  F ield         | OpenFOAM: The Open Source CFD Toolbox
   \\    /   O peration     | Website:  https://openfoam.org
    \\  /    A nd           | Version:  12
     \\/     M anipulation  |
\*---------------------------------------------------------------------------*/
FoamFile
{
    format      ascii;
    class       surfaceScalarField;
    location    "0.15";
    object      phi;
}
// * * * * * * * * * * * * * * * * * * * * * * * * * * * * * * * * * * * * * //

dimensions      [0 3 -1 0 0 0 0];

internalField   nonuniform List<scalar> 
24170
(
3.1336e-06
5.48083e-08
3.04827e-06
8.53317e-08
2.97313e-06
7.51321e-08
2.90429e-06
6.88474e-08
2.83944e-06
6.48443e-08
2.7822e-06
5.72401e-08
2.73328e-06
4.89224e-08
2.69173e-06
4.15517e-08
2.65626e-06
3.54724e-08
2.62569e-06
3.05622e-08
2.59907e-06
2.66224e-08
2.57558e-06
2.34903e-08
2.55453e-06
2.10487e-08
2.53524e-06
1.92889e-08
2.51706e-06
1.81852e-08
2.49815e-06
1.8911e-08
2.47722e-06
2.09288e-08
3.88114e-08
2.43841e-06
3.45361e-06
1.84465e-08
3.45616e-06
8.27801e-08
3.44961e-06
8.16803e-08
3.43799e-06
8.04742e-08
3.42349e-06
7.93405e-08
3.40594e-06
7.47914e-08
3.3863e-06
6.85653e-08
3.36538e-06
6.24723e-08
3.34395e-06
5.69002e-08
3.32262e-06
5.18919e-08
3.30178e-06
4.74562e-08
3.28167e-06
4.36044e-08
3.26239e-06
4.03315e-08
3.24392e-06
3.77541e-08
3.22632e-06
3.57879e-08
3.20942e-06
3.5816e-08
3.19412e-06
3.62273e-08
4.69221e-08
3.18601e-06
3.66535e-06
1.56107e-08
3.67825e-06
6.98836e-08
3.68531e-06
7.46237e-08
3.68958e-06
7.61987e-08
3.69125e-06
7.76753e-08
3.6901e-06
7.59343e-08
3.68664e-06
7.20307e-08
3.68143e-06
6.76849e-08
3.67489e-06
6.34342e-08
3.66739e-06
5.93984e-08
3.65919e-06
5.56551e-08
3.65051e-06
5.22848e-08
3.64149e-06
4.93452e-08
3.63225e-06
4.69926e-08
3.62278e-06
4.52564e-08
3.61353e-06
4.50755e-08
3.60412e-06
4.56313e-08
5.05915e-08
3.60045e-06
3.92465e-06
1.63512e-08
3.9358e-06
5.8735e-08
3.94254e-06
6.78849e-08
3.948e-06
7.07298e-08
3.95241e-06
7.32727e-08
3.95532e-06
7.30259e-08
3.95685e-06
7.04923e-08
3.95732e-06
6.72201e-08
3.9569e-06
6.3855e-08
3.95574e-06
6.05575e-08
3.95397e-06
5.74226e-08
3.9517e-06
5.45534e-08
3.94901e-06
5.20359e-08
3.94598e-06
5.00201e-08
3.94265e-06
4.85896e-08
3.93946e-06
4.82692e-08
3.93641e-06
4.86812e-08
5.08254e-08
3.93617e-06
4.20777e-06
1.57122e-08
4.21599e-06
5.05065e-08
4.22165e-06
6.22263e-08
4.22658e-06
6.58052e-08
4.23127e-06
6.85834e-08
4.23521e-06
6.90812e-08
4.23829e-06
6.74117e-08
4.24064e-06
6.48683e-08
4.24238e-06
6.21224e-08
4.24358e-06
5.93592e-08
4.24432e-06
5.66812e-08
4.24467e-06
5.42e-08
4.24469e-06
5.20129e-08
4.24447e-06
5.02475e-08
4.24407e-06
4.89878e-08
4.24385e-06
4.84912e-08
4.24399e-06
4.85337e-08
4.91664e-08
4.24565e-06
4.51044e-06
1.43607e-08
4.51686e-06
4.40874e-08
4.52216e-06
5.69206e-08
4.52681e-06
6.11535e-08
4.53142e-06
6.39803e-08
4.5356e-06
6.49028e-08
4.53917e-06
6.3843e-08
4.54219e-06
6.18426e-08
4.54475e-06
5.95593e-08
4.54691e-06
5.72016e-08
4.54871e-06
5.4878e-08
4.55021e-06
5.27002e-08
4.55146e-06
5.0765e-08
4.55254e-06
4.91724e-08
4.55354e-06
4.79831e-08
4.55474e-06
4.72963e-08
4.55634e-06
4.69304e-08
4.66467e-08
4.55886e-06
4.83412e-06
1.29611e-08
4.83957e-06
3.86319e-08
4.84482e-06
5.16747e-08
4.8494e-06
5.65714e-08
4.8539e-06
5.94811e-08
4.85812e-06
6.06871e-08
4.86187e-06
6.00936e-08
4.86518e-06
5.85268e-08
4.86813e-06
5.66114e-08
4.87075e-06
5.4578e-08
4.87309e-06
5.25401e-08
4.87519e-06
5.06048e-08
4.87709e-06
4.88613e-08
4.87888e-06
4.73834e-08
4.88066e-06
4.62037e-08
4.88262e-06
4.53336e-08
4.88494e-06
4.4609e-08
4.37582e-08
4.88783e-06
5.1809e-06
1.16426e-08
5.1857e-06
3.38309e-08
5.19083e-06
4.65465e-08
5.1954e-06
5.20009e-08
5.19985e-06
5.50284e-08
5.2041e-06
5.64404e-08
5.20797e-06
5.62262e-08
5.21146e-06
5.50311e-08
5.21464e-06
5.34299e-08
5.21755e-06
5.16709e-08
5.22022e-06
4.9873e-08
5.22269e-06
4.81366e-08
5.22501e-06
4.65405e-08
5.22725e-06
4.51371e-08
5.22952e-06
4.39361e-08
5.23195e-06
4.29058e-08
5.23465e-06
4.19031e-08
4.07072e-08
5.2377e-06
5.5526e-06
1.03808e-08
5.55685e-06
2.9585e-08
5.56176e-06
4.16353e-08
5.56631e-06
4.74424e-08
5.57076e-06
5.05828e-08
5.57505e-06
5.21463e-08
5.57903e-06
5.2246e-08
5.58268e-06
5.13808e-08
5.58605e-06
5.00615e-08
5.58918e-06
4.85455e-08
5.59209e-06
4.69572e-08
5.59484e-06
4.53895e-08
5.59747e-06
4.39111e-08
5.60005e-06
4.25588e-08
5.60266e-06
4.13281e-08
5.60539e-06
4.01724e-08
5.60832e-06
3.89751e-08
3.75817e-08
5.61144e-06
5.95098e-06
9.17228e-09
5.95475e-06
2.58169e-08
5.9594e-06
3.69861e-08
5.96393e-06
4.29167e-08
5.96837e-06
4.61367e-08
5.97271e-06
4.78057e-08
5.9768e-06
4.81574e-08
5.9806e-06
4.75822e-08
5.98414e-06
4.65186e-08
5.98747e-06
4.52225e-08
5.9906e-06
4.3822e-08
5.99359e-06
4.24031e-08
5.99647e-06
4.10251e-08
5.99932e-06
3.9715e-08
6.00218e-06
3.84626e-08
6.00513e-06
3.72226e-08
6.0082e-06
3.59067e-08
3.4419e-08
6.01136e-06
6.37795e-06
8.03062e-09
6.38132e-06
2.24491e-08
6.3857e-06
3.26076e-08
6.39017e-06
3.84486e-08
6.39461e-06
4.16957e-08
6.39899e-06
4.34285e-08
6.40317e-06
4.39702e-08
6.40712e-06
4.36405e-08
6.41083e-06
4.28057e-08
6.41434e-06
4.1709e-08
6.41768e-06
4.0479e-08
6.42089e-06
3.91952e-08
6.42401e-06
3.79096e-08
6.42708e-06
3.66439e-08
6.43015e-06
3.53885e-08
6.43327e-06
3.41072e-08
6.43644e-06
3.27384e-08
3.1231e-08
6.43962e-06
5.74175e-06
7.11721e-09
5.74433e-06
1.98679e-08
5.74782e-06
2.91135e-08
5.75154e-06
3.47305e-08
5.75529e-06
3.79497e-08
5.75901e-06
3.97077e-08
5.76261e-06
4.03639e-08
5.76605e-06
4.02039e-08
5.76932e-06
3.95402e-08
5.77243e-06
3.85968e-08
5.77541e-06
3.74992e-08
5.77828e-06
3.63224e-08
5.78108e-06
3.51136e-08
5.78383e-06
3.38926e-08
5.78656e-06
3.26531e-08
5.7893e-06
3.13691e-08
5.79204e-06
2.99977e-08
2.85171e-08
5.79476e-06
6.99913e-06
6.14111e-09
7.00186e-06
1.7138e-08
7.00564e-06
2.53326e-08
7.0098e-06
3.05731e-08
7.01407e-06
3.36812e-08
7.01835e-06
3.54224e-08
7.02255e-06
3.61628e-08
7.0266e-06
3.6156e-08
7.03048e-06
3.56603e-08
7.03421e-06
3.48739e-08
7.03779e-06
3.39157e-08
7.04126e-06
3.28557e-08
7.04463e-06
3.17366e-08
7.04795e-06
3.05782e-08
7.05122e-06
2.93795e-08
7.05446e-06
2.8126e-08
7.05767e-06
2.67928e-08
2.53801e-08
7.06081e-06
8.53188e-06
5.11148e-09
8.53473e-06
1.42856e-08
8.53877e-06
2.12918e-08
8.54336e-06
2.59819e-08
8.54818e-06
2.8867e-08
8.55307e-06
3.05281e-08
8.55793e-06
3.13051e-08
8.56266e-06
3.14196e-08
8.56725e-06
3.10776e-08
8.57167e-06
3.04459e-08
8.57596e-06
2.96319e-08
8.58011e-06
2.86997e-08
8.58416e-06
2.76884e-08
8.58812e-06
2.66183e-08
8.59201e-06
2.54949e-08
8.59582e-06
2.43145e-08
8.59954e-06
2.30668e-08
2.17672e-08
8.60316e-06
1.04003e-05
4.03877e-09
1.04032e-05
1.1328e-08
1.04075e-05
1.70089e-08
1.04126e-05
2.09623e-08
1.04179e-05
2.34842e-08
1.04235e-05
2.4978e-08
1.04291e-05
2.57257e-08
1.04346e-05
2.59132e-08
1.04399e-05
2.56983e-08
1.04452e-05
2.52121e-08
1.04503e-05
2.45452e-08
1.04552e-05
2.37542e-08
1.046e-05
2.28743e-08
1.04647e-05
2.19264e-08
1.04693e-05
2.09211e-08
1.04737e-05
1.98633e-08
1.04781e-05
1.87528e-08
1.76131e-08
1.04822e-05
1.26779e-05
2.92839e-09
1.2681e-05
8.25631e-09
1.26855e-05
1.24746e-08
1.2691e-05
1.55017e-08
1.2697e-05
1.74964e-08
1.27032e-05
1.87101e-08
1.27096e-05
1.93458e-08
1.2716e-05
1.95445e-08
1.27223e-05
1.94189e-08
1.27284e-05
1.90628e-08
1.27344e-05
1.85453e-08
1.27402e-05
1.79122e-08
1.27459e-05
1.71932e-08
1.27514e-05
1.64081e-08
1.27568e-05
1.55698e-08
1.2762e-05
1.46881e-08
1.2767e-05
1.37681e-08
1.28357e-08
1.27717e-05
1.54543e-05
1.76895e-09
1.54576e-05
5.01877e-09
1.54624e-05
7.62034e-09
1.54684e-05
9.52828e-09
1.54751e-05
1.08177e-08
1.54822e-05
1.1619e-08
1.54895e-05
1.20477e-08
1.54968e-05
1.2189e-08
1.55041e-05
1.21102e-08
1.55113e-05
1.18676e-08
1.55184e-05
1.15042e-08
1.55252e-05
1.10507e-08
1.55319e-05
1.0528e-08
1.55384e-05
9.95169e-09
1.55446e-05
9.33336e-09
1.55506e-05
8.68305e-09
1.55564e-05
8.0072e-09
7.32981e-09
1.55619e-05
1.88389e-05
5.18579e-10
1.88424e-05
1.48315e-09
1.88478e-05
2.25822e-09
1.88545e-05
2.83423e-09
1.88621e-05
3.23361e-09
1.88702e-05
3.48614e-09
1.88786e-05
3.61455e-09
1.88872e-05
3.63759e-09
1.88957e-05
3.57343e-09
1.89041e-05
3.43821e-09
1.89124e-05
3.24478e-09
1.89205e-05
3.00314e-09
1.89283e-05
2.72157e-09
1.89358e-05
2.40723e-09
1.89431e-05
2.06655e-09
1.895e-05
1.70609e-09
1.89567e-05
1.33016e-09
9.57843e-10
1.89631e-05
2.29648e-05
-9.30345e-10
2.29689e-05
-2.65349e-09
2.29752e-05
-4.05104e-09
2.29831e-05
-5.07942e-09
2.29921e-05
-5.75485e-09
2.30018e-05
-6.16373e-09
2.30118e-05
-6.39921e-09
2.3022e-05
-6.51996e-09
2.30321e-05
-6.5628e-09
2.30421e-05
-6.55904e-09
2.30519e-05
-6.53405e-09
2.30614e-05
-6.50405e-09
2.30706e-05
-6.47795e-09
2.30794e-05
-6.46046e-09
2.3088e-05
-6.45369e-09
2.30961e-05
-6.4574e-09
2.31039e-05
-6.4715e-09
-6.48373e-09
2.31114e-05
1.68119e-05
-2.07753e-09
1.68151e-05
-5.8931e-09
1.682e-05
-8.98697e-09
1.68262e-05
-1.12143e-08
1.6833e-05
-1.26233e-08
1.68403e-05
-1.34481e-08
1.68478e-05
-1.38924e-08
1.68554e-05
-1.40645e-08
1.68628e-05
-1.40392e-08
1.68702e-05
-1.38872e-08
1.68773e-05
-1.36636e-08
1.68842e-05
-1.34027e-08
1.68908e-05
-1.31251e-08
1.68972e-05
-1.28442e-08
1.69033e-05
-1.25682e-08
1.69092e-05
-1.2301e-08
1.69147e-05
-1.20452e-08
-1.17926e-08
1.69201e-05
1.46357e-05
-3.18824e-09
1.46388e-05
-9.0576e-09
1.46437e-05
-1.38193e-08
1.46496e-05
-1.71073e-08
1.4656e-05
-1.90675e-08
1.46627e-05
-2.01743e-08
1.46696e-05
-2.073e-08
1.46764e-05
-2.08686e-08
1.46831e-05
-2.07102e-08
1.46895e-05
-2.03709e-08
1.46958e-05
-1.99301e-08
1.47018e-05
-1.94332e-08
1.47076e-05
-1.89091e-08
1.47132e-05
-1.83779e-08
1.47184e-05
-1.78524e-08
1.47235e-05
-1.73394e-08
1.47283e-05
-1.68428e-08
-1.63572e-08
1.47328e-05
1.27412e-05
-4.23831e-09
1.27444e-05
-1.22732e-08
1.27494e-05
-1.87848e-08
1.27552e-05
-2.2912e-08
1.27613e-05
-2.51943e-08
1.27676e-05
-2.64764e-08
1.27739e-05
-2.70626e-08
1.27801e-05
-2.70795e-08
1.27861e-05
-2.67189e-08
1.27919e-05
-2.61522e-08
1.27975e-05
-2.54742e-08
1.28028e-05
-2.47348e-08
1.28078e-05
-2.39681e-08
1.28127e-05
-2.31989e-08
1.28172e-05
-2.24423e-08
1.28216e-05
-2.17056e-08
1.28258e-05
-2.0993e-08
-2.03004e-08
1.28297e-05
1.10918e-05
-5.11717e-09
1.10951e-05
-1.55997e-08
1.11004e-05
-2.40872e-08
1.11062e-05
-2.87027e-08
1.11121e-05
-3.10465e-08
1.1118e-05
-3.24082e-08
1.11239e-05
-3.29358e-08
1.11296e-05
-3.27484e-08
1.1135e-05
-3.21378e-08
1.11401e-05
-3.13202e-08
1.11451e-05
-3.0393e-08
1.11497e-05
-2.94076e-08
1.11542e-05
-2.84034e-08
1.11584e-05
-2.74081e-08
1.11624e-05
-2.64367e-08
1.11662e-05
-2.54959e-08
1.11698e-05
-2.4589e-08
-2.37124e-08
1.11732e-05
9.65583e-06
-5.73261e-09
9.65936e-06
-1.91277e-08
9.66497e-06
-2.96942e-08
9.67066e-06
-3.43936e-08
9.6763e-06
-3.66947e-08
9.68195e-06
-3.80545e-08
9.6874e-06
-3.83819e-08
9.69254e-06
-3.78964e-08
9.69741e-06
-3.70055e-08
9.70202e-06
-3.59316e-08
9.70639e-06
-3.47547e-08
9.7105e-06
-3.3526e-08
9.71439e-06
-3.22905e-08
9.71806e-06
-3.10776e-08
9.72152e-06
-2.99013e-08
9.7248e-06
-2.87678e-08
9.72789e-06
-2.76781e-08
-2.66274e-08
9.7308e-06
8.40543e-06
-5.81383e-09
8.40981e-06
-2.35054e-08
8.41532e-06
-3.5202e-08
8.42052e-06
-3.95898e-08
8.42595e-06
-4.21321e-08
8.43143e-06
-4.35341e-08
8.43659e-06
-4.35416e-08
8.44136e-06
-4.26662e-08
8.4458e-06
-4.1444e-08
8.44994e-06
-4.00751e-08
8.45381e-06
-3.86168e-08
8.4574e-06
-3.71212e-08
8.46075e-06
-3.56361e-08
8.46386e-06
-3.41904e-08
8.46676e-06
-3.27979e-08
8.46945e-06
-3.14644e-08
8.47197e-06
-3.01908e-08
-2.89729e-08
8.47431e-06
7.31506e-06
-3.58779e-09
7.32195e-06
-3.03927e-08
7.3274e-06
-4.06554e-08
7.33217e-06
-4.43624e-08
7.33749e-06
-4.74494e-08
7.34287e-06
-4.89144e-08
7.34784e-06
-4.85101e-08
7.35233e-06
-4.71547e-08
7.35638e-06
-4.54954e-08
7.36001e-06
-4.37104e-08
7.36326e-06
-4.18591e-08
7.36614e-06
-4.00045e-08
7.3687e-06
-3.81963e-08
7.37097e-06
-3.64606e-08
7.37298e-06
-3.4809e-08
7.37476e-06
-3.32459e-08
7.37634e-06
-3.17687e-08
-3.0371e-08
7.37774e-06
6.36222e-06
4.2568e-09
6.37295e-06
-4.11191e-08
6.38008e-06
-4.77844e-08
6.38626e-06
-5.05454e-08
6.39223e-06
-5.34219e-08
6.39752e-06
-5.42054e-08
6.40189e-06
-5.28727e-08
6.40547e-06
-5.07355e-08
6.40838e-06
-4.84078e-08
6.41067e-06
-4.60019e-08
6.4124e-06
-4.35855e-08
6.41363e-06
-4.12361e-08
6.41443e-06
-3.90025e-08
6.41488e-06
-3.69042e-08
6.41502e-06
-3.49478e-08
6.41491e-06
-3.31345e-08
6.41459e-06
-3.14559e-08
-2.98917e-08
6.41411e-06
5.53608e-06
1.3641e-08
5.54776e-06
-5.27941e-08
5.55744e-06
-5.74725e-08
5.56601e-06
-5.91163e-08
5.57278e-06
-6.0191e-08
5.57721e-06
-5.86285e-08
5.57936e-06
-5.50217e-08
5.57979e-06
-5.11724e-08
5.57894e-06
-4.75553e-08
5.57708e-06
-4.41419e-08
5.57443e-06
-4.09397e-08
5.57118e-06
-3.79863e-08
5.56748e-06
-3.52955e-08
5.56343e-06
-3.28586e-08
5.55915e-06
-3.06615e-08
5.55471e-06
-2.87009e-08
5.55022e-06
-2.6968e-08
-2.54017e-08
5.54573e-06
4.85751e-06
-1.62595e-08
4.86091e-06
-5.61962e-08
4.8615e-06
-5.80664e-08
4.85884e-06
-5.64501e-08
4.85483e-06
-5.61858e-08
4.84814e-06
-5.19356e-08
4.83889e-06
-4.57711e-08
4.82764e-06
-3.99244e-08
4.81504e-06
-3.49495e-08
4.80166e-06
-3.0769e-08
4.78797e-06
-2.72471e-08
4.77426e-06
-2.42805e-08
4.76075e-06
-2.17786e-08
4.74755e-06
-1.96621e-08
4.73476e-06
-1.7868e-08
4.72244e-06
-1.63866e-08
4.71072e-06
-1.52442e-08
-1.4934e-08
4.70025e-06
4.18642e-06
4.13022e-06
4.07215e-06
4.0157e-06
3.95952e-06
3.90758e-06
3.86181e-06
3.82189e-06
3.78694e-06
3.75617e-06
3.72892e-06
3.70464e-06
3.68286e-06
3.6632e-06
3.64533e-06
3.62895e-06
3.6137e-06
3.59877e-06
1.17124e-08
-1.17124e-08
2.32709e-08
-1.15585e-08
3.01635e-08
-6.89261e-09
3.14227e-08
-1.25918e-09
2.7315e-08
4.10768e-09
1.87108e-08
8.60426e-09
6.63926e-09
1.20715e-08
-7.97213e-09
1.46114e-08
-2.44338e-08
1.64616e-08
-4.22877e-08
1.78539e-08
-6.12484e-08
1.89608e-08
-8.11476e-08
1.98992e-08
-1.01886e-07
2.07384e-08
-1.23401e-07
2.15154e-08
-1.45649e-07
2.22476e-08
-1.6859e-07
2.29411e-08
-1.92187e-07
2.35969e-08
-2.16401e-07
2.42138e-08
-2.41191e-07
2.479e-08
-2.66515e-07
2.53245e-08
-2.92331e-07
2.58161e-08
-3.18594e-07
2.62631e-08
-3.45262e-07
2.66672e-08
-3.72311e-07
2.70489e-08
-3.99779e-07
2.74687e-08
-4.27796e-07
2.80162e-08
-4.5649e-07
2.86946e-08
-4.85745e-07
2.92544e-08
-5.15113e-07
2.93679e-08
-5.4446e-07
2.93472e-08
-5.7467e-07
3.02101e-08
-6.0632e-07
3.16499e-08
-6.38018e-07
3.16981e-08
-6.69631e-07
3.16133e-08
-7.04101e-07
3.44704e-08
-7.40525e-07
3.64239e-08
-7.7445e-07
3.3925e-08
-8.13517e-07
3.90668e-08
-8.54119e-07
4.06013e-08
-8.94327e-07
4.02087e-08
-9.35813e-07
4.14859e-08
-9.72623e-07
3.68094e-08
-1.00965e-06
3.70297e-08
-1.04895e-06
3.92951e-08
-1.08934e-06
4.03903e-08
-1.13044e-06
4.1098e-08
-1.17198e-06
4.1544e-08
-1.21381e-06
4.18254e-08
-1.2558e-06
4.19989e-08
-1.2979e-06
4.20983e-08
-1.34005e-06
4.21433e-08
-1.38219e-06
4.21459e-08
-1.4243e-06
4.21128e-08
-1.46635e-06
4.2048e-08
-1.50831e-06
4.19531e-08
-1.55013e-06
4.18288e-08
-1.59181e-06
4.16748e-08
-1.6333e-06
4.14904e-08
-1.67457e-06
4.12746e-08
-1.7156e-06
4.10261e-08
-1.75634e-06
4.07437e-08
-1.79677e-06
4.0426e-08
-1.83684e-06
4.00719e-08
-1.87652e-06
3.96802e-08
-1.91577e-06
3.92497e-08
-1.95455e-06
3.87796e-08
-1.99282e-06
3.82691e-08
-2.03054e-06
3.77174e-08
-2.06766e-06
3.71241e-08
-2.10415e-06
3.64888e-08
-2.13996e-06
3.58114e-08
-2.17505e-06
3.50917e-08
-2.20938e-06
3.43298e-08
-2.24291e-06
3.3526e-08
-2.27559e-06
3.26805e-08
-2.30738e-06
3.17939e-08
-2.33825e-06
3.08666e-08
-2.36815e-06
2.98994e-08
-2.39704e-06
2.88929e-08
-2.42489e-06
2.78479e-08
-2.45166e-06
2.67651e-08
-2.4773e-06
2.56454e-08
-2.50179e-06
2.44895e-08
-2.52509e-06
2.32981e-08
-2.54716e-06
2.20717e-08
-2.56797e-06
2.08107e-08
-2.58749e-06
1.95152e-08
-2.60567e-06
1.8185e-08
-2.62249e-06
1.68194e-08
-2.63791e-06
1.54172e-08
-2.65188e-06
1.39761e-08
-2.66438e-06
1.2493e-08
-2.67534e-06
1.0963e-08
-2.68472e-06
9.3783e-09
-2.69245e-06
7.72884e-09
-2.69845e-06
5.99918e-09
-2.70262e-06
4.17478e-09
-2.70488e-06
2.25918e-09
-2.70504e-06
1.60326e-10
-2.70351e-06
-1.53304e-09
-2.70037e-06
-3.13432e-09
-2.69568e-06
-4.69398e-09
-2.68944e-06
-6.24014e-09
-2.68165e-06
-7.78979e-09
-2.6723e-06
-9.34656e-09
-2.66139e-06
-1.09108e-08
-2.64891e-06
-1.2481e-08
-2.63486e-06
-1.40555e-08
-2.61922e-06
-1.56321e-08
-2.60202e-06
-1.72087e-08
-2.58323e-06
-1.87832e-08
-2.56288e-06
-2.03535e-08
-2.54096e-06
-2.19174e-08
-2.51749e-06
-2.34728e-08
-2.49247e-06
-2.50176e-08
-2.46592e-06
-2.65496e-08
-2.43785e-06
-2.80667e-08
-2.40829e-06
-2.9567e-08
-2.37724e-06
-3.10481e-08
-2.34473e-06
-3.25081e-08
-2.31079e-06
-3.39449e-08
-2.27543e-06
-3.53567e-08
-2.23869e-06
-3.67414e-08
-2.20059e-06
-3.80974e-08
-2.16117e-06
-3.94226e-08
-2.12045e-06
-4.07155e-08
-2.07848e-06
-4.19742e-08
-2.03528e-06
-4.31971e-08
-1.9909e-06
-4.43825e-08
-1.94537e-06
-4.55289e-08
-1.89873e-06
-4.66348e-08
-1.85104e-06
-4.76991e-08
-1.80232e-06
-4.87204e-08
-1.75262e-06
-4.96977e-08
-1.70199e-06
-5.063e-08
-1.65047e-06
-5.15163e-08
-1.59812e-06
-5.23556e-08
-1.54497e-06
-5.31475e-08
-1.49108e-06
-5.38913e-08
-1.43649e-06
-5.45869e-08
-1.38126e-06
-5.52339e-08
-1.32542e-06
-5.58321e-08
-1.26904e-06
-5.63816e-08
-1.21216e-06
-5.68827e-08
-1.15482e-06
-5.73358e-08
-1.09708e-06
-5.77415e-08
-1.03898e-06
-5.81002e-08
-9.80569e-07
-5.8413e-08
-9.21888e-07
-5.86809e-08
-8.62983e-07
-5.89052e-08
-8.03896e-07
-5.90871e-08
-7.44668e-07
-5.92281e-08
-6.85338e-07
-5.93299e-08
-6.25944e-07
-5.93942e-08
-5.66521e-07
-5.94228e-08
-5.07104e-07
-5.94175e-08
-4.47724e-07
-5.938e-08
-3.88412e-07
-5.93114e-08
-3.29199e-07
-5.92126e-08
-2.70115e-07
-5.90843e-08
-2.11192e-07
-5.89235e-08
-1.52463e-07
-5.87284e-08
-9.39629e-08
-5.85004e-08
-3.57314e-08
-5.82315e-08
2.21913e-08
-5.79227e-08
7.97632e-08
-5.75719e-08
1.36981e-07
-5.72179e-08
1.93865e-07
-5.68836e-08
2.50436e-07
-5.65709e-08
3.067e-07
-5.62642e-08
3.62645e-07
-5.5945e-08
4.18233e-07
-5.55883e-08
4.73388e-07
-5.51549e-08
5.27965e-07
-5.45767e-08
5.81685e-07
-5.37204e-08
6.34e-07
-5.23149e-08
6.83659e-07
-4.96588e-08
7.27734e-07
-4.40756e-08
7.58288e-07
-3.05539e-08
1.07372e-08
7.47551e-07
6.99407e-09
-1.87065e-08
7.78576e-09
-1.23502e-08
4.16713e-09
-3.27398e-09
-2.46083e-09
5.36878e-09
-1.16015e-08
1.32483e-08
-2.31351e-08
2.01379e-08
-3.69853e-08
2.59217e-08
-5.30047e-08
3.06308e-08
-7.096e-08
3.4417e-08
-9.05897e-08
3.74836e-08
-1.11654e-07
4.00247e-08
-1.33953e-07
4.21987e-08
-1.57336e-07
4.41213e-08
-1.81691e-07
4.58707e-08
-2.0694e-07
4.74966e-08
-2.33029e-07
4.90296e-08
-2.5992e-07
5.04882e-08
-2.87592e-07
5.18852e-08
-3.16032e-07
5.32303e-08
-3.4524e-07
5.45328e-08
-3.75227e-07
5.58028e-08
-4.06016e-07
5.7052e-08
-4.37647e-07
5.82984e-08
-4.70173e-07
5.95745e-08
-5.03635e-07
6.09316e-08
-5.38038e-07
6.2419e-08
-5.73359e-07
6.40159e-08
-6.09678e-07
6.55726e-08
-6.47242e-07
6.69321e-08
-6.86124e-07
6.82294e-08
-7.25748e-07
6.98345e-08
-7.65761e-07
7.16626e-08
-8.0722e-07
7.31574e-08
-8.50125e-07
7.45179e-08
-8.91966e-07
7.63113e-08
-9.33409e-07
7.78665e-08
-9.77999e-07
7.85153e-08
-1.01889e-06
7.99565e-08
-1.0595e-06
8.12157e-08
-1.10068e-06
8.13822e-08
-1.14075e-06
8.15588e-08
-1.18439e-06
8.04544e-08
-1.22745e-06
8.00819e-08
-1.26854e-06
8.0392e-08
-1.30881e-06
8.06534e-08
-1.34853e-06
8.08192e-08
-1.38787e-06
8.08911e-08
-1.42693e-06
8.08777e-08
-1.46572e-06
8.07915e-08
-1.50426e-06
8.06422e-08
-1.54256e-06
8.04373e-08
-1.58059e-06
8.01815e-08
-1.61836e-06
7.98771e-08
-1.65583e-06
7.9525e-08
-1.69301e-06
7.91247e-08
-1.72985e-06
7.8675e-08
-1.76635e-06
7.81739e-08
-1.80248e-06
7.76194e-08
-1.83821e-06
7.7009e-08
-1.87353e-06
7.63403e-08
-1.9084e-06
7.56109e-08
-1.94279e-06
7.48186e-08
-1.97668e-06
7.39611e-08
-2.01003e-06
7.30365e-08
-2.04283e-06
7.20431e-08
-2.07503e-06
7.09795e-08
-2.1066e-06
6.98443e-08
-2.13752e-06
6.86365e-08
-2.16775e-06
6.73555e-08
-2.19726e-06
6.60007e-08
-2.22603e-06
6.45719e-08
-2.254e-06
6.30691e-08
-2.28117e-06
6.14925e-08
-2.30748e-06
5.98425e-08
-2.33292e-06
5.81199e-08
-2.35745e-06
5.63253e-08
-2.38105e-06
5.44597e-08
-2.40367e-06
5.25242e-08
-2.4253e-06
5.05201e-08
-2.4459e-06
4.84486e-08
-2.46544e-06
4.6311e-08
-2.48391e-06
4.41086e-08
-2.50126e-06
4.18428e-08
-2.51748e-06
3.95146e-08
-2.53253e-06
3.71253e-08
-2.5464e-06
3.46756e-08
-2.55905e-06
3.21663e-08
-2.57046e-06
2.95978e-08
-2.58061e-06
2.69701e-08
-2.58948e-06
2.42829e-08
-2.59704e-06
2.15357e-08
-2.60327e-06
1.87277e-08
-2.60817e-06
1.58583e-08
-2.61172e-06
1.29275e-08
-2.61392e-06
9.9369e-09
-2.61482e-06
6.89208e-09
-2.61445e-06
3.80707e-09
-2.61293e-06
7.37382e-10
-2.61041e-06
-2.35696e-09
-2.6066e-06
-5.3443e-09
-2.60139e-06
-8.34654e-09
-2.59471e-06
-1.13741e-08
-2.58652e-06
-1.44229e-08
-2.57682e-06
-1.74927e-08
-2.56558e-06
-2.05817e-08
-2.55281e-06
-2.36868e-08
-2.53849e-06
-2.68043e-08
-2.52261e-06
-2.99302e-08
-2.50518e-06
-3.30602e-08
-2.4862e-06
-3.61901e-08
-2.46567e-06
-3.93156e-08
-2.44359e-06
-4.24325e-08
-2.41997e-06
-4.55365e-08
-2.39482e-06
-4.86234e-08
-2.36815e-06
-5.1689e-08
-2.33997e-06
-5.47292e-08
-2.3103e-06
-5.77397e-08
-2.27915e-06
-6.07163e-08
-2.24654e-06
-6.36549e-08
-2.2125e-06
-6.65514e-08
-2.17704e-06
-6.94017e-08
-2.14019e-06
-7.22019e-08
-2.10199e-06
-7.49483e-08
-2.06245e-06
-7.76371e-08
-2.02161e-06
-8.02648e-08
-1.97949e-06
-8.28279e-08
-1.93614e-06
-8.5323e-08
-1.8916e-06
-8.77468e-08
-1.84588e-06
-9.00958e-08
-1.79904e-06
-9.23671e-08
-1.75112e-06
-9.45578e-08
-1.70215e-06
-9.66653e-08
-1.65219e-06
-9.86873e-08
-1.60126e-06
-1.00622e-07
-1.54943e-06
-1.02466e-07
-1.49672e-06
-1.04219e-07
-1.4432e-06
-1.05879e-07
-1.38891e-06
-1.07443e-07
-1.33388e-06
-1.08913e-07
-1.27819e-06
-1.10286e-07
-1.22186e-06
-1.11562e-07
-1.16495e-06
-1.12741e-07
-1.10751e-06
-1.13823e-07
-1.04958e-06
-1.14808e-07
-9.9122e-07
-1.15698e-07
-9.32468e-07
-1.16494e-07
-8.73372e-07
-1.17196e-07
-8.13979e-07
-1.17806e-07
-7.54333e-07
-1.18327e-07
-6.94477e-07
-1.18761e-07
-6.34453e-07
-1.19111e-07
-5.74301e-07
-1.1938e-07
-5.14061e-07
-1.1957e-07
-4.53769e-07
-1.19686e-07
-3.93461e-07
-1.19731e-07
-3.3317e-07
-1.19709e-07
-2.72927e-07
-1.19623e-07
-2.12763e-07
-1.19476e-07
-1.52706e-07
-1.19269e-07
-9.27849e-08
-1.19006e-07
-3.30248e-08
-1.18684e-07
2.65458e-08
-1.18299e-07
8.58981e-08
-1.17853e-07
1.4501e-07
-1.17344e-07
2.03869e-07
-1.16782e-07
2.62477e-07
-1.1618e-07
3.20829e-07
-1.1557e-07
3.78921e-07
-1.14976e-07
4.36748e-07
-1.14398e-07
4.943e-07
-1.13816e-07
5.51554e-07
-1.13199e-07
6.08465e-07
-1.125e-07
6.64951e-07
-1.1164e-07
7.20858e-07
-1.10484e-07
7.75909e-07
-1.08772e-07
8.29596e-07
-1.06002e-07
8.80926e-07
-1.00989e-07
9.28243e-07
-9.13924e-08
9.68231e-07
-7.05418e-08
-2.19815e-08
1.00095e-06
-1.97786e-09
-1.67286e-08
-9.34735e-09
-4.98068e-09
-1.91364e-08
6.51507e-09
-3.05233e-08
1.67557e-08
-4.32668e-08
2.59918e-08
-5.73667e-08
3.42378e-08
-7.29108e-08
4.14658e-08
-8.99725e-08
4.76925e-08
-1.08558e-07
5.30023e-08
-1.28605e-07
5.75303e-08
-1.5001e-07
6.143e-08
-1.72658e-07
6.48465e-08
-1.96439e-07
6.79024e-08
-2.21261e-07
7.06929e-08
-2.47052e-07
7.32879e-08
-2.7376e-07
7.57376e-08
-3.0135e-07
7.80777e-08
-3.29799e-07
8.03349e-08
-3.591e-07
8.25304e-08
-3.89249e-07
8.46824e-08
-4.20254e-07
8.68077e-08
-4.52125e-07
8.89229e-08
-4.84874e-07
9.10471e-08
-5.18503e-07
9.32038e-08
-5.52988e-07
9.54167e-08
-5.88263e-07
9.76937e-08
-6.24245e-07
9.99977e-08
-6.60911e-07
1.02239e-07
-6.98313e-07
1.04334e-07
-7.36384e-07
1.063e-07
-7.74764e-07
1.08215e-07
-8.13159e-07
1.10057e-07
-8.51707e-07
1.11705e-07
-8.90346e-07
1.13157e-07
-9.28511e-07
1.14476e-07
-9.66209e-07
1.15564e-07
-1.00407e-06
1.16379e-07
-1.04113e-06
1.17014e-07
-1.07738e-06
1.17462e-07
-1.11351e-06
1.17517e-07
-1.14927e-06
1.17318e-07
-1.18571e-06
1.16889e-07
-1.22215e-06
1.16522e-07
-1.25806e-06
1.16303e-07
-1.29353e-06
1.16125e-07
-1.32865e-06
1.15943e-07
-1.3635e-06
1.15734e-07
-1.3981e-06
1.15483e-07
-1.43249e-06
1.15184e-07
-1.46669e-06
1.14835e-07
-1.50068e-06
1.14433e-07
-1.53447e-06
1.13976e-07
-1.56806e-06
1.13462e-07
-1.60142e-06
1.12888e-07
-1.63455e-06
1.12252e-07
-1.66742e-06
1.11548e-07
-1.70002e-06
1.10774e-07
-1.73233e-06
1.09926e-07
-1.76432e-06
1.09e-07
-1.79597e-06
1.07991e-07
-1.82726e-06
1.06897e-07
-1.85816e-06
1.05714e-07
-1.88863e-06
1.04439e-07
-1.91867e-06
1.03069e-07
-1.94822e-06
1.01601e-07
-1.97728e-06
1.00033e-07
-2.00579e-06
9.83632e-08
-2.03375e-06
9.65905e-08
-2.06111e-06
9.47135e-08
-2.08784e-06
9.27313e-08
-2.11391e-06
9.06436e-08
-2.13929e-06
8.84501e-08
-2.16395e-06
8.61511e-08
-2.18785e-06
8.3747e-08
-2.21097e-06
8.12387e-08
-2.23327e-06
7.86271e-08
-2.25473e-06
7.59135e-08
-2.2753e-06
7.30993e-08
-2.29497e-06
7.01863e-08
-2.3137e-06
6.7176e-08
-2.33146e-06
6.40704e-08
-2.34822e-06
6.08715e-08
-2.36396e-06
5.75812e-08
-2.37864e-06
5.42013e-08
-2.39225e-06
5.07339e-08
-2.40476e-06
4.71806e-08
-2.41613e-06
4.35432e-08
-2.42636e-06
3.98231e-08
-2.43541e-06
3.60219e-08
-2.44327e-06
3.21409e-08
-2.44992e-06
2.81819e-08
-2.45533e-06
2.41467e-08
-2.45951e-06
2.00386e-08
-2.46245e-06
1.58621e-08
-2.46414e-06
1.16239e-08
-2.46458e-06
7.33465e-09
-2.46378e-06
3.01021e-09
-2.46172e-06
-1.32943e-09
-2.45839e-06
-5.68498e-09
-2.45368e-06
-1.00564e-08
-2.44755e-06
-1.44722e-08
-2.43999e-06
-1.89343e-08
-2.43097e-06
-2.34389e-08
-2.42049e-06
-2.79805e-08
-2.40851e-06
-3.25532e-08
-2.39505e-06
-3.71511e-08
-2.38009e-06
-4.1768e-08
-2.36362e-06
-4.63975e-08
-2.34565e-06
-5.10333e-08
-2.32617e-06
-5.5669e-08
-2.30518e-06
-6.02983e-08
-2.2827e-06
-6.49149e-08
-2.25873e-06
-6.95125e-08
-2.23326e-06
-7.40847e-08
-2.20633e-06
-7.86255e-08
-2.17793e-06
-8.31286e-08
-2.14808e-06
-8.75878e-08
-2.1168e-06
-9.19969e-08
-2.0841e-06
-9.63496e-08
-2.05002e-06
-1.0064e-07
-2.01456e-06
-1.04862e-07
-1.97775e-06
-1.09009e-07
-1.93962e-06
-1.13077e-07
-1.9002e-06
-1.1706e-07
-1.85951e-06
-1.20951e-07
-1.81759e-06
-1.24747e-07
-1.77447e-06
-1.28442e-07
-1.73019e-06
-1.32031e-07
-1.68478e-06
-1.35509e-07
-1.63827e-06
-1.38872e-07
-1.59071e-06
-1.42115e-07
-1.54214e-06
-1.45235e-07
-1.4926e-06
-1.48227e-07
-1.44214e-06
-1.5109e-07
-1.39078e-06
-1.53819e-07
-1.33859e-06
-1.56412e-07
-1.2856e-06
-1.58866e-07
-1.23187e-06
-1.61179e-07
-1.17743e-06
-1.63351e-07
-1.12234e-06
-1.65379e-07
-1.06663e-06
-1.67264e-07
-1.01037e-06
-1.69005e-07
-9.53591e-07
-1.70601e-07
-8.96345e-07
-1.72054e-07
-8.38677e-07
-1.73366e-07
-7.80635e-07
-1.74536e-07
-7.22262e-07
-1.75568e-07
-6.63604e-07
-1.76464e-07
-6.04704e-07
-1.77228e-07
-5.45603e-07
-1.77862e-07
-4.86344e-07
-1.78371e-07
-4.26964e-07
-1.78759e-07
-3.67503e-07
-1.79032e-07
-3.07995e-07
-1.79194e-07
-2.48475e-07
-1.79251e-07
-1.88975e-07
-1.79208e-07
-1.29527e-07
-1.79071e-07
-7.01571e-08
-1.78845e-07
-1.08928e-08
-1.78533e-07
4.82397e-08
-1.78138e-07
1.07216e-07
-1.7766e-07
1.66015e-07
-1.77098e-07
2.24619e-07
-1.76456e-07
2.83017e-07
-1.75742e-07
3.41216e-07
-1.7498e-07
3.99224e-07
-1.74188e-07
4.57032e-07
-1.73378e-07
5.14621e-07
-1.72565e-07
5.71975e-07
-1.71752e-07
6.29076e-07
-1.70917e-07
6.85897e-07
-1.70019e-07
7.42389e-07
-1.68992e-07
7.98469e-07
-1.67721e-07
8.53996e-07
-1.6601e-07
9.08725e-07
-1.63501e-07
9.62242e-07
-1.59519e-07
1.0139e-06
-1.52649e-07
1.06278e-06
-1.40271e-07
1.1084e-06
-1.1616e-07
-6.85606e-08
1.15498e-06
-9.36024e-09
-7.36841e-09
-2.22989e-08
7.95798e-09
-3.6401e-08
2.06172e-08
-5.12394e-08
3.15941e-08
-6.67624e-08
4.15148e-08
-8.3049e-08
5.05244e-08
-1.0023e-07
5.86465e-08
-1.18432e-07
6.5895e-08
-1.37746e-07
7.23158e-08
-1.58207e-07
7.79915e-08
-1.79806e-07
8.30292e-08
-2.02503e-07
8.75431e-08
-2.26241e-07
9.16404e-08
-2.50961e-07
9.54134e-08
-2.7661e-07
9.89366e-08
-3.03141e-07
1.02268e-07
-3.30515e-07
1.05452e-07
-3.58703e-07
1.08523e-07
-3.87679e-07
1.11506e-07
-4.17418e-07
1.14422e-07
-4.47896e-07
1.17286e-07
-4.79083e-07
1.2011e-07
-5.10938e-07
1.22903e-07
-5.43406e-07
1.25672e-07
-5.76405e-07
1.28415e-07
-6.09829e-07
1.31118e-07
-6.43573e-07
1.33741e-07
-6.77556e-07
1.36222e-07
-7.1173e-07
1.38508e-07
-7.46013e-07
1.40584e-07
-7.80259e-07
1.4246e-07
-8.14331e-07
1.44129e-07
-8.48188e-07
1.45563e-07
-8.81793e-07
1.46762e-07
-9.15065e-07
1.47749e-07
-9.48015e-07
1.48513e-07
-9.80687e-07
1.49051e-07
-1.01306e-06
1.49391e-07
-1.04512e-06
1.49522e-07
-1.07704e-06
1.49433e-07
-1.10889e-06
1.49169e-07
-1.14079e-06
1.48791e-07
-1.17268e-06
1.48407e-07
-1.20443e-06
1.48056e-07
-1.23603e-06
1.4772e-07
-1.26747e-06
1.47383e-07
-1.29876e-06
1.47028e-07
-1.32992e-06
1.46641e-07
-1.36095e-06
1.46214e-07
-1.39185e-06
1.45737e-07
-1.42262e-06
1.45206e-07
-1.45326e-06
1.44613e-07
-1.48375e-06
1.43953e-07
-1.51408e-06
1.4322e-07
-1.54424e-06
1.42408e-07
-1.5742e-06
1.41512e-07
-1.60395e-06
1.40527e-07
-1.63347e-06
1.39445e-07
-1.66274e-06
1.38263e-07
-1.69172e-06
1.36975e-07
-1.7204e-06
1.35576e-07
-1.74875e-06
1.34062e-07
-1.77673e-06
1.32427e-07
-1.80434e-06
1.3067e-07
-1.83152e-06
1.28786e-07
-1.85826e-06
1.26772e-07
-1.88452e-06
1.24626e-07
-1.91028e-06
1.22346e-07
-1.93549e-06
1.1993e-07
-1.96014e-06
1.17377e-07
-1.98418e-06
1.14687e-07
-2.00759e-06
1.11859e-07
-2.03034e-06
1.08894e-07
-2.05238e-06
1.05791e-07
-2.07369e-06
1.02553e-07
-2.09425e-06
9.91797e-08
-2.11401e-06
9.56731e-08
-2.13294e-06
9.20351e-08
-2.15102e-06
8.82678e-08
-2.16822e-06
8.43735e-08
-2.18451e-06
8.03546e-08
-2.19985e-06
7.62138e-08
-2.21422e-06
7.19537e-08
-2.2276e-06
6.75771e-08
-2.23995e-06
6.30868e-08
-2.25125e-06
5.84855e-08
-2.26149e-06
5.37759e-08
-2.27062e-06
4.89608e-08
-2.27865e-06
4.40428e-08
-2.28553e-06
3.90249e-08
-2.29126e-06
3.39103e-08
-2.29581e-06
2.87027e-08
-2.29918e-06
2.34067e-08
-2.30135e-06
1.80283e-08
-2.3023e-06
1.25749e-08
-2.30202e-06
7.05535e-09
-2.30049e-06
1.4798e-09
-2.29767e-06
-4.14372e-09
-2.29355e-06
-9.81465e-09
-2.28806e-06
-1.55407e-08
-2.2812e-06
-2.13326e-08
-2.27295e-06
-2.71879e-08
-2.26328e-06
-3.3101e-08
-2.2522e-06
-3.90642e-08
-2.23968e-06
-4.50695e-08
-2.22573e-06
-5.11084e-08
-2.21032e-06
-5.71726e-08
-2.19347e-06
-6.32537e-08
-2.17516e-06
-6.93433e-08
-2.15539e-06
-7.54329e-08
-2.13418e-06
-8.15142e-08
-2.11151e-06
-8.75789e-08
-2.08741e-06
-9.36187e-08
-2.06187e-06
-9.96253e-08
-2.0349e-06
-1.05591e-07
-2.00652e-06
-1.11506e-07
-1.97675e-06
-1.17365e-07