/*--------------------------------*- C++ -*----------------------------------*\
  =========                 |
  \\      /  F ield         | OpenFOAM: The Open Source CFD Toolbox
   \\    /   O peration     | Website:  https://openfoam.org
    \\  /    A nd           | Version:  12
     \\/     M anipulation  |
\*---------------------------------------------------------------------------*/
FoamFile
{
    format      ascii;
    class       volVectorField;
    location    "0.15";
    object      U;
}
// * * * * * * * * * * * * * * * * * * * * * * * * * * * * * * * * * * * * * //

dimensions      [0 1 -1 0 0 0 0];

internalField   nonuniform List<vector> 
12225
(
(9.86107 -0.874317 0)
(9.67247 -0.70019 0)
(9.45893 -0.387588 0)
(9.2246 -0.188472 0)
(9.00338 -0.0843866 0)
(8.81024 -0.0328669 0)
(8.6449 -0.00753908 0)
(8.50383 0.00503964 0)
(8.38356 0.0113554 0)
(8.28057 0.0144966 0)
(8.19147 0.0159986 0)
(8.11337 0.0166775 0)
(8.04388 0.0169777 0)
(7.98117 0.0171947 0)
(7.92225 0.0175224 0)
(7.86813 0.0187153 0)
(7.79764 0.0217289 0)
(7.7711 0.0309692 0)
(10.0547 0.26307 0)
(10.1201 0.360744 0)
(10.118 0.273827 0)
(10.0826 0.187097 0)
(10.0405 0.131174 0)
(9.99385 0.0969428 0)
(9.94001 0.0755778 0)
(9.88024 0.0617763 0)
(9.81762 0.0523778 0)
(9.75464 0.04557 0)
(9.69272 0.0404109 0)
(9.6327 0.0364412 0)
(9.57493 0.0334075 0)
(9.5198 0.0312976 0)
(9.46651 0.0299512 0)
(9.41758 0.0311863 0)
(9.3658 0.0324423 0)
(9.34084 0.0535379 0)
(9.99919 0.0460883 0)
(10.0244 0.0342144 0)
(10.0538 0.0149582 0)
(10.0708 0.0218238 0)
(10.0778 0.0366903 0)
(10.0782 0.0460319 0)
(10.0721 0.0499788 0)
(10.0601 0.0511779 0)
(10.0437 0.0510946 0)
(10.0243 0.0503911 0)
(10.0027 0.0494399 0)
(9.97956 0.0484893 0)
(9.95531 0.0476922 0)
(9.93038 0.0472905 0)
(9.90473 0.0473634 0)
(9.8794 0.0492928 0)
(9.85357 0.0522372 0)
(9.83355 0.0641326 0)
(9.9968 0.00642977 0)
(10.0085 0.0250243 0)
(10.0342 0.0389482 0)
(10.0528 0.0503175 0)
(10.0643 0.0571288 0)
(10.073 0.0591921 0)
(10.0789 0.0588887 0)
(10.0815 0.0579792 0)
(10.0814 0.0569859 0)
(10.0792 0.0559854 0)
(10.0754 0.055032 0)
(10.0703 0.0542149 0)
(10.0639 0.0536283 0)
(10.0566 0.053474 0)
(10.0485 0.0538943 0)
(10.0401 0.0557988 0)
(10.032 0.0588527 0)
(10.0265 0.065668 0)
(9.99922 0.00673991 0)
(10.0081 0.0335816 0)
(10.0271 0.0460568 0)
(10.0418 0.0508647 0)
(10.0524 0.0539406 0)
(10.0621 0.0555379 0)
(10.0707 0.0558949 0)
(10.0773 0.0557237 0)
(10.0821 0.0553711 0)
(10.0855 0.0549298 0)
(10.0877 0.0544757 0)
(10.089 0.0541163 0)
(10.0894 0.0539652 0)
(10.0892 0.054204 0)
(10.0884 0.0549922 0)
(10.0876 0.0568417 0)
(10.0873 0.0595677 0)
(10.0889 0.0636922 0)
(10.0002 0.00907723 0)
(10.0078 0.0321345 0)
(10.0225 0.041928 0)
(10.035 0.0456897 0)
(10.0447 0.0491582 0)
(10.0541 0.0517052 0)
(10.0629 0.0528567 0)
(10.0703 0.0532243 0)
(10.0765 0.0532839 0)
(10.0817 0.0532013 0)
(10.086 0.0530698 0)
(10.0897 0.0530002 0)
(10.0927 0.0531072 0)
(10.0953 0.0535401 0)
(10.0975 0.0544295 0)
(10.0998 0.0560292 0)
(10.1028 0.0581814 0)
(10.1071 0.0607397 0)
(10.0003 0.00880444 0)
(10.0068 0.02753 0)
(10.0189 0.0371031 0)
(10.0303 0.0417701 0)
(10.0394 0.0457012 0)
(10.0482 0.0485383 0)
(10.0565 0.0499634 0)
(10.0639 0.0505751 0)
(10.0704 0.0508602 0)
(10.0761 0.0509925 0)
(10.0812 0.0510605 0)
(10.0858 0.0511667 0)
(10.0899 0.0514161 0)
(10.0937 0.0519234 0)
(10.0973 0.0527764 0)
(10.1011 0.0540741 0)
(10.1054 0.0556543 0)
(10.1108 0.0571939 0)
(10.0004 0.00784225 0)
(10.0057 0.0237093 0)
(10.016 0.0333932 0)
(10.0264 0.0386219 0)
(10.0351 0.0425291 0)
(10.0432 0.0453371 0)
(10.0511 0.0469082 0)
(10.0583 0.0477089 0)
(10.0647 0.0481651 0)
(10.0706 0.0484515 0)
(10.0759 0.0486574 0)
(10.0809 0.0488767 0)
(10.0855 0.0492008 0)
(10.0899 0.0497125 0)
(10.0942 0.0504596 0)
(10.0987 0.0514533 0)
(10.1035 0.0525307 0)
(10.1091 0.0533764 0)
(10.0004 0.00695711 0)
(10.0049 0.0207248 0)
(10.0136 0.0300634 0)
(10.0229 0.0354415 0)
(10.0312 0.03924 0)
(10.0389 0.0420165 0)
(10.0463 0.0437259 0)
(10.0533 0.0446946 0)
(10.0596 0.0452881 0)
(10.0654 0.0456892 0)
(10.0708 0.0459913 0)
(10.0759 0.0462793 0)
(10.0807 0.0466293 0)
(10.0854 0.0470979 0)
(10.09 0.0477025 0)
(10.0948 0.0484103 0)
(10.0999 0.0490718 0)
(10.1054 0.0494404 0)
(10.0004 0.00617124 0)
(10.0042 0.0181421 0)
(10.0116 0.0268305 0)
(10.0199 0.0321851 0)
(10.0276 0.0359095 0)
(10.0349 0.0386574 0)
(10.042 0.0404622 0)
(10.0487 0.0415586 0)
(10.0548 0.0422573 0)
(10.0606 0.0427425 0)
(10.066 0.0431096 0)
(10.0711 0.0434333 0)
(10.0761 0.0437752 0)
(10.0809 0.0441721 0)
(10.0856 0.0446224 0)
(10.0905 0.045077 0)
(10.0955 0.0454101 0)
(10.1008 0.0454505 0)
(10.0003 0.00543536 0)
(10.0036 0.0158222 0)
(10.0099 0.023749 0)
(10.0173 0.0289622 0)
(10.0245 0.032597 0)
(10.0313 0.0352803 0)
(10.038 0.0371213 0)
(10.0444 0.0383012 0)
(10.0505 0.039076 0)
(10.0561 0.0396197 0)
(10.0615 0.0400266 0)
(10.0666 0.0403616 0)
(10.0716 0.0406735 0)
(10.0764 0.0409858 0)
(10.0812 0.0412874 0)
(10.086 0.0415291 0)
(10.0909 0.0416129 0)
(10.096 0.0414308 0)
(10.0003 0.00478375 0)
(10.0031 0.0138796 0)
(10.0086 0.021079 0)
(10.0152 0.0260609 0)
(10.0219 0.0295701 0)
(10.0284 0.0321605 0)
(10.0348 0.0339894 0)
(10.0409 0.0352082 0)
(10.0468 0.0360259 0)
(10.0523 0.0366011 0)
(10.0576 0.0370237 0)
(10.0627 0.0373511 0)
(10.0676 0.0376225 0)
(10.0725 0.0378538 0)
(10.0772 0.0380316 0)
(10.082 0.038114 0)
(10.0868 0.0380278 0)
(10.0916 0.0377104 0)
(10.0003 0.00417811 0)
(10.0027 0.0121149 0)
(10.0075 0.0185687 0)
(10.0134 0.0232288 0)
(10.0196 0.0265696 0)
(10.0258 0.0290431 0)
(10.0318 0.0308258 0)
(10.0377 0.0320511 0)
(10.0434 0.0328884 0)
(10.0489 0.0334766 0)
(10.0541 0.0338995 0)
(10.0591 0.0342082 0)
(10.064 0.0344345 0)
(10.0688 0.0345899 0)
(10.0735 0.0346625 0)
(10.0781 0.0346199 0)
(10.0827 0.0344097 0)
(10.0873 0.0340026 0)
(10.0003 0.00354712 0)
(10.0024 0.0102792 0)
(10.0064 0.0158807 0)
(10.0117 0.0200878 0)
(10.0174 0.0231725 0)
(10.0231 0.0254705 0)
(10.0288 0.0271553 0)
(10.0345 0.0283448 0)
(10.04 0.0291713 0)
(10.0453 0.0297493 0)
(10.0504 0.0301532 0)
(10.0553 0.0304278 0)
(10.0601 0.0305988 0)
(10.0648 0.0306753 0)
(10.0694 0.0306493 0)
(10.0739 0.0304997 0)
(10.0783 0.0301935 0)
(10.0827 0.0297265 0)
(10.0002 0.00288913 0)
(10.002 0.00837146 0)
(10.0055 0.0130247 0)
(10.0101 0.016644 0)
(10.0153 0.0193631 0)
(10.0206 0.0214081 0)
(10.026 0.0229283 0)
(10.0313 0.0240245 0)
(10.0366 0.0247959 0)
(10.0417 0.0253305 0)
(10.0466 0.0256903 0)
(10.0515 0.0259128 0)
(10.0561 0.0260193 0)
(10.0607 0.0260181 0)
(10.0652 0.0259063 0)
(10.0695 0.0256737 0)
(10.0737 0.0253032 0)
(10.0778 0.0248075 0)
(10.0002 0.00220436 0)
(10.0017 0.00639207 0)
(10.0047 0.0100055 0)
(10.0088 0.0128981 0)
(10.0134 0.0151233 0)
(10.0183 0.0168168 0)
(10.0233 0.0180893 0)
(10.0283 0.0190194 0)
(10.0333 0.019677 0)
(10.0383 0.0201247 0)
(10.0431 0.0204091 0)
(10.0477 0.0205598 0)
(10.0523 0.020594 0)
(10.0567 0.0205201 0)
(10.061 0.0203395 0)
(10.0651 0.0200508 0)
(10.0691 0.0196476 0)
(10.073 0.0191516 0)
(10.0002 0.00148956 0)
(10.0015 0.00432406 0)
(10.0041 0.00679995 0)
(10.0077 0.00882546 0)
(10.0118 0.0104157 0)
(10.0164 0.0116405 0)
(10.021 0.012567 0)
(10.0258 0.0132461 0)
(10.0306 0.0137212 0)
(10.0353 0.0140308 0)
(10.0399 0.0142049 0)
(10.0444 0.0142636 0)
(10.0488 0.0142196 0)
(10.053 0.0140801 0)
(10.0571 0.0138492 0)
(10.0611 0.0135298 0)
(10.0649 0.0131217 0)
(10.0686 0.0126492 0)
(10.0001 0.000726895 0)
(10.0013 0.00211097 0)
(10.0037 0.00332785 0)
(10.0069 0.00433678 0)
(10.0108 0.00514056 0)
(10.015 0.00576413 0)
(10.0194 0.00623267 0)
(10.024 0.0065664 0)
(10.0285 0.0067831 0)
(10.033 0.00689857 0)
(10.0375 0.00692519 0)
(10.0418 0.0068716 0)
(10.046 0.00674364 0)
(10.0501 0.00654545 0)
(10.054 0.00628029 0)
(10.0578 0.00595188 0)
(10.0614 0.00556157 0)
(10.0649 0.00513178 0)
(10.0001 -0.000130573 0)
(10.0013 -0.00038 0)
(10.0035 -0.000601126 0)
(10.0067 -0.000780901 0)
(10.0104 -0.000916411 0)
(10.0145 -0.00102123 0)
(10.0188 -0.00111442 0)
(10.0233 -0.00120977 0)
(10.0277 -0.001316 0)
(10.0321 -0.0014404 0)
(10.0364 -0.00158968 0)
(10.0406 -0.0017691 0)
(10.0447 -0.00198218 0)
(10.0486 -0.002231 0)
(10.0524 -0.00251641 0)
(10.056 -0.0028376 0)
(10.0595 -0.00319482 0)
(10.0628 -0.00357129 0)
(10.0001 -0.000955483 0)
(10.0014 -0.00278315 0)
(10.0038 -0.00439786 0)
(10.0071 -0.00571715 0)
(10.0111 -0.00673447 0)
(10.0153 -0.00751113 0)
(10.0198 -0.00811399 0)
(10.0243 -0.00858828 0)
(10.0287 -0.00896859 0)
(10.0332 -0.00928704 0)
(10.0375 -0.00957032 0)
(10.0417 -0.00983725 0)
(10.0457 -0.0101005 0)
(10.0496 -0.010369 0)
(10.0533 -0.0106488 0)
(10.0568 -0.0109431 0)
(10.0602 -0.0112548 0)
(10.0635 -0.011573 0)
(10.0002 -0.00167041 0)
(10.0015 -0.00488953 0)
(10.0042 -0.00772584 0)
(10.008 -0.00997572 0)
(10.0123 -0.0116544 0)
(10.0169 -0.0129184 0)
(10.0215 -0.0138854 0)
(10.0262 -0.0146149 0)
(10.0308 -0.015161 0)
(10.0353 -0.0155827 0)
(10.0397 -0.0159273 0)
(10.0439 -0.0162252 0)
(10.0479 -0.016496 0)
(10.0518 -0.016754 0)
(10.0555 -0.0170089 0)
(10.059 -0.0172668 0)
(10.0624 -0.0175321 0)
(10.0656 -0.0177975 0)
(10.0002 -0.00235338 0)
(10.0017 -0.0069813 0)
(10.0049 -0.011067 0)
(10.0092 -0.0141522 0)
(10.0141 -0.0163307 0)
(10.019 -0.0179399 0)
(10.024 -0.0191601 0)
(10.0289 -0.0200556 0)
(10.0337 -0.0206986 0)
(10.0384 -0.0211717 0)
(10.0428 -0.0215365 0)
(10.0471 -0.0218313 0)
(10.0512 -0.0220823 0)
(10.055 -0.022309 0)
(10.0587 -0.0225247 0)
(10.0622 -0.0227372 0)
(10.0656 -0.0229518 0)
(10.0688 -0.0231637 0)
(10.0002 -0.00298996 0)
(10.0018 -0.00909316 0)
(10.0056 -0.0144537 0)
(10.0108 -0.018286 0)
(10.0164 -0.0208927 0)
(10.0217 -0.0227741 0)
(10.027 -0.0241245 0)
(10.0322 -0.0250498 0)
(10.0373 -0.0256877 0)
(10.0421 -0.0261497 0)
(10.0466 -0.0264961 0)
(10.0509 -0.0267619 0)
(10.055 -0.026976 0)
(10.0589 -0.0271611 0)
(10.0626 -0.0273323 0)
(10.0661 -0.0274979 0)
(10.0695 -0.0276634 0)
(10.0726 -0.0278256 0)
(10.0001 -0.00356693 0)
(10.0019 -0.0115267 0)
(10.0065 -0.0179115 0)
(10.0127 -0.0220288 0)
(10.0189 -0.0250018 0)
(10.0248 -0.0272914 0)
(10.0305 -0.0288223 0)
(10.036 -0.0297238 0)
(10.0412 -0.0302729 0)
(10.0461 -0.0306476 0)
(10.0508 -0.030914 0)
(10.0551 -0.0311044 0)
(10.0593 -0.0312482 0)
(10.0632 -0.0313689 0)
(10.0669 -0.0314803 0)
(10.0704 -0.0315895 0)
(10.0737 -0.0317 0)
(10.0768 -0.0318078 0)
(9.99997 -0.00368764 0)
(10.0018 -0.015173 0)
(10.0076 -0.0226382 0)
(10.0148 -0.0259616 0)
(10.0214 -0.0285171 0)
(10.0277 -0.0309713 0)
(10.034 -0.0327414 0)
(10.04 -0.033772 0)
(10.0456 -0.0343643 0)
(10.0506 -0.0347272 0)
(10.0554 -0.0349441 0)
(10.0598 -0.0350639 0)
(10.0639 -0.0351288 0)
(10.0678 -0.0351686 0)
(10.0714 -0.0351996 0)
(10.0747 -0.0352304 0)
(10.0778 -0.0352644 0)
(10.0807 -0.0352993 0)
(9.99898 -0.00130757 0)
(9.99999 -0.0179689 0)
(10.0085 -0.0290602 0)
(10.0174 -0.0326797 0)
(10.0244 -0.0340976 0)
(10.0312 -0.0353174 0)
(10.0383 -0.0362576 0)
(10.0449 -0.0368932 0)
(10.0508 -0.0373366 0)
(10.056 -0.0376284 0)
(10.0607 -0.037783 0)
(10.0649 -0.0378366 0)
(10.0686 -0.0378304 0)
(10.0719 -0.037794 0)
(10.0748 -0.0377455 0)
(10.0774 -0.0376965 0)
(10.0797 -0.0376503 0)
(10.0817 -0.0376063 0)
(9.99528 0.00387008 0)
(9.99334 -0.0103082 0)
(10.007 -0.0270972 0)
(10.0212 -0.0389163 0)
(10.0311 -0.0448499 0)
(10.0392 -0.0464515 0)
(10.0466 -0.045963 0)
(10.053 -0.0450009 0)
(10.0581 -0.0441203 0)
(10.0621 -0.0433425 0)
(10.0653 -0.042624 0)
(10.0676 -0.0419621 0)
(10.0692 -0.041363 0)
(10.0701 -0.0408266 0)
(10.0706 -0.0403505 0)
(10.0706 -0.0399337 0)
(10.0702 -0.0395667 0)
(10.0696 -0.0392226 0)
(9.99144 -0.0172926 0)
(9.99189 0.000368049 0)
(10.01 0.0176698 0)
(10.0296 0.0115947 0)
(10.0442 -0.00509966 0)
(10.0541 -0.0188131 0)
(10.06 -0.0271571 0)
(10.0623 -0.0320318 0)
(10.0617 -0.0349109 0)
(10.0591 -0.0365139 0)
(10.055 -0.0372884 0)
(10.0496 -0.0375595 0)
(10.0433 -0.0375402 0)
(10.0363 -0.03736 0)
(10.0287 -0.0371027 0)
(10.0208 -0.0368295 0)
(10.0127 -0.0365958 0)
(10.0046 -0.0363704 0)
(10.0236 -0.206007 0)
(10.0684 -0.312337 0)
(10.0789 -0.255589 0)
(10.0704 -0.184172 0)
(10.0606 -0.134895 0)
(10.0499 -0.102718 0)
(10.0342 -0.0811562 0)
(10.013 -0.0666084 0)
(9.98784 -0.0566152 0)
(9.96062 -0.049458 0)
(9.93242 -0.0440994 0)
(9.90393 -0.0399496 0)
(9.87565 -0.0366506 0)
(9.84792 -0.0339695 0)
(9.82096 -0.0317584 0)
(9.79491 -0.0299538 0)
(9.77 -0.0285254 0)
(9.74624 -0.0277897 0)
(9.94226 0.671595 0)
(9.87996 0.567456 0)
(9.77445 0.338469 0)
(9.63239 0.183322 0)
(9.48767 0.0949093 0)
(9.35656 0.0470871 0)
(9.24101 0.0213031 0)
(9.13953 0.00708256 0)
(9.0506 -0.000975901 0)
(8.97263 -0.0056162 0)
(8.90389 -0.00830447 0)
(8.84283 -0.00986583 0)
(8.78822 -0.0107705 0)
(8.73906 -0.0112873 0)
(8.69454 -0.011577 0)
(8.65393 -0.0117644 0)
(8.61641 -0.0119433 0)
(8.58158 -0.0124746 0)
(0.00538021 -0.0123127 -3.50159e-20)
(0.0165388 -0.016425 3.43767e-20)
(0.0246502 -0.0121893 0)
(0.0284999 -0.00498898 0)
(0.0271741 0.00241513 0)
(0.0213128 0.00850654 -3.17259e-20)
(0.0119081 0.0128323 0)
(-0.000139924 0.0156077 0)
(-0.0140797 0.0173183 0)
(-0.029422 0.018409 0)
(-0.0458671 0.0191785 2.83905e-20)
(-0.06322 0.0198029 0)
(-0.0813699 0.0203707 0)
(-0.100251 0.0209175 0)
(-0.119821 0.0214509 0)
(-0.140046 0.0219661 2.52634e-20)
(-0.160892 0.0224538 0)
(-0.182327 0.0229044 0)
(-0.204318 0.0233103 0)
(-0.226827 0.0236664 0)
(-0.249818 0.0239687 0)
(-0.273254 0.0242126 0)
(-0.297096 0.0244 0)
(-0.321306 0.0245711 2.19656e-20)
(-0.345881 0.0248613 -2.16768e-20)
(-0.370916 0.0254948 2.14135e-20)
(-0.396562 0.0264978 2.11732e-20)
(-0.42279 0.0272356 0)
(-0.449317 0.0269114 0)
(-0.476007 0.0265642 -2.05569e-20)
(-0.503105 0.0289671 -2.03791e-20)
(-0.53093 0.0327179 0)
(-0.559749 0.0323033 0)
(-0.589006 0.0321996 -1.98869e-20)
(-0.618679 0.0413865 0)
(-0.649996 0.044522 0)
(-0.683509 0.0327254 2.1286e-20)
(-0.71698 0.0493309 0)
(-0.752203 0.053717 2.02738e-20)
(-0.791187 0.0520297 3.9701e-20)
(-0.826587 0.0529118 0)
(-0.86337 0.0324736 0)
(-0.897344 0.0277423 0)
(-0.932057 0.0308257 0)
(-0.968948 0.0317458 0)
(-1.00653 0.0323162 3.9697e-20)
(-1.04469 0.0326008 3.92715e-20)
(-1.08322 0.032718 3.88563e-20)
(-1.122 0.0327297 0)
(-1.16096 0.0326719 -3.80575e-20)
(-1.20004 0.032566 0)
(-1.23919 0.0324245 3.72992e-20)
(-1.27839 0.0322548 3.6934e-20)
(-1.3176 0.0320611 0)
(-1.3568 0.0318457 0)
(-1.39595 0.0316098 0)
(-1.43504 0.0313536 3.5554e-20)
(-1.47403 0.0310771 0)
(-1.51291 0.0307799 0)
(-1.55163 0.0304613 0)
(-1.59017 0.0301209 0)
(-1.6285 0.029758 0)
(-1.66659 0.0293722 0)
(-1.7044 0.0289628 0)
(-1.74189 0.0285297 0)
(-1.77904 0.0280725 -3.27698e-20)
(-1.81579 0.0275911 0)
(-1.85213 0.0270855 0)
(-1.888 0.0265558 3.18877e-20)
(-1.92337 0.0260022 3.15941e-20)
(-1.9582 0.025425 0)
(-1.99245 0.0248248 -3.10042e-20)
(-2.02608 0.024202 3.07069e-20)
(-2.05905 0.0235573 0)
(-2.09132 0.0228913 -3.0105e-20)
(-2.12286 0.0222048 0)
(-2.15361 0.0214986 0)
(-2.18355 0.0207735 2.91761e-20)
(-2.21264 0.0200305 0)
(-2.24083 0.0192703 -2.85336e-20)
(-2.2681 0.0184938 0)
(-2.2944 0.0177017 2.7868e-20)
(-2.3197 0.0168946 2.75254e-20)
(-2.34396 0.0160732 2.71757e-20)
(-2.36715 0.0152376 5.3637e-20)
(-2.38924 0.014388 -5.29066e-20)
(-2.41018 0.0135239 0)
(-2.42995 0.0126445 0)
(-2.44851 0.0117483 0)
(-2.46583 0.010833 -4.98104e-20)
(-2.48185 0.00989513 -4.89893e-20)
(-2.49656 0.00893051 4.8148e-20)
(-2.50989 0.00793415 0)
(-2.5218 0.00690013 -4.64033e-20)
(-2.53223 0.00582155 -4.54989e-20)
(-2.54111 0.00469456 -4.45729e-20)
(-2.54836 0.00352777 0)
(-2.55388 0.00235246 0)
(-2.55754 0.00121595 0)
(-2.55923 0.000173382 -4.06426e-20)
(-2.55955 -0.000702152 0)
(-2.55838 -0.00153107 0)
(-2.55577 -0.00234099 3.74197e-20)
(-2.55169 -0.00314349 0)
(-2.54615 -0.00394102 0)
(-2.53914 -0.00473408 3.39591e-20)
(-2.53063 -0.00552219 0)
(-2.52063 -0.00630464 0)
(-2.50912 -0.00708056 -3.02577e-20)
(-2.4961 -0.00784907 -2.89706e-20)
(-2.48157 -0.0086093 0)
(-2.46552 -0.00936039 2.63177e-20)
(-2.44795 -0.0101015 0)
(-2.42886 -0.0108317 -2.35615e-20)
(-2.40826 -0.0115503 0)
(-2.38616 -0.0122564 -2.07053e-20)
(-2.36255 -0.0129493 -1.92409e-20)
(-2.33746 -0.0136282 0)
(-2.31089 -0.0142923 0)
(-2.28286 -0.0149409 0)
(-2.25338 -0.0155734 0)
(-2.22247 -0.016189 0)
(-2.19015 -0.0167872 0)
(-2.15645 -0.0173674 0)
(-2.12137 -0.0179291 -6.74541e-21)
(-2.08496 -0.0184717 5.09859e-21)
(-2.04723 -0.0189946 0)
(-2.00821 -0.0194975 0)
(-1.96794 -0.0199799 0)
(-1.92644 -0.0204413 0)
(-1.88375 -0.0208814 -6.69258e-21)
(-1.83991 -0.0212999 0)
(-1.79495 -0.0216967 1.36002e-20)
(-1.7489 -0.0220714 -1.70762e-20)
(-1.7018 -0.0224239 0)
(-1.6537 -0.0227541 0)
(-1.60464 -0.0230617 0)
(-1.55465 -0.023347 3.10652e-20)
(-1.50378 -0.0236099 3.45697e-20)
(-1.45207 -0.0238505 0)
(-1.39956 -0.0240689 4.15674e-20)
(-1.3463 -0.0242654 4.5055e-20)
(-1.29233 -0.0244401 -4.85313e-20)
(-1.23769 -0.0245935 0)
(-1.18244 -0.024726 0)
(-1.1266 -0.024838 -5.88643e-20)
(-1.07023 -0.0249299 0)
(-1.01337 -0.0250023 0)
(-0.956051 -0.025056 0)
(-0.898324 -0.0250915 0)
(-0.840225 -0.0251096 7.56047e-20)
(-0.781792 -0.025111 7.88575e-20)
(-0.723064 -0.0250966 0)
(-0.664074 -0.0250673 8.52489e-20)
(-0.604857 -0.0250239 0)
(-0.545444 -0.0249672 0)
(-0.485867 -0.024898 9.45186e-20)
(-0.426155 -0.024817 0)
(-0.366334 -0.0247243 1.00464e-19)
(-0.306435 -0.0246201 0)
(-0.246485 -0.0245023 0)
(-0.186514 -0.024365 1.08996e-19)
(-0.126556 -0.024203 0)
(-0.0666371 -0.0240114 1.14411e-19)
(-0.00677905 -0.0237547 0)
(0.0528642 -0.0233879 0)
(0.112379 -0.0229916 0)
(0.171771 -0.0226189 -1.19914e-19)
(0.23105 -0.0222675 0)
(0.290231 -0.021928 1.21338e-19)
(0.349314 -0.0215919 0)
(0.408276 -0.0212495 0)
(0.467063 -0.0208867 0)
(0.525563 -0.02048 0)
(0.583588 -0.0199829 0)
(0.640615 -0.0193024 0)
(0.696215 -0.0181863 0)
(0.746194 -0.0159967 -2.49437e-19)
(0.794697 -0.010997 0)
(0.79519 0.00674392 0)
(0.00422585 -0.0333369 1.03859e-19)
(0.00781929 -0.0277399 -9.87312e-20)
(0.00588883 -0.0134869 0)
(0.00128454 0.000735056 5.87275e-20)
(-0.00565354 0.0136274 0)
(-0.0148435 0.0245022 2.73122e-20)
(-0.0261848 0.0331246 -5.30572e-20)
(-0.0395428 0.0396571 -5.164e-20)
(-0.0547357 0.0445061 0)
(-0.0715409 0.0481366 -4.90062e-20)
(-0.0897343 0.0509412 -2.39022e-20)
(-0.109121 0.0532054 0)
(-0.129549 0.0551168 0)
(-0.150905 0.0567891 0)
(-0.173108 0.0582862 0)
(-0.196101 0.0596422 -2.12815e-20)
(-0.219847 0.0608743 0)
(-0.244321 0.0619921 4.0854e-20)
(-0.269509 0.0630024 0)
(-0.295408 0.063912 0)
(-0.322024 0.0647277 -3.87722e-20)
(-0.349371 0.0654578 0)
(-0.377481 0.0661186 3.76514e-20)
(-0.4064 0.0667519 -1.86143e-20)
(-0.436176 0.0674383 1.84068e-20)
(-0.466825 0.0682661 -1.82296e-20)
(-0.498313 0.0692133 -1.80801e-20)
(-0.530686 0.0700359 0)
(-0.56419 0.0704485 0)
(-0.598934 0.0706362 1.77304e-20)
(-0.634477 0.0712785 -1.75598e-20)
(-0.670559 0.0724515 0)
(-0.707757 0.0732086 0)
(-0.746186 0.0735763 1.73985e-20)
(-0.784544 0.074379 0)
(-0.823171 0.076367 0)
(-0.862656 0.0778549 -1.72474e-20)
(-0.900571 0.0779766 0)
(-0.939074 0.0791047 1.68162e-20)
(-0.975347 0.0791536 -3.31988e-20)
(-1.01348 0.0804815 0)
(-1.05218 0.0817904 0)
(-1.09184 0.083002 -6.47603e-20)
(-1.13062 0.084085 -6.40153e-20)
(-1.16816 0.0845958 -6.33037e-20)
(-1.20511 0.0846951 3.12283e-20)
(-1.24172 0.0845283 -3.10473e-20)
(-1.27808 0.084177 -9.20078e-20)
(-1.31426 0.0836967 6.06523e-20)
(-1.35025 0.0831226 3.00932e-20)
(-1.38608 0.0824767 0)
(-1.42172 0.0817729 -2.94989e-20)
(-1.45718 0.0810196 2.90593e-20)
(-1.49244 0.0802215 0)
(-1.52749 0.0793809 0)
(-1.5623 0.0784987 0)
(-1.59686 0.0775747 -2.81293e-20)
(-1.63114 0.0766084 0)
(-1.66514 0.0755988 5.50821e-20)
(-1.69882 0.0745448 0)
(-1.73215 0.0734452 5.40904e-20)
(-1.76512 0.0722991 0)
(-1.7977 0.0711057 -5.31224e-20)
(-1.82986 0.0698643 0)
(-1.86158 0.0685746 5.2171e-20)
(-1.89281 0.0672362 -2.57776e-20)
(-1.92355 0.0658493 0)
(-1.95375 0.0644142 -5.076e-20)
(-1.98339 0.0629314 -2.52138e-20)
(-2.01244 0.0614016 -2.49771e-20)
(-2.04086 0.0598259 0)
(-2.06863 0.0582055 -2.43722e-20)
(-2.09572 0.0565416 -2.42594e-20)
(-2.1221 0.0548358 0)
(-2.14773 0.0530898 2.37703e-20)
(-2.17259 0.0513053 -4.69295e-20)
(-2.19664 0.0494843 0)
(-2.21987 0.0476286 -2.30128e-20)
(-2.24223 0.0457404 0)
(-2.2637 0.0438215 6.73681e-20)
(-2.28426 0.0418741 0)
(-2.30387 0.0398999 -6.57443e-20)
(-2.3225 0.037901 -2.16624e-20)
(-2.34014 0.035879 2.13026e-20)
(-2.35675 0.0338354 4.20317e-20)
(-2.3723 0.0317717 -4.14456e-20)
(-2.38677 0.0296888 0)
(-2.40014 0.0275875 0)
(-2.41238 0.0254681 0)
(-2.42346 0.0233302 1.17036e-19)
(-2.43336 0.0211731 3.83647e-20)
(-2.44206 0.0189949 -3.76778e-20)
(-2.44954 0.0167938 0)
(-2.45579 0.0145672 -3.62411e-20)
(-2.4608 0.0123111 3.55174e-20)
(-2.46457 0.0100211 3.47631e-20)
(-2.46715 0.00769955 0)
(-2.46861 0.00537441 0)
(-2.46905 0.00310196 0)
(-2.46858 0.000921759 3.15537e-20)
(-2.46676 -0.00114195 0)
(-2.46358 -0.00315803 -5.97573e-20)
(-2.45901 -0.00514579 -8.69323e-20)
(-2.45301 -0.00711548 5.61925e-20)
(-2.44556 -0.00906883 0)
(-2.43665 -0.0110051 2.63219e-20)
(-2.42628 -0.0129226 0)
(-2.41442 -0.0148188 4.86218e-20)
(-2.40107 -0.0166916 -2.34249e-20)
(-2.38623 -0.0185384 -2.24232e-20)
(-2.36989 -0.0203572 0)
(-2.35206 -0.0221455 -6.05828e-20)
(-2.33272 -0.0239013 3.83516e-20)
(-2.31188 -0.0256224 1.79527e-20)
(-2.28955 -0.027307 0)
(-2.26574 -0.028953 1.57329e-20)
(-2.24044 -0.0305585 4.41341e-20)
(-2.21367 -0.0321219 0)
(-2.18544 -0.0336413 2.4944e-20)
(-2.15577 -0.035115 2.26075e-20)
(-2.12466 -0.0365417 2.02449e-20)
(-2.09215 -0.0379198 0)
(-2.05824 -0.039248 0)
(-2.02296 -0.0405253 0)
(-1.98633 -0.0417504 -5.4999e-21)
(-1.94838 -0.0429225 -3.82148e-21)
(-1.90913 -0.0440405 0)
(-1.86861 -0.0451037 -3.09915e-21)
(-1.82685 -0.0461112 -5.81679e-22)
(-1.78388 -0.0470624 0)
(-1.73974 -0.0479568 4.98327e-21)
(-1.69445 -0.0487942 1.40704e-20)
(-1.64806 -0.0495744 -1.01009e-20)
(-1.6006 -0.0502974 -1.16303e-20)
(-1.55211 -0.0509631 0)
(-1.50263 -0.0515716 0)
(-1.4522 -0.0521232 0)
(-1.40085 -0.0526182 -2.29322e-20)
(-1.34864 -0.0530574 2.44019e-20)
(-1.2956 -0.0534414 5.49846e-20)
(-1.24178 -0.0537712 -3.05804e-20)
(-1.18721 -0.0540475 3.20049e-20)
(-1.13195 -0.0542714 3.56266e-20)
(-1.07603 -0.0544443 0)
(-1.01951 -0.0545676 0)
(-0.96241 -0.0546427 -4.19678e-20)
(-0.904789 -0.0546712 0)
(-0.846684 -0.0546548 0)
(-0.788136 -0.0545956 9.96015e-20)
(-0.729186 -0.0544955 0)
(-0.669873 -0.0543564 5.39822e-20)
(-0.610234 -0.0541806 -5.74057e-20)
(-0.550307 -0.0539703 0)
(-0.490126 -0.0537279 6.08796e-20)
(-0.429724 -0.0534556 0)
(-0.369133 -0.0531557 0)
(-0.308383 -0.0528301 -6.85564e-20)
(-0.247502 -0.0524805 1.4032e-19)
(-0.186516 -0.052108 -7.27772e-20)
(-0.125453 -0.0517117 0)
(-0.0643374 -0.0512901 0)
(-0.00319402 -0.0508403 7.76368e-20)
(0.0579507 -0.0503589 0)
(0.119075 -0.04985 8.00957e-20)
(0.180163 -0.0493203 0)
(0.241192 -0.0487547 0)
(0.302189 -0.0481717 0)
(0.363146 -0.0476018 8.5028e-20)
(0.424059 -0.0470497 0)
(0.484924 -0.0465068 -8.67369e-20)
(0.545727 -0.0459593 0)
(0.606438 -0.0453881 0)
(0.666999 -0.0447624 1.7704e-19)
(0.727291 -0.0440296 -1.78327e-19)
(0.78712 -0.0430875 0)
(0.846036 -0.0417381 0)
(0.903578 -0.0394681 0)
(0.957153 -0.0353005 5.49895e-19)
(1.00931 -0.0258515 0)
(1.03939 -0.00307201 -3.74063e-19)
(6.38899e-05 -0.036726 -5.39808e-23)
(-0.00448287 -0.01874 1.27358e-19)
(-0.0124087 0.00110489 0)
(-0.021697 0.0189217 -1.07228e-19)
(-0.0323942 0.0347696 0)
(-0.044334 0.0485551 0)
(-0.0575268 0.0602075 1.04364e-23)
(-0.0720506 0.0698018 4.56775e-20)
(-0.0879494 0.0775719 4.44628e-20)
(-0.105199 0.0838453 4.33625e-20)
(-0.123723 0.088963 0)
(-0.143421 0.0932253 0)
(-0.164192 0.0968684 -4.03925e-20)
(-0.185948 0.100064 -7.90289e-20)
(-0.208617 0.10293 7.73774e-20)
(-0.232145 0.105546 0)
(-0.256497 0.107965 7.43794e-20)
(-0.281647 0.110228 -3.65272e-20)
(-0.307586 0.112364 0)
(-0.334309 0.114402 7.05964e-20)
(-0.361821 0.11637 3.47704e-20)
(-0.390132 0.118298 -6.85097e-20)
(-0.419254 0.120225 -3.38098e-20)
(-0.449199 0.122203 0)
(-0.479965 0.124296 6.59835e-20)
(-0.511507 0.12654 6.52894e-20)
(-0.543742 0.128879 0)
(-0.576624 0.131148 6.40492e-20)
(-0.610212 0.133206 0)
(-0.644522 0.135137 6.28672e-20)
(-0.679286 0.137137 3.11526e-20)
(-0.714187 0.139117 0)
(-0.74922 0.14078 0)
(-0.784432 0.142206 0)
(-0.819538 0.143637 0)
(-0.854231 0.144537 0)
(-0.888857 0.144789 0)
(-0.923131 0.145182 5.78478e-20)
(-0.956729 0.145022 -8.58102e-20)
(-0.989884 0.143992 0)
(-1.02294 0.142446 0)
(-1.05629 0.140295 0)
(-1.08998 0.138641 6.85168e-23)
(-1.12343 0.137507 5.38647e-20)
(-1.15644 0.136478 1.0636e-19)
(-1.18915 0.135446 -1.05101e-19)
(-1.22162 0.134365 -5.18951e-20)
(-1.25391 0.133222 5.13824e-20)
(-1.28605 0.132016 -8.7212e-23)
(-1.31804 0.130749 5.01466e-20)
(-1.34991 0.129425 0)
(-1.38165 0.128048 4.90524e-20)
(-1.41324 0.126617 -9.34831e-23)
(-1.44469 0.125134 0)
(-1.47598 0.123598 0)
(-1.5071 0.122006 -4.70078e-20)
(-1.53803 0.120358 0)
(-1.56875 0.11865 0)
(-1.59924 0.116881 4.54768e-20)
(-1.62948 0.115048 9.02261e-20)
(-1.65945 0.11315 -4.4756e-20)
(-1.68913 0.111186 0)
(-1.71848 0.109153 4.38597e-20)
(-1.74749 0.107051 0)
(-1.77613 0.104879 4.27855e-20)
(-1.80438 0.102637 4.25437e-20)
(-1.83219 0.100326 -8.40297e-20)
(-1.85956 0.0979453 -4.14899e-20)
(-1.88644 0.0954963 0)
(-1.9128 0.0929801 8.1445e-20)
(-1.93863 0.0903982 0)
(-1.96388 0.0877524 1.19664e-19)
(-1.98853 0.0850448 7.88506e-20)
(-2.01255 0.0822777 7.79777e-20)
(-2.0359 0.0794535 -7.70986e-20)
(-2.05857 0.0765749 1.14395e-19)
(-2.08051 0.0736447 0)
(-2.10169 0.0706659 0)
(-2.1221 0.0676413 -7.34972e-20)
(-2.14169 0.0645741 -1.08918e-19)
(-2.16044 0.0614671 0)
(-2.17833 0.0583234 3.53935e-20)
(-2.19531 0.0551459 0)
(-2.21137 0.0519372 -1.03128e-19)
(-2.22648 0.0487 -8.73523e-23)
(-2.24061 0.0454366 7.85984e-23)
(-2.25374 0.0421493 6.5658e-20)
(-2.26584 0.0388398 0)
(-2.27688 0.0355101 -6.35202e-20)
(-2.28686 0.0321616 -4.10122e-23)
(-2.29573 0.028796 0)
(-2.3035 0.0254152 0)
(-2.31013 0.022022 0)
(-2.31562 0.0186206 5.77967e-20)
(-2.31997 0.0152179 0)
(-2.32316 0.0118246 0)
(-2.32521 0.00845621 0)
(-2.3261 0.00513327 0)
(-2.32581 0.00187555 0)
(-2.32431 -0.00133113 5.00919e-20)
(-2.32147 -0.00453121 0)
(-2.3173 -0.00771811 4.72094e-20)
(-2.31177 -0.0108876 4.57634e-20)
(-2.30485 -0.0140361 -4.42915e-20)
(-2.29652 -0.0171602 0)
(-2.28679 -0.0202559 -4.12707e-20)
(-2.27562 -0.0233194 0)
(-2.26302 -0.0263467 -3.81485e-20)
(-2.24897 -0.0293336 3.655e-20)
(-2.23347 -0.0322765 1.05152e-19)
(-2.21651 -0.0351716 0)
(-2.1981 -0.0380152 9.52484e-20)
(-2.17823 -0.040804 3.03569e-20)
(-2.1569 -0.0435345 0)
(-2.13412 -0.0462037 5.34178e-20)
(-2.10989 -0.0488084 4.99262e-20)
(-2.08423 -0.0513457 -6.93292e-20)
(-2.05713 -0.0538128 0)
(-2.02862 -0.0562068 -1.93263e-20)
(-1.9987 -0.0585253 -1.74963e-20)
(-1.96739 -0.0607657 -4.75563e-20)
(-1.9347 -0.062926 0)
(-1.90066 -0.065004 0)
(-1.86529 -0.066998 0)
(-1.8286 -0.0689063 -8.80499e-21)
(-1.79062 -0.0707275 0)
(-1.75138 -0.07246 0)
(-1.71091 -0.0741028 2.37752e-21)
(-1.66922 -0.0756546 4.45763e-22)
(-1.62636 -0.0771145 0)
(-1.58236 -0.0784819 0)
(-1.53724 -0.0797565 -1.07491e-20)
(-1.49105 -0.080938 0)
(-1.44382 -0.0820266 1.85243e-20)
(-1.39558 -0.0830224 2.16063e-20)
(-1.34638 -0.0839258 0)
(-1.29625 -0.0847371 0)
(-1.24524 -0.0854573 -3.31882e-20)
(-1.19337 -0.0860874 -8.29857e-22)
(-1.14071 -0.0866288 -8.34806e-22)
(-1.08727 -0.0870831 0)
(-1.03312 -0.0874518 -9.77051e-20)
(-0.978289 -0.0877367 0)
(-0.922819 -0.08794 0)
(-0.866753 -0.0880642 0)
(-0.810135 -0.0881118 6.4144e-20)
(-0.753004 -0.0880853 0)
(-0.695402 -0.0879878 -1.41077e-19)
(-0.637368 -0.0878226 -7.49487e-20)
(-0.578943 -0.0875927 0)
(-0.520163 -0.0873017 -8.19537e-20)
(-0.461067 -0.086953 0)
(-0.401688 -0.0865505 0)
(-0.342061 -0.0860979 -2.74725e-19)
(-0.282219 -0.0855988 1.89198e-19)
(-0.222192 -0.0850569 0)
(-0.162008 -0.0844756 2.02089e-19)
(-0.101694 -0.0838574 -1.04989e-19)
(-0.0412767 -0.0832048 0)
(0.0192213 -0.0825198 0)
(0.0797766 -0.0818023 0)
(0.140369 -0.0810513 -3.43385e-19)
(0.20098 -0.0802668 0)
(0.261596 -0.0794539 -1.18778e-19)
(0.322214 -0.0786257 0)
(0.382855 -0.0777951 0)
(0.44352 -0.0769691 0)
(0.504194 -0.0761565 0)
(0.56486 -0.0753573 0)
(0.625506 -0.0745615 0)
(0.686112 -0.073751 -2.59328e-19)
(0.746643 -0.0728967 0)
(0.80704 -0.0719511 -1.32986e-19)
(0.867189 -0.0708325 4.01457e-19)
(0.926911 -0.0693893 0)
(0.98583 -0.0673333 0)
(1.0436 -0.0640342 -2.74276e-19)
(1.09848 -0.0582883 -2.77794e-19)
(1.15314 -0.0470513 2.79807e-19)
(1.19558 -0.0238582 2.84681e-19)
(-0.00439962 -0.0247197 -2.0447e-19)
(-0.0143221 0.00101724 -1.85756e-19)
(-0.0260505 0.0237903 -1.10016e-19)
(-0.038672 0.0435044 -5.01913e-20)
(-0.0521504 0.0610093 0)
(-0.0663036 0.0765001 8.9612e-20)
(-0.0811896 0.0900223 -4.31217e-20)
(-0.0969378 0.101644 0)
(-0.113656 0.111514 -4.06377e-20)
(-0.131403 0.119857 0)
(-0.150192 0.126931 7.73479e-20)
(-0.169997 0.132993 0)
(-0.190774 0.138268 3.69814e-20)
(-0.212473 0.14294 7.24182e-20)
(-0.235044 0.147151 -7.09645e-20)
(-0.258442 0.151006 0)
(-0.282632 0.154584 -6.83133e-20)
(-0.307586 0.157945 0)
(-0.333279 0.161134 0)
(-0.359693 0.164189 -6.49173e-20)
(-0.386806 0.167141 0)
(-0.414598 0.170016 8.97408e-25)
(-0.443038 0.172841 0)
(-0.472089 0.175637 0)
(-0.501688 0.17842 -1.45939e-24)
(-0.531753 0.181174 -5.97556e-20)
(-0.562181 0.183836 -5.90371e-20)
(-0.592886 0.186292 -5.83383e-20)
(-0.623825 0.188441 0)
(-0.654949 0.190277 -1.13891e-19)
(-0.686142 0.191853 0)
(-0.717259 0.193143 -5.55421e-20)
(-0.74823 0.194062 0)
(-0.779032 0.194624 0)
(-0.809614 0.194907 5.34273e-20)
(-0.839931 0.194828 0)
(-0.870009 0.19434 -5.20341e-20)
(-0.899855 0.193659 -1.80747e-23)
(-0.929449 0.192653 1.0134e-19)
(-0.958867 0.191248 -9.99672e-20)
(-0.988246 0.18955 0)
(-1.01768 0.187573 0)
(-1.04719 0.185655 -4.79985e-20)
(-1.07666 0.183881 0)
(-1.10602 0.182178 -4.68152e-20)
(-1.13529 0.180501 4.6228e-20)
(-1.16445 0.17882 4.56565e-20)
(-1.19354 0.177114 0)
(-1.22254 0.175372 -4.45583e-20)
(-1.25148 0.173586 -4.40302e-20)
(-1.28034 0.171751 8.69503e-20)
(-1.30913 0.169862 -4.30121e-20)
(-1.33783 0.167916 -4.25207e-20)
(-1.36644 0.165908 0)
(-1.39494 0.163835 0)
(-1.42332 0.161692 4.11088e-20)
(-1.45156 0.159475 0)