/*--------------------------------*- C++ -*----------------------------------*\
  =========                 |
  \\      /  F ield         | OpenFOAM: The Open Source CFD Toolbox
   \\    /   O peration     | Website:  https://openfoam.org
    \\  /    A nd           | Version:  12
     \\/     M anipulation  |
\*---------------------------------------------------------------------------*/
FoamFile
{
    format      ascii;
    class       surfaceScalarField;
    location    "16.88";
    object      phi;
}
// * * * * * * * * * * * * * * * * * * * * * * * * * * * * * * * * * * * * * //

dimensions      [1 0 -1 0 0 0 0];

internalField   nonuniform List<scalar> 
7429
(
0.000260719
-0.000260719
0.000528739
-0.000268019
0.000800949
-0.00027221
0.00107768
-0.000276727
0.00135944
-0.000281767
0.00164671
-0.00028727
0.00193991
-0.000293194
0.00223939
-0.000299482
0.00254547
-0.000306081
0.00285838
-0.000312909
0.00317818
-0.000319801
0.00350485
-0.000326671
0.0038383
-0.000333447
0.00417815
-0.000339847
0.00452398
-0.000345828
0.00487512
-0.000351147
0.00523079
-0.000355667
0.00558991
-0.000359116
0.00595137
-0.000361467
0.00631376
-0.000362381
0.00667556
-0.000361801
0.00703523
-0.000359668
0.00739085
-0.000355619
0.00774039
-0.00034954
0.00808171
-0.000341328
0.00841245
-0.000330739
0.00873036
-0.00031791
0.00903289
-0.000302525
0.00931753
-0.00028464
0.00958174
-0.000264207
0.00982312
-0.000241386
0.0100394
-0.000216252
0.0102283
-0.000188909
0.0103879
-0.000159585
0.0105164
-0.000128519
0.0106124
-9.60053e-05
0.0106745
-6.21422e-05
0.0107025
-2.79988e-05
0.0106959
6.63022e-06
0.0106534
4.25465e-05
0.0105739
7.94729e-05
0.010457
0.000116895
0.0103027
0.000154296
0.0101114
0.000191305
0.00988382
0.000227565
0.00962103
0.000262791
0.00932426
0.000296774
0.00899504
0.000329216
0.00863513
0.000359914
0.00824651
0.000388622
0.00783143
0.000415081
0.00739233
0.000439093
0.00693208
0.000460251
0.00645343
0.000478648
0.00595993
0.000493507
0.00545462
0.000505308
0.00494169
0.000512928
0.00442451
0.000517182
0.00390768
0.000516829
0.00339462
0.000513062
0.0028903
0.000504322
0.00239878
0.000491516
0.00192464
0.000474137
0.00147233
0.000452313
0.00104607
0.000426255
0.000650071
0.000396002
0.000288444
0.000361627
-3.52607e-05
0.000323705
-0.000317497
0.000282236
-0.000555142
0.000237644
-0.000745769
0.000190628
-0.000887213
0.000141443
-0.000978469
9.12563e-05
-0.0010184
3.9928e-05
-0.00100321
-1.51831e-05
-0.000934284
-6.89303e-05
-0.000815398
-0.000118886
-0.000649156
-0.000166242
-0.000439334
-0.000209821
-0.000189611
-0.000249723
9.52585e-05
-0.00028487
0.000409622
-0.000314363
0.000746763
-0.000337142
0.00109947
-0.000352711
0.00145968
-0.00036021
0.00181946
-0.000359773
0.00216951
-0.000350054
0.00250123
-0.000331719
0.0028056
-0.000304372
0.00307389
-0.000268288
0.00329804
-0.000224146
0.00347053
-0.00017249
0.0035843
-0.000113779
0.00363511
-5.08049e-05
0.00361103
2.40773e-05
0.00351036
0.000100669
0.00333497
0.000175393
0.00308754
0.000247433
0.00277177
0.000315766
0.00239288
0.000378896
0.00195767
0.00043521
0.00147495
0.000482712
0.000955888
0.000519066
0.00041302
0.000542868
-0.000139244
0.000552265
-0.000685235
0.000545991
-0.00120876
0.000523521
-0.00169351
0.000484754
-0.00212326
0.00042975
-0.00248321
0.000359953
-0.00275962
0.000276403
-0.00294111
0.000181497
-0.00301955
7.84417e-05
-0.00298178
-3.77698e-05
-0.00282695
-0.000154837
-0.00256201
-0.000264939
-0.00219501
-0.000366998
-0.00173714
-0.00045787
-0.00120223
-0.000534916
-0.000609541
-0.000592685
1.96746e-05
-0.000629216
0.000659709
-0.000640034
0.00128386
-0.000624155
0.0018655
-0.000581636
0.00237804
-0.000512541
0.00279708
-0.000419037
0.0031019
-0.000304822
0.00327685
-0.000174954
0.00331352
-3.66713e-05
0.00319246
0.000121064
0.00292865
0.000263805
0.00253634
0.000392315
0.0020343
0.000502044
0.00144718
0.00058711
0.000807213
0.000639972
0.000149308
0.000657905
-0.000486825
0.000636133
-0.00106312
0.000576299
-0.00154423
0.00048111
-0.00189952
0.000355283
-0.00210695
0.000207432
-0.0021549
4.79527e-05
-0.00202601
-0.000128893
-0.00174286
-0.000283149
-0.001329
-0.00041386
-0.000816305
-0.000512693
-0.000245949
-0.000570356
0.000334853
-0.000580801
0.000874902
-0.00054005
0.00132689
-0.000451988
0.00164966
-0.000322772
0.00181354
-0.000163876
0.00179538
1.81616e-05
0.00159197
0.000203403
0.00122964
0.000362337
0.000742098
0.000487538
0.000175771
0.000566327
-0.000411895
0.000587666
-0.000957198
0.000545303
-0.00140079
0.000443592
-0.00169304
0.000292246
-0.00179994
0.000106907
-0.00169363
-0.000106308
-0.00139169
-0.000301946
-0.000929796
-0.000461892
-0.000358821
-0.000570975
0.000254575
-0.000613396
0.00083265
-0.000578075
0.00130323
-0.000470576
0.0016071
-0.000303877
0.00170589
-9.87886e-05
0.00157345
0.000132437
0.0012389
0.000334557
0.000750509
0.000488387
0.000175663
0.000574847
-0.000402623
0.000578285
-0.000898145
0.000495522
-0.00124064
0.000342496
-0.00138401
0.000143372
-0.00130337
-8.0638e-05
-0.00102537
-0.000278006
-0.000604457
-0.000420912
-0.000113454
-0.000491003
0.000362584
-0.000476038
0.000744344
-0.00038176
0.000977671
-0.000233327
0.00104156
-6.38941e-05
0.00093909
0.000102474
0.000724424
0.000214666
0.000463107
0.000261317
0.000225138
0.000237969
6.7392e-05
0.000157746
1.94228e-05
4.79693e-05
7.7726e-05
-5.83032e-05
0.000204624
-0.000126898
0.000328456
-0.000123832
0.000391004
-6.25476e-05
0.000352474
3.85298e-05
0.000209741
0.000142733
0.000209741
0.000286883
-0.000547602
0.000589622
-0.000570758
0.00089852
-0.000581107
0.00121466
-0.000592864
0.00153917
-0.000606279
0.00187322
-0.000621319
0.00221765
-0.000637621
0.00257322
-0.000655055
0.00294026
-0.000673123
0.00331899
-0.000691638
0.00370922
-0.000710025
0.00411069
-0.000728138
0.00452291
-0.000745668
0.00494512
-0.000762056
0.00537631
-0.000777017
0.00581522
-0.000790055
0.00626021
-0.000800665
0.00670959
-0.000808491
0.00716111
-0.00081299
0.00761245
-0.000813723
0.00806084
-0.00081019
0.00850324
-0.000802066
0.0089366
-0.000788975
0.00935766
-0.000770595
0.00976303
-0.000746706
0.0101495
-0.000717207
0.0105135
-0.000681938
0.0108522
-0.000641208
0.0111626
-0.000595003
0.0114421
-0.000543695
0.0116882
-0.000487501
0.011899
-0.000427113
0.0120729
-0.000362786
0.0122085
-0.000295119
0.0123047
-0.000224803
0.0123612
-0.000152452
0.012378
-7.89073e-05
0.0123568
-6.8861e-06
0.0122797
8.3803e-05
0.0121544
0.000167812
0.0119837
0.000250165
0.0117698
0.000330766
0.011515
0.000409095
0.0112213
0.000484998
0.0108906
0.000558278
0.0105249
0.000628498
0.010126
0.000695689
0.00969585
0.000759375
0.00923684
0.000818921
0.00875111
0.000874354
0.00824146
0.000924729
0.00771046
0.000970091
0.00716145
0.00100926
0.00659731
0.00104279
0.00602159
0.00106922
0.00543819
0.00108871
0.00485112
0.0011
0.00426395
0.00110436
0.00368143
0.00109935
0.00310783
0.00108666
0.00254779
0.00106436
0.00200571
0.0010336
0.00148643
0.000993414
0.000994149
0.000944599
0.000533267
0.000887137
0.000108396
0.000820873
-0.000276834
0.000746857
-0.000618188
0.000665059
-0.000911755
0.000575803
-0.00115476
0.000480651
-0.00134484
0.000380704
-0.00147954
0.000276146
-0.00155828
0.000169999
-0.00158109
6.27316e-05
-0.00154164
-5.46301e-05
-0.0014462
-0.000164369
-0.00129618
-0.000268906
-0.00109496
-0.000367464
-0.000845208
-0.000459572
-0.000551814
-0.000543118
-0.000220645
-0.000616038
0.000142213
-0.000677222
0.000529491
-0.000724419
0.000933081
-0.000756301
0.00134435
-0.000771474
0.0017539
-0.000769325
0.00215215
-0.000748304
0.0025292
-0.000708769
0.00287564
-0.00065082
0.00318199
-0.000574629
0.00343887
-0.000481027
0.00363752
-0.000371139
0.00377224
-0.000248507
0.00383488
-0.000113441
0.00381752
4.14326e-05
0.00371783
0.000200363
0.00353699
0.000356234
0.00327728
0.000507139
0.0029418
0.000651251
0.00253633
0.000784365
0.00206826
0.000903277
0.00154755
0.00100342
0.000986689
0.00107993
0.000399617
0.00112994
-0.000198078
0.00114996
-0.000789102
0.00113701
-0.00135575
0.00109016
-0.00188035
0.00100936
-0.00234526
0.00089466
-0.00273379
0.00074849
-0.00303165
0.000574263
-0.00322684
0.000376687
-0.00330835
0.000159948
-0.00326456
-8.15614e-05
-0.0030973
-0.000322096
-0.00281111
-0.000551128
-0.00241396
-0.00076415
-0.001917
-0.000954827
-0.00133752
-0.0011144
-0.00069424
-0.00123596
-1.40474e-05
-0.00130941
0.000677892
-0.00133197
0.00135194
-0.0012982
0.00197857
-0.00120827
0.00252832
-0.00106229
0.00297667
-0.000867384
0.00329971
-0.000627868
0.00348146
-0.000356706
0.0035097
-6.49032e-05
0.00337123
0.000259527
0.00307989
0.000555145
0.0026495
0.000822708
0.00209935
0.0010522
0.0014586
0.00122786
0.000761548
0.00133703
4.78631e-05
0.00137159
-0.000638576
0.00132257
-0.00125834
0.00119607
-0.0017714
0.000994166
-0.00214571
0.000729588
-0.00235533
0.000417058
-0.00238924
8.18578e-05
-0.00223411
-0.000284021
-0.00191175
-0.000605503
-0.00144592
-0.000879691
-0.000872984
-0.00108563
-0.000239326
-0.00120401
0.000402566
-0.00122269
0.000997489
-0.00113497
0.00149228
-0.000946773
0.00184302
-0.000673516
0.00201656
-0.000337417
0.00198852
4.62e-05
0.0017621
0.000429827
0.00136087
0.000763561
0.000821688
0.00102672
0.000196715
0.0011913
-0.000449965
0.00123435
-0.00104813
0.00114347
-0.00153327
0.00092873
-0.00185019
0.000609168
-0.00196315
0.000219859
-0.00184486
-0.000224597
-0.00151518
-0.000631621
-0.00101015
-0.000966924
-0.000386776
-0.00119435
0.000280938
-0.00128111
0.000907436
-0.00120457
0.00141482
-0.000977956
0.00173781
-0.000626867
0.0018351
-0.000196086
0.00168575
0.000281791
0.00131876
0.000701549
0.00078551
0.00102163
0.000161787
0.00119857
-0.000461887
0.00120196
-0.000991299
0.00102493
-0.00135039
0.000701586
-0.00149075
0.000283733
-0.00139082
-0.000180571
-0.00108111
-0.000587717
-0.000619174
-0.000882845
-8.76815e-05
-0.0010225
0.00041806
-0.000981779
0.000814127
-0.000777827
0.00104317
-0.000462374
0.00108376
-0.000104475
0.000947921
0.000238309
0.00069391
0.000468677
0.000395771
0.000559456
0.000131113
0.000502627
-2.92704e-05
0.000318129
-6.49842e-05
8.3683e-05
2.00884e-05
-0.000143376
0.000176519
-0.000283329
0.000330377
-0.00027769
0.000413479
-0.000145649
0.000380263
7.17455e-05
0.000228404
0.000294592
0.000438145
7.87499e-05
-0.000626351
0.000164684
-0.000656692
0.000256074
-0.000672496
0.00035542
-0.000692209
0.000464664
-0.000715522
0.000586324
-0.000742979
0.000721739
-0.000773035
0.000873806
-0.000807121
0.00104343
-0.000842748
0.0012335
-0.000881709
0.00144556
-0.00092208
0.00168131
-0.000963891
0.00194041
-0.00100477
0.00222137
-0.00104302
0.00252702
-0.00108267
0.00285905
-0.00112208
0.00321676
-0.00115838
0.00359947
-0.0011912
0.00400415
-0.00121767
0.00442827
-0.00123784
0.00486806
-0.00124998
0.00531971
-0.00125372
0.00577851
-0.00124777
0.00623991
-0.001232
0.0066985
-0.00120529
0.00714959
-0.0011683
0.00758745
-0.00111979
0.00800785
-0.00106161
0.00840488
-0.000992037
0.00877376
-0.000912579
0.00910856
-0.000822299
0.00940531
-0.000723864
0.00966054
-0.000618015
0.00987185
-0.000506423
0.0100371
-0.000390013
0.0101555
-0.00027091
0.0102282
-0.000151619
0.0102502
-2.88188e-05
0.0102413
9.2675e-05
0.0101905
0.000218579
0.010096
0.000344712
0.009957
0.000469741
0.00977359
0.0005925
0.00954641
0.000712185
0.00927648
0.000828204
0.00896532
0.000939662
0.00861473
0.00104628
0.00822691
0.00114719
0.00780392
0.00124191
0.00734871
0.00132956
0.0068637
0.00140974
0.00635237
0.00148143
0.00581769
0.00154394
0.00526372
0.00159676
0.00469418
0.00163876
0.00411299
0.0016699
0.00352476
0.00168822
0.00293426
0.00169486
0.00234602
0.00168759
0.00176555
0.00166713
0.00119767
0.00163224
0.000647706
0.00158356
0.000120892
0.00152023
-0.000377019
0.00144251
-0.000840642
0.00135076
-0.00126482
0.00124505
-0.00164432
0.00112636
-0.00197418
0.00099491
-0.00225119
0.000852813
-0.00247116
0.00070063
-0.00263099
0.000540526
-0.0027282
0.000373361
-0.00275889
0.00020069
-0.0027257
2.95413e-05
-0.00262029
-0.000160046
-0.00245188
-0.000332774
-0.00222201
-0.000498776
-0.00193254
-0.000656939
-0.00158826
-0.000803849
-0.00119427
-0.000937111
-0.00075692
-0.00105339
-0.000284449
-0.00114969
0.00021495
-0.00122382
0.000731401
-0.00127275
0.00125489
-0.00129496
0.00177415
-0.00128859
0.00227802
-0.00125217
0.00275455
-0.0011853
0.00319159
-0.00108785
0.00357786
-0.000960904
0.0039038
-0.000806966
0.00415935
-0.00062669
0.00433289
-0.000422045
0.0044206
-0.000201153
0.00441221
4.98237e-05
0.00430552
0.000307054
0.00410179
0.000559962
0.00380248
0.000806447
0.00341142
0.00104231
0.0029348
0.00126099
0.00238279
0.00145529
0.00176681
0.0016194
0.00110215
0.00174459
0.000405663
0.00182642
-0.000303249
0.00185887
-0.00100461
0.00183837
-0.00167707
0.00176262
-0.00229933
0.00163162
-0.00285007
0.00144539
-0.00330956
0.00120798
-0.00366007
0.000924775
-0.00388712
0.000603741
-0.00398129
0.000254113
-0.00392494
-0.000137905
-0.00372414
-0.000522899
-0.00338298
-0.000892289
-0.00290912
-0.001238
-0.00231707
-0.00154688
-0.00162705
-0.00180442
-0.000863532
-0.00199948
-5.59966e-05
-0.00211694
0.000763969
-0.00215194
0.00156031
-0.00209454
0.00229844
-0.00194639
0.00294503
-0.00170888
0.00346633
-0.00138869
0.00383956
-0.0010011
0.00404077
-0.000557919
0.00405712
-8.1255e-05
0.00388196
0.000434694
0.00352703
0.000910074
0.00300481
0.00134493
0.00234226
0.00171474
0.00157396
0.00199616
0.000741463
0.00216952
-0.00010608
0.00221913
-0.000920338
0.00213683
-0.00164872
0.00192445
-0.00224616
0.0015916
-0.00267274
0.00115618
-0.00290229
0.000646608
-0.00291317
9.27374e-05
-0.00270453
-0.000492664
-0.00229645
-0.00101358
-0.00171741
-0.00145873
-0.00101246
-0.00179058
-0.000235917
-0.00198056
0.000543794
-0.0020024
0.00126277
-0.00185395
0.00185694
-0.00154095
0.00227331
-0.00108988
0.00247141
-0.000535515
0.00242611
9.14975e-05
0.0021449
0.000711035
0.00165193
0.00125653
0.000994122
0.00168453
0.000234834
0.00195059
-0.000548099
0.00201728
-0.00126903
0.0018644
-0.00184985
0.00150956
-0.00222528
0.000984593
-0.00235271
0.000347291
-0.00220545
-0.000371856
-0.00180635
-0.00103073
-0.001198
-0.00157527
-0.000450523
-0.00194183
0.000346434
-0.00207807
0.00109044
-0.00194858
0.00168801
-0.00157552
0.00206194
-0.0010008
0.00216465
-0.000298793
0.00197495
0.000471492
0.00152881
0.00114769
0.000887616
0.00166282
0.000144093
0.00194209
-0.000590818
0.00193687
-0.00120654
0.00164066
-0.00161502
0.00111006
-0.001759
0.000427717
-0.00162018
-0.000319396
-0.00123637
-0.000971519
-0.000677807
-0.00144141
-4.29528e-05
-0.00165735
0.000539184
-0.00156392
0.000983165
-0.00122181
0.00122049
-0.000699701
0.00122633
-0.000110313
0.0010271
0.000437539
0.00069223
0.000803546
0.000315787
0.0009359
-2.65059e-06
0.000821064
-0.000184862
0.000500341
-0.000200712
9.95322e-05
-6.6244e-05
-0.000277843
0.000149772
-0.000499345
0.000363464
-0.000491382
0.00048421
-0.000266395
0.00045566
0.000100296
0.000276493
0.000473759
0.000714638
3.47609e-06
-0.000629826
3.20311e-05
-0.000685247
8.09205e-05
-0.000721385
0.000159683
-0.000770971
0.000276199
-0.000832038
0.000441331
-0.00090811
0.000659125
-0.000990829
0.000937391
-0.00108539
0.00127256
-0.00117792
0.00166179
-0.00127094
0.00209594
-0.00135623
0.00257302
-0.00144097
0.00308959
-0.00152134
0.00364809
-0.00160151
0.00424488
-0.00167946
0.00487577
-0.00175297
0.00553753
-0.00182014
0.00622627
-0.00187994
0.00693672
-0.00192812
0.00766446
-0.00196558
0.00840229
-0.0019878
0.0091424
-0.00199383
0.00987449
-0.00197986
0.0105904
-0.00194789
0.0112775
-0.00189244
0.0119285
-0.00181929
0.0125295
-0.00172078
0.0130761
-0.00160819
0.0135545
-0.00147041
0.0139647
-0.00132282
0.0143013
-0.00115889
0.0145658
-0.000988395
0.0147578
-0.000809948
0.0148795
-0.000628187
0.0149335
-0.00044404
0.0149228
-0.00026021
0.014852
-8.07273e-05
0.0146992
0.000123954
0.014471
0.000320845
0.0141802
0.000509367
0.0138341
0.00069084
0.0134381
0.000865771
0.0129961
0.00103444
0.0125114
0.00119691
0.0119868
0.00135281
0.011425
0.00150142
0.0108286
0.00164269
0.0101997
0.00177615
0.00954192
0.00189967
0.00885812
0.00201335
0.00815052
0.00211734
0.00742392
0.00220802
0.00668083
0.00228703
0.00592513
0.00235247
0.00516139
0.0024025
0.00439406
0.00243723
0.00362801
0.00245426
0.00286776
0.00245511
0.0021191
0.00243625
0.00138745
0.00239878
0.000678295
0.0023414
-1.73287e-06
0.00226359
-0.000647385
0.00216588
-0.00125202
0.00204714
-0.0018099
0.00190864
-0.0023147
0.00174986
-0.00276121
0.00157287
-0.0031458
0.0013795
-0.00346178
0.00116879
-0.00370491
0.000943769
-0.00387353
0.000709141
-0.00396442
0.000464255
-0.0039741
0.000210371
-0.00389182
-5.27436e-05
-0.00373943
-0.000312434
-0.00350794
-0.000564261
-0.00319924
-0.000807476
-0.0028178
-0.00103838
-0.0023691
-0.00125255
-0.00186093
-0.00144529
-0.00130011
-0.00161421
-0.00069669
-0.00175311
-6.18577e-05
-0.00185865
0.000592684
-0.00192729
0.00125432
-0.00195659
0.00190921
-0.00194349
0.00254269
-0.00188564
0.00314129
-0.00178391
0.00369178
-0.00163834
0.00418001
-0.00144914
0.00458993
-0.00121688
0.00491047
-0.000947233
0.00513524
-0.000646813
0.00525223
-0.000318143
0.00525093
5.11175e-05
0.00513011
0.000427874
0.00489046
0.000799615
0.00453339
0.00116352
0.00406343
0.00151227
0.00348852
0.0018359
0.00282057
0.00212324
0.00207521
0.00236476
0.00127053
0.00254928
0.000426027
0.00267092
-0.000434026
0.00271893
-0.00128462
0.00268897
-0.00209963
0.00257763
-0.00285253
0.00238452
-0.00351739
0.00211025
-0.0040721
0.00176269
-0.00449215
0.00134483
-0.00476236
0.000873953
-0.00486873
0.000360477
-0.00479691
-0.000209721
-0.00455144
-0.000768376
-0.00413509
-0.00130864
-0.00355804
-0.00181505
-0.00283823
-0.00226668
-0.00199904
-0.00264361
-0.00107286
-0.00292566
-9.46965e-05
-0.00309511
0.000896104
-0.00314274
0.00185645
-0.00305489
0.00274464
-0.00283459
0.00351759
-0.00248183
0.00414027
-0.00201136
0.00457665
-0.00143748
0.00480423
-0.000785491
0.0048112
-8.82289e-05
0.00458419
0.000661702
0.00413902
0.00135525
0.00349397
0.00198997
0.00267974
0.00252897
0.00173968
0.00293622
0.000726494
0.00318271
-0.000302457
0.00324809
-0.00128375
0.00311812
-0.00215771
0.00279841
-0.00286802
0.00230191
-0.00336789
0.00165604
-0.00361968
0.000898402
-0.00360925
8.23079e-05
-0.00332888
-0.000773035
-0.00280463
-0.00153783
-0.00207324
-0.00219012
-0.00119106
-0.00267277
-0.000230515
-0.0029411
0.000735533
-0.00296845
0.00161928
-0.0027377
0.00234492
-0.00226659
0.00284621
-0.00159117
0.00307679
-0.000766098
0.00300836
0.000159927
0.00265137
0.00106803
0.00203547
0.00187243
0.00121738
0.00250262
0.000279197
0.00288877
-0.000684997
0.00298147
-0.00156902
0.00274842
-0.00227712
0.00221766
-0.0027297
0.00143717
-0.00287433
0.000491921
-0.00268827
-0.000557916
-0.0021941
-0.00152489
-0.00144567
-0.0023237
-0.00053006
-0.00285744
0.000441191
-0.00304932
0.00134221
-0.0028496
0.00205867
-0.00229198
0.00249934
-0.00144148
0.00260626
-0.000405711
0.00236306
0.000714693
0.00180882
0.00170193
0.00102163
0.00245002
0.000117421
0.0028463
-0.000765633
0.00281992
-0.00149645
0.00237148
-0.00196919
0.0015828
-0.00211823
0.000576747
-0.00192689
-0.000510729
-0.00144262
-0.00145579
-0.000756174
-0.00212785
6.61167e-06
-0.00242014
0.000703435
-0.00226074
0.00121547
-0.00173384
0.00146366
-0.000947891
0.00142625
-7.29068e-05
0.00114227
0.000721519
0.000700454
0.00124537
0.000219242
0.00141711
-0.000168722
0.00120903
-0.000379057
0.000710676
-0.000371208
9.16832e-05
-0.000174691
-0.00047436
0.000127106
-0.000801142
0.000420162
-0.000784438
0.000589472
-0.000435705
0.000565018
0.000124749
0.000345383
0.000693394
0.00106002
-0.000297588
-0.000332238
-0.000572433
-0.000410401
-0.000828471
-0.000465347
-0.00105208
-0.000547362
-0.00123318
-0.000650939
-0.00135893
-0.000782354
-0.00145195
-0.000897809
-0.00150652
-0.00103082
-0.00157353
-0.00111091
-0.00161487
-0.0012296
-0.00160605
-0.00136505
-0.00151071
-0.00153631
-0.00131645
-0.0017156
-0.00101641
-0.00190155
-0.000611352
-0.00208452
-0.00010378
-0.00226054
0.000501258
-0.00242517
0.00119359
-0.00257226
0.00196317
-0.00269771
0.0027964
-0.0027988
0.00367692
-0.00286833
0.0045944
-0.00291131
0.0055304
-0.00291586
0.00647237
-0.00288986
0.00739736
-0.00281744
0.00829696
-0.0027189
0.00914268
-0.00256649
0.00993454
-0.00240005
0.0106372
-0.00217304
0.0112496
-0.00193529
0.0117605
-0.00166972
0.0121692
-0.00139715
0.0124788
-0.00111952
0.0126956
-0.000845007
0.0128278
-0.000576246
0.0128815
-0.000313843
0.0128546
-5.38189e-05
0.0127687
0.000209841
0.0126278
0.000461722
0.0124305
0.00070665
0.0121776
0.000943714
0.0118703
0.00117313
0.0115104
0.00139428
0.0111004
0.00160693
0.0106425
0.00181074
0.0101389
0.00200506
0.00959166
0.00218989
0.00900456
0.00236325
0.00837846
0.00252577
0.00771701
0.00267481
0.00702386
0.00281049
0.0063017
0.00293019
0.00555486
0.00303387
0.00478827
0.00311907
0.00400596
0.00318481
0.00321292
0.00323026
0.00241555
0.00325164
0.00161926
0.0032514
0.000831147
0.00322436
5.73093e-05
0.00317262
-0.000694913
0.00309362
-0.0014186
0.00298728
-0.00210437
0.00285164
-0.00274567
0.00268844
-0.00333597
0.00249894
-0.00386848
0.00228237
-0.00433455
0.00203894
-0.00472842
0.00177337
-0.00504477
0.00148515
-0.00527839
0.00117739
-0.00542341
0.000854157
-0.00547722
0.000518068
-0.00543703
0.000170186
-0.00529693
-0.000192848
-0.00506509
-0.000544273
-0.00474134
-0.000888013
-0.00432833
-0.00122048
-0.00382991
-0.00153681
-0.00325327
-0.00182918
-0.00260647
-0.00209209
-0.00189979
-0.00232089
-0.00114488
-0.00250802
-0.000353956
-0.00264957
0.000458533
-0.00273978
0.00127677
-0.00277483
0.00208554
-0.00275226
0.0028681
-0.00266821
0.00360717
-0.00252298
0.00428372
-0.00231489
0.00488091
-0.00204633
0.00538685
-0.00172281
0.00578675
-0.00134713
0.00606476
-0.000924826
0.00620691
-0.000460288
0.00621265
4.53732e-05
0.0060749
0.000565626
0.00579261
0.0010819
0.00536859
0.00158754
0.00480709
0.00207377
0.00411961
0.00252338
0.00331898
0.00292387
0.00242429
0.00325944
0.00145827
0.0035153
0.000446741
0.00368245
-0.000582498
0.00374816
-0.00159898
0.00370545
-0.0025725
0.00355115
-0.00347156
0.00328358
-0.00426732
0.00290601
-0.004927
0.00242237
-0.00542907
0.0018469
-0.00574429
0.00118917
-0.00586415
0.000480334
-0.0057744
-0.000299472
-0.00547543
-0.00106734
-0.00497319
-0.00181087
-0.00427703
-0.00251121
-0.00341122
-0.0031325
-0.00240429
-0.00365054
-0.00129472
-0.00403523
-0.000122864
-0.00426697
0.00105978
-0.00432538
0.00220496
-0.00420007
0.00325902
-0.00388865
0.00417518
-0.003398
0.00490541
-0.00274158
0.00541651
-0.00194858
0.00567798
-0.00104696
0.00565921
-6.94563e-05
0.00537737
0.000943534
0.00483086
0.00190176
0.00404533
0.0027755
0.00306033
0.00351398
0.00192723
0.00406932
0.000708332
0.0044016
-0.000524851
0.00448127
-0.00169686
0.00429014
-0.0027359
0.00383745
-0.0035736
0.00313961
-0.00415227
0.00223471
-0.00443204
0.00117817
-0.00438068
3.09482e-05
-0.00402231
-0.0011314
-0.00336781
-0.00219233
-0.00246658
-0.00309136
-0.00138436
-0.00375499
-0.000205986
-0.00411947
0.000963861
-0.0041383
0.00203083
-0.00380466
0.00290139
-0.00313715
0.0034968
-0.00218658
0.00376432
-0.00103361
0.00366683
0.000257412
0.00321976
0.0015151
0.00245986
0.00263234
0.0014588
0.00350367
0.000315468
0.00403211
-0.000851523
0.00414846
-0.00191656
0.00381345
-0.00276673
0.00306783
-0.0033055
0.00197594
-0.00346565
0.000652074
-0.00323178
-0.000791787
-0.00262626
-0.00213041
-0.00171689
-0.00323307
-0.000611749
-0.00396258
0.000555023
-0.00421609
0.00163198
-0.00392656
0.00248405
-0.00314404
0.00299749
-0.00195492
0.00310403
-0.00051225
0.00279855
0.00102017
0.00211965
0.00238084
0.00116709
0.00340257
7.67142e-05
0.00393668
-0.000968553
0.00386519
-0.00182904
0.00323197
-0.00237211
0.00212587
-0.00252102
0.000725657
-0.00226783
-0.000763922
-0.00166672
-0.0020569
-0.000832712
-0.00296186
7.90243e-05
-0.00333187
0.000899705
-0.00308142
0.00148576
-0.00231989
0.00174588
-0.00120802
0.0016526
2.03772e-05
0.00127202
0.0011021
0.000707057
0.00181033
0.000102839
0.00202133
-0.00036103
0.0016729
-0.000598908
0.000948554
-0.000560802
5.35769e-05
-0.000289609
-0.000745554
0.000111277
-0.00120203
0.000495187
-0.00116835
0.000719201
-0.000659718
0.00069717
0.000146779
0.000428061
0.000962504
0.00148808
-0.00119028
0.000858045
-0.0023319
0.000731217
-0.00335902
0.000561771
-0.00418782
0.00028144
-0.00473075
-0.00010801
-0.00499887
-0.000514232
-0.00500503
-0.000891644
-0.0047103
-0.00132555
-0.00430178
-0.00151943
-0.00372174
-0.00180964
-0.00306242
-0.00202437
-0.00234462
-0.00225411
-0.00157584
-0.00248438
-0.000748057
-0.00272934
0.000150232
-0.00298281
0.00113185
-0.00324215
0.00220372
-0.00349705
0.00337295
-0.00374149
0.00463427
-0.00395903
0.00598286
-0.00414739
0.00740109
-0.00428656
0.00886929
-0.00437951
0.0103521
-0.00439863
0.0118301
-0.00436787
0.0132474
-0.00423479
0.0145981
-0.0040696
0.0157851
-0.00375347
0.0168707
-0.00348563
0.0176732
-0.00297554
0.0182813
-0.00254339
0.0186597
-0.00204814
0.0188633
-0.00160072
0.0189116
-0.00116785
0.0188325
-0.000765852
0.0186461
-0.000389902
0.018369
-3.67501e-05
0.0179701
0.000345139
0.0175004
0.000679526
0.016971
0.000991127
0.0163924
0.00128527
0.0157718
0.0015643
0.0151142
0.00183066
0.0144234
0.0020851
0.0137014
0.00232899
0.01295
0.00256212
0.0121703
0.00278474
0.0113635
0.00299668
0.0105309
0.00319587
0.00967315
0.0033835
0.00879299
0.00355497
0.00789146
0.00371202
0.00697146
0.00385019
0.00603575
0.00396957
0.00508794
0.00406688
0.00413242
0.00414034
0.00317388
0.0041888
0.00221874
0.00420678
0.00127231
0.00419783
0.000342093
0.00415458
-0.000566838
0.00408155
-0.00144445
0.00397123
-0.00228373
0.00382656
-0.00307736
0.00364528
-0.00381672
0.0034278
-0.00449254
0.00317476
-0.00509663
0.00288645
-0.00562402
0.00256633
-0.00606382
0.00221317
-0.0064101
0.00183143
-0.00665693
0.00142421
-0.0067993
0.000996528
-0.00683255
0.00055132
-0.00676168
9.93121e-05
-0.00657743
-0.000377094
-0.00628304
-0.000838662
-0.00588012
-0.00129093
-0.00537155
-0.00172906
-0.0047651
-0.00214325
-0.00406745
-0.00252683
-0.00328836
-0.00287118
-0.00243999
-0.00316926
-0.0015345
-0.00341351
-0.000588473
-0.0035956
0.000380496
-0.00370875
0.00135581
-0.00375014
0.0023198
-0.00371626
0.00324991
-0.00359831
0.0041249
-0.00339798
0.0049272
-0.00311719
0.00564016
-0.00275929
0.00624157
-0.00232422
0.00671202
-0.00181759
0.00703701
-0.00124982
0.00720988
-0.000633155
0.00721949
3.57681e-05
0.00706131
0.000723799
0.00673318
0.00141003
0.00623661
0.00208412
0.00557876
0.00273162
0.00477148
0.00333066
0.00383559
0.00385976
0.0027895
0.00430553
0.00165931
0.00464548
0.000475975
0.00486579
-0.000730206
0.00495435
-0.00192132
0.00489657
-0.00306059
0.00469042
-0.0041124
0.00433539
-0.00503868
0.00383229
-0.00580473
0.00318843
-0.00638581
0.00242799
-0.00675179
0.00155515
-0.00688037
0.000608907
-0.00677159
-0.000408251
-0.00641749
-0.00142145
-0.00582358
-0.00240478
-0.00500569
-0.0033291
-0.00398773
-0.00415046
-0.00280842
-0.00482985
-0.00150961
-0.00533404
-0.000140882
-0.00563569
0.00123716
-0.00570342
0.00256843
-0.00553134
0.00379452
-0.00511474
0.00485782
-0.0044613
0.00570373
-0.00358749
0.00628493
-0.00252978
0.00656955
-0.00133158
0.00653527
-3.51776e-05
0.00619084
0.00128797
0.00553645
0.00255615
0.00460477
0.00370717
0.00344194
0.00467681
0.00210959
0.00540167
0.00068189
0.0058293
-0.000761404
0.00592456
-0.00213019
0.00565893
-0.00333385
0.00504111
-0.00429673
0.00410249
-0.00495698
0.00289496
-0.00526482
0.001486
-0.00518418
-4.96938e-05
-0.00473773
-0.00157784
-0.00394381
-0.00298625
-0.00285949
-0.00417567
-0.0015684
-0.00504608
-0.000177056
-0.00551082
0.00120929
-0.00552465
0.00246497
-0.00506034
0.00348458
-0.00415676
0.00417761
-0.00287961
0.00447361
-0.00132961
0.00434517
0.000385853
0.00380418
0.00205609
0.00289227
0.00354425
0.00170076
0.00469519
0.000347295
0.00538557
-0.00103054
0.00552629
-0.00228279
0.00506571
-0.00327667
0.00406172
-0.00390049
0.00259975
-0.00407623
0.000827819
-0.00378962
-0.0010784
-0.00306684
-0.00285318
-0.0019898
-0.00431012
-0.000689253
-0.00526312
0.000680508
-0.00558585
0.00193744
-0.00518349
0.00292247
-0.00412907
0.00350888
-0.00254132
0.00362003
-0.00062341
0.00324167
0.00139853
0.00243273
0.00318978
0.0013094
0.0045259
3.51469e-05
0.00521093
-0.00118436
0.0050847
-0.00217433
0.00422194
-0.00278718
0.00273872
-0.00293496
0.000873444
-0.00261199
-0.0010869
-0.00188668
-0.00278221
-0.000898854
-0.00394968
0.000168312
-0.00439904
0.00111352
-0.00402663
0.00177161
-0.00297798
0.00203724
-0.00147364
0.00188944
0.000168177
0.00140156
0.00158998
0.0007083
0.00250358
-1.08326e-05
0.00274046
-0.000564339
0.0022264
-0.000830697
0.00121491
-0.000758545
-1.85747e-05
-0.000404904
-0.0010992
0.00010236
-0.00170929
0.000582411
-0.0016484
0.000863817
-0.000941124
0.000842971
0.000167625
0.000518791
0.00128668
0.00200687
-0.00187755
0.00273559
-0.00366653
0.0025202
-0.00519386
0.0020891
-0.00627557
0.00136315
-0.0067542
0.000370625
-0.00642255
-0.000845887
-0.00547753
-0.00183666
-0.00452418
-0.00227889
-0.00515001
-0.0008936
-0.00643717
-0.000522484
-0.00764105
-0.00082049
-0.00840969
-0.00148546
-0.0086678
-0.00222627
-0.0084422
-0.00295493
-0.00778692
-0.00363809
-0.00675784
-0.00427124
-0.0054118
-0.00484309
-0.00380943
-0.00534385
-0.00200711
-0.00576135
-6.93432e-05
-0.00608516
0.00193878
-0.00629468
0.00401163
-0.00645236
0.00608754
-0.00647454
0.00815379
-0.00643411
0.0101401
-0.00622112
0.0120725
-0.00600201
0.0138323
-0.00551324
0.0155109
-0.00516426
0.0166731
-0.00413771
0.0174227
-0.00329298
0.0178142
-0.00243966
0.0179379
-0.00172445
0.0178652
-0.00109512
0.0176537
-0.000554366
0.0173495
-8.57271e-05
0.0169201
0.000392643
0.016479
0.00078631
0.0160097
0.00114881
0.0155139
0.00148694
0.0149909
0.00180826
0.0144397
0.00211544
0.01386
0.00241042
0.0132499
0.00269522
0.0126083
0.00297058
0.011933
0.00323735
0.0112232
0.00349462
0.0104775
0.00374233
0.00969659
0.00397678
0.00887956
0.00420053
0.00802721
0.00440731
0.00714289
0.00459635
0.00622832
0.00476476
0.00528704
0.00491086
0.00432324
0.00503067
0.00334181
0.00512178
0.00234786
0.00518275
0.00135044
0.00520419
0.000354336
0.00519394
-0.000628907
0.00513782
-0.00159248
0.00504512
-0.00252816
0.0049069
-0.00342573
0.00472414
-0.00427403
0.00449358
-0.00506259
0.00421636