/*--------------------------------*- C++ -*----------------------------------*\
  =========                 |
  \\      /  F ield         | OpenFOAM: The Open Source CFD Toolbox
   \\    /   O peration     | Website:  https://openfoam.org
    \\  /    A nd           | Version:  12
     \\/     M anipulation  |
\*---------------------------------------------------------------------------*/
FoamFile
{
    format      ascii;
    class       volVectorField;
    location    "13.4";
    object      zeta;
}
// * * * * * * * * * * * * * * * * * * * * * * * * * * * * * * * * * * * * * //

dimensions      [0 1 0 0 0 0 0];

internalField   uniform (0 0 0);

boundaryField
{
    freeSurface
    {
        type            calculated;
        value           nonuniform List<vector> 
181
(
(0 -0.00485778 0)
(0 -0.00485811 0)
(0 -0.00485752 0)
(0 -0.00485693 0)
(0 -0.0048558 0)
(0 -0.004855 0)
(0 -0.00485378 0)
(0 -0.00485327 0)
(0 -0.00142877 0)
(0 -0.00142676 0)
(0 -0.0014364 0)
(0 -0.00144472 0)
(0 -0.00145517 0)
(0 -0.00146436 0)
(0 -0.001476 0)
(0 -0.00148558 0)
(0 -0.00149467 0)
(0 -0.00150036 0)
(0 -0.00150243 0)
(0 -0.00149966 0)
(0 -0.00149146 0)
(0 -0.00147748 0)
(0 -0.00145724 0)
(0 -0.00143037 0)
(0 -0.00139621 0)
(0 -0.00135441 0)
(0 -0.00130467 0)
(0 -0.00124692 0)
(0 -0.00118119 0)
(0 -0.00110771 0)
(0 -0.0010266 0)
(0 -0.000938098 0)
(0 -0.000842475 0)
(0 -0.000740286 0)
(0 -0.000631986 0)
(0 -0.00051849 0)
(0 -0.000400571 0)
(0 -0.000279154 0)
(0 -0.000155266 0)
(0 -2.99866e-05 0)
(0 9.54864e-05 0)
(0 0.000219776 0)
(0 0.000341486 0)
(0 0.000459276 0)
(0 0.000571776 0)
(0 0.000677512 0)
(0 0.000775162 0)
(0 0.000863369 0)
(0 0.000940832 0)
(0 0.0010062 0)
(0 0.0010584 0)
(0 0.0010964 0)
(0 0.0011192 0)
(0 0.00112611 0)
(0 0.00111659 0)
(0 0.00109033 0)
(0 0.00104723 0)
(0 0.000987525 0)
(0 0.000911729 0)
(0 0.000820717 0)
(0 0.00071564 0)
(0 0.000597919 0)
(0 0.00046911 0)
(0 0.000331437 0)
(0 0.000186977 0)
(0 3.82773e-05 0)
(0 -0.000112102 0)
(0 -0.000261262 0)
(0 -0.00040607 0)
(0 -0.000543646 0)
(0 -0.000670804 0)
(0 -0.000784549 0)
(0 -0.000882039 0)
(0 -0.000960382 0)
(0 -0.00101733 0)
(0 -0.00105097 0)
(0 -0.00105974 0)
(0 -0.00104259 0)
(0 -0.000999599 0)
(0 -0.000930857 0)
(0 -0.000837564 0)
(0 -0.000721727 0)
(0 -0.000585884 0)
(0 -0.00043377 0)
(0 -0.000269146 0)
(0 -9.68993e-05 0)
(0 7.76865e-05 0)
(0 0.000249458 0)
(0 0.000412723 0)
(0 0.000561863 0)
(0 0.000691607 0)
(0 0.000797028 0)
(0 0.00087386 0)
(0 0.000918967 0)
(0 0.000929676 0)
(0 0.000905434 0)
(0 0.000846054 0)
(0 0.000753556 0)
(0 0.000630898 0)
(0 0.000482579 0)
(0 0.000314489 0)
(0 0.000133499 0)
(0 -5.27842e-05 0)
(0 -0.000236217 0)
(0 -0.000408459 0)
(0 -0.000561494 0)
(0 -0.000687614 0)
(0 -0.000780392 0)
(0 -0.000834558 0)
(0 -0.000847171 0)
(0 -0.000816849 0)
(0 -0.000744662 0)
(0 -0.000634088 0)
(0 -0.00049093 0)
(0 -0.000322534 0)
(0 -0.000138734 0)
(0 4.99549e-05 0)
(0 0.000232468 0)
(0 0.000397932 0)
(0 0.000535714 0)
(0 0.000636867 0)
(0 0.000694819 0)
(0 0.000705306 0)
(0 0.000667857 0)
(0 0.00058484 0)
(0 0.000462501 0)
(0 0.000309807 0)
(0 0.000138469 0)
(0 -3.78858e-05 0)
(0 -0.000206075 0)
(0 -0.000352648 0)
(0 -0.000465533 0)
(0 -0.000535502 0)
(0 -0.000557056 0)
(0 -0.000528876 0)
(0 -0.000454157 0)
(0 -0.000340639 0)
(0 -0.000200004 0)
(0 -4.6875e-05 0)
(0 0.000103042 0)
(0 0.000235155 0)
(0 0.000335451 0)
(0 0.000393452 0)
(0 0.000403561 0)
(0 0.000365674 0)
(0 0.000285251 0)
(0 0.00017281 0)
(0 4.30424e-05 0)
(0 -8.67769e-05 0)
(0 -0.000201571 0)
(0 -0.000286277 0)
(0 -0.000330363 0)
(0 -0.000329 0)
(0 -0.000283919 0)
(0 -0.000203152 0)
(0 -9.97891e-05 0)
(0 9.60475e-06 0)
(0 0.00010803 0)
(0 0.000181262 0)
(0 0.00021808 0)
(0 0.000213902 0)
(0 0.000171456 0)
(0 0.000100414 0)
(0 1.52107e-05 0)
(0 -6.76106e-05 0)
(0 -0.000133316 0)
(0 -0.000171122 0)
(0 -0.000175799 0)
(0 -0.000148581 0)
(0 -9.74256e-05 0)
(0 -3.44078e-05 0)
(0 2.72516e-05 0)
(0 7.62851e-05 0)
(0 0.000104563 0)
(0 0.000108946 0)
(0 8.99112e-05 0)
(0 5.40281e-05 0)
(0 9.46657e-06 0)
(0 -3.48498e-05 0)
(0 -7.02687e-05 0)
(0 -9.00037e-05 0)
)
;
    }
    walls
    {
        type            calculated;
        value           uniform (0 0 0);
    }
    floatingObject
    {
        type            calculated;
        value           uniform (0 0 0);
    }
    frontAndBack
    {
        type            empty;
    }
}


// ************************************************************************* //
