/*--------------------------------*- C++ -*----------------------------------*\
  =========                 |
  \\      /  F ield         | OpenFOAM: The Open Source CFD Toolbox
   \\    /   O peration     | Website:  https://openfoam.org
    \\  /    A nd           | Version:  12
     \\/     M anipulation  |
\*---------------------------------------------------------------------------*/
FoamFile
{
    format      ascii;
    class       volScalarField;
    location    "4.34";
    object      p_rgh;
}
// * * * * * * * * * * * * * * * * * * * * * * * * * * * * * * * * * * * * * //

dimensions      [1 -1 -2 0 0 0 0];

internalField   nonuniform List<scalar> 
3829
(
-0.633361
-0.633144
-0.632703
-0.632032
-0.631128
-0.629987
-0.628609
-0.626994
-0.625143
-0.62306
-0.620747
-0.61821
-0.615456
-0.61249
-0.60932
-0.605951
-0.602392
-0.598649
-0.594726
-0.590629
-0.586359
-0.581919
-0.577307
-0.572519
-0.567551
-0.562393
-0.557035
-0.551461
-0.545653
-0.539592
-0.533253
-0.526611
-0.519635
-0.512297
-0.504564
-0.496402
-0.48778
-0.478664
-0.469028
-0.458774
-0.44794
-0.436523
-0.424512
-0.411902
-0.398689
-0.38488
-0.370487
-0.355536
-0.340061
-0.324104
-0.30772
-0.290974
-0.273941
-0.256705
-0.239361
-0.22201
-0.204766
-0.187746
-0.171075
-0.15488
-0.139291
-0.124443
-0.110466
-0.0974899
-0.085636
-0.0750202
-0.0657431
-0.0578938
-0.0515522
-0.0467803
-0.0436197
-0.0420974
-0.0422134
-0.0439362
-0.0472025
-0.0521886
-0.0585303
-0.0661095
-0.074788
-0.084393
-0.0947362
-0.105611
-0.116791
-0.128041
-0.139116
-0.14977
-0.159755
-0.168831
-0.176771
-0.183371
-0.188447
-0.191854
-0.193033
-0.192185
-0.189345
-0.18457
-0.177938
-0.169557
-0.159565
-0.148151
-0.135557
-0.122056
-0.107958
-0.0935988
-0.0793272
-0.0655011
-0.0524753
-0.0405875
-0.0301536
-0.0214565
-0.0147323
-0.0101668
-0.00788383
-0.00794614
-0.0104309
-0.015212
-0.022171
-0.031128
-0.0418411
-0.0540235
-0.0673471
-0.0814517
-0.0959595
-0.110498
-0.124668
-0.138113
-0.150495
-0.16151
-0.170897
-0.178445
-0.183996
-0.187455
-0.188786
-0.188002
-0.185178
-0.180439
-0.173959
-0.165951
-0.156663
-0.146366
-0.13535
-0.123913
-0.112354
-0.100962
-0.0900165
-0.079771
-0.070456
-0.0622706
-0.0553784
-0.0499063
-0.045942
-0.0435342
-0.0426934
-0.0433917
-0.0455671
-0.0491261
-0.0539469
-0.0598837
-0.0667705
-0.0744256
-0.0826558
-0.0912639
-0.100051
-0.108818
-0.117377
-0.125548
-0.133156
-0.140068
-0.146149
-0.15129
-0.155404
-0.158425
-0.160314
-0.161049
-0.160635
-0.159099
-0.156484
-0.15285
-0.148275
-0.142851
-0.136678
-0.129869
-0.12254
-0.114813
-0.106811
-0.0986536
-0.0904574
-0.0823258
-0.0743696
-0.0666912
-0.0593853
-0.0525376
-0.0462271
-0.0405201
-0.0354831
-0.0311732
-0.0276409
-0.0249323
-0.0230892
-0.0221497
-0.65117
-0.650856
-0.650218
-0.649251
-0.647953
-0.646325
-0.644372
-0.642104
-0.639531
-0.636671
-0.633542
-0.630164
-0.626561
-0.622756
-0.618775
-0.614642
-0.610381
-0.606012
-0.601555
-0.597025
-0.592436
-0.587797
-0.583112
-0.578384
-0.573607
-0.568771
-0.563858
-0.558844
-0.553699
-0.548385
-0.54286
-0.537075
-0.530977
-0.52451
-0.517614
-0.510229
-0.502286
-0.493721
-0.484468
-0.474566
-0.463917
-0.452476
-0.440212
-0.42711
-0.413166
-0.398386
-0.382788
-0.366402
-0.349272
-0.331456
-0.313024
-0.294061
-0.274667
-0.254951
-0.23504
-0.215066
-0.195179
-0.17553
-0.156281
-0.137596
-0.119641
-0.102588
-0.0866076
-0.0718616
-0.0585117
-0.0467127
-0.036615
-0.028252
-0.0217336
-0.0171416
-0.0145299
-0.0139322
-0.0154016
-0.0189396
-0.0244616
-0.0315147
-0.0402443
-0.0504998
-0.0620826
-0.0747625
-0.0882965
-0.102422
-0.116847
-0.131276
-0.145404
-0.158924
-0.171533
-0.182937
-0.192874
-0.201113
-0.207463
-0.211768
-0.212957
-0.211796
-0.208277
-0.202422
-0.194298
-0.184031
-0.171812
-0.157892
-0.142579
-0.126222
-0.109209
-0.0919534
-0.0748822
-0.0584302
-0.0430225
-0.029059
-0.0169073
-0.00689383
0.000717452
0.00572322
0.00798573
0.00743635
0.00413846
-0.00183733
-0.0103231
-0.0210718
-0.0337739
-0.048074
-0.063576
-0.0798515
-0.0964596
-0.112961
-0.128922
-0.143935
-0.157629
-0.169677
-0.179806
-0.187802
-0.193515
-0.196861
-0.197822
-0.19645
-0.192849
-0.187181
-0.17966
-0.170536
-0.160092
-0.148636
-0.13649
-0.123981
-0.11143
-0.0991467
-0.0874268
-0.0765348
-0.0667059
-0.0581427
-0.0510068
-0.0454192
-0.0414607
-0.0391684
-0.0385412
-0.0395358
-0.0420772
-0.0460565
-0.0513368
-0.0577587
-0.0651416
-0.0732908
-0.0820034
-0.0910712
-0.100287
-0.109444
-0.118349
-0.126816
-0.134675
-0.141783
-0.148011
-0.153249
-0.157413
-0.16044
-0.162293
-0.162958
-0.162442
-0.160776
-0.158009
-0.154207
-0.149451
-0.143839
-0.137476
-0.130477
-0.122964
-0.115061
-0.106894
-0.0985971
-0.0902626
-0.0820061
-0.0739402
-0.0661674
-0.0587818
-0.0518678
-0.0455024
-0.0397544
-0.0346853
-0.0303513
-0.0268017
-0.0240815
-0.0222312
-0.0212885
-0.692078
-0.691474
-0.690258
-0.688468
-0.685988
-0.682903
-0.67924
-0.675036
-0.670337
-0.665197
-0.659676
-0.653838
-0.647753
-0.641491
-0.635127
-0.628733
-0.622384
-0.616149
-0.610093
-0.604271
-0.59873
-0.593503
-0.588612
-0.58406
-0.579838
-0.57592
-0.572265
-0.568815
-0.565502
-0.56224
-0.558935
-0.55548
-0.551763
-0.547667
-0.543069
-0.537853
-0.531914
-0.525167
-0.516921
-0.50761
-0.497196
-0.485615
-0.472806
-0.458723
-0.443337
-0.426644
-0.408664
-0.389439
-0.369033
-0.347535
-0.325053
-0.301717
-0.277677
-0.253098
-0.228165
-0.203076
-0.178048
-0.153303
-0.129073
-0.105589
-0.0830887
-0.0618105
-0.0419805
-0.0238169
-0.00750919
0.00677249
0.0171501
0.0266936
0.0336539
0.0379434
0.0395165
0.0383565
0.0344848
0.0279592
0.0188918
0.00744907
-0.00617233
-0.0217498
-0.0390609
-0.0577416
-0.0774006
-0.0976984
-0.118247
-0.138637
-0.158447
-0.177261
-0.194664
-0.210261
-0.223687
-0.234616
-0.242777
-0.248006
-0.249742
-0.248247
-0.243512
-0.235574
-0.224546
-0.21064
-0.194157
-0.17547
-0.155023
-0.133303
-0.110847
-0.088218
-0.0659885
-0.0447337
-0.0250051
-0.00731433
0.00787773
0.0201776
0.0292655
0.0349146
0.0369976
0.0354619
0.0304521
0.0221023
0.0106898
-0.00342969
-0.0198266
-0.0380205
-0.0574892
-0.0776803
-0.09804
-0.118028
-0.137127
-0.154855
-0.170787
-0.184562
-0.195888
-0.204553
-0.210429
-0.213461
-0.213672
-0.211169
-0.206123
-0.19876
-0.189361
-0.178245
-0.165759
-0.152271
-0.138158
-0.123794
-0.109542
-0.0957437
-0.0827171
-0.0707444
-0.0600693
-0.0508957
-0.0433802
-0.037634
-0.0337216
-0.0316619
-0.0314316
-0.0329603
-0.0361505
-0.0408671
-0.0469469
-0.0542074
-0.0624439
-0.0714402
-0.0809744
-0.0908224
-0.100762
-0.110577
-0.120065
-0.129022
-0.137296
-0.144732
-0.1512
-0.156595
-0.160834
-0.163863
-0.165648
-0.166185
-0.165489
-0.1636
-0.160572
-0.156481
-0.151419
-0.145488
-0.138803
-0.131485
-0.12366
-0.115456
-0.107006
-0.0984965
-0.0899232
-0.0814552
-0.0732067
-0.065278
-0.0577611
-0.0507385
-0.0442848
-0.0384681
-0.0333464
-0.0289734
-0.0253963
-0.0226576
-0.0207962
-0.0198483
-0.751765
-0.75054
-0.748064
-0.74433
-0.739348
-0.733165
-0.72586
-0.717546
-0.708343
-0.698385
-0.687825
-0.676841
-0.665612
-0.654338
-0.643251
-0.632401
-0.622045
-0.612355
-0.603477
-0.595534
-0.588623
-0.582812
-0.578136
-0.574595
-0.572154
-0.570743
-0.570258
-0.57056
-0.571484
-0.572832
-0.574381
-0.575896
-0.577123
-0.577806
-0.577691
-0.576528
-0.574058
-0.570037
-0.564973
-0.558121
-0.549296
-0.538387
-0.52533
-0.510094
-0.492679
-0.473115
-0.451461
-0.427807
-0.402274
-0.375015
-0.34621
-0.31607
-0.28483
-0.252753
-0.220123
-0.187236
-0.154412
-0.121982
-0.0902848
-0.0596673
-0.0304756
-0.00302771
0.0223134
0.0452049
0.0654323
0.0826867
0.0966979
0.10737
0.114514
0.118005
0.117773
0.113798
0.106127
0.0948413
0.0801197
0.0621887
0.0413359
0.0178991
-0.00772525
-0.0350879
-0.0637414
-0.093045
-0.122493
-0.151515
-0.179525
-0.205937
-0.230177
-0.251695
-0.269986
-0.284585
-0.295061
-0.300993
-0.303668
-0.301554
-0.294779
-0.283494
-0.267945
-0.248503
-0.225633
-0.199881
-0.17189
-0.142358
-0.112034
-0.0816937
-0.052124
-0.024099
0.00165185
0.0244628
0.0437411
0.0590169
0.0699253
0.0762373
0.0778818
0.0745697
0.0668223
0.0548819
0.0391501
0.0201401
-0.00154568
-0.025249
-0.0502707
-0.0758843
-0.101362
-0.12607
-0.149362
-0.17066
-0.189475
-0.205408
-0.218159
-0.227526
-0.23341
-0.235816
-0.234847
-0.230676
-0.22356
-0.213821
-0.201831
-0.187999
-0.172758
-0.156556
-0.139842
-0.123049
-0.106591
-0.0908444
-0.0761568
-0.0628272
-0.0511098
-0.0412057
-0.0332623
-0.0273741
-0.0235835
-0.0218824
-0.0222139
-0.0244802
-0.0285479
-0.0342484
-0.0413864
-0.0497468
-0.0590953
-0.0691892
-0.0797831
-0.0906313
-0.101496
-0.112146
-0.122369
-0.13194
-0.140733
-0.148573
-0.155334
-0.160913
-0.165236
-0.168252
-0.16994
-0.170301
-0.169368
-0.167184
-0.163817
-0.159353
-0.153894
-0.147554
-0.140458
-0.132733
-0.124514
-0.115928
-0.107081
-0.0983809
-0.0894684
-0.0807341
-0.0722589
-0.0641374
-0.0564586
-0.0493029
-0.0427417
-0.036841
-0.0316555
-0.0272358
-0.0236262
-0.0208661
-0.0189922
-0.0180384
-0.866622
-0.864019
-0.858756
-0.850793
-0.840129
-0.826794
-0.810825
-0.79325
-0.774076
-0.753628
-0.732254
-0.710332
-0.688255
-0.666437
-0.645299
-0.625248
-0.606691
-0.590018
-0.575405
-0.563206
-0.553621
-0.546779
-0.542735
-0.541464
-0.542861
-0.546731
-0.552814
-0.560769
-0.570194
-0.580644
-0.591632
-0.602664
-0.61324
-0.622864
-0.631069
-0.637446
-0.641735
-0.643151
-0.641793
-0.637514
-0.630129
-0.619489
-0.605491
-0.588094
-0.567314
-0.543225
-0.515946
-0.485648
-0.452541
-0.416879
-0.378957
-0.339104
-0.297681
-0.255076
-0.211707
-0.168017
-0.124463
-0.0815189
-0.0396488
0.000673543
0.0385119
0.0742297
0.106996
0.13636
0.161938
0.183372
0.20035
0.212621
0.219979
0.222287
0.219473
0.211543
0.198594
0.180815
0.158411
0.131724
0.101173
0.0672438
0.0305021
-0.00841296
-0.0488363
-0.0899852
-0.131101
-0.171398
-0.21007
-0.246338
-0.279429
-0.308621
-0.333265
-0.352788
-0.366714
-0.374629
-0.376679
-0.372567
-0.362272
-0.345967
-0.324015
-0.296947
-0.265419
-0.230211
-0.192221
-0.152416
-0.111827
-0.0715181
-0.0325448
0.00406751
0.0373621
0.0664713
0.0906635
0.10934
0.122083
0.128634
0.128881
0.12332
0.111891
0.0951273
0.0736675
0.0482605
0.019748
-0.0109792
-0.0429995
-0.075399
-0.107022
-0.137491
-0.165792
-0.191267
-0.21337
-0.231674
-0.245881
-0.255818
-0.261442
-0.262834
-0.260197
-0.253805
-0.244023
-0.231289
-0.216089
-0.198937
-0.18037
-0.160926
-0.141135
-0.121516
-0.102501
-0.0845228
-0.0679581
-0.0531208
-0.0402697
-0.0296006
-0.0212451
-0.0152767
-0.0117088
-0.0104998
-0.0115451
-0.0147195
-0.0198493
-0.0267262
-0.035116
-0.0447665
-0.0554098
-0.0667741
-0.0785868
-0.0905792
-0.102495
-0.114088
-0.125128
-0.135405
-0.144767
-0.153048
-0.160123
-0.165894
-0.170293
-0.173278
-0.174838
-0.174984
-0.173769
-0.171239
-0.167476
-0.162581
-0.156666
-0.149859
-0.142293
-0.134107
-0.125446
-0.116448
-0.107258
-0.098088
-0.0888993
-0.0798872
-0.071165
-0.062832
-0.0549761
-0.047675
-0.0409977
-0.0350065
-0.029753
-0.0252841
-0.0216408
-0.0188593
-0.0169729
-0.0160136
-1.0273
-1.02219
-1.01192
-0.9966
-0.976464
-0.951893
-0.9235
-0.890891
-0.854519
-0.815218
-0.773751
-0.731095
-0.688297
-0.646428
-0.606538
-0.569603
-0.536479
-0.507875
-0.48435
-0.466361
-0.454052
-0.447668
-0.447205
-0.452495
-0.463196
-0.478797
-0.498648
-0.521963
-0.547908
-0.575488
-0.603679
-0.631467
-0.657912
-0.682183
-0.703545
-0.721364
-0.735095
-0.744869
-0.749929
-0.749929
-0.744699
-0.734179
-0.718387
-0.697406
-0.671377
-0.640499
-0.605025
-0.565265
-0.521574
-0.474361
-0.424072
-0.371193
-0.316256
-0.259827
-0.202494
-0.144867
-0.087591
-0.0313231
0.0232781
0.0756289
0.125095
0.171066
0.212929
0.250115
0.282109
0.308451
0.328744
0.34266
0.34995
0.35046
0.344131
0.330997
0.311201
0.285001
0.252751
0.214931
0.172121
0.124995
0.0743383
0.0210167
-0.0340431
-0.0898323
-0.145313
-0.19943
-0.251124
-0.299352
-0.343102
-0.381437
-0.41353
-0.438668
-0.456277
-0.465931
-0.467098
-0.46013
-0.445022
-0.422071
-0.391815
-0.354988
-0.312502
-0.265427
-0.214984
-0.162486
-0.109316
-0.0568859
-0.00657839
0.0402657
0.0824153
0.118799
0.14851
0.170857
0.185376
0.191841
0.190304
0.181073
0.164611
0.141611
0.112953
0.0796618
0.0428642
0.00373666
-0.0365222
-0.076734
-0.115729
-0.152633
-0.186486
-0.216507
-0.242089
-0.262786
-0.278318
-0.288564
-0.293562
-0.293499
-0.288693
-0.279543
-0.266546
-0.250272
-0.231338
-0.21038
-0.188042
-0.164961
-0.14174
-0.119071
-0.0972643
-0.0768885
-0.0583395
-0.0419394
-0.027942
-0.0165353
-0.00782964
-0.00186833
0.00136574
0.00194626
6.15948e-05
-0.00416552
-0.0105049
-0.0187035
-0.0284847
-0.0395573
-0.0516177
-0.0643629
-0.0774919
-0.0907139
-0.103752
-0.116349
-0.128246
-0.13926
-0.149214
-0.157948
-0.165338
-0.171294
-0.175753
-0.178687
-0.180092
-0.17999
-0.178462
-0.175549
-0.171353
-0.165989
-0.159581
-0.152269
-0.1442
-0.135523
-0.12639
-0.116953
-0.107364
-0.0977803
-0.0882635
-0.0789583
-0.0699798
-0.0614281
-0.0533902
-0.045941
-0.0391459
-0.0330636
-0.0277424
-0.0232255
-0.01955
-0.0167488
-0.0148514
-0.0138872
-1.33643
-1.32588
-1.30463
-1.2727
-1.23027
-1.17777
-1.11589
-1.0458
-0.96995
-0.89035
-0.808192
-0.726006
-0.64609
-0.570464
-0.500835
-0.438557
-0.384672
-0.339978
-0.305139
-0.280758
-0.267304
-0.265035
-0.273932
-0.293674
-0.323542
-0.362381
-0.408592
-0.460251
-0.515667
-0.572746
-0.629334
-0.683515
-0.733687
-0.778697
-0.818126
-0.850394
-0.875663
-0.893721
-0.904282
-0.907154
-0.90228
-0.889725
-0.869652
-0.842305
-0.807995
-0.767105
-0.72007
-0.66738
-0.609579
-0.547249
-0.481032
-0.411617
-0.339718
-0.266082
-0.1915
-0.116758
-0.0426775
0.0291637
0.0993461
0.166308
0.22924
0.28735
0.339888
0.38614
0.425472
0.45731
0.481164
0.496632
0.503433
0.50139
0.490459
0.470722
0.442406
0.405873
0.361618
0.3103
0.252703
0.18973
0.122424
0.0519392
-0.0205045
-0.0936036
-0.165993
-0.236295
-0.303137
-0.365194
-0.421182
-0.469919
-0.51035
-0.541578
-0.56293
-0.573981
-0.573747
-0.562969
-0.541742
-0.510533
-0.470079
-0.421382
-0.365673
-0.304378
-0.239123
-0.171629
-0.103701
-0.0371678
0.0261994
0.084705
0.136812
0.18121
0.216818
0.242842
0.2588
0.264531
0.26021
0.246304
0.223559
0.192956
0.155688
0.113114
0.0666951
0.0179381
-0.031647
-0.0805787
-0.127578
-0.171505
-0.211278
-0.246027
-0.275101
-0.298059
-0.314664
-0.324872
-0.32882
-0.326852
-0.319387
-0.306982
-0.290288
-0.27002
-0.24693
-0.221793
-0.195368
-0.168393
-0.141565
-0.115599
-0.0909226
-0.068097
-0.0475445
-0.0295936
-0.0144971
-0.0024226
0.00654653
0.0123994
0.0151988
0.0150704
0.0121932
0.00679179
-0.000869275
-0.0104915
-0.0217561
-0.0343327
-0.047882
-0.0620683
-0.0765632
-0.0910531
-0.105243
-0.118862
-0.131623
-0.143381
-0.153925
-0.163103
-0.170796
-0.176919
-0.18142
-0.184281
-0.185512
-0.185157
-0.183272
-0.179951
-0.175301
-0.169445
-0.162525
-0.154692
-0.146104
-0.136921
-0.127306
-0.117416
-0.10742
-0.0974394
-0.0875831
-0.0779809
-0.0687459
-0.059977
-0.0517596
-0.0441653
-0.0372558
-0.0310858
-0.0257
-0.0211382
-0.0174338
-0.0146154
-0.012709
-0.011741
-1.83339
-1.81464
-1.77709
-1.72114
-1.64781
-1.55842
-1.4543
-1.33516
-1.20597
-1.06482
-0.921483
-0.778745
-0.639559
-0.506748
-0.383106
-0.271356
-0.174125
-0.0938162
-0.0324564
0.00845089
0.0279321
0.0257611
0.00234205
-0.0412703
-0.103321
-0.181241
-0.271666
-0.368169
-0.471286
-0.574209
-0.672986
-0.764325
-0.846297
-0.918368
-0.979193
-1.02933
-1.06777
-1.09436
-1.10928
-1.11286
-1.10551
-1.08764
-1.05976
-1.02237
-0.976051
-0.921401
-0.85907
-0.789754
-0.714201
-0.633208
-0.547606
-0.458269
-0.366128
-0.272156
-0.177383
-0.0829068
0.0103008
0.101375
0.189191
0.272675
0.3508
0.422568
0.487043
0.543353
0.590713
0.62843
0.655919
0.672712
0.678477
0.673037
0.65637
0.628629
0.590135
0.541384
0.483034
0.415957
0.341179
0.259872
0.173382
0.0831822
-0.00916442
-0.101997
-0.193589
-0.282196
-0.366094
-0.443616
-0.513164
-0.573282
-0.62268
-0.660276
-0.685248
-0.697276
-0.694918
-0.679386
-0.650779
-0.609736
-0.557254
-0.494667
-0.423588
-0.345875
-0.263623
-0.179036
-0.0944043
-0.0120247
0.0658794
0.137222
0.200138
0.253046
0.294692
0.324204
0.341106
0.345321
0.337238
0.317541
0.287268
0.247759
0.20058
0.147476
0.0902808
0.0308492
-0.0289591
-0.0871256
-0.142654
-0.193961
-0.239823
-0.279306
-0.311744
-0.33672
-0.354066
-0.363839
-0.36628
-0.361986
-0.351418
-0.335324
-0.314531
-0.289907
-0.262355
-0.23278
-0.202061
-0.17104
-0.140501
-0.111185
-0.0836132
-0.0583509
-0.0358348
-0.0164003
-0.000287694
0.0123614
0.0214924
0.027134
0.029393
0.0284476
0.0244955
0.0178384
0.00878383
-0.0023242
-0.0151233
-0.0292443
-0.0443123
-0.0599597
-0.0758318
-0.0915922
-0.106928
-0.121549
-0.135185
-0.147659
-0.158772
-0.168374
-0.176348
-0.182617
-0.187139
-0.189907
-0.190945
-0.190312
-0.188065
-0.184325
-0.17921
-0.172857
-0.165419
-0.157061
-0.147952
-0.138265
-0.128168
-0.117825
-0.107432
-0.0970663
-0.0868753
-0.0769819
-0.0674969
-0.0585181
-0.0501284
-0.042396
-0.0353784
-0.0291263
-0.0236808
-0.0190786
-0.0153491
-0.0125168
-0.0106036
-0.00963302
-2.5886
-2.55447
-2.4853
-2.37991
-2.23742
-2.05755
-1.84261
-1.59712
-1.33948
-1.0715
-0.801031
-0.538579
-0.292353
-0.0681868
0.129828
0.298904
0.437133
0.543201
0.616126
0.65505
0.659109
0.62772
0.560609
0.457856
0.320696
0.152141
-0.0417143
-0.245296
-0.446027
-0.628951
-0.79312
-0.932563
-1.04957
-1.14565
-1.22329
-1.28416
-1.32867
-1.35723
-1.37047
-1.36915
-1.35405
-1.32596
-1.28566
-1.2339
-1.17147
-1.09918
-1.01788
-0.928444
-0.831787
-0.728892
-0.620785
-0.508535
-0.393258
-0.276083
-0.158158
-0.0428051
0.072534
0.184548
0.292031
0.393772
0.488557
0.575195
0.652582
0.719664
0.775509
0.819299
0.85035
0.868117
0.872237
0.862531
0.839026
0.801936
0.751707
0.688985
0.614627
0.529743
0.435632
0.333771
0.225842
0.113699
-0.000725329
-0.115377
-0.228121
-0.336819
-0.439363
-0.533716
-0.617914
-0.690172
-0.748952
-0.792909
-0.820932
-0.831986
-0.828217
-0.807326
-0.770165
-0.71779
-0.651567
-0.573232
-0.484846
-0.388757
-0.287591
-0.184092
-0.0811074
0.0185555
0.112182
0.19725
0.271549
0.33323
0.380866
0.413523
0.430756
0.432589
0.419804
0.393204
0.354239
0.304652
0.246436
0.18176
0.112862
0.0419441
-0.0289731
-0.0962336
-0.160835
-0.219678
-0.271611
-0.315684
-0.351243
-0.377919
-0.395636
-0.404587
-0.405184
-0.398075
-0.384004
-0.363875
-0.33868
-0.309445
-0.277229
-0.243066
-0.207948
-0.172822
-0.138572
-0.105933
-0.0755069
-0.0478752
-0.0234846
-0.00266373
0.0143626
0.0274801
0.03667
0.0420019
0.0436305
0.0417796
0.0366991
0.0287358
0.018248
0.00562639
-0.00872362
-0.0243951
-0.0409777
-0.0580743
-0.075305
-0.0923129
-0.10877
-0.124356
-0.138834
-0.151997
-0.16365
-0.173647
-0.181876
-0.188268
-0.192791
-0.195448
-0.196278
-0.195351
-0.192743
-0.188583
-0.183005
-0.176158
-0.168207
-0.159331
-0.149711
-0.139529
-0.128963
-0.118173
-0.107408
-0.0966679
-0.0861551
-0.0759825
-0.0662591
-0.0570813
-0.0485297
-0.0406684
-0.0335507
-0.0272231
-0.0217237
-0.0170859
-0.0133355
-0.0104925
-0.00857483
-0.00760284
-3.71401
-3.66615
-3.56898
-3.41952
-3.2151
-2.95009
-2.62969
-2.20037
-1.80902
-1.32302
-0.899537
-0.513708
-0.167261
0.138532
0.403575
0.628071
0.811632
0.953424
1.05231
1.10699
1.11574
1.07706
0.989206
0.850276
0.659212
0.416535
0.0854542
-0.196044
-0.525547
-0.772196
-0.985007
-1.16589
-1.31769
-1.44108
-1.53712
-1.60675
-1.65198
-1.67592
-1.68085
-1.66845
-1.64005
-1.59678
-1.53962
-1.46951
-1.38737
-1.29411
-1.19074
-1.07826
-0.957762
-0.830387
-0.697344
-0.559901
-0.419396
-0.277231
-0.134918
0.00598706
0.144332
0.278487
0.406904
0.528084
0.640564
0.742934
0.833888
0.912196
0.976765
1.02664
1.06105
1.07938
1.08121
1.06638
1.03504
0.987391
0.924044
0.845825
0.753805
0.649364
0.534104
0.409835
0.278614
0.142685
0.00440029
-0.133759
-0.269226
-0.399428
-0.521828
-0.634007
-0.733651
-0.818644
-0.88717
-0.937703
-0.969081
-0.980545
-0.972699
-0.944871
-0.897765
-0.832614
-0.751115
-0.655422
-0.548078
-0.43197
-0.310306
-0.186424
-0.0637672
0.0542837
0.164494
0.263893
0.349891
0.42038
0.473784
0.509133
0.526068
0.524867
0.506254
0.471702
0.423017
0.362362
0.292188
0.215128
0.133879
0.0510713
-0.0307596
-0.108796
-0.181988
-0.2482
-0.306017
-0.354419
-0.392778
-0.42079
-0.438499
-0.446242
-0.444628
-0.434358
-0.416478
-0.392059
-0.362256
-0.328263
-0.291283
-0.252476
-0.212947
-0.173732
-0.135866
-0.0999823
-0.0667948
-0.0369017
-0.0107545
0.0113341
0.0291606
0.042639
0.0517919
0.0567299
0.0576566
0.0548457
0.0485978
0.0393038
0.0273722
0.0132391
-0.00265006
-0.0198496
-0.0379162
-0.0564255
-0.0749736
-0.0931863
-0.110721
-0.127222
-0.142502
-0.156314
-0.168472
-0.178831
-0.187287
-0.193779
-0.198284
-0.200818
-0.201431
-0.200206
-0.197239
-0.192666
-0.186633
-0.179302
-0.170853
-0.161474
-0.151359
-0.140702
-0.129687
-0.118487
-0.107328
-0.0962515
-0.0854358
-0.0749998
-0.0650525
-0.0556887
-0.046987
-0.0390074
-0.0317984
-0.0254024
-0.0198549
-0.0151864
-0.0114192
-0.00856883
-0.00664874
-0.00567637
-5.24736
-5.19892
-5.09762
-4.93498
-4.69565
-4.36154
-3.89729
-3.24963
-2.32464
-1.3011
-0.544232
0.0916529
0.628081
1.07716
1.44805
1.74767
1.98091
2.15091
2.25927
2.30579
2.28834
2.20339
2.04503
1.8041
1.46818
1.02916
0.375501
-0.358716
-0.864205
-1.20908
-1.46428
-1.65299
-1.79185
-1.89286
-1.96362
-2.00974
-2.03508
-2.04105
-2.02857
-1.99858
-1.95192
-1.88942
-1.81199
-1.72052
-1.61597
-1.49932
-1.37163
-1.23403
-1.08774
-0.934028
-0.77429
-0.609979
-0.442636
-0.273861
-0.10536
0.061212
0.224124
0.381623
0.531948
0.673375
0.80422
0.922844
1.02773
1.11747
1.1908
1.24665
1.28414
1.30258
1.30156
1.28093
1.24076
1.1815
1.10388
1.00891
0.897905
0.772522
0.634691
0.486578
0.330637
0.169537
0.00606348
-0.156844
-0.316159
-0.468855
-0.611966
-0.742656
-0.858227
-0.956253
-1.03465
-1.09169
-1.12611
-1.13717
-1.12482
-1.08918
-1.03106
-0.951976
-0.853956
-0.739611
-0.612005
-0.474606
-0.331238
-0.185874
-0.0426008
0.0945942
0.221938
0.335983
0.433762
0.512919
0.571735
0.609218
0.625134
0.619971
0.594829
0.551497
0.492246
0.419746
0.336932
0.246925
0.15289
0.0578776
-0.035202
-0.123585
-0.205485
-0.278901
-0.342331
-0.394738
-0.435533
-0.464507
-0.481834
-0.488011
-0.483822
-0.470179
-0.44829
-0.419419
-0.384903
-0.346093
-0.304342
-0.260929
-0.217049
-0.173816
-0.132514
-0.0934915
-0.0576729
-0.0256573
0.00211381
0.0253413
0.043852
0.0575907
0.0666202
0.0710978
0.0712714
0.067467
0.0600367
0.0494119
0.0360511
0.0204321
0.00303972
-0.0156434
-0.0351431
-0.0550096
-0.0748185
-0.0941786
-0.112738
-0.130092
-0.146129
-0.160546
-0.173167
-0.183855
-0.192511
-0.199082
-0.203555
-0.205955
-0.206348
-0.204828
-0.201507
-0.196532
-0.190059
-0.182263
-0.173334
-0.163474
-0.152887
-0.141777
-0.130337
-0.118749
-0.107221
-0.0958275
-0.0847289
-0.0740472
-0.0638917
-0.0543563
-0.0455171
-0.0374301
-0.0301387
-0.0236814
-0.0180915
-0.0133969
-0.00961677
-0.00676175
-0.00484115
-0.00386929
-6.9029
-6.87011
-6.80364
-6.70785
-6.5721
-6.45185
-6.27234
-6.16825
-1.67514
-1.76714
-1.92791
-2.04193
-2.1639
-2.26494
-2.3445
-2.39872
-2.42919
-2.43764
-2.42546
-2.39386
-2.34393
-2.27658
-2.19267
-2.09301
-1.97846
-1.84993
-1.70846
-1.55514
-1.39119
-1.21793
-1.03679
-0.849305
-0.657126
-0.461988
-0.265713
-0.0701985
0.122633
0.310772
0.492218
0.664966
0.827057
0.976572
1.11165
1.23057
1.33173
1.41371
1.47531
1.51553
1.53363
1.52917
1.50206
1.4524
1.38074
1.28798
1.17533
1.04437
0.897047
0.735645
0.562694
0.381064
0.19387
0.00434397
-0.184099
-0.367955
-0.543736
-0.708019
-0.857559
-0.989265
-1.10039
-1.18856
-1.25188
-1.28892
-1.29889
-1.28162
-1.23751
-1.16761
-1.07371
-0.958247
-0.824309
-0.675512
-0.515926
-0.350038
-0.182487
-0.0180208
0.138736
0.283462
0.412211
0.521655
0.609174
0.672948
0.711997
0.726223
0.716431
0.684009
0.631194
0.560754
0.475863
0.379969
0.276696
0.16966
0.0623472
-0.0419091
-0.140374
-0.230807
-0.311139
-0.379838
-0.435877
-0.478732
-0.508314
-0.524925
-0.529238
-0.52224
-0.505035
-0.479006
-0.44561
-0.406363
-0.362769
-0.316316
-0.268402
-0.220303
-0.173114
-0.128701
-0.0866181
-0.0483289
-0.0143474
0.0149028
0.039143
0.0582262
0.0721338
0.080969
0.0849351
0.084323
0.0795156
0.0709064
0.0589725
0.0442162
0.0271562
0.00831571
-0.0117897
-0.0326573
-0.0538134
-0.074815
-0.0952547
-0.114754
-0.132945
-0.149667
-0.16464
-0.177685
-0.188667
-0.197497
-0.204129
-0.208556
-0.210817
-0.210989
-0.209181
-0.205519
-0.200157
-0.193265
-0.185025
-0.17564
-0.165323
-0.154291
-0.142754
-0.130914
-0.118962
-0.107094
-0.0954042
-0.0840436
-0.0731348
-0.0627874
-0.0530948
-0.0441308
-0.035947
-0.028582
-0.0220702
-0.016443
-0.0117266
-0.0079369
-0.00507976
-0.0031602
-0.00218962
-8.63353
-8.62099
-8.59694
-8.56353
-8.51908
-8.48657
-8.42061
-8.41461
-2.64259
-2.64972
-2.72285
-2.75986
-2.80258
-2.83698
-2.86126
-2.87407
-2.87254
-2.8542
-2.81824
-2.76439
-2.6927
-2.6035
-2.49726
-2.37461
-2.2363
-2.08321
-1.91635
-1.73689
-1.5461
-1.34542
-1.13641
-0.920767
-0.700326
-0.477028
-0.252939
-0.0301299
0.189182
0.402731
0.608273
0.803547
0.986347
1.15453
1.30599
1.43881
1.5512
1.64159
1.70862
1.75122
1.76858
1.76021
1.72611
1.66642
1.58178
1.47328
1.34236
1.19084
1.02099
0.835432
0.63709
0.429256
0.215494
-0.000496943
-0.214826
-0.423504
-0.622565
-0.808142
-0.976561
-1.12435
-1.24842
-1.34615
-1.41541
-1.45467
-1.46307
-1.44044
-1.38735
-1.3051
-1.19581
-1.06232
-0.908205
-0.737656
-0.555378
-0.366536
-0.176455
0.00942841
0.185852
0.347923
0.491211
0.612024
0.707491
0.775728
0.815771
0.827686
0.812662
0.772413
0.709608
0.627555
0.529954
0.420779
0.304147
0.184117
0.0645758
-0.0505173
-0.158764
-0.257403
-0.344284
-0.417856
-0.477138
-0.521691
-0.551546
-0.56716
-0.569372
-0.559401
-0.538526
-0.508305
-0.470396
-0.426472
-0.378195
-0.327175
-0.274924
-0.222806
-0.172055
-0.124253
-0.0794969
-0.0389361
-0.00315193
0.0274328
0.0525607
0.072115
0.0861126
0.094696
0.0981176
0.096707
0.0909023
0.0811361
0.0679302
0.0518291
0.0333885
0.0131672
-0.00828774
-0.0304475
-0.0528169
-0.0749366
-0.0963861
-0.116754
-0.135721
-0.153077
-0.168557
-0.181984
-0.19323
-0.20221
-0.208886
-0.21326
-0.215379
-0.215334
-0.213247
-0.209258
-0.20353
-0.19624
-0.187581
-0.177767
-0.167021
-0.15557
-0.143635
-0.131424
-0.119133
-0.106953
-0.0949886
-0.0833869
-0.0722696
-0.0617464
-0.0519109
-0.0428343
-0.0345641
-0.0271335
-0.0205735
-0.0149138
-0.0101794
-0.00638299
-0.00352583
-0.00160852
-0.000639799
-10.2253
-10.2186
-10.2053
-10.1868
-10.1612
-10.1444
-10.1049
-10.1043
-3.21757
-3.2146
-3.26712
-3.29089
-3.31795
-3.33423
-3.33778
-3.32748
-3.30254
-3.2616
-3.20375
-3.12841
-3.03532
-2.92447
-2.79609
-2.65063
-2.48873
-2.31122
-2.11912
-1.91363
-1.69611
-1.46812
-1.23134
-0.987664
-0.73909
-0.487774
-0.235979
0.0139343
0.25953
0.498285
0.727691
0.945243
1.14849
1.33504
1.50259
1.64899
1.77228
1.87072
1.94284
1.98746
2.00373
1.99113
1.94966
1.87956
1.78161
1.65706
1.50758
1.33525
1.14265
0.932756
0.708886
0.474756
0.234382
-0.00807641
-0.24824
-0.481637
-0.703831
-0.910505
-1.09756
-1.26115
-1.39785
-1.50479
-1.57963
-1.62074
-1.62718
-1.59884
-1.53643
-1.4415
-1.31651
-1.16471
-0.990176
-0.797682
-0.592569
-0.380701
-0.168096
0.0391173
0.235025
0.414167
0.571636
0.703378
0.806316
0.878486
0.918984
0.928054
0.907344
0.858855
0.78575
0.691871
0.581453
0.459011
0.329138
0.196312
0.0647096
-0.0605814
-0.178315
-0.284745
-0.377742
-0.455768
-0.517902
-0.56381
-0.593648
-0.608037
-0.607987
-0.594945
-0.570356
-0.535968
-0.49362
-0.445138
-0.392335
-0.336933
-0.280548
-0.224627
-0.170485
-0.119574
-0.0722964
-0.0296463
0.00777586
0.0395556
0.0654549
0.0853905
0.0994105
0.107701
0.110559
0.108367
0.101571
0.0906847
0.0762571
0.0588736
0.0391236
0.0175982
-0.00512566
-0.0284959
-0.0519975
-0.0751571
-0.0975452
-0.118708
-0.138391
-0.156329
-0.172268
-0.18604
-0.197519
-0.206629
-0.213335
-0.217648
-0.219626
-0.21937
-0.217019
-0.21272
-0.206646
-0.198983
-0.189932
-0.179717
-0.168571
-0.156731
-0.144426
-0.131872
-0.119268
-0.106802
-0.0945863
-0.0827638
-0.071456
-0.060773
-0.050808
-0.0416304
-0.0332835
-0.0257949
-0.0191922
-0.0135043
-0.00875513
-0.00495448
-0.00209899
-0.000184881
0.00078157
-11.6614
-11.6577
-11.6504
-11.6405
-11.6276
-11.6198
-11.6003
-11.603
-3.79458
-3.7757
-3.79875
-3.8021
-3.80503
-3.79964
-3.78332
-3.75396
-3.70998
-3.64993
-3.57285
-3.47802
-3.36503
-3.23372
-3.08418
-2.91674
-2.73198
-2.53072
-2.314
-2.08308
-1.83941
-1.58465
-1.32066
-1.04947
-0.773297
-0.494494
-0.215543
0.0609392
0.332277
0.59569
0.848423
1.08772
1.31089
1.51531
1.69844
1.85795
1.99169
2.09777
2.1746
2.22091
2.23579
2.21877
2.16964
2.08896
1.9776
1.83696
1.66894
1.47585
1.26062
1.02658
0.777417
0.517272
0.250612
-0.017944
-0.283538
-0.541225
-0.786101
-1.0134
-1.21863
-1.39755
-1.54643
-1.66214
-1.74217
-1.78477
-1.78896
-1.75467
-1.68277
-1.57507
-1.43432
-1.26421
-1.06933
-0.855018
-0.627256
-0.392603
-0.157791
0.0703835
0.285358
0.481092
0.652227
0.794362
0.904239
0.97982
1.02029
1.02605
0.999363
0.94238
0.85884
0.753113
0.629976
0.494467
0.351655
0.206412
0.0629419
-0.0716474
-0.198612
-0.312345
-0.410986
-0.493036
-0.557648
-0.604599
-0.634177
-0.647174
-0.64479
-0.628606
-0.600327
-0.561855
-0.515199
-0.462331
-0.4052
-0.345637
-0.28535
-0.225857
-0.168533
-0.114769
-0.0651492
-0.0205885
0.0183142
0.0511569
0.0777236
0.0979608
0.111949
0.119918
0.122205
0.119234
0.111493
0.0995348
0.083947
0.0653514
0.0443694
0.0216231
-0.0022849
-0.0267808
-0.0513315
-0.0754514
-0.0987087
-0.120591
-0.140934
-0.159401
-0.175757
-0.189837
-0.201522
-0.210742
-0.217467
-0.221717
-0.223556
-0.223098
-0.220495
-0.215905
-0.209509
-0.201498
-0.192083
-0.181495
-0.169979
-0.157779
-0.145133
-0.132263
-0.119373
-0.106646
-0.0942011
-0.0821777
-0.0706966
-0.0598687
-0.0497872
-0.0405194
-0.0321045
-0.0245646
-0.0179245
-0.0122121
-0.00745089
-0.00364803
-0.000795476
0.00111473
0.00207864
-12.9456
-12.9436
-12.9395
-12.934
-12.9269
-12.923
-12.9125
-12.9151
-4.2823
-4.25945
-4.27048
-4.26226
-4.25026
-4.22945
-4.1975
-4.15228
-4.09214
-4.01561
-3.92159
-3.80926
-3.67808
-3.52778
-3.35838
-3.17013
-2.9636
-2.73959
-2.49919
-2.24375
-1.97482
-1.69418
-1.40385
-1.10602
-0.803106
-0.49766
-0.192404
0.109808
0.406059
0.693321
0.968594
1.22888
1.47124
1.69283
1.89091
2.06295
2.20661
2.31987
2.40101
2.44869
2.46193
2.44024
2.38348
2.29226
2.16758
2.01104
1.82473
1.61125
1.37381
1.11611
0.842208
0.556652
0.264356
-0.029621
-0.319949