/*--------------------------------*- C++ -*----------------------------------*\
  =========                 |
  \\      /  F ield         | OpenFOAM: The Open Source CFD Toolbox
   \\    /   O peration     | Website:  https://openfoam.org
    \\  /    A nd           | Version:  12
     \\/     M anipulation  |
\*---------------------------------------------------------------------------*/
FoamFile
{
    format      ascii;
    class       volScalarField;
    location    "9";
    object      p;
}
// * * * * * * * * * * * * * * * * * * * * * * * * * * * * * * * * * * * * * //

dimensions      [0 2 -2 0 0 0 0];

internalField   nonuniform List<scalar> 
400
(
3.41348e-08
-0.000133514
-0.000276184
-0.000164475
-0.00101436
-0.00291628
-0.00514306
-0.00716633
-0.00878377
-0.0098773
-0.0104126
-0.0103587
-0.00969919
-0.0082216
-0.0057654
-0.00227698
0.00209889
0.00675556
0.0100777
0.0114389
3.08683e-06
-9.73429e-05
-0.000254146
-0.000895925
-0.00225729
-0.00422317
-0.00624539
-0.0081576
-0.00965349
-0.0106716
-0.0111719
-0.0111627
-0.0106045
-0.00938736
-0.0073381
-0.00436479
-0.000466943
0.00398699
0.0077856
0.00993192
0.00035963
-0.000130082
-0.000963387
-0.0023676
-0.00428445
-0.00631267
-0.00828021
-0.0100277
-0.0112923
-0.0120958
-0.012441
-0.012345
-0.0117853
-0.0107465
-0.00914251
-0.00688571
-0.00383474
-1.27455e-05
0.00374857
0.00626974
0.000214322
-0.000641256
-0.00219824
-0.00431603
-0.00657146
-0.00863324
-0.0103556
-0.0116566
-0.0125832
-0.0131471
-0.0133466
-0.0132016
-0.012719
-0.0118801
-0.0106339
-0.00894668
-0.00671995
-0.00373973
-0.000500124
0.00186318
-0.00073233
-0.00187236
-0.00395045
-0.00640909
-0.00865975
-0.0104923
-0.0118942
-0.0129169
-0.0136342
-0.0140559
-0.0141834
-0.0140284
-0.0136037
-0.0129137
-0.0119276
-0.0106158
-0.00901012
-0.00680008
-0.00438502
-0.00226064
-0.00246594
-0.00370532
-0.00590859
-0.00831271
-0.0103499
-0.0118972
-0.0130477
-0.0138949
-0.0144834
-0.0148195
-0.0149078
-0.0147604
-0.0143955
-0.0138281
-0.0130505
-0.0120042
-0.0108131
-0.00918894
-0.00747358
-0.00571132
-0.00449105
-0.0056705
-0.0077194
-0.0099103
-0.0116767
-0.0129703
-0.0139475
-0.0146707
-0.0151618
-0.0154388
-0.0155108
-0.0153812
-0.0150694
-0.0145885
-0.0139716
-0.0131278
-0.0122296
-0.011015
-0.00981967
-0.00838867
-0.00632583
-0.00738307
-0.00919646
-0.0111461
-0.0126656
-0.0137643
-0.0146199
-0.0152466
-0.0156586
-0.0158841
-0.0159383
-0.0158268
-0.0155704
-0.0151666
-0.0146769
-0.0139792
-0.0133041
-0.0123381
-0.0115004
-0.0103722
-0.00767475
-0.00861932
-0.0102351
-0.0119999
-0.0133334
-0.0143037
-0.0150678
-0.0156178
-0.0159691
-0.0161531
-0.0161943
-0.0160989
-0.0158927
-0.0155514
-0.0151655
-0.0145591
-0.01407
-0.0131919
-0.0126723
-0.0117537
-0.00845279
-0.00929912
-0.0107945
-0.0124544
-0.0136807
-0.0145842
-0.0152953
-0.0158005
-0.0161211
-0.0162812
-0.0163222
-0.0162357
-0.0160623
-0.0157542
-0.0154529
-0.014868
-0.0145627
-0.0136031
-0.0134139
-0.0125919
-0.00862683
-0.00941893
-0.0108617
-0.0124979
-0.0137179
-0.0146225
-0.0153257
-0.0158212
-0.0161364
-0.0162874
-0.0163247
-0.0162429
-0.0160856
-0.0157939
-0.0155434
-0.014933
-0.0147633
-0.0136049
-0.0138032
-0.0128466
-0.00820405
-0.0090075
-0.0104537
-0.0121475
-0.013447
-0.0144185
-0.0151622
-0.0156875
-0.0160262
-0.0161907
-0.0162306
-0.0161552
-0.0159908
-0.0157109
-0.015423
-0.0148196
-0.0145796
-0.0132604
-0.0137194
-0.0124659
-0.0072949
-0.0081467
-0.00963347
-0.0114223
-0.0128687
-0.0139657
-0.0148014
-0.0154005
-0.0157963
-0.0159964
-0.01605
-0.0159692
-0.0157845
-0.0154856
-0.0151109
-0.0144872
-0.013988
-0.0125587
-0.0130551
-0.0113958
-0.00616941
-0.00705826
-0.00853658
-0.0103158
-0.0119518
-0.01323
-0.0142129
-0.0149325
-0.0154208
-0.0156798
-0.0157571
-0.0156728
-0.0154563
-0.0151004
-0.0145995
-0.0138576
-0.0129746
-0.011435
-0.0117725
-0.00966396
-0.00507313
-0.00594075
-0.00728733
-0.0089024
-0.0106308
-0.0121328
-0.0133427
-0.0142473
-0.014872
-0.0152227
-0.0153442
-0.0152584
-0.0149861
-0.0145152
-0.013819
-0.0128261
-0.0115363
-0.00984597
-0.00993298
-0.00733292
-0.00454228
-0.00502465
-0.00592111
-0.00721441
-0.00889245
-0.0106036
-0.0121023
-0.0132748
-0.0141115
-0.0146037
-0.0147851
-0.0146832
-0.0143165
-0.0136727
-0.0127163
-0.0113889
-0.00972612
-0.00784161
-0.00760505
-0.00445136
-0.0045915
-0.00450608
-0.00452275
-0.0052974
-0.00681492
-0.00864805
-0.0104362
-0.0119137
-0.0130134
-0.013711
-0.0140123
-0.013924
-0.013454
-0.0126013
-0.0113468
-0.00966203
-0.00763528
-0.0055554
-0.00487502
-0.000901772
-0.0045408
-0.00389395
-0.00304414
-0.00328945
-0.00461306
-0.00649654
-0.00848604
-0.0102151
-0.0115687
-0.0124767
-0.0129146
-0.0128684
-0.0123536
-0.0113546
-0.00986881
-0.00788898
-0.00556832
-0.00311888
-0.00138126
0.00472463
-0.00389038
-0.00292076
-0.001677
-0.00167407
-0.00283848
-0.00473576
-0.00685208
-0.00881657
-0.0103889
-0.0114935
-0.0120699
-0.0121126
-0.0116003
-0.0105328
-0.00890677
-0.00670311
-0.00390921
-0.000358547
0.00506411
0.0179392
-0.00514541
-0.00192377
-0.000537078
-0.000611638
-0.00166954
-0.00353987
-0.0057392
-0.0078974
-0.00966216
-0.0109198
-0.0116107
-0.0117343
-0.0112797
-0.0102607
-0.0086481
-0.00628858
-0.00223666
0.00526285
0.0196284
0.042644
)
;

boundaryField
{
    movingWall
    {
        type            zeroGradient;
    }
    fixedWalls
    {
        type            zeroGradient;
    }
    frontAndBack
    {
        type            empty;
    }
}


// ************************************************************************* //
