/*--------------------------------*- C++ -*----------------------------------*\
  =========                 |
  \\      /  F ield         | OpenFOAM: The Open Source CFD Toolbox
   \\    /   O peration     | Website:  https://openfoam.org
    \\  /    A nd           | Version:  12
     \\/     M anipulation  |
\*---------------------------------------------------------------------------*/
FoamFile
{
    format      ascii;
    class       volVectorField;
    location    "9";
    object      U;
}
// * * * * * * * * * * * * * * * * * * * * * * * * * * * * * * * * * * * * * //

dimensions      [0 1 -1 0 0 0 0];

internalField   nonuniform List<vector> 
400
(
(0.00334923 -0.00504811 0)
(0.0090105 -0.0021136 0)
(-0.00272324 0.00371489 0)
(-0.0189732 0.0142694 0)
(-0.0705328 0.0217404 0)
(-0.0999079 0.015064 0)
(-0.130235 0.0151794 0)
(-0.147911 0.0109403 0)
(-0.165139 0.00994962 0)
(-0.174273 0.00671753 0)
(-0.182381 0.0057882 0)
(-0.185815 0.00321767 0)
(-0.187071 0.00190018 0)
(-0.183703 -0.00194295 0)
(-0.17441 -0.00408592 0)
(-0.158208 -0.00997992 0)
(-0.133452 -0.0148291 0)
(-0.0988688 -0.0214014 0)
(-0.0594829 -0.0207001 0)
(-0.0134482 -0.00534199 0)
(-0.00180926 -0.00953862 0)
(-0.0115552 0.00859076 0)
(-0.0405343 0.0322324 0)
(-0.0812025 0.0517417 0)
(-0.111911 0.0468894 0)
(-0.132357 0.0412539 0)
(-0.150715 0.0336554 0)
(-0.163927 0.0237457 0)
(-0.17481 0.017379 0)
(-0.180704 0.0100457 0)
(-0.184936 0.00518652 0)
(-0.184988 -0.000956718 0)
(-0.183376 -0.00577017 0)
(-0.178146 -0.0124899 0)
(-0.169659 -0.0199006 0)
(-0.155038 -0.031586 0)
(-0.134504 -0.0464591 0)
(-0.105388 -0.0660768 0)
(-0.0718045 -0.0800712 0)
(-0.0200711 -0.059034 0)
(-0.0105536 0.00969543 0)
(-0.035798 0.0426307 0)
(-0.0709311 0.0674944 0)
(-0.0995204 0.0757514 0)
(-0.117436 0.0669912 0)
(-0.129729 0.0570496 0)
(-0.140794 0.04258 0)
(-0.14446 0.0337197 0)
(-0.144909 0.023266 0)
(-0.144214 0.0154574 0)
(-0.142336 0.00734748 0)
(-0.14034 0.000583981 0)
(-0.138335 -0.00682784 0)
(-0.133662 -0.0142251 0)
(-0.127889 -0.0246686 0)
(-0.118737 -0.0383887 0)
(-0.104589 -0.0602521 0)
(-0.0840558 -0.0886405 0)
(-0.0636793 -0.116868 0)
(-0.0210716 -0.116055 0)
(-0.0135559 0.0371543 0)
(-0.0456578 0.0739025 0)
(-0.0763077 0.0934781 0)
(-0.0952324 0.0931259 0)
(-0.104353 0.0792714 0)
(-0.109811 0.0647513 0)
(-0.108315 0.0482055 0)
(-0.106487 0.0350305 0)
(-0.108021 0.0222911 0)
(-0.106887 0.013174 0)
(-0.106609 0.0039664 0)
(-0.10421 -0.00314926 0)
(-0.10151 -0.0115478 0)
(-0.0978639 -0.0196264 0)
(-0.0922905 -0.0312305 0)
(-0.0872596 -0.0452921 0)
(-0.0773172 -0.067174 0)
(-0.058515 -0.101601 0)
(-0.0490359 -0.13999 0)
(-0.0162597 -0.150372 0)
(-0.0138033 0.0642022 0)
(-0.045492 0.0995496 0)
(-0.0663436 0.110268 0)
(-0.0789781 0.103653 0)
(-0.0815877 0.0854403 0)
(-0.0818317 0.0676665 0)
(-0.0801873 0.0484621 0)
(-0.0827006 0.0354768 0)
(-0.082602 0.0221814 0)
(-0.0836052 0.012825 0)
(-0.0818386 0.00245125 0)
(-0.0806665 -0.00572771 0)
(-0.07643 -0.0157208 0)
(-0.0738705 -0.0250498 0)
(-0.0671135 -0.0382823 0)
(-0.0631041 -0.0544101 0)
(-0.0594242 -0.0757938 0)
(-0.0399949 -0.109835 0)
(-0.0432651 -0.158313 0)
(-0.00583125 -0.183169 0)
(-0.011714 0.0895064 0)
(-0.036722 0.120566 0)
(-0.050689 0.125432 0)
(-0.060572 0.112594 0)
(-0.0594172 0.0895263 0)
(-0.0601734 0.0679444 0)
(-0.0607967 0.0495187 0)
(-0.063883 0.0361609 0)
(-0.0633176 0.0225719 0)
(-0.0651429 0.0124618 0)
(-0.0627134 0.00128921 0)
(-0.0625499 -0.00788036 0)
(-0.0579944 -0.0187123 0)
(-0.0563789 -0.0288982 0)
(-0.0505401 -0.0419755 0)
(-0.0433443 -0.0598946 0)
(-0.0448335 -0.0825135 0)
(-0.0235483 -0.115368 0)
(-0.033819 -0.165537 0)
(-0.00302814 -0.203094 0)
(-0.00902421 0.11013 0)
(-0.0261587 0.135933 0)
(-0.0371318 0.135288 0)
(-0.0433247 0.116137 0)
(-0.0410712 0.0892559 0)
(-0.0434758 0.0682895 0)
(-0.0447769 0.0503566 0)
(-0.0470241 0.0363484 0)
(-0.0461337 0.0223703 0)
(-0.0477749 0.0115224 0)
(-0.0456028 -0.000183008 0)
(-0.0460193 -0.0103262 0)
(-0.0424816 -0.0220316 0)
(-0.0412293 -0.0339742 0)
(-0.0393343 -0.0475155 0)
(-0.0304687 -0.0661498 0)
(-0.0354454 -0.0900565 0)
(-0.0142999 -0.123995 0)
(-0.0294955 -0.17328 0)
(0.00306663 -0.222418 0)
(-0.00531524 0.123925 0)
(-0.0161896 0.147636 0)
(-0.0236661 0.143528 0)
(-0.0278263 0.120806 0)
(-0.0259237 0.0930968 0)
(-0.0293096 0.0703838 0)
(-0.0300074 0.0520814 0)
(-0.0312876 0.0372916 0)
(-0.0301336 0.0231473 0)
(-0.0314192 0.0118116 0)
(-0.0296988 0.000127814 0)
(-0.0301788 -0.0101491 0)
(-0.0283745 -0.021554 0)
(-0.0265212 -0.0342275 0)
(-0.0281748 -0.0487347 0)
(-0.0187069 -0.0685248 0)
(-0.0271636 -0.0936358 0)
(-0.0049914 -0.12674 0)
(-0.0238909 -0.175081 0)
(0.00437565 -0.233764 0)
(-0.00227122 0.13245 0)
(-0.00761318 0.15465 0)
(-0.0125612 0.147971 0)
(-0.0148103 0.122523 0)
(-0.0133056 0.0920885 0)
(-0.0167278 0.0700806 0)
(-0.0165795 0.0522533 0)
(-0.0175967 0.037014 0)
(-0.0165914 0.0226372 0)
(-0.017649 0.0107787 0)
(-0.0164566 -0.000812412 0)
(-0.016906 -0.0118024 0)
(-0.0172196 -0.0233027 0)
(-0.0150706 -0.0359954 0)
(-0.0194891 -0.050965 0)
(-0.01008 -0.071433 0)
(-0.0214303 -0.0988408 0)
(7.55042e-05 -0.132284 0)
(-0.0218232 -0.178041 0)
(0.0083597 -0.24596 0)
(0.00150126 0.134206 0)
(6.6591e-05 0.158938 0)
(-0.0012685 0.151313 0)
(-0.0025621 0.125187 0)
(-0.00170102 0.0958989 0)
(-0.00500885 0.0727509 0)
(-0.0047225 0.0537465 0)
(-0.00570409 0.0375597 0)
(-0.00486131 0.0229254 0)
(-0.00560025 0.0108119 0)
(-0.0051991 -0.00018594 0)
(-0.0053126 -0.0107875 0)
(-0.0070181 -0.0222129 0)
(-0.00461528 -0.0345092 0)
(-0.0109393 -0.0502319 0)
(-0.0016744 -0.0705616 0)
(-0.0153711 -0.0998591 0)
(0.00657176 -0.131374 0)
(-0.0189682 -0.177898 0)
(0.00899913 -0.252493 0)
(0.00479875 0.131256 0)
(0.00725963 0.158694 0)
(0.00837517 0.151334 0)
(0.00842318 0.125424 0)
(0.00898713 0.0943299 0)
(0.00599074 0.0714721 0)
(0.00650892 0.0527749 0)
(0.0054918 0.0366758 0)
(0.00577297 0.0224177 0)
(0.00491706 0.0104576 0)
(0.00439301 -0.000417634 0)
(0.00472779 -0.0105164 0)
(0.00200305 -0.0221128 0)
(0.00389364 -0.0340049 0)
(-0.00336629 -0.0509929 0)
(0.004712 -0.0708102 0)
(-0.0100149 -0.1031 0)
(0.0103305 -0.133115 0)
(-0.0178854 -0.177847 0)
(0.0120221 -0.259263 0)
(0.00669997 0.122614 0)
(0.0141556 0.155031 0)
(0.0190831 0.15037 0)
(0.0201972 0.127488 0)
(0.0205565 0.0980782 0)
(0.0176134 0.0740114 0)
(0.017629 0.0544476 0)
(0.0163139 0.0379958 0)
(0.0160297 0.0236034 0)
(0.0151647 0.0114055 0)
(0.0137485 0.00044506 0)
(0.0140456 -0.00960666 0)
(0.0108599 -0.0204746 0)
(0.0120504 -0.0315572 0)
(0.00531315 -0.0488089 0)
(0.0118354 -0.0686282 0)
(-0.00292733 -0.101142 0)
(0.0158486 -0.128814 0)
(-0.0170237 -0.174904 0)
(0.0138118 -0.262204 0)
(0.010341 0.111816 0)
(0.0214607 0.146869 0)
(0.028164 0.144946 0)
(0.0316526 0.127289 0)
(0.0327419 0.0959707 0)
(0.0301302 0.0726992 0)
(0.0299575 0.0534898 0)
(0.0287897 0.0372174 0)
(0.0278276 0.0231594 0)
(0.0270768 0.0113664 0)
(0.0244972 0.000989987 0)
(0.0243207 -0.00880665 0)
(0.0202969 -0.0188797 0)
(0.0208344 -0.0307709 0)
(0.0142403 -0.0476542 0)
(0.0186508 -0.0684611 0)
(0.00469534 -0.100191 0)
(0.019477 -0.126563 0)
(-0.0158715 -0.170205 0)
(0.0176876 -0.26333 0)
(0.0125127 0.0891119 0)
(0.0286026 0.136464 0)
(0.0395974 0.138582 0)
(0.0438793 0.127995 0)
(0.0466706 0.100858 0)
(0.0446977 0.0752686 0)
(0.0439686 0.0555908 0)
(0.0431261 0.0395964 0)
(0.0415 0.0258166 0)
(0.0409996 0.0139565 0)
(0.0373343 0.0037126 0)
(0.0367972 -0.00618233 0)
(0.0318657 -0.0161451 0)
(0.0321441 -0.028571 0)
(0.0257827 -0.0443692 0)
(0.0288295 -0.0654551 0)
(0.0157963 -0.093106 0)
(0.0259023 -0.117114 0)
(-0.0129411 -0.164308 0)
(0.0212001 -0.261151 0)
(0.0163119 0.0700095 0)
(0.033421 0.12015 0)
(0.0483595 0.127935 0)
(0.0556484 0.120402 0)
(0.0610261 0.100093 0)
(0.0616381 0.0751034 0)
(0.0613861 0.05463 0)
(0.0612822 0.0385952 0)
(0.0589543 0.025625 0)
(0.0585984 0.0144176 0)
(0.0540762 0.00486527 0)
(0.0534395 -0.00471294 0)
(0.0476957 -0.0142304 0)
(0.0475957 -0.0266026 0)
(0.0410552 -0.0413469 0)
(0.0422788 -0.061954 0)
(0.0291383 -0.0863141 0)
(0.0320346 -0.108442 0)
(-0.0100322 -0.155699 0)
(0.0273542 -0.258623 0)
(0.0177678 0.0304953 0)
(0.038177 0.103889 0)
(0.0548064 0.117991 0)
(0.0657637 0.114462 0)
(0.0748204 0.0995462 0)
(0.0798816 0.0781703 0)
(0.0815629 0.0580936 0)
(0.0838936 0.0413558 0)
(0.0819283 0.0282217 0)
(0.0828022 0.0172437 0)
(0.0778876 0.00834894 0)
(0.0775497 -0.000620741 0)
(0.0711915 -0.00952016 0)
(0.0703291 -0.021273 0)
(0.0629252 -0.0349294 0)
(0.0612814 -0.0534686 0)
(0.0463374 -0.0729874 0)
(0.0409858 -0.0915745 0)
(-0.00417297 -0.145583 0)
(0.0339832 -0.254025 0)
(0.00498345 0.0096982 0)
(0.0320613 0.0738849 0)
(0.0541228 0.0971142 0)
(0.07031 0.0978022 0)
(0.0851406 0.088317 0)
(0.097029 0.0729452 0)
(0.102826 0.0569806 0)
(0.109362 0.0420101 0)
(0.109358 0.0294052 0)
(0.112409 0.0183131 0)
(0.108699 0.00951362 0)
(0.108753 0.000663098 0)
(0.101983 -0.00747686 0)
(0.0994097 -0.0177877 0)
(0.0896378 -0.0287187 0)
(0.0830645 -0.0434222 0)
(0.0639342 -0.057775 0)
(0.0488796 -0.0760502 0)
(0.00199476 -0.137787 0)
(0.0440377 -0.249271 0)
(-0.0213217 -0.00270835 0)
(0.0158075 0.06019 0)
(0.0414581 0.0795954 0)
(0.0654421 0.0811845 0)
(0.0859494 0.074781 0)
(0.106443 0.0628646 0)
(0.117881 0.0508107 0)
(0.130472 0.0396485 0)
(0.13405 0.0307488 0)
(0.140078 0.0216163 0)
(0.138269 0.0149361 0)
(0.13897 0.00720804 0)
(0.132044 0.00127843 0)
(0.12802 -0.00679576 0)
(0.114894 -0.0141283 0)
(0.104291 -0.024728 0)
(0.0803236 -0.0347954 0)
(0.0575096 -0.0543632 0)
(0.017019 -0.12761 0)
(0.0572696 -0.236052 0)
(-0.0285507 0.0219442 0)
(-0.0159427 0.0220033 0)
(0.0127471 0.0405669 0)
(0.0465304 0.0444446 0)
(0.073185 0.0436977 0)
(0.100765 0.037845 0)
(0.118188 0.032311 0)
(0.134714 0.023809 0)
(0.143666 0.0193013 0)
(0.151124 0.0128314 0)
(0.1536 0.0101706 0)
(0.153761 0.00448142 0)
(0.149676 0.00305654 0)
(0.144488 -0.0026425 0)
(0.131864 -0.00411706 0)
(0.120879 -0.0113932 0)
(0.0953343 -0.0148918 0)
(0.080122 -0.0409717 0)
(0.0557782 -0.113665 0)
(0.0820929 -0.184962 0)
(0.0347175 0.0322087 0)
(0.0396767 0.0179638 0)
(0.0570047 0.0169026 0)
(0.0912432 0.0190238 0)
(0.119062 0.0209564 0)
(0.149394 0.0199679 0)
(0.17383 0.018502 0)
(0.196674 0.016567 0)
(0.214361 0.0145778 0)
(0.229693 0.0133152 0)
(0.241053 0.0115528 0)
(0.250557 0.0108883 0)
(0.257116 0.00924489 0)
(0.261699 0.00899871 0)
(0.264963 0.00746468 0)
(0.264216 0.00663559 0)
(0.258232 0.00578759 0)
(0.243638 -0.00152289 0)
(0.202976 -0.0143429 0)
(0.150837 -0.0336711 0)
)
;

boundaryField
{
    movingWall
    {
        type            fixedValue;
        value           uniform (1 0 0);
    }
    fixedWalls
    {
        type            noSlip;
    }
    frontAndBack
    {
        type            empty;
    }
}


// ************************************************************************* //
