/*--------------------------------*- C++ -*----------------------------------*\
  =========                 |
  \\      /  F ield         | OpenFOAM: The Open Source CFD Toolbox
   \\    /   O peration     | Website:  https://openfoam.org
    \\  /    A nd           | Version:  12
     \\/     M anipulation  |
\*---------------------------------------------------------------------------*/
FoamFile
{
    format      ascii;
    class       volScalarField;
    location    "6.14";
    object      p_rgh;
}
// * * * * * * * * * * * * * * * * * * * * * * * * * * * * * * * * * * * * * //

dimensions      [1 -1 -2 0 0 0 0];

internalField   nonuniform List<scalar> 
3829
(
-3.13211
-3.13102
-3.1288
-3.1254
-3.12078
-3.1149
-3.1077
-3.09912
-3.08912
-3.07762
-3.06458
-3.04992
-3.03357
-3.01547
-2.99555
-2.97374
-2.94996
-2.92416
-2.89626
-2.86622
-2.83397
-2.79948
-2.76271
-2.72362
-2.68222
-2.63849
-2.59244
-2.54411
-2.49353
-2.44077
-2.38591
-2.32908
-2.26995
-2.20883
-2.14593
-2.08143
-2.01555
-1.94847
-1.88035
-1.81138
-1.74178
-1.67175
-1.60153
-1.53135
-1.46144
-1.39205
-1.32343
-1.25583
-1.18949
-1.12467
-1.06159
-1.0005
-0.941616
-0.885144
-0.831286
-0.780216
-0.732103
-0.687077
-0.645257
-0.606737
-0.571551
-0.540871
-0.513805
-0.490236
-0.470077
-0.453244
-0.439639
-0.429124
-0.421521
-0.416619
-0.41417
-0.413893
-0.415522
-0.418684
-0.422992
-0.4281
-0.43364
-0.43924
-0.444521
-0.449115
-0.452665
-0.454838
-0.455324
-0.453855
-0.4502
-0.44417
-0.435477
-0.424037
-0.409987
-0.393467
-0.374636
-0.353681
-0.330855
-0.306473
-0.280908
-0.254588
-0.227969
-0.201543
-0.175828
-0.151314
-0.128482
-0.107785
-0.0896353
-0.0743827
-0.0622928
-0.0535319
-0.0481896
-0.0464438
-0.0479883
-0.0525705
-0.0598685
-0.0694533
-0.0808019
-0.0933253
-0.106419
-0.119365
-0.131545
-0.142336
-0.151178
-0.157604
-0.161266
-0.161972
-0.158655
-0.152229
-0.142951
-0.131134
-0.117235
-0.101853
-0.0856595
-0.0693518
-0.0537877
-0.0396458
-0.027601
-0.0182248
-0.0119484
-0.0090455
-0.0098906
-0.0141831
-0.0216617
-0.0319412
-0.0444779
-0.0586418
-0.0736357
-0.088656
-0.102959
-0.115807
-0.126554
-0.134674
-0.139812
-0.141816
-0.139892
-0.134886
-0.126992
-0.11659
-0.104199
-0.0904321
-0.0759674
-0.0615013
-0.0477215
-0.0352737
-0.0247246
-0.0165479
-0.0111001
-0.00860771
-0.0091728
-0.0127887
-0.019262
-0.0283179
-0.039583
-0.052607
-0.0668873
-0.0818846
-0.0970499
-0.111843
-0.125765
-0.138365
-0.149258
-0.158138
-0.164781
-0.16905
-0.1709
-0.170372
-0.167581
-0.162709
-0.155951
-0.147635
-0.138069
-0.127564
-0.116455
-0.105072
-0.0937262
-0.0827034
-0.0722595
-0.0626431
-0.0540258
-0.0465742
-0.0404238
-0.0356863
-0.0324538
-0.0308042
-3.22544
-3.22445
-3.22244
-3.21937
-3.21518
-3.20985
-3.20341
-3.1957
-3.18659
-3.17606
-3.164
-3.15029
-3.13483
-3.11749
-3.09815
-3.0767
-3.05302
-3.02701
-2.99856
-2.96757
-2.93396
-2.89765
-2.85859
-2.81673
-2.77202
-2.72445
-2.67402
-2.62074
-2.56463
-2.50572
-2.44406
-2.37964
-2.31406
-2.2465
-2.17701
-2.1057
-2.03273
-1.95833
-1.88276
-1.80629
-1.72918
-1.65173
-1.57421
-1.49691
-1.42014
-1.34417
-1.26932
-1.19588
-1.12413
-1.05435
-0.986829
-0.92183
-0.859616
-0.800426
-0.74449
-0.692009
-0.643173
-0.598135
-0.557048
-0.519998
-0.487042
-0.458358
-0.433857
-0.413458
-0.39708
-0.38461
-0.375891
-0.370717
-0.368849
-0.370009
-0.373861
-0.380041
-0.388174
-0.397885
-0.408653
-0.420056
-0.431645
-0.442958
-0.453537
-0.462936
-0.470734
-0.47655
-0.480048
-0.480952
-0.479073
-0.474328
-0.464839
-0.452247
-0.436532
-0.41775
-0.396044
-0.371655
-0.344927
-0.316275
-0.286183
-0.2552
-0.223906
-0.192921
-0.16292
-0.134451
-0.108145
-0.0845609
-0.0641953
-0.0474642
-0.0346999
-0.0261118
-0.0218079
-0.0217049
-0.0256147
-0.0332303
-0.0440984
-0.0576478
-0.0732129
-0.0900528
-0.107396
-0.12434
-0.140118
-0.153958
-0.165175
-0.173199
-0.177587
-0.17808
-0.174315
-0.166659
-0.155384
-0.140934
-0.123944
-0.105185
-0.0855155
-0.065856
-0.0471734
-0.0303368
-0.0161519
-0.00529583
0.00172743
0.00461983
0.00321702
-0.00228347
-0.0115637
-0.024094
-0.0391779
-0.0560422
-0.0737319
-0.0912934
-0.107861
-0.122585
-0.134728
-0.143695
-0.14905
-0.150492
-0.148441
-0.142641
-0.133505
-0.121565
-0.107462
-0.0919198
-0.0757117
-0.0596183
-0.0443983
-0.0307535
-0.0192913
-0.0105033
-0.00475192
-0.00224661
-0.0030329
-0.00720039
-0.0143873
-0.0243003
-0.0365225
-0.0505587
-0.0658583
-0.0818364
-0.097909
-0.113507
-0.128106
-0.141242
-0.152519
-0.161633
-0.168363
-0.172589
-0.174276
-0.173483
-0.170348
-0.165073
-0.157886
-0.149115
-0.139096
-0.128157
-0.116644
-0.104897
-0.0932344
-0.0819455
-0.0712904
-0.061492
-0.052741
-0.0451939
-0.0389785
-0.0341991
-0.0309423
-0.0292817
-3.39517
-3.3947
-3.39367
-3.3919
-3.38911
-3.38432
-3.37925
-3.37354
-3.3669
-3.35907
-3.34983
-3.33898
-3.32631
-3.31158
-3.2945
-3.27487
-3.25249
-3.22713
-3.1986
-3.16667
-3.1312
-3.09205
-3.04911
-3.00231
-2.95162
-2.89705
-2.83867
-2.77657
-2.71091
-2.64191
-2.56983
-2.4951
-2.41521
-2.33221
-2.24684
-2.15965
-2.07094
-1.98095
-1.89001
-1.79841
-1.7065
-1.61463
-1.52314
-1.43241
-1.34278
-1.25463
-1.16831
-1.08428
-1.00272
-0.924048
-0.848604
-0.77671
-0.708673
-0.644774
-0.585277
-0.530455
-0.480534
-0.435658
-0.395997
-0.361651
-0.332816
-0.308417
-0.289208
-0.275226
-0.266376
-0.262443
-0.263151
-0.268187
-0.277184
-0.28973
-0.305369
-0.323607
-0.343911
-0.365735
-0.388425
-0.411401
-0.434043
-0.455735
-0.47586
-0.493824
-0.50907
-0.521081
-0.529381
-0.533556
-0.533273
-0.52825
-0.519267
-0.505412
-0.486842
-0.463763
-0.436481
-0.405438
-0.371177
-0.334322
-0.295579
-0.255729
-0.215595
-0.176048
-0.137951
-0.102134
-0.0694143
-0.0405302
-0.0161323
0.00324114
0.017191
0.025391
0.0276015
0.0242169
0.0155133
0.00196322
-0.0157678
-0.0368632
-0.0603773
-0.0852609
-0.110821
-0.13514
-0.157562
-0.177026
-0.192609
-0.203546
-0.209261
-0.209383
-0.204398
-0.194007
-0.17864
-0.15902
-0.136074
-0.110908
-0.0847242
-0.0587984
-0.0343687
-0.0126196
0.00541308
0.0188888
0.0271976
0.0299557
0.0272906
0.0193267
0.00656754
-0.0102035
-0.0300289
-0.0518537
-0.0744472
-0.0965979
-0.117216
-0.135267
-0.149877
-0.160373
-0.166308
-0.16747
-0.16423
-0.156559
-0.144981
-0.130183
-0.112978
-0.0942635
-0.0749725
-0.0560308
-0.0383175
-0.0226235
-0.00961802
0.000172331
0.00637738
0.00879204
0.00735802
0.00238072
-0.00603762
-0.0174579
-0.0313616
-0.0471605
-0.0642227
-0.0818904
-0.099518
-0.116482
-0.132224
-0.146253
-0.158165
-0.167653
-0.174512
-0.178636
-0.180023
-0.178761
-0.175026
-0.169056
-0.161117
-0.151571
-0.140782
-0.129106
-0.116912
-0.104554
-0.0923604
-0.0806269
-0.069613
-0.0595279
-0.0505638
-0.0428652
-0.0365479
-0.0317044
-0.0284112
-0.0267344
-3.51512
-3.51593
-3.51761
-3.52028
-3.52414
-3.53008
-3.53591
-3.54178
-3.5479
-3.55202
-3.55426
-3.55439
-3.55209
-3.54695
-3.53858
-3.52656
-3.51048
-3.48997
-3.46557
-3.43508
-3.39923
-3.35778
-3.31055
-3.25744
-3.19838
-3.13339
-3.06255
-2.98598
-2.90387
-2.8164
-2.72377
-2.62602
-2.52723
-2.42593
-2.32191
-2.21529
-2.10654
-1.99621
-1.88484
-1.77294
-1.66104
-1.54963
-1.43922
-1.33029
-1.22332
-1.1188
-1.01723
-0.918936
-0.824402
-0.734055
-0.648305
-0.567542
-0.492146
-0.42246
-0.358767
-0.301315
-0.250387
-0.206145
-0.168777
-0.138338
-0.114794
-0.0978336
-0.0876211
-0.0840677
-0.0869438
-0.0959486
-0.11071
-0.13079
-0.155674
-0.184781
-0.217481
-0.253083
-0.290835
-0.329963
-0.369637
-0.409021
-0.44727
-0.483547
-0.517027
-0.546917
-0.572481
-0.593037
-0.608005
-0.616879
-0.619285
-0.614931
-0.604221
-0.586805
-0.562778
-0.53243
-0.496258
-0.454916
-0.409199
-0.360016
-0.30839
-0.255438
-0.202318
-0.150263
-0.100451
-0.0540635
-0.012216
0.0241012
0.0540415
0.076968
0.0925632
0.10086
0.0987522
0.0896883
0.0736484
0.0512177
0.0233018
-0.00894464
-0.044186
-0.0809687
-0.117763
-0.152907
-0.184941
-0.212461
-0.234229
-0.249248
-0.256837
-0.256582
-0.248976
-0.233944
-0.212159
-0.184703
-0.152906
-0.118327
-0.0826477
-0.0476771
-0.0150685
0.0135849
0.0369241
0.0538789
0.0637192
0.0661128
0.0612786
0.0494804
0.0315406
0.00858469
-0.0180461
-0.0468956
-0.0763445
-0.104848
-0.13099
-0.153502
-0.171349
-0.183775
-0.190338
-0.190915
-0.185813
-0.175365
-0.160282
-0.141475
-0.119986
-0.0969456
-0.0735021
-0.050767
-0.0297713
-0.0114181
0.00354999
0.0145733
0.0212891
0.0235384
0.0213591
0.0150129
0.0048416
-0.00863575
-0.024794
-0.042933
-0.0623147
-0.0821881
-0.101825
-0.120545
-0.13774
-0.152893
-0.165586
-0.175518
-0.1825
-0.186456
-0.18742
-0.185524
-0.180989
-0.174102
-0.165183
-0.154631
-0.14285
-0.130231
-0.117169
-0.104038
-0.0911781
-0.0788885
-0.0674268
-0.0569978
-0.0477796
-0.0399033
-0.0334694
-0.028555
-0.0252231
-0.0235292
-3.71802
-3.72136
-3.72806
-3.73793
-3.75057
-3.76537
-3.78155
-3.79823
-3.8142
-3.8303
-3.84685
-3.86255
-3.87627
-3.88696
-3.8936
-3.89523
-3.89095
-3.87993
-3.86143
-3.83461
-3.79909
-3.75447
-3.70054
-3.6372
-3.56454
-3.48281
-3.39243
-3.29398
-3.18815
-3.07579
-2.95789
-2.83573
-2.70567
-2.57124
-2.43419
-2.29524
-2.15508
-2.01435
-1.87367
-1.73361
-1.59474
-1.45761
-1.32276
-1.19072
-1.06204
-0.93724
-0.817326
-0.701846
-0.591774
-0.487602
-0.389817
-0.298881
-0.215184
-0.139073
-0.0709892
-0.0112026
0.0400393
0.0825216
0.116155
0.140799
0.156277
0.163181
0.161378
0.151103
0.13271
0.106628
0.0733787
0.0335777
-0.0120581
-0.0627264
-0.11756
-0.17561
-0.235845
-0.297207
-0.358605
-0.418896
-0.476943
-0.531636
-0.581875
-0.626621
-0.664916
-0.695879
-0.718742
-0.732914
-0.737893
-0.733318
-0.719642
-0.696633
-0.664508
-0.623766
-0.575162
-0.519638
-0.458328
-0.392514
-0.323628
-0.253226
-0.182929
-0.114412
-0.0493208
0.0107421
0.0642615
0.109891
0.146434
0.172935
0.188584
0.192764
0.188373
0.172922
0.147476
0.113287
0.0718112
0.0247565
-0.0259778
-0.0783388
-0.13013
-0.17925
-0.22363
-0.261383
-0.290877
-0.31085
-0.320448
-0.319186
-0.307647
-0.286016
-0.25538
-0.217299
-0.173662
-0.126641
-0.0785269
-0.0318485
0.0112052
0.0485472
0.078433
0.0995181
0.110952
0.112454
0.104348
0.0872478
0.0623743
0.0312991
-0.00413199
-0.0419401
-0.0800037
-0.116386
-0.149274
-0.17712
-0.198717
-0.213232
-0.220248
-0.219752
-0.212121
-0.198038
-0.178476
-0.154632
-0.127843
-0.0995207
-0.0710677
-0.0438152
-0.0189631
0.00246271
0.0196434
0.0319941
0.0391725
0.0410789
0.0378419
0.0298119
0.0174809
0.00150142
-0.0173605
-0.0382781
-0.0603882
-0.0828326
-0.104795
-0.125525
-0.144368
-0.160774
-0.174319
-0.18471
-0.19178
-0.195492
-0.195922
-0.193255
-0.187767
-0.1798
-0.169735
-0.158018
-0.145097
-0.1314
-0.117353
-0.103352
-0.0897463
-0.0768406
-0.0648883
-0.0540892
-0.044603
-0.0365444
-0.0299948
-0.0250131
-0.0216464
-0.0199383
-3.70165
-3.70943
-3.72511
-3.74865
-3.77989
-3.81848
-3.86382
-3.91494
-3.97072
-4.03009
-4.08973
-4.14657
-4.19918
-4.24603
-4.28559
-4.31636
-4.33692
-4.34595
-4.34232
-4.32502
-4.2933
-4.24664
-4.1848
-4.10776
-4.01582
-3.90957
-3.78993
-3.65808
-3.5155
-3.36359
-3.20361
-3.03591
-2.86758
-2.69716
-2.52457
-2.35065
-2.17625
-2.00213
-1.82908
-1.65781
-1.48901
-1.32336
-1.16148
-1.004
-0.851501
-0.704836
-0.564158
-0.43018
-0.303504
-0.184703
-0.0742697
0.0272808
0.1194
0.20165
0.273619
0.334942
0.385322
0.424485
0.452314
0.468752
0.474008
0.468031
0.451081
0.423523
0.38583
0.338598
0.28254
0.21849
0.147415
0.0703959
-0.0114084
-0.0967356
-0.184213
-0.272445
-0.359993
-0.445347
-0.527021
-0.60357
-0.673568
-0.735667
-0.788652
-0.831431
-0.863043
-0.882694
-0.889783
-0.883885
-0.865511
-0.834569
-0.791492
-0.737067
-0.672342
-0.598623
-0.517468
-0.430637
-0.34008
-0.247898
-0.156337
-0.0674996
0.0163518
0.0931047
0.160761
0.21758
0.262064
0.293069
0.309784
0.311898
0.300337
0.274932
0.236743
0.18732
0.128623
0.0629698
-0.00706646
-0.0787233
-0.149026
-0.215197
-0.274506
-0.324478
-0.363027
-0.388557
-0.40002
-0.396957
-0.379924
-0.349599
-0.307566
-0.255998
-0.197509
-0.135058
-0.07163
-0.0107146
0.0448788
0.0924745
0.129882
0.15548
0.16833
0.168207
0.155612
0.131665
0.0980761
0.0569872
0.0108719
-0.0376669
-0.085922
-0.131474
-0.172077
-0.205893
-0.231527
-0.248095
-0.25523
-0.253076
-0.242229
-0.223684
-0.198747
-0.168965
-0.136017
-0.101635
-0.0675033
-0.0352139
-0.00610818
0.0186391
0.038146
0.0518139
0.0593352
0.0606877
0.056119
0.0460943
0.0312619
0.0124306
-0.00948093
-0.0334978
-0.0586237
-0.0838837
-0.108371
-0.131265
-0.151857
-0.169574
-0.183985
-0.194812
-0.201917
-0.205305
-0.205105
-0.201559
-0.195002
-0.185841
-0.174514
-0.16153
-0.147376
-0.132523
-0.117427
-0.102505
-0.088118
-0.0745734
-0.0621192
-0.0509472
-0.0411977
-0.0329659
-0.0263118
-0.0212736
-0.0178802
-0.0161624
-3.58546
-3.60252
-3.63692
-3.68847
-3.75652
-3.83982
-3.93662
-4.04445
-4.16047
-4.28138
-4.40606
-4.52923
-4.64633
-4.75405
-4.84921
-4.9289
-4.99053
-5.0319
-5.05114
-5.04683
-5.01792
-4.96376
-4.88417
-4.77952
-4.65084
-4.49982
-4.32895
-4.14136
-3.94094
-3.73122
-3.51583
-3.29595
-3.07237
-2.8476
-2.62341
-2.40111
-2.18166
-1.96573
-1.75388
-1.54656
-1.34423
-1.14734
-0.956381
-0.771895
-0.594502
-0.42482
-0.26301
-0.109869
0.0340042
0.167962
0.291324
0.403482
0.503883
0.59194
0.667196
0.729176
0.777545
0.81203
0.832467
0.838814
0.83114
0.809597
0.774513
0.726372
0.665804
0.593591
0.510678
0.418154
0.317284
0.209477
0.0962334
-0.0208114
-0.13988
-0.259183
-0.376872
-0.491001
-0.599687
-0.701084
-0.793383
-0.874896
-0.944121
-0.999696
-1.04047
-1.06554
-1.0742
-1.06557
-1.04044
-0.999055
-0.942112
-0.870668
-0.786135
-0.690259
-0.58512
-0.473038
-0.356579
-0.238498
-0.121635
-0.00887247
0.0969543
0.193128
0.277108
0.346687
0.400023
0.435721
0.452916
0.451225
0.431216
0.393557
0.339716
0.271762
0.192288
0.104353
0.0113399
-0.0831483
-0.175224
-0.261303
-0.337891
-0.401835
-0.450518
-0.481969
-0.494937
-0.489047
-0.464874
-0.423692
-0.367693
-0.299804
-0.223535
-0.142822
-0.0612842
0.0161323
0.0861156
0.14528
0.190933
0.221174
0.235011
0.232355
0.21401
0.181649
0.137598
0.0847077
0.0261846
-0.0346502
-0.0944374
-0.150197
-0.199238
-0.239419
-0.26918
-0.287609
-0.294442
-0.290027
-0.275255
-0.25147
-0.220364
-0.183879
-0.144079
-0.103041
-0.0627563
-0.0250515
0.00853302
0.0367155
0.0585548
0.0734539
0.081156
0.0817308
0.0755825
0.0632934
0.0456832
0.0237327
-0.00147542
-0.0288111
-0.0571389
-0.0853567
-0.112479
-0.137605
-0.159982
-0.179011
-0.194264
-0.205479
-0.212558
-0.215549
-0.214638
-0.210129
-0.202421
-0.191989
-0.179337
-0.165025
-0.149589
-0.133543
-0.117374
-0.101516
-0.0863431
-0.0721624
-0.0592165
-0.0476849
-0.0376889
-0.0293019
-0.0225602
-0.0174798
-0.0140701
-0.012348
-3.06585
-3.09886
-3.16582
-3.26714
-3.40286
-3.57167
-3.77223
-3.99999
-4.25374
-4.5088
-4.75747
-4.99398
-5.21357
-5.41105
-5.58271
-5.72555
-5.83722
-5.91588
-5.96
-5.96812
-5.93884
-5.87128
-5.76434
-5.61745
-5.43159
-5.20882
-4.95375
-4.6714
-4.37804
-4.07727
-3.77972
-3.48916
-3.20432
-2.9254
-2.65249
-2.38562
-2.12493
-1.8706
-1.62288
-1.38199
-1.14826
-0.921946
-0.703408
-0.493195
-0.292879
-0.100619
0.0818787
0.253876
0.414621
0.56337
0.699376
0.821896
0.930224
1.02366
1.10156
1.1634
1.2087
1.23715
1.24852
1.24284
1.22013
1.1806
1.12468
1.05298
0.966312
0.865677
0.752276
0.627501
0.492951
0.350411
0.201776
0.0491047
-0.105373
-0.25941
-0.410694
-0.556802
-0.695376
-0.824131
-0.940848
-1.04342
-1.12997
-1.1989
-1.2489
-1.27913
-1.28959
-1.2755
-1.24147
-1.18729
-1.11372
-1.0221
-0.914276
-0.792515
-0.659494
-0.518198
-0.371907
-0.224126
-0.0784423
0.0614928
0.192139
0.310103
0.412235
0.495807
0.558586
0.598907
0.615775
0.608898
0.578765
0.526593
0.454364
0.364789
0.261224
0.1476
0.0282462
-0.0923283
-0.2091
-0.31761
-0.413501
-0.492869
-0.552497
-0.590009
-0.603959
-0.594096
-0.561125
-0.506949
-0.434494
-0.34758
-0.250747
-0.148989
-0.0473221
0.0487519
0.134716
0.20648
0.260849
0.295653
0.309874
0.303681
0.278295
0.236
0.179859
0.113554
0.0411214
-0.0333134
-0.105703
-0.172442
-0.230395
-0.277125
-0.310935
-0.330918
-0.33696
-0.329692
-0.31033
-0.280617
-0.242676
-0.198878
-0.151698
-0.103583
-0.0568292
-0.0135116
0.0246502
0.0562744
0.080374
0.0963684
0.104068
0.103643
0.0957057
0.0809328
0.0603357
0.0350777
0.00641385
-0.0243709
-0.0560011
-0.0872294
-0.117024
-0.144389
-0.168532
-0.188837
-0.204881
-0.216426
-0.223413
-0.225942
-0.224258
-0.218729
-0.209822
-0.198077
-0.184064
-0.168403
-0.151673
-0.134431
-0.117193
-0.100411
-0.0844687
-0.0696726
-0.0562582
-0.0443907
-0.034172
-0.0256523
-0.0188425
-0.0137353
-0.0103201
-0.00859921
-2.13058
-2.1836
-2.29152
-2.45532
-2.67552
-2.95072
-3.27884
-3.65338
-4.0803
-4.52001
-4.95235
-5.36599
-5.75222
-6.10307
-6.41211
-6.67388
-6.8838
-7.038
-7.13319
-7.16707
-7.13809
-7.04556
-6.88991
-6.67231
-6.39523
-6.06305
-5.68224
-5.25673
-4.83834
-4.43217
-4.03798
-3.65998
-3.29918
-2.95511
-2.6265
-2.31195
-2.01004
-1.71951
-1.43929
-1.16871
-0.907311
-0.654971
-0.411698
-0.179351
0.0442463
0.257611
0.459805
0.649981
0.827242
0.990629
1.13919
1.27199
1.3881
1.48664
1.56681
1.62792
1.66935
1.69063
1.69133
1.67245
1.63303
1.5735
1.49444
1.39665
1.28115
1.14918
1.00223
0.842005
0.670497
0.489907
0.302561
0.110995
-0.0820491
-0.273846
-0.461566
-0.642249
-0.813028
-0.971126
-1.11383
-1.23861
-1.34324
-1.42567
-1.48419
-1.51732
-1.52348
-1.50744
-1.46429
-1.39561
-1.30296
-1.18829
-1.054
-0.902992
-0.738638
-0.564665
-0.38514
-0.204393
-0.0268412
0.14302
0.300842
0.442515
0.564226
0.662703
0.735277
0.780001
0.795748
0.782322
0.740363
0.671531
0.578396
0.464409
0.333804
0.191504
0.0429074
-0.106606
-0.250519
-0.383565
-0.500413
-0.59633
-0.667455
-0.710987
-0.72532
-0.710269
-0.666898
-0.597718
-0.506514
-0.398145
-0.278324
-0.153236
-0.0293737
0.0869888
0.190141
0.275231
0.338533
0.377633
0.391554
0.380793
0.347096
0.293456
0.223793
0.142701
0.0551303
-0.0339208
-0.119684
-0.197913
-0.265021
-0.318295
-0.35594
-0.377102
-0.381837
-0.371173
-0.346629
-0.310414
-0.265116
-0.21356
-0.158645
-0.103191
-0.0498204
-0.000822278
0.041907
0.0768915
0.10312
0.120047
0.127567
0.125935
0.116045
0.0986155
0.0748898
0.0462132
0.0140122
-0.0202721
-0.0552391
-0.0894504
-0.121903
-0.151465
-0.177319
-0.198837
-0.215605
-0.227414
-0.23425
-0.236265
-0.233764
-0.227181
-0.217051
-0.203982
-0.188604
-0.1716
-0.153591
-0.135175
-0.116894
-0.0992185
-0.0825381
-0.0671587
-0.0533068
-0.0411331
-0.0307188
-0.0220899
-0.015232
-0.0101131
-0.00670266
-0.004988
-0.614037
-0.694831
-0.861992
-1.12267
-1.48975
-1.97644
-2.61476
-3.38165
-4.59092
-5.43244
-6.17989
-6.82324
-7.36924
-7.82699
-8.20433
-8.50654
-8.73742
-8.89906
-8.99202
-9.01543
-8.96712
-8.84193
-8.63349
-8.33214
-7.92583
-7.40133
-6.77255
-5.77319
-5.13566
-4.55991
-4.0656
-3.62281
-3.21907
-2.84196
-2.48524
-2.14501
-1.81945
-1.50656
-1.20473
-0.912922
-0.630516
-0.357281
-0.0933546
0.160844
0.405017
0.638216
0.859388
1.0674
1.26106
1.43913
1.60036
1.74354
1.86747
1.97108
2.05336
2.11345
2.15065
2.16447
2.15471
2.12032
2.06234
1.98103
1.87696
1.75107
1.60455
1.43893
1.25598
1.05779
0.846739
0.625466
0.396787
0.163765
-0.0702138
-0.30211
-0.52844
-0.745655
-0.950342
-1.1392
-1.30904
-1.45686
-1.58005
-1.67626
-1.74357
-1.78056
-1.78644
-1.76185
-1.70618
-1.62039
-1.50616
-1.36582
-1.20234
-1.01926
-0.820687
-0.611163
-0.395612
-0.179257
0.0325857
0.234522
0.421361
0.5882
0.730527
0.844495
0.926986
0.97577
0.98961
0.968376
0.912997
0.82558
0.709351
0.568585
0.408461
0.234989
0.0547035
-0.125825
-0.29889
-0.458124
-0.597175
-0.710432
-0.79336
-0.842744
-0.856802
-0.835426
-0.78015
-0.694174
-0.58222
-0.450335
-0.305501
-0.155243
-0.00750359
0.130374
0.251556
0.350373
0.422594
0.46559
0.478447
0.462148
0.418981
0.352781
0.268405
0.171437
0.0678156
-0.0365816
-0.136198
-0.226163
-0.302458
-0.362125
-0.403298
-0.425228
-0.428178
-0.413614
-0.383395
-0.34024
-0.287217
-0.227623
-0.164776
-0.10187
-0.0418818
0.0127569
0.059952
0.0981535
0.126343
0.144026
0.151212
0.148396
0.13623
0.116022
0.0890899
0.056952
0.0212019
-0.0165623
-0.0547982
-0.0920036
-0.127014
-0.158691
-0.186173
-0.208825
-0.226243
-0.238252
-0.244886
-0.246346
-0.243003
-0.235355
-0.224001
-0.209618
-0.192897
-0.174579
-0.155326
-0.135776
-0.116494
-0.0979671
-0.0805899
-0.064666
-0.0504122
-0.0379639
-0.0273814
-0.0186668
-0.0117793
-0.00666258
-0.00326571
-0.00156171
1.57597
1.47472
1.26367
0.927411
0.443967
-0.222758
-1.11915
-2.30414
-4.10071
-5.15385
-6.14446
-7.02871
-7.79894
-8.46059
-9.01753
-9.47213
-9.82601
-10.0799
-10.2334
-10.286
-10.2355
-10.0776
-9.80758
-9.41876
-8.902
-8.25233
-7.52034
-6.17977
-5.33891
-4.61368
-4.01164
-3.496
-3.04161
-2.63343
-2.25876
-1.90824
-1.5742
-1.25204
-0.938937
-0.633541
-0.335395
-0.0448979
0.237561
0.511454
0.775448
1.02827
1.2685
1.49463
1.70508
1.89826
2.07259
2.22651
2.35858
2.46742
2.55181
2.6107
2.64321
2.64871
2.62682
2.57718
2.50008
2.39598
2.26567
2.11025
1.93117
1.73023
1.50953
1.27154
1.01907
0.755262
0.483377
0.206926
-0.0692384
-0.343022
-0.609462
-0.864502
-1.10419
-1.32469
-1.5223
-1.69356
-1.83545
-1.94531
-2.02099
-2.06095
-2.06436
-2.03113
-1.96159
-1.85693
-1.71917
-1.55109
-1.35624
-1.13886
-0.903852
-0.656597
-0.40293
-0.149019
0.0988748
0.334415
0.551534
0.744498
0.908067
1.03781
1.13014
1.18255
1.19371
1.16359
1.09342
0.985831
0.844747
0.675325
0.483762
0.277202
0.0633703
-0.149611
-0.353313
-0.53989
-0.701958
-0.833017
-0.927831
-0.982753
-0.99585
-0.967159
-0.89869
-0.794423
-0.660107
-0.503071
-0.331646
-0.154839
0.0179636
0.178178
0.317869
0.430543
0.511473
0.557867
0.569016
0.546185
0.492551
0.412805
0.312808
0.199191
0.0789033
-0.0412433
-0.154921
-0.256642
-0.341977
-0.407762
-0.452101
-0.474391
-0.475266
-0.456238
-0.419972
-0.369572
-0.308614
-0.240852
-0.170026
-0.0996794
-0.0332046
0.0269519
0.0784414
0.119673
0.149634
0.167896
0.174578
0.170297
0.155922
0.132897
0.102744
0.0671619
0.0279093
-0.0132649
-0.0546904
-0.0947782
-0.13225
-0.165939
-0.194951
-0.218647
-0.23664
-0.248788
-0.255177
-0.256059
-0.251865
-0.243155
-0.230598
-0.21493
-0.196908
-0.177321
-0.156875
-0.136243
-0.116013
-0.0966846
-0.0786575
-0.0622311
-0.0476123
-0.0349211
-0.024197
-0.0154182
-0.0085176
-0.00341469
-3.8839e-05
0.00165083
4.44627
4.4132
4.34862
4.25548
4.15118
4.01915
3.99741
3.80058
-3.66876
-3.42186
-3.31873
-3.08236
-2.82814
-2.54379
-2.24374
-1.93384
-1.61913
-1.30154
-0.983401
-0.666245
-0.351371
-0.040099
0.266567
0.567361
0.860609
1.1446
1.41748
1.67736
1.92225
2.15015
2.35908
2.54708
2.71227
2.85286
2.96723
3.05389
3.11159
3.13928
3.13623
3.10211
3.03654
2.93969
2.81212
2.65475
2.46891
2.25629
2.01897
1.75943
1.48053
1.18555
0.878105
0.562029
0.241478
-0.0789238
-0.395096
-0.702298
-0.995772
-1.27095
-1.52344
-1.74899
-1.94369
-2.10411
-2.22725
-2.31072
-2.35281
-2.35259
-2.30992
-2.2254
-2.10058
-1.93785
-1.74053
-1.51278
-1.25956
-0.986588
-0.700139
-0.406986
-0.11427
0.170771
0.440829
0.688928
0.9085
1.09356
1.23907
1.341
1.39656
1.40434
1.36442
1.2784
1.14943
0.982202
0.78278
0.558452
0.317538
0.0690348
-0.177542
-0.412685
-0.627238
-0.812728
-0.961734
-1.06832
-1.12839
-1.1399
-1.10303
-1.02035
-0.896634
-0.738765
-0.555376
-0.356296
-0.152039
0.0465307
0.229511
0.387859
0.514268
0.603542
0.652767
0.661458
0.631373
0.566501
0.47249
0.356257
0.225523
0.0882732
-0.0477463
-0.175449
-0.28875
-0.382837
-0.454377
-0.501481
-0.523718
-0.522017
-0.498339
-0.455792
-0.397992
-0.329027
-0.253116
-0.174397
-0.096782
-0.0239357
0.0414958
0.0970566
0.141103
0.172639
0.191314
0.197357
0.19152
0.174894
0.149054
0.115717
0.0767569
0.0340956
-0.0103767
-0.054871
-0.0977057
-0.137515
-0.173096
-0.203531
-0.228179
-0.246675
-0.258907
-0.26502
-0.265309
-0.26027
-0.250522
-0.236795
-0.219889
-0.200618
-0.179821
-0.158243
-0.13659
-0.115471
-0.0953959
-0.076768
-0.0598824
-0.0449352
-0.0320313
-0.0211901
-0.012366
-0.00546636
-0.000386802
0.00296222
0.00463493
7.10047
7.08055
7.04133
6.98328
6.90885
6.81269
6.76068
6.60186
-3.3265
-3.09634
-2.9591
-2.73778
-2.49542
-2.23411
-1.9572
-1.66564
-1.36284
-1.05092
-0.73242
-0.409347
-0.0838776
0.241839
0.565704
0.885552
1.1991
1.50401
1.79789
2.07829
2.34277
2.5889
2.81426
3.01653
3.19347
3.34301
3.46322
3.55239
3.60902
3.63188
3.6201
3.57381
3.49213
3.37525
3.22387
3.03908
2.82241
2.57581
2.30167
2.00284
1.68258
1.34464
0.993148
0.632469
0.267317
-0.0971934
-0.456123
-0.80425
-1.13621
-1.44683
-1.73117
-1.98444
-2.20226
-2.38078
-2.51667
-2.6073
-2.65079
-2.64613
-2.59322
-2.4929
-2.34701
-2.1584
-1.9309
-1.66932
-1.37936
-1.0676
-0.741194
-0.407881
-0.0757892
0.246851
0.551753
0.831022
1.07725
1.2837
1.44474
1.55589
1.61411
1.61792
1.5675
1.46486
1.31371
1.11953
0.889316
0.631472
0.355551
0.071802
-0.208862
-0.475751
-0.718452
-0.92739
-1.09421
-1.21229
-1.27709
-1.28645
-1.24074
-1.14307
-0.999126
-0.816917
-0.606465
-0.379147
-0.14699
0.0776066
0.283406
0.460259
0.600077
0.697219
0.748695
0.754289
0.716343
0.639679
0.53095
0.398164
0.25014
0.095911
-0.0558554
-0.197334
-0.321877
-0.424319
-0.501195
-0.550658
-0.572478
-0.567899
-0.539358
-0.490409
-0.425187
-0.348268
-0.264337
-0.177929
-0.0932819
-0.0143029
0.0561348
0.115513
0.162145
0.195066
0.214002
0.219304
0.211864
0.192976
0.164361
0.127918
0.0856887
0.0397494
-0.00787748
-0.0552904
-0.10072
-0.142726
-0.180071
-0.211818
-0.237327
-0.256256
-0.268526
-0.274341
-0.274037
-0.26817
-0.257418
-0.242569
-0.224479
-0.204024
-0.182083
-0.159441
-0.136833
-0.114887
-0.0941222
-0.0749435
-0.0576409
-0.0424005
-0.0293117
-0.0183751
-0.00952187
-0.00263469
0.0024141
0.00573206
0.00738598
9.54018
9.52916
9.50815
9.47722
9.44113
9.39465
9.38001
9.30871
-2.82881
-2.68788
-2.59565
-2.4274
-2.22489
-1.99076
-1.73185
-1.45078
-1.15226
-0.838723
-0.513709
-0.179851
0.159684
0.502309
0.845294
1.18584
1.52107
1.8481
2.16398
2.4658
2.75065
3.01566
3.25802
3.47503
3.66414
3.82294
3.94926
4.04116
4.09694
4.11511
4.09407
4.03632
3.93853
3.80158
3.62641
3.41423
3.16679
2.88629
2.57543
2.23744
1.87598
1.49527
1.09996
0.694937
0.285481
-0.122702
-0.524007
-0.912628
-1.28258
-1.62814
-1.94378
-2.22419
-2.46451
-2.66051
-2.80853
-2.90567
-2.94992
-2.94019
-2.87648
-2.7598
-2.59235
-2.37739
-2.11931
-1.82356
-1.49661
-1.14586
-0.779379
-0.405873
-0.0344576
0.325651
0.66519
0.975354
1.24789
1.47535
1.65149
1.7714
1.83179
1.83113
1.76975
1.65003
1.4763
1.2548
0.99352
0.701971
0.390936
0.0719415
-0.242753
-0.541224
-0.811833
-1.04391
-1.22819
-1.35734
-1.42643
-1.43316
-1.37813
-1.26502
-1.1004
-0.893492
-0.655728
-0.399997
-0.139936
0.110545
0.338883
0.533839
0.686572
0.79103
0.844194
0.846158
0.799906
0.711115
0.58747
0.438083
0.272866
0.101887
-0.0652852
-0.220118
-0.355436
-0.465762
-0.547525
-0.598957
-0.620047
-0.612373
-0.57885
-0.523488
-0.450926
-0.366223
-0.274502
-0.180682
-0.0893072
-0.00450845
0.0706424
0.133567
0.182553
0.216676
0.235744
0.240234
0.231174
0.21005
0.178735
0.139298
0.0939378
0.0448775
-0.00573649
-0.0558995
-0.10376
-0.147814
-0.186791
-0.219737
-0.246021
-0.265321
-0.27759
-0.283094
-0.282204
-0.275537
-0.263825
-0.247909
-0.228701
-0.20713
-0.184117
-0.160484
-0.13699
-0.11428
-0.0928814
-0.0732003
-0.0555216
-0.0400204
-0.0267721
-0.0157591
-0.00689005
-2.42401e-05
0.00498841
0.0082725
0.00990654
11.7443
11.7381
11.7265
11.7095
11.6902
11.6667
11.6591
11.625
-2.56385
-2.45821
-2.36999
-2.2234
-2.03701
-1.81566
-1.56443
-1.28611
-0.985215
-0.664339
-0.328248
0.020133
0.376478
0.738343
1.10236
1.46517
1.82337
2.17353
2.51226
2.83617
3.14192
3.42623
3.68594
3.91797
4.11946
4.28771
4.42032
4.51514
4.57039
4.58472
4.55779
4.48557
4.37124
4.2144
4.01575
3.77658
3.49884
3.18497
2.83798
2.46146
2.05949
1.63676
1.19841
0.749882
0.296997
-0.153937
-0.596693
-1.02487
-1.4319
-1.81146
-2.1575
-2.46418
-2.72618
-2.93888
-3.0983
-3.20133
-3.2458
-3.23055
-3.15566
-3.02239
-2.83324
-2.59192
-2.30333
-1.97361
-1.60994
-1.22058
-0.814494
-0.401331
0.00881213
0.405753
0.779265
1.11965
1.41785
1.66567
1.85631
1.98446
2.04658
2.04108
1.96847
1.83152
1.63516
1.38641
1.09425
0.76929
0.423546
0.0697901
-0.278405
-0.607875
-0.905795
-1.16043
-1.36161
-1.50133
-1.57426
-1.57799
-1.51333
-1.38457
-1.1992
-0.967613
-0.702665
-0.418786
-0.131212
0.144687
0.395002
0.607453
0.772481
0.883664
0.937996
0.935912
0.881073
0.780028
0.641502
0.475703
0.293625
0.106333
-0.0757276
-0.243358
-0.388895
-0.506583
-0.592779
-0.645817
-0.665925
-0.655015
-0.61648
-0.554791
-0.475067
-0.382833
-0.283631
-0.182742
-0.0849935
0.00527639
0.0848267
0.151021
0.202135
0.237292
0.256384
0.260014
0.249343
0.226042
0.19213
0.149835
0.101506
0.0495004
-0.0039176
-0.0566514
-0.106773
-0.152723
-0.1932
-0.227237
-0.254212
-0.273829
-0.286108
-0.291254
-0.289794
-0.282363
-0.26974
-0.252818
-0.232563
-0.209948
-0.185939
-0.161387
-0.137076
-0.113665
-0.0916871
-0.0715503
-0.0535337
-0.0378016
-0.0244163
-0.0133429
-0.00446891
0.00236888
0.00734188
0.0105905
0.0122042
13.7127
13.709
13.7021
13.6921
13.6811
13.6677
13.6637
13.6448
-2.42036
-2.33012
-2.24302
-2.10321
-1.92194
-1.70295
-1.45079
-1.16807
-0.859121
-0.525373
-0.173952
0.190878
0.566595
0.94966
1.33628
1.72258
2.10464
2.47862
2.84067
3.18699
3.51387
3.81764
4.09477
4.34187
4.55576
4.73349
4.87242
4.97021
5.0249
5.03494
4.99922
4.91605
4.78627
4.61019
4.38871
4.1233
3.81607
3.46972
3.08759
2.67361
2.23227
1.76873
1.28862
0.797883
0.302901
-0.18943
-0.672278
-1.13868
-1.58147
-1.99378
-2.36903
-2.7009
-2.98357
-3.21208
-3.38217
-3.49048
-3.53473
-3.51364
-3.42742
-3.27758
-3.06694
-2.79959
-2.48101
-2.11795
-1.71832
-1.29122
-0.84648
-0.394675
0.0531435
0.485856
0.892299
1.26191
1.58484
1.8522
2.05665
2.19246
2.25589
2.24533
2.16142
2.00735
1.78862
1.51307
1.19061
0.832967
0.453336
0.0657268
-0.315041
-0.674582
-0.998924
-1.27531
-1.49268
-1.64239
-1.71873
-1.71919
-1.64479
-1.50043
-1.29451
-1.03859
-0.74696
-0.435562
-0.12113
0.1794
0.450902
0.680083
0.856704
0.974009
1.02905
1.02261
0.95906
0.845823
0.692655
0.510839
0.312419
0.10942
-0.0868768
-0.266651
-0.42179
-0.546294
-0.636479
-0.690798
-0.709729
-0.695509
-0.652016
-0.584162
-0.497534
-0.398089
-0.291773
-0.184205
-0.0804712
0.0149054
0.0985321
0.16772
0.220746
0.256786
0.275816
0.278562
0.266313
0.240916
0.204531
0.159533
0.108412
0.0536484
-0.0023843
-0.0575031
-0.109717
-0.157412
-0.199258
-0.234284
-0.261874
-0.281756
-0.293982
-0.298811
-0.296806
-0.28865
-0.275171
-0.25731
-0.236078
-0.212495
-0.187564
-0.162166
-0.137105
-0.113053