/*--------------------------------*- C++ -*----------------------------------*\
  =========                 |
  \\      /  F ield         | OpenFOAM: The Open Source CFD Toolbox
   \\    /   O peration     | Website:  https://openfoam.org
    \\  /    A nd           | Version:  12
     \\/     M anipulation  |
\*---------------------------------------------------------------------------*/
FoamFile
{
    format      ascii;
    class       volVectorField;
    location    "2.04";
    object      U;
}
// * * * * * * * * * * * * * * * * * * * * * * * * * * * * * * * * * * * * * //

dimensions      [0 1 -1 0 0 0 0];

internalField   nonuniform List<vector> 
3829
(
(3.3909e-06 -3.26385e-05 0)
(1.0221e-05 -3.26479e-05 0)
(1.71142e-05 -3.25214e-05 0)
(2.40549e-05 -3.23299e-05 0)
(3.10285e-05 -3.20727e-05 0)
(3.80216e-05 -3.17491e-05 0)
(4.50192e-05 -3.13602e-05 0)
(5.2005e-05 -3.09066e-05 0)
(5.89668e-05 -3.03894e-05 0)
(6.5894e-05 -2.98146e-05 0)
(7.27686e-05 -2.91784e-05 0)
(7.95761e-05 -2.84865e-05 0)
(8.63053e-05 -2.77436e-05 0)
(9.29436e-05 -2.69495e-05 0)
(9.94773e-05 -2.61104e-05 0)
(0.000105891 -2.52311e-05 0)
(0.000112168 -2.4317e-05 0)
(0.000118291 -2.33742e-05 0)
(0.000124245 -2.24092e-05 0)
(0.000130016 -2.14275e-05 0)
(0.000135592 -2.04353e-05 0)
(0.000140964 -1.94376e-05 0)
(0.000146121 -1.84391e-05 0)
(0.000151057 -1.74437e-05 0)
(0.000155766 -1.64543e-05 0)
(0.000160243 -1.54738e-05 0)
(0.000164485 -1.45035e-05 0)
(0.000168486 -1.35446e-05 0)
(0.000172245 -1.25968e-05 0)
(0.000175759 -1.16599e-05 0)
(0.000179023 -1.07326e-05 0)
(0.000182034 -9.81351e-06 0)
(0.000184793 -8.9017e-06 0)
(0.000187275 -7.99512e-06 0)
(0.00018947 -7.08876e-06 0)
(0.000191393 -6.18338e-06 0)
(0.000193065 -5.27357e-06 0)
(0.000194471 -4.35704e-06 0)
(0.0001956 -3.42888e-06 0)
(0.00019647 -2.48907e-06 0)
(0.00019706 -1.53373e-06 0)
(0.000197386 -5.63728e-07 0)
(0.000197354 4.17257e-07 0)
(0.000196915 1.41597e-06 0)
(0.000196123 2.4278e-06 0)
(0.000194947 3.45153e-06 0)
(0.00019338 4.48478e-06 0)
(0.000191416 5.52454e-06 0)
(0.000189046 6.56708e-06 0)
(0.000186264 7.60815e-06 0)
(0.000183067 8.64274e-06 0)
(0.000179452 9.66546e-06 0)
(0.00017542 1.06659e-05 0)
(0.000170974 1.16464e-05 0)
(0.000166119 1.25958e-05 0)
(0.000160862 1.35063e-05 0)
(0.000155215 1.43706e-05 0)
(0.000149194 1.51823e-05 0)
(0.000142805 1.5931e-05 0)
(0.000136073 1.66067e-05 0)
(0.000129034 1.72125e-05 0)
(0.000121686 1.77298e-05 0)
(0.000114065 1.81614e-05 0)
(0.000106214 1.84979e-05 0)
(9.81674e-05 1.87325e-05 0)
(8.9975e-05 1.88692e-05 0)
(8.16598e-05 1.889e-05 0)
(7.32698e-05 1.88164e-05 0)
(6.48233e-05 1.8624e-05 0)
(5.64244e-05 1.83511e-05 0)
(4.81555e-05 1.79615e-05 0)
(3.99874e-05 1.74705e-05 0)
(3.19641e-05 1.68805e-05 0)
(2.41452e-05 1.6207e-05 0)
(1.66004e-05 1.54569e-05 0)
(9.39626e-06 1.46253e-05 0)
(2.58279e-06 1.37362e-05 0)
(-3.85123e-06 1.27842e-05 0)
(-9.87384e-06 1.17836e-05 0)
(-1.54474e-05 1.07387e-05 0)
(-2.05504e-05 9.6676e-06 0)
(-2.5138e-05 8.58081e-06 0)
(-2.92002e-05 7.48159e-06 0)
(-3.27338e-05 6.38723e-06 0)
(-3.57307e-05 5.30591e-06 0)
(-3.81734e-05 4.24385e-06 0)
(-4.0076e-05 3.21293e-06 0)
(-4.14415e-05 2.22064e-06 0)
(-4.22836e-05 1.27387e-06 0)
(-4.26197e-05 3.79592e-07 0)
(-4.24736e-05 -4.57148e-07 0)
(-4.18672e-05 -1.23019e-06 0)
(-4.08251e-05 -1.93742e-06 0)
(-3.93827e-05 -2.5752e-06 0)
(-3.75711e-05 -3.14216e-06 0)
(-3.54254e-05 -3.63629e-06 0)
(-3.29847e-05 -4.05995e-06 0)
(-3.02826e-05 -4.40982e-06 0)
(-2.73648e-05 -4.69087e-06 0)
(-2.42607e-05 -4.90274e-06 0)
(-2.10105e-05 -5.05141e-06 0)
(-1.76592e-05 -5.1369e-06 0)
(-1.424e-05 -5.16496e-06 0)
(-1.07862e-05 -5.138e-06 0)
(-7.33118e-06 -5.06407e-06 0)
(-3.91209e-06 -4.94334e-06 0)
(-5.54355e-07 -4.78246e-06 0)
(2.70782e-06 -4.58833e-06 0)
(5.86018e-06 -4.36017e-06 0)
(8.87825e-06 -4.10809e-06 0)
(1.17334e-05 -3.8355e-06 0)
(1.4417e-05 -3.54372e-06 0)
(1.69107e-05 -3.24107e-06 0)
(1.92015e-05 -2.92878e-06 0)
(2.12757e-05 -2.61318e-06 0)
(2.31336e-05 -2.29308e-06 0)
(2.47721e-05 -1.97695e-06 0)
(2.61727e-05 -1.66616e-06 0)
(2.73508e-05 -1.3595e-06 0)
(2.83055e-05 -1.06453e-06 0)
(2.90262e-05 -7.82658e-07 0)
(2.95351e-05 -5.09469e-07 0)
(2.98331e-05 -2.54036e-07 0)
(2.99246e-05 -1.24252e-08 0)
(2.98204e-05 2.1162e-07 0)
(2.9535e-05 4.21239e-07 0)
(2.908e-05 6.08457e-07 0)
(2.84568e-05 7.80364e-07 0)
(2.76836e-05 9.33874e-07 0)
(2.67728e-05 1.06967e-06 0)
(2.57382e-05 1.18763e-06 0)
(2.45926e-05 1.28803e-06 0)
(2.33484e-05 1.37134e-06 0)
(2.20145e-05 1.43738e-06 0)
(2.06144e-05 1.49169e-06 0)
(1.9154e-05 1.5276e-06 0)
(1.76477e-05 1.55343e-06 0)
(1.61119e-05 1.56222e-06 0)
(1.45461e-05 1.56149e-06 0)
(1.2974e-05 1.55045e-06 0)
(1.14035e-05 1.52664e-06 0)
(9.8406e-06 1.49439e-06 0)
(8.29789e-06 1.45466e-06 0)
(6.78359e-06 1.40736e-06 0)
(5.30583e-06 1.35351e-06 0)
(3.87107e-06 1.29316e-06 0)
(2.48772e-06 1.23029e-06 0)
(1.16411e-06 1.16374e-06 0)
(-9.59201e-08 1.09348e-06 0)
(-1.29116e-06 1.02111e-06 0)
(-2.41826e-06 9.47123e-07 0)
(-3.47254e-06 8.72395e-07 0)
(-4.45136e-06 7.97579e-07 0)
(-5.35298e-06 7.23299e-07 0)
(-6.17641e-06 6.50061e-07 0)
(-6.92092e-06 5.78307e-07 0)
(-7.58682e-06 5.08295e-07 0)
(-8.17482e-06 4.40656e-07 0)
(-8.68593e-06 3.75519e-07 0)
(-9.12203e-06 3.13244e-07 0)
(-9.48505e-06 2.54142e-07 0)
(-9.77744e-06 1.9844e-07 0)
(-1.00021e-05 1.46304e-07 0)
(-1.01623e-05 9.78401e-08 0)
(-1.02611e-05 5.30911e-08 0)
(-1.03021e-05 1.18423e-08 0)
(-1.02899e-05 -2.59901e-08 0)
(-1.02283e-05 -6.01088e-08 0)
(-1.01206e-05 -9.06155e-08 0)
(-9.97064e-06 -1.17613e-07 0)
(-9.78245e-06 -1.41193e-07 0)
(-9.56008e-06 -1.61444e-07 0)
(-9.30758e-06 -1.78466e-07 0)
(-9.02903e-06 -1.92378e-07 0)
(-8.72843e-06 -2.03341e-07 0)
(-8.40968e-06 -2.11559e-07 0)
(-8.07645e-06 -2.17286e-07 0)
(-7.73209e-06 -2.20816e-07 0)
(-7.37964e-06 -2.22468e-07 0)
(-7.02171e-06 -2.22578e-07 0)
(-6.66046e-06 -2.2148e-07 0)
(-6.29754e-06 -2.19491e-07 0)
(-5.93425e-06 -2.16904e-07 0)
(-5.57139e-06 -2.13969e-07 0)
(-5.20949e-06 -2.10863e-07 0)
(-4.84884e-06 -2.07683e-07 0)
(-4.48964e-06 -2.04447e-07 0)
(-4.13212e-06 -2.0109e-07 0)
(-3.77666e-06 -1.97495e-07 0)
(-3.42393e-06 -1.93517e-07 0)
(-3.0748e-06 -1.89082e-07 0)
(-2.73021e-06 -1.84191e-07 0)
(-2.39108e-06 -1.78978e-07 0)
(-2.05794e-06 -1.73698e-07 0)
(-1.73072e-06 -1.68613e-07 0)
(-1.409e-06 -1.63946e-07 0)
(-1.09205e-06 -1.5993e-07 0)
(-7.78712e-07 -1.56731e-07 0)
(-4.67273e-07 -1.54426e-07 0)
(-1.55901e-07 -1.53161e-07 0)
(3.9614e-06 -9.97725e-05 0)
(1.19418e-05 -9.97647e-05 0)
(1.99809e-05 -9.93222e-05 0)
(2.80576e-05 -9.86511e-05 0)
(3.61517e-05 -9.77532e-05 0)
(4.42354e-05 -9.66272e-05 0)
(5.22837e-05 -9.52752e-05 0)
(6.02809e-05 -9.3711e-05 0)
(6.81695e-05 -9.19319e-05 0)
(7.59825e-05 -8.99519e-05 0)
(8.37063e-05 -8.77885e-05 0)
(9.12569e-05 -8.54518e-05 0)
(9.86751e-05 -8.29539e-05 0)
(0.000105937 -8.0314e-05 0)
(0.000112991 -7.75422e-05 0)
(0.000119834 -7.4666e-05 0)
(0.000126439 -7.16995e-05 0)
(0.000132785 -6.86669e-05 0)
(0.000138864 -6.55874e-05 0)
(0.00014467 -6.24819e-05 0)
(0.000150196 -5.93688e-05 0)
(0.000155445 -5.6266e-05 0)
(0.000160419 -5.31878e-05 0)
(0.000165127 -5.01472e-05 0)
(0.00016957 -4.71516e-05 0)
(0.000173756 -4.42112e-05 0)
(0.000177695 -4.13308e-05 0)
(0.000181392 -3.85091e-05 0)
(0.000184856 -3.57455e-05 0)
(0.00018809 -3.30372e-05 0)
(0.000191095 -3.03784e-05 0)
(0.000193867 -2.77684e-05 0)
(0.000196411 -2.519e-05 0)
(0.000198725 -2.26439e-05 0)
(0.000200781 -2.01108e-05 0)
(0.000202596 -1.75706e-05 0)
(0.000204207 -1.50096e-05 0)
(0.000205595 -1.24148e-05 0)
(0.000206734 -9.77671e-06 0)
(0.000207636 -7.08392e-06 0)
(0.000208274 -4.33402e-06 0)
(0.000208619 -1.52164e-06 0)
(0.00020862 1.34479e-06 0)
(0.000208225 4.27656e-06 0)
(0.000207441 7.265e-06 0)
(0.000206253 1.03037e-05 0)
(0.000204644 1.3384e-05 0)
(0.0002026 1.64953e-05 0)
(0.000200108 1.9625e-05 0)
(0.000197157 2.27582e-05 0)
(0.000193739 2.58796e-05 0)
(0.000189826 2.89687e-05 0)
(0.000185461 3.20125e-05 0)
(0.000180644 3.49801e-05 0)
(0.000175331 3.78531e-05 0)
(0.000169552 4.06095e-05 0)
(0.000163327 4.3216e-05 0)
(0.00015666 4.56619e-05 0)
(0.000149542 4.79126e-05 0)
(0.000142064 4.99369e-05 0)
(0.000134225 5.17364e-05 0)
(0.000126021 5.32744e-05 0)
(0.000117534 5.45349e-05 0)
(0.000108765 5.54927e-05 0)
(9.98073e-05 5.6155e-05 0)
(9.06643e-05 5.64882e-05 0)
(8.14342e-05 5.65205e-05 0)
(7.21386e-05 5.62142e-05 0)
(6.2865e-05 5.55986e-05 0)
(5.36683e-05 5.46574e-05 0)
(4.45333e-05 5.34051e-05 0)
(3.55914e-05 5.18458e-05 0)
(2.6884e-05 5.00002e-05 0)
(1.84874e-05 4.79017e-05 0)
(1.03871e-05 4.55537e-05 0)
(2.71368e-06 4.30069e-05 0)
(-4.48492e-06 4.02594e-05 0)
(-1.12608e-05 3.73373e-05 0)
(-1.75471e-05 3.4276e-05 0)
(-2.32943e-05 3.11121e-05 0)
(-2.84603e-05 2.7869e-05 0)
(-3.30589e-05 2.45888e-05 0)
(-3.70578e-05 2.12897e-05 0)
(-4.0438e-05 1.80111e-05 0)
(-4.32329e-05 1.47816e-05 0)
(-4.54146e-05 1.1629e-05 0)
(-4.69958e-05 8.58258e-06 0)
(-4.79977e-05 5.65778e-06 0)
(-4.84366e-05 2.88124e-06 0)
(-4.83383e-05 2.70736e-07 0)
(-4.77304e-05 -2.15901e-06 0)
(-4.66456e-05 -4.39883e-06 0)
(-4.51171e-05 -6.43593e-06 0)
(-4.31827e-05 -8.26241e-06 0)
(-4.08796e-05 -9.87669e-06 0)
(-3.82542e-05 -1.1272e-05 0)
(-3.53416e-05 -1.24526e-05 0)
(-3.21829e-05 -1.34217e-05 0)
(-2.88324e-05 -1.41852e-05 0)
(-2.53217e-05 -1.47478e-05 0)
(-2.16918e-05 -1.51227e-05 0)
(-1.79858e-05 -1.53175e-05 0)
(-1.42432e-05 -1.5345e-05 0)
(-1.05027e-05 -1.52161e-05 0)
(-6.79058e-06 -1.49478e-05 0)
(-3.13894e-06 -1.45493e-05 0)
(4.09173e-07 -1.40404e-05 0)
(3.84066e-06 -1.34317e-05 0)
(7.13378e-06 -1.27361e-05 0)
(1.02536e-05 -1.19707e-05 0)
(1.31957e-05 -1.11468e-05 0)
(1.59396e-05 -1.02762e-05 0)
(1.84676e-05 -9.37266e-06 0)
(2.0773e-05 -8.44755e-06 0)
(2.28484e-05 -7.51253e-06 0)
(2.46895e-05 -6.57298e-06 0)
(2.62874e-05 -5.64673e-06 0)
(2.7648e-05 -4.73372e-06 0)
(2.87719e-05 -3.84163e-06 0)
(2.96522e-05 -2.98325e-06 0)
(3.0307e-05 -2.15736e-06 0)
(3.07409e-05 -1.36886e-06 0)
(3.09538e-05 -6.30248e-07 0)
(3.09624e-05 6.68265e-08 0)
(3.07756e-05 7.11083e-07 0)
(3.0399e-05 1.31016e-06 0)
(2.98527e-05 1.85413e-06 0)
(2.91488e-05 2.34487e-06 0)
(2.82917e-05 2.78249e-06 0)
(2.72998e-05 3.16967e-06 0)
(2.61864e-05 3.50493e-06 0)
(2.49651e-05 3.78779e-06 0)
(2.36475e-05 4.02356e-06 0)
(2.22524e-05 4.21308e-06 0)
(2.07905e-05 4.35995e-06 0)
(1.92727e-05 4.46068e-06 0)
(1.77131e-05 4.52574e-06 0)
(1.6126e-05 4.54962e-06 0)
(1.45228e-05 4.54089e-06 0)
(1.29082e-05 4.50185e-06 0)
(1.12995e-05 4.43218e-06 0)
(9.70898e-06 4.33642e-06 0)
(8.14083e-06 4.21643e-06 0)
(6.60331e-06 4.07634e-06 0)
(5.10476e-06 3.91787e-06 0)
(3.65669e-06 3.74343e-06 0)
(2.26521e-06 3.55814e-06 0)
(9.31632e-07 3.36193e-06 0)
(-3.35472e-07 3.15756e-06 0)
(-1.53411e-06 2.94634e-06 0)
(-2.66228e-06 2.73127e-06 0)
(-3.7151e-06 2.51431e-06 0)
(-4.69042e-06 2.29725e-06 0)
(-5.58682e-06 2.08169e-06 0)
(-6.40363e-06 1.86919e-06 0)
(-7.14056e-06 1.66111e-06 0)
(-7.79766e-06 1.45867e-06 0)
(-8.37589e-06 1.26277e-06 0)
(-8.8767e-06 1.07453e-06 0)
(-9.30172e-06 8.94754e-07 0)
(-9.6531e-06 7.24204e-07 0)
(-9.93353e-06 5.63467e-07 0)
(-1.01461e-05 4.12996e-07 0)
(-1.02942e-05 2.73135e-07 0)
(-1.03815e-05 1.44025e-07 0)
(-1.04117e-05 2.56005e-08 0)
(-1.03885e-05 -8.28453e-08 0)
(-1.03159e-05 -1.80702e-07 0)
(-1.01977e-05 -2.68233e-07 0)
(-1.00378e-05 -3.45705e-07 0)
(-9.84008e-06 -4.13351e-07 0)
(-9.60863e-06 -4.71404e-07 0)
(-9.34753e-06 -5.20127e-07 0)
(-9.06093e-06 -5.59846e-07 0)
(-8.7529e-06 -5.91008e-07 0)
(-8.42744e-06 -6.14208e-07 0)
(-8.08831e-06 -6.30192e-07 0)
(-7.73893e-06 -6.39828e-07 0)
(-7.38233e-06 -6.44057e-07 0)
(-7.02113e-06 -6.43868e-07 0)
(-6.65743e-06 -6.40234e-07 0)
(-6.29282e-06 -6.34092e-07 0)
(-5.92848e-06 -6.263e-07 0)
(-5.56509e-06 -6.17596e-07 0)
(-5.20296e-06 -6.08509e-07 0)
(-4.84222e-06 -5.99307e-07 0)
(-4.48288e-06 -5.90032e-07 0)
(-4.12504e-06 -5.80452e-07 0)
(-3.76899e-06 -5.70199e-07 0)
(-3.41546e-06 -5.58787e-07 0)
(-3.06547e-06 -5.45958e-07 0)
(-2.72018e-06 -5.31702e-07 0)
(-2.38076e-06 -5.16433e-07 0)
(-2.04786e-06 -5.00946e-07 0)
(-1.72134e-06 -4.86038e-07 0)
(-1.40075e-06 -4.72422e-07 0)
(-1.08528e-06 -4.60734e-07 0)
(-7.73636e-07 -4.51444e-07 0)
(-4.6411e-07 -4.44668e-07 0)
(-1.54833e-07 -4.40969e-07 0)
(5.2349e-06 -0.000173858 0)
(1.57552e-05 -0.0001737 0)
(2.63355e-05 -0.000172711 0)
(3.69091e-05 -0.000171217 0)
(4.74273e-05 -0.000169221 0)
(5.78749e-05 -0.000166725 0)
(6.81231e-05 -0.000163754 0)
(7.81963e-05 -0.00016031 0)
(8.80798e-05 -0.000156433 0)
(9.76232e-05 -0.000152146 0)
(0.000106848 -0.000147484 0)
(0.000115777 -0.000142481 0)
(0.000124346 -0.000137172 0)
(0.000132566 -0.000131608 0)
(0.000140368 -0.000125856 0)
(0.00014772 -0.000119974 0)
(0.000154638 -0.000114024 0)
(0.000161078 -0.000108069 0)
(0.000167059 -0.000102165 0)
(0.000172582 -9.63593e-05 0)
(0.000177666 -9.06948e-05 0)
(0.000182335 -8.52071e-05 0)
(0.00018662 -7.99216e-05 0)
(0.000190564 -7.48536e-05 0)
(0.000194186 -7.00149e-05 0)
(0.000197499 -6.54004e-05 0)
(0.000200576 -6.09944e-05 0)
(0.000203445 -5.67987e-05 0)
(0.000206113 -5.27732e-05 0)
(0.000208608 -4.88951e-05 0)
(0.000210912 -4.51396e-05 0)
(0.000213084 -4.14712e-05 0)
(0.000215115 -3.78616e-05 0)
(0.000216991 -3.42853e-05 0)
(0.00021881 -3.06971e-05 0)
(0.000220551 -2.70644e-05 0)
(0.000222191 -2.33453e-05 0)
(0.000223686 -1.95274e-05 0)
(0.000225011 -1.55779e-05 0)
(0.000226145 -1.14807e-05 0)
(0.00022703 -7.23153e-06 0)
(0.000227623 -2.81904e-06 0)
(0.000227863 1.76178e-06 0)
(0.000227701 6.51712e-06 0)
(0.000227096 1.14286e-05 0)
(0.000226025 1.64796e-05 0)
(0.000224461 2.16501e-05 0)
(0.00022238 2.69162e-05 0)
(0.000219757 3.22493e-05 0)
(0.000216579 3.76186e-05 0)
(0.00021282 4.29895e-05 0)
(0.000208491 4.8327e-05 0)
(0.000203556 5.35897e-05 0)
(0.000197999 5.87321e-05 0)
(0.000191868 6.37063e-05 0)
(0.000185111 6.84703e-05 0)
(0.000177801 7.29611e-05 0)
(0.000169951 7.71624e-05 0)
(0.000161484 8.09912e-05 0)
(0.000152591 8.44575e-05 0)
(0.000143289 8.74817e-05 0)
(0.000133506 9.00353e-05 0)
(0.000123337 9.20901e-05 0)
(0.000112914 9.36266e-05 0)
(0.000102251 9.46176e-05 0)
(9.14706e-05 9.50585e-05 0)
(8.05938e-05 9.49355e-05 0)
(6.96663e-05 9.42241e-05 0)
(5.87968e-05 9.29849e-05 0)
(4.80252e-05 9.117e-05 0)
(3.74981e-05 8.8824e-05 0)
(2.72203e-05 8.59794e-05 0)
(1.73375e-05 8.2661e-05 0)
(7.84677e-06 7.89044e-05 0)
(-1.1419e-06 7.47392e-05 0)
(-9.57921e-06 7.02281e-05 0)
(-1.7503e-05 6.53908e-05 0)
(-2.48086e-05 6.02968e-05 0)
(-3.14356e-05 5.50005e-05 0)
(-3.73894e-05 4.95494e-05 0)
(-4.26344e-05 4.40133e-05 0)
(-4.71598e-05 3.84262e-05 0)
(-5.09687e-05 3.28604e-05 0)
(-5.40274e-05 2.73507e-05 0)
(-5.63751e-05 2.19599e-05 0)
(-5.79984e-05 1.67358e-05 0)
(-5.8957e-05 1.17096e-05 0)
(-5.92662e-05 6.92224e-06 0)
(-5.89352e-05 2.40758e-06 0)
(-5.80232e-05 -1.81203e-06 0)
(-5.65821e-05 -5.71247e-06 0)
(-5.46435e-05 -9.27011e-06 0)
(-5.22375e-05 -1.2478e-05 0)
(-4.94316e-05 -1.53244e-05 0)
(-4.62629e-05 -1.78078e-05 0)
(-4.27829e-05 -1.99217e-05 0)
(-3.90572e-05 -2.16821e-05 0)
(-3.51239e-05 -2.30915e-05 0)
(-3.10315e-05 -2.41674e-05 0)
(-2.68275e-05 -2.49155e-05 0)
(-2.25583e-05 -2.53609e-05 0)
(-1.82649e-05 -2.55191e-05 0)
(-1.39869e-05 -2.54159e-05 0)
(-9.7669e-06 -2.50683e-05 0)
(-5.63078e-06 -2.45e-05 0)
(-1.61866e-06 -2.3738e-05 0)
(2.24087e-06 -2.28062e-05 0)
(5.9351e-06 -2.17216e-05 0)
(9.4362e-06 -2.05136e-05 0)
(1.27244e-05 -1.92019e-05 0)
(1.57884e-05 -1.78054e-05 0)
(1.8615e-05 -1.63479e-05 0)
(2.11886e-05 -1.48466e-05 0)
(2.3504e-05 -1.33225e-05 0)
(2.55627e-05 -1.17863e-05 0)
(2.73523e-05 -1.026e-05 0)
(2.88825e-05 -8.75179e-06 0)
(3.01613e-05 -7.27593e-06 0)
(3.11753e-05 -5.84508e-06 0)
(3.19422e-05 -4.46496e-06 0)
(3.24724e-05 -3.14889e-06 0)
(3.27587e-05 -1.89975e-06 0)
(3.28287e-05 -7.21543e-07 0)
(3.26914e-05 3.78919e-07 0)
(3.2356e-05 1.39849e-06 0)
(3.18388e-05 2.3349e-06 0)
(3.11413e-05 3.18827e-06 0)
(3.02857e-05 3.95253e-06 0)
(2.92897e-05 4.63404e-06 0)
(2.81633e-05 5.23113e-06 0)
(2.69145e-05 5.74606e-06 0)
(2.55681e-05 6.18129e-06 0)
(2.41387e-05 6.53781e-06 0)
(2.26326e-05 6.82423e-06 0)
(2.10643e-05 7.03838e-06 0)
(1.94517e-05 7.18411e-06 0)
(1.78055e-05 7.27081e-06 0)
(1.61381e-05 7.29597e-06 0)
(1.44632e-05 7.2695e-06 0)
(1.27871e-05 7.19273e-06 0)
(1.11223e-05 7.07009e-06 0)
(9.47864e-06 6.9094e-06 0)
(7.8667e-06 6.71099e-06 0)
(6.29417e-06 6.48064e-06 0)
(4.76618e-06 6.22202e-06 0)
(3.29475e-06 5.94093e-06 0)
(1.88385e-06 5.63932e-06 0)
(5.37157e-07 5.32073e-06 0)
(-7.38974e-07 4.99205e-06 0)
(-1.9432e-06 4.65266e-06 0)
(-3.07157e-06 4.30823e-06 0)
(-4.12134e-06 3.96145e-06 0)
(-5.09065e-06 3.61513e-06 0)
(-5.97828e-06 3.27176e-06 0)
(-6.78377e-06 2.93371e-06 0)
(-7.50703e-06 2.60316e-06 0)
(-8.14905e-06 2.28195e-06 0)
(-8.7108e-06 1.97141e-06 0)
(-9.19359e-06 1.67302e-06 0)
(-9.5998e-06 1.38848e-06 0)
(-9.93171e-06 1.11883e-06 0)
(-1.01923e-05 8.64965e-07 0)
(-1.03847e-05 6.27586e-07 0)
(-1.05127e-05 4.07189e-07 0)
(-1.058e-05 2.0394e-07 0)
(-1.05912e-05 1.79046e-08 0)
(-1.05498e-05 -1.51672e-07 0)
(-1.04593e-05 -3.04772e-07 0)
(-1.03239e-05 -4.41749e-07 0)
(-1.01475e-05 -5.62969e-07 0)
(-9.93397e-06 -6.68757e-07 0)
(-9.68743e-06 -7.59421e-07 0)
(-9.412e-06 -8.35308e-07 0)
(-9.11192e-06 -8.96873e-07 0)
(-8.79146e-06 -9.44781e-07 0)
(-8.4548e-06 -9.79991e-07 0)
(-8.10586e-06 -1.00372e-06 0)
(-7.74815e-06 -1.0174e-06 0)
(-7.38475e-06 -1.02258e-06 0)
(-7.01824e-06 -1.02087e-06 0)
(-6.65063e-06 -1.01384e-06 0)
(-6.2834e-06 -1.00302e-06 0)
(-5.91755e-06 -9.89822e-07 0)
(-5.55352e-06 -9.7545e-07 0)
(-5.19127e-06 -9.60775e-07 0)
(-4.83061e-06 -9.46208e-07 0)
(-4.47122e-06 -9.3179e-07 0)
(-4.11292e-06 -9.17022e-07 0)
(-3.75589e-06 -9.01244e-07 0)
(-3.40091e-06 -8.83464e-07 0)
(-3.04934e-06 -8.63152e-07 0)
(-2.70275e-06 -8.40215e-07 0)
(-2.36278e-06 -8.15421e-07 0)
(-2.03029e-06 -7.902e-07 0)
(-1.70507e-06 -7.66045e-07 0)
(-1.38651e-06 -7.44159e-07 0)
(-1.07364e-06 -7.25452e-07 0)
(-7.64812e-07 -7.10607e-07 0)
(-4.5853e-07 -6.9952e-07 0)
(-1.52956e-07 -6.93496e-07 0)
(7.64528e-06 -0.000267751 0)
(2.29585e-05 -0.000267158 0)
(3.82789e-05 -0.000265129 0)
(5.34959e-05 -0.000262074 0)
(6.85374e-05 -0.000257997 0)
(8.32118e-05 -0.00025294 0)
(9.74976e-05 -0.00024694 0)
(0.000111305 -0.00024006 0)
(0.000124435 -0.000232376 0)
(0.000136955 -0.000223997 0)
(0.000148815 -0.000214971 0)
(0.000159941 -0.000205423 0)
(0.000170276 -0.000195451 0)
(0.000179628 -0.000185169 0)
(0.000187915 -0.00017475 0)
(0.000195201 -0.000164296 0)
(0.000201455 -0.000153949 0)
(0.000206713 -0.00014381 0)
(0.000211092 -0.000134008 0)
(0.000214679 -0.000124602 0)
(0.000217554 -0.000115685 0)
(0.000219842 -0.000107312 0)
(0.00022167 -9.95187e-05 0)
(0.000223135 -9.23213e-05 0)
(0.000224357 -8.57176e-05 0)
(0.000225493 -7.96426e-05 0)
(0.000226521 -7.4093e-05 0)
(0.000227569 -6.90212e-05 0)
(0.000228771 -6.4346e-05 0)
(0.000230041 -5.99929e-05 0)
(0.000231434 -5.59307e-05 0)
(0.00023296 -5.20858e-05 0)
(0.000234559 -4.83294e-05 0)
(0.000236302 -4.45496e-05 0)
(0.000238197 -4.06579e-05 0)
(0.000240231 -3.6595e-05 0)
(0.000242323 -3.23163e-05 0)
(0.000244398 -2.77291e-05 0)
(0.000246441 -2.28474e-05 0)
(0.000248322 -1.76324e-05 0)
(0.000249985 -1.20632e-05 0)
(0.0002514 -6.1423e-06 0)
(0.000252492 1.35592e-07 0)
(0.000253104 6.77158e-06 0)
(0.00025314 1.37459e-05 0)
(0.000252583 2.10107e-05 0)
(0.000251389 2.85305e-05 0)
(0.000249515 3.62572e-05 0)
(0.000246925 4.41395e-05 0)
(0.000243591 5.21177e-05 0)
(0.000239497 6.01369e-05 0)
(0.000234602 6.80886e-05 0)
(0.000228906 7.59707e-05 0)
(0.000222396 8.36528e-05 0)
(0.000215062 9.10953e-05 0)
(0.00020688 9.81945e-05 0)
(0.000197988 0.000104889 0)
(0.000188324 0.000111101 0)
(0.000177978 0.00011675 0)
(0.000167075 0.000121773 0)
(0.000155487 0.000126129 0)
(0.000143397 0.000129758 0)
(0.000130926 0.000132618 0)
(0.000118098 0.000134675 0)
(0.000105052 0.000135899 0)
(9.18527e-05 0.000136269 0)
(7.85254e-05 0.000135774 0)
(6.53438e-05 0.000134445 0)
(5.23164e-05 0.000132265 0)
(3.94388e-05 0.000129285 0)
(2.69767e-05 0.000125519 0)
(1.49695e-05 0.000121021 0)
(3.47374e-06 0.00011585 0)
(-7.4298e-06 0.000110045 0)
(-1.76734e-05 0.000103698 0)
(-2.71772e-05 9.6833e-05 0)
(-3.58867e-05 8.95815e-05 0)
(-4.37447e-05 8.19858e-05 0)
(-5.07681e-05 7.41564e-05 0)
(-5.68754e-05 6.6159e-05 0)
(-6.20724e-05 5.80852e-05 0)
(-6.63803e-05 5.00043e-05 0)
(-6.97772e-05 4.2014e-05 0)
(-7.22784e-05 3.41701e-05 0)
(-7.38888e-05 2.6548e-05 0)
(-7.46799e-05 1.9211e-05 0)
(-7.47003e-05 1.22108e-05 0)
(-7.3965e-05 5.60725e-06 0)
(-7.25431e-05 -5.79702e-07 0)
(-7.0496e-05 -6.3117e-06 0)
(-6.78543e-05 -1.15446e-05 0)
(-6.46986e-05 -1.62793e-05 0)
(-6.1093e-05 -2.04879e-05 0)
(-5.70911e-05 -2.41664e-05 0)
(-5.27457e-05 -2.73272e-05 0)
(-4.81452e-05 -2.99738e-05 0)
(-4.33482e-05 -3.21156e-05 0)
(-3.83965e-05 -3.37701e-05 0)
(-3.33485e-05 -3.4957e-05 0)
(-2.82533e-05 -3.56998e-05 0)
(-2.31724e-05 -3.60401e-05 0)
(-1.81459e-05 -3.59985e-05 0)
(-1.32123e-05 -3.56093e-05 0)
(-8.40319e-06 -3.49038e-05 0)
(-3.76272e-06 -3.39099e-05 0)
(6.80308e-07 -3.26816e-05 0)
(4.90928e-06 -3.12323e-05 0)
(8.903e-06 -2.95996e-05 0)
(1.26368e-05 -2.78126e-05 0)
(1.61033e-05 -2.59031e-05 0)
(1.9292e-05 -2.39009e-05 0)
(2.21894e-05 -2.1834e-05 0)
(2.47866e-05 -1.97273e-05 0)
(2.70932e-05 -1.75985e-05 0)
(2.91024e-05 -1.54732e-05 0)
(3.0815e-05 -1.33724e-05 0)
(3.22423e-05 -1.13073e-05 0)
(3.33841e-05 -9.30265e-06 0)
(3.42557e-05 -7.36347e-06 0)
(3.48527e-05 -5.50488e-06 0)
(3.51992e-05 -3.73868e-06 0)
(3.53164e-05 -2.06645e-06 0)
(3.52e-05 -4.98253e-07 0)
(3.48679e-05 9.61201e-07 0)
(3.43381e-05 2.30927e-06 0)
(3.36226e-05 3.54019e-06 0)
(3.2733e-05 4.6556e-06 0)
(3.16934e-05 5.65239e-06 0)
(3.05166e-05 6.53712e-06 0)
(2.92133e-05 7.30645e-06 0)
(2.78025e-05 7.96685e-06 0)
(2.62968e-05 8.51954e-06 0)
(2.47173e-05 8.9697e-06 0)
(2.30761e-05 9.3226e-06 0)
(2.13764e-05 9.5826e-06 0)
(1.96473e-05 9.75177e-06 0)
(1.78923e-05 9.84223e-06 0)
(1.61258e-05 9.85301e-06 0)
(1.43645e-05 9.79738e-06 0)
(1.26048e-05 9.67495e-06 0)
(1.08725e-05 9.49376e-06 0)
(9.17294e-06 9.26149e-06 0)
(7.50785e-06 8.98216e-06 0)
(5.88966e-06 8.66062e-06 0)
(4.3259e-06 8.30336e-06 0)
(2.82542e-06 7.91748e-06 0)
(1.39051e-06 7.50376e-06 0)
(2.90455e-08 7.0721e-06 0)
(-1.25644e-06 6.62475e-06 0)
(-2.46609e-06 6.16679e-06 0)
(-3.59357e-06 5.70178e-06 0)
(-4.63825e-06 5.23477e-06 0)
(-5.59857e-06 4.76984e-06 0)
(-6.47384e-06 4.30997e-06 0)
(-7.26403e-06 3.85834e-06 0)
(-7.9697e-06 3.41767e-06 0)
(-8.59211e-06 2.98894e-06 0)
(-9.13284e-06 2.57563e-06 0)
(-9.59303e-06 2.17853e-06 0)
(-9.97493e-06 1.7999e-06 0)
(-1.02818e-05 1.44183e-06 0)
(-1.05167e-05 1.10536e-06 0)
(-1.06833e-05 7.91369e-07 0)
(-1.07857e-05 5.0051e-07 0)
(-1.0828e-05 2.32837e-07 0)
(-1.08148e-05 -1.21116e-08 0)
(-1.07502e-05 -2.34672e-07 0)
(-1.06374e-05 -4.35508e-07 0)
(-1.04806e-05 -6.15138e-07 0)
(-1.02836e-05 -7.74056e-07 0)
(-1.00504e-05 -9.12646e-07 0)
(-9.78491e-06 -1.03123e-06 0)
(-9.49138e-06 -1.13012e-06 0)
(-9.17423e-06 -1.20982e-06 0)
(-8.838e-06 -1.27114e-06 0)
(-8.48716e-06 -1.31537e-06 0)
(-8.12586e-06 -1.34423e-06 0)
(-7.75774e-06 -1.35976e-06 0)
(-7.3859e-06 -1.36408e-06 0)
(-7.01287e-06 -1.35942e-06 0)
(-6.64057e-06 -1.34792e-06 0)
(-6.27032e-06 -1.33167e-06 0)
(-5.9029e-06 -1.31264e-06 0)
(-5.53842e-06 -1.29253e-06 0)
(-5.1764e-06 -1.27256e-06 0)
(-4.81617e-06 -1.25324e-06 0)
(-4.45695e-06 -1.23463e-06 0)
(-4.0982e-06 -1.21576e-06 0)
(-3.73986e-06 -1.19569e-06 0)
(-3.38279e-06 -1.17259e-06 0)
(-3.02883e-06 -1.14562e-06 0)
(-2.68023e-06 -1.11445e-06 0)
(-2.33939e-06 -1.08036e-06 0)
(-2.00748e-06 -1.04556e-06 0)
(-1.68412e-06 -1.01245e-06 0)
(-1.36832e-06 -9.82852e-07 0)
(-1.0588e-06 -9.57667e-07 0)
(-7.53433e-07 -9.37674e-07 0)
(-4.51199e-07 -9.22347e-07 0)
(-1.50482e-07 -9.13877e-07 0)
(1.1953e-05 -0.000391508 0)
(3.58177e-05 -0.000389855 0)
(5.95823e-05 -0.000385719 0)
(8.30451e-05 -0.00037949 0)
(0.000105868 -0.000371191 0)
(0.000127819 -0.000360896 0)
(0.000148698 -0.00034869 0)
(0.000168301 -0.000334732 0)
(0.000186352 -0.000319208 0)
(0.000202928 -0.000302329 0)
(0.000217998 -0.000284306 0)
(0.000231317 -0.000265586 0)
(0.000242922 -0.000246451 0)
(0.000252448 -0.000227332 0)
(0.000259928 -0.000208445 0)
(0.000265572 -0.000190124 0)
(0.000269449 -0.000172619 0)
(0.000271617 -0.000156146 0)
(0.000272374 -0.000140881 0)
(0.000271962 -0.000127008 0)
(0.000270436 -0.000114571 0)
(0.000268151 -0.000103603 0)
(0.000265358 -9.40788e-05 0)
(0.000262297 -8.59572e-05 0)
(0.000259392 -7.91662e-05 0)
(0.000256672 -7.35361e-05 0)
(0.000254096 -6.90563e-05 0)
(0.000252059 -6.5486e-05 0)
(0.000250688 -6.2708e-05 0)
(0.000249741 -6.04906e-05 0)
(0.000249184 -5.86004e-05 0)
(0.000249493 -5.67799e-05 0)
(0.00025079 -5.48053e-05 0)
(0.00025286 -5.26299e-05 0)
(0.000255528 -4.99718e-05 0)
(0.000258565 -4.68323e-05 0)
(0.000262065 -4.30663e-05 0)
(0.000265721 -3.86056e-05 0)
(0.000269271 -3.34209e-05 0)
(0.000272823 -2.74909e-05 0)
(0.000276147 -2.07985e-05 0)
(0.000279134 -1.34052e-05 0)
(0.000281738 -5.30994e-06 0)
(0.000283799 3.40281e-06 0)
(0.000285087 1.27802e-05 0)
(0.000285526 2.2703e-05 0)
(0.000285101 3.30718e-05 0)
(0.000283735 4.38143e-05 0)
(0.000281375 5.48459e-05 0)
(0.000278006 6.60459e-05 0)
(0.000273444 7.7315e-05 0)
(0.0002679 8.8554e-05 0)
(0.000261282 9.96164e-05 0)
(0.000253455 0.000110436 0)
(0.000244575 0.000120824 0)
(0.000234538 0.000130688 0)
(0.000223524 0.000139976 0)
(0.000211493 0.000148496 0)
(0.000198455 0.000156209 0)
(0.000184726 0.000163012 0)
(0.000170332 0.000168795 0)
(0.000155244 0.000173557 0)
(0.000139644 0.00017721 0)
(0.000123695 0.000179696 0)
(0.000107473 0.000180967 0)
(9.1147e-05 0.000181061 0)
(7.49049e-05 0.000179926 0)
(5.87949e-05 0.000177634 0)
(4.29607e-05 0.000174154 0)
(2.75316e-05 0.000169573 0)
(1.26655e-05 0.000163948 0)
(-1.51053e-06 0.00015734 0)
(-1.49205e-05 0.00014984 0)
(-2.74683e-05 0.000141534 0)
(-3.91055e-05 0.000132504 0)
(-4.96966e-05 0.000122883 0)
(-5.92214e-05 0.000112775 0)
(-6.7658e-05 0.000102307 0)
(-7.49134e-05 9.15797e-05 0)
(-8.10431e-05 8.07221e-05 0)
(-8.60172e-05 6.98366e-05 0)
(-8.98352e-05 5.90569e-05 0)
(-9.25442e-05 4.84732e-05 0)
(-9.41818e-05 3.81724e-05 0)
(-9.4773e-05 2.82477e-05 0)
(-9.43853e-05 1.87709e-05 0)
(-9.30996e-05 9.8258e-06 0)
(-9.10084e-05 1.44263e-06 0)
(-8.81821e-05 -6.32361e-06 0)
(-8.46309e-05 -1.34308e-05 0)
(-8.04987e-05 -1.98386e-05 0)
(-7.58636e-05 -2.55683e-05 0)
(-7.07479e-05 -3.05831e-05 0)
(-6.53063e-05 -3.48888e-05 0)
(-5.95947e-05 -3.85109e-05 0)
(-5.36595e-05 -4.14683e-05 0)
(-4.75925e-05 -4.37671e-05 0)
(-4.14515e-05 -4.54541e-05 0)
(-3.52946e-05 -4.65397e-05 0)
(-2.92107e-05 -4.71032e-05 0)
(-2.32376e-05 -4.71522e-05 0)
(-1.73952e-05 -4.67457e-05 0)
(-1.174e-05 -4.59105e-05 0)
(-6.29676e-06 -4.4707e-05 0)
(-1.13158e-06 -4.31839e-05 0)
(3.74997e-06 -4.13707e-05 0)
(8.35612e-06 -3.93133e-05 0)
(1.26474e-05 -3.70556e-05 0)
(1.66123e-05 -3.46342e-05 0)
(2.02347e-05 -3.20858e-05 0)
(2.35145e-05 -2.94463e-05 0)
(2.64511e-05 -2.67488e-05 0)
(2.90511e-05 -2.40231e-05 0)
(3.1313e-05 -2.1293e-05 0)
(3.32331e-05 -1.85917e-05 0)
(3.48274e-05 -1.59303e-05 0)
(3.6103e-05 -1.33417e-05 0)
(3.70789e-05 -1.08279e-05 0)
(3.7762e-05 -8.41328e-06 0)
(3.81568e-05 -6.11376e-06 0)
(3.82993e-05 -3.92941e-06 0)
(3.81893e-05 -1.87618e-06 0)
(3.78455e-05 3.44352e-08 0)
(3.72901e-05 1.81033e-06 0)
(3.65327e-05 3.43733e-06 0)
(3.55953e-05 4.92134e-06 0)
(3.44846e-05 6.25907e-06 0)
(3.32303e-05 7.45243e-06 0)
(3.1849e-05 8.49986e-06 0)
(3.03503e-05 9.40639e-06 0)
(2.87498e-05 1.01771e-05 0)
(2.70683e-05 1.08174e-05 0)
(2.53265e-05 1.13353e-05 0)
(2.35296e-05 1.17295e-05 0)
(2.16859e-05 1.20102e-05 0)
(1.98245e-05 1.21875e-05 0)
(1.79508e-05 1.22638e-05 0)
(1.60779e-05 1.22475e-05 0)
(1.42204e-05 1.21484e-05 0)
(1.23757e-05 1.19706e-05 0)
(1.05678e-05 1.17269e-05 0)
(8.80037e-06 1.1418e-05 0)
(7.07876e-06 1.10541e-05 0)
(5.41373e-06 1.06415e-05 0)
(3.81301e-06 1.01874e-05 0)
(2.28088e-06 9.69658e-06 0)
(8.23868e-07 9.176e-06 0)
(-5.5248e-07 8.63728e-06 0)
(-1.84835e-06 8.07827e-06 0)
(-3.0614e-06 7.50797e-06 0)
(-4.1878e-06 6.93158e-06 0)
(-5.22475e-06 6.35408e-06 0)
(-6.17311e-06 5.7798e-06 0)
(-7.033e-06 5.21363e-06 0)
(-7.80451e-06 4.65844e-06 0)
(-8.49019e-06 4.1167e-06 0)
(-9.09031e-06 3.59177e-06 0)
(-9.60635e-06 3.08515e-06 0)
(-1.0041e-05 2.60004e-06 0)
(-1.03953e-05 2.13798e-06 0)
(-1.06732e-05 1.7009e-06 0)
(-1.08787e-05 1.29117e-06 0)
(-1.10157e-05 9.10015e-07 0)
(-1.10888e-05 5.57648e-07 0)
(-1.11027e-05 2.33839e-07 0)
(-1.10624e-05 -6.24827e-08 0)
(-1.09717e-05 -3.30922e-07 0)
(-1.08341e-05 -5.72802e-07 0)
(-1.06536e-05 -7.89057e-07 0)
(-1.04339e-05 -9.80342e-07 0)
(-1.01787e-05 -1.14708e-06 0)
(-9.89207e-06 -1.28949e-06 0)
(-9.57818e-06 -1.40777e-06 0)
(-9.24169e-06 -1.50232e-06 0)
(-8.88756e-06 -1.57399e-06 0)
(-8.52068e-06 -1.62449e-06 0)
(-8.14552e-06 -1.65598e-06 0)
(-7.76583e-06 -1.67127e-06 0)
(-7.3847e-06 -1.673e-06 0)
(-7.00461e-06 -1.66403e-06 0)
(-6.62732e-06 -1.64699e-06 0)
(-6.25402e-06 -1.62453e-06 0)
(-5.88527e-06 -1.5992e-06 0)
(-5.5208e-06 -1.57322e-06 0)
(-5.15955e-06 -1.54821e-06 0)
(-4.8003e-06 -1.52473e-06 0)
(-4.4416e-06 -1.50291e-06 0)
(-4.08251e-06 -1.48104e-06 0)
(-3.72257e-06 -1.458e-06 0)
(-3.36274e-06 -1.43067e-06 0)
(-3.00556e-06 -1.39784e-06 0)
(-2.6542e-06 -1.35871e-06 0)
(-2.31213e-06 -1.31532e-06 0)
(-1.98092e-06 -1.2708e-06 0)
(-1.66e-06 -1.22886e-06 0)
(-1.3476e-06 -1.19213e-06 0)
(-1.04193e-06 -1.16103e-06 0)
(-7.40348e-07 -1.13623e-06 0)
(-4.42543e-07 -1.1168e-06 0)
(-1.47495e-07 -1.10545e-06 0)
(1.97561e-05 -0.000564592 0)
(5.9157e-05 -0.000560661 0)
(9.83126e-05 -0.000552302 0)
(0.000136718 -0.000539752 0)
(0.000173844 -0.000523119 0)
(0.000209202 -0.000502605 0)
(0.000242335 -0.000478572 0)
(0.000272647 -0.000451388 0)
(0.00029973 -0.000421433 0)
(0.000323603 -0.000389313 0)
(0.000343126 -0.000355905 0)
(0.000357946 -0.000321947 0)
(0.000368223 -0.000288153 0)
(0.000374194 -0.000255095 0)
(0.000376387 -0.000223253 0)
(0.000374804 -0.000193045 0)
(0.000370074 -0.000164829 0)
(0.000362657 -0.000139021 0)
(0.000352891 -0.000115919 0)
(0.000341545 -9.61592e-05 0)
(0.00032941 -7.98948e-05 0)