/*--------------------------------*- C++ -*----------------------------------*\
  =========                 |
  \\      /  F ield         | OpenFOAM: The Open Source CFD Toolbox
   \\    /   O peration     | Website:  https://openfoam.org
    \\  /    A nd           | Version:  12
     \\/     M anipulation  |
\*---------------------------------------------------------------------------*/
FoamFile
{
    format      ascii;
    class       volScalarField;
    location    "14.26";
    object      p;
}
// * * * * * * * * * * * * * * * * * * * * * * * * * * * * * * * * * * * * * //

dimensions      [1 -1 -2 0 0 0 0];

internalField   nonuniform List<scalar> 
3829
(
-616.231
-616.231
-616.23
-616.228
-616.225
-616.222
-616.218
-616.214
-616.208
-616.202
-616.195
-616.187
-616.178
-616.168
-616.157
-616.145
-616.131
-616.117
-616.101
-616.084
-616.065
-616.045
-616.024
-616
-615.976
-615.949
-615.921
-615.89
-615.858
-615.824
-615.788
-615.75
-615.709
-615.667
-615.623
-615.577
-615.528
-615.478
-615.425
-615.371
-615.314
-615.256
-615.197
-615.136
-615.074
-615.011
-614.947
-614.882
-614.818
-614.753
-614.689
-614.625
-614.563
-614.502
-614.442
-614.385
-614.331
-614.279
-614.231
-614.186
-614.146
-614.11
-614.079
-614.053
-614.033
-614.018
-614.009
-614.005
-614.008
-614.017
-614.032
-614.052
-614.078
-614.108
-614.143
-614.183
-614.226
-614.271
-614.318
-614.366
-614.414
-614.462
-614.508
-614.551
-614.591
-614.626
-614.656
-614.68
-614.697
-614.706
-614.709
-614.702
-614.687
-614.664
-614.633
-614.594
-614.55
-614.499
-614.444
-614.386
-614.326
-614.266
-614.207
-614.152
-614.101
-614.057
-614.02
-613.993
-613.976
-613.97
-613.979
-614
-614.032
-614.074
-614.125
-614.184
-614.248
-614.316
-614.384
-614.449
-614.51
-614.563
-614.605
-614.636
-614.652
-614.654
-614.639
-614.61
-614.568
-614.513
-614.45
-614.38
-614.309
-614.24
-614.176
-614.123
-614.082
-614.058
-614.05
-614.062
-614.092
-614.137
-614.196
-614.264
-614.337
-614.408
-614.474
-614.529
-614.568
-614.59
-614.591
-614.571
-614.533
-614.479
-614.415
-614.346
-614.276
-614.216
-614.17
-614.142
-614.134
-614.147
-614.179
-614.226
-614.281
-614.34
-614.392
-614.433
-614.457
-614.461
-614.444
-614.407
-614.358
-614.28
-614.223
-614.174
-614.141
-614.126
-614.134
-614.161
-614.205
-614.261
-614.316
-614.367
-614.406
-614.43
-614.437
-614.43
-614.412
-614.389
-614.366
-614.349
-614.339
-614.338
-614.346
-614.36
-614.377
-614.394
-614.407
-614.414
-1774.65
-1774.65
-1774.65
-1774.64
-1774.64
-1774.64
-1774.64
-1774.63
-1774.63
-1774.62
-1774.62
-1774.61
-1774.6
-1774.59
-1774.58
-1774.57
-1774.56
-1774.55
-1774.53
-1774.52
-1774.5
-1774.48
-1774.46
-1774.44
-1774.41
-1774.39
-1774.36
-1774.33
-1774.29
-1774.26
-1774.22
-1774.18
-1774.14
-1774.1
-1774.05
-1774
-1773.95
-1773.89
-1773.84
-1773.78
-1773.72
-1773.65
-1773.59
-1773.52
-1773.45
-1773.38
-1773.31
-1773.24
-1773.17
-1773.09
-1773.02
-1772.95
-1772.88
-1772.81
-1772.74
-1772.68
-1772.61
-1772.56
-1772.5
-1772.45
-1772.41
-1772.37
-1772.33
-1772.31
-1772.28
-1772.27
-1772.26
-1772.26
-1772.27
-1772.28
-1772.31
-1772.33
-1772.37
-1772.41
-1772.45
-1772.51
-1772.56
-1772.62
-1772.68
-1772.74
-1772.8
-1772.86
-1772.92
-1772.97
-1773.02
-1773.06
-1773.1
-1773.13
-1773.15
-1773.16
-1773.17
-1773.16
-1773.14
-1773.11
-1773.07
-1773.03
-1772.97
-1772.91
-1772.84
-1772.77
-1772.69
-1772.62
-1772.55
-1772.48
-1772.42
-1772.36
-1772.32
-1772.29
-1772.27
-1772.26
-1772.27
-1772.3
-1772.34
-1772.39
-1772.45
-1772.52
-1772.6
-1772.69
-1772.77
-1772.85
-1772.92
-1772.99
-1773.04
-1773.08
-1773.1
-1773.1
-1773.08
-1773.04
-1772.99
-1772.92
-1772.84
-1772.76
-1772.67
-1772.58
-1772.51
-1772.44
-1772.39
-1772.36
-1772.35
-1772.37
-1772.41
-1772.46
-1772.54
-1772.62
-1772.71
-1772.8
-1772.88
-1772.94
-1772.99
-1773.02
-1773.02
-1772.99
-1772.94
-1772.88
-1772.8
-1772.71
-1772.62
-1772.55
-1772.5
-1772.47
-1772.46
-1772.48
-1772.52
-1772.58
-1772.65
-1772.72
-1772.78
-1772.83
-1772.86
-1772.87
-1772.84
-1772.8
-1772.74
-1772.65
-1772.58
-1772.52
-1772.48
-1772.47
-1772.47
-1772.51
-1772.56
-1772.63
-1772.69
-1772.75
-1772.79
-1772.82
-1772.82
-1772.81
-1772.79
-1772.76
-1772.73
-1772.71
-1772.7
-1772.7
-1772.71
-1772.73
-1772.75
-1772.77
-1772.78
-1772.79
-2800.91
-2800.91
-2800.91
-2800.91
-2800.91
-2800.9
-2800.9
-2800.9
-2800.9
-2800.89
-2800.89
-2800.88
-2800.88
-2800.87
-2800.86
-2800.85
-2800.84
-2800.83
-2800.82
-2800.8
-2800.79
-2800.77
-2800.75
-2800.73
-2800.71
-2800.68
-2800.65
-2800.62
-2800.59
-2800.56
-2800.52
-2800.48
-2800.43
-2800.38
-2800.33
-2800.28
-2800.22
-2800.16
-2800.09
-2800.03
-2799.95
-2799.88
-2799.8
-2799.72
-2799.64
-2799.56
-2799.47
-2799.38
-2799.29
-2799.21
-2799.12
-2799.03
-2798.94
-2798.86
-2798.77
-2798.69
-2798.62
-2798.55
-2798.48
-2798.42
-2798.37
-2798.32
-2798.29
-2798.26
-2798.23
-2798.22
-2798.22
-2798.23
-2798.24
-2798.26
-2798.29
-2798.34
-2798.39
-2798.44
-2798.51
-2798.58
-2798.66
-2798.74
-2798.82
-2798.91
-2798.99
-2799.07
-2799.15
-2799.23
-2799.3
-2799.36
-2799.41
-2799.45
-2799.48
-2799.49
-2799.49
-2799.48
-2799.46
-2799.42
-2799.36
-2799.3
-2799.22
-2799.14
-2799.05
-2798.95
-2798.85
-2798.75
-2798.65
-2798.56
-2798.47
-2798.4
-2798.34
-2798.3
-2798.28
-2798.27
-2798.29
-2798.32
-2798.37
-2798.44
-2798.53
-2798.63
-2798.73
-2798.85
-2798.96
-2799.07
-2799.17
-2799.26
-2799.33
-2799.37
-2799.4
-2799.4
-2799.37
-2799.32
-2799.25
-2799.15
-2799.05
-2798.93
-2798.81
-2798.69
-2798.59
-2798.5
-2798.44
-2798.4
-2798.39
-2798.41
-2798.47
-2798.54
-2798.64
-2798.76
-2798.88
-2799
-2799.1
-2799.19
-2799.25
-2799.28
-2799.28
-2799.24
-2799.18
-2799.08
-2798.98
-2798.86
-2798.75
-2798.66
-2798.58
-2798.54
-2798.53
-2798.56
-2798.62
-2798.71
-2798.8
-2798.9
-2798.99
-2799.05
-2799.09
-2799.09
-2799.06
-2799
-2798.92
-2798.81
-2798.72
-2798.64
-2798.59
-2798.57
-2798.58
-2798.63
-2798.7
-2798.78
-2798.87
-2798.94
-2798.99
-2799.02
-2799.02
-2799
-2798.96
-2798.92
-2798.88
-2798.85
-2798.84
-2798.84
-2798.86
-2798.88
-2798.91
-2798.93
-2798.95
-2798.96
-3710.01
-3710.01
-3710.02
-3710.02
-3710.02
-3710.02
-3710.02
-3710.02
-3710.02
-3710.02
-3710.02
-3710.02
-3710.01
-3710.01
-3710.01
-3710.01
-3710
-3709.99
-3709.99
-3709.98
-3709.97
-3709.96
-3709.94
-3709.93
-3709.91
-3709.88
-3709.86
-3709.83
-3709.8
-3709.77
-3709.73
-3709.69
-3709.64
-3709.59
-3709.53
-3709.47
-3709.4
-3709.34
-3709.26
-3709.18
-3709.1
-3709.01
-3708.92
-3708.82
-3708.72
-3708.62
-3708.51
-3708.4
-3708.29
-3708.18
-3708.07
-3707.96
-3707.85
-3707.74
-3707.63
-3707.53
-3707.44
-3707.35
-3707.27
-3707.19
-3707.13
-3707.07
-3707.02
-3706.99
-3706.97
-3706.95
-3706.95
-3706.97
-3706.99
-3707.03
-3707.08
-3707.15
-3707.22
-3707.31
-3707.4
-3707.5
-3707.61
-3707.73
-3707.84
-3707.96
-3708.08
-3708.2
-3708.31
-3708.41
-3708.5
-3708.59
-3708.66
-3708.71
-3708.75
-3708.77
-3708.77
-3708.76
-3708.72
-3708.67
-3708.59
-3708.5
-3708.4
-3708.28
-3708.15
-3708.01
-3707.88
-3707.74
-3707.6
-3707.47
-3707.36
-3707.26
-3707.18
-3707.12
-3707.09
-3707.09
-3707.11
-3707.16
-3707.23
-3707.33
-3707.45
-3707.58
-3707.73
-3707.89
-3708.04
-3708.19
-3708.33
-3708.45
-3708.55
-3708.61
-3708.65
-3708.64
-3708.6
-3708.53
-3708.42
-3708.29
-3708.14
-3707.98
-3707.82
-3707.66
-3707.52
-3707.4
-3707.31
-3707.26
-3707.25
-3707.28
-3707.36
-3707.47
-3707.6
-3707.76
-3707.93
-3708.09
-3708.24
-3708.35
-3708.44
-3708.47
-3708.47
-3708.41
-3708.32
-3708.19
-3708.04
-3707.88
-3707.73
-3707.61
-3707.51
-3707.46
-3707.46
-3707.5
-3707.58
-3707.7
-3707.83
-3707.97
-3708.09
-3708.18
-3708.23
-3708.23
-3708.19
-3708.1
-3707.99
-3707.84
-3707.72
-3707.61
-3707.55
-3707.52
-3707.55
-3707.61
-3707.7
-3707.82
-3707.93
-3708.02
-3708.08
-3708.11
-3708.1
-3708.07
-3708.01
-3707.95
-3707.9
-3707.87
-3707.85
-3707.86
-3707.88
-3707.91
-3707.95
-3707.98
-3708.01
-3708.02
-4515.45
-4515.45
-4515.45
-4515.45
-4515.45
-4515.45
-4515.45
-4515.45
-4515.45
-4515.45
-4515.45
-4515.46
-4515.46
-4515.46
-4515.46
-4515.46
-4515.46
-4515.46
-4515.46
-4515.46
-4515.45
-4515.45
-4515.44
-4515.43
-4515.42
-4515.4
-4515.38
-4515.36
-4515.33
-4515.3
-4515.27
-4515.23
-4515.18
-4515.12
-4515.07
-4515
-4514.92
-4514.84
-4514.75
-4514.66
-4514.56
-4514.45
-4514.33
-4514.21
-4514.09
-4513.96
-4513.82
-4513.68
-4513.54
-4513.4
-4513.26
-4513.11
-4512.97
-4512.83
-4512.7
-4512.57
-4512.45
-4512.34
-4512.23
-4512.14
-4512.05
-4511.98
-4511.93
-4511.89
-4511.86
-4511.85
-4511.86
-4511.88
-4511.92
-4511.98
-4512.05
-4512.15
-4512.25
-4512.37
-4512.5
-4512.64
-4512.79
-4512.95
-4513.12
-4513.28
-4513.44
-4513.6
-4513.75
-4513.89
-4514.02
-4514.13
-4514.23
-4514.3
-4514.35
-4514.38
-4514.38
-4514.36
-4514.31
-4514.23
-4514.13
-4514.01
-4513.86
-4513.7
-4513.52
-4513.34
-4513.15
-4512.96
-4512.77
-4512.6
-4512.45
-4512.31
-4512.21
-4512.13
-4512.09
-4512.08
-4512.11
-4512.18
-4512.28
-4512.42
-4512.58
-4512.77
-4512.97
-4513.18
-4513.39
-4513.6
-4513.78
-4513.94
-4514.07
-4514.16
-4514.2
-4514.19
-4514.14
-4514.03
-4513.89
-4513.71
-4513.51
-4513.29
-4513.06
-4512.85
-4512.66
-4512.5
-4512.38
-4512.32
-4512.31
-4512.35
-4512.46
-4512.61
-4512.8
-4513.01
-4513.24
-4513.46
-4513.65
-4513.81
-4513.91
-4513.96
-4513.95
-4513.87
-4513.74
-4513.56
-4513.36
-4513.15
-4512.95
-4512.78
-4512.65
-4512.59
-4512.59
-4512.65
-4512.77
-4512.93
-4513.11
-4513.3
-4513.46
-4513.58
-4513.65
-4513.65
-4513.59
-4513.47
-4513.32
-4513.12
-4512.95
-4512.82
-4512.73
-4512.71
-4512.74
-4512.83
-4512.95
-4513.1
-4513.24
-4513.36
-4513.44
-4513.46
-4513.45
-4513.39
-4513.32
-4513.24
-4513.17
-4513.12
-4513.11
-4513.12
-4513.15
-4513.19
-4513.24
-4513.28
-4513.31
-4513.33
-5228.85
-5228.85
-5228.85
-5228.85
-5228.85
-5228.86
-5228.87
-5228.87
-5228.88
-5228.89
-5228.91
-5228.92
-5228.93
-5228.94
-5228.95
-5228.96
-5228.97
-5228.98
-5228.98
-5228.99
-5229
-5229.01
-5229.01
-5229.02
-5229.02
-5229.01
-5229.01
-5229
-5228.98
-5228.96
-5228.93
-5228.89
-5228.85
-5228.79
-5228.73
-5228.66
-5228.58
-5228.49
-5228.39
-5228.27
-5228.15
-5228.02
-5227.88
-5227.73
-5227.57
-5227.41
-5227.24
-5227.06
-5226.88
-5226.7
-5226.52
-5226.34
-5226.16
-5225.98
-5225.81
-5225.65
-5225.49
-5225.35
-5225.22
-5225.1
-5224.99
-5224.91
-5224.84
-5224.79
-5224.76
-5224.75
-5224.77
-5224.8
-5224.86
-5224.95
-5225.05
-5225.17
-5225.32
-5225.48
-5225.66
-5225.85
-5226.05
-5226.26
-5226.48
-5226.7
-5226.92
-5227.13
-5227.33
-5227.51
-5227.68
-5227.83
-5227.96
-5228.06
-5228.12
-5228.16
-5228.16
-5228.12
-5228.05
-5227.95
-5227.81
-5227.65
-5227.45
-5227.24
-5227
-5226.75
-5226.5
-5226.25
-5226.01
-5225.78
-5225.57
-5225.4
-5225.26
-5225.16
-5225.1
-5225.09
-5225.14
-5225.23
-5225.37
-5225.55
-5225.77
-5226.02
-5226.29
-5226.57
-5226.85
-5227.12
-5227.37
-5227.58
-5227.74
-5227.86
-5227.91
-5227.89
-5227.82
-5227.68
-5227.48
-5227.25
-5226.97
-5226.68
-5226.38
-5226.1
-5225.85
-5225.64
-5225.49
-5225.41
-5225.4
-5225.47
-5225.6
-5225.8
-5226.06
-5226.34
-5226.65
-5226.93
-5227.19
-5227.39
-5227.53
-5227.59
-5227.56
-5227.46
-5227.28
-5227.04
-5226.77
-5226.49
-5226.23
-5226.01
-5225.85
-5225.77
-5225.78
-5225.87
-5226.03
-5226.24
-5226.48
-5226.74
-5226.95
-5227.1
-5227.18
-5227.18
-5227.1
-5226.95
-5226.75
-5226.47
-5226.26
-5226.09
-5225.99
-5225.96
-5226.01
-5226.12
-5226.29
-5226.48
-5226.66
-5226.81
-5226.9
-5226.92
-5226.89
-5226.81
-5226.71
-5226.6
-5226.52
-5226.46
-5226.45
-5226.46
-5226.51
-5226.56
-5226.62
-5226.68
-5226.71
-5226.73
-5860.93
-5860.93
-5860.93
-5860.93
-5860.93
-5860.93
-5860.93
-5860.93
-5860.94
-5860.95
-5860.96
-5860.98
-5861
-5861.02
-5861.04
-5861.06
-5861.08
-5861.1
-5861.12
-5861.14
-5861.17
-5861.19
-5861.21
-5861.23
-5861.25
-5861.27
-5861.28
-5861.29
-5861.29
-5861.28
-5861.27
-5861.24
-5861.2
-5861.15
-5861.09
-5861.01
-5860.92
-5860.81
-5860.69
-5860.55
-5860.4
-5860.24
-5860.07
-5859.88
-5859.68
-5859.48
-5859.26
-5859.04
-5858.82
-5858.59
-5858.36
-5858.13
-5857.91
-5857.68
-5857.47
-5857.26
-5857.07
-5856.89
-5856.72
-5856.57
-5856.44
-5856.34
-5856.25
-5856.2
-5856.17
-5856.16
-5856.19
-5856.24
-5856.32
-5856.43
-5856.57
-5856.73
-5856.92
-5857.13
-5857.36
-5857.61
-5857.88
-5858.15
-5858.43
-5858.72
-5859
-5859.27
-5859.53
-5859.77
-5859.99
-5860.18
-5860.34
-5860.46
-5860.54
-5860.59
-5860.58
-5860.54
-5860.45
-5860.31
-5860.13
-5859.91
-5859.66
-5859.38
-5859.08
-5858.76
-5858.43
-5858.11
-5857.79
-5857.5
-5857.23
-5857.01
-5856.83
-5856.7
-5856.63
-5856.63
-5856.68
-5856.8
-5856.98
-5857.22
-5857.51
-5857.83
-5858.18
-5858.55
-5858.91
-5859.26
-5859.57
-5859.84
-5860.05
-5860.19
-5860.26
-5860.23
-5860.13
-5859.95
-5859.7
-5859.39
-5859.03
-5858.66
-5858.27
-5857.91
-5857.59
-5857.32
-5857.13
-5857.03
-5857.02
-5857.11
-5857.29
-5857.56
-5857.88
-5858.25
-5858.65
-5859.02
-5859.34
-5859.6
-5859.77
-5859.84
-5859.8
-5859.66
-5859.42
-5859.12
-5858.77
-5858.41
-5858.07
-5857.79
-5857.59
-5857.5
-5857.51
-5857.63
-5857.85
-5858.13
-5858.44
-5858.76
-5859.03
-5859.23
-5859.33
-5859.32
-5859.21
-5859.02
-5858.76
-5858.4
-5858.14
-5857.93
-5857.8
-5857.77
-5857.84
-5857.99
-5858.2
-5858.45
-5858.67
-5858.85
-5858.95
-5858.98
-5858.93
-5858.82
-5858.68
-5858.55
-5858.44
-5858.38
-5858.36
-5858.39
-5858.44
-5858.52
-5858.59
-5858.65
-5858.7
-5858.72
-6420.83
-6420.83
-6420.83
-6420.82
-6420.82
-6420.82
-6420.83
-6420.86
-6420.9
-6420.95
-6420.98
-6421.01
-6421.02
-6421.04
-6421.05
-6421.06
-6421.07
-6421.09
-6421.11
-6421.14
-6421.18
-6421.22
-6421.27
-6421.32
-6421.37
-6421.42
-6421.45
-6421.48
-6421.51
-6421.52
-6421.53
-6421.51
-6421.48
-6421.44
-6421.38
-6421.29
-6421.19
-6421.07
-6420.92
-6420.76
-6420.58
-6420.38
-6420.17
-6419.94
-6419.7
-6419.44
-6419.18
-6418.91
-6418.63
-6418.35
-6418.06
-6417.78
-6417.5
-6417.23
-6416.96
-6416.71
-6416.47
-6416.24
-6416.04
-6415.86
-6415.7
-6415.57
-6415.48
-6415.41
-6415.37
-6415.37
-6415.41
-6415.48
-6415.58
-6415.72
-6415.9
-6416.11
-6416.35
-6416.62
-6416.91
-6417.23
-6417.56
-6417.91
-6418.26
-6418.62
-6418.97
-6419.31
-6419.64
-6419.94
-6420.21
-6420.45
-6420.65
-6420.8
-6420.9
-6420.96
-6420.95
-6420.89
-6420.77
-6420.6
-6420.37
-6420.1
-6419.78
-6419.42
-6419.04
-6418.64
-6418.22
-6417.82
-6417.42
-6417.05
-6416.72
-6416.44
-6416.21
-6416.06
-6415.97
-6415.97
-6416.04
-6416.2
-6416.43
-6416.73
-6417.09
-6417.5
-6417.94
-6418.4
-6418.86
-6419.29
-6419.68
-6420.02
-6420.28
-6420.45
-6420.52
-6420.49
-6420.36
-6420.13
-6419.81
-6419.42
-6418.98
-6418.5
-6418.02
-6417.57
-6417.16
-6416.83
-6416.6
-6416.47
-6416.47
-6416.59
-6416.82
-6417.15
-6417.56
-6418.02
-6418.54
-6418.99
-6419.39
-6419.71
-6419.92
-6420
-6419.94
-6419.76
-6419.46
-6419.08
-6418.64
-6418.18
-6417.77
-6417.42
-6417.18
-6417.06
-6417.09
-6417.25
-6417.52
-6417.88
-6418.27
-6418.67
-6419.01
-6419.25
-6419.38
-6419.36
-6419.22
-6418.97
-6418.65
-6418.21
-6417.89
-6417.63
-6417.47
-6417.43
-6417.52
-6417.72
-6417.99
-6418.29
-6418.56
-6418.77
-6418.89
-6418.92
-6418.85
-6418.71
-6418.53
-6418.36
-6418.23
-6418.15
-6418.14
-6418.18
-6418.25
-6418.34
-6418.43
-6418.5
-6418.55
-6418.58
-6916.92
-6916.91
-6916.89
-6916.87
-6916.84
-6916.79
-6916.73
-6916.66
-6916.65
-6916.65
-6916.64
-6916.64
-6916.64
-6916.65
-6916.67
-6916.7
-6916.74
-6916.79
-6916.85
-6916.92
-6917
-6917.09
-6917.19
-6917.3
-6917.42
-6917.55
-6917.67
-6917.77
-6917.87
-6917.95
-6918
-6918.02
-6918
-6917.96
-6917.89
-6917.79
-6917.67
-6917.52
-6917.34
-6917.15
-6916.93
-6916.68
-6916.42
-6916.15
-6915.85
-6915.54
-6915.22
-6914.89
-6914.55
-6914.21
-6913.86
-6913.52
-6913.18
-6912.85
-6912.53
-6912.22
-6911.93
-6911.66
-6911.42
-6911.2
-6911.01
-6910.86
-6910.74
-6910.66
-6910.62
-6910.63
-6910.67
-6910.76
-6910.9
-6911.07
-6911.29
-6911.55
-6911.85
-6912.18
-6912.54
-6912.93
-6913.34
-6913.77
-6914.2
-6914.64
-6915.07
-6915.49
-6915.88
-6916.25
-6916.59
-6916.88
-6917.12
-6917.3
-6917.42
-6917.48
-6917.47
-6917.4
-6917.25
-6917.03
-6916.75
-6916.41
-6916.02
-6915.58
-6915.11
-6914.62
-6914.11
-6913.61
-6913.13
-6912.68
-6912.27
-6911.93
-6911.66
-6911.47
-6911.37
-6911.36
-6911.46
-6911.65
-6911.94
-6912.31
-6912.75
-6913.25
-6913.8
-6914.37
-6914.92
-6915.45
-6915.93
-6916.34
-6916.65
-6916.85
-6916.93
-6916.9
-6916.74
-6916.45
-6916.06
-6915.58
-6915.03
-6914.45
-6913.86
-6913.31
-6912.81
-6912.41
-6912.13
-6911.98
-6911.99
-6912.14
-6912.43
-6912.84
-6913.34
-6913.89
-6914.54
-6915.08
-6915.57
-6915.95
-6916.2
-6916.29
-6916.22
-6915.99
-6915.62
-6915.15
-6914.61
-6914.05
-6913.54
-6913.13
-6912.84
-6912.7
-6912.74
-6912.94
-6913.28
-6913.72
-6914.21
-6914.69
-6915.11
-6915.4
-6915.54
-6915.52
-6915.34
-6915.03
-6914.63
-6914.12
-6913.73
-6913.41
-6913.22
-6913.19
-6913.3
-6913.54
-6913.87
-6914.23
-6914.56
-6914.81
-6914.95
-6914.97
-6914.87
-6914.69
-6914.47
-6914.27
-6914.11
-6914.03
-6914.02
-6914.07
-6914.16
-6914.27
-6914.38
-6914.46
-6914.52
-6914.54
-7356.54
-7356.55
-7356.55
-7356.57
-7356.6
-7356.64
-7356.72
-7356.76
-7357.25
-7357.16
-7357.12
-7357.08
-7357.04
-7356.99
-7356.94
-7356.9
-7356.87
-7356.86
-7356.87
-7356.9
-7356.96
-7357.05
-7357.16
-7357.28
-7357.42
-7357.58
-7357.82
-7357.67
-7357.85
-7357.9
-7357.96
-7357.98
-7357.98
-7357.95
-7357.87
-7357.76
-7357.61
-7357.43
-7357.22
-7356.98
-7356.72
-7356.43
-7356.12
-7355.78
-7355.43
-7355.06
-7354.68
-7354.28
-7353.88
-7353.47
-7353.06
-7352.65
-7352.25
-7351.85
-7351.47
-7351.1
-7350.76
-7350.44
-7350.15
-7349.9
-7349.68
-7349.5
-7349.36
-7349.27
-7349.23
-7349.23
-7349.29
-7349.41
-7349.57
-7349.78
-7350.05
-7350.36
-7350.72
-7351.12
-7351.56
-7352.03
-7352.52
-7353.03
-7353.55
-7354.07
-7354.59
-7355.09
-7355.56
-7356
-7356.4
-7356.74
-7357.03
-7357.25
-7357.39
-7357.46
-7357.44
-7357.35
-7357.17
-7356.91
-7356.57
-7356.16
-7355.69
-7355.16
-7354.6
-7354
-7353.39
-7352.8
-7352.22
-7351.68
-7351.2
-7350.79
-7350.46
-7350.23
-7350.12
-7350.12
-7350.23
-7350.47
-7350.81
-7351.26
-7351.8
-7352.4
-7353.05
-7353.74
-7354.41
-7355.04
-7355.61
-7356.09
-7356.46
-7356.7
-7356.79
-7356.75
-7356.55
-7356.2
-7355.73
-7355.15
-7354.49
-7353.79
-7353.09
-7352.43
-7351.84
-7351.36
-7351.03
-7350.86
-7350.87
-7351.06
-7351.41
-7351.91
-7352.51
-7353.18
-7353.93
-7354.59
-7355.17
-7355.62
-7355.91
-7356.02
-7355.93
-7355.64
-7355.2
-7354.63
-7353.99
-7353.31
-7352.71
-7352.21
-7351.87
-7351.73
-7351.78
-7352.03
-7352.44
-7352.97
-7353.56
-7354.13
-7354.62
-7354.97
-7355.13
-7355.1
-7354.87
-7354.5
-7354.01
-7353.43
-7352.96
-7352.58
-7352.36
-7352.33
-7352.47
-7352.76
-7353.16
-7353.59
-7353.97
-7354.26
-7354.42
-7354.42
-7354.3
-7354.08
-7353.81
-7353.57
-7353.39
-7353.3
-7353.29
-7353.36
-7353.47
-7353.6
-7353.72
-7353.82
-7353.88
-7353.91
-7745.99
-7746.01
-7746.05
-7746.11
-7746.19
-7746.31
-7746.47
-7746.79
-7747.35
-7746.36
-7745.91
-7745.6
-7745.36
-7745.2
-7745.1
-7745.04
-7745.02
-7745.04
-7745.1
-7745.19
-7745.31
-7745.48
-7745.69
-7745.97
-7746.34
-7746.82
-7747.71
-7747.81
-7747.99
-7748.1
-7748.14
-7748.12
-7748.06
-7747.96
-7747.83
-7747.66
-7747.47
-7747.25
-7746.99
-7746.71
-7746.4
-7746.05
-7745.69
-7745.29
-7744.88
-7744.45
-7744
-7743.53
-7743.06
-7742.58
-7742.1
-7741.62
-7741.15
-7740.69
-7740.25
-7739.82
-7739.42
-7739.05
-7738.71
-7738.42
-7738.16
-7737.96
-7737.8
-7737.7
-7737.65
-7737.66
-7737.74
-7737.87
-7738.07
-7738.32
-7738.64
-7739.01
-7739.43
-7739.9
-7740.42
-7740.97
-7741.55
-7742.15
-7742.76
-7743.37
-7743.97
-7744.56
-7745.11
-7745.63
-7746.09
-7746.49
-7746.82
-7747.08
-7747.24
-7747.32
-7747.3
-7747.18
-7746.97
-7746.66
-7746.26
-7745.77
-7745.22
-7744.6
-7743.94
-7743.24
-7742.52
-7741.82
-7741.14
-7740.51
-7739.95
-7739.47
-7739.09
-7738.82
-7738.69
-7738.69
-7738.83
-7739.11
-7739.52
-7740.05
-7740.68
-7741.39
-7742.16
-7742.97
-7743.75
-7744.49
-7745.16
-7745.73
-7746.16
-7746.44
-7746.54
-7746.48
-7746.24
-7745.83
-7745.26
-7744.58
-7743.8
-7742.98
-7742.16
-7741.38
-7740.7
-7740.14
-7739.76
-7739.57
-7739.58
-7739.81
-7740.23
-7740.82
-7741.53
-7742.33
-7743.18
-7743.96
-7744.64
-7745.16
-7745.5
-7745.61
-7745.5
-7745.16
-7744.63
-7743.97
-7743.22
-7742.41
-7741.71
-7741.14
-7740.75
-7740.58
-7740.65
-7740.95
-7741.44
-7742.07
-7742.75
-7743.43
-7743.99
-7744.4
-7744.58
-7744.54
-7744.27
-7743.82
-7743.25
-7742.58
-7742.03
-7741.6
-7741.35
-7741.31
-7741.49
-7741.84
-7742.3
-7742.79
-7743.24
-7743.57
-7743.74
-7743.74
-7743.58
-7743.33
-7743
-7742.73
-7742.52
-7742.42
-7742.42
-7742.5
-7742.64
-7742.79
-7742.93
-7743.03
-7743.1
-7743.13
-8090.65
-8090.64
-8090.6
-8090.55
-8090.46
-8090.39
-8090.18
-8090.22
-8093.17
-8093.16
-8093.39
-8093.45
-8093.5
-8093.49
-8093.43
-8093.31
-8093.14
-8092.92
-8092.67
-8092.37
-8092.04
-8091.68
-8091.28
-8090.85
-8090.4
-8089.92
-8089.42
-8088.9
-8088.37
-8087.83
-8087.28
-8086.72
-8086.17
-8085.63
-8085.1
-8084.59
-8084.11
-8083.65
-8083.22
-8082.84
-8082.5
-8082.21
-8081.97
-8081.8
-8081.68
-8081.63
-8081.65
-8081.74
-8081.9
-8082.12
-8082.42
-8082.79
-8083.22
-8083.71
-8084.25
-8084.85
-8085.48
-8086.15
-8086.84
-8087.55
-8088.25
-8088.95
-8089.62
-8090.26
-8090.85
-8091.38
-8091.84
-8092.22
-8092.51
-8092.7
-8092.78
-8092.76
-8092.62
-8092.37
-8092.01
-8091.54
-8090.98
-8090.34
-8089.62
-8088.86
-8088.06
-8087.22
-8086.42
-8085.64
-8084.91
-8084.26
-8083.71
-8083.27
-8082.98
-8082.82
-8082.83
-8083
-8083.32
-8083.8
-8084.41
-8085.14
-8085.96
-8086.84
-8087.78
-8088.69
-8089.54
-8090.31
-8090.95
-8091.45
-8091.77
-8091.89
-8091.81
-8091.52
-8091.04
-8090.39
-8089.59
-8088.7
-8087.75
-8086.8
-8085.91
-8085.12
-8084.49
-8084.05
-8083.84
-8083.86
-8084.13
-8084.62
-8085.3
-8086.13
-8087.05
-8088.02
-8088.91
-8089.69
-8090.3
-8090.68
-8090.8
-8090.66
-8090.27
-8089.65
-8088.88
-8088.03
-8087.07
-8086.29
-8085.63
-8085.19
-8085.01
-8085.1
-8085.45
-8086.02
-8086.74
-8087.54
-8088.31
-8088.96
-8089.42
-8089.63
-8089.56
-8089.25
-8088.72
-8088.07
-8087.32
-8086.68
-8086.19
-8085.91
-8085.87
-8086.08
-8086.49
-8087.02
-8087.59
-8088.09
-8088.46
-8088.65
-8088.63
-8088.45
-8088.15
-8087.77
-8087.46
-8087.23
-8087.11
-8087.12
-8087.22
-8087.38
-8087.55
-8087.71
-8087.82
-8087.89
-8087.93
-8396.28
-8396.28
-8396.27
-8396.27
-8396.26
-8396.29
-8396.23
-8396.36
-8400.27
-8400.11
-8400.15
-8400.07
-8399.99
-8399.87
-8399.73
-8399.55
-8399.33
-8399.07
-8398.77
-8398.42
-8398.04
-8397.63
-8397.17
-8396.69
-8396.17
-8395.62
-8395.06
-8394.47
-8393.87
-8393.25
-8392.63
-8392
-8391.38
-8390.77
-8390.17
-8389.59
-8389.04
-8388.52
-8388.05
-8387.61
-8387.23
-8386.91
-8386.64
-8386.44
-8386.32
-8386.26
-8386.29
-8386.39
-8386.57
-8386.84
-8387.18
-8387.59
-8388.08
-8388.64
-8389.26
-8389.94
-8390.66
-8391.42
-8392.2
-8393
-8393.8
-8394.59
-8395.35
-8396.07
-8396.74
-8397.34
-8397.86
-8398.29
-8398.61
-8398.82
-8398.91
-8398.88
-8398.72
-8398.43
-8398.02
-8397.49
-8396.85
-8396.12
-8395.31
-8394.44
-8393.52
-8392.59
-8391.67
-8390.78
-8389.96
-8389.23
-8388.6
-8388.11
-8387.77
-8387.61
-8387.61
-8387.81
-8388.18
-8388.72
-8389.42
-8390.25
-8391.18
-8392.18
-8393.27
-8394.28
-8395.25
-8396.12
-8396.85
-8397.41
-8397.76
-8397.9
-8397.8
-8397.47
-8396.92
-8396.17
-8395.27
-8394.25
-8393.17
-8392.1
-8391.09
-8390.2
-8389.48
-8388.99
-8388.76
-8388.79
-8389.1
-8389.66
-8390.44
-8391.39
-8392.43
-8393.52
-8394.54
-8395.41
-8396.09
-8396.52
-8396.65
-8396.48
-8396.03
-8395.33
-8394.45
-8393.48
-8392.41
-8391.52
-8390.78
-8390.29
-8390.08
-8390.19
-8390.6
-8391.25
-8392.08
-8392.98
-8393.85
-8394.58
-8395.1
-8395.33
-8395.25
-8394.88
-8394.28
-8393.54
-8392.7
-8391.98
-8391.43
-8391.12
-8391.09
-8391.33
-8391.8
-8392.4
-8393.04
-8393.6
-8394.01
-8394.21
-8394.18
-8393.96
-8393.62
-8393.19
-8392.84
-8392.59
-8392.46
-8392.48
-8392.6
-8392.78
-8392.98
-8393.15
-8393.27
-8393.35
-8393.38
-8667.06
-8667.05
-8667.05
-8667.05
-8667.05
-8667.06
-8667.02
-8667.08
-8671.7
-8671.59
-8671.62
-8671.55
-8671.45
-8671.32
-8671.14
-8670.92
-8670.66
-8670.36
-8670.01
-8669.62
-8669.19
-8668.71
-8668.2
-8667.66
-8667.08
-8666.47
-8665.83
-8665.18
-8664.5
-8663.81
-8663.12
-8662.42
-8661.73
-8661.04
-8660.38
-8659.73
-8659.12
-8658.54
-8658.01
-8657.53
-8657.11
-8656.75
-8656.45
-8656.24
-8656.1
-8656.04
-8656.07
-8656.19
-8656.4
-8656.69
-8657.07
-8657.54
-8658.09
-8658.72
-8659.42
-8660.17
-8660.98
-8661.83
-8662.7
-8663.6
-8664.49
-8665.37
-8666.22
-8667.02
-8667.77
-8668.44
-8669.02
-8669.49
-8669.85
-8670.08
-8670.18
-8670.14
-8669.96
-8669.63
-8669.17
-8668.57
-8667.86
-8667.04
-8666.13
-8665.15
-8664.13
-8663.09
-8662.06
-8661.07
-8660.15
-8659.33
-8658.63
-8658.09
-8657.71
-8657.53
-8657.54
-8657.76
-8658.18
-8658.79
-8659.58
-8660.51
-8661.55
-8662.66
-8663.89
-8665.02
-8666.1
-8667.07
-8667.88
-8668.51
-8668.9
-8669.04
-8668.93
-8668.55
-8667.93
-8667.09
-8666.08
-8664.94
-8663.74
-8662.54
-8661.41
-8660.41
-8659.62
-8659.08
-8658.82
-8658.87
-8659.22
-8659.85
-8660.73
-8661.79
-8662.96
-8664.17
-8665.3
-8666.28
-8667.03
-8667.5
-8667.64
-8667.45
-8666.93
-8666.14
-8665.16
-8664.06
-8662.89
-8661.89
-8661.07
-8660.52
-8660.3
-8660.43
-8660.89
-8661.63
-8662.56
-8663.56
-8664.53
-8665.35
-8665.92
-8666.17
-8666.07
-8665.66
-8664.98
-8664.15
-8663.22
-8662.43
-8661.81
-8661.48
-8661.45
-8661.73
-8662.25
-8662.92
-8663.63
-8664.26
-8664.71
-8664.92
-8664.88
-8664.62
-8664.23
-8663.76
-8663.37
-8663.08
-8662.96
-8662.98
-8663.12
-8663.33
-8663.54
-8663.73
-8663.86
-8663.94
-8663.97
-8906.94
-8906.94
-8906.93
-8906.93
-8906.93
-8906.94
-8906.92
-8906.95
-8912.36
-8912.24
-8912.23
-8912.14
-8912.02
-8911.85
-8911.64
-8911.39
-8911.09
-8910.75
-8910.36
-8909.92
-8909.44
-8908.91
-8908.35
-8907.74
-8907.1
-8906.43
-8905.72
-8905
-8904.25
-8903.49
-8902.73
-8901.96
-8901.19
-8900.44
-8899.71
-8899
-8898.32
-8897.69
-8897.11
-8896.58
-8896.11
-8895.72
-8895.4
-8895.16
-8895.01
-8894.95
-8894.99
-8895.12
-8895.35
-8895.68
-8896.1
-8896.62
-8897.23
-8897.93
-8898.7
-8899.53
-8900.42
-8901.36
-8902.33
-8903.31
-8904.3
-8905.27
-8906.21
-8907.09
-8907.91
-8908.65
-8909.29
-8909.81
-8910.2
-8910.45
-8910.56
-8910.51
-8910.3
-8909.94
-8909.42
-8908.76
-8907.97
-8907.06
-8906.06
-8904.98
-8903.85
-8902.7
-8901.57
-8900.48
-8899.46
-8898.56
-8897.79
-8897.19
-8896.78
-8896.58
-8896.6
-8896.84
-8897.31
-8897.99
-8898.86
-8899.89
-8901.04
-8902.27
-8903.63
-8904.87
-8906.06
-8907.13
-8908.03
-8908.71
-8909.15
-8909.3
-8909.17
-8908.75
-8908.06
-8907.13
-8906
-8904.74
-8903.41
-8902.09
-8900.84
-8899.75
-8898.88
-8898.28
-8898.01
-8898.06
-8898.46
-8899.17
-8900.14
-8901.31
-8902.6
-8903.94
-8905.18
-8906.26
-8907.08
-8907.59
-8907.74
-8907.52
-8906.94
-8906.07
-8904.97
-8903.76
-8902.49
-8901.38
-8900.48
-8899.88
-8899.65
-8899.8
-8900.31
-8901.13
-8902.16
-8903.27
-8904.34
-8905.23
-8905.85
-8906.12
-8906.01
-8905.55
-8904.8
-8903.87
-8902.86
-8901.99
-8901.32
-8900.95
-8900.93
-8901.24
-8901.82
-8902.56
-8903.35
-8904.03
-8904.52
-8904.74
-8904.68
-8904.39
-8903.95
-8903.44
-8903.01
-8902.7
-8902.57
-8902.6
-8902.77
-8902.99
-8903.23
-8903.43
-8903.57
-8903.65
-8903.68
-9119.45
-9119.45
-9119.45
-9119.45
-9119.44
-9119.45
-9119.44
-9119.46
-9125.59
-9125.48
-9125.44
-9125.33
-9125.19
-9124.99
-9124.76
-9124.47
-9124.14
-9123.76
-9123.33
-9122.84
-9122.31
-9121.74
-9121.12
-9120.46
-9119.76
-9119.02
-9118.25
-9117.46
-9116.65
-9115.82
-9114.98
-9114.15
-9113.31
-9112.49
-9111.69
-9110.92
-9110.19
-9109.5
-9108.86
-9108.29
-9107.78
-9107.35
-9107.01
-9106.75
-9106.59
-9106.53
-9106.57
-9106.72
-9106.97
-9107.33
-9107.8
-9108.37
-9109.04
-9109.79
-9110.64
-9111.55
-9112.52
-9113.55
-9114.6
-9115.68
-9116.75
-9117.81
-9118.83
-9119.8
-9120.69
-9121.49
-9122.18
-9122.75
-9123.18
-9123.45
-9123.56
-9123.51
-9123.28
-9122.88
-9122.31
-9121.59
-9120.72
-9119.73
-9118.63
-9117.45
-9116.22
-9114.96
-9113.72
-9112.53
-9111.43
-9110.44
-9109.61
-9108.95
-9108.51
-9108.29
-9108.31
-9108.58
-9109.1
-9109.84
-9110.8
-9111.93
-9113.19
-9114.54
-9116
-9117.37
-9118.67
-9119.83
-9120.81
-9121.56
-9122.02
-9122.19
-9122.04
-9121.57
-9120.81
-9119.79
-9118.56
-9117.18
-9115.73
-9114.29
-9112.93
-9111.74
-9110.79
-9110.15
-9109.85
-9109.92
-9110.36
-9111.14
-9112.2
-9113.48
-9114.89
-9116.35
-9117.7
-9118.87
-9119.77
-9120.32
-9120.48
-9120.22
-9119.59
-9118.63
-9117.43
-9116.1
-9114.73
-9113.52
-9112.54
-9111.89
-9111.64
-9111.82
-9112.38
-9113.28
-9114.4
-9115.62
-9116.78
-9117.75
-9118.43
-9118.71
-9118.59
-9118.07
-9117.25
-9116.24
-9115.15
-9114.19
-9113.47
-9113.08
-9113.06
-9113.41
-9114.05
-9114.86
-9115.71
-9116.45
-9116.97
-9117.2
-9117.13
-9116.8
-9116.32
-9115.76
-9115.29
-9114.97
-9114.83
-9114.87
-9115.05
-9115.3
-9115.56
-9115.77
-9115.92
-9116
-9116.03
-9307.71
-9307.71
-9307.7
-9307.71
-9307.7
-9307.71
-9307.7
-9307.71
-9314.52
-9314.41
-9314.36
-9314.24
-9314.07
-9313.86
-9313.6
-9313.29
-9312.92
-9312.5
-9312.03
-9311.51
-9310.93
-9310.31
-9309.64
-9308.92
-9308.16
-9307.37
-9306.54
-9305.68
-9304.81
-9303.91
-9303.01
-9302.1
-9301.2
-9300.32
-9299.46
-9298.62
-9297.83
-9297.09
-9296.4
-9295.78
-9295.24
-9294.78
-9294.41
-9294.13
-9293.96
-9293.9
-9293.95
-9294.11
-9294.39
-9294.78
-9295.29
-9295.9
-9296.63
-9297.45
-9298.36
-9299.34
-9300.4
-9301.51
-9302.65
-9303.81
-9304.97
-9306.11
-9307.21
-9308.26
-9309.22
-9310.08
-9310.83
-9311.44
-9311.89
-9312.19
-9312.31
-9312.24
-9311.99
-9311.55
-9310.94
-9310.16
-9309.22
-9308.14
-9306.95
-9305.68
-9304.34
-9302.99
-9301.65
-9300.37
-9299.17
-9298.11
-9297.21
-9296.5
-9296.02
-9295.79
-9295.82
-9296.11
-9296.67
-9297.48
-9298.51
-9299.74
-9301.11
-9302.58
-9304.14
-9305.62
-9307.03
-9308.29
-9309.34
-9310.14
-9310.64
-9310.82
-9310.65
-9310.14
-9309.32
-9308.21
-9306.88
-9305.39
-9303.81
-9302.25
-9300.79
-9299.51
-9298.49
-9297.8
-9297.48
-9297.56
-9298.04
-9298.88
-9300.04
-9301.43
-9302.96
-9304.52
-9305.98
-9307.24
-9308.21
-9308.79
-9308.96
-9308.68
-9307.99
-9306.94
-9305.64
-9304.21
-9302.73
-9301.43
-9300.37
-9299.68
-9299.42
-9299.61
-9300.23
-9301.21
-9302.42
-9303.73
-9304.99
-9306.04
-9306.76
-9307.06
-9306.92
-9306.35
-9305.46
-9304.37
-9303.2
-9302.17
-9301.39
-9300.98
-9300.97
-9301.35
-9302.04
-9302.92
-9303.83
-9304.62
-9305.18
-9305.42
-9305.34
-9304.98
-9304.45
-9303.85
-9303.34
-9303
-9302.86
-9302.91
-9303.11
-9303.38
-9303.66
-9303.88
-9304.03
-9304.11
-9304.15
-9474.48
-9474.48
-9474.48
-9474.48
-9474.47
-9474.48
-9474.47
-9474.48
-9481.93
-9481.82
-9481.76
-9481.62
-9481.44