/*--------------------------------*- C++ -*----------------------------------*\
  =========                 |
  \\      /  F ield         | OpenFOAM: The Open Source CFD Toolbox
   \\    /   O peration     | Website:  https://openfoam.org
    \\  /    A nd           | Version:  12
     \\/     M anipulation  |
\*---------------------------------------------------------------------------*/
FoamFile
{
    format      ascii;
    class       volVectorField;
    location    "14.26";
    object      U;
}
// * * * * * * * * * * * * * * * * * * * * * * * * * * * * * * * * * * * * * //

dimensions      [0 1 -1 0 0 0 0];

internalField   nonuniform List<vector> 
3829
(
(-6.03169e-06 -0.000324566 0)
(-1.93378e-05 -0.000342474 0)
(-3.18067e-05 -0.000341557 0)
(-4.52953e-05 -0.000339605 0)
(-5.8978e-05 -0.000336991 0)
(-7.33453e-05 -0.000333704 0)
(-8.83099e-05 -0.000329759 0)
(-0.000104054 -0.000325191 0)
(-0.000120613 -0.000320023 0)
(-0.000138077 -0.000314304 0)
(-0.000156458 -0.000308081 0)
(-0.000175786 -0.000301411 0)
(-0.000196132 -0.00029438 0)
(-0.000217433 -0.000287051 0)
(-0.000239655 -0.000279502 0)
(-0.000262734 -0.000271818 0)
(-0.000286594 -0.000264082 0)
(-0.000311121 -0.000256375 0)
(-0.000336179 -0.000248778 0)
(-0.000361598 -0.000241359 0)
(-0.000387223 -0.0002342 0)
(-0.000412817 -0.00022735 0)
(-0.000438196 -0.000220874 0)
(-0.000463098 -0.000214809 0)
(-0.000487298 -0.000209191 0)
(-0.000510515 -0.00020405 0)
(-0.000532554 -0.000199396 0)
(-0.000553306 -0.000195226 0)
(-0.000572175 -0.000191516 0)
(-0.000589022 -0.000188296 0)
(-0.000603947 -0.000185506 0)
(-0.000616475 -0.000183109 0)
(-0.000626645 -0.000181056 0)
(-0.0006341 -0.000179284 0)
(-0.000638797 -0.000177743 0)
(-0.000640802 -0.000176309 0)
(-0.000639592 -0.000174927 0)
(-0.000635141 -0.000173642 0)
(-0.000627436 -0.000172417 0)
(-0.000616628 -0.000171244 0)
(-0.000602839 -0.000170103 0)
(-0.000586253 -0.000168932 0)
(-0.000566986 -0.000167649 0)
(-0.00054515 -0.000166202 0)
(-0.000520942 -0.000164526 0)
(-0.000494514 -0.000162558 0)
(-0.000466099 -0.000160256 0)
(-0.000435778 -0.000157563 0)
(-0.00040388 -0.000154475 0)
(-0.000370703 -0.000150922 0)
(-0.000336622 -0.000146915 0)
(-0.00030166 -0.000142384 0)
(-0.000266328 -0.000137408 0)
(-0.000230964 -0.00013186 0)
(-0.000195833 -0.000125877 0)
(-0.000161262 -0.000119288 0)
(-0.00012763 -0.000112366 0)
(-9.53483e-05 -0.00010482 0)
(-6.45521e-05 -9.69819e-05 0)
(-3.59981e-05 -8.86687e-05 0)
(-9.76972e-06 -8.00698e-05 0)
(1.40998e-05 -7.10744e-05 0)
(3.51552e-05 -6.18464e-05 0)
(5.32508e-05 -5.24299e-05 0)
(6.8013e-05 -4.29064e-05 0)
(7.94465e-05 -3.33136e-05 0)
(8.72926e-05 -2.3797e-05 0)
(9.14948e-05 -1.43663e-05 0)
(9.20385e-05 -5.18304e-06 0)
(8.85407e-05 3.65187e-06 0)
(8.13802e-05 1.20353e-05 0)
(7.05739e-05 1.9889e-05 0)
(5.63883e-05 2.71138e-05 0)
(3.88011e-05 3.36263e-05 0)
(1.85501e-05 3.94002e-05 0)
(-4.81895e-06 4.41924e-05 0)
(-3.01453e-05 4.82205e-05 0)
(-5.70193e-05 5.10129e-05 0)
(-8.52448e-05 5.28479e-05 0)
(-0.000114002 5.34799e-05 0)
(-0.000143146 5.30265e-05 0)
(-0.000171711 5.13923e-05 0)
(-0.000199355 4.86636e-05 0)
(-0.000225441 4.48262e-05 0)
(-0.000249212 4.00181e-05 0)
(-0.000270043 3.42157e-05 0)
(-0.00028766 2.76239e-05 0)
(-0.000301411 2.0284e-05 0)
(-0.000310849 1.24025e-05 0)
(-0.000315629 4.09851e-06 0)
(-0.000315257 -4.40518e-06 0)
(-0.000309234 -1.29427e-05 0)
(-0.000297824 -2.13429e-05 0)
(-0.000281193 -2.93856e-05 0)
(-0.000259628 -3.68723e-05 0)
(-0.000233498 -4.36048e-05 0)
(-0.000203177 -4.93809e-05 0)
(-0.000169336 -5.40303e-05 0)
(-0.000132592 -5.73758e-05 0)
(-9.38433e-05 -5.93254e-05 0)
(-5.39688e-05 -5.97471e-05 0)
(-1.40336e-05 -5.86416e-05 0)
(2.4944e-05 -5.59321e-05 0)
(6.1834e-05 -5.17114e-05 0)
(9.56054e-05 -4.60302e-05 0)
(0.000125212 -3.90713e-05 0)
(0.000149624 -3.09433e-05 0)
(0.000168326 -2.19519e-05 0)
(0.000180208 -1.23655e-05 0)
(0.000185164 -2.42076e-06 0)
(0.000182455 7.42951e-06 0)
(0.000171927 1.69325e-05 0)
(0.000154276 2.5668e-05 0)
(0.00013003 3.35334e-05 0)
(0.000100233 3.98817e-05 0)
(6.59707e-05 4.47473e-05 0)
(2.81215e-05 4.75554e-05 0)
(-1.16945e-05 4.8594e-05 0)
(-5.14606e-05 4.73116e-05 0)
(-8.95312e-05 4.40172e-05 0)
(-0.000124199 3.87213e-05 0)
(-0.000153808 3.15974e-05 0)
(-0.000176931 2.29416e-05 0)
(-0.000192339 1.31781e-05 0)
(-0.000198927 2.70256e-06 0)
(-0.00019573 -7.93354e-06 0)
(-0.000182486 -1.83608e-05 0)
(-0.000160139 -2.78364e-05 0)
(-0.000129442 -3.61021e-05 0)
(-9.17973e-05 -4.25017e-05 0)
(-4.89511e-05 -4.67085e-05 0)
(-2.75456e-06 -4.8414e-05 0)
(4.41904e-05 -4.74031e-05 0)
(8.86499e-05 -4.38228e-05 0)
(0.000128602 -3.76133e-05 0)
(0.00016172 -2.93629e-05 0)
(0.000185714 -1.91989e-05 0)
(0.000199077 -8.05363e-06 0)
(0.000200343 3.69923e-06 0)
(0.000188962 1.50982e-05 0)
(0.000165934 2.57092e-05 0)
(0.000132474 3.44948e-05 0)
(9.06061e-05 4.11299e-05 0)
(4.2859e-05 4.48929e-05 0)
(-8.22694e-06 4.57287e-05 0)
(-5.85655e-05 4.32785e-05 0)
(-0.000104323 3.78993e-05 0)
(-0.000142481 2.9914e-05 0)
(-0.000170637 1.9897e-05 0)
(-0.000186516 8.74533e-06 0)
(-0.000188724 -2.81549e-06 0)
(-0.000177102 -1.37559e-05 0)
(-0.000152983 -2.32223e-05 0)
(-0.000118679 -3.05358e-05 0)
(-7.71006e-05 -3.49643e-05 0)
(-3.19674e-05 -3.61869e-05 0)
(1.30388e-05 -3.41328e-05 0)
(5.36269e-05 -2.90835e-05 0)
(8.58719e-05 -2.16373e-05 0)
(0.000107407 -1.25608e-05 0)
(0.000116589 -2.90297e-06 0)
(0.000112802 6.34838e-06 0)
(9.7032e-05 1.42103e-05 0)
(7.20997e-05 1.99394e-05 0)
(4.12939e-05 2.27825e-05 0)
(8.2013e-06 2.2683e-05 0)
(-2.23799e-05 1.95566e-05 0)
(-4.63237e-05 1.40699e-05 0)
(-6.10909e-05 6.99764e-06 0)
(-6.48201e-05 -6.44258e-07 0)
(-5.71597e-05 -7.73288e-06 0)
(-3.98526e-05 -1.33721e-05 0)
(-1.56358e-05 -1.66917e-05 0)
(1.2427e-05 -1.73134e-05 0)
(3.88331e-05 -1.49743e-05 0)
(5.87373e-05 -1.02925e-05 0)
(6.9761e-05 -3.99533e-06 0)
(6.97899e-05 2.86201e-06 0)
(5.86269e-05 9.20355e-06 0)
(3.8286e-05 1.40621e-05 0)
(1.11097e-05 1.66273e-05 0)
(-1.82124e-05 1.64246e-05 0)
(-4.4168e-05 1.36602e-05 0)
(-6.33193e-05 8.90809e-06 0)
(-7.30485e-05 3.11778e-06 0)
(-7.23167e-05 -2.64884e-06 0)
(-6.18117e-05 -7.34349e-06 0)
(-4.45448e-05 -1.02211e-05 0)
(-2.43638e-05 -1.078e-05 0)
(-5.27825e-06 -9.20481e-06 0)
(8.86412e-06 -5.92466e-06 0)
(1.57505e-05 -1.92365e-06 0)
(1.4816e-05 1.82929e-06 0)
(7.61924e-06 4.43238e-06 0)
(-3.38787e-06 5.37889e-06 0)
(-1.43364e-05 4.4394e-06 0)
(-2.13702e-05 2.08558e-06 0)
(-2.24546e-05 -9.93554e-07 0)
(-1.69514e-05 -3.81723e-06 0)
(-6.31541e-06 -5.52519e-06 0)
(-1.03474e-06 0.000532384 0)
(-1.98485e-06 0.000546652 0)
(-3.18216e-06 0.00054907 0)
(-4.92296e-06 0.000552359 0)
(-7.43696e-06 0.000556657 0)
(-1.09048e-05 0.000561881 0)
(-1.56511e-05 0.000567891 0)
(-2.18937e-05 0.00057452 0)
(-2.9778e-05 0.000581552 0)
(-3.95837e-05 0.000588793 0)
(-5.13382e-05 0.000595895 0)
(-6.53447e-05 0.000602643 0)
(-8.1703e-05 0.000608647 0)
(-0.000100242 0.000613707 0)
(-0.000121041 0.000617441 0)
(-0.000144031 0.000619629 0)
(-0.000169074 0.000619927 0)
(-0.000195989 0.000618131 0)
(-0.000224493 0.000613966 0)
(-0.000254394 0.000607267 0)
(-0.000285367 0.000597849 0)
(-0.000317006 0.000585609 0)
(-0.000349026 0.000570453 0)
(-0.000380944 0.000552395 0)
(-0.000412459 0.000531457 0)
(-0.0004431 0.000507731 0)
(-0.000472454 0.00048135 0)
(-0.000500182 0.00045248 0)
(-0.000525913 0.000421355 0)
(-0.000549279 0.000388257 0)
(-0.000569961 0.000353444 0)
(-0.00058759 0.000317238 0)
(-0.000602053 0.000279899 0)
(-0.000613031 0.000241794 0)
(-0.000620146 0.000203201 0)
(-0.000623441 0.000164351 0)
(-0.000623456 0.000125684 0)
(-0.000620258 8.75934e-05 0)
(-0.000613498 5.04785e-05 0)
(-0.000603414 1.46463e-05 0)
(-0.000589833 -1.96225e-05 0)
(-0.000572618 -5.20789e-05 0)
(-0.000551951 -8.2557e-05 0)
(-0.000528077 -0.000110816 0)
(-0.000501171 -0.000136703 0)
(-0.000471523 -0.000160048 0)
(-0.000439417 -0.000180715 0)
(-0.000405163 -0.000198561 0)
(-0.000369042 -0.000213571 0)
(-0.000331419 -0.0002256 0)
(-0.000292698 -0.000234644 0)
(-0.000253245 -0.00024061 0)
(-0.000213303 -0.00024371 0)
(-0.000173477 -0.000243666 0)
(-0.000133839 -0.000240885 0)
(-9.53557e-05 -0.000235042 0)
(-5.78391e-05 -0.000226718 0)
(-2.19418e-05 -0.000215605 0)
(1.16456e-05 -0.000202279 0)
(4.28967e-05 -0.00018654 0)
(7.13763e-05 -0.000168843 0)
(9.72039e-05 -0.00014921 0)
(0.000119221 -0.000128077 0)
(0.000137687 -0.000105473 0)
(0.000152267 -8.19565e-05 0)
(0.000162706 -5.76168e-05 0)
(0.000168893 -3.29581e-05 0)
(0.000170748 -8.16402e-06 0)
(0.000167887 1.61944e-05 0)
(0.000160194 4.00092e-05 0)
(0.000148178 6.28864e-05 0)
(0.000131895 8.45116e-05 0)
(0.00011162 0.000104543 0)
(8.76281e-05 0.000122553 0)
(6.00606e-05 0.000138411 0)
(2.94334e-05 0.000151558 0)
(-3.95536e-06 0.000162113 0)
(-3.94579e-05 0.000169504 0)
(-7.59831e-05 0.000173799 0)
(-0.000113334 0.000174502 0)
(-0.000150791 0.000172057 0)
(-0.000187512 0.000165916 0)
(-0.000222867 0.000156621 0)
(-0.000256048 0.000143842 0)
(-0.000286341 0.000128176 0)
(-0.000312918 0.000109482 0)
(-0.000335303 8.8368e-05 0)
(-0.000352872 6.50127e-05 0)
(-0.000364941 4.00096e-05 0)
(-0.000371155 1.37746e-05 0)
(-0.000370908 -1.30595e-05 0)
(-0.000363916 -3.99425e-05 0)
(-0.000350303 -6.62863e-05 0)
(-0.000330189 -9.14858e-05 0)
(-0.000303982 -0.000114885 0)
(-0.000272076 -0.000135869 0)
(-0.00023497 -0.000153819 0)
(-0.000193449 -0.00016821 0)
(-0.000148392 -0.000178527 0)
(-0.000100862 -0.000184446 0)
(-5.20221e-05 -0.000185627 0)
(-3.10937e-06 -0.000181964 0)
(4.45966e-05 -0.000173337 0)
(8.9608e-05 -0.000160056 0)
(0.000130666 -0.000142198 0)
(0.000166588 -0.000120343 0)
(0.000196045 -9.49687e-05 0)
(0.000218127 -6.68213e-05 0)
(0.000231967 -3.68209e-05 0)
(0.000237024 -5.71708e-06 0)
(0.000232576 2.49032e-05 0)
(0.000218624 5.45206e-05 0)
(0.000196291 8.19528e-05 0)
(0.0001656 0.000106052 0)
(0.000127976 0.000126005 0)
(8.4745e-05 0.000140744 0)
(3.7427e-05 0.000149619 0)
(-1.22598e-05 0.000152259 0)
(-6.2255e-05 0.000148219 0)
(-0.000109569 0.000137679 0)
(-0.000152844 0.000120917 0)
(-0.000189792 9.85111e-05 0)
(-0.000218457 7.14256e-05 0)
(-0.000237445 4.07613e-05 0)
(-0.000245443 7.98738e-06 0)
(-0.000241611 -2.5419e-05 0)
(-0.000225348 -5.76541e-05 0)
(-0.000197912 -8.74985e-05 0)
(-0.000160317 -0.000112865 0)
(-0.000113881 -0.000132814 0)
(-6.1138e-05 -0.000145622 0)
(-4.20359e-06 -0.000150832 0)
(5.33757e-05 -0.000147563 0)
(0.000108049 -0.000136114 0)
(0.000156947 -0.000116848 0)
(0.000197411 -9.07459e-05 0)
(0.000226558 -5.93325e-05 0)
(0.000242465 -2.42836e-05 0)
(0.000243715 1.21436e-05 0)
(0.000229725 4.78371e-05 0)
(0.000201455 8.03739e-05 0)
(0.000160395 0.000107788 0)
(0.000109227 0.000127974 0)
(5.10128e-05 0.000139611 0)
(-1.10226e-05 0.000141572 0)
(-7.20698e-05 0.000133747 0)
(-0.000127128 0.000116711 0)
(-0.000172859 9.17012e-05 0)
(-0.000205958 6.05138e-05 0)
(-0.000223984 2.56256e-05 0)
(-0.000225425 -1.01287e-05 0)
(-0.000210011 -4.40259e-05 0)
(-0.000179739 -7.32454e-05 0)
(-0.000137199 -9.55126e-05 0)
(-8.59278e-05 -0.000108802 0)
(-3.07169e-05 -0.000112255 0)
(2.38183e-05 -0.000105176 0)
(7.2396e-05 -8.91362e-05 0)
(0.000110418 -6.5711e-05 0)
(0.000134929 -3.73256e-05 0)
(0.000144056 -7.18737e-06 0)
(0.000137381 2.14892e-05 0)
(0.000116335 4.57668e-05 0)
(8.41459e-05 6.31423e-05 0)
(4.5119e-05 7.1651e-05 0)
(3.80014e-06 7.07702e-05 0)
(-3.40352e-05 6.0634e-05 0)
(-6.31364e-05 4.31701e-05 0)
(-8.0571e-05 2.09033e-05 0)
(-8.41049e-05 -2.96754e-06 0)
(-7.36376e-05 -2.50598e-05 0)
(-5.13266e-05 -4.24843e-05 0)
(-2.0637e-05 -5.26885e-05 0)
(1.45528e-05 -5.42288e-05 0)
(4.74897e-05 -4.67876e-05 0)
(7.21322e-05 -3.20033e-05 0)
(8.56343e-05 -1.22688e-05 0)
(8.55397e-05 9.12264e-06 0)
(7.1844e-05 2.88585e-05 0)
(4.69537e-05 4.37682e-05 0)
(1.38477e-05 5.15245e-05 0)
(-2.15786e-05 5.06627e-05 0)
(-5.26223e-05 4.18372e-05 0)
(-7.50505e-05 2.69736e-05 0)
(-8.5767e-05 8.86188e-06 0)
(-8.37032e-05 -8.99287e-06 0)
(-6.99652e-05 -2.34422e-05 0)
(-4.8212e-05 -3.20375e-05 0)
(-2.33097e-05 -3.35484e-05 0)
(-2.4686e-07 -2.82492e-05 0)
(1.63337e-05 -1.78333e-05 0)
(2.36192e-05 -5.23853e-06 0)
(2.11972e-05 6.46661e-06 0)
(1.11475e-05 1.45316e-05 0)
(-3.37125e-06 1.7273e-05 0)
(-1.75199e-05 1.41952e-05 0)
(-2.65699e-05 6.63789e-06 0)
(-2.80445e-05 -3.08901e-06 0)
(-2.11985e-05 -1.20095e-05 0)
(-7.9046e-06 -1.73634e-05 0)
(3.36118e-06 -0.00023154 0)
(1.01618e-05 -0.000253238 0)
(1.6073e-05 -0.000246094 0)
(2.04968e-05 -0.000234601 0)
(2.28687e-05 -0.000219131 0)
(2.24077e-05 -0.000199844 0)
(1.86035e-05 -0.00017671 0)
(1.07821e-05 -0.000150003 0)
(-1.20532e-06 -0.000119983 0)
(-1.83424e-05 -8.72688e-05 0)
(-4.06778e-05 -5.24186e-05 0)
(-6.84259e-05 -1.62495e-05 0)
(-0.000101432 2.05202e-05 0)
(-0.000139427 5.70529e-05 0)
(-0.000182348 9.25119e-05 0)
(-0.000229724 0.000126096 0)
(-0.00028125 0.000157018 0)
(-0.000336196 0.00018454 0)
(-0.000394056 0.000208081 0)
(-0.00045397 0.000226972 0)
(-0.000515279 0.000240794 0)
(-0.000577091 0.000249175 0)
(-0.000638439 0.000251918 0)
(-0.000698285 0.000248868 0)
(-0.000755925 0.000240182 0)
(-0.000810433 0.000225764 0)
(-0.000861173 0.000206247 0)
(-0.000907464 0.000181466 0)
(-0.000948173 0.000152503 0)
(-0.000983073 0.000119467 0)
(-0.0010121 8.31487e-05 0)
(-0.0010349 4.40099e-05 0)
(-0.00105133 2.87888e-06 0)
(-0.00106107 -3.96806e-05 0)
(-0.00106487 -8.29675e-05 0)
(-0.00106206 -0.000126274 0)
(-0.00105156 -0.000169167 0)
(-0.00103381 -0.000211394 0)
(-0.00100939 -0.000252529 0)
(-0.000979231 -0.000292125 0)
(-0.000943795 -0.000329784 0)
(-0.000903865 -0.000365056 0)
(-0.000859651 -0.000397578 0)
(-0.000811394 -0.000427029 0)
(-0.00075968 -0.000453108 0)
(-0.000704803 -0.000475586 0)
(-0.00064717 -0.000494225 0)
(-0.00058748 -0.000508867 0)
(-0.000526076 -0.000519385 0)
(-0.000463313 -0.000525596 0)
(-0.000399843 -0.000527527 0)
(-0.000336676 -0.000525048 0)
(-0.000273474 -0.000518307 0)
(-0.00021142 -0.000507148 0)
(-0.000150583 -0.000491808 0)
(-9.20218e-05 -0.000472461 0)
(-3.61436e-05 -0.000448995 0)
(1.67557e-05 -0.000421855 0)
(6.59856e-05 -0.000391058 0)
(0.000111509 -0.000356996 0)
(0.000152287 -0.000319858 0)
(0.000188501 -0.000280156 0)
(0.000219626 -0.000238172 0)
(0.000245182 -0.0001944 0)
(0.0002646 -0.000149274 0)
(0.000278177 -0.000103296 0)
(0.000285373 -5.69525e-05 0)
(0.000285996 -1.08367e-05 0)
(0.000280381 3.43432e-05 0)
(0.00026888 7.81394e-05 0)
(0.000251192 0.000119937 0)
(0.000227656 0.000159169 0)
(0.00019819 0.000195271 0)
(0.00016361 0.000227619 0)
(0.000124232 0.000255771 0)
(8.06326e-05 0.000279262 0)
(3.38819e-05 0.000297597 0)
(-1.57281e-05 0.000310482 0)
(-6.75609e-05 0.000317508 0)
(-0.000119641 0.000318362 0)
(-0.000171878 0.00031326 0)
(-0.000223051 0.000301866 0)
(-0.000272062 0.000284444 0)
(-0.00031815 0.000261114 0)
(-0.000359973 0.000232217 0)
(-0.000396932 0.000198248 0)
(-0.000427824 0.000159793 0)
(-0.000452124 0.000117523 0)
(-0.000468726 7.22797e-05 0)
(-0.000477288 2.49188e-05 0)
(-0.000477023 -2.34758e-05 0)
(-0.000467714 -7.19091e-05 0)
(-0.000449558 -0.000119294 0)
(-0.000422633 -0.000164515 0)
(-0.000387348 -0.000206415 0)
(-0.000344286 -0.000243883 0)
(-0.000294188 -0.00027584 0)
(-0.000238116 -0.000301361 0)
(-0.000177327 -0.00031952 0)
(-0.000113279 -0.000329737 0)
(-4.74832e-05 -0.000331461 0)
(1.83808e-05 -0.00032441 0)
(8.22115e-05 -0.000308627 0)
(0.000142365 -0.000284297 0)
(0.000197174 -0.000251946 0)
(0.000244668 -0.000212265 0)
(0.000283472 -0.000166528 0)
(0.000312083 -0.000115871 0)
(0.000329554 -6.19252e-05 0)
(0.000334325 -6.18307e-06 0)
(0.000326366 4.89078e-05 0)
(0.000306643 0.00010223 0)
(0.000274611 0.000151161 0)
(0.000231739 0.00019421 0)
(0.000179433 0.000229629 0)
(0.000119283 0.000255568 0)
(5.38666e-05 0.000271328 0)
(-1.46827e-05 0.000275358 0)
(-8.31557e-05 0.000267562 0)
(-0.000148236 0.000248171 0)
(-0.000207496 0.0002175 0)
(-0.000257896 0.000176857 0)
(-0.000297007 0.000127964 0)
(-0.000322737 7.25759e-05 0)
(-0.000333414 1.35634e-05 0)
(-0.000327643 -4.64028e-05 0)
(-0.000305814 -0.000104553 0)
(-0.0002686 -0.000157804 0)
(-0.000217486 -0.000203244 0)
(-0.00015475 -0.000238592 0)
(-8.32522e-05 -0.000261251 0)
(-6.52355e-06 -0.000270045 0)
(7.13164e-05 -0.000263668 0)
(0.000144776 -0.000242732 0)
(0.000210607 -0.000207748 0)
(0.000264547 -0.00016089 0)
(0.000303212 -0.00010437 0)
(0.000324006 -4.1785e-05 0)
(0.000324976 2.337e-05 0)
(0.000305561 8.67864e-05 0)
(0.000267242 0.000144635 0)
(0.000212015 0.000193018 0)
(0.000143217 0.000228396 0)
(6.5157e-05 0.000248295 0)
(-1.75564e-05 0.000251304 0)
(-9.80929e-05 0.000236462 0)
(-0.000170485 0.000205376 0)
(-0.000229956 0.00016012 0)
(-0.000272333 0.000104167 0)
(-0.000294031 4.17586e-05 0)
(-0.000293554 -2.18328e-05 0)
(-0.000271031 -8.18288e-05 0)
(-0.000228774 -0.000133336 0)
(-0.000170483 -0.000171888 0)
(-0.000101283 -0.00019452 0)
(-2.69697e-05 -0.000199347 0)
(4.53479e-05 -0.000185619 0)
(0.000108279 -0.000155906 0)
(0.000156854 -0.000113216 0)
(0.000186706 -6.20835e-05 0)
(0.000195405 -7.87725e-06 0)
(0.000182984 4.30543e-05 0)
(0.000151646 8.58842e-05 0)
(0.000105701 0.000115989 0)
(5.11619e-05 0.000130231 0)
(-5.62034e-06 0.000127394 0)
(-5.67947e-05 0.000108156 0)
(-9.53591e-05 7.60056e-05 0)
(-0.000117425 3.54768e-05 0)
(-0.000120328 -7.68241e-06 0)
(-0.000104364 -4.74298e-05 0)
(-7.25122e-05 -7.8347e-05 0)
(-2.94161e-05 -9.60703e-05 0)
(1.91435e-05 -9.81476e-05 0)
(6.4094e-05 -8.4162e-05 0)
(9.75725e-05 -5.71382e-05 0)
(0.000115535 -2.15172e-05 0)
(0.000115063 1.69582e-05 0)
(9.63574e-05 5.21275e-05 0)
(6.2723e-05 7.84241e-05 0)
(1.8508e-05 9.16839e-05 0)
(-2.83292e-05 8.94429e-05 0)
(-6.87323e-05 7.31107e-05 0)
(-9.71587e-05 4.61116e-05 0)
(-0.000109561 1.36864e-05 0)
(-0.000104762 -1.80589e-05 0)
(-8.47239e-05 -4.3395e-05 0)
(-5.45175e-05 -5.80399e-05 0)
(-2.07555e-05 -5.99771e-05 0)
(9.72468e-06 -4.94497e-05 0)
(3.0629e-05 -3.02745e-05 0)
(3.84946e-05 -7.39059e-06 0)
(3.31284e-05 1.35715e-05 0)
(1.75399e-05 2.77606e-05 0)
(-3.64999e-06 3.22599e-05 0)
(-2.38055e-05 2.62452e-05 0)
(-3.66164e-05 1.22252e-05 0)
(-3.87343e-05 -5.58869e-06 0)
(-2.92867e-05 -2.18256e-05 0)
(-1.09097e-05 -3.15368e-05 0)
(2.60841e-05 0.000382511 0)
(8.03018e-05 0.000399577 0)
(0.00013362 0.000421624 0)
(0.000185465 0.0004543 0)
(0.000234408 0.00049766 0)
(0.000279843 0.000550379 0)
(0.000320729 0.000612093 0)
(0.000355142 0.000679851 0)
(0.00038097 0.000753407 0)
(0.000396116 0.000829168 0)
(0.000399711 0.000906198 0)
(0.000390717 0.000981797 0)
(0.000369213 0.00105455 0)
(0.00033498 0.00112233 0)
(0.000288523 0.00118351 0)
(0.00023057 0.0012364 0)
(0.000161945 0.00127952 0)
(8.43828e-05 0.00131167 0)
(-1.26411e-06 0.00133184 0)
(-9.35018e-05 0.00133899 0)
(-0.000189948 0.00133263 0)
(-0.000288813 0.00131248 0)
(-0.000388436 0.00127887 0)
(-0.000486297 0.00123164 0)
(-0.00058175 0.00117222 0)
(-0.000671799 0.00110083 0)
(-0.00075643 0.00101949 0)
(-0.000833054 0.000929239 0)
(-0.000899982 0.00083246 0)
(-0.000958615 0.000729986 0)
(-0.00100707 0.000624002 0)
(-0.00104512 0.00051563 0)
(-0.00107236 0.000406261 0)
(-0.00108936 0.000297064 0)
(-0.00109544 0.000189005 0)
(-0.00109198 8.33508e-05 0)
(-0.00108149 -1.8696e-05 0)
(-0.00106412 -0.000116147 0)
(-0.00103882 -0.000208513 0)
(-0.00100617 -0.000295199 0)
(-0.000966253 -0.000375768 0)
(-0.000919378 -0.000449807 0)
(-0.000866429 -0.000516898 0)
(-0.00080804 -0.000576834 0)
(-0.000744933 -0.000629282 0)
(-0.000677762 -0.000674177 0)
(-0.000607164 -0.000711309 0)
(-0.000534017 -0.000740702 0)
(-0.000458548 -0.00076234 0)
(-0.000381762 -0.000776014 0)
(-0.000304337 -0.000782277 0)
(-0.000227193 -0.000780924 0)
(-0.000150394 -0.000772056 0)
(-7.49337e-05 -0.000756062 0)
(-2.14906e-06 -0.00073306 0)
(6.83767e-05 -0.000703436 0)
(0.000135794 -0.000667332 0)
(0.000199026 -0.000625318 0)
(0.000257667 -0.00057758 0)
(0.000311088 -0.000524912 0)
(0.000358481 -0.000467407 0)
(0.000399712 -0.000406079 0)
(0.000433901 -0.000341194 0)
(0.000460761 -0.00027377 0)
(0.000480005 -0.000204353 0)
(0.000491377 -0.000133841 0)
(0.00049453 -6.30034e-05 0)
(0.000488793 7.29566e-06 0)
(0.000474501 7.63019e-05 0)
(0.000451997 0.00014314 0)
(0.000421386 0.00020671 0)
(0.000383124 0.000266263 0)
(0.000337363 0.00032079 0)
(0.000284879 0.000369603 0)
(0.000226498 0.000411745 0)
(0.000162669 0.000446646 0)
(9.43438e-05 0.000473522 0)
(2.24849e-05 0.000491833 0)
(-5.18715e-05 0.000501187 0)
(-0.000126461 0.000501381 0)
(-0.000200681 0.000491889 0)
(-0.000273541 0.00047313 0)
(-0.000343065 0.000444886 0)
(-0.000408291 0.000407845 0)
(-0.000467447 0.000362204 0)
(-0.000519164 0.00030886 0)
(-0.00056256 0.00024868 0)
(-0.000596442 0.000182756 0)
(-0.000619711 0.000112397 0)
(-0.000631577 3.88159e-05 0)
(-0.000631228 -3.60716e-05 0)
(-0.000618578 -0.000111104 0)
(-0.000593637 -0.000184271 0)
(-0.000556514 -0.000253995 0)
(-0.000507842 -0.000318477 0)
(-0.000448406 -0.00037596 0)
(-0.00037934 -0.000424868 0)
(-0.000301992 -0.000463656 0)
(-0.000218206 -0.000491193 0)
(-0.000130085 -0.00050631 0)
(-3.95886e-05 -0.000508341 0)
(5.06191e-05 -0.00049681 0)
(0.000138111 -0.000471879 0)
(0.000220348 -0.000433584 0)
(0.000295 -0.000383235 0)
(0.000359299 -0.000321677 0)
(0.000411098 -0.000250671 0)
(0.000448858 -0.000172025 0)
(0.000471179 -8.86898e-05 0)
(0.000475961 -2.92697e-06 0)
(0.000463581 8.23803e-05 0)
(0.000434097 0.000164377 0)
(0.000387902 0.00023961 0)
(0.00032722 0.000305971 0)
(0.000252968 0.000359625 0)
(0.000168718 0.0003993 0)
(7.6882e-05 0.000422492 0)
(-1.95481e-05 0.00042798 0)
(-0.000114973 0.000415187 0)
(-0.000205635 0.000384255 0)
(-0.000288169 0.000336287 0)
(-0.00035781 0.000272924 0)
(-0.000411931 0.000196652 0)
(-0.000447278 0.000111022 0)
(-0.00046123 1.97109e-05 0)
(-0.000453367 -7.29982e-05 0)
(-0.000422826 -0.000162583 0)
(-0.000370915 -0.000244459 0)
(-0.000300345 -0.000314308 0)
(-0.000213365 -0.000367833 0)
(-0.000114577 -0.000402433 0)
(-8.51719e-06 -0.000415107 0)
(9.82839e-05 -0.00040477 0)
(0.000199176 -0.000371906 0)
(0.000288941 -0.000317537 0)
(0.000362298 -0.00024498 0)
(0.000414429 -0.000157854 0)
(0.000441706 -6.13922e-05 0)
(0.000441993 3.83806e-05 0)
(0.000414628 0.000135631 0)
(0.000361625 0.000223859 0)
(0.000285308 0.000296998 0)
(0.000190792 0.000350238 0)
(8.45168e-05 0.000379494 0)
(-2.78872e-05 0.000382457 0)
(-0.00013721 0.000358611 0)
(-0.000234311 0.000309608 0)
(-0.000313408 0.000239479 0)
(-0.000368517 0.000153168 0)
(-0.000395107 5.76275e-05 0)
(-0.000391403 -3.947e-05 0)
(-0.000358103 -0.00013076 0)
(-0.000298057 -0.000208196 0)
(-0.000216756 -0.000265671 0)
(-0.000121374 -0.000298276 0)
(-1.96856e-05 -0.000303638 0)
(7.80076e-05 -0.000280885 0)
(0.000161826 -0.000233581 0)
(0.000225091 -0.000166748 0)
(0.000262269 -8.75923e-05 0)
(0.000269765 -4.49247e-06 0)
(0.000248269 7.35974e-05 0)
(0.000201667 0.000138277 0)
(0.000135522 0.000183068 0)
(5.8319e-05 0.000203169 0)
(-2.09288e-05 0.000196612 0)
(-9.12051e-05 0.000165219 0)
(-0.000143168 0.000114217 0)
(-0.000171727 5.08227e-05 0)
(-0.00017342 -1.599e-05 0)
(-0.000148948 -7.71323e-05 0)
(-0.000102643 -0.000124145 0)
(-4.13774e-05 -0.000150419 0)
(2.66582e-05 -0.000152614 0)
(8.90596e-05 -0.000129921 0)
(0.000135012 -8.74794e-05 0)
(0.000159212 -3.21483e-05 0)
(0.000157876 2.71e-05 0)
(0.000131573 8.09057e-05 0)
(8.5009e-05 0.000120511 0)
(2.44235e-05 0.000139928 0)
(-3.88813e-05 0.000135376 0)
(-9.26991e-05 0.000109384 0)
(-0.000129456 6.73789e-05 0)
(-0.000143895 1.74333e-05 0)
(-0.000134859 -3.10004e-05 0)
(-0.000105435 -6.89925e-05 0)
(-6.28233e-05 -9.02473e-05 0)
(-1.59968e-05 -9.1822e-05 0)
(2.50547e-05 -7.42509e-05 0)
(5.18277e-05 -4.37995e-05 0)
(6.02378e-05 -8.11179e-06 0)
(5.02567e-05 2.41727e-05 0)
(2.64615e-05 4.55527e-05 0)
(-4.5224e-06 5.17256e-05 0)
(-3.34337e-05 4.16549e-05 0)
(-5.16232e-05 1.92937e-05 0)
(-5.45663e-05 -8.73585e-06 0)
(-4.12044e-05 -3.41217e-05 0)
(-1.53383e-05 -4.92833e-05 0)
(7.44068e-05 -0.000920061 0)
(0.000225062 -0.000939441 0)
(0.000372131 -0.000906048 0)
(0.00051206 -0.000854841 0)
(0.000639057 -0.000784341 0)
(0.000750971 -0.000698089 0)
(0.000839136 -0.000591037 0)
(0.000901791 -0.000470636 0)
(0.000933685 -0.000328 0)
(0.000932663 -0.000171009 0)
(0.000903758 7.45941e-07 0)
(0.000844877 0.000176252 0)
(0.000759841 0.000353242 0)
(0.000648721 0.00052471 0)
(0.000514849 0.000687433 0)
(0.000360106 0.000836412 0)
(0.000188569 0.000968575 0)
(3.55729e-06 0.00108082 0)
(-0.000193223 0.00117074 0)
(-0.000396591 0.00123529 0)
(-0.000602545 0.00127487 0)
(-0.000805852 0.00128825 0)
(-0.00100477 0.00127726 0)
(-0.00119272 0.00123967 0)
(-0.00136748 0.00118093 0)
(-0.00152533 0.00109814 0)
(-0.00166239 0.00100106 0)
(-0.00177629 0.000884138 0)
(-0.0018678 0.000761962 0)
(-0.00193765 0.000626925 0)
(-0.00198525 0.000490629 0)
(-0.00201381 0.000349928 0)
(-0.0020235 0.000210618 0)
(-0.00201621 7.35994e-05 0)
(-0.00199258 -5.88891e-05 0)
(-0.0019519 -0.000186741 0)
(-0.00189545 -0.000309142 0)
(-0.00182692 -0.000425019 0)
(-0.00174852 -0.000533553 0)
(-0.00166137 -0.000634072 0)
(-0.00156666 -0.000726027 0)
(-0.0014652 -0.000809125 0)
(-0.00135815 -0.00088299 0)
(-0.00124617 -0.000947639 0)
(-0.00113042 -0.00100275 0)
(-0.00101174 -0.00104835 0)
(-0.000890905 -0.00108427 0)
(-0.000769333 -0.00111082 0)
(-0.0006465 -0.00112715 0)
(-0.000524876 -0.00113437 0)
(-0.00040512 -0.00113198 0)
(-0.000286475 -0.00112 0)
(-0.00017081 -0.00109859 0)
(-5.92209e-05 -0.00106836 0)
(4.81424e-05 -0.00102917 0)
(0.000150396 -0.000981268 0)
(0.000246572 -0.00092531 0)
(0.000336197 -0.000861598 0)
(0.000417994 -0.000790535 0)
(0.000492235 -0.000712954 0)
(0.000557402 -0.000629398 0)
(0.000613153 -0.000540734 0)
(0.000659143 -0.000447708 0)
(0.000694118 -0.000351255 0)
(0.000718096 -0.000252458 0)
(0.000730763 -0.000152193 0)
(0.000731887 -5.18672e-05 0)
(0.000721478 4.74695e-05 0)
(0.000700041 0.000144653 0)
(0.000667001 0.000238414 0)
(0.000622636 0.000327554 0)
(0.000567827 0.000410765 0)
(0.000502804 0.00048675 0)
(0.000428621 0.000554461 0)
(0.000346189 0.000612626 0)
(0.000256669 0.000660268 0)
(0.000161265 0.000696456 0)
(6.15047e-05 0.000720536 0)
(-4.09748e-05 0.000731769 0)
(-0.000144484 0.000729983 0)
(-0.000247248 0.000714489 0)
(-0.000347299 0.00068565 0)
(-0.000442822 0.000643604 0)
(-0.000532053 0.00058882 0)
(-0.000613187 0.000522241 0)
(-0.000684018 0.00044469 0)
(-0.000743135 0.000357465 0)
(-0.000789035 0.000262321 0)
(-0.000820508 0.000160967 0)
(-0.000836017 5.52049e-05 0)
(-0.000835115 -5.23322e-05 0)
(-0.000817682 -0.000159793 0)
(-0.000783187 -0.000264467 0)
(-0.000732419 -0.000364048 0)
(-0.000665718 -0.000455867 0)
(-0.000584413 -0.000537611 0)
(-0.000489964 -0.000606869 0)
(-0.000384607 -0.000661659 0)
(-0.000270623 -0.000700122 0)
(-0.000150646 -0.000720875 0)
(-2.77539e-05 -0.000722813 0)
(9.45549e-05 -0.000705463 0)
(0.000213126 -0.000668766 0)
(0.000324015 -0.000613443 0)
(0.000424016 -0.000540368 0)
(0.000510395 -0.000451713 0)
(0.000580034 -0.000349684 0)
(0.000629464 -0.000237213 0)
(0.00065716 -0.000117711 0)
(0.000661962 5.33521e-06 0)
(0.000643164 0.000127108 0)
(0.000600975 0.000244144 0)
(0.000536611 0.000351385 0)
(0.000451365 0.000445286 0)
(0.000348291 0.000521558 0)
(0.000231788 0.000577014 0)
(0.000104706 0.000609216 0)
(-2.73322e-05 0.000615949 0)
(-0.000158527 0.000596533 0)
(-0.000282787 0.000551124 0)
(-0.000395261 0.000481391 0)
(-0.000490712 0.000389764 0)
(-0.000563922 0.000280145 0)
(-0.000611149 0.000156798 0)
(-0.000629929 2.60602e-05 0)
(-0.000618111 -0.000106832 0)
(-0.000575929 -0.00023453 0)
(-0.000504929 -0.000351426 0)
(-0.000407587 -0.000450431 0)
(-0.000289071 -0.000526055 0)
(-0.000154654 -0.000574493 0)
(-1.03382e-05 -0.000591549 0)
(0.000134429 -0.000575665 0)
(0.000271105 -0.000527603 0)
(0.000392454 -0.000449491 0)
(0.000490827 -0.0003452 0)
(0.000560471 -0.000220683 0)
(0.000595905 -8.30472e-05 0)
(0.000594886 5.8774e-05 0)
(0.000556804 0.000196497 0)
(0.000483432 0.000320932 0)
(0.00037945 0.000423612 0)
(0.000251344 0.000497637 0)
(0.000107101 0.000537312 0)
(-4.39752e-05 0.000540027 0)
(-0.000189929 0.000503952 0)
(-0.000319115 0.000433112 0)
(-0.000423024 0.000332102 0)
(-0.000494265 0.000208696 0)
(-0.000526519 7.29556e-05 0)
(-0.000518363 -6.49113e-05 0)
(-0.000470165 -0.000193152 0)
(-0.000386283 -0.000301667 0)
(-0.00027459 -0.000380695 0)
(-0.000144874 -0.000424495 0)
(-7.73626e-06 -0.000428943 0)
(0.000122982 -0.000393957 0)
(0.00023356 -0.000324061 0)
(0.000315404 -0.000227322 0)
(0.000361024 -0.000113662 0)
(0.000366659 4.43579e-06 0)
(0.000332992 0.00011502 0)
(0.000265456 0.000205796 0)
(0.000172516 0.000267427 0)
(6.51688e-05 0.000293677 0)
(-4.34102e-05 0.00028088 0)
(-0.000138244 0.000233864 0)
(-0.000207287 0.000159152 0)
(-0.000243471 6.73603e-05 0)
(-0.000242853 -2.86617e-05 0)
(-0.000206814 -0.000115756 0)
(-0.000141225 -0.000181939 0)
(-5.59324e-05 -0.000218156 0)
(3.76734e-05 -0.000219452 0)
(0.000122769 -0.000185589 0)
(0.00018477 -0.000123856 0)
(0.000216637 -4.41075e-05 0)
(0.000213739 4.04469e-05 0)
(0.000177024 0.000116558 0)
(0.000113192 0.000171916 0)
(3.11989e-05 0.000198057 0)
(-5.3627e-05 0.000189986 0)
(-0.000124628 0.000151702 0)
(-0.000171965 9.09439e-05 0)
(-0.000188739 1.96273e-05 0)
(-0.000173591 -4.86951e-05 0)
(-0.000131444 -0.000101536 0)
(-7.2418e-05 -0.000129906 0)
(-8.61255e-06 -0.000130072 0)
(4.60868e-05 -0.00010334 0)
(8.02227e-05 -5.85302e-05 0)
(8.89352e-05 -6.94914e-06 0)
(7.25447e-05 3.89488e-05 0)
(3.76097e-05 6.88151e-05 0)
(-6.34187e-06 7.65393e-05 0)
(-4.66992e-05 6.10198e-05 0)
(-7.18541e-05 2.80292e-05 0)
(-7.57026e-05 -1.27466e-05 0)
(-5.70629e-05 -4.94642e-05 0)
(-2.12221e-05 -7.1285e-05 0)
(0.000130206 -0.00132128 0)
(0.000394734 -0.00128583 0)
(0.000653594 -0.00118556 0)
(0.000913999 -0.00103449 0)
(0.00116008 -0.000827184 0)
(0.00140594 -0.000571772 0)
(0.00162541 -0.000248606 0)
(0.00183332 0.000107061 0)
(0.00200494 0.000534345 0)
(0.00211242 0.000949448 0)
(0.00216962 0.00135854 0)
(0.00215472 0.00173881 0)
(0.00208297 0.00209483 0)
(0.00195068 0.0024152 0)
(0.00176864 0.00269635 0)
(0.00153993 0.00293241 0)
(0.00127374 0.00312047 0)
(0.000977346 0.00325722 0)