/*--------------------------------*- C++ -*----------------------------------*\
  =========                 |
  \\      /  F ield         | OpenFOAM: The Open Source CFD Toolbox
   \\    /   O peration     | Website:  https://openfoam.org
    \\  /    A nd           | Version:  12
     \\/     M anipulation  |
\*---------------------------------------------------------------------------*/
FoamFile
{
    format      ascii;
    class       volVectorField;
    location    "300";
    object      U;
}
// * * * * * * * * * * * * * * * * * * * * * * * * * * * * * * * * * * * * * //

dimensions      [0 1 -1 0 0 0 0];

internalField   nonuniform List<vector> 
80
(
(0.0171388 0 0)
(0.0504649 0 0)
(0.0817111 0 0)
(0.109558 0 0)
(0.132871 0 0)
(0.150763 0 0)
(0.162751 0 0)
(0.169182 0 0)
(0.172592 0 0)
(0.170037 0 0)
(0.16477 0 0)
(0.155466 0 0)
(0.142212 0 0)
(0.125876 0 0)
(0.107543 0 0)
(0.0883018 0 0)
(0.0691712 0 0)
(0.0510462 0 0)
(0.0346679 0 0)
(0.0206006 0 0)
(0.00920831 0 0)
(0.000609136 0 0)
(-0.00541274 0 0)
(-0.00941582 0 0)
(-0.0119791 0 0)
(-0.0135599 0 0)
(-0.0135953 0 0)
(-0.0123745 0 0)
(-0.0121317 0 0)
(-0.0125691 0 0)
(-0.0124817 0 0)
(-0.0119125 0 0)
(-0.0111164 0 0)
(-0.0107285 0 0)
(-0.0105062 0 0)
(-0.00978436 0 0)
(-0.00914283 0 0)
(-0.00810575 0 0)
(-0.00886974 0 0)
(-0.00910933 0 0)
(-0.00840783 0 0)
(-0.0072833 0 0)
(-0.0070446 0 0)
(-0.00880916 0 0)
(-0.00970828 0 0)
(-0.0104906 0 0)
(-0.0107891 0 0)
(-0.0102971 0 0)
(-0.0103324 0 0)
(-0.0110656 0 0)
(-0.0119242 0 0)
(-0.0124541 0 0)
(-0.0125864 0 0)
(-0.0128511 0 0)
(-0.0129912 0 0)
(-0.0114876 0 0)
(-0.00895417 0 0)
(-0.00498444 0 0)
(0.000996598 0 0)
(0.00954986 0 0)
(0.0208947 0 0)
(0.034916 0 0)
(0.0512515 0 0)
(0.0693384 0 0)
(0.0884357 0 0)
(0.107648 0 0)
(0.125958 0 0)
(0.142273 0 0)
(0.15551 0 0)
(0.164802 0 0)
(0.170061 0 0)
(0.172608 0 0)
(0.169193 0 0)
(0.16276 0 0)
(0.150769 0 0)
(0.132874 0 0)
(0.109561 0 0)
(0.0817126 0 0)
(0.0504657 0 0)
(0.0171391 0 0)
)
;

boundaryField
{
    lowerWall
    {
        type            noSlip;
    }
    upperWall
    {
        type            noSlip;
    }
    front
    {
        type            cyclic;
    }
    back
    {
        type            cyclic;
    }
    defaultFaces
    {
        type            empty;
    }
}


// ************************************************************************* //
