# vtk DataFile Version 2.0
sampleSurface
ASCII
DATASET POLYDATA
POINTS 4 float
-0.5 -0.5 0 0.5 -0.5 0 0.5 0.5 0 -0.5 0.5
0 
POLYGONS 1 5
4 0 1 2 3 
POINT_DATA 4
FIELD attributes 2
p 1 4 float
100003 100003 99997.3 99997.4 
U 3 4 float
4.31546 0 0 4.31471 1.68524e-09 0 4.31471 1.68524e-09 0 4.31546 0
0 
