/*--------------------------------*- C++ -*----------------------------------*\
  =========                 |
  \\      /  F ield         | OpenFOAM: The Open Source CFD Toolbox
   \\    /   O peration     | Website:  https://openfoam.org
    \\  /    A nd           | Version:  12
     \\/     M anipulation  |
\*---------------------------------------------------------------------------*/
FoamFile
{
    format      ascii;
    class       volScalarField;
    location    "0.08";
    object      epsilon;
}
// * * * * * * * * * * * * * * * * * * * * * * * * * * * * * * * * * * * * * //

dimensions      [0 2 -3 0 0 0 0];

internalField   nonuniform List<scalar> 
12225
(
278.515
263.66
249.434
236.84
226.741
219.489
215.08
213.283
213.738
216.04
219.786
224.608
230.19
236.269
242.656
249.188
255.974
265.98
61.1167
86.6982
97.9978
107.22
118.488
132.598
149.48
168.722
189.746
211.931
234.692
257.53
280.055
301.998
323.344
343.994
366.196
386.13
25.2777
36.1837
43.3835
48.6251
53.3937
58.3491
63.7921
69.8598
76.5788
83.9031
91.7452
100.001
108.565
117.352
126.32
135.5
145.178
155.478
17.5217
21.2989
24.7153
27.6117
30.1651
32.5453
34.8751
37.241
39.6968
42.2699
44.9688
47.7911
50.7287
53.7748
56.9303
60.2234
63.7044
67.4551
15.4879
16.752
18.1862
19.5897
20.9109
22.1514
23.3302
24.471
25.595
26.7177
27.8495
28.9966
30.1631
31.3527
32.5702
33.8271
35.1368
36.5075
14.9085
15.2397
15.7465
16.3344
16.9483
17.5601
18.1577
18.7384
19.3043
19.8587
20.4048
20.9458
21.4842
22.0226
22.564
23.1128
23.673
24.2412
14.7451
14.7391
14.8342
15.0037
15.2218
15.4684
15.7294
15.9962
16.264
16.5304
16.7945
17.056
17.3151
17.5726
17.8293
18.0868
18.3462
18.6038
14.7013
14.5825
14.5116
14.4858
14.4982
14.5405
14.6046
14.6843
14.7746
14.8722
14.9745
15.0801
15.1879
15.2973
15.408
15.5203
15.634
15.7465
14.6901
14.5373
14.407
14.3008
14.2182
14.1571
14.1146
14.0877
14.0736
14.0698
14.0744
14.0857
14.1025
14.1239
14.1492
14.1778
14.2095
14.2425
14.6874
14.5252
14.3761
14.2411
14.1204
14.0137
13.9202
13.839
13.7688
13.7084
13.6566
13.6123
13.5747
13.5429
13.5163
13.4943
13.4765
13.4621
14.6868
14.5221
14.3677
14.2236
14.0895
13.9655
13.8511
13.7459
13.6493
13.5609
13.48
13.406
13.3383
13.2765
13.22
13.1685
13.1216
13.0791
14.6866
14.5213
14.3656
14.219
14.0812
13.9518
13.8304
13.7167
13.6103
13.5109
13.4179
13.3311
13.2501
13.1745
13.1039
13.0381
12.9768
12.9201
14.6865
14.521
14.3648
14.2175
14.0785
13.9472
13.8233
13.7064
13.5961
13.492
13.3939
13.3013
13.214
13.1316
13.054
12.9809
12.912
12.8477
14.6864
14.5208
14.3645
14.2169
14.0774
13.9456
13.8209
13.7029
13.5911
13.4853
13.3851
13.2902
13.2003
13.115
13.0343
12.9577
12.8852
12.8172
14.6864
14.5207
14.3643
14.2165
14.0769
13.9449
13.8199
13.7016
13.5894
13.4831
13.3823
13.2867
13.1959
13.1097
13.0278
12.9501
12.8762
12.8068
14.6863
14.5206
14.3641
14.2163
14.0766
13.9444
13.8193
13.7009
13.5886
13.4822
13.3812
13.2853
13.1943
13.1079
13.0257
12.9476
12.8734
12.8035
14.6863
14.5205
14.364
14.2161
14.0763
13.9441
13.8189
13.7004
13.5881
13.4816
13.3805
13.2846
13.1935
13.1069
13.0246
12.9464
12.872
12.8021
14.6863
14.5204
14.3639
14.216
14.0761
13.9439
13.8187
13.7001
13.5877
13.4811
13.38
13.284
13.1929
13.1063
13.0239
12.9456
12.8712
12.8011
14.6863
14.5204
14.3639
14.2159
14.0761
13.9438
13.8186
13.7
13.5876
13.481
13.3799
13.2838
13.1926
13.106
13.0236
12.9453
12.8708
12.8007
14.6863
14.5205
14.3639
14.216
14.0762
13.9439
13.8188
13.7002
13.5878
13.4812
13.3801
13.2842
13.193
13.1064
13.024
12.9457
12.8713
12.8012
14.6863
14.5205
14.364
14.2162
14.0764
13.9443
13.8192
13.7008
13.5886
13.4822
13.3813
13.2856
13.1948
13.1085
13.0265
12.9486
12.8746
12.805
14.6863
14.5206
14.3643
14.2167
14.0774
13.9458
13.8214
13.704
13.5929
13.488
13.3888
13.2949
13.2061
13.1221
13.0426
12.9672
12.896
12.8292
14.6865
14.5212
14.3659
14.2202
14.0837
13.9561
13.8369
13.7256
13.6219
13.5251
13.4349
13.3507
13.2721
13.1987
13.1302
13.066
13.0061
12.9506
14.6876
14.5264
14.3794
14.2467
14.1282
14.0231
13.9302
13.8484
13.7762
13.7126
13.6564
13.6066
13.5626
13.5235
13.4887
13.4577
13.4301
13.406
14.6976
14.5664
14.4707
14.4075
14.3714
14.3567
14.3583
14.3717
14.3938
14.4219
14.4545
14.49
14.5277
14.5669
14.6072
14.6481
14.6895
14.7312
14.7737
14.8186
14.9602
15.159
15.3861
15.623
15.8592
16.0897
16.3125
16.5271
16.7342
16.9345
17.1289
17.3182
17.5031
17.6844
17.8623
18.0366
15.2587
16.1151
17.071
17.9724
18.7872
19.5229
20.1931
20.813
21.3964
21.9541
22.4947
23.0241
23.5467
24.0654
24.5818
25.097
25.6109
26.1213
18.0414
22.0077
24.9882
27.1525
28.887
30.4028
31.8093
33.1739
34.5376
35.9228
37.3407
38.795
40.2848
41.8063
43.3538
44.9209
46.5012
48.0819
34.0238
45.687
51.3752
54.9396
58.0764
61.291
64.7404
68.4682
72.4586
76.6684
81.0474
85.5461
90.1178
94.7211
99.3203
103.887
108.405
112.847
163.308
157.417
151.704
146.261
141.3
136.946
133.249
130.204
127.777
125.914
124.552
123.628
123.082
122.856
122.899
123.165
123.615
124.211
6.00342
2.93203
3.81925
4.51342
5.07285
5.53045
5.90903
6.22653
6.49923
6.74507
6.98819
7.23643
7.49775
7.77882
8.08038
8.39057
8.67794
8.88473
8.95212
9.03375
8.90128
38.386
9.02139
8.85401
8.95626
39.0142
39.2404
42.6597
48.1751
54.18
60.4938
67.0287
73.715
80.4953
87.3233
94.1631
100.988
107.78
114.529
121.231
127.885
134.498
141.078
147.635
154.182
160.731
167.296
173.89
180.527
187.219
193.978
200.816
207.742
214.767
221.899
229.145
236.514
244.01
251.638
259.404
267.31
275.36
283.554
291.895
300.383
309.017
317.797
326.721
335.787
344.991
354.332
363.804
373.404
383.125
392.964
402.913
412.966
423.116
433.355
443.676
454.07
464.528
475.041
485.599
496.192
506.812
517.452
528.105
538.772
549.461
560.195
571.024
581.888
592.682
603.399
614.032
624.568
634.992
645.288
655.44
665.431
675.244
684.862
694.266
703.439
712.36
721.011
729.373
737.424
745.146
752.518
759.518
766.125
772.318
778.077
783.379
788.204
792.531
796.339
799.609
802.323
804.463
806.013
806.959
807.287
806.989
806.056
804.485
802.273
799.423
795.942
791.838
787.127
781.826
775.959
769.553
762.639
755.253
747.434
739.226
730.673
721.825
712.735
703.445
694.032
684.532
674.979
665.509
656.194
647.719
643.002
639.451
635.995
632.586
629.26
626.058
623.019
620.183
617.584
615.253
613.218
611.504
610.129
609.108
608.451
608.161
608.237
608.669
609.439
610.52
611.872
613.438
615.138
616.863
618.45
619.646
619.991
618.468
612.477
593.677
7.6106
5.48221
5.2915
5.30569
5.35258
5.40956
5.47941
5.57102
5.69681
5.87438
6.12098
6.44587
6.8653
7.40362
8.0941
8.9827
10.1527
11.6903
13.6032
15.7853
18.4595
21.5459
23.2776
26.1039
28.6959
32.0388
35.3392
38.3768
41.3476
44.2527
47.1155
49.9412
52.7312
55.4886
58.2184
60.9264
63.6182
66.2994
68.9753
71.6509
74.3308
77.0197
79.7217
82.441
85.1816
87.9472
90.7414
93.5675
96.4287
99.3279
102.268
105.251
108.279
111.355
114.48
117.656
120.883
124.164
127.499
130.887
134.331
137.829
141.383
144.991
148.652
152.368
156.136
159.955
163.824
167.742
171.708
175.718
179.773
183.868
188.003
192.174
196.379
200.615
204.88
209.17
213.483
217.814
222.162
226.522
230.893
235.271
239.656
244.046
248.445
252.858
257.297
261.78
266.311
270.823
275.308
279.758
284.168
288.534
292.85
297.108
301.303
305.429
309.479
313.447
317.325
321.107
324.786
328.354
331.804
335.128
338.32
341.371
344.274
347.02
349.603
352.013
354.244
356.286
358.134
359.78
361.215
362.435
363.432
364.202
364.739
365.039
365.099
364.917
364.493
363.826
362.917
361.772
360.393
358.787
356.963
354.929
352.697
350.279
347.689
344.943
342.057
339.048
335.936
332.734
329.472
326.163
322.79
319.47
316.199
313.121
310.678
308.588
306.624
304.73
302.899
301.136
299.447
297.84
296.323
294.903
293.585
292.371
291.265
290.267
289.374
288.585
287.893
287.29
286.766
286.309
285.9
285.52
285.143
284.74
284.274
283.714
283.015
282.253
281.428
283.216
11.2863
7.56864
6.81216
6.51139
6.35223
6.26788
6.24366
6.28275
6.39942
6.60941
6.92536
7.37208
7.98469
8.81446
9.91428
11.3112
13.0409
15.1016
17.4218
19.8664
22.3442
24.734
26.972
29.1731
31.3334
33.5456
35.782
37.9718
40.1213
42.2477
44.3675
46.4877
48.611
50.7386
52.8716
55.0108
57.157
59.3112
61.4744
63.6479
65.8335
68.0327
70.2476
72.4803
74.7328
77.0074
79.3062
81.6313
83.9847
86.3683
88.7839
91.2331
93.7174
96.2382
98.7966
101.394
104.03
106.707
109.425
112.184
114.985
117.826
120.71
123.634
126.599
129.604
132.649
135.732
138.854
142.011
145.204
148.431
151.691
154.981
158.301
161.648
165.021
168.417
171.835
175.273
178.728
182.199
185.684
189.181
192.689
196.207
199.734
203.272
206.82
210.382
213.958
217.554
221.146
224.72
228.269
231.787
235.272
238.718
242.12
245.474
248.776
252.02
255.201
258.315
261.356
264.319
267.199
269.991
272.689
275.288
277.782
280.167
282.435
284.582
286.602
288.489
290.238
291.843
293.298
294.599
295.739
296.715
297.521
298.154
298.61
298.886
298.979
298.888
298.611
298.15
297.504
296.677
295.671
294.491
293.142
291.632
289.969
288.161
286.22
284.155
281.981
279.708
277.353
274.922
272.439
269.931
267.395
264.867
262.365
259.948
257.74
255.701
253.763
251.897
250.094
248.353
246.675
245.063
243.521
242.05
240.651
239.326
238.073
236.89
235.775
234.723
233.729
232.787
231.888
231.021
230.177
229.342
228.502
227.643
226.756
225.844
224.942
224.22
223.984
225.801
15.6687
9.66888
8.33739
7.80032
7.52576
7.38599
7.34568
7.40206
7.56989
7.85169
8.27833
8.87776
9.68839
10.7513
12.0999
13.7445
15.6648
17.8007
20.0555
22.3198
24.5099
26.5793
28.5307
30.4057
32.2492
34.1003
35.9699
37.8513
39.7433
41.6495
43.5741
45.5186
47.4827
49.4654
51.4653
53.4814
55.513
57.5594
59.6206
61.6968
63.7886
65.8968
68.0227
70.1674
72.3325
74.5195
76.7301
78.9658
81.2284
83.5195
85.8406
88.1932
90.5786
92.9983
95.4534
97.9448
100.474
103.041
105.646
108.291
110.976
113.701
116.465
119.27
122.113
124.996
127.918
130.878
133.874
136.907
139.976
143.077
146.212
149.378
152.573
155.796
159.046
162.32
165.616
168.934
172.27
175.624
178.993
182.376
185.771
189.178
192.594
196.02
199.454
202.896
206.344
209.789
213.22
216.629
220.011
223.362
226.675
229.948
233.175
236.352
239.474
242.538
245.537
248.467
251.324
254.102
256.798
259.405
261.919
264.336
266.65
268.856
270.95
272.926
274.779
276.505
278.098
279.554
280.867
282.034
283.05
283.91
284.611
285.148
285.52
285.722
285.753
285.611
285.296
284.807
284.145
283.313
282.313
281.15
279.828
278.353
276.734
274.978
273.095
271.094
268.99
266.788
264.509
262.172
259.786
257.368
254.925
252.479
250.047
247.661
245.37
243.176
241.063
239.016
237.031
235.107
233.246
231.449
229.716
228.051
226.451
224.917
223.448
222.041
220.692
219.399
218.155
216.954
215.79
214.655
213.54
212.436
211.335
210.231
209.125
208.039
207.032
206.285
206.101
207.364
20.4118
11.8411
9.94618
9.20271
8.84384
8.67945
8.65444
8.75912
8.98148
9.33884
9.85741
10.5673
11.4992
12.6774
14.111
15.7841
17.6519
19.6436
21.6769
23.6768
25.5954
27.4185
29.1626
30.8621
32.5529
34.2616
36.0009
37.7734
39.5786
41.4161
43.2852
45.185
47.1138
49.0698
51.0514
53.0571
55.0857
57.1361
59.2077
61.3001
63.4132
65.5473
67.7029
69.8806
72.0815
74.3066
76.5572
78.8346
81.1403
83.4758
85.8424
88.2419
90.6754
93.1445
95.6505
98.1946
100.778
103.401
106.066
108.772
111.52
114.312
117.146
120.023
122.943
125.906
128.911
131.958
135.046
138.174
141.341
144.546
147.788
151.065
154.375
157.717
161.09
164.49
167.917
171.368
174.841
178.334
181.845
185.372
188.913
192.466
196.028
199.598
203.173
206.752
210.327
213.889
217.431
220.946
224.43
227.876
231.282
234.64
237.948
241.198
244.388
247.511
250.562
253.538
256.432
259.24
261.956
264.577
267.096
269.51
271.813
274
276.067
278.008
279.82
281.497
283.036
284.43
285.677
286.771
287.709
288.486
289.1
289.546
289.823
289.927
289.856
289.609
289.186
288.587
287.813
286.865
285.748
284.464
283.019
281.42
279.673
277.786
275.772
273.633
271.394
269.064
266.658
264.188
261.667
259.109
256.525
253.932
251.344
248.784
246.277
243.836
241.459
239.143
236.889
234.696
232.568
230.504
228.507
226.578
224.715
222.918
221.186
219.516
217.905
216.348
214.841
213.379
211.955
210.562
209.195
207.846
206.51
205.188
203.888
202.641
201.516
200.68
200.379
201.119
25.3099
14.0874
11.654
10.7216
10.2926
10.1146
10.1087
10.2395
10.4983
10.9007
11.4683
12.2238
13.186
14.3643
15.7514
17.3198
19.0225
20.8003
22.5942
24.3585
26.0692
27.7258
29.3453
30.9529
32.5729
34.2229
35.9122
37.6441
39.4188
41.2353
43.0922
44.9881
46.9213
48.8904
50.8936
52.9296
54.9969
57.0943
59.2207
61.3754
63.5577
65.7675
68.0045
70.269
72.5616
74.8828
77.2337
79.6154
82.029
84.476
86.9578
89.4759
92.0319
94.6273
97.2636
99.9421
102.664
105.431
108.244
111.104
114.011
116.967
119.972
123.025
126.128
129.279
132.48
135.728
139.024
142.367
145.755
149.187
152.663
156.18
159.736
163.331
166.961
170.624
174.319
178.043
181.793
185.567
189.362
193.175
197.004
200.845
204.696
208.553
212.413
216.272
220.118
223.945
227.745
231.513
235.244
238.93
242.568
246.15
249.673
253.129
256.514
259.821
263.046
266.182
269.225
272.169
275.008
277.737
280.351
282.845
285.213
287.452
289.556
291.521
293.341
295.013
296.532
297.893
299.093
300.128
300.993
301.686
302.203
302.541
302.698
302.671
302.46
302.063
301.48
300.711
299.758
298.623
297.31
295.824
294.166
292.349
290.378
288.254
286.007
283.637
281.161
278.589
275.936
273.215
270.438
267.621
264.775
261.915
259.056
256.215
253.41
250.653
247.952
245.308
242.726
240.207
237.754
235.37
233.055
230.811
228.638
226.534
224.498
222.528
220.62
218.77
216.974
215.227
213.522
211.855
210.219
208.611
207.028
205.474
203.962
202.528
201.242
200.251
199.739
200.002
30.194
16.4565
13.4474
12.3137
11.8093
11.6118
11.6064
11.7389
12.0062
12.4168
12.9849
13.7243
14.6442
15.7445
17.0117
18.4186
19.9265
21.4927
23.0783
24.6564
26.2153
27.7577
29.2964
30.8477
32.4269
34.0453
35.7093
37.4218
39.1834
40.9938
42.8522
44.7578
46.7093
48.7057
50.7458
52.8281
54.9515
57.1145
59.3159
61.5545
63.8295
66.1401
68.4857
70.8662
73.2817
75.7326
78.2193
80.7428
83.3043
85.9048
88.546
91.2293
93.9563
96.7288
99.5482
102.416
105.335
108.305
111.328
114.405
117.537
120.726
123.971
127.273
130.633
134.05
137.524
141.055
144.641
148.283
151.979
155.727
159.527
163.376
167.272
171.213
175.197
179.221
183.283
187.379
191.506
195.662
199.842
204.044
208.263
212.496
216.738
220.985
225.233
229.476
233.697
237.891
242.052
246.174
250.25
254.273
258.238
262.137
265.964
269.712
273.375
276.947
280.421
283.79
287.05
290.192
293.213
296.105
298.863
301.482
303.956
306.28
308.449
310.459
312.306
313.983
315.489
316.817
317.965
318.929
319.706
320.293
320.686
320.884
320.886
320.688
320.29
319.693
318.895
317.9
316.708
315.32
313.745
311.985
310.043
307.932
305.665
303.246
300.69
298.008
295.212
292.317
289.334
286.278
283.164
280.005
276.815
273.608
270.4
267.204
264.036
260.91
257.833
254.813
251.855
248.962
246.14
243.389
240.713
238.113
235.588
233.138
230.761
228.454
226.215
224.04
221.924
219.861
217.848
215.878
213.948
212.053
210.195
208.379
206.623
204.963
203.464
202.254
201.462
201.265
34.6001
18.6979
15.1762
13.8614
13.2871
13.0621
13.0313
13.1496
13.4035
13.7937
14.3267
15.0095
15.8452
16.8302
17.9514
19.1874
20.5103
21.8916
23.3065
24.7386
26.1813
27.6368
29.1126
30.6186
32.164
33.7559
35.3989
37.0955
38.847
40.6541
42.5168
44.435
46.4083
48.4363
50.518
52.6527
54.839
57.0758
59.3617
61.6955
64.0759
66.5019
68.9727
71.4878
74.047
76.6502
79.2978
81.9906
84.7293
87.5152
90.3498
93.2344
96.1708
99.1609
102.206
105.309
108.47
111.692
114.976
118.324
121.736
125.214
128.759
132.371
136.05
139.797
143.611
147.492
151.44
155.452
159.528
163.667
167.866
172.124
176.437
180.805
185.223
189.689
194.199
198.75
203.339
207.96
212.611
217.286
221.98
226.69
231.409
236.133
240.857
245.561
250.238
254.881
259.483
264.037
268.534
272.968
277.331
281.614
285.811
289.914
293.915
297.806
301.581
305.232
308.752
312.134
315.372
318.458
321.387
324.152
326.748
329.169
331.411
333.469
335.338
337.013
338.492
339.77
340.844
341.71
342.367
342.812
343.042
343.056
342.854
342.435
341.797
340.942
339.871
338.587
337.093
335.387
333.481
331.384
329.099
326.636
324.007
321.22
318.288
315.224
312.04
308.75
305.37
301.913
298.394
294.828
291.23
287.614
283.994
280.386
276.803
273.258
269.762
266.322
262.947
259.64
256.407
253.252
250.176
247.181
244.268
241.435
238.682
236.005
233.402
230.868
228.399
225.99
223.637
221.333
219.076
216.864
214.697
212.585
210.544
208.611
206.847
205.356
204.225
203.565
38.4423
20.7124
16.7442
15.2695
14.6259
14.3499
14.2905
14.3868
14.6155
14.9697
15.45
16.0588
16.7966
17.6594
18.6378
19.717
20.879
22.1055
23.3807
24.6943
26.0413
27.4221
28.8406
30.302
31.8118
33.3746
34.9939
36.6723
38.4118
40.2137
42.0791
44.0089
46.0035
48.0631
50.1874
52.376
54.628
56.9425
59.3181
61.7538
64.2481
66.7999
69.4082
72.0724
74.7918
77.5664
80.3962
83.2818
86.224
89.2238
92.2825
95.4017
98.5831
101.829
105.14
108.519
111.968
115.489
119.083
122.751
126.496
130.318
134.219
138.198
142.257
146.395
150.613
154.908
159.282
163.732
168.257
172.855
177.524
182.262
187.065
191.932
196.858
201.84
206.874
211.956
217.081
222.244
227.44
232.664
237.91
243.172
248.444
253.719
258.986
264.223
269.424
274.583
279.69
284.738
289.716
294.617
299.432
304.151
308.766
313.267
317.646
321.895
326.005
329.967
333.773
337.416
340.888
344.182
347.29
350.206
352.923
355.436
357.74
359.83
361.702
363.352
364.776
365.971
366.933
367.661
368.153
368.407
368.422
368.198
367.734
367.033
366.093
364.917
363.504
361.865
360.002
357.918
355.623
353.123
350.427
347.545
344.487
341.265
337.892
334.381
330.746
327.001
323.162
319.244
315.263
311.235
307.174
303.095
299.014
294.944
290.9
286.895
282.939
279.042
275.212
271.455
267.778
264.182
260.673
257.25
253.915
250.667
247.505
244.426
241.427
238.503
235.65
232.864
230.138
227.469
224.853
222.288
219.778
217.33
214.963
212.711
210.627
208.797
207.275
206.134
41.655
22.4351
18.0876
16.4627
15.7322
15.4119
15.3252
15.3981
15.5983
15.913
16.3385
16.8741
17.5194
18.2718
19.1256
20.0722
21.1007
22.1999
23.36
24.5737
25.8372
27.1492
28.5113
29.926
31.3965
32.9262
34.518
36.1748
37.8991
39.6933
41.5593
43.4989
45.5135
47.604
49.771
52.0145
54.3342
56.7296
59.1998
61.7436
64.3599
67.0476
69.8058
72.6335
75.5302
78.4955
81.5296
84.6327
87.8056
91.0491
94.3646
97.7536
101.218
104.759
108.379
112.08
115.864
119.733
123.688
127.731
131.864
136.088
140.404
144.812
149.312
153.905
158.591
163.367
168.234
173.19
178.232
183.359
188.569
193.857
199.222
204.659
210.164
215.733
221.362
227.045
232.777
238.552
244.364
250.207
256.073
261.956
267.848
273.741
279.604
285.43
291.21
296.936
302.598
308.186
313.689
319.098
324.401
329.589
334.651
339.578
344.358
348.982
353.441
357.725
361.825
365.731
369.437
372.933
376.211
379.263
382.083
384.665
387.004
389.096
390.936
392.52
393.846
394.911
395.711
396.245
396.514
396.517
396.255
395.725
394.932
393.879
392.567
391.001
389.183
387.122
384.821
382.289
379.533
376.562
373.386
370.016
366.464
362.742
358.865
354.845
350.699
346.442
342.089
337.658
333.164
328.623
324.052
319.465
314.878
310.306
305.762
301.259
296.81
292.423
288.107
283.87
279.717
275.653
271.68
267.8
264.015
260.323
256.724
253.213
249.789
246.446
243.18
239.985
236.857
233.791
230.783
227.833
224.942
222.12
219.385
216.767
214.312
212.091
210.13
208.485
44.2022
23.8334
19.1515
17.3773
16.5772
16.2205
16.1106
16.1626
16.3375
16.6178
16.9963
17.4707
18.0401
18.7033
19.4577
20.2989
21.2213
22.2183
23.2839
24.413
25.6024
26.8506
28.1575
29.5244
30.9537
32.4478
34.01
35.6434
37.3512
39.1366
41.0027
42.9522
44.9873
47.1101
49.3218
51.6234
54.0153
56.4974
59.0694
61.7307
64.4803
67.3175
70.2414
73.2512
76.3463
79.5266
82.7919
86.1424
89.5789
93.1022
96.7134
100.414
104.206
108.09
112.069
116.145
120.319
124.593
128.969
133.449
138.034
142.724
147.522
152.426
157.437
162.556
167.78
173.11
178.543
184.076
189.709
195.438
201.26
207.172
213.169
219.247
225.402
231.629
237.921
244.273
250.679
257.132
263.624
270.149
276.697
283.261
289.832
296.379
302.883
309.338
315.735
322.063
328.312
334.468
340.52
346.455
352.263
357.931
363.448
368.803
373.984
378.98
383.78
388.374
392.751
396.902
400.818
404.489
407.907
411.061
413.945
416.553
418.882
420.925
422.679
424.142
425.31
426.182
426.754
427.027
427.002
426.682
426.067
425.16
423.966
422.487
420.73
418.698
416.399
413.84
411.029
407.973
404.684
401.171
397.446
393.521
389.409
385.125
380.682
376.097
371.385
366.562
361.646
356.654
351.602
346.506
341.384
336.252
331.124
326.015
320.94
315.91
310.939
306.035
301.209
296.466
291.814
287.256
282.797
278.437
274.177
270.018
265.956
261.99
258.115
254.327
250.622
246.992
243.433
239.941
236.511
233.143
229.838
226.606
223.462
220.434
217.561
214.9
212.46
210.282
46.0878
24.8499
19.9005
18.0172
17.1644
16.7793
16.6511
16.6873
16.8438
17.0994
17.4445
17.8752
18.3904
18.9895
19.672
20.4362
21.2795
22.1984
23.1896
24.2496
25.3761
26.5677
27.8241
29.1463
30.5364
31.9969
33.5313
35.1435
36.8375
38.6174
40.4874
42.4512
44.5123
46.6736
48.9375
51.3059
53.7801
56.361
59.0488
61.8436
64.7452
67.7531
70.8668
74.0859
77.41
80.8388
84.3723
88.0109
91.7551
95.6055
99.5633
103.63
107.806
112.094
116.496
121.012
125.645
130.396
135.266
140.257
145.37
150.605
155.962
161.443
167.046
172.77
178.615
184.578
190.657
196.85
203.152
209.56
216.071
222.68
229.383
236.174
243.049
249.999
257.02
264.105
271.245
278.434
285.662
292.922
300.203
307.497
314.771
321.995
329.164
336.268
343.296
350.237
357.078
363.804
370.4
376.854
383.152
389.283
395.234
400.992
406.544
411.878
416.983
421.846
426.456
430.803
434.878
438.671
442.174
445.369
448.254
450.822
453.071
454.994
456.589
457.854
458.786
459.385
459.649
459.581
459.183
458.458
457.41
456.044
454.364
452.379
450.093
447.515
444.654
441.519
438.119
434.465
430.569
426.444
422.101
417.556
412.823
407.916
402.853
397.649
392.322
386.889
381.367
375.774
370.126
364.443
358.739
353.031
347.335
341.665
336.034
330.457
324.944
319.505
314.15
308.885
303.716
298.649
293.686
288.828
284.077
279.432
274.89
270.449
266.104
261.85
257.682
253.595
249.582
245.638
241.759
237.944
234.195
230.519
226.93
223.453
220.12
216.977
214.02
211.284
47.2425
25.4873
20.3699
18.4122
17.5214
17.1154
16.9748
17.0017
17.1487
17.3919
17.7196
18.1267
18.6114
19.1731
19.8121
20.528
21.3199
22.1864
23.1255
24.1355
25.2149
26.363
27.5801
28.8674
30.2273
31.6631
33.1789
34.7794
36.4696
38.2549
40.1405
42.1315
44.2326
46.4481
48.7815
51.2357
53.8134
56.5163
59.346
62.3033
65.3888
68.6028
71.9453
75.4162
79.0156
82.7435
86.5999
90.5851
94.6996
98.9439
103.319
107.825
112.464
117.237
122.145
127.189
132.37
137.688
143.146
148.742
154.478
160.353
166.368
172.52
178.81
185.234
191.793
198.482
205.299
212.237
219.294
226.464
233.743
241.126
248.607
256.18
263.839
271.575
279.383
287.253
295.177
303.147
311.153
319.186
327.235
335.26
343.228
351.13
358.956
366.695
374.334
381.862
389.268
396.53
403.628
410.552
417.29
423.827
430.15
436.246
442.1
447.701
453.034
458.087
462.849
467.309
471.455
475.278
478.768
481.914
484.709
487.147
489.223
490.934
492.277
493.249
493.851
494.082
493.944
493.44
492.574
491.351
489.776
487.858
485.603
483.02
480.119
476.91
473.403
469.611
465.545
461.219
456.646
451.841
446.818
441.593
436.182
430.602
424.87
419.004
413.022
406.942
400.781
394.557
388.289
381.994
375.687
369.386
363.106
356.861
350.664
344.528
338.463
332.481
326.589
320.793
315.101
309.516
304.041
298.677
293.425
288.283
283.25
278.321
273.492
268.757
264.112
259.549
255.063
250.647
246.298
242.013
237.793
233.644
229.58
225.619
221.791
218.131
214.627
211.311
47.8483
25.8332
20.6158
18.6097
17.6933
17.2742
17.1282
17.1544
17.303
17.5482
17.8768
18.2822
18.7615
19.3138
19.9392
20.6376
21.4089
22.2525
23.1678
24.1538
25.2103
26.3375
27.5365
28.8095
30.1597
31.5915
33.1098
34.7205
36.4298
38.2445
40.1714
42.2171
44.388
46.6898
49.1272
51.7045
54.4257
57.2942
60.3127
63.4835
66.808
70.2875
73.9228
77.7145
81.663
85.7684
90.0311
94.4512
99.029
103.765
108.658
113.711
118.922
124.292
129.821
135.51
141.357
147.364
153.529
159.852
166.332
172.967
179.755
186.695
193.783
201.018
208.396
215.916
223.571
231.349
239.248
247.263
255.387
263.615
271.94
280.354
288.85
297.419
306.053
314.744
323.481
332.255
341.053
349.871
358.646
367.351
375.976
384.509
392.938
401.25
409.431
417.467
425.343
433.041
440.546
447.842
454.915
461.751
468.336
474.655
480.694
486.441
491.881
497.003
501.792
506.239
510.331
514.06
517.413
520.384
522.963
525.145
526.926
528.303
529.272
529.833
529.986
529.734
529.08
528.028
526.584
524.755
522.551
519.979
517.05
513.777
510.17
506.242
502.008
497.481
492.675
487.608
482.293
476.748
470.99
465.035
458.902
452.609
446.173
439.614
432.95
426.2
419.382
412.514
405.613
398.698
391.783
384.886
378.02
371.2
364.438
357.746
351.134
344.612
338.187
331.866
325.653
319.554
313.569
307.7
301.946
296.307
290.779
285.358
280.039
274.818
269.686
264.637
259.666
254.764
249.928
245.155
240.444
235.802
231.237
226.768
222.416
218.213
214.14
210.226
48.0649
25.9641
20.6973
18.6654
17.7369
17.3157
17.1755
17.2139
17.3797
17.6457
17.9974
18.4268
18.9299
19.5051
20.1516
20.8691
21.6575
22.5168
23.4466
24.4472
25.5189
26.6633
27.8824
29.1797
30.5597
32.0282
33.5913
35.2557
37.0294
38.9211
40.9394
43.0932
45.391
47.8416
50.4495
53.2193
56.1579
59.2707
62.5621
66.0358
69.6947
73.541
77.5764
81.8021
86.219
90.8273
95.6272
100.619
105.801
111.174
116.737
122.488
128.427
134.553
140.863
147.357
154.031
160.885
167.915
175.118
182.491
190.031
197.733
205.595
213.61
221.775
230.084
238.532
247.111
255.813
264.631
273.559
282.589
291.712
300.922
310.209
319.565
328.98
338.447
347.955
357.492
367.055
376.609
386.087
395.479
404.772
413.952
423.004
431.915
440.669
449.254
457.652
465.85
473.832
481.58
489.08
496.318
503.279
509.949
516.313
522.358
528.071
533.438
538.446
543.084
547.34
551.202
554.661
557.708
560.333
562.531
564.295
565.621
566.507
566.951
566.953
566.516
565.643
564.339
562.61
560.465
557.913
554.965
551.633
547.929
543.868
539.465
534.735
529.695
524.361
518.751
512.883
506.774
500.443
493.909
487.19
480.307
473.277
466.121
458.857
451.504
444.081
436.607
429.098
421.574
414.049
406.54
399.062
391.628
384.251
376.944
369.716
362.577
355.535
348.596
341.768
335.053
328.455
321.975
315.615
309.372
303.244
297.23
291.323
285.519
279.811
274.193
268.657
263.196
257.803
252.472
247.201
241.988
236.837
231.756
226.759
221.866
217.103
212.446
207.927
47.9989
25.9423
20.6724
18.641
17.7211
17.3176
17.2043
17.2784
17.4881
17.8051
18.2136
18.7048
19.2734
19.9169
20.6337
21.4231
22.2846
23.2182
24.2241
25.3029
26.4563
27.6865
28.9972
30.3926
31.8791
33.466
35.1609
36.9672
38.8971
40.9622
43.1739
45.5431
48.0805
50.7962
53.6989
56.7965
60.0972
63.6078
67.3345
71.2825
75.4559
79.8578
84.4908
89.3561
94.4546
99.7861
105.35
111.145
117.169
123.421
129.895
136.591
143.503
150.627
157.96
165.495
173.228
181.153
189.265
197.557
206.022
214.655
223.448
232.395
241.487
250.718
260.08
269.564
279.164
288.868
298.669
308.558
318.527
328.565
338.665
348.816
359.01
369.239
379.489
389.761
400.021
410.207
420.288
430.252
440.085
449.774
459.303
468.659
477.826
486.79
495.536
504.051
512.318
520.324
528.053
535.492
542.625
549.44
555.924
562.062
567.842
573.251
578.277
582.909
587.134
590.941
594.322
597.265
599.763
601.808
603.394
604.516
605.171
605.357
605.074
604.323
603.109
601.436
599.312
596.744
593.744
590.323
586.494
582.273
577.674
572.716
567.415
561.79
555.86
549.644
543.163
536.436
529.484
522.326
514.984
507.476
499.825
492.048
484.167
476.2
468.166
460.084
451.971
443.845
435.721
427.616
419.542
411.515
403.547
395.648
387.829
380.1
372.467
364.939
357.52
350.215
343.027
335.958
329.009
322.179
315.467
308.871
302.385
296.007
289.729
283.544
277.447
271.428
265.48
259.596
253.771
247.998
242.278
236.613
231.008
225.477
220.034
214.703
209.46
204.337
47.7447
25.8293
20.609
18.6186
17.745
17.3978
17.3525
17.5065
17.8077
18.2274
18.7492
19.3634
20.0647
20.8497
21.7167
22.6647
23.6932
24.8024
25.993
27.2665
28.6253
30.0728
31.6168
33.2555
34.9962
36.8506
38.8302
40.9457
43.2104
45.6378
48.2419
51.0362
54.0342
57.2482
60.6899
64.3699
68.2981
72.4829
76.9318
81.6507
86.6443
91.9157
97.4667
103.298
109.408
115.796
122.458
129.389
136.584
144.038
151.742
159.69
167.872
176.28
184.904
193.735
202.763
211.977
221.367
230.923
240.634
250.49
260.481
270.596
280.826
291.161
301.59
312.104
322.695
333.35
344.062
354.822
365.619
376.444
387.29
398.145
408.998
419.86
430.68
441.392
451.971
462.408
472.689
482.8
492.726
502.455
511.971
521.261
530.312
539.109
547.641
555.892
563.851
571.504
578.839
585.842
592.502
598.806
604.743
610.301
615.469
620.235
624.59
628.521
632.019
635.074
637.678
639.822
641.498
642.7
643.424
643.665
643.421
642.691
641.478
639.783
637.613
634.973
631.873
628.323
624.337
619.927
615.111
609.905
604.328
598.399
592.139
585.568
578.709
571.583
564.212
556.618
548.824
540.85
532.719
524.451
516.067
507.587
499.03
490.416
481.762
473.086
464.404
455.731
447.083
438.473
429.913
421.415
412.99
404.646
396.392
388.235
380.182
372.237
364.404
356.687
349.087
341.605
334.24
326.993
319.859
312.837
305.921
299.107
292.387
285.756
279.205
272.726
266.312
259.955
253.648
247.387
241.17
234.998
228.875
222.814
216.826
210.934
205.113
199.402
47.3971
25.698
20.5894
18.697
17.9283
17.6995
17.7887
18.0942
18.564
19.1698
19.8955
20.732
21.6745
22.7201
23.8678
25.1171
26.4684
27.9226
29.4815
31.1479
32.9274
34.8119
36.807
38.9219
41.1673
43.556
46.1019
48.8196
51.7248
54.8338
58.1627
61.7277
65.5441
69.6263
73.9875
78.6394
83.5922
88.8545
94.4329
100.332
106.555
113.101
119.97
127.159
134.661
142.471
150.579
158.975
167.649
176.587
185.777
195.205
204.855
214.713
224.764
234.993
245.384
255.922
266.593
277.384
288.279
299.266
310.333
321.467
332.657
343.893
355.164
366.46
377.774
389.095
400.413
411.724
423.019
434.283
445.525
456.73
467.842
478.792
489.579
500.194
510.622
520.851
530.869
540.664
550.223
559.533
568.583
577.36
585.853
594.049
601.939
609.509
616.75
623.651
630.2
636.389
642.205
647.641
652.685
657.328
661.561
665.375
668.759
671.705
674.205
676.25
677.832
678.945
679.582
679.738
679.409
678.593
677.289
675.496
673.218
670.459