/*--------------------------------*- C++ -*----------------------------------*\
  =========                 |
  \\      /  F ield         | OpenFOAM: The Open Source CFD Toolbox
   \\    /   O peration     | Website:  https://openfoam.org
    \\  /    A nd           | Version:  12
     \\/     M anipulation  |
\*---------------------------------------------------------------------------*/
FoamFile
{
    format      ascii;
    class       volScalarField;
    location    "0.08";
    object      k;
}
// * * * * * * * * * * * * * * * * * * * * * * * * * * * * * * * * * * * * * //

dimensions      [0 2 -2 0 0 0 0];

internalField   nonuniform List<scalar> 
12225
(
0.353921
0.335043
0.316967
0.300962
0.288129
0.278914
0.273311
0.271027
0.271605
0.27453
0.27929
0.285418
0.29251
0.300235
0.30835
0.316649
0.325269
0.337976
0.436865
0.448982
0.438092
0.433076
0.438818
0.453642
0.474893
0.500124
0.52735
0.55509
0.582318
0.608382
0.632918
0.655774
0.677142
0.696932
0.718097
0.73399
0.395186
0.410872
0.41063
0.405747
0.402015
0.400935
0.402635
0.406844
0.41314
0.421068
0.430198
0.440155
0.450636
0.461414
0.472385
0.483477
0.495198
0.50678
0.379641
0.384839
0.386545
0.38573
0.383906
0.382029
0.380572
0.379748
0.379622
0.380174
0.381343
0.38305
0.385218
0.38778
0.3907
0.393968
0.397661
0.401692
0.374976
0.3759
0.376239
0.37572
0.374569
0.373083
0.371495
0.369967
0.368595
0.367431
0.366494
0.365786
0.365299
0.365021
0.364946
0.365076
0.36542
0.365954
0.373488
0.372554
0.371759
0.370806
0.36963
0.368273
0.366807
0.365297
0.3638
0.362355
0.360987
0.359713
0.358539
0.357471
0.356511
0.355663
0.354929
0.354308
0.373012
0.371296
0.369812
0.368415
0.367024
0.365608
0.364165
0.362707
0.361252
0.359817
0.358418
0.357064
0.355765
0.354525
0.35335
0.352243
0.351209
0.350254
0.372865
0.370838
0.369004
0.36731
0.36571
0.364172
0.362676
0.361211
0.359777
0.358373
0.357005
0.355676
0.354389
0.353146
0.351952
0.350809
0.349721
0.348698
0.37282
0.37068
0.368691
0.366836
0.365094
0.363446
0.361877
0.360371
0.358922
0.357523
0.356173
0.354868
0.353608
0.352393
0.351224
0.350101
0.349027
0.348013
0.372806
0.370628
0.368577
0.366647
0.364827
0.363108
0.361479
0.35993
0.358452
0.357038
0.355684
0.354386
0.35314
0.351943
0.350796
0.349696
0.348644
0.347651
0.372801
0.370609
0.368536
0.366575
0.364719
0.362962
0.361296
0.359715
0.358211
0.356779
0.355413
0.354109
0.352863
0.351672
0.350534
0.349446
0.348407
0.347429
0.372799
0.370603
0.368522
0.366549
0.364679
0.362906
0.361223
0.359624
0.358104
0.356659
0.355282
0.35397
0.35272
0.351527
0.350389
0.349304
0.348269
0.347295
0.372797
0.370599
0.368514
0.366536
0.36466
0.362879
0.361187
0.359579
0.35805
0.356596
0.355211
0.353893
0.352637
0.35144
0.3503
0.349213
0.348178
0.347204
0.372796
0.370596
0.368509
0.366528
0.364649
0.362863
0.361166
0.359554
0.358019
0.35656
0.35517
0.353847
0.352587
0.351387
0.350243
0.349153
0.348115
0.347139
0.372795
0.370594
0.368505
0.366523
0.364641
0.362853
0.361154
0.359538
0.358001
0.356539
0.355146
0.35382
0.352557
0.351354
0.350207
0.349114
0.348074
0.347094
0.372795
0.370592
0.368502
0.366518
0.364635
0.362845
0.361144
0.359527
0.357989
0.356524
0.35513
0.353803
0.352538
0.351333
0.350184
0.349089
0.348046
0.347064
0.372794
0.37059
0.368499
0.366515
0.36463
0.362839
0.361137
0.359519
0.357979
0.356514
0.355119
0.35379
0.352524
0.351317
0.350167
0.34907
0.348025
0.347042
0.372794
0.37059
0.368498
0.366512
0.364627
0.362836
0.361133
0.359514
0.357973
0.356507
0.355111
0.353781
0.352514
0.351306
0.350155
0.349057
0.348011
0.347026
0.372793
0.370589
0.368497
0.366512
0.364626
0.362834
0.361131
0.359512
0.357971
0.356504
0.355108
0.353777
0.35251
0.351301
0.350149
0.34905
0.348003
0.347017
0.372794
0.37059
0.368498
0.366513
0.364628
0.362837
0.361134
0.359515
0.357975
0.356508
0.355112
0.353782
0.352515
0.351306
0.350154
0.349056
0.348009
0.347023
0.372794
0.370591
0.3685
0.366516
0.364632
0.362842
0.361141
0.359523
0.357984
0.356519
0.355125
0.353796
0.352531
0.351324
0.350173
0.349076
0.34803
0.347045
0.372795
0.370593
0.368504
0.366522
0.364642
0.362856
0.36116
0.359547
0.358014
0.356555
0.355166
0.353843
0.352582
0.351381
0.350235
0.349141
0.348098
0.347117
0.372796
0.370598
0.368518
0.366548
0.364682
0.362913
0.361236
0.359643
0.358129
0.356688
0.355314
0.354005
0.352755
0.351562
0.350421
0.349331
0.348289
0.347306
0.372804
0.370631
0.368592
0.366677
0.364873
0.363167
0.361549
0.360007
0.358534
0.357123
0.35577
0.354471
0.353223
0.352025
0.350874
0.349768
0.348708
0.347705
0.372855
0.370818
0.368973
0.367264
0.365646
0.364086
0.362568
0.361084
0.359633
0.358216
0.356836
0.355496
0.3542
0.352951
0.351749
0.350595
0.349492
0.348451
0.373166
0.37177
0.370579
0.369371
0.36805
0.366606
0.365073
0.363494
0.361907
0.360344
0.358828
0.357374
0.355993
0.354691
0.35347
0.352331
0.351273
0.350304
0.374797
0.375829
0.376175
0.375401
0.373834
0.371876
0.369792
0.367739
0.365813
0.364065
0.362522
0.361191
0.360071
0.35915
0.358416
0.357853
0.357445
0.357175
0.382729
0.391671
0.392377
0.388807
0.384385
0.380403
0.377245
0.374993
0.373613
0.373027
0.373136
0.373844
0.375055
0.376681
0.378642
0.38087
0.383304
0.385876
0.407499
0.414512
0.405421
0.395988
0.390547
0.389277
0.391432
0.39618
0.402787
0.410659
0.419348
0.428512
0.437898
0.447318
0.456637
0.465761
0.474644
0.4832
0.360554
0.347547
0.334933
0.322917
0.311964
0.302352
0.294188
0.287467
0.282109
0.277994
0.274987
0.272948
0.271741
0.271242
0.271337
0.271925
0.272918
0.274235
0.020579
0.0460739
0.0600324
0.0709244
0.0796803
0.0868252
0.0927232
0.0976611
0.1019
0.105727
0.109527
0.113412
0.117508
0.121918
0.126652
0.131525
0.136058
0.139435
0.141013
0.142269
0.14088
0.138859
0.142768
0.140061
0.14159
0.142285
0.142663
0.151556
0.164208
0.177445
0.190836
0.204201
0.217423
0.230417
0.243129
0.255525
0.267589
0.279319
0.290724
0.301821
0.312631
0.323183
0.333503
0.343621
0.353568
0.363372
0.373059
0.382656
0.392186
0.401671
0.41113
0.42058
0.430038
0.439515
0.449025
0.458577
0.468179
0.477837
0.487558
0.497345
0.507201
0.517128
0.527125
0.537194
0.547332
0.557539
0.567809
0.578142
0.588532
0.598975
0.609465
0.619998
0.630567
0.641165
0.651787
0.662424
0.67307
0.683717
0.694356
0.70498
0.71558
0.726147
0.736672
0.747147
0.757563
0.767912
0.778188
0.788386
0.798507
0.808558
0.818562
0.828564
0.838538
0.848361
0.85803
0.86754
0.876884
0.88605
0.895028
0.903806
0.912371
0.920713
0.928818
0.936674
0.944269
0.95159
0.958624
0.965357
0.971776
0.977868
0.983619
0.989015
0.994042
0.998685
1.00293
1.00676
1.01017
1.01314
1.01565
1.01769
1.01926
1.02033
1.0209
1.02095
1.02048
1.01947
1.01793
1.01585
1.01322
1.01006
1.00635
1.00211
0.997346
0.992072
0.986302
0.980057
0.973359
0.966235
0.958712
0.950826
0.94261
0.934102
0.925347
0.916379
0.907258
0.898021
0.888689
0.87939
0.870193
0.86178
0.856785
0.852703
0.848676
0.844671
0.84072
0.836861
0.83313
0.829562
0.826188
0.823038
0.820137
0.817507
0.815168
0.813132
0.811409
0.810004
0.808915
0.808134
0.807646
0.807429
0.807446
0.807651
0.807976
0.808327
0.808567
0.808481
0.807679
0.805287
0.799048
0.781749
0.0261521
0.057838
0.0773451
0.0911737
0.101628
0.109842
0.116536
0.122246
0.12743
0.132539
0.137742
0.143269
0.149356
0.156225
0.164034
0.172837
0.182651
0.19326
0.20446
0.216462
0.229107
0.241621
0.254962
0.268769
0.282523
0.296802
0.315011
0.333834
0.353043
0.372563
0.392518
0.412813
0.433309
0.453879
0.474413
0.494817
0.515019
0.534961
0.554608
0.573939
0.592949
0.611647
0.630051
0.648187
0.666086
0.683784
0.701315
0.718716
0.736022
0.753268
0.770484
0.787702
0.804948
0.822246
0.839619
0.857086
0.874664
0.892368
0.910211
0.928202
0.946351
0.964662
0.983142
1.00179
1.02061
1.03961
1.05877
1.0781
1.0976
1.11725
1.13705
1.15701
1.1771
1.19731
1.21765
1.2381
1.25866
1.2793
1.30002
1.3208
1.34165
1.36253
1.38345
1.40438
1.42532
1.44624
1.46715
1.48802
1.50884
1.52959
1.55025
1.57077
1.591
1.61105
1.63094
1.65065
1.67017
1.68948
1.70857
1.72741
1.74599
1.76428
1.78226
1.79992
1.81724
1.83419
1.85075
1.8669
1.88261
1.89786
1.91263
1.92689
1.94062
1.95379
1.96636
1.97832
1.98963
2.00026
2.01018
2.01937
2.02779
2.03542
2.04222
2.04816
2.05322
2.05737
2.06059
2.06286
2.06416
2.06447
2.06379
2.06212
2.05944
2.05578
2.05113
2.04552
2.03898
2.03153
2.02322
2.01409
2.00419
1.99357
1.98231
1.97045
1.95811
1.94534
1.93211
1.91876
1.90526
1.89181
1.87887
1.86618
1.85359
1.8411
1.82874
1.81658
1.80464
1.79298
1.78162
1.77059
1.75991
1.7496
1.73965
1.73007
1.72083
1.71193
1.70332
1.69497
1.68682
1.67882
1.67087
1.6629
1.65478
1.64639
1.63759
1.62821
1.61804
1.60721
1.59482
1.5803
0.0388275
0.0759517
0.0986609
0.114557
0.126513
0.135955
0.143775
0.150641
0.157144
0.163666
0.170413
0.177767
0.186135
0.195968
0.207581
0.220989
0.236216
0.253052
0.271059
0.28964
0.308253
0.326507
0.344527
0.362652
0.381482
0.4016
0.423328
0.44634
0.470307
0.495029
0.52037
0.546153
0.572187
0.598297
0.624333
0.650174
0.675733
0.700948
0.725784
0.750227
0.774282
0.797966
0.821307
0.844342
0.867109
0.889651
0.91201
0.93423
0.95635
0.97841
1.00045
1.02249
1.04458
1.06673
1.08898
1.11135
1.13385
1.1565
1.17932
1.20232
1.22551
1.24889
1.27246
1.29624
1.32022
1.34441
1.36879
1.39336
1.41812
1.44306
1.46818
1.49346
1.5189
1.54447
1.57018
1.596
1.62193
1.64795
1.67404
1.7002
1.7264
1.75262
1.77887
1.80511
1.83133
1.85752
1.88366
1.90974
1.93574
1.96166
1.98748
2.01305
2.03841
2.06356
2.08848
2.11316
2.13758
2.16171
2.18553
2.20902
2.23216
2.25491
2.27726
2.29919
2.32065
2.34165
2.36213
2.38209
2.40149
2.4203
2.4385
2.45606
2.47295
2.48913
2.50459
2.51928
2.53317
2.54623
2.55842
2.56972
2.58008
2.58947
2.59786
2.60521
2.61149
2.61667
2.62073
2.62363
2.62536
2.62589
2.62522
2.62333
2.62023
2.61592
2.6104
2.60371
2.59586
2.58689
2.57685
2.56577
2.55374
2.54079
2.52703
2.51249
2.4973
2.48162
2.46544
2.44894
2.43217
2.41529
2.39853
2.38189
2.36532
2.34883
2.33248
2.31632
2.30038
2.28471
2.26935
2.25433
2.23967
2.22537
2.21145
2.1979
2.1847
2.17182
2.15924
2.1469
2.13474
2.1227
2.11069
2.09862
2.08638
2.07388
2.06099
2.04766
2.0339
2.02024
2.00693
1.99622
0.0539669
0.096809
0.122705
0.14061
0.154053
0.164733
0.173689
0.1817
0.189444
0.197106
0.205243
0.214251
0.224613
0.236752
0.250955
0.26728
0.285547
0.305337
0.326075
0.347185
0.368262
0.389206
0.410243
0.431813
0.454408
0.478376
0.503812
0.530558
0.558353
0.586946
0.616114
0.645648
0.675357
0.705075
0.734669
0.764034
0.793098
0.821812
0.850152
0.878111
0.905697
0.932931
0.959839
0.986458
1.01282
1.03898
1.06496
1.09082
1.11659
1.14231
1.16801
1.19374
1.21952
1.24539
1.27136
1.29747
1.32374
1.35018
1.3768
1.40363
1.43067
1.45793
1.48542
1.51313
1.54107
1.56923
1.59762
1.62623
1.65505
1.68408
1.7133
1.7427
1.77227
1.802
1.83187
1.86187
1.89198
1.92218
1.95247
1.98281
2.01319
2.04359
2.074
2.10439
2.13475
2.16506
2.19529
2.22544
2.25548
2.2854
2.31516
2.34464
2.37387
2.40283
2.43151
2.45987
2.4879
2.51556
2.54284
2.5697
2.59611
2.62206
2.6475
2.67242
2.69678
2.72056
2.74373
2.76627
2.78813
2.8093
2.82974
2.84943
2.86833
2.88642
2.90365
2.92
2.93544
2.94993
2.96343
2.97591
2.98734
2.99767
3.00688
3.01493
3.02179
3.02741
3.03178
3.03487
3.03664
3.03709
3.03619
3.03394
3.03033
3.02537
3.01906
3.01142
3.00249
2.99228
2.98087
2.96827
2.95458
2.93983
2.92415
2.90764
2.89039
2.87249
2.85401
2.83508
2.81579
2.79627
2.77667
2.75705
2.73745
2.7179
2.69844
2.67912
2.66001
2.64113
2.62254
2.60425
2.5863
2.5687
2.55144
2.53453
2.51795
2.50167
2.48565
2.46986
2.45423
2.43869
2.42317
2.40759
2.39186
2.37591
2.35968
2.34324
2.32678
2.31106
2.29689
2.28657
0.0703741
0.11938
0.148364
0.168221
0.183163
0.195144
0.205283
0.214469
0.223034
0.231578
0.240657
0.25078
0.262405
0.275892
0.29144
0.309031
0.328422
0.3492
0.370895
0.393115
0.415659
0.438562
0.462061
0.486485
0.512129
0.53915
0.567532
0.597117
0.627673
0.658962
0.690763
0.72288
0.755144
0.787417
0.819587
0.851568
0.883299
0.914741
0.945872
0.976684
1.00718
1.03738
1.0673
1.09698
1.12643
1.15571
1.18484
1.21387
1.24282
1.27175
1.30067
1.32964
1.35868
1.38781
1.41708
1.4465
1.4761
1.50589
1.53589
1.56613
1.5966
1.62732
1.65829
1.68952
1.72101
1.75276
1.78476
1.817
1.84949
1.88221
1.91515
1.94829
1.98163
2.01514
2.04882
2.08264
2.11658
2.15062
2.18475
2.21893
2.25316
2.28741
2.32165
2.35586
2.39003
2.42412
2.45812
2.49199
2.52573
2.5593
2.59261
2.62562
2.65832
2.69068
2.7227
2.75432
2.78554
2.81631
2.8466
2.87639
2.90564
2.93432
2.9624
2.98985
3.01664
3.04274
3.06812
3.09275
3.1166
3.13964
3.16183
3.18316
3.20359
3.22308
3.24161
3.25915
3.27566
3.29111
3.30547
3.31871
3.33078
3.34165
3.3513
3.35968
3.36677
3.37253
3.37693
3.37995
3.38155
3.38173
3.38046
3.37772
3.37353
3.36787
3.36076
3.35222
3.34226
3.33093
3.31827
3.30431
3.28916
3.27291
3.25563
3.23741
3.21834
3.19851
3.17801
3.15696
3.13544
3.11358
3.0915
3.06929
3.04701
3.0247
3.00243
2.98026
2.95823
2.93638
2.91478
2.89343
2.87238
2.85162
2.83118
2.81103
2.79118
2.77158
2.75222
2.73304
2.714
2.69502
2.67606
2.65703
2.63788
2.61857
2.59912
2.57968
2.56059
2.54273
2.52701
2.5153
0.0873413
0.142419
0.174267
0.196096
0.212595
0.225866
0.237169
0.247178
0.256448
0.265638
0.275327
0.286032
0.298186
0.312104
0.327948
0.345692
0.365145
0.386009
0.407976
0.430816
0.454442
0.478908
0.504372
0.531009
0.558943
0.5882
0.618697
0.650276
0.682735
0.71587
0.749491
0.783434
0.817557
0.851744
0.885902
0.919958
0.95386
0.987569
1.02106
1.05433
1.08736
1.12017
1.15278
1.18519
1.21744
1.24955
1.28156
1.31349
1.34538
1.37727
1.40919
1.44117
1.47325
1.50545
1.5378
1.57033
1.60307
1.63603
1.66923
1.70269
1.73643
1.77044
1.80475
1.83934
1.87423
1.90941
1.94489
1.98064
2.01667
2.05296
2.0895
2.12628
2.16328
2.20048
2.23786
2.2754
2.31309
2.35088
2.38877
2.42673
2.46473
2.50274
2.54074
2.5787
2.61659
2.65439
2.69206
2.72957
2.7669
2.80402
2.84079
2.8772
2.91323
2.94887
2.98408
3.01882
3.05306
3.08677
3.11991
3.15244
3.18434
3.21555
3.24606
3.27582
3.3048
3.33298
3.36031
3.38677
3.41233
3.43695
3.4606
3.48326
3.5049
3.52549
3.54499
3.56339
3.58064
3.59672
3.61161
3.62526
3.63764
3.64874
3.65851
3.66692
3.67395
3.67957
3.68374
3.68644
3.68766
3.68736
3.68553
3.68217
3.67726
3.67081
3.66282
3.65331
3.64232
3.62983
3.61597
3.60077
3.5843
3.56663
3.54784
3.52802
3.50726
3.48564
3.46327
3.44023
3.41664
3.3926
3.36822
3.3436
3.31881
3.29392
3.26898
3.24407
3.21923
3.19452
3.16997
3.14563
3.12151
3.09764
3.07401
3.05063
3.02748
3.00454
2.98179
2.95917
2.93664
2.91416
2.89165
2.86909
2.84643
2.82367
2.8009
2.77832
2.75638
2.73596
2.71793
2.70363
0.104239
0.163904
0.198736
0.222749
0.240988
0.255696
0.268076
0.278783
0.288612
0.298227
0.308206
0.319056
0.331194
0.344931
0.360443
0.377763
0.396798
0.417383
0.439339
0.462537
0.48692
0.512507
0.539352
0.567505
0.596972
0.6277
0.659577
0.692451
0.726152
0.760513
0.795378
0.830612
0.8661
0.901744
0.937466
0.973202
1.0089
1.04453
1.08005
1.11546
1.15074
1.18589
1.22091
1.25583
1.29064
1.32538
1.36007
1.39473
1.42939
1.46409
1.49885
1.53372
1.5687
1.60385
1.63919
1.67473
1.71052
1.74657
1.7829
1.81952
1.85646
1.89371
1.9313
1.96922
2.00748
2.04607
2.08499
2.12423
2.16379
2.20365
2.24379
2.2842
2.32487
2.36576
2.40686
2.44815
2.48959
2.53116
2.57284
2.61458
2.65637
2.69818
2.73996
2.78168
2.82332
2.86484
2.90619
2.94736
2.98829
3.02893
3.06915
3.10895
3.1483
3.18718
3.22554
3.26335
3.30056
3.33714
3.37305
3.40824
3.44267
3.47631
3.50911
3.54105
3.57208
3.60216
3.63127
3.65938
3.68643
3.71242
3.73731
3.76106
3.78365
3.80507
3.82527
3.84423
3.86194
3.87835
3.89345
3.90721
3.9196
3.9306
3.94019
3.94833
3.95501
3.96019
3.96385
3.96598
3.96655
3.96555
3.96296
3.95876
3.95297
3.94557
3.93656
3.92599
3.91389
3.90028
3.88522
3.86876
3.85097
3.83191
3.81166
3.79029
3.7679
3.74457
3.7204
3.69548
3.66991
3.64379
3.61723
3.59032
3.56313
3.53575
3.50825
3.48068
3.4531
3.42557
3.39812
3.37079
3.34362
3.31661
3.28978
3.26312
3.23662
3.21027
3.18403
3.15787
3.13175
3.10563
3.07946
3.05321
3.02687
3.00049
2.97418
2.94822
2.92306
2.89959
2.87847
2.8607
0.119479
0.183398
0.221129
0.247336
0.26734
0.283432
0.296664
0.308056
0.31839
0.328321
0.338418
0.349183
0.361037
0.374312
0.389232
0.405907
0.424348
0.444496
0.466262
0.489563
0.514341
0.540561
0.568195
0.597208
0.627535
0.659082
0.691727
0.725331
0.759753
0.794856
0.830517
0.866624
0.903084
0.939816
0.976751
1.01383
1.05101
1.08825
1.12552
1.1628
1.20006
1.23731
1.27453
1.31173
1.34891
1.3861
1.4233
1.46055
1.49785
1.53524
1.57275
1.6104
1.64822
1.68625
1.72452
1.76303
1.80184
1.84095
1.88038
1.92016
1.96029
2.0008
2.04168
2.08294
2.12459
2.16662
2.20902
2.25179
2.29492
2.33838
2.38218
2.42628
2.47066
2.5153
2.56018
2.60527
2.65053
2.69594
2.74146
2.78707
2.83271
2.87836
2.92398
2.96953
3.01497
3.06026
3.10535
3.15022
3.19481
3.23896
3.28265
3.32585
3.36853
3.41064
3.45215
3.493
3.53316
3.57257
3.61119
3.64897
3.68587
3.72184
3.75685
3.79084
3.82379
3.85564
3.88638
3.91595
3.94433
3.97148
3.99738
4.022
4.04531
4.06729
4.08792
4.10717
4.12503
4.14148
4.15649
4.17004
4.18211
4.1927
4.20178
4.20933
4.21534
4.21977
4.22263
4.22389
4.22354
4.22157
4.21796
4.2127
4.20581
4.19729
4.18715
4.17541
4.16211
4.14728
4.13095
4.11319
4.09405
4.07359
4.05188
4.029
4.00503
3.98004
3.95414
3.92741
3.89994
3.87184
3.84318
3.81408
3.7846
3.75483
3.72483
3.69468
3.66442
3.63411
3.6038
3.57351
3.54328
3.51313
3.48306
3.45308
3.42318
3.39334
3.36353
3.33373
3.30389
3.27399
3.24399
3.21388
3.18368
3.15345
3.12335
3.09368
3.06491
3.03783
3.01295
2.99098
0.132764
0.20038
0.240738
0.26899
0.290603
0.307739
0.321868
0.333982
0.344843
0.355093
0.365294
0.375945
0.387483
0.400268
0.414576
0.430589
0.448402
0.468033
0.48945
0.512595
0.537398
0.563786
0.591678
0.620986
0.651611
0.68344
0.716352
0.750225
0.784942
0.820391
0.856473
0.893101
0.930196
0.967691
1.00553
1.04365
1.08202
1.12059
1.15934
1.19823
1.23723
1.27635
1.31555
1.35484
1.39422
1.4337
1.47327
1.51297
1.5528
1.59279
1.63296
1.67334
1.71396
1.75483
1.796
1.83748
1.87929
1.92147
1.96403
2.00699
2.05036
2.09415
2.13837
2.18303
2.22812
2.27364
2.31959
2.36596
2.41272
2.45987
2.50739
2.55525
2.60343
2.6519
2.70063
2.74959
2.79875
2.84806
2.8975
2.94703
2.99659
3.04615
3.09567
3.1451
3.19439
3.2435
3.29238
3.34098
3.38921
3.43691
3.48409
3.53069
3.57669
3.62203
3.66666
3.71053
3.75358
3.79577
3.83704
3.87733
3.91661
3.95481
3.9919
4.02783
4.06255
4.09602
4.12821
4.15907
4.18857
4.21668
4.24337
4.26861
4.29238
4.31466
4.33544
4.35469
4.37241
4.38857
4.40317
4.41618
4.42761
4.43744
4.44567
4.45229
4.45728
4.46064
4.46237
4.46244
4.46086
4.45762
4.45273
4.44618
4.43799
4.42815
4.4167
4.40364
4.38901
4.37284
4.35517
4.33604
4.31551
4.29363
4.27046
4.24608
4.22056
4.19398
4.16641
4.13794
4.10867
4.07866
4.04802
4.01683
3.98517
3.9531
3.92072
3.88806
3.8552
3.82219
3.78905
3.75585
3.72259
3.6893
3.65599
3.62267
3.58931
3.55592
3.52246
3.48892
3.45525
3.42144
3.38747
3.35333
3.31906
3.28475
3.25058
3.21685
3.18405
3.15285
3.1236
3.09683
0.143867
0.214489
0.257071
0.286991
0.309767
0.327962
0.343012
0.355889
0.367337
0.377984
0.388382
0.399029
0.41037
0.422791
0.436607
0.452051
0.469276
0.488355
0.509294
0.532052
0.556558
0.582717
0.610424
0.639569
0.670036
0.701712
0.734483
0.768243
0.802896
0.838352
0.874532
0.911367
0.948794
0.986758
1.02521
1.0641
1.10338
1.14302
1.18299
1.22325
1.26377
1.30454
1.34553
1.38673
1.42814
1.46975
1.51157
1.55361
1.59588
1.63839
1.68117
1.72424
1.76761
1.81133
1.8554
1.89985
1.94471
1.98999
2.03572
2.08191
2.12857
2.17572
2.22335
2.27148
2.32009
2.36919
2.41877
2.46881
2.5193
2.57021
2.62153
2.67323
2.72528
2.77765
2.8303
2.88321
2.93632
2.9896
3.04301
3.0965
3.15003
3.20354
3.25699
3.31033
3.3635
3.41645
3.46913
3.52147
3.57327
3.62451
3.67513
3.72511
3.77438
3.82289
3.87057
3.91737
3.96323
4.0081
4.0519
4.09459
4.1361
4.17639
4.21541
4.2531
4.28941
4.32431
4.35775
4.38969
4.42009
4.44892
4.47614
4.50174
4.52569
4.54798
4.5686
4.58754
4.60478
4.62034
4.63418
4.6463
4.65672
4.66544
4.67246
4.67779
4.68142
4.68335
4.68359
4.68215
4.67903
4.67425
4.6678
4.6597
4.64997
4.63861
4.62564
4.6111
4.59499
4.57736
4.55824
4.53767
4.5157
4.49238
4.46776
4.44191
4.41489
4.38676
4.35761
4.3275
4.29652
4.26473
4.23222
4.19907
4.16535
4.13113
4.09648
4.06144
4.02609
3.99046
3.9546
3.91854
3.8823
3.84592
3.80939
3.77272
3.73591
3.69893
3.66177
3.62441
3.58682
3.54899
3.5109
3.47256
3.43404
3.39542
3.3569
3.3188
3.28154
3.24576
3.21162
3.17955
0.15266
0.225564
0.269705
0.300788
0.324657
0.343853
0.359803
0.373461
0.385558
0.396705
0.407443
0.41826
0.4296
0.441859
0.455369
0.470396
0.487125
0.505663
0.526046
0.548252
0.572216
0.597844
0.625027
0.653652
0.683605
0.71478
0.747077
0.780406
0.81469
0.849858
0.885851
0.922614
0.960098
0.99826
1.03706
1.07645
1.1164
1.15686
1.19781
1.23921
1.28104
1.32326
1.36585
1.4088
1.45208
1.49571
1.53967
1.58396
1.62859
1.67358
1.71893
1.76467
1.81081
1.85738
1.90438
1.95185
1.99981
2.04826
2.09723
2.14673
2.19676
2.24735
2.29848
2.35017
2.4024
2.45517
2.50847
2.56227
2.61657
2.67133
2.72652
2.78213
2.83811
2.89443
2.95106
3.00794
3.06505
3.12232
3.17971
3.23718
3.29467
3.35213
3.4095
3.46672
3.52374
3.5805
3.63693
3.69285
3.74817
3.80284
3.85682
3.91005
3.96247
4.01401
4.06461
4.11419
4.16269
4.21005
4.2562
4.30108
4.34463
4.38679
4.42751
4.46673
4.5044
4.54047
4.5749
4.60765
4.63868
4.66794
4.6954
4.72104
4.74486
4.76683
4.78696
4.80524
4.82167
4.83626
4.84898
4.85985
4.86889
4.87612
4.88156
4.88522
4.88712
4.88727
4.8857
4.88242
4.87746
4.87083
4.86255
4.85264
4.84112
4.82801
4.81334
4.79713
4.7794
4.76019
4.73953
4.71746
4.69402
4.66924
4.64319
4.6159
4.58744
4.55786
4.52723
4.4956
4.46304
4.42962
4.3954
4.36046
4.32484
4.28863
4.25186
4.21461
4.17691
4.1388
4.10033
4.06153
4.02242
3.98302
3.94333
3.90336
3.8631
3.82255
3.78167
3.74046
3.69889
3.65695
3.61463
3.57196
3.52901
3.48587
3.44276
3.39997
3.3579
3.31711
3.27764
3.23986
0.159157
0.233354
0.278558
0.310634
0.335432
0.355506
0.37228
0.3867
0.399482
0.41122
0.422437
0.433606
0.445156
0.457474
0.470894
0.485685
0.502048
0.52011
0.539928
0.561498
0.584772
0.609669
0.636094
0.663945
0.69312
0.723529
0.755089
0.787729
0.82139
0.85602
0.891577
0.928022
0.96532
1.00344
1.04234
1.082
1.12238
1.16345
1.20517
1.24752
1.29046
1.33396
1.37799
1.42255
1.4676
1.51314
1.55915
1.60564
1.6526
1.70004
1.74797
1.7964
1.84534
1.89481
1.94481
1.99537
2.0465
2.09822
2.15053
2.20344
2.25696
2.31109
2.36583
2.42118
2.47713
2.53366
2.59076
2.64842
2.70659
2.76526
2.82439
2.88395
2.9439
3.00419
3.06479
3.12565
3.18672
3.24796
3.3093
3.37069
3.43207
3.49339
3.55459
3.61559
3.67635
3.73679
3.79674
3.85606
3.9147
3.97261
4.02973
4.086
4.14135
4.1957
4.24895
4.30104
4.35191
4.40148
4.44969
4.49647
4.54175
4.58548
4.62758
4.668
4.70669
4.7436
4.77869
4.81192
4.84324
4.87258
4.89992
4.92525
4.94857
4.96986
4.98912
5.00636
5.02159
5.03481
5.04603
5.05528
5.06257
5.06795
5.07145
5.07309
5.0729
5.07094
5.06722
5.06178
5.05466
5.04589
5.0355
5.02352
5.00998
4.99492
4.97835
4.96032
4.94084
4.91995
4.89768
4.87406
4.84913
4.82293
4.79548
4.76683
4.73703
4.70612
4.67415
4.64116
4.6072
4.57233
4.5366
4.50007
4.46277
4.42477
4.38611
4.34684
4.30698
4.26659
4.22569
4.18431
4.14246
4.10017
4.05743
4.01425
3.97062
3.92653
3.88197
3.8369
3.79133
3.74523
3.69862
3.65152
3.60399
3.55617
3.50824
3.4605
3.41332
3.36717
3.32202
3.27818
0.163105
0.238197
0.284184
0.316983
0.342484
0.363258
0.380733
0.395849
0.409312
0.421697
0.433504
0.44518
0.457131
0.469719
0.483259
0.49801
0.514171
0.531873
0.551186
0.572126
0.594662
0.618738
0.644278
0.671202
0.69943
0.728893
0.75953
0.791289
0.824132
0.858027
0.892948
0.928875
0.965786
1.00366
1.04248
1.08221
1.12284
1.16432
1.20665
1.24978
1.29368
1.33833
1.3837
1.42977
1.47651
1.52391
1.57195
1.62063
1.66993
1.71986
1.77041
1.82159
1.87341
1.92587
1.97898
2.03275
2.08718
2.14229
2.19806
2.25452
2.31164
2.36944
2.42791
2.48702
2.54678
2.60717
2.66815
2.72972
2.79183
2.85444
2.91751
2.98101
3.0449
3.10912
3.17363
3.23839
3.30333
3.3684
3.43355
3.49871
3.56382
3.62881
3.69363
3.75821
3.82248
3.88625
3.94938
4.0118
4.07344
4.13426
4.19417
4.25311
4.31104
4.36781
4.42332
4.47752
4.53034
4.58171
4.63156
4.6798
4.72638
4.77123
4.81428
4.85548
4.89476
4.93207
4.96737
5.00061
5.03175
5.06074
5.08755
5.11217
5.13458
5.15479
5.1728
5.18862
5.20225
5.21373
5.22307
5.23031
5.23549
5.23865
5.23984
5.23911
5.2365
5.23208
5.22589
5.21799
5.20842
5.19723
5.18448
5.1702
5.15444
5.13723
5.11862
5.09863
5.0773
5.05467
5.03076
5.00559
4.9792
4.95162
4.92287
4.89299
4.86199
4.82992
4.79679
4.76265
4.72753
4.69146
4.65447
4.6166
4.5779
4.53838
4.49809
4.45705
4.41531
4.37287
4.32977
4.28602
4.24164
4.19664
4.15102
4.10477
4.05789
4.01036
3.96218
3.91332
3.86377
3.81352
3.76258
3.71098
3.6588
3.60617
3.55326
3.50036
3.44781
3.39602
3.34492
3.29477
0.165178
0.240761
0.287166
0.320381
0.346327
0.367592
0.385611
0.401325
0.415427
0.428473
0.440938
0.453239
0.465745
0.478785
0.492642
0.507552
0.523696
0.5412
0.560138
0.580538
0.602391
0.625662
0.650302
0.676258
0.703477
0.731915
0.761534
0.792307
0.824216
0.857251
0.891409
0.926686
0.96308
1.00058
1.03919
1.07887
1.11962
1.16141
1.20423
1.24805
1.29285
1.3386
1.38526
1.43283
1.48126
1.53054
1.58065
1.63157
1.6833
1.73581
1.7891
1.84317
1.89802
1.95363
2.01
2.06714
2.12504
2.18369
2.24309
2.30323
2.36411
2.4257
2.488
2.55098
2.61462
2.6789
2.7438
2.8093
2.87535
2.94186
3.0088
3.07615
3.14385
3.21185
3.2801
3.34855
3.41713
3.4858
3.55448
3.62311
3.69162
3.75996
3.82805
3.89583
3.96307
4.02965
4.09549
4.16053
4.22468
4.28788
4.35004
4.4111
4.47096
4.52954
4.58673
4.64247
4.69667
4.74925
4.80016
4.8493
4.89661
4.94202
4.98547
5.02688
5.06621
5.10339
5.13838
5.17112
5.20159
5.22973
5.25553
5.27896
5.30002
5.3187
5.33501
5.34897
5.3606
5.36994
5.377
5.38185
5.38454
5.38512
5.38365
5.38021
5.37486
5.36768
5.35872
5.34808
5.3358
5.32197
5.30664
5.28987
5.27172
5.25224
5.23147
5.20946
5.18625
5.16186
5.13632
5.10967
5.08192
5.05308
5.02318
4.99224
4.96025
4.92725
4.89324
4.85822
4.82223
4.78526
4.74734
4.70847
4.66868
4.62799
4.5864
4.54394
4.50062
4.45645
4.41144
4.36561
4.31896
4.2715
4.22321
4.1741
4.12415
4.07335
4.02168
3.96912
3.91568
3.86133
3.80609
3.75
3.69313
3.63561
3.57762
3.51942
3.46132
3.40371
3.34646
3.28983
0.16591
0.241576
0.288051
0.321383
0.347515
0.369056
0.387453
0.403646
0.41832
0.432012
0.44517
0.458174
0.471355
0.485001
0.499356
0.514622
0.530953
0.548461
0.567216
0.587252
0.608576
0.631174
0.655024
0.680098
0.706375
0.73384
0.762478
0.792281
0.823256
0.855421
0.888796
0.923402
0.95926
0.996393
1.03478
1.0744
1.11526
1.15736
1.2007
1.24524
1.29098
1.33788
1.38592
1.43508
1.48532
1.53662
1.58896
1.6423
1.69663
1.75193
1.80818
1.86535
1.92344
1.98242
2.04228
2.103
2.16456
2.22695
2.29015
2.35413
2.41887
2.48436
2.55056
2.61743
2.68496
2.75311
2.82184
2.89112
2.96089
3.03109
3.10169
3.17262
3.24384
3.31529
3.38693
3.45868
3.53048
3.60229
3.67402
3.74563
3.81703
3.88817
3.95894
4.02909
4.09858
4.1673
4.23518
4.30213
4.36807
4.43291
4.49658
4.55899
4.62006
4.67969
4.73779
4.7943
4.84911
4.90216
4.95338
5.00267
5.04998
5.09524
5.13837
5.17931
5.21801
5.2544
5.28844
5.32008
5.34927
5.37599
5.40021
5.42192
5.44109
5.45774
5.47188
5.48353
5.49272
5.49949
5.50388
5.50596
5.50579
5.50344
5.499
5.49254
5.48416
5.47394
5.46198
5.44837
5.43319
5.41653
5.39847
5.3791
5.35847
5.33665
5.31371
5.28968
5.26461
5.23854
5.21148
5.18348
5.15453
5.12464
5.09383
5.06209
5.02941
4.9958
4.96123
4.92571
4.88922
4.85175
4.81329
4.77384
4.73338
4.69192
4.64945
4.60597
4.56147
4.51595
4.46941
4.42186
4.37327
4.32366
4.273
4.22129
4.16852
4.11466
4.0597
4.00363
3.94643
3.8881
3.82865
3.76813
3.7066
3.64419
3.58108
3.51751
3.45378
3.39024
3.32674
3.26356
0.16566
0.241063
0.287297
0.320472
0.346554
0.368176
0.3868
0.40337
0.418563
0.432897
0.446788
0.460579
0.474561
0.488975
0.504023
0.519866
0.536628
0.554398
0.573237
0.593177
0.614237
0.636421
0.659728
0.684153
0.709706
0.736424
0.764313
0.793327
0.823529
0.854975
0.887712
0.921788
0.957241
0.994104
1.03239
1.07212
1.1133
1.15594
1.20003
1.24556
1.29251
1.34088
1.39062
1.44171
1.49412
1.54782
1.60276
1.65892
1.71626
1.77475
1.83435
1.89502
1.95673
2.01944
2.08313
2.14774
2.21326
2.27964
2.34685
2.41484
2.48358
2.55304
2.62316
2.69392
2.76526
2.83714
2.90952
2.98234
3.05556
3.12913
3.20297
3.27705
3.35131
3.42568
3.50012
3.57456
3.64893
3.72319
3.79726
3.8711
3.94459
4.01756
4.08989
4.16149
4.2323
4.30221
4.37114
4.439
4.50571
4.57119
4.63534
4.69808
4.75933
4.819
4.877
4.93325
4.98768
5.0402
5.09074
5.13923
5.18559
5.22976
5.27167
5.31126
5.34846
5.38323
5.41551
5.44526
5.47244
5.49701
5.51896
5.53827
5.55492
5.56894
5.58033
5.58912
5.59535
5.59906
5.60032
5.5992
5.59577
5.59011
5.58234
5.57255
5.56084
5.54733
5.53213
5.51535
5.49709
5.47747
5.45658
5.43452
5.41138
5.38722
5.36213
5.33615
5.30934
5.28173
5.25335
5.22421
5.19432
5.16368
5.13228
5.1001
5.06711
5.0333
4.99861
4.96303
4.92652
4.88903
4.85052
4.81098
4.77036
4.72863
4.68576
4.64174
4.59653
4.55012
4.50248
4.45362
4.40349
4.3521
4.29943
4.24545
4.19015
4.13351
4.07552
4.01614
3.95538
3.89324
3.82972
3.76488
3.69878
3.63155
3.56335
3.49444
3.42507
3.35559
3.28586
3.21617
0.164785
0.239603
0.285309
0.318078
0.343896
0.365424
0.384141
0.400994
0.416648
0.431601
0.44624
0.460875
0.475756
0.491085
0.507022
0.523692
0.54119
0.559581
0.578912
0.599215
0.620513
0.642819
0.666184
0.690531
0.71588
0.742302
0.769851
0.798573
0.828536
0.859814
0.892476
0.926591
0.962219
0.99941
1.03821
1.07864
1.12073
1.16449
1.20993
1.25705
1.30582
1.35623
1.40825
1.46184
1.51696
1.57358
1.63163
1.69108
1.75185
1.81392
1.8772
1.94166
2.00722
2.07384
2.14146
2.21002
2.27947
2.34974
2.42078
2.49254
2.56496
2.638
2.71158
2.78567
2.86021
2.93515
3.01043
3.08601
3.16182
3.23782
3.31395
3.39015
3.46637
3.54255
3.61864
3.69459
3.77032
3.84581
3.92094
3.99554
4.06953
4.14284
4.21537
4.28705
4.35779
4.42751
4.49611
4.56352
4.62964
4.69439
4.75769
4.81945
4.8796
4.93803
4.99469
5.04948
5.10232
5.15316
5.2019
5.24848
5.29284
5.3349
5.3746
5.41189
5.4467
5.47898
5.50869
5.53578
5.56021
5.58195
5.60098
5.61729
5.63087
5.64174
5.64991
5.65542
5.6583
5.65862
5.65644
5.65185
5.64493
5.63578
5.62453
5.61128
5.59616
5.5793
5.56083
5.54089
5.5196
5.49709
5.47348
5.44888
5.4234