/*--------------------------------*- C++ -*----------------------------------*\
  =========                 |
  \\      /  F ield         | OpenFOAM: The Open Source CFD Toolbox
   \\    /   O peration     | Website:  https://openfoam.org
    \\  /    A nd           | Version:  12
     \\/     M anipulation  |
\*---------------------------------------------------------------------------*/
FoamFile
{
    format      ascii;
    class       volScalarField;
    location    "0.08";
    object      nut;
}
// * * * * * * * * * * * * * * * * * * * * * * * * * * * * * * * * * * * * * //

dimensions      [0 2 -1 0 0 0 0];

internalField   nonuniform List<scalar> 
12225
(
4.04768e-05
3.83178e-05
3.62504e-05
3.442e-05
3.29523e-05
3.18985e-05
3.12577e-05
3.09964e-05
3.10626e-05
3.13971e-05
3.19414e-05
3.26422e-05
3.34532e-05
3.43366e-05
3.52646e-05
3.62136e-05
3.71991e-05
3.86515e-05
0.000281046
0.000209262
0.000176261
0.000157433
0.000146264
0.000139679
0.000135785
0.000133422
0.000131907
0.00013085
0.000130036
0.00012935
0.000128734
0.000128158
0.000127625
0.000127079
0.000126734
0.000125571
0.000556043
0.000419898
0.000349799
0.000304714
0.000272418
0.000247945
0.000228718
0.000213241
0.000200599
0.000190182
0.00018155
0.000174362
0.000168347
0.000163281
0.000158988
0.000155258
0.000152019
0.000148666
0.000740305
0.000625812
0.000544099
0.000484971
0.000439731
0.000403595
0.000373767
0.000348508
0.00032673
0.000307735
0.000291047
0.000276317
0.000263271
0.000251672
0.000241316
0.000231952
0.000223409
0.000215286
0.000817068
0.000759136
0.000700531
0.000648552
0.000603857
0.000565525
0.000532392
0.000503403
0.000477734
0.000454772
0.00043407
0.000415289
0.000398164
0.000382475
0.000368027
0.000354604
0.000342032
0.000330152
0.0008421
0.000819685
0.000789915
0.000757587
0.000725522
0.000695114
0.000666894
0.000640918
0.000617041
0.00059506
0.000574769
0.000555977
0.000538514
0.000522222
0.000506959
0.000492569
0.00047893
0.000466068
0.000849261
0.000841806
0.000829737
0.000814177
0.00079646
0.000777727
0.000758797
0.000740181
0.000722164
0.000704891
0.000688421
0.000672757
0.000657874
0.000643726
0.000630257
0.000617399
0.000605099
0.000593483
0.00085112
0.000848747
0.000844478
0.00083823
0.000830234
0.000820875
0.000810566
0.000799673
0.000788483
0.000777213
0.000766017
0.000754999
0.000744225
0.000733733
0.00072354
0.00071365
0.00070407
0.000694958
0.00085156
0.000850665
0.000849169
0.000846884
0.000843735
0.000839748
0.000835015
0.000829665
0.000823832
0.000817644
0.000811213
0.000804632
0.000797976
0.000791302
0.000784656
0.00077807
0.00077158
0.000765327
0.000851652
0.000851133
0.000850468
0.000849563
0.000848344
0.000846766
0.000844816
0.000842504
0.00083986
0.000836923
0.00083374
0.000830356
0.000826812
0.000823148
0.000819397
0.000815591
0.000811763
0.000808013
0.000851668
0.000851231
0.000850778
0.000850278
0.000849696
0.000849003
0.000848177
0.000847202
0.000846075
0.000844795
0.000843372
0.000841817
0.000840144
0.000838368
0.000836505
0.000834572
0.000832588
0.000830611
0.000851669
0.000851245
0.000850835
0.000850429
0.000850012
0.000849573
0.000849097
0.000848574
0.000847995
0.000847354
0.000846649
0.00084588
0.00084505
0.000844163
0.000843222
0.000842236
0.000841213
0.000840187
0.000851668
0.000851245
0.000850843
0.000850459
0.000850088
0.000849724
0.000849363
0.000848998
0.000848624
0.000848236
0.000847832
0.000847408
0.000846965
0.0008465
0.000846015
0.000845511
0.000844991
0.000844476
0.000851667
0.000851242
0.000850839
0.000850458
0.000850096
0.00084975
0.000849419
0.0008491
0.00084879
0.000848487
0.000848189
0.000847895
0.000847603
0.000847312
0.000847022
0.000846731
0.000846442
0.000846168
0.000851666
0.000851239
0.000850835
0.000850452
0.00085009
0.000849746
0.000849418
0.000849107
0.00084881
0.000848526
0.000848254
0.000847993
0.000847742
0.000847501
0.000847269
0.000847044
0.00084683
0.000846636
0.000851665
0.000851237
0.000850831
0.000850447
0.000850083
0.000849737
0.000849409
0.000849097
0.000848801
0.000848519
0.00084825
0.000847994
0.00084775
0.000847517
0.000847295
0.000847083
0.000846883
0.000846706
0.000851664
0.000851235
0.000850828
0.000850442
0.000850077
0.00084973
0.000849401
0.000849088
0.00084879
0.000848507
0.000848238
0.000847981
0.000847737
0.000847504
0.000847282
0.00084707
0.000846871
0.000846694
0.000851664
0.000851234
0.000850826
0.00085044
0.000850073
0.000849726
0.000849395
0.000849082
0.000848783
0.000848499
0.000848229
0.000847971
0.000847726
0.000847492
0.000847268
0.000847056
0.000846855
0.000846677
0.000851663
0.000851233
0.000850825
0.000850439
0.000850072
0.000849724
0.000849394
0.000849079
0.000848781
0.000848496
0.000848225
0.000847967
0.000847721
0.000847486
0.000847261
0.000847048
0.000846846
0.000846667
0.000851664
0.000851234
0.000850827
0.00085044
0.000850074
0.000849727
0.000849397
0.000849083
0.000848784
0.0008485
0.000848228
0.000847969
0.000847722
0.000847486
0.00084726
0.000847044
0.00084684
0.000846658
0.000851664
0.000851235
0.000850829
0.000850444
0.000850078
0.000849731
0.0008494
0.000849084
0.000848782
0.000848492
0.000848213
0.000847944
0.000847685
0.000847433
0.00084719
0.000846953
0.000846725
0.000846516
0.000851665
0.000851237
0.00085083
0.000850442
0.000850069
0.000849707
0.000849352
0.000849001
0.00084865
0.000848297
0.000847939
0.000847576
0.000847205
0.000846828
0.000846443
0.000846051
0.000845655
0.000845267
0.000851664
0.000851228
0.000850795
0.000850348
0.00084987
0.000849347
0.000848764
0.000848114
0.000847393
0.0008466
0.000845736
0.000844808
0.000843819
0.000842778
0.000841691
0.000840567
0.000839414
0.000838257
0.000851634
0.000851073
0.000850343
0.000849364
0.000848081
0.000846471
0.000844536
0.0008423
0.000839797
0.000837067
0.000834155
0.0008311
0.00082794
0.00082471
0.000821437
0.000818149
0.000814868
0.000811641
0.000851287
0.000849596
0.000846722
0.00084258
0.000837267
0.000830988
0.000823985
0.00081649
0.000808699
0.00080077
0.000792824
0.000784952
0.000777217
0.000769665
0.000762327
0.00075522
0.00074836
0.000741801
0.000848318
0.000839426
0.000826164
0.000810023
0.000792369
0.000774243
0.000756344
0.000739074
0.000722632
0.000707098
0.000692483
0.000678759
0.000665881
0.000653793
0.000642439
0.000631764
0.000621721
0.000612318
0.000828549
0.000788845
0.00074604
0.000705712
0.000669478
0.000637522
0.000609472
0.000584773
0.000562886
0.000543356
0.000525813
0.000509958
0.00049555
0.000482394
0.000470331
0.000459231
0.000448988
0.000439552
0.000730727
0.000627351
0.000554516
0.000501072
0.000460334
0.000428367
0.000402658
0.000381498
0.000363744
0.000348619
0.00033558
0.000324226
0.000314261
0.000305455
0.000297628
0.000290635
0.000284358
0.000278712
0.000439251
0.000338474
0.00028794
0.000256874
0.000236368
0.000222517
0.000213
0.000206319
0.000201513
0.000197966
0.000195277
0.000193183
0.000191504
0.000190121
0.00018895
0.000187935
0.000187038
0.000186211
7.16431e-05
6.90587e-05
6.65522e-05
6.41645e-05
6.19882e-05
6.00782e-05
5.8456e-05
5.71205e-05
5.60558e-05
5.52383e-05
5.46408e-05
5.42355e-05
5.39958e-05
5.38966e-05
5.39155e-05
5.40323e-05
5.42297e-05
5.44914e-05
6.34881e-06
6.51604e-05
8.49249e-05
0.000100306
0.00011264
0.00012268
0.000130949
0.00013786
0.000143789
0.000149152
0.000154497
0.00015997
0.000165747
0.000171974
0.000178663
0.000185553
0.000191989
0.000196943
0.000199911
0.00020165
0.000200672
4.52085e-05
0.000203343
0.000199405
0.000201457
4.67024e-05
4.66803e-05
4.84586e-05
5.03739e-05
5.23036e-05
5.41815e-05
5.59884e-05
5.7716e-05
5.9361e-05
6.09235e-05
6.24061e-05
6.38128e-05
6.51484e-05
6.64183e-05
6.76283e-05
6.8784e-05
6.98911e-05
7.09549e-05
7.19803e-05
7.2972e-05
7.39343e-05
7.48709e-05
7.57853e-05
7.66805e-05
7.75592e-05
7.84237e-05
7.92761e-05
8.01181e-05
8.09511e-05
8.17765e-05
8.25953e-05
8.34083e-05
8.42162e-05
8.50195e-05
8.58186e-05
8.66138e-05
8.74052e-05
8.81929e-05
8.8977e-05
8.97572e-05
9.05335e-05
9.13057e-05
9.20734e-05
9.28365e-05
9.35947e-05
9.43474e-05
9.50945e-05
9.58355e-05
9.65699e-05
9.72975e-05
9.80177e-05
9.87301e-05
9.94343e-05
0.00010013
0.000100816
0.000101493
0.00010216
0.000102816
0.000103461
0.000104095
0.000104717
0.000105327
0.000105925
0.000106511
0.000107085
0.000107648
0.000108203
0.000108755
0.00010929
0.00010981
0.000110314
0.000110802
0.000111273
0.000111728
0.000112166
0.000112586
0.000112987
0.000113371
0.000113735
0.00011408
0.000114404
0.000114709
0.000114992
0.000115254
0.000115495
0.000115712
0.000115907
0.000116079
0.000116226
0.000116349
0.000116446
0.000116518
0.000116564
0.000116582
0.000116573
0.000116536
0.000116471
0.000116376
0.000116251
0.000116097
0.000115911
0.000115695
0.000115447
0.000115168
0.000114857
0.000114514
0.000114139
0.000113734
0.000113297
0.00011283
0.000112333
0.000111807
0.000111254
0.000110674
0.00011007
0.000109442
0.000108793
0.000108124
0.000107439
0.000106739
0.000106028
0.000105306
0.000104581
0.000103858
0.000103193
0.000102748
0.000102337
0.000101923
0.000101507
0.000101092
0.000100678
0.000100269
9.98666e-05
9.94728e-05
9.90896e-05
9.87188e-05
9.83618e-05
9.802e-05
9.76945e-05
9.7386e-05
9.70952e-05
9.68222e-05
9.65668e-05
9.63285e-05
9.61061e-05
9.58979e-05
9.57017e-05
9.55138e-05
9.53295e-05
9.51413e-05
9.49377e-05
9.46966e-05
9.43683e-05
9.38208e-05
9.26461e-05
8.08789e-06
5.49178e-05
0.000101749
0.000141007
0.000173662
0.000200732
0.000223065
0.000241423
0.000256538
0.000269133
0.000278969
0.000286592
0.000292433
0.000296686
0.000299188
0.000299302
0.000295736
0.00028754
0.000276578
0.000267149
0.000255917
0.000243863
0.000251337
0.000249056
0.00025034
0.000247458
0.000252718
0.000261357
0.000271298
0.000282295
0.000294306
0.000307107
0.000320457
0.000334133
0.000347932
0.000361682
0.000375238
0.000388488
0.000401348
0.000413763
0.000425704
0.000437162
0.000448143
0.000458669
0.000468768
0.000478473
0.000487824
0.000496857
0.000505613
0.000514127
0.000522434
0.000530568
0.000538558
0.000546431
0.000554213
0.000561924
0.000569584
0.000577211
0.000584819
0.000592421
0.000600027
0.000607647
0.000615288
0.000622956
0.000630656
0.000638392
0.000646166
0.00065398
0.000661835
0.00066973
0.000677665
0.00068564
0.000693652
0.000701701
0.000709784
0.000717898
0.000726041
0.000734211
0.000742404
0.000750618
0.000758849
0.000767095
0.00077535
0.000783611
0.000791871
0.000800124
0.000808358
0.000816559
0.000824702
0.000832749
0.000840642
0.000848268
0.000855445
0.000862528
0.000869558
0.000876537
0.000883463
0.000890334
0.000897146
0.000903897
0.000910583
0.000917202
0.00092375
0.000930223
0.000936619
0.000942933
0.000949163
0.000955303
0.000961351
0.0009673
0.000973146
0.000978885
0.000984509
0.000990013
0.000995391
0.00100063
0.00100573
0.00101068
0.00101547
0.00102009
0.00102453
0.00102877
0.00103281
0.00103664
0.00104023
0.00104358
0.00104668
0.00104951
0.00105206
0.00105431
0.00105625
0.00105787
0.00105917
0.00106012
0.00106073
0.00106099
0.00106088
0.00106042
0.00105959
0.00105841
0.00105687
0.00105498
0.00105276
0.00105021
0.00104736
0.00104424
0.00104084
0.00103717
0.00103322
0.0010287
0.00102265
0.00101571
0.00100847
0.00100111
0.000993688
0.000986253
0.000978826
0.000971426
0.000964064
0.000956751
0.000949492
0.00094229
0.000935144
0.00092805
0.000921002
0.000913989
0.000906997
0.000900009
0.000893004
0.00088596
0.000878848
0.000871637
0.00086429
0.000856766
0.000849013
0.000840976
0.000832547
0.000823663
0.000813388
0.000793604
1.20218e-05
6.85961e-05
0.000128602
0.000181389
0.00022677
0.000265406
0.000297967
0.000325072
0.000347295
0.000364752
0.000377403
0.000385792
0.000390518
0.000392117
0.00039116
0.000388575
0.000385083
0.000381627
0.000379555
0.00038005
0.00038273
0.000387911
0.000396074
0.000405732
0.000418006
0.000432708
0.000450746
0.000472185
0.00049617
0.000522036
0.000549291
0.000577475
0.000606156
0.000634947
0.000663517
0.000691599
0.000718992
0.000745552
0.000771194
0.000795873
0.000819585
0.000842351
0.000864216
0.000885236
0.000905479
0.000925016
0.000943919
0.000962262
0.000980113
0.000997538
0.0010146
0.00103136
0.00104786
0.00106416
0.0010803
0.00109631
0.00111223
0.00112809
0.00114391
0.00115972
0.00117553
0.00119137
0.00120723
0.00122314
0.0012391
0.00125512
0.00127119
0.00128732
0.0013035
0.00131975
0.00133605
0.0013524
0.0013688
0.00138524
0.00140171
0.00141821
0.00143472
0.00145125
0.00146779
0.00148431
0.00150082
0.00151731
0.00153375
0.00155014
0.00156646
0.00158269
0.0015988
0.00161478
0.00163059
0.00164619
0.00166156
0.00167643
0.00169102
0.00170543
0.00171972
0.00173387
0.0017479
0.00176178
0.00177552
0.00178911
0.00180253
0.0018158
0.00182889
0.0018418
0.00185452
0.00186705
0.00187939
0.00189151
0.00190342
0.00191511
0.00192656
0.00193778
0.00194874
0.00195944
0.00196986
0.00198
0.00198983
0.00199935
0.00200853
0.00201736
0.00202581
0.00203388
0.00204152
0.00204874
0.00205548
0.00206175
0.0020675
0.00207271
0.00207737
0.00208143
0.00208488
0.00208769
0.00208984
0.00209131
0.00209208
0.00209214
0.00209148
0.00209008
0.00208795
0.00208508
0.00208149
0.00207719
0.00207219
0.00206654
0.00206023
0.00205333
0.00204588
0.00203784
0.0020292
0.00201974
0.00200887
0.00199689
0.00198423
0.00197117
0.00195784
0.00194433
0.0019307
0.00191702
0.00190331
0.00188961
0.00187595
0.00186234
0.00184879
0.00183532
0.00182192
0.00180857
0.00179527
0.00178199
0.0017687
0.00175536
0.00174192
0.00172833
0.00171451
0.00170041
0.00168591
0.00167089
0.00165514
0.00163822
0.00161842
0.00158831
1.67288e-05
8.72365e-05
0.000162532
0.000228121
0.000283814
0.000330669
0.000369619
0.000401423
0.000426691
0.000445325
0.000457968
0.000465357
0.000468663
0.000469209
0.000468436
0.000467784
0.000468461
0.000471373
0.000477138
0.000486042
0.000497984
0.000512931
0.000530898
0.000551924
0.000576256
0.000603981
0.000635097
0.000669309
0.000705987
0.000744439
0.000784037
0.000824225
0.000864517
0.000904507
0.000943867
0.000982347
0.00101977
0.00105602
0.00109104
0.00112481
0.00115735
0.00118871
0.00121895
0.00124814
0.00127637
0.00130372
0.00133029
0.00135616
0.0013814
0.00140611
0.00143036
0.00145421
0.00147774
0.00150099
0.00152402
0.00154689
0.00156962
0.00159227
0.00161485
0.0016374
0.00165994
0.00168249
0.00170507
0.00172768
0.00175034
0.00177304
0.00179581
0.00181862
0.00184149
0.0018644
0.00188736
0.00191036
0.00193339
0.00195644
0.0019795
0.00200255
0.0020256
0.00204862
0.0020716
0.00209453
0.00211739
0.00214017
0.00216284
0.00218539
0.00220779
0.00223003
0.00225208
0.00227391
0.0022955
0.00231682
0.00233782
0.00235838
0.00237864
0.00239868
0.00241851
0.00243814
0.00245756
0.00247676
0.00249574
0.00251448
0.00253297
0.00255122
0.0025692
0.00258692
0.00260436
0.00262151
0.00263837
0.00265493
0.00267117
0.00268709
0.00270268
0.00271793
0.00273283
0.00274736
0.00276152
0.00277528
0.00278863
0.00280156
0.00281404
0.00282606
0.00283758
0.00284859
0.00285907
0.00286898
0.00287829
0.00288697
0.002895
0.00290233
0.00290894
0.00291479
0.00291985
0.00292409
0.00292746
0.00292995
0.00293153
0.00293217
0.00293185
0.00293056
0.00292829
0.00292503
0.00292078
0.00291556
0.00290938
0.00290228
0.00289427
0.00288539
0.00287569
0.00286515
0.00285379
0.00284147
0.00282793
0.00281327
0.00279773
0.00278152
0.00276479
0.00274765
0.00273019
0.00271249
0.0026946
0.00267657
0.00265844
0.00264026
0.00262203
0.00260379
0.00258553
0.00256725
0.00254894
0.00253058
0.00251212
0.00249353
0.00247475
0.00245572
0.00243637
0.0024166
0.00239631
0.00237537
0.00235351
0.00233023
0.00230378
0.00226923
2.18367e-05
0.000108321
0.000199179
0.000276751
0.000341411
0.000394876
0.000438239
0.000472617
0.000498469
0.000516824
0.000528781
0.000535628
0.000538915
0.00054037
0.00054173
0.000544533
0.000549941
0.000558689
0.000571148
0.000587434
0.000607511
0.000631337
0.000658893
0.000690171
0.000725123
0.000763578
0.000805212
0.000849524
0.000895879
0.000943613
0.000992111
0.00104083
0.00108932
0.0011372
0.0011842
0.00123009
0.00127473
0.00131804
0.00135997
0.00140052
0.00143972
0.00147762
0.0015143
0.00154982
0.00158427
0.00161775
0.00165035
0.00168216
0.00171326
0.00174375
0.00177369
0.00180317
0.00183225
0.00186101
0.00188949
0.00191775
0.00194584
0.0019738
0.00200166
0.00202946
0.00205721
0.00208496
0.0021127
0.00214045
0.00216823
0.00219604
0.00222387
0.00225174
0.00227963
0.00230755
0.00233549
0.00236344
0.00239138
0.00241931
0.00244722
0.00247508
0.0025029
0.00253064
0.00255829
0.00258584
0.00261327
0.00264056
0.00266768
0.00269463
0.00272137
0.00274788
0.00277415
0.00280014
0.00282585
0.00285126
0.00287623
0.00290081
0.00292507
0.00294905
0.00297277
0.00299622
0.00301939
0.00304229
0.00306489
0.00308719
0.00310919
0.00313086
0.00315221
0.00317322
0.00319388
0.00321419
0.00323414
0.00325372
0.00327293
0.00329175
0.00331017
0.0033282
0.00334581
0.003363
0.00337976
0.00339607
0.00341193
0.0034273
0.00344219
0.00345656
0.00347041
0.00348369
0.0034964
0.0035085
0.00351996
0.00353075
0.00354083
0.00355018
0.00355875
0.0035665
0.00357341
0.00357942
0.0035845
0.00358861
0.00359172
0.00359378
0.00359479
0.0035947
0.00359349
0.00359116
0.00358768
0.00358307
0.00357732
0.00357046
0.00356251
0.00355349
0.00354343
0.00353234
0.00352023
0.00350704
0.00349266
0.00347713
0.00346056
0.0034431
0.00342488
0.00340599
0.00338653
0.00336658
0.00334621
0.00332546
0.00330441
0.00328308
0.00326151
0.00323972
0.00321774
0.00319555
0.00317315
0.00315053
0.00312765
0.00310447
0.00308093
0.00305699
0.00303256
0.00300759
0.00298197
0.0029556
0.00292828
0.00289959
0.00286817
0.00283119
2.71263e-05
0.000129583
0.000234532
0.000322788
0.000395205
0.000453935
0.000500796
0.00053701
0.000563798
0.000582593
0.000594896
0.000602377
0.000606878
0.00061032
0.000614513
0.000620978
0.00063082
0.000644717
0.000663001
0.000685766
0.000712968
0.000744497
0.0007802
0.00081987
0.000863219
0.000909861
0.000959306
0.00101097
0.00106425
0.00111851
0.00117321
0.00122786
0.00128206
0.00133548
0.00138787
0.00143906
0.00148893
0.00153739
0.00158443
0.00163004
0.00167425
0.00171712
0.00175871
0.00179909
0.00183835
0.00187658
0.00191386
0.00195029
0.00198595
0.00202092
0.0020553
0.00208914
0.00212254
0.00215554
0.00218822
0.00222063
0.00225282
0.00228483
0.0023167
0.00234847
0.00238016
0.0024118
0.00244341
0.00247499
0.00250656
0.00253813
0.0025697
0.00260126
0.00263282
0.00266438
0.00269591
0.00272742
0.00275889
0.00279031
0.00282166
0.00285294
0.00288411
0.00291517
0.0029461
0.00297688
0.00300749
0.0030379
0.00306811
0.00309808
0.00312781
0.00315726
0.00318641
0.00321526
0.00324377
0.00327193
0.00329961
0.0033269
0.00335385
0.00338047
0.00340678
0.00343278
0.00345845
0.00348378
0.00350878
0.00353342
0.0035577
0.00358161
0.00360515
0.0036283
0.00365105
0.00367341
0.00369536
0.0037169
0.00373802
0.00375872
0.00377899
0.00379882
0.00381822
0.00383717
0.00385567
0.00387371
0.00389128
0.00390838
0.00392497
0.00394107
0.00395664
0.00397167
0.00398614
0.00400002
0.00401329
0.00402592
0.00403787
0.00404912
0.00405962
0.00406934
0.00407823
0.00408626
0.00409337
0.00409952
0.00410469
0.0041088
0.00411182
0.00411375
0.00411449
0.00411405
0.00411241
0.00410955
0.00410547
0.00410016
0.00409364
0.0040859
0.00407697
0.00406684
0.00405553
0.004043
0.00402922
0.00401419
0.00399797
0.00398066
0.00396234
0.0039431
0.00392301
0.00390214
0.00388057
0.00385834
0.00383552
0.00381215
0.00378826
0.00376388
0.00373904
0.00371373
0.00368797
0.00366172
0.00363497
0.00360769
0.00357984
0.00355136
0.0035222
0.00349233
0.00346169
0.00343022
0.00339783
0.00336425
0.00332856
0.0032893
3.23876e-05
0.000146921
0.000264337
0.000362648
0.000442598
0.000506744
0.000557262
0.000595862
0.000624406
0.000644652
0.000658398
0.000667554
0.000674126
0.000680111
0.000687335
0.000697309
0.000711132
0.000729492
0.000752727
0.000780916
0.000813961
0.000851644
0.000893663
0.000939635
0.000989109
0.00104157
0.00109646
0.00115318
0.00121114
0.00126981
0.00132867
0.0013873
0.00144536
0.00150255
0.00155867
0.00161355
0.0016671
0.00171924
0.00176995
0.00181924
0.00186713
0.00191366
0.0019589
0.00200291
0.00204578
0.00208757
0.00212838
0.00216829
0.00220738
0.00224575
0.00228346
0.00232059
0.00235721
0.0023934
0.00242921
0.00246471
0.00249993
0.00253493
0.00256975
0.00260443
0.00263898
0.00267345
0.00270784
0.00274218
0.00277647
0.00281072
0.00284494
0.00287912
0.00291327
0.00294737
0.00298142
0.00301541
0.00304933
0.00308316
0.00311689
0.00315051
0.00318398
0.00321731
0.00325046
0.00328343
0.00331618
0.0033487
0.00338098
0.00341298
0.0034447
0.0034761
0.00350717
0.0035379
0.00356825
0.00359819
0.00362765
0.00365672
0.00368541
0.00371375
0.00374173
0.00376936
0.00379663
0.00382353
0.00385004
0.00387616
0.00390188
0.0039272
0.00395209
0.00397657
0.00400062
0.00402423
0.00404741
0.00407015
0.00409245
0.0041143
0.0041357
0.00415666
0.00417717
0.00419722
0.00421684
0.004236
0.0042547
0.00427295
0.00429074
0.00430805
0.00432489
0.00434124
0.00435708
0.00437241
0.00438719
0.00440141
0.00441504
0.00442804
0.00444039
0.00445204
0.00446296
0.00447311
0.00448242
0.00449084
0.00449838
0.00450491
0.00451039
0.00451481
0.00451809
0.00452021
0.00452114
0.00452084
0.00451929
0.00451647
0.00451236
0.00450694
0.00450021
0.00449216
0.00448278
0.00447206
0.00445996
0.00444649
0.00443167
0.00441555
0.00439818
0.00437962
0.00435993
0.00433916
0.00431737
0.00429461
0.00427094
0.00424638
0.00422098
0.00419477
0.00416777
0.00413999
0.00411143
0.00408209
0.00405195
0.00402099
0.00398918
0.0039565
0.00392291
0.00388841
0.003853
0.00381669
0.00377947
0.00374126
0.00370148
0.00365947
3.71318e-05
0.000161897
0.000289983
0.0003972
0.000484108
0.000553512
0.000607834
0.000649514
0.000680679
0.000703328
0.000719456
0.00073111
0.000740366
0.00074924
0.000759556
0.000772823
0.000790157
0.00081227
0.000839509
0.000871937
0.000909396
0.000951576
0.00099806
0.00104835
0.00110192
0.00115817
0.00121653
0.00127642
0.0013373
0.00139867
0.00146009
0.00152118
0.00158162
0.00164118
0.00169967
0.00175693
0.00181288
0.00186745
0.00192063
0.00197241
0.00202281
0.00207187
0.00211964
0.00216619
0.00221158
0.00225589
0.0022992
0.00234158
0.00238311
0.00242388
0.00246396
0.00250342
0.00254233
0.00258076
0.00261878
0.00265644
0.00269379
0.00273087
0.00276774
0.00280443
0.00284096
0.00287737
0.00291367
0.00294988
0.00298603
0.0030221
0.00305811
0.00309406
0.00312994
0.00316576
0.0032015
0.00323715
0.0032727
0.00330814
0.00334345
0.00337861
0.00341361
0.00344843
0.00348305
0.00351746
0.00355162
0.00358552
0.00361915
0.00365247
0.00368548
0.00371815
0.00375046
0.00378239
0.00381393
0.00384498
0.00387559
0.0039058
0.00393562
0.00396506
0.00399412
0.0040228
0.00405108
0.00407896
0.00410642
0.00413347
0.00416008
0.00418625
0.00421197
0.00423724
0.00426206
0.00428642
0.00431032
0.00433375
0.00435673
0.00437924
0.00440129
0.00442289
0.00444404
0.00446475
0.00448502
0.00450486
0.00452427
0.00454326
0.00456183
0.00457998
0.00459772
0.00461503
0.00463193
0.0046484
0.00466442
0.00467997
0.00469505
0.00470964
0.0047237
0.00473718
0.00475005
0.00476232
0.00477386
0.00478463
0.0047946
0.00480371
0.00481189
0.0048191
0.00482529
0.00483039
0.00483436
0.00483715
0.00483871
0.004839
0.00483797
0.00483559
0.00483182
0.00482665
0.00482003
0.00481194
0.00480235
0.00479124
0.00477861
0.00476448
0.00474885
0.00473177
0.00471327
0.00469339
0.00467216
0.00464962
0.00462581
0.00460077
0.00457453
0.00454711
0.00451854
0.00448883
0.00445798
0.00442601
0.00439289
0.00435863
0.00432321
0.00428663
0.00424889
0.00421001
0.00417005
0.00412909
0.00408722
0.00404447
0.00400054
0.00395518
4.12662e-05
0.00017447
0.000311506
0.000426471
0.000519663
0.000593962
0.000652459
0.000697787
0.000732272
0.000758079
0.000777318
0.000792096
0.000804499
0.00081652
0.000829957
0.000846308
0.000866697
0.000891856
0.000922148
0.000957625
0.000998097
0.0010432
0.00109247
0.00114534
0.00120124
0.00125958
0.00131979
0.0013813
0.00144362
0.0015063
0.00156893
0.00163118
0.00169278
0.00175349
0.00181315
0.00187164
0.00192885
0.00198474
0.00203927
0.00209246
0.00214431
0.00219485
0.00224413
0.0022922
0.00233913
0.00238498
0.00242982
0.00247373
0.00251678
0.00255905
0.00260061
0.00264153
0.00268188
0.00272172
0.00276112
0.00280014
0.00283881
0.00287721
0.00291535
0.00295329
0.00299105
0.00302867
0.00306616
0.00310355
0.00314084
0.00317805
0.00321518
0.00325223
0.00328921
0.0033261
0.0033629
0.0033996
0.00343619
0.00347265
0.00350896
0.00354512
0.0035811
0.00361688
0.00365245
0.00368778
0.00372285
0.00375765
0.00379215
0.00382633
0.00386017
0.00389365
0.00392676
0.00395947
0.00399174
0.00402355
0.00405494
0.00408592
0.0041165
0.00414669
0.00417648
0.00420587
0.00423483
0.00426337
0.00429146
0.0043191
0.00434629
0.004373
0.00439924
0.00442501
0.00445028
0.00447508
0.00449939
0.00452321
0.00454656
0.00456943
0.00459182
0.00461375
0.00463523
0.00465628
0.00467689
0.0046971
0.00471691
0.00473634
0.00475538
0.00477406
0.00479239
0.00481038
0.00482804
0.00484538
0.00486238
0.00487902
0.00489532
0.00491127
0.00492687
0.004942
0.00495668
0.00497088
0.00498454
0.0049976
0.00501003
0.00502175
0.00503272
0.00504287
0.00505213
0.00506044
0.00506771
0.0050739
0.00507892
0.00508272
0.00508521
0.00508635
0.00508607
0.00508432
0.00508105
0.0050762
0.00506972
0.00506159
0.00505176
0.00504022
0.00502697
0.005012
0.00499531
0.00497694
0.00495689
0.00493518
0.00491184
0.00488689
0.00486037
0.00483227
0.00480264
0.00477148
0.00473879
0.0047046
0.0046689
0.00463169
0.00459298
0.0045528
0.00451117
0.00446815
0.00442385
0.00437841
0.00433199
0.00428475
0.00423651
0.00418725
4.47194e-05
0.000184555
0.000328827
0.000450275
0.000548941
0.000628107
0.000690963
0.000740294
0.000778565
0.000808044
0.0008309
0.000849241
0.000865119
0.000880469
0.000897032
0.00091627
0.000939298
0.000966856
0.000999324
0.00103676
0.00107899
0.00112564
0.00117622
0.00123018
0.00128694
0.00134592
0.00140657
0.00146837
0.00153085
0.0015936
0.00165625
0.0017185
0.00178011
0.00184086
0.00190059
0.0019592
0.0020166
0.00207273
0.00212758
0.00218112
0.00223339
0.00228439
0.00233418
0.0023828
0.00243031
0.00247676
0.00252223
0.00256677
0.00261047
0.00265339
0.00269561
0.00273718
0.00277818
0.00281867
0.00285871
0.00289836
0.00293767
0.00297668
0.00301544
0.00305399
0.00309237
0.00313059
0.00316869
0.00320667
0.00324457
0.00328238
0.00332012
0.00335778
0.00339537
0.00343288
0.0034703
0.00350762
0.00354483
0.00358191
0.00361886
0.00365564
0.00369224
0.00372865
0.00376483
0.00380078
0.00383646
0.00387186
0.00390695
0.00394171
0.00397613
0.00401018
0.00404384
0.00407709
0.0041099
0.0041423
0.0041743
0.00420589
0.00423709
0.00426788
0.00429826
0.00432821
0.00435772
0.00438678
0.00441537
0.00444348
0.00447111
0.00449823
0.00452486
0.00455097
0.00457657
0.00460165
0.00462623
0.00465029
0.00467385
0.0046969
0.00471947
0.00474155
0.00476317
0.00478435
0.00480511
0.00482547
0.00484546
0.00486509
0.00488439
0.00490335
0.00492203
0.00494044
0.00495861
0.00497658
0.0049943
0.00501178
0.00502904
0.00504609
0.00506291
0.00507947
0.00509575
0.00511172
0.00512735
0.00514258
0.00515737
0.00517166
0.00518538
0.00519846
0.00521083
0.0052224
0.00523309
0.00524282
0.00525149
0.00525902
0.00526531
0.00527027
0.00527382
0.00527587
0.00527634
0.00527516
0.00527226
0.00526755
0.005261
0.00525254
0.00524215
0.00522978
0.00521543
0.00519907
0.00518071
0.00516035
0.00513798
0.00511363
0.0050873
0.00505901
0.00502876
0.00499658
0.00496247
0.00492644
0.00488851
0.00484869
0.00480702
0.00476351
0.00471825
0.00467133
0.00462288
0.0045731
0.00452223
0.00447047
0.00441776
0.00436416
4.74515e-05
0.000192131
0.000341837
0.000468577
0.00057224
0.000656029
0.000723202
0.000776644
0.00081891
0.000852324
0.000879064
0.000901207
0.000920733
0.00093949
0.000959134
0.000981062
0.00100635
0.00103575
0.00106963
0.00110811
0.00115101
0.00119802
0.00124867
0.00130243
0.00135876
0.0014171
0.00147695
0.00153782
0.00159927
0.00166093
0.00172247
0.0017836
0.0018441
0.00190378
0.00196249
0.00202014
0.00207664
0.00213195
0.00218604
0.0022389
0.00229055
0.00234101
0.00239031
0.0024385
0.00248564
0.00253177
0.00257696
0.00262128
0.00266478
0.00270755
0.00274963
0.00279111
0.00283203
0.00287248
0.0029125
0.00295214
0.00299147
0.00303053
0.00306935
0.00310799
0.00314647
0.00318482
0.00322307
0.00326123
0.00329933
0.00333736
0.00337534
0.00341327
0.00345115
0.00348897
0.00352673
0.00356441
0.003602
0.00363948
0.00367684
0.00371405
0.00375109
0.00378795
0.0038246
0.00386101
0.00389717
0.00393304
0.00396861
0.00400385
0.00403874
0.00407326
0.00410739
0.00414114
0.00417451
0.0042075
0.00424011
0.00427233
0.00430415
0.00433556
0.00436654
0.00439707
0.00442714
0.00445674
0.00448584
0.00451443
0.00454251
0.00457005
0.00459705
0.00462351
0.00464941
0.00467477
0.00469957
0.00472384
0.00474756
0.00477075
0.00479341
0.00481556
0.00483724
0.00485845
0.00487923
0.0048996
0.00491962
0.00493932
0.00495868
0.00497775
0.00499657
0.00501519
0.00503363
0.00505193
0.00507011
0.00508817
0.00510613
0.00512403
0.00514185
0.00515959
0.00517723
0.00519477
0.00521216
0.00522937
0.00524635
0.00526304
0.00527938
0.00529529
0.00531069
0.00532549
0.00533959
0.00535288
0.00536526
0.00537661
0.00538682
0.00539578
0.00540336
0.00540945
0.00541395
0.00541674
0.00541772
0.0054168
0.00541388
0.00540889
0.00540174
0.00539239
0.00538079
0.00536688
0.00535065
0.00533207
0.00531112
0.00528779
0.00526209
0.00523402
0.00520357
0.00517077
0.00513561
0.00509812
0.00505831
0.00501621
0.00497186
0.00492532
0.00487668
0.00482607
0.00477365
0.00471968
0.00466442
0.00460814
0.00455082
0.00449255
4.94662e-05
0.000197219
0.000350921
0.000482006
0.000589961
0.000677898
0.000749097
0.000806498
0.000852699
0.00089004
0.00092068
0.000946634
0.00096979
0.000991886
0.00101447
0.00103885
0.00106604
0.00109676
0.00113141
0.00117013
0.0012128
0.00125915
0.00130877
0.0013612
0.00141593
0.00147247
0.00153034
0.0015891
0.00164836
0.00170776
0.00176702
0.00182587
0.00188411
0.00194157
0.00199812
0.00205368
0.00210816
0.00216153
0.00221376
0.00226486
0.00231484
0.00236372
0.00241153
0.00245833
0.00250415
0.00254905
0.00259309
0.00263634
0.00267885
0.0027207
0.00276193
0.00280263
0.00284284
0.00288263
0.00292205
0.00296117
0.00300002
0.00303865
0.00307712
0.00311544
0.00315366
0.00319181
0.0032299
0.00326796
0.003306
0.00334403
0.00338205
0.00342007
0.00345808
0.00349608