/*--------------------------------*- C++ -*----------------------------------*\
  =========                 |
  \\      /  F ield         | OpenFOAM: The Open Source CFD Toolbox
   \\    /   O peration     | Website:  https://openfoam.org
    \\  /    A nd           | Version:  12
     \\/     M anipulation  |
\*---------------------------------------------------------------------------*/
FoamFile
{
    format      ascii;
    class       volScalarField;
    location    "0.08";
    object      p;
}
// * * * * * * * * * * * * * * * * * * * * * * * * * * * * * * * * * * * * * //

dimensions      [0 2 -2 0 0 0 0];

internalField   nonuniform List<scalar> 
12225
(
-1.05507
-3.33778
-4.49956
-4.80667
-4.97355
-5.13143
-5.25372
-5.33927
-5.40532
-5.46189
-5.51048
-5.55049
-5.58159
-5.60184
-5.60849
-5.58596
-5.54425
-5.35595
-4.52261
-5.22443
-5.31397
-5.17782
-5.13636
-5.20185
-5.28033
-5.34335
-5.39684
-5.44585
-5.48991
-5.52745
-5.55762
-5.57844
-5.58855
-5.5766
-5.56118
-5.49492
-4.72739
-4.62415
-4.78025
-4.90134
-5.00729
-5.12783
-5.23388
-5.31377
-5.37754
-5.43312
-5.48196
-5.52346
-5.55733
-5.58244
-5.59876
-5.60097
-5.60971
-5.62098
-4.59015
-4.51173
-4.78711
-4.96481
-5.05788
-5.15328
-5.24622
-5.32107
-5.38235
-5.43648
-5.48472
-5.52645
-5.56148
-5.58943
-5.61134
-5.62688
-5.65368
-5.70189
-4.5972
-4.61417
-4.85359
-5.00248
-5.07717
-5.16018
-5.24768
-5.32115
-5.38194
-5.4358
-5.48426
-5.52692
-5.56386
-5.59547
-5.6236
-5.65067
-5.69023
-5.75354
-4.65901
-4.7012
-4.87833
-5.00808
-5.08476
-5.16566
-5.24994
-5.32231
-5.38293
-5.43683
-5.48571
-5.5295
-5.56856
-5.60382
-5.63762
-5.67347
-5.72121
-5.78997
-4.71891
-4.75817
-4.89395
-5.0152
-5.09634
-5.1745
-5.25425
-5.32479
-5.38508
-5.439
-5.48832
-5.53327
-5.57444
-5.61308
-5.65168
-5.69378
-5.74633
-5.81545
-4.77227
-4.80692
-4.91662
-5.02835
-5.10972
-5.18415
-5.25931
-5.32785
-5.38774
-5.44168
-5.49145
-5.53756
-5.58072
-5.62234
-5.66472
-5.71097
-5.76575
-5.83255
-4.82233
-4.85383
-4.94406
-5.04401
-5.12298
-5.19409
-5.2652
-5.33163
-5.39092
-5.44483
-5.49501
-5.54217
-5.58708
-5.6311
-5.67623
-5.72491
-5.78008
-5.8434
-4.87002
-4.89843
-4.97308
-5.0612
-5.13657
-5.20473
-5.27219
-5.33631
-5.39477
-5.44851
-5.49899
-5.54699
-5.59329
-5.63908
-5.68598
-5.73574
-5.79012
-5.84962
-4.91519
-4.94027
-5.0026
-5.07996
-5.15094
-5.21613
-5.2802
-5.34192
-5.3993
-5.45274
-5.50335
-5.55194
-5.59921
-5.64615
-5.69396
-5.74383
-5.79671
-5.85246
-4.95413
-4.97629
-5.0297
-5.09834
-5.16481
-5.22714
-5.28833
-5.34783
-5.40408
-5.45706
-5.50763
-5.55648
-5.60426
-5.65172
-5.69976
-5.74911
-5.80028
-5.85287
-4.99032
-5.00996
-5.05612
-5.11711
-5.17899
-5.23842
-5.29692
-5.35427
-5.40927
-5.46167
-5.51202
-5.56092
-5.60888
-5.65648
-5.7043
-5.75279
-5.80215
-5.85187
-5.0285
-5.04567
-5.08516
-5.13871
-5.19551
-5.25159
-5.3072
-5.36219
-5.41567
-5.46723
-5.51713
-5.56579
-5.6136
-5.66091
-5.70807
-5.75528
-5.80253
-5.84935
-5.06747
-5.08227
-5.1159
-5.1626
-5.21413
-5.2665
-5.31908
-5.37157
-5.42327
-5.47368
-5.52281
-5.57088
-5.61812
-5.66469
-5.71074
-5.75629
-5.80126
-5.84524
-5.10534
-5.11803
-5.14677
-5.18752
-5.234
-5.28256
-5.33208
-5.38203
-5.43175
-5.48072
-5.52875
-5.57585
-5.62207
-5.66746
-5.71202
-5.75567
-5.7983
-5.83961
-5.13927
-5.15027
-5.17523
-5.21124
-5.25337
-5.29845
-5.34511
-5.39263
-5.44035
-5.48769
-5.53433
-5.58013
-5.625
-5.66888
-5.71169
-5.75334
-5.7937
-5.83258
-5.16494
-5.17478
-5.19727
-5.23012
-5.2692
-5.31168
-5.35612
-5.40169
-5.44767
-5.49346
-5.53867
-5.58304
-5.62642
-5.66868
-5.7097
-5.74941
-5.78769
-5.82445
-5.17536
-5.18481
-5.20649
-5.23835
-5.27649
-5.31806
-5.36159
-5.40623
-5.45126
-5.49608
-5.54023
-5.58342
-5.62549
-5.66631
-5.70578
-5.74382
-5.78038
-5.81542
-5.16209
-5.17227
-5.19554
-5.22962
-5.26999
-5.31331
-5.35804
-5.4035
-5.44908
-5.49414
-5.53823
-5.58112
-5.62268
-5.66281
-5.70145
-5.73855
-5.7741
-5.80809
-5.13706
-5.14839
-5.1745
-5.21273
-5.25715
-5.30352
-5.35051
-5.3978
-5.44477
-5.49071
-5.53527
-5.57835
-5.61988
-5.65981
-5.6981
-5.73476
-5.76979
-5.80325
-5.10297
-5.1155
-5.1459
-5.19092
-5.24112
-5.29111
-5.34085
-5.39068
-5.43967
-5.48691
-5.53222
-5.57573
-5.61746
-5.65739
-5.69554
-5.73195
-5.76668
-5.79979
-5.06298
-5.07574
-5.11149
-5.16665
-5.22452
-5.27841
-5.33101
-5.38358
-5.43465
-5.48324
-5.52944
-5.57354
-5.6156
-5.65566
-5.69378
-5.73007
-5.76462
-5.79753
-5.01958
-5.03131
-5.07409
-5.1413
-5.20676
-5.26531
-5.32227
-5.37814
-5.43096
-5.48045
-5.52732
-5.57191
-5.61424
-5.65438
-5.69246
-5.72865
-5.76306
-5.79579
-4.97303
-4.98096
-5.0424
-5.12279
-5.1887
-5.24929
-5.31226
-5.37303
-5.42811
-5.47858
-5.52613
-5.5712
-5.61375
-5.6539
-5.6919
-5.72796
-5.76224
-5.79488
-4.92528
-4.90182
-5.01301
-5.12255
-5.18389
-5.23892
-5.30342
-5.36697
-5.42356
-5.47498
-5.52334
-5.569
-5.61187
-5.65216
-5.6902
-5.72624
-5.76047
-5.79303
-4.9161
-4.77196
-4.93142
-5.09822
-5.18347
-5.24541
-5.31126
-5.3736
-5.42863
-5.47916
-5.52704
-5.57226
-5.61466
-5.6545
-5.69211
-5.72775
-5.76165
-5.794
-5.06157
-4.77793
-4.81307
-4.94414
-5.06448
-5.17241
-5.26751
-5.34444
-5.40797
-5.46457
-5.51677
-5.56488
-5.60924
-5.65045
-5.68901
-5.72531
-5.75985
-5.79323
-4.9984
-5.49826
-5.50879
-5.35015
-5.26997
-5.29505
-5.35021
-5.40078
-5.44715
-5.49307
-5.53815
-5.58109
-5.62151
-5.6596
-5.69554
-5.72942
-5.7615
-5.79361
-1.65976
-3.53049
-4.60216
-4.89581
-5.0314
-5.16905
-5.28199
-5.36313
-5.42735
-5.48471
-5.53744
-5.5856
-5.62975
-5.67061
-5.70859
-5.74368
-5.77554
-5.80237
-6.92971
-6.92392
-6.91973
-6.918
-6.91813
-6.91965
-6.9221
-6.92492
-6.92751
-6.92936
-6.93052
-6.93099
-6.93083
-6.93018
-6.92929
-6.9285
-6.9281
-6.9285
-6.9302
-6.93383
-6.94053
-6.95159
-6.96243
-6.96505
-6.97497
-7.00364
-7.02153
-7.0347
-7.06164
-7.09343
-7.12921
-7.16856
-7.21077
-7.25511
-7.30081
-7.34718
-7.39358
-7.43948
-7.48445
-7.52815
-7.57034
-7.61087
-7.64964
-7.68659
-7.7217
-7.75498
-7.78646
-7.81615
-7.84408
-7.87027
-7.89474
-7.9175
-7.93853
-7.95784
-7.97538
-7.99113
-8.00504
-8.01705
-8.02709
-8.03508
-8.04094
-8.04457
-8.04586
-8.0447
-8.04096
-8.03453
-8.02526
-8.01302
-7.99766
-7.97902
-7.95696
-7.93131
-7.90191
-7.8686
-7.8312
-7.78955
-7.74348
-7.69281
-7.63737
-7.57698
-7.51146
-7.44066
-7.36438
-7.28246
-7.19473
-7.10103
-7.0012
-6.89508
-6.78258
-6.66363
-6.53805
-6.40548
-6.26574
-6.11847
-5.96369
-5.80134
-5.6313
-5.45345
-5.26769
-5.07389
-4.87197
-4.66184
-4.44341
-4.21664
-3.98148
-3.7379
-3.48591
-3.22552
-2.95678
-2.67976
-2.39455
-2.1013
-1.80016
-1.49135
-1.17509
-0.851677
-0.521427
-0.184707
0.158072
0.506455
0.859938
1.21797
1.57997
1.94529
2.31326
2.68316
3.05424
3.42573
3.7968
4.16665
4.53442
4.89928
5.2604
5.61694
5.96809
6.3131
6.65122
6.98177
7.30412
7.61771
7.92204
8.21671
8.50138
8.77582
9.03987
9.29346
9.53666
9.76958
9.99242
10.2055
10.4092
10.6037
10.7897
10.9676
11.1381
11.3022
11.4604
11.6138
11.763
11.9091
12.053
12.1957
12.338
12.481
12.6257
12.7729
12.9236
13.0786
13.2387
13.4047
13.5772
13.7568
13.9441
14.1395
14.3437
14.5576
14.7838
15.0263
15.3071
15.6351
-6.93419
-6.92947
-6.9262
-6.92581
-6.92734
-6.92954
-6.93164
-6.93312
-6.93366
-6.9331
-6.93107
-6.92769
-6.9233
-6.91841
-6.91355
-6.90919
-6.90551
-6.90257
-6.90054
-6.89976
-6.90053
-6.90233
-6.90358
-6.91115
-6.92745
-6.9374
-6.95284
-6.98286
-7.0162
-7.05237
-7.09204
-7.1349
-7.18022
-7.22719
-7.27501
-7.32297
-7.37048
-7.41706
-7.46235
-7.5061
-7.54814
-7.58838
-7.62676
-7.66328
-7.69796
-7.73082
-7.7619
-7.79124
-7.81886
-7.84479
-7.86905
-7.89165
-7.91258
-7.93183
-7.94937
-7.96516
-7.97917
-7.99132
-8.00155
-8.00979
-8.01593
-8.01989
-8.02157
-8.02084
-8.01758
-8.01167
-8.00298
-7.99136
-7.97666
-7.95874
-7.93745
-7.91262
-7.88409
-7.8517
-7.81527
-7.77465
-7.72966
-7.68013
-7.62589
-7.56676
-7.50258
-7.43316
-7.35835
-7.27796
-7.19184
-7.0998
-7.00167
-6.8973
-6.78649
-6.66905
-6.54477
-6.41336
-6.27481
-6.12926
-5.97644
-5.81615
-5.64826
-5.47262
-5.28913
-5.09765
-4.8981
-4.69038
-4.47441
-4.25013
-4.0175
-3.77649
-3.52709
-3.26931
-3.00319
-2.72879
-2.44622
-2.15558
-1.85705
-1.55081
-1.23709
-0.916173
-0.588358
-0.254001
0.0864975
0.432695
0.784103
1.14019
1.50037
1.86402
2.23049
2.59906
2.96901
3.33955
3.7099
4.07924
4.44674
4.81155
5.17286
5.52982
5.88164
6.22753
6.56676
6.89863
7.2225
7.5378
7.84401
8.14071
8.42753
8.70423
8.97061
9.2266
9.47221
9.70755
9.93276
10.1481
10.3539
10.5505
10.7384
10.9182
11.0904
11.2559
11.4154
11.5698
11.7198
11.8664
12.0106
12.1532
12.2952
12.4377
12.5815
12.7276
12.8769
13.0304
13.1888
13.3528
13.5233
13.7008
13.8859
14.0792
14.2816
14.494
14.7195
14.9609
15.2379
15.5389
-6.94026
-6.93651
-6.93398
-6.93412
-6.93585
-6.93789
-6.93946
-6.94015
-6.93969
-6.93793
-6.93477
-6.93029
-6.9247
-6.91831
-6.9115
-6.90465
-6.89817
-6.89255
-6.8884
-6.88619
-6.88641
-6.88896
-6.89381
-6.90236
-6.9164
-6.93372
-6.95443
-6.98255
-7.01574
-7.05277
-7.09298
-7.13563
-7.17999
-7.22537
-7.27116
-7.31684
-7.36197
-7.40621
-7.44928
-7.49099
-7.53119
-7.56981
-7.60678
-7.64208
-7.67572
-7.70769
-7.73803
-7.76673
-7.79383
-7.81932
-7.84323
-7.86555
-7.88626
-7.90535
-7.92279
-7.93854
-7.95254
-7.96475
-7.97508
-7.98345
-7.98979
-7.99399
-7.99595
-7.99556
-7.99269
-7.98721
-7.979
-7.96792
-7.95382
-7.93654
-7.91595
-7.89187
-7.86415
-7.83263
-7.79714
-7.75751
-7.71357
-7.66516
-7.61209
-7.5542
-7.49132
-7.42328
-7.3499
-7.27102
-7.18647
-7.09607
-6.99965
-6.89705
-6.78808
-6.67253
-6.55019
-6.42105
-6.28486
-6.14159
-5.99109
-5.8332
-5.66778
-5.49468
-5.3138
-5.12501
-4.9282
-4.72328
-4.51018
-4.28882
-4.05916
-3.82116
-3.57481
-3.32011
-3.05709
-2.78582
-2.50637
-2.21887
-1.92346
-1.62031
-1.30966
-0.991763
-0.666908
-0.335441
0.00225659
0.345755
0.694581
1.04822
1.4061
1.76763
2.13215
2.49898
2.8674
3.23664
3.60593
3.97447
4.34143
4.70598
5.06729
5.42455
5.77694
6.12369
6.46404
6.7973
7.1228
7.43996
7.74825
8.04722
8.33648
8.61574
8.88478
9.1435
9.39185
9.62991
9.85782
10.0758
10.2841
10.4832
10.6735
10.8555
11.0299
11.1972
11.3583
11.5139
11.6649
11.8121
11.9566
12.0992
12.2408
12.3826
12.5254
12.6702
12.8179
12.9695
13.1257
13.2875
13.4554
13.6303
13.8128
14.0036
14.2035
14.4139
14.6376
14.8762
15.1481
15.4206
-6.94483
-6.94365
-6.94275
-6.94349
-6.94505
-6.94645
-6.94714
-6.94682
-6.94528
-6.94241
-6.93817
-6.93263
-6.92598
-6.91852
-6.91065
-6.90282
-6.89559
-6.88953
-6.88533
-6.88357
-6.88473
-6.88922
-6.89734
-6.90959
-6.92638
-6.9475
-6.97267
-7.00226
-7.03572
-7.07235
-7.11146
-7.15242
-7.19464
-7.23758
-7.28076
-7.32377
-7.36627
-7.40798
-7.44867
-7.48818
-7.52638
-7.56319
-7.59856
-7.63245
-7.66484
-7.69574
-7.72514
-7.75304
-7.77947
-7.8044
-7.82784
-7.84978
-7.8702
-7.88908
-7.90637
-7.92203
-7.936
-7.94823
-7.95864
-7.96715
-7.97367
-7.9781
-7.98034
-7.98026
-7.97775
-7.97268
-7.96493
-7.95434
-7.94077
-7.92408
-7.90411
-7.88071
-7.85371
-7.82295
-7.78827
-7.74949
-7.70646
-7.65899
-7.60692
-7.55007
-7.48829
-7.42138
-7.34919
-7.27155
-7.18827
-7.09919
-7.00414
-6.90295
-6.79544
-6.68141
-6.56074
-6.4333
-6.29895
-6.15756
-6.00899
-5.85308
-5.68969
-5.5187
-5.33997
-5.15338
-4.95883
-4.75622
-4.54547
-4.3265
-4.09926
-3.86372
-3.61984
-3.36765
-3.10714
-2.83839
-2.56146
-2.27647
-1.98355
-1.68287
-1.37464
-1.05912
-0.736578
-0.407357
-0.0718256
0.269601
0.616462
0.968253
1.32442
1.68438
2.04748
2.41306
2.78041
3.14877
3.51738
3.88544
4.25212
4.61662
4.9781
5.33573
5.68871
6.03626
6.37762
6.71208
7.03896
7.35768
7.66767
7.96847
8.25967
8.54097
8.81215
9.07305
9.32361
9.56386
9.79391
10.0139
10.2242
10.4251
10.6171
10.8007
10.9765
11.1451
11.3071
11.4635
11.6151
11.7626
11.9071
12.0494
12.1905
12.3315
12.4732
12.6166
12.7628
12.9125
13.0667
13.2262
13.3918
13.5642
13.7441
13.9323
14.1297
14.3374
14.558
14.7915
15.0536
15.2979
-6.94248
-6.94422
-6.94546
-6.94724
-6.94902
-6.95019
-6.95043
-6.94956
-6.94743
-6.94399
-6.93925
-6.93332
-6.92643
-6.91894
-6.91129
-6.90406
-6.89784
-6.89326
-6.89092
-6.89139
-6.8951
-6.90243
-6.91363
-6.9289
-6.94833
-6.97175
-6.99894
-7.02961
-7.06325
-7.0993
-7.13723
-7.17653
-7.21673
-7.25741
-7.29818
-7.33874
-7.37881
-7.41815
-7.45661
-7.49402
-7.5303
-7.56536
-7.59916
-7.63164
-7.6628
-7.69261
-7.72107
-7.74818
-7.77391
-7.79828
-7.82125
-7.8428
-7.86293
-7.88158
-7.89871
-7.91428
-7.92822
-7.94047
-7.95095
-7.95958
-7.96626
-7.97089
-7.97336
-7.97356
-7.97137
-7.96665
-7.95928
-7.94911
-7.936
-7.91979
-7.90034
-7.87749
-7.85107
-7.82093
-7.78689
-7.74879
-7.70647
-7.65975
-7.60846
-7.55243
-7.49149
-7.42548
-7.35421
-7.27752
-7.19524
-7.1072
-7.01323
-6.91316
-6.80682
-6.69405
-6.57469
-6.44861
-6.31567
-6.17573
-6.02864
-5.87426
-5.71244
-5.54305
-5.36597
-5.18106
-4.98823
-4.78737
-4.5784
-4.36124
-4.13582
-3.90212
-3.6601
-3.40975
-3.15111
-2.8842
-2.60911
-2.32592
-2.03478
-1.73585
-1.42932
-1.11545
-0.794497
-0.466795
-0.132703
0.20737
0.552974
0.903611
1.25874
1.61778
1.98009
2.34502
2.71185
3.07984
3.44822
3.81621
4.18298
4.54771
4.90956
5.26772
5.62138
5.96973
6.31201
6.64752
6.97556
7.29551
7.60683
7.90902
8.20169
8.4845
8.75719
9.01961
9.27168
9.51339
9.74483
9.96615
10.1776
10.3796
10.5726
10.7571
10.9335
11.1026
11.2651
11.4218
11.5734
11.7207
11.8648
12.0066
12.147
12.2869
12.4275
12.5695
12.7141
12.8621
13.0144
13.1718
13.3352
13.5054
13.6829
13.8686
14.0633
14.268
14.4846
14.7116
14.9626
15.1819
-6.93103
-6.93639
-6.94023
-6.94365
-6.94631
-6.94791
-6.94833
-6.94751
-6.94541
-6.94205
-6.93754
-6.93204
-6.92586
-6.91939
-6.91316
-6.90773
-6.90372
-6.90172
-6.90227
-6.90583
-6.91275
-6.92326
-6.93749
-6.95547
-6.97709
-7.00216
-7.03037
-7.06136
-7.09468
-7.12989
-7.16652
-7.20417
-7.24247
-7.28106
-7.31965
-7.358
-7.39588
-7.43311
-7.46955
-7.50509
-7.53963
-7.5731
-7.60546
-7.63666
-7.66668
-7.6955
-7.7231
-7.74946
-7.77457
-7.7984
-7.82094
-7.84216
-7.86202
-7.88048
-7.89749
-7.91299
-7.92692
-7.9392
-7.94976
-7.95851
-7.96535
-7.97017
-7.97288
-7.97334
-7.97143
-7.96703
-7.96
-7.9502
-7.93748
-7.92169
-7.90268
-7.88029
-7.85436
-7.82473
-7.79122
-7.75368
-7.71194
-7.66581
-7.61515
-7.55977
-7.49951
-7.43419
-7.36365
-7.28772
-7.20623
-7.11901
-7.0259
-6.92672
-6.82132
-6.70954
-6.59123
-6.46623
-6.33439
-6.19559
-6.04966
-5.89647
-5.73588
-5.56774
-5.39194
-5.20835
-5.01685
-4.81735
-4.60975
-4.39398
-4.16996
-3.93766
-3.69704
-3.4481
-3.19084
-2.9253
-2.65155
-2.36968
-2.07982
-1.78212
-1.47678
-1.16404
-0.844155
-0.51745
-0.184278
0.15496
0.499817
0.849803
1.20438
1.56298
1.92496
2.28967
2.65639
3.0244
3.39291
3.76114
4.12826
4.49346
4.85588
5.2147
5.56911
5.91829
6.26147
6.59793
6.92697
7.24797
7.56038
7.86368
8.15745
8.44135
8.71511
8.97856
9.23161
9.47423
9.70651
9.92858
10.1407
10.3433
10.5367
10.7214
10.8981
11.0673
11.2297
11.3862
11.5374
11.6843
11.8277
11.9687
12.1081
12.2469
12.3861
12.5267
12.6697
12.8159
12.9664
13.1218
13.2831
13.4511
13.6263
13.8095
14.0015
14.2028
14.415
14.6351
14.8754
15.0736
-6.91218
-6.92045
-6.92767
-6.93343
-6.93757
-6.94018
-6.94136
-6.94116
-6.93968
-6.93703
-6.9334
-6.92903
-6.92428
-6.9196
-6.91551
-6.91259
-6.9114
-6.91246
-6.91623
-6.92304
-6.93313
-6.94661
-6.96351
-6.98374
-7.00712
-7.03339
-7.06223
-7.09329
-7.12619
-7.16055
-7.196
-7.23221
-7.26886
-7.30569
-7.34245
-7.37894
-7.41499
-7.45045
-7.4852
-7.51915
-7.55222
-7.58435
-7.61549
-7.6456
-7.67466
-7.70263
-7.7295
-7.75524
-7.77983
-7.80324
-7.82544
-7.84639
-7.86606
-7.88439
-7.90132
-7.9168
-7.93076
-7.94311
-7.95378
-7.96267
-7.96968
-7.9747
-7.97762
-7.97833
-7.9767
-7.97259
-7.96587
-7.95639
-7.94402
-7.92859
-7.90996
-7.88796
-7.86244
-7.83323
-7.80016
-7.76307
-7.72179
-7.67615
-7.62598
-7.57111
-7.51138
-7.44661
-7.37664
-7.3013
-7.22042
-7.13385
-7.04141
-6.94294
-6.83827
-6.72727
-6.60976
-6.4856
-6.35463
-6.21672
-6.0717
-5.91945
-5.75981
-5.59267
-5.41787
-5.23531
-5.04486
-4.84642
-4.6399
-4.42521
-4.20228
-3.97106
-3.73151
-3.48363
-3.22741
-2.96289
-2.69013
-2.40921
-2.12025
-1.82342
-1.51889
-1.20689
-0.88769
-0.561595
-0.228956
0.109831
0.454324
0.804036
1.15844
1.51695
1.87895
2.24377
2.61071
2.97902
3.34794
3.71667
4.08437
4.45021
4.81336
5.17296
5.52818
5.87822
6.2223
6.55966
6.88963
7.21156
7.52487
7.82904
8.12365
8.40834
8.68284
8.94696
9.20059
9.44373
9.67643
9.89884
10.1112
10.3139
10.5073
10.692
10.8684
11.0373
11.1993
11.3552
11.5057
11.6518
11.7943
11.9342
12.0724
12.2099
12.3477
12.4868
12.6281
12.7725
12.9211
13.0746
13.2338
13.3995
13.5724
13.7531
13.9422
14.14
14.3474
14.5607
14.7913
14.9715
-6.88917
-6.90028
-6.91074
-6.91896
-6.92486
-6.92882
-6.93113
-6.93199
-6.93159
-6.93012
-6.92785
-6.92509
-6.92225
-6.91978
-6.9182
-6.91805
-6.91984
-6.92399
-6.93086
-6.94068
-6.95361
-6.96965
-6.98875
-7.01076
-7.03546
-7.06259
-7.09184
-7.12288
-7.15539
-7.18903
-7.22352
-7.25856
-7.29391
-7.32933
-7.36464
-7.39968
-7.43428
-7.46835
-7.50177
-7.53447
-7.56639
-7.59746
-7.62765
-7.65691
-7.68523
-7.71256
-7.73888
-7.76417
-7.78839
-7.81151
-7.83349
-7.85428
-7.87385
-7.89214
-7.90907
-7.9246
-7.93863
-7.9511
-7.9619
-7.97095
-7.97815
-7.98338
-7.98653
-7.98748
-7.9861
-7.98225
-7.97581
-7.96663
-7.95455
-7.93944
-7.92112
-7.89945
-7.87426
-7.84539
-7.81267
-7.77594
-7.73502
-7.68975
-7.63996
-7.58548
-7.52615
-7.4618
-7.39226
-7.31737
-7.23696
-7.15087
-7.05894
-6.96101
-6.85691
-6.7465
-6.62961
-6.50609
-6.37579
-6.23856
-6.09425
-5.94273
-5.78385
-5.61747
-5.44347
-5.26172
-5.07209
-4.87449
-4.66881
-4.45496
-4.23288
-4.00249
-3.76377
-3.51668
-3.26124
-2.99747
-2.72541
-2.44516
-2.15683
-1.86056
-1.55655
-1.245
-0.926174
-0.600383
-0.267969
0.0706742
0.415109
0.764851
1.11937
1.4781
1.8404
2.20562
2.57303
2.94191
3.31147
3.6809
4.04937
4.41603
4.78003
5.14051
5.49664
5.8476
6.19258
6.53085
6.86168
7.18442
7.4985
7.80338
8.09863
8.38387
8.65884
8.92334
9.17725
9.42057
9.65335
9.87574
10.088
10.2905
10.4836
10.6678
10.8437
11.0119
11.1731
11.3281
11.4777
11.6227
11.764
11.9026
12.0395
12.1755
12.3117
12.4491
12.5887
12.7313
12.8779
13.0294
13.1865
13.35
13.5205
13.6985
13.8846
14.0787
14.2813
14.4878
14.7097
14.8746
-6.86587
-6.87924
-6.89242
-6.90288
-6.91051
-6.91593
-6.91957
-6.92173
-6.92267
-6.92268
-6.92206
-6.92117
-6.92043
-6.9203
-6.92128
-6.92383
-6.9284
-6.93535
-6.94493
-6.95733
-6.97258
-6.99067
-7.01149
-7.03484
-7.06052
-7.08825
-7.11775
-7.14873
-7.1809
-7.21399
-7.24772
-7.28188
-7.31624
-7.35062
-7.38486
-7.41881
-7.45235
-7.4854
-7.51786
-7.54966
-7.58075
-7.61108
-7.64061
-7.66931
-7.69713
-7.72406
-7.75005
-7.77508
-7.79911
-7.82209
-7.84399
-7.86476
-7.88435
-7.90268
-7.9197
-7.93534
-7.94951
-7.96213
-7.97311
-7.98235
-7.98975
-7.99519
-7.99856
-7.99973
-7.99858
-7.99498
-7.98878
-7.97985
-7.96802
-7.95316
-7.9351
-7.91369
-7.88877
-7.86016
-7.8277
-7.79123
-7.75058
-7.70558
-7.65607
-7.60187
-7.54282
-7.47877
-7.40953
-7.33495
-7.25488
-7.16914
-7.07758
-6.98004
-6.87637
-6.76639
-6.64996
-6.52692
-6.39711
-6.2604
-6.11664
-5.96568
-5.80738
-5.64162
-5.46824
-5.28713
-5.09816
-4.90122
-4.6962
-4.48302
-4.26159
-4.03185
-3.79375
-3.54728
-3.29241
-3.02918
-2.75762
-2.47783
-2.1899
-1.89398
-1.59024
-1.27891
-0.96023
-0.634505
-0.302076
0.0366661
0.381286
0.731302
1.08618
1.44536
1.8082
2.17404
2.54216
2.9118
3.28219
3.6525
4.0219
4.38952
4.7545
5.11598
5.4731
5.82502
6.17094
6.51008
6.84173
7.16523
7.47997
7.78542
8.08114
8.36675
8.64197
8.90661
9.16055
9.40377
9.63634
9.85841
10.0702
10.2722
10.4646
10.6481
10.8231
10.9904
11.1506
11.3044
11.4528
11.5965
11.7364
11.8736
12.0088
12.1432
12.2778
12.4134
12.5511
12.6918
12.8365
12.9859
13.1408
13.302
13.4701
13.6454
13.8283
14.0185
14.2163
14.4162
14.6301
14.782
-6.84511
-6.86003
-6.87524
-6.88749
-6.89664
-6.90343
-6.90841
-6.91192
-6.9143
-6.91586
-6.91696
-6.91797
-6.91931
-6.92141
-6.92472
-6.92967
-6.93662
-6.94588
-6.95766
-6.97205
-6.98908
-7.00868
-7.03072
-7.05501
-7.08134
-7.10945
-7.13908
-7.16997
-7.20187
-7.23453
-7.26772
-7.30125
-7.33492
-7.36858
-7.40208
-7.43531
-7.46816
-7.50055
-7.5324
-7.56365
-7.59426
-7.62417
-7.65335
-7.68176
-7.70937
-7.73613
-7.76202
-7.787
-7.81102
-7.83404
-7.85602
-7.87689
-7.8966
-7.91509
-7.93227
-7.94809
-7.96245
-7.97526
-7.98644
-7.99588
-8.00348
-8.00912
-8.01269
-8.01407
-8.01312
-8.00971
-8.00371
-7.99497
-7.98334
-7.96867
-7.95081
-7.92958
-7.90484
-7.87641
-7.84413
-7.80784
-7.76736
-7.72254
-7.67319
-7.61917
-7.5603
-7.49642
-7.42738
-7.353
-7.27314
-7.18763
-7.09632
-6.99905
-6.89566
-6.78598
-6.66987
-6.54716
-6.41772
-6.28139
-6.13804
-5.98751
-5.82967
-5.66438
-5.49151
-5.31091
-5.12246
-4.92606
-4.72158
-4.50893
-4.28803
-4.0588
-3.82119
-3.57518
-3.32075
-3.05791
-2.7867
-2.50721
-2.21952
-1.92378
-1.62016
-1.30887
-0.990158
-0.664322
-0.331699
0.00732253
0.352311
0.702785
1.05822
1.41802
1.78157
2.14819
2.51717
2.88775
3.25912
3.63046
4.00093
4.36963
4.7357
5.09826
5.45642
5.80935
6.15621
6.49623
6.82867
7.15285
7.46816
7.77407
8.07012
8.35594
8.63123
8.8958
9.14954
9.39243
9.62455
9.84605
10.0572
10.2583
10.4498
10.6323
10.8062
10.9723
11.1312
11.2837
11.4306
11.5728
11.7111
11.8466
11.9802
12.1129
12.2456
12.3794
12.5151
12.6539
12.7965
12.9438
13.0965
13.2553
13.4208
13.5933
13.7729
13.9592
14.152
14.3457
14.5521
14.6931
-6.82867
-6.84443
-6.86093
-6.87444
-6.88477
-6.89273
-6.89889
-6.90366
-6.90739
-6.91043
-6.91313
-6.91588
-6.91907
-6.92311
-6.92838
-6.93528
-6.94411
-6.95512
-6.96849
-6.98429
-7.00251
-7.0231
-7.0459
-7.07074
-7.09742
-7.1257
-7.15534
-7.18611
-7.21777
-7.25011
-7.28293
-7.31605
-7.34929
-7.38252
-7.4156
-7.44844
-7.48094
-7.51301
-7.5446
-7.57565
-7.6061
-7.63591
-7.66504
-7.69345
-7.7211
-7.74795
-7.77396
-7.79909
-7.82329
-7.84651
-7.8687
-7.8898
-7.90974
-7.92846
-7.94587
-7.96191
-7.97649
-7.98952
-8.0009
-8.01053
-8.01831
-8.02413
-8.02786
-8.02939
-8.0286
-8.02533
-8.01947
-8.01086
-7.99935
-7.9848
-7.96704
-7.94592
-7.92128
-7.89294
-7.86076
-7.82455
-7.78415
-7.7394
-7.69013
-7.63618
-7.57738
-7.51358
-7.44462
-7.37034
-7.29058
-7.2052
-7.11402
-7.0169
-6.91367
-6.80417
-6.68825
-6.56577
-6.43657
-6.30052
-6.15747
-6.00728
-5.8498
-5.6849
-5.51243
-5.33225
-5.14425
-4.94829
-4.74426
-4.53206
-4.31159
-4.08278
-3.84558
-3.59994
-3.34584
-3.08329
-2.81233
-2.53303
-2.24548
-1.94981
-1.6462
-1.33483
-1.01597
-0.689908
-0.356977
-0.0175589
0.327917
0.678969
1.03507
1.39562
1.76001
2.12755
2.49752
2.86914
3.24161
3.61409
3.98571
4.35559
4.72281
5.0865
5.44575
5.7997
6.14751
6.48838
6.82156
7.14636
7.46217
7.76844
8.0647
8.35057
8.62577
8.8901
9.14345
9.38581
9.61726
9.83796
10.0482
10.2483
10.4387
10.6199
10.7925
10.9571
11.1146
11.2655
11.4108
11.5513
11.6879
11.8216
11.9534
12.0842
12.215
12.3468
12.4806
12.6173
12.7578
12.9029
13.0533
13.2097
13.3725
13.5421
13.7183
13.9006
14.0885
14.2761
14.4755
14.6072
-6.81731
-6.83336
-6.85046
-6.86469
-6.87581
-6.88463
-6.89174
-6.89755
-6.90241
-6.90669
-6.91075
-6.91495
-6.91964
-6.9252
-6.93197
-6.9403
-6.95045
-6.96264
-6.97702
-6.99365
-7.01254
-7.0336
-7.05673
-7.08176
-7.10851
-7.13675
-7.16627
-7.19687
-7.22832
-7.26043
-7.29301
-7.3259
-7.35893
-7.39199
-7.42494
-7.45769
-7.49014
-7.52223
-7.55388
-7.58503
-7.61563
-7.64564
-7.675
-7.70368
-7.73162
-7.75879
-7.78513
-7.8106
-7.83514
-7.8587
-7.88122
-7.90263
-7.92287
-7.94187
-7.95955
-7.97584
-7.99063
-8.00386
-8.01541
-8.0252
-8.03311
-8.03905
-8.04288
-8.0445
-8.04378
-8.04058
-8.03477
-8.0262
-8.01473
-8.0002
-7.98247
-7.96137
-7.93673
-7.9084
-7.87621
-7.83999
-7.79958
-7.75481
-7.70552
-7.65155
-7.59273
-7.52891
-7.45993
-7.38565
-7.30591
-7.22055
-7.1294
-7.03231
-6.92913
-6.8197
-6.70388
-6.58153
-6.45249
-6.31664
-6.17382
-6.02389
-5.86671
-5.70213
-5.53
-5.3502
-5.16258
-4.96702
-4.76339
-4.55158
-4.33151
-4.10307
-3.86621
-3.62089
-3.36708
-3.10478
-2.83402
-2.55486
-2.26739
-1.97174
-1.66807
-1.35657
-1.0375
-0.711147
-0.377838
-0.0379513
0.308083
0.659786
1.01662
1.37801
1.74331
2.11183
2.48286
2.85559
3.22923
3.6029
3.97573
4.34681
4.71522
5.08006
5.4404
5.79537
6.14411
6.48579
6.81967
7.14503
7.46125
7.76777
8.06412
8.34992
8.62488
8.88881
9.1416
9.38325
9.61385
9.83357
10.0427
10.2416
10.4306
10.6104
10.7815
10.9446
11.1003
11.2496
11.3931
11.5318
11.6666
11.7984
11.9283
12.0571
12.1859
12.3157
12.4475
12.5821
12.7204
12.8632
13.0113
13.1652
13.3253
13.4918
13.6646
13.8427
14.0258
14.2075
14.4002
14.524
-6.81109
-6.82704
-6.8442
-6.85867
-6.87019
-6.87953
-6.88725
-6.89378
-6.89947
-6.90466
-6.90971
-6.91495
-6.92071
-6.92731
-6.93508
-6.9443
-6.95522
-6.96803
-6.98287
-6.99981
-7.01886
-7.03997
-7.06303
-7.08792
-7.11446
-7.14247
-7.17175
-7.20211
-7.23335
-7.26528
-7.29773
-7.33055
-7.36357
-7.39668
-7.42974
-7.46267
-7.49537
-7.52775
-7.55975
-7.59129
-7.62233
-7.6528
-7.68265
-7.71182
-7.74027
-7.76794
-7.79478
-7.82073
-7.84573
-7.86972
-7.89264
-7.91442
-7.935
-7.95429
-7.97222
-7.98872
-8.00369
-8.01705
-8.02872
-8.03858
-8.04655
-8.05251
-8.05635
-8.05796
-8.05721
-8.05397
-8.04811
-8.03948
-8.02795
-8.01335
-7.99554
-7.97436
-7.94964
-7.92122
-7.88894
-7.85262
-7.81211
-7.76723
-7.71783
-7.66375
-7.60482
-7.5409
-7.47183
-7.39746
-7.31765
-7.23221
-7.14098
-7.04383
-6.9406
-6.83116
-6.71536
-6.59307
-6.46414
-6.32843
-6.1858
-6.0361
-5.87918
-5.7149
-5.5431
-5.36366
-5.17641
-4.98123
-4.77799
-4.56658
-4.34688
-4.11881
-3.8823
-3.63729
-3.38375
-3.12169
-2.85111
-2.57209
-2.28469
-1.98904
-1.6853
-1.37366
-1.05437
-0.727708
-0.394005
-0.0536348
0.292974
0.645342
1.00294
1.36516
1.73139
2.10092
2.47301
2.84688
3.22168
3.59656
3.9706
4.34288
4.71247
5.07844
5.43986
5.79581
6.14543
6.48787
6.82237
7.1482
7.46474
7.7714
8.06773
8.35333
8.62792
8.89131
9.14339
9.38418
9.61376
9.83234
10.0402
10.2377
10.4253
10.6035
10.7729
10.9343
11.0882
11.2356
11.3773
11.5141
11.647
11.7768
11.9047
12.0316
12.1584
12.2861
12.4158
12.5482
12.6843
12.8249
12.9706
13.1219
13.2792
13.4426
13.6118
13.7858
13.964
14.14
14.3263
14.4434
-6.80963
-6.82526
-6.84211
-6.85645
-6.868
-6.87749
-6.88547
-6.89233
-6.89844
-6.90413
-6.90972
-6.91553
-6.92186
-6.929
-6.93723
-6.9468
-6.95795
-6.97085
-6.98565
-7.00242
-7.02118
-7.04192
-7.06457
-7.08901
-7.1151
-7.14269
-7.1716
-7.20166
-7.23267
-7.26447
-7.29688
-7.32975
-7.36293
-7.39628
-7.42968
-7.46302
-7.4962
-7.52913
-7.56172
-7.59391
-7.62561
-7.65676
-7.68729
-7.71715
-7.74626
-7.77457
-7.80201
-7.82853
-7.85404
-7.8785
-7.90183
-7.92397
-7.94483
-7.96436
-7.98248
-7.9991
-8.01415
-8.02755
-8.03921
-8.04903
-8.05692
-8.06279
-8.06651
-8.06798
-8.06708
-8.06368
-8.05766
-8.04887
-8.03717
-8.02241
-8.00443
-7.98308
-7.95819
-7.9296
-7.89714
-7.86065
-7.81996
-7.77491
-7.72533
-7.67107
-7.61198
-7.54789
-7.47867
-7.40416
-7.32417
-7.23855
-7.14716
-7.04987
-6.94654
-6.83704
-6.72122
-6.59896
-6.47011
-6.33453
-6.19207
-6.04259
-5.88594
-5.72197
-5.55052
-5.37144
-5.18458
-4.98981
-4.78699
-4.57599
-4.3567
-4.12903
-3.89289
-3.64822
-3.39499
-3.1332
-2.86284
-2.58398
-2.29669
-2.00108
-1.69731
-1.38557
-1.06609
-0.73916
-0.405101
-0.0642867
0.282857
0.63585
0.994158
1.35719
1.7243
2.0948
2.46792
2.84287
3.2188
3.59483
3.97003
4.34347
4.71419
5.08123
5.44365
5.80052
6.15094
6.49406
6.82909
7.1553
7.47204
7.77874
8.07493
8.36021
8.6343
8.89701
9.14826
9.38805
9.61649
9.83379
10.0402
10.2362
10.4222
10.5987
10.7664
10.926
11.0781
11.2236
11.3633
11.4981
11.629
11.7569
11.8828
12.0076
12.1323
12.258
12.3856
12.5159
12.6498
12.788
12.9313
13.08
13.2344
13.3946
13.5602
13.73
13.9034
14.0739
14.2538
14.3651
-6.81242
-6.82768
-6.84407
-6.85802
-6.86927
-6.87852
-6.88631
-6.89305
-6.89909
-6.90477
-6.91039
-6.91624
-6.92259
-6.9297
-6.93783
-6.94721
-6.95805
-6.97052
-6.98478
-7.00091
-7.01898
-7.03897
-7.06086
-7.08457
-7.10999
-7.13699
-7.1654
-7.19508
-7.22585
-7.25754
-7.28998
-7.32302
-7.35648
-7.39025
-7.42417
-7.45812
-7.49199
-7.52567
-7.55906
-7.59207
-7.6246
-7.65659
-7.68794
-7.71858
-7.74844
-7.77744
-7.80552
-7.83259
-7.85861
-7.88348
-7.90715
-7.92955
-7.95061
-7.97026
-7.98843
-8.00504
-8.02003
-8.03332
-8.04481
-8.05445
-8.06212
-8.06774
-8.0712
-8.07241
-8.07124
-8.06757
-8.06128
-8.05222
-8.04026
-8.02525
-8.00703
-7.98544
-7.96032
-7.9315
-7.89882
-7.86211
-7.8212
-7.77593
-7.72614
-7.67167
-7.61238
-7.5481
-7.47866
-7.40389
-7.32364
-7.23777
-7.14617
-7.04871
-6.94526
-6.83568
-6.71984
-6.59761
-6.46885
-6.33342
-6.19117
-6.04195
-5.88562
-5.722
-5.55094
-5.37229
-5.18589
-4.99159
-4.78925
-4.57873
-4.35992
-4.13271
-3.89701
-3.65276
-3.39991
-3.13845
-2.86839
-2.58977
-2.30266
-2.00717
-1.70345
-1.39169
-1.07211
-0.745005
-0.410682
-0.0695166
0.278067
0.631589
0.990515
1.35425
1.72215
2.09351
2.46756
2.8435
3.22045
3.59753
3.9738
4.34829
4.72003
5.08804
5.45135
5.80902
6.16013
6.50382
6.83926
7.16573
7.48257
7.78919
8.08511
8.36995
8.64342
8.90535
9.15564
9.39432
9.62152
9.83744
10.0424
10.2368
10.4211
10.5959
10.7617
10.9194
11.0696
11.2131
11.3509
11.4838
11.6127
11.7386
11.8624
11.9852
12.108
12.2316
12.3571
12.4852
12.6169
12.7529
12.8936
13.0397
13.1912
13.3481
13.51
13.6757
13.8442
14.0093
14.1829
14.2894
-6.81939
-6.83442
-6.85037
-6.86374
-6.87433
-6.88287
-6.88994
-6.89599
-6.90137
-6.90643
-6.91146
-6.91671
-6.92244
-6.92888
-6.93626
-6.9448
-6.9547
-6.96614
-6.97929
-6.99425
-7.01112
-7.02993
-7.05067
-7.07331
-7.09778
-7.12396
-7.15173
-7.18094
-7.21143
-7.24302
-7.27554
-7.30883
-7.34271
-7.37702
-7.41162
-7.44634
-7.48107
-7.51565
-7.54999
-7.58395
-7.61743
-7.65033
-7.68256
-7.71402
-7.74463
-7.7743
-7.80296
-7.83053
-7.85694
-7.88212
-7.906
-7.92851
-7.9496
-7.9692
-7.98725
-8.00368
-8.01842
-8.03142
-8.04259
-8.05187
-8.05917
-8.06441
-8.06749
-8.06831
-8.06676
-8.06274
-8.0561
-8.04671
-8.03444
-8.01913
-8.00064
-7.97878
-7.95341
-7.92436
-7.89144
-7.85451
-7.81338
-7.7679
-7.71792
-7.66326
-7.60374
-7.53919
-7.46944
-7.39435
-7.31382
-7.22771
-7.1359
-7.03829
-6.93474
-6.82512
-6.70931
-6.58717
-6.45857
-6.32336
-6.1814
-6.03254
-5.8766
-5.71344
-5.54288
-5.36477
-5.17893
-4.98521
-4.78346
-4.57354
-4.35532
-4.12869
-3.89355
-3.64983
-3.39748
-3.13647
-2.86682
-2.58856
-2.30176
-2.00651
-1.70297
-1.39132
-1.07178
-0.744631
-0.410184
-0.0688108
0.279067
0.632972
0.992368
1.35666
1.7252
2.09726
2.47209
2.84886
3.22669
3.60468
3.98185
4.35724
4.72985
5.09869
5.46275
5.82108
6.17273
6.51683
6.85255
7.17914
7.49593
7.80233
8.09786
8.38213
8.65486
8.91587
9.1651
9.40257
9.62842
9.84288
10.0463
10.239