/*--------------------------------*- C++ -*----------------------------------*\
  =========                 |
  \\      /  F ield         | OpenFOAM: The Open Source CFD Toolbox
   \\    /   O peration     | Website:  https://openfoam.org
    \\  /    A nd           | Version:  12
     \\/     M anipulation  |
\*---------------------------------------------------------------------------*/
FoamFile
{
    format      ascii;
    class       volVectorField;
    location    "0.08";
    object      U;
}
// * * * * * * * * * * * * * * * * * * * * * * * * * * * * * * * * * * * * * //

dimensions      [0 1 -1 0 0 0 0];

internalField   nonuniform List<vector> 
12225
(
(9.86106 -0.874315 0)
(9.6724 -0.700178 0)
(9.45876 -0.387565 0)
(9.22426 -0.188437 0)
(9.00282 -0.0843444 0)
(8.80938 -0.0328114 0)
(8.64367 -0.00746493 0)
(8.50214 0.00513761 0)
(8.3813 0.0114843 0)
(8.27758 0.0146676 0)
(8.18754 0.0162295 0)
(8.10822 0.0169976 0)
(8.03704 0.0174344 0)
(7.972 0.0178899 0)
(7.90934 0.0185751 0)
(7.85021 0.0208833 0)
(7.76597 0.0244283 0)
(7.73921 0.0447263 0)
(10.0547 0.263077 0)
(10.1201 0.360764 0)
(10.1179 0.273861 0)
(10.0825 0.187155 0)
(10.0403 0.131251 0)
(9.99346 0.0970451 0)
(9.93943 0.0757141 0)
(9.8794 0.061956 0)
(9.81645 0.0526145 0)
(9.75305 0.0458847 0)
(9.69061 0.0408358 0)
(9.62992 0.0370298 0)
(9.57127 0.0342452 0)
(9.51507 0.0325627 0)
(9.46007 0.0318926 0)
(9.40994 0.0348276 0)
(9.3539 0.0382589 0)
(9.33476 0.0695571 0)
(9.99918 0.0460976 0)
(10.0244 0.0342451 0)
(10.0537 0.0150117 0)
(10.0706 0.0219086 0)
(10.0775 0.0368076 0)
(10.0778 0.0461874 0)
(10.0715 0.0501824 0)
(10.0592 0.0514436 0)
(10.0425 0.0514423 0)
(10.0227 0.0508502 0)
(10.0006 0.0500542 0)
(9.97686 0.0493294 0)
(9.95177 0.0488662 0)
(9.92579 0.0490188 0)
(9.89862 0.0499382 0)
(9.8717 0.0537058 0)
(9.84347 0.059211 0)
(9.82365 0.0783799 0)
(9.99679 0.0064419 0)
(10.0085 0.0250632 0)
(10.0341 0.039017 0)
(10.0526 0.0504212 0)
(10.064 0.0572765 0)
(10.0726 0.059393 0)
(10.0782 0.059156 0)
(10.0806 0.0583312 0)
(10.0802 0.0574487 0)
(10.0777 0.0565971 0)
(10.0734 0.0558488 0)
(10.0677 0.0553255 0)
(10.0606 0.0551683 0)
(10.0524 0.0556926 0)
(10.0431 0.0571497 0)
(10.0335 0.060949 0)
(10.0244 0.0667221 0)
(10.0194 0.0787516 0)
(9.99922 0.00675636 0)
(10.0081 0.0336341 0)
(10.027 0.0461496 0)
(10.0416 0.0510027 0)
(10.0521 0.0541334 0)
(10.0617 0.0557966 0)
(10.0701 0.0562355 0)
(10.0764 0.0561687 0)
(10.0809 0.0559521 0)
(10.0839 0.0556919 0)
(10.0858 0.0554851 0)
(10.0865 0.0554739 0)
(10.0863 0.0558229 0)
(10.0853 0.056816 0)
(10.0837 0.0587257 0)
(10.0821 0.0623757 0)
(10.0815 0.0675866 0)
(10.0841 0.0753441 0)
(10.0002 0.00909867 0)
(10.0078 0.0322011 0)
(10.0224 0.0420438 0)
(10.0348 0.0458608 0)
(10.0444 0.0493953 0)
(10.0537 0.0520217 0)
(10.0623 0.0532715 0)
(10.0695 0.0537635 0)
(10.0753 0.0539838 0)
(10.0802 0.0541128 0)
(10.0841 0.0542663 0)
(10.0873 0.0545894 0)
(10.0898 0.0552465 0)
(10.0918 0.056472 0)
(10.0935 0.0584894 0)
(10.0954 0.0617272 0)
(10.0984 0.0660012 0)
(10.1038 0.0711889 0)
(10.0003 0.00883095 0)
(10.0067 0.0276109 0)
(10.0188 0.0372428 0)
(10.0301 0.0419759 0)
(10.0391 0.0459848 0)
(10.0477 0.0489153 0)
(10.0559 0.0504552 0)
(10.0631 0.0512109 0)
(10.0693 0.0516801 0)
(10.0747 0.0520519 0)
(10.0794 0.0524368 0)
(10.0836 0.0529696 0)
(10.0873 0.0537994 0)
(10.0907 0.0551058 0)
(10.0939 0.0570415 0)
(10.0976 0.0597884 0)
(10.1022 0.0631291 0)
(10.1085 0.0666185 0)
(10.0004 0.00787385 0)
(10.0057 0.0238052 0)
(10.0159 0.033558 0)
(10.0262 0.0388639 0)
(10.0348 0.042861 0)
(10.0428 0.0457763 0)
(10.0505 0.0474784 0)
(10.0575 0.0484418 0)
(10.0637 0.0491035 0)
(10.0693 0.0496534 0)
(10.0743 0.0502013 0)
(10.0789 0.0508696 0)
(10.0832 0.0517853 0)
(10.0873 0.0530764 0)
(10.0914 0.0548286 0)
(10.0959 0.0570786 0)
(10.1011 0.0595919 0)
(10.1076 0.0619007 0)
(10.0004 0.00699383 0)
(10.0049 0.0208359 0)
(10.0135 0.0302538 0)
(10.0228 0.0357202 0)
(10.0309 0.0396207 0)
(10.0385 0.0425182 0)
(10.0458 0.0443739 0)
(10.0525 0.0455225 0)
(10.0586 0.0463404 0)
(10.0642 0.0470243 0)
(10.0694 0.047686 0)
(10.0742 0.0484335 0)
(10.0788 0.0493693 0)
(10.0832 0.050578 0)
(10.0878 0.0520924 0)
(10.0927 0.0538722 0)
(10.0982 0.0556931 0)
(10.1045 0.0571719 0)
(10.0004 0.00621305 0)
(10.0042 0.0182684 0)
(10.0115 0.0270464 0)
(10.0198 0.0325003 0)
(10.0274 0.0363387 0)
(10.0345 0.0392204 0)
(10.0415 0.0411858 0)
(10.048 0.0424772 0)
(10.054 0.0434155 0)
(10.0595 0.0441975 0)
(10.0647 0.0449338 0)
(10.0697 0.0457164 0)
(10.0744 0.0466243 0)
(10.0791 0.0477081 0)
(10.0839 0.048966 0)
(10.089 0.0503248 0)
(10.0944 0.0515901 0)
(10.1005 0.052483 0)
(10.0003 0.00548217 0)
(10.0036 0.0159635 0)
(10.0098 0.0239898 0)
(10.0171 0.0293129 0)
(10.0242 0.0330729 0)
(10.031 0.035902 0)
(10.0376 0.0379159 0)
(10.0439 0.0393032 0)
(10.0497 0.0403289 0)
(10.0552 0.0411778 0)
(10.0604 0.0419553 0)
(10.0654 0.0427385 0)
(10.0703 0.0435857 0)
(10.0751 0.0445236 0)
(10.08 0.0455314 0)
(10.085 0.0465299 0)
(10.0904 0.0473635 0)
(10.0961 0.047845 0)
(10.0003 0.00483504 0)
(10.0031 0.0140341 0)
(10.0085 0.021342 0)
(10.0151 0.0264428 0)
(10.0217 0.0300865 0)
(10.0281 0.0328322 0)
(10.0344 0.0348434 0)
(10.0404 0.0362781 0)
(10.0462 0.0373532 0)
(10.0516 0.0382355 0)
(10.0568 0.0390234 0)
(10.0618 0.0397816 0)
(10.0667 0.0405528 0)
(10.0715 0.0413499 0)
(10.0764 0.0421452 0)
(10.0814 0.0428673 0)
(10.0866 0.0433965 0)
(10.092 0.0436138 0)
(10.0003 0.00423364 0)
(10.0027 0.0122819 0)
(10.0074 0.0188523 0)
(10.0133 0.0236395 0)
(10.0195 0.027123 0)
(10.0255 0.0297597 0)
(10.0315 0.0317318 0)
(10.0373 0.0331786 0)
(10.0429 0.0342759 0)
(10.0483 0.0351688 0)
(10.0534 0.0359464 0)
(10.0584 0.0366634 0)
(10.0633 0.037351 0)
(10.0681 0.0380136 0)
(10.073 0.0386233 0)
(10.0779 0.0391214 0)
(10.0829 0.039419 0)
(10.088 0.0394476 0)
(10.0003 0.00360692 0)
(10.0024 0.010459 0)
(10.0064 0.0161853 0)
(10.0116 0.0205276 0)
(10.0173 0.0237625 0)
(10.0229 0.0262306 0)
(10.0286 0.0281101 0)
(10.0342 0.0295238 0)
(10.0396 0.0306087 0)
(10.0448 0.0314831 0)
(10.0499 0.0322243 0)
(10.0548 0.0328768 0)
(10.0597 0.0334629 0)
(10.0645 0.0339825 0)
(10.0693 0.0344121 0)
(10.0741 0.034709 0)
(10.0788 0.0348138 0)
(10.0836 0.0346972 0)
(10.0002 0.00295298 0)
(10.002 0.00856338 0)
(10.0055 0.0133491 0)
(10.0101 0.0171105 0)
(10.0152 0.0199859 0)
(10.0205 0.0222055 0)
(10.0258 0.0239223 0)
(10.0311 0.025241 0)
(10.0363 0.0262633 0)
(10.0414 0.0270793 0)
(10.0464 0.0277509 0)
(10.0513 0.0283135 0)
(10.0561 0.0287827 0)
(10.0608 0.0291575 0)
(10.0654 0.029422 0)
(10.07 0.0295501 0)
(10.0746 0.0295068 0)
(10.079 0.0292905 0)
(10.0002 0.0022715 0)
(10.0017 0.00659376 0)
(10.0047 0.0103454 0)
(10.0087 0.0133849 0)
(10.0133 0.0157694 0)
(10.0182 0.017638 0)
(10.0232 0.0191043 0)
(10.0283 0.0202489 0)
(10.0333 0.0211432 0)
(10.0382 0.0218496 0)
(10.0431 0.022413 0)
(10.0478 0.0228596 0)
(10.0525 0.0232008 0)
(10.0571 0.0234366 0)
(10.0616 0.0235591 0)
(10.066 0.0235556 0)
(10.0703 0.0234094 0)
(10.0744 0.0231348 0)
(10.0002 0.00155839 0)
(10.0015 0.00453065 0)
(10.0041 0.00714708 0)
(10.0077 0.00932 0)
(10.0118 0.0110677 0)
(10.0164 0.0124627 0)
(10.0211 0.0135736 0)
(10.0259 0.0144522 0)
(10.0307 0.0151421 0)
(10.0354 0.0156806 0)
(10.0401 0.016095 0)
(10.0447 0.016402 0)
(10.0493 0.0166089 0)
(10.0537 0.016717 0)
(10.058 0.0167239 0)
(10.0622 0.0166259 0)
(10.0662 0.0164168 0)
(10.0702 0.0161178 0)
(10.0001 0.000794631 0)
(10.0013 0.00231417 0)
(10.0037 0.0036682 0)
(10.0069 0.00481912 0)
(10.0108 0.00577214 0)
(10.0151 0.00655373 0)
(10.0196 0.00718986 0)
(10.0241 0.00770077 0)
(10.0288 0.00810349 0)
(10.0334 0.00841216 0)
(10.0379 0.00863674 0)
(10.0424 0.0087827 0)
(10.0467 0.00885212 0)
(10.051 0.00884514 0)
(10.0551 0.00876105 0)
(10.0591 0.00859995 0)
(10.063 0.00836021 0)
(10.0667 0.00806325 0)
(10.0001 -6.80608e-05 0)
(10.0013 -0.000192652 0)
(10.0035 -0.000288442 0)
(10.0067 -0.000340134 0)
(10.0105 -0.000343217 0)
(10.0147 -0.000310454 0)
(10.0191 -0.000260737 0)
(10.0235 -0.00020827 0)
(10.0281 -0.000162749 0)
(10.0326 -0.000133002 0)
(10.037 -0.000127696 0)
(10.0414 -0.000154359 0)
(10.0456 -0.000218951 0)
(10.0497 -0.000325947 0)
(10.0537 -0.000478413 0)
(10.0575 -0.000677371 0)
(10.0612 -0.00092452 0)
(10.0647 -0.0012032 0)
(10.0002 -0.000900658 0)
(10.0014 -0.00261913 0)
(10.0038 -0.00412513 0)
(10.0072 -0.00533453 0)
(10.0112 -0.00623966 0)
(10.0155 -0.00690142 0)
(10.02 -0.00738671 0)
(10.0246 -0.00774126 0)
(10.0292 -0.00800052 0)
(10.0337 -0.00819782 0)
(10.0382 -0.00836126 0)
(10.0425 -0.00851123 0)
(10.0467 -0.00866197 0)
(10.0507 -0.00882387 0)
(10.0546 -0.00900427 0)
(10.0583 -0.00920743 0)
(10.0619 -0.00943704 0)
(10.0653 -0.009682 0)
(10.0002 -0.00162328 0)
(10.0015 -0.00474858 0)
(10.0043 -0.00749187 0)
(10.0081 -0.00964825 0)
(10.0124 -0.0112322 0)
(10.0171 -0.0123999 0)
(10.0218 -0.0132693 0)
(10.0266 -0.0139001 0)
(10.0313 -0.0143474 0)
(10.036 -0.0146712 0)
(10.0405 -0.0149198 0)
(10.0448 -0.0151245 0)
(10.049 -0.0153065 0)
(10.053 -0.0154806 0)
(10.0569 -0.0156578 0)
(10.0606 -0.0158446 0)
(10.0641 -0.0160459 0)
(10.0675 -0.0162543 0)
(10.0002 -0.00231371 0)
(10.0017 -0.00686269 0)
(10.0049 -0.0108702 0)
(10.0093 -0.0138772 0)
(10.0142 -0.0159768 0)
(10.0193 -0.0175063 0)
(10.0243 -0.0186461 0)
(10.0294 -0.019461 0)
(10.0343 -0.0200237 0)
(10.039 -0.0204177 0)
(10.0436 -0.0207053 0)
(10.048 -0.0209257 0)
(10.0522 -0.0211059 0)
(10.0563 -0.0212662 0)
(10.0601 -0.0214204 0)
(10.0638 -0.0215768 0)
(10.0673 -0.0217409 0)
(10.0706 -0.021908 0)
(10.0002 -0.00295722 0)
(10.0019 -0.00899534 0)
(10.0057 -0.0142915 0)
(10.0109 -0.0180594 0)
(10.0165 -0.0206015 0)
(10.022 -0.0224176 0)
(10.0274 -0.0237026 0)
(10.0327 -0.0245625 0)
(10.0378 -0.0251355 0)
(10.0427 -0.0255338 0)
(10.0474 -0.0258183 0)
(10.0519 -0.0260246 0)
(10.0561 -0.0261823 0)
(10.0602 -0.0263145 0)
(10.064 -0.0264368 0)
(10.0677 -0.0265579 0)
(10.0712 -0.0266833 0)
(10.0745 -0.0268099 0)
(10.0001 -0.00354051 0)
(10.0019 -0.0114477 0)
(10.0065 -0.0177805 0)
(10.0128 -0.0218462 0)
(10.0191 -0.024767 0)
(10.0251 -0.0270042 0)
(10.0308 -0.0284823 0)
(10.0364 -0.0293313 0)
(10.0418 -0.0298284 0)
(10.0468 -0.0301522 0)
(10.0516 -0.0303692 0)
(10.0561 -0.0305122 0)
(10.0604 -0.0306111 0)
(10.0645 -0.0306898 0)
(10.0683 -0.0307625 0)
(10.0719 -0.0308363 0)
(10.0754 -0.030915 0)
(10.0786 -0.0309946 0)
(9.99997 -0.00366725 0)
(10.0018 -0.0151109 0)
(10.0077 -0.0225347 0)
(10.0149 -0.0258174 0)
(10.0216 -0.0283324 0)
(10.028 -0.0307454 0)
(10.0344 -0.0324739 0)
(10.0405 -0.0334631 0)
(10.0461 -0.0340143 0)
(10.0513 -0.034337 0)
(10.0562 -0.0345149 0)
(10.0608 -0.0345973 0)
(10.065 -0.0346268 0)
(10.069 -0.0346334 0)
(10.0728 -0.0346339 0)
(10.0762 -0.0346367 0)
(10.0795 -0.0346456 0)
(10.0825 -0.0346582 0)
(9.99898 -0.00129252 0)
(10 -0.0179225 0)
(10.0085 -0.0289814 0)
(10.0175 -0.0325684 0)
(10.0246 -0.0339546 0)
(10.0315 -0.0351426 0)
(10.0386 -0.0360509 0)
(10.0454 -0.0366545 0)
(10.0514 -0.0370664 0)
(10.0567 -0.0373271 0)
(10.0615 -0.0374517 0)
(10.0658 -0.0374765 0)
(10.0697 -0.037443 0)
(10.0731 -0.0373811 0)
(10.0762 -0.0373091 0)
(10.0789 -0.0372385 0)
(10.0814 -0.037173 0)
(10.0835 -0.0371118 0)
(9.99528 0.00388066 0)
(9.99336 -0.0102778 0)
(10.0071 -0.0270466 0)
(10.0213 -0.0388423 0)
(10.0313 -0.044751 0)
(10.0394 -0.0463275 0)
(10.047 -0.0458139 0)
(10.0534 -0.0448269 0)
(10.0587 -0.0439218 0)
(10.0628 -0.0431201 0)
(10.0661 -0.0423786 0)
(10.0685 -0.0416947 0)
(10.0702 -0.0410749 0)
(10.0713 -0.0405191 0)
(10.0719 -0.0400252 0)
(10.0721 -0.0395921 0)
(10.0719 -0.0392106 0)
(10.0714 -0.0388536 0)
(9.99145 -0.0172857 0)
(9.99191 0.000389447 0)
(10.0101 0.0177057 0)
(10.0297 0.0116472 0)
(10.0443 -0.00502586 0)
(10.0543 -0.0187207 0)
(10.0603 -0.0270479 0)
(10.0627 -0.0319061 0)
(10.0623 -0.0347689 0)
(10.0598 -0.0363558 0)
(10.0557 -0.0371147 0)
(10.0505 -0.0373709 0)
(10.0443 -0.0373375 0)
(10.0374 -0.0371442 0)
(10.03 -0.0368747 0)
(10.0223 -0.0365904 0)
(10.0143 -0.0363468 0)
(10.0064 -0.0361125 0)
(10.0235 -0.206002 0)
(10.0684 -0.312322 0)
(10.0789 -0.255563 0)
(10.0705 -0.184135 0)
(10.0607 -0.134847 0)
(10.0501 -0.102659 0)
(10.0345 -0.0810859 0)
(10.0133 -0.0665277 0)
(9.9883 -0.0565245 0)
(9.9612 -0.049358 0)
(9.93313 -0.0439906 0)
(9.90478 -0.0398328 0)
(9.87665 -0.0365265 0)
(9.84907 -0.0338389 0)
(9.82227 -0.0316222 0)
(9.79637 -0.0298127 0)
(9.77162 -0.0283803 0)
(9.74804 -0.0276415 0)
(9.94227 0.671598 0)
(9.88 0.567465 0)
(9.77455 0.338485 0)
(9.63258 0.183345 0)
(9.48797 0.0949347 0)
(9.35699 0.0471169 0)
(9.24159 0.0213388 0)
(9.14027 0.00712423 0)
(9.05152 -0.000928481 0)
(8.97373 -0.00556346 0)
(8.90518 -0.00824688 0)
(8.84433 -0.00980388 0)
(8.78992 -0.0107047 0)
(8.74097 -0.0112182 0)
(8.69665 -0.0115052 0)
(8.65625 -0.0116902 0)
(8.61892 -0.0118672 0)
(8.58428 -0.0123976 0)
(0.00724413 -0.00526106 -3.49975e-20)
(0.0272308 -0.0241146 3.23039e-20)
(0.0552451 -0.0349428 0)
(0.0868723 -0.0396522 0)
(0.116888 -0.0393707 0)
(0.143176 -0.0355194 -2.72e-20)
(0.164603 -0.0293109 0)
(0.180408 -0.021591 0)
(0.190112 -0.0128862 0)
(0.193538 -0.00357247 0)
(0.190207 0.00579745 2.51461e-20)
(0.180619 0.0145928 0)
(0.165389 0.0222407 0)
(0.1453 0.0282558 0)
(0.121341 0.0322331 0)
(0.0946249 0.0339197 2.43671e-20)
(0.0663207 0.0334177 0)
(0.0376784 0.0313134 0)
(0.0085039 0.0284928 0)
(-0.0206755 0.0276974 0)
(-0.05115 0.0261114 0)
(-0.0853019 0.0291147 0)
(-0.120488 0.0382291 0)
(-0.163597 0.045883 2.59434e-20)
(-0.217057 0.0511993 -2.53785e-20)
(-0.27297 0.0697331 2.35961e-20)
(-0.334606 0.0772614 2.41932e-20)
(-0.407063 0.0703976 0)
(-0.47714 0.0715621 0)
(-0.549079 0.0749386 -2.32972e-20)
(-0.62277 0.0760474 -2.2764e-20)
(-0.696099 0.0754802 0)
(-0.768063 0.0736416 0)
(-0.837885 0.0708874 -2.14284e-20)
(-0.90503 0.0675299 0)
(-0.969168 0.0638313 0)
(-1.03014 0.0600025 2.04357e-20)
(-1.08793 0.0562043 0)
(-1.14261 0.0525522 1.99124e-20)
(-1.19434 0.049123 3.93625e-20)
(-1.24333 0.0459619 0)
(-1.28979 0.04309 0)
(-1.33396 0.0405103 0)
(-1.3761 0.0382135 0)
(-1.41642 0.0361822 0)
(-1.45514 0.0343946 3.71085e-20)
(-1.49247 0.0328263 3.6786e-20)
(-1.52856 0.0314527 3.6472e-20)
(-1.5636 0.0302496 0)
(-1.5977 0.0291943 -3.58636e-20)
(-1.631 0.0282657 0)
(-1.66359 0.0274447 3.52728e-20)
(-1.69556 0.0267141 3.49816e-20)
(-1.72699 0.0260584 0)
(-1.75792 0.0254641 0)
(-1.78842 0.0249192 0)
(-1.8185 0.0244132 3.38278e-20)
(-1.84821 0.0239368 0)
(-1.87756 0.0234822 0)
(-1.90655 0.0230422 0)
(-1.9352 0.022611 0)
(-1.9635 0.0221833 0)
(-1.99144 0.0217548 0)
(-2.01902 0.0213217 0)
(-2.04621 0.0208807 0)
(-2.07299 0.0204293 -3.1163e-20)
(-2.09935 0.019965 0)
(-2.12525 0.0194862 0)
(-2.15067 0.0189911 3.02163e-20)
(-2.17559 0.0184786 2.98911e-20)
(-2.19996 0.0179476 0)
(-2.22375 0.0173971 -2.92242e-20)
(-2.24693 0.0168265 2.88817e-20)
(-2.26947 0.016235 0)
(-2.29132 0.0156221 -2.81769e-20)
(-2.31245 0.014987 0)
(-2.33282 0.014329 0)
(-2.35239 0.0136472 2.70643e-20)
(-2.37111 0.0129404 0)
(-2.38895 0.012207 -2.62813e-20)
(-2.40586 0.0114453 0)
(-2.42178 0.0106527 2.54618e-20)
(-2.43669 0.00982604 2.50374e-20)
(-2.45051 0.00896183 2.46028e-20)
(-2.46321 0.0080561 4.83153e-20)
(-2.47471 0.00710508 -4.74032e-20)
(-2.48495 0.00610608 0)
(-2.49385 0.00505792 0)
(-2.50135 0.00396211 0)
(-2.50734 0.00283262 -4.3525e-20)
(-2.5117 0.00171222 -4.24958e-20)
(-2.51431 0.000651292 4.1436e-20)
(-2.51537 -0.00032906 0)
(-2.51503 -0.00124405 -3.92216e-20)
(-2.51323 -0.00214586 -3.8069e-20)
(-2.50995 -0.00305193 -3.6885e-20)
(-2.50515 -0.00396773 0)
(-2.49881 -0.00489514 0)
(-2.49087 -0.00583465 0)
(-2.48131 -0.00678618 -3.18158e-20)
(-2.47007 -0.00774939 0)
(-2.45712 -0.00872375 0)
(-2.44242 -0.00970863 2.76408e-20)
(-2.42593 -0.0107033 0)
(-2.40761 -0.0117068 0)
(-2.38743 -0.0127181 2.31221e-20)
(-2.36536 -0.0137361 0)
(-2.34135 -0.0147595 0)
(-2.31538 -0.0157868 -1.82412e-20)
(-2.28743 -0.0168163 -1.65313e-20)
(-2.25747 -0.0178463 0)
(-2.22547 -0.0188745 1.29849e-20)
(-2.19142 -0.0198988 0)
(-2.15531 -0.0209167 -9.26919e-21)
(-2.11712 -0.0219253 0)
(-2.07687 -0.0229218 -5.38533e-21)
(-2.03454 -0.0239027 -3.38147e-21)
(-1.99015 -0.0248647 0)
(-1.94372 -0.0258039 0)
(-1.89527 -0.0267164 0)
(-1.84484 -0.0275977 0)
(-1.79246 -0.0284436 0)
(-1.73819 -0.0292493 0)
(-1.68209 -0.03001 0)
(-1.62423 -0.0307207 1.39796e-20)
(-1.5647 -0.0313766 -1.62862e-20)
(-1.50359 -0.0319726 0)
(-1.441 -0.0325039 0)
(-1.37705 -0.0329658 0)
(-1.31186 -0.0333537 0)
(-1.24559 -0.0336637 -5.61081e-20)
(-1.17836 -0.033892 0)
(-1.11034 -0.0340355 6.55773e-20)
(-1.04169 -0.0340918 -7.02835e-20)
(-0.972586 -0.0340592 0)
(-0.903205 -0.0339368 0)
(-0.833727 -0.0337248 0)
(-0.764336 -0.0334242 8.86603e-20)
(-0.695215 -0.0330375 9.30858e-20)
(-0.626545 -0.0325679 0)
(-0.558504 -0.0320201 1.01657e-19)
(-0.49126 -0.0313998 1.05783e-19)
(-0.424974 -0.0307136 -1.0979e-19)
(-0.359794 -0.0299699 0)
(-0.295855 -0.029177 0)
(-0.233278 -0.0283398 -1.2102e-19)
(-0.17216 -0.0274664 0)
(-0.112589 -0.0265664 0)
(-0.0546296 -0.0256462 0)
(0.00168428 -0.0246856 0)
(0.0563075 -0.0236661 1.35016e-19)
(0.10922 -0.0226408 1.35959e-19)
(0.160509 -0.0216761 0)
(0.210251 -0.0207911 1.37546e-19)
(0.258561 -0.0199944 0)
(0.305587 -0.0192928 0)
(0.3515 -0.018693 1.393e-19)
(0.396501 -0.0182016 0)
(0.440816 -0.0178243 1.40149e-19)
(0.484696 -0.0175657 0)
(0.528411 -0.017429 0)
(0.572256 -0.0174162 1.41103e-19)
(0.616538 -0.0175278 0)
(0.661583 -0.0177627 1.4161e-19)
(0.707723 -0.0181183 0)
(0.755299 -0.0185904 0)
(0.804652 -0.0191728 0)
(0.856122 -0.0198571 -1.42545e-19)
(0.910035 -0.0206323 0)
(0.966699 -0.021484 1.43056e-19)
(1.02639 -0.0223933 0)
(1.08933 -0.0233348 0)
(1.15568 -0.0242728 0)
(1.22544 -0.0251551 0)
(1.29851 -0.0258917 0)
(1.37411 -0.0263326 0)
(1.45169 -0.0260815 0)
(1.52461 -0.0242306 -2.93291e-19)
(1.59802 -0.0175525 0)
(1.60498 0.00799618 0)
(0.0166948 -0.0581311 1.04078e-19)
(0.0482782 -0.0903673 -9.43952e-20)
(0.0776891 -0.0959538 0)
(0.103025 -0.0908069 5.31183e-20)
(0.123162 -0.0798465 0)
(0.137951 -0.0655014 2.39965e-20)
(0.14766 -0.0492397 -4.64712e-20)
(0.152511 -0.0319873 -4.52894e-20)
(0.152643 -0.0143626 0)
(0.148155 0.0031529 -4.3682e-20)
(0.139481 0.0200138 -2.15092e-20)
(0.126506 0.0356376 0)
(0.109229 0.0494756 0)
(0.0877149 0.0610804 0)
(0.0620327 0.0701962 0)
(0.0321923 0.0769024 -2.11079e-20)
(-0.00188009 0.0817201 0)
(-0.0404435 0.0855539 4.22621e-20)
(-0.0844774 0.0892749 0)
(-0.133881 0.0942859 0)
(-0.189572 0.101918 -4.13227e-20)
(-0.250472 0.111531 0)
(-0.31671 0.1252 3.9893e-20)
(-0.387985 0.14206 -1.98538e-20)
(-0.46179 0.157571 1.93729e-20)
(-0.535619 0.169408 -1.8696e-20)
(-0.612308 0.180721 -1.84371e-20)
(-0.68742 0.186477 0)
(-0.761263 0.188239 0)
(-0.832078 0.187078 1.71619e-20)
(-0.899218 0.183217 -1.67108e-20)
(-0.962582 0.177208 0)
(-1.02223 0.169697 0)
(-1.07827 0.161253 1.58906e-20)
(-1.13089 0.152354 0)
(-1.18035 0.143382 0)
(-1.22693 0.134626 -1.52113e-20)
(-1.27093 0.12629 0)
(-1.31262 0.118503 1.47771e-20)
(-1.35229 0.111341 -2.9369e-20)
(-1.39017 0.104832 0)
(-1.42651 0.0989701 0)
(-1.46148 0.0937297 -5.68598e-20)
(-1.49527 0.089069 -5.63423e-20)
(-1.52803 0.084938 -5.58475e-20)
(-1.55989 0.0812832 2.76012e-20)
(-1.59096 0.0780506 -2.7542e-20)
(-1.62132 0.0751879 -8.17859e-20)
(-1.65106 0.0726459 5.4031e-20)
(-1.68025 0.070379 2.68894e-20)
(-1.70894 0.0683459 0)
(-1.73717 0.0665094 -2.64724e-20)
(-1.76497 0.0648362 2.60937e-20)
(-1.79238 0.0632969 0)
(-1.8194 0.0618656 0)
(-1.84606 0.0605193 0)
(-1.87236 0.0592384 -2.54511e-20)
(-1.89829 0.0580054 0)
(-1.92387 0.0568054 4.9918e-20)
(-1.94907 0.0556254 0)
(-1.97388 0.0544544 4.90896e-20)
(-1.99831 0.0532827 0)
(-2.02231 0.0521025 -4.82444e-20)
(-2.04589 0.0509069 0)
(-2.06901 0.0496903 4.73775e-20)
(-2.09166 0.048448 -2.33978e-20)
(-2.1138 0.0471761 0)
(-2.13542 0.0458716 -4.6026e-20)
(-2.15648 0.044532 -2.28425e-20)
(-2.17695 0.0431554 -2.26025e-20)
(-2.19682 0.0417403 0)
(-2.21604 0.0402858 -2.19975e-20)
(-2.23459 0.038791 -2.18522e-20)
(-2.25243 0.0372555 0)
(-2.26954 0.0356789 2.13242e-20)
(-2.28588 0.0340611 -4.20154e-20)
(-2.30142 0.0324018 0)
(-2.31613 0.0307011 -2.04849e-20)
(-2.32997 0.0289587 0)
(-2.34291 0.0271742 5.96116e-20)
(-2.35492 0.0253472 0)
(-2.36596 0.0234769 -5.77521e-20)
(-2.376 0.021562 -1.89412e-20)
(-2.38501 0.0196009 1.85791e-20)
(-2.39296 0.0175915 3.64917e-20)
(-2.39983 0.0155315 -3.58077e-20)
(-2.40558 0.0134183 0)
(-2.41021 0.0112496 0)
(-2.41373 0.00902549 0)
(-2.41615 0.00675668 9.85706e-20)
(-2.41753 0.00448018 3.20447e-20)
(-2.41794 0.00224942 -3.12179e-20)
(-2.41719 6.39387e-05 0)
(-2.41508 -0.0020927 -2.9609e-20)
(-2.41158 -0.00425045 2.8604e-20)
(-2.40662 -0.00642322 2.76872e-20)
(-2.40017 -0.00861612 0)
(-2.39217 -0.0108306 0)
(-2.38259 -0.0130665 0)
(-2.37138 -0.0153227 2.37791e-20)
(-2.3585 -0.0175979 0)
(-2.34392 -0.0198904 -4.36332e-20)
(-2.32759 -0.0221982 -6.20561e-20)
(-2.30948 -0.0245191 3.92609e-20)
(-2.28954 -0.0268507 0)
(-2.26774 -0.0291902 1.75274e-20)
(-2.24404 -0.0315346 0)
(-2.21842 -0.0338806 2.98712e-20)
(-2.19084 -0.0362243 -1.39202e-20)
(-2.16126 -0.0385617 -1.26629e-20)
(-2.12968 -0.0408883 0)
(-2.09605 -0.0431992 -2.91446e-20)
(-2.06037 -0.0454892 1.69027e-20)
(-2.02262 -0.0477523 6.78564e-21)
(-1.98279 -0.0499823 0)
(-1.94088 -0.0521726 3.9279e-21)
(-1.89688 -0.0543158 8.03035e-21)
(-1.85082 -0.0564043 0)
(-1.80269 -0.0584298 -3.92643e-22)
(-1.75253 -0.0603837 -3.44001e-21)
(-1.70036 -0.062257 -6.52837e-21)
(-1.64623 -0.0640404 0)
(-1.59018 -0.0657242 0)
(-1.53228 -0.0672985 0)
(-1.47259 -0.0687533 9.21426e-21)
(-1.41119 -0.0700787 1.164e-20)
(-1.34818 -0.0712649 0)
(-1.28365 -0.0723024 2.89998e-20)
(-1.21773 -0.0731821 3.22795e-20)
(-1.15052 -0.0738955 0)
(-1.08217 -0.0744352 3.96916e-20)
(-1.01283 -0.0747946 8.42126e-20)
(-0.942637 -0.0749684 -4.62128e-20)
(-0.871764 -0.0749525 -4.77327e-20)
(-0.800377 -0.0747449 0)
(-0.728652 -0.0743448 0)
(-0.656768 -0.0737538 0)
(-0.584907 -0.0729752 -6.19666e-20)
(-0.513252 -0.0720147 6.33502e-20)
(-0.441983 -0.0708804 1.34237e-19)
(-0.371278 -0.069582 -7.07899e-20)
(-0.301307 -0.0681317 7.20664e-20)
(-0.232234 -0.0665438 7.6315e-20)
(-0.164208 -0.0648335 0)
(-0.0973717 -0.0630175 0)
(-0.0318489 -0.061113 -8.25876e-20)
(0.0322584 -0.059135 0)
(0.094841 -0.0571045 0)
(0.155845 -0.055049 1.75605e-19)
(0.215227 -0.0529918 0)
(0.272967 -0.0509443 8.95773e-20)
(0.329081 -0.0489361 -9.17183e-20)
(0.383614 -0.047016 0)
(0.436632 -0.0452181 9.2655e-20)
(0.488231 -0.0435672 0)
(0.53854 -0.0420839 0)
(0.587717 -0.0407874 -9.5988e-20)
(0.635951 -0.0396959 1.92517e-19)
(0.683457 -0.0388255 -9.73188e-20)
(0.730477 -0.0381901 0)
(0.777275 -0.0378011 0)
(0.82414 -0.0376673 9.82634e-20)
(0.871379 -0.0377943 0)
(0.919313 -0.0381847 9.92996e-20)
(0.968278 -0.0388376 0)
(1.01862 -0.0397486 0)
(1.07067 -0.0409089 0)
(1.1248 -0.0423051 1.02101e-19)
(1.18132 -0.0439178 0)
(1.24056 -0.0457202 -1.03149e-19)
(1.30279 -0.0476753 0)
(1.36826 -0.049731 0)
(1.43714 -0.0518116 2.08757e-19)
(1.50946 -0.0538029 -2.10003e-19)
(1.58511 -0.0555072 0)
(1.66352 -0.0565866 0)
(1.74409 -0.0561915 0)
(1.82289 -0.052717 6.50803e-19)
(1.90299 -0.0402243 0)
(1.9568 -0.00463024 -4.47282e-19)
(0.0194949 -0.13089 5.20679e-23)
(0.0474684 -0.162953 1.21597e-19)
(0.0687265 -0.152126 0)
(0.0848052 -0.131574 -1.00149e-19)
(0.0955649 -0.107537 0)
(0.101311 -0.0818957 0)
(0.102555 -0.0555276 -4.78338e-23)
(0.0996557 -0.0289757 4.15105e-20)
(0.0928169 -0.00265196 4.05772e-20)
(0.0821645 0.023064 3.96978e-20)
(0.0677939 0.0478197 0)
(0.0496986 0.0712296 0)
(0.0277859 0.0928947 -3.84746e-20)
(0.0018519 0.112501 -7.66596e-20)
(-0.0284398 0.129957 7.60591e-20)
(-0.0635258 0.145544 0)
(-0.103847 0.159974 7.43654e-20)
(-0.149767 0.174221 -3.67647e-20)
(-0.201489 0.18905 0)
(-0.258629 0.204902 7.11303e-20)
(-0.320603 0.222117 3.48842e-20)
(-0.386268 0.240251 -6.8081e-20)
(-0.45425 0.258714 -3.32345e-20)
(-0.522634 0.275624 0)
(-0.590055 0.289321 6.31558e-20)
(-0.655401 0.298892 6.1538e-20)
(-0.71789 0.303254 0)
(-0.777442 0.302028 5.85408e-20)
(-0.834248 0.296679 0)
(-0.888025 0.288248 5.58106e-20)
(-0.938726 0.277428 2.72513e-20)
(-0.986595 0.264931 0)
(-1.03192 0.251441 0)
(-1.07499 0.237553 0)
(-1.11607 0.223749 0)
(-1.15537 0.210394 0)
(-1.1931 0.197742 0)
(-1.22942 0.185954 4.82002e-20)
(-1.26449 0.175115 -7.13424e-20)
(-1.29842 0.165251 0)
(-1.33132 0.156346 0)
(-1.36329 0.148355 0)
(-1.39441 0.141215 8.41166e-23)
(-1.42476 0.134852 4.49754e-20)
(-1.45441 0.129189 8.89777e-20)
(-1.48342 0.124147 -8.81355e-20)
(-1.51184 0.119651 -4.3612e-20)
(-1.53973 0.115631 4.33276e-20)
(-1.56713 0.11202 -1.08372e-22)
(-1.59408 0.10876 4.24751e-20)
(-1.62061 0.105795 0)
(-1.64674 0.103077 4.1763e-20)
(-1.67249 0.100562 -1.11383e-22)
(-1.69789 0.0982129 0)
(-1.72294 0.095995 0)
(-1.74766 0.0938788 -4.0393e-20)
(-1.77203 0.0918382 0)
(-1.79607 0.0898507 0)
(-1.81976 0.0878966 3.92718e-20)
(-1.8431 0.0859591 7.80745e-20)
(-1.86609 0.0840237 -3.87968e-20)
(-1.88869 0.082078 0)
(-1.9109 0.0801118 3.80976e-20)
(-1.93271 0.0781164 0)
(-1.95408 0.0760843 3.71956e-20)
(-1.97501 0.0740099 3.70161e-20)
(-1.99546 0.0718883 -7.31154e-20)
(-2.01542 0.0697156 -3.60994e-20)
(-2.03485 0.0674891 0)
(-2.05373 0.0652065 7.08308e-20)
(-2.07204 0.0628661 0)
(-2.08974 0.060467 1.03924e-19)
(-2.10681 0.0580086 6.8415e-20)
(-2.12322 0.0554904 6.75766e-20)
(-2.13894 0.0529126 -6.67202e-20)
(-2.15395 0.0502753 9.88209e-20)
(-2.1682 0.0475788 0)
(-2.18167 0.0448236 0)
(-2.19433 0.0420101 -6.30988e-20)
(-2.20616 0.039139 -9.32451e-20)
(-2.21711 0.0362108 0)
(-2.22716 0.0332263 3.01014e-20)
(-2.23629 0.0301862 0)
(-2.24446 0.027092 -8.71222e-20)
(-2.25165 0.0239455 -1.41409e-23)
(-2.25782 0.0207497 2.37617e-24)
(-2.26297 0.0175092 5.47559e-20)
(-2.26707 0.014231 0)
(-2.2701 0.0109247 -5.24077e-20)
(-2.27204 0.00760205 4.7402e-23)
(-2.27285 0.00427291 0)
(-2.27248 0.000935601 0)
(-2.27084 -0.00243116 0)
(-2.26789 -0.00584143 4.58385e-20)
(-2.26356 -0.00929189 0)
(-2.25783 -0.0127806 0)
(-2.25063 -0.0163062 0)
(-2.24195 -0.019867 0)
(-2.23172 -0.0234611 0)
(-2.21991 -0.0270864 3.707e-20)
(-2.20648 -0.0307401 0)
(-2.1914 -0.0344193 3.35908e-20)
(-2.17461 -0.0381208 3.18956e-20)
(-2.15608 -0.0418409 -3.01624e-20)
(-2.13577 -0.0455756 0)
(-2.11365 -0.0493203 -2.65816e-20)
(-2.08968 -0.0530702 0)
(-2.06383 -0.0568197 -2.28473e-20)
(-2.03606 -0.0605626 2.09228e-20)
(-2.00634 -0.0642924 5.76343e-20)
(-1.97465 -0.0680016 0)
(-1.94096 -0.0716822 4.55933e-20)
(-1.90526 -0.0753257 1.37091e-20)
(-1.86752 -0.0789227 0)
(-1.82774 -0.0824631 1.81214e-20)
(-1.78591 -0.0859361 1.38008e-20)
(-1.74203 -0.0893299 -1.36262e-20)
(-1.6961 -0.0926324 0)
(-1.64814 -0.0958303 2.96048e-22)
(-1.59816 -0.09891 2.58999e-21)
(-1.5462 -0.101857 1.36113e-20)
(-1.49229 -0.104657 0)
(-1.43647 -0.107295 0)
(-1.37881 -0.109754 0)
(-1.31936 -0.11202 1.31633e-20)
(-1.2582 -0.114077 0)
(-1.19542 -0.11591 0)
(-1.13112 -0.117504 -2.1575e-20)
(-1.0654 -0.118845 -2.39792e-20)
(-0.998385 -0.11992 0)
(-0.930199 -0.120718 0)
(-0.860984 -0.121229 -6.22864e-20)
(-0.790888 -0.121445 0)
(-0.720069 -0.12136 7.16738e-20)
(-0.648691 -0.120972 7.50304e-20)
(-0.576924 -0.12028 0)
(-0.504943 -0.119287 0)
(-0.432926 -0.117998 -8.85301e-20)
(-0.361052 -0.116424 -1.20371e-21)
(-0.289498 -0.114575 -1.18236e-21)
(-0.21844 -0.11247 0)
(-0.148044 -0.110125 -2.11846e-19)
(-0.0784754 -0.107565 0)
(-0.00988199 -0.104814 0)
(0.0575911 -0.101899 0)
(0.123815 -0.0988483 1.1951e-19)
(0.188686 -0.0956917 0)
(0.252107 -0.0924619 -2.46535e-19)
(0.314015 -0.089198 -1.26333e-19)
(0.374366 -0.0859424 0)
(0.433154 -0.0827372 -1.30297e-19)
(0.49039 -0.0796199 0)
(0.546106 -0.0766348 0)
(0.600356 -0.0738252 -4.05201e-19)
(0.653223 -0.07123 2.72824e-19)
(0.704824 -0.0688847 0)
(0.755304 -0.0668226 2.78649e-19)
(0.804839 -0.0650741 -1.41313e-19)
(0.853634 -0.063667 0)
(0.901918 -0.0626251 0)
(0.949947 -0.0619686 0)
(0.997999 -0.0617132 -4.36834e-19)
(1.04637 -0.0618699 0)
(1.09537 -0.0624445 -1.48159e-19)
(1.14534 -0.0634377 0)
(1.1966 -0.0648439 0)
(1.24951 -0.066651 0)
(1.30439 -0.0688391 0)
(1.36158 -0.071379 0)
(1.4214 -0.0742292 0)
(1.48412 -0.0773324 -3.09722e-19)
(1.55 -0.0806075 0)
(1.61919 -0.0839371 -1.58032e-19)
(1.69177 -0.087144 4.76336e-19)
(1.76766 -0.089935 0)
(1.84644 -0.0918069 0)
(1.92766 -0.0917007 -3.26045e-19)
(2.00885 -0.0876172 -3.31789e-19)
(2.0933 -0.0742299 3.35054e-19)
(2.16572 -0.0397425 3.43837e-19)
(0.0154115 -0.191572 -1.99619e-19)
(0.0336135 -0.205786 -1.76235e-19)
(0.0431992 -0.179888 -1.04226e-19)
(0.0491285 -0.148049 -4.74687e-20)
(0.0512274 -0.11457 0)
(0.0495915 -0.080551 8.35755e-20)
(0.0444639 -0.0464893 -4.01144e-20)
(0.0359945 -0.0127001 0)
(0.0242365 0.020561 -3.77875e-20)
(0.00918867 0.0530567 0)
(-0.00923156 0.0845735 7.25982e-20)
(-0.0311597 0.114893 0)
(-0.0568014 0.143817 3.51118e-20)
(-0.0864296 0.171226 6.93108e-20)
(-0.120361 0.197156 -6.84464e-20)
(-0.158882 0.22183 0)
(-0.202131 0.245622 -6.65236e-20)
(-0.249987 0.2689 0)
(-0.302023 0.291806 0)
(-0.357492 0.314206 -6.25921e-20)
(-0.415356 0.335719 0)
(-0.474348 0.355602 -5.8129e-23)
(-0.5331 0.372883 0)
(-0.590334 0.386347 0)
(-0.645121 0.394967 1.26327e-22)
(-0.696984 0.39829 -5.32942e-20)
(-0.745831 0.396274 -5.20412e-20)
(-0.791898 0.389347 -5.05327e-20)
(-0.835565 0.378601 0)
(-0.877098 0.365083 -9.63143e-20)
(-0.916745 0.349672 0)
(-0.954763 0.333135 -4.60787e-20)
(-0.991383 0.31612 0)
(-1.0268 0.299152 0)
(-1.06116 0.282632 4.34048e-20)
(-1.09457 0.266851 0)
(-1.12713 0.252005 -4.19501e-20)
(-1.1589 0.238207 3.32739e-23)
(-1.18991 0.22551 8.13992e-20)
(-1.22022 0.213917 -8.03132e-20)
(-1.24986 0.203397 0)
(-1.27887 0.193896 0)
(-1.30727 0.185341 -3.86909e-20)
(-1.3351 0.177655 0)
(-1.36239 0.170752 -3.7915e-20)
(-1.38918 0.164551 3.75371e-20)
(-1.4155 0.15897 3.71752e-20)
(-1.44137 0.153931 0)
(-1.46682 0.149362 -3.64903e-20)
(-1.49188 0.145196 -3.61633e-20)
(-1.51658 0.141373 7.15883e-20)
(-1.54091 0.137836 -3.55321e-20)
(-1.56491 0.134536 -3.52251e-20)
(-1.58858 0.131428 0)
(-1.61193 0.128471 0)
(-1.63497 0.125631 3.4324e-20)
(-1.65768 0.122877 0)
(-1.68008 0.120181 0)
(-1.70215 0.11752 -6.68675e-20)
(-1.72389 0.114873 -6.62718e-20)