/*--------------------------------*- C++ -*----------------------------------*\
  =========                 |
  \\      /  F ield         | OpenFOAM: The Open Source CFD Toolbox
   \\    /   O peration     | Website:  https://openfoam.org
    \\  /    A nd           | Version:  12
     \\/     M anipulation  |
\*---------------------------------------------------------------------------*/
FoamFile
{
    format      ascii;
    class       surfaceScalarField;
    location    "12.84";
    object      phi;
}
// * * * * * * * * * * * * * * * * * * * * * * * * * * * * * * * * * * * * * //

dimensions      [1 0 -1 0 0 0 0];

internalField   nonuniform List<scalar> 
7429
(
0.000252659
-0.000252659
0.000510476
-0.000257817
0.000772739
-0.000262263
0.00104016
-0.000267423
0.00131351
-0.000273346
0.00159351
-0.000280004
0.00188085
-0.000287332
0.00217611
-0.000295259
0.0024798
-0.000303698
0.00279232
-0.00031252
0.00311387
-0.000321545
0.00344447
-0.000330599
0.00378406
-0.000339588
0.00413222
-0.000348158
0.00448845
-0.000356238
0.00485196
-0.000363505
0.00522173
-0.000369771
0.00559654
-0.000374804
0.00597487
-0.000378331
0.00635516
-0.00038029
0.00673548
-0.000380318
0.00711377
-0.000378297
0.00748785
-0.000374081
0.0078553
-0.000367447
0.00821361
-0.000358311
0.00856005
-0.000346436
0.00889178
-0.000331734
0.00920599
-0.000314204
0.00949974
-0.000293756
0.00977029
-0.000270548
0.0100149
-0.000244582
0.0102309
-0.000216047
0.0104161
-0.000185161
0.0105682
-0.000152116
0.0106853
-0.000117142
0.0107659
-8.06054e-05
0.0108088
-4.28896e-05
0.0108134
-4.58647e-06
0.0107809
3.25724e-05
0.0107093
7.15383e-05
0.0105983
0.000111056
0.0104476
0.000150663
0.0102578
0.000189801
0.0100297
0.000228111
0.00976451
0.000265173
0.00946385
0.000300659
0.00912952
0.000334327
0.00876365
0.000365872
0.0083686
0.000395049
0.00794699
0.000421618
0.00750167
0.000445313
0.00703573
0.000465943
0.00655263
0.000483096
0.00605568
0.00049695
0.00554899
0.000506696
0.00503602
0.000512971
0.0045213
0.000514713
0.00400862
0.000512683
0.00350264
0.00050598
0.00300714
0.000495504
0.00252706
0.000480072
0.00206628
0.000460784
0.00162939
0.000436894
0.00122037
0.000409013
0.000843128
0.000377246
0.00050137
0.000341758
0.000198376
0.000302994
-6.3048e-05
0.000261424
-0.000280292
0.000217244
-0.000451198
0.000170906
-0.000574534
0.000123335
-0.000649165
7.46311e-05
-0.00067596
2.67956e-05
-0.000649585
-2.63757e-05
-0.000574831
-7.4754e-05
-0.000454421
-0.00012041
-0.000291909
-0.000162512
-9.04163e-05
-0.000201493
0.000145819
-0.000236236
0.000412098
-0.000266279
0.000702109
-0.000290011
0.0010096
-0.000307492
0.00132732
-0.000317719
0.00164783
-0.000320507
0.00196295
-0.000315125
0.00226492
-0.000301964
0.00254519
-0.000280269
0.00279603
-0.000250841
0.00300976
-0.00021373
0.0031792
-0.000169439
0.00329841
-0.000119209
0.0033615
-6.30942e-05
0.00336229
-7.88674e-07
0.00329245
6.98424e-05
0.00315456
0.00013789
0.00295056
0.000203993
0.00268351
0.000267053
0.00235776
0.000325755
0.00197843
0.000379324
0.00155292
0.000425516
0.00109025
0.000462669
0.000601154
0.000489093
9.78389e-05
0.000503315
-0.000406237
0.000504076
-0.000897022
0.000490785
-0.00135991
0.000462887
-0.00178071
0.000420801
-0.00214567
0.000364956
-0.00244229
0.00029662
-0.00265969
0.000217405
-0.00278962
0.000129933
-0.00282607
3.64441e-05
-0.00275538
-7.069e-05
-0.00258445
-0.000170928
-0.00231957
-0.000264875
-0.00196901
-0.00035056
-0.00154316
-0.000425857
-0.00105631
-0.000486849
-0.00052553
-0.000530778
2.88855e-05
-0.000554416
0.000585215
-0.000556329
0.00112087
-0.000535654
0.00161296
-0.000492086
0.00204013
-0.000427171
0.00238296
-0.00034283
0.00262525
-0.000242294
0.00275536
-0.000130113
0.00276801
-1.26488e-05
0.00264862
0.000119389
0.00241316
0.000235465
0.00207349
0.000339665
0.00164575
0.000427739
0.00115096
0.000494794
0.000615538
0.000535421
6.8001e-05
0.000547537
-0.000460971
0.000528972
-0.000941478
0.000480507
-0.00134697
0.000405494
-0.0016541
0.000307133
-0.00184654
0.000192436
-0.00191541
6.88677e-05
-0.00185095
-6.44615e-05
-0.00166707
-0.000183879
-0.00138281
-0.000284255
-0.00102099
-0.000361823
-0.000611714
-0.000409275
-0.00018947
-0.000422244
0.000209427
-0.000398896
0.000550251
-0.000340824
0.000803175
-0.000252925
0.00094591
-0.000142735
0.000966072
-2.01619e-05
0.000850066
0.000116006
0.000617691
0.000232375
0.000290504
0.000327187
-0.000101769
0.000392273
-0.000522939
0.000421169
-0.000928676
0.000405737
-0.00127787
0.00034919
-0.00153385
0.00025598
-0.00166963
0.000135781
-0.00166717
-2.46077e-06
-0.00152012
-0.000147045
-0.00124896
-0.000271164
-0.000879735
-0.000369222
-0.000449747
-0.000429988
-3.47776e-06
-0.000446269
0.000410537
-0.000414015
0.000750452
-0.000339915
0.00098303
-0.000232577
0.00108847
-0.000105441
0.00105934
2.91349e-05
0.00091083
0.000148506
0.00067037
0.000240459
0.000375237
0.000295133
6.8103e-05
0.000307134
-0.000209043
0.000277146
-0.000421825
0.000212782
-0.000548125
0.0001263
-0.000581006
3.28808e-05
-0.000525747
-5.52589e-05
-0.000404567
-0.00012118
-0.000244965
-0.000159602
-7.74826e-05
-0.000167483
7.10443e-05
-0.000148527
0.000181612
-0.000110568
0.000246421
-6.48093e-05
0.000268194
-2.17722e-05
0.000258246
9.94821e-06
0.000233291
2.49544e-05
0.000208806
2.44848e-05
0.000196393
1.24137e-05
0.000202075
-5.68283e-06
0.00022128
-1.9205e-05
0.000241021
-1.97403e-05
0.000247437
-6.41627e-06
0.00022852
1.89172e-05
0.000177717
5.08023e-05
9.7905e-05
7.98125e-05
9.7905e-05
0.00023818
-0.000490838
0.00048565
-0.000505286
0.000739063
-0.000515675
0.000999898
-0.000528258
0.00126964
-0.000543091
0.00154998
-0.000560336
0.00184244
-0.000579797
0.00214848
-0.000601297
0.00246919
-0.000624406
0.0028055
-0.000648832
0.00315785
-0.000673892
0.00352643
-0.000699176
0.00391112
-0.000724276
0.00431131
-0.000748353
0.00472616
-0.000771087
0.00515437
-0.00079171
0.0055942
-0.000809604
0.00604358
-0.000824185
0.00650005
-0.000834792
0.00696055
-0.00084079
0.00742192
-0.000841687
0.00788057
-0.000836954
0.00833265
-0.000826161
0.00877416
-0.000808953
0.00920096
-0.000785108
0.00960899
-0.00075447
0.00999432
-0.000717058
0.0103532
-0.00067304
0.010682
-0.000622585
0.0109776
-0.000566141
0.0112371
-0.000504084
0.0114581
-0.000437104
0.0116387
-0.000365725
0.0117772
-0.000290635
0.0118728
-0.000212703
0.0119251
-0.000132954
0.0119348
-5.26014e-05
0.0118939
3.6401e-05
0.0117978
0.00012864
0.0116512
0.000218134
0.0114571
0.000305186
0.0112183
0.000389419
0.0109379
0.00047019
0.0106187
0.000547282
0.0102631
0.000620818
0.00987325
0.000690505
0.00945139
0.000756193
0.00899977
0.000817487
0.00852128
0.000873542
0.0080185
0.000924396
0.00749475
0.000969062
0.00695342
0.00100728
0.00639795
0.00103857
0.00583251
0.00106239
0.00526083
0.00107837
0.00468742
0.00108639
0.00411641
0.00108572
0.00355205
0.00107705
0.00299929
0.00105874
0.0024622
0.00103259
0.0019454
0.000996873
0.00145335
0.000952834
0.000990162
0.000900085
0.000559992
0.000839184
0.000166926
0.000770312
-0.00018541
0.000694094
-0.000493516
0.0006111
-0.000754233
0.00052214
-0.000965162
0.000428174
-0.00112446
0.000330202
-0.00123057
0.000229446
-0.00128295
0.000127013
-0.00128129
2.51335e-05
-0.00122236
-8.53054e-05
-0.00111203
-0.000185081
-0.000952682
-0.000279759
-0.000746752
-0.000368442
-0.000498003
-0.000450242
-0.000212344
-0.000521895
0.000104817
-0.000583439
0.000447483
-0.000632678
0.000807946
-0.000667955
0.00117834
-0.000688114
0.00155038
-0.000692551
0.00191544
-0.00068018
0.00226456
-0.000651081
0.00258885
-0.000604558
0.00287938
-0.000541377
0.00312742
-0.000461765
0.00332604
-0.000368066
0.00346682
-0.000259988
0.0035463
-0.000142571
0.00355737
-1.18622e-05
0.00349072
0.000136494
0.00335001
0.000278599
0.00313685
0.000417155
0.00285389
0.000550011
0.00250541
0.000674238
0.00209724
0.000787496
0.00163782
0.000884932
0.00113751
0.00096298
0.000607988
0.00101862
6.28318e-05
0.00104847
-0.000483187
0.00105009
-0.0010145
0.00102209
-0.00151515
0.000963543
-0.00196938
0.000875029
-0.00236268
0.000758255
-0.00268094
0.000614883
-0.00291189
0.000448347
-0.00304737
0.000265421
-0.00307925
6.83188e-05
-0.00299826
-0.000151682
-0.00281021
-0.000358975
-0.00252075
-0.00055433
-0.00213785
-0.000733469
-0.00167314
-0.000890561
-0.00114285
-0.00101714
-0.000566672
-0.00110696
3.39537e-05
-0.00115504
0.000635099
-0.00115747
0.00121191
-0.00111247
0.00174002
-0.00102019
0.00219639
-0.000883548
0.00255935
-0.000705787
0.00281292
-0.000495862
0.00294436
-0.000261558
0.00294056
-8.84978e-06
0.00280372
0.000256229
0.0025421
0.000497092
0.00216744
0.000714319
0.00169877
0.000896415
0.00115941
0.00103415
0.00057871
0.00111612
-1.20276e-05
0.00113827
-0.000578997
0.00109594
-0.0010905
0.000992014
-0.00151667
0.000831659
-0.00183368
0.000624141
-0.00202337
0.000382126
-0.00207567
0.000121172
-0.00198585
-0.000154283
-0.00176847
-0.000401258
-0.00144181
-0.000610915
-0.00103261
-0.000771027
-0.000574156
-0.000867727
-0.000104511
-0.000891888
0.000334689
-0.000838097
0.000707954
-0.000714089
0.000982105
-0.000527075
0.00113275
-0.000293376
0.00114764
-3.50533e-05
0.0010167
0.000246944
0.000758685
0.00049039
0.000397305
0.000688567
-3.28759e-05
0.000822454
-0.000495345
0.000883638
-0.000938132
0.000848524
-0.00131676
0.000727818
-0.00159316
0.000532377
-0.00173731
0.000279934
-0.00173041
-9.36588e-06
-0.00157177
-0.000305678
-0.00127943
-0.000563509
-0.000883161
-0.000765488
-0.000424339
-0.000888811
4.81718e-05
-0.000918779
0.000482834
-0.000848677
0.000834328
-0.000691409
0.00106734
-0.000465588
0.00116243
-0.000200537
0.00111433
7.7242e-05
0.000941044
0.000321788
0.000672782
0.000508721
0.000350833
0.000617083
2.16022e-05
0.000636365
-0.000267653
0.000566401
-0.000483345
0.000428474
-0.000602985
0.00024594
-0.000621223
5.11182e-05
-0.000547162
-0.00012932
-0.000406063
-0.000262279
-0.000229055
-0.00033661
-5.01068e-05
-0.000346431
0.000102238
-0.000300872
0.000208865
-0.000217195
0.000263335
-0.000119279
0.000270988
-2.94253e-05
0.000246379
3.45565e-05
0.000208928
6.24052e-05
0.000176469
5.69444e-05
0.000161667
2.72158e-05
0.000169226
-1.32418e-05
0.000194788
-4.47678e-05
0.000222586
-4.75375e-05
0.000237074
-2.09048e-05
0.000224528
3.14629e-05
0.0001774
9.79311e-05
9.8546e-05
0.000158666
0.000196451
3.40744e-05
-0.000524912
7.31851e-05
-0.000544396
0.000120068
-0.000562557
0.000178727
-0.000586917
0.000253038
-0.000617401
0.000346935
-0.000654232
0.00046358
-0.00069644
0.000606482
-0.000744198
0.000778125
-0.000796048
0.000981383
-0.000852089
0.00121805
-0.000910559
0.001489
-0.000970129
0.00179258
-0.00102785
0.00212754
-0.00108331
0.00249593
-0.00113948
0.0028978
-0.00119358
0.00333165
-0.00124346
0.00379463
-0.00128716
0.00428285
-0.00132302
0.00479176
-0.0013497
0.00531617
-0.0013661
0.00585034
-0.00137112
0.0063883
-0.00136412
0.00692357
-0.00134422
0.0074494
-0.00131094
0.00795988
-0.00126495
0.00844851
-0.00120569
0.00891006
-0.00113459
0.00933856
-0.00105108
0.0097274
-0.000954981
0.0100715
-0.000848199
0.0103665
-0.000732115
0.0106091
-0.000608309
0.0107973
-0.000478805
0.0109291
-0.000344493
0.0110041
-0.000207934
0.0110205
-6.90424e-05
0.0109929
6.4018e-05
0.0109206
0.000200966
0.0108002
0.000338493
0.0106309
0.000474473
0.0104128
0.00060756
0.0101464
0.000736509
0.00983339
0.000860343
0.0094758
0.000978402
0.00907658
0.00108973
0.00863888
0.0011939
0.00816637
0.00128999
0.00766226
0.00137766
0.00713073
0.00145592
0.00657548
0.00152431
0.00600066
0.0015821
0.00541063
0.0016286
0.00480941
0.00166361
0.00420172
0.00168606
0.00359176
0.00169635
0.00298525
0.00169223
0.0023869
0.0016754
0.00180172
0.00164391
0.00123484
0.00159947
0.000691603
0.00154011
0.000176567
0.00146787
-0.000305
0.00138165
-0.000747724
0.00128191
-0.00114694
0.00116953
-0.00149834
0.0010455
-0.00179833
0.000911085
-0.00204387
0.000767685
-0.00223054
0.000614846
-0.00235687
0.000456523
-0.00242132
0.000293903
-0.00242551
0.0001312
-0.00235642
-4.39584e-05
-0.00223083
-0.00021089
-0.00204539
-0.000370522
-0.00180297
-0.000522186
-0.00150649
-0.000664914
-0.00116217
-0.000794569
-0.000774683
-0.000909378
-0.000351632
-0.00100649
9.93495e-05
-0.00108366
0.000569387
-0.00113799
0.00104936
-0.00116809
0.00152863
-0.00117182
0.00199745
-0.001149
0.0024444
-0.00109803
0.00285845
-0.00101861
0.00322987
-0.000912803
0.00354862
-0.00078051
0.00380367
-0.000623116
0.00398964
-0.000445956
0.00409482
-0.000247759
0.00412284
-3.98756e-05
0.00405408
0.00020525
0.0038965
0.000436176
0.00365124
0.000662424
0.00332089
0.000880359
0.00291059
0.00108453
0.00242759
0.0012705
0.00188239
0.00143013
0.00128757
0.0015578
0.000657566
0.00164862
9.97493e-06
0.00169606
-0.00063849
0.00169856
-0.0012689
0.00165251
-0.00186229
0.00155693
-0.00239969
0.00141243
-0.0028627
0.00122126
-0.00323438
0.000986569
-0.00350308
0.00071704
-0.0036538
0.000416149
-0.00368463
9.91509e-05
-0.00357979
-0.000256526
-0.00334957
-0.000589201
-0.00299856
-0.000905336
-0.0025367
-0.00119533
-0.0019793
-0.00144796
-0.00134597
-0.00165047
-0.000659339
-0.00179359
5.48881e-05
-0.00186927
0.00076707
-0.00186966
0.00144768
-0.00179308
0.00206719
-0.0016397
0.00259775
-0.00141411
0.00301619
-0.00112422
0.00330068
-0.000780352
0.00343775
-0.000398629
0.00341427
1.46247e-05
0.00323716
0.000433339
0.00291335
0.000820902
0.00245619
0.00117148
0.00188973
0.00146288
0.00124363
0.00168024
0.000553411
0.00180635
-0.0001448
0.00183648
-0.000808971
0.00176011
-0.00140181
0.00158485
-0.00188817
0.00131802
-0.00224004
0.000976012
-0.00243644
0.000578533
-0.00246774
0.000152468
-0.00233086
-0.000291164
-0.0020437
-0.000688423
-0.00162706
-0.00102755
-0.00111589
-0.0012822
-0.000550487
-0.00143313
2.22639e-05
-0.00146464
0.000554846
-0.00137068
0.00100182
-0.00116107
0.00132592
-0.000851174
0.00149807
-0.000465528
0.00150261
-3.95855e-05
0.00133615
0.000413403
0.00101808
0.000808459
0.000575744
0.0011309
5.06963e-05
0.0013475
-0.0005005
0.00143483
-0.00102787
0.0013759
-0.00147697
0.00117692
-0.00180157
0.000856969
-0.00196616
0.000444528
-0.00195117
-2.43533e-05
-0.00176049
-0.000496364
-0.00141317
-0.000910826
-0.000946295
-0.00123236
-0.000410798
-0.00142431
0.000134835
-0.00146441
0.000629977
-0.00134382
0.00102126
-0.00108269
0.00126993
-0.000714258
0.00135458
-0.000285184
0.00127264
0.000159176
0.00104747
0.000546962
0.000717149
0.000839044
0.000332933
0.0010013
-4.94241e-05
0.00101872
-0.000378289
0.000895267
-0.000612072
0.000662256
-0.000727978
0.000361847
-0.000722681
4.5821e-05
-0.000613407
-0.000238594
-0.000431128
-0.000444558
-0.000215866
-0.000551872
-7.41717e-06
-0.00055488
0.000159825
-0.000468114
0.000266635
-0.000324005
0.000307759
-0.000160403
0.000293177
-1.48433e-05
0.000243883
8.38504e-05
0.000184634
0.000121654
0.000138098
0.00010348
0.000119254
4.606e-05
0.000131485
-2.54729e-05
0.000169163
-8.24452e-05
0.000212011
-9.03862e-05
0.000240168
-4.90616e-05
0.00023633
3.53012e-05
0.000190902
0.00014336
0.000107364
0.000242204
0.000303815
-0.00014732
-0.000377592
-0.000278688
-0.000413027
-0.000389779
-0.000451465
-0.000469435
-0.00050726
-0.000507707
-0.000579128
-0.000493803
-0.000668135
-0.000420513
-0.00076973
-0.00027855
-0.00088616
-6.66346e-05
-0.00100796
0.000218026
-0.00113675
0.000573696
-0.00126623
0.00100074
-0.00139717
0.00149776
-0.00152487
0.00205932
-0.00164487
0.00268238
-0.00176254
0.0033619
-0.00187309
0.00409214
-0.0019737
0.00486746
-0.00206248
0.00567913
-0.00213469
0.00651831
-0.00218888
0.00737406
-0.00222184
0.00823504
-0.0022321
0.00908791
-0.00221699
0.00992087
-0.00217719
0.0107196
-0.0021097
0.0114731
-0.00201838
0.0121663
-0.00189889
0.0127922
-0.00176048
0.0133375
-0.00159639
0.0138016
-0.00141914
0.0141787
-0.00122532
0.0144697
-0.00102311
0.0146749
-0.000813426
0.0147964
-0.000600302
0.0148383
-0.000386482
0.0148057
-0.000175266
0.0146926
4.40852e-05
0.0144843
0.000272278
0.0141985
0.000486736
0.0138462
0.000690788
0.0134355
0.000885233
0.0129724
0.00107068
0.0124619
0.00124691
0.0119081
0.00141417
0.0113146
0.00157196
0.0106855
0.00171877
0.0100241
0.0018553
0.00933396
0.00198014
0.00861934
0.00209228
0.00788383
0.00219143
0.00713201
0.00227613
0.00636754
0.00234657
0.0055958
0.00240035
0.00482051
0.00243889
0.00404737
0.0024592
0.00328218
0.00246154
0.00252932
0.00244509
0.00179399
0.00241073
0.00108204
0.00235586
0.000398178
0.00228333
-0.000251461
0.00218975
-0.00086019
0.0020766
-0.00142273
0.00194419
-0.00193458
0.00179376
-0.00239064
0.00162559
-0.0027855
0.00144036
-0.00311423
0.00123982
-0.00337446
0.00102791
-0.00356181
0.000802203
-0.0036739
0.000568608
-0.00371063
0.000330636
-0.00366868
8.92516e-05
-0.00354753
-0.000165115
-0.00335294
-0.000405475
-0.00308532
-0.00063814
-0.00274798
-0.000859533
-0.00234622
-0.00106667
-0.00188573
-0.00125506
-0.00137416
-0.00142095
-0.000821435
-0.00155922
-0.000236029
-0.00166907
0.000370519
-0.00174454
0.000986906
-0.00178447
0.00160073
-0.00178565
0.00219846
-0.00174673
0.00276779
-0.00166736
0.00329582
-0.00154664
0.00376799
-0.00138497
0.00417278
-0.0011853
0.00450114
-0.000951475
0.00473724
-0.000682062
0.00488028
-0.000390797
0.00491756
-7.71524e-05
0.00484274
0.000280071
0.00465855
0.000620362
0.00436592
0.000955052
0.00396774
0.00127854
0.00347062
0.00158166
0.00288453
0.00185659
0.00222188
0.00209279
0.00149893
0.00228075
0.000733878
0.00241367
-5.39387e-05
0.00248388
-0.000842063
0.00248668
-0.00160632
0.00241676
-0.00232357
0.00227418
-0.00297075
0.00205961
-0.00352662
0.00177713
-0.00397271
0.00143266
-0.0042893
0.00103362
-0.00446413
0.000590978
-0.00448676
0.000121789
-0.00435178
-0.000391507
-0.00406443
-0.00087655
-0.00363086
-0.00133891
-0.00306293
-0.00176325
-0.00237948
-0.00213142
-0.00160525
-0.00242469
-0.000769949
-0.00262889
9.56301e-05
-0.00273485
0.000954853
-0.00272888
0.0017723
-0.00261053
0.0025127
-0.00238009
0.00314427
-0.00204568
0.00363328
-0.00161323
0.00396053
-0.0011076
0.00410835
-0.000546457
0.00405997
6.30084e-05
0.00382744
0.000665867
0.0034167
0.00123164
0.00284861
0.00173957
0.00215095
0.00216053
0.00136084
0.00247036
0.000520042
0.00264714
-0.000319514
0.00267604
-0.00111402
0.00255462
-0.00181509
0.00228592
-0.00238256
0.00188549
-0.00278172
0.00137517
-0.00298828
0.000785096
-0.00299168
0.000155869
-0.00279369
-0.00048916
-0.00241362
-0.00106849
-0.00187882
-0.00156235
-0.00123267
-0.00192835
-0.000527398
-0.0021384
0.000181821
-0.00217386
0.000836059
-0.00202492
0.00138092
-0.00170593
0.00176855
-0.0012388
0.00196913
-0.000666113
0.00195616
-2.66072e-05
0.00174306
0.0006265
0.00134354
0.00120798
0.000795069
0.00167937
0.000150736
0.00199184
-0.000526574
0.00211214
-0.00116846
0.00201779
-0.0017104
0.00171886
-0.00209698
0.00124355
-0.0022894
0.000636947
-0.00226245
-5.13007e-05
-0.00202532
-0.000733491
-0.0016016
-0.00133455
-0.00103858
-0.00179538
-0.000398475
-0.00206441
0.000246837
-0.00210972
0.000823705
-0.00192069
0.00127001
-0.00152899
0.00154006
-0.000984316
0.00161014
-0.000355264
0.00148416
0.000285156
0.00119004
0.00084109
0.000777567
0.00125151
0.000309981
0.00146888
-0.000144835
0.00147354
-0.000524256
0.00127469
-0.000781469
0.000919469
-0.000892314
0.000472692
-0.000856323
9.83034e-06
-0.000699955
-0.000394962
-0.000463193
-0.00068132
-0.000196747
-0.000818318
4.9569e-05
-0.000801196
0.000236992
-0.000655536
0.000343404
-0.000430417
0.000367371
-0.00018437
0.000324666
2.78611e-05
0.000243701
0.000164815
0.000156754
0.000208602
9.28811e-05
0.000167353
7.0015e-05
6.8926e-05
8.97336e-05
-4.51914e-05
0.00014355
-0.000136262
0.000206361
-0.000153197
0.000251752
-9.4453e-05
0.000258099
2.89548e-05
0.000213235
0.000188223
0.000121273
0.000334166
0.000425088
-0.000583115
0.000205524
-0.00115147
0.00015533
-0.00169406
9.11284e-05
-0.00218619
-1.51322e-05
-0.00263464
-0.000130681
-0.00300412
-0.000298657
-0.00329236
-0.000481489
-0.00348599
-0.000692526
-0.00359699
-0.000896966
-0.00360362
-0.00113011
-0.00349448
-0.00137537
-0.00325463
-0.00163702
-0.00287918
-0.00190032
-0.00236243
-0.00216162
-0.00171235
-0.00241262
-0.000936945
-0.0026485
-4.82846e-05
-0.00286236
0.000938639
-0.0030494
0.00200789
-0.00320394
0.00313954
-0.00332053
0.00431178
-0.00339409
0.00550559
-0.00342591
0.00669681
-0.00340821
0.00786481
-0.00334518
0.00898375
-0.00322864
0.0100367
-0.0030713
0.0109973
-0.00285953
0.011859
-0.00262221
0.0125986
-0.00233595
0.0132168
-0.00203738
0.013706
-0.00171446
0.0140685
-0.0013856
0.0143093
-0.00105428
0.014435
-0.000725973
0.0144585
-0.000410002
0.0143857
-0.000102458
0.014232
0.000197833
0.0140144
0.000489796
0.01373
0.00077119
0.0133796
0.00104118
0.0129665
0.0012983
0.0124943
0.00154292
0.0119674
0.00177384
0.0113902
0.00199135
0.0107677
0.00219445
0.0101035
0.00238299
0.00940246
0.00255632
0.00866886
0.00271374
0.00790654
0.0028546
0.00712019
0.00297778
0.00631398
0.00308234
0.00549304
0.00316751
0.00466196
0.00323142
0.00382727
0.00327359
0.00299241
0.00329406
0.00216277
0.00329118
0.00134635
0.00326151
0.00054899
0.00320809
-0.000223385
0.00312823
-0.000964214
0.00302416
-0.00166503
0.00289057
-0.00232154
0.00273311
-0.00292579
0.00254844
-0.00346985
0.00233781
-0.0039493
0.00210504
-0.00435828
0.00184934
-0.0046903
0.00157184
-0.00494158
0.00127919
-0.00510952
0.000970139
-0.00519057
0.000649659
-0.00518191
0.000321978
-0.00507065
-2.20162e-05
-0.00487675
-0.000359016
-0.00459481
-0.000687409
-0.00422674
-0.00100621
-0.00377704
-0.00130924
-0.00325179
-0.00159191
-0.00265891
-0.00184794
-0.00200771
-0.00207214
-0.00130755
-0.00225938
-0.000570551
-0.00240607
0.000190342
-0.00250543
0.000960462
-0.00255459
0.00172447
-0.00254965
0.00246842
-0.00249069
0.00317589
-0.00237483
0.00382833
-0.00219907
0.00441387
-0.00197051
0.00491703
-0.00168846
0.00531936
-0.00135381
0.00561802
-0.000980725
0.00579564
-0.000568417
0.0058393
-0.000120808
0.00575589
0.000363475
0.0055387
0.000837554
0.00518873
0.00130502
0.00471059
0.00175669
0.00411258
0.00217967
0.00340659
0.00256257
0.00260912
0.00289026
0.00173921
0.00315066
0.000818376
0.00333451
-0.000126893
0.00342915
-0.00107124
0.00343104
-0.00198752
0.00333304
-0.00284658
0.00313324
-0.00362069
0.00283372
-0.0042836
0.00244004
-0.0048084
0.00195747
-0.00517668
0.00140191
-0.00537711
0.000791404
-0.00538948
0.000134155
-0.00521816
-0.000562827
-0.00486314
-0.00123157
-0.0043318
-0.00187025
-0.00364234
-0.00245271
-0.00281702
-0.00295675
-0.00188476
-0.00335695
-0.000879353
-0.0036343
0.000156181
-0.00377038
0.0011826
-0.0037553
0.00215565
-0.00358358
0.00303128
-0.00325572
0.00376991
-0.00278431
0.00434138
-0.0021847
0.00471266
-0.00147888
0.00486314
-0.000696933
0.00478728
0.000138864
0.00448995
0.000963198
0.00397987
0.00174173
0.00328306
0.00243639
0.00243511
0.00300848
0.00148173
0.00342374
0.000477329
0.00365154
-0.000525219
0.00367859
-0.00146583
0.00349523
-0.00228905
0.00310913
-0.0029455
0.00254195
-0.00339575
0.00182541
-0.00361183
0.00100117
-0.00358116
0.0001252
-0.00331263
-0.000757686
-0.00282493
-0.0015562
-0.00215562
-0.00223166
-0.00135877
-0.0027252
-0.000491603
-0.00300556
0.000369647
-0.00303511
0.00115765
-0.00281292
0.00180734
-0.00235562
0.00226692
-0.00169839
0.00249191
-0.000891108
0.00246215
3.15894e-06
0.0021907
0.000897947
0.00169674
0.00170194
0.00102662
0.00234949
0.000244145
0.00277431
-0.000573021
0.00292931
-0.00134268
0.00278744
-0.0019871
0.00236328
-0.00244185
0.0016983
-0.00265902
0.000854115
-0.00261687
-9.34517e-05
-0.00232398
-0.00102638
-0.00181151
-0.00184702
-0.00113807
-0.00246882
-0.00037998
-0.00282251
0.000376653
-0.00286636
0.00104475
-0.00258879
0.00155084
-0.00203508
0.00184213
-0.0012756
0.0018945
-0.000407632
0.00171627
0.000463386
0.00134291
0.00121445
0.000836734
0.00175769
0.000275471
0.00203015
-0.000258528
0.00200754
-0.000692193
0.00170835
-0.000972797
0.00120007
-0.00107438
0.000574279
-0.00100216
-6.23955e-05
-0.000790285
-0.000606835
-0.000491308
-0.000980296
-0.000167863
-0.00114176
0.000120143
-0.0010892
0.000327622
-0.000863016
0.000432088
-0.000534883
0.000434488
-0.00018677
0.000358458
0.000103891
0.000240858
0.000282416
0.000122927
0.000326533
4.08188e-05
0.000249461
1.5215e-05
9.45299e-05
4.5829e-05
-7.58055e-05
0.000117997
-0.00020843
0.000203957
-0.000239157
0.000268856
-0.000159352
0.000286016
1.17951e-05
0.000240857
0.000233381
0.00013833
0.000436694
0.000563418
-0.00148829
0.00169382
-0.00294978
0.00161682
-0.00433855
0.0014799
-0.00561055
0.00125687
-0.00669202
0.000950791
-0.00751652
0.000525847
-0.00801526
1.72484e-05
-0.00819665
-0.000511138
-0.00816787
-0.000925746
-0.00788489
-0.00141309
-0.00739277
-0.00186749
-0.00669788
-0.00233192
-0.00581837
-0.00277982
-0.00476341
-0.00321658
-0.00354123
-0.0036348
-0.002161
-0.00402873
-0.000635376
-0.00438798
0.00101919
-0.00470397
0.00277888
-0.00496363
0.00461907
-0.00516072
0.0065091
-0.00528412
0.00841698
-0.00533379
0.0102982
-0.00528938
0.0121231
-0.00517015
0.0138328
-0.00493836
0.0154108
-0.00464927
0.016765
-0.00421369
0.0179432
-0.00380047
0.018813
-0.00320575
0.0194514
-0.00267572
0.0198315
-0.00209459
0.0200057
-0.00155984
0.0199953
-0.00104386
0.0198356
-0.00056626
0.0195502
-0.000124604
0.0191198
0.000327966
0.0185846
0.000733053
0.0179676
0.00110677
0.0172843
0.00145453
0.0165469
0.00177859
0.0157648
0.00208033
0.0149458
0.00236196
0.014095
0.0026246
0.0132161
0.00287027
0.0123132
0.00309738
0.0113887
0.00330743
0.0104459
0.0034992
0.00948553
0.00367407
0.00851246
0.00382767
0.00752864
0.0039616
0.00653689
0.00407409
0.00554131
0.00416309
0.0045457
0.00422702
0.0035527
0.00426659
0.00256994
0.00427682
0.00160225
0.00425887
0.000655255
0.0042085
-0.000265538
0.00412888
-0.0011511
0.0040138
-0.00199513
0.00386819
-0.00279123
0.00368666
-0.00353052
0.0034724
-0.00420657
0.00322449
-0.00481248
0.00294373
-0.00534016
0.00263272
-0.00578338
0.00229256
-0.00613807
0.00192652
-0.00639781
0.00153893
-0.00655555
0.00112789
-0.00660895
0.000703062
-0.00655802
0.000271042
-0.00640131
-0.000178729
-0.00614129
-0.000619032
-0.00577724
-0.00105146
-0.00531291
-0.00147053
-0.00475409
-0.00186806
-0.00410789
-0.00223811
-0.00338218
-0.00257366
-0.00258867
-0.00286565
-0.00174036
-0.00310769
-0.000850806
-0.00329562
6.50588e-05
-0.0034213
0.000989362
-0.0034789
0.00190586
-0.00346615
0.00279604
-0.00338086
0.00363905
-0.00321784
0.0044197
-0.00297972
0.00511818
-0.002669
0.00571365
-0.00228392
0.00619657
-0.00183673
0.00654927
-0.00133342
0.00675457
-0.000773717
0.00681177
-0.000178007
0.00671405
0.000461193
0.00645922
0.00109238
0.00604702
0.00171722
0.00548303
0.00232068
0.00477801
0.00288469
0.00394645
0.00339413
0.00300717
0.00382953
0.00198362
0.00417421
0.000901913
0.00441621
-0.000210246
0.00454131
-0.00131804
0.00453883
-0.00238974
0.00440474
-0.00339206
0.00413556
-0.00429245
0.00373411
-0.00505861
0.0032062
-0.00566513
0.00256399
-0.00609089
0.00182767
-0.00630676
0.00100727
-0.00631657
0.000143964
-0.00610382
-0.000775578
-0.00567612
-0.00165927
-0.00504481
-0.00250156
-0.00422708
-0.00327044
-0.00325063
-0.00393319
-0.00215344
-0.00445414
-0.000977277
-0.00481047
0.000234643
-0.0049823
0.00143016
-0.00495082
0.00255803
-0.00471144
0.00357265
-0.00427034
0.00442504
-0.0036367
0.00507189
-0.00283155
0.00548368
-0.00189068
0.00564337
-0.000856617
0.00553376
0.000248477
0.00516287
0.00133409
0.00454574
0.00235886
0.00371505
0.00326708
0.00271308
0.00401044
0.00159276
0.00454406
0.000414258
0.00483005
-0.000753658
0.0048465
-0.00184138
0.00458296
-0.00278711
0.00405486
-0.00353276
0.0032876
-0.00403094
0.0023236
-0.00425426
0.00122449
-0.00418418
5.5117e-05
-0.00384028
-0.00110158
-0.00323862
-0.00215785
-0.0024302
-0.00304008
-0.00147339
-0.00368201
-0.00044677
-0.00403219
0.000570625
-0.0040525
0.00149644
-0.00373873
0.00225343
-0.00311261
0.00277638
-0.00222133
0.00302818
-0.0011429
0.00297908
5.22611e-05
0.002644
0.00123302
0.00204842
0.00229752
0.00124968
0.00314823
0.000324181
0.00369981
-0.000634082
0.00388757
-0.00153158
0.00368494
-0.00228018
0.00311188
-0.00280149
0.00221961
-0.00304246
0.00109509
-0.00298112
-0.000154791
-0.00262705
-0.00138045
-0.00202075
-0.00245332
-0.001233
-0.00325657
-0.000352278
-0.00370323
0.000517437
-0.00373607
0.00127621
-0.00334756
0.00184002
-0.00259889
0.00215071
-0.00158629
0.00218168
-0.000438606
0.00194605
0.000699018
0.00148913
0.00167136
0.000886463
0.00236036
0.000229866
0.00268674
-0.000384139
0.00262154
-0.000870545
0.00219476
-0.00117059
0.00150012
-0.00125878
0.000662463
-0.00114582
-0.000175351
-0.000874348
-0.000878311
-0.000510069
-0.00134458
-0.000128018
-0.00152381
0.000200775
-0.00141799
0.000426266
-0.00108851
0.000524577
-0.000633194
0.000502132
-0.000164324
0.000389824
0.000216198
0.000233745
0.000438496
8.44315e-05
0.000475846
-1.44952e-05
0.000348388
-4.27926e-05
0.000122827
2.03204e-06
-0.00012063
9.27161e-05
-0.000299114
0.000203694
-0.000350134
0.0002889
-0.000244558
0.000316827
-1.61314e-05
0.000270958
0.00027925
0.000156656
0.000550996
0.000720074
-0.0024877
0.00418152
-0.00491316
0.00404228
-0.00717391
0.00374065
-0.00915639
0.00323934
-0.0107465
0.00254092
-0.011874
0.0016533
-0.012688
0.000831277
-0.0132302
3.10659e-05
-0.0140716
-8.43341e-05
-0.0146904
-0.000794264
-0.0149369
-0.00162106
-0.0147027
-0.00256608
-0.0139931
-0.00348945
-0.0128302
-0.00437946
-0.0112552
-0.00520976
-0.0093217
-0.00596226
-0.00709158
-0.00661809
-0.004631
-0.00716454
-0.00200246
-0.00759218
0.000732379
-0.00789555
0.00350629
-0.00805803
0.00628484
-0.00811234
0.00899886
-0.0080034
0.0116028
-0.00777413
0.0140055
-0.007341
0.0161817
-0.00682545
0.0179913
-0.00602329
0.019504
-0.0053132
0.0204463
-0.00414803
0.0209519
-0.00318136
0.0210966
-0.0022393
0.0209725
-0.00143571
0.0206555
-0.000726893
0.0201999
-0.00011059
0.0196081
0.000467171
0.0189683
0.000967811
0.018281
0.00142031
0.0175546
0.00183314
0.0167959
0.00221323
0.0160087
0.00256582
0.0151951
0.0028939
0.0143565
0.00320053
0.0134942
0.00348694
0.0126091
0.00375533
0.0116995
0.00400702
0.0107675
0.00423941
0.00981479
0.00445192
0.00884162
0.00464724
0.00784919
0.0048201
0.00683972
0.00497108
0.00581513
0.00509868
0.00478189
0.00519634
0.00374181
0.0052671
0.00270242
0.00530597
0.00166813
0.00531111
0.000643464
0.00528354
-0.000360979
0.00521294
-0.00133859
0.0051065