/*--------------------------------*- C++ -*----------------------------------*\
  =========                 |
  \\      /  F ield         | OpenFOAM: The Open Source CFD Toolbox
   \\    /   O peration     | Website:  https://openfoam.org
    \\  /    A nd           | Version:  12
     \\/     M anipulation  |
\*---------------------------------------------------------------------------*/
FoamFile
{
    format      ascii;
    class       volVectorField;
    location    "1.46";
    object      zeta;
}
// * * * * * * * * * * * * * * * * * * * * * * * * * * * * * * * * * * * * * //

dimensions      [0 1 0 0 0 0 0];

internalField   uniform (0 0 0);

boundaryField
{
    freeSurface
    {
        type            calculated;
        value           nonuniform List<vector> 
181
(
(0 -0.000723656 0)
(0 -0.000723597 0)
(0 -0.000723498 0)
(0 -0.00072338 0)
(0 -0.000723245 0)
(0 -0.000723138 0)
(0 -0.000723017 0)
(0 -0.000722954 0)
(0 -0.0002397 0)
(0 -0.000239489 0)
(0 -0.000240636 0)
(0 -0.000241791 0)
(0 -0.000242942 0)
(0 -0.000244259 0)
(0 -0.00024549 0)
(0 -0.000246534 0)
(0 -0.000247223 0)
(0 -0.000247455 0)
(0 -0.000247097 0)
(0 -0.000246045 0)
(0 -0.000244213 0)
(0 -0.00024154 0)
(0 -0.000237978 0)
(0 -0.000233488 0)
(0 -0.000228047 0)
(0 -0.000221646 0)
(0 -0.000214296 0)
(0 -0.000206028 0)
(0 -0.000196894 0)
(0 -0.000186952 0)
(0 -0.000176291 0)
(0 -0.000165003 0)
(0 -0.0001532 0)
(0 -0.000141015 0)
(0 -0.000128566 0)
(0 -0.00011598 0)
(0 -0.000103403 0)
(0 -9.09684e-05 0)
(0 -7.88299e-05 0)
(0 -6.70474e-05 0)
(0 -5.57544e-05 0)
(0 -4.50328e-05 0)
(0 -3.49509e-05 0)
(0 -2.5564e-05 0)
(0 -1.69048e-05 0)
(0 -8.99716e-06 0)
(0 -1.84802e-06 0)
(0 4.54757e-06 0)
(0 1.02098e-05 0)
(0 1.5159e-05 0)
(0 1.94229e-05 0)
(0 2.3041e-05 0)
(0 2.60536e-05 0)
(0 2.85029e-05 0)
(0 3.04326e-05 0)
(0 3.18862e-05 0)
(0 3.29066e-05 0)
(0 3.35362e-05 0)
(0 3.3818e-05 0)
(0 3.37908e-05 0)
(0 3.34931e-05 0)
(0 3.29624e-05 0)
(0 3.22291e-05 0)
(0 3.13217e-05 0)
(0 3.02671e-05 0)
(0 2.90896e-05 0)
(0 2.78085e-05 0)
(0 2.6445e-05 0)
(0 2.50144e-05 0)
(0 2.35352e-05 0)
(0 2.20206e-05 0)
(0 2.04836e-05 0)
(0 1.89328e-05 0)
(0 1.73772e-05 0)
(0 1.58228e-05 0)
(0 1.4276e-05 0)
(0 1.27446e-05 0)
(0 1.1236e-05 0)
(0 9.75657e-06 0)
(0 8.31149e-06 0)
(0 6.9028e-06 0)
(0 5.53369e-06 0)
(0 4.20415e-06 0)
(0 2.91413e-06 0)
(0 1.66291e-06 0)
(0 4.50474e-07 0)
(0 -7.18205e-07 0)
(0 -1.84301e-06 0)
(0 -2.91825e-06 0)
(0 -3.94137e-06 0)
(0 -4.9123e-06 0)
(0 -5.83301e-06 0)
(0 -6.70581e-06 0)
(0 -7.53124e-06 0)
(0 -8.30799e-06 0)
(0 -9.0332e-06 0)
(0 -9.70607e-06 0)
(0 -1.03278e-05 0)
(0 -1.09022e-05 0)
(0 -1.14345e-05 0)
(0 -1.19286e-05 0)
(0 -1.23857e-05 0)
(0 -1.28048e-05 0)
(0 -1.3185e-05 0)
(0 -1.3526e-05 0)
(0 -1.38275e-05 0)
(0 -1.40911e-05 0)
(0 -1.43171e-05 0)
(0 -1.45073e-05 0)
(0 -1.46639e-05 0)
(0 -1.47901e-05 0)
(0 -1.48901e-05 0)
(0 -1.49682e-05 0)
(0 -1.5027e-05 0)
(0 -1.50659e-05 0)
(0 -1.50845e-05 0)
(0 -1.50806e-05 0)
(0 -1.50549e-05 0)
(0 -1.50092e-05 0)
(0 -1.49463e-05 0)
(0 -1.48679e-05 0)
(0 -1.47747e-05 0)
(0 -1.46682e-05 0)
(0 -1.45499e-05 0)
(0 -1.44238e-05 0)
(0 -1.42931e-05 0)
(0 -1.41578e-05 0)
(0 -1.40186e-05 0)
(0 -1.38766e-05 0)
(0 -1.37328e-05 0)
(0 -1.35893e-05 0)
(0 -1.34453e-05 0)
(0 -1.32971e-05 0)
(0 -1.31413e-05 0)
(0 -1.2979e-05 0)
(0 -1.28121e-05 0)
(0 -1.26479e-05 0)
(0 -1.24907e-05 0)
(0 -1.23443e-05 0)
(0 -1.22067e-05 0)
(0 -1.20741e-05 0)
(0 -1.19434e-05 0)
(0 -1.18132e-05 0)
(0 -1.16835e-05 0)
(0 -1.15552e-05 0)
(0 -1.14295e-05 0)
(0 -1.13069e-05 0)
(0 -1.11903e-05 0)
(0 -1.10827e-05 0)
(0 -1.09858e-05 0)
(0 -1.08983e-05 0)
(0 -1.08179e-05 0)
(0 -1.07392e-05 0)
(0 -1.06584e-05 0)
(0 -1.0577e-05 0)
(0 -1.04973e-05 0)
(0 -1.04212e-05 0)
(0 -1.03541e-05 0)
(0 -1.02961e-05 0)
(0 -1.02495e-05 0)
(0 -1.02118e-05 0)
(0 -1.01822e-05 0)
(0 -1.01615e-05 0)
(0 -1.01503e-05 0)
(0 -1.0146e-05 0)
(0 -1.01449e-05 0)
(0 -1.01433e-05 0)
(0 -1.01377e-05 0)
(0 -1.01284e-05 0)
(0 -1.01133e-05 0)
(0 -1.00899e-05 0)
(0 -1.00531e-05 0)
(0 -1.0004e-05 0)
(0 -9.94982e-06 0)
(0 -9.90163e-06 0)
(0 -9.87511e-06 0)
(0 -9.87997e-06 0)
(0 -9.90616e-06 0)
(0 -9.93186e-06 0)
(0 -9.93391e-06 0)
(0 -9.9131e-06 0)
)
;
    }
    walls
    {
        type            calculated;
        value           uniform (0 0 0);
    }
    floatingObject
    {
        type            calculated;
        value           uniform (0 0 0);
    }
    frontAndBack
    {
        type            empty;
    }
}


// ************************************************************************* //
