/*--------------------------------*- C++ -*----------------------------------*\
  =========                 |
  \\      /  F ield         | OpenFOAM: The Open Source CFD Toolbox
   \\    /   O peration     | Website:  https://openfoam.org
    \\  /    A nd           | Version:  12
     \\/     M anipulation  |
\*---------------------------------------------------------------------------*/
FoamFile
{
    format      ascii;
    class       surfaceScalarField;
    location    "0.44";
    object      phi;
}
// * * * * * * * * * * * * * * * * * * * * * * * * * * * * * * * * * * * * * //

dimensions      [1 0 -1 0 0 0 0];

internalField   nonuniform List<scalar> 
7429
(
-2.86313e-05
2.86313e-05
-5.7668e-05
2.90367e-05
-8.70002e-05
2.93322e-05
-0.000116607
2.96071e-05
-0.000146467
2.986e-05
-0.000176556
3.00887e-05
-0.000206847
3.02905e-05
-0.000237309
3.04623e-05
-0.000267912
3.06031e-05
-0.000298622
3.07102e-05
-0.000329396
3.07743e-05
-0.000360193
3.07962e-05
-0.000390969
3.0776e-05
-0.00042167
3.07012e-05
-0.000452244
3.05742e-05
-0.000482633
3.03887e-05
-0.000512772
3.0139e-05
-0.000542597
2.98253e-05
-0.00057204
2.94425e-05
-0.000601027
2.89877e-05
-0.000629486
2.84587e-05
-0.00065734
2.78541e-05
-0.000684515
2.71748e-05
-0.000710932
2.64177e-05
-0.000736521
2.55886e-05
-0.000761205
2.46837e-05
-0.000784917
2.37121e-05
-0.000807591
2.2674e-05
-0.00082917
2.15791e-05
-0.000849602
2.04318e-05
-0.000868849
1.92476e-05
-0.000886892
1.80431e-05
-0.00090366
1.6768e-05
-0.000919092
1.5432e-05
-0.000933151
1.40582e-05
-0.000945806
1.26558e-05
-0.000957042
1.12354e-05
-0.000966849
9.80701e-06
-0.000975226
8.3775e-06
-0.000982184
6.9577e-06
-0.000987738
5.55343e-06
-0.000991925
4.18718e-06
-0.00099481
2.88535e-06
-0.000996442
1.63198e-06
-0.000996865
4.23031e-07
-0.000995916
-9.4929e-07
-0.000993749
-2.16706e-06
-0.000990412
-3.33681e-06
-0.000985947
-4.46496e-06
-0.000980396
-5.55112e-06
-0.0009738
-6.59534e-06
-0.000966205
-7.59552e-06
-0.000957653
-8.55146e-06
-0.000948191
-9.46222e-06
-0.000937866
-1.03256e-05
-0.000926721
-1.11444e-05
-0.000914811
-1.19098e-05
-0.000902178
-1.26338e-05
-0.000888875
-1.33028e-05
-0.000874942
-1.39325e-05
-0.000860435
-1.45071e-05
-0.000845398
-1.50376e-05
-0.000829879
-1.55188e-05
-0.000813928
-1.59512e-05
-0.000797586
-1.63415e-05
-0.000780902
-1.66844e-05
-0.000763915
-1.69869e-05
-0.000746671
-1.72439e-05
-0.000729214
-1.74565e-05
-0.000711589
-1.76257e-05
-0.000693823
-1.77653e-05
-0.000675965
-1.7858e-05
-0.000658054
-1.79115e-05
-0.000640114
-1.79394e-05
-0.000622183
-1.7931e-05
-0.000604301
-1.78818e-05
-0.00058649
-1.78111e-05
-0.000568782
-1.77084e-05
-0.000551206
-1.75755e-05
-0.000533792
-1.74145e-05
-0.000516554
-1.72378e-05
-0.000499523
-1.7031e-05
-0.000482717
-1.68065e-05
-0.000466156
-1.6561e-05
-0.000449855
-1.63009e-05
-0.000433827
-1.60277e-05
-0.000418094
-1.57335e-05
-0.000402664
-1.54293e-05
-0.000387548
-1.51163e-05
-0.000372756
-1.47915e-05
-0.000358296
-1.44602e-05
-0.000344177
-1.41197e-05
-0.000330405
-1.37715e-05
-0.000316981
-1.34239e-05
-0.000303914
-1.30672e-05
-0.000291204
-1.27095e-05
-0.000278853
-1.23516e-05
-0.000266865
-1.19881e-05
-0.000255232
-1.16323e-05
-0.00024396
-1.12726e-05
-0.000233047
-1.09132e-05
-0.000222487
-1.05601e-05
-0.000212281
-1.0206e-05
-0.000202422
-9.85904e-06
-0.000192907
-9.51485e-06
-0.000183733
-9.17409e-06
-0.000174893
-8.83941e-06
-0.000166382
-8.511e-06
-0.000158195
-8.18724e-06
-0.000150325
-7.87034e-06
-0.000142764
-7.56042e-06
-0.00013551
-7.25451e-06
-0.000128551
-6.95912e-06
-0.000121884
-6.6668e-06
-0.0001155
-6.3837e-06
-0.000109392
-6.10828e-06
-0.000103551
-5.84055e-06
-9.79731e-05
-5.57828e-06
-9.26491e-05
-5.32402e-06
-8.75704e-05
-5.07866e-06
-8.27303e-05
-4.84007e-06
-7.81219e-05
-4.60841e-06
-7.37373e-05
-4.38461e-06
-6.9568e-05
-4.16933e-06
-6.56078e-05
-3.96019e-06
-6.1849e-05
-3.75879e-06
-5.82833e-05
-3.56569e-06
-5.49044e-05
-3.37888e-06
-5.17042e-05
-3.20023e-06
-4.86752e-05
-3.02898e-06
-4.58111e-05
-2.86408e-06
-4.31041e-05
-2.70701e-06
-4.0547e-05
-2.55709e-06
-3.81333e-05
-2.41376e-06
-3.58556e-05
-2.27764e-06
-3.37079e-05
-2.14773e-06
-3.16841e-05
-2.02384e-06
-2.97777e-05
-1.90634e-06
-2.79832e-05
-1.79454e-06
-2.62953e-05
-1.68786e-06
-2.4709e-05
-1.58629e-06
-2.32195e-05
-1.48951e-06
-2.18221e-05
-1.39745e-06
-2.05129e-05
-1.30921e-06
-1.92878e-05
-1.22504e-06
-1.81428e-05
-1.14501e-06
-1.70747e-05
-1.06814e-06
-1.60802e-05
-9.94475e-07
-1.51564e-05
-9.23776e-07
-1.4301e-05
-8.5541e-07
-1.35118e-05
-7.89209e-07
-1.27868e-05
-7.25053e-07
-1.21241e-05
-6.62648e-07
-1.1522e-05
-6.02149e-07
-1.09782e-05
-5.43756e-07
-1.04907e-05
-4.87489e-07
-1.00568e-05
-4.33947e-07
-9.6735e-06
-3.83267e-07
-9.33782e-06
-3.35676e-07
-9.04616e-06
-2.91659e-07
-8.79493e-06
-2.51236e-07
-8.58009e-06
-2.14836e-07
-8.39761e-06
-1.82484e-07
-8.24324e-06
-1.54364e-07
-8.11282e-06
-1.30423e-07
-8.00216e-06
-1.10664e-07
-7.90726e-06
-9.48934e-08
-7.82423e-06
-8.30378e-08
-7.74948e-06
-7.4748e-08
-7.68015e-06
-6.93264e-08
-7.6142e-06
-6.59526e-08
-7.55044e-06
-6.3763e-08
-7.48826e-06
-6.21719e-08
-7.42754e-06
-6.07264e-08
-7.36838e-06
-5.91589e-08
-7.31096e-06
-5.74192e-08
-7.2553e-06
-5.56619e-08
-7.20123e-06
-5.40708e-08
-7.14833e-06
-5.28943e-08
-7.09615e-06
-5.21869e-08
-7.04375e-06
-5.23919e-08
-6.99047e-06
-5.32873e-08
-6.93562e-06
-5.48488e-08
-6.8784e-06
-5.72195e-08
-6.81803e-06
-6.03726e-08
-6.75327e-06
-6.47607e-08
-6.68154e-06
-7.17241e-08
-6.59832e-06
-8.32176e-08
-6.49668e-06
-1.01643e-07
-6.36633e-06
-1.30354e-07
-6.19247e-06
-1.73852e-07
-5.95629e-06
-2.36184e-07
-5.63616e-06
-3.20128e-07
-5.20963e-06
-4.26534e-07
-4.65699e-06
-5.52639e-07
-3.96615e-06
-6.90843e-07
-3.13656e-06
-8.29584e-07
-2.17992e-06
-9.56645e-07
-1.12201e-06
-1.05791e-06
-1.12201e-06
-2.71752e-05
5.58065e-05
-5.47362e-05
5.65977e-05
-8.25887e-05
5.71847e-05
-0.000110719
5.77376e-05
-0.000139113
5.82535e-05
-0.000167752
5.87283e-05
-0.000196618
5.9156e-05
-0.000225685
5.95297e-05
-0.000254929
5.98469e-05
-0.00028432
6.0101e-05
-0.000313818
6.02723e-05
-0.000343382
6.03599e-05
-0.000372968
6.03621e-05
-0.000402519
6.02519e-05
-0.000431976
6.00314e-05
-0.000461273
5.9686e-05
-0.000490336
5.92019e-05
-0.000519089
5.85778e-05
-0.000547448
5.78016e-05
-0.000575326
5.68664e-05
-0.000602635
5.57669e-05
-0.000629281
5.45e-05
-0.000655173
5.30677e-05
-0.000680221
5.14649e-05
-0.000704337
4.97049e-05
-0.000727436
4.77826e-05
-0.000749443
4.57193e-05
-0.000770289
4.35196e-05
-0.000789917
4.12075e-05
-0.000808284
3.87984e-05
-0.000825372
3.63356e-05
-0.000841118
3.37895e-05
-0.000855459
3.11082e-05
-0.000868367
2.83405e-05
-0.000879833
2.5524e-05
-0.000889852
2.26754e-05
-0.000898433
1.98161e-05
-0.000905592
1.69664e-05
-0.000911355
1.41401e-05
-0.000915749
1.13515e-05
-0.000918829
8.63321e-06
-0.000920705
6.06311e-06
-0.000921405
3.58582e-06
-0.000920952
1.17907e-06
-0.000919088
-1.4412e-06
-0.000916215
-3.82246e-06
-0.000912279
-6.10284e-06
-0.00090732
-8.29602e-06
-0.00090138
-1.04048e-05
-0.000894504
-1.24268e-05
-0.000886737
-1.43625e-05
-0.000878124
-1.62081e-05
-0.000868712
-1.79642e-05
-0.000858544
-1.96295e-05
-0.000847669
-2.12007e-05
-0.000836129
-2.26845e-05
-0.000823976
-2.40635e-05
-0.000811247
-2.53628e-05
-0.000797994
-2.65556e-05
-0.000784252
-2.76739e-05
-0.000770073
-2.86863e-05
-0.000755495
-2.96154e-05
-0.000740563
-3.04512e-05
-0.000725319
-3.11948e-05
-0.000709801
-3.18596e-05
-0.00069405
-3.24357e-05
-0.0006781
-3.29368e-05
-0.000661991
-3.33532e-05
-0.00064576
-3.36871e-05
-0.000629445
-3.39409e-05
-0.000613069
-3.41412e-05
-0.000596672
-3.42548e-05
-0.000580287
-3.42966e-05
-0.000563934
-3.42929e-05
-0.000547642
-3.42227e-05
-0.000531446
-3.4078e-05
-0.000515362
-3.38955e-05
-0.000499414
-3.36559e-05
-0.000483627
-3.33627e-05
-0.000468022
-3.30195e-05
-0.00045261
-3.265e-05
-0.000437414
-3.22265e-05
-0.000422448
-3.17727e-05
-0.000407727
-3.12817e-05
-0.000393262
-3.07659e-05
-0.000379062
-3.02277e-05
-0.000365144
-2.96522e-05
-0.000351513
-2.90601e-05
-0.000338176
-2.84533e-05
-0.000325141
-2.7826e-05
-0.000312413
-2.71883e-05
-0.000299998
-2.6535e-05
-0.000287901
-2.58685e-05
-0.00027612
-2.52045e-05
-0.000264663
-2.45245e-05
-0.000253529
-2.3844e-05
-0.000242716
-2.31641e-05
-0.000232229
-2.24748e-05
-0.000222061
-2.18007e-05
-0.000212213
-2.11203e-05
-0.000202685
-2.04412e-05
-0.000193471
-1.97747e-05
-0.000184569
-1.91071e-05
-0.000175975
-1.84537e-05
-0.000167684
-1.78059e-05
-0.000159693
-1.71651e-05
-0.000151996
-1.65362e-05
-0.000144587
-1.59195e-05
-0.000137463
-1.53118e-05
-0.000130616
-1.47173e-05
-0.00012404
-1.41361e-05
-0.000117732
-1.35627e-05
-0.000111682
-1.30091e-05
-0.000105887
-1.24616e-05
-0.00010034
-1.19314e-05
-9.50321e-05
-1.14157e-05
-8.99581e-05
-1.09146e-05
-8.51126e-05
-1.04238e-05
-8.04885e-05
-9.9481e-06
-7.6078e-05
-9.48912e-06
-7.18752e-05
-9.04284e-06
-6.78741e-05
-8.60954e-06
-6.40678e-05
-8.19095e-06
-6.04488e-05
-7.7883e-06
-5.70119e-05
-7.39711e-06
-5.37503e-05
-7.02042e-06
-5.06567e-05
-6.65926e-06
-4.77257e-05
-6.3099e-06
-4.495e-05
-5.97585e-06
-4.23233e-05
-5.65571e-06
-3.98399e-05
-5.34752e-06
-3.74928e-05
-5.05409e-06
-3.52757e-05
-4.77413e-06
-3.31829e-05
-4.50663e-06
-3.12077e-05
-4.25276e-06
-2.93449e-05
-4.01061e-06
-2.75889e-05
-3.77978e-06
-2.59343e-05
-3.56092e-06
-2.43762e-05
-3.35267e-06
-2.29102e-05
-3.15388e-06
-2.1532e-05
-2.96449e-06
-2.02376e-05
-2.78392e-06
-1.9023e-05
-2.61205e-06
-1.78849e-05
-2.44729e-06
-1.68198e-05
-2.29015e-06
-1.58239e-05
-2.14086e-06
-1.48945e-05
-1.9976e-06
-1.40286e-05
-1.86037e-06
-1.32237e-05
-1.72862e-06
-1.24781e-05
-1.60106e-06
-1.179e-05
-1.47727e-06
-1.11581e-05
-1.35698e-06
-1.05811e-05
-1.23967e-06
-1.00576e-05
-1.12565e-06
-9.58592e-06
-1.01539e-06
-9.16437e-06
-9.09044e-07
-8.79052e-06
-8.07796e-07
-8.46176e-06
-7.12023e-07
-8.17521e-06
-6.22224e-07
-7.92755e-06
-5.39321e-07
-7.71546e-06
-4.63324e-07
-7.53519e-06
-3.95108e-07
-7.38307e-06
-3.34601e-07
-7.2553e-06
-2.82139e-07
-7.14852e-06
-2.37197e-07
-7.05872e-06
-2.00466e-07
-6.98218e-06
-1.71437e-07
-6.91517e-06
-1.50042e-07
-6.85422e-06
-1.35705e-07
-6.79655e-06
-1.26996e-07
-6.74043e-06
-1.22067e-07
-6.68511e-06
-1.1909e-07
-6.63042e-06
-1.16858e-07
-6.5767e-06
-1.14443e-07
-6.52442e-06
-1.11444e-07
-6.47387e-06
-1.07964e-07
-6.42509e-06
-1.04443e-07
-6.37784e-06
-1.01325e-07
-6.33173e-06
-9.9e-08
-6.28617e-06
-9.77508e-08
-6.24025e-06
-9.83118e-08
-6.19344e-06
-1.001e-07
-6.14536e-06
-1.0293e-07
-6.09556e-06
-1.07016e-07
-6.04386e-06
-1.12068e-07
-5.98973e-06
-1.18896e-07
-5.93143e-06
-1.30017e-07
-5.86542e-06
-1.4923e-07
-5.78591e-06
-1.81159e-07
-5.68407e-06
-2.32188e-07
-5.54595e-06
-3.11978e-07
-5.35382e-06
-4.28312e-07
-5.08716e-06
-5.86786e-07
-4.72253e-06
-7.91168e-07
-4.2394e-06
-1.03577e-06
-3.62389e-06
-1.30635e-06
-2.87385e-06
-1.57962e-06
-2.00086e-06
-1.82964e-06
-1.03169e-06
-2.02707e-06
-2.1537e-06
-2.6641e-05
8.24475e-05
-5.36679e-05
8.36246e-05
-8.10065e-05
8.45233e-05
-0.000108656
8.53866e-05
-0.000136614
8.62122e-05
-0.000164885
8.69996e-05
-0.00019347
8.77403e-05
-0.000222363
8.84226e-05
-0.000251554
8.90385e-05
-0.000281027
8.9574e-05
-0.000310748
8.99931e-05
-0.000340676
9.02877e-05
-0.000370761
9.04474e-05
-0.000400934
9.04243e-05
-0.000431116
9.02137e-05
-0.000461217
8.97869e-05
-0.000491132
8.91167e-05
-0.000520749
8.81954e-05
-0.000549947
8.69998e-05
-0.000578597
8.55155e-05
-0.000606562
8.37323e-05
-0.000633706
8.16439e-05
-0.000659893
7.92544e-05
-0.000684987
7.65589e-05
-0.000708864
7.35826e-05
-0.000731408
7.03261e-05
-0.00075252
6.6832e-05
-0.000772122
6.31214e-05
-0.000790163
5.92482e-05
-0.00080663
5.52658e-05
-0.000821504
5.12088e-05
-0.000834648
4.6934e-05
-0.000846075
4.25356e-05
-0.000855809
3.80738e-05
-0.000863884
3.35997e-05
-0.00087035
2.91406e-05
-0.000875266
2.4732e-05
-0.000878693
2.03935e-05
-0.000880694
1.6141e-05
-0.000881415
1.20725e-05
-0.000880991
8.20998e-06
-0.000879422
4.49349e-06
-0.000876787
9.51037e-07
-0.000872655
-2.95307e-06
-0.000867681
-6.41496e-06
-0.000861776
-9.72782e-06
-0.000854973
-1.29052e-05
-0.000847322
-1.59471e-05
-0.000838871
-1.88562e-05
-0.000829669
-2.16286e-05
-0.000819764
-2.42672e-05
-0.000809205
-2.67671e-05
-0.000798038
-2.9131e-05
-0.000786309
-3.13593e-05
-0.000774061
-3.34479e-05
-0.000761337
-3.54088e-05
-0.000748184
-3.72162e-05
-0.000734637
-3.89099e-05
-0.000720743
-4.04496e-05
-0.000706532
-4.18847e-05
-0.000692051
-4.31682e-05
-0.000677331
-4.43349e-05
-0.000662412
-4.53703e-05
-0.00064733
-4.62766e-05
-0.000632116
-4.7074e-05
-0.000616803
-4.77482e-05
-0.00060142
-4.83198e-05
-0.000585999
-4.87747e-05
-0.000570569
-4.91164e-05
-0.000555161
-4.9349e-05
-0.000539791
-4.95111e-05
-0.000524492
-4.95546e-05
-0.000509287
-4.95013e-05
-0.000494191
-4.93888e-05
-0.000479226
-4.91873e-05
-0.000464419
-4.88857e-05
-0.000449777
-4.8537e-05
-0.00043532
-4.81132e-05
-0.000421063
-4.76193e-05
-0.000407022
-4.70605e-05
-0.000393202
-4.64701e-05
-0.00037962
-4.58086e-05
-0.000366283
-4.51094e-05
-0.000353202
-4.43626e-05
-0.000340383
-4.35855e-05
-0.000327829
-4.27812e-05
-0.000315553
-4.19284e-05
-0.000303557
-4.10562e-05
-0.000291843
-4.01669e-05
-0.000280417
-3.9252e-05
-0.00026928
-3.83259e-05
-0.000258434
-3.73804e-05
-0.000247884
-3.64191e-05
-0.000237624
-3.54638e-05
-0.000227661
-3.44882e-05
-0.000217991
-3.3514e-05
-0.000208612
-3.25426e-05
-0.000199527
-3.156e-05
-0.000190727
-3.06003e-05
-0.000182214
-2.96334e-05
-0.000173985
-2.86701e-05
-0.000166034
-2.77258e-05
-0.00015836
-2.67814e-05
-0.000150956
-2.58581e-05
-0.000143817
-2.4944e-05
-0.000136942
-2.40408e-05
-0.000130323
-2.31551e-05
-0.000123955
-2.22872e-05
-0.000117834
-2.14328e-05
-0.000111954
-2.05973e-05
-0.000106309
-1.9781e-05
-0.000100896
-1.89759e-05
-9.5706e-05
-1.8199e-05
-9.07368e-05
-1.74308e-05
-8.59808e-05
-1.66873e-05
-8.14321e-05
-1.59645e-05
-7.70845e-05
-1.52622e-05
-7.29335e-05
-1.45747e-05
-6.8973e-05
-1.39086e-05
-6.51962e-05
-1.3266e-05
-6.15978e-05
-1.26412e-05
-5.81727e-05
-1.20346e-05
-5.49151e-05
-1.14486e-05
-5.18186e-05
-1.08848e-05
-4.88786e-05
-1.03371e-05
-4.60893e-05
-9.80965e-06
-4.34446e-05
-9.30398e-06
-4.09396e-05
-8.8149e-06
-3.85681e-05
-8.34736e-06
-3.63244e-05
-7.89941e-06
-3.42036e-05
-7.46835e-06
-3.21995e-05
-7.05813e-06
-3.03066e-05
-6.66703e-06
-2.85196e-05
-6.29366e-06
-2.68327e-05
-5.93969e-06
-2.52409e-05
-5.60239e-06
-2.37395e-05
-5.28114e-06
-2.23238e-05
-4.97668e-06
-2.09895e-05
-4.68693e-06
-1.97333e-05
-4.41014e-06
-1.85516e-05
-4.14613e-06
-1.74415e-05
-3.89406e-06
-1.63997e-05
-3.65387e-06
-1.54234e-05
-3.42353e-06
-1.45096e-05
-3.20401e-06
-1.36546e-05
-2.9958e-06
-1.28559e-05
-2.79635e-06
-1.21107e-05
-2.6055e-06
-1.14171e-05
-2.42223e-06
-1.07738e-05
-2.24441e-06
-1.01799e-05
-2.0712e-06
-9.63468e-06
-1.90216e-06
-9.13776e-06
-1.73659e-06
-8.68831e-06
-1.5751e-06
-8.28517e-06
-1.41853e-06
-7.92694e-06
-1.26727e-06
-7.61151e-06
-1.12322e-06
-7.33644e-06
-9.87098e-07
-7.09889e-06
-8.59775e-07
-6.89564e-06
-7.42563e-07
-6.72343e-06
-6.35541e-07
-6.57886e-06
-5.3968e-07
-6.4582e-06
-4.55258e-07
-6.35856e-06
-3.81777e-07
-6.27669e-06
-3.19069e-07
-6.20965e-06
-2.67502e-07
-6.15352e-06
-2.27567e-07
-6.10428e-06
-1.99283e-07
-6.05827e-06
-1.81722e-07
-6.01251e-06
-1.72752e-07
-5.9657e-06
-1.68876e-07
-5.91765e-06
-1.6714e-07
-5.8691e-06
-1.65407e-07
-5.82118e-06
-1.62368e-07
-5.77482e-06
-1.57798e-07
-5.7305e-06
-1.52291e-07
-5.68816e-06
-1.46781e-07
-5.64744e-06
-1.42045e-07
-5.60786e-06
-1.38584e-07
-5.56857e-06
-1.37033e-07
-5.52869e-06
-1.38197e-07
-5.48766e-06
-1.41124e-07
-5.44546e-06
-1.45133e-07
-5.4023e-06
-1.50181e-07
-5.35858e-06
-1.55786e-07
-5.31487e-06
-1.62608e-07
-5.27056e-06
-1.74321e-07
-5.2233e-06
-1.96489e-07
-5.16841e-06
-2.36049e-07
-5.09866e-06
-3.01938e-07
-5.00099e-06
-4.09651e-07
-4.85774e-06
-5.71563e-07
-4.64844e-06
-7.9609e-07
-4.34732e-06
-1.09228e-06
-3.93091e-06
-1.45217e-06
-3.38106e-06
-1.85621e-06
-2.69335e-06
-2.26732e-06
-1.87932e-06
-2.64367e-06
-9.71079e-07
-2.93532e-06
-3.12478e-06
-2.56302e-05
0.000108078
-5.16906e-05
0.000109685
-7.81794e-05
0.000111012
-0.000105158
0.000112365
-0.000132673
0.000113727
-0.000160741
0.000115067
-0.000189345
0.000116344
-0.000218464
0.000117541
-0.000248145
0.00011872
-0.000278418
0.000119847
-0.000309271
0.000120847
-0.000340666
0.000121683
-0.000372539
0.00012232
-0.000404788
0.000122673
-0.000437296
0.000122722
-0.000469919
0.00012241
-0.000502492
0.00012169
-0.000534836
0.000120539
-0.00056675
0.000118915
-0.000598025
0.00011679
-0.000628437
0.000114145
-0.00065776
0.000110966
-0.000685766
0.00010726
-0.000712232
0.000103025
-0.000736953
9.83041e-05
-0.000759746
9.31191e-05
-0.000780472
8.75573e-05
-0.000799041
8.16909e-05
-0.000815452
7.56595e-05
-0.000829751
6.9564e-05
-0.000841698
6.31558e-05
-0.000851365
5.66013e-05
-0.00085886
5.00312e-05
-0.000864305
4.35184e-05
-0.000867842
3.71366e-05
-0.000869609
3.09072e-05
-0.000869724
2.48472e-05
-0.000868349
1.90183e-05
-0.000865808
1.36006e-05
-0.000862192
8.45597e-06
-0.000857455
3.47351e-06
-0.000851316
-1.64547e-06
-0.000843997
-6.36849e-06
-0.000836111
-1.08384e-05
-0.000827432
-1.50946e-05
-0.000818011
-1.91482e-05
-0.000807907
-2.3009e-05
-0.000797177
-2.66774e-05
-0.000785873
-3.01604e-05
-0.000774046
-3.34552e-05
-0.000761744
-3.65693e-05
-0.000749013
-3.94985e-05
-0.000735894
-4.22496e-05
-0.000722429
-4.48246e-05
-0.000708657
-4.72199e-05
-0.000694613
-4.94532e-05
-0.000680339
-5.14897e-05
-0.000665863
-5.33857e-05
-0.000651227
-5.50863e-05
-0.000636452
-5.66597e-05
-0.000621577
-5.80425e-05
-0.00060663
-5.92825e-05
-0.000591639
-6.03605e-05
-0.000576636
-6.12801e-05
-0.000561641
-6.20685e-05
-0.000546683
-6.2707e-05
-0.000531779
-6.32231e-05
-0.000516956
-6.35984e-05
-0.000502234
-6.3838e-05
-0.000487636
-6.39473e-05
-0.000473171
-6.3976e-05
-0.000458863
-6.38621e-05
-0.00044473
-6.36344e-05
-0.000430778
-6.33411e-05
-0.000417021
-6.2944e-05
-0.000403478
-6.2429e-05
-0.000390151
-6.18637e-05
-0.000377052
-6.1212e-05
-0.000364191
-6.04803e-05
-0.000351577
-5.96748e-05
-0.000339209
-5.88377e-05
-0.000327099
-5.79186e-05
-0.000315249
-5.69595e-05
-0.000303664
-5.59475e-05
-0.000292345
-5.49043e-05
-0.000281293
-5.38332e-05
-0.000270515
-5.27073e-05
-0.000260008
-5.15625e-05
-0.000249774
-5.04016e-05
-0.000239812
-4.92135e-05
-0.000230122
-4.80155e-05
-0.000220705
-4.67973e-05
-0.000211562
-4.5563e-05
-0.000202686
-4.43395e-05
-0.00019408
-4.30937e-05
-0.000185742
-4.18523e-05
-0.000177667
-4.06172e-05
-0.000169857
-3.93706e-05
-0.000162302
-3.81551e-05
-0.000155002
-3.69329e-05
-0.000147955
-3.57175e-05
-0.000141153
-3.45279e-05
-0.000134594
-3.33403e-05
-0.000128272
-3.21808e-05
-0.000122181
-3.10345e-05
-0.000116319
-2.99033e-05
-0.000110678
-2.87952e-05
-0.000105255
-2.77105e-05
-0.000100045
-2.66432e-05
-9.50418e-05
-2.56003e-05
-9.02412e-05
-2.45816e-05
-8.56396e-05
-2.35775e-05
-8.12299e-05
-2.26088e-05
-7.70094e-05
-2.16513e-05
-7.29717e-05
-2.0725e-05
-6.91113e-05
-1.98249e-05
-6.54226e-05
-1.89509e-05
-6.19016e-05
-1.80957e-05
-5.85428e-05
-1.72674e-05
-5.53403e-05
-1.64685e-05
-5.22896e-05
-1.56919e-05
-4.93865e-05
-1.49378e-05
-4.6626e-05
-1.42091e-05
-4.4003e-05
-1.35079e-05
-4.15135e-05
-1.28265e-05
-3.91528e-05
-1.21704e-05
-3.69153e-05
-1.15415e-05
-3.47969e-05
-1.09333e-05
-3.27923e-05
-1.0352e-05
-3.08965e-05
-9.79526e-06
-2.91051e-05
-9.25973e-06
-2.74129e-05
-8.75036e-06
-2.58147e-05
-8.26516e-06
-2.43059e-05
-7.80253e-06
-2.28809e-05
-7.36461e-06
-2.15353e-05
-6.94798e-06
-2.02648e-05
-6.55169e-06
-1.90651e-05
-6.17635e-06
-1.7933e-05
-5.81906e-06
-1.68658e-05
-5.4773e-06
-1.58614e-05
-5.1506e-06
-1.49175e-05
-4.83795e-06
-1.40319e-05
-4.53947e-06
-1.32024e-05
-4.25304e-06
-1.24259e-05
-3.98047e-06
-1.1699e-05
-3.72272e-06
-1.10187e-05
-3.47666e-06
-1.03824e-05
-3.24174e-06
-9.78854e-06
-3.01612e-06
-9.23645e-06
-2.7965e-06
-8.72627e-06
-2.58138e-06
-8.25835e-06
-2.37008e-06
-7.83306e-06
-2.16189e-06
-7.45023e-06
-1.95793e-06
-7.10913e-06
-1.75964e-06
-6.80863e-06
-1.56777e-06
-6.54692e-06
-1.38494e-06
-6.32167e-06
-1.21234e-06
-6.12997e-06
-1.05147e-06
-5.96842e-06
-9.04113e-07
-5.83374e-06
-7.70228e-07
-5.72233e-06
-6.5109e-07
-5.63098e-06
-5.46609e-07
-5.55735e-06
-4.55399e-07
-5.49941e-06
-3.7701e-07
-5.45419e-06
-3.12726e-07
-5.41798e-06
-2.63776e-07
-5.38661e-06
-2.30648e-07
-5.35513e-06
-2.13202e-07
-5.32041e-06
-2.07477e-07
-5.28131e-06
-2.07971e-07
-5.23859e-06
-2.09868e-07
-5.1944e-06
-2.09598e-07
-5.15089e-06
-2.05872e-07
-5.10962e-06
-1.99068e-07
-5.07097e-06
-1.90946e-07
-5.03468e-06
-1.83064e-07
-5e-06
-1.76728e-07
-4.96654e-06
-1.72047e-07
-4.93307e-06
-1.70494e-07
-4.89868e-06
-1.72593e-07
-4.86261e-06
-1.77197e-07
-4.82512e-06
-1.82621e-07
-4.78694e-06
-1.88361e-07
-4.74968e-06
-1.93047e-07
-4.71509e-06
-1.97198e-07
-4.68357e-06
-2.05835e-07
-4.65413e-06
-2.25936e-07
-4.62285e-06
-2.67329e-07
-4.5844e-06
-3.40386e-07
-4.5264e-06
-4.67646e-07
-4.43171e-06
-6.6625e-07
-4.27933e-06
-9.48475e-07
-4.04157e-06
-1.33005e-06
-3.6891e-06
-1.80464e-06
-3.19807e-06
-2.34724e-06
-2.56111e-06
-2.90429e-06
-1.78935e-06
-3.41542e-06
-9.24885e-07
-3.79978e-06
-4.04967e-06
-2.29584e-05
0.000131036
-4.63828e-05
0.000133109
-7.03882e-05
0.000135018
-9.51434e-05
0.000137121
-0.00012082
0.000139403
-0.000147579
0.000141827
-0.000175557
0.000144322
-0.000204777
0.000146762
-0.000235091
0.000149033
-0.000266588
0.000151345
-0.000299332
0.00015359
-0.000333283
0.000155633
-0.000368339
0.000157376
-0.00040432
0.000158655
-0.000441029
0.00015943
-0.000478228
0.000159609
-0.000515646
0.000159109
-0.000552993
0.000157885
-0.000589949
0.00015587
-0.00062617
0.000153011
-0.000661291
0.000149266
-0.000694928
0.000144604
-0.000726688
0.00013902
-0.000756172
0.000132509
-0.000783007
0.000125139
-0.00080686
0.000116972
-0.000827494
0.000108191
-0.000844837
9.90339e-05
-0.000859068
8.98903e-05
-0.000869821
8.03171e-05
-0.000877294
7.06286e-05
-0.00088178
6.10872e-05
-0.000883599
5.18508e-05
-0.000883063
4.29818e-05
-0.000880431
3.45047e-05
-0.000876001
2.6477e-05
-0.000870258
1.91042e-05
-0.000863492
1.22532e-05
-0.000855665
5.77343e-06
-0.000846369
-8.40019e-07
-0.00083596
-6.93557e-06
-0.00082504
-1.25658e-05
-0.000813538
-1.78701e-05
-0.000801492
-2.2885e-05
-0.000788956
-2.76301e-05
-0.000775988
-3.21166e-05
-0.000762636
-3.63605e-05
-0.00074895
-4.03639e-05
-0.000734969
-4.41409e-05
-0.000720735
-4.76897e-05
-0.00070628
-5.10238e-05
-0.00069164
-5.41387e-05
-0.000676845
-5.70448e-05
-0.000661924
-5.97457e-05
-0.000646907
-6.22369e-05
-0.000631817
-6.45425e-05
-0.00061669
-6.6617e-05
-0.000601542
-6.85342e-05
-0.000586405
-7.02231e-05
-0.000571293
-7.17713e-05
-0.000556238
-7.30983e-05
-0.000541255
-7.42647e-05
-0.000526369
-7.52467e-05
-0.0005116
-7.60492e-05
-0.000496963
-7.6706e-05
-0.000482475
-7.71941e-05
-0.000468151
-7.75476e-05
-0.000454006
-7.77436e-05
-0.000440055
-7.77888e-05
-0.000426312
-7.76899e-05
-0.000412781
-7.75075e-05
-0.000399476
-7.71665e-05
-0.000386409
-7.67016e-05
-0.00037358
-7.61708e-05
-0.000360996
-7.55279e-05
-0.000348669
-7.47558e-05
-0.000336597
-7.39354e-05
-0.000324786
-7.30232e-05
-0.00031324
-7.20264e-05
-0.000301962
-7.09523e-05
-0.000290949
-6.98509e-05
-0.000280206
-6.86619e-05
-0.000269731
-6.74349e-05
-0.000259524
-6.61544e-05
-0.000249582
-6.48456e-05
-0.000239904
-6.35119e-05
-0.00023049
-6.21211e-05
-0.000221337
-6.07151e-05
-0.000212442
-5.92964e-05
-0.000203804
-5.78515e-05
-0.00019542
-5.64001e-05
-0.000187287
-5.49296e-05
-0.000179406
-5.34443e-05
-0.00017177
-5.19755e-05
-0.00016438
-5.04838e-05
-0.000157232
-4.90006e-05
-0.000150321
-4.75278e-05
-0.000143647
-4.60445e-05
-0.000137202
-4.46004e-05
-0.000130984
-4.31516e-05
-0.000124988
-4.17134e-05
-0.000119207
-4.03083e-05
-0.000113639
-3.89081e-05
-0.000108277
-3.75433e-05
-0.000103115
-3.61961e-05
-9.81502e-05
-3.48685e-05
-9.3376e-05
-3.35695e-05
-8.87875e-05
-3.22989e-05
-8.43811e-05
-3.10496e-05
-8.01522e-05
-2.98293e-05
-7.60962e-05
-2.86377e-05
-7.22104e-05
-2.74632e-05
-6.84886e-05
-2.63306e-05
-6.49284e-05
-2.52115e-05
-6.15241e-05
-2.41293e-05
-5.82706e-05
-2.30784e-05
-5.51628e-05
-2.20587e-05
-5.21969e-05
-2.10617e-05
-4.93679e-05
-2.00964e-05
-4.66706e-05
-1.91657e-05
-4.41015e-05
-1.8261e-05
-4.16571e-05
-1.73822e-05
-3.93336e-05
-1.65326e-05
-3.71268e-05
-1.57147e-05
-3.50336e-05
-1.49197e-05
-3.30498e-05
-1.41542e-05
-3.11708e-05
-1.34205e-05
-2.93928e-05
-1.27113e-05
-2.77111e-05
-1.20337e-05
-2.61214e-05
-1.13849e-05
-2.46202e-05
-1.0761e-05
-2.32028e-05
-1.01678e-05
-2.18647e-05
-9.60325e-06
-2.06013e-05
-9.06587e-06
-1.94076e-05
-8.5583e-06
-1.82791e-05
-8.07656e-06
-1.72115e-05
-7.61925e-06
-1.62013e-05
-7.18657e-06
-1.52458e-05
-6.77451e-06
-1.43436e-05
-6.37949e-06
-1.34937e-05
-6.00054e-06
-1.26952e-05
-5.63646e-06
-1.19469e-05
-5.28782e-06
-1.1247e-05
-4.95294e-06
-1.05924e-05
-4.63505e-06
-9.97915e-06
-4.33596e-06
-9.40363e-06
-4.05218e-06
-8.86301e-06
-3.78236e-06
-8.35587e-06
-3.52326e-06
-7.88257e-06
-3.2698e-06
-7.44447e-06
-3.01948e-06
-7.04322e-06
-2.77133e-06
-6.68014e-06
-2.52497e-06
-6.35556e-06
-2.28251e-06
-6.06898e-06
-2.04622e-06
-5.81943e-06
-1.81732e-06
-5.60533e-06
-1.59903e-06
-5.42459e-06
-1.39309e-06
-5.2742e-06
-1.20186e-06
-5.15028e-06
-1.02804e-06
-5.04912e-06
-8.71387e-07
-4.96683e-06
-7.33382e-07
-4.90077e-06
-6.12664e-07
-4.84968e-06
-5.06496e-07
-4.81208e-06
-4.14604e-07
-4.78671e-06
-3.38095e-07
-4.7696e-06
-2.80892e-07
-4.75515e-06
-2.45092e-07
-4.73729e-06
-2.31065e-07
-4.7119e-06
-2.32864e-07
-4.67835e-06
-2.41526e-07
-4.63862e-06
-2.49594e-07
-4.5968e-06
-2.51419e-07
-4.55644e-06
-2.46235e-07
-4.51968e-06
-2.35826e-07
-4.48635e-06
-2.24278e-07
-4.45586e-06
-2.13546e-07
-4.42674e-06
-2.05855e-07
-4.39885e-06
-1.99937e-07
-4.37075e-06
-1.98592e-07
-4.34118e-06
-2.0216e-07
-4.30917e-06
-2.09209e-07
-4.27497e-06
-2.16822e-07
-4.24023e-06
-2.23097e-07
-4.20757e-06
-2.25712e-07
-4.18042e-06
-2.24345e-07
-4.15963e-06
-2.26629e-07
-4.14602e-06
-2.39538e-07
-4.13502e-06
-2.78334e-07
-4.12485e-06
-3.5056e-07
-4.10297e-06
-4.89528e-07
-4.05367e-06
-7.15543e-07
-3.95526e-06
-1.04688e-06
-3.77797e-06
-1.50734e-06
-3.48703e-06
-2.09559e-06
-3.05035e-06
-2.78392e-06
-2.45633e-06
-3.49831e-06
-1.71494e-06
-4.15682e-06
-8.82571e-07
-4.63215e-06
-4.93224e-06
-1.73496e-05
0.000148386
-3.51923e-05
0.000150952
-5.38451e-05
0.00015367
-7.36525e-05
0.000156928
-9.49825e-05
0.000160733
-0.000118227
0.000165072
-0.000143771
0.000169866
-0.000171925
0.000174915
-0.000202646
0.000179755
-0.00023575
0.000184448
-0.000271389
0.000189229
-0.000309406
0.00019365
-0.000349512
0.000197482
-0.00039139
0.000200533
-0.000434713
0.000202753
-0.00047908
0.000203976
-0.000524088
0.000204116
-0.000569309
0.000203107
-0.000614282
0.000200843
-0.000658501
0.00019723
-0.000701411
0.000192176
-0.0007424
0.000185592
-0.000780797
0.000177417
-0.000815872
0.000167584
-0.000846863
0.00015613
-0.000873016
0.000143125
-0.00089375
0.000128926
-0.000909276
0.00011456
-0.000918935
9.95491e-05
-0.00092325
8.46318e-05
-0.000923118
7.04964e-05
-0.000919353
5.73226e-05
-0.000912609
4.51067e-05
-0.000903522
3.3895e-05
-0.000892927
2.39094e-05
-0.000881336
1.48856e-05
-0.00086891
6.67899e-06
-0.000854875
-1.78193e-06
-0.000839875
-9.22689e-06
-0.000824734
-1.59807e-05
-0.000809424
-2.22463e-05
-0.000793894
-2.80951e-05
-0.000778194
-3.35706e-05
-0.000762365
-3.87135e-05
-0.000746446
-4.35497e-05
-0.000730467
-4.80954e-05
-0.000714451
-5.23761e-05
-0.00069842
-5.63955e-05
-0.000682387
-6.01737e-05
-0.000666369
-6.37078e-05
-0.000650378
-6.70147e-05
-0.000634429
-7.00873e-05
-0.000618536
-7.29379e-05
-0.000602712
-7.55698e-05
-0.000586973
-7.79758e-05
-0.000571331
-8.01848e-05
-0.000555808
-8.21395e-05
-0.000540412
-8.393e-05
-0.000525167
-8.54685e-05
-0.000510077
-8.68611e-05
-0.000495166
-8.80095e-05
-0.000480444
-8.89872e-05
-0.000465925
-8.9765e-05
-0.000451625
-9.0349e-05
-0.000437552
-9.07794e-05
-0.000423717
-9.1029e-05
-0.000410127
-9.1138e-05
-0.00039679
-9.10799e-05
-0.000383717
-9.08626e-05
-0.000370912
-9.0494e-05
-0.000358375
-9.00447e-05
-0.000346115
-8.94268e-05
-0.000334136
-8.86808e-05
-0.000322433
-8.78735e-05
-0.00031101
-8.69509e-05
-0.000299873
-8.58933e-05
-0.000289015
-8.47932e-05
-0.000278438
-8.36004e-05
-0.000268141
-8.2323e-05
-0.000258124
-8.09692e-05
-0.00024838
-7.95955e-05
-0.000238908
-7.81332e-05
-0.000229705
-7.66385e-05
-0.000220766
-7.50933e-05
-0.000212085
-7.3526e-05
-0.000203657
-7.19398e-05
-0.000195481
-7.02976e-05
-0.00018755
-6.86461e-05
-0.000179859
-6.69873e-05
-0.000172406
-6.5305e-05
-0.000165185
-6.36208e-05
-0.000158195
-6.19198e-05
-0.000151433
-6.02062e-05
-0.000144893
-5.85148e-05
-0.000138576
-5.6801e-05
-0.000132477
-5.51e-05
-0.000126591
-5.34138e-05
-0.000120916
-5.1719e-05
-0.000115445
-5.00715e-05
-0.000110175
-4.84221e-05
-0.0001051
-4.67881e-05
-0.000100214
-4.51945e-05
-9.55121e-05
-4.36097e-05
-9.09877e-05
-4.20677e-05
-8.66356e-05
-4.05482e-05
-8.24511e-05
-3.9053e-05
-7.84289e-05
-3.75917e-05
-7.45645e-05
-3.61633e-05
-7.08545e-05
-3.47596e-05
-6.72953e-05
-3.33885e-05
-6.38834e-05
-3.20496e-05
-6.06166e-05
-3.073e-05
-5.74899e-05
-2.94573e-05
-5.45011e-05
-2.82003e-05
-5.1645e-05
-2.69854e-05
-4.89168e-05
-2.58066e-05
-4.63115e-05
-2.4664e-05
-4.38253e-05
-2.35478e-05
-4.14536e-05
-2.24681e-05
-3.9192e-05
-2.14274e-05
-3.70375e-05
-2.04154e-05
-3.49879e-05
-1.94318e-05
-3.30404e-05
-1.84801e-05
-3.1192e-05
-1.75631e-05
-2.94404e-05
-1.66714e-05
-2.77819e-05
-1.58127e-05
-2.62121e-05
-1.49902e-05
-2.47276e-05
-1.41958e-05
-2.33242e-05
-1.34371e-05
-2.19984e-05
-1.27107e-05
-2.07473e-05
-1.20121e-05
-1.95671e-05
-1.1348e-05
-1.84538e-05
-1.07165e-05
-1.74031e-05
-1.01166e-05
-1.64097e-05
-9.55174e-06
-1.54687e-05
-9.01748e-06
-1.45762e-05
-8.51183e-06
-1.37285e-05
-8.03419e-06
-1.2924e-05
-7.57902e-06
-1.21623e-05
-7.14121e-06
-1.14439e-05
-6.71889e-06
-1.07697e-05
-6.31066e-06
-1.01397e-05
-5.9179e-06
-9.55253e-06
-5.54008e-06
-9.0048e-06
-5.18278e-06
-8.49148e-06
-4.84928e-06
-8.0075e-06
-4.53616e-06
-7.5494e-06
-4.24046e-06
-7.11605e-06
-3.95661e-06
-6.70902e-06
-3.67683e-06