/*--------------------------------*- C++ -*----------------------------------*\
  =========                 |
  \\      /  F ield         | OpenFOAM: The Open Source CFD Toolbox
   \\    /   O peration     | Website:  https://openfoam.org
    \\  /    A nd           | Version:  12
     \\/     M anipulation  |
\*---------------------------------------------------------------------------*/
FoamFile
{
    format      ascii;
    class       volScalarField;
    location    "6.04";
    object      p_rgh;
}
// * * * * * * * * * * * * * * * * * * * * * * * * * * * * * * * * * * * * * //

dimensions      [1 -1 -2 0 0 0 0];

internalField   nonuniform List<scalar> 
3829
(
-2.8583
-2.85738
-2.8555
-2.85262
-2.8487
-2.84368
-2.83749
-2.83008
-2.82138
-2.81132
-2.79981
-2.78677
-2.77211
-2.75574
-2.73755
-2.71745
-2.69535
-2.67116
-2.6448
-2.6162
-2.58529
-2.55203
-2.51638
-2.47833
-2.43788
-2.39505
-2.34988
-2.30245
-2.25282
-2.2011
-2.14741
-2.09191
-2.03474
-1.97608
-1.91612
-1.85504
-1.79305
-1.73036
-1.6672
-1.6038
-1.54039
-1.47723
-1.41454
-1.35258
-1.29157
-1.23174
-1.17333
-1.11653
-1.06156
-1.00947
-0.959945
-0.913085
-0.869007
-0.827805
-0.789558
-0.754311
-0.722098
-0.69292
-0.666762
-0.643588
-0.623342
-0.605948
-0.591291
-0.579225
-0.569571
-0.562119
-0.556635
-0.55286
-0.550515
-0.5493
-0.548903
-0.549001
-0.549329
-0.549429
-0.549035
-0.547838
-0.545541
-0.541869
-0.536573
-0.529439
-0.5203
-0.509034
-0.495592
-0.479685
-0.461515
-0.441218
-0.418943
-0.394873
-0.369243
-0.342347
-0.314532
-0.286183
-0.25772
-0.229583
-0.202223
-0.176099
-0.151648
-0.129292
-0.109403
-0.0923047
-0.0782624
-0.0674498
-0.0599553
-0.0560838
-0.0555377
-0.0581014
-0.0635216
-0.0714528
-0.0814589
-0.0930283
-0.105593
-0.118552
-0.131274
-0.143152
-0.153605
-0.162105
-0.168202
-0.17153
-0.171834
-0.168917
-0.162799
-0.153817
-0.142304
-0.128697
-0.113548
-0.0974724
-0.0811721
-0.0654078
-0.0508424
-0.0381257
-0.0278177
-0.0203411
-0.0159492
-0.0159019
-0.0191652
-0.0255489
-0.0347635
-0.0463471
-0.0596991
-0.0742191
-0.088985
-0.103322
-0.116492
-0.127809
-0.136688
-0.142678
-0.145477
-0.144946
-0.141061
-0.134054
-0.124248
-0.112103
-0.0981879
-0.0831471
-0.0676644
-0.0524339
-0.0381246
-0.025349
-0.0146413
-0.006432
-0.00103329
0.0013659
0.000706255
-0.00293373
-0.00936811
-0.018299
-0.0293357
-0.0420161
-0.0558164
-0.0711379
-0.0857043
-0.0999564
-0.113392
-0.125585
-0.136185
-0.14492
-0.151608
-0.156149
-0.158527
-0.158802
-0.157109
-0.15364
-0.148608
-0.142005
-0.134753
-0.126863
-0.118611
-0.110269
-0.102086
-0.0942774
-0.0870152
-0.0804282
-0.074602
-0.069581
-0.0653741
-0.0619626
-0.0593089
-0.0573677
-0.0560958
-0.0554637
-2.94434
-2.94366
-2.94226
-2.9401
-2.93713
-2.93328
-2.92846
-2.92259
-2.91555
-2.9072
-2.89742
-2.88606
-2.873
-2.85808
-2.84114
-2.82198
-2.80045
-2.77637
-2.74959
-2.71998
-2.68743
-2.65185
-2.61319
-2.57143
-2.52657
-2.47867
-2.42781
-2.3741
-2.31769
-2.25875
-2.19747
-2.13407
-2.06873
-2.00168
-1.93315
-1.86344
-1.79283
-1.72162
-1.6501
-1.57857
-1.50734
-1.4367
-1.36696
-1.29841
-1.23132
-1.16596
-1.10257
-1.04139
-0.982555
-0.927398
-0.875659
-0.827342
-0.782516
-0.741245
-0.703583
-0.669562
-0.639202
-0.612497
-0.589419
-0.569909
-0.553881
-0.5412
-0.531695
-0.525158
-0.521344
-0.519973
-0.520738
-0.523305
-0.527318
-0.532403
-0.538161
-0.544192
-0.550077
-0.555428
-0.559849
-0.56296
-0.564407
-0.563863
-0.561037
-0.55568
-0.547585
-0.536607
-0.522628
-0.50565
-0.485777
-0.463138
-0.43792
-0.410386
-0.380863
-0.349748
-0.317487
-0.284577
-0.251553
-0.21897
-0.187394
-0.157398
-0.129525
-0.104289
-0.0821549
-0.0635212
-0.0486973
-0.0378941
-0.0312282
-0.028744
-0.0302829
-0.0356177
-0.0443969
-0.0561497
-0.0703058
-0.0862113
-0.103152
-0.120371
-0.137083
-0.152552
-0.16607
-0.177021
-0.184917
-0.189439
-0.190523
-0.186144
-0.178326
-0.167135
-0.152897
-0.13616
-0.117612
-0.098033
-0.0783155
-0.059357
-0.0419971
-0.0270317
-0.015147
-0.00687658
-0.00258363
-0.0026054
-0.0066928
-0.0146041
-0.0259002
-0.0399546
-0.0560072
-0.0733277
-0.0907831
-0.107601
-0.122919
-0.135956
-0.146059
-0.15274
-0.155685
-0.154771
-0.150093
-0.141878
-0.130551
-0.116672
-0.100909
-0.0840032
-0.0667286
-0.0498597
-0.0341309
-0.0202023
-0.00864343
0.000102227
0.00571758
0.00803606
0.0070235
0.00279221
-0.00442205
-0.0142794
-0.026346
-0.0401282
-0.0551056
-0.0708879
-0.0865009
-0.101594
-0.115701
-0.128402
-0.139352
-0.148283
-0.155019
-0.159476
-0.161657
-0.161645
-0.159599
-0.155743
-0.150327
-0.143112
-0.135485
-0.127223
-0.118625
-0.109984
-0.101559
-0.0935671
-0.0861812
-0.0795251
-0.0736776
-0.0686742
-0.0645128
-0.0611637
-0.0585777
-0.0566986
-0.0554742
-0.0548681
-3.07903
-3.07905
-3.07908
-3.07908
-3.07896
-3.07864
-3.07798
-3.07684
-3.075
-3.07226
-3.06837
-3.0631
-3.05606
-3.04688
-3.03516
-3.02048
-3.00248
-2.98076
-2.95499
-2.92486
-2.89016
-2.85072
-2.80647
-2.75743
-2.70371
-2.64545
-2.58287
-2.51624
-2.44584
-2.37197
-2.29499
-2.21528
-2.13327
-2.04933
-1.96385
-1.87724
-1.78993
-1.70234
-1.61489
-1.52802
-1.44214
-1.35768
-1.27502
-1.19458
-1.11676
-1.04192
-0.970456
-0.902785
-0.839348
-0.778142
-0.722124
-0.670946
-0.624625
-0.5832
-0.546702
-0.515146
-0.488528
-0.466799
-0.449882
-0.437645
-0.429891
-0.426373
-0.426801
-0.430841
-0.438125
-0.448247
-0.460763
-0.475201
-0.491054
-0.507798
-0.524896
-0.541805
-0.557974
-0.572868
-0.585969
-0.59678
-0.604842
-0.609753
-0.611167
-0.608813
-0.602521
-0.592238
-0.576476
-0.556778
-0.533099
-0.505549
-0.47439
-0.440021
-0.402923
-0.363663
-0.322881
-0.281276
-0.239601
-0.198628
-0.159136
-0.121902
-0.087669
-0.0571337
-0.0308949
-0.00946761
0.00673148
0.0174207
0.0224502
0.0220196
0.016237
0.00543534
-0.0098381
-0.0288986
-0.050933
-0.0750222
-0.100168
-0.125353
-0.149461
-0.171505
-0.190523
-0.205667
-0.216222
-0.221624
-0.221448
-0.216722
-0.206583
-0.191514
-0.172219
-0.149577
-0.124616
-0.0984498
-0.0723264
-0.0474282
-0.0249094
-0.00580901
0.00898417
0.0187908
0.0231667
0.0224865
0.0164208
0.00537038
-0.00996541
-0.0287031
-0.0498061
-0.0721917
-0.0945634
-0.115853
-0.134986
-0.151022
-0.163207
-0.171003
-0.174095
-0.172391
-0.166123
-0.155634
-0.141512
-0.124489
-0.105412
-0.0851921
-0.0647626
-0.0450349
-0.0268533
-0.0109612
0.00202291
0.0116299
0.017555
0.0196586
0.0179703
0.0126623
0.00405234
-0.00743431
-0.0212766
-0.0368909
-0.0536693
-0.0709965
-0.088154
-0.104592
-0.119801
-0.133339
-0.144854
-0.154088
-0.16088
-0.165168
-0.166988
-0.166461
-0.163786
-0.159246
-0.153222
-0.144905
-0.136693
-0.127784
-0.118592
-0.109445
-0.100614
-0.0923212
-0.0847353
-0.0779733
-0.0721005
-0.0671372
-0.0630631
-0.0598283
-0.0573642
-0.0555962
-0.0544565
-0.0538964
-3.20005
-3.20179
-3.20528
-3.21048
-3.2173
-3.22556
-3.23503
-3.24543
-3.25637
-3.26744
-3.27806
-3.28751
-3.29497
-3.29964
-3.30076
-3.2976
-3.28941
-3.27543
-3.25496
-3.22735
-3.19199
-3.14839
-3.09635
-3.03602
-2.96787
-2.89246
-2.81038
-2.72223
-2.62873
-2.53061
-2.42862
-2.32333
-2.21531
-2.10524
-1.99376
-1.8815
-1.76911
-1.65719
-1.54636
-1.4372
-1.3303
-1.22618
-1.12538
-1.02837
-0.935581
-0.847446
-0.764252
-0.686164
-0.613298
-0.545572
-0.487876
-0.436465
-0.39132
-0.352525
-0.320172
-0.294318
-0.274965
-0.262029
-0.255362
-0.254725
-0.259811
-0.270239
-0.28558
-0.305345
-0.328995
-0.355943
-0.385555
-0.417163
-0.450056
-0.483501
-0.516762
-0.54909
-0.579731
-0.607962
-0.633088
-0.654432
-0.671388
-0.683405
-0.690015
-0.690834
-0.68554
-0.673847
-0.656593
-0.633184
-0.60378
-0.568716
-0.528509
-0.483793
-0.435297
-0.383861
-0.330414
-0.27596
-0.221565
-0.168317
-0.117313
-0.0696332
-0.0262766
0.0118223
0.0438446
0.069115
0.0871131
0.0974681
0.0998131
0.0946607
0.0822637
0.0631764
0.0381971
0.00831252
-0.0253147
-0.0613774
-0.0984755
-0.135132
-0.169894
-0.20135
-0.228207
-0.249337
-0.26383
-0.271032
-0.27055
-0.263072
-0.248312
-0.22688
-0.199786
-0.168282
-0.133839
-0.0980581
-0.0626488
-0.0292238
0.000645456
0.0255796
0.0444377
0.056386
0.0609222
0.0586212
0.0491924
0.0332987
0.0119551
-0.013591
-0.0419086
-0.0715211
-0.100742
-0.128183
-0.152484
-0.172502
-0.187348
-0.196438
-0.199486
-0.196514
-0.187848
-0.174075
-0.156005
-0.134609
-0.110979
-0.0862603
-0.0615948
-0.0380723
-0.0166781
0.00174514
0.0165199
0.027159
0.0333748
0.0350795
0.0323912
0.0255723
0.0150463
0.00136222
-0.0148426
-0.032865
-0.0519866
-0.0714718
-0.0906059
-0.108748
-0.12534
-0.139916
-0.152118
-0.161696
-0.168513
-0.172541
-0.173855
-0.172623
-0.169091
-0.163567
-0.15638
-0.147571
-0.13824
-0.128422
-0.118455
-0.108663
-0.0993229
-0.090658
-0.0828329
-0.0759523
-0.0700651
-0.0651706
-0.0612239
-0.0581495
-0.0558536
-0.0542373
-0.0532126
-0.0527145
-3.27555
-3.28083
-3.2915
-3.3076
-3.32912
-3.35608
-3.38829
-3.42516
-3.46586
-3.50945
-3.55489
-3.601
-3.64651
-3.68998
-3.72963
-3.76321
-3.78763
-3.79917
-3.79337
-3.77048
-3.72972
-3.66831
-3.58892
-3.49416
-3.38642
-3.26821
-3.14223
-3.01074
-2.87539
-2.73743
-2.59713
-2.45434
-2.3094
-2.16296
-2.0158
-1.86879
-1.72281
-1.57874
-1.43741
-1.2996
-1.16607
-1.03753
-0.914653
-0.797999
-0.688202
-0.585778
-0.491207
-0.405051
-0.327882
-0.260379
-0.196247
-0.141607
-0.096272
-0.0601758
-0.0332432
-0.0153424
-0.00627303
-0.00574569
-0.0133885
-0.0287588
-0.0513727
-0.0806663
-0.116008
-0.156703
-0.201987
-0.251039
-0.302988
-0.356912
-0.411841
-0.466774
-0.520725
-0.572682
-0.621635
-0.666623
-0.706723
-0.741069
-0.768865
-0.789416
-0.802131
-0.806547
-0.802324
-0.789163
-0.767765
-0.737819
-0.699612
-0.653684
-0.600769
-0.541773
-0.477735
-0.409843
-0.339406
-0.26783
-0.196606
-0.127207
-0.0611373
0.000138547
0.055253
0.102946
0.142158
0.172049
0.192107
0.202284
0.199962
0.188014
0.166526
0.136233
0.0982342
0.0539184
0.00492081
-0.0469342
-0.099714
-0.151368
-0.199943
-0.243516
-0.280356
-0.308997
-0.328259
-0.337344
-0.335814
-0.324316
-0.302936
-0.272669
-0.23495
-0.191546
-0.144505
-0.0960445
-0.0485249
-0.00411381
0.0350932
0.0672993
0.0910787
0.10545
0.109911
0.104978
0.0907365
0.0682313
0.0388853
0.00443973
-0.0331643
-0.071981
-0.109791
-0.14482
-0.175384
-0.200107
-0.217963
-0.228328
-0.230984
-0.226118
-0.214238
-0.196202
-0.173112
-0.146249
-0.117005
-0.0868091
-0.0570492
-0.0290269
-0.00387644
0.0174497
0.0342152
0.0459269
0.0523281
0.0533864
0.0493933
0.040665
0.0277781
0.0114309
-0.00760052
-0.0284795
-0.0503541
-0.0723926
-0.0938085
-0.113893
-0.132042
-0.147767
-0.160705
-0.17062
-0.177406
-0.181078
-0.181759
-0.179671
-0.175118
-0.168461
-0.16009
-0.150292
-0.139842
-0.129009
-0.118165
-0.107647
-0.0977408
-0.0886704
-0.0805931
-0.0735995
-0.0677187
-0.0629245
-0.0591438
-0.0562713
-0.0541825
-0.0527515
-0.0518661
-0.0514431
-3.11733
-3.12764
-3.14829
-3.1789
-3.21869
-3.26626
-3.31994
-3.37791
-3.4382
-3.49844
-3.55642
-3.61027
-3.65881
-3.70179
-3.74014
-3.77825
-3.8098
-3.83297
-3.84235
-3.83429
-3.8079
-3.76538
-3.70416
-3.62774
-3.54082
-3.44852
-3.34582
-3.22666
-3.08875
-2.9323
-2.76174
-2.58097
-2.39357
-2.2024
-2.01012
-1.81882
-1.6303
-1.44604
-1.26728
-1.09511
-0.930433
-0.774003
-0.626452
-0.488404
-0.360297
-0.242566
-0.135647
-0.0398456
0.0446079
0.117584
0.179977
0.230521
0.269694
0.297435
0.31376
0.318808
0.312864
0.296326
0.269679
0.233498
0.18844
0.135269
0.0748347
0.0080878
-0.0639584
-0.140208
-0.219503
-0.300622
-0.38226
-0.463147
-0.541958
-0.617377
-0.688088
-0.75285
-0.810481
-0.859856
-0.89998
-0.929994
-0.949179
-0.95699
-0.953116
-0.936979
-0.909362
-0.870283
-0.820239
-0.760002
-0.690593
-0.61326
-0.529434
-0.44074
-0.348953
-0.255969
-0.163785
-0.0744004
0.0101748
0.0879967
0.15726
0.216325
0.263778
0.298443
0.319367
0.325814
0.320151
0.300398
0.267645
0.22325
0.168866
0.106463
0.0382956
-0.0331588
-0.105291
-0.175341
-0.240715
-0.298907
-0.347646
-0.385033
-0.409596
-0.420361
-0.416945
-0.399903
-0.369808
-0.328131
-0.276884
-0.218508
-0.155772
-0.0916226
-0.0292933
0.0283794
0.0787
0.119396
0.148708
0.165503
0.169336
0.16064
0.140079
0.109155
0.0698318
0.0244664
-0.024372
-0.0741773
-0.122096
-0.165915
-0.203594
-0.233505
-0.254503
-0.265963
-0.267762
-0.260299
-0.24436
-0.221118
-0.19203
-0.158743
-0.122994
-0.0865323
-0.0510239
-0.017988
0.0112763
0.0357122
0.0545362
0.0672631
0.0736973
0.073932
0.0682474
0.0572406
0.0416188
0.0222324
1.67567e-05
-0.0240436
-0.0489661
-0.0738086
-0.0976999
-0.119866
-0.139661
-0.156576
-0.170248
-0.180461
-0.187148
-0.190369
-0.190307
-0.187245
-0.181552
-0.173654
-0.164012
-0.153015
-0.141387
-0.129477
-0.117701
-0.106417
-0.0959217
-0.0864378
-0.0781137
-0.0710245
-0.0651758
-0.0605139
-0.0569346
-0.0542991
-0.0524501
-0.0512313
-0.0505044
-0.0501669
-2.82409
-2.84939
-2.90036
-2.97689
-3.07832
-3.20331
-3.34985
-3.51476
-3.6941
-3.88249
-4.07408
-4.2616
-4.42996
-4.58801
-4.72673
-4.83477
-4.91484
-4.96604
-4.99365
-4.99653
-4.97332
-4.92448
-4.84979
-4.74522
-4.60727
-4.43542
-4.20082
-3.93351
-3.64983
-3.36011
-3.07236
-2.78884
-2.51087
-2.23814
-1.97539
-1.72175
-1.47808
-1.24506
-1.02331
-0.813325
-0.61563
-0.43061
-0.258662
-0.100138
0.0446584
0.175487
0.292137
0.39443
0.482292
0.555697
0.614229
0.659548
0.690515
0.707075
0.709435
0.697951
0.673064
0.635311
0.585336
0.523892
0.451826
0.370137
0.279922
0.182404
0.0788961
-0.0292009
-0.140387
-0.253105
-0.365702
-0.47651
-0.58387
-0.686108
-0.781545
-0.868625
-0.945864
-1.01183
-1.06532
-1.10526
-1.13076
-1.14117
-1.13616
-1.11567
-1.07985
-1.02908
-0.964171
-0.886183
-0.796507
-0.696818
-0.589019
-0.475262
-0.357896
-0.239407
-0.122396
-0.00945616
0.0968256
0.193954
0.279628
0.35176
0.408598
0.448732
0.471164
0.475422
0.462276
0.431613
0.38457
0.32284
0.248605
0.164476
0.0734326
-0.0212535
-0.116239
-0.207856
-0.292791
-0.367829
-0.430098
-0.477216
-0.507378
-0.519451
-0.513095
-0.488861
-0.447897
-0.392233
-0.324585
-0.248221
-0.166814
-0.0841171
-0.00450169
0.0684942
0.131473
0.181616
0.216811
0.235789
0.238191
0.224531
0.196104
0.154968
0.103771
0.0456076
-0.0162028
-0.0786231
-0.137881
-0.191431
-0.236827
-0.27219
-0.296277
-0.308501
-0.308898
-0.298121
-0.2773
-0.247986
-0.212043
-0.171526
-0.128555
-0.0852234
-0.0435102
-0.00512478
0.0284553
0.0560758
0.0769214
0.0905323
0.0967898
0.0958914
0.0882848
0.0747075
0.0560517
0.0333426
0.00768519
-0.01978
-0.0479343
-0.0757261
-0.102196
-0.126505
-0.14797
-0.166064
-0.180433
-0.190885
-0.197399
-0.200086
-0.199191
-0.195065
-0.188147
-0.178931
-0.167947
-0.155667
-0.142811
-0.129792
-0.117063
-0.105004
-0.0939192
-0.0840312
-0.0754781
-0.0683162
-0.0625272
-0.0580275
-0.0546797
-0.05231
-0.0507262
-0.04974
-0.0491863
-0.0489418
-1.92141
-1.9689
-2.0649
-2.20974
-2.40329
-2.64292
-2.92693
-3.24744
-3.60086
-3.96143
-4.31426
-4.6417
-4.95855
-5.24391
-5.49337
-5.70556
-5.87628
-6.00109
-6.07656
-6.10003
-6.06927
-5.98232
-5.83841
-5.63501
-5.37293
-5.04965
-4.7124
-4.34576
-3.97309
-3.59739
-3.22395
-2.85625
-2.50037
-2.15705
-1.82874
-1.51615
-1.22006
-0.941044
-0.67945
-0.43537
-0.208811
0.000363549
0.19221
0.366724
0.523961
0.663896
0.786508
0.891754
0.979559
1.04988
1.10283
1.13872
1.15742
1.15906
1.14389
1.11233
1.06488
1.0022
0.925082
0.834455
0.731386
0.617115
0.493021
0.360624
0.221556
0.0775796
-0.0694458
-0.217558
-0.364723
-0.508845
-0.647868
-0.77972
-0.90233
-1.01378
-1.11224
-1.19599
-1.26353
-1.31359
-1.34516
-1.35744
-1.34993
-1.32315
-1.27686
-1.21177
-1.12896
-1.02988
-0.916315
-0.790471
-0.654803
-0.512069
-0.365255
-0.217517
-0.0721383
0.0676052
0.198462
0.317311
0.42129
0.507835
0.574829
0.620593
0.64402
0.644605
0.622715
0.579039
0.51507
0.43301
0.335677
0.226425
0.109076
-0.012212
-0.133124
-0.249165
-0.356104
-0.449929
-0.527096
-0.584684
-0.620531
-0.633352
-0.622875
-0.589777
-0.535802
-0.46365
-0.376867
-0.279699
-0.176929
-0.0730235
0.0260341
0.116115
0.192997
0.253272
0.294461
0.315181
0.315206
0.295361
0.257536
0.204486
0.139667
0.0670081
-0.00937135
-0.0854623
-0.157135
-0.221113
-0.274593
-0.315467
-0.342439
-0.355002
-0.35341
-0.338623
-0.312166
-0.276025
-0.232519
-0.184137
-0.133409
-0.0827714
-0.0345987
0.00932992
0.047294
0.0780677
0.100822
0.115143
0.121006
0.118739
0.10896
0.0925736
0.0706612
0.0444328
0.0151671
-0.015835
-0.0473141
-0.0781162
-0.107193
-0.133644
-0.156753
-0.175982
-0.190989
-0.201613
-0.207882
-0.209962
-0.208165
-0.202914
-0.194718
-0.184141
-0.17178
-0.158176
-0.144075
-0.129945
-0.116267
-0.103444
-0.0917865
-0.0815155
-0.0727572
-0.0655483
-0.059845
-0.055533
-0.0524408
-0.0503588
-0.0490583
-0.0483191
-0.0479483
-0.0478018
-0.425472
-0.506124
-0.669295
-0.914947
-1.24186
-1.64577
-2.12194
-2.66721
-3.27234
-3.90044
-4.5392
-5.16522
-5.75104
-6.27922
-6.74112
-7.12692
-7.43206
-7.65374
-7.78915
-7.83583
-7.79141
-7.65424
-7.4253
-7.10563
-6.6972
-6.20492
-5.63283
-5.05274
-4.47539
-3.91372
-3.37512
-2.86774
-2.39495
-1.95747
-1.55387
-1.18253
-0.83958
-0.523119
-0.231322
0.0372872
0.283866
0.509185
0.713843
0.898232
1.06259
1.207
1.33145
1.43591
1.52029
1.58454
1.62862
1.65273
1.6568
1.64101
1.60568
1.55127
1.47839
1.38781
1.28047
1.1575
1.02018
0.870034
0.708698
0.538049
0.360082
0.176934
-0.00912911
-0.195711
-0.380358
-0.560504
-0.733663
-0.897326
-1.04899
-1.18634
-1.3072
-1.40949
-1.49146
-1.5516
-1.5887
-1.60196
-1.59096
-1.55578
-1.49677
-1.41482
-1.31131
-1.18806
-1.04738
-0.892001
-0.725007
-0.54982
-0.370152
-0.189908
-0.013144
0.156118
0.313914
0.456444
0.580248
0.682232
0.759842
0.811141
0.834863
0.830538
0.798477
0.739834
0.656572
0.551502
0.42818
0.29081
0.144155
-0.00664339
-0.156172
-0.299038
-0.429997
-0.544175
-0.637278
-0.705829
-0.747285
-0.760197
-0.744381
-0.700819
-0.631813
-0.540848
-0.432446
-0.311939
-0.185272
-0.0583318
0.06213
0.170742
0.26246
0.333271
0.380352
0.402256
0.39893
0.371664
0.323003
0.256509
0.17655
0.0879842
-0.00416082
-0.0949288
-0.179703
-0.254522
-0.31622
-0.3625
-0.392037
-0.404461
-0.400294
-0.380864
-0.348121
-0.304542
-0.252921
-0.196219
-0.137386
-0.079234
-0.0243866
0.0250942
0.067392
0.101208
0.125711
0.140547
0.145804
0.141963
0.12981
0.110438
0.0851195
0.0552535
0.0222958
-0.0122942
-0.047115
-0.0809203
-0.112575
-0.14112
-0.165813
-0.18611
-0.201683
-0.212406
-0.218369
-0.219786
-0.21704
-0.210628
-0.201128
-0.189175
-0.175432
-0.160498
-0.145166
-0.129941
-0.115338
-0.101776
-0.0895742
-0.078948
-0.0700113
-0.0627807
-0.0571856
-0.0530816
-0.0502628
-0.0484827
-0.0474772
-0.0469933
-0.0468108
-0.0467649
1.97958
1.8611
1.61618
1.23486
0.696836
0.0115837
-0.916315
-1.9913
-3.58225
-4.79339
-5.87516
-6.8149
-7.62497
-8.31339
-8.88853
-9.35447
-9.71454
-9.97086
-10.1241
-10.1723
-10.1139
-9.93981
-9.6419
-9.20596
-8.6193
-7.86893
-6.9862
-5.64297
-4.71121
-3.88601
-3.18511
-2.56741
-2.02303
-1.53387
-1.09291
-0.69291
-0.328175
0.00534536
0.310676
0.590188
0.845574
1.07793
1.28809
1.4764
1.643
1.78782
1.91073
2.01151
2.08993
2.14578
2.17888
2.18919
2.17672
2.14161
2.08418
2.00491
1.9045
1.78382
1.64397
1.48627
1.31225
1.1237
0.922594
0.711147
0.491738
0.266923
0.0394043
-0.187976
-0.41227
-0.630455
-0.839561
-1.03661
-1.21863
-1.38291
-1.52687
-1.6481
-1.74454
-1.81445
-1.85646
-1.86968
-1.85373
-1.80863
-1.73499
-1.63399
-1.50734
-1.35732
-1.18675
-0.998981
-0.797769
-0.587286
-0.372016
-0.156669
0.0538888
0.254827
0.441403
0.609098
0.753807
0.871885
0.960356
1.01697
1.04031
1.02993
0.986298
0.910927
0.806313
0.675944
0.5242
0.356218
0.177789
-0.00485552
-0.185192
-0.356763
-0.513288
-0.648964
-0.758723
-0.838487
-0.88533
-0.89766
-0.875354
-0.819842
-0.734009
-0.622226
-0.490089
-0.344141
-0.191571
-0.0398976
0.103398
0.231573
0.338724
0.420225
0.472928
0.495355
0.487735
0.451896
0.39112
0.30988
0.213543
0.107985
-0.000800526
-0.106974
-0.205236
-0.291061
-0.360924
-0.41236
-0.44407
-0.455862
-0.44858
-0.423954
-0.384412
-0.332933
-0.27282
-0.207516
-0.140395
-0.0746406
-0.0131275
0.0418411
0.0883439
0.125034
0.151094
0.16625
0.170707
0.165121
0.15045
0.127977
0.099173
0.0656264
0.0289642
-0.00919868
-0.0473114
-0.0840625
-0.118221
-0.14878
-0.174973
-0.196255
-0.212322
-0.223084
-0.228679
-0.229391
-0.225671
-0.218084
-0.207281
-0.193962
-0.178855
-0.162615
-0.14608
-0.129795
-0.114304
-0.10004
-0.0873281
-0.076378
-0.0672902
-0.0600606
-0.0545922
-0.0507109
-0.0481765
-0.0467066
-0.0460011
-0.0457755
-0.0457829
-0.0458383
5.34651
5.21002
4.92757
4.4784
3.82342
2.90335
1.6499
0.00426176
-2.42271
-4.2662
-5.90203
-7.31946
-8.53633
-9.56674
-10.4237
-11.1155
-11.6485
-12.0262
-12.2495
-12.3175
-12.2258
-11.9677
-11.5331
-10.9077
-10.0709
-8.99557
-7.68118
-5.76081
-4.48251
-3.45331
-2.63277
-1.96182
-1.39123
-0.898363
-0.461141
-0.0686093
0.288756
0.615948
0.916858
1.19383
1.44806
1.68018
1.89036
2.07845
2.24415
2.387
2.50648
2.60206
2.6732
2.71946
2.74046
2.73599
2.70595
2.65044
2.56974
2.46435
2.33504
2.18282
2.00894
1.81493
1.60255
1.3739
1.13128
0.877298
0.614729
0.34657
0.0759579
-0.193775
-0.459165
-0.71667
-0.962847
-1.19423
-1.40738
-1.59913
-1.76651
-1.90673
-2.01744
-2.09666
-2.14286
-2.15505
-2.1329
-2.07648
-1.98661
-1.86473
-1.71298
-1.53408
-1.33145
-1.10908
-0.871456
-0.623517
-0.370574
-0.118186
0.12792
0.362063
0.578695
0.772536
0.93882
1.07333
1.17267
1.23426
1.25655
1.23914
1.18269
1.08911
0.961463
0.803977
0.621911
0.421402
0.209336
-0.00689988
-0.21963
-0.421241
-0.604384
-0.762297
-0.889113
-0.980126
-1.03201
-1.04301
-1.01328
-0.944534
-0.840389
-0.706165
-0.548613
-0.375601
-0.195678
-0.0178958
0.149179
0.297555
0.420422
0.512535
0.570451
0.59271
0.579921
0.534492
0.460543
0.363536
0.249901
0.126585
0.000592825
-0.121359
-0.23325
-0.330028
-0.407838
-0.464091
-0.497539
-0.508228
-0.49737
-0.467104
-0.420381
-0.360699
-0.291894
-0.217863
-0.142426
-0.0691242
-0.00106347
0.0592368
0.109755
0.149114
0.176528
0.191815
0.195311
0.18785
0.170567
0.14494
0.112637
0.0754299
0.0351126
-0.00655791
-0.047856
-0.0874585
-0.124015
-0.156484
-0.184077
-0.206257
-0.222743
-0.233497
-0.238672
-0.238654
-0.233951
-0.225198
-0.213111
-0.198458
-0.182024
-0.164519
-0.146827
-0.12953
-0.113195
-0.0982727
-0.0850887
-0.0738468
-0.0646338
-0.0574251
-0.0520973
-0.0484477
-0.0462027
-0.045045
-0.0446393
-0.0446702
-0.0448657
-0.0450215
9.46016
9.40137
9.28455
9.11053
8.89938
8.65521
8.50549
8.19604
-2.1131
-1.76859
-1.53263
-1.18234
-0.818314
-0.446736
-0.0905184
0.305153
0.634865
0.95458
1.25831
1.54464
1.81246
2.06111
2.28987
2.49792
2.68434
2.84814
2.98832
3.10388
3.19388
3.25745
3.29384
3.30246
3.2829
3.23493
3.15857
3.05407
2.92198
2.76311
2.57861
2.36989
2.13869
1.88705
1.61735
1.33226
1.03478
0.728094
0.415648
0.101071
-0.211812
-0.519017
-0.816478
-1.10024
-1.36635
-1.61086
-1.83016
-2.02089
-2.17987
-2.30446
-2.39244
-2.4421
-2.45224
-2.42299
-2.35409
-2.24667
-2.10253
-1.9242
-1.71491
-1.47867
-1.22017
-0.944619
-0.657777
-0.365806
-0.0751405
0.207593
0.475854
0.723257
0.943755
1.1319
1.2829
1.39291
1.45907
1.47967
1.45441
1.38415
1.27122
1.1193
0.933379
0.719658
0.485316
0.238383
-0.0126033
-0.258696
-0.491132
-0.701469
-0.881969
-1.02593
-1.12805
-1.18459
-1.19371
-1.15563
-1.07262
-0.949015
-0.791136
-0.606977
-0.405752
-0.19751
0.00722876
0.198626
0.367472
0.506049
0.608515
0.671149
0.692559
0.673831
0.61798
0.530052
0.416544
0.285016
0.143511
5.34154e-05
-0.137753
-0.263182
-0.370679
-0.456098
-0.516762
-0.551518
-0.560675
-0.545856
-0.509631
-0.455486
-0.387462
-0.309904
-0.227174
-0.143522
-0.0628524
0.0115508
0.0769583
0.131259
0.173061
0.201628
0.216878
0.219283
0.209861
0.189923
0.161144
0.125383
0.0845892
0.0407163
-0.00435837
-0.048689
-0.0910251
-0.129851
-0.164108
-0.192997
-0.215985
-0.23282
-0.243501
-0.248241
-0.247484
-0.241808
-0.231912
-0.21858
-0.202638
-0.18493
-0.166214
-0.147422
-0.129168
-0.112042
-0.0965064
-0.0828896
-0.0713877
-0.0620733
-0.0549016
-0.0497235
-0.0463095
-0.0443539
-0.043505
-0.0433941
-0.0436762
-0.0440553
-0.0443089
13.4595
13.4273
13.3651
13.2766
13.1697
13.0501
12.9564
12.7899
-0.898893
-0.658546
-0.466629
-0.208271
0.0818472
0.383373
0.689272
1.00265
1.30541
1.59999
1.88475
2.15781
2.41712
2.66067
2.88658
3.09305
3.27837
3.44087
3.57896
3.69116
3.77608
3.83252
3.85942
3.85596
3.82154
3.75579
3.65866
3.53039
3.37153
3.18301
2.96607
2.72232
2.45372
2.16255
1.85156
1.52373
1.18248
0.831433
0.474493
0.11579
-0.240373
-0.589462
-0.926887
-1.24818
-1.54887
-1.82452
-2.07108
-2.28476
-2.46205
-2.59997
-2.69611
-2.74862
-2.75646
-2.71875
-2.63638
-2.51049
-2.34314
-2.13728
-1.89666
-1.6259
-1.33037
-1.01607
-0.689579
-0.357915
-0.0284092
0.291403
0.594112
0.872487
1.11971
1.32964
1.49693
1.61729
1.68757
1.70589
1.67216
1.58736
1.4543
1.2773
1.06215
0.816003
0.547109
0.264679
-0.0215813
-0.301449
-0.564983
-0.802645
-1.00571
-1.16666
-1.27957
-1.34035
-1.34701
-1.29995
-1.20193
-1.0581
-0.875784
-0.664274
-0.434214
-0.197123
0.0349293
0.250791
0.440052
0.594094
0.706499
0.773317
0.79325
0.767937
0.701037
0.598575
0.468138
0.318433
0.158614
-0.00227352
-0.155764
-0.294437
-0.412277
-0.504879
-0.569519
-0.605167
-0.612424
-0.593354
-0.550975
-0.489304
-0.412932
-0.326701
-0.235434
-0.143764
-0.0560127
0.0244692
0.0947115
0.152535
0.196548
0.226076
0.241144
0.242366
0.230936
0.208345
0.176464
0.13733
0.0930653
0.0457785
-0.00251143
-0.0498049
-0.0946841
-0.135634
-0.171553
-0.201627
-0.225339
-0.242457
-0.253024
-0.257311
-0.255819
-0.249192
-0.238192
-0.223665
-0.206493
-0.187582
-0.167703
-0.147883
-0.128733
-0.11087
-0.0947687
-0.0807583
-0.0690263
-0.0596313
-0.0525094
-0.0474861
-0.044307
-0.0426361
-0.0420886
-0.0422636
-0.0427886
-0.0433446
-0.0436924
17.1307
17.1138
17.0822
17.0368
16.985
16.9254
16.8938
16.8176
0.165649
0.312649
0.439347
0.623498
0.853004
1.10423
1.36667
1.64175
1.91963
2.19679
2.46965
2.73504
2.98994
3.2315
3.45702
3.66394
3.84986
4.01252
4.14979
4.25972
4.34055
4.39071
4.40888
4.39401
4.34528
4.26226
4.14482
3.99319
3.80796
3.59014
3.34111
3.06267
2.75699
2.42664
2.07468
1.70448
1.31984
0.924822
0.5238
0.12144
-0.277542
-0.668014
-1.04486
-1.40312
-1.7378
-2.04397
-2.31715
-2.55314
-2.74806
-2.89866
-3.00227
-3.05689
-3.0613
-3.01501
-2.91867
-2.77377
-2.58272
-2.34888
-2.07654
-1.77092
-1.43813
-1.0849
-0.718646
-0.347262
0.0210356
0.377804
0.714762
1.02385
1.29747
1.52882
1.71198
1.84224
1.9162
1.93196
1.88912
1.78929
1.63569
1.43324
1.18855
0.909746
0.606153
0.288145
-0.0333695
-0.346891
-0.641324
-0.906036
-1.13133
-1.30888
-1.43218
-1.49674
-1.50048
-1.44397
-1.3305
-1.16602
-0.958921
-0.719786
-0.460703
-0.194715
0.0645898
0.304703
0.51404
0.683099
0.804927
0.87538
0.893389
0.860885
0.782512
0.665224
0.517715
0.349838
0.17186
-0.00617756
-0.174966
-0.326431
-0.454128
-0.553429
-0.621599
-0.657765
-0.662817
-0.639311
-0.590692
-0.521523
-0.436916
-0.34221
-0.242665
-0.143261
-0.0487943
0.0374637
0.112237
0.173308
0.219304
0.249617
0.264384
0.26438
0.250915
0.225717
0.190819
0.148435
0.100849
0.0503147
-0.00102222
-0.0510983
-0.0983615
-0.141286
-0.178736
-0.20989
-0.234241
-0.251586
-0.262009
-0.265835
-0.263624
-0.256079
-0.244024
-0.22836
-0.210024
-0.189981
-0.16901
-0.14823
-0.128245
-0.109701
-0.0930822
-0.0787159
-0.0667814
-0.0573237
-0.0502613
-0.0453939
-0.0424454
-0.041051
-0.0407938
-0.0412431
-0.0420002
-0.042725
-0.0431625
20.4589
20.45
20.4335
20.4098
20.3827
20.3532
20.3355
20.3031
0.939482
1.05655
1.15968
1.30525
1.49724
1.71676
1.95404
2.20783
2.47064
2.73791
3.00503
3.2679
3.52269
3.76582
3.99387
4.20367
4.39225
4.5568
4.69474
4.8037
4.88156
4.92645
4.9368
4.91133
4.8491
4.74955
4.61253
4.43825
4.22735
3.98096
3.70059
3.38821
3.04625
2.67755
2.28549
1.8738
1.44668
1.00864
0.564504
0.119432
-0.32137
-0.752226
-1.1675
-1.56173
-1.92942
-2.26517
-2.56406
-2.82149
-3.03324
-3.19577
-3.30619
-3.36235
-3.36292
-3.30754
-3.19693
-3.03282
-2.81796
-2.55616
-2.25221
-1.91195
-1.54218
-1.15041
-0.744867
-0.334298
0.0722066
0.465303
0.835859
1.175
1.47437
1.72651
1.92495
2.06458
2.14175
2.15443
2.10232
1.98731
1.81309
1.58523
1.31115
0.999926
0.661977
0.30884
-0.0474349
-0.394036
-0.718762
-1.00991
-1.25683
-1.45043
-1.5836
-1.65152
-1.65197
-1.58574
-1.45664
-1.27143
-1.03957
-0.77294
-0.485083
-0.190541
0.0955805
0.359423
0.588257
0.771732
0.902384
0.975928
0.99154
0.951509
0.861459
0.7293
0.564831
0.379043
0.183295
-0.0114044
-0.194936
-0.358617
-0.495608
-0.601094
-0.672358
-0.708718
-0.711341
-0.683301
-0.628457
-0.551921
-0.459296
-0.356411
-0.248929
-0.142131
-0.041374
0.0503349
0.129315
0.193359
0.241118
0.272057
0.28643
0.285167
0.269694
0.241964
0.204168
0.158686
0.107951
0.0543544
0.000155205
-0.0525145
-0.101995
-0.146743
-0.185595
-0.217726
-0.242641
-0.260164
-0.270421
-0.273787
-0.27088
-0.262458
-0.249404
-0.23267
-0.213242
-0.19214
-0.170152
-0.148481
-0.127725
-0.108555
-0.091464
-0.0767777
-0.0646659
-0.0551605
-0.0481639
-0.0434505
-0.0407256
-0.0395964
-0.0396162
-0.040326
-0.0413029
-0.0421871
-0.0427093
23.4292
23.4239
23.4143
23.4004
23.385
23.3682
23.3585
23.34
1.53074
1.6289
1.72228
1.85205
2.02498
2.22924
2.45488
2.69952
2.95661
3.22129
3.48855
3.75375
4.01245
4.26044
4.49379
4.70877
4.90193
5.07002
5.21005
5.31928
5.39527
5.43589
5.43936
5.40419
5.32932
5.21413
5.0584
4.8624
4.6268
4.35284
4.04219
3.69701
3.31994
2.91413
2.48324
2.03137
1.56313
1.08345
0.597604
0.111205
-0.369995
-0.839836
-1.29216
-1.72102
-2.12045
-2.48457
-2.80805
-3.08591
-3.31358
-3.48725
-3.60385
-3.66104
-3.65744
-3.59273
-3.46778
-3.28456
-3.04616
-2.7568
-2.42177
-2.04754
-1.64158
-1.21214
-0.768263
-0.319513
0.12416
0.552538
0.955663
1.32387
1.64807
1.92019
2.13319
2.28161
2.36155
2.37088
2.30939
2.17925
1.98464
1.73174
1.4288
1.08582
0.71429
0.326891
-0.0632342
-0.441958
-0.796036
-1.11272
-1.38046
-1.58939
-1.73188
-1.80274
-1.79965
-1.72361
-1.57896
-1.37322
-1.11696
-0.823334
-0.5073
-0.184901
0.127294
0.414095
0.661653
0.858824
0.997664
1.07378
1.08656
1.03887
0.937139
0.790281
0.609184
0.40596
0.193029
-0.017681
-0.215276
-0.390507
-0.536182
-0.647332
-0.72128
-0.757558
-0.757784
-0.725017
-0.664051
-0.58036
-0.480021
-0.369318
-0.254315
-0.140503
-0.0338994
0.0629162
0.145771
0.212515
0.261835
0.293262
0.30717
0.304621
0.287215
0.257056
0.216503
0.168091
0.114397
0.0579346
0.00106744
-0.0540054
-0.105534
-0.151956
-0.192086
-0.225097
-0.250507
-0.268168
-0.278243
-0.281158
-0.277585
-0.268334
-0.254341
-0.236606
-0.21616
-0.194073
-0.171149
-0.148654
-0.127189
-0.107447