/*--------------------------------*- C++ -*----------------------------------*\
  =========                 |
  \\      /  F ield         | OpenFOAM: The Open Source CFD Toolbox
   \\    /   O peration     | Website:  https://openfoam.org
    \\  /    A nd           | Version:  12
     \\/     M anipulation  |
\*---------------------------------------------------------------------------*/
FoamFile
{
    format      ascii;
    class       volScalarField;
    location    "2.3";
    object      p_rgh;
}
// * * * * * * * * * * * * * * * * * * * * * * * * * * * * * * * * * * * * * //

dimensions      [1 -1 -2 0 0 0 0];

internalField   nonuniform List<scalar> 
3829
(
-1.25832
-1.25778
-1.25669
-1.25501
-1.25274
-1.24986
-1.24636
-1.24223
-1.23744
-1.23199
-1.22586
-1.21906
-1.21156
-1.20337
-1.19448
-1.18488
-1.17457
-1.16356
-1.15184
-1.13941
-1.12628
-1.11245
-1.09793
-1.08272
-1.06684
-1.05028
-1.03307
-1.01521
-0.99671
-0.977594
-0.957871
-0.937559
-0.916673
-0.895233
-0.873257
-0.850766
-0.827821
-0.80442
-0.780591
-0.756364
-0.731775
-0.70686
-0.68166
-0.656218
-0.63058
-0.604797
-0.578922
-0.553013
-0.52713
-0.501337
-0.4757
-0.450291
-0.425184
-0.400451
-0.376172
-0.352423
-0.329288
-0.306845
-0.285173
-0.26435
-0.244451
-0.225552
-0.207724
-0.191038
-0.175558
-0.161341
-0.148381
-0.136748
-0.126553
-0.117649
-0.110096
-0.103905
-0.0990733
-0.0955808
-0.0933932
-0.0924534
-0.0927061
-0.0940849
-0.0965133
-0.0999085
-0.104188
-0.109269
-0.114992
-0.12127
-0.127994
-0.135049
-0.142316
-0.149678
-0.157022
-0.164238
-0.171218
-0.177863
-0.18408
-0.189783
-0.194897
-0.199355
-0.203101
-0.206091
-0.208288
-0.209673
-0.210198
-0.209891
-0.208756
-0.206808
-0.204071
-0.200579
-0.196372
-0.191499
-0.186013
-0.179973
-0.173442
-0.166486
-0.159175
-0.151577
-0.143765
-0.135809
-0.127777
-0.119739
-0.111761
-0.103906
-0.0962456
-0.0888161
-0.081671
-0.074859
-0.0684239
-0.0624043
-0.0568312
-0.0517322
-0.0471294
-0.0430392
-0.0394742
-0.0364413
-0.0339426
-0.0319764
-0.030537
-0.0296149
-0.0291781
-0.0292231
-0.0297294
-0.0306738
-0.0320304
-0.033771
-0.0358663
-0.0382853
-0.0409953
-0.0439641
-0.0471583
-0.050544
-0.0540882
-0.057758
-0.0615209
-0.0653458
-0.0692027
-0.0730624
-0.0768978
-0.0806829
-0.0843937
-0.0880083
-0.091503
-0.094864
-0.0980772
-0.101128
-0.104003
-0.106694
-0.109192
-0.111493
-0.113592
-0.115488
-0.117181
-0.118672
-0.119964
-0.121062
-0.121972
-0.122701
-0.123258
-0.123653
-0.123897
-0.124002
-0.123979
-0.123842
-0.123605
-0.123282
-0.122886
-0.12243
-0.121927
-0.121389
-0.120827
-0.12025
-0.119669
-0.119092
-0.118527
-0.117983
-0.117469
-0.116994
-0.116566
-0.116193
-0.115883
-0.115642
-0.115477
-0.115392
-1.3063
-1.30567
-1.30438
-1.30243
-1.2998
-1.29645
-1.2924
-1.28761
-1.28208
-1.27581
-1.26877
-1.26098
-1.25242
-1.2431
-1.23302
-1.22217
-1.21057
-1.19822
-1.18513
-1.1713
-1.15675
-1.14149
-1.12553
-1.10887
-1.09154
-1.07355
-1.0549
-1.03562
-1.01571
-0.995186
-0.974066
-0.952363
-0.930091
-0.907267
-0.883908
-0.860032
-0.835639
-0.81078
-0.78548
-0.759764
-0.733664
-0.707216
-0.680458
-0.653435
-0.626193
-0.598786
-0.571273
-0.543716
-0.516183
-0.488745
-0.461479
-0.434466
-0.40779
-0.381539
-0.355801
-0.330667
-0.306232
-0.282587
-0.259825
-0.23803
-0.217288
-0.197683
-0.17929
-0.162164
-0.146366
-0.133126
-0.12024
-0.108873
-0.0990583
-0.0908003
-0.0840982
-0.0789405
-0.0753017
-0.0731386
-0.0723658
-0.0729628
-0.0748496
-0.07794
-0.0821395
-0.0873434
-0.0934408
-0.100316
-0.107837
-0.115866
-0.124278
-0.132944
-0.14173
-0.150506
-0.159148
-0.167536
-0.175558
-0.183108
-0.190091
-0.196421
-0.202024
-0.206837
-0.210808
-0.213897
-0.216078
-0.217329
-0.217664
-0.217075
-0.215579
-0.213206
-0.209991
-0.205979
-0.201222
-0.195777
-0.189708
-0.183083
-0.175972
-0.168449
-0.160589
-0.152467
-0.144161
-0.135742
-0.127283
-0.118855
-0.110526
-0.102357
-0.0944494
-0.0867837
-0.0794454
-0.0724798
-0.0659278
-0.0598257
-0.0542027
-0.0490837
-0.0444884
-0.0404307
-0.0369204
-0.0339619
-0.0315543
-0.0296927
-0.0283673
-0.0275641
-0.0272708
-0.0274622
-0.0281174
-0.0292119
-0.0307183
-0.0326076
-0.0348489
-0.0374101
-0.0402577
-0.0433582
-0.0466778
-0.0501818
-0.0538368
-0.0576095
-0.0614672
-0.0653785
-0.0693132
-0.0732423
-0.0771387
-0.0809769
-0.084733
-0.0883852
-0.0919076
-0.095293
-0.0985238
-0.101586
-0.104467
-0.107158
-0.109653
-0.111945
-0.114033
-0.115914
-0.11759
-0.119062
-0.120333
-0.121409
-0.122295
-0.122999
-0.123529
-0.1239
-0.124117
-0.124195
-0.124146
-0.123984
-0.123723
-0.123377
-0.12296
-0.122485
-0.121965
-0.121412
-0.120836
-0.120248
-0.119657
-0.11907
-0.118496
-0.117944
-0.117422
-0.116939
-0.116505
-0.116127
-0.115812
-0.115568
-0.1154
-0.115314
-1.39365
-1.39282
-1.39115
-1.38859
-1.38514
-1.38079
-1.37551
-1.36931
-1.36218
-1.35412
-1.34513
-1.33524
-1.32444
-1.31277
-1.30023
-1.28684
-1.27263
-1.25763
-1.24185
-1.22533
-1.20808
-1.19013
-1.17151
-1.15224
-1.13233
-1.1118
-1.09067
-1.06896
-1.04667
-1.02382
-1.00041
-0.976441
-0.951929
-0.926873
-0.901276
-0.875145
-0.84848
-0.821299
-0.793619
-0.765461
-0.736852
-0.707825
-0.678417
-0.648675
-0.618648
-0.588399
-0.557995
-0.52751
-0.497027
-0.466635
-0.436431
-0.406517
-0.377002
-0.347997
-0.31962
-0.291984
-0.265212
-0.239424
-0.214729
-0.191242
-0.169063
-0.148305
-0.129325
-0.111733
-0.0958325
-0.0817073
-0.0693458
-0.0588004
-0.0501052
-0.0432758
-0.0383066
-0.0351819
-0.0338733
-0.0341016
-0.0360104
-0.0394771
-0.0443902
-0.0506298
-0.0580615
-0.0665414
-0.0759211
-0.0860442
-0.0967504
-0.107872
-0.11925
-0.130725
-0.142138
-0.153339
-0.164186
-0.174545
-0.184295
-0.193325
-0.201537
-0.208847
-0.215188
-0.220501
-0.22475
-0.227905
-0.229957
-0.230907
-0.230787
-0.229605
-0.227398
-0.224215
-0.220109
-0.215146
-0.209395
-0.20293
-0.195831
-0.18818
-0.18006
-0.171558
-0.162757
-0.153743
-0.144598
-0.135401
-0.126229
-0.117155
-0.108252
-0.0995866
-0.091216
-0.0831834
-0.0755426
-0.068337
-0.0616057
-0.0553812
-0.0496894
-0.0445515
-0.0399829
-0.0359929
-0.0325871
-0.0297655
-0.0275226
-0.0258492
-0.0247312
-0.0241496
-0.0240904
-0.0245267
-0.0254328
-0.0267808
-0.0285409
-0.0306811
-0.0331684
-0.0359688
-0.0390471
-0.0423688
-0.0458983
-0.0496003
-0.0534404
-0.0573847
-0.0613999
-0.0654546
-0.0695185
-0.0735624
-0.0775598
-0.0814852
-0.0853157
-0.0890314
-0.0925954
-0.0960217
-0.0992809
-0.102361
-0.10525
-0.107942
-0.110428
-0.112706
-0.114774
-0.11663
-0.118277
-0.119716
-0.120952
-0.12199
-0.122837
-0.123499
-0.123987
-0.124312
-0.124484
-0.124517
-0.124423
-0.124219
-0.123917
-0.123533
-0.12308
-0.122573
-0.122025
-0.121447
-0.12085
-0.120243
-0.119635
-0.119033
-0.118444
-0.117878
-0.117342
-0.116847
-0.116402
-0.116015
-0.115693
-0.115444
-0.115272
-0.115184
-1.51536
-1.51417
-1.51176
-1.50809
-1.50317
-1.49698
-1.48954
-1.48087
-1.47088
-1.45966
-1.44726
-1.43372
-1.4191
-1.40345
-1.38683
-1.36929
-1.35089
-1.33171
-1.3118
-1.29122
-1.27004
-1.24829
-1.22603
-1.20327
-1.18005
-1.15639
-1.13228
-1.10774
-1.08276
-1.05732
-1.03141
-1.00502
-0.978102
-0.950638
-0.922582
-0.893962
-0.864742
-0.834907
-0.804451
-0.773375
-0.741696
-0.709436
-0.676634
-0.643338
-0.60961
-0.575525
-0.54117
-0.506641
-0.472049
-0.437515
-0.403167
-0.369147
-0.335602
-0.302684
-0.270552
-0.239374
-0.20933
-0.180598
-0.153217
-0.12746
-0.103328
-0.0810121
-0.0606463
-0.0423295
-0.0261563
-0.0121998
-0.000514185
0.00886762
0.0159374
0.0207038
0.0232042
0.0235031
0.0216972
0.017714
0.0118372
0.00419682
-0.00505892
-0.0157643
-0.0277383
-0.0407863
-0.0547087
-0.0693001
-0.0843488
-0.099645
-0.11499
-0.130187
-0.145048
-0.159394
-0.173064
-0.185911
-0.197802
-0.208624
-0.218281
-0.226696
-0.233811
-0.239588
-0.244006
-0.247061
-0.248769
-0.249158
-0.248273
-0.246163
-0.24289
-0.238528
-0.233156
-0.226864
-0.219744
-0.211892
-0.203409
-0.194393
-0.184945
-0.175163
-0.165144
-0.154981
-0.144766
-0.134583
-0.124512
-0.114631
-0.105014
-0.0957436
-0.0868311
-0.0783501
-0.0703475
-0.0628628
-0.0559298
-0.0495764
-0.0438232
-0.0386859
-0.034174
-0.0302912
-0.0270375
-0.0244074
-0.0223904
-0.020972
-0.020134
-0.0198426
-0.0200881
-0.0208409
-0.0220705
-0.0237444
-0.0258288
-0.028289
-0.0310893
-0.0341933
-0.037564
-0.0411647
-0.0449588
-0.0489097
-0.052982
-0.0571412
-0.0613534
-0.0655869
-0.0698111
-0.0739973
-0.078119
-0.0821515
-0.0860719
-0.0898579
-0.0934887
-0.0969591
-0.10025
-0.10335
-0.106248
-0.108937
-0.111412
-0.11367
-0.115711
-0.117534
-0.119143
-0.12054
-0.121731
-0.122721
-0.123517
-0.124127
-0.124562
-0.124829
-0.124943
-0.124918
-0.124769
-0.12451
-0.124157
-0.123725
-0.123228
-0.122681
-0.122097
-0.121488
-0.120865
-0.120235
-0.119607
-0.118985
-0.118378
-0.117794
-0.117241
-0.11673
-0.116272
-0.115874
-0.115543
-0.115287
-0.11511
-0.115019
-1.67676
-1.6749
-1.67115
-1.66548
-1.65785
-1.64829
-1.63685
-1.62355
-1.60848
-1.59174
-1.57344
-1.5537
-1.53265
-1.51046
-1.48779
-1.46364
-1.43878
-1.41334
-1.38745
-1.36121
-1.33472
-1.30805
-1.28127
-1.25442
-1.22751
-1.20054
-1.1735
-1.14636
-1.11905
-1.09151
-1.06366
-1.0354
-1.00665
-0.977319
-0.947346
-0.916604
-0.885042
-0.852613
-0.819289
-0.785059
-0.749927
-0.713917
-0.677073
-0.639459
-0.601154
-0.562263
-0.522904
-0.483216
-0.443349
-0.403473
-0.363766
-0.324417
-0.285623
-0.247593
-0.210524
-0.174608
-0.140031
-0.108903
-0.0778164
-0.0488299
-0.0220889
0.00224845
0.0240391
0.0431587
0.0595081
0.0730054
0.0836011
0.0912761
0.0960337
0.0979078
0.0969703
0.0933285
0.0871881
0.0785741
0.0676921
0.0547529
0.0399846
0.0236245
0.0059307
-0.0128298
-0.0323912
-0.0524821
-0.0728326
-0.0931557
-0.113244
-0.132842
-0.151725
-0.169688
-0.186552
-0.202158
-0.216368
-0.229071
-0.240178
-0.249629
-0.257389
-0.263439
-0.267786
-0.270457
-0.271496
-0.271015
-0.26904
-0.265658
-0.260969
-0.255079
-0.2481
-0.24015
-0.231349
-0.221817
-0.211675
-0.201041
-0.190033
-0.178763
-0.16734
-0.155865
-0.144437
-0.133146
-0.122074
-0.1113
-0.100931
-0.0909657
-0.0814819
-0.0725311
-0.0641569
-0.0563932
-0.0492681
-0.0428036
-0.0370136
-0.0319078
-0.027489
-0.0237545
-0.0206978
-0.0183065
-0.0165643
-0.0154526
-0.0149533
-0.0149954
-0.0155988
-0.0167206
-0.0183238
-0.0203717
-0.022827
-0.0256513
-0.0288065
-0.0322538
-0.0359537
-0.0398682
-0.0439593
-0.0481888
-0.0525207
-0.0569192
-0.0613503
-0.0657818
-0.0701833
-0.0745259
-0.078784
-0.0829333
-0.0869521
-0.0908141
-0.0945126
-0.098032
-0.101357
-0.104477
-0.107381
-0.110065
-0.112525
-0.114758
-0.116766
-0.118551
-0.120116
-0.121465
-0.122605
-0.12354
-0.124279
-0.124829
-0.125201
-0.125404
-0.125453
-0.125364
-0.125151
-0.124832
-0.124421
-0.123934
-0.123387
-0.122795
-0.122172
-0.121529
-0.120877
-0.120223
-0.119573
-0.118931
-0.118304
-0.117699
-0.117127
-0.116598
-0.116124
-0.115714
-0.115374
-0.11511
-0.114927
-0.114833
-1.88094
-1.87792
-1.8718
-1.86257
-1.85026
-1.83493
-1.81668
-1.79564
-1.77196
-1.74583
-1.71751
-1.68736
-1.65571
-1.62291
-1.58932
-1.55524
-1.52098
-1.48671
-1.45272
-1.4192
-1.38631
-1.35415
-1.32277
-1.2922
-1.2624
-1.23327
-1.20471
-1.17655
-1.14865
-1.12084
-1.09287
-1.06449
-1.03543
-1.00569
-0.974963
-0.9431
-0.909979
-0.875507
-0.839621
-0.802296
-0.763537
-0.723386
-0.681912
-0.639218
-0.595429
-0.550703
-0.505218
-0.459176
-0.412796
-0.366318
-0.32
-0.274105
-0.228907
-0.184691
-0.141761
-0.100477
-0.0610243
-0.0237554
0.0112203
0.0436159
0.0731766
0.0996809
0.122937
0.142778
0.159085
0.171772
0.180792
0.186134
0.187825
0.185949
0.180668
0.172257
0.160702
0.146253
0.129168
0.109746
0.0882997
0.0651553
0.0406588
0.0151616
-0.0109905
-0.03745
-0.0638688
-0.0898964
-0.115292
-0.139752
-0.163015
-0.18485
-0.205065
-0.223491
-0.239998
-0.254488
-0.26689
-0.277166
-0.285307
-0.291328
-0.295277
-0.297225
-0.297312
-0.295574
-0.292142
-0.287139
-0.2807
-0.272968
-0.264087
-0.254207
-0.243476
-0.232039
-0.220039
-0.207612
-0.194891
-0.182004
-0.169066
-0.15619
-0.143479
-0.131025
-0.118916
-0.107242
-0.0960622
-0.0854151
-0.0753641
-0.0659566
-0.0572296
-0.0492108
-0.0419222
-0.0353788
-0.0295875
-0.0245505
-0.0202639
-0.0167174
-0.0138971
-0.0117837
-0.0103528
-0.00957498
-0.00940912
-0.00986524
-0.0108725
-0.0123993
-0.0144082
-0.0168595
-0.0197123
-0.0229257
-0.0264587
-0.0302702
-0.0343187
-0.0385645
-0.0429682
-0.0474904
-0.0520941
-0.0567432
-0.0614025
-0.0660398
-0.0706246
-0.0751286
-0.0795263
-0.0837949
-0.0879136
-0.0918522
-0.0956181
-0.0991863
-0.102544
-0.105682
-0.108591
-0.111266
-0.113706
-0.115911
-0.117882
-0.119624
-0.121142
-0.12244
-0.123524
-0.124401
-0.125079
-0.125566
-0.125871
-0.126006
-0.125986
-0.125828
-0.125549
-0.125164
-0.124692
-0.124148
-0.123548
-0.122908
-0.122244
-0.121566
-0.120885
-0.120208
-0.119536
-0.118874
-0.118226
-0.117599
-0.117005
-0.116456
-0.115966
-0.115544
-0.115194
-0.114923
-0.114734
-0.114636
-2.14746
-2.14215
-2.13143
-2.11529
-2.09379
-2.06712
-2.03561
-1.99987
-1.9612
-1.91862
-1.87322
-1.82591
-1.77753
-1.72881
-1.68037
-1.63266
-1.58601
-1.54071
-1.49703
-1.45521
-1.41551
-1.37807
-1.34295
-1.3101
-1.27939
-1.25058
-1.22334
-1.19727
-1.17201
-1.14705
-1.12186
-1.09602
-1.06917
-1.04076
-1.01066
-0.978634
-0.944515
-0.908204
-0.869651
-0.82886
-0.78588
-0.740802
-0.693755
-0.644909
-0.594467
-0.542656
-0.489741
-0.436007
-0.381758
-0.327321
-0.27304
-0.219278
-0.1664
-0.114784
-0.0649438
-0.0170142
0.0285532
0.0714026
0.111206
0.147653
0.180454
0.209347
0.234113
0.254573
0.270589
0.282073
0.288986
0.291326
0.289131
0.282448
0.27228
0.257947
0.239893
0.218468
0.194041
0.167016
0.137809
0.106849
0.0745832
0.0414675
0.00794061
-0.0255715
-0.0586365
-0.0908535
-0.121919
-0.151502
-0.179304
-0.205074
-0.228613
-0.249759
-0.268392
-0.284436
-0.297847
-0.308629
-0.316809
-0.322443
-0.325597
-0.326324
-0.325188
-0.321896
-0.316685
-0.309749
-0.301269
-0.291431
-0.280413
-0.268395
-0.255553
-0.242057
-0.228069
-0.213745
-0.199228
-0.184659
-0.170162
-0.155855
-0.141845
-0.128224
-0.115077
-0.102539
-0.0905625
-0.0792578
-0.0686703
-0.0588399
-0.0497974
-0.0415621
-0.0341493
-0.0275667
-0.0218132
-0.0168833
-0.0127654
-0.00944209
-0.00689173
-0.00508841
-0.00400197
-0.003598
-0.00382677
-0.00468005
-0.0061021
-0.00804956
-0.0104793
-0.0133474
-0.0166097
-0.0202221
-0.0241414
-0.0283241
-0.0327269
-0.0373087
-0.0420286
-0.0468464
-0.0517241
-0.0566246
-0.0615127
-0.0663556
-0.0711227
-0.075786
-0.080321
-0.0847052
-0.0889169
-0.0929393
-0.0967661
-0.10038
-0.103768
-0.106921
-0.109831
-0.112495
-0.114912
-0.117084
-0.119016
-0.120713
-0.122181
-0.123425
-0.124454
-0.125272
-0.125888
-0.12631
-0.126548
-0.126613
-0.126522
-0.126293
-0.125945
-0.125494
-0.12496
-0.124357
-0.123704
-0.123016
-0.122309
-0.121597
-0.120889
-0.120189
-0.119498
-0.118816
-0.118148
-0.117498
-0.116881
-0.116311
-0.115805
-0.11537
-0.115012
-0.114732
-0.114537
-0.114434
-2.49837
-2.48993
-2.47298
-2.44756
-2.41403
-2.37292
-2.3245
-2.26792
-2.20372
-2.13508
-2.06345
-1.98989
-1.91548
-1.84127
-1.76833
-1.69769
-1.63038
-1.56725
-1.50897
-1.45594
-1.40838
-1.36629
-1.32949
-1.29758
-1.26995
-1.2458
-1.2242
-1.20333
-1.1855
-1.16826
-1.15022
-1.13055
-1.10868
-1.0841
-1.05646
-1.02549
-0.991048
-0.953092
-0.911662
-0.866866
-0.818866
-0.767866
-0.714103
-0.657858
-0.599434
-0.539172
-0.47743
-0.414596
-0.35109
-0.287337
-0.223787
-0.160905
-0.0991643
-0.0391147
0.0188767
0.0743334
0.126777
0.175767
0.220891
0.261777
0.298075
0.329473
0.355719
0.376612
0.392016
0.401863
0.406142
0.404928
0.398392
0.386856
0.369827
0.348305
0.322607
0.293127
0.260311
0.224673
0.18675
0.14709
0.106257
0.0648141
0.0232992
-0.0177612
-0.0578467
-0.0965449
-0.133464
-0.168245
-0.200568
-0.230173
-0.25686
-0.280484
-0.300955
-0.318223
-0.332289
-0.343206
-0.351057
-0.355963
-0.358093
-0.357685
-0.354537
-0.349226
-0.341898
-0.332751
-0.321996
-0.309848
-0.296522
-0.282226
-0.267161
-0.251517
-0.235477
-0.21921
-0.202873
-0.186614
-0.170563
-0.154844
-0.139563
-0.124812
-0.110702
-0.0972696
-0.0845672
-0.0726577
-0.0615833
-0.0513791
-0.0420676
-0.0336616
-0.0261682
-0.0195871
-0.0139094
-0.00912155
-0.00520429
-0.00213247
0.000122345
0.00159335
0.00231566
0.00231758
0.00169488
0.000428834
-0.0014168
-0.00379086
-0.00664533
-0.00993223
-0.0136042
-0.0176145
-0.0219176
-0.0264683
-0.0312213
-0.0361343
-0.0411655
-0.0462735
-0.0514196
-0.0565663
-0.0616774
-0.06672
-0.0716635
-0.0764801
-0.0811463
-0.085642
-0.0899384
-0.0940388
-0.0979238
-0.10158
-0.104995
-0.10816
-0.111069
-0.113718
-0.116109
-0.118247
-0.120138
-0.121788
-0.123205
-0.124396
-0.125369
-0.126129
-0.126685
-0.127042
-0.127212
-0.127207
-0.127045
-0.126746
-0.126329
-0.125813
-0.125217
-0.124557
-0.12385
-0.123114
-0.122367
-0.121622
-0.120887
-0.120167
-0.119459
-0.11876
-0.118071
-0.117398
-0.116757
-0.116166
-0.115643
-0.115198
-0.114831
-0.114545
-0.114342
-0.114234
-2.94772
-2.93324
-2.90387
-2.85918
-2.79871
-2.72224
-2.63054
-2.52635
-2.41582
-2.29431
-2.17026
-2.04779
-1.92968
-1.81785
-1.71355
-1.61754
-1.53027
-1.452
-1.38289
-1.32312
-1.27285
-1.23224
-1.2015
-1.18079
-1.16998
-1.16847
-1.17471
-1.18298
-1.19059
-1.19304
-1.18992
-1.18105
-1.16662
-1.14687
-1.12173
-1.09116
-1.05531
-1.0144
-0.968662
-0.918395
-0.863901
-0.805507
-0.743576
-0.678489
-0.610657
-0.540526
-0.468564
-0.395272
-0.321175
-0.24682
-0.172776
-0.0996592
-0.0280272
0.0415644
0.10851
0.172248
0.23221
0.287863
0.338707
0.384297
0.424222
0.458128
0.485729
0.506804
0.521204
0.528869
0.529826
0.524179
0.51215
0.494176
0.470239
0.44092
0.406762
0.368336
0.326245
0.281155
0.233734
0.184663
0.134641
0.0843474
0.0344158
-0.0145427
-0.061741
-0.107053
-0.149855
-0.189762
-0.226446
-0.259655
-0.289205
-0.314977
-0.336914
-0.355015
-0.369339
-0.379987
-0.387101
-0.39086
-0.391481
-0.389213
-0.384173
-0.376699
-0.367061
-0.355519
-0.342326
-0.327739
-0.311999
-0.295347
-0.278007
-0.260187
-0.242086
-0.223886
-0.20575
-0.187835
-0.170275
-0.153195
-0.136704
-0.120886
-0.105859
-0.0916119
-0.0782376
-0.0657803
-0.0542765
-0.0437519
-0.0342219
-0.0256919
-0.0181606
-0.0116193
-0.00605116
-0.001435
0.00225638
0.00505529
0.00699754
0.00812401
0.00848035
0.00812455
0.00705477
0.00536291
0.00309279
0.000295
-0.0029788
-0.00667745
-0.0107506
-0.0151493
-0.019826
-0.0247338
-0.0298261
-0.0350592
-0.0403905
-0.045778
-0.0511821
-0.0565648
-0.0618892
-0.0671221
-0.0722329
-0.077194
-0.0819825
-0.086579
-0.0909592
-0.0951286
-0.0990668
-0.102761
-0.106201
-0.109375
-0.112279
-0.114911
-0.117274
-0.119376
-0.121225
-0.122828
-0.124195
-0.125333
-0.126252
-0.126956
-0.127453
-0.127749
-0.127853
-0.127779
-0.127547
-0.127178
-0.126694
-0.126116
-0.12546
-0.124743
-0.123984
-0.123202
-0.122415
-0.121639
-0.120881
-0.120143
-0.11942
-0.118706
-0.117998
-0.117302
-0.116636
-0.116023
-0.115484
-0.115029
-0.114657
-0.114363
-0.114153
-0.114038
-3.54076
-3.52068
-3.47995
-3.41761
-3.33253
-3.22349
-3.09067
-2.91099
-2.76244
-2.56124
-2.38594
-2.22135
-2.06736
-1.92476
-1.79386
-1.67489
-1.56817
-1.47399
-1.3927
-1.32456
-1.26963
-1.22775
-1.19867
-1.18193
-1.17638
-1.18098
-1.2114
-1.18987
-1.22593
-1.23944
-1.2491
-1.25161
-1.24583
-1.23129
-1.20814
-1.17671
-1.13778
-1.09215
-1.04039
-0.982996
-0.920428
-0.853134
-0.781579
-0.706244
-0.627641
-0.546321
-0.462871
-0.377901
-0.292057
-0.206008
-0.120478
-0.0361402
0.0463377
0.12623
0.202824
0.275436
0.343397
0.406085
0.462917
0.513369
0.556974
0.593318
0.622081
0.643025
0.656011
0.660995
0.658031
0.647271
0.629299
0.604096
0.572195
0.534191
0.490764
0.442619
0.390513
0.335271
0.277735
0.218718
0.159076
0.0996006
0.0410484
-0.0158516
-0.0703954
-0.122216
-0.170742
-0.215559
-0.256334
-0.292821
-0.32487
-0.352397
-0.375397
-0.393929
-0.408105
-0.418093
-0.424098
-0.426364
-0.425152
-0.42085
-0.413598
-0.403754
-0.391644
-0.377576
-0.36185
-0.344752
-0.326559
-0.307533
-0.287919
-0.267945
-0.247819
-0.227733
-0.207859
-0.188353
-0.169355
-0.15099
-0.133373
-0.116583
-0.100672
-0.0856964
-0.071718
-0.0587779
-0.0469033
-0.036113
-0.0264141
-0.0178041
-0.0102732
-0.00380512
0.00162492
0.00604639
0.00949368
0.0120058
0.0136256
0.0144003
0.0143806
0.0136235
0.0121561
0.010052
0.00736651
0.00415564
0.000474642
-0.00362202
-0.0080816
-0.0128532
-0.0178878
-0.0231368
-0.0285525
-0.0340902
-0.0397065
-0.045359
-0.0510075
-0.0566133
-0.0621389
-0.0675506
-0.0728178
-0.0779131
-0.0828143
-0.0874998
-0.0919599
-0.0961906
-0.100177
-0.103906
-0.107366
-0.110548
-0.113445
-0.116058
-0.118391
-0.120456
-0.122261
-0.123818
-0.125136
-0.126224
-0.127091
-0.127742
-0.128184
-0.128422
-0.128463
-0.128322
-0.128021
-0.127585
-0.127037
-0.126398
-0.125685
-0.124915
-0.124106
-0.123279
-0.122454
-0.121649
-0.12087
-0.120118
-0.119383
-0.118656
-0.11793
-0.117211
-0.116519
-0.115884
-0.11533
-0.114868
-0.11449
-0.114191
-0.113973
-0.11385
-4.29669
-4.27763
-4.23752
-4.17246
-4.07581
-3.93891
-3.74684
-3.46533
-3.08517
-2.67697
-2.36335
-2.09385
-1.86089
-1.65935
-1.48513
-1.33501
-1.20654
-1.09797
-1.00821
-0.936916
-0.884277
-0.851094
-0.839201
-0.851527
-0.891964
-0.964827
-1.11038
-1.23313
-1.33461
-1.37738
-1.39556
-1.39538
-1.38147
-1.35722
-1.32453
-1.28471
-1.23809
-1.18473
-1.12482
-1.05864
-0.986562
-0.90904
-0.826607
-0.73983
-0.649317
-0.555727
-0.459752
-0.362123
-0.263609
-0.165035
-0.0671956
0.0291396
0.123106
0.213862
0.300591
0.382492
0.458781
0.528747
0.591715
0.647081
0.694308
0.73294
0.762628
0.783122
0.794297
0.796147
0.788795
0.772512
0.747622
0.714575
0.673997
0.626605
0.573222
0.514721
0.45203
0.386142
0.318055
0.248757
0.179225
0.110418
0.0431865
-0.0215906
-0.0833624
-0.141523
-0.195526
-0.244947
-0.289458
-0.32884
-0.362984
-0.391857
-0.415512
-0.434075
-0.447726
-0.456702
-0.461281
-0.461785
-0.458603
-0.451971
-0.442294
-0.429931
-0.415243
-0.398581
-0.38028
-0.36066
-0.340022
-0.318652
-0.296813
-0.274744
-0.252666
-0.230775
-0.209246
-0.188237
-0.167886
-0.148321
-0.129687
-0.112006
-0.095293
-0.0796563
-0.0651435
-0.0517839
-0.0395967
-0.0285921
-0.0187696
-0.0101185
-0.00262168
0.00374572
0.00901641
0.0132269
0.0164187
0.0186373
0.0199317
0.0203549
0.019962
0.0188171
0.0169578
0.0144543
0.0113683
0.00776025
0.0036894
-0.00078685
-0.00561359
-0.0107386
-0.0161115
-0.0216827
-0.0274029
-0.0332269
-0.0391107
-0.0450115
-0.0508889
-0.0567033
-0.0624166
-0.0679944
-0.0734061
-0.0786251
-0.0836296
-0.0883925
-0.0929247
-0.097211
-0.10124
-0.105
-0.108479
-0.111666
-0.114554
-0.117146
-0.119448
-0.121475
-0.123239
-0.124751
-0.126022
-0.127061
-0.127879
-0.128481
-0.128872
-0.129055
-0.129035
-0.128831
-0.128464
-0.127963
-0.127354
-0.126659
-0.125893
-0.125072
-0.124215
-0.123345
-0.122485
-0.121653
-0.120856
-0.120092
-0.119348
-0.11861
-0.117868
-0.117126
-0.116408
-0.11575
-0.115183
-0.114715
-0.114334
-0.114029
-0.113803
-0.113671
-5.05614
-5.04176
-5.0127
-4.97
-4.91301
-4.85992
-4.78315
-4.74124
-1.43874
-1.43673
-1.47903
-1.48808
-1.4948
-1.48918
-1.47057
-1.43966
-1.39803
-1.34666
-1.2864
-1.21801
-1.14225
-1.05971
-0.971007
-0.876766
-0.777657
-0.674392
-0.567735
-0.458488
-0.347497
-0.235641
-0.124016
-0.0132465
0.0955555
0.201427
0.303415
0.400572
0.491989
0.576775
0.654109
0.72323
0.783455
0.834185
0.874917
0.905274
0.924999
0.933977
0.932239
0.919983
0.897606
0.865331
0.823933
0.774151
0.716845
0.653018
0.583713
0.510043
0.433186
0.354303
0.274539
0.195043
0.116897
0.0410873
-0.0312971
-0.10009
-0.164332
-0.223483
-0.277134
-0.324982
-0.366847
-0.402671
-0.432483
-0.456403
-0.474632
-0.487424
-0.49509
-0.497979
-0.496466
-0.491076
-0.482041
-0.469836
-0.454876
-0.437568
-0.418299
-0.397437
-0.375329
-0.352301
-0.328655
-0.304672
-0.2806
-0.256666
-0.233072
-0.209992
-0.187582
-0.165972
-0.145284
-0.125805
-0.107254
-0.0898285
-0.0736078
-0.0586286
-0.0449112
-0.0324649
-0.0212925
-0.0113866
-0.0027277
0.00470831
0.0109539
0.0160498
0.0200396
0.022971
0.0248955
0.0258678
0.0259462
0.0251904
0.0236724
0.0214347
0.0185485
0.01508
0.0110944
0.00665448
0.0018203
-0.00335158
-0.00880792
-0.0144976
-0.0203698
-0.0263741
-0.0324645
-0.0385969
-0.0447282
-0.050818
-0.0568259
-0.0627128
-0.0684436
-0.0739878
-0.0793195
-0.0844194
-0.0892456
-0.0938445
-0.0981801
-0.102247
-0.106035
-0.10953
-0.112721
-0.115599
-0.118168
-0.120439
-0.122429
-0.124151
-0.12562
-0.126846
-0.12784
-0.128612
-0.129169
-0.129512
-0.129645
-0.129569
-0.129303
-0.128874
-0.128312
-0.127646
-0.126898
-0.126083
-0.125214
-0.124312
-0.123401
-0.122508
-0.121651
-0.120839
-0.120066
-0.119316
-0.118569
-0.117812
-0.117048
-0.116303
-0.115623
-0.115043
-0.114571
-0.114189
-0.113878
-0.113644
-0.113502
-5.85542
-5.85049
-5.84127
-5.82863
-5.81288
-5.80165
-5.77537
-5.77724
-1.75814
-1.7256
-1.73163
-1.7108
-1.6885
-1.65953
-1.62372
-1.58016
-1.52778
-1.46645
-1.39635
-1.31783
-1.23136
-1.1375
-1.03688
-0.930181
-0.818153
-0.701598
-0.581382
-0.458418
-0.33367
-0.208161
-0.0829426
0.040966
0.16246
0.280433
0.393805
0.5015
0.602492
0.695781
0.780445
0.855631
0.920585
0.974647
1.01726
1.04803
1.06669
1.07313
1.06742
1.04978
1.02089
0.98094
0.93081
0.871437
0.803867
0.729279
0.648909
0.564047
0.476073
0.386319
0.296095
0.206677
0.119352
0.035454
-0.0445607
-0.119986
-0.189936
-0.253839
-0.311303
-0.362066
-0.405996
-0.443097
-0.473469
-0.497304
-0.51488
-0.526532
-0.532649
-0.533662
-0.530056
-0.522241
-0.510706
-0.495923
-0.478351
-0.458434
-0.436593
-0.413226
-0.388705
-0.363374
-0.337552
-0.31153
-0.285565
-0.25989
-0.234709
-0.210192
-0.186493
-0.163726
-0.141943
-0.121856
-0.102445
-0.0843813
-0.0676498
-0.0522695
-0.0382499
-0.0255931
-0.0142936
-0.00433742
0.00430198
0.011656
0.0177648
0.0226767
0.0264416
0.0291133
0.0307485
0.0314067
0.0311525
0.0300596
0.0281757
0.0255761
0.0223265
0.0184966
0.0141553
0.00936922
0.0042007
-0.00129263
-0.00705689
-0.0130407
-0.0191919
-0.0254592
-0.0317956
-0.038157
-0.0445009
-0.0507865
-0.0569726
-0.0630191
-0.0688899
-0.0745545
-0.0799878
-0.0851644
-0.0900635
-0.0947137
-0.0990918
-0.103192
-0.107005
-0.110515
-0.113708
-0.116575
-0.119121
-0.121361
-0.123313
-0.124997
-0.126425
-0.127608
-0.12856
-0.129289
-0.129804
-0.130105
-0.130191
-0.130063
-0.12974
-0.129251
-0.128631
-0.127912
-0.127115
-0.126255
-0.125343
-0.124398
-0.123449
-0.122523
-0.121645
-0.12082
-0.120041
-0.119287
-0.118533
-0.117763
-0.116976
-0.116205
-0.115502
-0.114911
-0.114437
-0.114055
-0.11374
-0.113497
-0.113343
-6.5867
-6.58403
-6.57885
-6.5714
-6.56192
-6.55485
-6.53867
-6.53875
-1.91458
-1.89198
-1.89539
-1.87723
-1.85302
-1.81921
-1.77599
-1.72353
-1.66172
-1.59054
-1.51018
-1.42092
-1.32319
-1.21755
-1.10462
-0.985138
-0.859911
-0.729825
-0.59584
-0.45898
-0.320319
-0.181001
-0.0421804
0.0949469
0.229161
0.359234
0.483952
0.602119
0.712595
0.814267
0.906114
0.987199
1.05669
1.11387
1.15815
1.1891
1.20644
1.21008
1.20016
1.1771
1.14116
1.09319
1.03408
0.964898
0.88687
0.801371
0.709837
0.613756
0.514697
0.414166
0.313614
0.214444
0.11806
0.026823
-0.0605901
-0.142335
-0.217586
-0.28581
-0.346659
-0.399916
-0.44551
-0.483514
-0.514105
-0.537553
-0.554212
-0.5645
-0.568884
-0.567867
-0.562027
-0.551775
-0.537716
-0.520363
-0.500209
-0.477739
-0.453403
-0.427622
-0.400792
-0.373269
-0.345389
-0.317452
-0.289718
-0.262426
-0.235779
-0.209945
-0.185071
-0.161279
-0.13871
-0.117625
-0.0976367
-0.079035
-0.0618636
-0.0461413
-0.0318698
-0.0190444
-0.00765235
0.00232688
0.0109255
0.0181821
0.0241448
0.0288682
0.0324092
0.0348264
0.036181
0.036537
0.0359633
0.034541
0.0323218
0.0293818
0.0257907
0.0216219
0.0169483
0.01184
0.0063616
0.000571255
-0.0054771
-0.0117321
-0.0181404
-0.0246493
-0.0312115
-0.0377827
-0.0443212
-0.0507862
-0.0571356
-0.063328
-0.0693262
-0.0750999
-0.0806252
-0.0858684
-0.0908321
-0.0955275
-0.0999423
-0.104072
-0.107907
-0.111431
-0.114625
-0.117481
-0.120004
-0.122212
-0.124129
-0.125775
-0.127164
-0.128308
-0.12922
-0.129911
-0.130388
-0.130651
-0.130694
-0.130518
-0.13014
-0.129595
-0.128921
-0.128153
-0.127312
-0.126411
-0.125458
-0.124474
-0.123488
-0.122534
-0.121635
-0.1208
-0.120016
-0.11926
-0.118502
-0.117719
-0.116911
-0.116113
-0.115388
-0.114788
-0.114313
-0.113932
-0.113613
-0.113361
-0.113196
-7.2446
-7.24313
-7.24031
-7.23634
-7.2316
-7.22831
-7.22049
-7.22192
-2.10239
-2.07804
-2.07189
-2.04863
-2.01741
-1.97675
-1.92623
-1.86574
-1.79515
-1.71455
-1.62413
-1.5242
-1.41522
-1.29776
-1.17249
-1.04021
-0.90178
-0.758181
-0.61047
-0.459774
-0.307282
-0.154253
-0.00197616
0.148222
0.294994
0.436983
0.572849
0.701279
0.821017
0.930842
1.02964
1.11639
1.19019
1.25026
1.29598
1.32689
1.3427
1.34335
1.32896
1.30011
1.25717
1.20107
1.13286
1.0538
0.965283
0.868889
0.766255
0.659079
0.549113
0.438044
0.327459
0.21882
0.113121
0.0161938
-0.0787888
-0.166468
-0.246567
-0.318666
-0.382471
-0.437821
-0.48471
-0.523284
-0.553799
-0.576608
-0.592145
-0.600908
-0.603434
-0.600285
-0.592137
-0.579476
-0.562924
-0.543048
-0.520386
-0.495453
-0.468726
-0.440649
-0.411632
-0.382048
-0.352242
-0.322521
-0.293149
-0.264367
-0.236379
-0.209344
-0.183406
-0.15868
-0.135377
-0.113488
-0.092937
-0.0738633
-0.0563125
-0.0403005
-0.0258211
-0.0128623
-0.00140623
0.00857437
0.0171163
0.0242656
0.0300769
0.034612
0.0379338
0.0401053
0.0411915
0.0412599
0.0403818
0.0386507
0.0361182
0.0328602
0.0289506
0.0244663
0.0194841
0.014078
0.00831429
0.00225122
-0.00405753
-0.0105612
-0.0172051
-0.0239351
-0.0307031
-0.0374655
-0.0441813
-0.05081
-0.0573084
-0.0636336
-0.0697473
-0.0756192
-0.0812281
-0.086528
-0.091549
-0.0962838
-0.10073
-0.104886
-0.108741
-0.112277
-0.115473
-0.118317
-0.120816
-0.122993
-0.124876
-0.126487
-0.127841
-0.128948
-0.129823
-0.130478
-0.130921
-0.13115
-0.131155
-0.130935
-0.130506
-0.129908
-0.129184
-0.12837
-0.12749
-0.126551
-0.125562
-0.12454
-0.123521
-0.122539
-0.121622
-0.120778
-0.119992
-0.119236
-0.118475
-0.117682
-0.116853
-0.116028
-0.115282
-0.114672
-0.114199
-0.113821
-0.113497
-0.113237
-0.11306
-7.83221
-7.8314
-7.82984
-7.82766
-7.82514
-7.82341
-7.81937
-7.82049
-2.2766
-2.25265
-2.24127
-2.21406
-2.17734
-2.1305
-2.07304
-2.00485
-1.92586
-1.83617
-1.73598
-1.62564
-1.50563
-1.37657
-1.23917
-1.09429
-0.942877
-0.785997
-0.624806
-0.460539
-0.294483
-0.128048
0.0373745
0.200327
0.359336
0.512912
0.659599
0.797962
0.926634
1.0443
1.14974
1.24187
1.31972
1.38245
1.4294
1.46009
1.47424
1.47176
1.45271
1.41806
1.36806
1.30381