#           v             n
     0.523599             0
     0.648652             0
     0.790112             0
     0.953116             0
      1.13449             0
      1.34047             0
      1.56672             0
      1.82069             0
      2.09677   2.40039e-06
      2.40376   2.89204e-05
      2.73462   0.000176924
      3.09966   0.000628875
      3.49026    0.00165273
      3.91837    0.00318807
      4.37366    0.00509791
      4.86986     0.0064814
       5.3948    0.00699243
      5.96412    0.00609096
      6.56366    0.00450959
      7.21112    0.00273126
      7.89023    0.00142107
      8.62085   0.000616172
      9.38447    0.00023303
      10.2033   7.48076e-05
      11.0564   2.12569e-05
      11.9684    5.2093e-06
      12.9159   1.14455e-06
      13.9262   2.19755e-07
      14.9731   9.51352e-08
