/*--------------------------------*- C++ -*----------------------------------*\
  =========                 |
  \\      /  F ield         | OpenFOAM: The Open Source CFD Toolbox
   \\    /   O peration     | Website:  https://openfoam.org
    \\  /    A nd           | Version:  12
     \\/     M anipulation  |
\*---------------------------------------------------------------------------*/
FoamFile
{
    format      ascii;
    class       volScalarField;
    location    "10.56";
    object      p;
}
// * * * * * * * * * * * * * * * * * * * * * * * * * * * * * * * * * * * * * //

dimensions      [1 -1 -2 0 0 0 0];

internalField   nonuniform List<scalar> 
3829
(
-610.763
-610.764
-610.766
-610.77
-610.775
-610.781
-610.788
-610.798
-610.808
-610.821
-610.835
-610.852
-610.87
-610.891
-610.914
-610.939
-610.967
-610.998
-611.032
-611.069
-611.108
-611.152
-611.198
-611.248
-611.301
-611.358
-611.419
-611.482
-611.549
-611.619
-611.692
-611.768
-611.846
-611.927
-612.009
-612.094
-612.18
-612.266
-612.354
-612.442
-612.53
-612.617
-612.704
-612.79
-612.874
-612.956
-613.036
-613.114
-613.188
-613.259
-613.327
-613.389
-613.446
-613.498
-613.546
-613.588
-613.625
-613.657
-613.684
-613.706
-613.723
-613.735
-613.743
-613.746
-613.746
-613.742
-613.735
-613.725
-613.713
-613.699
-613.685
-613.67
-613.656
-613.642
-613.63
-613.62
-613.614
-613.61
-613.611
-613.616
-613.626
-613.641
-613.661
-613.688
-613.72
-613.757
-613.799
-613.846
-613.897
-613.951
-614.008
-614.067
-614.126
-614.186
-614.243
-614.299
-614.351
-614.399
-614.441
-614.477
-614.505
-614.525
-614.537
-614.538
-614.531
-614.515
-614.491
-614.46
-614.423
-614.381
-614.336
-614.287
-614.239
-614.193
-614.151
-614.113
-614.082
-614.059
-614.045
-614.041
-614.048
-614.064
-614.09
-614.125
-614.167
-614.214
-614.264
-614.316
-614.366
-614.412
-614.452
-614.484
-614.507
-614.518
-614.519
-614.508
-614.486
-614.455
-614.418
-614.376
-614.332
-614.289
-614.251
-614.219
-614.196
-614.184
-614.182
-614.193
-614.215
-614.245
-614.281
-614.321
-614.362
-614.399
-614.431
-614.454
-614.468
-614.471
-614.464
-614.448
-614.425
-614.398
-614.369
-614.342
-614.318
-614.301
-614.289
-614.285
-614.286
-614.291
-614.298
-614.306
-614.311
-614.313
-614.31
-614.302
-614.292
-614.28
-614.268
-614.258
-614.253
-614.254
-614.262
-614.276
-614.295
-614.317
-614.341
-614.363
-614.381
-614.392
-614.396
-614.389
-614.375
-614.353
-614.327
-614.298
-614.27
-614.246
-614.227
-614.218
-1768.98
-1768.98
-1768.98
-1768.98
-1768.99
-1768.99
-1769
-1769
-1769.01
-1769.02
-1769.03
-1769.04
-1769.06
-1769.08
-1769.1
-1769.12
-1769.15
-1769.18
-1769.21
-1769.25
-1769.3
-1769.35
-1769.4
-1769.46
-1769.52
-1769.58
-1769.65
-1769.73
-1769.8
-1769.89
-1769.97
-1770.06
-1770.15
-1770.25
-1770.34
-1770.44
-1770.54
-1770.64
-1770.74
-1770.84
-1770.94
-1771.04
-1771.14
-1771.24
-1771.33
-1771.42
-1771.51
-1771.59
-1771.67
-1771.75
-1771.82
-1771.89
-1771.95
-1772
-1772.05
-1772.09
-1772.12
-1772.15
-1772.18
-1772.19
-1772.2
-1772.21
-1772.21
-1772.2
-1772.19
-1772.18
-1772.16
-1772.14
-1772.11
-1772.09
-1772.06
-1772.03
-1772.01
-1771.99
-1771.96
-1771.95
-1771.93
-1771.92
-1771.92
-1771.92
-1771.93
-1771.94
-1771.96
-1771.99
-1772.03
-1772.07
-1772.12
-1772.17
-1772.23
-1772.3
-1772.36
-1772.43
-1772.5
-1772.57
-1772.64
-1772.71
-1772.77
-1772.83
-1772.87
-1772.91
-1772.95
-1772.97
-1772.98
-1772.98
-1772.97
-1772.95
-1772.91
-1772.87
-1772.83
-1772.77
-1772.72
-1772.66
-1772.6
-1772.54
-1772.49
-1772.44
-1772.4
-1772.38
-1772.36
-1772.35
-1772.36
-1772.38
-1772.42
-1772.46
-1772.51
-1772.57
-1772.63
-1772.69
-1772.75
-1772.81
-1772.86
-1772.9
-1772.92
-1772.94
-1772.93
-1772.92
-1772.89
-1772.85
-1772.8
-1772.75
-1772.7
-1772.64
-1772.6
-1772.56
-1772.53
-1772.52
-1772.52
-1772.53
-1772.56
-1772.6
-1772.64
-1772.69
-1772.74
-1772.78
-1772.82
-1772.85
-1772.86
-1772.86
-1772.85
-1772.83
-1772.8
-1772.77
-1772.74
-1772.7
-1772.68
-1772.66
-1772.65
-1772.64
-1772.65
-1772.66
-1772.67
-1772.68
-1772.69
-1772.69
-1772.69
-1772.68
-1772.66
-1772.65
-1772.63
-1772.62
-1772.61
-1772.62
-1772.62
-1772.64
-1772.66
-1772.69
-1772.71
-1772.74
-1772.76
-1772.77
-1772.77
-1772.77
-1772.75
-1772.73
-1772.7
-1772.67
-1772.64
-1772.61
-1772.59
-1772.58
-2795.04
-2795.04
-2795.04
-2795.04
-2795.04
-2795.04
-2795.04
-2795.04
-2795.05
-2795.05
-2795.05
-2795.06
-2795.06
-2795.08
-2795.09
-2795.11
-2795.13
-2795.15
-2795.18
-2795.22
-2795.26
-2795.31
-2795.36
-2795.42
-2795.48
-2795.55
-2795.63
-2795.72
-2795.81
-2795.91
-2796.01
-2796.12
-2796.23
-2796.34
-2796.46
-2796.58
-2796.71
-2796.83
-2796.95
-2797.08
-2797.2
-2797.32
-2797.44
-2797.56
-2797.67
-2797.78
-2797.88
-2797.98
-2798.07
-2798.16
-2798.24
-2798.31
-2798.37
-2798.42
-2798.47
-2798.5
-2798.53
-2798.55
-2798.57
-2798.57
-2798.57
-2798.55
-2798.54
-2798.51
-2798.48
-2798.45
-2798.41
-2798.36
-2798.32
-2798.27
-2798.22
-2798.18
-2798.13
-2798.09
-2798.05
-2798.02
-2797.99
-2797.97
-2797.96
-2797.95
-2797.96
-2797.97
-2797.99
-2798.03
-2798.07
-2798.12
-2798.18
-2798.25
-2798.33
-2798.41
-2798.5
-2798.59
-2798.68
-2798.77
-2798.86
-2798.94
-2799.02
-2799.09
-2799.15
-2799.2
-2799.24
-2799.26
-2799.27
-2799.27
-2799.25
-2799.22
-2799.17
-2799.12
-2799.05
-2798.98
-2798.9
-2798.81
-2798.73
-2798.65
-2798.58
-2798.52
-2798.47
-2798.43
-2798.41
-2798.41
-2798.42
-2798.45
-2798.5
-2798.55
-2798.62
-2798.7
-2798.79
-2798.87
-2798.95
-2799.02
-2799.09
-2799.14
-2799.17
-2799.19
-2799.18
-2799.15
-2799.11
-2799.06
-2798.99
-2798.92
-2798.85
-2798.78
-2798.71
-2798.66
-2798.63
-2798.61
-2798.62
-2798.64
-2798.67
-2798.73
-2798.79
-2798.85
-2798.92
-2798.97
-2799.02
-2799.05
-2799.07
-2799.07
-2799.05
-2799.02
-2798.98
-2798.94
-2798.89
-2798.85
-2798.82
-2798.79
-2798.78
-2798.78
-2798.79
-2798.81
-2798.83
-2798.85
-2798.86
-2798.86
-2798.86
-2798.85
-2798.83
-2798.81
-2798.79
-2798.77
-2798.76
-2798.76
-2798.77
-2798.79
-2798.81
-2798.84
-2798.88
-2798.91
-2798.93
-2798.95
-2798.95
-2798.94
-2798.92
-2798.9
-2798.86
-2798.83
-2798.79
-2798.76
-2798.74
-2798.72
-3703.89
-3703.89
-3703.88
-3703.88
-3703.87
-3703.85
-3703.84
-3703.82
-3703.81
-3703.79
-3703.78
-3703.76
-3703.75
-3703.73
-3703.73
-3703.73
-3703.73
-3703.74
-3703.77
-3703.8
-3703.83
-3703.88
-3703.94
-3704
-3704.08
-3704.18
-3704.28
-3704.39
-3704.51
-3704.65
-3704.79
-3704.94
-3705.09
-3705.25
-3705.41
-3705.57
-3705.74
-3705.9
-3706.07
-3706.23
-3706.39
-3706.54
-3706.69
-3706.84
-3706.98
-3707.11
-3707.23
-3707.35
-3707.45
-3707.55
-3707.63
-3707.7
-3707.77
-3707.82
-3707.87
-3707.9
-3707.92
-3707.93
-3707.92
-3707.91
-3707.89
-3707.85
-3707.81
-3707.76
-3707.7
-3707.63
-3707.56
-3707.49
-3707.41
-3707.33
-3707.25
-3707.18
-3707.1
-3707.04
-3706.97
-3706.92
-3706.87
-3706.83
-3706.81
-3706.8
-3706.8
-3706.81
-3706.84
-3706.88
-3706.93
-3707
-3707.08
-3707.17
-3707.27
-3707.38
-3707.5
-3707.62
-3707.74
-3707.86
-3707.98
-3708.09
-3708.19
-3708.28
-3708.36
-3708.43
-3708.47
-3708.5
-3708.51
-3708.5
-3708.47
-3708.42
-3708.35
-3708.27
-3708.17
-3708.07
-3707.96
-3707.84
-3707.73
-3707.62
-3707.52
-3707.44
-3707.37
-3707.32
-3707.3
-3707.29
-3707.31
-3707.36
-3707.42
-3707.5
-3707.6
-3707.71
-3707.82
-3707.93
-3708.04
-3708.14
-3708.22
-3708.29
-3708.33
-3708.34
-3708.33
-3708.3
-3708.24
-3708.16
-3708.07
-3707.97
-3707.87
-3707.77
-3707.69
-3707.62
-3707.58
-3707.56
-3707.56
-3707.59
-3707.65
-3707.72
-3707.8
-3707.89
-3707.98
-3708.06
-3708.12
-3708.16
-3708.18
-3708.17
-3708.14
-3708.1
-3708.04
-3707.98
-3707.92
-3707.86
-3707.82
-3707.8
-3707.79
-3707.79
-3707.81
-3707.84
-3707.87
-3707.9
-3707.91
-3707.92
-3707.92
-3707.9
-3707.88
-3707.85
-3707.82
-3707.79
-3707.78
-3707.78
-3707.79
-3707.81
-3707.84
-3707.88
-3707.92
-3707.96
-3707.99
-3708.01
-3708.01
-3708
-3707.98
-3707.95
-3707.91
-3707.86
-3707.82
-3707.78
-3707.76
-3707.74
-4509.13
-4509.12
-4509.1
-4509.07
-4509.04
-4508.99
-4508.94
-4508.88
-4508.81
-4508.75
-4508.68
-4508.62
-4508.57
-4508.52
-4508.48
-4508.45
-4508.42
-4508.41
-4508.42
-4508.44
-4508.47
-4508.52
-4508.6
-4508.69
-4508.79
-4508.91
-4509.05
-4509.22
-4509.4
-4509.58
-4509.78
-4509.98
-4510.19
-4510.41
-4510.63
-4510.85
-4511.07
-4511.28
-4511.5
-4511.71
-4511.91
-4512.11
-4512.3
-4512.47
-4512.64
-4512.8
-4512.95
-4513.09
-4513.21
-4513.32
-4513.41
-4513.49
-4513.55
-4513.6
-4513.64
-4513.66
-4513.66
-4513.65
-4513.62
-4513.58
-4513.53
-4513.46
-4513.39
-4513.3
-4513.2
-4513.1
-4512.98
-4512.87
-4512.75
-4512.63
-4512.51
-4512.4
-4512.29
-4512.19
-4512.09
-4512.01
-4511.94
-4511.88
-4511.84
-4511.82
-4511.82
-4511.83
-4511.86
-4511.92
-4511.99
-4512.08
-4512.18
-4512.3
-4512.44
-4512.58
-4512.74
-4512.9
-4513.06
-4513.22
-4513.37
-4513.52
-4513.66
-4513.78
-4513.88
-4513.96
-4514.01
-4514.05
-4514.05
-4514.03
-4513.98
-4513.91
-4513.82
-4513.7
-4513.57
-4513.42
-4513.27
-4513.11
-4512.96
-4512.81
-4512.68
-4512.57
-4512.48
-4512.42
-4512.38
-4512.38
-4512.41
-4512.47
-4512.56
-4512.67
-4512.8
-4512.95
-4513.11
-4513.26
-4513.41
-4513.54
-4513.64
-4513.73
-4513.78
-4513.79
-4513.77
-4513.72
-4513.64
-4513.53
-4513.4
-4513.27
-4513.13
-4513
-4512.89
-4512.8
-4512.74
-4512.72
-4512.73
-4512.78
-4512.85
-4512.95
-4513.07
-4513.19
-4513.3
-4513.4
-4513.48
-4513.53
-4513.55
-4513.54
-4513.5
-4513.43
-4513.35
-4513.27
-4513.19
-4513.12
-4513.06
-4513.04
-4513.03
-4513.05
-4513.08
-4513.12
-4513.16
-4513.2
-4513.23
-4513.24
-4513.23
-4513.21
-4513.17
-4513.13
-4513.09
-4513.06
-4513.04
-4513.04
-4513.05
-4513.08
-4513.12
-4513.17
-4513.22
-4513.26
-4513.3
-4513.32
-4513.33
-4513.32
-4513.29
-4513.25
-4513.2
-4513.15
-4513.1
-4513.05
-4513.02
-4513
-5222.83
-5222.81
-5222.77
-5222.71
-5222.63
-5222.54
-5222.42
-5222.29
-5222.15
-5222
-5221.85
-5221.69
-5221.54
-5221.4
-5221.27
-5221.16
-5221.07
-5221.01
-5220.97
-5220.96
-5220.98
-5221.03
-5221.12
-5221.24
-5221.39
-5221.58
-5221.78
-5222
-5222.24
-5222.49
-5222.76
-5223.05
-5223.34
-5223.63
-5223.93
-5224.22
-5224.51
-5224.8
-5225.08
-5225.35
-5225.61
-5225.85
-5226.09
-5226.31
-5226.51
-5226.7
-5226.87
-5227.03
-5227.17
-5227.29
-5227.39
-5227.47
-5227.52
-5227.57
-5227.59
-5227.59
-5227.58
-5227.54
-5227.49
-5227.41
-5227.32
-5227.22
-5227.1
-5226.96
-5226.82
-5226.67
-5226.51
-5226.34
-5226.17
-5226
-5225.84
-5225.67
-5225.52
-5225.38
-5225.25
-5225.13
-5225.03
-5224.95
-5224.9
-5224.86
-5224.85
-5224.87
-5224.91
-5224.98
-5225.07
-5225.19
-5225.33
-5225.49
-5225.67
-5225.86
-5226.06
-5226.27
-5226.48
-5226.69
-5226.89
-5227.08
-5227.25
-5227.41
-5227.54
-5227.64
-5227.71
-5227.74
-5227.74
-5227.71
-5227.64
-5227.54
-5227.41
-5227.25
-5227.08
-5226.88
-5226.67
-5226.47
-5226.26
-5226.07
-5225.9
-5225.75
-5225.63
-5225.55
-5225.51
-5225.51
-5225.55
-5225.64
-5225.76
-5225.91
-5226.09
-5226.28
-5226.49
-5226.69
-5226.88
-5227.05
-5227.19
-5227.29
-5227.35
-5227.37
-5227.34
-5227.26
-5227.15
-5227
-5226.84
-5226.66
-5226.47
-5226.3
-5226.16
-5226.05
-5225.97
-5225.95
-5225.97
-5226.03
-5226.14
-5226.27
-5226.42
-5226.58
-5226.73
-5226.86
-5226.95
-5227.02
-5227.03
-5227.01
-5226.96
-5226.87
-5226.76
-5226.64
-5226.54
-5226.45
-5226.39
-5226.35
-5226.35
-5226.38
-5226.43
-5226.49
-5226.55
-5226.6
-5226.64
-5226.65
-5226.64
-5226.61
-5226.56
-5226.51
-5226.46
-5226.41
-5226.39
-5226.38
-5226.4
-5226.43
-5226.48
-5226.54
-5226.6
-5226.66
-5226.7
-5226.73
-5226.74
-5226.73
-5226.69
-5226.64
-5226.59
-5226.52
-5226.46
-5226.41
-5226.37
-5226.35
-5855.45
-5855.41
-5855.33
-5855.2
-5855.04
-5854.83
-5854.6
-5854.34
-5854.05
-5853.75
-5853.44
-5853.12
-5852.81
-5852.51
-5852.25
-5852.01
-5851.82
-5851.67
-5851.57
-5851.53
-5851.54
-5851.6
-5851.72
-5851.9
-5852.13
-5852.41
-5852.72
-5853.07
-5853.45
-5853.85
-5854.26
-5854.67
-5855.08
-5855.49
-5855.89
-5856.28
-5856.66
-5857.02
-5857.37
-5857.7
-5858.02
-5858.31
-5858.59
-5858.85
-5859.09
-5859.31
-5859.5
-5859.68
-5859.83
-5859.95
-5860.05
-5860.13
-5860.19
-5860.22
-5860.22
-5860.2
-5860.16
-5860.09
-5860
-5859.88
-5859.75
-5859.6
-5859.43
-5859.24
-5859.04
-5858.83
-5858.61
-5858.39
-5858.16
-5857.93
-5857.71
-5857.5
-5857.29
-5857.1
-5856.93
-5856.77
-5856.64
-5856.54
-5856.46
-5856.42
-5856.4
-5856.43
-5856.48
-5856.57
-5856.69
-5856.84
-5857.02
-5857.22
-5857.45
-5857.69
-5857.95
-5858.22
-5858.49
-5858.75
-5859.01
-5859.25
-5859.47
-5859.67
-5859.83
-5859.95
-5860.03
-5860.08
-5860.07
-5860.02
-5859.93
-5859.8
-5859.62
-5859.41
-5859.18
-5858.93
-5858.66
-5858.39
-5858.13
-5857.88
-5857.66
-5857.47
-5857.32
-5857.22
-5857.17
-5857.18
-5857.24
-5857.35
-5857.51
-5857.71
-5857.94
-5858.19
-5858.45
-5858.71
-5858.96
-5859.17
-5859.35
-5859.48
-5859.55
-5859.56
-5859.52
-5859.42
-5859.27
-5859.07
-5858.85
-5858.62
-5858.39
-5858.17
-5857.99
-5857.85
-5857.76
-5857.73
-5857.76
-5857.85
-5857.98
-5858.16
-5858.35
-5858.55
-5858.74
-5858.91
-5859.03
-5859.1
-5859.12
-5859.09
-5859.01
-5858.89
-5858.75
-5858.59
-5858.46
-5858.35
-5858.28
-5858.24
-5858.25
-5858.29
-5858.36
-5858.44
-5858.52
-5858.59
-5858.64
-5858.65
-5858.64
-5858.6
-5858.54
-5858.47
-5858.4
-5858.34
-5858.31
-5858.3
-5858.32
-5858.36
-5858.43
-5858.5
-5858.57
-5858.64
-5858.69
-5858.73
-5858.73
-5858.72
-5858.68
-5858.62
-5858.55
-5858.48
-5858.41
-5858.35
-5858.31
-5858.28
-6416.87
-6416.79
-6416.63
-6416.39
-6416.06
-6415.65
-6415.17
-6414.62
-6414.01
-6413.38
-6412.77
-6412.18
-6411.62
-6411.12
-6410.67
-6410.28
-6409.97
-6409.73
-6409.58
-6409.5
-6409.51
-6409.6
-6409.78
-6410.05
-6410.41
-6410.85
-6411.36
-6411.92
-6412.51
-6413.1
-6413.68
-6414.25
-6414.8
-6415.33
-6415.84
-6416.33
-6416.8
-6417.24
-6417.66
-6418.05
-6418.42
-6418.77
-6419.09
-6419.38
-6419.65
-6419.89
-6420.1
-6420.29
-6420.45
-6420.58
-6420.68
-6420.75
-6420.8
-6420.81
-6420.79
-6420.75
-6420.67
-6420.57
-6420.43
-6420.28
-6420.09
-6419.89
-6419.66
-6419.41
-6419.15
-6418.87
-6418.59
-6418.3
-6418
-6417.71
-6417.43
-6417.15
-6416.89
-6416.65
-6416.42
-6416.23
-6416.07
-6415.94
-6415.84
-6415.79
-6415.77
-6415.8
-6415.87
-6415.97
-6416.13
-6416.31
-6416.54
-6416.8
-6417.08
-6417.39
-6417.71
-6418.04
-6418.38
-6418.71
-6419.03
-6419.33
-6419.6
-6419.84
-6420.04
-6420.19
-6420.29
-6420.33
-6420.32
-6420.25
-6420.13
-6419.95
-6419.73
-6419.47
-6419.17
-6418.85
-6418.51
-6418.17
-6417.85
-6417.54
-6417.26
-6417.03
-6416.85
-6416.73
-6416.67
-6416.68
-6416.76
-6416.9
-6417.1
-6417.36
-6417.65
-6417.97
-6418.3
-6418.62
-6418.92
-6419.19
-6419.41
-6419.56
-6419.65
-6419.66
-6419.6
-6419.47
-6419.27
-6419.03
-6418.75
-6418.45
-6418.16
-6417.89
-6417.67
-6417.49
-6417.39
-6417.36
-6417.4
-6417.52
-6417.69
-6417.91
-6418.16
-6418.41
-6418.65
-6418.85
-6418.99
-6419.08
-6419.09
-6419.04
-6418.94
-6418.79
-6418.61
-6418.42
-6418.25
-6418.12
-6418.03
-6417.99
-6418.01
-6418.06
-6418.15
-6418.26
-6418.37
-6418.46
-6418.51
-6418.53
-6418.51
-6418.46
-6418.38
-6418.3
-6418.21
-6418.14
-6418.1
-6418.09
-6418.11
-6418.17
-6418.24
-6418.33
-6418.42
-6418.5
-6418.56
-6418.59
-6418.6
-6418.58
-6418.54
-6418.47
-6418.39
-6418.31
-6418.23
-6418.16
-6418.11
-6418.08
-6915.38
-6915.25
-6915
-6914.61
-6914.09
-6913.44
-6912.68
-6911.81
-6910.86
-6909.83
-6908.8
-6907.78
-6906.77
-6905.84
-6905.03
-6904.33
-6903.76
-6903.32
-6903.02
-6902.86
-6902.86
-6903
-6903.3
-6903.74
-6904.31
-6905.02
-6905.84
-6906.73
-6907.62
-6908.49
-6909.31
-6910.09
-6910.81
-6911.49
-6912.11
-6912.7
-6913.24
-6913.74
-6914.22
-6914.66
-6915.07
-6915.45
-6915.79
-6916.11
-6916.4
-6916.66
-6916.89
-6917.09
-6917.25
-6917.39
-6917.48
-6917.55
-6917.57
-6917.57
-6917.53
-6917.45
-6917.34
-6917.19
-6917.01
-6916.8
-6916.56
-6916.3
-6916.01
-6915.69
-6915.36
-6915.02
-6914.66
-6914.29
-6913.93
-6913.57
-6913.21
-6912.87
-6912.55
-6912.25
-6911.98
-6911.74
-6911.54
-6911.38
-6911.27
-6911.2
-6911.18
-6911.22
-6911.3
-6911.44
-6911.62
-6911.86
-6912.13
-6912.45
-6912.8
-6913.17
-6913.57
-6913.98
-6914.39
-6914.79
-6915.18
-6915.54
-6915.87
-6916.15
-6916.39
-6916.57
-6916.68
-6916.73
-6916.71
-6916.62
-6916.47
-6916.25
-6915.97
-6915.64
-6915.27
-6914.88
-6914.46
-6914.05
-6913.65
-6913.27
-6912.94
-6912.66
-6912.44
-6912.3
-6912.23
-6912.25
-6912.35
-6912.53
-6912.79
-6913.1
-6913.46
-6913.85
-6914.25
-6914.65
-6915.01
-6915.34
-6915.6
-6915.78
-6915.88
-6915.89
-6915.8
-6915.64
-6915.39
-6915.09
-6914.75
-6914.39
-6914.03
-6913.7
-6913.43
-6913.22
-6913.1
-6913.07
-6913.13
-6913.28
-6913.49
-6913.76
-6914.07
-6914.38
-6914.66
-6914.9
-6915.07
-6915.17
-6915.18
-6915.11
-6914.98
-6914.79
-6914.57
-6914.34
-6914.13
-6913.97
-6913.87
-6913.83
-6913.86
-6913.94
-6914.06
-6914.19
-6914.33
-6914.43
-6914.5
-6914.52
-6914.5
-6914.43
-6914.34
-6914.23
-6914.12
-6914.04
-6913.99
-6913.98
-6914.01
-6914.07
-6914.16
-6914.26
-6914.36
-6914.46
-6914.53
-6914.57
-6914.58
-6914.55
-6914.5
-6914.42
-6914.33
-6914.24
-6914.15
-6914.07
-6914.02
-6913.99
-7358.75
-7358.57
-7358.19
-7357.61
-7356.8
-7355.73
-7354.39
-7352.46
-7349.77
-7347.58
-7345.69
-7344.04
-7342.66
-7341.51
-7340.53
-7339.73
-7339.1
-7338.65
-7338.37
-7338.25
-7338.31
-7338.56
-7339
-7339.66
-7340.56
-7341.7
-7343.16
-7345.16
-7346.57
-7347.78
-7348.84
-7349.76
-7350.59
-7351.35
-7352.04
-7352.67
-7353.26
-7353.8
-7354.31
-7354.77
-7355.21
-7355.61
-7355.98
-7356.32
-7356.63
-7356.9
-7357.14
-7357.34
-7357.51
-7357.64
-7357.73
-7357.78
-7357.79
-7357.77
-7357.7
-7357.59
-7357.44
-7357.25
-7357.02
-7356.76
-7356.46
-7356.13
-7355.77
-7355.38
-7354.98
-7354.56
-7354.12
-7353.68
-7353.24
-7352.8
-7352.37
-7351.96
-7351.57
-7351.22
-7350.89
-7350.61
-7350.37
-7350.18
-7350.04
-7349.97
-7349.95
-7349.99
-7350.1
-7350.26
-7350.49
-7350.77
-7351.1
-7351.48
-7351.9
-7352.35
-7352.83
-7353.31
-7353.8
-7354.28
-7354.74
-7355.17
-7355.56
-7355.9
-7356.18
-7356.38
-7356.51
-7356.57
-7356.54
-7356.42
-7356.23
-7355.96
-7355.62
-7355.23
-7354.78
-7354.31
-7353.81
-7353.32
-7352.84
-7352.39
-7351.99
-7351.66
-7351.41
-7351.24
-7351.17
-7351.2
-7351.32
-7351.55
-7351.85
-7352.23
-7352.66
-7353.13
-7353.61
-7354.08
-7354.52
-7354.9
-7355.21
-7355.42
-7355.53
-7355.54
-7355.43
-7355.22
-7354.93
-7354.56
-7354.15
-7353.72
-7353.29
-7352.9
-7352.58
-7352.34
-7352.2
-7352.17
-7352.25
-7352.43
-7352.69
-7353.02
-7353.38
-7353.75
-7354.09
-7354.37
-7354.57
-7354.68
-7354.68
-7354.59
-7354.42
-7354.19
-7353.93
-7353.65
-7353.41
-7353.22
-7353.11
-7353.07
-7353.11
-7353.21
-7353.36
-7353.52
-7353.69
-7353.81
-7353.89
-7353.92
-7353.88
-7353.8
-7353.69
-7353.56
-7353.44
-7353.34
-7353.28
-7353.27
-7353.3
-7353.37
-7353.47
-7353.59
-7353.71
-7353.82
-7353.9
-7353.94
-7353.95
-7353.92
-7353.87
-7353.78
-7353.68
-7353.57
-7353.47
-7353.39
-7353.32
-7353.29
-7753.39
-7753.15
-7752.64
-7751.84
-7750.69
-7749.13
-7747.06
-7744.59
-7740.87
-7737.83
-7735.17
-7732.87
-7730.9
-7729.22
-7727.8
-7726.64
-7725.72
-7725.03
-7724.59
-7724.39
-7724.44
-7724.75
-7725.34
-7726.23
-7727.45
-7729.05
-7731.03
-7733.85
-7735.77
-7737.34
-7738.6
-7739.67
-7740.58
-7741.38
-7742.07
-7742.7
-7743.29
-7743.83
-7744.34
-7744.82
-7745.27
-7745.68
-7746.07
-7746.42
-7746.74
-7747.02
-7747.27
-7747.48
-7747.64
-7747.77
-7747.86
-7747.9
-7747.89
-7747.84
-7747.74
-7747.6
-7747.41
-7747.17
-7746.89
-7746.57
-7746.21
-7745.81
-7745.38
-7744.92
-7744.44
-7743.94
-7743.43
-7742.9
-7742.38
-7741.87
-7741.36
-7740.88
-7740.42
-7740
-7739.62
-7739.29
-7739.01
-7738.79
-7738.64
-7738.55
-7738.53
-7738.59
-7738.71
-7738.91
-7739.18
-7739.51
-7739.91
-7740.36
-7740.85
-7741.38
-7741.93
-7742.5
-7743.08
-7743.64
-7744.18
-7744.68
-7745.13
-7745.52
-7745.84
-7746.08
-7746.22
-7746.28
-7746.24
-7746.1
-7745.87
-7745.54
-7745.14
-7744.67
-7744.15
-7743.59
-7743.01
-7742.43
-7741.87
-7741.34
-7740.88
-7740.5
-7740.2
-7740.01
-7739.94
-7739.97
-7740.13
-7740.39
-7740.76
-7741.2
-7741.71
-7742.26
-7742.83
-7743.38
-7743.89
-7744.33
-7744.69
-7744.93
-7745.06
-7745.05
-7744.92
-7744.67
-7744.32
-7743.89
-7743.4
-7742.89
-7742.4
-7741.94
-7741.57
-7741.29
-7741.13
-7741.1
-7741.2
-7741.42
-7741.74
-7742.12
-7742.54
-7742.99
-7743.37
-7743.7
-7743.92
-7744.04
-7744.04
-7743.93
-7743.72
-7743.45
-7743.13
-7742.81
-7742.53
-7742.32
-7742.19
-7742.15
-7742.2
-7742.33
-7742.51
-7742.71
-7742.9
-7743.05
-7743.14
-7743.17
-7743.13
-7743.03
-7742.89
-7742.75
-7742.6
-7742.49
-7742.42
-7742.4
-7742.44
-7742.52
-7742.64
-7742.78
-7742.91
-7743.03
-7743.12
-7743.17
-7743.18
-7743.15
-7743.08
-7742.98
-7742.87
-7742.75
-7742.64
-7742.55
-7742.48
-7742.44
-8105.26
-8105.18
-8105
-8104.79
-8104.4
-8104.12
-8103.8
-8103.52
-8084.19
-8084.75
-8085.15
-8085.58
-8086.19
-8086.74
-8087.35
-8087.83
-8088.42
-8088.97
-8089.49
-8090
-8090.47
-8090.92
-8091.35
-8091.74
-8092.11
-8092.43
-8092.73
-8092.98
-8093.2
-8093.37
-8093.49
-8093.57
-8093.6
-8093.57
-8093.5
-8093.37
-8093.19
-8092.96
-8092.68
-8092.35
-8091.97
-8091.54
-8091.08
-8090.57
-8090.04
-8089.48
-8088.9
-8088.3
-8087.69
-8087.09
-8086.49
-8085.91
-8085.36
-8084.83
-8084.35
-8083.91
-8083.53
-8083.21
-8082.96
-8082.79
-8082.69
-8082.67
-8082.74
-8082.89
-8083.13
-8083.44
-8083.83
-8084.28
-8084.8
-8085.37
-8085.98
-8086.62
-8087.28
-8087.94
-8088.58
-8089.2
-8089.77
-8090.29
-8090.74
-8091.1
-8091.36
-8091.53
-8091.59
-8091.53
-8091.37
-8091.09
-8090.72
-8090.25
-8089.7
-8089.1
-8088.45
-8087.78
-8087.11
-8086.46
-8085.87
-8085.34
-8084.9
-8084.56
-8084.35
-8084.27
-8084.32
-8084.51
-8084.82
-8085.24
-8085.76
-8086.35
-8086.98
-8087.64
-8088.27
-8088.85
-8089.36
-8089.76
-8090.03
-8090.17
-8090.16
-8090
-8089.7
-8089.29
-8088.79
-8088.23
-8087.64
-8087.07
-8086.56
-8086.13
-8085.82
-8085.64
-8085.61
-8085.74
-8085.99
-8086.36
-8086.81
-8087.29
-8087.8
-8088.24
-8088.61
-8088.87
-8089
-8088.99
-8088.85
-8088.61
-8088.28
-8087.92
-8087.55
-8087.23
-8086.99
-8086.84
-8086.81
-8086.88
-8087.03
-8087.24
-8087.48
-8087.7
-8087.87
-8087.98
-8088
-8087.95
-8087.84
-8087.68
-8087.51
-8087.34
-8087.21
-8087.14
-8087.12
-8087.16
-8087.26
-8087.39
-8087.54
-8087.69
-8087.82
-8087.92
-8087.98
-8087.99
-8087.95
-8087.87
-8087.76
-8087.64
-8087.52
-8087.4
-8087.29
-8087.22
-8087.18
-8417.36
-8417.3
-8417.2
-8417.06
-8416.83
-8416.64
-8416.44
-8416.13
-8391.11
-8391.61
-8391.94
-8392.3
-8392.82
-8393.28
-8393.78
-8394.27
-8394.78
-8395.29
-8395.79
-8396.29
-8396.76
-8397.22
-8397.65
-8398.06
-8398.43
-8398.77
-8399.08
-8399.34
-8399.56
-8399.74
-8399.86
-8399.93
-8399.95
-8399.91
-8399.81
-8399.65
-8399.44
-8399.17
-8398.84
-8398.45
-8398.01
-8397.52
-8396.99
-8396.41
-8395.8
-8395.16
-8394.5
-8393.82
-8393.13
-8392.44
-8391.77
-8391.11
-8390.48
-8389.88
-8389.34
-8388.84
-8388.41
-8388.06
-8387.78
-8387.58
-8387.48
-8387.46
-8387.54
-8387.72
-8387.99
-8388.35
-8388.79
-8389.31
-8389.9
-8390.55
-8391.25
-8391.97
-8392.72
-8393.46
-8394.19
-8394.89
-8395.54
-8396.12
-8396.62
-8397.02
-8397.32
-8397.5
-8397.56
-8397.49
-8397.29
-8396.98
-8396.55
-8396.01
-8395.39
-8394.7
-8393.96
-8393.2
-8392.44
-8391.71
-8391.04
-8390.44
-8389.95
-8389.58
-8389.34
-8389.25
-8389.32
-8389.54
-8389.89
-8390.38
-8390.97
-8391.64
-8392.35
-8393.11
-8393.82
-8394.48
-8395.04
-8395.49
-8395.8
-8395.94
-8395.92
-8395.74
-8395.4
-8394.93
-8394.35
-8393.71
-8393.05
-8392.4
-8391.82
-8391.34
-8390.99
-8390.8
-8390.78
-8390.92
-8391.22
-8391.64
-8392.15
-8392.71
-8393.27
-8393.77
-8394.18
-8394.47
-8394.61
-8394.59
-8394.43
-8394.14
-8393.77
-8393.36
-8392.94
-8392.58
-8392.31
-8392.15
-8392.12
-8392.21
-8392.39
-8392.64
-8392.9
-8393.15
-8393.35
-8393.47
-8393.49
-8393.43
-8393.3
-8393.12
-8392.93
-8392.74
-8392.59
-8392.51
-8392.49
-8392.54
-8392.65
-8392.8
-8392.96
-8393.13
-8393.27
-8393.38
-8393.44
-8393.45
-8393.41
-8393.33
-8393.21
-8393.07
-8392.94
-8392.81
-8392.7
-8392.62
-8392.57
-8694.06
-8694.03
-8693.98
-8693.9
-8693.79
-8693.72
-8693.62
-8693.54
-8663.26
-8663.49
-8663.73
-8663.98
-8664.4
-8664.8
-8665.24
-8665.7
-8666.19
-8666.68
-8667.17
-8667.66
-8668.14
-8668.61
-8669.05
-8669.47
-8669.87
-8670.22
-8670.54
-8670.82
-8671.04
-8671.22
-8671.35
-8671.41
-8671.42
-8671.36
-8671.24
-8671.06
-8670.81
-8670.5
-8670.12
-8669.68
-8669.18
-8668.63
-8668.03
-8667.38
-8666.69
-8665.97
-8665.23
-8664.47
-8663.7
-8662.93
-8662.17
-8661.43
-8660.73
-8660.07
-8659.46
-8658.91
-8658.43
-8658.04
-8657.73
-8657.52
-8657.4
-8657.39
-8657.49
-8657.69
-8657.99
-8658.4
-8658.9
-8659.48
-8660.15
-8660.88
-8661.65
-8662.47
-8663.3
-8664.13
-8664.94
-8665.72
-8666.44
-8667.09
-8667.64
-8668.09
-8668.41
-8668.61
-8668.67
-8668.58
-8668.36
-8668
-8667.51
-8666.91
-8666.21
-8665.44
-8664.61
-8663.76
-8662.91
-8662.1
-8661.35
-8660.69
-8660.14
-8659.73
-8659.47
-8659.38
-8659.46
-8659.71
-8660.11
-8660.66
-8661.32
-8662.07
-8662.87
-8663.72
-8664.51
-8665.24
-8665.87
-8666.36
-8666.7
-8666.86
-8666.83
-8666.61
-8666.23
-8665.69
-8665.05
-8664.33
-8663.59
-8662.87
-8662.23
-8661.69
-8661.31
-8661.1
-8661.08
-8661.25
-8661.59
-8662.07
-8662.64
-8663.26
-8663.89
-8664.45
-8664.9
-8665.21
-8665.36
-8665.33
-8665.15
-8664.82
-8664.4
-8663.93
-8663.47
-8663.07
-8662.77
-8662.6
-8662.58
-8662.68
-8662.89
-8663.17
-8663.47
-8663.75
-8663.97
-8664.1
-8664.13
-8664.05
-8663.9
-8663.7
-8663.48
-8663.28
-8663.12
-8663.03
-8663.01
-8663.06
-8663.18
-8663.34
-8663.53
-8663.71
-8663.87
-8663.98
-8664.04
-8664.05
-8664
-8663.91
-8663.79
-8663.64
-8663.5
-8663.36
-8663.24
-8663.15
-8663.11
-8939.29
-8939.28
-8939.25
-8939.21
-8939.15
-8939.11
-8939.06
-8939.03
-8903.99
-8904.13
-8904.34
-8904.56
-8904.91
-8905.28
-8905.69
-8906.14
-8906.61
-8907.09
-8907.59
-8908.09
-8908.58
-8909.06
-8909.52
-8909.96
-8910.37
-8910.75
-8911.08
-8911.37
-8911.61
-8911.79
-8911.92
-8911.98
-8911.98
-8911.91
-8911.77
-8911.56
-8911.27
-8910.92
-8910.5
-8910.01
-8909.45
-8908.84
-8908.17
-8907.45
-8906.69
-8905.89
-8905.06
-8904.22
-8903.37
-8902.52
-8901.69
-8900.87
-8900.1
-8899.37
-8898.7
-8898.1
-8897.58
-8897.14
-8896.81
-8896.58
-8896.46
-8896.45
-8896.56
-8896.79
-8897.13
-8897.58
-8898.13
-8898.78
-8899.52
-8900.32
-8901.18
-8902.08
-8903
-8903.92
-8904.81
-8905.67
-8906.46
-8907.17
-8907.77
-8908.26
-8908.62
-8908.83
-8908.89
-8908.79
-8908.53
-8908.13
-8907.59
-8906.92
-8906.15
-8905.29
-8904.38
-8903.44
-8902.5
-8901.61
-8900.78
-8900.05
-8899.45
-8899
-8898.73
-8898.63
-8898.73
-8899.01
-8899.46
-8900.07
-8900.8
-8901.63
-8902.52
-8903.45
-8904.32
-8905.12
-8905.81
-8906.35
-8906.72
-8906.88
-8906.84
-8906.6
-8906.17
-8905.58
-8904.86
-8904.07
-8903.25
-8902.46
-8901.75
-8901.16
-8900.75
-8900.53
-8900.51
-8900.7
-8901.08
-8901.61
-8902.25
-8902.94
-8903.62
-8904.24
-8904.73
-8905.07
-8905.23
-8905.19
-8904.98
-8904.61
-8904.14
-8903.62
-8903.12
-8902.68
-8902.35
-8902.17
-8902.15
-8902.27
-8902.51
-8902.82
-8903.16
-8903.47
-8903.71
-8903.85
-8903.87
-8903.79
-8903.62
-8903.4
-8903.16
-8902.93
-8902.76
-8902.66
-8902.64
-8902.7
-8902.83
-8903.01
-8903.21
-8903.41
-8903.57
-8903.69
-8903.76
-8903.77
-8903.72
-8903.62
-8903.48
-8903.33
-8903.17
-8903.03
-8902.9
-8902.81
-8902.77
-9156.59
-9156.58
-9156.56
-9156.54
-9156.5
-9156.48
-9156.45
-9156.44
-9117.08
-9117.18
-9117.37
-9117.58
-9117.9
-9118.25
-9118.66
-9119.1
-9119.57
-9120.06
-9120.57
-9121.09
-9121.6
-9122.1
-9122.58
-9123.05
-9123.48
-9123.87
-9124.23
-9124.53
-9124.78
-9124.97
-9125.1
-9125.16
-9125.15
-9125.06
-9124.9
-9124.66
-9124.35
-9123.96
-9123.49
-9122.95
-9122.34
-9121.67
-9120.93
-9120.15
-9119.31
-9118.44
-9117.54
-9116.61
-9115.68
-9114.76
-9113.85
-9112.96
-9112.12
-9111.32
-9110.59
-9109.94
-9109.38
-9108.91
-9108.54
-9108.3
-9108.17
-9108.17
-9108.29
-9108.54
-9108.92
-9109.42
-9110.03
-9110.74
-9111.54
-9112.43
-9113.37
-9114.35
-9115.35
-9116.35
-9117.33
-9118.26
-9119.12
-9119.89
-9120.54
-9121.07
-9121.45
-9121.68
-9121.73
-9121.62
-9121.34
-9120.89
-9120.3
-9119.56
-9118.71
-9117.78
-9116.78
-9115.75
-9114.73
-9113.76
-9112.86
-9112.07
-9111.42
-9110.94
-9110.64
-9110.54
-9110.65
-9110.96
-9111.46
-9112.13
-9112.94
-9113.85
-9114.82
-9115.82
-9116.77
-9117.64
-9118.39
-9118.98
-9119.37
-9119.54
-9119.49
-9119.22
-9118.75
-9118.1
-9117.31
-9116.45
-9115.55
-9114.69
-9113.92
-9113.28
-9112.84
-9112.6
-9112.59
-9112.81
-9113.23
-9113.81
-9114.51
-9115.26
-9116
-9116.67
-9117.21
-9117.57
-9117.74
-9117.69
-9117.45
-9117.04
-9116.53
-9115.96
-9115.41
-9114.93
-9114.58
-9114.39
-9114.37
-9114.51
-9114.78
-9115.12
-9115.49
-9115.83
-9116.09
-9116.24
-9116.27
-9116.18
-9115.99
-9115.74
-9115.48
-9115.23
-9115.05
-9114.94
-9114.92
-9114.99
-9115.13
-9115.32
-9115.53
-9115.75
-9115.92
-9116.05
-9116.12
-9116.13
-9116.07
-9115.97
-9115.82
-9115.66
-9115.5
-9115.34
-9115.21
-9115.12
-9115.07
-9349.09
-9349.09
-9349.08
-9349.06
-9349.04
-9349.03
-9349.01
-9349
-9305.74
-9305.82
-9306
-9306.21
-9306.52
-9306.87
-9307.28
-9307.73
-9308.21
-9308.72
-9309.25
-9309.78
-9310.32
-9310.84
-9311.35
-9311.84
-9312.3
-9312.71
-9313.08
-9313.4
-9313.67
-9313.86
-9313.99
-9314.05
-9314.04
-9313.94
-9313.76
-9313.5
-9313.16
-9312.73
-9312.22
-9311.63
-9310.97
-9310.24
-9309.44
-9308.59
-9307.68
-9306.73
-9305.76
-9304.76
-9303.76
-9302.76
-9301.77
-9300.82
-9299.91
-9299.05
-9298.27
-9297.56
-9296.96
-9296.45
-9296.07
-9295.8
-9295.67
-9295.67
-9295.81
-9296.09
-9296.5
-9297.04
-9297.7
-9298.48
-9299.35
-9300.3
-9301.32
-9302.38
-9303.46
-9304.55
-9305.6
-9306.6
-9307.53
-9308.36
-9309.06
-9309.63
-9310.03
-9310.27
-9310.33
-9310.2
-9309.89
-9309.4
-9308.75
-9307.96
-9307.04
-9306.02
-9304.94
-9303.83
-9302.73
-9301.68
-9300.71
-9299.86
-9299.16
-9298.64
-9298.33
-9298.23
-9298.35
-9298.69
-9299.24
-9299.97
-9300.84
-9301.83
-9302.88
-9303.96
-9304.98
-9305.93
-9306.73
-9307.36
-9307.77
-9307.96
-9307.9
-9307.6
-9307.08
-9306.37
-9305.52
-9304.58
-9303.62
-9302.69
-9301.86
-9301.18
-9300.7
-9300.45
-9300.45
-9300.69
-9301.15
-9301.78
-9302.54
-9303.35
-9304.15
-9304.87
-9305.44
-9305.83
-9306
-9305.94
-9305.68
-9305.23
-9304.67
-9304.06
-9303.46
-9302.95
-9302.57
-9302.37
-9302.36
-9302.52
-9302.81
-9303.19
-9303.59
-9303.96
-9304.24
-9304.4
-9304.42
-9304.32
-9304.12
-9303.85
-9303.56
-9303.3
-9303.1
-9302.99
-9302.97
-9303.05
-9303.2
-9303.4
-9303.63
-9303.85
-9304.04
-9304.17
-9304.25
-9304.25
-9304.19
-9304.08
-9303.93
-9303.76
-9303.58
-9303.42
-9303.28
-9303.19
-9303.13
-9519.64
-9519.64
-9519.63
-9519.62
-9519.6
-9519.59
-9519.58
-9519.58
-9472.78
-9472.86
-9473.04
-9473.25
-9473.56
-9473.92
-9474.34