/*--------------------------------*- C++ -*----------------------------------*\
  =========                 |
  \\      /  F ield         | OpenFOAM: The Open Source CFD Toolbox
   \\    /   O peration     | Website:  https://openfoam.org
    \\  /    A nd           | Version:  12
     \\/     M anipulation  |
\*---------------------------------------------------------------------------*/
FoamFile
{
    format      ascii;
    class       volScalarField;
    location    "0.03";
    object      epsilon;
}
// * * * * * * * * * * * * * * * * * * * * * * * * * * * * * * * * * * * * * //

dimensions      [0 2 -3 0 0 0 0];

internalField   nonuniform List<scalar> 
12225
(
278.545
263.739
249.555
236.999
226.953
219.788
215.52
213.938
214.7
217.417
221.697
227.188
233.584
240.643
248.194
256.122
264.545
277.336
61.207
86.9314
98.3506
107.736
119.282
133.85
151.431
171.671
194.046
217.98
242.932
268.448
294.2
320.001
345.932
372.187
400.434
431.828
25.2911
36.2322
43.4831
48.7919
53.659
58.7614
64.4214
70.7995
77.9478
85.8478
94.4421
103.66
113.437
123.738
134.59
146.126
158.756
173.135
17.5255
21.314
24.7512
27.6778
30.2736
32.7129
35.1252
37.6051
40.2158
42.9959
45.9675
49.1441
52.5381
56.169
60.0738
64.3312
69.0764
74.515
15.4892
16.7579
18.2007
19.6177
20.9586
22.2266
23.4429
24.6343
25.8254
27.0362
28.2825
29.5775
30.934
32.3671
33.8977
35.5594
37.4006
39.4704
14.909
15.2419
15.7523
16.3465
16.9701
17.5958
18.2124
18.8186
19.4178
20.0154
20.6172
21.2292
21.858
22.5113
23.1993
23.9357
24.7384
25.6154
14.7454
14.7399
14.8363
15.0086
15.2315
15.4851
15.7561
16.0363
16.3219
16.6115
16.9053
17.2045
17.5115
17.8294
18.1626
18.5169
18.899
19.3076
14.7015
14.5829
14.5123
14.4874
14.5018
14.5473
14.6164
14.7031
14.8029
14.9132
15.0321
15.1588
15.2935
15.437
15.5907
15.757
15.9381
16.1315
14.6903
14.5375
14.4071
14.301
14.2189
14.1589
14.1185
14.0948
14.0854
14.0883
14.1019
14.1251
14.1573
14.1985
14.2488
14.309
14.3797
14.4589
14.6876
14.5254
14.3761
14.2408
14.1199
14.0132
13.9203
13.8402
13.772
13.7147
13.6674
13.6295
13.6004
13.58
13.5681
13.5648
13.5702
13.5832
14.687
14.5223
14.3678
14.2233
14.0888
13.9644
13.8497
13.7446
13.6485
13.5612
13.4823
13.4114
13.3484
13.2929
13.2451
13.2047
13.1718
13.146
14.6868
14.5216
14.3657
14.2188
14.0806
13.9507
13.8289
13.7148
13.6084
13.5092
13.4171
13.3319
13.2535
13.1817
13.1165
13.0579
13.0058
12.9602
14.6867
14.5213
14.3651
14.2175
14.0781
13.9464
13.8221
13.7047
13.5941
13.49
13.3921
13.3004
13.2146
13.1347
13.0607
12.9924
12.9299
12.8733
14.6866
14.5211
14.3648
14.2171
14.0774
13.9452
13.8201
13.7018
13.5898
13.4839
13.3839
13.2896
13.2008
13.1174
13.0393
12.9665
12.8988
12.8366
14.6866
14.521
14.3647
14.2169
14.0772
13.9449
13.8198
13.7013
13.5891
13.4829
13.3824
13.2875
13.1978
13.1134
13.0339
12.9594
12.8897
12.8253
14.6865
14.5209
14.3645
14.2168
14.0771
13.9449
13.8198
13.7015
13.5894
13.4833
13.3829
13.288
13.1983
13.1138
13.0341
12.9591
12.8888
12.8235
14.6864
14.5208
14.3644
14.2167
14.077
13.945
13.82
13.7018
13.5899
13.4841
13.3839
13.2893
13.1998
13.1154
13.0357
12.9607
12.8902
12.8247
14.6864
14.5207
14.3643
14.2166
14.077
13.945
13.8203
13.7023
13.5907
13.4851
13.3852
13.2909
13.2017
13.1174
13.038
12.963
12.8925
12.8268
14.6863
14.5206
14.3642
14.2165
14.077
13.9452
13.8207
13.7029
13.5916
13.4863
13.3868
13.2927
13.2039
13.1199
13.0406
12.9658
12.8953
12.8295
14.6863
14.5205
14.3641
14.2165
14.0772
13.9456
13.8212
13.7037
13.5927
13.4877
13.3885
13.2948
13.2062
13.1225
13.0434
12.9687
12.8983
12.8326
14.6863
14.5205
14.3642
14.2167
14.0775
13.9461
13.8221
13.7049
13.5942
13.4896
13.3908
13.2975
13.2093
13.1261
13.0474
12.9732
12.9032
12.8379
14.6863
14.5206
14.3645
14.2173
14.0786
13.9478
13.8246
13.7084
13.5989
13.4958
13.3986
13.3071
13.2209
13.1397
13.0632
12.9913
12.9236
12.8606
14.6864
14.5212
14.3661
14.2209
14.085
13.9581
13.8398
13.7297
13.6271
13.5316
13.4427
13.36
13.283
13.2114
13.1446
13.0825
13.0246
12.9712
14.6875
14.5263
14.3795
14.2472
14.129
14.0241
13.9314
13.8496
13.7773
13.7133
13.6564
13.6057
13.5604
13.5197
13.4833
13.4506
13.4212
13.3952
14.6975
14.5662
14.4704
14.407
14.3702
14.3543
14.3541
14.3651
14.3839
14.4082
14.436
14.466
14.4974
14.5293
14.561
14.5925
14.6234
14.6542
14.7735
14.8179
14.9585
15.1556
15.3799
15.6127
15.8434
16.0665
16.2801
16.4838
16.6778
16.863
17.0402
17.2101
17.3735
17.531
17.6831
17.8295
15.259
16.1144
17.0673
17.9633
18.7706
19.4954
20.1512
20.7525
21.3126
21.8422
22.3491
22.8394
23.3171
23.7848
24.2444
24.6967
25.1421
25.5788
18.0431
22.0118
24.9908
27.1453
28.8605
30.346
31.7108
33.0212
34.3165
35.6181
36.9359
38.2728
39.6274
40.9956
42.3719
43.7505
45.1256
46.4861
34.0369
45.7055
51.3734
54.8941
57.9586
61.0682
64.3726
67.9091
71.6566
75.5688
79.5935
83.6808
87.7854
91.8677
95.8954
99.844
103.702
107.452
163.316
157.438
151.736
146.301
141.34
136.978
133.261
130.184
127.71
125.781
124.336
123.309
122.641
122.273
122.156
122.245
122.501
122.889
80.8623
141.028
173.9
195.251
207.276
212.388
212.345
208.426
201.587
192.519
181.711
169.792
158.849
148.361
138.144
128.309
119.355
112.361
109.221
112.652
125.496
148.997
181.161
216.776
248.541
270.322
279.826
279.967
289.849
325.212
373.538
428.975
487.579
546.575
604.058
658.776
709.955
757.161
800.197
839.035
873.763
904.548
931.616
955.228
975.671
993.239
1008.23
1020.94
1031.64
1040.61
1048.09
1054.33
1059.52
1063.89
1067.6
1070.82
1073.72
1076.42
1079.06
1081.75
1084.59
1087.7
1091.15
1095.03
1099.42
1104.14
1109.19
1114.61
1120.43
1126.65
1133.27
1140.3
1147.72
1155.51
1163.64
1172.05
1180.7
1189.49
1198.34
1207.1
1215.62
1223.67
1231
1237.28
1242.1
1244.98
1245.34
1242.52
1235.77
1224.31
1207.33
1184.12
1154.1
1116.93
1072.62
1021.6
964.708
903.228
838.787
773.373
709.804
653.23
613.061
583.11
555.502
529.592
505.361
482.841
462.022
442.854
425.252
409.112
394.319
380.754
368.301
356.848
346.289
336.527
327.474
319.047
311.176
303.793
296.841
290.266
284.023
278.07
272.37
266.892
261.605
256.486
251.513
246.666
241.929
237.287
232.727
228.239
223.807
219.407
215.012
210.587
206.113
201.59
197.035
192.473
187.933
183.445
179.042
174.75
170.597
166.604
162.791
159.174
155.763
152.567
149.59
146.834
144.296
141.973
139.857
137.939
136.208
134.654
133.262
132.019
130.91
129.921
129.035
128.235
127.502
126.817
126.155
125.488
124.783
123.994
123.062
121.899
120.393
118.299
115.508
110.574
136.258
149.366
153.478
151.237
145.511
138.228
130.356
122.447
114.878
107.906
101.703
96.5303
93.3323
91.5691
91.0555
92.0346
95.467
103.523
120.055
150.355
199.169
267.08
350.825
448.193
549.359
625.594
674.806
696.131
694.888
679.172
655.372
628.388
601.378
576.23
553.932
534.845
518.932
505.924
495.433
487.027
480.285
474.817
470.287
466.416
462.982
459.817
456.798
453.841
450.895
447.932
444.944
441.939
438.935
435.959
433.045
430.231
427.56
425.078
422.834
420.88
419.27
418.061
417.312
417.081
417.424
418.257
419.41
420.89
422.712
424.888
427.426
430.334
433.615
437.272
441.307
445.718
450.502
455.653
461.159
467.005
473.163
479.596
486.245
493.03
499.834
506.5
512.815
518.504
523.221
526.55
528.013
527.099
523.298
516.167
505.392
490.856
472.688
451.284
427.295
401.58
375.157
349.097
325.316
304.828
285.745
267.951
251.47
236.303
222.413
209.737
198.192
187.685
178.123
169.413
161.469
154.209
147.559
141.453
135.829
130.635
125.821
121.345
117.169
113.258
109.583
106.115
102.831
99.7099
96.7318
93.88
91.1396
88.4971
85.9412
83.4619
81.051
78.7021
76.4108
74.1772
72.0628
70.1025
68.2591
66.4962
64.8036
63.1756
61.6102
60.1076
58.6693
57.2971
55.9919
54.7542
53.5833
52.478
51.4361
50.455
49.5318
48.6634
47.8468
47.0793
46.3586
45.683
45.0513
44.4629
43.9179
43.4168
42.9607
42.5511
42.1903
41.8813
41.628
41.436
41.3131
41.2706
41.3251
41.5024
41.8426
42.4133
43.3274
44.8124
47.2262
51.9926
157.617
162.225
160.273
154.353
146.559
138.082
129.437
121.003
113.163
106.313
100.886
97.5071
96.7403
98.9691
105.03
116.706
137.39
172.48
228.053
309.083
416.958
534.574
632.25
701.51
736.179
735.612
708.06
664.508
615.312
567.848
526.089
491.661
464.799
444.997
431.369
422.854
418.343
416.773
417.191
418.8
420.975
423.255
425.33
427.009
428.191
428.834
428.94
428.533
427.651
426.338
424.641
422.607
420.283
417.714
414.944
412.017
408.976
405.863
402.719
399.584
396.499
393.499
390.621
387.896
385.351
383.003
380.815
378.807
377.016
375.481
374.239
373.328
372.785
372.646
372.947
373.723
375.012
376.847
379.265
382.299
385.977
390.321
395.338
401.017
407.315
414.147
421.369
428.764
436.023
442.736
448.394
452.4
454.109
452.891
448.21
439.716
427.314
411.209
391.89
370.071
346.584
322.211
299.525
278.695
259.151
240.93
224.089
208.639
194.542
181.728
170.104
159.57
150.022
141.361
133.492
126.328
119.793
113.814
108.329
103.283
98.6256
94.3133
90.3073
86.5732
83.0807
79.8027
76.7153
73.7972
71.0294
68.3951
65.8795
63.4693
61.153
58.9206
56.7635
54.6742
52.6471
50.6786
48.7682
46.9165
45.1247
43.4012
41.7392
40.1319
38.5782
37.0773
35.6293
34.2341
32.892
31.6032
30.3681
29.1869
28.0598
26.9871
25.9689
25.0056
24.0973
23.2443
22.4466
21.7042
21.0168
20.3841
19.8054
19.2797
18.806
18.3831
18.0098
17.685
17.4079
17.1782
16.9966
16.8651
16.788
16.7734
16.8358
17.0009
17.3167
17.877
18.8858
20.7999
171.201
177.583
175.226
168.234
159.719
150.727
141.68
133.002
125.241
119.094
115.503
115.958
120.924
131.6
150.011
179.715
226.528
298.633
392.438
497.473
598.944
677.063
717.474
718.907
689.052
640.175
584.708
531.807
486.666
451.254
425.505
408.368
398.439
394.279
394.545
398.037
403.721
410.735
418.392
426.168
433.689
440.706
447.065
452.687
457.54
461.626
464.963
467.582
469.516
470.802
471.475
471.569
471.116
470.148
468.695
466.785
464.447
461.708
458.596
455.139
451.365
447.304
442.986
438.448
433.731
428.879
423.918
418.873
413.791
408.728
403.744
398.9
394.258
389.884
385.847
382.216
379.063
376.463
374.492
373.226
372.742
373.111
374.399
376.655
379.905
384.135
389.279
395.192
401.632
408.237
414.516
419.846
423.506
424.737
422.828
417.231
407.659
394.15
377.074
357.063
334.902
311.894
290.363
269.84
250.425
232.277
215.489
200.087
186.036
173.268
161.691
151.203
141.7
133.082
125.255
118.133
111.636
105.695
100.247
95.2372
90.6166
86.3419
82.3748
78.6815
75.232
71.9998
68.9614
66.0957
63.3843
60.8105
58.3597
56.0188
53.7765
51.6226
49.5483
47.5462
45.6099
43.7343
41.9154
40.1496
38.4346
36.7694
35.1534
33.5883
32.0713
30.601
29.1773
27.8
26.4694
25.1857
23.9494
22.761
21.6211
20.5302
19.4892
18.4987
17.5595
16.672
15.8369
15.0546
14.3251
13.6484
13.0242
12.4517
11.9301
11.4582
11.0346
10.6579
10.3266
10.0393
9.79502
9.59321
9.43442
9.32085
9.2575
9.25437
9.33076
9.52429
9.91225
10.6439
180.466
214.117
205.532
193.797
183.148
173.312
164.084
155.755
149.076
145.256
146.223
153.043
167.225
191.578
228.258
279.167
346.034
426.918
512.754
589.868
644.017
665.351
653.199
615.91
565.776
514.022
468.162
431.749
405.501
388.581
379.529
376.799
378.98
384.865
393.432
403.831
415.357
427.444
439.646
451.628
463.146
474.032
484.174
493.504
501.982
509.591
516.327
522.194
527.203
531.369
534.708
537.237
538.975
539.94
540.151
539.627
538.387
536.45
533.838
530.572
526.676
522.176
517.1
511.481
505.356
498.765
491.736
484.306
476.528
468.458
460.159
451.699
443.152
434.599
426.127
417.83
409.809
402.173
395.036
388.518
382.745
377.844
373.94
371.149
369.573
369.281
370.297
372.573
375.963
380.196
384.849
389.337
392.927
394.786
394.08
390.094
382.364
370.777
355.573
337.321
316.876
296.513
276.601
257.345
239.033
221.872
205.974
191.369
178.031
165.896
154.878
144.88
135.807
127.563
120.061
113.22
106.967
101.237
95.9722
91.1216
86.6396
82.4862
78.626
75.0276
71.6631
68.5079
65.5401
62.74
60.0903
57.5754
55.1815
52.8964
50.7093
48.6103
46.5913
44.6448
42.7646
40.9453
39.1823
37.4718
35.8107
34.1965
32.6277
31.1034
29.6235
28.1875
26.7947
25.4451
24.1388
22.8763
21.6579
20.4843
19.3561
18.274
17.2388
16.2513
15.3122
14.4222
13.5818
12.7916
12.0517
11.3622
10.7227
10.1328
9.59161
9.0981
8.65093
8.24863
7.88954
7.572
7.29438
7.05529
6.85377
6.68963
6.56404
6.48049
6.4466
6.4779
6.60382
6.87759
178.29
283.09
246.693
226.795
214.238
204.517
196.292
189.721
185.978
186.899
195.004
210.032
233.92
268.236
313.536
368.893
431.126
493.784
547.401
582.305
592.306
577.413
543.936
501.505
459.107
422.723
395.055
376.442
365.979
362.324
364.126
370.195
379.532
391.307
404.829
419.518
434.895
450.565
466.211
481.581
496.476
510.746
524.274
536.975
548.784
559.655
569.556
578.465
586.369
593.262
599.142
604.012
607.879
610.752
612.641
613.561
613.524
612.548
610.648
607.845
604.158
599.61
594.224
588.028
581.048
573.315
564.833
555.663
545.852
535.451
524.515
513.108
501.3
489.171
476.812
464.326
451.827
439.441
427.31
415.587
404.437
394.034
384.559
376.194
369.112
363.464
359.365
356.867
355.931
356.392
357.928
360.034
362.02
363.045
362.204
358.673
351.846
341.482
327.687
311.002
293.25
275.131
257.091
239.562
222.873
207.234
192.752
179.453
167.307
156.25
146.2
137.068
128.763
121.2
114.298
107.985
102.196
96.8744
91.9681
87.4322
83.227
79.3173
75.6721
72.2638
69.0681
66.0631
63.2295
60.55
58.0092
55.5932
53.2899
51.0881
48.9781
46.9513
45
43.1176
41.2982
39.5369
37.8292
36.1716
34.561
32.9948
31.4714
29.9893
28.5479
27.1468
25.7859
24.4651
23.1847
21.9449
20.7464
19.5897
18.4757
17.4049
16.3784
15.3968
14.4612
13.5722
12.7304
11.9366
11.191
10.4938
9.84485
9.24385
8.69014
8.18278
7.72058
7.30213
6.92582
6.58988
6.29251
6.03196
5.80664
5.61533
5.4575
5.33381
5.24688
5.20296
5.21367
5.29866
768.06
354.323
286.533
263.07
251.105
243.179
237.449
234.17
234.702
241.031
252.82
271.602
298.369
333.034
374.101
418.423
461.141
496.147
517.465
521.389
508.141
481.966
449.472
417.174
389.685
369.251
356.284
350.161
349.867
354.348
362.658
373.994
387.68
403.149
419.915
437.565
455.743
474.148
492.521
510.645
528.336
545.44
561.828
577.393
592.045
605.714
618.342
629.882
640.301
649.572
657.68
664.613
670.366
674.941
678.34
680.573
681.65
681.583
680.388
678.083
674.684
670.213
664.691
658.142
650.594
642.018
632.472
622.011
610.678
598.516
585.576
571.913
557.59
542.685
527.282
511.485
495.407
479.182
462.96
446.909
431.214
416.077
401.712
388.342
376.191
365.471
356.364
349.003
343.434
339.589
337.245
335.999
335.252
334.209
331.969
327.688
320.664
310.63
297.531
282.803
266.951
250.597
234.302
218.513
203.538
189.563
176.671
164.871
154.119
144.348
135.474
127.408
120.065
113.367
107.24
101.62
96.45
91.6798
87.2654
83.1682
79.3542
75.7938
72.4607
69.3316
66.3859
63.6053
60.9734
58.4756
56.0989
53.8315
51.663
49.584
47.5862
45.6622
43.8054
42.01
40.2712
38.5845
36.9462
35.353
33.8025
32.2923
30.8209
29.3872
27.9902
26.6297
25.3055
24.0178
22.7669
21.5532
20.3773
19.2399
18.1419
17.084
16.0673
15.0926
14.1609
13.2731
12.4302
11.6328
10.8815
10.1768
9.51866
8.90709
8.34163
7.82159
7.34597
6.91351
6.52271
6.17188
5.85918
5.58275
5.34073
5.13145
4.95359
4.80648
4.69047
4.60776
4.56283
4.56289
879.773
397.801
324.201
301.439
291.719
286.525
283.693
283.32
286.498
293.753
305.246
322.246
344.788
371.646
400.354
427.432
448.884
461.078
461.838
451.347
432.237
408.722
385.198
365.06
350.213
341.242
337.897
339.53
345.393
354.769
367.024
381.61
398.054
415.946
434.924
454.67
474.898
495.357
515.819
536.083
555.968
575.313
593.978
611.837
628.781
644.717
659.566
673.263
685.753
696.994
706.953
715.608
722.942
728.946
733.618
736.959
738.976
739.679
739.081
737.197
734.046
729.646
724.018
717.184
709.16
699.924
689.556
678.105
665.614
652.124
637.683
622.344
606.169
589.23
571.613
553.416
534.755
515.761
496.585
477.398
458.387
439.761
421.74
404.558
388.455
373.666
360.407
348.853
339.099
331.13
324.795
319.783
315.62
311.614
306.92
300.803
292.527
282.02
269.657
255.827
241.083
226.01
211.128
196.833
183.391
170.947
159.55
149.183
139.79
131.288
123.59
116.608
110.257
104.463
99.1592
94.2859
89.7926
85.6353
81.7757
78.1808
74.8217
71.6734
68.7138
65.9235
63.2853
60.7842
58.4064
56.1399
53.9738
51.8986
49.9056
47.987
46.136
44.3465
42.6132
40.9314
39.2969
37.7062
36.1563
34.6448
33.1695
31.7288
30.3214
28.9466
27.6037
26.2926
25.0132
23.766
22.5512
21.3696
20.2218
19.1086
18.0308
16.9896
15.9859
15.0207
14.0954
13.2108
12.3683
11.5686
10.8127
10.1013
9.43471
8.8132
8.23664
7.70458
7.2163
6.77075
6.36661
6.00231
5.67612
5.38613
5.13043
4.90713
4.71453
4.55129
4.41666
4.31089
4.2354
4.19246
963.04
434.748
358.717
338.181
331.499
329.243
328.792
329.811
332.867
337.393
344.919
355.987
370.083
385.686
400.515
411.981
417.789
416.574
408.374
394.687
378.046
361.263
346.723
335.979
329.726
328.024
330.558
336.853
346.401
358.717
373.362
389.945
408.116
427.559
447.989
469.144
490.782
512.679
534.627
556.435
577.922
598.922
619.286
638.874
657.562
675.241
691.815
707.199
721.325
734.134
745.579
755.625
764.243
771.415
777.131
781.384
784.178
785.517
785.412
783.877
780.93
776.59
770.88
763.828
755.4
745.667
734.688
722.512
709.182
694.742
679.242
662.738
645.293
626.981
607.888
588.112
567.768
546.987
525.919
504.732
483.609
462.744
442.348
422.639
403.841
386.174
369.85
355.057
341.898
330.361
320.314
311.494
303.584
296.068
288.158
279.386
269.456
258.116
245.465
231.824
217.653
203.442
189.624
176.524
164.347
153.191
143.068
133.937
125.722
118.333
111.675
105.659
100.203
95.2348
90.6907
86.5167
82.6663
79.1
75.7837
72.6885
69.7892
67.064
64.494
62.0627
59.7553
57.559
55.4623
53.4551
51.5283
49.6738
47.8844
46.1538
44.4763
42.847
41.2615
39.7162
38.2076
36.7333
35.2907
33.8782
32.4943
31.1377
29.8079
28.5044
27.227
25.9756
24.7508
23.553
22.3828
21.241
20.1284
19.0459
17.9946
16.9755
15.9899
15.0389
14.124
13.2464
12.4074
11.6084
10.8504
10.1345
9.46139
8.83166
8.2455
7.7028
7.20312
6.7457
6.32942
5.95292
5.61457
5.31256
5.04498
4.80985
4.60529
4.42962
4.28151
4.16022
4.06569
3.99812
1015.77
461.009
385.392
368.022
364.724
365.306
366.632
367.908
368.225
368.941
371.012
374.751
379.701
384.726
388.317
389.029
385.922
378.865
368.599
356.539
344.394
333.753
325.809
321.258
320.352
323.028
329.04
338.061
349.741
363.739
379.737
397.439
416.572
436.882
458.132
480.096
502.562
525.326
548.194
570.979
593.505
615.605
637.12
657.904
677.823
696.754
714.588
731.228
746.589
760.6
773.201
784.343
793.988
802.107
808.68
813.695
817.147
819.036
819.37
818.16
815.422
811.177
805.449
798.249
789.598
779.571
768.223
755.604
741.762
726.748
710.616
693.427
675.249
656.159
636.244
615.605
594.353
572.618
550.547
528.307
506.074
484.023
462.338
441.205
420.809
401.325
382.91
365.76
349.97
335.473
322.115
309.604
297.768
286.457
275.137
263.503
251.32
238.469
225.001
211.138
197.213
183.593
170.601
158.473
147.345
137.262
128.202
120.099
112.861
106.391
100.592
95.3742
90.6592
86.3777
82.4707
78.888
75.5872
72.5324
69.693
67.0427
64.5592
62.2229
60.0169
57.9264
55.9383
54.0411
52.2246
50.4798
48.7986
47.174
45.5996
44.0699
42.5801
41.1259
39.7037
38.3104
36.9434
35.6006
34.2803
32.9813
31.7024
30.4433
29.2035
27.983
26.7819
25.6008
24.4403
23.3013
22.1845
21.0908
20.0212
18.9769
17.9589
16.9685
16.007
15.0759
14.1767
13.3108
12.4799
11.6855
10.929
10.2119
9.53515
8.89978
8.30632
7.75504
7.24581
6.77818
6.35132
5.96406
5.61496
5.30234
5.02434
4.77899
4.56433
4.3785
4.21985
4.08713
3.97949
3.89619
1028.37
472.16
399.725
386.031
386.149
389.408
392.186
392.777
391.442
389.016
386.286
383.709
381.256
378.453
374.625
369.2
361.974
353.225
343.659
334.236
325.951
319.656
315.953
315.173
317.411
322.592
330.537
341.017
353.781
368.576
385.16
403.3
422.774
443.369
464.88
487.111
509.868
532.964
556.218
579.449
602.486
625.161
647.316
668.8
689.471
709.199
727.865
745.36
761.59
776.471
789.931
801.911
812.362
821.244
828.528
834.194
838.23
840.63
841.396
840.536
838.064
833.998
828.366
821.179
812.509
802.42
790.967
778.205
764.188
748.973
732.62
715.197
696.777
677.441
657.279
636.391
614.885
592.881
570.516
547.968
525.416
503.003
480.878
459.189
438.069
417.625
397.879
379.026
361.212
344.226
327.897
312.044
296.537
281.284
266.223
251.336
236.589
221.953
207.45
193.192
179.376
166.227
153.948
142.676
132.474
123.332
115.192
107.966
101.55
95.8435
90.7484
86.1787
82.0598
78.3278
74.929
71.8182
68.9574
66.3144
63.862
61.5766
59.4382
57.4292
55.5341
53.7392
52.0327
50.4037
48.8427
47.3412
45.8915
44.487
43.1217
41.7903
40.4884
39.2118
37.9573
36.7222
35.504
34.3009
33.1117
31.9353
30.7711
29.6188
28.4785
27.3501
26.2345
25.1326
24.0453
22.9735
21.9182
20.8805
19.8616
18.8627
17.8851
16.9302
15.9994
15.0942
14.2164
13.3677
12.5498
11.7647
11.014
10.2996
9.62275
8.98489
8.38696
7.82961
7.31309
6.83726
6.40162
6.00525
5.64692
5.32512
5.03808
4.78391
4.56062
4.36628
4.19906
4.05742
3.94007
3.84583
997.509
465.446
398.669
388.823
392.216
398.094
402.635
404.407
403.218
399.537
394.109
387.637
380.572
373.079
365.137
356.723
347.96
339.172
330.852
323.578
317.906
314.299
313.076
314.406
318.323
324.763
333.594
344.643
357.723
372.639
389.198
407.21
426.486
446.847
468.111
490.103
512.648
535.574
558.708
581.882
604.929
627.688
649.999
671.712
692.683
712.776
731.867
749.841
766.593
782.031
796.074
808.651
819.704
829.185
837.054
843.284
847.854
850.752
851.972
851.518
849.397
845.627
840.23
833.264
824.797
814.893
803.611
791.009
777.146
762.087
745.898
728.652
710.429
691.315
671.401
650.788
629.581
607.883
585.777
563.481
541.228
519.089
497.169
475.57
454.375
433.635
413.362
393.549
374.12
354.91
335.743
316.496
297.173
277.946
259.108
240.957
223.669
207.284
191.78
177.153
163.455
150.773
139.186
128.734
119.404
111.136
103.836
97.3979
91.7085
86.6631
82.1675
78.1403
74.5127
71.2272
68.2363
65.5003
62.9863
60.6664
58.5171
56.5181
54.6517
52.9023
51.2562
49.701
48.2257
46.8202
45.4755
44.1833
42.9362
41.7276
40.5514
39.4024
38.276
37.168
36.0751
34.9943
33.9233
32.8603
31.804
30.7533
29.7078
28.6671
27.6312
26.6008
25.5771
24.5609
23.5534
22.5555
21.5684
20.5935
19.632
18.6852
17.7545
16.8414
15.9474
15.0743
14.2237
13.3976
12.5981
11.8271
11.0868
10.3792
9.70606
9.06918
8.46989
7.90925
7.38791
6.9061
6.46364
6.05992
5.69395
5.36441
5.06969
4.80798
4.57735
4.37583
4.20151
4.05268
3.92781
3.82547
925.56
440.678
381.63
375.53
382.054
391.315
399.215
403.944
404.929
402.373
396.932
389.439
380.676
371.259
361.626
352.1
342.975
334.566
327.22
321.29
317.103
314.925
314.936
317.228
321.812
328.633
337.589
348.54
361.334
375.818
391.831
409.214
427.809
447.455
467.995
489.27
511.122
533.393
555.923
578.554
601.13
623.493
645.491
666.977
687.807
707.846
726.965
745.046
761.978
777.663
792.012
804.947
816.401
826.316
834.646
841.353
846.411
849.797
851.501
851.516
849.844
846.493
841.516
834.972
826.93
817.459
806.618
794.469
781.077
766.509
750.84
734.147
716.514
698.031
678.794
658.904
638.469
617.598
596.409
575.044
553.635
532.275
511.042
489.99
469.139
448.461
427.878
407.252
386.392
365.071
343.102
320.444
297.313
274.212
251.805
230.683
211.179
193.349
177.091
162.277
148.822
136.683
125.828
116.205
107.734
100.308
93.8058
88.1023
83.0799
78.6337
74.6732
71.123
67.921
65.0164
62.368
59.942
57.7106
55.6505
53.7421
51.9683
50.3144
48.7672
47.315
45.9469
44.6532
43.4248
42.2534
41.1311
40.0509
39.0061
37.9908
36.9996
36.0274
35.0701
34.1239
33.1856
32.2525
31.3225
30.3941
29.466
28.5375
27.6076
26.6771
25.747
24.818
23.891
22.9672
22.0476
21.1336
20.2265
19.3275
18.4382
17.5599
16.6941
15.8425
15.0068
14.1888
13.3907
12.6145
11.8626
11.1372
10.4406
9.77519
9.14286
8.54544
7.98441
7.46082
6.97531
6.52805
6.11876
5.74675
5.4109
5.10981
4.84177
4.60494
4.39738
4.21716
4.06244
3.93158
3.82299
819.056
399.211
350.335
348.921
359.464
372.607
384.529
393.323
398.141
398.884
395.982
390.185
382.36
373.342
363.84
354.419
345.529
337.537
330.757
325.466
321.896
320.229
320.579
323.002
327.5
334.042
342.579
352.905
364.911
378.475
393.468
409.756
427.201
445.665
465.01
485.093
505.775
526.909
548.353
569.959
591.581
613.074
634.294
655.097
675.346
694.908
713.655
731.467
748.232
763.846
778.217
791.258
802.898
813.07
821.721
828.807
834.29
838.145
840.349
840.89
839.76
836.973
832.603
826.709
819.349
810.587
800.485
789.107
776.522
762.801
748.021
732.264
715.615
698.167
680.015
661.261
642.009
622.365
602.435
582.324
562.122
541.897
521.684
501.478
481.225
460.805
440.031
418.645
396.343
372.834
347.95
321.808
294.933
268.228
242.718
219.209
198.081
179.326
162.724
148.022
135.015
123.551
113.504
104.746
97.141
90.544
84.8105
79.8055
75.4091
71.5191
68.0507
64.9351
62.1173
59.5532
57.2077
55.0525
53.0645
51.2249
49.5176
47.9289
46.447
45.0612
43.7618
42.54
41.3876
40.2968
39.2603
38.2712
37.3228
36.409
35.5241
34.6625
33.8192
32.9898
32.1702
31.3569
30.5467
29.7372
28.9263
28.1123
27.2934
26.4697
25.6418
24.8101
23.9751
23.1376
22.2986
21.4591
20.6206
19.7842
18.9512
18.1231
17.3013
16.4872
15.6825
14.889
14.1084
13.3429
12.5948
11.8664
11.1602
10.4789
9.82494
9.20069
8.60836
8.04983
7.52657
7.03964
6.58959
6.17651
5.8
5.45923
5.15299
4.87975
4.63777
4.42516
4.24002
4.08047
3.94476
3.83122
178.592
315.529
309.422
315.637
329.421
345.729
361.451
374.666
384.285
389.87
391.502
389.651
385.024
378.432
370.667
362.44
354.355
346.901
340.46
335.335
331.77
329.99
330.052
331.989
335.802
341.461
348.902
358.016
368.7
380.846
394.343
409.076
424.925
441.768
459.483
477.944
497.023
516.591
536.517
556.668
576.91
597.107
617.126
636.833
656.097
674.79
692.788
709.973
726.234
741.466
755.573
768.467
780.069
790.311
799.132
806.481
812.316
816.604
819.317
820.431
819.927
817.852
814.263
809.21
802.749
794.939
785.841
775.519
764.042
751.483
737.919
723.433
708.111
692.043
675.325
658.051
640.319
622.223
603.852
585.282
566.568
547.734
528.762
509.576
490.031
469.901
448.872
426.561
402.564
376.564
348.502
318.782
288.361
258.575
230.727
205.683
183.731
164.712
148.272
134.048
121.742
111.117
101.977
94.1353
87.4123
81.6359
76.6482
72.3103
68.5046
65.1349
62.1238
59.4102
56.9462
54.6945
52.6256
50.7163
48.9478
47.305
45.7751
44.3475
43.0127
41.7625
40.5893
39.4862
38.4467
37.4644
36.5334
35.6479
34.8021
33.9906
33.208
32.4494
31.7097
30.9846
30.2697
29.5614
28.8562
28.1511
27.4437
26.731
26.0118
25.2865
24.5546
23.8161
23.0712
22.3204
21.5645
20.8045
20.0415
19.2767
18.5112
17.7464
16.9836
16.2242
15.4698
14.722
13.9826
13.2538
12.5377
11.8369
11.154
10.4917
9.85287
9.24009
8.65597
8.10275
7.58235
7.09623
6.64536
6.23019
5.85069
5.50629
5.19606
4.91864
4.67244
4.45567
4.26645
4.1029
3.96325
3.84575
170.636
282.981
273.429
279.564
294.412
312.796
331.688
349.155
363.935
375.28
382.875
386.779
387.345
385.127
380.802
375.059
368.637
362.231
356.314
351.278
347.435
345.018
344.166
344.956
347.418
351.547
357.302
364.616
373.409
383.592
395.07
407.742
421.503
436.247
451.863
468.24
485.263
502.815
520.78
539.035
557.461
575.934
594.33
612.527
630.403
647.836
664.709
680.91
696.33
710.866
724.422
736.908
748.246
758.36
767.189
774.678
780.778
785.453
788.669
790.4
790.623
789.397
786.759
782.751
777.42
770.818
763.003
754.036
743.982
732.914
720.907
708.04
694.397
680.064
665.129
649.679
633.799
617.567
601.045
584.277
567.276
550.009
532.387
514.244
495.323
475.271
453.639
429.929
403.682
374.661
343.083
309.815
276.335
244.344
215.23
189.71
167.841
149.274
133.53
120.168
108.828
99.2197
91.0926
84.2202
78.3946
73.4296
69.1632
65.46
62.2098
59.3254
56.7385
54.3967
52.2597
50.2965
48.4831
46.8008
45.2347
43.7728
42.4052
41.1238
39.9212
38.7913
37.7284
36.7271
35.7825
34.8899
34.0447
33.242
32.4775
31.7466
31.0446
30.3672
29.7098
29.0683
28.4386
27.8168
27.1993
26.5831
25.9643
25.34
24.7106
24.0746
23.431
22.7794
22.1194
21.4514
20.7757
20.0932
19.4047
18.7111
18.0136
17.3131
16.611
15.9085
15.2069
14.5078
13.8129
13.1242
12.4438
11.7743
11.1183
10.4786
9.85825
9.26019
8.68726
8.14209
7.62698
7.14383
6.69401
6.27838
5.89727
5.55047
5.23727
4.95659
4.70698
4.48678
4.29419
4.12734
3.98444
3.86373
792.669
299.772
245.019
245.786
260.116
279.385
300.316
321.038
340.247
356.993
370.619
380.789
387.449
390.686
391.026
389.074
385.506
380.994
376.132
371.434
367.325
364.139
362.117
361.42
362.147
364.342
368.011
373.126
379.635
387.473
396.563
406.819
418.15
430.461
443.653
457.625
472.275
487.496
503.184
519.228
535.519
551.945
568.396
584.757
600.918
616.766
632.194
647.094
661.364
674.905
687.625
699.436
710.258
720.019
728.652
736.102
742.321
747.266
750.905
753.212
754.172
753.839
752.231
749.378
745.316
740.088
733.745
726.343
717.941
708.607
698.41
687.425
675.729
663.399
650.513
637.144
623.358
609.207
594.721
579.899
564.695
549.001
532.63
515.299
496.614
476.072
453.095
427.108
397.719
364.965
329.584
293.084
257.442
224.505
195.453
170.644
149.825
132.462
117.99
105.926
95.8753
87.5097
80.5459
74.7334
69.8527
65.7168
62.1707
59.0903
56.3782
53.9597
51.7779
49.79
47.9639
46.275
44.7049
43.239
41.8661
40.5771
39.3647
38.2226
37.1457
36.1292
35.1691
34.2615
33.4029
32.5897
31.8187
31.0862
30.389
29.7234
29.0857
28.4724
27.8796
27.3036
26.7407
26.1874
25.6401
25.0954
24.5489
24.0002
23.4472
22.888
22.3212
21.746
21.1619
20.5686
19.9664
19.3556
18.7369
18.1109
17.4784
16.8404
16.1978
15.5517
14.9032
14.2537
13.6047
12.9579
12.3155
11.6797
11.0533
10.4391
9.84017
9.25963
8.7006
8.16601
7.65854
7.18046
6.73357
6.31914
5.93786
5.58987
5.27479
4.99176
4.73956
4.51666
4.32136
4.15186
4.00634
3.88304
174.306
213.777
207.5
214.395
229.602
249.322
271.364
294.23
316.763
337.981
356.746
372.524
384.952
393.888
399.478
402.074
402.181
400.39
397.312
393.53
389.569
385.878
382.815
380.65
379.578
379.722
381.152
383.894
387.938
393.252
399.782
407.461
416.215
425.96
436.608
448.069
460.247
473.048
486.374
500.124
514.2
528.498
542.916
557.353
571.703
585.866
599.741
613.227
626.229
638.654
650.413
661.421
671.603
680.884
689.202
696.5
702.728
707.845
711.817
714.617
716.255
716.761
716.141
714.414
711.607
707.755
702.898
697.085
690.37
682.811
674.472
665.416
655.711
645.423
634.613
623.335
611.627
599.507
586.959
573.921
560.27
545.8
530.204
513.061
493.827
471.866
446.52
417.273
384.009
347.31
308.628
270.085
233.879
201.62
174.007
150.953
131.929
116.291
103.446
92.9044
84.2607
77.1737
71.3487
66.5322
62.5108
59.1096
56.1897
53.6432
51.3882
49.3634
47.523
45.8335
44.2699
42.8136
41.4504
40.1695
38.9626