/*--------------------------------*- C++ -*----------------------------------*\
  =========                 |
  \\      /  F ield         | OpenFOAM: The Open Source CFD Toolbox
   \\    /   O peration     | Website:  https://openfoam.org
    \\  /    A nd           | Version:  12
     \\/     M anipulation  |
\*---------------------------------------------------------------------------*/
FoamFile
{
    format      ascii;
    class       volScalarField;
    location    "0.03";
    object      k;
}
// * * * * * * * * * * * * * * * * * * * * * * * * * * * * * * * * * * * * * //

dimensions      [0 2 -2 0 0 0 0];

internalField   nonuniform List<scalar> 
12225
(
0.353959
0.335144
0.31712
0.301164
0.288397
0.27929
0.273864
0.271848
0.272809
0.27625
0.281677
0.288637
0.296744
0.305687
0.315247
0.325275
0.335891
0.352193
0.437112
0.449513
0.438761
0.433933
0.440033
0.45547
0.477633
0.504101
0.532905
0.562576
0.592104
0.620856
0.64851
0.674987
0.700538
0.725426
0.751585
0.779301
0.395188
0.410914
0.410743
0.40594
0.402317
0.401407
0.403367
0.407952
0.414767
0.423383
0.433396
0.444464
0.456323
0.468797
0.481844
0.495533
0.510396
0.526742
0.379643
0.384851
0.386585
0.385805
0.384019
0.382193
0.380811
0.380099
0.380134
0.380912
0.382388
0.384506
0.387216
0.390487
0.394333
0.398819
0.404124
0.410396
0.374979
0.375907
0.37625
0.375736
0.374592
0.373117
0.371549
0.370054
0.368734
0.367648
0.366823
0.366272
0.366002
0.366022
0.366353
0.367035
0.368134
0.369691
0.373491
0.372556
0.371755
0.370796
0.369615
0.368255
0.366788
0.365283
0.363798
0.362377
0.361051
0.359841
0.358763
0.357834
0.357072
0.356498
0.35614
0.35601
0.373015
0.371296
0.369804
0.368398
0.366997
0.36557
0.364117
0.362651
0.361192
0.35976
0.358373
0.357046
0.355794
0.354629
0.353564
0.352616
0.351796
0.351112
0.372868
0.370839
0.368996
0.367292
0.36568
0.364128
0.362618
0.36114
0.359695
0.358285
0.356918
0.355599
0.354338
0.353142
0.352021
0.350984
0.350039
0.349194
0.372823
0.370682
0.368686
0.36682
0.365066
0.363404
0.361819
0.360298
0.358836
0.357427
0.356072
0.354772
0.35353
0.352349
0.351236
0.350195
0.349232
0.348356
0.372809
0.370631
0.368575
0.366635
0.364804
0.363071
0.361427
0.359862
0.35837
0.356947
0.355588
0.354292
0.35306
0.351893
0.350794
0.349766
0.34881
0.347937
0.372804
0.370614
0.368537
0.366568
0.364702
0.362932
0.361253
0.359657
0.358141
0.356699
0.355328
0.354028
0.352796
0.351633
0.35054
0.349518
0.348569
0.347702
0.372802
0.370607
0.368524
0.366546
0.364667
0.362883
0.361188
0.359578
0.358048
0.356594
0.355215
0.353908
0.352672
0.351507
0.350413
0.349391
0.348442
0.347574
0.372801
0.370604
0.368518
0.366537
0.364654
0.362864
0.361163
0.359545
0.358008
0.356548
0.355163
0.353852
0.352612
0.351444
0.350347
0.349322
0.348369
0.347497
0.3728
0.370602
0.368515
0.366532
0.364648
0.362857
0.361154
0.359534
0.357995
0.356534
0.355147
0.353833
0.352592
0.351421
0.350321
0.349292
0.348333
0.347454
0.372799
0.3706
0.368512
0.366529
0.364645
0.362855
0.361152
0.359534
0.357997
0.356536
0.355151
0.353838
0.352597
0.351427
0.350325
0.349292
0.348328
0.347441
0.372798
0.370598
0.36851
0.366527
0.364644
0.362855
0.361154
0.359539
0.358004
0.356547
0.355165
0.353856
0.352618
0.351448
0.350347
0.349312
0.348344
0.34745
0.372797
0.370596
0.368507
0.366525
0.364643
0.362855
0.361158
0.359545
0.358015
0.356562
0.355184
0.35388
0.352645
0.351479
0.350379
0.349344
0.348373
0.347474
0.372796
0.370594
0.368505
0.366523
0.364642
0.362857
0.361162
0.359554
0.358027
0.35658
0.355207
0.353908
0.352678
0.351515
0.350418
0.349384
0.348412
0.347509
0.372795
0.370592
0.368503
0.366522
0.364643
0.36286
0.361169
0.359565
0.358043
0.356601
0.355235
0.353941
0.352716
0.351558
0.350464
0.349432
0.348459
0.347555
0.372794
0.370591
0.368503
0.366523
0.364646
0.362866
0.361178
0.359579
0.358062
0.356625
0.355264
0.353975
0.352755
0.351602
0.350511
0.349481
0.348509
0.347605
0.372794
0.370591
0.368504
0.366526
0.364652
0.362875
0.361192
0.359597
0.358085
0.356653
0.355297
0.354013
0.352798
0.351648
0.350561
0.349534
0.348564
0.347661
0.372794
0.370592
0.368507
0.366533
0.364664
0.362894
0.361217
0.35963
0.358126
0.356703
0.355355
0.354078
0.35287
0.351727
0.350645
0.349622
0.348656
0.347754
0.372795
0.370598
0.368521
0.36656
0.364707
0.362955
0.3613
0.359734
0.35825
0.356845
0.355514
0.354251
0.353054
0.351919
0.350842
0.349821
0.348854
0.34795
0.372803
0.37063
0.368597
0.366691
0.3649
0.363212
0.361616
0.360101
0.358659
0.357285
0.355972
0.354719
0.353522
0.352379
0.351288
0.350248
0.349258
0.348327
0.372854
0.370817
0.368978
0.367281
0.365676
0.364134
0.362638
0.361179
0.359757
0.358373
0.35703
0.355731
0.354478
0.353275
0.352122
0.35102
0.349971
0.348985
0.373165
0.371767
0.370582
0.369388
0.368084
0.36666
0.365148
0.36359
0.362026
0.360484
0.358989
0.357556
0.356195
0.354911
0.353708
0.352584
0.351541
0.350583
0.374801
0.375839
0.376188
0.375421
0.373865
0.371918
0.369841
0.367789
0.365855
0.364092
0.362524
0.361158
0.359991
0.359015
0.358213
0.357573
0.357076
0.35671
0.382746
0.391754
0.392524
0.38898
0.384548
0.380523
0.377295
0.374944
0.373434
0.372685
0.372598
0.373073
0.374016
0.37534
0.376965
0.378827
0.380865
0.383017
0.407603
0.414727
0.405628
0.396104
0.390484
0.388941
0.390717
0.394972
0.400968
0.408115
0.415966
0.424191
0.432544
0.440848
0.44898
0.456857
0.464443
0.471673
0.36057
0.347594
0.335005
0.323004
0.312052
0.302422
0.294216
0.287424
0.281962
0.277706
0.274517
0.272254
0.270781
0.269973
0.269718
0.269918
0.270487
0.271348
0.281259
0.339497
0.390572
0.422001
0.439188
0.446393
0.446336
0.440827
0.431123
0.418081
0.402258
0.384325
0.367475
0.350943
0.334417
0.318038
0.302603
0.289971
0.283552
0.288237
0.308627
0.345512
0.393853
0.444803
0.488695
0.518388
0.531938
0.532904
0.542859
0.584277
0.639995
0.701634
0.764295
0.825069
0.882315
0.935192
0.983354
1.02675
1.06551
1.09986
1.13008
1.15647
1.17937
1.19908
1.21594
1.23025
1.2423
1.25237
1.26072
1.26759
1.27319
1.27772
1.28138
1.28433
1.28671
1.28868
1.29035
1.29184
1.29325
1.29468
1.29621
1.29791
1.29986
1.30213
1.30478
1.30777
1.31101
1.31452
1.31831
1.3224
1.32679
1.33148
1.33645
1.34169
1.34717
1.35286
1.35871
1.36466
1.37065
1.37659
1.38235
1.38779
1.39274
1.39696
1.40019
1.40209
1.40225
1.40022
1.39546
1.38739
1.37537
1.35879
1.33709
1.3098
1.27666
1.23765
1.19305
1.14344
1.08974
1.03322
0.975743
0.920905
0.876426
0.845583
0.817772
0.79131
0.766122
0.742295
0.719892
0.698935
0.679399
0.661234
0.644366
0.628708
0.614169
0.600653
0.588068
0.576325
0.565338
0.555028
0.545323
0.536154
0.52746
0.519186
0.511279
0.503696
0.496393
0.489335
0.482488
0.475823
0.469314
0.462938
0.456674
0.450505
0.444415
0.438388
0.432409
0.426453
0.420483
0.414456
0.408335
0.402111
0.395797
0.389417
0.383007
0.376605
0.370253
0.36399
0.357854
0.351881
0.346103
0.340548
0.335238
0.330194
0.325429
0.320952
0.316768
0.312878
0.309277
0.305957
0.302909
0.300119
0.297571
0.295247
0.293128
0.291191
0.289414
0.287772
0.286237
0.284778
0.283361
0.281942
0.28047
0.278877
0.277073
0.274925
0.27226
0.268705
0.26408
0.256138
0.475382
0.612825
0.69004
0.731557
0.748946
0.749947
0.739421
0.720951
0.697476
0.671351
0.644319
0.617661
0.591291
0.567054
0.547298
0.535648
0.537995
0.563574
0.624793
0.733172
0.890941
1.08347
1.28542
1.47594
1.63223
1.72813
1.77709
1.78815
1.77311
1.74503
1.71317
1.68371
1.66033
1.64514
1.63898
1.64168
1.65228
1.66932
1.6911
1.71583
1.74184
1.76768
1.79218
1.81445
1.83389
1.85018
1.86315
1.87283
1.87935
1.88291
1.88378
1.88226
1.87865
1.87328
1.86646
1.85852
1.84976
1.84051
1.83104
1.82165
1.81262
1.80422
1.7967
1.79031
1.78528
1.78179
1.77977
1.77934
1.78063
1.78374
1.7888
1.79586
1.80503
1.81635
1.82988
1.84567
1.86375
1.88413
1.90682
1.9318
1.95901
1.98833
2.0196
2.05256
2.08683
2.12188
2.15699
2.19123
2.2234
2.25206
2.27553
2.29195
2.2994
2.29608
2.28048
2.25163
2.20922
2.15374
2.08644
2.00925
1.92445
1.83429
1.74431
1.66188
1.58264
1.50673
1.43463
1.36667
1.303
1.2436
1.18834
1.13701
1.08938
1.04517
1.00411
0.965918
0.930347
0.89715
0.866103
0.836998
0.809648
0.783879
0.759535
0.736475
0.714569
0.693701
0.673763
0.65466
0.636302
0.61861
0.601511
0.584937
0.568828
0.55313
0.537792
0.522773
0.508037
0.493543
0.479231
0.465087
0.451164
0.437553
0.424275
0.41135
0.398795
0.386618
0.374824
0.363415
0.352391
0.341748
0.331484
0.321595
0.312079
0.302936
0.294166
0.285774
0.277768
0.270155
0.262946
0.256153
0.249785
0.243852
0.23836
0.233311
0.228704
0.224535
0.220796
0.217478
0.214569
0.21206
0.209944
0.208219
0.206897
0.206006
0.205603
0.205807
0.206811
0.209139
0.213168
0.223499
0.550559
0.688545
0.776806
0.831897
0.861457
0.871667
0.867148
0.852154
0.830833
0.807117
0.784661
0.767222
0.755608
0.751903
0.760094
0.787597
0.846361
0.951768
1.11584
1.33968
1.60857
1.87168
2.06788
2.18734
2.23133
2.21314
2.15631
2.08384
2.0143
1.96
1.92708
1.91744
1.9303
1.96329
2.01295
2.0752
2.14571
2.22029
2.29516
2.36725
2.43424
2.49459
2.54744
2.59247
2.62975
2.6596
2.6825
2.69899
2.70963
2.71498
2.71555
2.71185
2.70433
2.69343
2.67956
2.66309
2.64442
2.62389
2.60187
2.57869
2.5547
2.53021
2.50555
2.48104
2.45695
2.43369
2.41133
2.39004
2.37008
2.35172
2.33523
2.32085
2.30882
2.29936
2.29268
2.28897
2.2884
2.29115
2.29736
2.30715
2.32062
2.33782
2.35874
2.38326
2.41115
2.442
2.47516
2.5097
2.54435
2.57744
2.60697
2.63056
2.64569
2.64982
2.64069
2.6166
2.57667
2.52098
2.45059
2.36739
2.27377
2.17205
2.07201
1.9762
1.88332
1.79404
1.70906
1.62883
1.55358
1.4833
1.41785
1.35702
1.30051
1.248
1.19917
1.15369
1.11128
1.07164
1.0345
0.999627
0.966799
0.935813
0.906486
0.878653
0.852162
0.826877
0.802674
0.779439
0.757071
0.735473
0.714562
0.694258
0.67449
0.655194
0.636312
0.617789
0.599581
0.581644
0.56392
0.546353
0.528904
0.511532
0.49427
0.477176
0.460273
0.443584
0.427134
0.410945
0.395042
0.379446
0.364183
0.349276
0.334755
0.320648
0.306987
0.293806
0.281139
0.269021
0.257484
0.24656
0.236275
0.22665
0.217701
0.209434
0.201851
0.194945
0.1887
0.183097
0.17811
0.173708
0.169861
0.166537
0.163707
0.161351
0.159462
0.158062
0.157215
0.157151
0.158162
0.16183
0.59723
0.744964
0.865272
0.94252
0.984965
1.00129
0.998624
0.983455
0.962006
0.940328
0.924458
0.920983
0.930656
0.957472
1.00767
1.09142
1.22312
1.41846
1.66184
1.92039
2.15594
2.32743
2.41136
2.41305
2.35591
2.27056
2.18504
2.11874
2.08196
2.07782
2.10474
2.15856
2.23393
2.32519
2.4269
2.5341
2.64251
2.74863
2.84975
2.94391
3.02987
3.10696
3.17496
3.23396
3.28428
3.32634
3.36062
3.38763
3.40784
3.42172
3.4297
3.43219
3.42955
3.42214
3.41028
3.39429
3.37447
3.35112
3.32452
3.29495
3.26272
3.22809
3.19138
3.15289
3.11296
3.07195
3.03023
2.98798
2.94556
2.90333
2.86169
2.82102
2.78172
2.74418
2.70881
2.676
2.64613
2.6196
2.59677
2.57801
2.56366
2.55404
2.54939
2.54991
2.55563
2.56646
2.58203
2.60168
2.62435
2.64854
2.67223
2.69298
2.70796
2.71421
2.7089
2.68973
2.6552
2.60484
2.53927
2.46002
2.36923
2.27108
2.17505
2.08034
1.98781
1.89855
1.81336
1.73276
1.65699
1.58607
1.51989
1.45822
1.40078
1.34726
1.29735
1.25074
1.20712
1.16623
1.1278
1.0916
1.05741
1.02504
0.994302
0.965037
0.937099
0.91035
0.88467
0.859945
0.836073
0.81296
0.790521
0.768676
0.747355
0.726491
0.706026
0.685906
0.666083
0.646515
0.627157
0.607967
0.588907
0.569948
0.551075
0.532268
0.513559
0.494979
0.476548
0.458291
0.440235
0.42241
0.404847
0.387581
0.370651
0.354094
0.337955
0.322276
0.307103
0.292481
0.278455
0.265066
0.252353
0.240349
0.229079
0.218563
0.208813
0.199832
0.191613
0.184143
0.177402
0.171362
0.165994
0.161262
0.157131
0.153571
0.150554
0.148074
0.146143
0.144851
0.144295
0.144992
0.627413
0.829007
0.992923
1.08953
1.1403
1.15928
1.15655
1.14076
1.12029
1.10371
1.10044
1.1142
1.15008
1.21556
1.31603
1.45495
1.63383
1.84408
2.06096
2.25138
2.38489
2.4439
2.43174
2.37079
2.29152
2.22129
2.17814
2.17005
2.19744
2.25636
2.34093
2.4449
2.56243
2.68845
2.81862
2.94935
3.0777
3.20139
3.31869
3.42839
3.52972
3.62226
3.70585
3.78054
3.84649
3.90395
3.95321
3.99458
4.02837
4.0549
4.07445
4.08731
4.09377
4.09407
4.08848
4.07723
4.06056
4.03871
4.01191
3.9804
3.94441
3.90419
3.86001
3.81214
3.76088
3.70654
3.64936
3.58968
3.52784
3.46423
3.39927
3.33338
3.26704
3.20073
3.13496
3.07029
3.00728
2.94655
2.88869
2.83437
2.78423
2.73891
2.69904
2.6652
2.63785
2.61732
2.60373
2.59684
2.59604
2.60018
2.60755
2.61585
2.62224
2.62355
2.61661
2.59863
2.56757
2.52244
2.46335
2.39145
2.30887
2.22354
2.13747
2.05172
1.96764
1.88635
1.80865
1.73501
1.66564
1.60056
1.53964
1.48268
1.42942
1.3796
1.33292
1.28912
1.24795
1.20914
1.17249
1.13779
1.10485
1.0735
1.04359
1.01497
0.987521
0.961114
0.935646
0.911017
0.887134
0.863914
0.841279
0.819158
0.797486
0.776202
0.755252
0.734588
0.714164
0.693941
0.673882
0.653952
0.634122
0.614368
0.594674
0.57503
0.555431
0.535889
0.516435
0.49709
0.477884
0.458848
0.440017
0.421431
0.403132
0.385166
0.367581
0.350428
0.333758
0.317623
0.302076
0.287164
0.272934
0.259425
0.246673
0.234704
0.223536
0.213178
0.203633
0.194892
0.186938
0.179749
0.173294
0.167541
0.162451
0.157989
0.154119
0.150817
0.148072
0.145912
0.144357
0.143618
0.62518
0.949062
1.15007
1.26067
1.31858
1.34137
1.341
1.32781
1.31238
1.30565
1.31869
1.35178
1.41157
1.50206
1.62353
1.77182
1.93709
2.1023
2.24484
2.34345
2.38633
2.37649
2.33133
2.27567
2.23266
2.21758
2.23663
2.28906
2.37033
2.47452
2.59583
2.72915
2.8702
3.01541
3.1618
3.30694
3.44881
3.5858
3.71665
3.84043
3.95646
4.0643
4.16366
4.25441
4.3365
4.40997
4.47491
4.53144
4.57971
4.61988
4.65212
4.67662
4.69356
4.70313
4.70551
4.70089
4.68947
4.67144
4.64698
4.6163
4.57959
4.53707
4.48895
4.43546
4.37684
4.3133
4.2449
4.1721
4.09522
4.01463
3.93067
3.84376
3.75433
3.66288
3.56994
3.47611
3.38205
3.28848
3.1962
3.10606
3.01897
2.93589
2.85782
2.78575
2.7206
2.66322
2.61423
2.57397
2.54234
2.51873
2.50185
2.48976
2.47983
2.4689
2.45365
2.43103
2.3986
2.35503
2.29989
2.23414
2.16329
2.08975
2.01506
1.94077
1.86818
1.79825
1.7316
1.66853
1.60917
1.55345
1.50121
1.45223
1.40627
1.36309
1.32242
1.28404
1.24774
1.21331
1.18057
1.14936
1.11953
1.09095
1.0635
1.03705
1.01152
0.986804
0.962816
0.939475
0.916708
0.894445
0.872622
0.85118
0.830064
0.809224
0.788613
0.76819
0.747917
0.72776
0.707688
0.687676
0.667699
0.647739
0.627786
0.607833
0.587881
0.567934
0.548006
0.528127
0.508324
0.488629
0.469081
0.449721
0.430594
0.411751
0.393243
0.375127
0.357461
0.340301
0.323706
0.307733
0.292433
0.277854
0.264038
0.251019
0.238821
0.227461
0.216946
0.207271
0.198426
0.19039
0.183134
0.176626
0.170827
0.165697
0.161197
0.157292
0.153955
0.151182
0.148962
0.147383
0.630811
1.08961
1.31636
1.44132
1.50919
1.5395
1.5456
1.53938
1.53273
1.53744
1.55565
1.59464
1.65861
1.7474
1.85626
1.97607
2.09398
2.19507
2.26588
2.29923
2.29783
2.27416
2.24628
2.23165
2.24218
2.28274
2.35254
2.44763
2.563
2.69382
2.83588
2.98567
3.14026
3.29717
3.45432
3.60991
3.76241
3.91055
4.05325
4.18964
4.31903
4.44085
4.5547
4.66025
4.75727
4.84562
4.92521
4.99599
5.05797
5.11118
5.15569
5.19158
5.21895
5.23792
5.24863
5.25121
5.24581
5.23259
5.2117
5.18331
5.14759
5.10473
5.0549
4.99829
4.93514
4.86524
4.78897
4.70672
4.61878
4.52546
4.42707
4.32395
4.2165
4.10515
3.99043
3.87291
3.75325
3.63224
3.5107
3.38962
3.27005
3.15315
3.04015
2.93235
2.83106
2.73753
2.65288
2.57793
2.51313
2.45835
2.41282
2.37505
2.34287
2.31335
2.28322
2.24957
2.20971
2.16238
2.10656
2.04642
1.98294
1.91779
1.85257
1.78866
1.72707
1.66846
1.61316
1.56129
1.51277
1.46741
1.42497
1.38519
1.3478
1.31254
1.27918
1.24752
1.21736
1.18855
1.16095
1.13442
1.10886
1.08416
1.06024
1.037
1.01438
0.992309
0.970716
0.949543
0.928735
0.908238
0.888003
0.867983
0.848137
0.828424
0.808809
0.789257
0.76974
0.750231
0.730707
0.711147
0.691536
0.671862
0.652118
0.632303
0.612421
0.592481
0.572497
0.552492
0.532495
0.512539
0.492664
0.472912
0.453332
0.433976
0.4149
0.396164
0.37783
0.359962
0.342624
0.325878
0.309786
0.2944
0.279772
0.265942
0.252942
0.240795
0.229515
0.219102
0.20955
0.200841
0.19295
0.185844
0.179485
0.173831
0.16884
0.164471
0.160689
0.15747
0.154791
0.152684
0.69007
1.21863
1.47621
1.62094
1.70329
1.74465
1.75929
1.75962
1.75748
1.76053
1.77339
1.80343
1.85285
1.91901
1.99521
2.07209
2.13949
2.18891
2.21617
2.22345
2.21918
2.21558
2.22476
2.25532
2.31104
2.39149
2.49378
2.61409
2.74865
2.89412
3.04766
3.20686
3.36963
3.53416
3.69885
3.86226
4.02312
4.18029
4.33278
4.47972
4.62036
4.75405
4.88023
4.99846
5.10835
5.2096
5.30199
5.38532
5.45947
5.52437
5.57999
5.6263
5.66335
5.69118
5.70986
5.71949
5.72017
5.71202
5.69517
5.66975
5.6359
5.59379
5.54357
5.48538
5.41936
5.34527
5.26363
5.17478
5.07898
4.97649
4.86758
4.75257
4.6318
4.50567
4.37467
4.23934
4.10033
3.9584
3.81441
3.66934
3.52431
3.38053
3.23934
3.10216
2.9705
2.84584
2.72961
2.62303
2.52692
2.44151
2.36644
2.3007
2.24281
2.19035
2.14022
2.09025
2.03765
1.9821
1.92418
1.8642
1.80325
1.74271
1.68384
1.62762
1.57471
1.52543
1.47982
1.43774
1.39892
1.36302
1.32969
1.2986
1.26943
1.24192
1.21581
1.19092
1.16708
1.14414
1.12198
1.10051
1.07963
1.05927
1.03937
1.01985
1.00068
0.981787
0.963139
0.944686
0.926388
0.908205
0.8901
0.872039
0.853989
0.83592
0.817804
0.799617
0.781336
0.762943
0.74442
0.725753
0.706935
0.687957
0.668819
0.649524
0.63008
0.6105
0.590803
0.571009
0.551149
0.531256
0.51137
0.491536
0.471803
0.452225
0.432862
0.413776
0.395034
0.376705
0.358858
0.341563
0.324886
0.308891
0.293635
0.279167
0.265526
0.252745
0.240841
0.229823
0.219688
0.210423
0.202006
0.194405
0.187584
0.181499
0.176108
0.171365
0.167229
0.163669
0.160653
0.158186
0.733054
1.33151
1.62062
1.78755
1.88678
1.94073
1.96378
1.9679
1.96401
1.95613
1.95462
1.96541
1.9898
2.02493
2.06508
2.10357
2.13479
2.15604
2.16867
2.17796
2.19165
2.21758
2.26156
2.32633
2.41184
2.51616
2.6366
2.77036
2.91487
3.06786
3.22736
3.39162
3.55907
3.72825
3.89786
4.06665
4.23349
4.39734
4.55722
4.71226
4.86165
5.00466
5.14067
5.26909
5.38944
5.5013
5.6043
5.69817
5.78267
5.85762
5.92288
5.97838
6.02406
6.05991
6.08594
6.10219
6.10871
6.10559
6.09292
6.07081
6.03937
5.99874
5.94907
5.89052
5.82276
5.74621
5.66123
5.56811
5.46709
5.3584
5.24232
5.11912
4.98912
4.85272
4.71035
4.56254
4.40992
4.2532
4.09326
3.93105
3.76769
3.60436
3.44237
3.28313
3.12811
2.97884
2.83686
2.70367
2.5803
2.46715
2.36403
2.27021
2.18521
2.10766
2.03436
1.96469
1.89798
1.83249
1.76789
1.70448
1.64299
1.58429
1.52917
1.47817
1.43154
1.38925
1.35107
1.31663
1.28547
1.25714
1.23118
1.20721
1.18486
1.16386
1.14394
1.12492
1.10663
1.08893
1.07174
1.05495
1.03849
1.02231
1.00634
0.990545
0.974873
0.959288
0.94375
0.928225
0.91268
0.897083
0.881403
0.865612
0.849685
0.833596
0.817325
0.800851
0.784157
0.76723
0.750056
0.732629
0.714943
0.696996
0.678792
0.660338
0.641645
0.62273
0.603613
0.584318
0.564876
0.545323
0.525697
0.506045
0.486417
0.466868
0.447459
0.428256
0.409328
0.390748
0.372592
0.354935
0.337851
0.32141
0.305678
0.290713
0.276564
0.263268
0.250852
0.239331
0.228709
0.218977
0.210115
0.202096
0.194883
0.188436
0.182708
0.177654
0.173229
0.169396
0.16612
0.163391
0.759901
1.41834
1.73586
1.92464
2.04149
2.10895
2.14079
2.14815
2.13632
2.11692
2.099
2.0883
2.08683
2.09336
2.10473
2.11759
2.13002
2.1425
2.1579
2.18072
2.21565
2.2663
2.3345
2.42028
2.52245
2.63917
2.76841
2.90825
3.05693
3.21284
3.37453
3.54064
3.70991
3.88112
4.05312
4.22482
4.39516
4.56315
4.72784
4.88834
5.04382
5.1935
5.33668
5.47271
5.60102
5.72109
5.83247
5.93479
6.02771
6.11097
6.18436
6.24772
6.30091
6.34386
6.37652
6.39888
6.41093
6.41272
6.4043
6.38574
6.35713
6.31859
6.27023
6.21204
6.14403
6.0666
5.9801
5.88476
5.78084
5.66857
5.5482
5.42002
5.28434
5.14154
4.99202
4.8363
4.67497
4.5087
4.33833
4.16485
3.98931
3.81284
3.63663
3.46194
3.29012
3.1225
2.96042
2.80565
2.65951
2.52224
2.39367
2.27287
2.16037
2.05732
1.96148
1.87224
1.78896
1.71099
1.63793
1.5697
1.50644
1.44843
1.39585
1.34874
1.30691
1.27001
1.23752
1.20888
1.1835
1.16082
1.14035
1.12166
1.10437
1.08821
1.07293
1.05835
1.04431
1.03071
1.01745
1.00445
0.991637
0.978969
0.966394
0.953867
0.941347
0.928797
0.916181
0.903463
0.890611
0.877594
0.864382
0.850946
0.837261
0.823303
0.809051
0.794486
0.779592
0.764357
0.748771
0.732827
0.716524
0.699861
0.682846
0.665486
0.647797
0.629797
0.611508
0.592957
0.574175
0.555199
0.536068
0.516828
0.497531
0.47823
0.458989
0.439875
0.420959
0.402318
0.384031
0.36618
0.348845
0.332105
0.316033
0.300695
0.286149
0.272442
0.259609
0.247672
0.236641
0.226512
0.217272
0.208895
0.201348
0.194589
0.188575
0.183257
0.178591
0.174534
0.171048
0.168118
0.766811
1.46942
1.80888
2.01672
2.15056
2.23217
2.27402
2.28331
2.27002
2.2442
2.21443
2.18711
2.16595
2.15213
2.14528
2.14476
2.15072
2.16446
2.18825
2.22459
2.27545
2.34182
2.42364
2.52008
2.62983
2.75145
2.88349
3.02458
3.17345
3.32891
3.48981
3.65504
3.82354
3.99426
4.16615
4.33823
4.5095
4.67902
4.84586
5.00914
5.16801
5.32167
5.46937
5.61043
5.7442
5.87009
5.98761
6.09628
6.19571
6.28555
6.36552
6.43538
6.49495
6.54406
6.58263
6.61056
6.62781
6.63438
6.63026
6.61549
6.59012
6.55422
6.50791
6.45106
6.38404
6.3072
6.22081
6.12512
6.02037
5.90681
5.78469
5.65431
5.51597
5.37004
5.21693
5.05712
4.89114
4.7196
4.54324
4.36313
4.18038
3.99595
3.81084
3.62618
3.44307
3.26253
3.08514
2.9129
2.748
2.58993
2.43872
2.29446
2.15771
2.02921
1.90958
1.79953
1.69934
1.60884
1.52749
1.4547
1.38994
1.33277
1.28274
1.23931
1.20186
1.16968
1.14201
1.1181
1.09727
1.07889
1.06245
1.04753
1.03378
1.02094
1.0088
0.997218
0.986066
0.975253
0.964706
0.954366
0.944179
0.934101
0.924087
0.914095
0.904087
0.89402
0.883857
0.873559
0.863086
0.852403
0.841474
0.830265
0.818745
0.806886
0.794661
0.782048
0.769028
0.755584
0.741707
0.727387
0.712621
0.69741
0.681759
0.665677
0.64918
0.632288
0.615024
0.597416
0.579495
0.561297
0.542862
0.524234
0.505464
0.486607
0.467724
0.448883
0.430158
0.411627
0.393374
0.375483
0.358042
0.341136
0.324847
0.309249
0.294409
0.280384
0.267217
0.254939
0.243566
0.233103
0.22354
0.214855
0.207019
0.199992
0.19373
0.188187
0.183314
0.179069
0.175412
0.17232
0.752356
1.47803
1.8303
2.05257
2.20167
2.29786
2.35148
2.371
2.36478
2.34126
2.30859
2.27391
2.24258
2.21808
2.20238
2.19665
2.20195
2.21944
2.25029
2.29536
2.35498
2.42887
2.51628
2.61621
2.72751
2.84907
2.97979
3.11865
3.26467
3.4169
3.5744
3.73624
3.9015
4.06923
4.23852
4.40843
4.57804
4.74644
4.91276
5.07612
5.23569
5.39066
5.54027
5.68378
5.82053
5.9499
6.07131
6.18425
6.28826
6.38293
6.46792
6.54293
6.60769
6.662
6.7057
6.73865
6.76074
6.77191
6.77212
6.76134
6.73959
6.70689
6.66323
6.60882
6.54399
6.46906
6.38427
6.28989
6.18615
6.0733
5.95161
5.82138
5.68293
5.53661
5.38285
5.22208
5.0548
4.88151
4.70259
4.51932
4.33324
4.14488
3.95503
3.7646
3.57452
3.38564
3.19876
3.01486
2.83466
2.6584
2.48637
2.31919
2.15816
2.0053
1.86303
1.73355
1.61811
1.51678
1.42877
1.35288
1.28784
1.23249
1.1857
1.1464
1.11352
1.08601
1.06288
1.04324
1.02632
1.01148
0.998187
0.986062
0.974804
0.964199
0.954093
0.944379
0.934982
0.925848
0.916937
0.908215
0.899651
0.891214
0.882873
0.874593
0.866337
0.858064
0.849734
0.841302
0.832724
0.823957
0.814956
0.805678
0.796084
0.786136
0.775798
0.765041
0.753837
0.742164
0.730004
0.717344
0.704175
0.690495
0.676301
0.661606
0.646426
0.630778
0.614685
0.598172
0.581269
0.564012
0.546437
0.528588
0.510514
0.492268
0.473911
0.45551
0.437137
0.418873
0.400803
0.383016
0.365603
0.348657
0.332265
0.316512
0.301474
0.287216
0.273791
0.26124
0.249587
0.238842
0.229004
0.220054
0.211968
0.204707
0.19823
0.19249
0.18744
0.183035
0.179232
0.176006
0.716932
1.44216
1.7969
2.02774
2.18974
2.30218
2.37401
2.41162
2.42131
2.41002
2.38512
2.35386
2.32261
2.29642
2.27891
2.27251
2.27881
2.29882
2.33303
2.38143
2.44362
2.51884
2.60617
2.70463
2.81328
2.93122
3.05759
3.19145
3.33202
3.47853
3.63019
3.78621
3.94577
4.10804
4.27218
4.43734
4.60267
4.76731
4.93042
5.09118
5.24876
5.40237
5.55126
5.69468
5.83196
5.96243
6.0855
6.2006
6.30725
6.40497
6.49338
6.5721
6.64083
6.69931
6.74731
6.78464
6.81114
6.82669
6.83118
6.82454
6.80672
6.77766
6.73748
6.68643
6.62483
6.55299
6.47115
6.37954
6.27841
6.16802
6.04863
5.92056
5.78412
5.63968
5.48765
5.32847
5.16265
4.99071
4.81327
4.63119
4.44534
4.25644
4.06517
3.87224
3.67829
3.4839
3.28953
3.09555
2.90221
2.70972
2.51856
2.32998
2.14642
1.97153
1.8095
1.66388
1.53656
1.42759
1.33571
1.25901
1.19553
1.14337
1.10083
1.06633
1.0384
1.01571
0.997084
0.981511
0.968173
0.956423
0.945775
0.935879
0.926494
0.917464
0.908691
0.900124
0.891736
0.883517
0.875465
0.867578
0.859855
0.852286
0.844859
0.837552
0.830338
0.823183
0.816048
0.808889
0.80166
0.79431
0.786788
0.779044
0.771028
0.762692
0.75399
0.744882
0.73533
0.725301
0.714769
0.703711
0.69211
0.679949
0.667232
0.653969
0.640167
0.625841
0.611008
0.595693
0.579921
0.563724
0.547138
0.530202
0.512963
0.495471
0.477784
0.459966
0.44209
0.424235
0.406485
0.388934
0.371675
0.354805
0.33842
0.322612
0.307465
0.293055
0.279445
0.266683
0.254804
0.243827
0.233756
0.224579
0.216275
0.20881
0.202144
0.196232
0.191027
0.186482
0.182555
0.179216
0.663313
1.36454
1.71217
1.9479
2.12312
2.25382
2.34728
2.40813
2.44084
2.4506
2.44347
2.42596
2.40444
2.38458
2.37094
2.36687
2.37455
2.39521
2.42932
2.47674
2.53693
2.60901
2.69211
2.7854
2.88811
2.99962
3.11948
3.24596
3.3786
3.5169
3.66023
3.80791
3.95922
4.11345
4.26982
4.42756
4.58591
4.74407
4.90125
5.05667
5.20955
5.35913
5.50467
5.64544
5.78076
5.90996
6.03242
6.14757
6.25486
6.35381
6.44396
6.52492
6.59632
6.65784
6.70922
6.7502
6.78057
6.80017
6.80881
6.80636
6.7927
6.76777
6.73183
6.68513
6.62792
6.56044
6.48293
6.39561
6.29873
6.19255
6.07734
5.9534
5.82105
5.68065
5.5326
5.37733
5.21531
5.04707
4.87317
4.69424
4.51092
4.32378
4.13335
3.94008
3.74431
3.54623
3.34592
3.14329
2.93825
2.73092
2.52213
2.31402
2.11055
1.91727
1.74001
1.58322
1.44889
1.33664
1.2445
1.16987
1.11009
1.0627
1.02549
0.996448
0.973817
0.956047
0.941834
0.930118
0.920072
0.91108
0.902706
0.894659
0.886761
0.878915
0.871079
0.863251
0.855451
0.847708
0.840056
0.832526
0.825144
0.817926
0.810879
0.804001
0.79728
0.790694
0.784213
0.777798
0.771406
0.764986
0.758486
0.75185
0.745022
0.737944
0.730563
0.722827
0.714688
0.706102
0.69703
0.687439
0.677292
0.666578
0.655297
0.643445
0.631023
0.618039
0.604505
0.59044
0.575866
0.56081
0.545302
0.529379
0.513082
0.496457
0.479559
0.462449
0.445194
0.427873
0.410569
0.393374
0.376386
0.359704
0.34343
0.327661
0.312493
0.298008
0.28428
0.271368
0.259315
0.24815
0.237884
0.228513
0.22002
0.212376
0.205544
0.199479
0.194137
0.189469
0.185433
0.181995
0.714099
1.27593
1.60018
1.83354
2.01709
2.16371
2.27866
2.3648
2.42478
2.46191
2.48041
2.48533
2.48211
2.47606
2.47193
2.4736
2.48388
2.50455
2.53661
2.58042
2.63601
2.70187
2.77756
2.86251
2.95612
3.05784
3.16706
3.28298
3.40499
3.53255
3.6651
3.80203
3.94272
4.08651
4.23272
4.38065
4.52959
4.67883
4.82762
4.97525
5.12099
5.2641
5.40388
5.53963
5.67068
5.79636
5.91606
6.02919
6.13519
6.23354
6.32377
6.40544
6.47815
6.54154
6.59529
6.63912
6.67276
6.69598
6.70857
6.71032
6.701
6.68072
6.64969
6.6081
6.55616
6.49407
6.42204
6.34028
6.24903
6.14853
6.03904
5.92084
5.79426
5.65963
5.51733
5.36774
5.21132
5.0485
4.87976
4.70559
4.52642
4.34266
4.1546
3.96239
3.76604
3.56536
3.35997
3.14942
2.93336
2.71202
2.48689
2.26155
2.04193
1.83547
1.64918
1.48766
1.35229
1.24182
1.15348
1.084
1.03018
0.989109
0.958192
0.935145
0.917994
0.905077
0.895048
0.886859
0.879731
0.873117
0.866653
0.860121
0.853409
0.846477
0.839334
0.832021
0.824594
0.817113
0.809641
0.802233
0.794937
0.787791
0.780822
0.774047
0.767468
0.76108
0.754865
0.748795
0.742836
0.736942
0.731064
0.725147
0.719132
0.712961
0.706571
0.699905
0.692904
0.685516
0.677688
0.669367
0.660519
0.651134
0.641191
0.630677
0.619584
0.607913
0.595669
0.582863
0.569511
0.555634
0.541257
0.526412
0.511133
0.495462
0.479447
0.463144
0.446616
0.429937
0.413188
0.39646
0.379849
0.363458
0.347392
0.331755
0.316648
0.302164
0.288385
0.27538
0.263204
0.251894
0.241469
0.231934
0.223277
0.215476
0.208496
0.202296
0.19683
0.192053
0.18792
0.184396
0.66001
1.15517
1.46148
1.69009
1.87849
2.03798
2.17262
2.28403
2.37328
2.44184
2.49193
2.52662
2.54965
2.56512
2.57722
2.58988
2.60625
2.6286
2.65855
2.69708
2.74455
2.80079
2.8656
2.93869
3.01972
3.10829
3.20395
3.30617
3.41445
3.5283
3.64718
3.77056
3.89787
4.02853
4.16191
4.29739
4.43431
4.57203
4.70988
4.84717
4.98324
5.1174
5.24898
5.37733
5.50178
5.6217
5.73649
5.84554
5.94831
6.04426
6.1329
6.21376
6.28643
6.3505
6.40562
6.45146
6.48773
6.51415
6.53046
6.53639
6.53169
6.51654
6.49106
6.45538
6.40963
6.35399
6.28861
6.21369
6.12942
6.03603
5.93376
5.82287
5.70364
5.57638
5.44142
5.29912
5.14983
4.99393
4.83177
4.66367
4.4899
4.31063
4.12586
3.93545
3.739
3.53591
3.3254
3.10672
2.87953
2.64458
2.4047
2.16553
1.93521
1.72269
1.53519
1.37641
1.24649
1.14306
1.06255
1.00119
0.95541
0.921993
0.898115
0.881337
0.869606
0.861258
0.854995
0.849856
0.845163
0.84047
0.835509
0.830144
0.824327
0.818075
0.811439
0.804493
0.79732
0.790002
0.782618
0.775242
0.767935
0.76075
0.753729
0.746901
0.740285
0.733889
0.727709
0.72173
0.715928
0.71027
0.704714
0.699211
0.693705
0.688139
0.68245
0.676575
0.670454
0.664023
0.657214
0.649966
0.642264
0.634068
0.625348
0.616078
0.606243
0.595833
0.584846
0.573283
0.561156
0.548476
0.535262
0.52154
0.507335
0.492685
0.47763
0.462218
0.446508
0.430568
0.414473
0.398312
0.382178
0.366175
0.35041
0.334992
0.320026
0.305615
0.291849
0.278808
0.266556
0.25514
0.24459
0.234918
0.226121
0.218181
0.211068
0.204745
0.199167
0.19429
0.190069
0.186465
0.608915
1.02381
1.31836
1.54062
1.72939
1.89644
2.04557
2.17774
2.29298
2.39126
2.47294
2.53922
2.59213
2.63341
2.66648
2.69464
2.72091
2.74787
2.77767
2.81193
2.85177
2.89789
2.95071
3.01045
3.07713
3.15066
3.23082
3.31731
3.40978
3.50781
3.61096
3.71876
3.8307
3.94625
4.06484
4.18592
4.30888
4.43312
4.55804
4.683
4.80739
4.93057
5.05192
5.17082
5.28664
5.39878
5.50665
5.60968
5.70731
5.79902
5.88431
5.9627
6.03375
6.09705
6.15222
6.1989
6.23677
6.26552
6.28485
6.29448
6.29417
6.28409
6.26427
6.23474
6.19559
6.1469
6.08881
6.02145
5.94499
5.8596
5.76549
5.66289
5.55203
5.43318
5.3066
5.17257
5.03138
4.88326
4.72845