/*--------------------------------*- C++ -*----------------------------------*\
  =========                 |
  \\      /  F ield         | OpenFOAM: The Open Source CFD Toolbox
   \\    /   O peration     | Website:  https://openfoam.org
    \\  /    A nd           | Version:  12
     \\/     M anipulation  |
\*---------------------------------------------------------------------------*/
FoamFile
{
    format      ascii;
    class       volScalarField;
    location    "0.03";
    object      nut;
}
// * * * * * * * * * * * * * * * * * * * * * * * * * * * * * * * * * * * * * //

dimensions      [0 2 -1 0 0 0 0];

internalField   nonuniform List<scalar> 
12225
(
4.04811e-05
3.83293e-05
3.62679e-05
3.44431e-05
3.29828e-05
3.19411e-05
3.13201e-05
3.1089e-05
3.1198e-05
3.15905e-05
3.22096e-05
3.30036e-05
3.39283e-05
3.4948e-05
3.60374e-05
3.71791e-05
3.83831e-05
4.02529e-05
0.000280949
0.000209195
0.000176166
0.0001573
0.000146096
0.000139491
0.000135586
0.000133223
0.000131716
0.000130674
0.000129884
0.00012923
0.000128657
0.000128139
0.000127678
0.000127253
0.00012696
0.000126573
0.000555755
0.000419422
0.00034919
0.000303961
0.000271479
0.000246785
0.000227308
0.000211558
0.000198631
0.000187923
0.000178997
0.000171516
0.000165208
0.000159848
0.000155254
0.000151238
0.000147682
0.000144229
0.000740156
0.000625408
0.000543421
0.000484
0.000438414
0.000401872
0.000371572
0.000345772
0.000323384
0.000303713
0.000286286
0.000270756
0.000256847
0.000244321
0.000232961
0.000222522
0.000212785
0.000203426
0.000817009
0.000758899
0.000700015
0.00064768
0.000602554
0.000563714
0.000529985
0.000500303
0.00047383
0.000449945
0.00042819
0.000408214
0.000389738
0.000372522
0.000356346
0.00034096
0.000326118
0.000311637
0.000842081
0.000819571
0.000789608
0.000756987
0.000724532
0.000693635
0.00066482
0.000638137
0.000613427
0.000590472
0.000569049
0.000548946
0.000529967
0.000511923
0.000494628
0.000477871
0.000461438
0.000445313
0.000849256
0.000841759
0.000829581
0.000813834
0.00079584
0.000776729
0.000757316
0.000738101
0.000719362
0.000701228
0.00068374
0.000666882
0.000650602
0.000634822
0.000619442
0.000604335
0.000589367
0.000574654
0.000851121
0.00084873
0.000844407
0.000838058
0.000829896
0.000820295
0.000809657
0.000798338
0.000786616
0.000774694
0.000762711
0.000750756
0.000738873
0.000727074
0.000715341
0.000703631
0.000691893
0.0006803
0.000851563
0.000850661
0.000849139
0.000846803
0.000843567
0.000839445
0.00083452
0.00082891
0.000822741
0.000816127
0.000809172
0.000801954
0.000794533
0.00078695
0.000779223
0.000771356
0.000763347
0.000755361
0.000851656
0.000851135
0.000850457
0.000849526
0.000848263
0.000846617
0.000844566
0.000842115
0.000839286
0.000836111
0.000832626
0.000828869
0.000824873
0.000820663
0.000816261
0.000811678
0.000806926
0.000802127
0.000851672
0.000851235
0.000850776
0.000850261
0.000849657
0.00084893
0.000848054
0.000847012
0.000845793
0.000844397
0.000842826
0.000841088
0.00083919
0.000837143
0.000834954
0.000832632
0.000830184
0.000827683
0.000851674
0.000851251
0.000850837
0.000850422
0.000849992
0.000849533
0.000849031
0.000848473
0.00084785
0.000847154
0.000846383
0.000845533
0.000844607
0.000843605
0.00084253
0.000841383
0.000840171
0.000838934
0.000851673
0.000851251
0.000850848
0.000850459
0.000850079
0.000849703
0.000849327
0.000848945
0.000848551
0.000848142
0.000847715
0.000847269
0.000846803
0.000846317
0.000845812
0.000845288
0.000844749
0.000844215
0.000851671
0.000851249
0.000850847
0.000850463
0.000850096
0.000849743
0.000849404
0.000849077
0.00084876
0.000848453
0.000848155
0.000847867
0.00084759
0.000847325
0.000847072
0.000846833
0.000846611
0.000846418
0.00085167
0.000851247
0.000850844
0.000850461
0.000850097
0.00084975
0.00084942
0.000849107
0.00084881
0.000848531
0.00084827
0.000848029
0.00084781
0.000847613
0.000847441
0.000847296
0.00084718
0.000847103
0.000851669
0.000851244
0.000850841
0.000850459
0.000850096
0.000849751
0.000849425
0.000849117
0.000848827
0.000848557
0.000848307
0.000848078
0.000847873
0.000847693
0.000847539
0.000847413
0.000847319
0.000847264
0.000851667
0.000851242
0.000850839
0.000850456
0.000850095
0.000849753
0.00084943
0.000849126
0.000848841
0.000848577
0.000848333
0.00084811
0.000847911
0.000847735
0.000847585
0.00084746
0.000847365
0.000847307
0.000851666
0.00085124
0.000850836
0.000850454
0.000850094
0.000849754
0.000849435
0.000849136
0.000848857
0.000848598
0.00084836
0.000848143
0.000847949
0.000847777
0.000847628
0.000847504
0.000847405
0.00084734
0.000851665
0.000851237
0.000850833
0.000850452
0.000850094
0.000849757
0.000849442
0.000849148
0.000848875
0.000848623
0.000848391
0.000848181
0.000847992
0.000847824
0.000847678
0.000847554
0.000847453
0.000847383
0.000851664
0.000851236
0.000850832
0.000850453
0.000850097
0.000849764
0.000849453
0.000849164
0.000848897
0.00084865
0.000848424
0.000848219
0.000848034
0.00084787
0.000847725
0.0008476
0.000847497
0.000847423
0.000851664
0.000851236
0.000850834
0.000850456
0.000850103
0.000849773
0.000849465
0.000849179
0.000848912
0.000848665
0.000848438
0.000848228
0.000848037
0.000847862
0.000847705
0.000847565
0.000847442
0.000847346
0.000851664
0.000851237
0.000850835
0.000850457
0.000850099
0.000849758
0.000849432
0.000849116
0.00084881
0.000848511
0.000848217
0.000847928
0.000847643
0.000847362
0.000847086
0.000846814
0.00084655
0.000846304
0.000851663
0.000851227
0.000850801
0.000850368
0.000849912
0.00084942
0.000848881
0.000848289
0.000847643
0.000846943
0.000846191
0.000845393
0.000844555
0.000843683
0.000842786
0.00084187
0.000840944
0.000840029
0.000851633
0.000851075
0.000850358
0.000849404
0.000848165
0.00084662
0.000844777
0.000842664
0.000840316
0.000837779
0.000835099
0.000832318
0.000829475
0.000826598
0.000823706
0.000820825
0.000817979
0.000815207
0.000851286
0.000849604
0.000846763
0.000842687
0.000837478
0.000831347
0.000824543
0.000817299
0.000809812
0.00080224
0.000794704
0.000787291
0.000780067
0.00077308
0.000766365
0.000759937
0.000753804
0.00074799
0.000848319
0.000839456
0.000826275
0.000810279
0.000792833
0.000774979
0.000757413
0.000740534
0.000724541
0.00070951
0.00069545
0.000682332
0.000670107
0.000658718
0.000648104
0.000638209
0.000628979
0.000620421
0.000828551
0.000788921
0.00074626
0.000706145
0.000670185
0.000638564
0.000610901
0.000586637
0.00056523
0.000546222
0.000529242
0.000513986
0.000500211
0.000487716
0.000476338
0.000465942
0.000456417
0.000447706
0.000730721
0.0006275
0.000554873
0.000501653
0.000461148
0.000429441
0.000404015
0.000383162
0.000365736
0.000350958
0.000338279
0.000327297
0.000317708
0.000309282
0.000301834
0.000295216
0.000289309
0.000284024
0.000439306
0.000338686
0.000288245
0.000257238
0.000236772
0.000222943
0.000213435
0.000206751
0.000201932
0.000198365
0.00019565
0.000193526
0.000191814
0.000190396
0.00018919
0.00018814
0.000187206
0.000186343
7.16464e-05
6.9068e-05
6.65666e-05
6.41819e-05
6.20058e-05
6.00922e-05
5.84619e-05
5.71125e-05
5.60274e-05
5.51821e-05
5.45489e-05
5.40996e-05
5.38075e-05
5.36476e-05
5.35977e-05
5.36382e-05
5.37521e-05
5.3924e-05
8.80457e-05
7.35545e-05
7.89486e-05
8.20873e-05
8.37516e-05
8.44397e-05
8.44357e-05
8.39125e-05
8.29815e-05
8.17128e-05
8.0144e-05
7.82928e-05
7.65096e-05
7.47128e-05
7.28595e-05
7.09488e-05
6.9048e-05
6.73497e-05
6.62524e-05
6.6375e-05
6.83094e-05
7.21089e-05
7.70633e-05
8.21421e-05
8.64809e-05
8.94686e-05
9.10074e-05
9.12921e-05
9.1505e-05
9.44741e-05
9.86871e-05
0.000103284
0.000107825
0.000112092
0.000115988
0.000119483
0.000122583
0.00012531
0.000127692
0.000129759
0.000131542
0.00013307
0.00013437
0.000135467
0.000136385
0.000137144
0.000137765
0.000138265
0.00013866
0.000138966
0.000139196
0.000139361
0.000139472
0.00013954
0.000139572
0.000139577
0.000139562
0.000139534
0.000139497
0.000139457
0.000139419
0.000139387
0.000139365
0.000139356
0.000139364
0.000139407
0.000139459
0.000139524
0.000139603
0.000139695
0.000139802
0.000139924
0.000140059
0.000140208
0.000140368
0.00014054
0.00014072
0.000140907
0.000141098
0.000141289
0.000141476
0.000141654
0.000141815
0.000141953
0.000142056
0.000142111
0.000142104
0.000142015
0.000141821
0.000141497
0.000141012
0.000140331
0.000139419
0.000138239
0.000136757
0.000134947
0.000132789
0.000130278
0.000127421
0.000124233
0.000120719
0.000116844
0.000112764
0.000110358
0.000108348
0.000106413
0.000104529
0.000102705
0.000100952
9.92784e-05
9.76892e-05
9.61858e-05
9.47676e-05
9.3432e-05
9.21753e-05
9.09927e-05
8.98793e-05
8.88295e-05
8.7838e-05
8.68996e-05
8.60091e-05
8.51616e-05
8.43527e-05
8.35779e-05
8.28334e-05
8.21154e-05
8.14205e-05
8.07458e-05
8.00883e-05
7.94455e-05
7.88151e-05
7.81949e-05
7.75832e-05
7.69783e-05
7.63786e-05
7.57827e-05
7.51897e-05
7.45992e-05
7.40076e-05
7.34121e-05
7.28066e-05
7.21881e-05
7.15555e-05
7.09093e-05
7.02512e-05
6.95838e-05
6.89104e-05
6.82342e-05
6.75588e-05
6.68879e-05
6.6225e-05
6.55733e-05
6.49362e-05
6.43165e-05
6.37167e-05
6.3139e-05
6.25851e-05
6.20564e-05
6.15536e-05
6.10771e-05
6.06268e-05
6.02022e-05
5.98024e-05
5.94262e-05
5.9072e-05
5.87378e-05
5.84216e-05
5.81209e-05
5.7833e-05
5.75547e-05
5.72822e-05
5.70113e-05
5.67364e-05
5.64506e-05
5.61446e-05
5.58046e-05
5.54126e-05
5.49302e-05
5.43376e-05
5.33993e-05
0.000149268
0.000226288
0.00027922
0.000318479
0.000346934
0.00036619
0.000377482
0.000382037
0.000381121
0.000375921
0.000367375
0.000355696
0.000337142
0.00031604
0.000296063
0.000280576
0.000272864
0.000276126
0.000292639
0.000321764
0.000358688
0.000395581
0.00042388
0.000437436
0.000436464
0.00042964
0.000421193
0.00041339
0.00040719
0.000403523
0.000403047
0.000406019
0.000412557
0.00042272
0.000436451
0.000453514
0.000473474
0.00049572
0.000519512
0.000544048
0.000568541
0.000592278
0.00061467
0.000635268
0.000653772
0.000670013
0.000683933
0.000695561
0.000704987
0.000712344
0.000717793
0.000721505
0.000723661
0.000724439
0.000724016
0.000722562
0.000720243
0.000717213
0.00071362
0.000709602
0.000705285
0.000700783
0.000696201
0.00069164
0.000687194
0.000683146
0.000679723
0.000677004
0.000675061
0.000673959
0.000673756
0.000674504
0.000676248
0.00067903
0.000682884
0.000687844
0.000693935
0.000701182
0.000709598
0.000719194
0.000729966
0.000741897
0.000754951
0.000769063
0.000784137
0.000800029
0.000816545
0.000833425
0.000850342
0.000866891
0.000882598
0.000896932
0.000909331
0.000919231
0.00092612
0.000929569
0.000929277
0.000925077
0.000916914
0.000904767
0.000888471
0.000867428
0.000841752
0.000815428
0.00078891
0.000762533
0.00073661
0.000711384
0.000687023
0.000663631
0.000641262
0.000619933
0.000599631
0.000580324
0.000561971
0.00054452
0.000527917
0.000512107
0.000497035
0.00048265
0.0004689
0.00045574
0.000443124
0.000431011
0.000419362
0.000408141
0.000397312
0.000386844
0.000376704
0.000366863
0.000357291
0.000347962
0.000338847
0.00032992
0.000321154
0.000312524
0.000304003
0.000295544
0.000286828
0.000277701
0.000268381
0.000259124
0.000249998
0.000241055
0.000232321
0.000223809
0.000215519
0.000207451
0.000199603
0.000191972
0.00018456
0.000177372
0.000170414
0.000163696
0.000157233
0.000151038
0.000145128
0.00013952
0.000134229
0.000129267
0.000124643
0.000120364
0.00011643
0.000112837
0.000109577
0.000106635
0.000103995
0.000101637
9.95385e-05
9.76747e-05
9.60195e-05
9.4546e-05
9.32259e-05
9.20295e-05
9.09247e-05
8.98795e-05
8.88439e-05
8.78444e-05
8.65968e-05
8.64674e-05
0.00017308
0.000263021
0.00033885
0.000403521
0.000455719
0.000495231
0.000522841
0.000540109
0.000548992
0.000551479
0.000549256
0.00054331
0.000531163
0.000514122
0.000495068
0.000478363
0.000469244
0.00047268
0.000491372
0.000522597
0.000558511
0.000589792
0.000608701
0.000613821
0.000608675
0.000599255
0.000591008
0.000588128
0.000593468
0.000608865
0.000635305
0.000673005
0.000721486
0.000779566
0.000845391
0.00091658
0.000990496
0.00106454
0.00113641
0.00120427
0.00126681
0.00132324
0.00137317
0.00141655
0.00145357
0.00148452
0.00150982
0.00152989
0.00154516
0.00155604
0.00156292
0.00156616
0.00156611
0.00156306
0.00155732
0.00154917
0.00153888
0.00152671
0.00151291
0.00149773
0.00148142
0.00146424
0.00144642
0.00142822
0.00140987
0.00139178
0.00137418
0.00135718
0.00134094
0.00132565
0.00131145
0.00129851
0.00128696
0.00127691
0.00126848
0.00126174
0.00125679
0.00125367
0.00125244
0.00125312
0.00125571
0.00126022
0.00126658
0.00127475
0.00128458
0.00129593
0.00130854
0.00132212
0.00133625
0.00135044
0.00136412
0.00137663
0.00138727
0.00139535
0.00140022
0.00140135
0.00139834
0.00139097
0.00137918
0.001363
0.00134254
0.00131778
0.00129001
0.00126117
0.00123179
0.00120231
0.0011731
0.00114446
0.00111659
0.00108962
0.00106363
0.00103864
0.00101464
0.00099161
0.000969497
0.000948249
0.000927808
0.000908116
0.000889112
0.000870743
0.000852954
0.000835695
0.000818921
0.000802589
0.000786659
0.000771092
0.000755855
0.000740913
0.000726235
0.000711789
0.000697545
0.000683472
0.000669539
0.000655715
0.000641968
0.000628262
0.000614558
0.000600804
0.000586869
0.000572616
0.000557933
0.000542609
0.000526778
0.000510635
0.000494233
0.000477623
0.000460853
0.000443968
0.000427011
0.000410026
0.000393064
0.000376177
0.000359428
0.000342882
0.00032661
0.000310691
0.000295201
0.00028022
0.000265824
0.000252084
0.000239062
0.00022681
0.000215367
0.000204756
0.000194989
0.000186057
0.000177942
0.000170608
0.00016401
0.00015809
0.000152781
0.000148005
0.000143674
0.00013969
0.000135932
0.000132259
0.000128459
0.000124332
0.00011921
0.000113318
0.000187508
0.000281263
0.000384547
0.000475236
0.000546672
0.000598648
0.000633486
0.000654475
0.000665048
0.00066821
0.000665922
0.000658332
0.000644628
0.000626959
0.000609202
0.000596542
0.000594373
0.000606369
0.000633362
0.000667196
0.000698441
0.000720056
0.000729393
0.00072896
0.000724948
0.000724788
0.000734887
0.000759702
0.000801594
0.000861064
0.000936991
0.00102688
0.00112725
0.00123411
0.00134353
0.001452
0.00155667
0.00165544
0.00174692
0.00183025
0.00190507
0.00197135
0.00202931
0.00207929
0.00212175
0.00215718
0.00218607
0.0022089
0.00222613
0.00223817
0.00224542
0.00224822
0.00224693
0.00224183
0.00223322
0.00222138
0.00220657
0.00218904
0.00216905
0.00214683
0.00212262
0.00209668
0.00206923
0.00204053
0.00201081
0.00198033
0.00194945
0.0019183
0.00188711
0.0018561
0.00182549
0.00179552
0.0017664
0.00173833
0.00171153
0.00168619
0.00166247
0.00164055
0.00162056
0.00160265
0.00158692
0.00157347
0.00156236
0.00155363
0.00154726
0.00154322
0.00154136
0.00154149
0.00154333
0.00154647
0.00155043
0.0015546
0.00155836
0.00156102
0.00156194
0.00156057
0.00155647
0.00154932
0.00153898
0.00152537
0.00150847
0.00148834
0.00146635
0.00144346
0.00142009
0.00139662
0.00137335
0.00135051
0.00132826
0.00130668
0.00128583
0.0012657
0.00124627
0.00122752
0.00120938
0.00119181
0.00117475
0.00115814
0.00114193
0.00112607
0.00111051
0.00109522
0.00108015
0.00106527
0.00105053
0.00103592
0.00102141
0.00100696
0.000992543
0.000978144
0.000963732
0.000949283
0.000934768
0.00092016
0.000905429
0.000890544
0.000875467
0.000860155
0.000844544
0.000828556
0.000812107
0.000795108
0.000777493
0.000759128
0.000740129
0.000720576
0.000700505
0.000679955
0.000658974
0.000637612
0.000615927
0.000593988
0.000571867
0.00054965
0.000527429
0.000505307
0.000483391
0.000461796
0.000440637
0.000420033
0.000400094
0.000380928
0.000362629
0.000345279
0.00032894
0.000313658
0.000299457
0.000286339
0.000274284
0.00026325
0.000253175
0.000243972
0.000235533
0.000227721
0.000220362
0.000213234
0.000206006
0.000198269
0.000189048
0.000177758
0.000196315
0.000288874
0.000431713
0.000551281
0.000638962
0.000697895
0.000733673
0.000751946
0.000757689
0.000754778
0.000745348
0.000730051
0.000711863
0.000694143
0.000682881
0.00068246
0.000694286
0.000716903
0.00074554
0.000773364
0.000794842
0.000807901
0.000814761
0.00082132
0.000835305
0.000863915
0.000912053
0.000981636
0.00107173
0.00117917
0.00129949
0.00142776
0.00155931
0.0016902
0.00181738
0.00193863
0.00205246
0.00215795
0.00225462
0.0023423
0.00242105
0.00249111
0.0025528
0.00260651
0.00265268
0.00269172
0.00272407
0.00275013
0.00277028
0.00278487
0.00279424
0.00279867
0.00279847
0.00279388
0.00278517
0.00277255
0.00275627
0.00273652
0.00271354
0.00268752
0.00265866
0.00262717
0.00259326
0.00255712
0.00251898
0.00247904
0.0024375
0.0023946
0.00235056
0.00230561
0.00225998
0.00221393
0.0021677
0.00212154
0.00207572
0.0020305
0.00198614
0.00194293
0.00190112
0.00186099
0.00182281
0.00178684
0.00175332
0.00172247
0.0016945
0.00166955
0.00164772
0.001629
0.00161332
0.00160045
0.00159008
0.00158177
0.00157498
0.00156913
0.00156364
0.00155799
0.0015517
0.00154444
0.00153591
0.00152588
0.00151409
0.00150068
0.00148659
0.00147218
0.00145772
0.00144339
0.00142936
0.00141572
0.00140252
0.00138979
0.0013775
0.00136561
0.00135407
0.00134283
0.00133183
0.00132102
0.00131034
0.00129975
0.00128919
0.00127864
0.00126804
0.00125739
0.00124663
0.00123575
0.00122473
0.00121353
0.00120215
0.00119056
0.00117874
0.00116667
0.00115433
0.0011417
0.00112876
0.00111548
0.00110185
0.00108782
0.00107338
0.00105848
0.00104309
0.00102714
0.00101059
0.000993385
0.000975469
0.000956786
0.000937275
0.000916931
0.000895828
0.000873995
0.000851473
0.000828312
0.000804571
0.000780323
0.000755649
0.000730643
0.000705411
0.000680068
0.000654739
0.000629559
0.000604666
0.000580199
0.000556298
0.000533096
0.000510719
0.000489275
0.000468861
0.00044955
0.000431396
0.000414426
0.000398644
0.000384028
0.000370529
0.000358071
0.000346545
0.000335809
0.000325674
0.000315891
0.000306095
0.000295793
0.000284003
0.000269912
0.0001973
0.000286357
0.000482542
0.00063068
0.000730394
0.000791797
0.000824507
0.00083637
0.000833495
0.000820905
0.00080257
0.000783017
0.000766623
0.000757004
0.000756615
0.000765919
0.000783317
0.000805551
0.000828532
0.000848797
0.000865279
0.000880298
0.000899291
0.000929366
0.000977181
0.001047
0.00113965
0.00125274
0.00138166
0.00152099
0.00166549
0.00181079
0.00195353
0.0020913
0.0022225
0.00234609
0.00246148
0.00256836
0.00266663
0.00275634
0.00283764
0.00291077
0.00297601
0.00303366
0.00308404
0.00312748
0.00316428
0.00319476
0.0032192
0.00323785
0.00325098
0.00325882
0.00326159
0.0032595
0.00325274
0.0032415
0.00322596
0.0032063
0.00318268
0.00315527
0.00312424
0.00308976
0.00305198
0.00301108
0.00296723
0.00292057
0.00287116
0.00281929
0.00276518
0.00270902
0.00265105
0.00259147
0.00253053
0.00246847
0.00240556
0.00234211
0.0022784
0.00221479
0.00215163
0.00208929
0.00202819
0.00196875
0.00191139
0.00185658
0.00180474
0.00175628
0.00171157
0.00167087
0.00163435
0.00160205
0.00157388
0.00154958
0.0015288
0.00151109
0.00149594
0.00148294
0.00147165
0.00146173
0.00145278
0.00144444
0.00143626
0.00142854
0.00142145
0.00141505
0.00140936
0.00140437
0.00140002
0.00139625
0.00139294
0.00139
0.00138731
0.00138477
0.00138226
0.00137971
0.00137703
0.00137416
0.00137105
0.00136765
0.00136391
0.00135982
0.00135535
0.00135047
0.00134518
0.00133944
0.00133326
0.00132662
0.0013195
0.0013119
0.00130379
0.00129517
0.00128603
0.00127634
0.00126609
0.00125526
0.00124382
0.00123176
0.00121904
0.00120564
0.00119151
0.00117664
0.00116096
0.00114445
0.00112707
0.00110878
0.00108955
0.00106935
0.00104817
0.00102606
0.00100305
0.000979191
0.000954543
0.000929179
0.000903189
0.000876676
0.000849756
0.000822562
0.000795234
0.000767928
0.000740801
0.000714019
0.000687743
0.000662132
0.000637334
0.000613482
0.000590692
0.000569058
0.000548649
0.000529507
0.000511646
0.000495054
0.000479686
0.00046547
0.000452303
0.000440044
0.00042851
0.000417463
0.000406564
0.000395359
0.000383046
0.000368953
4.6628e-05
0.000301566
0.000544274
0.000710709
0.000816342
0.000877153
0.000905447
0.000910757
0.000900857
0.000882603
0.0008615
0.000842623
0.000829809
0.00082516
0.000828951
0.000839905
0.00085576
0.000874034
0.000892963
0.000912525
0.000935176
0.000965754
0.00101034
0.00107443
0.0011611
0.00127009
0.00139805
0.00153981
0.00168981
0.00184311
0.00199582
0.00214517
0.00228928
0.00242694
0.00255744
0.00268035
0.00279547
0.00290271
0.0030021
0.00309369
0.00317764
0.00325408
0.00332321
0.00338524
0.00344036
0.00348878
0.00353072
0.00356637
0.00359593
0.00361957
0.00363749
0.00364983
0.00365676
0.00365843
0.003655
0.00364659
0.00363335
0.0036154
0.00359289
0.00356594
0.00353468
0.00349925
0.00345977
0.00341638
0.00336924
0.00331821
0.00326351
0.00320539
0.00314402
0.00307959
0.00301226
0.00294222
0.00286966
0.00279482
0.00271793
0.00263927
0.00255915
0.00247793
0.002396
0.0023138
0.00223182
0.00215059
0.0020707
0.00199279
0.00191749
0.00184548
0.00177739
0.00171379
0.00165512
0.00160169
0.00155363
0.00151095
0.00147356
0.00144114
0.00141332
0.00138989
0.00137045
0.00135476
0.00134232
0.00133275
0.00132566
0.00132089
0.00131831
0.00131772
0.00131892
0.00132165
0.00132566
0.00133066
0.00133638
0.00134256
0.00134897
0.0013554
0.00136168
0.00136767
0.00137325
0.00137834
0.00138287
0.00138678
0.00139004
0.00139263
0.00139453
0.00139572
0.00139619
0.00139595
0.00139499
0.00139329
0.00139087
0.0013877
0.00138379
0.00137913
0.0013737
0.00136749
0.00136048
0.00135267
0.00134402
0.00133452
0.00132415
0.00131286
0.00130065
0.00128746
0.00127328
0.00125807
0.00124179
0.00122443
0.00120597
0.00118638
0.00116567
0.00114383
0.00112091
0.00109695
0.00107201
0.00104616
0.00101951
0.000992164
0.000964244
0.000935899
0.000907287
0.000878581
0.000849962
0.000821618
0.000793734
0.000766496
0.000740074
0.000714627
0.000690292
0.000667181
0.000645379
0.000624939
0.000605886
0.000588209
0.000571867
0.000556789
0.000542871
0.000529977
0.000517932
0.000506519
0.000495446
0.000484337
0.000472607
0.000459819
4.87145e-05
0.000335987
0.000604954
0.000784467
0.000895065
0.000956087
0.0009819
0.000983563
0.000970287
0.00094961
0.000927261
0.000908353
0.000896132
0.000891801
0.000894904
0.000904054
0.000917761
0.00093524
0.000957108
0.000985799
0.00102543
0.00108091
0.00115644
0.00125399
0.00137254
0.0015084
0.00165643
0.00181136
0.00196865
0.00212486
0.00227762
0.00242539
0.00256723
0.00270258
0.00283115
0.00295278
0.00306738
0.00317496
0.00327551
0.0033691
0.00345577
0.00353561
0.00360872
0.00367518
0.00373512
0.00378864
0.00383585
0.00387686
0.0039118
0.00394076
0.00396386
0.0039812
0.00399288
0.003999
0.00399967
0.00399498
0.00398502
0.0039699
0.00394969
0.00392452
0.00389445
0.00385961
0.00382008
0.00377595
0.0037273
0.00367393
0.00361613
0.00355409
0.00348797
0.00341789
0.00334398
0.0032664
0.00318528
0.00310082
0.00301322
0.00292272
0.00282961
0.00273422
0.00263696
0.00253827
0.00243869
0.00233881
0.00223929
0.00214088
0.00204438
0.00195065
0.00186059
0.00177504
0.00169473
0.00162018
0.00155176
0.00148973
0.00143437
0.00138565
0.00134319
0.00130724
0.00127742
0.00125376
0.00123573
0.00122259
0.00121392
0.00120938
0.00120864
0.0012113
0.00121693
0.00122509
0.00123528
0.00124705
0.00125995
0.00127356
0.00128754
0.00130156
0.00131539
0.00132881
0.00134166
0.00135383
0.00136522
0.00137578
0.00138545
0.00139422
0.00140206
0.00140896
0.00141493
0.00141996
0.00142405
0.00142721
0.00142942
0.00143069
0.00143102
0.00143039
0.0014288
0.00142623
0.00142268
0.00141812
0.00141253
0.00140589
0.00139817
0.00138936
0.00137941
0.0013683
0.00135601
0.00134249
0.00132773
0.0013117
0.00129439
0.0012758
0.00125591
0.00123473
0.0012123
0.00118865
0.00116384
0.00113796
0.00111109
0.00108335
0.00105489
0.00102585
0.000996405
0.000966751
0.000937085
0.000907617
0.000878558
0.000850115
0.000822488
0.000795858
0.000770386
0.000746204
0.000723416
0.00070209
0.000682257
0.000663914
0.000647023
0.000631511
0.000617275
0.000604177
0.000592053
0.000580699
0.000569867
0.000559253
0.000548437
0.00053717
5.02192e-05
0.000367024
0.000658947
0.000850376
0.000966506
0.00102957
0.00105562
0.00105678
0.00104294
0.00102071
0.000996898
0.000976596
0.000962857
0.000956815
0.000958293
0.000966674
0.00098174
0.0010043
0.00103651
0.00108166
0.00114351
0.00122511
0.00132762
0.00144969
0.00158776
0.00173705
0.0018927
0.00205057
0.0022075
0.00236136
0.00251077
0.00265494
0.00279339
0.00292588
0.0030523
0.00317256
0.00328664
0.00339451
0.00349617
0.00359159
0.00368078
0.00376376
0.00384052
0.0039111
0.00397551
0.00403379
0.00408598
0.00413211
0.00417223
0.00420638
0.00423462
0.004257
0.00427356
0.00428437
0.00428947
0.00428893
0.00428279
0.00427113
0.00425399
0.00423143
0.00420352
0.00417034
0.00413194
0.0040884
0.00403946
0.0039853
0.0039261
0.00386201
0.00379312
0.00371955
0.00364137
0.00355869
0.00347163
0.00338032
0.00328492
0.00318564
0.00308271
0.00297644
0.00286722
0.00275549
0.0026418
0.00252673
0.00241098
0.00229535
0.0021807
0.00206802
0.00195836
0.00185289
0.00175262
0.00165823
0.00157026
0.0014891
0.00141563
0.00135037
0.00129261
0.00124344
0.0012032
0.00117087
0.00114595
0.0011279
0.00111621
0.00111038
0.00110984
0.001114
0.00112224
0.00113389
0.0011483
0.00116484
0.00118292
0.00120199
0.00122161
0.00124136
0.00126095
0.0012801
0.00129863
0.00131639
0.00133326
0.00134918
0.00136409
0.00137797
0.00139079
0.00140255
0.00141323
0.00142285
0.0014314
0.00143889
0.0014453
0.00145064
0.0014549
0.00145808
0.00146015
0.00146111
0.00146093
0.0014596
0.00145709
0.00145338
0.00144843
0.00144223
0.00143473
0.0014259
0.00141572
0.00140416
0.00139118
0.00137677
0.00136092
0.00134362
0.00132486
0.00130465
0.00128302
0.00126001
0.00123567
0.00121009
0.00118336
0.0011556
0.00112695
0.00109757
0.00106765
0.00103738
0.001007
0.000976716
0.000946774
0.000917403
0.000888827
0.000861252
0.000834865
0.000809821
0.000786243
0.000764215
0.000743782
0.00072495
0.000707685
0.000691915
0.000677535
0.00066441
0.000652377
0.000641246
0.000630796
0.000620775
0.000610873
0.000600957
5.11636e-05
0.000392729
0.000703673
0.000905871
0.00102842
0.00109576
0.00112502
0.00112884
0.00111548
0.00109319
0.00106876
0.00104734
0.00103223
0.00102513
0.00102671
0.00103739
0.00105807
0.00109044
0.00113698
0.00120042
0.00128289
0.00138501
0.00150545
0.00164105
0.00178756
0.0019406
0.0020963
0.0022517
0.00240473
0.00255406
0.00269889
0.00283881
0.00297358
0.00310307
0.00322724
0.00334604
0.00345941
0.00356733
0.00366973
0.00376656
0.00385777
0.00394331
0.00402313
0.00409718
0.00416543
0.00422786
0.00428442
0.00433511
0.00437991
0.00441882
0.00445185
0.00447898
0.00450023
0.00451562
0.00452516
0.00452885
0.00452673
0.00451881
0.00450512
0.00448567
0.0044605
0.00442963
0.00439311
0.00435084
0.00430271
0.00424892
0.00418959
0.00412483
0.00405471
0.00397929
0.00389863
0.0038128
0.00372187
0.00362593
0.0035251
0.00341954
0.00330944
0.00319507
0.00307676
0.00295497
0.00283025
0.00270318
0.00257443
0.00244479
0.00231516
0.00218651
0.00205993
0.00193693
0.00181893
0.0017067
0.00160088
0.0015017
0.00141065
0.0013298
0.00125852
0.00119723
0.00114608
0.00110486
0.00107312
0.00105029
0.00103565
0.00102844
0.00102787
0.0010331
0.00104328
0.00105756
0.00107511
0.00109514
0.00111696
0.00113991
0.00116348
0.00118722
0.00121077
0.00123386
0.00125628
0.00127787
0.00129854
0.00131821
0.00133684
0.00135439
0.00137085
0.00138621
0.00140048
0.00141365
0.00142572
0.00143668
0.00144654
0.00145528
0.00146289
0.00146936
0.00147466
0.00147878
0.00148169
0.00148336
0.00148376
0.00148285
0.00148061
0.00147699
0.00147196
0.00146547
0.00145751
0.00144802
0.00143699
0.00142438
0.00141019
0.00139441
0.00137702
0.00135803
0.00133746
0.00131537
0.00129179
0.00126681
0.00124052
0.00121304
0.0011845
0.00115509
0.00112499
0.0010944
0.00106357
0.00103273
0.00100214
0.000972051
0.000942713
0.000914357
0.000887194
0.000861405
0.000837133
0.000814485
0.00079352
0.000774256
0.000756665
0.000740682
0.000726202
0.00071309
0.000701185
0.000690304
0.000680244
0.000670785
0.000661689
0.000652877
5.14599e-05
0.000411573
0.000736715
0.000948226
0.00107794
0.00115157
0.00118669
0.00119461
0.00118477
0.0011652
0.0011425
0.00112197
0.00110745
0.00110145
0.00110564
0.00112135
0.00115009
0.00119368
0.00125404
0.00133257
0.00142964
0.00154407
0.00167323
0.00181352
0.001961
0.0021121
0.00226391
0.00241433
0.00256196
0.00270595
0.00284579
0.00298125
0.00311219
0.00323854
0.00336025
0.00347728
0.00358957
0.00369704
0.00379961
0.0038972
0.00398971
0.00407705
0.00415912
0.00423583
0.0043071
0.00437285
0.00443301
0.00448751
0.00453631
0.00457935
0.00461659
0.00464799
0.00467352
0.00469316
0.00470689
0.00471467
0.0047165
0.00471236
0.00470222
0.00468608
0.00466393
0.00463575
0.00460154
0.00456107
0.00451446
0.00446184
0.0044033
0.00433888
0.00426863
0.00419259
0.00411078
0.00402323
0.00392999
0.00383112
0.00372668
0.0036168
0.00350161
0.00338131
0.00325617
0.00312668
0.00299345
0.002857
0.002718
0.00257721
0.00243552
0.00229385
0.00215298
0.00201477
0.00188154
0.00175378
0.00163241
0.0015184
0.00141303
0.00131751
0.00123275
0.00115959
0.00109852
0.00104956
0.00101224
0.000985821
0.000969332
0.000961731
0.000961933
0.000968837
0.000981348
0.000998396
0.00101897
0.00104213
0.00106705
0.00109304
0.0011195
0.00114597
0.00117211
0.00119764
0.00122238
0.0012462
0.00126903
0.00129083
0.00131157
0.00133124
0.00134985
0.00136741
0.00138391
0.00139937
0.00141379
0.00142717
0.00143949
0.00145073
0.00146089
0.00146994
0.00147784
0.00148457
0.00149008
0.00149434
0.00149731
0.00149893
0.00149917
0.00149797
0.00149529
0.00149108
0.00148531
0.00147792
0.00146888
0.00145818
0.00144577
0.00143164
0.00141578
0.0013982
0.00137892
0.00135796
0.00133539
0.00131126
0.00128567
0.00125874
0.0012306
0.00120143
0.00117141
0.00114076
0.00110972
0.00107856
0.00104753
0.0010169
0.000986962
0.000957957
0.000930123
0.000903667
0.000878758
0.000855522
0.00083404
0.000814343
0.000796416
0.000780199
0.000765592
0.000752463
0.000740651
0.000729977
0.000720249
0.00071127
0.000702838
0.000694899
5.10707e-05
0.000422418
0.000756265
0.000975181
0.00111231
0.00119372
0.00123599
0.00125109
0.0012482
0.00123476
0.00121709
0.0012005
0.00118933
0.00118686
0.00119556
0.0012174
0.00125409
0.00130711
0.00137748
0.00146544
0.00157006
0.0016893
0.00182017
0.00195928
0.00210333
0.00224947
0.0023955
0.00253985
0.00268148
0.00281979
0.00295445
0.00308528
0.00321218
0.0033351
0.003454
0.0035688
0.00367944
0.00378582
0.00388785
0.0039854
0.00407836
0.00416661
0.00425002
0.00432847
0.00440184
0.00447001