/*--------------------------------*- C++ -*----------------------------------*\
  =========                 |
  \\      /  F ield         | OpenFOAM: The Open Source CFD Toolbox
   \\    /   O peration     | Website:  https://openfoam.org
    \\  /    A nd           | Version:  12
     \\/     M anipulation  |
\*---------------------------------------------------------------------------*/
FoamFile
{
    format      ascii;
    class       volScalarField;
    location    "0.03";
    object      p;
}
// * * * * * * * * * * * * * * * * * * * * * * * * * * * * * * * * * * * * * //

dimensions      [0 2 -2 0 0 0 0];

internalField   nonuniform List<scalar> 
12225
(
-1.11141
-3.38103
-4.52281
-4.80103
-4.93058
-5.04079
-5.10563
-5.12322
-5.10969
-5.0739
-5.01592
-4.93343
-4.82395
-4.68308
-4.50488
-4.27491
-3.98072
-3.56518
-4.56867
-5.2657
-5.33859
-5.17342
-5.09418
-5.11225
-5.1332
-5.12809
-5.10191
-5.05858
-4.9962
-4.91154
-4.8016
-4.66207
-4.48795
-4.26731
-3.99452
-3.64868
-4.78112
-4.67259
-4.80881
-4.89981
-4.96651
-5.03971
-5.08863
-5.10085
-5.08562
-5.04975
-4.99332
-4.91413
-4.80987
-4.67723
-4.51269
-4.3087
-4.06758
-3.79864
-4.64603
-4.55938
-4.81454
-4.96323
-5.01832
-5.06722
-5.10382
-5.11189
-5.09527
-5.05937
-5.0042
-4.92767
-4.82779
-4.7022
-4.54895
-4.365
-4.15692
-3.94181
-4.65474
-4.66345
-4.88368
-5.004
-5.04119
-5.07805
-5.10986
-5.11749
-5.10166
-5.06718
-5.01445
-4.94181
-4.84781
-4.73114
-4.59139
-4.42882
-4.25134
-4.07464
-4.71968
-4.75412
-4.91252
-5.0139
-5.0536
-5.08902
-5.11862
-5.12649
-5.1122
-5.07997
-5.03056
-4.96283
-4.87593
-4.76955
-4.64452
-4.5032
-4.35347
-4.20873
-4.78409
-4.8159
-4.93333
-5.02677
-5.07179
-5.10557
-5.13206
-5.13989
-5.12755
-5.09824
-5.05298
-4.99118
-4.91258
-4.81768
-4.70827
-4.58782
-4.46368
-4.34671
-4.84327
-4.87071
-4.96267
-5.04745
-5.0939
-5.12541
-5.14916
-5.15734
-5.14751
-5.1219
-5.08173
-5.02694
-4.95781
-4.87547
-4.78232
-4.68225
-4.58179
-4.48937
-4.90067
-4.92523
-4.9985
-5.07263
-5.11814
-5.14819
-5.17024
-5.17923
-5.17244
-5.1513
-5.11713
-5.07037
-5.01173
-4.94277
-4.86618
-4.78589
-4.70745
-4.63727
-4.95745
-4.97926
-5.03787
-5.10151
-5.1452
-5.17456
-5.1958
-5.20602
-5.20274
-5.18677
-5.15946
-5.12161
-5.07426
-5.01923
-4.95928
-4.89807
-4.84022
-4.79063
-5.01368
-5.03257
-5.07991
-5.13438
-5.17578
-5.20486
-5.22606
-5.23801
-5.23873
-5.22862
-5.20892
-5.1807
-5.14523
-5.10445
-5.06099
-5.01814
-4.97968
-4.94938
-5.06481
-5.08119
-5.12071
-5.16816
-5.20729
-5.23636
-5.25822
-5.27232
-5.27717
-5.27296
-5.26083
-5.24196
-5.21775
-5.1901
-5.16149
-5.13479
-5.11312
-5.09949
-5.11501
-5.1293
-5.1628
-5.20449
-5.24153
-5.27085
-5.29394
-5.31067
-5.32003
-5.3221
-5.31788
-5.30861
-5.29573
-5.28107
-5.26684
-5.25554
-5.24971
-5.25177
-5.17181
-5.18422
-5.21262
-5.24932
-5.28449
-5.3145
-5.3397
-5.36011
-5.37514
-5.38487
-5.39013
-5.39214
-5.39229
-5.39225
-5.39394
-5.3994
-5.41066
-5.42956
-5.23551
-5.24634
-5.27089
-5.30385
-5.33785
-5.36929
-5.39773
-5.42316
-5.44529
-5.4642
-5.4806
-5.49555
-5.51035
-5.5264
-5.54527
-5.56857
-5.5978
-5.63434
-5.30603
-5.31578
-5.33796
-5.3689
-5.403
-5.43703
-5.47015
-5.50219
-5.53302
-5.56273
-5.59186
-5.6213
-5.65208
-5.68534
-5.72225
-5.76399
-5.81161
-5.86602
-5.38247
-5.39184
-5.41336
-5.44438
-5.48044
-5.51874
-5.55826
-5.59873
-5.63997
-5.68204
-5.72532
-5.77042
-5.8181
-5.86915
-5.92438
-5.98452
-6.05025
-6.12206
-5.46213
-5.47198
-5.49472
-5.52827
-5.56868
-5.61338
-5.66131
-5.71203
-5.76531
-5.82107
-5.87946
-5.94084
-6.00564
-6.07432
-6.14732
-6.22502
-6.30774
-6.39564
-5.53819
-5.54967
-5.57593
-5.61494
-5.66267
-5.7164
-5.77495
-5.8378
-5.90456
-5.97496
-6.04892
-6.1265
-6.20785
-6.29313
-6.38247
-6.47593
-6.57357
-6.67527
-5.5826
-5.59636
-5.62764
-5.67399
-5.73049
-5.79371
-5.86232
-5.93588
-6.01393
-6.09601
-6.18186
-6.27141
-6.36462
-6.4615
-6.56197
-6.66595
-6.77335
-6.88392
-5.5983
-5.61411
-5.65045
-5.70438
-5.76926
-5.84064
-5.91734
-5.99915
-6.08552
-6.17581
-6.2697
-6.36713
-6.46802
-6.57224
-6.67966
-6.7901
-6.90342
-7.01929
-5.59495
-5.61263
-5.65487
-5.71806
-5.79189
-5.87063
-5.95427
-6.04323
-6.13654
-6.23327
-6.33321
-6.43639
-6.54275
-6.6521
-6.76427
-6.87906
-6.99628
-7.11557
-5.57755
-5.59592
-5.64473
-5.71989
-5.80364
-5.88893
-5.97843
-6.07339
-6.17228
-6.27398
-6.3785
-6.48597
-6.5963
-6.7093
-6.82478
-6.94255
-7.06243
-7.18405
-5.55038
-5.56801
-5.62475
-5.71329
-5.80626
-5.89808
-5.99405
-6.0946
-6.19765
-6.30277
-6.41049
-6.521
-6.63409
-6.74955
-6.86725
-6.98699
-7.1086
-7.2317
-5.51518
-5.52924
-5.60521
-5.70783
-5.8024
-5.89766
-6.0011
-6.10809
-6.21502
-6.3228
-6.4329
-6.54556
-6.66048
-6.7775
-6.89655
-7.01748
-7.14013
-7.26415
-5.47491
-5.45794
-5.58405
-5.7162
-5.80684
-5.8975
-6.0034
-6.1141
-6.22355
-6.33332
-6.44529
-6.55956
-6.67578
-6.79387
-6.91381
-7.03548
-7.15875
-7.28326
-5.4713
-5.33347
-5.50815
-5.69782
-5.8125
-5.91065
-6.01839
-6.12835
-6.23673
-6.34611
-6.4581
-6.57243
-6.68868
-6.80678
-6.9267
-7.04833
-7.17156
-7.29605
-5.61908
-5.34451
-5.39386
-5.54703
-5.69624
-5.84029
-5.97759
-6.10265
-6.21999
-6.33587
-6.45257
-6.57019
-6.68877
-6.80857
-6.92977
-7.05234
-7.17644
-7.30215
-5.54974
-6.05942
-6.08814
-5.95448
-5.90613
-5.96589
-6.06251
-6.16104
-6.26123
-6.3665
-6.47621
-6.58881
-6.70363
-6.82051
-6.93927
-7.05962
-7.18148
-7.30631
-2.22373
-4.09641
-5.18222
-5.49991
-5.66549
-5.83938
-5.99436
-6.12358
-6.24157
-6.35815
-6.47532
-6.59291
-6.71117
-6.83051
-6.95097
-7.07216
-7.19333
-7.31214
-8.70174
-8.67315
-8.69585
-8.79088
-8.95913
-9.1842
-9.44037
-9.70054
-9.9408
-10.1418
-10.2893
-10.3727
-10.4037
-10.393
-10.3513
-10.2885
-10.2157
-10.1453
-10.0875
-10.0496
-10.0354
-10.0464
-10.0818
-10.1396
-10.2169
-10.3115
-10.4234
-10.5559
-10.7164
-10.9203
-11.1893
-11.5466
-12.011
-12.5929
-13.2915
-14.095
-14.9829
-15.9288
-16.905
-17.8846
-18.8445
-19.766
-20.6358
-21.4447
-22.188
-22.8637
-23.4721
-24.0151
-24.4955
-24.9164
-25.2811
-25.5929
-25.8548
-26.0696
-26.2398
-26.3675
-26.4546
-26.5026
-26.513
-26.487
-26.4257
-26.3304
-26.2014
-26.0379
-25.8377
-25.5972
-25.3171
-24.9974
-24.6371
-24.2344
-23.7871
-23.2924
-22.747
-22.1471
-21.4881
-20.7652
-19.9725
-19.1038
-18.1524
-17.111
-15.972
-14.7279
-13.3716
-11.8969
-10.2993
-8.5768
-6.73065
-4.76677
-2.6965
-0.537492
1.68592
3.94297
6.1974
8.40929
10.5377
12.5437
14.3931
16.0594
17.5246
18.7808
19.8301
20.6844
21.3642
21.8846
22.257
22.5026
22.6423
22.6952
22.6781
22.6058
22.4904
22.3424
22.1703
21.981
21.7801
21.5721
21.3608
21.149
20.9391
20.7328
20.5316
20.3366
20.1487
19.9684
19.7962
19.6324
19.4772
19.3306
19.1926
19.0631
18.9421
18.8292
18.7243
18.6272
18.5376
18.4552
18.3799
18.3118
18.2504
18.1935
18.1408
18.0925
18.0483
18.0082
17.9719
17.9393
17.91
17.8838
17.8603
17.8392
17.8204
17.8036
17.7887
17.7753
17.7633
17.7526
17.7431
17.7345
17.7269
17.7202
17.7143
17.7092
17.7051
17.7019
17.7
17.6994
17.7005
17.7038
17.7098
17.7192
17.7331
17.7529
17.7804
17.8183
17.8703
17.9415
18.0407
18.1764
18.3785
18.6104
-9.00518
-8.93856
-9.01561
-9.19439
-9.41439
-9.65457
-9.90135
-10.1373
-10.3464
-10.5173
-10.6442
-10.7246
-10.7385
-10.6862
-10.5761
-10.4243
-10.2524
-10.0837
-9.94044
-9.83914
-9.78679
-9.78094
-9.81098
-9.8615
-9.92066
-9.98823
-10.0748
-10.1945
-10.3593
-10.5833
-10.8932
-11.3181
-11.8777
-12.576
-13.4004
-14.3257
-15.3187
-16.3448
-17.3724
-18.3755
-19.3348
-20.2371
-21.0749
-21.8445
-22.5456
-23.1796
-23.749
-24.2571
-24.7071
-25.1022
-25.4457
-25.7404
-25.9887
-26.1929
-26.355
-26.4767
-26.5594
-26.6042
-26.612
-26.5833
-26.5186
-26.4179
-26.2812
-26.109
-25.9021
-25.6622
-25.387
-25.0743
-24.7225
-24.3295
-23.8931
-23.4107
-22.8791
-22.2946
-21.6531
-20.9498
-20.1791
-19.3351
-18.4112
-17.4002
-16.2949
-15.0875
-13.771
-12.3387
-10.7855
-9.10858
-7.30807
-5.38842
-3.35931
-1.23657
0.957305
3.19316
5.436
7.64668
9.78436
11.8096
13.6872
15.3895
16.8972
18.2011
19.3008
20.2043
20.9231
21.4739
21.8775
22.1546
22.3249
22.4071
22.4177
22.3709
22.2791
22.1526
22
21.8282
21.6432
21.4495
21.2509
21.0506
20.8509
20.6538
20.4608
20.2732
20.0918
19.9174
19.7505
19.5914
19.4404
19.2976
19.163
19.0365
18.9181
18.8076
18.7049
18.6096
18.5216
18.4406
18.3663
18.2981
18.2355
18.1788
18.1271
18.0805
18.038
17.9994
17.9645
17.9331
17.9047
17.8792
17.8563
17.8358
17.8174
17.801
17.7864
17.7733
17.7616
17.7511
17.7417
17.7333
17.7259
17.7192
17.7134
17.7085
17.7044
17.7012
17.6992
17.6985
17.6995
17.7025
17.7081
17.717
17.7303
17.7491
17.7753
17.8112
17.8602
17.9268
18.0185
18.1407
18.3172
18.5069
-9.41182
-9.3603
-9.47194
-9.67084
-9.89051
-10.1137
-10.3308
-10.5289
-10.6957
-10.8223
-10.9028
-10.9342
-10.915
-10.8431
-10.722
-10.5597
-10.3699
-10.1731
-9.99368
-9.8526
-9.75896
-9.70944
-9.69538
-9.71023
-9.7558
-9.84424
-9.99514
-10.2306
-10.5692
-11.0203
-11.5843
-12.2538
-13.0152
-13.8496
-14.7355
-15.6509
-16.5757
-17.4924
-18.3872
-19.2493
-20.0709
-20.8466
-21.573
-22.248
-22.8707
-23.4412
-23.9601
-24.4286
-24.848
-25.2198
-25.5457
-25.8273
-26.0662
-26.2639
-26.4217
-26.5409
-26.6227
-26.6679
-26.6774
-26.6518
-26.5915
-26.4965
-26.3663
-26.201
-26.0009
-25.7663
-25.4965
-25.1901
-24.8457
-24.4614
-24.0352
-23.5645
-23.0465
-22.4777
-21.854
-21.171
-20.4235
-19.6056
-18.7109
-17.7325
-16.6628
-15.4944
-14.2195
-12.831
-11.323
-9.69129
-7.93461
-6.05562
-4.06208
-1.9679
0.206085
2.43192
4.67512
6.89623
9.05332
11.1052
13.015
14.7527
16.2978
17.6393
18.7759
19.7152
20.4702
21.0572
21.4958
21.806
22.0076
22.1187
22.156
22.1338
22.0645
21.9584
21.8243
21.6694
21.4996
21.3196
21.1335
20.9443
20.7547
20.5667
20.3819
20.2017
20.027
19.8587
19.6973
19.5432
19.3967
19.258
19.1271
19.004
18.8887
18.781
18.6807
18.5877
18.5017
18.4224
18.3495
18.2828
18.2219
18.1665
18.1161
18.07
18.0282
17.9902
17.9559
17.925
17.8972
17.8722
17.8498
17.8297
17.8118
17.7958
17.7815
17.7687
17.7573
17.7471
17.738
17.7298
17.7226
17.7162
17.7105
17.7057
17.7018
17.6987
17.6967
17.696
17.6969
17.6997
17.7049
17.7133
17.7258
17.7435
17.768
17.8014
17.8466
17.9072
17.9886
18.0933
18.2333
18.3605
-9.84824
-9.82114
-9.93961
-10.1146
-10.3043
-10.4977
-10.6843
-10.852
-10.9897
-11.0891
-11.1445
-11.1531
-11.1129
-11.0254
-10.8951
-10.7304
-10.5439
-10.3528
-10.1763
-10.031
-9.92745
-9.87056
-9.86483
-9.9205
-10.0539
-10.2821
-10.6163
-11.058
-11.5993
-12.2255
-12.9188
-13.662
-14.4401
-15.2408
-16.0536
-16.8696
-17.6809
-18.48
-19.2601
-20.015
-20.7395
-21.4291
-22.0804
-22.6907
-23.2585
-23.7827
-24.263
-24.6995
-25.0925
-25.4429
-25.7514
-26.0191
-26.2468
-26.4357
-26.5867
-26.7007
-26.7785
-26.8208
-26.8284
-26.8017
-26.7413
-26.6472
-26.5196
-26.3583
-26.1634
-25.9344
-25.6708
-25.3715
-25.0353
-24.6607
-24.2455
-23.7877
-23.2845
-22.7327
-22.1284
-21.4675
-20.745
-19.9551
-19.0917
-18.1477
-17.1156
-15.9873
-14.7546
-13.4095
-11.9447
-10.3543
-8.63499
-6.78718
-4.81625
-2.73396
-0.559564
1.67969
3.94881
6.20658
8.40821
10.509
12.4684
14.2534
15.8409
17.2187
18.3865
19.3535
20.1338
20.7438
21.2036
21.5336
21.7538
21.8828
21.937
21.931
21.877
21.7854
21.6649
21.5226
21.3645
21.1954
21.0193
20.8393
20.6583
20.4781
20.3006
20.127
19.9585
19.7958
19.6395
19.4902
19.3481
19.2135
19.0863
18.9667
18.8545
18.7497
18.652
18.5614
18.4776
18.4003
18.3293
18.2641
18.2045
18.1501
18.1005
18.0554
18.0144
17.9776
17.9442
17.9142
17.8872
17.863
17.8413
17.822
17.8047
17.7893
17.7755
17.7633
17.7523
17.7426
17.7339
17.7261
17.7191
17.713
17.7076
17.703
17.6991
17.6961
17.6941
17.6933
17.6939
17.6963
17.701
17.7086
17.7198
17.7358
17.7579
17.7878
17.8279
17.8806
17.9494
18.0339
18.1365
18.213
-10.1564
-10.102
-10.2235
-10.379
-10.5422
-10.7094
-10.871
-11.0156
-11.133
-11.2156
-11.2579
-11.2569
-11.2124
-11.1272
-11.0078
-10.8632
-10.7059
-10.5511
-10.4146
-10.3105
-10.252
-10.2531
-10.3301
-10.4996
-10.7736
-11.155
-11.6356
-12.1991
-12.8259
-13.4983
-14.2021
-14.9269
-15.665
-16.4103
-17.1574
-17.901
-18.6361
-19.3577
-20.061
-20.7418
-21.3961
-22.0205
-22.6123
-23.1693
-23.6898
-24.1727
-24.6172
-25.023
-25.39
-25.7185
-26.0088
-26.2615
-26.477
-26.6561
-26.7993
-26.9074
-26.9809
-27.0205
-27.0264
-26.9993
-26.9393
-26.8467
-26.7215
-26.5636
-26.373
-26.1493
-25.8919
-25.6
-25.2724
-24.9077
-24.5042
-24.0599
-23.5721
-23.038
-22.4541
-21.8163
-21.12
-20.3597
-19.5294
-18.6221
-17.6301
-16.5451
-15.3582
-14.0604
-12.6428
-11.0978
-9.41939
-7.6052
-5.65752
-3.58529
-1.40552
0.855556
3.16243
5.47155
7.73418
9.90069
11.9254
13.7707
15.4104
16.8319
18.0361
19.0325
19.8357
20.4649
20.9413
21.2867
21.5215
21.6646
21.7327
21.7401
21.6991
21.62
21.5115
21.3805
21.233
21.0739
20.907
20.7357
20.5625
20.3898
20.219
20.0517
19.889
19.7317
19.5805
19.4358
19.2979
19.1672
19.0437
18.9275
18.8184
18.7165
18.6216
18.5334
18.4519
18.3766
18.3075
18.244
18.1859
18.1329
18.0847
18.0408
18.001
17.9651
17.9327
17.9035
17.8773
17.8539
17.833
17.8143
17.7976
17.7828
17.7695
17.7578
17.7473
17.7379
17.7296
17.7222
17.7155
17.7096
17.7044
17.6999
17.6962
17.6932
17.6911
17.6901
17.6904
17.6923
17.6963
17.7028
17.7126
17.7266
17.7458
17.7717
17.8059
17.8498
17.9051
17.9692
18.039
18.0773
-10.1374
-10.1333
-10.2507
-10.3926
-10.5402
-10.6905
-10.8356
-10.9665
-11.0734
-11.1496
-11.1907
-11.1946
-11.1621
-11.0977
-11.009
-10.9061
-10.8013
-10.7084
-10.6424
-10.6187
-10.6541
-10.7657
-10.9678
-11.2686
-11.6666
-12.1515
-12.7074
-13.3168
-13.9641
-14.6369
-15.326
-16.0243
-16.7264
-17.4279
-18.1249
-18.8137
-19.491
-20.1535
-20.7978
-21.4211
-22.0205
-22.5934
-23.1376
-23.6512
-24.1326
-24.5807
-24.9945
-25.3735
-25.7174
-26.026
-26.2995
-26.538
-26.7418
-26.9114
-27.0471
-27.1493
-27.2186
-27.2553
-27.2598
-27.2323
-27.1732
-27.0824
-26.9602
-26.8063
-26.6207
-26.403
-26.1528
-25.8693
-25.5515
-25.198
-24.8074
-24.3777
-23.9067
-23.3916
-22.8292
-22.2159
-21.547
-20.8176
-20.0218
-19.1527
-18.2028
-17.1634
-16.0253
-14.7784
-13.4127
-11.9184
-10.287
-8.51281
-6.59458
-4.53755
-2.35564
-0.0731847
2.27436
4.64122
6.97418
9.21746
11.3189
13.2349
14.9364
16.4108
17.6583
18.6882
19.5179
20.1687
20.6636
21.0256
21.2761
21.4342
21.517
21.5386
21.5114
21.4456
21.3496
21.2305
21.0942
20.9455
20.7883
20.626
20.4612
20.2961
20.1325
19.9718
19.8152
19.6635
19.5174
19.3775
19.2441
19.1176
18.9979
18.8852
18.7795
18.6806
18.5885
18.503
18.4239
18.3509
18.2838
18.2222
18.1659
18.1145
18.0677
18.0252
17.9867
17.952
17.9207
17.8925
17.8673
17.8447
17.8246
17.8066
17.7907
17.7764
17.7638
17.7526
17.7426
17.7336
17.7257
17.7185
17.7122
17.7065
17.7015
17.6971
17.6933
17.6903
17.688
17.6867
17.6866
17.6879
17.691
17.6963
17.7044
17.7161
17.7321
17.7535
17.7813
17.8162
17.858
17.9031
17.945
17.9536
-9.78821
-9.89368
-10.0143
-10.1483
-10.2879
-10.428
-10.5628
-10.6847
-10.7865
-10.8628
-10.9108
-10.9295
-10.9216
-10.893
-10.852
-10.8093
-10.7772
-10.7697
-10.8021
-10.8902
-11.049
-11.2896
-11.617
-12.0284
-12.5144
-13.0615
-13.6554
-14.283
-14.9334
-15.598
-16.2699
-16.9441
-17.6163
-18.2833
-18.9421
-19.5903
-20.2253
-20.8448
-21.4462
-22.0274
-22.5861
-23.1203
-23.6282
-24.108
-24.5585
-24.9786
-25.3673
-25.7241
-26.0484
-26.3402
-26.5992
-26.8255
-27.0193
-27.1806
-27.3099
-27.4074
-27.4733
-27.508
-27.5117
-27.4846
-27.427
-27.339
-27.2204
-27.0712
-26.8916
-26.681
-26.4389
-26.1648
-25.8577
-25.5164
-25.1396
-24.7255
-24.272
-23.7766
-23.2364
-22.6478
-22.0068
-21.3086
-20.5474
-19.7168
-18.8092
-17.8159
-16.7275
-15.5334
-14.2222
-12.7826
-11.2038
-9.47664
-7.59603
-5.56293
-3.38725
-1.09033
1.29346
3.71678
6.12188
8.44574
10.6289
12.622
14.3935
15.9278
17.2238
18.2927
19.1538
19.8306
20.348
20.7304
20.9998
21.1761
21.2762
21.3145
21.3033
21.2526
21.171
21.0654
20.9416
20.8046
20.6583
20.5059
20.3503
20.1937
20.0379
19.8844
19.7344
19.5889
19.4485
19.3138
19.1853
19.0632
18.9477
18.8389
18.7368
18.6412
18.5523
18.4696
18.3932
18.3227
18.2578
18.1984
18.144
18.0944
18.0494
18.0084
17.9714
17.938
17.908
17.881
17.8568
17.8352
17.816
17.7989
17.7837
17.7702
17.7582
17.7475
17.738
17.7296
17.722
17.7152
17.7091
17.7036
17.6987
17.6944
17.6906
17.6875
17.685
17.6833
17.6827
17.6832
17.6852
17.6891
17.6954
17.7045
17.7171
17.7337
17.755
17.7807
17.8097
17.8374
17.8562
17.8413
-9.20956
-9.35955
-9.51383
-9.66008
-9.79964
-9.93438
-10.0617
-10.1769
-10.2758
-10.3557
-10.4152
-10.456
-10.4825
-10.5016
-10.5224
-10.5559
-10.6146
-10.712
-10.8618
-11.0755
-11.3615
-11.7222
-12.1544
-12.6501
-13.1983
-13.7873
-14.4063
-15.0457
-15.6978
-16.3564
-17.0164
-17.6741
-18.3263
-18.9704
-19.6041
-20.2253
-20.8321
-21.4224
-21.9943
-22.546
-23.0758
-23.582
-24.0632
-24.5179
-24.9451
-25.3438
-25.7132
-26.0528
-26.3619
-26.6405
-26.8882
-27.1051
-27.2911
-27.4463
-27.571
-27.6652
-27.7292
-27.7632
-27.7673
-27.7418
-27.6868
-27.6024
-27.4884
-27.3451
-27.1721
-26.9693
-26.7361
-26.4721
-26.1763
-25.8476
-25.4849
-25.0866
-24.6506
-24.1748
-23.6563
-23.092
-22.478
-21.8096
-21.0817
-20.2879
-19.4208
-18.472
-17.4318
-16.2893
-15.0324
-13.6486
-12.125
-10.4497
-8.61372
-6.61343
-4.45411
-2.15311
0.257255
2.7288
5.1996
7.59948
9.86257
11.9347
13.778
15.3742
16.7219
17.8334
18.7301
19.4374
19.982
20.3892
20.682
20.8805
21.0017
21.0602
21.0681
21.0354
20.9705
20.8805
20.7712
20.6476
20.5135
20.3725
20.2273
20.0803
19.9333
19.7878
19.6452
19.5065
19.3724
19.2436
19.1204
19.0033
18.8924
18.7879
18.6897
18.5979
18.5123
18.4329
18.3594
18.2916
18.2293
18.1722
18.1201
18.0725
18.0294
17.9902
17.9548
17.923
17.8943
17.8686
17.8457
17.8252
17.807
17.7909
17.7765
17.7638
17.7525
17.7425
17.7335
17.7256
17.7184
17.712
17.7062
17.7009
17.6961
17.6919
17.688
17.6847
17.682
17.6799
17.6786
17.6782
17.6791
17.6815
17.6857
17.6921
17.701
17.7128
17.7275
17.7443
17.7614
17.7737
17.7732
17.7399
-8.45743
-8.63898
-8.83116
-8.99475
-9.13612
-9.26546
-9.38487
-9.49327
-9.58959
-9.67381
-9.74757
-9.81495
-9.88213
-9.95717
-10.0497
-10.1704
-10.3307
-10.5413
-10.811
-11.1453
-11.5449
-12.0063
-12.5221
-13.0833
-13.68
-14.3031
-14.9443
-15.5968
-16.2549
-16.914
-17.5703
-18.2209
-18.8633
-19.4952
-20.1147
-20.72
-21.3095
-21.8815
-22.4344
-22.9669
-23.4774
-23.9648
-24.4277
-24.8652
-25.2762
-25.6599
-26.0158
-26.3432
-26.6417
-26.9111
-27.1511
-27.3616
-27.5427
-27.6943
-27.8165
-27.9095
-27.9734
-28.0083
-28.0144
-27.9917
-27.9405
-27.8607
-27.7524
-27.6156
-27.4501
-27.2557
-27.032
-26.7784
-26.4941
-26.1781
-25.8294
-25.4464
-25.0274
-24.5702
-24.0724
-23.5307
-22.9418
-22.3011
-21.6038
-20.8437
-20.0138
-19.1057
-18.1099
-17.0153
-15.8096
-14.4791
-13.0098
-11.3872
-9.59892
-7.63718
-5.50237
-3.20756
-0.782566
1.7241
4.24727
6.71303
9.04847
11.193
13.1033
14.7583
16.1563
17.3109
18.2451
18.986
19.5616
19.9979
20.3184
20.5433
20.6897
20.7719
20.8022
20.7904
20.745
20.6731
20.5804
20.472
20.352
20.2239
20.0905
19.9542
19.8171
19.6807
19.5464
19.4153
19.2883
19.1659
19.0488
18.9372
18.8314
18.7317
18.6379
18.5502
18.4684
18.3925
18.3223
18.2576
18.1981
18.1437
18.0939
18.0487
18.0076
17.9704
17.9369
17.9067
17.8797
17.8555
17.8339
17.8146
17.7976
17.7824
17.769
17.7572
17.7467
17.7373
17.729
17.7216
17.7149
17.7088
17.7033
17.6983
17.6936
17.6894
17.6855
17.682
17.6789
17.6764
17.6744
17.6731
17.6728
17.6735
17.6756
17.6791
17.6844
17.6913
17.6995
17.7078
17.714
17.7127
17.6963
17.6484
-7.63618
-7.84464
-8.06541
-8.24067
-8.38041
-8.50206
-8.61223
-8.71307
-8.80662
-8.89568
-8.98499
-9.08096
-9.1915
-9.32553
-9.49253
-9.7019
-9.96205
-10.2793
-10.6568
-11.0941
-11.587
-12.1286
-12.7107
-13.3245
-13.9619
-14.6156
-15.2794
-15.948
-16.6171
-17.2831
-17.9431
-18.5945
-19.2353
-19.8635
-20.4775
-21.0758
-21.6568
-22.2194
-22.7621
-23.2838
-23.7834
-24.2598
-24.712
-25.1391
-25.5404
-25.9152
-26.263
-26.5833
-26.8757
-27.1401
-27.3761
-27.5837
-27.7628
-27.9135
-28.0358
-28.1297
-28.1954
-28.233
-28.2426
-28.2242
-28.178
-28.1041
-28.0024
-27.873
-27.7157
-27.5303
-27.3163
-27.0732
-26.8003
-26.4969
-26.1617
-25.7934
-25.3903
-24.9506
-24.4717
-23.9508
-23.3845
-22.7687
-22.0986
-21.3685
-20.5715
-19.6994
-18.7428
-17.6908
-16.5306
-15.2482
-13.8283
-12.2549
-10.5128
-8.59068
-6.48487
-4.20494
-1.77773
0.750068
3.31181
5.82972
8.22443
10.4284
12.3945
14.0995
15.5419
16.7364
17.7072
18.4826
19.0912
19.5595
19.9109
20.1656
20.3404
20.4496
20.5052
20.5171
20.4937
20.442
20.3681
20.2769
20.1726
20.0589
19.9387
19.8145
19.6884
19.5622
19.4373
19.3147
19.1955
19.0804
18.9699
18.8645
18.7644
18.6699
18.581
18.4978
18.4203
18.3483
18.2817
18.2204
18.164
18.1125
18.0655
18.0228
17.9841
17.9491
17.9176
17.8893
17.8639
17.8413
17.8212
17.8034
17.7876
17.7736
17.7612
17.7503
17.7406
17.732
17.7244
17.7175
17.7113
17.7057
17.7005
17.6957
17.6912
17.687
17.683
17.6793
17.6759
17.6728
17.6701
17.6679
17.6662
17.6653
17.6652
17.6659
17.6674
17.6695
17.6715
17.6719
17.6681
17.6551
17.6254
17.566
-6.84444
-7.06605
-7.30235
-7.48148
-7.6159
-7.72843
-7.82916
-7.92298
-8.01434
-8.1089
-8.2138
-8.33746
-8.48912
-8.67807
-8.91292
-9.20078
-9.54647
-9.95184
-10.4154
-10.9327
-11.4968
-12.0997
-12.7331
-13.3893
-14.0612
-14.743
-15.4294
-16.1164
-16.8002
-17.4779
-18.147
-18.8053
-19.4509
-20.0822
-20.6977
-21.296
-21.876
-22.4364
-22.9762
-23.4944
-23.99
-24.4622
-24.9102
-25.3332
-25.7307
-26.102
-26.4469
-26.7648
-27.0555
-27.3188
-27.5544
-27.7624
-27.9427
-28.0952
-28.2201
-28.3172
-28.3869
-28.429
-28.4437
-28.4311
-28.3913
-28.3243
-28.2302
-28.109
-27.9605
-27.7845
-27.5804
-27.348
-27.0865
-26.7952
-26.4729
-26.1185
-25.7304
-25.3067
-24.845
-24.3428
-23.7966
-23.2027
-22.5564
-21.8521
-21.0833
-20.2419
-19.3187
-18.3028
-17.1814
-15.9399
-14.5626
-13.0323
-11.3319
-9.44762
-7.37229
-5.11131
-2.68825
-0.148986
2.43863
4.9925
7.42832
9.674
11.6798
13.4218
14.8989
16.1267
17.1305
17.9389
18.5807
19.0822
19.4663
19.7528
19.9583
20.0967
20.1797
20.2173
20.2179
20.1883
20.1348
20.0624
19.9754
19.8775
19.7718
19.661
19.5471
19.4321
19.3174
19.2043
19.0937
18.9866
18.8835
18.7848
18.6911
18.6024
18.5189
18.4407
18.3678
18.3001
18.2376
18.1799
18.1271
18.0788
18.0347
17.9948
17.9587
17.9261
17.8968
17.8706
17.8471
17.8263
17.8078
17.7914
17.777
17.7642
17.753
17.7431
17.7343
17.7265
17.7196
17.7134
17.7077
17.7025
17.6976
17.6931
17.6887
17.6846
17.6805
17.6766
17.6728
17.6692
17.6658
17.6626
17.6596
17.657
17.6546
17.6525
17.6504
17.6479
17.644
17.637
17.6243
17.601
17.5603
17.4916
-6.15697
-6.37633
-6.61265
-6.78682
-6.91226
-7.01471
-7.10645
-7.19415
-7.28417
-7.38405
-7.50256
-7.64943
-7.83459
-8.06718
-8.35461
-8.70174
-9.11036
-9.57901
-10.1033
-10.6765
-11.2907
-11.9375
-12.6091
-13.2983
-13.999
-14.7058
-15.4141
-16.1203
-16.821
-17.5136
-18.1957
-18.8652
-19.5206
-20.1602
-20.7826
-21.3868
-21.9715
-22.5358
-23.0787
-23.5993
-24.0969
-24.5706
-25.02
-25.4443
-25.8431
-26.2159
-26.5624
-26.8823
-27.1753
-27.4412
-27.68
-27.8916
-28.0759
-28.233
-28.3629
-28.4655
-28.5411
-28.5896
-28.6111
-28.6058
-28.5736
-28.5148
-28.4293
-28.317
-28.1778
-28.0115
-27.8177
-27.5959
-27.3456
-27.066
-26.7561
-26.4148
-26.0404
-25.6313
-25.1852
-24.6996
-24.1711
-23.5961
-22.9701
-22.2877
-21.5424
-20.7266
-19.8309
-18.8447
-17.7552
-16.5475
-15.205
-13.7096
-12.0434
-10.1903
-8.14055
-5.89679
-3.48051
-0.937337
1.66316
4.2355
6.6921
8.95871
10.9851
12.7479
14.2472
15.4997
16.5308
17.369
18.0424
18.5766
18.9937
19.3128
19.5499
19.7185
19.8302
19.8947
19.9204
19.9143
19.8824
19.83
19.7615
19.6805
19.5905
19.494
19.3933
19.2904
19.1869
19.084
18.9829
18.8845
18.7894
18.6982
18.6113
18.529
18.4514
18.3787
18.3109
18.2479
18.1898
18.1362
18.0871
18.0424
18.0016
17.9647
17.9314
17.9014
17.8746
17.8506
17.8293
17.8103
17.7936
17.7788
17.7658
17.7544
17.7444
17.7355
17.7277
17.7208
17.7147
17.7091
17.704
17.6992
17.6948
17.6905
17.6863
17.6822
17.6781
17.6739
17.6698
17.6657
17.6615
17.6573
17.653
17.6486
17.6441
17.6392
17.6336
17.6266
17.6172
17.6035
17.5828
17.5506
17.5007
17.4245
-5.6142
-5.8159
-6.03692
-6.19768
-6.31075
-6.40218
-6.4851
-6.56701
-6.65531
-6.75847
-6.88609
-7.04839
-7.25538
-7.51577
-7.83597
-8.21931
-8.66578
-9.17215
-9.73263
-10.3397
-10.9851
-11.6606
-12.3587
-13.0725
-13.7962
-14.5245
-15.2531
-15.9782
-16.6966
-17.4058
-18.1033
-18.7872
-19.4558
-20.1077
-20.7414
-21.3559
-21.95
-22.5229
-23.0738
-23.6017
-24.1061
-24.5863
-25.0417
-25.4719
-25.8764
-26.2549
-26.6071
-26.9328
-27.2317
-27.5037
-27.7488
-27.9669
-28.158
-28.3221
-28.4592
-28.5695
-28.6529
-28.7095
-28.7394
-28.7427
-28.7195
-28.6698
-28.5937
-28.4911
-28.3618
-28.2057
-28.0223
-27.8112
-27.572
-27.3038
-27.0057
-26.6766
-26.315
-25.9191
-25.487
-25.0159
-24.5029
-23.9442
-23.3353
-22.6708
-21.9446
-21.149
-20.2749
-19.3115
-18.246
-17.0635
-15.7469
-14.2774
-12.6359
-10.8049
-8.77298
-6.54153
-4.13176
-1.59047
1.0105
3.58322
6.03897
8.30407
10.3302
12.0963
13.6043
14.8714
15.9229
16.7864
17.4886
18.0538
18.5029
18.854
19.1224
19.3214
19.462
19.5539
19.6052
19.623
19.6135
19.5818
19.5325
19.4694
19.3958
19.3144
19.2278
19.1378
19.0461
18.9543
18.8634
18.7743
18.6879
18.6047
18.5252
18.4498
18.3786
18.3119
18.2496
18.1918
18.1383
18.0892
18.0443
18.0033
17.9662
17.9326
17.9023
17.8752
17.851
17.8294
17.8103
17.7934
17.7786
17.7655
17.7541
17.7441
17.7354
17.7277
17.7209
17.7149
17.7096
17.7047
17.7002
17.6959
17.6918
17.6878
17.6838
17.6798
17.6756
17.6713
17.6668
17.6622
17.6572
17.652
17.6464
17.6404
17.6337
17.6261
17.6171
17.6059
17.5914
17.5716
17.5438
17.5039
17.4463
17.364
-5.22059
-5.39234
-5.58537
-5.72565
-5.82323
-5.90217
-5.97522
-6.05006
-6.13436
-6.23683
-6.36709
-6.53523
-6.75094
-7.0225
-7.35574
-7.75337
-8.21478
-8.73634
-9.31206
-9.9344
-10.5952
-11.2865
-12.0009
-12.7316
-13.4726
-14.2187
-14.9652
-15.7083
-16.4446
-17.1713
-17.8858
-18.5861
-19.2705
-19.9375
-20.5856
-21.2138
-21.8209
-22.4062
-22.9688
-23.5079
-24.023
-24.5135
-24.9788
-25.4186
-25.8325
-26.2202
-26.5814
-26.9161
-27.2239
-27.5049
-27.759
-27.9862
-28.1864
-28.3597
-28.5062
-28.6259
-28.7188
-28.7851
-28.8249
-28.8381
-28.8249
-28.7854
-28.7195
-28.6271
-28.5082
-28.3625
-28.1897
-27.9893
-27.7609
-27.5037
-27.2168
-26.8991
-26.5492
-26.1653
-25.7454
-25.2869
-24.7868
-24.2414
-23.6462
-22.9961
-22.2846
-21.5042
-20.6457
-19.6984
-18.6492
-17.483
-16.1824
-14.7282
-13.1002
-11.2804
-9.25699
-7.03173
-4.62759
-2.09408
0.494273
3.04842
5.48101
7.72192
9.72713
11.4794
12.9826
14.2544
15.3192
16.2028
16.9301
17.5235
18.0025
18.3841
18.6829
18.9114
19.0804
19.1993
19.2762
19.3181
19.3311
19.3205
19.2908
19.246
19.1893
19.1237
19.0516
18.9751
18.896
18.8157
18.7355
18.6564
18.5792
18.5046
18.4331
18.365
18.3007
18.2403
18.1839
18.1316
18.0834
18.0391
17.9986
17.9617
17.9284
17.8984
17.8715
17.8474
17.826
17.8071
17.7904
17.7757
17.7628
17.7516
17.7419
17.7334
17.726
17.7196
17.7139
17.7089
17.7043
17.7002
17.6963
17.6926
17.6889
17.6852
17.6814
17.6774
17.6732
17.6687
17.6639
17.6587
17.6531
17.6469
17.64
17.6324
17.6236
17.6134
17.6012
17.5861
17.5669
17.5416
17.5075
17.4609
17.3968
17.3095
-4.96645
-5.0936
-5.24517
-5.35871
-5.43773
-5.50191
-5.5629
-5.62809
-5.70485
-5.80155
-5.92739
-6.09196
-6.30449
-6.57292
-6.90292
-7.29724
-7.7555
-8.27457
-8.84905
-9.47196
-10.1356
-10.8324
-11.5548
-12.2958
-13.049
-13.809
-14.5708
-15.3301
-16.0833
-16.8272
-17.5591
-18.2769
-18.9784
-19.6623
-20.3269
-20.9711
-21.5939
-22.1942
-22.7714
-23.3246
-23.8534
-24.3571
-24.8353
-25.2876
-25.7138
-26.1135
-26.4865
-26.8327
-27.1521
-27.4444
-27.7097
-27.948
-28.1594
-28.3438
-28.5013
-28.632
-28.736
-28.8132
-28.8639
-28.8881
-28.8858
-28.8572
-28.8021
-28.7206
-28.6124
-28.4774
-28.3152
-28.1255
-27.9077
-27.6611
-27.3848
-27.0776
-26.7382
-26.3649
-25.9556
-25.5076
-25.0181
-24.4832
-23.8985
-23.2586
-22.5573
-21.7868
-20.9378
-19.9992
-18.958
-17.7987
-16.5035
-15.0526
-13.426
-11.6055
-9.5807
-7.35582
-4.95769
-2.43991
0.120609
2.6357
5.02241
7.2171
9.18216
10.9048
12.3911
13.6585
14.7294
15.6278
16.3759
16.994
17.5002
17.9101
18.2373
18.4939
18.6901
18.8352
18.9371
19.0027
19.0381
19.0486
19.0386
19.0123
18.9728
18.9233
18.8661
18.8036
18.7374
18.6691
18.6001
18.5314
18.4639
18.3983
18.3351
18.2748
18.2178
18.1642
18.1142
18.0678
18.025
17.9858
17.9501
17.9177
17.8885
17.8623
17.8389
17.8181
17.7997
17.7836
17.7695
17.7571
17.7464
17.7372
17.7292
17.7223
17.7163
17.7112
17.7067
17.7026
17.699
17.6956
17.6924
17.6892
17.6859
17.6826
17.679
17.6751
17.6709
17.6662
17.6611
17.6554
17.6491
17.6419
17.6339
17.6246
17.6139
17.6013
17.5861
17.5674
17.5438
17.5135
17.4739
17.4215
17.3519
17.2605
-4.79593
-4.86244
-4.96998
-5.05575
-5.11594
-5.16531
-5.21341
-5.26699
-5.33295
-5.41916
-5.53429
-5.68742
-5.88734
-6.14171
-6.45632
-6.83433
-7.27621
-7.77987
-8.34092
-8.95327
-9.60995
-10.3035
-11.0263
-11.7713
-12.5318
-13.3018
-14.076
-14.8497
-15.6187
-16.3795
-17.1291
-17.8649
-18.5849
-19.2871
-19.9699
-20.6322
-21.2726
-21.8903
-22.4844
-23.0542
-23.599
-24.1185
-24.6121
-25.0794
-25.5202
-25.9343
-26.3215
-26.6816
-27.0146
-27.3204
-27.599
-27.8504
-28.0747
-28.2719
-28.4421
-28.5853
-28.7016
-28.7912
-28.854
-28.8902
-28.8999
-28.883
-28.8394
-28.7693
-28.6723
-28.5483
-28.3969
-28.2179
-28.0105
-27.7742
-27.5079
-27.2106
-26.8808
-26.5168
-26.1164
-25.677
-25.1956
-24.6683
-24.0906
-23.4571
-22.7611
-21.9948
-21.1487
-20.2113
-19.1692
-18.0065
-16.7051
-15.2449
-13.606
-11.7717
-9.73456
-7.50389
-5.11295
-2.62075
-0.105858
2.34719
4.66346
6.78895
8.6943
10.3718
11.8292
13.0828
14.1529
15.0603
15.8246
16.4638
16.994
17.4296
17.7833
18.0663
18.2887
18.4592
18.5855
18.6746
18.7323
18.7638
18.7738
18.7661
18.7443
18.7112
18.6695
18.6214
18.5686
18.5129
18.4556
18.3979
18.3406
18.2845
18.2302
18.1783
18.129
18.0827
18.0394
17.9993
17.9625
17.9288
17.8982
17.8706
17.8459
17.8238
17.8043
17.787
17.7719
17.7588
17.7474
17.7376
17.7292
17.722
17.7159
17.7107
17.7063
17.7025
17.6992
17.6963
17.6935
17.691
17.6884
17.6858
17.683
17.68
17.6766
17.6729
17.6686
17.6638
17.6584
17.6522
17.6452
17.6372
17.628
17.6172
17.6047
17.5897
17.5718
17.5497
17.5222
17.4875
17.443
17.3856
17.3114
17.2165
-4.66466
-4.70348
-4.76362
-4.81733
-4.85702
-4.88986
-4.92277
-4.96166
-5.01296
-5.08409
-5.18333
-5.31931
-5.50045
-5.73428
-6.02677
-6.38174
-6.8006
-7.28221
-7.82315
-8.41829
-9.06132
-9.74517
-10.4625
-11.2059
-11.9687
-12.7443
-13.527
-14.3117
-15.0937
-15.8691
-16.6346
-17.3872
-18.1245
-18.8444
-19.5451
-20.2252
-20.8835