/*--------------------------------*- C++ -*----------------------------------*\
  =========                 |
  \\      /  F ield         | OpenFOAM: The Open Source CFD Toolbox
   \\    /   O peration     | Website:  https://openfoam.org
    \\  /    A nd           | Version:  12
     \\/     M anipulation  |
\*---------------------------------------------------------------------------*/
FoamFile
{
    format      ascii;
    class       surfaceScalarField;
    location    "0.03";
    object      phi;
}
// * * * * * * * * * * * * * * * * * * * * * * * * * * * * * * * * * * * * * //

dimensions      [0 3 -1 0 0 0 0];

internalField   nonuniform List<scalar> 
24170
(
3.13306e-06
5.53483e-08
3.0469e-06
8.61529e-08
2.97042e-06
7.64866e-08
2.89972e-06
7.06987e-08
2.83241e-06
6.73062e-08
2.77216e-06
6.02506e-08
2.71962e-06
5.25428e-08
2.6738e-06
4.5821e-08
2.63334e-06
4.046e-08
2.59697e-06
3.63703e-08
2.56358e-06
3.3389e-08
2.53218e-06
3.14044e-08
2.5018e-06
3.03722e-08
2.47142e-06
3.03811e-08
2.43982e-06
3.15995e-08
2.40467e-06
3.5156e-08
2.36269e-06
4.19778e-08
5.79148e-08
2.30477e-06
3.4537e-06
1.88968e-08
3.45594e-06
8.39106e-08
3.44872e-06
8.37055e-08
3.43612e-06
8.33061e-08
3.42024e-06
8.31876e-08
3.40087e-06
7.96114e-08
3.37896e-06
7.44602e-08
3.35524e-06
6.95339e-08
3.33045e-06
6.52513e-08
3.30513e-06
6.16976e-08
3.27958e-06
5.89318e-08
3.25395e-06
5.70346e-08
3.22822e-06
5.61051e-08
3.20222e-06
5.63842e-08
3.17576e-06
5.80591e-08
3.1482e-06
6.27146e-08
3.11994e-06
7.02339e-08
8.81834e-08
3.08967e-06
3.66528e-06
1.61336e-08
3.67767e-06
7.15232e-08
3.68391e-06
7.74581e-08
3.68703e-06
8.0191e-08
3.68722e-06
8.29938e-08
3.68422e-06
8.2617e-08
3.67847e-06
8.0207e-08
3.6705e-06
7.7505e-08
3.66067e-06
7.50839e-08
3.64925e-06
7.31155e-08
3.63644e-06
7.17427e-08
3.62234e-06
7.11337e-08
3.60697e-06
7.14749e-08
3.59027e-06
7.3087e-08
3.57203e-06
7.62962e-08
3.5523e-06
8.24456e-08
3.53075e-06
9.17852e-08
1.07629e-07
3.5113e-06
3.92445e-06
1.70698e-08
3.93502e-06
6.09567e-08
3.94084e-06
7.16379e-08
3.94501e-06
7.60238e-08
3.94776e-06
8.02405e-08
3.94862e-06
8.17571e-08
3.94769e-06
8.11367e-08
3.94522e-06
7.99704e-08
3.94136e-06
7.89499e-08
3.93618e-06
7.82976e-08
3.92973e-06
7.81878e-08
3.92204e-06
7.88275e-08
3.91306e-06
8.04498e-08
3.90275e-06
8.33985e-08
3.89098e-06
8.80676e-08
3.87799e-06
9.5435e-08
3.8639e-06
1.05879e-07
1.20727e-07
3.8508e-06
4.20753e-06
1.66646e-08
4.21513e-06
5.3359e-08
4.21977e-06
6.69967e-08
4.22328e-06
7.25168e-08
4.22617e-06
7.73515e-08
4.2279e-06
8.00266e-08
4.22833e-06
8.07066e-08
4.22756e-06
8.07411e-08
4.22565e-06
8.08573e-08
4.22264e-06
8.13106e-08
4.21853e-06
8.22928e-08
4.21333e-06
8.403e-08
4.207e-06
8.67758e-08
4.19954e-06
9.08628e-08
4.19093e-06
9.66732e-08
4.18149e-06
1.04878e-07
4.17158e-06
1.15793e-07
1.2992e-07
4.16238e-06
4.51019e-06
1.55594e-08
4.51593e-06
4.76231e-08
4.52013e-06
6.27921e-08
4.52327e-06
6.93842e-08
4.52594e-06
7.46762e-08
4.52776e-06
7.82063e-08
4.52852e-06
7.99509e-08
4.52824e-06
8.10153e-08
4.52698e-06
8.21212e-08
4.52474e-06
8.35538e-08
4.52151e-06
8.55169e-08
4.5173e-06
8.82417e-08
4.51209e-06
9.1981e-08
4.50592e-06
9.70339e-08
4.49887e-06
1.03726e-07
4.49125e-06
1.12497e-07
4.48351e-06
1.23531e-07
1.36926e-07
4.47651e-06
4.83386e-06
1.4416e-08
4.83859e-06
4.28946e-08
4.84267e-06
5.87152e-08
4.84564e-06
6.64087e-08
4.8481e-06
7.22154e-08
4.84983e-06
7.64765e-08
4.85063e-06
7.91579e-08
4.85049e-06
8.11547e-08
4.84945e-06
8.31624e-08
4.84751e-06
8.54923e-08
4.84467e-06
8.83552e-08
4.84094e-06
9.19767e-08
4.83632e-06
9.65933e-08
4.8309e-06
1.02458e-07
4.8248e-06
1.09823e-07
4.81834e-06
1.18954e-07
4.81197e-06
1.29906e-07
1.42591e-07
4.8063e-06
5.18063e-06
1.3363e-08
5.18468e-06
3.88529e-08
5.18858e-06
5.48091e-08
5.19147e-06
6.35163e-08
5.1938e-06
6.98923e-08
5.19545e-06
7.4822e-08
5.19624e-06
7.83645e-08
5.19616e-06
8.12388e-08
5.19523e-06
8.4095e-08
5.19346e-06
8.72634e-08
5.19085e-06
9.09585e-08
5.18744e-06
9.53921e-08
5.18326e-06
1.00774e-07
5.17841e-06
1.07308e-07
5.17306e-06
1.15169e-07
5.16752e-06
1.24494e-07
5.16218e-06
1.35247e-07
1.47263e-07
5.15751e-06
5.55233e-06
1.23734e-08
5.55579e-06
3.53886e-08
5.55944e-06
5.11583e-08
5.56227e-06
6.06875e-08
5.56452e-06
6.76419e-08
5.56615e-06
7.31954e-08
5.56697e-06
7.75392e-08
5.56696e-06
8.12492e-08
5.56614e-06
8.49131e-08
5.56454e-06
8.88694e-08
5.56217e-06
9.33318e-08
5.55906e-06
9.84928e-08
5.55531e-06
1.04531e-07
5.55102e-06
1.11597e-07
5.54639e-06
1.19801e-07
5.54169e-06
1.29189e-07
5.53727e-06
1.39666e-07
1.51044e-07
5.53349e-06
5.95071e-06
1.14409e-08
5.95368e-06
3.24152e-08
5.95705e-06
4.77916e-08
5.95982e-06
5.79198e-08
5.96203e-06
6.54249e-08
5.96367e-06
7.15585e-08
5.96457e-06
7.66382e-08
5.96469e-06
8.11337e-08
5.96404e-06
8.55596e-08
5.96266e-06
9.02486e-08
5.96058e-06
9.54084e-08
5.95787e-06
1.01208e-07
5.95461e-06
1.07791e-07
5.95094e-06
1.15263e-07
5.94707e-06
1.23677e-07
5.94324e-06
1.33019e-07
5.93974e-06
1.4316e-07
1.53919e-07
5.93687e-06
6.37768e-06
1.0576e-08
6.38025e-06
2.98445e-08
6.38334e-06
4.4699e-08
6.38605e-06
5.52113e-08
6.38826e-06
6.32105e-08
6.38995e-06
6.98741e-08
6.39097e-06
7.56133e-08
6.39128e-06
8.08272e-08
6.39088e-06
8.59553e-08
6.38982e-06
9.13098e-08
6.38814e-06
9.70862e-08
6.38592e-06
1.03428e-07
6.38327e-06
1.10444e-07
6.38033e-06
1.182e-07
6.37731e-06
1.26705e-07
6.37442e-06
1.35906e-07
6.37192e-06
1.45662e-07
1.5581e-07
6.37003e-06
5.74151e-06
9.89572e-09
5.74343e-06
2.79267e-08
5.74585e-06
4.22768e-08
5.74811e-06
5.29576e-08
5.75001e-06
6.13118e-08
5.7515e-06
6.83789e-08
5.75251e-06
7.46084e-08
5.75297e-06
8.03637e-08
5.7529e-06
8.60258e-08
5.75233e-06
9.18797e-08
5.75131e-06
9.81052e-08
5.74991e-06
1.04824e-07
5.74824e-06
1.12118e-07
5.74642e-06
1.20023e-07
5.7446e-06
1.2852e-07
5.74297e-06
1.37538e-07
5.7417e-06
1.46934e-07
1.56563e-07
5.74095e-06
6.99887e-06
9.17983e-09
7.00086e-06
2.59357e-08
7.00345e-06
3.96851e-08
7.00599e-06
5.04197e-08
7.00822e-06
5.90796e-08
7.01007e-06
6.6536e-08
7.01143e-06
7.32457e-08
7.01226e-06
7.95367e-08
7.01255e-06
8.57286e-08
7.01236e-06
9.207e-08
7.01175e-06
9.87185e-08
7.0108e-06
1.05771e-07
7.00964e-06
1.1328e-07
7.00841e-06
1.21255e-07
7.00727e-06
1.29656e-07
7.00641e-06
1.38398e-07
7.00601e-06
1.47342e-07
1.56371e-07
7.0062e-06
8.5316e-06
8.43064e-09
8.53366e-06
2.3873e-08
8.53643e-06
3.69097e-08
8.53931e-06
4.75438e-08
8.54198e-06
5.64108e-08
8.54432e-06
6.41982e-08
8.54623e-06
7.13339e-08
8.54766e-06
7.81087e-08
8.54861e-06
8.47801e-08
8.54912e-06
9.15514e-08
8.54929e-06
9.85512e-08
8.54921e-06
1.05849e-07
8.54902e-06
1.13471e-07
8.54888e-06
1.21402e-07
8.54895e-06
1.29586e-07
8.54941e-06
1.37936e-07
8.55043e-06
1.46323e-07
1.54656e-07
8.55214e-06
1.04e-05
7.64232e-09
1.04022e-05
2.17038e-08
1.04052e-05
3.38832e-08
1.04085e-05
4.42156e-08
1.04118e-05
5.31251e-08
1.04149e-05
6.11204e-08
1.04177e-05
6.8566e-08
1.04201e-05
7.5708e-08
1.04221e-05
8.2744e-08
1.04238e-05
8.98258e-08
1.04253e-05
9.70469e-08
1.04267e-05
1.04449e-07
1.04282e-05
1.12034e-07
1.04298e-05
1.19768e-07
1.04318e-05
1.27589e-07
1.04343e-05
1.35411e-07
1.04375e-05
1.4312e-07
1.50654e-07
1.04415e-05
1.26776e-05
6.78843e-09
1.268e-05
1.93248e-08
1.26835e-05
3.04413e-08
1.26875e-05
4.02075e-08
1.26917e-05
4.891e-08
1.26959e-05
5.69004e-08
1.27e-05
6.4456e-08
1.2704e-05
7.17667e-08
1.27077e-05
7.89715e-08
1.27114e-05
8.61692e-08
1.2715e-05
9.3415e-08
1.27187e-05
1.00723e-07
1.27227e-05
1.08076e-07
1.2727e-05
1.15428e-07
1.27319e-05
1.22716e-07
1.27375e-05
1.29861e-07
1.27438e-05
1.36767e-07
1.434e-07
1.27511e-05
1.54542e-05
5.80322e-09
1.5457e-05
1.65272e-08
1.54611e-05
2.62601e-08
1.54663e-05
3.50977e-08
1.54719e-05
4.32357e-08
1.54779e-05
5.08963e-08
1.54841e-05
5.82586e-08
1.54905e-05
6.54439e-08
1.54969e-05
7.25326e-08
1.55035e-05
7.95725e-08
1.55103e-05
8.65806e-08
1.55175e-05
9.35459e-08
1.55251e-05
1.00435e-07
1.55334e-05
1.07199e-07
1.55423e-05
1.13776e-07
1.55521e-05
1.201e-07
1.55627e-05
1.26094e-07
1.31747e-07
1.55744e-05
1.88389e-05
4.55575e-09
1.88425e-05
1.294e-08
1.8848e-05
2.07701e-08
1.88549e-05
2.81604e-08
1.88629e-05
3.52407e-08
1.88717e-05
4.21208e-08
1.88811e-05
4.88742e-08
1.8891e-05
5.5544e-08
1.89013e-05
6.21506e-08
1.89122e-05
6.86933e-08
1.89236e-05
7.5153e-08
1.89357e-05
8.14961e-08
1.89484e-05
8.76788e-08
1.8962e-05
9.36506e-08
1.89764e-05
9.93571e-08
1.89918e-05
1.04746e-07
1.90081e-05
1.09757e-07
1.14398e-07
1.90255e-05
2.29651e-05
2.78465e-09
2.29701e-05
7.91205e-09
2.29779e-05
1.29966e-08
2.29879e-05
1.81883e-08
2.29996e-05
2.356e-08
2.30126e-05
2.90905e-08
2.30267e-05
3.47249e-08
2.30419e-05
4.04198e-08
2.30579e-05
4.61345e-08
2.30748e-05
5.18185e-08
2.30925e-05
5.7416e-08
2.31111e-05
6.28727e-08
2.31307e-05
6.8137e-08
2.31512e-05
7.31593e-08
2.31726e-05
7.78934e-08
2.31951e-05
8.22985e-08
2.32185e-05
8.63321e-08
9.00116e-08
2.32429e-05
1.68123e-05
1.22291e-09
1.68166e-05
3.53938e-09
1.68234e-05
6.22885e-09
1.68321e-05
9.53186e-09
1.68422e-05
1.34713e-08
1.68534e-05
1.78686e-08
1.68655e-05
2.25519e-08
1.68785e-05
2.74233e-08
1.68923e-05
3.24022e-08
1.69067e-05
3.73998e-08
1.69218e-05
4.23345e-08
1.69375e-05
4.71398e-08
1.69539e-05
5.17601e-08
1.69709e-05
5.6147e-08
1.69885e-05
6.02585e-08
1.70068e-05
6.40607e-08
1.70256e-05
6.75208e-08
7.06567e-08
1.70449e-05
1.46361e-05
-3.36288e-10
1.46406e-05
-8.8314e-10
1.46474e-05
-6.38021e-10
1.46561e-05
8.57834e-10
1.46661e-05
3.50435e-09
1.4677e-05
6.87919e-09
1.46889e-05
1.07048e-08
1.47015e-05
1.48534e-08
1.47147e-05
1.91999e-08
1.47285e-05
2.36118e-08
1.47428e-05
2.79874e-08
1.47577e-05
3.22547e-08
1.47731e-05
3.63568e-08
1.4789e-05
4.02458e-08
1.48054e-05
4.3883e-08
1.48222e-05
4.72397e-08
1.48394e-05
5.02894e-08
5.30485e-08
1.4857e-05
1.27416e-05
-1.83399e-09
1.27461e-05
-5.36882e-09
1.27531e-05
-7.64613e-09
1.27617e-05
-7.73857e-09
1.27714e-05
-6.1406e-09
1.27819e-05
-3.65715e-09
1.27932e-05
-5.69481e-10
1.2805e-05
2.99543e-09
1.28174e-05
6.84301e-09
1.28302e-05
1.07872e-08
1.28435e-05
1.47146e-08
1.28572e-05
1.85539e-08
1.28713e-05
2.22484e-08
1.28858e-05
2.57514e-08
1.29006e-05
2.90281e-08
1.29158e-05
3.20541e-08
1.29313e-05
3.48089e-08
3.7307e-08
1.29471e-05
1.10922e-05
-3.13783e-09
1.10968e-05
-9.91263e-09
1.1104e-05
-1.49018e-08
1.11125e-05
-1.61891e-08
1.11217e-05
-1.53366e-08
1.11316e-05
-1.35974e-08
1.11422e-05
-1.11018e-08
1.11531e-05
-7.97096e-09
1.11645e-05
-4.502e-09
1.11762e-05
-9.22056e-10
1.11882e-05
2.65622e-09
1.12006e-05
6.16388e-09
1.12133e-05
9.54326e-09
1.12263e-05
1.27498e-08
1.12396e-05
1.57526e-08
1.12531e-05
1.85321e-08
1.12669e-05
2.10723e-08
2.33859e-08
1.12808e-05
9.65622e-06
-4.14262e-09
9.66088e-06
-1.45723e-08
9.66829e-06
-2.23176e-08
9.67644e-06
-2.43369e-08
9.68517e-06
-2.40666e-08
9.6945e-06
-2.29259e-08
9.70421e-06
-2.0812e-08
9.71419e-06
-1.79516e-08
9.72445e-06
-1.47566e-08
9.73498e-06
-1.14578e-08
9.74579e-06
-8.14807e-09
9.75684e-06
-4.89311e-09
9.76814e-06
-1.75283e-09
9.77966e-06
1.23108e-09
9.79138e-06
4.03098e-09
9.80328e-06
6.63131e-09
9.81533e-06
9.02112e-09
1.12124e-08
9.82751e-06
8.40579e-06
-4.57904e-09
8.41119e-06
-1.99707e-08
8.41833e-06
-2.94607e-08
8.42575e-06
-3.17531e-08
8.43396e-06
-3.22839e-08
8.44275e-06
-3.17111e-08
8.45172e-06
-2.97876e-08
8.46081e-06
-2.70358e-08
8.47004e-06
-2.39923e-08
8.47945e-06
-2.08648e-08
8.48903e-06
-1.77217e-08
8.49876e-06
-1.46266e-08
8.50864e-06
-1.16388e-08
8.51867e-06
-8.79768e-09
8.52883e-06
-6.12684e-09
8.5391e-06
-3.63993e-09
8.54947e-06
-1.34462e-09
7.67821e-10
8.55991e-06
7.31539e-06
-2.67984e-09
7.32317e-06
-2.77585e-08
7.33006e-06
-3.6352e-08
7.33679e-06
-3.84818e-08
7.34457e-06
-4.00581e-08
7.35285e-06
-3.99933e-08
7.36117e-06
-3.81038e-08
7.36944e-06
-3.53063e-08
7.37769e-06
-3.2245e-08
7.38593e-06
-2.91068e-08
7.39417e-06
-2.596e-08
7.40242e-06
-2.28767e-08
7.4107e-06
-1.9915e-08
7.41901e-06
-1.71091e-08
7.42736e-06
-1.4478e-08
7.43575e-06
-1.2032e-08
7.44418e-06
-9.77432e-09
-7.69516e-09
7.45264e-06
6.3625e-06
4.88852e-09
6.37402e-06
-3.92822e-08
6.38238e-06
-4.47125e-08
6.39023e-06
-4.63289e-08
6.39831e-06
-4.81434e-08
6.40609e-06
-4.77643e-08
6.41332e-06
-4.53365e-08
6.42015e-06
-4.21353e-08
6.42668e-06
-3.87736e-08
6.43294e-06
-3.53726e-08
6.43899e-06
-3.20065e-08
6.44487e-06
-2.87586e-08
6.45064e-06
-2.56835e-08
6.45634e-06
-2.28068e-08
6.462e-06
-2.01401e-08
6.46765e-06
-1.7688e-08
6.47333e-06
-1.54456e-08
-1.33907e-08
6.47902e-06
5.53641e-06
1.39422e-08
5.54863e-06
-5.15015e-08
5.5593e-06
-5.5382e-08
5.56918e-06
-5.6213e-08
5.57766e-06
-5.66234e-08
5.58412e-06
-5.42182e-08
5.58865e-06
-4.98643e-08
5.5918e-06
-4.5288e-08
5.594e-06
-4.09728e-08
5.59552e-06
-3.68964e-08
5.59658e-06
-3.30687e-08
5.59735e-06
-2.95295e-08
5.59797e-06
-2.62947e-08
5.59852e-06
-2.33593e-08
5.59909e-06
-2.07119e-08
5.59975e-06
-1.83505e-08
5.60057e-06
-1.62667e-08
-1.43793e-08
5.60156e-06
4.85769e-06
-1.61402e-08
4.86144e-06
-5.52471e-08
4.86264e-06
-5.65841e-08
4.86093e-06
-5.45092e-08
4.85807e-06
-5.37562e-08
4.85296e-06
-4.91101e-08
4.84563e-06
-4.25373e-08
4.83666e-06
-3.63212e-08
4.82669e-06
-3.09952e-08
4.81627e-06
-2.64845e-08
4.80586e-06
-2.26559e-08
4.79574e-06
-1.94073e-08
4.78609e-06
-1.66479e-08
4.77703e-06
-1.43003e-08
4.76863e-06
-1.23031e-08
4.76092e-06
-1.06474e-08
4.75402e-06
-9.36496e-09
-8.96985e-09
4.74861e-06
4.18654e-06
4.13129e-06
4.0747e-06
4.0202e-06
3.96644e-06
3.91733e-06
3.87479e-06
3.83847e-06
3.80748e-06
3.78099e-06
3.75834e-06
3.73893e-06
3.72228e-06
3.70798e-06
3.69568e-06
3.68503e-06
3.67566e-06
3.66669e-06
1.18347e-07
-1.18347e-07
3.5581e-07
-2.37464e-07
6.4092e-07
-2.8511e-07
9.29256e-07
-2.88336e-07
1.19839e-06
-2.69132e-07
1.43717e-06
-2.38786e-07
1.63989e-06
-2.02715e-07
1.80366e-06
-1.63774e-07
1.92712e-06
-1.23459e-07
2.00951e-06
-8.23907e-08
2.05033e-06
-4.08199e-08
2.05041e-06
-7.88826e-11
2.00259e-06
4.78223e-08
1.91342e-06
8.91651e-08
1.79023e-06
1.23198e-07
1.64316e-06
1.47064e-07
1.48512e-06
1.58043e-07
1.33003e-06
1.55093e-07
1.19083e-06
1.39194e-07
1.07638e-06
1.14454e-07
9.88219e-07
8.81601e-08
9.19271e-07
6.89483e-08
8.55788e-07
6.34821e-08
7.81842e-07
7.39466e-08
6.83187e-07
9.86551e-08
5.48318e-07
1.34869e-07
3.67598e-07
1.8072e-07
1.32744e-07
2.34854e-07
-1.62966e-07
2.9571e-07
-5.21313e-07
3.58347e-07
-9.35544e-07
4.14232e-07
-1.39316e-06
4.57612e-07
-1.87929e-06
4.86136e-07
-2.37878e-06
4.9949e-07
-2.87764e-06
4.98861e-07
-3.36404e-06
4.86392e-07
-3.82873e-06
4.64693e-07
-4.26519e-06
4.36463e-07
-4.66939e-06
4.04195e-07
-5.03941e-06
3.70021e-07
-5.37507e-06
3.35661e-07
-5.67744e-06
3.02376e-07
-5.94845e-06
2.71008e-07
-6.1905e-06
2.42047e-07
-6.40621e-06
2.1571e-07
-6.59822e-06
1.92015e-07
-6.76907e-06
1.70845e-07
-6.92107e-06
1.52002e-07
-7.05632e-06
1.35248e-07
-7.17665e-06
1.20332e-07
-7.28366e-06
1.07009e-07
-7.37871e-06
9.50499e-08
-7.46296e-06
8.42481e-08
-7.53738e-06
7.44204e-08
-7.60278e-06
6.54064e-08
-7.65985e-06
5.70674e-08
-7.70914e-06
4.92844e-08
-7.75109e-06
4.19542e-08
-7.78608e-06
3.49883e-08
-7.81439e-06
2.83108e-08
-7.83625e-06
2.18579e-08
-7.85184e-06
1.55897e-08
-7.86136e-06
9.52676e-09
-7.86504e-06
3.6747e-09
-7.86361e-06
-1.42269e-09
-7.85749e-06
-6.11986e-09
-7.84686e-06
-1.0635e-08
-7.83168e-06
-1.51782e-08
-7.81181e-06
-1.98734e-08
-7.787e-06
-2.48102e-08
-7.75693e-06
-3.00678e-08
-7.7212e-06
-3.57271e-08
-7.67933e-06
-4.18742e-08
-7.63073e-06
-4.8603e-08
-7.57471e-06
-5.6017e-08
-7.51048e-06
-6.42293e-08
-7.43712e-06
-7.3363e-08
-7.35357e-06
-8.35497e-08
-7.25864e-06
-9.49278e-08
-7.151e-06
-1.07638e-07
-7.02918e-06
-1.21818e-07
-6.89159e-06
-1.37595e-07
-6.73652e-06
-1.55072e-07
-6.5622e-06
-1.74315e-07
-6.36687e-06
-1.95334e-07
-6.14881e-06
-2.18061e-07
-5.90648e-06
-2.4233e-07
-5.63863e-06
-2.67848e-07
-5.34445e-06
-2.94181e-07
-5.0237e-06
-3.20745e-07
-4.6769e-06
-3.46802e-07
-4.30541e-06
-3.71493e-07
-3.91153e-06
-3.93878e-07
-3.49853e-06
-4.13005e-07
-3.07053e-06
-4.27997e-07
-2.63239e-06
-4.38134e-07
-2.18945e-06
-4.42945e-07
-1.74719e-06
-4.42255e-07
-1.31106e-06
-4.36134e-07
-8.86285e-07
-4.24776e-07
-4.77841e-07
-4.08444e-07
-8.89046e-08
-3.88936e-07
2.79502e-07
-3.68407e-07
6.25974e-07
-3.46472e-07
9.49403e-07
-3.23429e-07
1.24967e-06
-3.00264e-07
1.52718e-06
-2.77514e-07
1.78276e-06
-2.55575e-07
2.01746e-06
-2.34706e-07
2.23252e-06
-2.15058e-07
2.42922e-06
-1.96702e-07
2.60887e-06
-1.79649e-07
2.77274e-06
-1.6387e-07
2.92205e-06
-1.49305e-07
3.05793e-06
-1.35882e-07
3.18145e-06
-1.23518e-07
3.29358e-06
-1.1213e-07
3.39521e-06
-1.01638e-07
3.48718e-06
-9.1966e-08
3.57022e-06
-8.30447e-08
3.64504e-06
-7.48115e-08
3.71225e-06
-6.72102e-08
3.77244e-06
-6.01912e-08
3.82615e-06
-5.37104e-08
3.87388e-06
-4.77289e-08
3.91609e-06
-4.22122e-08
3.95322e-06
-3.71293e-08
3.98567e-06
-3.24522e-08
4.01383e-06
-2.81552e-08
4.03804e-06
-2.42139e-08
4.05864e-06
-2.0605e-08
4.07595e-06
-1.73057e-08
4.09024e-06
-1.42929e-08
4.10178e-06
-1.15355e-08
4.11076e-06
-8.98132e-09
4.11737e-06
-6.61401e-09
4.12182e-06
-4.44228e-09
4.12375e-06
-1.93033e-09
4.12188e-06
1.87061e-09
4.11572e-06
6.15233e-09
4.10567e-06
1.00544e-08
4.09228e-06
1.3392e-08
4.07605e-06
1.62227e-08
4.05748e-06
1.85731e-08
4.03699e-06
2.04895e-08
4.01496e-06
2.20345e-08
3.9917e-06
2.32591e-08
3.9675e-06
2.4199e-08
3.94262e-06
2.48822e-08
3.91729e-06
2.53314e-08
3.89172e-06
2.55674e-08
3.86611e-06
2.56109e-08
3.84062e-06
2.54836e-08
3.81542e-06
2.5208e-08
3.79061e-06
2.48077e-08
3.7663e-06
2.43069e-08
3.74257e-06
2.37297e-08
3.71947e-06
2.31001e-08
3.69703e-06
2.24418e-08
3.67525e-06
2.17781e-08
3.65412e-06
2.11328e-08
3.63359e-06
2.05298e-08
3.61359e-06
1.99944e-08
3.59404e-06
1.95545e-08
3.5748e-06
1.92416e-08
3.55571e-06
1.90933e-08
3.53655e-06
1.91559e-08
3.51706e-06
1.94886e-08
3.49689e-06
2.01697e-08
3.47559e-06
2.1306e-08
3.45254e-06
2.30479e-08
3.42692e-06
2.56132e-08
3.3976e-06
2.93278e-08
3.3629e-06
3.46955e-08
3.32036e-06
4.2545e-08
3.26616e-06
5.41988e-08
3.19367e-06
7.24864e-08
3.09332e-06
1.00347e-07
2.93702e-06
1.56306e-07
2.21341e-07
2.71568e-06
2.67108e-07
-3.85455e-07
5.55274e-07
-5.2563e-07
8.10986e-07
-5.40821e-07
1.03252e-06
-5.0987e-07
1.22165e-06
-4.5826e-07
1.37977e-06
-3.96908e-07
1.50801e-06
-3.30958e-07
1.60723e-06
-2.62993e-07
1.67827e-06
-1.94502e-07
1.7224e-06
-1.26518e-07
1.74143e-06
-5.98495e-08
1.73573e-06
5.61745e-09
1.71401e-06
6.95444e-08
1.67077e-06
1.32404e-07
1.60251e-06
1.91464e-07
1.50691e-06
2.42662e-07
1.3841e-06
2.80854e-07
1.23761e-06
3.01581e-07
1.07274e-06
3.04063e-07
8.93363e-07
2.93833e-07
6.98902e-07
2.82621e-07
4.83075e-07
2.84775e-07
2.35476e-07
3.11081e-07
-5.55859e-08
3.65008e-07
-4.00417e-07
4.43486e-07
-8.04969e-07
5.39421e-07
-1.26782e-06
6.43573e-07
-1.77862e-06
7.4565e-07
-2.31861e-06
8.35704e-07
-2.86592e-06
9.05652e-07
-3.40197e-06
9.50286e-07
-3.91209e-06
9.6773e-07
-4.38525e-06
9.593e-07
-4.81441e-06
9.28645e-07
-5.19628e-06
8.80737e-07
-5.53085e-06
8.20962e-07
-5.82056e-06
7.54403e-07
-6.06949e-06
6.85393e-07
-6.28259e-06
6.17288e-07
-6.46501e-06
5.52448e-07
-6.62169e-06
4.9234e-07
-6.75702e-06
4.37703e-07
-6.87475e-06
3.88733e-07
-6.97796e-06
3.45258e-07
-7.06913e-06
3.06882e-07
-7.1502e-06
2.73089e-07
-7.22269e-06
2.43327e-07
-7.28774e-06
2.17056e-07
-7.34627e-06
1.93773e-07
-7.39896e-06
1.73028e-07
-7.44638e-06
1.54428e-07
-7.48897e-06
1.37638e-07
-7.52709e-06
1.2237e-07
-7.56105e-06
1.08384e-07
-7.59112e-06
9.54753e-08
-7.61753e-06
8.34741e-08
-7.64048e-06
7.22356e-08
-7.66016e-06
6.16382e-08
-7.67675e-06
5.15785e-08
-7.69041e-06
4.19689e-08
-7.70129e-06
3.2735e-08
-7.70951e-06
2.38117e-08
-7.71511e-06
1.51248e-08
-7.71801e-06
6.57586e-09
-7.71744e-06
-1.99843e-09
-7.71281e-06
-1.0748e-08
-7.70372e-06
-1.97203e-08
-7.68992e-06
-2.89848e-08
-7.67114e-06
-3.86458e-08
-7.64713e-06
-4.88224e-08
-7.61755e-06
-5.96463e-08
-7.58202e-06
-7.12616e-08
-7.54006e-06
-8.38281e-08
-7.49114e-06
-9.75238e-08
-7.43461e-06
-1.12546e-07
-7.36973e-06
-1.29112e-07
-7.29563e-06
-1.4746e-07
-7.21134e-06
-1.67849e-07
-7.11571e-06
-1.9055e-07
-7.00751e-06
-2.15843e-07
-6.88532e-06
-2.44005e-07
-6.74762e-06
-2.75293e-07
-6.59277e-06
-3.09924e-07
-6.41904e-06
-3.48043e-07
-6.22469e-06
-3.89689e-07
-6.008e-06
-4.34749e-07
-5.76742e-06
-4.82912e-07
-5.50164e-06
-5.33622e-07
-5.20979e-06
-5.86031e-07
-4.89155e-06
-6.38986e-07
-4.54733e-06
-6.91021e-07
-4.17842e-06
-7.40411e-07
-3.78703e-06
-7.85263e-07
-3.37638e-06
-8.23654e-07
-2.95057e-06
-8.53808e-07
-2.51442e-06
-8.74288e-07
-2.0732e-06
-8.84165e-07
-1.63233e-06
-8.83117e-07
-1.19704e-06
-8.71424e-07
-7.71929e-07
-8.49891e-07
-3.60485e-07
-8.19888e-07
3.39943e-08
-7.83416e-07
4.07938e-07
-7.4235e-07
7.59651e-07
-6.98185e-07
1.08871e-06
-6.52488e-07
1.39507e-06
-6.06622e-07
1.67917e-06
-5.6162e-07
1.94182e-06
-5.18224e-07
2.18404e-06
-4.76929e-07
2.40702e-06
-4.3803e-07
2.61198e-06
-4.01664e-07
2.80018e-06
-3.67852e-07
2.97284e-06
-3.36532e-07
3.13113e-06
-3.07592e-07
3.27614e-06
-2.80887e-07
3.40888e-06
-2.56257e-07
3.53029e-06
-2.33541e-07
3.64123e-06
-2.12583e-07
3.7425e-06
-1.93234e-07
3.83481e-06
-1.7536e-07
3.91884e-06
-1.58839e-07
3.99519e-06
-1.43561e-07
4.06443e-06
-1.29429e-07
4.12708e-06
-1.16358e-07
4.18362e-06
-1.04272e-07
4.23451e-06
-9.31037e-08
4.28018e-06
-8.27944e-08
4.32101e-06
-7.32902e-08
4.3574e-06
-6.45426e-08
4.38969e-06
-5.65063e-08
4.41823e-06
-4.91387e-08
4.44332e-06
-4.23983e-08
4.46527e-06
-3.62425e-08
4.48436e-06
-3.06223e-08
4.50086e-06
-2.54805e-08
4.51501e-06
-2.0767e-08
4.527e-06
-1.64287e-08
4.53743e-06
-1.23701e-08
4.54756e-06
-8.25294e-09
4.55768e-06
-3.96791e-09
4.56736e-06
3.72231e-10
4.57628e-06
4.47201e-09
4.58411e-06
8.39472e-09
4.59066e-06
1.20254e-08
4.59585e-06
1.52934e-08
4.59967e-06
1.82164e-08
4.60212e-06
2.0805e-08
4.60325e-06
2.30762e-08
4.60308e-06
2.50526e-08
4.60165e-06
2.67595e-08
4.59899e-06
2.82237e-08
4.59513e-06
2.94738e-08
4.59007e-06
3.05392e-08
4.58383e-06
3.14496e-08
4.57641e-06
3.22326e-08
4.5678e-06
3.29134e-08
4.55802e-06
3.3513e-08
4.54707e-06
3.40481e-08
4.53498e-06
3.45309e-08
4.52179e-06
3.49703e-08
4.50755e-06
3.53738e-08
4.49233e-06
3.57495e-08
4.47621e-06
3.611e-08
4.45929e-06
3.64747e-08
4.44166e-06
3.6874e-08
4.4234e-06
3.73532e-08
4.40458e-06
3.79763e-08
4.38524e-06
3.8832e-08
4.36536e-06
4.00407e-08
4.3449e-06
4.17666e-08
4.32372e-06
4.42357e-08
4.30156e-06
4.77653e-08
4.27807e-06
5.28201e-08
4.25268e-06
6.00855e-08
4.22452e-06
7.0703e-08
4.1924e-06
8.63203e-08
4.15404e-06
1.10849e-07
4.10671e-06
1.4768e-07
4.04353e-06
2.19486e-07
3.19553e-07
3.94532e-06
2.6794e-07
-6.53395e-07
5.16457e-07
-7.74147e-07
7.11501e-07
-7.35866e-07
8.66756e-07
-6.65125e-07
9.92757e-07
-5.8426e-07
1.09434e-06
-4.98491e-07
1.17313e-06
-4.09747e-07
1.22929e-06
-3.19156e-07
1.26253e-06
-2.2774e-07
1.27263e-06
-1.36616e-07
1.25976e-06
-4.69852e-08
1.22515e-06
4.0228e-08
1.17013e-06
1.24569e-07
1.09672e-06
2.05817e-07
1.00528e-06
2.82903e-07
8.94647e-07
3.53292e-07
7.62253e-07
4.13248e-07
6.0415e-07
4.59684e-07
4.14249e-07
4.93963e-07
1.8417e-07
5.23911e-07
-9.49451e-08
5.61736e-07
-4.29445e-07
6.19276e-07
-8.20911e-07
7.02546e-07
-1.26509e-06
8.0919e-07
-1.75141e-06
9.29803e-07
-2.26312e-06
1.05114e-06
-2.77929e-06
1.15974e-06
-3.27828e-06
1.24464e-06
-3.74148e-06
1.29891e-06
-4.15599e-06
1.32016e-06
-4.51558e-06
1.30988e-06
-4.82019e-06
1.27233e-06
-5.07428e-06
1.21339e-06
-5.28508e-06
1.13944e-06
-5.46088e-06
1.05654e-06
-5.60976e-06
9.69845e-07
-5.73878e-06
8.8342e-07
-5.85355e-06
8.00164e-07
-5.95822e-06
7.21953e-07
-6.05559e-06
6.49827e-07
-6.14745e-06
5.84199e-07
-6.23479e-06
5.25039e-07
-6.31809e-06
4.72032e-07
-6.39753e-06
4.24697e-07
-6.47312e-06
3.82475e-07
-6.54482e-06
3.44788e-07
-6.61257e-06
3.11078e-07
-6.67634e-06
2.80825e-07
-6.73613e-06
2.53561e-07
-6.79197e-06
2.28871e-07
-6.84393e-06
2.06392e-07
-6.8921e-06
1.85808e-07
-6.93658e-06
1.66849e-07
-6.97748e-06
1.49277e-07
-7.01489e-06
1.32889e-07
-7.04892e-06
1.17506e-07
-7.07966e-06
1.0297e-07
-7.10716e-06
8.91408e-08
-7.13147e-06
7.58875e-08
-7.15259e-06
6.30895e-08
-7.17048e-06
5.06301e-08
-7.18507e-06
3.83954e-08
-7.19621e-06
2.62656e-08
-7.20373e-06
1.40999e-08
-7.20752e-06
1.78583e-09
-7.20745e-06
-1.08171e-08
-7.20336e-06
-2.38095e-08
-7.19504e-06
-3.73073e-08
-7.18223e-06
-5.14517e-08
-7.16465e-06
-6.64044e-08
-7.14195e-06
-8.2347e-08
-7.11373e-06
-9.94828e-08
-7.07951e-06
-1.18039e-07
-7.03877e-06
-1.38271e-07
-6.99085e-06
-1.60463e-07
-6.93503e-06
-1.84929e-07
-6.87047e-06
-2.12019e-07
-6.79621e-06
-2.42109e-07
-6.71116e-06
-2.75604e-07
-6.61408e-06
-3.12924e-07
-6.50359e-06
-3.54491e-07
-6.37818e-06
-4.00707e-07
-6.23618e-06
-4.51919e-07
-6.07584e-06
-5.08381e-07
-5.89534e-06
-5.70197e-07
-5.69284e-06
-6.3725e-07
-5.46661e-06
-7.09133e-07
-5.21517e-06
-7.85067e-07
-4.93737e-06
-8.63828e-07
-4.63265e-06
-9.43705e-07
-4.30118e-06
-1.0225e-06
-3.94402e-06
-1.09757e-06
-3.5633e-06
-1.16599e-06
-3.16217e-06
-1.22478e-06
-2.74485e-06
-1.27114e-06
-2.31631e-06
-1.30283e-06
-1.88207e-06
-1.3184e-06
-1.44779e-06
-1.3174e-06
-1.01885e-06
-1.30036e-06
-5.9995e-07
-1.2688e-06
-1.94892e-07
-1.22494e-06
1.92754e-07
-1.17106e-06
5.60142e-07
-1.10974e-06
9.05879e-07
-1.04392e-06
1.22938e-06
-9.75989e-07
1.53066e-06
-9.07901e-07
1.81021e-06
-8.41165e-07
2.06885e-06
-7.76864e-07
2.30763e-06
-7.15713e-07
2.52773e-06
-6.5813e-07
2.73037e-06
-6.04303e-07
2.91677e-06
-5.5425e-07
3.0881e-06
-5.0787e-07
3.2455e-06
-4.64991e-07
3.39001e-06
-4.25396e-07
3.52261e-06
-3.88849e-07
3.64418e-06
-3.55112e-07
3.75555e-06
-3.23954e-07
3.85747e-06
-2.9516e-07
3.95065e-06
-2.68533e-07
4.0357e-06
-2.43893e-07
4.11322e-06
-2.21082e-07
4.18375e-06
-1.99958e-07
4.24779e-06
-1.80395e-07
4.3058e-06
-1.62285e-07
4.35823e-06
-1.45529e-07
4.40547e-06
-1.3004e-07
4.44793e-06
-1.15743e-07
4.48595e-06
-1.02567e-07
4.51989e-06
-9.04474e-08
4.55008e-06
-7.93249e-08
4.57682e-06
-6.91415e-08
4.60042e-06
-5.98393e-08
4.62115e-06
-5.13574e-08
4.6393e-06
-4.3632e-08
4.65513e-06
-3.65957e-08
4.66887e-06
-3.01637e-08
4.68076e-06
-2.4264e-08
4.69128e-06
-1.87694e-08
4.70087e-06
-1.35574e-08
4.70984e-06
-8.60289e-09
4.71827e-06
-3.95314e-09
4.72627e-06
3.90731e-10
4.73378e-06
4.51279e-09
4.74084e-06
8.23927e-09
4.74742e-06
1.16332e-08
4.75353e-06
1.4694e-08
4.75917e-06
1.74392e-08
4.76433e-06
1.98949e-08
4.76899e-06
2.2093e-08
4.77315e-06
2.40691e-08
4.77676e-06
2.58625e-08
4.77978e-06
2.75139e-08
4.78217e-06
2.90633e-08
4.78386e-06
3.05483e-08
4.78477e-06
3.20016e-08
4.78483e-06
3.34492e-08
4.78397e-06
3.49092e-08
4.78211e-06
3.6392e-08
4.77918e-06
3.79005e-08
4.77512e-06
3.9433e-08
4.76988e-06
4.09857e-08
4.76344e-06
4.25575e-08
4.75576e-06
4.41545e-08
4.74683e-06
4.57957e-08
4.73667e-06
4.75191e-08
4.72526e-06
4.93886e-08
4.71259e-06
5.15016e-08
4.69863e-06
5.39994e-08
4.68331e-06
5.70824e-08
4.66652e-06
6.10323e-08
4.64803e-06
6.62466e-08
4.62755e-06
7.33025e-08
4.6046e-06
8.30414e-08
4.57848e-06
9.68136e-08
4.54824e-06
1.16567e-07
4.51271e-06
1.46374e-07
4.46988e-06
1.90517e-07
4.42282e-06
2.6654e-07
3.73932e-07
4.36844e-06
2.17624e-07
-8.71019e-07
3.81183e-07
-9.37705e-07
5.00933e-07
-8.55615e-07
5.9573e-07
-7.59922e-07
6.72488e-07
-6.61018e-07
7.32665e-07
-5.58668e-07
7.75661e-07
-4.52743e-07
8.00216e-07
-3.43711e-07
8.05022e-07
-2.32545e-07
7.88996e-07
-1.2059e-07
7.51576e-07
-9.56508e-09
6.92201e-07
9.9603e-08
6.11215e-07
2.05555e-07
5.09224e-07
3.07808e-07
3.86406e-07
4.0572e-07
2.41498e-07
4.982e-07
7.07851e-08
5.83961e-07
-1.32718e-07
6.63188e-07
-3.78483e-07
7.39729e-07
-6.75622e-07
8.2105e-07
-1.02876e-06
9.14876e-07
-1.43458e-06
1.02509e-06
-1.88086e-06
1.14883e-06
-2.3482e-06
1.27653e-06
-2.81328e-06
1.39489e-06
-3.25314e-06
1.49099e-06
-3.6491e-06
1.55571e-06
-3.98966e-06
1.58519e-06
-4.27118e-06
1.58043e-06
-4.49682e-06
1.5458e-06
-4.67445e-06
1.4875e-06
-4.81427e-06
1.41215e-06
-4.92682e-06
1.32594e-06
-5.02148e-06
1.23411e-06
-5.10574e-06
1.14079e-06
-5.18491e-06
1.04901e-06
-5.26237e-06
9.60879e-07
-5.3399e-06
8.777e-07
-5.41815e-06
8.00206e-07
-5.49702e-06
7.28691e-07
-5.57596e-06
6.63143e-07
-5.65427e-06
6.03348e-07
-5.7312e-06
5.4896e-07
-5.80607e-06
4.99562e-07
-5.8783e-06
4.54708e-07
-5.94745e-06
4.13943e-07
-6.01321e-06
3.76833e-07
-6.07535e-06
3.42966e-07
-6.13375e-06
3.11965e-07
-6.18837e-06
2.83486e-07
-6.2392e-06
2.57221e-07
-6.28628e-06
2.32894e-07
-6.32969e-06
2.10257e-07
-6.36951e-06
1.89091e-07
-6.40581e-06
1.69197e-07
-6.43871e-06
1.50397e-07
-6.46826e-06
1.32525e-07
-6.49455e-06
1.15431e-07
-6.51763e-06
9.89698e-08
-6.53755e-06
8.3005e-08
-6.55432e-06
6.74018e-08
-6.56795e-06
5.20253e-08
-6.57842e-06
3.67348e-08
-6.5857e-06
2.13837e-08
-6.58975e-06
5.82984e-09
-6.59049e-06
-1.00728e-08
-6.58782e-06
-2.64769e-08
-6.58158e-06
-4.35473e-08
-6.57156e-06
-6.14707e-08
-6.55751e-06
-8.0457e-08
-6.53912e-06
-1.00741e-07
-6.51602e-06
-1.22585e-07
-6.48777e-06
-1.46284e-07
-6.45387e-06
-1.72169e-07
-6.41373e-06
-2.00607e-07
-6.36665e-06
-2.32011e-07
-6.31183e-06
-2.66834e-07
-6.24837e-06
-3.05577e-07
-6.17519e-06
-3.48775e-07
-6.09112e-06
-3.96995e-07
-5.9948e-06
-4.50819e-07
-5.88469e-06
-5.1081e-07
-5.75913e-06
-5.77484e-07
-5.61626e-06
-6.51244e-07
-5.45414e-06
-7.32317e-07
-5.27074e-06
-8.20653e-07
-5.06405e-06
-9.15825e-07
-4.83221e-06
-1.01691e-06
-4.57368e-06
-1.12236e-06
-4.28744e-06
-1.22994e-06
-3.97323e-06
-1.33671e-06
-3.63176e-06
-1.43903e-06
-3.26492e-06
-1.53283e-06
-2.87585e-06
-1.61385e-06
-2.4689e-06
-1.67809e-06
-2.04942e-06
-1.72231e-06
-1.62338e-06
-1.74443e-06
-1.19695e-06
-1.74383e-06
-7.75938e-07
-1.72138e-06
-3.65427e-07
-1.67931e-06
3.01903e-08
-1.62056e-06
4.07488e-07
-1.54836e-06
7.64345e-07
-1.4666e-06
1.09953e-06
-1.37911e-06
1.41262e-06
-1.28908e-06
1.70381e-06
-1.19909e-06
1.97376e-06
-1.11112e-06
2.22342e-06
-1.02653e-06
2.45393e-06
-9.46217e-07
2.66648e-06
-8.70686e-07
2.86232e-06
-8.00137e-07
3.04263e-06
-7.34561e-07
3.20856e-06
-6.738e-07
3.36118e-06
-6.17612e-07
3.50148e-06
-5.657e-07
3.63038e-06
-5.17752e-07
3.74873e-06
-4.73454e-07
3.85728e-06
-4.32506e-07
3.95675e-06
-3.94628e-07
4.04778e-06
-3.59564e-07
4.13097e-06
-3.27084e-07
4.20687e-06
-2.96983e-07
4.27599e-06
-2.69077e-07
4.3388e-06
-2.43207e-07
4.39575e-06
-2.19231e-07
4.44724e-06
-1.97023e-07
4.49367e-06
-1.76472e-07
4.53541e-06
-1.5748e-07
4.5728e-06
-1.39958e-07
4.60618e-06
-1.23823e-07