/*--------------------------------*- C++ -*----------------------------------*\
  =========                 |
  \\      /  F ield         | OpenFOAM: The Open Source CFD Toolbox
   \\    /   O peration     | Website:  https://openfoam.org
    \\  /    A nd           | Version:  12
     \\/     M anipulation  |
\*---------------------------------------------------------------------------*/
FoamFile
{
    format      ascii;
    class       volVectorField;
    location    "0.03";
    object      U;
}
// * * * * * * * * * * * * * * * * * * * * * * * * * * * * * * * * * * * * * //

dimensions      [0 1 -1 0 0 0 0];

internalField   nonuniform List<vector> 
12225
(
(9.86047 -0.875596 0)
(9.66986 -0.702015 0)
(9.45293 -0.388717 0)
(9.21365 -0.188709 0)
(8.98567 -0.0839026 0)
(8.78399 -0.0316985 0)
(8.60827 -0.00571974 0)
(8.45488 0.00749421 0)
(8.32017 0.0144722 0)
(8.20036 0.0183505 0)
(8.09167 0.0207189 0)
(7.99073 0.0224506 0)
(7.89445 0.0240641 0)
(7.80004 0.0259496 0)
(7.70332 0.0284946 0)
(7.60212 0.0324876 0)
(7.48006 0.0402658 0)
(7.35073 0.0508184 0)
(10.055 0.262699 0)
(10.1201 0.361073 0)
(10.1167 0.27507 0)
(10.0788 0.189147 0)
(10.0333 0.133738 0)
(9.98202 0.100118 0)
(9.92224 0.0795099 0)
(9.8551 0.0666024 0)
(9.78353 0.0582594 0)
(9.70983 0.0527141 0)
(9.63524 0.0490896 0)
(9.56033 0.047011 0)
(9.48517 0.0463519 0)
(9.40967 0.0472668 0)
(9.33266 0.0499451 0)
(9.25515 0.0563768 0)
(9.17059 0.0661477 0)
(9.09684 0.0907854 0)
(9.99921 0.0468306 0)
(10.0237 0.0358782 0)
(10.0514 0.0171354 0)
(10.0656 0.0246681 0)
(10.0691 0.0402913 0)
(10.065 0.0505821 0)
(10.0533 0.0556936 0)
(10.0344 0.0582734 0)
(10.0098 0.0598231 0)
(9.9806 0.0610656 0)
(9.94745 0.0624565 0)
(9.9107 0.0643568 0)
(9.87048 0.0670896 0)
(9.82681 0.0711221 0)
(9.77916 0.076939 0)
(9.72773 0.0864448 0)
(9.67169 0.100313 0)
(9.614 0.125751 0)
(9.9967 0.00691483 0)
(10.0075 0.0262322 0)
(10.0313 0.0409884 0)
(10.047 0.0534276 0)
(10.0549 0.0615465 0)
(10.0588 0.0650766 0)
(10.059 0.0664385 0)
(10.0547 0.0674507 0)
(10.0466 0.0687063 0)
(10.035 0.0703696 0)
(10.0202 0.0726065 0)
(10.0022 0.0756554 0)
(9.98099 0.0798235 0)
(9.95652 0.0856008 0)
(9.92847 0.0935935 0)
(9.897 0.105396 0)
(9.86274 0.122026 0)
(9.82661 0.146989 0)
(9.99911 0.00724611 0)
(10.0071 0.0351761 0)
(10.0241 0.0489308 0)
(10.0359 0.0551421 0)
(10.0426 0.0598061 0)
(10.0476 0.0631813 0)
(10.0505 0.0655772 0)
(10.0502 0.0677791 0)
(10.047 0.0702125 0)
(10.0411 0.0730697 0)
(10.0327 0.0765575 0)
(10.0216 0.0809565 0)
(10.008 0.0866212 0)
(9.99165 0.094059 0)
(9.97258 0.103917 0)
(9.95108 0.117422 0)
(9.92801 0.135486 0)
(9.90453 0.159614 0)
(10.0001 0.00974313 0)
(10.0067 0.0342272 0)
(10.0195 0.0455837 0)
(10.029 0.0510353 0)
(10.035 0.0564034 0)
(10.0396 0.061101 0)
(10.0427 0.064723 0)
(10.0434 0.0679586 0)
(10.0417 0.0713731 0)
(10.0377 0.0752454 0)
(10.0317 0.0798158 0)
(10.0235 0.085386 0)
(10.0131 0.0923274 0)
(10.0005 0.101131 0)
(9.9858 0.112406 0)
(9.96943 0.127061 0)
(9.95223 0.14578 0)
(9.93539 0.169287 0)
(10.0002 0.00964294 0)
(10.0057 0.0301038 0)
(10.016 0.041536 0)
(10.0244 0.0482232 0)
(10.0298 0.0544143 0)
(10.0339 0.0598078 0)
(10.0366 0.0641579 0)
(10.0374 0.0681504 0)
(10.0362 0.0723738 0)
(10.0331 0.0771271 0)
(10.0282 0.0826573 0)
(10.0214 0.0892681 0)
(10.0128 0.0973262 0)
(10.0024 0.107283 0)
(9.9904 0.119667 0)
(9.9773 0.13514 0)
(9.96382 0.154168 0)
(9.95104 0.17709 0)
(10.0003 0.00884806 0)
(10.0047 0.0267707 0)
(10.0131 0.0386435 0)
(10.0207 0.0462504 0)
(10.0257 0.0527991 0)
(10.0293 0.0585827 0)
(10.0317 0.0635455 0)
(10.0325 0.0682509 0)
(10.0315 0.0732367 0)
(10.0289 0.0788116 0)
(10.0247 0.0852297 0)
(10.0189 0.0927893 0)
(10.0116 0.101838 0)
(10.0028 0.112773 0)
(9.99293 0.126031 0)
(9.9823 0.142077 0)
(9.97162 0.161203 0)
(9.96173 0.183528 0)
(10.0003 0.00813218 0)
(10.0039 0.0242927 0)
(10.0108 0.0361678 0)
(10.0174 0.0442933 0)
(10.0221 0.0511271 0)
(10.0255 0.0573098 0)
(10.0277 0.062888 0)
(10.0285 0.0682929 0)
(10.0278 0.0740088 0)
(10.0256 0.0803577 0)
(10.022 0.0875996 0)
(10.0171 0.0960196 0)
(10.0109 0.105934 0)
(10.0036 0.117683 0)
(9.99551 0.131608 0)
(9.98699 0.148027 0)
(9.97863 0.167096 0)
(9.97109 0.18883 0)
(10.0003 0.00751853 0)
(10.0033 0.022229 0)
(10.0089 0.0338092 0)
(10.0147 0.0422865 0)
(10.0191 0.049448 0)
(10.0222 0.0560395 0)
(10.0243 0.0621942 0)
(10.0253 0.0682569 0)
(10.0248 0.0746615 0)
(10.0231 0.0817326 0)
(10.0202 0.089729 0)
(10.0162 0.0989147 0)
(10.0111 0.109569 0)
(10.0053 0.121971 0)
(9.99887 0.136378 0)
(9.9923 0.152997 0)
(9.98602 0.171892 0)
(9.98055 0.193029 0)
(10.0003 0.006957 0)
(10.0027 0.020432 0)
(10.0074 0.0316082 0)
(10.0124 0.0403209 0)
(10.0165 0.0477957 0)
(10.0195 0.0547583 0)
(10.0216 0.0614234 0)
(10.0227 0.0680861 0)
(10.0227 0.0751266 0)
(10.0215 0.0828571 0)
(10.0193 0.0915266 0)
(10.0163 0.101373 0)
(10.0124 0.112634 0)
(10.008 0.125531 0)
(10.0032 0.14025 0)
(9.99852 0.156914 0)
(9.9942 0.175531 0)
(9.99067 0.196043 0)
(10.0002 0.00646492 0)
(10.0023 0.0189715 0)
(10.0063 0.0297477 0)
(10.0107 0.0385714 0)
(10.0145 0.046284 0)
(10.0175 0.0535432 0)
(10.0196 0.0606158 0)
(10.0209 0.067768 0)
(10.0213 0.0753317 0)
(10.0207 0.0835973 0)
(10.0193 0.0927981 0)
(10.0172 0.103145 0)
(10.0145 0.114837 0)
(10.0114 0.128047 0)
(10.0082 0.142905 0)
(10.0051 0.15948 0)
(10.0025 0.177744 0)
(10.0007 0.197632 0)
(10.0002 0.00601873 0)
(10.002 0.017674 0)
(10.0054 0.0280208 0)
(10.0093 0.0368523 0)
(10.0129 0.0447438 0)
(10.0158 0.0522544 0)
(10.0181 0.0596722 0)
(10.0197 0.0672447 0)
(10.0205 0.0752598 0)
(10.0206 0.0839799 0)
(10.02 0.0936178 0)
(10.0189 0.104356 0)
(10.0173 0.116358 0)
(10.0156 0.129752 0)
(10.0138 0.144625 0)
(10.0123 0.161003 0)
(10.0114 0.178835 0)
(10.0112 0.19806 0)
(10.0002 0.0055573 0)
(10.0017 0.016344 0)
(10.0046 0.0261818 0)
(10.0081 0.0349149 0)
(10.0115 0.0429204 0)
(10.0145 0.0506432 0)
(10.017 0.0583676 0)
(10.019 0.0663225 0)
(10.0204 0.074751 0)
(10.0212 0.0838784 0)
(10.0216 0.0938895 0)
(10.0217 0.104935 0)
(10.0215 0.117138 0)
(10.0212 0.130585 0)
(10.0211 0.145322 0)
(10.0214 0.161344 0)
(10.0222 0.178579 0)
(10.0238 0.196975 0)
(10.0002 0.00507445 0)
(10.0015 0.0149593 0)
(10.004 0.024202 0)
(10.0072 0.0327071 0)
(10.0105 0.0407169 0)
(10.0136 0.0485661 0)
(10.0165 0.0565111 0)
(10.0189 0.0647565 0)
(10.0211 0.0735002 0)
(10.0229 0.0829247 0)
(10.0244 0.0931788 0)
(10.0258 0.104377 0)
(10.0271 0.116602 0)
(10.0286 0.129903 0)
(10.0303 0.14429 0)
(10.0324 0.159732 0)
(10.0351 0.176149 0)
(10.0386 0.193496 0)
(10.0001 0.00455562 0)
(10.0013 0.0134733 0)
(10.0036 0.0220053 0)
(10.0067 0.0301126 0)
(10.01 0.0379572 0)
(10.0134 0.0457798 0)
(10.0167 0.0537904 0)
(10.0199 0.0621593 0)
(10.0229 0.0710399 0)
(10.0259 0.0805678 0)
(10.0287 0.0908506 0)
(10.0316 0.101965 0)
(10.0346 0.113955 0)
(10.0378 0.126837 0)
(10.0414 0.140593 0)
(10.0455 0.155176 0)
(10.0502 0.170497 0)
(10.0555 0.186528 0)
(10.0001 0.00396998 0)
(10.0013 0.0117873 0)
(10.0035 0.0194303 0)
(10.0066 0.0269078 0)
(10.0102 0.0343384 0)
(10.014 0.041889 0)
(10.018 0.0497142 0)
(10.022 0.0579411 0)
(10.0261 0.066677 0)
(10.0304 0.0760105 0)
(10.0347 0.0860065 0)
(10.0392 0.0967036 0)
(10.044 0.108114 0)
(10.0491 0.120226 0)
(10.0546 0.133002 0)
(10.0607 0.146386 0)
(10.0672 0.160289 0)
(10.0745 0.174693 0)
(10.0001 0.00325435 0)
(10.0013 0.00971311 0)
(10.0037 0.0161795 0)
(10.0071 0.0226998 0)
(10.0111 0.0293678 0)
(10.0156 0.0362925 0)
(10.0204 0.0435707 0)
(10.0256 0.0512803 0)
(10.0309 0.0594821 0)
(10.0366 0.0682196 0)
(10.0425 0.0775167 0)
(10.0487 0.0873778 0)
(10.0553 0.0977882 0)
(10.0623 0.108716 0)
(10.0697 0.120111 0)
(10.0776 0.131915 0)
(10.0859 0.144043 0)
(10.0949 0.156487 0)
(10.0002 0.00229677 0)
(10.0016 0.00691541 0)
(10.0043 0.0117145 0)
(10.0082 0.0167784 0)
(10.013 0.0221835 0)
(10.0184 0.0279827 0)
(10.0244 0.0342106 0)
(10.0307 0.0408923 0)
(10.0375 0.0480434 0)
(10.0447 0.0556661 0)
(10.0522 0.0637487 0)
(10.0601 0.0722679 0)
(10.0684 0.0811895 0)
(10.0771 0.0904692 0)
(10.0863 0.100054 0)
(10.0958 0.109887 0)
(10.1058 0.119893 0)
(10.1162 0.13007 0)
(10.0002 0.00124883 0)
(10.0019 0.00383006 0)
(10.0051 0.00673745 0)
(10.0098 0.010116 0)
(10.0154 0.0140328 0)
(10.0218 0.0184787 0)
(10.0288 0.0234259 0)
(10.0363 0.0288553 0)
(10.0443 0.0347452 0)
(10.0526 0.0410635 0)
(10.0614 0.047772 0)
(10.0706 0.0548298 0)
(10.0801 0.0621929 0)
(10.09 0.0698136 0)
(10.1003 0.0776402 0)
(10.111 0.0856204 0)
(10.122 0.0936926 0)
(10.1334 0.101855 0)
(10.0002 0.00026973 0)
(10.0021 0.000927206 0)
(10.0059 0.00205784 0)
(10.0113 0.00391585 0)
(10.0178 0.00653707 0)
(10.025 0.0098073 0)
(10.0329 0.0136398 0)
(10.0412 0.0179924 0)
(10.05 0.0228177 0)
(10.0593 0.0280527 0)
(10.0689 0.0336368 0)
(10.0789 0.0395177 0)
(10.0892 0.0456469 0)
(10.0999 0.0519757 0)
(10.1109 0.0584552 0)
(10.1223 0.0650382 0)
(10.1339 0.0716719 0)
(10.1458 0.0783546 0)
(10.0003 -0.000693189 0)
(10.0024 -0.0020036 0)
(10.0068 -0.00269665 0)
(10.0131 -0.00227351 0)
(10.0205 -0.000788459 0)
(10.0284 0.00145509 0)
(10.037 0.00430133 0)
(10.0461 0.0076988 0)
(10.0556 0.011578 0)
(10.0655 0.0158504 0)
(10.0757 0.0204414 0)
(10.0863 0.0252927 0)
(10.0972 0.0303527 0)
(10.1085 0.0355725 0)
(10.12 0.0409059 0)
(10.1318 0.0463112 0)
(10.1438 0.0517435 0)
(10.1561 0.0572005 0)
(10.0002 -0.0016037 0)
(10.0026 -0.00493901 0)
(10.0078 -0.00746947 0)
(10.0151 -0.00837362 0)
(10.0234 -0.00792583 0)
(10.032 -0.0065995 0)
(10.0412 -0.00457064 0)
(10.0509 -0.00193591 0)
(10.061 0.00116801 0)
(10.0714 0.00462393 0)
(10.0821 0.00835993 0)
(10.0931 0.0123237 0)
(10.1044 0.0164652 0)
(10.116 0.0207369 0)
(10.1279 0.025097 0)
(10.14 0.0295095 0)
(10.1523 0.0339368 0)
(10.1648 0.0383766 0)
(10.0002 -0.0024383 0)
(10.0027 -0.00814186 0)
(10.0088 -0.0122216 0)
(10.0172 -0.0139569 0)
(10.0264 -0.0144445 0)
(10.0357 -0.0141192 0)
(10.0455 -0.0128942 0)
(10.0557 -0.010896 0)
(10.0662 -0.00840106 0)
(10.077 -0.00559185 0)
(10.088 -0.00254487 0)
(10.0994 0.000693208 0)
(10.1109 0.00407524 0)
(10.1228 0.0075576 0)
(10.1348 0.0111045 0)
(10.147 0.0146867 0)
(10.1594 0.0182753 0)
(10.172 0.0218694 0)
(10.0001 -0.00280563 0)
(10.0027 -0.012501 0)
(10.01 -0.0181307 0)
(10.0195 -0.019568 0)
(10.0291 -0.0201632 0)
(10.039 -0.0205405 0)
(10.0496 -0.0201152 0)
(10.0604 -0.0188351 0)
(10.0714 -0.017001 0)
(10.0824 -0.0148253 0)
(10.0937 -0.0124003 0)
(10.1052 -0.00978741 0)
(10.1169 -0.00704331 0)
(10.1287 -0.00421413 0)
(10.1407 -0.00133406 0)
(10.1529 0.00157071 0)
(10.1651 0.00447625 0)
(10.1775 0.0073812 0)
(9.99907 -0.00062158 0)
(10.0009 -0.0159103 0)
(10.0109 -0.0255784 0)
(10.0222 -0.0277304 0)
(10.0322 -0.0276361 0)
(10.0427 -0.0272415 0)
(10.054 -0.0264715 0)
(10.0655 -0.025308 0)
(10.0769 -0.023864 0)
(10.0881 -0.0221827 0)
(10.0993 -0.0202851 0)
(10.1106 -0.0182165 0)
(10.1219 -0.0160294 0)
(10.1332 -0.013766 0)
(10.1446 -0.0114586 0)
(10.156 -0.00913229 0)
(10.1675 -0.00680689 0)
(10.1791 -0.00448623 0)
(9.99536 0.00429109 0)
(9.99422 -0.00883976 0)
(10.0095 -0.0246003 0)
(10.026 -0.0353767 0)
(10.0388 -0.0402108 0)
(10.0505 -0.0406185 0)
(10.0621 -0.0388462 0)
(10.0733 -0.0365129 0)
(10.0838 -0.0341852 0)
(10.0938 -0.0318965 0)
(10.1034 -0.0296114 0)
(10.1128 -0.0273342 0)
(10.1219 -0.0250792 0)
(10.1309 -0.0228557 0)
(10.1398 -0.0206716 0)
(10.1487 -0.0185361 0)
(10.1575 -0.0164508 0)
(10.1665 -0.0143929 0)
(9.9916 -0.0174163 0)
(9.99283 0.000635295 0)
(10.0123 0.0187468 0)
(10.0339 0.01367 0)
(10.0512 -0.00181675 0)
(10.0646 -0.0145023 0)
(10.0744 -0.021918 0)
(10.0813 -0.0258551 0)
(10.0859 -0.0277519 0)
(10.0891 -0.0283266 0)
(10.0914 -0.0280312 0)
(10.093 -0.0271961 0)
(10.0942 -0.02604 0)
(10.0952 -0.0246996 0)
(10.0962 -0.0232662 0)
(10.0972 -0.021808 0)
(10.0985 -0.0203885 0)
(10.1002 -0.0189681 0)
(10.0237 -0.205358 0)
(10.069 -0.311428 0)
(10.0804 -0.254589 0)
(10.0735 -0.182807 0)
(10.0659 -0.132966 0)
(10.058 -0.100141 0)
(10.046 -0.0779242 0)
(10.0291 -0.062723 0)
(10.009 -0.0520723 0)
(9.9876 -0.0442525 0)
(9.96586 -0.0382259 0)
(9.94448 -0.0334033 0)
(9.92393 -0.0294287 0)
(9.90449 -0.0260715 0)
(9.88636 -0.0231862 0)
(9.86964 -0.0207121 0)
(9.85449 -0.018627 0)
(9.84097 -0.0172476 0)
(9.94217 0.672706 0)
(9.88106 0.569582 0)
(9.77835 0.340758 0)
(9.64041 0.185591 0)
(9.50096 0.0969002 0)
(9.3761 0.0490312 0)
(9.26776 0.0233829 0)
(9.17441 0.00939405 0)
(9.09448 0.00161892 0)
(9.02631 -0.0027085 0)
(8.96814 -0.00506595 0)
(8.91835 -0.00628494 0)
(8.87564 -0.00684135 0)
(8.83898 -0.0070076 0)
(8.80746 -0.00694681 0)
(8.78032 -0.00678703 0)
(8.75663 -0.00662461 0)
(8.73594 -0.00684999 0)
(0.0511861 -0.0490492 -4.1581e-20)
(0.201064 -0.205667 3.59351e-20)
(0.43834 -0.308595 0)
(0.696066 -0.345656 0)
(0.945924 -0.340961 0)
(1.17382 -0.313887 -2.78395e-20)
(1.37216 -0.275384 0)
(1.53691 -0.231271 0)
(1.66615 -0.1846 0)
(1.75917 -0.136701 0)
(1.81521 -0.0875562 2.68282e-20)
(1.83814 -0.0354687 0)
(1.81645 0.0181411 0)
(1.75455 0.0693077 0)
(1.65884 0.112978 0)
(1.53677 0.144362 2.78846e-20)
(1.39832 0.159885 0)
(1.25575 0.157925 0)
(1.12189 0.139722 0)
(1.00734 0.109565 0)
(0.917458 0.0741101 0)
(0.849839 0.0415818 0)
(0.794337 0.0196691 0)
(0.736701 0.011556 3.15139e-20)
(0.662975 0.015097 -3.20543e-20)
(0.561483 0.0273138 3.29105e-20)
(0.423431 0.0493302 3.42347e-20)
(0.240525 0.0873628 0)
(0.00517793 0.144507 0)
(-0.290637 0.213808 -3.51415e-20)
(-0.642428 0.284919 -3.23574e-20)
(-1.03975 0.348241 0)
(-1.46972 0.397403 0)
(-1.91843 0.429487 -2.7187e-20)
(-2.37255 0.444341 0)
(-2.82039 0.44374 0)
(-3.25249 0.430573 2.59296e-20)
(-3.66186 0.408149 0)
(-4.04381 0.379682 2.6164e-20)
(-4.39578 0.347967 5.28262e-20)
(-4.71691 0.315221 0)
(-5.00766 0.28307 0)
(-5.26945 0.2526 0)
(-5.50424 0.224446 0)
(-5.71431 0.198898 0)
(-5.90204 0.176004 5.6042e-20)
(-6.06974 0.155651 5.64216e-20)
(-6.21959 0.137634 5.6741e-20)
(-6.35356 0.121703 0)
(-6.4734 0.107594 -5.72024e-20)
(-6.58064 0.0950555 0)
(-6.6766 0.0838521 5.74391e-20)
(-6.7624 0.0737764 5.74782e-20)
(-6.83898 0.0646484 0)
(-6.90714 0.0563155 0)
(-6.96754 0.0486511 0)
(-7.02071 0.0415541 5.7148e-20)
(-7.06711 0.0349463 0)
(-7.10709 0.0287728 0)
(-7.14093 0.023005 0)
(-7.16886 0.0176349 0)
(-7.19109 0.0126873 0)
(-7.20771 0.00821897 0)
(-7.21894 0.00426563 0)
(-7.22486 0.000840588 0)
(-7.22662 -0.00216215 -5.37124e-20)
(-7.22425 -0.00502633 0)
(-7.21778 -0.00790555 0)
(-7.20711 -0.0108845 5.15657e-20)
(-7.19203 -0.0140234 5.07173e-20)
(-7.17229 -0.017375 0)
(-7.14754 -0.0209921 -4.87945e-20)
(-7.11736 -0.0249299 4.77083e-20)
(-7.08125 -0.0292478 0)
(-7.0386 -0.0340101 -4.52482e-20)
(-6.98871 -0.0392862 0)
(-6.93078 -0.0451503 0)
(-6.86386 -0.0516808 4.06824e-20)
(-6.78689 -0.0589586 0)
(-6.69867 -0.0670648 -3.6892e-20)
(-6.59786 -0.0760771 0)
(-6.48299 -0.0860648 3.233e-20)
(-6.35247 -0.0970818 2.97014e-20)
(-6.20464 -0.109158 2.68055e-20)
(-6.03775 -0.122291 4.7227e-20)
(-5.85012 -0.13643 -4.01909e-20)
(-5.64013 -0.151467 0)
(-5.40637 -0.167226 0)
(-5.14778 -0.183452 0)
(-4.86378 -0.199806 -4.38144e-21)
(-4.55442 -0.215872 6.71621e-21)
(-4.22049 -0.231173 -1.87208e-20)
(-3.86369 -0.245193 0)
(-3.48662 -0.257414 4.54062e-20)
(-3.09278 -0.267355 6.00151e-20)
(-2.68641 -0.27462 7.53909e-20)
(-2.27238 -0.278932 0)
(-1.85589 -0.28011 0)
(-1.44229 -0.277984 0)
(-1.03667 -0.272308 1.42978e-19)
(-0.643688 -0.262731 0)
(-0.26683 -0.248791 0)
(0.0919853 -0.230684 -1.82329e-19)
(0.431857 -0.211042 0)
(0.751739 -0.192117 0)
(1.05004 -0.174292 -1.65335e-19)
(1.32682 -0.157679 0)
(1.58269 -0.142338 0)
(1.81853 -0.128276 1.49943e-19)
(2.03541 -0.115459 1.45325e-19)
(2.23452 -0.103827 0)
(2.41708 -0.0933035 -1.36885e-19)
(2.58428 -0.0838007 0)
(2.7373 -0.0752294 1.29463e-19)
(2.87722 -0.0675012 0)
(3.00508 -0.060532 1.22972e-19)
(3.12182 -0.054244 1.20044e-19)
(3.22831 -0.0485662 0)
(3.32535 -0.0434351 0)
(3.41367 -0.0387943 0)
(3.49394 -0.0345939 0)
(3.56676 -0.0307901 0)
(3.63271 -0.0273447 0)
(3.69231 -0.0242238 0)
(3.74603 -0.0213978 1.02734e-19)
(3.79433 -0.0188405 -1.01185e-19)
(3.83762 -0.0165285 0)
(3.8763 -0.0144405 0)
(3.91074 -0.0125573 0)
(3.94127 -0.0108609 0)
(3.96823 -0.00933425 -1.89862e-19)
(3.99192 -0.00796156 0)
(4.01261 -0.00672771 1.8602e-19)
(4.03057 -0.005611 -1.84305e-19)
(4.04602 -0.00457511 0)
(4.05911 -0.00362852 0)
(4.07002 -0.00280746 0)
(4.07918 -0.00166027 1.7865e-19)
(4.08507 0.000157552 1.77508e-19)
(4.0867 0.00240208 0)
(4.08429 0.00469856 1.7556e-19)
(4.07831 0.00673135 1.74758e-19)
(4.0693 0.00837494 -1.7405e-19)
(4.05774 0.00962901 0)
(4.04407 0.0105296 0)
(4.02868 0.0111307 -1.72374e-19)
(4.01192 0.0114843 0)
(3.99408 0.011633 0)
(3.97542 0.0116093 0)
(3.95619 0.0114382 0)
(3.93661 0.0111397 1.70517e-19)
(3.91688 0.0107316 1.70221e-19)
(3.89718 0.0102307 0)
(3.87767 0.0096538 1.69659e-19)
(3.8585 0.00901836 0)
(3.83978 0.00834211 0)
(3.82161 0.00764307 1.68828e-19)
(3.80404 0.00693929 0)
(3.78713 0.00624843 1.68248e-19)
(3.77089 0.00558745 0)
(3.75533 0.00497221 0)
(3.7404 0.00441713 1.67312e-19)
(3.72607 0.00393514 0)
(3.71224 0.0035377 1.6665e-19)
(3.69882 0.00323523 0)
(3.68564 0.0030379 0)
(3.67253 0.00295674 0)
(3.65923 0.00300544 -1.65348e-19)
(3.64542 0.00320309 0)
(3.6307 0.00357741 1.6482e-19)
(3.61451 0.00416935 0)
(3.59611 0.0050409 0)
(3.5745 0.00628739 0)
(3.54821 0.00806006 0)
(3.51521 0.0106065 0)
(3.47197 0.0143288 0)
(3.41468 0.0200936 0)
(3.32956 0.0286494 -3.36522e-19)
(3.22476 0.0464552 0)
(2.97342 0.0630893 0)
(0.172084 -0.462807 1.06242e-19)
(0.367188 -0.720611 -8.13105e-20)
(0.603304 -0.794309 0)
(0.822273 -0.77316 4.56981e-20)
(1.00664 -0.704132 0)
(1.16059 -0.612509 2.06513e-20)
(1.28803 -0.511013 -4.31922e-20)
(1.38986 -0.406057 -4.34484e-20)
(1.46634 -0.300924 0)
(1.51823 -0.197171 -4.46808e-20)
(1.54659 -0.0952762 -2.21074e-20)
(1.55067 0.0052565 0)
(1.5412 0.102382 0)
(1.51457 0.192723 0)
(1.46682 0.271555 0)
(1.39509 0.333075 -2.32688e-20)
(1.298 0.370953 0)
(1.17699 0.379944 4.71538e-20)
(1.03642 0.359191 0)
(0.881538 0.316036 0)
(0.714656 0.267183 -4.6893e-20)
(0.532678 0.234373 0)
(0.327899 0.235412 4.8159e-20)
(0.0904192 0.27704 -2.5127e-20)
(-0.191015 0.355947 2.4455e-20)
(-0.526148 0.465658 -2.27947e-20)
(-0.917186 0.59777 -2.11953e-20)
(-1.35857 0.739614 0)
(-1.83556 0.874982 0)
(-2.3294 0.988785 1.73275e-20)
(-2.82183 1.07126 -1.71185e-20)
(-3.29748 1.11794 0)
(-3.74442 1.12926 0)
(-4.15432 1.10923 1.57994e-20)
(-4.52251 1.06403 0)
(-4.84763 1.00059 0)
(-5.13096 0.925616 -1.69377e-20)
(-5.37564 0.844941 0)
(-5.58591 0.76323 1.97192e-20)
(-5.76645 0.683905 -3.75589e-20)
(-5.92188 0.609249 0)
(-6.0564 0.540595 0)
(-6.17369 0.478538 -8.39052e-20)
(-6.27679 0.423142 -8.56023e-20)
(-6.36818 0.37412 -8.71479e-20)
(-6.4498 0.330974 4.48217e-20)
(-6.52318 0.2931 -4.44433e-20)
(-6.58948 0.259866 -1.36011e-19)
(-6.64962 0.230654 9.19324e-20)
(-6.70429 0.204894 4.61278e-20)
(-6.75404 0.182073 0)
(-6.79931 0.161741 -4.69104e-20)
(-6.84045 0.143512 4.75971e-20)
(-6.87777 0.127052 0)
(-6.9115 0.112081 0)
(-6.94187 0.0983572 0)
(-6.96907 0.0856785 -4.78768e-20)
(-6.99328 0.073872 0)
(-7.01465 0.0627927 9.60928e-20)
(-7.03333 0.0523229 0)
(-7.04947 0.0423748 9.57223e-20)
(-7.06316 0.0329002 0)
(-7.07453 0.0238993 -9.492e-20)
(-7.08353 0.0153886 0)
(-7.09006 0.00735703 9.35953e-20)
(-7.09295 -0.000318412 -4.651e-20)
(-7.09192 -0.00786543 0)
(-7.08671 -0.015456 -9.05998e-20)
(-7.07707 -0.0232225 -4.44871e-20)
(-7.06277 -0.0312803 -4.37768e-20)
(-7.04352 -0.0397418 0)
(-7.01898 -0.0487233 -4.26151e-20)
(-6.98874 -0.0583494 -4.11713e-20)
(-6.95232 -0.0687552 0)
(-6.90917 -0.0800876 3.89793e-20)
(-6.85863 -0.0925056 -7.61826e-20)
(-6.79993 -0.10618 0)
(-6.7322 -0.121291 -3.48484e-20)
(-6.65443 -0.138025 0)
(-6.5655 -0.156568 9.53527e-20)
(-6.46413 -0.177098 0)
(-6.34892 -0.199772 -8.32774e-20)
(-6.21834 -0.224708 -2.49423e-20)
(-6.07078 -0.251969 2.41027e-20)
(-5.90455 -0.28153 4.29668e-20)
(-5.71795 -0.313256 -3.72514e-20)
(-5.50938 -0.346868 0)
(-5.2774 -0.381915 0)
(-5.0209 -0.417751 0)
(-4.73921 -0.453528 1.6016e-20)
(-4.43229 -0.488205 -5.26201e-21)
(-4.10085 -0.520591 1.44908e-20)
(-3.74649 -0.549415 0)
(-3.37173 -0.573425 2.77947e-20)
(-2.97999 -0.591506 -4.46623e-20)
(-2.57548 -0.602801 -5.53409e-20)
(-2.16298 -0.606818 0)
(-1.74759 -0.603484 0)
(-1.33436 -0.593111 0)
(-0.928003 -0.576289 -9.94594e-20)
(-0.532552 -0.553771 0)
(-0.150914 -0.52623 2.3329e-19)
(0.213751 -0.494323 3.62248e-19)
(0.558926 -0.460028 -2.39388e-19)
(0.883432 -0.425464 0)
(1.18688 -0.39161 -1.16038e-19)
(1.46946 -0.359078 0)
(1.73171 -0.328269 -2.29872e-19)
(1.97448 -0.299418 1.11877e-19)
(2.19876 -0.272632 1.10201e-19)
(2.40569 -0.247926 0)
(2.59642 -0.225245 3.23833e-19)
(2.77209 -0.20449 -2.11526e-19)
(2.93382 -0.185537 -1.0467e-19)
(3.08264 -0.168248 0)
(3.21955 -0.152484 -1.00994e-19)
(3.34544 -0.138107 -2.96727e-19)
(3.46115 -0.124991 0)
(3.56744 -0.113017 -1.91214e-19)
(3.66502 -0.102078 -1.8831e-19)
(3.75453 -0.0920807 -1.85556e-19)
(3.83656 -0.0829392 0)
(3.91166 -0.074579 0)
(3.98033 -0.0669342 0)
(4.04304 -0.0599464 8.77854e-20)
(4.10022 -0.0535637 8.71865e-20)
(4.15229 -0.04774 0)
(4.19963 -0.0424336 1.70295e-19)
(4.24259 -0.0376067 1.68637e-19)
(4.28153 -0.0332241 0)
(4.31677 -0.0292529 1.65898e-19)
(4.34862 -0.0256615 3.28674e-19)
(4.37737 -0.0224186 -1.633e-19)
(4.40328 -0.0194888 -1.61805e-19)
(4.42663 -0.0168277 0)
(4.44767 -0.014404 0)
(4.46662 -0.0121796 0)
(4.48349 -0.00984701 -1.58431e-19)
(4.49968 -0.00720642 1.57436e-19)
(4.51608 -0.00446954 3.13722e-19)
(4.53242 -0.00186396 -1.5632e-19)
(4.54821 0.000536902 1.55484e-19)
(4.56314 0.00264911 1.5509e-19)
(4.57696 0.0044856 0)
(4.58955 0.00606301 0)
(4.60084 0.00740448 -1.53517e-19)
(4.61084 0.0085316 0)
(4.61957 0.00946274 0)
(4.62706 0.0102143 3.05088e-19)
(4.63334 0.0108015 0)
(4.63845 0.0112399 1.51989e-19)
(4.6424 0.0115452 -1.51841e-19)
(4.64521 0.0117338 0)
(4.64688 0.011822 1.51409e-19)
(4.64742 0.0118252 0)
(4.64681 0.011758 0)
(4.64506 0.0116332 -1.51018e-19)
(4.64216 0.0114621 3.01736e-19)
(4.63814 0.0112546 -1.50762e-19)
(4.633 0.0110197 0)
(4.62681 0.0107665 0)
(4.61961 0.0105051 1.50358e-19)
(4.61148 0.0102476 0)
(4.60251 0.0100092 1.50095e-19)
(4.59278 0.00980934 0)
(4.58239 0.00967282 0)
(4.57143 0.00963131 0)
(4.55993 0.00972533 1.4955e-19)
(4.54791 0.0100075 0)
(4.53535 0.0105472 -1.49285e-19)
(4.52214 0.0114384 0)
(4.50808 0.0128121 0)
(4.49287 0.0148602 2.98072e-19)
(4.47598 0.0178686 -2.98135e-19)
(4.45679 0.0223129 0)
(4.43387 0.028889 0)
(4.40679 0.0392567 0)
(4.36861 0.0546691 9.03252e-19)
(4.33063 0.0856149 0)
(4.2395 0.123383 -6.07819e-19)
(0.17658 -1.0157 2.96143e-21)
(0.352393 -1.2704 1.01356e-19)
(0.545057 -1.23623 0)
(0.705346 -1.12431 -8.53372e-20)
(0.830603 -0.987179 0)
(0.931059 -0.841002 0)
(1.01139 -0.691866 -1.53321e-21)
(1.07205 -0.542679 3.99943e-20)
(1.11255 -0.395368 4.18889e-20)
(1.13249 -0.251646 4.14829e-20)
(1.13178 -0.113114 0)
(1.11078 0.0192838 0)
(1.07113 0.146705 -4.40906e-20)
(1.01442 0.268914 -8.84838e-20)
(0.941834 0.383142 8.88096e-20)
(0.85312 0.483465 0)
(0.746335 0.561688 8.88774e-20)
(0.618159 0.610774 -4.36352e-20)
(0.463903 0.630949 0)
(0.277188 0.634395 8.73496e-20)
(0.0504716 0.643327 4.25724e-20)
(-0.2232 0.682016 -8.07773e-20)
(-0.548034 0.76562 -3.71755e-20)
(-0.92355 0.895229 0)
(-1.34372 1.05999 6.49796e-20)
(-1.79617 1.24114 6.14499e-20)
(-2.26333 1.41737 0)
(-2.72519 1.5691 5.68549e-20)
(-3.16268 1.68179 0)
(-3.56102 1.74746 5.53994e-20)
(-3.91163 1.76443 2.55181e-20)
(-4.21193 1.73627 0)
(-4.46422 1.67031 0)
(-4.67411 1.5758 0)
(-4.84887 1.46237 0)
(-4.99608 1.33885 0)
(-5.1227 1.21261 0)
(-5.23445 1.08927 6.46842e-20)
(-5.3357 0.972673 -9.75161e-20)
(-5.42954 0.865179 0)
(-5.51795 0.7679 0)
(-5.6021 0.681047 0)
(-5.68261 0.604216 -1.63991e-21)
(-5.75972 0.53664 7.09397e-20)
(-5.83349 0.477365 1.4555e-19)
(-5.90389 0.425388 -1.4769e-19)
(-5.97084 0.379734 -7.52356e-20)
(-6.0343 0.339502 7.54055e-20)
(-6.09424 0.303893 5.93449e-22)
(-6.15068 0.272212 7.7622e-20)
(-6.20366 0.243861 0)
(-6.25325 0.218337 7.89189e-20)
(-6.29952 0.195215 3.92234e-22)
(-6.34256 0.174138 0)
(-6.38248 0.154806 0)
(-6.41935 0.136968 -8.08099e-20)
(-6.45326 0.120408 0)
(-6.48427 0.10494 0)
(-6.51243 0.090398 8.19099e-20)
(-6.53775 0.0766271 1.63403e-19)
(-6.56021 0.0634752 -8.14091e-20)
(-6.57976 0.0507864 0)
(-6.59626 0.0383911 8.12435e-20)
(-6.60959 0.0261218 0)
(-6.61962 0.0138296 8.14717e-20)
(-6.62621 0.00141035 8.01477e-20)
(-6.62922 -0.0111886 -1.59943e-19)
(-6.62849 -0.0240577 -7.97241e-20)
(-6.62379 -0.0373227 0)
(-6.61486 -0.0511281 1.54915e-19)
(-6.60141 -0.065632 0)
(-6.58308 -0.0810066 2.24694e-19)
(-6.55946 -0.0974404 1.47362e-19)
(-6.53007 -0.11514 1.44183e-19)
(-6.49435 -0.13433 -1.40631e-19)
(-6.45165 -0.155257 2.04185e-19)
(-6.40124 -0.178184 0)
(-6.34226 -0.203392 0)
(-6.27374 -0.231171 -1.22055e-19)
(-6.19457 -0.261811 -1.72987e-19)
(-6.1035 -0.295592 0)
(-5.99916 -0.332759 4.97525e-20)
(-5.88002 -0.373499 0)
(-5.74444 -0.417907 -1.27142e-19)
(-5.59067 -0.465944 3.81102e-21)
(-5.41696 -0.517392 -4.1149e-21)
(-5.22154 -0.571799 5.50458e-20)
(-5.00281 -0.628431 0)
(-4.75945 -0.686235 -2.99481e-20)
(-4.49055 -0.743819 5.10266e-21)
(-4.19582 -0.799472 0)
(-3.87575 -0.851222 0)
(-3.53176 -0.896963 0)
(-3.1663 -0.934611 -5.29083e-20)
(-2.78281 -0.962321 0)
(-2.38563 -0.978691 0)
(-1.97975 -0.982943 0)
(-1.57047 -0.975015 0)
(-1.16307 -0.955567 0)
(-0.762399 -0.925905 -1.54013e-19)
(-0.372565 -0.88786 0)
(0.00326159 -0.843328 -1.86895e-19)
(0.361819 -0.79416 -1.90345e-19)
(0.701175 -0.742423 1.91882e-19)
(1.02021 -0.689858 0)
(1.31864 -0.637834 1.92231e-19)
(1.59668 -0.587394 0)
(1.85491 -0.539262 1.90039e-19)
(2.09419 -0.493898 -1.88321e-19)
(2.31555 -0.451545 -5.55298e-19)
(2.52009 -0.412281 0)
(2.70895 -0.376069 -5.42438e-19)
(2.88323 -0.342788 -1.76688e-19)
(3.04401 -0.312272 0)
(3.1923 -0.284327 -3.46942e-19)
(3.32902 -0.258752 -3.42388e-19)
(3.45504 -0.235346 5.07807e-19)
(3.57116 -0.213919 0)
(3.67811 -0.194295 1.65448e-19)
(3.77656 -0.176312 1.63358e-19)
(3.86711 -0.159827 4.82824e-19)
(3.95035 -0.144709 0)
(4.02678 -0.130844 0)
(4.0969 -0.118129 0)
(4.16114 -0.106475 1.53522e-19)
(4.21994 -0.0958005 0)
(4.27367 -0.0860346 0)
(4.32272 -0.0771126 -1.50215e-19)
(4.36744 -0.0689758 -1.49014e-19)
(4.40815 -0.0615702 0)
(4.44517 -0.0548456 0)
(4.47881 -0.0487538 -2.91888e-19)
(4.50935 -0.0432475 0)
(4.53706 -0.0382777 2.88619e-19)
(4.56221 -0.0337938 2.86871e-19)
(4.58506 -0.0297409 0)
(4.60585 -0.0260515 0)
(4.62476 -0.0227085 -2.83583e-19)
(4.64216 -0.0196368 -2.40739e-22)
(4.65852 -0.0167182 -2.22636e-22)
(4.67426 -0.0139011 0)
(4.68956 -0.0111505 -5.6219e-19)
(4.70449 -0.00853143 0)
(4.71906 -0.00612927 0)
(4.73325 -0.00394678 0)
(4.74707 -0.00198698 2.79848e-19)
(4.76051 -0.00025165 0)
(4.77358 0.00126807 -5.59075e-19)
(4.78626 0.00258856 -2.79679e-19)
(4.79855 0.00372972 0)
(4.81044 0.0047134 -2.79883e-19)
(4.82188 0.00556256 0)
(4.83286 0.00630038 0)
(4.84331 0.00694917 -8.41373e-19)
(4.85318 0.0075293 5.61397e-19)
(4.86239 0.00805826 0)
(4.87087 0.00854986 5.62518e-19)
(4.87853 0.00901385 -2.81593e-19)
(4.8853 0.00945608 0)
(4.8911 0.00987916 0)
(4.89584 0.0102837 0)
(4.89949 0.0106701 -8.47402e-19)
(4.90198 0.0110405 0)
(4.90328 0.0114014 -2.82769e-19)
(4.90337 0.0117654 0)
(4.90225 0.0121545 0)
(4.8999 0.0126019 0)
(4.89631 0.0131557 0)
(4.89146 0.0138822 0)
(4.88529 0.0148724 0)
(4.87771 0.0162509 -5.65637e-19)
(4.86853 0.0181905 0)
(4.85749 0.0209407 -2.8306e-19)
(4.84416 0.0248627 8.49469e-19)
(4.82799 0.0305461 0)
(4.80792 0.0388269 0)
(4.78347 0.0515843 -5.69103e-19)
(4.75113 0.0705854 -5.72531e-19)
(4.71714 0.105004 5.72429e-19)
(4.66375 0.154225 5.76962e-19)
(0.156049 -1.48655 -1.94015e-19)
(0.266086 -1.66071 -1.52222e-19)
(0.391873 -1.52501 -9.28671e-20)
(0.489861 -1.3494 -4.49107e-20)
(0.566013 -1.16823 0)
(0.626831 -0.984565 8.17464e-20)
(0.673216 -0.798896 -4.1761e-20)
(0.703974 -0.612174 0)
(0.717743 -0.426001 -4.09392e-20)
(0.713394 -0.242495 0)
(0.690158 -0.064027 8.75565e-20)
(0.647551 0.107109 0)
(0.585402 0.269719 4.35522e-20)
(0.504195 0.42339 8.75466e-20)
(0.40454 0.567095 -8.79171e-20)
(0.286195 0.697995 0)
(0.146903 0.811871 -8.76241e-20)
(-0.0183102 0.906525 0)
(-0.217392 0.987792 0)
(-0.45902 1.07064 -7.20825e-20)
(-0.750062 1.17323 0)
(-1.09164 1.3087 -1.70515e-21)
(-1.47704 1.4784 0)
(-1.89189 1.67066 0)
(-2.31629 1.86459 2.6305e-21)
(-2.72837 2.03674 -4.91729e-20)
(-3.10844 2.16755 -5.16021e-20)
(-3.44243 2.24533 -4.70413e-20)
(-3.72352 2.26692 0)
(-3.95187 2.23619 -9.9246e-20)
(-4.13295 2.16147 0)
(-4.27539 2.0533 -5.36783e-20)
(-4.38889 1.92255 0)
(-4.48262 1.77914 0)
(-4.56425 1.63128 5.63827e-20)
(-4.63951 1.48522 0)
(-4.71223 1.34532 -5.82138e-20)
(-4.78463 1.21431 2.91475e-21)
(-4.8577 1.09365 1.17515e-19)
(-4.93161 0.983854 -1.21874e-19)
(-5.006 0.884779 0)
(-5.08028 0.795884 0)
(-5.15375 0.716393 -6.50462e-20)
(-5.22575 0.645424 0)
(-5.29571 0.58207 -6.40828e-20)
(-5.36317 0.525451 6.49997e-20)
(-5.42777 0.474746 6.58645e-20)
(-5.48928 0.429208 0)
(-5.54753 0.388169 -6.74422e-20)
(-5.60245 0.351039 -6.81577e-20)
(-5.65401 0.317301 1.38894e-19)
(-5.70223 0.286504 -6.94475e-20)
(-5.74716 0.258255 -7.00236e-20)
(-5.78887 0.232212 0)
(-5.82742 0.208074 0)
(-5.86289 0.185578 7.14806e-20)
(-5.89536 0.164489 0)
(-5.9249 0.144597 0)
(-5.95154 0.125713 -1.45038e-19)
(-5.97535 0.107662 -1.45531e-19)
(-5.99633 0.0902822 0)
(-6.0145 0.0734178 0)
(-6.02984 0.0569082 0)
(-6.04233 0.0405855 0)
(-6.05193 0.0242795 -1.46131e-19)
(-6.05857 0.00783514 1.46689e-19)
(-6.06219 -0.00888858 1.44913e-19)
(-6.06264 -0.0260413 2.89215e-19)
(-6.05974 -0.0437938 0)
(-6.0533 -0.0623362 1.28649e-21)
(-6.04302 -0.0818779 0)
(-6.02861 -0.102649 -1.38147e-19)
(-6.00967 -0.124904 1.5426e-21)
(-5.98576 -0.148921 -1.33479e-19)
(-5.95637 -0.175007 1.30612e-19)
(-5.92089 -0.203498 1.92723e-21)
(-5.87861 -0.23476 0)
(-5.82873 -0.269181 1.2173e-19)
(-5.77031 -0.307173 1.14743e-19)
(-5.70229 -0.349153 2.21641e-19)
(-5.62345 -0.395532 0)
(-5.53243 -0.446682 -1.00231e-19)
(-5.42771 -0.50291 0)
(-5.30758 -0.564403 1.67104e-19)
(-5.17023 -0.631173 -7.27604e-20)
(-5.01372 -0.702986 6.30264e-20)
(-4.83609 -0.779284 -5.24098e-20)