#           v             n
   1.1734e-05             0
  1.76009e-05             0
  2.64014e-05             0
  3.96021e-05             0
  5.94032e-05             0
  8.91048e-05             0
  0.000133657             0
  0.000200486             0
  0.000300729             0
  0.000451093             0
  0.000676639             0
   0.00101496             0
   0.00152244             0
   0.00228366             0
   0.00342549             0
   0.00513823             0
   0.00770735             0
     0.011561             0
    0.0173415             0
    0.0260123             0
    0.0390184             0
    0.0585277             0
    0.0877915             0
     0.131687             0
     0.197531             0
     0.296296             0
     0.444444             0
     0.666667             0
            1           0.3
