/*--------------------------------*- C++ -*----------------------------------*\
  =========                 |
  \\      /  F ield         | OpenFOAM: The Open Source CFD Toolbox
   \\    /   O peration     | Website:  https://openfoam.org
    \\  /    A nd           | Version:  12
     \\/     M anipulation  |
\*---------------------------------------------------------------------------*/
FoamFile
{
    format      ascii;
    class       volVectorField;
    location    "1000";
    object      U;
}
// * * * * * * * * * * * * * * * * * * * * * * * * * * * * * * * * * * * * * //

dimensions      [0 1 -1 0 0 0 0];

internalField   nonuniform List<vector> 
80
(
(0.00146643 0 0)
(0.00437156 0 0)
(0.00724853 0 0)
(0.0100969 0 0)
(0.0129163 0 0)
(0.0157063 0 0)
(0.0184664 0 0)
(0.0211963 0 0)
(0.0238954 0 0)
(0.0265633 0 0)
(0.0291996 0 0)
(0.0318038 0 0)
(0.0343755 0 0)
(0.0369142 0 0)
(0.0394194 0 0)
(0.0418907 0 0)
(0.0443274 0 0)
(0.0467291 0 0)
(0.0490952 0 0)
(0.0514249 0 0)
(0.0537176 0 0)
(0.0559726 0 0)
(0.0581889 0 0)
(0.0603656 0 0)
(0.0625016 0 0)
(0.0645957 0 0)
(0.0666466 0 0)
(0.0686525 0 0)
(0.0706116 0 0)
(0.0725217 0 0)
(0.0743802 0 0)
(0.076184 0 0)
(0.0779292 0 0)
(0.0796113 0 0)
(0.0812238 0 0)
(0.0827602 0 0)
(0.0842046 0 0)
(0.0855573 0 0)
(0.0867367 0 0)
(0.0878781 0 0)
(0.0880365 0 0)
(0.0868769 0 0)
(0.0857181 0 0)
(0.0843701 0 0)
(0.0829324 0 0)
(0.0814002 0 0)
(0.0797914 0 0)
(0.0781119 0 0)
(0.0763686 0 0)
(0.074566 0 0)
(0.072708 0 0)
(0.0707978 0 0)
(0.0688381 0 0)
(0.0668309 0 0)
(0.0647783 0 0)
(0.0626819 0 0)
(0.060543 0 0)
(0.0583629 0 0)
(0.0561428 0 0)
(0.0538835 0 0)
(0.051586 0 0)
(0.049251 0 0)
(0.0468792 0 0)
(0.0444714 0 0)
(0.0420281 0 0)
(0.0395499 0 0)
(0.0370373 0 0)
(0.0344909 0 0)
(0.0319112 0 0)
(0.0292986 0 0)
(0.0266537 0 0)
(0.0239769 0 0)
(0.0212687 0 0)
(0.0185295 0 0)
(0.0157599 0 0)
(0.0129603 0 0)
(0.0101312 0 0)
(0.00727301 0 0)
(0.00438623 0 0)
(0.0014713 0 0)
)
;

boundaryField
{
    lowerWall
    {
        type            noSlip;
    }
    upperWall
    {
        type            noSlip;
    }
    front
    {
        type            cyclic;
    }
    back
    {
        type            cyclic;
    }
    defaultFaces
    {
        type            empty;
    }
}


// ************************************************************************* //
