/*--------------------------------*- C++ -*----------------------------------*\
  =========                 |
  \\      /  F ield         | OpenFOAM: The Open Source CFD Toolbox
   \\    /   O peration     | Website:  https://openfoam.org
    \\  /    A nd           | Version:  12
     \\/     M anipulation  |
\*---------------------------------------------------------------------------*/
FoamFile
{
    format      ascii;
    class       volVectorField;
    location    "17.42";
    object      U;
}
// * * * * * * * * * * * * * * * * * * * * * * * * * * * * * * * * * * * * * //

dimensions      [0 1 -1 0 0 0 0];

internalField   nonuniform List<vector> 
3829
(
(-3.4303e-06 -0.000501614 0)
(-1.22725e-05 -0.000536913 0)
(-1.92949e-05 -0.000536289 0)
(-2.79918e-05 -0.000533891 0)
(-3.63531e-05 -0.000530665 0)
(-4.54936e-05 -0.000526573 0)
(-5.51082e-05 -0.000521631 0)
(-6.54545e-05 -0.00051584 0)
(-7.65012e-05 -0.000509215 0)
(-8.84167e-05 -0.000501781 0)
(-0.000101203 -0.000493572 0)
(-0.000114947 -0.000484628 0)
(-0.000129731 -0.000475007 0)
(-0.000145504 -0.000464757 0)
(-0.000162314 -0.000453965 0)
(-0.000180125 -0.000442694 0)
(-0.000198922 -0.000431021 0)
(-0.00021865 -0.000419024 0)
(-0.000239235 -0.000406775 0)
(-0.000260577 -0.000394357 0)
(-0.000282587 -0.00038185 0)
(-0.000305118 -0.000369318 0)
(-0.000328052 -0.000356836 0)
(-0.000351207 -0.000344474 0)
(-0.000374434 -0.000332279 0)
(-0.000397596 -0.000320326 0)
(-0.000420444 -0.000308635 0)
(-0.000442887 -0.000297295 0)
(-0.000464602 -0.000286277 0)
(-0.000485416 -0.000275685 0)
(-0.000505525 -0.000265502 0)
(-0.000524214 -0.000255728 0)
(-0.000541681 -0.000246441 0)
(-0.000557742 -0.000237573 0)
(-0.000571993 -0.000229168 0)
(-0.000584684 -0.000221193 0)
(-0.000595445 -0.000213652 0)
(-0.000604304 -0.000206523 0)
(-0.000611039 -0.000199784 0)
(-0.000615574 -0.000193454 0)
(-0.000617989 -0.000187521 0)
(-0.000617912 -0.000181948 0)
(-0.000615064 -0.00017677 0)
(-0.000609524 -0.000172009 0)
(-0.000601292 -0.000167659 0)
(-0.000590403 -0.000163698 0)
(-0.00057695 -0.000160102 0)
(-0.00056089 -0.000156817 0)
(-0.000542385 -0.000153825 0)
(-0.000521508 -0.000151034 0)
(-0.000498305 -0.000148438 0)
(-0.000473037 -0.000145918 0)
(-0.000445759 -0.00014342 0)
(-0.000416388 -0.000140922 0)
(-0.000385338 -0.000138393 0)
(-0.000352969 -0.000135619 0)
(-0.000319205 -0.000132716 0)
(-0.000284212 -0.000129475 0)
(-0.000248465 -0.000126024 0)
(-0.000212343 -0.000122149 0)
(-0.000175888 -0.000117886 0)
(-0.000139412 -0.000113165 0)
(-0.00010339 -0.000108016 0)
(-6.81973e-05 -0.000102382 0)
(-3.42326e-05 -9.62832e-05 0)
(-1.77453e-06 -8.96879e-05 0)
(2.88435e-05 -8.25994e-05 0)
(5.74112e-05 -7.50177e-05 0)
(8.37251e-05 -6.70335e-05 0)
(0.000107106 -5.86719e-05 0)
(0.000127316 -4.99925e-05 0)
(0.000144085 -4.10439e-05 0)
(0.000157206 -3.19411e-05 0)
(0.0001665 -2.27165e-05 0)
(0.00017209 -1.35303e-05 0)
(0.000173247 -4.45198e-06 0)
(0.000170105 4.35553e-06 0)
(0.000162581 1.27475e-05 0)
(0.000150851 2.07355e-05 0)
(0.00013551 2.81855e-05 0)
(0.000116441 3.48234e-05 0)
(9.43246e-05 4.07132e-05 0)
(6.91171e-05 4.55937e-05 0)
(4.13161e-05 4.94946e-05 0)
(1.17069e-05 5.23296e-05 0)
(-1.92318e-05 5.38837e-05 0)
(-5.09031e-05 5.42557e-05 0)
(-8.24964e-05 5.33377e-05 0)
(-0.000113433 5.11641e-05 0)
(-0.000142931 4.77487e-05 0)
(-0.000170211 4.31323e-05 0)
(-0.000194596 3.74023e-05 0)
(-0.000215363 3.06542e-05 0)
(-0.000231883 2.30376e-05 0)
(-0.000243571 1.47169e-05 0)
(-0.000249995 5.88971e-06 0)
(-0.000250491 -3.25633e-06 0)
(-0.000244642 -1.2472e-05 0)
(-0.000232493 -2.15415e-05 0)
(-0.000214357 -3.02152e-05 0)
(-0.00019054 -3.82473e-05 0)
(-0.000161452 -4.53956e-05 0)
(-0.0001278 -5.14046e-05 0)
(-9.01593e-05 -5.60247e-05 0)
(-4.94043e-05 -5.91775e-05 0)
(-6.63194e-06 -6.06055e-05 0)
(3.67825e-05 -6.02574e-05 0)
(7.96089e-05 -5.80434e-05 0)
(0.000120526 -5.40433e-05 0)
(0.000158141 -4.82831e-05 0)
(0.00019114 -4.09294e-05 0)
(0.00021837 -3.21008e-05 0)
(0.000238663 -2.21954e-05 0)
(0.000251207 -1.13423e-05 0)
(0.000255077 -1.51011e-07 0)
(0.000249745 1.12903e-05 0)
(0.000234894 2.21255e-05 0)
(0.000211234 3.25548e-05 0)
(0.000179732 4.15125e-05 0)
(0.000141195 4.91284e-05 0)
(9.69359e-05 5.46167e-05 0)
(4.83789e-05 5.80237e-05 0)
(-2.50434e-06 5.90306e-05 0)
(-5.35093e-05 5.74189e-05 0)
(-0.000102044 5.33452e-05 0)
(-0.000146306 4.68354e-05 0)
(-0.000184063 3.82582e-05 0)
(-0.000213539 2.78594e-05 0)
(-0.000233174 1.62272e-05 0)
(-0.000241766 3.78084e-06 0)
(-0.000238327 -8.75814e-06 0)
(-0.000222523 -2.0695e-05 0)
(-0.00019571 -3.15522e-05 0)
(-0.000159316 -4.06724e-05 0)
(-0.000114828 -4.73274e-05 0)
(-6.4878e-05 -5.13218e-05 0)
(-1.18813e-05 -5.21707e-05 0)
(4.08274e-05 -4.99752e-05 0)
(8.94905e-05 -4.45949e-05 0)
(0.000131545 -3.66579e-05 0)
(0.000164201 -2.62647e-05 0)
(0.000185225 -1.45027e-05 0)
(0.00019321 -1.74638e-06 0)
(0.000187082 1.05743e-05 0)
(0.00016714 2.21279e-05 0)
(0.000135417 3.16359e-05 0)
(9.41898e-05 3.87084e-05 0)
(4.67583e-05 4.25091e-05 0)
(-3.835e-06 4.28319e-05 0)
(-5.28247e-05 3.94301e-05 0)
(-9.54749e-05 3.28183e-05 0)
(-0.000128662 2.34383e-05 0)
(-0.000149521 1.21672e-05 0)
(-0.000155936 9.06936e-08 0)
(-0.000146942 -1.17009e-05 0)
(-0.000123769 -2.20259e-05 0)
(-8.89735e-05 -3.00064e-05 0)
(-4.61406e-05 -3.4666e-05 0)
(1.37044e-06 -3.5529e-05 0)
(4.73602e-05 -3.24031e-05 0)
(8.59281e-05 -2.56971e-05 0)
(0.000113691 -1.61804e-05 0)
(0.00012738 -4.91381e-06 0)
(0.000124784 6.69928e-06 0)
(0.000105979 1.73674e-05 0)
(7.3787e-05 2.57858e-05 0)
(3.18912e-05 3.08675e-05 0)
(-1.56457e-05 3.18209e-05 0)
(-6.12582e-05 2.84295e-05 0)
(-9.77448e-05 2.12008e-05 0)
(-0.000121363 1.10985e-05 0)
(-0.000128333 -4.93677e-07 0)
(-0.000116993 -1.1997e-05 0)
(-8.88868e-05 -2.18857e-05 0)
(-4.79222e-05 -2.87669e-05 0)
(2.31071e-06 -3.15672e-05 0)
(5.33704e-05 -2.97506e-05 0)
(9.64149e-05 -2.3843e-05 0)
(0.00012713 -1.4793e-05 0)
(0.000141401 -4.08315e-06 0)
(0.000137264 6.61158e-06 0)
(0.000115975 1.55987e-05 0)
(8.21523e-05 2.16284e-05 0)
(4.16925e-05 2.37835e-05 0)
(6.85556e-07 2.19781e-05 0)
(-3.35755e-05 1.67691e-05 0)
(-5.58135e-05 9.65301e-06 0)
(-6.46939e-05 2.10446e-06 0)
(-6.04729e-05 -4.22826e-06 0)
(-4.63687e-05 -8.43644e-06 0)
(-2.76955e-05 -9.88341e-06 0)
(-9.27235e-06 -8.66275e-06 0)
(3.93156e-06 -5.38245e-06 0)
(1.00333e-05 -1.68064e-06 0)
(9.02114e-06 1.25409e-06 0)
(2.03795e-06 2.89981e-06 0)
(-5.99675e-06 2.67478e-06 0)
(-1.0728e-05 1.04566e-06 0)
(-9.96378e-06 -9.78677e-07 0)
(-4.03777e-06 -2.35244e-06 0)
(2.24381e-06 0.000604621 0)
(8.83226e-06 0.000631814 0)
(1.53795e-05 0.000634066 0)
(2.15806e-05 0.000636568 0)
(2.72168e-05 0.000639744 0)
(3.21094e-05 0.000643587 0)
(3.60454e-05 0.000648021 0)
(3.87997e-05 0.000652919 0)
(4.02317e-05 0.000658138 0)
(4.00012e-05 0.00066349 0)
(3.80222e-05 0.000668781 0)
(3.40572e-05 0.00067382 0)
(2.79679e-05 0.000678345 0)
(1.96154e-05 0.000682158 0)
(8.88938e-06 0.000685013 0)
(-4.06521e-06 0.00068672 0)
(-1.92992e-05 0.000687087 0)
(-3.6669e-05 0.000685935 0)
(-5.61145e-05 0.000683087 0)
(-7.75549e-05 0.000678424 0)
(-0.000100702 0.000671814 0)
(-0.000125335 0.000663188 0)
(-0.000151374 0.000652451 0)
(-0.000178407 0.000639634 0)
(-0.000206267 0.000624721 0)
(-0.000234627 0.000607748 0)
(-0.000263317 0.000588803 0)
(-0.000291902 0.000567987 0)
(-0.000320134 0.000545376 0)
(-0.000347929 0.000521139 0)
(-0.000374805 0.000495385 0)
(-0.000400672 0.00046824 0)
(-0.000425292 0.000439878 0)
(-0.000448281 0.000410349 0)
(-0.000469492 0.000379837 0)
(-0.000488894 0.000348437 0)
(-0.000506201 0.000316302 0)
(-0.000521214 0.000283549 0)
(-0.000533898 0.000250365 0)
(-0.000544233 0.000216917 0)
(-0.000551978 0.000183372 0)
(-0.000557066 0.000149911 0)
(-0.000559568 0.000116761 0)
(-0.000559326 8.41906e-05 0)
(-0.000556105 5.2366e-05 0)
(-0.000549861 2.14654e-05 0)
(-0.00054052 -8.34553e-06 0)
(-0.000528084 -3.69422e-05 0)
(-0.000512544 -6.41909e-05 0)
(-0.000494035 -8.99047e-05 0)
(-0.000472519 -0.000114005 0)
(-0.000448002 -0.000136275 0)
(-0.000421078 -0.000156764 0)
(-0.000391785 -0.000175046 0)
(-0.000359618 -0.000191338 0)
(-0.000325661 -0.000205217 0)
(-0.000289918 -0.000216866 0)
(-0.000252589 -0.000225879 0)
(-0.000214183 -0.000232544 0)
(-0.000174622 -0.000236447 0)
(-0.000134662 -0.000237855 0)
(-9.45827e-05 -0.000236436 0)
(-5.49295e-05 -0.000232515 0)
(-1.60293e-05 -0.000225878 0)
(2.15945e-05 -0.000216746 0)
(5.77349e-05 -0.000205036 0)
(9.19283e-05 -0.000190968 0)
(0.000123612 -0.000174588 0)
(0.000152473 -0.000156193 0)
(0.000177968 -0.000135923 0)
(0.000199789 -0.000114089 0)
(0.000217456 -9.08893e-05 0)
(0.000230856 -6.66107e-05 0)
(0.000239634 -4.17482e-05 0)
(0.000243808 -1.63684e-05 0)
(0.000242681 8.80056e-06 0)
(0.000236106 3.36588e-05 0)
(0.00022471 5.75792e-05 0)
(0.000208739 8.03912e-05 0)
(0.000187735 0.000101606 0)
(0.000162342 0.000120821 0)
(0.000133337 0.000137629 0)
(0.000100558 0.00015165 0)
(6.51555e-05 0.000162619 0)
(2.70642e-05 0.000170258 0)
(-1.25758e-05 0.000174245 0)
(-5.2775e-05 0.000174543 0)
(-9.29529e-05 0.000170913 0)
(-0.000132115 0.00016348 0)
(-0.000169466 0.000152173 0)
(-0.000204 0.000137248 0)
(-0.000234879 0.000118839 0)
(-0.000261205 9.74416e-05 0)
(-0.000282159 7.33372e-05 0)
(-0.000297046 4.70974e-05 0)
(-0.000305403 1.9243e-05 0)
(-0.00030645 -9.52808e-06 0)
(-0.000299731 -3.8464e-05 0)
(-0.000285335 -6.68787e-05 0)
(-0.000263542 -9.40437e-05 0)
(-0.000234729 -0.000119137 0)
(-0.000199321 -0.000141414 0)
(-0.000158053 -0.000160102 0)
(-0.000112043 -0.00017454 0)
(-6.21754e-05 -0.000184213 0)
(-9.64877e-06 -0.00018856 0)
(4.36808e-05 -0.000187385 0)
(9.62241e-05 -0.000180451 0)
(0.000146352 -0.000167909 0)
(0.000192461 -0.00014988 0)
(0.000233014 -0.000126843 0)
(0.000266304 -9.938e-05 0)
(0.00029117 -6.8327e-05 0)
(0.000306339 -3.47237e-05 0)
(0.000311032 4.08875e-07 0)
(0.000304193 3.55885e-05 0)
(0.000286262 6.97761e-05 0)
(0.000257545 0.000101602 0)
(0.000218868 0.000129788 0)
(0.00017179 0.000153019 0)
(0.000117468 0.000170178 0)
(5.84585e-05 0.000180503 0)
(-3.8533e-06 0.000183313 0)
(-6.61656e-05 0.000178146 0)
(-0.000125347 0.000165223 0)
(-0.000179153 0.000144845 0)
(-0.000224905 0.000117964 0)
(-0.000260419 8.54279e-05 0)
(-0.000283824 4.91686e-05 0)
(-0.000293725 1.04403e-05 0)
(-0.00028865 -2.84076e-05 0)
(-0.000268857 -6.55541e-05 0)
(-0.00023586 -9.9216e-05 0)
(-0.00019067 -0.000127074 0)
(-0.000135764 -0.000147797 0)
(-7.43165e-05 -0.000159828 0)
(-9.34072e-06 -0.000162365 0)
(5.51426e-05 -0.00015499 0)
(0.000114405 -0.0001383 0)
(0.000165458 -0.000112982 0)
(0.000204738 -8.09261e-05 0)
(0.000229575 -4.37208e-05 0)
(0.000238061 -4.38829e-06 0)
(0.000229295 3.44883e-05 0)
(0.000203965 6.9928e-05 0)
(0.000164078 9.9844e-05 0)
(0.000112782 0.000121252 0)
(5.37442e-05 0.000132952 0)
(-8.94726e-06 0.000133498 0)
(-6.93222e-05 0.0001227 0)
(-0.000121535 0.000101675 0)
(-0.000161939 7.21733e-05 0)
(-0.000186721 3.69736e-05 0)
(-0.000193537 -9.64767e-07 0)
(-0.000181393 -3.76424e-05 0)
(-0.000151966 -7.00229e-05 0)
(-0.000108235 -9.45569e-05 0)
(-5.44808e-05 -0.000108896 0)
(4.69753e-06 -0.000111283 0)
(6.17738e-05 -0.000101152 0)
(0.000109465 -7.99633e-05 0)
(0.000143513 -5.00054e-05 0)
(0.000159845 -1.4847e-05 0)
(0.000156046 2.15981e-05 0)
(0.000132462 5.48657e-05 0)
(9.23144e-05 8.10063e-05 0)
(4.00956e-05 9.65654e-05 0)
(-1.88832e-05 9.93956e-05 0)
(-7.52955e-05 8.85381e-05 0)
(-0.00012041 6.58619e-05 0)
(-0.000149422 3.43185e-05 0)
(-0.000157872 -1.87893e-06 0)
(-0.000144048 -3.75974e-05 0)
(-0.000109864 -6.82252e-05 0)
(-5.99095e-05 -8.93032e-05 0)
(1.07843e-06 -9.77838e-05 0)
(6.26663e-05 -9.18283e-05 0)
(0.00011424 -7.31887e-05 0)
(0.000150423 -4.49025e-05 0)
(0.000166354 -1.14972e-05 0)
(0.000159955 2.14396e-05 0)
(0.000133098 4.91742e-05 0)
(9.1392e-05 6.72958e-05 0)
(4.21051e-05 7.35293e-05 0)
(-7.01242e-06 6.71439e-05 0)
(-4.69698e-05 5.06758e-05 0)
(-7.15773e-05 2.82817e-05 0)
(-7.94527e-05 4.79313e-06 0)
(-7.1557e-05 -1.47605e-05 0)
(-5.22552e-05 -2.73646e-05 0)
(-2.79409e-05 -3.12724e-05 0)
(-4.71516e-06 -2.67127e-05 0)
(1.09337e-05 -1.62056e-05 0)
(1.66189e-05 -4.40319e-06 0)
(1.35172e-05 4.99641e-06 0)
(3.42377e-06 9.94791e-06 0)
(-7.76625e-06 8.8712e-06 0)
(-1.41861e-05 3.36874e-06 0)
(-1.31486e-05 -3.38348e-06 0)
(-5.31656e-06 -7.92984e-06 0)
(3.64039e-06 -0.000489192 0)
(1.17649e-05 -0.000533187 0)
(1.91004e-05 -0.000528148 0)
(2.46553e-05 -0.000518661 0)
(2.85084e-05 -0.000505568 0)
(3.05685e-05 -0.000489025 0)
(3.02753e-05 -0.000468791 0)
(2.69118e-05 -0.000445154 0)
(2.01054e-05 -0.000417899 0)
(9.37933e-06 -0.0003874 0)
(-5.21866e-06 -0.000353855 0)
(-2.42024e-05 -0.000318005 0)
(-4.75992e-05 -0.000280375 0)
(-7.51931e-05 -0.000241683 0)
(-0.000106826 -0.00020253 0)
(-0.000141953 -0.000163596 0)
(-0.000180383 -0.000125519 0)
(-0.000221875 -8.8908e-05 0)
(-0.000265867 -5.42671e-05 0)
(-0.000311887 -2.21125e-05 0)
(-0.000359456 7.24048e-06 0)
(-0.000408122 3.33571e-05 0)
(-0.000457101 5.60804e-05 0)
(-0.000505672 7.5116e-05 0)
(-0.000553644 9.05231e-05 0)
(-0.000600251 0.000102023 0)
(-0.000644884 0.000109981 0)
(-0.000687481 0.000114028 0)
(-0.000727423 0.000114734 0)
(-0.000764352 0.000111904 0)
(-0.000798682 0.000106034 0)
(-0.000829462 9.69527e-05 0)
(-0.000857273 8.51236e-05 0)
(-0.000881888 7.07092e-05 0)
(-0.000902683 5.40857e-05 0)
(-0.000920132 3.53736e-05 0)
(-0.00093396 1.49335e-05 0)
(-0.000944196 -7.26043e-06 0)
(-0.00095058 -3.09144e-05 0)
(-0.000953228 -5.59618e-05 0)
(-0.000952146 -8.21875e-05 0)
(-0.000946666 -0.000109296 0)
(-0.000936145 -0.000137187 0)
(-0.000920983 -0.000165668 0)
(-0.000901629 -0.000194505 0)
(-0.000878164 -0.000223439 0)
(-0.000850959 -0.000252183 0)
(-0.000820151 -0.000280432 0)
(-0.000785633 -0.000307896 0)
(-0.000747779 -0.000334239 0)
(-0.000706542 -0.000359178 0)
(-0.000662728 -0.000382356 0)
(-0.000615588 -0.000403597 0)
(-0.000565785 -0.000422378 0)
(-0.000513734 -0.000438599 0)
(-0.000459677 -0.000451885 0)
(-0.000403737 -0.00046201 0)
(-0.000346456 -0.000468668 0)
(-0.000288381 -0.000471702 0)
(-0.000229675 -0.000471041 0)
(-0.000170896 -0.000466402 0)
(-0.000112515 -0.000457737 0)
(-5.55345e-05 -0.000445024 0)
(1.50117e-07 -0.000428195 0)
(5.36024e-05 -0.000407273 0)
(0.00010459 -0.000382401 0)
(0.000152268 -0.000353726 0)
(0.000196153 -0.000321481 0)
(0.000235762 -0.000285882 0)
(0.000270399 -0.000247397 0)
(0.000299665 -0.000206252 0)
(0.000323468 -0.000163127 0)
(0.000340599 -0.000118241 0)
(0.000351677 -7.24498e-05 0)
(0.00035614 -2.61039e-05 0)
(0.000353233 1.98346e-05 0)
(0.000343477 6.48916e-05 0)
(0.000326716 0.000108379 0)
(0.000303724 0.000149546 0)
(0.000274245 0.000187602 0)
(0.000238619 0.000222141 0)
(0.000197702 0.000252074 0)
(0.000151973 0.000277121 0)
(0.000102382 0.000296502 0)
(4.94859e-05 0.00030981 0)
(-5.36196e-06 0.000316696 0)
(-6.12321e-05 0.00031678 0)
(-0.000116843 0.000309967 0)
(-0.000171064 0.000296159 0)
(-0.000222746 0.000275559 0)
(-0.000270512 0.000248422 0)
(-0.000313046 0.000215138 0)
(-0.000349244 0.000176412 0)
(-0.000378323 0.00013285 0)
(-0.000399125 8.54841e-05 0)
(-0.000410976 3.52969e-05 0)
(-0.000412691 -1.64109e-05 0)
(-0.000404015 -6.8576e-05 0)
(-0.000385179 -0.000119579 0)
(-0.000356291 -0.000168413 0)
(-0.000317762 -0.000213337 0)
(-0.000270246 -0.000253132 0)
(-0.000214799 -0.000286531 0)
(-0.000152813 -0.000312349 0)
(-8.55115e-05 -0.000329416 0)
(-1.4856e-05 -0.000337112 0)
(5.689e-05 -0.000334834 0)
(0.000127615 -0.000322296 0)
(0.000195113 -0.000299681 0)
(0.000257239 -0.000267206 0)
(0.000311663 -0.000225938 0)
(0.000356447 -0.000176683 0)
(0.000389517 -0.000121105 0)
(0.000409759 -6.09209e-05 0)
(0.00041545 1.80418e-06 0)
(0.000406128 6.47456e-05 0)
(0.000382027 0.000125879 0)
(0.00034349 0.000182544 0)
(0.00029175 0.000232683 0)
(0.000228209 0.000273716 0)
(0.000155466 0.000304257 0)
(7.6089e-05 0.000322079 0)
(-7.33649e-06 0.000326521 0)
(-9.06405e-05 0.000316863 0)
(-0.000169669 0.000293397 0)
(-0.000241212 0.000256572 0)
(-0.000302022 0.000208196 0)
(-0.000348583 0.000149969 0)
(-0.000378703 8.4781e-05 0)
(-0.000390622 1.58444e-05 0)
(-0.0003825 -5.35471e-05 0)
(-0.000355333 -0.00011985 0)
(-0.000309845 -0.000179384 0)
(-0.000248442 -0.000228737 0)
(-0.000174281 -0.000265093 0)
(-9.11214e-05 -0.0002859 0)
(-3.51018e-06 -0.000289706 0)
(8.2739e-05 -0.000275799 0)
(0.000161931 -0.000245191 0)
(0.000229441 -0.000199325 0)
(0.000281069 -0.000141375 0)
(0.000312926 -7.48292e-05 0)
(0.000322224 -4.23682e-06 0)
(0.000308305 6.51676e-05 0)
(0.000272558 0.000128635 0)
(0.000217283 0.000181592 0)
(0.000146454 0.000219344 0)
(6.59338e-05 0.00023941 0)
(-1.95088e-05 0.000239204 0)
(-0.000101156 0.000219071 0)
(-0.000171395 0.000180546 0)
(-0.000224826 0.000127153 0)
(-0.000257001 6.33651e-05 0)
(-0.000264368 -4.6713e-06 0)
(-0.000246173 -7.06572e-05 0)
(-0.000204663 -0.00012843 0)
(-0.000143658 -0.000172015 0)
(-6.94815e-05 -0.000197004 0)
(1.18364e-05 -0.000200604 0)
(8.96731e-05 -0.00018154 0)
(0.000154343 -0.000142808 0)
(0.00019986 -8.83776e-05 0)
(0.000221082 -2.47828e-05 0)
(0.000214999 4.07418e-05 0)
(0.000182022 0.000100377 0)
(0.000126599 0.00014685 0)
(5.49744e-05 0.000174245 0)
(-2.54612e-05 0.000178791 0)
(-0.000102126 0.00015877 0)
(-0.000163148 0.000117665 0)
(-0.000202183 6.08583e-05 0)
(-0.000213191 -3.88947e-06 0)
(-0.000194421 -6.78896e-05 0)
(-0.000148587 -0.000122155 0)
(-8.172e-05 -0.000159109 0)
(-6.55411e-07 -0.000173377 0)
(8.0647e-05 -0.000161936 0)
(0.000147982 -0.000127984 0)
(0.000194205 -7.70677e-05 0)
(0.000212762 -1.7622e-05 0)
(0.000201816 4.09111e-05 0)
(0.000164254 8.93673e-05 0)
(0.000107565 0.000120531 0)
(4.1657e-05 0.000130175 0)
(-2.24155e-05 0.000116804 0)
(-7.25177e-05 8.63648e-05 0)
(-0.000101308 4.58325e-05 0)
(-0.000106923 3.98232e-06 0)
(-9.17011e-05 -3.04855e-05 0)
(-6.22757e-05 -5.1929e-05 0)
(-2.71748e-05 -5.72841e-05 0)
(4.76024e-06 -4.7087e-05 0)
(2.45469e-05 -2.71792e-05 0)
(2.94201e-05 -5.13636e-06 0)
(2.20142e-05 1.18502e-05 0)
(5.54985e-06 2.03749e-05 0)
(-1.17597e-05 1.73569e-05 0)
(-2.13943e-05 6.28285e-06 0)
(-1.9706e-05 -6.77188e-06 0)
(-7.93287e-06 -1.55052e-05 0)
(2.37851e-05 0.000393643 0)
(7.5288e-05 0.000413517 0)
(0.000126645 0.000431345 0)
(0.000178583 0.000457449 0)
(0.000229249 0.000492727 0)
(0.00027816 0.000535606 0)
(0.000323996 0.000586887 0)
(0.000366689 0.000642966 0)
(0.00040588 0.000704986 0)
(0.000438825 0.000767855 0)
(0.000463478 0.000831412 0)
(0.000477722 0.000893022 0)
(0.000481727 0.000952148 0)
(0.000475036 0.00100702 0)
(0.000458096 0.00105695 0)
(0.000431225 0.00110052 0)
(0.000394985 0.00113746 0)
(0.000350491 0.00116612 0)
(0.000298455 0.00118739 0)
(0.000240222 0.00119961 0)
(0.000176801 0.00120313 0)
(0.000109492 0.0011974 0)
(3.9384e-05 0.00118311 0)
(-3.18725e-05 0.00115995 0)
(-0.000104013 0.0011292 0)
(-0.000175102 0.0010908 0)
(-0.000245338 0.00104653 0)
(-0.000313397 0.000996224 0)
(-0.000378154 0.000942289 0)
(-0.000439925 0.000884265 0)
(-0.000498455 0.000823961 0)
(-0.000553906 0.000760868 0)
(-0.00060456 0.000695963 0)
(-0.000650565 0.000629161 0)
(-0.000692137 0.000560824 0)
(-0.000729294 0.000491069 0)
(-0.000762121 0.000420321 0)
(-0.000790558 0.000348846 0)
(-0.000814109 0.000277115 0)
(-0.000833187 0.0002055 0)
(-0.000846738 0.000134289 0)
(-0.000855304 6.36747e-05 0)
(-0.000859445 -5.60895e-06 0)
(-0.000858573 -7.32911e-05 0)
(-0.000852331 -0.000139037 0)
(-0.000840574 -0.000202678 0)
(-0.000823151 -0.000263885 0)
(-0.000800161 -0.000322377 0)
(-0.000771562 -0.000377778 0)
(-0.000737606 -0.000430047 0)
(-0.000698278 -0.000478519 0)
(-0.000654184 -0.000523019 0)
(-0.000605184 -0.000563176 0)
(-0.000551765 -0.000598707 0)
(-0.000494181 -0.000629175 0)
(-0.00043299 -0.000654311 0)
(-0.000368568 -0.000673796 0)
(-0.000301446 -0.000687514 0)
(-0.000233055 -0.000694859 0)
(-0.000162935 -0.000696207 0)
(-9.18885e-05 -0.000690839 0)
(-2.12302e-05 -0.000679148 0)
(4.85549e-05 -0.000660781 0)
(0.000117026 -0.00063589 0)
(0.000182875 -0.000604506 0)
(0.00024549 -0.000566888 0)
(0.00030411 -0.000523342 0)
(0.000358028 -0.000474141 0)
(0.000406217 -0.000419897 0)
(0.00044813 -0.000361014 0)
(0.00048283 -0.00029817 0)
(0.000510062 -0.000232038 0)
(0.000529141 -0.000163621 0)
(0.000539448 -9.34454e-05 0)
(0.000540828 -2.28029e-05 0)
(0.000532347 4.73019e-05 0)
(0.000514849 0.000115995 0)
(0.0004882 0.00018225 0)
(0.000452585 0.000244986 0)
(0.000408665 0.000302894 0)
(0.000356323 0.000355114 0)
(0.000296848 0.000400446 0)
(0.000231159 0.000438062 0)
(0.0001601 0.000467033 0)
(8.49625e-05 0.000486643 0)
(7.05441e-06 0.000496318 0)
(-7.19086e-05 0.000495543 0)
(-0.000150494 0.000484123 0)
(-0.0002269 0.000462073 0)
(-0.000299396 0.000429552 0)
(-0.000366517 0.000387015 0)
(-0.000426311 0.000335103 0)
(-0.000477411 0.000274664 0)
(-0.000518311 0.000207051 0)
(-0.000547508 0.000133555 0)
(-0.000564041 5.59405e-05 0)
(-0.000567075 -2.40939e-05 0)
(-0.000555643 -0.000104475 0)
(-0.000530147 -0.000183458 0)
(-0.000490836 -0.000258531 0)
(-0.000437828 -0.000327814 0)
(-0.000372826 -0.000389024 0)
(-0.000296882 -0.000440344 0)
(-0.000211539 -0.000479729 0)
(-0.000119107 -0.000505834 0)
(-2.22279e-05 -0.000517396 0)
(7.64213e-05 -0.000513565 0)
(0.000173487 -0.000494004 0)
(0.00026623 -0.000458904 0)
(0.000351224 -0.000408939 0)
(0.000425736 -0.000345199 0)
(0.000487007 -0.000269611 0)
(0.000532113 -0.000184308 0)
(0.00055929 -9.19655e-05 0)
(0.000566715 4.28179e-06 0)
(0.000553734 0.000101097 0)
(0.000520478 0.000194565 0)
(0.000467499 0.00028138 0)
(0.000396106 0.00035778 0)
(0.000309311 0.000420312 0)
(0.000209377 0.000466312 0)
(0.000100332 0.000493276 0)
(-1.34636e-05 0.00049941 0)
(-0.00012687 0.000483951 0)
(-0.000234624 0.000447113 0)
(-0.000331844 0.000390247 0)
(-0.000413805 0.000315242 0)
(-0.000476611 0.000226116 0)
(-0.000516111 0.000125731 0)
(-0.000530579 1.9866e-05 0)
(-0.000518354 -8.64684e-05 0)
(-0.000479523 -0.000188074 0)
(-0.000416104 -0.000278648 0)
(-0.000331003 -0.000353745 0)
(-0.000228418 -0.000408173 0)
(-0.000113944 -0.000439051 0)
(6.27908e-06 -0.000443871 0)
(0.000124269 -0.000421425 0)
(0.000232046 -0.000373308 0)
(0.000323455 -0.000302143 0)
(0.000392156 -0.000212169 0)
(0.000433727 -0.000109413 0)
(0.000444116 -1.15519e-06 0)
(0.000422664 0.000105669 0)
(0.000371509 0.000203043 0)
(0.000293192 0.000283404 0)
(0.000194188 0.000340778 0)
(8.15437e-05 0.000370116 0)
(-3.66968e-05 0.000368537 0)
(-0.00014881 0.000336101 0)
(-0.000244795 0.000275453 0)
(-0.000317317 0.000192075 0)
(-0.000359593 9.31504e-05 0)
(-0.000367336 -1.21402e-05 0)
(-0.000340097 -0.000114067 0)
(-0.000280542 -0.000202522 0)
(-0.000194318 -0.000268987 0)
(-9.01185e-05 -0.000306397 0)
(2.33579e-05 -0.000310645 0)
(0.00013143 -0.000280101 0)
(0.000220634 -0.000219015 0)
(0.000282827 -0.000134341 0)
(0.000310592 -3.53061e-05 0)
(0.000300577 6.57991e-05 0)
(0.000253652 0.000157654 0)
(0.000175783 0.000228779 0)
(7.5872e-05 0.000270148 0)
(-3.57762e-05 0.000276151 0)
(-0.000141768 0.000244409 0)
(-0.000225782 0.000180428 0)
(-0.000278831 9.27896e-05 0)
(-0.000293423 -7.14675e-06 0)
(-0.000267199 -0.000104989 0)
(-0.000203855 -0.000187662 0)
(-0.000112196 -0.000243249 0)
(-1.98659e-06 -0.000263944 0)
(0.000107576 -0.000244859 0)
(0.000197444 -0.000191707 0)
(0.000257501 -0.000113144 0)
(0.00027958 -2.20238e-05 0)
(0.000261531 6.69069e-05 0)
(0.000207909 0.000139706 0)
(0.000129401 0.000185105 0)
(3.89072e-05 0.000197585 0)
(-4.652e-05 0.000174173 0)
(-0.000110417 0.000125677 0)
(-0.000144477 6.23384e-05 0)
(-0.000146277 -1.48901e-06 0)
(-0.000120015 -5.36986e-05 0)
(-7.53178e-05 -8.46001e-05 0)
(-2.40307e-05 -9.04501e-05 0)
(2.02883e-05 -7.1189e-05 0)
(4.54939e-05 -3.8604e-05 0)
(4.84694e-05 -3.63602e-06 0)
(3.41421e-05 2.31114e-05 0)
(7.90268e-06 3.54856e-05 0)
(-1.8777e-05 2.90863e-05 0)
(-3.29244e-05 1.01067e-05 0)
(-2.99175e-05 -1.1754e-05 0)
(-1.19953e-05 -2.6354e-05 0)
(5.9315e-05 -0.00106573 0)
(0.00018324 -0.00112366 0)
(0.000305307 -0.00110837 0)
(0.000424322 -0.0010821 0)
(0.000534457 -0.00104281 0)
(0.000636703 -0.000995123 0)
(0.000720861 -0.000929947 0)
(0.000786454 -0.000855219 0)
(0.000822138 -0.000758292 0)
(0.000822991 -0.000643766 0)
(0.000800522 -0.000507156 0)
(0.000754 -0.000364417 0)
(0.00068841 -0.000216302 0)
(0.000604376 -7.02421e-05 0)
(0.000504417 7.21641e-05 0)
(0.000391855 0.000206527 0)
(0.000266711 0.000330697 0)
(0.000135523 0.000442775 0)
(-3.19154e-06 0.000541822 0)
(-0.000146942 0.000623715 0)
(-0.000290852 0.000690553 0)
(-0.000433416 0.000741732 0)
(-0.000572703 0.0007795 0)
(-0.00070485 0.000800541 0)
(-0.00082871 0.000810488 0)
(-0.000940897 0.000803938 0)
(-0.00104226 0.000791154 0)
(-0.00112943 0.000763023 0)
(-0.00120432 0.000734829 0)
(-0.00126852 0.000693977 0)
(-0.00132345 0.000651755 0)
(-0.00137144 0.000602073 0)
(-0.00141107 0.000549284 0)
(-0.0014448 0.000492409 0)
(-0.00147161 0.000432726 0)
(-0.00149228 0.000370115 0)
(-0.00150666 0.000304759 0)
(-0.00151494 0.000236993 0)
(-0.00151652 0.000166899 0)
(-0.00151219 9.49238e-05 0)
(-0.00150249 2.15777e-05 0)
(-0.00148501 -5.24793e-05 0)
(-0.00145892 -0.000127292 0)
(-0.0014262 -0.00020241 0)
(-0.00138757 -0.000277448 0)
(-0.0013432 -0.000351547 0)
(-0.00129303 -0.000424332 0)
(-0.001237 -0.000495212 0)
(-0.00117604 -0.000563098 0)
(-0.00110946 -0.000628134 0)
(-0.00103684 -0.000689156 0)
(-0.000960052 -0.000745781 0)
(-0.000878172 -0.000797117 0)
(-0.000791605 -0.000842816 0)
(-0.000700919 -0.000882107 0)
(-0.00060686 -0.000914653 0)
(-0.000510121 -0.000939719 0)
(-0.000410374 -0.000957086 0)
(-0.000309883 -0.000966122 0)
(-0.000208482 -0.000966542 0)
(-0.000106747 -0.000958083 0)
(-6.5039e-06 -0.000940672 0)
(9.21538e-05 -0.000913974 0)
(0.000188003 -0.000878207 0)
(0.000279807 -0.000833468 0)
(0.000366474 -0.000779951 0)
(0.000447196 -0.000718069 0)
(0.000520667 -0.000648255 0)
(0.000586082 -0.000571223 0)
(0.000642619 -0.000487691 0)
(0.000689153 -0.000398659 0)
(0.000724884 -0.000304964 0)
(0.0007492 -0.000208029 0)
(0.000761848 -0.00010888 0)
(0.000761285 -8.96181e-06 0)
(0.000748089 9.02779e-05 0)
(0.000722865 0.000187485 0)
(0.000685111 0.000281081 0)
(0.000635038 0.000369467 0)
(0.000573202 0.000451095 0)
(0.000500361 0.000524341 0)
(0.000417695 0.000587969 0)
(0.000326571 0.000640391 0)
(0.000228315 0.000680576 0)
(0.000124557 0.000707191 0)
(1.72354e-05 0.00071973 0)
(-9.16633e-05 0.000717344 0)
(-0.000199565 0.000699834 0)
(-0.000304427 0.000667231 0)
(-0.000404076 0.00061958 0)
(-0.000496086 0.000557768 0)
(-0.000578297 0.000482543 0)
(-0.000648151 0.000395483 0)
(-0.00070394 0.00029814 0)
(-0.000743842 0.000192636 0)
(-0.000766493 8.1353e-05 0)
(-0.000770367 -3.32053e-05 0)
(-0.000755297 -0.000148328 0)
(-0.000720877 -0.000261018 0)
(-0.000667303 -0.000368395 0)
(-0.000595741 -0.000467057 0)
(-0.000507314 -0.000554409 0)
(-0.000403846 -0.00062726 0)
(-0.000287897 -0.00068313 0)
(-0.000162555 -0.000720189 0)
(-3.09568e-05 -0.00073629 0)
(0.000102733 -0.000730528 0)
(0.000234268 -0.000702227 0)
(0.000359531 -0.000651943 0)
(0.000474646 -0.000580319 0)
(0.000575154 -0.000489163 0)
(0.000657351 -0.00038108 0)
(0.000718007 -0.000259498 0)
(0.000754545 -0.000127962 0)
(0.0007644 9.01476e-06 0)
(0.000746135 0.000146292 0)
(0.000700492 0.000279264 0)
(0.000628538 0.000402171 0)
(0.000531626 0.000510141 0)
(0.000413493 0.000598391 0)
(0.00027859 0.000662952 0)
(0.000131296 0.000699914 0)
(-2.26759e-05 0.000708089 0)
(-0.000175826 0.000684876 0)
(-0.000320628 0.000631748 0)
(-0.000451247 0.000549862 0)
(-0.000560477 0.00044277 0)
(-0.000643636 0.000314894 0)
(-0.000696117 0.000172388 0)
(-0.000713486 2.11451e-05 0)
(-0.00069534 -0.000129343 0)
(-0.000641215 -0.000272802 0)
(-0.000553577 -0.000401142 0)
(-0.00043696 -0.000506485 0)
(-0.000297188 -0.000583063 0)
(-0.000142232 -0.000624961 0)
(2.07266e-05 -0.000630267 0)
(0.000180099 -0.00059659 0)
(0.000324958 -0.000526397 0)
(0.000447341 -0.000423661 0)
(0.000538797 -0.000294925 0)
(0.000591994 -0.000148093 0)
(0.000603465 6.776e-06 0)
(0.000572307 0.000158832 0)
(0.000499823 0.000296652 0)
(0.000391424 0.000410398 0)
(0.000254935 0.000490409 0)
(0.000100392 0.000530197 0)
(-6.08284e-05 0.0005261 0)
(-0.00021326 0.0004776 0)
(-0.00034299 0.000389098 0)
(-0.000439655 0.000268702 0)
(-0.000494961 0.000126313 0)
(-0.000503117 -2.46627e-05 0)
(-0.00046312 -0.000170082 0)
(-0.000379291 -0.000296037 0)
(-0.000259555 -0.000389753 0)
(-0.000115662 -0.000441465 0)
(4.00443e-05 -0.000445454 0)
(0.000187786 -0.000399911 0)
(0.000308882 -0.000310885 0)
(0.000392543 -0.000188635 0)
(0.000428687 -4.64966e-05 0)
(0.000412957 9.84937e-05 0)
(0.000347391 0.000229509 0)
(0.000239533 0.000330132 0)
(0.000102129 0.000387972 0)
(-5.04482e-05 0.000395342 0)
(-0.00019463 0.000348462 0)
(-0.000308167 0.000256164 0)
(-0.000379612 0.000130345 0)
(-0.000398234 -1.18567e-05 0)
(-0.000361483 -0.000151222 0)
(-0.000275173 -0.000267627 0)
(-0.000150908 -0.000345062 0)
(-2.39742e-06 -0.000372243 0)
(0.00014414 -0.00034348 0)
(0.000262726 -0.000266311 0)
(0.000340465 -0.000153794 0)
(0.000366302 -2.38935e-05 0)
(0.000338254 0.000101064 0)
(0.000262947 0.000202083 0)
(0.000155501 0.000263692 0)
(3.30313e-05 0.000277396 0)
(-8.007e-05 0.000241183 0)
(-0.000161348 0.00016921 0)
(-0.000201289 7.77951e-05 0)
(-0.000197202 -1.32592e-05 0)
(-0.000155726 -8.59318e-05 0)
(-9.0408e-05 -0.000127042 0)
(-1.73583e-05 -0.000131479 0)
(4.3041e-05 -0.000100008 0)
(7.40245e-05 -5.06807e-05 0)
(7.4163e-05 1.02065e-06 0)
(5.01043e-05 4.00388e-05 0)
(9.91399e-06 5.65015e-05 0)
(-2.94074e-05 4.47611e-05 0)
(-4.95752e-05 1.47956e-05 0)
(-4.46207e-05 -1.90446e-05 0)
(-1.7846e-05 -4.12875e-05 0)
(8.03752e-05 -0.000959226 0)
(0.00024961 -0.00096134 0)
(0.000416517 -0.000901604 0)
(0.000599955 -0.000810542 0)
(0.000783176 -0.000676081 0)
(0.000994504 -0.00050769 0)
(0.00120208 -0.000261741 0)
(0.0014196 1.54543e-05 0)
(0.00160466 0.000398352 0)
(0.00173759 0.000751009 0)
(0.00182987 0.00108457 0)
(0.00186095 0.00136809 0)
(0.0018504 0.00162526 0)
(0.00179156 0.0018505 0)
(0.00169688 0.00204547 0)
(0.0015659 0.00220772 0)
(0.00140829 0.00233603 0)
(0.0012285 0.00243143 0)