# Selection       : all 
# Volume          : 1.0000000000e-01
# Time            	min(epsilon)
1                 	1.1159270510e-01
