#           v             n
     0.523599             0
     0.648652             0
     0.790112             0
     0.953116             0
      1.13449             0
      1.34047             0
      1.56672             0
      1.82069             0
      2.09677   0.000405203
      2.40376    0.00182246
      2.73462    0.00428876
      3.09966    0.00667734
      3.49026    0.00854363
      3.91837    0.00935423
      4.37366    0.00850299
      4.86986     0.0057055
       5.3948    0.00293372
      5.96412    0.00113795
      6.56366   0.000354266
      7.21112   8.76907e-05
      7.89023   1.81816e-05
      8.62085   3.11317e-06
      9.38447   4.60033e-07
      10.2033   5.76314e-08
      11.0564   6.36404e-09
      11.9684   6.07141e-10
      12.9159   5.18624e-11
      13.9262   3.88208e-12
      14.9731   5.83302e-13
