/*--------------------------------*- C++ -*----------------------------------*\
  =========                 |
  \\      /  F ield         | OpenFOAM: The Open Source CFD Toolbox
   \\    /   O peration     | Website:  https://openfoam.org
    \\  /    A nd           | Version:  12
     \\/     M anipulation  |
\*---------------------------------------------------------------------------*/
FoamFile
{
    format      ascii;
    class       volScalarField;
    location    "6.02";
    object      p;
}
// * * * * * * * * * * * * * * * * * * * * * * * * * * * * * * * * * * * * * //

dimensions      [1 -1 -2 0 0 0 0];

internalField   nonuniform List<scalar> 
3829
(
-616.907
-616.906
-616.904
-616.901
-616.897
-616.893
-616.887
-616.879
-616.871
-616.861
-616.85
-616.838
-616.824
-616.808
-616.791
-616.771
-616.75
-616.727
-616.702
-616.675
-616.646
-616.615
-616.581
-616.545
-616.507
-616.467
-616.425
-616.38
-616.334
-616.285
-616.235
-616.183
-616.13
-616.075
-616.019
-615.962
-615.905
-615.847
-615.788
-615.729
-615.671
-615.612
-615.555
-615.498
-615.442
-615.387
-615.334
-615.283
-615.234
-615.188
-615.143
-615.102
-615.063
-615.027
-614.994
-614.963
-614.935
-614.911
-614.889
-614.869
-614.853
-614.839
-614.828
-614.818
-614.811
-614.806
-614.802
-614.8
-614.799
-614.798
-614.798
-614.798
-614.798
-614.798
-614.796
-614.794
-614.79
-614.785
-614.777
-614.768
-614.757
-614.744
-614.727
-614.709
-614.689
-614.666
-614.642
-614.616
-614.589
-614.562
-614.533
-614.504
-614.476
-614.448
-614.422
-614.397
-614.374
-614.353
-614.335
-614.321
-614.309
-614.3
-614.296
-614.294
-614.296
-614.301
-614.308
-614.317
-614.328
-614.341
-614.354
-614.367
-614.379
-614.39
-614.399
-614.406
-614.41
-614.412
-614.41
-614.406
-614.398
-614.387
-614.375
-614.36
-614.345
-614.328
-614.312
-614.297
-614.284
-614.273
-614.264
-614.259
-614.257
-614.258
-614.263
-614.271
-614.281
-614.294
-614.307
-614.322
-614.337
-614.351
-614.363
-614.373
-614.38
-614.385
-614.386
-614.383
-614.378
-614.369
-614.358
-614.345
-614.33
-614.314
-614.299
-614.284
-614.27
-614.258
-614.248
-614.241
-614.237
-614.236
-614.238
-614.242
-614.25
-614.26
-614.271
-614.285
-614.299
-614.313
-614.328
-614.342
-614.354
-614.366
-614.376
-614.384
-614.389
-614.393
-614.394
-614.394
-614.391
-614.387
-614.382
-614.376
-614.368
-614.361
-614.353
-614.345
-614.338
-614.331
-614.324
-614.319
-614.314
-614.31
-614.307
-614.304
-614.302
-614.301
-614.3
-614.299
-1775.36
-1775.36
-1775.36
-1775.36
-1775.35
-1775.35
-1775.34
-1775.34
-1775.33
-1775.32
-1775.31
-1775.3
-1775.29
-1775.27
-1775.26
-1775.24
-1775.22
-1775.2
-1775.17
-1775.14
-1775.11
-1775.08
-1775.04
-1775
-1774.96
-1774.91
-1774.87
-1774.82
-1774.76
-1774.71
-1774.65
-1774.59
-1774.53
-1774.47
-1774.4
-1774.34
-1774.27
-1774.2
-1774.14
-1774.07
-1774.01
-1773.94
-1773.88
-1773.81
-1773.75
-1773.69
-1773.63
-1773.58
-1773.53
-1773.48
-1773.43
-1773.39
-1773.35
-1773.31
-1773.28
-1773.25
-1773.23
-1773.21
-1773.19
-1773.17
-1773.16
-1773.15
-1773.14
-1773.14
-1773.14
-1773.14
-1773.14
-1773.15
-1773.15
-1773.16
-1773.16
-1773.17
-1773.17
-1773.18
-1773.18
-1773.18
-1773.18
-1773.18
-1773.17
-1773.16
-1773.15
-1773.14
-1773.12
-1773.1
-1773.08
-1773.06
-1773.03
-1773
-1772.97
-1772.93
-1772.9
-1772.87
-1772.84
-1772.8
-1772.77
-1772.74
-1772.72
-1772.7
-1772.68
-1772.66
-1772.65
-1772.64
-1772.64
-1772.64
-1772.64
-1772.65
-1772.66
-1772.67
-1772.69
-1772.71
-1772.72
-1772.74
-1772.76
-1772.77
-1772.78
-1772.79
-1772.8
-1772.8
-1772.8
-1772.79
-1772.78
-1772.77
-1772.75
-1772.74
-1772.72
-1772.7
-1772.68
-1772.66
-1772.64
-1772.63
-1772.62
-1772.61
-1772.61
-1772.61
-1772.62
-1772.63
-1772.64
-1772.66
-1772.67
-1772.69
-1772.71
-1772.73
-1772.74
-1772.75
-1772.76
-1772.76
-1772.77
-1772.76
-1772.76
-1772.75
-1772.73
-1772.72
-1772.7
-1772.68
-1772.67
-1772.65
-1772.63
-1772.62
-1772.61
-1772.6
-1772.6
-1772.6
-1772.6
-1772.61
-1772.61
-1772.63
-1772.64
-1772.65
-1772.67
-1772.68
-1772.7
-1772.71
-1772.73
-1772.74
-1772.75
-1772.76
-1772.76
-1772.77
-1772.77
-1772.77
-1772.76
-1772.76
-1772.75
-1772.75
-1772.74
-1772.73
-1772.72
-1772.71
-1772.71
-1772.7
-1772.69
-1772.69
-1772.68
-1772.68
-1772.68
-1772.67
-1772.67
-1772.67
-1772.67
-1772.67
-2801.65
-2801.65
-2801.65
-2801.65
-2801.65
-2801.65
-2801.65
-2801.65
-2801.64
-2801.64
-2801.64
-2801.63
-2801.62
-2801.61
-2801.6
-2801.59
-2801.57
-2801.55
-2801.52
-2801.49
-2801.46
-2801.42
-2801.38
-2801.33
-2801.28
-2801.23
-2801.17
-2801.11
-2801.04
-2800.97
-2800.9
-2800.83
-2800.75
-2800.67
-2800.59
-2800.51
-2800.42
-2800.34
-2800.26
-2800.18
-2800.1
-2800.02
-2799.94
-2799.87
-2799.8
-2799.73
-2799.66
-2799.6
-2799.54
-2799.49
-2799.44
-2799.4
-2799.36
-2799.32
-2799.29
-2799.27
-2799.25
-2799.23
-2799.22
-2799.21
-2799.21
-2799.21
-2799.21
-2799.22
-2799.23
-2799.24
-2799.26
-2799.27
-2799.29
-2799.31
-2799.32
-2799.34
-2799.35
-2799.37
-2799.38
-2799.38
-2799.39
-2799.39
-2799.39
-2799.38
-2799.37
-2799.35
-2799.33
-2799.31
-2799.28
-2799.25
-2799.22
-2799.18
-2799.14
-2799.1
-2799.06
-2799.02
-2798.98
-2798.94
-2798.9
-2798.86
-2798.83
-2798.81
-2798.78
-2798.77
-2798.75
-2798.75
-2798.75
-2798.75
-2798.76
-2798.77
-2798.79
-2798.81
-2798.84
-2798.86
-2798.89
-2798.91
-2798.93
-2798.95
-2798.97
-2798.98
-2798.99
-2798.99
-2798.99
-2798.98
-2798.97
-2798.95
-2798.93
-2798.91
-2798.88
-2798.85
-2798.83
-2798.8
-2798.78
-2798.77
-2798.75
-2798.75
-2798.75
-2798.75
-2798.76
-2798.77
-2798.79
-2798.81
-2798.83
-2798.85
-2798.88
-2798.9
-2798.91
-2798.93
-2798.94
-2798.94
-2798.94
-2798.94
-2798.93
-2798.92
-2798.9
-2798.88
-2798.86
-2798.84
-2798.82
-2798.8
-2798.79
-2798.77
-2798.76
-2798.75
-2798.75
-2798.75
-2798.75
-2798.76
-2798.77
-2798.78
-2798.79
-2798.81
-2798.83
-2798.84
-2798.86
-2798.88
-2798.89
-2798.9
-2798.91
-2798.92
-2798.93
-2798.93
-2798.93
-2798.93
-2798.93
-2798.92
-2798.92
-2798.91
-2798.9
-2798.89
-2798.88
-2798.87
-2798.87
-2798.86
-2798.85
-2798.85
-2798.84
-2798.84
-2798.83
-2798.83
-2798.83
-2798.83
-2798.83
-2798.83
-3710.81
-3710.81
-3710.82
-3710.82
-3710.83
-3710.84
-3710.84
-3710.85
-3710.86
-3710.87
-3710.88
-3710.89
-3710.9
-3710.9
-3710.9
-3710.89
-3710.88
-3710.86
-3710.84
-3710.82
-3710.78
-3710.74
-3710.69
-3710.64
-3710.57
-3710.5
-3710.43
-3710.34
-3710.26
-3710.16
-3710.07
-3709.97
-3709.86
-3709.76
-3709.65
-3709.54
-3709.44
-3709.33
-3709.22
-3709.12
-3709.02
-3708.92
-3708.83
-3708.74
-3708.65
-3708.57
-3708.5
-3708.42
-3708.36
-3708.3
-3708.25
-3708.21
-3708.17
-3708.14
-3708.12
-3708.1
-3708.08
-3708.08
-3708.08
-3708.08
-3708.09
-3708.11
-3708.13
-3708.15
-3708.18
-3708.21
-3708.24
-3708.27
-3708.31
-3708.34
-3708.37
-3708.4
-3708.43
-3708.45
-3708.47
-3708.49
-3708.5
-3708.51
-3708.51
-3708.5
-3708.49
-3708.48
-3708.45
-3708.42
-3708.39
-3708.35
-3708.3
-3708.25
-3708.2
-3708.15
-3708.09
-3708.04
-3707.99
-3707.94
-3707.89
-3707.84
-3707.8
-3707.77
-3707.74
-3707.72
-3707.71
-3707.71
-3707.71
-3707.72
-3707.74
-3707.76
-3707.79
-3707.82
-3707.86
-3707.89
-3707.93
-3707.97
-3708
-3708.03
-3708.05
-3708.07
-3708.08
-3708.08
-3708.08
-3708.07
-3708.05
-3708.02
-3707.99
-3707.96
-3707.92
-3707.89
-3707.85
-3707.82
-3707.79
-3707.77
-3707.76
-3707.75
-3707.75
-3707.75
-3707.77
-3707.79
-3707.81
-3707.84
-3707.87
-3707.9
-3707.92
-3707.95
-3707.97
-3707.99
-3708
-3708.01
-3708.01
-3708
-3707.99
-3707.97
-3707.95
-3707.93
-3707.91
-3707.88
-3707.86
-3707.83
-3707.81
-3707.8
-3707.78
-3707.78
-3707.77
-3707.77
-3707.78
-3707.78
-3707.8
-3707.81
-3707.83
-3707.85
-3707.87
-3707.88
-3707.9
-3707.92
-3707.94
-3707.95
-3707.96
-3707.97
-3707.97
-3707.98
-3707.98
-3707.98
-3707.97
-3707.96
-3707.96
-3707.95
-3707.94
-3707.93
-3707.92
-3707.91
-3707.9
-3707.9
-3707.89
-3707.88
-3707.88
-3707.87
-3707.87
-3707.87
-3707.87
-3707.87
-3707.87
-3707.87
-4516.18
-4516.18
-4516.19
-4516.21
-4516.23
-4516.25
-4516.28
-4516.31
-4516.35
-4516.39
-4516.42
-4516.46
-4516.5
-4516.53
-4516.55
-4516.57
-4516.58
-4516.58
-4516.56
-4516.54
-4516.5
-4516.45
-4516.39
-4516.32
-4516.23
-4516.13
-4516.03
-4515.91
-4515.79
-4515.66
-4515.52
-4515.39
-4515.24
-4515.1
-4514.96
-4514.81
-4514.67
-4514.53
-4514.4
-4514.26
-4514.14
-4514.02
-4513.9
-4513.79
-4513.69
-4513.59
-4513.51
-4513.43
-4513.36
-4513.3
-4513.25
-4513.21
-4513.17
-4513.15
-4513.13
-4513.12
-4513.12
-4513.13
-4513.15
-4513.17
-4513.2
-4513.23
-4513.27
-4513.32
-4513.37
-4513.42
-4513.47
-4513.52
-4513.58
-4513.63
-4513.68
-4513.73
-4513.78
-4513.81
-4513.85
-4513.88
-4513.9
-4513.91
-4513.91
-4513.91
-4513.89
-4513.87
-4513.84
-4513.81
-4513.76
-4513.71
-4513.65
-4513.59
-4513.52
-4513.45
-4513.38
-4513.31
-4513.24
-4513.17
-4513.11
-4513.05
-4513
-4512.96
-4512.93
-4512.91
-4512.89
-4512.89
-4512.9
-4512.92
-4512.95
-4512.98
-4513.03
-4513.07
-4513.13
-4513.18
-4513.23
-4513.28
-4513.33
-4513.37
-4513.4
-4513.42
-4513.43
-4513.44
-4513.43
-4513.41
-4513.38
-4513.35
-4513.31
-4513.26
-4513.21
-4513.17
-4513.12
-4513.08
-4513.04
-4513.01
-4513
-4512.99
-4512.99
-4513
-4513.02
-4513.04
-4513.08
-4513.11
-4513.15
-4513.19
-4513.23
-4513.26
-4513.29
-4513.31
-4513.32
-4513.33
-4513.33
-4513.32
-4513.3
-4513.28
-4513.26
-4513.23
-4513.2
-4513.17
-4513.14
-4513.11
-4513.09
-4513.07
-4513.05
-4513.04
-4513.04
-4513.04
-4513.05
-4513.06
-4513.07
-4513.09
-4513.11
-4513.13
-4513.15
-4513.17
-4513.2
-4513.21
-4513.23
-4513.25
-4513.26
-4513.27
-4513.27
-4513.27
-4513.27
-4513.27
-4513.26
-4513.26
-4513.25
-4513.24
-4513.23
-4513.22
-4513.21
-4513.2
-4513.19
-4513.18
-4513.17
-4513.17
-4513.16
-4513.16
-4513.16
-4513.16
-4513.16
-4513.15
-4513.15
-4513.15
-5229.41
-5229.42
-5229.44
-5229.48
-5229.52
-5229.58
-5229.64
-5229.71
-5229.79
-5229.87
-5229.95
-5230.02
-5230.09
-5230.15
-5230.21
-5230.25
-5230.28
-5230.3
-5230.31
-5230.31
-5230.3
-5230.27
-5230.22
-5230.15
-5230.05
-5229.94
-5229.8
-5229.64
-5229.47
-5229.29
-5229.1
-5228.91
-5228.71
-5228.51
-5228.32
-5228.13
-5227.94
-5227.76
-5227.59
-5227.42
-5227.27
-5227.12
-5226.98
-5226.85
-5226.73
-5226.63
-5226.53
-5226.45
-5226.38
-5226.31
-5226.26
-5226.22
-5226.2
-5226.18
-5226.18
-5226.18
-5226.2
-5226.23
-5226.26
-5226.31
-5226.36
-5226.42
-5226.49
-5226.56
-5226.64
-5226.72
-5226.8
-5226.88
-5226.96
-5227.03
-5227.11
-5227.18
-5227.24
-5227.3
-5227.35
-5227.39
-5227.42
-5227.43
-5227.44
-5227.44
-5227.42
-5227.39
-5227.36
-5227.31
-5227.25
-5227.18
-5227.1
-5227.02
-5226.93
-5226.84
-5226.75
-5226.65
-5226.56
-5226.48
-5226.4
-5226.33
-5226.27
-5226.22
-5226.18
-5226.15
-5226.14
-5226.15
-5226.16
-5226.19
-5226.23
-5226.29
-5226.35
-5226.41
-5226.48
-5226.56
-5226.63
-5226.69
-5226.76
-5226.81
-5226.85
-5226.88
-5226.9
-5226.9
-5226.89
-5226.86
-5226.82
-5226.78
-5226.72
-5226.66
-5226.59
-5226.53
-5226.47
-5226.42
-5226.37
-5226.34
-5226.31
-5226.3
-5226.31
-5226.32
-5226.35
-5226.39
-5226.43
-5226.48
-5226.53
-5226.58
-5226.62
-5226.66
-5226.7
-5226.72
-5226.74
-5226.74
-5226.74
-5226.73
-5226.71
-5226.68
-5226.65
-5226.62
-5226.58
-5226.54
-5226.51
-5226.48
-5226.45
-5226.43
-5226.41
-5226.4
-5226.4
-5226.4
-5226.41
-5226.42
-5226.44
-5226.46
-5226.48
-5226.51
-5226.53
-5226.56
-5226.58
-5226.6
-5226.62
-5226.63
-5226.65
-5226.65
-5226.66
-5226.66
-5226.66
-5226.66
-5226.65
-5226.64
-5226.63
-5226.62
-5226.61
-5226.6
-5226.59
-5226.57
-5226.57
-5226.56
-5226.55
-5226.54
-5226.54
-5226.54
-5226.53
-5226.53
-5226.53
-5226.53
-5226.53
-5226.53
-5861.03
-5861.06
-5861.11
-5861.19
-5861.3
-5861.43
-5861.59
-5861.77
-5861.97
-5862.18
-5862.4
-5862.63
-5862.86
-5863.09
-5863.29
-5863.46
-5863.59
-5863.69
-5863.75
-5863.76
-5863.71
-5863.61
-5863.43
-5863.21
-5862.97
-5862.71
-5862.43
-5862.13
-5861.85
-5861.56
-5861.28
-5861
-5860.73
-5860.47
-5860.21
-5859.96
-5859.72
-5859.5
-5859.28
-5859.08
-5858.89
-5858.72
-5858.56
-5858.41
-5858.28
-5858.16
-5858.06
-5857.97
-5857.9
-5857.84
-5857.8
-5857.77
-5857.75
-5857.75
-5857.76
-5857.79
-5857.83
-5857.88
-5857.94
-5858.01
-5858.09
-5858.18
-5858.28
-5858.38
-5858.49
-5858.6
-5858.71
-5858.82
-5858.93
-5859.04
-5859.14
-5859.23
-5859.32
-5859.39
-5859.46
-5859.51
-5859.55
-5859.58
-5859.59
-5859.59
-5859.56
-5859.53
-5859.48
-5859.41
-5859.34
-5859.25
-5859.15
-5859.04
-5858.93
-5858.81
-5858.69
-5858.58
-5858.46
-5858.35
-5858.26
-5858.17
-5858.09
-5858.03
-5857.99
-5857.96
-5857.95
-5857.96
-5857.99
-5858.03
-5858.09
-5858.16
-5858.24
-5858.33
-5858.42
-5858.52
-5858.61
-5858.7
-5858.78
-5858.85
-5858.9
-5858.94
-5858.96
-5858.96
-5858.94
-5858.9
-5858.85
-5858.79
-5858.72
-5858.64
-5858.55
-5858.47
-5858.4
-5858.33
-5858.27
-5858.23
-5858.2
-5858.19
-5858.2
-5858.22
-5858.26
-5858.31
-5858.36
-5858.42
-5858.48
-5858.55
-5858.6
-5858.65
-5858.69
-5858.72
-5858.74
-5858.75
-5858.74
-5858.73
-5858.7
-5858.67
-5858.63
-5858.59
-5858.54
-5858.5
-5858.46
-5858.42
-5858.39
-5858.37
-5858.35
-5858.34
-5858.33
-5858.34
-5858.35
-5858.36
-5858.39
-5858.41
-5858.44
-5858.46
-5858.49
-5858.52
-5858.54
-5858.57
-5858.59
-5858.6
-5858.62
-5858.62
-5858.63
-5858.63
-5858.63
-5858.62
-5858.61
-5858.6
-5858.59
-5858.58
-5858.57
-5858.56
-5858.54
-5858.53
-5858.52
-5858.51
-5858.51
-5858.5
-5858.5
-5858.49
-5858.49
-5858.49
-5858.49
-5858.49
-5858.49
-5858.49
-6419.91
-6419.96
-6420.05
-6420.2
-6420.39
-6420.62
-6420.9
-6421.21
-6421.55
-6421.9
-6422.24
-6422.55
-6422.82
-6423.06
-6423.28
-6423.48
-6423.64
-6423.76
-6423.82
-6423.82
-6423.77
-6423.68
-6423.56
-6423.41
-6423.23
-6422.95
-6422.64
-6422.27
-6421.93
-6421.58
-6421.22
-6420.87
-6420.52
-6420.19
-6419.87
-6419.56
-6419.27
-6419
-6418.74
-6418.51
-6418.29
-6418.1
-6417.92
-6417.76
-6417.62
-6417.49
-6417.39
-6417.3
-6417.23
-6417.18
-6417.15
-6417.13
-6417.13
-6417.15
-6417.18
-6417.23
-6417.29
-6417.37
-6417.46
-6417.57
-6417.68
-6417.8
-6417.94
-6418.07
-6418.22
-6418.36
-6418.51
-6418.66
-6418.8
-6418.94
-6419.07
-6419.19
-6419.3
-6419.39
-6419.48
-6419.54
-6419.59
-6419.62
-6419.64
-6419.63
-6419.6
-6419.56
-6419.49
-6419.41
-6419.31
-6419.2
-6419.08
-6418.94
-6418.8
-6418.66
-6418.51
-6418.36
-6418.22
-6418.09
-6417.97
-6417.86
-6417.77
-6417.7
-6417.65
-6417.62
-6417.61
-6417.63
-6417.67
-6417.73
-6417.8
-6417.9
-6418
-6418.12
-6418.24
-6418.36
-6418.48
-6418.59
-6418.69
-6418.77
-6418.84
-6418.88
-6418.9
-6418.9
-6418.88
-6418.83
-6418.77
-6418.68
-6418.59
-6418.49
-6418.38
-6418.28
-6418.19
-6418.1
-6418.04
-6417.99
-6417.96
-6417.95
-6417.96
-6417.99
-6418.03
-6418.09
-6418.16
-6418.24
-6418.32
-6418.39
-6418.46
-6418.52
-6418.57
-6418.6
-6418.62
-6418.63
-6418.62
-6418.6
-6418.56
-6418.52
-6418.48
-6418.43
-6418.38
-6418.33
-6418.28
-6418.24
-6418.2
-6418.17
-6418.16
-6418.14
-6418.14
-6418.15
-6418.16
-6418.18
-6418.2
-6418.23
-6418.26
-6418.29
-6418.32
-6418.35
-6418.38
-6418.41
-6418.43
-6418.45
-6418.46
-6418.47
-6418.47
-6418.47
-6418.47
-6418.46
-6418.45
-6418.44
-6418.43
-6418.42
-6418.4
-6418.39
-6418.38
-6418.36
-6418.35
-6418.34
-6418.34
-6418.33
-6418.33
-6418.32
-6418.32
-6418.32
-6418.32
-6418.32
-6418.32
-6418.32
-6914.3
-6914.38
-6914.55
-6914.8
-6915.14
-6915.54
-6916.01
-6916.53
-6917.1
-6917.71
-6918.35
-6918.98
-6919.57
-6920.11
-6920.58
-6920.97
-6921.27
-6921.5
-6921.64
-6921.69
-6921.65
-6921.52
-6921.3
-6920.95
-6920.47
-6919.95
-6919.44
-6918.93
-6918.41
-6917.86
-6917.33
-6916.81
-6916.34
-6915.9
-6915.49
-6915.13
-6914.79
-6914.48
-6914.2
-6913.94
-6913.71
-6913.5
-6913.31
-6913.14
-6913
-6912.87
-6912.77
-6912.69
-6912.63
-6912.58
-6912.56
-6912.56
-6912.58
-6912.62
-6912.68
-6912.75
-6912.84
-6912.95
-6913.08
-6913.21
-6913.37
-6913.53
-6913.7
-6913.87
-6914.06
-6914.24
-6914.43
-6914.61
-6914.79
-6914.96
-6915.12
-6915.27
-6915.41
-6915.53
-6915.63
-6915.71
-6915.77
-6915.8
-6915.82
-6915.81
-6915.77
-6915.71
-6915.63
-6915.53
-6915.41
-6915.27
-6915.12
-6914.95
-6914.78
-6914.6
-6914.42
-6914.24
-6914.07
-6913.91
-6913.77
-6913.64
-6913.53
-6913.45
-6913.39
-6913.36
-6913.36
-6913.38
-6913.44
-6913.51
-6913.61
-6913.73
-6913.86
-6914.01
-6914.16
-6914.31
-6914.46
-6914.59
-6914.71
-6914.81
-6914.89
-6914.94
-6914.97
-6914.96
-6914.93
-6914.87
-6914.79
-6914.68
-6914.57
-6914.44
-6914.31
-6914.19
-6914.08
-6913.98
-6913.89
-6913.84
-6913.8
-6913.79
-6913.81
-6913.85
-6913.91
-6913.98
-6914.07
-6914.16
-6914.25
-6914.34
-6914.42
-6914.49
-6914.55
-6914.59
-6914.61
-6914.61
-6914.6
-6914.57
-6914.53
-6914.48
-6914.43
-6914.37
-6914.31
-6914.25
-6914.2
-6914.15
-6914.11
-6914.08
-6914.06
-6914.05
-6914.05
-6914.06
-6914.08
-6914.1
-6914.13
-6914.16
-6914.19
-6914.23
-6914.26
-6914.29
-6914.32
-6914.35
-6914.37
-6914.39
-6914.4
-6914.41
-6914.42
-6914.42
-6914.41
-6914.4
-6914.39
-6914.38
-6914.37
-6914.35
-6914.34
-6914.32
-6914.31
-6914.3
-6914.29
-6914.28
-6914.27
-6914.26
-6914.26
-6914.26
-6914.26
-6914.26
-6914.26
-6914.26
-6914.26
-6914.26
-7351.16
-7351.28
-7351.53
-7351.93
-7352.5
-7353.24
-7354.23
-7355.11
-7356.84
-7358.07
-7359.14
-7360.09
-7360.91
-7361.58
-7362.13
-7362.58
-7362.93
-7363.18
-7363.33
-7363.39
-7363.36
-7363.22
-7362.98
-7362.62
-7362.13
-7361.48
-7360.48
-7358.84
-7358.23
-7357.26
-7356.51
-7355.84
-7355.28
-7354.77
-7354.33
-7353.93
-7353.57
-7353.25
-7352.95
-7352.69
-7352.45
-7352.23
-7352.04
-7351.88
-7351.73
-7351.61
-7351.52
-7351.44
-7351.39
-7351.36
-7351.36
-7351.37
-7351.41
-7351.47
-7351.56
-7351.66
-7351.78
-7351.93
-7352.09
-7352.26
-7352.45
-7352.65
-7352.86
-7353.08
-7353.31
-7353.53
-7353.76
-7353.98
-7354.2
-7354.4
-7354.6
-7354.78
-7354.94
-7355.08
-7355.2
-7355.3
-7355.37
-7355.41
-7355.42
-7355.41
-7355.36
-7355.29
-7355.19
-7355.07
-7354.92
-7354.75
-7354.57
-7354.37
-7354.16
-7353.94
-7353.73
-7353.52
-7353.31
-7353.12
-7352.95
-7352.8
-7352.68
-7352.58
-7352.52
-7352.49
-7352.49
-7352.53
-7352.59
-7352.69
-7352.81
-7352.96
-7353.12
-7353.3
-7353.48
-7353.67
-7353.84
-7354
-7354.15
-7354.27
-7354.36
-7354.42
-7354.44
-7354.43
-7354.39
-7354.32
-7354.21
-7354.09
-7353.95
-7353.8
-7353.64
-7353.49
-7353.36
-7353.24
-7353.15
-7353.08
-7353.04
-7353.04
-7353.06
-7353.11
-7353.18
-7353.28
-7353.38
-7353.49
-7353.6
-7353.7
-7353.79
-7353.87
-7353.93
-7353.97
-7354
-7354
-7353.98
-7353.95
-7353.9
-7353.84
-7353.78
-7353.71
-7353.65
-7353.58
-7353.52
-7353.47
-7353.43
-7353.4
-7353.37
-7353.36
-7353.36
-7353.37
-7353.39
-7353.42
-7353.45
-7353.48
-7353.52
-7353.56
-7353.6
-7353.63
-7353.67
-7353.7
-7353.72
-7353.74
-7353.75
-7353.76
-7353.76
-7353.76
-7353.76
-7353.75
-7353.73
-7353.72
-7353.71
-7353.69
-7353.67
-7353.66
-7353.64
-7353.63
-7353.62
-7353.61
-7353.6
-7353.6
-7353.59
-7353.59
-7353.59
-7353.59
-7353.59
-7353.59
-7353.59
-7353.59
-7736.92
-7737.06
-7737.29
-7737.73
-7738.37
-7739.28
-7740.51
-7742.07
-7744.45
-7746.34
-7748.06
-7749.49
-7750.73
-7751.8
-7752.69
-7753.41
-7753.97
-7754.34
-7754.58
-7754.65
-7754.55
-7754.27
-7753.79
-7753.12
-7752.23
-7751.01
-7749.67
-7747.89
-7746.71
-7745.74
-7744.95
-7744.29
-7743.74
-7743.25
-7742.82
-7742.44
-7742.09
-7741.78
-7741.49
-7741.23
-7741
-7740.79
-7740.6
-7740.44
-7740.3
-7740.18
-7740.1
-7740.03
-7739.99
-7739.98
-7739.99
-7740.02
-7740.09
-7740.17
-7740.28
-7740.42
-7740.57
-7740.75
-7740.95
-7741.16
-7741.39
-7741.64
-7741.89
-7742.15
-7742.42
-7742.69
-7742.96
-7743.22
-7743.47
-7743.72
-7743.95
-7744.16
-7744.35
-7744.51
-7744.65
-7744.76
-7744.84
-7744.88
-7744.9
-7744.88
-7744.82
-7744.73
-7744.61
-7744.46
-7744.29
-7744.09
-7743.87
-7743.63
-7743.38
-7743.13
-7742.88
-7742.63
-7742.4
-7742.18
-7741.98
-7741.81
-7741.67
-7741.56
-7741.49
-7741.46
-7741.46
-7741.51
-7741.6
-7741.71
-7741.86
-7742.04
-7742.24
-7742.45
-7742.66
-7742.88
-7743.08
-7743.27
-7743.44
-7743.58
-7743.68
-7743.75
-7743.78
-7743.76
-7743.71
-7743.62
-7743.49
-7743.35
-7743.18
-7743
-7742.82
-7742.64
-7742.49
-7742.35
-7742.24
-7742.17
-7742.13
-7742.13
-7742.16
-7742.22
-7742.31
-7742.42
-7742.54
-7742.66
-7742.79
-7742.91
-7743.01
-7743.1
-7743.17
-7743.21
-7743.24
-7743.24
-7743.21
-7743.18
-7743.12
-7743.06
-7742.98
-7742.91
-7742.83
-7742.76
-7742.69
-7742.64
-7742.59
-7742.56
-7742.54
-7742.53
-7742.53
-7742.54
-7742.56
-7742.59
-7742.63
-7742.66
-7742.71
-7742.75
-7742.79
-7742.83
-7742.86
-7742.89
-7742.92
-7742.94
-7742.95
-7742.96
-7742.96
-7742.96
-7742.95
-7742.94
-7742.93
-7742.91
-7742.89
-7742.88
-7742.86
-7742.84
-7742.83
-7742.81
-7742.8
-7742.79
-7742.79
-7742.78
-7742.78
-7742.78
-7742.78
-7742.78
-7742.78
-7742.78
-7742.78
-7742.78
-8077.46
-8077.51
-8077.62
-8077.79
-8078
-8078.25
-8078.4
-8078.72
-8089.11
-8088.78
-8088.55
-8088.2
-8087.84
-8087.47
-8087.13
-8086.78
-8086.45
-8086.14
-8085.85
-8085.58
-8085.34
-8085.11
-8084.91
-8084.73
-8084.57
-8084.44
-8084.33
-8084.25
-8084.2
-8084.17
-8084.17
-8084.2
-8084.26
-8084.34
-8084.45
-8084.59
-8084.76
-8084.95
-8085.16
-8085.4
-8085.65
-8085.92
-8086.21
-8086.5
-8086.81
-8087.12
-8087.43
-8087.75
-8088.05
-8088.34
-8088.63
-8088.89
-8089.13
-8089.35
-8089.54
-8089.69
-8089.82
-8089.9
-8089.95
-8089.96
-8089.94
-8089.87
-8089.76
-8089.62
-8089.45
-8089.24
-8089.01
-8088.75
-8088.48
-8088.19
-8087.9
-8087.61
-8087.33
-8087.05
-8086.8
-8086.58
-8086.38
-8086.22
-8086.11
-8086.03
-8086
-8086.01
-8086.07
-8086.17
-8086.32
-8086.49
-8086.7
-8086.93
-8087.17
-8087.42
-8087.67
-8087.91
-8088.13
-8088.32
-8088.48
-8088.6
-8088.67
-8088.7
-8088.68
-8088.61
-8088.5
-8088.36
-8088.18
-8087.99
-8087.78
-8087.57
-8087.37
-8087.19
-8087.04
-8086.92
-8086.84
-8086.8
-8086.8
-8086.84
-8086.91
-8087.02
-8087.14
-8087.28
-8087.42
-8087.57
-8087.7
-8087.82
-8087.92
-8087.99
-8088.04
-8088.06
-8088.06
-8088.03
-8087.98
-8087.92
-8087.85
-8087.76
-8087.68
-8087.6
-8087.52
-8087.45
-8087.38
-8087.34
-8087.3
-8087.28
-8087.27
-8087.27
-8087.29
-8087.31
-8087.34
-8087.38
-8087.42
-8087.47
-8087.51
-8087.56
-8087.6
-8087.63
-8087.67
-8087.69
-8087.71
-8087.73
-8087.73
-8087.74
-8087.73
-8087.73
-8087.71
-8087.7
-8087.68
-8087.66
-8087.65
-8087.63
-8087.61
-8087.59
-8087.58
-8087.57
-8087.56
-8087.55
-8087.55
-8087.54
-8087.54
-8087.54
-8087.54
-8087.54
-8087.54
-8087.55
-8087.55
-8378.77
-8378.8
-8378.86
-8378.95
-8379.06
-8379.17
-8379.26
-8379.42
-8393.24
-8393.01
-8392.83
-8392.57
-8392.29
-8392
-8391.71
-8391.42
-8391.14
-8390.86
-8390.6
-8390.35
-8390.11
-8389.9
-8389.7
-8389.53
-8389.38
-8389.25
-8389.15
-8389.08
-8389.03
-8389.02
-8389.04
-8389.08
-8389.16
-8389.26
-8389.4
-8389.57
-8389.76
-8389.99
-8390.24
-8390.51
-8390.8
-8391.12
-8391.45
-8391.79
-8392.14
-8392.49
-8392.85
-8393.2
-8393.55
-8393.88
-8394.2
-8394.5
-8394.77
-8395.02
-8395.23
-8395.4
-8395.54
-8395.63
-8395.69
-8395.7
-8395.66
-8395.58
-8395.46
-8395.29
-8395.09
-8394.85
-8394.58
-8394.29
-8393.98
-8393.65
-8393.32
-8392.99
-8392.67
-8392.37
-8392.08
-8391.83
-8391.61
-8391.44
-8391.3
-8391.22
-8391.19
-8391.21
-8391.29
-8391.41
-8391.57
-8391.78
-8392.02
-8392.28
-8392.56
-8392.85
-8393.13
-8393.4
-8393.65
-8393.86
-8394.04
-8394.17
-8394.25
-8394.28
-8394.25
-8394.17
-8394.05
-8393.88
-8393.68
-8393.45
-8393.22
-8392.98
-8392.75
-8392.55
-8392.38
-8392.25
-8392.16
-8392.12
-8392.12
-8392.17
-8392.26
-8392.38
-8392.52
-8392.68
-8392.84
-8393
-8393.15
-8393.28
-8393.39
-8393.47
-8393.52
-8393.54
-8393.53
-8393.5
-8393.45
-8393.37
-8393.29
-8393.2
-8393.11
-8393.02
-8392.93
-8392.85
-8392.79
-8392.74
-8392.7
-8392.68
-8392.67
-8392.67
-8392.69
-8392.72
-8392.75
-8392.8
-8392.84
-8392.89
-8392.94
-8392.98
-8393.03
-8393.07
-8393.1
-8393.13
-8393.15
-8393.16
-8393.17
-8393.17
-8393.17
-8393.16
-8393.14
-8393.13
-8393.11
-8393.09
-8393.07
-8393.05
-8393.03
-8393.02
-8393
-8392.99
-8392.98
-8392.97
-8392.97
-8392.97
-8392.96
-8392.96
-8392.97
-8392.97
-8392.97
-8392.97
-8392.97
-8645.6
-8645.61
-8645.65
-8645.69
-8645.74
-8645.8
-8645.83
-8645.9
-8662.68
-8662.54
-8662.42
-8662.24
-8662.02
-8661.79
-8661.54
-8661.28
-8661.03
-8660.77
-8660.52
-8660.28
-8660.06
-8659.85
-8659.66
-8659.49
-8659.34
-8659.22
-8659.13
-8659.06
-8659.03
-8659.03
-8659.05
-8659.12
-8659.21
-8659.34
-8659.5
-8659.7
-8659.92
-8660.18
-8660.46
-8660.77
-8661.11
-8661.46
-8661.83
-8662.22
-8662.61
-8663.01
-8663.41
-8663.81
-8664.2
-8664.57
-8664.93
-8665.26
-8665.56
-8665.83
-8666.06
-8666.26
-8666.4
-8666.51
-8666.56
-8666.57
-8666.52
-8666.43
-8666.29
-8666.1
-8665.87
-8665.6
-8665.3
-8664.97
-8664.62
-8664.25
-8663.88
-8663.51
-8663.15
-8662.81
-8662.5
-8662.22
-8661.98
-8661.79
-8661.64
-8661.56
-8661.53
-8661.56
-8661.64
-8661.78
-8661.97
-8662.21
-8662.48
-8662.78
-8663.09
-8663.41
-8663.73
-8664.03
-8664.31
-8664.55
-8664.74
-8664.89
-8664.97
-8665
-8664.97
-8664.88
-8664.73
-8664.54
-8664.31
-8664.06
-8663.79
-8663.53
-8663.27
-8663.05
-8662.86
-8662.72
-8662.62
-8662.58
-8662.59
-8662.65
-8662.75
-8662.89
-8663.05
-8663.22
-8663.4
-8663.58
-8663.74
-8663.88
-8664
-8664.08
-8664.13
-8664.15
-8664.14
-8664.11
-8664.05
-8663.97
-8663.88
-8663.78
-8663.68
-8663.58
-8663.49
-8663.4
-8663.33
-8663.28
-8663.24
-8663.22
-8663.21
-8663.22
-8663.24
-8663.27
-8663.31
-8663.35
-8663.4
-8663.45
-8663.5
-8663.55
-8663.6
-8663.64
-8663.67
-8663.7
-8663.72
-8663.73
-8663.74
-8663.74
-8663.74
-8663.73
-8663.71
-8663.7
-8663.68
-8663.66
-8663.64
-8663.62
-8663.6
-8663.58
-8663.57
-8663.55
-8663.54
-8663.54
-8663.53
-8663.53
-8663.53
-8663.53
-8663.53
-8663.53
-8663.53
-8663.53
-8663.54
-8881.88
-8881.88
-8881.9
-8881.92
-8881.95
-8881.98
-8881.99
-8882.02
-8901.53
-8901.42
-8901.32
-8901.18
-8901
-8900.8
-8900.58
-8900.34
-8900.1
-8899.86
-8899.62
-8899.39
-8899.17
-8898.96
-8898.77
-8898.6
-8898.46
-8898.34
-8898.25
-8898.19
-8898.16
-8898.17
-8898.21
-8898.29
-8898.4
-8898.55
-8898.74
-8898.96
-8899.22
-8899.51
-8899.83
-8900.17
-8900.55
-8900.94
-8901.35
-8901.78
-8902.22
-8902.66
-8903.1
-8903.54
-8903.97
-8904.38
-8904.77
-8905.13
-8905.47
-8905.76
-8906.02
-8906.23
-8906.39
-8906.5
-8906.55
-8906.55
-8906.5
-8906.39
-8906.23
-8906.02
-8905.76
-8905.46
-8905.13
-8904.76
-8904.37
-8903.97
-8903.56
-8903.15
-8902.75
-8902.38
-8902.04
-8901.73
-8901.47
-8901.26
-8901.1
-8901.01
-8900.98
-8901.02
-8901.12
-8901.28
-8901.5
-8901.76
-8902.06
-8902.39
-8902.74
-8903.1
-8903.45
-8903.78
-8904.09
-8904.35
-8904.56
-8904.72
-8904.81
-8904.84
-8904.8
-8904.69
-8904.53
-8904.31
-8904.06
-8903.78
-8903.48
-8903.19
-8902.91
-8902.67
-8902.46
-8902.3
-8902.2
-8902.16
-8902.18
-8902.25
-8902.36
-8902.51
-8902.69
-8902.89
-8903.08
-8903.28
-8903.45
-8903.6
-8903.73
-8903.82
-8903.87
-8903.89
-8903.87
-8903.83
-8903.76
-8903.68
-8903.58
-8903.47
-8903.36
-8903.26
-8903.16
-8903.07
-8903
-8902.94
-8902.9
-8902.88
-8902.87
-8902.88
-8902.9
-8902.93
-8902.98
-8903.02
-8903.08
-8903.13
-8903.19
-8903.24
-8903.28
-8903.33
-8903.36
-8903.39
-8903.41
-8903.43
-8903.43
-8903.43
-8903.43
-8903.42
-8903.4
-8903.38
-8903.36
-8903.34
-8903.32
-8903.3
-8903.28
-8903.26
-8903.25
-8903.23
-8903.22
-8903.22
-8903.21
-8903.21
-8903.21
-8903.21
-8903.21
-8903.21
-8903.22
-8903.22
-8903.22
-9091.17
-9091.17
-9091.18
-9091.2
-9091.21
-9091.23
-9091.24
-9091.26
-9113.19
-9113.12
-9113.03
-9112.9
-9112.74
-9112.55
-9112.35
-9112.12
-9111.89
-9111.65
-9111.42
-9111.19
-9110.96
-9110.76
-9110.57
-9110.4
-9110.25
-9110.13
-9110.05
-9109.99
-9109.97
-9109.99
-9110.04
-9110.13
-9110.27
-9110.44
-9110.64
-9110.89
-9111.18
-9111.5
-9111.85
-9112.23
-9112.64
-9113.08
-9113.53
-9114
-9114.48
-9114.96
-9115.44
-9115.92
-9116.39
-9116.84
-9117.26
-9117.66
-9118.02
-9118.34
-9118.61
-9118.84
-9119.01
-9119.12
-9119.18
-9119.18
-9119.12
-9118.99
-9118.81
-9118.58
-9118.29
-9117.96
-9117.59
-9117.19
-9116.77
-9116.32
-9115.88
-9115.43
-9115
-9114.59
-9114.22
-9113.88
-9113.6
-9113.38
-9113.21
-9113.12
-9113.09
-9113.14
-9113.25
-9113.43
-9113.67
-9113.96
-9114.29
-9114.66
-9115.04
-9115.43
-9115.82
-9116.18
-9116.51
-9116.8
-9117.03
-9117.2
-9117.29
-9117.32
-9117.27
-9117.15
-9116.97
-9116.73
-9116.45
-9116.14
-9115.82
-9115.5
-9115.19
-9114.93
-9114.7
-9114.54
-9114.43
-9114.39
-9114.41
-9114.49
-9114.62
-9114.79
-9114.98
-9115.2
-9115.41
-9115.62
-9115.81
-9115.97
-9116.1
-9116.19
-9116.25
-9116.26
-9116.25
-9116.2
-9116.12
-9116.03
-9115.92
-9115.81
-9115.69
-9115.58
-9115.48
-9115.38
-9115.31
-9115.25
-9115.21
-9115.18
-9115.18
-9115.19
-9115.21
-9115.25
-9115.29
-9115.34
-9115.4
-9115.46
-9115.51
-9115.57
-9115.62
-9115.66
-9115.7
-9115.73
-9115.75
-9115.76
-9115.77
-9115.77
-9115.76
-9115.75
-9115.73
-9115.71
-9115.69
-9115.67
-9115.65
-9115.63
-9115.61
-9115.59
-9115.57
-9115.56
-9115.55
-9115.54
-9115.54
-9115.54
-9115.53
-9115.54
-9115.54
-9115.54
-9115.54
-9115.54
-9115.55
-9276.56
-9276.57
-9276.57
-9276.58
-9276.59
-9276.6
-9276.61
-9276.62
-9300.76
-9300.7
-9300.61
-9300.5
-9300.34
-9300.16
-9299.96
-9299.74
-9299.51
-9299.27
-9299.03
-9298.8
-9298.57
-9298.36
-9298.16
-9297.99
-9297.85
-9297.73
-9297.64
-9297.59
-9297.58
-9297.6
-9297.66
-9297.77
-9297.92
-9298.11
-9298.34
-9298.61
-9298.92
-9299.27
-9299.65
-9300.07
-9300.52
-9300.99
-9301.48
-9301.99
-9302.51
-9303.03
-9303.55
-9304.07
-9304.57
-9305.06
-9305.51
-9305.94
-9306.33
-9306.67
-9306.96
-9307.2
-9307.39
-9307.51
-9307.56
-9307.56
-9307.49
-9307.35
-9307.15
-9306.89
-9306.58
-9306.22
-9305.82
-9305.38
-9304.92
-9304.44
-9303.96
-9303.48
-9303.01
-9302.57
-9302.17
-9301.81
-9301.51
-9301.27
-9301.1
-9301
-9300.97
-9301.03
-9301.15
-9301.35
-9301.61
-9301.93
-9302.29
-9302.69
-9303.11
-9303.53
-9303.95
-9304.34
-9304.7
-9305
-9305.25
-9305.43
-9305.53
-9305.56
-9305.5
-9305.37
-9305.17
-9304.91
-9304.6
-9304.26
-9303.91
-9303.57
-9303.24
-9302.95
-9302.72
-9302.54
-9302.43
-9302.39
-9302.42
-9302.5
-9302.65
-9302.83
-9303.04
-9303.27
-9303.5
-9303.72
-9303.93
-9304.1
-9304.23
-9304.33
-9304.39
-9304.4
-9304.38
-9304.33
-9304.25
-9304.15
-9304.03
-9303.91
-9303.78
-9303.67
-9303.56
-9303.46
-9303.38
-9303.32
-9303.28
-9303.26
-9303.25
-9303.26
-9303.29
-9303.33
-9303.37
-9303.43
-9303.49
-9303.55
-9303.61
-9303.66
-9303.71
-9303.76
-9303.8
-9303.83
-9303.85
-9303.86
-9303.87
-9303.87
-9303.86
-9303.85
-9303.83
-9303.81
-9303.79
-9303.76
-9303.74
-9303.72
-9303.7
-9303.68
-9303.66
-9303.65
-9303.64
-9303.63
-9303.63
-9303.63
-9303.63
-9303.63
-9303.63
-9303.63
-9303.63
-9303.64
-9303.64
-9440.79
-9440.79
-9440.8
-9440.8
-9440.81
-9440.82
-9440.82
-9440.83
-9466.96
-9466.91
-9466.82
-9466.71
-9466.56
-9466.37
-9466.17
-9465.95