# Probe 0 (0 0 0)
# Time            0                
0                 0                
0.0025            -25.17912164     
0.005             40.25399939      
0.0075            97.61329536      
0.01              148.0728709      
0.0125            192.6176995      
0.015             232.0681246      
0.0175            267.1119106      
0.02              298.3290682      
0.0225            326.2113724      
0.025             351.1777394      
0.0275            373.5865852      
0.03              393.7457836      
0.0325            411.9207637      
0.035             428.3411368      
0.0375            443.20616        
0.04              456.6892616      
0.0425            468.9418077      
0.045             480.0962568      
0.0475            490.2688093      
0.05              499.5616442      
0.0525            508.0648135      
0.055             515.8578522      
0.0575            523.0111513      
0.06              529.5871328      
0.0625            535.6412574      
0.065             541.2228913      
0.0675            546.3760538      
0.07              551.1400647      
0.0725            555.5501039      
0.075             559.6376986      
0.0775            563.4311469      
0.08              566.9558876      
0.0825            570.2348234      
0.085             573.2886035      
0.0875            576.135872       
0.09              578.7934863      
0.0925            581.2767087      
0.095             583.5993759      
0.0975            585.7740487      
0.1               587.8121442      
0.1025            589.7240528      
0.105             591.5192427      
0.1075            593.2063514      
0.11              594.7932687      
0.1125            596.2872096      
0.115             597.6947795      
0.1175            599.0220326      
0.12              600.2745242      
0.1225            601.4573571      
0.125             602.5752237      
0.1275            603.6324437      
0.13              604.6329974      
0.1325            605.5805564      
0.135             606.478511       
0.1375            607.3299951      
0.14              608.1379074      
0.1425            608.9049328      
0.145             609.6335598      
0.1475            610.3260975      
0.15              610.9846896      
0.1525            611.6113293      
0.155             612.2078704      
0.1575            612.776039       
0.16              613.3174437      
0.1625            613.8335849      
0.165             614.3258627      
0.1675            614.7955855      
0.17              615.2439762      
0.1725            615.672179       
0.175             616.0812656      
0.1775            616.47224        
0.18              616.8460435      
0.1825            617.2035599      
0.185             617.5456185      
0.1875            617.8729994      
0.19              618.1864356      
0.1925            618.486617       
0.195             618.7741933      
0.1975            619.0497765      
0.2               619.3139439      
0.2025            619.5672398      
0.205             619.810178       
0.2075            620.0432441      
0.21              620.2668968      
0.2125            620.4815696      
0.215             620.6876732      
0.2175            620.8855961      
0.22              621.0757061      
0.2225            621.258352       
0.225             621.4338643      
0.2275            621.6025568      
0.23              621.7647269      
0.2325            621.9206573      
0.235             622.0706166      
0.2375            622.2148598      
0.24              622.3536293      
0.2425            622.4871563      
0.245             622.6156601      
0.2475            622.7393498      
0.25              622.8584246      
0.2525            622.973074       
0.255             623.0834791      
0.2575            623.1898122      
0.26              623.2922379      
0.2625            623.390913       
0.265             623.4859874      
0.2675            623.5776041      
0.27              623.6659         
0.2725            623.7510054      
0.275             623.8330453      
0.2775            623.912139       
0.28              623.9884008      
0.2825            624.0619399      
0.285             624.1328606      
0.2875            624.2012633      
0.29              624.2672437      
0.2925            624.3308944      
0.295             624.3923026      
0.2975            624.4515523      
0.3               624.5087246      
0.3025            624.5638968      
0.305             624.6171431      
0.3075            624.668535       
0.31              624.7181407      
0.3125            624.7660259      
0.315             624.8122537      
0.3175            624.8568845      
0.32              624.8999765      
0.3225            624.9415855      
0.325             624.981765       
0.3275            625.0205665      
0.33              625.0580397      
0.3325            625.0942321      
0.335             625.1291893      
0.3375            625.1629556      
0.34              625.1955732      
0.3425            625.2270829      
0.345             625.2575238      
0.3475            625.2869336      
0.35              625.3153485      
0.3525            625.3428035      
0.355             625.3693322      
0.3575            625.3949671      
0.36              625.4197391      
0.3625            625.4436785      
0.365             625.466814       
0.3675            625.4891737      
0.37              625.5107841      
0.3725            625.5316713      
0.375             625.5518602      
0.3775            625.5713748      
0.38              625.5902382      
0.3825            625.6084729      
0.385             625.6261002      
0.3875            625.6431409      
0.39              625.6596151      
0.3925            625.6755419      
0.395             625.6909402      
0.3975            625.7058277      
0.4               625.7202218      
0.4025            625.7341393      
0.405             625.7475963      
0.4075            625.7606082      
0.41              625.7731901      
0.4125            625.7853565      
0.415             625.7971214      
0.4175            625.8084982      
0.42              625.8195001      
0.4225            625.8301396      
0.425             625.8404287      
0.4275            625.8503793      
0.43              625.8600026      
0.4325            625.8693097      
0.435             625.878311       
0.4375            625.8870168      
0.44              625.8954367      
0.4425            625.9035806      
0.445             625.9114574      
0.4475            625.919076       
0.45              625.926445       
0.4525            625.9335727      
0.455             625.9404672      
0.4575            625.947136       
0.46              625.9535867      
0.4625            625.9598265      
0.465             625.9658623      
0.4675            625.9717009      
0.47              625.9773489      
0.4725            625.9828124      
0.475             625.9880977      
0.4775            625.9932105      
0.48              625.9981565      
0.4825            626.0029412      
0.485             626.0075699      
0.4875            626.0120478      
0.49              626.0163798      
0.4925            626.0205707      
0.495             626.0246251      
0.4975            626.0285475      
0.5               626.0323422      
