# Probe 0 (0 0 0)
# Time            0                
0                 0                
0.0025            1.568070052e-06  
0.005             -2.45974564e-06  
0.0075            -5.97376508e-06  
0.01              -9.050701903e-06 
0.0125            -1.175436352e-05 
0.015             -1.413771749e-05 
0.0175            -1.62450312e-05  
0.02              -1.8113522e-05   
0.0225            -1.97746509e-05  
0.025             -2.125513769e-05 
0.0275            -2.257777546e-05 
0.03              -2.376208515e-05 
0.0325            -2.482484656e-05 
0.035             -2.578053206e-05 
0.0375            -2.664166326e-05 
0.04              -2.741910589e-05 
0.0425            -2.812231478e-05 
0.045             -2.875953851e-05 
0.0475            -2.9337991e-05   
0.05              -2.986399605e-05 
0.0525            -3.034310951e-05 
0.055             -3.078022288e-05 
0.0575            -3.117965153e-05 
0.06              -3.154520993e-05 
0.0625            -3.188027619e-05 
0.065             -3.21878473e-05  
0.0675            -3.247058681e-05 
0.07              -3.27308659e-05  
0.0725            -3.297079895e-05 
0.075             -3.319227432e-05 
0.0775            -3.339698111e-05 
0.08              -3.358643248e-05 
0.0825            -3.376198594e-05 
0.085             -3.392486109e-05 
0.0875            -3.407615518e-05 
0.09              -3.421685674e-05 
0.0925            -3.434785752e-05 
0.095             -3.446996303e-05 
0.0975            -3.458390183e-05 
0.1               -3.469033367e-05 
0.1025            -3.47898568e-05  
0.105             -3.48830143e-05  
0.1075            -3.497029979e-05 
0.11              -3.505216248e-05 
0.1125            -3.512901159e-05 
0.115             -3.520122039e-05 
0.1175            -3.526912973e-05 
0.12              -3.533305118e-05 
0.1225            -3.539326988e-05 
0.125             -3.545004709e-05 
0.1275            -3.550362237e-05 
0.13              -3.555421569e-05 
0.1325            -3.56020292e-05  
0.135             -3.564724891e-05 
0.1375            -3.569004609e-05 
0.14              -3.573057864e-05 
0.1425            -3.576899227e-05 
0.145             -3.580542156e-05 
0.1475            -3.583999096e-05 
0.15              -3.587281561e-05 
0.1525            -3.590400221e-05 
0.155             -3.593364965e-05 
0.1575            -3.596184973e-05 
0.16              -3.59886877e-05  
0.1625            -3.601424283e-05 
0.165             -3.603858888e-05 
0.1675            -3.606179454e-05 
0.17              -3.608392384e-05 
0.1725            -3.610503652e-05 
0.175             -3.612518834e-05 
0.1775            -3.614443142e-05 
0.18              -3.616281448e-05 
0.1825            -3.618038315e-05 
0.185             -3.619718013e-05 
0.1875            -3.621324548e-05 
0.19              -3.622861675e-05 
0.1925            -3.62433292e-05  
0.195             -3.625741597e-05 
0.1975            -3.62709082e-05  
0.2               -3.628383517e-05 
0.2025            -3.629622447e-05 
0.205             -3.630810207e-05 
0.2075            -3.631949247e-05 
0.21              -3.633041876e-05 
0.2125            -3.634090274e-05 
0.215             -3.635096502e-05 
0.2175            -3.636062504e-05 
0.22              -3.63699012e-05  
0.2225            -3.637881092e-05 
0.225             -3.638737067e-05 
0.2275            -3.639559607e-05 
0.23              -3.640350189e-05 
0.2325            -3.641110219e-05 
0.235             -3.641841026e-05 
0.2375            -3.642543874e-05 
0.24              -3.643219961e-05 
0.2425            -3.643870429e-05 
0.245             -3.644496362e-05 
0.2475            -3.645098789e-05 
0.25              -3.645678691e-05 
0.2525            -3.646237001e-05 
0.255             -3.646774609e-05 
0.2575            -3.647292362e-05 
0.26              -3.647791067e-05 
0.2625            -3.648271493e-05 
0.265             -3.648734375e-05 
0.2675            -3.649180414e-05 
0.27              -3.649610278e-05 
0.2725            -3.650024607e-05 
0.275             -3.65042401e-05  
0.2775            -3.650809071e-05 
0.28              -3.651180348e-05 
0.2825            -3.651538374e-05 
0.285             -3.651883658e-05 
0.2875            -3.65221669e-05  
0.29              -3.652537935e-05 
0.2925            -3.652847846e-05 
0.295             -3.653146846e-05 
0.2975            -3.653435347e-05 
0.3               -3.653713742e-05 
0.3025            -3.653982407e-05 
0.305             -3.654241706e-05 
0.3075            -3.654491984e-05 
0.31              -3.654733574e-05 
0.3125            -3.654966795e-05 
0.315             -3.655191955e-05 
0.3175            -3.655409347e-05 
0.32              -3.655619253e-05 
0.3225            -3.655821946e-05 
0.325             -3.656017686e-05 
0.3275            -3.656206722e-05 
0.33              -3.656389296e-05 
0.3325            -3.656565639e-05 
0.335             -3.656735973e-05 
0.3375            -3.656900513e-05 
0.34              -3.657059464e-05 
0.3425            -3.657213024e-05 
0.345             -3.657361384e-05 
0.3475            -3.657504725e-05 
0.35              -3.657643225e-05 
0.3525            -3.657777054e-05 
0.355             -3.657906374e-05 
0.3575            -3.658031344e-05 
0.36              -3.658152113e-05 
0.3625            -3.658268829e-05 
0.365             -3.658381632e-05 
0.3675            -3.658490658e-05 
0.37              -3.658596036e-05 
0.3725            -3.658697892e-05 
0.375             -3.658796348e-05 
0.3775            -3.65889152e-05  
0.38              -3.658983521e-05 
0.3825            -3.659072459e-05 
0.385             -3.65915844e-05  
0.3875            -3.659241563e-05 
0.39              -3.659321926e-05 
0.3925            -3.659399623e-05 
0.395             -3.659474744e-05 
0.3975            -3.659547377e-05 
0.4               -3.659617607e-05 
0.4025            -3.659685513e-05 
0.405             -3.659751175e-05 
0.4075            -3.659814668e-05 
0.41              -3.659876066e-05 
0.4125            -3.659935438e-05 
0.415             -3.659992853e-05 
0.4175            -3.660048377e-05 
0.42              -3.660102073e-05 
0.4225            -3.660154002e-05 
0.425             -3.660204222e-05 
0.4275            -3.660252793e-05 
0.43              -3.660299767e-05 
0.4325            -3.660345199e-05 
0.435             -3.66038914e-05  
0.4375            -3.66043164e-05  
0.44              -3.660472746e-05 
0.4425            -3.660512506e-05 
0.445             -3.660550963e-05 
0.4475            -3.66058816e-05  
0.45              -3.66062414e-05  
0.4525            -3.660658942e-05 
0.455             -3.660692607e-05 
0.4575            -3.660725171e-05 
0.46              -3.660756671e-05 
0.4625            -3.660787142e-05 
0.465             -3.660816617e-05 
0.4675            -3.66084513e-05  
0.47              -3.660872713e-05 
0.4725            -3.660899396e-05 
0.475             -3.660925209e-05 
0.4775            -3.66095018e-05  
0.48              -3.660974337e-05 
0.4825            -3.660997707e-05 
0.485             -3.661020315e-05 
0.4875            -3.661042187e-05 
0.49              -3.661063347e-05 
0.4925            -3.661083818e-05 
0.495             -3.661103623e-05 
0.4975            -3.661122784e-05 
0.5               -3.661141321e-05 
