/*--------------------------------*- C++ -*----------------------------------*\
  =========                 |
  \\      /  F ield         | OpenFOAM: The Open Source CFD Toolbox
   \\    /   O peration     | Website:  https://openfoam.org
    \\  /    A nd           | Version:  12
     \\/     M anipulation  |
\*---------------------------------------------------------------------------*/
FoamFile
{
    format      ascii;
    class       volVectorField;
    location    "2.18";
    object      zeta;
}
// * * * * * * * * * * * * * * * * * * * * * * * * * * * * * * * * * * * * * //

dimensions      [0 1 0 0 0 0 0];

internalField   uniform (0 0 0);

boundaryField
{
    freeSurface
    {
        type            calculated;
        value           nonuniform List<vector> 
181
(
(0 -2.56627e-05 0)
(0 -2.58874e-05 0)
(0 -2.59369e-05 0)
(0 -2.60011e-05 0)
(0 -2.60561e-05 0)
(0 -2.61274e-05 0)
(0 -2.61593e-05 0)
(0 -2.6269e-05 0)
(0 -8.595e-05 0)
(0 -8.22921e-05 0)
(0 -7.83537e-05 0)
(0 -7.31268e-05 0)
(0 -6.5086e-05 0)
(0 -5.55712e-05 0)
(0 -4.44005e-05 0)
(0 -3.17516e-05 0)
(0 -1.78298e-05 0)
(0 -2.78885e-06 0)
(0 1.31786e-05 0)
(0 2.98695e-05 0)
(0 4.71081e-05 0)
(0 6.46691e-05 0)
(0 8.23393e-05 0)
(0 9.98939e-05 0)
(0 0.000117148 0)
(0 0.00013389 0)
(0 0.000149941 0)
(0 0.000165115 0)
(0 0.000179237 0)
(0 0.000192137 0)
(0 0.000203649 0)
(0 0.000213631 0)
(0 0.000221958 0)
(0 0.000228521 0)
(0 0.000233214 0)
(0 0.00023598 0)
(0 0.000236777 0)
(0 0.000235551 0)
(0 0.000232337 0)
(0 0.00022712 0)
(0 0.000219943 0)
(0 0.000210908 0)
(0 0.000200086 0)
(0 0.000187627 0)
(0 0.00017367 0)
(0 0.000158421 0)
(0 0.000142089 0)
(0 0.000124904 0)
(0 0.000107126 0)
(0 8.90032e-05 0)
(0 7.0825e-05 0)
(0 5.28312e-05 0)
(0 3.52841e-05 0)
(0 1.84169e-05 0)
(0 2.4213e-06 0)
(0 -1.2504e-05 0)
(0 -2.6236e-05 0)
(0 -3.86462e-05 0)
(0 -4.96679e-05 0)
(0 -5.92628e-05 0)
(0 -6.74129e-05 0)
(0 -7.41457e-05 0)
(0 -7.9492e-05 0)
(0 -8.35128e-05 0)
(0 -8.62939e-05 0)
(0 -8.79122e-05 0)
(0 -8.84703e-05 0)
(0 -8.80732e-05 0)
(0 -8.68273e-05 0)
(0 -8.48418e-05 0)
(0 -8.22287e-05 0)
(0 -7.90877e-05 0)
(0 -7.55148e-05 0)
(0 -7.15988e-05 0)
(0 -6.74172e-05 0)
(0 -6.30598e-05 0)
(0 -5.85877e-05 0)
(0 -5.40547e-05 0)
(0 -4.95265e-05 0)
(0 -4.50415e-05 0)
(0 -4.06417e-05 0)
(0 -3.63542e-05 0)
(0 -3.22152e-05 0)
(0 -2.8233e-05 0)
(0 -2.44384e-05 0)
(0 -2.08417e-05 0)
(0 -1.74558e-05 0)
(0 -1.42909e-05 0)
(0 -1.13527e-05 0)
(0 -8.64403e-06 0)
(0 -6.16285e-06 0)
(0 -3.90395e-06 0)
(0 -1.85987e-06 0)
(0 -2.20412e-08 0)
(0 1.61396e-06 0)
(0 3.05083e-06 0)
(0 4.29461e-06 0)
(0 5.34912e-06 0)
(0 6.22206e-06 0)
(0 6.92221e-06 0)
(0 7.45888e-06 0)
(0 7.84012e-06 0)
(0 8.07389e-06 0)
(0 8.16997e-06 0)
(0 8.13979e-06 0)
(0 7.99555e-06 0)
(0 7.74946e-06 0)
(0 7.41339e-06 0)
(0 6.9957e-06 0)
(0 6.50555e-06 0)
(0 5.9501e-06 0)
(0 5.33605e-06 0)
(0 4.66997e-06 0)
(0 3.95808e-06 0)
(0 3.2073e-06 0)
(0 2.42503e-06 0)
(0 1.62119e-06 0)
(0 8.05323e-07 0)
(0 -1.32107e-08 0)
(0 -8.30534e-07 0)
(0 -1.64465e-06 0)
(0 -2.45386e-06 0)
(0 -3.25535e-06 0)
(0 -4.04299e-06 0)
(0 -4.81044e-06 0)
(0 -5.55254e-06 0)
(0 -6.26683e-06 0)
(0 -6.95352e-06 0)
(0 -7.61163e-06 0)
(0 -8.24049e-06 0)
(0 -8.8375e-06 0)
(0 -9.399e-06 0)
(0 -9.92324e-06 0)
(0 -1.04073e-05 0)
(0 -1.08494e-05 0)
(0 -1.12506e-05 0)
(0 -1.16148e-05 0)
(0 -1.19475e-05 0)
(0 -1.22528e-05 0)
(0 -1.25306e-05 0)
(0 -1.2778e-05 0)
(0 -1.29898e-05 0)
(0 -1.31629e-05 0)
(0 -1.32989e-05 0)
(0 -1.3402e-05 0)
(0 -1.3478e-05 0)
(0 -1.35319e-05 0)
(0 -1.35652e-05 0)
(0 -1.35802e-05 0)
(0 -1.3578e-05 0)
(0 -1.35625e-05 0)
(0 -1.35341e-05 0)
(0 -1.34937e-05 0)
(0 -1.34405e-05 0)
(0 -1.33716e-05 0)
(0 -1.32873e-05 0)
(0 -1.31904e-05 0)
(0 -1.30829e-05 0)
(0 -1.29678e-05 0)
(0 -1.28447e-05 0)
(0 -1.27132e-05 0)
(0 -1.25743e-05 0)
(0 -1.2431e-05 0)
(0 -1.22885e-05 0)
(0 -1.2152e-05 0)
(0 -1.20244e-05 0)
(0 -1.19055e-05 0)
(0 -1.17971e-05 0)
(0 -1.17021e-05 0)
(0 -1.16227e-05 0)
(0 -1.15562e-05 0)
(0 -1.14967e-05 0)
(0 -1.14346e-05 0)
(0 -1.13663e-05 0)
(0 -1.12963e-05 0)
(0 -1.12349e-05 0)
(0 -1.11871e-05 0)
(0 -1.115e-05 0)
(0 -1.11161e-05 0)
(0 -1.10812e-05 0)
(0 -1.10503e-05 0)
)
;
    }
    walls
    {
        type            calculated;
        value           uniform (0 0 0);
    }
    floatingObject
    {
        type            calculated;
        value           uniform (0 0 0);
    }
    frontAndBack
    {
        type            empty;
    }
}


// ************************************************************************* //
