/*--------------------------------*- C++ -*----------------------------------*\
  =========                 |
  \\      /  F ield         | OpenFOAM: The Open Source CFD Toolbox
   \\    /   O peration     | Website:  https://openfoam.org
    \\  /    A nd           | Version:  12
     \\/     M anipulation  |
\*---------------------------------------------------------------------------*/
FoamFile
{
    format      ascii;
    class       volVectorField;
    location    "8.52";
    object      zeta;
}
// * * * * * * * * * * * * * * * * * * * * * * * * * * * * * * * * * * * * * //

dimensions      [0 1 0 0 0 0 0];

internalField   uniform (0 0 0);

boundaryField
{
    freeSurface
    {
        type            calculated;
        value           nonuniform List<vector> 
181
(
(0 -0.00519273 0)
(0 -0.00519229 0)
(0 -0.00519147 0)
(0 -0.00519064 0)
(0 -0.00518943 0)
(0 -0.00518873 0)
(0 -0.00518779 0)
(0 -0.0051874 0)
(0 -0.000601037 0)
(0 -0.000607143 0)
(0 -0.000622036 0)
(0 -0.000639157 0)
(0 -0.000663686 0)
(0 -0.000693122 0)
(0 -0.000725856 0)
(0 -0.00076189 0)
(0 -0.000800128 0)
(0 -0.000839813 0)
(0 -0.000880017 0)
(0 -0.000919677 0)
(0 -0.000957923 0)
(0 -0.000993749 0)
(0 -0.00102643 0)
(0 -0.00105533 0)
(0 -0.00107978 0)
(0 -0.00109924 0)
(0 -0.00111312 0)
(0 -0.00112086 0)
(0 -0.00112197 0)
(0 -0.00111605 0)
(0 -0.00110283 0)
(0 -0.00108213 0)
(0 -0.00105379 0)
(0 -0.00101777 0)
(0 -0.000973989 0)
(0 -0.000922605 0)
(0 -0.000863764 0)
(0 -0.000797819 0)
(0 -0.000725181 0)
(0 -0.000646377 0)
(0 -0.000562008 0)
(0 -0.000472767 0)
(0 -0.000379463 0)
(0 -0.000282993 0)
(0 -0.00018434 0)
(0 -8.46013e-05 0)
(0 1.51074e-05 0)
(0 0.000113695 0)
(0 0.000209941 0)
(0 0.000302617 0)
(0 0.000390463 0)
(0 0.00047234 0)
(0 0.000546966 0)
(0 0.000613257 0)
(0 0.000670109 0)
(0 0.00071652 0)
(0 0.00075163 0)
(0 0.000774723 0)
(0 0.000785253 0)
(0 0.000782844 0)
(0 0.000767322 0)
(0 0.000738735 0)
(0 0.000697398 0)
(0 0.00064388 0)
(0 0.000578912 0)
(0 0.000503526 0)
(0 0.000418967 0)
(0 0.000326682 0)
(0 0.000228433 0)
(0 0.000126056 0)
(0 2.16487e-05 0)
(0 -8.26743e-05 0)
(0 -0.000184685 0)
(0 -0.000282036 0)
(0 -0.000372537 0)
(0 -0.000454019 0)
(0 -0.000524465 0)
(0 -0.000582078 0)
(0 -0.000625265 0)
(0 -0.000652824 0)
(0 -0.000663818 0)
(0 -0.000657842 0)
(0 -0.000634877 0)
(0 -0.000595411 0)
(0 -0.000540454 0)
(0 -0.000471396 0)
(0 -0.000390214 0)
(0 -0.000299251 0)
(0 -0.000201215 0)
(0 -9.92128e-05 0)
(0 3.49988e-06 0)
(0 0.000103662 0)
(0 0.00019775 0)
(0 0.000282671 0)
(0 0.000355367 0)
(0 0.000413155 0)
(0 0.000454069 0)
(0 0.000476479 0)
(0 0.000479575 0)
(0 0.000463347 0)
(0 0.000428572 0)
(0 0.000376802 0)
(0 0.000310339 0)
(0 0.000232302 0)
(0 0.00014623 0)
(0 5.62464e-05 0)
(0 -3.33876e-05 0)
(0 -0.000118368 0)
(0 -0.000194583 0)
(0 -0.000258219 0)
(0 -0.00030613 0)
(0 -0.000336021 0)
(0 -0.00034656 0)
(0 -0.000337487 0)
(0 -0.000309776 0)
(0 -0.000265445 0)
(0 -0.000207556 0)
(0 -0.000140032 0)
(0 -6.74018e-05 0)
(0 5.49262e-06 0)
(0 7.38267e-05 0)
(0 0.000133086 0)
(0 0.000179242 0)
(0 0.000209327 0)
(0 0.000221496 0)
(0 0.00021534 0)
(0 0.000191978 0)
(0 0.000153988 0)
(0 0.000105183 0)
(0 5.02813e-05 0)
(0 -5.48776e-06 0)
(0 -5.71887e-05 0)
(0 -0.000100347 0)
(0 -0.000131477 0)
(0 -0.000148422 0)
(0 -0.000150572 0)
(0 -0.000138831 0)
(0 -0.000115442 0)
(0 -8.36419e-05 0)
(0 -4.72904e-05 0)
(0 -1.04327e-05 0)
(0 2.32457e-05 0)
(0 5.07116e-05 0)
(0 6.97344e-05 0)
(0 7.91834e-05 0)
(0 7.89487e-05 0)
(0 6.99062e-05 0)
(0 5.36818e-05 0)
(0 3.24357e-05 0)
(0 8.58152e-06 0)
(0 -1.54717e-05 0)
(0 -3.75469e-05 0)
(0 -5.58928e-05 0)
(0 -6.92447e-05 0)
(0 -7.69234e-05 0)
(0 -7.87843e-05 0)
(0 -7.52e-05 0)
(0 -6.695e-05 0)
(0 -5.5118e-05 0)
(0 -4.09595e-05 0)
(0 -2.57635e-05 0)
(0 -1.07503e-05 0)
(0 3.03321e-06 0)
(0 1.47318e-05 0)
(0 2.37538e-05 0)
(0 2.97622e-05 0)
(0 3.26773e-05 0)
(0 3.26419e-05 0)
(0 2.99805e-05 0)
(0 2.51228e-05 0)
(0 1.86235e-05 0)
(0 1.10637e-05 0)
(0 2.94279e-06 0)
(0 -5.23388e-06 0)
(0 -1.3048e-05 0)
(0 -2.01702e-05 0)
(0 -2.63594e-05 0)
(0 -3.14509e-05 0)
(0 -3.53428e-05 0)
(0 -3.79756e-05 0)
(0 -3.931e-05 0)
)
;
    }
    walls
    {
        type            calculated;
        value           uniform (0 0 0);
    }
    floatingObject
    {
        type            calculated;
        value           uniform (0 0 0);
    }
    frontAndBack
    {
        type            empty;
    }
}


// ************************************************************************* //
