# vtk DataFile Version 2.0
channel
ASCII
DATASET UNSTRUCTURED_GRID
POINTS 8 float
-0.5 -0.5 -0.05 0.5 -0.5 -0.05 -0.5 0.5 -0.05 0.5 0.5
-0.05 -0.5 -0.5 0.05 0.5 -0.5 0.05 -0.5 0.5 0.05
0.5 0.5 0.05 
CELLS 1 9
8 0 2 6 4 1 3 7 5 
CELL_TYPES 1
12 
CELL_DATA 1
FIELD attributes 3
cellID 1 1 int
0 
p 1 1 float
100000 
U 3 1 float
8.62942 3.37049e-09 0 
