/*--------------------------------*- C++ -*----------------------------------*\
  =========                 |
  \\      /  F ield         | OpenFOAM: The Open Source CFD Toolbox
   \\    /   O peration     | Website:  https://openfoam.org
    \\  /    A nd           | Version:  12
     \\/     M anipulation  |
\*---------------------------------------------------------------------------*/
FoamFile
{
    format      ascii;
    class       volVectorField;
    location    "12.52";
    object      zeta;
}
// * * * * * * * * * * * * * * * * * * * * * * * * * * * * * * * * * * * * * //

dimensions      [0 1 0 0 0 0 0];

internalField   uniform (0 0 0);

boundaryField
{
    freeSurface
    {
        type            calculated;
        value           nonuniform List<vector> 
181
(
(0 -0.0061851 0)
(0 -0.00618464 0)
(0 -0.00618362 0)
(0 -0.00618257 0)
(0 -0.00618108 0)
(0 -0.00618008 0)
(0 -0.00617898 0)
(0 -0.00617846 0)
(0 -0.000603989 0)
(0 -0.000612251 0)
(0 -0.000631131 0)
(0 -0.000652915 0)
(0 -0.00068433 0)
(0 -0.000722829 0)
(0 -0.000765161 0)
(0 -0.000812617 0)
(0 -0.000862953 0)
(0 -0.000916022 0)
(0 -0.000970541 0)
(0 -0.00102527 0)
(0 -0.00107895 0)
(0 -0.0011303 0)
(0 -0.00117831 0)
(0 -0.00122228 0)
(0 -0.00126138 0)
(0 -0.00129492 0)
(0 -0.00132202 0)
(0 -0.00134192 0)
(0 -0.00135389 0)
(0 -0.00135736 0)
(0 -0.0013519 0)
(0 -0.00133713 0)
(0 -0.00131278 0)
(0 -0.00127855 0)
(0 -0.00123427 0)
(0 -0.00117993 0)
(0 -0.00111556 0)
(0 -0.00104145 0)
(0 -0.000957961 0)
(0 -0.000865471 0)
(0 -0.000764678 0)
(0 -0.000656391 0)
(0 -0.000541463 0)
(0 -0.000420899 0)
(0 -0.000295962 0)
(0 -0.000168015 0)
(0 -3.84247e-05 0)
(0 9.13513e-05 0)
(0 0.000219731 0)
(0 0.000345229 0)
(0 0.000465911 0)
(0 0.000580261 0)
(0 0.000686589 0)
(0 0.000783051 0)
(0 0.000867971 0)
(0 0.000939942 0)
(0 0.000997442 0)
(0 0.00103904 0)
(0 0.00106356 0)
(0 0.00107015 0)
(0 0.00105818 0)
(0 0.00102737 0)
(0 0.000977812 0)
(0 0.000909685 0)
(0 0.000823907 0)
(0 0.000721596 0)
(0 0.00060444 0)
(0 0.000474261 0)
(0 0.000333496 0)
(0 0.000184751 0)
(0 3.10546e-05 0)
(0 -0.000124233 0)
(0 -0.000277712 0)
(0 -0.000425753 0)
(0 -0.000564712 0)
(0 -0.000691054 0)
(0 -0.000801414 0)
(0 -0.000892604 0)
(0 -0.000961779 0)
(0 -0.00100676 0)
(0 -0.00102583 0)
(0 -0.00101781 0)
(0 -0.000982249 0)
(0 -0.000919698 0)
(0 -0.000831266 0)
(0 -0.00071915 0)
(0 -0.000586185 0)
(0 -0.000436081 0)
(0 -0.000273165 0)
(0 -0.000102475 0)
(0 7.04855e-05 0)
(0 0.000240289 0)
(0 0.000400914 0)
(0 0.000546907 0)
(0 0.000672449 0)
(0 0.000772978 0)
(0 0.00084407 0)
(0 0.000882926 0)
(0 0.000887501 0)
(0 0.000857002 0)
(0 0.000792282 0)
(0 0.000695689 0)
(0 0.000571005 0)
(0 0.000423398 0)
(0 0.000258793 0)
(0 8.5147e-05 0)
(0 -8.98942e-05 0)
(0 -0.00025823 0)
(0 -0.000411526 0)
(0 -0.000542118 0)
(0 -0.000643226 0)
(0 -0.000709531 0)
(0 -0.00073745 0)
(0 -0.000725162 0)
(0 -0.000673409 0)
(0 -0.000585162 0)
(0 -0.000465627 0)
(0 -0.000321998 0)
(0 -0.000163379 0)
(0 -6.12241e-09 0)
(0 0.000157938 0)
(0 0.000299866 0)
(0 0.000416118 0)
(0 0.000498524 0)
(0 0.000541476 0)
(0 0.000541809 0)
(0 0.000499671 0)
(0 0.000418644 0)
(0 0.000305359 0)
(0 0.000169007 0)
(0 2.12021e-05 0)
(0 -0.000125343 0)
(0 -0.000258831 0)
(0 -0.000367363 0)
(0 -0.000441282 0)
(0 -0.000473966 0)
(0 -0.000462669 0)
(0 -0.000408956 0)
(0 -0.000318471 0)
(0 -0.000200674 0)
(0 -6.80395e-05 0)
(0 6.52922e-05 0)
(0 0.000186177 0)
(0 0.00028182 0)
(0 0.000342411 0)
(0 0.00036217 0)
(0 0.000340107 0)
(0 0.000280233 0)
(0 0.000191199 0)
(0 8.52847e-05 0)
(0 -2.29979e-05 0)
(0 -0.000120578 0)
(0 -0.000194941 0)
(0 -0.000237342 0)
(0 -0.000243949 0)
(0 -0.000216409 0)
(0 -0.000161423 0)
(0 -8.98222e-05 0)
(0 -1.52255e-05 0)
(0 5.06381e-05 0)
(0 9.7254e-05 0)
(0 0.000118678 0)
(0 0.000114234 0)
(0 8.82546e-05 0)
(0 4.86853e-05 0)
(0 5.1661e-06 0)
(0 -3.25853e-05 0)
(0 -5.7371e-05 0)
(0 -6.49467e-05 0)
(0 -5.57142e-05 0)
(0 -3.37381e-05 0)
(0 -5.56387e-06 0)
(0 2.1516e-05 0)
(0 4.10038e-05 0)
(0 4.81277e-05 0)
(0 4.09794e-05 0)
(0 2.13686e-05 0)
(0 -6.32597e-06 0)
(0 -3.59654e-05 0)
(0 -6.08357e-05 0)
(0 -7.51006e-05 0)
)
;
    }
    walls
    {
        type            calculated;
        value           uniform (0 0 0);
    }
    floatingObject
    {
        type            calculated;
        value           uniform (0 0 0);
    }
    frontAndBack
    {
        type            empty;
    }
}


// ************************************************************************* //
