# Probe 0 (0.5 0.5 0.5)
# Time        0            
0             0.06656      
0.2           0.0709366    
0.4           0.075313     
0.6           0.0796891    
0.8           0.0840651    
1             0.088441     
1.2           0.0928166    
1.4           0.0971922    
1.6           0.101568     
1.8           0.105943     
2             0.110318     
2.2           0.114693     
2.4           0.119068     
2.6           0.123443     
2.8           0.127818     
3             0.132193     
3.2           0.136568     
3.4           0.140943     
3.6           0.145317     
3.8           0.149692     
4             0.154066     
4.2           0.158441     
4.4           0.162816     
4.6           0.16719      
4.8           0.171564     
5             0.175939     
5.2           0.180313     
5.4           0.184688     
5.6           0.189062     
5.8           0.193437     
6             0.197811     
