/*--------------------------------*- C++ -*----------------------------------*\
  =========                 |
  \\      /  F ield         | OpenFOAM: The Open Source CFD Toolbox
   \\    /   O peration     | Website:  https://openfoam.org
    \\  /    A nd           | Version:  12
     \\/     M anipulation  |
\*---------------------------------------------------------------------------*/
FoamFile
{
    format      ascii;
    class       volScalarField;
    location    "10.02";
    object      p;
}
// * * * * * * * * * * * * * * * * * * * * * * * * * * * * * * * * * * * * * //

dimensions      [1 -1 -2 0 0 0 0];

internalField   nonuniform List<scalar> 
3829
(
-618.168
-618.166
-618.164
-618.16
-618.154
-618.147
-618.138
-618.128
-618.115
-618.101
-618.085
-618.067
-618.046
-618.023
-617.997
-617.968
-617.937
-617.903
-617.865
-617.824
-617.78
-617.733
-617.682
-617.628
-617.57
-617.509
-617.444
-617.377
-617.306
-617.232
-617.155
-617.076
-616.994
-616.91
-616.825
-616.738
-616.649
-616.56
-616.471
-616.381
-616.292
-616.203
-616.116
-616.03
-615.945
-615.863
-615.784
-615.708
-615.636
-615.567
-615.503
-615.443
-615.387
-615.336
-615.29
-615.248
-615.211
-615.178
-615.15
-615.127
-615.108
-615.093
-615.081
-615.074
-615.069
-615.067
-615.068
-615.07
-615.073
-615.077
-615.081
-615.085
-615.087
-615.088
-615.087
-615.083
-615.076
-615.065
-615.05
-615.031
-615.008
-614.979
-614.946
-614.909
-614.867
-614.821
-614.772
-614.72
-614.666
-614.61
-614.553
-614.496
-614.441
-614.387
-614.337
-614.291
-614.25
-614.215
-614.186
-614.165
-614.152
-614.146
-614.149
-614.161
-614.18
-614.206
-614.238
-614.276
-614.318
-614.362
-614.408
-614.453
-614.496
-614.536
-614.57
-614.597
-614.617
-614.628
-614.63
-614.622
-614.604
-614.578
-614.544
-614.503
-614.457
-614.408
-614.358
-614.309
-614.264
-614.224
-614.191
-614.167
-614.153
-614.149
-614.155
-614.171
-614.195
-614.227
-614.262
-614.3
-614.338
-614.372
-614.401
-614.423
-614.437
-614.441
-614.435
-614.419
-614.396
-614.367
-614.335
-614.303
-614.272
-614.246
-614.226
-614.214
-614.21
-614.217
-614.23
-614.249
-614.271
-614.295
-614.317
-614.336
-614.351
-614.359
-614.362
-614.359
-614.352
-614.343
-614.334
-614.326
-614.32
-614.319
-614.321
-614.328
-614.336
-614.346
-614.355
-614.362
-614.365
-614.363
-614.355
-614.342
-614.326
-614.307
-614.288
-614.271
-614.258
-614.25
-614.25
-614.258
-614.273
-614.294
-614.32
-614.347
-614.374
-614.397
-614.414
-614.424
-1776.66
-1776.66
-1776.66
-1776.65
-1776.65
-1776.64
-1776.64
-1776.63
-1776.62
-1776.61
-1776.59
-1776.58
-1776.56
-1776.54
-1776.51
-1776.49
-1776.46
-1776.42
-1776.38
-1776.34
-1776.29
-1776.24
-1776.19
-1776.13
-1776.07
-1776
-1775.92
-1775.85
-1775.77
-1775.68
-1775.59
-1775.5
-1775.41
-1775.31
-1775.21
-1775.11
-1775.01
-1774.91
-1774.81
-1774.7
-1774.6
-1774.5
-1774.4
-1774.31
-1774.21
-1774.12
-1774.03
-1773.95
-1773.88
-1773.8
-1773.74
-1773.68
-1773.62
-1773.57
-1773.53
-1773.49
-1773.46
-1773.43
-1773.41
-1773.39
-1773.38
-1773.37
-1773.37
-1773.37
-1773.38
-1773.39
-1773.4
-1773.41
-1773.43
-1773.44
-1773.46
-1773.47
-1773.48
-1773.49
-1773.5
-1773.5
-1773.5
-1773.49
-1773.48
-1773.46
-1773.44
-1773.41
-1773.37
-1773.33
-1773.28
-1773.23
-1773.17
-1773.11
-1773.05
-1772.98
-1772.91
-1772.85
-1772.78
-1772.72
-1772.66
-1772.61
-1772.56
-1772.52
-1772.49
-1772.46
-1772.45
-1772.45
-1772.45
-1772.47
-1772.49
-1772.53
-1772.57
-1772.62
-1772.67
-1772.73
-1772.78
-1772.84
-1772.89
-1772.94
-1772.98
-1773.02
-1773.04
-1773.05
-1773.05
-1773.04
-1773.02
-1772.99
-1772.95
-1772.9
-1772.84
-1772.78
-1772.72
-1772.66
-1772.61
-1772.56
-1772.52
-1772.49
-1772.48
-1772.48
-1772.49
-1772.51
-1772.54
-1772.58
-1772.62
-1772.67
-1772.72
-1772.76
-1772.79
-1772.82
-1772.84
-1772.84
-1772.83
-1772.81
-1772.78
-1772.75
-1772.71
-1772.67
-1772.63
-1772.6
-1772.58
-1772.56
-1772.56
-1772.57
-1772.59
-1772.61
-1772.64
-1772.67
-1772.69
-1772.72
-1772.73
-1772.74
-1772.74
-1772.74
-1772.73
-1772.71
-1772.7
-1772.69
-1772.68
-1772.68
-1772.69
-1772.69
-1772.7
-1772.72
-1772.73
-1772.74
-1772.74
-1772.74
-1772.73
-1772.72
-1772.7
-1772.68
-1772.65
-1772.64
-1772.62
-1772.61
-1772.61
-1772.62
-1772.64
-1772.66
-1772.69
-1772.72
-1772.75
-1772.77
-1772.79
-1772.8
-2803.01
-2803.01
-2803.01
-2803.01
-2803.01
-2803.01
-2803.01
-2803.01
-2803.01
-2803
-2803
-2802.99
-2802.98
-2802.97
-2802.95
-2802.93
-2802.91
-2802.88
-2802.84
-2802.8
-2802.75
-2802.69
-2802.63
-2802.56
-2802.49
-2802.4
-2802.32
-2802.22
-2802.12
-2802.01
-2801.9
-2801.78
-2801.66
-2801.54
-2801.42
-2801.29
-2801.16
-2801.03
-2800.9
-2800.78
-2800.65
-2800.53
-2800.41
-2800.3
-2800.19
-2800.09
-2799.99
-2799.89
-2799.81
-2799.73
-2799.65
-2799.59
-2799.53
-2799.49
-2799.44
-2799.41
-2799.39
-2799.37
-2799.36
-2799.36
-2799.37
-2799.38
-2799.39
-2799.42
-2799.44
-2799.47
-2799.5
-2799.54
-2799.57
-2799.61
-2799.64
-2799.67
-2799.7
-2799.72
-2799.74
-2799.75
-2799.76
-2799.76
-2799.75
-2799.74
-2799.71
-2799.68
-2799.63
-2799.58
-2799.53
-2799.46
-2799.39
-2799.31
-2799.23
-2799.15
-2799.06
-2798.98
-2798.89
-2798.81
-2798.74
-2798.67
-2798.61
-2798.56
-2798.52
-2798.49
-2798.47
-2798.47
-2798.49
-2798.51
-2798.55
-2798.6
-2798.66
-2798.73
-2798.8
-2798.88
-2798.96
-2799.03
-2799.1
-2799.17
-2799.22
-2799.27
-2799.3
-2799.32
-2799.32
-2799.3
-2799.27
-2799.23
-2799.17
-2799.1
-2799.03
-2798.95
-2798.87
-2798.79
-2798.72
-2798.66
-2798.61
-2798.57
-2798.56
-2798.56
-2798.58
-2798.61
-2798.66
-2798.71
-2798.77
-2798.84
-2798.9
-2798.96
-2799
-2799.03
-2799.05
-2799.05
-2799.04
-2799.01
-2798.97
-2798.92
-2798.87
-2798.82
-2798.77
-2798.73
-2798.7
-2798.69
-2798.69
-2798.7
-2798.72
-2798.76
-2798.79
-2798.83
-2798.87
-2798.9
-2798.91
-2798.92
-2798.92
-2798.91
-2798.89
-2798.88
-2798.86
-2798.84
-2798.83
-2798.83
-2798.84
-2798.85
-2798.86
-2798.88
-2798.9
-2798.91
-2798.91
-2798.91
-2798.9
-2798.89
-2798.86
-2798.84
-2798.81
-2798.79
-2798.77
-2798.76
-2798.76
-2798.77
-2798.79
-2798.81
-2798.84
-2798.88
-2798.91
-2798.94
-2798.96
-2798.98
-3712.21
-3712.21
-3712.22
-3712.23
-3712.24
-3712.25
-3712.27
-3712.28
-3712.3
-3712.32
-3712.34
-3712.35
-3712.36
-3712.37
-3712.38
-3712.37
-3712.36
-3712.34
-3712.31
-3712.27
-3712.22
-3712.16
-3712.09
-3712.01
-3711.91
-3711.81
-3711.69
-3711.57
-3711.43
-3711.29
-3711.14
-3710.98
-3710.82
-3710.66
-3710.49
-3710.32
-3710.15
-3709.99
-3709.82
-3709.66
-3709.5
-3709.35
-3709.2
-3709.06
-3708.92
-3708.79
-3708.67
-3708.57
-3708.48
-3708.39
-3708.32
-3708.26
-3708.2
-3708.16
-3708.13
-3708.11
-3708.1
-3708.1
-3708.11
-3708.13
-3708.16
-3708.2
-3708.24
-3708.3
-3708.35
-3708.41
-3708.47
-3708.54
-3708.6
-3708.66
-3708.72
-3708.78
-3708.83
-3708.87
-3708.91
-3708.94
-3708.96
-3708.97
-3708.97
-3708.95
-3708.92
-3708.88
-3708.83
-3708.77
-3708.69
-3708.61
-3708.51
-3708.41
-3708.3
-3708.19
-3708.08
-3707.97
-3707.86
-3707.75
-3707.65
-3707.56
-3707.49
-3707.42
-3707.37
-3707.34
-3707.32
-3707.33
-3707.35
-3707.39
-3707.45
-3707.52
-3707.6
-3707.7
-3707.8
-3707.91
-3708.01
-3708.12
-3708.22
-3708.31
-3708.38
-3708.44
-3708.48
-3708.5
-3708.5
-3708.48
-3708.44
-3708.37
-3708.29
-3708.2
-3708.1
-3707.99
-3707.88
-3707.78
-3707.68
-3707.6
-3707.54
-3707.5
-3707.48
-3707.49
-3707.52
-3707.56
-3707.63
-3707.71
-3707.8
-3707.89
-3707.97
-3708.05
-3708.11
-3708.15
-3708.17
-3708.17
-3708.15
-3708.11
-3708.05
-3707.98
-3707.91
-3707.84
-3707.77
-3707.72
-3707.68
-3707.67
-3707.67
-3707.69
-3707.73
-3707.78
-3707.83
-3707.88
-3707.93
-3707.96
-3707.99
-3707.99
-3707.99
-3707.97
-3707.94
-3707.92
-3707.89
-3707.87
-3707.85
-3707.85
-3707.86
-3707.87
-3707.9
-3707.92
-3707.94
-3707.96
-3707.97
-3707.97
-3707.96
-3707.94
-3707.91
-3707.88
-3707.84
-3707.81
-3707.79
-3707.78
-3707.78
-3707.79
-3707.81
-3707.84
-3707.88
-3707.92
-3707.96
-3708
-3708.02
-3708.04
-4517.6
-4517.61
-4517.63
-4517.65
-4517.69
-4517.73
-4517.78
-4517.83
-4517.89
-4517.96
-4518.02
-4518.08
-4518.14
-4518.2
-4518.24
-4518.28
-4518.3
-4518.31
-4518.29
-4518.26
-4518.21
-4518.14
-4518.04
-4517.93
-4517.8
-4517.65
-4517.49
-4517.31
-4517.12
-4516.92
-4516.71
-4516.49
-4516.27
-4516.04
-4515.82
-4515.59
-4515.36
-4515.14
-4514.92
-4514.71
-4514.51
-4514.32
-4514.14
-4513.96
-4513.8
-4513.66
-4513.53
-4513.41
-4513.3
-4513.2
-4513.13
-4513.06
-4513.02
-4512.99
-4512.97
-4512.97
-4512.98
-4513
-4513.04
-4513.09
-4513.16
-4513.23
-4513.31
-4513.4
-4513.49
-4513.59
-4513.69
-4513.79
-4513.9
-4513.99
-4514.09
-4514.18
-4514.26
-4514.33
-4514.39
-4514.44
-4514.47
-4514.49
-4514.49
-4514.47
-4514.44
-4514.4
-4514.33
-4514.25
-4514.15
-4514.04
-4513.92
-4513.78
-4513.64
-4513.49
-4513.34
-4513.19
-4513.05
-4512.91
-4512.78
-4512.66
-4512.56
-4512.48
-4512.42
-4512.39
-4512.37
-4512.38
-4512.41
-4512.47
-4512.55
-4512.65
-4512.77
-4512.9
-4513.04
-4513.19
-4513.33
-4513.48
-4513.61
-4513.73
-4513.83
-4513.91
-4513.96
-4513.99
-4513.98
-4513.95
-4513.89
-4513.8
-4513.69
-4513.56
-4513.42
-4513.28
-4513.13
-4513
-4512.87
-4512.77
-4512.69
-4512.64
-4512.62
-4512.63
-4512.68
-4512.75
-4512.84
-4512.95
-4513.07
-4513.19
-4513.31
-4513.41
-4513.49
-4513.54
-4513.57
-4513.56
-4513.53
-4513.47
-4513.39
-4513.3
-4513.2
-4513.1
-4513.01
-4512.94
-4512.9
-4512.88
-4512.89
-4512.92
-4512.98
-4513.04
-4513.11
-4513.18
-4513.25
-4513.29
-4513.32
-4513.32
-4513.31
-4513.28
-4513.24
-4513.2
-4513.17
-4513.14
-4513.12
-4513.12
-4513.13
-4513.15
-4513.18
-4513.21
-4513.24
-4513.27
-4513.28
-4513.28
-4513.27
-4513.24
-4513.21
-4513.16
-4513.12
-4513.09
-4513.06
-4513.04
-4513.04
-4513.05
-4513.08
-4513.12
-4513.16
-4513.21
-4513.26
-4513.3
-4513.33
-4513.35
-5230.69
-5230.71
-5230.75
-5230.8
-5230.87
-5230.96
-5231.06
-5231.17
-5231.29
-5231.4
-5231.52
-5231.62
-5231.72
-5231.8
-5231.87
-5231.93
-5231.98
-5232.02
-5232.05
-5232.07
-5232.07
-5232.06
-5232.02
-5231.95
-5231.84
-5231.69
-5231.49
-5231.26
-5231
-5230.72
-5230.42
-5230.12
-5229.81
-5229.49
-5229.18
-5228.87
-5228.57
-5228.28
-5228
-5227.74
-5227.48
-5227.24
-5227.02
-5226.81
-5226.63
-5226.46
-5226.3
-5226.17
-5226.06
-5225.97
-5225.89
-5225.84
-5225.81
-5225.79
-5225.8
-5225.82
-5225.86
-5225.92
-5226
-5226.09
-5226.19
-5226.31
-5226.43
-5226.57
-5226.71
-5226.86
-5227.01
-5227.16
-5227.31
-5227.45
-5227.59
-5227.71
-5227.83
-5227.93
-5228.02
-5228.09
-5228.14
-5228.17
-5228.17
-5228.16
-5228.12
-5228.06
-5227.98
-5227.87
-5227.74
-5227.6
-5227.44
-5227.26
-5227.08
-5226.89
-5226.69
-5226.5
-5226.31
-5226.13
-5225.96
-5225.81
-5225.68
-5225.58
-5225.51
-5225.46
-5225.45
-5225.47
-5225.51
-5225.6
-5225.7
-5225.84
-5226
-5226.18
-5226.37
-5226.56
-5226.76
-5226.95
-5227.12
-5227.28
-5227.41
-5227.51
-5227.58
-5227.61
-5227.6
-5227.55
-5227.47
-5227.35
-5227.2
-5227.03
-5226.85
-5226.65
-5226.46
-5226.28
-5226.12
-5225.99
-5225.89
-5225.83
-5225.82
-5225.84
-5225.9
-5226
-5226.13
-5226.27
-5226.43
-5226.6
-5226.75
-5226.88
-5226.98
-5227.05
-5227.08
-5227.07
-5227.02
-5226.94
-5226.83
-5226.7
-5226.57
-5226.44
-5226.33
-5226.24
-5226.19
-5226.17
-5226.18
-5226.23
-5226.31
-5226.4
-5226.49
-5226.58
-5226.66
-5226.72
-5226.75
-5226.75
-5226.73
-5226.69
-5226.64
-5226.58
-5226.53
-5226.49
-5226.47
-5226.46
-5226.48
-5226.51
-5226.55
-5226.6
-5226.64
-5226.67
-5226.69
-5226.69
-5226.67
-5226.64
-5226.59
-5226.54
-5226.49
-5226.45
-5226.41
-5226.39
-5226.39
-5226.41
-5226.44
-5226.48
-5226.54
-5226.59
-5226.65
-5226.7
-5226.73
-5226.75
-5862.12
-5862.16
-5862.25
-5862.38
-5862.56
-5862.78
-5863.05
-5863.35
-5863.68
-5864.03
-5864.4
-5864.77
-5865.12
-5865.44
-5865.71
-5865.97
-5866.19
-5866.37
-5866.51
-5866.59
-5866.58
-5866.48
-5866.27
-5865.95
-5865.56
-5865.13
-5864.68
-5864.21
-5863.74
-5863.27
-5862.81
-5862.35
-5861.9
-5861.47
-5861.05
-5860.64
-5860.25
-5859.88
-5859.53
-5859.2
-5858.9
-5858.61
-5858.35
-5858.12
-5857.9
-5857.72
-5857.56
-5857.42
-5857.31
-5857.21
-5857.15
-5857.11
-5857.09
-5857.1
-5857.13
-5857.19
-5857.27
-5857.37
-5857.48
-5857.62
-5857.78
-5857.94
-5858.12
-5858.31
-5858.51
-5858.72
-5858.92
-5859.13
-5859.33
-5859.52
-5859.71
-5859.88
-5860.04
-5860.18
-5860.29
-5860.39
-5860.46
-5860.5
-5860.51
-5860.49
-5860.44
-5860.36
-5860.26
-5860.12
-5859.96
-5859.77
-5859.57
-5859.34
-5859.11
-5858.86
-5858.61
-5858.37
-5858.12
-5857.9
-5857.69
-5857.5
-5857.34
-5857.21
-5857.12
-5857.07
-5857.06
-5857.08
-5857.15
-5857.26
-5857.41
-5857.59
-5857.79
-5858.02
-5858.27
-5858.52
-5858.77
-5859.02
-5859.24
-5859.44
-5859.61
-5859.74
-5859.82
-5859.85
-5859.84
-5859.77
-5859.66
-5859.5
-5859.31
-5859.09
-5858.85
-5858.6
-5858.36
-5858.13
-5857.93
-5857.77
-5857.65
-5857.58
-5857.56
-5857.59
-5857.68
-5857.81
-5857.98
-5858.17
-5858.38
-5858.59
-5858.78
-5858.95
-5859.08
-5859.16
-5859.2
-5859.18
-5859.11
-5859
-5858.85
-5858.69
-5858.52
-5858.35
-5858.21
-5858.11
-5858.04
-5858.02
-5858.05
-5858.11
-5858.21
-5858.33
-5858.46
-5858.57
-5858.67
-5858.74
-5858.77
-5858.77
-5858.74
-5858.68
-5858.61
-5858.53
-5858.47
-5858.42
-5858.39
-5858.39
-5858.41
-5858.45
-5858.5
-5858.56
-5858.62
-5858.65
-5858.68
-5858.68
-5858.66
-5858.62
-5858.56
-5858.5
-5858.44
-5858.39
-5858.35
-5858.32
-5858.32
-5858.34
-5858.38
-5858.43
-5858.49
-5858.56
-5858.62
-5858.68
-5858.72
-5858.74
-6420.33
-6420.41
-6420.57
-6420.81
-6421.13
-6421.51
-6421.98
-6422.5
-6423.08
-6423.67
-6424.25
-6424.8
-6425.33
-6425.85
-6426.32
-6426.71
-6427.02
-6427.22
-6427.32
-6427.31
-6427.21
-6427.02
-6426.78
-6426.48
-6426.15
-6425.68
-6425.18
-6424.61
-6424.04
-6423.45
-6422.86
-6422.27
-6421.69
-6421.13
-6420.6
-6420.1
-6419.62
-6419.17
-6418.76
-6418.37
-6418.02
-6417.7
-6417.41
-6417.15
-6416.92
-6416.72
-6416.55
-6416.41
-6416.3
-6416.22
-6416.17
-6416.15
-6416.16
-6416.2
-6416.27
-6416.37
-6416.49
-6416.63
-6416.8
-6417
-6417.21
-6417.43
-6417.68
-6417.93
-6418.19
-6418.46
-6418.73
-6419
-6419.26
-6419.51
-6419.75
-6419.97
-6420.17
-6420.35
-6420.5
-6420.62
-6420.71
-6420.76
-6420.77
-6420.75
-6420.69
-6420.59
-6420.46
-6420.29
-6420.09
-6419.85
-6419.59
-6419.31
-6419.02
-6418.71
-6418.4
-6418.09
-6417.79
-6417.51
-6417.25
-6417.02
-6416.82
-6416.67
-6416.56
-6416.5
-6416.49
-6416.53
-6416.62
-6416.76
-6416.95
-6417.18
-6417.44
-6417.73
-6418.04
-6418.36
-6418.68
-6418.98
-6419.26
-6419.51
-6419.71
-6419.87
-6419.97
-6420.01
-6419.98
-6419.89
-6419.75
-6419.55
-6419.31
-6419.03
-6418.73
-6418.42
-6418.12
-6417.84
-6417.59
-6417.39
-6417.24
-6417.16
-6417.14
-6417.2
-6417.31
-6417.48
-6417.7
-6417.94
-6418.21
-6418.47
-6418.71
-6418.91
-6419.07
-6419.17
-6419.21
-6419.18
-6419.09
-6418.94
-6418.76
-6418.55
-6418.33
-6418.13
-6417.96
-6417.83
-6417.75
-6417.73
-6417.77
-6417.86
-6417.99
-6418.14
-6418.3
-6418.44
-6418.56
-6418.64
-6418.68
-6418.67
-6418.62
-6418.55
-6418.45
-6418.36
-6418.27
-6418.21
-6418.18
-6418.18
-6418.21
-6418.26
-6418.33
-6418.4
-6418.47
-6418.52
-6418.54
-6418.54
-6418.52
-6418.47
-6418.41
-6418.34
-6418.27
-6418.2
-6418.15
-6418.13
-6418.12
-6418.14
-6418.19
-6418.25
-6418.32
-6418.39
-6418.47
-6418.53
-6418.58
-6418.6
-6913.69
-6913.83
-6914.11
-6914.54
-6915.12
-6915.82
-6916.65
-6917.56
-6918.57
-6919.61
-6920.68
-6921.73
-6922.72
-6923.62
-6924.4
-6925.07
-6925.6
-6925.98
-6926.22
-6926.3
-6926.23
-6926.01
-6925.64
-6925.1
-6924.34
-6923.5
-6922.67
-6921.8
-6920.9
-6919.98
-6919.08
-6918.23
-6917.44
-6916.71
-6916.04
-6915.43
-6914.88
-6914.37
-6913.9
-6913.48
-6913.1
-6912.75
-6912.44
-6912.17
-6911.93
-6911.73
-6911.56
-6911.43
-6911.33
-6911.27
-6911.24
-6911.24
-6911.28
-6911.36
-6911.47
-6911.61
-6911.78
-6911.97
-6912.2
-6912.45
-6912.73
-6913.02
-6913.33
-6913.65
-6913.98
-6914.32
-6914.66
-6914.99
-6915.32
-6915.63
-6915.93
-6916.21
-6916.46
-6916.68
-6916.86
-6917.01
-6917.12
-6917.18
-6917.2
-6917.17
-6917.09
-6916.97
-6916.81
-6916.6
-6916.35
-6916.06
-6915.74
-6915.4
-6915.04
-6914.66
-6914.28
-6913.91
-6913.54
-6913.2
-6912.88
-6912.61
-6912.37
-6912.19
-6912.06
-6911.99
-6911.98
-6912.04
-6912.15
-6912.33
-6912.57
-6912.85
-6913.18
-6913.54
-6913.92
-6914.31
-6914.7
-6915.07
-6915.41
-6915.71
-6915.95
-6916.14
-6916.25
-6916.3
-6916.26
-6916.15
-6915.97
-6915.72
-6915.42
-6915.08
-6914.71
-6914.33
-6913.97
-6913.63
-6913.33
-6913.09
-6912.91
-6912.82
-6912.81
-6912.88
-6913.03
-6913.24
-6913.51
-6913.81
-6914.14
-6914.45
-6914.75
-6915
-6915.19
-6915.3
-6915.34
-6915.3
-6915.18
-6915
-6914.77
-6914.51
-6914.25
-6914
-6913.79
-6913.64
-6913.55
-6913.53
-6913.59
-6913.7
-6913.86
-6914.05
-6914.24
-6914.42
-6914.56
-6914.65
-6914.69
-6914.68
-6914.61
-6914.52
-6914.4
-6914.28
-6914.18
-6914.1
-6914.07
-6914.07
-6914.11
-6914.17
-6914.26
-6914.34
-6914.42
-6914.48
-6914.51
-6914.52
-6914.49
-6914.43
-6914.36
-6914.27
-6914.19
-6914.11
-6914.06
-6914.03
-6914.02
-6914.05
-6914.1
-6914.16
-6914.25
-6914.33
-6914.41
-6914.49
-6914.54
-6914.57
-7348.85
-7349.03
-7349.4
-7350.06
-7351.12
-7352.4
-7354.03
-7355.63
-7358.57
-7360.43
-7362.22
-7363.76
-7365.1
-7366.24
-7367.19
-7367.98
-7368.6
-7369.06
-7369.35
-7369.47
-7369.43
-7369.2
-7368.81
-7368.22
-7367.42
-7366.41
-7364.87
-7362.15
-7360.94
-7359.38
-7358.12
-7357.04
-7356.11
-7355.29
-7354.55
-7353.9
-7353.31
-7352.77
-7352.28
-7351.84
-7351.45
-7351.09
-7350.78
-7350.5
-7350.27
-7350.07
-7349.91
-7349.79
-7349.7
-7349.66
-7349.66
-7349.69
-7349.77
-7349.88
-7350.03
-7350.22
-7350.44
-7350.7
-7350.98
-7351.3
-7351.64
-7352
-7352.39
-7352.78
-7353.19
-7353.6
-7354.01
-7354.42
-7354.81
-7355.19
-7355.55
-7355.88
-7356.18
-7356.45
-7356.67
-7356.84
-7356.97
-7357.05
-7357.07
-7357.03
-7356.94
-7356.79
-7356.59
-7356.33
-7356.03
-7355.69
-7355.31
-7354.9
-7354.46
-7354.01
-7353.56
-7353.11
-7352.68
-7352.27
-7351.9
-7351.57
-7351.29
-7351.08
-7350.93
-7350.85
-7350.84
-7350.92
-7351.07
-7351.28
-7351.57
-7351.92
-7352.31
-7352.74
-7353.2
-7353.67
-7354.13
-7354.57
-7354.97
-7355.33
-7355.62
-7355.84
-7355.97
-7356.01
-7355.96
-7355.83
-7355.6
-7355.3
-7354.94
-7354.53
-7354.09
-7353.64
-7353.2
-7352.8
-7352.45
-7352.17
-7351.97
-7351.86
-7351.86
-7351.95
-7352.13
-7352.39
-7352.72
-7353.08
-7353.47
-7353.85
-7354.2
-7354.5
-7354.72
-7354.85
-7354.89
-7354.83
-7354.68
-7354.46
-7354.18
-7353.87
-7353.56
-7353.26
-7353.02
-7352.84
-7352.74
-7352.72
-7352.8
-7352.94
-7353.13
-7353.36
-7353.6
-7353.81
-7353.97
-7354.08
-7354.12
-7354.09
-7354.01
-7353.89
-7353.75
-7353.6
-7353.48
-7353.39
-7353.35
-7353.36
-7353.4
-7353.48
-7353.58
-7353.69
-7353.78
-7353.85
-7353.89
-7353.89
-7353.85
-7353.79
-7353.7
-7353.61
-7353.51
-7353.43
-7353.36
-7353.33
-7353.33
-7353.35
-7353.41
-7353.48
-7353.58
-7353.67
-7353.76
-7353.84
-7353.9
-7353.93
-7732.44
-7732.78
-7733.45
-7734.41
-7735.56
-7736.88
-7738.85
-7740.71
-7744.97
-7747.71
-7750.86
-7753.33
-7755.52
-7757.35
-7758.87
-7760.1
-7761.04
-7761.71
-7762.1
-7762.21
-7762.04
-7761.57
-7760.79
-7759.66
-7758.18
-7756.11
-7753.8
-7750.94
-7749.03
-7747.42
-7746.11
-7745.03
-7744.11
-7743.32
-7742.61
-7741.97
-7741.4
-7740.88
-7740.4
-7739.97
-7739.58
-7739.23
-7738.92
-7738.65
-7738.42
-7738.23
-7738.08
-7737.97
-7737.91
-7737.89
-7737.91
-7737.98
-7738.09
-7738.24
-7738.44
-7738.67
-7738.95
-7739.27
-7739.62
-7740
-7740.41
-7740.85
-7741.3
-7741.78
-7742.26
-7742.75
-7743.23
-7743.72
-7744.18
-7744.63
-7745.05
-7745.44
-7745.8
-7746.1
-7746.36
-7746.57
-7746.71
-7746.8
-7746.82
-7746.77
-7746.66
-7746.48
-7746.24
-7745.94
-7745.59
-7745.18
-7744.73
-7744.25
-7743.74
-7743.21
-7742.68
-7742.16
-7741.65
-7741.18
-7740.74
-7740.36
-7740.04
-7739.79
-7739.62
-7739.54
-7739.54
-7739.63
-7739.81
-7740.07
-7740.41
-7740.82
-7741.28
-7741.79
-7742.33
-7742.88
-7743.42
-7743.94
-7744.41
-7744.82
-7745.16
-7745.4
-7745.55
-7745.6
-7745.54
-7745.37
-7745.1
-7744.75
-7744.32
-7743.84
-7743.32
-7742.79
-7742.28
-7741.81
-7741.41
-7741.08
-7740.85
-7740.74
-7740.74
-7740.85
-7741.07
-7741.39
-7741.77
-7742.21
-7742.66
-7743.11
-7743.51
-7743.86
-7744.11
-7744.26
-7744.3
-7744.22
-7744.05
-7743.78
-7743.45
-7743.08
-7742.71
-7742.37
-7742.08
-7741.88
-7741.77
-7741.76
-7741.85
-7742.02
-7742.26
-7742.52
-7742.81
-7743.05
-7743.24
-7743.36
-7743.4
-7743.36
-7743.26
-7743.11
-7742.94
-7742.77
-7742.63
-7742.53
-7742.48
-7742.49
-7742.55
-7742.65
-7742.76
-7742.89
-7742.99
-7743.07
-7743.12
-7743.12
-7743.08
-7743
-7742.9
-7742.79
-7742.69
-7742.59
-7742.52
-7742.48
-7742.48
-7742.51
-7742.57
-7742.66
-7742.76
-7742.86
-7742.97
-7743.05
-7743.12
-7743.15
-8070.12
-8070.16
-8070.26
-8070.39
-8070.61
-8071.21
-8071.56
-8072.01
-8089.82
-8089.29
-8088.94
-8088.39
-8087.8
-8087.2
-8086.62
-8086.05
-8085.51
-8084.99
-8084.51
-8084.07
-8083.65
-8083.28
-8082.93
-8082.63
-8082.37
-8082.14
-8081.96
-8081.83
-8081.73
-8081.69
-8081.69
-8081.74
-8081.84
-8081.98
-8082.18
-8082.42
-8082.71
-8083.04
-8083.42
-8083.83
-8084.28
-8084.77
-8085.28
-8085.81
-8086.36
-8086.93
-8087.49
-8088.06
-8088.61
-8089.16
-8089.67
-8090.16
-8090.61
-8091.01
-8091.37
-8091.66
-8091.89
-8092.06
-8092.15
-8092.17
-8092.12
-8091.99
-8091.78
-8091.5
-8091.15
-8090.73
-8090.26
-8089.74
-8089.18
-8088.6
-8087.99
-8087.38
-8086.78
-8086.2
-8085.65
-8085.15
-8084.72
-8084.35
-8084.07
-8083.88
-8083.79
-8083.8
-8083.91
-8084.12
-8084.43
-8084.83
-8085.3
-8085.84
-8086.43
-8087.05
-8087.68
-8088.3
-8088.89
-8089.43
-8089.9
-8090.29
-8090.57
-8090.73
-8090.78
-8090.7
-8090.5
-8090.19
-8089.78
-8089.28
-8088.72
-8088.13
-8087.52
-8086.93
-8086.4
-8085.93
-8085.57
-8085.31
-8085.19
-8085.2
-8085.33
-8085.6
-8085.96
-8086.41
-8086.92
-8087.44
-8087.95
-8088.42
-8088.81
-8089.09
-8089.26
-8089.3
-8089.2
-8088.99
-8088.68
-8088.3
-8087.87
-8087.44
-8087.05
-8086.73
-8086.5
-8086.38
-8086.37
-8086.48
-8086.69
-8086.96
-8087.27
-8087.6
-8087.87
-8088.09
-8088.22
-8088.26
-8088.21
-8088.09
-8087.92
-8087.72
-8087.52
-8087.36
-8087.25
-8087.2
-8087.21
-8087.28
-8087.39
-8087.52
-8087.66
-8087.79
-8087.88
-8087.92
-8087.92
-8087.88
-8087.79
-8087.68
-8087.56
-8087.44
-8087.34
-8087.26
-8087.22
-8087.21
-8087.25
-8087.32
-8087.41
-8087.52
-8087.64
-8087.75
-8087.84
-8087.91
-8087.95
-8368.33
-8368.37
-8368.45
-8368.57
-8368.73
-8368.92
-8369.07
-8369.33
-8393.19
-8392.82
-8392.51
-8392.11
-8391.66
-8391.17
-8390.69
-8390.21
-8389.73
-8389.27
-8388.83
-8388.41
-8388.01
-8387.65
-8387.32
-8387.02
-8386.76
-8386.55
-8386.37
-8386.25
-8386.17
-8386.14
-8386.16
-8386.24
-8386.37
-8386.55
-8386.78
-8387.07
-8387.41
-8387.8
-8388.24
-8388.72
-8389.24
-8389.79
-8390.38
-8390.99
-8391.62
-8392.26
-8392.91
-8393.55
-8394.19
-8394.8
-8395.39
-8395.94
-8396.45
-8396.9
-8397.3
-8397.63
-8397.89
-8398.08
-8398.18
-8398.2
-8398.13
-8397.98
-8397.74
-8397.41
-8397.01
-8396.54
-8396.01
-8395.41
-8394.78
-8394.11
-8393.42
-8392.73
-8392.05
-8391.39
-8390.78
-8390.22
-8389.73
-8389.32
-8389
-8388.79
-8388.69
-8388.71
-8388.84
-8389.09
-8389.44
-8389.9
-8390.44
-8391.05
-8391.72
-8392.42
-8393.14
-8393.85
-8394.51
-8395.12
-8395.65
-8396.08
-8396.39
-8396.58
-8396.62
-8396.53
-8396.29
-8395.93
-8395.46
-8394.9
-8394.26
-8393.59
-8392.9
-8392.24
-8391.63
-8391.11
-8390.7
-8390.42
-8390.29
-8390.3
-8390.47
-8390.77
-8391.19
-8391.71
-8392.28
-8392.88
-8393.46
-8393.98
-8394.42
-8394.74
-8394.92
-8394.95
-8394.84
-8394.59
-8394.23
-8393.8
-8393.32
-8392.82
-8392.39
-8392.02
-8391.77
-8391.64
-8391.64
-8391.77
-8392.01
-8392.33
-8392.68
-8393.05
-8393.36
-8393.6
-8393.75
-8393.79
-8393.72
-8393.58
-8393.38
-8393.15
-8392.93
-8392.74
-8392.62
-8392.56
-8392.58
-8392.66
-8392.79
-8392.94
-8393.1
-8393.24
-8393.34
-8393.39
-8393.39
-8393.34
-8393.24
-8393.12
-8392.98
-8392.85
-8392.74
-8392.65
-8392.61
-8392.61
-8392.64
-8392.72
-8392.82
-8392.94
-8393.06
-8393.18
-8393.29
-8393.36
-8393.4
-8632.62
-8632.65
-8632.68
-8632.74
-8632.82
-8632.9
-8632.95
-8633.06
-8661.94
-8661.72
-8661.52
-8661.22
-8660.88
-8660.47
-8660.06
-8659.63
-8659.2
-8658.77
-8658.35
-8657.95
-8657.57
-8657.21
-8656.88
-8656.59
-8656.33
-8656.12
-8655.95
-8655.84
-8655.77
-8655.76
-8655.8
-8655.9
-8656.06
-8656.28
-8656.55
-8656.89
-8657.28
-8657.72
-8658.22
-8658.76
-8659.35
-8659.98
-8660.64
-8661.33
-8662.03
-8662.75
-8663.48
-8664.2
-8664.91
-8665.59
-8666.25
-8666.86
-8667.43
-8667.94
-8668.38
-8668.75
-8669.04
-8669.24
-8669.35
-8669.36
-8669.28
-8669.11
-8668.83
-8668.47
-8668.02
-8667.49
-8666.89
-8666.22
-8665.51
-8664.76
-8663.99
-8663.22
-8662.46
-8661.73
-8661.04
-8660.42
-8659.87
-8659.42
-8659.08
-8658.85
-8658.74
-8658.76
-8658.92
-8659.2
-8659.6
-8660.11
-8660.72
-8661.41
-8662.16
-8662.94
-8663.75
-8664.53
-8665.28
-8665.95
-8666.54
-8667.02
-8667.36
-8667.56
-8667.6
-8667.49
-8667.22
-8666.82
-8666.28
-8665.65
-8664.94
-8664.18
-8663.42
-8662.68
-8662.01
-8661.43
-8660.98
-8660.67
-8660.53
-8660.56
-8660.75
-8661.09
-8661.57
-8662.15
-8662.79
-8663.46
-8664.1
-8664.69
-8665.17
-8665.52
-8665.72
-8665.75
-8665.62
-8665.33
-8664.93
-8664.44
-8663.9
-8663.34
-8662.86
-8662.46
-8662.18
-8662.04
-8662.05
-8662.2
-8662.48
-8662.84
-8663.24
-8663.64
-8663.99
-8664.25
-8664.41
-8664.45
-8664.37
-8664.21
-8663.97
-8663.72
-8663.47
-8663.27
-8663.13
-8663.07
-8663.09
-8663.18
-8663.33
-8663.5
-8663.68
-8663.83
-8663.94
-8663.99
-8663.99
-8663.93
-8663.83
-8663.7
-8663.55
-8663.4
-8663.28
-8663.19
-8663.14
-8663.14
-8663.18
-8663.26
-8663.37
-8663.5
-8663.63
-8663.76
-8663.87
-8663.95
-8663.99
-8866.53
-8866.54
-8866.55
-8866.58
-8866.62
-8866.66
-8866.69
-8866.73
-8900.26
-8900.11
-8899.95
-8899.71
-8899.42
-8899.07
-8898.7
-8898.31
-8897.9
-8897.49
-8897.08
-8896.69
-8896.31
-8895.95
-8895.62
-8895.33
-8895.07
-8894.86
-8894.7
-8894.59
-8894.53
-8894.53
-8894.59
-8894.72
-8894.9
-8895.15
-8895.47
-8895.85
-8896.29
-8896.79
-8897.34
-8897.95
-8898.6
-8899.3
-8900.03
-8900.79
-8901.58
-8902.38
-8903.18
-8903.97
-8904.76
-8905.51
-8906.24
-8906.91
-8907.53
-8908.09
-8908.58
-8908.98
-8909.29
-8909.51
-8909.63
-8909.64
-8909.55
-8909.35
-8909.04
-8908.64
-8908.14
-8907.55
-8906.88
-8906.14
-8905.35
-8904.53
-8903.68
-8902.82
-8901.98
-8901.18
-8900.42
-8899.74
-8899.14
-8898.65
-8898.27
-8898.03
-8897.92
-8897.95
-8898.12
-8898.43
-8898.88
-8899.45
-8900.13
-8900.89
-8901.72
-8902.59
-8903.48
-8904.34
-8905.16
-8905.9
-8906.55
-8907.06
-8907.44
-8907.65
-8907.69
-8907.56
-8907.26
-8906.81
-8906.22
-8905.51
-8904.73
-8903.9
-8903.05
-8902.24
-8901.5
-8900.87
-8900.38
-8900.05
-8899.9
-8899.93
-8900.15
-8900.54
-8901.07
-8901.71
-8902.42
-8903.16
-8903.87
-8904.51
-8905.04
-8905.42
-8905.63
-8905.66
-8905.51
-8905.19
-8904.74
-8904.19
-8903.6
-8902.98
-8902.45
-8902.01
-8901.71
-8901.56
-8901.58
-8901.76
-8902.06
-8902.46
-8902.91
-8903.35
-8903.74
-8904.02
-8904.19
-8904.23
-8904.14
-8903.95
-8903.69
-8903.4
-8903.13
-8902.91
-8902.76
-8902.69
-8902.72
-8902.83
-8902.99
-8903.18
-8903.37
-8903.54
-8903.66
-8903.72
-8903.71
-8903.65
-8903.53
-8903.39
-8903.23
-8903.07
-8902.94
-8902.85
-8902.79
-8902.79
-8902.84
-8902.92
-8903.04
-8903.18
-8903.32
-8903.46
-8903.57
-8903.66
-8903.7
-9073.72
-9073.72
-9073.74
-9073.75
-9073.78
-9073.8
-9073.81
-9073.84
-9111.56
-9111.42
-9111.28
-9111.07
-9110.8
-9110.48
-9110.13
-9109.75
-9109.36
-9108.95
-9108.55
-9108.15
-9107.77
-9107.4
-9107.07
-9106.77
-9106.51
-9106.3
-9106.14
-9106.03
-9105.98
-9105.99
-9106.07
-9106.22
-9106.43
-9106.71
-9107.07
-9107.49
-9107.97
-9108.52
-9109.13
-9109.8
-9110.52
-9111.29
-9112.09
-9112.92
-9113.78
-9114.65
-9115.53
-9116.4
-9117.25
-9118.08
-9118.86
-9119.6
-9120.28
-9120.88
-9121.41
-9121.84
-9122.18
-9122.42
-9122.54
-9122.55
-9122.44
-9122.22
-9121.88
-9121.43
-9120.88
-9120.24
-9119.5
-9118.7
-9117.83
-9116.93
-9116
-9115.07
-9114.16
-9113.28
-9112.46
-9111.72
-9111.07
-9110.54
-9110.13
-9109.86
-9109.75
-9109.79
-9109.98
-9110.33
-9110.82
-9111.45
-9112.19
-9113.03
-9113.93
-9114.88
-9115.85
-9116.79
-9117.68
-9118.49
-9119.19
-9119.75
-9120.15
-9120.38
-9120.42
-9120.27
-9119.94
-9119.44
-9118.79
-9118.02
-9117.16
-9116.25
-9115.33
-9114.45
-9113.64
-9112.96
-9112.43
-9112.07
-9111.91
-9111.96
-9112.21
-9112.63
-9113.22
-9113.92
-9114.7
-9115.51
-9116.28
-9116.98
-9117.55
-9117.96
-9118.18
-9118.21
-9118.03
-9117.68
-9117.18
-9116.58
-9115.93
-9115.27
-9114.69
-9114.21
-9113.88
-9113.73
-9113.76
-9113.96
-9114.3
-9114.74
-9115.23
-9115.71
-9116.13
-9116.44
-9116.62
-9116.65
-9116.55
-9116.33
-9116.05
-9115.73
-9115.43
-9115.19
-9115.03
-9114.97
-9115
-9115.12
-9115.3
-9115.5
-9115.71
-9115.89
-9116.02
-9116.08
-9116.08
-9116.01
-9115.88
-9115.73
-9115.56
-9115.39
-9115.25
-9115.15
-9115.09
-9115.09
-9115.14
-9115.23
-9115.36
-9115.5
-9115.65
-9115.8
-9115.92
-9116.01
-9116.05
-9257.24
-9257.25
-9257.26
-9257.27
-9257.28
-9257.3
-9257.3
-9257.32
-9298.81
-9298.71
-9298.56
-9298.37
-9298.11
-9297.8
-9297.46
-9297.08
-9296.68
-9296.27
-9295.86
-9295.46
-9295.06
-9294.69
-9294.35
-9294.04
-9293.78
-9293.56
-9293.4
-9293.29
-9293.25
-9293.27
-9293.36
-9293.53
-9293.77
-9294.08
-9294.47
-9294.92
-9295.46
-9296.06
-9296.72
-9297.45
-9298.23
-9299.06
-9299.93
-9300.83
-9301.76
-9302.7
-9303.65
-9304.59
-9305.51
-9306.4
-9307.25
-9308.05
-9308.77
-9309.43
-9309.99
-9310.46
-9310.82
-9311.07
-9311.19
-9311.2
-9311.08
-9310.83
-9310.47
-9309.98
-9309.38
-9308.68
-9307.88
-9307.01
-9306.07
-9305.1
-9304.09
-9303.09
-9302.1
-9301.15
-9300.27
-9299.47
-9298.77
-9298.2
-9297.77
-9297.48
-9297.36
-9297.41
-9297.63
-9298.01
-9298.54
-9299.22
-9300.03
-9300.93
-9301.92
-9302.94
-9303.99
-9305
-9305.96
-9306.83
-9307.58
-9308.19
-9308.61
-9308.85
-9308.89
-9308.73
-9308.36
-9307.82
-9307.11
-9306.27
-9305.34
-9304.36
-9303.37
-9302.42
-9301.56
-9300.82
-9300.25
-9299.87
-9299.71
-9299.77
-9300.04
-9300.51
-9301.14
-9301.91
-9302.75
-9303.62
-9304.46
-9305.21
-9305.82
-9306.26
-9306.49
-9306.51
-9306.32
-9305.93
-9305.39
-9304.74
-9304.03
-9303.32
-9302.69
-9302.18
-9301.83
-9301.67
-9301.71
-9301.93
-9302.3
-9302.78
-9303.31
-9303.83
-9304.28
-9304.61
-9304.8
-9304.83
-9304.71
-9304.48
-9304.17
-9303.82
-9303.5
-9303.24
-9303.07
-9303.01
-9303.04
-9303.17
-9303.37
-9303.59
-9303.81
-9304.01
-9304.14
-9304.21
-9304.2
-9304.13
-9304
-9303.83
-9303.65
-9303.47
-9303.32
-9303.22
-9303.16
-9303.16
-9303.21
-9303.31
-9303.44
-9303.59
-9303.75
-9303.9
-9304.03
-9304.12
-9304.17
-9419.82
-9419.82
-9419.83
-9419.84
-9419.84
-9419.86
-9419.86
-9419.87
-9464.76
-9464.68
-9464.53
-9464.33
-9464.08
-9463.77
-9463.42