/*--------------------------------*- C++ -*----------------------------------*\
  =========                 |
  \\      /  F ield         | OpenFOAM: The Open Source CFD Toolbox
   \\    /   O peration     | Website:  https://openfoam.org
    \\  /    A nd           | Version:  12
     \\/     M anipulation  |
\*---------------------------------------------------------------------------*/
FoamFile
{
    format      ascii;
    class       volScalarField;
    location    "2";
    object      p;
}
// * * * * * * * * * * * * * * * * * * * * * * * * * * * * * * * * * * * * * //

dimensions      [1 -1 -2 0 0 0 0];

internalField   nonuniform List<scalar> 
3829
(
-615.157
-615.157
-615.156
-615.155
-615.153
-615.151
-615.149
-615.146
-615.143
-615.139
-615.135
-615.13
-615.124
-615.118
-615.111
-615.104
-615.096
-615.088
-615.078
-615.068
-615.058
-615.046
-615.034
-615.021
-615.007
-614.993
-614.978
-614.963
-614.946
-614.93
-614.912
-614.894
-614.876
-614.858
-614.839
-614.819
-614.8
-614.781
-614.761
-614.742
-614.723
-614.704
-614.686
-614.668
-614.65
-614.633
-614.617
-614.601
-614.587
-614.573
-614.559
-614.547
-614.536
-614.525
-614.516
-614.508
-614.5
-614.494
-614.488
-614.484
-614.48
-614.478
-614.476
-614.475
-614.474
-614.475
-614.476
-614.477
-614.479
-614.481
-614.483
-614.486
-614.489
-614.491
-614.494
-614.497
-614.499
-614.501
-614.502
-614.503
-614.504
-614.504
-614.503
-614.502
-614.5
-614.497
-614.494
-614.49
-614.486
-614.481
-614.475
-614.469
-614.462
-614.455
-614.447
-614.439
-614.43
-614.422
-614.413
-614.403
-614.394
-614.385
-614.376
-614.366
-614.357
-614.348
-614.34
-614.331
-614.323
-614.316
-614.309
-614.302
-614.295
-614.29
-614.284
-614.28
-614.275
-614.272
-614.268
-614.266
-614.264
-614.262
-614.261
-614.261
-614.26
-614.261
-614.262
-614.263
-614.265
-614.266
-614.269
-614.271
-614.274
-614.277
-614.281
-614.284
-614.288
-614.291
-614.295
-614.299
-614.303
-614.307
-614.311
-614.315
-614.318
-614.322
-614.326
-614.329
-614.332
-614.335
-614.338
-614.341
-614.344
-614.346
-614.349
-614.351
-614.353
-614.354
-614.356
-614.357
-614.358
-614.359
-614.36
-614.361
-614.361
-614.362
-614.362
-614.362
-614.362
-614.362
-614.362
-614.361
-614.361
-614.36
-614.36
-614.359
-614.358
-614.358
-614.357
-614.356
-614.355
-614.354
-614.354
-614.353
-614.352
-614.351
-614.35
-614.35
-614.349
-614.348
-614.348
-614.347
-614.347
-614.346
-614.346
-614.345
-614.345
-614.345
-614.345
-614.345
-1773.56
-1773.56
-1773.56
-1773.56
-1773.56
-1773.56
-1773.55
-1773.55
-1773.55
-1773.54
-1773.54
-1773.54
-1773.53
-1773.52
-1773.52
-1773.51
-1773.5
-1773.49
-1773.48
-1773.47
-1773.46
-1773.45
-1773.43
-1773.42
-1773.4
-1773.39
-1773.37
-1773.35
-1773.33
-1773.31
-1773.29
-1773.27
-1773.25
-1773.23
-1773.21
-1773.19
-1773.16
-1773.14
-1773.12
-1773.1
-1773.08
-1773.06
-1773.04
-1773.02
-1773
-1772.98
-1772.96
-1772.94
-1772.93
-1772.91
-1772.9
-1772.89
-1772.88
-1772.87
-1772.86
-1772.85
-1772.84
-1772.84
-1772.83
-1772.83
-1772.83
-1772.83
-1772.83
-1772.83
-1772.83
-1772.83
-1772.84
-1772.84
-1772.84
-1772.85
-1772.85
-1772.85
-1772.86
-1772.86
-1772.87
-1772.87
-1772.87
-1772.88
-1772.88
-1772.88
-1772.88
-1772.88
-1772.88
-1772.88
-1772.88
-1772.88
-1772.87
-1772.87
-1772.86
-1772.86
-1772.85
-1772.84
-1772.84
-1772.83
-1772.82
-1772.81
-1772.8
-1772.79
-1772.78
-1772.77
-1772.76
-1772.75
-1772.74
-1772.73
-1772.72
-1772.72
-1772.71
-1772.7
-1772.69
-1772.68
-1772.67
-1772.67
-1772.66
-1772.66
-1772.65
-1772.65
-1772.64
-1772.64
-1772.63
-1772.63
-1772.63
-1772.63
-1772.63
-1772.63
-1772.63
-1772.63
-1772.63
-1772.63
-1772.63
-1772.63
-1772.64
-1772.64
-1772.64
-1772.65
-1772.65
-1772.65
-1772.66
-1772.66
-1772.66
-1772.67
-1772.67
-1772.68
-1772.68
-1772.68
-1772.69
-1772.69
-1772.7
-1772.7
-1772.7
-1772.71
-1772.71
-1772.71
-1772.71
-1772.72
-1772.72
-1772.72
-1772.72
-1772.72
-1772.73
-1772.73
-1772.73
-1772.73
-1772.73
-1772.73
-1772.73
-1772.73
-1772.73
-1772.73
-1772.73
-1772.73
-1772.73
-1772.73
-1772.73
-1772.73
-1772.73
-1772.73
-1772.73
-1772.73
-1772.73
-1772.73
-1772.72
-1772.72
-1772.72
-1772.72
-1772.72
-1772.72
-1772.72
-1772.72
-1772.72
-1772.72
-1772.72
-1772.72
-1772.72
-1772.72
-1772.72
-1772.72
-1772.71
-1772.71
-1772.71
-1772.71
-2799.77
-2799.77
-2799.77
-2799.77
-2799.77
-2799.77
-2799.77
-2799.77
-2799.77
-2799.77
-2799.76
-2799.76
-2799.75
-2799.75
-2799.74
-2799.74
-2799.73
-2799.72
-2799.71
-2799.7
-2799.68
-2799.67
-2799.65
-2799.63
-2799.62
-2799.6
-2799.57
-2799.55
-2799.53
-2799.5
-2799.48
-2799.45
-2799.42
-2799.4
-2799.37
-2799.34
-2799.31
-2799.28
-2799.26
-2799.23
-2799.2
-2799.18
-2799.16
-2799.13
-2799.11
-2799.09
-2799.07
-2799.05
-2799.03
-2799.02
-2799.01
-2798.99
-2798.98
-2798.97
-2798.97
-2798.96
-2798.96
-2798.95
-2798.95
-2798.95
-2798.95
-2798.95
-2798.96
-2798.96
-2798.97
-2798.97
-2798.98
-2798.99
-2798.99
-2799
-2799.01
-2799.01
-2799.02
-2799.03
-2799.03
-2799.04
-2799.04
-2799.05
-2799.05
-2799.05
-2799.06
-2799.06
-2799.06
-2799.06
-2799.05
-2799.05
-2799.05
-2799.04
-2799.03
-2799.03
-2799.02
-2799.01
-2799
-2799
-2798.99
-2798.98
-2798.97
-2798.95
-2798.94
-2798.93
-2798.92
-2798.91
-2798.9
-2798.89
-2798.88
-2798.87
-2798.86
-2798.85
-2798.84
-2798.84
-2798.83
-2798.82
-2798.82
-2798.81
-2798.8
-2798.8
-2798.8
-2798.79
-2798.79
-2798.79
-2798.79
-2798.78
-2798.78
-2798.78
-2798.78
-2798.79
-2798.79
-2798.79
-2798.79
-2798.79
-2798.8
-2798.8
-2798.8
-2798.81
-2798.81
-2798.81
-2798.82
-2798.82
-2798.83
-2798.83
-2798.83
-2798.84
-2798.84
-2798.85
-2798.85
-2798.85
-2798.86
-2798.86
-2798.86
-2798.87
-2798.87
-2798.87
-2798.88
-2798.88
-2798.88
-2798.88
-2798.88
-2798.89
-2798.89
-2798.89
-2798.89
-2798.89
-2798.89
-2798.89
-2798.89
-2798.89
-2798.89
-2798.89
-2798.89
-2798.89
-2798.89
-2798.89
-2798.89
-2798.89
-2798.89
-2798.89
-2798.89
-2798.89
-2798.89
-2798.89
-2798.89
-2798.88
-2798.88
-2798.88
-2798.88
-2798.88
-2798.88
-2798.88
-2798.88
-2798.88
-2798.88
-2798.88
-2798.88
-2798.88
-2798.88
-2798.88
-2798.88
-2798.87
-2798.87
-2798.87
-3708.87
-3708.87
-3708.87
-3708.87
-3708.88
-3708.88
-3708.88
-3708.88
-3708.88
-3708.88
-3708.88
-3708.88
-3708.88
-3708.88
-3708.88
-3708.87
-3708.86
-3708.86
-3708.85
-3708.83
-3708.82
-3708.8
-3708.78
-3708.76
-3708.74
-3708.71
-3708.68
-3708.65
-3708.62
-3708.58
-3708.55
-3708.51
-3708.48
-3708.44
-3708.4
-3708.37
-3708.33
-3708.29
-3708.26
-3708.23
-3708.19
-3708.16
-3708.13
-3708.1
-3708.08
-3708.05
-3708.03
-3708.01
-3707.99
-3707.98
-3707.97
-3707.95
-3707.94
-3707.94
-3707.93
-3707.93
-3707.93
-3707.93
-3707.93
-3707.94
-3707.94
-3707.95
-3707.96
-3707.97
-3707.98
-3707.99
-3708
-3708.01
-3708.02
-3708.03
-3708.05
-3708.06
-3708.07
-3708.08
-3708.08
-3708.09
-3708.1
-3708.11
-3708.11
-3708.11
-3708.12
-3708.12
-3708.12
-3708.11
-3708.11
-3708.11
-3708.1
-3708.1
-3708.09
-3708.08
-3708.07
-3708.06
-3708.05
-3708.04
-3708.03
-3708.02
-3708.01
-3708
-3707.98
-3707.97
-3707.96
-3707.95
-3707.94
-3707.92
-3707.91
-3707.9
-3707.89
-3707.88
-3707.87
-3707.87
-3707.86
-3707.85
-3707.85
-3707.84
-3707.83
-3707.83
-3707.83
-3707.82
-3707.82
-3707.82
-3707.82
-3707.82
-3707.82
-3707.82
-3707.82
-3707.82
-3707.82
-3707.82
-3707.83
-3707.83
-3707.83
-3707.84
-3707.84
-3707.84
-3707.85
-3707.85
-3707.86
-3707.86
-3707.86
-3707.87
-3707.87
-3707.88
-3707.88
-3707.89
-3707.89
-3707.89
-3707.9
-3707.9
-3707.9
-3707.91
-3707.91
-3707.91
-3707.92
-3707.92
-3707.92
-3707.92
-3707.92
-3707.93
-3707.93
-3707.93
-3707.93
-3707.93
-3707.93
-3707.93
-3707.93
-3707.93
-3707.93
-3707.93
-3707.93
-3707.93
-3707.93
-3707.93
-3707.93
-3707.93
-3707.93
-3707.93
-3707.93
-3707.93
-3707.93
-3707.92
-3707.92
-3707.92
-3707.92
-3707.92
-3707.92
-3707.92
-3707.92
-3707.92
-3707.92
-3707.92
-3707.92
-3707.92
-3707.92
-3707.91
-3707.91
-3707.91
-3707.91
-3707.91
-3707.91
-3707.91
-4514.2
-4514.21
-4514.21
-4514.21
-4514.22
-4514.22
-4514.23
-4514.24
-4514.25
-4514.26
-4514.27
-4514.27
-4514.28
-4514.29
-4514.29
-4514.29
-4514.29
-4514.28
-4514.27
-4514.26
-4514.25
-4514.22
-4514.2
-4514.17
-4514.14
-4514.1
-4514.06
-4514.02
-4513.97
-4513.93
-4513.88
-4513.83
-4513.78
-4513.73
-4513.68
-4513.63
-4513.58
-4513.53
-4513.49
-4513.45
-4513.41
-4513.37
-4513.33
-4513.3
-4513.27
-4513.24
-4513.22
-4513.2
-4513.18
-4513.16
-4513.15
-4513.14
-4513.14
-4513.13
-4513.13
-4513.13
-4513.14
-4513.14
-4513.15
-4513.16
-4513.18
-4513.19
-4513.2
-4513.22
-4513.24
-4513.25
-4513.27
-4513.29
-4513.3
-4513.32
-4513.34
-4513.35
-4513.37
-4513.38
-4513.39
-4513.4
-4513.41
-4513.42
-4513.42
-4513.43
-4513.43
-4513.43
-4513.43
-4513.43
-4513.43
-4513.42
-4513.41
-4513.41
-4513.4
-4513.39
-4513.38
-4513.36
-4513.35
-4513.34
-4513.33
-4513.31
-4513.3
-4513.28
-4513.27
-4513.26
-4513.24
-4513.23
-4513.22
-4513.21
-4513.19
-4513.18
-4513.17
-4513.16
-4513.15
-4513.14
-4513.14
-4513.13
-4513.12
-4513.12
-4513.11
-4513.11
-4513.11
-4513.1
-4513.1
-4513.1
-4513.1
-4513.1
-4513.1
-4513.1
-4513.1
-4513.1
-4513.1
-4513.11
-4513.11
-4513.11
-4513.12
-4513.12
-4513.13
-4513.13
-4513.13
-4513.14
-4513.14
-4513.15
-4513.15
-4513.16
-4513.16
-4513.17
-4513.17
-4513.17
-4513.18
-4513.18
-4513.19
-4513.19
-4513.19
-4513.2
-4513.2
-4513.2
-4513.21
-4513.21
-4513.21
-4513.21
-4513.21
-4513.21
-4513.22
-4513.22
-4513.22
-4513.22
-4513.22
-4513.22
-4513.22
-4513.22
-4513.22
-4513.22
-4513.22
-4513.22
-4513.22
-4513.22
-4513.22
-4513.22
-4513.22
-4513.22
-4513.22
-4513.21
-4513.21
-4513.21
-4513.21
-4513.21
-4513.21
-4513.21
-4513.21
-4513.21
-4513.21
-4513.21
-4513.21
-4513.2
-4513.2
-4513.2
-4513.2
-4513.2
-4513.2
-4513.2
-4513.2
-4513.2
-4513.2
-4513.2
-5227.58
-5227.58
-5227.59
-5227.6
-5227.61
-5227.63
-5227.65
-5227.67
-5227.7
-5227.72
-5227.75
-5227.77
-5227.8
-5227.82
-5227.83
-5227.84
-5227.85
-5227.85
-5227.85
-5227.84
-5227.82
-5227.8
-5227.76
-5227.72
-5227.68
-5227.63
-5227.57
-5227.51
-5227.44
-5227.37
-5227.3
-5227.23
-5227.16
-5227.1
-5227.03
-5226.96
-5226.9
-5226.84
-5226.78
-5226.73
-5226.68
-5226.63
-5226.59
-5226.55
-5226.52
-5226.49
-5226.47
-5226.45
-5226.43
-5226.42
-5226.41
-5226.4
-5226.4
-5226.4
-5226.41
-5226.41
-5226.42
-5226.44
-5226.45
-5226.47
-5226.49
-5226.51
-5226.54
-5226.56
-5226.58
-5226.61
-5226.63
-5226.66
-5226.68
-5226.7
-5226.72
-5226.75
-5226.76
-5226.78
-5226.8
-5226.81
-5226.82
-5226.83
-5226.84
-5226.84
-5226.84
-5226.84
-5226.84
-5226.84
-5226.83
-5226.83
-5226.82
-5226.81
-5226.8
-5226.78
-5226.77
-5226.76
-5226.74
-5226.73
-5226.71
-5226.7
-5226.68
-5226.66
-5226.65
-5226.63
-5226.62
-5226.6
-5226.59
-5226.58
-5226.56
-5226.55
-5226.54
-5226.53
-5226.52
-5226.51
-5226.5
-5226.5
-5226.49
-5226.49
-5226.48
-5226.48
-5226.47
-5226.47
-5226.47
-5226.47
-5226.47
-5226.47
-5226.47
-5226.47
-5226.47
-5226.48
-5226.48
-5226.48
-5226.49
-5226.49
-5226.49
-5226.5
-5226.5
-5226.51
-5226.51
-5226.52
-5226.52
-5226.53
-5226.53
-5226.54
-5226.54
-5226.54
-5226.55
-5226.55
-5226.56
-5226.56
-5226.57
-5226.57
-5226.57
-5226.58
-5226.58
-5226.58
-5226.58
-5226.59
-5226.59
-5226.59
-5226.59
-5226.59
-5226.6
-5226.6
-5226.6
-5226.6
-5226.6
-5226.6
-5226.6
-5226.6
-5226.6
-5226.6
-5226.6
-5226.6
-5226.6
-5226.6
-5226.6
-5226.6
-5226.6
-5226.6
-5226.59
-5226.59
-5226.59
-5226.59
-5226.59
-5226.59
-5226.59
-5226.59
-5226.59
-5226.59
-5226.59
-5226.58
-5226.58
-5226.58
-5226.58
-5226.58
-5226.58
-5226.58
-5226.58
-5226.58
-5226.58
-5226.58
-5226.58
-5226.58
-5859.45
-5859.46
-5859.47
-5859.5
-5859.53
-5859.57
-5859.61
-5859.66
-5859.72
-5859.78
-5859.84
-5859.89
-5859.95
-5860
-5860.04
-5860.07
-5860.1
-5860.11
-5860.12
-5860.11
-5860.09
-5860.05
-5860.01
-5859.95
-5859.88
-5859.8
-5859.71
-5859.61
-5859.51
-5859.41
-5859.31
-5859.21
-5859.11
-5859.02
-5858.93
-5858.84
-5858.76
-5858.69
-5858.62
-5858.56
-5858.5
-5858.45
-5858.4
-5858.36
-5858.33
-5858.3
-5858.27
-5858.25
-5858.24
-5858.23
-5858.22
-5858.22
-5858.23
-5858.24
-5858.25
-5858.27
-5858.29
-5858.31
-5858.33
-5858.36
-5858.39
-5858.42
-5858.45
-5858.48
-5858.52
-5858.55
-5858.58
-5858.61
-5858.65
-5858.67
-5858.7
-5858.73
-5858.75
-5858.77
-5858.79
-5858.81
-5858.82
-5858.83
-5858.84
-5858.84
-5858.84
-5858.84
-5858.84
-5858.83
-5858.83
-5858.82
-5858.81
-5858.79
-5858.78
-5858.76
-5858.75
-5858.73
-5858.71
-5858.7
-5858.68
-5858.66
-5858.64
-5858.62
-5858.61
-5858.59
-5858.57
-5858.56
-5858.54
-5858.53
-5858.51
-5858.5
-5858.49
-5858.48
-5858.47
-5858.46
-5858.45
-5858.45
-5858.44
-5858.43
-5858.43
-5858.43
-5858.42
-5858.42
-5858.42
-5858.42
-5858.42
-5858.42
-5858.42
-5858.43
-5858.43
-5858.43
-5858.43
-5858.44
-5858.44
-5858.45
-5858.45
-5858.46
-5858.46
-5858.47
-5858.47
-5858.48
-5858.48
-5858.49
-5858.49
-5858.5
-5858.5
-5858.51
-5858.51
-5858.52
-5858.52
-5858.52
-5858.53
-5858.53
-5858.53
-5858.54
-5858.54
-5858.54
-5858.55
-5858.55
-5858.55
-5858.55
-5858.55
-5858.56
-5858.56
-5858.56
-5858.56
-5858.56
-5858.56
-5858.56
-5858.56
-5858.56
-5858.56
-5858.56
-5858.56
-5858.56
-5858.56
-5858.56
-5858.56
-5858.56
-5858.56
-5858.56
-5858.55
-5858.55
-5858.55
-5858.55
-5858.55
-5858.55
-5858.55
-5858.55
-5858.55
-5858.55
-5858.55
-5858.54
-5858.54
-5858.54
-5858.54
-5858.54
-5858.54
-5858.54
-5858.54
-5858.54
-5858.54
-5858.54
-5858.54
-5858.54
-6419.03
-6419.05
-6419.08
-6419.12
-6419.18
-6419.26
-6419.34
-6419.44
-6419.55
-6419.66
-6419.77
-6419.87
-6419.97
-6420.05
-6420.13
-6420.19
-6420.23
-6420.26
-6420.27
-6420.26
-6420.24
-6420.19
-6420.13
-6420.06
-6419.96
-6419.84
-6419.71
-6419.57
-6419.43
-6419.29
-6419.15
-6419.02
-6418.89
-6418.77
-6418.66
-6418.56
-6418.46
-6418.37
-6418.29
-6418.22
-6418.16
-6418.1
-6418.05
-6418.01
-6417.97
-6417.95
-6417.92
-6417.91
-6417.9
-6417.9
-6417.9
-6417.91
-6417.92
-6417.94
-6417.96
-6417.98
-6418.01
-6418.05
-6418.08
-6418.12
-6418.16
-6418.2
-6418.24
-6418.29
-6418.33
-6418.37
-6418.41
-6418.45
-6418.49
-6418.53
-6418.56
-6418.59
-6418.62
-6418.64
-6418.66
-6418.68
-6418.69
-6418.71
-6418.71
-6418.72
-6418.72
-6418.72
-6418.71
-6418.7
-6418.69
-6418.68
-6418.67
-6418.65
-6418.63
-6418.61
-6418.6
-6418.58
-6418.56
-6418.53
-6418.51
-6418.49
-6418.47
-6418.45
-6418.43
-6418.42
-6418.4
-6418.38
-6418.36
-6418.35
-6418.34
-6418.32
-6418.31
-6418.3
-6418.29
-6418.28
-6418.27
-6418.27
-6418.26
-6418.26
-6418.25
-6418.25
-6418.25
-6418.24
-6418.24
-6418.24
-6418.25
-6418.25
-6418.25
-6418.25
-6418.25
-6418.26
-6418.26
-6418.27
-6418.27
-6418.28
-6418.28
-6418.29
-6418.29
-6418.3
-6418.3
-6418.31
-6418.31
-6418.32
-6418.32
-6418.33
-6418.33
-6418.34
-6418.34
-6418.35
-6418.35
-6418.36
-6418.36
-6418.37
-6418.37
-6418.37
-6418.37
-6418.38
-6418.38
-6418.38
-6418.38
-6418.39
-6418.39
-6418.39
-6418.39
-6418.39
-6418.39
-6418.39
-6418.39
-6418.39
-6418.39
-6418.39
-6418.39
-6418.39
-6418.39
-6418.39
-6418.39
-6418.39
-6418.39
-6418.39
-6418.39
-6418.39
-6418.39
-6418.39
-6418.38
-6418.38
-6418.38
-6418.38
-6418.38
-6418.38
-6418.38
-6418.38
-6418.38
-6418.38
-6418.38
-6418.37
-6418.37
-6418.37
-6418.37
-6418.37
-6418.37
-6418.37
-6418.37
-6418.37
-6418.37
-6418.37
-6914.51
-6914.54
-6914.59
-6914.68
-6914.79
-6914.93
-6915.09
-6915.28
-6915.48
-6915.69
-6915.9
-6916.09
-6916.28
-6916.44
-6916.58
-6916.69
-6916.78
-6916.84
-6916.87
-6916.87
-6916.84
-6916.77
-6916.67
-6916.54
-6916.37
-6916.17
-6915.95
-6915.71
-6915.47
-6915.25
-6915.05
-6914.87
-6914.71
-6914.56
-6914.43
-6914.31
-6914.2
-6914.1
-6914.02
-6913.95
-6913.88
-6913.82
-6913.78
-6913.74
-6913.7
-6913.68
-6913.66
-6913.65
-6913.65
-6913.66
-6913.67
-6913.68
-6913.7
-6913.73
-6913.76
-6913.8
-6913.84
-6913.89
-6913.93
-6913.98
-6914.04
-6914.09
-6914.14
-6914.2
-6914.25
-6914.3
-6914.35
-6914.4
-6914.44
-6914.49
-6914.53
-6914.56
-6914.59
-6914.62
-6914.64
-6914.66
-6914.68
-6914.69
-6914.7
-6914.7
-6914.7
-6914.69
-6914.69
-6914.68
-6914.66
-6914.65
-6914.63
-6914.61
-6914.59
-6914.57
-6914.55
-6914.52
-6914.5
-6914.48
-6914.45
-6914.43
-6914.41
-6914.39
-6914.36
-6914.34
-6914.32
-6914.31
-6914.29
-6914.27
-6914.26
-6914.25
-6914.23
-6914.22
-6914.21
-6914.2
-6914.2
-6914.19
-6914.18
-6914.18
-6914.18
-6914.17
-6914.17
-6914.17
-6914.17
-6914.17
-6914.17
-6914.17
-6914.18
-6914.18
-6914.18
-6914.19
-6914.19
-6914.2
-6914.2
-6914.21
-6914.21
-6914.22
-6914.22
-6914.23
-6914.24
-6914.24
-6914.25
-6914.25
-6914.26
-6914.26
-6914.27
-6914.27
-6914.28
-6914.28
-6914.29
-6914.29
-6914.3
-6914.3
-6914.3
-6914.31
-6914.31
-6914.31
-6914.32
-6914.32
-6914.32
-6914.32
-6914.32
-6914.33
-6914.33
-6914.33
-6914.33
-6914.33
-6914.33
-6914.33
-6914.33
-6914.33
-6914.33
-6914.33
-6914.33
-6914.33
-6914.33
-6914.33
-6914.33
-6914.32
-6914.32
-6914.32
-6914.32
-6914.32
-6914.32
-6914.32
-6914.32
-6914.32
-6914.32
-6914.31
-6914.31
-6914.31
-6914.31
-6914.31
-6914.31
-6914.31
-6914.31
-6914.31
-6914.31
-6914.31
-6914.31
-6914.31
-6914.31
-6914.31
-6914.31
-6914.31
-7353.08
-7353.12
-7353.19
-7353.31
-7353.49
-7353.71
-7354.01
-7354.38
-7354.9
-7355.31
-7355.67
-7355.97
-7356.22
-7356.42
-7356.59
-7356.72
-7356.81
-7356.87
-7356.9
-7356.9
-7356.87
-7356.81
-7356.71
-7356.56
-7356.34
-7356.06
-7355.67
-7355.11
-7354.73
-7354.44
-7354.19
-7354
-7353.84
-7353.68
-7353.54
-7353.42
-7353.31
-7353.22
-7353.13
-7353.05
-7352.98
-7352.93
-7352.88
-7352.85
-7352.82
-7352.8
-7352.79
-7352.79
-7352.8
-7352.81
-7352.83
-7352.86
-7352.89
-7352.93
-7352.97
-7353.02
-7353.07
-7353.13
-7353.19
-7353.25
-7353.32
-7353.38
-7353.45
-7353.51
-7353.58
-7353.64
-7353.7
-7353.75
-7353.81
-7353.86
-7353.9
-7353.94
-7353.98
-7354.01
-7354.03
-7354.05
-7354.07
-7354.08
-7354.08
-7354.08
-7354.08
-7354.07
-7354.06
-7354.05
-7354.03
-7354.01
-7353.99
-7353.97
-7353.95
-7353.92
-7353.9
-7353.87
-7353.84
-7353.82
-7353.79
-7353.77
-7353.74
-7353.72
-7353.69
-7353.67
-7353.65
-7353.63
-7353.62
-7353.6
-7353.58
-7353.57
-7353.56
-7353.55
-7353.54
-7353.53
-7353.52
-7353.51
-7353.51
-7353.5
-7353.5
-7353.5
-7353.5
-7353.5
-7353.5
-7353.5
-7353.5
-7353.5
-7353.51
-7353.51
-7353.51
-7353.52
-7353.52
-7353.53
-7353.54
-7353.54
-7353.55
-7353.55
-7353.56
-7353.57
-7353.57
-7353.58
-7353.58
-7353.59
-7353.6
-7353.6
-7353.61
-7353.61
-7353.62
-7353.62
-7353.63
-7353.63
-7353.63
-7353.64
-7353.64
-7353.65
-7353.65
-7353.65
-7353.65
-7353.66
-7353.66
-7353.66
-7353.66
-7353.66
-7353.66
-7353.66
-7353.66
-7353.67
-7353.67
-7353.67
-7353.67
-7353.67
-7353.67
-7353.66
-7353.66
-7353.66
-7353.66
-7353.66
-7353.66
-7353.66
-7353.66
-7353.66
-7353.66
-7353.66
-7353.66
-7353.65
-7353.65
-7353.65
-7353.65
-7353.65
-7353.65
-7353.65
-7353.65
-7353.65
-7353.65
-7353.65
-7353.64
-7353.64
-7353.64
-7353.64
-7353.64
-7353.64
-7353.64
-7353.64
-7353.64
-7353.64
-7741.19
-7741.24
-7741.33
-7741.47
-7741.67
-7741.95
-7742.33
-7742.82
-7743.54
-7744.1
-7744.6
-7745.04
-7745.42
-7745.74
-7746.02
-7746.24
-7746.41
-7746.53
-7746.59
-7746.59
-7746.53
-7746.41
-7746.24
-7746
-7745.71
-7745.38
-7744.97
-7744.3
-7743.97
-7743.63
-7743.31
-7743.01
-7742.77
-7742.59
-7742.44
-7742.31
-7742.21
-7742.12
-7742.04
-7741.97
-7741.91
-7741.87
-7741.83
-7741.8
-7741.78
-7741.77
-7741.77
-7741.78
-7741.79
-7741.81
-7741.84
-7741.88
-7741.93
-7741.98
-7742.03
-7742.09
-7742.16
-7742.23
-7742.3
-7742.38
-7742.46
-7742.53
-7742.61
-7742.69
-7742.76
-7742.83
-7742.9
-7742.97
-7743.03
-7743.08
-7743.13
-7743.18
-7743.22
-7743.25
-7743.28
-7743.3
-7743.31
-7743.32
-7743.32
-7743.32
-7743.32
-7743.31
-7743.29
-7743.28
-7743.26
-7743.23
-7743.21
-7743.18
-7743.15
-7743.12
-7743.09
-7743.07
-7743.04
-7743.01
-7742.98
-7742.95
-7742.92
-7742.9
-7742.87
-7742.85
-7742.83
-7742.81
-7742.79
-7742.77
-7742.76
-7742.74
-7742.73
-7742.72
-7742.71
-7742.7
-7742.69
-7742.69
-7742.68
-7742.68
-7742.68
-7742.68
-7742.68
-7742.68
-7742.68
-7742.68
-7742.68
-7742.68
-7742.69
-7742.69
-7742.7
-7742.7
-7742.71
-7742.71
-7742.72
-7742.73
-7742.73
-7742.74
-7742.75
-7742.75
-7742.76
-7742.76
-7742.77
-7742.78
-7742.78
-7742.79
-7742.79
-7742.8
-7742.81
-7742.81
-7742.81
-7742.82
-7742.82
-7742.83
-7742.83
-7742.83
-7742.84
-7742.84
-7742.84
-7742.84
-7742.85
-7742.85
-7742.85
-7742.85
-7742.85
-7742.85
-7742.85
-7742.85
-7742.85
-7742.85
-7742.85
-7742.85
-7742.85
-7742.85
-7742.85
-7742.85
-7742.85
-7742.85
-7742.85
-7742.85
-7742.85
-7742.85
-7742.85
-7742.84
-7742.84
-7742.84
-7742.84
-7742.84
-7742.84
-7742.84
-7742.84
-7742.84
-7742.83
-7742.83
-7742.83
-7742.83
-7742.83
-7742.83
-7742.83
-7742.83
-7742.83
-7742.83
-7742.83
-7742.83
-7742.83
-7742.83
-8084.65
-8084.67
-8084.7
-8084.76
-8084.82
-8084.89
-8084.95
-8085.03
-8087.52
-8087.36
-8087.31
-8087.25
-8087.17
-8087.07
-8086.97
-8086.86
-8086.77
-8086.68
-8086.6
-8086.53
-8086.48
-8086.43
-8086.39
-8086.35
-8086.33
-8086.32
-8086.32
-8086.33
-8086.34
-8086.37
-8086.4
-8086.44
-8086.49
-8086.55
-8086.61
-8086.68
-8086.75
-8086.83
-8086.92
-8087
-8087.09
-8087.18
-8087.27
-8087.36
-8087.45
-8087.53
-8087.62
-8087.69
-8087.77
-8087.84
-8087.9
-8087.95
-8088
-8088.04
-8088.08
-8088.1
-8088.12
-8088.14
-8088.15
-8088.15
-8088.14
-8088.13
-8088.12
-8088.1
-8088.08
-8088.06
-8088.03
-8088
-8087.97
-8087.94
-8087.91
-8087.87
-8087.84
-8087.81
-8087.78
-8087.75
-8087.72
-8087.69
-8087.66
-8087.64
-8087.61
-8087.59
-8087.57
-8087.55
-8087.53
-8087.51
-8087.5
-8087.49
-8087.48
-8087.47
-8087.46
-8087.45
-8087.45
-8087.44
-8087.44
-8087.44
-8087.43
-8087.43
-8087.44
-8087.44
-8087.44
-8087.44
-8087.45
-8087.45
-8087.46
-8087.46
-8087.47
-8087.47
-8087.48
-8087.48
-8087.49
-8087.5
-8087.5
-8087.51
-8087.52
-8087.53
-8087.53
-8087.54
-8087.54
-8087.55
-8087.56
-8087.56
-8087.57
-8087.57
-8087.58
-8087.58
-8087.59
-8087.59
-8087.6
-8087.6
-8087.6
-8087.61
-8087.61
-8087.61
-8087.61
-8087.62
-8087.62
-8087.62
-8087.62
-8087.62
-8087.62
-8087.62
-8087.62
-8087.62
-8087.62
-8087.62
-8087.62
-8087.62
-8087.62
-8087.62
-8087.62
-8087.62
-8087.62
-8087.62
-8087.62
-8087.61
-8087.61
-8087.61
-8087.61
-8087.61
-8087.61
-8087.61
-8087.61
-8087.61
-8087.61
-8087.6
-8087.6
-8087.6
-8087.6
-8087.6
-8087.6
-8087.6
-8087.6
-8087.6
-8087.6
-8087.6
-8087.6
-8087.6
-8087.6
-8087.6
-8087.6
-8388.81
-8388.82
-8388.84
-8388.86
-8388.9
-8388.94
-8388.97
-8389.02
-8392.49
-8392.4
-8392.34
-8392.27
-8392.19
-8392.11
-8392.03
-8391.95
-8391.87
-8391.8
-8391.74
-8391.68
-8391.64
-8391.6
-8391.56
-8391.54
-8391.53
-8391.52
-8391.53
-8391.54
-8391.57
-8391.6
-8391.65
-8391.7
-8391.76
-8391.83
-8391.9
-8391.99
-8392.07
-8392.17
-8392.26
-8392.36
-8392.47
-8392.57
-8392.67
-8392.77
-8392.87
-8392.97
-8393.06
-8393.15
-8393.23
-8393.3
-8393.37
-8393.43
-8393.48
-8393.53
-8393.56
-8393.59
-8393.61
-8393.62
-8393.63
-8393.62
-8393.62
-8393.6
-8393.59
-8393.57
-8393.54
-8393.51
-8393.48
-8393.45
-8393.41
-8393.38
-8393.34
-8393.31
-8393.27
-8393.24
-8393.2
-8393.17
-8393.14
-8393.11
-8393.08
-8393.05
-8393.03
-8393
-8392.98
-8392.96
-8392.94
-8392.93
-8392.91
-8392.9
-8392.89
-8392.88
-8392.87
-8392.87
-8392.86
-8392.86
-8392.85
-8392.85
-8392.85
-8392.85
-8392.85
-8392.85
-8392.86
-8392.86
-8392.87
-8392.87
-8392.88
-8392.88
-8392.89
-8392.89
-8392.9
-8392.91
-8392.91
-8392.92
-8392.93
-8392.94
-8392.94
-8392.95
-8392.96
-8392.96
-8392.97
-8392.98
-8392.98
-8392.99
-8392.99
-8393
-8393
-8393.01
-8393.01
-8393.02
-8393.02
-8393.03
-8393.03
-8393.03
-8393.03
-8393.04
-8393.04
-8393.04
-8393.04
-8393.04
-8393.04
-8393.05
-8393.05
-8393.05
-8393.05
-8393.05
-8393.05
-8393.05
-8393.05
-8393.05
-8393.05
-8393.04
-8393.04
-8393.04
-8393.04
-8393.04
-8393.04
-8393.04
-8393.04
-8393.04
-8393.04
-8393.04
-8393.03
-8393.03
-8393.03
-8393.03
-8393.03
-8393.03
-8393.03
-8393.03
-8393.03
-8393.02
-8393.02
-8393.02
-8393.02
-8393.02
-8393.02
-8393.02
-8393.02
-8393.02
-8393.02
-8393.02
-8393.02
-8658.21
-8658.21
-8658.22
-8658.24
-8658.25
-8658.27
-8658.28
-8658.3
-8662.59
-8662.55
-8662.51
-8662.46
-8662.41
-8662.34
-8662.28
-8662.21
-8662.15
-8662.09
-8662.04
-8661.99
-8661.95
-8661.92
-8661.89
-8661.88
-8661.87
-8661.87
-8661.89
-8661.91
-8661.94
-8661.99
-8662.04
-8662.11
-8662.18
-8662.26
-8662.35
-8662.44
-8662.54
-8662.65
-8662.76
-8662.87
-8662.99
-8663.1
-8663.22
-8663.33
-8663.44
-8663.55
-8663.65
-8663.75
-8663.83
-8663.92
-8663.99
-8664.05
-8664.11
-8664.15
-8664.19
-8664.21
-8664.23
-8664.24
-8664.25
-8664.24
-8664.23
-8664.21
-8664.19
-8664.17
-8664.14
-8664.11
-8664.07
-8664.03
-8664
-8663.96
-8663.92
-8663.88
-8663.84
-8663.8
-8663.77
-8663.73
-8663.7
-8663.67
-8663.64
-8663.61
-8663.58
-8663.56
-8663.54
-8663.52
-8663.5
-8663.48
-8663.47
-8663.45
-8663.44
-8663.43
-8663.43
-8663.42
-8663.41
-8663.41
-8663.41
-8663.41
-8663.41
-8663.41
-8663.41
-8663.41
-8663.42
-8663.42
-8663.43
-8663.43
-8663.44
-8663.44
-8663.45
-8663.46
-8663.46
-8663.47
-8663.48
-8663.48
-8663.49
-8663.5
-8663.51
-8663.51
-8663.52
-8663.53
-8663.53
-8663.54
-8663.55
-8663.55
-8663.56
-8663.57
-8663.57
-8663.58
-8663.58
-8663.58
-8663.59
-8663.59
-8663.59
-8663.6
-8663.6
-8663.6
-8663.6
-8663.61
-8663.61
-8663.61
-8663.61
-8663.61
-8663.61
-8663.61
-8663.61
-8663.61
-8663.61
-8663.61
-8663.61
-8663.61
-8663.61
-8663.61
-8663.61
-8663.61
-8663.61
-8663.61
-8663.61
-8663.6
-8663.6
-8663.6
-8663.6
-8663.6
-8663.6
-8663.6
-8663.6
-8663.6
-8663.59
-8663.59
-8663.59
-8663.59
-8663.59
-8663.59
-8663.59
-8663.59
-8663.59
-8663.59
-8663.59
-8663.59
-8663.59
-8663.59
-8663.59
-8663.59
-8663.59
-8896.84
-8896.84
-8896.85
-8896.85
-8896.86
-8896.87
-8896.88
-8896.89
-8901.91
-8901.89
-8901.86
-8901.82
-8901.78
-8901.73
-8901.68
-8901.62
-8901.57
-8901.52
-8901.47
-8901.43
-8901.4
-8901.37
-8901.35
-8901.34
-8901.34
-8901.35
-8901.37
-8901.4
-8901.45
-8901.5
-8901.56
-8901.64
-8901.72
-8901.81
-8901.91
-8902.02
-8902.13
-8902.25
-8902.38
-8902.5
-8902.63
-8902.76
-8902.89
-8903.01
-8903.14
-8903.25
-8903.36
-8903.47
-8903.56
-8903.65
-8903.72
-8903.79
-8903.85
-8903.89
-8903.93
-8903.96
-8903.97
-8903.98
-8903.98
-8903.98
-8903.96
-8903.94
-8903.92
-8903.89
-8903.85
-8903.81
-8903.78
-8903.74
-8903.69
-8903.65
-8903.61
-8903.57
-8903.53
-8903.49
-8903.45
-8903.41
-8903.38
-8903.34
-8903.31
-8903.28
-8903.26
-8903.23
-8903.21
-8903.19
-8903.17
-8903.15
-8903.14
-8903.13
-8903.12
-8903.11
-8903.1
-8903.09
-8903.09
-8903.09
-8903.08
-8903.08
-8903.08
-8903.08
-8903.09
-8903.09
-8903.09
-8903.1
-8903.1
-8903.11
-8903.12
-8903.12
-8903.13
-8903.14
-8903.14
-8903.15
-8903.16
-8903.17
-8903.17
-8903.18
-8903.19
-8903.2
-8903.2
-8903.21
-8903.22
-8903.22
-8903.23
-8903.24
-8903.24
-8903.25
-8903.25
-8903.26
-8903.26
-8903.27
-8903.27
-8903.28
-8903.28
-8903.28
-8903.28
-8903.29
-8903.29
-8903.29
-8903.29
-8903.29
-8903.29
-8903.29
-8903.3
-8903.3
-8903.3
-8903.3
-8903.3
-8903.3
-8903.29
-8903.29
-8903.29
-8903.29
-8903.29
-8903.29
-8903.29
-8903.29
-8903.29
-8903.29
-8903.29
-8903.29
-8903.28
-8903.28
-8903.28
-8903.28
-8903.28
-8903.28
-8903.28
-8903.28
-8903.27
-8903.27
-8903.27
-8903.27
-8903.27
-8903.27
-8903.27
-8903.27
-8903.27
-8903.27
-8903.27
-8903.27
-8903.27
-8903.27
-8903.27
-9108.23
-9108.23
-9108.23
-9108.23
-9108.24
-9108.24
-9108.25
-9108.25
-9113.95
-9113.94
-9113.91
-9113.88
-9113.84
-9113.8
-9113.75
-9113.7
-9113.66
-9113.61
-9113.57
-9113.53
-9113.5
-9113.48
-9113.47
-9113.46
-9113.47
-9113.49
-9113.52
-9113.55
-9113.61
-9113.67
-9113.74
-9113.82
-9113.92
-9114.02
-9114.13
-9114.25
-9114.38
-9114.51
-9114.65
-9114.79
-9114.93
-9115.07
-9115.21
-9115.34
-9115.48
-9115.6
-9115.72
-9115.83
-9115.93
-9116.02
-9116.11
-9116.18
-9116.23
-9116.28
-9116.32
-9116.34
-9116.36
-9116.36
-9116.36
-9116.35
-9116.33
-9116.31
-9116.28
-9116.25
-9116.21
-9116.17
-9116.12
-9116.08
-9116.04
-9115.99
-9115.95
-9115.9
-9115.86
-9115.82
-9115.78
-9115.74
-9115.7
-9115.67
-9115.63
-9115.6
-9115.58
-9115.55
-9115.53
-9115.51
-9115.49
-9115.47
-9115.46
-9115.45
-9115.43
-9115.43
-9115.42
-9115.41
-9115.41
-9115.41
-9115.4
-9115.4
-9115.4
-9115.41
-9115.41
-9115.41
-9115.42
-9115.42
-9115.43
-9115.43
-9115.44
-9115.45
-9115.45
-9115.46
-9115.47
-9115.48
-9115.49
-9115.49
-9115.5
-9115.51
-9115.52
-9115.52
-9115.53
-9115.54
-9115.55
-9115.55
-9115.56
-9115.57
-9115.57
-9115.58
-9115.58
-9115.59
-9115.59
-9115.6
-9115.6
-9115.6
-9115.61
-9115.61
-9115.61
-9115.61
-9115.62
-9115.62
-9115.62
-9115.62
-9115.62
-9115.62
-9115.62
-9115.62
-9115.62
-9115.62
-9115.62
-9115.62
-9115.62
-9115.62
-9115.62
-9115.62
-9115.62
-9115.62
-9115.62
-9115.62
-9115.62
-9115.61
-9115.61
-9115.61
-9115.61
-9115.61
-9115.61
-9115.61
-9115.61
-9115.61
-9115.6
-9115.6
-9115.6
-9115.6
-9115.6
-9115.6
-9115.6
-9115.6
-9115.6
-9115.6
-9115.6
-9115.6
-9115.6
-9115.6
-9115.6
-9115.6
-9115.6
-9295.48
-9295.48
-9295.48
-9295.49
-9295.49
-9295.49
-9295.49
-9295.5
-9301.8
-9301.79
-9301.77
-9301.74
-9301.71
-9301.67
-9301.62
-9301.58
-9301.53
-9301.49
-9301.45
-9301.42
-9301.39
-9301.38
-9301.37
-9301.37
-9301.38
-9301.4
-9301.43
-9301.48
-9301.54
-9301.61
-9301.69
-9301.78
-9301.89
-9302
-9302.12
-9302.26
-9302.39
-9302.54
-9302.69
-9302.84
-9302.99
-9303.14
-9303.29
-9303.44
-9303.58
-9303.72
-9303.85
-9303.96
-9304.07
-9304.17
-9304.25
-9304.32
-9304.38
-9304.43
-9304.47
-9304.49
-9304.51
-9304.51
-9304.5
-9304.49
-9304.47
-9304.44
-9304.41
-9304.37
-9304.33
-9304.28
-9304.24
-9304.19
-9304.14
-9304.09
-9304.04
-9304
-9303.95
-9303.91
-9303.87
-9303.83
-9303.79
-9303.75
-9303.72
-9303.69
-9303.66
-9303.64
-9303.61
-9303.59
-9303.57
-9303.56
-9303.54
-9303.53
-9303.52
-9303.51
-9303.5
-9303.5
-9303.49
-9303.49
-9303.49
-9303.49
-9303.49
-9303.49
-9303.5
-9303.5
-9303.5
-9303.51
-9303.52
-9303.52
-9303.53
-9303.54
-9303.54
-9303.55
-9303.56
-9303.57
-9303.58
-9303.58
-9303.59
-9303.6
-9303.61
-9303.62
-9303.62
-9303.63
-9303.64
-9303.65
-9303.65
-9303.66
-9303.66
-9303.67
-9303.68
-9303.68
-9303.69
-9303.69
-9303.69
-9303.7
-9303.7
-9303.7
-9303.71
-9303.71
-9303.71
-9303.71
-9303.71
-9303.71
-9303.72
-9303.72
-9303.72
-9303.72
-9303.72
-9303.72
-9303.72
-9303.72
-9303.72
-9303.71
-9303.71
-9303.71
-9303.71
-9303.71
-9303.71
-9303.71
-9303.71
-9303.71
-9303.71
-9303.7
-9303.7
-9303.7
-9303.7
-9303.7
-9303.7
-9303.7
-9303.7
-9303.7
-9303.69
-9303.69
-9303.69
-9303.69
-9303.69
-9303.69
-9303.69
-9303.69
-9303.69
-9303.69
-9303.69
-9303.69
-9303.69
-9303.69
-9303.69
-9461.36
-9461.36
-9461.36
-9461.36
-9461.37
-9461.37
-9461.37
-9461.37
-9468.22
-9468.21
-9468.19
-9468.16
-9468.13
-9468.09
-9468.05