/*--------------------------------*- C++ -*----------------------------------*\
  =========                 |
  \\      /  F ield         | OpenFOAM: The Open Source CFD Toolbox
   \\    /   O peration     | Website:  https://openfoam.org
    \\  /    A nd           | Version:  12
     \\/     M anipulation  |
\*---------------------------------------------------------------------------*/
FoamFile
{
    format      ascii;
    class       surfaceScalarField;
    location    "2";
    object      phi;
}
// * * * * * * * * * * * * * * * * * * * * * * * * * * * * * * * * * * * * * //

dimensions      [1 0 -1 0 0 0 0];

internalField   nonuniform List<scalar> 
7429
(
0.000101822
-0.000101822
0.000204833
-0.000103011
0.000308766
-0.000103933
0.000413481
-0.000104716
0.000518837
-0.000105355
0.000624682
-0.000105845
0.000730848
-0.000106166
0.000837171
-0.000106323
0.000943486
-0.000106315
0.00104961
-0.000106127
0.00115534
-0.000105731
0.0012605
-0.000105159
0.00136489
-0.000104385
0.00146829
-0.000103406
0.00157051
-0.000102211
0.00167128
-0.000100774
0.00177037
-9.90882e-05
0.0018675
-9.71287e-05
0.00196238
-9.4888e-05
0.00205476
-9.23762e-05
0.00214434
-8.95838e-05
0.00223087
-8.65225e-05
0.00231407
-8.32056e-05
0.00239371
-7.96336e-05
0.00246953
-7.58276e-05
0.00254133
-7.17961e-05
0.00260888
-6.75521e-05
0.00267198
-6.31007e-05
0.00273047
-5.84838e-05
0.00278413
-5.36591e-05
0.00283284
-4.8714e-05
0.00287644
-4.35956e-05
0.00291474
-3.83028e-05
0.00294753
-3.27925e-05
0.00297464
-2.71122e-05
0.00299616
-2.1521e-05
0.00301222
-1.60554e-05
0.00302285
-1.06279e-05
0.00302807
-5.21828e-06
0.00302748
5.83191e-07
0.0030205
6.9837e-06
0.0030073
1.31965e-05
0.00298792
1.93821e-05
0.00296235
2.55716e-05
0.0029306
3.1752e-05
0.00289269
3.79075e-05
0.00284866
4.40275e-05
0.00279858
5.00836e-05
0.00274251
5.60636e-05
0.00268058
6.19311e-05
0.00261291
6.76747e-05
0.00253966
7.32532e-05
0.00246101
7.86465e-05
0.00237717
8.38344e-05
0.0022884
8.87724e-05
0.00219494
9.34582e-05
0.00209715
9.7795e-05
0.0019953
0.000101852
0.00188983
0.000105467
0.0017811
0.000108726
0.00166961
0.000111492
0.00155582
0.000113793
0.00144025
0.000115572
0.00132349
0.00011676
0.00120606
0.000117421
0.00108859
0.000117473
0.000971633
0.000116958
0.000855819
0.000115814
0.000741778
0.000114042
0.000630081
0.000111697
0.000521288
0.000108793
0.000416085
0.000105203
0.000314991
0.000101093
0.000218497
9.64943e-05
0.000127054
9.14431e-05
4.1158e-05
8.58957e-05
-3.88799e-05
8.00379e-05
-0.000112622
7.37424e-05
-0.000179833
6.72109e-05
-0.000240199
6.03661e-05
-0.000293605
5.34056e-05
-0.000339956
4.63507e-05
-0.000379146
3.91904e-05
-0.000411218
3.20723e-05
-0.000436262
2.50436e-05
-0.000454411
1.81488e-05
-0.000465912
1.15012e-05
-0.000470931
5.0186e-06
-0.000469892
-1.03833e-06
-0.000463067
-6.8255e-06
-0.000450818
-1.22488e-05
-0.000433549
-1.72686e-05
-0.000411699
-2.18508e-05
-0.000385716
-2.5983e-05
-0.00035608
-2.9636e-05
-0.00032328
-3.28001e-05
-0.000287797
-3.54825e-05
-0.000250139
-3.76584e-05
-0.000210762
-3.93769e-05
-0.000170159
-4.06026e-05
-0.000128787
-4.13725e-05
-8.70763e-05
-4.17104e-05
-4.54581e-05
-4.16183e-05
-4.31404e-06
-4.1144e-05
3.59967e-05
-4.03108e-05
7.51217e-05
-3.9125e-05
0.000112763
-3.76416e-05
0.000148657
-3.58938e-05
0.000182544
-3.38871e-05
0.000214223
-3.16785e-05
0.000243521
-2.92985e-05
0.000270285
-2.67637e-05
0.00029442
-2.41347e-05
0.000315818
-2.13986e-05
0.000334416
-1.85979e-05
0.000350223
-1.58075e-05
0.000363225
-1.30019e-05
0.000373412
-1.01864e-05
0.000380878
-7.46629e-06
0.000385635
-4.75659e-06
0.000387817
-2.18244e-06
0.000387546
2.71166e-07
0.000384932
2.61381e-06
0.000380072
4.85964e-06
0.000373118
6.95429e-06
0.000364191
8.92681e-06
0.000353468
1.07233e-05
0.000341101
1.23672e-05
0.00032725
1.38507e-05
0.000312074
1.51763e-05
0.000295743
1.63309e-05
0.000278423
1.73196e-05
0.000260274
1.8149e-05
0.000241464
1.88108e-05
0.000222114
1.93491e-05
0.000202414
1.97008e-05
0.000182472
1.99415e-05
0.000162462
2.00102e-05
0.000142487
1.99747e-05
0.000122664
1.98231e-05
0.000103135
1.9529e-05
8.39998e-05
1.91353e-05
6.53475e-05
1.86523e-05
4.7272e-05
1.80755e-05
2.98506e-05
1.74214e-05
1.31659e-05
1.66847e-05
-2.7389e-06
1.59048e-05
-1.78111e-05
1.50722e-05
-3.19966e-05
1.41855e-05
-4.52629e-05
1.32663e-05
-5.75833e-05
1.23205e-05
-6.89368e-05
1.13535e-05
-7.93099e-05
1.03731e-05
-8.86992e-05
9.38927e-06
-9.71073e-05
8.40818e-06
-0.000104537
7.4294e-06
-0.000111013
6.47579e-06
-0.000116546
5.53308e-06
-0.000121168
4.62215e-06
-0.000124908
3.74035e-06
-0.000127799
2.89087e-06
-0.00012988
2.08138e-06
-0.000131194
1.31325e-06
-0.000131782
5.88596e-07
-0.000131702
-7.98566e-08
-0.000130997
-7.0539e-07
-0.00012971
-1.28653e-06
-0.000127891
-1.81979e-06
-0.000125585
-2.30544e-06
-0.000122842
-2.74308e-06
-0.00011971
-3.13259e-06
-0.000116236
-3.47389e-06
-0.000112468
-3.76744e-06
-0.000108455
-4.0128e-06
-0.000104243
-4.21211e-06
-9.9878e-05
-4.3653e-06
-9.54013e-05
-4.47667e-06
-9.08526e-05
-4.54877e-06
-8.62663e-05
-4.58629e-06
-8.16732e-05
-4.59307e-06
-7.7096e-05
-4.57722e-06
-7.2553e-05
-4.54295e-06
-6.80562e-05
-4.49682e-06
-6.36115e-05
-4.44476e-06
-5.92206e-05
-4.39088e-06
-5.48824e-05
-4.33816e-06
-5.05942e-05
-4.28819e-06
-4.63535e-05
-4.24075e-06
-4.21596e-05
-4.19389e-06
-3.80161e-05
-4.14349e-06
-3.39284e-05
-4.08771e-06
-2.99039e-05
-4.02449e-06
-2.59511e-05
-3.9528e-06
-2.20744e-05
-3.87665e-06
-1.82727e-05
-3.80177e-06
-1.45409e-05
-3.73174e-06
-1.08667e-05
-3.67418e-06
-7.2339e-06
-3.63284e-06
-3.62086e-06
-3.61304e-06
-3.62086e-06
0.000101655
-0.000203476
0.000204444
-0.0002058
0.000308103
-0.000207592
0.000412453
-0.000209066
0.000517306
-0.000210208
0.000622483
-0.000211022
0.000727802
-0.000211485
0.000833053
-0.000211574
0.000938022
-0.000211284
0.00104258
-0.000210682
0.00114644
-0.000209597
0.00124949
-0.000208206
0.0013515
-0.000206398
0.0014522
-0.000204101
0.00155142
-0.000201436
0.00164878
-0.000198128
0.00174401
-0.00019432
0.00183676
-0.000189883
0.00192682
-0.000184949
0.00201387
-0.000179422
0.00209771
-0.000173426
0.00217811
-0.000166923
0.00225487
-0.000159965
0.0023278
-0.000152555
0.00239671
-0.000144739
0.00246146
-0.00013655
0.00252187
-0.000127959
0.00257782
-0.000119051
0.0026292
-0.000109867
0.00267588
-0.000100337
0.0027177
-9.05336e-05
0.00275461
-8.05053e-05
0.00278645
-7.01386e-05
0.00281302
-5.93722e-05
0.00283436
-4.84432e-05
0.00285075
-3.79146e-05
0.00286224
-2.75471e-05
0.00286884
-1.72283e-05
0.0028705
-6.87822e-06
0.00286602
5.06728e-06
0.00285588
1.71236e-05
0.00284
2.90695e-05
0.00281836
4.10225e-05
0.00279093
5.30052e-05
0.00275768
6.49981e-05
0.00271862
7.69677e-05
0.00267376
8.88902e-05
0.00262313
0.000100718
0.00256678
0.000112413
0.00250478
0.000123924
0.00243726
0.000135198
0.00236433
0.00014618
0.00228614
0.000156835
0.00220292
0.000167058
0.00211487
0.000176827
0.00202225
0.000186077
0.00192544
0.000194602
0.00182471
0.000202579
0.00172057
0.000209612
0.00161334
0.000215953
0.00150355
0.00022128
0.00139174
0.000225602
0.00127847
0.000228851
0.00116428
0.00023095
0.00104975
0.000231945
0.000935522
0.000231703
0.000822151
0.00023033
0.000710345
0.000227619
0.00060069
0.000223697
0.000493846
0.00021854
0.000390343
0.000212297
0.000290778
0.000204768
0.000195713
0.000196159
0.000105537
0.00018667
2.076e-05
0.00017622
-5.82258e-05
0.000164882
-0.000130995
0.000152807
-0.000197239
0.000139986
-0.000256798
0.00012677
-0.000309506
0.000113074
-0.000355254
9.9154e-05
-0.000393844
8.49403e-05
-0.000425493
7.08391e-05
-0.000450164
5.6744e-05
-0.00046814
4.30195e-05
-0.000479572
2.95805e-05
-0.00048463
1.65597e-05
-0.000483767
4.15551e-06
-0.000477232
-7.57412e-06
-0.000465411
-1.86464e-05
-0.000448707
-2.89521e-05
-0.000427559
-3.84169e-05
-0.000402414
-4.69957e-05
-0.00037373
-5.46672e-05
-0.000341993
-6.1373e-05
-0.000307682
-6.7111e-05
-0.000271265
-7.19e-05
-0.000233221
-7.57019e-05
-0.000193975
-7.86228e-05
-0.000153989
-8.0589e-05
-0.000113689
-8.16727e-05
-7.34564e-05
-8.19428e-05
-3.36656e-05
-8.1409e-05
5.33265e-06
-8.01423e-05
4.32218e-05
-7.81999e-05
7.97253e-05
-7.56286e-05
0.000114592
-7.25087e-05
0.000147575
-6.88758e-05
0.000178479
-6.47913e-05
0.000207165
-6.03644e-05
0.000233474
-5.56082e-05
0.000257299
-5.05882e-05
0.000278603
-4.54387e-05
0.000297308
-4.01037e-05
0.000313362
-3.46515e-05
0.000326806
-2.92518e-05
0.000337649
-2.38453e-05
0.00034591
-1.84469e-05
0.000351676
-1.32323e-05
0.000355004
-8.08425e-06
0.000355991
-3.16991e-06
0.000354794
1.46807e-06
0.000351483
5.92467e-06
0.000346184
1.01585e-05
0.000339032
1.41068e-05
0.000330171
1.77873e-05
0.000319714
2.11811e-05
0.000307836
2.42446e-05
0.000294683
2.70042e-05
0.000280401
2.94583e-05
0.000265148
3.15841e-05
0.000249073
3.33942e-05
0.00023231
3.49116e-05
0.000214983
3.61376e-05
0.000197268
3.70645e-05
0.000179277
3.76916e-05
0.00016116
3.80593e-05
0.000142995
3.81752e-05
0.000124927
3.80421e-05
0.000107072
3.76786e-05
8.94909e-05
3.71098e-05
7.2286e-05
3.63402e-05
5.55615e-05
3.53767e-05
3.9396e-05
3.4241e-05
2.38544e-05
3.2963e-05
8.95912e-06
3.15799e-05
-5.19783e-06
3.00618e-05
-1.85826e-05
2.84569e-05
-3.11534e-05
2.67563e-05
-4.28894e-05
2.50023e-05
-5.37614e-05
2.31924e-05
-6.37568e-05
2.13489e-05
-7.28664e-05
1.94827e-05
-8.10912e-05
1.76141e-05
-8.84368e-05
1.57538e-05
-9.49105e-05
1.39032e-05
-0.000100524
1.20895e-05
-0.000105303
1.03117e-05
-0.000109268
8.58734e-06
-0.000112447
6.91945e-06
-0.000114872
5.31532e-06
-0.000116579
3.78877e-06
-0.000117608
2.3427e-06
-0.000118002
9.82204e-07
-0.000117805
-2.76601e-07
-0.000117057
-1.45344e-06
-0.0001158
-2.54365e-06
-0.000114077
-3.54328e-06
-0.000111929
-4.4534e-06
-0.000109398
-5.27333e-06
-0.000106528
-6.00278e-06
-0.000103361
-6.64137e-06
-9.99386e-05
-7.18969e-06
-9.63048e-05
-7.64658e-06
-9.25011e-05
-8.01583e-06
-8.85691e-05
-8.29724e-06
-8.45468e-05
-8.49904e-06
-8.04693e-05
-8.6262e-06
-7.63679e-05
-8.68769e-06
-7.22699e-05
-8.69111e-06
-6.8195e-05
-8.65212e-06
-6.41589e-05
-8.579e-06
-6.01711e-05
-8.48468e-06
-5.62349e-05
-8.38098e-06
-5.23499e-05
-8.27589e-06
-4.8513e-05
-8.17507e-06
-4.47196e-05
-8.08158e-06
-4.09659e-05
-7.99444e-06
-3.72503e-05
-7.90949e-06
-3.35765e-05
-7.81731e-06
-2.99505e-05
-7.71367e-06
-2.63813e-05
-7.59366e-06
-2.28787e-05
-7.45545e-06
-1.9448e-05
-7.30733e-06
-1.60886e-05
-7.1612e-06
-1.27956e-05
-7.02472e-06
-9.55741e-06
-6.91237e-06
-6.35866e-06
-6.83159e-06
-3.18186e-06
-6.78984e-06
-6.80273e-06
0.00011032
-0.000313796
0.000221737
-0.000317217
0.000333908
-0.000319762
0.000446548
-0.000321706
0.000559434
-0.000323093
0.000672234
-0.000323822
0.000784711
-0.000323962
0.000896592
-0.000323454
0.00100762
-0.000322314
0.00111753
-0.000320589
0.00122615
-0.000318219
0.0013332
-0.000315254
0.00143853
-0.000311726
0.00154193
-0.000307501
0.00164299
-0.000302497
0.00174141
-0.000296544
0.00183675
-0.00028966
0.00192872
-0.000281858
0.00201699
-0.000273223
0.00210138
-0.000263809
0.00218163
-0.000253673
0.00225759
-0.000242884
0.00232912
-0.000231491
0.00239608
-0.000219515
0.00245838
-0.000207042
0.00251586
-0.000194027
0.00256852
-0.000180621
0.00261631
-0.000166845
0.00265921
-0.000152765
0.00269724
-0.000138368
0.00273044
-0.00012373
0.00275864
-0.000108707
0.00278176
-9.32633e-05
0.00280022
-7.78273e-05
0.00281471
-6.29315e-05
0.00282504
-4.82427e-05
0.00283104
-3.35474e-05
0.00283262
-1.88162e-05
0.00282985
-4.10548e-06
0.00282025
1.46715e-05
0.00280532
3.20525e-05
0.00278497
4.9417e-05
0.00275913
6.68608e-05
0.00272773
8.44096e-05
0.00269068
0.000102044
0.00264794
0.000119708
0.00259944
0.000137393
0.00254516
0.000154992
0.00248508
0.000172495
0.00241927
0.000189737
0.00234771
0.000206757
0.00227059
0.000223299
0.00218802
0.000239409
0.00210013
0.00025495
0.00200725
0.000269707
0.00190956
0.000283768
0.00180757
0.000296592
0.00170157
0.000308571
0.00159214
0.000319048
0.00147968
0.000328407
0.00136487
0.000336094
0.00124821
0.000342263
0.00113036
0.000346699
0.00101199
0.000349323
0.000893783
0.00035015
0.000776429
0.000349056
0.00066076
0.000345999
0.000547332
0.000341047
0.000436789
0.000334239
0.000330018
0.000325311
0.000227367
0.000314948
0.000129656
0.000302478
3.7257e-05
0.000288558
-4.94055e-05
0.000273332
-0.000129667
0.000256482
-0.000203144
0.000238358
-0.000269831
0.000219494
-0.000329244
0.000199399
-0.000381233
0.00017876
-0.000425757
0.000157598
-0.000462963
0.00013636
-0.000492762
0.000114739
-0.000515278
9.33555e-05
-0.000530755
7.2221e-05
-0.000539344
5.1609e-05
-0.000541424
3.16599e-05
-0.000537543
1.26784e-05
-0.000528066
-5.32102e-06
-0.000513277
-2.23634e-05
-0.000493632
-3.82913e-05
-0.000469617
-5.29674e-05
-0.000441712
-6.63219e-05
-0.000410439
-7.82682e-05
-0.000376291
-8.88154e-05
-0.000339778
-9.78858e-05
-0.000301389
-0.0001055
-0.000261593
-0.000111697
-0.000220855
-0.000116439
-0.000179609
-0.000119869
-0.000138273
-0.000121925
-9.72487e-05
-0.000122697
-5.68557e-05
-0.000122336
-1.74496e-05
-0.000120815
2.07295e-05
-0.000118321
5.73769e-05
-0.000114847
9.22355e-05
-0.000110487
0.000125149
-0.000105422
0.000155932
-9.96592e-05
0.000184441
-9.33001e-05
0.000210571
-8.64942e-05
0.000234266
-7.93035e-05
0.000255451
-7.1773e-05
0.000274032
-6.40203e-05
0.000290037
-5.61086e-05
0.000303571
-4.81849e-05
0.000314485
-4.01664e-05
0.000322984
-3.2344e-05
0.000329104
-2.45667e-05
0.000332828
-1.69565e-05
0.000334406
-9.66212e-06
0.00033382
-2.58401e-06
0.000331284
4.00431e-06
0.00032684
1.03682e-05
0.000320643
1.63555e-05
0.000312801
2.19492e-05
0.000303477
2.71109e-05
0.000292812
3.18461e-05
0.000280942
3.61143e-05
0.000267986
3.99605e-05
0.0002541
4.33439e-05
0.00023942
4.62649e-05
0.000224056
4.87579e-05
0.000208186
5.0782e-05
0.000191917
5.24062e-05
0.000175359
5.36221e-05
0.000158643
5.4408e-05
0.000141875
5.48269e-05
0.000125186
5.48648e-05
0.000108626
5.46013e-05
9.23134e-05
5.39915e-05
7.63618e-05
5.30614e-05
6.08123e-05
5.18898e-05
4.57207e-05
5.04683e-05
3.11662e-05
4.87955e-05
1.71981e-05
4.69311e-05
3.87527e-06
4.49028e-05
-8.75458e-06
4.26916e-05
-2.06496e-05
4.03519e-05
-3.17853e-05
3.78921e-05
-4.21389e-05
3.53559e-05
-5.16996e-05
3.27531e-05
-6.04585e-05
3.01077e-05
-6.84118e-05
2.7436e-05
-7.556e-05
2.47622e-05
-8.19115e-05
2.21053e-05
-8.74732e-05
1.94649e-05
-9.22715e-05
1.68878e-05
-9.63131e-05
1.43533e-05
-9.96298e-05
1.1904e-05
-0.000102246
9.53583e-06
-0.000104193
7.26185e-06
-0.000105504
5.10017e-06
-0.000106217
3.05532e-06
-0.00010637
1.13558e-06
-0.000106008
-6.38635e-07
-0.000105165
-2.29657e-06
-0.00010388
-3.8291e-06
-0.00010219
-5.23303e-06
-0.000100132
-6.51078e-06
-9.7744e-05
-7.66167e-06
-9.50618e-05
-8.68505e-06
-9.21232e-05
-9.57995e-06
-8.89663e-05
-1.03466e-05
-8.56304e-05
-1.09825e-05
-8.21537e-05
-1.14925e-05
-7.85746e-05
-1.18764e-05
-7.49278e-05
-1.21459e-05
-7.12455e-05
-1.23085e-05
-6.75559e-05
-1.23772e-05
-6.38835e-05
-1.23636e-05
-6.02455e-05
-1.22901e-05
-5.66549e-05
-1.21696e-05
-5.31181e-05
-1.20214e-05
-4.96355e-05
-1.18635e-05
-4.62034e-05
-1.17081e-05
-4.28157e-05
-1.15628e-05
-3.94648e-05
-1.14324e-05
-3.61451e-05
-1.13141e-05
-3.28531e-05
-1.12015e-05
-2.9593e-05
-1.10774e-05
-2.63725e-05
-1.09342e-05
-2.32035e-05
-1.07627e-05
-2.00982e-05
-1.05607e-05
-1.70642e-05
-1.03414e-05
-1.41011e-05
-1.01243e-05
-1.12032e-05
-9.92258e-06
-8.35968e-06
-9.75593e-06
-5.55565e-06
-9.63563e-06
-2.77803e-06
-9.56746e-06
-9.58076e-06
0.000127637
-0.000441432
0.000256262
-0.000445843
0.000385454
-0.000448954
0.000514741
-0.000450993
0.000643612
-0.000451965
0.000771674
-0.000451884
0.00089845
-0.000450738
0.00102356
-0.000448562
0.00114674
-0.0004455
0.00126793
-0.000441777
0.00138695
-0.000437235
0.00150325
-0.000431555
0.00161605
-0.000424525
0.00172455
-0.000416001
0.00182807
-0.000406018
0.00192638
-0.000394854
0.00201908
-0.000382362
0.00210627
-0.00036905
0.002188
-0.000354947
0.00226437
-0.000340179
0.00233543
-0.000324738
0.00240133
-0.000308782
0.0024622
-0.000292359
0.00251818
-0.000275499
0.00256942
-0.000258284
0.00261601
-0.000240612
0.00265804
-0.00022265
0.0026955
-0.000204302
0.0027285
-0.00018577
0.00275704
-0.000166912
0.00278112
-0.000147801
0.00280062
-0.000128214
0.00281548
-0.000108117
0.00282692
-8.9268e-05
0.00283518
-7.11911e-05
0.00284015
-5.32112e-05
0.00284172
-3.51191e-05
0.00283966
-1.67592e-05
0.00283035
5.20797e-06
0.00281727
2.77455e-05
0.00279922
5.01067e-05
0.00277596
7.26766e-05
0.00274727
9.55461e-05
0.00271298
0.000118707
0.0026729
0.000142117
0.00262688
0.000165733
0.00257481
0.000189459
0.00251653
0.000213269
0.00245205
0.000236983
0.00238119
0.000260592
0.00230416
0.000283792
0.00222088
0.000306579
0.00213162
0.000328669
0.00203646
0.00035011
0.0019358
0.000370357
0.00182995
0.000389622
0.00171939
0.000407156
0.00160466
0.000423297
0.00148625
0.000437458
0.00136486
0.000449802
0.00124119
0.000459764
0.00111593
0.000467523
0.000989892
0.000472734
0.000863944
0.000475272
0.000738944
0.000475151
0.000615669
0.000472331
0.000494644
0.000467024
0.00037697
0.00045872
0.000263331
0.000447879
0.000154565
0.000434077
5.09941e-05
0.000418519
-4.67374e-05
0.00040021
-0.000137779
0.000379599
-0.000221622
0.000357176
-0.000297847
0.000332707
-0.000366422
0.000306933
-0.000426608
0.00027968
-0.000478908
0.000251699
-0.000522905
0.000222757
-0.000558677
0.00019337
-0.000586472
0.000164155
-0.000606516
0.000134783
-0.000618978
0.000105818
-0.000623967
7.72103e-05
-0.000622074
4.97162e-05
-0.00061373
2.33152e-05
-0.000599736
-1.3156e-06
-0.000580316
-2.47404e-05
-0.00055596
-4.67196e-05
-0.000527249
-6.70025e-05
-0.000494785
-8.54316e-05
-0.000459077
-0.00010203
-0.000420707
-0.000116638
-0.000380237
-0.000129286
-0.000338165
-0.000139958
-0.000294947
-0.000148718
-0.000251098
-0.000155546
-0.000207095
-0.000160442
-0.000163327
-0.000163637
-0.000120186
-0.000165066
-7.80056e-05
-0.000164878
-3.71005e-05
-0.000163241
2.25888e-06
-0.000160175
3.98555e-05
-0.000155918
7.54517e-05
-0.000150444
0.000108933
-0.000143969
0.000140051
-0.00013654
0.00016875
-0.000128359
0.000194958
-0.000119508
0.000218656
-0.000110193
0.000239788
-0.000100435
0.000258309
-9.02944e-05
0.000274216
-7.99277e-05
0.000287665
-6.95569e-05
0.000298521
-5.90409e-05
0.000307067
-4.87128e-05
0.000313205
-3.8482e-05
0.000317055
-2.84167e-05
0.000318843
-1.87449e-05
0.000318447
-9.26544e-06
0.000316304
-4.41421e-07
0.000312288
8.02091e-06
0.000306602
1.60542e-05
0.000299364
2.35936e-05
0.000290731
3.05815e-05
0.000280822
3.70196e-05
0.000269765
4.29039e-05
0.000257692
4.81869e-05
0.000244752
5.29006e-05
0.000231067
5.70284e-05
0.000216774
6.05582e-05
0.000202004
6.35284e-05
0.000186809
6.59763e-05
0.000171366
6.78496e-05
0.000155781
6.92067e-05
0.000140123
7.00663e-05
0.000124515
7.04346e-05
0.000109025
7.03555e-05
9.37661e-05
6.98599e-05
7.88198e-05
6.89379e-05
6.42043e-05
6.76769e-05
5.00346e-05
6.60595e-05
3.63527e-05
6.41502e-05
2.32117e-05
6.19365e-05
1.06736e-05
5.94693e-05
-1.22607e-06
5.68024e-05
-1.24785e-05
5.39441e-05
-2.3031e-05
5.09043e-05
-3.28879e-05
4.7749e-05
-4.20013e-05
4.44693e-05
-5.03818e-05
4.11336e-05
-5.80235e-05
3.77494e-05
-6.49271e-05
3.43397e-05
-7.10967e-05
3.09319e-05
-7.65427e-05
2.75512e-05
-8.12783e-05
2.42005e-05
-8.53242e-05
2.09336e-05
-8.86975e-05
1.77266e-05
-9.14123e-05
1.46189e-05
-9.35029e-05
1.16264e-05
-9.49982e-05
8.75713e-06
-9.59312e-05
6.03316e-06
-9.63368e-05
3.46098e-06
-9.6253e-05
1.05176e-06
-9.57222e-05
-1.16945e-06
-9.47747e-05
-3.24407e-06
-9.34458e-05
-5.15799e-06
-9.17693e-05
-6.9095e-06
-8.97766e-05
-8.50353e-06
-8.7499e-05
-9.93928e-06
-8.49684e-05
-1.12156e-05
-8.22178e-05
-1.23305e-05
-7.92815e-05
-1.3283e-05
-7.61954e-05
-1.40685e-05
-7.29955e-05
-1.46924e-05
-6.97174e-05
-1.51544e-05
-6.63936e-05
-1.54697e-05
-6.30534e-05
-1.56488e-05
-5.97227e-05
-1.57079e-05
-5.64234e-05
-1.56628e-05
-5.31709e-05
-1.55426e-05
-4.99756e-05
-1.53649e-05
-4.6841e-05
-1.51561e-05
-4.3764e-05
-1.49405e-05
-4.07372e-05
-1.47348e-05
-3.77518e-05
-1.45482e-05
-3.47962e-05
-1.43881e-05
-3.1863e-05
-1.42472e-05
-2.89458e-05
-1.41187e-05
-2.60498e-05
-1.39734e-05
-2.31844e-05
-1.37996e-05
-2.03662e-05
-1.35808e-05
-1.76109e-05
-1.33161e-05
-1.49285e-05
-1.30238e-05
-1.23188e-05
-1.2734e-05
-9.77326e-06
-1.24681e-05
-7.28219e-06
-1.2247e-05
-4.83213e-06
-1.20857e-05
-2.41239e-06
-1.19872e-05
-1.19931e-05
0.000154964
-0.000596396
0.000310589
-0.000601467
0.000466167
-0.000604532
0.000620813
-0.000605639
0.000773577
-0.000604728
0.000923615
-0.000601922
0.00107016
-0.000597287
0.00121256
-0.000590959
0.00135044
-0.000583383
0.00148351
-0.000574841
0.00161196
-0.00056569
0.00173523
-0.000554817
0.00185215
-0.000541454
0.00196213
-0.000525978
0.00206492
-0.000508805
0.00216044
-0.000490372
0.00224895
-0.000470873
0.00233053
-0.000450633
0.00240528
-0.000429695
0.00247338
-0.000408283
0.00253512
-0.000386468
0.00259067
-0.000364333
0.00264023
-0.000341919
0.00268402
-0.000319293
0.00272217
-0.000296429
0.00275479
-0.000273235
0.002782
-0.000249862
0.0028037
-0.000226005
0.00281972
-0.000201788
0.00283037
-0.000177557
0.00283791
-0.000155345
0.00284406
-0.00013436
0.00285003
-0.000114086
0.00285496
-9.41994e-05
0.00285797
-7.42049e-05
0.00285871
-5.39451e-05
0.00285681
-3.32181e-05
0.00285217
-1.21215e-05
0.00284071
1.6662e-05
0.00282511
4.33531e-05
0.00280498
7.02293e-05
0.00278002
9.76441e-05
0.00274988
0.000125686
0.00271419
0.000154389
0.00267256
0.000183752
0.0026247
0.000213591
0.00257017
0.000243989
0.0025089
0.000274539
0.00244046
0.000305425
0.00236507
0.000335983
0.00228231
0.000366549
0.00219247
0.000396422
0.00209552
0.000425612
0.00199207
0.000453563
0.00188231
0.000480122
0.00176683
0.000505094
0.00164618
0.000527812
0.00152094
0.000548531
0.00139203
0.000566371
0.0012599
0.000581934
0.00112576
0.000593902
0.000990341
0.000602944
0.000854695
0.000608379
0.000719826
0.00061014
0.000586331
0.000608646
0.000455421
0.000603241
0.000328073
0.000594372
0.000205331
0.000581462
8.77445e-05
0.000565465
-2.40325e-05
0.000545854
-0.000128815
0.000523301
-0.00022603
0.000497426
-0.000315212
0.000468781
-0.000395634
0.000437597
-0.000467731
0.000404805
-0.000530319
0.000369521
-0.000583921
0.000333281
-0.000628185
0.000295963
-0.000663373
0.000257945
-0.00068993
0.000219926
-0.000707573
0.000181798
-0.000716867
0.000144076
-0.000718295
0.000107246
-0.000712493
7.14074e-05
-0.000699642
3.68653e-05
-0.000680519
4.1925e-06
-0.000656122
-2.57121e-05
-0.000626528
-5.43349e-05
-0.000592527
-8.07202e-05
-0.000554785
-0.000104745
-0.000513878
-0.000126339
-0.000470495
-0.000145412
-0.000425224
-0.000161909
-0.000378624
-0.000175886
-0.000331243
-0.00018734
-0.000283604
-0.000196356
-0.000236149
-0.000203001
-0.000189316
-0.000207275
-0.000143492
-0.000209461
-9.89128e-05
-0.000209645
-5.5967e-05
-0.000207824
-1.4882e-05
-0.000204326
2.40881e-05
-0.000199145
6.08266e-05
-0.000192656
9.5115e-05
-0.000184732
0.000126877
-0.000175731
0.000156092
-0.000165755
0.000182682
-0.000154948
0.000206545
-0.000143371
0.000227694
-0.000131342
0.000246235
-0.000118976
0.000262115
-0.000106174
0.000275508
-9.33207e-05
0.000286352
-8.04016e-05
0.000294754
-6.74428e-05
0.000300895
-5.48541e-05
0.000304721
-4.23076e-05
0.000306573
-3.0269e-05
0.000306329
-1.85007e-05
0.000304337
-7.27293e-06
0.000300589
3.306e-06
0.000295201
1.34094e-05
0.000288357
2.28985e-05
0.000280169
3.17809e-05
0.000270792
3.99587e-05
0.000260344
4.74679e-05
0.000248953
5.42943e-05
0.00023672
6.04205e-05
0.000223797
6.58232e-05
0.000210314
7.05118e-05
0.000196375
7.44972e-05
0.000182055
7.78486e-05
0.000167514
8.0517e-05
0.000152829
8.25341e-05
0.0001381
8.39362e-05
0.000123398
8.47678e-05
0.000108844
8.49887e-05
9.44825e-05
8.47174e-05
8.03938e-05
8.39485e-05
6.66404e-05
8.26913e-05
5.32865e-05
8.10308e-05
4.03838e-05
7.89622e-05
2.79832e-05
7.65508e-05
1.61324e-05
7.37873e-05
4.88198e-06
7.07197e-05
-5.79465e-06
6.74791e-05
-1.58183e-05
6.39678e-05
-2.51897e-05
6.02757e-05
-3.38817e-05
5.6441e-05
-4.1904e-05
5.24917e-05
-4.92299e-05
4.84594e-05
-5.58669e-05
4.43865e-05
-6.18322e-05
4.03049e-05
-6.7125e-05
3.62247e-05
-7.17618e-05
3.21881e-05
-7.5773e-05
2.82117e-05
-7.91445e-05
2.43051e-05
-8.19222e-05
2.05043e-05
-8.41088e-05
1.68054e-05
-8.5728e-05
1.32456e-05
-8.68202e-05
9.84941e-06
-8.74154e-05
6.62836e-06
-8.75462e-05
3.59171e-06
-8.72506e-05
7.56186e-07
-8.65724e-05
-1.84761e-06
-8.55346e-05
-4.28192e-06
-8.41705e-05
-6.52204e-06
-8.25096e-05
-8.57039e-06
-8.0578e-05
-1.04351e-05
-7.84019e-05
-1.21154e-05
-7.60081e-05
-1.36093e-05
-7.34255e-05
-1.49132e-05
-7.06849e-05
-1.60236e-05
-6.78199e-05
-1.69335e-05
-6.48651e-05
-1.76473e-05
-6.18537e-05
-1.81658e-05
-5.88165e-05
-1.85068e-05
-5.57798e-05
-1.86855e-05
-5.2768e-05
-1.87198e-05
-4.98005e-05
-1.86302e-05
-4.68915e-05
-1.84516e-05
-4.40491e-05
-1.82073e-05
-4.12742e-05
-1.79311e-05
-3.85604e-05
-1.76543e-05
-3.58964e-05
-1.73988e-05
-3.32709e-05
-1.71737e-05
-3.06677e-05
-1.69913e-05
-2.80786e-05
-1.68364e-05
-2.54927e-05
-1.67046e-05
-2.29169e-05
-1.65492e-05
-2.03621e-05
-1.63543e-05
-1.78508e-05
-1.60921e-05
-1.54026e-05
-1.57643e-05
-1.30316e-05
-1.53948e-05
-1.07361e-05
-1.50295e-05
-8.50373e-06
-1.47005e-05
-6.32482e-06
-1.44259e-05
-4.18859e-06
-1.42219e-05
-2.08482e-06
-1.4091e-05
-1.4078e-05
0.000198281
-0.000794677
0.000396949
-0.000800135
0.000595145
-0.000802728
0.000791434
-0.000801927
0.000984488
-0.000797782
0.00117301
-0.000790446
0.00135575
-0.000780023
0.00153194
-0.000767153
0.00170041
-0.000751849
0.00185795
-0.000732384
0.00200124
-0.000708976
0.00212872
-0.000682303
0.00224049
-0.000653224
0.00233696
-0.000622448
0.0024194
-0.000591235
0.00248911
-0.000560089
0.00254818
-0.00052994
0.00259802
-0.000500473
0.00263975
-0.000471425
0.00267438
-0.000442911
0.00270313
-0.000415222
0.00272705
-0.000388251
0.00274717
-0.000362044
0.0027644
-0.000336516
0.00277923
-0.000311264
0.00279232
-0.000286328
0.00280329
-0.000260829
0.00280988
-0.000232596
0.00281259
-0.000204493
0.00281435
-0.000179315
0.00281596
-0.000156953
0.00281811
-0.000136519
0.00282117
-0.000117145
0.00282471
-9.77327e-05
0.0028283
-7.77973e-05
0.00283125
-5.68939e-05
0.00283182
-3.37934e-05
0.002827
-7.30112e-06
0.00281982
2.38474e-05
0.00280882
5.43485e-05
0.00279326
8.57926e-05
0.00277259
0.000118315
0.00274609
0.000152182
0.00271323
0.00018725
0.00267362
0.000223365
0.0026265
0.000260714
0.00257179
0.00029869
0.00250864
0.000337699
0.00243751
0.00037655
0.00235753
0.000415966
0.00226948
0.000454601
0.00217304
0.000492859
0.00206872
0.000529929
0.00195672
0.000565564
0.00183755
0.00059929
0.0017118
0.000630845
0.00158048
0.000659136
0.00144422
0.000684785
0.00130401
0.00070658
0.00116081
0.000725134
0.00101549
0.000739227
0.000869604
0.000748829
0.000723825
0.000754159
0.000579256
0.00075471
0.000437355
0.000750547
0.000299252
0.000741344
0.000165655
0.000727969
3.75181e-05
0.000709599
-8.34956e-05
0.000686479
-0.0001967
0.000659058
-0.000301813
0.000628414
-0.000398089
0.000593701
-0.000484367
0.00055506
-0.000561502
0.000514732
-0.000627782
0.000471085
-0.000684006
0.000425745
-0.000729934
0.00037921
-0.000765748
0.000331777
-0.0007919
0.000284096
-0.000808028
0.000236055
-0.000814779
0.000188549
-0.000813092
0.000142389
-0.000803441
9.75954e-05
-0.000786313
5.42792e-05
-0.000762518
1.30705e-05
-0.000733662
-2.4664e-05
-0.00069885
-6.0524e-05
-0.00065957
-9.36144e-05
-0.000616508
-0.000123782
-0.000570436
-0.000150817
-0.000521935
-0.00017484
-0.00047179
-0.000195557
-0.000420611
-0.000213088
-0.000368936
-0.00022756
-0.000317275
-0.000239001
-0.000266177
-0.000247454
-0.000216072
-0.000253105
-0.000167425
-0.000255922
-0.00012024
-0.000256646
-7.50767e-05
-0.000254809
-3.21249e-05
-0.000250775
8.38684e-06
-0.000244838
4.64192e-05
-0.000237177
8.17648e-05
-0.000228002
0.000114408
-0.000217375
0.000144211
-0.000205534
0.000171179
-0.000192723
0.00019536
-0.000179128
0.000216807
-0.000164818
0.00023539
-0.000149925
0.000251351
-0.000134936
0.00026467
-0.000119494
0.000275527
-0.000104177
0.000283907
-8.87825e-05
0.000290077
-7.36125e-05
0.000293956
-5.87333e-05
0.00029585
-4.42013e-05
0.000295749
-3.0168e-05
0.000293787
-1.65387e-05
0.000290261
-3.74717e-06
0.000285155
8.41258e-06
0.000278629
1.99356e-05
0.000270825
3.07019e-05
0.000261885
4.07207e-05
0.000251904
4.99397e-05
0.000241054
5.83187e-05
0.000229433
6.59151e-05
0.000217186
7.26674e-05
0.000204403
7.8606e-05
0.000191166
8.3749e-05
0.000177592
8.80708e-05
0.000163827
9.1614e-05
0.000149926
9.44178e-05
0.000135992
9.64681e-05
0.000122109
9.78194e-05
0.000108356
9.85201e-05
9.47903e-05
9.85548e-05
8.14769e-05
9.80307e-05
6.8482e-05
9.69434e-05
5.58727e-05
9.53006e-05
4.36783e-05
9.32252e-05
3.19524e-05
9.06881e-05
2.07316e-05
8.77716e-05
1.00638e-05
8.44551e-05
-8.49611e-08
8.08685e-05
-9.61973e-06
7.70138e-05
-1.85461e-05
7.28941e-05
-2.6846e-05
6.85757e-05
-3.45142e-05
6.41092e-05
-4.15368e-05
5.95143e-05
-4.79248e-05
5.48474e-05
-5.36837e-05
5.01454e-05
-5.8813e-05
4.54342e-05
-6.33392e-05
4.07509e-05
-6.72776e-05
3.61265e-05
-7.06311e-05
3.15653e-05
-7.34324e-05
2.71064e-05
-7.56818e-05
2.27537e-05
-7.74076e-05
1.85312e-05
-7.8633e-05
1.4471e-05
-7.93777e-05
1.05941e-05
-7.96807e-05
6.93134e-06
-7.95827e-05
3.49371e-06
-7.91238e-05
2.97328e-07
-7.83188e-05
-2.65266e-06
-7.72139e-05
-5.38683e-06
-7.58333e-05
-7.90265e-06
-7.42012e-05
-1.02025e-05
-7.23381e-05
-1.22982e-05
-7.02652e-05
-1.41883e-05
-6.80046e-05
-1.587e-05
-6.55808e-05
-1.7337e-05
-6.30222e-05
-1.85821e-05
-6.03606e-05
-1.95951e-05
-5.763e-05
-2.03779e-05
-5.48613e-05
-2.09345e-05
-5.20845e-05
-2.12835e-05
-4.93221e-05
-2.14479e-05
-4.65973e-05
-2.14446e-05
-4.39276e-05
-2.12999e-05
-4.13266e-05
-2.10527e-05
-3.88007e-05
-2.07332e-05
-3.63481e-05
-2.03837e-05
-3.39594e-05
-2.00429e-05
-3.16197e-05
-1.97385e-05
-2.93158e-05
-1.94776e-05
-2.70265e-05
-1.92806e-05
-2.47436e-05
-1.91193e-05
-2.24509e-05
-1.89973e-05
-2.01565e-05
-1.88436e-05
-1.7873e-05
-1.86378e-05
-1.56298e-05
-1.83354e-05
-1.34513e-05
-1.79427e-05
-1.13565e-05
-1.74896e-05
-9.34107e-06
-1.70449e-05
-7.38685e-06
-1.66547e-05
-5.48276e-06
-1.633e-05
-3.62089e-06
-1.60838e-05
-1.79424e-06
-1.59176e-05
-1.58722e-05
0.000264622
-0.0010593