/*--------------------------------*- C++ -*----------------------------------*\
  =========                 |
  \\      /  F ield         | OpenFOAM: The Open Source CFD Toolbox
   \\    /   O peration     | Website:  https://openfoam.org
    \\  /    A nd           | Version:  12
     \\/     M anipulation  |
\*---------------------------------------------------------------------------*/
FoamFile
{
    format      ascii;
    class       volVectorField;
    location    "2";
    object      U;
}
// * * * * * * * * * * * * * * * * * * * * * * * * * * * * * * * * * * * * * //

dimensions      [0 1 -1 0 0 0 0];

internalField   nonuniform List<vector> 
3829
(
(4.06378e-06 -3.94456e-05 0)
(1.22443e-05 -3.94437e-05 0)
(2.05063e-05 -3.93296e-05 0)
(2.88369e-05 -3.91562e-05 0)
(3.72242e-05 -3.89222e-05 0)
(4.56568e-05 -3.86261e-05 0)
(5.41217e-05 -3.82676e-05 0)
(6.2604e-05 -3.78455e-05 0)
(7.10922e-05 -3.73593e-05 0)
(7.95761e-05 -3.68127e-05 0)
(8.80366e-05 -3.61995e-05 0)
(9.64574e-05 -3.55228e-05 0)
(0.000104824 -3.47851e-05 0)
(0.000113121 -3.39833e-05 0)
(0.00012133 -3.31205e-05 0)
(0.000129435 -3.21978e-05 0)
(0.000137416 -3.12169e-05 0)
(0.000145251 -3.01807e-05 0)
(0.000152918 -2.90924e-05 0)
(0.000160395 -2.7955e-05 0)
(0.000167661 -2.67726e-05 0)
(0.000174693 -2.55487e-05 0)
(0.00018147 -2.42872e-05 0)
(0.000187972 -2.29917e-05 0)
(0.00019418 -2.16655e-05 0)
(0.000200075 -2.03129e-05 0)
(0.00020564 -1.89369e-05 0)
(0.000210857 -1.75412e-05 0)
(0.000215713 -1.61288e-05 0)
(0.000220191 -1.47029e-05 0)
(0.000224279 -1.32662e-05 0)
(0.000227964 -1.18218e-05 0)
(0.000231241 -1.03734e-05 0)
(0.000234081 -8.92354e-06 0)
(0.000236467 -7.47188e-06 0)
(0.000238406 -6.02438e-06 0)
(0.000239914 -4.57983e-06 0)
(0.000240982 -3.13984e-06 0)
(0.000241605 -1.70312e-06 0)
(0.000241792 -2.73256e-07 0)
(0.000241489 1.14366e-06 0)
(0.000240701 2.54559e-06 0)
(0.0002394 3.92773e-06 0)
(0.000237583 5.29407e-06 0)
(0.000235295 6.63756e-06 0)
(0.000232512 7.95501e-06 0)
(0.00022924 9.24258e-06 0)
(0.000225482 1.04962e-05 0)
(0.000221243 1.17116e-05 0)
(0.000216531 1.28839e-05 0)
(0.000211356 1.40083e-05 0)
(0.000205728 1.50794e-05 0)
(0.000199662 1.60875e-05 0)
(0.000193174 1.70355e-05 0)
(0.00018628 1.79136e-05 0)
(0.000179001 1.87153e-05 0)
(0.000171361 1.94352e-05 0)
(0.00016339 2.00692e-05 0)
(0.000155106 2.06096e-05 0)
(0.000146546 2.10496e-05 0)
(0.000137763 2.13955e-05 0)
(0.000128763 2.16323e-05 0)
(0.000119595 2.1766e-05 0)
(0.00011031 2.17907e-05 0)
(0.000100952 2.17033e-05 0)
(9.15749e-05 2.1511e-05 0)
(8.22081e-05 2.11995e-05 0)
(7.29027e-05 2.07935e-05 0)
(6.36792e-05 2.0272e-05 0)
(5.46425e-05 1.96768e-05 0)
(4.58741e-05 1.89743e-05 0)
(3.73426e-05 1.81828e-05 0)
(2.90881e-05 1.73072e-05 0)
(2.1165e-05 1.63657e-05 0)
(1.36371e-05 1.53671e-05 0)
(6.5646e-06 1.43078e-05 0)
(-3.51667e-09 1.32149e-05 0)
(-6.09939e-06 1.20799e-05 0)
(-1.17058e-05 1.09207e-05 0)
(-1.67847e-05 9.74182e-06 0)
(-2.13271e-05 8.56125e-06 0)
(-2.52997e-05 7.38927e-06 0)
(-2.87038e-05 6.22868e-06 0)
(-3.15483e-05 5.09586e-06 0)
(-3.38364e-05 3.99802e-06 0)
(-3.5561e-05 2.93971e-06 0)
(-3.67474e-05 1.93124e-06 0)
(-3.74084e-05 9.78654e-07 0)
(-3.75678e-05 8.63852e-08 0)
(-3.72523e-05 -7.40121e-07 0)
(-3.64912e-05 -1.49761e-06 0)
(-3.53134e-05 -2.18179e-06 0)
(-3.37495e-05 -2.79247e-06 0)
(-3.18395e-05 -3.32788e-06 0)
(-2.96187e-05 -3.78844e-06 0)
(-2.71251e-05 -4.17392e-06 0)
(-2.44e-05 -4.48828e-06 0)
(-2.1478e-05 -4.72972e-06 0)
(-1.84053e-05 -4.90456e-06 0)
(-1.52105e-05 -5.01366e-06 0)
(-1.19328e-05 -5.06409e-06 0)
(-8.6153e-06 -5.05679e-06 0)
(-5.28861e-06 -4.99823e-06 0)
(-1.98415e-06 -4.89145e-06 0)
(1.26808e-06 -4.74555e-06 0)
(4.4368e-06 -4.5601e-06 0)
(7.50369e-06 -4.34198e-06 0)
(1.04363e-05 -4.09823e-06 0)
(1.32222e-05 -3.82814e-06 0)
(1.5843e-05 -3.54181e-06 0)
(1.82748e-05 -3.24241e-06 0)
(2.05139e-05 -2.93085e-06 0)
(2.25466e-05 -2.61521e-06 0)
(2.43642e-05 -2.2963e-06 0)
(2.59574e-05 -1.97999e-06 0)
(2.73307e-05 -1.66454e-06 0)
(2.84848e-05 -1.35806e-06 0)
(2.94049e-05 -1.06137e-06 0)
(3.01098e-05 -7.72632e-07 0)
(3.06018e-05 -4.99035e-07 0)
(3.08727e-05 -2.41378e-07 0)
(3.09494e-05 5.36775e-09 0)
(3.08363e-05 2.32687e-07 0)
(3.0537e-05 4.44395e-07 0)
(3.00617e-05 6.36943e-07 0)
(2.94272e-05 8.14253e-07 0)
(2.86472e-05 9.68726e-07 0)
(2.77237e-05 1.10778e-06 0)
(2.66756e-05 1.22864e-06 0)
(2.55158e-05 1.33229e-06 0)
(2.4258e-05 1.41881e-06 0)
(2.2915e-05 1.48872e-06 0)
(2.14988e-05 1.54266e-06 0)
(2.00178e-05 1.58063e-06 0)
(1.8495e-05 1.60825e-06 0)
(1.69354e-05 1.61897e-06 0)
(1.53524e-05 1.62119e-06 0)
(1.37614e-05 1.60801e-06 0)
(1.21607e-05 1.58697e-06 0)
(1.05729e-05 1.55731e-06 0)
(9.00467e-06 1.5166e-06 0)
(7.46061e-06 1.46915e-06 0)
(5.95193e-06 1.41587e-06 0)
(4.48549e-06 1.35667e-06 0)
(3.06798e-06 1.29252e-06 0)
(1.70445e-06 1.22347e-06 0)
(4.05893e-07 1.15349e-06 0)
(-8.26131e-07 1.08044e-06 0)
(-1.99324e-06 1.00562e-06 0)
(-3.08859e-06 9.29813e-07 0)
(-4.10969e-06 8.53536e-07 0)
(-5.0545e-06 7.77552e-07 0)
(-5.92161e-06 7.02422e-07 0)
(-6.71034e-06 6.28682e-07 0)
(-7.42066e-06 5.56744e-07 0)
(-8.05273e-06 4.86963e-07 0)
(-8.60769e-06 4.19516e-07 0)
(-9.08695e-06 3.54949e-07 0)
(-9.49222e-06 2.93317e-07 0)
(-9.82593e-06 2.34901e-07 0)
(-1.00905e-05 1.79937e-07 0)
(-1.02889e-05 1.2858e-07 0)
(-1.04243e-05 8.09152e-08 0)
(-1.05002e-05 3.69587e-08 0)
(-1.05204e-05 -3.39225e-09 0)
(-1.04889e-05 -4.01091e-08 0)
(-1.04093e-05 -7.31982e-08 0)
(-1.02852e-05 -1.02757e-07 0)
(-1.01205e-05 -1.28903e-07 0)
(-9.91885e-06 -1.5175e-07 0)
(-9.68422e-06 -1.71405e-07 0)
(-9.42042e-06 -1.87968e-07 0)
(-9.13127e-06 -2.01546e-07 0)
(-8.82062e-06 -2.12254e-07 0)
(-8.49221e-06 -2.20236e-07 0)
(-8.14973e-06 -2.25669e-07 0)
(-7.79668e-06 -2.28772e-07 0)
(-7.43629e-06 -2.29796e-07 0)
(-7.07152e-06 -2.2903e-07 0)
(-6.70496e-06 -2.26786e-07 0)
(-6.33875e-06 -2.23396e-07 0)
(-5.97453e-06 -2.19188e-07 0)
(-5.61351e-06 -2.14481e-07 0)
(-5.25643e-06 -2.0956e-07 0)
(-4.90359e-06 -2.04644e-07 0)
(-4.55504e-06 -1.99874e-07 0)
(-4.21062e-06 -1.95315e-07 0)
(-3.87012e-06 -1.90942e-07 0)
(-3.53339e-06 -1.86662e-07 0)
(-3.20055e-06 -1.82323e-07 0)
(-2.87196e-06 -1.77801e-07 0)
(-2.54812e-06 -1.73015e-07 0)
(-2.22971e-06 -1.67993e-07 0)
(-1.9172e-06 -1.62885e-07 0)
(-1.61058e-06 -1.57882e-07 0)
(-1.30966e-06 -1.53185e-07 0)
(-1.01389e-06 -1.4905e-07 0)
(-7.22261e-07 -1.45693e-07 0)
(-4.33074e-07 -1.43249e-07 0)
(-1.44432e-07 -1.41904e-07 0)
(4.57831e-06 -0.000118979 0)
(1.37958e-05 -0.000118954 0)
(2.30978e-05 -0.000118584 0)
(3.24698e-05 -0.00011802 0)
(4.18994e-05 -0.000117264 0)
(5.13661e-05 -0.000116308 0)
(6.08515e-05 -0.00011515 0)
(7.03459e-05 -0.000113797 0)
(7.97957e-05 -0.000112239 0)
(8.92375e-05 -0.00011048 0)
(9.86584e-05 -0.000108527 0)
(0.000107971 -0.00010638 0)
(0.000117214 -0.000104037 0)
(0.000126363 -0.000101507 0)
(0.000135371 -9.8788e-05 0)
(0.000144233 -9.58942e-05 0)
(0.000152916 -9.2827e-05 0)
(0.00016139 -8.95988e-05 0)
(0.000169631 -8.62176e-05 0)
(0.000177615 -8.26954e-05 0)
(0.000185318 -7.90433e-05 0)
(0.000192721 -7.5274e-05 0)
(0.000199805 -7.13993e-05 0)
(0.000206554 -6.74318e-05 0)
(0.000212949 -6.33815e-05 0)
(0.000218974 -5.92637e-05 0)
(0.000224616 -5.50911e-05 0)
(0.000229862 -5.08721e-05 0)
(0.000234702 -4.66182e-05 0)
(0.000239123 -4.234e-05 0)
(0.000243113 -3.80465e-05 0)
(0.000246658 -3.37518e-05 0)
(0.000249756 -2.94535e-05 0)
(0.000252403 -2.51678e-05 0)
(0.000254564 -2.08956e-05 0)
(0.000256251 -1.66336e-05 0)
(0.000257508 -1.2382e-05 0)
(0.000258327 -8.1412e-06 0)
(0.000258689 -3.91408e-06 0)
(0.000258564 3.00423e-07 0)
(0.000257906 4.47655e-06 0)
(0.000256729 8.61165e-06 0)
(0.00025504 1.26956e-05 0)
(0.000252826 1.67267e-05 0)
(0.00025009 2.0693e-05 0)
(0.00024683 2.45847e-05 0)
(0.000243047 2.8391e-05 0)
(0.000238742 3.20995e-05 0)
(0.000233919 3.56966e-05 0)
(0.000228584 3.91676e-05 0)
(0.000222745 4.24978e-05 0)
(0.00021639 4.56683e-05 0)
(0.000209578 4.86686e-05 0)
(0.000202324 5.14707e-05 0)
(0.0001946 5.40608e-05 0)
(0.000186451 5.64222e-05 0)
(0.000177915 5.8528e-05 0)
(0.000169009 6.03758e-05 0)
(0.000159744 6.19402e-05 0)
(0.000150222 6.31995e-05 0)
(0.000140457 6.41655e-05 0)
(0.000130457 6.48118e-05 0)
(0.000120312 6.51331e-05 0)
(0.000110033 6.51146e-05 0)
(9.97196e-05 6.47745e-05 0)
(8.93804e-05 6.40898e-05 0)
(7.91172e-05 6.30993e-05 0)
(6.89533e-05 6.17755e-05 0)
(5.8977e-05 6.0158e-05 0)
(4.92412e-05 5.82397e-05 0)
(3.97272e-05 5.60441e-05 0)
(3.05621e-05 5.35833e-05 0)
(2.17814e-05 5.08858e-05 0)
(1.34539e-05 4.79909e-05 0)
(5.55244e-06 4.49235e-05 0)
(-1.79472e-06 4.17103e-05 0)
(-8.5566e-06 3.83665e-05 0)
(-1.48052e-05 3.4919e-05 0)
(-2.0477e-05 3.14078e-05 0)
(-2.5535e-05 2.78698e-05 0)
(-2.9951e-05 2.4328e-05 0)
(-3.37519e-05 2.08226e-05 0)
(-3.69192e-05 1.73692e-05 0)
(-3.94474e-05 1.40046e-05 0)
(-4.13835e-05 1.07536e-05 0)
(-4.27117e-05 7.64007e-06 0)
(-4.34548e-05 4.68853e-06 0)
(-4.36461e-05 1.90885e-06 0)
(-4.33123e-05 -6.82939e-07 0)
(-4.24852e-05 -3.07249e-06 0)
(-4.11991e-05 -5.24867e-06 0)
(-3.94934e-05 -7.20835e-06 0)
(-3.74068e-05 -8.94465e-06 0)
(-3.49811e-05 -1.04553e-05 0)
(-3.22567e-05 -1.17443e-05 0)
(-2.92822e-05 -1.28098e-05 0)
(-2.60935e-05 -1.36609e-05 0)
(-2.27319e-05 -1.43052e-05 0)
(-1.92507e-05 -1.47526e-05 0)
(-1.568e-05 -1.50111e-05 0)
(-1.20584e-05 -1.50967e-05 0)
(-8.42596e-06 -1.50199e-05 0)
(-4.8187e-06 -1.47952e-05 0)
(-1.27416e-06 -1.44353e-05 0)
(2.18831e-06 -1.396e-05 0)
(5.5448e-06 -1.33764e-05 0)
(8.75725e-06 -1.27038e-05 0)
(1.18148e-05 -1.19549e-05 0)
(1.46978e-05 -1.11422e-05 0)
(1.73784e-05 -1.0282e-05 0)
(1.98578e-05 -9.38499e-06 0)
(2.21204e-05 -8.46192e-06 0)
(2.41531e-05 -7.52534e-06 0)
(2.59541e-05 -6.58557e-06 0)
(2.75203e-05 -5.65284e-06 0)
(2.88516e-05 -4.731e-06 0)
(2.99427e-05 -3.83661e-06 0)
(3.08036e-05 -2.96799e-06 0)
(3.1438e-05 -2.1313e-06 0)
(3.1842e-05 -1.33797e-06 0)
(3.20365e-05 -5.85324e-07 0)
(3.20307e-05 1.23102e-07 0)
(3.1826e-05 7.7799e-07 0)
(3.14377e-05 1.38656e-06 0)
(3.08762e-05 1.93834e-06 0)
(3.01495e-05 2.44265e-06 0)
(2.92785e-05 2.89072e-06 0)
(2.82762e-05 3.28547e-06 0)
(2.71472e-05 3.62795e-06 0)
(2.59104e-05 3.92159e-06 0)
(2.45787e-05 4.1656e-06 0)
(2.31657e-05 4.36007e-06 0)
(2.16824e-05 4.51079e-06 0)
(2.01469e-05 4.61911e-06 0)
(1.85692e-05 4.68893e-06 0)
(1.69593e-05 4.71701e-06 0)
(1.53302e-05 4.71406e-06 0)
(1.36952e-05 4.67468e-06 0)
(1.20644e-05 4.60758e-06 0)
(1.04413e-05 4.5151e-06 0)
(8.84187e-06 4.39689e-06 0)
(7.27688e-06 4.25753e-06 0)
(5.74928e-06 4.09878e-06 0)
(4.26592e-06 3.92468e-06 0)
(2.83367e-06 3.73684e-06 0)
(1.46271e-06 3.53754e-06 0)
(1.60108e-07 3.33195e-06 0)
(-1.07728e-06 3.11864e-06 0)
(-2.24612e-06 2.90061e-06 0)
(-3.34099e-06 2.67986e-06 0)
(-4.35949e-06 2.45852e-06 0)
(-5.29958e-06 2.23825e-06 0)
(-6.1603e-06 2.02059e-06 0)
(-6.94125e-06 1.80687e-06 0)
(-7.64274e-06 1.59838e-06 0)
(-8.26535e-06 1.39624e-06 0)
(-8.80992e-06 1.20142e-06 0)
(-9.27809e-06 1.01459e-06 0)
(-9.672e-06 8.3665e-07 0)
(-9.99382e-06 6.68186e-07 0)
(-1.02462e-05 5.0975e-07 0)
(-1.04323e-05 3.61717e-07 0)
(-1.05555e-05 2.24336e-07 0)
(-1.06196e-05 9.77347e-08 0)
(-1.06283e-05 -1.818e-08 0)
(-1.05857e-05 -1.23518e-07 0)
(-1.04952e-05 -2.18432e-07 0)
(-1.03608e-05 -3.0321e-07 0)
(-1.01863e-05 -3.78186e-07 0)
(-9.97539e-06 -4.43692e-07 0)
(-9.73195e-06 -5.0002e-07 0)
(-9.4598e-06 -5.4745e-07 0)
(-9.16277e-06 -5.86265e-07 0)
(-8.84473e-06 -6.16782e-07 0)
(-8.50951e-06 -6.39401e-07 0)
(-8.16084e-06 -6.54634e-07 0)
(-7.80231e-06 -6.6311e-07 0)
(-7.43722e-06 -6.65573e-07 0)
(-7.06855e-06 -6.62858e-07 0)
(-6.69893e-06 -6.5589e-07 0)
(-6.33049e-06 -6.45631e-07 0)
(-5.96483e-06 -6.33059e-07 0)
(-5.6031e-06 -6.19115e-07 0)
(-5.24587e-06 -6.0464e-07 0)
(-4.89329e-06 -5.90285e-07 0)
(-4.54523e-06 -5.76451e-07 0)
(-4.20133e-06 -5.63325e-07 0)
(-3.86121e-06 -5.50802e-07 0)
(-3.5246e-06 -5.38592e-07 0)
(-3.1916e-06 -5.26195e-07 0)
(-2.86263e-06 -5.1321e-07 0)
(-2.53838e-06 -4.99368e-07 0)
(-2.21975e-06 -4.84747e-07 0)
(-1.90736e-06 -4.69822e-07 0)
(-1.60125e-06 -4.55169e-07 0)
(-1.30126e-06 -4.41441e-07 0)
(-1.00686e-06 -4.29363e-07 0)
(-7.169e-07 -4.19573e-07 0)
(-4.29703e-07 -4.1236e-07 0)
(-1.43289e-07 -4.08419e-07 0)
(5.60781e-06 -0.000202299 0)
(1.68793e-05 -0.000202175 0)
(2.82522e-05 -0.000201439 0)
(3.96802e-05 -0.000200324 0)
(5.11391e-05 -0.000198826 0)
(6.26361e-05 -0.000196937 0)
(7.40632e-05 -0.000194671 0)
(8.5466e-05 -0.000192009 0)
(9.68473e-05 -0.00018897 0)
(0.000108069 -0.000185554 0)
(0.000119161 -0.000181767 0)
(0.000130153 -0.000177614 0)
(0.000140972 -0.000173107 0)
(0.000151622 -0.000168257 0)
(0.000162034 -0.000163095 0)
(0.000172172 -0.000157642 0)
(0.00018204 -0.000151926 0)
(0.000191568 -0.000145981 0)
(0.000200745 -0.000139838 0)
(0.000209535 -0.00013352 0)
(0.000217915 -0.000127056 0)
(0.000225866 -0.000120469 0)
(0.000233372 -0.000113782 0)
(0.000240432 -0.000107012 0)
(0.000247016 -0.00010018 0)
(0.000253094 -9.32978e-05 0)
(0.000258698 -8.63721e-05 0)
(0.000263821 -7.94334e-05 0)
(0.00026844 -7.24752e-05 0)
(0.000272563 -6.55117e-05 0)
(0.000276159 -5.8557e-05 0)
(0.000279283 -5.16152e-05 0)
(0.000281925 -4.46949e-05 0)
(0.000284039 -3.78079e-05 0)
(0.000285716 -3.09436e-05 0)
(0.000286971 -2.40974e-05 0)
(0.000287802 -1.72539e-05 0)
(0.000288184 -1.04241e-05 0)
(0.000288117 -3.59677e-06 0)
(0.000287491 3.18419e-06 0)
(0.000286235 9.92943e-06 0)
(0.00028444 1.6634e-05 0)
(0.000282088 2.32853e-05 0)
(0.000279169 2.98715e-05 0)
(0.000275685 3.63767e-05 0)
(0.000271624 4.27823e-05 0)
(0.000266981 4.90674e-05 0)
(0.000261749 5.52088e-05 0)
(0.000255928 6.11795e-05 0)
(0.000249522 6.69519e-05 0)
(0.000242527 7.24952e-05 0)
(0.000234974 7.77802e-05 0)
(0.000226847 8.27723e-05 0)
(0.000218152 8.74349e-05 0)
(0.000208954 9.17304e-05 0)
(0.000199227 9.56292e-05 0)
(0.000189062 9.90828e-05 0)
(0.000178495 0.000102091 0)
(0.000167468 0.000104588 0)
(0.000156184 0.000106601 0)
(0.000144674 0.000108068 0)
(0.000132877 0.000108977 0)
(0.000120893 0.000109321 0)
(0.000108866 0.000109098 0)
(9.68122e-05 0.0001083 0)
(8.48584e-05 0.000106941 0)
(7.3025e-05 0.000105025 0)
(6.13567e-05 0.000102545 0)
(4.99558e-05 9.95798e-05 0)
(3.88583e-05 9.6096e-05 0)
(2.82028e-05 9.21534e-05 0)
(1.79838e-05 8.77967e-05 0)
(8.3343e-06 8.30727e-05 0)
(-7.06591e-07 7.80102e-05 0)
(-9.14269e-06 7.26514e-05 0)
(-1.69477e-05 6.70705e-05 0)
(-2.40751e-05 6.12885e-05 0)
(-3.04848e-05 5.53813e-05 0)
(-3.61321e-05 4.94041e-05 0)
(-4.10412e-05 4.34035e-05 0)
(-4.51953e-05 3.74473e-05 0)
(-4.8601e-05 3.15653e-05 0)
(-5.12763e-05 2.58239e-05 0)
(-5.32024e-05 2.02516e-05 0)
(-5.44324e-05 1.49037e-05 0)
(-5.49661e-05 9.82003e-06 0)
(-5.48779e-05 5.02208e-06 0)
(-5.42094e-05 5.3621e-07 0)
(-5.29723e-05 -3.61079e-06 0)
(-5.12123e-05 -7.4029e-06 0)
(-4.89938e-05 -1.08292e-05 0)
(-4.63608e-05 -1.3876e-05 0)
(-4.3347e-05 -1.65462e-05 0)
(-4.00222e-05 -1.88373e-05 0)
(-3.64248e-05 -2.07566e-05 0)
(-3.26063e-05 -2.23058e-05 0)
(-2.86314e-05 -2.35084e-05 0)
(-2.45359e-05 -2.43735e-05 0)
(-2.03652e-05 -2.49246e-05 0)
(-1.61631e-05 -2.51724e-05 0)
(-1.19718e-05 -2.51463e-05 0)
(-7.82754e-06 -2.48656e-05 0)
(-3.76497e-06 -2.43587e-05 0)
(1.739e-07 -2.3647e-05 0)
(3.9766e-06 -2.27521e-05 0)
(7.617e-06 -2.17015e-05 0)
(1.10627e-05 -2.05178e-05 0)
(1.43033e-05 -1.92204e-05 0)
(1.73192e-05 -1.78374e-05 0)
(2.00973e-05 -1.63873e-05 0)
(2.2632e-05 -1.48871e-05 0)
(2.49156e-05 -1.33589e-05 0)
(2.69372e-05 -1.1818e-05 0)
(2.86964e-05 -1.0283e-05 0)
(3.01996e-05 -8.76223e-06 0)
(3.14381e-05 -7.27543e-06 0)
(3.24255e-05 -5.82835e-06 0)
(3.31736e-05 -4.4328e-06 0)
(3.36717e-05 -3.099e-06 0)
(3.39403e-05 -1.83037e-06 0)
(3.39922e-05 -6.37998e-07 0)
(3.38277e-05 4.80272e-07 0)
(3.34729e-05 1.51754e-06 0)
(3.29307e-05 2.47045e-06 0)
(3.22157e-05 3.33799e-06 0)
(3.1347e-05 4.11985e-06 0)
(3.03263e-05 4.81778e-06 0)
(2.91762e-05 5.42713e-06 0)
(2.79144e-05 5.95567e-06 0)
(2.65507e-05 6.40287e-06 0)
(2.50925e-05 6.772e-06 0)
(2.35643e-05 7.06644e-06 0)
(2.198e-05 7.28791e-06 0)
(2.03451e-05 7.44561e-06 0)
(1.86729e-05 7.53788e-06 0)
(1.69804e-05 7.56896e-06 0)
(1.52771e-05 7.54855e-06 0)
(1.35741e-05 7.47429e-06 0)
(1.18838e-05 7.35623e-06 0)
(1.02112e-05 7.19576e-06 0)
(8.56724e-06 6.99728e-06 0)
(6.96058e-06 6.76855e-06 0)
(5.40016e-06 6.50977e-06 0)
(3.89224e-06 6.22657e-06 0)
(2.4405e-06 5.9224e-06 0)
(1.05584e-06 5.60289e-06 0)
(-2.57248e-07 5.27071e-06 0)
(-1.50125e-06 4.92692e-06 0)
(-2.67212e-06 4.57728e-06 0)
(-3.76482e-06 4.22368e-06 0)
(-4.77751e-06 3.87021e-06 0)
(-5.70917e-06 3.5191e-06 0)
(-6.5591e-06 3.17268e-06 0)
(-7.32713e-06 2.833e-06 0)
(-8.01368e-06 2.50201e-06 0)
(-8.61954e-06 2.18149e-06 0)
(-9.14641e-06 1.87292e-06 0)
(-9.59596e-06 1.57726e-06 0)
(-9.97013e-06 1.29565e-06 0)
(-1.02718e-05 1.02944e-06 0)
(-1.05038e-05 7.79366e-07 0)
(-1.06694e-05 5.4599e-07 0)
(-1.07723e-05 3.29698e-07 0)
(-1.08163e-05 1.30707e-07 0)
(-1.08055e-05 -5.10247e-08 0)
(-1.07441e-05 -2.15904e-07 0)
(-1.06358e-05 -3.64346e-07 0)
(-1.04843e-05 -4.96855e-07 0)
(-1.02937e-05 -6.14006e-07 0)
(-1.00674e-05 -7.16318e-07 0)
(-9.80942e-06 -8.04238e-07 0)
(-9.52342e-06 -8.78159e-07 0)
(-9.21328e-06 -9.38472e-07 0)
(-8.88293e-06 -9.85625e-07 0)
(-8.5363e-06 -1.02021e-06 0)
(-8.17731e-06 -1.04303e-06 0)
(-7.80965e-06 -1.0551e-06 0)
(-7.43672e-06 -1.05762e-06 0)
(-7.06161e-06 -1.05194e-06 0)
(-6.68699e-06 -1.03955e-06 0)
(-6.31497e-06 -1.02203e-06 0)
(-5.94709e-06 -1.00098e-06 0)
(-5.58437e-06 -9.77956e-07 0)
(-5.22715e-06 -9.54354e-07 0)
(-4.87527e-06 -9.31236e-07 0)
(-4.52825e-06 -9.09233e-07 0)
(-4.18542e-06 -8.88633e-07 0)
(-3.84608e-06 -8.69173e-07 0)
(-3.50973e-06 -8.50357e-07 0)
(-3.17641e-06 -8.3119e-07 0)
(-2.84672e-06 -8.10905e-07 0)
(-2.52164e-06 -7.88946e-07 0)
(-2.20252e-06 -7.65472e-07 0)
(-1.89028e-06 -7.41326e-07 0)
(-1.58505e-06 -7.17618e-07 0)
(-1.28672e-06 -6.95474e-07 0)
(-9.94692e-07 -6.7601e-07 0)
(-7.07539e-07 -6.60234e-07 0)
(-4.23739e-07 -6.48358e-07 0)
(-1.41276e-07 -6.41913e-07 0)
(7.32704e-06 -0.000298839 0)
(2.20135e-05 -0.000298453 0)
(3.67822e-05 -0.00029712 0)
(5.15794e-05 -0.000295107 0)
(6.63925e-05 -0.000292403 0)
(8.10884e-05 -0.000289027 0)
(9.57046e-05 -0.000284985 0)
(0.000110202 -0.000280292 0)
(0.000124425 -0.000274977 0)
(0.000138475 -0.000269087 0)
(0.000152305 -0.000262613 0)
(0.000165826 -0.000255614 0)
(0.000179019 -0.000248104 0)
(0.000191746 -0.000240105 0)
(0.000203919 -0.000231706 0)
(0.000215553 -0.00022293 0)
(0.000226557 -0.000213844 0)
(0.000236893 -0.000204481 0)
(0.00024661 -0.000194913 0)
(0.000255712 -0.000185148 0)
(0.000264186 -0.000175247 0)
(0.000272058 -0.000165245 0)
(0.000279355 -0.000155175 0)
(0.000286073 -0.000145068 0)
(0.000292235 -0.000134956 0)
(0.000297909 -0.000124826 0)
(0.000302989 -0.000114746 0)
(0.000307536 -0.000104754 0)
(0.000311631 -9.48652e-05 0)
(0.000315159 -8.50951e-05 0)
(0.000318163 -7.54789e-05 0)
(0.000320666 -6.6019e-05 0)
(0.00032263 -5.66677e-05 0)
(0.000324144 -4.73839e-05 0)
(0.000325266 -3.81263e-05 0)
(0.00032603 -2.8883e-05 0)
(0.0003264 -1.96526e-05 0)
(0.000326339 -1.03789e-05 0)
(0.000325682 -1.10482e-06 0)
(0.000324387 8.13879e-06 0)
(0.000322593 1.73693e-05 0)
(0.000320214 2.65796e-05 0)
(0.000317228 3.57581e-05 0)
(0.000313609 4.48911e-05 0)
(0.000309335 5.39572e-05 0)
(0.000304388 6.29258e-05 0)
(0.000298751 7.17705e-05 0)
(0.000292407 8.04502e-05 0)
(0.000285346 8.89217e-05 0)
(0.000277567 9.71332e-05 0)
(0.000269077 0.000105041 0)
(0.000259862 0.000112548 0)
(0.00024995 0.000119668 0)
(0.000239351 0.000126289 0)
(0.000228086 0.000132391 0)
(0.000216158 0.000137894 0)
(0.000203732 0.000142762 0)
(0.000190766 0.000146941 0)
(0.000177365 0.000150376 0)
(0.000163671 0.000153032 0)
(0.000149562 0.000154892 0)
(0.000135234 0.000155924 0)
(0.000120815 0.000156117 0)
(0.000106333 0.000155463 0)
(9.19295e-05 0.000153961 0)
(7.76681e-05 0.000151615 0)
(6.35652e-05 0.00014844 0)
(4.98894e-05 0.000144494 0)
(3.66407e-05 0.000139784 0)
(2.38008e-05 0.000134384 0)
(1.16183e-05 0.000128336 0)
(1.4467e-07 0.000121702 0)
(-1.06324e-05 0.000114548 0)
(-2.06636e-05 0.000106936 0)
(-2.98498e-05 9.89497e-05 0)
(-3.81538e-05 9.06532e-05 0)
(-4.55421e-05 8.21679e-05 0)
(-5.19839e-05 7.35372e-05 0)
(-5.75238e-05 6.4871e-05 0)
(-6.21007e-05 5.62313e-05 0)
(-6.57439e-05 4.77025e-05 0)
(-6.84981e-05 3.93472e-05 0)
(-7.03609e-05 3.12532e-05 0)
(-7.13633e-05 2.34641e-05 0)
(-7.15267e-05 1.60411e-05 0)
(-7.094e-05 9.0332e-06 0)
(-6.96774e-05 2.47576e-06 0)
(-6.77589e-05 -3.5966e-06 0)
(-6.5239e-05 -9.15919e-06 0)
(-6.21973e-05 -1.41948e-05 0)
(-5.86795e-05 -1.8677e-05 0)
(-5.47624e-05 -2.26214e-05 0)
(-5.05117e-05 -2.60139e-05 0)
(-4.59816e-05 -2.88637e-05 0)
(-4.12229e-05 -3.11951e-05 0)
(-3.63213e-05 -3.30227e-05 0)
(-3.13311e-05 -3.43656e-05 0)
(-2.62893e-05 -3.52498e-05 0)
(-2.12485e-05 -3.57023e-05 0)
(-1.62512e-05 -3.57527e-05 0)
(-1.13523e-05 -3.54476e-05 0)
(-6.58435e-06 -3.48118e-05 0)
(-1.98418e-06 -3.38829e-05 0)
(2.42957e-06 -3.2695e-05 0)
(6.62884e-06 -3.12763e-05 0)
(1.05918e-05 -2.96712e-05 0)
(1.43014e-05 -2.79016e-05 0)
(1.77385e-05 -2.60029e-05 0)
(2.08898e-05 -2.4002e-05 0)
(2.37549e-05 -2.19283e-05 0)
(2.63296e-05 -1.9809e-05 0)
(2.86059e-05 -1.76694e-05 0)
(3.05802e-05 -1.55312e-05 0)
(3.22669e-05 -1.34084e-05 0)
(3.36638e-05 -1.13235e-05 0)
(3.47755e-05 -9.2942e-06 0)
(3.56169e-05 -7.3282e-06 0)
(3.6191e-05 -5.44687e-06 0)
(3.65161e-05 -3.65204e-06 0)
(3.65899e-05 -1.95554e-06 0)
(3.6444e-05 -3.65832e-07 0)
(3.60946e-05 1.11948e-06 0)
(3.55358e-05 2.49118e-06 0)
(3.47925e-05 3.7437e-06 0)
(3.38812e-05 4.88094e-06 0)
(3.28157e-05 5.89924e-06 0)
(3.16071e-05 6.80215e-06 0)
(3.02796e-05 7.58833e-06 0)
(2.88459e-05 8.26594e-06 0)
(2.73159e-05 8.83311e-06 0)
(2.57081e-05 9.29762e-06 0)
(2.40343e-05 9.66177e-06 0)
(2.23144e-05 9.93163e-06 0)
(2.05594e-05 1.01132e-05 0)
(1.87714e-05 1.02114e-05 0)
(1.69782e-05 1.02287e-05 0)
(1.5182e-05 1.01777e-05 0)
(1.33956e-05 1.00575e-05 0)
(1.16345e-05 9.88146e-06 0)
(9.89355e-06 9.64927e-06 0)
(8.19693e-06 9.3689e-06 0)
(6.54862e-06 9.04786e-06 0)
(4.94877e-06 8.68998e-06 0)
(3.40831e-06 8.29986e-06 0)
(1.93334e-06 7.88378e-06 0)
(5.32712e-07 7.44927e-06 0)
(-7.93487e-07 6.99717e-06 0)
(-2.04442e-06 6.53231e-06 0)
(-3.21576e-06 6.05986e-06 0)
(-4.30478e-06 5.58463e-06 0)
(-5.30894e-06 5.10922e-06 0)
(-6.22877e-06 4.63796e-06 0)
(-7.06382e-06 4.17432e-06 0)
(-7.81437e-06 3.72067e-06 0)
(-8.48122e-06 3.27962e-06 0)
(-9.06572e-06 2.85333e-06 0)
(-9.56984e-06 2.44235e-06 0)
(-9.99576e-06 2.04966e-06 0)
(-1.03452e-05 1.67563e-06 0)
(-1.0621e-05 1.3221e-06 0)
(-1.08268e-05 9.90701e-07 0)
(-1.09662e-05 6.82056e-07 0)
(-1.10429e-05 3.96632e-07 0)
(-1.10613e-05 1.34698e-07 0)
(-1.10259e-05 -1.03956e-07 0)
(-1.0941e-05 -3.20178e-07 0)
(-1.08101e-05 -5.14592e-07 0)
(-1.06375e-05 -6.87999e-07 0)
(-1.04267e-05 -8.41237e-07 0)
(-1.01814e-05 -9.75021e-07 0)
(-9.90524e-06 -1.0899e-06 0)
(-9.60191e-06 -1.18632e-06 0)
(-9.27528e-06 -1.26469e-06 0)
(-8.92937e-06 -1.32549e-06 0)
(-8.56833e-06 -1.36943e-06 0)
(-8.19627e-06 -1.3976e-06 0)
(-7.81707e-06 -1.41137e-06 0)
(-7.43429e-06 -1.4124e-06 0)
(-7.05111e-06 -1.4025e-06 0)
(-6.67027e-06 -1.38373e-06 0)
(-6.29389e-06 -1.35824e-06 0)
(-5.92345e-06 -1.32828e-06 0)
(-5.55979e-06 -1.29606e-06 0)
(-5.20294e-06 -1.26351e-06 0)
(-4.85229e-06 -1.23214e-06 0)
(-4.50694e-06 -1.20274e-06 0)
(-4.16573e-06 -1.17574e-06 0)
(-3.82758e-06 -1.15056e-06 0)
(-3.49161e-06 -1.12654e-06 0)
(-3.15774e-06 -1.10189e-06 0)
(-2.82682e-06 -1.07546e-06 0)
(-2.50034e-06 -1.04619e-06 0)
(-2.18035e-06 -1.0144e-06 0)
(-1.86822e-06 -9.81363e-07 0)
(-1.56419e-06 -9.48892e-07 0)
(-1.26802e-06 -9.18783e-07 0)
(-9.79046e-07 -8.92315e-07 0)
(-6.95357e-07 -8.7083e-07 0)
(-4.15855e-07 -8.54277e-07 0)
(-1.38613e-07 -8.45193e-07 0)
(1.00385e-05 -0.000411135 0)
(3.00957e-05 -0.000410126 0)
(5.02024e-05 -0.00040768 0)
(7.0292e-05 -0.000403985 0)
(9.0164e-05 -0.000399034 0)
(0.000109722 -0.000392849 0)
(0.000128899 -0.000385435 0)
(0.000147603 -0.000376847 0)
(0.000165646 -0.000367139 0)
(0.000183149 -0.000356363 0)
(0.000200087 -0.000344547 0)
(0.000216345 -0.000331936 0)
(0.000232086 -0.000318637 0)
(0.000246892 -0.000304923 0)
(0.000260712 -0.00029086 0)
(0.000273658 -0.000276635 0)
(0.000285685 -0.000262363 0)
(0.000296723 -0.000248128 0)
(0.000306905 -0.000233999 0)
(0.000316289 -0.000220083 0)
(0.000324726 -0.000206394 0)
(0.000332353 -0.000192979 0)
(0.000339195 -0.000179849 0)
(0.000345265 -0.000167013 0)
(0.000350765 -0.000154468 0)
(0.000355511 -0.00014213 0)
(0.000359279 -0.000130091 0)
(0.00036234 -0.000118241 0)
(0.000364795 -0.000106653 0)
(0.000366544 -9.53167e-05 0)
(0.000367638 -8.42297e-05 0)
(0.000368502 -7.32977e-05 0)
(0.000369313 -6.24208e-05 0)
(0.000369997 -5.16506e-05 0)
(0.000370499 -4.07868e-05 0)
(0.000370658 -2.99016e-05 0)
(0.000370652 -1.89054e-05 0)
(0.000370265 -7.78587e-06 0)
(0.000369113 3.40563e-06 0)
(0.000367348 1.47368e-05 0)
(0.000365026 2.61948e-05 0)
(0.000362097 3.7749e-05 0)
(0.000358521 4.94136e-05 0)
(0.000354249 6.11363e-05 0)
(0.000349221 7.28807e-05 0)
(0.000343413 8.46008e-05 0)
(0.000336783 9.62209e-05 0)
(0.000329271 0.000107689 0)
(0.000320845 0.000118938 0)
(0.000311518 0.000129868 0)
(0.000301139 0.0001404 0)
(0.000289951 0.000150463 0)
(0.000277899 0.000159937 0)
(0.000264884 0.000168788 0)
(0.000251096 0.000176861 0)
(0.000236459 0.000184097 0)
(0.000221177 0.000190478 0)
(0.000205225 0.000195846 0)
(0.000188628 0.000200198 0)
(0.00017172 0.000203468 0)
(0.000154534 0.000205582 0)
(0.000137048 0.000206579 0)
(0.000119448 0.000206409 0)
(0.000101898 0.000205052 0)
(8.44669e-05 0.000202496 0)
(6.73153e-05 0.000198817 0)
(5.06226e-05 0.000193996 0)
(3.44244e-05 0.000188141 0)
(1.88451e-05 0.000181249 0)
(4.01636e-06 0.000173451 0)
(-9.96075e-06 0.00016484 0)
(-2.30343e-05 0.000155436 0)
(-3.51039e-05 0.000145381 0)
(-4.60812e-05 0.00013479 0)
(-5.59733e-05 0.000123748 0)
(-6.46765e-05 0.000112393 0)
(-7.22035e-05 0.000100834 0)
(-7.85672e-05 8.9193e-05 0)
(-8.37047e-05 7.75662e-05 0)
(-8.7706e-05 6.60727e-05 0)
(-9.05661e-05 5.48037e-05 0)
(-9.23084e-05 4.38793e-05 0)
(-9.30075e-05 3.33726e-05 0)
(-9.27237e-05 2.33508e-05 0)
(-9.14993e-05 1.38866e-05 0)
(-8.94178e-05 5.0307e-06 0)
(-8.65987e-05 -3.18399e-06 0)
(-8.31061e-05 -1.07093e-05 0)
(-7.89993e-05 -1.75179e-05 0)
(-7.43284e-05 -2.3595e-05 0)
(-6.92323e-05 -2.89187e-05 0)
(-6.37886e-05 -3.35304e-05 0)
(-5.80167e-05 -3.74117e-05 0)
(-5.20679e-05 -4.05844e-05 0)
(-4.59922e-05 -4.30892e-05 0)
(-3.98289e-05 -4.49582e-05 0)
(-3.36619e-05 -4.62087e-05 0)
(-2.75399e-05 -4.68974e-05 0)
(-2.1512e-05 -4.70427e-05 0)
(-1.56573e-05 -4.67297e-05 0)
(-1.00035e-05 -4.59709e-05 0)
(-4.56272e-06 -4.48283e-05 0)
(6.16405e-07 -4.33434e-05 0)
(5.51798e-06 -4.15583e-05 0)
(1.01132e-05 -3.95228e-05 0)
(1.43935e-05 -3.72679e-05 0)
(1.83494e-05 -3.48425e-05 0)
(2.19643e-05 -3.22861e-05 0)
(2.52349e-05 -2.96316e-05 0)
(2.81522e-05 -2.69123e-05 0)
(3.07224e-05 -2.41599e-05 0)
(3.29511e-05 -2.14036e-05 0)
(3.48502e-05 -1.86687e-05 0)
(3.64228e-05 -1.59746e-05 0)
(3.76693e-05 -1.33501e-05 0)
(3.86093e-05 -1.0802e-05 0)
(3.92533e-05 -8.35881e-06 0)
(3.96234e-05 -6.01845e-06 0)
(3.97285e-05 -3.80112e-06 0)
(3.95759e-05 -1.71899e-06 0)
(3.92049e-05 2.32616e-07 0)
(3.86173e-05 2.03827e-06 0)
(3.78223e-05 3.69462e-06 0)
(3.68464e-05 5.20705e-06 0)
(3.57077e-05 6.5666e-06 0)
(3.44239e-05 7.78207e-06 0)
(3.30009e-05 8.85273e-06 0)
(3.14682e-05 9.78269e-06 0)
(2.98416e-05 1.05723e-05 0)
(2.81298e-05 1.12283e-05 0)
(2.63474e-05 1.17571e-05 0)
(2.4514e-05 1.21654e-05 0)
(2.26489e-05 1.24621e-05 0)
(2.07561e-05 1.26469e-05 0)
(1.88422e-05 1.27302e-05 0)
(1.6935e-05 1.2723e-05 0)
(1.50383e-05 1.26277e-05 0)
(1.31637e-05 1.2453e-05 0)
(1.1324e-05 1.22087e-05 0)
(9.51524e-06 1.18988e-05 0)
(7.75974e-06 1.15361e-05 0)
(6.05962e-06 1.11212e-05 0)
(4.41863e-06 1.06636e-05 0)
(2.84607e-06 1.01696e-05 0)
(1.34906e-06 9.64531e-06 0)
(-6.87505e-08 9.1e-06 0)
(-1.40715e-06 8.5345e-06 0)
(-2.66337e-06 7.95598e-06 0)
(-3.8337e-06 7.36931e-06 0)
(-4.91675e-06 6.78042e-06 0)
(-5.91145e-06 6.19364e-06 0)
(-6.81622e-06 5.61311e-06 0)
(-7.63292e-06 5.04238e-06 0)
(-8.36254e-06 4.48559e-06 0)
(-9.00598e-06 3.94491e-06 0)
(-9.56645e-06 3.42218e-06 0)
(-1.00449e-05 2.92017e-06 0)
(-1.04433e-05 2.43988e-06 0)
(-1.0765e-05 1.98399e-06 0)
(-1.10115e-05 1.55355e-06 0)
(-1.11872e-05 1.14995e-06 0)
(-1.12964e-05 7.7502e-07 0)
(-1.13434e-05 4.29472e-07 0)
(-1.13326e-05 1.12997e-07 0)
(-1.12694e-05 -1.75558e-07 0)
(-1.11581e-05 -4.3582e-07 0)
(-1.10023e-05 -6.69399e-07 0)
(-1.08062e-05 -8.77546e-07 0)
(-1.05732e-05 -1.06144e-06 0)
(-1.03068e-05 -1.22198e-06 0)
(-1.00106e-05 -1.35979e-06 0)
(-9.68793e-06 -1.47523e-06 0)
(-9.34281e-06 -1.56864e-06 0)
(-8.97937e-06 -1.64044e-06 0)
(-8.60204e-06 -1.69137e-06 0)
(-8.21521e-06 -1.72284e-06 0)
(-7.82304e-06 -1.73649e-06 0)
(-7.42921e-06 -1.73457e-06 0)
(-7.03701e-06 -1.71923e-06 0)
(-6.6493e-06 -1.69312e-06 0)
(-6.26821e-06 -1.6589e-06 0)
(-5.89519e-06 -1.61951e-06 0)
(-5.53089e-06 -1.57784e-06 0)
(-5.17495e-06 -1.53645e-06 0)
(-4.82618e-06 -1.49726e-06 0)
(-4.48319e-06 -1.46117e-06 0)
(-4.14418e-06 -1.42882e-06 0)
(-3.80763e-06 -1.39908e-06 0)
(-3.47215e-06 -1.3713e-06 0)
(-3.13745e-06 -1.34252e-06 0)
(-2.80474e-06 -1.31109e-06 0)
(-2.47618e-06 -1.2752e-06 0)
(-2.15484e-06 -1.23545e-06 0)
(-1.84267e-06 -1.19358e-06 0)
(-1.54009e-06 -1.15246e-06 0)
(-1.24654e-06 -1.1148e-06 0)
(-9.61048e-07 -1.08167e-06 0)
(-6.81194e-07 -1.05466e-06 0)
(-4.06488e-07 -1.0335e-06 0)
(-1.35394e-07 -1.02133e-06 0)
(1.45039e-05 -0.00055074 0)
(4.34447e-05 -0.000548431 0)
(7.24268e-05 -0.000543895 0)
(0.000101226 -0.000537083 0)
(0.000129617 -0.000528042 0)
(0.00015742 -0.000516861 0)
(0.000184495 -0.000503726 0)
(0.000210553 -0.000488756 0)
(0.000235472 -0.000472091 0)
(0.000259515 -0.000453966 0)
(0.00028168 -0.000434833 0)
(0.000301523 -0.00041502 0)
(0.000318985 -0.000394872 0)
(0.000334152 -0.000374621 0)
(0.000347422 -0.000354428 0)
(0.000358636 -0.000334406 0)
(0.000368238 -0.000314613 0)
(0.000376436 -0.000295199 0)
(0.000383209 -0.000276154 0)
(0.00038884 -0.000257602 0)
(0.000393599 -0.000239596 0)