/*--------------------------------*- C++ -*----------------------------------*\
  =========                 |
  \\      /  F ield         | OpenFOAM: The Open Source CFD Toolbox
   \\    /   O peration     | Website:  https://openfoam.org
    \\  /    A nd           | Version:  12
     \\/     M anipulation  |
\*---------------------------------------------------------------------------*/
FoamFile
{
    format      ascii;
    class       volVectorField;
    location    "2";
    object      zeta;
}
// * * * * * * * * * * * * * * * * * * * * * * * * * * * * * * * * * * * * * //

dimensions      [0 1 0 0 0 0 0];

internalField   uniform (0 0 0);

boundaryField
{
    freeSurface
    {
        type            calculated;
        value           nonuniform List<vector> 
181
(
(0 0.00105677 0)
(0 0.00105664 0)
(0 0.00105647 0)
(0 0.00105628 0)
(0 0.00105604 0)
(0 0.00105588 0)
(0 0.0010557 0)
(0 0.00105557 0)
(0 0.000241955 0)
(0 0.000242425 0)
(0 0.000244923 0)
(0 0.000247818 0)
(0 0.000251345 0)
(0 0.000255479 0)
(0 0.000259936 0)
(0 0.000264572 0)
(0 0.000269136 0)
(0 0.000273436 0)
(0 0.000277264 0)
(0 0.000280425 0)
(0 0.000282726 0)
(0 0.000284032 0)
(0 0.000284218 0)
(0 0.000283179 0)
(0 0.000280808 0)
(0 0.000277037 0)
(0 0.000271814 0)
(0 0.000265103 0)
(0 0.000256896 0)
(0 0.000247209 0)
(0 0.000236084 0)
(0 0.000223579 0)
(0 0.00020977 0)
(0 0.00019475 0)
(0 0.000178634 0)
(0 0.00016155 0)
(0 0.000143641 0)
(0 0.000125086 0)
(0 0.000106042 0)
(0 8.67235e-05 0)
(0 6.73326e-05 0)
(0 4.80717e-05 0)
(0 2.91617e-05 0)
(0 1.0816e-05 0)
(0 -6.72876e-06 0)
(0 -2.33091e-05 0)
(0 -3.87252e-05 0)
(0 -5.28284e-05 0)
(0 -6.55145e-05 0)
(0 -7.66673e-05 0)
(0 -8.62407e-05 0)
(0 -9.42064e-05 0)
(0 -0.000100568 0)
(0 -0.000105375 0)
(0 -0.000108672 0)
(0 -0.000110569 0)
(0 -0.000111134 0)
(0 -0.000110513 0)
(0 -0.000108814 0)
(0 -0.000106168 0)
(0 -0.000102714 0)
(0 -9.85661e-05 0)
(0 -9.38674e-05 0)
(0 -8.87265e-05 0)
(0 -8.32518e-05 0)
(0 -7.75494e-05 0)
(0 -7.17112e-05 0)
(0 -6.58201e-05 0)
(0 -5.99491e-05 0)
(0 -5.41586e-05 0)
(0 -4.84991e-05 0)
(0 -4.30147e-05 0)
(0 -3.77412e-05 0)
(0 -3.27106e-05 0)
(0 -2.79486e-05 0)
(0 -2.34563e-05 0)
(0 -1.92556e-05 0)
(0 -1.53492e-05 0)
(0 -1.17381e-05 0)
(0 -8.42137e-06 0)
(0 -5.39527e-06 0)
(0 -2.6573e-06 0)
(0 -1.9996e-07 0)
(0 1.98306e-06 0)
(0 3.90398e-06 0)
(0 5.57373e-06 0)
(0 7.00612e-06 0)
(0 8.2165e-06 0)
(0 9.22015e-06 0)
(0 1.00307e-05 0)
(0 1.06615e-05 0)
(0 1.11242e-05 0)
(0 1.14277e-05 0)
(0 1.15797e-05 0)
(0 1.15912e-05 0)
(0 1.14751e-05 0)
(0 1.12419e-05 0)
(0 1.09043e-05 0)
(0 1.04726e-05 0)
(0 9.95358e-06 0)
(0 9.35454e-06 0)
(0 8.68509e-06 0)
(0 7.95559e-06 0)
(0 7.1771e-06 0)
(0 6.35971e-06 0)
(0 5.51077e-06 0)
(0 4.63673e-06 0)
(0 3.7427e-06 0)
(0 2.83722e-06 0)
(0 1.92641e-06 0)
(0 1.01661e-06 0)
(0 1.12898e-07 0)
(0 -7.80904e-07 0)
(0 -1.66144e-06 0)
(0 -2.52509e-06 0)
(0 -3.36677e-06 0)
(0 -4.18349e-06 0)
(0 -4.97306e-06 0)
(0 -5.7367e-06 0)
(0 -6.47307e-06 0)
(0 -7.17941e-06 0)
(0 -7.85205e-06 0)
(0 -8.48747e-06 0)
(0 -9.08393e-06 0)
(0 -9.64202e-06 0)
(0 -1.0162e-05 0)
(0 -1.06442e-05 0)
(0 -1.1086e-05 0)
(0 -1.14864e-05 0)
(0 -1.18461e-05 0)
(0 -1.21678e-05 0)
(0 -1.24546e-05 0)
(0 -1.2708e-05 0)
(0 -1.29298e-05 0)
(0 -1.3122e-05 0)
(0 -1.32868e-05 0)
(0 -1.34253e-05 0)
(0 -1.35374e-05 0)
(0 -1.36217e-05 0)
(0 -1.36778e-05 0)
(0 -1.37066e-05 0)
(0 -1.37123e-05 0)
(0 -1.37005e-05 0)
(0 -1.36751e-05 0)
(0 -1.36374e-05 0)
(0 -1.3586e-05 0)
(0 -1.35201e-05 0)
(0 -1.34418e-05 0)
(0 -1.33536e-05 0)
(0 -1.32597e-05 0)
(0 -1.31599e-05 0)
(0 -1.3055e-05 0)
(0 -1.29445e-05 0)
(0 -1.28306e-05 0)
(0 -1.27195e-05 0)
(0 -1.26136e-05 0)
(0 -1.25125e-05 0)
(0 -1.24109e-05 0)
(0 -1.23028e-05 0)
(0 -1.21842e-05 0)
(0 -1.20555e-05 0)
(0 -1.19203e-05 0)
(0 -1.17858e-05 0)
(0 -1.16556e-05 0)
(0 -1.15291e-05 0)
(0 -1.14052e-05 0)
(0 -1.12836e-05 0)
(0 -1.11664e-05 0)
(0 -1.10606e-05 0)
(0 -1.09717e-05 0)
(0 -1.09054e-05 0)
(0 -1.08617e-05 0)
(0 -1.08373e-05 0)
(0 -1.08211e-05 0)
(0 -1.0797e-05 0)
(0 -1.07576e-05 0)
(0 -1.07095e-05 0)
(0 -1.0665e-05 0)
(0 -1.06345e-05 0)
(0 -1.06151e-05 0)
(0 -1.0609e-05 0)
)
;
    }
    walls
    {
        type            calculated;
        value           uniform (0 0 0);
    }
    floatingObject
    {
        type            calculated;
        value           uniform (0 0 0);
    }
    frontAndBack
    {
        type            empty;
    }
}


// ************************************************************************* //
