/*--------------------------------*- C++ -*----------------------------------*\
  =========                 |
  \\      /  F ield         | OpenFOAM: The Open Source CFD Toolbox
   \\    /   O peration     | Website:  https://openfoam.org
    \\  /    A nd           | Version:  12
     \\/     M anipulation  |
\*---------------------------------------------------------------------------*/
FoamFile
{
    format      ascii;
    class       volScalarField;
    location    "2";
    object      p;
}
// * * * * * * * * * * * * * * * * * * * * * * * * * * * * * * * * * * * * * //

dimensions      [0 2 -2 0 0 0 0];

internalField   nonuniform List<scalar> 
400
(
3.59459e-08
-7.53061e-06
-1.82352e-05
-4.02164e-05
-7.87941e-05
-0.000141652
-0.000232556
-0.000338959
-0.000413952
-0.000430844
-0.000597343
-0.00135391
-0.00232105
-0.00254414
-0.00179368
6.1248e-05
0.00274382
0.0058155
0.00848919
0.00977807
1.26987e-05
7.73669e-06
2.73121e-06
-1.05193e-05
-3.67689e-05
-8.46953e-05
-0.000165212
-0.000284751
-0.000449463
-0.000742725
-0.00140744
-0.00251906
-0.00352613
-0.00373565
-0.00306678
-0.00138438
0.00112652
0.00404256
0.00686431
0.00838582
-6.87384e-06
-1.00481e-05
-1.12732e-05
-1.89026e-05
-3.81071e-05
-8.04712e-05
-0.000167607
-0.00033662
-0.000661056
-0.00133691
-0.00261547
-0.00426801
-0.00564732
-0.00596149
-0.00516943
-0.00357118
-0.0013522
0.00118829
0.003832
0.00554523
-6.10068e-05
-6.39189e-05
-6.49757e-05
-7.27334e-05
-9.38667e-05
-0.00014456
-0.000259227
-0.000513772
-0.00105617
-0.00211464
-0.00393068
-0.00607273
-0.0076461
-0.00790084
-0.00719283
-0.00564217
-0.0036514
-0.00153238
0.000399939
0.00222256
-0.000153257
-0.000158389
-0.000164685
-0.000181199
-0.000216883
-0.00029284
-0.000452064
-0.000797495
-0.00156071
-0.00288706
-0.00500199
-0.00745241
-0.00927489
-0.0097738
-0.00919131
-0.00764101
-0.00575063
-0.003846
-0.00231096
-0.000742057
-0.000277907
-0.00028707
-0.000302998
-0.000334674
-0.000393249
-0.000503773
-0.000714046
-0.00112427
-0.0019811
-0.00349349
-0.00565788
-0.00821647
-0.0102721
-0.0110213
-0.0105906
-0.00902544
-0.007106
-0.00522814
-0.00402806
-0.00267785
-0.000422643
-0.000436504
-0.000463128
-0.000511065
-0.000592223
-0.00073236
-0.000979376
-0.00141943
-0.00222497
-0.00372451
-0.00574248
-0.00815959
-0.0101879
-0.0110029
-0.0106363
-0.00904586
-0.00726431
-0.00554107
-0.00476913
-0.00373031
-0.000574042
-0.000592189
-0.000627405
-0.000687916
-0.000784493
-0.000939952
-0.00119671
-0.00162475
-0.00231842
-0.00357847
-0.00527719
-0.00722618
-0.00891585
-0.00962916
-0.00930975
-0.00799585
-0.00654551
-0.0051351
-0.00486267
-0.00398585
-0.000721171
-0.000741951
-0.000781753
-0.000848744
-0.000950886
-0.00110324
-0.00134396
-0.00171922
-0.00229543
-0.0031997
-0.00441226
-0.0057282
-0.00687653
-0.00737389
-0.00725049
-0.00641447
-0.00540327
-0.00438815
-0.00442091
-0.0036674
-0.000858092
-0.000877675
-0.000917652
-0.000984401
-0.00108546
-0.00121696
-0.00143161
-0.00173761
-0.00217231
-0.00277351
-0.00353989
-0.00434494
-0.00507209
-0.0054042
-0.00532494
-0.00481198
-0.00417628
-0.00349249
-0.00367104
-0.00309475
-0.000978446
-0.000995125
-0.00103123
-0.00109042
-0.0011773
-0.00129842
-0.00147215
-0.0017085
-0.00201981
-0.00240971
-0.00288124
-0.00334788
-0.00376125
-0.00394149
-0.0038661
-0.00354888
-0.00317989
-0.00271649
-0.00302166
-0.00263219
-0.00108209
-0.00109517
-0.00112314
-0.00117131
-0.00124276
-0.00134309
-0.00147974
-0.00165724
-0.00187842
-0.00213418
-0.00243048
-0.002691
-0.00290621
-0.00299901
-0.00292123
-0.00272451
-0.00255959
-0.00213692
-0.00272613
-0.00214979
-0.00117232
-0.00117928
-0.0011964
-0.00123049
-0.00128494
-0.00136307
-0.00146793
-0.00160052
-0.00176031
-0.00193523
-0.00212991
-0.00228904
-0.0024092
-0.00246145
-0.00238993
-0.00224875
-0.00223248
-0.00164222
-0.00256146
-0.00160802
-0.00125118
-0.00124901
-0.00125267
-0.0012717
-0.00130901
-0.00136665
-0.00144591
-0.00154589
-0.00166492
-0.00179152
-0.00192698
-0.00203465
-0.00210794
-0.00213378
-0.00208167
-0.00196742
-0.00208752
-0.00128105
-0.00247846
-0.00109771
-0.00132367
-0.00131002
-0.00129557
-0.00129753
-0.001318
-0.00135843
-0.00141843
-0.00149596
-0.00158856
-0.00168637
-0.0017882
-0.00186949
-0.00192305
-0.00194283
-0.0019108
-0.00180378
-0.00201795
-0.00109239
-0.00253566
-0.000531513
-0.00139791
-0.00136378
-0.00132745
-0.00131135
-0.00131653
-0.00134285
-0.00138868
-0.00145132
-0.00152755
-0.00160873
-0.00169247
-0.00176136
-0.00180735
-0.00182981
-0.00181548
-0.00168664
-0.00195847
-0.00103146
-0.00259266
8.36519e-05
-0.00149195
-0.00141811
-0.001351
-0.00131362
-0.00130424
-0.00132032
-0.00135675
-0.00141092
-0.00147807
-0.00155106
-0.00162606
-0.00169059
-0.0017389
-0.00177224
-0.00178605
-0.00170132
-0.00196349
-0.00121544
-0.00248143
0.000931693
-0.00165211
-0.00147264
-0.00136832
-0.00131388
-0.00129302
-0.00130142
-0.00133077
-0.00138063
-0.00144313
-0.00151322
-0.00158464
-0.00164747
-0.00169678
-0.00172917
-0.00173503
-0.00164397
-0.0017721
-0.00116871
-0.00192735
0.0032126
-0.00203608
-0.00164474
-0.00146761
-0.00135808
-0.00131476
-0.00131798
-0.00133926
-0.00138863
-0.00144466
-0.00151528
-0.00158101
-0.00164691
-0.00169544
-0.0017402
-0.00176474
-0.00182288
-0.00205524
-0.00150821
0.000926091
0.0126443
-0.00301809
-0.00106641
-0.000912281
-0.000994766
-0.00103956
-0.0010661
-0.00111542
-0.00117985
-0.00126596
-0.00135022
-0.0014449
-0.00152616
-0.00161197
-0.00167183
-0.00168601
-0.0014911
-0.00074292
0.0025194
0.0132882
0.0347598
)
;

boundaryField
{
    movingWall
    {
        type            zeroGradient;
    }
    fixedWalls
    {
        type            zeroGradient;
    }
    frontAndBack
    {
        type            empty;
    }
}


// ************************************************************************* //
