/*--------------------------------*- C++ -*----------------------------------*\
  =========                 |
  \\      /  F ield         | OpenFOAM: The Open Source CFD Toolbox
   \\    /   O peration     | Website:  https://openfoam.org
    \\  /    A nd           | Version:  12
     \\/     M anipulation  |
\*---------------------------------------------------------------------------*/
FoamFile
{
    format      ascii;
    class       surfaceScalarField;
    location    "2";
    object      phi;
}
// * * * * * * * * * * * * * * * * * * * * * * * * * * * * * * * * * * * * * //

dimensions      [0 3 -1 0 0 0 0];

internalField   nonuniform List<scalar> 
760
(
-5.47588e-08
5.47553e-08
-1.35521e-07
8.07615e-08
-2.16368e-07
8.08474e-08
-2.96186e-07
7.9818e-08
-3.78644e-07
8.24574e-08
-4.76598e-07
9.79542e-08
-6.26508e-07
1.4991e-07
-9.07593e-07
2.81084e-07
-1.45103e-06
5.43436e-07
-2.41018e-06
9.59156e-07
-3.81912e-06
1.40893e-06
-5.29794e-06
1.47882e-06
-6.33313e-06
1.03519e-06
-6.74939e-06
4.16254e-07
-6.69602e-06
-5.33708e-08
-6.11473e-06
-5.81286e-07
-5.10846e-06
-1.00627e-06
-3.66265e-06
-1.44581e-06
-1.72824e-06
-1.93441e-06
-1.72824e-06
-1.3658e-07
1.91336e-07
-3.20155e-07
2.64336e-07
-5.17231e-07
2.77923e-07
-7.34483e-07
2.9707e-07
-9.863e-07
3.34275e-07
-1.29963e-06
4.11289e-07
-1.72548e-06
5.75758e-07
-2.34601e-06
9.01608e-07
-3.24158e-06
1.43901e-06
-4.38396e-06
2.10153e-06
-5.52481e-06
2.54979e-06
-6.39237e-06
2.34638e-06
-6.90659e-06
1.54942e-06
-7.04579e-06
5.55445e-07
-6.75187e-06
-3.47282e-07
-6.1507e-06
-1.18246e-06
-5.18708e-06
-1.96989e-06
-3.93176e-06
-2.70112e-06
-2.18071e-06
-3.68547e-06
-3.90895e-06
-1.68206e-07
3.59542e-07
-3.92654e-07
4.88785e-07
-6.38955e-07
5.24224e-07
-9.18279e-07
5.76394e-07
-1.24975e-06
6.65743e-07
-1.66115e-06
8.22694e-07
-2.19112e-06
1.10573e-06
-2.88341e-06
1.59389e-06
-3.74497e-06
2.30057e-06
-4.65961e-06
3.01617e-06
-5.42394e-06
3.31412e-06
-5.9151e-06
2.83754e-06
-6.05838e-06
1.69269e-06
-5.91658e-06
4.13641e-07
-5.51722e-06
-7.46641e-07
-4.84802e-06
-1.85166e-06
-4.0312e-06
-2.78671e-06
-3.11804e-06
-3.61428e-06
-1.89454e-06
-4.90897e-06
-5.80349e-06
-1.70084e-07
5.29626e-07
-3.99085e-07
7.17786e-07
-6.52142e-07
7.7728e-07
-9.39583e-07
8.63835e-07
-1.27847e-06
1.00463e-06
-1.68919e-06
1.23342e-06
-2.19029e-06
1.60683e-06
-2.78523e-06
2.18884e-06
-3.46101e-06
2.97634e-06
-4.08892e-06
3.64409e-06
-4.53849e-06
3.76369e-06
-4.7677e-06
3.06675e-06
-4.81474e-06
1.73973e-06
-4.67512e-06
2.74025e-07
-4.31349e-06
-1.10827e-06
-3.64496e-06
-2.5202e-06
-2.91539e-06
-3.51627e-06
-2.27837e-06
-4.25131e-06
-1.43816e-06
-5.74917e-06
-7.24165e-06
-1.5283e-07
6.82456e-07
-3.62891e-07
9.27847e-07
-5.93913e-07
1.0083e-06
-8.50865e-07
1.12079e-06
-1.14364e-06
1.2974e-06
-1.48026e-06
1.57004e-06
-1.86172e-06
1.98829e-06
-2.2733e-06
2.60041e-06
-2.7019e-06
3.40495e-06
-3.0347e-06
3.97688e-06
-3.26607e-06
3.99507e-06
-3.42078e-06
3.22145e-06
-3.51208e-06
1.83104e-06
-3.44549e-06
2.07433e-07
-3.1512e-06
-1.40256e-06
-2.66358e-06
-3.00781e-06
-2.07198e-06
-4.10787e-06
-1.52373e-06
-4.79956e-06
-1.1439e-06
-6.12901e-06
-8.38555e-06
-1.24025e-07
8.06481e-07
-2.99854e-07
1.10368e-06
-4.91099e-07
1.19955e-06
-6.94709e-07
1.3244e-06
-9.11776e-07
1.51447e-06
-1.13758e-06
1.79584e-06
-1.357e-06
2.20772e-06
-1.54749e-06
2.7909e-06
-1.67551e-06
3.53297e-06
-1.72074e-06
4.02211e-06
-1.74015e-06
4.01448e-06
-1.81582e-06
3.29712e-06
-1.87614e-06
1.89136e-06
-1.83187e-06
1.63163e-07
-1.66461e-06
-1.56982e-06
-1.42427e-06
-3.24815e-06
-1.13335e-06
-4.39879e-06
-8.31037e-07
-5.10187e-06
-6.94505e-07
-6.26554e-06
-9.08006e-06
-8.92724e-08
8.95753e-07
-2.23386e-07
1.23779e-06
-3.67204e-07
1.34337e-06
-5.09224e-07
1.46642e-06
-6.42815e-07
1.64806e-06
-7.53857e-07
1.90688e-06
-8.13741e-07
2.2676e-06
-7.76982e-07
2.75414e-06
-6.13088e-07
3.36908e-06
-4.16243e-07
3.82526e-06
-2.13735e-07
3.81197e-06
-1.12046e-07
3.19543e-06
-7.35839e-08
1.8529e-06
-1.03701e-07
1.9328e-07
-9.93034e-09
-1.6636e-06
-3.95281e-08
-3.21856e-06
-1.19078e-07
-4.31924e-06
-2.97401e-07
-4.92355e-06
-4.30568e-07
-6.13237e-06
-9.51063e-06
-5.33063e-08
9.4906e-07
-1.45923e-07
1.33041e-06
-2.42121e-07
1.43956e-06
-3.25456e-07
1.54975e-06
-3.84084e-07
1.70669e-06
-3.98801e-07
1.9216e-06
-3.38432e-07
2.20723e-06
-1.47103e-07
2.56281e-06
2.23367e-07
2.99861e-06
6.76155e-07
3.37247e-06
1.12316e-06
3.36497e-06
1.48182e-06
2.83677e-06
1.60205e-06
1.73267e-06
1.5011e-06
2.94227e-07
1.28009e-06
-1.44259e-06
9.66289e-07
-2.90475e-06
5.20799e-07
-3.87375e-06
6.30769e-08
-4.46583e-06
-2.09171e-07
-5.86012e-06
-9.7198e-06
-2.09175e-08
9.69977e-07
-7.63108e-08
1.3858e-06
-1.30391e-07
1.49365e-06
-1.64771e-07
1.58413e-06
-1.65328e-07
1.70724e-06
-1.11926e-07
1.8682e-06
2.51296e-08
2.07018e-06
2.71399e-07
2.31654e-06
6.94186e-07
2.57582e-06
1.26941e-06
2.79725e-06
1.84426e-06
2.79012e-06
2.29857e-06
2.38247e-06
2.50805e-06
1.52319e-06
2.45775e-06
3.44521e-07
2.06402e-06
-1.04885e-06
1.51895e-06
-2.35968e-06
8.38436e-07
-3.19324e-06
2.44593e-07
-3.87198e-06
-1.30634e-07
-5.4849e-06
-9.85043e-06
3.90735e-09
9.6607e-07
-2.04529e-08
1.41016e-06
-4.0792e-08
1.51398e-06
-3.79386e-08
1.58128e-06
2.38708e-09
1.66692e-06
9.15059e-08
1.77908e-06
2.5085e-07
1.91083e-06
5.12581e-07
2.05481e-06
9.03677e-07
2.18472e-06
1.43137e-06
2.26956e-06
2.0058e-06
2.21569e-06
2.46992e-06
1.91835e-06
2.71742e-06
1.27569e-06
2.69539e-06
3.66553e-07
2.32567e-06
-6.79129e-07
1.75927e-06
-1.79329e-06
1.02328e-06
-2.45725e-06
3.58282e-07
-3.20698e-06
-3.233e-08
-5.09428e-06
-9.88276e-06
1.91806e-08
9.46889e-07
1.80613e-08
1.41128e-06
2.16589e-08
1.51039e-06
4.89425e-08
1.55399e-06
1.0987e-07
1.60599e-06
2.17633e-07
1.67132e-06
3.84543e-07
1.74392e-06
6.2665e-07
1.8127e-06
9.52902e-07
1.85847e-06
1.37202e-06
1.85044e-06
1.83964e-06
1.74807e-06
2.24622e-06
1.51176e-06
2.47896e-06
1.04295e-06
2.501e-06
3.44511e-07
2.16625e-06
-3.44379e-07
1.62831e-06
-1.25535e-06
9.11879e-07
-1.74081e-06
2.46101e-07
-2.54121e-06
-5.14044e-08
-4.79678e-06
-9.93416e-06
2.59275e-08
9.20962e-07
3.77569e-08
1.39945e-06
5.78868e-08
1.49026e-06
9.95185e-08
1.51236e-06
1.73446e-07
1.53206e-06
2.86713e-07
1.55805e-06
4.45671e-07
1.58496e-06
6.56823e-07
1.60155e-06
9.20628e-07
1.59467e-06
1.23321e-06
1.53785e-06
1.56506e-06
1.41622e-06
1.87105e-06
1.20577e-06
2.04667e-06
8.67334e-07
2.05957e-06
3.31616e-07
1.80716e-06
-9.19768e-08
1.35607e-06
-8.04257e-07
7.65388e-07
-1.15013e-06
1.80524e-07
-1.95634e-06
-1.15632e-07
-4.50062e-06
-1.00498e-05
2.15467e-08
8.99415e-07
3.65156e-08
1.38448e-06
6.5182e-08
1.46159e-06
1.17861e-07
1.45968e-06
1.97334e-07
1.45259e-06
3.08638e-07
1.44675e-06
4.54403e-07
1.4392e-06
6.347e-07
1.42125e-06
8.46567e-07
1.3828e-06
1.07811e-06
1.30631e-06
1.30819e-06
1.18614e-06
1.51886e-06
9.95108e-07
1.64696e-06
7.39238e-07
1.62086e-06
3.57718e-07
1.44172e-06
8.71601e-08
1.09015e-06
-4.52685e-07
6.32276e-07
-6.92259e-07
1.37148e-07
-1.46121e-06
-1.23064e-07
-4.24041e-06
-1.01729e-05
5.03513e-09
8.9438e-07
1.87905e-08
1.37073e-06
4.93669e-08
1.43101e-06
1.06992e-07
1.40206e-06
1.90683e-07
1.3689e-06
2.99538e-07
1.33789e-06
4.33e-07
1.30574e-06
5.88295e-07
1.26596e-06
7.60392e-07
1.2107e-06
9.36578e-07
1.13012e-06
1.10361e-06
1.01911e-06
1.23824e-06
8.60482e-07
1.31476e-06
6.62712e-07
1.27478e-06
3.97698e-07
1.14623e-06
2.15715e-07
8.78389e-07
-1.84848e-07
5.31396e-07
-3.45266e-07
4.79583e-08
-9.77776e-07
-1.47267e-07
-4.04519e-06
-1.03201e-05
-2.25264e-08
9.16907e-07
-1.93206e-08
1.36752e-06
1.36545e-08
1.39804e-06
7.29697e-08
1.34274e-06
1.56232e-07
1.28564e-06
2.61205e-07
1.23292e-06
3.84304e-07
1.18264e-06
5.21002e-07
1.12926e-06
6.65021e-07
1.06668e-06
8.05572e-07
9.89573e-07
9.34053e-07
8.90625e-07
1.02223e-06
7.72302e-07
1.06452e-06
6.20423e-07
1.03605e-06
4.26171e-07
9.41498e-07
3.10266e-07
6.99274e-07
5.73763e-08
4.59465e-07
-1.05457e-07
5.60825e-08
-5.74393e-07
-4.75728e-08
-3.94153e-06
-1.03677e-05
-7.91116e-08
9.96018e-07
-9.17136e-08
1.38012e-06
-6.07515e-08
1.36708e-06
7.41498e-09
1.27458e-06
1.02223e-07
1.19083e-06
2.12252e-07
1.12289e-06
3.33201e-07
1.06169e-06
4.60332e-07
1.00213e-06
5.87512e-07
9.39502e-07
7.0686e-07
8.70226e-07
8.10976e-07
7.86508e-07
8.77946e-07
7.05332e-07
9.03196e-07
5.95172e-07
8.6898e-07
4.60388e-07
7.81838e-07
3.97408e-07
5.62222e-07
2.76992e-07
4.15465e-07
4.12998e-08
9.77249e-08
-2.56653e-07
1.01333e-07
-3.94514e-06
-1.02664e-05
-1.57684e-07
1.1537e-06
-1.93774e-07
1.41621e-06
-1.40213e-07
1.31352e-06
-6.15101e-08
1.19587e-06
3.30704e-08
1.09625e-06
1.41702e-07
1.01426e-06
2.61005e-07
9.42387e-07
3.80746e-07
8.82389e-07
4.98199e-07
8.22049e-07
6.035e-07
7.64925e-07
6.92127e-07
6.97881e-07
7.55481e-07
6.41978e-07
7.86063e-07
5.64591e-07
7.74703e-07
4.71748e-07
7.40376e-07
4.31735e-07
6.21515e-07
3.95854e-07
4.54177e-07
2.08638e-07
3.10732e-07
-1.13208e-07
4.05751e-07
-4.04016e-06
-9.86062e-06
-4.39955e-07
1.59366e-06
-4.44621e-07
1.42088e-06
-3.29375e-07
1.19827e-06
-2.01033e-07
1.06753e-06
-6.48e-08
9.60015e-07
6.86914e-08
8.80766e-07
2.08102e-07
8.02977e-07
3.40155e-07
7.50336e-07
4.69709e-07
6.92494e-07
5.82043e-07
6.52592e-07
6.80829e-07
5.99094e-07
7.56774e-07
5.66033e-07
7.95904e-07
5.25461e-07
7.9038e-07
4.77272e-07
7.37202e-07
4.84913e-07
6.14668e-07
5.18387e-07
5.16561e-07
3.06745e-07
7.76816e-07
-3.73463e-07
9.35252e-07
-4.19859e-06
-8.92536e-06
-6.48871e-07
2.24253e-06
-4.82744e-07
1.25475e-06
-2.29535e-07
9.45061e-07
-1.29518e-08
8.50947e-07
2.00953e-07
7.46111e-07
3.90724e-07
6.90995e-07
5.94845e-07
5.98855e-07
7.68822e-07
5.7636e-07
9.5842e-07
5.02896e-07
1.10636e-06
5.04655e-07
1.2687e-06
4.36751e-07
1.38033e-06
4.54405e-07
1.50663e-06
3.99156e-07
1.55805e-06
4.25851e-07
1.67224e-06
3.70726e-07
1.83276e-06
3.57865e-07
2.07627e-06
6.324e-08
2.54685e-06
-8.4405e-07
2.09667e-06
-3.74841e-06
-6.82869e-06
2.24253e-06
3.49728e-06
4.44234e-06
5.29329e-06
6.0394e-06
6.73039e-06
7.32925e-06
7.90561e-06
8.4085e-06
8.91316e-06
9.34991e-06
9.80431e-06
1.02035e-05
1.06293e-05
1.1e-05
1.13579e-05
1.14212e-05
1.05771e-05
6.82869e-06
)
;

boundaryField
{
    movingWall
    {
        type            calculated;
        value           uniform 0;
    }
    fixedWalls
    {
        type            calculated;
        value           uniform 0;
    }
    frontAndBack
    {
        type            empty;
    }
}


// ************************************************************************* //
