/*--------------------------------*- C++ -*----------------------------------*\
  =========                 |
  \\      /  F ield         | OpenFOAM: The Open Source CFD Toolbox
   \\    /   O peration     | Website:  https://openfoam.org
    \\  /    A nd           | Version:  12
     \\/     M anipulation  |
\*---------------------------------------------------------------------------*/
FoamFile
{
    format      ascii;
    class       volVectorField;
    location    "2";
    object      U;
}
// * * * * * * * * * * * * * * * * * * * * * * * * * * * * * * * * * * * * * //

dimensions      [0 1 -1 0 0 0 0];

internalField   nonuniform List<vector> 
400
(
(-0.0004527 0.000257959 0)
(-0.00180207 0.0004465 0)
(-0.00350774 0.000398717 0)
(-0.00508336 0.000302542 0)
(-0.0066689 0.000188806 0)
(-0.00839796 0.000110857 0)
(-0.0107194 0.00024382 0)
(-0.0146677 0.000977186 0)
(-0.0219135 0.00307972 0)
(-0.0349441 0.00779947 0)
(-0.0584757 0.0145687 0)
(-0.0953169 0.0170676 0)
(-0.123251 0.0129386 0)
(-0.134371 0.00769962 0)
(-0.137474 0.00262193 0)
(-0.129109 -0.00526556 0)
(-0.109733 -0.00871964 0)
(-0.0858964 -0.0145807 0)
(-0.053111 -0.0177867 0)
(-0.01827 -0.00862288 0)
(-0.00119631 0.00214227 0)
(-0.00436628 0.00304883 0)
(-0.00829011 0.00312301 0)
(-0.0123447 0.00320867 0)
(-0.0169213 0.00347617 0)
(-0.0223645 0.00425917 0)
(-0.0294383 0.00636286 0)
(-0.0394169 0.0111325 0)
(-0.0536887 0.0197757 0)
(-0.0736236 0.0314502 0)
(-0.0996503 0.040689 0)
(-0.125156 0.0390912 0)
(-0.137782 0.0264081 0)
(-0.142784 0.00832532 0)
(-0.140109 -0.00529456 0)
(-0.129093 -0.0205644 0)
(-0.111626 -0.0350695 0)
(-0.088281 -0.0471023 0)
(-0.0601562 -0.0605721 0)
(-0.0245908 -0.0583125 0)
(-0.00147269 0.0054781 0)
(-0.00536359 0.00748116 0)
(-0.0101831 0.00796194 0)
(-0.0153104 0.00866699 0)
(-0.0212629 0.00992897 0)
(-0.0284344 0.0122865 0)
(-0.0375043 0.0168367 0)
(-0.0492834 0.0251692 0)
(-0.0641718 0.0380058 0)
(-0.0823625 0.0520849 0)
(-0.103114 0.058864 0)
(-0.11907 0.0508417 0)
(-0.125417 0.0308819 0)
(-0.121111 0.0100114 0)
(-0.113096 -0.0109216 0)
(-0.103934 -0.0310397 0)
(-0.0867726 -0.0500228 0)
(-0.069679 -0.0688935 0)
(-0.0476786 -0.0938565 0)
(-0.023874 -0.105 0)
(-0.00146851 0.00889295 0)
(-0.00543765 0.0120582 0)
(-0.0103634 0.0130062 0)
(-0.0156263 0.0144069 0)
(-0.0217288 0.01674 0)
(-0.0289689 0.0206707 0)
(-0.0377446 0.0273911 0)
(-0.0483438 0.0383107 0)
(-0.0605788 0.0531338 0)
(-0.0744684 0.0666872 0)
(-0.0888532 0.0704127 0)
(-0.0991782 0.058055 0)
(-0.100203 0.0333479 0)
(-0.0946884 0.00608185 0)
(-0.0889691 -0.0188467 0)
(-0.0785144 -0.0439442 0)
(-0.0640258 -0.0632453 0)
(-0.0480754 -0.079934 0)
(-0.04149 -0.110775 0)
(-0.00977183 -0.134687 0)
(-0.00128434 0.0121398 0)
(-0.00491768 0.016463 0)
(-0.0094347 0.0178695 0)
(-0.014184 0.019885 0)
(-0.0195493 0.0231054 0)
(-0.025646 0.0281947 0)
(-0.0325105 0.0362049 0)
(-0.0399724 0.0481896 0)
(-0.0486046 0.06395 0)
(-0.0568254 0.0765605 0)
(-0.0648979 0.077143 0)
(-0.0720287 0.0612527 0)
(-0.0722707 0.0333708 0)
(-0.0703254 0.00295373 0)
(-0.0650685 -0.0285901 0)
(-0.0551049 -0.0610056 0)
(-0.048127 -0.082198 0)
(-0.0305396 -0.0958112 0)
(-0.0332182 -0.123302 0)
(-0.00699451 -0.162196 0)
(-0.000994856 0.0149203 0)
(-0.00403028 0.0203652 0)
(-0.00781096 0.0221246 0)
(-0.0116613 0.024531 0)
(-0.0157816 0.0282547 0)
(-0.0200977 0.0338857 0)
(-0.0243775 0.0423275 0)
(-0.0279845 0.0545152 0)
(-0.0316818 0.070605 0)
(-0.0342129 0.0802599 0)
(-0.035096 0.0801012 0)
(-0.0390253 0.0643682 0)
(-0.0392517 0.0360265 0)
(-0.0375306 0.00342718 0)
(-0.0354271 -0.0317378 0)
(-0.0262889 -0.065837 0)
(-0.0277416 -0.0886057 0)
(-0.0136642 -0.101079 0)
(-0.0231478 -0.124516 0)
(-0.000265088 -0.175285 0)
(-0.000672317 0.0170856 0)
(-0.00294122 0.0234768 0)
(-0.00585633 0.0255009 0)
(-0.00865384 0.0280131 0)
(-0.0113763 0.0317852 0)
(-0.0137887 0.0372658 0)
(-0.0155012 0.0451079 0)
(-0.0156992 0.0560068 0)
(-0.0133432 0.0700542 0)
(-0.0108026 0.080281 0)
(-0.00668769 0.0799375 0)
(-0.00367777 0.0668334 0)
(-0.00220353 0.0379079 0)
(-0.000903431 0.00227359 0)
(-0.00364443 -0.0323424 0)
(0.00375947 -0.0634624 0)
(-0.00488789 -0.0863587 0)
(0.00157074 -0.0992779 0)
(-0.0160993 -0.123346 0)
(0.00209836 -0.185997 0)
(-0.000330093 0.0185265 0)
(-0.00183665 0.0257609 0)
(-0.00387955 0.0279216 0)
(-0.00564935 0.030282 0)
(-0.00708204 0.033711 0)
(-0.00785127 0.0385106 0)
(-0.0074942 0.04506 0)
(-0.00526407 0.0536217 0)
(0.000344318 0.064341 0)
(0.00849656 0.0738228 0)
(0.017216 0.0744996 0)
(0.0251273 0.0638675 0)
(0.0297177 0.0399932 0)
(0.0321094 0.00709834 0)
(0.0269967 -0.030078 0)
(0.0285658 -0.0599307 0)
(0.0121236 -0.0802661 0)
(0.0120924 -0.0918467 0)
(-0.0111104 -0.117374 0)
(0.00515109 -0.190675 0)
(-1.74833e-05 0.0192775 0)
(-0.000846663 0.0272466 0)
(-0.00210874 0.029433 0)
(-0.00299528 0.0314588 0)
(-0.00339175 0.0342986 0)
(-0.0029325 0.0381021 0)
(-0.00127378 0.0430345 0)
(0.00240685 0.0491123 0)
(0.00904221 0.0561948 0)
(0.0193717 0.0626421 0)
(0.0301274 0.0638184 0)
(0.04123 0.0548883 0)
(0.0463995 0.035058 0)
(0.0519241 0.00755354 0)
(0.044073 -0.0231826 0)
(0.0426268 -0.0509153 0)
(0.0204337 -0.0695603 0)
(0.0172682 -0.0823703 0)
(-0.0104737 -0.11255 0)
(0.00719623 -0.193554 0)
(0.000235445 0.019417 0)
(-7.69736e-05 0.0280594 0)
(-0.000687956 0.0301822 0)
(-0.000880884 0.0317825 0)
(-0.000550578 0.0338866 0)
(0.000672215 0.0366472 0)
(0.00311345 0.0400091 0)
(0.00726448 0.0439218 0)
(0.0136777 0.0477548 0)
(0.0229215 0.0508408 0)
(0.0336703 0.0504926 0)
(0.0452712 0.0437549 0)
(0.050137 0.0287462 0)
(0.0570535 0.00768903 0)
(0.0488506 -0.0165593 0)
(0.0472184 -0.0398726 0)
(0.0246298 -0.0541965 0)
(0.0205631 -0.0685912 0)
(-0.00961111 -0.102169 0)
(0.00923239 -0.194715 0)
(0.000329649 0.0191939 0)
(0.000447169 0.0283108 0)
(0.000299938 0.0303527 0)
(0.000593207 0.0314489 0)
(0.00142782 0.032853 0)
(0.00307966 0.0346379 0)
(0.00578659 0.0366733 0)
(0.00981457 0.0387633 0)
(0.0154526 0.0404046 0)
(0.0228873 0.0409226 0)
(0.0312251 0.0389723 0)
(0.0423185 0.0336424 0)
(0.0450616 0.0225826 0)
(0.0532117 0.00715423 0)
(0.0457241 -0.0100425 0)
(0.0430337 -0.0301391 0)
(0.0213776 -0.0415096 0)
(0.0189883 -0.0571143 0)
(-0.0118209 -0.0970819 0)
(0.0107795 -0.197733 0)
(0.000368449 0.0187204 0)
(0.000673989 0.0281548 0)
(0.000882857 0.0300738 0)
(0.00146941 0.0307749 0)
(0.00258323 0.0314774 0)
(0.00444171 0.0323939 0)
(0.00713364 0.0333766 0)
(0.0107987 0.0341755 0)
(0.0154658 0.0344474 0)
(0.02148 0.0335306 0)
(0.0269494 0.0308941 0)
(0.0359576 0.0260639 0)
(0.0372473 0.0180585 0)
(0.0440274 0.00575946 0)
(0.0382291 -0.00429964 0)
(0.0356899 -0.021163 0)
(0.0162404 -0.0286139 0)
(0.0185825 -0.0452651 0)
(-0.0140986 -0.0939862 0)
(0.0114567 -0.200759 0)
(0.000281814 0.0182009 0)
(0.000604509 0.0278812 0)
(0.000906037 0.029567 0)
(0.00174543 0.0297769 0)
(0.00302441 0.029923 0)
(0.00491974 0.0301094 0)
(0.00747333 0.0302703 0)
(0.0107266 0.0301881 0)
(0.0145291 0.0296275 0)
(0.0193623 0.0280965 0)
(0.0230044 0.0254402 0)
(0.0294958 0.0210616 0)
(0.0302853 0.0151593 0)
(0.0348356 0.00631078 0)
(0.0304823 0.000124096 0)
(0.0290689 -0.0125025 0)
(0.0110493 -0.0188515 0)
(0.0191596 -0.0338118 0)
(-0.0166774 -0.0882359 0)
(0.0143811 -0.202632 0)
(-2.86564e-05 0.0179004 0)
(0.000253114 0.0276171 0)
(0.000542753 0.029018 0)
(0.0014529 0.0286933 0)
(0.00286813 0.0282791 0)
(0.00478215 0.0279104 0)
(0.00719695 0.0274938 0)
(0.0100934 0.0268763 0)
(0.0132659 0.025851 0)
(0.0171004 0.0241546 0)
(0.0197846 0.0216884 0)
(0.0243391 0.0179684 0)
(0.02456 0.0134208 0)
(0.0274757 0.00724807 0)
(0.0239033 0.00293988 0)
(0.024201 -0.00635478 0)
(0.00673738 -0.0099634 0)
(0.0199383 -0.0246302 0)
(-0.0202534 -0.0828772 0)
(0.0176896 -0.205748 0)
(-0.000340464 0.018074 0)
(-0.000487101 0.027307 0)
(-0.000201839 0.0282072 0)
(0.000761097 0.0274899 0)
(0.00217177 0.0266201 0)
(0.00406691 0.0257522 0)
(0.00634565 0.0248805 0)
(0.0089629 0.0238859 0)
(0.0117064 0.022644 0)
(0.0148117 0.0209805 0)
(0.0169688 0.0187823 0)
(0.020325 0.0159227 0)
(0.0201412 0.0123945 0)
(0.0220651 0.00801026 0)
(0.0191417 0.00516254 0)
(0.0209313 -0.00147326 0)
(0.0027827 -0.00439274 0)
(0.0211237 -0.0150174 0)
(-0.0216515 -0.0798071 0)
(0.0223453 -0.207928 0)
(-0.00119083 0.0189426 0)
(-0.00176864 0.0275889 0)
(-0.00170955 0.0278624 0)
(-0.000703978 0.0262733 0)
(0.000996906 0.0248148 0)
(0.00306643 0.023647 0)
(0.00537534 0.0225238 0)
(0.00787366 0.0213829 0)
(0.0103783 0.0200686 0)
(0.0130321 0.0185574 0)
(0.0148892 0.0166245 0)
(0.0174689 0.0145971 0)
(0.0174005 0.0119918 0)
(0.0183533 0.00863741 0)
(0.015623 0.00702533 0)
(0.0181588 0.00406606 0)
(0.000307656 0.00048393 0)
(0.0217109 -0.00702309 0)
(-0.0213623 -0.0790031 0)
(0.029094 -0.210655 0)
(-0.00192099 0.0215901 0)
(-0.00392916 0.0276444 0)
(-0.00356919 0.0269054 0)
(-0.00210746 0.0250203 0)
(-0.000386781 0.0232014 0)
(0.00167813 0.0215881 0)
(0.00396465 0.0202013 0)
(0.00637838 0.0189134 0)
(0.00871872 0.0176644 0)
(0.0110987 0.0163309 0)
(0.012765 0.0147981 0)
(0.0148722 0.0134163 0)
(0.0151972 0.0114377 0)
(0.0160418 0.00928262 0)
(0.0141993 0.00818534 0)
(0.0176629 0.00607134 0)
(0.00335031 0.000715408 0)
(0.0198924 -0.00472282 0)
(-0.0138182 -0.0819271 0)
(0.0380576 -0.213653 0)
(-0.0062422 0.0260883 0)
(-0.0100741 0.0302677 0)
(-0.00800963 0.0267778 0)
(-0.0053975 0.0235681 0)
(-0.00269569 0.0212185 0)
(8.19551e-06 0.0195848 0)
(0.00274263 0.0180548 0)
(0.00546889 0.0169318 0)
(0.00806744 0.0156853 0)
(0.0105943 0.0147015 0)
(0.0124955 0.0134475 0)
(0.0146675 0.0125939 0)
(0.0154135 0.0113877 0)
(0.0162499 0.010034 0)
(0.014695 0.00982914 0)
(0.0165662 0.0111358 0)
(0.00490783 0.0092144 0)
(0.0201751 0.0013259 0)
(0.000547036 -0.0909025 0)
(0.0509956 -0.212417 0)
(-0.010072 0.0402254 0)
(-0.0135493 0.0225134 0)
(-0.00666058 0.0175371 0)
(-0.0025811 0.0164799 0)
(0.00198981 0.0150406 0)
(0.00579239 0.0136517 0)
(0.0100122 0.0122665 0)
(0.0134715 0.0113712 0)
(0.0174708 0.0104974 0)
(0.0205245 0.00995779 0)
(0.0238724 0.00926 0)
(0.0265306 0.00885101 0)
(0.0289538 0.00866445 0)
(0.0310045 0.00810558 0)
(0.032121 0.00843443 0)
(0.0360303 0.00715857 0)
(0.0327483 -0.000304909 0)
(0.0448723 -0.0220063 0)
(0.0387903 -0.100159 0)
(0.0741383 -0.174224 0)
(0.0468058 0.0429674 0)
(0.053613 0.0324065 0)
(0.0783834 0.0245282 0)
(0.0960488 0.0208195 0)
(0.116189 0.017433 0)
(0.126379 0.0164134 0)
(0.14262 0.0138175 0)
(0.150791 0.0137038 0)
(0.164781 0.0113579 0)
(0.17201 0.0119007 0)
(0.183818 0.0096128 0)
(0.19079 0.0106723 0)
(0.200355 0.0083412 0)
(0.207228 0.00993468 0)
(0.214355 0.00745333 0)
(0.220549 0.00935961 0)
(0.224594 0.00465222 0)
(0.218576 -0.0013234 0)
(0.190428 -0.0122516 0)
(0.144519 -0.0314904 0)
)
;

boundaryField
{
    movingWall
    {
        type            fixedValue;
        value           uniform (1 0 0);
    }
    fixedWalls
    {
        type            noSlip;
    }
    frontAndBack
    {
        type            empty;
    }
}


// ************************************************************************* //
