/*--------------------------------*- C++ -*----------------------------------*\
  =========                 |
  \\      /  F ield         | OpenFOAM: The Open Source CFD Toolbox
   \\    /   O peration     | Website:  https://openfoam.org
    \\  /    A nd           | Version:  12
     \\/     M anipulation  |
\*---------------------------------------------------------------------------*/
FoamFile
{
    format      ascii;
    class       volScalarField;
    location    "0.05";
    object      epsilon;
}
// * * * * * * * * * * * * * * * * * * * * * * * * * * * * * * * * * * * * * //

dimensions      [0 2 -3 0 0 0 0];

internalField   nonuniform List<scalar> 
12225
(
278.515
263.66
249.434
236.84
226.742
219.492
215.086
213.292
213.753
216.062
219.815
224.643
230.228
236.305
242.674
249.173
255.832
265.707
61.1166
86.6983
97.9989
107.223
118.495
132.611
149.503
168.756
189.794
211.992
234.76
257.589
280.076
301.927
323.042
343.264
363.833
383.732
25.2777
36.1837
43.3838
48.626
53.3956
58.3527
63.7978
69.8684
76.5904
83.9167
91.7584
100.007
108.552
117.295
126.166
135.138
144.31
153.79
17.5217
21.2989
24.7154
27.612
30.1658
32.5466
34.877
37.2438
39.7003
42.2735
44.9715
47.7901
50.7189
53.746
56.8626
60.075
63.3961
66.8683
15.4879
16.752
18.1862
19.5898
20.9112
22.1519
23.331
24.4721
25.5964
26.7191
27.8503
28.9959
30.1588
31.3409
32.5438
33.7726
35.032
36.323
14.9085
15.2397
15.7465
16.3345
16.9484
17.5603
18.158
18.739
19.305
19.8593
20.4053
20.9456
21.4825
22.0179
22.5536
23.0921
23.6353
24.1787
14.7451
14.7391
14.8342
15.0037
15.2219
15.4685
15.7296
15.9965
16.2643
16.5308
16.7948
17.056
17.3145
17.5706
17.825
18.0784
18.3315
18.5802
14.7013
14.5825
14.5116
14.4858
14.4982
14.5405
14.6047
14.6844
14.7748
14.8723
14.9747
15.0802
15.1877
15.2965
15.4062
15.5167
15.6278
15.7368
14.6901
14.5373
14.407
14.3008
14.2182
14.1571
14.1146
14.0877
14.0736
14.0698
14.0744
14.0857
14.1024
14.1235
14.1483
14.1762
14.2067
14.2381
14.6874
14.5252
14.3761
14.2411
14.1203
14.0136
13.9202
13.839
13.7688
13.7083
13.6565
13.6122
13.5745
13.5426
13.5157
13.4934
13.475
13.4598
14.6868
14.5221
14.3677
14.2236
14.0895
13.9654
13.851
13.7458
13.6493
13.5608
13.4798
13.4058
13.3381
13.2761
13.2195
13.1678
13.1205
13.0775
14.6866
14.5213
14.3656
14.219
14.0812
13.9517
13.8303
13.7166
13.6102
13.5107
13.4178
13.3309
13.2498
13.1741
13.1034
13.0374
12.9758
12.9187
14.6865
14.521
14.3648
14.2175
14.0784
13.9472
13.8233
13.7063
13.596
13.4919
13.3937
13.301
13.2136
13.1312
13.0534
12.9801
12.911
12.8464
14.6864
14.5208
14.3645
14.2169
14.0774
13.9455
13.8208
13.7028
13.591
13.4852
13.3849
13.2899
13.1999
13.1145
13.0336
12.9569
12.8841
12.8159
14.6864
14.5207
14.3643
14.2165
14.0769
13.9448
13.8198
13.7015
13.5893
13.483
13.3821
13.2864
13.1955
13.1092
13.0272
12.9493
12.8753
12.8056
14.6863
14.5206
14.3641
14.2163
14.0766
13.9444
13.8193
13.7008
13.5885
13.482
13.381
13.2851
13.194
13.1074
13.0251
12.9469
12.8725
12.8025
14.6863
14.5205
14.364
14.2161
14.0763
13.9441
13.8189
13.7004
13.588
13.4814
13.3803
13.2843
13.1932
13.1066
13.0242
12.9459
12.8714
12.8013
14.6863
14.5204
14.3639
14.216
14.0761
13.9439
13.8187
13.7001
13.5877
13.4811
13.3799
13.2839
13.1927
13.1061
13.0237
12.9453
12.8708
12.8007
14.6863
14.5204
14.3639
14.2159
14.0761
13.9438
13.8186
13.7
13.5876
13.481
13.3798
13.2838
13.1926
13.106
13.0236
12.9452
12.8708
12.8007
14.6863
14.5205
14.3639
14.216
14.0762
13.9439
13.8188
13.7002
13.5878
13.4813
13.3802
13.2843
13.1931
13.1065
13.0242
12.9459
12.8715
12.8015
14.6863
14.5205
14.364
14.2162
14.0765
13.9443
13.8192
13.7008
13.5887
13.4823
13.3815
13.2858
13.195
13.1088
13.0268
12.949
12.8751
12.8056
14.6863
14.5206
14.3643
14.2167
14.0774
13.9458
13.8215
13.704
13.593
13.4881
13.3889
13.2951
13.2064
13.1224
13.0429
12.9677
12.8965
12.8297
14.6865
14.5212
14.3659
14.2202
14.0837
13.9561
13.8369
13.7257
13.622
13.5252
13.435
13.3508
13.2723
13.1989
13.1303
13.0662
13.0062
12.9507
14.6876
14.5264
14.3793
14.2467
14.1282
14.0231
13.9302
13.8483
13.7762
13.7125
13.6562
13.6064
13.5622
13.523
13.488
13.4568
13.429
13.4046
14.6976
14.5664
14.4707
14.4075
14.3713
14.3566
14.3581
14.3714
14.3933
14.4213
14.4536
14.4888
14.5262
14.5649
14.6047
14.645
14.6857
14.7267
14.7737
14.8186
14.9601
15.1589
15.3859
15.6226
15.8587
16.0888
16.3112
16.5253
16.7318
16.9313
17.1247
17.3129
17.4966
17.6763
17.8525
18.0249
15.2586
16.115
17.0709
17.972
18.7866
19.5218
20.1915
20.8106
21.393
21.9494
22.4883
23.0158
23.5359
24.0517
24.5647
25.0759
25.5854
26.0906
18.0414
22.0076
24.9879
27.1518
28.8856
30.4002
31.8051
33.1675
34.5281
35.9094
37.3223
38.7705
40.2528
41.7653
43.3023
44.8573
46.4238
47.9889
34.0236
45.6864
51.3738
54.9368
58.0711
61.2817
64.7252
68.4448
72.4239
76.6191
80.9797
85.4557
90.0002
94.5715
99.1338
103.658
108.129
112.52
163.308
157.417
151.704
146.261
141.3
136.945
133.247
130.201
127.771
125.904
124.538
123.608
123.054
122.819
122.852
123.106
123.542
124.122
27.2654
38.9962
53.8861
65.1339
73.339
79.1287
82.9548
85.1474
85.9607
85.5938
84.1982
81.8802
78.7069
74.7932
70.8236
66.7984
62.5727
58.1061
53.4652
48.8717
44.8123
42.2068
42.4776
47.1668
56.9724
70.8672
86.424
100.603
113.007
128.708
149.409
176.09
208.493
245.679
286.508
329.888
374.858
420.608
466.467
511.884
556.419
599.735
641.583
681.798
720.287
757.016
792
825.288
856.953
887.083
915.771
943.114
969.204
994.129
1017.97
1040.8
1062.69
1083.69
1103.85
1123.22
1141.84
1159.73
1176.91
1193.42
1209.26
1224.45
1238.98
1252.86
1266.09
1278.67
1290.57
1301.81
1312.35
1322.19
1331.31
1339.69
1347.32
1354.18
1360.25
1365.52
1369.97
1373.58
1376.36
1378.29
1379.36
1379.57
1378.94
1377.45
1375.13
1371.99
1368.05
1363.34
1357.91
1351.78
1345.01
1337.67
1329.85
1321.65
1313.19
1304.67
1296.3
1288.38
1280.43
1272.4
1264.35
1256.31
1248.32
1240.38
1232.49
1224.66
1216.86
1209.07
1201.23
1193.28
1185.15
1176.72
1167.89
1158.49
1148.36
1137.29
1125.06
1111.41
1096.04
1078.63
1058.85
1036.35
1010.78
981.823
949.224
912.842
872.744
829.428
784.484
742.466
712.336
688.963
663.967
637.123
608.95
580.081
551.132
522.643
495.059
468.718
443.856
420.618
399.071
379.221
361.025
344.408
329.27
315.496
302.962
291.541
281.093
271.43
262.349
253.774
245.569
237.665
230.047
222.726
215.719
209.042
202.706
196.715
191.068
185.755
180.76
176.06
171.626
167.423
163.407
159.524
155.704
151.851
147.842
143.423
138.468
131.571
61.1582
52.6214
51.0526
50.2837
49.5502
48.7338
47.8099
46.7844
45.6792
44.5212
43.3348
42.1397
40.9558
39.8432
39.0499
38.4852
38.0204
37.5925
37.2381
37.1841
38.0225
40.9095
47.4568
58.9993
75.6875
96.5425
120.109
141.469
161.123
179.785
197.768
215.144
231.933
248.128
263.736
278.804
293.41
307.637
321.551
335.195
348.586
361.72
374.585
387.161
399.43
411.376
422.988
434.263
445.198
455.797
466.064
476.007
485.633
494.952
503.97
512.696
521.136
529.296
537.181
544.793
552.135
559.209
566.013
572.546
578.806
584.788
590.489
595.901
601.018
605.832
610.335
614.519
618.373
621.889
625.056
627.864
630.305
632.369
634.048
635.333
636.218
636.697
636.766
636.422
635.663
634.49
632.906
630.915
628.525
625.746
622.59
619.073
615.215
611.038
606.573
601.852
596.919
591.825
586.633
581.425
576.295
571.353
566.508
561.668
556.851
552.078
547.369
542.74
538.205
533.773
529.45
525.237
521.128
517.115
513.179
509.298
505.439
501.559
497.608
493.522
489.224
484.625
479.621
474.092
467.905
460.916
452.97
443.916
433.614
421.961
408.921
394.586
379.266
363.535
348.494
333.736
318.124
301.773
284.966
268.018
251.224
234.847
219.099
204.14
190.081
176.985
164.879
153.759
143.595
134.345
125.956
118.367
111.518
105.346
99.7952
94.8183
90.4184
86.8241
83.983
81.5759
79.4808
77.6298
75.9756
74.4808
73.1146
71.8507
70.6676
69.5484
68.4816
67.4612
66.4876
65.5681
64.7185
63.9666
63.3573
62.9665
62.9213
63.4883
65.0569
69.4839
80.7598
63.6053
56.9802
53.0057
50.1161
47.8048
45.8272
44.0554
42.4285
40.9254
39.549
38.3179
37.2645
36.4431
35.9532
35.8209
36.0914
36.8908
38.5193
41.599
47.2259
56.8826
71.7461
92.0884
115.96
138.646
158.756
175.28
188.611
199.642
209.264
218.19
226.924
235.767
244.875
254.305
264.06
274.101
284.361
294.757
305.202
315.614
325.924
336.076
346.028
355.752
365.23
374.454
383.419
392.127
400.58
408.783
416.743
424.464
431.952
439.213
446.25
453.068
459.669
466.056
472.229
478.189
483.935
489.465
494.776
499.866
504.729
509.36
513.754
517.903
521.801
525.44
528.812
531.909
534.722
537.242
539.462
541.373
542.967
544.237
545.176
545.779
546.041
545.959
545.53
544.754
543.633
542.168
540.367
538.237
535.788
533.034
529.991
526.68
523.126
519.356
515.403
511.302
507.093
502.815
498.505
494.191
489.868
485.495
481.082
476.647
472.21
467.789
463.402
459.066
454.796
450.606
446.505
442.502
438.601
434.801
431.097
427.476
423.919
420.396
416.866
413.276
409.556
405.622
401.368
396.673
391.393
385.375
378.456
370.477
361.305
350.847
339.084
326.097
312.699
298.556
283.497
267.706
251.465
235.077
218.833
202.992
187.766
173.317
159.753
147.139
135.499
124.827
115.093
106.252
98.2471
91.0186
84.5038
78.641
73.3723
68.6456
64.4144
60.6435
57.3092
54.4112
51.8607
49.6072
47.6093
45.8323
44.2467
42.827
41.551
40.3999
39.3577
38.4118
37.5524
36.7735
36.0733
35.4558
34.9331
34.5322
34.3049
34.3633
34.9244
36.6004
95.6608
69.6773
60.1169
54.994
51.5881
49.0008
46.8503
44.9582
43.2459
41.6911
40.3076
39.1371
38.2487
37.7514
37.7152
38.2335
39.4755
41.761
45.6711
52.1287
62.4374
78.0351
98.0035
120.111
141.687
160.185
174.649
185.283
193.112
199.394
205.194
211.221
217.843
225.186
233.229
241.889
251.058
260.619
270.464
280.487
290.597
300.713
310.769
320.712
330.502
340.108
349.509
358.692
367.647
376.37
384.861
393.119
401.148
408.951
416.531
423.894
431.041
437.979
444.708
451.233
457.554
463.672
469.589
475.303
480.813
486.116
491.21
496.091
500.753
505.191
509.4
513.372
517.102
520.58
523.8
526.754
529.433
531.83
533.938
535.748
537.254
538.451
539.332
539.893
540.132
540.046
539.636
538.901
537.847
536.478
534.801
532.827
530.567
528.036
525.25
522.23
518.996
515.568
511.969
508.219
504.336
500.335
496.231
492.007
487.669
483.234
478.72
474.145
469.529
464.89
460.247
455.617
451.018
446.465
441.971
437.547
433.2
428.932
424.739
420.609
416.52
412.437
408.311
404.075
399.641
394.897
389.709
383.921
377.354
369.821
361.131
351.111
339.613
326.969
313.425
298.813
283.217
266.867
250.056
233.098
216.298
199.925
184.203
169.298
155.325
142.351
130.397
119.454
109.489
100.452
92.2817
84.9133
78.2798
72.3153
66.9576
62.1482
57.8325
53.9602
50.4886
47.3863
44.626
42.1608
39.9558
37.9807
36.2089
34.617
33.1843
31.8928
30.7269
29.6731
28.7202
27.8595
27.0848
26.3933
25.787
25.2754
24.8807
24.6521
24.6819
25.17
109.441
75.3443
63.6682
57.8859
54.2864
51.662
49.5255
47.663
45.9889
44.4891
43.1982
42.1917
41.5906
41.5412
42.1344
43.5583
46.1137
50.3036
56.9747
66.7296
80.1599
97.148
116.267
135.316
152.212
165.656
175.512
182.531
187.882
192.688
197.756
203.521
210.136
217.581
225.759
234.55
243.837
253.512
263.476
273.642
283.93
294.272
304.605
314.881
325.054
335.091
344.964
354.651
364.138
373.414
382.471
391.305
399.915
408.302
416.467
424.413
432.142
439.658
446.964
454.064
460.959
467.651
474.143
480.434
486.524
492.412
498.097
503.575
508.844
513.898
518.733
523.344
527.723
531.865
535.762
539.406
542.791
545.907
548.748
551.306
553.573
555.543
557.209
558.566
559.61
560.337
560.744
560.83
560.596
560.043
559.176
557.999
556.518
554.742
552.682
550.346
547.747
544.897
541.806
538.487
534.951
531.211
527.278
523.145
518.82
514.317
509.651
504.84
499.901
494.852
489.71
484.494
479.223
473.913
468.581
463.242
457.909
452.591
447.293
442.012
436.739
431.455
426.124
420.693
415.094
409.23
402.977
396.191
388.693
380.291
370.768
359.929
347.824
334.664
320.359
304.931
288.533
271.411
253.866
236.218
218.776
201.814
185.558
170.177
155.783
142.439
130.163
118.94
108.731
99.4811
91.1248
83.5924
76.8131
70.7182
65.242
60.3232
55.9046
51.9337
48.3635
45.1544
42.2741
39.6877
37.3625
35.2701
33.3852
31.6853
30.1506
28.7633
27.5081
26.3714
25.3413
24.4082
23.5644
22.8043
22.1258
21.5312
21.0299
20.6446
20.4153
20.4146
122.71
81.6481
68.3658
62.1361
58.4439
55.8481
53.7827
52.0085
50.4385
49.0717
47.969
47.2474
47.091
47.5958
48.9755
51.4832
55.4712
61.3869
69.7135
80.7362
94.3485
109.812
125.748
140.573
153.076
162.787
170.015
175.575
180.415
185.314
190.766
196.991
204.028
211.817
220.267
229.278
238.76
248.629
258.808
269.227
279.818
290.519
301.274
312.031
322.743
333.371
343.881
354.245
364.44
374.449
384.258
393.859
403.245
412.413
421.361
430.09
438.6
446.896
454.977
462.849
470.513
477.972
485.227
492.281
499.133
505.785
512.234
518.48
524.519
530.35
535.966
541.364
546.538
551.482
556.188
560.65
564.861
568.811
572.494
575.901
579.024
581.856
584.388
586.615
588.529
590.125
591.399
592.346
592.964
593.25
593.205
592.828
592.121
591.087
589.728
588.049
586.055
583.749
581.138
578.228
575.027
571.544
567.778
563.73
559.408
554.825
549.992
544.925
539.635
534.139
528.452
522.589
516.566
510.4
504.107
497.701
491.196
484.604
477.931
471.185
464.363
457.456
450.442
443.282
435.927
428.302
420.296
411.79
402.62
392.603
381.513
369.4
356.252
341.994
326.608
310.173
292.86
274.922
256.66
238.39
220.418
203.014
186.395
170.721
156.096
142.571
130.154
118.822
108.527
99.2074
90.7923
83.208
76.3808
70.2397
64.7176
59.7518
55.285
51.2645
47.6432
44.3794
41.4375
38.7848
36.391
34.2292
32.2752
30.5077
28.9073
27.4569
26.1413
24.947
23.8621
22.8765
21.9818
21.1713
20.4406
19.7885
19.218
18.739
18.3688
18.1346
135.302
88.4987
74.0435
67.5451
63.8477
61.3414
59.4082
57.7921
56.409
55.2731
54.4692
54.1445
54.4704
55.5332
57.5728
60.8591
65.6829
72.3192
80.9422
91.4911
103.555
116.346
128.836
140.071
149.481
157.02
163.1
168.367
173.459
178.859
184.845
191.528
198.912
206.953
215.586
224.745
234.366
244.389
254.756
265.409
276.29
287.344
298.515
309.751
321.005
332.232
343.393
354.455
365.387
376.167
386.775
397.197
407.42
417.438
427.245
436.838
446.216
455.38
464.33
473.069
481.599
489.921
498.039
505.953
513.665
521.175
528.483
535.588
542.488
549.181
555.662
561.928
567.974
573.793
579.378
584.724
589.821
594.663
599.239
603.543
607.564
611.295
614.725
617.848
620.654
623.136
625.287
627.099
628.568
629.687
630.452
630.859
630.905
630.587
629.904
628.854
627.436
625.651
623.5
620.983
618.106
614.874
611.269
607.3
602.977
598.309
593.304
587.972
582.323
576.368
570.117
563.582
556.776
549.711
542.401
534.858
527.092
519.114
510.932
502.552
493.982
485.223
476.257
467.058
457.596
447.83
437.653
426.98
415.692
403.582
390.766
377.063
362.392
346.707
330.025
312.445
294.151
275.395
256.473
237.693
219.35
201.697
184.934
169.204
154.589
141.124
128.801
117.582
107.409
98.2113
89.9123
82.4338
75.6996
69.6373
64.1795
59.2639
54.8341
50.8389
47.2324
43.9738
41.027
38.3599
35.9446
33.756
31.7715
29.9708
28.3358
26.8499
25.4987
24.2689
23.1491
22.1291
21.2001
20.3552
19.5887
18.8976
18.2813
17.7432
17.2899
16.9304
146.926
95.6187
80.3617
73.7292
70.0995
67.7447
66.0088
64.6272
63.5151
62.6907
62.2444
62.3248
62.9618
64.3548
66.7198
70.2719
75.1992
81.6172
89.5083
98.657
108.622
118.784
128.483
137.207
144.733
151.167
156.851
162.22
167.671
173.491
179.842
186.791
194.346
202.484
211.17
220.366
230.031
240.123
250.597
261.406
272.501
283.83
295.342
306.984
318.709
330.469
342.22
353.925
365.55
377.064
388.443
399.666
410.718
421.585
432.258
442.731
452.999
463.06
472.913
482.558
491.996
501.227
510.254
519.078
527.699
536.118
544.334
552.347
560.155
567.756
575.146
582.322
589.277
596.007
602.504
608.761
614.771
620.524
626.012
631.226
636.154
640.788
645.117
649.131
652.821
656.175
659.186
661.842
664.135
666.058
667.6
668.756
669.517
669.877
669.83
669.371
668.494
667.196
665.473
663.323
660.746
657.74
654.278
650.373
646.036
641.27
636.083
630.479
624.464
618.044
611.224
604.012
596.415
588.441
580.102
571.405
562.357
552.962
543.226
533.152
522.755
512.048
501.017
489.635
477.88
465.786
453.217
440.098
426.544
412.364
397.501
381.863
365.391
348.069
329.939
311.122
291.809
272.255
252.747
233.583
215.034
197.331
180.648
165.097
150.735
137.571
125.575
114.693
104.852
95.9722
87.9687
80.7595
74.2661
68.4156
63.141
58.3817
54.083
50.1963
46.678
43.4897
40.5966
37.968
35.5785
33.4055
31.4282
29.6282
27.9885
26.494
25.1308
23.8869
22.751
21.7136
20.766
19.9012
19.1131
18.3975
17.7521
17.1768
16.6729
16.2416
156.685
102.41
86.7362
80.1128
76.6175
74.4634
72.9766
71.8817
71.0828
70.5845
70.4592
70.7689
71.5765
73.0674
75.4205
78.7915
83.2873
88.9326
95.6357
103.167
111.171
119.226
126.938
134.045
140.475
146.342
151.88
157.363
163.029
169.055
175.546
182.556
190.104
198.187
206.795
215.91
225.507
235.56
246.035
256.893
268.093
279.587
291.328
303.266
315.352
327.537
339.778
352.031
364.258
376.426
388.504
400.467
412.294
423.967
435.473
446.8
457.94
468.888
479.64
490.193
500.546
510.698
520.65
530.4
539.95
549.298
558.445
567.387
576.125
584.654
592.971
601.072
608.952
616.604
624.021
631.196
638.12
644.784
651.178
657.292
663.114
668.635
673.841
678.723
683.266
687.461
691.294
694.755
697.831
700.511
702.784
704.638
706.065
707.052
707.591
707.673
707.29
706.433
705.096
703.274
700.963
698.139
694.788
690.922
686.547
681.665
676.28
670.392
664.003
657.114
649.726
641.841
633.46
624.587
615.233
605.4
595.09
584.302
573.034
561.28
549.054
536.403
523.306
509.725
495.589
481.123
466.196
450.773
434.852
418.365
401.267
383.513
365.083
345.997
326.33
306.227
285.892
265.584
245.581
226.161
207.572
190.01
173.612
158.456
144.564
131.915
120.454
110.106
100.783
92.392
84.8431
78.0492
71.9299
66.4122
61.4302
56.9256
52.8467
49.1477
45.7884
42.7332
39.95
37.4103
35.0923
32.9758
31.0424
29.2756
27.6604
26.1829
24.831
23.5932
22.4597
21.4212
20.4698
19.5986
18.8016
18.0743
17.4132
16.8163
16.2824
15.8095
163.797
108.238
92.6258
86.1454
82.8174
80.8762
79.6523
78.8576
78.3746
78.1795
78.3082
78.728
79.5788
81.0045
83.1403
86.0953
89.9319
94.6425
100.133
106.222
112.659
119.173
125.531
131.594
137.335
142.835
148.238
153.708
159.395
165.415
171.847
178.742
186.129
194.023
202.43
211.346
220.761
230.66
241.018
251.805
262.986
274.519
286.361
298.464
310.782
323.267
335.872
348.554
361.272
373.987
386.667
399.281
411.803
424.211
436.487
448.615
460.583
472.382
484.003
495.442
506.694
517.756
528.624
539.298
549.776
560.055
570.133
580.009
589.679
599.139
608.385
617.412
626.213
634.783
643.114
651.196
659.021
666.579
673.859
680.85
687.539
693.915
699.965
705.674
711.031
716.02
720.629
724.843
728.648
732.03
734.976
737.471
739.504
741.06
742.127
742.692
742.746
742.277
741.275
739.732
737.638
734.947
731.669
727.809
723.368
718.346
712.743
706.556
699.783
692.422
684.47
675.923
666.774
657.02
646.679
635.749
624.224
612.098
599.361
585.988
571.968
557.437
542.344
526.675
510.434
493.683
476.407
458.603
440.274
421.408
402.001
382.055
361.599
340.698
319.468
298.083
276.769
255.783
235.398
215.865
197.399
180.155
164.229
149.654
136.415
124.457
113.697
104.038
95.3774
87.6111
80.6412
74.377
68.7369
63.6482
59.047
54.8776
51.0916
47.6468
44.5067
41.639
39.014
36.608
34.402
32.3787
30.5223
28.8185
27.2543
25.8178
24.4983
23.2859
22.1717
21.1474
20.206
19.341
18.5468
17.8187
17.153
16.5468
15.9976
15.5022
167.718
112.822
97.6952
91.3935
88.1895
86.4186
85.4279
84.9121
84.7237
84.8047
85.0855
85.6163
86.4962
87.8312
89.7221
92.2496
95.4574
99.3381
103.824
108.789
114.071
119.496
124.921
130.26
135.493
140.664
145.857
151.173
156.711
162.554
168.77
175.41
182.51
190.099
198.193
206.801
215.925
225.556
235.68
246.275
257.31
268.751
280.56
292.694
305.108
317.756
330.593
343.574
356.657
369.801
382.97
396.129
409.25
422.306
435.273
448.132
460.866
473.461
485.906
498.191
510.308
522.251
534.014
545.592
556.981
568.178
579.177
589.975
600.567
610.947
621.111
631.051
640.761
650.233
659.458
668.427
677.129
685.554
693.689
701.523
709.042
716.232
723.08
729.571
735.689
741.42
746.748
751.656
756.129
760.152
763.707
766.779
769.353
771.414
772.945
773.932
774.363
774.223
773.5
772.184
770.235
767.636
764.391
760.5
755.961
750.772
744.928
738.425
731.259
723.423
714.911
705.715
695.821
685.2
673.909
661.927
649.242
635.844
621.722
606.867
591.285
575.015
558.054
540.407
522.09
503.138
483.573
463.421
442.713
421.482
399.771
377.637
355.163
332.468
309.717
287.118
264.918
243.38
222.757
203.274
185.1
168.347
153.058
139.222
126.782
115.648
105.711
96.8529
88.9546
81.9037
75.5959
69.9379
64.8474
60.253
56.0931
52.3152
48.8743
45.7321
42.8558
40.2166
37.7874
35.5502
33.4888
31.5886
29.8366
28.2207
26.7303
25.3553
24.0867
22.9163
21.8363
20.8399
19.9207
19.073
18.2917
17.5726
16.9118
16.3062
15.7528
15.248
168.711
116.162
101.693
95.483
92.3109
90.644
89.8392
89.5655
89.6412
89.9479
90.4336
91.1375
92.1207
93.456
95.2169
97.4648
100.236
103.532
107.311
111.494
115.977
120.647
125.41
130.202
135.004
139.835
144.744
149.795
155.059
160.604
166.491
172.77
179.487
186.675
194.362
202.566
211.298
220.559
230.342
240.629
251.399
262.623
274.27
286.301
298.677
311.354
324.289
337.437
350.757
364.206
377.745
391.339
404.954
418.56
432.128
445.636
459.062
472.388
485.597
498.675
511.611
524.395
537.016
549.467
561.74
573.828
585.724
597.422
608.914
620.193
631.252
642.083
652.676
663.023
673.114
682.937
692.482
701.736
710.686
719.32
727.621
735.576
743.17
750.386
757.208
763.619
769.602
775.14
780.215
784.809
788.905
792.485
795.532
798.028
799.956
801.299
802.041
802.167
801.663
800.502
798.646
796.09
792.834
788.873
784.202
778.816
772.707
765.871
758.298
749.981
740.911
731.078
720.469
709.073
696.897
683.932
670.165
655.582
640.174
623.931
606.854
588.954
570.237
550.712
530.404
509.346
487.58
465.158
442.143
418.613
394.662
370.404
345.986
321.587
297.425
273.748
250.821
228.905
208.233
188.987
171.289
155.195
140.695
127.731
116.204
105.99
96.9561
88.9649
81.8863
75.5997
69.9971
64.984
60.4788
56.4121
52.7253
49.3692
46.3026
43.4912
40.9056
38.5203
36.3116
34.267
32.373
30.6176
28.9901
27.481
26.0817
24.7842
23.5813
22.4662
21.4328
20.4753
19.5885
18.7675
18.0079
17.3059
16.6579
16.0609
15.5118
15.0071
169.488
118.512
104.298
98.0457
94.8629
93.277
92.6363
92.5864
92.912
93.4801
94.2536
95.2346
96.4517
97.9492
99.7767
101.978
104.582
107.593
110.987
114.714
118.704
122.884
127.185
131.561
135.991
140.483
145.066
149.789
154.708
159.881
165.369
171.221
177.485
184.203
191.409
199.131
207.389
216.192
225.548
235.431
245.828
256.721
268.087
279.893
292.105
304.683
317.588
330.777
344.208
357.84
371.632
385.547
399.548
413.602
427.677
441.745
455.781
469.761
483.665
497.475
511.172
524.744
538.175
551.454
564.57
577.511
590.267
602.829
615.186
627.329
639.248
650.932
662.371
673.553
684.467
695.101
705.442
715.475
725.188
734.565
743.591
752.25
760.525
768.4
775.857
782.878
789.444
795.537
801.139
806.229
810.79
814.801
818.245
821.102
823.353
824.981
825.967
826.295
825.942
824.864
823.051
820.493
817.184
813.116
808.282
802.672
796.28
789.095
781.109
772.312
762.693
752.24
740.941
728.784
715.761
701.859
687.065
671.362
654.735
637.173
618.667
599.219
578.832
557.519
535.305
512.232
488.356
463.755
438.527
412.794
386.705
360.441
334.214
308.27
282.881
258.334
234.906
212.846
192.353
173.562
156.535
141.267
127.697
115.715
105.185
95.9539
87.8671
80.7739
74.5352
69.0261
64.1375
59.7755
55.8607
52.3268
49.1187
46.1911
43.5067
41.0347
38.7495
36.6281
34.6515
32.8119
31.0979
29.4997
28.0091
26.6188
25.3221
24.113
22.986
21.936
20.9582
20.0481
19.2015
18.4144
17.6832
17.0047
16.3758
15.7936
15.2554
14.7579
170.874
119.589
105.279
98.9758
95.8123
94.3228
93.8504
94.0288
94.6362
95.5508
96.7094
98.0886
99.6923
101.54
103.66
106.075
108.801
111.838
115.167
118.748
122.534
126.468
130.502
134.6
138.746
142.943
147.218
151.609
156.164
160.943
166.016
171.423
177.201
183.406
190.084
197.27
204.989
213.259
222.088
231.474
241.409
251.88
262.869
274.349
286.293
298.664
311.428
324.544
337.974
351.675
365.609
379.735
394.016
408.414
422.897
437.432
451.989
466.54
481.059
495.524
509.913
524.206
538.384
552.432
566.332
580.07
593.633
607.005
620.174
633.128
645.853
658.335
670.563
682.523
694.201
705.583
716.655
727.402
737.808
747.858
757.534
766.821
775.7
784.154
792.165
799.712
806.778
813.342
819.385
824.886
829.827
834.186
837.943
841.08
843.575
845.411
846.567
847.019
846.728
845.676
843.849
841.236
837.824
833.604
828.566
822.698
815.991
808.435
800.017
790.727
780.552
769.478
757.491
744.576
730.719
715.902
700.107
683.315
665.505
646.662
626.77
605.824
583.824
560.783
536.729
511.713
485.808
459.118
431.778
403.959
375.872
347.767
319.928
292.67
266.316
241.181
217.544
195.628
175.584
157.485
141.331
127.054
114.536
103.625
94.1515
85.9381
78.8141
72.6202
67.2131
62.4673
58.275
54.5453
51.2025
48.1844
45.4402
42.9285
40.6163
38.4764
36.4865
34.6248
32.8811
31.2483
29.7171
28.2802
26.9312
25.6648
24.4763
23.3614
22.3162
21.3371
20.4205
19.5633
18.7621
18.0139
17.3161
16.6657
16.0604
15.4977
14.9752
14.49
171.027
119.677
105.116
98.6657
95.4891
94.0991
93.8245
94.2875
95.2604
96.6078
98.2526
100.155
102.301
104.69
107.326
110.213
113.348
116.716
120.292
124.038
127.909
131.861
135.852
139.857
143.863
147.877
151.926
156.062
160.291
164.687
169.319
174.246
179.522
185.201
191.333
197.957
205.108
212.81
221.078
229.921
239.339
249.325
259.869
270.949
282.544
294.624
307.158
320.109
333.44
347.113
361.087
375.324
389.784
404.428
419.22
434.124
449.106
464.134
479.178
494.21
509.203
524.133
538.975
553.709
568.313
582.769
597.058
611.161
625.063
638.746
652.195
665.393
678.326
690.977
703.33
715.371
727.082
738.448
749.451
760.076
770.304
780.117
789.498
798.427
806.887
814.856
822.316
829.246
835.626
841.435
846.653
851.259
855.232
858.552
861.197
863.15
864.379
864.851
864.547
863.447
861.536
858.798
855.219
850.788
845.49
839.314
832.248
824.278
815.392
805.577
794.817
783.097
770.401
756.709
742.003
726.261
709.46
691.575
672.583
652.461
631.19
608.758
585.165
560.423
534.566
507.657
479.788
451.093
421.75
391.987
362.081
332.356
303.173
274.909
247.93
222.564
199.072
177.632
158.332
141.177
126.094
112.957
101.596
91.823
83.4393
76.2527
70.0828
64.7669
60.162
56.1453
52.6133
49.4798
46.6743
44.1398
41.83
39.7084
37.7457
35.9186
34.2074
32.5924
31.0725
29.6393
28.2859
27.0067
25.7974
24.6543
23.5743
22.5548
21.5931
20.6869
19.834
19.0322
18.2791
17.5728
16.911
16.2918
15.7131
15.1729
14.6694
14.1999
168.77
119.32
104.237
97.4644
94.2958
93.121
93.178
94.0561
95.52
97.431
99.7072
102.3
105.183
108.335
111.742
115.385
119.238
123.267
127.431
131.682
135.97
140.249
144.483
148.648
152.742
156.751
160.689
164.614
168.58
172.653
176.902
181.394
186.194
191.361
196.951
203.012
209.584
216.701
224.385
232.654
241.515
250.971
261.015
271.637
282.817
294.534
306.76
319.464
332.611
346.164
360.086
374.338
388.878
403.668
418.668
433.839
449.145
464.548
480.015
495.512
511.007
526.471
541.875
557.192
572.397
587.466
602.375
617.102
631.627
645.93
659.99
673.79
687.31
700.533
713.441
726.017
738.242
750.099
761.571
772.64
783.286
793.493
803.241
812.512
821.286
829.542
837.262
844.425
851.01
856.997
862.363
867.089
871.153
874.535
877.211
879.147
880.32
880.706
880.284
879.034
876.937
873.977
870.138
865.404
859.761
853.193
845.687
837.227
827.799
817.387
805.973
793.54
780.067
765.533
749.913
733.184
715.315
696.28
676.048
654.593
631.893
607.933
582.711
556.246
528.58
499.791
470
439.377
408.152
376.616
345.12
314.069
283.892
255.02
227.843
202.676
179.738
159.141
140.898
124.935
111.112
99.2456
89.1252
80.5321
73.2514
67.0816
61.8399
57.3656
53.5203
50.1871
47.2691
44.6867
42.3757
40.2847
38.373
36.6085
34.9663
33.4265
31.9713
30.587
29.2759
28.0306
26.8454
25.7166
24.6411
23.6169
22.6423
21.7159
20.8364
20.0027
19.2134
18.4675
17.7634
17.0999
16.4756
15.8889
15.3385
14.8228
14.3402
13.8887
179.471
118.326
101.524
95.121
92.6286
92.1188
92.8213
94.3618
96.5343
99.2174
102.336
105.84
109.694
113.866
118.322
123.023
127.921
132.959
138.076
143.209
148.296
153.284
158.129
162.786
167.209
171.429
175.485
179.433
183.335
187.263
191.293
195.497
199.95
204.719
209.867
215.45
221.517
228.109
235.258
242.987
251.314
260.247
269.788
279.931
290.665
301.973
313.833
326.216
339.093
352.43
366.189
380.333
394.822
409.615
424.671
439.949
455.41
471.012
486.719
502.491
518.295
534.094
549.856
565.55
581.145
596.612
611.925
627.057
641.984
656.683
671.13
685.304
699.185
712.752
725.987
738.869
751.38
763.503
775.218
786.507
797.351
807.733
817.633
827.033
835.912
844.252
852.032
859.233
865.833
871.811
877.147
881.82
885.806
889.077
891.606
893.371
894.347
894.51
893.84
892.314
889.912
886.616
882.407
877.267
871.179
864.126
856.091
847.057
837.006
825.919
813.775
800.555
786.233
770.785
754.182
736.394
717.389
697.132
675.592
652.738
628.545
602.999
576.102
547.879
518.39
487.735
456.069
423.612
390.656
357.565
324.773
292.763
262.027
233.029
206.152
181.67
159.731
140.363
123.49
108.962
96.5742
86.0956
77.284
69.9022
63.727
58.5559
54.2106
50.5371
47.4054
44.7074
42.3547
40.2757
38.4134
36.7228
35.1688
33.7244
32.3688
31.0856
29.8583
28.6852
27.5636
26.4883
25.4556
24.4633
23.5099
22.5947
21.7173
20.8773
20.0747
19.3091
18.5803
17.8877
17.2308
16.6089
16.0212
15.4667
14.9445
14.4536
13.9926
13.5599
179.766
117.048
99.9106
93.8714
92.0391
92.322
93.8985
96.3838
99.5744
103.353
107.648
112.407
117.587
123.146
129.032
135.183
141.529
147.99
154.481
160.918
167.225
173.336
179.115
184.53
189.588
194.318
198.762
202.982
207.046
211.034
215.028
219.11
223.363
227.863
232.684
237.889
243.537
249.675
256.345
263.578
271.399
279.823
288.859
298.506
308.76
319.608
331.032
343.009
355.512
368.51
381.967
395.847
410.109
424.714
439.619
454.783
470.163
485.716
501.403
517.182
533.014
548.862
564.689
580.459
596.139
611.698
627.103
642.327
657.341
672.12
686.64
700.875
714.805
728.407
741.662
754.549
767.049
779.144
790.816
802.045
812.814
823.104
832.897
842.174
850.915
859.102
866.715
873.734
880.138
885.905
891.012
895.433
899.146
902.127
904.351
905.793
906.429
906.235
905.188
903.264
900.442
896.7
892.019
886.377
879.755
872.133
863.492
853.81
843.066
831.239
818.304
804.237
789.01
772.593
754.953