/*--------------------------------*- C++ -*----------------------------------*\
  =========                 |
  \\      /  F ield         | OpenFOAM: The Open Source CFD Toolbox
   \\    /   O peration     | Website:  https://openfoam.org
    \\  /    A nd           | Version:  12
     \\/     M anipulation  |
\*---------------------------------------------------------------------------*/
FoamFile
{
    format      ascii;
    class       volScalarField;
    location    "0.05";
    object      k;
}
// * * * * * * * * * * * * * * * * * * * * * * * * * * * * * * * * * * * * * //

dimensions      [0 2 -2 0 0 0 0];

internalField   nonuniform List<scalar> 
12225
(
0.353921
0.335043
0.316967
0.300962
0.28813
0.278917
0.273317
0.271037
0.271621
0.274553
0.279319
0.285452
0.292545
0.300263
0.308349
0.316594
0.325027
0.337698
0.436865
0.448982
0.438093
0.433081
0.438829
0.453662
0.474925
0.500172
0.527414
0.555166
0.582398
0.608448
0.632937
0.655693
0.676807
0.696195
0.715603
0.732821
0.395186
0.410872
0.41063
0.405748
0.402017
0.400939
0.402642
0.406854
0.413154
0.421084
0.430211
0.440158
0.450612
0.461332
0.472172
0.483011
0.494069
0.505015
0.379641
0.384839
0.386545
0.38573
0.383906
0.38203
0.380574
0.379751
0.379625
0.380176
0.381343
0.383043
0.385196
0.387725
0.390579
0.393718
0.397158
0.40086
0.374976
0.3759
0.376239
0.37572
0.374569
0.373083
0.371496
0.369967
0.368596
0.367431
0.366493
0.365782
0.365288
0.364996
0.364894
0.364973
0.365229
0.365649
0.373488
0.372554
0.371758
0.370806
0.369629
0.368273
0.366806
0.365297
0.3638
0.362354
0.360987
0.359711
0.358535
0.357462
0.356492
0.355624
0.354858
0.354194
0.373012
0.371296
0.369812
0.368415
0.367023
0.365607
0.364164
0.362706
0.361251
0.359816
0.358417
0.357063
0.355763
0.354521
0.353342
0.352227
0.351179
0.350205
0.372865
0.370838
0.369004
0.367309
0.365709
0.364171
0.362675
0.36121
0.359775
0.358372
0.357004
0.355674
0.354387
0.353144
0.351947
0.3508
0.349703
0.348669
0.37282
0.37068
0.368691
0.366835
0.365093
0.363446
0.361876
0.36037
0.35892
0.357522
0.356171
0.354865
0.353605
0.352389
0.351218
0.350092
0.349012
0.347989
0.372806
0.370628
0.368577
0.366647
0.364827
0.363108
0.361478
0.359928
0.35845
0.357036
0.355682
0.354383
0.353136
0.351938
0.350788
0.349685
0.348628
0.347628
0.372801
0.370609
0.368536
0.366575
0.364719
0.362961
0.361295
0.359713
0.358209
0.356776
0.355409
0.354104
0.352857
0.351665
0.350524
0.349433
0.34839
0.347405
0.372799
0.370603
0.368522
0.366549
0.364679
0.362905
0.361221
0.359622
0.358102
0.356656
0.355278
0.353966
0.352714
0.351519
0.350378
0.349289
0.348251
0.347271
0.372797
0.370599
0.368514
0.366536
0.36466
0.362878
0.361186
0.359577
0.358048
0.356593
0.355207
0.353888
0.35263
0.351432
0.350288
0.349198
0.348159
0.34718
0.372796
0.370596
0.368509
0.366528
0.364648
0.362862
0.361165
0.359552
0.358017
0.356557
0.355166
0.353842
0.35258
0.351377
0.350231
0.349137
0.348096
0.347115
0.372795
0.370594
0.368505
0.366523
0.36464
0.362852
0.361153
0.359537
0.357999
0.356536
0.355142
0.353815
0.35255
0.351345
0.350196
0.3491
0.348056
0.347073
0.372795
0.370592
0.368502
0.366518
0.364634
0.362845
0.361144
0.359526
0.357987
0.356522
0.355127
0.353798
0.352532
0.351325
0.350174
0.349076
0.34803
0.347046
0.372794
0.37059
0.368499
0.366515
0.36463
0.362839
0.361137
0.359518
0.357978
0.356512
0.355116
0.353786
0.352519
0.351311
0.350159
0.349061
0.348014
0.347028
0.372794
0.37059
0.368498
0.366512
0.364627
0.362835
0.361132
0.359513
0.357972
0.356505
0.355109
0.353779
0.352511
0.351303
0.35015
0.349051
0.348004
0.347018
0.372793
0.370589
0.368497
0.366512
0.364626
0.362834
0.361131
0.359512
0.357971
0.356504
0.355107
0.353777
0.352509
0.351301
0.350149
0.34905
0.348003
0.347017
0.372794
0.37059
0.368498
0.366513
0.364628
0.362837
0.361134
0.359515
0.357975
0.356509
0.355113
0.353784
0.352517
0.351309
0.350158
0.34906
0.348014
0.347029
0.372794
0.370591
0.3685
0.366516
0.364632
0.362842
0.361141
0.359524
0.357986
0.356521
0.355127
0.3538
0.352535
0.351329
0.35018
0.349084
0.348039
0.347056
0.372795
0.370592
0.368504
0.366523
0.364642
0.362857
0.36116
0.359549
0.358016
0.356558
0.35517
0.353848
0.352588
0.351388
0.350243
0.349151
0.348111
0.347131
0.372796
0.370598
0.368518
0.366548
0.364682
0.362914
0.361237
0.359645
0.358131
0.356691
0.355319
0.354011
0.352762
0.35157
0.350431
0.349343
0.348303
0.347322
0.372804
0.37063
0.368592
0.366677
0.364873
0.363168
0.36155
0.360009
0.358537
0.357127
0.355775
0.354477
0.353231
0.352034
0.350884
0.34978
0.348722
0.347721
0.372855
0.370818
0.368973
0.367265
0.365646
0.364087
0.36257
0.361086
0.359636
0.358219
0.35684
0.355502
0.354207
0.352958
0.351757
0.350605
0.349503
0.348464
0.373166
0.37177
0.370579
0.369371
0.36805
0.366607
0.365074
0.363495
0.361909
0.360347
0.35883
0.357377
0.355996
0.354693
0.353472
0.352332
0.351274
0.350303
0.374797
0.37583
0.376175
0.3754
0.373833
0.371876
0.369791
0.367738
0.365811
0.364062
0.362517
0.361183
0.360059
0.359135
0.358396
0.357826
0.35741
0.357132
0.382729
0.391672
0.392378
0.388808
0.384385
0.380401
0.377241
0.374985
0.373599
0.373005
0.373105
0.3738
0.374996
0.376603
0.378544
0.380747
0.383154
0.385695
0.407499
0.414512
0.405419
0.395984
0.390537
0.389257
0.391397
0.396125
0.402703
0.410541
0.419186
0.428298
0.437625
0.446976
0.456218
0.465256
0.474045
0.482501
0.360554
0.347547
0.334933
0.322917
0.311964
0.30235
0.294184
0.287459
0.282096
0.277975
0.274958
0.272907
0.271685
0.271168
0.271241
0.271804
0.272768
0.274054
0.0930636
0.142191
0.176599
0.200479
0.217023
0.228315
0.235615
0.239733
0.241232
0.240512
0.237851
0.23342
0.227299
0.219646
0.211758
0.20361
0.194881
0.185446
0.175394
0.165168
0.155881
0.149797
0.150478
0.161382
0.182986
0.211515
0.241212
0.266718
0.288257
0.314796
0.347798
0.388055
0.434161
0.484101
0.536019
0.588467
0.640398
0.691083
0.74002
0.786878
0.831451
0.873629
0.913379
0.950729
0.985752
1.01856
1.04928
1.07805
1.10503
1.13037
1.15419
1.17663
1.19782
1.21785
1.23683
1.25484
1.27195
1.28824
1.30375
1.31854
1.33265
1.34612
1.35897
1.37122
1.38291
1.39405
1.40464
1.41469
1.42422
1.43321
1.44168
1.44962
1.45702
1.46388
1.47019
1.47595
1.48114
1.48575
1.48978
1.49321
1.49604
1.49826
1.49987
1.50085
1.50121
1.50094
1.50005
1.49853
1.4964
1.49366
1.49033
1.48642
1.48195
1.47696
1.47147
1.46552
1.45917
1.45248
1.44554
1.43846
1.4314
1.42456
1.41783
1.41101
1.40413
1.39722
1.39031
1.38341
1.37652
1.36965
1.36279
1.35592
1.34901
1.34202
1.3349
1.32758
1.31998
1.31199
1.30349
1.29435
1.28439
1.27343
1.26124
1.24758
1.23219
1.21477
1.19502
1.17262
1.1473
1.11878
1.08693
1.05183
1.01416
0.976302
0.94494
0.923356
0.90144
0.87753
0.851862
0.824917
0.79722
0.769279
0.741551
0.714421
0.688202
0.663126
0.639354
0.616984
0.596061
0.576583
0.558516
0.541797
0.526341
0.512051
0.498813
0.48646
0.474766
0.4636
0.452854
0.442408
0.432237
0.422352
0.41278
0.403551
0.394692
0.386218
0.37814
0.370456
0.363155
0.356217
0.349611
0.343294
0.337213
0.331296
0.325449
0.319536
0.313383
0.306621
0.299051
0.288594
0.209815
0.283407
0.33201
0.365364
0.387997
0.402618
0.410955
0.414275
0.413593
0.40974
0.403378
0.395011
0.384974
0.373431
0.36022
0.345627
0.330394
0.315644
0.303171
0.295995
0.299179
0.320033
0.365181
0.434992
0.521308
0.612134
0.697557
0.764958
0.820927
0.871609
0.921219
0.972413
1.02674
1.08488
1.14696
1.21272
1.28165
1.35307
1.42613
1.49992
1.57351
1.64605
1.71682
1.78526
1.85096
1.9137
1.97335
2.02992
2.08348
2.13417
2.18212
2.22752
2.27053
2.31131
2.35003
2.38682
2.42181
2.45513
2.48686
2.5171
2.54592
2.57339
2.59957
2.6245
2.64822
2.67075
2.69213
2.71235
2.73144
2.7494
2.76622
2.7819
2.79643
2.80979
2.82198
2.83296
2.84274
2.85127
2.85855
2.86456
2.86928
2.87268
2.87476
2.87551
2.87491
2.87297
2.86968
2.86506
2.85911
2.85185
2.84332
2.83354
2.82256
2.81043
2.7972
2.78294
2.76773
2.75165
2.7348
2.71727
2.69919
2.68068
2.6621
2.6434
2.62467
2.60602
2.58757
2.56943
2.55169
2.53446
2.51781
2.5018
2.4865
2.47193
2.45811
2.44501
2.43258
2.42074
2.40934
2.39821
2.3871
2.37572
2.36366
2.35049
2.33564
2.3185
2.29835
2.27442
2.24589
2.21194
2.17185
2.12501
2.07112
2.01012
1.94443
1.87621
1.80309
1.72565
1.64502
1.56249
1.47936
1.39684
1.31599
1.23768
1.16258
1.09119
1.02381
0.960592
0.90159
0.846747
0.795942
0.749009
0.705751
0.665958
0.629414
0.595904
0.565219
0.537088
0.511533
0.488787
0.468658
0.450894
0.435228
0.421402
0.409167
0.398296
0.388584
0.379851
0.371941
0.364728
0.358111
0.352016
0.346395
0.341234
0.336554
0.332443
0.329051
0.326939
0.326173
0.333256
0.277704
0.35427
0.404412
0.439451
0.463862
0.480241
0.490178
0.494825
0.495151
0.492021
0.486223
0.478472
0.469412
0.459661
0.449284
0.438549
0.428342
0.420452
0.418209
0.427172
0.455114
0.509741
0.593424
0.700698
0.816214
0.918391
1.00292
1.0701
1.12572
1.17675
1.22903
1.28656
1.35148
1.42437
1.5047
1.59124
1.68244
1.77662
1.87217
1.96762
2.06175
2.15359
2.24245
2.3279
2.40966
2.48767
2.56194
2.63258
2.69975
2.76363
2.82441
2.8823
2.93748
2.99012
3.04039
3.08843
3.13438
3.17836
3.22047
3.2608
3.29944
3.33646
3.37191
3.40583
3.43828
3.46928
3.49884
3.52699
3.55373
3.57905
3.60295
3.62543
3.64645
3.66601
3.68407
3.7006
3.71558
3.72898
3.74075
3.75087
3.7593
3.76601
3.77096
3.77414
3.77552
3.77508
3.7728
3.76869
3.76273
3.75493
3.74532
3.73393
3.72078
3.70593
3.68945
3.67141
3.65191
3.63104
3.60893
3.58571
3.56149
3.5364
3.51068
3.48431
3.45737
3.42997
3.40225
3.37434
3.34636
3.31845
3.29073
3.2633
3.23629
3.20976
3.1838
3.15845
3.13372
3.10959
3.086
3.06283
3.03988
3.0169
2.99353
2.96931
2.94367
2.91593
2.88527
2.85078
2.81145
2.76623
2.71408
2.65407
2.58546
2.50795
2.42536
2.33706
2.24262
2.14301
2.03965
1.93414
1.8281
1.72303
1.62026
1.52088
1.42573
1.33538
1.25022
1.17041
1.09599
1.02684
0.962807
0.903645
0.849089
0.798852
0.752645
0.710186
0.671152
0.635142
0.601833
0.570979
0.542749
0.517009
0.493608
0.472385
0.453174
0.435809
0.420125
0.405965
0.393177
0.381621
0.371165
0.361688
0.353082
0.345256
0.338134
0.331677
0.325872
0.320914
0.316812
0.31579
0.329451
0.404823
0.458078
0.496447
0.523535
0.541812
0.552985
0.558369
0.559086
0.556167
0.5506
0.543359
0.535441
0.527935
0.520969
0.515427
0.512788
0.515709
0.528692
0.558245
0.611972
0.695733
0.802179
0.917468
1.02766
1.12224
1.19909
1.2619
1.31764
1.37353
1.4351
1.50548
1.58557
1.67472
1.77135
1.87355
1.97936
2.08701
2.19499
2.30204
2.4072
2.50974
2.60917
2.70517
2.79755
2.88625
2.9713
3.05276
3.13075
3.20542
3.27691
3.34538
3.41098
3.47388
3.5342
3.5921
3.64768
3.70107
3.75237
3.80168
3.84906
3.89461
3.93837
3.98039
4.02073
4.05941
4.09646
4.13189
4.1657
4.19791
4.22849
4.25744
4.28473
4.31034
4.33424
4.35639
4.37676
4.39531
4.41199
4.42676
4.43958
4.4504
4.45918
4.46589
4.47049
4.47295
4.47323
4.47133
4.46723
4.46093
4.45243
4.44174
4.4289
4.41394
4.39691
4.37787
4.3569
4.33407
4.30948
4.28322
4.25538
4.22608
4.19545
4.16354
4.13043
4.09622
4.06106
4.02505
3.98835
3.95107
3.91336
3.87534
3.83715
3.7989
3.76069
3.72262
3.68475
3.64712
3.60972
3.57251
3.53539
3.49815
3.46052
3.42213
3.38246
3.34088
3.2966
3.2487
3.19613
3.13776
3.07239
2.99891
2.91628
2.82617
2.73
2.62694
2.51745
2.40272
2.28432
2.16401
2.04356
1.92461
1.8086
1.6967
1.58981
1.48853
1.39323
1.30407
1.22103
1.14396
1.07265
1.0068
0.946088
0.890185
0.83875
0.791448
0.747937
0.707859
0.670876
0.636671
0.605037
0.575929
0.549182
0.524642
0.502161
0.481593
0.462799
0.445643
0.429994
0.415725
0.402719
0.390863
0.380051
0.370187
0.361189
0.352996
0.345567
0.338962
0.333147
0.328807
0.377304
0.454271
0.511978
0.55386
0.583506
0.603506
0.615727
0.621648
0.622562
0.619693
0.614263
0.607551
0.600958
0.595708
0.592462
0.592781
0.598923
0.614387
0.644544
0.693943
0.765807
0.858616
0.964045
1.0706
1.16855
1.25289
1.32442
1.38804
1.45025
1.51685
1.59157
1.67589
1.7695
1.871
1.97859
2.09039
2.20474
2.32019
2.43557
2.54993
2.66254
2.77283
2.8804
2.98493
3.08626
3.18425
3.27887
3.37013
3.45805
3.54273
3.62424
3.70269
3.7782
3.85089
3.92086
3.98825
4.05315
4.11568
4.17594
4.23401
4.28997
4.3439
4.39587
4.44593
4.49412
4.54048
4.58504
4.62782
4.66882
4.70805
4.7455
4.78115
4.81498
4.84698
4.87709
4.90529
4.93154
4.95578
4.97797
4.99806
5.01599
5.03172
5.0452
5.05637
5.06518
5.0716
5.07559
5.07711
5.07613
5.07264
5.06662
5.05807
5.04699
5.03341
5.01733
4.99881
4.97787
4.95457
4.92896
4.9011
4.87107
4.83894
4.80479
4.76866
4.73065
4.69085
4.64937
4.60634
4.56187
4.51607
4.46909
4.42103
4.37203
4.32222
4.2717
4.22059
4.16898
4.11694
4.06452
4.01172
3.95852
3.90481
3.8504
3.79501
3.73825
3.67961
3.61838
3.55375
3.48474
3.41027
3.32909
3.24013
3.14372
3.04122
2.93196
2.81598
2.69404
2.56744
2.43781
2.30697
2.1767
2.04869
1.92437
1.80492
1.69117
1.5837
1.48282
1.38862
1.30102
1.21983
1.14475
1.07546
1.01159
0.952762
0.898611
0.848771
0.802888
0.760615
0.721622
0.685596
0.652238
0.62142
0.592969
0.566727
0.542545
0.520282
0.499806
0.480989
0.463709
0.44785
0.433303
0.419963
0.407733
0.396521
0.38625
0.376855
0.36829
0.360563
0.353628
0.347747
0.423371
0.505673
0.568884
0.614748
0.647326
0.669422
0.683055
0.689861
0.691308
0.688828
0.683906
0.678164
0.673459
0.670549
0.671259
0.677762
0.69272
0.719378
0.761183
0.820426
0.896835
0.986451
1.08211
1.17605
1.2628
1.34076
1.41212
1.48133
1.55324
1.63155
1.71819
1.8134
1.91633
2.02556
2.13951
2.25674
2.37594
2.49607
2.61622
2.73569
2.85386
2.97027
3.08452
3.1963
3.30539
3.4116
3.51483
3.61499
3.71206
3.80604
3.89695
3.98485
4.06981
4.1519
4.23121
4.30783
4.38185
4.45336
4.52246
4.58922
4.65373
4.71606
4.77627
4.83443
4.89057
4.94473
4.99696
5.04726
5.09565
5.14213
5.1867
5.22934
5.27003
5.30875
5.34546
5.38011
5.41267
5.44307
5.47128
5.49722
5.52085
5.54209
5.5609
5.5772
5.59095
5.60207
5.61054
5.61628
5.61926
5.61944
5.61679
5.61127
5.60288
5.5916
5.57742
5.56035
5.54039
5.51757
5.4919
5.46341
5.43216
5.3982
5.36148
5.32207
5.28007
5.23557
5.18866
5.13943
5.08796
5.03436
4.97873
4.92118
4.86181
4.80073
4.73805
4.67389
4.60833
4.54145
4.47333
4.40402
4.33355
4.2619
4.18897
4.11457
4.03847
3.96032
3.87952
3.79549
3.70738
3.61421
3.51481
3.40981
3.29932
3.18285
3.06023
2.93182
2.79853
2.66169
2.52297
2.38415
2.247
2.11312
1.98389
1.86037
1.7433
1.63314
1.53008
1.43412
1.34508
1.2627
1.1866
1.11642
1.05174
0.992144
0.937251
0.886676
0.840058
0.797057
0.757353
0.720646
0.68664
0.655133
0.625953
0.598942
0.573955
0.550855
0.529513
0.509808
0.491627
0.474862
0.459409
0.445171
0.432059
0.419988
0.408882
0.39868
0.389331
0.380815
0.373081
0.366237
0.46714
0.557546
0.627262
0.678039
0.714432
0.739453
0.755271
0.763712
0.766431
0.765066
0.761349
0.757178
0.754368
0.753952
0.75814
0.769311
0.789975
0.822559
0.868881
0.92933
1.00218
1.08353
1.16828
1.25183
1.3316
1.40764
1.48218
1.55842
1.63936
1.72695
1.82192
1.92396
2.03218
2.14542
2.26251
2.38238
2.50411
2.6269
2.75007
2.87306
2.99534
3.11649
3.23612
3.35391
3.46956
3.58286
3.69362
3.8017
3.907
4.00945
4.10903
4.20572
4.29955
4.39054
4.47876
4.56426
4.6471
4.72737
4.80514
4.88047
4.95344
5.02413
5.09258
5.15886
5.22301
5.28506
5.34506
5.40303
5.45896
5.51288
5.56477
5.61463
5.66242
5.70812
5.75169
5.79309
5.83228
5.86918
5.90375
5.93592
5.96562
5.99279
6.01735
6.03924
6.05837
6.07469
6.08811
6.09859
6.10605
6.11043
6.11169
6.10977
6.10462
6.09622
6.08451
6.06949
6.05112
6.0294
6.00431
5.97585
5.94405
5.90894
5.87033
5.82833
5.78305
5.73454
5.68288
5.62813
5.57034
5.50958
5.44592
5.37944
5.31022
5.23834
5.1639
5.08698
5.00766
4.92602
4.84212
4.75603
4.66786
4.57764
4.48535
4.39088
4.29413
4.19503
4.09303
3.98777
3.87882
3.765
3.64772
3.52596
3.39937
3.26775
3.13121
2.99031
2.84605
2.69982
2.55327
2.40813
2.26608
2.12861
1.99695
1.87198
1.75429
1.64416
1.54162
1.44652
1.35857
1.27739
1.20254
1.13358
1.07004
1.0115
0.957532
0.90775
0.861791
0.819323
0.780039
0.743656
0.709901
0.678533
0.649393
0.622332
0.597212
0.573904
0.552289
0.532255
0.513696
0.496512
0.48061
0.4659
0.4523
0.439732
0.428125
0.417419
0.407564
0.398523
0.39024
0.382757
0.507711
0.607493
0.684646
0.741249
0.782295
0.811099
0.83006
0.841151
0.846176
0.846925
0.845281
0.843291
0.841826
0.843055
0.849225
0.86259
0.885252
0.918874
0.964274
1.02101
1.08723
1.15997
1.23597
1.31273
1.38916
1.46575
1.5441
1.6261
1.71332
1.80662
1.9061
2.01136
2.12165
2.23615
2.35403
2.47454
2.59703
2.72089
2.84561
2.97071
3.09573
3.22026
3.34393
3.4664
3.58733
3.70647
3.82357
3.93843
4.0509
4.16084
4.26818
4.37284
4.4748
4.57405
4.67061
4.76449
4.85574
4.94441
5.03055
5.11422
5.19547
5.27437
5.35097
5.42531
5.49744
5.56739
5.6352
5.70088
5.76445
5.8259
5.88523
5.94242
5.99746
6.0503
6.10091
6.14925
6.19525
6.23886
6.28001
6.31863
6.35464
6.38797
6.41854
6.44626
6.47105
6.49283
6.5115
6.527
6.53923
6.54812
6.55359
6.55558
6.554
6.5488
6.53992
6.52731
6.5109
6.49067
6.46657
6.43858
6.40668
6.37083
6.33081
6.28674
6.23869
6.18673
6.13087
6.07117
6.00763
5.9403
5.86922
5.79441
5.71592
5.63381
5.54815
5.45902
5.36646
5.27051
5.17122
5.06864
4.96292
4.85423
4.74256
4.62779
4.5099
4.38939
4.2655
4.13792
4.00807
3.87487
3.73836
3.59823
3.45434
3.30673
3.15577
3.0022
2.84715
2.69204
2.53852
2.38825
2.24278
2.10345
1.97126
1.8469
1.7307
1.62275
1.52287
1.43073
1.3459
1.26787
1.19611
1.1301
1.06934
1.01336
0.961715
0.914014
0.869898
0.829043
0.791159
0.75598
0.723256
0.692749
0.664311
0.637808
0.613118
0.590124
0.568721
0.548807
0.530289
0.513078
0.49709
0.482246
0.46847
0.455694
0.443854
0.432892
0.422758
0.41341
0.404789
0.396905
0.542128
0.652146
0.737888
0.801333
0.847941
0.881391
0.90434
0.91893
0.927076
0.930632
0.931502
0.931204
0.931068
0.933348
0.940244
0.953823
0.975853
1.00756
1.04937
1.10075
1.16026
1.22591
1.29574
1.36834
1.4432
1.52065
1.60154
1.68678
1.77704
1.87261
1.97338
2.07896
2.18886
2.30249
2.41932
2.53884
2.66057
2.78408
2.90894
3.03474
3.1611
3.28762
3.41393
3.53967
3.6645
3.78812
3.91025
4.03064
4.14908
4.26539
4.37944
4.49111
4.60033
4.70704
4.81122
4.91286
5.01196
5.10854
5.20264
5.29428
5.38352
5.47039
5.55492
5.63717
5.71716
5.79493
5.87049
5.94385
6.01503
6.08402
6.15082
6.2154
6.27773
6.33779
6.39551
6.45087
6.50378
6.55419
6.60202
6.6472
6.68964
6.72925
6.76594
6.79962
6.83019
6.85755
6.88161
6.90225
6.9194
6.93293
6.94277
6.94881
6.95097
6.94916
6.94328
6.93327
6.91904
6.90053
6.87768
6.85043
6.81874
6.7824
6.74129
6.69551
6.64511
6.59011
6.53052
6.46634
6.39758
6.32422
6.24627
6.16372
6.07658
5.98487
5.88867
5.78802
5.68292
5.57339
5.45943
5.34103
5.21833
5.09178
4.96132
4.82678
4.6877
4.54615
4.40136
4.25339
4.10263
3.949
3.79256
3.63337
3.47159
3.30758
3.14198
2.97574
2.81012
2.64665
2.48693
2.33255
2.18491
2.04512
1.91395
1.79182
1.6788
1.57471
1.47916
1.39161
1.31147
1.23811
1.17088
1.10918
1.05248
1.00025
0.952043
0.907462
0.866149
0.827793
0.792119
0.758883
0.727855
0.698817
0.671642
0.646216
0.622432
0.600194
0.579409
0.559993
0.541865
0.52495
0.509176
0.494475
0.480783
0.468039
0.456186
0.445173
0.434951
0.425477
0.416694
0.408597
0.567999
0.689415
0.784519
0.855344
0.907951
0.946503
0.973966
0.992649
1.00453
1.01143
1.01518
1.01663
1.01791
1.02112
1.0283
1.04131
1.06173
1.09061
1.12834
1.17461
1.22851
1.28876
1.35414
1.42375
1.49719
1.57445
1.65582
1.7416
1.83198
1.92698
2.02645
2.13011
2.23764
2.34869
2.46291
2.57997
2.69955
2.82131
2.94492
3.07003
3.19629
3.32334
3.45082
3.57837
3.70564
3.83231
3.95806
4.08261
4.20572
4.32717
4.44677
4.56437
4.67984
4.7931
4.90406
5.01269
5.11896
5.22285
5.32437
5.42352
5.52033
5.61481
5.70699
5.79688
5.88452
5.96992
6.05308
6.13401
6.21271
6.28918
6.36339
6.43531
6.50492
6.57217
6.63701
6.69938
6.75921
6.81643
6.87096
6.92272
6.9716
7.01751
7.06035
7.10001
7.13639
7.16936
7.19882
7.22465
7.24673
7.26496
7.2792
7.28935
7.2953
7.29693
7.29414
7.28683
7.27489
7.25823
7.23677
7.21042
7.1791
7.14243
7.10048
7.05328
7.00085
6.94317
6.88022
6.81199
6.73845
6.65956
6.57529
6.48559
6.39042
6.28974
6.18369
6.07228
5.95548
5.83325
5.70555
5.57225
5.43328
5.28981
5.14159
4.9886
4.83105
4.66968
4.50464
4.33622
4.16483
3.99076
3.81439
3.63611
3.45645
3.27612
3.09606
2.91748
2.74182
2.57069
2.40567
2.24825
2.09963
1.96068
1.83187
1.71332
1.60482
1.5059
1.41594
1.3342
1.25991
1.19229
1.13062
1.07422
1.02249
0.974881
0.930932
0.890236
0.852443
0.817254
0.784414
0.753695
0.724883
0.6978
0.672342
0.648413
0.625927
0.604805
0.584974
0.566365
0.548915
0.532562
0.51725
0.502922
0.489525
0.477009
0.465326
0.454432
0.444282
0.434834
0.426036
0.417878
0.584001
0.717691
0.822508
0.900663
0.959146
1.00278
1.03489
1.05795
1.07396
1.08472
1.09127
1.09532
1.09879
1.10362
1.11164
1.12456
1.14382
1.17043
1.20489
1.24716
1.29672
1.35279
1.41454
1.48128
1.55254
1.62809
1.70786
1.79181
1.87992
1.97212
2.06827
2.16822
2.27177
2.37876
2.48897
2.60222
2.71829
2.83693
2.9579
3.08089
3.20559
3.33168
3.45883
3.58667
3.71487
3.84308
3.97099
4.09829
4.22469
4.34996
4.47386
4.5962
4.71682
4.83559
4.95239
5.06715
5.17979
5.29027
5.39857
5.50465
5.60851
5.71015
5.80957
5.90677
6.00174
6.0945
6.18503
6.27333
6.35938
6.44316
6.52465
6.60381
6.68059
6.75495
6.82682
6.89614
6.96283
7.0268
7.08798
7.14625
7.20152
7.25369
7.30263
7.34822
7.39036
7.4289
7.46372
7.49469
7.52168
7.54455
7.56318
7.57742
7.58714
7.59223
7.59253
7.58794
7.57833
7.56358
7.54359
7.51826
7.48727
7.45047
7.40789
7.3595
7.30529
7.24523
7.17927
7.10736
7.02946
6.9455
6.85542
6.75915
6.65658
6.54747
6.4323
6.31092
6.18324
6.04923
5.90885
5.76209
5.60906
5.4502
5.28561
5.11547
4.9401
4.76001
4.57564
4.3875
4.19617
4.00227
3.8065
3.60965
3.41264
3.21656
3.02271
2.83259
2.64784
2.47013
2.30101
2.14182
1.99353
1.85671
1.73152
1.61774
1.51485
1.42212
1.33867
1.26357
1.19589
1.13473
1.07927
1.02877
0.982584
0.940138
0.900956
0.864631
0.830822
0.799242
0.769652
0.741844
0.715613
0.690837
0.667428
0.645311
0.624418
0.604689
0.586069
0.56851
0.551962
0.536383
0.521727
0.507955
0.495023
0.482894
0.471529
0.460891
0.450941
0.441643
0.432952
0.424853
0.59136
0.737095
0.851023
0.935619
0.99922
1.04742
1.08392
1.1113
1.13157
1.14619
1.15648
1.1642
1.17106
1.17876
1.18894
1.20313
1.22262
1.24841
1.28106
1.32073
1.36717
1.41991
1.47834
1.54187
1.61002
1.68243
1.75886
1.83914
1.92316
2.01084
2.10211
2.19689
2.29512
2.39673
2.50165
2.60979
2.72103
2.83523
2.95217
3.07162
3.1933
3.31692
3.4422
3.56879
3.69637
3.82461
3.95316
4.08172
4.20999
4.33769
4.46457
4.5904
4.71498
4.83815
4.95975
5.07967
5.1978
5.31405
5.42838
5.54071
5.65102
5.75926
5.86542
5.96946
6.07137
6.17113
6.26871
6.36408
6.45722
6.54809
6.63665
6.72285
6.80663
6.88793
6.96668
7.04281
7.11621
7.18682
7.25451
7.31919
7.38074
7.43904
7.49397
7.54539
7.59318
7.63718
7.67727
7.71329
7.74509
7.77253
7.79546
7.81372
7.82717
7.83565
7.83902
7.83713
7.82984
7.81702
7.79853
7.77415
7.7436
7.70681
7.66375
7.61437
7.55862
7.49644
7.42776
7.35252
7.27063
7.18202
7.08661
6.98432
6.87503
6.75866
6.6353
6.50488
6.36734
6.22264
6.07075
5.91167
5.74551
5.5725
5.39283
5.20674
5.01463
4.81699
4.61441
4.40759
4.19735
3.9846
3.7704
3.55595
3.34259
3.13184
2.9254
2.72507
2.53266
2.34989
2.17825
2.01886
1.8724
1.7391
1.61878
1.51086
1.41453
1.32877
1.25249
1.18457
1.12394
1.06961
1.02068
0.976363
0.935967
0.898918
0.864728
0.832996
0.803389
0.775635
0.749511
0.724822
0.701382
0.679122
0.657971
0.637867
0.618762
0.600613
0.583385
0.567045
0.551562
0.536908
0.523055
0.509973
0.497636
0.486014
0.475079
0.464803
0.455156
0.446106
0.437614
0.42967
0.596759
0.750499
0.87057
0.959585
1.02695
1.07882
1.11911
1.15052
1.17495
1.1938
1.20872
1.22123
1.2328
1.24488
1.25889
1.27611
1.29769
1.32449
1.35708
1.39569
1.44025
1.49045
1.54584
1.60594
1.67031
1.73857
1.81045
1.88576
1.9644
2.04632
2.13153
2.22
2.31176
2.40683
2.50527
2.60708
2.71224
2.82068
2.93233
3.04684
3.16403
3.28368
3.40556
3.52935
3.65476
3.78146
3.90913
4.03745
4.16611
4.29482
4.42329
4.55129
4.67858
4.80496
4.93024
5.05426
5.17689
5.29801
5.41752
5.53532
5.65135
5.76554
5.87782
5.98816
6.0965
6.20279
6.307
6.40906
6.50893
6.60656
6.70188
6.79483
6.88535
6.97335
7.05875
7.14146
7.22138
7.29841
7.37243
7.44332
7.51097
7.57523
7.63598
7.69306
7.74634
7.79565
7.84084
7.88176
7.91824
7.95012
7.97723
7.99941
8.01648
8.02828
8.03465
8.03541
8.03042
8.01952
8.0025
7.97906
7.94907
7.91244
7.86909
7.81894
7.76191
7.6979
7.62684
7.54863
7.46319
7.37042
7.27022
7.16249
7.04713
6.92406
6.79324
6.65461
6.5081
6.35365
6.19121
6.0208
5.84249
5.65643
5.46281
5.26193
5.05421
4.8402
4.62061
4.39632
4.16838
3.93802
3.70667
3.47597
3.24772
3.0239
2.80661
2.59793
2.39984
2.21404
2.04185
1.88414
1.74122
1.61296
1.49878
1.39777
1.3088
1.23062
1.16195
1.10151
1.04812
1.00073
0.958368
0.920231
0.885617
0.853944
0.82473
0.797581
0.77218
0.74827
0.725643
0.704111
0.683525
0.663859
0.64505
0.627052
0.609831
0.593362
0.577625
0.562604
0.548285
0.534653
0.521695
0.509396
0.497739
0.486708
0.476283
0.466446
0.457175
0.448444
0.440224
0.432504
0.602166
0.758889
0.881372
0.972522
1.04212
1.09654
1.13987
1.1748
1.20324
1.22688
1.24717
1.26542
1.2829
1.3008
1.32025
1.3423
1.36782
1.39753
1.43188
1.47107
1.5151
1.56374
1.61669
1.67355
1.73399
1.79768
1.86442
1.93408
2.00655
2.08192
2.16036
2.24178
2.32613
2.41367
2.50456
2.59889
2.69674
2.7981
2.90292
3.01106
3.12236
3.23664
3.35368
3.47322
3.59498
3.71867
3.84397
3.97056
4.09815
4.22642
4.3551
4.4839
4.61259
4.74091
4.86866
4.99565
5.1217
5.24666
5.37039
5.49277
5.61368
5.73302
5.85071
5.96667
6.0808
6.19304
6.30332
6.41156
6.51769
6.62163
6.72331
6.82263
6.91952
7.01388
7.1056
7.19459
7.28073
7.3639
7.44398
7.52083
7.59433
7.66432
7.73065
7.79318
7.85173
7.90615
7.95627
8.00191
8.0429
8.07905
8.1102
8.13615
8.15673
8.17174
8.18102
8.18438
8.18164
8.17259
8.15694
8.13453
8.10522
8.06888
8.02539
7.97465
7.91655
7.85097
7.77782
7.69699
7.60836
7.51184
7.4073
7.29463
7.17373
7.0445
6.90684
6.76068
6.60591
6.44248
6.27032
6.08942
5.89982
5.70164
5.49508
5.28044
5.05819
4.82894
4.59354
4.35303
4.10872
3.86218
3.61525
3.37002
3.12879
2.89402
2.66818
2.4536
2.25232
2.06597
1.8956
1.74171
1.60422
1.48257
1.3758
1.28266
1.20176
1.13163
1.07082
1.01796
0.971804
0.931236
0.89529
0.863141
0.834097
0.807586
0.783142
0.760388
0.739026
0.718817
0.699565
0.681082
0.663299
0.646189
0.629701
0.613801
0.598471
0.583699
0.56948
0.555812
0.542696
0.53013
0.518114
0.506644
0.495717
0.485325
0.47546
0.466111
0.457263
0.4489
0.440999
0.433553
0.602967
0.760906
0.883737
0.975171
1.0455
1.10134
1.14689
1.18494
1.21751
1.24619
1.27228
1.29694
1.32121
1.34603
1.37225
1.40061
1.43173
1.46605
1.50387
1.54529
1.59026
1.63861
1.6901
1.74444
1.8014
1.86076
1.92245
1.98655
2.05254
2.12074
2.1914
2.26472
2.34087
2.4201
2.50264
2.58865
2.67827
2.77157
2.86857
2.96923
3.07345
3.18111
3.29201
3.40596
3.5227
3.64196
3.76347
3.88691
4.012
4.13842
4.26589
4.39413
4.52285
4.65181
4.78077
4.9095
5.0378
5.16547
5.29235
5.41827
5.5431
5.66668
5.78891
5.90965
6.02881
6.14627
6.26193
6.37569
6.48746
6.59714
6.70461
6.80978
6.91254
7.01278
7.11038
7.20522
7.29717
7.3861
7.47187
7.55433
7.63334
7.70873
7.78035
7.84802
7.91157
7.97083
8.02561
8.07573
8.121
8.16122
8.19621
8.22576
8.24968
8.26776
8.27982
8.28566
8.28504
8.27771
8.26349
8.24217
8.21361
8.17764
8.13413
8.08294
8.02394
7.957
7.88199
7.7988
7.70729
7.60735
7.49884
7.38164
7.25562
7.12067
6.97666
6.82349
6.66105
6.48925
6.308
6.11728
5.91711
5.70759
5.48892
5.26142
5.02559
4.78217
4.53211
4.27667
4.01744
3.75636
3.49571
3.23808
2.98628
2.74323
2.51171
2.29422
2.09278
1.90875
1.74284
1.59509
1.46498
1.35151
1.25334
1.16894
1.09665
1.03487
0.982024
0.936689
0.897584
0.863589
0.833745
0.807245
0.783422
0.761727
0.741721
0.723052
0.705445
0.688679
0.672573
0.656941
0.64181
0.627125
0.61285
0.598963
0.585456
0.572332
0.559596
0.54726
0.535334
0.523831
0.512761
0.502131
0.491948
0.482213
0.472928
0.464088
0.455689
0.44772
0.440167
0.433023
0.597229
0.756952
0.878797
0.968702
1.0384
1.09484
1.14219
1.18322
1.21993
1.25381
1.28607
1.31768
1.34949
1.38216
1.41626
1.45223
1.49037
1.53087
1.57377
1.61903
1.66651
1.71602
1.76735
1.82031
1.87481
1.93051
1.98717
2.04503
2.10422
2.165
2.22769
2.2926
2.36006
2.43038
2.50386
2.58075
2.66127
2.74556
2.83373
2.92579
3.02174
3.12151
3.22496
3.33194
3.44224
3.55565
3.6719
3.79071
3.91182
4.03492
4.15972
4.28595
4.4133
4.54152
4.67034
4.79951
4.9288
5.05799
5.18687
5.31525
5.44293
5.56976
5.69557
5.82021
5.94354
6.06542
6.18571
6.30429
6.42103
6.5358
6.64847
6.75893
6.86704
6.97266
7.07567
7.17592
7.27326
7.36755
7.45864
7.54635
7.63053
7.71101
7.7876
7.86013
7.92841
7.99225
8.05146
8.10583
8.15517
8.19926
8.2379
8.27087
8.29798
8.31899
8.33369
8.34186
8.34325
8.33764
8.32484
8.30463
8.27683
8.24127
8.19778
8.14621
8.08639
8.01819
7.94145
7.85604
7.76182
7.65863
7.54634
7.42481
7.2939
7.15346
7.00336
6.84347
6.67365
6.4938
6.30382
6.10368
5.89337
5.67299
5.44276
5.20304
4.95441
4.6977
4.43405
4.16496
3.89237
3.61862
3.34647
3.07905
2.81967
2.57163
2.33796
2.12116
1.92301
1.74452
1.58592
1.44673
1.32595
1.22214
1.13365
1.05868
0.995422
0.942139
0.897225
0.859234
0.826898
0.799124
0.77499
0.753729
0.734711
0.717428
0.701474
0.686529
0.672343
0.658718
0.645477
0.632486
0.619804
0.607374
0.595165
0.583166
0.571379
0.559815
0.548492
0.537431
0.526653
0.516179
0.50603
0.496224
0.486774
0.477691
0.468985
0.460658
0.452714
0.445148
0.437954
0.431127
0.625242
0.76288
0.871468
0.955501
1.02296
1.07922
1.12794
1.17167
1.21229
1.25121
1.28951
1.32802
1.36736
1.40799
1.4502
1.49416
1.53988
1.5873
1.63624
1.68649
1.73781
1.78995
1.8427
1.89573
1.94854
2.00123
2.05393
2.10686
2.16031
2.21464
2.27025
2.32754
2.38692
2.44881
2.51357
2.58154
2.65301
2.7282
2.80728
2.89037
2.97752
3.06872
3.16392
3.26301
3.36586
3.47227
3.58204
3.69492
3.81067
3.92901
4.04966
4.17234
4.29677
4.42267
4.54976
4.67779
4.80649
4.93562
5.06494
5.19423
5.32327
5.45187
5.57982
5.70695
5.83309
5.95805
6.08168
6.20383
6.32433
6.44304
6.55981
6.67448
6.7869
6.89692
7.00439
7.10914
7.21101
7.30983
7.40543
7.49764
7.58627
7.67114
7.75206
7.82883
7.90126
7.96913
8.03224
8.09037
8.14331
8.19084
8.23274
8.26877
8.29872
8.32235
8.33943
8.34973
8.35301
8.34903
8.33757
8.31841
8.29136
8.25621
8.21279
8.1609
8.10037
8.03104
7.95274
7.8653
7.76857
7.66238
7.54658
7.42101
7.2855
7.1399
6.98404
6.81778
6.64096
6.45346
6.25517
6.04604
5.82607
5.59537
5.35419
5.10295
4.84234
4.57332
4.29728
4.01602
3.73186
3.44763
3.16665