/*--------------------------------*- C++ -*----------------------------------*\
  =========                 |
  \\      /  F ield         | OpenFOAM: The Open Source CFD Toolbox
   \\    /   O peration     | Website:  https://openfoam.org
    \\  /    A nd           | Version:  12
     \\/     M anipulation  |
\*---------------------------------------------------------------------------*/
FoamFile
{
    format      ascii;
    class       volScalarField;
    location    "0.05";
    object      nut;
}
// * * * * * * * * * * * * * * * * * * * * * * * * * * * * * * * * * * * * * //

dimensions      [0 2 -1 0 0 0 0];

internalField   nonuniform List<scalar> 
12225
(
4.04767e-05
3.83178e-05
3.62504e-05
3.44201e-05
3.29524e-05
3.18987e-05
3.12583e-05
3.09974e-05
3.1064e-05
3.1399e-05
3.19439e-05
3.26449e-05
3.34557e-05
3.43378e-05
3.52619e-05
3.62033e-05
3.71644e-05
3.86276e-05
0.000281046
0.000209261
0.00017626
0.000157431
0.000146262
0.000139677
0.000135783
0.00013342
0.000131905
0.000130849
0.000130035
0.000129349
0.000128732
0.000128156
0.000127619
0.00012708
0.000126673
0.000125953
0.000556044
0.000419897
0.000349797
0.00030471
0.000272411
0.000247935
0.000228705
0.000213226
0.000200582
0.000190165
0.000181535
0.000174353
0.000168349
0.000163302
0.000159038
0.000155375
0.000152238
0.000149253
0.000740306
0.000625812
0.000544097
0.000484966
0.000439722
0.000403582
0.00037375
0.000348487
0.000326707
0.000307712
0.000291029
0.000276312
0.00026329
0.000251736
0.000241453
0.000232231
0.000223927
0.000216276
0.000817068
0.000759136
0.000700529
0.000648547
0.000603848
0.000565512
0.000532374
0.000503382
0.00047771
0.000454749
0.000434054
0.000415289
0.000398198
0.000382568
0.000368221
0.000354976
0.000342695
0.000331275
0.0008421
0.000819684
0.000789914
0.000757584
0.000725515
0.000695103
0.000666879
0.000640898
0.000617019
0.000595038
0.000574753
0.000555977
0.000538544
0.000522308
0.000507137
0.000492903
0.000479503
0.000466974
0.000849261
0.000841806
0.000829736
0.000814174
0.000796455
0.000777719
0.000758786
0.000740165
0.000722146
0.000704872
0.000688405
0.000672752
0.000657891
0.000643783
0.000630381
0.000617629
0.000605483
0.000594067
0.00085112
0.000848747
0.000844478
0.000838229
0.000830231
0.00082087
0.000810558
0.000799662
0.00078847
0.000777198
0.000766003
0.00075499
0.000744229
0.00073376
0.000723606
0.000713776
0.000704279
0.000695269
0.00085156
0.000850665
0.000849168
0.000846883
0.000843733
0.000839745
0.00083501
0.000829658
0.000823823
0.000817633
0.000811201
0.000804622
0.00079797
0.000791308
0.000784679
0.00077812
0.000771667
0.000765457
0.000851652
0.000851133
0.000850467
0.000849562
0.000848343
0.000846764
0.000844813
0.000842499
0.000839853
0.000836916
0.000833731
0.000830346
0.000826803
0.000823141
0.000819396
0.000815598
0.000811781
0.000808043
0.000851668
0.000851231
0.000850778
0.000850277
0.000849695
0.000849002
0.000848175
0.000847199
0.00084607
0.000844789
0.000843365
0.000841808
0.000840133
0.000838356
0.000836493
0.000834559
0.000832574
0.000830596
0.000851669
0.000851245
0.000850835
0.000850428
0.000850012
0.000849572
0.000849096
0.000848572
0.000847991
0.000847349
0.000846643
0.000845872
0.00084504
0.00084415
0.000843207
0.000842216
0.000841188
0.000840157
0.000851668
0.000851245
0.000850843
0.000850459
0.000850087
0.000849723
0.000849361
0.000848996
0.00084862
0.000848232
0.000847826
0.000847401
0.000846955
0.000846487
0.000845999
0.00084549
0.000844965
0.000844443
0.000851667
0.000851242
0.000850839
0.000850458
0.000850096
0.00084975
0.000849418
0.000849098
0.000848787
0.000848483
0.000848184
0.000847888
0.000847594
0.0008473
0.000847006
0.000846711
0.000846417
0.000846136
0.000851666
0.000851239
0.000850835
0.000850452
0.000850089
0.000849745
0.000849417
0.000849105
0.000848807
0.000848522
0.000848249
0.000847986
0.000847733
0.000847489
0.000847254
0.000847026
0.000846807
0.000846608
0.000851665
0.000851237
0.000850831
0.000850447
0.000850082
0.000849737
0.000849408
0.000849096
0.000848798
0.000848515
0.000848245
0.000847988
0.000847742
0.000847507
0.000847282
0.000847067
0.000846864
0.000846683
0.000851664
0.000851235
0.000850828
0.000850442
0.000850077
0.00084973
0.0008494
0.000849087
0.000848789
0.000848505
0.000848234
0.000847976
0.00084773
0.000847496
0.000847272
0.000847058
0.000846857
0.000846677
0.000851664
0.000851234
0.000850826
0.00085044
0.000850073
0.000849725
0.000849395
0.000849081
0.000848782
0.000848498
0.000848227
0.000847968
0.000847722
0.000847487
0.000847263
0.000847049
0.000846847
0.000846668
0.000851663
0.000851233
0.000850825
0.000850439
0.000850072
0.000849724
0.000849394
0.000849079
0.00084878
0.000848496
0.000848225
0.000847967
0.00084772
0.000847485
0.000847261
0.000847048
0.000846846
0.000846667
0.000851664
0.000851234
0.000850826
0.00085044
0.000850074
0.000849727
0.000849397
0.000849083
0.000848785
0.000848501
0.00084823
0.000847972
0.000847725
0.00084749
0.000847265
0.00084705
0.000846847
0.000846666
0.000851664
0.000851235
0.000850829
0.000850444
0.000850078
0.000849731
0.000849401
0.000849085
0.000848784
0.000848494
0.000848217
0.000847949
0.000847691
0.000847441
0.000847199
0.000846964
0.000846739
0.000846533
0.000851665
0.000851237
0.00085083
0.000850442
0.000850069
0.000849708
0.000849354
0.000849003
0.000848653
0.000848301
0.000847945
0.000847584
0.000847216
0.000846841
0.00084646
0.000846072
0.000845681
0.000845299
0.000851664
0.000851227
0.000850795
0.000850348
0.000849871
0.000849348
0.000848767
0.000848118
0.000847399
0.000846609
0.00084575
0.000844825
0.000843843
0.000842809
0.00084173
0.000840615
0.000839474
0.00083833
0.000851634
0.000851073
0.000850344
0.000849365
0.000848083
0.000846475
0.000844543
0.00084231
0.000839813
0.00083709
0.000834187
0.000831143
0.000827996
0.000824781
0.000821527
0.000818259
0.000815001
0.0008118
0.000851287
0.000849596
0.000846723
0.000842583
0.000837273
0.000830998
0.000824001
0.000816515
0.000808736
0.000800821
0.000792892
0.00078504
0.000777329
0.000769804
0.000762496
0.000755424
0.000748602
0.000742083
0.000848318
0.000839427
0.000826167
0.00081003
0.000792382
0.000774265
0.000756377
0.000739122
0.000722698
0.000707185
0.000692594
0.000678899
0.000666053
0.000654001
0.000642687
0.000632056
0.000622061
0.000612711
0.000828549
0.000788848
0.000746046
0.000705725
0.0006695
0.000637554
0.000609519
0.000584837
0.000562969
0.000543462
0.000525946
0.000510121
0.000495746
0.000482627
0.000470604
0.000459547
0.00044935
0.000439963
0.000730728
0.000627355
0.000554526
0.000501088
0.000460358
0.000428401
0.000402702
0.000381555
0.000363816
0.000348709
0.000335688
0.000324355
0.000314412
0.000305629
0.000297826
0.000290859
0.000284608
0.00027899
0.000439253
0.000338477
0.000287945
0.000256882
0.000236378
0.000222528
0.000213012
0.000206332
0.000201526
0.000197979
0.00019529
0.000193194
0.000191515
0.00019013
0.000188958
0.000187942
0.000187042
0.000186213
7.16431e-05
6.90587e-05
6.65522e-05
6.41645e-05
6.19881e-05
6.00778e-05
5.84553e-05
5.71192e-05
5.60536e-05
5.52348e-05
5.46356e-05
5.42281e-05
5.39856e-05
5.38831e-05
5.3898e-05
5.40102e-05
5.42023e-05
5.44581e-05
2.85884e-05
4.66618e-05
5.20886e-05
5.55357e-05
5.77989e-05
5.92897e-05
6.02291e-05
6.07473e-05
6.09274e-05
6.08239e-05
6.04713e-05
5.98879e-05
5.90777e-05
5.80535e-05
5.6983e-05
5.58564e-05
5.46258e-05
5.32669e-05
5.17846e-05
5.02386e-05
4.88011e-05
4.78485e-05
4.79767e-05
4.96952e-05
5.28951e-05
5.68172e-05
6.05907e-05
6.36408e-05
6.61755e-05
6.92937e-05
7.28654e-05
7.69651e-05
8.13676e-05
8.58512e-05
9.02538e-05
9.44758e-05
9.84638e-05
0.000102194
0.00010566
0.000108865
0.000111819
0.000114535
0.000117029
0.000119316
0.000121415
0.000123341
0.000125112
0.000126741
0.000128244
0.000129634
0.000130921
0.000132118
0.000133232
0.000134273
0.000135247
0.00013616
0.000137018
0.000137826
0.000138587
0.000139304
0.000139982
0.000140622
0.000141226
0.000141797
0.000142335
0.000142843
0.00014332
0.000143768
0.000144188
0.00014458
0.000144944
0.00014528
0.000145588
0.000145869
0.000146121
0.000146346
0.000146542
0.000146709
0.000146847
0.000146956
0.000147035
0.000147084
0.000147101
0.000147089
0.000147044
0.000146969
0.000146862
0.000146723
0.000146553
0.000146351
0.000146118
0.000145854
0.00014556
0.000145236
0.000144883
0.000144503
0.000144096
0.000143664
0.00014321
0.000142737
0.000142252
0.000141762
0.000141299
0.000140825
0.000140343
0.000139854
0.00013936
0.000138863
0.000138364
0.000137862
0.000137359
0.000136854
0.000136347
0.000135836
0.000135321
0.0001348
0.000134269
0.000133724
0.000133163
0.000132578
0.000131965
0.000131315
0.00013062
0.000129869
0.000129051
0.000128151
0.000127155
0.000126045
0.000124803
0.000123407
0.000121832
0.000120049
0.000117997
0.000115541
0.000112815
0.000111374
0.000110146
0.000108778
0.000107251
0.000105578
0.000103787
0.000101907
9.99695e-05
9.80031e-05
9.60356e-05
9.40906e-05
9.2188e-05
9.03439e-05
8.85701e-05
8.68749e-05
8.52634e-05
8.37379e-05
8.2298e-05
8.09412e-05
7.96653e-05
7.84655e-05
7.73255e-05
7.62223e-05
7.51595e-05
7.41182e-05
7.30921e-05
7.20809e-05
7.10872e-05
7.01144e-05
6.91659e-05
6.82448e-05
6.73533e-05
6.64928e-05
6.56637e-05
6.48652e-05
6.40957e-05
6.33519e-05
6.26296e-05
6.19225e-05
6.1222e-05
6.05153e-05
5.97855e-05
5.89966e-05
5.81276e-05
5.69714e-05
6.47829e-05
0.000137373
0.000194324
0.000238928
0.000273435
0.000299363
0.000317916
0.000330155
0.000337032
0.000339385
0.000337933
0.000333248
0.000325679
0.000314999
0.00029906
0.000279361
0.000258399
0.000238526
0.000222141
0.000212057
0.000211867
0.000225325
0.000252907
0.000288641
0.000323152
0.000349315
0.000364607
0.000372269
0.000376439
0.000380305
0.0003862
0.000395562
0.00040907
0.000426907
0.000448924
0.000474749
0.000503858
0.000535605
0.000569262
0.000604062
0.000639253
0.000674152
0.000708181
0.000740891
0.000771967
0.000801217
0.000828556
0.00085398
0.000877546
0.000899349
0.000919508
0.00093815
0.000955405
0.000971397
0.000986243
0.00100005
0.00101291
0.00102492
0.00103615
0.00104667
0.00105654
0.00106581
0.00107453
0.00108274
0.00109048
0.00109777
0.00110464
0.00111112
0.00111722
0.00112296
0.00112836
0.00113342
0.00113815
0.00114256
0.00114665
0.00115043
0.00115389
0.00115704
0.00115988
0.00116241
0.00116461
0.0011665
0.00116806
0.0011693
0.00117021
0.00117079
0.00117104
0.00117095
0.00117053
0.00116977
0.00116867
0.00116724
0.00116548
0.00116338
0.00116093
0.00115814
0.00115498
0.00115143
0.00114743
0.00114292
0.00113779
0.00113195
0.00112586
0.00111967
0.0011134
0.00110713
0.0011009
0.00109477
0.00108881
0.00108307
0.00107761
0.00107249
0.00106776
0.00106348
0.00105968
0.00105641
0.00105368
0.00105151
0.00104991
0.00104884
0.00104828
0.00104815
0.00104837
0.00104881
0.00104929
0.00104963
0.00104956
0.00104878
0.00104692
0.00104356
0.00103815
0.00102996
0.00101791
0.00100032
0.00097641
0.000949297
0.000919775
0.000888112
0.000854654
0.000819811
0.000784026
0.000747744
0.000711391
0.000675353
0.00063996
0.000605488
0.000572151
0.000540109
0.000509473
0.000480316
0.000452675
0.000426565
0.000401978
0.000378894
0.000357278
0.000337057
0.000317995
0.000299016
0.000280413
0.000263584
0.00024871
0.000235702
0.00022439
0.000214581
0.000206082
0.000198712
0.000192306
0.000186716
0.00018181
0.000177471
0.000173595
0.000170088
0.000166862
0.00016383
0.0001609
0.000157967
0.000154872
0.000151525
0.000147179
0.000143851
8.5943e-05
0.00017759
0.000258325
0.0003279
0.000386404
0.0004342
0.000471875
0.000500203
0.000520067
0.000532374
0.000537995
0.000537716
0.000532178
0.000521797
0.000505298
0.000483218
0.000457532
0.000431278
0.00040865
0.00039479
0.000394732
0.000411114
0.000441747
0.000479844
0.000517062
0.000547507
0.000570223
0.000587976
0.0006047
0.000624249
0.00064964
0.000682762
0.000724411
0.000774474
0.00083214
0.000896101
0.000964755
0.00103639
0.00110934
0.00118212
0.00125351
0.00132255
0.00138859
0.00145122
0.00151023
0.0015656
0.00161738
0.00166574
0.00171086
0.00175297
0.0017923
0.00182906
0.00186348
0.00189574
0.00192604
0.00195453
0.00198138
0.00200671
0.00203065
0.0020533
0.00207477
0.00209514
0.00211449
0.00213289
0.00215039
0.00216704
0.0021829
0.00219799
0.00221236
0.00222602
0.002239
0.00225132
0.00226299
0.00227401
0.00228439
0.00229413
0.00230322
0.00231167
0.00231946
0.00232658
0.00233302
0.00233877
0.00234381
0.00234812
0.00235168
0.00235448
0.00235649
0.0023577
0.00235808
0.00235762
0.00235629
0.00235407
0.00235094
0.00234688
0.00234186
0.00233585
0.00232882
0.00232075
0.0023116
0.00230135
0.00229
0.00227756
0.00226437
0.00225057
0.00223622
0.0022214
0.00220618
0.00219063
0.00217486
0.00215893
0.00214294
0.00212697
0.0021111
0.00209543
0.00208001
0.0020649
0.00205016
0.00203581
0.00202187
0.00200831
0.00199508
0.0019821
0.00196923
0.00195628
0.00194302
0.00192914
0.00191426
0.00189795
0.00187969
0.0018589
0.0018349
0.00180696
0.00177423
0.00173593
0.00169305
0.00164648
0.00159664
0.00154395
0.00148894
0.00143222
0.00137445
0.00131628
0.00125833
0.00120114
0.00114516
0.00109076
0.0010382
0.000987671
0.000939296
0.000893129
0.000849183
0.000807437
0.000767844
0.000730342
0.00069485
0.000661262
0.000629363
0.000598687
0.000568812
0.000539254
0.000511213
0.000484947
0.000460591
0.00043819
0.000417726
0.000399132
0.000382312
0.000367146
0.0003535
0.000341227
0.000330171
0.000320166
0.000311034
0.000302578
0.000294566
0.000286715
0.0002786
0.000269728
0.000258653
0.00024522
0.000102115
0.000211681
0.000314142
0.000403342
0.000478173
0.000539184
0.000587432
0.000624131
0.000650511
0.000667744
0.000676904
0.000678935
0.000674606
0.000664462
0.000647663
0.000625363
0.000599503
0.000573168
0.000550815
0.000538041
0.000539835
0.000558262
0.00059094
0.000630726
0.000670821
0.000707602
0.00074093
0.000773501
0.00080915
0.000851546
0.000903324
0.000965725
0.00103865
0.00112095
0.00121079
0.00130604
0.00140449
0.00150413
0.00160324
0.00170042
0.00179463
0.00188517
0.00197157
0.0020536
0.0021312
0.00220442
0.0022734
0.00233833
0.00239944
0.00245695
0.00251112
0.00256217
0.00261034
0.00265583
0.00269885
0.00273957
0.00277816
0.00281478
0.00284957
0.00288265
0.00291414
0.00294414
0.00297274
0.00300002
0.00302605
0.00305091
0.00307463
0.00309727
0.00311886
0.00313944
0.00315903
0.00317765
0.00319531
0.00321202
0.00322777
0.00324257
0.0032564
0.00326925
0.00328111
0.00329195
0.00330176
0.00331051
0.00331816
0.00332469
0.00333007
0.00333426
0.00333722
0.00333893
0.00333934
0.00333842
0.00333614
0.00333245
0.00332732
0.00332072
0.00331262
0.00330299
0.0032918
0.00327906
0.00326474
0.00324886
0.00323146
0.0032126
0.00319238
0.003171
0.00314852
0.00312501
0.00310055
0.00307521
0.00304906
0.00302219
0.00299469
0.00296663
0.0029381
0.00290918
0.00287994
0.00285046
0.00282079
0.00279096
0.00276101
0.00273094
0.00270073
0.00267031
0.00263958
0.00260839
0.00257655
0.00254378
0.00250977
0.00247411
0.00243636
0.00239601
0.0023525
0.00230529
0.00225381
0.00219854
0.0021401
0.00207847
0.00201393
0.00194694
0.00187811
0.0018081
0.00173766
0.00166747
0.0015982
0.00153039
0.0014645
0.00140087
0.00133975
0.00128128
0.00122552
0.00117248
0.00112212
0.00107436
0.0010291
0.000986218
0.000945601
0.000907107
0.000870563
0.000835723
0.000802294
0.000769874
0.000738274
0.000708063
0.000679353
0.000652238
0.000626777
0.000602996
0.000580892
0.000560433
0.000541562
0.000524195
0.000508229
0.000493534
0.000479954
0.000467295
0.000455314
0.000443696
0.000431961
0.000419461
0.000404702
0.000386582
0.000117069
0.000246503
0.000370529
0.000476947
0.000564472
0.000634503
0.000688953
0.000729709
0.000758499
0.000776858
0.000786113
0.000787376
0.000781512
0.000768831
0.000749768
0.000726041
0.00070009
0.000675348
0.000656245
0.000649489
0.000658452
0.000682978
0.000719417
0.000762345
0.000807393
0.000852822
0.00089947
0.000949972
0.0010075
0.00107466
0.00115283
0.00124201
0.00134104
0.00144801
0.00156066
0.00167673
0.00179414
0.00191113
0.00202629
0.00213853
0.0022471
0.00235148
0.00245137
0.00254663
0.00263725
0.0027233
0.00280491
0.00288226
0.00295556
0.00302501
0.00309085
0.00315327
0.00321251
0.00326875
0.0033222
0.00337302
0.00342139
0.00346746
0.00351138
0.00355327
0.00359326
0.00363146
0.00366795
0.00370283
0.00373618
0.00376806
0.00379853
0.00382764
0.00385543
0.00388193
0.00390716
0.00393115
0.0039539
0.00397542
0.00399569
0.00401473
0.0040325
0.004049
0.00406419
0.00407805
0.00409055
0.00410165
0.00411132
0.00411951
0.00412617
0.00413128
0.00413477
0.00413661
0.00413674
0.00413512
0.00413171
0.00412647
0.00411935
0.00411031
0.00409934
0.00408639
0.00407146
0.00405453
0.00403561
0.00401471
0.00399187
0.00396712
0.00394051
0.00391214
0.0038821
0.00385047
0.00381731
0.00378269
0.00374665
0.00370928
0.00367063
0.00363079
0.00358982
0.00354779
0.00350477
0.00346084
0.00341604
0.00337044
0.00332406
0.00327695
0.00322913
0.00318058
0.00313125
0.00308107
0.00302994
0.00297768
0.00292408
0.00286888
0.00281176
0.00275235
0.00269024
0.00262512
0.00255724
0.00248731
0.00241503
0.00234046
0.00226389
0.00218583
0.00210688
0.00202774
0.00194913
0.00187173
0.00179615
0.00172288
0.00165233
0.00158475
0.00152032
0.00145909
0.00140107
0.00134616
0.00129428
0.00124527
0.00119899
0.00115526
0.00111393
0.00107483
0.00103778
0.00100259
0.000969044
0.000936869
0.000905691
0.000875703
0.000846973
0.000819563
0.000793523
0.000768887
0.000745676
0.00072389
0.000703512
0.000684503
0.000666802
0.000650322
0.000634948
0.000620525
0.000606848
0.000593639
0.000580476
0.00056676
0.000551291
0.000533123
0.000131463
0.000281862
0.00042604
0.000547385
0.000645281
0.000722161
0.000780748
0.000823552
0.000852755
0.000870227
0.000877557
0.000876062
0.000866818
0.000850228
0.000828026
0.00080303
0.000778557
0.00075872
0.000748003
0.00075033
0.000767242
0.000797523
0.000838084
0.000885516
0.000937574
0.000993865
0.00105559
0.00112482
0.00120351
0.00129281
0.00139278
0.00150239
0.00161993
0.00174329
0.00187035
0.00199913
0.00212791
0.0022553
0.00238021
0.00250183
0.00261959
0.00273312
0.0028422
0.00294673
0.0030467
0.00314218
0.00323327
0.00332011
0.00340287
0.00348173
0.00355688
0.00362849
0.00369677
0.00376188
0.003824
0.00388329
0.00393993
0.00399404
0.00404578
0.00409526
0.00414261
0.00418793
0.00423132
0.00427287
0.00431265
0.00435074
0.00438718
0.00442203
0.00445533
0.00448711
0.00451739
0.00454618
0.0045735
0.00459935
0.00462371
0.00464657
0.00466792
0.00468773
0.00470596
0.0047226
0.00473758
0.00475088
0.00476245
0.00477224
0.00478019
0.00478626
0.00479039
0.00479252
0.00479262
0.00479061
0.00478645
0.00478009
0.0047715
0.00476061
0.00474742
0.00473187
0.00471396
0.00469366
0.00467098
0.00464591
0.00461848
0.00458871
0.00455652
0.00452203
0.00448533
0.00444647
0.00440551
0.0043625
0.00431747
0.00427048
0.00422158
0.00417081
0.00411824
0.00406393
0.00400793
0.00395031
0.00389112
0.00383041
0.00376825
0.00370468
0.00363976
0.00357355
0.00350605
0.00343725
0.00336715
0.00329574
0.00322288
0.00314849
0.00307242
0.00299445
0.00291431
0.00283273
0.00275001
0.00266598
0.00258062
0.0024941
0.00240681
0.00231925
0.00223208
0.00214596
0.00206158
0.00197955
0.0019004
0.00182454
0.00175224
0.00168367
0.00161887
0.00155782
0.00150039
0.00144643
0.00139574
0.00134813
0.00130338
0.00126127
0.00122161
0.00118419
0.00114883
0.00111533
0.00108352
0.00105319
0.00102402
0.000995955
0.000969018
0.000943227
0.000918606
0.000895174
0.000872947
0.000851931
0.000832123
0.000813503
0.000796035
0.000779663
0.000764303
0.00074984
0.000736113
0.000722898
0.000709859
0.000696508
0.000681973
0.00066567
0.000145156
0.000316131
0.000478248
0.000612572
0.000719482
0.00080225
0.000864176
0.00090831
0.000937216
0.000953074
0.000957766
0.00095298
0.000940261
0.00092125
0.000898512
0.000875228
0.0008551
0.000842021
0.000839437
0.000849579
0.000872888
0.000908177
0.000953451
0.00100689
0.00106759
0.00113572
0.00121224
0.00129825
0.00139443
0.0015007
0.00161619
0.00173941
0.00186855
0.00200168
0.002137
0.00227288
0.00240799
0.00254125
0.00267182
0.00279908
0.00292261
0.0030421
0.00315738
0.00326837
0.00337505
0.00347745
0.00357566
0.00366976
0.0037599
0.0038462
0.00392882
0.00400791
0.00408362
0.00415611
0.00422553
0.00429203
0.00435574
0.00441681
0.00447535
0.00453149
0.00458534
0.004637
0.00468657
0.00473412
0.00477973
0.00482347
0.00486538
0.00490553
0.00494393
0.00498063
0.00501564
0.00504897
0.00508063
0.00511062
0.00513891
0.00516551
0.00519037
0.00521347
0.00523478
0.00525425
0.00527184
0.0052875
0.00530118
0.00531282
0.00532236
0.00532976
0.00533493
0.00533783
0.0053384
0.00533657
0.00533229
0.00532549
0.00531614
0.00530418
0.00528957
0.00527227
0.00525225
0.00522948
0.00520394
0.00517562
0.00514452
0.00511064
0.00507381
0.00503417
0.00499178
0.00494669
0.00489895
0.00484857
0.00479558
0.00474001
0.00468189
0.00462125
0.00455813
0.00449257
0.00442463
0.00435436
0.00428179
0.00420699
0.00413
0.0040509
0.00396978
0.00388674
0.00380185
0.00371513
0.0036267
0.00353672
0.0034451
0.00335193
0.00325739
0.00316111
0.00306456
0.00296744
0.00286986
0.00277189
0.00267374
0.00257573
0.00247831
0.00238208
0.00228768
0.00219576
0.00210695
0.00202179
0.0019407
0.00186396
0.0017917
0.00172396
0.00166065
0.00160159
0.00154656
0.00149529
0.00144752
0.00140294
0.00136129
0.00132231
0.00128574
0.00125137
0.00121898
0.00118838
0.0011594
0.00113186
0.00110553
0.00108021
0.0010559
0.00103261
0.00101033
0.000989058
0.000968813
0.000949595
0.000931401
0.000914222
0.000898037
0.000882807
0.000868474
0.000854954
0.000842125
0.000829814
0.000817763
0.000805599
0.000792709
0.000778792
0.000157898
0.000347362
0.000524959
0.000670705
0.000785723
0.000874008
0.00093942
0.000985315
0.00101458
0.00102974
0.00103311
0.00102692
0.001013
0.000993969
0.000972823
0.000952949
0.000937915
0.000931049
0.000934933
0.000950994
0.000979419
0.00101947
0.00107007
0.00113036
0.00119999
0.00127911
0.00136807
0.00146701
0.00157566
0.00169315
0.0018182
0.00194923
0.00208456
0.00222256
0.00236175
0.00250085
0.00263882
0.00277481
0.00290817
0.00303841
0.00316519
0.00328826
0.00340748
0.00352276
0.00363406
0.00374139
0.00384481
0.00394437
0.00404016
0.00413229
0.00422086
0.00430599
0.0043878
0.00446643
0.00454199
0.00461462
0.00468443
0.00475154
0.00481606
0.00487811
0.00493777
0.00499516
0.00505034
0.00510339
0.00515439
0.00520339
0.00525044
0.00529559
0.00533887
0.00538029
0.00541989
0.00545766
0.0054936
0.00552771
0.00555997
0.00559035
0.00561884
0.00564539
0.00566996
0.0056925
0.00571298
0.00573132
0.00574747
0.00576137
0.00577296
0.00578216
0.00578892
0.00579316
0.00579481
0.00579381
0.00579009
0.00578358
0.00577423
0.00576198
0.00574676
0.00572854
0.00570725
0.00568288
0.00565536
0.00562468
0.0055908
0.00555368
0.00551314
0.00546928
0.00542217
0.00537184
0.00531831
0.00526158
0.00520166
0.00513855
0.00507227
0.00500282
0.00493021
0.00485448
0.00477568
0.00469384
0.004609
0.00452119
0.00443045
0.00433685
0.00424052
0.00414165
0.00404032
0.00393657
0.00383052
0.00372276
0.00361307
0.00350153
0.00338961
0.003277
0.00316422
0.0030515
0.00293909
0.00282732
0.00271656
0.0026073
0.00250013
0.00239569
0.00229465
0.00219766
0.00210528
0.00201795
0.00193597
0.00185947
0.00178843
0.00172273
0.00166212
0.00160628
0.00155485
0.00150745
0.00146372
0.00142326
0.00138575
0.00135087
0.00131833
0.00128787
0.00125927
0.00123233
0.00120686
0.00118271
0.00115967
0.00113757
0.00111634
0.00109599
0.00107649
0.00105785
0.00104007
0.00102314
0.00100707
0.00099186
0.000977489
0.000963935
0.000951159
0.0009391
0.000927667
0.000916732
0.0009061
0.000895492
0.00088448
0.000872943
0.000168818
0.000373758
0.000564967
0.000721384
0.000844591
0.000938939
0.00100861
0.00105728
0.0010882
0.0011043
0.00110834
0.00110278
0.00109002
0.00107301
0.00105496
0.0010392
0.00102904
0.00102736
0.00103629
0.00105701
0.00108983
0.00113446
0.00119038
0.00125713
0.00133443
0.00142212
0.0015199
0.00162726
0.00174331
0.00186686
0.00199651
0.00213079
0.00226823
0.00240748
0.00254735
0.00268683
0.00282509
0.00296144
0.00309539
0.00322652
0.00335455
0.00347928
0.00360056
0.0037183
0.00383246
0.00394303
0.00405002
0.00415345
0.0042534
0.00434991
0.00444308
0.00453297
0.0046197
0.00470334
0.00478401
0.00486181
0.00493683
0.00500918
0.00507895
0.00514623
0.00521112
0.00527368
0.005334
0.00539214
0.00544817
0.00550212
0.00555406
0.00560401
0.005652
0.00569804
0.00574215
0.00578434
0.00582459
0.00586289
0.00589921
0.00593354
0.00596584
0.00599606
0.00602416
0.00605009
0.00607378
0.00609518
0.00611422
0.00613084
0.00614495
0.00615648
0.00616537
0.00617153
0.00617488
0.00617535
0.00617286
0.00616734
0.0061587
0.00614689
0.00613182
0.00611344
0.00609168
0.00606648
0.0060378
0.00600556
0.00596974
0.00593017
0.00588676
0.00583957
0.00578864
0.00573399
0.0056756
0.00561347
0.00554758
0.00547792
0.00540447
0.00532722
0.00524616
0.00516129
0.00507268
0.00498035
0.00488431
0.00478458
0.0046812
0.00457417
0.00446365
0.00435001
0.00423332
0.00411359
0.00399063
0.00386611
0.0037398
0.00361205
0.00348358
0.00335475
0.00322607
0.00309799
0.00297103
0.00284572
0.00272265
0.00260249
0.00248594
0.00237374
0.0022666
0.00216513
0.00206985
0.00198109
0.001899
0.00182357
0.00175461
0.0016918
0.00163474
0.00158296
0.00153595
0.00149322
0.00145428
0.00141867
0.00138598
0.00135584
0.00132793
0.00130194
0.00127764
0.00125482
0.0012333
0.00121291
0.00119348
0.00117484
0.00115693
0.00113973
0.00112324
0.00110744
0.00109233
0.00107793
0.00106422
0.00105121
0.0010389
0.00102728
0.00101631
0.00100596
0.000996163
0.000986821
0.000977792
0.000968869
0.000959751
0.00095042
0.000177269
0.000395207
0.000598022
0.00076435
0.000895873
0.000996933
0.00107185
0.00112458
0.00115875
0.00117767
0.00118447
0.00118152
0.00117184
0.00115848
0.00114464
0.00113351
0.00112812
0.00113107
0.00114431
0.00116901
0.00120568
0.00125432
0.00131467
0.00138636
0.00146896
0.00156195
0.0016646
0.001776
0.001895
0.00202034
0.00215066
0.00228465
0.00242108
0.00255882
0.0026969
0.00283452
0.00297099
0.00310578
0.00323846
0.0033687
0.00349625
0.00362093
0.0037426
0.00386118
0.00397661
0.00408886
0.0041979
0.00430377
0.00440646
0.00450603
0.00460252
0.00469598
0.00478648
0.00487409
0.00495888
0.00504093
0.00512032
0.00519714
0.00527145
0.00534333
0.00541285
0.00548009
0.00554509
0.00560793
0.00566864
0.00572728
0.00578387
0.00583844
0.00589101
0.00594159
0.00599019
0.0060368
0.0060814
0.00612399
0.00616452
0.00620296
0.00623928
0.00627343
0.00630534
0.00633496
0.00636223
0.00638707
0.00640942
0.00642919
0.0064463
0.00646068
0.00647222
0.00648086
0.00648649
0.00648903
0.00648839
0.00648448
0.00647722
0.00646651
0.00645228
0.00643444
0.00641291
0.00638761
0.00635847
0.00632542
0.00628839
0.0062471
0.0062016
0.00615188
0.00609796
0.00603982
0.00597743
0.00591078
0.00583982
0.00576451
0.00568483
0.00560073
0.00551217
0.00541912
0.00532169
0.00521988
0.0051137
0.00500314
0.00488821
0.00476886
0.00464509
0.00451781
0.00438694
0.00425264
0.00411515
0.00397529
0.0038334
0.00369002
0.00354579
0.00340135
0.00325736
0.00311451
0.00297356
0.00283526
0.00270043
0.00256992
0.00244458
0.00232525
0.00221266
0.00210741
0.00200995
0.00192048
0.00183901
0.00176536
0.00169915
0.00163991
0.00158703
0.0015399
0.00149787
0.00146032
0.00142666
0.00139634
0.00136889
0.00134388
0.00132093
0.00129974
0.00128004
0.0012616
0.00124425
0.00122782
0.00121215
0.00119709
0.0011826
0.00116866
0.00115524
0.00114236
0.00113
0.00111819
0.00110692
0.0010962
0.00108604
0.00107643
0.00106736
0.00105881
0.00105073
0.00104305
0.00103567
0.00102843
0.00102113
0.00101379
0.000183017
0.000410887
0.000623232
0.000798826
0.000938847
0.00104724
0.00112832
0.00118632
0.00122523
0.0012487
0.00125966
0.00126115
0.00125626
0.00124805
0.00123956
0.0012338
0.00123352
0.00124113
0.00125847
0.00128677
0.00132666
0.00137832
0.00144158
0.00151602
0.00160108
0.00169597
0.00179977
0.0019114
0.00202967
0.00215334
0.0022812
0.00241209
0.00254498
0.00267893
0.00281316
0.00294698
0.00307986
0.00321134
0.00334106
0.00346876
0.0035942
0.00371723
0.00383772
0.00395559
0.00407076
0.00418319
0.00429286
0.00439974
0.00450383
0.00460516
0.00470373
0.00479958
0.00489274
0.00498327
0.0050712
0.00515661
0.00523953
0.00532003
0.00539818
0.00547402
0.00554761
0.005619
0.00568824
0.00575538
0.00582045
0.00588348
0.00594449
0.00600351
0.00606053
0.00611557
0.00616862
0.00621967
0.00626868
0.00631564
0.00636051
0.00640325
0.0064438
0.00648211
0.00651811
0.00655175
0.00658294
0.0066116
0.00663765
0.006661
0.00668157
0.00669926
0.00671396
0.00672559
0.00673404
0.00673921
0.006741
0.0067393
0.006734
0.00672502
0.00671224
0.00669557
0.00667491
0.00665016
0.00662123
0.00658804
0.00655037
0.00650811
0.00646124
0.00640973
0.00635358
0.00629272
0.00622714
0.00615677
0.00608156
0.00600146
0.00591641
0.00582636
0.00573122
0.00563083
0.00552553
0.00541523
0.0052999
0.00517955
0.0050542
0.0049239
0.00478879
0.0046493
0.00450564
0.00435805
0.00420696
0.00405295
0.00389659
0.00373853
0.00357953
0.00342039
0.00326199
0.00310526
0.00295118
0.00280075
0.00265504
0.00251507
0.00238185
0.0022563
0.00213918
0.00203108
0.00193232
0.001843
0.00176295
0.0016918
0.00162901
0.00157389
0.0015257
0.00148364
0.00144696
0.0014149
0.00138678
0.00136198
0.00133995
0.00132022
0.00130239
0.0012861
0.00127109
0.00125712
0.001244
0.00123158
0.0012197
0.00120823
0.00119716
0.00118645
0.0011761
0.00116611
0.00115648
0.00114723
0.00113837
0.00112992
0.00112189
0.00111429
0.00110711
0.00110034
0.00109397
0.00108793
0.00108216
0.00107655
0.00107093
0.00106539
0.000186553
0.000420947
0.000640967
0.000825114
0.000973445
0.0010893
0.00117698
0.00124097
0.00128558
0.00131452
0.00133103
0.00133844
0.00133981
0.00133809
0.00133613
0.00133665
0.00134216
0.00135483
0.00137639
0.00140805
0.0014505
0.001504
0.00156841
0.00164332
0.00172806
0.0018218
0.00192355
0.00203223
0.00214673
0.00226591
0.00238871
0.00251414
0.00264131
0.00276944
0.0028979
0.00302612
0.00315366
0.00328015
0.00340528
0.00352881
0.00365054
0.00377034
0.00388809
0.0040037
0.00411711
0.00422826
0.0043371
0.00444361
0.00454777
0.00464957
0.004749
0.00484606
0.00494079
0.00503319
0.0051233
0.00521114
0.00529675
0.00538017
0.00546143
0.00554059
0.00561766
0.00569269
0.00576571
0.00583675
0.00590583
0.00597296
0.00603817
0.00610145
0.0061628
0.00622222
0.00627968