/*--------------------------------*- C++ -*----------------------------------*\
  =========                 |
  \\      /  F ield         | OpenFOAM: The Open Source CFD Toolbox
   \\    /   O peration     | Website:  https://openfoam.org
    \\  /    A nd           | Version:  12
     \\/     M anipulation  |
\*---------------------------------------------------------------------------*/
FoamFile
{
    format      ascii;
    class       volScalarField;
    location    "0.05";
    object      p;
}
// * * * * * * * * * * * * * * * * * * * * * * * * * * * * * * * * * * * * * //

dimensions      [0 2 -2 0 0 0 0];

internalField   nonuniform List<scalar> 
12225
(
-1.08466
-3.36737
-4.52921
-4.83644
-5.00354
-5.16179
-5.28466
-5.37113
-5.43855
-5.49718
-5.54884
-5.59344
-5.63139
-5.66239
-5.6863
-5.69443
-5.69283
-5.6408
-4.55221
-5.25403
-5.34362
-5.20759
-5.16633
-5.23218
-5.31124
-5.37514
-5.42998
-5.48099
-5.52801
-5.56995
-5.60664
-5.63755
-5.66297
-5.67617
-5.68817
-5.68128
-4.75699
-4.65375
-4.8099
-4.93111
-5.03725
-5.15813
-5.26474
-5.34547
-5.41052
-5.46801
-5.51964
-5.56526
-5.60511
-5.6392
-5.66836
-5.68907
-5.71359
-5.74136
-4.61975
-4.54132
-4.81675
-4.99455
-5.08781
-5.18353
-5.27698
-5.35263
-5.41509
-5.47097
-5.52176
-5.56716
-5.60738
-5.64274
-5.67439
-5.70163
-5.73471
-5.7788
-4.62679
-4.64376
-4.88321
-5.03219
-5.10704
-5.19035
-5.27831
-5.35249
-5.41434
-5.46976
-5.52043
-5.56619
-5.60735
-5.64455
-5.67919
-5.71226
-5.75132
-5.80163
-4.68859
-4.73078
-4.90794
-5.03776
-5.11458
-5.19572
-5.2804
-5.35338
-5.41491
-5.47009
-5.52078
-5.56701
-5.60917
-5.64815
-5.68547
-5.72281
-5.76557
-5.81811
-4.74848
-4.78774
-4.92353
-5.04484
-5.12608
-5.20443
-5.2845
-5.35552
-5.41652
-5.47143
-5.52208
-5.56873
-5.61184
-5.65239
-5.69189
-5.73216
-5.77695
-5.82927
-4.80183
-4.83647
-4.94617
-5.05792
-5.13936
-5.21392
-5.2893
-5.35817
-5.41854
-5.47313
-5.52373
-5.57075
-5.61471
-5.65658
-5.69775
-5.73983
-5.78532
-5.83592
-4.85187
-4.88336
-4.97357
-5.07352
-5.15251
-5.22367
-5.29489
-5.36148
-5.42101
-5.4752
-5.52566
-5.57297
-5.61761
-5.66047
-5.70275
-5.7457
-5.79091
-5.83911
-4.89955
-4.92793
-5.00256
-5.09064
-5.16597
-5.2341
-5.30154
-5.36565
-5.42407
-5.47772
-5.52795
-5.57537
-5.62046
-5.66395
-5.70679
-5.7499
-5.79419
-5.83979
-4.9447
-4.96976
-5.03203
-5.10932
-5.1802
-5.24527
-5.30919
-5.3707
-5.42779
-5.48075
-5.53062
-5.57798
-5.62325
-5.66703
-5.70999
-5.75275
-5.79578
-5.83886
-4.98364
-5.00576
-5.0591
-5.12763
-5.19394
-5.25607
-5.31698
-5.37611
-5.43182
-5.48402
-5.53344
-5.58057
-5.6258
-5.66955
-5.71232
-5.75448
-5.79625
-5.83729
-5.01983
-5.03942
-5.08549
-5.14633
-5.208
-5.26714
-5.32525
-5.38206
-5.43631
-5.48765
-5.53651
-5.5833
-5.62831
-5.67185
-5.71422
-5.75565
-5.7962
-5.83547
-5.05801
-5.07513
-5.1145
-5.16786
-5.22439
-5.28009
-5.33518
-5.38947
-5.44199
-5.49223
-5.54033
-5.58657
-5.63114
-5.67421
-5.71597
-5.75647
-5.79569
-5.83328
-5.09701
-5.11175
-5.14523
-5.1917
-5.24289
-5.2948
-5.34675
-5.39839
-5.44893
-5.49782
-5.54495
-5.59041
-5.63431
-5.6767
-5.71763
-5.7571
-5.79502
-5.83113
-5.13496
-5.14758
-5.17615
-5.21663
-5.26272
-5.31076
-5.35956
-5.40856
-5.45703
-5.50439
-5.55035
-5.59487
-5.63791
-5.67946
-5.71949
-5.75794
-5.79474
-5.82971
-5.16906
-5.17997
-5.20476
-5.24049
-5.28222
-5.32675
-5.37268
-5.41925
-5.46575
-5.51156
-5.55631
-5.5998
-5.64194
-5.68264
-5.72183
-5.75944
-5.79542
-5.82966
-5.19502
-5.2048
-5.22712
-5.25971
-5.29845
-5.34044
-5.38425
-5.42901
-5.47399
-5.51856
-5.56229
-5.60493
-5.64632
-5.68634
-5.72492
-5.76199
-5.79752
-5.83145
-5.20594
-5.21535
-5.23693
-5.26864
-5.30655
-5.34782
-5.39097
-5.43513
-5.47959
-5.52372
-5.56707
-5.60938
-5.65048
-5.69026
-5.72867
-5.76565
-5.8012
-5.8353
-5.19325
-5.20343
-5.22668
-5.26073
-5.30106
-5.3443
-5.38895
-5.43431
-5.47976
-5.52469
-5.56864
-5.61141
-5.65289
-5.69299
-5.73168
-5.76895
-5.8048
-5.83926
-5.16869
-5.18005
-5.20621
-5.24451
-5.28903
-5.33551
-5.38264
-5.43012
-5.47731
-5.52353
-5.56843
-5.61194
-5.65401
-5.6946
-5.7337
-5.77134
-5.80754
-5.84236
-5.13499
-5.14758
-5.17807
-5.22325
-5.27367
-5.32393
-5.374
-5.42425
-5.47373
-5.52157
-5.5676
-5.61196
-5.65469
-5.6958
-5.73531
-5.77329
-5.80981
-5.84493
-5.0953
-5.10814
-5.14403
-5.19942
-5.25759
-5.31187
-5.36496
-5.41811
-5.4699
-5.51933
-5.56652
-5.61178
-5.65519
-5.69679
-5.73667
-5.77496
-5.81174
-5.84712
-5.05214
-5.06395
-5.10691
-5.1744
-5.24024
-5.29926
-5.35681
-5.4134
-5.46709
-5.5176
-5.56566
-5.61163
-5.65556
-5.69751
-5.73764
-5.77612
-5.81307
-5.84858
-5.00575
-5.01377
-5.07541
-5.15612
-5.22247
-5.2836
-5.34724
-5.40882
-5.46487
-5.51648
-5.56537
-5.61198
-5.65629
-5.69844
-5.73869
-5.77725
-5.81428
-5.84991
-4.95811
-4.93476
-5.04617
-5.15603
-5.21784
-5.27346
-5.33868
-5.40311
-5.46074
-5.51339
-5.56318
-5.61049
-5.65524
-5.69765
-5.73806
-5.77673
-5.81385
-5.84955
-4.949
-4.80498
-4.96469
-5.13184
-5.21757
-5.28012
-5.34672
-5.40997
-5.46609
-5.51789
-5.56726
-5.61418
-5.65853
-5.70056
-5.74062
-5.77897
-5.81585
-5.85142
-5.0945
-4.81097
-4.84634
-4.97779
-5.09862
-5.20718
-5.30306
-5.38093
-5.44556
-5.50348
-5.5572
-5.60706
-5.65341
-5.69686
-5.73793
-5.77699
-5.81457
-5.85124
-5.03136
-5.53133
-5.5421
-5.38385
-5.30421
-5.32988
-5.38581
-5.43732
-5.48482
-5.53206
-5.57868
-5.62339
-5.66583
-5.70618
-5.74466
-5.78134
-5.81649
-5.85194
-1.69275
-3.56359
-4.63551
-4.92954
-5.06563
-5.20391
-5.31762
-5.39971
-5.46505
-5.52375
-5.57801
-5.62794
-5.67409
-5.71722
-5.75771
-5.79559
-5.83051
-5.86065
-7.20647
-7.19404
-7.18173
-7.1788
-7.19121
-7.2207
-7.26511
-7.31989
-7.37968
-7.43907
-7.49289
-7.53632
-7.56501
-7.57496
-7.56746
-7.54407
-7.50757
-7.46095
-7.40808
-7.35388
-7.30342
-7.26059
-7.22769
-7.20529
-7.19258
-7.18826
-7.19135
-7.2016
-7.21998
-7.24794
-7.29053
-7.35134
-7.43497
-7.54515
-7.68369
-7.84989
-8.04045
-8.24996
-8.47172
-8.69866
-8.92413
-9.14244
-9.3492
-9.54138
-9.71717
-9.87581
-10.0174
-10.1424
-10.252
-10.3473
-10.4295
-10.4999
-10.5597
-10.6102
-10.6522
-10.6868
-10.7148
-10.7369
-10.7538
-10.7662
-10.7745
-10.7792
-10.7807
-10.7794
-10.7756
-10.7695
-10.7615
-10.7517
-10.7404
-10.7277
-10.7136
-10.6984
-10.6821
-10.6648
-10.6465
-10.6272
-10.6069
-10.5856
-10.5631
-10.5394
-10.5144
-10.4878
-10.4595
-10.4292
-10.3966
-10.3615
-10.3233
-10.2817
-10.2362
-10.1863
-10.1312
-10.0704
-10.003
-9.92832
-9.84534
-9.75313
-9.65064
-9.53683
-9.41062
-9.27085
-9.11606
-8.94365
-8.75106
-8.53694
-8.29955
-8.03687
-7.74663
-7.42646
-7.07383
-6.68615
-6.2607
-5.79476
-5.28552
-4.73024
-4.12622
-3.47089
-2.7619
-1.99722
-1.17526
-0.295007
0.643791
1.64044
2.69307
3.79842
4.95159
6.1458
7.37226
8.62
9.87586
11.1246
12.3494
13.5318
14.6533
15.6972
16.6525
17.5068
18.247
18.8664
19.3636
19.7414
20.0061
20.1674
20.2369
20.2274
20.1523
20.0244
19.8561
19.6587
19.4421
19.2148
18.984
18.7558
18.5349
18.3251
18.1293
17.9499
17.7901
17.6463
17.5143
17.3964
17.2938
17.207
17.1351
17.0774
17.033
17.0009
16.9802
16.9702
16.9702
16.9798
16.9988
17.0277
17.0671
17.1188
17.1856
17.2717
17.3853
17.5348
17.7511
18.0014
-7.28345
-7.25744
-7.25781
-7.2812
-7.31694
-7.36147
-7.41283
-7.4678
-7.52258
-7.57353
-7.6174
-7.65147
-7.67384
-7.68318
-7.67219
-7.63991
-7.58666
-7.51541
-7.43164
-7.34287
-7.25793
-7.18582
-7.13265
-7.09927
-7.08158
-7.07348
-7.0702
-7.07077
-7.07793
-7.09616
-7.13152
-7.19084
-7.28035
-7.40419
-7.56308
-7.75388
-7.97021
-8.20377
-8.44567
-8.68765
-8.92282
-9.14601
-9.35374
-9.54404
-9.71613
-9.8701
-10.0067
-10.1268
-10.2319
-10.3231
-10.4018
-10.4693
-10.5267
-10.575
-10.6153
-10.6483
-10.675
-10.696
-10.7119
-10.7234
-10.7308
-10.7346
-10.7354
-10.7333
-10.7287
-10.722
-10.7133
-10.7029
-10.6909
-10.6776
-10.663
-10.6473
-10.6306
-10.6129
-10.5943
-10.5748
-10.5544
-10.533
-10.5107
-10.4872
-10.4626
-10.4366
-10.409
-10.3797
-10.3483
-10.3146
-10.2782
-10.2386
-10.1954
-10.148
-10.096
-10.0385
-9.97498
-9.90447
-9.82611
-9.73889
-9.64166
-9.53319
-9.41205
-9.27664
-9.12522
-8.95674
-8.7701
-8.56312
-8.33362
-8.07943
-7.79831
-7.48786
-7.14561
-6.76898
-6.3553
-5.90186
-5.4059
-4.8647
-4.27558
-3.63599
-2.94358
-2.1963
-1.39252
-0.531152
0.388162
1.3649
2.39741
3.48273
4.61633
5.79188
7.00112
8.23369
9.47713
10.717
11.9372
13.1205
14.2491
15.3058
16.2729
17.1373
17.8909
18.5273
19.0442
19.4438
19.7319
19.9172
20.0108
20.0248
19.9722
19.8657
19.7172
19.538
19.3378
19.1253
18.9078
18.6912
18.4805
18.2794
18.0911
17.9175
17.7582
17.6146
17.4871
17.3754
17.2786
17.1964
17.1283
17.0734
17.0311
17.0006
16.981
16.9717
16.972
16.9815
17.0002
17.0284
17.0667
17.1167
17.1807
17.2625
17.3689
17.5051
17.6959
17.9032
-7.38828
-7.36065
-7.3657
-7.39761
-7.44119
-7.49011
-7.54156
-7.59263
-7.64031
-7.68183
-7.71472
-7.73678
-7.74611
-7.74107
-7.72068
-7.68298
-7.62767
-7.55575
-7.46997
-7.37572
-7.2814
-7.19681
-7.12953
-7.08138
-7.04892
-7.0275
-7.01496
-7.01289
-7.02604
-7.06068
-7.12262
-7.21577
-7.34136
-7.49776
-7.6808
-7.88454
-8.10216
-8.32684
-8.55236
-8.77351
-8.98615
-9.18729
-9.37488
-9.54775
-9.70539
-9.84782
-9.97543
-10.0889
-10.189
-10.2768
-10.3531
-10.419
-10.4753
-10.523
-10.563
-10.5959
-10.6226
-10.6436
-10.6596
-10.671
-10.6784
-10.6823
-10.6829
-10.6808
-10.6761
-10.6692
-10.6603
-10.6497
-10.6376
-10.6241
-10.6093
-10.5935
-10.5767
-10.559
-10.5404
-10.521
-10.5008
-10.4798
-10.4579
-10.435
-10.4111
-10.3859
-10.3594
-10.3313
-10.3014
-10.2693
-10.2347
-10.1973
-10.1565
-10.1118
-10.0627
-10.0086
-9.94858
-9.88201
-9.80795
-9.72542
-9.63334
-9.53051
-9.41556
-9.28692
-9.14294
-8.98232
-8.80377
-8.60538
-8.38509
-8.14074
-7.87009
-7.57078
-7.24034
-6.87623
-6.47581
-6.03637
-5.55522
-5.02961
-4.45691
-3.83455
-3.16019
-2.43172
-1.64748
-0.806283
0.0923651
1.04812
2.05959
3.1241
4.23751
5.39395
6.58567
7.80287
9.03369
10.2643
11.4792
12.6614
13.7935
14.8575
15.8372
16.7197
17.4946
18.1549
18.6975
19.1239
19.4391
19.6514
19.771
19.81
19.7809
19.6962
19.5679
19.407
19.2234
19.0257
18.8213
18.6164
18.416
18.224
18.0432
17.876
17.7232
17.5856
17.4631
17.355
17.2616
17.1824
17.1168
17.0643
17.024
16.9952
16.9769
16.9686
16.9696
16.9796
16.9983
17.0259
17.0631
17.1111
17.1719
17.2483
17.3452
17.4646
17.6196
17.7633
-7.51203
-7.49639
-7.50332
-7.53142
-7.57038
-7.61425
-7.65973
-7.70398
-7.74426
-7.77809
-7.80322
-7.81771
-7.81988
-7.8083
-7.78176
-7.73951
-7.68165
-7.6094
-7.52546
-7.43463
-7.34384
-7.26085
-7.19181
-7.13926
-7.10267
-7.081
-7.07494
-7.08743
-7.12264
-7.18433
-7.2746
-7.39315
-7.53754
-7.70378
-7.88702
-8.0822
-8.28437
-8.48898
-8.69199
-8.88999
-9.08019
-9.26044
-9.42924
-9.58559
-9.72902
-9.85941
-9.97698
-10.0822
-10.1755
-10.2578
-10.3298
-10.3921
-10.4457
-10.4912
-10.5294
-10.5609
-10.5864
-10.6065
-10.6217
-10.6326
-10.6395
-10.6429
-10.6431
-10.6406
-10.6356
-10.6285
-10.6194
-10.6086
-10.5963
-10.5827
-10.5679
-10.5521
-10.5354
-10.5178
-10.4995
-10.4805
-10.4607
-10.4402
-10.419
-10.3969
-10.374
-10.35
-10.3248
-10.2982
-10.27
-10.2399
-10.2075
-10.1724
-10.1343
-10.0925
-10.0466
-9.99594
-9.93974
-9.87725
-9.80758
-9.72976
-9.64272
-9.5453
-9.43621
-9.31402
-9.17726
-9.02447
-8.8541
-8.66433
-8.45317
-8.2185
-7.95811
-7.66964
-7.35065
-6.99858
-6.61082
-6.18466
-5.71739
-5.20629
-4.64866
-4.04192
-3.38366
-2.67171
-1.90427
-1.08006
-0.198373
0.740658
1.73592
2.78505
3.88428
5.02815
6.20931
7.41839
8.64389
9.87226
11.0881
12.2742
13.4129
14.487
15.481
16.3804
17.1739
17.8537
18.4164
18.863
19.1982
19.4299
19.5684
19.6253
19.6132
19.5445
19.431
19.2839
19.113
18.9269
18.7332
18.538
18.3463
18.1621
17.9885
17.8275
17.6802
17.5472
17.4289
17.3251
17.2359
17.1606
17.0987
17.0494
17.0119
16.9854
16.9692
16.9624
16.9644
16.975
16.9937
17.0208
17.0566
17.1022
17.1588
17.2284
17.3139
17.4143
17.5334
17.6251
-7.6122
-7.61155
-7.62047
-7.64368
-7.67619
-7.71306
-7.75106
-7.78754
-7.8201
-7.84648
-7.86468
-7.87295
-7.86976
-7.85393
-7.82454
-7.78125
-7.72447
-7.65568
-7.57779
-7.49552
-7.41481
-7.34185
-7.28143
-7.23612
-7.20715
-7.19578
-7.20403
-7.23455
-7.28969
-7.37061
-7.47676
-7.60593
-7.75473
-7.91912
-8.09489
-8.27792
-8.46442
-8.65096
-8.83458
-9.01279
-9.18358
-9.3454
-9.49715
-9.6381
-9.76787
-9.88636
-9.99369
-10.0902
-10.1762
-10.2524
-10.3193
-10.3775
-10.4277
-10.4704
-10.5064
-10.5361
-10.5601
-10.579
-10.5932
-10.6032
-10.6095
-10.6124
-10.6123
-10.6095
-10.6042
-10.5969
-10.5878
-10.5769
-10.5647
-10.5512
-10.5366
-10.521
-10.5046
-10.4875
-10.4697
-10.4512
-10.4322
-10.4125
-10.3923
-10.3713
-10.3496
-10.3271
-10.3035
-10.2787
-10.2524
-10.2244
-10.1944
-10.162
-10.1267
-10.0881
-10.0456
-9.99859
-9.94636
-9.88814
-9.82305
-9.75016
-9.66841
-9.57666
-9.47365
-9.35804
-9.22836
-9.08312
-8.92068
-8.73926
-8.53692
-8.31157
-8.06098
-7.78284
-7.47471
-7.13403
-6.75818
-6.34448
-5.89018
-5.39255
-4.84885
-4.25645
-3.61287
-2.91583
-2.16343
-1.3542
-0.487261
0.437517
1.41931
2.45609
3.54445
4.67932
5.85376
7.05875
8.28309
9.51338
10.7341
11.9278
13.077
14.1643
15.1733
16.0889
16.8992
17.596
18.1757
18.6388
18.99
19.2371
19.3902
19.4611
19.4622
19.406
19.3044
19.1684
19.0078
18.8314
18.6466
18.4596
18.2755
18.0982
17.9308
17.7754
17.6333
17.5052
17.3914
17.292
17.2068
17.1353
17.0768
17.0307
16.996
16.972
16.9578
16.9527
16.9559
16.9671
16.986
17.0124
17.0467
17.0894
17.1414
17.2036
17.2769
17.3584
17.4461
17.4992
-7.66077
-7.67403
-7.68672
-7.70796
-7.7361
-7.76747
-7.79927
-7.82928
-7.85547
-7.8759
-7.88884
-7.89275
-7.88632
-7.86855
-7.83885
-7.79725
-7.74456
-7.68265
-7.61462
-7.54482
-7.47829
-7.41993
-7.37362
-7.3421
-7.32748
-7.33173
-7.35683
-7.40441
-7.47526
-7.56894
-7.68369
-7.81669
-7.96446
-8.12331
-8.28962
-8.46003
-8.63156
-8.80159
-8.96791
-9.12872
-9.28252
-9.42821
-9.56496
-9.69223
-9.80972
-9.91733
-10.0152
-10.1034
-10.1824
-10.2526
-10.3144
-10.3684
-10.415
-10.4547
-10.4882
-10.5159
-10.5383
-10.5559
-10.5691
-10.5783
-10.5839
-10.5863
-10.5858
-10.5827
-10.5774
-10.57
-10.5609
-10.5502
-10.5381
-10.5249
-10.5107
-10.4956
-10.4797
-10.4632
-10.4462
-10.4286
-10.4105
-10.392
-10.373
-10.3535
-10.3333
-10.3125
-10.2908
-10.268
-10.2441
-10.2186
-10.1913
-10.1618
-10.1297
-10.0945
-10.0557
-10.0127
-9.96475
-9.91111
-9.85094
-9.7833
-9.70716
-9.6214
-9.52477
-9.41596
-9.29351
-9.1559
-9.00151
-8.82855
-8.6351
-8.4191
-8.17834
-7.91051
-7.61317
-7.2838
-6.91977
-6.51837
-6.07686
-5.59248
-5.06247
-4.48412
-3.85488
-3.17239
-2.43458
-1.63985
-0.787105
0.124037
1.09307
2.11829
3.19666
4.32355
5.49241
6.69458
7.91914
9.15277
10.3798
11.5831
12.7448
13.847
14.8722
15.8047
16.6322
17.3461
17.9423
18.4212
18.7874
19.0486
19.2151
19.2987
19.3119
19.2671
19.1763
19.0506
18.8997
18.7323
18.5559
18.3768
18.1998
18.0292
17.868
17.7183
17.5815
17.4584
17.3494
17.2545
17.1735
17.1059
17.0511
17.0083
16.9766
16.9552
16.9432
16.9398
16.9444
16.9563
16.9753
17.001
17.0336
17.0733
17.1203
17.1747
17.2361
17.2998
17.3611
17.3847
-7.64706
-7.67426
-7.69258
-7.71525
-7.74217
-7.77062
-7.79844
-7.82394
-7.84551
-7.86164
-7.8709
-7.87205
-7.86406
-7.8462
-7.81821
-7.78049
-7.73425
-7.68162
-7.62574
-7.57054
-7.52026
-7.47887
-7.44972
-7.43549
-7.43834
-7.46006
-7.50197
-7.5647
-7.64795
-7.7504
-7.86982
-8.00331
-8.1477
-8.29977
-8.45654
-8.6153
-8.77368
-8.92965
-9.08154
-9.22793
-9.36771
-9.50004
-9.62428
-9.74002
-9.84703
-9.94524
-10.0347
-10.1156
-10.1883
-10.2529
-10.3101
-10.36
-10.4032
-10.4402
-10.4714
-10.4971
-10.518
-10.5343
-10.5464
-10.5549
-10.5599
-10.5619
-10.5611
-10.5579
-10.5525
-10.5453
-10.5363
-10.5259
-10.5142
-10.5014
-10.4878
-10.4733
-10.4582
-10.4426
-10.4265
-10.41
-10.3931
-10.376
-10.3584
-10.3406
-10.3222
-10.3034
-10.2838
-10.2635
-10.2421
-10.2194
-10.1951
-10.1688
-10.1402
-10.1088
-10.074
-10.0353
-9.99191
-9.94316
-9.8882
-9.82611
-9.75587
-9.67637
-9.58639
-9.48461
-9.36959
-9.23983
-9.0937
-8.92941
-8.74505
-8.53858
-8.30781
-8.05045
-7.76406
-7.44612
-7.09401
-6.70502
-6.27639
-5.80534
-5.28907
-4.72484
-4.10999
-3.44207
-2.71889
-1.93867
-1.10015
-0.20266
0.753614
1.76731
2.83572
3.95472
5.11816
6.31767
7.54261
8.77978
10.0138
11.2276
12.4028
13.5205
14.5626
15.5128
16.358
17.0892
17.702
18.1966
18.5775
18.8526
19.0322
19.1282
19.1532
19.1198
19.0398
18.9243
18.7831
18.6249
18.4571
18.286
18.1166
17.953
17.7983
17.6546
17.5235
17.4058
17.3019
17.2119
17.1355
17.0722
17.0214
16.9822
16.9538
16.9353
16.9257
16.9243
16.9303
16.943
16.9621
16.9871
17.0179
17.0544
17.0963
17.1429
17.1929
17.2407
17.2801
17.2809
-7.57679
-7.61553
-7.64285
-7.66987
-7.69807
-7.72585
-7.75166
-7.77434
-7.79278
-7.80589
-7.81262
-7.81206
-7.80352
-7.78665
-7.76158
-7.72908
-7.69065
-7.6486
-7.60593
-7.56613
-7.5328
-7.50925
-7.49832
-7.50231
-7.52299
-7.5616
-7.61875
-7.69429
-7.78727
-7.89596
-8.01803
-8.15083
-8.29156
-8.43753
-8.58625
-8.73552
-8.88343
-9.02833
-9.16888
-9.30397
-9.43272
-9.55448
-9.66875
-9.77522
-9.87374
-9.96426
-10.0468
-10.1217
-10.1889
-10.2489
-10.302
-10.3486
-10.3889
-10.4234
-10.4526
-10.4767
-10.4962
-10.5115
-10.5229
-10.5307
-10.5354
-10.5371
-10.5362
-10.533
-10.5278
-10.5208
-10.5122
-10.5022
-10.491
-10.4789
-10.466
-10.4523
-10.4382
-10.4236
-10.4086
-10.3934
-10.378
-10.3624
-10.3466
-10.3306
-10.3143
-10.2976
-10.2805
-10.2627
-10.2441
-10.2245
-10.2034
-10.1807
-10.1558
-10.1284
-10.0979
-10.0637
-10.0251
-9.98154
-9.93205
-9.87575
-9.81164
-9.73862
-9.6555
-9.56094
-9.45354
-9.33181
-9.19411
-9.03866
-8.86356
-8.66677
-8.44613
-8.19935
-7.92402
-7.61761
-7.27751
-6.90099
-6.4853
-6.02764
-5.52517
-4.9751
-4.3747
-3.72141
-3.01292
-2.24731
-1.42312
-0.539417
0.403944
1.40595
2.46423
3.57506
4.73275
5.9292
7.15417
8.39488
9.63602
10.8603
12.0488
13.1819
14.2409
15.2087
16.0715
16.8197
17.4488
17.9588
18.3543
18.643
18.8357
18.9443
18.9814
18.9595
18.8907
18.7859
18.6549
18.5064
18.3478
18.1853
18.0239
17.8679
17.7202
17.5832
17.4584
17.3467
17.2485
17.1638
17.0925
17.0339
16.9875
16.9524
16.9276
16.9122
16.9054
16.9061
16.9137
16.9275
16.9468
16.9711
17.0001
17.0334
17.0703
17.1095
17.1489
17.1826
17.2039
17.187
-7.46274
-7.51132
-7.54919
-7.58239
-7.61349
-7.64207
-7.66725
-7.68838
-7.70482
-7.71591
-7.72097
-7.7195
-7.71118
-7.69605
-7.67462
-7.64799
-7.61788
-7.58664
-7.55709
-7.53232
-7.51535
-7.50893
-7.51537
-7.53647
-7.57347
-7.62703
-7.69716
-7.78321
-7.88387
-7.99729
-8.12126
-8.25337
-8.39122
-8.53253
-8.6752
-8.81738
-8.95748
-9.09415
-9.22626
-9.35292
-9.47342
-9.58723
-9.69399
-9.79344
-9.88549
-9.97012
-10.0474
-10.1175
-10.1806
-10.2371
-10.2871
-10.3309
-10.3691
-10.4018
-10.4294
-10.4524
-10.471
-10.4856
-10.4965
-10.504
-10.5085
-10.5102
-10.5095
-10.5065
-10.5016
-10.495
-10.4869
-10.4775
-10.4671
-10.4557
-10.4437
-10.431
-10.418
-10.4046
-10.391
-10.3772
-10.3634
-10.3495
-10.3356
-10.3216
-10.3075
-10.2933
-10.2788
-10.2638
-10.2482
-10.2318
-10.2142
-10.1951
-10.1742
-10.151
-10.1249
-10.0955
-10.062
-10.0237
-9.97988
-9.92954
-9.87173
-9.80535
-9.72921
-9.64201
-9.54235
-9.42876
-9.29958
-9.15304
-8.98724
-8.80018
-8.58969
-8.35351
-8.08923
-7.79433
-7.46619
-7.1021
-6.69928
-6.25493
-5.76619
-5.23019
-4.64416
-4.00544
-3.31158
-2.56052
-1.75064
-0.88076
0.0495691
1.03969
2.08753
3.18971
4.34107
5.53401
6.75857
8.00222
9.24974
10.4836
11.6844
12.8321
13.907
14.8913
15.7706
16.5351
17.1797
17.7045
18.114
18.4164
18.6221
18.7435
18.793
18.7834
18.7264
18.633
18.513
18.3749
18.2262
18.073
17.9205
17.7728
17.6329
17.5033
17.3855
17.2804
17.1885
17.1099
17.0442
16.9909
16.9494
16.9188
16.898
16.8862
16.8824
16.8856
16.8951
16.91
16.9296
16.9534
16.9807
17.0109
17.0429
17.0752
17.1051
17.1265
17.1329
17.1024
-7.32143
-7.37891
-7.42676
-7.46657
-7.50133
-7.53154
-7.55696
-7.57741
-7.59268
-7.60252
-7.60667
-7.60498
-7.5975
-7.58464
-7.56723
-7.54658
-7.52456
-7.50347
-7.48593
-7.47463
-7.47216
-7.48075
-7.50223
-7.53791
-7.58855
-7.65434
-7.73487
-7.82917
-7.93579
-8.05287
-8.17838
-8.31016
-8.44611
-8.58424
-8.72274
-8.86003
-8.99473
-9.12569
-9.25196
-9.37277
-9.48754
-9.59583
-9.69735
-9.79193
-9.87948
-9.96003
-10.0337
-10.1005
-10.1608
-10.2148
-10.2627
-10.3049
-10.3416
-10.3732
-10.4
-10.4223
-10.4405
-10.4548
-10.4656
-10.4732
-10.4778
-10.4798
-10.4794
-10.4769
-10.4726
-10.4666
-10.4592
-10.4506
-10.441
-10.4306
-10.4196
-10.4081
-10.3962
-10.3842
-10.3721
-10.3599
-10.3478
-10.3358
-10.3239
-10.3121
-10.3004
-10.2888
-10.277
-10.265
-10.2525
-10.2395
-10.2255
-10.2103
-10.1934
-10.1745
-10.1531
-10.1285
-10.1002
-10.0674
-10.0293
-9.98503
-9.93359
-9.87391
-9.80481
-9.725
-9.63311
-9.52766
-9.40698
-9.2693
-9.11275
-8.93533
-8.73489
-8.50917
-8.25578
-7.97221
-7.65584
-7.30395
-6.91375
-6.48244
-6.00713
-5.48491
-4.91294
-4.2885
-3.60902
-2.87227
-2.07648
-1.22031
-0.303054
0.674952
1.71215
2.80546
3.95001
5.13874
6.36205
7.60758
8.86017
10.1021
11.3136
12.4739
13.5628
14.5617
15.4559
16.2349
16.8936
17.4321
17.855
18.1705
18.3894
18.5238
18.5863
18.5895
18.5451
18.464
18.3558
18.2291
18.0911
17.9482
17.8054
17.6668
17.5357
17.4143
17.3043
17.2066
17.1217
17.0498
16.9904
16.943
16.907
16.8813
16.8651
16.8573
16.8568
16.8629
16.8744
16.8907
16.9109
16.9342
16.96
16.9874
17.015
17.0409
17.0622
17.073
17.0673
17.0261
-7.16964
-7.23422
-7.29066
-7.33666
-7.37512
-7.40723
-7.4333
-7.4536
-7.46836
-7.47765
-7.48158
-7.48031
-7.47423
-7.46398
-7.4506
-7.43555
-7.42073
-7.40835
-7.40082
-7.40052
-7.40966
-7.43011
-7.4633
-7.51015
-7.57108
-7.64592
-7.73402
-7.83426
-7.94513
-8.06487
-8.19157
-8.32328
-8.45811
-8.59429
-8.73022
-8.86447
-8.99582
-9.12324
-9.2459
-9.36311
-9.47438
-9.57932
-9.6777
-9.76937
-9.85428
-9.93246
-10.004
-10.0691
-10.1279
-10.1806
-10.2276
-10.269
-10.3051
-10.3364
-10.363
-10.3853
-10.4035
-10.4181
-10.4292
-10.4372
-10.4423
-10.4448
-10.4451
-10.4433
-10.4396
-10.4344
-10.4279
-10.4202
-10.4116
-10.4023
-10.3925
-10.3822
-10.3717
-10.3612
-10.3506
-10.3401
-10.3299
-10.3199
-10.3101
-10.3007
-10.2915
-10.2825
-10.2735
-10.2646
-10.2554
-10.2459
-10.2356
-10.2243
-10.2117
-10.1972
-10.1805
-10.1609
-10.1377
-10.1104
-10.0781
-10.0399
-9.99487
-9.94188
-9.87977
-9.80731
-9.72312
-9.62568
-9.51334
-9.38436
-9.23685
-9.06884
-8.87818
-8.66263
-8.4198
-8.1472
-7.84221
-7.5021
-7.12408
-6.70531
-6.24291
-5.73394
-5.17552
-4.56486
-3.89932
-3.1765
-2.3944
-1.55154
-0.647086
0.318949
1.34538
2.42952
3.56685
4.75066
5.97166
7.21769
8.47362
9.72153
10.9413
12.1117
13.2118
14.2227
15.129
15.9202
16.591
17.1416
17.5768
17.9049
18.1367
18.2843
18.3602
18.3769
18.3459
18.2779
18.1825
18.068
17.9419
17.8102
17.678
17.5495
17.4279
17.3156
17.2143
17.1249
17.0479
16.9833
16.931
16.8902
16.8602
16.8401
16.8289
16.8255
16.8288
16.838
16.852
16.8699
16.8908
16.914
16.9385
16.9633
16.9868
17.007
17.0208
17.0226
17.0069
16.9574
-7.02088
-7.09136
-7.15445
-7.20539
-7.24697
-7.28079
-7.30762
-7.32814
-7.34287
-7.35221
-7.35652
-7.35621
-7.35184
-7.34423
-7.33452
-7.32424
-7.31521
-7.30955
-7.30947
-7.31712
-7.33444
-7.36306
-7.40414
-7.45837
-7.52592
-7.60647
-7.69924
-7.80305
-7.91643
-8.0377
-8.16505
-8.2967
-8.4309
-8.56601
-8.70055
-8.83321
-8.96284
-9.0885
-9.2094
-9.32492
-9.43458
-9.53806
-9.63512
-9.72564
-9.80958
-9.88698
-9.95793
-10.0226
-10.0811
-10.1337
-10.1807
-10.2223
-10.2588
-10.2904
-10.3175
-10.3404
-10.3592
-10.3745
-10.3863
-10.395
-10.4009
-10.4043
-10.4054
-10.4045
-10.4018
-10.3976
-10.392
-10.3854
-10.378
-10.3698
-10.3613
-10.3524
-10.3433
-10.3343
-10.3254
-10.3168
-10.3084
-10.3005
-10.293
-10.2859
-10.2793
-10.273
-10.2671
-10.2612
-10.2554
-10.2494
-10.2429
-10.2357
-10.2272
-10.2173
-10.2052
-10.1906
-10.1727
-10.1509
-10.1243
-10.0921
-10.0534
-10.0069
-9.95173
-9.88646
-9.80975
-9.72009
-9.61583
-9.49523
-9.35643
-9.19744
-9.01616
-8.81032
-8.57757
-8.3154
-8.02122
-7.69231
-7.32585
-6.91897
-6.46876
-5.97231
-5.42668
-4.82904
-4.17667
-3.46708
-2.69809
-1.86804
-0.975921
-0.0215015
0.994314
2.06916
3.19885
4.37699
5.59454
6.83949
8.09672
9.34814
10.5733
11.7505
12.8585
13.8777
14.7928
15.593
16.2733
16.834
17.28
17.6198
17.8641
18.0249
18.1147
18.1454
18.1285
18.0745
17.9927
17.8915
17.778
17.6584
17.5378
17.4204
17.3093
17.2071
17.1153
17.035
16.9667
16.9104
16.8658
16.8323
16.809
16.7951
16.7894
16.7909
16.7985
16.8112
16.8279
16.8478
16.8698
16.893
16.9165
16.939
16.959
16.9741
16.9813
16.9755
16.9516
16.8958
-6.88544
-6.96052
-7.02826
-7.08256
-7.12634
-7.16147
-7.18902
-7.20993
-7.22496
-7.23472
-7.23976
-7.2406
-7.23792
-7.2326
-7.22581
-7.21905
-7.21407
-7.21286
-7.21746
-7.22988
-7.25189
-7.28496
-7.33013
-7.38798
-7.45861
-7.54163
-7.63625
-7.74132
-7.85543
-7.97697
-8.10426
-8.23558
-8.36929
-8.50382
-8.63776
-8.76984
-8.89897
-9.02422
-9.14484
-9.2602
-9.36985
-9.47343
-9.57073
-9.66161
-9.74603
-9.82402
-9.89567
-9.9611
-10.0205
-10.0741
-10.122
-10.1647
-10.2022
-10.2349
-10.2631
-10.287
-10.307
-10.3233
-10.3363
-10.3461
-10.3531
-10.3575
-10.3597
-10.3598
-10.3582
-10.355
-10.3506
-10.3452
-10.339
-10.3321
-10.3249
-10.3174
-10.3099
-10.3025
-10.2953
-10.2885
-10.2822
-10.2764
-10.2712
-10.2666
-10.2626
-10.2591
-10.2561
-10.2535
-10.2511
-10.2487
-10.246
-10.2427
-10.2385
-10.233
-10.2257
-10.216
-10.2032
-10.1868
-10.1659
-10.1396
-10.107
-10.067
-10.0184
-9.96009
-9.89056
-9.80831
-9.71174
-9.5991
-9.46854
-9.31808
-9.14561
-8.94889
-8.72556
-8.47314
-8.18902
-7.8705
-7.51477
-7.11893
-6.68006
-6.19522
-5.66146
-5.0759
-4.43575
-3.73844
-2.9817
-2.16372
-1.28328
-0.339979
0.665512
1.73109
2.85283
4.02458
5.2375
6.47966
7.73591
8.98799
10.2152
11.3954
12.507
13.5305
14.4503
15.2559
15.9426
16.5109
16.966
17.3164
17.5726
17.7466
17.8503
17.8955
17.8934
17.854
17.7866
17.6994
17.5995
17.4929
17.3848
17.2793
17.1797
17.0885
17.0072
16.9369
16.8781
16.8309
16.7949
16.7694
16.7535
16.7464
16.7468
16.7537
16.766
16.7826
16.8025
16.8246
16.8479
16.8716
16.8943
16.915
16.9318
16.9426
16.9442
16.9319
16.9014
16.8405
-6.77131
-6.84908
-6.91979
-6.97604
-7.02094
-7.05668
-7.08454
-7.10561
-7.12085
-7.13098
-7.13661
-7.13832
-7.13681
-7.13297
-7.12795
-7.12316
-7.12029
-7.12118
-7.12778
-7.14197
-7.16544
-7.19961
-7.24548
-7.30364
-7.37418
-7.45679
-7.55073
-7.65492
-7.76804
-7.88858
-8.01494
-8.14548
-8.2786
-8.41275
-8.54655
-8.67874
-8.80821
-8.93405
-9.05547
-9.17184
-9.28268
-9.38761
-9.48639
-9.57886
-9.66496
-9.74469
-9.81811
-9.88535
-9.94656
-10.0019
-10.0517
-10.0961
-10.1353
-10.1697
-10.1995
-10.225
-10.2465
-10.2642
-10.2785
-10.2896
-10.2979
-10.3036
-10.307
-10.3083
-10.3079
-10.3059
-10.3027
-10.2985
-10.2935
-10.288
-10.2821
-10.2761
-10.2702
-10.2644
-10.259
-10.2541
-10.2499
-10.2462
-10.2434
-10.2413
-10.2399
-10.2393
-10.2393
-10.2399
-10.2409
-10.2421
-10.2432
-10.2439
-10.244
-10.2429
-10.2402
-10.2353
-10.2276
-10.2164
-10.201
-10.1804
-10.1537
-10.1199
-10.0777
-10.0259
-9.96313
-9.88787
-9.79851
-9.6933
-9.5704
-9.42783
-9.2635
-9.07517
-8.86049
-8.61698
-8.34205
-8.03298
-7.68698
-7.30115
-6.87257
-6.39826
-5.87526
-5.30065
-4.67161
-3.98549
-3.23996
-2.43307
-1.56348
-0.630638
0.364961
1.4214
2.53496
3.69963
4.90669
6.14423
7.39701
8.64658
9.87196
11.0509
12.1616
13.1846
14.1046
14.9116
15.6013
16.1746
16.6369
16.9965
17.2639
17.4507
17.5683
17.6283
17.6412
17.617
17.5646
17.4921
17.4065
17.3137
17.219
17.1263
17.0391
16.9597
16.8898
16.8305
16.7822
16.7449
16.7182
16.7015
16.6938
16.694
16.7012
16.714
16.7315
16.7524
16.7758
16.8005
16.8255
16.8498
16.8723
16.8914
16.9057
16.9127
16.9095
16.8919
16.8559
16.7912
-6.68505
-6.76362
-6.83601
-6.89293
-6.93745
-6.97235
-6.99932
-7.01966
-7.03435
-7.04414
-7.04961
-7.05132
-7.04994
-7.04631
-7.04151
-7.03689
-7.03404
-7.03473
-7.04081
-7.0541
-7.07627
-7.10871
-7.15248
-7.20821
-7.2761
-7.35592
-7.44706
-7.54858
-7.65927
-7.77769
-7.90228
-8.03147
-8.16368
-8.29739
-8.43121
-8.56387
-8.69422
-8.82132
-8.94433
-9.06258
-9.17553
-9.28276
-9.38399
-9.47901
-9.56772
-9.6501
-9.72617
-9.79603
-9.85981
-9.91768
-9.96985
-10.0165
-10.058
-10.0945
-10.1263
-10.1537
-10.1769
-10.1964
-10.2122
-10.2249
-10.2345
-10.2416
-10.2463
-10.2489
-10.2497
-10.2489
-10.247
-10.2441
-10.2404
-10.2362
-10.2318
-10.2273
-10.2229
-10.2188
-10.2153
-10.2123
-10.2101
-10.2087
-10.2082
-10.2086
-10.2099
-10.2122
-10.2153
-10.2191
-10.2235
-10.2283
-10.2332
-10.2379
-10.2421
-10.2453
-10.2471
-10.2469
-10.2442
-10.2381
-10.2279
-10.2128
-10.1917
-10.1637
-10.1275
-10.0818
-10.0253
-9.95652
-9.87378
-9.77537
-9.65945
-9.52404
-9.36706
-9.18627
-8.97933
-8.74376
-8.47698
-8.17629
-7.83889
-7.4619
-7.04237
-6.57733
-6.06382
-5.49887
-4.87965
-4.20347
-3.46793
-2.67102
-1.81131
-0.888136
0.0981145
1.14564
2.25083
3.40774
4.60765
5.83858
7.08514
8.32869
9.54805
10.7209
11.8256
12.843
13.7585
14.5627
15.2519
15.8274
16.2948
16.6622
16.94
17.139
17.2704
17.345
17.3732
17.3645
17.3275
17.2702
17.1994
17.1212
17.0405
16.9615
16.8875
16.8209
16.7633
16.7158
16.6789
16.6524
16.6359
16.6287
16.6298
16.6382
16.6527
16.672
16.6951
16.7209
16.7481
16.7757
16.8028
16.8281
16.8506
16.8687
16.8808
16.8847
16.8776
16.8556
16.8152
16.7474
-6.6271
-6.70516
-6.7776
-6.83365
-6.87626
-6.9089
-6.9337
-6.95209
-6.96509
-6.97336
-6.97742
-6.97775
-6.97495
-6.96977
-6.96324
-6.95665
-6.95152
-6.94957
-6.95262
-6.96246
-6.98077
-7.00899
-7.04823
-7.09922
-7.1623
-7.23741
-7.32407
-7.42146
-7.52844
-7.64368
-7.76569
-7.89296
-8.02392
-8.15706
-8.29097
-8.42433
-8.55596
-8.68483
-8.81005
-8.93086
-9.04668
-9.157
-9.26149
-9.35987
-9.452
-9.53779
-9.61725
-9.69042
-9.75742
-9.81839
-9.87352
-9.92303
-9.96715
-10.0061
-10.0403
-10.0698
-10.0951
-10.1164
-10.134
-10.1483
-10.1596
-10.1681
-10.1741
-10.1781
-10.1802
-10.1808
-10.1802
-10.1786
-10.1763
-10.1735
-10.1706
-10.1677
-10.165
-10.1627
-10.1611
-10.1601
-10.1601
-10.161
-10.163
-10.1661
-10.1702
-10.1755
-10.1817
-10.1889
-10.1968
-10.2052
-10.2139
-10.2227
-10.231
-10.2386
-10.245
-10.2495
-10.2515
-10.2504
-10.2454
-10.2355
-10.2198
-10.1972
-10.1666
-10.1267
-10.076
-10.0132
-9.9365
-9.84427
-9.73465
-9.60566
-9.45522
-9.28111
-9.08098
-8.85237
-8.59271
-8.29929
-7.96933
-7.59996
-7.18824
-6.73119
-6.22584
-5.66924
-5.05853
-4.391
-3.66424
-2.87618
-2.02535
-1.11104
-0.133585
0.905257
2.00187
3.1503
4.34169
5.56393
6.80136
8.03514
9.24397
10.4057
11.4989
12.5054
13.4114
14.2085
14.8935
15.4685
15.9388
16.3126
16.5997
16.8103
16.9551
17.0443
17.0878
17.0948
17.0736
17.032
16.9767
16.9137
16.8479
16.7834