/*--------------------------------*- C++ -*----------------------------------*\
  =========                 |
  \\      /  F ield         | OpenFOAM: The Open Source CFD Toolbox
   \\    /   O peration     | Website:  https://openfoam.org
    \\  /    A nd           | Version:  12
     \\/     M anipulation  |
\*---------------------------------------------------------------------------*/
FoamFile
{
    format      ascii;
    class       surfaceScalarField;
    location    "0.05";
    object      phi;
}
// * * * * * * * * * * * * * * * * * * * * * * * * * * * * * * * * * * * * * //

dimensions      [0 3 -1 0 0 0 0];

internalField   nonuniform List<scalar> 
24170
(
3.13359e-06
5.48192e-08
3.04823e-06
8.53615e-08
2.97304e-06
7.51831e-08
2.90412e-06
6.89188e-08
2.83918e-06
6.49418e-08
2.78182e-06
5.7358e-08
2.73276e-06
4.90626e-08
2.69105e-06
4.17139e-08
2.65539e-06
3.56567e-08
2.62462e-06
3.07692e-08
2.59777e-06
2.68522e-08
2.57403e-06
2.37422e-08
2.5527e-06
2.1322e-08
2.53314e-06
1.95678e-08
2.5147e-06
1.84413e-08
2.49577e-06
1.89207e-08
2.47592e-06
1.98569e-08
3.00765e-08
2.44584e-06
3.45361e-06
1.84556e-08
3.45616e-06
8.28145e-08
3.44959e-06
8.17481e-08
3.43794e-06
8.05732e-08
3.4234e-06
7.94804e-08
3.40579e-06
7.49681e-08
3.38607e-06
6.87811e-08
3.36506e-06
6.27277e-08
3.34352e-06
5.71955e-08
3.32206e-06
5.22271e-08
3.30108e-06
4.78305e-08
3.28081e-06
4.40139e-08
3.26136e-06
4.07712e-08
3.24274e-06
3.81906e-08
3.225e-06
3.61828e-08
3.208e-06
3.59192e-08
3.19255e-06
3.53073e-08
4.22603e-08
3.18037e-06
3.66535e-06
1.56228e-08
3.67823e-06
6.99296e-08
3.68527e-06
7.47151e-08
3.68951e-06
7.63347e-08
3.69112e-06
7.7863e-08
3.68992e-06
7.61726e-08
3.68638e-06
7.2322e-08
3.68107e-06
6.80308e-08
3.67443e-06
6.38358e-08
3.66681e-06
5.9856e-08
3.65847e-06
5.61675e-08
3.64964e-06
5.28469e-08
3.64046e-06
4.99473e-08
3.63105e-06
4.7597e-08
3.62143e-06
4.58071e-08
3.61196e-06
4.53861e-08
3.60202e-06
4.52531e-08
4.86763e-08
3.5956e-06
3.92464e-06
1.6368e-08
3.93578e-06
5.87967e-08
3.94249e-06
6.80056e-08
3.94791e-06
7.09096e-08
3.95226e-06
7.35164e-08
3.9551e-06
7.33343e-08
3.95655e-06
7.08677e-08
3.95692e-06
6.76644e-08
3.95638e-06
6.43697e-08
3.9551e-06
6.11429e-08
3.95319e-06
5.80772e-08
3.95076e-06
5.52714e-08
3.9479e-06
5.28052e-08
3.94469e-06
5.08052e-08
3.94116e-06
4.93386e-08
3.93768e-06
4.88667e-08
3.93404e-06
4.88985e-08
5.05802e-08
3.93213e-06
4.20776e-06
1.57344e-08
4.21597e-06
5.0586e-08
4.2216e-06
6.23802e-08
4.22647e-06
6.60336e-08
4.2311e-06
6.88897e-08
4.23497e-06
6.94672e-08
4.23795e-06
6.78793e-08
4.2402e-06
6.542e-08
4.24181e-06
6.27597e-08
4.24287e-06
6.00825e-08
4.24346e-06
5.74888e-08
4.24364e-06
5.50859e-08
4.24348e-06
5.29649e-08
4.24305e-06
5.12367e-08
4.24241e-06
4.9976e-08
4.24186e-06
4.94185e-08
4.24144e-06
4.93198e-08
4.99654e-08
4.24206e-06
4.51043e-06
1.43889e-08
4.51683e-06
4.41867e-08
4.5221e-06
5.71107e-08
4.5267e-06
6.14346e-08
4.53124e-06
6.43548e-08
4.53533e-06
6.53727e-08
4.5388e-06
6.44106e-08
4.54171e-06
6.25104e-08
4.54414e-06
6.0329e-08
4.54615e-06
5.80739e-08
4.54778e-06
5.58513e-08
4.5491e-06
5.37693e-08
4.55015e-06
5.19194e-08
4.55099e-06
5.03917e-08
4.55172e-06
4.92447e-08
4.55256e-06
4.85793e-08
4.55365e-06
4.82334e-08
4.81438e-08
4.55547e-06
4.83411e-06
1.29956e-08
4.83955e-06
3.87525e-08
4.84475e-06
5.19035e-08
4.84928e-06
5.69088e-08
4.85371e-06
5.99286e-08
4.85783e-06
6.12469e-08
4.86147e-06
6.07683e-08
4.86467e-06
5.9319e-08
4.86747e-06
5.75233e-08
4.86994e-06
5.56104e-08
4.87209e-06
5.36923e-08
4.87399e-06
5.18729e-08
4.87567e-06
5.0238e-08
4.87721e-06
4.88565e-08
4.87869e-06
4.77641e-08
4.88028e-06
4.69836e-08
4.88214e-06
4.63778e-08
4.57766e-08
4.88451e-06
5.18089e-06
1.16839e-08
5.18567e-06
3.39739e-08
5.19076e-06
4.68162e-08
5.19527e-06
5.23977e-08
5.19965e-06
5.55532e-08
5.2038e-06
5.70956e-08
5.20755e-06
5.70145e-08
5.21091e-06
5.59553e-08
5.21394e-06
5.44929e-08
5.21668e-06
5.28742e-08
5.21916e-06
5.12168e-08
5.22141e-06
4.96189e-08
5.22349e-06
4.81576e-08
5.22546e-06
4.68839e-08
5.22741e-06
4.58132e-08
5.22947e-06
4.49263e-08
5.23175e-06
4.41008e-08
4.31632e-08
5.23436e-06
5.55259e-06
1.04291e-08
5.55681e-06
2.97513e-08
5.56168e-06
4.19475e-08
5.56618e-06
4.79012e-08
5.57054e-06
5.11885e-08
5.57474e-06
5.29014e-08
5.5786e-06
5.31535e-08
5.58211e-06
5.2444e-08
5.58532e-06
5.12837e-08
5.58827e-06
4.99293e-08
5.59098e-06
4.85039e-08
5.5935e-06
4.70996e-08
5.59587e-06
4.57841e-08
5.59816e-06
4.45952e-08
5.60044e-06
4.3534e-08
5.6028e-06
4.25639e-08
5.60532e-06
4.158e-08
4.04421e-08
5.60804e-06
5.95098e-06
9.22799e-09
5.95472e-06
2.60074e-08
5.95933e-06
3.73422e-08
5.96379e-06
4.34394e-08
5.96815e-06
4.68261e-08
5.97239e-06
4.86643e-08
5.97635e-06
4.91886e-08
5.98001e-06
4.87899e-08
5.98338e-06
4.79067e-08
5.98652e-06
4.67947e-08
5.98944e-06
4.55813e-08
5.99219e-06
4.43518e-08
5.99481e-06
4.31659e-08
5.99735e-06
4.20521e-08
5.99988e-06
4.10048e-08
6.00246e-06
3.9985e-08
6.00513e-06
3.89084e-08
3.76771e-08
6.00789e-06
6.37795e-06
8.09397e-09
6.38129e-06
2.26645e-08
6.38562e-06
3.30085e-08
6.39003e-06
3.90365e-08
6.39438e-06
4.24705e-08
6.39865e-06
4.4393e-08
6.40271e-06
4.51281e-08
6.40651e-06
4.49964e-08
6.41005e-06
4.43644e-08
6.41337e-06
4.34753e-08
6.41649e-06
4.24574e-08
6.41945e-06
4.13901e-08
6.42229e-06
4.03258e-08
6.42506e-06
3.92881e-08
6.42779e-06
3.82701e-08
6.43054e-06
3.7239e-08
6.43331e-06
3.61326e-08
3.48908e-08
6.4361e-06
5.74174e-06
7.18728e-09
5.7443e-06
2.01045e-08
5.74776e-06
2.95527e-08
5.75142e-06
3.53741e-08
5.75509e-06
3.87973e-08
5.75872e-06
4.07625e-08
5.76222e-06
4.163e-08
5.76553e-06
4.16864e-08
5.76865e-06
4.12448e-08
5.7716e-06
4.05292e-08
5.77439e-06
3.96649e-08
5.77705e-06
3.87275e-08
5.77961e-06
3.77643e-08
5.7821e-06
3.67966e-08
5.78455e-06
3.58199e-08
5.78698e-06
3.48093e-08
5.7894e-06
3.37199e-08
3.25189e-08
5.79177e-06
6.99912e-06
6.21916e-09
7.00183e-06
1.73991e-08
7.00557e-06
2.58152e-08
7.00966e-06
3.12798e-08
7.01385e-06
3.46117e-08
7.01803e-06
3.65799e-08
7.02211e-06
3.7552e-08
7.02601e-06
3.77828e-08
7.02972e-06
3.7531e-08
7.03326e-06
3.69955e-08
7.03663e-06
3.62951e-08
7.03986e-06
3.55e-08
7.04297e-06
3.46535e-08
7.04599e-06
3.3776e-08
7.04894e-06
3.28673e-08
7.05184e-06
3.19125e-08
7.05467e-06
3.08838e-08
2.9772e-08
7.05742e-06
8.53187e-06
5.19876e-09
8.53469e-06
1.4574e-08
8.53869e-06
2.1822e-08
8.54321e-06
2.67582e-08
8.54793e-06
2.98886e-08
8.55271e-06
3.17987e-08
8.55743e-06
3.28299e-08
8.56201e-06
3.32053e-08
8.56641e-06
3.31317e-08
8.57063e-06
3.27762e-08
8.57468e-06
3.22466e-08
8.57857e-06
3.16071e-08
8.58233e-06
3.0897e-08
8.58597e-06
3.01368e-08
8.5895e-06
2.93317e-08
8.59294e-06
2.8477e-08
8.59626e-06
2.75595e-08
2.65874e-08
8.59945e-06
1.04003e-05
4.13621e-09
1.04032e-05
1.16455e-08
1.04074e-05
1.75894e-08
1.04124e-05
2.18116e-08
1.04177e-05
2.46012e-08
1.04231e-05
2.6367e-08
1.04285e-05
2.73925e-08
1.04339e-05
2.78653e-08
1.04391e-05
2.7944e-08
1.04441e-05
2.77603e-08
1.04489e-05
2.7405e-08
1.04536e-05
2.69348e-08
1.04581e-05
2.63846e-08
1.04625e-05
2.5775e-08
1.04667e-05
2.51158e-08
1.04708e-05
2.44106e-08
1.04747e-05
2.36564e-08
2.28723e-08
1.04784e-05
1.26779e-05
3.03623e-09
1.26809e-05
8.60241e-09
1.26854e-05
1.31038e-08
1.26908e-05
1.64211e-08
1.26967e-05
1.87049e-08
1.27029e-05
2.02123e-08
1.27091e-05
2.1148e-08
1.27153e-05
2.16548e-08
1.27214e-05
2.18464e-08
1.27274e-05
2.18171e-08
1.27331e-05
2.1636e-08
1.27387e-05
2.13485e-08
1.27441e-05
2.09841e-08
1.27493e-05
2.05617e-08
1.27543e-05
2.00929e-08
1.27592e-05
1.95861e-08
1.27638e-05
1.90437e-08
1.84892e-08
1.27682e-05
1.54543e-05
1.88605e-09
1.54575e-05
5.38871e-09
1.54624e-05
8.28847e-09
1.54683e-05
1.05028e-08
1.54749e-05
1.20975e-08
1.54819e-05
1.32089e-08
1.54891e-05
1.39544e-08
1.54963e-05
1.44207e-08
1.55035e-05
1.46763e-08
1.55105e-05
1.47776e-08
1.55174e-05
1.47675e-08
1.55241e-05
1.46761e-08
1.55305e-05
1.45235e-08
1.55368e-05
1.4324e-08
1.55428e-05
1.40878e-08
1.55485e-05
1.3823e-08
1.5554e-05
1.35334e-08
1.32416e-08
1.55593e-05
1.88389e-05
6.40984e-10
1.88424e-05
1.86409e-09
1.88478e-05
2.94147e-09
1.88544e-05
3.82826e-09
1.8862e-05
4.53728e-09
1.88701e-05
5.10436e-09
1.88785e-05
5.55371e-09
1.8887e-05
5.90561e-09
1.88955e-05
6.179e-09
1.89039e-05
6.39007e-09
1.89121e-05
6.55117e-09
1.89201e-05
6.67142e-09
1.89279e-05
6.75783e-09
1.89354e-05
6.816e-09
1.89426e-05
6.85056e-09
1.89496e-05
6.86603e-09
1.89563e-05
6.86388e-09
6.86231e-09
1.89626e-05
2.29648e-05
-8.12715e-10
2.29689e-05
-2.28867e-09
2.29753e-05
-3.4001e-09
2.29832e-05
-4.13494e-09
2.29923e-05
-4.51791e-09
2.3002e-05
-4.63006e-09
2.30122e-05
-4.56326e-09
2.30224e-05
-4.37499e-09
2.30327e-05
-4.10161e-09
2.30429e-05
-3.77469e-09
2.30529e-05
-3.42033e-09
2.30626e-05
-3.05592e-09
2.3072e-05
-2.69186e-09
2.30812e-05
-2.3346e-09
2.309e-05
-1.9882e-09
2.30985e-05
-1.65449e-09
2.31067e-05
-1.33617e-09
-1.02129e-09
2.31146e-05
1.68119e-05
-1.97048e-09
1.68151e-05
-5.55968e-09
1.68201e-05
-8.39324e-09
1.68263e-05
-1.03542e-08
1.68333e-05
-1.14978e-08
1.68407e-05
-1.20535e-08
1.68484e-05
-1.2224e-08
1.68562e-05
-1.21165e-08
1.68639e-05
-1.18057e-08
1.68714e-05
-1.13627e-08
1.68789e-05
-1.08433e-08
1.68861e-05
-1.0283e-08
1.68931e-05
-9.7041e-09
1.68999e-05
-9.1215e-09
1.69065e-05
-8.54535e-09
1.69128e-05
-7.98157e-09
1.69189e-05
-7.43525e-09
-6.89845e-09
1.69248e-05
1.46357e-05
-3.0942e-09
1.46389e-05
-8.76351e-09
1.46438e-05
-1.32963e-08
1.46498e-05
-1.63505e-08
1.46564e-05
-1.80777e-08
1.46633e-05
-1.89483e-08
1.46703e-05
-1.92638e-08
1.46774e-05
-1.91574e-08
1.46843e-05
-1.87491e-08
1.46911e-05
-1.81556e-08
1.46977e-05
-1.74569e-08
1.47041e-05
-1.66996e-08
1.47103e-05
-1.5914e-08
1.47163e-05
-1.51219e-08
1.47221e-05
-1.43377e-08
1.47277e-05
-1.35701e-08
1.47331e-05
-1.2825e-08
-1.20975e-08
1.47383e-05
1.27412e-05
-4.15821e-09
1.27445e-05
-1.20215e-08
1.27495e-05
-1.83374e-08
1.27554e-05
-2.22651e-08
1.27617e-05
-2.43485e-08
1.27682e-05
-2.5429e-08
1.27747e-05
-2.58098e-08
1.27812e-05
-2.56176e-08
1.27875e-05
-2.50438e-08
1.27936e-05
-2.42602e-08
1.27995e-05
-2.33627e-08
1.28052e-05
-2.24018e-08
1.28107e-05
-2.14132e-08
1.2816e-05
-2.04231e-08
1.28211e-05
-1.94478e-08
1.2826e-05
-1.84965e-08
1.28308e-05
-1.75751e-08
-1.66798e-08
1.28353e-05
1.10918e-05
-5.05086e-09
1.10952e-05
-1.53906e-08
1.11006e-05
-2.37149e-08
1.11065e-05
-2.81646e-08
1.11125e-05
-3.0343e-08
1.11186e-05
-3.15367e-08
1.11247e-05
-3.18931e-08
1.11306e-05
-3.15311e-08
1.11363e-05
-3.07426e-08
1.11417e-05
-2.97442e-08
1.1147e-05
-2.86339e-08
1.11521e-05
-2.7464e-08
1.11569e-05
-2.6275e-08
1.11616e-05
-2.50959e-08
1.11661e-05
-2.39429e-08
1.11704e-05
-2.2824e-08
1.11746e-05
-2.17441e-08
-2.07001e-08
1.11786e-05
9.65584e-06
-5.67916e-09
9.65941e-06
-1.89593e-08
9.66509e-06
-2.93934e-08
9.67088e-06
-3.39586e-08
9.67667e-06
-3.61257e-08
9.68248e-06
-3.73488e-08
9.68812e-06
-3.75368e-08
9.6935e-06
-3.69089e-08
9.69863e-06
-3.58728e-08
9.70354e-06
-3.46512e-08
9.70823e-06
-3.33246e-08
9.71271e-06
-3.19451e-08
9.71699e-06
-3.05587e-08
9.72109e-06
-2.91955e-08
9.72502e-06
-2.78709e-08
9.72879e-06
-2.65918e-08
9.73241e-06
-2.5361e-08
-2.4174e-08
9.73588e-06
8.40545e-06
-5.77247e-09
8.40986e-06
-2.33741e-08
8.41543e-06
-3.49669e-08
8.42073e-06
-3.925e-08
8.42629e-06
-4.16866e-08
8.43192e-06
-4.298e-08
8.43726e-06
-4.28763e-08
8.44224e-06
-4.18874e-08
8.44691e-06
-4.05494e-08
8.45132e-06
-3.90624e-08
8.45548e-06
-3.74844e-08
8.45941e-06
-3.58681e-08
8.46311e-06
-3.42621e-08
8.46661e-06
-3.26962e-08
8.46992e-06
-3.11848e-08
8.47307e-06
-2.97348e-08
8.47605e-06
-2.83481e-08
-2.70212e-08
8.4789e-06
7.31507e-06
-3.55863e-09
7.32199e-06
-3.02944e-08
7.3275e-06
-4.04781e-08
7.33236e-06
-4.41068e-08
7.33779e-06
-4.71139e-08
7.3433e-06
-4.84944e-08
7.34843e-06
-4.8004e-08
7.3531e-06
-4.65606e-08
7.35736e-06
-4.48111e-08
7.36124e-06
-4.29343e-08
7.36474e-06
-4.09898e-08
7.36791e-06
-3.90413e-08
7.37079e-06
-3.7139e-08
7.3734e-06
-3.53095e-08
7.37578e-06
-3.35652e-08
7.37796e-06
-3.19113e-08
7.37996e-06
-3.03459e-08
-2.88634e-08
7.3818e-06
6.36223e-06
4.27519e-09
6.37299e-06
-4.10506e-08
6.38017e-06
-4.76565e-08
6.38642e-06
-5.03605e-08
6.39249e-06
-5.31803e-08
6.39789e-06
-5.38997e-08
6.40239e-06
-5.25028e-08
6.40613e-06
-5.02999e-08
6.40922e-06
-4.79047e-08
6.41172e-06
-4.54301e-08
6.41367e-06
-4.29441e-08
6.41516e-06
-4.05246e-08
6.41624e-06
-3.82208e-08
6.41698e-06
-3.60527e-08
6.41744e-06
-3.40274e-08
6.41768e-06
-3.21465e-08
6.41774e-06
-3.04022e-08
-2.87749e-08
6.41765e-06
5.53609e-06
1.36534e-08
5.54778e-06
-5.27475e-08
5.55751e-06
-5.73852e-08
5.56614e-06
-5.89871e-08
5.57298e-06
-6.00244e-08
5.5775e-06
-5.84145e-08
5.57976e-06
-5.47625e-08
5.58032e-06
-5.08669e-08
5.57962e-06
-4.72027e-08
5.57793e-06
-4.37418e-08
5.57548e-06
-4.04918e-08
5.57245e-06
-3.74907e-08
5.56898e-06
-3.47521e-08
5.56519e-06
-3.22682e-08
5.56119e-06
-3.00247e-08
5.55706e-06
-2.80189e-08
5.5529e-06
-2.62419e-08
-2.46322e-08
5.54876e-06
4.85751e-06
-1.62451e-08
4.86092e-06
-5.61573e-08
4.86153e-06
-5.8001e-08
4.8589e-06
-5.63592e-08
4.85495e-06
-5.60671e-08
4.84832e-06
-5.17907e-08
4.83916e-06
-4.55987e-08
4.82802e-06
-3.97254e-08
4.81554e-06
-3.47238e-08
4.80231e-06
-3.05167e-08
4.78879e-06
-2.69683e-08
4.77527e-06
-2.39756e-08
4.76197e-06
-2.14477e-08
4.74901e-06
-1.93058e-08
4.73647e-06
-1.7487e-08
4.72443e-06
-1.59817e-08
4.71301e-06
-1.48166e-08
-1.44869e-08
4.70286e-06
4.18643e-06
4.13027e-06
4.07227e-06
4.01591e-06
3.95985e-06
3.90806e-06
3.86246e-06
3.82273e-06
3.78801e-06
3.75749e-06
3.73052e-06
3.70655e-06
3.6851e-06
3.66579e-06
3.64831e-06
3.63233e-06
3.61751e-06
3.60302e-06
2.3768e-08
-2.3768e-08
1.08307e-07
-8.4539e-08
2.28368e-07
-1.20061e-07
3.63294e-07
-1.34926e-07
5.00575e-07
-1.37281e-07
6.32716e-07
-1.32141e-07
7.55077e-07
-1.22361e-07
8.6472e-07
-1.09643e-07
9.5973e-07
-9.50099e-08
1.03877e-06
-7.90386e-08
1.10075e-06
-6.1986e-08
1.14461e-06
-4.38556e-08
1.16911e-06
-2.45011e-08
1.17368e-06
-4.56914e-09
1.15338e-06
2.02977e-08
1.1087e-06
4.46824e-08
1.04129e-06
6.74089e-08
9.5443e-07
8.6861e-08
8.53482e-07
1.00948e-07
7.45828e-07
1.07654e-07
6.39772e-07
1.06055e-07
5.43091e-07
9.66811e-08
4.60314e-07
8.27773e-08
3.90677e-07
6.96367e-08
3.28358e-07
6.23189e-08
2.64732e-07
6.36262e-08
1.90991e-07
7.37414e-08
1.00222e-07
9.07691e-08
-1.18534e-08
1.12075e-07
-1.47976e-07
1.36122e-07
-3.0887e-07
1.60895e-07
-4.92943e-07
1.84073e-07
-6.96293e-07
2.0335e-07
-9.13187e-07
2.16894e-07
-1.13707e-06
2.23882e-07
-1.36149e-06
2.24424e-07
-1.58078e-06
2.19287e-07
-1.79039e-06
2.09606e-07
-1.98703e-06
1.9665e-07
-2.16868e-06
1.81649e-07
-2.33437e-06
1.65683e-07
-2.48399e-06
1.4962e-07
-2.6181e-06
1.34111e-07
-2.73769e-06
1.19592e-07
-2.84401e-06
1.06324e-07
-2.93844e-06
9.44266e-08
-3.02235e-06
8.39138e-08
-3.09709e-06
7.47308e-08
-3.16387e-06
6.67803e-08
-3.22381e-06
5.9944e-08
-3.27791e-06
5.40961e-08
-3.32702e-06
4.91135e-08
-3.3719e-06
4.48817e-08
-3.4132e-06
4.12971e-08
-3.45147e-06
3.82683e-08
-3.48718e-06
3.57158e-08
-3.52075e-06
3.35714e-08
-3.55253e-06
3.17767e-08
-3.58281e-06
3.02819e-08
-3.61186e-06
2.90447e-08
-3.63989e-06
2.8029e-08
-3.66709e-06
2.72041e-08
-3.69363e-06
2.65435e-08
-3.71966e-06
2.60245e-08
-3.74529e-06
2.56275e-08
-3.77062e-06
2.53355e-08
-3.79575e-06
2.51334e-08
-3.82076e-06
2.5008e-08
-3.84571e-06
2.49477e-08
-3.87065e-06
2.49418e-08
-3.89563e-06
2.49808e-08
-3.92069e-06
2.50559e-08
-3.94585e-06
2.51588e-08
-3.97113e-06
2.5282e-08
-3.99655e-06
2.54179e-08
-4.02211e-06
2.55595e-08
-4.04781e-06
2.56997e-08
-4.07364e-06
2.58314e-08
-4.09959e-06
2.59474e-08
-4.12563e-06
2.60406e-08
-4.15173e-06
2.61032e-08
-4.17786e-06
2.61274e-08
-4.20396e-06
2.61049e-08
-4.22999e-06
2.60268e-08
-4.25587e-06
2.58838e-08
-4.28154e-06
2.56655e-08
-4.3069e-06
2.5361e-08
-4.33186e-06
2.49581e-08
-4.3563e-06
2.44432e-08
-4.3801e-06
2.38016e-08
-4.40312e-06
2.30163e-08
-4.42519e-06
2.20687e-08
-4.44612e-06
2.09378e-08
-4.46572e-06
1.95998e-08
-4.48375e-06
1.80278e-08
-4.49994e-06
1.61917e-08
-4.514e-06
1.40575e-08
-4.52559e-06
1.15874e-08
-4.53434e-06
8.7475e-09
-4.53987e-06
5.5377e-09
-4.54189e-06
2.0205e-09
-4.54038e-06
-1.51778e-09
-4.53533e-06
-5.04987e-09
-4.52654e-06
-8.78187e-09
-4.51373e-06
-1.28157e-08
-4.49653e-06
-1.72005e-08
-4.47456e-06
-2.19686e-08
-4.44741e-06
-2.71492e-08
-4.41464e-06
-3.2771e-08
-4.37578e-06
-3.88636e-08
-4.33032e-06
-4.54579e-08
-4.27773e-06
-5.25861e-08
-4.21745e-06
-6.02812e-08
-4.14887e-06
-6.85771e-08
-4.07137e-06
-7.75072e-08
-3.98426e-06
-8.71038e-08
-3.88687e-06
-9.73965e-08
-3.77846e-06
-1.0841e-07
-3.65829e-06
-1.20164e-07
-3.52563e-06
-1.32666e-07
-3.37971e-06
-1.45912e-07
-3.21983e-06
-1.59879e-07
-3.04531e-06
-1.7452e-07
-2.85556e-06
-1.89759e-07
-2.65007e-06
-2.05482e-07
-2.42854e-06
-2.21534e-07
-2.19083e-06
-2.3771e-07
-1.93708e-06
-2.53753e-07
-1.66773e-06
-2.69346e-07
-1.38362e-06
-2.84115e-07
-1.086e-06
-2.97617e-07
-7.76696e-07
-3.09302e-07
-4.5819e-07
-3.18506e-07
-1.33251e-07
-3.24939e-07
1.95895e-07
-3.29146e-07
5.26365e-07
-3.30469e-07
8.54518e-07
-3.28153e-07
1.17707e-06
-3.22556e-07
1.49095e-06
-3.13874e-07
1.79334e-06
-3.02394e-07
2.08182e-06
-2.88479e-07
2.35437e-06
-2.7255e-07
2.60943e-06
-2.55054e-07
2.84586e-06
-2.36436e-07
3.06297e-06
-2.17111e-07
3.26043e-06
-1.97454e-07
3.43821e-06
-1.77784e-07
3.59657e-06
-1.58364e-07
3.73598e-06
-1.39403e-07
3.85704e-06
-1.21061e-07
3.9605e-06
-1.03461e-07
4.04717e-06
-8.66725e-08
4.11788e-06
-7.0713e-08
4.17356e-06
-5.56768e-08
4.21528e-06
-4.17141e-08
4.24297e-06
-2.76936e-08
4.25411e-06
-1.11381e-08
4.2463e-06
7.80492e-09
4.22312e-06
2.31781e-08
4.18876e-06
3.43656e-08
4.14648e-06
4.22754e-08
4.09881e-06
4.76764e-08
4.04764e-06
5.11716e-08
3.99443e-06
5.32089e-08
3.94028e-06
5.4146e-08
3.886e-06
5.42786e-08
3.83214e-06
5.38627e-08
3.77901e-06
5.31298e-08
3.72671e-06
5.22983e-08
3.67513e-06
5.15849e-08
3.6239e-06
5.12218e-08
3.57242e-06
5.14821e-08
3.5197e-06
5.27228e-08
3.46424e-06
5.54568e-08
3.40374e-06
6.05003e-08
3.33458e-06
6.91637e-08
3.25033e-06
8.42526e-08
3.14139e-06
1.08935e-07
2.9798e-06
1.61593e-07
2.25078e-07
2.75472e-06
1.24984e-07
-1.48752e-07
2.58587e-07
-2.18142e-07
3.8009e-07
-2.41564e-07
4.90212e-07
-2.45048e-07
5.89849e-07
-2.36918e-07
6.7922e-07
-2.21512e-07
7.58239e-07
-2.0138e-07
8.26647e-07
-1.78051e-07
8.841e-07
-1.52463e-07
9.30256e-07
-1.25194e-07
9.64866e-07
-9.65956e-08
9.87868e-07
-6.68581e-08
9.9944e-07
-3.60728e-08
9.98733e-07
-3.86247e-09
9.89517e-07
2.95139e-08
9.69528e-07
6.46712e-08
9.36277e-07
1.0066e-07
8.87299e-07
1.35839e-07
8.20649e-07
1.67599e-07
7.35729e-07
1.92574e-07
6.34241e-07
2.07544e-07
5.19608e-07
2.11313e-07
3.95402e-07
2.06984e-07
2.63231e-07
2.01807e-07
1.21929e-07
2.03621e-07
-3.14363e-08
2.16991e-07
-1.99825e-07
2.4213e-07
-3.85217e-07
2.76161e-07
-5.87833e-07
3.14691e-07
-8.04629e-07
3.52919e-07
-1.03014e-06
3.86405e-07
-1.25761e-06
4.11546e-07
-1.48025e-06
4.25988e-07
-1.69229e-06
4.2893e-07
-1.88947e-06
4.21064e-07
-2.06919e-06
4.04148e-07
-2.23038e-06
3.80478e-07
-2.37322e-06
3.52441e-07
-2.49877e-06
3.22202e-07
-2.60866e-06
2.91536e-07
-2.70474e-06
2.61769e-07
-2.78892e-06
2.33798e-07
-2.86297e-06
2.08156e-07
-2.92847e-06
1.85091e-07
-2.98678e-06
1.64642e-07
-3.03907e-06
1.46713e-07
-3.08628e-06
1.31124e-07
-3.1292e-06
1.17654e-07
-3.16849e-06
1.0607e-07
-3.20469e-06
9.61423e-08
-3.23825e-06
8.76568e-08
-3.26956e-06
8.04203e-08
-3.29894e-06
7.42614e-08
-3.32667e-06
6.90311e-08
-3.353e-06
6.46006e-08
-3.37815e-06
6.08592e-08
-3.40229e-06
5.77123e-08
-3.42559e-06
5.50791e-08
-3.4482e-06
5.28902e-08
-3.47024e-06
5.10861e-08
-3.49183e-06
4.96158e-08
-3.51306e-06
4.8435e-08
-3.53402e-06
4.75052e-08
-3.55479e-06
4.67929e-08
-3.57543e-06
4.62688e-08
-3.596e-06
4.59067e-08
-3.61655e-06
4.56835e-08
-3.63712e-06
4.55785e-08
-3.65775e-06
4.55728e-08
-3.67845e-06
4.56493e-08
-3.69926e-06
4.5792e-08
-3.72019e-06
4.59862e-08
-3.74125e-06
4.62178e-08
-3.76244e-06
4.64731e-08
-3.78377e-06
4.67392e-08
-3.80521e-06
4.7003e-08
-3.82676e-06
4.72516e-08
-3.8484e-06
4.74719e-08
-3.8701e-06
4.76505e-08
-3.89184e-06
4.77737e-08
-3.91356e-06
4.78273e-08
-3.93523e-06
4.77963e-08
-3.95679e-06
4.76652e-08
-3.97818e-06
4.74175e-08
-3.99933e-06
4.70358e-08
-4.02017e-06
4.65018e-08
-4.04061e-06
4.57961e-08
-4.06055e-06
4.48978e-08
-4.07989e-06
4.37849e-08
-4.09852e-06
4.24341e-08
-4.11632e-06
4.08205e-08
-4.13317e-06
3.89184e-08
-4.14894e-06
3.6701e-08
-4.16348e-06
3.41412e-08
-4.17666e-06
3.12121e-08
-4.18836e-06
2.78885e-08
-4.19845e-06
2.41489e-08
-4.20684e-06
1.99792e-08
-4.21347e-06
1.53762e-08
-4.21828e-06
1.03472e-08
-4.22115e-06
4.8927e-09
-4.22162e-06
-1.05505e-09
-4.21907e-06
-7.59468e-09
-4.21308e-06
-1.47686e-08
-4.20328e-06
-2.2624e-08
-4.18926e-06
-3.12145e-08
-4.17064e-06
-4.05941e-08
-4.14697e-06
-5.08178e-08
-4.1178e-06
-6.19419e-08
-4.08263e-06
-7.40252e-08
-4.04096e-06
-8.71281e-08
-3.99224e-06
-1.01313e-07
-3.93587e-06
-1.16645e-07
-3.87126e-06
-1.33189e-07
-3.79776e-06
-1.51009e-07
-3.7147e-06
-1.70166e-07
-3.62138e-06
-1.90716e-07
-3.51708e-06
-2.12704e-07
-3.40108e-06
-2.36164e-07
-3.27264e-06
-2.6111e-07
-3.13102e-06
-2.87529e-07
-2.97553e-06
-3.15374e-07
-2.8055e-06
-3.44549e-07
-2.62036e-06
-3.749e-07
-2.41963e-06
-4.06205e-07
-2.20301e-06
-4.38157e-07
-1.97037e-06
-4.7035e-07
-1.72185e-06
-5.02278e-07
-1.45787e-06
-5.33325e-07
-1.17921e-06
-5.6277e-07
-8.8704e-07
-5.89789e-07
-5.82873e-07
-6.13469e-07
-2.68484e-07
-6.32895e-07
5.40154e-08
-6.47439e-07
3.81425e-07
-6.56556e-07
7.10485e-07
-6.59529e-07
1.03825e-06
-6.5592e-07
1.36155e-06
-6.45854e-07
1.67734e-06
-6.29668e-07
1.98285e-06
-6.079e-07
2.27564e-06
-5.81264e-07
2.55368e-06
-5.50594e-07
2.8154e-06
-5.16775e-07
3.05965e-06
-4.8069e-07
3.28571e-06
-4.43166e-07
3.4932e-06
-4.04945e-07
3.68208e-06
-3.66659e-07
3.85254e-06
-3.28832e-07
4.00502e-06
-2.91877e-07
4.14007e-06
-2.56111e-07
4.25837e-06
-2.21768e-07
4.3607e-06
-1.88998e-07
4.44788e-06
-1.5789e-07
4.52071e-06
-1.28513e-07
4.57985e-06
-1.00856e-07
4.62676e-06
-7.46038e-08
4.66511e-06
-4.9482e-08
4.69785e-06
-2.49395e-08
4.72317e-06
-2.13785e-09
4.73936e-06
1.81772e-08
4.74596e-06
3.56715e-08
4.74333e-06
5.03106e-08
4.7322e-06
6.22974e-08
4.71353e-06
7.18803e-08
4.68833e-06
7.93452e-08
4.65762e-06
8.4992e-08
4.62235e-06
8.91267e-08
4.58342e-06
9.20637e-08
4.54159e-06
9.41287e-08
4.49751e-06
9.56674e-08
4.45167e-06
9.70612e-08
4.40439e-06
9.87549e-08
4.35581e-06
1.01311e-07
4.30578e-06
1.05487e-07
4.25382e-06
1.12453e-07
4.19908e-06
1.23905e-07
4.13968e-06
1.43655e-07
4.0731e-06
1.7551e-07
3.99342e-06
2.41272e-07
3.38387e-07
3.88012e-06
1.32395e-07
-2.81147e-07
2.57993e-07
-3.43739e-07
3.61977e-07
-3.45549e-07
4.48869e-07
-3.31939e-07
5.22561e-07
-3.10611e-07
5.85321e-07
-2.84273e-07
6.38314e-07
-2.54373e-07
6.82022e-07
-2.21759e-07
7.16513e-07
-1.86953e-07
7.4162e-07
-1.50301e-07
7.57069e-07
-1.12044e-07
7.62568e-07
-7.23571e-08
7.57853e-07
-3.13581e-08
7.43107e-07
1.08831e-08
7.18203e-07
5.4418e-08
6.83626e-07
9.92481e-08
6.3927e-07
1.45016e-07
5.84464e-07
1.90645e-07
5.17963e-07
2.341e-07
4.38121e-07
2.72416e-07
3.43136e-07
3.02528e-07
2.3117e-07
3.2328e-07
1.00611e-07
3.37542e-07
-4.91784e-08
3.51597e-07
-2.17223e-07
3.71666e-07
-4.01118e-07
4.00886e-07
-5.97393e-07
4.38405e-07
-8.01525e-07
4.80293e-07
-1.00798e-06
5.21151e-07
-1.21067e-06
5.55609e-07
-1.40374e-06
5.79475e-07
-1.58258e-06
5.90379e-07
-1.74446e-06
5.87868e-07
-1.88863e-06
5.73105e-07
-2.01589e-06
5.48319e-07
-2.12796e-06
5.16216e-07
-2.22697e-06
4.79496e-07
-2.31508e-06
4.40545e-07
-2.39416e-06
4.01288e-07
-2.46579e-06
3.63157e-07
-2.53115e-06
3.27131e-07
-2.59116e-06
2.93806e-07
-2.64648e-06
2.63481e-07
-2.69763e-06
2.36239e-07
-2.745e-06
2.12011e-07
-2.78892e-06
1.90631e-07
-2.82967e-06
1.7188e-07
-2.86753e-06
1.55515e-07
-2.90275e-06
1.41287e-07
-2.93556e-06
1.28956e-07
-2.96621e-06
1.183e-07
-2.9949e-06
1.09113e-07
-3.02185e-06
1.01215e-07
-3.04727e-06
9.44442e-08
-3.07132e-06
8.8658e-08
-3.0942e-06
8.37329e-08
-3.11605e-06
7.95606e-08
-3.13701e-06
7.6047e-08
-3.15723e-06
7.31099e-08
-3.17683e-06
7.06775e-08
-3.1959e-06
6.8687e-08
-3.21454e-06
6.70834e-08
-3.23286e-06
6.58178e-08
-3.25091e-06
6.48475e-08
-3.26878e-06
6.41341e-08
-3.28651e-06
6.36435e-08
-3.30418e-06
6.33449e-08
-3.32181e-06
6.32107e-08
-3.33945e-06
6.32152e-08
-3.35714e-06
6.33353e-08
-3.37489e-06
6.3549e-08
-3.39274e-06
6.38361e-08
-3.4107e-06
6.41768e-08
-3.42878e-06
6.45526e-08
-3.44699e-06
6.49449e-08
-3.46532e-06
6.53357e-08
-3.48377e-06
6.57068e-08
-3.50234e-06
6.604e-08
-3.52101e-06
6.63164e-08
-3.53975e-06
6.6517e-08
-3.55855e-06
6.66217e-08
-3.57736e-06
6.66099e-08
-3.59615e-06
6.64598e-08
-3.61489e-06
6.61489e-08
-3.6335e-06
6.56534e-08
-3.65195e-06
6.4948e-08
-3.67016e-06
6.40066e-08
-3.68806e-06
6.28014e-08
-3.70558e-06
6.13033e-08
-3.72263e-06
5.94817e-08
-3.73911e-06
5.73048e-08
-3.75494e-06
5.47397e-08
-3.76999e-06
5.17524e-08
-3.78415e-06
4.83088e-08
-3.79732e-06
4.43744e-08
-3.80934e-06
3.99155e-08
-3.82009e-06
3.48988e-08
-3.82941e-06
2.92918e-08
-3.83709e-06
2.30607e-08
-3.84291e-06
1.61637e-08
-3.84655e-06
8.53586e-09
-3.84769e-06
8.42642e-11
-3.84601e-06
-9.27753e-09
-3.84116e-06
-1.9612e-08
-3.8328e-06
-3.09828e-08
-3.82056e-06
-4.34612e-08
-3.80403e-06
-5.7124e-08
-3.78279e-06
-7.20519e-08
-3.75641e-06
-8.83289e-08
-3.72439e-06
-1.06043e-07
-3.68623e-06
-1.25285e-07
-3.6414e-06
-1.46149e-07
-3.58931e-06
-1.68731e-07
-3.52937e-06
-1.93129e-07
-3.46094e-06
-2.19439e-07
-3.38336e-06
-2.47752e-07
-3.29592e-06
-2.78151e-07
-3.19792e-06
-3.10706e-07
-3.08862e-06
-3.45465e-07
-2.96728e-06
-3.8245e-07
-2.83316e-06
-4.21645e-07
-2.68556e-06
-4.62981e-07
-2.52378e-06
-5.0632e-07
-2.34725e-06
-5.51438e-07
-2.15544e-06
-5.98008e-07
-1.94802e-06
-6.45583e-07
-1.7248e-06
-6.93569e-07
-1.48585e-06
-7.41223e-07
-1.23154e-06
-7.87642e-07
-9.6253e-07
-8.31776e-07
-6.79877e-07
-8.72443e-07
-3.84959e-07
-9.08386e-07
-7.94883e-08
-9.38366e-07
2.34215e-07
-9.61142e-07
5.53212e-07
-9.75553e-07
8.74441e-07
-9.80758e-07
1.19485e-06
-9.7633e-07
1.51133e-06
-9.62334e-07
1.82088e-06
-9.39217e-07
2.12074e-06
-9.07763e-07
2.40851e-06
-8.69032e-07
2.68218e-06
-8.24264e-07
2.94019e-06
-7.74784e-07
3.1814e-06
-7.21907e-07
3.40511e-06
-6.66869e-07
3.61094e-06
-6.10773e-07
3.79884e-06
-5.54565e-07
3.96903e-06
-4.99022e-07
4.12191e-06
-4.44759e-07
4.25805e-06
-3.92246e-07
4.37811e-06
-3.41828e-07
4.48285e-06
-2.93739e-07
4.57309e-06
-2.4813e-07
4.64966e-06
-2.05083e-07
4.71338e-06
-1.64578e-07
4.7653e-06
-1.26518e-07
4.80677e-06
-9.09536e-08
4.83958e-06
-5.77505e-08
4.86461e-06
-2.7166e-08
4.88219e-06
5.9257e-10
4.89254e-06
2.53225e-08
4.89591e-06
4.69433e-08
4.89268e-06
6.55272e-08
4.88333e-06
8.12336e-08
4.86839e-06
9.42852e-08
4.84843e-06
1.04948e-07
4.82404e-06
1.13521e-07
4.79576e-06
1.20336e-07
4.76413e-06
1.25759e-07
4.72961e-06
1.30196e-07
4.69255e-06
1.34114e-07
4.65324e-06
1.3807e-07
4.61178e-06
1.42771e-07
4.56811e-06
1.49159e-07
4.52192e-06
1.58638e-07
4.47261e-06
1.73221e-07
4.41935e-06
1.96907e-07
4.3605e-06
2.34361e-07
4.2994e-06
3.02372e-07
4.04792e-07
4.233e-06
1.10828e-07
-3.91975e-07
2.02667e-07
-4.35578e-07
2.77194e-07
-4.20076e-07
3.39051e-07
-3.93795e-07
3.908e-07
-3.6236e-07
4.33807e-07
-3.2728e-07
4.68726e-07
-2.89292e-07
4.95777e-07
-2.4881e-07
5.14905e-07
-2.06081e-07
5.25878e-07
-1.61275e-07
5.2836e-07
-1.14526e-07
5.21961e-07
-6.5958e-08
5.06299e-07
-1.56959e-08
4.81053e-07
3.61289e-08
4.46079e-07
8.93925e-08
4.01421e-07
1.43906e-07
3.47196e-07
1.99241e-07
2.8337e-07
2.54472e-07
2.09509e-07
3.0796e-07
1.24465e-07
3.5746e-07
2.61232e-08
4.0087e-07
-8.83317e-08
4.37735e-07
-2.21136e-07
4.70346e-07
-3.72316e-07
5.02777e-07
-5.39051e-07
5.38402e-07
-7.16199e-07
5.78034e-07
-8.97326e-07
6.19532e-07
-1.07572e-06
6.58691e-07
-1.2453e-06
6.90726e-07
-1.40137e-06
7.11676e-07
-1.54119e-06
7.19294e-07
-1.66407e-06
7.13258e-07
-1.77104e-06
6.94839e-07
-1.86423e-06
6.66301e-07
-1.94622e-06
6.30311e-07
-2.0195e-06
5.8949e-07
-2.08615e-06
5.46147e-07
-2.14776e-06
5.02159e-07
-2.20544e-06
4.58961e-07
-2.25986e-06
4.17577e-07
-2.31141e-06
3.7869e-07
-2.36031e-06
3.42701e-07
-2.40663e-06
3.09801e-07
-2.45041e-06
2.80021e-07
-2.49168e-06
2.53282e-07
-2.53049e-06
2.29433e-07
-2.56689e-06
2.08279e-07
-2.60097e-06
1.89602e-07
-2.63286e-06
1.73176e-07
-2.66269e-06
1.5878e-07
-2.69059e-06
1.46205e-07
-2.71673e-06
1.35254e-07
-2.74126e-06
1.25748e-07
-2.76435e-06
1.17525e-07
-2.78613e-06
1.10439e-07
-2.80675e-06
1.04359e-07
-2.82636e-06
9.91706e-08
-2.84509e-06
9.47699e-08
-2.86304e-06
9.1066e-08
-2.88034e-06
8.79777e-08
-2.89709e-06
8.54331e-08
-2.91337e-06
8.33683e-08
-2.92928e-06
8.17261e-08
-2.94489e-06
8.04552e-08
-2.96027e-06
7.951e-08
-2.97547e-06
7.8849e-08
-2.99056e-06
7.84349e-08
-3.00558e-06
7.82332e-08
-3.02058e-06
7.82129e-08
-3.03559e-06
7.83447e-08
-3.05064e-06
7.86017e-08
-3.06576e-06
7.8958e-08
-3.08098e-06
7.93895e-08
-3.0963e-06
7.98724e-08
-3.11174e-06
8.03835e-08
-3.1273e-06
8.09002e-08
-3.14299e-06
8.13996e-08
-3.15881e-06
8.18584e-08
-3.17475e-06
8.22533e-08
-3.19079e-06
8.256e-08
-3.20692e-06
8.27535e-08
-3.22312e-06
8.28076e-08
-3.23936e-06
8.26953e-08
-3.2556e-06
8.23881e-08
-3.2718e-06
8.18559e-08
-3.28792e-06
8.10676e-08
-3.3039e-06
7.999e-08
-3.31969e-06
7.85885e-08
-3.33521e-06
7.68265e-08
-3.3504e-06
7.46657e-08
-3.36516e-06
7.2066e-08
-3.3794e-06
6.89853e-08
-3.39303e-06
6.53801e-08
-3.40593e-06
6.12047e-08
-3.41796e-06
5.64123e-08
-3.429e-06
5.09533e-08
-3.43888e-06
4.47759e-08
-3.44741e-06
3.7824e-08
-3.45439e-06
3.00358e-08
-3.45956e-06
2.13381e-08
-3.46267e-06
1.16428e-08
-3.46344e-06
8.51989e-10
-3.46158e-06
-1.11282e-08
-3.45681e-06
-2.43844e-08
-3.44879e-06
-3.90055e-08
-3.43716e-06
-5.50863e-08
-3.42156e-06
-7.27281e-08
-3.40157e-06
-9.20372e-08
-3.37678e-06
-1.13126e-07
-3.34671e-06
-1.3611e-07
-3.31088e-06
-1.61111e-07
-3.26878e-06
-1.88255e-07
-3.21984e-06
-2.17669e-07
-3.16349e-06
-2.49483e-07
-3.0991e-06
-2.83826e-07
-3.02603e-06
-3.20823e-07
-2.9436e-06
-3.60585e-07
-2.85109e-06
-4.03207e-07
-2.7478e-06
-4.48758e-07
-2.63298e-06
-4.9727e-07
-2.5059e-06
-5.48731e-07
-2.36582e-06
-6.03059e-07
-2.21206e-06
-6.60081e-07
-2.04398e-06
-7.19513e-07
-1.86105e-06
-7.80939e-07
-1.66285e-06
-8.43781e-07
-1.44915e-06