#           v             n
     0.523599             0
     0.648652             0
     0.790112             0
     0.953116             0
      1.13449             0
      1.34047             0
      1.56672             0
      1.82069             0
      2.09677   2.69967e-08
      2.40376   5.75936e-07
      2.73462   6.37529e-06
      3.09966   3.84761e-05
      3.49026   0.000169403
      3.91837   0.000519048
      4.37366    0.00128606
      4.86986    0.00245016
       5.3948    0.00394813
      5.96412    0.00511469
      6.56366    0.00570404
      7.21112    0.00523163
      7.89023    0.00417467
      8.62085    0.00278728
      9.38447    0.00163658
      10.2033   0.000816697
      11.0564   0.000362402
      11.9684   0.000138611
      12.9159    4.7639e-05
      13.9262   1.42863e-05
      14.9731   1.08738e-05
