/*--------------------------------*- C++ -*----------------------------------*\
  =========                 |
  \\      /  F ield         | OpenFOAM: The Open Source CFD Toolbox
   \\    /   O peration     | Website:  https://openfoam.org
    \\  /    A nd           | Version:  12
     \\/     M anipulation  |
\*---------------------------------------------------------------------------*/
FoamFile
{
    format      ascii;
    class       volScalarField;
    location    "1";
    object      p;
}
// * * * * * * * * * * * * * * * * * * * * * * * * * * * * * * * * * * * * * //

dimensions      [1 -1 -2 0 0 0 0];

internalField   nonuniform List<scalar> 
3829
(
-615.032
-615.032
-615.031
-615.03
-615.029
-615.027
-615.024
-615.021
-615.018
-615.014
-615.01
-615.005
-615
-614.994
-614.988
-614.981
-614.973
-614.965
-614.957
-614.947
-614.938
-614.927
-614.916
-614.905
-614.893
-614.88
-614.867
-614.853
-614.839
-614.824
-614.809
-614.793
-614.777
-614.761
-614.744
-614.727
-614.71
-614.693
-614.676
-614.658
-614.641
-614.623
-614.606
-614.588
-614.571
-614.554
-614.538
-614.522
-614.506
-614.491
-614.476
-614.461
-614.447
-614.434
-614.421
-614.409
-614.397
-614.386
-614.376
-614.366
-614.357
-614.349
-614.341
-614.334
-614.328
-614.322
-614.317
-614.312
-614.308
-614.305
-614.302
-614.3
-614.298
-614.297
-614.296
-614.296
-614.296
-614.296
-614.297
-614.298
-614.299
-614.301
-614.303
-614.305
-614.308
-614.31
-614.313
-614.316
-614.318
-614.321
-614.324
-614.327
-614.33
-614.333
-614.336
-614.339
-614.342
-614.345
-614.347
-614.35
-614.353
-614.355
-614.357
-614.359
-614.362
-614.363
-614.365
-614.367
-614.368
-614.37
-614.371
-614.372
-614.373
-614.374
-614.375
-614.375
-614.376
-614.376
-614.376
-614.376
-614.376
-614.376
-614.376
-614.376
-614.375
-614.375
-614.374
-614.374
-614.373
-614.372
-614.371
-614.37
-614.37
-614.369
-614.368
-614.367
-614.366
-614.365
-614.363
-614.362
-614.361
-614.36
-614.359
-614.358
-614.357
-614.356
-614.355
-614.354
-614.353
-614.352
-614.351
-614.35
-614.349
-614.348
-614.347
-614.346
-614.345
-614.345
-614.344
-614.343
-614.342
-614.342
-614.341
-614.341
-614.34
-614.339
-614.339
-614.338
-614.338
-614.337
-614.337
-614.337
-614.336
-614.336
-614.336
-614.335
-614.335
-614.335
-614.335
-614.334
-614.334
-614.334
-614.334
-614.334
-614.334
-614.334
-614.333
-614.333
-614.333
-614.333
-614.333
-614.333
-614.333
-614.333
-614.333
-614.333
-614.333
-614.333
-614.333
-614.333
-1773.44
-1773.44
-1773.43
-1773.43
-1773.43
-1773.43
-1773.43
-1773.42
-1773.42
-1773.42
-1773.41
-1773.41
-1773.4
-1773.4
-1773.39
-1773.38
-1773.37
-1773.36
-1773.35
-1773.34
-1773.33
-1773.32
-1773.31
-1773.3
-1773.28
-1773.27
-1773.25
-1773.24
-1773.22
-1773.21
-1773.19
-1773.17
-1773.15
-1773.14
-1773.12
-1773.1
-1773.08
-1773.06
-1773.04
-1773.02
-1773
-1772.98
-1772.96
-1772.95
-1772.93
-1772.91
-1772.89
-1772.88
-1772.86
-1772.84
-1772.83
-1772.81
-1772.8
-1772.78
-1772.77
-1772.76
-1772.75
-1772.74
-1772.73
-1772.72
-1772.71
-1772.7
-1772.69
-1772.69
-1772.68
-1772.68
-1772.67
-1772.67
-1772.67
-1772.66
-1772.66
-1772.66
-1772.66
-1772.66
-1772.66
-1772.66
-1772.66
-1772.66
-1772.66
-1772.66
-1772.67
-1772.67
-1772.67
-1772.67
-1772.68
-1772.68
-1772.68
-1772.68
-1772.69
-1772.69
-1772.69
-1772.7
-1772.7
-1772.7
-1772.71
-1772.71
-1772.71
-1772.72
-1772.72
-1772.72
-1772.72
-1772.73
-1772.73
-1772.73
-1772.73
-1772.73
-1772.74
-1772.74
-1772.74
-1772.74
-1772.74
-1772.74
-1772.74
-1772.74
-1772.75
-1772.75
-1772.75
-1772.75
-1772.75
-1772.75
-1772.75
-1772.75
-1772.75
-1772.75
-1772.75
-1772.74
-1772.74
-1772.74
-1772.74
-1772.74
-1772.74
-1772.74
-1772.74
-1772.74
-1772.74
-1772.74
-1772.74
-1772.73
-1772.73
-1772.73
-1772.73
-1772.73
-1772.73
-1772.73
-1772.73
-1772.73
-1772.72
-1772.72
-1772.72
-1772.72
-1772.72
-1772.72
-1772.72
-1772.72
-1772.72
-1772.72
-1772.72
-1772.71
-1772.71
-1772.71
-1772.71
-1772.71
-1772.71
-1772.71
-1772.71
-1772.71
-1772.71
-1772.71
-1772.71
-1772.71
-1772.71
-1772.71
-1772.71
-1772.71
-1772.71
-1772.7
-1772.7
-1772.7
-1772.7
-1772.7
-1772.7
-1772.7
-1772.7
-1772.7
-1772.7
-1772.7
-1772.7
-1772.7
-1772.7
-1772.7
-1772.7
-1772.7
-1772.7
-1772.7
-1772.7
-1772.7
-1772.7
-1772.7
-1772.7
-1772.7
-2799.65
-2799.65
-2799.65
-2799.65
-2799.65
-2799.65
-2799.64
-2799.64
-2799.64
-2799.63
-2799.63
-2799.62
-2799.62
-2799.61
-2799.6
-2799.6
-2799.59
-2799.58
-2799.57
-2799.55
-2799.54
-2799.53
-2799.51
-2799.5
-2799.48
-2799.47
-2799.45
-2799.43
-2799.41
-2799.39
-2799.37
-2799.35
-2799.33
-2799.3
-2799.28
-2799.26
-2799.24
-2799.21
-2799.19
-2799.17
-2799.15
-2799.12
-2799.1
-2799.08
-2799.06
-2799.04
-2799.02
-2799.01
-2798.99
-2798.97
-2798.95
-2798.94
-2798.92
-2798.91
-2798.9
-2798.89
-2798.88
-2798.87
-2798.86
-2798.85
-2798.84
-2798.83
-2798.83
-2798.82
-2798.82
-2798.81
-2798.81
-2798.81
-2798.81
-2798.81
-2798.8
-2798.8
-2798.8
-2798.81
-2798.81
-2798.81
-2798.81
-2798.81
-2798.81
-2798.82
-2798.82
-2798.82
-2798.83
-2798.83
-2798.83
-2798.84
-2798.84
-2798.84
-2798.85
-2798.85
-2798.85
-2798.86
-2798.86
-2798.87
-2798.87
-2798.87
-2798.87
-2798.88
-2798.88
-2798.88
-2798.89
-2798.89
-2798.89
-2798.89
-2798.89
-2798.9
-2798.9
-2798.9
-2798.9
-2798.9
-2798.9
-2798.9
-2798.91
-2798.91
-2798.91
-2798.91
-2798.91
-2798.91
-2798.91
-2798.91
-2798.91
-2798.91
-2798.91
-2798.91
-2798.91
-2798.91
-2798.91
-2798.9
-2798.9
-2798.9
-2798.9
-2798.9
-2798.9
-2798.9
-2798.9
-2798.9
-2798.9
-2798.89
-2798.89
-2798.89
-2798.89
-2798.89
-2798.89
-2798.89
-2798.89
-2798.89
-2798.88
-2798.88
-2798.88
-2798.88
-2798.88
-2798.88
-2798.88
-2798.88
-2798.88
-2798.88
-2798.88
-2798.87
-2798.87
-2798.87
-2798.87
-2798.87
-2798.87
-2798.87
-2798.87
-2798.87
-2798.87
-2798.87
-2798.87
-2798.87
-2798.87
-2798.87
-2798.87
-2798.87
-2798.87
-2798.87
-2798.86
-2798.86
-2798.86
-2798.86
-2798.86
-2798.86
-2798.86
-2798.86
-2798.86
-2798.86
-2798.86
-2798.86
-2798.86
-2798.86
-2798.86
-2798.86
-2798.86
-2798.86
-2798.86
-2798.86
-2798.86
-2798.86
-2798.86
-2798.86
-3708.76
-3708.76
-3708.76
-3708.76
-3708.76
-3708.76
-3708.76
-3708.75
-3708.75
-3708.75
-3708.74
-3708.74
-3708.73
-3708.73
-3708.72
-3708.71
-3708.7
-3708.69
-3708.68
-3708.67
-3708.65
-3708.63
-3708.62
-3708.6
-3708.58
-3708.56
-3708.53
-3708.51
-3708.48
-3708.46
-3708.43
-3708.4
-3708.38
-3708.35
-3708.32
-3708.29
-3708.27
-3708.24
-3708.21
-3708.18
-3708.16
-3708.13
-3708.11
-3708.08
-3708.06
-3708.04
-3708.02
-3708
-3707.98
-3707.96
-3707.95
-3707.93
-3707.92
-3707.9
-3707.89
-3707.88
-3707.87
-3707.86
-3707.85
-3707.85
-3707.84
-3707.84
-3707.83
-3707.83
-3707.82
-3707.82
-3707.82
-3707.82
-3707.82
-3707.82
-3707.82
-3707.82
-3707.83
-3707.83
-3707.83
-3707.83
-3707.84
-3707.84
-3707.84
-3707.85
-3707.85
-3707.86
-3707.86
-3707.87
-3707.87
-3707.87
-3707.88
-3707.88
-3707.89
-3707.89
-3707.89
-3707.9
-3707.9
-3707.91
-3707.91
-3707.91
-3707.92
-3707.92
-3707.92
-3707.92
-3707.93
-3707.93
-3707.93
-3707.93
-3707.94
-3707.94
-3707.94
-3707.94
-3707.94
-3707.94
-3707.95
-3707.95
-3707.95
-3707.95
-3707.95
-3707.95
-3707.95
-3707.95
-3707.95
-3707.95
-3707.95
-3707.95
-3707.95
-3707.95
-3707.95
-3707.95
-3707.94
-3707.94
-3707.94
-3707.94
-3707.94
-3707.94
-3707.94
-3707.94
-3707.94
-3707.94
-3707.93
-3707.93
-3707.93
-3707.93
-3707.93
-3707.93
-3707.93
-3707.93
-3707.93
-3707.92
-3707.92
-3707.92
-3707.92
-3707.92
-3707.92
-3707.92
-3707.92
-3707.92
-3707.92
-3707.91
-3707.91
-3707.91
-3707.91
-3707.91
-3707.91
-3707.91
-3707.91
-3707.91
-3707.91
-3707.91
-3707.91
-3707.91
-3707.91
-3707.91
-3707.91
-3707.91
-3707.9
-3707.9
-3707.9
-3707.9
-3707.9
-3707.9
-3707.9
-3707.9
-3707.9
-3707.9
-3707.9
-3707.9
-3707.9
-3707.9
-3707.9
-3707.9
-3707.9
-3707.9
-3707.9
-3707.9
-3707.9
-3707.9
-3707.9
-3707.9
-3707.9
-3707.9
-3707.9
-3707.9
-4514.12
-4514.12
-4514.12
-4514.12
-4514.12
-4514.13
-4514.13
-4514.13
-4514.13
-4514.13
-4514.12
-4514.12
-4514.12
-4514.11
-4514.11
-4514.1
-4514.09
-4514.08
-4514.07
-4514.05
-4514.03
-4514.01
-4513.99
-4513.97
-4513.94
-4513.91
-4513.88
-4513.85
-4513.82
-4513.78
-4513.75
-4513.71
-4513.68
-4513.64
-4513.61
-4513.57
-4513.54
-4513.5
-4513.47
-4513.44
-4513.41
-4513.38
-4513.35
-4513.32
-4513.3
-4513.27
-4513.25
-4513.23
-4513.21
-4513.19
-4513.18
-4513.16
-4513.15
-4513.13
-4513.12
-4513.11
-4513.11
-4513.1
-4513.09
-4513.09
-4513.08
-4513.08
-4513.08
-4513.08
-4513.08
-4513.08
-4513.08
-4513.08
-4513.08
-4513.09
-4513.09
-4513.09
-4513.1
-4513.1
-4513.1
-4513.11
-4513.11
-4513.12
-4513.12
-4513.13
-4513.14
-4513.14
-4513.15
-4513.15
-4513.16
-4513.16
-4513.17
-4513.17
-4513.18
-4513.18
-4513.18
-4513.19
-4513.19
-4513.2
-4513.2
-4513.2
-4513.21
-4513.21
-4513.21
-4513.22
-4513.22
-4513.22
-4513.22
-4513.23
-4513.23
-4513.23
-4513.23
-4513.23
-4513.23
-4513.23
-4513.24
-4513.24
-4513.24
-4513.24
-4513.24
-4513.24
-4513.24
-4513.24
-4513.24
-4513.24
-4513.24
-4513.24
-4513.24
-4513.24
-4513.23
-4513.23
-4513.23
-4513.23
-4513.23
-4513.23
-4513.23
-4513.23
-4513.23
-4513.23
-4513.23
-4513.22
-4513.22
-4513.22
-4513.22
-4513.22
-4513.22
-4513.22
-4513.22
-4513.21
-4513.21
-4513.21
-4513.21
-4513.21
-4513.21
-4513.21
-4513.21
-4513.21
-4513.21
-4513.2
-4513.2
-4513.2
-4513.2
-4513.2
-4513.2
-4513.2
-4513.2
-4513.2
-4513.2
-4513.2
-4513.2
-4513.2
-4513.2
-4513.19
-4513.19
-4513.19
-4513.19
-4513.19
-4513.19
-4513.19
-4513.19
-4513.19
-4513.19
-4513.19
-4513.19
-4513.19
-4513.19
-4513.19
-4513.19
-4513.19
-4513.19
-4513.19
-4513.19
-4513.19
-4513.19
-4513.19
-4513.19
-4513.19
-4513.19
-4513.19
-4513.19
-4513.19
-4513.19
-4513.19
-4513.19
-4513.19
-5227.56
-5227.56
-5227.57
-5227.57
-5227.57
-5227.58
-5227.58
-5227.59
-5227.6
-5227.6
-5227.61
-5227.61
-5227.61
-5227.61
-5227.61
-5227.61
-5227.6
-5227.59
-5227.57
-5227.56
-5227.53
-5227.51
-5227.48
-5227.45
-5227.41
-5227.37
-5227.33
-5227.29
-5227.25
-5227.2
-5227.15
-5227.11
-5227.06
-5227.01
-5226.97
-5226.92
-5226.88
-5226.84
-5226.8
-5226.76
-5226.73
-5226.69
-5226.66
-5226.63
-5226.61
-5226.58
-5226.56
-5226.54
-5226.52
-5226.5
-5226.48
-5226.47
-5226.46
-5226.45
-5226.44
-5226.43
-5226.42
-5226.42
-5226.42
-5226.41
-5226.41
-5226.41
-5226.41
-5226.42
-5226.42
-5226.42
-5226.42
-5226.43
-5226.43
-5226.44
-5226.44
-5226.45
-5226.46
-5226.46
-5226.47
-5226.48
-5226.48
-5226.49
-5226.5
-5226.5
-5226.51
-5226.51
-5226.52
-5226.53
-5226.53
-5226.54
-5226.54
-5226.55
-5226.56
-5226.56
-5226.56
-5226.57
-5226.57
-5226.58
-5226.58
-5226.59
-5226.59
-5226.59
-5226.6
-5226.6
-5226.6
-5226.6
-5226.61
-5226.61
-5226.61
-5226.61
-5226.61
-5226.61
-5226.62
-5226.62
-5226.62
-5226.62
-5226.62
-5226.62
-5226.62
-5226.62
-5226.62
-5226.62
-5226.62
-5226.62
-5226.62
-5226.62
-5226.62
-5226.61
-5226.61
-5226.61
-5226.61
-5226.61
-5226.61
-5226.61
-5226.61
-5226.61
-5226.61
-5226.6
-5226.6
-5226.6
-5226.6
-5226.6
-5226.6
-5226.6
-5226.6
-5226.59
-5226.59
-5226.59
-5226.59
-5226.59
-5226.59
-5226.59
-5226.59
-5226.59
-5226.59
-5226.58
-5226.58
-5226.58
-5226.58
-5226.58
-5226.58
-5226.58
-5226.58
-5226.58
-5226.58
-5226.58
-5226.58
-5226.58
-5226.57
-5226.57
-5226.57
-5226.57
-5226.57
-5226.57
-5226.57
-5226.57
-5226.57
-5226.57
-5226.57
-5226.57
-5226.57
-5226.57
-5226.57
-5226.57
-5226.57
-5226.57
-5226.57
-5226.57
-5226.57
-5226.57
-5226.57
-5226.57
-5226.57
-5226.57
-5226.57
-5226.57
-5226.57
-5226.57
-5226.57
-5226.57
-5226.57
-5226.57
-5226.57
-5226.57
-5859.55
-5859.56
-5859.56
-5859.57
-5859.58
-5859.6
-5859.61
-5859.63
-5859.65
-5859.67
-5859.68
-5859.7
-5859.71
-5859.72
-5859.73
-5859.73
-5859.73
-5859.72
-5859.71
-5859.69
-5859.67
-5859.63
-5859.6
-5859.55
-5859.5
-5859.45
-5859.39
-5859.32
-5859.26
-5859.2
-5859.13
-5859.07
-5859.01
-5858.95
-5858.89
-5858.84
-5858.79
-5858.74
-5858.7
-5858.65
-5858.61
-5858.58
-5858.54
-5858.51
-5858.48
-5858.46
-5858.43
-5858.41
-5858.39
-5858.38
-5858.36
-5858.35
-5858.34
-5858.33
-5858.33
-5858.32
-5858.32
-5858.32
-5858.32
-5858.32
-5858.32
-5858.33
-5858.33
-5858.34
-5858.34
-5858.35
-5858.35
-5858.36
-5858.37
-5858.38
-5858.38
-5858.39
-5858.4
-5858.41
-5858.42
-5858.43
-5858.43
-5858.44
-5858.45
-5858.46
-5858.46
-5858.47
-5858.48
-5858.49
-5858.49
-5858.5
-5858.51
-5858.51
-5858.52
-5858.52
-5858.53
-5858.53
-5858.54
-5858.54
-5858.55
-5858.55
-5858.55
-5858.56
-5858.56
-5858.56
-5858.57
-5858.57
-5858.57
-5858.57
-5858.57
-5858.57
-5858.58
-5858.58
-5858.58
-5858.58
-5858.58
-5858.58
-5858.58
-5858.58
-5858.58
-5858.58
-5858.58
-5858.58
-5858.58
-5858.58
-5858.58
-5858.58
-5858.58
-5858.58
-5858.58
-5858.57
-5858.57
-5858.57
-5858.57
-5858.57
-5858.57
-5858.57
-5858.57
-5858.57
-5858.56
-5858.56
-5858.56
-5858.56
-5858.56
-5858.56
-5858.56
-5858.56
-5858.55
-5858.55
-5858.55
-5858.55
-5858.55
-5858.55
-5858.55
-5858.55
-5858.55
-5858.54
-5858.54
-5858.54
-5858.54
-5858.54
-5858.54
-5858.54
-5858.54
-5858.54
-5858.54
-5858.54
-5858.54
-5858.54
-5858.53
-5858.53
-5858.53
-5858.53
-5858.53
-5858.53
-5858.53
-5858.53
-5858.53
-5858.53
-5858.53
-5858.53
-5858.53
-5858.53
-5858.53
-5858.53
-5858.53
-5858.53
-5858.53
-5858.53
-5858.53
-5858.53
-5858.53
-5858.53
-5858.53
-5858.53
-5858.53
-5858.53
-5858.53
-5858.53
-5858.53
-5858.53
-5858.53
-5858.53
-5858.53
-5858.53
-6419.36
-6419.37
-6419.38
-6419.39
-6419.42
-6419.45
-6419.48
-6419.52
-6419.56
-6419.6
-6419.63
-6419.67
-6419.7
-6419.73
-6419.74
-6419.76
-6419.76
-6419.76
-6419.74
-6419.72
-6419.69
-6419.65
-6419.6
-6419.54
-6419.47
-6419.4
-6419.31
-6419.22
-6419.14
-6419.05
-6418.97
-6418.89
-6418.81
-6418.74
-6418.67
-6418.6
-6418.54
-6418.49
-6418.44
-6418.39
-6418.35
-6418.31
-6418.28
-6418.25
-6418.22
-6418.19
-6418.17
-6418.15
-6418.14
-6418.12
-6418.11
-6418.1
-6418.1
-6418.09
-6418.09
-6418.09
-6418.09
-6418.09
-6418.09
-6418.1
-6418.11
-6418.11
-6418.12
-6418.13
-6418.14
-6418.15
-6418.16
-6418.17
-6418.18
-6418.19
-6418.2
-6418.21
-6418.22
-6418.23
-6418.24
-6418.25
-6418.26
-6418.27
-6418.28
-6418.29
-6418.29
-6418.3
-6418.31
-6418.32
-6418.33
-6418.33
-6418.34
-6418.35
-6418.35
-6418.36
-6418.36
-6418.37
-6418.37
-6418.38
-6418.38
-6418.39
-6418.39
-6418.39
-6418.4
-6418.4
-6418.4
-6418.4
-6418.41
-6418.41
-6418.41
-6418.41
-6418.41
-6418.41
-6418.41
-6418.41
-6418.41
-6418.41
-6418.42
-6418.42
-6418.42
-6418.41
-6418.41
-6418.41
-6418.41
-6418.41
-6418.41
-6418.41
-6418.41
-6418.41
-6418.41
-6418.41
-6418.41
-6418.4
-6418.4
-6418.4
-6418.4
-6418.4
-6418.4
-6418.4
-6418.4
-6418.39
-6418.39
-6418.39
-6418.39
-6418.39
-6418.39
-6418.39
-6418.39
-6418.38
-6418.38
-6418.38
-6418.38
-6418.38
-6418.38
-6418.38
-6418.38
-6418.38
-6418.38
-6418.37
-6418.37
-6418.37
-6418.37
-6418.37
-6418.37
-6418.37
-6418.37
-6418.37
-6418.37
-6418.37
-6418.37
-6418.37
-6418.37
-6418.37
-6418.36
-6418.36
-6418.36
-6418.36
-6418.36
-6418.36
-6418.36
-6418.36
-6418.36
-6418.36
-6418.36
-6418.36
-6418.36
-6418.36
-6418.36
-6418.36
-6418.36
-6418.36
-6418.36
-6418.36
-6418.36
-6418.36
-6418.36
-6418.36
-6418.36
-6418.36
-6418.36
-6418.36
-6418.36
-6418.36
-6418.36
-6418.36
-6915.18
-6915.19
-6915.21
-6915.24
-6915.29
-6915.34
-6915.41
-6915.49
-6915.57
-6915.65
-6915.73
-6915.81
-6915.87
-6915.92
-6915.97
-6916
-6916.02
-6916.02
-6916.02
-6915.99
-6915.95
-6915.9
-6915.83
-6915.74
-6915.63
-6915.51
-6915.38
-6915.24
-6915.11
-6914.98
-6914.87
-6914.77
-6914.67
-6914.59
-6914.51
-6914.44
-6914.37
-6914.31
-6914.26
-6914.21
-6914.17
-6914.13
-6914.1
-6914.07
-6914.04
-6914.02
-6914
-6913.99
-6913.97
-6913.96
-6913.96
-6913.95
-6913.95
-6913.95
-6913.95
-6913.95
-6913.96
-6913.97
-6913.97
-6913.98
-6913.99
-6914
-6914.02
-6914.03
-6914.04
-6914.05
-6914.06
-6914.08
-6914.09
-6914.1
-6914.12
-6914.13
-6914.14
-6914.15
-6914.17
-6914.18
-6914.19
-6914.2
-6914.21
-6914.22
-6914.23
-6914.24
-6914.25
-6914.25
-6914.26
-6914.27
-6914.28
-6914.28
-6914.29
-6914.3
-6914.3
-6914.31
-6914.31
-6914.32
-6914.32
-6914.33
-6914.33
-6914.33
-6914.33
-6914.34
-6914.34
-6914.34
-6914.34
-6914.35
-6914.35
-6914.35
-6914.35
-6914.35
-6914.35
-6914.35
-6914.35
-6914.35
-6914.35
-6914.35
-6914.35
-6914.35
-6914.35
-6914.35
-6914.35
-6914.35
-6914.35
-6914.35
-6914.35
-6914.34
-6914.34
-6914.34
-6914.34
-6914.34
-6914.34
-6914.34
-6914.34
-6914.33
-6914.33
-6914.33
-6914.33
-6914.33
-6914.33
-6914.33
-6914.33
-6914.32
-6914.32
-6914.32
-6914.32
-6914.32
-6914.32
-6914.32
-6914.32
-6914.31
-6914.31
-6914.31
-6914.31
-6914.31
-6914.31
-6914.31
-6914.31
-6914.31
-6914.31
-6914.31
-6914.3
-6914.3
-6914.3
-6914.3
-6914.3
-6914.3
-6914.3
-6914.3
-6914.3
-6914.3
-6914.3
-6914.3
-6914.3
-6914.3
-6914.3
-6914.3
-6914.3
-6914.3
-6914.3
-6914.3
-6914.3
-6914.3
-6914.3
-6914.3
-6914.3
-6914.3
-6914.3
-6914.3
-6914.3
-6914.3
-6914.3
-6914.3
-6914.3
-6914.3
-6914.3
-6914.3
-6914.3
-6914.3
-6914.3
-6914.3
-6914.3
-6914.3
-7354.27
-7354.28
-7354.31
-7354.36
-7354.43
-7354.52
-7354.64
-7354.8
-7355.01
-7355.17
-7355.31
-7355.43
-7355.52
-7355.6
-7355.65
-7355.69
-7355.71
-7355.72
-7355.71
-7355.69
-7355.65
-7355.59
-7355.52
-7355.41
-7355.28
-7355.11
-7354.89
-7354.58
-7354.37
-7354.22
-7354.1
-7353.99
-7353.89
-7353.8
-7353.71
-7353.64
-7353.58
-7353.52
-7353.47
-7353.42
-7353.38
-7353.34
-7353.31
-7353.29
-7353.27
-7353.25
-7353.23
-7353.22
-7353.21
-7353.21
-7353.2
-7353.2
-7353.21
-7353.21
-7353.22
-7353.23
-7353.23
-7353.25
-7353.26
-7353.27
-7353.29
-7353.3
-7353.31
-7353.33
-7353.35
-7353.36
-7353.38
-7353.39
-7353.41
-7353.42
-7353.44
-7353.45
-7353.47
-7353.48
-7353.49
-7353.51
-7353.52
-7353.53
-7353.54
-7353.55
-7353.56
-7353.57
-7353.58
-7353.59
-7353.6
-7353.61
-7353.62
-7353.62
-7353.63
-7353.64
-7353.64
-7353.65
-7353.65
-7353.66
-7353.66
-7353.67
-7353.67
-7353.67
-7353.68
-7353.68
-7353.68
-7353.68
-7353.68
-7353.69
-7353.69
-7353.69
-7353.69
-7353.69
-7353.69
-7353.69
-7353.69
-7353.69
-7353.69
-7353.69
-7353.69
-7353.69
-7353.69
-7353.69
-7353.69
-7353.69
-7353.69
-7353.68
-7353.68
-7353.68
-7353.68
-7353.68
-7353.68
-7353.68
-7353.68
-7353.67
-7353.67
-7353.67
-7353.67
-7353.67
-7353.67
-7353.67
-7353.66
-7353.66
-7353.66
-7353.66
-7353.66
-7353.66
-7353.66
-7353.65
-7353.65
-7353.65
-7353.65
-7353.65
-7353.65
-7353.65
-7353.65
-7353.65
-7353.65
-7353.64
-7353.64
-7353.64
-7353.64
-7353.64
-7353.64
-7353.64
-7353.64
-7353.64
-7353.64
-7353.64
-7353.64
-7353.64
-7353.64
-7353.64
-7353.64
-7353.63
-7353.63
-7353.63
-7353.63
-7353.63
-7353.63
-7353.63
-7353.63
-7353.63
-7353.63
-7353.63
-7353.63
-7353.63
-7353.63
-7353.63
-7353.63
-7353.63
-7353.63
-7353.63
-7353.63
-7353.63
-7353.63
-7353.63
-7353.63
-7353.63
-7353.63
-7353.63
-7353.63
-7353.63
-7353.63
-7353.63
-7743.07
-7743.09
-7743.13
-7743.19
-7743.27
-7743.39
-7743.55
-7743.75
-7744.05
-7744.28
-7744.48
-7744.66
-7744.81
-7744.94
-7745.04
-7745.12
-7745.17
-7745.2
-7745.2
-7745.17
-7745.11
-7745.02
-7744.9
-7744.76
-7744.58
-7744.39
-7744.16
-7743.78
-7743.57
-7743.36
-7743.18
-7743.03
-7742.92
-7742.82
-7742.74
-7742.67
-7742.61
-7742.56
-7742.51
-7742.47
-7742.43
-7742.4
-7742.38
-7742.35
-7742.34
-7742.32
-7742.31
-7742.31
-7742.3
-7742.3
-7742.3
-7742.31
-7742.32
-7742.33
-7742.34
-7742.35
-7742.36
-7742.38
-7742.4
-7742.41
-7742.43
-7742.45
-7742.47
-7742.49
-7742.51
-7742.53
-7742.54
-7742.56
-7742.58
-7742.6
-7742.62
-7742.63
-7742.65
-7742.66
-7742.68
-7742.69
-7742.71
-7742.72
-7742.73
-7742.74
-7742.75
-7742.76
-7742.77
-7742.78
-7742.79
-7742.8
-7742.81
-7742.81
-7742.82
-7742.83
-7742.83
-7742.84
-7742.84
-7742.85
-7742.85
-7742.86
-7742.86
-7742.86
-7742.87
-7742.87
-7742.87
-7742.87
-7742.87
-7742.88
-7742.88
-7742.88
-7742.88
-7742.88
-7742.88
-7742.88
-7742.88
-7742.88
-7742.88
-7742.88
-7742.88
-7742.88
-7742.88
-7742.88
-7742.88
-7742.87
-7742.87
-7742.87
-7742.87
-7742.87
-7742.87
-7742.87
-7742.87
-7742.86
-7742.86
-7742.86
-7742.86
-7742.86
-7742.86
-7742.86
-7742.85
-7742.85
-7742.85
-7742.85
-7742.85
-7742.85
-7742.85
-7742.84
-7742.84
-7742.84
-7742.84
-7742.84
-7742.84
-7742.84
-7742.84
-7742.84
-7742.83
-7742.83
-7742.83
-7742.83
-7742.83
-7742.83
-7742.83
-7742.83
-7742.83
-7742.83
-7742.83
-7742.83
-7742.83
-7742.82
-7742.82
-7742.82
-7742.82
-7742.82
-7742.82
-7742.82
-7742.82
-7742.82
-7742.82
-7742.82
-7742.82
-7742.82
-7742.82
-7742.82
-7742.82
-7742.82
-7742.82
-7742.82
-7742.82
-7742.82
-7742.82
-7742.82
-7742.82
-7742.82
-7742.82
-7742.82
-7742.82
-7742.82
-7742.82
-7742.82
-7742.82
-7742.82
-7742.82
-7742.82
-7742.82
-7742.82
-8087.35
-8087.36
-8087.37
-8087.4
-8087.42
-8087.45
-8087.47
-8087.51
-8087.74
-8087.66
-8087.63
-8087.58
-8087.51
-8087.45
-8087.38
-8087.32
-8087.27
-8087.22
-8087.17
-8087.13
-8087.1
-8087.07
-8087.04
-8087.02
-8087
-8086.99
-8086.98
-8086.97
-8086.97
-8086.97
-8086.98
-8086.99
-8087
-8087.01
-8087.02
-8087.04
-8087.06
-8087.08
-8087.1
-8087.12
-8087.14
-8087.16
-8087.19
-8087.21
-8087.23
-8087.25
-8087.27
-8087.3
-8087.32
-8087.34
-8087.36
-8087.37
-8087.39
-8087.41
-8087.43
-8087.44
-8087.46
-8087.47
-8087.49
-8087.5
-8087.51
-8087.52
-8087.53
-8087.54
-8087.55
-8087.56
-8087.57
-8087.58
-8087.59
-8087.59
-8087.6
-8087.61
-8087.61
-8087.62
-8087.62
-8087.62
-8087.63
-8087.63
-8087.63
-8087.64
-8087.64
-8087.64
-8087.64
-8087.65
-8087.65
-8087.65
-8087.65
-8087.65
-8087.65
-8087.65
-8087.65
-8087.65
-8087.65
-8087.65
-8087.65
-8087.65
-8087.65
-8087.65
-8087.65
-8087.64
-8087.64
-8087.64
-8087.64
-8087.64
-8087.64
-8087.64
-8087.64
-8087.63
-8087.63
-8087.63
-8087.63
-8087.63
-8087.63
-8087.62
-8087.62
-8087.62
-8087.62
-8087.62
-8087.62
-8087.62
-8087.61
-8087.61
-8087.61
-8087.61
-8087.61
-8087.61
-8087.61
-8087.61
-8087.6
-8087.6
-8087.6
-8087.6
-8087.6
-8087.6
-8087.6
-8087.6
-8087.6
-8087.6
-8087.6
-8087.59
-8087.59
-8087.59
-8087.59
-8087.59
-8087.59
-8087.59
-8087.59
-8087.59
-8087.59
-8087.59
-8087.59
-8087.59
-8087.59
-8087.59
-8087.59
-8087.59
-8087.59
-8087.59
-8087.59
-8087.59
-8087.59
-8087.59
-8087.59
-8087.59
-8087.59
-8087.59
-8087.59
-8087.59
-8087.59
-8087.59
-8087.59
-8087.59
-8087.59
-8087.59
-8087.59
-8087.59
-8087.59
-8087.59
-8087.59
-8087.59
-8087.59
-8392.3
-8392.31
-8392.31
-8392.33
-8392.34
-8392.36
-8392.37
-8392.39
-8392.89
-8392.84
-8392.8
-8392.76
-8392.71
-8392.66
-8392.61
-8392.56
-8392.52
-8392.48
-8392.44
-8392.41
-8392.38
-8392.36
-8392.34
-8392.32
-8392.31
-8392.3
-8392.3
-8392.3
-8392.3
-8392.31
-8392.32
-8392.33
-8392.35
-8392.37
-8392.39
-8392.41
-8392.43
-8392.45
-8392.48
-8392.5
-8392.53
-8392.56
-8392.58
-8392.61
-8392.63
-8392.66
-8392.68
-8392.71
-8392.73
-8392.75
-8392.77
-8392.79
-8392.81
-8392.83
-8392.85
-8392.87
-8392.88
-8392.9
-8392.91
-8392.92
-8392.94
-8392.95
-8392.96
-8392.97
-8392.98
-8392.99
-8393
-8393.01
-8393.01
-8393.02
-8393.03
-8393.03
-8393.04
-8393.04
-8393.05
-8393.05
-8393.06
-8393.06
-8393.06
-8393.07
-8393.07
-8393.07
-8393.07
-8393.07
-8393.07
-8393.08
-8393.08
-8393.08
-8393.08
-8393.08
-8393.08
-8393.08
-8393.08
-8393.08
-8393.07
-8393.07
-8393.07
-8393.07
-8393.07
-8393.07
-8393.07
-8393.07
-8393.07
-8393.06
-8393.06
-8393.06
-8393.06
-8393.06
-8393.06
-8393.06
-8393.05
-8393.05
-8393.05
-8393.05
-8393.05
-8393.05
-8393.04
-8393.04
-8393.04
-8393.04
-8393.04
-8393.04
-8393.04
-8393.03
-8393.03
-8393.03
-8393.03
-8393.03
-8393.03
-8393.03
-8393.03
-8393.03
-8393.02
-8393.02
-8393.02
-8393.02
-8393.02
-8393.02
-8393.02
-8393.02
-8393.02
-8393.02
-8393.02
-8393.02
-8393.02
-8393.02
-8393.02
-8393.01
-8393.01
-8393.01
-8393.01
-8393.01
-8393.01
-8393.01
-8393.01
-8393.01
-8393.01
-8393.01
-8393.01
-8393.01
-8393.01
-8393.01
-8393.01
-8393.01
-8393.01
-8393.01
-8393.01
-8393.01
-8393.01
-8393.01
-8393.01
-8393.01
-8393.01
-8393.01
-8393.01
-8393.01
-8393.01
-8393.01
-8393.01
-8393.01
-8393.01
-8662.43
-8662.43
-8662.44
-8662.44
-8662.45
-8662.45
-8662.46
-8662.47
-8663.18
-8663.16
-8663.14
-8663.11
-8663.07
-8663.04
-8663
-8662.96
-8662.93
-8662.89
-8662.86
-8662.84
-8662.81
-8662.8
-8662.78
-8662.77
-8662.76
-8662.76
-8662.76
-8662.77
-8662.78
-8662.79
-8662.81
-8662.82
-8662.84
-8662.87
-8662.89
-8662.92
-8662.95
-8662.98
-8663
-8663.03
-8663.06
-8663.09
-8663.12
-8663.15
-8663.18
-8663.21
-8663.23
-8663.26
-8663.28
-8663.31
-8663.33
-8663.35
-8663.37
-8663.39
-8663.41
-8663.43
-8663.45
-8663.46
-8663.48
-8663.49
-8663.5
-8663.52
-8663.53
-8663.54
-8663.55
-8663.56
-8663.57
-8663.58
-8663.58
-8663.59
-8663.6
-8663.6
-8663.61
-8663.61
-8663.62
-8663.62
-8663.63
-8663.63
-8663.63
-8663.63
-8663.64
-8663.64
-8663.64
-8663.64
-8663.64
-8663.64
-8663.64
-8663.64
-8663.64
-8663.64
-8663.64
-8663.64
-8663.64
-8663.64
-8663.64
-8663.64
-8663.64
-8663.64
-8663.64
-8663.64
-8663.63
-8663.63
-8663.63
-8663.63
-8663.63
-8663.63
-8663.63
-8663.62
-8663.62
-8663.62
-8663.62
-8663.62
-8663.62
-8663.61
-8663.61
-8663.61
-8663.61
-8663.61
-8663.61
-8663.6
-8663.6
-8663.6
-8663.6
-8663.6
-8663.6
-8663.6
-8663.6
-8663.59
-8663.59
-8663.59
-8663.59
-8663.59
-8663.59
-8663.59
-8663.59
-8663.59
-8663.59
-8663.59
-8663.58
-8663.58
-8663.58
-8663.58
-8663.58
-8663.58
-8663.58
-8663.58
-8663.58
-8663.58
-8663.58
-8663.58
-8663.58
-8663.58
-8663.58
-8663.58
-8663.58
-8663.58
-8663.58
-8663.58
-8663.58
-8663.58
-8663.58
-8663.58
-8663.58
-8663.58
-8663.58
-8663.58
-8663.58
-8663.58
-8663.58
-8663.58
-8663.58
-8663.58
-8663.58
-8663.58
-8663.58
-8663.58
-8663.58
-8663.58
-8663.58
-8663.58
-8663.58
-8901.71
-8901.72
-8901.72
-8901.72
-8901.72
-8901.73
-8901.73
-8901.73
-8902.65
-8902.64
-8902.63
-8902.61
-8902.58
-8902.55
-8902.52
-8902.49
-8902.46
-8902.44
-8902.41
-8902.39
-8902.37
-8902.36
-8902.35
-8902.34
-8902.34
-8902.34
-8902.35
-8902.36
-8902.38
-8902.39
-8902.41
-8902.44
-8902.46
-8902.49
-8902.52
-8902.55
-8902.59
-8902.62
-8902.65
-8902.69
-8902.72
-8902.75
-8902.78
-8902.82
-8902.85
-8902.88
-8902.91
-8902.93
-8902.96
-8902.98
-8903.01
-8903.03
-8903.05
-8903.07
-8903.09
-8903.11
-8903.13
-8903.15
-8903.16
-8903.18
-8903.19
-8903.2
-8903.22
-8903.23
-8903.24
-8903.25
-8903.25
-8903.26
-8903.27
-8903.28
-8903.28
-8903.29
-8903.29
-8903.3
-8903.3
-8903.31
-8903.31
-8903.31
-8903.32
-8903.32
-8903.32
-8903.32
-8903.33
-8903.33
-8903.33
-8903.33
-8903.33
-8903.33
-8903.33
-8903.33
-8903.33
-8903.33
-8903.33
-8903.33
-8903.32
-8903.32
-8903.32
-8903.32
-8903.32
-8903.32
-8903.32
-8903.32
-8903.31
-8903.31
-8903.31
-8903.31
-8903.31
-8903.31
-8903.31
-8903.3
-8903.3
-8903.3
-8903.3
-8903.3
-8903.3
-8903.29
-8903.29
-8903.29
-8903.29
-8903.29
-8903.29
-8903.28
-8903.28
-8903.28
-8903.28
-8903.28
-8903.28
-8903.28
-8903.28
-8903.27
-8903.27
-8903.27
-8903.27
-8903.27
-8903.27
-8903.27
-8903.27
-8903.27
-8903.27
-8903.27
-8903.27
-8903.27
-8903.26
-8903.26
-8903.26
-8903.26
-8903.26
-8903.26
-8903.26
-8903.26
-8903.26
-8903.26
-8903.26
-8903.26
-8903.26
-8903.26
-8903.26
-8903.26
-8903.26
-8903.26
-8903.26
-8903.26
-8903.26
-8903.26
-8903.26
-8903.26
-8903.26
-8903.26
-8903.26
-8903.26
-8903.26
-8903.26
-8903.26
-8903.26
-8903.26
-8903.26
-8903.26
-8903.26
-8903.26
-8903.26
-8903.26
-9113.69
-9113.69
-9113.69
-9113.69
-9113.69
-9113.7
-9113.7
-9113.7
-9114.81
-9114.81
-9114.79
-9114.78
-9114.76
-9114.73
-9114.71
-9114.68
-9114.66
-9114.64
-9114.62
-9114.6
-9114.59
-9114.58
-9114.57
-9114.57
-9114.57
-9114.58
-9114.59
-9114.61
-9114.63
-9114.65
-9114.67
-9114.7
-9114.73
-9114.77
-9114.8
-9114.84
-9114.88
-9114.91
-9114.95
-9114.99
-9115.02
-9115.06
-9115.09
-9115.13
-9115.16
-9115.19
-9115.22
-9115.25
-9115.28
-9115.31
-9115.33
-9115.36
-9115.38
-9115.4
-9115.42
-9115.44
-9115.46
-9115.48
-9115.49
-9115.51
-9115.52
-9115.53
-9115.55
-9115.56
-9115.57
-9115.58
-9115.59
-9115.59
-9115.6
-9115.61
-9115.61
-9115.62
-9115.63
-9115.63
-9115.63
-9115.64
-9115.64
-9115.65
-9115.65
-9115.65
-9115.65
-9115.65
-9115.66
-9115.66
-9115.66
-9115.66
-9115.66
-9115.66
-9115.66
-9115.66
-9115.66
-9115.66
-9115.66
-9115.65
-9115.65
-9115.65
-9115.65
-9115.65
-9115.65
-9115.65
-9115.65
-9115.64
-9115.64
-9115.64
-9115.64
-9115.64
-9115.64
-9115.63
-9115.63
-9115.63
-9115.63
-9115.63
-9115.63
-9115.62
-9115.62
-9115.62
-9115.62
-9115.62
-9115.62
-9115.62
-9115.61
-9115.61
-9115.61
-9115.61
-9115.61
-9115.61
-9115.61
-9115.6
-9115.6
-9115.6
-9115.6
-9115.6
-9115.6
-9115.6
-9115.6
-9115.6
-9115.6
-9115.6
-9115.59
-9115.59
-9115.59
-9115.59
-9115.59
-9115.59
-9115.59
-9115.59
-9115.59
-9115.59
-9115.59
-9115.59
-9115.59
-9115.59
-9115.59
-9115.59
-9115.59
-9115.59
-9115.59
-9115.59
-9115.59
-9115.59
-9115.59
-9115.59
-9115.59
-9115.59
-9115.59
-9115.59
-9115.59
-9115.59
-9115.59
-9115.59
-9115.59
-9115.59
-9115.59
-9115.59
-9115.59
-9115.59
-9115.59
-9115.59
-9115.59
-9115.59
-9115.59
-9301.46
-9301.46
-9301.47
-9301.47
-9301.47
-9301.47
-9301.47
-9301.47
-9302.76
-9302.76
-9302.75
-9302.73
-9302.72
-9302.7
-9302.68
-9302.65
-9302.63
-9302.61
-9302.6
-9302.58
-9302.57
-9302.57
-9302.57
-9302.57
-9302.57
-9302.59
-9302.6
-9302.62
-9302.65
-9302.67
-9302.71
-9302.74
-9302.77
-9302.81
-9302.85
-9302.89
-9302.93
-9302.97
-9303.01
-9303.05
-9303.09
-9303.13
-9303.17
-9303.21
-9303.24
-9303.28
-9303.31
-9303.34
-9303.37
-9303.4
-9303.42
-9303.45
-9303.47
-9303.5
-9303.52
-9303.54
-9303.55
-9303.57
-9303.59
-9303.6
-9303.62
-9303.63
-9303.64
-9303.65
-9303.66
-9303.67
-9303.68
-9303.69
-9303.7
-9303.7
-9303.71
-9303.72
-9303.72
-9303.73
-9303.73
-9303.73
-9303.74
-9303.74
-9303.74
-9303.75
-9303.75
-9303.75
-9303.75
-9303.75
-9303.75
-9303.75
-9303.75
-9303.75
-9303.75
-9303.75
-9303.75
-9303.75
-9303.75
-9303.75
-9303.75
-9303.75
-9303.74
-9303.74
-9303.74
-9303.74
-9303.74
-9303.74
-9303.74
-9303.73
-9303.73
-9303.73
-9303.73
-9303.73
-9303.73
-9303.72
-9303.72
-9303.72
-9303.72
-9303.72
-9303.72
-9303.71
-9303.71
-9303.71
-9303.71
-9303.71
-9303.71
-9303.7
-9303.7
-9303.7
-9303.7
-9303.7
-9303.7
-9303.7
-9303.7
-9303.69
-9303.69
-9303.69
-9303.69
-9303.69
-9303.69
-9303.69
-9303.69
-9303.69
-9303.69
-9303.69
-9303.69
-9303.68
-9303.68
-9303.68
-9303.68
-9303.68
-9303.68
-9303.68
-9303.68
-9303.68
-9303.68
-9303.68
-9303.68
-9303.68
-9303.68
-9303.68
-9303.68
-9303.68
-9303.68
-9303.68
-9303.68
-9303.68
-9303.68
-9303.68
-9303.68
-9303.68
-9303.68
-9303.68
-9303.68
-9303.68
-9303.68
-9303.68
-9303.68
-9303.68
-9303.68
-9303.68
-9303.68
-9303.68
-9303.68
-9303.68
-9303.68
-9467.81
-9467.81
-9467.81
-9467.81
-9467.81
-9467.81
-9467.81
-9467.81
-9469.27
-9469.26
-9469.25
-9469.24
-9469.22