/*--------------------------------*- C++ -*----------------------------------*\
  =========                 |
  \\      /  F ield         | OpenFOAM: The Open Source CFD Toolbox
   \\    /   O peration     | Website:  https://openfoam.org
    \\  /    A nd           | Version:  12
     \\/     M anipulation  |
\*---------------------------------------------------------------------------*/
FoamFile
{
    format      ascii;
    class       volScalarField;
    location    "1";
    object      p_rgh;
}
// * * * * * * * * * * * * * * * * * * * * * * * * * * * * * * * * * * * * * //

dimensions      [1 -1 -2 0 0 0 0];

internalField   nonuniform List<scalar> 
3829
(
-0.793885
-0.793517
-0.792768
-0.791626
-0.790077
-0.788107
-0.785702
-0.782849
-0.779533
-0.775741
-0.771458
-0.766672
-0.761369
-0.755538
-0.749166
-0.742243
-0.73476
-0.726708
-0.718079
-0.708869
-0.699075
-0.688696
-0.677734
-0.666195
-0.654086
-0.641418
-0.628208
-0.614472
-0.600233
-0.585515
-0.570346
-0.554758
-0.538784
-0.522461
-0.505829
-0.48893
-0.471811
-0.454521
-0.43711
-0.419629
-0.402128
-0.384656
-0.367264
-0.349998
-0.332905
-0.316028
-0.29949
-0.283325
-0.267553
-0.252203
-0.237303
-0.222886
-0.208978
-0.195608
-0.182799
-0.170574
-0.158955
-0.147957
-0.137596
-0.127882
-0.118822
-0.110421
-0.102679
-0.095594
-0.0891601
-0.0833681
-0.0782062
-0.0736606
-0.0697157
-0.0663535
-0.0635528
-0.0612918
-0.0595475
-0.0582944
-0.0575067
-0.0571582
-0.0572212
-0.0576677
-0.0584697
-0.0595985
-0.0610258
-0.0627237
-0.0646641
-0.0668199
-0.0691641
-0.0716712
-0.0743156
-0.0770729
-0.0799201
-0.082835
-0.0857965
-0.0887846
-0.0917801
-0.0947657
-0.097725
-0.100643
-0.103504
-0.106298
-0.109011
-0.111633
-0.114153
-0.116566
-0.118866
-0.121045
-0.123099
-0.125022
-0.126812
-0.128467
-0.129984
-0.131363
-0.132603
-0.133707
-0.134674
-0.135507
-0.136207
-0.136779
-0.137225
-0.137549
-0.137755
-0.137847
-0.137833
-0.137717
-0.137503
-0.137197
-0.136801
-0.136324
-0.135768
-0.135141
-0.134447
-0.133693
-0.132883
-0.132023
-0.131119
-0.130175
-0.129197
-0.12819
-0.127158
-0.126106
-0.125039
-0.123961
-0.122875
-0.121787
-0.120699
-0.119614
-0.118537
-0.11747
-0.116416
-0.115377
-0.114356
-0.113355
-0.112376
-0.11142
-0.11049
-0.109585
-0.108707
-0.107857
-0.107035
-0.106243
-0.105479
-0.104744
-0.104039
-0.103363
-0.102716
-0.102099
-0.10151
-0.100949
-0.100417
-0.0999123
-0.0994355
-0.0989861
-0.0985637
-0.098168
-0.0977985
-0.0974549
-0.0971363
-0.0968421
-0.0965715
-0.0963237
-0.0960978
-0.0958934
-0.0957099
-0.0955472
-0.0954053
-0.0952843
-0.0951844
-0.0951056
-0.0950473
-0.0950083
-0.0949865
-0.094979
-0.0949821
-0.0949915
-0.0950029
-0.0950125
-0.0950178
-0.0950174
-0.0950119
-0.0950033
-0.0949949
-0.0949897
-0.827256
-0.826879
-0.826112
-0.824939
-0.823346
-0.821315
-0.818829
-0.815869
-0.812416
-0.80845
-0.803952
-0.798901
-0.793278
-0.787063
-0.780239
-0.772786
-0.764687
-0.755929
-0.746496
-0.736379
-0.725572
-0.714072
-0.70188
-0.689002
-0.67545
-0.661241
-0.646397
-0.630943
-0.614913
-0.598341
-0.58127
-0.563742
-0.545805
-0.527511
-0.508914
-0.490073
-0.47105
-0.451908
-0.432707
-0.413508
-0.39437
-0.375352
-0.356508
-0.337896
-0.319567
-0.301573
-0.284137
-0.267155
-0.250664
-0.234703
-0.219305
-0.2045
-0.190319
-0.176786
-0.163923
-0.151749
-0.14028
-0.129527
-0.119497
-0.110191
-0.101609
-0.0937467
-0.086597
-0.0801501
-0.0743919
-0.0693063
-0.0648746
-0.0610764
-0.0578895
-0.0552896
-0.0532504
-0.0517453
-0.0507464
-0.0502243
-0.0501496
-0.0504918
-0.0512208
-0.0523064
-0.0537182
-0.0554263
-0.0574013
-0.0596145
-0.0620371
-0.0646418
-0.0674025
-0.0702939
-0.0732911
-0.07637
-0.0795088
-0.0826866
-0.0858834
-0.0890804
-0.0922598
-0.0954059
-0.0985036
-0.101539
-0.1045
-0.107374
-0.110151
-0.112815
-0.115373
-0.117812
-0.120125
-0.122306
-0.124353
-0.126261
-0.128029
-0.129655
-0.131139
-0.13248
-0.133679
-0.134738
-0.135659
-0.136443
-0.137094
-0.137614
-0.138009
-0.138281
-0.138435
-0.138473
-0.138418
-0.138257
-0.137998
-0.137646
-0.137207
-0.136687
-0.136091
-0.135426
-0.134696
-0.133907
-0.133065
-0.132175
-0.131243
-0.130273
-0.129271
-0.128241
-0.127189
-0.126119
-0.125035
-0.123941
-0.122842
-0.121742
-0.120643
-0.119549
-0.118464
-0.11739
-0.116331
-0.115287
-0.114263
-0.113259
-0.112278
-0.111322
-0.110391
-0.109487
-0.10861
-0.107761
-0.106942
-0.106151
-0.10539
-0.104658
-0.103956
-0.103283
-0.102639
-0.102024
-0.101438
-0.10088
-0.100351
-0.099849
-0.0993747
-0.0989278
-0.0985078
-0.0981147
-0.0977479
-0.0974069
-0.0970911
-0.0967997
-0.0965317
-0.0962863
-0.0960626
-0.0958599
-0.0956778
-0.0955161
-0.095375
-0.0952549
-0.0951561
-0.0950789
-0.095023
-0.0949872
-0.0949697
-0.094967
-0.0949752
-0.0949895
-0.095005
-0.0950174
-0.0950236
-0.0950224
-0.0950145
-0.0950029
-0.0949917
-0.0949849
-0.883821
-0.883467
-0.882742
-0.881631
-0.880111
-0.878159
-0.875747
-0.872844
-0.869417
-0.86543
-0.860845
-0.855624
-0.849729
-0.843121
-0.83576
-0.82761
-0.818632
-0.808793
-0.798065
-0.786424
-0.773854
-0.760348
-0.745907
-0.730542
-0.714272
-0.69713
-0.679155
-0.660395
-0.640909
-0.620759
-0.600017
-0.578756
-0.557054
-0.534998
-0.512679
-0.490188
-0.467618
-0.445054
-0.422578
-0.400272
-0.37821
-0.356466
-0.335109
-0.314202
-0.293827
-0.274222
-0.255171
-0.236811
-0.219177
-0.202301
-0.18621
-0.17093
-0.156483
-0.142884
-0.130148
-0.118278
-0.107281
-0.0971506
-0.0878788
-0.0794525
-0.0718562
-0.0650722
-0.0590789
-0.0538528
-0.049367
-0.0455928
-0.0424995
-0.0400555
-0.0382286
-0.0369851
-0.0362896
-0.036107
-0.0364014
-0.0371376
-0.0382809
-0.0397969
-0.041651
-0.0438104
-0.0462422
-0.0489141
-0.051796
-0.0548581
-0.058072
-0.0614105
-0.0648481
-0.068361
-0.0719257
-0.07552
-0.0791242
-0.0827193
-0.0862875
-0.0898126
-0.0932789
-0.0966732
-0.099983
-0.103197
-0.106304
-0.109295
-0.112162
-0.114903
-0.117509
-0.119975
-0.122297
-0.124472
-0.126498
-0.128373
-0.130097
-0.13167
-0.133092
-0.134364
-0.13549
-0.136471
-0.13731
-0.13801
-0.138575
-0.13901
-0.139318
-0.139504
-0.139576
-0.139545
-0.139399
-0.139154
-0.138814
-0.138386
-0.137873
-0.137283
-0.13662
-0.13589
-0.1351
-0.134255
-0.133359
-0.13242
-0.131441
-0.130428
-0.129386
-0.12832
-0.127234
-0.126133
-0.125022
-0.123903
-0.122782
-0.121662
-0.120546
-0.119437
-0.118339
-0.117254
-0.116185
-0.115135
-0.114104
-0.113097
-0.112113
-0.111155
-0.110224
-0.109321
-0.108447
-0.107601
-0.106785
-0.105998
-0.105241
-0.104514
-0.103816
-0.103148
-0.102509
-0.101899
-0.101318
-0.100765
-0.100241
-0.0997433
-0.0992733
-0.0988304
-0.0984146
-0.0980256
-0.0976631
-0.0973267
-0.0970156
-0.0967289
-0.0964654
-0.0962242
-0.0960041
-0.0958044
-0.0956246
-0.0954645
-0.0953245
-0.0952054
-0.0951082
-0.0950335
-0.0949815
-0.0949513
-0.0949409
-0.0949467
-0.094964
-0.094987
-0.0950098
-0.095027
-0.0950349
-0.0950318
-0.0950193
-0.0950019
-0.0949857
-0.0949757
-0.954449
-0.954229
-0.953774
-0.95306
-0.952055
-0.950715
-0.948991
-0.946823
-0.944146
-0.940886
-0.936968
-0.932312
-0.926839
-0.92046
-0.913085
-0.904627
-0.895003
-0.884139
-0.87197
-0.858447
-0.843537
-0.827222
-0.809506
-0.790413
-0.769989
-0.748298
-0.725426
-0.701476
-0.676563
-0.650808
-0.624343
-0.597308
-0.569842
-0.542101
-0.51423
-0.48637
-0.458647
-0.431178
-0.404075
-0.377441
-0.351374
-0.325961
-0.30129
-0.277444
-0.254483
-0.232792
-0.212035
-0.192273
-0.173543
-0.155874
-0.13929
-0.123806
-0.10943
-0.0961632
-0.0839987
-0.0729211
-0.0629112
-0.0539429
-0.0459874
-0.0390117
-0.0329806
-0.0278571
-0.0236009
-0.0201706
-0.0175217
-0.0156103
-0.0143918
-0.0138206
-0.0138511
-0.0144377
-0.0155349
-0.0170993
-0.0190882
-0.02146
-0.0241745
-0.0271916
-0.0304735
-0.0339849
-0.0376909
-0.0415585
-0.0455574
-0.049659
-0.0538351
-0.0580608
-0.062312
-0.0665672
-0.0708054
-0.0750075
-0.0791565
-0.0832367
-0.0872337
-0.0911343
-0.0949258
-0.0985982
-0.10214
-0.105549
-0.108802
-0.11192
-0.114885
-0.117692
-0.120337
-0.122819
-0.125136
-0.127287
-0.129272
-0.131092
-0.132748
-0.134243
-0.135578
-0.136757
-0.137783
-0.138659
-0.13939
-0.13998
-0.140434
-0.140756
-0.140951
-0.141021
-0.140965
-0.140843
-0.140602
-0.140257
-0.139819
-0.139294
-0.13869
-0.138011
-0.137264
-0.136456
-0.135591
-0.134674
-0.133713
-0.132712
-0.131676
-0.130609
-0.129518
-0.128407
-0.12728
-0.126142
-0.124996
-0.123847
-0.122699
-0.121555
-0.120417
-0.119291
-0.118177
-0.117079
-0.115999
-0.114939
-0.113902
-0.112889
-0.111903
-0.110944
-0.110013
-0.109112
-0.10824
-0.107399
-0.106587
-0.105806
-0.105054
-0.104333
-0.103641
-0.102979
-0.102347
-0.101743
-0.101168
-0.100622
-0.100103
-0.0996112
-0.0991464
-0.0987084
-0.0982975
-0.0979136
-0.0975566
-0.0972261
-0.0969211
-0.0966404
-0.0963828
-0.096147
-0.0959316
-0.0957357
-0.0955586
-0.0954002
-0.0952612
-0.095143
-0.0950471
-0.0949752
-0.0949279
-0.0949048
-0.0949037
-0.0949208
-0.0949502
-0.0949851
-0.0950179
-0.0950418
-0.0950517
-0.0950458
-0.0950263
-0.0950001
-0.0949766
-0.0949621
-1.02804
-1.02821
-1.02854
-1.029
-1.02952
-1.03004
-1.03045
-1.03063
-1.03043
-1.02971
-1.0283
-1.02601
-1.02268
-1.0181
-1.0121
-1.00447
-0.995068
-0.98373
-0.970334
-0.954783
-0.937011
-0.916991
-0.894736
-0.8703
-0.843786
-0.815344
-0.785163
-0.753467
-0.72049
-0.686471
-0.651652
-0.616305
-0.580708
-0.545109
-0.509723
-0.474735
-0.440314
-0.406608
-0.373755
-0.341872
-0.311064
-0.281407
-0.252975
-0.225799
-0.200998
-0.177275
-0.154906
-0.133952
-0.114444
-0.0963982
-0.0798151
-0.0646842
-0.0509848
-0.0386842
-0.0277429
-0.0181152
-0.00975403
-0.00260638
0.00338248
0.00827074
0.0121175
0.0149833
0.0169308
0.0180211
0.018316
0.0178771
0.0167657
0.0150412
0.0127628
0.00998699
0.00676616
0.00315188
-0.000804396
-0.00505604
-0.00955905
-0.0142701
-0.0191497
-0.0241618
-0.0292714
-0.0344458
-0.0396566
-0.0448769
-0.0500816
-0.0552479
-0.0603551
-0.0653855
-0.070322
-0.0751487
-0.079853
-0.0844232
-0.0888494
-0.0931223
-0.0972326
-0.101181
-0.1049
-0.108496
-0.111907
-0.115132
-0.11817
-0.12102
-0.123682
-0.126157
-0.128445
-0.130548
-0.132469
-0.134211
-0.135777
-0.137171
-0.138397
-0.13946
-0.140365
-0.141117
-0.141721
-0.142183
-0.142508
-0.142704
-0.142776
-0.142734
-0.142596
-0.142311
-0.141936
-0.14147
-0.140918
-0.140285
-0.139578
-0.138801
-0.137961
-0.137064
-0.136116
-0.135123
-0.134088
-0.133019
-0.13192
-0.130795
-0.12965
-0.12849
-0.127317
-0.126138
-0.124955
-0.123773
-0.122595
-0.121425
-0.120265
-0.119119
-0.117988
-0.116876
-0.115784
-0.114715
-0.113671
-0.112653
-0.111664
-0.110704
-0.109775
-0.108876
-0.108008
-0.107171
-0.106365
-0.10559
-0.104845
-0.104131
-0.103446
-0.102791
-0.102165
-0.101569
-0.101002
-0.100462
-0.0999499
-0.0994643
-0.0990051
-0.0985723
-0.0981666
-0.0977882
-0.0974374
-0.0971136
-0.0968156
-0.0965421
-0.0962913
-0.0960617
-0.0958518
-0.0956602
-0.0954861
-0.0953292
-0.0951907
-0.0950726
-0.0949776
-0.0949081
-0.0948659
-0.0948507
-0.0948606
-0.0948911
-0.0949354
-0.0949849
-0.0950301
-0.0950621
-0.0950745
-0.0950645
-0.0950353
-0.094997
-0.0949639
-0.0949442
-1.09024
-1.09129
-1.09339
-1.0965
-1.10053
-1.10534
-1.11073
-1.11644
-1.12218
-1.1276
-1.13231
-1.13591
-1.13801
-1.13822
-1.1362
-1.13159
-1.1241
-1.11344
-1.0994
-1.0818
-1.06054
-1.03558
-1.00697
-0.974827
-0.939368
-0.900897
-0.859794
-0.816505
-0.771526
-0.725393
-0.678666
-0.631828
-0.585283
-0.539368
-0.494362
-0.450505
-0.408011
-0.367049
-0.327769
-0.290294
-0.25472
-0.221186
-0.189704
-0.16033
-0.132877
-0.107368
-0.0838478
-0.062314
-0.0427438
-0.0251006
-0.00933531
0.00461281
0.016813
0.0273387
0.0362658
0.0436748
0.0496454
0.0542613
0.0576076
0.0597703
0.0608355
0.060887
0.0600077
0.0582811
0.0557882
0.0526073
0.048814
0.0444807
0.0396759
0.0344649
0.028909
0.0230657
0.0169913
0.0107348
0.0043412
-0.00214451
-0.0086834
-0.0152411
-0.0217838
-0.0282818
-0.0347102
-0.0410458
-0.0472668
-0.0533547
-0.0592937
-0.0650709
-0.0706735
-0.0760904
-0.0813135
-0.0863367
-0.0911536
-0.0957654
-0.100122
-0.104297
-0.108247
-0.11198
-0.115496
-0.118792
-0.121871
-0.124735
-0.127385
-0.129825
-0.132058
-0.13409
-0.135923
-0.137565
-0.13902
-0.140293
-0.141392
-0.142323
-0.143091
-0.143704
-0.144168
-0.144489
-0.144674
-0.144729
-0.144661
-0.144473
-0.144193
-0.143795
-0.143298
-0.142711
-0.142042
-0.141297
-0.140481
-0.139602
-0.138666
-0.137678
-0.136643
-0.135569
-0.134459
-0.13332
-0.132156
-0.130972
-0.129771
-0.12856
-0.127341
-0.126119
-0.124898
-0.123682
-0.122475
-0.121279
-0.120096
-0.118931
-0.117783
-0.116657
-0.115553
-0.114474
-0.113422
-0.1124
-0.111408
-0.110448
-0.109521
-0.108626
-0.107763
-0.106931
-0.106132
-0.105364
-0.104626
-0.103918
-0.103241
-0.102593
-0.101975
-0.101387
-0.100827
-0.100295
-0.0997904
-0.0993113
-0.0988576
-0.0984298
-0.098029
-0.0976563
-0.0973119
-0.0969954
-0.0967052
-0.0964395
-0.0961962
-0.0959735
-0.0957696
-0.0955827
-0.0954116
-0.0952559
-0.0951171
-0.0949982
-0.0949031
-0.0948355
-0.0947982
-0.0947915
-0.0948134
-0.094859
-0.0949202
-0.0949867
-0.0950465
-0.0950882
-0.0951032
-0.0950879
-0.0950464
-0.0949921
-0.0949474
-0.0949222
-1.12093
-1.12377
-1.12949
-1.13803
-1.14924
-1.16286
-1.17851
-1.19567
-1.21373
-1.232
-1.24964
-1.26578
-1.27961
-1.29035
-1.29731
-1.29989
-1.29758
-1.28993
-1.27659
-1.25723
-1.23166
-1.19973
-1.16147
-1.11705
-1.06685
-1.01155
-0.952083
-0.88973
-0.825963
-0.761863
-0.698336
-0.636019
-0.575363
-0.516713
-0.460348
-0.406487
-0.355289
-0.306874
-0.261333
-0.218696
-0.17899
-0.142199
-0.10837
-0.0776723
-0.048994
-0.0229254
0.000540939
0.0214726
0.039958
0.0560987
0.0700036
0.081783
0.0915478
0.0994128
0.105491
0.109896
0.112745
0.114152
0.114233
0.113101
0.110864
0.107631
0.103509
0.0985987
0.0929978
0.0867981
0.0800874
0.0729463
0.0654529
0.05768
0.0496922
0.0415503
0.033312
0.0250262
0.0167369
0.0084874
0.00031382
-0.00775303
-0.015684
-0.0234534
-0.0310412
-0.0384289
-0.0456002
-0.0525426
-0.0592453
-0.0657012
-0.0719028
-0.0778444
-0.0835224
-0.0889374
-0.0940708
-0.0989533
-0.103567
-0.10792
-0.112013
-0.115849
-0.119432
-0.122764
-0.125851
-0.128696
-0.131305
-0.133684
-0.135838
-0.137775
-0.139501
-0.141023
-0.142349
-0.143488
-0.144446
-0.145232
-0.145853
-0.146318
-0.146633
-0.146806
-0.146845
-0.146757
-0.14655
-0.146238
-0.145802
-0.145269
-0.144644
-0.143934
-0.143146
-0.142287
-0.141364
-0.140382
-0.139349
-0.138269
-0.137149
-0.135995
-0.13481
-0.133602
-0.132374
-0.13113
-0.129875
-0.128613
-0.127349
-0.126085
-0.124827
-0.123578
-0.122341
-0.12112
-0.119916
-0.118732
-0.117569
-0.116429
-0.115313
-0.114225
-0.113166
-0.112139
-0.111146
-0.110186
-0.109262
-0.108371
-0.107513
-0.106688
-0.105896
-0.105135
-0.104404
-0.103705
-0.103035
-0.102394
-0.101784
-0.101203
-0.100652
-0.100128
-0.0996309
-0.0991583
-0.0987098
-0.0982864
-0.0978901
-0.0975226
-0.0971848
-0.096876
-0.0965941
-0.0963367
-0.0961013
-0.0958858
-0.0956883
-0.0955064
-0.0953383
-0.0951833
-0.0950433
-0.0949224
-0.0948261
-0.0947597
-0.0947269
-0.0947288
-0.0947635
-0.0948254
-0.0949053
-0.0949908
-0.0950671
-0.0951199
-0.0951379
-0.095116
-0.0950592
-0.094985
-0.0949273
-0.0948964
-1.09343
-1.09914
-1.11067
-1.12803
-1.1511
-1.17958
-1.21292
-1.25036
-1.29029
-1.33028
-1.36863
-1.40392
-1.43477
-1.46001
-1.47874
-1.49028
-1.49404
-1.48961
-1.47661
-1.45476
-1.42384
-1.38367
-1.33414
-1.27522
-1.20716
-1.13068
-1.04713
-0.958741
-0.869938
-0.783258
-0.69959
-0.619308
-0.542621
-0.469891
-0.401467
-0.337511
-0.278069
-0.223088
-0.17244
-0.126002
-0.0836321
-0.0451469
-0.0103841
0.0209033
0.0490652
0.0740356
0.0959223
0.114861
0.130999
0.144486
0.155469
0.164099
0.170524
0.174892
0.177354
0.178058
0.177152
0.174779
0.171081
0.166199
0.160264
0.153406
0.145751
0.137414
0.128506
0.119132
0.109385
0.0993537
0.0891217
0.0787648
0.068348
0.0579312
0.0475715
0.0373142
0.0271992
0.017266
0.00754527
-0.00193799
-0.0111599
-0.0201009
-0.0287474
-0.0370877
-0.0451112
-0.0528118
-0.060185
-0.0672307
-0.0739457
-0.0803349
-0.0863728
-0.0921104
-0.0975233
-0.102622
-0.107409
-0.111893
-0.11608
-0.119975
-0.123586
-0.126919
-0.129981
-0.13278
-0.135322
-0.137616
-0.13967
-0.141493
-0.143094
-0.144482
-0.145668
-0.14666
-0.147469
-0.148103
-0.148572
-0.148883
-0.149047
-0.14907
-0.148961
-0.148726
-0.148374
-0.147918
-0.147351
-0.146687
-0.145936
-0.145105
-0.144201
-0.143231
-0.142202
-0.14112
-0.139992
-0.138824
-0.137621
-0.136389
-0.135132
-0.133857
-0.132567
-0.131267
-0.12996
-0.12865
-0.127342
-0.126038
-0.124744
-0.123463
-0.122199
-0.120954
-0.119731
-0.118529
-0.117352
-0.116199
-0.115072
-0.113975
-0.112909
-0.111878
-0.110883
-0.109925
-0.109004
-0.108118
-0.107267
-0.106449
-0.105663
-0.10491
-0.104187
-0.103495
-0.102832
-0.102199
-0.101596
-0.101023
-0.10048
-0.0999652
-0.0994758
-0.0990096
-0.0985658
-0.0981459
-0.0977531
-0.0973904
-0.0970592
-0.0967584
-0.0964853
-0.0962364
-0.096009
-0.0958009
-0.0956101
-0.0954335
-0.0952684
-0.0951136
-0.0949714
-0.0948474
-0.0947487
-0.0946826
-0.0946538
-0.0946643
-0.094712
-0.094791
-0.0948909
-0.094997
-0.0950915
-0.0951568
-0.0951781
-0.0951484
-0.0950733
-0.0949754
-0.0949038
-0.0948672
-0.976954
-0.987751
-1.00969
-1.04304
-1.08791
-1.14415
-1.21102
-1.28682
-1.36915
-1.45169
-1.53155
-1.60512
-1.66967
-1.72372
-1.76681
-1.79824
-1.8172
-1.82282
-1.81429
-1.79082
-1.75169
-1.69637
-1.62463
-1.5365
-1.43197
-1.31197
-1.18011
-1.04029
-0.906445
-0.782762
-0.668942
-0.565009
-0.470429
-0.384508
-0.306486
-0.235597
-0.171269
-0.113008
-0.0602901
-0.0128305
0.029776
0.0678025
0.101527
0.131299
0.157314
0.179718
0.198697
0.214439
0.227133
0.23696
0.244105
0.248747
0.251069
0.251256
0.249487
0.245939
0.240788
0.234208
0.226366
0.217423
0.207533
0.196844
0.185493
0.173612
0.161321
0.148728
0.135936
0.123035
0.110108
0.0972326
0.0844695
0.0718752
0.0595026
0.0473911
0.0355738
0.0240843
0.0129464
0.00217748
-0.00820586
-0.0181914
-0.0277737
-0.036948
-0.0457101
-0.0540611
-0.0619967
-0.0695367
-0.0766627
-0.083409
-0.0897677
-0.0957498
-0.101363
-0.106617
-0.111521
-0.116086
-0.120321
-0.124235
-0.127839
-0.131142
-0.134152
-0.13688
-0.139334
-0.141525
-0.143462
-0.145157
-0.146621
-0.147866
-0.148902
-0.149742
-0.150396
-0.150876
-0.15119
-0.151349
-0.151361
-0.151236
-0.150981
-0.150603
-0.150116
-0.149517
-0.148818
-0.148027
-0.147154
-0.146205
-0.145189
-0.144113
-0.142982
-0.141805
-0.140587
-0.139334
-0.138052
-0.136746
-0.135421
-0.134083
-0.132735
-0.131382
-0.130026
-0.128671
-0.127321
-0.125979
-0.12465
-0.123339
-0.12205
-0.120784
-0.119543
-0.118327
-0.117137
-0.115972
-0.114835
-0.113729
-0.112656
-0.111621
-0.110625
-0.10967
-0.108753
-0.107873
-0.107028
-0.106217
-0.105439
-0.104693
-0.103978
-0.103293
-0.102638
-0.102011
-0.101415
-0.100849
-0.100315
-0.0998094
-0.0993283
-0.0988683
-0.0984284
-0.0980109
-0.0976206
-0.0972621
-0.0969373
-0.0966449
-0.0963808
-0.0961405
-0.0959211
-0.0957204
-0.0955364
-0.0953654
-0.0952033
-0.0950482
-0.0949029
-0.0947744
-0.0946722
-0.0946055
-0.0945802
-0.094599
-0.0946598
-0.0947564
-0.0948771
-0.095005
-0.0951192
-0.095198
-0.0952231
-0.0951849
-0.0950887
-0.094963
-0.0948771
-0.0948354
-0.731325
-0.746597
-0.778049
-0.827129
-0.895956
-0.987855
-1.10649
-1.25962
-1.4701
-1.63708
-1.77622
-1.89222
-1.98658
-2.06118
-2.1166
-2.15387
-2.1744
-2.17974
-2.17107
-2.14867
-2.11139
-2.05647
-1.97982
-1.87666
-1.74214
-1.57462
-1.35135
-1.0408
-0.830705
-0.682369
-0.559901
-0.449023
-0.349652
-0.259283
-0.177945
-0.105053
-0.0398598
0.0183401
0.070066
0.115929
0.156348
0.191785
0.2226
0.249135
0.271605
0.290228
0.305225
0.31681
0.325191
0.330575
0.333176
0.3332
0.330859
0.32636
0.319916
0.311734
0.302015
0.290958
0.278754
0.265581
0.251613
0.237011
0.221924
0.206494
0.190845
0.175091
0.159333
0.143662
0.128159
0.112896
0.0979281
0.0833059
0.0690749
0.0552663
0.0419044
0.0290148
0.0166127
0.00470697
-0.0066939
-0.0175848
-0.0279714
-0.0378557
-0.047237
-0.0561392
-0.0645005
-0.0724493
-0.079926
-0.086952
-0.0935389
-0.0997012
-0.105453
-0.110806
-0.115777
-0.120377
-0.124622
-0.128522
-0.132091
-0.135338
-0.138275
-0.140914
-0.143263
-0.145337
-0.147145
-0.148703
-0.150022
-0.151117
-0.152001
-0.152686
-0.153185
-0.153509
-0.153671
-0.15368
-0.153545
-0.153276
-0.15288
-0.152366
-0.151742
-0.151012
-0.150187
-0.149275
-0.148285
-0.147225
-0.146102
-0.144924
-0.143698
-0.142431
-0.141128
-0.139796
-0.13844
-0.137065
-0.135676
-0.134279
-0.132878
-0.131475
-0.130075
-0.128678
-0.127289
-0.125911
-0.12455
-0.123211
-0.121899
-0.120614
-0.119358
-0.11813
-0.116928
-0.115753
-0.114606
-0.11349
-0.112411
-0.111372
-0.110376
-0.109424
-0.108512
-0.107639
-0.106801
-0.105997
-0.105226
-0.104487
-0.10378
-0.103103
-0.102454
-0.101833
-0.101242
-0.100684
-0.100159
-0.0996627
-0.0991901
-0.0987362
-0.0982993
-0.0978829
-0.0974939
-0.0971389
-0.0968206
-0.0965368
-0.096282
-0.0960502
-0.0958384
-0.0956449
-0.095468
-0.0953029
-0.0951438
-0.0949881
-0.0948387
-0.0947045
-0.0945977
-0.0945296
-0.0945073
-0.094534
-0.0946077
-0.094722
-0.0948639
-0.0950145
-0.0951495
-0.0952429
-0.0952722
-0.0952247
-0.0951058
-0.0949471
-0.0948476
-0.0948018
-0.350791
-0.368703
-0.406153
-0.465683
-0.550881
-0.6682
-0.824472
-1.02688
-1.3228
-1.55517
-1.75993
-1.93689
-2.08773
-2.21412
-2.31666
-2.39518
-2.44877
-2.47588
-2.47481
-2.44429
-2.38398
-2.29454
-2.17706
-2.03211
-1.85903
-1.66493
-1.43262
-1.05593
-0.844081
-0.636974
-0.452803
-0.30856
-0.191464
-0.0961227
-0.0158893
0.0533256
0.113766
0.166887
0.213645
0.254771
0.290663
0.321656
0.348038
0.37007
0.38797
0.401943
0.412201
0.418959
0.422432
0.422847
0.420429
0.415413
0.408037
0.398539
0.387155
0.374119
0.35966
0.344
0.327349
0.309904
0.29185
0.273364
0.254601
0.235708
0.216813
0.198028
0.179452
0.161172
0.143263
0.125789
0.108798
0.0923299
0.0764215
0.0610939
0.0463611
0.0322391
0.0187335
0.00584371
-0.00642706
-0.0180802
-0.0291429
-0.0396243
-0.0494795
-0.0588145
-0.0675882
-0.0758368
-0.0835691
-0.0907995
-0.0975472
-0.103829
-0.109665
-0.11507
-0.120064
-0.124664
-0.128887
-0.132746
-0.136257
-0.13943
-0.142279
-0.144815
-0.14705
-0.148997
-0.15067
-0.152085
-0.153256
-0.154199
-0.154928
-0.155459
-0.155805
-0.155979
-0.155992
-0.155857
-0.155582
-0.155176
-0.154647
-0.154003
-0.15325
-0.152395
-0.15145
-0.150424
-0.149324
-0.148159
-0.146937
-0.145664
-0.144348
-0.142996
-0.141615
-0.140209
-0.138785
-0.137346
-0.135898
-0.134447
-0.132996
-0.13155
-0.130108
-0.128674
-0.127248
-0.125836
-0.124445
-0.12308
-0.121747
-0.120447
-0.119178
-0.11794
-0.116728
-0.115543
-0.114387
-0.113262
-0.112176
-0.111134
-0.110138
-0.10919
-0.108285
-0.107418
-0.106587
-0.105789
-0.105025
-0.104294
-0.103595
-0.102925
-0.102282
-0.101666
-0.10108
-0.100529
-0.100012
-0.0995261
-0.0990624
-0.0986144
-0.0981796
-0.097763
-0.0973741
-0.0970219
-0.0967099
-0.0964351
-0.0961897
-0.0959662
-0.0957617
-0.0955749
-0.095405
-0.0952461
-0.0950903
-0.0949335
-0.0947792
-0.0946383
-0.094526
-0.0944559
-0.094436
-0.0944701
-0.0945563
-0.0946882
-0.0948514
-0.095025
-0.0951816
-0.0952904
-0.0953243
-0.0952653
-0.0951225
-0.0949314
-0.0948159
-0.0947673
0.138648
0.131319
0.116795
0.0958352
0.0697078
0.0409745
0.0172623
-0.0158379
-0.247862
-0.17313
-0.136464
-0.0836258
-0.0190999
0.0454914
0.109183
0.169642
0.225308
0.275773
0.321024
0.361101
0.396158
0.426427
0.452081
0.473281
0.490194
0.502995
0.511852
0.516955
0.51851
0.516738
0.511877
0.504175
0.49389
0.481287
0.466632
0.450191
0.432222
0.412982
0.392713
0.371642
0.349985
0.327936
0.30568
0.28338
0.261182
0.239212
0.217582
0.196382
0.175692
0.155579
0.136098
0.117284
0.0991668
0.0817728
0.0651105
0.0491833
0.0339963
0.0195445
0.00581804
-0.00718716
-0.0194532
-0.0310698
-0.0420122
-0.0523071
-0.0619802
-0.0710439
-0.0795248
-0.0874415
-0.0948144
-0.101666
-0.108017
-0.113891
-0.119309
-0.124293
-0.128863
-0.133039
-0.136838
-0.140275
-0.143362
-0.146113
-0.148539
-0.150652
-0.152468
-0.154003
-0.155272
-0.156294
-0.157086
-0.157665
-0.158045
-0.158242
-0.15827
-0.158142
-0.15787
-0.157462
-0.156928
-0.156275
-0.155508
-0.154634
-0.153663
-0.152606
-0.151472
-0.15027
-0.149008
-0.147693
-0.146332
-0.144933
-0.143504
-0.14205
-0.140577
-0.139089
-0.137592
-0.136089
-0.134589
-0.133094
-0.131608
-0.13013
-0.128661
-0.127202
-0.125758
-0.124338
-0.122949
-0.121598
-0.120284
-0.119006
-0.117759
-0.11654
-0.115346
-0.11418
-0.113047
-0.111953
-0.110907
-0.109913
-0.108969
-0.108071
-0.107212
-0.106388
-0.105596
-0.104839
-0.104115
-0.103423
-0.10276
-0.102122
-0.101511
-0.100929
-0.100384
-0.0998762
-0.0994001
-0.0989456
-0.0985034
-0.0980698
-0.0976515
-0.0972615
-0.0969115
-0.0966058
-0.0963402
-0.0961045
-0.0958889
-0.0956909
-0.0955104
-0.0953476
-0.0951952
-0.0950428
-0.0948846
-0.0947247
-0.0945761
-0.0944576
-0.0943849
-0.094367
-0.0944081
-0.0945062
-0.0946553
-0.0948394
-0.0950362
-0.0952147
-0.0953397
-0.0953786
-0.0953077
-0.0951389
-0.0949141
-0.0947823
-0.0947328
0.613787
0.609775
0.60182
0.5906
0.576508
0.560992
0.547389
0.527561
0.0253599
0.0725444
0.112287
0.156927
0.207389
0.257059
0.305741
0.352355
0.396098
0.436555
0.473292
0.506082
0.53472
0.559101
0.579192
0.595016
0.606635
0.614182
0.617765
0.61756
0.613768
0.606619
0.596364
0.583277
0.567644
0.54976
0.529922
0.508425
0.485556
0.461596
0.436807
0.411435
0.385705
0.359823
0.333977
0.308332
0.283035
0.258206
0.233948
0.210346
0.187467
0.165368
0.144092
0.123662
0.104095
0.0854054
0.0675893
0.0506379
0.0345452
0.0192961
0.0048655
-0.00877872
-0.0214554
-0.0335566
-0.0448945
-0.0555141
-0.0654489
-0.0747258
-0.0833737
-0.0914171
-0.0988801
-0.105789
-0.112169
-0.118045
-0.123444
-0.12839
-0.132909
-0.137021
-0.140745
-0.144098
-0.147093
-0.14974
-0.152053
-0.154044
-0.155727
-0.157122
-0.158247
-0.159122
-0.159767
-0.160199
-0.160434
-0.160489
-0.160379
-0.160117
-0.159716
-0.159186
-0.158533
-0.157764
-0.156883
-0.155898
-0.154818
-0.153657
-0.152423
-0.151127
-0.149775
-0.148374
-0.146932
-0.145457
-0.143956
-0.142436
-0.140902
-0.139357
-0.137805
-0.136253
-0.134707
-0.133173
-0.131651
-0.130142
-0.128642
-0.127152
-0.125678
-0.124231
-0.12282
-0.121452
-0.120128
-0.118842
-0.117589
-0.116364
-0.115163
-0.113988
-0.112845
-0.111744
-0.110694
-0.109701
-0.108763
-0.107873
-0.107021
-0.106204
-0.105418
-0.104666
-0.103949
-0.103265
-0.102609
-0.101976
-0.101367
-0.100789
-0.100249
-0.0997502
-0.0992848
-0.0988399
-0.0984032
-0.09797
-0.0975486
-0.0971562
-0.0968079
-0.0965084
-0.0962524
-0.0960264
-0.0958181
-0.0956261
-0.0954512
-0.0952954
-0.09515
-0.095001
-0.0948413
-0.0946751
-0.094518
-0.0943927
-0.0943173
-0.094301
-0.0943486
-0.0944579
-0.0946234
-0.0948279
-0.0950476
-0.0952484
-0.0953898
-0.0954342
-0.0953514
-0.095155
-0.0948951
-0.0947473
-0.094699
1.05199
1.04988
1.04574
1.04004
1.03306
1.02601
1.02063
1.01247
0.297528
0.318533
0.343444
0.37156
0.406596
0.44373
0.481586
0.518729
0.554184
0.587175
0.617164
0.643754
0.666626
0.685549
0.700376
0.711032
0.717513
0.719886
0.718252
0.71277
0.703649
0.691133
0.675499
0.657048
0.636102
0.61299
0.588042
0.561586
0.533936
0.505397
0.476251
0.446759
0.417155
0.387652
0.35844
0.329681
0.301519
0.274067
0.247418
0.221646
0.196805
0.172941
0.150082
0.128238
0.107412
0.087608
0.0688075
0.0509893
0.0341392
0.0182299
0.00323629
-0.0108452
-0.0240459
-0.0364658
-0.0480922
-0.0589525
-0.0690801
-0.078508
-0.087269
-0.0953917
-0.102904
-0.109833
-0.116209
-0.12206
-0.127415
-0.132304
-0.136755
-0.140791
-0.144434
-0.147698
-0.150597
-0.15314
-0.15534
-0.157208
-0.158761
-0.160018
-0.161002
-0.161735
-0.162238
-0.162529
-0.162627
-0.162547
-0.162306
-0.161919
-0.161399
-0.160755
-0.159993
-0.159119
-0.158133
-0.157045
-0.155864
-0.154606
-0.15328
-0.151898
-0.150464
-0.148985
-0.147468
-0.145923
-0.144357
-0.142777
-0.141188
-0.139591
-0.13799
-0.136392
-0.134805
-0.133235
-0.131683
-0.130146
-0.128619
-0.127101
-0.125598
-0.124125
-0.122694
-0.121312
-0.119979
-0.118688
-0.117431
-0.116201
-0.114993
-0.113809
-0.112657
-0.111548
-0.110495
-0.109504
-0.108572
-0.107689
-0.106846
-0.106035
-0.105254
-0.104507
-0.103797
-0.10312
-0.102471
-0.101842
-0.101236
-0.10066
-0.100125
-0.0996342
-0.0991798
-0.0987448
-0.0983136
-0.0978799
-0.097454
-0.0970583
-0.0967111
-0.0964178
-0.0961716
-0.0959555
-0.0957538
-0.0955671
-0.0953971
-0.0952483
-0.09511
-0.0949647
-0.0948033
-0.0946303
-0.0944641
-0.0943317
-0.0942533
-0.0942382
-0.0942919
-0.0944116
-0.0945928
-0.094817
-0.0950591
-0.0952818
-0.0954401
-0.0954903
-0.0953957
-0.0951704
-0.0948747
-0.0947113
-0.0946665
1.44866
1.44753
1.44533
1.44234
1.43872
1.43522
1.43236
1.42887
0.509435
0.51896
0.537575
0.557705
0.583284
0.611385
0.640888
0.670571
0.699341
0.726303
0.75076
0.77216
0.790073
0.804169
0.814221
0.82009
0.821728
0.81916
0.812487
0.801877
0.787549
0.769776
0.748867
0.725163
0.699022
0.670814
0.640904
0.609654
0.577405
0.544487
0.511198
0.477812
0.444572
0.411691
0.379361
0.347739
0.316961
0.287131
0.258331
0.23062
0.204041
0.178625
0.154385
0.131317
0.109411
0.0886581
0.0690269
0.0504843
0.0330051
0.0165603
0.00111733
-0.0133699
-0.0269261
-0.039614
-0.0514598
-0.062496
-0.0727598
-0.0822887
-0.0911197
-0.0992846
-0.106813
-0.113736
-0.120084
-0.125888
-0.131182
-0.135999
-0.140371
-0.144325
-0.147881
-0.151056
-0.15386
-0.156302
-0.158391
-0.16014
-0.161565
-0.162689
-0.163536
-0.164132
-0.1645
-0.164659
-0.164627
-0.164421
-0.164057
-0.163554
-0.162925
-0.162178
-0.16132
-0.160347
-0.159266
-0.158081
-0.156807
-0.155459
-0.15405
-0.152589
-0.151081
-0.14953
-0.147946
-0.146336
-0.144711
-0.143078
-0.141439
-0.139795
-0.13815
-0.13651
-0.134885
-0.133284
-0.131706
-0.130145
-0.128594
-0.12705
-0.12552
-0.124022
-0.122572
-0.121178
-0.119839
-0.118545
-0.117285
-0.116052
-0.114838
-0.113645
-0.112483
-0.111366
-0.110309
-0.10932
-0.108395
-0.107521
-0.106687
-0.105881
-0.105104
-0.104362
-0.103658
-0.102989
-0.102346
-0.101721
-0.101116
-0.100541
-0.10001
-0.0995277
-0.0990848
-0.0986598
-0.0982341
-0.097799
-0.0973676
-0.0969676
-0.0966211
-0.0963339
-0.0960977
-0.0958914
-0.0956957
-0.0955136
-0.0953476
-0.0952058
-0.0950749
-0.0949334
-0.0947702
-0.0945902
-0.0944143
-0.0942746
-0.0941933
-0.0941789
-0.0942384
-0.0943677
-0.0945637
-0.0948065
-0.0950702
-0.0953146
-0.0954897
-0.0955461
-0.0954401
-0.095185
-0.0948531
-0.0946748
-0.0946359
1.80332
1.80266
1.80139
1.79968
1.79763