/*--------------------------------*- C++ -*----------------------------------*\
  =========                 |
  \\      /  F ield         | OpenFOAM: The Open Source CFD Toolbox
   \\    /   O peration     | Website:  https://openfoam.org
    \\  /    A nd           | Version:  12
     \\/     M anipulation  |
\*---------------------------------------------------------------------------*/
FoamFile
{
    format      ascii;
    class       surfaceScalarField;
    location    "1";
    object      phi;
}
// * * * * * * * * * * * * * * * * * * * * * * * * * * * * * * * * * * * * * //

dimensions      [1 0 -1 0 0 0 0];

internalField   nonuniform List<scalar> 
7429
(
5.25148e-05
-5.25148e-05
0.000105757
-5.32423e-05
0.0001595
-5.37432e-05
0.000213687
-5.41862e-05
0.000268255
-5.45683e-05
0.000323141
-5.48864e-05
0.000378278
-5.51364e-05
0.000433591
-5.53138e-05
0.000489011
-5.54194e-05
0.000544462
-5.54516e-05
0.000599857
-5.53945e-05
0.000655111
-5.52542e-05
0.000710146
-5.5035e-05
0.000764862
-5.47157e-05
0.000819163
-5.43015e-05
0.000872948
-5.37841e-05
0.000926104
-5.31569e-05
0.00097853
-5.24258e-05
0.00103012
-5.15854e-05
0.00108075
-5.06366e-05
0.00113033
-4.95805e-05
0.00117875
-4.84193e-05
0.00122591
-4.71572e-05
0.00127171
-4.57986e-05
0.00131606
-4.43485e-05
0.00135886
-4.28034e-05
0.00140004
-4.11803e-05
0.00143952
-3.94819e-05
0.00147724
-3.77143e-05
0.00151312
-3.58834e-05
0.0015471
-3.39841e-05
0.00157918
-3.20799e-05
0.00160929
-3.01031e-05
0.00163728
-2.79888e-05
0.00166311
-2.58381e-05
0.00168679
-2.36736e-05
0.0017083
-2.15093e-05
0.00172765
-1.93565e-05
0.00174487
-1.7216e-05
0.00175994
-1.50724e-05
0.00177285
-1.29057e-05
0.00178357
-1.07199e-05
0.00179208
-8.5142e-06
0.00179837
-6.28755e-06
0.0018024
-4.0346e-06
0.0018041
-1.70098e-06
0.001803
1.10909e-06
0.00179925
3.74407e-06
0.00179295
6.29613e-06
0.00178415
8.80501e-06
0.00177287
1.1281e-05
0.00175915
1.37233e-05
0.00174301
1.61324e-05
0.00172451
1.85052e-05
0.00170367
2.08348e-05
0.00168055
2.31239e-05
0.0016552
2.53484e-05
0.00162767
2.75306e-05
0.00159804
2.96346e-05
0.00156635
3.16869e-05
0.00153271
3.36344e-05
0.00149722
3.54975e-05
0.00145996
3.72538e-05
0.00142107
3.88907e-05
0.00138065
4.04179e-05
0.00133884
4.18133e-05
0.00129576
4.3086e-05
0.00125153
4.42205e-05
0.00120633
4.52067e-05
0.00116029
4.60401e-05
0.00111354
4.67451e-05
0.00106627
4.72767e-05
0.0010186
4.76663e-05
0.000970658
4.79414e-05
0.000922589
4.80695e-05
0.000874574
4.80148e-05
0.000826712
4.78617e-05
0.000779147
4.75657e-05
0.000732018
4.7129e-05
0.000685446
4.65715e-05
0.000639526
4.592e-05
0.000594386
4.51398e-05
0.000550122
4.42643e-05
0.000506844
4.3278e-05
0.00046462
4.22236e-05
0.000423526
4.10944e-05
0.000383627
3.9899e-05
0.000344991
3.86359e-05
0.000307679
3.73123e-05
0.00027172
3.5959e-05
0.000237161
3.45587e-05
0.000204036
3.31247e-05
0.000172367
3.16692e-05
0.00014216
3.02066e-05
0.000113449
2.87113e-05
8.62132e-05
2.7236e-05
6.04683e-05
2.57449e-05
3.62024e-05
2.4266e-05
1.33993e-05
2.2803e-05
-7.98359e-06
2.13829e-05
-2.79395e-05
1.99559e-05
-4.64981e-05
1.85586e-05
-6.36738e-05
1.71757e-05
-7.95164e-05
1.58426e-05
-9.40496e-05
1.45332e-05
-0.000107321
1.32712e-05
-0.000119365
1.20441e-05
-0.000130225
1.08598e-05
-0.000139942
9.71722e-06
-0.000148558
8.6165e-06
-0.00015613
7.57122e-06
-0.000162694
6.56484e-06
-0.000168305
5.61041e-06
-0.000173007
4.70201e-06
-0.000176843
3.83658e-06
-0.000179868
3.02439e-06
-0.000182126
2.25852e-06
-0.000183661
1.53423e-06
-0.000184518
8.57877e-07
-0.000184751
2.32098e-07
-0.000184423
-3.2741e-07
-0.00018356
-8.62887e-07
-0.0001822
-1.36021e-06
-0.000180382
-1.81827e-06
-0.000178145
-2.23636e-06
-0.00017553
-2.61581e-06
-0.000172571
-2.95827e-06
-0.000169308
-3.26327e-06
-0.000165774
-3.53366e-06
-0.000162004
-3.77021e-06
-0.000158031
-3.97285e-06
-0.000153886
-4.14498e-06
-0.000149599
-4.28749e-06
-0.000145198
-4.40119e-06
-0.000140708
-4.48925e-06
-0.000136157
-4.5519e-06
-0.000131566
-4.59093e-06
-0.000126956
-4.60962e-06
-0.000122347
-4.60896e-06
-0.000117757
-4.58994e-06
-0.000113202
-4.55487e-06
-0.000108697
-4.50523e-06
-0.000104254
-4.44303e-06
-9.98864e-05
-4.36754e-06
-9.56051e-05
-4.28137e-06
-9.14181e-05
-4.18695e-06
-8.73351e-05
-4.08301e-06
-8.3363e-05
-3.97206e-06
-7.95071e-05
-3.85592e-06
-7.57724e-05
-3.73478e-06
-7.21619e-05
-3.6105e-06
-6.86771e-05
-3.48475e-06
-6.53195e-05
-3.35759e-06
-6.20892e-05
-3.23033e-06
-5.89853e-05
-3.10386e-06
-5.60081e-05
-2.97723e-06
-5.3156e-05
-2.85213e-06
-5.04283e-05
-2.72766e-06
-4.78251e-05
-2.6032e-06
-4.53446e-05
-2.48047e-06
-4.29868e-05
-2.35778e-06
-4.07496e-05
-2.2373e-06
-3.86315e-05
-2.11807e-06
-3.66301e-05
-2.0014e-06
-3.47429e-05
-1.88715e-06
-3.29668e-05
-1.77616e-06
-3.12987e-05
-1.66807e-06
-2.97357e-05
-1.56297e-06
-2.82737e-05
-1.46206e-06
-2.69081e-05
-1.3656e-06
-2.56336e-05
-1.27444e-06
-2.44441e-05
-1.18949e-06
-2.33325e-05
-1.1117e-06
-2.22911e-05
-1.04131e-06
-2.13124e-05
-9.78793e-07
-2.03886e-05
-9.23723e-07
-1.95121e-05
-8.76515e-07
-1.86748e-05
-8.37262e-07
-1.78681e-05
-8.06774e-07
-1.70818e-05
-7.86289e-07
-1.63039e-05
-7.779e-07
-1.55216e-05
-7.82247e-07
-1.47219e-05
-7.99729e-07
-1.38926e-05
-8.29327e-07
-1.30246e-05
-8.68031e-07
-1.21126e-05
-9.11994e-07
-1.11557e-05
-9.56848e-07
-1.01581e-05
-9.97634e-07
-9.12883e-06
-1.02925e-06
-8.0817e-06
-1.04713e-06
-7.03229e-06
-1.04941e-06
-5.99934e-06
-1.03295e-06
-5.00406e-06
-9.95277e-07
-4.06699e-06
-9.37069e-07
-3.20535e-06
-8.61647e-07
-2.42966e-06
-7.75685e-07
-1.73913e-06
-6.90534e-07
-1.12084e-06
-6.18287e-07
-5.49517e-07
-5.71322e-07
-5.49517e-07
5.14116e-05
-0.000103926
0.000103514
-0.000105345
0.000156074
-0.000106303
0.000209018
-0.00010713
0.000262267
-0.000107817
0.000315738
-0.000108357
0.000369351
-0.000108749
0.000423019
-0.000108982
0.000476663
-0.000109064
0.00053021
-0.000108998
0.000583551
-0.000108736
0.0006366
-0.000108303
0.000689254
-0.000107689
0.000741416
-0.000106877
0.000792979
-0.000105865
0.000843834
-0.000104639
0.000893864
-0.000103187
0.00094296
-0.000101521
0.00099101
-9.96362e-05
0.00103791
-9.754e-05
0.00108357
-9.52403e-05
0.0011279
-9.27489e-05
0.00117083
-9.00824e-05
0.00121227
-8.72393e-05
0.00125215
-8.42302e-05
0.00129043
-8.10776e-05
0.00132701
-7.77699e-05
0.00136188
-7.43478e-05
0.00139499
-7.08214e-05
0.0014263
-6.71944e-05
0.00145585
-6.35361e-05
0.00148356
-5.97914e-05
0.00150927
-5.58107e-05
0.00153301
-5.17293e-05
0.00155481
-4.76345e-05
0.00157468
-4.35457e-05
0.00159265
-3.9483e-05
0.00160875
-3.54563e-05
0.00162297
-3.14317e-05
0.00163527
-2.73703e-05
0.00164561
-2.32498e-05
0.00165398
-1.90893e-05
0.00166027
-1.48081e-05
0.00166452
-1.05309e-05
0.00166659
-6.11216e-06
0.00166626
-1.36798e-06
0.00166336
4.01062e-06
0.00165814
8.96119e-06
0.00165062
1.38218e-05
0.0016408
1.86273e-05
0.00162869
2.33876e-05
0.00161431
2.8097e-05
0.00159769
3.27535e-05
0.00157885
3.73495e-05
0.00155781
4.18697e-05
0.00153462
4.6316e-05
0.00150934
5.06337e-05
0.00148201
5.48569e-05
0.00145273
5.89164e-05
0.00142156
6.28596e-05
0.0013886
6.65874e-05
0.00135397
7.01335e-05
0.00131777
7.34518e-05
0.00128013
7.65311e-05
0.00124116
7.93838e-05
0.00120101
8.19664e-05
0.0011598
8.42993e-05
0.00111768
8.63379e-05
0.00107483
8.80607e-05
0.00103134
8.95295e-05
0.000987326
9.07547e-05
0.00094297
9.16326e-05
0.000898426
9.22106e-05
0.000853811
9.25567e-05
0.000809298
9.25822e-05
0.000764978
9.23348e-05
0.000720985
9.18552e-05
0.000677435
9.11153e-05
0.000634421
9.01434e-05
0.000592081
8.89107e-05
0.00055049
8.75111e-05
0.000509757
8.58731e-05
0.000469932
8.40894e-05
0.000431071
8.21384e-05
0.000393292
8.00031e-05
0.000356636
7.77502e-05
0.000321205
7.53304e-05
0.000286977
7.28636e-05
0.000254
7.0289e-05
0.000222357
6.76023e-05
0.000192001
6.4915e-05
0.000163004
6.21211e-05
0.000135342
5.93317e-05
0.000109048
5.65005e-05
8.41171e-05
5.36421e-05
6.05337e-05
5.08194e-05
3.82698e-05
4.80088e-05
1.73611e-05
4.51747e-05
-2.25557e-06
4.24197e-05
-2.05585e-05
3.96858e-05
-3.75941e-05
3.69916e-05
-5.33903e-05
3.43547e-05
-6.79641e-05
3.17495e-05
-8.13669e-05
2.92454e-05
-9.36156e-05
2.67819e-05
-0.000104749
2.44046e-05
-0.000114815
2.21097e-05
-0.000123845
1.98898e-05
-0.000131872
1.77441e-05
-0.000138964
1.57088e-05
-0.000145131
1.37382e-05
-0.000150429
1.18629e-05
-0.000154902
1.00837e-05
-0.000158589
8.3885e-06
-0.000161547
6.795e-06
-0.000163807
5.28386e-06
-0.000165408
3.86011e-06
-0.000166397
2.52313e-06
-0.000166801
1.2618e-06
-0.000166685
1.15604e-07
-0.000166079
-9.32749e-07
-0.000165015
-1.9272e-06
-0.000163529
-2.84643e-06
-0.000161656
-3.69135e-06
-0.000159431
-4.46119e-06
-0.000156888
-5.15888e-06
-0.000154058
-5.78766e-06
-0.000150975
-6.34654e-06
-0.000147668
-6.84093e-06
-0.000144166
-7.27217e-06
-0.000140499
-7.64e-06
-0.000136693
-7.95089e-06
-0.000132774
-8.2064e-06
-0.000128767
-8.40809e-06
-0.000124694
-8.56196e-06
-0.000120578
-8.66853e-06
-0.000116437
-8.73123e-06
-0.000112291
-8.75638e-06
-0.000108154
-8.74591e-06
-0.000104042
-8.70167e-06
-9.99687e-05
-8.62806e-06
-9.59461e-05
-8.52778e-06
-9.19846e-05
-8.40454e-06
-8.80954e-05
-8.2568e-06
-8.42873e-05
-8.08938e-06
-8.05676e-05
-7.90674e-06
-7.69442e-05
-7.70637e-06
-7.34233e-05
-7.49299e-06
-7.00091e-05
-7.27008e-06
-6.67058e-05
-7.03808e-06
-6.35156e-05
-6.80067e-06
-6.04392e-05
-6.56115e-06
-5.74771e-05
-6.31973e-06
-5.46285e-05
-6.07888e-06
-5.18922e-05
-5.84019e-06
-4.92678e-05
-5.60165e-06
-4.67538e-05
-5.36616e-06
-4.43496e-05
-5.13185e-06
-4.20554e-05
-4.89736e-06
-3.987e-05
-4.66585e-06
-3.77936e-05
-4.43418e-06
-3.58243e-05
-4.20665e-06
-3.39608e-05
-3.98158e-06
-3.22006e-05
-3.76158e-06
-3.05418e-05
-3.54592e-06
-2.89813e-05
-3.33669e-06
-2.75165e-05
-3.13281e-06
-2.61453e-05
-2.93426e-06
-2.48639e-05
-2.74339e-06
-2.36688e-05
-2.56077e-06
-2.2555e-05
-2.38817e-06
-2.15169e-05
-2.22759e-06
-2.05476e-05
-2.08098e-06
-1.96401e-05
-1.94879e-06
-1.87873e-05
-1.83165e-06
-1.79826e-05
-1.72844e-06
-1.72195e-05
-1.6396e-06
-1.64916e-05
-1.56514e-06
-1.57918e-05
-1.50662e-06
-1.51111e-05
-1.46698e-06
-1.44383e-05
-1.45068e-06
-1.3761e-05
-1.4595e-06
-1.30662e-05
-1.49456e-06
-1.23413e-05
-1.55423e-06
-1.1577e-05
-1.63229e-06
-1.07682e-05
-1.72079e-06
-9.91432e-06
-1.81076e-06
-9.01971e-06
-1.89225e-06
-8.09338e-06
-1.95558e-06
-7.14886e-06
-1.99164e-06
-6.20084e-06
-1.99743e-06
-5.26713e-06
-1.96667e-06
-4.36852e-06
-1.89389e-06
-3.5258e-06
-1.77979e-06
-2.75738e-06
-1.63007e-06
-2.0752e-06
-1.45786e-06
-1.47847e-06
-1.28727e-06
-9.52525e-07
-1.14423e-06
-4.68732e-07
-1.05512e-06
-1.01825e-06
5.422e-05
-0.000158146
0.000109113
-0.000160238
0.00016441
-0.0001616
0.000219983
-0.000162703
0.000275691
-0.000163525
0.000331435
-0.000164101
0.00038714
-0.000164454
0.00044264
-0.000164482
0.000497815
-0.00016424
0.000552588
-0.000163771
0.000606851
-0.000162998
0.000660472
-0.000161923
0.000713398
-0.000160615
0.000765478
-0.000158958
0.000816562
-0.000156949
0.000866488
-0.000154565
0.000915137
-0.000151836
0.000962399
-0.000148783
0.00100817
-0.000145409
0.00105237
-0.000141739
0.00109492
-0.000137793
0.00113577
-0.000133591
0.00117484
-0.000129161
0.00121211
-0.000124505
0.00124755
-0.000119674
0.00128111
-0.000114636
0.00131282
-0.000109479
0.00134266
-0.000104185
0.00137061
-9.87761e-05
0.00139679
-9.33737e-05
0.00142116
-8.79029e-05
0.00144369
-8.23204e-05
0.00146436
-7.64774e-05
0.0014833
-7.06738e-05
0.00150062
-6.49589e-05
0.00151638
-5.93028e-05
0.00153061
-5.37084e-05
0.00154327
-4.81225e-05
0.0015543
-4.24595e-05
0.00156364
-3.67101e-05
0.00157126
-3.08743e-05
0.00157708
-2.49012e-05
0.00158105
-1.87783e-05
0.00158277
-1.22537e-05
0.00158235
-5.69698e-06
0.0015791
1.88869e-06
0.00157391
9.20038e-06
0.00156654
1.63264e-05
0.00155698
2.33868e-05
0.0015452
3.0403e-05
0.00153121
3.73848e-05
0.00151498
4.43197e-05
0.00149654
5.1195e-05
0.0014759
5.79882e-05
0.00145311
6.46598e-05
0.00142821
7.12191e-05
0.00140126
7.75791e-05
0.00137233
8.37882e-05
0.00134155
8.97021e-05
0.00130899
9.54134e-05
0.0012748
0.000100781
0.00123909
0.000105844
0.001202
0.000110542
0.00116367
0.000114859
0.00112425
0.0001188
0.00108393
0.000122292
0.00104278
0.000125447
0.00100097
0.000128151
0.000958646
0.00013038
0.000916006
0.00013217
0.000873182
0.000133579
0.000830341
0.000134473
0.00078759
0.000134962
0.000745023
0.000135124
0.00070273
0.000134875
0.0006609
0.000134165
0.000619605
0.00013315
0.000578967
0.000131754
0.000539099
0.000130011
0.000500088
0.000127922
0.00046201
0.000125589
0.000424913
0.000122971
0.000388872
0.00012013
0.000353924
0.000117086
0.000320077
0.000113849
0.000287417
0.000110411
0.000255986
0.000106761
0.000225807
0.000103043
0.000196874
9.92215e-05
0.000169217
9.52592e-05
0.000142841
9.12917e-05
0.000117753
8.72085e-05
9.39436e-05
8.31414e-05
7.13828e-05
7.90613e-05
5.00862e-05
7.49387e-05
3.00458e-05
7.08598e-05
1.12292e-05
6.68254e-05
-6.40163e-06
6.28055e-05
-2.28456e-05
5.88636e-05
-3.81185e-05
5.49587e-05
-5.223e-05
5.11031e-05
-6.52307e-05
4.73555e-05
-7.71954e-05
4.37143e-05
-8.8087e-05
4.0137e-05
-9.8006e-05
3.67009e-05
-0.000106956
3.33545e-05
-0.000114969
3.0123e-05
-0.000122094
2.70151e-05
-0.000128358
2.40073e-05
-0.00013381
2.11612e-05
-0.000138485
1.84136e-05
-0.000142423
1.58003e-05
-0.000145663
1.33236e-05
-0.000148255
1.09808e-05
-0.000150206
8.74619e-06
-0.000151582
6.66007e-06
-0.000152413
4.69085e-06
-0.000152718
2.82815e-06
-0.000152556
1.10005e-06
-0.000151985
-4.56129e-07
-0.000150986
-1.93135e-06
-0.00014961
-3.3036e-06
-0.000147888
-4.56838e-06
-0.000145851
-5.72849e-06
-0.000143529
-6.78324e-06
-0.00014095
-7.73727e-06
-0.000138142
-8.59537e-06
-0.000135133
-9.35586e-06
-0.000131948
-1.00265e-05
-0.000128611
-1.0609e-05
-0.000125148
-1.11025e-05
-0.000121583
-1.15165e-05
-0.000117936
-1.18527e-05
-0.000114231
-1.21137e-05
-0.000110485
-1.23078e-05
-0.000106717
-1.24362e-05
-0.000102945
-1.25037e-05
-9.91815e-05
-1.25197e-05
-9.54404e-05
-1.2487e-05
-9.17338e-05
-1.24083e-05
-8.80721e-05
-1.22898e-05
-8.44647e-05
-1.21352e-05
-8.09196e-05
-1.19496e-05
-7.74461e-05
-1.17303e-05
-7.40515e-05
-1.1484e-05
-7.07415e-05
-1.12167e-05
-6.75233e-05
-1.09246e-05
-6.44019e-05
-1.06144e-05
-6.13811e-05
-1.02909e-05
-5.84639e-05
-9.95525e-06
-5.56517e-05
-9.61291e-06
-5.29438e-05
-9.26896e-06
-5.03396e-05
-8.92401e-06
-4.78369e-05
-8.58156e-06
-4.54335e-05
-8.24361e-06
-4.31283e-05
-7.90681e-06
-4.09198e-05
-7.57464e-06
-3.88078e-05
-7.24391e-06
-3.67928e-05
-6.91232e-06
-3.48744e-05
-6.58424e-06
-3.30531e-05
-6.25546e-06
-3.13276e-05
-5.93224e-06
-2.9696e-05
-5.61316e-06
-2.81561e-05
-5.30142e-06
-2.67057e-05
-4.99637e-06
-2.53423e-05
-4.70006e-06
-2.40638e-05
-4.41134e-06
-2.28684e-05
-4.12967e-06
-2.17536e-05
-3.85816e-06
-2.07164e-05
-3.59795e-06
-1.97527e-05
-3.35188e-06
-1.88568e-05
-3.12353e-06
-1.80216e-05
-2.91612e-06
-1.72402e-05
-2.73027e-06
-1.65056e-05
-2.56625e-06
-1.58123e-05
-2.42172e-06
-1.51555e-05
-2.29641e-06
-1.45306e-05
-2.18997e-06
-1.39326e-05
-2.10465e-06
-1.33536e-05
-2.04597e-06
-1.27829e-05
-2.02137e-06
-1.22077e-05
-2.03478e-06
-1.16136e-05
-2.08861e-06
-1.0987e-05
-2.18083e-06
-1.03174e-05
-2.30194e-06
-9.59937e-06
-2.43879e-06
-8.83287e-06
-2.57725e-06
-8.0235e-06
-2.70162e-06
-7.18049e-06
-2.79859e-06
-6.31794e-06
-2.8542e-06
-5.44988e-06
-2.86549e-06
-4.59357e-06
-2.82297e-06
-3.77033e-06
-2.71713e-06
-3.00274e-06
-2.54738e-06
-2.31323e-06
-2.31958e-06
-1.71713e-06
-2.05396e-06
-1.21325e-06
-1.79115e-06
-7.82718e-07
-1.57476e-06
-3.90589e-07
-1.44724e-06
-1.40884e-06
6.11264e-05
-0.000219273
0.00012288
-0.000221992
0.000184937
-0.000223657
0.000247131
-0.000224897
0.00030926
-0.000225654
0.00037102
-0.000225861
0.000432273
-0.000225707
0.000492682
-0.00022489
0.000552267
-0.000223825
0.00061069
-0.000222194
0.000667838
-0.000220147
0.00072373
-0.000217815
0.000778059
-0.000214945
0.000830661
-0.00021156
0.000881293
-0.00020758
0.000929855
-0.000203127
0.000976244
-0.000198225
0.00102039
-0.000192925
0.00106228
-0.000187302
0.00110194
-0.000181402
0.00113941
-0.000175263
0.00117474
-0.000168919
0.00120798
-0.000162406
0.00123921
-0.000155734
0.00126847
-0.000148936
0.00129583
-0.00014199
0.00132129
-0.000134945
0.00134494
-0.00012783
0.00136701
-0.000120842
0.00138746
-0.000113823
0.0014061
-0.000106543
0.00142288
-9.91032e-05
0.00143831
-9.19086e-05
0.0014526
-8.49595e-05
0.00146582
-7.81834e-05
0.00147802
-7.1505e-05
0.00148912
-6.48109e-05
0.00149899
-5.79873e-05
0.00150749
-5.09642e-05
0.0015145
-4.372e-05
0.00151995
-3.63211e-05
0.00152363
-2.8577e-05
0.00152542
-2.05741e-05
0.00152549
-1.23229e-05
0.00152257
-2.77425e-06
0.00151731
7.14504e-06
0.00151003
1.64847e-05
0.00150059
2.5764e-05
0.00148893
3.50461e-05
0.001475
4.43345e-05
0.00145876
5.36202e-05
0.00144023
6.28551e-05
0.0014194
7.20288e-05
0.00139628
8.11006e-05
0.00137094
9.00043e-05
0.00134344
9.87165e-05
0.00131391
0.000107109
0.00128246
0.000115242
0.00124922
0.000122944
0.00121432
0.000130309
0.00117793
0.000137173
0.00114019
0.000143582
0.00110128
0.00014945
0.00106143
0.000154708
0.00102072
0.000159511
0.000979302
0.000163713
0.000937409
0.00016734
0.000895206
0.000170354
0.000852827
0.000172759
0.000810514
0.000174483
0.000768291
0.000175802
0.000726249
0.000176514
0.000684605
0.000176607
0.000643457
0.000176271
0.000602957
0.000175376
0.000563208
0.000173913
0.000524277
0.000172081
0.00048627
0.000169761
0.000449235
0.000167046
0.000413228
0.00016393
0.000378304
0.000160512
0.000344543
0.000156732
0.000311898
0.000152776
0.000280473
0.000148511
0.000250297
0.000144025
0.000221418
0.000139291
0.000193719
0.000134459
0.000167281
0.000129481
0.000142155
0.000124348
0.000118198
0.000119216
9.55314e-05
0.000113959
7.40363e-05
0.000108704
5.38214e-05
0.000103356
3.47696e-05
9.8113e-05
1.68693e-05
9.2839e-05
1.15034e-07
8.76141e-05
-1.54906e-05
8.2431e-05
-2.99656e-05
7.72805e-05
-4.33832e-05
7.22812e-05
-5.57841e-05
6.73596e-05
-6.72018e-05
6.25208e-05
-7.76249e-05
5.77786e-05
-8.71107e-05
5.32e-05
-9.56905e-05
4.87168e-05
-0.000103407
4.44178e-05
-0.00011029
4.02369e-05
-0.000116376
3.62093e-05
-0.000121697
3.23359e-05
-0.000126295
2.86058e-05
-0.000130206
2.50723e-05
-0.000133478
2.16856e-05
-0.000136135
1.84564e-05
-0.000138216
1.54054e-05
-0.000139718
1.24821e-05
-0.00014074
9.76857e-06
-0.000141273
7.19348e-06
-0.000141359
4.77606e-06
-0.000141046
2.51554e-06
-0.000140332
3.85955e-07
-0.000139278
-1.50966e-06
-0.000137888
-3.32211e-06
-0.000136195
-4.99614e-06
-0.000134229
-6.53458e-06
-0.000132015
-7.94289e-06
-0.000129577
-9.22045e-06
-0.000126941
-1.03736e-05
-0.000124128
-1.14086e-05
-0.000121161
-1.23228e-05
-0.000118061
-1.31259e-05
-0.000114851
-1.38196e-05
-0.000111551
-1.44024e-05
-0.000108182
-1.48859e-05
-0.000104762
-1.52725e-05
-0.00010131
-1.5565e-05
-9.78435e-05
-1.57748e-05
-9.43766e-05
-1.5903e-05
-9.09236e-05
-1.59567e-05
-8.74953e-05
-1.5948e-05
-8.41016e-05
-1.58806e-05
-8.07516e-05
-1.57583e-05
-7.74527e-05
-1.55887e-05
-7.42117e-05
-1.53762e-05
-7.10345e-05
-1.51268e-05
-6.79283e-05
-1.48365e-05
-6.4899e-05
-1.45133e-05
-6.19516e-05
-1.41641e-05
-5.90922e-05
-1.3784e-05
-5.63256e-05
-1.33809e-05
-5.3655e-05
-1.29615e-05
-5.10828e-05
-1.25274e-05
-4.86094e-05
-1.20864e-05
-4.62327e-05
-1.16456e-05
-4.39503e-05
-1.12064e-05
-4.17585e-05
-1.07734e-05
-3.96536e-05
-1.03485e-05
-3.76338e-05
-9.92658e-06
-3.56977e-05
-9.51074e-06
-3.38456e-05
-9.09595e-06
-3.20792e-05
-8.67879e-06
-3.03987e-05
-8.26469e-06
-2.88055e-05
-7.8487e-06
-2.7298e-05
-7.43966e-06
-2.58745e-05
-7.03667e-06
-2.45323e-05
-6.6437e-06
-2.32689e-05
-6.25969e-06
-2.20819e-05
-5.88707e-06
-2.09697e-05
-5.52356e-06
-1.99317e-05
-5.16762e-06
-1.89664e-05
-4.82353e-06
-1.80717e-05
-4.49263e-06
-1.72441e-05
-4.17947e-06
-1.64778e-05
-3.88987e-06
-1.57651e-05
-3.62879e-06
-1.50983e-05
-3.3971e-06
-1.44706e-05
-3.19395e-06
-1.38772e-05
-3.01507e-06
-1.33154e-05
-2.85822e-06
-1.2783e-05
-2.72241e-06
-1.22774e-05
-2.61029e-06
-1.1792e-05
-2.53131e-06
-1.13165e-05
-2.49686e-06
-1.08368e-05
-2.51451e-06
-1.03368e-05
-2.58865e-06
-9.80053e-06
-2.71705e-06
-9.21608e-06
-2.88639e-06
-8.57793e-06
-3.07695e-06
-7.88631e-06
-3.26887e-06
-7.14918e-06
-3.43875e-06
-6.37617e-06
-3.5716e-06
-5.58218e-06
-3.64819e-06
-4.78013e-06
-3.66754e-06
-3.9868e-06
-3.6163e-06
-3.22402e-06
-3.47991e-06
-2.51732e-06
-3.25407e-06
-1.89453e-06
-2.94238e-06
-1.37683e-06
-2.57165e-06
-9.62633e-07
-2.20535e-06
-6.24931e-07
-1.91246e-06
-3.19948e-07
-1.75223e-06
-1.72879e-06
7.25566e-05
-0.000291829
0.000145621
-0.000295056
0.000218734
-0.000296771
0.00029145
-0.000297612
0.000363388
-0.000297592
0.000434258
-0.000296731
0.000503603
-0.000295051
0.000571245
-0.000292533
0.000636572
-0.000289152
0.000699658
-0.00028528
0.000760467
-0.000280956
0.000818757
-0.000276104
0.000874258
-0.000270446
0.000926621
-0.000263923
0.000975747
-0.000256706
0.00102158
-0.000248961
0.00106412
-0.000240767
0.00110349
-0.000232295
0.00113981
-0.000223624
0.00117325
-0.000214839
0.00120398
-0.000205991
0.00123217
-0.000197112
0.00125798
-0.000188215
0.00128155
-0.0001793
0.00130297
-0.000170363
0.00132234
-0.000161356
0.00133962
-0.000152225
0.00135492
-0.000143133
0.00136848
-0.0001344
0.00138059
-0.000125928
0.0013915
-0.000117455
0.00140206
-0.000109662
0.00141249
-0.000102342
0.00142278
-9.52441e-05
0.00143284
-8.8245e-05
0.00144246
-8.11311e-05
0.00145144
-7.37928e-05
0.00145955
-6.60946e-05
0.00146658
-5.79925e-05
0.00147228
-4.94243e-05
0.00147657
-4.0603e-05
0.00147883
-3.08414e-05
0.00147913
-2.08763e-05
0.00147762
-1.08132e-05
0.00147288
1.97386e-06
0.00146643
1.35874e-05
0.00145782
2.50998e-05
0.00144685
3.67298e-05
0.00143344
4.84593e-05
0.00141753
6.02458e-05
0.00139907
7.20818e-05
0.00137805
8.38753e-05
0.0013545
9.5573e-05
0.00132852
0.00010708
0.00130023
0.000118299
0.00126973
0.000129213
0.00123722
0.000139625
0.00120282
0.000149638
0.00116672
0.000159041
0.00112908
0.000167954
0.00109014
0.000176115
0.00105014
0.00018358
0.00100915
0.000190434
0.000967396
0.000196466
0.000925092
0.000201815
0.000882479
0.000206327
0.000839726
0.000210093
0.000797062
0.000213017
0.000754579
0.000215243
0.000712296
0.000216766
0.000670448
0.00021765
0.000629257
0.000217705
0.000588812
0.000217052
0.000549217
0.000215866
0.000510531
0.000214062
0.000472858
0.000211587
0.000436279
0.000208659
0.000400771
0.000205269
0.000366477
0.000201339
0.000333457
0.00019695
0.000301638
0.000192331
0.000270989
0.000187381
0.000241672
0.000182092
0.000213676
0.000176507
0.000187058
0.000170644
0.000161551
0.000164797
0.000137402
0.000158609
0.000114543
0.00015234
9.28277e-05
0.000146063
7.24131e-05
0.00013963
5.31187e-05
0.000133253
3.50837e-05
0.000126738
1.81019e-05
0.000120338
2.23429e-06
0.000113981
-1.25188e-05
0.000107592
-2.6205e-05
0.0001013
-3.88877e-05
9.51137e-05
-5.05957e-05
8.89885e-05
-6.1345e-05
8.30305e-05
-7.11771e-05
7.71917e-05
-8.01317e-05
7.14755e-05
-8.82328e-05
6.58797e-05
-9.55285e-05
6.04957e-05
-0.000102046
5.52338e-05
-0.000107796
5.0168e-05
-0.000112852
4.5293e-05
-0.000117217
4.05744e-05
-0.000120945
3.6064e-05
-0.000124108
3.17684e-05
-0.000126673
2.76375e-05
-0.000128687
2.36994e-05
-0.000130191
1.99605e-05
-0.000131237
1.64518e-05
-0.000131851
1.30959e-05
-0.000132042
9.95932e-06
-0.000131844
6.99587e-06
-0.000131288
4.21996e-06
-0.000130401
1.62814e-06
-0.00012926
-7.55167e-07
-0.00012779
-2.97937e-06
-0.000126066
-5.04647e-06
-0.00012411
-6.95209e-06
-0.000121944
-8.70025e-06
-0.000119589
-1.02979e-05
-0.000117065
-1.17441e-05
-0.000114392
-1.30469e-05
-0.000111587
-1.42137e-05
-0.000108669
-1.52405e-05
-0.000105656
-1.61389e-05
-0.000102566
-1.69097e-05
-9.9418e-05
-1.75505e-05
-9.62292e-05
-1.80747e-05
-9.30168e-05
-1.84849e-05
-8.97972e-05
-1.87846e-05
-8.65842e-05
-1.89878e-05
-8.33908e-05
-1.90965e-05
-8.02279e-05
-1.91196e-05
-7.71036e-05
-1.90723e-05
-7.40246e-05
-1.89596e-05
-7.09968e-05
-1.8786e-05
-6.8025e-05
-1.85606e-05
-6.51131e-05
-1.82881e-05
-6.22652e-05
-1.79747e-05
-5.94869e-05
-1.76149e-05
-5.67828e-05
-1.72173e-05
-5.41575e-05
-1.67895e-05
-5.16168e-05
-1.63247e-05
-4.91653e-05
-1.58325e-05
-4.68062e-05
-1.53206e-05
-4.45418e-05
-1.47919e-05
-4.23712e-05
-1.42569e-05
-4.02912e-05
-1.37256e-05
-3.82972e-05
-1.32005e-05
-3.63832e-05
-1.26874e-05
-3.45439e-05
-1.21877e-05
-3.27769e-05
-1.16937e-05
-3.10808e-05
-1.12068e-05
-2.94574e-05
-1.07194e-05
-2.79096e-05
-1.02266e-05
-2.64389e-05
-9.73531e-06
-2.50474e-05
-9.24024e-06
-2.37335e-05
-8.7536e-06
-2.24948e-05
-8.27533e-06
-2.13281e-05
-7.81044e-06
-2.023e-05
-7.3578e-06
-1.91986e-05
-6.91844e-06
-1.82328e-05
-6.48931e-06
-1.73331e-05
-6.0674e-06
-1.64991e-05
-5.65747e-06
-1.57304e-05
-5.26134e-06
-1.50241e-05
-4.88581e-06
-1.43737e-05
-4.54022e-06
-1.37707e-05
-4.23177e-06
-1.3206e-05
-3.96187e-06
-1.26725e-05
-3.72744e-06
-1.2166e-05
-3.52158e-06
-1.16862e-05
-3.33792e-06
-1.12337e-05
-3.17492e-06
-1.08092e-05
-3.03483e-06
-1.04076e-05
-2.93293e-06
-1.00186e-05
-2.88587e-06
-9.62637e-06
-2.90671e-06
-9.2123e-06
-3.00272e-06
-8.75813e-06
-3.17122e-06
-8.24964e-06
-3.39488e-06
-7.68155e-06
-3.64504e-06
-7.05411e-06
-3.89631e-06
-6.37932e-06
-4.11355e-06
-5.66665e-06
-4.28427e-06
-4.93289e-06
-4.38194e-06
-4.18837e-06
-4.41206e-06
-3.44878e-06
-4.35588e-06
-2.73566e-06
-4.19304e-06
-2.07811e-06
-3.91162e-06
-1.51114e-06
-3.50934e-06
-1.06468e-06
-3.01811e-06
-7.36963e-07
-2.53307e-06
-4.85756e-07
-2.16367e-06
-2.58911e-07
-1.97907e-06
-1.9877e-06
9.27398e-05
-0.000384569
0.00018572
-0.000388036
0.0002782
-0.000389251
0.000369398
-0.00038881
0.000458545
-0.00038674
0.000544932
-0.000383118
0.000627977
-0.000378096
0.00070724
-0.000371796
0.000782617
-0.000364529
0.000853024
-0.000355687
0.000917515
-0.000345448
0.000975944
-0.000334533
0.00102848
-0.00032298
0.00107513
-0.000310571
0.00111599
-0.00029757
0.00115134
-0.00028431
0.00118164
-0.000271062
0.00120741
-0.000258066
0.00122926
-0.000245473
0.00124782
-0.000233407
0.00126374
-0.000221906
0.00127759
-0.000210959
0.00128986
-0.00020049
0.00130091
-0.000190347
0.00131088
-0.000180337
0.00131983
-0.000170305
0.00132792
-0.000160317
0.00133532
-0.000150534
0.00134094
-0.000140017
0.00134586
-0.000130853
0.00135159
-0.00012318
0.00135838
-0.000116456
0.00136624
-0.000110195
0.00137503
-0.00010404
0.00138442
-9.7631e-05
0.00139396
-9.06682e-05
0.00140339
-8.32234e-05
0.00141227
-7.49802e-05
0.00142014
-6.58612e-05
0.00142678
-5.6062e-05
0.00143085
-4.46731e-05
0.00143383
-3.38231e-05
0.00143463
-2.16723e-05
0.00143185
-8.03356e-06
0.0014273
6.52392e-06
0.00142049
2.03989e-05
0.00141107
3.45194e-05
0.00139891
4.88858e-05
0.0013839
6.34659e-05
0.00136596
7.81864e-05
0.00134511
9.29336e-05
0.00132142
0.000107568
0.00129502
0.00012197
0.00126604
0.000136057
0.00123471
0.000149638
0.00120109
0.000162833
0.00116542
0.000175287
0.00112798
0.000187082
0.00108897
0.000198046
0.0010487
0.000208229
0.00100723
0.000217588
0.000964783
0.000226023
0.000921745
0.000233472
0.000878331
0.00023988
0.000834755
0.000245392
0.00079121
0.000249872
0.000747885
0.000253419
0.000704866
0.000256037
0.000662317
0.000257791
0.000620499
0.000258584
0.000579506
0.000258642
0.000539468
0.000257743
0.000500473
0.000256047
0.000462551
0.000253789
0.000425846
0.000250767
0.00039041
0.000247023
0.000356207
0.000242861
0.000323453
0.000238023
0.00029201
0.000232782
0.000261837
0.000227123
0.000232997
0.000221172
0.000205599
0.000214779
0.000179569
0.000208122
0.00015497
0.000201106
0.000131492
0.000194122
0.000109409
0.00018688
8.85786e-05
0.000179439
6.894e-05
0.000171978
5.05739e-05
0.00016443
3.33059e-05
0.000156898
1.72561e-05
0.000149303
2.14142e-06
0.000141853
-1.18594e-05
0.000134339
-2.47784e-05
0.0001269
-3.67365e-05
0.00011955
-4.77839e-05
0.000112348
-5.79192e-05
0.000105249
-6.7166e-05
9.82353e-05
-7.55539e-05
9.14184e-05
-8.31528e-05
8.47906e-05
-8.99744e-05
7.82971e-05
-9.60625e-05
7.19677e-05
-0.000101443
6.58761e-05
-0.000106186
5.99773e-05
-0.000110289
5.4271e-05
-0.000113774
4.87778e-05
-0.000116717
4.35174e-05
-0.000119131
3.84781e-05
-0.000121018
3.36554e-05
-0.000122431
2.90498e-05
-0.000123431
2.47001e-05
-0.000124012
2.05415e-05
-0.000124208
1.66479e-05
-0.000124059
1.29465e-05
-0.000123578
9.47804e-06
-0.000122792
6.21054e-06
-0.000121728
3.15554e-06
-0.000120419
3.19691e-07
-0.000118874
-2.30019e-06
-0.000117103
-4.75058e-06
-0.000115135
-7.01435e-06
-0.000112992
-9.09504e-06
-0.000110693
-1.09996e-05
-0.000108254
-1.27372e-05
-0.000105691
-1.43066e-05
-0.00010302
-1.5718e-05
-0.000100254
-1.69795e-05
-9.7409e-05
-1.80859e-05
-9.44983e-05
-1.90496e-05
-9.15377e-05
-1.98702e-05
-8.85444e-05
-2.05438e-05
-8.5534e-05
-2.10851e-05
-8.25222e-05
-2.14967e-05
-7.95239e-05
-2.17829e-05
-7.65511e-05
-2.19606e-05
-7.36146e-05
-2.2033e-05
-7.07227e-05
-2.20115e-05
-6.78807e-05
-2.19143e-05
-6.50923e-05
-2.1748e-05
-6.23605e-05
-2.15178e-05
-5.96872e-05
-2.12339e-05
-5.70741e-05
-2.09012e-05
-5.45234e-05
-2.05254e-05
-5.20393e-05
-2.0099e-05
-4.9626e-05
-1.96306e-05
-4.72876e-05
-1.91279e-05
-4.50298e-05
-1.85825e-05
-4.28579e-05
-1.80044e-05
-4.07755e-05
-1.74029e-05
-3.87849e-05
-1.67825e-05
-3.68847e-05
-1.61571e-05
-3.507e-05
-1.55403e-05
-3.33338e-05
-1.49368e-05
-3.16673e-05
-1.43539e-05
-3.00634e-05
-1.37917e-05
-2.85184e-05
-1.32386e-05
-2.70321e-05
-1.26931e-05
-2.56079e-05
-1.21436e-05
-2.42508e-05
-1.15838e-05
-2.2964e-05
-1.10221e-05
-2.17498e-05
-1.04544e-05
-2.06067e-05
-9.89667e-06
-1.95314e-05
-9.35065e-06
-1.85189e-05
-8.82295e-06
-1.75662e-05
-8.31048e-06
-1.6671e-05
-7.81363e-06
-1.58324e-05
-7.32798e-06
-1.50523e-05
-6.84744e-06
-1.43323e-05
-6.37752e-06
-1.36735e-05
-5.92012e-06
-1.30737e-05
-5.48558e-06
-1.2526e-05
-5.08794e-06
-1.20202e-05
-4.73762e-06
-1.1545e-05
-4.43704e-06
-1.10932e-05
-4.1792e-06
-1.06603e-05
-3.95451e-06
-1.02497e-05
-3.74847e-06
-9.86431e-06
-3.56036e-06
-9.50924e-06
-3.38989e-06
-9.18099e-06
-3.26119e-06
-8.86931e-06
-3.19755e-06
-8.55614e-06
-3.21987e-06
-8.21978e-06
-3.33908e-06
-7.83912e-06
-3.55187e-06
-7.39774e-06
-3.83627e-06
-6.89114e-06
-4.15163e-06
-6.31869e-06
-4.46876e-06
-5.69856e-06
-4.73368e-06
-5.03963e-06
-4.94319e-06
-4.36064e-06
-5.06094e-06
-3.66856e-06
-5.10414e-06
-2.97702e-06