/*--------------------------------*- C++ -*----------------------------------*\
  =========                 |
  \\      /  F ield         | OpenFOAM: The Open Source CFD Toolbox
   \\    /   O peration     | Website:  https://openfoam.org
    \\  /    A nd           | Version:  12
     \\/     M anipulation  |
\*---------------------------------------------------------------------------*/
FoamFile
{
    format      ascii;
    class       volVectorField;
    location    "1";
    object      U;
}
// * * * * * * * * * * * * * * * * * * * * * * * * * * * * * * * * * * * * * //

dimensions      [0 1 -1 0 0 0 0];

internalField   nonuniform List<vector> 
3829
(
(2.09459e-06 -2.02341e-05 0)
(6.32027e-06 -2.02757e-05 0)
(1.05911e-05 -2.02267e-05 0)
(1.49005e-05 -2.01525e-05 0)
(1.92427e-05 -2.00522e-05 0)
(2.3613e-05 -1.99257e-05 0)
(2.80059e-05 -1.97724e-05 0)
(3.2416e-05 -1.95924e-05 0)
(3.68373e-05 -1.93855e-05 0)
(4.12641e-05 -1.91517e-05 0)
(4.569e-05 -1.88911e-05 0)
(5.0108e-05 -1.8604e-05 0)
(5.45116e-05 -1.82908e-05 0)
(5.88937e-05 -1.79519e-05 0)
(6.32466e-05 -1.75881e-05 0)
(6.75623e-05 -1.72002e-05 0)
(7.18323e-05 -1.6789e-05 0)
(7.60481e-05 -1.63557e-05 0)
(8.02012e-05 -1.59015e-05 0)
(8.42829e-05 -1.54279e-05 0)
(8.82846e-05 -1.49362e-05 0)
(9.21977e-05 -1.44281e-05 0)
(9.60141e-05 -1.39051e-05 0)
(9.97259e-05 -1.33688e-05 0)
(0.000103326 -1.28206e-05 0)
(0.000106806 -1.22622e-05 0)
(0.000110159 -1.1695e-05 0)
(0.00011338 -1.11204e-05 0)
(0.000116462 -1.05399e-05 0)
(0.000119401 -9.95471e-06 0)
(0.000122191 -9.36598e-06 0)
(0.000124829 -8.77409e-06 0)
(0.000127312 -8.18036e-06 0)
(0.000129632 -7.58672e-06 0)
(0.000131781 -6.99372e-06 0)
(0.000133757 -6.40172e-06 0)
(0.000135561 -5.81096e-06 0)
(0.000137193 -5.22102e-06 0)
(0.000138653 -4.63255e-06 0)
(0.000139942 -4.04508e-06 0)
(0.000141059 -3.45881e-06 0)
(0.000142003 -2.87424e-06 0)
(0.000142771 -2.29198e-06 0)
(0.00014336 -1.71265e-06 0)
(0.000143772 -1.1373e-06 0)
(0.000144001 -5.67479e-07 0)
(0.000144024 -6.18166e-09 0)
(0.00014383 5.45628e-07 0)
(0.000143429 1.08784e-06 0)
(0.000142826 1.61973e-06 0)
(0.000142024 2.14035e-06 0)
(0.000141025 2.64857e-06 0)
(0.000139833 3.1431e-06 0)
(0.00013845 3.62256e-06 0)
(0.000136879 4.08542e-06 0)
(0.000135123 4.53011e-06 0)
(0.000133188 4.95487e-06 0)
(0.000131076 5.35772e-06 0)
(0.000128789 5.73771e-06 0)
(0.000126341 6.09403e-06 0)
(0.000123737 6.42352e-06 0)
(0.000120976 6.72583e-06 0)
(0.000118071 6.99995e-06 0)
(0.00011503 7.24513e-06 0)
(0.000111863 7.46075e-06 0)
(0.000108579 7.64644e-06 0)
(0.000105189 7.80204e-06 0)
(0.000101703 7.9274e-06 0)
(9.81316e-05 8.02285e-06 0)
(9.44877e-05 8.0893e-06 0)
(9.07813e-05 8.12461e-06 0)
(8.70256e-05 8.13462e-06 0)
(8.32356e-05 8.11708e-06 0)
(7.94176e-05 8.06974e-06 0)
(7.55831e-05 8.00117e-06 0)
(7.17463e-05 7.90521e-06 0)
(6.79181e-05 7.79165e-06 0)
(6.41011e-05 7.65724e-06 0)
(6.03194e-05 7.50261e-06 0)
(5.65845e-05 7.33299e-06 0)
(5.28908e-05 7.14784e-06 0)
(4.92544e-05 6.94926e-06 0)
(4.5684e-05 6.73883e-06 0)
(4.2185e-05 6.5169e-06 0)
(3.87702e-05 6.28866e-06 0)
(3.54454e-05 6.05048e-06 0)
(3.22114e-05 5.80769e-06 0)
(2.90738e-05 5.56064e-06 0)
(2.60395e-05 5.31109e-06 0)
(2.31153e-05 5.05961e-06 0)
(2.02977e-05 4.80759e-06 0)
(1.75951e-05 4.55723e-06 0)
(1.501e-05 4.30762e-06 0)
(1.25375e-05 4.06118e-06 0)
(1.01846e-05 3.81824e-06 0)
(7.951e-06 3.5804e-06 0)
(5.8336e-06 3.34584e-06 0)
(3.83758e-06 3.11956e-06 0)
(1.95333e-06 2.89825e-06 0)
(1.94952e-07 2.68746e-06 0)
(-1.44131e-06 2.48023e-06 0)
(-2.97735e-06 2.28051e-06 0)
(-4.40294e-06 2.08856e-06 0)
(-5.72045e-06 1.90456e-06 0)
(-6.93267e-06 1.72858e-06 0)
(-8.04233e-06 1.56074e-06 0)
(-9.05273e-06 1.40125e-06 0)
(-9.9669e-06 1.24996e-06 0)
(-1.07882e-05 1.10688e-06 0)
(-1.152e-05 9.72073e-07 0)
(-1.21661e-05 8.45006e-07 0)
(-1.27304e-05 7.25922e-07 0)
(-1.32164e-05 6.14598e-07 0)
(-1.3628e-05 5.10865e-07 0)
(-1.39688e-05 4.14609e-07 0)
(-1.42426e-05 3.25282e-07 0)
(-1.44535e-05 2.42679e-07 0)
(-1.46049e-05 1.66594e-07 0)
(-1.47003e-05 9.66496e-08 0)
(-1.47438e-05 3.27153e-08 0)
(-1.47399e-05 -2.57222e-08 0)
(-1.46924e-05 -7.8651e-08 0)
(-1.46036e-05 -1.2624e-07 0)
(-1.44767e-05 -1.68739e-07 0)
(-1.43148e-05 -2.06407e-07 0)
(-1.4121e-05 -2.39503e-07 0)
(-1.38984e-05 -2.68292e-07 0)
(-1.365e-05 -2.93029e-07 0)
(-1.33786e-05 -3.1396e-07 0)
(-1.3087e-05 -3.31331e-07 0)
(-1.27778e-05 -3.45378e-07 0)
(-1.24537e-05 -3.56336e-07 0)
(-1.2117e-05 -3.64439e-07 0)
(-1.17701e-05 -3.69917e-07 0)
(-1.14151e-05 -3.72999e-07 0)
(-1.10542e-05 -3.73909e-07 0)
(-1.06891e-05 -3.72868e-07 0)
(-1.03217e-05 -3.70086e-07 0)
(-9.95367e-06 -3.65766e-07 0)
(-9.58638e-06 -3.60095e-07 0)
(-9.22125e-06 -3.53247e-07 0)
(-8.85951e-06 -3.4538e-07 0)
(-8.50222e-06 -3.36637e-07 0)
(-8.15044e-06 -3.27149e-07 0)
(-7.80511e-06 -3.17039e-07 0)
(-7.46699e-06 -3.0642e-07 0)
(-7.13679e-06 -2.95399e-07 0)
(-6.81517e-06 -2.84087e-07 0)
(-6.50262e-06 -2.72587e-07 0)
(-6.19954e-06 -2.61002e-07 0)
(-5.90627e-06 -2.49429e-07 0)
(-5.62298e-06 -2.37953e-07 0)
(-5.34979e-06 -2.26646e-07 0)
(-5.08676e-06 -2.1556e-07 0)
(-4.83386e-06 -2.04723e-07 0)
(-4.59107e-06 -1.94152e-07 0)
(-4.35833e-06 -1.83844e-07 0)
(-4.13555e-06 -1.73793e-07 0)
(-3.92272e-06 -1.63995e-07 0)
(-3.71976e-06 -1.54451e-07 0)
(-3.5266e-06 -1.45169e-07 0)
(-3.34314e-06 -1.36165e-07 0)
(-3.16926e-06 -1.27458e-07 0)
(-3.0048e-06 -1.19062e-07 0)
(-2.84955e-06 -1.10984e-07 0)
(-2.7033e-06 -1.03239e-07 0)
(-2.56579e-06 -9.58311e-08 0)
(-2.4368e-06 -8.87706e-08 0)
(-2.31603e-06 -8.20779e-08 0)
(-2.20315e-06 -7.57809e-08 0)
(-2.09775e-06 -6.99148e-08 0)
(-1.99939e-06 -6.45146e-08 0)
(-1.90753e-06 -5.96059e-08 0)
(-1.82158e-06 -5.51974e-08 0)
(-1.74094e-06 -5.12808e-08 0)
(-1.66499e-06 -4.78405e-08 0)
(-1.59312e-06 -4.48643e-08 0)
(-1.52469e-06 -4.23559e-08 0)
(-1.45906e-06 -4.0344e-08 0)
(-1.39546e-06 -3.88821e-08 0)
(-1.33301e-06 -3.8023e-08 0)
(-1.27072e-06 -3.77998e-08 0)
(-1.20756e-06 -3.8203e-08 0)
(-1.14252e-06 -3.91636e-08 0)
(-1.07477e-06 -4.05355e-08 0)
(-1.00373e-06 -4.2117e-08 0)
(-9.2915e-07 -4.36811e-08 0)
(-8.51161e-07 -4.50006e-08 0)
(-7.70286e-07 -4.58745e-08 0)
(-6.87439e-07 -4.61343e-08 0)
(-6.03777e-07 -4.56676e-08 0)
(-5.2068e-07 -4.43786e-08 0)
(-4.39767e-07 -4.22276e-08 0)
(-3.62611e-07 -3.92841e-08 0)
(-2.90594e-07 -3.57083e-08 0)
(-2.24843e-07 -3.17914e-08 0)
(-1.6593e-07 -2.79944e-08 0)
(-1.13544e-07 -2.48299e-08 0)
(-6.60835e-08 -2.27419e-08 0)
(-2.16695e-08 -2.16663e-08 0)
(2.31228e-06 -6.06511e-05 0)
(6.98432e-06 -6.07699e-05 0)
(1.16998e-05 -6.06104e-05 0)
(1.64549e-05 -6.03687e-05 0)
(2.12414e-05 -6.00432e-05 0)
(2.60515e-05 -5.96328e-05 0)
(3.0878e-05 -5.91372e-05 0)
(3.57133e-05 -5.85556e-05 0)
(4.055e-05 -5.78886e-05 0)
(4.53813e-05 -5.71371e-05 0)
(5.01991e-05 -5.63019e-05 0)
(5.49944e-05 -5.53842e-05 0)
(5.97587e-05 -5.43862e-05 0)
(6.4483e-05 -5.33097e-05 0)
(6.91582e-05 -5.21567e-05 0)
(7.37745e-05 -5.09306e-05 0)
(7.83217e-05 -4.96353e-05 0)
(8.27897e-05 -4.82753e-05 0)
(8.71687e-05 -4.68547e-05 0)
(9.14488e-05 -4.53788e-05 0)
(9.56212e-05 -4.38526e-05 0)
(9.96775e-05 -4.22813e-05 0)
(0.000103611 -4.067e-05 0)
(0.000107414 -3.90242e-05 0)
(0.00011108 -3.73493e-05 0)
(0.000114603 -3.56499e-05 0)
(0.000117977 -3.39314e-05 0)
(0.000121198 -3.21981e-05 0)
(0.000124262 -3.04542e-05 0)
(0.000127166 -2.8704e-05 0)
(0.000129911 -2.69503e-05 0)
(0.000132492 -2.51961e-05 0)
(0.000134899 -2.34443e-05 0)
(0.000137127 -2.16981e-05 0)
(0.000139179 -1.99585e-05 0)
(0.000141057 -1.8225e-05 0)
(0.000142765 -1.64969e-05 0)
(0.0001443 -1.47721e-05 0)
(0.000145664 -1.30513e-05 0)
(0.000146859 -1.13335e-05 0)
(0.000147879 -9.61821e-06 0)
(0.000148722 -7.90769e-06 0)
(0.000149383 -6.20244e-06 0)
(0.000149857 -4.50344e-06 0)
(0.000150142 -2.81625e-06 0)
(0.00015022 -1.14513e-06 0)
(0.000150074 4.99127e-07 0)
(0.000149707 2.11865e-06 0)
(0.000149133 3.7114e-06 0)
(0.000148351 5.27458e-06 0)
(0.000147362 6.80463e-06 0)
(0.000146168 8.29728e-06 0)
(0.000144771 9.74863e-06 0)
(0.000143172 1.11537e-05 0)
(0.000141375 1.25073e-05 0)
(0.000139381 1.38045e-05 0)
(0.000137194 1.50398e-05 0)
(0.000134823 1.62093e-05 0)
(0.000132273 1.73072e-05 0)
(0.000129547 1.83307e-05 0)
(0.000126657 1.92741e-05 0)
(0.00012361 2.01349e-05 0)
(0.000120416 2.09105e-05 0)
(0.000117088 2.15985e-05 0)
(0.000113634 2.21972e-05 0)
(0.000110068 2.27055e-05 0)
(0.0001064 2.31258e-05 0)
(0.000102644 2.34567e-05 0)
(9.8814e-05 2.3699e-05 0)
(9.49119e-05 2.38531e-05 0)
(9.0968e-05 2.39239e-05 0)
(8.69951e-05 2.3912e-05 0)
(8.29748e-05 2.38231e-05 0)
(7.89567e-05 2.36588e-05 0)
(7.49365e-05 2.3425e-05 0)
(7.09321e-05 2.31236e-05 0)
(6.69656e-05 2.2759e-05 0)
(6.30037e-05 2.23369e-05 0)
(5.91022e-05 2.18642e-05 0)
(5.52681e-05 2.13412e-05 0)
(5.14833e-05 2.07754e-05 0)
(4.77714e-05 2.0172e-05 0)
(4.41342e-05 1.95354e-05 0)
(4.05898e-05 1.88733e-05 0)
(3.71366e-05 1.81851e-05 0)
(3.37802e-05 1.7481e-05 0)
(3.05348e-05 1.67614e-05 0)
(2.73934e-05 1.60319e-05 0)
(2.43638e-05 1.52962e-05 0)
(2.14507e-05 1.45578e-05 0)
(1.86558e-05 1.38197e-05 0)
(1.59798e-05 1.30871e-05 0)
(1.34257e-05 1.236e-05 0)
(1.09924e-05 1.16438e-05 0)
(8.68411e-06 1.09359e-05 0)
(6.49357e-06 1.0245e-05 0)
(4.42797e-06 9.57068e-06 0)
(2.48802e-06 8.91389e-06 0)
(6.65432e-07 8.27703e-06 0)
(-1.03657e-06 7.66243e-06 0)
(-2.62661e-06 7.06471e-06 0)
(-4.10512e-06 6.4893e-06 0)
(-5.47304e-06 5.93725e-06 0)
(-6.73335e-06 5.40804e-06 0)
(-7.88904e-06 4.90305e-06 0)
(-8.94247e-06 4.42171e-06 0)
(-9.89761e-06 3.96427e-06 0)
(-1.0758e-05 3.53081e-06 0)
(-1.15265e-05 3.12106e-06 0)
(-1.22078e-05 2.73495e-06 0)
(-1.28053e-05 2.37194e-06 0)
(-1.33219e-05 2.03174e-06 0)
(-1.37621e-05 1.71377e-06 0)
(-1.41298e-05 1.41748e-06 0)
(-1.44292e-05 1.14197e-06 0)
(-1.46643e-05 8.86952e-07 0)
(-1.48382e-05 6.51475e-07 0)
(-1.49549e-05 4.34792e-07 0)
(-1.50177e-05 2.36439e-07 0)
(-1.50306e-05 5.53032e-08 0)
(-1.4998e-05 -1.10117e-07 0)
(-1.49227e-05 -2.59696e-07 0)
(-1.48078e-05 -3.94074e-07 0)
(-1.46563e-05 -5.13995e-07 0)
(-1.44716e-05 -6.20197e-07 0)
(-1.42567e-05 -7.13412e-07 0)
(-1.40145e-05 -7.94388e-07 0)
(-1.3748e-05 -8.63836e-07 0)
(-1.346e-05 -9.22453e-07 0)
(-1.31531e-05 -9.70928e-07 0)
(-1.283e-05 -1.00992e-06 0)
(-1.24931e-05 -1.04011e-06 0)
(-1.2145e-05 -1.06214e-06 0)
(-1.17877e-05 -1.07669e-06 0)
(-1.14236e-05 -1.08441e-06 0)
(-1.10545e-05 -1.08595e-06 0)
(-1.06823e-05 -1.08195e-06 0)
(-1.03088e-05 -1.07302e-06 0)
(-9.93545e-06 -1.05974e-06 0)
(-9.56367e-06 -1.04266e-06 0)
(-9.19476e-06 -1.02227e-06 0)
(-8.82987e-06 -9.99018e-07 0)
(-8.47001e-06 -9.73306e-07 0)
(-8.11616e-06 -9.45502e-07 0)
(-7.76923e-06 -9.15945e-07 0)
(-7.42993e-06 -8.84951e-07 0)
(-7.09896e-06 -8.52825e-07 0)
(-6.77696e-06 -8.19878e-07 0)
(-6.46438e-06 -7.86414e-07 0)
(-6.16161e-06 -7.52734e-07 0)
(-5.86895e-06 -7.1913e-07 0)
(-5.5865e-06 -6.85858e-07 0)
(-5.31434e-06 -6.53127e-07 0)
(-5.05245e-06 -6.21085e-07 0)
(-4.80074e-06 -5.89812e-07 0)
(-4.55914e-06 -5.5933e-07 0)
(-4.32755e-06 -5.29623e-07 0)
(-4.10589e-06 -5.00653e-07 0)
(-3.89414e-06 -4.72399e-07 0)
(-3.69225e-06 -4.44858e-07 0)
(-3.50019e-06 -4.18062e-07 0)
(-3.31786e-06 -3.92062e-07 0)
(-3.14512e-06 -3.66929e-07 0)
(-2.98181e-06 -3.427e-07 0)
(-2.82773e-06 -3.19407e-07 0)
(-2.68264e-06 -2.9706e-07 0)
(-2.5463e-06 -2.75683e-07 0)
(-2.41848e-06 -2.55302e-07 0)
(-2.29894e-06 -2.35968e-07 0)
(-2.18733e-06 -2.17768e-07 0)
(-2.08328e-06 -2.00813e-07 0)
(-1.98632e-06 -1.85218e-07 0)
(-1.89586e-06 -1.71068e-07 0)
(-1.81129e-06 -1.58386e-07 0)
(-1.73196e-06 -1.47136e-07 0)
(-1.65726e-06 -1.37255e-07 0)
(-1.5866e-06 -1.28688e-07 0)
(-1.5194e-06 -1.21439e-07 0)
(-1.45506e-06 -1.15597e-07 0)
(-1.39284e-06 -1.11339e-07 0)
(-1.33184e-06 -1.08844e-07 0)
(-1.271e-06 -1.08238e-07 0)
(-1.20916e-06 -1.09509e-07 0)
(-1.14519e-06 -1.12456e-07 0)
(-1.07808e-06 -1.16649e-07 0)
(-1.00721e-06 -1.21467e-07 0)
(-9.32314e-07 -1.26225e-07 0)
(-8.53558e-07 -1.30237e-07 0)
(-7.71545e-07 -1.32922e-07 0)
(-6.87293e-07 -1.33787e-07 0)
(-6.02047e-07 -1.32517e-07 0)
(-5.17265e-07 -1.28832e-07 0)
(-4.34735e-07 -1.22565e-07 0)
(-3.5623e-07 -1.13885e-07 0)
(-2.83336e-07 -1.03223e-07 0)
(-2.17457e-07 -9.14811e-08 0)
(-1.59351e-07 -8.01008e-08 0)
(-1.08661e-07 -7.06904e-08 0)
(-6.32701e-08 -6.46341e-08 0)
(-2.07689e-08 -6.16799e-08 0)
(2.75329e-06 -0.000102222 0)
(8.31106e-06 -0.000102388 0)
(1.39148e-05 -0.000102066 0)
(1.95535e-05 -0.000101579 0)
(2.52143e-05 -0.000100925 0)
(3.08845e-05 -0.000100099 0)
(3.65555e-05 -9.91065e-05 0)
(4.22155e-05 -9.79433e-05 0)
(4.78451e-05 -9.66172e-05 0)
(5.34379e-05 -9.51299e-05 0)
(5.89875e-05 -9.34853e-05 0)
(6.44769e-05 -9.16923e-05 0)
(6.98959e-05 -8.97542e-05 0)
(7.52397e-05 -8.76826e-05 0)
(8.04911e-05 -8.5482e-05 0)
(8.56311e-05 -8.31658e-05 0)
(9.06459e-05 -8.07457e-05 0)
(9.55263e-05 -7.82326e-05 0)
(0.000100261 -7.56396e-05 0)
(0.000104839 -7.29785e-05 0)
(0.000109254 -7.02607e-05 0)
(0.000113499 -6.74969e-05 0)
(0.000117567 -6.4697e-05 0)
(0.000121451 -6.18686e-05 0)
(0.000125152 -5.90223e-05 0)
(0.000128663 -5.61641e-05 0)
(0.000131985 -5.33006e-05 0)
(0.000135117 -5.04379e-05 0)
(0.000138058 -4.75812e-05 0)
(0.000140813 -4.47326e-05 0)
(0.000143385 -4.18952e-05 0)
(0.000145771 -3.9074e-05 0)
(0.00014797 -3.62745e-05 0)
(0.000149984 -3.34948e-05 0)
(0.000151827 -3.07311e-05 0)
(0.000153509 -2.79789e-05 0)
(0.000155037 -2.52335e-05 0)
(0.000156405 -2.24908e-05 0)
(0.000157606 -1.97475e-05 0)
(0.000158646 -1.70034e-05 0)
(0.000159508 -1.42584e-05 0)
(0.000160187 -1.15136e-05 0)
(0.000160684 -8.77169e-06 0)
(0.000160973 -6.0366e-06 0)
(0.000161039 -3.30958e-06 0)
(0.000160852 -6.08159e-07 0)
(0.000160422 2.06178e-06 0)
(0.000159782 4.69845e-06 0)
(0.000158921 7.29595e-06 0)
(0.000157835 9.84826e-06 0)
(0.000156522 1.23473e-05 0)
(0.000154984 1.47844e-05 0)
(0.000153221 1.71506e-05 0)
(0.000151232 1.94366e-05 0)
(0.000149022 2.16327e-05 0)
(0.000146592 2.37291e-05 0)
(0.000143955 2.57166e-05 0)
(0.000141113 2.7587e-05 0)
(0.000138074 2.93321e-05 0)
(0.000134851 3.09454e-05 0)
(0.000131455 3.24211e-05 0)
(0.000127897 3.37541e-05 0)
(0.000124192 3.49369e-05 0)
(0.000120353 3.59741e-05 0)
(0.000116392 3.6862e-05 0)
(0.000112337 3.75991e-05 0)
(0.000108196 3.81849e-05 0)
(0.000103974 3.86233e-05 0)
(9.96893e-05 3.89115e-05 0)
(9.53665e-05 3.90631e-05 0)
(9.10179e-05 3.90791e-05 0)
(8.66591e-05 3.89648e-05 0)
(8.23041e-05 3.87243e-05 0)
(7.79633e-05 3.83639e-05 0)
(7.36464e-05 3.78917e-05 0)
(6.93619e-05 3.73196e-05 0)
(6.51339e-05 3.66473e-05 0)
(6.09675e-05 3.58873e-05 0)
(5.68709e-05 3.50524e-05 0)
(5.28569e-05 3.41406e-05 0)
(4.89327e-05 3.31684e-05 0)
(4.51042e-05 3.21417e-05 0)
(4.13855e-05 3.10682e-05 0)
(3.77666e-05 2.99569e-05 0)
(3.42657e-05 2.88131e-05 0)
(3.08912e-05 2.76467e-05 0)
(2.76289e-05 2.6464e-05 0)
(2.44925e-05 2.5265e-05 0)
(2.14829e-05 2.40667e-05 0)
(1.86033e-05 2.2869e-05 0)
(1.5855e-05 2.16725e-05 0)
(1.32357e-05 2.04922e-05 0)
(1.07481e-05 1.93238e-05 0)
(8.38095e-06 1.81759e-05 0)
(6.14874e-06 1.70505e-05 0)
(4.05594e-06 1.59484e-05 0)
(2.07932e-06 1.48773e-05 0)
(2.30802e-07 1.38351e-05 0)
(-1.49519e-06 1.28265e-05 0)
(-3.10703e-06 1.18507e-05 0)
(-4.60092e-06 1.09098e-05 0)
(-5.97929e-06 1.00045e-05 0)
(-7.24899e-06 9.1366e-06 0)
(-8.41147e-06 8.30655e-06 0)
(-9.46977e-06 7.51492e-06 0)
(-1.04296e-05 6.76181e-06 0)
(-1.12924e-05 6.04721e-06 0)
(-1.20624e-05 5.37094e-06 0)
(-1.27434e-05 4.73282e-06 0)
(-1.33393e-05 4.13207e-06 0)
(-1.38544e-05 3.56842e-06 0)
(-1.42925e-05 3.04049e-06 0)
(-1.46576e-05 2.54736e-06 0)
(-1.49542e-05 2.08788e-06 0)
(-1.51853e-05 1.66206e-06 0)
(-1.53545e-05 1.26789e-06 0)
(-1.54667e-05 9.04508e-07 0)
(-1.55245e-05 5.70772e-07 0)
(-1.55317e-05 2.64954e-07 0)
(-1.54944e-05 -1.39345e-08 0)
(-1.54145e-05 -2.67251e-07 0)
(-1.52936e-05 -4.95788e-07 0)
(-1.51359e-05 -7.0072e-07 0)
(-1.49447e-05 -8.83278e-07 0)
(-1.47229e-05 -1.04464e-06 0)
(-1.44735e-05 -1.18596e-06 0)
(-1.41995e-05 -1.30839e-06 0)
(-1.39035e-05 -1.41302e-06 0)
(-1.35883e-05 -1.5009e-06 0)
(-1.32565e-05 -1.57308e-06 0)
(-1.29105e-05 -1.63057e-06 0)
(-1.2553e-05 -1.67438e-06 0)
(-1.2186e-05 -1.70555e-06 0)
(-1.1812e-05 -1.7251e-06 0)
(-1.14329e-05 -1.73409e-06 0)
(-1.10506e-05 -1.73355e-06 0)
(-1.06669e-05 -1.7245e-06 0)
(-1.02835e-05 -1.70793e-06 0)
(-9.90173e-06 -1.68475e-06 0)
(-9.5228e-06 -1.65583e-06 0)
(-9.14791e-06 -1.62192e-06 0)
(-8.77807e-06 -1.58373e-06 0)
(-8.41416e-06 -1.54184e-06 0)
(-8.05706e-06 -1.49679e-06 0)
(-7.70762e-06 -1.4491e-06 0)
(-7.3665e-06 -1.39922e-06 0)
(-7.03435e-06 -1.34761e-06 0)
(-6.7118e-06 -1.29475e-06 0)
(-6.39929e-06 -1.24114e-06 0)
(-6.09717e-06 -1.18726e-06 0)
(-5.80567e-06 -1.13362e-06 0)
(-5.52483e-06 -1.08065e-06 0)
(-5.25456e-06 -1.0287e-06 0)
(-4.99474e-06 -9.78e-07 0)
(-4.74513e-06 -9.28647e-07 0)
(-4.50558e-06 -8.80629e-07 0)
(-4.27594e-06 -8.33861e-07 0)
(-4.05613e-06 -7.88235e-07 0)
(-3.84617e-06 -7.43691e-07 0)
(-3.64606e-06 -7.00219e-07 0)
(-3.4558e-06 -6.57881e-07 0)
(-3.27537e-06 -6.16798e-07 0)
(-3.10458e-06 -5.77094e-07 0)
(-2.94324e-06 -5.38851e-07 0)
(-2.79111e-06 -5.02109e-07 0)
(-2.64796e-06 -4.66878e-07 0)
(-2.51355e-06 -4.33151e-07 0)
(-2.38769e-06 -4.00946e-07 0)
(-2.27016e-06 -3.70353e-07 0)
(-2.16069e-06 -3.41518e-07 0)
(-2.05891e-06 -3.14655e-07 0)
(-1.96431e-06 -2.89993e-07 0)
(-1.87626e-06 -2.67692e-07 0)
(-1.79403e-06 -2.47792e-07 0)
(-1.71691e-06 -2.30194e-07 0)
(-1.64427e-06 -2.14741e-07 0)
(-1.57557e-06 -2.01283e-07 0)
(-1.51036e-06 -1.89799e-07 0)
(-1.44815e-06 -1.80444e-07 0)
(-1.38828e-06 -1.7357e-07 0)
(-1.32979e-06 -1.69558e-07 0)
(-1.27149e-06 -1.68695e-07 0)
(-1.21202e-06 -1.71015e-07 0)
(-1.14993e-06 -1.76196e-07 0)
(-1.08399e-06 -1.83505e-07 0)
(-1.01342e-06 -1.91862e-07 0)
(-9.37932e-07 -2.00085e-07 0)
(-8.57811e-07 -2.06997e-07 0)
(-7.73809e-07 -2.11686e-07 0)
(-6.87129e-07 -2.13366e-07 0)
(-5.99158e-07 -2.11575e-07 0)
(-5.11437e-07 -2.05832e-07 0)
(-4.26009e-07 -1.95758e-07 0)
(-3.44996e-07 -1.81504e-07 0)
(-2.7042e-07 -1.63733e-07 0)
(-2.04263e-07 -1.43925e-07 0)
(-1.47649e-07 -1.2474e-07 0)
(-1.00125e-07 -1.09086e-07 0)
(-5.8549e-08 -9.9437e-08 0)
(-1.9332e-08 -9.5398e-08 0)
(3.50423e-06 -0.000148119 0)
(1.05635e-05 -0.000148269 0)
(1.76672e-05 -0.000147683 0)
(2.47865e-05 -0.000146796 0)
(3.19293e-05 -0.00014561 0)
(3.90361e-05 -0.000144127 0)
(4.60981e-05 -0.000142348 0)
(5.30972e-05 -0.000140285 0)
(5.99773e-05 -0.000137948 0)
(6.67645e-05 -0.000135345 0)
(7.34083e-05 -0.000132503 0)
(7.9904e-05 -0.000129425 0)
(8.62293e-05 -0.000126135 0)
(9.23731e-05 -0.000122647 0)
(9.83172e-05 -0.000118991 0)
(0.000104013 -0.00011519 0)
(0.000109471 -0.000111267 0)
(0.000114674 -0.00010725 0)
(0.000119617 -0.000103159 0)
(0.000124303 -9.90174e-05 0)
(0.000128734 -9.48433e-05 0)
(0.000132918 -9.0654e-05 0)
(0.000136866 -8.64644e-05 0)
(0.000140572 -8.22862e-05 0)
(0.000144043 -7.81323e-05 0)
(0.000147298 -7.4008e-05 0)
(0.000150334 -6.99289e-05 0)
(0.000153155 -6.59036e-05 0)
(0.000155782 -6.19399e-05 0)
(0.000158224 -5.80447e-05 0)
(0.000160469 -5.42198e-05 0)
(0.000162503 -5.04647e-05 0)
(0.00016435 -4.67653e-05 0)
(0.000166055 -4.31044e-05 0)
(0.000167633 -3.94669e-05 0)
(0.00016909 -3.58372e-05 0)
(0.000170426 -3.22038e-05 0)
(0.00017163 -2.85611e-05 0)
(0.000172683 -2.48991e-05 0)
(0.000173573 -2.12212e-05 0)
(0.000174287 -1.75253e-05 0)
(0.000174808 -1.38106e-05 0)
(0.000175122 -1.00878e-05 0)
(0.000175228 -6.36529e-06 0)
(0.000175064 -2.64478e-06 0)
(0.000174594 1.0487e-06 0)
(0.000173873 4.72283e-06 0)
(0.00017291 8.36587e-06 0)
(0.000171698 1.19658e-05 0)
(0.000170229 1.55085e-05 0)
(0.000168496 1.89794e-05 0)
(0.000166498 2.23628e-05 0)
(0.000164236 2.56411e-05 0)
(0.000161711 2.87979e-05 0)
(0.000158927 3.18172e-05 0)
(0.000155891 3.46835e-05 0)
(0.000152615 3.7384e-05 0)
(0.000149112 3.9907e-05 0)
(0.000145396 4.22417e-05 0)
(0.000141482 4.43756e-05 0)
(0.000137387 4.6307e-05 0)
(0.000133115 4.80272e-05 0)
(0.000128712 4.95326e-05 0)
(0.000124202 5.08243e-05 0)
(0.000119575 5.18889e-05 0)
(0.000114855 5.2747e-05 0)
(0.00011007 5.33871e-05 0)
(0.000105226 5.38208e-05 0)
(0.000100368 5.40555e-05 0)
(9.55122e-05 5.40943e-05 0)
(9.0657e-05 5.39477e-05 0)
(8.58247e-05 5.36218e-05 0)
(8.10024e-05 5.31265e-05 0)
(7.62467e-05 5.2475e-05 0)
(7.15701e-05 5.16763e-05 0)
(6.69606e-05 5.07454e-05 0)
(6.24416e-05 4.96938e-05 0)
(5.80221e-05 4.85262e-05 0)
(5.37059e-05 4.72681e-05 0)
(4.95103e-05 4.59232e-05 0)
(4.54423e-05 4.45067e-05 0)
(4.14951e-05 4.30216e-05 0)
(3.76792e-05 4.14887e-05 0)
(3.40013e-05 3.99103e-05 0)
(3.04637e-05 3.83034e-05 0)
(2.70732e-05 3.66695e-05 0)
(2.38112e-05 3.50252e-05 0)
(2.07018e-05 3.33689e-05 0)
(1.77512e-05 3.17241e-05 0)
(1.49192e-05 3.00833e-05 0)
(1.22457e-05 2.84603e-05 0)
(9.71745e-06 2.68532e-05 0)
(7.32011e-06 2.52782e-05 0)
(5.06773e-06 2.37298e-05 0)
(2.94494e-06 2.22201e-05 0)
(9.59082e-07 2.07479e-05 0)
(-8.92645e-07 1.93175e-05 0)
(-2.6165e-06 1.79318e-05 0)
(-4.21689e-06 1.659e-05 0)
(-5.69878e-06 1.52961e-05 0)
(-7.06631e-06 1.40523e-05 0)
(-8.3203e-06 1.28586e-05 0)
(-9.46326e-06 1.17158e-05 0)
(-1.05005e-05 1.06252e-05 0)
(-1.14362e-05 9.58576e-06 0)
(-1.22745e-05 8.59942e-06 0)
(-1.30191e-05 7.66522e-06 0)
(-1.36741e-05 6.78306e-06 0)
(-1.42437e-05 5.9523e-06 0)
(-1.47323e-05 5.17041e-06 0)
(-1.51447e-05 4.43736e-06 0)
(-1.54851e-05 3.75256e-06 0)
(-1.57572e-05 3.11478e-06 0)
(-1.59629e-05 2.52204e-06 0)
(-1.61078e-05 1.97271e-06 0)
(-1.61971e-05 1.46507e-06 0)
(-1.62326e-05 9.97811e-07 0)
(-1.62195e-05 5.69446e-07 0)
(-1.61605e-05 1.78072e-07 0)
(-1.60589e-05 -1.79879e-07 0)
(-1.59185e-05 -5.03229e-07 0)
(-1.57414e-05 -7.94174e-07 0)
(-1.55313e-05 -1.05444e-06 0)
(-1.52911e-05 -1.28574e-06 0)
(-1.5024e-05 -1.48965e-06 0)
(-1.47326e-05 -1.66769e-06 0)
(-1.44196e-05 -1.82135e-06 0)
(-1.40876e-05 -1.95203e-06 0)
(-1.37392e-05 -2.06106e-06 0)
(-1.33768e-05 -2.14973e-06 0)
(-1.30028e-05 -2.21933e-06 0)
(-1.26198e-05 -2.27114e-06 0)
(-1.22299e-05 -2.30651e-06 0)
(-1.18352e-05 -2.32679e-06 0)
(-1.14379e-05 -2.3334e-06 0)
(-1.10397e-05 -2.32773e-06 0)
(-1.06422e-05 -2.31118e-06 0)
(-1.0247e-05 -2.2851e-06 0)
(-9.85517e-06 -2.25072e-06 0)
(-9.46785e-06 -2.20918e-06 0)
(-9.08598e-06 -2.16147e-06 0)
(-8.71036e-06 -2.10847e-06 0)
(-8.34173e-06 -2.05089e-06 0)
(-7.98085e-06 -1.98938e-06 0)
(-7.62846e-06 -1.92454e-06 0)
(-7.28519e-06 -1.85691e-06 0)
(-6.95168e-06 -1.78707e-06 0)
(-6.62855e-06 -1.71563e-06 0)
(-6.31627e-06 -1.64326e-06 0)
(-6.01516e-06 -1.57066e-06 0)
(-5.72537e-06 -1.49857e-06 0)
(-5.44682e-06 -1.42763e-06 0)
(-5.17924e-06 -1.35835e-06 0)
(-4.92227e-06 -1.29105e-06 0)
(-4.6755e-06 -1.22579e-06 0)
(-4.43861e-06 -1.16245e-06 0)
(-4.21142e-06 -1.1008e-06 0)
(-3.99387e-06 -1.04059e-06 0)
(-3.78605e-06 -9.81686e-07 0)
(-3.58809e-06 -9.24085e-07 0)
(-3.40008e-06 -8.67912e-07 0)
(-3.22202e-06 -8.13395e-07 0)
(-3.05371e-06 -7.60742e-07 0)
(-2.89488e-06 -7.10103e-07 0)
(-2.74525e-06 -6.6152e-07 0)
(-2.60453e-06 -6.14945e-07 0)
(-2.47248e-06 -5.70321e-07 0)
(-2.34899e-06 -5.27628e-07 0)
(-2.23393e-06 -4.86964e-07 0)
(-2.12712e-06 -4.48554e-07 0)
(-2.02822e-06 -4.12762e-07 0)
(-1.93671e-06 -3.79991e-07 0)
(-1.85179e-06 -3.50518e-07 0)
(-1.77258e-06 -3.24397e-07 0)
(-1.69824e-06 -3.01411e-07 0)
(-1.62812e-06 -2.81237e-07 0)
(-1.56176e-06 -2.63538e-07 0)
(-1.4989e-06 -2.48233e-07 0)
(-1.43928e-06 -2.35549e-07 0)
(-1.38239e-06 -2.26102e-07 0)
(-1.32722e-06 -2.20587e-07 0)
(-1.27237e-06 -2.19562e-07 0)
(-1.21613e-06 -2.23173e-07 0)
(-1.15665e-06 -2.3098e-07 0)
(-1.0923e-06 -2.41915e-07 0)
(-1.02209e-06 -2.54334e-07 0)
(-9.45749e-07 -2.66492e-07 0)
(-8.63748e-07 -2.76616e-07 0)
(-7.77088e-07 -2.83569e-07 0)
(-6.87223e-07 -2.86243e-07 0)
(-5.95694e-07 -2.84235e-07 0)
(-5.04059e-07 -2.76781e-07 0)
(-4.1465e-07 -2.63195e-07 0)
(-3.30094e-07 -2.43453e-07 0)
(-2.53026e-07 -2.18204e-07 0)
(-1.86369e-07 -1.89616e-07 0)
(-1.31893e-07 -1.61965e-07 0)
(-8.8948e-08 -1.39896e-07 0)
(-5.29395e-08 -1.27086e-07 0)
(-1.78893e-08 -1.23186e-07 0)
(4.68624e-06 -0.00020169 0)
(1.41036e-05 -0.000201657 0)
(2.35634e-05 -0.000200545 0)
(3.2992e-05 -0.000198871 0)
(4.23357e-05 -0.000196633 0)
(5.15844e-05 -0.000193862 0)
(6.06658e-05 -0.000190554 0)
(6.95221e-05 -0.000186767 0)
(7.81587e-05 -0.000182504 0)
(8.64784e-05 -0.000177805 0)
(9.45138e-05 -0.000172717 0)
(0.00010227 -0.000167303 0)
(0.000109672 -0.000161606 0)
(0.000116695 -0.000155715 0)
(0.000123288 -0.000149661 0)
(0.000129464 -0.000143533 0)
(0.000135204 -0.000137364 0)
(0.000140522 -0.000131217 0)
(0.000145441 -0.000125137 0)
(0.000149967 -0.000119158 0)
(0.000154133 -0.000113309 0)
(0.000157959 -0.000107606 0)
(0.000161472 -0.000102058 0)
(0.000164681 -9.66685e-05 0)
(0.000167621 -9.14319e-05 0)
(0.000170279 -8.63475e-05 0)
(0.000172644 -8.14117e-05 0)
(0.000174755 -7.65973e-05 0)
(0.000176622 -7.19292e-05 0)
(0.000178283 -6.74053e-05 0)
(0.000179773 -6.30237e-05 0)
(0.00018116 -5.87341e-05 0)
(0.000182516 -5.45223e-05 0)
(0.000183847 -5.03372e-05 0)
(0.000185156 -4.61439e-05 0)
(0.000186432 -4.19186e-05 0)
(0.000187635 -3.76435e-05 0)
(0.000188748 -3.33035e-05 0)
(0.000189727 -2.88894e-05 0)
(0.000190539 -2.43986e-05 0)
(0.000191185 -1.98317e-05 0)
(0.000191609 -1.52146e-05 0)
(0.000191774 -1.05402e-05 0)
(0.000191695 -5.82498e-06 0)
(0.000191288 -1.10905e-06 0)
(0.000190562 3.61719e-06 0)
(0.000189585 8.33612e-06 0)
(0.000188314 1.30407e-05 0)
(0.000186731 1.77011e-05 0)
(0.000184829 2.22907e-05 0)
(0.0001826 2.6782e-05 0)
(0.000180039 3.11459e-05 0)
(0.000177148 3.53594e-05 0)
(0.000173936 3.93981e-05 0)
(0.000170412 4.3234e-05 0)
(0.000166596 4.68575e-05 0)
(0.000162514 5.0243e-05 0)
(0.000158179 5.33748e-05 0)
(0.000153598 5.62407e-05 0)
(0.000148817 5.88305e-05 0)
(0.000143859 6.11383e-05 0)
(0.000138733 6.31581e-05 0)
(0.000133487 6.48829e-05 0)
(0.000128103 6.6313e-05 0)
(0.000122653 6.7453e-05 0)
(0.000117167 6.83075e-05 0)
(0.000111628 6.8879e-05 0)
(0.000106097 6.91905e-05 0)
(0.000100569 6.92482e-05 0)
(9.50723e-05 6.9051e-05 0)
(8.9626e-05 6.86211e-05 0)
(8.42423e-05 6.79678e-05 0)
(7.89502e-05 6.71109e-05 0)
(7.37609e-05 6.60691e-05 0)
(6.86859e-05 6.48558e-05 0)
(6.37352e-05 6.34872e-05 0)
(5.89041e-05 6.19738e-05 0)
(5.42325e-05 6.03429e-05 0)
(4.97214e-05 5.86036e-05 0)
(4.53561e-05 5.67774e-05 0)
(4.11406e-05 5.48698e-05 0)
(3.70901e-05 5.28958e-05 0)
(3.3215e-05 5.08727e-05 0)
(2.94959e-05 4.88125e-05 0)
(2.59462e-05 4.67271e-05 0)
(2.25711e-05 4.46297e-05 0)
(1.93461e-05 4.25181e-05 0)
(1.6301e-05 4.04294e-05 0)
(1.34235e-05 3.83426e-05 0)
(1.06875e-05 3.62827e-05 0)
(8.11099e-06 3.42524e-05 0)
(5.69359e-06 3.22511e-05 0)
(3.42835e-06 3.02954e-05 0)
(1.2974e-06 2.83838e-05 0)
(-6.79854e-07 2.65242e-05 0)
(-2.51642e-06 2.47187e-05 0)
(-4.22439e-06 2.29672e-05 0)
(-5.80491e-06 2.12725e-05 0)
(-7.26026e-06 1.96371e-05 0)
(-8.59401e-06 1.80636e-05 0)
(-9.81162e-06 1.65537e-05 0)
(-1.09171e-05 1.51094e-05 0)
(-1.1915e-05 1.37304e-05 0)
(-1.28103e-05 1.24174e-05 0)
(-1.36054e-05 1.11689e-05 0)
(-1.43058e-05 9.98526e-06 0)
(-1.49165e-05 8.8668e-06 0)
(-1.5441e-05 7.81143e-06 0)
(-1.58877e-05 6.81777e-06 0)
(-1.6259e-05 5.88603e-06 0)
(-1.65558e-05 5.0148e-06 0)
(-1.67838e-05 4.20162e-06 0)
(-1.69491e-05 3.44512e-06 0)
(-1.70567e-05 2.7439e-06 0)
(-1.71088e-05 2.09453e-06 0)
(-1.71083e-05 1.4961e-06 0)
(-1.70594e-05 9.46177e-07 0)
(-1.69658e-05 4.42643e-07 0)
(-1.68343e-05 -1.65837e-08 0)
(-1.6665e-05 -4.33937e-07 0)
(-1.64579e-05 -8.1061e-07 0)
(-1.62193e-05 -1.14883e-06 0)
(-1.59521e-05 -1.4507e-06 0)
(-1.5659e-05 -1.71828e-06 0)
(-1.53427e-05 -1.95349e-06 0)
(-1.50057e-05 -2.15817e-06 0)
(-1.46505e-05 -2.33406e-06 0)
(-1.42795e-05 -2.48277e-06 0)
(-1.3895e-05 -2.6058e-06 0)
(-1.34993e-05 -2.70463e-06 0)
(-1.30949e-05 -2.78068e-06 0)
(-1.26841e-05 -2.83545e-06 0)
(-1.2269e-05 -2.87053e-06 0)
(-1.1852e-05 -2.88759e-06 0)
(-1.1435e-05 -2.88839e-06 0)
(-1.10196e-05 -2.87471e-06 0)
(-1.06075e-05 -2.84833e-06 0)
(-1.01999e-05 -2.81096e-06 0)
(-9.79774e-06 -2.76414e-06 0)
(-9.40182e-06 -2.70928e-06 0)
(-9.01284e-06 -2.64754e-06 0)
(-8.63138e-06 -2.57989e-06 0)
(-8.25796e-06 -2.50712e-06 0)
(-7.89319e-06 -2.42991e-06 0)
(-7.53775e-06 -2.34884e-06 0)
(-7.19223e-06 -2.2645e-06 0)
(-6.85729e-06 -2.17753e-06 0)
(-6.53362e-06 -2.08862e-06 0)
(-6.22173e-06 -1.9986e-06 0)
(-5.92198e-06 -1.90846e-06 0)
(-5.63446e-06 -1.8192e-06 0)
(-5.3589e-06 -1.73175e-06 0)
(-5.09478e-06 -1.64683e-06 0)
(-4.84142e-06 -1.56484e-06 0)
(-4.59809e-06 -1.48574e-06 0)
(-4.3643e-06 -1.40921e-06 0)
(-4.13978e-06 -1.33473e-06 0)
(-3.92458e-06 -1.26183e-06 0)
(-3.71899e-06 -1.19027e-06 0)
(-3.52329e-06 -1.12008e-06 0)
(-3.33773e-06 -1.0515e-06 0)
(-3.16236e-06 -9.84923e-07 0)
(-2.99691e-06 -9.20742e-07 0)
(-2.84099e-06 -8.59174e-07 0)
(-2.69417e-06 -8.00184e-07 0)
(-2.55613e-06 -7.43684e-07 0)
(-2.42666e-06 -6.8952e-07 0)
(-2.3057e-06 -6.37537e-07 0)
(-2.19328e-06 -5.87823e-07 0)
(-2.08939e-06 -5.40709e-07 0)
(-1.99378e-06 -4.96784e-07 0)
(-1.90587e-06 -4.567e-07 0)
(-1.82466e-06 -4.20926e-07 0)
(-1.74897e-06 -3.8954e-07 0)
(-1.67777e-06 -3.6212e-07 0)
(-1.61033e-06 -3.38089e-07 0)
(-1.54636e-06 -3.16761e-07 0)
(-1.48589e-06 -2.97978e-07 0)
(-1.42904e-06 -2.82012e-07 0)
(-1.37551e-06 -2.69889e-07 0)
(-1.32428e-06 -2.6276e-07 0)
(-1.27366e-06 -2.61608e-07 0)
(-1.22144e-06 -2.66756e-07 0)
(-1.16522e-06 -2.77652e-07 0)
(-1.10283e-06 -2.92824e-07 0)
(-1.03301e-06 -3.09916e-07 0)
(-9.5551e-07 -3.26578e-07 0)
(-8.71142e-07 -3.40194e-07 0)
(-7.81256e-07 -3.49651e-07 0)
(-6.87667e-07 -3.5347e-07 0)
(-5.92065e-07 -3.51535e-07 0)
(-4.95819e-07 -3.42741e-07 0)
(-4.01546e-07 -3.26009e-07 0)
(-3.12364e-07 -3.00847e-07 0)
(-2.31834e-07 -2.67621e-07 0)
(-1.64415e-07 -2.29189e-07 0)
(-1.12814e-07 -1.92064e-07 0)
(-7.59575e-08 -1.63522e-07 0)
(-4.73284e-08 -1.48177e-07 0)
(-1.69111e-08 -1.4584e-07 0)
(6.7719e-06 -0.000267849 0)
(2.03036e-05 -0.000267371 0)
(3.38056e-05 -0.000265335 0)
(4.72072e-05 -0.000262277 0)
(6.03218e-05 -0.000258216 0)
(7.3113e-05 -0.000253199 0)
(8.54339e-05 -0.000247305 0)
(9.72293e-05 -0.000240617 0)
(0.000108555 -0.000233198 0)
(0.000119218 -0.000225075 0)
(0.000129079 -0.000216401 0)
(0.000138158 -0.000207358 0)
(0.000146331 -0.000198084 0)
(0.000153669 -0.000188761 0)