/*--------------------------------*- C++ -*----------------------------------*\
  =========                 |
  \\      /  F ield         | OpenFOAM: The Open Source CFD Toolbox
   \\    /   O peration     | Website:  https://openfoam.org
    \\  /    A nd           | Version:  12
     \\/     M anipulation  |
\*---------------------------------------------------------------------------*/
FoamFile
{
    format      ascii;
    class       volVectorField;
    location    "1";
    object      zeta;
}
// * * * * * * * * * * * * * * * * * * * * * * * * * * * * * * * * * * * * * //

dimensions      [0 1 0 0 0 0 0];

internalField   uniform (0 0 0);

boundaryField
{
    freeSurface
    {
        type            calculated;
        value           nonuniform List<vector> 
181
(
(0 0.000303086 0)
(0 0.000303038 0)
(0 0.000302983 0)
(0 0.000302924 0)
(0 0.000302842 0)
(0 0.000302799 0)
(0 0.000302737 0)
(0 0.000302702 0)
(0 0.00011938 0)
(0 0.000119557 0)
(0 0.000120639 0)
(0 0.000121824 0)
(0 0.0001233 0)
(0 0.000124995 0)
(0 0.000126787 0)
(0 0.000128564 0)
(0 0.000130227 0)
(0 0.000131671 0)
(0 0.000132802 0)
(0 0.000133536 0)
(0 0.000133812 0)
(0 0.000133573 0)
(0 0.000132783 0)
(0 0.000131425 0)
(0 0.000129491 0)
(0 0.000126993 0)
(0 0.000123957 0)
(0 0.00012042 0)
(0 0.000116428 0)
(0 0.000112044 0)
(0 0.000107327 0)
(0 0.000102338 0)
(0 9.71483e-05 0)
(0 9.18236e-05 0)
(0 8.64149e-05 0)
(0 8.09813e-05 0)
(0 7.55737e-05 0)
(0 7.02308e-05 0)
(0 6.49887e-05 0)
(0 5.98789e-05 0)
(0 5.49236e-05 0)
(0 5.01444e-05 0)
(0 4.55561e-05 0)
(0 4.11702e-05 0)
(0 3.69891e-05 0)
(0 3.30193e-05 0)
(0 2.92635e-05 0)
(0 2.57141e-05 0)
(0 2.2368e-05 0)
(0 1.92228e-05 0)
(0 1.62684e-05 0)
(0 1.35e-05 0)
(0 1.09077e-05 0)
(0 8.4832e-06 0)
(0 6.21823e-06 0)
(0 4.10433e-06 0)
(0 2.13416e-06 0)
(0 3.00087e-07 0)
(0 -1.40501e-06 0)
(0 -2.98734e-06 0)
(0 -4.45376e-06 0)
(0 -5.81057e-06 0)
(0 -7.06275e-06 0)
(0 -8.21683e-06 0)
(0 -9.27836e-06 0)
(0 -1.02544e-05 0)
(0 -1.1151e-05 0)
(0 -1.19724e-05 0)
(0 -1.27216e-05 0)
(0 -1.34003e-05 0)
(0 -1.40111e-05 0)
(0 -1.45591e-05 0)
(0 -1.50505e-05 0)
(0 -1.54916e-05 0)
(0 -1.58884e-05 0)
(0 -1.62451e-05 0)
(0 -1.65635e-05 0)
(0 -1.6844e-05 0)
(0 -1.70866e-05 0)
(0 -1.72897e-05 0)
(0 -1.7452e-05 0)
(0 -1.75739e-05 0)
(0 -1.76575e-05 0)
(0 -1.77068e-05 0)
(0 -1.7728e-05 0)
(0 -1.77256e-05 0)
(0 -1.7703e-05 0)
(0 -1.76615e-05 0)
(0 -1.76016e-05 0)
(0 -1.75244e-05 0)
(0 -1.74332e-05 0)
(0 -1.73316e-05 0)
(0 -1.72217e-05 0)
(0 -1.71052e-05 0)
(0 -1.69796e-05 0)
(0 -1.68432e-05 0)
(0 -1.66935e-05 0)
(0 -1.65313e-05 0)
(0 -1.63603e-05 0)
(0 -1.61845e-05 0)
(0 -1.60064e-05 0)
(0 -1.58264e-05 0)
(0 -1.56431e-05 0)
(0 -1.54557e-05 0)
(0 -1.52656e-05 0)
(0 -1.50744e-05 0)
(0 -1.48847e-05 0)
(0 -1.46971e-05 0)
(0 -1.45116e-05 0)
(0 -1.43259e-05 0)
(0 -1.41395e-05 0)
(0 -1.39542e-05 0)
(0 -1.37725e-05 0)
(0 -1.35971e-05 0)
(0 -1.34283e-05 0)
(0 -1.32622e-05 0)
(0 -1.30961e-05 0)
(0 -1.2927e-05 0)
(0 -1.27574e-05 0)
(0 -1.25924e-05 0)
(0 -1.24363e-05 0)
(0 -1.22902e-05 0)
(0 -1.21535e-05 0)
(0 -1.20225e-05 0)
(0 -1.18944e-05 0)
(0 -1.1769e-05 0)
(0 -1.16424e-05 0)
(0 -1.15167e-05 0)
(0 -1.13923e-05 0)
(0 -1.12731e-05 0)
(0 -1.11632e-05 0)
(0 -1.10643e-05 0)
(0 -1.09748e-05 0)
(0 -1.08908e-05 0)
(0 -1.08102e-05 0)
(0 -1.07302e-05 0)
(0 -1.06523e-05 0)
(0 -1.05776e-05 0)
(0 -1.05088e-05 0)
(0 -1.04448e-05 0)
(0 -1.03828e-05 0)
(0 -1.03205e-05 0)
(0 -1.02582e-05 0)
(0 -1.01986e-05 0)
(0 -1.01454e-05 0)
(0 -1.01008e-05 0)
(0 -1.00621e-05 0)
(0 -1.00245e-05 0)
(0 -9.98398e-06 0)
(0 -9.93798e-06 0)
(0 -9.88936e-06 0)
(0 -9.8452e-06 0)
(0 -9.80992e-06 0)
(0 -9.78381e-06 0)
(0 -9.76537e-06 0)
(0 -9.74981e-06 0)
(0 -9.73164e-06 0)
(0 -9.71475e-06 0)
(0 -9.69868e-06 0)
(0 -9.68787e-06 0)
(0 -9.67879e-06 0)
(0 -9.66648e-06 0)
(0 -9.64889e-06 0)
(0 -9.62654e-06 0)
(0 -9.60292e-06 0)
(0 -9.58482e-06 0)
(0 -9.57542e-06 0)
(0 -9.57376e-06 0)
(0 -9.58259e-06 0)
(0 -9.5996e-06 0)
(0 -9.62608e-06 0)
(0 -9.65923e-06 0)
(0 -9.69637e-06 0)
(0 -9.73188e-06 0)
(0 -9.75856e-06 0)
(0 -9.76825e-06 0)
(0 -9.75195e-06 0)
(0 -9.709e-06 0)
(0 -9.65678e-06 0)
(0 -9.63107e-06 0)
(0 -9.6339e-06 0)
)
;
    }
    walls
    {
        type            calculated;
        value           uniform (0 0 0);
    }
    floatingObject
    {
        type            calculated;
        value           uniform (0 0 0);
    }
    frontAndBack
    {
        type            empty;
    }
}


// ************************************************************************* //
