#           v             n
     0.523599   2.06473e-06
     0.648652   9.26695e-07
     0.790112    1.5271e-06
     0.953116   2.66657e-06
      1.13449   4.69128e-06
      1.34047   8.66283e-06
      1.56672   1.59684e-05
      1.82069   3.05451e-05
      2.09677   5.76513e-05
      2.40376   0.000111401
      2.73462   0.000209359
      3.09966   0.000396302
      3.49026    0.00071639
      3.91837    0.00127806
      4.37366    0.00212595
      4.86986     0.0033985
       5.3948    0.00490389
      5.96412    0.00656322
      6.56366    0.00758857
      7.21112    0.00778142
      7.89023    0.00652913
      8.62085    0.00459373
      9.38447    0.00233557
      10.2033   0.000691725
      11.0564             0
      11.9684             0
      12.9159             0
      13.9262             0
      14.9731             0
