/*--------------------------------*- C++ -*----------------------------------*\
  =========                 |
  \\      /  F ield         | OpenFOAM: The Open Source CFD Toolbox
   \\    /   O peration     | Website:  https://openfoam.org
    \\  /    A nd           | Version:  12
     \\/     M anipulation  |
\*---------------------------------------------------------------------------*/
FoamFile
{
    format      ascii;
    class       volVectorField;
    location    "4.68";
    object      zeta;
}
// * * * * * * * * * * * * * * * * * * * * * * * * * * * * * * * * * * * * * //

dimensions      [0 1 0 0 0 0 0];

internalField   uniform (0 0 0);

boundaryField
{
    freeSurface
    {
        type            calculated;
        value           nonuniform List<vector> 
181
(
(0 -0.00104226 0)
(0 -0.00104189 0)
(0 -0.00104168 0)
(0 -0.00104158 0)
(0 -0.00104138 0)
(0 -0.00104123 0)
(0 -0.00104106 0)
(0 -0.00104107 0)
(0 0.000307827 0)
(0 0.000300312 0)
(0 0.00029296 0)
(0 0.000283194 0)
(0 0.000267198 0)
(0 0.000249141 0)
(0 0.000227162 0)
(0 0.000202235 0)
(0 0.000174444 0)
(0 0.000144106 0)
(0 0.000111484 0)
(0 7.68972e-05 0)
(0 4.06201e-05 0)
(0 2.97019e-06 0)
(0 -3.5616e-05 0)
(0 -7.47531e-05 0)
(0 -0.000114 0)
(0 -0.000153012 0)
(0 -0.000191411 0)
(0 -0.000228845 0)
(0 -0.000264902 0)
(0 -0.000299213 0)
(0 -0.000331404 0)
(0 -0.000361103 0)
(0 -0.000387939 0)
(0 -0.000411596 0)
(0 -0.000431797 0)
(0 -0.000448223 0)
(0 -0.0004607 0)
(0 -0.000468922 0)
(0 -0.00047272 0)
(0 -0.000472036 0)
(0 -0.000466748 0)
(0 -0.00045682 0)
(0 -0.000442298 0)
(0 -0.000423279 0)
(0 -0.00039991 0)
(0 -0.000372408 0)
(0 -0.000341068 0)
(0 -0.000306194 0)
(0 -0.000268214 0)
(0 -0.000227568 0)
(0 -0.000184788 0)
(0 -0.000140403 0)
(0 -9.50249e-05 0)
(0 -4.93069e-05 0)
(0 -3.91923e-06 0)
(0 4.04539e-05 0)
(0 8.3107e-05 0)
(0 0.000123384 0)
(0 0.000160609 0)
(0 0.000194115 0)
(0 0.000223334 0)
(0 0.000247717 0)
(0 0.000266809 0)
(0 0.000280266 0)
(0 0.000287795 0)
(0 0.000289213 0)
(0 0.000284496 0)
(0 0.000273722 0)
(0 0.000257126 0)
(0 0.00023503 0)
(0 0.000207916 0)
(0 0.00017641 0)
(0 0.000141219 0)
(0 0.000103179 0)
(0 6.32105e-05 0)
(0 2.22704e-05 0)
(0 -1.86153e-05 0)
(0 -5.84288e-05 0)
(0 -9.61446e-05 0)
(0 -0.000130766 0)
(0 -0.000161357 0)
(0 -0.000187043 0)
(0 -0.000207121 0)
(0 -0.000220988 0)
(0 -0.000228321 0)
(0 -0.000228891 0)
(0 -0.000222795 0)
(0 -0.00021034 0)
(0 -0.000192128 0)
(0 -0.000168906 0)
(0 -0.00014166 0)
(0 -0.000111472 0)
(0 -7.95762e-05 0)
(0 -4.71804e-05 0)
(0 -1.54666e-05 0)
(0 1.44401e-05 0)
(0 4.15556e-05 0)
(0 6.50918e-05 0)
(0 8.44319e-05 0)
(0 9.91862e-05 0)
(0 0.000109161 0)
(0 0.000114386 0)
(0 0.000115049 0)
(0 0.000111531 0)
(0 0.000104312 0)
(0 9.39929e-05 0)
(0 8.11999e-05 0)
(0 6.65939e-05 0)
(0 5.08651e-05 0)
(0 3.46158e-05 0)
(0 1.84323e-05 0)
(0 2.83106e-06 0)
(0 -1.17537e-05 0)
(0 -2.49468e-05 0)
(0 -3.64875e-05 0)
(0 -4.61881e-05 0)
(0 -5.39461e-05 0)
(0 -5.97349e-05 0)
(0 -6.35838e-05 0)
(0 -6.5589e-05 0)
(0 -6.58866e-05 0)
(0 -6.46448e-05 0)
(0 -6.20619e-05 0)
(0 -5.8346e-05 0)
(0 -5.37124e-05 0)
(0 -4.83781e-05 0)
(0 -4.25539e-05 0)
(0 -3.64379e-05 0)
(0 -3.02206e-05 0)
(0 -2.4069e-05 0)
(0 -1.81323e-05 0)
(0 -1.25442e-05 0)
(0 -7.41341e-06 0)
(0 -2.82385e-06 0)
(0 1.1609e-06 0)
(0 4.5009e-06 0)
(0 7.17295e-06 0)
(0 9.17002e-06 0)
(0 1.05011e-05 0)
(0 1.11951e-05 0)
(0 1.12911e-05 0)
(0 1.08366e-05 0)
(0 9.89105e-06 0)
(0 8.52146e-06 0)
(0 6.79345e-06 0)
(0 4.78145e-06 0)
(0 2.55357e-06 0)
(0 1.83408e-07 0)
(0 -2.26219e-06 0)
(0 -4.71836e-06 0)
(0 -7.12625e-06 0)
(0 -9.43383e-06 0)
(0 -1.15914e-05 0)
(0 -1.35547e-05 0)
(0 -1.52854e-05 0)
(0 -1.67562e-05 0)
(0 -1.79506e-05 0)
(0 -1.88614e-05 0)
(0 -1.94875e-05 0)
(0 -1.98307e-05 0)
(0 -1.98954e-05 0)
(0 -1.969e-05 0)
(0 -1.92284e-05 0)
(0 -1.85279e-05 0)
(0 -1.76123e-05 0)
(0 -1.65108e-05 0)
(0 -1.52568e-05 0)
(0 -1.38836e-05 0)
(0 -1.24234e-05 0)
(0 -1.09077e-05 0)
(0 -9.36792e-06 0)
(0 -7.83608e-06 0)
(0 -6.34638e-06 0)
(0 -4.93217e-06 0)
(0 -3.62388e-06 0)
(0 -2.44471e-06 0)
(0 -1.41588e-06 0)
(0 -5.56617e-07 0)
(0 1.12894e-07 0)
(0 5.74233e-07 0)
(0 8.10907e-07 0)
)
;
    }
    walls
    {
        type            calculated;
        value           uniform (0 0 0);
    }
    floatingObject
    {
        type            calculated;
        value           uniform (0 0 0);
    }
    frontAndBack
    {
        type            empty;
    }
}


// ************************************************************************* //
