/*--------------------------------*- C++ -*----------------------------------*\
  =========                 |
  \\      /  F ield         | OpenFOAM: The Open Source CFD Toolbox
   \\    /   O peration     | Website:  https://openfoam.org
    \\  /    A nd           | Version:  12
     \\/     M anipulation  |
\*---------------------------------------------------------------------------*/
FoamFile
{
    format      ascii;
    class       volScalarField;
    location    "900";
    object      epsilon;
}
// * * * * * * * * * * * * * * * * * * * * * * * * * * * * * * * * * * * * * //

dimensions      [0 2 -3 0 0 0 0];

internalField   nonuniform List<scalar> 
80
(
56.5604
340.349
857.134
983.729
851.864
687.166
549.293
442.749
361.247
298.268
248.848
209.457
177.606
151.526
129.936
111.893
96.6893
83.7865
72.7675
63.3046
55.1378
48.0579
41.895
36.5102
31.7886
27.6347
23.9684
20.7225
17.84
15.2727
12.9801
10.9278
9.08823
7.44002
5.96965
4.67362
3.5617
2.65956
2.00631
1.64779
1.6496
2.01156
2.66773
3.5721
4.68557
5.98264
7.4537
9.10236
10.9422
12.9945
15.2871
17.854
20.736
23.9812
27.6464
31.7989
36.5187
41.9011
48.0611
55.1377
63.3003
72.7582
83.7714
96.6672
111.863
129.896
151.475
177.542
209.376
248.748
298.145
361.096
442.562
549.059
686.871
851.482
983.232
856.578
340.095
56.5208
)
;

boundaryField
{
    lowerWall
    {
        type            fixedValue;
        value           uniform 1e-08;
    }
    upperWall
    {
        type            fixedValue;
        value           uniform 1e-08;
    }
    front
    {
        type            cyclic;
    }
    back
    {
        type            cyclic;
    }
    defaultFaces
    {
        type            empty;
    }
}


// ************************************************************************* //
