/*--------------------------------*- C++ -*----------------------------------*\
  =========                 |
  \\      /  F ield         | OpenFOAM: The Open Source CFD Toolbox
   \\    /   O peration     | Website:  https://openfoam.org
    \\  /    A nd           | Version:  12
     \\/     M anipulation  |
\*---------------------------------------------------------------------------*/
FoamFile
{
    format      ascii;
    class       volSymmTensorField;
    location    "900";
    object      R;
}
// * * * * * * * * * * * * * * * * * * * * * * * * * * * * * * * * * * * * * //

dimensions      [0 2 -2 0 0 0 0];

internalField   nonuniform List<symmTensor> 
80
(
(0.00552599 -8.41169e-05 -0 0.00552599 -0 0.00552599)
(0.105721 -0.0100415 -0 0.105721 -0 0.105721)
(0.323591 -0.0854421 -0 0.323591 -0 0.323591)
(0.44741 -0.145969 -0 0.44741 -0 0.44741)
(0.494267 -0.176251 -0 0.494267 -0 0.494267)
(0.509956 -0.192845 -0 0.509956 -0 0.509956)
(0.513426 -0.202095 -0 0.513426 -0 0.513426)
(0.512107 -0.20754 -0 0.512107 -0 0.512107)
(0.508936 -0.21088 -0 0.508936 -0 0.508936)
(0.505096 -0.212964 -0 0.505096 -0 0.505096)
(0.501063 -0.214232 -0 0.501063 -0 0.501063)
(0.497006 -0.214928 -0 0.497006 -0 0.497006)
(0.492962 -0.215189 -0 0.492962 -0 0.492962)
(0.488907 -0.215098 -0 0.488907 -0 0.488907)
(0.484785 -0.214702 -0 0.484785 -0 0.484785)
(0.48053 -0.214025 -0 0.48053 -0 0.48053)
(0.476069 -0.213078 -0 0.476069 -0 0.476069)
(0.471325 -0.211858 -0 0.471325 -0 0.471325)
(0.466219 -0.210356 -0 0.466219 -0 0.466219)
(0.46067 -0.208552 -0 0.46067 -0 0.46067)
(0.454592 -0.206421 -0 0.454592 -0 0.454592)
(0.447896 -0.203933 -0 0.447896 -0 0.447896)
(0.440489 -0.201048 -0 0.440489 -0 0.440489)
(0.432272 -0.197722 -0 0.432272 -0 0.432272)
(0.423137 -0.193904 -0 0.423137 -0 0.423137)
(0.412972 -0.189536 -0 0.412972 -0 0.412972)
(0.401653 -0.184551 -0 0.401653 -0 0.401653)
(0.389051 -0.178874 -0 0.389051 -0 0.389051)
(0.375026 -0.17242 -0 0.375026 -0 0.375026)
(0.359437 -0.165095 -0 0.359437 -0 0.359437)
(0.342141 -0.156791 -0 0.342141 -0 0.342141)
(0.323008 -0.147386 -0 0.323008 -0 0.323008)
(0.301942 -0.136744 -0 0.301942 -0 0.301942)
(0.278929 -0.12471 -0 0.278929 -0 0.278929)
(0.25411 -0.11111 -0 0.25411 -0 0.25411)
(0.227938 -0.0957611 -0 0.227938 -0 0.227938)
(0.201411 -0.0784901 -0 0.201411 -0 0.201411)
(0.176389 -0.0591599 -0 0.176389 -0 0.176389)
(0.155789 -0.0375543 -0 0.155789 -0 0.155789)
(0.143374 -0.0130357 -0 0.143374 -0 0.143374)
(0.143463 0.0133145 -0 0.143463 -0 0.143463)
(0.156034 0.0378272 -0 0.156034 -0 0.156034)
(0.176747 0.0594292 -0 0.176747 -0 0.176747)
(0.201835 0.0787542 -0 0.201835 -0 0.201835)
(0.228394 0.0960169 -0 0.228394 -0 0.228394)
(0.254574 0.111356 -0 0.254574 -0 0.254574)
(0.279386 0.124944 -0 0.279386 -0 0.279386)
(0.302386 0.136967 -0 0.302386 -0 0.302386)
(0.323432 0.147597 -0 0.323432 -0 0.323432)
(0.342544 0.156989 -0 0.342544 -0 0.342544)
(0.359816 0.16528 -0 0.359816 -0 0.359816)
(0.375381 0.172592 -0 0.375381 -0 0.375381)
(0.389379 0.179033 -0 0.389379 -0 0.389379)
(0.401956 0.184697 -0 0.401956 -0 0.401956)
(0.413249 0.189669 -0 0.413249 -0 0.413249)
(0.423388 0.194023 -0 0.423388 -0 0.423388)
(0.432496 0.197828 -0 0.432496 -0 0.432496)
(0.440688 0.20114 -0 0.440688 -0 0.440688)
(0.448069 0.204012 -0 0.448069 -0 0.448069)
(0.454739 0.206488 -0 0.454739 -0 0.454739)
(0.460793 0.208606 -0 0.460793 -0 0.460793)
(0.466318 0.210398 -0 0.466318 -0 0.466318)
(0.4714 0.211889 -0 0.4714 -0 0.4714)
(0.476121 0.213098 -0 0.476121 -0 0.476121)
(0.480561 0.214035 -0 0.480561 -0 0.480561)
(0.484795 0.214702 -0 0.484795 -0 0.484795)
(0.488897 0.21509 -0 0.488897 -0 0.488897)
(0.492934 0.215172 -0 0.492934 -0 0.492934)
(0.49696 0.214904 -0 0.49696 -0 0.49696)
(0.501 0.214202 -0 0.501 -0 0.501)
(0.505018 0.212928 -0 0.505018 -0 0.505018)
(0.508844 0.210839 -0 0.508844 -0 0.508844)
(0.512003 0.207495 -0 0.512003 -0 0.512003)
(0.51331 0.202046 -0 0.51331 -0 0.51331)
(0.50983 0.192794 -0 0.50983 -0 0.50983)
(0.494132 0.176198 -0 0.494132 -0 0.494132)
(0.447268 0.145917 -0 0.447268 -0 0.447268)
(0.323452 0.0853946 -0 0.323452 -0 0.323452)
(0.10566 0.0100326 -0 0.10566 -0 0.10566)
(0.00552275 8.40551e-05 -0 0.00552275 -0 0.00552275)
)
;

boundaryField
{
    lowerWall
    {
        type            calculated;
        value           uniform (6.66667e-11 -0 -0 6.66667e-11 -0 6.66667e-11);
    }
    upperWall
    {
        type            calculated;
        value           uniform (6.66667e-11 0 -0 6.66667e-11 -0 6.66667e-11);
    }
    front
    {
        type            cyclic;
    }
    back
    {
        type            cyclic;
    }
    defaultFaces
    {
        type            empty;
    }
}


// ************************************************************************* //
