/*--------------------------------*- C++ -*----------------------------------*\
  =========                 |
  \\      /  F ield         | OpenFOAM: The Open Source CFD Toolbox
   \\    /   O peration     | Website:  https://openfoam.org
    \\  /    A nd           | Version:  12
     \\/     M anipulation  |
\*---------------------------------------------------------------------------*/
FoamFile
{
    format      ascii;
    class       volVectorField;
    location    "900";
    object      U;
}
// * * * * * * * * * * * * * * * * * * * * * * * * * * * * * * * * * * * * * //

dimensions      [0 1 -1 0 0 0 0];

internalField   nonuniform List<vector> 
80
(
(0.644993 0 0)
(1.9823 0 0)
(3.15761 0 0)
(3.98655 0 0)
(4.57626 0 0)
(5.02384 0 0)
(5.38385 0 0)
(5.68773 0 0)
(5.95397 0 0)
(6.19396 0 0)
(6.41496 0 0)
(6.62188 0 0)
(6.8181 0 0)
(7.00608 0 0)
(7.18763 0 0)
(7.36416 0 0)
(7.53675 0 0)
(7.70628 0 0)
(7.87347 0 0)
(8.03892 0 0)
(8.20314 0 0)
(8.36657 0 0)
(8.52958 0 0)
(8.6925 0 0)
(8.85561 0 0)
(9.01914 0 0)
(9.18328 0 0)
(9.34814 0 0)
(9.51379 0 0)
(9.68017 0 0)
(9.84709 0 0)
(10.0142 0 0)
(10.1807 0 0)
(10.3456 0 0)
(10.5069 0 0)
(10.6615 0 0)
(10.8046 0 0)
(10.9291 0 0)
(11.0248 0 0)
(11.0799 0 0)
(11.0796 0 0)
(11.0239 0 0)
(10.9277 0 0)
(10.803 0 0)
(10.6596 0 0)
(10.5048 0 0)
(10.3434 0 0)
(10.1785 0 0)
(10.0119 0 0)
(9.84485 0 0)
(9.67793 0 0)
(9.51156 0 0)
(9.34594 0 0)
(9.18111 0 0)
(9.01701 0 0)
(8.85351 0 0)
(8.69045 0 0)
(8.52758 0 0)
(8.36461 0 0)
(8.20124 0 0)
(8.03708 0 0)
(7.87168 0 0)
(7.70456 0 0)
(7.53509 0 0)
(7.36256 0 0)
(7.18611 0 0)
(7.00462 0 0)
(6.81671 0 0)
(6.62056 0 0)
(6.41371 0 0)
(6.19277 0 0)
(5.95286 0 0)
(5.68668 0 0)
(5.38287 0 0)
(5.02292 0 0)
(4.57541 0 0)
(3.98577 0 0)
(3.15692 0 0)
(1.98179 0 0)
(0.644822 0 0)
)
;

boundaryField
{
    lowerWall
    {
        type            noSlip;
    }
    upperWall
    {
        type            noSlip;
    }
    front
    {
        type            cyclic;
    }
    back
    {
        type            cyclic;
    }
    defaultFaces
    {
        type            empty;
    }
}


// ************************************************************************* //
