/*--------------------------------*- C++ -*----------------------------------*\
  =========                 |
  \\      /  F ield         | OpenFOAM: The Open Source CFD Toolbox
   \\    /   O peration     | Website:  https://openfoam.org
    \\  /    A nd           | Version:  12
     \\/     M anipulation  |
\*---------------------------------------------------------------------------*/
FoamFile
{
    format      ascii;
    class       volScalarField;
    location    "200";
    object      strainRateViscosityModel:nu;
}
// * * * * * * * * * * * * * * * * * * * * * * * * * * * * * * * * * * * * * //

dimensions      [0 2 -1 0 0 0 0];

internalField   nonuniform List<scalar> 
80
(
9.99961
9.99952
9.99931
9.99872
9.9967
9.98513
9.64017
9.44652
9.97671
9.99379
9.99702
9.998
9.99831
9.99828
9.99794
9.99707
9.99503
9.98947
9.96948
9.85442
8.86586
1.25216
0.210483
0.0636417
0.0607527
0.635337
0.0103601
0.79637
0.0634361
0.177743
0.0140907
0.742035
0.0171528
0.608178
3.47454
5.50866
6.02136
5.21843
3.76638
0.541847
0.542374
3.77626
5.24363
6.07198
5.58625
3.54841
0.311674
0.542394
0.355715
0.0103202
0.326998
0.499931
0.204624
0.613993
0.802756
0.0142978
1.62785
1.55006
0.160825
8.82798
9.85292
9.96954
9.98949
9.99503
9.99707
9.99794
9.99828
9.99831
9.998
9.99702
9.99379
9.97671
9.44652
9.64017
9.98513
9.9967
9.99872
9.99931
9.99952
9.99961
)
;

boundaryField
{
    lowerWall
    {
        type            calculated;
        value           uniform 9.99964;
    }
    upperWall
    {
        type            calculated;
        value           uniform 9.99964;
    }
    front
    {
        type            cyclic;
    }
    back
    {
        type            cyclic;
    }
    defaultFaces
    {
        type            empty;
    }
}


// ************************************************************************* //
