/*--------------------------------*- C++ -*----------------------------------*\
  =========                 |
  \\      /  F ield         | OpenFOAM: The Open Source CFD Toolbox
   \\    /   O peration     | Website:  https://openfoam.org
    \\  /    A nd           | Version:  12
     \\/     M anipulation  |
\*---------------------------------------------------------------------------*/
FoamFile
{
    format      ascii;
    class       volVectorField;
    location    "200";
    object      U;
}
// * * * * * * * * * * * * * * * * * * * * * * * * * * * * * * * * * * * * * //

dimensions      [0 1 -1 0 0 0 0];

internalField   nonuniform List<vector> 
80
(
(0.0464136 0 0)
(0.135677 0 0)
(0.217047 0 0)
(0.28619 0 0)
(0.339852 0 0)
(0.376043 0 0)
(0.394446 0 0)
(0.395045 0 0)
(0.379036 0 0)
(0.348943 0 0)
(0.307096 0 0)
(0.256821 0 0)
(0.201669 0 0)
(0.145151 0 0)
(0.0904918 0 0)
(0.0404374 0 0)
(-0.00287354 0 0)
(-0.0379716 0 0)
(-0.0640576 0 0)
(-0.0810079 0 0)
(-0.0896737 0 0)
(-0.0935843 0 0)
(-0.092941 0 0)
(-0.0879846 0 0)
(-0.0899996 0 0)
(-0.0902908 0 0)
(-0.089444 0 0)
(-0.0905397 0 0)
(-0.0908019 0 0)
(-0.0879901 0 0)
(-0.0896657 0 0)
(-0.0918377 0 0)
(-0.0926627 0 0)
(-0.093212 0 0)
(-0.0916542 0 0)
(-0.08895 0 0)
(-0.0856277 0 0)
(-0.0823001 0 0)
(-0.0795338 0 0)
(-0.0771596 0 0)
(-0.0771611 0 0)
(-0.0795383 0 0)
(-0.082312 0 0)
(-0.0856572 0 0)
(-0.0890082 0 0)
(-0.0917218 0 0)
(-0.093305 0 0)
(-0.0925747 0 0)
(-0.0903511 0 0)
(-0.0886587 0 0)
(-0.0892783 0 0)
(-0.0886644 0 0)
(-0.0882803 0 0)
(-0.090542 0 0)
(-0.0906247 0 0)
(-0.088971 0 0)
(-0.0910907 0 0)
(-0.0922576 0 0)
(-0.093433 0 0)
(-0.0895347 0 0)
(-0.0810231 0 0)
(-0.0640894 0 0)
(-0.0379897 0 0)
(-0.00288108 0 0)
(0.0404347 0 0)
(0.0904908 0 0)
(0.145151 0 0)
(0.201669 0 0)
(0.25682 0 0)
(0.307096 0 0)
(0.348943 0 0)
(0.379036 0 0)
(0.395045 0 0)
(0.394446 0 0)
(0.376043 0 0)
(0.339852 0 0)
(0.28619 0 0)
(0.217047 0 0)
(0.135677 0 0)
(0.0464136 0 0)
)
;

boundaryField
{
    lowerWall
    {
        type            noSlip;
    }
    upperWall
    {
        type            noSlip;
    }
    front
    {
        type            cyclic;
    }
    back
    {
        type            cyclic;
    }
    defaultFaces
    {
        type            empty;
    }
}


// ************************************************************************* //
