/*--------------------------------*- C++ -*----------------------------------*\
  =========                 |
  \\      /  F ield         | OpenFOAM: The Open Source CFD Toolbox
   \\    /   O peration     | Website:  https://openfoam.org
    \\  /    A nd           | Version:  12
     \\/     M anipulation  |
\*---------------------------------------------------------------------------*/
FoamFile
{
    format      ascii;
    class       surfaceScalarField;
    location    "12.82";
    object      phi;
}
// * * * * * * * * * * * * * * * * * * * * * * * * * * * * * * * * * * * * * //

dimensions      [1 0 -1 0 0 0 0];

internalField   nonuniform List<scalar> 
7429
(
0.00025564
-0.00025564
0.000516425
-0.000260784
0.000781717
-0.000265291
0.00105224
-0.000270525
0.00132878
-0.000276533
0.00161206
-0.000283283
0.00190277
-0.000290709
0.00220151
-0.000298735
0.00250877
-0.000307268
0.00282495
-0.000316173
0.00315021
-0.00032526
0.00348456
-0.000334349
0.0038279
-0.000343339
0.00417976
-0.000351864
0.00453961
-0.000359845
0.00490656
-0.000366951
0.00527955
-0.000372988
0.00565727
-0.000377718
0.00603812
-0.000380858
0.00642049
-0.000382361
0.00680232
-0.000381835
0.00718149
-0.000379168
0.00755569
-0.000374205
0.00792242
-0.000366721
0.00827905
-0.000356633
0.00862275
-0.000343703
0.00895059
-0.00032784
0.00925966
-0.000309061
0.00954693
-0.000287274
0.00980959
-0.00026266
0.0100448
-0.00023523
0.01025
-0.000205193
0.0104228
-0.000172787
0.010561
-0.000138224
0.0106628
-0.000101752
0.0107265
-6.37642e-05
0.0107512
-2.46711e-05
0.0107378
1.34369e-05
0.0106854
5.23753e-05
0.0105932
9.22222e-05
0.0104609
0.000132303
0.0102887
0.000172167
0.0100775
0.000211253
0.00982824
0.00024922
0.00954258
0.000285657
0.00922234
0.00032024
0.00886961
0.000352726
0.00848682
0.000382798
0.0080766
0.000410212
0.00764188
0.000434722
0.00718581
0.000456069
0.00671174
0.000474071
0.0062234
0.000488337
0.00572434
0.000499066
0.00521886
0.000505481
0.0047106
0.000508255
0.00420424
0.000506359
0.00370365
0.000500597
0.00321351
0.000490134
0.00273762
0.000475894
0.00228085
0.000456773
0.00184694
0.000433909
0.00144031
0.000406631
0.00106471
0.000375597
0.000723753
0.000340956
0.000420793
0.000302959
0.000158679
0.000262114
-6.02894e-05
0.000218968
-0.000234102
0.000173813
-0.000361103
0.000127
-0.000440833
7.97305e-05
-0.00047269
3.18569e-05
-0.000453594
-1.90959e-05
-0.000386782
-6.68118e-05
-0.0002757
-0.000111082
-0.000122666
-0.000153033
6.84181e-05
-0.000191084
0.000294264
-0.000225846
0.000549867
-0.000255603
0.00082951
-0.000279642
0.00112653
-0.000297016
0.00143436
-0.000307832
0.00174554
-0.000311183
0.00205253
-0.000306992
0.0023472
-0.000294665
0.00262193
-0.000274731
0.00286853
-0.000246603
0.00307976
-0.000211227
0.00324863
-0.000168864
0.00336868
-0.000120052
0.00343525
-6.65682e-05
0.00344291
-7.66779e-06
0.00337995
6.29591e-05
0.00324993
0.000130021
0.00305467
0.000195261
0.00279687
0.0002578
0.00248031
0.000316558
0.00211019
0.000370122
0.00169273
0.000417459
0.00123661
0.000456119
0.000751942
0.000484673
0.000250268
0.000501674
-0.000255606
0.000505874
-0.000751883
0.000496277
-0.00122455
0.00047267
-0.00165934
0.000434788
-0.00204272
0.00038338
-0.00236193
0.000319209
-0.00260589
0.000243961
-0.00276537
0.000159482
-0.00283439
6.90157e-05
-0.00280045
-3.39424e-05
-0.00266475
-0.000135699
-0.00243399
-0.000230755
-0.00211514
-0.00031885
-0.00171772
-0.00039742
-0.00125406
-0.000463666
-0.000740298
-0.000513759
-0.000194838
-0.00054546
0.000361102
-0.00055594
0.000905514
-0.000544412
0.00141613
-0.000510614
0.00187094
-0.000454811
0.00225008
-0.000379139
0.00253631
-0.000286229
0.00271604
-0.000179735
0.00278099
-6.49506e-05
0.00271819
6.28062e-05
0.00253491
0.000183275
0.00224271
0.000292203
0.00185509
0.000387617
0.00139091
0.00046418
0.000873481
0.000517432
0.000330694
0.000542787
-0.000208361
0.000539056
-0.000714002
0.00050564
-0.00115718
0.000443182
-0.00151369
0.000356507
-0.00176327
0.000249578
-0.00189343
0.000130162
-0.00189614
2.71245e-06
-0.00177032
-0.000125821
-0.00153434
-0.000235985
-0.00120878
-0.000325561
-0.000819509
-0.000389267
-0.000398652
-0.000420858
1.85947e-05
-0.000417246
0.000396177
-0.000377582
0.000701638
-0.000305461
0.000908133
-0.000206495
0.000997662
-8.95288e-05
0.000954281
4.33807e-05
0.000783673
0.000170608
0.000504531
0.000279142
0.000141207
0.000363324
-0.00027308
0.000414287
-0.000697995
0.000424915
-0.00109116
0.000393167
-0.00141305
0.00032189
-0.00162997
0.000216922
-0.00171956
8.95823e-05
-0.0016634
-5.61589e-05
-0.00146965
-0.00019375
-0.00115938
-0.000310272
-0.000762491
-0.000396884
-0.000319287
-0.000443205
0.000124559
-0.000443846
0.00052229
-0.000397731
0.00083408
-0.00031179
0.00103107
-0.00019699
0.00109886
-6.77883e-05
0.00103414
6.47209e-05
0.000858515
0.000175623
0.000601945
0.00025657
0.000303575
0.00029837
5.67398e-06
0.000297901
-0.00025121
0.000256884
-0.00043749
0.00018628
-0.000535593
9.8103e-05
-0.000543277
7.6839e-06
-0.000470549
-7.27272e-05
-0.000342183
-0.000128366
-0.000186616
-0.000155567
-3.3242e-05
-0.000153374
9.36592e-05
-0.000126901
0.00017947
-8.58108e-05
0.000220832
-4.13623e-05
0.000224328
-3.49595e-06
0.000204443
1.98848e-05
0.000179209
2.52341e-05
0.000163479
1.57302e-05
0.000168337
-4.85836e-06
0.000194725
-2.63876e-05
0.00023364
-3.89145e-05
0.000269035
-3.53958e-05
0.000284509
-1.54735e-05
0.000266599
1.79095e-05
0.000208732
5.78671e-05
0.000115321
9.34112e-05
0.000115321
0.000239789
-0.000495428
0.000488888
-0.000509883
0.000744074
-0.000520476
0.00100688
-0.000533334
0.00127885
-0.0005485
0.0015617
-0.000566132
0.00185702
-0.000586033
0.00216631
-0.000608017
0.00249068
-0.000631643
0.00283111
-0.0006566
0.00318803
-0.000682179
0.00356163
-0.000707953
0.00395179
-0.000733489
0.00435784
-0.000757921
0.0047789
-0.000780903
0.00521359
-0.000801635
0.00566007
-0.000819467
0.00611613
-0.000833784
0.00657917
-0.000843899
0.00704596
-0.00084915
0.00751315
-0.000849024
0.00797696
-0.000842977
0.00843333
-0.000830568
0.00887804
-0.000811438
0.00930678
-0.000785368
0.00971529
-0.000752212
0.0100995
-0.000712009
0.0104553
-0.000664953
0.0107793
-0.000611244
0.011068
-0.000551368
0.0113185
-0.000485747
0.0115285
-0.000415124
0.0116958
-0.00034009
0.011819
-0.000261412
0.0118973
-0.000180066
0.0119308
-9.72871e-05
0.0119216
-1.54329e-05
0.0118519
8.31161e-05
0.0117282
0.000176059
0.0115539
0.000266515
0.0113322
0.000354021
0.0110663
0.000438041
0.0107595
0.000518035
0.0104148
0.00059392
0.0100345
0.000665957
0.00962103
0.000733752
0.0091767
0.000797057
0.00870411
0.000855391
0.00820648
0.000907838
0.00768683
0.000954367
0.0071489
0.000994008
0.00659641
0.00102656
0.00603313
0.00105162
0.00546353
0.00106866
0.00489156
0.00107745
0.00432196
0.00107786
0.00375893
0.00106938
0.00320686
0.00105267
0.00267076
0.00102623
0.00215467
0.000991987
0.00166309
0.000948347
0.0012004
0.000896599
0.000770236
0.000836798
0.000376632
0.000769201
2.33958e-05
0.000694193
-0.00028628
0.000612635
-0.000549333
0.000525167
-0.00076315
0.000432785
-0.000925949
0.000336612
-0.00103662
0.000237669
-0.00109411
0.000137228
-0.00109887
3.66114e-05
-0.00104735
-7.06182e-05
-0.000945357
-0.000168802
-0.000794476
-0.000261964
-0.000598123
-0.000349386
-0.000359619
-0.000429588
-8.39239e-05
-0.000501541
0.000222488
-0.000562015
0.000554292
-0.000611446
0.000904576
-0.0006473
0.00126538
-0.000668632
0.00162858
-0.000674391
0.00198581
-0.000664215
0.00232843
-0.000637286
0.00264769
-0.000593994
0.00293513
-0.000534041
0.00318233
-0.000458434
0.0033811
-0.000367628
0.00352575
-0.000264707
0.00360808
-0.000148896
0.00362739
-2.69744e-05
0.00356927
0.000121073
0.00343842
0.000260877
0.00323603
0.000397652
0.00296441
0.00052941
0.00262732
0.000653654
0.00223033
0.000767113
0.00178075
0.000867042
0.00128834
0.000948525
0.00076458
0.00100843
0.000222022
0.00104423
-0.000325183
0.00105308
-0.000862059
0.00103315
-0.00137292
0.000983532
-0.00184221
0.000904073
-0.00225492
0.000796094
-0.00259771
0.000661999
-0.00285788
0.000504129
-0.00302474
0.000326345
-0.00309252
0.000136798
-0.00304952
-7.69477e-05
-0.00289916
-0.000286058
-0.0026461
-0.000483809
-0.00229754
-0.000667417
-0.0018635
-0.000831453
-0.00135793
-0.000969241
-0.000798842
-0.00107285
-0.000207396
-0.00113691
0.000394061
-0.0011574
0.000981377
-0.00113173
0.00153004
-0.00105928
0.00201669
-0.000941454
0.00241996
-0.000782418
0.00272025
-0.000586519
0.00290466
-0.000364142
0.00296361
-0.000123899
0.00288495
0.00014147
0.00267875
0.000389472
0.00235496
0.000615995
0.00192831
0.000814261
0.0014208
0.000971694
0.000857856
0.00108037
0.000270184
0.00113046
-0.000310344
0.00111958
-0.00085024
0.00104554
-0.00131983
0.000912771
-0.00169166
0.000728337
-0.0019455
0.000503416
-0.00206713
0.000251794
-0.00204638
-1.80375e-05
-0.00189201
-0.000280193
-0.00161845
-0.000509539
-0.00124785
-0.000696167
-0.00081019
-0.000826925
-0.000340895
-0.000890153
0.000120955
-0.000879097
0.000536126
-0.000792754
0.00086973
-0.000639065
0.0010925
-0.000429261
0.00118446
-0.000181491
0.00113147
9.6366e-05
0.000942386
0.000359695
0.000633789
0.000587739
0.000233775
0.000763338
-0.000220535
0.000868597
-0.000684435
0.000888815
-0.00111216
0.000820892
-0.00145998
0.000669714
-0.00169305
0.000449989
-0.00178596
0.000182487
-0.00172293
-0.000119184
-0.00151384
-0.000402837
-0.00117946
-0.000644652
-0.00075424
-0.000822109
-0.000282391
-0.000915054
0.000186209
-0.000912445
0.000601087
-0.000812609
0.00092047
-0.000631174
0.00111374
-0.000390257
0.00116715
-0.000121206
0.0010813
0.000150575
0.000878939
0.000377984
0.000594293
0.000541216
0.000270476
0.000622187
-4.59124e-05
0.00061429
-0.00031331
0.000524282
-0.000499705
0.000372675
-0.000588745
0.000187143
-0.0005784
-2.66115e-06
-0.000486099
-0.000165028
-0.000337902
-0.000276564
-0.000165933
-0.000327536
-3.09507e-06
-0.000316212
0.000125761
-0.000255757
0.000205755
-0.000165806
0.000235365
-7.09721e-05
0.000223581
8.28778e-06
0.000189172
5.42944e-05
0.000152158
6.22486e-05
0.000129758
3.81296e-05
0.00013356
-8.66044e-06
0.000162668
-5.54953e-05
0.000208931
-8.51778e-05
0.000253076
-7.95405e-05
0.000276816
-3.92138e-05
0.000265019
2.97072e-05
0.000210256
0.00011263
0.000116958
0.000186709
0.000232279
3.0691e-05
-0.000526118
6.65722e-05
-0.000545764
0.000110581
-0.000564484
0.000166939
-0.000589691
0.00023975
-0.00062131
0.000333165
-0.000659546
0.000450531
-0.000703397
0.000595508
-0.000752994
0.000770696
-0.000806829
0.000979037
-0.000864941
0.00122234
-0.000925479
0.00150136
-0.000986971
0.00181425
-0.00104638
0.00215986
-0.00110353
0.00254023
-0.00116127
0.00295521
-0.00121662
0.00340312
-0.00126738
0.00388082
-0.00131148
0.00438413
-0.00134721
0.00490814
-0.00137315
0.00544727
-0.00138816
0.00599539
-0.0013911
0.00654614
-0.00138131
0.00709259
-0.00135789
0.0076276
-0.00132037
0.00814486
-0.00126947
0.00863751
-0.00120466
0.0091
-0.00112743
0.00952614
-0.00103738
0.00990911
-0.000934341
0.0102437
-0.000820331
0.0105254
-0.000696822
0.0107508
-0.000565517
0.010918
-0.000428619
0.011025
-0.000287068
0.0110714
-0.000143625
0.0110567
-8.06977e-07
0.0110018
0.000138069
0.0108979
0.000279978
0.0107434
0.000421023
0.0105381
0.000559281
0.0102826
0.000693505
0.00997821
0.00082247
0.0096269
0.000945226
0.00923175
0.0010611
0.00879639
0.00116912
0.00832459
0.00126885
0.00782062
0.00135936
0.00728814
0.00144032
0.00673176
0.00151075
0.00615551
0.00157025
0.00556391
0.00161815
0.00496169
0.00165384
0.00435311
0.00167725
0.00374316
0.00168739
0.00313619
0.00168483
0.00253815
0.00166743
0.00195379
0.00163703
0.00138811
0.00159191
0.000846224
0.00153387
0.000332863
0.00146171
-0.000147304
0.00137677
-0.000588734
0.00127823
-0.000986886
0.00116735
-0.00133747
0.00104478
-0.0016368
0.000911959
-0.00188189
0.000770264
-0.0020706
0.000621489
-0.00219877
0.000464784
-0.00226601
0.000304911
-0.0022716
0.000142821
-0.00220876
-2.62365e-05
-0.00208893
-0.000190442
-0.00191058
-0.000347154
-0.00167572
-0.000496826
-0.00138841
-0.00063669
-0.00105266
-0.000765344
-0.000675585
-0.000878615
-0.000262562
-0.000975039
0.000178053
-0.00105206
0.000638601
-0.00110785
0.00110913
-0.00113916
0.00158046
-0.00114572
0.00204184
-0.00112559
0.00248359
-0.00107904
0.00289453
-0.00100493
0.00326397
-0.000903474
0.00358306
-0.000777531
0.00384271
-0.000627276
0.00403243
-0.000454422
0.00414937
-0.000265839
0.00418099
-5.85946e-05
0.00412543
0.000176628
0.00398194
0.000404377
0.00375152
0.000628065
0.0034366
0.000844329
0.00304151
0.00104875
0.00257336
0.00123526
0.00204125
0.00139916
0.0014572
0.00153257
0.000835065
0.00163057
0.000190289
0.00168901
-0.000458663
0.00170203
-0.00109479
0.00166929
-0.0016994
0.00158813
-0.00225397
0.00145865
-0.00274048
0.0012826
-0.00314187
0.00106339
-0.0034429
0.000805158
-0.00363487
0.000518319
-0.0037041
0.000206023
-0.00364413
-0.000136921
-0.00345819
-0.000471994
-0.00315079
-0.000791209
-0.0027292
-0.00108901
-0.00220664
-0.00135401
-0.00160119
-0.00157469
-0.000934622
-0.00173942
-0.000231068
-0.00184046
0.000482817
-0.00187128
0.00117717
-0.00182608
0.00182285
-0.00170496
0.0023916
-0.0015102
0.00285741
-0.00124823
0.00320032
-0.000929435
0.0034013
-0.000565122
0.00345077
-0.000173367
0.00334167
0.000250577
0.00308267
0.000648467
0.0026853
0.00101337
0.00216726
0.0013323
0.00155601
0.00158294
0.000883784
0.0017526
0.000187655
0.00182659
-0.000496083
0.00180332
-0.00112592
0.00167537
-0.00166679
0.00145364
-0.00208683
0.00114838
-0.00236227
0.000778864
-0.00247695
0.00036647
-0.00242149
-7.34924e-05
-0.0022091
-0.000492587
-0.00185584
-0.000862802
-0.00138827
-0.00116374
-0.000845046
-0.00137015
-0.000268604
-0.00146659
0.000293049
-0.00144075
0.00079336
-0.00129306
0.00119025
-0.00103596
0.00145077
-0.00068978
0.00155168
-0.0002824
0.00147857
0.000169475
0.00124336
0.000594909
0.000866035
0.000965063
0.000380494
0.00124888
-0.000166802
0.00141589
-0.000722208
0.00144422
-0.00123103
0.00132971
-0.00164211
0.0010808
-0.00191371
0.000721587
-0.00201601
0.000284787
-0.0019364
-0.000198793
-0.001686
-0.000653233
-0.00128973
-0.00104093
-0.000790156
-0.00132168
-0.00024149
-0.00146372
0.00029664
-0.00145057
0.000765677
-0.00128165
0.00111653
-0.000982026
0.00131646
-0.000590183
0.00135088
-0.000155635
0.0012244
0.000277061
0.000965611
0.000636771
0.000617316
0.000889511
0.000232549
0.00100695
-0.000133954
0.000980793
-0.000433034
0.000823362
-0.000629912
0.000569553
-0.000708057
0.000265288
-0.000670185
-4.05336e-05
-0.000539334
-0.000295879
-0.000349388
-0.00046651
-0.000141175
-0.000535748
4.71255e-05
-0.000504512
0.000186105
-0.000394737
0.0002614
-0.0002411
0.000273396
-8.29685e-05
0.000237603
4.40814e-05
0.000177606
0.000114291
0.000119872
0.000119982
8.61279e-05
7.18741e-05
8.91443e-05
-1.16768e-05
0.000125831
-9.21825e-05
0.000187242
-0.000146588
0.00024842
-0.000140718
0.000286564
-7.73585e-05
0.00028309
3.31816e-05
0.000228637
0.000167083
0.000128445
0.000286901
0.000360724
-0.000162842
-0.000363276
-0.000309442
-0.000399163
-0.000435057
-0.000438869
-0.000528017
-0.000496731
-0.000577602
-0.000571724
-0.000572532
-0.000664615
-0.000505144
-0.000770785
-0.000365668
-0.00089247
-0.000152499
-0.00102
0.00013734
-0.00115478
0.000502176
-0.00129031
0.000942359
-0.00142715
0.00145637
-0.00156039
0.00203813
-0.0016853
0.00268485
-0.00180799
0.00339123
-0.001923
0.00415105
-0.00202719
0.00495801
-0.00211844
0.00580262
-0.00219182
0.00667525
-0.00224578
0.00756408
-0.00227699
0.00845691
-0.00228393
0.0093395
-0.0022639
0.0101992
-0.0022176
0.0110209
-0.00214209
0.0117928
-0.00204134
0.0124993
-0.00191116
0.0131328
-0.00176097
0.0136797
-0.00158423
0.014139
-0.00139371
0.0145049
-0.00118623
0.0147784
-0.000970269
0.0149599
-0.000747044
0.0150523
-0.00052097
0.0150606
-0.000295442
0.0149921
-7.50925e-05
0.014822
0.000169324
0.0145598
0.000400255
0.014221
0.000618755
0.0138162
0.000825874
0.0133529
0.00102251
0.0128373
0.00120916
0.0122745
0.00138523
0.0116689
0.00155084
0.0110248
0.00170524
0.0103471
0.00184683
0.00963959
0.00197633
0.0089067
0.00209225
0.00815339
0.00219363
0.00738383
0.0022803
0.0066032
0.00235089
0.00581555
0.0024058
0.00502674
0.00244265
0.00424074
0.00246325
0.00346358
0.00246455
0.00270138
0.00244704
0.00195853
0.00241028
0.00124033
0.00235523
0.000551915
0.00228033
-0.000101647
0.00218743
-0.000713325
0.00207339
-0.0012776
0.00194104
-0.00178991
0.00179054
-0.00224608
0.00162352
-0.00264165
0.00144035
-0.00297172
0.00124204
-0.00323196
0.0010305
-0.00342111
0.000810631
-0.00353554
0.000579222
-0.00357368
0.00034305
-0.00353671
0.000105845
-0.00342058
-0.000142365
-0.00323241
-0.000378611
-0.00297208
-0.000607479
-0.00264299
-0.000825923
-0.00225013
-0.00102955
-0.00179992
-0.00121555
-0.00129894
-0.00137959
-0.00075579
-0.00151819
-0.000181333
-0.00162652
0.000415185
-0.00170437
0.00102227
-0.00174624
0.00162789
-0.00175135
0.00221954
-0.00171725
0.00278367
-0.00164316
0.00330838
-0.00152965
0.00378155
-0.00137664
0.00418897
-0.00118495
0.00452039
-0.000958699
0.00476867
-0.000702701
0.0049179
-0.000415073
0.00497213
-0.000112818
0.0049131
0.000235659
0.00474672
0.00057075
0.00447316
0.000901624
0.00409515
0.00122235
0.00361787
0.00152602
0.00305054
0.0018026
0.00240518
0.00204451
0.00169598
0.00224177
0.000940814
0.00238574
0.000159137
0.00247068
-0.000629079
0.00249025
-0.00140094
0.00244115
-0.00213225
0.00231944
-0.00280061
0.00212701
-0.00338413
0.00186613
-0.00386327
0.00154252
-0.0042222
0.0011641
-0.004443
0.000739113
-0.00451739
0.000280419
-0.00443492
-0.000219394
-0.00420046
-0.000706457
-0.00381852
-0.00117315
-0.00329909
-0.00160844
-0.00265797
-0.00199513
-0.001917
-0.00231566
-0.00110348
-0.00255294
-0.000249047
-0.00269489
0.000614695
-0.00273502
0.00145048
-0.00266186
0.00222366
-0.00247814
0.00290068
-0.00218722
0.00345247
-0.00180002
0.00384804
-0.00132501
0.00407325
-0.00079033
0.00411464
-0.000214752
0.00396317
0.000402048
0.00363173
0.000979907
0.0031327
0.00151239
0.00249252
0.00197248
0.00174265
0.00233281
0.000922876
0.00257237
7.63691e-05
0.00267309
-0.00074188
0.00262157
-0.00149191
0.0024254
-0.00212742
0.00208915
-0.00261242
0.00163338
-0.00291712
0.00108356
-0.00302341
0.000472759
-0.00292444
-0.000172465
-0.00263485
-0.000782173
-0.00217571
-0.00132195
-0.00158094
-0.0017585
-0.000897955
-0.00205313
-0.000182211
-0.00218234
0.000510501
-0.00213346
0.00112275
-0.00190531
0.00160423
-0.00151744
0.00191188
-0.000997427
0.00202274
-0.000393261
0.00192261
0.000269603
0.00162435
0.000893172
0.00115329
0.00143612
0.000553479
0.00184869
-0.000117823
0.0020872
-0.000795514
0.00212191
-0.00141188
0.00194608
-0.00190526
0.00157418
-0.00222553
0.00104186
-0.00234157
0.000400834
-0.00223716
-0.000303203
-0.0019281
-0.000962297
-0.0014466
-0.00152243
-0.000846087
-0.00192219
-0.000192456
-0.00211735
0.000440421
-0.00208345
0.000982574
-0.0018238
0.0013776
-0.00137705
0.00158706
-0.000799644
0.00159544
-0.000164014
0.00141576
0.000456737
0.00108231
0.000970224
0.000650035
0.00132178
0.000184032
0.00147296
-0.000248463
0.00141329
-0.00058978
0.00116468
-0.000800602
0.000780375
-0.000864527
0.000329213
-0.000790339
-0.000114722
-0.000608285
-0.000477933
-0.000363273
-0.000711522
-0.000106206
-0.000792816
0.00011474
-0.000725458
0.000266837
-0.000546834
0.00033508
-0.000309343
0.000324752
-7.26409e-05
0.000257596
0.000111237
0.000165216
0.000206671
8.11657e-05
0.000204033
3.34528e-05
0.000119587
3.70634e-05
-1.52874e-05
8.53496e-05
-0.000140469
0.000166991
-0.00022823
0.000250506
-0.000224232
0.000306808
-0.000133661
0.000313022
2.69678e-05
0.0002573
0.000222805
0.000145801
0.0003984
0.000506525
-0.000621756
0.000258481
-0.0012288
0.000207883
-0.00180958
0.00014191
-0.00234661
4.0302e-05
-0.00282708
-9.12543e-05
-0.0032229
-0.000268799
-0.00353092
-0.000462762
-0.00373633
-0.000687052
-0.00385179
-0.000904544
-0.00385591
-0.00115066
-0.00373642
-0.0014098
-0.00347757
-0.001686
-0.00307391
-0.00196405
-0.00251949
-0.00223971
-0.00182353
-0.00250395
-0.000995314
-0.00275122
-4.83738e-05
-0.00297413
0.00100077
-0.00316758
0.00213464
-0.0033257
0.00333169
-0.00344282
0.00456843
-0.00351373
0.00582413
-0.00353963
0.00707297
-0.00351275
0.00829269
-0.00343732
0.00945599
-0.00330538
0.0105445
-0.0031299
0.0115311
-0.00289772
0.0124084
-0.00263821
0.0131527
-0.00232855
0.0137649
-0.00200597
0.0142371
-0.00165834
0.0145716
-0.00130482
0.0147741
-0.000949553
0.0148513
-0.000598165
0.0148178
-0.000261892
0.0146802
6.24646e-05
0.0144713
0.000378219
0.0141887
0.000682809
0.0138334
0.000974053
0.0134082
0.00125115
0.0129181
0.00151257
0.0123685
0.00175877
0.0117652
0.00198851
0.0111139
0.00220212
0.0104206
0.00239862
0.0096895
0.00257788
0.0089265
0.00273934
0.00813638
0.00288237
0.00732359
0.00300642
0.00649336
0.00311054
0.00565033
0.00319391
0.00480011
0.00325602
0.00394764
0.00329513
0.00309991
0.00331098
0.00226039
0.00330407
0.00143459
0.00327284
0.000630689
0.00321417
-0.000145654
0.00313157
-0.000887182
0.00302186
-0.0015888
0.00288904
-0.00224262
0.00272721
-0.00284454
0.00254296
-0.00338694
0.00233294
-0.0038623
0.00209888
-0.00426719
0.00184524
-0.00459663
0.00157147
-0.00484478
0.00127865
-0.00500918
0.00097504
-0.00508867
0.00065871
-0.00508111
0.00033549
-0.00497327
-1.9938e-06
-0.00478182
-0.000333818
-0.00450382
-0.000656611
-0.00414168
-0.000969616
-0.00369916
-0.00126844
-0.00318228
-0.00154643
-0.00259839
-0.00179944
-0.00195668
-0.00202131
-0.00126756
-0.00220731
-0.000541271
-0.00235281
0.000209235
-0.00245487
0.000970274
-0.00250728
0.00172686
-0.00250794
0.00246342
-0.0024538
0.00316642
-0.00234616
0.00381961
-0.00218283
0.0044048
-0.00196183
0.00491176
-0.00169191
0.00532604
-0.00137298
0.0056298
-0.00100646
0.00582402
-0.000609292
0.00589121
-0.00018001
0.0058272
0.000299674
0.00563243
0.000765521
0.00530663
0.00122742
0.00485339
0.00167558
0.00428021
0.00209921
0.00359822
0.00248458
0.0028216
0.00282114
0.00196907
0.00309429
0.00106151
0.0032933
0.000121652
0.00341054
-0.000822337
0.00343424
-0.00174532
0.00336413
-0.00262035
0.00319448
-0.00341906
0.00292572
-0.00411518
0.00256225
-0.00468464
0.00211198
-0.00510272
0.00158218
-0.00535448
0.000990869
-0.00543259
0.000358524
-0.00532265
-0.000329327
-0.00503086
-0.00099825
-0.00456181
-0.0016422
-0.00392774
-0.0022425
-0.00315126
-0.00277161
-0.00225807
-0.00320886
-0.00127997
-0.00353104
-0.000252853
-0.00372201
0.000778068
-0.00376594
0.00177434
-0.00365813
0.00269252
-0.00339632
0.00349034
-0.00298505
0.00413136
-0.00244104
0.00459033
-0.00178398
0.00483834
-0.00103834
0.00486016
-0.000236564
0.00466124
0.000600967
0.00424581
0.00139533
0.00363139
0.00212681
0.00285008
0.00275379
0.00194191
0.00324099
0.000955979
0.0035583
-5.09194e-05
0.00367999
-0.00102635
0.003597
-0.00191136
0.00331041
-0.0026538
0.0028316
-0.00320931
0.00218889
-0.00354444
0.00141869
-0.00363866
0.000566979
-0.00349007
-0.00032106
-0.00311119
-0.00116105
-0.00252995
-0.00190319
-0.00179071
-0.00249774
-0.000952269
-0.00289157
-7.29539e-05
-0.00306165
0.000763264
-0.00296968
0.00149772
-0.00263976
0.00206873
-0.00208846
0.00243115
-0.00135984
0.00254734
-0.00050945
0.00241294
0.000403997
0.00204009
0.00126602
0.00146196
0.00201425
0.000732275
0.00257838
-8.03685e-05
0.00289984
-0.000894963
0.00293651
-0.0016311
0.00268221
-0.00221481
0.00215789
-0.00258851
0.00141555
-0.00271269
0.000525018
-0.00257833
-0.000437563
-0.00220005
-0.00134058
-0.00162023
-0.00210225
-0.000904043
-0.00263838
-0.000131811
-0.00288958
0.000605619
-0.00282088
0.00122899
-0.00244717
0.00167137
-0.00181943
0.00188874
-0.00101701
0.00186677
-0.000142049
0.00162473
0.000698779
0.00120594
0.00138901
0.000678034
0.00184969
0.000120382
0.00203061
-0.000383087
0.00191676
-0.000768898
0.00155049
-0.000992596
0.00100407
-0.00103759
0.000374209
-0.000919655
-0.000232658
-0.000678323
-0.000719265
-0.000371045
-0.0010188
-5.95776e-05
-0.00110428
0.000195823
-0.000980858
0.000360634
-0.000711646
0.000419829
-0.000368537
0.000382256
-3.50685e-05
0.000278295
0.000215198
0.000148544
0.000336423
3.4864e-05
0.000317713
-2.52538e-05
0.000179705
-2.11014e-05
-1.94398e-05
4.31469e-05
-0.000204717
0.000147631
-0.000332714
0.000256531
-0.000333132
0.00033328
-0.000210411
0.000349711
1.05368e-05
0.000291667
0.000280849
0.000166507
0.00052356
0.000673031
-0.00157109
0.00182958
-0.0031124
0.00174919
-0.00457544
0.00160495
-0.00590673
0.00137159
-0.00705365
0.00105567
-0.00794879
0.000626345
-0.00853259
0.000121035
-0.00875734
-0.000462303
-0.00875506
-0.000906821
-0.00847794
-0.00142777
-0.00797085
-0.0019169
-0.00724041
-0.00241643
-0.0063058
-0.00289867
-0.00517767
-0.00336784
-0.00386633
-0.00381529
-0.00238366
-0.00423389
-0.000745722
-0.00461207
0.00102741
-0.00494071
0.00290847
-0.00520676
0.0048697
-0.00540404
0.00687764
-0.00552168
0.00889744
-0.00555943
0.0108817
-0.00549698
0.012798
-0.0053536
0.0145845
-0.00509195
0.0162226
-0.00476793
0.0176183
-0.00429347
0.0188196
-0.00383949
0.019693
-0.00320194
0.0203161
-0.00262909
0.0206626
-0.0020048
0.0207868
-0.00142905
0.0207125
-0.000875283
0.020479
-0.000364618
0.0200905
0.000126612
0.0195661
0.000586878
0.018935
0.0010093
0.0182192
0.00139859
0.0174349
0.0017584
0.0165955
0.00209055
0.0157118
0.00239627
0.0147927
0.00267786
0.0138447
0.0029365
0.0128724
0.00317439
0.011881
0.00339
0.0108739
0.00358498
0.00985499
0.00375827
0.00882589
0.00391147
0.00779201
0.00404029
0.00675588
0.00414668
0.00572079
0.004229
0.00469131
0.0042855
0.0036716
0.00431484
0.00266443
0.00431814
0.00167788
0.00429062
0.000716891
0.00423383
-0.000213241
0.0041443
-0.00110645
0.00402478
-0.00195468
0.00387009
-0.00275115
0.00368551
-0.00349021
0.00346628
-0.0041632
0.00321594
-0.00476444
0.00293419
-0.00528791
0.00262235
-0.00572613
0.00228346
-0.00607389
0.00191922
-0.00632854
0.00153331
-0.00648455
0.00113105
-0.00653582
0.000709977
-0.00648133
0.000281004
-0.00632498
-0.000158346
-0.00606724
-0.000591565
-0.0057069
-0.00101695
-0.00524771
-0.0014288
-0.00469549
-0.00182066
-0.00405756
-0.00218437
-0.00334245
-0.00251455
-0.00255938
-0.00280438
-0.00172139
-0.0030453
-0.000842709
-0.00323149
6.22036e-05
-0.00335979
0.000977798
-0.00342287
0.00188558
-0.00341572
0.00276935
-0.00333758
0.00361065
-0.00318747
0.00438882
-0.002961
0.00509008
-0.00266309
0.00569558
-0.00229741
0.00618534
-0.00186274
0.00655309
-0.00137422
0.0067825
-0.0008387
0.00685757
-0.000255081
0.00678596
0.000371285
0.00655841
0.000993076
0.00617638
0.00160946
0.00564323
0.00220873
0.00496822
0.00277422
0.00416532
0.00328748
0.00325182
0.00373464
0.00224901
0.0040971
0.00118246
0.00435985
8.00665e-05
0.00451294
-0.00102933
0.00454363
-0.00211046
0.00444526
-0.00313203
0.00421605
-0.00406182
0.00385551
-0.00486902
0.00336944
-0.00552372
0.00276669
-0.00600412
0.00206257
-0.00629386
0.00128061
-0.00636648
0.00043115
-0.00622842
-0.000467389
-0.00587616
-0.00135051
-0.00531568
-0.00220268
-0.00456502
-0.00299316
-0.00364639
-0.00369024
-0.00259172
-0.00426353
-0.00144262
-0.00468013
-0.000243428
-0.0049212
0.000961653
-0.00497102
0.00211993
-0.00481641
0.00318137
-0.00445777
0.00410328
-0.00390696
0.00484027
-0.00317803
0.00535362
-0.00229733
0.00562012
-0.00130484
0.00563029
-0.000246737
0.00537553
0.000855727
0.00486718
0.00190369
0.00412955
0.00286444
0.00320207
0.00368128
0.00213236
0.0043107
0.000976988
0.00471367
-0.00020158
0.00485856
-0.00133536
0.00473078
-0.00235535
0.0043304
-0.0032044
0.00368065
-0.00382994
0.00281442
-0.00419191
0.00178066
-0.0042716
0.000646668
-0.00406614
-0.000526514
-0.00359324
-0.00163395
-0.00288384
-0.00261259
-0.00199627
-0.00338532
-0.000994121
-0.00389372
3.99086e-05
-0.00409568
0.00102828
-0.00395805
0.00188977
-0.00350126
0.00255297
-0.00275166
0.00296009
-0.00176696
0.00308475
-0.000634112
0.00291141
0.000577341
0.00245861
0.00171882
0.00176626
0.0027066
0.000900091
0.00344455
-5.69809e-05
0.00385691
-0.00101006
0.00388958
-0.00186538
0.00353753
-0.00254061
0.00283313
-0.00296522
0.00184015
-0.00309673
0.000656526
-0.00292734
-0.000606946
-0.00247458
-0.00179334
-0.00179177
-0.00278506
-0.000956672
-0.00347347
-5.86806e-05
-0.00378757
0.000781738
-0.0036613
0.00148524
-0.00315068
0.00197253
-0.00230672
0.00219572
-0.0012402
0.00213952
-8.58495e-05
0.00183004
0.00100826
0.00132193
0.00189712
0.000696426
0.0024752
4.48511e-05
0.00268218
-0.000529071
0.00249068
-0.000957704
0.00197912
-0.00119004
0.0012364
-0.00121198
0.000396153
-0.00104552
-0.000399115
-0.00074127
-0.00102352
-0.000369512
-0.00139056
-5.28599e-06
-0.00146851
0.000286179
-0.00127232
0.000461832
-0.000887298
0.000507567
-0.000414273
0.000439621
3.28777e-05
0.000296208
0.000358611
0.000127881
0.000504749
-1.24564e-05
0.00045805
-8.82574e-05
0.000255506
-8.17096e-05
-2.59876e-05
1.85123e-06
-0.000288278
0.000128744
-0.000459607
0.00026457
-0.000468957
0.000362453
-0.000308294
0.000389017
-1.60268e-05
0.000328213
0.000341653
0.000188296
0.000663477
0.000861328
-0.00267889
0.00450847
-0.00529506
0.00436536
-0.00774398
0.00405388
-0.00990717
0.00353477
-0.0116604
0.00280889
-0.0129128
0.00187875
-0.0137901
0.000998364
-0.0143622
0.000109734
-0.0152313
-3.76967e-05
-0.0158234
-0.00083569
-0.0160072
-0.0017331
-0.0156789
-0.00274471
-0.0148477
-0.00372984
-0.0135407
-0.00467481
-0.0118044
-0.00555163
-0.00969787
-0.00634041
-0.00728793
-0.00702201
-0.00464389
-0.00758475
-0.00183022
-0.00802043
0.00108999
-0.00832425
0.00404732
-0.00847902
0.00700285
-0.00851496
0.00988231
-0.00837644
0.0126334
-0.00810471
0.0151585
-0.00761699
0.0174253
-0.00703479
0.0192891
-0.00615727
0.0208224
-0.00537281
0.0217513
-0.0041308
0.0222115
-0.00308933
0.022281
-0.00207431
0.0220597
-0.00120775
0.021632
-0.000447502
0.0210367
0.000230602
0.0203382
0.000825183
0.0195679
0.00135713
0.0187437
0.0018335
0.0178788
0.00226347
0.0169827
0.00265454
0.0160608
0.00301245
0.0151167
0.00334036
0.0141528
0.00364177
0.0131713
0.003918
0.0121741
0.00417162
0.0111598
0.00440423
0.0101315
0.00461327
0.00909138
0.00479844
0.00804007
0.00496279
0.00697933
0.00510103
0.00591179
0.00521422
0.00483969
0.0053011
0.00377009
0.00535511
0.00270492
0.00538
0.00165211
0.00537095
0.000616143
0.00532659
-0.00039866
0.00524863
-0.00138066
0.0051263