/*--------------------------------*- C++ -*----------------------------------*\
  =========                 |
  \\      /  F ield         | OpenFOAM: The Open Source CFD Toolbox
   \\    /   O peration     | Website:  https://openfoam.org
    \\  /    A nd           | Version:  12
     \\/     M anipulation  |
\*---------------------------------------------------------------------------*/
FoamFile
{
    format      ascii;
    class       volVectorField;
    location    "1.08";
    object      U;
}
// * * * * * * * * * * * * * * * * * * * * * * * * * * * * * * * * * * * * * //

dimensions      [0 1 -1 0 0 0 0];

internalField   nonuniform List<vector> 
3829
(
(6.97653e-07 -6.49013e-06 0)
(2.11672e-06 -6.54954e-06 0)
(3.54962e-06 -6.51068e-06 0)
(4.98973e-06 -6.45232e-06 0)
(6.43203e-06 -6.37482e-06 0)
(7.8726e-06 -6.27893e-06 0)
(9.30785e-06 -6.16585e-06 0)
(1.07343e-05 -6.03718e-06 0)
(1.21486e-05 -5.8948e-06 0)
(1.35471e-05 -5.74069e-06 0)
(1.49258e-05 -5.57692e-06 0)
(1.62809e-05 -5.40594e-06 0)
(1.76088e-05 -5.23054e-06 0)
(1.89068e-05 -5.05395e-06 0)
(2.01725e-05 -4.87966e-06 0)
(2.14052e-05 -4.71131e-06 0)
(2.26049e-05 -4.55264e-06 0)
(2.37732e-05 -4.40728e-06 0)
(2.49131e-05 -4.27862e-06 0)
(2.60288e-05 -4.16979e-06 0)
(2.71255e-05 -4.08345e-06 0)
(2.82096e-05 -4.02173e-06 0)
(2.92882e-05 -3.98615e-06 0)
(3.03692e-05 -3.97751e-06 0)
(3.14608e-05 -3.99592e-06 0)
(3.2571e-05 -4.04082e-06 0)
(3.37078e-05 -4.1108e-06 0)
(3.48785e-05 -4.20392e-06 0)
(3.60899e-05 -4.31761e-06 0)
(3.73471e-05 -4.44878e-06 0)
(3.86538e-05 -4.594e-06 0)
(4.00128e-05 -4.74904e-06 0)
(4.1426e-05 -4.91027e-06 0)
(4.28927e-05 -5.07431e-06 0)
(4.44167e-05 -5.2361e-06 0)
(4.60044e-05 -5.39074e-06 0)
(4.76575e-05 -5.53356e-06 0)
(4.93748e-05 -5.65977e-06 0)
(5.11523e-05 -5.76597e-06 0)
(5.29844e-05 -5.84793e-06 0)
(5.4864e-05 -5.90224e-06 0)
(5.67831e-05 -5.92608e-06 0)
(5.87288e-05 -5.91721e-06 0)
(6.06897e-05 -5.87327e-06 0)
(6.26559e-05 -5.79311e-06 0)
(6.46125e-05 -5.67588e-06 0)
(6.6546e-05 -5.52134e-06 0)
(6.8442e-05 -5.32999e-06 0)
(7.02856e-05 -5.10196e-06 0)
(7.20637e-05 -4.83929e-06 0)
(7.37607e-05 -4.54329e-06 0)
(7.53601e-05 -4.21681e-06 0)
(7.6851e-05 -3.86181e-06 0)
(7.82222e-05 -3.48108e-06 0)
(7.94582e-05 -3.0778e-06 0)
(8.05444e-05 -2.6563e-06 0)
(8.147e-05 -2.21984e-06 0)
(8.22309e-05 -1.77192e-06 0)
(8.28188e-05 -1.31433e-06 0)
(8.32333e-05 -8.51746e-07 0)
(8.34609e-05 -3.91589e-07 0)
(8.3483e-05 6.47769e-08 0)
(8.33089e-05 5.17421e-07 0)
(8.29475e-05 9.62992e-07 0)
(8.23995e-05 1.39777e-06 0)
(8.16654e-05 1.8184e-06 0)
(8.07476e-05 2.22196e-06 0)
(7.96495e-05 2.60577e-06 0)
(7.83759e-05 2.96759e-06 0)
(7.69336e-05 3.3059e-06 0)
(7.53287e-05 3.61648e-06 0)
(7.35713e-05 3.90322e-06 0)
(7.16732e-05 4.16198e-06 0)
(6.96395e-05 4.38884e-06 0)
(6.74815e-05 4.59075e-06 0)
(6.52121e-05 4.75985e-06 0)
(6.28423e-05 4.90477e-06 0)
(6.03763e-05 5.02115e-06 0)
(5.78391e-05 5.10859e-06 0)
(5.52442e-05 5.17154e-06 0)
(5.25885e-05 5.20883e-06 0)
(4.98913e-05 5.22198e-06 0)
(4.71641e-05 5.2121e-06 0)
(4.44158e-05 5.17933e-06 0)
(4.16629e-05 5.12885e-06 0)
(3.89154e-05 5.057e-06 0)
(3.61783e-05 4.96913e-06 0)
(3.34616e-05 4.86551e-06 0)
(3.07765e-05 4.74825e-06 0)
(2.81341e-05 4.61823e-06 0)
(2.55354e-05 4.47706e-06 0)
(2.29933e-05 4.32736e-06 0)
(2.05148e-05 4.16863e-06 0)
(1.80992e-05 4.00373e-06 0)
(1.57579e-05 3.83345e-06 0)
(1.34945e-05 3.65985e-06 0)
(1.13102e-05 3.48162e-06 0)
(9.21379e-06 3.30425e-06 0)
(7.19949e-06 3.12491e-06 0)
(5.28159e-06 2.9481e-06 0)
(3.46113e-06 2.76999e-06 0)
(1.72515e-06 2.59417e-06 0)
(9.0318e-08 2.42258e-06 0)
(-1.44953e-06 2.25306e-06 0)
(-2.89953e-06 2.08724e-06 0)
(-4.25581e-06 1.92573e-06 0)
(-5.51908e-06 1.76914e-06 0)
(-6.6901e-06 1.6177e-06 0)
(-7.77026e-06 1.47176e-06 0)
(-8.76104e-06 1.33174e-06 0)
(-9.66469e-06 1.19739e-06 0)
(-1.04835e-05 1.06925e-06 0)
(-1.12197e-05 9.47354e-07 0)
(-1.18761e-05 8.31787e-07 0)
(-1.24551e-05 7.2266e-07 0)
(-1.29598e-05 6.19641e-07 0)
(-1.33934e-05 5.22718e-07 0)
(-1.37586e-05 4.31862e-07 0)
(-1.40586e-05 3.46874e-07 0)
(-1.42968e-05 2.67777e-07 0)
(-1.44765e-05 1.94347e-07 0)
(-1.46006e-05 1.2662e-07 0)
(-1.46725e-05 6.40385e-08 0)
(-1.4696e-05 6.83091e-09 0)
(-1.46747e-05 -4.55318e-08 0)
(-1.46115e-05 -9.29925e-08 0)
(-1.4509e-05 -1.35713e-07 0)
(-1.43702e-05 -1.7388e-07 0)
(-1.41983e-05 -2.07695e-07 0)
(-1.39961e-05 -2.37374e-07 0)
(-1.37665e-05 -2.6313e-07 0)
(-1.35126e-05 -2.85184e-07 0)
(-1.32369e-05 -3.03763e-07 0)
(-1.29422e-05 -3.19091e-07 0)
(-1.2631e-05 -3.31398e-07 0)
(-1.23058e-05 -3.4091e-07 0)
(-1.19689e-05 -3.4785e-07 0)
(-1.16224e-05 -3.52436e-07 0)
(-1.12685e-05 -3.5488e-07 0)
(-1.09089e-05 -3.55382e-07 0)
(-1.05457e-05 -3.54132e-07 0)
(-1.01803e-05 -3.51311e-07 0)
(-9.81436e-06 -3.47086e-07 0)
(-9.44931e-06 -3.41615e-07 0)
(-9.08652e-06 -3.35049e-07 0)
(-8.72714e-06 -3.27527e-07 0)
(-8.37227e-06 -3.1918e-07 0)
(-8.02296e-06 -3.10137e-07 0)
(-7.68007e-06 -3.00519e-07 0)
(-7.34437e-06 -2.90443e-07 0)
(-7.01657e-06 -2.80025e-07 0)
(-6.69721e-06 -2.69368e-07 0)
(-6.38674e-06 -2.58569e-07 0)
(-6.08557e-06 -2.47709e-07 0)
(-5.79396e-06 -2.36856e-07 0)
(-5.51216e-06 -2.26059e-07 0)
(-5.24033e-06 -2.15356e-07 0)
(-4.97859e-06 -2.04777e-07 0)
(-4.72708e-06 -1.94348e-07 0)
(-4.48584e-06 -1.84093e-07 0)
(-4.25491e-06 -1.74039e-07 0)
(-4.03429e-06 -1.64217e-07 0)
(-3.82391e-06 -1.54656e-07 0)
(-3.62369e-06 -1.45381e-07 0)
(-3.43346e-06 -1.36414e-07 0)
(-3.25304e-06 -1.27784e-07 0)
(-3.08217e-06 -1.1951e-07 0)
(-2.92062e-06 -1.11612e-07 0)
(-2.76809e-06 -1.04109e-07 0)
(-2.62422e-06 -9.70152e-08 0)
(-2.48865e-06 -9.03446e-08 0)
(-2.36096e-06 -8.41093e-08 0)
(-2.24071e-06 -7.83204e-08 0)
(-2.12739e-06 -7.29866e-08 0)
(-2.02048e-06 -6.81159e-08 0)
(-1.91943e-06 -6.37216e-08 0)
(-1.82362e-06 -5.98255e-08 0)
(-1.73238e-06 -5.64635e-08 0)
(-1.64495e-06 -5.36886e-08 0)
(-1.56044e-06 -5.1566e-08 0)
(-1.47784e-06 -5.01437e-08 0)
(-1.39603e-06 -4.94288e-08 0)
(-1.31392e-06 -4.9364e-08 0)
(-1.23052e-06 -4.98142e-08 0)
(-1.14516e-06 -5.05579e-08 0)
(-1.05754e-06 -5.1321e-08 0)
(-9.67819e-07 -5.18253e-08 0)
(-8.76596e-07 -5.18254e-08 0)
(-7.84888e-07 -5.11454e-08 0)
(-6.94018e-07 -4.9693e-08 0)
(-6.05386e-07 -4.74845e-08 0)
(-5.20342e-07 -4.45996e-08 0)
(-4.40112e-07 -4.11994e-08 0)
(-3.65516e-07 -3.75386e-08 0)
(-2.96884e-07 -3.38935e-08 0)
(-2.34146e-07 -3.05493e-08 0)
(-1.76758e-07 -2.77951e-08 0)
(-1.23699e-07 -2.58256e-08 0)
(-7.33158e-08 -2.47312e-08 0)
(-2.42925e-08 -2.42399e-08 0)
(8.70154e-07 -2.04754e-05 0)
(2.6451e-06 -2.0634e-05 0)
(4.42392e-06 -2.04761e-05 0)
(6.1996e-06 -2.02391e-05 0)
(7.95971e-06 -1.99246e-05 0)
(9.69343e-06 -1.95357e-05 0)
(1.13909e-05 -1.90776e-05 0)
(1.30438e-05 -1.85565e-05 0)
(1.46462e-05 -1.79806e-05 0)
(1.61944e-05 -1.73599e-05 0)
(1.7682e-05 -1.67042e-05 0)
(1.91005e-05 -1.60233e-05 0)
(2.04415e-05 -1.53288e-05 0)
(2.16984e-05 -1.46332e-05 0)
(2.28675e-05 -1.39501e-05 0)
(2.39481e-05 -1.32941e-05 0)
(2.49423e-05 -1.26799e-05 0)
(2.58561e-05 -1.21217e-05 0)
(2.6698e-05 -1.16324e-05 0)
(2.74793e-05 -1.12238e-05 0)
(2.82139e-05 -1.09055e-05 0)
(2.89175e-05 -1.0685e-05 0)
(2.96077e-05 -1.05669e-05 0)
(3.03026e-05 -1.05538e-05 0)
(3.102e-05 -1.06449e-05 0)
(3.17784e-05 -1.08365e-05 0)
(3.25942e-05 -1.11224e-05 0)
(3.34821e-05 -1.14939e-05 0)
(3.44551e-05 -1.19404e-05 0)
(3.55229e-05 -1.24501e-05 0)
(3.66945e-05 -1.30097e-05 0)
(3.79727e-05 -1.36063e-05 0)
(3.9352e-05 -1.4226e-05 0)
(4.0839e-05 -1.48514e-05 0)
(4.24454e-05 -1.54642e-05 0)
(4.41728e-05 -1.6047e-05 0)
(4.60203e-05 -1.65834e-05 0)
(4.79772e-05 -1.70578e-05 0)
(5.00345e-05 -1.74581e-05 0)
(5.21851e-05 -1.77713e-05 0)
(5.44122e-05 -1.79865e-05 0)
(5.67e-05 -1.80965e-05 0)
(5.90322e-05 -1.80937e-05 0)
(6.13905e-05 -1.79727e-05 0)
(6.3756e-05 -1.77309e-05 0)
(6.61086e-05 -1.73672e-05 0)
(6.84276e-05 -1.68819e-05 0)
(7.06964e-05 -1.62765e-05 0)
(7.28927e-05 -1.55567e-05 0)
(7.49973e-05 -1.47256e-05 0)
(7.69916e-05 -1.37913e-05 0)
(7.88563e-05 -1.27632e-05 0)
(8.05819e-05 -1.16479e-05 0)
(8.2152e-05 -1.04564e-05 0)
(8.35446e-05 -9.19975e-06 0)
(8.47463e-05 -7.89088e-06 0)
(8.57516e-05 -6.54008e-06 0)
(8.65643e-05 -5.15665e-06 0)
(8.71716e-05 -3.75424e-06 0)
(8.75478e-05 -2.34697e-06 0)
(8.76968e-05 -9.44474e-07 0)
(8.76357e-05 4.46413e-07 0)
(8.73653e-05 1.8171e-06 0)
(8.68777e-05 3.15663e-06 0)
(8.61745e-05 4.45477e-06 0)
(8.52607e-05 5.70246e-06 0)
(8.41425e-05 6.89405e-06 0)
(8.28273e-05 8.02117e-06 0)
(8.13258e-05 9.0775e-06 0)
(7.96362e-05 1.0057e-05 0)
(7.77876e-05 1.09582e-05 0)
(7.57912e-05 1.17761e-05 0)
(7.3627e-05 1.25107e-05 0)
(7.13444e-05 1.31591e-05 0)
(6.89398e-05 1.37228e-05 0)
(6.6432e-05 1.42e-05 0)
(6.38457e-05 1.45917e-05 0)
(6.11499e-05 1.49009e-05 0)
(5.84032e-05 1.51316e-05 0)
(5.56158e-05 1.52823e-05 0)
(5.27731e-05 1.53588e-05 0)
(4.99028e-05 1.53649e-05 0)
(4.70108e-05 1.53043e-05 0)
(4.41204e-05 1.51839e-05 0)
(4.12341e-05 1.50031e-05 0)
(3.8362e-05 1.47722e-05 0)
(3.55225e-05 1.44922e-05 0)
(3.27139e-05 1.41688e-05 0)
(2.99491e-05 1.38068e-05 0)
(2.72371e-05 1.34103e-05 0)
(2.45844e-05 1.29837e-05 0)
(2.19966e-05 1.25333e-05 0)
(1.94809e-05 1.20602e-05 0)
(1.70407e-05 1.15712e-05 0)
(1.46844e-05 1.10652e-05 0)
(1.24088e-05 1.05522e-05 0)
(1.02253e-05 1.0033e-05 0)
(8.13805e-06 9.5105e-06 0)
(6.13778e-06 8.98639e-06 0)
(4.23581e-06 8.46668e-06 0)
(2.43012e-06 7.94827e-06 0)
(7.24686e-07 7.43859e-06 0)
(-8.80718e-07 6.93831e-06 0)
(-2.3932e-06 6.44621e-06 0)
(-3.81011e-06 5.96645e-06 0)
(-5.13065e-06 5.49962e-06 0)
(-6.35654e-06 5.04715e-06 0)
(-7.48936e-06 4.61016e-06 0)
(-8.53006e-06 4.18939e-06 0)
(-9.48168e-06 3.78569e-06 0)
(-1.03462e-05 3.3994e-06 0)
(-1.11253e-05 3.03104e-06 0)
(-1.18223e-05 2.68078e-06 0)
(-1.24398e-05 2.34877e-06 0)
(-1.29813e-05 2.03476e-06 0)
(-1.34501e-05 1.73902e-06 0)
(-1.38486e-05 1.46116e-06 0)
(-1.41801e-05 1.20091e-06 0)
(-1.44474e-05 9.5823e-07 0)
(-1.46542e-05 7.32392e-07 0)
(-1.48035e-05 5.23023e-07 0)
(-1.48991e-05 3.29676e-07 0)
(-1.49438e-05 1.51785e-07 0)
(-1.49414e-05 -1.12005e-08 0)
(-1.48957e-05 -1.5993e-07 0)
(-1.48089e-05 -2.94609e-07 0)
(-1.46841e-05 -4.15737e-07 0)
(-1.45244e-05 -5.23854e-07 0)
(-1.43328e-05 -6.19538e-07 0)
(-1.41122e-05 -7.03401e-07 0)
(-1.38657e-05 -7.76046e-07 0)
(-1.3596e-05 -8.38102e-07 0)
(-1.33058e-05 -8.9022e-07 0)
(-1.29979e-05 -9.33047e-07 0)
(-1.26746e-05 -9.67242e-07 0)
(-1.23384e-05 -9.93461e-07 0)
(-1.19916e-05 -1.01235e-06 0)
(-1.16364e-05 -1.02454e-06 0)
(-1.12746e-05 -1.03063e-06 0)
(-1.09081e-05 -1.03122e-06 0)
(-1.05388e-05 -1.02683e-06 0)
(-1.01681e-05 -1.01798e-06 0)
(-9.79751e-06 -1.00516e-06 0)
(-9.42849e-06 -9.88803e-07 0)
(-9.06233e-06 -9.69341e-07 0)
(-8.70014e-06 -9.47168e-07 0)
(-8.34297e-06 -9.22657e-07 0)
(-7.99184e-06 -8.96171e-07 0)
(-7.64757e-06 -8.68058e-07 0)
(-7.31091e-06 -8.38658e-07 0)
(-6.98253e-06 -8.08304e-07 0)
(-6.66294e-06 -7.77303e-07 0)
(-6.35253e-06 -7.45938e-07 0)
(-6.05166e-06 -7.14448e-07 0)
(-5.76052e-06 -6.83017e-07 0)
(-5.47932e-06 -6.51785e-07 0)
(-5.2082e-06 -6.2085e-07 0)
(-4.94723e-06 -5.9028e-07 0)
(-4.69654e-06 -5.60145e-07 0)
(-4.4562e-06 -5.3051e-07 0)
(-4.22623e-06 -5.01457e-07 0)
(-4.00663e-06 -4.73072e-07 0)
(-3.79734e-06 -4.45449e-07 0)
(-3.59825e-06 -4.18658e-07 0)
(-3.4092e-06 -3.92769e-07 0)
(-3.23e-06 -3.67842e-07 0)
(-3.06039e-06 -3.43953e-07 0)
(-2.90012e-06 -3.21159e-07 0)
(-2.74889e-06 -2.99509e-07 0)
(-2.60634e-06 -2.79045e-07 0)
(-2.47208e-06 -2.59803e-07 0)
(-2.34572e-06 -2.41819e-07 0)
(-2.22677e-06 -2.25126e-07 0)
(-2.11476e-06 -2.09748e-07 0)
(-2.00916e-06 -1.95702e-07 0)
(-1.90943e-06 -1.83019e-07 0)
(-1.81498e-06 -1.71755e-07 0)
(-1.72518e-06 -1.62012e-07 0)
(-1.63928e-06 -1.53956e-07 0)
(-1.55642e-06 -1.47802e-07 0)
(-1.47548e-06 -1.4372e-07 0)
(-1.39523e-06 -1.41758e-07 0)
(-1.31443e-06 -1.41761e-07 0)
(-1.23193e-06 -1.43323e-07 0)
(-1.14689e-06 -1.45781e-07 0)
(-1.05899e-06 -1.48291e-07 0)
(-9.68437e-07 -1.50005e-07 0)
(-8.75949e-07 -1.50178e-07 0)
(-7.82724e-07 -1.48294e-07 0)
(-6.90293e-07 -1.44082e-07 0)
(-6.00235e-07 -1.37606e-07 0)
(-5.14044e-07 -1.2912e-07 0)
(-4.3311e-07 -1.19082e-07 0)
(-3.58354e-07 -1.08243e-07 0)
(-2.90118e-07 -9.74152e-08 0)
(-2.28324e-07 -8.74993e-08 0)
(-1.72322e-07 -7.94011e-08 0)
(-1.2089e-07 -7.37264e-08 0)
(-7.19819e-08 -7.07233e-08 0)
(-2.39357e-08 -6.95621e-08 0)
(1.34785e-06 -3.80112e-05 0)
(4.07804e-06 -3.81918e-05 0)
(6.79739e-06 -3.77621e-05 0)
(9.47975e-06 -3.71169e-05 0)
(1.20963e-05 -3.62627e-05 0)
(1.46182e-05 -3.52044e-05 0)
(1.702e-05 -3.3962e-05 0)
(1.9277e-05 -3.25475e-05 0)
(2.13619e-05 -3.09888e-05 0)
(2.32648e-05 -2.9311e-05 0)
(2.49876e-05 -2.75426e-05 0)
(2.65185e-05 -2.57171e-05 0)
(2.78395e-05 -2.38672e-05 0)
(2.89396e-05 -2.20361e-05 0)
(2.9808e-05 -2.02603e-05 0)
(3.04419e-05 -1.85834e-05 0)
(3.08521e-05 -1.70446e-05 0)
(3.10596e-05 -1.56774e-05 0)
(3.10903e-05 -1.45128e-05 0)
(3.09753e-05 -1.35754e-05 0)
(3.07531e-05 -1.28853e-05 0)
(3.04669e-05 -1.24571e-05 0)
(3.0159e-05 -1.22991e-05 0)
(2.98734e-05 -1.24106e-05 0)
(2.96579e-05 -1.27874e-05 0)
(2.95527e-05 -1.34149e-05 0)
(2.95949e-05 -1.42736e-05 0)
(2.98164e-05 -1.53376e-05 0)
(3.02378e-05 -1.65748e-05 0)
(3.08757e-05 -1.79479e-05 0)
(3.17359e-05 -1.94194e-05 0)
(3.28187e-05 -2.09553e-05 0)
(3.41444e-05 -2.25167e-05 0)
(3.57324e-05 -2.40605e-05 0)
(3.75811e-05 -2.55472e-05 0)
(3.96782e-05 -2.69413e-05 0)
(4.20086e-05 -2.82101e-05 0)
(4.45431e-05 -2.93247e-05 0)
(4.72568e-05 -3.02589e-05 0)
(5.01343e-05 -3.09926e-05 0)
(5.31338e-05 -3.15087e-05 0)
(5.62251e-05 -3.17946e-05 0)
(5.93854e-05 -3.18414e-05 0)
(6.25752e-05 -3.16447e-05 0)
(6.57616e-05 -3.12029e-05 0)
(6.89147e-05 -3.05205e-05 0)
(7.20076e-05 -2.9602e-05 0)
(7.50013e-05 -2.84601e-05 0)
(7.78741e-05 -2.71029e-05 0)
(8.06024e-05 -2.55459e-05 0)
(8.31443e-05 -2.38102e-05 0)
(8.54929e-05 -2.19111e-05 0)
(8.76324e-05 -1.98655e-05 0)
(8.95346e-05 -1.76967e-05 0)
(9.11782e-05 -1.54309e-05 0)
(9.25567e-05 -1.30846e-05 0)
(9.3679e-05 -1.06784e-05 0)
(9.45302e-05 -8.23459e-06 0)
(9.50846e-05 -5.779e-06 0)
(9.5359e-05 -3.32505e-06 0)
(9.53764e-05 -8.93994e-07 0)
(9.51289e-05 1.49836e-06 0)
(9.46105e-05 3.82841e-06 0)
(9.38242e-05 6.08658e-06 0)
(9.27799e-05 8.25583e-06 0)
(9.1499e-05 1.03226e-05 0)
(8.99889e-05 1.22746e-05 0)
(8.82534e-05 1.41041e-05 0)
(8.63089e-05 1.57974e-05 0)
(8.41794e-05 1.73578e-05 0)
(8.18774e-05 1.87769e-05 0)
(7.94201e-05 2.00515e-05 0)
(7.68238e-05 2.11781e-05 0)
(7.41028e-05 2.21566e-05 0)
(7.12716e-05 2.2989e-05 0)
(6.83418e-05 2.36817e-05 0)
(6.53412e-05 2.42296e-05 0)
(6.22801e-05 2.46418e-05 0)
(5.91715e-05 2.49279e-05 0)
(5.60331e-05 2.50832e-05 0)
(5.28778e-05 2.51227e-05 0)
(4.97175e-05 2.50513e-05 0)
(4.6572e-05 2.4876e-05 0)
(4.34372e-05 2.46057e-05 0)
(4.03372e-05 2.4246e-05 0)
(3.72861e-05 2.38074e-05 0)
(3.42749e-05 2.32973e-05 0)
(3.13228e-05 2.27171e-05 0)
(2.84358e-05 2.20855e-05 0)
(2.56225e-05 2.14041e-05 0)
(2.2889e-05 2.06758e-05 0)
(2.02378e-05 1.99176e-05 0)
(1.76763e-05 1.91275e-05 0)
(1.51976e-05 1.83163e-05 0)
(1.282e-05 1.74885e-05 0)
(1.05515e-05 1.66476e-05 0)
(8.37375e-06 1.57987e-05 0)
(6.29746e-06 1.49501e-05 0)
(4.32452e-06 1.41011e-05 0)
(2.45504e-06 1.32627e-05 0)
(6.93004e-07 1.24343e-05 0)
(-9.62844e-07 1.16186e-05 0)
(-2.52047e-06 1.08171e-05 0)
(-3.97737e-06 1.00334e-05 0)
(-5.33357e-06 9.27046e-06 0)
(-6.59276e-06 8.53011e-06 0)
(-7.75436e-06 7.81408e-06 0)
(-8.82104e-06 7.12384e-06 0)
(-9.79505e-06 6.46071e-06 0)
(-1.06789e-05 5.82535e-06 0)
(-1.14759e-05 5.21881e-06 0)
(-1.21885e-05 4.64095e-06 0)
(-1.28199e-05 4.092e-06 0)
(-1.3374e-05 3.57187e-06 0)
(-1.38528e-05 3.0815e-06 0)
(-1.42596e-05 2.61978e-06 0)
(-1.45988e-05 2.18663e-06 0)
(-1.48725e-05 1.78164e-06 0)
(-1.50845e-05 1.40386e-06 0)
(-1.52389e-05 1.05296e-06 0)
(-1.53383e-05 7.28463e-07 0)
(-1.53861e-05 4.28655e-07 0)
(-1.53856e-05 1.54131e-07 0)
(-1.53407e-05 -9.8153e-08 0)
(-1.52542e-05 -3.27407e-07 0)
(-1.51286e-05 -5.34525e-07 0)
(-1.49672e-05 -7.20439e-07 0)
(-1.4773e-05 -8.86052e-07 0)
(-1.45492e-05 -1.03228e-06 0)
(-1.42985e-05 -1.16009e-06 0)
(-1.4024e-05 -1.27041e-06 0)
(-1.37285e-05 -1.36421e-06 0)
(-1.34145e-05 -1.44253e-06 0)
(-1.30848e-05 -1.50639e-06 0)
(-1.27418e-05 -1.55683e-06 0)
(-1.23878e-05 -1.5949e-06 0)
(-1.2025e-05 -1.62164e-06 0)
(-1.16554e-05 -1.63805e-06 0)
(-1.12809e-05 -1.64509e-06 0)
(-1.09032e-05 -1.64366e-06 0)
(-1.0524e-05 -1.63462e-06 0)
(-1.01447e-05 -1.61874e-06 0)
(-9.7667e-06 -1.59677e-06 0)
(-9.3913e-06 -1.5694e-06 0)
(-9.01974e-06 -1.53728e-06 0)
(-8.65303e-06 -1.50101e-06 0)
(-8.29218e-06 -1.46115e-06 0)
(-7.93814e-06 -1.41827e-06 0)
(-7.5917e-06 -1.3729e-06 0)
(-7.25358e-06 -1.32559e-06 0)
(-6.92439e-06 -1.27685e-06 0)
(-6.60456e-06 -1.22722e-06 0)
(-6.29442e-06 -1.17714e-06 0)
(-5.9942e-06 -1.12701e-06 0)
(-5.704e-06 -1.0771e-06 0)
(-5.42391e-06 -1.02761e-06 0)
(-5.15403e-06 -9.78653e-07 0)
(-4.89438e-06 -9.30293e-07 0)
(-4.64511e-06 -8.82619e-07 0)
(-4.40627e-06 -8.3573e-07 0)
(-4.17792e-06 -7.89753e-07 0)
(-3.96007e-06 -7.44844e-07 0)
(-3.75263e-06 -7.0115e-07 0)
(-3.55546e-06 -6.58787e-07 0)
(-3.36841e-06 -6.17859e-07 0)
(-3.19126e-06 -5.78474e-07 0)
(-3.02378e-06 -5.40732e-07 0)
(-2.86568e-06 -5.04727e-07 0)
(-2.71663e-06 -4.70552e-07 0)
(-2.57628e-06 -4.38258e-07 0)
(-2.44423e-06 -4.07899e-07 0)
(-2.32007e-06 -3.79534e-07 0)
(-2.20333e-06 -3.53212e-07 0)
(-2.09351e-06 -3.28973e-07 0)
(-1.99007e-06 -3.06829e-07 0)
(-1.89251e-06 -2.86807e-07 0)
(-1.8003e-06 -2.68963e-07 0)
(-1.71287e-06 -2.53453e-07 0)
(-1.62957e-06 -2.40567e-07 0)
(-1.54952e-06 -2.3073e-07 0)
(-1.4715e-06 -2.24316e-07 0)
(-1.39405e-06 -2.21494e-07 0)
(-1.31562e-06 -2.22051e-07 0)
(-1.23473e-06 -2.25305e-07 0)
(-1.15028e-06 -2.30103e-07 0)
(-1.06186e-06 -2.34967e-07 0)
(-9.69769e-07 -2.38429e-07 0)
(-8.74995e-07 -2.39189e-07 0)
(-7.79053e-07 -2.36428e-07 0)
(-6.83847e-07 -2.29701e-07 0)
(-5.91281e-07 -2.19175e-07 0)
(-5.03064e-07 -2.05281e-07 0)
(-4.20856e-07 -1.88752e-07 0)
(-3.45764e-07 -1.70816e-07 0)
(-2.78201e-07 -1.52878e-07 0)
(-2.18123e-07 -1.36471e-07 0)
(-1.64673e-07 -1.2328e-07 0)
(-1.16215e-07 -1.14429e-07 0)
(-6.99745e-08 -1.10136e-07 0)
(-2.34954e-08 -1.09103e-07 0)
(2.45686e-06 -6.44373e-05 0)
(7.398e-06 -6.44697e-05 0)
(1.22913e-05 -6.34392e-05 0)
(1.70602e-05 -6.1892e-05 0)
(2.16613e-05 -5.98439e-05 0)
(2.59928e-05 -5.73206e-05 0)
(3.00026e-05 -5.43554e-05 0)
(3.36366e-05 -5.10012e-05 0)
(3.68085e-05 -4.73146e-05 0)
(3.9524e-05 -4.33555e-05 0)
(4.17361e-05 -3.92015e-05 0)
(4.34225e-05 -3.49159e-05 0)
(4.45285e-05 -3.05952e-05 0)
(4.50394e-05 -2.63318e-05 0)
(4.49647e-05 -2.22307e-05 0)
(4.43044e-05 -1.8398e-05 0)
(4.31397e-05 -1.49808e-05 0)
(4.15415e-05 -1.20409e-05 0)
(3.95855e-05 -9.62473e-06 0)
(3.73577e-05 -7.78749e-06 0)
(3.49422e-05 -6.55302e-06 0)
(3.24306e-05 -5.94339e-06 0)
(2.99317e-05 -5.95741e-06 0)
(2.75365e-05 -6.58493e-06 0)
(2.53409e-05 -7.80965e-06 0)
(2.34449e-05 -9.58346e-06 0)
(2.19197e-05 -1.18595e-05 0)
(2.0839e-05 -1.4567e-05 0)
(2.02658e-05 -1.75831e-05 0)
(2.02255e-05 -2.07983e-05 0)
(2.06959e-05 -2.41407e-05 0)
(2.16722e-05 -2.75263e-05 0)
(2.31855e-05 -3.08644e-05 0)
(2.52322e-05 -3.40783e-05 0)
(2.77716e-05 -3.71008e-05 0)
(3.07584e-05 -3.98706e-05 0)
(3.41467e-05 -4.23353e-05 0)
(3.78831e-05 -4.44544e-05 0)
(4.19071e-05 -4.61884e-05 0)
(4.61631e-05 -4.7518e-05 0)
(5.05911e-05 -4.84236e-05 0)
(5.51321e-05 -4.88934e-05 0)
(5.97311e-05 -4.89276e-05 0)
(6.43334e-05 -4.85313e-05 0)
(6.88789e-05 -4.77136e-05 0)
(7.33225e-05 -4.64881e-05 0)
(7.76101e-05 -4.48834e-05 0)
(8.17094e-05 -4.29185e-05 0)
(8.55912e-05 -4.06221e-05 0)
(8.91864e-05 -3.80342e-05 0)
(9.248e-05 -3.51829e-05 0)
(9.54776e-05 -3.21009e-05 0)
(9.81412e-05 -2.88267e-05 0)
(0.000100423 -2.54016e-05 0)
(0.000102333 -2.18544e-05 0)
(0.000103888 -1.82173e-05 0)
(0.000105069 -1.45261e-05 0)
(0.000105861 -1.08167e-05 0)
(0.000106289 -7.12142e-06 0)
(0.000106353 -3.47253e-06 0)
(0.000106057 1.12069e-07 0)
(0.000105412 3.59605e-06 0)
(0.000104444 6.95599e-06 0)
(0.000103174 1.01751e-05 0)
(0.000101592 1.3223e-05 0)
(9.97237e-05 1.61033e-05 0)
(9.75995e-05 1.87888e-05 0)
(9.52241e-05 2.12761e-05 0)
(9.26481e-05 2.35577e-05 0)
(8.98895e-05 2.56242e-05 0)
(8.69536e-05 2.74761e-05 0)
(8.38715e-05 2.91096e-05 0)
(8.06359e-05 3.05248e-05 0)
(7.73085e-05 3.17276e-05 0)
(7.39088e-05 3.27204e-05 0)
(7.04321e-05 3.35119e-05 0)
(6.69099e-05 3.41091e-05 0)
(6.33591e-05 3.45136e-05 0)
(5.9791e-05 3.47481e-05 0)
(5.62311e-05 3.48143e-05 0)
(5.26941e-05 3.47268e-05 0)
(4.91807e-05 3.44887e-05 0)
(4.57087e-05 3.41211e-05 0)
(4.22923e-05 3.36273e-05 0)
(3.89395e-05 3.30255e-05 0)
(3.5664e-05 3.23191e-05 0)
(3.24543e-05 3.15274e-05 0)
(2.93404e-05 3.06509e-05 0)
(2.63333e-05 2.97159e-05 0)
(2.3399e-05 2.87182e-05 0)
(2.05822e-05 2.76748e-05 0)
(1.78742e-05 2.65869e-05 0)
(1.52655e-05 2.5474e-05 0)
(1.27741e-05 2.43338e-05 0)
(1.03891e-05 2.31817e-05 0)
(8.11009e-06 2.20183e-05 0)
(5.95579e-06 2.08532e-05 0)
(3.91608e-06 1.9692e-05 0)
(1.98923e-06 1.85395e-05 0)
(1.83952e-07 1.74013e-05 0)
(-1.52105e-06 1.6281e-05 0)
(-3.11711e-06 1.51804e-05 0)
(-4.60361e-06 1.41034e-05 0)
(-5.98391e-06 1.30544e-05 0)
(-7.26029e-06 1.20347e-05 0)
(-8.43522e-06 1.10486e-05 0)
(-9.51105e-06 1.00974e-05 0)
(-1.04905e-05 9.18293e-06 0)
(-1.13766e-05 8.30662e-06 0)
(-1.2173e-05 7.46775e-06 0)
(-1.28835e-05 6.66795e-06 0)
(-1.35115e-05 5.90818e-06 0)
(-1.40603e-05 5.18862e-06 0)
(-1.45312e-05 4.50862e-06 0)
(-1.49294e-05 3.86774e-06 0)
(-1.52599e-05 3.26535e-06 0)
(-1.55242e-05 2.70108e-06 0)
(-1.57271e-05 2.17431e-06 0)
(-1.58711e-05 1.68393e-06 0)
(-1.59586e-05 1.22843e-06 0)
(-1.59954e-05 8.07675e-07 0)
(-1.59832e-05 4.20734e-07 0)
(-1.59268e-05 6.51021e-08 0)
(-1.58295e-05 -2.5981e-07 0)
(-1.56915e-05 -5.54481e-07 0)
(-1.55175e-05 -8.20158e-07 0)
(-1.53106e-05 -1.05812e-06 0)
(-1.50739e-05 -1.26955e-06 0)
(-1.48102e-05 -1.45567e-06 0)
(-1.45224e-05 -1.61771e-06 0)
(-1.42133e-05 -1.75688e-06 0)
(-1.38858e-05 -1.87445e-06 0)
(-1.35426e-05 -1.97177e-06 0)
(-1.31861e-05 -2.05021e-06 0)
(-1.28188e-05 -2.1112e-06 0)
(-1.24429e-05 -2.15616e-06 0)
(-1.20606e-05 -2.1865e-06 0)
(-1.16736e-05 -2.20357e-06 0)
(-1.12838e-05 -2.20865e-06 0)
(-1.08925e-05 -2.20291e-06 0)
(-1.05014e-05 -2.18745e-06 0)
(-1.01118e-05 -2.1633e-06 0)
(-9.72488e-06 -2.13138e-06 0)
(-9.34183e-06 -2.09258e-06 0)
(-8.96378e-06 -2.04775e-06 0)
(-8.59167e-06 -1.99762e-06 0)
(-8.2264e-06 -1.94293e-06 0)
(-7.86889e-06 -1.88436e-06 0)
(-7.5199e-06 -1.82261e-06 0)
(-7.18012e-06 -1.7584e-06 0)
(-6.85011e-06 -1.69246e-06 0)
(-6.53023e-06 -1.62552e-06 0)
(-6.22069e-06 -1.55824e-06 0)
(-5.92153e-06 -1.49115e-06 0)
(-5.63271e-06 -1.42462e-06 0)
(-5.35417e-06 -1.35882e-06 0)
(-5.0859e-06 -1.29381e-06 0)
(-4.82794e-06 -1.22962e-06 0)
(-4.58042e-06 -1.16632e-06 0)
(-4.34347e-06 -1.10402e-06 0)
(-4.11717e-06 -1.04292e-06 0)
(-3.90153e-06 -9.83266e-07 0)
(-3.69643e-06 -9.25243e-07 0)
(-3.5017e-06 -8.69019e-07 0)
(-3.31717e-06 -8.14723e-07 0)
(-3.14264e-06 -7.62474e-07 0)
(-2.97782e-06 -7.12422e-07 0)
(-2.82245e-06 -6.6471e-07 0)
(-2.67618e-06 -6.19451e-07 0)
(-2.53859e-06 -5.76704e-07 0)
(-2.40932e-06 -5.36525e-07 0)
(-2.28794e-06 -4.98992e-07 0)
(-2.17398e-06 -4.64179e-07 0)
(-2.06689e-06 -4.32145e-07 0)
(-1.96615e-06 -4.02879e-07 0)
(-1.87126e-06 -3.76378e-07 0)
(-1.78175e-06 -3.52634e-07 0)
(-1.69722e-06 -3.31838e-07 0)
(-1.61718e-06 -3.14408e-07 0)
(-1.54078e-06 -3.01078e-07 0)
(-1.46669e-06 -2.92559e-07 0)
(-1.39309e-06 -2.8926e-07 0)
(-1.31795e-06 -2.90969e-07 0)
(-1.2393e-06 -2.96696e-07 0)
(-1.15564e-06 -3.0472e-07 0)
(-1.06645e-06 -3.12787e-07 0)
(-9.72183e-07 -3.18721e-07 0)
(-8.74208e-07 -3.20545e-07 0)
(-7.74522e-07 -3.17226e-07 0)
(-6.75538e-07 -3.0809e-07 0)
(-5.79586e-07 -2.93592e-07 0)
(-4.88612e-07 -2.74299e-07 0)
(-4.04631e-07 -2.51224e-07 0)
(-3.29054e-07 -2.2606e-07 0)
(-2.62393e-07 -2.00739e-07 0)
(-2.04709e-07 -1.77609e-07 0)
(-1.5494e-07 -1.59423e-07 0)
(-1.10657e-07 -1.48172e-07 0)
(-6.81122e-08 -1.43336e-07 0)
(-2.33648e-08 -1.43473e-07 0)
(4.73709e-06 -0.000108372 0)
(1.42194e-05 -0.000107879 0)
(2.35797e-05 -0.000105535 0)
(3.26357e-05 -0.00010202 0)
(4.12162e-05 -9.73639e-05 0)
(4.91896e-05 -9.16482e-05 0)
(5.63795e-05 -8.49446e-05 0)
(6.26386e-05 -7.74122e-05 0)
(6.7915e-05 -6.91871e-05 0)
(7.21053e-05 -6.04663e-05 0)
(7.52171e-05 -5.14777e-05 0)
(7.71579e-05 -4.24764e-05 0)
(7.77725e-05 -3.36696e-05 0)
(7.70417e-05 -2.5284e-05 0)
(7.49181e-05 -1.74373e-05 0)
(7.1213e-05 -1.03261e-05 0)
(6.62246e-05 -3.97224e-06 0)
(6.05494e-05 1.43558e-06 0)
(5.42722e-05 5.76091e-06 0)
(4.75625e-05 8.93253e-06 0)
(4.06454e-05 1.0856e-05 0)
(3.37008e-05 1.15169e-05 0)
(2.69406e-05 1.0905e-05 0)
(2.04847e-05 9.05787e-06 0)
(1.45633e-05 6.07257e-06 0)
(9.35843e-06 1.99467e-06 0)
(4.99991e-06 -2.92699e-06 0)
(1.86083e-06 -8.52231e-06 0)
(1.14924e-07 -1.46418e-05 0)
(-4.92732e-07 -2.11334e-05 0)
(-1.06553e-07 -2.77913e-05 0)
(1.33299e-06 -3.43702e-05 0)
(3.78856e-06 -4.07375e-05 0)
(7.14796e-06 -4.67466e-05 0)
(1.13169e-05 -5.22465e-05 0)
(1.6196e-05 -5.71538e-05 0)
(2.16633e-05 -6.13871e-05 0)
(2.76197e-05 -6.48964e-05 0)
(3.39388e-05 -6.76487e-05 0)
(4.05119e-05 -6.96299e-05 0)
(4.72601e-05 -7.08408e-05 0)
(5.40681e-05 -7.13009e-05 0)
(6.08416e-05 -7.10305e-05 0)
(6.75071e-05 -7.00662e-05 0)
(7.39991e-05 -6.84527e-05 0)
(8.02162e-05 -6.62414e-05 0)
(8.61144e-05 -6.34842e-05 0)
(9.16618e-05 -6.02133e-05 0)
(9.67667e-05 -5.65041e-05 0)
(0.000101411 -5.24103e-05 0)
(0.000105593 -4.79832e-05 0)
(0.000109278 -4.3284e-05 0)
(0.000112427 -3.8377e-05 0)
(0.000115052 -3.33051e-05 0)
(0.000117177 -2.81224e-05 0)
(0.000118782 -2.28771e-05 0)
(0.000119869 -1.76258e-05 0)
(0.000120442 -1.24266e-05 0)
(0.000120501 -7.30426e-06 0)
(0.000120113 -2.31968e-06 0)
(0.000119294 2.51577e-06 0)
(0.000118028 7.16484e-06 0)
(0.000116378 1.15961e-05 0)
(0.000114333 1.57852e-05 0)
(0.000111965 1.97148e-05 0)
(0.00010931 2.33688e-05 0)
(0.000106356 2.67304e-05 0)
(0.000103173 2.98055e-05 0)
(9.97637e-05 3.25854e-05 0)
(9.61727e-05 3.50556e-05 0)
(9.24284e-05 3.72269e-05 0)
(8.85508e-05 3.90978e-05 0)
(8.45792e-05 4.0678e-05 0)
(8.05368e-05 4.19792e-05 0)
(7.64469e-05 4.30096e-05 0)
(7.2331e-05 4.37802e-05 0)
(6.81949e-05 4.42982e-05 0)
(6.40898e-05 4.45893e-05 0)
(6.00272e-05 4.46611e-05 0)
(5.60017e-05 4.45348e-05 0)
(5.20279e-05 4.42172e-05 0)
(4.8131e-05 4.37249e-05 0)
(4.43291e-05 4.30769e-05 0)
(4.06102e-05 4.22876e-05 0)
(3.69954e-05 4.1372e-05 0)
(3.34984e-05 4.03476e-05 0)
(3.01013e-05 3.92156e-05 0)
(2.68391e-05 3.80168e-05 0)
(2.37061e-05 3.67347e-05 0)
(2.06816e-05 3.53988e-05 0)
(1.77883e-05 3.40161e-05 0)
(1.503e-05 3.25908e-05 0)
(1.24037e-05 3.11432e-05 0)
(9.89517e-06 2.9674e-05 0)
(7.52411e-06 2.81992e-05 0)
(5.28415e-06 2.67223e-05 0)
(3.17101e-06 2.52545e-05 0)
(1.18168e-06 2.37941e-05 0)
(-6.82209e-07 2.23543e-05 0)
(-2.42401e-06 2.09327e-05 0)
(-4.05072e-06 1.95376e-05 0)
(-5.56144e-06 1.81748e-05 0)
(-6.959e-06 1.68469e-05 0)
(-8.24687e-06 1.55581e-05 0)
(-9.42594e-06 1.43093e-05 0)
(-1.05006e-05 1.31038e-05 0)
(-1.14748e-05 1.19445e-05 0)
(-1.23512e-05 1.08316e-05 0)
(-1.31375e-05 9.76616e-06 0)
(-1.38355e-05 8.75037e-06 0)
(-1.44458e-05 7.7848e-06 0)
(-1.49736e-05 6.86881e-06 0)
(-1.54249e-05 6.00261e-06 0)
(-1.58044e-05 5.18625e-06 0)
(-1.61142e-05 4.41771e-06 0)
(-1.63573e-05 3.6972e-06 0)
(-1.65379e-05 3.02339e-06 0)
(-1.66599e-05 2.39524e-06 0)
(-1.67278e-05 1.81213e-06 0)
(-1.67436e-05 1.27204e-06 0)
(-1.67095e-05 7.72563e-07 0)
(-1.66322e-05 3.1397e-07 0)
(-1.65146e-05 -1.07087e-07 0)
(-1.63569e-05 -4.89561e-07 0)
(-1.61628e-05 -8.3596e-07 0)
(-1.59359e-05 -1.14772e-06 0)
(-1.56794e-05 -1.42634e-06 0)
(-1.53959e-05 -1.67323e-06 0)
(-1.50885e-05 -1.88978e-06 0)
(-1.47598e-05 -2.07742e-06 0)
(-1.44129e-05 -2.23756e-06 0)
(-1.40503e-05 -2.37172e-06 0)
(-1.36749e-05 -2.48152e-06 0)
(-1.32891e-05 -2.56867e-06 0)
(-1.28954e-05 -2.63497e-06 0)
(-1.24959e-05 -2.68225e-06 0)
(-1.20925e-05 -2.71229e-06 0)
(-1.16869e-05 -2.72677e-06 0)
(-1.12806e-05 -2.72725e-06 0)
(-1.08749e-05 -2.71513e-06 0)
(-1.04712e-05 -2.69169e-06 0)
(-1.00706e-05 -2.65812e-06 0)
(-9.67417e-06 -2.61552e-06 0)
(-9.28301e-06 -2.56493e-06 0)
(-8.89811e-06 -2.50732e-06 0)
(-8.52028e-06 -2.44357e-06 0)
(-8.15034e-06 -2.37449e-06 0)
(-7.78915e-06 -2.30086e-06 0)
(-7.43749e-06 -2.22346e-06 0)
(-7.09605e-06 -2.14317e-06 0)
(-6.76539e-06 -2.06096e-06 0)
(-6.44579e-06 -1.9778e-06 0)
(-6.13728e-06 -1.89461e-06 0)
(-5.8397e-06 -1.81208e-06 0)
(-5.55273e-06 -1.73063e-06 0)
(-5.2761e-06 -1.65035e-06 0)
(-5.00971e-06 -1.57116e-06 0)
(-4.7536e-06 -1.49292e-06 0)
(-4.508e-06 -1.41566e-06 0)
(-4.27312e-06 -1.33956e-06 0)
(-4.04911e-06 -1.2649e-06 0)
(-3.83599e-06 -1.19202e-06 0)
(-3.63354e-06 -1.12122e-06 0)
(-3.44158e-06 -1.05268e-06 0)
(-3.25988e-06 -9.86462e-07 0)
(-3.08826e-06 -9.22751e-07 0)
(-2.92648e-06 -8.61774e-07 0)
(-2.77421e-06 -8.03688e-07 0)
(-2.63105e-06 -7.48643e-07 0)
(-2.49657e-06 -6.96683e-07 0)
(-2.37039e-06 -6.47849e-07 0)
(-2.25213e-06 -6.02221e-07 0)
(-2.14129e-06 -5.5992e-07 0)
(-2.03727e-06 -5.21053e-07 0)
(-1.93951e-06 -4.85564e-07 0)
(-1.84749e-06 -4.53403e-07 0)
(-1.76086e-06 -4.24371e-07 0)
(-1.67943e-06 -3.98677e-07 0)
(-1.60297e-06 -3.76824e-07 0)
(-1.53084e-06 -3.60017e-07 0)
(-1.4615e-06 -3.49473e-07 0)
(-1.39269e-06 -3.4602e-07 0)
(-1.32172e-06 -3.49503e-07 0)
(-1.24591e-06 -3.58586e-07 0)
(-1.16322e-06 -3.70844e-07 0)
(-1.073e-06 -3.83048e-07 0)
(-9.75884e-07 -3.92264e-07 0)
(-8.73847e-07 -3.95582e-07 0)
(-7.69489e-07 -3.91991e-07 0)
(-6.65886e-07 -3.80486e-07 0)
(-5.65885e-07 -3.62016e-07 0)
(-4.71583e-07 -3.37242e-07 0)
(-3.85425e-07 -3.07502e-07 0)
(-3.09116e-07 -2.74837e-07 0)
(-2.43443e-07 -2.41688e-07 0)
(-1.88822e-07 -2.1135e-07 0)
(-1.44023e-07 -1.88192e-07 0)
(-1.05065e-07 -1.75653e-07 0)
(-6.70108e-08 -1.71091e-07 0)
(-2.38364e-08 -1.73564e-07 0)
(9.31611e-06 -0.00018381 0)
(2.78827e-05 -0.000182039 0)
(4.61295e-05 -0.000176948 0)
(6.37367e-05 -0.000169308 0)
(8.02521e-05 -0.000159191 0)
(9.53597e-05 -0.000146748 0)
(0.000108625 -0.000132214 0)
(0.000119685 -0.000115901 0)
(0.000128321 -9.81665e-05 0)
(0.000134116 -7.93699e-05 0)
(0.000136819 -6.00661e-05 0)
(0.00013658 -4.08121e-05 0)