/*--------------------------------*- C++ -*----------------------------------*\
  =========                 |
  \\      /  F ield         | OpenFOAM: The Open Source CFD Toolbox
   \\    /   O peration     | Website:  https://openfoam.org
    \\  /    A nd           | Version:  12
     \\/     M anipulation  |
\*---------------------------------------------------------------------------*/
FoamFile
{
    format      ascii;
    class       volScalarField;
    location    "2.08";
    object      p;
}
// * * * * * * * * * * * * * * * * * * * * * * * * * * * * * * * * * * * * * //

dimensions      [1 -1 -2 0 0 0 0];

internalField   nonuniform List<scalar> 
3829
(
-615.713
-615.713
-615.711
-615.71
-615.707
-615.704
-615.7
-615.695
-615.69
-615.684
-615.676
-615.669
-615.66
-615.65
-615.639
-615.628
-615.615
-615.602
-615.587
-615.571
-615.555
-615.537
-615.518
-615.498
-615.477
-615.455
-615.432
-615.408
-615.383
-615.357
-615.33
-615.302
-615.274
-615.245
-615.216
-615.186
-615.156
-615.125
-615.094
-615.063
-615.032
-615.002
-614.971
-614.94
-614.91
-614.881
-614.852
-614.824
-614.796
-614.77
-614.745
-614.721
-614.698
-614.676
-614.655
-614.635
-614.617
-614.601
-614.585
-614.571
-614.558
-614.546
-614.536
-614.527
-614.519
-614.513
-614.507
-614.503
-614.5
-614.497
-614.496
-614.495
-614.495
-614.495
-614.496
-614.497
-614.498
-614.5
-614.501
-614.503
-614.504
-614.505
-614.506
-614.507
-614.507
-614.506
-614.506
-614.504
-614.502
-614.499
-614.496
-614.492
-614.487
-614.482
-614.476
-614.47
-614.463
-614.455
-614.447
-614.439
-614.431
-614.422
-614.413
-614.403
-614.394
-614.385
-614.376
-614.366
-614.357
-614.348
-614.34
-614.332
-614.324
-614.316
-614.309
-614.302
-614.296
-614.29
-614.285
-614.28
-614.276
-614.273
-614.27
-614.267
-614.265
-614.264
-614.263
-614.263
-614.263
-614.263
-614.264
-614.266
-614.268
-614.27
-614.272
-614.275
-614.278
-614.281
-614.284
-614.288
-614.291
-614.295
-614.299
-614.303
-614.307
-614.311
-614.314
-614.318
-614.322
-614.325
-614.329
-614.332
-614.335
-614.338
-614.341
-614.344
-614.346
-614.349
-614.351
-614.353
-614.355
-614.356
-614.357
-614.359
-614.36
-614.36
-614.361
-614.362
-614.362
-614.362
-614.362
-614.362
-614.362
-614.362
-614.361
-614.361
-614.36
-614.36
-614.359
-614.358
-614.357
-614.357
-614.356
-614.355
-614.354
-614.353
-614.353
-614.352
-614.351
-614.351
-614.35
-614.349
-614.349
-614.348
-614.348
-614.348
-614.347
-614.347
-614.347
-614.347
-1774.14
-1774.14
-1774.14
-1774.13
-1774.13
-1774.13
-1774.12
-1774.12
-1774.11
-1774.11
-1774.1
-1774.09
-1774.08
-1774.07
-1774.06
-1774.05
-1774.04
-1774.02
-1774.01
-1773.99
-1773.97
-1773.95
-1773.93
-1773.91
-1773.89
-1773.86
-1773.83
-1773.81
-1773.78
-1773.75
-1773.72
-1773.69
-1773.66
-1773.62
-1773.59
-1773.56
-1773.52
-1773.49
-1773.46
-1773.42
-1773.39
-1773.35
-1773.32
-1773.29
-1773.25
-1773.22
-1773.19
-1773.16
-1773.13
-1773.11
-1773.08
-1773.05
-1773.03
-1773.01
-1772.99
-1772.97
-1772.95
-1772.93
-1772.92
-1772.91
-1772.89
-1772.88
-1772.88
-1772.87
-1772.86
-1772.86
-1772.85
-1772.85
-1772.85
-1772.85
-1772.85
-1772.85
-1772.85
-1772.86
-1772.86
-1772.86
-1772.87
-1772.87
-1772.87
-1772.87
-1772.88
-1772.88
-1772.88
-1772.88
-1772.88
-1772.88
-1772.88
-1772.88
-1772.88
-1772.88
-1772.87
-1772.87
-1772.86
-1772.86
-1772.85
-1772.84
-1772.84
-1772.83
-1772.82
-1772.81
-1772.8
-1772.79
-1772.78
-1772.77
-1772.76
-1772.75
-1772.74
-1772.73
-1772.72
-1772.72
-1772.71
-1772.7
-1772.69
-1772.68
-1772.68
-1772.67
-1772.66
-1772.66
-1772.65
-1772.65
-1772.64
-1772.64
-1772.64
-1772.63
-1772.63
-1772.63
-1772.63
-1772.63
-1772.63
-1772.63
-1772.63
-1772.63
-1772.64
-1772.64
-1772.64
-1772.64
-1772.65
-1772.65
-1772.65
-1772.66
-1772.66
-1772.66
-1772.67
-1772.67
-1772.68
-1772.68
-1772.68
-1772.69
-1772.69
-1772.7
-1772.7
-1772.7
-1772.71
-1772.71
-1772.71
-1772.71
-1772.72
-1772.72
-1772.72
-1772.72
-1772.72
-1772.73
-1772.73
-1772.73
-1772.73
-1772.73
-1772.73
-1772.73
-1772.73
-1772.73
-1772.73
-1772.73
-1772.73
-1772.73
-1772.73
-1772.73
-1772.73
-1772.73
-1772.73
-1772.73
-1772.73
-1772.73
-1772.73
-1772.72
-1772.72
-1772.72
-1772.72
-1772.72
-1772.72
-1772.72
-1772.72
-1772.72
-1772.72
-1772.72
-1772.72
-1772.72
-1772.72
-1772.72
-1772.72
-1772.72
-2800.39
-2800.39
-2800.39
-2800.39
-2800.38
-2800.38
-2800.38
-2800.37
-2800.37
-2800.36
-2800.36
-2800.35
-2800.34
-2800.33
-2800.32
-2800.31
-2800.29
-2800.28
-2800.26
-2800.24
-2800.22
-2800.2
-2800.17
-2800.14
-2800.12
-2800.09
-2800.06
-2800.02
-2799.99
-2799.95
-2799.92
-2799.88
-2799.84
-2799.8
-2799.76
-2799.72
-2799.68
-2799.64
-2799.6
-2799.56
-2799.52
-2799.48
-2799.44
-2799.4
-2799.36
-2799.33
-2799.3
-2799.26
-2799.23
-2799.2
-2799.17
-2799.15
-2799.12
-2799.1
-2799.08
-2799.06
-2799.04
-2799.03
-2799.02
-2799.01
-2799
-2798.99
-2798.98
-2798.98
-2798.98
-2798.98
-2798.98
-2798.98
-2798.98
-2798.98
-2798.99
-2798.99
-2799
-2799.01
-2799.01
-2799.02
-2799.02
-2799.03
-2799.03
-2799.04
-2799.04
-2799.05
-2799.05
-2799.05
-2799.05
-2799.06
-2799.06
-2799.05
-2799.05
-2799.05
-2799.04
-2799.04
-2799.03
-2799.03
-2799.02
-2799.01
-2799
-2798.99
-2798.98
-2798.98
-2798.96
-2798.95
-2798.94
-2798.93
-2798.92
-2798.91
-2798.9
-2798.89
-2798.88
-2798.87
-2798.86
-2798.85
-2798.84
-2798.84
-2798.83
-2798.82
-2798.82
-2798.81
-2798.81
-2798.8
-2798.8
-2798.79
-2798.79
-2798.79
-2798.79
-2798.79
-2798.79
-2798.79
-2798.79
-2798.79
-2798.79
-2798.79
-2798.79
-2798.8
-2798.8
-2798.8
-2798.81
-2798.81
-2798.81
-2798.82
-2798.82
-2798.82
-2798.83
-2798.83
-2798.84
-2798.84
-2798.85
-2798.85
-2798.85
-2798.86
-2798.86
-2798.86
-2798.87
-2798.87
-2798.87
-2798.88
-2798.88
-2798.88
-2798.88
-2798.88
-2798.89
-2798.89
-2798.89
-2798.89
-2798.89
-2798.89
-2798.89
-2798.89
-2798.89
-2798.89
-2798.89
-2798.89
-2798.89
-2798.89
-2798.89
-2798.89
-2798.89
-2798.89
-2798.89
-2798.89
-2798.89
-2798.89
-2798.89
-2798.89
-2798.88
-2798.88
-2798.88
-2798.88
-2798.88
-2798.88
-2798.88
-2798.88
-2798.88
-2798.88
-2798.88
-2798.88
-2798.88
-2798.88
-2798.88
-2798.88
-3709.54
-3709.54
-3709.54
-3709.54
-3709.54
-3709.54
-3709.54
-3709.53
-3709.53
-3709.53
-3709.52
-3709.52
-3709.51
-3709.5
-3709.49
-3709.48
-3709.46
-3709.45
-3709.43
-3709.41
-3709.38
-3709.35
-3709.32
-3709.29
-3709.26
-3709.22
-3709.18
-3709.14
-3709.09
-3709.05
-3709
-3708.95
-3708.91
-3708.86
-3708.81
-3708.75
-3708.7
-3708.65
-3708.6
-3708.56
-3708.51
-3708.46
-3708.41
-3708.37
-3708.33
-3708.29
-3708.25
-3708.21
-3708.18
-3708.15
-3708.12
-3708.09
-3708.06
-3708.04
-3708.02
-3708.01
-3707.99
-3707.98
-3707.97
-3707.96
-3707.96
-3707.95
-3707.95
-3707.95
-3707.96
-3707.96
-3707.97
-3707.97
-3707.98
-3707.99
-3708
-3708.01
-3708.02
-3708.03
-3708.04
-3708.05
-3708.06
-3708.07
-3708.08
-3708.09
-3708.1
-3708.1
-3708.11
-3708.11
-3708.11
-3708.11
-3708.11
-3708.11
-3708.11
-3708.1
-3708.1
-3708.09
-3708.09
-3708.08
-3708.07
-3708.06
-3708.05
-3708.04
-3708.03
-3708.02
-3708.01
-3707.99
-3707.98
-3707.97
-3707.96
-3707.95
-3707.94
-3707.92
-3707.91
-3707.9
-3707.89
-3707.88
-3707.88
-3707.87
-3707.86
-3707.85
-3707.85
-3707.84
-3707.84
-3707.83
-3707.83
-3707.83
-3707.82
-3707.82
-3707.82
-3707.82
-3707.82
-3707.82
-3707.82
-3707.82
-3707.82
-3707.83
-3707.83
-3707.83
-3707.84
-3707.84
-3707.84
-3707.85
-3707.85
-3707.86
-3707.86
-3707.86
-3707.87
-3707.87
-3707.88
-3707.88
-3707.88
-3707.89
-3707.89
-3707.9
-3707.9
-3707.9
-3707.91
-3707.91
-3707.91
-3707.92
-3707.92
-3707.92
-3707.92
-3707.92
-3707.93
-3707.93
-3707.93
-3707.93
-3707.93
-3707.93
-3707.93
-3707.93
-3707.93
-3707.93
-3707.93
-3707.93
-3707.93
-3707.93
-3707.93
-3707.93
-3707.93
-3707.93
-3707.93
-3707.93
-3707.93
-3707.93
-3707.92
-3707.92
-3707.92
-3707.92
-3707.92
-3707.92
-3707.92
-3707.92
-3707.92
-3707.92
-3707.92
-3707.92
-3707.92
-3707.92
-3707.92
-3707.92
-3707.92
-3707.92
-4514.94
-4514.94
-4514.94
-4514.94
-4514.95
-4514.95
-4514.95
-4514.96
-4514.96
-4514.96
-4514.96
-4514.97
-4514.97
-4514.96
-4514.96
-4514.95
-4514.94
-4514.93
-4514.91
-4514.88
-4514.85
-4514.81
-4514.78
-4514.73
-4514.69
-4514.64
-4514.59
-4514.53
-4514.48
-4514.42
-4514.35
-4514.29
-4514.22
-4514.16
-4514.09
-4514.03
-4513.96
-4513.9
-4513.84
-4513.78
-4513.72
-4513.67
-4513.61
-4513.56
-4513.51
-4513.47
-4513.42
-4513.38
-4513.35
-4513.31
-4513.28
-4513.26
-4513.23
-4513.21
-4513.19
-4513.18
-4513.17
-4513.16
-4513.15
-4513.15
-4513.15
-4513.16
-4513.16
-4513.17
-4513.18
-4513.19
-4513.2
-4513.22
-4513.23
-4513.25
-4513.26
-4513.28
-4513.3
-4513.31
-4513.33
-4513.34
-4513.36
-4513.37
-4513.38
-4513.39
-4513.4
-4513.41
-4513.42
-4513.42
-4513.42
-4513.42
-4513.42
-4513.42
-4513.42
-4513.41
-4513.41
-4513.4
-4513.39
-4513.38
-4513.37
-4513.36
-4513.35
-4513.34
-4513.32
-4513.31
-4513.3
-4513.28
-4513.27
-4513.26
-4513.24
-4513.23
-4513.22
-4513.21
-4513.2
-4513.18
-4513.17
-4513.16
-4513.16
-4513.15
-4513.14
-4513.13
-4513.13
-4513.12
-4513.12
-4513.11
-4513.11
-4513.11
-4513.1
-4513.1
-4513.1
-4513.1
-4513.1
-4513.1
-4513.1
-4513.11
-4513.11
-4513.11
-4513.11
-4513.12
-4513.12
-4513.13
-4513.13
-4513.13
-4513.14
-4513.14
-4513.15
-4513.15
-4513.16
-4513.16
-4513.17
-4513.17
-4513.17
-4513.18
-4513.18
-4513.19
-4513.19
-4513.19
-4513.2
-4513.2
-4513.2
-4513.2
-4513.21
-4513.21
-4513.21
-4513.21
-4513.21
-4513.22
-4513.22
-4513.22
-4513.22
-4513.22
-4513.22
-4513.22
-4513.22
-4513.22
-4513.22
-4513.22
-4513.22
-4513.22
-4513.22
-4513.22
-4513.22
-4513.22
-4513.22
-4513.22
-4513.21
-4513.21
-4513.21
-4513.21
-4513.21
-4513.21
-4513.21
-4513.21
-4513.21
-4513.21
-4513.21
-4513.21
-4513.21
-4513.2
-4513.2
-4513.2
-4513.2
-4513.2
-4513.2
-4513.2
-5228.4
-5228.4
-5228.4
-5228.41
-5228.42
-5228.43
-5228.44
-5228.46
-5228.47
-5228.48
-5228.5
-5228.51
-5228.51
-5228.51
-5228.51
-5228.51
-5228.5
-5228.49
-5228.47
-5228.45
-5228.42
-5228.39
-5228.34
-5228.29
-5228.24
-5228.17
-5228.1
-5228.02
-5227.94
-5227.86
-5227.78
-5227.7
-5227.62
-5227.53
-5227.45
-5227.37
-5227.29
-5227.22
-5227.14
-5227.07
-5227
-5226.93
-5226.87
-5226.81
-5226.76
-5226.71
-5226.66
-5226.62
-5226.58
-5226.55
-5226.52
-5226.49
-5226.47
-5226.45
-5226.43
-5226.42
-5226.42
-5226.41
-5226.41
-5226.42
-5226.43
-5226.44
-5226.45
-5226.47
-5226.48
-5226.5
-5226.52
-5226.55
-5226.57
-5226.59
-5226.62
-5226.64
-5226.66
-5226.69
-5226.71
-5226.73
-5226.75
-5226.76
-5226.78
-5226.79
-5226.8
-5226.81
-5226.82
-5226.83
-5226.83
-5226.83
-5226.83
-5226.83
-5226.82
-5226.82
-5226.81
-5226.8
-5226.79
-5226.78
-5226.76
-5226.75
-5226.74
-5226.72
-5226.71
-5226.69
-5226.68
-5226.66
-5226.65
-5226.63
-5226.62
-5226.6
-5226.59
-5226.58
-5226.57
-5226.55
-5226.54
-5226.53
-5226.52
-5226.52
-5226.51
-5226.5
-5226.49
-5226.49
-5226.48
-5226.48
-5226.48
-5226.48
-5226.47
-5226.47
-5226.47
-5226.47
-5226.47
-5226.48
-5226.48
-5226.48
-5226.48
-5226.49
-5226.49
-5226.49
-5226.5
-5226.5
-5226.51
-5226.51
-5226.52
-5226.52
-5226.53
-5226.53
-5226.53
-5226.54
-5226.54
-5226.55
-5226.55
-5226.56
-5226.56
-5226.57
-5226.57
-5226.57
-5226.58
-5226.58
-5226.58
-5226.58
-5226.59
-5226.59
-5226.59
-5226.59
-5226.59
-5226.6
-5226.6
-5226.6
-5226.6
-5226.6
-5226.6
-5226.6
-5226.6
-5226.6
-5226.6
-5226.6
-5226.6
-5226.6
-5226.6
-5226.6
-5226.6
-5226.6
-5226.59
-5226.59
-5226.59
-5226.59
-5226.59
-5226.59
-5226.59
-5226.59
-5226.59
-5226.59
-5226.59
-5226.59
-5226.58
-5226.58
-5226.58
-5226.58
-5226.58
-5226.58
-5226.58
-5226.58
-5226.58
-5226.58
-5860.38
-5860.38
-5860.4
-5860.42
-5860.44
-5860.47
-5860.51
-5860.54
-5860.58
-5860.63
-5860.67
-5860.7
-5860.74
-5860.76
-5860.78
-5860.8
-5860.8
-5860.79
-5860.78
-5860.75
-5860.71
-5860.67
-5860.61
-5860.54
-5860.45
-5860.36
-5860.27
-5860.16
-5860.04
-5859.93
-5859.82
-5859.7
-5859.59
-5859.48
-5859.38
-5859.27
-5859.18
-5859.08
-5858.99
-5858.91
-5858.83
-5858.75
-5858.68
-5858.62
-5858.56
-5858.5
-5858.45
-5858.41
-5858.37
-5858.33
-5858.3
-5858.28
-5858.26
-5858.25
-5858.24
-5858.23
-5858.23
-5858.24
-5858.25
-5858.26
-5858.28
-5858.29
-5858.32
-5858.34
-5858.37
-5858.4
-5858.43
-5858.46
-5858.49
-5858.53
-5858.56
-5858.59
-5858.62
-5858.65
-5858.68
-5858.7
-5858.73
-5858.75
-5858.77
-5858.78
-5858.8
-5858.81
-5858.82
-5858.82
-5858.82
-5858.82
-5858.82
-5858.82
-5858.81
-5858.8
-5858.79
-5858.78
-5858.77
-5858.76
-5858.74
-5858.72
-5858.71
-5858.69
-5858.67
-5858.66
-5858.64
-5858.62
-5858.61
-5858.59
-5858.57
-5858.56
-5858.54
-5858.53
-5858.52
-5858.5
-5858.49
-5858.48
-5858.47
-5858.46
-5858.46
-5858.45
-5858.44
-5858.44
-5858.43
-5858.43
-5858.43
-5858.43
-5858.43
-5858.43
-5858.43
-5858.43
-5858.43
-5858.43
-5858.43
-5858.44
-5858.44
-5858.44
-5858.45
-5858.45
-5858.46
-5858.46
-5858.47
-5858.47
-5858.48
-5858.48
-5858.49
-5858.49
-5858.5
-5858.5
-5858.51
-5858.51
-5858.51
-5858.52
-5858.52
-5858.53
-5858.53
-5858.53
-5858.54
-5858.54
-5858.54
-5858.55
-5858.55
-5858.55
-5858.55
-5858.55
-5858.56
-5858.56
-5858.56
-5858.56
-5858.56
-5858.56
-5858.56
-5858.56
-5858.56
-5858.56
-5858.56
-5858.56
-5858.56
-5858.56
-5858.56
-5858.56
-5858.56
-5858.56
-5858.56
-5858.55
-5858.55
-5858.55
-5858.55
-5858.55
-5858.55
-5858.55
-5858.55
-5858.55
-5858.55
-5858.55
-5858.54
-5858.54
-5858.54
-5858.54
-5858.54
-5858.54
-5858.54
-5858.54
-5858.54
-5858.54
-6420.09
-6420.11
-6420.13
-6420.17
-6420.22
-6420.28
-6420.36
-6420.44
-6420.54
-6420.63
-6420.72
-6420.81
-6420.87
-6420.93
-6420.98
-6421.01
-6421.03
-6421.04
-6421.03
-6421
-6420.95
-6420.89
-6420.81
-6420.71
-6420.6
-6420.46
-6420.32
-6420.16
-6420
-6419.84
-6419.69
-6419.54
-6419.39
-6419.26
-6419.13
-6419
-6418.89
-6418.78
-6418.68
-6418.58
-6418.49
-6418.41
-6418.33
-6418.26
-6418.2
-6418.14
-6418.09
-6418.05
-6418.01
-6417.98
-6417.95
-6417.93
-6417.91
-6417.91
-6417.9
-6417.91
-6417.91
-6417.93
-6417.94
-6417.97
-6417.99
-6418.02
-6418.05
-6418.09
-6418.13
-6418.17
-6418.21
-6418.25
-6418.29
-6418.34
-6418.38
-6418.42
-6418.45
-6418.49
-6418.53
-6418.56
-6418.58
-6418.61
-6418.63
-6418.65
-6418.67
-6418.68
-6418.69
-6418.69
-6418.69
-6418.69
-6418.69
-6418.68
-6418.68
-6418.66
-6418.65
-6418.64
-6418.62
-6418.6
-6418.59
-6418.57
-6418.55
-6418.53
-6418.51
-6418.49
-6418.47
-6418.45
-6418.43
-6418.42
-6418.4
-6418.38
-6418.37
-6418.35
-6418.34
-6418.33
-6418.32
-6418.3
-6418.29
-6418.29
-6418.28
-6418.27
-6418.27
-6418.26
-6418.26
-6418.25
-6418.25
-6418.25
-6418.25
-6418.25
-6418.25
-6418.25
-6418.25
-6418.26
-6418.26
-6418.26
-6418.27
-6418.27
-6418.28
-6418.28
-6418.29
-6418.29
-6418.3
-6418.3
-6418.31
-6418.31
-6418.32
-6418.32
-6418.33
-6418.33
-6418.34
-6418.34
-6418.35
-6418.35
-6418.36
-6418.36
-6418.36
-6418.37
-6418.37
-6418.37
-6418.38
-6418.38
-6418.38
-6418.38
-6418.39
-6418.39
-6418.39
-6418.39
-6418.39
-6418.39
-6418.39
-6418.39
-6418.39
-6418.39
-6418.39
-6418.39
-6418.39
-6418.39
-6418.39
-6418.39
-6418.39
-6418.39
-6418.39
-6418.39
-6418.39
-6418.39
-6418.39
-6418.38
-6418.38
-6418.38
-6418.38
-6418.38
-6418.38
-6418.38
-6418.38
-6418.38
-6418.38
-6418.38
-6418.38
-6418.38
-6418.37
-6418.37
-6418.37
-6418.37
-6418.37
-6418.37
-6915.74
-6915.76
-6915.8
-6915.86
-6915.95
-6916.05
-6916.17
-6916.31
-6916.46
-6916.62
-6916.78
-6916.94
-6917.1
-6917.23
-6917.34
-6917.42
-6917.48
-6917.51
-6917.52
-6917.49
-6917.44
-6917.36
-6917.25
-6917.1
-6916.93
-6916.73
-6916.51
-6916.28
-6916.05
-6915.83
-6915.63
-6915.43
-6915.25
-6915.08
-6914.93
-6914.79
-6914.66
-6914.54
-6914.42
-6914.32
-6914.23
-6914.14
-6914.06
-6913.99
-6913.92
-6913.87
-6913.82
-6913.77
-6913.74
-6913.71
-6913.69
-6913.67
-6913.66
-6913.66
-6913.66
-6913.67
-6913.69
-6913.71
-6913.74
-6913.77
-6913.81
-6913.85
-6913.9
-6913.94
-6913.99
-6914.05
-6914.1
-6914.15
-6914.2
-6914.25
-6914.31
-6914.35
-6914.4
-6914.44
-6914.48
-6914.52
-6914.55
-6914.58
-6914.61
-6914.63
-6914.64
-6914.66
-6914.66
-6914.67
-6914.67
-6914.67
-6914.66
-6914.65
-6914.64
-6914.63
-6914.61
-6914.59
-6914.58
-6914.56
-6914.54
-6914.51
-6914.49
-6914.47
-6914.45
-6914.43
-6914.41
-6914.39
-6914.37
-6914.35
-6914.33
-6914.31
-6914.29
-6914.28
-6914.26
-6914.25
-6914.24
-6914.23
-6914.22
-6914.21
-6914.2
-6914.2
-6914.19
-6914.19
-6914.18
-6914.18
-6914.18
-6914.18
-6914.18
-6914.18
-6914.18
-6914.18
-6914.18
-6914.19
-6914.19
-6914.19
-6914.2
-6914.2
-6914.21
-6914.21
-6914.22
-6914.22
-6914.23
-6914.24
-6914.24
-6914.25
-6914.25
-6914.26
-6914.26
-6914.27
-6914.27
-6914.28
-6914.28
-6914.29
-6914.29
-6914.3
-6914.3
-6914.3
-6914.31
-6914.31
-6914.31
-6914.32
-6914.32
-6914.32
-6914.32
-6914.32
-6914.32
-6914.33
-6914.33
-6914.33
-6914.33
-6914.33
-6914.33
-6914.33
-6914.33
-6914.33
-6914.33
-6914.33
-6914.33
-6914.33
-6914.33
-6914.33
-6914.32
-6914.32
-6914.32
-6914.32
-6914.32
-6914.32
-6914.32
-6914.32
-6914.32
-6914.32
-6914.31
-6914.31
-6914.31
-6914.31
-6914.31
-6914.31
-6914.31
-6914.31
-6914.31
-6914.31
-6914.31
-6914.31
-6914.31
-6914.31
-7354.55
-7354.58
-7354.65
-7354.75
-7354.9
-7355.1
-7355.35
-7355.65
-7356.11
-7356.44
-7356.73
-7356.97
-7357.18
-7357.34
-7357.48
-7357.58
-7357.64
-7357.67
-7357.67
-7357.64
-7357.57
-7357.46
-7357.31
-7357.12
-7356.88
-7356.58
-7356.23
-7355.75
-7355.41
-7355.1
-7354.84
-7354.62
-7354.41
-7354.23
-7354.07
-7353.92
-7353.78
-7353.66
-7353.54
-7353.44
-7353.34
-7353.25
-7353.17
-7353.1
-7353.04
-7352.98
-7352.93
-7352.89
-7352.86
-7352.83
-7352.82
-7352.81
-7352.8
-7352.81
-7352.82
-7352.84
-7352.87
-7352.9
-7352.94
-7352.98
-7353.03
-7353.09
-7353.14
-7353.2
-7353.26
-7353.33
-7353.39
-7353.46
-7353.52
-7353.58
-7353.64
-7353.7
-7353.75
-7353.8
-7353.85
-7353.89
-7353.93
-7353.96
-7353.99
-7354.01
-7354.03
-7354.04
-7354.05
-7354.05
-7354.05
-7354.04
-7354.03
-7354.02
-7354.01
-7353.99
-7353.97
-7353.95
-7353.93
-7353.91
-7353.88
-7353.86
-7353.84
-7353.81
-7353.79
-7353.76
-7353.74
-7353.72
-7353.7
-7353.68
-7353.66
-7353.64
-7353.62
-7353.6
-7353.59
-7353.58
-7353.56
-7353.55
-7353.54
-7353.53
-7353.53
-7353.52
-7353.52
-7353.51
-7353.51
-7353.51
-7353.5
-7353.5
-7353.51
-7353.51
-7353.51
-7353.51
-7353.51
-7353.52
-7353.52
-7353.53
-7353.53
-7353.54
-7353.54
-7353.55
-7353.55
-7353.56
-7353.56
-7353.57
-7353.58
-7353.58
-7353.59
-7353.59
-7353.6
-7353.61
-7353.61
-7353.62
-7353.62
-7353.63
-7353.63
-7353.63
-7353.64
-7353.64
-7353.64
-7353.65
-7353.65
-7353.65
-7353.66
-7353.66
-7353.66
-7353.66
-7353.66
-7353.66
-7353.66
-7353.66
-7353.67
-7353.67
-7353.67
-7353.67
-7353.67
-7353.66
-7353.66
-7353.66
-7353.66
-7353.66
-7353.66
-7353.66
-7353.66
-7353.66
-7353.66
-7353.66
-7353.66
-7353.66
-7353.65
-7353.65
-7353.65
-7353.65
-7353.65
-7353.65
-7353.65
-7353.65
-7353.65
-7353.65
-7353.65
-7353.65
-7353.65
-7353.64
-7353.64
-7353.64
-7353.64
-7353.64
-7742.93
-7742.97
-7743.05
-7743.18
-7743.36
-7743.62
-7743.96
-7744.41
-7745.08
-7745.56
-7745.99
-7746.36
-7746.67
-7746.93
-7747.15
-7747.31
-7747.42
-7747.49
-7747.51
-7747.48
-7747.4
-7747.27
-7747.08
-7746.83
-7746.5
-7746.1
-7745.62
-7744.93
-7744.48
-7744.1
-7743.8
-7743.55
-7743.34
-7743.16
-7743
-7742.85
-7742.72
-7742.6
-7742.49
-7742.38
-7742.29
-7742.2
-7742.13
-7742.06
-7741.99
-7741.94
-7741.89
-7741.86
-7741.83
-7741.81
-7741.79
-7741.79
-7741.8
-7741.81
-7741.83
-7741.86
-7741.9
-7741.94
-7741.99
-7742.05
-7742.11
-7742.18
-7742.25
-7742.32
-7742.39
-7742.47
-7742.55
-7742.62
-7742.7
-7742.77
-7742.84
-7742.9
-7742.96
-7743.02
-7743.07
-7743.12
-7743.16
-7743.19
-7743.22
-7743.25
-7743.26
-7743.27
-7743.28
-7743.28
-7743.28
-7743.27
-7743.26
-7743.24
-7743.23
-7743.21
-7743.19
-7743.16
-7743.14
-7743.11
-7743.08
-7743.06
-7743.03
-7743
-7742.98
-7742.95
-7742.93
-7742.9
-7742.88
-7742.86
-7742.84
-7742.82
-7742.8
-7742.78
-7742.77
-7742.75
-7742.74
-7742.73
-7742.72
-7742.71
-7742.7
-7742.7
-7742.69
-7742.69
-7742.69
-7742.68
-7742.68
-7742.68
-7742.69
-7742.69
-7742.69
-7742.69
-7742.7
-7742.7
-7742.7
-7742.71
-7742.71
-7742.72
-7742.73
-7742.73
-7742.74
-7742.74
-7742.75
-7742.76
-7742.76
-7742.77
-7742.78
-7742.78
-7742.79
-7742.79
-7742.8
-7742.8
-7742.81
-7742.81
-7742.82
-7742.82
-7742.83
-7742.83
-7742.83
-7742.84
-7742.84
-7742.84
-7742.84
-7742.85
-7742.85
-7742.85
-7742.85
-7742.85
-7742.85
-7742.85
-7742.85
-7742.85
-7742.85
-7742.85
-7742.85
-7742.85
-7742.85
-7742.85
-7742.85
-7742.85
-7742.85
-7742.85
-7742.85
-7742.85
-7742.85
-7742.84
-7742.84
-7742.84
-7742.84
-7742.84
-7742.84
-7742.84
-7742.84
-7742.84
-7742.84
-7742.83
-7742.83
-7742.83
-7742.83
-7742.83
-7742.83
-7742.83
-7742.83
-7742.83
-7742.83
-7742.83
-8086.62
-8086.64
-8086.67
-8086.71
-8086.76
-8086.82
-8086.85
-8086.93
-8088.34
-8088.22
-8088.13
-8088
-8087.87
-8087.73
-8087.6
-8087.47
-8087.34
-8087.22
-8087.11
-8087.01
-8086.91
-8086.82
-8086.74
-8086.66
-8086.59
-8086.53
-8086.48
-8086.44
-8086.4
-8086.38
-8086.36
-8086.36
-8086.36
-8086.37
-8086.39
-8086.42
-8086.46
-8086.51
-8086.57
-8086.63
-8086.7
-8086.77
-8086.85
-8086.93
-8087.02
-8087.11
-8087.2
-8087.28
-8087.37
-8087.46
-8087.54
-8087.62
-8087.69
-8087.76
-8087.82
-8087.88
-8087.93
-8087.98
-8088.01
-8088.04
-8088.06
-8088.08
-8088.09
-8088.1
-8088.09
-8088.09
-8088.08
-8088.06
-8088.05
-8088.02
-8088
-8087.98
-8087.95
-8087.92
-8087.89
-8087.86
-8087.83
-8087.8
-8087.77
-8087.74
-8087.72
-8087.69
-8087.66
-8087.64
-8087.62
-8087.6
-8087.58
-8087.56
-8087.54
-8087.52
-8087.51
-8087.5
-8087.49
-8087.48
-8087.47
-8087.46
-8087.46
-8087.45
-8087.45
-8087.45
-8087.44
-8087.44
-8087.44
-8087.45
-8087.45
-8087.45
-8087.45
-8087.46
-8087.46
-8087.47
-8087.47
-8087.48
-8087.49
-8087.49
-8087.5
-8087.5
-8087.51
-8087.52
-8087.52
-8087.53
-8087.54
-8087.54
-8087.55
-8087.56
-8087.56
-8087.57
-8087.57
-8087.58
-8087.58
-8087.59
-8087.59
-8087.59
-8087.6
-8087.6
-8087.6
-8087.61
-8087.61
-8087.61
-8087.61
-8087.62
-8087.62
-8087.62
-8087.62
-8087.62
-8087.62
-8087.62
-8087.62
-8087.62
-8087.62
-8087.62
-8087.62
-8087.62
-8087.62
-8087.62
-8087.62
-8087.62
-8087.62
-8087.62
-8087.61
-8087.61
-8087.61
-8087.61
-8087.61
-8087.61
-8087.61
-8087.61
-8087.61
-8087.6
-8087.6
-8087.6
-8087.6
-8087.6
-8087.6
-8087.6
-8087.6
-8087.6
-8087.6
-8087.6
-8087.6
-8087.6
-8087.6
-8391.04
-8391.04
-8391.06
-8391.09
-8391.12
-8391.15
-8391.18
-8391.23
-8393.3
-8393.21
-8393.14
-8393.05
-8392.94
-8392.83
-8392.72
-8392.61
-8392.5
-8392.39
-8392.29
-8392.19
-8392.1
-8392.01
-8391.93
-8391.86
-8391.79
-8391.73
-8391.68
-8391.64
-8391.61
-8391.59
-8391.58
-8391.58
-8391.59
-8391.61
-8391.64
-8391.68
-8391.73
-8391.79
-8391.85
-8391.93
-8392.01
-8392.1
-8392.19
-8392.28
-8392.38
-8392.48
-8392.59
-8392.69
-8392.79
-8392.88
-8392.97
-8393.06
-8393.14
-8393.22
-8393.29
-8393.35
-8393.4
-8393.45
-8393.49
-8393.52
-8393.54
-8393.56
-8393.57
-8393.57
-8393.56
-8393.56
-8393.54
-8393.52
-8393.5
-8393.48
-8393.45
-8393.42
-8393.39
-8393.36
-8393.33
-8393.29
-8393.26
-8393.23
-8393.2
-8393.17
-8393.14
-8393.11
-8393.08
-8393.06
-8393.03
-8393.01
-8392.99
-8392.97
-8392.95
-8392.94
-8392.92
-8392.91
-8392.9
-8392.89
-8392.88
-8392.88
-8392.87
-8392.87
-8392.86
-8392.86
-8392.86
-8392.86
-8392.86
-8392.86
-8392.87
-8392.87
-8392.87
-8392.88
-8392.88
-8392.89
-8392.9
-8392.9
-8392.91
-8392.91
-8392.92
-8392.93
-8392.93
-8392.94
-8392.95
-8392.96
-8392.96
-8392.97
-8392.97
-8392.98
-8392.99
-8392.99
-8393
-8393
-8393.01
-8393.01
-8393.02
-8393.02
-8393.02
-8393.03
-8393.03
-8393.03
-8393.04
-8393.04
-8393.04
-8393.04
-8393.04
-8393.04
-8393.05
-8393.05
-8393.05
-8393.05
-8393.05
-8393.05
-8393.05
-8393.05
-8393.05
-8393.04
-8393.04
-8393.04
-8393.04
-8393.04
-8393.04
-8393.04
-8393.04
-8393.04
-8393.04
-8393.04
-8393.03
-8393.03
-8393.03
-8393.03
-8393.03
-8393.03
-8393.03
-8393.03
-8393.03
-8393.03
-8393.03
-8393.02
-8393.02
-8393.02
-8393.02
-8393.02
-8393.02
-8393.02
-8393.02
-8660.67
-8660.67
-8660.68
-8660.69
-8660.71
-8660.72
-8660.73
-8660.76
-8663.45
-8663.4
-8663.35
-8663.29
-8663.2
-8663.11
-8663.02
-8662.92
-8662.82
-8662.72
-8662.62
-8662.53
-8662.44
-8662.35
-8662.28
-8662.2
-8662.14
-8662.08
-8662.04
-8662
-8661.97
-8661.95
-8661.95
-8661.95
-8661.97
-8662
-8662.03
-8662.08
-8662.14
-8662.21
-8662.29
-8662.37
-8662.47
-8662.57
-8662.67
-8662.78
-8662.89
-8663.01
-8663.12
-8663.24
-8663.35
-8663.45
-8663.55
-8663.65
-8663.74
-8663.82
-8663.9
-8663.96
-8664.02
-8664.07
-8664.11
-8664.14
-8664.16
-8664.17
-8664.18
-8664.18
-8664.17
-8664.16
-8664.14
-8664.12
-8664.1
-8664.07
-8664.04
-8664.01
-8663.97
-8663.94
-8663.9
-8663.87
-8663.83
-8663.8
-8663.76
-8663.73
-8663.7
-8663.67
-8663.64
-8663.62
-8663.59
-8663.57
-8663.55
-8663.53
-8663.51
-8663.49
-8663.48
-8663.47
-8663.46
-8663.45
-8663.44
-8663.43
-8663.43
-8663.42
-8663.42
-8663.42
-8663.42
-8663.42
-8663.42
-8663.42
-8663.43
-8663.43
-8663.43
-8663.44
-8663.44
-8663.45
-8663.46
-8663.46
-8663.47
-8663.48
-8663.48
-8663.49
-8663.5
-8663.51
-8663.51
-8663.52
-8663.53
-8663.53
-8663.54
-8663.55
-8663.55
-8663.56
-8663.56
-8663.57
-8663.57
-8663.58
-8663.58
-8663.59
-8663.59
-8663.59
-8663.6
-8663.6
-8663.6
-8663.6
-8663.61
-8663.61
-8663.61
-8663.61
-8663.61
-8663.61
-8663.61
-8663.61
-8663.61
-8663.61
-8663.61
-8663.61
-8663.61
-8663.61
-8663.61
-8663.61
-8663.61
-8663.61
-8663.61
-8663.61
-8663.6
-8663.6
-8663.6
-8663.6
-8663.6
-8663.6
-8663.6
-8663.6
-8663.59
-8663.59
-8663.59
-8663.59
-8663.59
-8663.59
-8663.59
-8663.59
-8663.59
-8663.59
-8663.59
-8663.59
-8663.59
-8663.59
-8663.59
-8899.5
-8899.5
-8899.51
-8899.52
-8899.52
-8899.53
-8899.54
-8899.55
-8902.83
-8902.79
-8902.75
-8902.7
-8902.63
-8902.55
-8902.47
-8902.38
-8902.28
-8902.19
-8902.1
-8902
-8901.92
-8901.83
-8901.75
-8901.68
-8901.62
-8901.56
-8901.52
-8901.48
-8901.46
-8901.44
-8901.44
-8901.45
-8901.47
-8901.51
-8901.55
-8901.61
-8901.68
-8901.76
-8901.85
-8901.95
-8902.05
-8902.16
-8902.28
-8902.4
-8902.53
-8902.66
-8902.78
-8902.91
-8903.03
-8903.15
-8903.26
-8903.36
-8903.46
-8903.55
-8903.62
-8903.69
-8903.75
-8903.8
-8903.84
-8903.87
-8903.89
-8903.91
-8903.91
-8903.91
-8903.9
-8903.88
-8903.86
-8903.84
-8903.81
-8903.78
-8903.74
-8903.71
-8903.67
-8903.63
-8903.59
-8903.56
-8903.52
-8903.48
-8903.45
-8903.41
-8903.38
-8903.35
-8903.32
-8903.29
-8903.27
-8903.24
-8903.22
-8903.2
-8903.18
-8903.17
-8903.15
-8903.14
-8903.13
-8903.12
-8903.11
-8903.11
-8903.1
-8903.1
-8903.1
-8903.09
-8903.09
-8903.1
-8903.1
-8903.1
-8903.1
-8903.11
-8903.11
-8903.12
-8903.12
-8903.13
-8903.14
-8903.14
-8903.15
-8903.16
-8903.17
-8903.17
-8903.18
-8903.19
-8903.2
-8903.2
-8903.21
-8903.22
-8903.22
-8903.23
-8903.24
-8903.24
-8903.25
-8903.25
-8903.26
-8903.26
-8903.27
-8903.27
-8903.27
-8903.28
-8903.28
-8903.28
-8903.29
-8903.29
-8903.29
-8903.29
-8903.29
-8903.29
-8903.29
-8903.29
-8903.3
-8903.3
-8903.3
-8903.3
-8903.29
-8903.29
-8903.29
-8903.29
-8903.29
-8903.29
-8903.29
-8903.29
-8903.29
-8903.29
-8903.29
-8903.29
-8903.28
-8903.28
-8903.28
-8903.28
-8903.28
-8903.28
-8903.28
-8903.28
-8903.28
-8903.27
-8903.27
-8903.27
-8903.27
-8903.27
-8903.27
-8903.27
-8903.27
-8903.27
-8903.27
-8903.27
-8903.27
-9111.07
-9111.07
-9111.08
-9111.08
-9111.09
-9111.09
-9111.09
-9111.1
-9114.92
-9114.89
-9114.85
-9114.81
-9114.75
-9114.67
-9114.59
-9114.51
-9114.42
-9114.33
-9114.23
-9114.14
-9114.05
-9113.97
-9113.89
-9113.82
-9113.75
-9113.7
-9113.65
-9113.62
-9113.6
-9113.59
-9113.59
-9113.6
-9113.63
-9113.67
-9113.73
-9113.79
-9113.87
-9113.96
-9114.06
-9114.17
-9114.29
-9114.41
-9114.54
-9114.68
-9114.82
-9114.95
-9115.09
-9115.23
-9115.36
-9115.49
-9115.61
-9115.72
-9115.82
-9115.91
-9116
-9116.07
-9116.13
-9116.18
-9116.22
-9116.25
-9116.27
-9116.28
-9116.28
-9116.28
-9116.26
-9116.25
-9116.22
-9116.19
-9116.16
-9116.13
-9116.09
-9116.05
-9116.01
-9115.97
-9115.93
-9115.89
-9115.85
-9115.81
-9115.77
-9115.74
-9115.7
-9115.67
-9115.64
-9115.61
-9115.59
-9115.56
-9115.54
-9115.52
-9115.5
-9115.49
-9115.47
-9115.46
-9115.45
-9115.44
-9115.43
-9115.43
-9115.42
-9115.42
-9115.42
-9115.42
-9115.42
-9115.42
-9115.42
-9115.42
-9115.43
-9115.43
-9115.44
-9115.44
-9115.45
-9115.46
-9115.46
-9115.47
-9115.48
-9115.48
-9115.49
-9115.5
-9115.51
-9115.52
-9115.52
-9115.53
-9115.54
-9115.54
-9115.55
-9115.56
-9115.56
-9115.57
-9115.58
-9115.58
-9115.59
-9115.59
-9115.59
-9115.6
-9115.6
-9115.61
-9115.61
-9115.61
-9115.61
-9115.62
-9115.62
-9115.62
-9115.62
-9115.62
-9115.62
-9115.62
-9115.62
-9115.62
-9115.62
-9115.62
-9115.62
-9115.62
-9115.62
-9115.62
-9115.62
-9115.62
-9115.62
-9115.62
-9115.62
-9115.62
-9115.61
-9115.61
-9115.61
-9115.61
-9115.61
-9115.61
-9115.61
-9115.61
-9115.6
-9115.6
-9115.6
-9115.6
-9115.6
-9115.6
-9115.6
-9115.6
-9115.6
-9115.6
-9115.6
-9115.6
-9115.6
-9115.6
-9115.6
-9298.49
-9298.49
-9298.49
-9298.5
-9298.5
-9298.5
-9298.5
-9298.51
-9302.82
-9302.8
-9302.76
-9302.72
-9302.66
-9302.59
-9302.52
-9302.43
-9302.34
-9302.25
-9302.15
-9302.06
-9301.97
-9301.89
-9301.8
-9301.73
-9301.67
-9301.61
-9301.57
-9301.53
-9301.51
-9301.51
-9301.51
-9301.53
-9301.56
-9301.61
-9301.67
-9301.75
-9301.83
-9301.93
-9302.04
-9302.16
-9302.29
-9302.43
-9302.57
-9302.72
-9302.87
-9303.02
-9303.17
-9303.32
-9303.46
-9303.59
-9303.72
-9303.84
-9303.95
-9304.05
-9304.13
-9304.21
-9304.27
-9304.32
-9304.36
-9304.39
-9304.41
-9304.42
-9304.42
-9304.41
-9304.39
-9304.37
-9304.34
-9304.31
-9304.28
-9304.24
-9304.2
-9304.16
-9304.11
-9304.07
-9304.03
-9303.99
-9303.94
-9303.9
-9303.87
-9303.83
-9303.79
-9303.76
-9303.73
-9303.7
-9303.67
-9303.65
-9303.63
-9303.61
-9303.59
-9303.57
-9303.56
-9303.54
-9303.53
-9303.52
-9303.52
-9303.51
-9303.51
-9303.5
-9303.5
-9303.5
-9303.5
-9303.5
-9303.51
-9303.51
-9303.52
-9303.52
-9303.53
-9303.53
-9303.54
-9303.55
-9303.55
-9303.56
-9303.57
-9303.58
-9303.58
-9303.59
-9303.6
-9303.61
-9303.61
-9303.62
-9303.63
-9303.64
-9303.64
-9303.65
-9303.66
-9303.66
-9303.67
-9303.67
-9303.68
-9303.68
-9303.69
-9303.69
-9303.7
-9303.7
-9303.7
-9303.7
-9303.71
-9303.71
-9303.71
-9303.71
-9303.71
-9303.71
-9303.72
-9303.72
-9303.72
-9303.72
-9303.72
-9303.72
-9303.72
-9303.71
-9303.71
-9303.71
-9303.71
-9303.71
-9303.71
-9303.71
-9303.71
-9303.71
-9303.71
-9303.71
-9303.7
-9303.7
-9303.7
-9303.7
-9303.7
-9303.7
-9303.7
-9303.7
-9303.69
-9303.69
-9303.69
-9303.69
-9303.69
-9303.69
-9303.69
-9303.69
-9303.69
-9303.69
-9303.69
-9303.69
-9303.69
-9464.51
-9464.52
-9464.52
-9464.52
-9464.52
-9464.52
-9464.52
-9464.53
-9469.29
-9469.28
-9469.24
-9469.2
-9469.14
-9469.07