/*--------------------------------*- C++ -*----------------------------------*\
  =========                 |
  \\      /  F ield         | OpenFOAM: The Open Source CFD Toolbox
   \\    /   O peration     | Website:  https://openfoam.org
    \\  /    A nd           | Version:  12
     \\/     M anipulation  |
\*---------------------------------------------------------------------------*/
FoamFile
{
    format      ascii;
    class       volScalarField;
    location    "0.23";
    object      epsilon;
}
// * * * * * * * * * * * * * * * * * * * * * * * * * * * * * * * * * * * * * //

dimensions      [0 2 -3 0 0 0 0];

internalField   nonuniform List<scalar> 
12225
(
278.515
263.66
249.434
236.839
226.738
219.483
215.069
213.263
213.705
215.989
219.711
224.501
230.039
236.061
242.366
248.785
255.351
264.859
61.116
86.6953
97.9912
107.207
118.464
132.556
149.409
168.609
189.574
211.677
234.328
257.017
279.338
300.993
321.889
341.862
362.423
380.957
25.2776
36.183
43.3817
48.6212
53.3862
58.3359
63.77
69.8247
76.5248
83.8222
91.6264
99.8284
108.316
116.99
125.783
134.673
143.808
153.182
17.5217
21.2986
24.7145
27.61
30.1619
32.5399
34.8665
37.2276
39.6766
42.2399
44.925
47.7274
50.6359
53.6383
56.7256
59.9053
63.1956
66.6223
15.4878
16.7519
18.1858
19.5889
20.9095
22.149
23.3263
24.4651
25.5862
26.7048
27.8308
28.9698
30.1246
31.2967
32.4877
33.7024
34.9457
36.2142
14.9084
15.2396
15.7463
16.334
16.9476
17.5589
18.1558
18.7355
19.3
19.8525
20.396
20.9333
21.4664
21.9972
22.5274
23.0593
23.5946
24.1274
14.7451
14.7391
14.8342
15.0036
15.2215
15.4679
15.7286
15.9948
16.2619
16.5274
16.7901
17.0498
17.3064
17.5602
17.8118
18.0619
18.3109
18.5546
14.7012
14.5825
14.5116
14.4858
14.4981
14.5403
14.6043
14.6837
14.7737
14.8707
14.9724
15.0771
15.1836
15.2912
15.3995
15.5082
15.6172
15.7237
14.6901
14.5373
14.407
14.3009
14.2182
14.1571
14.1145
14.0875
14.0732
14.0693
14.0735
14.0844
14.1006
14.1211
14.1452
14.1722
14.2016
14.2318
14.6874
14.5252
14.3761
14.2411
14.1204
14.0137
13.9203
13.8391
13.7688
13.7083
13.6564
13.6119
13.574
13.5419
13.5147
13.4919
13.473
13.4573
14.6868
14.5221
14.3677
14.2236
14.0896
13.9656
13.8512
13.746
13.6495
13.5611
13.4801
13.4061
13.3383
13.2763
13.2197
13.1678
13.1203
13.0772
14.6866
14.5213
14.3656
14.219
14.0812
13.9518
13.8305
13.7169
13.6105
13.5111
13.4182
13.3314
13.2504
13.1747
13.104
13.038
12.9764
12.9194
14.6865
14.521
14.3648
14.2175
14.0785
13.9473
13.8234
13.7065
13.5963
13.4922
13.3941
13.3015
13.2143
13.1319
13.0543
12.981
12.912
12.8476
14.6864
14.5208
14.3645
14.2169
14.0774
13.9456
13.8209
13.7029
13.5913
13.4855
13.3853
13.2904
13.2005
13.1153
13.0345
12.9579
12.8853
12.8172
14.6864
14.5207
14.3643
14.2165
14.0769
13.9449
13.8199
13.7016
13.5895
13.4832
13.3824
13.2868
13.196
13.1098
13.0279
12.9501
12.8762
12.8068
14.6863
14.5206
14.3641
14.2163
14.0766
13.9444
13.8194
13.7009
13.5886
13.4822
13.3812
13.2854
13.1943
13.1079
13.0257
12.9475
12.8732
12.8034
14.6863
14.5205
14.364
14.2161
14.0763
13.9441
13.8189
13.7004
13.5881
13.4815
13.3805
13.2845
13.1934
13.1068
13.0245
12.9462
12.8718
12.8018
14.6863
14.5204
14.3639
14.216
14.0761
13.9439
13.8186
13.7001
13.5877
13.4811
13.3799
13.2839
13.1927
13.1061
13.0237
12.9454
12.8709
12.8008
14.6863
14.5204
14.3639
14.2159
14.0761
13.9438
13.8186
13.6999
13.5875
13.4809
13.3797
13.2837
13.1924
13.1058
13.0233
12.9449
12.8704
12.8002
14.6863
14.5205
14.3639
14.216
14.0762
13.9439
13.8187
13.7001
13.5877
13.4811
13.38
13.284
13.1928
13.1061
13.0237
12.9454
12.8709
12.8007
14.6863
14.5205
14.364
14.2162
14.0764
13.9443
13.8192
13.7007
13.5885
13.4821
13.3812
13.2854
13.1945
13.1082
13.0262
12.9482
12.8742
12.8046
14.6863
14.5206
14.3643
14.2167
14.0773
13.9457
13.8214
13.7039
13.5928
13.4879
13.3886
13.2947
13.2059
13.1218
13.0423
12.9669
12.8956
12.8288
14.6865
14.5212
14.3659
14.2202
14.0837
13.956
13.8368
13.7256
13.6218
13.525
13.4348
13.3506
13.272
13.1986
13.13
13.0659
13.006
12.9505
14.6876
14.5264
14.3793
14.2467
14.1282
14.0231
13.9302
13.8484
13.7762
13.7126
13.6565
13.6068
13.5628
13.5237
13.489
13.4581
13.4306
13.4066
14.6976
14.5664
14.4707
14.4075
14.3715
14.3568
14.3584
14.372
14.3941
14.4224
14.4551
14.4908
14.5287
14.5681
14.6085
14.6497
14.6913
14.7333
14.7737
14.8187
14.9603
15.1591
15.3863
15.6233
15.8598
16.0904
16.3134
16.5284
16.7358
16.9365
17.1313
17.321
17.5065
17.6883
17.8668
18.0417
15.2587
16.1151
17.0712
17.9727
18.7879
19.5238
20.1945
20.8149
21.3988
21.9573
22.4987
23.0291
23.5527
24.0726
24.5903
25.1068
25.6222
26.1341
18.0414
22.0079
24.9885
27.1532
28.8883
30.4049
31.8126
33.1786
34.5439
35.9312
37.3515
38.8086
40.3015
41.8265
43.3778
44.949
46.5338
48.119
34.024
45.6879
51.3769
54.9425
58.0811
61.2983
64.7513
68.4839
72.4802
76.6972
81.0846
85.5928
90.1752
94.79
99.4016
103.981
108.513
112.969
163.308
157.417
151.704
146.261
141.3
136.947
133.25
130.206
127.781
125.919
124.559
123.637
123.094
122.871
122.917
123.188
123.642
124.243
0.216158
0.262321
0.432966
0.585643
0.746859
0.935402
1.15295
1.40579
1.70066
2.01996
2.35609
2.70849
3.07465
3.45164
3.83655
4.22663
4.61929
5.01204
5.40252
5.78845
6.16764
6.53791
6.89703
7.24258
7.57183
7.88162
8.16836
8.42827
8.65784
8.85432
9.01566
9.13931
9.22138
9.26092
9.27158
9.27633
9.24556
9.14972
9.24989
39.9938
9.31152
9.38975
40.9752
40.2717
42.8961
45.8837
49.0733
52.4419
55.9841
59.6976
63.5818
67.6376
71.8663
76.2698
80.8503
85.6098
90.5505
95.6743
100.983
106.478
112.161
118.033
124.095
130.346
136.787
143.417
150.235
157.241
164.431
171.804
179.358
187.087
194.99
203.062
211.297
219.692
228.239
236.934
245.77
254.739
263.835
273.049
282.374
291.801
301.322
310.926
320.605
330.348
340.146
349.987
359.859
369.753
379.655
389.554
399.437
409.295
419.119
428.908
438.671
448.438
458.182
467.795
477.276
486.617
495.805
504.825
513.662
522.3
530.723
538.915
546.862
554.548
561.959
569.08
575.899
582.402
588.577
594.412
599.896
605.019
609.771
614.143
618.128
621.719
624.909
627.694
630.07
632.032
633.579
634.71
635.424
635.722
635.605
635.078
634.142
632.804
631.067
628.94
626.43
623.544
620.293
616.685
612.733
608.447
603.839
598.922
593.71
588.217
582.456
576.443
570.193
563.721
557.043
550.175
543.133
535.931
528.59
521.121
513.544
505.875
498.117
490.318
482.45
474.592
466.825
460.176
457.061
454.393
451.737
449.069
446.391
443.702
440.993
438.245
435.411
432.39
428.948
424.479
417.504
401.59
0.81464
0.508825
0.525025
0.604338
0.720689
0.866753
1.04155
1.24497
1.47537
1.72866
2.00124
2.29051
2.59431
2.91072
3.23804
3.57471
3.91936
4.27078
4.62797
4.99017
5.3569
5.72805
6.10395
6.48542
6.874
7.27214
7.68366
8.1143
8.57241
9.06931
9.61936
10.2399
10.951
11.7696
12.7085
13.831
15.3012
16.7552
17.9561
19.526
20.4343
21.9469
24.013
25.8397
27.4377
29.0432
30.6887
32.3907
34.1525
35.9757
37.8619
39.8126
41.8289
43.9119
46.0626
48.2818
50.5701
52.9281
55.3561
57.8546
60.4236
63.0631
65.7731
68.5533
71.4033
74.3226
77.3105
80.3663
83.4889
86.6773
89.9301
93.2461
96.6236
100.061
103.556
107.108
110.713
114.37
118.076
121.829
125.626
129.464
133.341
137.252
141.196
145.168
149.166
153.184
157.221
161.271
165.331
169.396
173.462
177.526
181.584
185.633
189.672
193.706
197.739
201.794
205.877
209.924
213.922
217.868
221.755
225.578
229.33
233.006
236.599
240.104
243.514
246.824
250.029
253.122
256.098
258.952
261.679
264.275
266.735
269.054
271.229
273.256
275.132
276.854
278.419
279.824
281.068
282.148
283.064
283.815
284.399
284.817
285.068
285.154
285.075
284.832
284.428
283.863
283.141
282.263
281.234
280.056
278.733
277.269
275.668
273.935
272.075
270.092
267.992
265.78
263.462
261.043
258.53
255.928
253.243
250.482
247.651
244.756
241.803
238.8
235.744
232.664
229.522
226.394
223.319
220.508
218.357
216.38
214.441
212.512
210.59
208.674
206.765
204.862
202.961
201.057
199.123
197.15
195.012
193.77
1.6242
0.853313
0.789841
0.841374
0.938897
1.07057
1.23264
1.42286
1.63872
1.8772
2.13533
2.41054
2.70081
3.00455
3.32057
3.64803
3.98635
4.3352
4.69457
5.0647
5.44622
5.84013
6.24792
6.67163
7.11395
7.57842
8.06952
8.59284
9.15496
9.76297
10.4236
11.1422
11.9222
12.7623
13.6582
14.6186
15.6501
16.6989
17.7561
18.8728
20.027
21.2497
22.5531
23.8887
25.2154
26.5667
27.959
29.3999
30.8915
32.4344
34.0292
35.6763
37.3763
39.1295
40.9362
42.7967
44.7115
46.6805
48.704
50.7821
52.9147
55.1017
57.3431
59.6385
61.9876
64.39
66.8451
69.3524
71.9111
74.5204
77.1794
79.887
82.6422
85.4437
88.2901
91.18
94.1118
97.0838
100.094
103.142
106.223
109.338
112.482
115.655
118.854
122.076
125.318
128.579
131.855
135.143
138.442
141.749
145.061
148.376
151.693
155.011
158.331
161.652
164.978
168.309
171.626
174.914
178.164
181.372
184.533
187.641
190.693
193.682
196.605
199.456
202.23
204.922
207.529
210.045
212.466
214.788
217.007
219.12
221.121
223.009
224.779
226.43
227.957
229.359
230.633
231.777
232.791
233.671
234.418
235.031
235.508
235.85
236.057
236.129
236.067
235.872
235.546
235.089
234.505
233.794
232.96
232.005
230.932
229.744
228.445
227.039
225.528
223.918
222.213
220.416
218.533
216.567
214.524
212.409
210.226
207.978
205.675
203.317
200.912
198.466
195.967
193.461
190.929
188.397
185.895
183.507
181.348
179.292
177.275
175.278
173.296
171.329
169.379
167.45
165.548
163.685
161.877
160.187
158.704
158.225
2.57191
1.24878
1.0872
1.1016
1.18242
1.30467
1.45996
1.64419
1.85431
2.0875
2.34108
2.61269
2.90048
3.20302
3.51939
3.84906
4.19183
4.54784
4.91751
5.30155
5.70098
6.11712
6.55162
7.00649
7.48414
7.98734
8.51931
9.0836
9.68387
10.3235
11.0049
11.7297
12.4981
13.309
14.161
15.055
15.9917
16.9661
17.9775
19.0314
20.1312
21.2793
22.4733
23.7059
24.9708
26.2722
27.6152
29.0035
30.439
31.9227
33.4554
35.0377
36.67
38.3528
40.0865
41.8715
43.7081
45.5966
47.5373
49.5304
51.5761
53.6744
55.8254
58.0291
60.2853
62.5939
64.9546
67.3669
69.8304
72.3445
74.9086
77.5218
80.1833
82.892
85.6468
88.4463
91.2893
94.1743
97.0996
100.063
103.064
106.099
109.168
112.266
115.393
118.546
121.723
124.921
128.138
131.371
134.617
137.875
141.143
144.418
147.698
150.982
154.27
157.558
160.845
164.121
167.375
170.598
173.784
176.928
180.026
183.071
186.059
188.985
191.844
194.63
197.34
199.968
202.509
204.959
207.314
209.57
211.722
213.766
215.7
217.519
219.22
220.801
222.259
223.591
224.796
225.871
226.814
227.626
228.304
228.849
229.259
229.534
229.676
229.684
229.559
229.303
228.917
228.403
227.763
226.998
226.113
225.109
223.99
222.759
221.419
219.975
218.43
216.788
215.054
213.232
211.326
209.342
207.282
205.155
202.963
200.707
198.402
196.043
193.638
191.206
188.738
186.252
183.749
181.243
178.755
176.327
174.005
171.75
169.532
167.339
165.167
163.017
160.894
158.804
156.758
154.774
152.885
151.169
149.739
149.062
3.5044
1.64555
1.3773
1.35571
1.42063
1.53441
1.68413
1.86389
2.07004
2.29971
2.55041
2.82003
3.10685
3.40962
3.72753
4.06018
4.40755
4.76992
5.14784
5.54214
5.95387
6.38431
6.83494
7.30745
7.80372
8.32583
8.876
9.45659
10.0699
10.7179
11.4024
12.1243
12.8844
13.6829
14.52
15.3964
16.3127
17.2695
18.2671
19.307
20.3906
21.5185
22.6902
23.9041
25.1596
26.4576
27.8001
29.1888
30.6253
32.1107
33.6458
35.2316
36.8688
38.558
40.2999
42.0951
43.9443
45.8481
47.8069
49.8213
51.8917
54.0185
56.202
58.4424
60.74
63.0948
65.5067
67.9757
70.5015
73.0837
75.7218
78.4152
81.1632
83.9648
86.8189
89.7245
92.68
95.6841
98.735
101.831
104.97
108.151
111.37
114.626
117.916
121.238
124.589
127.966
131.367
134.789
138.23
141.686
145.155
148.634
152.121
155.613
159.107
162.602
166.085
169.55
172.987
176.391
179.756
183.075
186.343
189.554
192.704
195.786
198.794
201.724
204.57
207.327
209.99
212.554
215.014
217.366
219.605
221.727
223.728
225.606
227.355
228.974
230.46
231.81
233.022
234.094
235.025
235.813
236.458
236.959
237.317
237.53
237.6
237.528
237.314
236.961
236.469
235.842
235.082
234.19
233.171
232.028
230.763
229.382
227.887
226.283
224.575
222.767
220.863
218.867
216.788
214.628
212.389
210.084
207.714
205.273
202.793
200.265
197.696
195.095
192.464
189.813
187.147
184.477
181.818
179.194
176.629
174.111
171.629
169.174
166.747
164.349
161.987
159.67
157.41
155.231
153.172
151.307
149.73
148.702
4.36561
2.00615
1.64352
1.58948
1.63971
1.7454
1.88964
2.06488
2.26684
2.49253
2.73959
3.00609
3.29047
3.59161
3.9088
4.24169
4.59029
4.95492
5.33614
5.73475
6.15174
6.58828
7.04568
7.52539
8.029
8.55818
9.11474
9.70051
10.3173
10.967
11.6509
12.3706
13.127
13.9211
14.7539
15.6262
16.5391
17.4933
18.4899
19.5297
20.6137
21.7425
22.9166
24.1361
25.4015
26.7136
28.0736
29.4828
30.9426
32.4541
34.0185
35.637
37.3106
39.0403
40.8272
42.6722
44.5764
46.5406
48.5658
50.6528
52.8025
55.0155
57.2925
59.6342
62.041
64.5133
67.0513
69.6552
72.325
75.0606
77.8615
80.7273
83.6574
86.6509
89.7067
92.8237
96.0005
99.2354
102.527
105.872
109.27
112.718
116.213
119.753
123.336
126.957
130.615
134.305
138.026
141.773
145.544
149.334
153.141
156.961
160.79
164.625
168.462
172.295
176.11
179.899
183.657
187.377
191.052
194.676
198.242
201.745
205.177
208.532
211.805
214.989
218.078
221.067
223.949
226.72
229.373
231.905
234.309
236.583
238.72
240.718
242.573
244.281
245.84
247.247
248.501
249.599
250.539
251.321
251.944
252.408
252.712
252.858
252.845
252.676
252.351
251.874
251.245
250.468
249.546
248.482
247.278
245.94
244.472
242.878
241.162
239.328
237.383
235.333
233.18
230.929
228.592
226.17
223.661
221.088
218.452
215.753
213.005
210.212
207.378
204.511
201.616
198.701
195.772
192.838
189.912
187.009
184.144
181.316
178.522
175.76
173.03
170.339
167.692
165.1
162.58
160.156
157.867
155.778
153.958
152.549
5.09934
2.32344
1.87862
1.79537
1.83179
1.92939
2.06775
2.23781
2.43468
2.65522
2.89711
3.15858
3.43823
3.73505
4.0484
4.378
4.72386
5.0863
5.46587
5.86334
6.27965
6.71589
7.1733
7.65321
8.15708
8.68646
9.24297
9.82828
10.4441
11.0921
11.7739
12.491
13.2448
14.0366
14.8676
15.739
16.6519
17.6074
18.6067
19.6509
20.7409
21.8777
23.0624
24.2957
25.5787
26.9123
28.2979
29.7368
31.2305
32.7805
34.3881
36.0549
37.7823
39.5718
41.4248
43.3428
45.3272
47.3793
49.5006
51.6922
53.9555
56.2916
58.7016
61.1864
63.747
66.384
69.098
71.8895
74.7586
77.7055
80.73
83.8317
87.0101
90.2642
93.5932
96.9956
100.47
104.014
107.627
111.305
115.047
118.85
122.71
126.625
130.591
134.606
138.665
142.764
146.9
151.07
155.268
159.49
163.733
167.992
172.261
176.537
180.815
185.079
189.319
193.529
197.702
201.83
205.906
209.922
213.873
217.749
221.544
225.251
228.862
232.371
235.772
239.056
242.219
245.253
248.154
250.914
253.53
255.997
258.308
260.46
262.45
264.273
265.927
267.41
268.718
269.85
270.806
271.583
272.182
272.601
272.843
272.907
272.795
272.508
272.048
271.419
270.622
269.662
268.542
267.265
265.835
264.258
262.54
260.684
258.695
256.577
254.342
251.993
249.533
246.965
244.31
241.568
238.741
235.843
232.878
229.852
226.772
223.647
220.48
217.281
214.055
210.809
207.551
204.288
201.031
197.791
194.581
191.403
188.259
185.152
182.083
179.061
176.092
173.189
170.37
167.66
165.095
162.73
160.608
158.812
5.72017
2.59664
2.07955
1.96951
1.99254
2.08171
2.21348
2.37742
2.56807
2.78209
3.0172
3.27172
3.54438
3.8343
4.14094
4.46405
4.8037
5.16022
5.53416
5.92626
6.33747
6.76884
7.22159
7.69703
8.19658
8.72172
9.27405
9.85518
10.4668
11.1106
11.7882
12.5012
13.2513
14.0399
14.8685
15.7385
16.6512
17.6081
18.6105
19.6597
20.7572
21.9042
23.1021
24.3522
25.656
27.0148
28.4304
29.9043
31.4384
33.0344
34.6943
36.4199
38.2132
40.0762
42.0107
44.0187
46.1022
48.263
50.5031
52.8242
55.2281
57.7164
60.2907
62.9523
65.7026
68.5427
71.4734
74.4956
77.6096
80.8159
84.1143
87.5046
90.9863
94.5586
98.2202
101.97
105.806
109.726
113.727
117.808
121.965
126.195
130.494
134.859
139.286
143.771
148.309
152.897
157.528
162.199
166.905
171.639
176.398
181.175
185.965
190.761
195.555
200.326
205.066
209.77
214.429
219.034
223.578
228.053
232.449
236.759
240.973
245.085
249.086
252.968
256.724
260.346
263.827
267.16
270.339
273.358
276.211
278.891
281.395
283.716
285.852
287.799
289.553
291.112
292.474
293.637
294.6
295.362
295.923
296.283
296.443
296.404
296.168
295.737
295.114
294.302
293.305
292.127
290.772
289.245
287.548
285.691
283.679
281.519
279.212
276.761
274.189
271.495
268.685
265.764
262.746
259.636
256.438
253.164
249.821
246.414
242.952
239.443
235.893
232.31
228.702
225.075
221.436
217.795
214.16
210.541
206.947
203.385
199.86
196.376
192.937
189.553
186.231
182.987
179.837
176.806
173.928
171.247
168.786
166.599
6.22479
2.82367
2.2446
2.11016
2.12007
2.20032
2.32466
2.48147
2.66475
2.87097
3.09783
3.34373
3.60754
3.88847
4.1861
4.50025
4.83104
5.17883
5.54419
5.92788
6.33085
6.75415
7.199
7.66671
8.15869
8.67643
9.22151
9.79554
10.4002
11.0373
11.7084
12.4153
13.1598
13.9435
14.7681
15.6352
16.5467
17.504
18.5089
19.563
20.6682
21.8261
23.0385
24.3073
25.6343
27.0215
28.4708
29.9846
31.5649
33.214
34.9345
36.7287
38.5992
40.5483
42.5788
44.6931
46.8937
49.1832
51.5641
54.0386
56.6091
59.2777
62.0466
64.9176
67.8924
70.9726
74.1595
77.454
80.8569
84.3686
87.9894
91.7189
95.5567
99.5018
103.553
107.708
111.966
116.323
120.777
125.325
129.964
134.688
139.495
144.379
149.336
154.361
159.448
164.594
169.791
175.034
180.317
185.634
190.979
196.344
201.723
207.109
212.476
217.813
223.113
228.367
233.566
238.702
243.764
248.743
253.629
258.413
263.085
267.637
272.059
276.342
280.479
284.46
288.279
291.927
295.397
298.684
301.78
304.679
307.376
309.865
312.143
314.205
316.05
317.673
319.073
320.25
321.201
321.926
322.425
322.7
322.75
322.579
322.189
321.582
320.762
319.731
318.497
317.065
315.437
313.62
311.615
309.436
307.091
304.584
301.922
299.109
296.16
293.081
289.879
286.561
283.137
279.616
276.005
272.313
268.548
264.718
260.832
256.898
252.923
248.916
244.885
240.837
236.78
232.721
228.671
224.638
220.63
216.657
212.723
208.836
205.001
201.229
197.53
193.917
190.41
187.031
183.809
180.781
177.957
175.374
6.61423
3.00426
2.37372
2.2174
2.21453
2.28538
2.40147
2.55019
2.72505
2.92235
3.13976
3.37576
3.62931
3.89974
4.18671
4.49015
4.81023
5.14735
5.50212
5.87531
6.26788
6.6809
7.1156
7.57328
8.05537
8.56337
9.09888
9.66355
10.2591
10.8873
11.55
12.249
12.9862
13.7636
14.583
15.4464
16.3559
17.3133
18.3208
19.3804
20.4944
21.6649
22.8942
24.1847
25.5388
26.959
28.4479
30.0082
31.6427
33.3544
35.1462
37.0213
38.9828
41.034
43.1779
45.4179
47.7572
50.1989
52.7461
55.4018
58.1689
61.0503
64.0483
67.1656
70.4041
73.7659
77.2525
80.8653
84.6052
88.4727
92.4681
96.591
100.841
105.217
109.716
114.338
119.08
123.938
128.909
133.989
139.174
144.459
149.839
155.308
160.862
166.493
172.195
177.964
183.791
189.67
195.594
201.556
207.547
213.561
219.588
225.611
231.601
237.551
243.453
249.298
255.076
260.776
266.388
271.9
277.301
282.581
287.728
292.734
297.588
302.281
306.804
311.147
315.302
319.261
323.016
326.561
329.888
332.992
335.866
338.503
340.901
343.056
344.964
346.625
348.035
349.194
350.101
350.756
351.159
351.311
351.216
350.875
350.292
349.47
348.412
347.122
345.61
343.882
341.941
339.795
337.449
334.913
332.196
329.306
326.249
323.033
319.67
316.168
312.535
308.781
304.915
300.946
296.884
292.738
288.516
284.229
279.884
275.491
271.059
266.595
262.109
257.608
253.102
248.597
244.103
239.629
235.183
230.775
226.412
222.1
217.85
213.67
209.573
205.572
201.685
197.936
194.348
190.951
187.744
184.763
6.89375
3.14
2.46843
2.29288
2.27769
2.33877
2.44591
2.5857
2.75127
2.93878
3.14587
3.37108
3.61344
3.87241
4.14772
4.43937
4.74761
5.07288
5.41581
5.77722
6.15806
6.55943
6.98255
7.42877
7.89952
8.39634
8.92086
9.47479
10.06
10.6782
11.3315
12.0219
12.7515
13.5225
14.337
15.1974
16.106
17.0652
18.0776
19.1457
20.2723
21.46
22.7118
24.0306
25.4194
26.8815
28.4201
30.0386
31.7405
33.5295
35.4094
37.384
39.4572
41.633
43.9153
46.3082
48.8157
51.4415
54.1896
57.0635
60.0668
63.2027
66.4743
69.8846
73.436
77.1308
80.9709
84.9578
89.0924
93.3753
97.8067
102.386
107.112
111.984
116.998
122.154
127.447
132.873
138.429
144.11
149.91
155.823
161.843
167.963
174.176
180.476
186.855
193.306
199.822
206.394
213.014
219.674
226.365
233.076
239.798
246.484
253.127
259.718
266.248
272.705
279.079
285.357
291.528
297.58
303.498
309.271
314.889
320.34
325.615
330.702
335.591
340.274
344.741
348.984
352.995
356.766
360.292
363.565
366.579
369.326
371.803
374.008
375.938
377.591
378.966
380.062
380.879
381.417
381.677
381.661
381.372
380.814
379.991
378.908
377.569
375.98
374.149
372.083
369.789
367.273
364.544
361.611
358.484
355.171
351.682
348.025
344.212
340.252
336.155
331.93
327.59
323.142
318.598
313.968
309.261
304.488
299.658
294.78
289.864
284.919
279.954
274.978
269.999
265.026
260.068
255.134
250.234
245.374
240.566
235.816
231.136
226.534
222.024
217.62
213.339
209.203
205.233
201.451
197.851
194.469
7.07238
3.23409
2.53146
2.3394
2.31251
2.36366
2.46135
2.5916
2.74728
2.92442
3.12067
3.33461
3.56535
3.81242
4.07565
4.35509
4.65106
4.96403
5.29468
5.64383
6.01247
6.40173
6.81285
7.2472
7.70628
8.19169
8.70514
9.24847
9.8236
10.4326
11.0776
11.7608
12.4847
13.2518
14.0645
14.9257
15.8381
16.8047
17.8286
18.9129
20.0608
21.2759
22.5618
23.9219
25.3603
26.8809
28.4876
30.1849
31.9769
33.8683
35.8637
37.9677
40.1853
42.5211
44.98
47.5669
50.2866
53.1436
56.1426
59.2877
62.583
66.0321
69.6385
73.4055
77.3358
81.4319
85.6958
90.1288
94.7317
99.505
104.448
109.56
114.84
120.285
125.892
131.657
137.577
143.647
149.862
156.215
162.7
169.31
176.036
182.87
189.804
196.83
203.941
211.127
218.381
225.692
233.053
240.453
247.882
255.33
262.742
270.105
277.41
284.647
291.803
298.867
305.826
312.667
319.38
325.949
332.357
338.593
344.646
350.504
356.157
361.593
366.803
371.776
376.503
380.976
385.186
389.126
392.791
396.175
399.269
402.063
404.557
406.75
408.639
410.222
411.499
412.47
413.135
413.496
413.555
413.313
412.776
411.948
410.834
409.438
407.768
405.83
403.633
401.183
398.49
395.562
392.407
389.037
385.461
381.689
377.732
373.6
369.303
364.854
360.263
355.54
350.698
345.746
340.696
335.559
330.345
325.066
319.73
314.349
308.932
303.489
298.03
292.563
287.099
281.645
276.211
270.806
265.44
260.121
254.859
249.664
244.545
239.514
234.583
229.768
225.084
220.552
216.189
212.014
208.018
204.237
7.16227
3.29092
2.56641
2.36058
2.32283
2.36411
2.45216
2.57258
2.7181
2.88469
3.07002
3.27271
3.49194
3.7273
3.9787
4.24625
4.53031
4.83141
5.15026
5.48773
5.84486
6.2228
6.62288
7.04654
7.49538
7.97112
8.47561
9.01087
9.57904
10.1824
10.8235
11.5048
12.2291
12.9993
13.8186
14.6901
15.6172
16.6035
17.6528
18.769
19.9561
21.2185
22.5606
23.9869
25.5022
27.1113
28.8192
30.6312
32.5527
34.589
36.7459
39.0291
41.4442
43.997
46.6932
49.5386
52.5388
55.6991
59.0246
62.5202
66.1899
70.0374
74.0664
78.2801
82.6814
87.2726
92.0552
97.0302
102.198
107.558
113.109
118.849
124.776
130.886
137.176
143.639
150.271
157.066
164.017
171.117
178.358
185.732
193.226
200.831
208.538
216.338
224.222
232.182
240.207
248.288
256.414
264.575
272.762
280.91
288.999
297.021
304.963
312.813
320.558
328.186
335.682
343.034
350.231
357.261
364.093
370.722
377.137
383.326
389.279
394.983
400.43
405.609
410.51
415.126
419.448
423.469
427.183
430.584
433.666
436.422
438.85
440.948
442.714
444.148
445.25
446.02
446.46
446.571
446.358
445.823
444.972
443.81
442.342
440.575
438.517
436.176
433.559
430.677
427.538
424.153
420.531
416.683
412.621
408.355
403.897
399.259
394.451
389.487
384.377
379.134
373.77
368.296
362.723
357.064
351.33
345.531
339.679
333.785
327.859
321.911
315.951
309.989
304.034
298.095
292.182
286.304
280.471
274.692
268.977
263.335
257.778
252.317
246.966
241.738
236.65
231.719
226.962
222.394
218.003
213.829
7.1782
3.31575
2.57747
2.36058
2.31302
2.34488
2.42347
2.53424
2.66985
2.82627
3.00122
3.19336
3.40194
3.62663
3.86739
4.12439
4.39807
4.68901
4.998
5.32599
5.67409
6.04359
6.43592
6.8527
7.29569
7.76684
8.26827
8.80227
9.37133
9.97813
10.6256
11.3167
12.055
12.8438
13.6869
14.5882
15.552
16.5826
17.6847
18.8633
20.1234
21.4705
22.9102
24.448
26.0899
27.8417
29.7095
31.6998
33.8189
36.0736
38.4704
41.0162
43.7175
46.581
49.6132
52.8204
56.209
59.7849
63.5539
67.5212
71.6894
76.0614
80.6407
85.4302
90.4321
95.6479
101.078
106.723
112.582
118.652
124.931
131.416
138.102
144.985
152.058
159.314
166.747
174.349
182.111
190.025
198.084
206.284
214.592
223.006
231.516
240.114
248.79
257.534
266.335
275.186
284.073
292.984
301.841
310.629
319.334
327.945
336.447
344.829
353.074
361.171
369.104
376.86
384.426
391.788
398.928
405.832
412.49
418.89
425.021
430.873
436.434
441.696
446.649
451.286
455.599
459.581
463.227
466.53
469.487
472.092
474.344
476.24
477.78
478.964
479.792
480.267
480.39
480.165
479.596
478.687
477.444
475.874
473.983
471.78
469.272
466.468
463.378
460.012
456.38
452.494
448.363
444.001
439.419
434.628
429.642
424.472
419.131
413.633
407.988
402.21
396.312
390.305
384.202
378.015
371.757
365.437
359.069
352.662
346.229
339.779
333.322
326.869
320.43
314.013
307.628
301.285
294.993
288.762
282.602
276.524
270.537
264.655
258.891
253.257
247.771
242.448
237.303
232.348
227.571
223.014
7.13711
3.31435
2.56913
2.34391
2.28798
2.31137
2.38135
2.48337
2.61012
2.75766
2.92376
3.10717
3.3072
3.52362
3.75645
4.006
4.27278
4.5575
4.8611
5.18467
5.52954
5.8972
6.28935
6.70789
7.15494
7.63282
8.14411
8.6916
9.27835
9.90765
10.5831
11.3086
12.0883
12.9266
13.8284
14.7985
15.8421
16.9649
18.173
19.4724
20.87
22.3725
23.9871
25.7213
27.5821
29.576
31.7103
33.9927
36.4311
39.0331
41.8064
44.7584
47.8964
51.2275
54.7584
58.4957
62.4455
66.6139
71.0072
75.6334
80.488
85.5698
90.8834
96.4306
102.212
108.228
114.476
120.955
127.662
134.592
141.74
149.101
156.668
164.434
172.391
180.529
188.84
197.313
205.939
214.708
223.608
232.628
241.753
250.971
260.271
269.645
279.081
288.571
298.104
307.676
317.244
326.736
336.141
345.444
354.633
363.693
372.609
381.369
389.958
398.362
406.567
414.559
422.324
429.85
437.122
444.126
450.852
457.287
463.423
469.247
474.751
479.926
484.765
489.258
493.401
497.186
500.609
503.666
506.352
508.665
510.603
512.165
513.351
514.162
514.599
514.666
514.366
513.703
512.681
511.308
509.588
507.53
505.141
502.431
499.408
496.082
492.463
488.563
484.393
479.965
475.289
470.38
465.25
459.91
454.375
448.658
442.771
436.728
430.541
424.225
417.791
411.253
404.624
397.916
391.14
384.31
377.436
370.53
363.603
356.666
349.729
342.803
335.896
329.019
322.181
315.392
308.66
301.997
295.412
288.916
282.519
276.234
270.073
264.051
258.182
252.481
246.962
241.636
236.489
231.567
7.05403
3.29188
2.54541
2.3147
2.25232
2.26892
2.33203
2.42726
2.54747
2.68884
2.84927
3.02762
3.22336
3.43637
3.66686
3.91533
4.18251
4.46939
4.7772
5.10739
5.46168
5.84205
6.2507
6.69015
7.16318
7.67287
8.22263
8.81621
9.4577
10.1515
10.9023
11.7155
12.5967
13.5522
14.5885
15.7116
16.9283
18.2463
19.6734
21.2181
22.8888
24.6946
26.645
28.7504
31.0217
33.4592
36.0735
38.8741
41.8696
45.0684
48.4781
52.106
55.9588
60.0427
64.3632
68.9253
73.7331
78.7902
84.0998
89.6635
95.4799
101.547
107.864
114.43
121.24
128.291
135.58
143.1
150.845
158.807
166.98
175.354
183.92
192.669
201.589
210.671
219.902
229.272
238.768
248.38
258.095
267.9
277.785
287.737
297.745
307.801
317.895
328.023
338.163
348.235
358.206
368.063
377.792
387.379
396.811
406.074
415.154
424.037
432.711
441.162
449.376
457.342
465.046
472.477
479.621
486.467
493.004
499.223
505.113
510.666
515.873
520.727
525.22
529.346
533.1
536.476
539.472
542.083
544.307
546.143
547.589
548.645
549.314
549.596
549.495
549.013
548.156
546.928
545.336
543.385
541.084
538.441
535.464
532.163
528.548
524.63
520.419
515.928
511.168
506.151
500.891
495.4
489.692
483.779
477.675
471.394
464.949
458.354
451.623
444.767
437.802
430.739
423.592
416.373
409.095
401.769
394.408
387.022
379.623
372.221
364.827
357.451
350.102
342.79
335.525
328.315
321.171
314.102
307.117
300.229
293.446
286.782
280.249
273.86
267.629
261.572
255.699
250.023
244.527
239.262
6.96475
3.25953
2.51557
2.28314
2.21811
2.232
2.29282
2.38649
2.50611
2.6481
2.81056
2.9926
3.19397
3.41487
3.6559
3.91798
4.20238
4.51069
4.84482
5.20704
5.59996
6.02657
6.49022
6.99472
7.54429
8.14352
8.79758
9.51226
10.2939
11.1486
12.0832
13.1057
14.2248
15.4504
16.7942
18.26
19.8575
21.598
23.4922
25.551
27.7851
30.2053
32.8223
35.6464
38.687
41.951
45.4463
49.1806
53.1608
57.3927
61.8813
66.6307
71.6438
76.9227
82.4683
88.2808
94.3593
100.702
107.307
114.169
121.284
128.646
136.248
144.084
152.145
160.425
168.915
177.605
186.486
195.548
204.781
214.174
223.715
233.394
243.2
253.119
263.142
273.257
283.452
293.716
304.039
314.41
324.818
335.259
345.717
356.197
366.675
377.072
387.342
397.48
407.474
417.31
426.975
436.457
445.743
454.821
463.678
472.303
480.683
488.808
496.665
504.243
511.532
518.52
525.198
531.554
537.581
543.269
548.61
553.597
558.222
562.479
566.362
569.867
572.988
575.723
578.069
580.023
581.584
582.751
583.525
583.908
583.9
583.504
582.725
581.567
580.034
578.133
575.87
573.253
570.289
566.989
563.36
559.413
555.159
550.609
545.774
540.666
535.298
529.682
523.831
517.758
511.477
505.002
498.346
491.522
484.544
477.425
470.18
462.822
455.363
447.816
440.195
432.511
424.778
417.006
409.207
401.393
393.573
385.76
377.962
370.19
362.452
354.759
347.119
339.542
332.036
324.611
317.277
310.045
302.924
295.926
289.064
282.35
275.799
269.424
263.235
257.245
251.437
245.866
6.89261
3.2261
2.48834
2.25963
2.19815
2.21643
2.28308
2.3845
2.51419
2.66896
2.84738
3.0491
3.27449
3.52451
3.80063
4.10484
4.4396
4.8079
5.21325
5.65974
6.15206
6.69554
7.29604
7.96031
8.69602
9.51064
10.4128
11.413
12.5244
13.7538
15.1109
16.6093
18.2622
20.0832
22.0857
24.281
26.6816
29.2999
32.1481
35.2374
38.5782
42.18
46.0507
50.1971
54.6243
59.335
64.3313
69.6137
75.1817
81.0332
87.1649
93.5726
100.251
107.193
114.392
121.841
129.53
137.452
145.595
153.952
162.512
171.265
180.199
189.306
198.573
207.992
217.551
227.241
237.05
246.97
256.988
267.096
277.284
287.541
297.858
308.225
318.633
329.075
339.541
350.022
360.516
371.011
381.495
391.997
402.459
412.805
423.001
433.047
442.931
452.642
462.171
471.506
480.637
489.554
498.244
506.699
514.908
522.861
530.548
537.958
545.083
551.912
558.437
564.649
570.538
576.098
581.319
586.195
590.718
594.883
598.684
602.116
605.173
607.853
610.152
612.067
613.596
614.739