/*--------------------------------*- C++ -*----------------------------------*\
  =========                 |
  \\      /  F ield         | OpenFOAM: The Open Source CFD Toolbox
   \\    /   O peration     | Website:  https://openfoam.org
    \\  /    A nd           | Version:  12
     \\/     M anipulation  |
\*---------------------------------------------------------------------------*/
FoamFile
{
    format      ascii;
    class       volScalarField;
    location    "0.23";
    object      k;
}
// * * * * * * * * * * * * * * * * * * * * * * * * * * * * * * * * * * * * * //

dimensions      [0 2 -2 0 0 0 0];

internalField   nonuniform List<scalar> 
12225
(
0.353921
0.335043
0.316966
0.300961
0.288125
0.278906
0.273297
0.271002
0.271564
0.274466
0.279196
0.285283
0.292321
0.299973
0.307985
0.316141
0.324486
0.336567
0.436864
0.448979
0.438084
0.43306
0.438786
0.453584
0.474796
0.499974
0.527129
0.554776
0.581885
0.607793
0.632121
0.654692
0.67561
0.694772
0.714244
0.729537
0.395187
0.410874
0.410631
0.405747
0.40201
0.400924
0.402614
0.406806
0.413079
0.420975
0.430059
0.439953
0.450344
0.46099
0.471748
0.482509
0.493551
0.504247
0.379641
0.38484
0.386546
0.38573
0.383905
0.382026
0.380567
0.379738
0.379605
0.380146
0.381299
0.382982
0.385113
0.387617
0.390439
0.393545
0.396952
0.400558
0.374976
0.3759
0.376239
0.375721
0.37457
0.373084
0.371496
0.369967
0.368593
0.367426
0.366484
0.365768
0.365266
0.364966
0.364853
0.364918
0.365156
0.365536
0.373488
0.372555
0.371759
0.370807
0.369631
0.368275
0.366809
0.3653
0.363804
0.362358
0.36099
0.359714
0.358537
0.357461
0.356488
0.355616
0.354844
0.354166
0.373012
0.371296
0.369813
0.368416
0.367025
0.36561
0.364168
0.362712
0.361257
0.359824
0.358425
0.357073
0.355774
0.354533
0.353354
0.35224
0.351191
0.350215
0.372865
0.370838
0.369004
0.367311
0.365711
0.364174
0.362679
0.361216
0.359783
0.358381
0.357015
0.355688
0.354402
0.353161
0.351967
0.350822
0.349728
0.348696
0.37282
0.37068
0.368691
0.366836
0.365095
0.363449
0.36188
0.360376
0.358928
0.357531
0.356182
0.35488
0.353622
0.352409
0.351241
0.350118
0.349042
0.348023
0.372806
0.370628
0.368578
0.366648
0.364829
0.36311
0.361482
0.359934
0.358457
0.357046
0.355693
0.354397
0.353153
0.351958
0.350812
0.349712
0.348659
0.347664
0.372801
0.370609
0.368537
0.366576
0.36472
0.362964
0.361299
0.359719
0.358216
0.356785
0.35542
0.354118
0.352874
0.351685
0.350547
0.349459
0.34842
0.34744
0.372799
0.370602
0.368522
0.36655
0.36468
0.362907
0.361225
0.359627
0.358109
0.356664
0.355289
0.353978
0.352729
0.351537
0.3504
0.349314
0.348279
0.347304
0.372797
0.370599
0.368514
0.366537
0.364661
0.36288
0.361188
0.359581
0.358053
0.3566
0.355216
0.353899
0.352644
0.351448
0.350308
0.349221
0.348185
0.34721
0.372796
0.370596
0.368509
0.366528
0.364649
0.362864
0.361168
0.359555
0.358022
0.356563
0.355174
0.353851
0.352592
0.351391
0.350248
0.349157
0.348119
0.347141
0.372795
0.370593
0.368505
0.366523
0.364641
0.362853
0.361154
0.359539
0.358003
0.35654
0.355148
0.353823
0.35256
0.351356
0.350209
0.349116
0.348074
0.347094
0.372794
0.370592
0.368502
0.366518
0.364634
0.362845
0.361145
0.359527
0.357989
0.356525
0.355131
0.353803
0.352538
0.351333
0.350184
0.349088
0.348044
0.347061
0.372794
0.37059
0.368499
0.366515
0.36463
0.362839
0.361137
0.359519
0.357979
0.356514
0.355118
0.353789
0.352523
0.351316
0.350165
0.349067
0.348021
0.347037
0.372794
0.370589
0.368498
0.366512
0.364627
0.362835
0.361132
0.359513
0.357972
0.356506
0.355109
0.353779
0.352511
0.351303
0.350151
0.349052
0.348005
0.347019
0.372793
0.370589
0.368497
0.366512
0.364626
0.362834
0.361131
0.359511
0.357969
0.356502
0.355105
0.353774
0.352506
0.351297
0.350144
0.349045
0.347997
0.34701
0.372794
0.37059
0.368498
0.366513
0.364628
0.362836
0.361133
0.359514
0.357973
0.356506
0.355109
0.353779
0.352511
0.351302
0.350149
0.349049
0.348001
0.347015
0.372794
0.370591
0.3685
0.366516
0.364632
0.362841
0.36114
0.359522
0.357982
0.356517
0.355122
0.353793
0.352526
0.351319
0.350167
0.349069
0.348023
0.347037
0.372795
0.370593
0.368504
0.366522
0.364641
0.362855
0.361158
0.359546
0.358012
0.356552
0.355163
0.353839
0.352578
0.351375
0.350228
0.349134
0.348091
0.347108
0.372796
0.370598
0.368518
0.366547
0.364681
0.362912
0.361235
0.359642
0.358127
0.356685
0.355311
0.354001
0.35275
0.351556
0.350415
0.349324
0.348282
0.347298
0.372804
0.370631
0.368592
0.366676
0.364872
0.363166
0.361548
0.360006
0.358532
0.357121
0.355767
0.354467
0.353219
0.352019
0.350868
0.349762
0.348701
0.347697
0.372856
0.370818
0.368973
0.367264
0.365645
0.364085
0.362567
0.361083
0.359631
0.358213
0.356833
0.355493
0.354196
0.352946
0.351744
0.35059
0.349486
0.348445
0.373166
0.37177
0.370579
0.369371
0.368049
0.366605
0.365072
0.363492
0.361905
0.360342
0.358826
0.357372
0.355991
0.354688
0.353468
0.352329
0.351272
0.350303
0.374797
0.375829
0.376175
0.375401
0.373834
0.371876
0.369792
0.36774
0.365814
0.364067
0.362524
0.361195
0.360075
0.359157
0.358425
0.357864
0.357457
0.35719
0.382729
0.39167
0.392375
0.388805
0.384384
0.380403
0.377247
0.374998
0.373621
0.373038
0.373153
0.373867
0.375084
0.376716
0.378686
0.380922
0.383365
0.385945
0.407499
0.414514
0.405423
0.395992
0.390555
0.389292
0.391456
0.396216
0.402837
0.410727
0.419435
0.428621
0.43803
0.447475
0.456819
0.465968
0.474877
0.483459
0.360554
0.347547
0.334933
0.322917
0.311965
0.302353
0.29419
0.287471
0.282115
0.278004
0.275002
0.272968
0.271768
0.271276
0.271379
0.271975
0.272978
0.274305
0.000753112
0.00416834
0.00687449
0.00929039
0.0118363
0.014811
0.0182396
0.0222201
0.0268576
0.0318751
0.0371487
0.0426693
0.0483963
0.0542827
0.0602825
0.0663517
0.0724492
0.078536
0.0845748
0.0905303
0.0963683
0.102055
0.107555
0.112831
0.11784
0.122532
0.126854
0.13075
0.134169
0.137074
0.139431
0.141208
0.142371
0.142954
0.143153
0.143161
0.142704
0.14196
0.142898
0.142024
0.144786
0.145689
0.144769
0.145364
0.151616
0.158515
0.165712
0.173139
0.180776
0.188604
0.196616
0.204802
0.21316
0.221684
0.230371
0.239219
0.248225
0.257386
0.2667
0.276162
0.28577
0.29552
0.305408
0.31543
0.325581
0.335855
0.346248
0.356753
0.367364
0.378076
0.38888
0.399769
0.410737
0.421776
0.432877
0.444032
0.455233
0.46647
0.477737
0.489022
0.500318
0.511615
0.522903
0.534174
0.545419
0.556626
0.567788
0.578894
0.589934
0.600899
0.611778
0.622561
0.633238
0.6438
0.654235
0.664537
0.6747
0.684726
0.694628
0.704441
0.714139
0.723613
0.732866
0.741896
0.750694
0.75925
0.767552
0.77559
0.783353
0.790831
0.798013
0.804889
0.811451
0.817689
0.823595
0.82916
0.834379
0.839242
0.843745
0.847882
0.851647
0.855036
0.858045
0.86067
0.86291
0.864762
0.866224
0.867297
0.867979
0.868272
0.868177
0.867696
0.866831
0.865587
0.863967
0.861976
0.859619
0.856901
0.85383
0.850413
0.846658
0.842572
0.838164
0.833445
0.828423
0.823109
0.817514
0.811649
0.805525
0.799155
0.79255
0.785724
0.778687
0.771456
0.76404
0.756453
0.748712
0.740827
0.732814
0.724686
0.716446
0.708138
0.699734
0.691309
0.682942
0.675634
0.671774
0.668347
0.664926
0.661489
0.658036
0.654566
0.651072
0.647533
0.643904
0.640085
0.635843
0.630578
0.622812
0.606058
0.00283916
0.0117095
0.0176019
0.0223233
0.0267433
0.0310788
0.0355969
0.0404398
0.0456478
0.0511839
0.0569948
0.0630327
0.0692535
0.0756168
0.0820858
0.0886273
0.0952104
0.101807
0.108391
0.114938
0.121425
0.127832
0.134136
0.140314
0.146342
0.152193
0.157842
0.163272
0.16848
0.173481
0.178306
0.183011
0.187714
0.192596
0.197794
0.203275
0.209088
0.216095
0.223663
0.23231
0.241089
0.250807
0.262247
0.27463
0.286488
0.298067
0.310046
0.322442
0.335219
0.348355
0.361832
0.375641
0.389776
0.404233
0.41901
0.434105
0.449515
0.465239
0.481274
0.497618
0.514269
0.531223
0.548477
0.566026
0.583865
0.601988
0.62039
0.639063
0.658001
0.677193
0.696633
0.716309
0.736212
0.756331
0.776654
0.797169
0.817864
0.838725
0.859739
0.880892
0.902169
0.923557
0.945039
0.966601
0.988227
1.0099
1.03161
1.05333
1.07506
1.09676
1.11844
1.14006
1.16162
1.18309
1.20446
1.22571
1.24682
1.26777
1.28853
1.30902
1.32906
1.34881
1.36827
1.38742
1.40626
1.42475
1.44287
1.46061
1.47794
1.49483
1.51128
1.52725
1.54273
1.5577
1.57214
1.58603
1.59935
1.61209
1.62423
1.63576
1.64665
1.65691
1.66652
1.67546
1.68373
1.69132
1.69822
1.70443
1.70993
1.71473
1.71883
1.72221
1.72488
1.72685
1.72811
1.72867
1.72852
1.72769
1.72617
1.72398
1.72111
1.71759
1.71343
1.70863
1.70322
1.6972
1.6906
1.68342
1.6757
1.66744
1.65867
1.64941
1.63967
1.62949
1.61888
1.60786
1.59647
1.58472
1.57264
1.56026
1.54757
1.53468
1.52147
1.50815
1.49477
1.48153
1.46883
1.45619
1.44351
1.43079
1.41803
1.40525
1.39247
1.37968
1.36685
1.35396
1.34085
1.3274
1.31237
1.29292
0.00566122
0.0193164
0.0272667
0.03332
0.0386697
0.0438525
0.0491304
0.0546382
0.0604288
0.066501
0.0728262
0.0793668
0.0860847
0.0929453
0.0999184
0.106978
0.114102
0.121272
0.128471
0.135689
0.142913
0.150137
0.157354
0.16456
0.171752
0.178932
0.186109
0.193304
0.200557
0.207924
0.215475
0.223296
0.231489
0.240152
0.249339
0.259061
0.269409
0.280453
0.292123
0.304517
0.317613
0.331365
0.345783
0.360732
0.375933
0.391389
0.407241
0.423533
0.440264
0.457425
0.475007
0.493003
0.511405
0.53021
0.549412
0.569009
0.588997
0.609372
0.630132
0.651272
0.672788
0.694675
0.716929
0.739542
0.762508
0.78582
0.80947
0.833448
0.857745
0.88235
0.907252
0.932438
0.957895
0.98361
1.00957
1.03575
1.06215
1.08875
1.11552
1.14245
1.16953
1.19673
1.22403
1.25143
1.27889
1.30639
1.33393
1.36147
1.389
1.4165
1.44394
1.47131
1.49858
1.52574
1.55276
1.57963
1.60633
1.63283
1.65912
1.68503
1.7106
1.73581
1.76067
1.78514
1.8092
1.83282
1.85597
1.87862
1.90075
1.92232
1.94331
1.9637
1.98345
2.00254
2.02095
2.03865
2.05563
2.07185
2.08731
2.10197
2.11583
2.12887
2.14106
2.15241
2.16289
2.17249
2.18121
2.18903
2.19595
2.20197
2.20708
2.21128
2.21456
2.21694
2.21841
2.21898
2.21865
2.21744
2.21534
2.21238
2.20856
2.2039
2.19841
2.19211
2.18502
2.17716
2.16854
2.1592
2.14914
2.13841
2.12702
2.11499
2.10236
2.08916
2.07541
2.06112
2.04637
2.03115
2.01551
1.99949
1.98303
1.96637
1.94943
1.93229
1.91502
1.89775
1.88067
1.86362
1.84652
1.82938
1.81221
1.79504
1.7779
1.76081
1.74379
1.72685
1.71
1.69329
1.67617
1.65826
0.00896593
0.0264414
0.0360779
0.0431067
0.0492396
0.0550807
0.0609223
0.0669189
0.0731441
0.0796194
0.0863355
0.0932681
0.100388
0.107666
0.115078
0.122604
0.130229
0.13794
0.145731
0.153598
0.161541
0.169564
0.177671
0.185873
0.194183
0.202619
0.211209
0.21999
0.229011
0.238333
0.248021
0.258145
0.268773
0.279962
0.291744
0.30414
0.317182
0.33089
0.34526
0.360303
0.376003
0.392315
0.409203
0.42661
0.44445
0.4627
0.481386
0.500529
0.520138
0.540214
0.560756
0.58176
0.603225
0.625147
0.647523
0.670352
0.69363
0.717354
0.741522
0.766129
0.791173
0.816647
0.842548
0.868868
0.895601
0.922738
0.950272
0.978192
1.00649
1.03515
1.06416
1.09351
1.12318
1.15316
1.18342
1.21396
1.24476
1.27579
1.30703
1.33847
1.37008
1.40184
1.43374
1.46573
1.49781
1.52995
1.56212
1.59431
1.62648
1.65862
1.6907
1.72269
1.75458
1.78634
1.81794
1.84937
1.8806
1.91161
1.94232
1.97264
2.00257
2.03211
2.06121
2.08986
2.11802
2.14566
2.17274
2.19923
2.22509
2.2503
2.27481
2.2986
2.32164
2.3439
2.36535
2.38596
2.4057
2.42456
2.4425
2.4595
2.47555
2.49062
2.50469
2.51776
2.5298
2.54081
2.55077
2.55967
2.56751
2.57427
2.57997
2.58459
2.58813
2.59061
2.59201
2.59236
2.59165
2.58989
2.5871
2.58329
2.57847
2.57267
2.5659
2.55817
2.54952
2.53996
2.52952
2.51823
2.50611
2.49319
2.47951
2.46509
2.44995
2.43416
2.41772
2.40065
2.38305
2.36489
2.34624
2.32721
2.30775
2.28798
2.2679
2.24757
2.22707
2.20649
2.18595
2.1654
2.1448
2.12416
2.10351
2.0829
2.06236
2.04194
2.02169
2.00172
1.98211
1.96308
1.94444
1.92638
0.0122181
0.0329308
0.0439206
0.0518684
0.0587022
0.0651049
0.0714068
0.0777878
0.084344
0.0911182
0.0981201
0.10534
0.11276
0.120359
0.128119
0.136026
0.144068
0.152242
0.160545
0.168981
0.177557
0.186284
0.195177
0.204254
0.213538
0.223058
0.232847
0.242947
0.253409
0.264285
0.275633
0.287505
0.299949
0.313004
0.326691
0.341025
0.356016
0.37167
0.387984
0.404951
0.422555
0.440768
0.459561
0.478903
0.498758
0.519108
0.539953
0.561302
0.583158
0.605527
0.628409
0.651804
0.675714
0.700138
0.725076
0.750525
0.776487
0.802958
0.829938
0.857423
0.885411
0.913898
0.942879
0.972348
1.0023
1.03272
1.06361
1.09496
1.12674
1.15896
1.1916
1.22464
1.25806
1.29185
1.32599
1.36046
1.39523
1.43029
1.46562
1.50118
1.53695
1.57291
1.60903
1.64529
1.68165
1.71809
1.75458
1.7911
1.82761
1.86409
1.90051
1.93685
1.97306
2.00914
2.04504
2.08074
2.11622
2.15144
2.18627
2.22068
2.25466
2.28818
2.32121
2.35371
2.38565
2.41698
2.44767
2.47767
2.50696
2.53549
2.56322
2.59012
2.61615
2.64128
2.66547
2.6887
2.71094
2.73215
2.75231
2.77139
2.78937
2.80623
2.82195
2.83651
2.8499
2.8621
2.8731
2.88289
2.89146
2.89881
2.90493
2.90983
2.9135
2.91594
2.91717
2.91719
2.91601
2.91364
2.9101
2.90539
2.89955
2.89258
2.88452
2.87538
2.86519
2.85397
2.84176
2.82859
2.81448
2.79946
2.78359
2.76689
2.74937
2.73112
2.71215
2.69244
2.67218
2.65134
2.62997
2.60813
2.58585
2.56318
2.54018
2.51688
2.49337
2.46972
2.44603
2.42228
2.39849
2.37466
2.35086
2.32711
2.30349
2.28007
2.25694
2.23425
2.21218
2.191
2.1707
2.15147
0.0152224
0.0385146
0.050767
0.0595598
0.0670283
0.0739276
0.0806242
0.0873224
0.0941389
0.101137
0.108343
0.115765
0.123395
0.131223
0.139238
0.147431
0.155797
0.164336
0.173051
0.181951
0.191049
0.200361
0.209907
0.219712
0.229803
0.240213
0.250979
0.262142
0.273748
0.285841
0.29847
0.311674
0.32549
0.339943
0.355051
0.370823
0.387262
0.404369
0.422139
0.440564
0.459631
0.479323
0.499621
0.520508
0.541966
0.563983
0.586557
0.609688
0.633381
0.65764
0.682468
0.707868
0.733842
0.760394
0.787524
0.815235
0.843527
0.872401
0.901856
0.931891
0.962506
0.993697
1.02546
1.05779
1.09068
1.12413
1.15812
1.19264
1.22769
1.26325
1.2993
1.33583
1.37282
1.41025
1.44809
1.48634
1.52495
1.56391
1.60319
1.64275
1.68258
1.72264
1.7629
1.80333
1.8439
1.88457
1.92532
1.9661
2.00689
2.04766
2.08837
2.12898
2.16948
2.20981
2.24996
2.28988
2.32953
2.36888
2.40776
2.44618
2.48412
2.52154
2.55839
2.59465
2.63027
2.6652
2.69939
2.73282
2.76542
2.79716
2.82799
2.85789
2.8868
2.91468
2.94151
2.96725
2.99186
3.01531
3.03757
3.05861
3.07841
3.09694
3.11419
3.13013
3.14474
3.15802
3.16995
3.18052
3.18972
3.19755
3.204
3.20908
3.21278
3.21511
3.21608
3.2157
3.21398
3.21093
3.20658
3.20093
3.194
3.18584
3.17645
3.16587
3.15411
3.14122
3.12723
3.11218
3.09608
3.07898
3.06094
3.04199
3.0221
3.00144
2.98002
2.95784
2.93501
2.91156
2.88752
2.86295
2.83791
2.81243
2.78658
2.76041
2.73398
2.70737
2.68065
2.65385
2.627
2.60013
2.5733
2.54656
2.52001
2.49373
2.46785
2.44257
2.41809
2.39473
2.3725
2.35149
0.0177821
0.0432809
0.0566183
0.0661493
0.0741748
0.0815074
0.0885423
0.0955038
0.102526
0.10969
0.117038
0.124591
0.132357
0.140334
0.148519
0.15691
0.165508
0.174316
0.183343
0.192601
0.202107
0.211881
0.221947
0.232331
0.243065
0.254182
0.265718
0.27771
0.2902
0.303226
0.316825
0.331031
0.345871
0.361366
0.377529
0.394368
0.411885
0.430081
0.448951
0.468492
0.488694
0.509549
0.531045
0.553174
0.575927
0.599297
0.623285
0.64789
0.673118
0.698974
0.725461
0.752587
0.780355
0.808772
0.83784
0.867565
0.897949
0.928995
0.960705
0.99308
1.02612
1.05982
1.09419
1.12921
1.16488
1.2012
1.23816
1.27574
1.31393
1.35272
1.3921
1.43203
1.47252
1.51352
1.55502
1.597
1.63941
1.68224
1.72546
1.76902
1.8129
1.85706
1.90146
1.94608
1.99086
2.03578
2.0808
2.12587
2.17096
2.21604
2.26105
2.30597
2.35076
2.39538
2.43978
2.48394
2.52781
2.57123
2.61417
2.65659
2.69847
2.73976
2.78043
2.82042
2.85968
2.89817
2.93583
2.97262
3.00849
3.04339
3.07727
3.1101
3.14182
3.17239
3.20178
3.22995
3.25685
3.28246
3.30674
3.32966
3.35119
3.37131
3.38999
3.40722
3.42298
3.43725
3.45002
3.46128
3.47102
3.47924
3.48594
3.49111
3.49477
3.49691
3.49755
3.49669
3.49436
3.49057
3.48534
3.47869
3.47063
3.46121
3.45046
3.4384
3.42505
3.41044
3.39465
3.3777
3.35961
3.3404
3.3202
3.29902
3.27688
3.25386
3.23001
3.20537
3.18
3.15395
3.12728
3.10003
3.07225
3.04401
3.01536
2.98636
2.95706
2.92755
2.89788
2.86812
2.83829
2.80846
2.77868
2.74904
2.71962
2.69056
2.662
2.63415
2.60725
2.58161
2.55719
2.53403
0.0199481
0.0472541
0.0614846
0.0716316
0.0801247
0.0878206
0.0951361
0.10231
0.109491
0.116771
0.124209
0.131838
0.139677
0.147735
0.156018
0.16453
0.173277
0.182267
0.191513
0.20103
0.210836
0.220956
0.231413
0.242238
0.253459
0.26511
0.277224
0.289837
0.302983
0.316696
0.331006
0.345942
0.361525
0.377775
0.394702
0.412317
0.430623
0.449623
0.469316
0.489702
0.510777
0.532537
0.554981
0.578103
0.601903
0.626379
0.651534
0.677372
0.703898
0.73112
0.759046
0.787682
0.817037
0.847119
0.877935
0.909491
0.941794
0.974848
1.00866
1.04323
1.07856
1.11465
1.1515
1.18911
1.22747
1.26658
1.30642
1.34699
1.38827
1.43025
1.47291
1.51624
1.56019
1.60476
1.64992
1.69563
1.74186
1.78858
1.83575
1.88334
1.9313
1.97959
2.02818
2.07702
2.12606
2.17527
2.22459
2.27399
2.32343
2.37284
2.42221
2.47147
2.52058
2.5695
2.61819
2.66659
2.71465
2.76217
2.80916
2.85558
2.90139
2.94655
2.99099
3.03468
3.07756
3.11956
3.16065
3.20075
3.23983
3.27782
3.31469
3.35037
3.38483
3.41801
3.44988
3.48039
3.5095
3.53718
3.56338
3.58808
3.61125
3.63286
3.65288
3.6713
3.6881
3.70326
3.71678
3.72864
3.73883
3.74735
3.7542
3.75939
3.76291
3.76478
3.76501
3.76361
3.7606
3.756
3.74983
3.74212
3.73288
3.72216
3.71
3.69642
3.68145
3.6651
3.64749
3.62863
3.60856
3.58732
3.56498
3.54159
3.51719
3.49184
3.46559
3.4385
3.41062
3.38201
3.35273
3.32283
3.29237
3.26141
3.23
3.19821
3.16609
3.13373
3.10119
3.06852
3.0358
3.00307
2.97042
2.93794
2.90573
2.87394
2.84273
2.81232
2.78296
2.75492
2.72813
2.70262
0.0217089
0.050456
0.0653916
0.0760281
0.0848934
0.0928773
0.100412
0.107747
0.115038
0.122392
0.129874
0.137532
0.145393
0.153477
0.161797
0.170363
0.179187
0.188282
0.197662
0.207346
0.217355
0.227711
0.238441
0.249573
0.261137
0.273163
0.285683
0.298729
0.31233
0.326517
0.341316
0.356751
0.372844
0.389612
0.407068
0.425223
0.444083
0.463656
0.483945
0.504953
0.526684
0.549138
0.572319
0.59623
0.620874
0.646254
0.672379
0.699255
0.726891
0.755298
0.784486
0.814465
0.845247
0.876844
0.909264
0.942518
0.976615
1.01156
1.04737
1.08403
1.12157
1.15997
1.19924
1.23937
1.28037
1.32222
1.36492
1.40846
1.45282
1.49798
1.54393
1.59064
1.63808
1.68624
1.73507
1.78454
1.83461
1.88526
1.93643
1.98807
2.04016
2.09263
2.14543
2.19853
2.25187
2.30539
2.35906
2.41281
2.4666
2.52038
2.5741
2.62771
2.68115
2.73438
2.78735
2.84001
2.89217
2.94376
2.99476
3.04513
3.09482
3.14378
3.19194
3.23926
3.28567
3.33111
3.37552
3.41884
3.46102
3.502
3.54174
3.58016
3.61723
3.6529
3.68712
3.71985
3.75105
3.78067
3.80867
3.83503
3.8597
3.88267
3.9039
3.92339
3.9411
3.95704
3.97119
3.98353
3.99406
4.00278
4.00968
4.01477
4.01807
4.01958
4.01932
4.01729
4.01353
4.00806
4.0009
3.99207
3.9816
3.96953
3.95593
3.94081
3.92421
3.90617
3.88675
3.86601
3.84398
3.82071
3.79626
3.77069
3.74405
3.7164
3.68779
3.65829
3.62795
3.59683
3.56499
3.5325
3.49941
3.46579
3.43169
3.39717
3.36231
3.32717
3.29183
3.25636
3.22081
3.18527
3.14983
3.11458
3.07964
3.04518
3.01136
2.97841
2.94656
2.91605
2.88678
2.85878
0.0230679
0.0529243
0.0683863
0.0793879
0.0885288
0.096723
0.104413
0.111854
0.11921
0.126594
0.134081
0.141726
0.149566
0.157628
0.165932
0.174496
0.183336
0.192466
0.201905
0.211673
0.221792
0.232284
0.243176
0.254494
0.266268
0.278525
0.291295
0.304606
0.318487
0.332964
0.348062
0.363804
0.380211
0.397301
0.415089
0.433589
0.452812
0.472768
0.493467
0.514916
0.537124
0.560098
0.583847
0.608379
0.633703
0.659829
0.686769
0.714533
0.743135
0.772589
0.802909
0.83411
0.866206
0.899211
0.93314
0.968005
1.00382
1.04059
1.07833
1.11704
1.15674
1.19742
1.23908
1.28173
1.32535
1.36995
1.41552
1.46203
1.50948
1.55785
1.60711
1.65723
1.7082
1.75997
1.81251
1.86578
1.91974
1.97434
2.02953
2.08527
2.1415
2.19817
2.25522
2.31258
2.37022
2.42806
2.48605
2.54414
2.60227
2.66038
2.71842
2.77633
2.83406
2.89154
2.94873
3.00551
3.06168
3.11725
3.17215
3.22636
3.2798
3.33243
3.38418
3.43498
3.48477
3.53349
3.58106
3.62743
3.67255
3.71634
3.75876
3.79974
3.83925
3.87721
3.9136
3.94836
3.98146
4.01284
4.04246
4.07029
4.09629
4.12044
4.14272
4.16311
4.18158
4.19814
4.21276
4.22545
4.23619
4.24497
4.2518
4.25669
4.25966
4.26071
4.25986
4.25712
4.25253
4.24612
4.23791
4.22793
4.21621
4.20281
4.18776
4.1711
4.15289
4.13315
4.11195
4.08935
4.06539
4.04013
4.01362
3.98592
3.9571
3.92721
3.89631
3.86446
3.83174
3.79819
3.76388
3.72888
3.69326
3.65706
3.62036
3.58322
3.54571
3.50791
3.46987
3.43169
3.39344
3.3552
3.31706
3.27914
3.24157
3.2045
3.16813
3.13267
3.09833
3.06533
3.03353
3.003
0.0240436
0.0547131
0.070536
0.0817847
0.0911074
0.0994341
0.107214
0.114706
0.12208
0.129452
0.136904
0.144498
0.152278
0.160277
0.168522
0.177035
0.185834
0.194939
0.204369
0.214146
0.22429
0.234826
0.245778
0.257173
0.269036
0.281395
0.294277
0.30771
0.321719
0.33633
0.351569
0.367457
0.384017
0.401268
0.419229
0.437917
0.457348
0.477537
0.498498
0.520245
0.542792
0.566152
0.59034
0.61537
0.641257
0.668015
0.695662
0.724214
0.753689
0.784104
0.81548
0.847833
0.881183
0.915548
0.950945
0.98739
1.0249
1.06348
1.10315
1.14392
1.18579
1.22877
1.27285
1.31804
1.36434
1.41172
1.4602
1.50974
1.56033
1.61194
1.66457
1.71816
1.77269
1.82812
1.88441
1.94151
1.99937
2.05795
2.11719
2.17702
2.2374
2.29825
2.35951
2.42112
2.483
2.5451
2.60736
2.6697
2.73208
2.79442
2.85666
2.91876
2.98064
3.04224
3.10349
3.16414
3.22416
3.28349
3.3421
3.39993
3.45691
3.51298
3.56808
3.62213
3.67506
3.72679
3.77727
3.82643
3.8742
3.92054
3.96537
4.00865
4.05032
4.09032
4.12861
4.16514
4.19987
4.23276
4.26377
4.29283
4.31992
4.34503
4.36813
4.3892
4.40823
4.42521
4.44013
4.453
4.46377
4.47246
4.47907
4.48363
4.48614
4.48662
4.4851
4.48159
4.47611
4.46871
4.45942
4.44827
4.43529
4.42053
4.40404
4.38587
4.36606
4.34465
4.32172
4.29731
4.27148
4.24428
4.21579
4.18605
4.15513
4.12309
4.09001
4.05593
4.02093
3.98507
3.94842
3.91104
3.873
3.83436
3.7952
3.75557
3.71555
3.67522
3.63464
3.5939
3.55308
3.51227
3.47157
3.43111
3.39102
3.35146
3.31262
3.27471
3.23794
3.20247
3.16815
3.13511
0.0246674
0.0558898
0.0719244
0.0833114
0.0927272
0.101112
0.108917
0.116406
0.123749
0.131067
0.138447
0.145954
0.153639
0.161538
0.169684
0.1781
0.18681
0.195835
0.205196
0.214913
0.225008
0.235505
0.246428
0.2578
0.269649
0.281999
0.294877
0.308309
0.322322
0.336941
0.352191
0.368097
0.384683
0.401972
0.419986
0.438745
0.458272
0.478585
0.499707
0.521655
0.544451
0.568114
0.592664
0.618123
0.64451
0.671847
0.700156
0.729459
0.759779
0.791139
0.823562
0.857071
0.891688
0.927435
0.964334
1.0024
1.04166
1.08212
1.12379
1.16669
1.21082
1.25618
1.30278
1.3506
1.39966
1.44993
1.5014
1.55405
1.60787
1.66282
1.71887
1.77599
1.83414
1.89327
1.95333
2.01428
2.07606
2.1386
2.20186
2.26575
2.33022
2.39518
2.46057
2.5263
2.59231
2.65853
2.72488
2.79131
2.85774
2.92411
2.99035
3.0564
3.1222
3.18768
3.25258
3.31683
3.38037
3.44317
3.50515
3.56625
3.62642
3.68558
3.74367
3.80061
3.85631
3.91069
3.96369
4.01526
4.06532
4.11382
4.1607
4.20589
4.24935
4.29102
4.33086
4.36881
4.40484
4.43893
4.471
4.50097
4.52886
4.55463
4.57828
4.59977
4.61911
4.63628
4.65126
4.66407
4.67469
4.68312
4.68937
4.69346
4.6954
4.69522
4.69293
4.68857
4.68215
4.67372
4.66332
4.65097
4.63672
4.62062
4.60272
4.58306
4.5617
4.53869
4.51409
4.48795
4.46034
4.43132
4.40094
4.36928
4.33639
4.30235
4.26721
4.23105
4.19393
4.15593
4.11709
4.07751
4.03723
3.99633
3.95489
3.91295
3.87061
3.82793
3.78499
3.74187
3.69867
3.65547
3.6124
3.56956
3.5271
3.48519
3.44401
3.40377
3.36464
3.32678
3.29003
3.25455
0.0249816
0.0565323
0.0726465
0.0840739
0.0935014
0.101873
0.109642
0.117073
0.124339
0.131562
0.138833
0.14622
0.153775
0.161541
0.169551
0.177833
0.186411
0.195307
0.204544
0.214142
0.224123
0.234509
0.245325
0.256594
0.268342
0.280593
0.293374
0.306712
0.320634
0.335167
0.350338
0.366174
0.382701
0.399948
0.41794
0.436704
0.456266
0.476652
0.49789
0.520005
0.543024
0.566975
0.591885
0.61778
0.644687
0.672634
0.701649
0.731758
0.76299
0.795373
0.828935
0.863703
0.899702
0.936958
0.975495
1.01533
1.05649
1.09899
1.14283
1.18804
1.23461
1.28253
1.33181
1.38245
1.43442
1.48773
1.54234
1.59824
1.6554
1.71378
1.77335
1.83406
1.89587
1.95872
2.02257
2.08734
2.15298
2.21941
2.28658
2.35441
2.42283
2.49175
2.56107
2.63071
2.7006
2.77067
2.84084
2.91103
2.98119
3.05125
3.12113
3.19077
3.26012
3.32889
3.397
3.46439
3.531
3.59677
3.66163
3.72552
3.78836
3.8501
3.91068
3.97002
4.02797
4.08447
4.13949
4.19295
4.24479
4.29495
4.34338
4.39
4.43478
4.47766
4.51858
4.55751
4.5944
4.62921
4.6619
4.69242
4.72075
4.74685
4.77073
4.79235
4.81171
4.8288
4.84362
4.85616
4.86642
4.8744
4.88013
4.8836
4.88485
4.88389
4.88075
4.87546
4.86805
4.85855
4.84701
4.83347
4.81797
4.80056
4.78128
4.7602
4.73737
4.71284
4.68667
4.65892
4.62966
4.59895
4.56685
4.53342
4.49874
4.46287
4.42588
4.38783
4.3488
4.30885
4.26806
4.22648
4.1842
4.14127
4.09776
4.05376
4.00932
3.96453
3.91946
3.87421
3.82885
3.7835
3.73826
3.69325
3.64863
3.60455
3.5612
3.51878
3.47744
3.43733
3.39828
3.36048
0.0250378
0.0567256
0.0728045
0.0841857
0.0935512
0.101844
0.10952
0.116842
0.123986
0.131075
0.138201
0.145434
0.15283
0.160432
0.168275
0.176388
0.184796
0.193523
0.202591
0.21202
0.221834
0.232055
0.242705
0.25381
0.265394
0.277485
0.290109
0.303295
0.317072
0.331469
0.346516
0.362245
0.378687
0.395873
0.413836
0.432608
0.452222
0.472709
0.494106
0.516445
0.539761
0.564089
0.589465
0.615922
0.643494
0.672212
0.702108
0.733217
0.765571
0.799203
0.834144
0.870425
0.908073
0.947116
0.987578
1.02948
1.07284
1.11768
1.16401
1.21183
1.26114
1.31191
1.36416
1.41785
1.47299
1.52954
1.58749
1.64679
1.70743
1.76934
1.8325
1.89684
1.96231
2.02885
2.09639
2.16488
2.23422
2.30436
2.37522
2.44672
2.51879
2.59139
2.66429
2.73745
2.81079
2.88426
2.95776
3.03124
3.10461
3.17783
3.2508
3.32348
3.39556
3.46697
3.53765
3.60753
3.67653
3.74459
3.81164
3.87762
3.94244
4.00605
4.06837
4.12933
4.18882
4.24677
4.30313
4.35784
4.41082
4.46202
4.51139
4.55886
4.60437
4.64789
4.68936
4.72874
4.76599
4.80107
4.83394
4.86456
4.8929
4.91895
4.94268
4.96409
4.98315
4.99987
5.01424
5.02627
5.03594
5.04328
5.0483
5.05101
5.05143
5.04958
5.0455
5.03922
5.03077
5.02019
5.00751
4.99279
4.97608
4.95741
4.93684
4.91443
4.89024
4.86432
4.83673
4.80753
4.7768
4.74458
4.71095
4.67598
4.63973
4.60226
4.56366
4.52398
4.48329
4.44167
4.39918
4.3559
4.31188
4.2672
4.22194
4.17614
4.1299
4.08329
4.03639
3.98928
3.94205
3.89481
3.84767
3.80076
3.75422
3.70821
3.66292
3.61851
3.57516
3.53299
3.49183
3.4519
0.0248951
0.0565581
0.0725029
0.0837621
0.093
0.101156
0.108685
0.115851
0.122831
0.129749
0.136698
0.143749
0.150959
0.15837
0.166019
0.173936
0.182146
0.190672
0.199539
0.208767
0.21838
0.228401
0.238854
0.249765
0.261162
0.273072
0.285526
0.298555
0.312191
0.326468
0.341422
0.357088
0.373504
0.390709
0.408741
0.427639
0.447442
0.468192
0.489931
0.512703
0.53655
0.561517
0.587649
0.61499
0.643578
0.673441
0.704615
0.737141
0.771055
0.806393
0.843187
0.881469
0.921264
0.962598
1.00549
1.04996
1.09602
1.14369
1.19298
1.24392
1.29643
1.35047
1.40604
1.46313
1.52171
1.58176
1.64324
1.70611
1.77031
1.83581
1.90253
1.97043
2.03944
2.10948
2.18049
2.25239
2.3251
2.39854
2.47263
2.54729
2.62243
2.69797
2.77379
2.84979
2.92591
3.00205
3.07816
3.15416
3.22998
3.30558
3.3808
3.45541
3.52933
3.60251
3.67486
3.74631
3.8168
3.88625
3.95459
4.02174
4.08765
4.15224
4.21543
4.27716
4.33734
4.39591
4.4528
4.50795
4.56129
4.61278
4.66234
4.70994
4.75551
4.79901
4.84039
4.87961
4.91664
4.95143
4.98395
5.01417
5.04206
5.06761
5.09079
5.11159
5.13
5.14603
5.15966
5.1709
5.17976
5.18625
5.19038
5.19216
5.19163
5.1888
5.18372
5.1764
5.16689
5.15522
5.14144
5.1256
5.10774
5.08792
5.06618
5.04258
5.01719
4.99005
4.96124
4.9308
4.89882
4.86534
4.83045
4.7942
4.75665
4.71789
4.67798
4.63698
4.59496
4.55199
4.50814
4.46349
4.41808
4.372
4.32532
4.27809
4.2304
4.18231
4.13391
4.08529
4.03653
3.98774
3.93903
3.89052
3.84237
3.79471
3.74774
3.70163
3.65651
3.61252
3.56948
3.52765
0.0246049
0.0561035
0.0718237
0.0828898
0.0919363
0.0998967
0.107225
0.114188
0.120961
0.127671
0.13441
0.14125
0.148246
0.155442
0.162874
0.170571
0.178561
0.186868
0.195518
0.204532
0.213937
0.223758
0.234022
0.24476
0.256001
0.267778
0.280127
0.293084
0.306688
0.320979
0.335998
0.351792
0.368407
0.385893
0.4043
0.423668
0.444044
0.465481
0.488031
0.511749
0.536688
0.562902
0.590448
0.619391
0.649792
0.681603
0.714887
0.749689
0.786049
0.823998
0.863565
0.904773
0.94764
0.992179
1.0384
1.08631
1.13591
1.18718
1.24014
1.29476
1.351
1.40881
1.46818
1.52905
1.5914
1.65518
1.72034
1.78683
1.85458
1.92355
1.99365
2.06483
2.13702
2.21013
2.28409
2.35883
2.43425
2.51029
2.58684
2.66383
2.74117
2.81878
2.89655
2.97441
3.05227
3.13006
3.2077
3.28516
3.36233
3.43898
3.51501
3.59034
3.66491
3.73862
3.81143
3.88324
3.954
4.02363
4.09206
4.15923
4.22506
4.28949
4.35245
4.41388
4.47369
4.53183
4.58823
4.64284
4.69559
4.74642
4.7953
4.84216
4.88695
4.92964
4.97017
5.00851
5.04463
5.07848
5.11003
5.13927
5.16616
5.19069
5.21284
5.23259
5.24995
5.26491
5.27747
5.28763
5.29541
5.30081
5.30385
5.30454
5.30292
5.29901
5.29284
5.28444
5.27386
5.26112
5.24629
5.22939
5.21048
5.18962
5.16684
5.14222
5.11581
5.08767
5.05785
5.02643
4.99345
4.959
4.92312
4.8859
4.84739
4.80765
4.76677
4.7248
4.68181
4.63786
4.59303
4.54737
4.50097
4.45387
4.40615
4.35787
4.30911
4.25993
4.21042
4.16066
4.11074
4.06076
4.01083
3.96108
3.91163
3.86266
3.81432
3.76678
3.72018
3.67465
3.63001
3.58654
0.024296
0.0555203
0.0709483
0.0817651
0.0905705
0.0982916
0.105383
0.112112
0.118656
0.125142
0.13166
0.138283
0.145064
0.152048
0.159271
0.166766
0.17456
0.182682
0.191159
0.20002
0.209294
0.219014
0.229212
0.239925
0.251192
0.263054
0.275556
0.288745
0.302674
0.317388
0.332938
0.349383
0.36679
0.385229
0.404789
0.425465
0.447316
0.470416
0.494829
0.520618
0.547842
0.576556
0.606816
0.63867
0.672157
0.707289
0.744095
0.782599
0.822822
0.864778
0.908474
0.953913
1.00109
1.05
1.10062
1.15293
1.20692
1.26255
1.31979
1.3786
1.43894
1.50075
1.56398