/*--------------------------------*- C++ -*----------------------------------*\
  =========                 |
  \\      /  F ield         | OpenFOAM: The Open Source CFD Toolbox
   \\    /   O peration     | Website:  https://openfoam.org
    \\  /    A nd           | Version:  12
     \\/     M anipulation  |
\*---------------------------------------------------------------------------*/
FoamFile
{
    format      ascii;
    class       volScalarField;
    location    "0.23";
    object      nut;
}
// * * * * * * * * * * * * * * * * * * * * * * * * * * * * * * * * * * * * * //

dimensions      [0 2 -1 0 0 0 0];

internalField   nonuniform List<scalar> 
12225
(
4.04768e-05
3.83178e-05
3.62504e-05
3.44199e-05
3.29519e-05
3.18976e-05
3.12561e-05
3.09936e-05
3.10579e-05
3.13898e-05
3.19307e-05
3.26269e-05
3.34318e-05
3.43069e-05
3.52232e-05
3.6156e-05
3.71104e-05
3.84921e-05
0.000281048
0.000209266
0.000176267
0.00015744
0.000146272
0.000139688
0.000135794
0.000133431
0.000131916
0.000130859
0.000130045
0.000129358
0.00012874
0.000128162
0.000127623
0.00012708
0.000126683
0.000125736
0.000556048
0.000419908
0.000349816
0.000304738
0.000272451
0.000247988
0.000228772
0.000213308
0.000200681
0.000190281
0.000181668
0.000174502
0.000168514
0.000163484
0.000159236
0.000155587
0.000152448
0.00014939
0.000740308
0.000625822
0.000544118
0.000485001
0.000439775
0.000403656
0.000373849
0.000348615
0.000326868
0.000307908
0.000291264
0.000276588
0.000263609
0.0002521
0.000241863
0.000232683
0.000224404
0.000216747
0.000817069
0.000759142
0.000700547
0.00064858
0.000603901
0.00056559
0.000532482
0.000503525
0.000477893
0.000454979
0.000434336
0.00041563
0.000398603
0.000383043
0.000368773
0.000355608
0.000343404
0.000332067
0.0008421
0.000819688
0.000789925
0.000757608
0.000725557
0.000695169
0.000666973
0.000641027
0.000617189
0.000595256
0.000575027
0.000556313
0.000538952
0.000522795
0.000507714
0.00049358
0.000480291
0.000467894
0.000849261
0.000841808
0.000829742
0.000814189
0.000796483
0.000777765
0.000758854
0.000740263
0.000722279
0.000705048
0.000688631
0.000673035
0.00065824
0.000644208
0.000630892
0.000618238
0.000606206
0.000594923
0.00085112
0.000848748
0.000844481
0.000838237
0.000830247
0.000820897
0.000810602
0.000799727
0.000788561
0.000777322
0.000766166
0.000755199
0.000744492
0.000734085
0.000724003
0.000714256
0.000704856
0.000695956
0.00085156
0.000850665
0.00084917
0.000846887
0.000843742
0.00083976
0.000835035
0.000829696
0.000823879
0.000817711
0.000811306
0.000804759
0.000798147
0.00079153
0.000784954
0.000778457
0.000772076
0.000765946
0.000851652
0.000851133
0.000850468
0.000849564
0.000848347
0.000846773
0.000844827
0.000842521
0.000839885
0.000836961
0.000833793
0.000830429
0.000826911
0.000823279
0.000819569
0.000815813
0.000812044
0.000808358
0.000851668
0.00085123
0.000850778
0.000850278
0.000849698
0.000849007
0.000848183
0.000847212
0.000846088
0.000844815
0.0008434
0.000841856
0.000840196
0.000838437
0.000836595
0.000834686
0.00083273
0.000830784
0.000851669
0.000851245
0.000850835
0.000850429
0.000850014
0.000849575
0.000849101
0.00084858
0.000848003
0.000847365
0.000846665
0.000845902
0.000845079
0.000844199
0.000843269
0.000842294
0.000841284
0.000840272
0.000851668
0.000851244
0.000850843
0.000850459
0.000850088
0.000849726
0.000849365
0.000849001
0.000848629
0.000848243
0.000847841
0.00084742
0.00084698
0.000846519
0.000846038
0.000845538
0.000845023
0.000844513
0.000851667
0.000851242
0.000850839
0.000850458
0.000850096
0.000849751
0.000849421
0.000849102
0.000848793
0.000848491
0.000848195
0.000847902
0.000847611
0.000847321
0.000847032
0.000846742
0.000846454
0.00084618
0.000851666
0.000851239
0.000850835
0.000850452
0.00085009
0.000849746
0.000849419
0.000849108
0.000848812
0.000848528
0.000848257
0.000847996
0.000847746
0.000847505
0.000847272
0.000847047
0.000846832
0.000846637
0.000851665
0.000851236
0.000850831
0.000850447
0.000850083
0.000849737
0.000849409
0.000849098
0.000848801
0.000848519
0.000848251
0.000847994
0.00084775
0.000847517
0.000847294
0.000847082
0.000846881
0.000846703
0.000851664
0.000851235
0.000850828
0.000850442
0.000850077
0.00084973
0.000849401
0.000849088
0.00084879
0.000848507
0.000848237
0.00084798
0.000847735
0.000847502
0.000847279
0.000847066
0.000846866
0.000846688
0.000851663
0.000851234
0.000850826
0.00085044
0.000850073
0.000849725
0.000849395
0.000849081
0.000848782
0.000848498
0.000848227
0.000847969
0.000847723
0.000847488
0.000847264
0.00084705
0.000846848
0.000846669
0.000851663
0.000851233
0.000850825
0.000850439
0.000850072
0.000849724
0.000849393
0.000849078
0.000848779
0.000848494
0.000848222
0.000847963
0.000847716
0.000847481
0.000847256
0.000847041
0.000846838
0.000846658
0.000851664
0.000851234
0.000850826
0.00085044
0.000850074
0.000849726
0.000849396
0.000849081
0.000848782
0.000848497
0.000848225
0.000847965
0.000847717
0.00084748
0.000847253
0.000847037
0.000846831
0.000846649
0.000851664
0.000851235
0.000850829
0.000850443
0.000850078
0.00084973
0.000849399
0.000849082
0.000848779
0.000848489
0.000848209
0.00084794
0.000847679
0.000847427
0.000847182
0.000846944
0.000846715
0.000846506
0.000851665
0.000851237
0.00085083
0.000850442
0.000850068
0.000849706
0.000849351
0.000848999
0.000848647
0.000848293
0.000847934
0.00084757
0.000847198
0.000846819
0.000846432
0.000846038
0.00084564
0.000845251
0.000851664
0.000851228
0.000850794
0.000850348
0.00084987
0.000849345
0.000848761
0.00084811
0.000847388
0.000846593
0.000845727
0.000844796
0.000843804
0.00084276
0.000841669
0.000840541
0.000839385
0.000838223
0.000851634
0.000851073
0.000850343
0.000849363
0.000848079
0.000846467
0.00084453
0.000842291
0.000839784
0.000837051
0.000834133
0.000831072
0.000827906
0.000824669
0.000821389
0.000818092
0.000814803
0.000811568
0.000851287
0.000849596
0.000846721
0.000842577
0.000837262
0.000830978
0.00082397
0.000816469
0.000808671
0.000800733
0.000792778
0.000784895
0.00077715
0.000769586
0.000762235
0.000755116
0.000748243
0.00074167
0.000848318
0.000839425
0.00082616
0.000810016
0.000792356
0.000774222
0.000756314
0.000739035
0.000722582
0.000707036
0.000692408
0.000678671
0.000665779
0.000653676
0.000642307
0.000631617
0.000621558
0.00061214
0.000828548
0.000788842
0.000746032
0.000705699
0.000669457
0.000637491
0.000609432
0.000584723
0.000562824
0.000543281
0.000525726
0.000509858
0.000495436
0.000482267
0.000470191
0.000459078
0.000448821
0.000439372
0.000730725
0.000627344
0.000554503
0.000501054
0.00046031
0.000428337
0.000402621
0.000381454
0.000363692
0.00034856
0.000335512
0.000324152
0.000314179
0.000305366
0.000297532
0.000290532
0.000284249
0.000278597
0.000439249
0.00033847
0.000287933
0.000256867
0.000236359
0.000222508
0.00021299
0.000206309
0.000201503
0.000197957
0.000195269
0.000193176
0.000191498
0.000190115
0.000188946
0.000187932
0.000187036
0.000186209
7.16431e-05
6.90587e-05
6.65522e-05
6.41646e-05
6.19883e-05
6.00784e-05
5.84565e-05
5.71213e-05
5.60572e-05
5.52403e-05
5.46437e-05
5.42395e-05
5.4001e-05
5.39033e-05
5.39237e-05
5.40423e-05
5.42415e-05
5.45052e-05
2.36151e-07
5.96123e-06
9.82358e-06
1.32641e-05
1.68825e-05
2.11064e-05
2.59694e-05
3.16093e-05
3.81733e-05
4.52691e-05
5.27154e-05
6.04986e-05
6.856e-05
7.68318e-05
8.5248e-05
9.37458e-05
0.000102267
0.000110755
0.000119159
0.000127429
0.000135517
0.000143374
0.000150953
0.000158199
0.000165053
0.000171446
0.000177303
0.000182552
0.000187128
0.000190983
0.000194073
0.000196358
0.000197829
0.000198602
0.000198926
0.000198845
0.000198236
0.000198228
0.000198683
4.53915e-05
0.000202616
0.000203442
4.60333e-05
4.72233e-05
4.82298e-05
4.92858e-05
5.0362e-05
5.14466e-05
5.2536e-05
5.36277e-05
5.47199e-05
5.58116e-05
5.6902e-05
5.79905e-05
5.90768e-05
6.01605e-05
6.12412e-05
6.23187e-05
6.33927e-05
6.44629e-05
6.5529e-05
6.65906e-05
6.76474e-05
6.86992e-05
6.97454e-05
7.07857e-05
7.18198e-05
7.28471e-05
7.38673e-05
7.48799e-05
7.58845e-05
7.68807e-05
7.78679e-05
7.88457e-05
7.98136e-05
8.07713e-05
8.17182e-05
8.26538e-05
8.35778e-05
8.44897e-05
8.53891e-05
8.62755e-05
8.71486e-05
8.80079e-05
8.8853e-05
8.96835e-05
9.04991e-05
9.12994e-05
9.2084e-05
9.28526e-05
9.36046e-05
9.43398e-05
9.50579e-05
9.57583e-05
9.64409e-05
9.71055e-05
9.7752e-05
9.8381e-05
9.89938e-05
9.95931e-05
0.000100177
0.000100739
0.00010128
0.000101799
0.000102296
0.000102771
0.000103224
0.000103654
0.000104062
0.000104445
0.000104806
0.000105142
0.000105454
0.000105741
0.000106004
0.000106242
0.000106455
0.000106642
0.000106804
0.000106941
0.000107052
0.000107138
0.000107197
0.000107231
0.00010724
0.000107223
0.00010718
0.000107112
0.000107019
0.0001069
0.000106757
0.000106588
0.000106396
0.000106179
0.000105938
0.000105673
0.000105385
0.000105074
0.00010474
0.000104384
0.000104007
0.000103608
0.000103188
0.000102748
0.000102288
0.000101809
0.000101311
0.000100796
0.000100262
9.97121e-05
9.91458e-05
9.85639e-05
9.79671e-05
9.73561e-05
9.67316e-05
9.60943e-05
9.54451e-05
9.47845e-05
9.41135e-05
9.34328e-05
9.27424e-05
9.20451e-05
9.1339e-05
9.06289e-05
8.99198e-05
8.92774e-05
8.88616e-05
8.84738e-05
8.80854e-05
8.7695e-05
8.73024e-05
8.69078e-05
8.65105e-05
8.61092e-05
8.57009e-05
8.52789e-05
8.48277e-05
8.43069e-05
8.36171e-05
8.23167e-05
8.90548e-07
2.42523e-05
5.31108e-05
7.42125e-05
8.93154e-05
0.000100294
0.000109493
0.000118223
0.000127111
0.000136395
0.000146088
0.000156114
0.000166381
0.000176798
0.000187282
0.000197759
0.00020816
0.000218419
0.000228474
0.000238261
0.000247712
0.000256752
0.00026529
0.000273216
0.000280396
0.000286662
0.000291824
0.000295676
0.000298015
0.000298657
0.000297458
0.000294374
0.000289589
0.000283644
0.000277061
0.000268879
0.000257144
0.000250831
0.000250738
0.00024875
0.000255999
0.000257957
0.000257761
0.000262694
0.00026922
0.000275312
0.000281913
0.000288884
0.000296127
0.000303582
0.000311209
0.000318983
0.000326886
0.000334907
0.000343039
0.000351276
0.000359614
0.000368051
0.000376583
0.00038521
0.000393928
0.000402737
0.000411634
0.000420617
0.000429683
0.000438831
0.000448057
0.000457358
0.000466731
0.000476171
0.000485674
0.000495237
0.000504853
0.000514519
0.000524229
0.000533977
0.000543758
0.000553566
0.000563396
0.00057324
0.000583095
0.000592953
0.000602809
0.000612657
0.000622492
0.000632308
0.000642102
0.000651867
0.000661599
0.000671294
0.000680947
0.000690554
0.00070011
0.000709609
0.000719041
0.000728394
0.000737645
0.000746759
0.000755678
0.000764231
0.000772187
0.000779975
0.000787639
0.000795181
0.000802597
0.000809881
0.000817027
0.00082403
0.000830885
0.000837586
0.000844127
0.000850504
0.000856712
0.000862745
0.000868599
0.00087427
0.000879753
0.000885044
0.000890139
0.000895035
0.000899728
0.000904215
0.000908492
0.000912559
0.000916411
0.000920048
0.000923466
0.000926665
0.000929642
0.000932396
0.000934928
0.000937235
0.000939318
0.000941177
0.000942812
0.000944224
0.000945413
0.00094638
0.000947127
0.000947656
0.000947968
0.000948066
0.000947952
0.000947629
0.000947101
0.00094637
0.000945441
0.000944317
0.000943002
0.000941502
0.000939821
0.000937965
0.000935937
0.000933746
0.000931395
0.00092889
0.000926242
0.000923453
0.000920533
0.000917493
0.000914325
0.000911063
0.000907702
0.000904204
0.000900465
0.000895854
0.000889239
0.00088199
0.000874536
0.000866981
0.000859362
0.000851696
0.00084399
0.000836248
0.000828462
0.000820608
0.000812612
0.000804363
0.000794868
0.000776417
1.77592e-06
3.93539e-05
8.47168e-05
0.000118758
0.000143339
0.000161664
0.00017624
0.000188831
0.000200551
0.000212025
0.000223539
0.000235182
0.000246945
0.000258773
0.000270595
0.00028234
0.000293936
0.000305317
0.000316417
0.000327172
0.000337515
0.000347374
0.000356669
0.000365309
0.000373196
0.000380225
0.000386304
0.000391371
0.000395423
0.000398538
0.000400886
0.000402748
0.000404525
0.000406713
0.000409665
0.000413181
0.000417397
0.000423912
0.000432541
0.000442211
0.000453339
0.000465055
0.000477137
0.00049025
0.000504426
0.000518947
0.000533855
0.000549124
0.000564716
0.0005806
0.000596749
0.000613142
0.000629762
0.000646597
0.000663639
0.000680879
0.000698312
0.000715933
0.000733738
0.000751722
0.00076988
0.000788208
0.000806702
0.000825356
0.000844164
0.000863119
0.000882214
0.000901442
0.000920795
0.000940262
0.000959835
0.000979503
0.000999255
0.00101908
0.00103897
0.0010589
0.00107888
0.00109888
0.00111889
0.0011389
0.00115889
0.00117886
0.00119879
0.00121868
0.00123849
0.00125824
0.00127789
0.00129745
0.0013169
0.00133622
0.00135541
0.00137445
0.00139332
0.00141201
0.00143049
0.00144874
0.00146671
0.00148437
0.00150166
0.00151828
0.00153445
0.00155033
0.00156595
0.00158131
0.0015964
0.00161121
0.00162573
0.00163995
0.00165385
0.00166743
0.00168067
0.00169356
0.0017061
0.00171828
0.00173007
0.00174148
0.0017525
0.00176311
0.00177331
0.0017831
0.00179246
0.00180139
0.00180988
0.00181793
0.00182553
0.00183268
0.00183938
0.00184561
0.00185139
0.0018567
0.00186154
0.00186592
0.00186983
0.00187328
0.00187626
0.00187877
0.00188082
0.0018824
0.00188353
0.00188421
0.00188443
0.00188421
0.00188355
0.00188245
0.00188093
0.00187898
0.00187662
0.00187386
0.0018707
0.00186716
0.00186324
0.00185895
0.0018543
0.00184932
0.00184401
0.00183837
0.00183244
0.00182622
0.00181972
0.00181298
0.001806
0.00179879
0.00179138
0.00178367
0.0017755
0.00176631
0.00175533
0.0017434
0.00173103
0.00171839
0.00170558
0.00169263
0.00167957
0.00166641
0.00165312
0.00163962
0.00162573
0.00161093
0.00159327
0.00156413
2.81305e-06
5.03877e-05
0.00010775
0.000151812
0.000184544
0.000209286
0.000228799
0.000245126
0.000259667
0.000273308
0.000286554
0.000299654
0.000312705
0.000325717
0.000338658
0.000351479
0.000364126
0.000376545
0.000388688
0.000400508
0.000411965
0.00042302
0.000433638
0.000443787
0.000453443
0.000462595
0.000471262
0.000479501
0.000487424
0.000495204
0.000503075
0.000511309
0.0005202
0.00053002
0.000540943
0.000552979
0.00056619
0.000580802
0.00059677
0.000613914
0.000632054
0.000650962
0.000670585
0.000690953
0.000711962
0.000733407
0.000755232
0.00077741
0.000799925
0.000822762
0.000845908
0.000869351
0.000893079
0.000917085
0.000941358
0.000965894
0.000990686
0.00101573
0.00104101
0.00106653
0.00109229
0.00111826
0.00114446
0.00117086
0.00119746
0.00122424
0.00125121
0.00127834
0.00130562
0.00133304
0.00136058
0.00138823
0.00141598
0.0014438
0.00147168
0.0014996
0.00152754
0.00155549
0.00158343
0.00161133
0.00163919
0.00166698
0.00169468
0.00172227
0.00174975
0.00177708
0.00180426
0.00183127
0.00185808
0.00188469
0.00191106
0.00193719
0.00196305
0.00198861
0.00201386
0.00203875
0.00206327
0.00208737
0.00211094
0.0021339
0.0021564
0.00217853
0.00220028
0.00222168
0.00224269
0.00226331
0.00228353
0.00230333
0.00232269
0.00234159
0.00236003
0.002378
0.00239547
0.00241243
0.00242887
0.00244478
0.00246015
0.00247496
0.00248921
0.00250288
0.00251596
0.00252845
0.00254034
0.00255162
0.00256229
0.00257233
0.00258174
0.00259052
0.00259867
0.00260617
0.00261304
0.00261925
0.00262483
0.00262976
0.00263404
0.00263768
0.00264068
0.00264303
0.00264476
0.00264585
0.00264632
0.00264617
0.0026454
0.00264403
0.00264207
0.00263951
0.00263638
0.00263268
0.00262843
0.00262364
0.00261831
0.00261247
0.00260613
0.00259931
0.00259202
0.00258427
0.00257611
0.00256753
0.00255857
0.00254924
0.00253958
0.00252956
0.00251922
0.00250848
0.00249719
0.00248501
0.00247151
0.00245709
0.00244209
0.00242672
0.00241107
0.00239522
0.00237919
0.00236301
0.00234663
0.00232998
0.00231278
0.00229433
0.00227247
0.00224059
3.83387e-06
5.93109e-05
0.000126052
0.0001786
0.000218309
0.000248616
0.000272487
0.000292176
0.000309294
0.000324923
0.000339741
0.000354142
0.000368326
0.00038238
0.000396325
0.000410147
0.000423821
0.00043732
0.000450619
0.000463702
0.00047656
0.000489192
0.000501609
0.000513829
0.000525888
0.000537836
0.00054975
0.000561736
0.000573933
0.000586512
0.000599664
0.000613586
0.000628456
0.000644413
0.000661532
0.000679824
0.000699284
0.000719911
0.000741653
0.000764423
0.000788099
0.00081255
0.000837705
0.000863504
0.000889852
0.000916656
0.000943863
0.000971446
0.00099939
0.00102768
0.00105632
0.00108529
0.00111458
0.00114419
0.0011741
0.00120432
0.00123483
0.00126563
0.00129671
0.00132806
0.00135967
0.00139154
0.00142365
0.00145599
0.00148854
0.00152131
0.00155426
0.00158739
0.00162067
0.0016541
0.00168765
0.0017213
0.00175503
0.00178883
0.00182267
0.00185653
0.00189038
0.00192421
0.00195799
0.00199171
0.00202533
0.00205883
0.0020922
0.00212541
0.00215844
0.00219127
0.00222388
0.00225625
0.00228836
0.00232018
0.00235171
0.00238291
0.00241376
0.00244424
0.00247433
0.002504
0.00253323
0.00256199
0.00259011
0.00261769
0.00264478
0.00267144
0.00269766
0.00272345
0.00274879
0.00277367
0.00279806
0.00282196
0.00284534
0.00286819
0.00289049
0.00291222
0.00293338
0.00295394
0.00297389
0.00299321
0.0030119
0.00302994
0.0030473
0.003064
0.00308
0.0030953
0.0031099
0.00312378
0.00313694
0.00314936
0.00316104
0.00317198
0.00318217
0.0031916
0.00320027
0.00320818
0.00321532
0.00322171
0.00322733
0.00323218
0.00323628
0.00323961
0.00324219
0.00324402
0.0032451
0.00324545
0.00324506
0.00324394
0.00324212
0.00323958
0.00323636
0.00323244
0.00322786
0.00322263
0.00321675
0.00321025
0.00320314
0.00319544
0.00318716
0.00317835
0.003169
0.00315915
0.00314881
0.00313802
0.00312679
0.00311513
0.00310304
0.00309049
0.00307737
0.00306349
0.00304862
0.00303294
0.00301666
0.00299994
0.00298289
0.00296557
0.00294804
0.00293032
0.0029124
0.00289419
0.00287543
0.00285542
0.00283227
0.00280153
4.77709e-06
6.65472e-05
0.000141134
0.00020086
0.0002466
0.000281814
0.000309595
0.000332352
0.000351852
0.000369334
0.000385621
0.00040123
0.000416466
0.000431493
0.000446391
0.000461192
0.000475906
0.000490536
0.000505085
0.000519564
0.000533993
0.0005484
0.000562827
0.000577326
0.000591962
0.000606814
0.000621977
0.000637562
0.000653695
0.000670512
0.000688148
0.000706731
0.000726361
0.000747104
0.000768985
0.000791992
0.000816095
0.000841251
0.000867399
0.000894468
0.000922371
0.000951019
0.000980337
0.00101026
0.00104071
0.00107163
0.00110297
0.00113472
0.00116685
0.00119936
0.00123223
0.00126545
0.00129902
0.00133293
0.00136716
0.00140172
0.0014366
0.00147178
0.00150725
0.00154301
0.00157905
0.00161535
0.00165189
0.00168867
0.00172568
0.00176289
0.00180028
0.00183785
0.00187556
0.00191341
0.00195136
0.00198941
0.00202752
0.00206566
0.00210383
0.00214199
0.00218012
0.00221819
0.00225618
0.00229406
0.00233181
0.00236941
0.00240682
0.00244403
0.00248101
0.00251774
0.0025542
0.00259037
0.00262622
0.00266173
0.00269689
0.00273167
0.00276605
0.00280002
0.00283355
0.00286662
0.0028992
0.00293126
0.00296269
0.00299358
0.00302398
0.00305391
0.00308337
0.00311235
0.00314085
0.00316883
0.0031963
0.00322322
0.00324958
0.00327537
0.00330056
0.00332513
0.00334908
0.00337237
0.00339501
0.00341696
0.00343823
0.00345878
0.00347861
0.00349769
0.00351603
0.00353361
0.00355041
0.00356643
0.00358166
0.00359609
0.00360971
0.00362252
0.0036345
0.00364565
0.00365596
0.00366544
0.00367409
0.00368189
0.00368885
0.00369498
0.00370025
0.00370469
0.0037083
0.00371107
0.00371302
0.00371415
0.00371447
0.00371397
0.00371269
0.00371061
0.00370776
0.00370414
0.00369978
0.00369468
0.00368886
0.00368232
0.00367512
0.00366723
0.00365869
0.00364953
0.00363976
0.00362942
0.00361851
0.00360707
0.00359512
0.00358268
0.00356973
0.00355628
0.00354227
0.00352757
0.0035121
0.00349591
0.00347914
0.0034619
0.00344429
0.0034264
0.00340826
0.00338994
0.00337143
0.00335269
0.00333347
0.00331322
0.00329043
0.00326226
5.58076e-06
7.2561e-05
0.000153573
0.000219351
0.000270321
0.000309895
0.000341229
0.000366827
0.000388572
0.000407825
0.000425528
0.000442308
0.000458563
0.000474536
0.000490368
0.000506138
0.000521894
0.000537669
0.000553492
0.000569397
0.000585424
0.000601621
0.000618047
0.000634767
0.000651859
0.000669405
0.000687498
0.000706234
0.000725715
0.000746037
0.000767293
0.000789556
0.00081288
0.00083729
0.000862786
0.000889343
0.00091692
0.000945467
0.000974924
0.00100523
0.00103631
0.0010681
0.00110053
0.00113354
0.00116707
0.00120109
0.00123555
0.00127043
0.00130571
0.00134137
0.00137741
0.00141381
0.00145057
0.00148768
0.00152512
0.00156289
0.00160098
0.00163938
0.00167808
0.00171706
0.00175632
0.00179583
0.0018356
0.00187559
0.00191579
0.00195619
0.00199677
0.00203751
0.00207838
0.00211937
0.00216046
0.00220161
0.00224281
0.00228404
0.00232526
0.00236645
0.00240759
0.00244865
0.0024896
0.00253041
0.00257106
0.00261153
0.00265179
0.0026918
0.00273156
0.00277103
0.00281019
0.00284903
0.00288751
0.00292562
0.00296335
0.00300066
0.00303755
0.003074
0.00310998
0.00314548
0.00318049
0.0032149
0.00324873
0.00328204
0.00331487
0.00334721
0.00337907
0.00341044
0.0034413
0.00347163
0.00350142
0.00353065
0.00355931
0.00358736
0.00361479
0.00364158
0.00366772
0.00369319
0.00371796
0.00374203
0.00376538
0.00378798
0.00380982
0.0038309
0.00385118
0.00387067
0.00388935
0.0039072
0.00392422
0.0039404
0.00395573
0.00397021
0.00398381
0.00399654
0.00400838
0.00401935
0.00402942
0.00403861
0.00404691
0.00405432
0.00406083
0.00406645
0.00407118
0.00407503
0.00407801
0.0040801
0.00408132
0.00408168
0.0040812
0.00407987
0.00407771
0.00407471
0.00407092
0.00406634
0.00406097
0.00405483
0.00404795
0.00404033
0.00403202
0.00402301
0.00401335
0.00400305
0.00399213
0.00398062
0.00396854
0.00395591
0.00394274
0.00392902
0.00391472
0.00389981
0.00388423
0.00386801
0.00385123
0.00383399
0.00381636
0.00379842
0.00378025
0.00376189
0.0037434
0.00372473
0.00370575
0.003686
0.00366437
0.00363902
6.26091e-06
7.73943e-05
0.000163608
0.000234473
0.00028998
0.000333438
0.000368009
0.000396255
0.000420136
0.000441103
0.000460195
0.000478131
0.000495395
0.0005123
0.000529047
0.000545763
0.000562533
0.000579417
0.000596468
0.000613735
0.000631273
0.00064914
0.0006674
0.000686123
0.000705383
0.000725257
0.000745824
0.000767161
0.000789344
0.00081244
0.000836504
0.00086158
0.000887689
0.000914837
0.000943008
0.000972172
0.00100229
0.0010333
0.00106516
0.00109781
0.00113119
0.00116524
0.00119991
0.00123514
0.00127089
0.00130712
0.0013438
0.0013809
0.00141841
0.00145631
0.00149458
0.00153322
0.00157222
0.00161155
0.00165123
0.00169123
0.00173154
0.00177215
0.00181306
0.00185425
0.0018957
0.0019374
0.00197934
0.0020215
0.00206386
0.00210641
0.00214913
0.002192
0.00223499
0.0022781
0.00232128
0.00236453
0.00240782
0.00245111
0.0024944
0.00253764
0.00258083
0.00262392
0.00266689
0.00270971
0.00275236
0.00279481
0.00283703
0.002879
0.00292069
0.00296208
0.00300314
0.00304385
0.0030842
0.00312415
0.00316371
0.00320284
0.00324153
0.00327976
0.00331752
0.0033548
0.00339156
0.00342774
0.00346339
0.00349855
0.00353323
0.00356744
0.00360117
0.00363441
0.00366714
0.00369934
0.003731
0.00376209
0.0037926
0.0038225
0.00385177
0.00388041
0.00390837
0.00393565
0.00396223
0.0039881
0.00401322
0.00403758
0.00406118
0.00408398
0.00410597
0.00412715
0.00414749
0.00416698
0.00418562
0.0042034
0.0042203
0.00423632
0.00425144
0.00426565
0.00427895
0.00429134
0.00430281
0.00431336
0.00432299
0.0043317
0.00433948
0.00434632
0.00435224
0.00435725
0.00436135
0.00436453
0.0043668
0.00436816
0.00436864
0.00436826
0.00436697
0.00436482
0.00436182
0.00435799
0.00435333
0.00434787
0.00434162
0.0043346
0.00432683
0.00431833
0.00430912
0.00429924
0.00428869
0.0042775
0.0042657
0.0042533
0.00424032
0.00422676
0.00421262
0.00419788
0.00418254
0.0041666
0.00415013
0.0041332
0.00411587
0.00409824
0.00408037
0.00406235
0.00404422
0.00402601
0.00400764
0.00398877
0.00396859
0.00394585
6.81386e-06
8.11433e-05
0.000171454
0.000246533
0.000305942
0.000352838
0.00039035
0.000421056
0.000446963
0.000469587
0.00049004
0.000509119
0.000527377
0.000545194
0.000562825
0.000580441
0.00059816
0.000616069
0.000634239
0.000652733
0.000671611
0.000690937
0.000710774
0.000731188
0.000752244
0.000774009
0.000796546
0.000819914
0.000844166
0.000869345
0.000895485
0.000922606
0.000950714
0.000979799
0.00100984
0.00104081
0.00107266
0.00110535
0.00113882
0.00117303
0.00120792
0.00124346
0.00127957
0.00131624
0.0013534
0.00139104
0.00142913
0.00146763
0.00150653
0.00154581
0.00158547
0.00162548
0.00166584
0.00170653
0.00174755
0.00178888
0.00183052
0.00187245
0.00191466
0.00195715
0.00199989
0.00204288
0.00208609
0.00212953
0.00217316
0.00221698
0.00226096
0.00230509
0.00234936
0.00239373
0.00243818
0.00248271
0.00252728
0.00257187
0.00261645
0.002661
0.0027055
0.00274991
0.0027942
0.00283836
0.00288235
0.00292615
0.00296972
0.00301304
0.00305608
0.00309882
0.00314123
0.00318329
0.00322498
0.00326627
0.00330717
0.00334763
0.00338766
0.00342723
0.00346634
0.00350497
0.00354307
0.00358066
0.00361778
0.00365444
0.00369065
0.0037264
0.00376169
0.0037965
0.00383081
0.0038646
0.00389786
0.00393056
0.00396268
0.00399419
0.00402508
0.00405533
0.00408492
0.00411382
0.00414201
0.00416949
0.00419622
0.00422218
0.00424737
0.00427176
0.00429533
0.00431806
0.00433995
0.00436098
0.00438114
0.00440043
0.00441882
0.00443632
0.0044529
0.00446855
0.00448327
0.00449705
0.0045099
0.00452181
0.00453278
0.00454281
0.00455187
0.00455998
0.00456714
0.00457336
0.00457866
0.00458301
0.00458641
0.00458888
0.00459043
0.00459108
0.00459081
0.00458966
0.00458762
0.00458472
0.00458097
0.00457639
0.00457098
0.00456478
0.00455779
0.00455004
0.00454155
0.00453234
0.00452243
0.00451184
0.0045006
0.00448873
0.00447624
0.00446315
0.00444946
0.00443518
0.00442031
0.00440488
0.00438893
0.00437252
0.00435572
0.00433861
0.00432127
0.00430379
0.00428626
0.00426872
0.00425114
0.00423331
0.00421459
0.00419411
7.24071e-06
8.39103e-05
0.000177317
0.000255804
0.000318515
0.00036842
0.000408574
0.000441542
0.000469349
0.000493554
0.000515322
0.00053551
0.000554731
0.000573419
0.000591877
0.000610316
0.000628883
0.000647689
0.00066682
0.000686348
0.000706337
0.000726851
0.000747948
0.000769688
0.000792126
0.000815315
0.000839304
0.000864137
0.000889848
0.000916465
0.000944004
0.000972473
0.00100187
0.00103217
0.00106336
0.0010954
0.00112825
0.00116188
0.00119623
0.00123127
0.00126694
0.00130321
0.00134003
0.00137737
0.00141519
0.00145346
0.00149215
0.00153126
0.00157074
0.0016106
0.00165081
0.00169136
0.00173225
0.00177346
0.00181499
0.00185682
0.00189895
0.00194137
0.00198406
0.00202703
0.00207025
0.00211371
0.00215741
0.00220134
0.00224547
0.0022898
0.00233432
0.002379
0.00242382
0.00246878
0.00251385
0.00255901
0.00260424
0.00264952
0.00269483
0.00274013
0.0027854
0.00283062
0.00287575
0.00292078
0.00296566
0.00301037
0.00305487
0.00309915
0.00314316
0.00318689
0.00323029
0.00327336
0.00331607
0.00335839
0.00340032
0.00344183
0.00348291
0.00352354
0.00356372
0.00360344
0.0036427
0.00368153
0.00371993
0.00375792
0.00379548
0.00383262
0.00386931
0.00390555
0.0039413
0.00397655
0.00401128
0.00404546
0.00407907
0.00411208
0.00414448
0.00417624
0.00420734
0.00423776
0.00426748
0.00429648
0.00432474
0.00435223
0.00437894
0.00440484
0.00442992
0.00445416
0.00447754
0.00450006
0.0045217
0.00454245
0.0045623
0.00458125
0.00459927
0.00461635
0.00463248
0.00464766
0.00466188
0.00467515
0.00468749
0.00469886
0.00470925
0.00471865
0.00472709
0.00473458
0.0047411
0.00474667
0.00475128
0.00475494
0.00475767
0.00475946
0.00476034
0.0047603
0.00475936
0.00475754
0.00475484
0.00475129
0.00474689
0.00474167
0.00473564
0.00472882
0.00472123
0.0047129
0.00470383
0.00469406
0.0046836
0.00467247
0.0046607
0.0046483
0.00463529
0.00462167
0.00460747
0.00459272
0.00457745
0.00456172
0.0045456
0.00452916
0.00451251
0.00449572
0.00447892
0.00446216
0.00444547
0.0044287
0.00441136
0.00439278
7.54722e-06
8.58015e-05
0.000181403
0.000262546
0.000327986
0.000380474
0.000422962
0.000457972
0.000487527
0.000513205
0.000536209
0.00055744
0.000577558
0.000597044
0.000616238
0.000635385
0.000654661
0.000674193
0.00069408
0.000714401
0.000735223
0.000756606
0.000778602
0.000801264
0.000824637
0.000848762
0.000873674
0.000899405
0.000925976
0.000953401
0.000981689
0.00101083
0.00104083
0.00107165
0.00110328
0.00113569
0.00116883
0.00120267
0.00123717
0.00127229
0.001308
0.00134425
0.00138101
0.00141824
0.00145593
0.00149404
0.00153255
0.00157144
0.00161069
0.0016503
0.00169025
0.00173052
0.00177112
0.00181204
0.00185326
0.00189479
0.00193662
0.00197874
0.00202115
0.00206384
0.00210681
0.00215004
0.00219354
0.00223728
0.00228127
0.00232549
0.00236993
0.00241458
0.00245942
0.00250444
0.00254962
0.00259495
0.00264039
0.00268594
0.00273156
0.00277724
0.00282293
0.00286863
0.00291429
0.00295988
0.00300538
0.00305075
0.00309595
0.00314096
0.00318573
0.00323024
0.00327445
0.00331835
0.0033619
0.00340508
0.00344788
0.00349027
0.00353225
0.0035738
0.00361491
0.00365566
0.00369604
0.00373605
0.00377569
0.00381494
0.00385381
0.00389229
0.00393034
0.00396796
0.00400511
0.00404178
0.00407794
0.00411356
0.00414862
0.0041831
0.00421697
0.00425021
0.00428279
0.0043147
0.00434591
0.0043764
0.00440615
0.00443515
0.00446336
0.00449076
0.00451732
0.00454304
0.0045679
0.00459189
0.004615
0.00463721
0.00465852
0.00467893
0.0046984
0.00471691
0.00473446
0.00475104
0.00476666
0.00478132
0.00479502
0.00480774
0.00481948
0.00483023
0.00484001
0.00484881
0.00485664
0.0048635
0.0048694
0.00487434
0.00487833
0.00488138
0.00488349
0.00488468
0.00488495
0.00488432
0.00488281
0.00488042
0.00487717
0.00487308
0.00486816
0.00486242
0.0048559
0.0048486
0.00484055
0.00483176
0.00482226
0.00481206
0.0048012
0.00478967
0.00477751
0.00476474
0.00475137
0.00473744
0.00472299
0.00470808
0.00469276
0.00467712
0.00466126
0.00464528
0.00462929
0.00461339
0.00459762
0.00458188
0.00456579
0.00454881
7.74325e-06
8.69272e-05
0.000183918
0.000267022
0.000334636
0.000389278
0.000433769
0.000470568
0.000501676
0.000528676
0.000552791
0.000574952
0.000595856
0.000616016
0.000635808
0.000655502
0.000675294
0.00069533
0.000715715
0.000736535
0.000757856
0.000779735
0.00080222
0.000825352
0.000849169
0.000873701
0.000898974
0.000925007
0.000951812
0.000979395
0.00100775
0.00103688
0.00106677
0.00109739
0.00112872
0.00116073
0.0011934
0.00122667
0.00126054
0.00129495
0.00132987
0.00136529
0.00140116
0.00143746
0.00147417
0.00151126
0.00154873
0.00158656
0.00162473
0.00166324
0.00170208