/*--------------------------------*- C++ -*----------------------------------*\
  =========                 |
  \\      /  F ield         | OpenFOAM: The Open Source CFD Toolbox
   \\    /   O peration     | Website:  https://openfoam.org
    \\  /    A nd           | Version:  12
     \\/     M anipulation  |
\*---------------------------------------------------------------------------*/
FoamFile
{
    format      ascii;
    class       volScalarField;
    location    "0.23";
    object      p;
}
// * * * * * * * * * * * * * * * * * * * * * * * * * * * * * * * * * * * * * //

dimensions      [0 2 -2 0 0 0 0];

internalField   nonuniform List<scalar> 
12225
(
-1.11573
-3.39874
-4.56126
-4.86952
-5.03789
-5.19774
-5.32249
-5.41109
-5.48093
-5.5422
-5.59672
-5.64432
-5.6853
-5.71901
-5.74433
-5.75099
-5.74866
-5.64162
-4.58323
-5.28535
-5.37563
-5.24066
-5.2007
-5.26813
-5.34905
-5.41511
-5.47236
-5.52603
-5.57592
-5.62088
-5.66062
-5.69427
-5.72143
-5.73509
-5.74806
-5.73338
-4.78797
-4.68503
-4.84186
-4.96407
-5.07156
-5.19402
-5.30249
-5.38537
-5.45283
-5.51297
-5.56748
-5.61611
-5.65905
-5.69601
-5.72746
-5.75029
-5.77875
-5.81172
-4.65068
-4.57257
-4.84869
-5.0275
-5.12207
-5.21936
-5.31466
-5.39244
-5.4573
-5.51582
-5.56947
-5.6179
-5.66126
-5.6997
-5.73424
-5.76495
-5.80351
-5.85617
-4.65764
-4.67492
-4.91505
-5.06504
-5.1412
-5.22607
-5.31587
-5.39217
-5.45641
-5.51446
-5.56799
-5.61682
-5.66121
-5.70172
-5.73982
-5.77723
-5.82253
-5.88246
-4.71932
-4.7618
-4.93964
-5.07046
-5.14858
-5.23127
-5.31778
-5.39286
-5.45676
-5.51457
-5.56813
-5.61746
-5.66295
-5.70546
-5.74668
-5.78891
-5.83822
-5.90001
-4.77906
-4.8186
-4.95505
-5.07735
-5.15986
-5.23974
-5.32162
-5.39471
-5.45806
-5.51558
-5.5691
-5.61888
-5.66539
-5.70966
-5.75337
-5.7988
-5.85014
-5.9109
-4.8322
-4.86711
-4.97746
-5.09018
-5.17285
-5.24891
-5.32606
-5.39698
-5.45966
-5.51683
-5.57028
-5.62044
-5.66786
-5.71357
-5.75912
-5.80645
-5.85832
-5.91661
-4.88198
-4.91373
-5.00456
-5.10545
-5.18564
-5.25826
-5.3312
-5.39979
-5.46158
-5.5183
-5.57159
-5.62201
-5.67013
-5.71689
-5.76361
-5.81178
-5.86313
-5.91842
-4.92932
-4.95796
-5.03318
-5.12216
-5.19866
-5.26819
-5.3373
-5.40333
-5.46395
-5.52007
-5.57306
-5.62356
-5.6721
-5.71947
-5.76673
-5.81495
-5.86511
-5.91733
-4.97408
-4.99937
-5.06221
-5.14035
-5.21234
-5.27876
-5.34427
-5.40762
-5.46682
-5.52217
-5.57471
-5.62507
-5.67372
-5.72129
-5.76855
-5.81622
-5.86482
-5.91411
-5.01257
-5.03492
-5.08879
-5.15812
-5.22548
-5.28889
-5.35131
-5.41219
-5.46991
-5.52439
-5.57637
-5.62639
-5.67485
-5.72225
-5.76914
-5.81595
-5.86296
-5.90979
-5.04825
-5.06806
-5.11462
-5.1762
-5.23886
-5.29919
-5.35871
-5.41717
-5.47331
-5.5268
-5.57808
-5.62759
-5.67567
-5.72265
-5.7689
-5.81466
-5.86005
-5.90465
-5.08575
-5.10306
-5.14288
-5.19692
-5.25433
-5.31111
-5.36749
-5.42329
-5.47753
-5.52973
-5.58006
-5.6288
-5.67618
-5.7224
-5.76767
-5.81209
-5.85563
-5.89795
-5.12383
-5.13874
-5.17261
-5.21966
-5.27162
-5.32446
-5.37753
-5.43047
-5.48253
-5.53312
-5.58219
-5.62983
-5.67617
-5.72129
-5.76524
-5.80804
-5.84961
-5.88968
-5.16055
-5.1733
-5.20218
-5.24313
-5.28982
-5.3386
-5.38829
-5.43833
-5.48799
-5.53671
-5.58421
-5.63045
-5.67541
-5.71909
-5.76145
-5.80245
-5.842
-5.87991
-5.19303
-5.20403
-5.22902
-5.26505
-5.30717
-5.35218
-5.39868
-5.44593
-5.49319
-5.53988
-5.58561
-5.63021
-5.67355
-5.71557
-5.75618
-5.79531
-5.83289
-5.86879
-5.21689
-5.22669
-5.24908
-5.28176
-5.3206
-5.36274
-5.40671
-5.45166
-5.49686
-5.54167
-5.58567
-5.62859
-5.67028
-5.71061
-5.74948
-5.78682
-5.82258
-5.85668
-5.2252
-5.23455
-5.25601
-5.28753
-5.3252
-5.36618
-5.40898
-5.45273
-5.49671
-5.5403
-5.58303
-5.62464
-5.66494
-5.70383
-5.74122
-5.77705
-5.81131
-5.84397
-5.21014
-5.22019
-5.24317
-5.27678
-5.31655
-5.35912
-5.40295
-5.44737
-5.49174
-5.53544
-5.57802
-5.61925
-5.65902
-5.69725
-5.73388
-5.76888
-5.80227
-5.83407
-5.18388
-5.19507
-5.22084
-5.25854
-5.30226
-5.34779
-5.39379
-5.43994
-5.48562
-5.53014
-5.57314
-5.61454
-5.65429
-5.69233
-5.72867
-5.7633
-5.79626
-5.82763
-5.14889
-5.16126
-5.19128
-5.23572
-5.28518
-5.33427
-5.38295
-5.43159
-5.47924
-5.52502
-5.56875
-5.61057
-5.65052
-5.68859
-5.72482
-5.75926
-5.79198
-5.82308
-5.10824
-5.12083
-5.15618
-5.21073
-5.26782
-5.32077
-5.37229
-5.42362
-5.47332
-5.52043
-5.56503
-5.60743
-5.64772
-5.68593
-5.72216
-5.75652
-5.78912
-5.82006
-5.06437
-5.07593
-5.11829
-5.18487
-5.24952
-5.30711
-5.36295
-5.41756
-5.469
-5.51699
-5.56225
-5.60515
-5.64571
-5.68402
-5.72023
-5.75451
-5.78699
-5.8178
-5.0175
-5.02525
-5.08626
-5.16601
-5.23109
-5.2907
-5.35253
-5.41203
-5.46571
-5.51467
-5.56061
-5.60399
-5.64478
-5.68312
-5.71926
-5.75344
-5.78581
-5.81655
-4.96953
-4.94587
-5.05664
-5.16553
-5.22605
-5.28008
-5.34343
-5.4057
-5.46089
-5.51079
-5.55755
-5.60152
-5.64264
-5.68112
-5.71732
-5.75149
-5.78384
-5.81452
-4.96022
-4.81587
-4.97487
-5.14102
-5.22545
-5.2864
-5.3511
-5.41216
-5.46579
-5.51481
-5.56109
-5.60462
-5.64528
-5.68332
-5.7191
-5.75288
-5.78492
-5.81539
-5.10562
-4.8218
-4.85651
-4.9869
-5.10641
-5.21333
-5.30728
-5.38293
-5.44505
-5.50015
-5.55074
-5.59716
-5.63978
-5.6792
-5.71593
-5.75038
-5.78306
-5.81458
-5.04241
-5.54209
-5.55217
-5.39285
-5.31179
-5.33591
-5.38994
-5.43923
-5.4842
-5.52861
-5.57208
-5.61334
-5.65202
-5.68832
-5.72243
-5.75446
-5.78468
-5.81493
-1.70373
-3.57428
-4.64551
-4.9385
-5.07326
-5.20991
-5.32171
-5.40158
-5.4644
-5.52026
-5.5714
-5.61789
-5.6603
-5.69938
-5.73554
-5.76879
-5.7988
-5.82379
-6.71982
-6.7198
-6.72014
-6.7208
-6.72167
-6.72272
-6.72396
-6.7254
-6.72707
-6.72898
-6.73117
-6.73365
-6.73647
-6.73966
-6.74327
-6.74732
-6.75186
-6.75692
-6.76254
-6.76876
-6.77561
-6.78315
-6.7914
-6.80041
-6.81023
-6.8209
-6.83245
-6.84495
-6.85842
-6.87293
-6.88858
-6.90539
-6.92334
-6.94264
-6.96388
-6.98675
-7.0098
-7.03561
-7.06209
-7.07568
-7.10246
-7.14786
-7.16908
-7.18094
-7.2055
-7.23295
-7.26105
-7.29033
-7.32038
-7.35105
-7.3822
-7.41369
-7.44539
-7.4772
-7.50901
-7.5407
-7.57217
-7.60329
-7.63396
-7.66404
-7.69342
-7.72196
-7.74953
-7.77598
-7.80117
-7.82494
-7.84713
-7.86759
-7.88615
-7.90263
-7.91685
-7.92864
-7.93782
-7.94419
-7.94757
-7.94778
-7.94462
-7.9379
-7.92743
-7.91303
-7.89451
-7.87167
-7.84435
-7.81236
-7.77553
-7.73368
-7.68666
-7.63429
-7.57642
-7.51291
-7.44361
-7.36838
-7.2871
-7.19966
-7.10594
-7.00585
-6.89935
-6.78648
-6.66718
-6.54125
-6.40847
-6.26859
-6.12179
-5.96811
-5.8076
-5.64027
-5.46615
-5.28528
-5.09772
-4.90355
-4.70285
-4.49574
-4.28232
-4.06274
-3.83716
-3.60572
-3.36863
-3.12607
-2.87826
-2.62541
-2.36777
-2.10557
-1.83908
-1.56857
-1.29431
-1.01659
-0.7357
-0.451947
-0.165635
0.122927
0.413423
0.705537
0.998948
1.29334
1.58839
1.88379
2.17922
2.47437
2.76894
3.06263
3.35514
3.64619
3.93551
4.22282
4.50787
4.79041
5.0702
5.34703
5.62067
5.89093
6.15761
6.42055
6.67958
6.93454
7.1853
7.43173
7.67371
7.91115
8.14394
8.37201
8.59529
8.81371
9.02724
9.23585
9.43951
9.63817
9.83168
10.0199
10.2028
10.3804
10.5528
10.7199
10.8817
11.0383
11.1898
11.3365
11.4793
11.6195
11.7663
11.9202
-6.71866
-6.7189
-6.71931
-6.71987
-6.72042
-6.72096
-6.72158
-6.72239
-6.72346
-6.72482
-6.72651
-6.72854
-6.73093
-6.73371
-6.7369
-6.74053
-6.74464
-6.74924
-6.75438
-6.76009
-6.76641
-6.77337
-6.78101
-6.78937
-6.79847
-6.80834
-6.819
-6.83048
-6.8428
-6.85595
-6.8699
-6.88461
-6.90019
-6.91678
-6.9339
-6.95101
-6.96983
-6.98932
-7.00643
-7.03748
-7.06616
-7.07528
-7.09985
-7.14176
-7.17722
-7.20771
-7.238
-7.26844
-7.29914
-7.33013
-7.3614
-7.39289
-7.42453
-7.45624
-7.48793
-7.5195
-7.55084
-7.58186
-7.61243
-7.64244
-7.67178
-7.7003
-7.72788
-7.75437
-7.77964
-7.80352
-7.82587
-7.84651
-7.86529
-7.88204
-7.89657
-7.90871
-7.91827
-7.92508
-7.92894
-7.92967
-7.92707
-7.92096
-7.91115
-7.89745
-7.87967
-7.85764
-7.83115
-7.80005
-7.76415
-7.72329
-7.67729
-7.626
-7.56927
-7.50695
-7.4389
-7.36498
-7.28506
-7.19904
-7.10679
-7.00821
-6.90319
-6.79161
-6.67335
-6.54817
-6.41612
-6.27753
-6.13223
-5.98015
-5.82126
-5.65557
-5.48311
-5.30391
-5.11802
-4.92552
-4.72649
-4.52103
-4.30926
-4.09132
-3.86735
-3.63751
-3.40199
-3.16098
-2.91467
-2.66331
-2.4071
-2.14631
-1.88118
-1.61198
-1.33898
-1.06248
-0.78275
-0.500104
-0.214842
0.0727287
0.362293
0.653537
0.946141
1.23979
1.53416
1.82895
2.12383
2.41849
2.71264
3.00597
3.29819
3.58901
3.87816
4.16536
4.45036
4.73291
5.01277
5.28971
5.56352
5.834
6.10095
6.3642
6.62357
6.87892
7.1301
7.37699
7.61945
7.8574
8.09073
8.31936
8.54322
8.76224
8.97639
9.18563
9.38992
9.58921
9.78335
9.97221
10.1558
10.3341
10.5072
10.675
10.8376
10.9951
11.1476
11.2956
11.4403
11.5826
11.7328
11.8807
-6.71534
-6.71632
-6.71735
-6.71827
-6.71895
-6.71946
-6.71996
-6.72061
-6.72149
-6.72265
-6.72413
-6.72596
-6.72816
-6.73075
-6.73377
-6.73724
-6.74119
-6.74565
-6.75065
-6.75623
-6.76241
-6.76925
-6.77676
-6.78497
-6.79393
-6.80366
-6.81418
-6.82553
-6.83773
-6.85084
-6.86488
-6.87987
-6.89592
-6.91315
-6.93137
-6.95018
-6.96993
-6.99086
-7.01222
-7.03657
-7.06232
-7.0841
-7.10779
-7.13643
-7.16583
-7.19499
-7.22455
-7.25448
-7.28475
-7.3153
-7.3461
-7.3771
-7.40824
-7.43943
-7.47061
-7.50167
-7.53252
-7.56307
-7.5932
-7.6228
-7.65175
-7.67993
-7.7072
-7.73343
-7.75847
-7.78217
-7.80438
-7.82495
-7.84369
-7.86045
-7.87505
-7.88731
-7.89705
-7.90409
-7.90825
-7.90932
-7.90714
-7.9015
-7.89222
-7.87911
-7.86199
-7.84066
-7.81496
-7.78469
-7.7497
-7.70979
-7.66482
-7.61462
-7.55903
-7.49791
-7.43111
-7.35851
-7.27996
-7.19534
-7.10455
-7.00747
-6.90399
-6.79397
-6.67728
-6.55398
-6.42389
-6.28713
-6.14365
-5.99341
-5.8364
-5.67262
-5.50207
-5.3248
-5.14086
-4.9503
-4.75322
-4.54971
-4.33988
-4.12387
-3.90182
-3.67388
-3.44023
-3.20107
-2.95659
-2.707
-2.45255
-2.19346
-1.92999
-1.6624
-1.39097
-1.11597
-0.837695
-0.556437
-0.2725
0.0138097
0.302182
0.592302
0.883854
1.17652
1.46999
1.76394
2.05807
2.35206
2.6456
2.93841
3.23017
3.52062
3.80947
4.09644
4.38129
4.66375
4.94359
5.22059
5.49451
5.76516
6.03235
6.29588
6.5556
6.81134
7.06296
7.31032
7.55331
7.79181
8.02573
8.25498
8.47947
8.69914
8.91394
9.12382
9.32873
9.52861
9.72341
9.91305
10.0975
10.2767
10.4506
10.6193
10.7829
10.9414
11.0952
11.2446
11.3912
11.5352
11.6881
11.8258
-6.71026
-6.71194
-6.71394
-6.71564
-6.71683
-6.71769
-6.71844
-6.71924
-6.7202
-6.72139
-6.72286
-6.72467
-6.72684
-6.7294
-6.73239
-6.73582
-6.73973
-6.74414
-6.7491
-6.75462
-6.76076
-6.76752
-6.77496
-6.7831
-6.79196
-6.80159
-6.81199
-6.82321
-6.83528
-6.84823
-6.8621
-6.87693
-6.89276
-6.90963
-6.92753
-6.94635
-6.96615
-6.98705
-7.0091
-7.03236
-7.05656
-7.08109
-7.10656
-7.13342
-7.16115
-7.18947
-7.21835
-7.24768
-7.2774
-7.30746
-7.33778
-7.36832
-7.399
-7.42976
-7.46051
-7.49117
-7.52164
-7.55183
-7.58164
-7.61094
-7.63963
-7.66757
-7.69465
-7.72071
-7.74563
-7.76925
-7.79142
-7.81197
-7.83075
-7.84759
-7.86231
-7.87473
-7.88468
-7.89197
-7.89642
-7.89783
-7.89603
-7.89082
-7.88201
-7.86941
-7.85285
-7.83213
-7.80708
-7.77751
-7.74325
-7.70413
-7.65998
-7.61065
-7.55598
-7.49581
-7.43
-7.35842
-7.28093
-7.19741
-7.10773
-7.01178
-6.90946
-6.80064
-6.68522
-6.56321
-6.43454
-6.29921
-6.15716
-6.00837
-5.85282
-5.69051
-5.52145
-5.34568
-5.16324
-4.9742
-4.77863
-4.57663
-4.3683
-4.15379
-3.93322
-3.70675
-3.47456
-3.23683
-2.99377
-2.74557
-2.49247
-2.23471
-1.97254
-1.70621
-1.436
-1.16218
-0.885035
-0.604867
-0.321972
-0.0366542
0.250777
0.540009
0.830728
1.12262
1.41536
1.70865
2.00217
2.29561
2.58867
2.88104
3.17244
3.46257
3.75117
4.03794
4.32265
4.60503
4.88484
5.16185
5.43585
5.70662
5.97398
6.23772
6.4977
6.75373
7.00569
7.25342
7.49681
7.73574
7.97011
8.19983
8.42482
8.64502
8.86036
9.07078
9.27621
9.47657
9.67184
9.862
10.047
10.2268
10.4013
10.5707
10.735
10.8943
11.0489
11.1992
11.3467
11.4908
11.6426
11.7681
-6.70457
-6.70704
-6.71013
-6.71275
-6.71463
-6.71601
-6.71718
-6.7183
-6.71951
-6.72089
-6.72253
-6.72448
-6.72676
-6.72943
-6.73252
-6.73604
-6.74004
-6.74455
-6.74959
-6.7552
-6.76141
-6.76826
-6.77577
-6.78399
-6.79294
-6.80265
-6.81315
-6.82448
-6.83667
-6.84974
-6.86374
-6.87869
-6.89463
-6.91157
-6.92949
-6.9484
-6.96832
-6.98928
-7.01126
-7.03425
-7.05807
-7.08264
-7.10816
-7.13466
-7.16192
-7.18977
-7.21816
-7.24703
-7.2763
-7.30593
-7.33586
-7.36602
-7.39634
-7.42676
-7.45719
-7.48755
-7.51775
-7.54768
-7.57726
-7.60636
-7.63487
-7.66267
-7.68962
-7.7156
-7.74045
-7.76404
-7.78621
-7.80679
-7.82563
-7.84256
-7.8574
-7.86997
-7.8801
-7.8876
-7.89228
-7.89396
-7.89246
-7.88757
-7.87912
-7.86692
-7.85077
-7.8305
-7.80592
-7.77686
-7.74314
-7.70458
-7.66103
-7.61232
-7.55829
-7.4988
-7.4337
-7.36284
-7.28611
-7.20336
-7.11448
-7.01936
-6.91788
-6.80995
-6.69549
-6.57444
-6.44677
-6.31242
-6.17137
-6.02358
-5.86904
-5.70775
-5.53971
-5.36496
-5.18355
-4.99553
-4.80099
-4.60001
-4.39271
-4.17921
-3.95964
-3.73418
-3.50297
-3.26622
-3.02411
-2.77685
-2.52468
-2.26782
-2.00652
-1.74105
-1.47167
-1.19865
-0.922283
-0.64286
-0.360677
-0.0760393
0.210746
0.499367
0.789511
1.08086
1.37311
1.66593
1.95903
2.25209
2.5448
2.83687
3.128
3.41791
3.70632
3.99295
4.27754
4.55985
4.83963
5.11665
5.39069
5.66154
5.929
6.19288
6.45303
6.70926
6.96144
7.20943
7.45309
7.69231
7.92701
8.15707
8.38243
8.60299
8.8187
9.02949
9.23526
9.43594
9.6315
9.82196
10.0073
10.1874
10.3623
10.5321
10.6968
10.8565
11.0115
11.1622
11.3096
11.4526
11.6016
11.7155
-6.69939
-6.70258
-6.70667
-6.7102
-6.71281
-6.71479
-6.71645
-6.71799
-6.71956
-6.72126
-6.72318
-6.72538
-6.7279
-6.7308
-6.73409
-6.73783
-6.74203
-6.74674
-6.75199
-6.7578
-6.76423
-6.77128
-6.77902
-6.78746
-6.79663
-6.80658
-6.81734
-6.82892
-6.84137
-6.85472
-6.86899
-6.8842
-6.90037
-6.91752
-6.93563
-6.95471
-6.97474
-6.99574
-7.01766
-7.04049
-7.06414
-7.08858
-7.11383
-7.1399
-7.16669
-7.1941
-7.22208
-7.25055
-7.27946
-7.30875
-7.33835
-7.36822
-7.39826
-7.42843
-7.45862
-7.48877
-7.51878
-7.54855
-7.57798
-7.60697
-7.63538
-7.66311
-7.69001
-7.71597
-7.74082
-7.76443
-7.78664
-7.80729
-7.82621
-7.84324
-7.85821
-7.87093
-7.88122
-7.8889
-7.89379
-7.8957
-7.89443
-7.88981
-7.88164
-7.86972
-7.85389
-7.83395
-7.80972
-7.78102
-7.74767
-7.70952
-7.66638
-7.61811
-7.56453
-7.50551
-7.4409
-7.37056
-7.29435
-7.21214
-7.12383
-7.02928
-6.92841
-6.82111
-6.70732
-6.58695
-6.45995
-6.32629
-6.18591
-6.0388
-5.88493
-5.72431
-5.55695
-5.38288
-5.20214
-5.0148
-4.82093
-4.62063
-4.414
-4.20117
-3.98227
-3.75746
-3.52691
-3.2908
-3.04933
-2.8027
-2.55114
-2.29488
-2.03418
-1.76928
-1.50046
-1.22798
-0.952145
-0.673229
-0.391535
-0.107365
0.178974
0.46717
0.756911
1.04788
1.33977
1.63227
1.92506
2.21784
2.51029
2.80213
3.09306
3.3828
3.67106
3.95757
4.24207
4.52431
4.80404
5.08104
5.35508
5.62596
5.89348
6.15744
6.41769
6.67404
6.92635
7.1745
7.41834
7.65777
7.89268
8.12297
8.34856
8.56936
8.7853
8.99631
9.2023
9.40319
9.59896
9.78962
9.97514
10.1555
10.3307
10.5007
10.6656
10.8255
10.9807
11.1312
11.2781
11.4194
11.5653
11.6688
-6.69561
-6.69936
-6.70426
-6.70858
-6.71185
-6.7144
-6.71657
-6.71857
-6.72054
-6.72261
-6.72487
-6.72738
-6.73021
-6.73339
-6.73698
-6.74099
-6.74548
-6.75047
-6.756
-6.7621
-6.76881
-6.77615
-6.78418
-6.79291
-6.80239
-6.81264
-6.8237
-6.83558
-6.84833
-6.86196
-6.87649
-6.89195
-6.90833
-6.92565
-6.9439
-6.96307
-6.98316
-7.00415
-7.02602
-7.04873
-7.07226
-7.09656
-7.12162
-7.14742
-7.1739
-7.20101
-7.22868
-7.25687
-7.28551
-7.31456
-7.34394
-7.3736
-7.40347
-7.43348
-7.46354
-7.49357
-7.52348
-7.55318
-7.58256
-7.6115
-7.6399
-7.66763
-7.69456
-7.72055
-7.74546
-7.76914
-7.79143
-7.81218
-7.83121
-7.84837
-7.86347
-7.87633
-7.88678
-7.89463
-7.8997
-7.90178
-7.90071
-7.89628
-7.88832
-7.87662
-7.861
-7.84129
-7.8173
-7.78884
-7.75576
-7.71786
-7.675
-7.62701
-7.57373
-7.51501
-7.45072
-7.3807
-7.30483
-7.22299
-7.13504
-7.04088
-6.94041
-6.83353
-6.72016
-6.60022
-6.47365
-6.34041
-6.20046
-6.05376
-5.90031
-5.74011
-5.57316
-5.39951
-5.21919
-5.03227
-4.83882
-4.63893
-4.43272
-4.22031
-4.00183
-3.77743
-3.5473
-3.3116
-3.07053
-2.82431
-2.57315
-2.31728
-2.05697
-1.79245
-1.524
-1.2519
-0.976418
-0.697851
-0.416495
-0.132652
0.15337
0.441262
0.730711
1.0214
1.31303
1.60528
1.89783
2.19039
2.48265
2.7743
3.06506
3.35464
3.64276
3.92915
4.21355
4.49571
4.77538
5.05233
5.32634
5.59721
5.86472
6.12871
6.38898
6.64539
6.89778
7.14602
7.38996
7.6295
7.86454
8.09496
8.32069
8.54163
8.75772
8.96887
9.175
9.37604
9.57196
9.76276
9.94842
10.1289
10.3042
10.4744
10.6394
10.7994
10.9544
11.1046
11.2506
11.39
11.533
11.6274
-6.69366
-6.69782
-6.70332
-6.70825
-6.71209
-6.71515
-6.71779
-6.72021
-6.72258
-6.72503
-6.72763
-6.73049
-6.73364
-6.73714
-6.74104
-6.74537
-6.75016
-6.75546
-6.7613
-6.76772
-6.77474
-6.7824
-6.79073
-6.79978
-6.80957
-6.82012
-6.83147
-6.84365
-6.85667
-6.87055
-6.88532
-6.90097
-6.91753
-6.93498
-6.95333
-6.97257
-6.99268
-7.01366
-7.03547
-7.05811
-7.08153
-7.10572
-7.13064
-7.15628
-7.18257
-7.20949
-7.23698
-7.265
-7.29349
-7.32239
-7.35166
-7.38122
-7.411
-7.44094
-7.47096
-7.50097
-7.53087
-7.56058
-7.58999
-7.61897
-7.64743
-7.67523
-7.70224
-7.72832
-7.75333
-7.77712
-7.79953
-7.82041
-7.83957
-7.85686
-7.8721
-7.8851
-7.89569
-7.90368
-7.90889
-7.91112
-7.91018
-7.90589
-7.89806
-7.88651
-7.87103
-7.85145
-7.8276
-7.79928
-7.76634
-7.72859
-7.68587
-7.63803
-7.58491
-7.52636
-7.46223
-7.3924
-7.31672
-7.23507
-7.14732
-7.05338
-6.95313
-6.84649
-6.73335
-6.61364
-6.4873
-6.35428
-6.21455
-6.06807
-5.91483
-5.75484
-5.5881
-5.41466
-5.23456
-5.04785
-4.85462
-4.65496
-4.44897
-4.23679
-4.01854
-3.79438
-3.56448
-3.32902
-3.08819
-2.8422
-2.59129
-2.33567
-2.07559
-1.81132
-1.54311
-1.27125
-0.996009
-0.71768
-0.436558
-0.152945
0.132851
0.42052
0.709752
1.00023
1.29165
1.5837
1.87607
2.16844
2.46052
2.75201
3.04262
3.33205
3.62004
3.90631
4.19059
4.47265
4.75222
5.02909
5.30304
5.57385
5.84133
6.10529
6.36555
6.62196
6.87437
7.12262
7.3666
7.60619
7.84128
8.07177
8.29757
8.51859
8.73476
8.94599
9.1522
9.35333
9.54935
9.74025
9.926
10.1066
10.282
10.4522
10.6172
10.7771
10.9319
11.0816
11.2265
11.3638
11.5043
11.5907
-6.69381
-6.69821
-6.7041
-6.70945
-6.71372
-6.71719
-6.72022
-6.72302
-6.72575
-6.72854
-6.73147
-6.73464
-6.7381
-6.7419
-6.7461
-6.75073
-6.75582
-6.76142
-6.76755
-6.77426
-6.78158
-6.78953
-6.79815
-6.80748
-6.81754
-6.82837
-6.83997
-6.85239
-6.86563
-6.87972
-6.89467
-6.91048
-6.92716
-6.94472
-6.96314
-6.98242
-7.00256
-7.02353
-7.04531
-7.0679
-7.09127
-7.11538
-7.14023
-7.16577
-7.19197
-7.2188
-7.24621
-7.27415
-7.30258
-7.33145
-7.36069
-7.39024
-7.42004
-7.45001
-7.48006
-7.51013
-7.54011
-7.5699
-7.5994
-7.6285
-7.65707
-7.68499
-7.71213
-7.73835
-7.7635
-7.78742
-7.80997
-7.83098
-7.85028
-7.8677
-7.88306
-7.89618
-7.90689
-7.91498
-7.92028
-7.9226
-7.92175
-7.91754
-7.90978
-7.89828
-7.88286
-7.86333
-7.83952
-7.81125
-7.77834
-7.74062
-7.69794
-7.65014
-7.59706
-7.53855
-7.47447
-7.40468
-7.32906
-7.24747
-7.1598
-7.06593
-6.96577
-6.85919
-6.74613
-6.62649
-6.50021
-6.36725
-6.22757
-6.08114
-5.92795
-5.76801
-5.60134
-5.42795
-5.24791
-5.06127
-4.86811
-4.66852
-4.46262
-4.25052
-4.03236
-3.80831
-3.57851
-3.34317
-3.10246
-2.8566
-2.60581
-2.35033
-2.0904
-1.82628
-1.55822
-1.28652
-1.01144
-0.733273
-0.452318
-0.168874
0.116751
0.404249
0.693308
0.983617
1.27486
1.56674
1.85894
2.15115
2.44306
2.73439
3.02484
3.31412
3.60196
3.88809
4.17224
4.45416
4.73362
5.01039
5.28424
5.55496
5.82235
6.08624
6.34645
6.60281
6.85517
7.1034
7.34737
7.58695
7.82204
8.05254
8.27835
8.4994
8.71559
8.92685
9.13311
9.33429
9.53037
9.72132
9.90713
10.0877
10.2632
10.4334
10.5983
10.758
10.9125
11.0614
11.2052
11.3405
11.4786
11.5582
-6.69607
-6.70057
-6.70663
-6.71223
-6.71677
-6.72055
-6.72389
-6.72698
-6.73
-6.73307
-6.73627
-6.73971
-6.74343
-6.74749
-6.75194
-6.75681
-6.76215
-6.768
-6.77438
-6.78133
-6.78888
-6.79707
-6.80593
-6.81548
-6.82576
-6.83678
-6.84859
-6.86118
-6.87459
-6.88883
-6.9039
-6.91983
-6.9366
-6.95422
-6.9727
-6.99201
-7.01217
-7.03314
-7.05493
-7.07751
-7.10085
-7.12495
-7.14978
-7.1753
-7.2015
-7.22832
-7.25573
-7.2837
-7.31216
-7.34107
-7.37037
-7.4
-7.42988
-7.45995
-7.49013
-7.52032
-7.55043
-7.58037
-7.61002
-7.63927
-7.668
-7.69608
-7.72337
-7.74974
-7.77504
-7.79911
-7.82179
-7.84293
-7.86234
-7.87987
-7.89532
-7.90852
-7.91929
-7.92744
-7.93278
-7.93513
-7.93429
-7.93008
-7.9223
-7.91078
-7.89533
-7.87577
-7.85191
-7.82358
-7.79061
-7.75284
-7.71009
-7.66222
-7.60907
-7.5505
-7.48636
-7.41652
-7.34085
-7.25921
-7.1715
-7.0776
-6.97738
-6.87075
-6.75762
-6.63792
-6.51157
-6.37854
-6.23879
-6.09229
-5.93903
-5.77902
-5.61228
-5.43884
-5.25875
-5.07206
-4.87887
-4.67926
-4.47333
-4.26123
-4.04308
-3.81903
-3.58927
-3.35395
-3.11329
-2.86749
-2.61676
-2.36136
-2.10151
-1.83748
-1.56953
-1.29793
-1.02297
-0.744937
-0.464116
-0.180814
0.104664
0.392009
0.680912
0.97106
1.26214
1.55385
1.84587
2.1379
2.42964
2.7208
3.01107
3.30018
3.58785
3.87381
4.1578
4.43957
4.71888
4.9955
5.26921
5.5398
5.80707
6.07085
6.33095
6.58721
6.83949
7.08764
7.33154
7.57107
7.80611
8.03657
8.26236
8.48339
8.69957
8.91083
9.11709
9.31829
9.51439
9.70536
9.89118
10.0718
10.2472
10.4173
10.5821
10.7416
10.8956
11.0437
11.1863
11.3196
11.4556
11.5293
-6.70034
-6.70479
-6.71084
-6.71651
-6.7212
-6.72516
-6.72869
-6.73199
-6.73521
-6.73848
-6.74188
-6.7455
-6.7494
-6.75365
-6.75827
-6.76332
-6.76883
-6.77485
-6.7814
-6.78851
-6.79623
-6.80458
-6.81359
-6.82329
-6.83371
-6.84487
-6.8568
-6.86951
-6.88302
-6.89735
-6.91251
-6.9285
-6.94533
-6.963
-6.98152
-7.00087
-7.02105
-7.04205
-7.06385
-7.08646
-7.10983
-7.13397
-7.15883
-7.18441
-7.21065
-7.23754
-7.26504
-7.29309
-7.32166
-7.35069
-7.38012
-7.40989
-7.43992
-7.47015
-7.50049
-7.53086
-7.56115
-7.59126
-7.62108
-7.65051
-7.6794
-7.70764
-7.73509
-7.7616
-7.78703
-7.81122
-7.834
-7.85523
-7.87471
-7.89229
-7.90778
-7.921
-7.93176
-7.93989
-7.9452
-7.94749
-7.94658
-7.94229
-7.93442
-7.92279
-7.90722
-7.88752
-7.86352
-7.83505
-7.80193
-7.764
-7.7211
-7.67308
-7.61978
-7.56105
-7.49677
-7.42678
-7.35097
-7.26921
-7.18137
-7.08732
-6.98695
-6.88016
-6.76686
-6.64698
-6.52047
-6.38727
-6.24735
-6.10069
-5.94728
-5.78712
-5.62024
-5.44666
-5.26645
-5.07965
-4.88636
-4.68666
-4.48066
-4.2685
-4.0503
-3.82622
-3.59643
-3.36112
-3.12046
-2.87468
-2.624
-2.36864
-2.10886
-1.8449
-1.57704
-1.30554
-1.03069
-0.752777
-0.472093
-0.18894
0.0963809
0.383561
0.672292
0.962262
1.25316
1.54467
1.8365
2.12833
2.41987
2.71082
3.00089
3.28979
3.57725
3.86301
4.1468
4.42837
4.70748
4.98391
5.25743
5.52785
5.79495
6.05856
6.31851
6.57463
6.82678
7.07481
7.3186
7.55803
7.79298
8.02336
8.24908
8.47005
8.68618
8.8974
9.10364
9.30482
9.50092
9.69189
9.87769
10.0583
10.2336
10.4036
10.5682
10.7274
10.8808
11.0281
11.1695
11.3009
11.4348
11.5037
-6.70637
-6.71068
-6.71656
-6.72215
-6.72684
-6.73086
-6.73448
-6.73787
-6.7412
-6.74456
-6.74806
-6.75177
-6.75577
-6.76009
-6.7648
-6.76993
-6.77552
-6.78161
-6.78824
-6.79543
-6.80322
-6.81164
-6.82073
-6.8305
-6.84098
-6.8522
-6.86419
-6.87695
-6.89051
-6.90488
-6.92008
-6.93611
-6.95297
-6.97068
-6.98922
-7.00861
-7.02883
-7.04987
-7.07173
-7.09439
-7.11783
-7.14204
-7.167
-7.19267
-7.21903
-7.24605
-7.27367
-7.30187
-7.3306
-7.35979
-7.38939
-7.41934
-7.44956
-7.47997
-7.5105
-7.54104
-7.57151
-7.60179
-7.63178
-7.66136
-7.6904
-7.71877
-7.74632
-7.77293
-7.79843
-7.82267
-7.8455
-7.86673
-7.88621
-7.90376
-7.91919
-7.93234
-7.94301
-7.95103
-7.9562
-7.95835
-7.95727
-7.9528
-7.94474
-7.9329
-7.91712
-7.8972
-7.87298
-7.84428
-7.81093
-7.77277
-7.72964
-7.68139
-7.62786
-7.56892
-7.50443
-7.43424
-7.35823
-7.27627
-7.18821
-7.09393
-6.99332
-6.88629
-6.77275
-6.65263
-6.52588
-6.39245
-6.25231
-6.10544
-5.95182
-5.79146
-5.6244
-5.45065
-5.27028
-5.08334
-4.88992
-4.69011
-4.48403
-4.27178
-4.05352
-3.8294
-3.59959
-3.36426
-3.12362
-2.87787
-2.62724
-2.37195
-2.11224
-1.84838
-1.58063
-1.30925
-1.03454
-0.756779
-0.476262
-0.193287
0.0918448
0.378826
0.667347
0.957099
1.24777
1.53905
1.83063
2.12222
2.41351
2.7042
2.99401
3.28266
3.56986
3.85536
4.13889
4.42021
4.69907
4.97526
5.24854
5.51873
5.78561
6.04901
6.30876
6.56469
6.81665
7.06452
7.30815
7.54743
7.78226
8.01252
8.23813
8.45901
8.67506
8.88621
9.0924
9.29355
9.48961
9.68055
9.86632
10.0469
10.2221
10.392
10.5563
10.7151
10.8679
11.0144
11.1545
11.2841
11.4161
11.481
-6.71389
-6.71798
-6.72359
-6.72897
-6.73354
-6.7375
-6.74107
-6.74445
-6.74775
-6.75109
-6.75457
-6.75827
-6.76223
-6.76653
-6.77121
-6.77632
-6.78189
-6.78795
-6.79456
-6.80173
-6.8095
-6.81791
-6.82698
-6.83674
-6.84722
-6.85844
-6.87042
-6.88318
-6.89674
-6.91112
-6.92632
-6.94235
-6.95923
-6.97696
-6.99554
-7.01496
-7.03522
-7.05633
-7.07825
-7.101
-7.12454
-7.14885
-7.17393
-7.19973
-7.22624
-7.2534
-7.28119
-7.30956
-7.33845
-7.36782
-7.39759
-7.42771
-7.4581
-7.48868
-7.51936
-7.55005
-7.58066
-7.61106
-7.64115
-7.67081
-7.69991
-7.72832
-7.7559
-7.7825
-7.80798
-7.83217
-7.85492
-7.87605
-7.89541
-7.91281
-7.92808
-7.94104
-7.9515
-7.95929
-7.96423
-7.96611
-7.96477
-7.96001
-7.95166
-7.93954
-7.92345
-7.90324
-7.87871
-7.84971
-7.81607
-7.77762
-7.73421
-7.68569
-7.6319
-7.5727
-7.50796
-7.43754
-7.36129
-7.27906
-7.19071
-7.09614
-6.99523
-6.88791
-6.77409
-6.6537
-6.52668
-6.39299
-6.25261
-6.1055
-5.95167
-5.79112
-5.62387
-5.44996
-5.26944
-5.08238
-4.88885
-4.68895
-4.48279
-4.27049
-4.0522
-3.82807
-3.59827
-3.36297
-3.12238
-2.8767
-2.62615
-2.37097
-2.11139
-1.84767
-1.58008
-1.30888
-1.03436
-0.756806
-0.476512
-0.193774
0.0911066
0.377825
0.666072
0.95554
1.24592
1.5369
1.82817
2.11945
2.41041
2.70079
2.99027
3.27859
3.56547
3.85064
4.13386
4.41486
4.69341
4.96929
5.24228
5.51217
5.77878
6.04191
6.3014
6.55709
6.80882
7.05647
7.2999
7.539
7.77365
8.00376
8.22924
8.44999
8.66593
8.87699
9.0831
9.28419
9.48021
9.6711
9.85681
10.0373
10.2124
10.3821
10.5462
10.7045
10.8567
11.0023
11.1411
11.269
11.3993
11.4608
-6.72265
-6.72647
-6.73172
-6.73679
-6.74113
-6.74489
-6.7483
-6.75151
-6.75465
-6.75784
-6.76117
-6.7647
-6.76852
-6.77267
-6.77721
-6.78217
-6.78761
-6.79355
-6.80003
-6.80709
-6.81477
-6.82308
-6.83206
-6.84174
-6.85215
-6.8633
-6.87522
-6.88793
-6.90145
-6.91579
-6.93097
-6.94699
-6.96387
-6.9816
-7.0002
-7.01966
-7.03997
-7.06113
-7.08313
-7.10596
-7.1296
-7.15403
-7.17922
-7.20515
-7.23179
-7.25909
-7.28702
-7.31552
-7.34455
-7.37404
-7.40393
-7.43416
-7.46464
-7.4953
-7.52604
-7.55677
-7.58739
-7.61779
-7.64786
-7.67747
-7.7065
-7.73481
-7.76226
-7.78871
-7.81401
-7.838
-7.86053
-7.88142
-7.90051
-7.91763
-7.93259
-7.94523
-7.95536
-7.96281
-7.96738
-7.9689
-7.96719
-7.96206
-7.95334
-7.94085
-7.9244
-7.90383
-7.87896
-7.84962
-7.81566
-7.7769
-7.73319
-7.68438
-7.63033
-7.57088
-7.50589
-7.43522
-7.35868
-7.27614
-7.18747
-7.09259
-6.99138
-6.88377
-6.76966
-6.649
-6.52173
-6.3878
-6.2472
-6.09989
-5.94587
-5.78515
-5.61776
-5.44373
-5.26311
-5.07596
-4.88237
-4.68244
-4.47627
-4.26398
-4.04572
-3.82165
-3.59192
-3.35672
-3.11625
-2.87072
-2.62034
-2.36534
-2.10597
-1.84248
-1.57513
-1.30419
-1.02995
-0.752689
-0.472704
-0.190291
0.0942521
0.38062
0.668506
0.957601
1.2476
1.53819
1.82907
2.11995
2.41051
2.70048
2.98956
3.27747
3.56394
3.84872
4.13153
4.41214
4.69031
4.96581
5.23844
5.50798
5.77424
6.03705
6.29622
6.55161
6.80307
7.05045
7.29363
7.5325
7.76694
7.99687
8.22217
8.44277
8.65858
8.86953
9.07554
9.27656
9.47251
9.66334
9.84898
10.0293
10.2043
10.3738
10.5376
10.6955
10.8471
10.9918
11.1294
11.2557
11.3841
11.4431
-6.73244
-6.73598
-6.74084
-6.74552
-6.74951
-6.75293
-6.756
-6.75888
-6.7617
-6.76457
-6.76758
-6.77081
-6.77434
-6.77821
-6.78247
-6.78718
-6.79238
-6.7981
-6.80437
-6.81124
-6.81873
-6.82687
-6.83569
-6.84523
-6.8555
-6.86653
-6.87835
-6.89096
-6.90439
-6.91866
-6.93378
-6.94976
-6.96661
-6.98432
-7.00291
-7.02237
-7.0427
-7.0639
-7.08594
-7.10881
-7.13251
-7.15699
-7.18224
-7.20823
-7.23492
-7.26227
-7.29023
-7.31875
-7.34778
-7.37727
-7.40713
-7.43731
-7.46772
-7.49828
-7.52891
-7.55949
-7.58995
-7.62015
-7.65
-7.67937
-7.70813
-7.73615
-7.76329
-7.78941
-7.81436
-7.83798
-7.86012
-7.88061
-7.89929
-7.91598
-7.93052
-7.94272
-7.95241
-7.95941
-7.96354
-7.96462
-7.96248
-7.95692
-7.94779
-7.93489
-7.91805
-7.89711
-7.87189
-7.84222
-7.80795
-7.7689
-7.72492
-7.67587
-7.62159
-7.56192
-7.49669
-7.42572
-7.34886
-7.26601
-7.17705
-7.08187
-6.9804
-6.87253
-6.75818
-6.6373
-6.50983
-6.37573
-6.23496
-6.08752
-5.9334
-5.77259
-5.60514
-5.43107
-5.25043
-5.0633
-4.86975
-4.66987
-4.46379
-4.25161
-4.03349
-3.80957
-3.58003
-3.34504
-3.1048
-2.85952
-2.60942
-2.35472
-2.09567
-1.83251
-1.56552
-1.29496
-1.02111
-0.74426
-0.464698
-0.182721
0.101372
0.387278
0.674692
0.963307
1.25282
1.54291
1.8333
2.12367
2.41373
2.70319
2.99177
3.27918
3.56516
3.84944
4.13177
4.41191
4.68961
4.96466
5.23685
5.50596
5.77182
6.03423
6.29303
6.54807
6.79919
7.04626
7.28915
7.52775
7.76195
7.99165
8.21675
8.43717
8.65283
8.86365
9.06956
9.27049
9.46636
9.65712
9.84268
10.0229
10.1978
10.3671
10.5306
10.688
10.839
10.9827
11.1191
11.244
11.3707
11.4278
-6.74358
-6.74685
-6.7513
-6.75551
-6.75898
-6.76187
-6.76439
-6.76672
-6.76898
-6.77132
-6.77381
-6.77656
-6.77962
-6.78306
-6.78692
-6.79125
-6.7961
-6.80148
-6.80745
-6.81403
-6.82125
-6.82914
-6.83773
-6.84704
-6.8571
-6.86794
-6.87957
-6.89201
-6.90529
-6.91941
-6.9344
-6.95025
-6.96698
-6.98459
-7.00308
-7.02244
-7.04268
-7.06379
-7.08574
-7.10852
-7.13212
-7.1565
-7.18163
-7.20749
-7.23404
-7.26122
-7.289
-7.31732
-7.34613
-7.37536
-7.40495
-7.43483
-7.46492
-7.49513
-7.52538
-7.55558
-7.58561
-7.61538
-7.64477
-7.67367
-7.70194
-7.72945
-7.75608
-7.78168
-7.80609
-7.82918
-7.85077
-7.87072
-7.88885
-7.905
-7.919
-7.93067
-7.93983
-7.94632
-7.94996
-7.95056
-7.94795
-7.94196
-7.9324
-7.91911
-7.90191
-7.88064
-7.85511
-7.82516
-7.79064
-7.75138
-7.70723
-7.65802
-7.60357
-7.54368
-7.47818
-7.40693
-7.32981
-7.24671
-7.15752
-7.06215
-6.96048
-6.85245
-6.73797
-6.61697
-6.48941
-6.35524
-6.21443
-6.06698
-5.91286
-5.7521
-5.58471
-5.41074
-5.23022
-5.04324
-4.84986
-4.65019
-4.44433
-4.23241
-4.01458
-3.79097
-3.56176
-3.32713
-3.08728
-2.84241
-2.59273
-2.33848
-2.0799
-1.81724
-1.55076
-1.28073
-1.00742
-0.731132
-0.452144
-0.170752
0.112744
0.398044
0.684842