/*--------------------------------*- C++ -*----------------------------------*\
  =========                 |
  \\      /  F ield         | OpenFOAM: The Open Source CFD Toolbox
   \\    /   O peration     | Website:  https://openfoam.org
    \\  /    A nd           | Version:  12
     \\/     M anipulation  |
\*---------------------------------------------------------------------------*/
FoamFile
{
    format      ascii;
    class       surfaceScalarField;
    location    "0.23";
    object      phi;
}
// * * * * * * * * * * * * * * * * * * * * * * * * * * * * * * * * * * * * * //

dimensions      [0 3 -1 0 0 0 0];

internalField   nonuniform List<scalar> 
24170
(
3.1336e-06
5.48064e-08
3.04827e-06
8.53268e-08
2.97315e-06
7.51242e-08
2.90431e-06
6.88368e-08
2.83948e-06
6.48301e-08
2.78226e-06
5.72228e-08
2.73336e-06
4.89012e-08
2.69183e-06
4.1526e-08
2.65639e-06
3.54413e-08
2.62587e-06
3.05243e-08
2.59929e-06
2.65757e-08
2.57586e-06
2.34314e-08
2.55489e-06
2.09725e-08
2.5357e-06
1.91854e-08
2.51766e-06
1.80386e-08
2.499e-06
1.86622e-08
2.47846e-06
2.05448e-08
3.76976e-08
2.44076e-06
3.45361e-06
1.84445e-08
3.45616e-06
8.27734e-08
3.44962e-06
8.16688e-08
3.438e-06
8.04582e-08
3.42351e-06
7.93186e-08
3.40597e-06
7.47638e-08
3.38634e-06
6.85309e-08
3.36543e-06
6.24302e-08
3.34403e-06
5.68489e-08
3.32272e-06
5.18293e-08
3.30192e-06
4.73793e-08
3.28184e-06
4.35085e-08
3.2626e-06
4.02098e-08
3.2442e-06
3.75931e-08
3.22666e-06
3.55712e-08
3.20985e-06
3.54784e-08
3.19465e-06
3.57464e-08
4.59091e-08
3.18643e-06
3.66535e-06
1.56078e-08
3.67825e-06
6.98742e-08
3.68531e-06
7.46077e-08
3.6896e-06
7.61762e-08
3.69127e-06
7.76451e-08
3.69014e-06
7.58959e-08
3.68669e-06
7.19829e-08
3.68149e-06
6.76262e-08
3.67498e-06
6.33626e-08
3.66749e-06
5.9311e-08
3.65933e-06
5.55478e-08
3.65068e-06
5.21515e-08
3.64172e-06
4.91769e-08
3.63254e-06
4.67732e-08
3.62314e-06
4.49647e-08
3.61397e-06
4.46537e-08
3.60467e-06
4.50384e-08
4.9637e-08
3.60095e-06
3.92465e-06
1.63471e-08
3.9358e-06
5.87223e-08
3.94254e-06
6.78637e-08
3.94802e-06
7.06999e-08
3.95243e-06
7.32331e-08
3.95535e-06
7.29757e-08
3.95691e-06
7.04302e-08
3.95739e-06
6.7144e-08
3.95699e-06
6.37624e-08
3.95585e-06
6.04448e-08
3.95412e-06
5.72848e-08
3.95189e-06
5.43833e-08
3.94924e-06
5.18229e-08
3.94627e-06
4.97469e-08
3.943e-06
4.82328e-08
3.93987e-06
4.77821e-08
3.93689e-06
4.80229e-08
4.99039e-08
3.93662e-06
4.20777e-06
1.57067e-08
4.216e-06
5.04902e-08
4.22166e-06
6.21993e-08
4.2266e-06
6.57673e-08
4.2313e-06
6.85336e-08
4.23525e-06
6.90184e-08
4.23835e-06
6.73342e-08
4.24072e-06
6.47738e-08
4.24247e-06
6.20079e-08
4.2437e-06
5.92205e-08
4.24447e-06
5.65126e-08
4.24486e-06
5.39935e-08
4.24493e-06
5.17572e-08
4.24475e-06
4.99255e-08
4.2444e-06
4.85767e-08
4.24423e-06
4.7955e-08
4.24441e-06
4.78397e-08
4.827e-08
4.24605e-06
4.51044e-06
1.43539e-08
4.51686e-06
4.40673e-08
4.52217e-06
5.68875e-08
4.52683e-06
6.11071e-08
4.53145e-06
6.39197e-08
4.53564e-06
6.48266e-08
4.53923e-06
6.37493e-08
4.54227e-06
6.17289e-08
4.54486e-06
5.94221e-08
4.54704e-06
5.70364e-08
4.54887e-06
5.46785e-08
4.55041e-06
5.24581e-08
4.5517e-06
5.04688e-08
4.55282e-06
4.88062e-08
4.55387e-06
4.75266e-08
4.5551e-06
4.67228e-08
4.55672e-06
4.62165e-08
4.57723e-08
4.55922e-06
4.83412e-06
1.29528e-08
4.83958e-06
3.86078e-08
4.84483e-06
5.16351e-08
4.84942e-06
5.65161e-08
4.85393e-06
5.94091e-08
4.85816e-06
6.05969e-08
4.86193e-06
5.99832e-08
4.86527e-06
5.83934e-08
4.86824e-06
5.64512e-08
4.87089e-06
5.43861e-08
4.87326e-06
5.23101e-08
4.87539e-06
5.03283e-08
4.87733e-06
4.85273e-08
4.87916e-06
4.69778e-08
4.88097e-06
4.57097e-08
4.88296e-06
4.47318e-08
4.88529e-06
4.38845e-08
4.29035e-08
4.88816e-06
5.1809e-06
1.16329e-08
5.18571e-06
3.38026e-08
5.19084e-06
4.65002e-08
5.19542e-06
5.19364e-08
5.19989e-06
5.49447e-08
5.20415e-06
5.6336e-08
5.20803e-06
5.60988e-08
5.21155e-06
5.48776e-08
5.21475e-06
5.32466e-08
5.21768e-06
5.14526e-08
5.22038e-06
4.96134e-08
5.22288e-06
4.78275e-08
5.22524e-06
4.6172e-08
5.22752e-06
4.46972e-08
5.22982e-06
4.34116e-08
5.23226e-06
4.22834e-08
5.23497e-06
4.11741e-08
3.98706e-08
5.23801e-06
5.5526e-06
1.03695e-08
5.55685e-06
2.95523e-08
5.56177e-06
4.15821e-08
5.56634e-06
4.73685e-08
5.57079e-06
5.04872e-08
5.5751e-06
5.20273e-08
5.5791e-06
5.21014e-08
5.58277e-06
5.12074e-08
5.58616e-06
4.98553e-08
5.58931e-06
4.83016e-08
5.59226e-06
4.66694e-08
5.59503e-06
4.50504e-08
5.59769e-06
4.3512e-08
5.6003e-06
4.20899e-08
5.60293e-06
4.07796e-08
5.60568e-06
3.95357e-08
5.60861e-06
3.8246e-08
3.67624e-08
5.61172e-06
5.95099e-06
9.15951e-09
5.95476e-06
2.57799e-08
5.95941e-06
3.69259e-08
5.96395e-06
4.28333e-08
5.96841e-06
4.60292e-08
5.97276e-06
4.76723e-08
5.97687e-06
4.79958e-08
5.98069e-06
4.73893e-08
5.98425e-06
4.62904e-08
5.9876e-06
4.49544e-08
5.99076e-06
4.35082e-08
5.99377e-06
4.20371e-08
5.99669e-06
4.05996e-08
5.99955e-06
3.92226e-08
6.00244e-06
3.78964e-08
6.00539e-06
3.65774e-08
6.00846e-06
3.51814e-08
3.36174e-08
6.0116e-06
6.37796e-06
8.01636e-09
6.38133e-06
2.24079e-08
6.38571e-06
3.25406e-08
6.39019e-06
3.83559e-08
6.39464e-06
4.15764e-08
6.39903e-06
4.32811e-08
6.40324e-06
4.37922e-08
6.4072e-06
4.3429e-08
6.41093e-06
4.2557e-08
6.41447e-06
4.14187e-08
6.41783e-06
4.01421e-08
6.42106e-06
3.88062e-08
6.4242e-06
3.74626e-08
6.42729e-06
3.61336e-08
6.43038e-06
3.48104e-08
6.43349e-06
3.34589e-08
6.43666e-06
3.20206e-08
3.0448e-08
6.43982e-06
5.74175e-06
7.10171e-09
5.74433e-06
1.98231e-08
5.74783e-06
2.90409e-08
5.75156e-06
3.46303e-08
5.75531e-06
3.78209e-08
5.75905e-06
3.9549e-08
5.76267e-06
4.0173e-08
5.76612e-06
3.99779e-08
5.7694e-06
3.92757e-08
5.77253e-06
3.82899e-08
5.77552e-06
3.71453e-08
5.77841e-06
3.59171e-08
5.78122e-06
3.46524e-08
5.78399e-06
3.33715e-08
5.78673e-06
3.20694e-08
5.78946e-06
3.07219e-08
5.79219e-06
2.9289e-08
2.77513e-08
5.79489e-06
6.99913e-06
6.12427e-09
7.00187e-06
1.70894e-08
7.00565e-06
2.5254e-08
7.00982e-06
3.04646e-08
7.0141e-06
3.35424e-08
7.0184e-06
3.52517e-08
7.02261e-06
3.59583e-08
7.02667e-06
3.59151e-08
7.03057e-06
3.53798e-08
7.03431e-06
3.45506e-08
7.03791e-06
3.35459e-08
7.04139e-06
3.2436e-08
7.04478e-06
3.12638e-08
7.0481e-06
3.00499e-08
7.05137e-06
2.87945e-08
7.05461e-06
2.74848e-08
7.0578e-06
2.6098e-08
2.46362e-08
7.06092e-06
8.53188e-06
5.09324e-09
8.53473e-06
1.42331e-08
8.53878e-06
2.12068e-08
8.54338e-06
2.5865e-08
8.54821e-06
2.87179e-08
8.55311e-06
3.03455e-08
8.55798e-06
3.10872e-08
8.56273e-06
3.11644e-08
8.56733e-06
3.07826e-08
8.57177e-06
3.01083e-08
8.57607e-06
2.92491e-08
8.58024e-06
2.82694e-08
8.58429e-06
2.72088e-08
8.58825e-06
2.60884e-08
8.59213e-06
2.49147e-08
8.59593e-06
2.36856e-08
8.59964e-06
2.23924e-08
2.10514e-08
8.60322e-06
1.04003e-05
4.01917e-09
1.04033e-05
1.12717e-08
1.04075e-05
1.6918e-08
1.04126e-05
2.08377e-08
1.0418e-05
2.33256e-08
1.04235e-05
2.47847e-08
1.04291e-05
2.54964e-08
1.04346e-05
2.56463e-08
1.044e-05
2.5392e-08
1.04453e-05
2.48646e-08
1.04504e-05
2.41548e-08
1.04553e-05
2.33198e-08
1.04601e-05
2.23953e-08
1.04648e-05
2.1403e-08
1.04694e-05
2.03543e-08
1.04738e-05
1.92555e-08
1.04781e-05
1.81072e-08
1.69338e-08
1.04822e-05
1.26779e-05
2.90767e-09
1.2681e-05
8.19693e-09
1.26855e-05
1.23791e-08
1.2691e-05
1.53711e-08
1.2697e-05
1.7331e-08
1.27033e-05
1.85094e-08
1.27096e-05
1.91092e-08
1.2716e-05
1.9271e-08
1.27223e-05
1.91076e-08
1.27285e-05
1.87127e-08
1.27344e-05
1.81559e-08
1.27403e-05
1.74832e-08
1.2746e-05
1.67252e-08
1.27515e-05
1.59021e-08
1.27568e-05
1.50277e-08
1.27619e-05
1.41124e-08
1.27669e-05
1.31622e-08
1.22033e-08
1.27716e-05
1.54543e-05
1.74763e-09
1.54576e-05
4.95795e-09
1.54624e-05
7.52273e-09
1.54684e-05
9.39535e-09
1.54751e-05
1.06502e-08
1.54822e-05
1.14169e-08
1.54895e-05
1.1811e-08
1.54968e-05
1.19175e-08
1.55041e-05
1.18037e-08
1.55113e-05
1.1526e-08
1.55184e-05
1.11279e-08
1.55252e-05
1.06403e-08
1.55318e-05
1.00848e-08
1.55383e-05
9.47729e-09
1.55445e-05
8.83004e-09
1.55504e-05
8.15352e-09
1.55561e-05
7.45458e-09
6.75734e-09
1.55616e-05
1.88389e-05
4.97648e-10
1.88424e-05
1.42367e-09
1.88478e-05
2.16305e-09
1.88545e-05
2.70515e-09
1.8862e-05
3.0717e-09
1.88702e-05
3.29209e-09
1.88786e-05
3.38881e-09
1.88871e-05
3.38057e-09
1.88957e-05
3.28563e-09
1.89041e-05
3.12032e-09
1.89123e-05
2.89775e-09
1.89203e-05
2.62825e-09
1.89281e-05
2.32045e-09
1.89356e-05
1.98185e-09
1.89428e-05
1.61921e-09
1.89497e-05
1.23935e-09
1.89563e-05
8.4681e-10
4.60644e-10
1.89626e-05
2.29648e-05
-9.49238e-10
2.29689e-05
-2.70727e-09
2.29752e-05
-4.13691e-09
2.29831e-05
-5.19547e-09
2.29921e-05
-5.89972e-09
2.30017e-05
-6.33639e-09
2.30117e-05
-6.59879e-09
2.30218e-05
-6.74559e-09
2.30319e-05
-6.81355e-09
2.30419e-05
-6.83383e-09
2.30516e-05
-6.83159e-09
2.30611e-05
-6.82284e-09
2.30702e-05
-6.81629e-09
2.3079e-05
-6.81643e-09
2.30874e-05
-6.82521e-09
2.30955e-05
-6.84226e-09
2.31032e-05
-6.8674e-09
-6.88847e-09
2.31106e-05
1.68118e-05
-2.09414e-09
1.68151e-05
-5.94053e-09
1.682e-05
-9.06265e-09
1.68261e-05
-1.13164e-08
1.6833e-05
-1.27505e-08
1.68402e-05
-1.35992e-08
1.68477e-05
-1.40664e-08
1.68552e-05
-1.42604e-08
1.68627e-05
-1.4256e-08
1.687e-05
-1.41239e-08
1.6877e-05
-1.39188e-08
1.68839e-05
-1.36748e-08
1.68905e-05
-1.34127e-08
1.68968e-05
-1.31455e-08
1.69029e-05
-1.28813e-08
1.69087e-05
-1.26241e-08
1.69142e-05
-1.23763e-08
-1.213e-08
1.69194e-05
1.46357e-05
-3.20248e-09
1.46388e-05
-9.09834e-09
1.46437e-05
-1.38843e-08
1.46495e-05
-1.71949e-08
1.4656e-05
-1.91763e-08
1.46627e-05
-2.03034e-08
1.46695e-05
-2.08783e-08
1.46763e-05
-2.10352e-08
1.46829e-05
-2.08941e-08
1.46893e-05
-2.0571e-08
1.46956e-05
-2.01452e-08
1.47016e-05
-1.9662e-08
1.47073e-05
-1.91501e-08
1.47128e-05
-1.86297e-08
1.4718e-05
-1.81134e-08
1.4723e-05
-1.7608e-08
1.47277e-05
-1.71174e-08
-1.66364e-08
1.47322e-05
1.27412e-05
-4.25024e-09
1.27444e-05
-1.23073e-08
1.27493e-05
-1.88393e-08
1.27551e-05
-2.29854e-08
1.27612e-05
-2.52854e-08
1.27675e-05
-2.65844e-08
1.27738e-05
-2.71865e-08
1.278e-05
-2.72185e-08
1.2786e-05
-2.68721e-08
1.27917e-05
-2.63185e-08
1.27972e-05
-2.56527e-08
1.28025e-05
-2.49243e-08
1.28075e-05
-2.41674e-08
1.28123e-05
-2.34068e-08
1.28168e-05
-2.26573e-08
1.28212e-05
-2.19267e-08
1.28253e-05
-2.12187e-08
-2.05294e-08
1.28292e-05
1.10918e-05
-5.12695e-09
1.10951e-05
-1.56277e-08
1.11004e-05
-2.4132e-08
1.11062e-05
-2.87629e-08
1.1112e-05
-3.11213e-08
1.11179e-05
-3.24968e-08
1.11238e-05
-3.30374e-08
1.11294e-05
-3.28622e-08
1.11348e-05
-3.22631e-08
1.114e-05
-3.14562e-08
1.11449e-05
-3.05388e-08
1.11495e-05
-2.95621e-08
1.11539e-05
-2.85658e-08
1.11581e-05
-2.75773e-08
1.1162e-05
-2.66116e-08
1.11658e-05
-2.56755e-08
1.11693e-05
-2.47722e-08
-2.38982e-08
1.11727e-05
9.65583e-06
-5.74044e-09
9.65935e-06
-1.915e-08
9.66495e-06
-2.973e-08
9.67063e-06
-3.44418e-08
9.67626e-06
-3.67546e-08
9.68189e-06
-3.81254e-08
9.68732e-06
-3.84633e-08
9.69244e-06
-3.79876e-08
9.69728e-06
-3.7106e-08
9.70187e-06
-3.60406e-08
9.7062e-06
-3.48714e-08
9.71029e-06
-3.36498e-08
9.71414e-06
-3.24205e-08
9.71778e-06
-3.12129e-08
9.72121e-06
-3.00412e-08
9.72444e-06
-2.89113e-08
9.7275e-06
-2.78245e-08
-2.67758e-08
9.73037e-06
8.40543e-06
-5.81987e-09
8.4098e-06
-2.35227e-08
8.4153e-06
-3.52298e-08
8.42049e-06
-3.96273e-08
8.42591e-06
-4.21786e-08
8.43138e-06
-4.35894e-08
8.43652e-06
-4.36051e-08
8.44127e-06
-4.27374e-08
8.44569e-06
-4.15226e-08
8.44981e-06
-4.01604e-08
8.45364e-06
-3.87082e-08
8.45721e-06
-3.72181e-08
8.46053e-06
-3.57378e-08
8.46361e-06
-3.42964e-08
8.46648e-06
-3.29075e-08
8.46914e-06
-3.15769e-08
8.47162e-06
-3.03054e-08
-2.90892e-08
8.47394e-06
7.31506e-06
-3.59209e-09
7.32194e-06
-3.04056e-08
7.32739e-06
-4.06763e-08
7.33215e-06
-4.43904e-08
7.33745e-06
-4.74843e-08
7.34282e-06
-4.8956e-08
7.34777e-06
-4.85581e-08
7.35225e-06
-4.72087e-08
7.35628e-06
-4.55549e-08
7.35989e-06
-4.37751e-08
7.36311e-06
-4.19284e-08
7.36597e-06
-4.00781e-08
7.36851e-06
-3.82737e-08
7.37075e-06
-3.65412e-08
7.37274e-06
-3.48923e-08
7.37449e-06
-3.33315e-08
7.37604e-06
-3.18559e-08
-3.04594e-08
7.37741e-06
6.36222e-06
4.25402e-09
6.37294e-06
-4.11282e-08
6.38007e-06
-4.77994e-08
6.38624e-06
-5.05655e-08
6.3922e-06
-5.34468e-08
6.39748e-06
-5.42354e-08
6.40183e-06
-5.29074e-08
6.4054e-06
-5.07746e-08
6.40829e-06
-4.8451e-08
6.41057e-06
-4.60489e-08
6.41228e-06
-4.36359e-08
6.41349e-06
-4.12897e-08
6.41427e-06
-3.90588e-08
6.41469e-06
-3.69628e-08
6.41481e-06
-3.50083e-08
6.41467e-06
-3.31966e-08
6.41434e-06
-3.15192e-08
-2.99558e-08
6.41383e-06
5.53608e-06
1.36392e-08
5.54775e-06
-5.28001e-08
5.55743e-06
-5.74825e-08
5.566e-06
-5.913e-08
5.57276e-06
-6.02078e-08
5.57717e-06
-5.8649e-08
5.57931e-06
-5.50453e-08
5.57974e-06
-5.1199e-08
5.57887e-06
-4.75847e-08
5.57699e-06
-4.41738e-08
5.57433e-06
-4.09738e-08
5.57107e-06
-3.80225e-08
5.56734e-06
-3.53333e-08
5.56327e-06
-3.28979e-08
5.55897e-06
-3.07019e-08
5.55451e-06
-2.87423e-08
5.55e-06
-2.70101e-08
-2.54443e-08
5.54549e-06
4.85751e-06
-1.62612e-08
4.86091e-06
-5.62005e-08
4.8615e-06
-5.80732e-08
4.85883e-06
-5.6459e-08
4.85482e-06
-5.61968e-08
4.84812e-06
-5.19483e-08
4.83886e-06
-4.57855e-08
4.8276e-06
-3.99404e-08
4.81498e-06
-3.49668e-08
4.80159e-06
-3.07875e-08
4.78789e-06
-2.72666e-08
4.77416e-06
-2.43009e-08
4.76063e-06
-2.17996e-08
4.74742e-06
-1.96837e-08
4.73461e-06
-1.789e-08
4.72227e-06
-1.64088e-08
4.71053e-06
-1.52666e-08
-1.49562e-08
4.70004e-06
4.18641e-06
4.13021e-06
4.07214e-06
4.01568e-06
3.95949e-06
3.90754e-06
3.86175e-06
3.82181e-06
3.78684e-06
3.75606e-06
3.72879e-06
3.70449e-06
3.68269e-06
3.66301e-06
3.64512e-06
3.62871e-06
3.61344e-06
3.59848e-06
9.80635e-09
-9.80635e-09
2.0693e-08
-1.08866e-08
2.81439e-08
-7.45093e-09
3.10789e-08
-2.93496e-09
2.94346e-08
1.6443e-09
2.38709e-08
5.56371e-09
1.5194e-08
8.67683e-09
4.17435e-09
1.10197e-08
-8.59679e-09
1.27711e-08
-2.27281e-08
1.41313e-08
-3.79782e-08
1.52501e-08
-5.42041e-08
1.6226e-08
-7.13238e-08
1.71197e-08
-8.92889e-08
1.79651e-08
-1.08069e-07
1.87799e-08
-1.27641e-07
1.95721e-08
-1.47986e-07
2.03448e-08
-1.69084e-07
2.10986e-08
-1.90917e-07
2.18326e-08
-2.13462e-07
2.25446e-08
-2.36694e-07
2.32322e-08
-2.60586e-07
2.38921e-08
-2.85108e-07
2.4522e-08
-3.10229e-07
2.51216e-08
-3.35923e-07
2.56933e-08
-3.62164e-07
2.62416e-08
-3.88932e-07
2.67674e-08
-4.16193e-07
2.72615e-08
-4.43904e-07
2.77108e-08
-4.72032e-07
2.81278e-08
-5.00611e-07
2.85789e-08
-5.29734e-07
2.91235e-08
-5.59392e-07
2.96579e-08
-5.89419e-07
3.00267e-08
-6.20056e-07
3.06371e-08
-6.52584e-07
3.25276e-08
-6.87466e-07
3.48828e-08
-7.21994e-07
3.45278e-08
-7.60919e-07
3.89251e-08
-8.00719e-07
3.97999e-08
-8.37484e-07
3.67648e-08
-8.81577e-07
4.40931e-08
-9.2893e-07
4.73525e-08
-9.68887e-07
3.99573e-08
-1.00673e-06
3.7841e-08
-1.04808e-06
4.13515e-08
-1.09085e-06
4.27692e-08
-1.13451e-06
4.36658e-08
-1.17872e-06
4.42023e-08
-1.22322e-06
4.45003e-08
-1.26786e-06
4.46415e-08
-1.31253e-06
4.46743e-08
-1.35716e-06
4.46287e-08
-1.40169e-06
4.45237e-08
-1.44606e-06
4.43712e-08
-1.49024e-06
4.41788e-08
-1.53419e-06
4.3951e-08
-1.57788e-06
4.36905e-08
-1.62128e-06
4.33986e-08
-1.66435e-06
4.30757e-08
-1.70707e-06
4.27215e-08
-1.74941e-06
4.23355e-08
-1.79132e-06
4.19169e-08
-1.83279e-06
4.14645e-08
-1.87377e-06
4.09774e-08
-1.91422e-06
4.04545e-08
-1.95412e-06
3.98948e-08
-1.99341e-06
3.92974e-08
-2.03207e-06
3.86616e-08
-2.07006e-06
3.79866e-08
-2.10733e-06
3.72722e-08
-2.14385e-06
3.65178e-08
-2.17957e-06
3.57233e-08
-2.21446e-06
3.48887e-08
-2.24848e-06
3.40141e-08
-2.28158e-06
3.30998e-08
-2.31372e-06
3.21462e-08
-2.34488e-06
3.11538e-08
-2.375e-06
3.01232e-08
-2.40406e-06
2.90552e-08
-2.43201e-06
2.79505e-08
-2.45882e-06
2.68098e-08
-2.48445e-06
2.5634e-08
-2.50887e-06
2.44238e-08
-2.53205e-06
2.31798e-08
-2.55396e-06
2.19026e-08
-2.57455e-06
2.05925e-08
-2.5938e-06
1.92494e-08
-2.61167e-06
1.7873e-08
-2.62813e-06
1.64624e-08
-2.64315e-06
1.50158e-08
-2.65668e-06
1.35306e-08
-2.66868e-06
1.20031e-08
-2.67911e-06
1.04267e-08
-2.6879e-06
8.79283e-09
-2.69499e-06
7.0896e-09
-2.70029e-06
5.30005e-09
-2.70371e-06
3.41313e-09
-2.70514e-06
1.43046e-09
-2.70457e-06
-5.62463e-10
-2.70235e-06
-2.22309e-09
-2.69854e-06
-3.81231e-09
-2.69317e-06
-5.3723e-09
-2.68624e-06
-6.92545e-09
-2.67776e-06
-8.48311e-09
-2.66771e-06
-1.00472e-08
-2.65609e-06
-1.16173e-08
-2.6429e-06
-1.31916e-08
-2.62813e-06
-1.47684e-08
-2.61179e-06
-1.63454e-08
-2.59387e-06
-1.79206e-08
-2.57437e-06
-1.94918e-08
-2.55332e-06
-2.10569e-08
-2.5307e-06
-2.26139e-08
-2.50654e-06
-2.41606e-08
-2.48085e-06
-2.5695e-08
-2.45363e-06
-2.72149e-08
-2.42491e-06
-2.87183e-08
-2.39471e-06
-3.02031e-08
-2.36304e-06
-3.16673e-08
-2.32994e-06
-3.31088e-08
-2.29541e-06
-3.45257e-08
-2.25949e-06
-3.5916e-08
-2.22222e-06
-3.72781e-08
-2.18361e-06
-3.86101e-08
-2.1437e-06
-3.99102e-08
-2.10252e-06
-4.11769e-08
-2.06011e-06
-4.24084e-08
-2.01651e-06
-4.36032e-08
-1.97175e-06
-4.47596e-08
-1.92587e-06
-4.58763e-08
-1.87892e-06
-4.6952e-08
-1.83093e-06
-4.79855e-08
-1.78196e-06
-4.89758e-08
-1.73204e-06
-4.99217e-08
-1.68121e-06
-5.08225e-08
-1.62954e-06
-5.16772e-08
-1.57705e-06
-5.24851e-08
-1.52381e-06
-5.32457e-08
-1.46985e-06
-5.39587e-08
-1.41522e-06
-5.46237e-08
-1.35998e-06
-5.52407e-08
-1.30417e-06
-5.58096e-08
-1.24784e-06
-5.63304e-08
-1.19104e-06
-5.68036e-08
-1.13381e-06
-5.72297e-08
-1.0762e-06
-5.76092e-08
-1.01826e-06
-5.79429e-08
-9.60026e-07
-5.82317e-08
-9.01549e-07
-5.84768e-08
-8.42869e-07
-5.86794e-08
-7.84028e-07
-5.88409e-08
-7.25065e-07
-5.8963e-08
-6.66018e-07
-5.90473e-08
-6.06923e-07
-5.90956e-08
-5.47813e-07
-5.91099e-08
-4.88721e-07
-5.9092e-08
-4.29677e-07
-5.90437e-08
-3.70711e-07
-5.89663e-08
-3.1185e-07
-5.88605e-08
-2.53123e-07
-5.8727e-08
-1.94562e-07
-5.85616e-08
-1.36196e-07
-5.83652e-08
-7.80594e-08
-5.81369e-08
-2.01936e-08
-5.78658e-08
3.73649e-08
-5.75585e-08
9.45778e-08
-5.72129e-08
1.51446e-07
-5.68684e-08
2.07992e-07
-5.6546e-08
2.64231e-07
-5.62388e-08
3.20158e-07
-5.5927e-08
3.75743e-07
-5.55847e-08
4.30915e-07
-5.51726e-08
4.85539e-07
-5.46238e-08
5.39347e-07
-5.38079e-08
5.91805e-07
-5.24585e-08
6.41701e-07
-4.98951e-08
6.86179e-07
-4.4478e-08
7.17669e-07
-3.14906e-08
8.54701e-09
7.09122e-07
6.69519e-09
-1.65015e-08
8.51954e-09
-1.2711e-08
6.44737e-09
-5.37876e-09
1.66178e-09
1.85063e-09
-5.24753e-09
8.55361e-09
-1.41802e-08
1.44963e-08
-2.50743e-08
1.9571e-08
-3.784e-08
2.37854e-08
-5.23182e-08
2.72493e-08
-6.83122e-08
3.01252e-08
-8.56359e-08
3.25738e-08
-1.04137e-07
3.47269e-08
-1.23699e-07
3.66821e-08
-1.44241e-07
3.85064e-08
-1.65704e-07
4.02435e-08
-1.88053e-07
4.19208e-08
-2.11263e-07
4.35548e-08
-2.3532e-07
4.51554e-08
-2.60215e-07
4.67284e-08
-2.85948e-07
4.82775e-08
-3.12522e-07
4.98055e-08
-3.39945e-07
5.13155e-08
-3.68236e-07
5.28131e-08
-3.97421e-07
5.43068e-08
-4.27538e-07
5.58095e-08
-4.58632e-07
5.7336e-08
-4.90763e-07
5.8899e-08
-5.24007e-07
6.05052e-08
-5.58455e-07
6.21591e-08
-5.94204e-07
6.38762e-08
-6.31316e-07
6.56912e-08
-6.6981e-07
6.76179e-08
-7.09741e-07
6.95881e-08
-7.51256e-07
7.15418e-08
-7.94301e-07
7.36827e-08
-8.38059e-07
7.62856e-08
-8.82018e-07
7.88411e-08
-9.28166e-07
8.06765e-08
-9.72137e-07
8.28958e-08
-1.01668e-06
8.43402e-08
-1.06425e-06
8.43386e-08
-1.10654e-06
8.63784e-08
-1.14678e-06
8.75991e-08
-1.19282e-06
8.59972e-08
-1.23989e-06
8.49066e-08
-1.28379e-06
8.52501e-08
-1.32654e-06
8.55182e-08
-1.3685e-06
8.563e-08
-1.4099e-06
8.56024e-08
-1.45085e-06
8.5447e-08
-1.49139e-06
8.51845e-08
-1.53155e-06
8.48331e-08
-1.57133e-06
8.44071e-08
-1.61072e-06
8.39168e-08
-1.64972e-06
8.33693e-08
-1.68831e-06
8.2769e-08
-1.72648e-06
8.21181e-08
-1.7642e-06
8.14174e-08
-1.80147e-06
8.06666e-08
-1.83826e-06
7.98644e-08
-1.87455e-06
7.90093e-08
-1.91031e-06
7.80992e-08
-1.94553e-06
7.71322e-08
-1.98017e-06
7.61059e-08
-2.01421e-06
7.50184e-08
-2.04762e-06
7.38678e-08
-2.08038e-06
7.26522e-08
-2.11245e-06
7.13701e-08
-2.14381e-06
7.00202e-08
-2.17443e-06
6.86015e-08
-2.20427e-06
6.71132e-08
-2.2333e-06
6.55549e-08
-2.26151e-06
6.39262e-08
-2.28885e-06
6.22272e-08
-2.31529e-06
6.04583e-08
-2.34081e-06
5.86199e-08
-2.36538e-06
5.67128e-08
-2.38896e-06
5.47377e-08
-2.41153e-06
5.26959e-08
-2.43307e-06
5.05885e-08
-2.45353e-06
4.84167e-08
-2.4729e-06
4.61819e-08
-2.49116e-06
4.38854e-08
-2.50826e-06
4.15284e-08
-2.52419e-06
3.91123e-08
-2.53893e-06
3.66379e-08
-2.55244e-06
3.41063e-08
-2.56471e-06
3.15179e-08
-2.57571e-06
2.8873e-08
-2.58542e-06
2.61715e-08
-2.59382e-06
2.34131e-08
-2.60088e-06
2.0597e-08
-2.6066e-06
1.77225e-08
-2.61097e-06
1.47891e-08
-2.61397e-06
1.17973e-08
-2.61563e-06
8.7502e-09
-2.61599e-06
5.65654e-09
-2.61511e-06
2.53886e-09
-2.61314e-06
-5.45649e-10
-2.61006e-06
-3.63929e-09
-2.60564e-06
-6.64563e-09
-2.59978e-06
-9.67418e-09
-2.59242e-06
-1.27245e-08
-2.58355e-06
-1.57938e-08
-2.57316e-06
-1.88814e-08
-2.56122e-06
-2.19851e-08
-2.54773e-06
-2.51014e-08
-2.5327e-06
-2.82265e-08
-2.51611e-06
-3.13563e-08
-2.49797e-06
-3.44865e-08
-2.47828e-06
-3.7613e-08
-2.45704e-06
-4.07314e-08
-2.43426e-06
-4.38376e-08
-2.40994e-06
-4.69274e-08
-2.38411e-06
-4.99966e-08
-2.35676e-06
-5.30411e-08
-2.32792e-06
-5.60567e-08
-2.2976e-06
-5.90394e-08
-2.26582e-06
-6.19851e-08
-2.2326e-06
-6.48895e-08
-2.19796e-06
-6.77488e-08
-2.16192e-06
-7.05591e-08
-2.12452e-06
-7.33165e-08
-2.08578e-06
-7.60174e-08
-2.04573e-06
-7.86584e-08
-2.00441e-06
-8.12359e-08
-1.96184e-06
-8.37467e-08
-1.91806e-06
-8.61875e-08
-1.87311e-06
-8.85552e-08
-1.82702e-06
-9.08465e-08
-1.77984e-06
-9.30586e-08
-1.7316e-06
-9.51889e-08
-1.68235e-06
-9.72352e-08
-1.63213e-06
-9.91952e-08
-1.58099e-06
-1.01067e-07
-1.52896e-06
-1.02849e-07
-1.4761e-06
-1.04539e-07
-1.42245e-06
-1.06136e-07
-1.36806e-06
-1.07638e-07
-1.31297e-06
-1.09046e-07
-1.25723e-06
-1.10358e-07
-1.2009e-06
-1.11574e-07
-1.14402e-06
-1.12695e-07
-1.08663e-06
-1.13719e-07
-1.02878e-06
-1.14649e-07
-9.70526e-07
-1.15485e-07
-9.11906e-07
-1.16228e-07
-8.52969e-07
-1.1688e-07
-7.93758e-07
-1.17443e-07
-7.34316e-07
-1.17919e-07
-6.74686e-07
-1.1831e-07
-6.14908e-07
-1.18619e-07
-5.55021e-07
-1.1885e-07
-4.95063e-07
-1.19005e-07
-4.35069e-07
-1.1909e-07
-3.75073e-07
-1.19106e-07
-3.15106e-07
-1.19059e-07
-2.55199e-07
-1.18951e-07
-1.95378e-07
-1.18787e-07
-1.35672e-07
-1.18567e-07
-7.61048e-08
-1.18294e-07
-1.67019e-08
-1.17964e-07
4.25098e-08
-1.17577e-07
1.01504e-07
-1.17131e-07
1.60262e-07
-1.16625e-07
2.18774e-07
-1.1607e-07
2.77042e-07
-1.15481e-07
3.35062e-07
-1.14888e-07
3.92826e-07
-1.14311e-07
4.50325e-07
-1.13738e-07
5.0754e-07
-1.13141e-07
5.64428e-07
-1.12473e-07
6.20911e-07
-1.11656e-07
6.76845e-07
-1.10557e-07
7.31961e-07
-1.08924e-07
7.85764e-07
-1.06261e-07
8.37285e-07
-1.01417e-07
8.84916e-07
-9.21083e-08
9.25358e-07
-7.19325e-08
-2.48271e-08
9.58732e-07
-6.43606e-10
-1.58579e-08
-6.19376e-09
-7.16083e-09
-1.40393e-08
2.4668e-09
-2.33313e-08
1.11426e-08
-3.38117e-08
1.9034e-08
-4.54525e-08
2.61372e-08
-5.83137e-08
3.24322e-08
-7.2461e-08
3.79327e-08
-8.79177e-08
4.2706e-08
-1.04654e-07
4.68615e-08
-1.22605e-07
5.05247e-08
-1.41694e-07
5.38157e-08
-1.61847e-07
5.68359e-08
-1.83006e-07
5.96649e-08
-2.05123e-07
6.2361e-08
-2.28169e-07
6.49662e-08
-2.52123e-07
6.75091e-08
-2.76978e-07
7.00101e-08
-3.02733e-07
7.24832e-08
-3.29394e-07
7.49394e-08
-3.56977e-07
7.73881e-08
-3.855e-07
7.98387e-08
-4.1499e-07
8.23023e-08
-4.45475e-07
8.47921e-08
-4.76988e-07
8.73229e-08
-5.09561e-07
8.9909e-08
-5.43223e-07
9.25602e-08
-5.77996e-07
9.52786e-08
-6.13895e-07
9.80579e-08
-6.50905e-07
1.00886e-07
-6.88961e-07
1.03747e-07
-7.27947e-07
1.06604e-07
-7.67755e-07
1.09396e-07
-8.0829e-07
1.12077e-07
-8.49284e-07
1.14677e-07
-8.90186e-07
1.17187e-07
-9.30739e-07
1.19394e-07
-9.71203e-07
1.21141e-07
-1.01083e-06
1.22521e-07
-1.04995e-06
1.23457e-07
-1.08957e-06
1.23959e-07
-1.12765e-06
1.24463e-07
-1.16462e-06
1.24566e-07
-1.20264e-06
1.2402e-07
-1.24115e-06
1.23413e-07
-1.27892e-06
1.23018e-07
-1.31605e-06
1.22652e-07
-1.35268e-06
1.22261e-07
-1.38889e-06
1.21817e-07
-1.42475e-06
1.21307e-07
-1.4603e-06
1.20729e-07
-1.49555e-06
1.20082e-07
-1.53051e-06
1.1937e-07
-1.56519e-06
1.18595e-07
-1.59958e-06
1.17756e-07
-1.63366e-06
1.16855e-07
-1.66743e-06
1.1589e-07
-1.70088e-06
1.14859e-07
-1.73397e-06
1.13759e-07
-1.76669e-06
1.12589e-07
-1.79903e-06
1.11343e-07
-1.83095e-06
1.10019e-07
-1.86243e-06
1.08614e-07
-1.89345e-06
1.07124e-07
-1.92397e-06
1.05545e-07
-1.95398e-06
1.03876e-07
-1.98344e-06
1.02113e-07
-2.01232e-06
1.00254e-07
-2.0406e-06
9.82972e-08
-2.06824e-06
9.62413e-08
-2.09521e-06
9.40851e-08
-2.12149e-06
9.18276e-08
-2.14703e-06
8.94687e-08
-2.17181e-06
8.70082e-08
-2.1958e-06
8.44465e-08
-2.21896e-06
8.17842e-08
-2.24127e-06
7.90224e-08
-2.2627e-06
7.61622e-08
-2.2832e-06
7.3205e-08
-2.30277e-06
7.01526e-08
-2.32136e-06
6.70068e-08
-2.33895e-06
6.37695e-08
-2.3555e-06
6.04426e-08
-2.371e-06
5.70283e-08
-2.38542e-06
5.35285e-08
-2.39873e-06
4.99451e-08
-2.4109e-06
4.628e-08
-2.42192e-06
4.25348e-08
-2.43176e-06
3.87111e-08
-2.44039e-06
3.48105e-08
-2.44782e-06
3.08344e-08
-2.454e-06
2.67846e-08
-2.45894e-06
2.26636e-08
-2.46263e-06
1.84749e-08
-2.46506e-06
1.42241e-08
-2.46623e-06
9.91928e-09
-2.46614e-06
5.57285e-09
-2.46481e-06
1.20168e-09
-2.46218e-06
-3.17359e-09
-2.45825e-06
-7.56821e-09
-2.45291e-06
-1.19829e-08
-2.44614e-06
-1.64408e-08
-2.43793e-06
-2.09405e-08
-2.42825e-06
-2.54776e-08
-2.41708e-06
-3.00463e-08
-2.40442e-06
-3.46408e-08
-2.39027e-06
-3.9255e-08
-2.37461e-06
-4.38828e-08
-2.35745e-06
-4.85177e-08
-2.33879e-06
-5.31534e-08
-2.31862e-06
-5.77836e-08
-2.29695e-06
-6.24021e-08
-2.27378e-06
-6.70024e-08
-2.24913e-06
-7.15786e-08
-2.223e-06
-7.61243e-08
-2.19541e-06
-8.06334e-08
-2.16637e-06
-8.50998e-08
-2.13589e-06
-8.95176e-08
-2.10399e-06
-9.38804e-08
-2.0707e-06
-9.81822e-08
-2.03603e-06
-1.02417e-07
-2.00001e-06
-1.0658e-07
-1.96266e-06
-1.10663e-07
-1.92402e-06
-1.14664e-07
-1.8841e-06
-1.18575e-07
-1.84295e-06
-1.22392e-07
-1.80058e-06
-1.2611e-07
-1.75705e-06
-1.29724e-07
-1.71237e-06
-1.3323e-07
-1.6666e-06
-1.36622e-07
-1.61976e-06
-1.39897e-07
-1.5719e-06
-1.4305e-07
-1.52305e-06
-1.46079e-07
-1.47327e-06
-1.48979e-07
-1.42259e-06
-1.51749e-07
-1.37105e-06
-1.54384e-07
-1.31871e-06
-1.56884e-07
-1.2656e-06
-1.59245e-07
-1.21177e-06
-1.61466e-07
-1.15727e-06
-1.63546e-07
-1.10214e-06
-1.65484e-07
-1.04644e-06
-1.6728e-07
-9.90199e-07
-1.68933e-07
-9.33474e-07
-1.70445e-07
-8.76308e-07
-1.71815e-07
-8.18747e-07
-1.73046e-07
-7.60837e-07
-1.74139e-07
-7.0262e-07
-1.75097e-07
-6.44142e-07
-1.75922e-07
-5.85443e-07
-1.76617e-07
-5.26565e-07
-1.77188e-07
-4.67547e-07
-1.77637e-07
-4.08428e-07
-1.77969e-07
-3.49243e-07
-1.7819e-07
-2.90027e-07
-1.78305e-07
-2.30813e-07
-1.7832e-07
-1.71631e-07
-1.78241e-07
-1.1251e-07
-1.78073e-07
-5.34757e-08
-1.77821e-07
5.44693e-09
-1.77489e-07
6.42333e-08
-1.7708e-07
1.22862e-07
-1.76593e-07
1.81313e-07
-1.76028e-07
2.39571e-07
-1.75389e-07
2.97632e-07
-1.74686e-07
3.55502e-07
-1.7394e-07
4.13189e-07
-1.73168e-07
4.7068e-07
-1.72379e-07
5.27954e-07
-1.71585e-07
5.84991e-07
-1.70775e-07
6.41763e-07
-1.69913e-07
6.98225e-07
-1.68935e-07
7.54298e-07
-1.67729e-07
8.09844e-07
-1.66104e-07
8.64628e-07
-1.63707e-07
9.18245e-07
-1.59879e-07
9.70066e-07
-1.53238e-07
1.01919e-06
-1.41232e-07
1.06511e-06
-1.17852e-07
-7.17043e-08
1.11199e-06
-7.00623e-09
-8.8517e-09
-1.76829e-08
3.5158e-09
-2.94951e-08
1.4279e-08
-4.20281e-08
2.36756e-08
-5.51926e-08
3.21985e-08
-6.90336e-08
3.99783e-08
-8.36484e-08
4.70469e-08
-9.91417e-08
5.3426e-08
-1.15595e-07
5.91597e-08
-1.33054e-07
6.43204e-08
-1.51529e-07
6.8999e-08
-1.71004e-07
7.32912e-08
-1.91454e-07
7.72864e-08
-2.12851e-07
8.10612e-08
-2.35167e-07
8.46776e-08
-2.58384e-07
8.8183e-08
-2.82488e-07
9.16133e-08
-3.07473e-07
9.49947e-08
-3.33337e-07
9.83468e-08
-3.60082e-07
1.01684e-07
-3.87713e-07
1.0502e-07
-4.16238e-07
1.08363e-07
-4.45659e-07
1.11723e-07
-4.75977e-07
1.1511e-07
-5.07183e-07
1.18529e-07
-5.39257e-07
1.21983e-07
-5.72162e-07
1.25466e-07
-6.05845e-07
1.28962e-07
-6.40232e-07
1.32444e-07
-6.75221e-07
1.35875e-07
-7.10683e-07
1.39209e-07
-7.46472e-07
1.42393e-07
-7.82445e-07
1.45369e-07
-8.18465e-07
1.48096e-07
-8.54346e-07
1.50558e-07
-8.8988e-07
1.52722e-07
-9.24988e-07
1.54502e-07
-9.59705e-07
1.55857e-07
-9.94015e-07
1.56831e-07
-1.02799e-06
1.5743e-07
-1.06175e-06
1.57725e-07
-1.09511e-06
1.57818e-07
-1.12817e-06
1.57624e-07
-1.16128e-06
1.57136e-07
-1.19442e-06
1.56549e-07
-1.22736e-06
1.55964e-07
-1.26008e-06
1.55367e-07
-1.29256e-06
1.54744e-07
-1.32483e-06
1.5408e-07
-1.35688e-06
1.53365e-07
-1.38875e-06
1.52592e-07
-1.42042e-06
1.51757e-07
-1.45191e-06
1.50857e-07
-1.4832e-06
1.49887e-07
-1.51429e-06
1.48846e-07
-1.54517e-06
1.4773e-07
-1.57581e-06
1.46534e-07
-1.60621e-06
1.45254e-07
-1.63633e-06
1.43886e-07
-1.66617e-06
1.42424e-07
-1.69569e-06
1.40864e-07
-1.72487e-06
1.39201e-07
-1.75369e-06
1.37431e-07
-1.78211e-06
1.35548e-07
-1.81012e-06
1.33549e-07
-1.83767e-06
1.3143e-07
-1.86474e-06
1.29187e-07
-1.89131e-06
1.26818e-07
-1.91733e-06
1.2432e-07
-1.94278e-06
1.21692e-07
-1.96763e-06
1.18931e-07
-1.99184e-06
1.16037e-07
-2.01538e-06
1.1301e-07
-2.03822e-06
1.09849e-07
-2.06033e-06
1.06555e-07
-2.08167e-06
1.03129e-07
-2.10222e-06
9.95713e-08
-2.12194e-06
9.58845e-08
-2.14081e-06
9.20701e-08
-2.15879e-06
8.81304e-08
-2.17585e-06
8.40679e-08
-2.19196e-06
7.98851e-08
-2.20711e-06
7.55848e-08
-2.22125e-06
7.11699e-08
-2.23436e-06
6.66432e-08
-2.24643e-06
6.20079e-08
-2.25741e-06
5.72665e-08
-2.2673e-06
5.24222e-08
-2.27607e-06
4.74777e-08
-2.28369e-06
4.24358e-08
-2.29016e-06
3.72997e-08
-2.29545e-06
3.20729e-08
-2.29954e-06
2.67595e-08
-2.30243e-06
2.13646e-08
-2.3041e-06
1.58948e-08
-2.30454e-06
1.03579e-08
-2.30373e-06
4.76349e-09
-2.30165e-06
-8.78923e-10
-2.29826e-06
-6.56284e-09
-2.29354e-06
-1.22936e-08
-2.28744e-06
-1.80793e-08
-2.27995e-06
-2.39266e-08
-2.27106e-06
-2.98313e-08
-2.26075e-06
-3.57869e-08
-2.24901e-06
-4.17856e-08
-2.23584e-06
-4.78192e-08
-2.22121e-06
-5.38792e-08
-2.20514e-06
-5.99573e-08
-2.18761e-06
-6.6045e-08
-2.16863e-06
-7.2134e-08
-2.1482e-06
-7.82159e-08
-2.12632e-06
-8.42825e-08
-2.10299e-06
-9.03255e-08
-2.07824e-06
-9.63366e-08
-2.05205e-06
-1.02308e-07
-2.02445e-06
-1.08231e-07
-1.99546e-06
-1.14099e-07