/*--------------------------------*- C++ -*----------------------------------*\
  =========                 |
  \\      /  F ield         | OpenFOAM: The Open Source CFD Toolbox
   \\    /   O peration     | Website:  https://openfoam.org
    \\  /    A nd           | Version:  12
     \\/     M anipulation  |
\*---------------------------------------------------------------------------*/
FoamFile
{
    format      ascii;
    class       volVectorField;
    location    "0.23";
    object      U;
}
// * * * * * * * * * * * * * * * * * * * * * * * * * * * * * * * * * * * * * //

dimensions      [0 1 -1 0 0 0 0];

internalField   nonuniform List<vector> 
12225
(
(9.86107 -0.874318 0)
(9.67248 -0.700192 0)
(9.45896 -0.387592 0)
(9.22466 -0.188478 0)
(9.00348 -0.0843938 0)
(8.81039 -0.0328762 0)
(8.6451 -0.00755112 0)
(8.50411 0.00502422 0)
(8.38393 0.0113359 0)
(8.28104 0.0144717 0)
(8.19207 0.0159667 0)
(8.11414 0.0166359 0)
(8.04486 0.0169221 0)
(7.98242 0.0171167 0)
(7.92389 0.0174121 0)
(7.87027 0.0185153 0)
(7.80096 0.0214802 0)
(7.77465 0.0298971 0)
(10.0547 0.263069 0)
(10.1201 0.36074 0)
(10.118 0.273821 0)
(10.0826 0.187087 0)
(10.0405 0.131161 0)
(9.99392 0.0969257 0)
(9.94011 0.0755556 0)
(9.88039 0.0617479 0)
(9.81782 0.0523418 0)
(9.7549 0.0455242 0)
(9.69307 0.0403521 0)
(9.63314 0.0363644 0)
(9.57549 0.0333051 0)
(9.52051 0.0311546 0)
(9.46742 0.029747 0)
(9.41867 0.0308433 0)
(9.3673 0.0319189 0)
(9.34204 0.0522484 0)
(9.99919 0.0460866 0)
(10.0244 0.0342089 0)
(10.0538 0.0149487 0)
(10.0708 0.0218089 0)
(10.0778 0.0366701 0)
(10.0783 0.0460057 0)
(10.0722 0.0499453 0)
(10.0603 0.0511354 0)
(10.0439 0.0510408 0)
(10.0246 0.050323 0)
(10.003 0.0493529 0)
(9.97999 0.0483766 0)
(9.95585 0.0475439 0)
(9.93106 0.0470879 0)
(9.90559 0.0470814 0)
(9.88046 0.0488546 0)
(9.85492 0.0515833 0)
(9.83501 0.0629117 0)
(9.9968 0.00642759 0)
(10.0085 0.0250173 0)
(10.0342 0.038936 0)
(10.0528 0.0502994 0)
(10.0644 0.0571034 0)
(10.0731 0.0591581 0)
(10.079 0.0588445 0)
(10.0816 0.0579226 0)
(10.0816 0.056914 0)
(10.0795 0.0558939 0)
(10.0758 0.0549151 0)
(10.0707 0.054064 0)
(10.0644 0.0534306 0)
(10.0573 0.0532078 0)
(10.0493 0.0535287 0)
(10.0411 0.0552648 0)
(10.0332 0.0580818 0)
(10.0277 0.0644646 0)
(9.99922 0.00673695 0)
(10.0081 0.0335722 0)
(10.0271 0.0460403 0)
(10.0418 0.0508405 0)
(10.0524 0.0539073 0)
(10.0622 0.055494 0)
(10.0708 0.0558384 0)
(10.0775 0.0556518 0)
(10.0823 0.0552802 0)
(10.0857 0.0548148 0)
(10.0881 0.0543297 0)
(10.0894 0.0539292 0)
(10.0899 0.0537226 0)
(10.0898 0.0538829 0)
(10.0891 0.05456 0)
(10.0884 0.0562412 0)
(10.0883 0.0587388 0)
(10.0899 0.0625348 0)
(10.0002 0.00907337 0)
(10.0078 0.0321226 0)
(10.0225 0.0419074 0)
(10.035 0.0456596 0)
(10.0448 0.0491172 0)
(10.0542 0.0516513 0)
(10.063 0.0527877 0)
(10.0705 0.0531367 0)
(10.0767 0.0531736 0)
(10.0819 0.0530625 0)
(10.0863 0.0528947 0)
(10.0901 0.0527777 0)
(10.0932 0.0528218 0)
(10.0958 0.0531692 0)
(10.0982 0.053942 0)
(10.1006 0.0553793 0)
(10.1036 0.0573223 0)
(10.108 0.0596178 0)
(10.0003 0.00879965 0)
(10.0068 0.0275154 0)
(10.019 0.0370781 0)
(10.0303 0.0417337 0)
(10.0395 0.0456518 0)
(10.0482 0.0484738 0)
(10.0566 0.0498811 0)
(10.0641 0.0504711 0)
(10.0706 0.0507299 0)
(10.0763 0.0508294 0)
(10.0815 0.0508561 0)
(10.0862 0.0509095 0)
(10.0904 0.0510904 0)
(10.0942 0.0515076 0)
(10.0979 0.0522427 0)
(10.1018 0.0533867 0)
(10.1062 0.0547786 0)
(10.1115 0.0560999 0)
(10.0004 0.00783654 0)
(10.0057 0.023692 0)
(10.016 0.0333637 0)
(10.0264 0.0385791 0)
(10.0351 0.0424712 0)
(10.0433 0.0452616 0)
(10.0512 0.0468122 0)
(10.0584 0.0475882 0)
(10.0649 0.0480144 0)
(10.0708 0.0482641 0)
(10.0762 0.0484243 0)
(10.0812 0.0485863 0)
(10.0859 0.0488378 0)
(10.0903 0.0492571 0)
(10.0947 0.049888 0)
(10.0993 0.0507379 0)
(10.1042 0.0516467 0)
(10.1097 0.0523069 0)
(10.0004 0.00695046 0)
(10.0049 0.0207047 0)
(10.0136 0.0300293 0)
(10.023 0.035392 0)
(10.0312 0.0391732 0)
(10.0389 0.0419298 0)
(10.0464 0.043616 0)
(10.0534 0.044557 0)
(10.0598 0.0451172 0)
(10.0656 0.0454779 0)
(10.0711 0.0457306 0)
(10.0762 0.0459577 0)
(10.0811 0.0462325 0)
(10.0858 0.0466085 0)
(10.0905 0.0471006 0)
(10.0953 0.0476749 0)
(10.1004 0.0481855 0)
(10.1059 0.0483935 0)
(10.0004 0.00616364 0)
(10.0042 0.0181191 0)
(10.0116 0.0267916 0)
(10.0199 0.0321289 0)
(10.0277 0.0358338 0)
(10.035 0.0385594 0)
(10.0421 0.0403384 0)
(10.0488 0.0414043 0)
(10.055 0.0420667 0)
(10.0608 0.0425084 0)
(10.0662 0.042823 0)
(10.0714 0.0430834 0)
(10.0764 0.0433489 0)
(10.0812 0.0436545 0)
(10.086 0.0439973 0)
(10.0909 0.0443285 0)
(10.0959 0.0445264 0)
(10.1012 0.0444258 0)
(10.0003 0.00542682 0)
(10.0036 0.0157964 0)
(10.0099 0.0237053 0)
(10.0173 0.0288992 0)
(10.0245 0.0325125 0)
(10.0314 0.0351713 0)
(10.0381 0.036984 0)
(10.0446 0.0381308 0)
(10.0506 0.0388667 0)
(10.0563 0.0393644 0)
(10.0617 0.0397166 0)
(10.0669 0.0399869 0)
(10.0718 0.0402225 0)
(10.0767 0.0404458 0)
(10.0815 0.0406457 0)
(10.0864 0.040774 0)
(10.0913 0.0407361 0)
(10.0963 0.0404289 0)
(10.0003 0.00477435 0)
(10.0031 0.0138512 0)
(10.0086 0.0210311 0)
(10.0152 0.0259919 0)
(10.0219 0.0294777 0)
(10.0285 0.0320417 0)
(10.0348 0.0338403 0)
(10.041 0.035024 0)
(10.0469 0.0358008 0)
(10.0525 0.0363282 0)
(10.0578 0.0366948 0)
(10.0629 0.0369572 0)
(10.0679 0.0371535 0)
(10.0727 0.037299 0)
(10.0775 0.0373808 0)
(10.0823 0.0373584 0)
(10.087 0.0371616 0)
(10.0918 0.0367315 0)
(10.0003 0.00416788 0)
(10.0028 0.0120841 0)
(10.0075 0.0185168 0)
(10.0134 0.0231541 0)
(10.0197 0.0264699 0)
(10.0258 0.0289152 0)
(10.0319 0.0306658 0)
(10.0378 0.0318543 0)
(10.0435 0.0326492 0)
(10.049 0.0331884 0)
(10.0542 0.0335548 0)
(10.0593 0.0337988 0)
(10.0642 0.0339518 0)
(10.069 0.0340252 0)
(10.0737 0.0340076 0)
(10.0783 0.0338683 0)
(10.0829 0.0335574 0)
(10.0875 0.0330483 0)
(10.0003 0.00353603 0)
(10.0024 0.0102459 0)
(10.0064 0.0158244 0)
(10.0117 0.0200071 0)
(10.0174 0.023065 0)
(10.0232 0.0253332 0)
(10.0289 0.0269843 0)
(10.0346 0.0281355 0)
(10.0401 0.0289184 0)
(10.0454 0.0294468 0)
(10.0505 0.0297945 0)
(10.0554 0.0300057 0)
(10.0603 0.0301063 0)
(10.065 0.0301055 0)
(10.0695 0.029996 0)
(10.074 0.0297585 0)
(10.0784 0.0293617 0)
(10.0828 0.0288035 0)
(10.0002 0.00287719 0)
(10.002 0.00833552 0)
(10.0055 0.0129642 0)
(10.0101 0.0165574 0)
(10.0153 0.0192482 0)
(10.0206 0.0212618 0)
(10.026 0.022747 0)
(10.0314 0.0238041 0)
(10.0366 0.0245313 0)
(10.0417 0.0250166 0)
(10.0467 0.0253213 0)
(10.0515 0.0254831 0)
(10.0562 0.0255232 0)
(10.0608 0.0254505 0)
(10.0652 0.0252629 0)
(10.0696 0.0249517 0)
(10.0738 0.0245011 0)
(10.0778 0.023925 0)
(10.0002 0.00219166 0)
(10.0017 0.00635386 0)
(10.0047 0.00994122 0)
(10.0088 0.0128064 0)
(10.0134 0.0150021 0)
(10.0183 0.0166633 0)
(10.0233 0.0179002 0)
(10.0284 0.0187909 0)
(10.0334 0.0194049 0)
(10.0383 0.0198046 0)
(10.0431 0.0200365 0)
(10.0478 0.0201303 0)
(10.0523 0.0201035 0)
(10.0567 0.019965 0)
(10.061 0.0197172 0)
(10.0651 0.0193596 0)
(10.0691 0.0188869 0)
(10.0729 0.0183217 0)
(10.0002 0.00147635 0)
(10.0015 0.00428432 0)
(10.0041 0.00673329 0)
(10.0077 0.00873066 0)
(10.0119 0.0102908 0)
(10.0164 0.0114833 0)
(10.0211 0.0123745 0)
(10.0258 0.0130152 0)
(10.0306 0.0134486 0)
(10.0353 0.013713 0)
(10.0399 0.0138386 0)
(10.0444 0.0138457 0)
(10.0487 0.0137472 0)
(10.053 0.0135512 0)
(10.0571 0.0132622 0)
(10.061 0.0128841 0)
(10.0648 0.0124174 0)
(10.0684 0.0118869 0)
(10.0001 0.000713646 0)
(10.0013 0.00207115 0)
(10.0037 0.00326117 0)
(10.0069 0.00424228 0)
(10.0108 0.00501672 0)
(10.015 0.00560903 0)
(10.0194 0.00604409 0)
(10.0239 0.00634194 0)
(10.0285 0.00652029 0)
(10.033 0.00659499 0)
(10.0374 0.0065786 0)
(10.0417 0.00648005 0)
(10.0459 0.00630554 0)
(10.05 0.0060597 0)
(10.0539 0.00574633 0)
(10.0576 0.00536969 0)
(10.0612 0.00493169 0)
(10.0647 0.00445508 0)
(10.0001 -0.000143065 0)
(10.0013 -0.000417509 0)
(10.0035 -0.000663783 0)
(10.0066 -0.000869392 0)
(10.0104 -0.00103183 0)
(10.0145 -0.00116496 0)
(10.0188 -0.00128803 0)
(10.0232 -0.0014149 0)
(10.0276 -0.00155427 0)
(10.032 -0.00171333 0)
(10.0363 -0.00189858 0)
(10.0405 -0.00211502 0)
(10.0445 -0.00236586 0)
(10.0484 -0.00265279 0)
(10.0522 -0.00297629 0)
(10.0558 -0.00333517 0)
(10.0592 -0.00372931 0)
(10.0625 -0.00414174 0)
(10.0001 -0.000966652 0)
(10.0014 -0.00281661 0)
(10.0037 -0.00445357 0)
(10.0071 -0.00579556 0)
(10.0111 -0.00683631 0)
(10.0153 -0.00763735 0)
(10.0197 -0.00826566 0)
(10.0242 -0.00876649 0)
(10.0287 -0.00917438 0)
(10.0331 -0.00952134 0)
(10.0373 -0.00983388 0)
(10.0415 -0.0101306 0)
(10.0455 -0.0104239 0)
(10.0493 -0.0107225 0)
(10.053 -0.0110321 0)
(10.0566 -0.0113557 0)
(10.0599 -0.011696 0)
(10.0631 -0.0120417 0)
(10.0002 -0.00168014 0)
(10.0015 -0.00491863 0)
(10.0042 -0.00777424 0)
(10.0079 -0.0100437 0)
(10.0123 -0.0117425 0)
(10.0168 -0.0130274 0)
(10.0215 -0.014016 0)
(10.0261 -0.0147678 0)
(10.0307 -0.015337 0)
(10.0352 -0.0157825 0)
(10.0395 -0.0161512 0)
(10.0437 -0.0164735 0)
(10.0477 -0.0167689 0)
(10.0516 -0.0170512 0)
(10.0552 -0.0173302 0)
(10.0587 -0.0176116 0)
(10.062 -0.0178997 0)
(10.0652 -0.018187 0)
(10.0002 -0.00236164 0)
(10.0017 -0.00700601 0)
(10.0048 -0.011108 0)
(10.0092 -0.0142098 0)
(10.0141 -0.0164053 0)
(10.019 -0.018032 0)
(10.0239 -0.0192703 0)
(10.0288 -0.0201844 0)
(10.0336 -0.0208465 0)
(10.0383 -0.0213392 0)
(10.0427 -0.0217238 0)
(10.0469 -0.0220385 0)
(10.0509 -0.0223095 0)
(10.0548 -0.022556 0)
(10.0584 -0.022791 0)
(10.0619 -0.0230224 0)
(10.0652 -0.0232552 0)
(10.0684 -0.0234847 0)
(10.0002 -0.00299683 0)
(10.0018 -0.00911367 0)
(10.0056 -0.0144878 0)
(10.0108 -0.0183338 0)
(10.0163 -0.0209546 0)
(10.0217 -0.0228504 0)
(10.027 -0.0242157 0)
(10.0321 -0.0251563 0)
(10.0372 -0.0258098 0)
(10.0419 -0.0262878 0)
(10.0464 -0.0266503 0)
(10.0507 -0.0269323 0)
(10.0548 -0.0271625 0)
(10.0587 -0.0273636 0)
(10.0623 -0.0275503 0)
(10.0658 -0.0277312 0)
(10.0691 -0.0279113 0)
(10.0722 -0.0280875 0)
(10.0001 -0.0035725 0)
(10.0019 -0.0115434 0)
(10.0064 -0.0179391 0)
(10.0127 -0.0220676 0)
(10.0189 -0.0250519 0)
(10.0247 -0.0273533 0)
(10.0304 -0.0288962 0)
(10.0359 -0.0298101 0)
(10.0411 -0.0303718 0)
(10.046 -0.0307593 0)
(10.0506 -0.0310388 0)
(10.0549 -0.0312421 0)
(10.0591 -0.0313989 0)
(10.0629 -0.0315323 0)
(10.0666 -0.0316563 0)
(10.07 -0.0317776 0)
(10.0733 -0.0318998 0)
(10.0764 -0.0320188 0)
(9.99997 -0.00369195 0)
(10.0018 -0.0151861 0)
(10.0076 -0.0226602 0)
(10.0148 -0.0259923 0)
(10.0214 -0.0285567 0)
(10.0277 -0.0310201 0)
(10.034 -0.0327998 0)
(10.0399 -0.0338402 0)
(10.0454 -0.0344425 0)
(10.0505 -0.0348156 0)
(10.0552 -0.0350428 0)
(10.0596 -0.0351729 0)
(10.0637 -0.0352482 0)
(10.0675 -0.035298 0)
(10.071 -0.035339 0)
(10.0743 -0.0353793 0)
(10.0774 -0.0354226 0)
(10.0802 -0.0354663 0)
(9.99898 -0.00131077 0)
(9.99999 -0.0179787 0)
(10.0085 -0.029077 0)
(10.0174 -0.0327035 0)
(10.0244 -0.0341283 0)
(10.0311 -0.0353553 0)
(10.0382 -0.0363029 0)
(10.0448 -0.036946 0)
(10.0507 -0.0373972 0)
(10.0559 -0.0376968 0)
(10.0605 -0.0378594 0)
(10.0647 -0.037921 0)
(10.0683 -0.0379227 0)
(10.0716 -0.0378941 0)
(10.0745 -0.0378534 0)
(10.077 -0.0378118 0)
(10.0793 -0.0377727 0)
(10.0813 -0.0377356 0)
(9.99528 0.00386783 0)
(9.99333 -0.0103147 0)
(10.007 -0.027108 0)
(10.0212 -0.0389321 0)
(10.0311 -0.0448711 0)
(10.0391 -0.0464785 0)
(10.0466 -0.0459957 0)
(10.0529 -0.0450394 0)
(10.058 -0.0441649 0)
(10.062 -0.0433932 0)
(10.0651 -0.0426808 0)
(10.0674 -0.0420249 0)
(10.0689 -0.0414319 0)
(10.0699 -0.0409014 0)
(10.0703 -0.0404311 0)
(10.0702 -0.0400199 0)
(10.0698 -0.0396582 0)
(10.0692 -0.0393193 0)
(9.99144 -0.0172941 0)
(9.99188 0.000363508 0)
(10.01 0.0176622 0)
(10.0295 0.0115834 0)
(10.0441 -0.00511555 0)
(10.0541 -0.0188332 0)
(10.0599 -0.027181 0)
(10.0622 -0.0320597 0)
(10.0616 -0.0349428 0)
(10.059 -0.0365499 0)
(10.0548 -0.0373286 0)
(10.0494 -0.0376039 0)
(10.0431 -0.0375887 0)
(10.036 -0.0374126 0)
(10.0284 -0.0371592 0)
(10.0205 -0.0368898 0)
(10.0124 -0.0366598 0)
(10.0042 -0.0364381 0)
(10.0236 -0.206008 0)
(10.0684 -0.31234 0)
(10.0788 -0.255595 0)
(10.0704 -0.18418 0)
(10.0605 -0.134905 0)
(10.0498 -0.102731 0)
(10.0342 -0.0811717 0)
(10.0129 -0.0666264 0)
(9.98774 -0.0566357 0)
(9.96049 -0.049481 0)
(9.93226 -0.0441248 0)
(9.90374 -0.0399774 0)
(9.87543 -0.0366807 0)
(9.84767 -0.0340018 0)
(9.82067 -0.0317928 0)
(9.79458 -0.0299903 0)
(9.76962 -0.0285637 0)
(9.74583 -0.0278298 0)
(9.94226 0.671595 0)
(9.87995 0.567454 0)
(9.77443 0.338465 0)
(9.63235 0.183317 0)
(9.48761 0.0949039 0)
(9.35647 0.0470806 0)
(9.24089 0.0212953 0)
(9.13937 0.00707328 0)
(9.0504 -0.00098662 0)
(8.97239 -0.00562831 0)
(8.9036 -0.00831793 0)
(8.8425 -0.00988058 0)
(8.78784 -0.0107865 0)
(8.73863 -0.0113044 0)
(8.69405 -0.0115953 0)
(8.65339 -0.0117837 0)
(8.61582 -0.0119635 0)
(8.58093 -0.0124956 0)
(0.00417997 -0.0101044 -3.50155e-20)
(0.0141433 -0.0149511 3.45916e-20)
(0.0223821 -0.0123483 0)
(0.0271963 -0.006752 0)
(0.0278278 -0.000595497 0)
(0.0244447 0.00472377 -3.24619e-20)
(0.0179478 0.00865642 0)
(0.00904947 0.0112886 0)
(-0.00164122 0.0129848 0)
(-0.0136714 0.0141232 0)
(-0.0267913 0.0149638 2.98102e-20)
(-0.040844 0.0156571 0)
(-0.0557328 0.0162843 0)
(-0.071405 0.0168843 0)
(-0.0878296 0.0174732 0)
(-0.104986 0.0180555 2.66218e-20)
(-0.122856 0.0186313 0)
(-0.141426 0.0191979 0)
(-0.16068 0.0197517 0)
(-0.180599 0.0202879 0)
(-0.201166 0.0208005 0)
(-0.222358 0.0212827 0)
(-0.244149 0.0217286 0)
(-0.266514 0.0221358 2.27292e-20)
(-0.289428 0.0225079 -2.23537e-20)
(-0.312867 0.0228535 2.20027e-20)
(-0.336815 0.0231766 2.16763e-20)
(-0.36125 0.0234638 0)
(-0.386134 0.0236954 0)
(-0.41142 0.0239191 -2.08464e-20)
(-0.437127 0.0243439 -2.06185e-20)
(-0.463338 0.0251854 0)
(-0.49002 0.0261994 0)
(-0.517078 0.0269861 -2.00672e-20)
(-0.544826 0.0287553 0)
(-0.57376 0.0342251 0)
(-0.60376 0.040187 1.96374e-20)
(-0.635765 0.0376661 0)
(-0.669231 0.0486389 1.98168e-20)
(-0.703984 0.0446594 4.06632e-20)
(-0.742071 0.0348807 0)
(-0.77832 0.0616494 0)
(-0.818209 0.0687629 0)
(-0.859427 0.0388261 0)
(-0.895974 0.0263063 0)
(-0.931209 0.0319658 4.00844e-20)
(-0.970436 0.0331624 3.96338e-20)
(-1.0103 0.0339474 3.91901e-20)
(-1.05092 0.0343432 0)
(-1.09195 0.0344916 -3.83327e-20)
(-1.13323 0.0344859 0)
(-1.17464 0.0343773 3.7521e-20)
(-1.2161 0.0341979 3.71323e-20)
(-1.25754 0.0339674 0)
(-1.29893 0.0336986 0)
(-1.34023 0.0333993 0)
(-1.38139 0.0330747 3.56787e-20)
(-1.42239 0.0327277 0)
(-1.46321 0.0323603 0)
(-1.50381 0.0319733 0)
(-1.54416 0.0315672 0)
(-1.58424 0.0311419 0)
(-1.62401 0.0306972 0)
(-1.66345 0.0302328 0)
(-1.70253 0.0297483 0)
(-1.74121 0.0292433 -3.28226e-20)
(-1.77946 0.0287175 0)
(-1.81724 0.0281707 0)
(-1.85452 0.0276027 3.1936e-20)
(-1.89126 0.0270135 3.16424e-20)
(-1.92743 0.0264032 0)
(-1.96299 0.0257719 -3.10545e-20)
(-1.9979 0.02512 3.07591e-20)
(-2.03212 0.0244478 0)
(-2.06562 0.023756 -3.01626e-20)
(-2.09836 0.0230451 0)
(-2.13029 0.0223157 0)
(-2.16139 0.0215687 2.92453e-20)
(-2.19161 0.0208048 0)
(-2.22092 0.0200248 -2.86125e-20)
(-2.24928 0.0192295 0)
(-2.27666 0.0184196 2.79581e-20)
(-2.30302 0.0175959 2.76215e-20)
(-2.32832 0.016759 2.72781e-20)
(-2.35254 0.0159092 5.38548e-20)
(-2.37564 0.0150468 -5.31379e-20)
(-2.39759 0.0141717 0)
(-2.41835 0.0132831 0)
(-2.43789 0.01238 0)
(-2.45618 0.0114605 -5.01004e-20)
(-2.47317 0.0105218 -4.92948e-20)
(-2.48884 0.00955987 4.84694e-20)
(-2.50314 0.00857021 0)
(-2.51603 0.00754734 -4.67571e-20)
(-2.52745 0.0064846 -4.58692e-20)
(-2.53733 0.00537562 -4.49599e-20)
(-2.54561 0.0042201 0)
(-2.55221 0.0030357 0)
(-2.55701 0.0018664 0)
(-2.55989 0.000768575 -4.11025e-20)
(-2.56098 -0.00020649 0)
(-2.56068 -0.00105689 0)
(-2.55889 -0.00187639 3.79372e-20)
(-2.55564 -0.00268176 0)
(-2.55093 -0.00348062 0)
(-2.54474 -0.00427431 3.45364e-20)
(-2.53707 -0.00506289 0)
(-2.5279 -0.00584575 0)
(-2.51722 -0.00662213 -3.08962e-20)
(-2.50503 -0.00739117 -2.96297e-20)
(-2.49134 -0.00815202 0)
(-2.47612 -0.00890381 2.70181e-20)
(-2.45939 -0.0096457 0)
(-2.44114 -0.0103769 -2.43034e-20)
(-2.42138 -0.0110965 0)
(-2.40011 -0.0118039 -2.14888e-20)
(-2.37735 -0.0124981 -2.00451e-20)
(-2.35309 -0.0131785 0)
(-2.32736 -0.0138443 0)
(-2.30016 -0.0144948 0)
(-2.27152 -0.0151293 0)
(-2.24144 -0.0157472 0)
(-2.20994 -0.0163478 0)
(-2.17706 -0.0169307 0)
(-2.1428 -0.0174952 -7.7117e-21)
(-2.1072 -0.0180409 6.0844e-21)
(-2.07028 -0.0185672 0)
(-2.03207 -0.0190738 0)
(-1.99259 -0.01956 0)
(-1.95189 -0.0200256 0)
(-1.90998 -0.0204702 -4.53355e-21)
(-1.86691 -0.0208936 0)
(-1.82271 -0.0212954 1.13707e-20)
(-1.77741 -0.0216754 -1.48127e-20)
(-1.73106 -0.0220337 0)
(-1.68369 -0.0223698 0)
(-1.63535 -0.0226839 0)
(-1.58606 -0.0229757 2.8674e-20)
(-1.53588 -0.0232455 3.21489e-20)
(-1.48485 -0.0234933 0)
(-1.433 -0.0237191 3.90907e-20)
(-1.38039 -0.0239233 4.2552e-20)
(-1.32705 -0.024106 -4.60031e-20)
(-1.27302 -0.0242674 0)
(-1.21836 -0.024408 0)
(-1.1631 -0.0245283 -5.62677e-20)
(-1.10729 -0.0246286 0)
(-1.05096 -0.0247094 0)
(-0.994163 -0.0247714 0)
(-0.936936 -0.0248152 0)
(-0.879318 -0.0248415 7.29182e-20)
(-0.821348 -0.024851 7.61567e-20)
(-0.763063 -0.0248446 0)
(-0.704498 -0.0248231 8.25231e-20)
(-0.645688 -0.0247874 0)
(-0.586664 -0.0247383 0)
(-0.527458 -0.0246769 9.17637e-20)
(-0.468097 -0.0246038 0)
(-0.40861 -0.0245198 9.7695e-20)
(-0.349022 -0.0244249 0)
(-0.289361 -0.0243191 0)
(-0.229651 -0.0242001 1.06213e-19)
(-0.169924 -0.0240607 0)
(-0.110208 -0.0238968 1.11622e-19)
(-0.0505281 -0.0237023 0)
(0.00907898 -0.0234268 0)
(0.0684791 -0.0230499 0)
(0.127769 -0.0226654 -1.1838e-19)
(0.186945 -0.0223047 0)
(0.246017 -0.0219619 1.19882e-19)
(0.304993 -0.0216267 0)
(0.363859 -0.0212883 0)
(0.422568 -0.0209322 0)
(0.481015 -0.0205348 0)
(0.539022 -0.0200506 0)
(0.596085 -0.0193873 0)
(0.651784 -0.0182986 0)
(0.70204 -0.0161547 -2.47002e-19)
(0.750901 -0.0113352 0)
(0.753158 0.00628373 0)
(0.00375459 -0.028369 1.04069e-19)
(0.00786609 -0.0268953 -1.00008e-19)
(0.00717631 -0.0156934 0)
(0.00404624 -0.00385648 6.05853e-20)
(-0.0011214 0.00715634 0)
(-0.00813923 0.0166519 2.84999e-20)
(-0.0169848 0.0243558 -5.5579e-20)
(-0.0275607 0.030352 -5.42813e-20)
(-0.0397402 0.0349404 0)
(-0.0533611 0.0384973 -5.17927e-20)
(-0.0682529 0.0413565 -2.53029e-20)
(-0.0842654 0.0437609 0)
(-0.101282 0.0458714 0)
(-0.119217 0.0477874 0)
(-0.138012 0.0495666 0)
(-0.157628 0.0512409 -2.25281e-20)
(-0.178041 0.0528273 0)
(-0.199235 0.0543341 4.31084e-20)
(-0.221203 0.055765 0)
(-0.243941 0.0571207 0)
(-0.267452 0.058401 -4.0591e-20)
(-0.291743 0.0596056 0)
(-0.316827 0.0607366 3.9146e-20)
(-0.342725 0.0618006 -1.92688e-20)
(-0.369466 0.0628094 1.89674e-20)
(-0.39709 0.0637773 -1.8691e-20)
(-0.425645 0.0647138 -1.84405e-20)
(-0.455192 0.0656161 0)
(-0.485813 0.0664771 0)
(-0.517603 0.0673116 1.78542e-20)
(-0.550632 0.0681678 -1.76533e-20)
(-0.584905 0.0690639 0)
(-0.620489 0.0698902 0)
(-0.657608 0.070545 1.74277e-20)
(-0.69616 0.0713309 0)
(-0.735392 0.072824 0)
(-0.775574 0.0747956 -1.72538e-20)
(-0.817218 0.0763015 0)
(-0.85779 0.0785952 1.69054e-20)
(-0.899492 0.0822264 -3.40198e-20)
(-0.940743 0.0815757 0)
(-0.981187 0.0809682 0)
(-1.01992 0.0833683 -6.56355e-20)
(-1.06017 0.0850753 -6.50302e-20)
(-1.10266 0.0860234 -6.42999e-20)
(-1.1446 0.087526 3.16739e-20)
(-1.18464 0.0883058 -3.14689e-20)
(-1.22378 0.0884841 -9.31765e-20)
(-1.26241 0.0882933 6.13756e-20)
(-1.30064 0.0878388 3.04268e-20)
(-1.33854 0.0871997 0)
(-1.37614 0.0864283 -2.97855e-20)
(-1.41345 0.0855593 2.93315e-20)
(-1.45047 0.0846157 0)
(-1.48719 0.0836129 0)
(-1.5236 0.0825607 0)
(-1.55969 0.0814653 -2.83313e-20)
(-1.59545 0.0803302 0)
(-1.63085 0.0791574 5.54444e-20)
(-1.66588 0.0779476 0)
(-1.70051 0.0767007 5.44153e-20)
(-1.73474 0.0754164 0)
(-1.76853 0.0740938 -5.34181e-20)
(-1.80187 0.0727322 0)
(-1.83473 0.0713308 5.24446e-20)
(-1.86707 0.0698889 -2.59109e-20)
(-1.89889 0.068406 0)
(-1.93015 0.0668818 -5.10117e-20)
(-1.96082 0.0653162 -2.53371e-20)
(-1.99088 0.0637093 -2.50988e-20)
(-2.02029 0.0620616 0)
(-2.04904 0.0603738 -2.44918e-20)
(-2.07708 0.0586466 -2.43793e-20)
(-2.10439 0.0568812 0)
(-2.13095 0.0550788 2.38912e-20)
(-2.15672 0.053241 -4.71722e-20)
(-2.18167 0.0513693 0)
(-2.20578 0.0494654 -2.31381e-20)
(-2.22901 0.0475312 0)
(-2.25135 0.0455685 6.77553e-20)
(-2.27276 0.0435793 0)
(-2.29321 0.0415654 -6.61479e-20)
(-2.31267 0.0395288 -2.1801e-20)
(-2.33113 0.0374712 2.14417e-20)
(-2.34856 0.0353942 4.23169e-20)
(-2.36492 0.0332992 -4.17381e-20)
(-2.3802 0.0311875 0)
(-2.39436 0.0290598 0)
(-2.40739 0.0269168 0)
(-2.41926 0.0247584 1.18026e-19)
(-2.42995 0.022584 3.87067e-20)
(-2.43943 0.0203922 -3.80292e-20)
(-2.44769 0.0181813 0)
(-2.45471 0.0159489 -3.66038e-20)
(-2.46047 0.0136918 3.58989e-20)
(-2.46499 0.0114059 3.5155e-20)
(-2.46828 0.0090878 0)
(-2.47039 0.00674706 0)
(-2.4714 0.00442468 0)
(-2.47144 0.002184 3.19949e-20)
(-2.47041 4.73206e-05 0)
(-2.468 -0.00199486 -6.06738e-20)
(-2.46422 -0.00399864 -8.83463e-20)
(-2.45901 -0.00597736 5.71548e-20)
(-2.45236 -0.00793781 0)
(-2.44426 -0.00988045 2.68213e-20)
(-2.43469 -0.0118041 0)
(-2.42364 -0.0137067 4.96791e-20)
(-2.41111 -0.015586 -2.39601e-20)
(-2.39708 -0.0174397 -2.29705e-20)
(-2.38156 -0.0192656 0)
(-2.36454 -0.0210613 -6.23201e-20)
(-2.34602 -0.0228247 3.95304e-20)
(-2.326 -0.0245539 1.856e-20)
(-2.30449 -0.0262468 0)
(-2.2815 -0.0279015 1.63646e-20)
(-2.25702 -0.0295161 4.60539e-20)
(-2.23107 -0.031089 0)
(-2.20366 -0.0326183 2.6268e-20)
(-2.1748 -0.0341025 2.39552e-20)
(-2.14452 -0.0355399 2.16162e-20)
(-2.11281 -0.0369293 0)
(-2.07972 -0.0382692 0)
(-2.04524 -0.0395586 0)
(-2.00942 -0.0407964 -6.2256e-21)
(-1.97226 -0.0419816 -4.56971e-21)
(-1.9338 -0.0431133 0)
(-1.89407 -0.0441907 -4.62742e-21)
(-1.85309 -0.045213 -2.13098e-21)
(-1.8109 -0.0461797 0)
(-1.76752 -0.0470902 3.38229e-21)
(-1.72299 -0.0479442 1.08509e-20)
(-1.67735 -0.0487415 -8.46129e-21)
(-1.63063 -0.0494822 -9.99324e-21)
(-1.58287 -0.0501662 0)
(-1.5341 -0.0507936 0)
(-1.48437 -0.0513647 0)
(-1.43372 -0.0518798 -2.12057e-20)
(-1.38218 -0.0523394 2.26789e-20)
(-1.32981 -0.0527443 5.14893e-20)
(-1.27663 -0.0530953 -2.88091e-20)
(-1.2227 -0.0533933 3.02377e-20)
(-1.16805 -0.0536393 3.38287e-20)
(-1.11273 -0.0538343 0)
(-1.05678 -0.0539797 0)
(-1.00025 -0.0540772 -4.01507e-20)
(-0.94317 -0.054128 0)
(-0.885591 -0.0541338 0)
(-0.82755 -0.0540964 9.58924e-20)
(-0.769088 -0.0540179 0)
(-0.710244 -0.0539 5.21178e-20)
(-0.651056 -0.053745 -5.55212e-20)
(-0.59156 -0.053555 0)
(-0.531793 -0.0533324 5.89945e-20)
(-0.471786 -0.0530795 0)
(-0.411573 -0.0527984 0)
(-0.351183 -0.0524917 -6.66455e-20)
(-0.290644 -0.0521612 1.365e-19)
(-0.229983 -0.0518086 -7.08594e-20)
(-0.169224 -0.0514347 0)
(-0.108391 -0.0510387 0)
(-0.0475092 -0.0506187 7.58972e-20)
(0.0134 -0.050171 0)
(0.074311 -0.0496933 7.87865e-20)
(0.135206 -0.0491924 0)
(0.196069 -0.0486678 0)
(0.256883 -0.0481076 0)
(0.317675 -0.0475378 8.37398e-20)
(0.378435 -0.046983 0)
(0.439155 -0.0464415 -8.5487e-20)
(0.499823 -0.0459006 0)
(0.560414 -0.0453409 0)
(0.620873 -0.0447316 1.74646e-19)
(0.681088 -0.0440211 -1.75965e-19)
(0.740872 -0.043109 0)
(0.79979 -0.0418009 0)
(0.857394 -0.0395968 0)
(0.911144 -0.0355432 5.43095e-19)
(0.963608 -0.0263995 0)
(0.994167 -0.00423942 -3.69467e-19)
(0.000811839 -0.0333838 -4.30775e-23)
(-0.00243171 -0.0209115 1.29603e-19)
(-0.00877203 -0.00449545 0)
(-0.0162987 0.0105787 -1.11619e-19)
(-0.0250611 0.0241205 0)
(-0.0348991 0.0360255 0)
(-0.0458018 0.0462328 1.15604e-23)
(-0.0578289 0.0547918 4.82265e-20)
(-0.0710274 0.0618796 4.70261e-20)
(-0.0853961 0.0677561 4.59236e-20)
(-0.100891 0.0726981 0)
(-0.117448 0.0769519 0)
(-0.134998 0.0807134 -4.28346e-20)
(-0.153485 0.0841261 -8.3771e-20)
(-0.172862 0.0872897 8.19517e-20)
(-0.193096 0.0902708 0)
(-0.214169 0.0931131 7.85567e-20)
(-0.236068 0.0958451 -3.85057e-20)
(-0.258792 0.098486 0)
(-0.282346 0.10105 7.40769e-20)
(-0.306741 0.10355 3.6387e-20)
(-0.331993 0.105999 -7.14886e-20)
(-0.358124 0.108413 -3.51711e-20)
(-0.385161 0.110815 0)
(-0.413135 0.113233 6.81847e-20)
(-0.442076 0.115694 6.7236e-20)
(-0.472013 0.118224 0)
(-0.502971 0.120838 6.55636e-20)
(-0.534973 0.123545 0)
(-0.56803 0.126357 6.41633e-20)
(-0.602106 0.129284 3.17894e-20)
(-0.637106 0.1323 0)
(-0.672937 0.135315 0)
(-0.709565 0.138276 0)
(-0.746796 0.141284 0)
(-0.78413 0.144336 0)
(-0.821337 0.146946 0)
(-0.858534 0.148792 5.93753e-20)
(-0.895166 0.15022 -8.79762e-20)
(-0.931275 0.150542 0)
(-0.967435 0.150271 0)
(-1.00308 0.150602 0)
(-1.03751 0.149635 -2.63119e-23)
(-1.07213 0.147015 5.50624e-20)
(-1.10759 0.144822 1.08716e-19)
(-1.14293 0.143463 -1.07326e-19)
(-1.1776 0.142216 -5.295e-20)
(-1.2118 0.140943 5.23654e-20)
(-1.24565 0.139589 -7.70826e-23)
(-1.2792 0.138138 5.10272e-20)
(-1.31249 0.136596 0)
(-1.34557 0.134972 4.98336e-20)
(-1.37843 0.133278 -8.49221e-23)
(-1.41108 0.131524 0)
(-1.44352 0.129714 0)
(-1.47574 0.127854 -4.7629e-20)
(-1.50774 0.125945 0)
(-1.53949 0.123989 0)
(-1.57098 0.121985 4.6013e-20)
(-1.6022 0.119932 9.12383e-20)
(-1.63312 0.117828 -4.52352e-20)
(-1.66372 0.115671 0)
(-1.69399 0.11346 4.42999e-20)
(-1.7239 0.111193 0)
(-1.75342 0.10887 4.31978e-20)
(-1.78253 0.106487 4.29382e-20)
(-1.8112 0.104046 -8.47966e-20)
(-1.83941 0.101544 -4.1863e-20)
(-1.86713 0.0989834 0)
(-1.89432 0.0963629 8.21514e-20)
(-1.92097 0.0936837 0)
(-1.94703 0.0909467 1.2068e-19)
(-1.97249 0.0881533 7.95162e-20)
(-1.99731 0.0853052 7.86334e-20)
(-2.02146 0.0824043 -7.77462e-20)
(-2.04491 0.079453 1.15357e-19)
(-2.06764 0.0764536 0)
(-2.08961 0.0734087 0)
(-2.11079 0.0703211 -7.41269e-20)
(-2.13115 0.0671936 -1.09863e-19)
(-2.15067 0.0640291 0)
(-2.16931 0.0608306 3.57103e-20)
(-2.18706 0.0576009 0)
(-2.20387 0.0543427 -1.04082e-19)
(-2.21973 0.0510588 -9.22204e-23)
(-2.23461 0.0477515 8.36877e-23)
(-2.24848 0.0444232 6.63067e-20)
(-2.26131 0.0410758 0)
(-2.27309 0.0377111 -6.41822e-20)
(-2.2838 0.0343307 -4.68859e-23)
(-2.2934 0.0309362 0)
(-2.30189 0.0275292 0)
(-2.30924 0.0241118 0)
(-2.31544 0.0206871 5.85089e-20)
(-2.32049 0.0172604 0)
(-2.32438 0.0138401 0)
(-2.3271 0.0104388 0)
(-2.32867 0.0070738 0)
(-2.32906 0.00376427 0)
(-2.32825 0.000520246 5.08765e-20)
(-2.32618 -0.00268654 0)
(-2.32276 -0.00588363 4.80257e-20)
(-2.31799 -0.00906315 4.65927e-20)
(-2.31184 -0.0122215 -4.51343e-20)
(-2.30429 -0.0153554 0)
(-2.29533 -0.0184612 -4.2141e-20)
(-2.28494 -0.021535 0)
(-2.27312 -0.024573 -3.9047e-20)
(-2.25986 -0.0275712 3.74629e-20)
(-2.24515 -0.0305259 1.07917e-19)
(-2.22898 -0.0334332 0)
(-2.21136 -0.0362896 9.81002e-20)
(-2.19228 -0.0390916 3.13106e-20)
(-2.17175 -0.0418359 0)
(-2.14976 -0.0445195 5.54003e-20)
(-2.12633 -0.0471391 5.19376e-20)
(-2.10146 -0.049692 -7.23981e-20)
(-2.07516 -0.0521753 0)
(-2.04744 -0.0545864 -2.03836e-20)
(-2.01831 -0.0569225 -1.85676e-20)
(-1.98779 -0.0591815 -5.07948e-20)
(-1.9559 -0.061361 0)
(-1.92264 -0.0634589 0)
(-1.88805 -0.0654736 0)
(-1.85214 -0.0674034 -9.92731e-21)
(-1.81494 -0.0692467 0)
(-1.77647 -0.0710024 0)
(-1.73676 -0.0726691 3.55487e-21)
(-1.69584 -0.074246 1.63529e-21)
(-1.65373 -0.0757319 0)
(-1.61048 -0.0771262 0)
(-1.5661 -0.0784285 -8.30053e-21)
(-1.52063 -0.0796387 0)
(-1.47412 -0.0807568 1.60326e-20)
(-1.42659 -0.081783 1.91092e-20)
(-1.37809 -0.0827177 0)
(-1.32864 -0.0835613 0)
(-1.2783 -0.0843145 -3.06329e-20)
(-1.22709 -0.0849783 -8.15991e-22)
(-1.17507 -0.085554 -8.21268e-22)
(-1.12227 -0.0860432 0)
(-1.06873 -0.0864473 -9.24476e-20)
(-1.01449 -0.0867681 0)
(-0.959606 -0.0870074 0)
(-0.904106 -0.0871677 0)
(-0.848034 -0.0872515 6.14555e-20)
(-0.791433 -0.0872612 0)
(-0.734342 -0.0871995 -1.35677e-19)
(-0.676801 -0.0870696 -7.22282e-20)
(-0.618851 -0.0868745 0)
(-0.560528 -0.0866177 -7.92154e-20)
(-0.501869 -0.0863025 0)
(-0.442911 -0.0859326 0)
(-0.383687 -0.0855117 -2.66462e-19)
(-0.32423 -0.0850436 1.83682e-19)
(-0.26457 -0.0845321 0)
(-0.204736 -0.0839808 1.9655e-19)
(-0.144756 -0.083393 -1.02208e-19)
(-0.0846547 -0.0827715 0)
(-0.0244549 -0.0821187 0)
(0.0358212 -0.0814365 0)
(0.0961526 -0.0807243 -3.36989e-19)
(0.156521 -0.0799808 0)
(0.216911 -0.0792065 -1.16692e-19)
(0.277311 -0.0784079 0)
(0.337725 -0.0775979 0)
(0.398172 -0.0767869 0)
(0.45865 -0.0759814 0)
(0.51914 -0.0751878 0)
(0.579627 -0.074401 0)
(0.640088 -0.0736046 -2.55261e-19)
(0.700491 -0.0727704 0)
(0.760778 -0.0718518 -1.30987e-19)
(0.820843 -0.0707685 3.95505e-19)
(0.880511 -0.069372 0)
(0.939419 -0.0673798 0)
(0.997226 -0.064177 -2.70373e-19)
(1.05223 -0.0585912 -2.73899e-19)
(1.1071 -0.0476888 2.75893e-19)
(1.1498 -0.0251956 2.80692e-19)
(-0.00288445 -0.0250981 -2.0534e-19)
(-0.0111062 -0.00505292 -1.89736e-19)
(-0.0209438 0.0142069 -1.13985e-19)
(-0.0315506 0.0310486 -5.24388e-20)
(-0.0429542 0.0460875 0)
(-0.0549718 0.059486 9.44627e-20)
(-0.0676299 0.071297 -4.55659e-20)
(-0.081029 0.0815868 0)
(-0.0952623 0.0904829 -4.30688e-20)
(-0.11039 0.0981703 0)
(-0.126436 0.104862 8.20608e-20)
(-0.143397 0.110769 0)
(-0.161257 0.116077 3.92255e-20)
(-0.179989 0.120935 7.67642e-20)
(-0.19957 0.12546 -7.51532e-20)
(-0.219981 0.129737 0)
(-0.241208 0.133829 -7.21531e-20)
(-0.263246 0.137779 0)
(-0.286091 0.141619 0)
(-0.309746 0.145375 -6.81863e-20)
(-0.334215 0.149067 0)
(-0.359507 0.152714 4.81069e-24)
(-0.385628 0.156337 0)
(-0.412582 0.159955 0)
(-0.440367 0.163588 -4.60543e-24)
(-0.468973 0.16725 -6.19627e-20)
(-0.498377 0.170945 -6.11118e-20)
(-0.52854 0.174661 -6.03146e-20)
(-0.559407 0.178368 0)
(-0.590904 0.182023 -1.17629e-19)
(-0.622927 0.185567 0)
(-0.655347 0.188926 -5.73956e-20)
(-0.688035 0.192008 0)
(-0.720877 0.194748 0)
(-0.753722 0.197142 5.5269e-20)
(-0.786362 0.199154 0)
(-0.818672 0.200581 -5.38159e-20)
(-0.850667 0.201312 -6.02666e-24)
(-0.882337 0.201511 1.04673e-19)
(-0.913685 0.201075 -1.03189e-19)
(-0.944842 0.200158 0)
(-0.975755 0.19917 0)
(-1.00636 0.197671 -4.94278e-20)
(-1.03692 0.195493 0)
(-1.06761 0.193215 -4.80717e-20)
(-1.09826 0.191094 4.74157e-20)
(-1.12874 0.189026 4.67781e-20)
(-1.15904 0.186963 0)
(-1.18919 0.184874 -4.55576e-20)
(-1.21918 0.18274 -4.49735e-20)
(-1.24904 0.180555 8.87498e-20)
(-1.27877 0.178315 -4.38539e-20)
(-1.30838 0.176019 -4.33167e-20)
(-1.33786 0.173668 0)
(-1.36721 0.171261 0)