/*--------------------------------*- C++ -*----------------------------------*\
  =========                 |
  \\      /  F ield         | OpenFOAM: The Open Source CFD Toolbox
   \\    /   O peration     | Website:  https://openfoam.org
    \\  /    A nd           | Version:  12
     \\/     M anipulation  |
\*---------------------------------------------------------------------------*/
FoamFile
{
    format      ascii;
    class       volScalarField;
    location    "19.84";
    object      p_rgh;
}
// * * * * * * * * * * * * * * * * * * * * * * * * * * * * * * * * * * * * * //

dimensions      [1 -1 -2 0 0 0 0];

internalField   nonuniform List<scalar> 
3829
(
-0.0428656
-0.0427871
-0.0426383
-0.0424089
-0.0420944
-0.0416853
-0.0411731
-0.0405465
-0.0397938
-0.0389026
-0.0378597
-0.0366527
-0.035269
-0.033698
-0.0319305
-0.02996
-0.0277838
-0.025403
-0.0228237
-0.0200569
-0.017119
-0.0140334
-0.0108307
-0.00755033
-0.00424055
-0.000959712
0.00222328
0.00523032
0.00797325
0.010354
0.0122648
0.0135878
0.0141989
0.0139664
0.0127537
0.0104201
0.00682408
0.00182395
-0.004668
-0.0127773
-0.0226088
-0.0342474
-0.0477577
-0.0631831
-0.0805465
-0.0998466
-0.121058
-0.144128
-0.168974
-0.195485
-0.223515
-0.252884
-0.283379
-0.314755
-0.346731
-0.378999
-0.411212
-0.443006
-0.473988
-0.503751
-0.53187
-0.557906
-0.581422
-0.60198
-0.619157
-0.632546
-0.641761
-0.646437
-0.646214
-0.640981
-0.630473
-0.614547
-0.593176
-0.566348
-0.533944
-0.496402
-0.454058
-0.406897
-0.356055
-0.302048
-0.245516
-0.187216
-0.127989
-0.068757
-0.0105
0.0457677
0.0989919
0.148129
0.192174
0.230175
0.261264
0.284675
0.299833
0.306193
0.302748
0.289702
0.26738
0.236245
0.196908
0.150155
0.0970427
0.0388579
-0.0228836
-0.086496
-0.150215
-0.21196
-0.269853
-0.321968
-0.366465
-0.401678
-0.426203
-0.438954
-0.439245
-0.425379
-0.398383
-0.359169
-0.30885
-0.248966
-0.181565
-0.109043
-0.0332059
0.0405452
0.110104
0.172399
0.22449
0.263804
0.288335
0.296724
0.286869
0.259845
0.217028
0.160343
0.0925332
0.0169182
-0.0621414
-0.139936
-0.211986
-0.273769
-0.321273
-0.351316
-0.361754
-0.350265
-0.318509
-0.268768
-0.204431
-0.13021
-0.0514191
0.0245313
0.0914432
0.143425
0.175505
0.184322
0.164331
0.119743
0.0538634
-0.0283439
-0.120741
-0.214119
-0.299267
-0.36816
-0.413381
-0.429706
-0.411704
-0.36287
-0.287381
-0.191469
-0.0783135
0.0245846
0.112541
0.176334
0.208655
0.20408
0.165543
0.0985821
0.0109817
-0.0815568
-0.166417
-0.231625
-0.267692
-0.269021
-0.237769
-0.178995
-0.103547
-0.0281332
0.034288
0.071352
0.0742087
0.0420901
-0.0240867
-0.106258
-0.191628
-0.263099
-0.303731
-0.304469
-0.261604
-0.181758
-0.0791026
0.026837
0.11428
0.164132
-0.0469931
-0.0470229
-0.0470839
-0.0471702
-0.0472696
-0.047365
-0.0474335
-0.0474469
-0.0473713
-0.0471683
-0.0467952
-0.0462056
-0.0453514
-0.0441846
-0.0426574
-0.0407229
-0.0383384
-0.0354666
-0.0320777
-0.0281535
-0.0236889
-0.0186933
-0.0131924
-0.00722912
-0.000864866
0.00582014
0.0127268
0.0197359
0.0267098
0.0334942
0.0399185
0.0457996
0.0509426
0.0551459
0.0582082
0.05994
0.0601935
0.058221
0.0539776
0.0473599
0.0382736
0.026655
0.0124656
-0.00432414
-0.023735
-0.0457696
-0.0704096
-0.0976051
-0.12727
-0.159274
-0.19344
-0.229541
-0.2673
-0.306398
-0.346472
-0.387117
-0.427888
-0.468311
-0.507882
-0.546069
-0.582328
-0.616099
-0.646819
-0.673933
-0.696912
-0.715237
-0.728412
-0.73602
-0.737677
-0.73309
-0.722015
-0.704326
-0.68003
-0.647921
-0.609476
-0.564797
-0.514184
-0.458105
-0.397138
-0.331393
-0.263085
-0.192527
-0.120807
-0.0490676
0.0214819
0.0895908
0.153963
0.213302
0.266377
0.311987
0.349064
0.376664
0.393917
0.400446
0.395168
0.378291
0.350091
0.311039
0.261851
0.203527
0.137408
0.0651058
-0.0115036
-0.0903331
-0.169121
-0.245459
-0.316953
-0.381224
-0.436006
-0.47924
-0.50916
-0.524378
-0.52405
-0.507039
-0.474085
-0.42604
-0.364242
-0.290705
-0.208063
-0.119302
-0.0242373
0.0657789
0.150718
0.226727
0.290129
0.337706
0.366918
0.376056
0.363383
0.329781
0.276674
0.206451
0.122567
0.0291309
-0.0683507
-0.163982
-0.252314
-0.327785
-0.385394
-0.421224
-0.432579
-0.417614
-0.377714
-0.315401
-0.234886
-0.141962
-0.0429787
0.0518464
0.135146
0.19971
0.239385
0.249943
0.227146
0.173931
0.0940444
-0.00620893
-0.118981
-0.23314
-0.337297
-0.421483
-0.476505
-0.49592
-0.475141
-0.4171
-0.32746
-0.21632
-0.0660229
0.0529945
0.156941
0.232149
0.268935
0.261948
0.213225
0.129563
0.0204773
-0.0931882
-0.196428
-0.274649
-0.316285
-0.315723
-0.27485
-0.200244
-0.105814
-0.0115626
0.0663929
0.112565
0.116988
0.0778733
-0.00210321
-0.102799
-0.207361
-0.29503
-0.346234
-0.348986
-0.298788
-0.204024
-0.0815493
0.0451152
0.149909
0.209627
-0.0522704
-0.0527264
-0.0536358
-0.0549802
-0.0567241
-0.058809
-0.0611614
-0.0636847
-0.0662715
-0.0687948
-0.0711234
-0.0731151
-0.0746308
-0.0755407
-0.0757079
-0.0749792
-0.0732123
-0.0702786
-0.0660685
-0.0604957
-0.0535033
-0.0450673
-0.0352008
-0.023956
-0.0114276
0.00224727
0.0168897
0.0322783
0.048149
0.0642039
0.0801132
0.095515
0.110022
0.123219
0.134668
0.143898
0.150368
0.154578
0.155893
0.153961
0.148475
0.139156
0.125767
0.108134
0.086157
0.0598069
0.0291295
-0.00576096
-0.0446824
-0.0873872
-0.13357
-0.182866
-0.234848
-0.289036
-0.344882
-0.4018
-0.459141
-0.516213
-0.572299
-0.626651
-0.678491
-0.727025
-0.771329
-0.810856
-0.844774
-0.872362
-0.892942
-0.905902
-0.910704
-0.906871
-0.894038
-0.871959
-0.840584
-0.800373
-0.751114
-0.693158
-0.627009
-0.553348
-0.473005
-0.386951
-0.296223
-0.202286
-0.107019
-0.0118232
0.0817395
0.171993
0.257181
0.335571
0.405459
0.465276
0.513504
0.548875
0.570375
0.576989
0.568044
0.543684
0.504145
0.449975
0.38212
0.301984
0.211424
0.112637
0.00817673
-0.099145
-0.206169
-0.309713
-0.406518
-0.493367
-0.567207
-0.625268
-0.665194
-0.685117
-0.683717
-0.660375
-0.615625
-0.550482
-0.466724
-0.367193
-0.255572
-0.13608
-0.00745848
0.113353
0.227309
0.329051
0.413594
0.476566
0.514451
0.524889
0.506559
0.460113
0.387283
0.291387
0.177266
0.0505473
-0.0814838
-0.21047
-0.329179
-0.430075
-0.506466
-0.552881
-0.56596
-0.543996
-0.48834
-0.402299
-0.291697
-0.163923
-0.0252029
0.104584
0.218171
0.306187
0.360273
0.374521
0.345617
0.275579
0.169098
0.0348995
-0.116179
-0.26918
-0.408765
-0.521449
-0.594794
-0.619997
-0.592869
-0.515676
-0.395661
-0.244743
-0.0588201
0.101381
0.238644
0.336316
0.381789
0.369691
0.301517
0.186257
0.0363899
-0.116694
-0.253819
-0.355814
-0.407498
-0.402692
-0.343444
-0.23904
-0.10918
0.020127
0.126869
0.189971
0.196919
0.145072
0.0377942
-0.096685
-0.236675
-0.354362
-0.424686
-0.430839
-0.367146
-0.24495
-0.0860957
0.0785973
0.215008
0.292721
-0.0279894
-0.0296261
-0.0329118
-0.0378139
-0.0442494
-0.0520756
-0.0611015
-0.0710762
-0.0817186
-0.0926993
-0.103684
-0.114296
-0.12414
-0.132772
-0.139758
-0.144687
-0.147176
-0.146874
-0.143487
-0.136781
-0.126591
-0.112833
-0.095516
-0.0747401
-0.0507026
-0.023693
0.00590221
0.0376194
0.0709167
0.1052
0.13982
0.174104
0.20737
0.238969
0.268323
0.295034
0.314448
0.32885
0.33806
0.341778
0.339698
0.331527
0.317002
0.295918
0.26816
0.2337
0.192608
0.14505
0.0912936
0.0317067
-0.0332392
-0.102985
-0.176884
-0.254199
-0.334119
-0.415782
-0.498226
-0.58045
-0.661407
-0.740029
-0.815227
-0.885586
-0.950489
-1.00861
-1.0589
-1.10034
-1.13199
-1.15299
-1.16262
-1.16022
-1.14534
-1.11763
-1.07676
-1.02375
-0.958236
-0.880623
-0.791648
-0.692322
-0.583909
-0.467928
-0.346121
-0.21417
-0.0858631
0.0428343
0.169512
0.291736
0.40704
0.512946
0.607166
0.687416
0.751745
0.79826
0.825581
0.832276
0.817965
0.782571
0.726308
0.649932
0.55481
0.442919
0.316829
0.179596
0.0347606
-0.11386
-0.261813
-0.404737
-0.538127
-0.657574
-0.758882
-0.838248
-0.892438
-0.918862
-0.915613
-0.882793
-0.820452
-0.72994
-0.613899
-0.476159
-0.321699
-0.156211
0.0157533
0.18254
0.339069
0.478219
0.593307
0.678419
0.728704
0.740933
0.713999
0.648348
0.546419
0.413021
0.254822
0.0796949
-0.102307
-0.279595
-0.442273
-0.57987
-0.683202
-0.744857
-0.759964
-0.727341
-0.648212
-0.527541
-0.374311
-0.200358
0.00735536
0.183268
0.339468
0.461231
0.536364
0.556255
0.518121
0.423137
0.277797
0.0943073
-0.112426
-0.321592
-0.512384
-0.666219
-0.765932
-0.799416
-0.762487
-0.656894
-0.492734
-0.285949
-0.045775
0.172059
0.356901
0.486704
0.544684
0.524803
0.428515
0.267443
0.0558658
-0.15381
-0.338745
-0.474152
-0.540029
-0.528122
-0.441698
-0.293972
-0.112886
0.0669374
0.214968
0.302321
0.312287
0.241622
0.0952617
-0.0878917
-0.278719
-0.43953
-0.536693
-0.547406
-0.464408
-0.303228
-0.092712
0.125925
0.30697
0.410114
0.0631333
0.0585781
0.0494847
0.0359051
0.017921
-0.00400709
-0.0293975
-0.0575463
-0.0877457
-0.119184
-0.151104
-0.182488
-0.212396
-0.239767
-0.263661
-0.283077
-0.297095
-0.304884
-0.305818
-0.299458
-0.285468
-0.263723
-0.23431
-0.197516
-0.153848
-0.103995
-0.0488686
0.010489
0.0728779
0.13703
0.201603
0.265186
0.326328
0.383575
0.435477
0.480606
0.522603
0.557124
0.583155
0.599882
0.606677
0.603102
0.588904
0.563987
0.528386
0.482277
0.425967
0.359884
0.284575
0.200694
0.109011
0.010399
-0.0941474
-0.20356
-0.316663
-0.432187
-0.548784
-0.665053
-0.779482
-0.890613
-0.996939
-1.09689
-1.18895
-1.2716
-1.34341
-1.40302
-1.44914
-1.48061
-1.49641
-1.49582
-1.47829
-1.4436
-1.38993
-1.31917
-1.23144
-1.12733
-1.00783
-0.874194
-0.728061
-0.571362
-0.406201
-0.23482
-0.0608254
0.113028
0.283762
0.448209
0.603031
0.745014
0.870922
0.977847
1.06289
1.12377
1.15814
1.16517
1.14377
1.0937
1.01527
0.909567
0.778543
0.624935
0.452248
0.26463
0.0668963
-0.135839
-0.337176
-0.531388
-0.712377
-0.874167
-1.01107
-1.11795
-1.19041
-1.22505
-1.21968
-1.17388
-1.08788
-0.963677
-0.805004
-0.617224
-0.406984
-0.182087
0.0498055
0.275586
0.487241
0.674968
0.82962
0.943244
1.00933
1.02347
0.9848
0.89343
0.752984
0.570051
0.353788
0.11536
-0.131987
-0.372497
-0.592442
-0.777791
-0.915945
-0.997157
-1.01455
-0.967025
-0.856111
-0.688765
-0.477187
-0.236976
0.0417962
0.283924
0.498081
0.664644
0.767371
0.794864
0.744288
0.616121
0.419685
0.171618
-0.108024
-0.390469
-0.647914
-0.8552
-0.989141
-1.03331
-0.98299
-0.839932
-0.618359
-0.340008
-0.0247729
0.26633
0.512216
0.682778
0.75663
0.725852
0.593744
0.375635
0.0733406
-0.206632
-0.451918
-0.629767
-0.713241
-0.691105
-0.568647
-0.364073
-0.116162
0.129314
0.330583
0.449222
0.46243
0.366888
0.169715
-0.0765221
-0.3331
-0.549397
-0.680771
-0.697128
-0.589259
-0.378058
-0.101368
0.186206
0.424194
0.55977
0.288924
0.280161
0.262246
0.234725
0.188877
0.134185
0.0721091
0.00443194
-0.0674481
-0.141999
-0.217899
-0.29313
-0.365596
-0.432937
-0.492881
-0.543237
-0.582049
-0.607648
-0.618769
-0.614518
-0.594466
-0.55857
-0.507237
-0.441218
-0.361729
-0.270329
-0.169106
-0.0602266
0.0537329
0.170327
0.28681
0.400674
0.509364
0.610784
0.703201
0.784073
0.853024
0.909007
0.951115
0.978615
0.990974
0.987865
0.969162
0.934926
0.885391
0.820965
0.742214
0.649849
0.544735
0.427883
0.300432
0.163653
0.0189373
-0.132201
-0.288125
-0.447113
-0.607325
-0.766848
-0.923652
-1.07587
-1.22141
-1.3582
-1.48423
-1.5975
-1.69607
-1.77814
-1.84206
-1.88633
-1.90964
-1.9108
-1.88885
-1.84297
-1.7748
-1.68312
-1.56843
-1.43179
-1.27463
-1.09869
-0.906177
-0.699717
-0.482263
-0.257112
-0.0280669
0.200817
0.425514
0.641713
0.845101
1.03124
1.19608
1.3355
1.44602
1.52428
1.56773
1.57447
1.54383
1.47519
1.36903
1.22689
1.05142
0.846284
0.616132
0.366493
0.103617
-0.166225
-0.4332
-0.690322
-0.929593
-1.14314
-1.32352
-1.46392
-1.55862
-1.60304
-1.59386
-1.53155
-1.41601
-1.24996
-1.03847
-0.788754
-0.509754
-0.211741
0.0943198
0.392619
0.671833
0.918981
1.12188
1.27009
1.3552
1.37133
1.31737
1.19363
1.00521
0.76087
0.472937
0.156286
-0.171593
-0.489712
-0.779894
-1.0236
-1.20426
-1.3089
-1.32851
-1.26181
-1.11089
-0.885184
-0.600364
-0.275888
0.081564
0.407486
0.693943
0.916096
1.05285
1.08972
1.02303
0.853372
0.593734
0.266113
-0.103298
-0.475604
-0.814724
-1.08734
-1.26288
-1.32019
-1.25263
-1.06309
-0.770921
-0.405005
0.00392101
0.384179
0.703936
0.92362
1.01551
0.970073
0.794845
0.515548
0.0809586
-0.275452
-0.592554
-0.821726
-0.925971
-0.890342
-0.722958
-0.448207
-0.118297
0.207458
0.473549
0.629775
0.646221
0.519747
0.260406
-0.0628034
-0.399271
-0.682901
-0.85527
-0.878163
-0.740132
-0.468443
-0.111956
0.258525
0.564945
0.739475
0.711595
0.687359
0.638719
0.566203
0.480079
0.369672
0.237102
0.0872571
-0.0736122
-0.237689
-0.401607
-0.559522
-0.707031
-0.839753
-0.954306
-1.04764
-1.11735
-1.16167
-1.17946
-1.16997
-1.13283
-1.06771
-0.975261
-0.856422
-0.713493
-0.549393
-0.36877
-0.176631
0.0215731
0.220914
0.415965
0.601861
0.775018
0.93329
1.0733
1.19622
1.2994
1.38148
1.44168
1.47961
1.49513
1.48835
1.4596
1.40937
1.33837
1.24741
1.13751
1.00981
0.865599
0.706312
0.533543
0.349021
0.154598
-0.0477263
-0.255824
-0.467435
-0.680125
-0.891506
-1.09903
-1.30012
-1.49215
-1.67248
-1.83853
-1.98772
-2.11765
-2.22597
-2.31056
-2.36958
-2.40129
-2.40443
-2.37813
-2.32022
-2.23243
-2.11459
-1.96727
-1.79172
-1.58974
-1.36361
-1.1162
-0.850903
-0.571548
-0.282461
0.0116705
0.305399
0.593582
0.870699
1.1311
1.36916
1.57953
1.75707
1.89721
1.99569
2.04938
2.05559
2.01364
1.92271
1.78346
1.59805
1.36997
1.10394
0.806004
0.483415
0.144294
-0.205909
-0.549612
-0.880453
-1.18805
-1.46223
-1.69331
-1.8726
-1.99266
-2.04776
-2.03447
-1.95211
-1.80118
-1.5854
-1.31137
-0.988354
-0.628111
-0.244005
0.149417
0.533058
0.891493
1.20812
1.46738
1.65577
1.76271
1.7806
1.70797
1.5455
1.29997
0.982948
0.610339
0.201369
-0.221394
-0.630734
-1.00342
-1.31537
-1.54551
-1.6769
-1.69882
-1.60883
-1.41013
-1.11516
-0.74418
-0.32226
0.13269
0.555125
0.92602
1.21338
1.39013
1.43767
1.3513
1.13224
0.797762
0.37621
-0.0983911
-0.576297
-1.01129
-1.36026
-1.58428
-1.65668
-1.56805
-1.3234
-0.948035
-0.479202
0.0402489
0.52454
0.929946
1.20601
1.31757
1.25289
1.02458
0.669773
0.0927498
-0.356209
-0.758432
-1.04753
-1.17581
-1.1235
-0.902545
-0.544997
-0.118678
0.301035
0.64266
0.841998
0.86145
0.698161
0.366055
-0.0471013
-0.476507
-0.838142
-1.05772
-1.08785
-0.914658
-0.572955
-0.124277
0.341719
0.726941
0.946288
1.60986
1.5698
1.49074
1.37419
1.22301
1.02979
0.801944
0.547563
0.275968
-0.00542442
-0.289826
-0.568982
-0.837978
-1.08988
-1.3182
-1.51663
-1.67927
-1.80056
-1.87552
-1.89975
-1.87079
-1.78764
-1.65102
-1.46337
-1.22951
-0.955833
-0.652438
-0.332967
-0.00530675
0.317339
0.624536
0.908915
1.16768
1.39772
1.59868
1.76754
1.90399
2.00817
2.08044
2.12138
2.1317
2.11231
2.06423
1.98858
1.88662
1.75969
1.60925
1.43689
1.24433
1.03343
0.806224
0.564891
0.311819
0.0495113
-0.219358
-0.492005
-0.765412
-1.03659
-1.30234
-1.55946
-1.80472
-2.03476
-2.24638
-2.43639
-2.60176
-2.73964
-2.84741
-2.92257
-2.96314
-2.96738
-2.93393
-2.86316
-2.75385
-2.60636
-2.4217
-2.20158
-1.94829
-1.66473
-1.35456
-1.0221
-0.672173
-0.310206
0.0581993
0.425688
0.786
1.13227
1.45732
1.7542
2.0161
2.2367
2.41015
2.53137
2.59634
2.60159
2.54629
2.42951
2.25226
2.01732
1.72907
1.39347
1.0183
0.612752
0.187708
-0.254959
-0.684908
-1.09915
-1.48409
-1.82678
-2.11507
-2.33815
-2.48672
-2.55386
-2.53517
-2.42929
-2.23751
-1.9648
-1.61934
-1.21285
-0.760102
-0.277934
0.214989
0.695326
1.14346
1.53864
1.86144
2.09485
2.22581
2.24529
2.15074
1.94368
1.63271
1.23266
0.763361
0.249276
-0.281217
-0.794202
-1.26029
-1.64932
-1.93508
-2.09636
-2.12031
-2.0031
-1.74956
-1.37551
-0.906431
-0.374015
0.19373
0.725182
1.19143
1.5523
1.77409
1.83377
1.72414
1.44844
1.02855
0.500043
-0.093598
-0.691393
-1.23492
-1.67017
-1.94871
-2.03756
-1.9243
-1.61657
-1.14652
-0.560876
0.0839649
0.685585
1.1872
1.5258
1.65812
1.56927
1.27684
0.829175
0.114187
-0.446176
-0.947236
-1.30447
-1.45913
-1.38695
-1.10433
-0.652648
-0.116905
0.408971
0.835369
1.08264
1.10482
0.899116
0.484697
-0.0299502
-0.563669
-1.01251
-1.28469
-1.32254
-1.10972
-0.689631
-0.138047
0.434331
0.907225
1.17641
2.99145
2.91139
2.75169
2.50771
2.17471
1.76113
1.23526
0.612894
0.030288
-0.514224
-1.04484
-1.56584
-2.04499
-2.47228
-2.83857
-3.13681
-3.36222
-3.51146
-3.58191
-3.57135
-3.47739
-3.29746
-3.03171
-2.67913
-2.24432
-1.73318
-1.15932
-0.559052
0.0249486
0.554896
1.02588
1.43142
1.77934
2.07481
2.3226
2.52411
2.6803
2.79286
2.86367
2.89456
2.88735
2.84378
2.76554
2.65431
2.51175
2.33965
2.13983
1.91427
1.66507
1.3945
1.10502
0.799278
0.480117
0.150557
-0.186213
-0.526749
-0.867574
-1.20491
-1.53495
-1.85381
-2.15755
-2.44215
-2.70373
-2.9384
-3.14249
-3.31255
-3.44539
-3.53809
-3.58811
-3.5935
-3.55275
-3.46574
-3.33153
-3.15061
-2.9242
-2.65441
-2.34407
-1.99678
-1.61704
-1.2102
-0.782152
-0.339591
0.110823
0.559717
0.999616
1.42206
1.81832
2.17985
2.49841
2.76623
2.97612
3.12202
3.19885
3.20281
3.1324
2.98673
2.76719
2.47723
2.12224
1.70957
1.24869
0.750643
0.228082
-0.308386
-0.836018
-1.34288
-1.81309
-2.23109
-2.58219
-2.85314
-3.03283
-3.11279
-3.08718
-2.95477
-2.71743
-2.38139
-1.95685
-1.45803
-0.903096
-0.312544
0.290096
0.876869
1.42364
1.90507
2.29738
2.57994
2.73682
2.7574
2.63792
2.38112
1.99746
1.50533
0.929128
0.298874
-0.350601
-0.977649
-1.54636
-2.0201
-2.36653
-2.5603
-2.58577
-2.43784
-2.12321
-1.6614
-1.0839
-0.429918
0.26339
0.914903
1.48588
1.92732
2.19815
2.27081
2.13492
1.79634
1.28196
0.635648
-0.0896861
-0.819212
-1.4819
-2.01181
-2.34997
-2.45628
-2.31511
-1.93731
-1.36253
-0.648175
0.134563
0.864863
1.47156
1.87776
2.03128
1.91376
1.54705
0.985197
0.149825
-0.544304
-1.15604
-1.58842
-1.77116
-1.67607
-1.32469
-0.768815
-0.112752
0.529541
1.04831
1.3474
1.37195
1.11998
0.612802
-0.0118878
-0.659211
-1.20285
-1.53198
-1.57775
-1.32163
-0.816211
-0.152934
0.534638
1.10235
1.42542
5.12745
5.02502
4.82299
4.50984
4.07153
3.48837
2.76595
1.92373
0.893941
-0.122295
-1.00776
-1.78743
-2.48633
-3.0979
-3.62202
-4.05453
-4.39191
-4.62994
-4.76426
-4.79066
-4.70353
-4.49477
-4.16339
-3.69858
-3.09923
-2.35877
-1.41557
-0.457441
0.387043
1.06905
1.656
2.16849
2.60284
2.96207
3.24886
3.46732
3.62423
3.72617
3.7778
3.78277
3.74403
3.66398
3.54476
3.38832
3.19659
2.97148
2.71507
2.42952
2.11721
1.78075
1.42295
1.04685
0.655761
0.253217
-0.156991
-0.570935
-0.984366
-1.39289
-1.79201
-2.17713
-2.54359
-2.88662
-3.20159
-3.48393
-3.72929
-3.93357
-4.09294
-4.20401
-4.26383
-4.27002
-4.22102
-4.11596
-3.95441
-3.737
-3.46519
-3.14152
-2.76944
-2.35328
-1.89845
-1.41132
-0.899057
-0.369666
0.168823
0.705314
1.23077
1.73504
2.20772
2.63855
3.01772
3.33594
3.58473
3.75678
3.84601
3.84824
3.76116
3.58404
3.31866
2.96921
2.54219
2.04643
1.49325
0.895992
0.26963
-0.370443
-1.00185
-1.60784
-2.16942
-2.66807
-3.08626
-3.40817
-3.62058
-3.71329
-3.68005
-3.51874
-3.23202
-2.8274
-2.3174
-1.71911
-1.05417
-0.347161
0.373363
1.0744
1.72698
2.30074
2.7673
3.10217
3.28629
3.30735
3.16048
2.84958
2.38727
1.79576
1.10454
0.349041
-0.428338
-1.17771
-1.85646
-2.42086
-2.83207
-3.06024
-3.08658
-2.905
-2.52408
-1.96754
-1.27338
-0.4884
0.340446
1.12065
1.80393
2.33153
2.65458
2.74042
2.57592
2.16934
1.5531
0.780169
-0.0866697
-0.957483
-1.74779
-2.37886
-2.78044
-2.90484
-2.73317
-2.27952
-1.59176
-0.739512
0.191218
1.0592
1.778
2.25575
2.43047
2.28058
1.83249
1.14946
0.184254
-0.651129
-1.38164
-1.89413
-2.10618
-1.98553
-1.55934
-0.891418
-0.106107
0.660563
1.27755
1.63131
1.65766
1.35604
0.7483
0.00669403
-0.761374
-1.40557
-1.79492
-1.84859
-1.54627
-0.950156
-0.168596
0.640734
1.30857
1.68853
7.87653
7.75161
7.49385
7.07061
6.43299
5.50002
4.13963
2.24152
0.258912
-1.44646
-2.86364
-4.07287
-5.0923
-5.94193
-6.63342
-7.17538
-7.57401
-7.83285
-7.95274
-7.9318
-7.76222
-7.42986
-6.92558
-6.22705
-5.3068
-4.12933
-2.56566
-0.58529
0.973261
2.0494
2.83422
3.41704
3.85254
4.17768
4.41788
4.59069
4.70596
4.76796
4.78002
4.74449
4.66328
4.53814
4.37078
4.16292
3.91637
3.63312
3.31524
2.96508
2.58526
2.17866
1.74841
1.29797
0.831076
0.35178
-0.135615
-0.626548
-1.11608
-1.59915
-2.07054
-2.52493
-2.95688
-3.36089
-3.73156
-4.06355
-4.3518
-4.59153
-4.7783
-4.90817
-4.97772
-4.98424
-4.92583
-4.80134
-4.6106
-4.35437
-4.03439
-3.65368
-3.21633
-2.72743
-2.19336
-1.62163
-1.02065
-0.399844
0.231255
0.859866
1.47522
2.06543
2.61829
3.12177
3.5644
3.93531
4.22464
4.42383
4.52579
4.52576
4.42076
4.21026
3.89638
3.48409
2.9811
2.39771
1.74741
1.04596
0.310816
-0.4391
-1.17917
-1.88905
-2.54639
-3.12943
-3.61762
-3.99257
-4.23889
-4.34453
-4.30272
-4.11066
-3.77163
-3.29455
-2.69425
-1.9911
-1.21049
-0.381149
0.463194
1.28424
2.04781
2.7182
3.26239
3.65176
3.86397
3.88482
3.70867
3.34031
2.79486
2.09844
1.28617
0.398989
-0.512834
-1.39061
-2.18476
-2.84396
-3.32294
-3.58675
-3.61325
-3.39579
-2.94471
-2.28819
-1.47104
-0.548149
0.423232
1.33841
2.13946
2.75727
3.13476
3.23375
3.0388
2.56039
1.83679
0.930677
-0.0847426
-1.10362
-2.02759
-2.76446
-3.2321
-3.37489
-3.17074
-2.63682
-1.83004
-0.833061
0.252856
1.26495
2.10075
2.65275
2.84852
2.66335
2.12873
1.32003
0.2157
-0.765604
-1.62024
-2.2161
-2.45806
-2.30954
-1.80371
-1.01814
-0.0970752
0.799611
1.51885
1.92899
1.95641
1.60249
0.888772
0.025489
-0.868311
-1.61694
-2.0686
-2.12997
-1.77939
-1.08893
-0.184696
0.750667
1.52205
1.96083
10.6018
10.4541
10.1937
9.78733
9.25009
8.58769
7.92154
7.0511
3.27823
3.66968
4.06132
4.47005
4.84883
5.18061
5.44066
5.63681
5.76749
5.84099
5.85977
5.82702
5.7449
5.61534
5.43982
5.21974
4.95655
4.65187
4.30752
3.92556
3.5084
3.05876
2.57974
2.0748
1.54778
1.00288
0.444639
-0.122068
-0.692055
-1.25969
-1.81925
-2.36476
-2.89015
-3.38922
-3.85566
-4.28331
-4.66604
-4.99807
-5.27389
-5.48846
-5.63724
-5.71633
-5.72264
-5.65404
-5.50916
-5.28792
-4.99126
-4.62126
-4.18141
-3.67647
-3.11233
-2.49635
-1.83723
-1.14468
-0.429562
0.29708
1.02062
1.72859
2.40726
3.0426
3.62078
4.12859
4.55355
4.88434
5.11116
5.22594
5.22315
5.09937
4.85415
4.49
4.0127
3.43106
2.75723
2.00677
1.19777
0.35059
-0.512705
-1.36458
-2.18125
-2.93693
-3.6066
-4.16661
-4.59588
-4.87673
-4.9954
-4.9441
-4.7199
-4.32655
-3.77447
-3.08079
-2.26921
-1.36926
-0.414011
0.557897
1.50248
2.38014
3.14981
3.77363
4.21866
4.45937
4.47941
4.2726
3.84449
3.21295
2.40799
1.47075
0.4478
-0.602393
-1.61237
-2.52524
-3.28173
-3.83012
-4.13008
-4.15625
-3.90134
-3.37751
-2.61744
-1.67307
-0.608199
0.510004
1.56417
2.48627
3.1967
3.62987
3.74188
3.51516
2.96239
2.1278
1.08447
-0.0840153
-1.25497
-2.31626
-3.1617
-3.6969
-3.85809
-3.62003
-3.00297
-2.07313
-0.927146
0.318275
1.47825
2.43393
3.06158
3.27812
3.0556
2.43082
1.49341
0.244319
-0.885822
-1.86773
-2.54874
-2.82056
-2.64234
-2.05339
-1.14677
-0.0859077
0.944153
1.76782
2.235
2.26268
1.85472
1.03173
0.0442221
-0.978148
-1.83326
-2.34822
-2.41692
-2.0169
-1.23005
-0.200922
0.862533
1.73907
2.23757
14.0187
13.9737
13.8929
13.7775
13.6526
13.5289
13.4254
13.3504
6.11054
6.17052
6.34743
6.47136
6.6164
6.75129
6.86169
6.94813
6.99755
7.00474
6.96624
6.88106
6.7484
6.5683
6.3411
6.06747
5.74832
5.3849
4.97886
4.53222
4.04745
3.52739
2.97538
2.39517
1.79098
1.16749
0.529691
-0.116911
-0.766514
-1.41282
-2.0494
-2.66953
-3.2664
-3.83302
-4.36227
-4.84721
-5.28093
-5.65688
-5.96886
-6.21118
-6.3787
-6.46703
-6.47272
-6.39327
-6.22731
-5.97478
-5.63681
-5.21578
-4.71572
-4.14203
-3.50145
-2.80232
-2.05454
-1.26912
-0.45838
0.365082
1.18477
1.98649
2.75469
3.47344
4.1271
4.70071
5.18016
5.55268
5.80717
5.93463
5.92871
5.78564
5.50499
5.08965
4.5462
3.88469
3.11909
2.26706
1.34903
0.388466
-0.589735
-1.55471
-2.47934
-3.33437
-4.09148
-4.72394
-5.20791
-5.52336
-5.65492
-5.59349
-5.33623
-4.88753
-4.25916
-3.4707
-2.54904
-1.52796
-0.445314
0.655708
1.72526
2.7182
3.58814
4.29224
4.79324
5.06239
5.08114
4.84282
4.35373
3.63462
2.71939
1.65523
0.494849
-0.695263
-1.83904
-2.87195
-3.72671
-4.34494
-4.68102
-4.70648
-4.41316
-3.81518
-2.94971
-1.87613
-0.66773
0.599118
1.79392
2.83842
3.64233
4.13152
4.25626
3.99699
3.36858
2.42122
1.23865
-0.0841084
-1.4089
-2.60895
-3.56395
-4.16712
-4.34648
-4.07369
-3.37198
-2.31705
-1.02034
0.38613
1.69539
2.77195
3.47549
3.71228
3.45105
2.73393
1.6662
0.270567
-1.00958
-2.1199
-2.88639
-3.18761
-2.97849
-2.30433
-1.27521
-0.0729112
1.09166
2.0202
2.54419
2.5713
2.10844
1.17492
0.0626872
-1.08908
-2.05103
-2.62927
-2.70485
-2.25497
-1.37126
-0.217007
0.974572
1.9562
2.51441
17.2784
17.2551
17.2096
17.1375
17.0499
16.939
16.8353
16.715
7.45546
7.58994
7.7425
7.87694
8.00143
8.10082
8.16053
8.19031
8.18289
8.13637
8.04673
7.91212
7.73058
7.50128
7.22359
6.8975
6.52345
6.10237
5.63568
5.12535
4.57386
3.98423
3.36
2.70525
2.0246
1.32319
0.606487
-0.119345
-0.847892
-1.57221
-2.28516
-2.9793
-3.64705
-4.28064
-4.87216
-5.41388
-5.8981
-6.31752
-6.66523
-6.93485
-7.1207
-7.2179
-7.22259
-7.13194
-6.94456
-6.66045
-6.28093
-5.80871
-5.24833
-4.60586
-3.88884
-3.10664
-2.2703
-1.39214
-0.485941
0.434078
1.34968
2.24487
3.10229
3.90411
4.63287
5.27192
5.80551
6.2194
6.50124
6.64104
6.63174
6.46918
6.15295
5.68633
5.0766
4.3353
3.47799
2.52444
1.49763
0.424001
-0.66863
-1.7464
-2.77853
-3.73244
-4.57651
-5.28095
-5.81917
-6.1688
-6.31293
-6.24096
-5.95029
-5.44608
-4.74137
-3.85816
-2.82663
-1.68457
-0.474651
0.75496
1.94895
3.05665
4.02634
4.81016
5.36665
5.66377
5.68087
5.41066
4.86041
4.05352
3.02805
1.83702
0.539694
-0.789761
-2.06691
-3.21934
-4.17188
-4.8594
-5.23111
-5.25551
-4.92345
-4.25107
-3.28007
-2.07728
-0.725904
0.689033
2.02398
3.1904
4.08726
4.632
4.76903
4.47697
3.77278
2.71267
1.39073
-0.0847653
-1.56297
-2.90117
-3.96508
-4.63566
-4.83276
-4.52496
-3.73844
-2.55828
-1.11138
0.455083
1.91289
3.10961
3.88821
4.14456
3.84397
3.03369
1.83547
0.294914
-1.13473
-2.37278
-3.22383
-3.5536
-3.313
-2.553
-1.4015
-0.0584685
1.23976
2.27207
2.85185
2.87757
2.35983
1.31635
0.0807271
-1.19948
-2.26709
-2.9077
-2.98965
-2.49021
-1.51055
-0.232726
1.08521
2.17042
2.78748
20.2399
20.2252
20.1965
20.1507
20.102
20.0411
19.998
19.9551
9.18187
9.15688
9.22183
9.26706
9.31777
9.35747
9.3681
9.35168
9.29952
9.20903
9.07594
8.89793
8.67235
8.39774
8.07287
7.69725
7.27092
6.79452
6.26936
5.69738
5.08114
4.42381
3.7292
3.0017
2.24635
1.46877
0.674892
-0.12842
-0.934202
-1.73484
-2.52253
-3.28908
-4.02618
-4.72531
-5.37776
-5.97502
-6.50863
-6.97054
-7.35311
-7.64932
-7.8529
-7.95851
-7.96187
-7.85987
-7.65106
-7.33554
-6.91485
-6.39201
-5.77207
-5.06174
-4.26936
-3.4053
-2.48172
-1.5122
-0.512018
0.502991
1.51297
2.50011
3.44524
4.32869
5.13118
5.83445
6.42111
6.8755
7.18401
7.33571
7.32286
7.14092
6.7895
6.27214
5.59702
4.77703
3.82934
2.77579
1.64198
0.456996
-0.748222
-1.93679
-3.07453
-4.12555
-5.05498
-5.82999
-6.4213
-6.80429
-6.96055
-6.87783
-6.55392
-5.99481
-5.21477
-4.23812
-3.0984
-1.83727
-0.501937
0.854044
2.1703
3.39076
4.45833
5.32029
5.93111
6.25542
6.27058
5.9686
5.35789
4.46425
3.33007
2.01392
0.582047
-0.884373
-2.29265
-3.5625
-4.61105
-5.36643
-5.77289
-5.79589
-5.42538
-4.67943
-3.60429
-2.27407
-0.781866
0.778329
2.25108
3.53735
4.52541
5.12451
5.27333
4.94872
4.16966
2.9984
1.53882
-0.0859467
-1.71504
-3.18896
-4.35972
-5.09629
-5.31055
-4.96802
-4.09768
-2.79384
-1.19912
0.523849
2.12768
3.4423
4.29424
4.56928
4.22939
3.32645
1.99875
0.317806
-1.2593
-2.62284
-3.55645
-3.91362
-3.6415
-2.79618
-1.52419
-0.0430171
1.38632
2.52
3.1539
3.17748
2.60559
1.45435
0.0982222
-1.30793
-2.47869
-3.18003
-3.26783
-2.71973
-1.64626
-0.247898
1.19313
2.37916
3.05353
22.9032
22.8939
22.8761
22.8478
22.8212
22.7861
22.7671
22.7438
10.4747
10.4485
10.4865
10.4999
10.5092
10.5087
10.4816
10.4285
10.3403
10.2137
10.044
9.82843
9.56387
9.24838
8.88031
8.45879
7.98348
7.45484
6.87406
6.24317
5.56485
4.84247
4.08008
3.28241
2.45492
1.6037
0.735267
-0.142963
-1.02341
-1.89785
-2.7578
-3.59441
-4.39861
-5.16113
-5.87252
-6.52351
-7.10491
-7.60789
-8.02411
-8.34591
-8.56648
-8.68004
-8.68202
-8.56851
-8.33849
-7.99216
-7.5312
-6.95893
-6.2809
-5.50447
-4.63873
-3.69496
-2.68647
-1.62808
-0.536471
0.570876
1.67262
2.74914
3.77947
4.74217
5.61623
6.38173
7.01983
7.51342
7.84766
8.01071
7.99424
7.79328
7.40745
6.84059
6.10172
5.20504
4.16935
3.01852
1.7807
0.487375
-0.827282
-2.12342
-3.36369
-4.50895
-5.5212
-6.36461
-7.00726
-7.42245
-7.59038
-7.4968
-7.14032
-6.52754
-5.6741
-4.60642
-3.36144
-1.98453
-0.527147
0.951542
2.38656
3.71649
4.87899
5.8167
6.48008
6.83055
6.84354
6.51035
5.84061
4.86231
3.62226
2.18417
0.621703
-0.977731
-2.51343
-3.8973
-5.03896
-5.86007
-6.30005
-6.32138
-5.91319
-5.09548
-3.91885
-2.46439
-0.834999
0.865726
2.47243
3.87518
4.95169
5.60339
5.76339
5.40689
4.55478
3.27533
1.68154
-0.0877589
-1.86329
-3.469
-4.74334
-5.54379
-5.77448
-5.39796
-4.44584
-3.0213
-1.28266
0.591294
2.33714
3.76615
4.68892
4.98172
4.60314
3.60926
2.15415
0.339635
-1.38166
-2.86707
-3.88033
-4.26353
-3.96035
-3.0313
-1.64206
-0.0269931
1.52954
2.76113
3.44696
3.46768
2.84284
1.58774
0.115088
-1.41324
-2.68359
-3.44339
-3.53654
-2.9412
-1.77703
-0.262387
1.29723
2.58036
3.30992
25.2825
25.276
25.2638
25.2439
25.2266
25.2018
25.1908
25.1727
11.6183
11.5816
11.6029
11.5969
11.5808
11.5533
11.4993
11.4185
11.3022
11.1464
10.9463
10.6984
10.3997
10.0479
9.64081
9.17727
8.6566
8.07907
7.44592
6.75928
6.02204
5.23777
4.41076
3.54608
2.64959
1.72794
0.788088
-0.161793
-1.11367
-2.05873
-2.98788
-3.89156
-4.76001
-5.58324
-6.35106
-7.05353
-7.68071
-8.22305
-8.67146
-9.01764
-9.25432
-9.37533
-9.37619
-9.25087
-9.00016
-8.62395
-8.12403
-7.50404
-6.77
-5.92988
-4.99348
-3.97298
-2.88275
-1.73881
-0.559208
0.636966
1.82696
2.98946
4.10167
5.14051
6.08328
6.90849
7.59591
8.12707
8.48586
8.65957
8.63958
8.42016
8.00105
7.38645
6.58612
5.61555
4.49498
3.25052
1.91262
0.515157
-0.904722
-2.30423
-3.64304
-4.8788
-5.97057
-6.87962
-7.5714
-8.01737
-8.1966
-8.09197
-7.70399
-7.03935
-6.11514
-4.95974
-3.61342
-2.12504
-0.55036
1.04625
2.59545
4.03058
5.28414
6.29458
7.00828
7.38366
7.39433
7.03087
6.30414
5.24413
3.90209
2.34637
0.658486
-1.06868
-2.72691
-4.22037
-5.45141
-6.33552
-6.80753
-6.82696
-6.3823
-5.49534
-4.22095
-2.64648
-0.884837
0.9501
2.68582
4.20058
5.36197
6.06405
6.23459
5.84718
4.92458
3.541
1.818
-0.0904613
-2.00623
-3.7386
-5.11235
-5.97402
-6.22029
-5.81086
-4.77989
-3.23872
-1.36135
0.656442
2.53916
4.07802
5.06851
5.37805
4.96192
3.87979
2.30031
0.360711
-1.50044
-3.10298
-4.19234
-4.60002
-4.26661
-3.25635
-1.75414
-0.0108033
1.66794
2.99313
3.72833