/*--------------------------------*- C++ -*----------------------------------*\
  =========                 |
  \\      /  F ield         | OpenFOAM: The Open Source CFD Toolbox
   \\    /   O peration     | Website:  https://openfoam.org
    \\  /    A nd           | Version:  12
     \\/     M anipulation  |
\*---------------------------------------------------------------------------*/
FoamFile
{
    format      ascii;
    class       volScalarField;
    location    "250";
    object      p;
}
// * * * * * * * * * * * * * * * * * * * * * * * * * * * * * * * * * * * * * //

dimensions      [0 2 -2 0 0 0 0];

internalField   nonuniform List<scalar> 
10720
(
-89.5501
-163.554
-250.897
-336.312
-414.706
-494.627
-565.027
-623.76
-674.695
-714.229
-744.343
-766.341
-781.017
-789.578
-792.469
-789.234
-780.793
-765.807
-745.418
-718.25
-685.335
-645.869
-602.081
-554.879
-507.762
-465.814
-428.023
-390.802
-353.872
-317.455
-281.37
-245.478
-209.674
-173.731
-137.394
-99.5594
-59.8633
-12.3363
35.4271
-14.6541
53.3889
126.802
195.828
255.275
301.162
329.823
340.834
340.15
329.189
309.403
286.311
262.846
240.032
218.558
198.294
179.334
161.268
143.845
126.571
109.401
92.0163
74.5103
57.2811
42.2225
30.4029
20.7722
12.9434
6.91963
2.75792
0.361325
-0.376043
0.466351
2.89195
6.91223
12.9447
21.5433
36.4324
61.521
23.8005
-32.5349
-95.4476
-162.068
-230.324
-300.035
-367.533
-430.714
-488.955
-540.479
-584.966
-622.41
-652.877
-676.434
-693.003
-702.299
-704.923
-700.447
-689.417
-671.218
-646.407
-614.711
-577.811
-536.852
-494.92
-456.33
-420.624
-385.009
-349.316
-313.863
-278.558
-243.297
-208.004
-172.468
-136.446
-98.8531
-59.3429
-11.9059
35.1022
74.5909
123.188
171.887
219.217
261.29
295.501
318.856
330.098
330.588
321.58
305.658
286.201
265.336
244.174
223.478
203.513
184.445
166.122
148.369
130.867
113.525
96.136
78.7828
61.8737
46.8829
34.7257
24.6819
16.4262
9.98113
5.40179
2.61802
1.53224
2.06261
4.21162
8.00052
13.8507
22.3067
37.1067
61.1813
40.2374
-10.1847
-66.7375
-128.988
-193.35
-259.14
-324.77
-387.536
-445.866
-498.77
-545.013
-584.288
-616.409
-641.317
-659.207
-670.281
-674.769
-672.485
-663.621
-647.945
-625.755
-597.107
-563.259
-525.494
-486.364
-449.405
-414.729
-380.176
-345.427
-310.761
-276.115
-241.395
-206.536
-171.345
-135.592
-98.2105
-58.8733
-11.6283
34.851
85.8401
130.368
174.845
217.254
254.213
284.112
304.909
315.916
317.842
311.535
298.893
282.202
263.307
243.483
223.609
204.147
185.331
167.158
149.51
132.158
114.98
97.8372
80.7946
64.2246
49.2965
36.9052
26.6441
18.2016
11.5795
6.82357
3.87324
2.63113
3.01725
5.0354
8.71515
14.479
22.8687
37.5457
60.6357
65.1482
22.7235
-25.579
-78.6074
-134.16
-192.162
-250.942
-308.674
-364.021
-415.845
-463.009
-504.842
-540.862
-570.778
-594.372
-611.641
-622.343
-626.209
-623.183
-613.147
-596.271
-572.766
-543.648
-510.245
-474.762
-440.22
-407.204
-374.127
-340.611
-306.943
-273.124
-239.083
-204.773
-170.022
-134.614
-97.5117
-58.4125
-11.4859
34.4539
103.211
139.92
176.857
212.709
244.355
270.557
289.484
300.377
303.524
299.455
289.628
275.747
259.303
241.465
223.08
204.668
186.533
168.79
151.407
134.254
117.241
100.296
83.4924
67.1793
52.3181
39.7523
29.2802
20.6155
13.7535
8.7447
5.54108
4.05669
4.22088
6.04293
9.55999
15.1936
23.473
37.9516
60.0608
73.3266
35.6247
-7.51312
-55.1868
-105.273
-158.173
-212.487
-266.566
-319.382
-369.778
-416.604
-459.065
-496.492
-528.354
-554.268
-573.996
-587.176
-593.691
-593.409
-586.316
-572.521
-552.306
-526.504
-496.373
-463.81
-431.335
-399.757
-367.962
-335.565
-302.838
-269.833
-236.486
-202.762
-168.498
-133.489
-96.7252
-57.9323
-11.4303
33.8198
107.244
139.78
172.604
204.46
232.6
256.189
273.746
284.537
288.627
286.422
279.023
267.71
253.637
237.807
221.014
203.791
186.5
169.344
152.375
135.55
118.824
102.172
85.6801
69.6758
54.9573
42.2961
31.6527
22.7992
15.7325
10.5073
7.08846
5.4005
5.37864
7.0338
10.4084
15.9219
24.0864
38.3368
59.4503
78.579
45.1601
6.71252
-35.7654
-80.4202
-127.959
-177.082
-226.472
-275.376
-322.734
-367.562
-409.092
-446.583
-479.398
-507.04
-529.107
-545.227
-555.15
-558.602
-555.436
-545.653
-529.487
-507.615
-481.185
-451.851
-421.741
-391.825
-361.433
-330.24
-298.512
-266.35
-233.721
-200.603
-166.849
-132.268
-95.8843
-57.4556
-11.49
32.956
108.641
137.361
166.531
195.036
220.344
241.843
258.305
268.956
273.733
273.011
267.618
258.542
246.68
232.856
217.772
201.931
185.707
169.349
152.977
136.622
120.287
103.993
87.844
72.1536
57.6009
44.8878
34.0998
25.0764
17.817
12.3789
8.7411
6.83905
6.61571
8.08709
11.3024
16.6785
24.7071
38.684
58.7863
79.7623
49.6141
14.8319
-23.6259
-63.978
-107.171
-152.039
-197.435
-242.849
-287.333
-330.033
-370.254
-407.234
-440.292
-468.855
-492.406
-510.468
-522.647
-528.609
-528.167
-521.309
-508.255
-489.576
-466.291
-439.824
-411.946
-383.674
-354.68
-324.707
-294.001
-262.704
-230.813
-198.32
-165.098
-130.971
-95.0029
-56.9944
-11.6752
31.875
106.911
132.763
159.15
185.038
208.108
227.923
243.467
253.933
259.2
259.637
255.88
248.708
238.827
226.896
213.512
199.118
184.071
168.643
153
137.226
121.376
105.511
89.7553
74.4106
60.0673
47.3654
36.4794
27.3177
19.8877
14.2516
10.4041
8.29391
7.87244
9.16116
12.2154
17.4469
25.3247
38.9847
58.075
79.0885
51.7165
20.0657
-14.9025
-51.4987
-90.8017
-131.739
-173.308
-215.179
-256.539
-296.649
-334.924
-370.66
-403.187
-431.899
-456.226
-475.614
-489.639
-497.918
-500.169
-496.284
-486.396
-470.953
-450.823
-427.231
-401.662
-375.137
-347.607
-318.908
-289.273
-258.881
-227.761
-195.922
-163.256
-129.608
-94.087
-56.5496
-11.9781
30.5904
103.774
127.225
151.29
175.009
196.227
214.639
229.377
239.618
245.221
246.547
244.105
238.527
230.375
220.177
208.424
195.485
181.686
167.293
152.494
137.412
122.141
106.777
91.4657
76.4982
62.4038
49.7672
38.8255
29.5538
21.9736
16.1535
12.1044
9.7892
9.1687
10.2705
13.1564
18.2313
25.9393
39.2383
57.3216
77.0484
51.9872
22.971
-9.06178
-42.4826
-78.4372
-115.954
-154.127
-192.771
-231.177
-268.722
-304.932
-339.166
-370.795
-399.226
-423.862
-444.112
-459.488
-469.55
-473.941
-472.482
-465.266
-452.642
-435.346
-414.414
-391.08
-366.31
-340.26
-312.859
-284.329
-254.878
-224.563
-193.41
-161.329
-128.187
-93.1436
-56.1184
-12.3834
29.126
99.6831
121.15
143.284
165.185
184.834
202.061
216.076
226.06
231.886
233.888
232.495
228.236
221.57
212.92
202.684
191.16
178.626
165.329
151.455
137.15
122.538
107.745
92.9281
78.3762
64.5723
52.0558
41.1054
31.7573
24.0521
18.0662
13.8269
11.3128
10.4952
11.4083
14.1205
19.0277
26.547
39.4435
56.5269
74.2224
51.1429
24.3992
-5.08901
-35.7578
-68.7798
-103.25
-138.353
-174.005
-209.582
-244.574
-278.598
-311.084
-341.483
-369.226
-393.716
-414.364
-430.642
-442.089
-448.306
-449.027
-444.271
-434.284
-419.668
-401.286
-380.155
-357.168
-332.627
-306.554
-279.164
-250.687
-221.211
-190.777
-159.315
-126.71
-92.1791
-55.7015
-12.8806
27.5141
95.1035
114.879
135.365
155.709
174.011
190.208
203.567
213.272
219.228
221.739
221.18
218.003
212.599
205.309
196.454
186.27
174.982
162.804
149.909
136.45
122.568
108.405
94.1345
80.0379
66.5662
54.2224
43.3112
33.9218
26.1184
19.9864
15.5697
12.8638
11.8515
12.5741
15.1069
19.8347
27.1459
39.6001
55.6929
70.9117
49.5446
24.7724
-2.50528
-30.7765
-61.2288
-93.0103
-125.378
-158.31
-191.263
-223.82
-255.686
-286.358
-315.354
-342.16
-366.211
-386.922
-403.759
-416.219
-423.898
-426.439
-423.804
-416.158
-403.975
-387.966
-368.956
-347.746
-324.728
-300
-273.78
-246.309
-217.704
-188.021
-157.21
-125.177
-91.1966
-55.3033
-13.4637
25.7791
90.2768
108.598
127.657
146.65
163.779
179.066
191.818
201.236
207.249
210.139
210.237
207.946
203.604
197.495
189.879
180.937
170.846
159.779
147.889
135.322
122.224
108.747
95.0693
81.4671
68.3696
56.2493
45.4257
36.033
28.1601
21.9042
17.3253
14.4365
13.2337
13.7649
16.1132
20.6499
27.7334
39.7085
54.823
67.3375
47.4716
24.4325
-0.900318
-27.0661
-55.2467
-84.6347
-114.545
-145.007
-175.537
-205.794
-235.555
-264.386
-291.879
-317.571
-340.936
-361.424
-378.505
-391.659
-400.48
-404.553
-403.772
-398.225
-388.27
-374.478
-357.509
-338.06
-316.57
-293.203
-268.177
-241.743
-214.039
-185.14
-155.013
-123.588
-90.1976
-54.928
-14.1312
23.9366
85.3778
102.429
120.239
138.041
154.137
168.606
180.791
189.92
195.932
199.097
199.714
198.145
194.692
189.598
183.08
175.271
166.305
156.319
145.436
133.788
121.514
108.767
95.724
82.6552
69.9721
58.1236
47.4357
38.0788
30.1675
23.8115
19.0876
16.0265
14.6384
14.9782
17.1371
21.4708
28.3072
39.7696
53.9201
63.6456
45.1046
23.6023
-0.00654972
-24.3085
-50.4697
-77.7224
-105.425
-133.649
-161.963
-190.076
-217.831
-244.854
-270.805
-295.279
-317.799
-337.853
-354.929
-368.505
-378.18
-383.503
-384.299
-380.593
-372.643
-360.893
-345.862
-328.138
-308.171
-286.171
-262.359
-236.988
-210.215
-182.133
-152.724
-121.941
-89.1828
-54.5786
-14.8796
21.9951
80.5103
96.446
113.146
129.886
145.061
158.791
170.445
179.282
185.252
188.611
189.633
188.65
185.94
181.716
176.158
169.369
161.447
152.492
142.599
131.875
120.449
108.464
96.0922
83.5932
71.3634
59.8322
49.3271
40.0461
32.1287
25.6988
20.8488
17.6279
16.0611
16.2106
18.1757
22.295
28.8649
39.7845
52.9878
59.9332
42.5729
22.4452
0.377178
-22.2616
-46.617
-71.9563
-97.6714
-123.867
-150.152
-176.279
-202.14
-227.419
-251.83
-275.031
-296.598
-316.052
-332.919
-346.687
-356.955
-363.275
-365.398
-363.294
-357.138
-347.261
-334.057
-318.009
-299.549
-278.916
-256.332
-232.046
-206.233
-178.997
-150.341
-120.237
-88.1524
-54.2582
-15.7048
19.9626
75.7481
90.6881
106.397
122.181
136.529
149.578
160.732
169.282
175.177
178.668
180.005
179.497
177.405
173.919
169.198
163.319
156.352
148.366
139.428
129.619
119.048
107.847
96.1738
84.2764
72.5354
61.364
51.0869
41.9226
34.0328
27.5562
22.6012
19.2346
17.4971
17.4583
19.2259
23.1196
29.4044
39.7553
52.0298
56.2652
39.9672
21.0766
0.396042
-20.7507
-43.4835
-67.0968
-91.0195
-115.373
-139.8
-164.093
-188.182
-211.799
-234.711
-256.623
-277.166
-295.907
-312.405
-326.177
-336.82
-343.904
-347.12
-346.391
-341.819
-333.642
-322.144
-307.707
-290.726
-271.451
-250.102
-226.921
-202.092
-175.733
-147.863
-118.476
-87.1067
-53.9667
-16.6028
17.8486
71.1364
85.1811
99.9942
114.913
128.509
140.93
151.612
159.879
165.675
169.246
170.826
170.702
169.123
166.265
162.268
157.195
151.092
144.004
135.973
127.054
117.334
106.927
95.9729
84.7029
73.482
62.7094
52.7032
43.6956
35.868
29.3737
24.3361
20.8395
18.941
18.7172
20.284
23.9416
29.9233
39.6838
51.0504
52.6858
37.3512
19.5813
0.15768
-19.6428
-40.9068
-62.9579
-85.2565
-107.935
-130.663
-153.267
-175.707
-197.753
-219.217
-239.854
-259.338
-277.287
-293.297
-306.917
-317.746
-325.388
-329.486
-329.92
-326.733
-320.085
-310.166
-297.265
-281.726
-263.793
-243.68
-221.618
-197.796
-172.342
-145.291
-116.658
-86.0456
-53.7048
-17.5669
15.6619
66.7024
79.937
93.9352
108.064
120.971
132.81
143.047
151.034
156.714
160.326
162.09
162.275
161.121
158.795
155.424
151.058
145.732
139.468
132.287
124.221
115.335
105.72
95.4958
84.8734
74.2006
63.8611
54.1655
45.3537
37.623
31.1407
26.0444
22.4354
20.3866
19.9823
21.346
24.7577
30.4195
39.5726
50.0536
49.2256
34.7677
18.0189
-0.258369
-18.8375
-38.7658
-59.3988
-80.2192
-101.37
-122.546
-143.596
-164.502
-185.073
-205.155
-224.547
-242.966
-260.075
-275.509
-288.852
-299.714
-307.731
-312.52
-313.921
-311.931
-306.644
-298.174
-286.723
-272.576
-255.961
-237.077
-216.145
-193.349
-168.826
-142.625
-114.782
-84.9694
-53.4707
-18.5902
13.412
62.462
74.9599
88.2114
101.614
113.887
125.183
134.998
142.711
148.261
151.884
153.784
154.217
153.416
151.539
148.705
144.96
140.325
134.811
128.419
121.163
113.083
104.247
94.755
84.7929
74.6895
64.8134
55.4646
46.8859
39.2867
32.8467
27.7169
24.0142
21.8275
21.2483
22.4077
25.5647
30.8914
39.4246
49.0438
45.9032
32.2475
16.4372
-0.79348
-18.2554
-36.9671
-56.3042
-75.7773
-95.531
-115.284
-134.903
-154.391
-173.581
-192.356
-210.547
-227.911
-244.156
-258.951
-271.919
-282.689
-290.922
-296.232
-298.423
-297.453
-293.366
-286.213
-276.119
-263.307
-247.976
-230.31
-210.509
-188.754
-165.186
-139.866
-112.85
-83.8769
-53.263
-19.6646
11.1112
58.4234
70.2462
82.8109
95.5437
107.229
118.016
127.43
134.874
140.287
143.895
145.895
146.526
146.017
144.519
142.147
138.943
134.921
130.083
124.417
117.918
110.609
102.532
93.7656
84.4694
74.9512
65.5632
56.5931
48.2824
40.8483
34.4811
29.3437
25.5674
23.2563
22.5096
23.4642
26.3591
31.337
39.2429
48.0264
42.7292
29.8127
14.8652
-1.40039
-17.8404
-35.4349
-53.5858
-71.8236
-90.2994
-108.746
-127.047
-145.221
-163.127
-180.668
-197.709
-214.043
-229.416
-243.535
-256.056
-266.634
-274.947
-280.629
-283.45
-283.336
-280.295
-274.328
-265.493
-253.949
-239.862
-223.393
-204.722
-184.019
-161.426
-137.017
-110.863
-82.7682
-53.0793
-20.7809
8.77096
54.5894
65.7901
77.7193
89.8312
100.967
111.277
120.31
127.493
132.761
136.337
138.404
139.193
138.925
137.749
135.773
133.038
129.558
125.326
120.322
114.528
107.946
100.601
92.5441
83.9129
74.9906
66.11
57.5458
49.5348
42.2979
36.0336
30.915
27.0863
24.6655
23.7599
24.5104
27.1373
31.7549
39.0309
47.0062
39.7103
27.4775
13.3276
-2.04731
-17.5453
-34.113
-51.1719
-68.2769
-85.5781
-102.823
-119.909
-136.867
-153.574
-169.957
-185.906
-201.246
-215.755
-229.176
-241.198
-251.504
-259.787
-265.712
-269.018
-269.611
-267.471
-262.562
-254.883
-244.535
-231.646
-216.347
-198.796
-179.152
-157.552
-134.079
-108.82
-81.6421
-52.9163
-21.9297
6.40368
50.9585
61.5839
72.9229
84.457
95.0784
104.938
113.609
120.537
125.657
129.186
131.298
132.211
132.142
131.236
129.6
127.274
124.271
120.579
116.175
111.029
105.128
98.4793
91.1121
83.1378
74.8144
66.4549
58.319
50.6358
43.6263
37.4942
32.4209
28.5617
26.0471
24.9923
25.541
27.8954
32.1437
38.7919
45.988
36.8482
25.2501
11.8415
-2.70765
-17.3359
-32.9546
-49.0073
-65.0685
-81.2875
-97.4252
-113.392
-129.224
-144.818
-160.115
-175.031
-189.416
-203.078
-215.793
-227.281
-237.253
-245.417
-251.472
-255.139
-256.305
-254.932
-250.956
-244.33
-235.101
-223.353
-209.191
-192.748
-174.164
-153.57
-131.057
-106.724
-80.497
-52.7695
-23.1005
4.02291
47.5285
57.6184
68.4069
79.4009
89.5399
98.9733
107.3
113.98
118.951
122.421
124.557
125.568
125.663
124.987
123.641
121.67
119.084
115.874
112.009
107.455
102.187
96.1963
89.4917
82.1595
74.432
66.6016
58.9115
51.5802
44.8256
38.8535
33.8516
29.9842
27.3927
26.1998
26.5503
28.6299
32.5023
38.5296
44.9769
34.1431
23.1364
10.4175
-3.36289
-17.1843
-31.9241
-47.0454
-62.1427
-77.3608
-92.4771
-107.408
-122.201
-136.759
-151.043
-164.986
-178.458
-191.299
-203.31
-214.244
-223.836
-231.81
-237.901
-241.818
-243.436
-242.707
-239.546
-233.87
-225.678
-215.013
-201.95
-186.594
-169.066
-149.487
-127.953
-104.575
-79.3317
-52.6341
-24.2821
1.64288
44.2932
53.8836
64.1567
74.6442
84.329
93.3601
101.357
107.798
112.618
116.022
118.167
119.252
119.483
119
117.904
116.24
114.021
111.236
107.855
103.839
99.1548
93.7791
87.7049
80.9947
73.8553
66.5565
59.324
52.3644
45.8889
40.103
35.1979
31.3447
28.6939
27.375
27.5324
29.3368
32.8297
38.2473
43.9782
31.5929
21.138
9.06426
-3.99858
-17.0711
-30.9928
-45.2504
-59.4543
-73.7476
-87.9174
-101.891
-115.718
-129.315
-142.653
-155.68
-168.288
-180.338
-191.657
-202.026
-211.205
-218.936
-224.982
-229.055
-231.021
-230.823
-228.366
-223.539
-216.301
-206.656
-194.647
-180.352
-163.87
-145.312
-124.774
-102.375
-78.1439
-52.5045
-25.4642
-0.723133
41.2458
50.3702
60.1595
70.1697
79.4266
88.0761
95.7584
101.966
106.636
109.968
112.11
113.252
113.594
113.275
112.393
110.995
109.096
106.687
103.739
100.209
96.0584
91.2547
85.7756
79.6629
73.0978
66.3274
59.5596
52.9863
46.8108
41.235
36.4507
32.6339
29.942
28.5102
28.4813
30.0122
33.1252
37.9482
42.9962
29.1936
19.2558
7.78642
-4.60479
-16.9784
-30.1384
-43.5922
-56.9668
-70.4014
-83.6957
-96.7823
-109.714
-122.416
-134.871
-147.039
-158.829
-170.123
-180.767
-190.568
-199.314
-206.761
-212.697
-216.847
-219.069
-219.299
-217.444
-213.371
-207.004
-198.312
-187.308
-174.042
-158.592
-141.055
-121.525
-100.127
-76.932
-52.3737
-26.6347
-3.06043
38.38
47.0666
56.4012
65.962
74.8141
83.1004
90.4811
96.4634
100.986
104.241
106.37
107.553
107.988
107.807
107.109
105.942
104.323
102.246
99.6812
96.5884
92.9244
88.6487
83.7275
78.1836
72.1745
65.9241
59.6223
53.4463
47.5878
42.2426
37.6018
33.8431
31.1282
29.5976
29.3909
30.6525
33.3879
37.6355
42.0357
26.9404
17.4888
6.58709
-5.1744
-16.8938
-29.3426
-42.0465
-54.6489
-67.2861
-79.7669
-92.0298
-104.129
-116.001
-127.633
-138.997
-150.015
-160.586
-170.578
-179.819
-188.117
-195.252
-201.027
-205.186
-207.584
-208.155
-206.806
-203.395
-197.816
-190.01
-179.958
-167.685
-153.248
-136.727
-118.211
-97.8317
-75.6927
-52.2351
-27.7821
-5.35502
35.6883
43.9634
52.8689
62.0043
70.4728
78.4136
85.5063
91.2717
95.6492
98.8237
100.932
102.145
102.655
102.591
102.051
101.084
99.7102
97.9246
95.701
92.9996
89.7762
85.9846
81.5823
76.5763
71.1008
65.3581
59.5192
53.7458
48.2172
43.1211
38.6439
34.9637
32.2444
30.6295
30.255
31.2537
33.6174
37.3119
41.1005
24.8284
15.8349
5.46723
-5.70251
-16.8087
-28.5917
-40.5946
-52.4769
-64.371
-76.0949
-87.5927
-98.9187
-110.016
-120.882
-131.492
-141.783
-151.669
-161.034
-169.726
-177.573
-184.375
-189.949
-194.064
-196.57
-197.403
-196.475
-193.639
-188.768
-181.777
-172.623
-161.305
-147.855
-132.34
-114.842
-95.4913
-74.4246
-52.0802
-28.8943
-7.59284
33.163
41.05
49.5499
58.282
66.3868
73.9989
80.8149
86.3713
90.6064
93.6995
95.7809
97.0139
97.5848
97.6211
97.2169
96.4237
95.2633
93.7339
91.8123
89.4606
86.6344
83.2842
79.3614
74.8599
69.8932
64.6415
59.258
53.8884
48.6986
43.8659
39.5707
35.9881
33.2824
31.5985
31.0675
31.8121
33.813
36.9799
40.1941
22.8524
14.2903
4.42714
-6.18558
-16.7157
-27.8738
-39.2205
-50.4297
-61.6304
-72.6485
-83.4343
-94.0409
-104.419
-114.568
-124.474
-134.082
-143.318
-152.083
-160.241
-167.64
-174.096
-179.44
-183.466
-186.022
-187.049
-186.467
-184.127
-179.888
-173.644
-165.329
-154.921
-142.431
-127.906
-111.423
-93.1104
-73.1244
-51.9019
-29.9613
-9.76058
30.7961
38.3166
46.4324
54.7825
62.541
69.8402
76.3911
81.7454
85.8414
88.8524
90.9024
92.1473
92.7678
92.8886
92.6018
91.9597
90.9861
89.6819
88.027
85.9863
83.5165
80.5673
77.0854
73.0544
68.5687
63.7879
58.8479
53.8793
49.033
44.4747
40.3766
36.9093
34.2346
32.497
31.8225
32.3241
33.9742
36.6414
39.3194
21.0062
12.8524
3.46506
-6.62127
-16.6098
-27.1805
-37.9112
-48.4911
-59.0432
-69.4031
-79.5249
-89.462
-99.1685
-108.651
-117.897
-126.863
-135.486
-143.679
-151.322
-158.278
-164.383
-169.476
-173.378
-175.938
-177.101
-176.798
-174.88
-171.201
-165.636
-158.103
-148.559
-136.994
-123.441
-107.964
-90.6901
-71.7902
-51.6929
-30.9711
-11.8454
28.58
35.7538
43.5058
51.4924
58.9216
65.9223
72.2187
77.3781
81.3384
84.2675
86.2829
87.5332
88.1942
88.3866
88.201
87.6901
86.8796
85.773
84.3535
82.5889
80.438
77.8514
74.7728
71.1775
67.1433
62.8108
58.2995
53.7246
49.2226
44.9463
41.0581
37.7213
35.094
33.3185
32.5144
32.7862
34.1005
36.2981
38.4785
19.2839
11.5166
2.57973
-7.00916
-16.4873
-26.5053
-36.6569
-46.6462
-56.5914
-66.3363
-75.8376
-85.1501
-94.2316
-103.09
-111.721
-120.085
-128.13
-135.779
-142.927
-149.451
-155.202
-160.032
-163.783
-166.309
-167.56
-167.476
-165.917
-162.728
-157.778
-150.969
-142.239
-131.564
-118.957
-104.475
-88.2348
-70.4194
-51.4433
-31.9138
-13.8342
26.5072
33.3523
40.7587
48.3993
55.5148
62.2304
68.2832
73.2544
77.0829
79.9304
81.9088
83.1595
83.8529
84.1064
84.0078
83.6111
82.9432
82.01
80.798
79.2781
77.4121
75.1516
72.4397
69.2459
65.6329
61.7241
57.6236
53.4322
49.2715
45.2811
41.6119
38.4193
35.8546
34.0566
33.1379
33.1951
34.1914
35.9509
37.6729
17.6798
10.2786
1.76892
-7.34942
-16.3456
-25.842
-35.4489
-44.8832
-54.2593
-63.4282
-72.3504
-81.0794
-89.5773
-97.8542
-105.909
-113.71
-121.211
-128.345
-135.019
-141.124
-146.525
-151.085
-154.665
-157.126
-158.423
-158.508
-157.249
-154.489
-150.092
-143.95
-135.985
-126.159
-114.47
-100.963
-85.7484
-69.0099
-51.1473
-32.7787
-15.7158
24.5704
31.1031
38.1812
45.4924
52.3085
58.7516
64.5708
69.3605
73.0611
75.8279
77.7675
79.0146
79.7333
80.039
80.0159
79.7187
79.1755
78.3942
77.3646
76.0613
74.4487
72.4807
70.1011
67.2752
64.053
60.5418
56.8319
53.0103
49.1847
45.4807
42.0373
38.9995
36.5112
34.7056
33.6882
33.5476
34.246
35.6005
36.9029
16.1879
9.13431
1.0297
-7.64252
-16.1832
-25.1873
-34.2807
-43.1933
-52.035
-60.6645
-69.0445
-77.2282
-85.181
-92.9145
-100.431
-107.703
-114.693
-121.34
-127.564
-133.265
-138.322
-142.609
-146.005
-148.378
-149.689
-149.9
-148.888
-146.501
-142.6
-137.067
-129.818
-120.798
-109.995
-97.4401
-83.2346
-67.5605
-50.7974
-33.5574
-17.481
22.7622
28.9982
35.7637
42.7609
49.2909
55.4734
61.068
65.6836
69.2601
71.9476
73.847
75.0869
75.8259
76.1754
76.2178
76.0072
75.5732
74.9251
74.056
72.9439
71.5563
69.8499
67.77
65.2795
62.4177
59.2774
55.936
52.4684
48.9685
45.5482
42.3339
39.4595
37.0598
35.2609
34.1609
33.841
34.2636
35.2468
36.1684
14.8024
8.07902
0.359296
-7.8898
-15.9996
-24.5383
-33.147
-41.5687
-49.9084
-58.0313
-65.9039
-73.5772
-81.0204
-88.246
-95.2596
-102.037
-108.546
-114.735
-120.53
-125.844
-130.567
-134.583
-137.785
-140.051
-141.35
-141.651
-140.842
-138.777
-135.316
-130.34
-123.756
-115.5
-105.545
-93.9152
-80.6982
-66.0704
-50.3871
-34.2419
-19.121
21.0757
27.0296
33.4972
40.1943
46.4513
52.3842
57.7633
62.2112
65.6674
68.2771
70.1359
71.366
72.1205
72.5071
72.6059
72.4711
72.1323
71.6012
70.8732
69.9295
68.7412
67.2679
65.4577
63.2718
60.7405
57.9438
54.948
51.8162
48.63
45.4878
42.5032
39.7982
37.4974
35.7186
34.5526
34.0727
34.2434
34.8895
35.4683
13.5176
7.10821
-0.24545
-8.09279
-15.7943
-23.8924
-32.0435
-40.0019
-47.8692
-55.5165
-62.9136
-70.1092
-77.0759
-83.8272
-90.3697
-96.6841
-102.742
-108.499
-113.889
-118.833
-123.233
-126.982
-129.987
-132.135
-133.4
-133.761
-133.116
-131.328
-128.258
-123.788
-117.82
-110.281
-101.137
-90.3988
-78.1442
-64.5382
-49.9113
-34.8251
-20.628
19.5042
25.1895
31.3728
37.7835
43.7791
49.4731
54.6457
58.9315
62.2717
64.8053
66.623
67.8409
68.6068
69.0251
69.1727
69.1038
68.8485
68.4196
67.8155
67.0202
66.0082
64.7423
63.1735
61.2629
59.0333
56.5532
53.8791
51.0639
48.1771
45.305
42.5478
40.0158
37.8223
36.076
34.8603
34.2405
34.1843
34.5277
34.8009
12.3278
6.21747
-0.78783
-8.2533
-15.5675
-23.2487
-30.9667
-38.4884
-45.9102
-53.1107
-60.0612
-66.8093
-73.3298
-79.6374
-85.7402
-91.6211
-97.2566
-102.607
-107.614
-112.207
-116.297
-119.786
-122.592
-124.614
-125.83
-126.226
-125.713
-124.161
-121.437
-117.425
-112.024
-105.157
-96.7821
-86.9008
-75.5779
-62.9654
-49.3651
-35.3012
-21.9964
18.0413
23.4705
29.3826
35.5194
41.265
46.7301
51.7038
55.8339
59.0617
61.5209
63.2973
64.5015
65.2753
65.7201
65.9102
65.8987
65.7163
65.3772
64.8817
64.2168
63.3602
62.2781
60.9248
59.2623
57.307
55.1172
52.7406
50.2214
47.6184
45.0058
42.4716
40.1137
38.0342
36.3315
35.0819
34.3427
34.0855
34.16
34.1636
11.2278
5.4023
-1.27116
-8.37347
-15.3201
-22.606
-29.9145
-37.0235
-44.0258
-50.8055
-57.3367
-63.6654
-69.7684
-75.6607
-81.3517
-86.8273
-92.0669
-97.0361
-101.682
-105.942
-109.736
-112.974
-115.583
-117.474
-118.629
-119.042
-118.633
-117.281
-114.863
-111.263
-106.384
-100.144
-92.4953
-83.4315
-73.0048
-61.3524
-48.7462
-35.6663
-23.2214
16.6807
21.8656
27.5186
33.3933
38.8996
44.1451
48.928
52.9081
56.0272
58.4136
60.1492
61.3378
62.117
62.5841
62.8108
62.8492
62.7305
62.47
62.0694
61.5191
60.7992
59.8798
58.7185
57.2784
55.5712
53.6461
51.5432
49.2989
46.9626
44.5974
42.2795
40.0947
38.1337
36.4846
35.2162
34.3781
33.946
33.7849
33.5534
10.2123
4.65843
-1.69886
-8.45547
-15.053
-21.9638
-28.8842
-35.6034
-42.2102
-48.5936
-54.7309
-60.6659
-66.3775
-71.8815
-77.1876
-82.2839
-87.1528
-91.7643
-96.0711
-100.017
-103.528
-106.526
-108.943
-110.701
-111.787
-112.201
-111.873
-110.693
-108.543
-105.314
-100.912
-95.2542
-88.2881
-80.0002
-70.4313
-59.7012
-48.0526
-35.9172
-24.3
15.4166
20.3682
25.7735
31.3975
36.6745
41.7094
46.3086
50.144
53.1582
55.4739
57.1688
58.3409
59.1227
59.6081
59.8663
59.9482
59.8853
59.6932
59.3758
58.9258
58.3261
57.5501
56.5592
55.3183
53.8343
52.1494
50.2969
48.3064
46.2189
44.0874
41.9772
39.9627
38.123
36.536
35.2628
34.3459
33.7648
33.4004
32.9667
9.27635
3.98161
-2.07427
-8.50172
-14.7673
-21.3223
-27.8751
-34.2256
-40.4586
-46.4691
-52.2356
-57.8012
-63.1461
-68.2863
-73.2323
-77.9742
-82.4964
-86.7727
-90.7611
-94.4106
-97.6555
-100.423
-102.653
-104.281
-105.293
-105.696
-105.43
-104.395
-102.481
-99.5862
-95.6189
-90.4993
-84.1715
-76.6163
-67.8628
-58.0145
-47.2832
-36.0524
-25.2306
14.2432
18.972
24.1403
29.5242
34.5815
39.4141
43.8368
47.5328
50.4454
52.6922
54.3466
55.5014
56.2838
56.7842
57.0692
57.1889
57.1744
57.0421
56.7975
56.4351
55.9407
55.291
54.4509
53.3873
52.1037
50.6357
49.0109
47.2532
45.3962
43.4839
41.5715
39.7226
38.0053
36.4872
35.2222
34.2458
33.541
33.0044
32.3996
8.41509
3.36777
-2.40064
-8.51436
-14.4646
-20.6814
-26.8859
-32.8874
-38.7672
-44.4261
-49.8442
-55.0628
-60.064
-64.8637
-69.4729
-73.883
-78.0813
-82.0441
-85.734
-89.105
-92.0985
-94.6481
-96.6999
-98.1979
-99.134
-99.5181
-99.2995
-98.3864
-96.6795
-94.0843
-90.5131
-85.889
-80.1554
-73.2879
-65.306
-56.2958
-46.4393
-36.0716
-26.0127
13.155
17.6711
22.6123
27.7663
32.6129
37.2512
41.5039
45.0658
47.88
50.0597
51.6738
52.8104
53.5915
54.1041
54.4119
54.5644
54.5919
54.5116
54.3303
54.0443
53.6423
53.1033
52.3962
51.4901
50.3857
49.1127
47.6939
46.1485
44.5035
42.7953
41.0697
39.3801
37.7847
36.3411
35.0958
34.0782
33.2741
32.5947
31.848
7.62393
2.81271
-2.68116
-8.49585
-14.1461
-20.0415
-25.9155
-31.5867
-37.1332
-42.4605
-47.5506
-52.4432
-57.1219
-61.603
-65.8971
-69.9972
-73.8927
-77.5626
-80.9733
-84.0833
-86.8401
-89.1836
-91.0655
-92.4386
-93.298
-93.6574
-93.4735
-92.6645
-91.1397
-88.8123
-85.6004
-81.4314
-76.2483
-70.0234
-62.7672
-54.5491
-45.5228
-35.9764
-26.6481
12.1469
16.4594
21.1834
26.1168
30.7613
35.2131
39.3023
42.7345
45.4537
47.5679
49.1423
50.26
51.038
51.5599
51.8871
52.0676
52.1316
52.0965
51.9702
51.7508
51.4291
50.9871
50.3971
49.6303
48.6855
47.587
46.3538
45.0008
43.5498
42.03
40.4793
38.942
37.4665
36.1014
34.8859
33.844
32.9636
32.1691
31.3077
6.8984
2.3128
-2.9191
-8.44862
-13.8133
-19.4033
-24.9636
-30.3221
-35.5534
-40.5679
-45.349
-49.9354
-54.3119
-58.4944
-62.4939
-66.3046
-69.9174
-73.3137
-76.4635
-79.3296
-81.8643
-84.0142
-85.7355
-86.989
-87.7726
-88.1033
-87.9449
-87.2242
-85.8595
-83.7719
-80.8856
-77.1324
-72.4573
-66.8298
-60.2523
-52.7792
-44.537
-35.7694
-27.1389
11.2139
15.3317
19.8477
24.5695
29.0201
33.2925
37.2242
40.5313
43.1585
45.2088
46.7439
47.8421
48.6153
49.1443
49.4876
49.6921
49.7876
49.7915
49.7128
49.5512
49.2994
48.9422
48.4548
47.8108
47.0074
46.0646
44.9976
43.8182
42.5435
41.1968
39.8086
38.4153
37.0566
35.7726
34.5957
33.5448
32.6093
31.7254
30.7743
6.23426
1.86423
-3.11743
-8.37499
-13.468
-18.7675
-24.03
-29.0924
-34.0255
-38.7449
-43.2354
-47.5339
-51.6267
-55.5297
-59.2536
-62.7938
-66.1429
-69.2841
-72.1906
-74.8289
-77.1564
-79.1247
-80.6952
-81.8349
-82.5452
-82.8452
-82.705
-82.0594
-80.8359
-78.9624
-76.3705
-72.9966
-68.7883
-63.7133
-57.7676
-50.9914
-43.4863
-35.4546
-27.4889
10.3513
14.2827
18.5995
23.1184
27.3827
31.4826
35.2625
38.4489
40.9869
42.975
44.4711
45.5492
46.3163
46.8501
47.2067
47.4314
47.5537
47.5914
47.5538
47.4422
47.251
46.9673
46.5696
46.0337
45.3553
44.5505
43.6318
42.6081
41.4927
40.3038
39.0659
37.8078
36.5618
35.36
34.2289
33.1826
32.2115
31.2618
30.244
5.62742
1.46352
-3.27913
-8.27724
-13.1114
-18.1349
-23.1146
-27.8964
-32.5477
-36.9885
-41.2051
-45.2331
-49.0599
-52.7009
-56.1674
-59.4552
-62.5581
-65.4616
-68.1416
-70.5678
-72.702
-74.5007
-75.9302
-76.963
-77.6032
-77.8718
-77.7443
-77.1631
-76.0637
-74.3819
-72.0556
-69.0267
-65.2457
-60.6795
-55.3188
-49.1914
-42.3758
-35.037
-27.7035
9.55465
13.3077
17.4332
21.7575
25.8428
29.7768
33.4106
36.4802
38.9318
40.859
42.3166
43.374
44.1339
44.6704
45.0375
45.2792
45.4244
45.4909
45.4886
45.4199
45.281
45.0612
44.7415
44.3003
43.7319
43.0491
42.2621
41.3775
40.4052
39.3595
38.2592
37.1273
35.9889
34.8696
33.79
32.7601
31.7708
30.7765
29.7127
5.07411
1.10717
-3.40696
-8.15764
-12.7451
-17.5061
-22.2175
-26.7333
-31.1179
-35.2957
-39.2544
-43.0282
-46.6053
-50.0013
-53.227
-56.2793
-59.153
-61.8353
-64.3044
-66.5336
-68.4879
-70.1292
-71.4273
-72.3602
-72.9341
-73.1714
-73.0527
-72.5271
-71.5374
-70.0269
-67.9401
-65.2241
-61.8326
-57.7331
-52.9117
-47.385
-41.2117
-34.5229
-27.7885
8.81957
12.4018
16.3441
20.4815
24.3949
28.1693
31.662
34.6186
36.9863
38.8542
40.2737
41.3097
42.0611
42.5985
42.9738
43.2295
43.394
43.4849
43.5128
43.481
43.3871
43.2222
42.9703
42.6115
42.1396
41.5643
40.8936
40.1326
39.2884
38.3717
37.397
36.3818
35.3456
34.3078
33.2839
32.2805
31.2881
30.2683
29.1771
4.57059
0.792046
-3.50379
-8.01825
-12.3709
-16.882
-21.3385
-25.6023
-29.7347
-33.6644
-37.3801
-40.9148
-44.2579
-47.4244
-50.4251
-53.2576
-55.9179
-58.3944
-60.6679
-62.7139
-64.5016
-65.9969
-67.1733
-68.0136
-68.5255
-68.7326
-68.6197
-68.1423
-67.25
-65.8928
-64.0215
-61.5886
-58.5513
-54.8777
-50.551
-45.5783
-40.0007
-33.9194
-27.751
8.14208
11.5607
15.3273
19.2852
23.0333
26.6538
30.0104
32.8581
35.1442
36.9539
38.3356
39.35
40.0916
40.6284
41.0096
41.2766
41.4572
41.5686
41.622
41.6215
41.566
41.4485
41.2552
40.9681
40.5803
40.0992
39.531
38.8792
38.149
37.348
36.4872
35.5795
34.6394
33.6812
32.7161
31.7472
30.7651
29.7363
28.634
4.11337
0.515039
-3.57219
-7.86118
-11.9902
-16.2635
-20.4779
-24.5028
-28.3967
-32.092
-35.5789
-38.8888
-42.0125
-44.9642
-47.7549
-50.3826
-52.8442
-55.1295
-57.2213
-59.0979
-60.7315
-62.0918
-63.1559
-63.9105
-64.365
-64.5436
-64.4347
-63.9995
-63.1937
-61.9736
-60.2962
-58.1187
-55.4024
-52.1164
-48.2415
-43.7774
-38.75
-33.2342
-27.5985
7.51832
10.7802
14.3782
18.1637
21.7529
25.2254
28.4506
31.1925
33.3994
35.1523
36.4963
37.4887
38.2195
38.7539
39.139
39.415
39.6087
39.7372
39.812
39.8381
39.8153
39.7382
39.5951
39.3701
39.0555
38.6566
38.1781
37.6226
36.9933
36.2957
35.5375
34.7282
33.878
32.9969
32.0922
31.1644
30.2034