/*--------------------------------*- C++ -*----------------------------------*\
  =========                 |
  \\      /  F ield         | OpenFOAM: The Open Source CFD Toolbox
   \\    /   O peration     | Website:  https://openfoam.org
    \\  /    A nd           | Version:  12
     \\/     M anipulation  |
\*---------------------------------------------------------------------------*/
FoamFile
{
    format      ascii;
    class       surfaceScalarField;
    location    "250";
    object      phi;
}
// * * * * * * * * * * * * * * * * * * * * * * * * * * * * * * * * * * * * * //

dimensions      [0 3 -1 0 0 0 0];

internalField   nonuniform List<scalar> 
21254
(
-0.241736
0.26125
-0.0195137
0.283215
-0.0219647
0.302016
-0.0188014
0.318765
-0.016749
0.334605
-0.01584
0.34721
-0.0126052
0.35713
-0.00991966
0.365172
-0.00804241
0.370417
-0.0052443
0.373937
-0.00352038
0.375987
-0.00204942
0.376394
-0.000407591
0.375521
0.000873251
0.373329
0.00219173
0.369759
0.00356983
0.365103
0.00465647
0.359183
0.00592038
0.352106
0.0070766
0.343738
0.00836763
0.334322
0.0094164
0.323541
0.0107808
0.311978
0.0115633
0.299905
0.0120727
0.288633
0.0112719
0.279362
0.00927132
0.271405
0.00795698
0.263633
0.00777144
0.255731
0.00790203
0.247365
0.00836646
0.238447
0.00891813
0.228951
0.00949534
0.218871
0.0100808
0.208139
0.0107313
0.196519
0.0116203
0.183483
0.0130364
0.167972
0.0155109
0.147631
0.0203412
0.117033
0.0305986
0.0951842
0.0218523
-0.218637
-0.0230989
-0.194744
-0.0238933
-0.165294
-0.0294499
-0.132915
-0.0323793
-0.0987209
-0.0341939
-0.0633088
-0.0354122
-0.028256
-0.0350528
0.00431526
-0.0325712
0.0338188
-0.0295035
0.0599751
-0.0261563
0.0823478
-0.0223727
0.101356
-0.0190085
0.117351
-0.0159951
0.130699
-0.0133472
0.142117
-0.0114185
0.151941
-0.00982424
0.160653
-0.00871169
0.16849
-0.00783721
0.175766
-0.00727615
0.182607
-0.00684101
0.189186
-0.00657824
0.195494
-0.0063078
0.201463
-0.00596992
0.20647
-0.00500666
0.210327
-0.0038566
0.213311
-0.0029845
0.215421
-0.0021096
0.216772
-0.00135152
0.217379
-0.000607083
0.217185
0.000194544
0.216093
0.00109189
0.214239
0.00185388
0.211748
0.00249096
0.208683
0.00306537
0.204902
0.00378057
0.199981
0.00492146
0.192737
0.00724367
0.177829
0.0149075
0.155119
0.0227098
-0.220613
0.242187
-0.0410874
0.264243
-0.0440207
0.287259
-0.0418177
0.30872
-0.0382099
0.329648
-0.0367681
0.349026
-0.0319827
0.366454
-0.0273476
0.382194
-0.0237822
0.395838
-0.0188889
0.407448
-0.0151307
0.417045
-0.0116457
0.424767
-0.00812995
0.430927
-0.00528702
0.435679
-0.00255971
0.438904
0.000344831
0.440285
0.00327541
0.439746
0.0064596
0.437412
0.00941035
0.432783
0.0129963
0.426155
0.0160444
0.417131
0.0198049
0.40601
0.0226846
0.39279
0.0252923
0.378117
0.0259457
0.363259
0.0241292
0.348663
0.0225523
0.334427
0.0220076
0.320771
0.0215579
0.307516
0.0216216
0.294517
0.0219174
0.281567
0.0224459
0.268506
0.0231414
0.255086
0.024151
0.241096
0.0256106
0.22614
0.0279923
0.209225
0.0324268
0.189077
0.040489
0.156817
0.062859
0.113369
0.065302
-0.198556
-0.0451561
-0.174922
-0.0475278
-0.147246
-0.0571261
-0.117958
-0.0616665
-0.0868428
-0.0653094
-0.0543328
-0.0679222
-0.0219571
-0.0674285
0.00904043
-0.0635688
0.0375292
-0.0579923
0.062893
-0.0515201
0.0850388
-0.0445186
0.104268
-0.0382378
0.121023
-0.0327495
0.135528
-0.0278529
0.148224
-0.0241141
0.15941
-0.0210106
0.169379
-0.0186801
0.178438
-0.0168962
0.186842
-0.0156801
0.194704
-0.0147034
0.202185
-0.0140592
0.209355
-0.0134783
0.216143
-0.0127571
0.222088
-0.0109521
0.226917
-0.00868555
0.230833
-0.00690089
0.233833
-0.00510978
0.235969
-0.00348684
0.237286
-0.0019246
0.237934
-0.000453232
0.238013
0.00101314
0.237463
0.00240356
0.236155
0.0037984
0.234046
0.00517476
0.231078
0.00674877
0.227006
0.008993
0.221813
0.0124373
0.210886
0.0258335
0.189793
0.0438028
-0.214063
0.235805
-0.0628298
0.2577
-0.0659159
0.281324
-0.0654417
0.302922
-0.0598071
0.323451
-0.0572973
0.343098
-0.0516302
0.360571
-0.0448203
0.376282
-0.0394927
0.389786
-0.0323936
0.401373
-0.0267171
0.411071
-0.0213441
0.419045
-0.0161042
0.425125
-0.0113668
0.42979
-0.00722416
0.432787
-0.00265288
0.43486
0.00120313
0.435694
0.00562543
0.435638
0.00946635
0.43436
0.0142737
0.431801
0.0186043
0.427842
0.0237633
0.422314
0.0282126
0.41519
0.0324167
0.406565
0.0345706
0.396961
0.0337335
0.38644
0.033073
0.374894
0.0335538
0.362469
0.0339828
0.349338
0.0347522
0.335599
0.0356562
0.3214
0.0366452
0.306772
0.0377695
0.291658
0.0392646
0.275886
0.0413826
0.259068
0.0448106
0.240209
0.0512856
0.218133
0.0625657
0.185161
0.0958308
0.137579
0.112886
-0.192178
-0.0670406
-0.168183
-0.0715231
-0.139466
-0.0858427
-0.109571
-0.0915619
-0.0783185
-0.0965618
-0.0458605
-0.10038
-0.0138131
-0.0994759
0.0161543
-0.0935362
0.0437112
-0.0855492
0.0686846
-0.0764935
0.0907755
-0.0666095
0.110142
-0.0576043
0.127141
-0.0497486
0.142047
-0.0427588
0.15517
-0.0372374
0.166847
-0.0326875
0.177344
-0.0291766
0.186926
-0.0264785
0.195803
-0.024557
0.204139
-0.0230395
0.212119
-0.0220396
0.219758
-0.0211171
0.226964
-0.0199629
0.233436
-0.0174241
0.238888
-0.0141374
0.243422
-0.0114345
0.247095
-0.00878302
0.249939
-0.00633139
0.25202
-0.00400477
0.253329
-0.0017626
0.253939
0.000403324
0.253843
0.00249939
0.253064
0.00457732
0.251529
0.00670944
0.249134
0.00914369
0.245494
0.0126331
0.24018
0.0177516
0.229494
0.0365195
0.209474
0.0638227
-0.20647
0.229223
-0.0855832
0.252032
-0.0887252
0.277105
-0.0905149
0.299984
-0.0826854
0.322148
-0.0794613
0.34338
-0.0728629
0.362864
-0.0643036
0.380411
-0.0570398
0.396237
-0.0482198
0.410118
-0.0405985
0.422172
-0.0333974
0.432394
-0.0263268
0.440819
-0.0197913
0.447482
-0.0138877
0.452706
-0.00787619
0.456117
-0.00220839
0.457863
0.0038795
0.4577
0.00962931
0.455955
0.0160187
0.452506
0.0220536
0.447499
0.0287696
0.441186
0.0345263
0.433693
0.0399093
0.425527
0.0427364
0.417119
0.0421416
0.408524
0.0416678
0.399371
0.0427074
0.389509
0.0438449
0.378758
0.0455029
0.366941
0.0474732
0.354053
0.0495328
0.340085
0.0517385
0.325036
0.0543127
0.308787
0.0576326
0.291082
0.0625151
0.270978
0.0713897
0.247222
0.0863219
0.212943
0.13011
0.164721
0.161109
-0.183998
-0.0895121
-0.159891
-0.0956304
-0.130639
-0.115094
-0.100601
-0.1216
-0.069275
-0.127888
-0.036706
-0.132949
-0.00473449
-0.131447
0.0248599
-0.123131
0.0519078
-0.112597
0.0764803
-0.101066
0.0982376
-0.0883668
0.117418
-0.0767847
0.134431
-0.0667614
0.149515
-0.0578431
0.162988
-0.0507098
0.175072
-0.0447724
0.186059
-0.0401632
0.196127
-0.0365459
0.205505
-0.0339354
0.214333
-0.0318681
0.222724
-0.0304304
0.230743
-0.0291363
0.238331
-0.0275509
0.24517
-0.0242627
0.251018
-0.019985
0.255935
-0.0163515
0.259965
-0.0128139
0.263159
-0.00952469
0.265547
-0.00639286
0.267187
-0.00340234
0.268106
-0.000516176
0.26833
0.00227494
0.267858
0.00504946
0.266674
0.00789352
0.264658
0.0111599
0.26143
0.0158612
0.256396
0.0227852
0.24621
0.0467058
0.226546
0.0834862
-0.202357
0.225928
-0.109154
0.249622
-0.11242
0.276114
-0.117007
0.299764
-0.106335
0.322957
-0.102655
0.345299
-0.0952046
0.365689
-0.0846937
0.38423
-0.0755803
0.401222
-0.065212
0.416008
-0.0553842
0.42898
-0.0463703
0.440078
-0.037424
0.449577
-0.0292909
0.457146
-0.0214562
0.462963
-0.0136934
0.46703
-0.00627593
0.469506
0.00140425
0.470428
0.0087071
0.469551
0.0168956
0.467139
0.0244657
0.463046
0.0328629
0.45741
0.0401617
0.450469
0.0468502
0.44262
0.0505857
0.434438
0.0503241
0.426129
0.0499764
0.417548
0.0512883
0.408631
0.0527622
0.399235
0.0548992
0.389191
0.0575171
0.378251
0.0604729
0.366186
0.0638031
0.352782
0.0677169
0.33775
0.0726644
0.320681
0.0795841
0.300696
0.0913741
0.276366
0.110653
0.241374
0.165102
0.193064
0.20942
-0.178844
-0.113026
-0.154031
-0.120443
-0.123539
-0.145587
-0.0926735
-0.152465
-0.0606413
-0.15992
-0.0274584
-0.166132
0.00493385
-0.16384
0.0345806
-0.152777
0.0614482
-0.139465
0.085766
-0.125384
0.107234
-0.109835
0.12619
-0.0957407
0.143128
-0.0836987
0.158256
-0.0729717
0.171889
-0.0643424
0.184287
-0.0571703
0.195626
-0.0515022
0.206089
-0.0470088
0.215869
-0.0437154
0.225104
-0.0411031
0.233887
-0.0392139
0.242259
-0.0375083
0.250185
-0.0354768
0.25739
-0.031468
0.263615
-0.0262096
0.26889
-0.0216271
0.27325
-0.017173
0.276744
-0.0130195
0.279403
-0.00905123
0.281257
-0.00525701
0.282349
-0.00160737
0.28273
0.00189371
0.282395
0.00538465
0.281305
0.00898333
0.279408
0.0130571
0.276312
0.018957
0.271411
0.0276858
0.26177
0.0563473
0.242774
0.102482
-0.199039
0.223627
-0.133742
0.248651
-0.137444
0.276524
-0.144879
0.301385
-0.131196
0.3256
-0.126869
0.349318
-0.118923
0.370679
-0.106055
0.390506
-0.095407
0.408486
-0.0831921
0.424504
-0.0714023
0.438789
-0.0606554
0.451151
-0.0497863
0.461814
-0.0399531
0.470752
-0.0303948
0.477826
-0.0207673
0.483351
-0.0118012
0.486947
-0.00219174
0.488708
0.00694599
0.488744
0.0168596
0.486879
0.0263313
0.483164
0.036578
0.477823
0.0455022
0.471011
0.0536628
0.463148
0.0584483
0.454752
0.0587207
0.446085
0.0586428
0.437104
0.0602697
0.427822
0.0620442
0.418243
0.0644778
0.408296
0.0674641
0.397908
0.0708606
0.386848
0.0748635
0.374844
0.0797208
0.361467
0.0860419
0.346101
0.0949504
0.32756
0.109915
0.304226
0.133986
0.269867
0.199461
0.222075
0.257213
-0.174557
-0.137507
-0.148929
-0.146072
-0.117129
-0.177387
-0.0851241
-0.18447
-0.0520948
-0.192949
-0.0179847
-0.200242
0.015114
-0.196938
0.0451011
-0.182764
0.0720639
-0.166428
0.096308
-0.149628
0.117596
-0.131123
0.136333
-0.114478
0.153116
-0.100481
0.1682
-0.0880562
0.181891
-0.0780335
0.194446
-0.0697246
0.206023
-0.0630796
0.216814
-0.0578003
0.226946
-0.0538467
0.236544
-0.0507013
0.2457
-0.0483698
0.254435
-0.0462431
0.262695
-0.0437368
0.270295
-0.039068
0.276907
-0.0328219
0.282522
-0.0272426
0.287225
-0.0218761
0.291011
-0.0168052
0.293927
-0.0119672
0.296003
-0.00733265
0.297276
-0.00288088
0.297773
0.00139652
0.2975
0.00565765
0.296472
0.0100111
0.29454
0.0149894
0.29141
0.0220873
0.28639
0.032705
0.277035
0.0657029
0.258745
0.120772
-0.197025
0.222944
-0.15966
0.249005
-0.163506
0.278449
-0.174323
0.30459
-0.157337
0.330066
-0.152345
0.354863
-0.14372
0.377402
-0.128594
0.398082
-0.116088
0.417118
-0.102227
0.434081
-0.0883652
0.449202
-0.0757769
0.462623
-0.0632068
0.474207
-0.0515372
0.484018
-0.0402058
0.492118
-0.0288675
0.498327
-0.0180102
0.502799
-0.00666399
0.505438
0.00430756
0.506266
0.0160315
0.50522
0.0273772
0.50234
0.0394576
0.49769
0.0501526
0.491594
0.0597585
0.484237
0.0658054
0.476129
0.0668291
0.467507
0.0672643
0.45838
0.0693975
0.448779
0.0716444
0.438792
0.0744647
0.428387
0.0778699
0.41757
0.0816772
0.4063
0.0861335
0.394447
0.0915742
0.381676
0.0988121
0.367483
0.109144
0.350658
0.12674
0.329371
0.155274
0.297332
0.2315
0.251084
0.303462
-0.171336
-0.163197
-0.144601
-0.172806
-0.111354
-0.210634
-0.078042
-0.217782
-0.0438138
-0.227177
-0.00846357
-0.235592
0.0256039
-0.231006
0.0562459
-0.213406
0.0835548
-0.193736
0.107951
-0.174024
0.129166
-0.152337
0.14775
-0.133062
0.164382
-0.117113
0.179357
-0.103031
0.193012
-0.0916887
0.205631
-0.082344
0.217382
-0.0748303
0.228404
-0.0688227
0.23883
-0.0642726
0.248751
-0.060622
0.258236
-0.0578549
0.267299
-0.0553062
0.275916
-0.0523537
0.283842
-0.0469935
0.290847
-0.0398269
0.296853
-0.0332492
0.301882
-0.0269045
0.305982
-0.0209051
0.309155
-0.01514
0.311462
-0.00963986
0.312903
-0.00432228
0.313536
0.000763722
0.313367
0.00582664
0.312343
0.0110349
0.31041
0.0169225
0.307186
0.0253119
0.30198
0.0379107
0.292704
0.0749793
0.275038
0.138438
-0.19574
0.222994
-0.186914
0.250491
-0.191003
0.281621
-0.205453
0.308964
-0.18468
0.335732
-0.179113
0.361784
-0.169772
0.385343
-0.152153
0.407241
-0.137986
0.427094
-0.12208
0.444995
-0.106266
0.461171
-0.091953
0.475457
-0.0774923
0.487926
-0.0640066
0.498697
-0.0509766
0.507701
-0.0378716
0.514893
-0.0252024
0.520301
-0.0120719
0.523853
0.000755286
0.525462
0.0144224
0.525132
0.0277071
0.522949
0.0416411
0.518914
0.0541877
0.513269
0.0654035
0.506368
0.0727059
0.498537
0.0746601
0.490035
0.0757665
0.480919
0.0785138
0.471192
0.0813713
0.4609
0.0847563
0.450108
0.0886628
0.438765
0.0930202
0.426921
0.0979777
0.414484
0.104011
0.401357
0.111939
0.387149
0.123352
0.371014
0.142874
0.351444
0.174844
0.322631
0.260313
0.279135
0.346958
-0.16882
-0.190117
-0.140929
-0.200697
-0.105967
-0.245596
-0.0711351
-0.252613
-0.0354825
-0.26283
0.00123755
-0.272312
0.0365262
-0.266294
0.0680349
-0.244915
0.0958798
-0.221581
0.120568
-0.198712
0.14186
-0.17363
0.160363
-0.151565
0.176865
-0.133615
0.191711
-0.117877
0.205282
-0.10526
0.217921
-0.0949831
0.229744
-0.0866527
0.240928
-0.0800074
0.251571
-0.0749155
0.261763
-0.0708139
0.271533
-0.0676245
0.280922
-0.0646959
0.289867
-0.0612989
0.298161
-0.0552872
0.305536
-0.0472018
0.311909
-0.0396227
0.317293
-0.0322876
0.321714
-0.0253261
0.325165
-0.0185919
0.327691
-0.0121655
0.329336
-0.00596724
0.330102
-2.75207e-06
0.330021
0.00590772
0.329046
0.0120096
0.327065
0.018904
0.323748
0.0286288
0.31837
0.0432881
0.309092
0.0842579
0.292038
0.155492
-0.195304
0.223926
-0.215536
0.252872
-0.219949
0.285701
-0.238282
0.314437
-0.213416
0.342678
-0.207354
0.370091
-0.197185
0.394875
-0.176937
0.41766
-0.160771
0.438631
-0.143051
0.45737
-0.125006
0.474258
-0.10884
0.489365
-0.0925991
0.502703
-0.0773449
0.514281
-0.0625547
0.524101
-0.0476911
0.532183
-0.0332849
0.538394
-0.0182826
0.542688
-0.00353876
0.545054
0.0120564
0.545446
0.0273154
0.543944
0.0431431
0.540588
0.0575433
0.535547
0.0704441
0.529136
0.0791176
0.521685
0.0821114
0.513401
0.0840505
0.504337
0.0875769
0.494568
0.0911402
0.484155
0.0951694
0.47309
0.0997285
0.461382
0.104728
0.449036
0.110324
0.435996
0.11705
0.422149
0.125787
0.407274
0.138227
0.390733
0.159415
0.371642
0.193935
0.345641
0.286315
0.305343
0.387256
-0.166893
-0.218528
-0.137648
-0.229943
-0.10091
-0.282334
-0.0645197
-0.289004
-0.0272131
-0.300136
0.0110821
-0.310608
0.0478338
-0.303046
0.0803926
-0.277474
0.108959
-0.250148
0.134116
-0.223869
0.155606
-0.19512
0.174135
-0.170094
0.190561
-0.150042
0.20529
-0.132606
0.218759
-0.118728
0.231327
-0.107551
0.24318
-0.0985063
0.254453
-0.0912802
0.26525
-0.0857124
0.275659
-0.0812225
0.285711
-0.0776773
0.295372
-0.0743565
0.304624
-0.0705509
0.31327
-0.0639334
0.321035
-0.0549666
0.327762
-0.0463495
0.333502
-0.0380278
0.338226
-0.0300496
0.341979
-0.022345
0.344758
-0.014945
0.346593
-0.00780189
0.347519
-0.0009283
0.347524
0.00590279
0.346593
0.0129405
0.34461
0.0208869
0.341217
0.0320213
0.335652
0.0488538
0.326391
0.093519
0.309939
0.171943
-0.195312
0.225549
-0.245772
0.256045
-0.250445
0.29077
-0.273008
0.320964
-0.24361
0.350495
-0.236885
0.379385
-0.226075
0.405343
-0.202896
0.429272
-0.1847
0.451233
-0.165011
0.470854
-0.144627
0.488602
-0.126588
0.504589
-0.108587
0.518637
-0.0913929
0.530937
-0.0748546
0.541624
-0.0583777
0.550415
-0.042076
0.557406
-0.025274
0.562457
-0.00858943
0.565624
0.00888975
0.566805
0.0261344
0.565918
0.0440301
0.563214
0.0602473
0.558754
0.0749038
0.552848
0.085024
0.54575
0.0892087
0.537636
0.0921645
0.528681
0.0965324
0.518929
0.100892
0.508377
0.105722
0.497131
0.110974
0.485145
0.116715
0.472392
0.123077
0.458836
0.130607
0.444355
0.140268
0.428724
0.153858
0.411326
0.176814
0.391626
0.213635
0.367121
0.310819
0.329594
0.424784
-0.165531
-0.248309
-0.13482
-0.260655
-0.0961212
-0.321032
-0.0578706
-0.327254
-0.0188828
-0.339124
0.0212485
-0.350739
0.0595296
-0.341327
0.093329
-0.311273
0.122789
-0.279608
0.148584
-0.249664
0.170397
-0.216932
0.189023
-0.18872
0.205442
-0.16646
0.220081
-0.147245
0.233438
-0.132086
0.245928
-0.120041
0.257745
-0.110323
0.269043
-0.102579
0.279963
-0.0966324
0.290537
-0.0917958
0.300772
-0.0879129
0.310709
-0.0842936
0.320267
-0.0801081
0.329243
-0.0729101
0.337357
-0.0630798
0.344467
-0.0534601
0.35054
-0.0441007
0.355608
-0.0351174
0.359645
-0.0263826
0.362678
-0.0179776
0.364739
-0.00986315
0.365809
-0.00199819
0.365934
0.00577742
0.36506
0.0138144
0.363058
0.022889
0.359577
0.0355023
0.35389
0.0545406
0.34467
0.10274
0.328796
0.187817
-0.195946
0.227753
-0.277579
0.259827
-0.282519
0.296484
-0.309664
0.328362
-0.275488
0.359512
-0.268035
0.389876
-0.256439
0.416982
-0.230001
0.442144
-0.209862
0.465144
-0.188011
0.485711
-0.165194
0.504252
-0.145129
0.520877
-0.125212
0.535727
-0.106243
0.548875
-0.0880022
0.560153
-0.0696556
0.569722
-0.0516453
0.577435
-0.0329872
0.583276
-0.0144304
0.587104
0.00506179
0.588956
0.0242823
0.58879
0.044197
0.586665
0.062372
0.582786
0.0787829
0.57739
0.0904193
0.570694
0.0959049
0.562886
0.0999731
0.554051
0.105368
0.54427
0.110672
0.53367
0.116322
0.522209
0.122435
0.50995
0.128973
0.496868
0.136159
0.482879
0.144596
0.467847
0.155299
0.451515
0.17019
0.433309
0.19502
0.41255
0.234394
0.388359
0.335009
0.352662
0.460481
-0.164488
-0.279767
-0.13227
-0.292873
-0.0914957
-0.361806
-0.0513139
-0.367436
-0.0103612
-0.380077
0.031636
-0.392736
0.0716809
-0.381372
0.106871
-0.346463
0.137397
-0.310135
0.163906
-0.276172
0.186183
-0.23921
0.205022
-0.207559
0.221508
-0.182947
0.236089
-0.161826
0.249349
-0.145346
0.261738
-0.13243
0.273488
-0.122073
0.284789
-0.11388
0.295736
-0.10758
0.306421
-0.10248
0.316859
-0.0983516
0.327019
-0.0944531
0.336833
-0.089922
0.346139
-0.0822159
0.354603
-0.0715443
0.362066
-0.060923
0.368506
-0.0505411
0.373897
-0.0405079
0.37825
-0.0307361
0.381545
-0.0212725
0.383807
-0.0121249
0.385072
-0.00326294
0.385305
0.00554414
0.384496
0.0146233
0.382484
0.0249007
0.378953
0.0390337
0.37313
0.0603637
0.363967
0.111902
0.348731
0.203053
-0.196899
0.230507
-0.311187
0.264343
-0.316355
0.303039
-0.34836
0.33652
-0.308969
0.369284
-0.300799
0.401236
-0.288391
0.429853
-0.258618
0.456152
-0.236161
0.480228
-0.212087
0.501701
-0.186668
0.521144
-0.164572
0.538637
-0.142704
0.554106
-0.121712
0.567877
-0.101774
0.579931
-0.081709
0.590189
-0.0619031
0.598563
-0.0413613
0.605038
-0.0209055
0.609547
0.00055211
0.61209
0.0217393
0.6126
0.0436873
0.611139
0.0638329
0.607843
0.0820788
0.602946
0.0953163
0.596639
0.102212
0.589106
0.107506
0.580423
0.11405
0.570716
0.12038
0.560022
0.127015
0.548415
0.134042
0.535897
0.141492
0.522458
0.149598
0.508067
0.158986
0.492524
0.170843
0.475576
0.187139
0.456665
0.213931
0.434878
0.256181
0.410254
0.359633
0.375649
0.495087
-0.163804
-0.312862
-0.129856
-0.326822
-0.0869491
-0.404713
-0.0446759
-0.409709
-0.00167964
-0.423073
0.0423676
-0.436783
0.084354
-0.423359
0.121041
-0.38315
0.15274
-0.341833
0.18015
-0.303583
0.203002
-0.262062
0.222152
-0.226708
0.23874
-0.199535
0.253329
-0.176415
0.266513
-0.15853
0.278807
-0.144723
0.290461
-0.133728
0.301709
-0.125128
0.312682
-0.118552
0.323427
-0.113225
0.333985
-0.108909
0.344325
-0.104793
0.354413
-0.10001
0.364019
-0.0918218
0.372822
-0.0803471
0.380637
-0.0687384
0.387416
-0.05732
0.393154
-0.0462456
0.397791
-0.0353736
0.40137
-0.0248507
0.403868
-0.0146228
0.405301
-0.00469645
0.405679
0.00516583
0.404922
0.0153802
0.402927
0.0268962
0.399334
0.0426263
0.393404
0.0662938
0.384365
0.120941
0.369785
0.217633
-0.198356
0.233672
-0.346504
0.26937
-0.352052
0.310226
-0.389216
0.345563
-0.344307
0.380082
-0.335318
0.413676
-0.321985
0.443715
-0.288657
0.471353
-0.263799
0.496493
-0.237227
0.518956
-0.20913
0.539237
-0.184853
0.557469
-0.160937
0.573761
-0.138004
0.58824
-0.116253
0.600912
-0.0943802
0.611766
-0.0727578
0.620813
-0.050408
0.627978
-0.0280703
0.633148
-0.00461835
0.636263
0.018625
0.637402
0.0425477
0.636524
0.0647108
0.633793
0.0848097
0.629445
0.099665
0.623631
0.108026
0.616395
0.114742
0.607918
0.122527
0.598264
0.130033
0.587526
0.137754
0.575781
0.145787
0.563036
0.154238
0.549267
0.163367
0.534431
0.173822
0.518375
0.186899
0.500833
0.20468
0.481269
0.233495
0.45867
0.278779
0.433378
0.384925
0.399422
0.529043
-0.16334
-0.347878
-0.127732
-0.362429
-0.082458
-0.449987
-0.0379951
-0.454172
0.00724685
-0.468315
0.0535596
-0.483096
0.0975091
-0.467308
0.135899
-0.42154
0.168896
-0.37483
0.197311
-0.331998
0.220833
-0.285584
0.240381
-0.246257
0.257195
-0.216348
0.27184
-0.19106
0.28498
-0.17167
0.297187
-0.15693
0.308744
-0.145285
0.319913
-0.136297
0.330844
-0.129483
0.341625
-0.124006
0.352266
-0.119551
0.362773
-0.115301
0.373069
-0.110305
0.382967
-0.10172
0.392085
-0.0894653
0.400238
-0.076892
0.40736
-0.0644418
0.413407
-0.0522921
0.418368
-0.0403354
0.422224
-0.0287067
0.424968
-0.0173665
0.426607
-0.00633578
0.427116
0.0046571
0.42645
0.0160469
0.424459
0.0288872
0.420845
0.0462395
0.414837
0.0723022
0.405887
0.129891
0.392015
0.231505
-0.200055
0.237318
-0.383766
0.274982
-0.389715
0.318138
-0.432372
0.355367
-0.381536
0.39167
-0.371621
0.427026
-0.357341
0.458615
-0.320247
0.487569
-0.292753
0.513945
-0.263603
0.537407
-0.232592
0.558658
-0.206104
0.577679
-0.179957
0.594684
-0.15501
0.609841
-0.13141
0.623057
-0.107597
0.634596
-0.0842963
0.644265
-0.0600774
0.652023
-0.0358286
0.657846
-0.0104411
0.661625
0.0148457
0.663347
0.0408262
0.663081
0.0649769
0.660926
0.0869645
0.657084
0.103507
0.651689
0.113421
0.644782
0.121649
0.636541
0.130768
0.627011
0.139564
0.616262
0.148502
0.604392
0.157657
0.591411
0.167219
0.577329
0.177449
0.562057
0.189094
0.54551
0.203446
0.527371
0.222819
0.507161
0.253706
0.483808
0.302132
0.457921
0.410813
0.424461
0.562503
-0.16326
-0.384673
-0.125606
-0.400083
-0.0779536
-0.49764
-0.0311135
-0.501012
0.0164394
-0.515868
0.0650825
-0.531739
0.111297
-0.513522
0.15147
-0.461714
0.185938
-0.409298
0.215459
-0.361519
0.239764
-0.309889
0.259786
-0.266279
0.276877
-0.233439
0.291626
-0.205809
0.304751
-0.184795
0.316898
-0.169076
0.328368
-0.156755
0.33943
-0.147359
0.350302
-0.140355
0.361079
-0.134783
0.371775
-0.130247
0.382391
-0.125917
0.39289
-0.120804
0.40304
-0.11187
0.412453
-0.0988788
0.420927
-0.0853659
0.42838
-0.071895
0.434767
-0.0586791
0.440041
-0.0456092
0.444181
-0.0328461
0.447167
-0.0203529
0.448998
-0.00816667
0.449664
0.00399089
0.449088
0.0166228
0.447127
0.0308477
0.443488
0.0498787
0.437436
0.0783546
0.428662
0.138665
0.415482
0.244684
-0.202071
0.241441
-0.423137
0.281128
-0.429402
0.326699
-0.477943
0.365885
-0.420721
0.404122
-0.409858
0.441435
-0.394654
0.474553
-0.353365
0.504955
-0.323155
0.532693
-0.291341
0.55726
-0.257159
0.579401
-0.228245
0.599274
-0.19983
0.616913
-0.172649
0.632749
-0.147246
0.646722
-0.121569
0.658829
-0.0964034
0.669103
-0.0703509
0.677434
-0.0441593
0.683746
-0.0167534
0.688096
0.0104952
0.690432
0.0384902
0.690689
0.06472
0.689091
0.0885628
0.685773
0.106825
0.680849
0.118345
0.674348
0.12815
0.666318
0.138798
0.656926
0.148956
0.646236
0.159192
0.634274
0.169619
0.621101
0.180392
0.606698
0.191852
0.591054
0.204738
0.573993
0.220507
0.555235
0.241576
0.534371
0.274569
0.510373
0.326131
0.483911
0.437274
0.450977
0.595438
-0.163272
-0.423471
-0.123742
-0.439613
-0.0734267
-0.547956
-0.024103
-0.550336
0.0259405
-0.565911
0.077151
-0.58295
0.125655
-0.562026
0.16781
-0.503869
0.203799
-0.445287
0.234583
-0.392303
0.259743
-0.33505
0.280367
-0.286902
0.297812
-0.250884
0.312733
-0.22073
0.325907
-0.197969
0.337995
-0.181164
0.349367
-0.168128
0.36035
-0.158342
0.371139
-0.151144
0.381867
-0.145511
0.39258
-0.14096
0.403297
-0.136634
0.413957
-0.131463
0.424332
-0.122245
0.434038
-0.108585
0.442812
-0.09414
0.450583
-0.0796658
0.457278
-0.0653739
0.462862
-0.0511935
0.467276
-0.0372598
0.470523
-0.0236005
0.472582
-0.0102252
0.473391
0.00318142
0.472933
0.0170812
0.471021
0.0327596
0.467374
0.0535258
0.461307
0.0844213
0.452681
0.147292
0.440249
0.257115
-0.204455
0.245986
-0.464668
0.287802
-0.471218
0.335888
-0.526029
0.377142
-0.461975
0.4175
-0.450216
0.45677
-0.433924
0.491596
-0.388191
0.523559
-0.355117
0.552594
-0.320376
0.578261
-0.282826
0.601399
-0.251383
0.622151
-0.220583
0.640667
-0.191165
0.657136
-0.163714
0.671699
-0.136132
0.684391
-0.109096
0.695216
-0.0811763
0.704105
-0.0530483
0.711067
-0.0237146
0.715938
0.00562389
0.71877
0.0356581
0.719614
0.063876
0.718515
0.0896617
0.715696
0.109644
0.711211
0.12283
0.705083
0.134279
0.697361
0.146519
0.688138
0.158179
0.677488
0.169842
0.665467
0.181641
0.652134
0.193724
0.637469
0.206516
0.621413
0.220795
0.603857
0.238063
0.584525
0.260909
0.563031
0.296063
0.538366
0.350797
0.511404
0.464236
0.479015
0.627827
-0.163491
-0.464436
-0.121814
-0.48129
-0.0687971
-0.600972
-0.016844
-0.602289
0.0358439
-0.618599
0.0897412
-0.636847
0.140743
-0.613027
0.18497
-0.548096
0.22266
-0.482977
0.254767
-0.42441
0.28092
-0.361202
0.302187
-0.30817
0.320045
-0.268742
0.335203
-0.235888
0.348455
-0.211221
0.360539
-0.193249
0.371833
-0.179422
0.382713
-0.169222
0.39341
-0.161842
0.404082
-0.156183
0.41478
-0.151657
0.425541
-0.147396
0.436338
-0.142261
0.446942
-0.132848
0.456891
-0.118534
0.465942
-0.103191
0.474013
-0.0877368
0.481017
-0.0723782
0.486907
-0.057083
0.49162
-0.0419727
0.495124
-0.0271046
0.497381
-0.0124821
0.498384
0.00217804
0.498032
0.0174335
0.496184
0.0346072
0.492554
0.0571559
0.486491
0.0904841
0.478075
0.155708
0.466421
0.268769
-0.207053
0.250803
-0.508418
0.294951
-0.515366
0.34572
-0.576798
0.389209
-0.505465
0.431731
-0.492738
0.473036
-0.475229
0.509721
-0.424877
0.543297
-0.388693
0.573716
-0.350795
0.600617
-0.309728
0.624892
-0.275658
0.646503
-0.242193
0.665786
-0.210448
0.682987
-0.180916
0.69815
-0.151295
0.711444
-0.12239
0.72281
-0.0925424
0.732265
-0.0625028
0.739694
-0.0311442
0.745124
0.000194336
0.748462
0.0323196
0.749776
0.0625623
0.74921
0.0902275
0.746868
0.111986
0.742864
0.126834
0.737107
0.140036
0.729675
0.153951
0.720649
0.167205
0.710072
0.180418
0.698043
0.193671
0.684566
0.207201
0.669653
0.221429
0.653242
0.237206
0.635214
0.256091
0.615331
0.280792
0.593167
0.318227
0.567901
0.376062
0.540481
0.491656
0.50861
0.659698
-0.163866
-0.507623
-0.119979
-0.525177
-0.0640938
-0.656857
-0.00930657
-0.657076
0.0461547
-0.674061
0.102859
-0.693551
0.156567
-0.666735
0.202978
-0.594507
0.242501
-0.522499
0.276047
-0.457957
0.303247
-0.388403
0.325251
-0.330174
0.343624
-0.287115
0.359065
-0.251328
0.372448
-0.224604
0.384565
-0.205366
0.395813
-0.19067
0.406604
-0.180013
0.417203
-0.172441
0.427787
-0.166767
0.438458
-0.162329
0.449245
-0.158182
0.460148
-0.153164
0.470918
-0.143618
0.481092
-0.128707
0.490417
-0.112517
0.498768
-0.0960876
0.50608
-0.0796903
0.512255
-0.0632574
0.517253
-0.0469715
0.521016
-0.0308672
0.523518
-0.0149837
0.524687
0.00100815
0.524456
0.0176646
0.522695
0.0363686
0.519093
0.0607578
0.513098
0.0964793
0.504884
0.163921
0.493988
0.279666
-0.209978
0.25613
-0.55457
0.302719
-0.561954
0.356174
-0.630253
0.402131
-0.551422
0.446821
-0.537428
0.4904
-0.518808
0.528935
-0.463412
0.564228
-0.423986
0.59619
-0.382757
0.624403
-0.33794
0.649663
-0.300918
0.672312
-0.264843
0.692361
-0.230498
0.710281
-0.198835
0.726179
-0.167193
0.740013
-0.136224
0.751958
-0.104487
0.761916
-0.0724608
0.769898
-0.0391266
0.775782
-0.00568942
0.779594
0.0285078
0.781432
0.0607246
0.781284
0.0903754
0.779407
0.113864
0.775817
0.130423
0.770443
0.14541
0.763336
0.161058
0.754533
0.176008
0.744111
0.190841
0.732072
0.20571
0.718485
0.220787
0.70334
0.236574
0.686589
0.253957
0.668131
0.27455
0.647664
0.301258
0.624919
0.340972
0.599051
0.40193
0.571155
0.519553
0.539825
0.691027
-0.16445
-0.553152
-0.11818
-0.571446
-0.0592134
-0.715824
-0.00151911
-0.714771
0.0569357
-0.732515
0.116649
-0.753265
0.173095
-0.723181
0.221934
-0.643345
0.263362
-0.563928
0.298498
-0.493093
0.326859
-0.416763
0.349688
-0.353003
0.368618
-0.306045
0.384405
-0.267115
0.397975
-0.238174
0.410136
-0.217526
0.421378
-0.201911
0.432078
-0.190713
0.442578
-0.182941
0.453073
-0.177262
0.463688
-0.172943
0.474477
-0.168971
0.485466
-0.164153
0.496393
-0.154546
0.506775
-0.139089
0.516326
-0.122068
0.524934
-0.104695
0.532512
-0.0872681
0.538985
-0.0697309
0.544253
-0.052239
0.548288
-0.0349026
0.551003
-0.0176986
0.552377
-0.000365956
0.552308
0.017734
0.550612
0.0380646
0.547104
0.064266
0.54117
0.102413
0.533235
0.171856
0.52311
0.289791
-0.213136
0.261817
-0.603251
0.310877
-0.611014
0.367401
-0.686777
0.415669
-0.59969
0.462883
-0.584642
0.508728
-0.564653
0.549374
-0.504057
0.586398
-0.461011
0.619945
-0.416303
0.649491
-0.367485
0.676032
-0.327459
0.699611
-0.288423
0.720603
-0.251489
0.739278
-0.21751
0.755806
-0.183721
0.770262
-0.15068
0.782725
-0.11695
0.793167
-0.0829026
0.801583
-0.0475422
0.807952
-0.0120589
0.812259
0.0242006
0.814471
0.0585134
0.814773
0.0900732
0.81335
0.115286
0.810178
0.133595
0.805226
0.150362
0.798438
0.167847
0.789858
0.184587
0.779551
0.201147
0.767571
0.21769
0.75391
0.234449
0.738567
0.251917
0.72151
0.271014
0.702625
0.293435
0.681664
0.322219
0.658328
0.364309
0.631901
0.428357
0.603576
0.547878
0.572746
0.721857
-0.16514
-0.601148
-0.116367
-0.620219
-0.0541836
-0.778008
0.00657676
-0.775531
0.0681704
-0.794109
0.131072
-0.816166
0.190522
-0.782631
0.241834
-0.694657
0.285333
-0.607427
0.322123
-0.529883
0.351748
-0.446388
0.375488
-0.376743
0.395047
-0.325604
0.411254
-0.283323
0.425057
-0.251977
0.437326
-0.229796
0.44856
-0.213145
0.459209
-0.201363
0.469614
-0.193346
0.480036
-0.187684
0.490567
-0.183474
0.501352
-0.179756
0.512389
-0.17519
0.523446
-0.165603
0.53401
-0.149653
0.543758
-0.131816
0.552622
-0.11356
0.560459
-0.0951051
0.567181
-0.0764531
0.572747
-0.0578048
0.577029
-0.0391847
0.579987
-0.0206568
0.581537
-0.00191535
0.58162
0.0176512
0.580063
0.0396216
0.576624
0.067705
0.570832
0.108205
0.563151
0.179536
0.553815
0.299128
-0.216587
0.267885
-0.654549
0.319617
-0.662746
0.379194
-0.746354
0.430186
-0.650682
0.479843
-0.634299
0.528219
-0.613029
0.570882
-0.54672
0.609861
-0.49999
0.645106
-0.451548
0.676138
-0.398517
0.703855
-0.355177
0.728589
-0.313156
0.750462
-0.273363
0.769933
-0.236981
0.787105
-0.200893
0.802202
-0.165776
0.815176
-0.129924
0.826105
-0.0938317
0.835028
-0.0564647
0.841808
-0.0188392
0.846503
0.0195059
0.849144
0.0558724
0.849848
0.0893685
0.848826
0.116309
0.846071
0.136349
0.841472
0.154962
0.835003
0.174316
0.826716
0.192874
0.816583
0.21128
0.804642
0.22963
0.790924
0.248167
0.775437
0.267404
0.75811
0.28834
0.738831
0.312715
0.717388
0.343662
0.693501
0.388196
0.666551
0.455307
0.637817
0.576611
0.607441