/*--------------------------------*- C++ -*----------------------------------*\
  =========                 |
  \\      /  F ield         | OpenFOAM: The Open Source CFD Toolbox
   \\    /   O peration     | Website:  https://openfoam.org
    \\  /    A nd           | Version:  12
     \\/     M anipulation  |
\*---------------------------------------------------------------------------*/
FoamFile
{
    format      ascii;
    class       volScalarField;
    location    "4.78";
    object      p_rgh;
}
// * * * * * * * * * * * * * * * * * * * * * * * * * * * * * * * * * * * * * //

dimensions      [1 -1 -2 0 0 0 0];

internalField   nonuniform List<scalar> 
3829
(
1.23599
1.23555
1.23465
1.23327
1.2314
1.22903
1.22613
1.2227
1.21871
1.21415
1.20901
1.20327
1.1969
1.18991
1.18226
1.17395
1.16496
1.15527
1.14487
1.13374
1.12186
1.10922
1.0958
1.08158
1.06656
1.05071
1.03403
1.0165
0.998106
0.978848
0.958715
0.9377
0.915801
0.893017
0.86935
0.844804
0.819388
0.793114
0.766015
0.738113
0.709442
0.680042
0.64996
0.619251
0.587977
0.556213
0.524037
0.491539
0.458817
0.425976
0.393132
0.360406
0.327928
0.295833
0.264262
0.233357
0.20327
0.174147
0.146136
0.11938
0.0940195
0.0701922
0.0480216
0.0276272
0.00910896
-0.00744703
-0.0219745
-0.0344224
-0.0447605
-0.0529761
-0.0590876
-0.0631377
-0.065182
-0.0653287
-0.063709
-0.0604844
-0.0558367
-0.0499703
-0.0431076
-0.0354879
-0.0273653
-0.0190039
-0.0106739
-0.00264766
0.0048054
0.0114252
0.0169657
0.0212061
0.02396
0.0250806
0.0240832
0.0210841
0.0161198
0.00925788
0.000594686
-0.00974298
-0.0215947
-0.0347445
-0.0489306
-0.0638498
-0.0791601
-0.0945004
-0.109491
-0.123746
-0.136898
-0.148588
-0.158494
-0.166334
-0.171885
-0.174993
-0.17558
-0.173498
-0.16891
-0.161969
-0.152886
-0.141941
-0.129479
-0.115894
-0.101631
-0.0872034
-0.0730504
-0.0596433
-0.0474273
-0.0368056
-0.0281276
-0.0216728
-0.0176373
-0.0161279
-0.017429
-0.0212656
-0.0275214
-0.0360014
-0.046435
-0.0584879
-0.071779
-0.0858932
-0.100394
-0.114844
-0.128815
-0.141913
-0.153768
-0.164067
-0.172548
-0.179014
-0.183331
-0.185441
-0.185318
-0.183055
-0.178774
-0.172654
-0.16492
-0.155833
-0.145683
-0.134779
-0.123424
-0.111958
-0.100673
-0.0898546
-0.079766
-0.0706361
-0.0626566
-0.0559805
-0.0507174
-0.0469317
-0.0446455
-0.0438385
-0.0444505
-0.0463852
-0.0495134
-0.0536794
-0.0587053
-0.0643961
-0.0705472
-0.076949
-0.0833928
-0.0896783
-0.0956112
-0.10102
-0.105751
-0.109673
-0.112682
-0.114702
-0.11569
-0.115629
-0.114537
-0.112457
-0.109464
-0.10566
-0.101168
-0.096129
-0.0907041
-0.0850646
-0.0793918
-0.0738707
-0.0686836
-0.0640074
-0.060009
-0.0568406
-0.0546329
-0.0534913
1.27656
1.27609
1.27513
1.27365
1.27166
1.26913
1.26605
1.2624
1.25816
1.25333
1.24789
1.24182
1.23511
1.22775
1.21972
1.211
1.20159
1.19146
1.18061
1.16902
1.15667
1.14354
1.12962
1.1149
1.09935
1.08295
1.06569
1.04754
1.02848
1.00849
0.987566
0.965675
0.942808
0.918952
0.894099
0.868244
0.841395
0.813585
0.784722
0.754899
0.724165
0.692557
0.660119
0.62691
0.592998
0.558466
0.523408
0.487929
0.452144
0.416183
0.380183
0.344295
0.308676
0.27349
0.238911
0.205114
0.172283
0.140601
0.110251
0.0814072
0.0542405
0.0289164
0.00558897
-0.0155977
-0.0345195
-0.0510856
-0.0652157
-0.076852
-0.0859666
-0.0925678
-0.0966973
-0.0984278
-0.097709
-0.0947447
-0.0897657
-0.082975
-0.0745827
-0.0648497
-0.0540528
-0.0424918
-0.0304741
-0.0183261
-0.00638396
0.00501797
0.0155501
0.0249006
0.0327744
0.0389057
0.0430539
0.045037
0.0442266
0.0409282
0.0351909
0.0270818
0.016705
0.00421867
-0.0101545
-0.0261254
-0.0433542
-0.0614545
-0.079994
-0.0985223
-0.116562
-0.133656
-0.149343
-0.163189
-0.17481
-0.183871
-0.190109
-0.193334
-0.19344
-0.190438
-0.184442
-0.175637
-0.164316
-0.15085
-0.13568
-0.119293
-0.102209
-0.0850667
-0.0683784
-0.0526976
-0.0385397
-0.0263627
-0.0165569
-0.00943152
-0.00520294
-0.00399935
-0.00574462
-0.0104391
-0.0179003
-0.0278509
-0.0399456
-0.0537766
-0.0688927
-0.0848125
-0.10104
-0.117086
-0.132477
-0.146783
-0.159613
-0.170637
-0.179589
-0.186274
-0.190569
-0.192428
-0.191903
-0.189061
-0.184067
-0.177134
-0.16852
-0.15852
-0.147455
-0.13566
-0.123469
-0.111234
-0.0992658
-0.0878647
-0.0773006
-0.0678064
-0.0595762
-0.0527593
-0.0474589
-0.0437321
-0.0415904
-0.041002
-0.0418938
-0.044156
-0.0476467
-0.0521971
-0.0576166
-0.0636987
-0.0702281
-0.076986
-0.083756
-0.0903292
-0.0965107
-0.102123
-0.10701
-0.111039
-0.114109
-0.116145
-0.117104
-0.116975
-0.115779
-0.113566
-0.110414
-0.106431
-0.101745
-0.0965045
-0.0908745
-0.0850327
-0.0791652
-0.0734612
-0.0681073
-0.063285
-0.0591646
-0.055901
-0.0536277
-0.0524525
1.34594
1.34538
1.34424
1.34251
1.34017
1.33723
1.33408
1.32982
1.32491
1.31937
1.31318
1.30633
1.29882
1.29064
1.28179
1.27224
1.26201
1.25107
1.23942
1.22704
1.21392
1.20005
1.1854
1.16994
1.15365
1.13651
1.11846
1.09949
1.07955
1.0586
1.0366
1.01351
0.989293
0.963904
0.937299
0.909439
0.880292
0.84986
0.818233
0.785343
0.751191
0.715819
0.679283
0.641655
0.60302
0.563484
0.52317
0.482215
0.440777
0.399028
0.357158
0.315369
0.27388
0.232918
0.192717
0.153518
0.115574
0.0791335
0.0444446
0.0117426
-0.0187306
-0.0467807
-0.0722043
-0.0947286
-0.114229
-0.130688
-0.143969
-0.153994
-0.160723
-0.164172
-0.164392
-0.161477
-0.155696
-0.147116
-0.135988
-0.122597
-0.106874
-0.0899172
-0.0717816
-0.0528708
-0.0336124
-0.0144549
0.00414347
0.0217299
0.0378671
0.0521432
0.0641776
0.0736406
0.0802653
0.0837808
0.0830328
0.0789238
0.0714929
0.0608058
0.0469971
0.0303029
0.0110598
-0.0103132
-0.0333305
-0.0574487
-0.0820688
-0.106565
-0.130295
-0.152628
-0.172961
-0.190732
-0.205439
-0.216675
-0.224116
-0.227504
-0.226553
-0.221573
-0.212728
-0.200305
-0.184734
-0.166535
-0.146311
-0.124736
-0.102493
-0.080404
-0.0591392
-0.0393957
-0.0218048
-0.00691502
0.00481708
0.0130514
0.0175719
0.0182795
0.0153719
0.00887003
-0.000932352
-0.0136428
-0.0287946
-0.0458554
-0.0642508
-0.0833847
-0.102657
-0.121486
-0.139329
-0.1557
-0.170169
-0.182386
-0.192081
-0.199074
-0.203269
-0.20466
-0.203323
-0.199403
-0.193116
-0.184731
-0.174565
-0.162969
-0.150314
-0.136985
-0.123355
-0.109808
-0.0966839
-0.0843018
-0.0729457
-0.0628537
-0.0542192
-0.0471864
-0.0418479
-0.0382448
-0.036371
-0.0361724
-0.037556
-0.0403897
-0.044508
-0.0497202
-0.0558142
-0.0625643
-0.0697372
-0.0770986
-0.084419
-0.0914792
-0.0980764
-0.104027
-0.109173
-0.11338
-0.116547
-0.118602
-0.119508
-0.11926
-0.117885
-0.115442
-0.112018
-0.10773
-0.102715
-0.0971311
-0.0911542
-0.08497
-0.0787733
-0.0727607
-0.0671259
-0.0620573
-0.0577314
-0.0543075
-0.0519239
-0.0506921
1.43757
1.43716
1.43593
1.43386
1.43094
1.4272
1.42265
1.41729
1.41115
1.40424
1.39659
1.38821
1.37913
1.36939
1.35911
1.34803
1.33636
1.32411
1.31129
1.29792
1.28398
1.26946
1.25433
1.23856
1.22208
1.20484
1.18675
1.16775
1.14774
1.12661
1.10427
1.08061
1.05553
1.02893
1.00072
0.970827
0.939182
0.905744
0.870493
0.833416
0.794527
0.753863
0.71149
0.667499
0.622007
0.575158
0.527124
0.478104
0.42832
0.37802
0.327472
0.276963
0.226802
0.177305
0.128814
0.0816695
0.0362118
-0.00720923
-0.0482625
-0.0866083
-0.121523
-0.153492
-0.181874
-0.206404
-0.226886
-0.243156
-0.255102
-0.262658
-0.265799
-0.264566
-0.259061
-0.249445
-0.235946
-0.218844
-0.198474
-0.175242
-0.149598
-0.122052
-0.0931884
-0.0636212
-0.0339273
-0.00472729
0.0233437
0.0496674
0.0736443
0.0947295
0.112415
0.126277
0.135996
0.141384
0.140459
0.134956
0.124825
0.110121
0.0910567
0.0680108
0.0414816
0.0120819
-0.0194845
-0.0524363
-0.0859238
-0.119075
-0.151001
-0.180825
-0.207726
-0.230956
-0.249876
-0.264004
-0.273082
-0.277178
-0.273746
-0.265469
-0.252261
-0.23447
-0.212673
-0.187603
-0.160105
-0.131116
-0.1016
-0.0725769
-0.0449675
-0.0196659
0.00253542
0.0209821
0.035151
0.0446757
0.0493601
0.0491708
0.0443304
0.0350712
0.0218314
0.00515908
-0.0143079
-0.0358625
-0.0587658
-0.0822705
-0.10564
-0.12815
-0.149211
-0.168246
-0.184786
-0.19846
-0.209009
-0.216271
-0.220196
-0.220831
-0.218323
-0.212887
-0.204815
-0.194457
-0.182204
-0.168483
-0.153731
-0.138391
-0.122896
-0.107657
-0.0930552
-0.0794321
-0.067085
-0.0562579
-0.0471422
-0.0398711
-0.0345234
-0.0311187
-0.0296222
-0.0299561
-0.0319995
-0.0355903
-0.040533
-0.0466084
-0.0535779
-0.0611904
-0.0691902
-0.0773239
-0.0853459
-0.0930239
-0.100146
-0.106522
-0.111989
-0.116414
-0.119696
-0.121767
-0.122597
-0.122188
-0.120578
-0.117835
-0.114059
-0.109377
-0.103939
-0.0979168
-0.0914966
-0.0848758
-0.0782594
-0.0718544
-0.0658632
-0.0604822
-0.0558952
-0.052268
-0.0497445
-0.0484408
1.55613
1.55467
1.55218
1.54864
1.54404
1.53838
1.53166
1.52393
1.51514
1.50538
1.4947
1.48322
1.47104
1.45827
1.44503
1.43139
1.41743
1.40323
1.38877
1.37411
1.3593
1.34431
1.3291
1.31361
1.29773
1.28136
1.26434
1.24651
1.22769
1.20768
1.1863
1.16332
1.13852
1.11169
1.08261
1.05114
1.01722
0.980697
0.941503
0.899614
0.855041
0.807832
0.758076
0.705903
0.651484
0.595035
0.536809
0.477094
0.416211
0.354518
0.2924
0.230275
0.168585
0.107778
0.0483126
-0.00933342
-0.0646674
-0.117152
-0.166384
-0.211979
-0.25345
-0.290416
-0.322523
-0.349443
-0.370903
-0.386698
-0.396682
-0.400776
-0.398978
-0.391372
-0.378117
-0.359452
-0.335712
-0.307309
-0.274732
-0.238566
-0.199456
-0.15811
-0.115277
-0.0718476
-0.0286176
0.0135514
0.0537852
0.0912399
0.125101
0.154618
0.179113
0.197984
0.210759
0.217136
0.216424
0.209172
0.195325
0.175059
0.148773
0.117065
0.080677
0.0404946
-0.00248252
-0.0471564
-0.0923369
-0.136815
-0.179377
-0.218838
-0.254081
-0.284094
-0.307997
-0.325063
-0.334694
-0.336315
-0.332301
-0.320544
-0.301823
-0.276976
-0.246967
-0.212883
-0.175931
-0.137396
-0.0986055
-0.0608476
-0.0253555
0.00674839
0.0344865
0.0570674
0.0739074
0.0846378
0.0891175
0.087431
0.0798562
0.0668732
0.049113
0.0273375
0.00240348
-0.0247649
-0.0532255
-0.0820461
-0.110326
-0.137222
-0.16203
-0.184116
-0.202967
-0.218203
-0.229579
-0.236975
-0.240398
-0.239977
-0.235938
-0.228586
-0.218307
-0.205544
-0.190782
-0.174529
-0.157302
-0.139613
-0.121951
-0.104769
-0.088486
-0.0734649
-0.0600179
-0.0483919
-0.0387731
-0.0312811
-0.0259749
-0.0228514
-0.0218284
-0.0228132
-0.025649
-0.0301377
-0.0360494
-0.0431319
-0.0511157
-0.0597224
-0.0686713
-0.0776867
-0.0865055
-0.094882
-0.102594
-0.109445
-0.115268
-0.119929
-0.12333
-0.125408
-0.126141
-0.125539
-0.123651
-0.120558
-0.116375
-0.11124
-0.105317
-0.0987935
-0.0918676
-0.08475
-0.0776573
-0.0708071
-0.0644122
-0.0586777
-0.0537954
-0.0499384
-0.0472568
-0.045872
1.69631
1.69442
1.69063
1.68497
1.67745
1.66815
1.65718
1.6448
1.6308
1.61527
1.59827
1.5801
1.56108
1.5416
1.52202
1.50269
1.48388
1.4658
1.44856
1.43232
1.41702
1.40269
1.38923
1.37648
1.36419
1.35208
1.33981
1.32706
1.31338
1.29837
1.28156
1.26251
1.24076
1.21592
1.1877
1.15599
1.12051
1.08111
1.03768
0.990194
0.938703
0.883308
0.824171
0.761515
0.695618
0.626809
0.555458
0.481992
0.406879
0.330629
0.253795
0.17694
0.100662
0.0255995
-0.0476122
-0.11834
-0.185849
-0.249743
-0.309293
-0.363895
-0.412988
-0.456047
-0.492615
-0.522276
-0.544703
-0.559637
-0.566902
-0.566422
-0.558225
-0.542468
-0.519369
-0.489279
-0.452677
-0.410135
-0.362333
-0.310077
-0.25425
-0.195813
-0.135809
-0.0753636
-0.015588
0.0423577
0.0973272
0.148193
0.193882
0.233384
0.265771
0.290232
0.306074
0.312643
0.312181
0.302329
0.28332
0.255611
0.219881
0.177005
0.128033
0.0742073
0.0169025
-0.0423885
-0.102066
-0.160503
-0.216075
-0.267229
-0.312506
-0.3506
-0.380419
-0.401111
-0.41209
-0.413109
-0.404918
-0.38729
-0.360953
-0.326946
-0.286563
-0.241286
-0.192735
-0.142628
-0.0926963
-0.0446028
9.50112e-05
0.0399981
0.0739344
0.100991
0.120523
0.132182
0.13592
0.13197
0.120795
0.103096
0.0797625
0.0518183
0.0203806
-0.0133743
-0.0482697
-0.083167
-0.116962
-0.148728
-0.177633
-0.202979
-0.224227
-0.241
-0.253079
-0.260402
-0.263046
-0.261278
-0.255369
-0.245746
-0.232902
-0.217386
-0.199786
-0.180702
-0.160734
-0.140465
-0.120447
-0.101171
-0.0830913
-0.0665957
-0.0520063
-0.0395718
-0.0294679
-0.0217966
-0.0165934
-0.0138431
-0.0133674
-0.0151016
-0.0188327
-0.0243224
-0.0313041
-0.0394908
-0.0485792
-0.0582626
-0.0682346
-0.0781957
-0.0878642
-0.096982
-0.105317
-0.112665
-0.118856
-0.123757
-0.127272
-0.129345
-0.12996
-0.12914
-0.126946
-0.123471
-0.118844
-0.113218
-0.106774
-0.0997108
-0.092243
-0.0845946
-0.0769936
-0.0696692
-0.0628447
-0.0567345
-0.0515386
-0.0474376
-0.0445883
-0.0431176
1.87983
1.87575
1.86758
1.85532
1.83906
1.81899
1.79534
1.76851
1.7397
1.71009
1.67953
1.64918
1.6199
1.59229
1.56666
1.54298
1.52107
1.50084
1.48244
1.46617
1.45235
1.44113
1.43246
1.42611
1.42165
1.41847
1.4158
1.41282
1.40899
1.40344
1.39527
1.38364
1.36785
1.34712
1.32144
1.29027
1.25338
1.21065
1.16204
1.10759
1.04742
0.981759
0.91088
0.835141
0.754964
0.670838
0.583315
0.492993
0.400519
0.306569
0.211873
0.117206
0.0233539
-0.0688609
-0.158048
-0.244484
-0.326798
-0.404155
-0.475766
-0.540884
-0.598795
-0.648833
-0.690412
-0.723026
-0.746267
-0.759829
-0.763526
-0.75729
-0.741207
-0.715461
-0.6804
-0.636505
-0.584429
-0.524948
-0.45897
-0.387566
-0.311905
-0.233252
-0.152984
-0.0725488
0.00660033
0.0829704
0.15506
0.221422
0.28069
0.331602
0.373005
0.403914
0.423555
0.431346
0.428966
0.414549
0.388365
0.351041
0.303481
0.246859
0.182576
0.112281
0.0377965
-0.038911
-0.11576
-0.190627
-0.261421
-0.326134
-0.382928
-0.430158
-0.466493
-0.490928
-0.502846
-0.502069
-0.488949
-0.463996
-0.428235
-0.383066
-0.330219
-0.271653
-0.209494
-0.145954
-0.0832432
-0.0234438
0.031523
0.0799725
0.120527
0.15216
0.174202
0.186355
0.18869
0.181678
0.165989
0.142596
0.112699
0.0776276
0.0387913
-0.00235285
-0.0443744
-0.0859178
-0.125633
-0.162578
-0.195762
-0.224434
-0.248043
-0.26623
-0.278828
-0.285838
-0.287405
-0.284015
-0.275934
-0.263736
-0.248038
-0.229507
-0.208831
-0.18671
-0.16383
-0.140847
-0.118368
-0.0969242
-0.0770047
-0.0590183
-0.0432958
-0.0300803
-0.0195347
-0.0117385
-0.00669277
-0.00431534
-0.00453382
-0.00710389
-0.0118052
-0.0183659
-0.026482
-0.0358301
-0.0460751
-0.0568792
-0.0679104
-0.0788466
-0.0893839
-0.0992578
-0.108224
-0.116073
-0.12263
-0.127764
-0.131382
-0.133436
-0.133918
-0.132862
-0.130341
-0.126464
-0.121374
-0.115238
-0.108252
-0.100633
-0.0926072
-0.084413
-0.0762909
-0.0684809
-0.0612172
-0.0547231
-0.049207
-0.0448572
-0.0418368
-0.0402783
2.13813
2.13233
2.12093
2.10418
2.08256
2.05711
2.02913
1.99809
1.96198
1.91688
1.86807
1.81633
1.76244
1.7079
1.65437
1.60377
1.55806
1.51883
1.48709
1.46337
1.44779
1.44006
1.43944
1.44504
1.45539
1.46909
1.48378
1.49621
1.51005
1.52186
1.52877
1.52911
1.52302
1.50999
1.48896
1.4595
1.42138
1.37461
1.31932
1.25581
1.18446
1.10572
1.0201
0.928157
0.830512
0.727856
0.62092
0.510504
0.397453
0.28267
0.167085
0.0516782
-0.062512
-0.173933
-0.282601
-0.386976
-0.485996
-0.578629
-0.663881
-0.740811
-0.808537
-0.86625
-0.913239
-0.948881
-0.97269
-0.984305
-0.983498
-0.970168
-0.944808
-0.907347
-0.858299
-0.798335
-0.728323
-0.649275
-0.562368
-0.468982
-0.370623
-0.2689
-0.165565
-0.0624495
0.0385968
0.135697
0.226981
0.310651
0.385006
0.448494
0.499727
0.537527
0.560987
0.569528
0.564182
0.543738
0.508616
0.459639
0.397975
0.325147
0.242971
0.153565
0.0592574
-0.0374425
-0.133871
-0.227376
-0.315323
-0.395203
-0.464739
-0.521918
-0.565133
-0.593221
-0.605512
-0.601891
-0.582747
-0.549009
-0.502096
-0.443881
-0.376633
-0.302876
-0.225315
-0.146729
-0.0698631
0.00274014
0.0687668
0.126249
0.173603
0.209709
0.233912
0.246015
0.246268
0.235342
0.214243
0.184257
0.146922
0.103907
0.0569452
0.00779608
-0.0418454
-0.0903819
-0.13633
-0.178575
-0.216069
-0.248013
-0.273854
-0.293271
-0.306163
-0.312639
-0.313011
-0.307585
-0.297049
-0.282036
-0.263271
-0.241536
-0.217631
-0.19235
-0.166469
-0.140724
-0.115749
-0.0921268
-0.0703774
-0.0509281
-0.0341138
-0.0201698
-0.00924212
-0.00138424
0.00343196
0.00531647
0.00440435
0.000954146
-0.00476292
-0.0124345
-0.0217187
-0.032254
-0.0436748
-0.0556123
-0.0677106
-0.0796255
-0.0910232
-0.101649
-0.111238
-0.119576
-0.126487
-0.131841
-0.135549
-0.137571
-0.137906
-0.136603
-0.133746
-0.129457
-0.123895
-0.117243
-0.109713
-0.101534
-0.0929495
-0.0842099
-0.0755679
-0.0672743
-0.0595735
-0.052698
-0.0468638
-0.0422668
-0.0390766
-0.0374311
2.44808
2.43496
2.40862
2.36846
2.31375
2.24369
2.15665
2.0566
1.95275
1.84708
1.73981
1.63754
1.54411
1.46179
1.39137
1.33308
1.28679
1.25232
1.2295
1.21833
1.2191
1.23223
1.25785
1.29651
1.34796
1.41146
1.48456
1.55421
1.6176
1.66806
1.70224
1.72219
1.72817
1.7216
1.70287
1.67189
1.62896
1.57454
1.50911
1.43321
1.34746
1.2525
1.14906
1.03788
0.919782
0.795644
0.666401
0.533043
0.396624
0.258257
0.119119
-0.0195607
-0.155881
-0.289903
-0.41969
-0.543955
-0.661413
-0.770825
-0.870986
-0.96076
-1.03909
-1.10499
-1.15762
-1.19624
-1.22031
-1.22943
-1.22339
-1.20222
-1.16577
-1.11478
-1.04982
-0.971709
-0.881537
-0.78058
-0.670311
-0.552463
-0.428908
-0.301648
-0.172851
-0.0447763
0.0803046
0.200083
0.312265
0.414665
0.505232
0.582104
0.643641
0.688477
0.715599
0.724359
0.715025
0.687252
0.641621
0.579162
0.501358
0.410131
0.307765
0.196908
0.0804652
-0.0384554
-0.156563
-0.270585
-0.377296
-0.473644
-0.556865
-0.624562
-0.674827
-0.706327
-0.718354
-0.710891
-0.684536
-0.640571
-0.580889
-0.507919
-0.424553
-0.333956
-0.239481
-0.144534
-0.0524462
0.0337584
0.111369
0.17811
0.232233
0.272555
0.298446
0.309874
0.307312
0.2917
0.264393
0.227039
0.181542
0.129938
0.0743058
0.0167103
-0.0408716
-0.0965625
-0.148845
-0.196403
-0.23813
-0.273203
-0.301083
-0.321505
-0.334448
-0.340121
-0.338936
-0.33138
-0.31821
-0.300217
-0.278249
-0.253204
-0.225991
-0.197498
-0.168591
-0.140109
-0.112659
-0.086893
-0.0633639
-0.042511
-0.0246693
-0.0100633
0.00118076
0.00903643
0.0135648
0.0149107
0.0132619
0.00890165
0.00214578
-0.00665176
-0.0171109
-0.0288336
-0.041423
-0.0544824
-0.0676333
-0.0805133
-0.0927399
-0.1041
-0.114292
-0.123099
-0.130344
-0.135901
-0.139685
-0.141661
-0.141842
-0.140285
-0.137089
-0.132388
-0.126358
-0.119195
-0.111126
-0.102396
-0.093264
-0.0839906
-0.0748404
-0.066075
-0.0579477
-0.0507007
-0.0445569
-0.0397195
-0.036364
-0.0346337
2.88004
2.86339
2.83092
2.78324
2.72068
2.64645
2.55939
2.461
2.40518
2.2524
2.12589
2.0005
1.87788
1.76263
1.65651
1.56215
1.48167
1.41705
1.36985
1.34135
1.33252
1.34353
1.37335
1.42196
1.48544
1.56111
1.67982
1.70296
1.79499
1.85701
1.90854
1.9481
1.96983
1.97329
1.95786
1.92415
1.87359
1.80808
1.72888
1.63704
1.53353
1.41922
1.29499
1.16177
1.0205
0.872244
0.718128
0.559347
0.397168
0.232921
0.0679869
-0.0953871
-0.257095
-0.414989
-0.567528
-0.713194
-0.85044
-0.97779
-1.09382
-1.19719
-1.28665
-1.36104
-1.41938
-1.46083
-1.48474
-1.49067
-1.47839
-1.44799
-1.39958
-1.33377
-1.25135
-1.15335
-1.04116
-0.916332
-0.780684
-0.636323
-0.485529
-0.330727
-0.174536
-0.0196849
0.131099
0.275043
0.409413
0.53161
0.63921
0.730014
0.80207
0.853827
0.884144
0.892333
0.87828
0.842112
0.784611
0.707092
0.611406
0.499924
0.37544
0.24119
0.100706
-0.0422489
-0.183707
-0.319733
-0.446456
-0.560242
-0.657814
-0.736355
-0.793661
-0.828227
-0.839309
-0.827082
-0.792361
-0.736844
-0.662959
-0.573766
-0.472839
-0.364052
-0.251473
-0.139192
-0.0311302
0.0691775
0.158621
0.234633
0.295314
0.339453
0.366505
0.376608
0.370544
0.349552
0.315355
0.270003
0.215797
0.155142
0.090484
0.0241927
-0.0415062
-0.104309
-0.162911
-0.215683
-0.261481
-0.299477
-0.329168
-0.350355
-0.363112
-0.367757
-0.364828
-0.354964
-0.339028
-0.31795
-0.29271
-0.264319
-0.233786
-0.20209
-0.170177
-0.13906
-0.109186
-0.0813435
-0.0561137
-0.0339383
-0.0151477
4.67726e-05
0.0115415
0.0193371
0.0235308
0.0243066
0.0218946
0.0166111
0.00881278
-0.00110479
-0.0127242
-0.0256135
-0.0393447
-0.0534962
-0.0676666
-0.081487
-0.0944941
-0.106566
-0.11733
-0.126578
-0.134136
-0.139876
-0.143721
-0.145643
-0.145664
-0.143852
-0.140319
-0.135214
-0.128726
-0.121065
-0.112473
-0.10321
-0.0935483
-0.0837603
-0.0741213
-0.0649022
-0.0563659
-0.0487622
-0.0423219
-0.0372538
-0.03374
-0.0319287
3.43503
3.41949
3.38687
3.33062
3.2402
3.09986
2.8701
2.47553
2.17459
1.80553
1.53146
1.30169
1.1111
0.955606
0.830518
0.73262
0.659323
0.608896
0.580377
0.573948
0.591339
0.634589
0.706594
0.813337
0.96165
1.15874
1.46857
1.76623
2.06751
2.21603
2.2965
2.33234
2.33589
2.31531
2.27574
2.22083
2.15177
2.06845
1.97111
1.86022
1.73638
1.60036
1.4531
1.29564
1.1291
0.954719
0.773799
0.587749
0.398058
0.2063
0.0141916
-0.176581
-0.364413
-0.547481
-0.72397
-0.892094
-1.05006
-1.19614
-1.32867
-1.4461
-1.54698
-1.62999
-1.69399
-1.73803
-1.76138
-1.76355
-1.74429
-1.70384
-1.64234
-1.5605
-1.4593
-1.34004
-1.20436
-1.05415
-0.891566
-0.719133
-0.539561
-0.355726
-0.170723
0.0122218
0.189899
0.359058
0.516498
0.659182
0.784275
0.889245
0.971863
1.03034
1.06339
1.07025
1.05074
1.00522
0.934714
0.840845
0.725877
0.592663
0.444561
0.285428
0.119458
-0.0488927
-0.214929
-0.374013
-0.521612
-0.653471
-0.765778
-0.855282
-0.919481
-0.956692
-0.966086
-0.948316
-0.9042
-0.835988
-0.746707
-0.640105
-0.520497
-0.392518
-0.260992
-0.130743
-0.00626735
0.108367
0.209643
0.294746
0.361644
0.409126
0.436766
0.444941
0.434766
0.407795
0.366173
0.312353
0.249063
0.179097
0.105242
0.0301728
-0.0437115
-0.113376
-0.178222
-0.236017
-0.285655
-0.326327
-0.357584
-0.379299
-0.391656
-0.395086
-0.390264
-0.377971
-0.359194
-0.334989
-0.306469
-0.274753
-0.240949
-0.206112
-0.171233
-0.137665
-0.105422
-0.0755992
-0.0487682
-0.0253641
-0.00570953
0.00999996
0.0216829
0.0293687
0.0331912
0.0333775
0.0301936
0.0239897
0.0151626
0.00414797
-0.00860018
-0.0226192
-0.0374511
-0.0526502
-0.0677935
-0.0824863
-0.0962867
-0.109007
-0.120306
-0.129965
-0.137809
-0.143715
-0.147607
-0.149467
-0.149325
-0.147262
-0.143402
-0.137905
-0.130975
-0.122835
-0.113741
-0.103969
-0.0938019
-0.0835245
-0.0734207
-0.0637712
-0.0548466
-0.0469053
-0.040184
-0.0348978
-0.0312341
-0.0293461
3.82008
3.79153
3.73426
3.6403
3.50998
3.33888
3.11979
2.79279
2.27344
2.37537
2.48783
2.55314
2.59931
2.6198
2.61083
2.57596
2.51779
2.43904
2.34134
2.22639
2.09548
1.94982
1.79051
1.61867
1.43548
1.24224
1.04035
0.831313
0.616737
0.398328
0.177899
-0.0426245
-0.261368
-0.476305
-0.685403
-0.886591
-1.07782
-1.25702
-1.42225
-1.5716
-1.7033
-1.81568
-1.90726
-1.97675
-2.0231
-2.04549
-2.04344
-2.01678
-1.9654
-1.88993
-1.79116
-1.67025
-1.52872
-1.36851
-1.19185
-1.00127
-0.799725
-0.590357
-0.376525
-0.161823
0.0500309
0.255314
0.450282
0.631253
0.794738
0.937507
1.05666
1.14969
1.21458
1.24989
1.2548
1.22917
1.1735
1.08909
0.977894
0.842611
0.686612
0.51384
0.328802
0.13638
-0.058245
-0.249634
-0.432426
-0.601385
-0.751631
-0.878794
-0.979196
-1.05003
-1.08949
-1.09692
-1.07251
-1.01808
-0.936253
-0.830669
-0.705788
-0.566715
-0.418891
-0.267905
-0.119416
0.0216284
0.150553
0.263463
0.35732
0.429992
0.480302
0.507996
0.51366
0.498875
0.465468
0.416025
0.353455
0.280883
0.201503
0.118454
0.0347108
-0.0470057
-0.123826
-0.194471
-0.256998
-0.3102
-0.353286
-0.38586
-0.407887
-0.419661
-0.421729
-0.414912
-0.400123
-0.378478
-0.351161
-0.319405
-0.284434
-0.247455
-0.209587
-0.171768
-0.136035
-0.101456
-0.069773
-0.0414521
-0.0169189
0.00351319
0.0196661
0.0314816
0.0390178
0.0424422
0.0420327
0.0380816
0.0309741
0.0211464
0.00907126
-0.00476253
-0.019862
-0.0357427
-0.051936
-0.0679986
-0.0835172
-0.0980583
-0.111387
-0.123183
-0.133221
-0.141328
-0.14738
-0.151308
-0.153101
-0.152797
-0.150489
-0.146313
-0.140444
-0.133089
-0.124493
-0.114924
-0.104669
-0.0940259
-0.0832875
-0.0727465
-0.0626923
-0.0534035
-0.0451453
-0.0381607
-0.0326698
-0.0288655
-0.0269056
4.42884
4.41822
4.40005
4.37287
4.34133
4.31442
4.26922
4.25783
3.14172
3.10444
3.12717
3.10588
3.08117
3.04388
2.99331
2.92828
2.84572
2.74513
2.62651
2.49037
2.33741
2.16854
1.98481
1.7874
1.57761
1.35686
1.12672
0.888874
0.645121
0.397393
0.147725
-0.101755
-0.348845
-0.591274
-0.826736
-1.0529
-1.26745
-1.46807
-1.65253
-1.81872
-1.96462
-2.0884
-2.18837
-2.26311
-2.31144
-2.33251
-2.32576
-2.29104
-2.2284
-2.13845
-2.02219
-1.88097
-1.71656
-1.53123
-1.32753
-1.10839
-0.87718
-0.637515
-0.393227
-0.148446
0.0926445
0.325793
0.54674
0.751322
0.935605
1.09595
1.2291
1.33226
1.40318
1.44031
1.44276
1.41043
1.34402
1.24506
1.11589
0.959638
0.780216
0.582168
0.370664
0.151298
-0.0700289
-0.287113
-0.493853
-0.684311
-0.852964
-0.994885
-1.10595
-1.18305
-1.22427
-1.22894
-1.1975
-1.13216
-1.03606
-0.913554
-0.769852
-0.610878
-0.442901
-0.272286
-0.105535
0.0519543
0.194903
0.31908
0.421242
0.499183
0.551808
0.579056
0.581715
0.561939
0.521762
0.464262
0.392808
0.310924
0.222192
0.13008
0.0378623
-0.0514736
-0.135086
-0.21128
-0.278235
-0.33471
-0.37994
-0.413597
-0.435743
-0.446782
-0.447384
-0.438516
-0.421212
-0.396723
-0.366352
-0.331449
-0.293333
-0.253309
-0.212572
-0.172223
-0.13387
-0.0973555
-0.0639641
-0.034272
-0.00871055
0.0124154
0.0289458
0.0408457
0.0482003
0.0512108
0.0502104
0.0455089
0.0375254
0.026735
0.0136457
-0.00121961
-0.017343
-0.0342134
-0.0513409
-0.0682656
-0.0845579
-0.0997848
-0.11368
-0.125934
-0.136319
-0.144663
-0.150845
-0.154799
-0.15652
-0.156058
-0.153515
-0.149038
-0.142815
-0.13506
-0.126034
-0.116018
-0.105311
-0.0942222
-0.0830534
-0.0721046
-0.0616731
-0.052045
-0.0434919
-0.0362624
-0.0305811
-0.0266461
-0.0246194
5.02179
5.01626
5.00727
4.99204
4.9744
4.95619
4.9276
4.91257
3.52929
3.50972
3.52458
3.50806
3.47721
3.42906
3.36222
3.27787
3.17511
3.05385
2.91401
2.75594
2.58017
2.38749
2.1789
1.95559
1.71893
1.47046
1.2119
0.945094
0.672061
0.394934
0.115977
-0.162437
-0.437837
-0.707688
-0.969425
-1.22044
-1.45816
-1.68001
-1.88351
-2.0663
-2.22617
-2.36105
-2.46912
-2.54881
-2.59883
-2.61824
-2.60644
-2.5634
-2.48917
-2.38444
-2.25041
-2.08862
-1.90112
-1.69048
-1.45959
-1.21177
-0.950827
-0.680837
-0.406096
-0.131331
0.138897
0.399744
0.646461
0.874401
1.07918
1.25676
1.40355
1.51644
1.59299
1.63151
1.63107
1.59164
1.51409
1.40021
1.25273
1.07522
0.872144
0.648638
0.410544
0.164165
-0.083869
-0.326589
-0.557159
-0.768942
-0.955762
-1.11214
-1.23352
-1.31649
-1.359
-1.36041
-1.32151
-1.2448
-1.13405
-0.994287
-0.831533
-0.652543
-0.464424
-0.274343
-0.0894952
0.0840537
0.24058
0.375527
0.48546
0.568139
0.622583
0.648957
0.648534
0.623183
0.576025
0.510387
0.430062
0.338975
0.241076
0.140157
0.0397614
-0.0568728
-0.146888
-0.228318
-0.299379
-0.358828
-0.405941
-0.440466
-0.462565
-0.472757
-0.471848
-0.460891
-0.441096
-0.413825
-0.3805
-0.342567
-0.30145
-0.258534
-0.215089
-0.172302
-0.1316
-0.0932286
-0.0582615
-0.0273149
-0.000823503
0.0209172
0.0377657
0.0497093
0.0568611
0.0594481
0.0578728
0.0524457
0.0436228
0.0319158
0.0178669
0.00202862
-0.0150557
-0.0328522
-0.0508512
-0.068578
-0.0855891
-0.101448
-0.115867
-0.12854
-0.139241
-0.147799
-0.154095
-0.158066
-0.159715
-0.159098
-0.156331
-0.15157
-0.145013
-0.136885
-0.127458
-0.117023
-0.105896
-0.0943933
-0.0828254
-0.0714989
-0.060718
-0.050776
-0.0419504
-0.0344946
-0.0286374
-0.0245817
-0.0224933
5.56515
5.5617
5.55653
5.54708
5.53725
5.52659
5.5124
5.50706
3.98553
3.94924
3.94414
3.91202
3.86486
3.801
3.71854
3.61732
3.49653
3.35612
3.19607
3.01673
2.81857
2.60239
2.36921
2.12026
1.857
1.58109
1.29441
0.998991
0.697034
0.390876
0.0830378
-0.223875
-0.527142
-0.823966
-1.11152
-1.38692
-1.64735
-1.88996
-2.11204
-2.311
-2.4844
-2.63001
-2.74581
-2.83011
-2.88152
-2.89903
-2.8819
-2.83045
-2.74447
-2.62491
-2.4731
-2.29082
-2.08035
-1.84457
-1.58673
-1.31052
-1.0202
-0.720283
-0.415548
-0.111214
0.187629
0.475644
0.747589
0.99834
1.22308
1.41737
1.57728
1.69944
1.78119
1.82072
1.81706
1.77026
1.68137
1.55247
1.38663
1.18791
0.961298
0.712531
0.448111
0.175046
-0.0993359
-0.367283
-0.621255
-0.853915
-1.05845
-1.22883
-1.36006
-1.44847
-1.49186
-1.48965
-1.44295
-1.35463
-1.22907
-1.07201
-0.89026
-0.691425
-0.483449
-0.274281
-0.0718091
0.117259
0.286787
0.43191
0.549038
0.635924
0.691719
0.716822
0.712788
0.681939
0.62776
0.554041
0.464991
0.364927
0.258158
0.148777
0.0405679
-0.0629593
-0.158979
-0.245295
-0.320129
-0.38226
-0.431011
-0.466213
-0.488128
-0.497391
-0.494944
-0.481914
-0.459692
-0.429733
-0.393578
-0.352762
-0.308807
-0.263167
-0.217182
-0.172099
-0.129263
-0.089151
-0.052737
-0.0206482
0.00667976
0.0289622
0.0460761
0.0580313
0.0649668
0.0671267
0.0650017
0.0588806
0.0492605
0.0366888
0.0217386
0.00499008
-0.0129893
-0.0316458
-0.0504526
-0.0689211
-0.0865952
-0.103034
-0.117932
-0.130988
-0.141975
-0.150726
-0.157121
-0.161102
-0.162678
-0.161914
-0.158936
-0.153909
-0.147039
-0.138564
-0.128764
-0.117943
-0.106426
-0.0945416
-0.0826059
-0.0709318
-0.0598293
-0.0495984
-0.0405225
-0.0328588
-0.0268401
-0.0226733
-0.0205284
6.05526
6.05311
6.05015
6.04443
6.0391
6.03315
6.02629
6.02441
4.39138
4.3526
4.33637
4.294
4.23448
4.15726
4.06039
3.94358
3.80604
3.64769
3.4685
3.26879
3.04908
2.81016
2.55309
2.27918
1.98999
1.68733
1.37323
1.04991
0.71978
0.385313
0.0493706
-0.28526
-0.615617
-0.938641
-1.25124
-1.55029
-1.8327
-2.09538
-2.3354
-2.54993
-2.73632
-2.89215
-3.01525
-3.1038
-3.15636
-3.17186
-3.14974
-3.08937
-2.99164
-2.85738
-2.68804
-2.48559
-2.25258
-1.99217
-1.70796
-1.40402
-1.08502
-0.75593
-0.421995
-0.0888842
0.237742
0.552099
0.848459
1.12124
1.3652
1.57552
1.74795
1.87883
1.96534
2.00556
1.99845
1.94415
1.84391
1.70009
1.51613
1.29653
1.04682
0.773315
0.483167
0.184063
-0.115982
-0.408459
-0.68514
-0.938012
-1.15963
-1.34343
-1.484
-1.5774
-1.62131
-1.61523
-1.56055
-1.46056
-1.32025
-1.14608
-0.945637
-0.727377
-0.500062
-0.272402
-0.0529616
0.150947
0.3328
0.487447
0.611174
0.701753
0.758478
0.782008
0.774158
0.737763
0.676624
0.594993
0.497469
0.388752
0.273494
0.156066
0.0404566
-0.069508
-0.171129
-0.261966
-0.340241
-0.404772
-0.454938
-0.49065
-0.512274
-0.520558
-0.51655
-0.501518
-0.476958
-0.444434
-0.405592
-0.36206
-0.315439
-0.267254
-0.218905
-0.171684
-0.126902
-0.085181
-0.0474451
-0.0143209
0.0137566
0.0365141
0.0538478
0.0657898
0.0725025
0.0742366
0.0715947
0.0648151
0.0544441
0.0410628
0.0252722
0.00767786
-0.0111298
-0.0305806
-0.0501317
-0.0692819
-0.0875641
-0.104533
-0.119868
-0.133271
-0.144517
-0.153439
-0.159921
-0.163907
-0.165411
-0.164508
-0.161331
-0.156057