/*--------------------------------*- C++ -*----------------------------------*\
  =========                 |
  \\      /  F ield         | OpenFOAM: The Open Source CFD Toolbox
   \\    /   O peration     | Website:  https://openfoam.org
    \\  /    A nd           | Version:  12
     \\/     M anipulation  |
\*---------------------------------------------------------------------------*/
FoamFile
{
    format      ascii;
    class       surfaceScalarField;
    location    "18.88";
    object      phi;
}
// * * * * * * * * * * * * * * * * * * * * * * * * * * * * * * * * * * * * * //

dimensions      [1 0 -1 0 0 0 0];

internalField   nonuniform List<scalar> 
7429
(
0.000278007
-0.000278007
0.000565126
-0.000287119
0.000856485
-0.000291358
0.00115214
-0.000295655
0.0014525
-0.000300363
0.00175787
-0.000305363
0.00206849
-0.000310627
0.00238461
-0.000316114
0.00270636
-0.000321756
0.00303388
-0.000327515
0.00336709
-0.00033321
0.0037059
-0.000338815
0.00405013
-0.000344226
0.00439936
-0.000349233
0.00475313
-0.000353762
0.00511076
-0.00035763
0.00547138
-0.000360628
0.00583407
-0.000362681
0.00619759
-0.000363529
0.00656066
-0.000363067
0.00692182
-0.000361161
0.00727946
-0.000357636
0.00763181
-0.000352355
0.0079769
-0.000345089
0.00831263
-0.00033573
0.0086367
-0.000324063
0.00894677
-0.000310068
0.00924043
-0.000293661
0.00951523
-0.000274805
0.00976862
-0.000253389
0.0099982
-0.000229576
0.0102017
-0.000203494
0.010377
-0.000175265
0.010522
-0.000145078
0.0106351
-0.000113094
0.0107149
-7.98142e-05
0.0107604
-4.54982e-05
0.0107707
-1.02263e-05
0.010746
2.46994e-05
0.0106844
6.157e-05
0.0105852
9.92415e-05
0.0104479
0.000137258
0.0102728
0.000175123
0.0100603
0.000212508
0.00981118
0.000249091
0.00952659
0.000284585
0.0092078
0.000318796
0.00885637
0.000351422
0.00847411
0.000382268
0.00806304
0.000411062
0.00762549
0.000437558
0.00716394
0.000461545
0.00668129
0.000482652
0.00618045
0.000500837
0.00566494
0.000515517
0.00513791
0.000527028
0.00460366
0.000534251
0.00406555
0.000538104
0.00352833
0.000537217
0.00299555
0.000532789
0.00247225
0.000523292
0.00196263
0.000509624
0.00147136
0.00049127
0.00100288
0.000468481
0.000561613
0.000441267
0.000151942
0.000409671
-0.000222249
0.00037419
-0.000556943
0.000334694
-0.000848478
0.000291535
-0.00109367
0.000245194
-0.00129002
0.000196349
-0.00143534
0.000145323
-0.00152829
9.29473e-05
-0.00156815
3.98616e-05
-0.00155039
-1.77661e-05
-0.0014767
-7.36835e-05
-0.00135055
-0.000126149
-0.00117514
-0.000175412
-0.000953397
-0.000221745
-0.000689345
-0.000264051
-0.000387713
-0.000301633
-5.43118e-05
-0.000333401
0.000304835
-0.000359147
0.00068185
-0.000377015
0.00106887
-0.000387022
0.00145768
-0.000388809
0.00183893
-0.000381252
0.00220392
-0.000364991
0.00254338
-0.000339459
0.00284846
-0.000305075
0.00311068
-0.000262224
0.00332206
-0.000211383
0.00347597
-0.000153901
0.0035663
-9.03322e-05
0.00358912
-2.2825e-05
0.00353152
5.76068e-05
0.0033975
0.000134021
0.00318986
0.000207631
0.00291206
0.000277802
0.00256913
0.000342929
0.00216733
0.000401804
0.00171482
0.000452509
0.00122231
0.000492514
0.000701785
0.000520521
0.000167289
0.000534495
-0.000366111
0.0005334
-0.000882723
0.000516613
-0.0013665
0.000483778
-0.00180175
0.00043525
-0.00217341
0.000371655
-0.00246839
0.000294979
-0.00267537
0.000206985
-0.00278603
0.000110657
-0.00279344
7.40802e-06
-0.00268582
-0.000107613
-0.0024737
-0.000212123
-0.00216517
-0.000308528
-0.00177072
-0.000394456
-0.00130385
-0.000466868
-0.000782177
-0.00052167
-0.000227147
-0.00055503
0.000338335
-0.000565482
0.000888432
-0.000550097
0.00139783
-0.000509399
0.00184119
-0.000443359
0.00219648
-0.000355292
0.00244394
-0.000247458
0.00257054
-0.000126598
0.00256116
9.37846e-06
0.00240919
0.000151963
0.00212756
0.000281636
0.0017306
0.00039696
0.00123722
0.000493379
0.000673084
0.000564136
6.98754e-05
0.000603209
-0.000536425
0.0006063
-0.0011073
0.000570874
-0.00160646
0.000499161
-0.00199953
0.000393069
-0.00225869
0.000259164
-0.00236424
0.000105551
-0.00229295
-7.12905e-05
-0.0020503
-0.000242655
-0.00165569
-0.000394612
-0.00113365
-0.000522032
-0.000519978
-0.000613676
0.00014199
-0.000661968
0.0007996
-0.00065761
0.00140041
-0.000600808
0.00189378
-0.000493375
0.00223631
-0.000342532
0.00239655
-0.000160236
0.00234647
5.00806e-05
0.00208662
0.000259853
0.00164362
0.000443003
0.00105303
0.000590581
0.000365871
0.000687163
-0.000356039
0.00072191
-0.00104112
0.000685079
-0.00162318
0.000582063
-0.00204414
0.00042096
-0.00226301
0.000218872
-0.00225499
-8.02526e-06
-0.00201828
-0.000236706
-0.00159504
-0.000423241
-0.00103716
-0.000557878
-0.000414453
-0.00062271
0.000193479
-0.000607932
0.00070588
-0.000512401
0.00105875
-0.000352867
0.00121024
-0.000151488
0.00113579
7.44432e-05
0.00086124
0.000274552
0.000441083
0.000420157
-5.24586e-05
0.000493542
-0.000529067
0.000476609
-0.000903542
0.000374475
-0.00110834
0.000204802
-0.00110131
-7.03783e-06
-0.000872627
-0.000228679
-0.000472215
-0.000400413
2.84045e-05
-0.000500619
0.000535042
-0.000506637
0.000945516
-0.000410474
0.00118024
-0.000234723
0.00119604
-1.5798e-05
0.000972302
0.000223735
0.000570164
0.000402138
7.33441e-05
0.00049682
-0.000413297
0.000486641
-0.000783711
0.000370413
-0.00096887
0.00018516
-0.000939139
-2.97314e-05
-0.000722519
-0.00021662
-0.000398224
-0.000324295
-6.40787e-05
-0.000334145
0.000171435
-0.000235514
0.000255363
-8.39278e-05
0.000178977
7.63855e-05
0.000178977
0.000319946
-0.000597953
0.000659978
-0.00062715
0.00100661
-0.000637993
0.00136072
-0.000649761
0.00172322
-0.000662867
0.00209514
-0.000677279
0.00247704
-0.000692524
0.00286943
-0.000708503
0.00327234
-0.00072467
0.0036857
-0.000740873
0.00410893
-0.000756441
0.00454149
-0.000771369
0.00498266
-0.000785393
0.00543145
-0.000798022
0.00588668
-0.000808995
0.00634696
-0.000817912
0.00681063
-0.0008243
0.00727581
-0.000827855
0.00774037
-0.000828089
0.00820191
-0.000824607
0.00865769
-0.000816939
0.00910483
-0.00080478
0.00954025
-0.000787773
0.00996079
-0.000765626
0.0103631
-0.000738079
0.0107442
-0.000705126
0.0111006
-0.000666494
0.0114296
-0.000622629
0.0117282
-0.000573386
0.011994
-0.000519162
0.0122247
-0.000460284
0.0124184
-0.000397266
0.0125738
-0.000330583
0.0126894
-0.00026074
0.0127648
-0.000188451
0.0127993
-0.000114375
0.0127937
-3.98993e-05
0.0127386
4.49343e-05
0.0126317
0.000131588
0.0124768
0.000216491
0.0122762
0.000299842
0.0120321
0.000381316
0.0117468
0.000460437
0.0114222
0.000537111
0.0110602
0.000611031
0.0106629
0.000681978
0.010232
0.00074966
0.00976974
0.00081367
0.00927819
0.000873823
0.00876021
0.000929039
0.00821822
0.000979554
0.00765515
0.00102461
0.00707431
0.00106349
0.00647876
0.00109639
0.00587239
0.00112188
0.00525879
0.00114063
0.00464226
0.00115079
0.00402692
0.00115344
0.0034173
0.00114684
0.00281756
0.00113252
0.00223248
0.00110837
0.00166655
0.00107556
0.00112442
0.0010334
0.000610971
0.000981933
0.000130348
0.000921889
-0.000313172
0.000853191
-0.000714689
0.000775707
-0.00107049
0.000690497
-0.00137693
0.000597978
-0.00163089
0.000499153
-0.00183007
0.000395525
-0.00197189
0.000287139
-0.00205551
0.000176574
-0.00207948
6.38296e-05
-0.00204079
-5.64576e-05
-0.00194335
-0.00017112
-0.00178921
-0.000280288
-0.00158048
-0.000384147
-0.00132109
-0.00048114
-0.00101541
-0.000569726
-0.00066912
-0.000647923
-0.000288394
-0.000714127
0.000118276
-0.000765818
0.000544089
-0.000802828
0.000979987
-0.000822919
0.00141662
-0.000825441
0.00184428
-0.000808909
0.00225276
-0.000773473
0.00263259
-0.000719288
0.00297372
-0.000646213
0.00326713
-0.000555634
0.00350422
-0.00044847
0.00367713
-0.000326808
0.00377878
-0.000191983
0.00380647
-5.05122e-05
0.00374741
0.000116666
0.00360612
0.000275303
0.00338483
0.000428923
0.00308651
0.000576121
0.0027162
0.000713248
0.00228089
0.000837106
0.00179016
0.000943241
0.00125574
0.00102694
0.000690868
0.00108539
0.000111216
0.00111415
-0.000466935
0.00111155
-0.00102602
0.0010757
-0.00154903
0.00100679
-0.00201838
0.000904599
-0.00241825
0.000771527
-0.00273388
0.000610603
-0.00295261
0.000425717
-0.00306501
0.000223055
-0.00306085
3.24805e-06
-0.00293892
-0.000229544
-0.0027034
-0.000447637
-0.00236301
-0.000648921
-0.00192795
-0.000829511
-0.00141409
-0.000980735
-0.000840223
-0.00109553
-0.000230681
-0.00116457
0.000388294
-0.00118446
0.000989439
-0.00115124
0.00154529
-0.00106525
0.00202812
-0.000926193
0.00241358
-0.000740751
0.00268006
-0.000513935
0.0028131
-0.000259634
0.00279596
2.65204e-05
0.00262816
0.000319758
0.00231941
0.000590389
0.00188326
0.000833111
0.00134094
0.0010357
0.000721425
0.00118365
5.99839e-05
0.00126465
-0.00060286
0.00126914
-0.00122687
0.00119489
-0.00177202
0.00104431
-0.00220002
0.000821073
-0.00248135
0.000540486
-0.00259253
0.00021673
-0.00251284
-0.000150974
-0.00224977
-0.000505728
-0.00182019
-0.000824189
-0.00125113
-0.00109109
-0.000579685
-0.00128512
0.000141721
-0.00138337
0.000858788
-0.00137468
0.00151293
-0.00125495
0.00204945
-0.0010299
0.00242053
-0.000713606
0.0025919
-0.000331612
0.00253513
0.000106853
0.00225483
0.000540149
0.00177501
0.000922824
0.00113492
0.00123068
0.000390343
0.00143174
-0.000390018
0.00150227
-0.00112751
0.00142257
-0.00175025
0.00120481
-0.00219448
0.000865193
-0.00241689
0.000441274
-0.0023882
-3.67097e-05
-0.00211861
-0.000506294
-0.00164565
-0.000896203
-0.00102803
-0.0011755
-0.000343447
-0.00130729
0.000318782
-0.00127016
0.000871372
-0.00106499
0.00124341
-0.000724905
0.00139095
-0.00029903
0.0012902
0.000175198
0.000972712
0.000592037
0.000494927
0.000897942
-6.18727e-05
0.00105034
-0.00059574
0.00101048
-0.00101325
0.000791984
-0.00123952
0.000431071
-0.0012281
-1.84524e-05
-0.00097778
-0.000479002
-0.000537224
-0.000840969
1.48262e-05
-0.00105267
0.000572069
-0.00106388
0.00102188
-0.000860289
0.00127701
-0.000489853
0.00128519
-2.39721e-05
0.00104023
0.000468696
0.000600698
0.000841666
5.87627e-05
0.00103876
-0.0004637
0.0010091
-0.000855099
0.000761813
-0.00103917
0.000369234
-0.000985631
-8.32733e-05
-0.000733029
-0.000469222
-0.00036718
-0.000690144
1.64981e-06
-0.000702975
0.000255132
-0.000488996
0.000331147
-0.000159942
0.000223825
0.000183707
0.000402802
0.000109961
-0.000707913
0.000229921
-0.00074711
0.000354766
-0.000762838
0.000486444
-0.000781439
0.000625985
-0.000802407
0.000775455
-0.000826748
0.000935096
-0.000852164
0.0011074
-0.000880809
0.00129214
-0.000909403
0.00149252
-0.000941255
0.00170993
-0.000973855
0.00194688
-0.00100831
0.00220328
-0.0010418
0.00247759
-0.00107233
0.00277302
-0.00110442
0.00309211
-0.001137
0.00343481
-0.001167
0.00380084
-0.00119389
0.00418782
-0.00121507
0.00459368
-0.00123047
0.00501503
-0.00123828
0.00544844
-0.00123819
0.00588941
-0.00122874
0.00633383
-0.00121004
0.00677612
-0.00118037
0.00721198
-0.00114098
0.00763561
-0.00109013
0.00804279
-0.00102981
0.00842746
-0.000958058
0.0087849
-0.000876605
0.00910854
-0.000783926
0.00939403
-0.000682748
0.00963746
-0.000574017
0.00983626
-0.000459538
0.00998855
-0.000340739
0.0100944
-0.000220251
0.0101527
-9.81358e-05
0.0101725
2.50483e-05
0.0101524
0.000151739
0.0100889
0.000279984
0.00998078
0.000407963
0.00982759
0.000534509
0.00962949
0.000658536
0.00938726
0.000779337
0.009102
0.000896294
0.00877538
0.0010086
0.00840924
0.0011158
0.00800574
0.00121716
0.00756727
0.0013123
0.00709623
0.00140007
0.00659559
0.0014802
0.00606851
0.00155169
0.00551815
0.00161385
0.00494844
0.0016661
0.004363
0.00170732
0.00376629
0.00173733
0.00316285
0.00175423
0.00255696
0.00175933
0.00195353
0.00175027
0.00135792
0.00172813
0.000775413
0.00169088
0.000211467
0.00163951
-0.000328603
0.00157347
-0.000838916
0.00149225
-0.00131382
0.00139679
-0.00174782
0.0012872
-0.00213683
0.00116471
-0.00247521
0.00102888
-0.00275918
0.000881948
-0.0029845
0.000724472
-0.00314747
0.000558496
-0.00324677
0.000386442
-0.00327994
0.000209745
-0.00324728
3.11707e-05
-0.00313874
-0.000165002
-0.0029653
-0.000344564
-0.00272803
-0.000517552
-0.00242938
-0.0006828
-0.00207368
-0.000836839
-0.00166562
-0.000977787
-0.00121198
-0.00110156
-0.000720714
-0.00120539
-0.000199834
-0.0012867
0.000340313
-0.00134297
0.000889674
-0.00137228
0.00143721
-0.00137298
0.00197097
-0.00134267
0.00247989
-0.0012824
0.00295113
-0.00119052
0.00337442
-0.00106951
0.00373717
-0.000918377
0.00403096
-0.00074226
0.00424462
-0.000540473
0.00437327
-0.000320633
0.00441011
-8.73459e-05
0.00434489
0.000181883
0.0041819
0.00043829
0.00392248
0.000688345
0.00357008
0.000928518
0.00313021
0.00115312
0.00261242
0.0013549
0.0020278
0.00152786
0.00139115
0.00166359
0.000718707
0.00175783
2.8745e-05
0.00180411
-0.000658434
0.00179873
-0.00132236
0.00173962
-0.00194129
0.00162572
-0.00249533
0.00145864
-0.00296496
0.00124116
-0.00333242
0.000978062
-0.00358218
0.000675479
-0.00370674
0.00034761
-0.00368851
-1.49825e-05
-0.00353313
-0.000384922
-0.00324374
-0.000737028
-0.00282763
-0.00106503
-0.00229803
-0.00135911
-0.00167593
-0.00160283
-0.000983045
-0.00178842
-0.000248164
-0.00189945
0.000497443
-0.00193006
0.00122002
-0.00187382
0.00188517
-0.0017304
0.00246188
-0.0015029
0.00291909
-0.00119796
0.00323399
-0.000828841
0.00338419
-0.00040983
0.00335529
5.5417e-05
0.00314922
0.000525834
0.00277359
0.000966021
0.00224479
0.0013619
0.00158931
0.00169118
0.000842964
0.00192999
4.64302e-05
0.00206118
-0.00075185
0.00206742
-0.00150209
0.00194512
-0.00215496
0.00169719
-0.00266645
0.00133256
-0.0029988
0.000872839
-0.0031268
0.000344731
-0.003028
-0.000249779
-0.00271162
-0.000822103
-0.00219574
-0.00134007
-0.00151151
-0.00177532
-0.000707618
-0.00208901
0.000157957
-0.00224895
0.00101526
-0.00223198
0.00179646
-0.00203615
0.00243534
-0.00166878
0.00287493
-0.00115319
0.00307294
-0.000529624
0.00300095
0.000178844
0.00266614
0.000874956
0.0020931
0.00149587
0.00132993
0.00199385
0.000444858
0.00231681
-0.00047782
0.00242495
-0.00134622
0.00229097
-0.0020725
0.00193109
-0.00258326
0.00137595
-0.00282364
0.000681654
-0.00276382
-9.65288e-05
-0.002421
-0.000849119
-0.00183561
-0.00148159
-0.0010807
-0.0019304
-0.00025266
-0.00213533
0.000538283
-0.0020611
0.00118924
-0.00171595
0.00161707
-0.00115273
0.00176499
-0.000446956
0.00161618
0.000324009
0.0012068
0.00100142
0.000604817
0.00149993
-8.8146e-05
0.0017433
-0.000747357
0.00166969
-0.00125887
0.0013035
-0.00153225
0.00070445
-0.00151344
-3.72685e-05
-0.00120716
-0.000785277
-0.000669204
-0.00137893
1.18997e-06
-0.00172306
0.000674633
-0.00173732
0.00121512
-0.00140077
0.00151717
-0.000791907
0.00151608
-2.28824e-05
0.00121791
0.000766871
0.000687588
0.00137198
3.57365e-05
0.00169061
-0.000578795
0.00162364
-0.00102969
0.00121271
-0.00122435
0.000563892
-0.00112978
-0.000177843
-0.00079973
-0.00079927
-0.00034075
-0.00114912
0.000107455
-0.00115118
0.00040828
-0.000789821
0.00047715
-0.000228813
0.000312295
0.000348562
0.000715097
5.95717e-05
-0.000767484
0.000150339
-0.000837876
0.000263217
-0.000875716
0.000408063
-0.000926284
0.000592876
-0.000987219
0.000829086
-0.00106296
0.00111959
-0.00114267
0.00147173
-0.00123294
0.00188052
-0.00131819
0.00234141
-0.00140215
0.00283943
-0.00147187
0.00337024
-0.00153913
0.00393084
-0.00160239
0.00452507
-0.00166657
0.00514892
-0.00172827
0.00579986
-0.00178793
0.00647518
-0.00184232
0.00717064
-0.00188934
0.00788119
-0.00192562
0.00860386
-0.00195313
0.00933247
-0.00196689
0.01006
-0.00196575
0.0107767
-0.00194546
0.0114751
-0.00190835
0.0121427
-0.00184804
0.0127729
-0.00177115
0.0133513
-0.00166852
0.0138743
-0.00155279
0.0143267
-0.00141048
0.0147093
-0.00125923
0.0150166
-0.00109116
0.0152507
-0.000916927
0.0154114
-0.000734678
0.0155013
-0.000549487
0.0155227
-0.000362128
0.0154787
-0.00017625
0.0153664
1.41798e-05
0.0151679
0.00022356
0.0148995
0.000420133
0.0145701
0.000609441
0.0141861
0.00079192
0.0137526
0.000968025
0.0132732
0.00113788
0.0127512
0.0013014
0.0121893
0.00145815
0.0115904
0.00160754
0.0109569
0.00174925
0.0102919
0.0018822
0.00959841
0.00200579
0.0088786
0.00211988
0.00813685
0.00222195
0.00737537
0.00231318
0.00659929
0.00238993
0.00581143
0.00245396
0.00501595
0.0025028
0.00421754
0.00253574
0.00342163
0.00255015
0.00263282
0.00254814
0.00185657
0.00252651
0.00109883
0.00248587
0.000365033
0.00242468
-0.000338807
0.00234335
-0.0010063
0.00224096
-0.00163133
0.00211727
-0.00220845
0.00197391
-0.00273192
0.00181067
-0.00319487
0.00162767
-0.00359342
0.00142742
-0.00392241
0.00121094
-0.00417676
0.000978821
-0.00435407
0.000735804
-0.00445055
0.000482927
-0.00446636
0.000225555
-0.00438676
-4.84302e-05
-0.00423455
-0.000317215
-0.00400139
-0.000577729
-0.00368837
-0.000830566
-0.00329973
-0.00107144
-0.00284107
-0.0012955
-0.00232078
-0.00149808
-0.00174539
-0.00167695
-0.00112517
-0.00182561
-0.000470349
-0.00194152
0.000206698
-0.00202002
0.000893324
-0.00205891
0.00157609
-0.00205574
0.00224084
-0.00200742
0.00287216
-0.00191371
0.0034574
-0.00177577
0.00398018
-0.00159228
0.00443014
-0.00136834
0.00479204
-0.00110416
0.0050559
-0.000804333
0.00521531
-0.000480047
0.00525989
-0.000131922
0.00518154
0.000260229
0.00498435
0.000635486
0.00466887
0.00100382
0.00423923
0.00135816
0.00370301
0.00168933
0.0030713
0.00198661
0.00235933
0.00223983
0.00158391
0.00243901
0.000766295
0.00257545
-7.14431e-05
0.00264185
-0.000904787
0.00263207
-0.00170883
0.00254366
-0.00245811
0.002375
-0.00312542
0.00212595
-0.00368765
0.00180339
-0.00412419
0.00141461
-0.0044198
0.000971092
-0.00455712
0.000484929
-0.0045229
-4.92111e-05
-0.00432201
-0.000585808
-0.0039582
-0.00110084
-0.00344012
-0.00158311
-0.00278474
-0.00201449
-0.00201538
-0.0023722
-0.00116433
-0.00263946
-0.00026258
-0.0028012
0.000650518
-0.00284316
0.00153312
-0.00275642
0.0023445
-0.00254178
0.00304481
-0.00220321
0.00359716
-0.00175031
0.0039737
-0.00120538
0.0041465
-0.00058263
0.0041031
9.88153e-05
0.00384422
0.000784709
0.00337778
0.00143247
0.00272527
0.00201442
0.00191917
0.00249727
0.00100154
0.00284762
2.3477e-05
0.00303925
-0.000953889
0.00304479
-0.0018703
0.00286153
-0.00266627
0.00249316
-0.00328774
0.00195403
-0.00368878
0.00127388
-0.00383643
0.000492374
-0.00371223
-0.000373978
-0.00332399
-0.00121033
-0.00269018
-0.00197388
-0.00185272
-0.00261279
-0.000869586
-0.00307215
0.000186373
-0.00330491
0.00123177
-0.00327738
0.00218191
-0.00298629
0.00295598
-0.00244285
0.00348756
-0.00168478
0.00372038
-0.000762446
0.00362804
0.000271185
0.00321802
0.00128498
0.00251823
0.00219565
0.00158862
0.00292346
0.000513599
0.00339183
-0.000602806
0.00354135
-0.00164729
0.00333546
-0.00251439
0.00279819
-0.00311291
0.00197446
-0.00338076
0.000949501
-0.00328058
-0.000196705
-0.00283731
-0.00129238
-0.00210149
-0.00221741
-0.00116264
-0.00286925
-0.000138957
-0.00315902
0.000820921
-0.00302098
0.00160281
-0.00249783
0.00210105
-0.00165098
0.00225568
-0.000601579
0.0020423
0.000537385
0.00150822
0.0015355
0.000741407
0.00226674
-0.000131572
0.00261628
-0.000955359
0.00249347
-0.00159033
0.00193847
-0.00192449
0.00103861
-0.00189402
-6.7746e-05
-0.00151069
-0.0011686
-0.000841659
-0.00204796
-9.13787e-06
-0.00255558
0.000819854
-0.00256631
0.00148092
-0.00206184
0.00184487
-0.00115586
0.00183257
-1.05871e-05
0.00145867
0.00114078
0.000802846
0.00202781
8.2626e-06
0.00248519
-0.000736822
0.00236872
-0.00126989
0.00174578
-0.00147864
0.000772638
-0.0013308
-0.000325685
-0.000894866
-0.0012352
-0.000308199
-0.00173579
0.000251896
-0.00171128
0.00061255
-0.00115047
0.000671157
-0.00028742
0.000430688
0.000589031
0.00114579
-0.000201112
-0.000566372
-0.000365766
-0.000673221
-0.000504387
-0.000737094
-0.000602688
-0.000827983
-0.000656524
-0.000933383
-0.000656307
-0.00106317
-0.000637051
-0.00116193
-0.000603371
-0.00126662
-0.000632326
-0.00128924
-0.00067941
-0.00135506
-0.000709649
-0.00144163
-0.000670933
-0.00157784
-0.000544637
-0.00172869
-0.000319104
-0.0018921
8.66557e-06
-0.00205604
0.000438902
-0.00221817
0.000966572
-0.00236999
0.00158499
-0.00250776
0.00228493
-0.00262556
0.00305377
-0.00272198
0.00387491
-0.00278803
0.00473928
-0.00283012
0.00562915
-0.00283533
0.00653362
-0.00281282
0.00742894
-0.00274336
0.00830872
-0.00265092
0.00914285
-0.00250265
0.00993208
-0.00234203
0.0106372
-0.00211564
0.0112529
-0.00187485
0.0117667
-0.00160496
0.0121755
-0.00132574
0.0124831
-0.00104232
0.0126949
-0.000761259
0.0128198
-0.000487029
0.012863
-0.000219465
0.0128248
5.24235e-05
0.0127316
0.000316715
0.0125794
0.000572295
0.0123685
0.000820386
0.0121004
0.00106004
0.0117769
0.0012915
0.0114004
0.00151441
0.0109735
0.00172828
0.0104987
0.001933
0.00997819
0.00212802
0.00941408
0.00231335
0.00880939
0.00248689
0.00816634
0.00264884
0.0074889
0.00279732
0.00677806
0.00293279
0.00604002
0.00305122
0.00527614
0.00315381
0.00449255
0.00323756
0.00369369
0.00330166
0.00288439
0.00334504
0.00207049
0.00336404
0.00125799
0.00336063
0.000454575
0.00332993
-0.000334616
0.00327506
-0.00110168
0.00319175
-0.00183945
0.00308111
-0.00253942
0.00294093
-0.00319478
0.00277263
-0.00379872
0.00257785
-0.00434203
0.00235398
-0.00481974
0.00210537
-0.00522313
0.00183082
-0.00554649
0.0015343
-0.00578565
0.00121798
-0.00593755
0.000887702
-0.00599391
0.000539287
-0.00595687
0.000188512
-0.00581667
-0.000188628
-0.00558316
-0.000550727
-0.0052551
-0.000905783
-0.00483597
-0.0012497
-0.00432989
-0.00157752
-0.00374301
-0.00188238
-0.00308328
-0.00215781
-0.00236044
-0.00239979
-0.00158634
-0.00259971
-0.000774144
-0.00275372
6.17849e-05
-0.00285595
0.000907332
-0.00290445
0.00174465
-0.00289306
0.00255856
-0.00282134
0.00332998
-0.00268513
0.00404374
-0.00248952
0.00468095
-0.00222949
0.00522748
-0.00191487
0.00566516
-0.00154184
0.0059855
-0.00112468
0.00617667
-0.000671212
0.00622891
-0.000184162
0.00613595
0.000353183
0.00589866
0.000872779
0.00551845
0.00138403
0.00500028
0.00187633
0.00435378
0.00233584
0.00359323
0.00274716
0.00273521
0.00309785
0.00180392
0.0033703
0.000821122
0.00355824
-0.00018622
0.00364919
-0.00118539
0.00363124
-0.00214698
0.00350525
-0.00304002
0.00326805
-0.00383589
0.00292181
-0.00450443
0.00247193
-0.00502186
0.00193203
-0.00536401
0.00131324
-0.00551175
0.000632672
-0.00546084
-0.000100124
-0.0052094
-0.000837243
-0.00476052
-0.00154973
-0.00412724
-0.00221639
-0.00332886
-0.00281287
-0.00239355
-0.00330751
-0.00135871
-0.0036743
-0.000267399
-0.00389252
0.000831811
-0.00394237
0.00189351
-0.00381812
0.00286828
-0.00351655
0.00370665
-0.00304159
0.00436571
-0.00240937
0.00480795
-0.00164761
0.00501061
-0.000785291
0.00494863
0.000160792
0.00462717
0.00110617
0.00405778
0.00200185
0.00326395
0.00280824
0.0022843
0.00347693
0.00117138
0.00396054
-9.52188e-06
0.00422015
-0.0011884
0.00422367
-0.00229189
0.00396501
-0.00324794
0.00344921
-0.00399233
0.00269842
-0.00446888
0.00175043
-0.00463798
0.000661472
-0.00448349
-0.000528466
-0.00400991
-0.00168392
-0.00324181
-0.00274198
-0.00222984
-0.00362476
-0.00104372
-0.00425827
0.000227647
-0.00457628
0.00148361
-0.00453333
0.0026224
-0.00412508
0.00354803
-0.00336848
0.00417755
-0.0023143
0.00445016
-0.00103505
0.00433264
0.000388698
0.00383323
0.00178439
0.00298785
0.00304103
0.00187015
0.00404116
0.000583108
0.00467887
-0.000753379
0.00487784
-0.00199694
0.00457902
-0.00302223
0.00382348
-0.00371798
0.00267021
-0.00400999
0.00124151
-0.00386618
-0.000340516
-0.00330838
-0.00185018
-0.00240114
-0.00312465
-0.00125779
-0.00401261
-2.00717e-05
-0.00439673
0.00113758
-0.00417864
0.00206996
-0.00343021
0.00265309
-0.0022341
0.00280587
-0.000754361
0.0025188
0.000824457
0.00184316
0.00221114
0.000887104
0.00322279
-0.000190445
0.00369383
-0.00120086
0.00350389
-0.00197222
0.00270983
-0.00237288
0.00143927
-0.00232802
-0.000112603
-0.00185253
-0.0016441
-0.00102946
-0.00287103
-1.37937e-05
-0.00357125
0.000991645
-0.00357175
0.00178781
-0.002858
0.00221852
-0.00158657
0.00219233
1.56057e-05
0.00173042
0.00160268
0.000930975
0.00282725
-2.96317e-05
0.0034458
-0.000924147
0.00326324
-0.00154972
0.00237135
-0.00177282
0.000995741
-0.00156194
-0.000536561
-0.00100157
-0.00179557
-0.00026629
-0.00247107
0.000422138
-0.0023997
0.000850814
-0.00157915
0.000897785
-0.000334391
0.00056824
0.000918576
0.00171403
-0.00113177
0.000565397
-0.00220387
0.000398886
-0.00313004
0.000189075
-0.00381334
-0.000144687
-0.00423348
-0.000513245
-0.00429142
-0.00100523
-0.00404475
-0.0014086
-0.00353135
-0.00178003
-0.00299016
-0.00183042
-0.00228662
-0.0020586
-0.00152581
-0.00220245
-0.000750349
-0.0023533
3.04497e-05
-0.00250949
0.000834124
-0.00269578
0.00168341
-0.00290533
0.00259741
-0.00313217
0.00359232
-0.0033649
0.00467913
-0.00359457
0.00585686
-0.0038033
0.0071244
-0.00398951
0.00846723
-0.00413086
0.00986877
-0.00423166
0.011292
-0.00425853
0.0127218
-0.00424261
0.0141009
-0.0041225
0.0154264
-0.00397636
0.0165965
-0.00367284
0.0176767
-0.00342222
0.0184638
-0.00290275
0.0190477
-0.00245871
0.0193923
-0.0019496
0.019558
-0.00149137
0.0195647
-0.00104907
0.0194429
-0.000639473
0.0192145
-0.000258586
0.0188654
0.000129569
0.0184223
0.000495594
0.0179073
0.00083167
0.0173343
0.00114535
0.0167129
0.00144174
0.0160508
0.00172211
0.0153528
0.00198956
0.0146224
0.00224478
0.013862
0.00248867
0.0130726
0.00272237
0.0122569
0.00294373
0.0114151
0.00315518
0.0105481
0.00335387
0.00965694
0.00354001
0.00874397
0.00371029
0.00781116
0.0038656
0.00686083
0.00400155
0.0058957
0.00411894
0.00491951
0.00421375
0.00393668
0.00428449
0.00295187
0.00432984
0.00197103
0.00434489
0.000999758
0.0043319
4.50631e-05
0.00428463
-0.000886605
0.00420673
-0.00178637
0.00409151
-0.00264679
0.00394152
-0.00346032
0.00375446
-0.00421789
0.0035302
-0.00491039
0.00327035
-0.00553148
0.00297507
-0.00607192
0.00264581
-0.00652568
0.00228458
-0.00688506
0.00189368
-0.00714363
0.00147655
-0.00729423
0.0010383
-0.00733976
0.000584814
-0.00726564
0.0001144
-0.00708442
-0.00036985
-0.00679063
-0.00084452
-0.00638603
-0.00131038
-0.00587316
-0.00176257
-0.00525928
-0.0021914
-0.00455201
-0.00258965
-0.00376034
-0.00294949
-0.0028972
-0.00326293
-0.00197534
-0.00352157
-0.00100907
-0.00371998
-1.60892e-05
-0.00384893
0.00098582
-0.00390636
0.00197793
-0.00388517
0.0029381
-0.00378151
0.00385028
-0.00359732
0.00468867
-0.00332791
0.00543997
-0.00298079
0.00607997
-0.00255487
0.00659325
-0.00205512
0.00696673
-0.00149816
0.00718617
-0.000890656
0.00724249
-0.000240478
0.0071301
0.000465576
0.00684776
0.00115512
0.00639709
0.0018347
0.00578452
0.00248889
0.00502127
0.00309909
0.00412637
0.00364207
0.00311794
0.00410628
0.00202186
0.00446639
0.000867213
0.00471289
-0.000311035
0.00482744
-0.001481
0.00480121
-0.0026056
0.00462985
-0.00364771
0.00431016
-0.00457361
0.00384771
-0.00534869
0.00324701
-0.00594206
0.00252541
-0.00632746
0.00169864
-0.00649637
0.000801584
-0.00642388
-0.000172616
-0.00611758
-0.00114355
-0.00557972
-0.00208758
-0.00482213
-0.00297398
-0.0038778
-0.0037572
-0.00277366
-0.00441165
-0.00155462
-0.00489333
-0.000270501
-0.00517664
0.00102595
-0.00523883
0.0022733
-0.00506546
0.0034156
-0.00465885
0.00439345
-0.00401944
0.00516291
-0.00317883
0.0056707
-0.0021554
0.00589928
-0.00101387
0.00581728
0.000242793
0.00543076
0.00149269
0.0047525
0.00268011
0.00380977
0.00375098
0.00264999
0.0046367
0.00133778
0.00527275
-5.16912e-05
0.00560962
-0.0014358
0.00560778
-0.00273045
0.00525966
-0.00385024
0.00456901
-0.00471915
0.00356733
-0.0052726
0.00230388
-0.00546437
0.000853235
-0.00527662
-0.000716213
-0.00471352
-0.00224702
-0.00380512
-0.00365037
-0.00261145
-0.00481843
-0.00121619
-0.00565352
0.00027651
-0.00606898
0.00174852
-0.00600535
0.00308004
-0.0054566
0.00415886
-0.00444729
0.00488948
-0.00304493
0.00520135
-0.00134692
0.0050575
0.000532545
0.00446557
0.00237632
0.00346702
0.00403958
0.00215073
0.00535746
0.000638601
0.006191
-0.000919485
0.00643593
-0.00236703
0.00602657
-0.00355082
0.00500727
-0.00434855
0.00346794
-0.00466616
0.00155912
-0.00447145
-0.000535232
-0.00378981
-0.00253181
-0.00270156
-0.0042129
-0.00134263
-0.00537154
0.000113281
-0.00585265
0.00147669
-0.00554205
0.00256078
-0.0045143
0.00322255
-0.00289588
0.00337482
-0.000906626
0.00300689
0.00119239
0.00217888
0.00303914
0.00102745
0.00437423
-0.000261882
0.00498316
-0.00146419
0.0047062
-0.00237694
0.00362258
-0.00284249
0.00190483
-0.0027793
-0.000175798
-0.00220418
-0.00221921
-0.00121997
-0.00385524
-1.21246e-05
-0.0047791
0.00117588
-0.00475976
0.00211169
-0.00379381
0.0026098
-0.00208468
0.00256765
5.77545e-05
0.00200735
0.00216298
0.00105264
0.00378197
-8.07803e-05
0.00457921
-0.00112662
0.00430908
-0.00184748
0.00309221
-0.00208229
0.00123055
-0.00180189
-0.000816957
-0.0011072
-0.00249027
-0.000213011
-0.00336526
0.000608666
-0.00322138
0.00110844
-0.00207892
0.00114051
-0.000366461
0.000715966
0.00134312
0.00242999
-0.00197285
0.00253825
-0.00383144
0.00225747
-0.00533103
0.00168867
-0.00619919
0.000723478
-0.00612551
-0.000586932
-0.00489836
-0.00223237
-0.00294277
-0.00336419
-0.00112517
-0.00359762
-0.00141805
-0.00153754
-0.00291803
-0.000558629
-0.00462215
-0.000498325
-0.00594082
-0.00103463
-0.00668647
-0.00176383
-0.00686373
-0.00251852
-0.00653921
-0.00322985
-0.00578734
-0.00388404
-0.00467807
-0.00447417
-0.0032801
-0.00499253
-0.0016545
-0.00542889
0.000126974
-0.00577099
0.00199499
-0.00599888
0.00395183
-0.0061885
0.00593567
-0.00624237
0.00793648
-0.00624342
0.0098897
-0.00607572
0.0118338
-0.00592049
0.0136665
-0.0055055
0.0154679
-0.00522368
0.0167432
-0.00417801
0.0175785
-0.00329401
0.0180222
-0.00239324
0.0181672
-0.00163638
0.0180955
-0.000977444
0.0178719
-0.000415886
0.0175095
0.000103863
0.0170743
0.000564746
0.0166053
0.000964627
0.016105
0.00133199
0.015578
0.00167231
0.0150251
0.00199469
0.0144458
0.00230141
0.0138387
0.00259662
0.0132036
0.00287992
0.012537
0.00315521
0.01184
0.00341935
0.0111075
0.00367627
0.0103414
0.00392132
0.0095397
0.00415553
0.00870382
0.00437588
0.00783216
0.00458195
0.00692996
0.0047678
0.0059971
0.00493441
0.0050377
0.00507835
0.00405582
0.00519563
0.00305762
0.00528268
0.00204759
0.00533988
0.00103223
0.00536025
2.06173e-05
0.00534351
-0.000980918
0.00528616
-0.00196133
0.00518715
-0.00291205
0.00504223
-0.0038239
0.00485337
-0.00468673
0.0046173
-0.00549055
0.00433403
-0.00622769
0.00400748