/*--------------------------------*- C++ -*----------------------------------*\
  =========                 |
  \\      /  F ield         | OpenFOAM: The Open Source CFD Toolbox
   \\    /   O peration     | Website:  https://openfoam.org
    \\  /    A nd           | Version:  12
     \\/     M anipulation  |
\*---------------------------------------------------------------------------*/
FoamFile
{
    format      ascii;
    class       volScalarField;
    location    "6.5";
    object      p;
}
// * * * * * * * * * * * * * * * * * * * * * * * * * * * * * * * * * * * * * //

dimensions      [0 2 -2 0 0 0 0];

internalField   nonuniform List<scalar> 
400
(
3.51048e-08
-0.000113755
-0.000278124
-0.000116446
-0.000716882
-0.0022839
-0.0041965
-0.00593401
-0.00729607
-0.00817281
-0.00856366
-0.00846916
-0.00792045
-0.00680542
-0.00494055
-0.00215652
0.0015409
0.00578649
0.00913388
0.0104837
7.23285e-06
-9.23088e-05
-0.00022453
-0.000712759
-0.0017955
-0.00344176
-0.00516485
-0.00680236
-0.00805631
-0.00885924
-0.00919457
-0.00910488
-0.00861449
-0.00768912
-0.00619522
-0.00394652
-0.000799203
0.00312127
0.00682482
0.00889733
0.000328815
-8.16217e-05
-0.000777451
-0.0019287
-0.00351808
-0.00523571
-0.00692429
-0.00842113
-0.00948068
-0.0100984
-0.0102672
-0.0100409
-0.00946802
-0.0086179
-0.0074572
-0.00588205
-0.00359322
-0.000473893
0.00297663
0.00538318
0.000282075
-0.000457151
-0.00177562
-0.00354471
-0.00542687
-0.00716299
-0.00864628
-0.00979273
-0.0105817
-0.0109853
-0.0110101
-0.0107125
-0.0101374
-0.00935311
-0.00840266
-0.00727403
-0.00581299
-0.00360311
-0.0008192
0.00141672
-0.000482377
-0.00145072
-0.00321073
-0.00526806
-0.00715661
-0.00872699
-0.0099791
-0.0109413
-0.0115943
-0.0118932
-0.0118486
-0.0115026
-0.0109058
-0.0101399
-0.00929405
-0.00839756
-0.00743328
-0.00596519
-0.00407787
-0.00210843
-0.00193974
-0.00297228
-0.00484158
-0.00687538
-0.00861379
-0.00998385
-0.0110914
-0.0119531
-0.0125324
-0.0127781
-0.0126919
-0.012322
-0.0117259
-0.0109693
-0.0101836
-0.00939722
-0.00871348
-0.00770801
-0.00650903
-0.004926
-0.0036485
-0.00464116
-0.00639561
-0.00827354
-0.00982024
-0.0110206
-0.0120269
-0.0128176
-0.0133404
-0.0135485
-0.013434
-0.0130438
-0.012457
-0.0117161
-0.0109713
-0.0102394
-0.00971745
-0.00896642
-0.00824671
-0.00700527
-0.00521721
-0.0061106
-0.00768559
-0.00939545
-0.0107689
-0.0118341
-0.0127538
-0.0134744
-0.01393
-0.0140892
-0.0139489
-0.0135406
-0.0129685
-0.0122641
-0.0115782
-0.0108731
-0.0104643
-0.00983443
-0.00941479
-0.00843636
-0.00638144
-0.00718916
-0.00861899
-0.010196
-0.0114323
-0.0123918
-0.0132269
-0.0138659
-0.014249
-0.0143547
-0.0141974
-0.0137868
-0.0132427
-0.012573
-0.0119675
-0.0112828
-0.0109757
-0.0103795
-0.0101647
-0.00935674
-0.00706703
-0.00779735
-0.00913304
-0.0106315
-0.0117766
-0.0126558
-0.0134127
-0.0139688
-0.0142866
-0.0143445
-0.0141845
-0.0137792
-0.0132882
-0.0126347
-0.0121388
-0.0114708
-0.0112788
-0.010627
-0.0106119
-0.00989459
-0.00723425
-0.007926
-0.00919785
-0.0106668
-0.0117906
-0.0126364
-0.0133228
-0.0138057
-0.0140684
-0.014101
-0.0139352
-0.0135808
-0.0131215
-0.0125394
-0.0121479
-0.0114519
-0.0114118
-0.0106005
-0.0108959
-0.0100885
-0.00689157
-0.00759
-0.00883909
-0.0103324
-0.0114944
-0.01236
-0.0130157
-0.013457
-0.013695
-0.0137275
-0.0135837
-0.0132813
-0.0128741
-0.0123763
-0.0119953
-0.0113181
-0.0113833
-0.0102999
-0.0109968
-0.00990663
-0.0061375
-0.00688556
-0.00815172
-0.0096715
-0.0109368
-0.0118787
-0.0125677
-0.0130231
-0.0132749
-0.0133301
-0.0132161
-0.0129591
-0.0125993
-0.0121568
-0.0117434
-0.0111258
-0.011083
-0.00982269
-0.0107915
-0.00925246
-0.00525034
-0.00601988
-0.00725287
-0.0087049
-0.0101168
-0.0111991
-0.011991
-0.0125217
-0.0128328
-0.0129359
-0.0128621
-0.0126432
-0.0123139
-0.0118847
-0.0114142
-0.0108089
-0.0104953
-0.00916998
-0.0101263
-0.00806218
-0.00448473
-0.00516414
-0.00624582
-0.00752441
-0.0089671
-0.0102444
-0.0112484
-0.011945
-0.0123704
-0.012554
-0.0125345
-0.0123328
-0.0119985
-0.0115314
-0.0109587
-0.010243
-0.00956819
-0.00826389
-0.0089579
-0.0063528
-0.00423546
-0.00453491
-0.00516539
-0.00612822
-0.00746346
-0.00891438
-0.0101846
-0.011142
-0.0117689
-0.0120772
-0.0121199
-0.0119278
-0.0115552
-0.011001
-0.0102697
-0.00934966
-0.00830717
-0.00701749
-0.00732705
-0.00414346
-0.00438001
-0.0041821
-0.00405332
-0.00454467
-0.0056926
-0.00721402
-0.00873078
-0.00996506
-0.0108478
-0.0113521
-0.0115246
-0.0113837
-0.0109653
-0.0102912
-0.00936392
-0.00818128
-0.00683643
-0.00545778
-0.00526024
-0.00129332
-0.00418913
-0.0035973
-0.0028013
-0.002847
-0.00382628
-0.00537159
-0.00705097
-0.00850771
-0.00962478
-0.0103481
-0.0106711
-0.0106037
-0.0101848
-0.00943036
-0.00835392
-0.00696716
-0.00537206
-0.00367829
-0.00240662
0.00366883
-0.00361319
-0.00275277
-0.00161527
-0.00148156
-0.00236817
-0.00391351
-0.00569397
-0.00734794
-0.00866846
-0.00958029
-0.0100452
-0.0100728
-0.00967614
-0.00887471
-0.00770214
-0.00615202
-0.00423203
-0.00152257
0.00357458
0.0164546
-0.00494739
-0.00187416
-0.000520178
-0.000558525
-0.00141819
-0.0029559
-0.00478042
-0.00659732
-0.00807965
-0.00913583
-0.00970371
-0.00981282
-0.00946258
-0.00869136
-0.00744857
-0.00569672
-0.00263593
0.00392492
0.0179449
0.0410639
)
;

boundaryField
{
    movingWall
    {
        type            zeroGradient;
    }
    fixedWalls
    {
        type            zeroGradient;
    }
    frontAndBack
    {
        type            empty;
    }
}


// ************************************************************************* //
