/*--------------------------------*- C++ -*----------------------------------*\
  =========                 |
  \\      /  F ield         | OpenFOAM: The Open Source CFD Toolbox
   \\    /   O peration     | Website:  https://openfoam.org
    \\  /    A nd           | Version:  12
     \\/     M anipulation  |
\*---------------------------------------------------------------------------*/
FoamFile
{
    format      ascii;
    class       surfaceScalarField;
    location    "6.5";
    object      phi;
}
// * * * * * * * * * * * * * * * * * * * * * * * * * * * * * * * * * * * * * //

dimensions      [0 3 -1 0 0 0 0];

internalField   nonuniform List<scalar> 
760
(
3.26509e-07
-3.26512e-07
2.263e-07
1.00209e-07
-4.57453e-07
6.83753e-07
-1.94485e-06
1.48739e-06
-3.67064e-06
1.72579e-06
-5.09226e-06
1.42162e-06
-6.28782e-06
1.19556e-06
-7.13184e-06
8.44019e-07
-7.78937e-06
6.57529e-07
-8.19471e-06
4.0534e-07
-8.45786e-06
2.63151e-07
-8.52011e-06
6.22425e-08
-8.46191e-06
-5.81941e-08
-8.22701e-06
-2.34901e-07
-7.83464e-06
-3.92374e-07
-7.11048e-06
-7.24155e-07
-5.94463e-06
-1.16585e-06
-4.12158e-06
-1.82305e-06
-1.76026e-06
-2.36132e-06
-1.76026e-06
-2.49036e-07
-7.7476e-08
-1.19349e-06
1.04466e-06
-2.81643e-06
2.30669e-06
-4.38629e-06
3.05726e-06
-5.4499e-06
2.7894e-06
-6.43594e-06
2.40766e-06
-7.13935e-06
1.89898e-06
-7.74646e-06
1.45112e-06
-8.12521e-06
1.03629e-06
-8.35882e-06
6.38949e-07
-8.40117e-06
3.05496e-07
-8.31195e-06
-2.69726e-08
-8.11527e-06
-2.54874e-07
-7.8344e-06
-5.15772e-07
-7.4083e-06
-8.18482e-07
-6.84798e-06
-1.28447e-06
-5.94041e-06
-2.07342e-06
-4.51204e-06
-3.25142e-06
-2.39149e-06
-4.48187e-06
-4.15175e-06
-1.01302e-06
9.35543e-07
-2.51241e-06
2.54405e-06
-3.9058e-06
3.70008e-06
-4.87007e-06
4.02154e-06
-5.59798e-06
3.51731e-06
-6.13797e-06
2.94765e-06
-6.43246e-06
2.19347e-06
-6.57867e-06
1.59733e-06
-6.52818e-06
9.8579e-07
-6.44523e-06
5.55997e-07
-6.29112e-06
1.51394e-07
-6.13858e-06
-1.79515e-07
-5.87132e-06
-5.22131e-07
-5.59284e-06
-7.94259e-07
-5.25506e-06
-1.15626e-06
-4.88997e-06
-1.64955e-06
-4.4322e-06
-2.53119e-06
-3.63729e-06
-4.04633e-06
-2.17445e-06
-5.94471e-06
-6.3262e-06
-1.32923e-06
2.26478e-06
-2.7665e-06
3.98131e-06
-3.83783e-06
4.77141e-06
-4.47804e-06
4.66175e-06
-4.84122e-06
3.88049e-06
-4.95607e-06
3.0625e-06
-4.98478e-06
2.22218e-06
-5.00402e-06
1.61657e-06
-5.02242e-06
1.00419e-06
-4.98866e-06
5.22242e-07
-4.82246e-06
-1.48122e-08
-4.59678e-06
-4.05186e-07
-4.29529e-06
-8.23628e-07
-3.94925e-06
-1.1403e-06
-3.58675e-06
-1.51876e-06
-3.26605e-06
-1.97025e-06
-2.98409e-06
-2.81316e-06
-2.58191e-06
-4.44852e-06
-1.65306e-06
-6.87356e-06
-7.97926e-06
-1.30857e-06
3.57335e-06
-2.47052e-06
5.14326e-06
-3.22889e-06
5.52978e-06
-3.64219e-06
5.07504e-06
-3.81337e-06
4.05167e-06
-3.90837e-06
3.1575e-06
-4.03316e-06
2.34697e-06
-4.14915e-06
1.73256e-06
-4.22047e-06
1.07551e-06
-4.18972e-06
4.91493e-07
-4.05378e-06
-1.50756e-07
-3.8094e-06
-6.49567e-07
-3.47199e-06
-1.16104e-06
-3.05097e-06
-1.56131e-06
-2.63625e-06
-1.93348e-06
-2.27984e-06
-2.32666e-06
-2.01125e-06
-3.08176e-06
-1.83805e-06
-4.62171e-06
-1.27043e-06
-7.44118e-06
-9.24969e-06
-1.0698e-06
4.64315e-06
-1.92304e-06
5.99651e-06
-2.49527e-06
6.10201e-06
-2.78811e-06
5.36788e-06
-2.93998e-06
4.20354e-06
-3.08203e-06
3.29955e-06
-3.25786e-06
2.5228e-06
-3.38855e-06
1.86324e-06
-3.44355e-06
1.13051e-06
-3.40758e-06
4.55528e-07
-3.2866e-06
-2.71739e-07
-3.07278e-06
-8.6339e-07
-2.79213e-06
-1.44169e-06
-2.42306e-06
-1.93039e-06
-2.00269e-06
-2.35384e-06
-1.62682e-06
-2.70253e-06
-1.34767e-06
-3.36091e-06
-1.13271e-06
-4.83667e-06
-9.13505e-07
-7.66038e-06
-1.01632e-05
-7.75164e-07
5.41831e-06
-1.38263e-06
6.60397e-06
-1.79484e-06
6.51422e-06
-2.0054e-06
5.57845e-06
-2.16268e-06
4.36081e-06
-2.31933e-06
3.4562e-06
-2.46709e-06
2.67056e-06
-2.55044e-06
1.9466e-06
-2.56911e-06
1.14918e-06
-2.51932e-06
4.0574e-07
-2.42501e-06
-3.66057e-07
-2.25245e-06
-1.03595e-06
-2.04677e-06
-1.64736e-06
-1.80211e-06
-2.17506e-06
-1.51289e-06
-2.64306e-06
-1.20394e-06
-3.01148e-06
-9.70188e-07
-3.59466e-06
-8.30968e-07
-4.97589e-06
-7.04344e-07
-7.78701e-06
-1.08675e-05
-4.60341e-07
5.87865e-06
-8.65723e-07
7.00935e-06
-1.15832e-06
6.80682e-06
-1.33011e-06
5.75024e-06
-1.45686e-06
4.48757e-06
-1.56193e-06
3.56126e-06
-1.64513e-06
2.75376e-06
-1.67245e-06
1.97392e-06
-1.66162e-06
1.13835e-06
-1.60715e-06
3.51272e-07
-1.5405e-06
-4.32707e-07
-1.42542e-06
-1.15103e-06
-1.29139e-06
-1.78139e-06
-1.14197e-06
-2.32447e-06
-1.01531e-06
-2.76972e-06
-8.19546e-07
-3.20724e-06
-6.34322e-07
-3.77989e-06
-5.2314e-07
-5.08707e-06
-5.05488e-07
-7.80466e-06
-1.1373e-05
-2.06163e-07
6.08482e-06
-4.2216e-07
7.22535e-06
-5.8285e-07
6.96751e-06
-6.99955e-07
5.86735e-06
-7.76016e-07
4.56363e-06
-8.16911e-07
3.60216e-06
-8.35178e-07
2.77203e-06
-8.12569e-07
1.95131e-06
-7.78763e-07
1.10454e-06
-7.31402e-07
3.03911e-07
-6.92329e-07
-4.7178e-07
-6.58437e-07
-1.18492e-06
-6.33217e-07
-1.80661e-06
-6.07245e-07
-2.35045e-06
-6.05952e-07
-2.77102e-06
-5.30954e-07
-3.28224e-06
-4.36946e-07
-3.87389e-06
-3.785e-07
-5.14552e-06
-3.81512e-07
-7.80165e-06
-1.17545e-05
6.88768e-08
6.01594e-06
-3.39688e-10
7.29457e-06
-6.19339e-08
7.0291e-06
-1.07043e-07
5.91245e-06
-1.34314e-07
4.5909e-06
-1.30308e-07
3.59815e-06
-8.86213e-08
2.73034e-06
-2.6015e-08
1.8887e-06
3.43652e-08
1.04416e-06
7.04194e-08
2.67857e-07
8.39036e-08
-4.85265e-07
4.75564e-08
-1.14857e-06
-1.09832e-08
-1.74807e-06
-1.42966e-07
-2.21846e-06
-2.1751e-07
-2.69647e-06
-2.81748e-07
-3.218e-06
-2.136e-07
-3.94204e-06
-2.06295e-07
-5.15282e-06
-2.85835e-07
-7.72211e-06
-1.20404e-05
3.18905e-07
5.69703e-06
4.46585e-07
7.16689e-06
5.02676e-07
6.97301e-06
4.43644e-07
5.97149e-06
4.27451e-07
4.60709e-06
4.82661e-07
3.54294e-06
5.73608e-07
2.63939e-06
6.59989e-07
1.80232e-06
7.11334e-07
9.92818e-07
7.17752e-07
2.61439e-07
6.62767e-07
-4.30279e-07
5.62708e-07
-1.04852e-06
3.98503e-07
-1.58386e-06
2.18428e-07
-2.03839e-06
6.64697e-08
-2.54451e-06
-1.04981e-07
-3.04655e-06
-6.14253e-08
-3.9856e-06
-1.15734e-07
-5.09851e-06
-2.2378e-07
-7.61406e-06
-1.22642e-05
5.53887e-07
5.14315e-06
8.74765e-07
6.84601e-06
1.04126e-06
6.80652e-06
1.00112e-06
6.01163e-06
9.65666e-07
4.64255e-06
1.00185e-06
3.50676e-06
1.08363e-06
2.55761e-06
1.16626e-06
1.71969e-06
1.2052e-06
9.53884e-07
1.18608e-06
2.80554e-07
1.08377e-06
-3.27963e-07
9.22466e-07
-8.87214e-07
7.06669e-07
-1.36806e-06
4.93087e-07
-1.82481e-06
2.77648e-07
-2.32907e-06
1.16798e-07
-2.8857e-06
1.11261e-07
-3.98006e-06
-2.72933e-08
-4.95996e-06
-1.77967e-07
-7.46339e-06
-1.24421e-05
8.18618e-07
4.32453e-06
1.26336e-06
6.40127e-06
1.55236e-06
6.51751e-06
1.59505e-06
5.96894e-06
1.5187e-06
4.7189e-06
1.5186e-06
3.50686e-06
1.5647e-06
2.51151e-06
1.60334e-06
1.68105e-06
1.59639e-06
9.60834e-07
1.53871e-06
3.38234e-07
1.40547e-06
-1.94726e-07
1.21305e-06
-6.94793e-07
9.80817e-07
-1.13583e-06
7.553e-07
-1.59929e-06
5.25014e-07
-2.09879e-06
3.83873e-07
-2.74456e-06
2.5383e-07
-3.85002e-06
4.0825e-08
-4.74695e-06
-1.03936e-07
-7.31863e-06
-1.25461e-05
1.04129e-06
3.28324e-06
1.68699e-06
5.75557e-06
2.05714e-06
6.14736e-06
2.2156e-06
5.81047e-06
2.14582e-06
4.78868e-06
2.08647e-06
3.56621e-06
2.0618e-06
2.53619e-06
2.03903e-06
1.70382e-06
1.97957e-06
1.0203e-06
1.88088e-06
4.36918e-07
1.73592e-06
-4.97599e-08
1.53981e-06
-4.98682e-07
1.31418e-06
-9.10204e-07
1.09952e-06
-1.38462e-06
8.85569e-07
-1.88484e-06
7.47008e-07
-2.606e-06
5.10314e-07
-3.61332e-06
2.44169e-07
-4.48081e-06
3.62679e-08
-7.11072e-06
-1.25098e-05
1.25835e-06
2.02489e-06
1.97074e-06
5.04317e-06
2.46362e-06
5.65448e-06
2.83142e-06
5.44267e-06
2.92442e-06
4.69568e-06
2.87672e-06
3.61391e-06
2.78842e-06
2.62449e-06
2.70121e-06
1.79103e-06
2.58773e-06
1.13377e-06
2.45194e-06
5.72709e-07
2.28483e-06
1.1735e-07
2.09758e-06
-3.11431e-07
1.88118e-06
-6.93803e-07
1.67627e-06
-1.17971e-06
1.45706e-06
-1.66563e-06
1.26347e-06
-2.41241e-06
8.80548e-07
-3.2304e-06
4.81575e-07
-4.08183e-06
1.82423e-07
-6.81157e-06
-1.23274e-05
1.21937e-06
8.05523e-07
2.10412e-06
4.15843e-06
2.74186e-06
5.01674e-06
3.32988e-06
4.85465e-06
3.68535e-06
4.34022e-06
3.8086e-06
3.49065e-06
3.80168e-06
2.63141e-06
3.74291e-06
1.8498e-06
3.63182e-06
1.24486e-06
3.48638e-06
7.18147e-07
3.30307e-06
3.00664e-07
3.11017e-06
-1.18532e-07
2.87357e-06
-4.57204e-07
2.63463e-06
-9.40775e-07
2.34708e-06
-1.37808e-06
2.00325e-06
-2.06858e-06
1.43099e-06
-2.65814e-06
8.47888e-07
-3.49873e-06
4.24362e-07
-6.38805e-06
-1.1903e-05
6.35534e-07
1.69989e-07
1.73903e-06
3.05493e-06
2.73157e-06
4.02419e-06
3.59186e-06
3.99436e-06
4.26444e-06
3.66764e-06
4.69178e-06
3.06332e-06
4.91563e-06
2.40756e-06
4.9988e-06
1.76663e-06
4.98539e-06
1.25827e-06
4.92065e-06
7.82885e-07
4.76994e-06
4.51372e-07
4.5607e-06
9.0716e-08
4.28625e-06
-1.82757e-07
3.9499e-06
-6.04423e-07
3.48174e-06
-9.09922e-07
2.87395e-06
-1.46079e-06
2.06696e-06
-1.85115e-06
1.25658e-06
-2.68836e-06
7.66907e-07
-5.89837e-06
-1.11361e-05
-2.61136e-07
4.31125e-07
1.00486e-06
1.78894e-06
2.21532e-06
2.81373e-06
3.38292e-06
2.82676e-06
4.36168e-06
2.68888e-06
5.12029e-06
2.30471e-06
5.63432e-06
1.89353e-06
5.96801e-06
1.43294e-06
6.12035e-06
1.10593e-06
6.15191e-06
7.51322e-07
6.05662e-06
5.46662e-07
5.87673e-06
2.70614e-07
5.57301e-06
1.20956e-07
5.11993e-06
-1.51342e-07
4.52826e-06
-3.18253e-07
3.72739e-06
-6.59911e-07
2.74827e-06
-8.72037e-07
1.93985e-06
-1.87994e-06
1.33664e-06
-5.29516e-06
-9.79946e-06
-1.21672e-06
1.64785e-06
-3.11867e-07
8.84084e-07
1.20064e-06
1.30123e-06
2.65793e-06
1.36947e-06
3.93663e-06
1.41017e-06
4.98387e-06
1.25747e-06
5.7536e-06
1.1238e-06
6.29621e-06
8.90329e-07
6.6327e-06
7.69442e-07
6.79469e-06
5.8933e-07
6.81459e-06
5.26768e-07
6.69338e-06
3.91815e-07
6.44985e-06
3.6449e-07
6.06078e-06
2.3773e-07
5.54937e-06
1.93158e-07
4.89909e-06
-9.63658e-09
4.26338e-06
-2.36324e-07
3.71256e-06
-1.32912e-06
2.57806e-06
-4.16066e-06
-7.2214e-06
1.64785e-06
2.53193e-06
3.83316e-06
5.20263e-06
6.6128e-06
7.87027e-06
8.99407e-06
9.8844e-06
1.06538e-05
1.12432e-05
1.17699e-05
1.21618e-05
1.25262e-05
1.2764e-05
1.29571e-05
1.29475e-05
1.27112e-05
1.13821e-05
7.2214e-06
)
;

boundaryField
{
    movingWall
    {
        type            calculated;
        value           uniform 0;
    }
    fixedWalls
    {
        type            calculated;
        value           uniform 0;
    }
    frontAndBack
    {
        type            empty;
    }
}


// ************************************************************************* //
