/*--------------------------------*- C++ -*----------------------------------*\
  =========                 |
  \\      /  F ield         | OpenFOAM: The Open Source CFD Toolbox
   \\    /   O peration     | Website:  https://openfoam.org
    \\  /    A nd           | Version:  12
     \\/     M anipulation  |
\*---------------------------------------------------------------------------*/
FoamFile
{
    format      ascii;
    class       volVectorField;
    location    "6.5";
    object      U;
}
// * * * * * * * * * * * * * * * * * * * * * * * * * * * * * * * * * * * * * //

dimensions      [0 1 -1 0 0 0 0];

internalField   nonuniform List<vector> 
400
(
(0.00306781 -0.00507664 0)
(0.00945457 -0.00229961 0)
(-0.00164063 0.0022745 0)
(-0.0136289 0.0116438 0)
(-0.0616581 0.0209974 0)
(-0.0911902 0.0144569 0)
(-0.118842 0.0144266 0)
(-0.136618 0.0105019 0)
(-0.15165 0.00934433 0)
(-0.160616 0.00640827 0)
(-0.167396 0.00534824 0)
(-0.170396 0.00316687 0)
(-0.171606 0.00205666 0)
(-0.169547 -0.000902074 0)
(-0.162842 -0.00271927 0)
(-0.149879 -0.00774274 0)
(-0.128817 -0.0129032 0)
(-0.0974268 -0.0200818 0)
(-0.0588214 -0.020941 0)
(-0.0159854 -0.00637189 0)
(-0.000900669 -0.00930308 0)
(-0.00958804 0.00653362 0)
(-0.0356468 0.0278781 0)
(-0.0738534 0.0485979 0)
(-0.102522 0.0444763 0)
(-0.121892 0.0388121 0)
(-0.13838 0.0316506 0)
(-0.151085 0.0220499 0)
(-0.160357 0.015971 0)
(-0.165607 0.00885875 0)
(-0.168255 0.00427669 0)
(-0.167908 -0.00126108 0)
(-0.165782 -0.00513898 0)
(-0.161826 -0.0104423 0)
(-0.155243 -0.0160376 0)
(-0.144158 -0.0259691 0)
(-0.126901 -0.040097 0)
(-0.101299 -0.0603194 0)
(-0.0686901 -0.0790969 0)
(-0.0228725 -0.0609473 0)
(-0.00920507 0.00721375 0)
(-0.0327005 0.0378758 0)
(-0.0653432 0.0622143 0)
(-0.0914665 0.0705759 0)
(-0.10805 0.062506 0)
(-0.118931 0.0530891 0)
(-0.12883 0.0397217 0)
(-0.13165 0.031222 0)
(-0.13174 0.0213169 0)
(-0.130192 0.0134773 0)
(-0.127054 0.00584541 0)
(-0.123591 -0.00037397 0)
(-0.120019 -0.0063425 0)
(-0.115193 -0.0116646 0)
(-0.110419 -0.0188532 0)
(-0.104238 -0.029377 0)
(-0.0941039 -0.0489424 0)
(-0.0775703 -0.0785666 0)
(-0.0585217 -0.111237 0)
(-0.0212884 -0.115274 0)
(-0.0126296 0.0325845 0)
(-0.0422785 0.0668237 0)
(-0.0704467 0.0856188 0)
(-0.0873598 0.0861314 0)
(-0.095891 0.0736428 0)
(-0.100039 0.0601727 0)
(-0.0997885 0.0449094 0)
(-0.0994511 0.0325546 0)
(-0.101711 0.0199969 0)
(-0.100225 0.0106737 0)
(-0.0985493 0.00131286 0)
(-0.0937784 -0.00565406 0)
(-0.0884672 -0.012905 0)
(-0.0817684 -0.018253 0)
(-0.075261 -0.0251072 0)
(-0.0703442 -0.033823 0)
(-0.0649674 -0.0518538 0)
(-0.0520153 -0.0871999 0)
(-0.0448035 -0.132089 0)
(-0.0147536 -0.146105 0)
(-0.0121715 0.0572798 0)
(-0.041955 0.0905874 0)
(-0.0610844 0.101599 0)
(-0.0728978 0.0964234 0)
(-0.0756324 0.0792147 0)
(-0.0766106 0.0629675 0)
(-0.0782723 0.0461692 0)
(-0.0826089 0.0334248 0)
(-0.0847246 0.0203239 0)
(-0.0850466 0.00953855 0)
(-0.0826252 -0.0020626 0)
(-0.0787456 -0.0113888 0)
(-0.0718793 -0.0209416 0)
(-0.0649174 -0.0280722 0)
(-0.0555958 -0.0352653 0)
(-0.0490225 -0.0431287 0)
(-0.0462317 -0.0574703 0)
(-0.0329171 -0.0882009 0)
(-0.0377774 -0.146151 0)
(-0.00640883 -0.176939 0)
(-0.0103901 0.0808352 0)
(-0.0341019 0.110376 0)
(-0.0473196 0.115421 0)
(-0.056812 0.103988 0)
(-0.0564622 0.0830566 0)
(-0.0589421 0.0651325 0)
(-0.0630502 0.048893 0)
(-0.067778 0.035926 0)
(-0.0691304 0.0217855 0)
(-0.0696883 0.00921381 0)
(-0.066664 -0.00449275 0)
(-0.0639456 -0.0157815 0)
(-0.0575461 -0.0271648 0)
(-0.0517918 -0.036216 0)
(-0.0438577 -0.0439668 0)
(-0.0343381 -0.0513463 0)
(-0.0341383 -0.0651102 0)
(-0.0182305 -0.0942944 0)
(-0.0287876 -0.149939 0)
(-0.00223253 -0.193794 0)
(-0.00799898 0.100037 0)
(-0.0246617 0.124611 0)
(-0.0345662 0.124975 0)
(-0.0410388 0.108683 0)
(-0.0399694 0.0852648 0)
(-0.044143 0.0674561 0)
(-0.0481495 0.0517043 0)
(-0.0514946 0.0376178 0)
(-0.0517477 0.0222204 0)
(-0.0520094 0.00802743 0)
(-0.0489118 -0.0071338 0)
(-0.0469599 -0.0201084 0)
(-0.0422483 -0.0322883 0)
(-0.0374206 -0.0429672 0)
(-0.0337903 -0.0519068 0)
(-0.0244951 -0.0582784 0)
(-0.0266695 -0.0699595 0)
(-0.0100731 -0.0978941 0)
(-0.0257209 -0.155129 0)
(0.00208145 -0.211535 0)
(-0.0045773 0.112684 0)
(-0.0150955 0.135911 0)
(-0.0224311 0.133131 0)
(-0.0270563 0.11335 0)
(-0.0259716 0.0890741 0)
(-0.0302219 0.0706007 0)
(-0.0325642 0.0544238 0)
(-0.034294 0.0391892 0)
(-0.0335319 0.0228099 0)
(-0.0335784 0.00761656 0)
(-0.0310026 -0.00795371 0)
(-0.0293357 -0.0219561 0)
(-0.0271259 -0.0343129 0)
(-0.022727 -0.0451788 0)
(-0.0235553 -0.0549108 0)
(-0.0147462 -0.0629867 0)
(-0.0207623 -0.0739399 0)
(-0.00236794 -0.0999287 0)
(-0.0211044 -0.155052 0)
(0.00451631 -0.220556 0)
(-0.00171106 0.120693 0)
(-0.00735627 0.14236 0)
(-0.0114503 0.137584 0)
(-0.0141614 0.116118 0)
(-0.0130843 0.0902225 0)
(-0.016472 0.0717084 0)
(-0.0168995 0.0555429 0)
(-0.0173015 0.0395805 0)
(-0.015784 0.0226982 0)
(-0.0155328 0.00661102 0)
(-0.0139945 -0.00915436 0)
(-0.0126694 -0.0237082 0)
(-0.0135678 -0.0364607 0)
(-0.0103155 -0.0472771 0)
(-0.0151447 -0.0559021 0)
(-0.00691507 -0.0654032 0)
(-0.0168367 -0.0766882 0)
(0.00169896 -0.102529 0)
(-0.019343 -0.156029 0)
(0.00712103 -0.231572 0)
(0.00185266 0.122041 0)
(0.000527448 0.146705 0)
(-0.000760569 0.141178 0)
(-0.00249627 0.118737 0)
(-0.0013938 0.0930626 0)
(-0.00339266 0.0734141 0)
(-0.00219179 0.0563402 0)
(-0.00151178 0.039482 0)
(0.000412689 0.0222868 0)
(0.0011361 0.00607295 0)
(0.00145115 -0.00925814 0)
(0.00245114 -0.0228085 0)
(-0.000866571 -0.0350231 0)
(0.000585943 -0.0450588 0)
(-0.00718501 -0.0542153 0)
(4.06314e-05 -0.0644922 0)
(-0.0134948 -0.0776794 0)
(0.00705108 -0.10176 0)
(-0.0175706 -0.154383 0)
(0.00885555 -0.236955 0)
(0.00508109 0.119011 0)
(0.00700867 0.146237 0)
(0.00911476 0.141012 0)
(0.00876749 0.119209 0)
(0.00963437 0.0918604 0)
(0.00846065 0.0714354 0)
(0.0107901 0.0542259 0)
(0.0121182 0.037571 0)
(0.0137974 0.0208656 0)
(0.0146856 0.00541891 0)
(0.0136384 -0.00912797 0)
(0.01363 -0.0217325 0)
(0.00892636 -0.0329762 0)
(0.00858378 -0.0421302 0)
(-0.00135653 -0.0520382 0)
(0.00520515 -0.0622033 0)
(-0.011068 -0.0796219 0)
(0.0100853 -0.102663 0)
(-0.0169509 -0.153757 0)
(0.0108655 -0.244298 0)
(0.00689581 0.110463 0)
(0.014175 0.142856 0)
(0.0188076 0.139841 0)
(0.0197492 0.120504 0)
(0.0204463 0.0934044 0)
(0.0194002 0.0712533 0)
(0.0212599 0.0528055 0)
(0.0226249 0.0361091 0)
(0.0236016 0.0201847 0)
(0.024617 0.00578319 0)
(0.0224053 -0.00729769 0)
(0.0214477 -0.0190291 0)
(0.0158031 -0.0291018 0)
(0.0140263 -0.0382214 0)
(0.00377878 -0.048159 0)
(0.00973314 -0.0586038 0)
(-0.00718994 -0.0794879 0)
(0.0141874 -0.0993738 0)
(-0.0170463 -0.151785 0)
(0.0130856 -0.247514 0)
(0.0106328 0.0992727 0)
(0.0203273 0.134724 0)
(0.0279146 0.13432 0)
(0.030785 0.120468 0)
(0.0316646 0.0912653 0)
(0.0304262 0.0683689 0)
(0.0312963 0.0494435 0)
(0.0322141 0.0331343 0)
(0.0317595 0.0185232 0)
(0.0321915 0.0058124 0)
(0.0290681 -0.00543889 0)
(0.0274353 -0.0158134 0)
(0.0214367 -0.0248842 0)
(0.019072 -0.0339462 0)
(0.00963003 -0.0440629 0)
(0.0141606 -0.0567471 0)
(-0.00245127 -0.0789838 0)
(0.0167368 -0.0980308 0)
(-0.0174495 -0.149384 0)
(0.0161692 -0.251078 0)
(0.0125301 0.0775887 0)
(0.0267943 0.125011 0)
(0.038247 0.128112 0)
(0.0416938 0.119708 0)
(0.0440456 0.0958875 0)
(0.0427608 0.0700061 0)
(0.0418818 0.0498925 0)
(0.0418098 0.0336607 0)
(0.0400134 0.0198415 0)
(0.0395914 0.00786795 0)
(0.0356391 -0.0021972 0)
(0.03396 -0.0118638 0)
(0.0277606 -0.0205757 0)
(0.0259157 -0.0300687 0)
(0.0173418 -0.0403803 0)
(0.0206804 -0.0542391 0)
(0.00496235 -0.0756763 0)
(0.0211025 -0.0927164 0)
(-0.0163577 -0.144368 0)
(0.020325 -0.250547 0)
(0.0170569 0.058072 0)
(0.0309012 0.109127 0)
(0.0454028 0.118426 0)
(0.0525449 0.112545 0)
(0.0569684 0.0954956 0)
(0.0579467 0.0705808 0)
(0.0567729 0.0490938 0)
(0.056152 0.0324696 0)
(0.0528028 0.0195607 0)
(0.0515154 0.00870822 0)
(0.0468222 -0.00013742 0)
(0.0451044 -0.00900992 0)
(0.0386481 -0.0169843 0)
(0.0375699 -0.0266237 0)
(0.0293424 -0.036519 0)
(0.0310843 -0.0514005 0)
(0.0155529 -0.0696072 0)
(0.0262256 -0.0877763 0)
(-0.0139601 -0.140684 0)
(0.0258488 -0.250092 0)
(0.0151567 0.021009 0)
(0.0344736 0.0937064 0)
(0.0500155 0.10882 0)
(0.0607411 0.105994 0)
(0.0689015 0.0944474 0)
(0.0743258 0.0746548 0)
(0.0754955 0.0545572 0)
(0.0767858 0.0371722 0)
(0.0738139 0.0239635 0)
(0.0729018 0.0129954 0)
(0.0673195 0.00440821 0)
(0.0657613 -0.00395275 0)
(0.0583966 -0.0113329 0)
(0.0573018 -0.0211653 0)
(0.0483263 -0.0305122 0)
(0.0472075 -0.0450259 0)
(0.0305635 -0.0585217 0)
(0.0335989 -0.076486 0)
(-0.0087172 -0.132283 0)
(0.0330986 -0.247203 0)
(0.000821617 0.00798578 0)
(0.0262934 0.0670314 0)
(0.0472079 0.0897016 0)
(0.0631003 0.0899625 0)
(0.0767449 0.0822988 0)
(0.0887675 0.0684401 0)
(0.09457 0.0532766 0)
(0.100296 0.0384348 0)
(0.0996189 0.0260094 0)
(0.101214 0.0151196 0)
(0.0963833 0.00698026 0)
(0.0955551 -0.00126879 0)
(0.0874358 -0.00755214 0)
(0.0847729 -0.0163322 0)
(0.0734467 -0.0234072 0)
(0.067626 -0.0353596 0)
(0.0481951 -0.0450498 0)
(0.0410446 -0.063003 0)
(-0.0015332 -0.128439 0)
(0.0428813 -0.245077 0)
(-0.0195068 -0.00150937 0)
(0.0104235 0.0546951 0)
(0.0341208 0.074532 0)
(0.0560783 0.07492 0)
(0.0751022 0.0696876 0)
(0.0944106 0.0590458 0)
(0.105796 0.0476146 0)
(0.11709 0.0364183 0)
(0.120259 0.0278791 0)
(0.124742 0.0188901 0)
(0.122209 0.013078 0)
(0.121502 0.00580972 0)
(0.114001 0.00151164 0)
(0.109285 -0.00562553 0)
(0.0961131 -0.0102852 0)
(0.0868465 -0.0197627 0)
(0.0643005 -0.0259097 0)
(0.050199 -0.0466925 0)
(0.0137835 -0.122247 0)
(0.0563813 -0.233651 0)
(-0.0265983 0.0230054 0)
(-0.0188791 0.0191875 0)
(0.00909984 0.0382457 0)
(0.0390818 0.0396205 0)
(0.0640831 0.0390913 0)
(0.0894398 0.0345118 0)
(0.106002 0.0295315 0)
(0.121143 0.0222828 0)
(0.129087 0.0175778 0)
(0.135549 0.0121284 0)
(0.136964 0.00943718 0)
(0.136398 0.00521766 0)
(0.13177 0.00349379 0)
(0.126836 -2.62625e-05 0)
(0.11532 -0.00203816 0)
(0.106249 -0.00725081 0)
(0.0845778 -0.0124242 0)
(0.076018 -0.0382015 0)
(0.0539787 -0.111351 0)
(0.0810676 -0.18444 0)
(0.0360911 0.0337305 0)
(0.0410408 0.0196676 0)
(0.0575741 0.0182474 0)
(0.0909032 0.01815 0)
(0.115257 0.0201759 0)
(0.144555 0.0186124 0)
(0.165962 0.018204 0)
(0.188873 0.0154962 0)
(0.204466 0.0148135 0)
(0.22044 0.0124726 0)
(0.230489 0.0122555 0)
(0.240837 0.0103013 0)
(0.246816 0.0104603 0)
(0.252626 0.00865552 0)
(0.256052 0.00907995 0)
(0.25788 0.00694138 0)
(0.254243 0.00557034 0)
(0.241547 -0.00137019 0)
(0.202946 -0.0141536 0)
(0.150458 -0.033457 0)
)
;

boundaryField
{
    movingWall
    {
        type            fixedValue;
        value           uniform (1 0 0);
    }
    fixedWalls
    {
        type            noSlip;
    }
    frontAndBack
    {
        type            empty;
    }
}


// ************************************************************************* //
