/*--------------------------------*- C++ -*----------------------------------*\
  =========                 |
  \\      /  F ield         | OpenFOAM: The Open Source CFD Toolbox
   \\    /   O peration     | Website:  https://openfoam.org
    \\  /    A nd           | Version:  12
     \\/     M anipulation  |
\*---------------------------------------------------------------------------*/
FoamFile
{
    format      ascii;
    class       volVectorField;
    location    "10.8";
    object      zeta;
}
// * * * * * * * * * * * * * * * * * * * * * * * * * * * * * * * * * * * * * //

dimensions      [0 1 0 0 0 0 0];

internalField   uniform (0 0 0);

boundaryField
{
    freeSurface
    {
        type            calculated;
        value           nonuniform List<vector> 
181
(
(0 0.00206678 0)
(0 0.00206736 0)
(0 0.002067 0)
(0 0.00206553 0)
(0 0.00206499 0)
(0 0.00206281 0)
(0 0.00206278 0)
(0 0.00206048 0)
(0 0.00139433 0)
(0 0.00138645 0)
(0 0.00138309 0)
(0 0.00136959 0)
(0 0.00135862 0)
(0 0.0013394 0)
(0 0.00131796 0)
(0 0.00128989 0)
(0 0.00125709 0)
(0 0.00121771 0)
(0 0.0011724 0)
(0 0.00112081 0)
(0 0.00106291 0)
(0 0.000998551 0)
(0 0.000927704 0)
(0 0.000850437 0)
(0 0.000766912 0)
(0 0.000677364 0)
(0 0.000582459 0)
(0 0.000482723 0)
(0 0.000378821 0)
(0 0.000271296 0)
(0 0.00016099 0)
(0 4.87024e-05 0)
(0 -6.45955e-05 0)
(0 -0.000177904 0)
(0 -0.000290155 0)
(0 -0.000400367 0)
(0 -0.000507317 0)
(0 -0.000610025 0)
(0 -0.000707311 0)
(0 -0.00079798 0)
(0 -0.000880934 0)
(0 -0.000955072 0)
(0 -0.00101931 0)
(0 -0.00107268 0)
(0 -0.00111432 0)
(0 -0.00114336 0)
(0 -0.00115919 0)
(0 -0.00116131 0)
(0 -0.0011493 0)
(0 -0.0011231 0)
(0 -0.00108265 0)
(0 -0.00102824 0)
(0 -0.00096027 0)
(0 -0.000879399 0)
(0 -0.000786508 0)
(0 -0.000682638 0)
(0 -0.000569131 0)
(0 -0.000447462 0)
(0 -0.000319351 0)
(0 -0.000186688 0)
(0 -5.15668e-05 0)
(0 8.38429e-05 0)
(0 0.000217083 0)
(0 0.000345947 0)
(0 0.000468028 0)
(0 0.000580811 0)
(0 0.000682184 0)
(0 0.000770048 0)
(0 0.000842257 0)
(0 0.000897229 0)
(0 0.000933543 0)
(0 0.0009501 0)
(0 0.000946128 0)
(0 0.000921397 0)
(0 0.000876163 0)
(0 0.000811134 0)
(0 0.000727523 0)
(0 0.000626974 0)
(0 0.000511877 0)
(0 0.000384944 0)
(0 0.000248939 0)
(0 0.000107859 0)
(0 -3.4965e-05 0)
(0 -0.00017539 0)
(0 -0.000309503 0)
(0 -0.000433348 0)
(0 -0.000543093 0)
(0 -0.000635199 0)
(0 -0.00070659 0)
(0 -0.000754737 0)
(0 -0.000777939 0)
(0 -0.00077498 0)
(0 -0.000745674 0)
(0 -0.00069084 0)
(0 -0.000612072 0)
(0 -0.000512204 0)
(0 -0.000394624 0)
(0 -0.000263583 0)
(0 -0.000124289 0)
(0 1.7859e-05 0)
(0 0.000157187 0)
(0 0.000287738 0)
(0 0.000404035 0)
(0 0.000500768 0)
(0 0.000573593 0)
(0 0.000618929 0)
(0 0.000634537 0)
(0 0.000619606 0)
(0 0.000574679 0)
(0 0.000501896 0)
(0 0.000404928 0)
(0 0.000288725 0)
(0 0.000159642 0)
(0 2.47607e-05 0)
(0 -0.000108548 0)
(0 -0.000232909 0)
(0 -0.000340968 0)
(0 -0.000426444 0)
(0 -0.000484254 0)
(0 -0.000510972 0)
(0 -0.000505155 0)
(0 -0.000467578 0)
(0 -0.000401081 0)
(0 -0.000310657 0)
(0 -0.000202937 0)
(0 -8.61668e-05 0)
(0 3.07379e-05 0)
(0 0.000139461 0)
(0 0.000231492 0)
(0 0.000299867 0)
(0 0.000339489 0)
(0 0.000347707 0)
(0 0.000324724 0)
(0 0.000273365 0)
(0 0.000199095 0)
(0 0.000109424 0)
(0 1.33473e-05 0)
(0 -7.95684e-05 0)
(0 -0.000160725 0)
(0 -0.000222074 0)
(0 -0.000257897 0)
(0 -0.000265228 0)
(0 -0.000244356 0)
(0 -0.000198918 0)
(0 -0.000135367 0)
(0 -6.2286e-05 0)
(0 1.07049e-05 0)
(0 7.49378e-05 0)
(0 0.000122839 0)
(0 0.000149467 0)
(0 0.000153032 0)
(0 0.000135067 0)
(0 0.000100069 0)
(0 5.47718e-05 0)
(0 7.0522e-06 0)
(0 -3.61349e-05 0)
(0 -6.90002e-05 0)
(0 -8.78334e-05 0)
(0 -9.15575e-05 0)
(0 -8.15253e-05 0)
(0 -6.10333e-05 0)
(0 -3.45734e-05 0)
(0 -7.36086e-06 0)
(0 1.62889e-05 0)
(0 3.27999e-05 0)
(0 4.01278e-05 0)
(0 3.80075e-05 0)
(0 2.77238e-05 0)
(0 1.17168e-05 0)
(0 -6.87704e-06 0)
(0 -2.47847e-05 0)
(0 -3.90585e-05 0)
(0 -4.75605e-05 0)
(0 -4.89336e-05 0)
(0 -4.31312e-05 0)
(0 -3.12348e-05 0)
(0 -1.51368e-05 0)
(0 2.65752e-06 0)
(0 1.93846e-05 0)
(0 3.24137e-05 0)
(0 3.95903e-05 0)
)
;
    }
    walls
    {
        type            calculated;
        value           uniform (0 0 0);
    }
    floatingObject
    {
        type            calculated;
        value           uniform (0 0 0);
    }
    frontAndBack
    {
        type            empty;
    }
}


// ************************************************************************* //
