/*--------------------------------*- C++ -*----------------------------------*\
  =========                 |
  \\      /  F ield         | OpenFOAM: The Open Source CFD Toolbox
   \\    /   O peration     | Website:  https://openfoam.org
    \\  /    A nd           | Version:  12
     \\/     M anipulation  |
\*---------------------------------------------------------------------------*/
FoamFile
{
    format      ascii;
    class       volScalarField;
    location    "4.58";
    object      p_rgh;
}
// * * * * * * * * * * * * * * * * * * * * * * * * * * * * * * * * * * * * * //

dimensions      [1 -1 -2 0 0 0 0];

internalField   nonuniform List<scalar> 
3829
(
2.03315
2.03251
2.0312
2.0292
2.02647
2.02298
2.01869
2.01355
2.00753
2.00056
1.9926
1.98359
1.97347
1.96217
1.94964
1.9358
1.92056
1.90384
1.88554
1.86558
1.84392
1.82052
1.79534
1.76836
1.73958
1.70901
1.67669
1.64263
1.60689
1.56953
1.53062
1.49024
1.44848
1.40547
1.36131
1.31613
1.27009
1.22331
1.17595
1.12816
1.08011
1.03197
0.983898
0.936073
0.888665
0.841846
0.795786
0.750647
0.706588
0.663759
0.622303
0.582348
0.544011
0.50739
0.473218
0.441247
0.411464
0.383862
0.358427
0.335132
0.313948
0.294841
0.277762
0.262651
0.24942
0.237953
0.228121
0.219771
0.212733
0.206824
0.201844
0.197583
0.193839
0.19037
0.186965
0.183406
0.179485
0.175003
0.169779
0.163654
0.15649
0.148181
0.138668
0.127648
0.115277
0.101623
0.0867728
0.0708313
0.0539267
0.0362257
0.0179311
-0.000719486
-0.019456
-0.0379924
-0.0560325
-0.0732676
-0.0893961
-0.104124
-0.117182
-0.128327
-0.137353
-0.144112
-0.148507
-0.150202
-0.149403
-0.146224
-0.140799
-0.133307
-0.123996
-0.113171
-0.101183
-0.0884128
-0.0753016
-0.0622625
-0.0497267
-0.0381086
-0.0277973
-0.0191431
-0.012443
-0.00792872
-0.00576668
-0.00603262
-0.00882147
-0.0140056
-0.0214549
-0.0309675
-0.0422774
-0.0550627
-0.0689592
-0.0835746
-0.098497
-0.113313
-0.127621
-0.141042
-0.153228
-0.163878
-0.17274
-0.179622
-0.184397
-0.186998
-0.18737
-0.185624
-0.181866
-0.176261
-0.169017
-0.160383
-0.150633
-0.140065
-0.128985
-0.117707
-0.106527
-0.0957336
-0.0855934
-0.0763452
-0.0681928
-0.0613054
-0.0558115
-0.0517973
-0.0493096
-0.0483517
-0.0488876
-0.0508456
-0.0541208
-0.058576
-0.0640505
-0.070364
-0.0773204
-0.0847125
-0.0923294
-0.0999618
-0.107405
-0.114467
-0.120963
-0.126736
-0.131645
-0.135572
-0.138425
-0.140138
-0.140672
-0.140014
-0.13818
-0.135208
-0.131167
-0.126141
-0.120231
-0.113558
-0.106259
-0.098482
-0.0903852
-0.082132
-0.0738897
-0.0658254
-0.0581058
-0.0508933
-0.044341
-0.0385943
-0.0337871
-0.030041
-0.0274617
-0.0261376
2.10269
2.10223
2.10129
2.09985
2.09787
2.09532
2.09213
2.08823
2.08355
2.07798
2.07144
2.06382
2.05501
2.04491
2.03342
2.02042
2.00581
1.98954
1.97146
1.95119
1.92858
1.90363
1.87627
1.84634
1.81397
1.77944
1.74282
1.70412
1.6634
1.62075
1.57628
1.53012
1.48243
1.43335
1.38306
1.33176
1.27961
1.22676
1.17341
1.11974
1.06597
1.01229
0.958913
0.906053
0.853915
0.802704
0.752616
0.703843
0.656571
0.610974
0.567212
0.525425
0.485732
0.448231
0.414005
0.382299
0.353125
0.326497
0.302423
0.280893
0.261886
0.245359
0.231236
0.219412
0.209749
0.202088
0.196248
0.192026
0.189198
0.187525
0.186753
0.186648
0.186896
0.187216
0.187349
0.187029
0.186005
0.184035
0.1809
0.176403
0.170384
0.162723
0.153348
0.142153
0.129161
0.114441
0.0980861
0.0802329
0.0610657
0.0408185
0.0197682
-0.00177175
-0.0234583
-0.0449288
-0.0658053
-0.0857021
-0.104244
-0.121069
-0.135845
-0.148279
-0.158111
-0.165157
-0.169286
-0.170367
-0.1685
-0.163783
-0.156383
-0.146552
-0.134614
-0.120958
-0.10602
-0.090277
-0.074254
-0.0584503
-0.0433792
-0.0295245
-0.0173346
-0.00720849
0.000526324
0.00561787
0.0078925
0.00727056
0.00379468
-0.00245421
-0.0112905
-0.022441
-0.0355705
-0.0502868
-0.0661551
-0.0827183
-0.0995023
-0.116038
-0.131881
-0.146612
-0.159861
-0.171306
-0.180691
-0.187823
-0.192581
-0.194907
-0.194876
-0.19252
-0.187995
-0.181503
-0.173295
-0.163651
-0.152882
-0.141314
-0.129283
-0.11712
-0.105146
-0.0936617
-0.0829448
-0.0732393
-0.0647525
-0.0576512
-0.0520597
-0.0480573
-0.0456799
-0.0449195
-0.0457282
-0.0480205
-0.0516772
-0.0565481
-0.062459
-0.0692166
-0.076613
-0.0844298
-0.0924468
-0.100447
-0.108219
-0.115565
-0.122299
-0.128261
-0.13331
-0.137328
-0.140224
-0.141936
-0.142427
-0.14169
-0.139743
-0.136627
-0.13243
-0.127225
-0.121122
-0.114247
-0.106741
-0.0987593
-0.0904609
-0.0820133
-0.0735868
-0.0653513
-0.0574754
-0.0501229
-0.0434484
-0.0375984
-0.0327076
-0.0288979
-0.0262755
-0.0249295
2.18672
2.18663
2.18643
2.18608
2.18552
2.18467
2.18346
2.18179
2.17955
2.17659
2.17276
2.16789
2.1618
2.15431
2.14522
2.13389
2.11861
2.10114
2.08148
2.05966
2.03563
2.00921
1.98031
1.94903
1.91515
1.87852
1.83895
1.79471
1.74743
1.6975
1.64506
1.59031
1.53343
1.47466
1.41424
1.35239
1.28945
1.22574
1.16157
1.09726
1.03311
0.969421
0.906501
0.844639
0.784114
0.725203
0.668165
0.61325
0.560687
0.510682
0.463424
0.419086
0.377825
0.339768
0.304925
0.273621
0.245747
0.22127
0.200166
0.182406
0.167932
0.156648
0.148403
0.143014
0.140264
0.139913
0.141688
0.145287
0.150394
0.156664
0.163745
0.17127
0.178857
0.186142
0.192757
0.198341
0.202557
0.205089
0.205654
0.204005
0.199946
0.19331
0.184017
0.172077
0.1575
0.140363
0.120807
0.0990457
0.0753721
0.0501382
0.0237456
-0.00336011
-0.0306932
-0.0577425
-0.0839865
-0.108892
-0.13195
-0.152669
-0.170601
-0.185362
-0.196643
-0.204181
-0.207793
-0.207572
-0.203512
-0.195741
-0.184524
-0.170238
-0.153348
-0.134395
-0.113982
-0.0927503
-0.071392
-0.0505624
-0.0309224
-0.0130833
0.00240336
0.015065
0.0245172
0.0304969
0.0328361
0.0314447
0.0264997
0.0181355
0.00665338
-0.00755793
-0.0240408
-0.0422766
-0.0617047
-0.0817506
-0.101835
-0.121385
-0.139892
-0.156873
-0.171915
-0.184675
-0.194888
-0.202376
-0.207046
-0.208889
-0.207981
-0.204454
-0.198516
-0.190429
-0.180504
-0.169084
-0.156532
-0.14323
-0.129557
-0.115882
-0.102557
-0.0899079
-0.0782261
-0.0677655
-0.0587354
-0.0512993
-0.0455702
-0.0416158
-0.0394546
-0.0390557
-0.0403495
-0.043229
-0.0475513
-0.053142
-0.0598043
-0.0673225
-0.0754695
-0.0840091
-0.092705
-0.101326
-0.109652
-0.117471
-0.124604
-0.13088
-0.136159
-0.140323
-0.143286
-0.144989
-0.145403
-0.144527
-0.142386
-0.139021
-0.134558
-0.129047
-0.122614
-0.115397
-0.107544
-0.0992151
-0.0905772
-0.0818027
-0.073067
-0.064544
-0.0564061
-0.0488195
-0.0419408
-0.0359184
-0.0308881
-0.0269721
-0.0242779
-0.0228954
2.28769
2.28869
2.29069
2.29363
2.29743
2.30192
2.30693
2.31219
2.31742
2.32226
2.32632
2.32925
2.33088
2.33132
2.32928
2.32453
2.31843
2.30849
2.29433
2.27587
2.25288
2.22517
2.19261
2.15503
2.11255
2.06504
2.01273
1.95789
1.89913
1.8352
1.76722
1.69572
1.62127
1.54445
1.46575
1.38557
1.30436
1.22297
1.14163
1.06075
0.980771
0.902096
0.825123
0.75023
0.677775
0.608086
0.541479
0.478261
0.418706
0.363075
0.311598
0.264475
0.22191
0.184084
0.149256
0.11919
0.0938097
0.0730855
0.0569706
0.0453673
0.0381181
0.0349988
0.0357561
0.0400988
0.0476919
0.0581738
0.0711466
0.0861767
0.102806
0.120549
0.138914
0.157381
0.175432
0.192558
0.208262
0.222057
0.233494
0.242158
0.247683
0.249758
0.248125
0.242589
0.232935
0.219356
0.201899
0.180694
0.155976
0.128103
0.0975084
0.064704
0.0302727
-0.00514133
-0.0408401
-0.0761088
-0.11021
-0.142402
-0.171984
-0.19829
-0.220717
-0.238734
-0.251922
-0.260004
-0.262807
-0.260455
-0.252945
-0.240516
-0.223596
-0.202741
-0.178619
-0.151997
-0.123717
-0.0946663
-0.0657688
-0.037913
-0.0119609
0.0113059
0.0312044
0.0471515
0.0587253
0.0656409
0.0678268
0.0650398
0.05773
0.0461742
0.0308113
0.0121932
-0.00904591
-0.0322088
-0.0565638
-0.0813747
-0.105918
-0.129502
-0.15152
-0.171416
-0.188731
-0.203101
-0.214264
-0.222066
-0.226456
-0.227484
-0.225291
-0.220095
-0.212185
-0.201907
-0.189654
-0.175848
-0.160929
-0.145343
-0.129526
-0.113894
-0.098836
-0.0847051
-0.0718106
-0.0604158
-0.05073
-0.042908
-0.0370512
-0.0332077
-0.0313716
-0.0314741
-0.0334277
-0.0370932
-0.0422973
-0.0488335
-0.0564759
-0.0649815
-0.0740982
-0.0835672
-0.0931317
-0.102544
-0.111571
-0.119986
-0.127619
-0.134287
-0.139847
-0.144186
-0.147222
-0.148903
-0.149209
-0.148149
-0.145761
-0.142118
-0.137265
-0.131351
-0.124496
-0.116841
-0.108545
-0.099775
-0.0907062
-0.081518
-0.0723914
-0.0635056
-0.0550373
-0.0471563
-0.0400216
-0.0337831
-0.0285778
-0.0245288
-0.0217447
-0.0203165
2.34674
2.3505
2.35804
2.36933
2.38417
2.40231
2.42335
2.44689
2.47228
2.49843
2.52416
2.54807
2.56783
2.58486
2.59891
2.6092
2.61474
2.61455
2.60783
2.59386
2.57212
2.54222
2.50387
2.45705
2.40189
2.33864
2.26772
2.18978
2.10527
2.01652
1.92258
1.82494
1.72431
1.62139
1.51689
1.41154
1.30604
1.20103
1.09712
0.994881
0.89484
0.797482
0.703268
0.612637
0.52598
0.443689
0.366122
0.293569
0.226283
0.164509
0.108453
0.0583201
0.0142947
-0.0235955
-0.055574
-0.0816027
-0.101625
-0.115645
-0.123738
-0.126088
-0.12295
-0.114628
-0.101489
-0.0839471
-0.0624629
-0.0375509
-0.00976898
0.0202871
0.0519763
0.08463
0.117571
0.150104
0.181522
0.21114
0.238291
0.262326
0.282654
0.298748
0.310151
0.316507
0.317562
0.313275
0.301984
0.285441
0.263513
0.23635
0.204316
0.167925
0.127798
0.0846682
0.0393639
-0.00720654
-0.0540739
-0.100243
-0.144701
-0.186437
-0.224488
-0.257961
-0.286081
-0.308169
-0.323666
-0.332203
-0.333623
-0.328109
-0.315741
-0.296942
-0.272342
-0.242739
-0.209082
-0.172441
-0.133972
-0.0948838
-0.0564037
-0.0197109
0.0140816
0.043979
0.0691242
0.0888379
0.102624
0.110199
0.111434
0.106762
0.0962239
0.0803779
0.0598969
0.0355676
0.00825762
-0.0211077
-0.0515851
-0.0822456
-0.112164
-0.140566
-0.166709
-0.189962
-0.209821
-0.225914
-0.237993
-0.245943
-0.24978
-0.249635
-0.245738
-0.238404
-0.228024
-0.215048
-0.199969
-0.183299
-0.165566
-0.14729
-0.128976
-0.111085
-0.0940454
-0.0782388
-0.0639921
-0.0515752
-0.0411927
-0.0329897
-0.0270483
-0.0233924
-0.022
-0.022717
-0.0254749
-0.0300844
-0.0363333
-0.0439811
-0.0527668
-0.0624172
-0.0726522
-0.0831878
-0.0937453
-0.104056
-0.113865
-0.122959
-0.131148
-0.138249
-0.144115
-0.148638
-0.151741
-0.153382
-0.153552
-0.152269
-0.149583
-0.145572
-0.140312
-0.133944
-0.126606
-0.118453
-0.109653
-0.100384
-0.0908286
-0.0811734
-0.0716064
-0.0623128
-0.0534737
-0.045263
-0.0378423
-0.0313628
-0.0259623
-0.0217653
-0.018881
-0.017402
2.25904
2.26754
2.28464
2.31026
2.34408
2.38554
2.43378
2.48764
2.54573
2.60697
2.67012
2.73412
2.79723
2.85459
2.90498
2.94718
2.97985
3.00176
3.01178
3.00897
2.99258
2.96211
2.91732
2.85834
2.78544
2.69933
2.6009
2.49128
2.37185
2.24372
2.11343
1.97957
1.84293
1.70456
1.56553
1.42688
1.28959
1.15454
1.02249
0.894116
0.770026
0.650753
0.536749
0.428455
0.326272
0.230539
0.141529
0.0595223
-0.0152131
-0.0824358
-0.141938
-0.193616
-0.237435
-0.273219
-0.300996
-0.321315
-0.333865
-0.338729
-0.33613
-0.326368
-0.309797
-0.286844
-0.258006
-0.223853
-0.185015
-0.142185
-0.0961076
-0.0475854
0.00252547
0.0533353
0.103947
0.153441
0.200879
0.245368
0.286039
0.322046
0.352619
0.377061
0.394759
0.405205
0.407977
0.402636
0.390466
0.370325
0.342515
0.307497
0.265888
0.21845
0.166069
0.109768
0.0506887
-0.00992989
-0.0707739
-0.130495
-0.18774
-0.241181
-0.289556
-0.331681
-0.366538
-0.393285
-0.411276
-0.420078
-0.41938
-0.409537
-0.390808
-0.36384
-0.329524
-0.288964
-0.243469
-0.194495
-0.143592
-0.0923703
-0.0424253
0.00471436
0.0476353
0.0851074
0.116106
0.139837
0.155777
0.163684
0.163594
0.155848
0.14093
0.119583
0.092732
0.0614374
0.0268442
-0.00985626
-0.0474701
-0.0848527
-0.120876
-0.15466
-0.185331
-0.212188
-0.23469
-0.252469
-0.265311
-0.273162
-0.276108
-0.274427
-0.268418
-0.258518
-0.245235
-0.22914
-0.210839
-0.190943
-0.170067
-0.148814
-0.127786
-0.10744
-0.0882739
-0.0706927
-0.0550363
-0.0415769
-0.0305117
-0.0219691
-0.0160048
-0.012609
-0.0117024
-0.013202
-0.0168921
-0.0225678
-0.0299809
-0.0388555
-0.0488942
-0.0597915
-0.0712378
-0.0829237
-0.0945489
-0.105822
-0.116444
-0.126257
-0.135032
-0.14258
-0.148758
-0.153459
-0.156617
-0.1582
-0.158208
-0.156673
-0.153657
-0.149247
-0.143542
-0.136685
-0.12883
-0.120143
-0.110805
-0.101005
-0.0909319
-0.0807819
-0.0707487
-0.0610244
-0.0517947
-0.0432375
-0.035517
-0.0287853
-0.0231811
-0.0188293
-0.0158404
-0.0143083
2.01211
2.03026
2.06681
2.12158
2.19395
2.28264
2.38569
2.50065
2.6245
2.75407
2.88626
3.01842
3.1457
3.26453
3.37184
3.46462
3.54016
3.59613
3.63062
3.64214
3.62959
3.59233
3.53047
3.44439
3.33522
3.20491
3.05613
2.89242
2.71782
2.53669
2.34701
2.15452
1.96225
1.77228
1.58607
1.40466
1.22878
1.05901
0.895821
0.739714
0.590812
0.449492
0.316079
0.190844
0.0740404
-0.0340636
-0.1332
-0.223142
-0.303678
-0.374686
-0.436009
-0.487498
-0.529105
-0.560844
-0.582674
-0.594844
-0.597398
-0.590552
-0.5746
-0.549928
-0.517002
-0.476388
-0.428734
-0.374785
-0.315363
-0.251367
-0.183771
-0.113613
-0.0419983
0.0299178
0.100992
0.170041
0.235865
0.297326
0.353315
0.402766
0.444726
0.478329
0.502821
0.517584
0.522219
0.516508
0.500797
0.474843
0.438986
0.393825
0.340173
0.27905
0.211652
0.139344
0.0636365
-0.0138427
-0.0913655
-0.167176
-0.239508
-0.306648
-0.366988
-0.419038
-0.461509
-0.49335
-0.513797
-0.522404
-0.518787
-0.503413
-0.476797
-0.439839
-0.393767
-0.340077
-0.280516
-0.217011
-0.151589
-0.0863285
-0.023258
0.0356996
0.0888001
0.134554
0.171754
0.199518
0.217311
0.224972
0.222678
0.21095
0.190565
0.162553
0.128155
0.0887512
0.0458062
0.00080897
-0.0447619
-0.0895083
-0.132186
-0.171713
-0.207129
-0.237666
-0.262769
-0.282087
-0.295459
-0.302916
-0.304643
-0.30105
-0.292545
-0.2797
-0.263158
-0.243614
-0.221792
-0.19841
-0.174177
-0.149776
-0.125889
-0.102999
-0.081648
-0.0622674
-0.0452046
-0.0307307
-0.0190311
-0.0102122
-0.00430277
-0.00126015
-0.000972571
-0.0032993
-0.0080023
-0.0148276
-0.0234848
-0.0336588
-0.0450157
-0.0572172
-0.0699236
-0.0828004
-0.0955295
-0.107806
-0.119213
-0.129773
-0.139141
-0.147133
-0.153611
-0.158478
-0.161675
-0.16318
-0.163007
-0.1612
-0.157833
-0.153007
-0.146835
-0.139471
-0.13108
-0.121844
-0.111955
-0.10161
-0.0910096
-0.0803555
-0.0698486
-0.0596866
-0.0500614
-0.0411543
-0.0331319
-0.0261469
-0.020338
-0.0158309
-0.012737
-0.0111516
1.383
1.41753
1.48746
1.59324
1.7345
1.91046
2.11827
2.35488
2.61309
2.87829
3.13389
3.37957
3.61129
3.82359
4.01159
4.17155
4.30051
4.39632
4.45734
4.48219
4.46956
4.41834
4.32795
4.19872
4.03122
3.82852
3.59414
3.33641
3.06425
2.79462
2.52949
2.2708
2.01971
1.77721
1.54375
1.31977
1.10578
0.902104
0.708966
0.526826
0.355041
0.193744
0.0430565
-0.0969345
-0.226131
-0.344425
-0.451652
-0.547634
-0.632209
-0.705177
-0.766428
-0.815848
-0.853315
-0.87889
-0.892754
-0.894875
-0.885424
-0.864683
-0.833037
-0.79098
-0.739106
-0.678136
-0.608895
-0.532324
-0.449461
-0.361445
-0.269499
-0.17493
-0.0791271
0.0164615
0.110403
0.201219
0.287417
0.367584
0.440357
0.504422
0.558596
0.601848
0.633288
0.652213
0.658137
0.650817
0.630436
0.597085
0.551287
0.493831
0.425783
0.348467
0.263432
0.172441
0.0774465
-0.0194775
-0.116142
-0.21033
-0.299819
-0.382442
-0.456189
-0.519222
-0.569975
-0.607165
-0.629845
-0.637503
-0.630201
-0.608119
-0.572091
-0.523362
-0.463572
-0.3947
-0.319012
-0.238978
-0.157172
-0.0762183
0.00137626
0.0732544
0.137306
0.191778
0.235292
0.266896
0.286078
0.29279
0.287415
0.270732
0.243824
0.208066
0.165062
0.116564
0.0643711
0.0103062
-0.0438681
-0.0963426
-0.146018
-0.191492
-0.231715
-0.265872
-0.293424
-0.314053
-0.327674
-0.334429
-0.334649
-0.328764
-0.317424
-0.301328
-0.281252
-0.25802
-0.232474
-0.205446
-0.177738
-0.15011
-0.123299
-0.0978483
-0.0743227
-0.0531712
-0.0347506
-0.0193224
-0.00705805
0.001961
0.00773745
0.0103498
0.00994719
0.00672336
0.000946971
-0.00708044
-0.0170277
-0.0285389
-0.0412433
-0.0547692
-0.0687483
-0.0828224
-0.0966581
-0.109988
-0.122068
-0.133416
-0.143365
-0.151784
-0.158545
-0.163558
-0.166776
-0.168187
-0.167818
-0.165726
-0.161997
-0.156748
-0.150103
-0.142226
-0.133297
-0.12351
-0.11307
-0.102184
-0.0910596
-0.0799059
-0.06893
-0.0583354
-0.0483203
-0.0390697
-0.0307516
-0.0235189
-0.0175101
-0.0128512
-0.00965475
-0.00801709
0.287891
0.344285
0.458685
0.631954
0.863912
1.15342
1.49787
1.8926
2.32394
2.77428
3.23561
3.67458
4.08366
4.456
4.78541
5.06697
5.29646
5.47006
5.58434
5.63662
5.62458
5.54868
5.40824
5.20434
4.93969
4.61984
4.25281
3.84962
3.45
3.0575
2.68376
2.33164
2.00248
1.69573
1.41029
1.14457
0.896988
0.666001
0.450318
0.24902
0.0604396
-0.115378
-0.278589
-0.429277
-0.567422
-0.692941
-0.805696
-0.905481
-0.992082
-1.06527
-1.12481
-1.17049
-1.20208
-1.21935
-1.22405
-1.21458
-1.19136
-1.15482
-1.10548
-1.04395
-0.970946
-0.887373
-0.794228
-0.692675
-0.583992
-0.469572
-0.350919
-0.229643
-0.107439
0.0139217
0.132688
0.247055
0.355209
0.455436
0.546089
0.625584
0.692509
0.745639
0.783929
0.806582
0.81307
0.803128
0.77686
0.734627
0.677133
0.605403
0.520808
0.425037
0.320027
0.207991
0.0913507
-0.0272935
-0.145231
-0.259744
-0.368103
-0.467664
-0.555983
-0.630836
-0.690344
-0.732998
-0.757712
-0.763908
-0.75186
-0.721804
-0.674865
-0.612689
-0.537388
-0.451484
-0.357844
-0.259552
-0.159796
-0.0617904
0.0314228
0.117019
0.192515
0.255895
0.30563
0.340715
0.360698
0.365687
0.356389
0.33381
0.299409
0.254961
0.202461
0.144069
0.0819513
0.0182522
-0.0450894
-0.105208
-0.162173
-0.213646
-0.258596
-0.296216
-0.325985
-0.347645
-0.361216
-0.36695
-0.365316
-0.35689
-0.342463
-0.32289
-0.299089
-0.272018
-0.242638
-0.211887
-0.180663
-0.149804
-0.120089
-0.0921158
-0.0664696
-0.0436167
-0.0239134
-0.00761177
0.00513708
0.0142789
0.0198499
0.0219665
0.0208219
0.0166519
0.00976579
0.000509976
-0.0107438
-0.0235993
-0.0376508
-0.0524934
-0.0677312
-0.0829814
-0.0978839
-0.1121
-0.125156
-0.137129
-0.147616
-0.156434
-0.163454
-0.168594
-0.171813
-0.173117
-0.172542
-0.17016
-0.166067
-0.160395
-0.15328
-0.144896
-0.135437
-0.12511
-0.11413
-0.102716
-0.091083
-0.0794437
-0.0680123
-0.0569987
-0.0466068
-0.0370255
-0.0284236
-0.0209536
-0.0147534
-0.00994907
-0.00665418
-0.00496642
-1.44195
-1.35803
-1.18503
-0.914859
-0.538248
-0.0330613
0.610665
1.4227
2.54691
3.4363
4.20343
4.8798
5.46254
5.96123
6.3794
6.72058
6.98685
7.17944
7.2984
7.34265
7.31129
7.19786
6.99785
6.70545
6.30729
5.79581
5.1627
4.26867
3.62541
3.07423
2.59716
2.18039
1.80608
1.46677
1.15512
0.868266
0.603446
0.35874
0.13312
-0.0798902
-0.278704
-0.463558
-0.634766
-0.792499
-0.936675
-1.06709
-1.18347
-1.28549
-1.37277
-1.44499
-1.50181
-1.543
-1.56844
-1.57823
-1.57061
-1.54747
-1.50881
-1.45492
-1.38631
-1.30365
-1.20784
-1.0999
-0.981045
-0.85267
-0.716307
-0.573634
-0.426454
-0.276685
-0.126398
0.022337
0.167403
0.306652
0.437915
0.559161
0.66844
0.763882
0.843835
0.906869
0.951777
0.977657
0.983952
0.970352
0.937049
0.884565
0.813816
0.726094
0.6231
0.506928
0.379962
0.244901
0.104691
-0.0375264
-0.178478
-0.314883
-0.443467
-0.56108
-0.664827
-0.752074
-0.820619
-0.868715
-0.895163
-0.899404
-0.88156
-0.842334
-0.783134
-0.706027
-0.613664
-0.509168
-0.396059
-0.278106
-0.159165
-0.0430958
0.0665058
0.166319
0.253497
0.325764
0.381451
0.419543
0.439689
0.442148
0.428166
0.398834
0.3561
0.302179
0.239494
0.170622
0.098129
0.0245276
-0.047843
-0.116529
-0.180442
-0.237741
-0.287225
-0.328063
-0.359771
-0.382174
-0.395396
-0.39982
-0.396073
-0.38488
-0.367178
-0.343979
-0.316344
-0.285364
-0.252118
-0.217644
-0.182932
-0.148904
-0.116353
-0.0859408
-0.0582647
-0.0338054
-0.0129131
0.00417139
0.017322
0.026514
0.0318169
0.0333863
0.0314621
0.0263202
0.0183117
0.00782478
-0.00472719
-0.0189105
-0.0342845
-0.0504137
-0.0668762
-0.0832654
-0.099198
-0.114303
-0.128214
-0.140821
-0.151816
-0.161004
-0.168258
-0.173502
-0.176708
-0.177893
-0.177107
-0.174435
-0.169983
-0.163898
-0.156323
-0.147446
-0.137473
-0.126622
-0.115123
-0.103203
-0.091082
-0.0789782
-0.0671114
-0.0556975
-0.0449469
-0.0350518
-0.0261819
-0.018488
-0.0121071
-0.00716538
-0.00377749
-0.00204236
-3.84319
-3.74463
-3.53861
-3.21178
-2.74226
-2.10235
-1.24909
-0.138519
1.55131
2.87868
4.04598
5.06016
5.93086
6.67208
7.29152
7.79602
8.19016
8.47676
8.65671
8.72915
8.69144
8.53874
8.2635
7.8568
7.30264
6.58488
5.70701
4.42297
3.59995
2.90771
2.34154
1.86743
1.4609
1.1055
0.789158
0.501658
0.236265
0.0038669
-0.227308
-0.443603
-0.645985
-0.834912
-1.01054
-1.17265
-1.32086
-1.45467
-1.57355
-1.6769
-1.76413
-1.83469
-1.88808
-1.92388
-1.94177
-1.94152
-1.92281
-1.88595
-1.83126
-1.75917
-1.6703
-1.56546
-1.44565
-1.31211
-1.16628
-1.00978
-0.844431
-0.672193
-0.495189
-0.315684
-0.136182
0.0410344
0.213391
0.378381
0.533476
0.676314
0.804628
0.91625
1.00928
1.08207
1.13325
1.16181
1.16711
1.14901
1.10765
1.04374
0.958413
0.853276
0.730396
0.592286
0.441808
0.282185
0.116928
-0.0502529
-0.215488
-0.374913
-0.524682
-0.66112
-0.780842
-0.880805
-0.958473
-1.01187
-1.03964
-1.04123
-1.01684
-0.967465
-0.894874
-0.80162
-0.690942
-0.566617
-0.432875
-0.294228
-0.155235
-0.020427
0.106013
0.220269
0.319121
0.400061
0.461301
0.501864
0.521569
0.521058
0.501375
0.464535
0.412803
0.348813
0.275454
0.195736
0.112605
0.0289531
-0.0525318
-0.12951
-0.200342
-0.263261
-0.317019
-0.360789
-0.394143
-0.416995
-0.429597
-0.432464
-0.426407
-0.412281
-0.391186
-0.364284
-0.332783
-0.297899
-0.260822
-0.222684
-0.184565
-0.147486
-0.112209
-0.0794659
-0.0498762
-0.0239214
-0.00194426
0.0158301
0.0293039
0.0384805
0.0434645
0.0444515
0.0417275
0.0356069
0.026482
0.0147815
0.000959172
-0.0145157
-0.03117
-0.0485387
-0.0661764
-0.0836552
-0.100573
-0.116526
-0.131217
-0.144435
-0.155904
-0.165432
-0.172894
-0.178222
-0.181401
-0.18246
-0.181463
-0.178506
-0.173713
-0.167219
-0.159201
-0.149851
-0.139385
-0.128036
-0.116043
-0.103643
-0.0910602
-0.0785177
-0.066239
-0.0544473
-0.043359
-0.0331701
-0.0240497
-0.0161471
-0.00959764
-0.0045276
-0.00105284
0.000726668
-6.89175
-6.85567
-6.78099
-6.68036
-6.55528
-6.43156
-6.35852
-6.1617
1.92709
1.72124
1.57403
1.35494
1.1064
0.851638
0.591098
0.33595
0.0851775
-0.152307
-0.383797
-0.606596
-0.819416
-1.02152
-1.2122
-1.3907
-1.5562
-1.70784
-1.84469
-1.96585
-2.07039
-2.15745
-2.22625
-2.27608
-2.30635
-2.31659
-2.30651
-2.27587
-2.2248
-2.15361
-2.06281
-1.95309
-1.82539
-1.68089
-1.52103
-1.34744
-1.16204
-0.966913
-0.764342
-0.556794
-0.346867
-0.137384
0.0688611
0.269003
0.460154
0.639411
0.804056
0.9515
1.07927
1.18522
1.26748
1.32453
1.35524
1.35897
1.33553
1.28522
1.20892
1.108
0.984372
0.840502
0.679341
0.504258
0.319016
0.127709
-0.0653524
-0.255687
-0.438825
-0.610346
-0.766021
-0.901979
-1.01475
-1.10147
-1.1599
-1.1886
-1.18697
-1.15535
-1.09502
-1.00815
-0.897829
-0.767907
-0.622877
-0.467716
-0.307697
-0.148156
0.00573377
0.149161
0.277831
0.388154
0.477399
0.543706
0.58616
0.604769
0.600458
0.574661
0.529778
0.468561
0.39412
0.309819
0.219075
0.125239
0.0315471
-0.0588647
-0.143881
-0.221424
-0.289691
-0.347417
-0.393806
-0.428511
-0.451548
-0.463295
-0.464413
-0.455898
-0.438738
-0.414196
-0.383586
-0.348251
-0.309528
-0.268711
-0.227021
-0.185608
-0.14565
-0.107772
-0.0728303
-0.0414565
-0.0141255
0.00882872
0.0272046
0.040927
0.0500325
0.054661
0.0550425
0.0515155
0.0444255
0.0342067
0.0213275
0.00627757
-0.0104377
-0.028317
-0.0468661
-0.065618
-0.0841282
-0.101981
-0.118722
-0.134136
-0.147927
-0.159836
-0.169672
-0.177317
-0.182712
-0.185853
-0.186781
-0.185575
-0.18234
-0.177214
-0.170337
-0.161898
-0.152099
-0.141166
-0.129344
-0.116887
-0.104036
-0.0910218
-0.0780685
-0.0654042
-0.0532591
-0.0418557
-0.0313941
-0.0220422
-0.0139467
-0.00724144
-0.00205242
0.00150282
0.00332354
-9.75189
-9.73232
-9.68975
-9.63354
-9.55671
-9.47625
-9.4168
-9.29004
1.26998
1.09228
0.963366
0.782736
0.575644
0.363466
0.136589
-0.0844728
-0.312932
-0.5377
-0.759194
-0.975971
-1.18635
-1.38873
-1.58156
-1.76338
-1.93274
-2.08827
-2.22861
-2.35245
-2.45856
-2.5458
-2.61312
-2.65961
-2.6845
-2.68722
-2.66737
-2.62471
-2.55932
-2.47149
-2.36177
-2.23098
-2.08019
-1.91072
-1.72423
-1.5226
-1.30799
-1.08279
-0.849612
-0.611252
-0.370678
-0.131074
0.104351
0.332362
0.549692
0.753056
0.939394
1.10579
1.24946
1.368
1.45934
1.5218
1.55415
1.55571
1.52632
1.46641
1.37701
1.25979
1.11697
0.9514
0.766512
0.566179
0.354728
0.136839
-0.0825603
-0.29837
-0.505501
-0.698965
-0.873971
-1.02616
-1.15163
-1.24718
-1.31036
-1.33958
-1.33425
-1.29485
-1.22297
-1.12121
-0.993195
-0.843443
-0.677189
-0.500171
-0.318463
-0.138231
0.0347761
0.195086
0.337912
0.45933
0.556411
0.62725
0.671012
0.687946
0.679291
0.646914
0.593609
0.522615
0.437541
0.342212
0.240461
0.136008
0.0324044
-0.0665154
-0.159301
-0.243259
-0.316542
-0.377898
-0.426598
-0.462366
-0.485351
-0.496058
-0.495333
-0.484222
-0.463984
-0.436004
-0.401738
-0.362654
-0.320207
-0.275791
-0.230696
-0.186118
-0.143504
-0.103155
-0.0661579
-0.0331379
-0.00455296
0.0192748
0.0381666
0.0520734
0.061063
0.0653106
0.065081
0.0607573
0.0527202
0.0414435
0.0274316
0.0112106
-0.00668542
-0.0257234
-0.045386
-0.065185
-0.0846621
-0.103396
-0.120857
-0.136943
-0.151267
-0.163578
-0.173692
-0.181497
-0.186942
-0.190037
-0.190833
-0.189423
-0.185923
-0.180477
-0.17324
-0.164405
-0.154182
-0.14281
-0.130547
-0.117656
-0.104386
-0.0909705
-0.0776359
-0.0646132
-0.0521397
-0.0404449
-0.0297321
-0.0201678
-0.0118953
-0.00504687
0.000251585
0.00388076
0.00573963
-12.3816
-12.3716
-12.348
-12.3207
-12.2814
-12.2459
-12.2217
-12.1753
0.605532
0.504739
0.417718
0.291733
0.124472
-0.0512635
-0.260603
-0.462866
-0.67439
-0.889814
-1.10628
-1.32123
-1.53233
-1.73735
-1.93416
-2.12075
-2.29517
-2.45561
-2.60029
-2.72756
-2.83588
-2.92383
-2.99014
-3.03369
-3.05355
-3.049
-3.01966
-2.96517
-2.88558
-2.78122
-2.65271
-2.50095
-2.32716
-2.13283
-1.91982
-1.69025
-1.44657
-1.19146
-0.927843
-0.658872
-0.387873
-0.118409
0.145916
0.401486
0.644655
0.871756
1.07939
1.26431
1.42344
1.55412
1.65408
1.72147
1.75498
1.7539
1.71809
1.64812
1.54521
1.41129
1.2489
1.06132
0.852433
0.626635
0.388819
0.144255
-0.101513
-0.342761
-0.573799
-0.789056
-0.983197
-1.15137
-1.28927
-1.39335
-1.46094
-1.49031
-1.48089
-1.43333
-1.34952
-1.2325
-1.08647
-0.916639
-0.728973
-0.530003
-0.3266
-0.125876
0.066034
0.242878
0.399423
0.531434
0.635807
0.710628
0.755153
0.769901
0.756508
0.717222
0.655267
0.574379
0.478663
0.372393
0.259828
0.144997
0.0316303
-0.0750971
-0.175427
-0.265439
-0.343365
-0.408007
-0.458711
-0.495286
-0.518015
-0.527535
-0.524859
-0.511132
-0.487832
-0.456476
-0.418652
-0.375952
-0.329935
-0.282091
-0.233775
-0.186154
-0.141163
-0.0984519
-0.0595574
-0.0250302
0.00468783
0.0292908
0.0486208
0.0626562
0.0714959
0.0753483
0.0745369
0.0694103
0.0604593
0.0481704
0.0330825
0.0157535
-0.00325522
-0.0233813
-0.0440846
-0.0648593
-0.0852344
-0.1048
-0.1229
-0.139618
-0.15443
-0.167108
-0.177472
-0.185415
-0.190897
-0.193939
-0.194605
-0.192997
-0.189245
-0.183499
-0.175925
-0.16672
-0.156102
-0.14432
-0.131646
-0.118353
-0.104695
-0.0909102
-0.0772237
-0.0638701
-0.0510934
-0.0391304
-0.0281877
-0.0184297
-0.00999598
-0.00301673
0.0023818
0.00607863
0.0079725
-14.7529
-14.7478
-14.7345
-14.721
-14.6999
-14.6832
-14.669
-14.6496
0.161256
0.070342
0.000956546
-0.0849222
-0.248959
-0.40806
-0.591832
-0.786677
-0.992015
-1.20426
-1.42039
-1.63735
-1.85229
-2.06248
-2.26533
-2.45836
-2.63921
-2.80568
-2.95566
-3.08716
-3.19837
-3.28763
-3.35344
-3.39452
-3.40977
-3.39831
-3.35988
-3.29388
-3.20043
-3.07989
-2.93295
-2.7606
-2.56421
-2.34544
-2.10637
-1.84935
-1.5771
-1.29261
-0.99912
-0.700127
-0.39931
-0.10061
0.191974
0.474461
0.742823
0.993026
1.22132
1.42416
1.59817
1.74043
1.84848
1.92032
1.95457
1.95047
1.90793
1.82765
1.71105
1.56031
1.37833
1.16877
0.935985
0.684893
0.420945
0.15
-0.12179
-0.388089
-0.642616
-0.879231
-1.09207
-1.2758
-1.42571
-1.53793
-1.60957
-1.63878
-1.62499
-1.56904
-1.47312
-1.34073
-1.17665
-0.98678
-0.777825
-0.557129
-0.332328
-0.111529
0.098822
0.291656
0.461342
0.603349
0.71444
0.792697
0.8375
0.849631
0.831235
0.784852
0.714169
0.623427
0.517212
0.400246
0.277193
0.152376
0.0293175
-0.0841809
-0.191953
-0.287593
-0.36977
-0.437361
-0.48978
-0.526936
-0.549241
-0.557469
-0.552766
-0.536464
-0.510166
-0.475538
-0.434294
-0.38814
-0.338738
-0.28766
-0.236335
-0.186017
-0.138494
-0.0937426
-0.0531183
-0.0172212
0.0135145
0.0388008
0.058501
0.072618
0.0812822
0.0847336
0.0833231
0.0774516
0.0676305
0.0543831
0.0382813
0.0199124
-0.000136048
-0.0212763
-0.0429462
-0.0646235
-0.0858261
-0.106177
-0.124831
-0.142146
-0.157403
-0.170412
-0.180999
-0.189062
-0.19457
-0.197554
-0.198092
-0.196298
-0.192309
-0.186282
-0.178394
-0.168845
-0.15786
-0.145699
-0.132644
-0.118981
-0.104968
-0.0908438
-0.0768347
-0.0631769
-0.0501218
-0.0379134
-0.0267615
-0.0168276
-0.00824771
-0.00114953
0.00434026
0.0080987
0.0100245
-16.8716
-16.8688
-16.8606
-16.8534
-16.8407
-16.8319
-16.8224
-16.8152
-0.167814
-0.241174
-0.311937
-0.396906
-0.539318
-0.693614
-0.869997
-1.06209
-1.267
-1.48103
-1.70088
-1.92319
-2.14472
-2.36235
-2.57308
-2.77405
-2.96256
-3.13607
-3.29217
-3.42861
-3.54332
-3.63441
-3.70022
-3.7393
-3.75046
-3.73283
-3.68542
-3.60831
-3.50147
-3.36527
-3.20045
-3.00812
-2.78978
-2.54727
-2.28287
-1.99917
-1.69918
-1.38617
-1.0637
-0.735588
-0.405879
-0.0788737
0.241045
0.549533
0.842194
1.11463
1.36278
1.58278
1.77096
1.92417
2.03975
2.11559
2.15023
2.14284
2.0934
2.00274
1.87249
1.70509
1.50375
1.27254
1.01629
0.740406
0.450895
0.15419
-0.142962
-0.433624
-0.71095
-0.968251
-1.19915
-1.39786
-1.55925
-1.67917
-1.7545
-1.78331
-1.76495
-1.70051
-1.5925
-1.44486
-1.26294
-1.05333
-0.823495
-0.581577
-0.336037
-0.0955481
0.13248
0.34061
0.52275
0.674103
0.791321
0.872502
0.917162
0.926326
0.902792
0.849253
0.7699
0.66948
0.553039
0.425742
0.292633
0.158386
0.0271358
-0.0949012
-0.208648
-0.309401
-0.395436
-0.465651
-0.519521
-0.557066
-0.578816
-0.585691
-0.578955
-0.560126
-0.53093
-0.493164
-0.448668
-0.399247
-0.34666
-0.292556
-0.238434
-0.185613
-0.13574
-0.0891111
-0.0469128
-0.00977724
0.0218687
0.0477543
0.0677654
0.0819256
0.0903976
0.0934505
0.091461
0.0848793
0.0742366
0.0600895
0.0430389
0.0237014
0.00268777
-0.0193919
-0.041954
-0.0644616
-0.0864198
-0.107416
-0.126735
-0.144519
-0.160177
-0.173485
-0.184271
-0.192436
-0.197959
-0.200884
-0.2013
-0.199329
-0.195119
-0.188832