# Force coefficients
# liftDir         : (0.0000000000e+00 0.0000000000e+00 1.0000000000e+00)
# dragDir         : (1.0000000000e+00 0.0000000000e+00 0.0000000000e+00)
# pitchAxis       : (0.0000000000e+00 1.0000000000e+00 0.0000000000e+00)
# magUInf         : 2.0000000000e+01
# lRef            : 1.0000000000e+00
# Aref            : 1.0000000000e+00
# CofR            : (0.0000000000e+00 0.0000000000e+00 0.0000000000e+00)
# Time            	Cm                	Cd                	Cl                	Cl(f)             	Cl(r)             
1                 	0.0000000000e+00	8.5218500828e-05	0.0000000000e+00	0.0000000000e+00	0.0000000000e+00
