/*--------------------------------*- C++ -*----------------------------------*\
  =========                 |
  \\      /  F ield         | OpenFOAM: The Open Source CFD Toolbox
   \\    /   O peration     | Website:  https://openfoam.org
    \\  /    A nd           | Version:  12
     \\/     M anipulation  |
\*---------------------------------------------------------------------------*/
FoamFile
{
    format      ascii;
    class       volScalarField;
    location    "5";
    object      p;
}
// * * * * * * * * * * * * * * * * * * * * * * * * * * * * * * * * * * * * * //

dimensions      [0 2 -2 0 0 0 0];

internalField   nonuniform List<scalar> 
400
(
3.39671e-08
-7.22769e-05
-0.000212748
-0.000144327
-0.000467422
-0.00149559
-0.0028709
-0.00416598
-0.0052325
-0.00599162
-0.0064317
-0.00653175
-0.00624306
-0.00542795
-0.0038659
-0.0013648
0.00204457
0.00598691
0.00913083
0.010432
4.44076e-05
-2.31538e-05
-0.000137177
-0.00048706
-0.00124619
-0.00240749
-0.0036401
-0.00483471
-0.00580821
-0.00650659
-0.00691365
-0.00702881
-0.00682494
-0.00621802
-0.00502561
-0.00302806
-0.000125511
0.00354574
0.00693809
0.00887766
0.000213761
-3.21886e-05
-0.000520475
-0.00135915
-0.00253004
-0.00377437
-0.00498139
-0.00609567
-0.00693268
-0.00750674
-0.00781757
-0.00787368
-0.00765333
-0.00713774
-0.00627419
-0.00492453
-0.00283182
0.000106676
0.00333875
0.00557721
0.000169532
-0.000321185
-0.0012595
-0.00258299
-0.00399888
-0.00528808
-0.00634718
-0.00712354
-0.0076717
-0.00804272
-0.00823503
-0.00823747
-0.00804285
-0.0076401
-0.0070093
-0.00610501
-0.00478928
-0.00273239
-0.000100623
0.0019875
-0.000383558
-0.00105549
-0.0023319
-0.00388591
-0.00528662
-0.00635783
-0.00710788
-0.00765908
-0.00809379
-0.00841616
-0.00859883
-0.00860932
-0.00842907
-0.00805948
-0.00752027
-0.00683121
-0.00600356
-0.00470187
-0.00295693
-0.00113151
-0.00141935
-0.00214629
-0.00351567
-0.00501971
-0.0062269
-0.00699906
-0.00753745
-0.00801113
-0.00845263
-0.00881795
-0.00904773
-0.00909414
-0.008941
-0.00859831
-0.00810469
-0.00752404
-0.00696807
-0.00611147
-0.00505335
-0.00365045
-0.00262186
-0.00333189
-0.00457772
-0.00589426
-0.00684982
-0.00740704
-0.00787663
-0.0083718
-0.0088867
-0.00934778
-0.00966538
-0.0097753
-0.00965575
-0.0093292
-0.00885493
-0.00829867
-0.00788008
-0.00725446
-0.00665913
-0.00558128
-0.003706
-0.00432666
-0.00538814
-0.00651119
-0.0072833
-0.00771969
-0.00820388
-0.00877544
-0.00941106
-0.0100087
-0.0104476
-0.0106453
-0.0105659
-0.010238
-0.00975362
-0.00915517
-0.00877612
-0.00823414
-0.00787519
-0.00704379
-0.0045031
-0.00503902
-0.00594496
-0.00692519
-0.00758372
-0.00798382
-0.00852714
-0.00920681
-0.0099874
-0.0107355
-0.0112965
-0.0115701
-0.0115312
-0.0111965
-0.0106857
-0.0100001
-0.00958073
-0.00900146
-0.00880746
-0.00809257
-0.00497855
-0.0054432
-0.00625206
-0.00714559
-0.00775723
-0.00818693
-0.00880914
-0.00959293
-0.0105033
-0.0113711
-0.0120188
-0.0123427
-0.0123265
-0.0119753
-0.0114389
-0.0106661
-0.0102053
-0.00946739
-0.00945818
-0.00874925
-0.00512744
-0.00554593
-0.00631508
-0.00718795
-0.00781897
-0.00830542
-0.00898137
-0.00984085
-0.0108402
-0.0117712
-0.0124681
-0.0128115
-0.0127941
-0.0123955
-0.0118305
-0.0109655
-0.0105253
-0.00951135
-0.00982649
-0.00893898
-0.00497052
-0.00539893
-0.00616447
-0.00706568
-0.00773635
-0.0082771
-0.00898566
-0.00987461
-0.0108959
-0.0118454
-0.0125598
-0.0129092
-0.0128741
-0.0124343
-0.0117879
-0.0108842
-0.0103659
-0.00916875
-0.00981756
-0.0086106
-0.00460739
-0.0050498
-0.00582058
-0.00673997
-0.00747875
-0.00806636
-0.00878124
-0.0096534
-0.0106441
-0.0115806
-0.0122834
-0.0126193
-0.012561
-0.0120711
-0.011343
-0.0104088
-0.00975856
-0.00850421
-0.00931769
-0.00774161
-0.00416129
-0.00461276
-0.00533436
-0.00620428
-0.00701362
-0.00766051
-0.00836464
-0.00918857
-0.0101147
-0.0109938
-0.0116538
-0.0119556
-0.0118666
-0.0113371
-0.0105492
-0.00958534
-0.00879182
-0.00757314
-0.00837615
-0.00642902
-0.00375859
-0.00414519
-0.00474538
-0.00548205
-0.00632501
-0.00705638
-0.00776505
-0.00853199
-0.00937362
-0.0101638
-0.0107574
-0.0110156
-0.0109033
-0.0103549
-0.00952377
-0.00851281
-0.00759006
-0.00644305
-0.00712877
-0.0047528
-0.00365405
-0.00377373
-0.0040676
-0.00459424
-0.00539577
-0.00623608
-0.00702588
-0.00779409
-0.00857377
-0.00928201
-0.00980288
-0.010007
-0.00985905
-0.00930859
-0.00843601
-0.00735968
-0.00629602
-0.00521536
-0.00567641
-0.0027541
-0.00376584
-0.00355867
-0.00333361
-0.00357175
-0.00428383
-0.00521906
-0.00615117
-0.00701201
-0.00780789
-0.00848924
-0.00897706
-0.00915736
-0.0089834
-0.00840359
-0.00747165
-0.00628295
-0.00509117
-0.00394901
-0.00402474
-0.000273813
-0.00361779
-0.00308656
-0.00244465
-0.00243966
-0.00308432
-0.00409686
-0.00517494
-0.00617056
-0.00704726
-0.00775688
-0.00823734
-0.00840456
-0.00820727
-0.00762224
-0.00665512
-0.00537971
-0.00400626
-0.00262284
-0.00173991
0.00413491
-0.00321345
-0.00244447
-0.00157449
-0.00146426
-0.00208723
-0.00314407
-0.00434469
-0.00546829
-0.0064391
-0.00719969
-0.00770482
-0.00790412
-0.00773195
-0.0071675
-0.00619002
-0.00485696
-0.00324291
-0.000944578
0.00368748
0.0162532
-0.00455975
-0.00168366
-0.000634215
-0.000681347
-0.00134046
-0.00244161
-0.00372855
-0.00497539
-0.00603124
-0.00685095
-0.00739299
-0.00764377
-0.00753403
-0.0070356
-0.00603466
-0.0044602
-0.00171652
0.00426736
0.0175431
0.039963
)
;

boundaryField
{
    movingWall
    {
        type            zeroGradient;
    }
    fixedWalls
    {
        type            zeroGradient;
    }
    frontAndBack
    {
        type            empty;
    }
}


// ************************************************************************* //
