/*--------------------------------*- C++ -*----------------------------------*\
  =========                 |
  \\      /  F ield         | OpenFOAM: The Open Source CFD Toolbox
   \\    /   O peration     | Website:  https://openfoam.org
    \\  /    A nd           | Version:  12
     \\/     M anipulation  |
\*---------------------------------------------------------------------------*/
FoamFile
{
    format      ascii;
    class       surfaceScalarField;
    location    "5";
    object      phi;
}
// * * * * * * * * * * * * * * * * * * * * * * * * * * * * * * * * * * * * * //

dimensions      [0 3 -1 0 0 0 0];

internalField   nonuniform List<scalar> 
760
(
2.32517e-07
-2.3252e-07
1.77985e-07
5.45315e-08
-3.32858e-07
5.10843e-07
-1.52427e-06
1.19141e-06
-3.02234e-06
1.49807e-06
-4.32108e-06
1.29874e-06
-5.42696e-06
1.10588e-06
-6.25673e-06
8.29778e-07
-6.91508e-06
6.58343e-07
-7.38423e-06
4.69157e-07
-7.72139e-06
3.37154e-07
-7.90261e-06
1.81223e-07
-7.94227e-06
3.96599e-08
-7.81316e-06
-1.29112e-07
-7.49267e-06
-3.20492e-07
-6.84972e-06
-6.42942e-07
-5.73389e-06
-1.11584e-06
-3.99837e-06
-1.73552e-06
-1.75743e-06
-2.24094e-06
-1.75743e-06
-2.16161e-07
-1.63592e-08
-9.89515e-07
8.27885e-07
-2.35058e-06
1.8719e-06
-3.77062e-06
2.61146e-06
-4.7688e-06
2.49625e-06
-5.64395e-06
2.17388e-06
-6.30517e-06
1.7671e-06
-6.87338e-06
1.39799e-06
-7.28652e-06
1.07148e-06
-7.57146e-06
7.54096e-07
-7.722e-06
4.8769e-07
-7.74053e-06
1.99761e-07
-7.64017e-06
-6.07053e-08
-7.44468e-06
-3.24604e-07
-7.11173e-06
-6.53442e-07
-6.5875e-06
-1.16717e-06
-5.7339e-06
-1.96944e-06
-4.32346e-06
-3.14596e-06
-2.262e-06
-4.3024e-06
-4.01943e-06
-7.71666e-07
7.55307e-07
-2.02507e-06
2.08128e-06
-3.30214e-06
3.14898e-06
-4.20909e-06
3.51841e-06
-4.88253e-06
3.1697e-06
-5.38033e-06
2.67167e-06
-5.64488e-06
2.03165e-06
-5.76401e-06
1.51713e-06
-5.6956e-06
1.00307e-06
-5.60386e-06
6.62357e-07
-5.4876e-06
3.71428e-07
-5.41181e-06
1.23971e-07
-5.32534e-06
-1.47172e-07
-5.18978e-06
-4.60169e-07
-4.98928e-06
-8.53941e-07
-4.70677e-06
-1.44968e-06
-4.30615e-06
-2.37006e-06
-3.53519e-06
-3.91691e-06
-2.08494e-06
-5.75265e-06
-6.10437e-06
-1.09327e-06
1.84858e-06
-2.35057e-06
3.33858e-06
-3.30622e-06
4.10463e-06
-3.8921e-06
4.10428e-06
-4.16779e-06
3.44539e-06
-4.10801e-06
2.61189e-06
-3.89037e-06
1.81401e-06
-3.68978e-06
1.31654e-06
-3.60855e-06
9.21848e-07
-3.58837e-06
6.4217e-07
-3.57789e-06
3.60947e-07
-3.54198e-06
8.80611e-08
-3.45533e-06
-2.33816e-07
-3.31585e-06
-5.99653e-07
-3.13954e-06
-1.03024e-06
-2.97057e-06
-1.61866e-06
-2.80407e-06
-2.53655e-06
-2.45298e-06
-4.268e-06
-1.59319e-06
-6.61244e-06
-7.69756e-06
-1.08237e-06
2.93095e-06
-2.08239e-06
4.3386e-06
-2.70746e-06
4.7297e-06
-2.98878e-06
4.3856e-06
-2.92047e-06
3.37708e-06
-2.69556e-06
2.38699e-06
-2.56456e-06
1.68301e-06
-2.58416e-06
1.33613e-06
-2.7013e-06
1.039e-06
-2.84092e-06
7.81786e-07
-2.93112e-06
4.51147e-07
-2.92889e-06
8.58276e-08
-2.81114e-06
-3.5156e-07
-2.58955e-06
-8.21245e-07
-2.30063e-06
-1.31917e-06
-2.00843e-06
-1.91085e-06
-1.79583e-06
-2.74915e-06
-1.72839e-06
-4.33544e-06
-1.17993e-06
-7.1609e-06
-8.87749e-06
-8.82112e-07
3.81306e-06
-1.578e-06
5.03449e-06
-1.99017e-06
5.14188e-06
-2.08236e-06
4.47779e-06
-1.93923e-06
3.23394e-06
-1.80804e-06
2.2558e-06
-1.89609e-06
1.77106e-06
-2.12503e-06
1.56507e-06
-2.41141e-06
1.32538e-06
-2.65345e-06
1.02382e-06
-2.79009e-06
5.87792e-07
-2.78003e-06
7.57695e-08
-2.63018e-06
-5.01415e-07
-2.35558e-06
-1.09584e-06
-1.99453e-06
-1.68022e-06
-1.59175e-06
-2.31363e-06
-1.2342e-06
-3.10671e-06
-1.05938e-06
-4.51026e-06
-8.84103e-07
-7.33618e-06
-9.7616e-06
-6.03442e-07
4.4165e-06
-1.04395e-06
5.475e-06
-1.3006e-06
5.39853e-06
-1.32985e-06
4.50704e-06
-1.24429e-06
3.14838e-06
-1.32896e-06
2.34047e-06
-1.59924e-06
2.04134e-06
-1.95195e-06
1.91778e-06
-2.3034e-06
1.67682e-06
-2.58591e-06
1.30634e-06
-2.74996e-06
7.5184e-07
-2.73898e-06
6.47826e-08
-2.58163e-06
-6.58761e-07
-2.28261e-06
-1.39486e-06
-1.87245e-06
-2.09038e-06
-1.41736e-06
-2.76872e-06
-9.97658e-07
-3.52641e-06
-7.87827e-07
-4.7201e-06
-6.62299e-07
-7.4617e-06
-1.04239e-05
-3.22782e-07
4.73928e-06
-6.16957e-07
5.76917e-06
-7.94576e-07
5.57615e-06
-8.28589e-07
4.54105e-06
-8.4053e-07
3.16033e-06
-1.03498e-06
2.53492e-06
-1.37355e-06
2.37991e-06
-1.74428e-06
2.28851e-06
-2.0973e-06
2.02984e-06
-2.36291e-06
1.57195e-06
-2.50467e-06
8.93599e-07
-2.49842e-06
5.85341e-08
-2.3635e-06
-7.93682e-07
-2.09215e-06
-1.6662e-06
-1.69998e-06
-2.48256e-06
-1.2539e-06
-3.21479e-06
-8.20924e-07
-3.95939e-06
-5.70394e-07
-4.97063e-06
-5.22238e-07
-7.50986e-06
-1.09461e-05
-1.15506e-07
4.85479e-06
-2.46606e-07
5.90027e-06
-3.2677e-07
5.65631e-06
-3.7238e-07
4.58666e-06
-4.70223e-07
3.25817e-06
-7.03536e-07
2.76823e-06
-1.0469e-06
2.72328e-06
-1.39634e-06
2.63794e-06
-1.70006e-06
2.33356e-06
-1.90194e-06
1.77383e-06
-1.99491e-06
9.86577e-07
-1.9858e-06
4.9425e-08
-1.89231e-06
-8.87173e-07
-1.70385e-06
-1.85466e-06
-1.40364e-06
-2.78277e-06
-1.03648e-06
-3.58196e-06
-6.65876e-07
-4.32999e-06
-4.40134e-07
-5.19637e-06
-4.03761e-07
-7.54623e-06
-1.13499e-05
9.5284e-08
4.7595e-06
6.14707e-08
5.93409e-06
1.26728e-08
5.70511e-06
-1.55232e-08
4.61486e-06
-1.48883e-07
3.39153e-06
-3.63418e-07
2.98277e-06
-6.25179e-07
2.98504e-06
-8.68901e-07
2.88166e-06
-1.06271e-06
2.52737e-06
-1.18016e-06
1.89128e-06
-1.23445e-06
1.04087e-06
-1.23096e-06
4.59364e-08
-1.17107e-06
-9.47058e-07
-1.06735e-06
-1.95839e-06
-9.18204e-07
-2.93191e-06
-6.93076e-07
-3.80708e-06
-4.44381e-07
-4.57868e-06
-2.84589e-07
-5.35616e-06
-3.31218e-07
-7.4996e-06
-1.16811e-05
2.76442e-07
4.48306e-06
3.87654e-07
5.82288e-06
4.39748e-07
5.65302e-06
3.61265e-07
4.69334e-06
2.35762e-07
3.51703e-06
8.53617e-08
3.13317e-06
-5.88675e-08
3.12927e-06
-1.82856e-07
3.00565e-06
-2.7288e-07
2.61739e-06
-3.22884e-07
1.94128e-06
-3.53463e-07
1.07145e-06
-3.77067e-07
6.95395e-08
-3.5902e-07
-9.65105e-07
-3.35588e-07
-1.98182e-06
-2.97473e-07
-2.97002e-06
-2.84551e-07
-3.82001e-06
-1.57618e-07
-4.70562e-06
-1.34467e-07
-5.37931e-06
-2.55559e-07
-7.37851e-06
-1.19367e-05
4.28795e-07
4.05427e-06
6.70345e-07
5.58133e-06
7.93428e-07
5.52993e-06
7.33464e-07
4.7533e-06
6.41014e-07
3.60948e-06
6.0218e-07
3.172e-06
6.02584e-07
3.12886e-06
6.15624e-07
2.99261e-06
6.18526e-07
2.61449e-06
6.16666e-07
1.94314e-06
6.02813e-07
1.0853e-06
5.54038e-07
1.18314e-07
5.04453e-07
-9.15519e-07
4.43608e-07
-1.92098e-06
3.67447e-07
-2.89386e-06
2.16429e-07
-3.66899e-06
1.63339e-07
-4.65253e-06
-2.97674e-08
-5.1862e-06
-1.94939e-07
-7.21334e-06
-1.21316e-05
6.49278e-07
3.40499e-06
9.8315e-07
5.24745e-06
1.19382e-06
5.31927e-06
1.16311e-06
4.78401e-06
1.09664e-06
3.67595e-06
1.14672e-06
3.12192e-06
1.28175e-06
2.99384e-06
1.42545e-06
2.84891e-06
1.53585e-06
2.50409e-06
1.59698e-06
1.88201e-06
1.60085e-06
1.08143e-06
1.53145e-06
1.87715e-07
1.41544e-06
-7.99507e-07
1.26739e-06
-1.77293e-06
1.01188e-06
-2.63836e-06
7.87959e-07
-3.44506e-06
4.76685e-07
-4.34125e-06
1.36773e-07
-4.84629e-06
-5.64834e-08
-7.02009e-06
-1.21881e-05
7.74576e-07
2.63041e-06
1.25275e-06
4.76928e-06
1.54263e-06
5.02939e-06
1.63958e-06
4.68706e-06
1.58145e-06
3.73408e-06
1.6727e-06
3.03067e-06
1.91047e-06
2.75607e-06
2.17472e-06
2.58466e-06
2.39832e-06
2.28049e-06
2.5264e-06
1.75394e-06
2.55344e-06
1.05439e-06
2.48147e-06
2.59682e-07
2.31003e-06
-6.28066e-07
2.05676e-06
-1.51966e-06
1.6967e-06
-2.2783e-06
1.32176e-06
-3.07013e-06
7.97763e-07
-3.81725e-06
3.56019e-07
-4.40455e-06
6.79496e-08
-6.73202e-06
-1.21201e-05
9.70426e-07
1.65999e-06
1.4739e-06
4.26581e-06
1.8333e-06
4.66999e-06
2.07349e-06
4.44687e-06
2.10382e-06
3.70375e-06
2.21025e-06
2.92424e-06
2.47488e-06
2.49144e-06
2.8113e-06
2.24824e-06
3.12425e-06
1.96753e-06
3.3337e-06
1.54449e-06
3.40742e-06
9.80671e-07
3.34767e-06
3.19429e-07
3.12387e-06
-4.04258e-07
2.78675e-06
-1.18255e-06
2.31883e-06
-1.81037e-06
1.8168e-06
-2.56809e-06
1.15776e-06
-3.15822e-06
5.72252e-07
-3.81904e-06
1.94115e-07
-6.35388e-06
-1.1926e-05
9.11114e-07
7.48873e-07
1.55808e-06
3.61884e-06
2.03845e-06
4.18962e-06
2.45294e-06
4.03237e-06
2.6614e-06
3.49529e-06
2.78945e-06
2.79619e-06
3.01094e-06
2.26996e-06
3.3184e-06
1.94078e-06
3.64202e-06
1.64391e-06
3.88619e-06
1.30032e-06
3.99521e-06
8.71655e-07
3.95833e-06
3.56307e-07
3.73206e-06
-1.77986e-07
3.36125e-06
-8.1174e-07
2.85463e-06
-1.30376e-06
2.26027e-06
-1.97373e-06
1.50287e-06
-2.40082e-06
7.87912e-07
-3.10408e-06
3.83197e-07
-5.94916e-06
-1.15428e-05
4.18055e-07
3.30818e-07
1.28875e-06
2.74815e-06
2.05179e-06
3.42658e-06
2.70669e-06
3.37747e-06
3.17829e-06
3.02369e-06
3.47103e-06
2.50345e-06
3.7215e-06
2.01949e-06
3.98766e-06
1.67462e-06
4.25569e-06
1.37588e-06
4.47098e-06
1.08503e-06
4.57855e-06
7.6408e-07
4.55146e-06
3.83401e-07
4.32994e-06
4.35372e-08
3.96317e-06
-4.44973e-07
3.42162e-06
-7.62209e-07
2.73316e-06
-1.28527e-06
1.87972e-06
-1.54738e-06
1.0958e-06
-2.32016e-06
7.02193e-07
-5.55556e-06
-1.08406e-05
-2.90158e-07
6.20976e-07
6.98351e-07
1.75964e-06
1.64036e-06
2.48457e-06
2.56366e-06
2.45417e-06
3.33341e-06
2.25394e-06
3.90931e-06
1.92756e-06
4.34166e-06
1.58713e-06
4.69549e-06
1.32079e-06
4.97315e-06
1.09822e-06
5.17131e-06
8.86865e-07
5.24572e-06
6.89669e-07
5.18385e-06
4.45275e-07
4.98591e-06
2.41475e-07
4.59035e-06
-4.94134e-08
4.03028e-06
-2.02141e-07
3.23629e-06
-4.91283e-07
2.3614e-06
-6.72485e-07
1.71399e-06
-1.67275e-06
1.24051e-06
-5.08207e-06
-9.60013e-06
-1.12518e-06
1.74616e-06
-3.5476e-07
9.89217e-07
9.27364e-07
1.20245e-06
2.13514e-06
1.24639e-06
3.16899e-06
1.2201e-06
3.99438e-06
1.10216e-06
4.61094e-06
9.70574e-07
5.10966e-06
8.22062e-07
5.47182e-06
7.36061e-07
5.74298e-06
6.15707e-07
5.88555e-06
5.47102e-07
5.89818e-06
4.32642e-07
5.74883e-06
3.90821e-07
5.43269e-06
2.66726e-07
5.00523e-06
2.25324e-07
4.45672e-06
5.72231e-08
3.96942e-06
-1.85182e-07
3.54577e-06
-1.2491e-06
2.4897e-06
-4.02599e-06
-7.11044e-06
1.74616e-06
2.73537e-06
3.93782e-06
5.18421e-06
6.40431e-06
7.50647e-06
8.47705e-06
9.29911e-06
1.00352e-05
1.06509e-05
1.1198e-05
1.16306e-05
1.20214e-05
1.22882e-05
1.25135e-05
1.25707e-05
1.23855e-05
1.11364e-05
7.11044e-06
)
;

boundaryField
{
    movingWall
    {
        type            calculated;
        value           uniform 0;
    }
    fixedWalls
    {
        type            calculated;
        value           uniform 0;
    }
    frontAndBack
    {
        type            empty;
    }
}


// ************************************************************************* //
