/*--------------------------------*- C++ -*----------------------------------*\
  =========                 |
  \\      /  F ield         | OpenFOAM: The Open Source CFD Toolbox
   \\    /   O peration     | Website:  https://openfoam.org
    \\  /    A nd           | Version:  12
     \\/     M anipulation  |
\*---------------------------------------------------------------------------*/
FoamFile
{
    format      ascii;
    class       volVectorField;
    location    "5";
    object      U;
}
// * * * * * * * * * * * * * * * * * * * * * * * * * * * * * * * * * * * * * //

dimensions      [0 1 -1 0 0 0 0];

internalField   nonuniform List<vector> 
400
(
(0.00229709 -0.00387803 0)
(0.00691019 -0.00226027 0)
(-0.000728696 0.00141283 0)
(-0.0106858 0.00922333 0)
(-0.0474896 0.017496 0)
(-0.0774385 0.0135182 0)
(-0.100622 0.012468 0)
(-0.119446 0.0103303 0)
(-0.132879 0.00879029 0)
(-0.144132 0.00723313 0)
(-0.151612 0.00579499 0)
(-0.157666 0.0044274 0)
(-0.160443 0.00294863 0)
(-0.160996 0.000898672 0)
(-0.155554 -0.00183027 0)
(-0.144365 -0.00598097 0)
(-0.123983 -0.0120737 0)
(-0.0944528 -0.0179026 0)
(-0.0570315 -0.0203841 0)
(-0.0173351 -0.00813852 0)
(-0.000360133 -0.00595747 0)
(-0.00854388 0.00477111 0)
(-0.0293238 0.0212086 0)
(-0.0623235 0.0403517 0)
(-0.0887112 0.0398654 0)
(-0.106881 0.0352353 0)
(-0.120997 0.0299862 0)
(-0.13379 0.0219229 0)
(-0.142252 0.0170662 0)
(-0.149429 0.0111228 0)
(-0.153121 0.00713876 0)
(-0.156004 0.00214341 0)
(-0.155518 -0.00186939 0)
(-0.154083 -0.00733722 0)
(-0.14858 -0.0135418 0)
(-0.139038 -0.023889 0)
(-0.122046 -0.0383419 0)
(-0.0975479 -0.0581696 0)
(-0.0659761 -0.0747764 0)
(-0.020386 -0.0601462 0)
(-0.00562869 0.00563408 0)
(-0.0250833 0.0300886 0)
(-0.0541975 0.0520684 0)
(-0.0783992 0.0614373 0)
(-0.0939024 0.056369 0)
(-0.103704 0.0485547 0)
(-0.112415 0.0372416 0)
(-0.115706 0.0298158 0)
(-0.114413 0.0217254 0)
(-0.113257 0.0155009 0)
(-0.110453 0.00952376 0)
(-0.109096 0.00406875 0)
(-0.107322 -0.00145476 0)
(-0.106766 -0.00746265 0)
(-0.103864 -0.0152706 0)
(-0.100084 -0.0272936 0)
(-0.0909601 -0.0471733 0)
(-0.0751514 -0.0770901 0)
(-0.0572661 -0.10825 0)
(-0.0193264 -0.110654 0)
(-0.00981778 0.0265399 0)
(-0.0347375 0.0553618 0)
(-0.0604679 0.073286 0)
(-0.0753307 0.0756404 0)
(-0.0837572 0.0661479 0)
(-0.0849611 0.0535789 0)
(-0.080469 0.0399292 0)
(-0.0738709 0.0286031 0)
(-0.0724974 0.0193825 0)
(-0.0715633 0.0128302 0)
(-0.0717129 0.0070416 0)
(-0.0711193 0.00196839 0)
(-0.0702547 -0.00333393 0)
(-0.0680947 -0.00929768 0)
(-0.0657477 -0.0168627 0)
(-0.0623328 -0.0282228 0)
(-0.0604795 -0.0473197 0)
(-0.0492467 -0.0834503 0)
(-0.0424117 -0.126961 0)
(-0.0151322 -0.141174 0)
(-0.00936574 0.0468121 0)
(-0.0349269 0.0767068 0)
(-0.051434 0.0877787 0)
(-0.06102 0.0848078 0)
(-0.0612474 0.0689313 0)
(-0.0551402 0.0516712 0)
(-0.0505882 0.0353518 0)
(-0.0504384 0.0266566 0)
(-0.0530853 0.0194932 0)
(-0.0556966 0.0143034 0)
(-0.0584194 0.00833394 0)
(-0.0586945 0.00196514 0)
(-0.0578599 -0.00528406 0)
(-0.0537636 -0.0132572 0)
(-0.0491272 -0.022083 0)
(-0.0431666 -0.0331254 0)
(-0.040537 -0.0496348 0)
(-0.0304003 -0.082955 0)
(-0.0357436 -0.139693 0)
(-0.0052585 -0.168726 0)
(-0.00799708 0.0667573 0)
(-0.0282804 0.0934367 0)
(-0.0382403 0.0981708 0)
(-0.0449927 0.088798 0)
(-0.0403009 0.067494 0)
(-0.0347566 0.0465088 0)
(-0.035466 0.034529 0)
(-0.0400571 0.0288356 0)
(-0.0461222 0.0236019 0)
(-0.0515484 0.0180939 0)
(-0.0553352 0.0104893 0)
(-0.0559749 0.00181171 0)
(-0.0544272 -0.00806828 0)
(-0.0496186 -0.0186019 0)
(-0.0431656 -0.0293313 0)
(-0.035045 -0.0414867 0)
(-0.0315626 -0.057385 0)
(-0.0165048 -0.0861359 0)
(-0.0273479 -0.1432 0)
(-0.00282803 -0.185646 0)
(-0.00611805 0.0821793 0)
(-0.0193136 0.104201 0)
(-0.025282 0.105169 0)
(-0.0298233 0.0908758 0)
(-0.0240602 0.0641981 0)
(-0.023148 0.0458379 0)
(-0.0286701 0.0376894 0)
(-0.035956 0.0344895 0)
(-0.0436683 0.02973 0)
(-0.050068 0.0229963 0)
(-0.0542585 0.0131977 0)
(-0.0553977 0.00121781 0)
(-0.0533354 -0.0119191 0)
(-0.048411 -0.0251798 0)
(-0.0413035 -0.037872 0)
(-0.0311679 -0.0507462 0)
(-0.0284115 -0.0658491 0)
(-0.00952664 -0.0916753 0)
(-0.0245195 -0.148186 0)
(0.00227462 -0.202272 0)
(-0.00279267 0.0916706 0)
(-0.0111106 0.112878 0)
(-0.0156131 0.110338 0)
(-0.0185823 0.0907757 0)
(-0.0140772 0.0629264 0)
(-0.0171456 0.0485058 0)
(-0.0241123 0.0437705 0)
(-0.0317631 0.0415591 0)
(-0.0397815 0.0364157 0)
(-0.0460059 0.0281781 0)
(-0.0496914 0.0158851 0)
(-0.0503313 0.00102671 0)
(-0.0486768 -0.0156688 0)
(-0.0440492 -0.0322012 0)
(-0.0381773 -0.0473879 0)
(-0.0268066 -0.0615554 0)
(-0.0262521 -0.0764185 0)
(-0.00434426 -0.0975919 0)
(-0.0209477 -0.149152 0)
(0.00347541 -0.212781 0)
(-0.000543161 0.0969518 0)
(-0.00467532 0.116653 0)
(-0.0063557 0.112149 0)
(-0.00826752 0.0911912 0)
(-0.00595492 0.0636632 0)
(-0.0109821 0.0522111 0)
(-0.0176316 0.0502396 0)
(-0.0252071 0.0484026 0)
(-0.0325019 0.0429109 0)
(-0.0375188 0.0327273 0)
(-0.0399878 0.0181755 0)
(-0.0396888 0.000900465 0)
(-0.0387759 -0.0179075 0)
(-0.0350287 -0.0369828 0)
(-0.0321429 -0.0547019 0)
(-0.0207115 -0.069724 0)
(-0.0235939 -0.0840541 0)
(-0.000446165 -0.103228 0)
(-0.0197743 -0.151115 0)
(0.00656996 -0.224103 0)
(0.00221299 0.0969909 0)
(0.0011534 0.120009 0)
(0.000761628 0.114593 0)
(-0.000541412 0.0917159 0)
(0.000117023 0.0662147 0)
(-0.0050088 0.0573504 0)
(-0.0100458 0.0569144 0)
(-0.0157435 0.0550642 0)
(-0.0206977 0.0482358 0)
(-0.0236152 0.0361303 0)
(-0.0248288 0.0197313 0)
(-0.0244627 0.000772806 0)
(-0.0240372 -0.019244 0)
(-0.0210528 -0.039666 0)
(-0.0218796 -0.0595207 0)
(-0.0117963 -0.0764934 0)
(-0.0186539 -0.0913586 0)
(0.00377883 -0.107094 0)
(-0.0179281 -0.15103 0)
(0.00760305 -0.230935 0)
(0.0045992 0.0937475 0)
(0.00595726 0.118088 0)
(0.00827566 0.113375 0)
(0.00768502 0.0921739 0)
(0.00757128 0.0679612 0)
(0.00304952 0.0603782 0)
(0.00027498 0.0607754 0)
(-0.00291215 0.0583004 0)
(-0.00530277 0.0509071 0)
(-0.00657292 0.0379304 0)
(-0.00718098 0.0207583 0)
(-0.00693628 0.000899037 0)
(-0.007868 -0.0196748 0)
(-0.00524316 -0.0397816 0)
(-0.00914308 -0.0596685 0)
(-0.000664534 -0.0770345 0)
(-0.0130775 -0.09455 0)
(0.00922419 -0.107919 0)
(-0.0171982 -0.150289 0)
(0.0101826 -0.237866 0)
(0.00538486 0.0874478 0)
(0.0109745 0.116226 0)
(0.0144124 0.113393 0)
(0.0151829 0.0947682 0)
(0.0152927 0.0716723 0)
(0.0121647 0.0635334 0)
(0.0117665 0.0632347 0)
(0.0115833 0.0608694 0)
(0.0116175 0.0529781 0)
(0.0118562 0.039155 0)
(0.0117375 0.021674 0)
(0.0122311 0.00182646 0)
(0.0101642 -0.0191726 0)
(0.0113103 -0.0394836 0)
(0.00577524 -0.0592204 0)
(0.0109922 -0.0751823 0)
(-0.00438022 -0.0951327 0)
(0.0137198 -0.105587 0)
(-0.0167434 -0.147394 0)
(0.0123648 -0.240883 0)
(0.00911512 0.0768135 0)
(0.0157578 0.109227 0)
(0.0219179 0.10875 0)
(0.0234528 0.0952117 0)
(0.0239153 0.0718394 0)
(0.0222002 0.0627929 0)
(0.0237916 0.0616158 0)
(0.0263698 0.0589192 0)
(0.0286206 0.0518675 0)
(0.030755 0.038622 0)
(0.0314728 0.0218736 0)
(0.0322559 0.0029969 0)
(0.029472 -0.016972 0)
(0.0292602 -0.0366961 0)
(0.0211886 -0.0549449 0)
(0.0222762 -0.0714999 0)
(0.00567723 -0.0891878 0)
(0.0182816 -0.100027 0)
(-0.0162452 -0.141846 0)
(0.016108 -0.243051 0)
(0.00916807 0.0620104 0)
(0.0202557 0.102762 0)
(0.0284441 0.104906 0)
(0.0313373 0.0965383 0)
(0.0331794 0.0747333 0)
(0.0323908 0.0624905 0)
(0.0352588 0.059185 0)
(0.0400089 0.0563995 0)
(0.0445987 0.0497805 0)
(0.0488599 0.0381228 0)
(0.0501145 0.0225549 0)
(0.0516559 0.00502736 0)
(0.0479223 -0.0137702 0)
(0.0471407 -0.0323823 0)
(0.0363204 -0.0485703 0)
(0.0347157 -0.0646428 0)
(0.0145015 -0.0818677 0)
(0.0233523 -0.0926365 0)
(-0.0148129 -0.136483 0)
(0.020037 -0.241942 0)
(0.0138977 0.0463574 0)
(0.0232439 0.0909267 0)
(0.0345469 0.0970156 0)
(0.0383506 0.0916225 0)
(0.0423718 0.0747941 0)
(0.0433431 0.059148 0)
(0.0462513 0.0525161 0)
(0.0519664 0.049177 0)
(0.0579937 0.0438483 0)
(0.0644128 0.0343934 0)
(0.0666073 0.021542 0)
(0.0689009 0.0063163 0)
(0.0650168 -0.00986488 0)
(0.0628339 -0.0262537 0)
(0.0503234 -0.0401679 0)
(0.0456351 -0.055584 0)
(0.0239342 -0.0688203 0)
(0.0289363 -0.0818155 0)
(-0.0133511 -0.130483 0)
(0.0256579 -0.241551 0)
(0.0114332 0.018387 0)
(0.0258011 0.0790169 0)
(0.0377162 0.0898343 0)
(0.0447727 0.0868472 0)
(0.0505377 0.0749147 0)
(0.0542686 0.0589548 0)
(0.0573036 0.0480563 0)
(0.0626257 0.0420458 0)
(0.0678896 0.0365937 0)
(0.0752919 0.0292685 0)
(0.077793 0.0194334 0)
(0.0811112 0.00758852 0)
(0.0770163 -0.004911 0)
(0.0747681 -0.0190117 0)
(0.0617932 -0.0299242 0)
(0.055562 -0.0446528 0)
(0.0334502 -0.0548622 0)
(0.033181 -0.0698669 0)
(-0.0102528 -0.123533 0)
(0.0324299 -0.239297 0)
(-0.00137791 0.00910009 0)
(0.0192335 0.0609523 0)
(0.0355766 0.075637 0)
(0.0472888 0.0749287 0)
(0.0578183 0.0668281 0)
(0.0660636 0.0547987 0)
(0.0709577 0.0438059 0)
(0.0769485 0.035774 0)
(0.0806687 0.0290545 0)
(0.0872814 0.0224907 0)
(0.0892375 0.0148972 0)
(0.092654 0.00610887 0)
(0.0888736 -0.00268362 0)
(0.0865712 -0.0132707 0)
(0.0742678 -0.0212572 0)
(0.0662158 -0.0324902 0)
(0.043982 -0.0397012 0)
(0.0373566 -0.0548367 0)
(-0.00370147 -0.119695 0)
(0.0419069 -0.238168 0)
(-0.0166696 0.00420136 0)
(0.00653795 0.0507922 0)
(0.0244606 0.0643093 0)
(0.0419206 0.0637685 0)
(0.0575239 0.0576796 0)
(0.0722362 0.0485237 0)
(0.0815437 0.0397981 0)
(0.0906467 0.0335936 0)
(0.0952744 0.0278727 0)
(0.10155 0.0224313 0)
(0.103134 0.016977 0)
(0.105672 0.0102918 0)
(0.101971 0.00482092 0)
(0.0986908 -0.00322849 0)
(0.0871769 -0.00755787 0)
(0.0774652 -0.0168075 0)
(0.0537304 -0.0200336 0)
(0.044937 -0.0410093 0)
(0.0104419 -0.117572 0)
(0.0552731 -0.228563 0)
(-0.0233207 0.0253046 0)
(-0.0184282 0.0201445 0)
(0.00657787 0.03338 0)
(0.0307591 0.0349938 0)
(0.0520272 0.0332099 0)
(0.0717987 0.0296823 0)
(0.0851868 0.0246964 0)
(0.0976467 0.0202804 0)
(0.105104 0.0167581 0)
(0.112395 0.013527 0)
(0.115671 0.0105211 0)
(0.118481 0.00713713 0)
(0.116997 0.00449839 0)
(0.11379 0.00121765 0)
(0.105106 -0.000921832 0)
(0.096951 -0.00433013 0)
(0.0769043 -0.0104491 0)
(0.0723508 -0.0354485 0)
(0.0511112 -0.107079 0)
(0.079718 -0.180813 0)
(0.0382169 0.0354344 0)
(0.0429404 0.0229738 0)
(0.0619617 0.0190562 0)
(0.0911765 0.0181512 0)
(0.113797 0.0185354 0)
(0.13872 0.0171002 0)
(0.158016 0.0165696 0)
(0.178083 0.0145001 0)
(0.192471 0.0142113 0)
(0.207442 0.0122345 0)
(0.217638 0.0121932 0)
(0.228795 0.0101697 0)
(0.235814 0.0103973 0)
(0.243143 0.00850188 0)
(0.247326 0.00915274 0)
(0.250113 0.00707078 0)
(0.247227 0.00555008 0)
(0.235724 -0.00140409 0)
(0.198408 -0.0142642 0)
(0.149206 -0.0343164 0)
)
;

boundaryField
{
    movingWall
    {
        type            fixedValue;
        value           uniform (1 0 0);
    }
    fixedWalls
    {
        type            noSlip;
    }
    frontAndBack
    {
        type            empty;
    }
}


// ************************************************************************* //
