/*--------------------------------*- C++ -*----------------------------------*\
  =========                 |
  \\      /  F ield         | OpenFOAM: The Open Source CFD Toolbox
   \\    /   O peration     | Website:  https://openfoam.org
    \\  /    A nd           | Version:  12
     \\/     M anipulation  |
\*---------------------------------------------------------------------------*/
FoamFile
{
    format      ascii;
    class       volScalarField;
    location    "4.38";
    object      p_rgh;
}
// * * * * * * * * * * * * * * * * * * * * * * * * * * * * * * * * * * * * * //

dimensions      [1 -1 -2 0 0 0 0];

internalField   nonuniform List<scalar> 
3829
(
-0.116449
-0.116399
-0.1163
-0.116151
-0.115959
-0.115728
-0.115467
-0.115187
-0.114902
-0.114625
-0.114374
-0.114167
-0.114023
-0.113963
-0.114007
-0.114176
-0.11449
-0.114969
-0.11563
-0.116488
-0.117556
-0.118843
-0.120354
-0.122092
-0.124052
-0.126227
-0.128603
-0.13116
-0.133875
-0.136714
-0.139643
-0.142618
-0.145591
-0.148511
-0.151318
-0.153953
-0.156351
-0.158446
-0.160172
-0.161473
-0.162218
-0.162387
-0.161947
-0.160858
-0.159086
-0.1566
-0.153373
-0.14939
-0.144641
-0.139128
-0.132868
-0.125886
-0.118225
-0.109936
-0.101087
-0.0917552
-0.0820333
-0.072023
-0.0618367
-0.0515958
-0.0414284
-0.0314712
-0.0218634
-0.012748
-0.00426587
0.00344277
0.0102447
0.0160129
0.0206274
0.0239822
0.0259873
0.0265652
0.0256606
0.0232421
0.0192996
0.013842
0.00691614
-0.00143114
-0.0110913
-0.0218412
-0.0335392
-0.0460191
-0.0590864
-0.0725264
-0.0861095
-0.0995935
-0.112723
-0.125239
-0.136891
-0.147433
-0.15664
-0.164309
-0.170268
-0.174389
-0.176267
-0.175992
-0.173611
-0.169196
-0.16284
-0.154668
-0.144856
-0.133628
-0.121253
-0.108039
-0.0943228
-0.0804595
-0.0668254
-0.0537854
-0.0416995
-0.0309075
-0.0217142
-0.0143848
-0.00912945
-0.00609923
-0.00536882
-0.0072271
-0.0114033
-0.017797
-0.0262555
-0.0365622
-0.0484442
-0.0615809
-0.0756179
-0.0901815
-0.104883
-0.119333
-0.133159
-0.14601
-0.157567
-0.167555
-0.175744
-0.181965
-0.186106
-0.188111
-0.187971
-0.18576
-0.181589
-0.17562
-0.168061
-0.15915
-0.14916
-0.138375
-0.127096
-0.115619
-0.104248
-0.0932584
-0.0829142
-0.0734523
-0.0650785
-0.0579646
-0.052245
-0.0480148
-0.0453304
-0.0442087
-0.0446258
-0.0465267
-0.0498219
-0.054393
-0.0600963
-0.0667666
-0.0742218
-0.0822698
-0.0907118
-0.0993445
-0.107969
-0.116393
-0.124437
-0.131918
-0.138704
-0.144656
-0.149661
-0.153628
-0.15649
-0.158204
-0.158748
-0.158125
-0.156372
-0.153523
-0.149642
-0.144811
-0.139122
-0.132683
-0.125607
-0.118017
-0.110036
-0.101791
-0.093409
-0.0850166
-0.0767466
-0.0686877
-0.060958
-0.0536603
-0.0468911
-0.0407386
-0.0352753
-0.0305803
-0.0267183
-0.0237481
-0.0217225
-0.0206887
-0.118336
-0.118157
-0.117798
-0.11726
-0.11655
-0.11568
-0.114667
-0.113535
-0.112311
-0.111029
-0.109727
-0.108447
-0.107233
-0.106134
-0.105199
-0.104476
-0.104014
-0.103856
-0.104043
-0.104612
-0.10559
-0.107001
-0.108858
-0.11117
-0.113935
-0.117142
-0.12077
-0.124785
-0.129145
-0.133797
-0.138677
-0.143714
-0.148829
-0.153935
-0.158939
-0.163742
-0.168238
-0.172317
-0.175869
-0.178796
-0.18104
-0.182506
-0.183114
-0.182793
-0.181486
-0.179148
-0.175746
-0.171262
-0.165692
-0.159048
-0.151359
-0.14267
-0.133044
-0.122559
-0.111312
-0.0994125
-0.0869881
-0.0741782
-0.0611348
-0.0480188
-0.0350003
-0.0222587
-0.00997567
0.00166585
0.0124843
0.0223027
0.0309508
0.038266
0.0441011
0.0483304
0.0508486
0.0515683
0.0503845
0.0473706
0.0424922
0.0357806
0.027222
0.0170559
0.00363479
-0.00958135
-0.0239871
-0.0393917
-0.0555136
-0.0720757
-0.0887821
-0.105323
-0.121376
-0.136618
-0.150741
-0.163445
-0.174455
-0.18352
-0.190427
-0.195014
-0.196871
-0.196154
-0.192903
-0.187182
-0.179099
-0.168821
-0.156586
-0.142689
-0.127471
-0.111319
-0.0946475
-0.0778984
-0.0615203
-0.0459558
-0.031632
-0.0189487
-0.00825821
0.000135793
0.00599216
0.00913776
0.00947164
0.00708126
0.00194926
-0.00578411
-0.0158864
-0.0280676
-0.0419833
-0.0572406
-0.0734156
-0.0900672
-0.106745
-0.123009
-0.138441
-0.152653
-0.1653
-0.176092
-0.184796
-0.191244
-0.195337
-0.197033
-0.196381
-0.193457
-0.188413
-0.181451
-0.172813
-0.162778
-0.151651
-0.139751
-0.127406
-0.114941
-0.102675
-0.090903
-0.0798988
-0.0699079
-0.0611384
-0.0537605
-0.047905
-0.0436587
-0.0410687
-0.0401397
-0.0408345
-0.0430835
-0.0467823
-0.0517989
-0.0579742
-0.0651293
-0.0730709
-0.0815947
-0.0904914
-0.0995486
-0.10856
-0.117328
-0.125667
-0.133399
-0.140384
-0.146486
-0.151591
-0.155611
-0.158481
-0.160162
-0.160638
-0.159917
-0.15803
-0.155028
-0.150978
-0.145965
-0.140088
-0.133458
-0.126192
-0.118416
-0.110258
-0.101845
-0.093309
-0.0847795
-0.0763792
-0.0682064
-0.0603773
-0.0529945
-0.0461528
-0.0399387
-0.0344303
-0.029699
-0.0258093
-0.0228194
-0.0207811
-0.0197412
-0.135434
-0.134847
-0.133665
-0.131893
-0.129551
-0.126674
-0.123311
-0.119529
-0.115406
-0.111033
-0.10651
-0.101943
-0.0974488
-0.0931452
-0.0891454
-0.0855721
-0.0825448
-0.0801779
-0.0785758
-0.0778324
-0.0780283
-0.0792269
-0.0814719
-0.084783
-0.0891577
-0.0945705
-0.100972
-0.108288
-0.116423
-0.125261
-0.134663
-0.144476
-0.154531
-0.164648
-0.174641
-0.184322
-0.193512
-0.202045
-0.209792
-0.216054
-0.221113
-0.224875
-0.227241
-0.228118
-0.22742
-0.225084
-0.221063
-0.215339
-0.207914
-0.198821
-0.188116
-0.175885
-0.162235
-0.147298
-0.13123
-0.114207
-0.0964262
-0.078103
-0.0594661
-0.0407544
-0.0222198
-0.00412347
0.0132754
0.0297141
0.0449347
0.0586958
0.0707661
0.0808974
0.0888982
0.0946359
0.0979614
0.0987582
0.0969504
0.0925056
0.0854297
0.0757544
0.0636999
0.0492784
0.0326709
0.0142505
-0.00573311
-0.0271364
-0.0492506
-0.0718268
-0.0944778
-0.11679
-0.138327
-0.158652
-0.177344
-0.194003
-0.208262
-0.219811
-0.228388
-0.233744
-0.23545
-0.233766
-0.228716
-0.220377
-0.208909
-0.194576
-0.17773
-0.158787
-0.138231
-0.116593
-0.0944395
-0.0723627
-0.0509565
-0.0307988
-0.0124388
0.00362214
0.0169438
0.0271648
0.0340191
0.0373308
0.0370163
0.0332615
0.0260688
0.0156773
0.00242824
-0.0132697
-0.030947
-0.050082
-0.0701283
-0.0905282
-0.110709
-0.130165
-0.148388
-0.164932
-0.179414
-0.19152
-0.201016
-0.207747
-0.211642
-0.212722
-0.211057
-0.206796
-0.200152
-0.191394
-0.18083
-0.168804
-0.155681
-0.141839
-0.127651
-0.113487
-0.0996966
-0.0866022
-0.0744944
-0.0636285
-0.0542156
-0.0464229
-0.040371
-0.0361333
-0.0337383
-0.0331695
-0.0343661
-0.0372329
-0.04164
-0.0474316
-0.0544236
-0.0624138
-0.0711877
-0.0805226
-0.0901917
-0.0999683
-0.109633
-0.11898
-0.127804
-0.135955
-0.143272
-0.149619
-0.154886
-0.158986
-0.161862
-0.163479
-0.16383
-0.162932
-0.160821
-0.157557
-0.153218
-0.147896
-0.1417
-0.134746
-0.12716
-0.119072
-0.110614
-0.10192
-0.0931232
-0.0843694
-0.0757509
-0.067388
-0.0593941
-0.0518702
-0.0449099
-0.038598
-0.0330119
-0.0282203
-0.0242854
-0.0212634
-0.0192046
-0.0181548
-0.170259
-0.168797
-0.165849
-0.161424
-0.155564
-0.148344
-0.139891
-0.130351
-0.1199
-0.108743
-0.0971153
-0.0852834
-0.0735314
-0.0625017
-0.0517563
-0.041981
-0.0334611
-0.0264572
-0.0212063
-0.0179102
-0.0167274
-0.0177741
-0.0211159
-0.0267663
-0.0346871
-0.0447873
-0.0569225
-0.0709038
-0.0864983
-0.103432
-0.121396
-0.140059
-0.159075
-0.178092
-0.196772
-0.214754
-0.231679
-0.24722
-0.261061
-0.273443
-0.283785
-0.29184
-0.297425
-0.300405
-0.300689
-0.298219
-0.292978
-0.284985
-0.274299
-0.261017
-0.245265
-0.227207
-0.207037
-0.184981
-0.161295
-0.136257
-0.110175
-0.0833767
-0.0562053
-0.0290194
-0.00218358
0.0239213
0.048916
0.0724437
0.0940396
0.113509
0.130495
0.144684
0.155802
0.163623
0.167969
0.168701
0.165738
0.15905
0.148664
0.134696
0.117323
0.0967631
0.0733198
0.047366
0.0193211
-0.0103543
-0.0414862
-0.0727854
-0.104069
-0.134739
-0.164178
-0.191781
-0.216975
-0.23922
-0.258027
-0.27296
-0.283637
-0.289878
-0.291225
-0.287941
-0.280041
-0.267661
-0.251076
-0.230692
-0.207028
-0.180691
-0.152365
-0.122798
-0.0927767
-0.0631134
-0.034609
-0.00803221
0.0158947
0.03654
0.0533585
0.0659186
0.0739189
0.0771948
0.0757073
0.0696829
0.0592899
0.0449172
0.0270598
0.00629592
-0.0167275
-0.0413094
-0.0667286
-0.0922703
-0.117224
-0.140949
-0.162852
-0.182417
-0.199214
-0.212912
-0.223277
-0.230184
-0.233616
-0.233697
-0.230531
-0.224348
-0.215454
-0.204209
-0.191014
-0.1763
-0.160511
-0.144094
-0.127489
-0.111118
-0.095366
-0.0805854
-0.067089
-0.0551408
-0.0449523
-0.036683
-0.0304383
-0.0262716
-0.0241845
-0.0241314
-0.02602
-0.0297224
-0.0350764
-0.0418928
-0.049956
-0.0590347
-0.0688883
-0.0792689
-0.0899302
-0.100626
-0.111123
-0.121205
-0.130617
-0.139301
-0.147032
-0.15368
-0.159138
-0.163328
-0.166198
-0.167721
-0.167902
-0.166766
-0.164361
-0.160758
-0.156045
-0.150326
-0.14372
-0.136353
-0.128358
-0.119874
-0.111039
-0.101989
-0.0928527
-0.0838383
-0.0749377
-0.0663362
-0.058137
-0.0504387
-0.043332
-0.0369004
-0.0312188
-0.0263533
-0.0223636
-0.0193029
-0.0172197
-0.016158
-0.27573
-0.272177
-0.264999
-0.254158
-0.239637
-0.221333
-0.200699
-0.177809
-0.15302
-0.126852
-0.0998619
-0.0726233
-0.0457157
-0.0197371
0.00471645
0.0270431
0.0466492
0.0630742
0.0758155
0.0844744
0.0887439
0.088417
0.083392
0.0736789
0.0594048
0.0408174
0.0182668
-0.00778651
-0.0367953
-0.0681482
-0.10118
-0.135209
-0.169544
-0.203501
-0.236425
-0.267738
-0.296983
-0.323867
-0.347118
-0.366996
-0.38331
-0.395858
-0.404452
-0.408948
-0.409252
-0.405333
-0.397215
-0.384983
-0.368774
-0.348777
-0.325225
-0.2984
-0.268619
-0.236235
-0.201645
-0.165274
-0.127578
-0.0890385
-0.0501469
-0.0114127
0.0266479
0.063518
0.09845
0.131324
0.161481
0.188444
0.211775
0.231081
0.246009
0.256269
0.261634
0.261952
0.257162
0.247278
0.232051
0.212008
0.187341
0.158383
0.125564
0.0894052
0.0504916
0.00948125
-0.0329123
-0.0758442
-0.118533
-0.160169
-0.199914
-0.236949
-0.270499
-0.299839
-0.324314
-0.34333
-0.356445
-0.363339
-0.363996
-0.358315
-0.346345
-0.328346
-0.304773
-0.276227
-0.243457
-0.207321
-0.168778
-0.128868
-0.0886657
-0.0492662
-0.0117389
0.0228972
0.0537186
0.0799116
0.100819
0.115942
0.124957
0.127734
0.124366
0.115073
0.100281
0.0805646
0.0566367
0.0293029
-0.000555199
-0.0320106
-0.0641275
-0.0959957
-0.126735
-0.155567
-0.181797
-0.204832
-0.224207
-0.239579
-0.250733
-0.257578
-0.260082
-0.258835
-0.253663
-0.244987
-0.233245
-0.218911
-0.202495
-0.18453
-0.165552
-0.146093
-0.126659
-0.107728
-0.089727
-0.0730369
-0.05799
-0.0448582
-0.0338484
-0.0251081
-0.018722
-0.014715
-0.0130556
-0.0136614
-0.0164063
-0.0211225
-0.0276089
-0.0356377
-0.0449572
-0.0553041
-0.066407
-0.0779916
-0.0897887
-0.101534
-0.112969
-0.123835
-0.133977
-0.143232
-0.151413
-0.158384
-0.164043
-0.168317
-0.171162
-0.172564
-0.172535
-0.171118
-0.168368
-0.164369
-0.159224
-0.153049
-0.145973
-0.138135
-0.129677
-0.120745
-0.111484
-0.102038
-0.09255
-0.0831784
-0.0739897
-0.0651282
-0.0567031
-0.0488125
-0.0415458
-0.0349832
-0.0291981
-0.0242529
-0.0202044
-0.0171029
-0.014994
-0.0139198
-0.432686
-0.426128
-0.412971
-0.393361
-0.367656
-0.33654
-0.299068
-0.255741
-0.205492
-0.151804
-0.0958652
-0.0390114
0.0173288
0.07169
0.122622
0.168746
0.208816
0.241778
0.266822
0.283372
0.290966
0.289333
0.278453
0.258552
0.230108
0.193837
0.15066
0.101694
0.0481372
-0.00864767
-0.0672867
-0.126456
-0.184952
-0.241685
-0.295617
-0.345951
-0.391923
-0.432575
-0.468566
-0.499016
-0.523456
-0.541627
-0.553399
-0.558743
-0.557708
-0.550414
-0.537048
-0.517852
-0.493119
-0.463193
-0.428466
-0.389376
-0.34641
-0.300101
-0.251016
-0.199754
-0.146956
-0.0932813
-0.0394223
0.0139111
0.0660181
0.116275
0.163954
0.208377
0.248892
0.284884
0.315787
0.341091
0.360345
0.373186
0.379335
0.378596
0.370866
0.356139
0.334915
0.307087
0.273078
0.233394
0.188659
0.139602
0.0870401
0.0318854
-0.0248685
-0.0821628
-0.138919
-0.194028
-0.246372
-0.294861
-0.338477
-0.376276
-0.407409
-0.431149
-0.446908
-0.454249
-0.453583
-0.444433
-0.426962
-0.401619
-0.36907
-0.330164
-0.285942
-0.237585
-0.186403
-0.133794
-0.0811892
-0.0300393
0.0182546
0.0623979
0.101215
0.133708
0.159086
0.176777
0.186477
0.18812
0.181901
0.168233
0.147762
0.121316
0.0898802
0.0545443
0.0164729
-0.0231329
-0.0630894
-0.102234
-0.13956
-0.174113
-0.20509
-0.231837
-0.253858
-0.270829
-0.28259
-0.289169
-0.29079
-0.287296
-0.279488
-0.267758
-0.252632
-0.234697
-0.21458
-0.192924
-0.170368
-0.147529
-0.124999
-0.103284
-0.0828641
-0.0641505
-0.0474866
-0.0331498
-0.0213378
-0.0121776
-0.00572937
-0.00198442
-0.000876074
-0.0022691
-0.00600604
-0.0118765
-0.0196351
-0.0290121
-0.0397168
-0.0514513
-0.0639117
-0.0767977
-0.089817
-0.10269
-0.115144
-0.126789
-0.137699
-0.147564
-0.15621
-0.163507
-0.16936
-0.173704
-0.176504
-0.177758
-0.177489
-0.175757
-0.172625
-0.168194
-0.162579
-0.155911
-0.148331
-0.139988
-0.131035
-0.121627
-0.111916
-0.102051
-0.092188
-0.0824552
-0.072958
-0.0638251
-0.0551659
-0.0470771
-0.0396459
-0.0329498
-0.0270594
-0.022034
-0.0179267
-0.0147849
-0.0126509
-0.0115645
-0.796882
-0.78232
-0.752973
-0.708839
-0.650157
-0.577353
-0.491503
-0.394915
-0.292497
-0.184969
-0.0738183
0.0374539
0.145601
0.247698
0.341176
0.423866
0.493981
0.550091
0.591045
0.615956
0.624283
0.615795
0.590583
0.549131
0.492443
0.422155
0.340581
0.250589
0.154663
0.0554901
-0.0441533
-0.141779
-0.235345
-0.323321
-0.404845
-0.479721
-0.54509
-0.601875
-0.64998
-0.689223
-0.719431
-0.740527
-0.75254
-0.755603
-0.749937
-0.735839
-0.713669
-0.683849
-0.646855
-0.603209
-0.553493
-0.498342
-0.438429
-0.374466
-0.307225
-0.237495
-0.166124
-0.0939667
-0.0218993
0.048466
0.117598
0.183874
0.246419
0.304369
0.356918
0.403296
0.442793
0.474775
0.4987
0.514121
0.520717
0.518284
0.506761
0.486219
0.456899
0.419166
0.373541
0.320693
0.261457
0.196811
0.127838
0.0557426
-0.0181586
-0.0924896
-0.165834
-0.236762
-0.303833
-0.365652
-0.420901
-0.468369
-0.507
-0.535923
-0.55443
-0.561986
-0.559113
-0.545258
-0.520759
-0.486278
-0.442727
-0.391258
-0.333273
-0.270344
-0.204198
-0.136666
-0.0696082
-0.00488513
0.0557214
0.110591
0.158273
0.197565
0.227547
0.247606
0.257464
0.257165
0.24708
0.227854
0.200402
0.165865
0.125558
0.0809075
0.0334036
-0.0154418
-0.0641766
-0.111332
-0.155824
-0.196492
-0.232434
-0.262945
-0.287521
-0.305868
-0.31789
-0.323698
-0.323577
-0.317815
-0.307016
-0.291799
-0.27285
-0.250907
-0.226724
-0.201059
-0.174654
-0.148199
-0.122456
-0.0978255
-0.0749131
-0.054143
-0.0358704
-0.0203659
-0.00781189
0.00168622
0.00810299
0.0114793
0.0119203
0.00963896
0.0047979
-0.00233322
-0.0114622
-0.0222769
-0.0344477
-0.0476396
-0.0615168
-0.0757521
-0.0900313
-0.104067
-0.117643
-0.129915
-0.141674
-0.152154
-0.161257
-0.168868
-0.1749
-0.179295
-0.18203
-0.183113
-0.18258
-0.18051
-0.176975
-0.172089
-0.165984
-0.158802
-0.1507
-0.141838
-0.132378
-0.122484
-0.112314
-0.10202
-0.0917834
-0.081689
-0.0718793
-0.0624743
-0.0535819
-0.0452967
-0.0377031
-0.0308763
-0.0248833
-0.0197804
-0.0156173
-0.0124375
-0.01028
-0.00918244
-1.42343
-1.39809
-1.34712
-1.27068
-1.16946
-1.0446
-0.897775
-0.730592
-0.550466
-0.349971
-0.149596
0.0468523
0.235563
0.412908
0.575464
0.720071
0.84378
0.943887
1.018
1.06419
1.08104
1.06797
1.02514
0.9536
0.855372
0.733577
0.59252
0.440056
0.279279
0.118211
-0.0390826
-0.189031
-0.328436
-0.455462
-0.569773
-0.669636
-0.757252
-0.83136
-0.891704
-0.938475
-0.972053
-0.992892
-1.00148
-0.998331
-0.983975
-0.958976
-0.923922
-0.879446
-0.826228
-0.764997
-0.69652
-0.621613
-0.541149
-0.456049
-0.367287
-0.275863
-0.182842
-0.0893027
0.00327914
0.0943856
0.182678
0.267001
0.346243
0.419331
0.485253
0.543068
0.591913
0.631021
0.659736
0.67754
0.684065
0.679087
0.662573
0.634696
0.595738
0.546226
0.486874
0.418567
0.342396
0.259625
0.171654
0.0800343
-0.0135585
-0.107375
-0.199615
-0.288473
-0.372142
-0.448886
-0.517079
-0.575227
-0.62201
-0.656383
-0.677554
-0.68502
-0.678934
-0.659116
-0.626081
-0.580708
-0.524201
-0.458073
-0.384151
-0.304463
-0.221226
-0.136765
-0.0534401
0.0264281
0.100638
0.167191
0.224349
0.270704
0.305221
0.327255
0.336606
0.333482
0.31847
0.292496
0.256805
0.212909
0.162504
0.107393
0.0494367
-0.00950807
-0.0676905
-0.123444
-0.175446
-0.222418
-0.263368
-0.297546
-0.324466
-0.343886
-0.355786
-0.360395
-0.35823
-0.349691
-0.335483
-0.316394
-0.293277
-0.26702
-0.238514
-0.208637
-0.178231
-0.148076
-0.118992
-0.0914427
-0.066047
-0.0432588
-0.0234368
-0.00683937
0.00636826
0.0161107
0.0223976
0.0253156
0.0250168
0.0217314
0.0157015
0.00723795
-0.00332227
-0.0156252
-0.0293018
-0.0439804
-0.0592942
-0.0748879
-0.0904252
-0.10559
-0.120079
-0.133443
-0.145837
-0.156885
-0.166419
-0.174322
-0.180511
-0.184937
-0.187588
-0.188484
-0.187668
-0.185249
-0.181298
-0.175947
-0.169343
-0.161644
-0.153017
-0.143635
-0.133669
-0.123292
-0.112668
-0.101957
-0.0913397
-0.0808975
-0.0707823
-0.0611126
-0.0519942
-0.0435194
-0.0357701
-0.0288186
-0.0227283
-0.0175528
-0.0133382
-0.0101238
-0.00794534
-0.00683782
-2.39453
-2.34736
-2.2517
-2.10625
-1.91032
-1.66449
-1.37216
-1.03772
-0.680502
-0.318283
0.0453227
0.396707
0.726246
1.02667
1.29239
1.51926
1.7042
1.84494
1.93972
1.98707
1.98574
1.9349
1.83422
1.68406
1.48631
1.24519
0.967825
0.672475
0.383698
0.116284
-0.126599
-0.34824
-0.53889
-0.702755
-0.842236
-0.960871
-1.0606
-1.14204
-1.20565
-1.2521
-1.28213
-1.29656
-1.29616
-1.28171
-1.25397
-1.21368
-1.16164
-1.09863
-1.02551
-0.943165
-0.852541
-0.754635
-0.650511
-0.541288
-0.428147
-0.31231
-0.195072
-0.0777874
0.0382038
0.15161
0.261056
0.365163
0.46261
0.552098
0.632412
0.702427
0.761116
0.807566
0.841016
0.860866
0.866712
0.858324
0.835711
0.799099
0.748911
0.685841
0.610808
0.524947
0.42964
0.326488
0.217242
0.103832
-0.0116564
-0.127062
-0.240172
-0.348762
-0.450606
-0.543575
-0.625725
-0.695264
-0.750646
-0.790591
-0.81418
-0.820924
-0.810772
-0.783855
-0.740883
-0.682997
-0.611749
-0.52907
-0.437266
-0.338891
-0.236714
-0.13362
-0.0325083
0.0637751
0.152575
0.2315
0.298504
0.351975
0.390772
0.414255
0.42233
0.415485
0.39451
0.360665
0.315592
0.261224
0.199677
0.133173
0.0639644
-0.00572963
-0.0737892
-0.138449
-0.19813
-0.251428
-0.29728
-0.334921
-0.363897
-0.384045
-0.39543
-0.398366
-0.393872
-0.382182
-0.364216
-0.340949
-0.313413
-0.282643
-0.249663
-0.215468
-0.181003
-0.147137
-0.114712
-0.084286
-0.0564756
-0.0317501
-0.0104699
0.00712035
0.0208803
0.0307671
0.0368327
0.0392062
0.0381007
0.0337402
0.026468
0.016632
0.00461257
-0.0091955
-0.0243834
-0.0405451
-0.0572837
-0.0742178
-0.09099
-0.107262
-0.122699
-0.136987
-0.150055
-0.161645
-0.171583
-0.179752
-0.186075
-0.190513
-0.193064
-0.193762
-0.192677
-0.18988
-0.185507
-0.179693
-0.172594
-0.164382
-0.155238
-0.145345
-0.134886
-0.124038
-0.112973
-0.101864
-0.0908708
-0.0800976
-0.0696904
-0.059768
-0.0504348
-0.0417808
-0.0338849
-0.0268166
-0.0206361
-0.0153942
-0.0111331
-0.00788814
-0.00569127
-0.00457509
-3.88333
-3.81765
-3.68354
-3.47612
-3.19012
-2.81617
-2.36095
-1.76309
-1.13972
-0.442186
0.128242
0.640713
1.10865
1.52413
1.88248
2.18302
2.42547
2.60932
2.73359
2.79686
2.7969
2.73109
2.59604
2.38782
2.10378
1.74996
1.27586
0.802157
0.347219
-0.00820429
-0.324927
-0.589837
-0.821689
-1.0213
-1.19015
-1.32866
-1.43777
-1.52053
-1.58024
-1.61914
-1.63892
-1.64092
-1.62621
-1.59575
-1.55041
-1.49106
-1.41856
-1.33383
-1.23783
-1.13157
-1.01614
-0.892714
-0.762514
-0.626856
-0.487127
-0.344774
-0.201322
-0.0583541
0.0825878
0.219892
0.351939
0.477108
0.593845
0.700621
0.796011
0.87869
0.947463
1.00129
1.03927
1.06074
1.06525
1.05258
1.02282
0.976243
0.913411
0.835214
0.742809
0.637605
0.521307
0.395873
0.263446
0.126374
-0.0128208
-0.151523
-0.287056
-0.416759
-0.537983
-0.648185
-0.745044
-0.826456
-0.890621
-0.936073
-0.961774
-0.967159
-0.952132
-0.917074
-0.862911
-0.791094
-0.703563
-0.602716
-0.491394
-0.372728
-0.250099
-0.127009
-0.00693927
0.106712
0.210784
0.302489
0.379474
0.439931
0.482629
0.506937
0.512876
0.501502
0.473613
0.430897
0.375456
0.309691
0.23619
0.157599
0.0765729
-0.00432394
-0.0823728
-0.156091
-0.223452
-0.282946
-0.333478
-0.374292
-0.404998
-0.425528
-0.436061
-0.436737
-0.429814
-0.41464
-0.392639
-0.364988
-0.332879
-0.29749
-0.259979
-0.221451
-0.182948
-0.145431
-0.109748
-0.0765321
-0.0464129
-0.0198633
0.00276177
0.0212331
0.0354415
0.0453779
0.0511381
0.0528962
0.0509072
0.0454535
0.0369178
0.0256986
0.0122197
-0.00308159
-0.0197591
-0.0373746
-0.055502
-0.0737371
-0.0917031
-0.109048
-0.125399
-0.140526
-0.154248
-0.166348
-0.176659
-0.185067
-0.191503
-0.195934
-0.198372
-0.198863
-0.197488
-0.194331
-0.189544
-0.183274
-0.17569
-0.16698
-0.157335
-0.14695
-0.136015
-0.124716
-0.113229
-0.101743
-0.0903919
-0.0793044
-0.0686217
-0.0584616
-0.0489274
-0.0401064
-0.0320744
-0.0248984
-0.0186355
-0.0133336
-0.00903131
-0.00575979
-0.0035472
-0.00242365
-5.9231
-5.85369
-5.70874
-5.47692
-5.1388
-4.66831
-4.01364
-3.09249
-1.76074
-0.491022
0.510445
1.37684
2.09914
2.69909
3.19393
3.5938
3.90505
4.13145
4.2747
4.33445
4.30819
4.19163
3.97761
3.65513
3.20797
2.62812
1.78986
0.778956
0.0485248
-0.459712
-0.844564
-1.1405
-1.37144
-1.55324
-1.69649
-1.80865
-1.89541
-1.9595
-2.00212
-2.02441
-2.02737
-2.01182
-1.97865
-1.92866
-1.86268
-1.78157
-1.6862
-1.57753
-1.45658
-1.32448
-1.18242
-1.03172
-0.873786
-0.710104
-0.542276
-0.371958
-0.200933
-0.0309957
0.13602
0.29825
0.453826
0.600863
0.737555
0.862134
0.972957
1.06851
1.14741
1.20847
1.25068
1.27331
1.27587
1.25816
1.22029
1.16266
1.08599
0.991383
0.880238
0.754263
0.615509
0.466321
0.309254
0.147102
-0.0171456
-0.180394
-0.339495
-0.491311
-0.632733
-0.76081
-0.872839
-0.966385
-1.03937
-1.09014
-1.11754
-1.12097
-1.10035
-1.05625
-0.989844
-0.902924
-0.797865
-0.677567
-0.545446
-0.405249
-0.261025
-0.116972
0.0228852
0.15452
0.274253
0.378895
0.465791
0.532943
0.579082
0.603609
0.606393
0.589944
0.554253
0.501809
0.435217
0.357367
0.271337
0.180215
0.0870444
-0.00537223
-0.0931451
-0.176004
-0.25089
-0.316334
-0.371238
-0.414882
-0.446961
-0.46755
-0.477084
-0.47664
-0.465578
-0.446516
-0.42029
-0.388137
-0.351393
-0.311376
-0.26936
-0.226557
-0.184102
-0.143061
-0.104243
-0.0683661
-0.0360682
-0.00782756
0.0160173
0.0352564
0.0498117
0.059714
0.0650995
0.0661899
0.0632846
0.0567205
0.0469212
0.0343311
0.0194169
0.00265704
-0.015467
-0.0344864
-0.0539491
-0.0734295
-0.0925339
-0.110905
-0.128109
-0.144016
-0.158354
-0.170927
-0.181577
-0.190199
-0.196725
-0.201135
-0.203451
-0.20373
-0.202063
-0.198557
-0.193367
-0.186656
-0.178606
-0.169416
-0.159292
-0.148437
-0.137051
-0.125324
-0.113436
-0.1016
-0.0899123
-0.0785298
-0.0675899
-0.057209
-0.0474886
-0.0385136
-0.0303568
-0.0230823
-0.0167449
-0.0113895
-0.00705134
-0.00375717
-0.00153139
-0.000401687
-8.20621
-8.16349
-8.07751
-7.95495
-7.77852
-7.61977
-7.39947
-7.24995
-1.11313
-1.23614
-1.44255
-1.61241
-1.79631
-1.95873
-2.10109
-2.21836
-2.30972
-2.37679
-2.42126
-2.44432
-2.44699
-2.43011
-2.39442
-2.34053
-2.26911
-2.18084
-2.07649
-1.95693
-1.82309
-1.67606
-1.51703
-1.34731
-1.16836
-0.981732
-0.789117
-0.592322
-0.393221
-0.193891
0.00371494
0.197431
0.385139
0.564705
0.733984
0.890913
1.03348
1.15982
1.2682
1.35708
1.42512
1.4712
1.49449
1.4945
1.47109
1.42435
1.35484
1.26342
1.15143
1.02054
0.872756
0.710505
0.536538
0.353834
0.165653
-0.0245302
-0.213128
-0.396489
-0.571005
-0.73309
-0.879366
-1.00674
-1.11245
-1.19414
-1.24998
-1.27868
-1.27961
-1.25277
-1.1989
-1.11943
-1.01652
-0.893006
-0.752321
-0.598496
-0.435929
-0.269314
-0.10377
0.0563915
0.206306
0.341818
0.459315
0.555867
0.629323
0.678401
0.702738
0.703134
0.679422
0.635027
0.572185
0.493879
0.403496
0.304598
0.200745
0.0954025
-0.00814486
-0.106381
-0.197809
-0.279876
-0.350929
-0.409842
-0.455954
-0.489049
-0.509343
-0.517415
-0.514222
-0.500223
-0.47731
-0.446805
-0.410131
-0.368774
-0.32419
-0.277767
-0.23081
-0.184528
-0.140156
-0.0983507
-0.0599635
-0.0256383
0.00415452
0.0290909
0.0489872
0.0637975
0.0735925
0.0785508
0.0789407
0.0751059
0.0674341
0.0563895
0.0424601
0.0261545
0.00798862
-0.011523
-0.0318829
-0.0526146
-0.0732727
-0.0934496
-0.112774
-0.130803
-0.147416
-0.162322
-0.175329
-0.186288
-0.195096
-0.201694
-0.206071
-0.208258
-0.208326
-0.206375
-0.20253
-0.196953
-0.189819
-0.181325
-0.17168
-0.161102
-0.149804
-0.137994
-0.125866
-0.1136
-0.101444
-0.0894393
-0.0777829
-0.0666051
-0.0560209
-0.0461295
-0.0370136
-0.0287431
-0.0213797
-0.0149753
-0.00957257
-0.00520349
-0.0018903
0.000346371
0.00148113
-10.5484
-10.5311
-10.4971
-10.4487
-10.3822
-10.3277
-10.242
-10.2084
-2.23482
-2.27916
-2.38633
-2.46769
-2.55926
-2.64357
-2.71873
-2.78339
-2.83553
-2.87172
-2.89018
-2.89012
-2.87119
-2.83329
-2.77658
-2.70131
-2.60789
-2.49684
-2.36883
-2.22465
-2.06527
-1.89179
-1.70548
-1.50775
-1.3002
-1.08457
-0.862719
-0.636675
-0.408552
-0.180629
0.0448087
0.265367
0.478653
0.682268
0.873792
1.0509
1.21134
1.35303
1.47402
1.5726
1.64728
1.69682
1.72032
1.71723
1.68759
1.63144
1.54943
1.44264
1.31262
1.16134
0.991121
0.804765
0.60543
0.39655
0.181848
-0.0347019
-0.249008
-0.45692
-0.654336
-0.837201
-1.0017
-1.14435
-1.26207
-1.35224
-1.41282
-1.44244
-1.44042
-1.40686
-1.34267
-1.24956
-1.13007
-0.987512
-0.82587
-0.649815
-0.464427
-0.275134
-0.0876229
0.0928934
0.261078
0.41223
0.542308
0.648134
0.727405
0.778832
0.802199
0.798283
0.768057
0.714625
0.640976
0.55063
0.447491
0.33562
0.219032
0.101619
-0.012939
-0.121156
-0.220934
-0.309817
-0.386088
-0.448629
-0.496843
-0.530619
-0.550315
-0.556672
-0.550738
-0.533501
-0.50671
-0.471936
-0.430795
-0.384914
-0.335889
-0.285213
-0.234272
-0.184316
-0.13685
-0.0922143
-0.0514846
-0.0152919
0.0159084
0.041813
0.0622636
0.0772467
0.0868766
0.0913701
0.0910428
0.086282
0.0775221
0.0652678
0.0500466
0.032407
0.0129005
-0.00792813
-0.0295548
-0.0514809
-0.0732433
-0.0944202
-0.114625
-0.133437
-0.150692
-0.166117
-0.179519
-0.190754
-0.199724
-0.206379
-0.210712
-0.212768
-0.212629
-0.210403
-0.206234
-0.200289
-0.192756
-0.183841
-0.173768
-0.162764
-0.151052
-0.138847
-0.126346
-0.113722
-0.101282
-0.0889786
-0.0770701
-0.0656743
-0.0549039
-0.0448566
-0.0356129
-0.0272395
-0.0197959
-0.0133317
-0.00788757
-0.00349201
-0.000163085
0.00208247
0.00322134
-12.6976
-12.6879
-12.6686
-12.6415
-12.6033
-12.5753
-12.526
-12.5126
-2.92571
-2.94626
-3.02526
-3.08419
-3.15399
-3.21741
-3.27036
-3.31058
-3.33755
-3.34974
-3.3457
-3.3243
-3.28473
-3.2265
-3.14932
-3.05314
-2.93814
-2.80468
-2.65333
-2.48484
-2.30017
-2.10048
-1.8871
-1.66157
-1.42562
-1.18117
-0.930281
-0.675196
-0.418258
-0.161987
0.0910419
0.338182
0.576769
0.804128
1.01757
1.21453
1.39249
1.54915
1.68238
1.79026
1.87119
1.9238
1.9471
1.94035
1.90426
1.83828
1.74339
1.62087
1.47251
1.30055
1.10765
0.896981
0.67212
0.436944
0.19566
-0.0472695
-0.287243
-0.519615
-0.739786
-0.943237
-1.12572
-1.28338
-1.41279
-1.5111
-1.57608
-1.60624
-1.60092
-1.56028
-1.48543
-1.37835
-1.24199
-1.08012
-0.897293
-0.698838
-0.490522
-0.278505
-0.0691375
0.131603
0.317805
0.484243
0.626486
0.741092
0.825638
0.878868
0.900705
0.892108
0.854812
0.792037
0.707356
0.604851
0.488943
0.364194
0.235057
0.105839
-0.019387
-0.13712
-0.244872
-0.340154
-0.421227
-0.48701
-0.536975
-0.571134
-0.589994
-0.594461
-0.585743
-0.565155
-0.534497
-0.495522
-0.450025
-0.39977
-0.346478
-0.291745
-0.237028
-0.183588
-0.133254
-0.0859597
-0.0430717
-0.00517373
0.0272932
0.0540498
0.0749603
0.0900481
0.0994664
0.103474
0.102426
0.0967586
0.0869433
0.073527
0.0570735
0.0381675
0.0173948
-0.00467255
-0.0274863
-0.0505275
-0.0733164
-0.0954204
-0.11644
-0.135971
-0.153814
-0.169712
-0.18347
-0.194952
-0.204064
-0.21076
-0.215043
-0.216968
-0.216629
-0.21414
-0.209663
-0.203372
-0.195463
-0.186154
-0.175681
-0.16428
-0.152184
-0.139613
-0.12677
-0.113832
-0.101095
-0.0885344
-0.0763963
-0.0648016
-0.0538619
-0.0436732
-0.034314
-0.0258479
-0.0183324
-0.0118152
-0.00633485
-0.00191683
0.00142496
0.00367766
0.00481985
-14.6387
-14.6333
-14.6226
-14.6079
-14.5883
-14.5752
-14.5508
-14.5478
-3.60328
-3.60195
-3.64446
-3.67616
-3.71577
-3.75219
-3.7814
-3.80056
-3.80755
-3.8004
-3.77756
-3.73767
-3.6797
-3.60286
-3.50662
-3.39073
-3.25518
-3.10023
-2.92636
-2.73432
-2.52507
-2.29983
-2.06003
-1.80733
-1.54361
-1.27095
-0.991626
-0.708095
-0.422952
-0.138944
0.141075
0.414192
0.677476
0.927982
1.16276
1.37899
1.57393
1.74503
1.88998
2.00671
2.09344
2.14877
2.17168
2.16181
2.11816
2.042
1.93407
1.79573
1.629
1.4364
1.22093
0.9861
0.735925
0.47472
0.207166
-0.0617822
-0.327035
-0.583443
-0.825926
-1.04951
-1.24951
-1.42172
-1.5624
-1.66843
-1.73743
-1.76784
-1.75894
-1.71101
-1.62534
-1.50421
-1.35095
-1.16979
-0.965871
-0.745164
-0.514146
-0.279681
-0.048814
0.171737
0.375486
0.556692
0.710561
0.833384
0.922656
0.977188
0.997055
0.983456
0.938746
0.866461
0.770707
0.656108
0.527601
0.390241
0.248906
0.108265
-0.0271235
-0.153898
-0.269161
-0.370386
-0.455836
-0.524482
-0.575878
-0.610167
-0.628005
-0.630467
-0.618942
-0.594991
-0.560531
-0.517476
-0.46778
-0.413341
-0.355994
-0.297428
-0.239174
-0.182586
-0.129344
-0.0797001
-0.0348442
0.00459969
0.0382009
0.065701
0.0869888
0.102125
0.111298
0.11481
0.113053
0.106507
0.0956807
0.0811592
0.0635401
0.0434434
0.0214843
-0.00173941
-0.0256575
-0.0497323
-0.0734694
-0.0964284
-0.118196
-0.138384
-0.156764
-0.173089
-0.187169
-0.198869
-0.208103
-0.214829
-0.219057
-0.220853
-0.220324
-0.217586
-0.212819
-0.206205
-0.197945
-0.188269
-0.177425
-0.165657
-0.153207
-0.140299
-0.127143
-0.113921
-0.100904
-0.088111
-0.0757644
-0.0639893
-0.0528962
-0.0425798
-0.0331166
-0.0245673
-0.0169878
-0.0104235
-0.00491164
-0.000474722
0.00287749
0.00513585
0.00628073
-16.3755
-16.3724
-16.3663
-16.358
-16.3472
-16.3404
-16.3271
-16.3268
-4.14991
-4.14304
-4.17555
-4.19639
-4.21992
-4.23881
-4.25057
-4.25282
-4.24346
-4.22041
-4.18182
-4.12612
-4.05202
-3.95853
-3.84494
-3.71082
-3.55606
-3.38082
-3.18556
-2.97102
-2.73821
-2.4884
-2.22314
-1.94421
-1.65365
-1.35371
-1.04686
-0.735796
-0.423383
-0.112533
0.193582
0.491794
0.778916
1.05174
1.30706
1.54181
1.75301
1.93791
2.09399
2.21903
2.31112
2.36877
2.39089
2.3769
2.32636
2.24013
2.11923
1.96523
1.78038
1.56748
1.32982
1.07131
0.796362
0.509719
0.216526
-0.0777683
-0.367608
-0.647362
-0.911466
-1.1545