/*--------------------------------*- C++ -*----------------------------------*\
  =========                 |
  \\      /  F ield         | OpenFOAM: The Open Source CFD Toolbox
   \\    /   O peration     | Website:  https://openfoam.org
    \\  /    A nd           | Version:  12
     \\/     M anipulation  |
\*---------------------------------------------------------------------------*/
FoamFile
{
    format      ascii;
    class       volScalarField;
    location    "14.64";
    object      p;
}
// * * * * * * * * * * * * * * * * * * * * * * * * * * * * * * * * * * * * * //

dimensions      [1 -1 -2 0 0 0 0];

internalField   nonuniform List<scalar> 
3829
(
-610.397
-610.399
-610.402
-610.406
-610.412
-610.419
-610.428
-610.439
-610.452
-610.467
-610.483
-610.502
-610.523
-610.547
-610.573
-610.602
-610.633
-610.668
-610.705
-610.745
-610.788
-610.835
-610.885
-610.938
-610.994
-611.054
-611.118
-611.184
-611.254
-611.328
-611.405
-611.485
-611.567
-611.652
-611.74
-611.829
-611.921
-612.015
-612.11
-612.206
-612.304
-612.401
-612.499
-612.596
-612.693
-612.789
-612.883
-612.975
-613.065
-613.152
-613.236
-613.316
-613.393
-613.465
-613.532
-613.594
-613.651
-613.703
-613.749
-613.789
-613.823
-613.851
-613.872
-613.887
-613.895
-613.899
-613.897
-613.89
-613.878
-613.861
-613.841
-613.819
-613.793
-613.767
-613.739
-613.711
-613.684
-613.658
-613.635
-613.615
-613.599
-613.588
-613.582
-613.583
-613.589
-613.604
-613.626
-613.656
-613.692
-613.736
-613.786
-613.843
-613.904
-613.969
-614.038
-614.109
-614.18
-614.251
-614.319
-614.383
-614.442
-614.494
-614.538
-614.573
-614.598
-614.612
-614.614
-614.604
-614.584
-614.553
-614.514
-614.466
-614.413
-614.355
-614.296
-614.238
-614.183
-614.134
-614.092
-614.06
-614.04
-614.033
-614.04
-614.062
-614.096
-614.141
-614.197
-614.259
-614.324
-614.391
-614.454
-614.51
-614.556
-614.588
-614.605
-614.605
-614.587
-614.55
-614.499
-614.436
-614.364
-614.287
-614.212
-614.143
-614.085
-614.042
-614.019
-614.016
-614.037
-614.079
-614.138
-614.211
-614.292
-614.375
-614.453
-614.518
-614.567
-614.595
-614.599
-614.58
-614.54
-614.483
-614.415
-614.341
-614.274
-614.218
-614.178
-614.158
-614.16
-614.18
-614.215
-614.267
-614.313
-614.353
-614.382
-614.395
-614.389
-614.368
-614.335
-614.295
-614.257
-614.226
-614.209
-614.207
-614.223
-614.253
-614.292
-614.333
-614.371
-614.4
-614.418
-614.425
-614.423
-614.415
-614.405
-614.397
-614.393
-614.393
-614.395
-614.396
-1768.64
-1768.64
-1768.64
-1768.64
-1768.65
-1768.65
-1768.66
-1768.67
-1768.68
-1768.69
-1768.71
-1768.73
-1768.75
-1768.77
-1768.79
-1768.82
-1768.85
-1768.88
-1768.92
-1768.96
-1769
-1769.05
-1769.11
-1769.16
-1769.22
-1769.29
-1769.35
-1769.43
-1769.5
-1769.58
-1769.66
-1769.75
-1769.85
-1769.94
-1770.04
-1770.15
-1770.25
-1770.36
-1770.47
-1770.58
-1770.69
-1770.8
-1770.91
-1771.02
-1771.13
-1771.23
-1771.34
-1771.44
-1771.54
-1771.64
-1771.73
-1771.82
-1771.9
-1771.97
-1772.05
-1772.11
-1772.17
-1772.22
-1772.27
-1772.3
-1772.33
-1772.36
-1772.37
-1772.38
-1772.38
-1772.38
-1772.37
-1772.35
-1772.32
-1772.3
-1772.26
-1772.23
-1772.19
-1772.15
-1772.11
-1772.07
-1772.03
-1771.99
-1771.96
-1771.93
-1771.9
-1771.88
-1771.87
-1771.87
-1771.87
-1771.89
-1771.91
-1771.95
-1771.99
-1772.04
-1772.1
-1772.16
-1772.23
-1772.31
-1772.39
-1772.48
-1772.56
-1772.65
-1772.73
-1772.81
-1772.87
-1772.94
-1772.99
-1773.03
-1773.05
-1773.07
-1773.07
-1773.05
-1773.03
-1772.99
-1772.93
-1772.87
-1772.81
-1772.73
-1772.66
-1772.59
-1772.52
-1772.46
-1772.4
-1772.36
-1772.34
-1772.33
-1772.34
-1772.37
-1772.41
-1772.47
-1772.53
-1772.61
-1772.69
-1772.78
-1772.85
-1772.92
-1772.98
-1773.02
-1773.04
-1773.04
-1773.02
-1772.98
-1772.91
-1772.83
-1772.75
-1772.65
-1772.56
-1772.48
-1772.4
-1772.35
-1772.33
-1772.32
-1772.35
-1772.4
-1772.47
-1772.56
-1772.66
-1772.76
-1772.85
-1772.93
-1772.99
-1773.02
-1773.02
-1773
-1772.95
-1772.88
-1772.8
-1772.7
-1772.62
-1772.56
-1772.51
-1772.49
-1772.49
-1772.52
-1772.57
-1772.63
-1772.69
-1772.74
-1772.78
-1772.79
-1772.78
-1772.76
-1772.71
-1772.66
-1772.62
-1772.58
-1772.56
-1772.56
-1772.58
-1772.61
-1772.66
-1772.71
-1772.75
-1772.78
-1772.8
-1772.81
-1772.8
-1772.79
-1772.77
-1772.76
-1772.76
-1772.76
-1772.76
-1772.77
-2794.61
-2794.61
-2794.61
-2794.61
-2794.61
-2794.61
-2794.62
-2794.62
-2794.63
-2794.63
-2794.64
-2794.65
-2794.66
-2794.68
-2794.7
-2794.72
-2794.75
-2794.78
-2794.82
-2794.86
-2794.9
-2794.95
-2795.01
-2795.07
-2795.14
-2795.21
-2795.3
-2795.38
-2795.47
-2795.57
-2795.68
-2795.79
-2795.9
-2796.01
-2796.13
-2796.25
-2796.38
-2796.51
-2796.64
-2796.77
-2796.9
-2797.03
-2797.16
-2797.29
-2797.42
-2797.55
-2797.67
-2797.79
-2797.91
-2798.02
-2798.12
-2798.22
-2798.31
-2798.4
-2798.48
-2798.55
-2798.61
-2798.66
-2798.7
-2798.73
-2798.76
-2798.77
-2798.78
-2798.77
-2798.76
-2798.74
-2798.7
-2798.67
-2798.62
-2798.57
-2798.51
-2798.45
-2798.39
-2798.33
-2798.26
-2798.2
-2798.13
-2798.08
-2798.02
-2797.97
-2797.93
-2797.9
-2797.88
-2797.87
-2797.87
-2797.89
-2797.91
-2797.95
-2798.01
-2798.07
-2798.14
-2798.23
-2798.32
-2798.42
-2798.53
-2798.64
-2798.75
-2798.86
-2798.97
-2799.06
-2799.15
-2799.23
-2799.3
-2799.35
-2799.38
-2799.39
-2799.39
-2799.36
-2799.32
-2799.26
-2799.19
-2799.1
-2799.01
-2798.91
-2798.8
-2798.7
-2798.61
-2798.52
-2798.45
-2798.4
-2798.37
-2798.36
-2798.37
-2798.41
-2798.46
-2798.54
-2798.64
-2798.74
-2798.86
-2798.97
-2799.08
-2799.17
-2799.25
-2799.3
-2799.33
-2799.33
-2799.3
-2799.24
-2799.15
-2799.05
-2798.93
-2798.8
-2798.68
-2798.57
-2798.47
-2798.4
-2798.37
-2798.37
-2798.4
-2798.47
-2798.57
-2798.68
-2798.81
-2798.95
-2799.07
-2799.17
-2799.24
-2799.28
-2799.28
-2799.24
-2799.17
-2799.08
-2798.96
-2798.85
-2798.74
-2798.66
-2798.6
-2798.58
-2798.59
-2798.63
-2798.7
-2798.79
-2798.87
-2798.94
-2798.98
-2799
-2798.99
-2798.95
-2798.89
-2798.82
-2798.76
-2798.71
-2798.68
-2798.68
-2798.7
-2798.75
-2798.81
-2798.87
-2798.93
-2798.97
-2798.98
-2798.98
-2798.97
-2798.95
-2798.93
-2798.92
-2798.91
-2798.92
-2798.92
-2798.93
-3703.44
-3703.44
-3703.44
-3703.43
-3703.43
-3703.42
-3703.41
-3703.4
-3703.39
-3703.38
-3703.38
-3703.37
-3703.37
-3703.37
-3703.37
-3703.38
-3703.4
-3703.42
-3703.44
-3703.48
-3703.52
-3703.57
-3703.63
-3703.7
-3703.78
-3703.87
-3703.96
-3704.07
-3704.18
-3704.3
-3704.43
-3704.56
-3704.71
-3704.86
-3705.01
-3705.17
-3705.34
-3705.5
-3705.66
-3705.83
-3706
-3706.16
-3706.33
-3706.49
-3706.65
-3706.8
-3706.95
-3707.1
-3707.24
-3707.37
-3707.49
-3707.61
-3707.71
-3707.81
-3707.9
-3707.97
-3708.03
-3708.08
-3708.12
-3708.15
-3708.16
-3708.16
-3708.15
-3708.13
-3708.09
-3708.05
-3707.99
-3707.92
-3707.85
-3707.76
-3707.67
-3707.58
-3707.48
-3707.38
-3707.28
-3707.18
-3707.08
-3706.99
-3706.91
-3706.84
-3706.78
-3706.73
-3706.69
-3706.68
-3706.67
-3706.69
-3706.72
-3706.77
-3706.84
-3706.92
-3707.02
-3707.13
-3707.26
-3707.39
-3707.53
-3707.68
-3707.83
-3707.98
-3708.12
-3708.25
-3708.37
-3708.47
-3708.55
-3708.62
-3708.65
-3708.67
-3708.66
-3708.62
-3708.56
-3708.47
-3708.36
-3708.24
-3708.11
-3707.96
-3707.82
-3707.68
-3707.54
-3707.43
-3707.33
-3707.25
-3707.21
-3707.2
-3707.22
-3707.27
-3707.35
-3707.46
-3707.59
-3707.74
-3707.9
-3708.05
-3708.2
-3708.33
-3708.44
-3708.52
-3708.55
-3708.55
-3708.51
-3708.43
-3708.31
-3708.17
-3708
-3707.83
-3707.66
-3707.5
-3707.37
-3707.28
-3707.23
-3707.23
-3707.28
-3707.38
-3707.51
-3707.67
-3707.85
-3708.03
-3708.19
-3708.32
-3708.42
-3708.47
-3708.46
-3708.4
-3708.3
-3708.17
-3708.01
-3707.86
-3707.72
-3707.61
-3707.54
-3707.51
-3707.54
-3707.6
-3707.7
-3707.82
-3707.94
-3708.03
-3708.09
-3708.11
-3708.09
-3708.04
-3707.95
-3707.86
-3707.77
-3707.7
-3707.66
-3707.66
-3707.7
-3707.76
-3707.84
-3707.93
-3707.99
-3708.04
-3708.06
-3708.05
-3708.02
-3707.99
-3707.96
-3707.95
-3707.94
-3707.95
-3707.96
-3707.97
-4508.6
-4508.6
-4508.58
-4508.57
-4508.54
-4508.51
-4508.48
-4508.45
-4508.41
-4508.37
-4508.33
-4508.29
-4508.25
-4508.22
-4508.19
-4508.17
-4508.16
-4508.16
-4508.17
-4508.2
-4508.24
-4508.29
-4508.35
-4508.44
-4508.53
-4508.64
-4508.77
-4508.91
-4509.06
-4509.22
-4509.4
-4509.58
-4509.76
-4509.95
-4510.15
-4510.35
-4510.56
-4510.77
-4510.98
-4511.19
-4511.4
-4511.6
-4511.81
-4512.01
-4512.2
-4512.39
-4512.57
-4512.75
-4512.91
-4513.07
-4513.21
-4513.35
-4513.47
-4513.58
-4513.67
-4513.76
-4513.82
-4513.87
-4513.9
-4513.92
-4513.92
-4513.9
-4513.87
-4513.82
-4513.75
-4513.68
-4513.58
-4513.48
-4513.36
-4513.23
-4513.1
-4512.96
-4512.81
-4512.67
-4512.52
-4512.38
-4512.24
-4512.12
-4512
-4511.89
-4511.8
-4511.73
-4511.68
-4511.65
-4511.64
-4511.66
-4511.7
-4511.76
-4511.85
-4511.96
-4512.09
-4512.24
-4512.41
-4512.59
-4512.78
-4512.97
-4513.17
-4513.37
-4513.55
-4513.73
-4513.88
-4514.02
-4514.13
-4514.21
-4514.25
-4514.26
-4514.24
-4514.19
-4514.1
-4513.98
-4513.83
-4513.66
-4513.47
-4513.27
-4513.07
-4512.87
-4512.69
-4512.53
-4512.4
-4512.3
-4512.24
-4512.22
-4512.25
-4512.32
-4512.44
-4512.59
-4512.77
-4512.97
-4513.19
-4513.41
-4513.61
-4513.79
-4513.93
-4514.04
-4514.09
-4514.08
-4514.02
-4513.91
-4513.75
-4513.55
-4513.33
-4513.09
-4512.86
-4512.65
-4512.48
-4512.36
-4512.3
-4512.3
-4512.37
-4512.5
-4512.68
-4512.89
-4513.13
-4513.37
-4513.59
-4513.77
-4513.89
-4513.94
-4513.93
-4513.85
-4513.71
-4513.52
-4513.31
-4513.11
-4512.92
-4512.78
-4512.69
-4512.66
-4512.7
-4512.8
-4512.94
-4513.12
-4513.27
-4513.39
-4513.47
-4513.5
-4513.47
-4513.38
-4513.27
-4513.13
-4513.01
-4512.92
-4512.87
-4512.88
-4512.93
-4513.02
-4513.13
-4513.23
-4513.32
-4513.37
-4513.39
-4513.37
-4513.33
-4513.28
-4513.24
-4513.22
-4513.22
-4513.23
-4513.25
-4513.27
-5222.06
-5222.05
-5222.02
-5221.98
-5221.92
-5221.86
-5221.78
-5221.69
-5221.59
-5221.49
-5221.38
-5221.28
-5221.18
-5221.08
-5221
-5220.93
-5220.88
-5220.84
-5220.82
-5220.82
-5220.85
-5220.9
-5220.97
-5221.06
-5221.18
-5221.33
-5221.49
-5221.68
-5221.88
-5222.1
-5222.33
-5222.57
-5222.82
-5223.07
-5223.33
-5223.59
-5223.86
-5224.12
-5224.39
-5224.65
-5224.91
-5225.17
-5225.42
-5225.67
-5225.91
-5226.13
-5226.35
-5226.56
-5226.76
-5226.94
-5227.12
-5227.27
-5227.41
-5227.53
-5227.64
-5227.72
-5227.79
-5227.83
-5227.86
-5227.86
-5227.84
-5227.81
-5227.75
-5227.67
-5227.57
-5227.45
-5227.32
-5227.17
-5227
-5226.82
-5226.63
-5226.44
-5226.24
-5226.04
-5225.83
-5225.64
-5225.45
-5225.28
-5225.11
-5224.97
-5224.85
-5224.75
-5224.68
-5224.63
-5224.62
-5224.64
-5224.69
-5224.77
-5224.88
-5225.03
-5225.2
-5225.4
-5225.62
-5225.85
-5226.1
-5226.36
-5226.62
-5226.87
-5227.12
-5227.34
-5227.54
-5227.72
-5227.86
-5227.96
-5228.01
-5228.02
-5227.99
-5227.91
-5227.78
-5227.62
-5227.42
-5227.18
-5226.93
-5226.67
-5226.4
-5226.14
-5225.89
-5225.68
-5225.5
-5225.37
-5225.29
-5225.27
-5225.31
-5225.41
-5225.57
-5225.77
-5226.02
-5226.29
-5226.58
-5226.86
-5227.13
-5227.37
-5227.57
-5227.7
-5227.77
-5227.76
-5227.68
-5227.53
-5227.32
-5227.05
-5226.76
-5226.44
-5226.14
-5225.86
-5225.64
-5225.48
-5225.4
-5225.41
-5225.5
-5225.67
-5225.91
-5226.2
-5226.51
-5226.82
-5227.1
-5227.33
-5227.49
-5227.55
-5227.53
-5227.41
-5227.22
-5226.98
-5226.7
-5226.43
-5226.19
-5226.01
-5225.9
-5225.88
-5225.94
-5226.07
-5226.25
-5226.51
-5226.7
-5226.86
-5226.97
-5227
-5226.95
-5226.84
-5226.68
-5226.5
-5226.34
-5226.22
-5226.16
-5226.17
-5226.24
-5226.36
-5226.5
-5226.64
-5226.74
-5226.81
-5226.82
-5226.78
-5226.72
-5226.66
-5226.6
-5226.58
-5226.58
-5226.6
-5226.63
-5226.65
-5854.4
-5854.37
-5854.32
-5854.23
-5854.12
-5853.98
-5853.82
-5853.63
-5853.43
-5853.22
-5852.99
-5852.77
-5852.56
-5852.36
-5852.17
-5852.02
-5851.89
-5851.79
-5851.72
-5851.69
-5851.71
-5851.76
-5851.85
-5851.98
-5852.15
-5852.36
-5852.6
-5852.86
-5853.15
-5853.46
-5853.78
-5854.11
-5854.44
-5854.78
-5855.12
-5855.46
-5855.79
-5856.12
-5856.45
-5856.77
-5857.09
-5857.39
-5857.7
-5857.99
-5858.27
-5858.54
-5858.8
-5859.04
-5859.28
-5859.49
-5859.69
-5859.87
-5860.02
-5860.16
-5860.28
-5860.37
-5860.43
-5860.47
-5860.49
-5860.48
-5860.44
-5860.38
-5860.29
-5860.17
-5860.03
-5859.86
-5859.68
-5859.47
-5859.25
-5859.01
-5858.76
-5858.5
-5858.23
-5857.97
-5857.7
-5857.44
-5857.2
-5856.97
-5856.76
-5856.57
-5856.41
-5856.28
-5856.18
-5856.12
-5856.11
-5856.13
-5856.19
-5856.3
-5856.44
-5856.62
-5856.85
-5857.1
-5857.38
-5857.68
-5858
-5858.33
-5858.66
-5858.99
-5859.3
-5859.58
-5859.84
-5860.06
-5860.23
-5860.35
-5860.42
-5860.43
-5860.38
-5860.27
-5860.1
-5859.89
-5859.62
-5859.32
-5858.99
-5858.64
-5858.29
-5857.95
-5857.64
-5857.36
-5857.13
-5856.97
-5856.87
-5856.85
-5856.9
-5857.03
-5857.24
-5857.5
-5857.82
-5858.18
-5858.55
-5858.92
-5859.27
-5859.58
-5859.83
-5860
-5860.08
-5860.07
-5859.97
-5859.77
-5859.49
-5859.15
-5858.77
-5858.37
-5857.98
-5857.62
-5857.34
-5857.14
-5857.04
-5857.05
-5857.17
-5857.39
-5857.7
-5858.07
-5858.48
-5858.87
-5859.23
-5859.52
-5859.71
-5859.79
-5859.75
-5859.59
-5859.34
-5859.02
-5858.67
-5858.32
-5858.02
-5857.79
-5857.66
-5857.64
-5857.73
-5857.91
-5858.14
-5858.48
-5858.73
-5858.94
-5859.06
-5859.1
-5859.03
-5858.88
-5858.68
-5858.44
-5858.24
-5858.08
-5858.01
-5858.03
-5858.12
-5858.28
-5858.45
-5858.63
-5858.76
-5858.83
-5858.84
-5858.78
-5858.7
-5858.61
-5858.54
-5858.51
-5858.52
-5858.56
-5858.6
-5858.63
-6415.2
-6415.14
-6415.03
-6414.86
-6414.63
-6414.34
-6414.01
-6413.62
-6413.19
-6412.76
-6412.33
-6411.92
-6411.54
-6411.19
-6410.88
-6410.61
-6410.4
-6410.23
-6410.12
-6410.07
-6410.07
-6410.14
-6410.27
-6410.46
-6410.72
-6411.03
-6411.4
-6411.8
-6412.23
-6412.68
-6413.12
-6413.55
-6413.98
-6414.41
-6414.83
-6415.24
-6415.64
-6416.04
-6416.43
-6416.81
-6417.19
-6417.55
-6417.9
-6418.24
-6418.56
-6418.88
-6419.18
-6419.46
-6419.73
-6419.97
-6420.2
-6420.4
-6420.58
-6420.73
-6420.86
-6420.95
-6421.02
-6421.06
-6421.06
-6421.03
-6420.97
-6420.88
-6420.75
-6420.59
-6420.41
-6420.19
-6419.95
-6419.68
-6419.39
-6419.08
-6418.76
-6418.43
-6418.09
-6417.75
-6417.41
-6417.09
-6416.77
-6416.48
-6416.21
-6415.98
-6415.77
-6415.61
-6415.49
-6415.42
-6415.39
-6415.42
-6415.5
-6415.63
-6415.81
-6416.04
-6416.32
-6416.64
-6416.99
-6417.37
-6417.77
-6418.18
-6418.59
-6418.99
-6419.38
-6419.74
-6420.05
-6420.32
-6420.54
-6420.68
-6420.76
-6420.77
-6420.7
-6420.56
-6420.34
-6420.06
-6419.73
-6419.34
-6418.92
-6418.49
-6418.04
-6417.62
-6417.22
-6416.87
-6416.59
-6416.38
-6416.26
-6416.24
-6416.31
-6416.48
-6416.74
-6417.08
-6417.48
-6417.93
-6418.4
-6418.87
-6419.31
-6419.69
-6420
-6420.22
-6420.32
-6420.31
-6420.17
-6419.92
-6419.57
-6419.14
-6418.66
-6418.15
-6417.67
-6417.23
-6416.87
-6416.62
-6416.5
-6416.52
-6416.68
-6416.96
-6417.35
-6417.82
-6418.32
-6418.81
-6419.25
-6419.6
-6419.83
-6419.93
-6419.86
-6419.66
-6419.35
-6418.95
-6418.5
-6418.07
-6417.7
-6417.42
-6417.27
-6417.25
-6417.38
-6417.61
-6417.91
-6418.33
-6418.64
-6418.9
-6419.05
-6419.09
-6419
-6418.81
-6418.55
-6418.25
-6417.99
-6417.81
-6417.72
-6417.74
-6417.87
-6418.06
-6418.29
-6418.5
-6418.66
-6418.74
-6418.73
-6418.66
-6418.55
-6418.43
-6418.35
-6418.31
-6418.33
-6418.38
-6418.44
-6418.48
-6912.84
-6912.76
-6912.57
-6912.3
-6911.94
-6911.48
-6910.97
-6910.4
-6909.75
-6909.02
-6908.28
-6907.54
-6906.87
-6906.26
-6905.72
-6905.26
-6904.88
-6904.58
-6904.38
-6904.26
-6904.25
-6904.33
-6904.51
-6904.79
-6905.17
-6905.63
-6906.17
-6906.78
-6907.39
-6908
-6908.59
-6909.16
-6909.71
-6910.24
-6910.75
-6911.24
-6911.71
-6912.16
-6912.61
-6913.04
-6913.46
-6913.87
-6914.27
-6914.65
-6915.02
-6915.38
-6915.72
-6916.04
-6916.34
-6916.62
-6916.87
-6917.1
-6917.3
-6917.47
-6917.6
-6917.7
-6917.77
-6917.8
-6917.79
-6917.74
-6917.66
-6917.53
-6917.37
-6917.16
-6916.92
-6916.65
-6916.35
-6916.01
-6915.65
-6915.27
-6914.87
-6914.46
-6914.04
-6913.62
-6913.2
-6912.8
-6912.42
-6912.06
-6911.73
-6911.44
-6911.19
-6910.99
-6910.84
-6910.75
-6910.72
-6910.76
-6910.85
-6911.01
-6911.24
-6911.52
-6911.86
-6912.25
-6912.68
-6913.14
-6913.63
-6914.13
-6914.63
-6915.13
-6915.59
-6916.03
-6916.41
-6916.74
-6916.99
-6917.17
-6917.26
-6917.26
-6917.17
-6916.99
-6916.73
-6916.38
-6915.96
-6915.48
-6914.97
-6914.43
-6913.89
-6913.36
-6912.88
-6912.45
-6912.1
-6911.85
-6911.71
-6911.68
-6911.77
-6911.98
-6912.31
-6912.72
-6913.22
-6913.78
-6914.36
-6914.93
-6915.47
-6915.94
-6916.32
-6916.58
-6916.71
-6916.69
-6916.52
-6916.21
-6915.78
-6915.25
-6914.66
-6914.04
-6913.44
-6912.91
-6912.47
-6912.17
-6912.03
-6912.06
-6912.26
-6912.61
-6913.09
-6913.65
-6914.27
-6914.86
-6915.4
-6915.82
-6916.09
-6916.19
-6916.11
-6915.86
-6915.47
-6914.98
-6914.44
-6913.91
-6913.46
-6913.13
-6912.95
-6912.95
-6913.11
-6913.4
-6913.78
-6914.28
-6914.67
-6914.98
-6915.16
-6915.2
-6915.09
-6914.85
-6914.53
-6914.15
-6913.84
-6913.62
-6913.52
-6913.55
-6913.71
-6913.95
-6914.23
-6914.48
-6914.67
-6914.76
-6914.74
-6914.64
-6914.5
-6914.36
-6914.25
-6914.21
-6914.23
-6914.3
-6914.38
-6914.43
-7355.01
-7354.88
-7354.61
-7354.19
-7353.59
-7352.8
-7351.78
-7350.46
-7348.54
-7347.08
-7345.8
-7344.71
-7343.77
-7342.96
-7342.28
-7341.72
-7341.28
-7340.96
-7340.75
-7340.65
-7340.67
-7340.81
-7341.08
-7341.5
-7342.07
-7342.83
-7343.77
-7345.22
-7346.22
-7347.07
-7347.82
-7348.48
-7349.09
-7349.67
-7350.22
-7350.75
-7351.26
-7351.76
-7352.25
-7352.72
-7353.18
-7353.64
-7354.07
-7354.5
-7354.91
-7355.31
-7355.69
-7356.05
-7356.38
-7356.69
-7356.98
-7357.23
-7357.45
-7357.64
-7357.79
-7357.9
-7357.96
-7357.99
-7357.96
-7357.9
-7357.78
-7357.62
-7357.42
-7357.17
-7356.87
-7356.54
-7356.16
-7355.76
-7355.32
-7354.86
-7354.38
-7353.88
-7353.38
-7352.87
-7352.37
-7351.89
-7351.43
-7351
-7350.6
-7350.25
-7349.96
-7349.72
-7349.54
-7349.44
-7349.4
-7349.45
-7349.56
-7349.76
-7350.03
-7350.37
-7350.77
-7351.24
-7351.75
-7352.31
-7352.89
-7353.49
-7354.09
-7354.68
-7355.23
-7355.75
-7356.21
-7356.59
-7356.89
-7357.1
-7357.2
-7357.2
-7357.09
-7356.87
-7356.54
-7356.12
-7355.61
-7355.04
-7354.42
-7353.77
-7353.12
-7352.49
-7351.91
-7351.4
-7350.98
-7350.68
-7350.51
-7350.48
-7350.6
-7350.86
-7351.25
-7351.76
-7352.36
-7353.02
-7353.72
-7354.41
-7355.05
-7355.62
-7356.07
-7356.38
-7356.53
-7356.5
-7356.29
-7355.92
-7355.4
-7354.77
-7354.06
-7353.31
-7352.6
-7351.97
-7351.45
-7351.1
-7350.93
-7350.97
-7351.21
-7351.64
-7352.21
-7352.89
-7353.62
-7354.33
-7354.96
-7355.46
-7355.78
-7355.89
-7355.78
-7355.48
-7355
-7354.41
-7353.76
-7353.14
-7352.61
-7352.22
-7352.02
-7352.03
-7352.23
-7352.59
-7353.06
-7353.63
-7354.1
-7354.47
-7354.69
-7354.73
-7354.59
-7354.3
-7353.92
-7353.45
-7353.08
-7352.82
-7352.71
-7352.76
-7352.95
-7353.24
-7353.57
-7353.87
-7354.09
-7354.18
-7354.16
-7354.03
-7353.85
-7353.67
-7353.55
-7353.5
-7353.54
-7353.63
-7353.73
-7353.79
-7748.13
-7747.96
-7747.62
-7747.09
-7746.35
-7745.38
-7744.18
-7742.6
-7739.86
-7737.73
-7735.82
-7734.18
-7732.76
-7731.55
-7730.54
-7729.71
-7729.06
-7728.57
-7728.25
-7728.09
-7728.1
-7728.28
-7728.64
-7729.2
-7729.98
-7730.99
-7732.19
-7734.06
-7735.15
-7736.14
-7737.01
-7737.77
-7738.46
-7739.09
-7739.68
-7740.23
-7740.76
-7741.28
-7741.79
-7742.29
-7742.78
-7743.27
-7743.74
-7744.21
-7744.66
-7745.1
-7745.52
-7745.92
-7746.3
-7746.64
-7746.96
-7747.24
-7747.49
-7747.69
-7747.85
-7747.97
-7748.03
-7748.05
-7748.01
-7747.93
-7747.78
-7747.59
-7747.34
-7747.04
-7746.69
-7746.29
-7745.85
-7745.37
-7744.85
-7744.3
-7743.73
-7743.15
-7742.56
-7741.96
-7741.38
-7740.81
-7740.27
-7739.76
-7739.3
-7738.89
-7738.54
-7738.26
-7738.06
-7737.94
-7737.9
-7737.95
-7738.09
-7738.32
-7738.64
-7739.04
-7739.52
-7740.07
-7740.67
-7741.32
-7742
-7742.71
-7743.41
-7744.09
-7744.74
-7745.35
-7745.88
-7746.32
-7746.67
-7746.91
-7747.03
-7747.02
-7746.88
-7746.62
-7746.23
-7745.73
-7745.13
-7744.46
-7743.72
-7742.96
-7742.19
-7741.45
-7740.77
-7740.17
-7739.69
-7739.34
-7739.14
-7739.11
-7739.25
-7739.56
-7740.02
-7740.62
-7741.33
-7742.11
-7742.94
-7743.75
-7744.51
-7745.17
-7745.7
-7746.06
-7746.23
-7746.19
-7745.94
-7745.5
-7744.89
-7744.14
-7743.31
-7742.44
-7741.6
-7740.86
-7740.26
-7739.85
-7739.67
-7739.72
-7740
-7740.51
-7741.18
-7741.98
-7742.83
-7743.66
-7744.4
-7744.97
-7745.33
-7745.45
-7745.32
-7744.95
-7744.39
-7743.69
-7742.94
-7742.21
-7741.59
-7741.15
-7740.92
-7740.94
-7741.19
-7741.63
-7742.18
-7742.84
-7743.4
-7743.83
-7744.08
-7744.11
-7743.94
-7743.6
-7743.16
-7742.58
-7742.17
-7741.87
-7741.74
-7741.81
-7742.04
-7742.38
-7742.77
-7743.12
-7743.37
-7743.47
-7743.43
-7743.27
-7743.05
-7742.84
-7742.7
-7742.65
-7742.69
-7742.81
-7742.93
-7743.01
-8098.28
-8098.26
-8098.22
-8098.2
-8098.19
-8098.26
-8098.45
-8098.53
-8082.52
-8082.89
-8082.93
-8083.18
-8083.53
-8083.93
-8084.39
-8084.87
-8085.36
-8085.87
-8086.39
-8086.91
-8087.44
-8087.96
-8088.48
-8088.99
-8089.5
-8090
-8090.48
-8090.94
-8091.38
-8091.79
-8092.18
-8092.52
-8092.84
-8093.11
-8093.33
-8093.5
-8093.63
-8093.69
-8093.71
-8093.66
-8093.55
-8093.38
-8093.14
-8092.85
-8092.5
-8092.09
-8091.63
-8091.11
-8090.56
-8089.96
-8089.33
-8088.67
-8087.99
-8087.31
-8086.62
-8085.95
-8085.29
-8084.67
-8084.09
-8083.56
-8083.09
-8082.69
-8082.37
-8082.13
-8082
-8081.96
-8082.02
-8082.18
-8082.45
-8082.82
-8083.28
-8083.83
-8084.46
-8085.16
-8085.91
-8086.7
-8087.5
-8088.31
-8089.1
-8089.85
-8090.54
-8091.14
-8091.66
-8092.05
-8092.32
-8092.45
-8092.44
-8092.27
-8091.96
-8091.51
-8090.93
-8090.24
-8089.45
-8088.61
-8087.72
-8086.84
-8085.99
-8085.2
-8084.51
-8083.95
-8083.55
-8083.33
-8083.3
-8083.47
-8083.83
-8084.37
-8085.06
-8085.88
-8086.79
-8087.74
-8088.68
-8089.55
-8090.31
-8090.92
-8091.33
-8091.52
-8091.47
-8091.18
-8090.67
-8089.96
-8089.1
-8088.15
-8087.13
-8086.18
-8085.33
-8084.64
-8084.18
-8083.97
-8084.03
-8084.37
-8084.95
-8085.73
-8086.65
-8087.63
-8088.58
-8089.42
-8090.07
-8090.48
-8090.61
-8090.45
-8090.02
-8089.36
-8088.56
-8087.68
-8086.85
-8086.15
-8085.65
-8085.4
-8085.43
-8085.73
-8086.24
-8086.89
-8087.64
-8088.28
-8088.77
-8089.05
-8089.09
-8088.88
-8088.48
-8087.98
-8087.3
-8086.83
-8086.49
-8086.35
-8086.43
-8086.7
-8087.1
-8087.55
-8087.95
-8088.23
-8088.34
-8088.28
-8088.08
-8087.83
-8087.58
-8087.42
-8087.37
-8087.43
-8087.56
-8087.71
-8087.81
-8408.44
-8408.42
-8408.39
-8408.35
-8408.26
-8408.19
-8408.15
-8407.94
-8388.01
-8388.5
-8388.65
-8388.97
-8389.34
-8389.72
-8390.15
-8390.61
-8391.09
-8391.6
-8392.13
-8392.67
-8393.22
-8393.77
-8394.32
-8394.88
-8395.43
-8395.97
-8396.49
-8397
-8397.48
-8397.93
-8398.36
-8398.74
-8399.08
-8399.38
-8399.62
-8399.81
-8399.94
-8400.01
-8400.02
-8399.96
-8399.82
-8399.63
-8399.36
-8399.02
-8398.62
-8398.15
-8397.62
-8397.03
-8396.4
-8395.72
-8395
-8394.25
-8393.49
-8392.71
-8391.93
-8391.17
-8390.43
-8389.72
-8389.06
-8388.46
-8387.93
-8387.48
-8387.12
-8386.86
-8386.7
-8386.66
-8386.73
-8386.92
-8387.22
-8387.64
-8388.17
-8388.8
-8389.51
-8390.31
-8391.16
-8392.05
-8392.96
-8393.88
-8394.77
-8395.61
-8396.39
-8397.08
-8397.65
-8398.1
-8398.4
-8398.54
-8398.52
-8398.33
-8397.97
-8397.45
-8396.79
-8396
-8395.11
-8394.15
-8393.14
-8392.14
-8391.17
-8390.28
-8389.5
-8388.87
-8388.42
-8388.17
-8388.14
-8388.33
-8388.74
-8389.36
-8390.16
-8391.09
-8392.12
-8393.2
-8394.26
-8395.26
-8396.12
-8396.81
-8397.27
-8397.48
-8397.42
-8397.09
-8396.5
-8395.7
-8394.72
-8393.64
-8392.48
-8391.4
-8390.44
-8389.67
-8389.15
-8388.92
-8389
-8389.38
-8390.05
-8390.94
-8391.98
-8393.09
-8394.16
-8395.1
-8395.84
-8396.29
-8396.43
-8396.24
-8395.74
-8394.99
-8394.07
-8393.09
-8392.15
-8391.36
-8390.8
-8390.53
-8390.58
-8390.93
-8391.52
-8392.26
-8393.1
-8393.82
-8394.38
-8394.69
-8394.72
-8394.48
-8394.02
-8393.44
-8392.69
-8392.16
-8391.77
-8391.62
-8391.71
-8392.03
-8392.48
-8392.99
-8393.44
-8393.75
-8393.86
-8393.78
-8393.56
-8393.26
-8392.98
-8392.79
-8392.74
-8392.82
-8392.98
-8393.15
-8393.27
-8683.25
-8683.24
-8683.21
-8683.19
-8683.15
-8683.13
-8683.11
-8683.06
-8659.24
-8659.51
-8659.64
-8659.86
-8660.19
-8660.54
-8660.96
-8661.4
-8661.88
-8662.39
-8662.97
-8663.52
-8664.1
-8664.68
-8665.28
-8665.87
-8666.47
-8667.05
-8667.62
-8668.17
-8668.7
-8669.2
-8669.66
-8670.08
-8670.45
-8670.77
-8671.04
-8671.24
-8671.38
-8671.46
-8671.46
-8671.38
-8671.23
-8671
-8670.7
-8670.32
-8669.86
-8669.34
-8668.74
-8668.09
-8667.37
-8666.61
-8665.81
-8664.97
-8664.11
-8663.24
-8662.38
-8661.52
-8660.69
-8659.91
-8659.17
-8658.5
-8657.91
-8657.41
-8657.01
-8656.72
-8656.55
-8656.5
-8656.58
-8656.8
-8657.14
-8657.61
-8658.2
-8658.91
-8659.71
-8660.59
-8661.55
-8662.54
-8663.56
-8664.58
-8665.58
-8666.52
-8667.39
-8668.15
-8668.79
-8669.28
-8669.62
-8669.77
-8669.74
-8669.52
-8669.12
-8668.54
-8667.79
-8666.91
-8665.91
-8664.83
-8663.7
-8662.58
-8661.49
-8660.5
-8659.63
-8658.92
-8658.42
-8658.15
-8658.12
-8658.34
-8658.8
-8659.5
-8660.39
-8661.44
-8662.6
-8663.81
-8665
-8666.1
-8667.07
-8667.83
-8668.35
-8668.58
-8668.51
-8668.13
-8667.47
-8666.57
-8665.48
-8664.28
-8662.96
-8661.76
-8660.7
-8659.84
-8659.26
-8659.01
-8659.1
-8659.54
-8660.29
-8661.29
-8662.45
-8663.68
-8664.88
-8665.93
-8666.74
-8667.24
-8667.38
-8667.16
-8666.59
-8665.75
-8664.73
-8663.62
-8662.58
-8661.7
-8661.09
-8660.8
-8660.87
-8661.27
-8661.93
-8662.77
-8663.7
-8664.5
-8665.12
-8665.47
-8665.49
-8665.21
-8664.69
-8664.03
-8663.22
-8662.62
-8662.19
-8662.02
-8662.14
-8662.49
-8663.01
-8663.57
-8664.07
-8664.41
-8664.53
-8664.43
-8664.17
-8663.83
-8663.52
-8663.31
-8663.25
-8663.35
-8663.54
-8663.74
-8663.87
-8926.72
-8926.72
-8926.7
-8926.69
-8926.67
-8926.67
-8926.65
-8926.63
-8899.17
-8899.38
-8899.54
-8899.71
-8900.05
-8900.37
-8900.79
-8901.23
-8901.73
-8902.27
-8902.84
-8903.44
-8904.05
-8904.68
-8905.31
-8905.95
-8906.59
-8907.23
-8907.84
-8908.44
-8909.01
-8909.55
-8910.05
-8910.51
-8910.91
-8911.26
-8911.55
-8911.77
-8911.92
-8912
-8911.99
-8911.9
-8911.73
-8911.48
-8911.14
-8910.72
-8910.21
-8909.63
-8908.97
-8908.24
-8907.45
-8906.61
-8905.72
-8904.8
-8903.85
-8902.89
-8901.94
-8900.99
-8900.08
-8899.21
-8898.4
-8897.66
-8897.01
-8896.46
-8896.02
-8895.71
-8895.52
-8895.47
-8895.57
-8895.81
-8896.19
-8896.71
-8897.37
-8898.14
-8899.03
-8900.01
-8901.06
-8902.16
-8903.29
-8904.41
-8905.5
-8906.54
-8907.5
-8908.34
-8909.04
-8909.58
-8909.94
-8910.11
-8910.07
-8909.82
-8909.37
-8908.73
-8907.9
-8906.92
-8905.81
-8904.62
-8903.37
-8902.13
-8900.94
-8899.83
-8898.87
-8898.1
-8897.55
-8897.25
-8897.22
-8897.47
-8897.99
-8898.76
-8899.75
-8900.91
-8902.19
-8903.53
-8904.84
-8906.07
-8907.13
-8907.97
-8908.54
-8908.79
-8908.71
-8908.29
-8907.55
-8906.55
-8905.35
-8904.03
-8902.55
-8901.25
-8900.08
-8899.14
-8898.5
-8898.23
-8898.34
-8898.83
-8899.66
-8900.76
-8902.04
-8903.4
-8904.72
-8905.87
-8906.76
-8907.3
-8907.45
-8907.19
-8906.56
-8905.63
-8904.5
-8903.28
-8902.13
-8901.17
-8900.5
-8900.19
-8900.27
-8900.73
-8901.47
-8902.4
-8903.42
-8904.31
-8904.99
-8905.36
-8905.38
-8905.07
-8904.48
-8903.74
-8902.86
-8902.2
-8901.73
-8901.55
-8901.68
-8902.08
-8902.65
-8903.27
-8903.82
-8904.19
-8904.31
-8904.2
-8903.9
-8903.52
-8903.17
-8902.94
-8902.89
-8902.99
-8903.21
-8903.44
-8903.58
-9142.43
-9142.42
-9142.42
-9142.41
-9142.4
-9142.4
-9142.38
-9142.38
-9111.59
-9111.77
-9111.98
-9112.02
-9112.46
-9112.74
-9113.2
-9113.62
-9114.17
-9114.73
-9115.33
-9115.95
-9116.6
-9117.27
-9117.96
-9118.65
-9119.33
-9120.01
-9120.68
-9121.32
-9121.94
-9122.52
-9123.06
-9123.55
-9123.99
-9124.36
-9124.67
-9124.91
-9125.07
-9125.15
-9125.14
-9125.04
-9124.85
-9124.57
-9124.2
-9123.73
-9123.18
-9122.54
-9121.82
-9121.02
-9120.16
-9119.24
-9118.27
-9117.26
-9116.23
-9115.18
-9114.14
-9113.11
-9112.12
-9111.17
-9110.29
-9109.48
-9108.78
-9108.18
-9107.7
-9107.36
-9107.16
-9107.11
-9107.21
-9107.48
-9107.9
-9108.47
-9109.19
-9110.04
-9111.01
-9112.07
-9113.22
-9114.42
-9115.65
-9116.88
-9118.07
-9119.2
-9120.24
-9121.15
-9121.91
-9122.5
-9122.89
-9123.07
-9123.03
-9122.75
-9122.26
-9121.55
-9120.64
-9119.57
-9118.36
-9117.05
-9115.69
-9114.33
-9113.03
-9111.82
-9110.78
-9109.94
-9109.34
-9109.01
-9108.98
-9109.26
-9109.83
-9110.68
-9111.77
-9113.04
-9114.44
-9115.9
-9117.34
-9118.67
-9119.83
-9120.75
-9121.36
-9121.63
-9121.53
-9121.07
-9120.27
-9119.17
-9117.85
-9116.42
-9114.8
-9113.38
-9112.11
-9111.09
-9110.4
-9110.11
-9110.23
-9110.77
-9111.68
-9112.89
-9114.29
-9115.77
-9117.2
-9118.45
-9119.41
-9120
-9120.15
-9119.86
-9119.17
-9118.14
-9116.9
-9115.58
-9114.33
-9113.28
-9112.56
-9112.23
-9112.34
-9112.84
-9113.66
-9114.68
-9115.79
-9116.75
-9117.49
-9117.89
-9117.91
-9117.56
-9116.91
-9116.09
-9115.16
-9114.42
-9113.92
-9113.72
-9113.87
-9114.31
-9114.94
-9115.62
-9116.21
-9116.61
-9116.74
-9116.6
-9116.27
-9115.85
-9115.47
-9115.22
-9115.16
-9115.29
-9115.53
-9115.78
-9115.95
-9333.52
-9333.52
-9333.51
-9333.51
-9333.5
-9333.5
-9333.49
-9333.49
-9299.67
-9299.82
-9300.06
-9300.08
-9300.55
-9300.77
-9301.3
-9301.77
-9302.32
-9302.9
-9303.53
-9304.2
-9304.89
-9305.6
-9306.33
-9307.07
-9307.8
-9308.53
-9309.24
-9309.94
-9310.6
-9311.22
-9311.8
-9312.33
-9312.79
-9313.19
-9313.52
-9313.78
-9313.95
-9314.03
-9314.02
-9313.91
-9313.7
-9313.39
-9312.99
-9312.48
-9311.88
-9311.19
-9310.41
-9309.55
-9308.62
-9307.62
-9306.57
-9305.48
-9304.37
-9303.24
-9302.11
-9301
-9299.93
-9298.91
-9297.95
-9297.09
-9296.32
-9295.68
-9295.17
-9294.8
-9294.59
-9294.53
-9294.65
-9294.94
-9295.4
-9296.02
-9296.79
-9297.71
-9298.76
-9299.92
-9301.16
-9302.45
-9303.78
-9305.11
-9306.39
-9307.61
-9308.73
-9309.72
-9310.54
-9311.17
-9311.59
-9311.77
-9311.72
-9311.42
-9310.88
-9310.11
-9309.13
-9307.97
-9306.66
-9305.24
-9303.77
-9302.3
-9300.89
-9299.59
-9298.46
-9297.55
-9296.91
-9296.56
-9296.53
-9296.84
-9297.46
-9298.38
-9299.56
-9300.94
-9302.45
-9304.03
-9305.59
-9307.03
-9308.28
-9309.27
-9309.93
-9310.22
-9310.11
-9309.6
-9308.73
-9307.54
-9306.11
-9304.57
-9302.82
-9301.29
-9299.92
-9298.82
-9298.08
-9297.77
-9297.91
-9298.49
-9299.48
-9300.78
-9302.3
-9303.9
-9305.44
-9306.79
-9307.82
-9308.44
-9308.6
-9308.28
-9307.52
-9306.41
-9305.07
-9303.64
-9302.29
-9301.17
-9300.4
-9300.05
-9300.17
-9300.73
-9301.62
-9302.73
-9303.92
-9304.96
-9305.75
-9306.18
-9306.19
-9305.8
-9305.09
-9304.2
-9303.21
-9302.42
-9301.87
-9301.67
-9301.84
-9302.32
-9303
-9303.73
-9304.37
-9304.79
-9304.92
-9304.77
-9304.4
-9303.94
-9303.53
-9303.26
-9303.2
-9303.35
-9303.61
-9303.89
-9304.07
-9502.8
-9502.8
-9502.79
-9502.79
-9502.79
-9502.79
-9502.78
-9502.78
-9466.2
-9466.34
-9466.58
-9466.62
-9467.1
-9467.36
-9467.87
-9468.38