/*--------------------------------*- C++ -*----------------------------------*\
  =========                 |
  \\      /  F ield         | OpenFOAM: The Open Source CFD Toolbox
   \\    /   O peration     | Website:  https://openfoam.org
    \\  /    A nd           | Version:  12
     \\/     M anipulation  |
\*---------------------------------------------------------------------------*/
FoamFile
{
    format      ascii;
    class       volVectorField;
    location    "14.64";
    object      zeta;
}
// * * * * * * * * * * * * * * * * * * * * * * * * * * * * * * * * * * * * * //

dimensions      [0 1 0 0 0 0 0];

internalField   uniform (0 0 0);

boundaryField
{
    freeSurface
    {
        type            calculated;
        value           nonuniform List<vector> 
181
(
(0 -0.00387595 0)
(0 -0.00387548 0)
(0 -0.00387515 0)
(0 -0.00387532 0)
(0 -0.00387479 0)
(0 -0.0038754 0)
(0 -0.00387475 0)
(0 -0.00387563 0)
(0 0.000452623 0)
(0 0.000440918 0)
(0 0.000420616 0)
(0 0.00039817 0)
(0 0.000359696 0)
(0 0.000317122 0)
(0 0.000263786 0)
(0 0.000204649 0)
(0 0.000138075 0)
(0 6.62597e-05 0)
(0 -1.08558e-05 0)
(0 -9.26542e-05 0)
(0 -0.000178449 0)
(0 -0.000267341 0)
(0 -0.000358249 0)
(0 -0.000450036 0)
(0 -0.000541654 0)
(0 -0.000632188 0)
(0 -0.000720853 0)
(0 -0.000806805 0)
(0 -0.000889099 0)
(0 -0.000966709 0)
(0 -0.0010386 0)
(0 -0.00110384 0)
(0 -0.0011617 0)
(0 -0.00121128 0)
(0 -0.0012519 0)
(0 -0.0012828 0)
(0 -0.00130328 0)
(0 -0.00131263 0)
(0 -0.00131041 0)
(0 -0.00129618 0)
(0 -0.00126965 0)
(0 -0.00123069 0)
(0 -0.00117921 0)
(0 -0.0011153 0)
(0 -0.00103928 0)
(0 -0.000951647 0)
(0 -0.000853138 0)
(0 -0.000744466 0)
(0 -0.000626829 0)
(0 -0.000501313 0)
(0 -0.000369364 0)
(0 -0.000232453 0)
(0 -9.22133e-05 0)
(0 4.9477e-05 0)
(0 0.000190808 0)
(0 0.000329774 0)
(0 0.00046429 0)
(0 0.000592176 0)
(0 0.000711272 0)
(0 0.000819447 0)
(0 0.000914665 0)
(0 0.000994946 0)
(0 0.0010585 0)
(0 0.00110386 0)
(0 0.00112962 0)
(0 0.00113496 0)
(0 0.00111914 0)
(0 0.00108205 0)
(0 0.00102375 0)
(0 0.000944899 0)
(0 0.000846573 0)
(0 0.000730266 0)
(0 0.000597991 0)
(0 0.000452282 0)
(0 0.000296117 0)
(0 0.000132901 0)
(0 -3.37337e-05 0)
(0 -0.000199829 0)
(0 -0.000361319 0)
(0 -0.000513931 0)
(0 -0.000653656 0)
(0 -0.000776379 0)
(0 -0.000878529 0)
(0 -0.000956623 0)
(0 -0.00100802 0)
(0 -0.0010305 0)
(0 -0.00102263 0)
(0 -0.000983938 0)
(0 -0.000914814 0)
(0 -0.000816689 0)
(0 -0.000692123 0)
(0 -0.000544666 0)
(0 -0.000378577 0)
(0 -0.000199868 0)
(0 -1.45799e-05 0)
(0 0.000170506 0)
(0 0.000348487 0)
(0 0.000511926 0)
(0 0.000653737 0)
(0 0.000767593 0)
(0 0.000848053 0)
(0 0.000890548 0)
(0 0.000892435 0)
(0 0.000853068 0)
(0 0.000773049 0)
(0 0.000655584 0)
(0 0.000505924 0)
(0 0.000330796 0)
(0 0.000138792 0)
(0 -6.00793e-05 0)
(0 -0.000255707 0)
(0 -0.000437312 0)
(0 -0.000594536 0)
(0 -0.000717787 0)
(0 -0.00079978 0)
(0 -0.000834504 0)
(0 -0.000818996 0)
(0 -0.000753893 0)
(0 -0.00064242 0)
(0 -0.00049103 0)
(0 -0.000309341 0)
(0 -0.000109088 0)
(0 9.55891e-05 0)
(0 0.000291791 0)
(0 0.000465046 0)
(0 0.000602531 0)
(0 0.000693741 0)
(0 0.00073109 0)
(0 0.000711678 0)
(0 0.000636278 0)
(0 0.000510905 0)
(0 0.000345567 0)
(0 0.000154709 0)
(0 -4.53466e-05 0)
(0 -0.000237601 0)
(0 -0.000405245 0)
(0 -0.00053283 0)
(0 -0.000608562 0)
(0 -0.000625557 0)
(0 -0.000582724 0)
(0 -0.000485033 0)
(0 -0.000343358 0)
(0 -0.000173485 0)
(0 4.89149e-06 0)
(0 0.000173186 0)
(0 0.000312513 0)
(0 0.000407121 0)
(0 0.000446918 0)
(0 0.000428607 0)
(0 0.000356226 0)
(0 0.000240742 0)
(0 9.93636e-05 0)
(0 -4.6583e-05 0)
(0 -0.000178431 0)
(0 -0.000276938 0)
(0 -0.000328603 0)
(0 -0.000327466 0)
(0 -0.000275854 0)
(0 -0.000183989 0)
(0 -6.85792e-05 0)
(0 4.90065e-05 0)
(0 0.000150637 0)
(0 0.000218625 0)
(0 0.000242156 0)
(0 0.000219316 0)
(0 0.000157111 0)
(0 7.00204e-05 0)
(0 -2.27421e-05 0)
(0 -0.00010195 0)
(0 -0.000153093 0)
(0 -0.000167105 0)
(0 -0.000144859 0)
(0 -9.61716e-05 0)
(0 -3.67374e-05 0)
(0 1.62342e-05 0)
(0 4.90628e-05 0)
(0 5.47796e-05 0)
(0 3.48299e-05 0)
(0 -1.02003e-06 0)
(0 -3.80929e-05 0)
(0 -6.15561e-05 0)
)
;
    }
    walls
    {
        type            calculated;
        value           uniform (0 0 0);
    }
    floatingObject
    {
        type            calculated;
        value           uniform (0 0 0);
    }
    frontAndBack
    {
        type            empty;
    }
}


// ************************************************************************* //
