/*--------------------------------*- C++ -*----------------------------------*\
  =========                 |
  \\      /  F ield         | OpenFOAM: The Open Source CFD Toolbox
   \\    /   O peration     | Website:  https://openfoam.org
    \\  /    A nd           | Version:  12
     \\/     M anipulation  |
\*---------------------------------------------------------------------------*/
FoamFile
{
    format      ascii;
    class       surfaceScalarField;
    location    "5.9";
    object      phi;
}
// * * * * * * * * * * * * * * * * * * * * * * * * * * * * * * * * * * * * * //

dimensions      [1 0 -1 0 0 0 0];

internalField   nonuniform List<scalar> 
7429
(
0.000159604
-0.000159604
0.000321598
-0.000161994
0.000486185
-0.000164587
0.000653755
-0.00016757
0.000824687
-0.000170932
0.000999352
-0.000174666
0.00117808
-0.000178729
0.00136115
-0.000183069
0.00154881
-0.000187659
0.00174122
-0.000192409
0.00193843
-0.000197214
0.00214042
-0.000201984
0.00234706
-0.000206641
0.00255812
-0.000211063
0.00277319
-0.000215069
0.00299179
-0.000218596
0.0032134
-0.000221613
0.00343754
-0.000224135
0.0036634
-0.00022586
0.00389014
-0.000226742
0.00411675
-0.000226606
0.00434215
-0.000225408
0.00456523
-0.000223072
0.00478468
-0.000219454
0.00499922
-0.000214544
0.00520748
-0.000208256
0.0054081
-0.000200621
0.00559976
-0.000191658
0.00578115
-0.000181392
0.00595092
-0.000169767
0.00610765
-0.00015673
0.00625019
-0.000142536
0.00637736
-0.000127177
0.00648804
-0.000110672
0.00658126
-9.32199e-05
0.00665612
-7.48641e-05
0.00671214
-5.60184e-05
0.00674897
-3.68371e-05
0.00676636
-1.73879e-05
0.00676315
3.21612e-06
0.00673871
2.44324e-05
0.00669313
4.55808e-05
0.00662644
6.669e-05
0.00653881
8.76338e-05
0.00643055
0.000108259
0.00630212
0.000128431
0.00615408
0.000148037
0.00598714
0.000166941
0.00580211
0.000185029
0.00559993
0.000202183
0.00538164
0.00021829
0.00514841
0.000233234
0.00490154
0.000246863
0.00464247
0.000259076
0.00437277
0.000269698
0.00409402
0.000278751
0.00380826
0.000285754
0.0035171
0.000291163
0.00322279
0.000294316
0.00292711
0.000295678
0.00263242
0.000294688
0.00234083
0.000291592
0.0020546
0.000286228
0.00177595
0.00027865
0.001507
0.000268948
0.00124998
0.000257026
0.00100688
0.000243093
0.000779727
0.000227156
0.000570433
0.000209293
0.000380762
0.000189672
0.000212029
0.000168733
6.55875e-05
0.000146441
-5.7581e-05
0.000123168
-0.000156833
9.92517e-05
-0.000231676
7.48438e-05
-0.000282093
5.04162e-05
-0.000308386
2.62931e-05
-0.000311005
2.61953e-06
-0.00028974
-2.12651e-05
-0.000247071
-4.26693e-05
-0.00018473
-6.23414e-05
-0.000104832
-7.9898e-05
-9.64666e-06
-9.51849e-05
9.8334e-05
-0.000107981
0.000216037
-0.000117703
0.000340334
-0.000124297
0.000467831
-0.000127497
0.000595143
-0.000127312
0.000718831
-0.000123688
0.000835548
-0.000116718
0.00094201
-0.000106462
0.00103516
-9.31491e-05
0.00111229
-7.71267e-05
0.00117105
-5.87619e-05
0.00120954
-3.84939e-05
0.00122663
-1.70848e-05
0.00121908
7.54535e-06
0.00118741
3.16716e-05
0.0011331
5.43088e-05
0.00105768
7.54176e-05
0.00096286
9.48232e-05
0.000850875
0.000111985
0.0007247
0.000126175
0.000587697
0.000137003
0.000443781
0.000143915
0.000297203
0.000146578
0.000152379
0.000144824
1.37477e-05
0.000138631
-0.000114339
0.000128087
-0.000227842
0.000113503
-0.000323143
9.53006e-05
-0.000397233
7.40907e-05
-0.000447941
5.07076e-05
-0.000473899
2.59581e-05
-0.000473868
-3.08176e-08
-0.000447367
-2.65006e-05
-0.000397474
-4.98939e-05
-0.000326856
-7.06171e-05
-0.000238736
-8.81203e-05
-0.000137215
-0.000101521
-2.69149e-05
-0.000110301
8.67211e-05
-0.000113636
0.000198382
-0.000111661
0.000302691
-0.000104309
0.000394551
-9.18601e-05
0.000469424
-7.48728e-05
0.000523532
-5.4108e-05
0.000554169
-3.06367e-05
0.000559962
-5.79335e-06
0.000537787
2.21749e-05
0.000490502
4.72855e-05
0.000420445
7.0057e-05
0.000330518
8.9927e-05
0.000224785
0.000105732
0.000107918
0.000116867
-1.46229e-05
0.000122541
-0.000137292
0.000122669
-0.000254584
0.000117293
-0.00036127
0.000106686
-0.000452721
9.14512e-05
-0.00052514
7.24194e-05
-0.000575722
5.0582e-05
-0.000602725
2.70025e-05
-0.000605794
3.06865e-06
-0.000584357
-2.14362e-05
-0.000541226
-4.31313e-05
-0.000478967
-6.22587e-05
-0.000401002
-7.7965e-05
-0.000311381
-8.9621e-05
-0.000214608
-9.67734e-05
-0.000115302
-9.93059e-05
-1.80546e-05
-9.72475e-05
7.28362e-05
-9.08907e-05
0.000153523
-8.0687e-05
0.000220843
-6.73196e-05
0.000272283
-5.14404e-05
0.000306228
-3.39452e-05
0.000321965
-1.57366e-05
0.000319197
2.76763e-06
0.00029909
2.01075e-05
0.000263227
3.58628e-05
0.000213741
4.94856e-05
0.000153364
6.03771e-05
8.51444e-05
6.82199e-05
1.2279e-05
7.28654e-05
-6.18535e-05
7.41325e-05
-0.000134059
7.22058e-05
-0.00020127
6.72106e-05
-0.00026077
5.95e-05
-0.000310271
4.95015e-05
-0.000347885
3.76134e-05
-0.000372351
2.44658e-05
-0.000382871
1.05207e-05
-0.000379148
-3.72343e-06
-0.000361589
-1.75589e-05
-0.000330971
-3.06185e-05
-0.000288536
-4.24347e-05
-0.000235914
-5.26218e-05
-0.000175001
-6.09128e-05
-0.000107962
-6.70394e-05
-3.70463e-05
-7.09155e-05
3.5328e-05
-7.23743e-05
0.00010694
-7.16122e-05
0.00017549
-6.85499e-05
0.000238942
-6.34517e-05
0.000295433
-5.64916e-05
0.000343296
-4.78623e-05
0.000381267
-3.79712e-05
0.000408283
-2.70165e-05
0.000423655
-1.53711e-05
0.000426999
-3.34455e-06
0.000418263
8.73633e-06
0.000397694
2.05686e-05
0.000365825
3.18694e-05
0.00032348
4.23449e-05
0.000271724
5.17554e-05
0.000211884
5.98406e-05
0.000145461
6.64223e-05
7.42026e-05
7.12589e-05
7.42026e-05
0.000132033
-0.000291636
0.000266596
-0.000296557
0.000404123
-0.000302113
0.000545386
-0.000308833
0.000690992
-0.000316537
0.00084168
-0.000325354
0.000997976
-0.000335025
0.00116068
-0.000345775
0.0013305
-0.000357479
0.00150796
-0.000369867
0.00169342
-0.000382669
0.00188713
-0.000395699
0.0020892
-0.000408706
0.00229944
-0.000421304
0.00251764
-0.000433271
0.0027433
-0.000444255
0.0029756
-0.00045391
0.0032134
-0.000461944
0.00345556
-0.000468015
0.00370065
-0.000471828
0.00394719
-0.000473146
0.00419349
-0.00047171
0.00443777
-0.000467357
0.00467818
-0.000459856
0.00491288
-0.000449252
0.00513992
-0.000435293
0.00535747
-0.000418165
0.00556363
-0.000397822
0.00575677
-0.00037453
0.00593533
-0.000348327
0.00609802
-0.000319421
0.00624365
-0.000288165
0.00637115
-0.000254682
0.00647979
-0.000219314
0.00656894
-0.000182364
0.00663807
-0.000143993
0.00668671
-0.000104665
0.00671459
-6.47099e-05
0.00672211
-2.49079e-05
0.00670507
2.02514e-05
0.00666373
6.57788e-05
0.00659932
0.000109989
0.00651278
0.000153232
0.00640485
0.000195562
0.00627621
0.0002369
0.00612753
0.000277106
0.00595953
0.000316037
0.00577298
0.00035349
0.00556879
0.000389225
0.00534792
0.000423044
0.00511153
0.000454687
0.00486088
0.000483885
0.00459732
0.000510422
0.00432239
0.000534006
0.00403769
0.000554398
0.00374496
0.000571482
0.0034462
0.00058451
0.00314316
0.000594199
0.0028381
0.000599381
0.00253308
0.000600696
0.00223037
0.000597397
0.00193227
0.000589695
0.00164105
0.000577445
0.00135903
0.000560673
0.00108847
0.000539501
0.000831642
0.000513859
0.000590664
0.00048407
0.000367713
0.000450107
0.000164436
0.00041257
-1.75051e-05
0.000371612
-0.000176509
0.000327737
-0.000311094
0.000281026
-0.000420444
0.000232518
-0.000503823
0.000182631
-0.00056082
0.000131841
-0.000591693
8.12887e-05
-0.000596946
3.15462e-05
-0.000575097
-1.92292e-05
-0.000530352
-6.60094e-05
-0.00046339
-0.000109632
-0.000376015
-0.000149717
-0.000270387
-0.000185525
-0.000149393
-0.000216179
-1.63368e-05
-0.000241037
0.000125881
-0.00025992
0.000273709
-0.000272126
0.0004235
-0.000277288
0.000571474
-0.000275287
0.000713945
-0.000266158
0.000847136
-0.00024991
0.000967616
-0.000226942
0.00107216
-0.000197695
0.00115785
-0.000162816
0.0012223
-0.000123206
0.00126315
-7.93507e-05
0.0012796
-3.35336e-05
0.00126875
1.83988e-05
0.00123198
6.84379e-05
0.00117043
0.000115857
0.00108551
0.000160342
0.000979243
0.000201089
0.000854337
0.000236892
0.000714253
0.000266259
0.000562946
0.00028831
0.000404874
0.000301988
0.000244791
0.000306661
8.75789e-05
0.000302036
-6.18744e-05
0.000288084
-0.000198794
0.000265006
-0.00031886
0.000233569
-0.000418236
0.000194676
-0.00049362
0.000149475
-0.000542833
9.99209e-05
-0.000564583
4.77081e-05
-0.000556753
-7.86154e-06
-0.000521729
-6.15238e-05
-0.000461431
-0.000110192
-0.000378611
-0.000153437
-0.000277133
-0.000189598
-0.000161777
-0.000216877
-3.80368e-05
-0.000234041
8.85318e-05
-0.000240205
0.000211856
-0.000234985
0.000326141
-0.000218594
0.000425824
-0.000191543
0.000506171
-0.00015522
0.00056344
-0.000111376
0.00059485
-6.20474e-05
0.000598411
-9.35393e-06
0.000573179
4.74072e-05
0.000521508
9.89563e-05
0.000445649
0.000145916
0.000349218
0.000186358
0.000236584
0.000218366
0.000113355
0.000240097
-1.47829e-05
0.000250679
-0.000141983
0.000249869
-0.000262429
0.000237738
-0.000370799
0.000215056
-0.000462421
0.000183073
-0.000533543
0.000143541
-0.000581645
9.86846e-05
-0.000605358
5.07146e-05
-0.000603537
1.24852e-06
-0.00057833
-4.66433e-05
-0.000531266
-9.01958e-05
-0.000465405
-0.000128119
-0.000384463
-0.000158908
-0.000292752
-0.000181332
-0.000194875
-0.00019465
-9.55514e-05
-0.00019863
7.28245e-07
-0.000193527
8.97493e-05
-0.000179912
0.000167904
-0.000158842
0.0002321
-0.000131515
0.00028018
-9.95208e-05
0.000310857
-6.46215e-05
0.000323316
-2.81963e-05
0.000318076
8.00819e-06
0.000296123
4.206e-05
0.000259145
7.28411e-05
0.000209382
9.92484e-05
0.000149598
0.000120162
8.27514e-05
0.000135066
1.21154e-05
0.000143501
-5.92398e-05
0.000145488
-0.00012824
0.000141206
-0.000192029
0.000131
-0.000248112
0.000115583
-0.000294334
9.57235e-05
-0.000329108
7.2388e-05
-0.000351265
4.66225e-05
-0.000360179
1.94344e-05
-0.00035582
-8.08279e-06
-0.000338493
-3.48856e-05
-0.000309081
-6.00304e-05
-0.000268804
-8.27117e-05
-0.000219214
-0.000102212
-0.000162152
-0.000117975
-9.9649e-05
-0.000129542
-3.38151e-05
-0.000136749
3.31508e-05
-0.00013934
9.91478e-05
-0.000137609
0.000162146
-0.000131548
0.000220236
-0.000121542
0.000271758
-0.000108013
0.000315286
-9.13901e-05
0.00034962
-7.23057e-05
0.000373884
-5.12802e-05
0.000387477
-2.89639e-05
0.000390092
-5.95959e-06
0.000381726
1.71019e-05
0.000362616
3.96784e-05
0.00033329
6.1196e-05
0.000294508
8.1127e-05
0.00024726
9.90028e-05
0.000192708
0.000114393
0.00013226
0.00012687
6.74535e-05
0.000136065
0.000141656
6.22608e-05
-0.000353896
0.000126951
-0.000361247
0.000195916
-0.000371077
0.000271044
-0.000383961
0.000354403
-0.000399895
0.000447932
-0.000418883
0.000553514
-0.000440607
0.000672792
-0.000465052
0.00080699
-0.000491677
0.000956751
-0.000519628
0.00112271
-0.000548627
0.00130544
-0.000578426
0.0015049
-0.000608167
0.00172097
-0.000637372
0.00195321
-0.00066551
0.00220063
-0.000691677
0.00246198
-0.000715261
0.0027355
-0.000735461
0.00301914
-0.000751655
0.00331053
-0.000763218
0.00360699
-0.000769609
0.00390569
-0.000770407
0.00420373
-0.000765397
0.00449794
-0.000754065
0.00478537
-0.000736682
0.00506292
-0.000712844
0.00532788
-0.000683123
0.00557769
-0.000647629
0.00581038
-0.000607223
0.00602394
-0.000561884
0.00621652
-0.000512004
0.00638656
-0.000458204
0.00653232
-0.000400446
0.00665274
-0.000339733
0.00674738
-0.000276997
0.00681651
-0.000213126
0.00686028
-0.000148432
0.00687887
-8.33036e-05
0.0068721
-1.81364e-05
0.00683877
5.35801e-05
0.00678208
0.000122469
0.00670137
0.000190698
0.00659661
0.000257988
0.00646815
0.00032403
0.00631654
0.000388504
0.00614261
0.000451036
0.00594726
0.000511388
0.00573153
0.000569225
0.00549654
0.000624213
0.00524357
0.000676009
0.00497401
0.000724251
0.00468931
0.000768589
0.00439124
0.000808492
0.00408128
0.000843963
0.00376164
0.000874034
0.00343431
0.000898816
0.00310139
0.000917427
0.00276517
0.000930417
0.00242826
0.000936292
0.0020926
0.000936356
0.00176133
0.000928668
0.00143674
0.000914284
0.00112132
0.000892867
0.000818228
0.000863763
0.000529649
0.000828081
0.000258092
0.000785416
5.76417e-06
0.000736398
-0.00022476
0.000680631
-0.000431128
0.000618939
-0.000611363
0.000551848
-0.000764075
0.000480449
-0.000887839
0.00040479
-0.00098155
0.000326229
-0.00104469
0.000245773
-0.00107769
0.000164839
-0.00107978
8.33757e-05
-0.00105043
2.19529e-06
-0.00099336
-7.62965e-05
-0.000909284
-0.000150086
-0.000799978
-0.000218937
-0.000667823
-0.000281872
-0.000516211
-0.000337138
-0.000348171
-0.000384219
-0.000167456
-0.000421752
2.18017e-05
-0.000449177
0.000215382
-0.000465706
0.000408811
-0.000470716
0.000597576
-0.000464052
0.00077729
-0.000445872
0.000943617
-0.000416236
0.00109243
-0.000375759
0.00121987
-0.000325136
0.00132266
-0.000265599
0.00139831
-0.000198855
0.00144492
-0.000125962
0.00145968
-4.82988e-05
0.00144173
3.63531e-05
0.00139289
0.000117273
0.00131404
0.000194708
0.00120683
0.00026755
0.0010741
0.000333823
0.000919532
0.00039146
0.000747488
0.000438303
0.000563063
0.000472735
0.000371771
0.00049328
0.000179456
0.000498976
-7.87418e-06
0.000489366
-0.000184329
0.000464539
-0.000344168
0.000424846
-0.000482236
0.000371637
-0.000593834
0.000306274
-0.000675822
0.000231463
-0.000725165
0.000149264
-0.0007405
6.3043e-05
-0.000720778
-2.75835e-05
-0.000669076
-0.000113225
-0.000587331
-0.000191937
-0.000479235
-0.000261533
-0.000349878
-0.000318955
-0.000205134
-0.000361622
-5.17005e-05
-0.000387474
0.000103267
-0.000395172
0.000252652
-0.000384371
0.000389452
-0.000355394
0.000507405
-0.000309496
0.000601011
-0.000248826
0.000665712
-0.000176077
0.000698682
-9.50173e-05
0.000699139
-9.81171e-06
0.000666182
8.03646e-05
0.000602753
0.000162385
0.000511801
0.000236868
0.000397969
0.00030019
0.000267137
0.000349199
0.00012559
0.000381643
-1.99879e-05
0.000396257
-0.000162484
0.000392365
-0.000295488
0.000370742
-0.000413105
0.000332673
-0.000510416
0.000280384
-0.000583679
0.000216804
-0.000630634
0.000145639
-0.00064971
6.97908e-05
-0.000641421
-7.03978e-06
-0.000607853
-8.02113e-05
-0.000551251
-0.000146798
-0.000475265
-0.000204105
-0.000384396
-0.000249777
-0.000283499
-0.000282229
-0.000177625
-0.000300523
-7.18754e-05
-0.00030438
2.90535e-05
-0.000294456
0.000120892
-0.00027175
0.000200004
-0.000237954
0.000263617
-0.000195128
0.000309704
-0.000145608
0.000337165
-9.20827e-05
0.000345809
-3.68404e-05
0.000336385
1.74323e-05
0.000310099
6.83462e-05
0.00026894
0.000114
0.000215588
0.0001526
0.000152795
0.000182955
8.37238e-05
0.000204137
1.17586e-05
0.000215467
-6.01429e-05
0.000217389
-0.000128909
0.000209971
-0.000191772
0.000193863
-0.000246413
0.000170224
-0.000290861
0.000140172
-0.000323688
0.000105215
-0.000343936
6.68708e-05
-0.00035116
2.66589e-05
-0.000345463
-1.37807e-05
-0.000327318
-5.30303e-05
-0.000297678
-8.96702e-05
-0.000257847
-0.000122542
-0.000209384
-0.000150675
-0.000154132
-0.000173228
-9.40531e-05
-0.000189621
-3.11891e-05
-0.000199613
3.24091e-05
-0.000202938
9.47193e-05
-0.000199919
0.000153881
-0.00019071
0.000208148
-0.000175809
0.000255992
-0.000155857
0.000296164
-0.000131562
0.000327598
-0.000103741
0.000349551
-7.32331e-05
0.000361519
-4.09316e-05
0.0003633
-7.74098e-06
0.000354908
2.54948e-05
0.000336641
5.7945e-05
0.000309023
8.88142e-05
0.000272738
0.000117412
0.000228757
0.000142983
0.000178168
0.000164983
0.000122208
0.00018283
6.23112e-05
0.000195962
0.000203967
-4.014e-05
-0.000313756
-7.68874e-05
-0.000324499
-0.00010624
-0.000341724
-0.000123898
-0.000366302
-0.000125487
-0.000398307
-0.000106636
-0.000437733
-6.32092e-05
-0.000484033
8.49706e-06
-0.000536758
0.000111136
-0.000594316
0.000247095
-0.000655586
0.000416933
-0.000718465
0.000620334
-0.000781826
0.000856366
-0.000844199
0.00112241
-0.000903415
0.00141708
-0.000960186
0.00173934
-0.00101393
0.00208674
-0.00106267
0.00245588
-0.0011046
0.00284313
-0.0011389
0.00324405
-0.00116414
0.00365361
-0.00117917
0.00406656
-0.00118335
0.00447741
-0.00117626
0.0048807
-0.00115735
0.00527066
-0.00112664
0.00564206
-0.00108425
0.00598959
-0.00103065
0.00630947
-0.000967511
0.00659727
-0.000895018
0.0068513
-0.000815914
0.00706997
-0.000730677
0.00725306
-0.000641295
0.00740143
-0.000548815
0.00751584
-0.000454142
0.00759716
-0.000358314
0.00764618
-0.000262145
0.00766404
-0.000166297
0.00765238
-7.16386e-05
0.00760328
3.09556e-05
0.00752246
0.000134405
0.00741183
0.000233095
0.00727381
0.000328724
0.00711005
0.000421749
0.00692193
0.000512149
0.00671067
0.000599766
0.00647713
0.000684577
0.00622239
0.000766126
0.00594779
0.00084382
0.00565433
0.000917675
0.0053433
0.000987037
0.00501586
0.00105169
0.00467382
0.00111063
0.00431916
0.00116315
0.00395368
0.00120944
0.00357913
0.00124858
0.00319815
0.0012798
0.00281298
0.00130259
0.00242622
0.00131718
0.00204049
0.00132202
0.00165879
0.00131805
0.00128372
0.00130375
0.000918365
0.00127964
0.000566087
0.00124514
0.000229201
0.00120065
-8.88969e-05
0.00114618
-0.000385044
0.00108156
-0.000656278
0.00100763
-0.000900267
0.00092462
-0.00111447
0.000833137
-0.00129676
0.000734146
-0.0014455
0.000629182
-0.00155913
0.000518419
-0.00163668
0.000403779
-0.00167775
0.000286847
-0.00168143
0.000168518
-0.00164872
5.06693e-05
-0.00158024
-6.62848e-05
-0.00147878
-0.000177762
-0.00134553
-0.000283335
-0.00118324
-0.000381223
-0.000995268
-0.000469845
-0.000785286
-0.00054712
-0.000557709
-0.000611797
-0.000317164
-0.000662296
-6.87097e-05
-0.000697632
0.000182527
-0.000716943
0.000431
-0.000719189
0.000671339
-0.000704391
0.000898066
-0.000672599
0.00110597
-0.000624138
0.00129016
-0.00055995
0.00144629
-0.000481264
0.00157013
-0.000389442
0.00165802
-0.000286744
0.00170801
-0.000175949
0.00172047
-6.07651e-05
0.00169161
6.52201e-05
0.00162449
0.000184392
0.00152023
0.000298967
0.00138144
0.000406338
0.00121194
0.000503327
0.00101658
0.000586816
0.000801094
0.000653789
0.000571805
0.000702024
0.000335718
0.000729367
0.00010027
0.000734425
-0.000127267
0.000716903
-0.000339597
0.000676869
-0.000529668
0.000614917
-0.00069119
0.000533159
-0.000819372
0.000434456
-0.000908981
0.000321071
-0.00095843
0.000198713
-0.000966249
7.08623e-05
-0.000930765
-6.30673e-05
-0.000856183
-0.000187808
-0.000745338
-0.000302782
-0.000603339
-0.000403532
-0.000436717
-0.000485577
-0.00025304
-0.000545299
-6.06924e-05
-0.000579821
0.000131636
-0.0005875
0.000314857
-0.000567591
0.00048079
-0.000521327
0.0006218
-0.000450506
0.000731335
-0.000358361
0.000805335
-0.000250076
0.000840595
-0.000130277
0.000833505
-2.72163e-06
0.000789492
0.000124377
0.000709083
0.000242794
0.000596922
0.000349028
0.000459077
0.000438035
0.000302977
0.000505299
0.000136423
0.000548197
-3.24026e-05
0.000565083
-0.000195384
0.000555346
-0.000345078
0.000520437
-0.000475034
0.000462629
-0.000579995
0.000385344
-0.000656269
0.000293078
-0.000701314
0.000190684
-0.000714895
8.33721e-05
-0.000698051
-2.38832e-05
-0.000653164
-0.000125099
-0.00058362
-0.000216343
-0.000494097
-0.000293628
-0.000389826
-0.000354047
-0.00027639
-0.000395665
-0.000159567
-0.000417346
-4.47611e-05
-0.000419186
6.29864e-05
-0.000402203
0.000159285
-0.000368049
0.000240585
-0.000319254
0.000304199
-0.000258742
0.000348413
-0.000189822
0.000372455
-0.000116125
0.000376605
-4.09903e-05
0.000361927
3.21097e-05
0.000330066
0.000100207
0.000283519
0.000160547
0.000225014
0.000211105
0.000157763
0.000250206
8.50846e-05
0.000276816
1.02713e-05
0.00029028
-6.34827e-05
0.000291143
-0.000133109
0.000279598
-0.000196
0.000256754
-0.000249929
0.000224152
-0.00029312
0.000183363
-0.000324306
0.000136401
-0.000342727
8.52917e-05
-0.000348161
3.2093e-05
-0.000340817
-2.11242e-05
-0.000321354
-7.24936e-05
-0.000290851
-0.000120173
-0.000250683
-0.00016271
-0.000202493
-0.000198866
-0.000148123
-0.000227597
-8.94968e-05
-0.000248247
-2.86055e-05
-0.000260505
3.25501e-05
-0.000264094
9.2099e-05
-0.000259468
0.000148268
-0.000246879
0.000199473
-0.000227014
0.000244318
-0.000200703
0.000281634
-0.000168878
0.000310577
-0.000132683
0.000330476
-9.31323e-05
0.000340943
-5.13986e-05
0.000341834
-8.63192e-06
0.000333275
3.40539e-05
0.000315557
7.56635e-05
0.000289189
0.000115182
0.000254901
0.0001517
0.000213564
0.00018432
0.000166161
0.000212385
0.000113907
0.000235084
5.80528e-05
0.000251816
0.00026202
-0.00022477
-8.89856e-05
-0.000446915
-0.000102354
-0.000659308
-0.000129331
-0.000854904
-0.000170706
-0.00102639
-0.000226825
-0.00116578
-0.000298335
-0.00126268
-0.000387143
-0.00130514
-0.000494297
-0.00129229
-0.000607159
-0.00122052
-0.000727358
-0.00108685
-0.000852141
-0.000889128
-0.000979543
-0.00062716
-0.00110617
-0.000301911
-0.00122866
8.21734e-05
-0.00134427
0.000518522
-0.00145028
0.00100028
-0.00154442
0.00152041
-0.00162474
0.00207113
-0.00168962
0.00264355
-0.00173656
0.00322845
-0.00176407
0.00381607
-0.00177098
0.00439607
-0.00175625
0.00495831
-0.00171959
0.00549252
-0.00166085
0.00598976
-0.00158149
0.00644161
-0.00148249
0.0068431
-0.001369
0.00719081
-0.00124273
0.00748475
-0.00110985
0.00772613
-0.000972059
0.00791684
-0.000832002
0.00805906
-0.000691035
0.00815615
-0.000551235
0.00821148
-0.000413636
0.00822834
-0.000279008
0.00821011
-0.000148072
0.00815744
-1.8965e-05
0.00806518
0.000123212
0.00794656
0.000253031
0.00780063
0.000379023
0.00762762
0.000501735
0.00742815
0.000621221
0.0072028
0.000737492
0.00695268
0.000849888
0.00667884
0.000958417
0.00638219
0.00106278
0.00606375
0.00116225
0.00572473
0.0012567
0.00536686
0.0013449
0.00499208
0.00142648
0.00460179
0.00150092
0.00419722
0.00156772
0.00378175
0.00162492
0.0033569
0.00167342
0.00292537
0.00171134
0.00248975
0.00173821
0.0020536
0.00175334
0.00161984
0.00175577
0.00119137
0.00174653
0.00077206
0.00172305
0.000365029
0.00168667
-2.60544e-05
0.00163623
-0.000397053
0.00157165
-0.000744713
0.00149384
-0.00106563
0.00140248
-0.00135666
0.00129866
-0.00161469
0.00118265
-0.0018369
0.00105535
-0.00202083
0.000918071
-0.0021644
0.000772757
-0.00226621
0.000620226
-0.00232482
0.000462389
-0.0023397
0.000301732
-0.00231256
0.000141375
-0.00224041
-2.14874e-05
-0.00212822
-0.000178471
-0.00197673
-0.000329256
-0.00178875
-0.00047131
-0.00156774
-0.00060223
-0.00131773
-0.00071986
-0.00104346
-0.00082139
-0.000750129
-0.000905126
-0.000443435
-0.00096899
-0.000129628
-0.00101144
0.000184974
-0.00103155
0.000493578
-0.00102779
0.000789741
-0.00100055
0.00106693
-0.000949788
0.00131882
-0.000876024
0.00153963
-0.00078076
0.00172407
-0.000665704
0.00186831
-0.000533681
0.00196884
-0.000387274
0.00202268
-0.000229796
0.00202749
-6.5569e-05
0.00198374
0.000108965
0.00189349
0.000274644
0.00175837
0.000434089
0.0015819
0.000582807
0.00136923
0.000715999
0.00112636
0.000829681
0.000860578
0.000919571
0.000579796
0.000982806
0.000292511
0.00101665
7.92088e-06
0.00101901
-0.000264906
0.00098973
-0.000517183
0.000929146
-0.000740833
0.000838566
-0.000928745
0.000721072
-0.00107369
0.000579404
-0.00117234
0.000419718
-0.00121959
0.000245964
-0.0012154
6.66718e-05
-0.0011614
-0.000117068
-0.00105992
-0.000289289
-0.000915118
-0.000447584
-0.000733948
-0.000584702
-0.000524613
-0.000694912
-0.000296534
-0.000773377
-6.01746e-05
-0.000816181
0.000173309
-0.000820984
0.000393707
-0.000787989
0.000591219
-0.000718839
0.000756484
-0.000615771
0.000882863
-0.00048474
0.000964879
-0.000332093
0.000998833
-0.000164232
0.000984665
1.14467e-05
0.000925557
0.000183485
0.000824213
0.000344138
0.000686794
0.000486447
0.000521097
0.000603733
0.000336319
0.000690077
0.000141693
0.000742823
-5.27525e-05
0.000759528
-0.000237868
0.000740462
-0.000405255
0.000687823
-0.000547824
0.000605198
-0.00066012
0.00049764
-0.000738189
0.000371147
-0.000780349
0.000232844
-0.00078699
9.00129e-05
-0.000759639
-5.12345e-05
-0.000701687
-0.00018305
-0.000617697
-0.000300333
-0.000513217
-0.000398108
-0.000394401
-0.000472863
-0.000267601
-0.000522465
-0.000139105
-0.000545842
-1.49862e-05
-0.000543304
9.96405e-05
-0.00051683
0.000200312
-0.00046872
0.000283473
-0.000402415
0.000346736
-0.000322005
0.000388651
-0.000231737
0.000408892
-0.000136366
0.000408067
-4.01652e-05
0.000387685
5.24923e-05
0.000349893
0.000137999
0.000297414
0.000213027
0.000233468
0.000275051
0.000161429
0.000322244
8.49245e-05
0.000353321
7.07027e-06
0.000368134
-6.84058e-05
0.000366619
-0.000138969
0.000350161
-0.000201915
0.0003197
-0.000255146
0.000277383
-0.000297085
0.000225302
-0.000326625
0.000165942
-0.000343166
0.000101833
-0.00034669
3.56166e-05
-0.00033759
-3.02242e-05
-0.000316703
-9.33804e-05
-0.000285189
-0.000151687
-0.000244489
-0.000203411
-0.000196341
-0.000247014
-0.000142563
-0.000281374
-8.50959e-05
-0.000305715
-2.58655e-05
-0.000319735
3.31905e-05
-0.00032315
9.03226e-05
-0.000316601
0.00014383
-0.000300386
0.000192277
-0.00027546
0.000234401
-0.000242827
0.000269198
-0.000203675
0.000295845
-0.00015933
0.00031387
-0.000111158
0.000322942
-6.04704e-05
0.000323005
-8.69491e-06
0.000314238
4.28208e-05
0.000296943
9.29583e-05
0.000271675
0.00014045
0.000239104
0.000184271
0.000200083
0.000223342
0.000155535
0.000256933
0.000106544
0.000284075
5.42736e-05
0.000304087
0.000316294
-0.000600302
0.000511317
-0.00119145
0.000488797
-0.00175271
0.000431921
-0.00226242
0.000339006
-0.00269614
0.000206899
-0.00301377
1.92918e-05
-0.00324201
-0.000158903
-0.00336255
-0.000373757
-0.00337729
-0.000592412
-0.00327189
-0.000832765
-0.00306211
-0.00106192
-0.00275344
-0.00128821
-0.0023557
-0.00150391
-0.00187663
-0.00170773
-0.00132309
-0.0018978
-0.000700945
-0.00207242
-1.65688e-05
-0.0022288
0.000723101
-0.00236441
0.00150818
-0.0024747
0.00232766
-0.00255603
0.0031676
-0.00260401
0.00401261
-0.00261599
0.00484509
-0.00258873
0.00565011
-0.00252461
0.00640709
-0.00241784
0.00710424
-0.00227864
0.00771363
-0.00209188
0.0082439
-0.00189927
0.00866271
-0.00166154
0.00898734
-0.00143448
0.0092165
-0.00120122
0.00936554
-0.000981047
0.00944591
-0.000771406
0.00947
-0.000575324
0.00944578
-0.000389412
0.00938046
-0.000213693
0.00927913
-4.67355e-05
0.00912001
0.000140147
0.00893766
0.000305567
0.00872821
0.000462475
0.00849414
0.000613099
0.00823679
0.000759085
0.00795759
0.000900423
0.00765783
0.00103725
0.00733716
0.00117055
0.00699619
0.00129939
0.00663546
0.0014235
0.00625611
0.00154161
0.00585887
0.00165393
0.00544399
0.00175979
0.00501209
0.00185838
0.00456602
0.00194699
0.0041068
0.00202694
0.00363633
0.00209539
0.00315735
0.0021524
0.00267229
0.00219639
0.00218508
0.00222542
0.00169757
0.00224085
0.00121401
0.00223933
0.00073778
0.00222276
0.000273135
0.0021877
-0.000176022
0.00213582
-0.000605478
0.00206568
-0.00101111
0.00197728
-0.0013889
0.00187163
-0.00173504
0.00174862
-0.00204568
0.00160929
-0.00231747
0.00145444
-0.00254713
0.00128502
-0.00273186
0.0011028
-0.0028695
0.000910401
-0.00295841
0.000709132
-0.00299709
0.000501069
-0.00298526
0.000289899
-0.00292311
7.92245e-05
-0.00281213
-0.000132464
-0.0026539
-0.000336702
-0.00245089
-0.000532269
-0.00220642
-0.000715778
-0.00192485
-0.000883799
-0.00161096
-0.00103375
-0.00127065
-0.00116171
-0.000910284
-0.00126549
-0.000536842
-0.00134243
-0.000157294
-0.00139099
0.000220788
-0.00140963
0.000589394
-0.0013964
0.000940832
-0.00135199
0.00126775
-0.0012767
0.00156322
-0.0011715
0.00182043
-0.00103797
0.00203348
-0.000878751
0.0021961
-0.000696308
0.00230486
-0.000496033
0.00235713
-0.000282069
0.00235094
-5.93739e-05
0.00229058
0.000169328
0.00217416
0.000391061
0.00200464
0.000603605
0.00178712
0.00080033
0.00152773
0.000975386
0.00123412
0.00112329
0.000915179
0.00123852
0.000580338
0.00131765
0.000239949
0.00135704
-9.52336e-05
0.0013542
-0.000414513
0.00130901
-0.000707625
0.00122226
-0.000965218
0.00109616
-0.00117776
0.000933616
-0.001339
0.000740648
-0.00144368
0.000524398
-0.00148835
0.000290633
-0.00147074
4.90616e-05
-0.00139528
-0.000192535
-0.00126388
-0.000420688
-0.00108251
-0.000628954
-0.000859687
-0.000807522
-0.000605557
-0.000949043
-0.0003315
-0.00104743
-5.00378e-05
-0.00109764
0.000226105
-0.00109713
0.000484142
-0.00104603
0.000712548
-0.000947244
0.000901334
-0.000804558
0.00104275
-0.000626151
0.00113016
-0.000419506
0.00116151
-0.000195582
0.00113734
3.56173e-05
0.0010605
0.000260323
0.000935831
0.000468807
0.000771252
0.000651026
0.000576548
0.000798438
0.000362046
0.000904578
0.000139289
0.00096558
-8.04868e-05
0.000979304
-0.000286909
0.000946884
-0.000470752
0.000871667
-0.000624327
0.000758774
-0.000742021
0.000615333
-0.000820407
0.000449534
-0.000858258
0.000270695
-0.000856008
8.7763e-05
-0.000817203
-9.00392e-05
-0.000745562
-0.000254691
-0.000646814
-0.000399081
-0.000527511
-0.000517411
-0.000394609
-0.000605765
-0.000255249
-0.000661826
-0.000116243
-0.000684848
1.62369e-05
-0.000675784
0.000136642
-0.000637235
0.000240562
-0.00057264
0.000324619
-0.000486473
0.000386636
-0.000384022
0.000425519
-0.00027062
0.00044145
-0.000152297
0.000435383
-3.40977e-05
0.000409358
7.85171e-05
0.000365841
0.000181515
0.000307923
0.000270945
0.000239071
0.000343903
0.000162924
0.000398391
8.30474e-05
0.000433197
3.07995e-06
0.000448102
-7.39607e-05
0.00044366
-0.00014499
0.000421191
-0.000207602
0.000382312
-0.000259839
0.00032962
-0.000300249
0.000265712
-0.00032798
0.000193673
-0.000342621
0.000116474
-0.000344244
3.724e-05
-0.000333491
-4.09778e-05
-0.000311252
-0.000115619
-0.000278836
-0.000184103
-0.00023776
-0.000244487
-0.000189772
-0.000295001
-0.000136706
-0.00033444
-8.04716e-05
-0.000361949
-2.29496e-05
-0.000377257
3.40255e-05
-0.000380125
8.87582e-05
-0.000371333
0.000139685
-0.000351313
0.000185487
-0.000321262
0.000224999
-0.000282339
0.000257345
-0.000236021
0.000281868
-0.000183853
0.000298133
-0.000127422
0.000305933
-6.82702e-05
0.000305278
-8.04061e-06
0.000296306
5.17936e-05
0.000279454
0.00010981
0.000255228
0.000164676
0.000224302
0.000215198
0.000187452
0.000260191
0.000145596
0.000298789
9.96649e-05
0.000330006
5.07441e-05
0.000353008
0.000367038
-0.00102338
0.0015347
-0.00203395
0.00149937
-0.00300027
0.00139824
-0.00389425
0.00123299
-0.00469677
0.00100942
-0.00540709
0.000729613
-0.00599257
0.000426573
-0.00643443
6.80981e-05
-0.00675022
-0.000276618
-0.00686297
-0.000720012
-0.00676901
-0.00115588
-0.00645873
-0.00159849
-0.00594138
-0.00202126
-0.0052305
-0.00241861
-0.00434801
-0.0027803
-0.00332063
-0.00309981
-0.00217834
-0.00337109
-0.000952025