/*--------------------------------*- C++ -*----------------------------------*\
  =========                 |
  \\      /  F ield         | OpenFOAM: The Open Source CFD Toolbox
   \\    /   O peration     | Website:  https://openfoam.org
    \\  /    A nd           | Version:  12
     \\/     M anipulation  |
\*---------------------------------------------------------------------------*/
FoamFile
{
    format      ascii;
    class       volVectorField;
    location    "11.72";
    object      U;
}
// * * * * * * * * * * * * * * * * * * * * * * * * * * * * * * * * * * * * * //

dimensions      [0 1 -1 0 0 0 0];

internalField   nonuniform List<vector> 
3829
(
(6.95767e-06 -0.00032164 0)
(2.04088e-05 -0.000330028 0)
(3.46272e-05 -0.00033012 0)
(4.88724e-05 -0.000330035 0)
(6.3606e-05 -0.000329899 0)
(7.87346e-05 -0.00032967 0)
(9.43936e-05 -0.000329332 0)
(0.000110565 -0.000328852 0)
(0.000127317 -0.000328184 0)
(0.000144662 -0.000327295 0)
(0.000162702 -0.000326127 0)
(0.000181427 -0.000324636 0)
(0.000200725 -0.000322766 0)
(0.000220652 -0.000320452 0)
(0.00024118 -0.000317636 0)
(0.000262249 -0.000314264 0)
(0.000283768 -0.000310272 0)
(0.000305645 -0.00030561 0)
(0.000327774 -0.000300233 0)
(0.000350033 -0.000294092 0)
(0.000372278 -0.000287162 0)
(0.00039434 -0.000279412 0)
(0.000416035 -0.000270841 0)
(0.000437194 -0.000261444 0)
(0.000457581 -0.000251235 0)
(0.000477121 -0.00024025 0)
(0.000495383 -0.000228532 0)
(0.000512164 -0.000216117 0)
(0.000527521 -0.000203063 0)
(0.000541045 -0.000189472 0)
(0.000552492 -0.000175412 0)
(0.000561798 -0.000160974 0)
(0.000568661 -0.000146241 0)
(0.0005731 -0.00013132 0)
(0.000574802 -0.00011629 0)
(0.000573869 -0.000101199 0)
(0.000570559 -8.6327e-05 0)
(0.000564499 -7.17803e-05 0)
(0.000555806 -5.77186e-05 0)
(0.000544524 -4.42272e-05 0)
(0.000530628 -3.14312e-05 0)
(0.000514229 -1.93914e-05 0)
(0.000495506 -8.13918e-06 0)
(0.000474595 2.26626e-06 0)
(0.000451683 1.17678e-05 0)
(0.00042696 2.03277e-05 0)
(0.000400675 2.79059e-05 0)
(0.000373062 3.44756e-05 0)
(0.000344417 4.00082e-05 0)
(0.000315023 4.45106e-05 0)
(0.00028496 4.79368e-05 0)
(0.000254923 5.03931e-05 0)
(0.000225018 5.17432e-05 0)
(0.000195544 5.21483e-05 0)
(0.000166689 5.15391e-05 0)
(0.000138916 5.01037e-05 0)
(0.000112737 4.77155e-05 0)
(8.789e-05 4.45888e-05 0)
(6.50422e-05 4.06952e-05 0)
(4.4578e-05 3.61983e-05 0)
(2.66896e-05 3.10933e-05 0)
(1.11325e-05 2.55004e-05 0)
(-1.31645e-06 1.95879e-05 0)
(-1.05724e-05 1.32992e-05 0)
(-1.70474e-05 6.84267e-06 0)
(-2.03408e-05 2.82907e-07 0)
(-2.05215e-05 -6.21827e-06 0)
(-1.72316e-05 -1.25653e-05 0)
(-1.06106e-05 -1.86941e-05 0)
(-5.70444e-07 -2.44643e-05 0)
(1.24283e-05 -2.98936e-05 0)
(2.78655e-05 -3.47901e-05 0)
(4.56739e-05 -3.89761e-05 0)
(6.54552e-05 -4.24329e-05 0)
(8.72126e-05 -4.50197e-05 0)
(0.000110108 -4.68385e-05 0)
(0.000133933 -4.76358e-05 0)
(0.000158249 -4.75323e-05 0)
(0.00018259 -4.63834e-05 0)
(0.000206106 -4.43397e-05 0)
(0.000228683 -4.12216e-05 0)
(0.000249675 -3.72715e-05 0)
(0.000268119 -3.23633e-05 0)
(0.000284221 -2.66323e-05 0)
(0.000297154 -2.02558e-05 0)
(0.000306476 -1.32685e-05 0)
(0.000311759 -5.83412e-06 0)
(0.00031254 1.94356e-06 0)
(0.000308433 9.86234e-06 0)
(0.000299404 1.78035e-05 0)
(0.000285534 2.55655e-05 0)
(0.000266993 3.29942e-05 0)
(0.000243971 3.98943e-05 0)
(0.000216812 4.60969e-05 0)
(0.000185909 5.14145e-05 0)
(0.000151747 5.56986e-05 0)
(0.000114995 5.88148e-05 0)
(7.63384e-05 6.0642e-05 0)
(3.6648e-05 6.11148e-05 0)
(-3.23388e-06 6.01575e-05 0)
(-4.23403e-05 5.77896e-05 0)
(-7.97114e-05 5.4011e-05 0)
(-0.000114361 4.89212e-05 0)
(-0.000145416 4.25948e-05 0)
(-0.000171952 3.52233e-05 0)
(-0.000193244 2.69412e-05 0)
(-0.000208632 1.80639e-05 0)
(-0.00021762 8.71684e-06 0)
(-0.000219776 -6.71721e-07 0)
(-0.000214676 -9.93929e-06 0)
(-0.000202736 -1.87182e-05 0)
(-0.000184368 -2.67677e-05 0)
(-0.000160197 -3.37959e-05 0)
(-0.000131008 -3.95275e-05 0)
(-9.7777e-05 -4.37745e-05 0)
(-6.16272e-05 -4.63453e-05 0)
(-2.39102e-05 -4.71466e-05 0)
(1.40496e-05 -4.60913e-05 0)
(5.07211e-05 -4.32801e-05 0)
(8.44181e-05 -3.87676e-05 0)
(0.00011407 -3.27343e-05 0)
(0.000138243 -2.54769e-05 0)
(0.000155903 -1.72128e-05 0)
(0.000166417 -8.39271e-06 0)
(0.000168935 6.41545e-07 0)
(0.000163267 9.44608e-06 0)
(0.000149852 1.76233e-05 0)
(0.000129408 2.47562e-05 0)
(0.000103002 3.05523e-05 0)
(7.19709e-05 3.46243e-05 0)
(3.78697e-05 3.67779e-05 0)
(2.30655e-06 3.69225e-05 0)
(-3.26587e-05 3.49723e-05 0)
(-6.47645e-05 3.11025e-05 0)
(-9.23039e-05 2.54963e-05 0)
(-0.000113796 1.85186e-05 0)
(-0.000127911 1.05553e-05 0)
(-0.000133893 2.09172e-06 0)
(-0.000130913 -6.19823e-06 0)
(-0.000119148 -1.3981e-05 0)
(-9.97386e-05 -2.06961e-05 0)
(-7.38347e-05 -2.59215e-05 0)
(-4.33989e-05 -2.92592e-05 0)
(-1.00972e-05 -3.04629e-05 0)
(2.35912e-05 -2.94945e-05 0)
(5.47703e-05 -2.64301e-05 0)
(8.16019e-05 -2.15206e-05 0)
(0.00010209 -1.51633e-05 0)
(0.000114801 -7.82238e-06 0)
(0.00011873 -2.02352e-07 0)
(0.000113477 7.15315e-06 0)
(9.98582e-05 1.36434e-05 0)
(7.92267e-05 1.87044e-05 0)
(5.34898e-05 2.19832e-05 0)
(2.50253e-05 2.3163e-05 0)
(-3.76942e-06 2.20831e-05 0)
(-3.00565e-05 1.9059e-05 0)
(-5.11417e-05 1.43325e-05 0)
(-6.54666e-05 8.45474e-06 0)
(-7.17565e-05 2.02589e-06 0)
(-6.94136e-05 -4.23533e-06 0)
(-5.89409e-05 -9.7643e-06 0)
(-4.19484e-05 -1.39701e-05 0)
(-2.04377e-05 -1.64335e-05 0)
(3.57612e-06 -1.69226e-05 0)
(2.68484e-05 -1.54281e-05 0)
(4.6363e-05 -1.22441e-05 0)
(6.03909e-05 -7.77707e-06 0)
(6.74907e-05 -2.66466e-06 0)
(6.6859e-05 2.48144e-06 0)
(5.88859e-05 7.02822e-06 0)
(4.49674e-05 1.04691e-05 0)
(2.70495e-05 1.24222e-05 0)
(7.33249e-06 1.27715e-05 0)
(-1.16731e-05 1.15669e-05 0)
(-2.76592e-05 9.15711e-06 0)
(-3.91354e-05 5.97642e-06 0)
(-4.53108e-05 2.55725e-06 0)
(-4.61564e-05 -5.8334e-07 0)
(-4.23847e-05 -3.05025e-06 0)
(-3.55746e-05 -4.56623e-06 0)
(-2.70346e-05 -5.08099e-06 0)
(-1.8848e-05 -4.65198e-06 0)
(-1.21274e-05 -3.58993e-06 0)
(-7.29065e-06 -2.20391e-06 0)
(-5.09322e-06 -8.3324e-07 0)
(-5.0552e-06 1.89068e-07 0)
(-6.37277e-06 6.45274e-07 0)
(-7.76029e-06 5.1676e-07 0)
(-8.2605e-06 -6.71185e-08 0)
(-7.18194e-06 -9.00178e-07 0)
(-4.44461e-06 -1.7379e-06 0)
(6.99874e-08 -2.34379e-06 0)
(5.54816e-06 -2.51997e-06 0)
(1.05049e-05 -2.11991e-06 0)
(1.40951e-05 -1.22243e-06 0)
(1.53646e-05 2.64819e-09 0)
(1.38556e-05 1.29589e-06 0)
(9.65068e-06 2.38803e-06 0)
(3.46217e-06 3.0128e-06 0)
(6.7128e-06 4.23069e-05 0)
(2.08799e-05 4.74917e-05 0)
(3.55061e-05 4.53341e-05 0)
(5.06805e-05 4.19769e-05 0)
(6.6595e-05 3.7532e-05 0)
(8.33936e-05 3.20353e-05 0)
(0.000101122 2.55832e-05 0)
(0.000119982 1.82686e-05 0)
(0.000140037 1.02081e-05 0)
(0.000161365 1.59948e-06 0)
(0.000184137 -7.40724e-06 0)
(0.000208314 -1.65721e-05 0)
(0.000233897 -2.57763e-05 0)
(0.000260953 -3.47156e-05 0)
(0.000289333 -4.32533e-05 0)
(0.000318979 -5.10914e-05 0)
(0.000349762 -5.80502e-05 0)
(0.000381413 -6.38793e-05 0)
(0.000413795 -6.83809e-05 0)
(0.000446616 -7.1343e-05 0)
(0.000479579 -7.26085e-05 0)
(0.000512344 -7.20264e-05 0)
(0.000544526 -6.94903e-05 0)
(0.000575858 -6.49418e-05 0)
(0.000605816 -5.83253e-05 0)
(0.000634142 -4.96877e-05 0)
(0.000660441 -3.90423e-05 0)
(0.000684409 -2.64888e-05 0)
(0.000705686 -1.2136e-05 0)
(0.000723858 3.78882e-06 0)
(0.000738781 2.10985e-05 0)
(0.000750315 3.95724e-05 0)
(0.000758111 5.88668e-05 0)
(0.000762244 7.87387e-05 0)
(0.000762808 9.87992e-05 0)
(0.00075871 0.000118827 0)
(0.000749907 0.000138677 0)
(0.00073685 0.000158113 0)
(0.00071984 0.000176913 0)
(0.000699186 0.000194851 0)
(0.00067504 0.000211687 0)
(0.000648084 0.000227222 0)
(0.000618519 0.000241152 0)
(0.000586347 0.000253353 0)
(0.000551894 0.000263626 0)
(0.000515457 0.000271849 0)
(0.000477351 0.0002779 0)
(0.000437881 0.000281712 0)
(0.000397525 0.000283171 0)
(0.000356481 0.000282314 0)
(0.000315332 0.000279109 0)
(0.000274317 0.000273615 0)
(0.000233799 0.000265699 0)
(0.00019442 0.000255723 0)
(0.000156466 0.000243471 0)
(0.000120117 0.000229303 0)
(8.59702e-05 0.000213157 0)
(5.42389e-05 0.000195384 0)
(2.53032e-05 0.00017598 0)
(-3.54802e-07 0.000155319 0)
(-2.27853e-05 0.000133383 0)
(-4.14577e-05 0.000110674 0)
(-5.64378e-05 8.72207e-05 0)
(-6.74907e-05 6.33941e-05 0)
(-7.45039e-05 3.94093e-05 0)
(-7.733e-05 1.56822e-05 0)
(-7.59313e-05 -7.48949e-06 0)
(-7.0412e-05 -2.98053e-05 0)
(-6.07575e-05 -5.10135e-05 0)
(-4.72269e-05 -7.08213e-05 0)
(-3.00876e-05 -8.90535e-05 0)
(-9.11029e-06 -0.000105311 0)
(1.49102e-05 -0.000119405 0)
(4.14035e-05 -0.000130972 0)
(6.98787e-05 -0.000139823 0)
(9.99172e-05 -0.000145841 0)
(0.000131242 -0.000148736 0)
(0.000162973 -0.000148684 0)
(0.000194541 -0.000145343 0)
(0.000225217 -0.000139022 0)
(0.000254566 -0.000129382 0)
(0.000281744 -0.000117075 0)
(0.000306201 -0.000101727 0)
(0.000327068 -8.40783e-05 0)
(0.000343904 -6.39918e-05 0)
(0.000356346 -4.2212e-05 0)
(0.000363762 -1.88516e-05 0)
(0.000365588 5.41493e-06 0)
(0.000361417 3.02101e-05 0)
(0.000351262 5.49865e-05 0)
(0.000335123 7.92163e-05 0)
(0.000313234 0.000102328 0)
(0.000285771 0.000123775 0)
(0.000253143 0.000142984 0)
(0.000215846 0.000159434 0)
(0.000174559 0.00017262 0)
(0.000130063 0.00018215 0)
(8.3275e-05 0.000187663 0)
(3.52188e-05 0.000188954 0)
(-1.30043e-05 0.000185802 0)
(-6.02032e-05 0.000178239 0)
(-0.000105195 0.00016634 0)
(-0.000146793 0.000150324 0)
(-0.000183886 0.00013053 0)
(-0.000215411 0.000107457 0)
(-0.000240342 8.16817e-05 0)
(-0.000258079 5.3904e-05 0)
(-0.000267875 2.49384e-05 0)
(-0.000269243 -4.33722e-06 0)
(-0.000261979 -3.29614e-05 0)
(-0.000246342 -6.01787e-05 0)
(-0.000222994 -8.50174e-05 0)
(-0.000192515 -0.0001066 0)
(-0.000155999 -0.000124258 0)
(-0.000114666 -0.00013709 0)
(-6.98982e-05 -0.000144792 0)
(-2.33238e-05 -0.000146913 0)
(2.32611e-05 -0.000143314 0)
(6.7992e-05 -0.000134221 0)
(0.000109013 -0.0001199 0)
(0.000144718 -0.000100863 0)
(0.000173632 -7.79623e-05 0)
(0.000194414 -5.21247e-05 0)
(0.000206203 -2.45233e-05 0)
(0.000208236 3.65297e-06 0)
(0.000200254 3.09799e-05 0)
(0.000182819 5.63653e-05 0)
(0.000156933 7.84191e-05 0)
(0.000123775 9.62124e-05 0)
(8.49348e-05 0.000108524 0)
(4.26141e-05 0.000114973 0)
(-1.33986e-06 0.000115 0)
(-4.43266e-05 0.000108643 0)
(-8.35576e-05 9.63536e-05 0)
(-0.000116982 7.86632e-05 0)
(-0.000142767 5.68088e-05 0)
(-0.000159403 3.18873e-05 0)
(-0.000165648 5.68634e-06 0)
(-0.000161029 -2.04119e-05 0)
(-0.000146007 -4.44769e-05 0)
(-0.000121612 -6.53046e-05 0)
(-8.93476e-05 -8.11745e-05 0)
(-5.15413e-05 -9.13247e-05 0)
(-1.05323e-05 -9.48337e-05 0)
(3.06219e-05 -9.14446e-05 0)
(6.85313e-05 -8.1646e-05 0)
(0.000100832 -6.60982e-05 0)
(0.000125209 -4.61383e-05 0)
(0.000139767 -2.32951e-05 0)
(0.000143437 4.8572e-07 0)
(0.000136064 2.33039e-05 0)
(0.00011849 4.33203e-05 0)
(9.253e-05 5.89589e-05 0)
(6.053e-05 6.87493e-05 0)
(2.51997e-05 7.20848e-05 0)
(-1.00698e-05 6.8476e-05 0)
(-4.18335e-05 5.8762e-05 0)
(-6.70789e-05 4.38876e-05 0)
(-8.37558e-05 2.54584e-05 0)
(-9.04042e-05 5.4407e-06 0)
(-8.65439e-05 -1.40694e-05 0)
(-7.29271e-05 -3.11417e-05 0)
(-5.1426e-05 -4.40114e-05 0)
(-2.45937e-05 -5.13837e-05 0)
(4.95693e-06 -5.26486e-05 0)
(3.32505e-05 -4.77119e-05 0)
(5.67223e-05 -3.75806e-05 0)
(7.32194e-05 -2.35761e-05 0)
(8.10753e-05 -7.61021e-06 0)
(7.9551e-05 8.3044e-06 0)
(6.92292e-05 2.22865e-05 0)
(5.18772e-05 3.26842e-05 0)
(2.99723e-05 3.84656e-05 0)
(6.27547e-06 3.92157e-05 0)
(-1.61285e-05 3.51994e-05 0)
(-3.44794e-05 2.74874e-05 0)
(-4.7099e-05 1.75183e-05 0)
(-5.3138e-05 6.90968e-06 0)
(-5.2773e-05 -2.70239e-06 0)
(-4.70332e-05 -1.01324e-05 0)
(-3.79203e-05 -1.45574e-05 0)
(-2.71373e-05 -1.58002e-05 0)
(-1.71722e-05 -1.43274e-05 0)
(-9.40398e-06 -1.07004e-05 0)
(-4.25719e-06 -6.29322e-06 0)
(-2.48844e-06 -2.01982e-06 0)
(-3.46238e-06 1.16559e-06 0)
(-6.02127e-06 2.49541e-06 0)
(-8.50619e-06 1.98113e-06 0)
(-9.73055e-06 4.26774e-08 0)
(-8.8968e-06 -2.64004e-06 0)
(-5.91031e-06 -5.31066e-06 0)
(-7.16163e-07 -7.2536e-06 0)
(5.76782e-06 -7.83182e-06 0)
(1.17749e-05 -6.60258e-06 0)
(1.61508e-05 -3.8299e-06 0)
(1.77769e-05 -4.49646e-08 0)
(1.61156e-05 3.95924e-06 0)
(1.12604e-05 7.32615e-06 0)
(4.04351e-06 9.25374e-06 0)
(-2.16811e-06 -0.000500259 0)
(-6.16946e-06 -0.000515228 0)
(-9.64788e-06 -0.000521325 0)
(-1.20964e-05 -0.000530127 0)
(-1.3118e-05 -0.000541598 0)
(-1.2308e-05 -0.000555524 0)
(-9.13487e-06 -0.000571481 0)
(-3.49579e-06 -0.000589148 0)
(5.39365e-06 -0.000607889 0)
(1.77103e-05 -0.000627309 0)
(3.37679e-05 -0.000646704 0)
(5.32353e-05 -0.000665617 0)
(7.63696e-05 -0.00068335 0)
(0.000103251 -0.000699212 0)
(0.000133696 -0.000712719 0)
(0.000167846 -0.000723325 0)
(0.000205167 -0.000730535 0)
(0.000245585 -0.000733809 0)
(0.000288635 -0.000732686 0)
(0.000333821 -0.000726756 0)
(0.000380514 -0.000715746 0)
(0.000428143 -0.000699379 0)
(0.000475866 -0.000677454 0)
(0.000523162 -0.000650047 0)
(0.000569103 -0.000617098 0)
(0.000613169 -0.000578955 0)
(0.000654646 -0.000535791 0)
(0.000692778 -0.00048823 0)
(0.000726873 -0.000436611 0)
(0.000756143 -0.000381696 0)
(0.0007805 -0.000324088 0)
(0.000799065 -0.000264629 0)
(0.000811517 -0.00020386 0)
(0.000817769 -0.000142622 0)
(0.000817784 -8.13042e-05 0)
(0.000812972 -2.1175e-05 0)
(0.000803542 3.73883e-05 0)
(0.000788836 9.35734e-05 0)
(0.000769071 0.000146978 0)
(0.000744324 0.000197147 0)
(0.000714819 0.00024364 0)
(0.000680488 0.000286189 0)
(0.000641981 0.000324425 0)
(0.000600018 0.000358079 0)
(0.000554871 0.000386956 0)
(0.000507171 0.000410897 0)
(0.000457459 0.00042982 0)
(0.000406054 0.000443659 0)
(0.000353781 0.000452426 0)
(0.000301298 0.000456118 0)
(0.000248829 0.000454879 0)
(0.00019656 0.000448765 0)
(0.00014597 0.000438044 0)
(9.70114e-05 0.000422776 0)
(4.98178e-05 0.00040328 0)
(5.48881e-06 0.000379737 0)
(-3.55932e-05 0.000352631 0)
(-7.33793e-05 0.000322077 0)
(-0.000107242 0.000288585 0)
(-0.000136856 0.000252468 0)
(-0.000161639 0.000214223 0)
(-0.000181601 0.000174205 0)
(-0.000196687 0.000133001 0)
(-0.000206101 9.10546e-05 0)
(-0.000210093 4.89682e-05 0)
(-0.00020805 7.22706e-06 0)
(-0.000200572 -3.35912e-05 0)
(-0.000187618 -7.30051e-05 0)
(-0.000169422 -0.000110419 0)
(-0.000146265 -0.000145314 0)
(-0.000118233 -0.000177115 0)
(-8.58101e-05 -0.000205349 0)
(-4.93449e-05 -0.000229612 0)
(-9.27409e-06 -0.00024939 0)
(3.33956e-05 -0.000264399 0)
(7.81811e-05 -0.000274124 0)
(0.000123865 -0.000278537 0)
(0.0001701 -0.000277353 0)
(0.000215974 -0.000270617 0)
(0.000260622 -0.000258175 0)
(0.000302819 -0.000240276 0)
(0.000342011 -0.00021716 0)
(0.000377089 -0.000189032 0)
(0.000407395 -0.000156484 0)
(0.000432222 -0.000119908 0)
(0.000450434 -8.01276e-05 0)
(0.000461921 -3.77618e-05 0)
(0.000465473 6.27824e-06 0)
(0.000461182 5.11643e-05 0)
(0.000448685 9.58958e-05 0)
(0.000428096 0.000139598 0)
(0.000399651 0.000181146 0)
(0.00036364 0.000219565 0)
(0.00032058 0.000253894 0)
(0.000271175 0.000283154 0)
(0.000216379 0.000306532 0)
(0.000157331 0.00032327 0)
(9.53058e-05 0.000332808 0)
(3.16091e-05 0.000334703 0)
(-3.22427e-05 0.000328716 0)
(-9.44894e-05 0.000314782 0)
(-0.000153683 0.000293108 0)
(-0.000208187 0.00026409 0)
(-0.000256457 0.000228399 0)
(-0.000297052 0.000186893 0)
(-0.000328832 0.00014063 0)
(-0.000350671 9.09143e-05 0)
(-0.000361748 3.92713e-05 0)
(-0.000361432 -1.29497e-05 0)
(-0.000349747 -6.39849e-05 0)
(-0.000327216 -0.000112293 0)
(-0.000294136 -0.000156154 0)
(-0.000251938 -0.000194197 0)
(-0.00020152 -0.000224804 0)
(-0.000144777 -0.000247093 0)
(-8.3929e-05 -0.000259869 0)
(-2.07639e-05 -0.000262827 0)
(4.18788e-05 -0.000255551 0)
(0.000101595 -0.000238402 0)
(0.000156132 -0.000211999 0)
(0.000203228 -0.000177332 0)
(0.000240714 -0.000135851 0)
(0.000267 -8.92568e-05 0)
(0.000281056 -3.95602e-05 0)
(0.000281736 1.07391e-05 0)
(0.000269189 5.96558e-05 0)
(0.000244102 0.000104642 0)
(0.000207696 0.000143677 0)
(0.000161513 0.000174674 0)
(0.000108054 0.000196116 0)
(5.02591e-05 0.000206797 0)
(-9.4466e-06 0.000205934 0)
(-6.7112e-05 0.000193774 0)
(-0.000119583 0.000170861 0)
(-0.000163825 0.000138776 0)
(-0.000197453 9.8961e-05 0)
(-0.000218335 5.41513e-05 0)
(-0.000225335 6.97437e-06 0)
(-0.000217627 -3.94415e-05 0)
(-0.000195897 -8.23289e-05 0)
(-0.000161799 -0.000118958 0)
(-0.000117373 -0.00014682 0)
(-6.60344e-05 -0.000164086 0)
(-1.03979e-05 -0.000169498 0)
(4.47547e-05 -0.000162689 0)
(9.50817e-05 -0.000144371 0)
(0.000137477 -0.000115947 0)
(0.000168717 -7.98027e-05 0)
(0.000186566 -3.87246e-05 0)
(0.000189653 3.85429e-06 0)
(0.000177953 4.44791e-05 0)
(0.000152929 7.99023e-05 0)
(0.000116682 0.000107095 0)
(7.26559e-05 0.000123901 0)
(2.472e-05 0.000128923 0)
(-2.26075e-05 0.000121719 0)
(-6.44993e-05 0.000103592 0)
(-9.72998e-05 7.64501e-05 0)
(-0.000118171 4.31364e-05 0)
(-0.000125342 7.21599e-06 0)
(-0.000118458 -2.75505e-05 0)
(-9.86504e-05 -5.76561e-05 0)
(-6.85183e-05 -7.99984e-05 0)
(-3.16894e-05 -9.24912e-05 0)
(8.20173e-06 -9.39641e-05 0)
(4.58413e-05 -8.44347e-05 0)
(7.64909e-05 -6.57259e-05 0)
(9.74055e-05 -4.03554e-05 0)
(0.000106437 -1.1758e-05 0)
(0.000102985 1.64716e-05 0)
(8.80323e-05 4.09224e-05 0)
(6.41161e-05 5.87858e-05 0)
(3.47302e-05 6.82453e-05 0)
(3.62678e-06 6.87192e-05 0)
(-2.49917e-05 6.08134e-05 0)
(-4.75486e-05 4.65198e-05 0)
(-6.20425e-05 2.8473e-05 0)
(-6.7581e-05 9.62514e-06 0)
(-6.47285e-05 -7.16654e-06 0)
(-5.51757e-05 -1.97763e-05 0)
(-4.16464e-05 -2.68943e-05 0)
(-2.68293e-05 -2.82482e-05 0)
(-1.35813e-05 -2.49355e-05 0)
(-3.89842e-06 -1.79149e-05 0)
(1.51739e-06 -9.68992e-06 0)
(2.39644e-06 -2.0356e-06 0)
(-5.63083e-07 3.46441e-06 0)
(-5.55506e-06 5.77749e-06 0)
(-1.01205e-05 4.56442e-06 0)
(-1.26755e-05 7.98881e-07 0)
(-1.22456e-05 -4.24367e-06 0)
(-8.76232e-06 -9.19556e-06 0)
(-2.26627e-06 -1.27696e-05 0)
(6.13658e-06 -1.39442e-05 0)
(1.41175e-05 -1.17789e-05 0)
(1.99535e-05 -6.89215e-06 0)
(2.22475e-05 -2.18314e-07 0)
(2.02986e-05 6.8559e-06 0)
(1.42309e-05 1.27793e-05 0)
(5.11754e-06 1.62051e-05 0)
(-1.60331e-05 4.56636e-05 0)
(-4.60962e-05 4.24268e-05 0)
(-7.42185e-05 2.88168e-05 0)
(-9.90844e-05 8.22588e-06 0)
(-0.000119372 -1.90019e-05 0)
(-0.000133617 -5.27888e-05 0)
(-0.000141139 -9.23066e-05 0)
(-0.000140445 -0.000137591 0)
(-0.000131009 -0.000186938 0)
(-0.000112563 -0.000240095 0)
(-8.47468e-05 -0.000295654 0)
(-4.79004e-05 -0.000352789 0)
(-7.35608e-07 -0.00040981 0)
(5.51655e-05 -0.000465522 0)
(0.000118466 -0.000518085 0)
(0.000188947 -0.000566235 0)
(0.000266132 -0.00060826 0)
(0.000349421 -0.00064309 0)
(0.000437672 -0.000669619 0)
(0.000529271 -0.000686534 0)
(0.000623083 -0.000693342 0)
(0.000718203 -0.000689566 0)
(0.000812128 -0.000674873 0)
(0.000903759 -0.00064931 0)
(0.000991056 -0.000612876 0)
(0.00107252 -0.00056657 0)
(0.0011464 -0.000510695 0)
(0.00121158 -0.000446783 0)
(0.00126711 -0.000375548 0)
(0.00131141 -0.000298953 0)
(0.00134419 -0.000217886 0)
(0.00136572 -0.000134267 0)
(0.00137596 -4.94364e-05 0)
(0.00137591 3.49898e-05 0)
(0.00136378 0.000117912 0)
(0.00133914 0.000198673 0)
(0.00130451 0.000276251 0)
(0.00126032 0.00034988 0)
(0.00120876 0.000418753 0)
(0.00115006 0.000482233 0)
(0.00108535 0.000539778 0)
(0.0010156 0.00059095 0)
(0.000941146 0.000635536 0)
(0.000862917 0.000673227 0)
(0.000781749 0.000703912 0)
(0.000698508 0.000727456 0)
(0.000613943 0.000743832 0)
(0.000528766 0.000753042 0)
(0.000443743 0.000755177 0)
(0.000359644 0.000750239 0)
(0.000277225 0.000738467 0)
(0.000197155 0.000720046 0)
(0.000119907 0.000695291 0)
(4.61606e-05 0.000664381 0)
(-2.33793e-05 0.000627725 0)
(-8.79262e-05 0.000585725 0)
(-0.000147228 0.000538701 0)
(-0.000201088 0.000487119 0)
(-0.000248432 0.000431664 0)
(-0.000288967 0.000372765 0)
(-0.000322641 0.000311141 0)
(-0.000348787 0.000247256 0)
(-0.000367257 0.000182124 0)
(-0.000377837 0.000116259 0)
(-0.000380402 5.05448e-05 0)
(-0.00037498 -1.42923e-05 0)
(-0.000361736 -7.74698e-05 0)
(-0.000340847 -0.000138136 0)
(-0.000312351 -0.000195568 0)
(-0.000276644 -0.000248787 0)
(-0.000234223 -0.000297095 0)
(-0.000185649 -0.000339766 0)
(-0.000131613 -0.000376046 0)
(-7.30918e-05 -0.000405374 0)
(-1.0743e-05 -0.000427223 0)
(5.41501e-05 -0.000441037 0)
(0.000120472 -0.000446559 0)
(0.000187182 -0.000443349 0)
(0.000253257 -0.000431582 0)
(0.00031737 -0.000410972 0)
(0.000377876 -0.000382196 0)
(0.000434159 -0.000345129 0)
(0.000484683 -0.000300755 0)
(0.000528153 -0.0002493 0)
(0.000563556 -0.000192071 0)
(0.00058996 -0.000129749 0)
(0.000606737 -6.36596e-05 0)
(0.000612803 4.80086e-06 0)
(0.000607728 7.44345e-05 0)
(0.000591539 0.000143694 0)
(0.000564106 0.000211253 0)
(0.000525595 0.000275286 0)
(0.000476774 0.000334474 0)
(0.000418201 0.0003871 0)
(0.000350937 0.000431828 0)
(0.000276362 0.000467404 0)
(0.000196016 0.000492692 0)
(0.000111702 0.000506829 0)
(2.52928e-05 0.00050906 0)
(-6.11478e-05 0.000499126 0)
(-0.00014534 0.000477005 0)
(-0.000225051 0.000443061 0)
(-0.000298074 0.000397919 0)
(-0.000362315 0.000342594 0)
(-0.000415963 0.000278425 0)
(-0.000457187 0.000207182 0)
(-0.000484489 0.000130854 0)
(-0.000497232 5.14362e-05 0)
(-0.000494649 -2.84564e-05 0)
(-0.00047637 -0.000106414 0)
(-0.00044303 -0.000179961 0)
(-0.000395805 -0.000246471 0)
(-0.000335783 -0.000303871 0)
(-0.000265195 -0.000349567 0)
(-0.000186313 -0.000382444 0)
(-0.000101837 -0.000400722 0)
(-1.49956e-05 -0.000403759 0)
(7.1029e-05 -0.000391209 0)
(0.0001524 -0.0003635 0)
(0.000226131 -0.000321683 0)
(0.000289169 -0.00026728 0)
(0.00033885 -0.000202674 0)
(0.000373004 -0.000130444 0)
(0.000389591 -5.39675e-05 0)
(0.000388135 2.34954e-05 0)
(0.000368611 9.8215e-05 0)
(0.000331779 0.000166987 0)
(0.000279722 0.000226178 0)
(0.000214707 0.000272672 0)
(0.000140061 0.000304275 0)
(5.94072e-05 0.000319338 0)
(-2.29439e-05 0.000316663 0)
(-0.000102122 0.000296692 0)
(-0.000173283 0.000260114 0)
(-0.000232992 0.000209768 0)
(-0.000277792 0.000147766 0)
(-0.000304539 7.84968e-05 0)
(-0.000311692 5.91022e-06 0)
(-0.00029883 -6.53101e-05 0)
(-0.000267332 -0.000130721 0)
(-0.000218937 -0.000186145 0)
(-0.000156733 -0.00022795 0)
(-8.51378e-05 -0.000253082 0)
(-8.68797e-06 -0.000260165 0)
(6.6597e-05 -0.000248244 0)
(0.000134845 -0.000218835 0)
(0.000191483 -0.000174257 0)
(0.000232436 -0.000117866 0)
(0.000254646 -5.44639e-05 0)
(0.000256431 1.08864e-05 0)
(0.000238193 7.28825e-05 0)
(0.000201679 0.000126562 0)
(0.00015037 0.000167226 0)
(8.89715e-05 0.000191652 0)
(2.25606e-05 0.00019805 0)
(-4.20227e-05 0.000185632 0)
(-9.84055e-05 0.000156567 0)
(-0.000141832 0.000113911 0)
(-0.000168432 6.21956e-05 0)
(-0.000175911 6.75306e-06 0)
(-0.000164163 -4.62325e-05 0)
(-0.00013501 -9.17537e-05 0)
(-9.224e-05 -0.000125018 0)
(-4.0852e-05 -0.000142915 0)
(1.40236e-05 -0.000143761 0)
(6.50048e-05 -0.000127969 0)
(0.000105807 -9.83017e-05 0)
(0.000132688 -5.88945e-05 0)
(0.000143018 -1.48592e-05 0)
(0.000136355 2.80409e-05 0)
(0.000114374 6.46942e-05 0)
(8.07433e-05 9.08559e-05 0)
(4.04204e-05 0.000103887 0)
(-1.26832e-06 0.000103165 0)
(-3.86242e-05 8.9766e-05 0)
(-6.69404e-05 6.69199e-05 0)
(-8.37477e-05 3.88584e-05 0)
(-8.81667e-05 1.01457e-05 0)
(-8.13714e-05 -1.49287e-05 0)
(-6.60406e-05 -3.31426e-05 0)
(-4.60378e-05 -4.26866e-05 0)
(-2.53756e-05 -4.33866e-05 0)
(-7.65025e-06 -3.68938e-05 0)
(4.53526e-06 -2.5405e-05 0)
(1.01155e-05 -1.22511e-05 0)
(9.30685e-06 -4.52296e-07 0)
(3.47579e-06 7.65836e-06 0)
(-5.03376e-06 1.1009e-05 0)
(-1.27826e-05 8.66102e-06 0)
(-1.72387e-05 2.44816e-06 0)
(-1.73306e-05 -5.70801e-06 0)
(-1.30312e-05 -1.363e-05 0)
(-4.64174e-06 -1.92438e-05 0)
(6.5655e-06 -2.12375e-05 0)
(1.74537e-05 -1.80021e-05 0)
(2.53658e-05 -1.06352e-05 0)
(2.8617e-05 -5.83322e-07 0)
(2.62532e-05 1.01043e-05 0)
(1.84758e-05 1.90567e-05 0)
(6.66776e-06 2.41936e-05 0)
(-4.75919e-05 -4.97972e-05 0)
(-0.000141159 -8.70771e-05 0)
(-0.000232478 -0.000126 0)
(-0.000318913 -0.000183922 0)
(-0.000398843 -0.000259391 0)
(-0.000468769 -0.000352447 0)
(-0.000528755 -0.000457774 0)
(-0.000574354 -0.000576494 0)
(-0.000604002 -0.000699103 0)
(-0.000618842 -0.000826978 0)
(-0.00061606 -0.000953617 0)
(-0.000594865 -0.00107917 0)
(-0.000553376 -0.00119935 0)
(-0.000491451 -0.00131304 0)
(-0.00040958 -0.00141646 0)
(-0.000308835 -0.00150786 0)
(-0.000190933 -0.00158471 0)
(-5.97386e-05 -0.00164452 0)
(8.4806e-05 -0.0016859 0)
(0.000238798 -0.00170718 0)
(0.000397138 -0.00170641 0)
(0.000558095 -0.0016834 0)
(0.000717976 -0.00163659 0)
(0.000874539 -0.00156801 0)
(0.00102216 -0.00147609 0)
(0.00115895 -0.0013656 0)
(0.0012818 -0.00123382 0)
(0.00138832 -0.0010902 0)
(0.00147608 -0.000929986 0)
(0.00154413 -0.000764841 0)
(0.00159285 -0.000592644 0)
(0.00162013 -0.000421165 0)
(0.00162747 -0.000250996 0)
(0.00161655 -8.58862e-05 0)
(0.00159145 7.25683e-05 0)
(0.00155393 0.000222438 0)
(0.00150412 0.000362351 0)
(0.00144248 0.000491378 0)
(0.00137027 0.000608698 0)
(0.00128891 0.000713767 0)
(0.00119973 0.000806387 0)
(0.00110427 0.000886308 0)
(0.00100374 0.000953815 0)
(0.000899337 0.00100868 0)
(0.000792129 0.00105153 0)
(0.000683108 0.00108243 0)
(0.00057334 0.00110191 0)
(0.000463628 0.00111003 0)
(0.000354764 0.00110747 0)
(0.000247919 0.00109457 0)
(0.000143965 0.00107168 0)
(4.33869e-05 0.00103941 0)
(-5.25936e-05 0.000998197 0)
(-0.000143673 0.000948538 0)
(-0.000228979 0.000890951 0)
(-0.000307868 0.000825988 0)
(-0.000379869 0.000754392 0)
(-0.000443785 0.00067687 0)
(-0.000499197 0.000594215 0)
(-0.000545806 0.000507158 0)
(-0.00058313 0.000416597 0)
(-0.000610353 0.000323553 0)
(-0.00062736 0.000228819 0)
(-0.000634051 0.000133673 0)
(-0.000630064 3.90001e-05 0)
(-0.000615348 -5.39634e-05 0)
(-0.000590236 -0.00014435 0)
(-0.000555094 -0.000230784 0)
(-0.000509941 -0.000312227 0)
(-0.000455249 -0.000387439 0)
(-0.000392006 -0.000455477 0)
(-0.000320751 -0.00051517 0)
(-0.000242441 -0.000565628 0)
(-0.000158265 -0.00060599 0)
(-6.93404e-05 -0.000635445 0)
(2.29356e-05 -0.000653419 0)
(0.000117003 -0.000659356 0)
(0.000211263 -0.000652993 0)
(0.000304372 -0.00063426 0)
(0.000394128 -0.000603201 0)
(0.000478884 -0.000560179 0)
(0.000557404 -0.00050561 0)
(0.000627727 -0.000440465 0)
(0.000688463 -0.000365652 0)
(0.000737852 -0.000282477 0)
(0.000774965 -0.000192362 0)
(0.000798139 -9.70366e-05 0)
(0.000806662 1.61446e-06 0)
(0.000800417 0.000101687 0)
(0.000779032 0.000201094 0)
(0.000742201 0.000297654 0)
(0.000690416 0.000389158 0)
(0.000624492 0.000473316 0)
(0.000545116 0.000548048 0)
(0.000454291 0.000611354 0)
(0.000353611 0.000661349 0)
(0.00024525 0.000696556 0)
(0.00013147 0.000715671 0)
(1.49829e-05 0.000717909 0)
(-0.000101066 0.000702817 0)
(-0.000213608 0.000670419 0)
(-0.000319852 0.000621084 0)
(-0.000416906 0.000555865 0)
(-0.000501877 0.000476373 0)
(-0.000572017 0.000384462 0)
(-0.000625104 0.000282486 0)
(-0.000659771 0.000173379 0)
(-0.000674324 6.05013e-05 0)
(-0.000667663 -5.26979e-05 0)
(-0.000640334 -0.000162753 0)
(-0.000592799 -0.000266653 0)
(-0.000526484 -0.000359997 0)
(-0.000443111 -0.000440045 0)
(-0.000345665 -0.000503645 0)
(-0.000237697 -0.000548329 0)
(-0.000122425 -0.000572317 0)
(-4.34846e-06 -0.000574513 0)
(0.00011185 -0.000554566 0)
(0.00022133 -0.000513228 0)
(0.000320072 -0.000451897 0)
(0.000403768 -0.000372984 0)
(0.000468757 -0.000279806 0)
(0.000512085 -0.000176174 0)
(0.000531875 -6.71088e-05 0)
(0.00052692 4.34486e-05 0)
(0.000497774 0.000149531 0)
(0.000445636 0.000246455 0)
(0.000372317 0.000329437 0)
(0.000281863 0.000394226 0)
(0.000179254 0.0004373 0)
(6.9112e-05 0.000456863 0)
(-4.28658e-05 0.000450799 0)
(-0.000149958 0.00042028 0)
(-0.000245594 0.000366885 0)
(-0.000324913 0.000293347 0)
(-0.000383603 0.000204325 0)
(-0.000417268 0.000105006 0)
(-0.000424715 1.59532e-06 0)
(-0.000404918 -9.96932e-05 0)
(-0.000359722 -0.000192431 0)
(-0.000292188 -0.000269981 0)
(-0.00020622 -0.000327904 0)
(-0.000108428 -0.000361894 0)
(-4.41107e-06 -0.000369937 0)
(9.73241e-05 -0.000351116 0)
(0.000188359 -0.000307419 0)
(0.00026342 -0.000242386 0)
(0.000316521 -0.000161074 0)
(0.000343679 -7.04289e-05 0)
(0.000343325 2.26334e-05 0)
(0.000316004 0.000110358 0)
(0.000264283 0.000185506 0)
(0.000192717 0.000241865 0)
(0.000108372 0.000274615 0)
(1.80665e-05 0.000281708 0)
(-6.91116e-05 0.000262156 0)
(-0.000144144 0.000218996 0)
(-0.000200989 0.000157063 0)
(-0.000234626 8.26881e-05 0)
(-0.000241892 3.78853e-06 0)
(-0.00022319 -7.13422e-05 0)
(-0.000181513 -0.000135135 0)
(-0.000121795 -0.00018098 0)
(-5.11168e-05 -0.000204592 0)
(2.31781e-05 -0.000203912 0)
(9.12687e-05 -0.000179681 0)
(0.000144847 -0.000136099 0)
(0.000179105 -7.91917e-05 0)
(0.000190638 -1.64753e-05 0)
(0.000179208 4.39432e-05 0)
(0.000147588 9.48427e-05 0)
(0.000100924 0.000130228 0)
(4.62651e-05 0.000146703 0)
(-9.13676e-06 0.000143479 0)
(-5.7626e-05 0.000122602 0)
(-9.29511e-05 8.88944e-05 0)
(-0.000112157 4.84727e-05 0)
(-0.000114561 7.93659e-06 0)
(-0.000102152 -2.66397e-05 0)
(-7.89539e-05 -5.09289e-05 0)
(-5.03963e-05 -6.25708e-05 0)
(-2.21096e-05 -6.16637e-05 0)
(1.14901e-06 -5.05797e-05 0)
(1.61251e-05 -3.30599e-05 0)
(2.15906e-05 -1.37123e-05 0)
(1.82544e-05 3.20177e-06 0)
(8.48435e-06 1.44009e-05 0)
(-4.73064e-06 1.84122e-05 0)
(-1.66601e-05 1.44671e-05 0)
(-2.35616e-05 5.01048e-06 0)
(-2.43007e-05 -7.1362e-06 0)
(-1.88071e-05 -1.88252e-05 0)
(-7.85659e-06 -2.70261e-05 0)
(7.02023e-06 -2.98905e-05 0)
(2.17054e-05 -2.54494e-05 0)
(3.22918e-05 -1.51994e-05 0)
(3.67787e-05 -1.12977e-06 0)
(3.39092e-05 1.37683e-05 0)
(2.38955e-05 2.62783e-05 0)
(8.61745e-06 3.34513e-05 0)
(-0.000126533 0.0011592 0)
(-0.000375369 0.00111573 0)
(-0.00061831 0.00104158 0)
(-0.000843813 0.000930333 0)
(-0.00105041 0.00078725 0)
(-0.00121926 0.00061077 0)
(-0.00135817 0.000417196 0)
(-0.00144387 0.000194045 0)
(-0.00148516 -2.59351e-05 0)
(-0.00149139 -0.000274516 0)
(-0.00144738 -0.000535328 0)
(-0.00136849 -0.000807626 0)
(-0.00125062 -0.00107587 0)
(-0.00109859 -0.0013344 0)
(-0.000912099 -0.0015737 0)
(-0.000698403 -0.00178787 0)
(-0.00045605 -0.00197153 0)
(-0.000191697 -0.00212029 0)
(9.21218e-05 -0.00223035 0)
(0.000391383 -0.00229809 0)
(0.000693939 -0.00232103 0)
(0.00100127 -0.00230209 0)
(0.0013018 -0.00223697 0)
(0.00159347 -0.00213068 0)