/*--------------------------------*- C++ -*----------------------------------*\
  =========                 |
  \\      /  F ield         | OpenFOAM: The Open Source CFD Toolbox
   \\    /   O peration     | Website:  https://openfoam.org
    \\  /    A nd           | Version:  12
     \\/     M anipulation  |
\*---------------------------------------------------------------------------*/
FoamFile
{
    format      ascii;
    class       volScalarField;
    location    "12";
    object      p;
}
// * * * * * * * * * * * * * * * * * * * * * * * * * * * * * * * * * * * * * //

dimensions      [1 -1 -2 0 0 0 0];

internalField   nonuniform List<scalar> 
3829
(
-618.013
-618.012
-618.009
-618.006
-618.001
-617.995
-617.987
-617.978
-617.967
-617.954
-617.94
-617.923
-617.905
-617.884
-617.861
-617.835
-617.807
-617.776
-617.742
-617.704
-617.664
-617.621
-617.574
-617.524
-617.471
-617.414
-617.355
-617.292
-617.227
-617.158
-617.087
-617.013
-616.938
-616.86
-616.781
-616.7
-616.619
-616.537
-616.454
-616.372
-616.29
-616.208
-616.128
-616.05
-615.973
-615.899
-615.829
-615.761
-615.697
-615.637
-615.58
-615.528
-615.48
-615.437
-615.398
-615.363
-615.332
-615.306
-615.284
-615.267
-615.253
-615.242
-615.235
-615.23
-615.228
-615.228
-615.229
-615.231
-615.233
-615.235
-615.235
-615.234
-615.231
-615.226
-615.216
-615.204
-615.186
-615.165
-615.138
-615.106
-615.069
-615.026
-614.978
-614.926
-614.869
-614.808
-614.745
-614.679
-614.611
-614.542
-614.475
-614.408
-614.345
-614.285
-614.231
-614.183
-614.142
-614.109
-614.085
-614.07
-614.067
-614.074
-614.092
-614.119
-614.154
-614.198
-614.248
-614.304
-614.363
-614.424
-614.484
-614.542
-614.596
-614.644
-614.683
-614.713
-614.731
-614.738
-614.732
-614.714
-614.683
-614.642
-614.592
-614.535
-614.473
-614.409
-614.346
-614.286
-614.232
-614.187
-614.153
-614.132
-614.124
-614.13
-614.148
-614.179
-614.219
-614.266
-614.318
-614.368
-614.415
-614.455
-614.486
-614.504
-614.508
-614.498
-614.475
-614.44
-614.395
-614.345
-614.292
-614.243
-614.2
-614.167
-614.147
-614.14
-614.151
-614.174
-614.208
-614.249
-614.294
-614.337
-614.374
-614.401
-614.416
-614.416
-614.402
-614.376
-614.342
-614.302
-614.263
-614.228
-614.201
-614.184
-614.181
-614.189
-614.207
-614.234
-614.261
-614.287
-614.309
-614.325
-614.336
-614.34
-614.34
-614.337
-614.334
-614.331
-614.331
-614.331
-614.333
-614.334
-614.334
-614.33
-614.323
-614.312
-614.3
-614.287
-614.277
-614.271
-1776.49
-1776.49
-1776.49
-1776.48
-1776.48
-1776.48
-1776.47
-1776.46
-1776.46
-1776.45
-1776.43
-1776.42
-1776.41
-1776.39
-1776.37
-1776.34
-1776.31
-1776.28
-1776.25
-1776.21
-1776.17
-1776.12
-1776.07
-1776.02
-1775.96
-1775.9
-1775.83
-1775.76
-1775.68
-1775.6
-1775.52
-1775.44
-1775.35
-1775.26
-1775.17
-1775.07
-1774.98
-1774.88
-1774.79
-1774.69
-1774.6
-1774.5
-1774.41
-1774.33
-1774.24
-1774.16
-1774.08
-1774.01
-1773.94
-1773.88
-1773.82
-1773.77
-1773.72
-1773.68
-1773.64
-1773.61
-1773.59
-1773.57
-1773.55
-1773.54
-1773.54
-1773.54
-1773.54
-1773.55
-1773.56
-1773.57
-1773.58
-1773.59
-1773.61
-1773.62
-1773.63
-1773.64
-1773.64
-1773.65
-1773.64
-1773.63
-1773.62
-1773.6
-1773.58
-1773.54
-1773.5
-1773.46
-1773.4
-1773.34
-1773.28
-1773.21
-1773.14
-1773.06
-1772.98
-1772.9
-1772.82
-1772.74
-1772.67
-1772.6
-1772.53
-1772.48
-1772.43
-1772.39
-1772.37
-1772.35
-1772.35
-1772.36
-1772.38
-1772.42
-1772.46
-1772.52
-1772.58
-1772.65
-1772.72
-1772.8
-1772.87
-1772.94
-1773.01
-1773.07
-1773.12
-1773.15
-1773.17
-1773.18
-1773.17
-1773.15
-1773.11
-1773.06
-1773
-1772.93
-1772.85
-1772.77
-1772.7
-1772.62
-1772.56
-1772.51
-1772.47
-1772.44
-1772.44
-1772.45
-1772.47
-1772.51
-1772.56
-1772.62
-1772.69
-1772.75
-1772.81
-1772.86
-1772.9
-1772.92
-1772.92
-1772.91
-1772.88
-1772.84
-1772.78
-1772.72
-1772.66
-1772.6
-1772.54
-1772.5
-1772.48
-1772.48
-1772.49
-1772.52
-1772.56
-1772.61
-1772.67
-1772.72
-1772.76
-1772.8
-1772.81
-1772.81
-1772.79
-1772.76
-1772.72
-1772.67
-1772.62
-1772.58
-1772.55
-1772.53
-1772.53
-1772.54
-1772.57
-1772.6
-1772.63
-1772.66
-1772.69
-1772.7
-1772.71
-1772.72
-1772.71
-1772.71
-1772.7
-1772.7
-1772.7
-1772.7
-1772.7
-1772.71
-1772.71
-1772.7
-1772.7
-1772.68
-1772.67
-1772.65
-1772.64
-1772.64
-2802.81
-2802.81
-2802.81
-2802.81
-2802.81
-2802.82
-2802.82
-2802.82
-2802.82
-2802.82
-2802.82
-2802.82
-2802.81
-2802.8
-2802.79
-2802.78
-2802.75
-2802.73
-2802.7
-2802.66
-2802.62
-2802.57
-2802.51
-2802.44
-2802.37
-2802.3
-2802.21
-2802.12
-2802.03
-2801.93
-2801.82
-2801.71
-2801.6
-2801.48
-2801.36
-2801.24
-2801.12
-2801
-2800.88
-2800.76
-2800.65
-2800.53
-2800.42
-2800.32
-2800.22
-2800.12
-2800.03
-2799.95
-2799.87
-2799.8
-2799.74
-2799.69
-2799.64
-2799.6
-2799.57
-2799.55
-2799.54
-2799.53
-2799.53
-2799.54
-2799.55
-2799.57
-2799.59
-2799.62
-2799.65
-2799.68
-2799.71
-2799.75
-2799.78
-2799.82
-2799.84
-2799.87
-2799.89
-2799.91
-2799.92
-2799.92
-2799.91
-2799.89
-2799.87
-2799.83
-2799.79
-2799.73
-2799.67
-2799.6
-2799.52
-2799.43
-2799.34
-2799.24
-2799.14
-2799.04
-2798.93
-2798.83
-2798.74
-2798.65
-2798.57
-2798.5
-2798.44
-2798.39
-2798.36
-2798.35
-2798.35
-2798.37
-2798.4
-2798.45
-2798.51
-2798.59
-2798.67
-2798.77
-2798.87
-2798.97
-2799.07
-2799.17
-2799.25
-2799.33
-2799.39
-2799.44
-2799.47
-2799.48
-2799.47
-2799.43
-2799.38
-2799.31
-2799.22
-2799.13
-2799.03
-2798.92
-2798.82
-2798.72
-2798.64
-2798.57
-2798.52
-2798.5
-2798.49
-2798.51
-2798.55
-2798.61
-2798.68
-2798.76
-2798.85
-2798.94
-2799.02
-2799.08
-2799.13
-2799.16
-2799.17
-2799.15
-2799.11
-2799.05
-2798.97
-2798.89
-2798.8
-2798.72
-2798.65
-2798.6
-2798.58
-2798.57
-2798.59
-2798.63
-2798.69
-2798.76
-2798.83
-2798.91
-2798.96
-2799
-2799.02
-2799.02
-2799
-2798.95
-2798.89
-2798.83
-2798.77
-2798.72
-2798.68
-2798.66
-2798.66
-2798.68
-2798.71
-2798.76
-2798.8
-2798.83
-2798.86
-2798.88
-2798.89
-2798.89
-2798.88
-2798.87
-2798.86
-2798.86
-2798.86
-2798.86
-2798.86
-2798.87
-2798.87
-2798.87
-2798.86
-2798.85
-2798.83
-2798.81
-2798.8
-2798.79
-3711.96
-3711.96
-3711.97
-3711.98
-3711.99
-3712.01
-3712.03
-3712.05
-3712.07
-3712.1
-3712.12
-3712.14
-3712.16
-3712.18
-3712.19
-3712.19
-3712.19
-3712.18
-3712.16
-3712.12
-3712.08
-3712.03
-3711.96
-3711.88
-3711.79
-3711.69
-3711.58
-3711.46
-3711.33
-3711.2
-3711.05
-3710.9
-3710.75
-3710.59
-3710.43
-3710.27
-3710.1
-3709.94
-3709.79
-3709.63
-3709.48
-3709.34
-3709.2
-3709.07
-3708.94
-3708.82
-3708.72
-3708.63
-3708.55
-3708.47
-3708.41
-3708.36
-3708.32
-3708.3
-3708.28
-3708.27
-3708.27
-3708.29
-3708.31
-3708.34
-3708.38
-3708.43
-3708.48
-3708.54
-3708.6
-3708.66
-3708.73
-3708.79
-3708.86
-3708.92
-3708.98
-3709.03
-3709.07
-3709.1
-3709.13
-3709.14
-3709.15
-3709.13
-3709.11
-3709.07
-3709.02
-3708.95
-3708.87
-3708.78
-3708.68
-3708.56
-3708.44
-3708.31
-3708.18
-3708.04
-3707.91
-3707.78
-3707.65
-3707.53
-3707.43
-3707.34
-3707.26
-3707.2
-3707.16
-3707.15
-3707.15
-3707.18
-3707.23
-3707.3
-3707.39
-3707.5
-3707.62
-3707.75
-3707.89
-3708.03
-3708.17
-3708.3
-3708.42
-3708.52
-3708.6
-3708.66
-3708.7
-3708.7
-3708.69
-3708.64
-3708.57
-3708.47
-3708.35
-3708.22
-3708.08
-3707.94
-3707.8
-3707.67
-3707.56
-3707.47
-3707.41
-3707.38
-3707.38
-3707.41
-3707.47
-3707.55
-3707.65
-3707.77
-3707.9
-3708.02
-3708.13
-3708.22
-3708.28
-3708.32
-3708.32
-3708.3
-3708.24
-3708.15
-3708.05
-3707.93
-3707.82
-3707.71
-3707.62
-3707.55
-3707.52
-3707.51
-3707.54
-3707.6
-3707.69
-3707.78
-3707.89
-3707.98
-3708.06
-3708.11
-3708.14
-3708.13
-3708.09
-3708.03
-3707.95
-3707.87
-3707.79
-3707.72
-3707.67
-3707.65
-3707.65
-3707.68
-3707.72
-3707.79
-3707.84
-3707.89
-3707.92
-3707.94
-3707.95
-3707.94
-3707.93
-3707.91
-3707.9
-3707.89
-3707.89
-3707.89
-3707.9
-3707.91
-3707.92
-3707.92
-3707.91
-3707.89
-3707.87
-3707.84
-3707.83
-3707.81
-4517.31
-4517.32
-4517.34
-4517.37
-4517.41
-4517.46
-4517.52
-4517.58
-4517.65
-4517.73
-4517.8
-4517.88
-4517.94
-4518.01
-4518.06
-4518.1
-4518.13
-4518.14
-4518.13
-4518.11
-4518.06
-4517.99
-4517.91
-4517.8
-4517.68
-4517.54
-4517.38
-4517.2
-4517.02
-4516.82
-4516.61
-4516.4
-4516.18
-4515.96
-4515.74
-4515.52
-4515.3
-4515.09
-4514.88
-4514.68
-4514.48
-4514.3
-4514.13
-4513.97
-4513.82
-4513.69
-4513.57
-4513.46
-4513.37
-4513.29
-4513.23
-4513.18
-4513.15
-4513.13
-4513.13
-4513.15
-4513.18
-4513.22
-4513.27
-4513.34
-4513.41
-4513.5
-4513.59
-4513.69
-4513.79
-4513.9
-4514
-4514.11
-4514.21
-4514.31
-4514.4
-4514.48
-4514.56
-4514.62
-4514.66
-4514.69
-4514.71
-4514.7
-4514.67
-4514.63
-4514.57
-4514.48
-4514.38
-4514.26
-4514.13
-4513.98
-4513.82
-4513.65
-4513.47
-4513.3
-4513.12
-4512.94
-4512.78
-4512.62
-4512.48
-4512.36
-4512.26
-4512.19
-4512.14
-4512.13
-4512.14
-4512.18
-4512.25
-4512.35
-4512.48
-4512.62
-4512.79
-4512.97
-4513.16
-4513.35
-4513.54
-4513.71
-4513.87
-4514.01
-4514.12
-4514.2
-4514.24
-4514.25
-4514.22
-4514.15
-4514.05
-4513.91
-4513.76
-4513.58
-4513.39
-4513.2
-4513.01
-4512.84
-4512.7
-4512.58
-4512.5
-4512.46
-4512.47
-4512.51
-4512.6
-4512.72
-4512.86
-4513.02
-4513.2
-4513.36
-4513.51
-4513.63
-4513.72
-4513.77
-4513.77
-4513.73
-4513.65
-4513.53
-4513.39
-4513.23
-4513.07
-4512.93
-4512.81
-4512.72
-4512.68
-4512.68
-4512.72
-4512.81
-4512.92
-4513.06
-4513.19
-4513.32
-4513.43
-4513.49
-4513.52
-4513.51
-4513.46
-4513.37
-4513.26
-4513.15
-4513.04
-4512.95
-4512.9
-4512.87
-4512.88
-4512.92
-4512.99
-4513.07
-4513.14
-4513.2
-4513.24
-4513.26
-4513.26
-4513.25
-4513.22
-4513.2
-4513.18
-4513.17
-4513.17
-4513.18
-4513.19
-4513.21
-4513.22
-4513.22
-4513.21
-4513.18
-4513.16
-4513.13
-4513.1
-4513.09
-5230.23
-5230.25
-5230.29
-5230.35
-5230.43
-5230.53
-5230.64
-5230.76
-5230.9
-5231.04
-5231.18
-5231.31
-5231.45
-5231.58
-5231.7
-5231.81
-5231.92
-5232
-5232.07
-5232.11
-5232.12
-5232.1
-5232.04
-5231.94
-5231.8
-5231.63
-5231.41
-5231.17
-5230.9
-5230.62
-5230.32
-5230.01
-5229.7
-5229.39
-5229.08
-5228.78
-5228.49
-5228.2
-5227.93
-5227.68
-5227.43
-5227.2
-5226.99
-5226.8
-5226.63
-5226.47
-5226.33
-5226.22
-5226.13
-5226.05
-5226
-5225.97
-5225.95
-5225.96
-5225.98
-5226.03
-5226.09
-5226.17
-5226.26
-5226.37
-5226.49
-5226.63
-5226.77
-5226.92
-5227.07
-5227.23
-5227.39
-5227.54
-5227.69
-5227.84
-5227.97
-5228.09
-5228.2
-5228.29
-5228.36
-5228.41
-5228.43
-5228.44
-5228.41
-5228.35
-5228.27
-5228.17
-5228.04
-5227.89
-5227.71
-5227.52
-5227.31
-5227.09
-5226.86
-5226.63
-5226.4
-5226.17
-5225.95
-5225.75
-5225.57
-5225.42
-5225.29
-5225.2
-5225.14
-5225.13
-5225.15
-5225.21
-5225.3
-5225.44
-5225.61
-5225.81
-5226.03
-5226.27
-5226.52
-5226.77
-5227.02
-5227.25
-5227.46
-5227.64
-5227.78
-5227.88
-5227.93
-5227.94
-5227.89
-5227.8
-5227.66
-5227.48
-5227.27
-5227.04
-5226.79
-5226.53
-5226.29
-5226.07
-5225.88
-5225.73
-5225.63
-5225.59
-5225.6
-5225.67
-5225.79
-5225.95
-5226.15
-5226.37
-5226.6
-5226.81
-5227.01
-5227.17
-5227.28
-5227.34
-5227.34
-5227.28
-5227.17
-5227.01
-5226.82
-5226.62
-5226.41
-5226.22
-5226.06
-5225.95
-5225.9
-5225.9
-5225.97
-5226.08
-5226.24
-5226.42
-5226.6
-5226.77
-5226.9
-5226.99
-5227.02
-5227
-5226.92
-5226.81
-5226.67
-5226.52
-5226.38
-5226.27
-5226.2
-5226.17
-5226.19
-5226.25
-5226.33
-5226.44
-5226.53
-5226.61
-5226.66
-5226.68
-5226.67
-5226.65
-5226.61
-5226.57
-5226.55
-5226.53
-5226.53
-5226.55
-5226.57
-5226.59
-5226.61
-5226.61
-5226.6
-5226.57
-5226.54
-5226.5
-5226.47
-5226.45
-5861.53
-5861.58
-5861.68
-5861.84
-5862.04
-5862.29
-5862.58
-5862.9
-5863.25
-5863.63
-5864
-5864.38
-5864.76
-5865.15
-5865.51
-5865.82
-5866.09
-5866.26
-5866.32
-5866.3
-5866.2
-5866.03
-5865.81
-5865.53
-5865.21
-5864.84
-5864.44
-5864.01
-5863.56
-5863.11
-5862.66
-5862.21
-5861.77
-5861.34
-5860.92
-5860.52
-5860.14
-5859.78
-5859.44
-5859.12
-5858.82
-5858.55
-5858.3
-5858.08
-5857.89
-5857.72
-5857.58
-5857.46
-5857.36
-5857.29
-5857.25
-5857.24
-5857.24
-5857.28
-5857.34
-5857.42
-5857.52
-5857.64
-5857.79
-5857.95
-5858.12
-5858.31
-5858.51
-5858.72
-5858.94
-5859.15
-5859.37
-5859.59
-5859.79
-5859.99
-5860.17
-5860.34
-5860.48
-5860.61
-5860.7
-5860.77
-5860.81
-5860.81
-5860.78
-5860.72
-5860.63
-5860.5
-5860.34
-5860.14
-5859.92
-5859.68
-5859.41
-5859.13
-5858.84
-5858.54
-5858.24
-5857.95
-5857.68
-5857.42
-5857.2
-5857
-5856.84
-5856.73
-5856.66
-5856.64
-5856.67
-5856.75
-5856.89
-5857.07
-5857.29
-5857.55
-5857.83
-5858.14
-5858.47
-5858.79
-5859.11
-5859.4
-5859.67
-5859.9
-5860.08
-5860.2
-5860.27
-5860.27
-5860.2
-5860.08
-5859.89
-5859.66
-5859.38
-5859.08
-5858.76
-5858.43
-5858.12
-5857.84
-5857.61
-5857.42
-5857.3
-5857.25
-5857.27
-5857.37
-5857.53
-5857.75
-5858
-5858.29
-5858.58
-5858.86
-5859.12
-5859.32
-5859.46
-5859.53
-5859.53
-5859.45
-5859.3
-5859.09
-5858.85
-5858.58
-5858.31
-5858.07
-5857.87
-5857.74
-5857.67
-5857.69
-5857.77
-5857.93
-5858.13
-5858.36
-5858.59
-5858.81
-5858.97
-5859.08
-5859.12
-5859.09
-5858.99
-5858.83
-5858.65
-5858.46
-5858.28
-5858.15
-5858.06
-5858.04
-5858.07
-5858.15
-5858.26
-5858.39
-5858.51
-5858.6
-5858.66
-5858.68
-5858.67
-5858.63
-5858.58
-5858.53
-5858.49
-5858.47
-5858.48
-5858.5
-5858.53
-5858.56
-5858.58
-5858.59
-5858.57
-5858.54
-5858.5
-5858.45
-5858.41
-5858.39
-6419.42
-6419.51
-6419.69
-6419.97
-6420.37
-6420.82
-6421.34
-6421.89
-6422.49
-6423.09
-6423.74
-6424.28
-6424.76
-6425.19
-6425.53
-6425.81
-6425.99
-6426.15
-6426.29
-6426.44
-6426.56
-6426.6
-6426.54
-6426.37
-6426.08
-6425.66
-6425.16
-6424.57
-6423.97
-6423.34
-6422.72
-6422.12
-6421.53
-6420.97
-6420.44
-6419.94
-6419.46
-6419.03
-6418.62
-6418.25
-6417.91
-6417.6
-6417.33
-6417.09
-6416.87
-6416.69
-6416.54
-6416.43
-6416.35
-6416.3
-6416.28
-6416.29
-6416.33
-6416.4
-6416.49
-6416.62
-6416.77
-6416.95
-6417.15
-6417.37
-6417.6
-6417.86
-6418.13
-6418.4
-6418.69
-6418.97
-6419.26
-6419.53
-6419.8
-6420.06
-6420.3
-6420.51
-6420.7
-6420.86
-6420.99
-6421.08
-6421.13
-6421.14
-6421.11
-6421.03
-6420.92
-6420.76
-6420.56
-6420.32
-6420.04
-6419.73
-6419.4
-6419.05
-6418.69
-6418.31
-6417.94
-6417.58
-6417.24
-6416.93
-6416.64
-6416.4
-6416.21
-6416.07
-6415.99
-6415.97
-6416.02
-6416.12
-6416.29
-6416.52
-6416.8
-6417.13
-6417.49
-6417.88
-6418.29
-6418.69
-6419.09
-6419.46
-6419.79
-6420.07
-6420.29
-6420.44
-6420.52
-6420.52
-6420.43
-6420.27
-6420.03
-6419.74
-6419.39
-6419
-6418.6
-6418.2
-6417.81
-6417.46
-6417.17
-6416.95
-6416.8
-6416.74
-6416.78
-6416.91
-6417.12
-6417.39
-6417.72
-6418.08
-6418.45
-6418.8
-6419.12
-6419.37
-6419.55
-6419.63
-6419.62
-6419.52
-6419.32
-6419.06
-6418.75
-6418.41
-6418.08
-6417.78
-6417.53
-6417.37
-6417.29
-6417.32
-6417.43
-6417.63
-6417.88
-6418.17
-6418.47
-6418.73
-6418.94
-6419.07
-6419.11
-6419.06
-6418.93
-6418.74
-6418.51
-6418.27
-6418.05
-6417.89
-6417.79
-6417.77
-6417.82
-6417.92
-6418.06
-6418.23
-6418.37
-6418.48
-6418.55
-6418.56
-6418.54
-6418.48
-6418.42
-6418.35
-6418.31
-6418.29
-6418.29
-6418.32
-6418.36
-6418.4
-6418.43
-6418.44
-6418.42
-6418.38
-6418.33
-6418.27
-6418.22
-6418.19
-6913.35
-6913.49
-6913.77
-6914.17
-6914.69
-6915.38
-6916.25
-6917.26
-6918.34
-6919.45
-6920.57
-6921.67
-6922.72
-6923.66
-6924.5
-6925.25
-6925.9
-6926.43
-6926.84
-6927.09
-6927.05
-6926.73
-6926.24
-6925.6
-6924.82
-6923.92
-6922.92
-6921.83
-6920.78
-6919.78
-6918.85
-6917.99
-6917.2
-6916.47
-6915.82
-6915.22
-6914.67
-6914.18
-6913.73
-6913.32
-6912.95
-6912.62
-6912.34
-6912.09
-6911.87
-6911.7
-6911.57
-6911.46
-6911.38
-6911.34
-6911.34
-6911.38
-6911.46
-6911.56
-6911.71
-6911.88
-6912.09
-6912.32
-6912.58
-6912.87
-6913.17
-6913.5
-6913.84
-6914.19
-6914.55
-6914.91
-6915.27
-6915.62
-6915.96
-6916.28
-6916.57
-6916.84
-6917.08
-6917.28
-6917.44
-6917.55
-6917.62
-6917.63
-6917.6
-6917.51
-6917.37
-6917.17
-6916.93
-6916.63
-6916.3
-6915.92
-6915.52
-6915.09
-6914.64
-6914.19
-6913.74
-6913.3
-6912.88
-6912.5
-6912.16
-6911.86
-6911.63
-6911.47
-6911.37
-6911.35
-6911.41
-6911.55
-6911.76
-6912.05
-6912.39
-6912.8
-6913.24
-6913.72
-6914.22
-6914.71
-6915.2
-6915.65
-6916.05
-6916.39
-6916.65
-6916.83
-6916.92
-6916.91
-6916.8
-6916.59
-6916.3
-6915.93
-6915.5
-6915.03
-6914.54
-6914.05
-6913.58
-6913.16
-6912.81
-6912.54
-6912.37
-6912.32
-6912.37
-6912.53
-6912.79
-6913.13
-6913.54
-6913.98
-6914.43
-6914.86
-6915.25
-6915.55
-6915.76
-6915.86
-6915.84
-6915.71
-6915.47
-6915.14
-6914.76
-6914.34
-6913.94
-6913.57
-6913.28
-6913.08
-6913
-6913.03
-6913.18
-6913.42
-6913.74
-6914.09
-6914.46
-6914.77
-6915.02
-6915.17
-6915.22
-6915.15
-6914.99
-6914.75
-6914.47
-6914.17
-6913.92
-6913.72
-6913.61
-6913.59
-6913.65
-6913.79
-6913.97
-6914.16
-6914.33
-6914.46
-6914.54
-6914.55
-6914.52
-6914.44
-6914.36
-6914.28
-6914.22
-6914.2
-6914.21
-6914.24
-6914.3
-6914.35
-6914.39
-6914.4
-6914.38
-6914.33
-6914.27
-6914.2
-6914.14
-6914.1
-7348.18
-7348.37
-7348.78
-7349.41
-7350.3
-7351.55
-7353.12
-7355.15
-7358.3
-7360.42
-7362.15
-7363.69
-7365.03
-7366.16
-7367.09
-7367.91
-7368.6
-7369.13
-7369.49
-7369.61
-7369.58
-7369.39
-7368.94
-7368.23
-7367.23
-7365.91
-7364.36
-7361.75
-7360.25
-7358.84
-7357.68
-7356.67
-7355.77
-7354.98
-7354.27
-7353.63
-7353.05
-7352.53
-7352.06
-7351.64
-7351.27
-7350.93
-7350.64
-7350.39
-7350.18
-7350.01
-7349.88
-7349.79
-7349.74
-7349.73
-7349.76
-7349.83
-7349.94
-7350.1
-7350.29
-7350.51
-7350.78
-7351.08
-7351.4
-7351.76
-7352.14
-7352.54
-7352.96
-7353.39
-7353.83
-7354.27
-7354.71
-7355.13
-7355.54
-7355.93
-7356.29
-7356.62
-7356.91
-7357.15
-7357.35
-7357.48
-7357.56
-7357.58
-7357.54
-7357.43
-7357.26
-7357.03
-7356.73
-7356.38
-7355.98
-7355.53
-7355.04
-7354.53
-7354
-7353.46
-7352.92
-7352.39
-7351.9
-7351.44
-7351.04
-7350.69
-7350.42
-7350.22
-7350.12
-7350.1
-7350.18
-7350.34
-7350.6
-7350.95
-7351.37
-7351.85
-7352.39
-7352.96
-7353.56
-7354.15
-7354.72
-7355.26
-7355.74
-7356.14
-7356.45
-7356.66
-7356.75
-7356.73
-7356.6
-7356.35
-7355.99
-7355.55
-7355.03
-7354.46
-7353.87
-7353.29
-7352.73
-7352.23
-7351.82
-7351.5
-7351.31
-7351.25
-7351.32
-7351.52
-7351.84
-7352.26
-7352.75
-7353.28
-7353.82
-7354.34
-7354.79
-7355.15
-7355.4
-7355.51
-7355.48
-7355.32
-7355.02
-7354.63
-7354.17
-7353.67
-7353.19
-7352.75
-7352.41
-7352.18
-7352.08
-7352.13
-7352.31
-7352.61
-7352.99
-7353.41
-7353.86
-7354.23
-7354.52
-7354.69
-7354.74
-7354.65
-7354.45
-7354.17
-7353.84
-7353.47
-7353.17
-7352.95
-7352.82
-7352.8
-7352.89
-7353.06
-7353.27
-7353.5
-7353.71
-7353.86
-7353.94
-7353.95
-7353.9
-7353.8
-7353.69
-7353.6
-7353.53
-7353.5
-7353.52
-7353.57
-7353.63
-7353.7
-7353.74
-7353.76
-7353.74
-7353.68
-7353.6
-7353.52
-7353.45
-7353.41
-7731.3
-7731.54
-7732.05
-7732.87
-7734.06
-7735.62
-7737.56
-7740.23
-7744.52
-7747.81
-7750.74
-7753.27
-7755.41
-7757.23
-7758.74
-7759.87
-7760.65
-7761.11
-7761.24
-7761.11
-7760.75
-7760.21
-7759.45
-7758.43
-7757.09
-7755.42
-7753.46
-7750.57
-7748.65
-7746.99
-7745.78
-7744.7
-7743.77
-7742.98
-7742.28
-7741.66
-7741.1
-7740.59
-7740.14
-7739.73
-7739.36
-7739.03
-7738.75
-7738.51
-7738.3
-7738.14
-7738.03
-7737.96
-7737.93
-7737.94
-7738
-7738.11
-7738.26
-7738.46
-7738.7
-7738.99
-7739.31
-7739.67
-7740.07
-7740.5
-7740.96
-7741.44
-7741.94
-7742.45
-7742.98
-7743.5
-7744.02
-7744.52
-7745.01
-7745.47
-7745.9
-7746.29
-7746.63
-7746.91
-7747.14
-7747.31
-7747.4
-7747.42
-7747.37
-7747.25
-7747.04
-7746.77
-7746.42
-7746.01
-7745.53
-7745
-7744.43
-7743.83
-7743.2
-7742.57
-7741.94
-7741.33
-7740.75
-7740.22
-7739.74
-7739.34
-7739.03
-7738.8
-7738.68
-7738.67
-7738.76
-7738.96
-7739.27
-7739.68
-7740.18
-7740.75
-7741.38
-7742.05
-7742.75
-7743.44
-7744.11
-7744.74
-7745.3
-7745.76
-7746.12
-7746.36
-7746.47
-7746.44
-7746.27
-7745.97
-7745.55
-7745.02
-7744.41
-7743.75
-7743.06
-7742.37
-7741.72
-7741.14
-7740.66
-7740.3
-7740.08
-7740.02
-7740.11
-7740.35
-7740.73
-7741.23
-7741.81
-7742.44
-7743.07
-7743.68
-7744.2
-7744.63
-7744.91
-7745.03
-7744.99
-7744.79
-7744.44
-7743.98
-7743.43
-7742.85
-7742.28
-7741.78
-7741.38
-7741.11
-7741.01
-7741.07
-7741.29
-7741.65
-7742.1
-7742.59
-7743.11
-7743.54
-7743.87
-7744.07
-7744.12
-7744.02
-7743.77
-7743.43
-7743.04
-7742.62
-7742.27
-7742.02
-7741.88
-7741.86
-7741.97
-7742.18
-7742.43
-7742.7
-7742.94
-7743.11
-7743.19
-7743.2
-7743.13
-7743.01
-7742.88
-7742.77
-7742.69
-7742.66
-7742.68
-7742.74
-7742.82
-7742.9
-7742.95
-7742.97
-7742.95
-7742.88
-7742.79
-7742.7
-7742.62
-7742.57
-8068.91
-8069.02
-8069.23
-8069.53
-8069.86
-8070.23
-8070.55
-8071
-8089.34
-8088.83
-8088.48
-8087.96
-8087.4
-8086.81
-8086.24
-8085.67
-8085.15
-8084.65
-8084.18
-8083.76
-8083.37
-8083.01
-8082.7
-8082.42
-8082.19
-8082
-8081.85
-8081.75
-8081.69
-8081.69
-8081.73
-8081.82
-8081.97
-8082.16
-8082.4
-8082.7
-8083.04
-8083.42
-8083.85
-8084.32
-8084.83
-8085.36
-8085.93
-8086.51
-8087.11
-8087.71
-8088.32
-8088.92
-8089.51
-8090.08
-8090.61
-8091.11
-8091.56
-8091.95
-8092.28
-8092.55
-8092.74
-8092.85
-8092.87
-8092.81
-8092.66
-8092.43
-8092.11
-8091.71
-8091.23
-8090.68
-8090.07
-8089.41
-8088.71
-8087.99
-8087.26
-8086.54
-8085.83
-8085.17
-8084.56
-8084.01
-8083.56
-8083.2
-8082.94
-8082.81
-8082.8
-8082.91
-8083.15
-8083.51
-8083.98
-8084.56
-8085.22
-8085.95
-8086.73
-8087.53
-8088.33
-8089.1
-8089.81
-8090.45
-8090.98
-8091.39
-8091.66
-8091.78
-8091.73
-8091.53
-8091.18
-8090.69
-8090.08
-8089.38
-8088.61
-8087.81
-8087.02
-8086.28
-8085.62
-8085.07
-8084.66
-8084.42
-8084.35
-8084.47
-8084.76
-8085.2
-8085.78
-8086.45
-8087.17
-8087.91
-8088.6
-8089.21
-8089.69
-8090.01
-8090.14
-8090.09
-8089.85
-8089.44
-8088.9
-8088.27
-8087.6
-8086.95
-8086.37
-8085.92
-8085.62
-8085.51
-8085.59
-8085.85
-8086.26
-8086.78
-8087.35
-8087.94
-8088.44
-8088.82
-8089.04
-8089.09
-8088.96
-8088.68
-8088.28
-8087.83
-8087.35
-8086.95
-8086.66
-8086.51
-8086.5
-8086.64
-8086.87
-8087.17
-8087.48
-8087.75
-8087.94
-8088.03
-8088.03
-8087.94
-8087.8
-8087.65
-8087.52
-8087.43
-8087.4
-8087.42
-8087.49
-8087.59
-8087.68
-8087.75
-8087.77
-8087.74
-8087.67
-8087.56
-8087.46
-8087.36
-8087.31
-8366.78
-8366.81
-8366.87
-8366.96
-8367.06
-8367.22
-8367.57
-8367.9
-8392.67
-8392.31
-8392.01
-8391.62
-8391.19
-8390.72
-8390.25
-8389.78
-8389.32
-8388.88
-8388.45
-8388.05
-8387.68
-8387.34
-8387.04
-8386.77
-8386.55
-8386.37
-8386.23
-8386.14
-8386.1
-8386.12
-8386.19
-8386.31
-8386.49
-8386.72
-8387.01
-8387.36
-8387.76
-8388.2
-8388.7
-8389.24
-8389.82
-8390.43
-8391.08
-8391.75
-8392.43
-8393.12
-8393.82
-8394.5
-8395.17
-8395.82
-8396.43
-8396.99
-8397.5
-8397.95
-8398.33
-8398.62
-8398.84
-8398.96
-8398.99
-8398.92
-8398.75
-8398.48
-8398.12
-8397.66
-8397.11
-8396.49
-8395.8
-8395.05
-8394.26
-8393.44
-8392.61
-8391.79
-8390.99
-8390.24
-8389.55
-8388.94
-8388.42
-8388.02
-8387.73
-8387.59
-8387.58
-8387.71
-8387.99
-8388.4
-8388.94
-8389.6
-8390.35
-8391.18
-8392.06
-8392.97
-8393.88
-8394.75
-8395.55
-8396.27
-8396.87
-8397.33
-8397.62
-8397.75
-8397.69
-8397.46
-8397.05
-8396.49
-8395.8
-8395
-8394.13
-8393.22
-8392.33
-8391.49
-8390.74
-8390.13
-8389.67
-8389.41
-8389.34
-8389.48
-8389.81
-8390.33
-8390.98
-8391.75
-8392.57
-8393.41
-8394.19
-8394.87
-8395.41
-8395.77
-8395.92
-8395.85
-8395.57
-8395.1
-8394.49
-8393.77
-8393.01
-8392.27
-8391.62
-8391.11
-8390.78
-8390.66
-8390.76
-8391.06
-8391.53
-8392.13
-8392.78
-8393.43
-8393.99
-8394.42
-8394.67
-8394.71
-8394.56
-8394.23
-8393.78
-8393.26
-8392.73
-8392.28
-8391.96
-8391.79
-8391.8
-8391.96
-8392.23
-8392.57
-8392.92
-8393.22
-8393.43
-8393.53
-8393.52
-8393.41
-8393.25
-8393.07
-8392.92
-8392.82
-8392.79
-8392.82
-8392.91
-8393.01
-8393.12
-8393.19
-8393.22
-8393.19
-8393.11
-8392.99
-8392.87
-8392.77
-8392.71
-8630.89
-8630.93
-8631.02
-8631.18
-8631.39
-8631.66
-8631.79
-8631.75
-8661.39
-8661.18
-8660.98
-8660.7
-8660.37
-8659.97
-8659.58
-8659.16
-8658.75
-8658.34
-8657.94
-8657.56
-8657.2
-8656.87
-8656.57
-8656.31
-8656.09
-8655.91
-8655.78
-8655.71
-8655.68
-8655.72
-8655.81
-8655.96
-8656.17
-8656.45
-8656.78
-8657.18
-8657.63
-8658.14
-8658.7
-8659.31
-8659.97
-8660.66
-8661.38
-8662.14
-8662.9
-8663.68
-8664.46
-8665.23
-8665.98
-8666.7
-8667.39
-8668.02
-8668.59
-8669.09
-8669.51
-8669.85
-8670.08
-8670.22
-8670.25
-8670.17
-8669.98
-8669.68
-8669.26
-8668.75
-8668.14
-8667.44
-8666.66
-8665.82
-8664.94
-8664.02
-8663.09
-8662.18
-8661.29
-8660.45
-8659.68
-8659
-8658.42
-8657.98
-8657.67
-8657.51
-8657.5
-8657.66
-8657.97
-8658.44
-8659.05
-8659.78
-8660.63
-8661.56
-8662.54
-8663.56
-8664.57
-8665.54
-8666.44
-8667.23
-8667.9
-8668.4
-8668.73
-8668.86
-8668.79
-8668.52
-8668.06
-8667.43
-8666.65
-8665.75
-8664.78
-8663.77
-8662.77
-8661.84
-8661.01
-8660.33
-8659.83
-8659.53
-8659.47
-8659.63
-8660.01
-8660.59
-8661.33
-8662.19
-8663.12
-8664.05
-8664.92
-8665.68
-8666.28
-8666.67
-8666.83
-8666.75
-8666.43
-8665.9
-8665.21
-8664.4
-8663.55
-8662.73
-8662.01
-8661.44
-8661.08
-8660.95
-8661.07
-8661.41
-8661.95
-8662.61
-8663.34
-8664.07
-8664.69
-8665.16
-8665.44
-8665.48
-8665.3
-8664.93
-8664.42
-8663.84
-8663.25
-8662.75
-8662.4
-8662.22
-8662.23
-8662.42
-8662.73
-8663.12
-8663.51
-8663.84
-8664.06
-8664.17
-8664.14
-8664.02
-8663.84
-8663.64
-8663.46
-8663.35
-8663.32
-8663.36
-8663.46
-8663.58
-8663.7
-8663.78
-8663.81
-8663.78
-8663.69
-8663.56
-8663.42
-8663.31
-8663.25
-8864.71
-8864.73
-8864.76
-8864.79
-8864.8
-8864.74
-8864.59
-8864.78
-8899.67
-8899.53
-8899.37
-8899.15
-8898.86
-8898.53
-8898.17
-8897.79
-8897.4
-8897.01
-8896.63
-8896.25
-8895.9
-8895.57
-8895.27
-8895.01
-8894.79
-8894.62
-8894.5
-8894.43
-8894.42
-8894.47
-8894.58
-8894.76
-8895.01
-8895.32
-8895.7
-8896.14
-8896.65
-8897.22
-8897.84
-8898.52
-8899.25
-8900.02
-8900.82
-8901.66
-8902.51
-8903.37
-8904.23
-8905.08
-8905.91
-8906.71
-8907.47
-8908.16
-8908.8
-8909.35
-8909.81
-8910.18
-8910.44
-8910.59
-8910.62
-8910.53
-8910.32
-8909.98
-8909.52
-8908.95
-8908.27
-8907.5
-8906.64
-8905.71
-8904.73
-8903.72
-8902.7
-8901.68
-8900.7
-8899.78
-8898.93
-8898.18
-8897.56
-8897.06
-8896.73
-8896.55
-8896.55
-8896.73
-8897.08
-8897.6
-8898.28
-8899.09
-8900.03
-8901.06
-8902.14
-8903.26
-8904.38
-8905.44
-8906.43
-8907.31
-8908.03
-8908.59
-8908.94
-8909.08
-8909
-8908.69
-8908.18
-8907.48
-8906.61
-8905.62
-8904.54
-8903.43
-8902.33
-8901.3
-8900.39
-8899.65
-8899.1
-8898.79
-8898.72
-8898.91
-8899.34
-8899.98
-8900.81
-8901.76
-8902.78
-8903.81
-8904.77
-8905.61
-8906.26
-8906.69
-8906.86
-8906.76
-8906.4
-8905.81
-8905.04
-8904.15
-8903.21
-8902.31
-8901.51
-8900.89
-8900.5
-8900.36
-8900.5
-8900.89
-8901.48
-8902.22
-8903.03
-8903.82
-8904.51
-8905.03
-8905.32
-8905.36
-8905.16
-8904.74
-8904.17
-8903.53
-8902.89
-8902.34
-8901.96
-8901.77
-8901.79
-8902
-8902.35
-8902.78
-8903.21
-8903.57
-8903.82
-8903.92
-8903.89
-8903.75
-8903.54
-8903.31
-8903.12
-8903
-8902.97
-8903.02
-8903.12
-8903.26
-8903.4
-8903.49
-8903.52
-8903.48
-8903.38
-8903.24
-8903.1
-8902.97
-8902.9
-9071.8
-9071.81
-9071.82
-9071.83
-9071.83
-9071.82
-9071.8
-9071.84
-9110.92
-9110.82
-9110.67
-9110.47
-9110.21
-9109.9
-9109.56
-9109.2
-9108.82
-9108.43
-9108.05
-9107.68
-9107.32
-9106.99
-9106.69
-9106.42
-9106.2
-9106.03
-9105.91
-9105.85
-9105.85
-9105.91
-9106.05
-9106.25
-9106.53
-9106.87
-9107.29
-9107.78
-9108.34
-9108.97
-9109.65
-9110.4
-9111.2
-9112.04
-9112.92
-9113.83
-9114.76
-9115.71
-9116.65
-9117.58
-9118.49
-9119.36
-9120.19
-9120.95
-9121.64
-9122.24
-9122.75
-9123.15
-9123.43
-9123.59
-9123.62
-9123.52
-9123.28
-9122.91
-9122.41
-9121.78
-9121.04
-9120.19
-9119.25
-9118.24
-9117.17
-9116.06
-9114.95
-9113.84
-9112.77
-9111.76
-9110.84
-9110.03
-9109.35
-9108.81
-9108.45
-9108.27
-9108.27
-9108.47
-9108.86
-9109.43
-9110.17
-9111.06
-9112.08
-9113.21
-9114.4
-9115.62
-9116.83
-9117.99
-9119.07
-9120.02
-9120.81
-9121.4
-9121.78
-9121.93
-9121.83
-9121.5
-9120.93
-9120.16
-9119.21
-9118.12
-9116.95
-9115.73
-9114.54
-9113.42
-9112.43
-9111.62
-9111.03
-9110.7
-9110.63
-9110.85
-9111.32
-9112.03
-9112.94
-9113.98
-9115.09
-9116.21
-9117.26
-9118.17
-9118.88
-9119.34
-9119.52
-9119.4
-9119.01
-9118.36
-9117.52
-9116.54
-9115.52
-9114.53
-9113.67
-9112.99
-9112.57
-9112.43
-9112.59
-9113.02
-9113.67
-9114.48
-9115.36
-9116.22
-9116.97
-9117.53
-9117.84
-9117.88
-9117.65
-9117.19
-9116.57
-9115.87
-9115.17
-9114.58
-9114.16
-9113.96
-9113.99
-9114.23
-9114.62
-9115.09
-9115.56
-9115.95
-9116.21
-9116.32
-9116.28
-9116.11
-9115.88
-9115.64
-9115.43
-9115.3
-9115.26
-9115.32
-9115.44
-9115.59
-9115.74
-9115.84
-9115.87
-9115.83
-9115.73
-9115.57
-9115.41
-9115.28
-9115.2
-9255.23
-9255.24
-9255.24
-9255.25
-9255.25
-9255.25
-9255.25
-9255.26
-9298.15
-9298.06
-9297.92
-9297.73
-9297.48
-9297.18
-9296.85
-9296.49
-9296.11
-9295.72
-9295.33
-9294.95
-9294.58
-9294.24
-9293.93
-9293.66
-9293.44
-9293.26
-9293.14
-9293.08
-9293.09
-9293.17
-9293.32
-9293.55
-9293.85
-9294.23
-9294.69
-9295.22
-9295.83
-9296.51
-9297.26
-9298.07
-9298.93
-9299.84
-9300.8
-9301.79
-9302.79
-9303.81
-9304.84
-9305.84
-9306.83
-9307.77
-9308.66
-9309.48
-9310.23
-9310.88
-9311.42
-9311.86
-9312.16
-9312.33
-9312.37
-9312.25
-9311.99
-9311.59
-9311.04
-9310.36
-9309.56
-9308.64
-9307.62
-9306.52
-9305.36
-9304.17
-9302.96
-9301.77
-9300.61
-9299.52
-9298.53
-9297.65
-9296.92
-9296.35
-9295.96
-9295.77
-9295.77
-9295.99
-9296.42
-9297.04
-9297.84
-9298.81
-9299.92
-9301.13
-9302.42
-9303.74
-9305.05
-9306.3
-9307.46
-9308.48
-9309.33
-9309.97
-9310.37
-9310.52
-9310.41
-9310.04
-9309.43
-9308.59
-9307.56
-9306.38
-9305.11
-9303.8
-9302.51
-9301.3
-9300.24
-9299.37
-9298.74
-9298.39
-9298.32
-9298.56
-9299.08
-9299.86
-9300.84
-9301.97
-9303.17
-9304.38
-9305.51
-9306.49
-9307.25
-9307.74
-9307.93
-9307.8
-9307.37
-9306.66
-9305.75
-9304.69
-9303.59
-9302.53
-9301.59
-9300.87
-9300.42
-9300.27
-9300.45
-9300.92
-9301.63
-9302.51
-9303.46
-9304.39
-9305.19
-9305.79
-9306.12
-9306.15
-9305.9
-9305.4
-9304.72
-9303.96
-9303.21
-9302.58
-9302.14
-9301.93
-9301.97
-9302.23
-9302.66
-9303.17
-9303.67
-9304.09
-9304.37
-9304.48
-9304.43
-9304.24
-9303.99
-9303.72
-9303.5
-9303.36
-9303.32
-9303.39
-9303.52
-9303.69
-9303.84
-9303.95
-9303.99
-9303.95
-9303.83
-9303.67
-9303.5
-9303.35
-9303.27
-9417.73
-9417.73
-9417.73
-9417.74
-9417.74
-9417.75
-9417.74
-9417.76
-9464.07
-9463.99
-9463.85
-9463.66
-9463.41