/*--------------------------------*- C++ -*----------------------------------*\
  =========                 |
  \\      /  F ield         | OpenFOAM: The Open Source CFD Toolbox
   \\    /   O peration     | Website:  https://openfoam.org
    \\  /    A nd           | Version:  12
     \\/     M anipulation  |
\*---------------------------------------------------------------------------*/
FoamFile
{
    format      ascii;
    class       surfaceScalarField;
    location    "12";
    object      phi;
}
// * * * * * * * * * * * * * * * * * * * * * * * * * * * * * * * * * * * * * //

dimensions      [1 0 -1 0 0 0 0];

internalField   nonuniform List<scalar> 
7429
(
9.964e-05
-9.96397e-05
0.000202042
-0.000102401
0.000306058
-0.000104016
0.000411926
-0.000105867
0.000519977
-0.000108051
0.000630606
-0.000110629
0.000744118
-0.000113512
0.000860612
-0.000116493
0.000980164
-0.000119552
0.00110285
-0.000122684
0.00122873
-0.000125883
0.00135787
-0.000129139
0.0014904
-0.00013253
0.00162634
-0.000135941
0.0017658
-0.000139457
0.00190881
-0.000143005
0.0020554
-0.000146589
0.00220558
-0.000150185
0.00235934
-0.000153762
0.00251659
-0.00015725
0.00267722
-0.000160629
0.00284103
-0.000163804
0.00300775
-0.000166728
0.00317707
-0.000169312
0.00334853
-0.000171463
0.00352161
-0.000173085
0.00369572
-0.000174101
0.00387007
-0.000174359
0.00404385
-0.000173776
0.00421616
-0.000172306
0.00438601
-0.000169849
0.00455231
-0.000166301
0.00471397
-0.000161663
0.00486976
-0.000155786
0.00501844
-0.000148684
0.00515861
-0.000140168
0.00528888
-0.000130274
0.00540844
-0.000119555
0.00551643
-0.000107995
0.00561169
-9.52624e-05
0.00569267
-8.09721e-05
0.00575779
-6.5127e-05
0.00580566
-4.78649e-05
0.00583544
-2.97818e-05
0.00584518
-9.74079e-06
0.0058304
1.47809e-05
0.00579131
3.90886e-05
0.00572688
6.44357e-05
0.00563628
9.05988e-05
0.00551885
0.000117426
0.00537426
0.000144594
0.0052023
0.000171953
0.00500344
0.000198867
0.00477789
0.000225545
0.00452669
0.000251199
0.00425057
0.000276123
0.00395118
0.000299392
0.00362966
0.000321518
0.00328806
0.000341594
0.00292806
0.00036
0.00255265
0.000375415
0.00216433
0.000388316
0.00176645
0.000397883
0.00136253
0.000403923
0.000956411
0.000406115
0.00055218
0.000404231
0.000154102
0.000398078
-0.000233161
0.000387262
-0.000604909
0.000371748
-0.000956404
0.000351496
-0.00128302
0.000326614
-0.00158004
0.000297018
-0.00184294
0.000262904
-0.00206762
0.000224679
-0.00225041
0.000182791
-0.00238775
0.000137339
-0.00247723
8.94835e-05
-0.00251697
3.97317e-05
-0.0025008
-1.61642e-05
-0.00242752
-7.32857e-05
-0.00229987
-0.00012765
-0.00212011
-0.000179753
-0.00189108
-0.000229034
-0.00161584
-0.00027524
-0.00129884
-0.000316998
-0.000944721
-0.000354121
-0.000560101
-0.00038462
-0.000151602
-0.000408499
0.000272818
-0.00042442
0.00070436
-0.000431542
0.00113384
-0.000429475
0.00155153
-0.000417691
0.00194754
-0.000396017
0.00231225
-0.000364703
0.00263591
-0.000323661
0.00290983
-0.000273927
0.00312597
-0.00021614
0.00327717
-0.000151196
0.00335803
-8.08596e-05
0.00336335
-5.32595e-06
0.00328421
7.91426e-05
0.00312615
0.00015806
0.00289303
0.000233123
0.0025896
0.000303427
0.00222202
0.000367582
0.00179878
0.000423238
0.00133037
0.00046841
0.000829327
0.000501046
0.000309811
0.000519516
-0.000212871
0.000522682
-0.000722696
0.000509825
-0.00120331
0.000480618
-0.00163926
0.000435949
-0.0020154
0.00037614
-0.00231896
0.000303553
-0.0025393
0.000220342
-0.00266865
0.000129353
-0.0027025
3.3852e-05
-0.00263073
-7.17761e-05
-0.002463
-0.000167722
-0.00220852
-0.000254486
-0.0018776
-0.000330919
-0.00148454
-0.000393057
-0.00104665
-0.000437893
-0.000584081
-0.000462568
-0.000118716
-0.000465365
0.000326302
-0.000445018
0.000729363
-0.000403061
0.00106967
-0.000340306
0.00133008
-0.000260413
0.00149666
-0.000166581
0.00156135
-6.46907e-05
0.00151342
4.79358e-05
0.0013596
0.000153813
0.00111249
0.000247113
0.000786402
0.000326089
0.000401955
0.000384446
-1.68348e-05
0.00041879
-0.000441841
0.000425006
-0.000844445
0.000402605
-0.00119612
0.000351674
-0.001472
0.000275877
-0.00165129
0.00017929
-0.00172018
6.88979e-05
-0.00166446
-5.57217e-05
-0.00149017
-0.00017429
-0.0012114
-0.000278772
-0.000846243
-0.000365157
-0.000420794
-0.00042545
3.43225e-05
-0.000455116
0.000483522
-0.000449199
0.000892701
-0.000409179
0.00123003
-0.000337333
0.00147
-0.000239962
0.00159498
-0.000124984
0.00159634
-1.36306e-06
0.00147358
0.000122762
0.00124687
0.000226715
0.000939494
0.000307373
0.0005825
0.000356993
0.000211595
0.000370905
-0.000136808
0.000348403
-0.000429436
0.000292629
-0.000640627
0.000211191
-0.000754742
0.000114115
-0.000768035
1.32924e-05
-0.000684914
-8.31209e-05
-0.000528777
-0.000156137
-0.000326681
-0.000202096
-0.000110977
-0.000215704
8.59304e-05
-0.000196908
0.000235939
-0.000150009
0.000319836
-8.38963e-05
0.000329735
-9.89994e-06
0.000265441
6.42945e-05
0.000146589
0.000118852
-3.79044e-06
0.000150379
-0.00015776
0.000153969
-0.00028647
0.000128711
-0.000367336
8.08659e-05
-0.000387334
1.99975e-05
-0.000340587
-4.67465e-05
-0.000238591
-0.000101996
-0.000100413
-0.000138178
4.98324e-05
-0.000150245
0.000184201
-0.000134369
0.000278741
-9.45403e-05
0.000316423
-3.7682e-05
0.000288597
2.78264e-05
0.000199902
8.86944e-05
6.36927e-05
0.00013621
-9.87029e-05
0.000162396
-0.000261281
0.000162578
-0.000397892
0.000136612
-0.000486393
8.85001e-05
-0.000511316
2.49234e-05
-0.000466252
-4.50641e-05
-0.000355433
-0.000110819
-0.000192672
-0.000162761
-0.000192672
0.000124955
-0.000224594
0.000255559
-0.000233004
0.000387973
-0.00023643
0.000522272
-0.000240166
0.000658492
-0.00024427
0.000796666
-0.000248803
0.000936787
-0.000253632
0.00107901
-0.000258714
0.00122347
-0.000264012
0.00137087
-0.000270086
0.00152187
-0.000276882
0.00167735
-0.000284615
0.00183742
-0.000292597
0.00200144
-0.00029997
0.002169
-0.000307009
0.00233975
-0.000313758
0.00251348
-0.000320314
0.00268998
-0.000326688
0.00286907
-0.00033285
0.00305054
-0.000338715
0.00323414
-0.000344237
0.00341959
-0.000349245
0.0036064
-0.000353537
0.00379405
-0.000356961
0.00398178
-0.000359199
0.00416875
-0.000360052
0.00435381
-0.000359157
0.00453581
-0.000356365
0.00471344
-0.0003514
0.00488584
-0.000344712
0.00505283
-0.000336838
0.00521422
-0.000327685
0.00536947
-0.000316921
0.00551806
-0.000304371
0.00565911
-0.000289734
0.00579195
-0.000273003
0.00591537
-0.000253696
0.00602776
-0.000231945
0.0061273
-0.000207535
0.00621252
-0.000180481
0.00628232
-0.000150774
0.0063356
-0.000118406
0.00637145
-8.37167e-05
0.00638841
-4.6742e-05
0.00638114
-2.47535e-06
0.00634406
5.18642e-05
0.00627877
0.000104384
0.00618559
0.000157612
0.00606451
0.000211674
0.00591557
0.000266369
0.00573874
0.000321429
0.00553423
0.000376455
0.00530227
0.00043083
0.00504337
0.00048445
0.00475828
0.000536285
0.00444794
0.000586468
0.00411358
0.000633744
0.00375662
0.00067848
0.00337885
0.000719363
0.00298233
0.000756524
0.00256968
0.000788065
0.00214393
0.000814065
0.00170848
0.000833332
0.00126727
0.000845132
0.000824381
0.000849003
0.000384299
0.000844312
-4.82128e-05
0.00083059
-0.000468169
0.000807219
-0.000870502
0.000774081
-0.00124994
0.000730934
-0.00160164
0.000678315
-0.00192035
0.000615729
-0.00220119
0.000543745
-0.00244002
0.0004635
-0.0026326
0.000375374
-0.00277533
0.000280073
-0.00286533
0.000179483
-0.00289963
7.40322e-05
-0.00287267
-4.31293e-05
-0.00278624
-0.000159717
-0.0026415
-0.000272383
-0.00244032
-0.000380935
-0.00218522
-0.00048414
-0.00187988
-0.000580571
-0.00152845
-0.00066843
-0.00113681
-0.000745765
-0.000711665
-0.000809764
-0.000261132
-0.000859032
0.000206126
-0.000891677
0.000680498
-0.000905914
0.00115186
-0.000900836
0.00160948
-0.000875315
0.00204275
-0.000829286
0.00244089
-0.000762843
0.00279387
-0.000676636
0.00309182
-0.000571877
0.00332613
-0.000450453
0.00348897
-0.00031403
0.00357466
-0.000166554
0.00357568
-6.34466e-06
0.00348895
0.000165875
0.00331777
0.000329235
0.00306526
0.000485637
0.00273603
0.000632651
0.00233719
0.000766427
0.00187837
0.000882052
0.00137147
0.000975308
0.000829901
0.00104262
0.000269804
0.00107961
-0.000292261
0.00108475
-0.000838679
0.00105624
-0.00135179
0.000993725
-0.00181453
0.000898693
-0.00221087
0.000772481
-0.00252697
0.000619652
-0.00275101
0.000444385
-0.0028748
0.000253142
-0.00289542
5.44708e-05
-0.00280258
-0.000164614
-0.00260784
-0.000362462
-0.00231888
-0.000543454
-0.00194778
-0.00070202
-0.00151053
-0.000830306
-0.00102668
-0.000921743
-0.000518644
-0.0009706
-1.05725e-05
-0.000973437
0.000473474
-0.000929064
0.00090871
-0.000838298
0.00127336
-0.000704958
0.00154832
-0.000535368
0.00171912
-0.000337382
0.0017776
-0.000123177
0.00171263
0.000112906
0.00153513
0.000331316
0.00125548
0.000526763
0.000890818
0.000690752
0.000463269
0.000811995
1.40671e-07
0.000881919
-0.000467868
0.000893015
-0.000908855
0.000843592
-0.00129247
0.000735291
-0.00159147
0.000574876
-0.00178331
0.000371125
-0.00185451
0.000140099
-0.00179087
-0.000119357
-0.00160097
-0.000364188
-0.0012974
-0.000582342
-0.000901739
-0.000760821
-0.000441661
-0.000885528
4.71563e-05
-0.000943934
0.000527164
-0.000929207
0.00096094
-0.000842955
0.00131468
-0.000691069
0.001561
-0.00048629
0.00168232
-0.000246296
0.00166692
1.40345e-05
0.00152378
0.000265897
0.00126946
0.000481036
0.000930895
0.000645941
0.000542669
0.000745218
0.000144384
0.00076919
-0.000223968
0.000716755
-0.000527776
0.000596437
-0.000739767
0.000423182
-0.000844293
0.000218641
-0.000836534
5.53399e-06
-0.000729365
-0.000190291
-0.000544584
-0.000340918
-0.000313404
-0.000433275
-7.11949e-05
-0.000457913
0.000144148
-0.00041225
0.000304257
-0.000310119
0.000388589
-0.000168228
0.000389356
-1.06664e-05
0.000310841
0.000142809
0.000172816
0.000256876
2.1435e-06
0.000321052
-0.000169651
0.000325764
-0.000311297
0.000270356
-0.000398701
0.00016827
-0.000417832
3.91289e-05
-0.000365341
-9.92381e-05
-0.000253138
-0.000214198
-0.000102483
-0.000288833
6.01606e-05
-0.000312889
0.000204387
-0.000278595
0.000305175
-0.000195329
0.000344797
-7.73038e-05
0.000315602
5.70209e-05
0.000222649
0.000181648
8.07096e-05
0.000278149
-8.76299e-05
0.000330735
-0.000255272
0.00033022
-0.000395622
0.000276962
-0.000486263
0.000179141
-0.000512079
5.07393e-05
-0.000467163
-8.99798e-05
-0.000356057
-0.000221925
-0.000192995
-0.000325823
-0.000385668
5.16703e-05
-0.000276264
0.000103994
-0.000285328
0.000156109
-0.000288544
0.00020771
-0.000291766
0.000258511
-0.00029507
0.000308667
-0.000298958
0.000358546
-0.00030351
0.000409904
-0.000310072
0.000464708
-0.000318816
0.000522123
-0.0003275
0.00058046
-0.000335218
0.000639052
-0.000343206
0.000698779
-0.000352323
0.000761729
-0.00036292
0.000829469
-0.000374748
0.000903605
-0.000387893
0.0009853
-0.000402009
0.00107574
-0.000417126
0.00117593
-0.000433045
0.0012865
-0.000449284
0.00140807
-0.000465804
0.00154113
-0.000482304
0.00168598
-0.000498388
0.00184277
-0.000513752
0.00201122
-0.000527651
0.00219123
-0.000540061
0.00238215
-0.000550078
0.00258353
-0.000557736
0.00279413
-0.000562007
0.00301262
-0.000563202
0.00323631
-0.000560523
0.0034628
-0.000554173
0.00368949
-0.000543618
0.00391375
-0.000528625
0.00413272
-0.000508705
0.00434595
-0.000486238
0.00455314
-0.000460883
0.00475245
-0.000431251
0.00494277
-0.000397862
0.00512132
-0.000359031
0.00528403
-0.000313477
0.00542799
-0.000262369
0.0055496
-0.000205324
0.00564609
-0.000143236
0.00571755
-7.39324e-05
0.00576696
2.45521e-06
0.00578664
8.46986e-05
0.00577398
0.000170269
0.00572686
0.000258796
0.00564396
0.000349267
0.00552436
0.000441036
0.00536766
0.000533154
0.0051735
0.000624983
0.00494241
0.000715544
0.00467479
0.000803902
0.00437149
0.000889768
0.00403384
0.000971399
0.00366381
0.00104851
0.00326409
0.00111908
0.00283774
0.00118287
0.00238824
0.00123756
0.00191985
0.00128246
0.00143675
0.00131643
0.000944298
0.00133759
0.000447168
0.00134613
-4.86185e-05
0.0013401
-0.000537547
0.00131952
-0.00101331
0.00128298
-0.00146954
0.00123031
-0.00189989
0.00116128
-0.00229822
0.00107665
-0.00265835
0.000975856
-0.0029741
0.000859491
-0.00324006
0.000729465
-0.00345089
0.0005862
-0.00360298
0.000432168
-0.00369205
0.000268551
-0.00371546
9.74442e-05
-0.00366524
-9.3355e-05
-0.00354614
-0.000278812
-0.00335904
-0.000459486
-0.00310557
-0.0006344
-0.00278835
-0.00080136
-0.00241121
-0.000957712
-0.00197955
-0.0011001
-0.00150055
-0.00122476
-0.00098238
-0.00132794
-0.000434836
-0.00140658
0.000131276
-0.00145779
0.000704854
-0.00147949
0.0012731
-0.00146908
0.00182408
-0.0014263
0.00234423
-0.00134944
0.00282099
-0.00123961
0.00324236
-0.00109801
0.00359654
-0.000926057
0.00387327
-0.000727177
0.00406411
-0.000504874
0.00416248
-0.000264919
0.00415734
-1.20812e-06
0.00405085
0.000272365
0.00384453
0.000535554
0.00354147
0.000788697
0.003147
0.00102712
0.00267033
0.0012431
0.00212319
0.00142919
0.00152015
0.00157835
0.000878914
0.00168385
0.00021762
0.00174091
-0.000443498
0.00174587
-0.0010835
0.00169624
-0.00168141
0.00159164
-0.00221664
0.00143392
-0.00267053
0.00122637
-0.00302659
0.000975714
-0.00327085
0.000688643
-0.00339526
0.00037756
-0.00339262
5.18227e-05
-0.00326
-0.000297226
-0.00300735
-0.000615118
-0.00264349
-0.00090731
-0.00218355
-0.00116196
-0.00164741
-0.00136644
-0.00105897
-0.00151018
-0.000445662
-0.00158391
0.000164088
-0.00158319
0.000740016
-0.00150499
0.00125324
-0.00135152
0.00167829
-0.00113001
0.00199255
-0.000849621
0.00217916
-0.000523996
0.00222934
-0.000173354
0.00213391
0.000208337
0.00190546
0.000559762
0.00155431
0.000877914
0.00110325
0.00114181
0.000578515
0.00133673
1.53003e-05
0.00144513
-0.000549991
0.00145831
-0.00107987
0.00137347
-0.00153791
0.00119333
-0.00189091
0.000927876
-0.00211506
0.000595267
-0.00219153
0.000216568
-0.00210982
-0.000201064
-0.00187918
-0.000594831
-0.00151443
-0.000947094
-0.00104237
-0.00123287
-0.00049758
-0.00143032
7.80228e-05
-0.00151954
0.000638259
-0.00148944
0.00113876
-0.00134346
0.00154058
-0.00109289
0.0018118
-0.000757507
0.00193306
-0.000367558
0.00189278
5.43117e-05
0.00170487
0.00045381
0.00138878
0.000797127
0.000978016
0.0010567
0.000515374
0.00120786
4.7486e-05
0.00123708
-0.000376138
0.00114038
-0.000716419
0.000936718
-0.000942665
0.000649428
-0.00103869
0.000314661
-0.000998996
-3.41566e-05
-0.000844622
-0.000344664
-0.000601875
-0.000583665
-0.000309822
-0.000725328
-1.2561e-05
-0.000755174
0.00024624
-0.000671051
0.000432201
-0.00049608
0.000522785
-0.000258812
0.000506771
5.3482e-06
0.000399549
0.000250032
0.00022155
0.000434875
6.84503e-06
0.000535757
-0.000203469
0.000536078
-0.000373905
0.000440791
-0.000476147
0.000270513
-0.000494936
5.79175e-05
-0.000428302
-0.000165872
-0.000291715
-0.000350785
-0.000111045
-0.000469503
8.11315e-05
-0.000505066
0.000249837
-0.0004473
0.000366137
-0.000311629
0.000410775
-0.000121942
0.00037653
9.12655e-05
0.00027022
0.000287958
0.0001098
0.000438569
-7.87452e-05
0.00051928
-0.000264986
0.000516461
-0.00041977
0.000431746
-0.000519145
0.000278515
-0.000547577
7.91715e-05
-0.000499479
-0.000138078
-0.000380502
-0.000340902
-0.000206028
-0.000500296
-0.000591696
9.10421e-05
-0.000367305
0.000189058
-0.000383343
0.000291663
-0.000391149
0.000400408
-0.00040051
0.000516063
-0.000410724
0.000639749
-0.000422644
0.000769664
-0.000433425
0.000905266
-0.000445672
0.00104051
-0.000454061
0.00117555
-0.000462539
0.00130906
-0.000468723
0.00144259
-0.000476741
0.00157631
-0.000486039
0.00171103
-0.000497642
0.0018467
-0.000510414
0.00198574
-0.000526932
0.00212922
-0.000545494
0.00227769
-0.000565597
0.00243253
-0.00058788
0.00259584
-0.000612593
0.0027691
-0.000639062
0.00295407
-0.000667273
0.00315111
-0.000695433
0.00336144
-0.000724078
0.00358336
-0.000749575
0.00381683
-0.000773531
0.00405621
-0.000789458
0.00430029
-0.000801814
0.00453978
-0.000801499
0.00477527
-0.000798685
0.00500723
-0.000792486
0.0052384
-0.000785346
0.00546813
-0.000773338
0.00569621
-0.000756706
0.00592159
-0.000734091
0.00614047
-0.00070511
0.00634912
-0.000669532
0.00654475
-0.00062689
0.00672376
-0.000576869
0.00688404
-0.000519307
0.00702464
-0.000454081
0.00714321
-0.000380934
0.00723788
-0.000299999
0.00730738
-0.000212731
0.00734904
-0.000115599
0.00735358
-2.0816e-06
0.00731097
0.000127304
0.00722838
0.000252863
0.00710704
0.000380134
0.00694706
0.000509245
0.0067481
0.000639995
0.00650942
0.000771837
0.00623125
0.000903152
0.00591272
0.00103407
0.0055545
0.00116213
0.00515743
0.00128683
0.00472299
0.00140584
0.00425265
0.00151885
0.00374905
0.00162268
0.00321572
0.0017162
0.00265689
0.00179639
0.00207675
0.0018626
0.00148105
0.00191213
0.000875371
0.00194327
0.000266087
0.00195542
-0.000340202
0.00194639
-0.000935964
0.00191528
-0.00151447
0.00186149
-0.00206765
0.00178348
-0.00258797
0.0016816
-0.00306781
0.0015565
-0.00350006
0.0014081
-0.00387681
0.00123624
-0.00419226
0.00104491
-0.00444055
0.000834498
-0.00461492
0.000606537
-0.00471096
0.000364586
-0.00472548
0.000111966
-0.00465361
-0.000165222
-0.00449858
-0.000433843
-0.00425994
-0.000698123
-0.00393998
-0.000954368
-0.00354146
-0.00119988
-0.00307027
-0.0014289
-0.00253373
-0.00163664
-0.00194017
-0.00181832
-0.00130031
-0.00196779
-0.000625969
-0.00208092
7.05302e-05
-0.00215429
0.000774109
-0.00218307
0.00147094
-0.00216591
0.00214452
-0.00209988
0.00277844
-0.00198335
0.00335871
-0.00181988
0.00386968
-0.00160898
0.00429751
-0.00135388
0.00462968
-0.00105935
0.00485561
-0.000730808
0.00496705
-0.000376358
0.00495362
1.22225e-05
0.00481866
0.000407328
0.00456282
0.000791392
0.00418931
0.00116221
0.0037055
0.00151092
0.00312267
0.00182593
0.0024566
0.00209526
0.00172504
0.00230991
0.00094795
0.00246094
0.000149314
0.00253954
-0.000646262
0.00254144
-0.00141233
0.00246231
-0.00212375
0.00230306
-0.00275706
0.00206723
-0.00328885
0.00175816
-0.00369837
0.00138523
-0.00397195
0.000962222
-0.00409827
0.000503881
-0.0040604
1.39536e-05
-0.00387737
-0.000480257
-0.00354779
-0.000944693
-0.00308412
-0.00137098
-0.00250565
-0.00174044
-0.00183806
-0.00203403
-0.00111036
-0.00223789
-0.000357758
-0.00233651
0.000384888
-0.00232583
0.00108254
-0.00220264
0.00170001
-0.00196899
0.00220552
-0.00163553
0.00257285
-0.00121695
0.00278096
-0.000732112
0.00281715
-0.000209538
0.00268199
0.000343491
0.00238287
0.000858883
0.00193704
0.00132375
0.00136922
0.00170963
0.000717847
0.00198811
2.09319e-05
0.00214205
-0.000674215
0.00215345
-0.0013203
0.00201955
-0.00187516
0.0017482
-0.00229998
0.0013527
-0.00256359
0.000858878
-0.00264448
0.000297455
-0.00253709
-0.000308452
-0.00224914
-0.000882779
-0.00180052
-0.00139572
-0.00122376
-0.00180963
-0.000563945
-0.00209014
0.000127024
-0.00221051
0.000794463
-0.00215688
0.00138486
-0.00193385
0.00185079
-0.00155882
0.0021555
-0.00106221
0.00227609
-0.000488149
0.00220419
0.000126214
0.00195522
0.000702778
0.00155537
0.00119697
0.00104825
0.00156383
0.000485191
0.00177092
-7.29749e-05
0.00179524
-0.000572231
0.00163964
-0.000962292
0.00132678
-0.00120789
0.000895028
-0.00129037
0.000397144
-0.0012118
-0.000112728
-0.000994826
-0.000561641
-0.000675708
-0.000902783
-0.000304163
-0.00109687
6.51295e-05
-0.00112447
0.000380132
-0.000986054
0.000598384
-0.000714332
0.00069452
-0.000354948
0.000659793
4.00751e-05
0.000512048
0.000397776
0.000280291
0.000666632
7.91991e-06
0.000808129
-0.000253403
0.000797401
-0.000461441
0.000648829
-0.00058229
0.000391362
-0.000599074
7.47011e-05
-0.000512501
-0.000252445
-0.000342623
-0.000520663
-0.000121747
-0.000690379
0.000109631
-0.000736444
0.000310143
-0.000647812
0.000446077
-0.000447563
0.000496289
-0.000172154
0.000454283
0.000133272
0.000329346
0.000412895
0.000143532
0.000624383
-7.23431e-05
0.000735156
-0.00028352
0.000727637
-0.000457499
0.000605725
-0.000568188
0.000389205
-0.000599351
0.000110334
-0.000546227
-0.000191201
-0.000415628
-0.0004715
-0.000224951
-0.000690973
-0.000816647
0.000100148
-0.000467453
0.000203669
-0.000486863
0.000302785
-0.000490264
0.000395016
-0.000492741
0.000475161
-0.000490869
0.000541025
-0.000488507
0.00058058
-0.00047298
0.000595612
-0.000460703
0.000566006
-0.000424455
0.000505201
-0.000401733
0.000417561
-0.000381083
0.0003156
-0.000374779
0.000205719
-0.000376157
9.80874e-05
-0.00039001
1.76696e-06
-0.000414093
-7.67109e-05
-0.000448454
-0.000130361
-0.000491843
-0.000153569
-0.000542388
-0.000142761
-0.000598688
-9.76312e-05
-0.000657722
-1.9451e-05
-0.000717242
9.45884e-05
-0.000781312
0.000242749
-0.000843593
0.000427254
-0.000908583
0.000644905
-0.000967226
0.000898924
-0.00102755
0.00117964
-0.00107017
0.0014891
-0.00111128
0.00181092
-0.00112332
0.00214844
-0.0011362
0.00249813
-0.00114218
0.00285874
-0.00114596
0.00322745
-0.00114204
0.00360203
-0.00113129
0.00397972
-0.00111178
0.00435703
-0.00108242
0.0047302
-0.00104271
0.00509512
-0.000991808
0.00544597
-0.000927717
0.00577801
-0.000851344
0.00608748
-0.000763558
0.00636709
-0.000660535
0.00661577
-0.000548682
0.00681977
-0.000416736
0.00698524
-0.000281061
0.00710697
-0.000123819
0.00718905
4.52305e-05
0.0072219
0.000220009
0.00720143
0.000400603
0.0071257
0.000584974
0.00699309
0.000772605
0.00680291
0.000962024
0.00655481
0.00115125
0.00624922
0.00133966
0.00588659
0.00152477
0.00546866
0.00170476
0.00499857
0.00187594
0.00447974
0.00203767
0.00391686
0.00218557
0.00331363
0.00231942
0.00267603
0.00243399
0.00201007
0.00252856
0.00132238
0.00259982
0.000620315
0.00264533
-8.80541e-05
0.00266379
-0.000794614
0.00265295
-0.00149079
0.00261145
-0.00216737
0.00253807
-0.00281508
0.0024312
-0.00342405
0.00229056
-0.00398504
0.0021175
-0.00448814
0.0019112
-0.00492644
0.00167455
-0.0052911
0.00140957
-0.00557224
0.00111563
-0.00576464
0.000798943
-0.00586454
0.000464486
-0.00586959
0.000117019
-0.00576869
-0.000266128
-0.0055681
-0.000634429
-0.00526788
-0.000998343
-0.00486986
-0.00135239
-0.00437828
-0.00169146
-0.00379973
-0.00200745
-0.00314295
-0.00229342
-0.00241849
-0.00254278
-0.00164028
-0.00274601
-0.000820348
-0.00290085
2.39338e-05
-0.00299857
0.000875076
-0.00303421
0.00171623
-0.00300707
0.00252677
-0.00291042
0.00328895
-0.00274553
0.0039847
-0.00251563
0.00459519
-0.00221947
0.00510385
-0.00186255
0.00549589
-0.00145139
0.00575864
-0.000993553
0.0058824
-0.000500123
0.00585819
3.64386e-05
0.0056894
0.000576119
0.00537466
0.00110613
0.00491895
0.00161792
0.00433167
0.0020982
0.00362806
0.00252954
0.00282517
0.00289815
0.00194554
0.00318954
0.00101455
0.00339193
6.09561e-05
0.00349314
-0.000885412
0.00348781
-0.00179451
0.0033714
-0.00263406
0.00314261
-0.003375
0.00280817
-0.00399193
0.00237509
-0.00445998
0.00185328
-0.00476408
0.00126633
-0.00488639
0.000626183
-0.00481951
-5.29269e-05
-0.00457451
-0.000725256
-0.00415456
-0.00136464
-0.00357572
-0.00194983
-0.00286288
-0.00245327
-0.00204649
-0.00285042
-0.00116347
-0.00312091
-0.000253645
-0.00324633
0.000641439
-0.00322092
0.00147539
-0.00303659
0.00220716
-0.00270076
0.00279994
-0.0022283
0.00322238
-0.0016394
0.00345251
-0.000962239
0.00347694
-0.000233966
0.00329149
0.000528935
0.00291009
0.00124029
0.00235329
0.00188054
0.00165549
0.00240744
0.000858653
0.00278494
1.27687e-05
0.00298793
-0.000826145
0.00299237
-0.00160377
0.00279717
-0.00226659
0.00241102
-0.00276746
0.00185356
-0.0030712
0.00116262
-0.00315884
0.000385095
-0.00301758
-0.000449712
-0.00266189
-0.00123847
-0.00211545
-0.00194216
-0.00141919
-0.00250588
-0.000629582
-0.00287975
0.000192885
-0.00303297
0.000981045
-0.00294504
0.00167122
-0.00262403
0.00220773
-0.00209533
0.00254692
-0.0014014
0.00266436
-0.00060559
0.00255441
0.000236159
0.00223408
0.00102311
0.00173838
0.00169267
0.00112091
0.0021813
0.000446538
0.00244529
-0.000215726
0.00245751
-0.000797241
0.00222115
-0.00124051
0.00177005
-0.00150448
0.001159
-0.00157195
0.000464613
-0.00144699
-0.000237688
-0.00115762
-0.00085101
-0.000751657
-0.00130875
-0.000290146
-0.00155838
0.000160489
-0.0015751
0.000536402
-0.00136197
0.000788394
-0.000966324
0.000887719
-0.000454273
0.000829311
9.84835e-05
0.000633681
0.000593406
0.00034042
0.000959892
3.48618e-06
0.00114506
-0.000315515
0.0011164
-0.000564433
0.000897748
-0.000704321
0.000531249
-0.000716707
8.70869e-05
-0.000606163
-0.000362989
-0.000397631
-0.000729195
-0.000131508
-0.000956502
0.000143359
-0.00101131
0.00037831
-0.000882763
0.000534755
-0.000604009
0.00058955
-0.000226949
0.000537525
0.000185297
0.000391028
0.000559392
0.000176998
0.000838413
-6.87442e-05
0.000980898
-0.000306438
0.000965331
-0.000500424
0.000799712
-0.000622537
0.000511318
-0.000655951
0.000143747
-0.000596768
-0.000250384
-0.000453338
-0.000614931
-0.000244993
-0.000899318
-0.00106164
-0.000108842
-0.000358611
-0.00020886
-0.000386844
-0.000281013
-0.00041811
-0.000308975
-0.000464778
-0.000280745
-0.000519099
-0.00017562
-0.000593631
-8.83746e-06
-0.000639761
0.000268878
-0.000738418
0.000544555
-0.000700131
0.000840637
-0.000697815
0.00111414
-0.00065459
0.00135631
-0.000616942
0.00155317
-0.000573018
0.00170041
-0.000537249
0.00179751
-0.000511197
0.00184812
-0.000499064
0.00185609
-0.00049981
0.00183298
-0.000519277
0.00179158
-0.000557284
0.00175066
-0.000616809
0.001728
-0.000694575
0.00174373
-0.00079704
0.00181084
-0.00091071
0.00195366
-0.0010514
0.00216349
-0.00117706
0.00246213
-0.00132618
0.00279126
-0.0013993
0.00321368
-0.0015337
0.00360718
-0.00151682
0.00403209
-0.0015611
0.00444233
-0.00155243
0.00485434
-0.00155796
0.00525898
-0.00154669
0.00565625
-0.00152855
0.0060437
-0.00149923
0.00641822
-0.00145694
0.00677656
-0.00140105
0.00711574
-0.00133098
0.00743286
-0.00124484
0.00772585
-0.00114434
0.00798851
-0.00102622
0.00822125
-0.000893272
0.00841262
-0.000740054
0.00857425
-0.000578365
0.00869067
-0.00039748
0.00877018
-0.000203332
0.00878158
3.38314e-05
0.00873457
0.000267023
0.00863398
0.000501187
0.008479
0.000739959
0.00826657
0.000985033
0.00799488
0.00123371
0.00766147
0.00148466
0.00726679
0.00173433
0.00681176
0.00197979
0.00629737
0.00221915
0.00572658
0.00244672
0.00510168
0.00266257
0.00442774
0.00285952
0.00370896
0.0030382
0.00295204
0.00319091
0.0021636
0.003317
0.00135151
0.00341191
0.000524286
0.00347255
-0.000309732
0.0034978
-0.0011398
0.00348302
-0.00195724
0.00342889
-0.00274887
0.0033297
-0.00350471
0.00318704
-0.00421376
0.00299961
-0.00486738
0.00277112
-0.0054527
0.00249652
-0.00595783
0.00217968
-0.00637636
0.0018281
-0.00669835
0.00143762
-0.0069148
0.0010154
-0.00702324
0.000572925
-0.00701501
0.000108793
-0.00688718
-0.000393961
-0.0066419
-0.000879712
-0.00627853
-0.00136171
-0.00580019
-0.00183073
-0.00521233
-0.00227932
-0.00452324
-0.00269654
-0.0037431
-0.00307356
-0.00288416
-0.00340172
-0.00196187
-0.00366829
-0.000994181
-0.00386854
2.82115e-07
-0.00399303
0.00100261
-0.00403654
0.00199109
-0.00399554
0.00294218
-0.00386151
0.00383438
-0.00363773
0.00464618
-0.00332742
0.00535677
-0.00293006
0.00594632
-0.0024521
0.00639795
-0.00190302
0.00669672
-0.00129232
0.00682707
-0.000630474
0.00679124
7.22637e-05
0.00658368
0.000783676
0.00620521
0.0014846
0.00566152
0.00216161
0.00496531
0.00279441
0.00413216
0.0033627
0.00318609
0.00384422
0.00215409
0.00422155
0.00106652
0.0044795
-4.51212e-05
0.00460477
-0.00114471
0.0045874
-0.00219782
0.00442451
-0.00316802
0.00411282
-0.004021
0.00366115
-0.00472152
0.00307561
-0.00525013
0.00238189
-0.00557867
0.00159487
-0.00569481
0.000742318
-0.00559503
-0.000152702
-0.00528382
-0.00103647
-0.00476861
-0.00187984
-0.00406989
-0.00264855
-0.00321631
-0.00330685
-0.00224506
-0.00382167
-0.00119829
-0.00416769
-0.000123539
-0.00432108
0.00092019
-0.00426465
0.00189115
-0.00400755
0.00273878
-0.00354838
0.00341902
-0.00290854
0.00389479
-0.00211517
0.00414135
-0.0012088
0.00414618
-0.000238793
0.00391027
0.000764843
0.00344181
0.00170875
0.00277044
0.00255191
0.00193512
0.00324276
0.000985572
0.00373449
-1.34556e-05
0.00398696
-0.000999982
0.00397889
-0.00190868
0.00370587
-0.00267731
0.00317966
-0.0032549
0.00243115
-0.00360064
0.00150836
-0.00368473
0.00046918
-0.00350682
-0.000627615
-0.00307705
-0.00166825
-0.00242809
-0.00259112
-0.0016102
-0.00332377
-0.000685552
-0.0038044
0.000272904
-0.00399143
0.00118406
-0.00385619
0.00197407
-0.00341405
0.00258019
-0.00270145
0.00295141
-0.00177261
0.00306211
-0.00071629
0.00290886
0.000389407
0.00251265
0.00141932
0.0019157
0.00228962
0.00118411
0.00291289
0.000394606
0.00323479
-0.00037234
0.00322445
-0.00103613
0.00288494
-0.00153088
0.0022648
-0.00181153
0.00143965
-0.00185909
0.000512168
-0.00168156
-0.000415215
-0.00131505
-0.00121752
-0.000817821
-0.00180598
-0.000263169
-0.00211304
0.000268435
-0.00210671
0.000704657
-0.00179819
0.000988673
-0.00125034
0.00108802
-0.000553616
0.00100161
0.000184894
0.00075415
0.000840862
0.000395575
0.00131847
-8.24135e-06
0.00154888
-0.000385587
0.00149375
-0.00067504
0.0011872
-0.000832508
0.000688717
-0.000837866
9.24448e-05
-0.000700457
-0.000500398
-0.000450907
-0.000978745
-0.000138207
-0.0012692
0.000180248
-0.00132977
0.000448748
-0.00115126
0.000624203
-0.000779464
0.000681969
-0.000284715
0.000618434
0.000248833
0.000449472
0.000728354
0.000207143
0.00108074
-6.76164e-05
0.00125566
-0.000330695
0.00122841
-0.000543055
0.00101207
-0.000674999
0.000643262
-0.000709692
0.000178439
-0.000644104
-0.000315971
-0.000488343
-0.000770692
-0.000263628
-0.00112403
-0.00132527
0.000264649
-0.000623259
0.00055194
-0.000674135
0.000895072
-0.000761242
0.00131735
-0.000887055
0.00184066
-0.00104241
0.00248186
-0.00123483
0.00311023
-0.00126813
0.00362512
-0.0012533
0.00346006
-0.000535073
0.00293318
-0.000170932
0.00216938
0.000109207
0.00135573
0.000196709
0.000527325
0.000255387
-0.000286969
0.000277046
-0.00107473
0.000276561
-0.00177508
0.000201292
-0.00237135
9.64568e-05
-0.00283598
-5.46408e-05
-0.00311952
-0.000273751
-0.00325645
-0.000479875
-0.0032841
-0.000666922
-0.00319368
-0.000887467
-0.0030147
-0.00108968
-0.00272495
-0.00134115
-0.00235033
-0.00155168
-0.00182168
-0.00185483
-0.0011809
-0.00204009
-0.000324312
-0.00239029
0.000425534
-0.00226667
0.00109614
-0.00223171
0.00173209
-0.00218838
0.00235327
-0.00217914
0.00296602
-0.00215943
0.00356994
-0.00213248
0.00416574
-0.00209502
0.00475054
-0.00204174
0.00532479
-0.0019753
0.00588251