/*--------------------------------*- C++ -*----------------------------------*\
  =========                 |
  \\      /  F ield         | OpenFOAM: The Open Source CFD Toolbox
   \\    /   O peration     | Website:  https://openfoam.org
    \\  /    A nd           | Version:  12
     \\/     M anipulation  |
\*---------------------------------------------------------------------------*/
FoamFile
{
    format      ascii;
    class       volVectorField;
    location    "12";
    object      U;
}
// * * * * * * * * * * * * * * * * * * * * * * * * * * * * * * * * * * * * * //

dimensions      [0 1 -1 0 0 0 0];

internalField   nonuniform List<vector> 
3829
(
(4.15561e-06 -0.000294406 0)
(1.19073e-05 -0.000303703 0)
(2.03604e-05 -0.000303464 0)
(2.86558e-05 -0.000302862 0)
(3.72287e-05 -0.000302052 0)
(4.59496e-05 -0.000301013 0)
(5.49271e-05 -0.000299753 0)
(6.41107e-05 -0.000298269 0)
(7.35325e-05 -0.000296554 0)
(8.31729e-05 -0.00029461 0)
(9.31153e-05 -0.000292426 0)
(0.000103347 -0.00029 0)
(0.000113774 -0.000287318 0)
(0.000124473 -0.00028436 0)
(0.000135461 -0.000281117 0)
(0.000146741 -0.000277586 0)
(0.000158302 -0.000273754 0)
(0.000170147 -0.00026962 0)
(0.000182277 -0.000265184 0)
(0.000194696 -0.000260435 0)
(0.000207395 -0.000255381 0)
(0.000220352 -0.000250011 0)
(0.000233546 -0.000244336 0)
(0.000246967 -0.00023835 0)
(0.000260549 -0.000232055 0)
(0.000274389 -0.000225465 0)
(0.000288231 -0.00021859 0)
(0.000302033 -0.000211425 0)
(0.000315995 -0.000203982 0)
(0.000329855 -0.000196308 0)
(0.000343495 -0.00018841 0)
(0.000356955 -0.000180311 0)
(0.000370015 -0.000172018 0)
(0.000382744 -0.000163558 0)
(0.000394879 -0.000154938 0)
(0.000406338 -0.000146111 0)
(0.000417206 -0.000137147 0)
(0.000427143 -0.000127996 0)
(0.000436216 -0.000118693 0)
(0.000444366 -0.000109231 0)
(0.000451402 -9.96656e-05 0)
(0.000457212 -9.00114e-05 0)
(0.000461722 -8.0267e-05 0)
(0.00046482 -7.04582e-05 0)
(0.000466401 -6.06167e-05 0)
(0.00046619 -5.07891e-05 0)
(0.000464035 -4.10466e-05 0)
(0.000459889 -3.14468e-05 0)
(0.000453705 -2.20483e-05 0)
(0.000445431 -1.28782e-05 0)
(0.000434814 -4.02221e-06 0)
(0.000422215 4.57505e-06 0)
(0.000407443 1.27268e-05 0)
(0.000390517 2.05226e-05 0)
(0.000371367 2.78202e-05 0)
(0.000350209 3.4718e-05 0)
(0.000327341 4.09979e-05 0)
(0.000302339 4.67658e-05 0)
(0.000275709 5.18811e-05 0)
(0.000247696 5.63923e-05 0)
(0.000218457 6.01079e-05 0)
(0.000187784 6.30898e-05 0)
(0.00015628 6.53422e-05 0)
(0.00012434 6.6768e-05 0)
(9.18914e-05 6.73794e-05 0)
(5.94925e-05 6.71342e-05 0)
(2.74914e-05 6.60758e-05 0)
(-3.81619e-06 6.41397e-05 0)
(-3.42066e-05 6.13611e-05 0)
(-6.3045e-05 5.77897e-05 0)
(-9.01327e-05 5.33954e-05 0)
(-0.000115086 4.82788e-05 0)
(-0.000137261 4.25143e-05 0)
(-0.000156831 3.60672e-05 0)
(-0.000173104 2.92037e-05 0)
(-0.00018574 2.17748e-05 0)
(-0.000194657 1.40802e-05 0)
(-0.00019989 6.09411e-06 0)
(-0.000200764 -1.85574e-06 0)
(-0.000197112 -9.83041e-06 0)
(-0.000189156 -1.75634e-05 0)
(-0.00017672 -2.50227e-05 0)
(-0.000160328 -3.20538e-05 0)
(-0.000140226 -3.84848e-05 0)
(-0.00011665 -4.42182e-05 0)
(-8.97809e-05 -4.90984e-05 0)
(-6.01222e-05 -5.30027e-05 0)
(-2.83097e-05 -5.58495e-05 0)
(4.99749e-06 -5.75542e-05 0)
(3.92092e-05 -5.80178e-05 0)
(7.35922e-05 -5.72363e-05 0)
(0.000107436 -5.5175e-05 0)
(0.000139916 -5.18657e-05 0)
(0.000170291 -4.73382e-05 0)
(0.000197777 -4.16866e-05 0)
(0.000221614 -3.50027e-05 0)
(0.000241178 -2.74254e-05 0)
(0.000255808 -1.91302e-05 0)
(0.000265055 -1.0295e-05 0)
(0.000268451 -1.15759e-06 0)
(0.00026545 8.04123e-06 0)
(0.00025592 1.70728e-05 0)
(0.000240259 2.5731e-05 0)
(0.00021876 3.37357e-05 0)
(0.000191923 4.08793e-05 0)
(0.000160286 4.68724e-05 0)
(0.000124617 5.15967e-05 0)
(8.58879e-05 5.47725e-05 0)
(4.50627e-05 5.64099e-05 0)
(3.40809e-06 5.62843e-05 0)
(-3.78938e-05 5.44773e-05 0)
(-7.74414e-05 5.09791e-05 0)
(-0.000114029 4.58919e-05 0)
(-0.000146441 3.93851e-05 0)
(-0.000173561 3.16517e-05 0)
(-0.00019442 2.29702e-05 0)
(-0.000208336 1.36522e-05 0)
(-0.000214754 4.05676e-06 0)
(-0.000213047 -5.46613e-06 0)
(-0.000203482 -1.4537e-05 0)
(-0.000186443 -2.2775e-05 0)
(-0.000162874 -2.9926e-05 0)
(-0.000133899 -3.55389e-05 0)
(-0.000100539 -3.94494e-05 0)
(-6.44913e-05 -4.1482e-05 0)
(-2.74079e-05 -4.1474e-05 0)
(9.06408e-06 -3.94183e-05 0)
(4.30259e-05 -3.55057e-05 0)
(7.2704e-05 -2.9846e-05 0)
(9.66732e-05 -2.27837e-05 0)
(0.000113666 -1.4679e-05 0)
(0.000122808 -5.94984e-06 0)
(0.000123338 2.85551e-06 0)
(0.000115121 1.13035e-05 0)
(9.89976e-05 1.88705e-05 0)
(7.60126e-05 2.51283e-05 0)
(4.75398e-05 2.96338e-05 0)
(1.49693e-05 3.21179e-05 0)
(-1.92669e-05 3.24757e-05 0)
(-5.24792e-05 3.05451e-05 0)
(-8.26397e-05 2.65559e-05 0)
(-0.000107616 2.07099e-05 0)
(-0.000125758 1.34412e-05 0)
(-0.000135587 5.27564e-06 0)
(-0.000135887 -3.24914e-06 0)
(-0.000126514 -1.14829e-05 0)
(-0.00010817 -1.88485e-05 0)
(-8.22722e-05 -2.48396e-05 0)
(-5.05035e-05 -2.88462e-05 0)
(-1.48128e-05 -3.07473e-05 0)
(2.17563e-05 -3.01805e-05 0)
(5.61645e-05 -2.73421e-05 0)
(8.59517e-05 -2.24849e-05 0)
(0.00010892 -1.59808e-05 0)
(0.000123356 -8.43976e-06 0)
(0.000128153 -5.78864e-07 0)
(0.000122919 6.94792e-06 0)
(0.000108678 1.34485e-05 0)
(8.69684e-05 1.84047e-05 0)
(6.00969e-05 2.13687e-05 0)
(3.08143e-05 2.21625e-05 0)
(1.81229e-06 2.07484e-05 0)
(-2.39464e-05 1.74017e-05 0)
(-4.40107e-05 1.25926e-05 0)
(-5.68299e-05 6.93785e-06 0)
(-6.1651e-05 1.14257e-06 0)
(-5.84831e-05 -4.06573e-06 0)
(-4.85641e-05 -8.17601e-06 0)
(-3.38927e-05 -1.07347e-05 0)
(-1.68701e-05 -1.14799e-05 0)
(-4.90023e-08 -1.04917e-05 0)
(1.39832e-05 -7.99583e-06 0)
(2.3235e-05 -4.52843e-06 0)
(2.67778e-05 -6.78308e-07 0)
(2.43882e-05 2.89892e-06 0)
(1.69045e-05 5.69883e-06 0)
(5.66178e-06 7.29025e-06 0)
(-7.12955e-06 7.48064e-06 0)
(-1.8673e-05 6.25322e-06 0)
(-2.69855e-05 3.94606e-06 0)
(-3.09798e-05 1.01711e-06 0)
(-2.96074e-05 -1.98688e-06 0)
(-2.33834e-05 -4.54764e-06 0)
(-1.36043e-05 -6.22836e-06 0)
(-1.58354e-06 -6.75534e-06 0)
(1.01039e-05 -6.02325e-06 0)
(1.93568e-05 -4.22052e-06 0)
(2.46364e-05 -1.7023e-06 0)
(2.49395e-05 1.11903e-06 0)
(2.00558e-05 3.73662e-06 0)
(1.09524e-05 5.7514e-06 0)
(-1.38545e-06 6.81247e-06 0)
(-1.47516e-05 6.77119e-06 0)
(-2.67494e-05 5.64629e-06 0)
(-3.58735e-05 3.63111e-06 0)
(-4.04166e-05 1.01955e-06 0)
(-3.95916e-05 -1.78566e-06 0)
(-3.32588e-05 -4.37362e-06 0)
(-2.21778e-05 -6.36354e-06 0)
(-7.79905e-06 -7.45473e-06 0)
(5.47183e-06 0.000108473 0)
(1.71516e-05 0.000114594 0)
(2.90281e-05 0.000114255 0)
(4.10518e-05 0.000113592 0)
(5.32584e-05 0.000112681 0)
(6.56574e-05 0.000111484 0)
(7.81826e-05 0.000109996 0)
(9.09346e-05 0.000108179 0)
(0.000103881 0.000106027 0)
(0.00011703 0.000103561 0)
(0.000130524 0.000100747 0)
(0.000144353 9.76214e-05 0)
(0.000158551 9.40856e-05 0)
(0.000173181 9.02147e-05 0)
(0.000188114 8.59228e-05 0)
(0.000203362 8.12851e-05 0)
(0.00021891 7.62713e-05 0)
(0.00023466 7.09361e-05 0)
(0.000250683 6.53019e-05 0)
(0.000266929 5.94317e-05 0)
(0.000283386 5.33673e-05 0)
(0.000300018 4.71794e-05 0)
(0.000316755 4.09367e-05 0)
(0.00033366 3.4703e-05 0)
(0.000350533 2.85844e-05 0)
(0.000367409 2.26341e-05 0)
(0.000384177 1.69812e-05 0)
(0.000400777 1.17087e-05 0)
(0.000417062 6.93517e-06 0)
(0.00043282 2.70764e-06 0)
(0.000448104 -8.55207e-07 0)
(0.00046295 -3.64695e-06 0)
(0.000477125 -5.66066e-06 0)
(0.000490697 -6.77904e-06 0)
(0.000503863 -7.0116e-06 0)
(0.000516158 -6.33004e-06 0)
(0.000527677 -4.68835e-06 0)
(0.000538316 -2.06882e-06 0)
(0.000547906 1.56195e-06 0)
(0.000556279 6.24045e-06 0)
(0.00056312 1.19777e-05 0)
(0.000568656 1.87939e-05 0)
(0.000572753 2.65797e-05 0)
(0.000575115 3.53429e-05 0)
(0.000575532 4.4964e-05 0)
(0.000573527 5.53865e-05 0)
(0.000568907 6.6594e-05 0)
(0.000561716 7.85159e-05 0)
(0.000552087 9.09854e-05 0)
(0.000539847 0.000103936 0)
(0.000525176 0.000117192 0)
(0.000507946 0.000130638 0)
(0.000488133 0.00014393 0)
(0.000466014 0.000157179 0)
(0.000441552 0.000169893 0)
(0.000414623 0.000182127 0)
(0.000385555 0.000193453 0)
(0.000354327 0.000203862 0)
(0.000321164 0.000212999 0)
(0.000286097 0.000220833 0)
(0.000249354 0.000226899 0)
(0.000211652 0.000231382 0)
(0.000172858 0.000233866 0)
(0.000133411 0.000234374 0)
(9.34922e-05 0.000232648 0)
(5.37953e-05 0.00022878 0)
(1.45795e-05 0.00022257 0)
(-2.3902e-05 0.000214022 0)
(-6.09532e-05 0.00020316 0)
(-9.62085e-05 0.000190029 0)
(-0.000129264 0.000174653 0)
(-0.000159346 0.000157239 0)
(-0.000186365 0.000137846 0)
(-0.000209738 0.000116744 0)
(-0.000229251 9.41866e-05 0)
(-0.000244479 7.03604e-05 0)
(-0.000254856 4.56634e-05 0)
(-0.000260366 2.03505e-05 0)
(-0.000260503 -5.0683e-06 0)
(-0.000255368 -3.03064e-05 0)
(-0.000244849 -5.4813e-05 0)
(-0.000229232 -7.83888e-05 0)
(-0.000208559 -0.000100419 0)
(-0.000183311 -0.000120698 0)
(-0.000153813 -0.000138496 0)
(-0.00012019 -0.000153734 0)
(-8.32328e-05 -0.000165789 0)
(-4.37229e-05 -0.0001746 0)
(-2.27663e-06 -0.000179753 0)
(4.02299e-05 -0.00018109 0)
(8.28429e-05 -0.000178486 0)
(0.000124739 -0.000171938 0)
(0.000164887 -0.000161465 0)
(0.000202361 -0.000147235 0)
(0.000236203 -0.000129481 0)
(0.000265535 -0.000108557 0)
(0.000289505 -8.48733e-05 0)
(0.000307371 -5.89836e-05 0)
(0.00031853 -3.14378e-05 0)
(0.000322383 -2.94161e-06 0)
(0.00031846 2.57006e-05 0)
(0.000306769 5.38181e-05 0)
(0.00028761 8.06724e-05 0)
(0.000261313 0.000105469 0)
(0.000228405 0.000127485 0)
(0.000189712 0.000145968 0)
(0.000146066 0.00016031 0)
(9.8811e-05 0.000170051 0)
(4.9088e-05 0.000174687 0)
(-1.63951e-06 0.00017411 0)
(-5.16193e-05 0.000168163 0)
(-9.94095e-05 0.00015703 0)
(-0.000143361 0.00014101 0)
(-0.000182061 0.00012048 0)
(-0.000214155 9.63185e-05 0)
(-0.000238421 6.91616e-05 0)
(-0.000254041 4.01186e-05 0)
(-0.00026043 1.02417e-05 0)
(-0.000256965 -1.93574e-05 0)
(-0.000243898 -4.74503e-05 0)
(-0.000221966 -7.29238e-05 0)
(-0.000192008 -9.47866e-05 0)
(-0.000155393 -0.000111975 0)
(-0.000113808 -0.000123779 0)
(-6.89773e-05 -0.000129596 0)
(-2.29397e-05 -0.000129196 0)
(2.18885e-05 -0.000122404 0)
(6.33735e-05 -0.00010982 0)
(9.94457e-05 -9.1836e-05 0)
(0.000128194 -6.96278e-05 0)
(0.000148257 -4.4133e-05 0)
(0.000158431 -1.69283e-05 0)
(0.00015799 1.05509e-05 0)
(0.000146921 3.68253e-05 0)
(0.000126138 6.02015e-05 0)
(9.69067e-05 7.95524e-05 0)
(6.09621e-05 9.33099e-05 0)
(2.03766e-05 0.000100935 0)
(-2.21912e-05 0.000101548 0)
(-6.34226e-05 9.541e-05 0)
(-0.000100627 8.26149e-05 0)
(-0.000131335 6.431e-05 0)
(-0.000153357 4.14901e-05 0)
(-0.000165095 1.59138e-05 0)
(-0.000165182 -1.06399e-05 0)
(-0.000153473 -3.62355e-05 0)
(-0.000130993 -5.90584e-05 0)
(-9.91679e-05 -7.7364e-05 0)
(-6.038e-05 -8.97068e-05 0)
(-1.70345e-05 -9.51894e-05 0)
(2.72904e-05 -9.31641e-05 0)
(6.85526e-05 -8.41035e-05 0)
(0.000104041 -6.86961e-05 0)
(0.000131034 -4.8433e-05 0)
(0.000147334 -2.49758e-05 0)
(0.000151839 -5.62593e-07 0)
(0.000144268 2.26307e-05 0)
(0.000125919 4.26723e-05 0)
(9.87582e-05 5.77336e-05 0)
(6.56363e-05 6.65847e-05 0)
(2.99313e-05 6.85797e-05 0)
(-5.00741e-06 6.37578e-05 0)
(-3.55095e-05 5.3029e-05 0)
(-5.86837e-05 3.78933e-05 0)
(-7.27073e-05 2.02198e-05 0)
(-7.67382e-05 2.17883e-06 0)
(-7.11165e-05 -1.39545e-05 0)
(-5.75066e-05 -2.65503e-05 0)
(-3.82787e-05 -3.41696e-05 0)
(-1.65625e-05 -3.62207e-05 0)
(4.44988e-06 -3.26808e-05 0)
(2.16046e-05 -2.46884e-05 0)
(3.24845e-05 -1.36527e-05 0)
(3.60624e-05 -1.49106e-06 0)
(3.22719e-05 9.677e-06 0)
(2.22754e-05 1.83107e-05 0)
(7.82219e-06 2.31194e-05 0)
(-8.35733e-06 2.35066e-05 0)
(-2.28347e-05 1.95131e-05 0)
(-3.30861e-05 1.21977e-05 0)
(-3.78168e-05 2.99472e-06 0)
(-3.59495e-05 -6.36056e-06 0)
(-2.81653e-05 -1.43481e-05 0)
(-1.60691e-05 -1.9426e-05 0)
(-1.36564e-06 -2.09918e-05 0)
(1.28543e-05 -1.86319e-05 0)
(2.39982e-05 -1.3029e-05 0)
(3.03093e-05 -5.19953e-06 0)
(3.06545e-05 3.45753e-06 0)
(2.487e-05 1.14981e-05 0)
(1.41157e-05 1.75899e-05 0)
(-3.43947e-07 2.07991e-05 0)
(-1.59146e-05 2.06196e-05 0)
(-2.98571e-05 1.71575e-05 0)
(-4.04041e-05 1.10123e-05 0)
(-4.56626e-05 3.09977e-06 0)
(-4.47569e-05 -5.37159e-06 0)
(-3.7595e-05 -1.31846e-05 0)
(-2.50654e-05 -1.91788e-05 0)
(-8.81419e-06 -2.24458e-05 0)
(2.5621e-06 -0.000451252 0)
(7.83998e-06 -0.000465052 0)
(1.30622e-05 -0.000465235 0)
(1.8272e-05 -0.000465188 0)
(2.33973e-05 -0.000465004 0)
(2.84111e-05 -0.000464704 0)
(3.3429e-05 -0.000464114 0)
(3.84158e-05 -0.000463315 0)
(4.38441e-05 -0.000462124 0)
(4.9494e-05 -0.000460694 0)
(5.55439e-05 -0.000458925 0)
(6.15128e-05 -0.000456976 0)
(6.76048e-05 -0.000454832 0)
(7.39911e-05 -0.000452437 0)
(8.0683e-05 -0.000449864 0)
(8.8074e-05 -0.000447119 0)
(9.5997e-05 -0.000444231 0)
(0.000104804 -0.000441157 0)
(0.000114534 -0.000437888 0)
(0.000125297 -0.000434381 0)
(0.00013711 -0.000430642 0)
(0.000150103 -0.000426567 0)
(0.000164173 -0.000422009 0)
(0.00017953 -0.00041696 0)
(0.000195996 -0.000411153 0)
(0.000213764 -0.000404601 0)
(0.000232743 -0.000397024 0)
(0.000252787 -0.000388499 0)
(0.000273807 -0.000378753 0)
(0.000295514 -0.000367905 0)
(0.000318139 -0.000355874 0)
(0.000341043 -0.000342756 0)
(0.000364042 -0.000328335 0)
(0.000387117 -0.000312698 0)
(0.000409551 -0.000295575 0)
(0.00043153 -0.000277146 0)
(0.000453038 -0.000257053 0)
(0.000473639 -0.000235526 0)
(0.000493418 -0.000212519 0)
(0.000512175 -0.000188118 0)
(0.000529633 -0.000162439 0)
(0.000545123 -0.000135458 0)
(0.000558525 -0.000107318 0)
(0.000569692 -7.81193e-05 0)
(0.000578216 -4.79577e-05 0)
(0.000584341 -1.69369e-05 0)
(0.000587856 1.47771e-05 0)
(0.000588035 4.68535e-05 0)
(0.000584905 7.90741e-05 0)
(0.000578409 0.000111179 0)
(0.00056816 0.000143001 0)
(0.000553746 0.000174247 0)
(0.000536059 0.000204773 0)
(0.000514575 0.000234178 0)
(0.000488993 0.000262259 0)
(0.000459881 0.000288616 0)
(0.000427277 0.000313111 0)
(0.000391203 0.00033525 0)
(0.000352053 0.000354842 0)
(0.000309696 0.000371507 0)
(0.000265197 0.000385036 0)
(0.000218729 0.000395107 0)
(0.000170163 0.00040153 0)
(0.000120584 0.000403966 0)
(7.02264e-05 0.000402384 0)
(1.99263e-05 0.000396572 0)
(-3.03186e-05 0.000386444 0)
(-7.93502e-05 0.000371996 0)
(-0.000126758 0.000353266 0)
(-0.000171961 0.000330323 0)
(-0.00021413 0.00030337 0)
(-0.00025277 0.000272607 0)
(-0.000287129 0.000238313 0)
(-0.000316601 0.000200934 0)
(-0.000340951 0.000160771 0)
(-0.000359406 0.000118508 0)
(-0.00037162 7.45442e-05 0)
(-0.000377353 2.96551e-05 0)
(-0.000375947 -1.56552e-05 0)
(-0.000367211 -6.04701e-05 0)
(-0.000351676 -0.000104159 0)
(-0.000329145 -0.000146022 0)
(-0.000300129 -0.000185146 0)
(-0.000264639 -0.000220928 0)
(-0.000223385 -0.0002525 0)
(-0.000176971 -0.000279234 0)
(-0.000126052 -0.000300485 0)
(-7.19761e-05 -0.000315643 0)
(-1.51385e-05 -0.000324299 0)
(4.29357e-05 -0.000326141 0)
(0.00010102 -0.000320911 0)
(0.000157976 -0.000308633 0)
(0.000212486 -0.000289375 0)
(0.000263208 -0.000263416 0)
(0.000308885 -0.000231209 0)
(0.000348314 -0.000193354 0)
(0.00038039 -0.000150661 0)
(0.000404165 -0.000104055 0)
(0.000418861 -5.46348e-05 0)
(0.000423477 -3.59433e-06 0)
(0.0004177 4.76684e-05 0)
(0.000401699 9.79139e-05 0)
(0.000375682 0.000145744 0)
(0.000340105 0.000189794 0)
(0.000295713 0.000228703 0)
(0.000243483 0.000261224 0)
(0.000184983 0.000286268 0)
(0.000121559 0.000303004 0)
(5.50936e-05 0.000310637 0)
(-1.22686e-05 0.000308878 0)
(-7.8611e-05 0.000297551 0)
(-0.000141502 0.000277013 0)
(-0.000199294 0.000247685 0)
(-0.000249544 0.000210655 0)
(-0.00029062 0.000166852 0)
(-0.00032115 0.000118142 0)
(-0.000339688 6.59427e-05 0)
(-0.00034585 1.24224e-05 0)
(-0.000338783 -4.01389e-05 0)
(-0.000318904 -9.0019e-05 0)
(-0.000287306 -0.00013517 0)
(-0.00024517 -0.000173577 0)
(-0.000194333 -0.000203551 0)
(-0.000136921 -0.000223697 0)
(-7.56549e-05 -0.000233206 0)
(-1.31059e-05 -0.000231439 0)
(4.74015e-05 -0.000218536 0)
(0.0001029 -0.000195042 0)
(0.000150589 -0.000162224 0)
(0.000188084 -0.000121684 0)
(0.000213537 -7.5561e-05 0)
(0.000225281 -2.65273e-05 0)
(0.000222926 2.28131e-05 0)
(0.000206084 6.96121e-05 0)
(0.000176397 0.000111426 0)
(0.000135332 0.000145299 0)
(8.54424e-05 0.000169592 0)
(2.94779e-05 0.000182391 0)
(-2.87136e-05 0.000182862 0)
(-8.47344e-05 0.000170984 0)
(-0.000135085 0.000147569 0)
(-0.000176213 0.000114193 0)
(-0.000205574 7.30327e-05 0)
(-0.000220606 2.70679e-05 0)
(-0.000219992 -2.04159e-05 0)
(-0.000203725 -6.6009e-05 0)
(-0.000173041 -0.000106443 0)
(-0.000130091 -0.000138512 0)
(-7.80428e-05 -0.000159954 0)
(-2.01826e-05 -0.000168927 0)
(3.83425e-05 -0.000164598 0)
(9.24626e-05 -0.000147672 0)
(0.000138324 -0.000119708 0)
(0.000172417 -8.31158e-05 0)
(0.000192106 -4.12586e-05 0)
(0.00019577 2.1705e-06 0)
(0.000183644 4.31813e-05 0)
(0.000157443 7.82738e-05 0)
(0.000119847 0.000104284 0)
(7.48965e-05 0.000119025 0)
(2.71247e-05 0.000121536 0)
(-1.87026e-05 0.000111772 0)
(-5.7753e-05 9.17986e-05 0)
(-8.64436e-05 6.41044e-05 0)
(-0.000102516 3.22411e-05 0)
(-0.000104886 1.57398e-07 0)
(-9.44336e-05 -2.84463e-05 0)
(-7.36046e-05 -5.03042e-05 0)
(-4.57726e-05 -6.31353e-05 0)
(-1.51447e-05 -6.58746e-05 0)
(1.36536e-05 -5.85592e-05 0)
(3.63915e-05 -4.34625e-05 0)
(5.02626e-05 -2.31686e-05 0)
(5.36703e-05 -1.12545e-06 0)
(4.69724e-05 1.90487e-05 0)
(3.20818e-05 3.43558e-05 0)
(1.14912e-05 4.25896e-05 0)
(-1.10548e-05 4.26869e-05 0)
(-3.09435e-05 3.50808e-05 0)
(-4.47305e-05 2.16211e-05 0)
(-5.07051e-05 4.9212e-06 0)
(-4.78404e-05 -1.18608e-05 0)
(-3.69794e-05 -2.60234e-05 0)
(-2.0457e-05 -3.48625e-05 0)
(-8.06718e-07 -3.74233e-05 0)
(1.80719e-05 -3.29994e-05 0)
(3.26675e-05 -2.29383e-05 0)
(4.08004e-05 -9.04742e-06 0)
(4.11339e-05 6.1509e-06 0)
(3.36161e-05 2.0138e-05 0)
(1.97866e-05 3.06459e-05 0)
(1.47443e-06 3.60652e-05 0)
(-1.81029e-05 3.56278e-05 0)
(-3.55283e-05 2.95513e-05 0)
(-4.85863e-05 1.89196e-05 0)
(-5.5073e-05 5.34791e-06 0)
(-5.39984e-05 -9.1085e-06 0)
(-4.53403e-05 -2.23856e-05 0)
(-3.0197e-05 -3.25288e-05 0)
(-1.06073e-05 -3.80802e-05 0)
(4.85217e-06 -2.89175e-05 0)
(1.58714e-05 -2.49883e-05 0)
(2.72149e-05 -2.37287e-05 0)
(3.92712e-05 -2.20548e-05 0)
(5.19582e-05 -1.98609e-05 0)
(6.5699e-05 -1.755e-05 0)
(8.00291e-05 -1.49276e-05 0)
(9.51365e-05 -1.28356e-05 0)
(0.000110654 -1.08219e-05 0)
(0.00012599 -1.01617e-05 0)
(0.000141352 -1.06626e-05 0)
(0.00015613 -1.30849e-05 0)
(0.000171787 -1.72256e-05 0)
(0.000187844 -2.35191e-05 0)
(0.000203772 -3.16119e-05 0)
(0.000219863 -4.18442e-05 0)
(0.000236337 -5.37511e-05 0)
(0.0002534 -6.73045e-05 0)
(0.000271109 -8.22342e-05 0)
(0.000289298 -9.80335e-05 0)
(0.000308364 -0.000114573 0)
(0.000329103 -0.000131519 0)
(0.000350852 -0.000148517 0)
(0.000374308 -0.00016532 0)
(0.000399111 -0.000181308 0)
(0.000425287 -0.000196595 0)
(0.0004524 -0.000210307 0)
(0.000480268 -0.00022264 0)
(0.00050846 -0.000232772 0)
(0.000535788 -0.000241126 0)
(0.000562417 -0.000246986 0)
(0.000588929 -0.00025059 0)
(0.000615168 -0.000251584 0)
(0.0006414 -0.000249946 0)
(0.000667191 -0.000245425 0)
(0.000692631 -0.000237868 0)
(0.000717633 -0.00022723 0)
(0.000740627 -0.000213312 0)
(0.000762218 -0.000196054 0)
(0.000781502 -0.00017543 0)
(0.00079866 -0.0001515 0)
(0.000813695 -0.000124375 0)
(0.000825929 -9.41325e-05 0)
(0.000835315 -6.09969e-05 0)
(0.000841649 -2.52693e-05 0)
(0.000844259 1.27627e-05 0)
(0.000842018 5.27582e-05 0)
(0.000834738 9.44981e-05 0)
(0.000822909 0.00013765 0)
(0.000806658 0.000181699 0)
(0.000786031 0.000226262 0)
(0.000761006 0.000270832 0)
(0.000731317 0.000314915 0)
(0.000696964 0.000357909 0)
(0.00065798 0.000399199 0)
(0.000614636 0.000438499 0)
(0.000566965 0.000475019 0)
(0.000514782 0.000508201 0)
(0.000458868 0.000537709 0)
(0.000399212 0.000562842 0)
(0.000336439 0.000583306 0)
(0.000271318 0.000598424 0)
(0.000203717 0.000608074 0)
(0.000134745 0.000611683 0)
(6.50784e-05 0.000609154 0)
(-4.75365e-06 0.00060009 0)
(-7.3788e-05 0.000584486 0)
(-0.000141252 0.000562278 0)
(-0.000206284 0.000533409 0)
(-0.00026795 0.000498167 0)
(-0.000325398 0.000456717 0)
(-0.000377757 0.000409389 0)
(-0.00042412 0.000356739 0)
(-0.000463865 0.000299225 0)
(-0.000496197 0.000237528 0)
(-0.000520472 0.000172559 0)
(-0.000535949 0.00010513 0)
(-0.000542399 3.62592e-05 0)
(-0.000539083 -3.31329e-05 0)
(-0.000525786 -0.000101763 0)
(-0.000503234 -0.00016873 0)
(-0.00047103 -0.00023263 0)
(-0.000429687 -0.000292473 0)
(-0.000379883 -0.000346836 0)
(-0.000322041 -0.000394836 0)
(-0.000257095 -0.000435204 0)
(-0.000185997 -0.000467168 0)
(-0.000110305 -0.000489737 0)
(-3.14599e-05 -0.000502217 0)
(4.91306e-05 -0.000504238 0)
(0.000129586 -0.000495333 0)
(0.000208219 -0.000475646 0)
(0.000283344 -0.000445173 0)
(0.000353073 -0.000404539 0)
(0.000415724 -0.000354328 0)
(0.000469611 -0.00029552 0)
(0.000513205 -0.000229367 0)
(0.000545209 -0.000157306 0)
(0.000564516 -8.11462e-05 0)
(0.000570027 -2.70338e-06 0)
(0.000561391 7.6013e-05 0)
(0.000538819 0.000153037 0)
(0.000502539 0.000226176 0)
(0.000453173 0.000293313 0)
(0.000391745 0.000352357 0)
(0.000319876 0.000401482 0)
(0.00023951 0.00043908 0)
(0.000152751 0.000463593 0)
(6.2052e-05 0.000474255 0)
(-2.97007e-05 0.000470362 0)
(-0.000119416 0.000451845 0)
(-0.000204358 0.000419184 0)
(-0.000281504 0.00037305 0)
(-0.000348448 0.000315402 0)
(-0.000402438 0.00024752 0)
(-0.000441461 0.000172238 0)
(-0.000464319 9.19343e-05 0)
(-0.000469095 9.88161e-06 0)
(-0.000456213 -7.06169e-05 0)
(-0.000426619 -0.000146766 0)
(-0.000380823 -0.000215219 0)
(-0.000320595 -0.000273144 0)
(-0.000248652 -0.000317852 0)
(-0.00016845 -0.000347427 0)
(-8.32693e-05 -0.000360342 0)
(3.11092e-06 -0.000356129 0)
(8.61506e-05 -0.000334619 0)
(0.000161799 -0.000297067 0)
(0.000226264 -0.00024539 0)
(0.000276345 -0.00018211 0)
(0.000309131 -0.000110529 0)
(0.000322877 -3.47088e-05 0)
(0.000316917 4.14954e-05 0)
(0.000291743 0.000113187 0)
(0.000248471 0.000177007 0)
(0.000189893 0.000228376 0)
(0.000119651 0.000264576 0)
(4.12434e-05 0.000283095 0)
(-3.96178e-05 0.000282582 0)
(-0.000117067 0.000263271 0)
(-0.00018608 0.000226256 0)
(-0.000242254 0.00017395 0)
(-0.000281588 0.000110218 0)
(-0.000301102 3.92903e-05 0)
(-0.000299138 -3.35217e-05 0)
(-0.0002759 -0.000103344 0)
(-0.000233039 -0.000164794 0)
(-0.000173684 -0.000213046 0)
(-0.000102334 -0.000244753 0)
(-2.35145e-05 -0.000257241 0)
(5.56488e-05 -0.000249382 0)
(0.000127974 -0.000222258 0)
(0.000188602 -0.000178461 0)
(0.000232674 -0.000121819 0)
(0.000256626 -5.74717e-05 0)
(0.000258847 8.73893e-06 0)
(0.000239653 7.09461e-05 0)
(0.00020168 0.000123491 0)
(0.000148774 0.000161805 0)
(8.66644e-05 0.000182704 0)
(2.1421e-05 0.000184653 0)
(-4.00126e-05 0.000167986 0)
(-9.1091e-05 0.000135888 0)
(-0.000127399 9.23599e-05 0)
(-0.000145706 4.30914e-05 0)
(-0.00014526 -6.06472e-06 0)
(-0.00012748 -4.94407e-05 0)
(-9.58646e-05 -8.1968e-05 0)
(-5.53758e-05 -0.000100206 0)
(-1.17621e-05 -0.000102787 0)
(2.82076e-05 -9.00779e-05 0)
(5.87787e-05 -6.54531e-05 0)
(7.65029e-05 -3.33016e-05 0)
(7.94814e-05 1.01742e-06 0)
(6.83698e-05 3.22067e-05 0)
(4.59903e-05 5.539e-05 0)
(1.61762e-05 6.74088e-05 0)
(-1.56542e-05 6.65226e-05 0)
(-4.32258e-05 5.40327e-05 0)
(-6.19908e-05 3.27257e-05 0)
(-6.95669e-05 6.72473e-06 0)
(-6.49831e-05 -1.91154e-05 0)
(-4.95251e-05 -4.05035e-05 0)
(-2.65603e-05 -5.37502e-05 0)
(2.71619e-07 -5.71732e-05 0)
(2.57848e-05 -5.00702e-05 0)
(4.5177e-05 -3.45e-05 0)
(5.57599e-05 -1.33899e-05 0)
(5.59158e-05 9.45075e-06 0)
(4.58456e-05 3.02504e-05 0)
(2.76167e-05 4.56551e-05 0)
(3.85712e-06 5.34432e-05 0)
(-2.12662e-05 5.25189e-05 0)
(-4.34841e-05 4.34058e-05 0)
(-5.994e-05 2.76865e-05 0)
(-6.80415e-05 7.83703e-06 0)
(-6.66587e-05 -1.32087e-05 0)
(-5.58905e-05 -3.23831e-05 0)
(-3.71954e-05 -4.70382e-05 0)
(-1.30716e-05 -5.49905e-05 0)
(6.1853e-06 -0.000601028 0)
(1.94816e-05 -0.000622727 0)
(3.25437e-05 -0.000628575 0)
(4.50666e-05 -0.000636806 0)
(5.58908e-05 -0.000646427 0)
(6.57746e-05 -0.000658352 0)
(7.2404e-05 -0.00066853 0)
(7.64736e-05 -0.000680049 0)
(7.55444e-05 -0.000685253 0)
(6.87917e-05 -0.000688504 0)
(5.92307e-05 -0.00068586 0)
(4.65273e-05 -0.00068106 0)
(3.26897e-05 -0.000672752 0)
(1.86569e-05 -0.000663307 0)
(5.18449e-06 -0.000652528 0)
(-6.71543e-06 -0.000641844 0)
(-1.49525e-05 -0.00063187 0)
(-2.03072e-05 -0.000623254 0)
(-2.03735e-05 -0.000617223 0)
(-1.61265e-05 -0.000614052 0)
(-8.19701e-06 -0.000613231 0)
(4.54615e-06 -0.000615406 0)
(2.14094e-05 -0.000618996 0)
(4.38578e-05 -0.000625196 0)
(6.97873e-05 -0.000630644 0)
(0.000100539 -0.000637625 0)
(0.00013541 -0.000640137 0)
(0.00017403 -0.000643909 0)
(0.000214917 -0.00064017 0)
(0.000257495 -0.000636285 0)
(0.000302556 -0.000626096 0)
(0.000348154 -0.000613511 0)
(0.000395164 -0.000595977 0)
(0.000443258 -0.000574769 0)
(0.000492143 -0.000549162 0)
(0.000540901 -0.000519526 0)
(0.000589474 -0.000486006 0)
(0.000637228 -0.000448599 0)
(0.000683615 -0.000407459 0)
(0.000727906 -0.000362712 0)
(0.000769413 -0.000314398 0)
(0.000807563 -0.000262894 0)
(0.000841777 -0.000208148 0)
(0.000871096 -0.000150906 0)
(0.000894998 -9.09054e-05 0)
(0.000913564 -2.88014e-05 0)
(0.000926808 3.55107e-05 0)
(0.000934199 0.000101084 0)
(0.000934797 0.000167657 0)
(0.000928493 0.000234689 0)
(0.000915077 0.000301601 0)
(0.000893948 0.00036793 0)
(0.000865598 0.000432936 0)
(0.0008293 0.000495932 0)
(0.000785999 0.000556369 0)
(0.000735778 0.000613324 0)
(0.00067786 0.000666187 0)
(0.000613891 0.000714207 0)
(0.000543936 0.000756688 0)
(0.000468097 0.000792794 0)
(0.000387626 0.000822114 0)
(0.000303348 0.000843868 0)
(0.000215587 0.000857457 0)
(0.000125515 0.000862612 0)
(3.40459e-05 0.000858728 0)
(-5.7714e-05 0.000845671 0)
(-0.000148626 0.000823152 0)
(-0.000237745 0.000791178 0)
(-0.000323602 0.000749781 0)
(-0.000404955 0.000699285 0)
(-0.000480873 0.000639935 0)
(-0.000549847 0.000572287 0)
(-0.000610835 0.000496954 0)
(-0.00066291 0.000414819 0)
(-0.000704733 0.000326851 0)
(-0.000735384 0.000234185 0)
(-0.000754273 0.000138112 0)
(-0.000761071 3.99225e-05 0)
(-0.000754663 -5.87958e-05 0)
(-0.000735044 -0.000156486 0)
(-0.00070263 -0.000251588 0)
(-0.000657224 -0.000342261 0)
(-0.000599504 -0.000426926 0)
(-0.000529983 -0.000503808 0)
(-0.000449896 -0.000571305 0)
(-0.000360323 -0.000627953 0)
(-0.00026281 -0.000672332 0)
(-0.000159005 -0.000703495 0)
(-5.0977e-05 -0.000720117 0)
(5.9154e-05 -0.000721798 0)
(0.000168882 -0.000708023 0)
(0.000275964 -0.000678712 0)
(0.000377999 -0.000634245 0)
(0.000472348 -0.000575198 0)
(0.000557076 -0.000502645 0)
(0.000629612 -0.000418037 0)
(0.000688016 -0.000323086 0)
(0.000730342 -0.000219981 0)
(0.000755196 -0.000111113 0)
(0.000761487 7.11607e-07 0)
(0.000748861 0.000112766 0)
(0.000717369 0.000222105 0)
(0.000667228 0.000325652 0)
(0.000599384 0.000420421 0)
(0.000515464 0.000503439 0)
(0.000417699 0.000572009 0)
(0.000308399 0.000623912 0)
(0.000190756 0.000657394 0)
(6.84245e-05 0.000670759 0)
(-5.50195e-05 0.000663685 0)
(-0.000175367 0.000635587 0)
(-0.000288881 0.000587758 0)
(-0.00039125 0.000520894 0)
(-0.000479157 0.000437344 0)
(-0.000549552 0.000340111 0)
(-0.00059933 0.000232202 0)
(-0.000626709 0.000117828 0)
(-0.000629949 1.41225e-06 0)
(-0.00060946 -0.000112995 0)
(-0.000565984 -0.000220587 0)
(-0.000500852 -0.000316812 0)
(-0.0004167 -0.000397734 0)
(-0.000317165 -0.000459441 0)
(-0.00020656 -0.000499611 0)
(-9.00606e-05 -0.000515503 0)
(2.74774e-05 -0.000507191 0)
(0.000140012 -0.000474345 0)
(0.000241443 -0.000418796 0)
(0.000327167 -0.000343242 0)
(0.00039296 -0.000251713 0)
(0.000434974 -0.000148674 0)
(0.000451092 -4.02655e-05 0)
(0.000440129 6.81301e-05 0)
(0.000402897 0.000170339 0)
(0.000341814 0.000260059 0)
(0.000259723 0.000332324 0)
(0.000162389 0.000382267 0)
(5.46605e-05 0.000407244 0)
(-5.5664e-05 0.00040459 0)
(-0.000160837 0.000375076 0)
(-0.000254495 0.000320924 0)
(-0.000329669 0.000245286 0)
(-0.000381669 0.000153674 0)
(-0.000406494 5.21417e-05 0)
(-0.000402389 -5.15411e-05 0)
(-0.000369713 -0.000150346 0)
(-0.000310246 -0.000236605 0)
(-0.000229043 -0.00030402 0)
(-0.000132236 -0.000347304 0)
(-2.6023e-05 -0.000363203 0)
(7.98317e-05 -0.000350191 0)
(0.000175861 -0.00031003 0)
(0.000255218 -0.000246394 0)
(0.000311706 -0.000165134 0)
(0.000340752 -7.33995e-05 0)
(0.000340379 2.01249e-05 0)
(0.000311446 0.000107512 0)
(0.000257551 0.000180456 0)
(0.000184434 0.000232637 0)
(9.96838e-05 0.000259821 0)
(1.1714e-05 0.000259929 0)
(-6.97233e-05 0.00023394 0)
(-0.000136112 0.000186252 0)
(-0.000181596 0.000123024 0)
(-0.000202343 5.22115e-05 0)
(-0.000197711 -1.77245e-05 0)
(-0.000169768 -7.84599e-05 0)
(-0.000123498 -0.000123082 0)
(-6.61192e-05 -0.000146993 0)
(-5.62714e-06 -0.000148376 0)
(4.88277e-05 -0.000128124 0)
(8.93826e-05 -9.11393e-05 0)
(0.00011166 -4.3893e-05 0)
(0.000113538 5.69667e-06 0)
(9.61433e-05 5.0123e-05 0)
(6.36041e-05 8.25512e-05 0)
(2.14288e-05 9.86259e-05 0)
(-2.26192e-05 9.59624e-05 0)
(-6.00134e-05 7.70275e-05 0)
(-8.50204e-05 4.57543e-05 0)
(-9.43907e-05 8.23356e-06 0)
(-8.72186e-05 -2.85887e-05 0)
(-6.55619e-05 -5.85362e-05 0)
(-3.40979e-05 -7.67557e-05 0)
(2.08406e-06 -8.08313e-05 0)
(3.60577e-05 -7.02221e-05 0)
(6.14858e-05 -4.79197e-05 0)
(7.49705e-05 -1.82001e-05 0)
(7.46991e-05 1.35951e-05 0)
(6.11701e-05 4.21816e-05 0)
(3.7262e-05 6.30651e-05 0)
(6.62315e-06 7.33118e-05 0)
(-2.54301e-05 7.16687e-05 0)
(-5.35262e-05 5.89055e-05 0)
(-7.41e-05 3.74101e-05 0)
(-8.4091e-05 1.05143e-05 0)
(-8.22266e-05 -1.77477e-05 0)
(-6.8824e-05 -4.34134e-05 0)
(-4.57272e-05 -6.28948e-05 0)
(-1.60314e-05 -7.34705e-05 0)
(-8.8578e-06 -9.22065e-05 0)
(-2.40683e-05 -9.10769e-05 0)
(-3.842e-05 -8.05523e-05 0)
(-4.52287e-05 -6.47431e-05 0)
(-4.87543e-05 -3.96041e-05 0)
(-3.61811e-05 -9.58681e-06 0)
(-2.13821e-05 3.82005e-05 0)
(1.58612e-05 8.37967e-05 0)
(6.02901e-05 0.00015317 0)
(9.87021e-05 0.000203017 0)
(0.0001443 0.00024358 0)
(0.00018059 0.000264158 0)
(0.000213495 0.000272239 0)
(0.000237201 0.000264568 0)
(0.00025557 0.000243478 0)
(0.000265242 0.000208964 0)
(0.000269888 0.000162433 0)
(0.000267453 0.000105427 0)
(0.000263082 4.00515e-05 0)
(0.000259709 -2.93898e-05 0)
(0.000253482 -0.000100318 0)
(0.000254085 -0.000175682 0)
(0.000259323 -0.00024915 0)