/*--------------------------------*- C++ -*----------------------------------*\
  =========                 |
  \\      /  F ield         | OpenFOAM: The Open Source CFD Toolbox
   \\    /   O peration     | Website:  https://openfoam.org
    \\  /    A nd           | Version:  12
     \\/     M anipulation  |
\*---------------------------------------------------------------------------*/
FoamFile
{
    format      ascii;
    class       volVectorField;
    location    "12";
    object      zeta;
}
// * * * * * * * * * * * * * * * * * * * * * * * * * * * * * * * * * * * * * //

dimensions      [0 1 0 0 0 0 0];

internalField   uniform (0 0 0);

boundaryField
{
    freeSurface
    {
        type            calculated;
        value           nonuniform List<vector> 
181
(
(0 0.00620949 0)
(0 0.00620923 0)
(0 0.00620866 0)
(0 0.00620758 0)
(0 0.00620687 0)
(0 0.00620539 0)
(0 0.00620537 0)
(0 0.00620345 0)
(0 0.000748808 0)
(0 0.00075612 0)
(0 0.000772839 0)
(0 0.000794588 0)
(0 0.000822358 0)
(0 0.00085613 0)
(0 0.000893719 0)
(0 0.000935111 0)
(0 0.000978777 0)
(0 0.00102429 0)
(0 0.00107018 0)
(0 0.00111549 0)
(0 0.00115885 0)
(0 0.00119924 0)
(0 0.0012357 0)
(0 0.00126766 0)
(0 0.00129425 0)
(0 0.00131469 0)
(0 0.00132823 0)
(0 0.00133411 0)
(0 0.00133169 0)
(0 0.0013205 0)
(0 0.00130013 0)
(0 0.00127042 0)
(0 0.00123112 0)
(0 0.00118211 0)
(0 0.0011234 0)
(0 0.00105517 0)
(0 0.000977691 0)
(0 0.000891387 0)
(0 0.000796702 0)
(0 0.000694322 0)
(0 0.000584974 0)
(0 0.000469507 0)
(0 0.000348962 0)
(0 0.000224364 0)
(0 9.70653e-05 0)
(0 -3.16414e-05 0)
(0 -0.000160264 0)
(0 -0.000287229 0)
(0 -0.000410973 0)
(0 -0.00052982 0)
(0 -0.00064184 0)
(0 -0.000745464 0)
(0 -0.000838935 0)
(0 -0.00092053 0)
(0 -0.000988814 0)
(0 -0.00104255 0)
(0 -0.00108039 0)
(0 -0.00110127 0)
(0 -0.00110443 0)
(0 -0.00108933 0)
(0 -0.00105578 0)
(0 -0.00100397 0)
(0 -0.000934368 0)
(0 -0.000847721 0)
(0 -0.000745166 0)
(0 -0.000628457 0)
(0 -0.00049942 0)
(0 -0.000360529 0)
(0 -0.000214235 0)
(0 -6.34968e-05 0)
(0 8.86876e-05 0)
(0 0.000238852 0)
(0 0.000383846 0)
(0 0.000520208 0)
(0 0.00064466 0)
(0 0.000754004 0)
(0 0.000845247 0)
(0 0.000915745 0)
(0 0.000963256 0)
(0 0.000986233 0)
(0 0.000983517 0)
(0 0.000954563 0)
(0 0.000899791 0)
(0 0.000820278 0)
(0 0.000717768 0)
(0 0.000594858 0)
(0 0.00045478 0)
(0 0.000301468 0)
(0 0.000139447 0)
(0 -2.61863e-05 0)
(0 -0.000190224 0)
(0 -0.000347301 0)
(0 -0.000491924 0)
(0 -0.000618986 0)
(0 -0.000723727 0)
(0 -0.000802081 0)
(0 -0.00085084 0)
(0 -0.000867821 0)
(0 -0.000851937 0)
(0 -0.000803563 0)
(0 -0.000724252 0)
(0 -0.000617107 0)
(0 -0.000486385 0)
(0 -0.00033752 0)
(0 -0.000177229 0)
(0 -1.25237e-05 0)
(0 0.000148963 0)
(0 0.000299628 0)
(0 0.00043199 0)
(0 0.000539478 0)
(0 0.000616459 0)
(0 0.000658669 0)
(0 0.000663926 0)
(0 0.000631827 0)
(0 0.000564197 0)
(0 0.000464897 0)
(0 0.000339846 0)
(0 0.000196654 0)
(0 4.43788e-05 0)
(0 -0.000107263 0)
(0 -0.00024881 0)
(0 -0.000370779 0)
(0 -0.000464812 0)
(0 -0.000524647 0)
(0 -0.00054597 0)
(0 -0.000527497 0)
(0 -0.000470857 0)
(0 -0.000380587 0)
(0 -0.000264023 0)
(0 -0.000130631 0)
(0 8.14008e-06 0)
(0 0.000141216 0)
(0 0.000257462 0)
(0 0.000346842 0)
(0 0.000401705 0)
(0 0.000417494 0)
(0 0.000393398 0)
(0 0.000332449 0)
(0 0.000241331 0)
(0 0.000129884 0)
(0 9.97407e-06 0)
(0 -0.000105553 0)
(0 -0.000205283 0)
(0 -0.000278619 0)
(0 -0.000318226 0)
(0 -0.000320624 0)
(0 -0.000286805 0)
(0 -0.000222128 0)
(0 -0.000135807 0)
(0 -3.9732e-05 0)
(0 5.31987e-05 0)
(0 0.000131648 0)
(0 0.000185721 0)
(0 0.000209573 0)
(0 0.000202057 0)
(0 0.000166692 0)
(0 0.000111172 0)
(0 4.62887e-05 0)
(0 -1.66982e-05 0)
(0 -6.83615e-05 0)
(0 -0.000101448 0)
(0 -0.00011294 0)
(0 -0.000104036 0)
(0 -7.94706e-05 0)
(0 -4.6009e-05 0)
(0 -1.17875e-05 0)
(0 1.63375e-05 0)
(0 3.32297e-05 0)
(0 3.68219e-05 0)
(0 2.81386e-05 0)
(0 1.05998e-05 0)
(0 -1.08141e-05 0)
(0 -3.08353e-05 0)
(0 -4.48042e-05 0)
(0 -4.95948e-05 0)
(0 -4.40752e-05 0)
(0 -2.96597e-05 0)
(0 -9.57838e-06 0)
(0 1.1739e-05 0)
(0 2.954e-05 0)
(0 3.97262e-05 0)
)
;
    }
    walls
    {
        type            calculated;
        value           uniform (0 0 0);
    }
    floatingObject
    {
        type            calculated;
        value           uniform (0 0 0);
    }
    frontAndBack
    {
        type            empty;
    }
}


// ************************************************************************* //
