/*--------------------------------*- C++ -*----------------------------------*\
  =========                 |
  \\      /  F ield         | OpenFOAM: The Open Source CFD Toolbox
   \\    /   O peration     | Website:  https://openfoam.org
    \\  /    A nd           | Version:  12
     \\/     M anipulation  |
\*---------------------------------------------------------------------------*/
FoamFile
{
    format      ascii;
    class       volScalarField;
    location    "200";
    object      epsilon;
}
// * * * * * * * * * * * * * * * * * * * * * * * * * * * * * * * * * * * * * //

dimensions      [0 2 -3 0 0 0 0];

internalField   nonuniform List<scalar> 
80
(
1.08556e-08
1.15198e-08
1.11128e-08
9.68835e-09
7.54164e-09
5.21446e-09
3.52078e-09
4.76631e-09
1.27138e-07
3.17393e-05
0.00395309
0.183328
3.46388
29.8813
64.0655
51.8342
39.4723
30.1829
23.2459
17.9938
13.9614
10.8323
8.38944
6.47875
4.98615
3.82369
2.92181
2.22488
1.68837
1.2767
0.961653
0.720948
0.537128
0.396587
0.288792
0.205694
0.141387
0.09218
0.0571992
0.038471
0.0396296
0.0603464
0.0966063
0.146602
0.211548
0.295307
0.403845
0.545221
0.729958
0.971644
1.28772
1.70041
2.23792
2.93574
3.83833
5.00119
6.49377
8.40393
10.8456
13.9723
17.9987
23.2342
30.1296
39.3351
51.5898
64.0386
32.1154
3.8159
0.209338
0.00477307
4.51464e-05
3.02776e-07
1.12792e-08
4.83887e-09
5.51244e-09
7.5859e-09
9.67204e-09
1.10895e-08
1.15044e-08
1.08507e-08
)
;

boundaryField
{
    lowerWall
    {
        type            fixedValue;
        value           uniform 1e-08;
    }
    upperWall
    {
        type            fixedValue;
        value           uniform 1e-08;
    }
    front
    {
        type            cyclic;
    }
    back
    {
        type            cyclic;
    }
    defaultFaces
    {
        type            empty;
    }
}


// ************************************************************************* //
