/*--------------------------------*- C++ -*----------------------------------*\
  =========                 |
  \\      /  F ield         | OpenFOAM: The Open Source CFD Toolbox
   \\    /   O peration     | Website:  https://openfoam.org
    \\  /    A nd           | Version:  12
     \\/     M anipulation  |
\*---------------------------------------------------------------------------*/
FoamFile
{
    format      ascii;
    class       volSymmTensorField;
    location    "200";
    object      R;
}
// * * * * * * * * * * * * * * * * * * * * * * * * * * * * * * * * * * * * * //

dimensions      [0 2 -2 0 0 0 0];

internalField   nonuniform List<symmTensor> 
80
(
(6.62942e-11 -9.21233e-12 -0 6.62942e-11 -0 6.62942e-11)
(6.07795e-11 -7.25281e-12 -0 6.07795e-11 -0 6.07795e-11)
(5.0857e-11 -5.22251e-12 -0 5.0857e-11 -0 5.0857e-11)
(3.78173e-11 -3.28319e-12 -0 3.78173e-11 -0 3.78173e-11)
(2.3859e-11 -1.66651e-12 -0 2.3859e-11 -0 2.3859e-11)
(1.16359e-11 -5.71605e-13 -0 1.16359e-11 -0 1.16359e-11)
(3.46755e-12 -7.55649e-14 -0 3.46755e-12 -0 3.46755e-12)
(3.04396e-13 -4.37506e-16 -0 3.04396e-13 -0 3.04396e-13)
(1.98716e-12 -7.22302e-16 -0 1.98716e-12 -0 1.98716e-12)
(9.22495e-10 -6.56831e-13 -0 9.22495e-10 -0 9.22495e-10)
(3.6975e-07 -9.11907e-10 -0 3.6975e-07 -0 3.6975e-07)
(5.54272e-05 -4.86441e-07 -0 5.54272e-05 -0 5.54272e-05)
(0.0029597 -8.41048e-05 -0 0.0029597 -0 0.0029597)
(0.0547463 -0.0142672 -0 0.0547463 -0 0.0547463)
(0.134334 -0.0553015 -0 0.134334 -0 0.134334)
(0.148202 -0.0622653 -0 0.148202 -0 0.148202)
(0.148467 -0.0647511 -0 0.148467 -0 0.148467)
(0.14379 -0.063982 -0 0.14379 -0 0.14379)
(0.136948 -0.0616293 -0 0.136948 -0 0.136948)
(0.129033 -0.0584199 -0 0.129033 -0 0.129033)
(0.120561 -0.0547312 -0 0.120561 -0 0.120561)
(0.111829 -0.0507803 -0 0.111829 -0 0.111829)
(0.103052 -0.0467276 -0 0.103052 -0 0.103052)
(0.0944068 -0.0427047 -0 0.0944068 -0 0.0944068)
(0.0860326 -0.0388126 -0 0.0860326 -0 0.0860326)
(0.0780339 -0.0351195 -0 0.0780339 -0 0.0780339)
(0.0704795 -0.0316636 -0 0.0704795 -0 0.0704795)
(0.0634066 -0.02846 -0 0.0634066 -0 0.0634066)
(0.0568266 -0.0255066 -0 0.0568266 -0 0.0568266)
(0.0507295 -0.0227897 -0 0.0507295 -0 0.0507295)
(0.0450886 -0.0202878 -0 0.0450886 -0 0.0450886)
(0.0398638 -0.0179732 -0 0.0398638 -0 0.0398638)
(0.0350048 -0.0158137 -0 0.0350048 -0 0.0350048)
(0.0304533 -0.0137725 -0 0.0304533 -0 0.0304533)
(0.0261467 -0.0118074 -0 0.0261467 -0 0.0261467)
(0.0220258 -0.00986778 -0 0.0220258 -0 0.0220258)
(0.0180573 -0.00789087 -0 0.0180573 -0 0.0180573)
(0.014298 -0.00580512 -0 0.014298 -0 0.014298)
(0.0110493 -0.00356725 -0 0.0110493 -0 0.0110493)
(0.00902486 -0.00113052 -0 0.00902486 -0 0.00902486)
(0.00919132 0.0014674 -0 0.00919132 -0 0.00919132)
(0.0114615 0.0038998 -0 0.0114615 -0 0.0114615)
(0.0148167 0.00612628 -0 0.0148167 -0 0.0148167)
(0.0186007 0.00819143 -0 0.0186007 -0 0.0186007)
(0.0225635 0.0101502 -0 0.0225635 -0 0.0225635)
(0.0266692 0.0120756 -0 0.0266692 -0 0.0266692)
(0.0309582 0.0140288 -0 0.0309582 -0 0.0309582)
(0.0354913 0.0160592 -0 0.0354913 -0 0.0354913)
(0.0403312 0.0182084 -0 0.0403312 -0 0.0403312)
(0.0455361 0.0205127 -0 0.0455361 -0 0.0455361)
(0.0511563 0.0230041 -0 0.0511563 -0 0.0511563)
(0.0572319 0.0257101 -0 0.0572319 -0 0.0572319)
(0.0637897 0.0286524 -0 0.0637897 -0 0.0637897)
(0.07084 0.0318445 -0 0.07084 -0 0.07084)
(0.0783718 0.0352885 -0 0.0783718 -0 0.0783718)
(0.0863483 0.0389695 -0 0.0863483 -0 0.0863483)
(0.0947018 0.0428497 -0 0.0947018 -0 0.0947018)
(0.10333 0.0468625 -0 0.10333 -0 0.10333)
(0.112096 0.0509108 -0 0.112096 -0 0.112096)
(0.120827 0.0548677 -0 0.120827 -0 0.120827)
(0.129309 0.0585748 -0 0.129309 -0 0.129309)
(0.137235 0.0618061 -0 0.137235 -0 0.137235)
(0.144078 0.0641613 -0 0.144078 -0 0.144078)
(0.148742 0.0649032 -0 0.148742 -0 0.148742)
(0.148539 0.0624221 -0 0.148539 -0 0.148539)
(0.135261 0.0557675 -0 0.135261 -0 0.135261)
(0.0586945 0.0161349 -0 0.0586945 -0 0.0586945)
(0.0033655 9.99185e-05 -0 0.0033655 -0 0.0033655)
(6.57969e-05 6.04262e-07 -0 6.57969e-05 -0 6.57969e-05)
(4.61233e-07 1.18176e-09 -0 4.61233e-07 -0 4.61233e-07)
(1.18273e-09 7.62627e-13 -0 1.18273e-09 -0 1.18273e-09)
(2.14083e-12 3.53385e-16 -0 2.14083e-12 -0 2.14083e-12)
(2.01659e-13 8.13918e-17 -0 2.01659e-13 -0 2.01659e-13)
(3.13745e-12 4.51187e-14 -0 3.13745e-12 -0 3.13745e-12)
(1.12151e-11 5.03208e-13 -0 1.12151e-11 -0 1.12151e-11)
(2.3423e-11 1.59892e-12 -0 2.3423e-11 -0 2.3423e-11)
(3.74354e-11 3.22587e-12 -0 3.74354e-11 -0 3.74354e-11)
(5.05739e-11 5.17927e-12 -0 5.05739e-11 -0 5.05739e-11)
(6.06131e-11 7.22712e-12 -0 6.06131e-11 -0 6.06131e-11)
(6.62421e-11 9.20665e-12 -0 6.62421e-11 -0 6.62421e-11)
)
;

boundaryField
{
    lowerWall
    {
        type            calculated;
        value           uniform (6.66667e-11 -0 -0 6.66667e-11 -0 6.66667e-11);
    }
    upperWall
    {
        type            calculated;
        value           uniform (6.66667e-11 0 -0 6.66667e-11 -0 6.66667e-11);
    }
    front
    {
        type            cyclic;
    }
    back
    {
        type            cyclic;
    }
    defaultFaces
    {
        type            empty;
    }
}


// ************************************************************************* //
