/*--------------------------------*- C++ -*----------------------------------*\
  =========                 |
  \\      /  F ield         | OpenFOAM: The Open Source CFD Toolbox
   \\    /   O peration     | Website:  https://openfoam.org
    \\  /    A nd           | Version:  12
     \\/     M anipulation  |
\*---------------------------------------------------------------------------*/
FoamFile
{
    format      ascii;
    class       volVectorField;
    location    "200";
    object      U;
}
// * * * * * * * * * * * * * * * * * * * * * * * * * * * * * * * * * * * * * //

dimensions      [0 1 -1 0 0 0 0];

internalField   nonuniform List<vector> 
80
(
(0.0948384 0 0)
(0.295356 0 0)
(0.519445 0 0)
(0.769388 0 0)
(1.0482 0 0)
(1.3601 0 0)
(1.71114 0 0)
(2.11016 0 0)
(2.57001 0 0)
(3.10941 0 0)
(3.75527 0 0)
(4.54598 0 0)
(5.5352 0 0)
(6.66832 0 0)
(7.349 0 0)
(7.75456 0 0)
(8.05987 0 0)
(8.31208 0 0)
(8.53105 0 0)
(8.72683 0 0)
(8.90522 0 0)
(9.06983 0 0)
(9.22293 0 0)
(9.36611 0 0)
(9.50054 0 0)
(9.62714 0 0)
(9.74667 0 0)
(9.85979 0 0)
(9.96705 0 0)
(10.069 0 0)
(10.166 0 0)
(10.2584 0 0)
(10.3467 0 0)
(10.4311 0 0)
(10.5116 0 0)
(10.5881 0 0)
(10.6598 0 0)
(10.7245 0 0)
(10.7771 0 0)
(10.8082 0 0)
(10.8058 0 0)
(10.7709 0 0)
(10.716 0 0)
(10.6501 0 0)
(10.5778 0 0)
(10.5009 0 0)
(10.4201 0 0)
(10.3355 0 0)
(10.247 0 0)
(10.1544 0 0)
(10.0573 0 0)
(9.95538 0 0)
(9.8481 0 0)
(9.73499 0 0)
(9.61549 0 0)
(9.48897 0 0)
(9.35465 0 0)
(9.21162 0 0)
(9.05872 0 0)
(8.89439 0 0)
(8.71633 0 0)
(8.52102 0 0)
(8.30281 0 0)
(8.05203 0 0)
(7.7495 0 0)
(7.3493 0 0)
(6.68059 0 0)
(5.55706 0 0)
(4.56102 0 0)
(3.76558 0 0)
(3.11641 0 0)
(2.57471 0 0)
(2.11327 0 0)
(1.71318 0 0)
(1.36142 0 0)
(1.04904 0 0)
(0.769902 0 0)
(0.519745 0 0)
(0.295509 0 0)
(0.0948836 0 0)
)
;

boundaryField
{
    lowerWall
    {
        type            noSlip;
    }
    upperWall
    {
        type            noSlip;
    }
    front
    {
        type            cyclic;
    }
    back
    {
        type            cyclic;
    }
    defaultFaces
    {
        type            empty;
    }
}


// ************************************************************************* //
