/*--------------------------------*- C++ -*----------------------------------*\
  =========                 |
  \\      /  F ield         | OpenFOAM: The Open Source CFD Toolbox
   \\    /   O peration     | Website:  https://openfoam.org
    \\  /    A nd           | Version:  12
     \\/     M anipulation  |
\*---------------------------------------------------------------------------*/
FoamFile
{
    format      ascii;
    class       volScalarField;
    location    "7.28";
    object      p_rgh;
}
// * * * * * * * * * * * * * * * * * * * * * * * * * * * * * * * * * * * * * //

dimensions      [1 -1 -2 0 0 0 0];

internalField   nonuniform List<scalar> 
3829
(
-1.89402
-1.89337
-1.89204
-1.89001
-1.88727
-1.88377
-1.87951
-1.87446
-1.86859
-1.86188
-1.8543
-1.84583
-1.83644
-1.82612
-1.81482
-1.80254
-1.78923
-1.77487
-1.75944
-1.7429
-1.72523
-1.7064
-1.68638
-1.66515
-1.64267
-1.61892
-1.59388
-1.56752
-1.53982
-1.51076
-1.48031
-1.44848
-1.41524
-1.3806
-1.34455
-1.3071
-1.26828
-1.22794
-1.18622
-1.14318
-1.09891
-1.05349
-1.00699
-0.959498
-0.911114
-0.861958
-0.812165
-0.761887
-0.71129
-0.660557
-0.609885
-0.559488
-0.509591
-0.46043
-0.412253
-0.365312
-0.319876
-0.276207
-0.23457
-0.195224
-0.158423
-0.124414
-0.0934313
-0.0656891
-0.0413747
-0.0206452
-0.00365065
0.00739616
0.0165343
0.0217565
0.0231065
0.0204291
0.0140358
0.00405575
-0.00983629
-0.0264506
-0.0457807
-0.0674339
-0.0910148
-0.116068
-0.142125
-0.168673
-0.195167
-0.221058
-0.245791
-0.268823
-0.289626
-0.307708
-0.322629
-0.334007
-0.341538
-0.34498
-0.343745
-0.337998
-0.327885
-0.313602
-0.295393
-0.273591
-0.248641
-0.221082
-0.191555
-0.160771
-0.129488
-0.0984996
-0.0686128
-0.0406451
-0.0153054
0.00672002
0.0248507
0.038636
0.0477888
0.0522109
0.0503556
0.0438045
0.0328708
0.0179727
-0.000291483
-0.0211719
-0.0437984
-0.06724
-0.0904753
-0.112564
-0.132589
-0.149743
-0.16336
-0.172968
-0.178309
-0.178928
-0.175373
-0.168072
-0.15761
-0.144785
-0.13054
-0.115872
-0.101901
-0.0895859
-0.0798288
-0.0733541
-0.0706528
-0.0719286
-0.0773678
-0.0864348
-0.0985671
-0.112985
-0.128752
-0.145048
-0.16001
-0.172884
-0.182788
-0.18902
-0.191144
-0.188633
-0.181918
-0.171397
-0.157699
-0.141603
-0.124226
-0.106706
-0.0900465
-0.0752504
-0.0631651
-0.0544166
-0.0493821
-0.0482522
-0.0508003
-0.0566411
-0.0651648
-0.0755782
-0.0870267
-0.0985497
-0.109236
-0.118292
-0.125013
-0.128884
-0.129597
-0.127058
-0.121391
-0.112951
-0.102264
-0.089997
-0.0769222
-0.0638617
-0.0516435
-0.0410508
-0.0327725
-0.02737
-0.0252432
-0.0266112
-0.0315017
-0.0397394
-0.0509545
-0.0646134
-0.0800262
-0.096397
-0.112859
-0.128498
-0.142416
-0.153785
-0.161874
-0.16611
-1.95018
-1.9495
-1.9481
-1.94596
-1.94307
-1.93939
-1.93491
-1.9296
-1.92344
-1.91642
-1.90851
-1.8997
-1.88995
-1.87926
-1.86759
-1.85491
-1.84121
-1.82646
-1.81062
-1.79366
-1.77556
-1.75629
-1.7358
-1.71407
-1.69106
-1.66673
-1.64105
-1.61397
-1.58546
-1.55548
-1.52399
-1.49096
-1.45633
-1.4201
-1.38222
-1.34268
-1.30143
-1.25876
-1.21456
-1.16881
-1.12151
-1.07273
-1.02254
-0.971045
-0.918376
-0.864671
-0.81009
-0.754813
-0.699041
-0.642996
-0.586917
-0.531064
-0.475714
-0.421156
-0.367697
-0.315648
-0.265339
-0.217096
-0.171245
-0.128111
-0.0880144
-0.0512502
-0.0180938
0.0111191
0.0361451
0.0568622
0.0730898
0.0846616
0.0915987
0.0938725
0.0914646
0.0846574
0.0734388
0.0580247
0.0387047
0.0158586
-0.0117893
-0.0405754
-0.0715573
-0.104161
-0.137792
-0.171811
-0.205544
-0.238313
-0.269437
-0.298259
-0.324134
-0.346465
-0.364731
-0.378478
-0.387349
-0.391034
-0.389137
-0.381773
-0.369062
-0.351207
-0.328522
-0.301474
-0.270649
-0.236748
-0.200586
-0.163048
-0.125086
-0.0876782
-0.0518805
-0.0185794
0.0112747
0.0368482
0.05742
0.0724075
0.0813813
0.0840606
0.0811409
0.0721921
0.0576947
0.0383248
0.0149319
-0.0114856
-0.0398084
-0.0688731
-0.0973792
-0.124171
-0.148131
-0.168282
-0.183828
-0.194205
-0.199106
-0.19847
-0.192647
-0.182169
-0.167859
-0.150772
-0.132108
-0.113129
-0.0952438
-0.0796232
-0.0673763
-0.0593683
-0.0561772
-0.0580497
-0.064881
-0.0762012
-0.0912169
-0.108826
-0.127685
-0.148937
-0.166544
-0.181814
-0.193509
-0.200746
-0.20297
-0.199935
-0.191921
-0.179447
-0.163345
-0.144594
-0.124504
-0.104432
-0.0855363
-0.0689577
-0.0556414
-0.0462705
-0.0412444
-0.040614
-0.0441685
-0.0514006
-0.0615665
-0.0737481
-0.0869636
-0.100108
-0.112201
-0.122359
-0.129826
-0.134065
-0.134773
-0.131891
-0.125547
-0.116197
-0.104435
-0.0910046
-0.0767515
-0.06257
-0.0493508
-0.0379285
-0.0290345
-0.0232519
-0.0209911
-0.0224678
-0.0276943
-0.0364698
-0.0483926
-0.0628701
-0.0791872
-0.0964935
-0.113866
-0.130355
-0.145019
-0.156985
-0.165495
-0.169951
-2.05904
-2.05821
-2.05654
-2.05402
-2.05066
-2.04627
-2.04097
-2.03475
-2.0276
-2.01953
-2.01053
-2.00059
-1.98971
-1.97788
-1.96508
-1.95132
-1.93656
-1.92081
-1.90403
-1.8862
-1.86729
-1.84726
-1.82606
-1.80365
-1.77997
-1.75496
-1.72855
-1.70067
-1.67124
-1.64018
-1.60741
-1.57285
-1.53641
-1.49802
-1.45761
-1.41516
-1.37074
-1.32382
-1.27463
-1.22333
-1.16998
-1.11463
-1.05735
-0.998227
-0.937408
-0.875059
-0.811384
-0.746615
-0.681015
-0.614878
-0.548525
-0.482309
-0.416603
-0.3518
-0.288318
-0.226582
-0.167037
-0.110116
-0.0562728
-0.00593127
0.0401281
0.0821096
0.119398
0.151627
0.178467
0.199668
0.215023
0.224428
0.22781
0.225186
0.215982
0.201089
0.180567
0.154705
0.123875
0.0885465
0.049231
0.00662469
-0.0385366
-0.0854033
-0.133226
-0.181161
-0.228313
-0.273776
-0.316649
-0.356057
-0.39116
-0.421183
-0.44543
-0.463302
-0.474324
-0.478252
-0.474735
-0.463882
-0.445829
-0.420861
-0.389464
-0.352332
-0.310314
-0.264401
-0.21573
-0.165525
-0.115087
-0.0657645
-0.0188971
0.0242298
0.0623971
0.0945292
0.119691
0.137153
0.146418
0.147216
0.140359
0.125614
0.103611
0.0753389
0.0420061
0.0050257
-0.0340338
-0.073725
-0.112014
-0.147483
-0.178634
-0.204183
-0.223114
-0.234731
-0.238688
-0.235265
-0.224769
-0.208031
-0.186296
-0.161079
-0.134068
-0.106956
-0.081799
-0.0600995
-0.0433284
-0.0326113
-0.0286681
-0.0317965
-0.0415773
-0.0574217
-0.0781624
-0.102328
-0.128281
-0.154483
-0.178268
-0.198381
-0.213456
-0.222483
-0.224849
-0.22061
-0.209995
-0.193803
-0.173218
-0.149585
-0.124562
-0.0998967
-0.0770219
-0.0573244
-0.0419154
-0.0315499
-0.0266035
-0.0270213
-0.0324831
-0.0422743
-0.0554212
-0.070768
-0.0871059
-0.10311
-0.117654
-0.129701
-0.138423
-0.143244
-0.143879
-0.140363
-0.132765
-0.121799
-0.108144
-0.0926755
-0.0763703
-0.0602473
-0.0453049
-0.0324658
-0.0225269
-0.0161095
-0.0136391
-0.0153233
-0.021145
-0.0308598
-0.044015
-0.0599007
-0.0777699
-0.0966772
-0.115616
-0.133558
-0.149489
-0.162475
-0.171704
-0.176532
-2.17988
-2.17952
-2.17782
-2.17483
-2.17063
-2.16527
-2.15878
-2.1512
-2.14257
-2.13293
-2.12232
-2.11078
-2.09835
-2.08506
-2.07096
-2.05598
-2.04017
-2.0236
-2.00618
-1.98792
-1.96879
-1.94878
-1.92783
-1.90585
-1.88277
-1.85847
-1.83283
-1.80568
-1.7769
-1.74629
-1.71367
-1.67887
-1.64167
-1.60188
-1.55929
-1.51365
-1.46508
-1.41387
-1.35967
-1.30232
-1.24179
-1.17814
-1.11149
-1.04201
-0.969882
-0.895358
-0.818725
-0.740311
-0.660496
-0.579698
-0.49838
-0.417037
-0.336206
-0.256446
-0.178333
-0.102466
-0.0294871
0.0399875
0.105234
0.165899
0.221304
0.270899
0.314163
0.3506
0.379803
0.401405
0.415162
0.42084
0.418329
0.407476
0.38922
0.363046
0.329341
0.288578
0.241325
0.188288
0.130263
0.0681336
0.00285922
-0.0643813
-0.132487
-0.200285
-0.266543
-0.330028
-0.389517
-0.443833
-0.491845
-0.532516
-0.564933
-0.588305
-0.602018
-0.605649
-0.599223
-0.582715
-0.556308
-0.520477
-0.475995
-0.423879
-0.365346
-0.301813
-0.234886
-0.166278
-0.097797
-0.0313076
0.031377
0.0884901
0.1384
0.179663
0.211096
0.231785
0.241125
0.238873
0.225649
0.201796
0.168355
0.126739
0.0786667
0.0261388
-0.0286604
-0.0834422
-0.135872
-0.183758
-0.225082
-0.258127
-0.281564
-0.294555
-0.296792
-0.288707
-0.270861
-0.244596
-0.211746
-0.174482
-0.135195
-0.0963856
-0.0607405
-0.0304031
-0.00731902
0.00706781
0.0118364
0.0065545
-0.00794809
-0.0306525
-0.0598448
-0.0934145
-0.129003
-0.164064
-0.195994
-0.222653
-0.242277
-0.253595
-0.255968
-0.249656
-0.23506
-0.213409
-0.186364
-0.155809
-0.123912
-0.0929058
-0.0646255
-0.0407772
-0.0226602
-0.011101
-0.00645789
-0.00853874
-0.0167776
-0.030181
-0.0474658
-0.0671538
-0.0877186
-0.107563
-0.125349
-0.13986
-0.150169
-0.155662
-0.156064
-0.151393
-0.142273
-0.129143
-0.112947
-0.0947593
-0.0757357
-0.057057
-0.039865
-0.025192
-0.0139142
-0.00669984
-0.00399058
-0.00597946
-0.0126074
-0.023561
-0.0382839
-0.0560669
-0.0759652
-0.0969523
-0.117921
-0.13774
-0.155308
-0.169609
-0.179762
-0.18507
-2.36423
-2.36193
-2.35836
-2.35336
-2.34679
-2.33859
-2.3287
-2.31627
-2.30286
-2.28845
-2.2731
-2.25688
-2.23986
-2.22215
-2.20383
-2.185
-2.16577
-2.14945
-2.12967
-2.10985
-2.08996
-2.06994
-2.04972
-2.02914
-2.00804
-1.98619
-1.96332
-1.93913
-1.91332
-1.88552
-1.85538
-1.82252
-1.78664
-1.74748
-1.70497
-1.65706
-1.60453
-1.54767
-1.48643
-1.42068
-1.35036
-1.27551
-1.19626
-1.11281
-1.02543
-0.934461
-0.840322
-0.743492
-0.64451
-0.543976
-0.442529
-0.340873
-0.239757
-0.139945
-0.0422561
0.0524696
0.142947
0.229182
0.309929
0.384406
0.451805
0.511359
0.562405
0.60431
0.63655
0.658667
0.670284
0.671182
0.66128
0.640503
0.609209
0.567643
0.516296
0.455793
0.386914
0.310626
0.228032
0.140344
0.0489208
-0.0447793
-0.139122
-0.232535
-0.323345
-0.409889
-0.490532
-0.563703
-0.627896
-0.681759
-0.724117
-0.754012
-0.770612
-0.773198
-0.762202
-0.737486
-0.699394
-0.648704
-0.586539
-0.514342
-0.433835
-0.346994
-0.256044
-0.163342
-0.0713612
0.0173733
0.100404
0.175355
0.24011
0.292791
0.331877
0.356271
0.365242
0.357794
0.335485
0.299112
0.250188
0.190684
0.12301
0.0499435
-0.0254856
-0.100082
-0.170774
-0.234543
-0.28873
-0.331084
-0.359886
-0.3741
-0.373365
-0.358412
-0.330303
-0.29104
-0.243202
-0.189852
-0.134326
-0.0802807
-0.0310334
0.010345
0.0413102
0.0600632
0.0655434
0.056804
0.0356018
0.00357577
-0.0368836
-0.0828139
-0.130949
-0.177733
-0.219956
-0.254744
-0.279813
-0.293679
-0.295709
-0.286277
-0.26624
-0.237372
-0.201976
-0.162579
-0.122066
-0.0831998
-0.04834
-0.0195539
0.00165399
0.0143912
0.0183864
0.0140014
0.00213798
-0.0158542
-0.038302
-0.0633249
-0.0890457
-0.113499
-0.135117
-0.152489
-0.164583
-0.170764
-0.170806
-0.164881
-0.153606
-0.137776
-0.118498
-0.0970546
-0.0748058
-0.0531194
-0.0333009
-0.0165084
-0.0037029
0.00439803
0.00733984
0.00495031
-0.00265595
-0.0150922
-0.0317084
-0.0516682
-0.0739238
-0.0973238
-0.120641
-0.142628
-0.162082
-0.177896
-0.18911
-0.194969
-2.5281
-2.52549
-2.52032
-2.51267
-2.50266
-2.49039
-2.47608
-2.46085
-2.44324
-2.42318
-2.40113
-2.37763
-2.3532
-2.32829
-2.30336
-2.2788
-2.25498
-2.23223
-2.2107
-2.19086
-2.17224
-2.15515
-2.13946
-2.12488
-2.11105
-2.09742
-2.08344
-2.06845
-2.05188
-2.0329
-2.01071
-1.98436
-1.9529
-1.91518
-1.87401
-1.82822
-1.77591
-1.71648
-1.64977
-1.57584
-1.49484
-1.40697
-1.31251
-1.21184
-1.10542
-0.99379
-0.877578
-0.757478
-0.634267
-0.508793
-0.381981
-0.254803
-0.128253
-0.00340985
0.118564
0.236612
0.349673
0.456603
0.556299
0.64769
0.729738
0.801455
0.861924
0.910354
0.94603
0.968396
0.977013
0.971589
0.951979
0.918546
0.871295
0.810715
0.737511
0.652562
0.55694
0.451964
0.339126
0.220072
0.0966493
-0.0296676
-0.155882
-0.280355
-0.400864
-0.515211
-0.621251
-0.716951
-0.80037
-0.869717
-0.923457
-0.960283
-0.979325
-0.980054
-0.962534
-0.926808
-0.873507
-0.80379
-0.71922
-0.621783
-0.513823
-0.398008
-0.277338
-0.154972
-0.0342031
0.0816338
0.189289
0.285651
0.367924
0.433756
0.481292
0.509458
0.518467
0.502563
0.468191
0.415831
0.347335
0.265366
0.173218
0.0746741
-0.0261981
-0.125138
-0.218033
-0.300941
-0.370367
-0.423488
-0.458192
-0.473217
-0.46795
-0.443706
-0.402262
-0.346389
-0.279615
-0.206142
-0.130462
-0.0575954
0.0081442
0.0626865
0.102761
0.126239
0.132762
0.118396
0.0884475
0.0445816
-0.00998375
-0.0712337
-0.134796
-0.19585
-0.250357
-0.294602
-0.325809
-0.342271
-0.343347
-0.329643
-0.302666
-0.264849
-0.219276
-0.169297
-0.118621
-0.0706052
-0.0282336
0.00605005
0.0305296
0.0442747
0.0471783
0.0398375
0.0235387
6.37075e-05
-0.0284442
-0.0596387
-0.0912382
-0.120897
-0.146767
-0.167251
-0.181217
-0.188018
-0.187506
-0.17999
-0.166234
-0.147294
-0.12451
-0.0994015
-0.073555
-0.0485434
-0.0258443
-0.00675369
0.00768783
0.0167114
0.0198549
0.0169756
0.00824847
-0.0058481
-0.0245574
-0.046919
-0.0717572
-0.09779
-0.12366
-0.148002
-0.1695
-0.186948
-0.199309
-0.205763
-2.81582
-2.81008
-2.79863
-2.78151
-2.75889
-2.73101
-2.6985
-2.66206
-2.62336
-2.58401
-2.54381
-2.50369
-2.46472
-2.42741
-2.3919
-2.35826
-2.32678
-2.29805
-2.27277
-2.25172
-2.23532
-2.2236
-2.21635
-2.213
-2.21285
-2.21488
-2.21789
-2.22058
-2.22198
-2.22045
-2.21445
-2.20263
-2.18434
-2.157
-2.11825
-2.07092
-2.01431
-1.94797
-1.87171
-1.78552
-1.68957
-1.58418
-1.46978
-1.34694
-1.21632
-1.07871
-0.934987
-0.786121
-0.633173
-0.477286
-0.319667
-0.161573
-0.00437759
0.150409
0.301605
0.447719
0.58727
0.718825
0.840956
0.952292
1.05151
1.13738
1.20875
1.26459
1.30406
1.32645
1.33124
1.31812
1.28696
1.23794
1.17144
1.08811
0.988875
0.874906
0.747616
0.608741
0.460223
0.304195
0.143053
-0.0206993
-0.184299
-0.345027
-0.500046
-0.646564
-0.781859
-0.903298
-1.0084
-1.09499
-1.16126
-1.20567
-1.22705
-1.22417
-1.19781
-1.14813
-1.07608
-0.983213
-0.871615
-0.743912
-0.603193
-0.452964
-0.297142
-0.139835
0.0146884
0.162134
0.298323
0.419291
0.521449
0.601753
0.657703
0.687337
0.688773
0.668516
0.621184
0.549886
0.45788
0.348977
0.227626
0.0988257
-0.032128
-0.159592
-0.278321
-0.383268
-0.470008
-0.53499
-0.57573
-0.591226
-0.579358
-0.543388
-0.485538
-0.409457
-0.319879
-0.222369
-0.122732
-0.0276807
0.0572257
0.126782
0.176795
0.204237
0.206901
0.189541
0.149624
0.091519
0.0200379
-0.0593744
-0.141062
-0.218684
-0.287172
-0.34197
-0.379754
-0.398568
-0.397944
-0.378809
-0.343395
-0.294979
-0.23755
-0.175456
-0.11328
-0.0550821
-0.00450145
0.0356255
0.0633891
0.0778764
0.0791811
0.0682299
0.0467405
0.0170035
-0.0183124
-0.056361
-0.0943786
-0.129668
-0.160064
-0.183787
-0.199621
-0.206927
-0.205649
-0.196264
-0.179727
-0.157355
-0.130747
-0.101679
-0.0719823
-0.0434407
-0.0177041
0.00376991
0.0198962
0.0298387
0.0331368
0.0296873
0.0197318
0.00384767
-0.0170891
-0.0419916
-0.0695509
-0.0983433
-0.126885
-0.153681
-0.177304
-0.196453
-0.210004
-0.217076
-3.17768
-3.16839
-3.15016
-3.12342
-3.08925
-3.04906
-3.00627
-2.95919
-2.91115
-2.84934
-2.78174
-2.70941
-2.6343
-2.5588
-2.48597
-2.41877
-2.35963
-2.31034
-2.27207
-2.24553
-2.23114
-2.22857
-2.23684
-2.25443
-2.27946
-2.30926
-2.34095
-2.36813
-2.39896
-2.42528
-2.44355
-2.45037
-2.44621
-2.43192
-2.40385
-2.36111
-2.30357
-2.23134
-2.14469
-2.04405
-1.92998
-1.80322
-1.66454
-1.51486
-1.35517
-1.18658
-1.01028
-0.827553
-0.639774
-0.448376
-0.254916
-0.0610603
0.1314
0.320916
0.505668
0.683852
0.853611
1.01315
1.16071
1.29457
1.41312
1.5148
1.59822
1.66214
1.7055
1.72746
1.72741
1.70498
1.66015
1.5931
1.50438
1.39483
1.26569
1.11847
0.954975
0.777438
0.588328
0.390368
0.186565
-0.0198566
-0.225523
-0.426971
-0.620658
-0.803101
-0.97085
-1.12069
-1.24963
-1.35496
-1.43439
-1.48617
-1.50928
-1.50135
-1.46403
-1.39767
-1.30352
-1.1836
-1.04062
-0.87797
-0.699602
-0.509983
-0.31408
-0.117081
0.0756204
0.258655
0.4268
0.575142
0.699281
0.79548
0.860812
0.893296
0.892128
0.85885
0.793738
0.6994
0.579728
0.439554
0.284573
0.121144
-0.044091
-0.203831
-0.351585
-0.481066
-0.5868
-0.664368
-0.710595
-0.723484
-0.705349
-0.655725
-0.578556
-0.47888
-0.362918
-0.237711
-0.110494
0.00970764
0.116119
0.202359
0.263312
0.295538
0.297604
0.271457
0.218538
0.143467
0.0523442
-0.0478685
-0.150132
-0.246257
-0.33013
-0.396281
-0.440819
-0.461617
-0.458431
-0.432682
-0.387424
-0.326892
-0.256179
-0.180626
-0.105885
-0.0367399
0.0225065
0.0686304
0.0995567
0.114434
0.113631
0.0984479
0.0711048
0.0344583
-0.00825283
-0.053638
-0.0985047
-0.139671
-0.174726
-0.201715
-0.219346
-0.227011
-0.224764
-0.213273
-0.193713
-0.16767
-0.137018
-0.103804
-0.0701078
-0.0379269
-0.00909558
0.0148089
0.0326065
0.0434338
0.0468323
0.0427445
0.0314844
0.0137325
-0.00950708
-0.0370226
-0.067368
-0.0989751
-0.130231
-0.159514
-0.185289
-0.206154
-0.220907
-0.228602
-3.68448
-3.66417
-3.62361
-3.56185
-3.47802
-3.36989
-3.23712
-3.08291
-2.94961
-2.81253
-2.66787
-2.5245
-2.3898
-2.26853
-2.16364
-2.07672
-2.00852
-1.95923
-1.92883
-1.91767
-1.92621
-1.95461
-2.00345
-2.07292
-2.16257
-2.27001
-2.38868
-2.49661
-2.60527
-2.69398
-2.75591
-2.79455
-2.80979
-2.80443
-2.77901
-2.73322
-2.66735
-2.58209
-2.47825
-2.35674
-2.21856
-2.06472
-1.89634
-1.71461
-1.52077
-1.31621
-1.10242
-0.880977
-0.653592
-0.42209
-0.188365
0.045577
0.277647
0.505793
0.727818
0.941524
1.14466
1.33506
1.51054
1.66908
1.80869
1.92751
2.02388
2.09629
2.14351
2.16454
2.15868
2.12553
2.06509
1.97768
1.864
1.72513
1.56266
1.37846
1.17481
0.954481
0.720536
0.476333
0.225607
-0.0276858
-0.279444
-0.525406
-0.761244
-0.982664
-1.18554
-1.36599
-1.5203
-1.64523
-1.73812
-1.79679
-1.81977
-1.80618
-1.75624
-1.67077
-1.55148
-1.40101
-1.22277
-1.02103
-0.800721
-0.567397
-0.327182
-0.0864465
0.14818
0.370123
0.573039
0.750975
0.898642
1.01159
1.08639
1.12087
1.11427
1.06734
0.981888
0.861253
0.710291
0.535016
0.342528
0.14073
-0.0624939
-0.257642
-0.437058
-0.593099
-0.719159
-0.80996
-0.861889
-0.873253
-0.844997
-0.778926
-0.679518
-0.553112
-0.407624
-0.251821
-0.0931927
0.0543681
0.184163
0.288374
0.36083
0.397615
0.397374
0.361599
0.293604
0.199197
0.0860261
-0.0372263
-0.16222
-0.278374
-0.37867
-0.45668
-0.507949
-0.530242
-0.523596
-0.490105
-0.433717
-0.35979
-0.274556
-0.184566
-0.0964499
-0.0158469
0.052305
0.104414
0.138278
0.153132
0.149755
0.129794
0.0960503
0.0519917
0.00146161
-0.051569
-0.103564
-0.150704
-0.190442
-0.220642
-0.239955
-0.247818
-0.244416
-0.230632
-0.207872
-0.178
-0.143176
-0.10572
-0.0679639
-0.0321202
-0.000194262
0.0261135
0.0455414
0.0572012
0.0606453
0.0558648
0.0432526
0.0235911
-0.00197536
-0.0321196
-0.0652541
-0.0996714
-0.133626
-0.165378
-0.193283
-0.215847
-0.231788
-0.240098
-4.44512
-4.42001
-4.37106
-4.29826
-4.20466
-4.08975
-3.96788
-3.76796
-3.79888
-3.51764
-3.28577
-3.07997
-2.88685
-2.70849
-2.54754
-2.40648
-2.28809
-2.19508
-2.12977
-2.09423
-2.09033
-2.1176
-2.17564
-2.26279
-2.37621
-2.51815
-2.73469
-2.73487
-2.92423
-3.02606
-3.12133
-3.19019
-3.23211
-3.24223
-3.22126
-3.16996
-3.0909
-2.9871
-2.86055
-2.71288
-2.54556
-2.35993
-2.1573
-1.93911
-1.70686
-1.46219
-1.20689
-0.942841
-0.672075
-0.396743
-0.119125
0.158221
0.433201
0.703095
0.965298
1.21721
1.45616
1.67957
1.88489
2.06968
2.23162
2.36851
2.47838
2.55949
2.61038
2.62991
2.61727
2.57212
2.49443
2.38465
2.24368
2.0729
1.87422
1.64997
1.40292
1.13643
0.854212
0.560314
0.259235
-0.0442687
-0.34528
-0.638698
-0.919343
-1.18213
-1.42213
-1.6347
-1.81552
-1.96075
-2.06716
-2.13215
-2.15365
-2.13349
-2.06919
-1.96233
-1.81522
-1.63117
-1.41441
-1.17014
-0.904376
-0.623814
-0.335863
-0.0481501
0.231334
0.494759
0.734571
0.943706
1.11593
1.24605
1.33012
1.3657
1.35197
1.28982
1.18179
1.03215
0.846863
0.633304
0.400116
0.156975
-0.0872801
-0.32023
-0.533355
-0.717462
-0.864747
-0.969051
-1.02629
-1.03471
-0.995102
-0.910478
-0.786357
-0.630529
-0.452798
-0.264502
-0.0706389
0.105552
0.260211
0.383308
0.467536
0.508433
0.504647
0.458016
0.373171
0.25743
0.120207
-0.027817
-0.17739
-0.314589
-0.431991
-0.522094
-0.579893
-0.603092
-0.592138
-0.549881
-0.481283
-0.392918
-0.292282
-0.18708
-0.0851035
0.0072157
0.0843155
0.142263
0.178779
0.193177
0.186817
0.161624
0.121066
0.0692439
0.0106253
-0.050231
-0.109405
-0.162528
-0.206891
-0.240189
-0.261038
-0.268937
-0.264222
-0.248007
-0.221934
-0.188152
-0.14911
-0.107398
-0.065598
-0.0261291
0.00882949
0.0374734
0.0584641
0.0708933
0.0743302
0.0688185
0.0548361
0.0332642
0.00538065
-0.0273628
-0.0632415
-0.100415
-0.137009
-0.171172
-0.201152
-0.225368
-0.242464
-0.251372
-5.42247
-5.40614
-5.37275
-5.31848
-5.23536
-5.12195
-4.96317
-4.78455
-4.60156
-3.64113
-3.02841
-2.54993
-2.15838
-1.84297
-1.59336
-1.40074
-1.25827
-1.16131
-1.10699
-1.09613
-1.13071
-1.21343
-1.35115
-1.55432
-1.83576
-2.21753
-2.87116
-3.21624
-3.52576
-3.70483
-3.80958
-3.85767
-3.86047
-3.82825
-3.76644
-3.68025
-3.57069
-3.43764
-3.28136
-3.10236
-2.90156
-2.68021
-2.43973
-2.18167
-1.90776
-1.61986
-1.32002
-1.01043
-0.69345
-0.371569
-0.0475378
0.27604
0.596234
0.910074
1.21452
1.50654
1.78302
2.04096
2.27739
2.48949
2.67456
2.83005
2.95371
3.04351
3.0978
3.11528
3.09504
3.03678
2.94045
2.80669
2.6366
2.43187
2.19479
1.92815
1.63525
1.32008
0.987036
0.640903
0.286987
-0.069112
-0.42163
-0.764573
-1.09188
-1.39761
-1.67602
-1.92171
-2.12967
-2.29549
-2.41551
-2.48687
-2.50777
-2.47798
-2.39719
-2.26686
-2.0897
-1.86968
-1.61186
-1.32243
-1.00854
-0.678113
-0.339889
-0.0029138
0.323534
0.630225
0.908347
1.14969
1.34704
1.49443
1.5874
1.62321
1.60105
1.52212
1.38961
1.2088
0.986825
0.732524
0.456134
0.168961
-0.117399
-0.390317
-0.63863
-0.851777
-1.02076
-1.13854
-1.20054
-1.20491
-1.15268
-1.04779
-0.896982
-0.70956
-0.497072
-0.272245
-0.0464224
0.161911
0.342795
0.485377
0.581399
0.625886
0.617543
0.55881
0.455613
0.316928
0.154083
-0.0200421
-0.195337
-0.354225
-0.489121
-0.591309
-0.655289
-0.678763
-0.662748
-0.610851
-0.5292
-0.425634
-0.308978
-0.188169
-0.0720817
0.0319925
0.117914
0.181451
0.220305
0.234188
0.224153
0.193364
0.145716
0.085933
0.019105
-0.0496818
-0.115816
-0.174897
-0.223756
-0.259995
-0.282219
-0.290006
-0.283849
-0.265117
-0.235681
-0.197978
-0.154741
-0.108831
-0.0630619
-0.0200614
0.0178251
0.0487091
0.0711776
0.0843068
0.0876893
0.081423
0.0660744
0.0426533
0.0124672
-0.0228106
-0.0613511
-0.101191
-0.140332
-0.176813
-0.208788
-0.23459
-0.252794
-0.262276
-6.27464
-6.24911
-6.19657
-6.11766
-6.0033
-5.90707
-5.70213
-5.66034
-4.03687
-4.054
-4.2291
-4.28659
-4.348
-4.36815
-4.34897
-4.28891
-4.19402
-4.06638
-3.90865
-3.72286
-3.51099
-3.27464
-3.01539
-2.73484
-2.43478
-2.11712
-1.78399
-1.4377
-1.08073
-0.715756
-0.345636
0.026594
0.397813
0.764684
1.12382
1.47175
1.80499
2.11998
2.41328
2.68151
2.92144
3.12999
3.30429
3.44175
3.5401
3.59748
3.61242
3.58397
3.5116
3.39557
3.23663
3.03612
2.79601
2.51903
2.20844
1.86807
1.50258
1.11708
0.717112
0.308818
-0.10133
-0.506688
-0.900347
-1.27534
-1.62484
-1.94229
-2.22151
-2.45679
-2.64313
-2.77644
-2.85356
-2.87249
-2.83255
-2.73406
-2.57881
-2.37
-2.11231
-1.81164
-1.47527
-1.11148
-0.729488
-0.339408
0.0482902
0.422926
0.773879
1.09105
1.36504
1.58764
1.75213
1.85349
1.88873
1.85708
1.76009
1.60168
1.38808
1.12777
0.831073
0.509886
0.177301
-0.152795
-0.466559
-0.750801
-0.993429
-1.18419
-1.31521
-1.38139
-1.38078
-1.31484
-1.18836
-1.00941
-0.788892
-0.540196
-0.278191
-0.0179236
0.222771
0.430402
0.59266
0.700267
0.747783
0.734016
0.662146
0.539416
0.376562
0.186933
-0.0148567
-0.214884
-0.39649
-0.549006
-0.663065
-0.732779
-0.755903
-0.734179
-0.671975
-0.576654
-0.457427
-0.324429
-0.187868
-0.057683
0.0579917
0.152474
0.221271
0.262091
0.274844
0.261119
0.22453
0.169651
0.101852
0.0268403
-0.0497511
-0.122758
-0.187587
-0.240745
-0.279739
-0.303171
-0.310717
-0.303025
-0.281738
-0.248943
-0.207366
-0.160019
-0.110021
-0.0604127
-0.0140107
0.0266646
0.0596736
0.0835229
0.0972816
0.10057
0.0935391
0.0768443
0.0515895
0.0192119
-0.0185018
-0.0595948
-0.101982
-0.143552
-0.182242
-0.216112
-0.243419
-0.262674
-0.272701
-7.30996
-7.302
-7.2882
-7.27174
-7.2527
-7.25463
-7.19449
-7.26023
-5.27547
-5.18198
-5.22368
-5.17907
-5.13529
-5.07236
-4.98963
-4.88358
-4.75012
-4.58767
-4.3964
-4.1766
-3.92926
-3.65556
-3.35696
-3.03512
-2.69194
-2.32953
-1.95022
-1.55657
-1.15137
-0.737599
-0.318458
0.102655
0.522152
0.936294
1.34127
1.73314
2.10798
2.46179
2.79067
3.09083
3.35863
3.59063
3.78359
3.93466
4.04129
4.1014
4.11333
4.07602
3.989
3.85259
3.66774
3.43605
3.15978
2.84209
2.48672
2.09808
1.68149
1.24278
0.788281
0.324978
-0.139775
-0.598433
-1.04317
-1.4661
-1.85952
-2.21601
-2.52864
-2.791
-2.9975
-3.14358
-3.22577
-3.24188
-3.1911
-3.07407
-2.89295
-2.65151
-2.35513
-2.01064
-1.62635
-1.21177
-0.777402
-0.334762
0.104244
0.527499
0.922984
1.27929
1.58586
1.83348
2.01464
2.12381
2.15775
2.11579
1.99983
1.81454
1.56719
1.26756
0.927532
0.560733
0.182094
-0.192419
-0.547362
-0.867683
-1.13975
-1.35205
-1.49588
-1.56562
-1.55929
-1.47882
-1.32987
-1.12184
-0.867348
-0.581738
-0.281977
0.0138108
0.286972
0.521403
0.703195
0.822025
0.871993
0.852075
0.766272
0.623196
0.435434
0.218363
-0.0112553
-0.236609
-0.440699
-0.610598
-0.736128
-0.811076
-0.833276
-0.805307
-0.732323
-0.622991
-0.487878
-0.338513
-0.186295
-0.0422391
0.0847209
0.1874
0.261081
0.303515
0.314857
0.297228
0.254732
0.192603
0.116859
0.0338076
-0.0503755
-0.130055
-0.200377
-0.2576
-0.299142
-0.323622
-0.330818
-0.321528
-0.297698
-0.261595
-0.216242
-0.164915
-0.110984
-0.0577034
-0.00806111
0.0352427
0.0702501
0.0953773
0.109697
0.112857
0.105066
0.0870627
0.0600434
0.0255709
-0.0144615
-0.0579768
-0.102776
-0.146641
-0.187412
-0.223067
-0.251791
-0.272034
-0.282572
-8.26712
-8.26354
-8.25676
-8.24832
-8.23648
-8.23708
-8.19771
-8.23148
-5.92422
-5.85567
-5.88873
-5.84737
-5.79562
-5.71473
-5.60669
-5.47032
-5.30528
-5.11033
-4.88551
-4.63094
-4.34736
-4.03575
-3.69744
-3.3341
-2.94769
-2.54046
-2.11495
-1.67396
-1.22055
-0.75804
-0.28994
0.179909
0.647537
1.10878
1.55938
1.99496
2.41114
2.80346
3.1676
3.49934
3.79464
4.04969
4.26094
4.42523
4.53977
4.60229
4.61089
4.56429
4.4622
4.30505
4.094
3.83086
3.51823
3.15968
2.75943
2.32247
1.85478
1.36293
0.854041
0.33593
-0.183159
-0.694788
-1.19022
-1.66064
-2.09748
-2.49249
-2.83797
-3.1268
-3.35283
-3.51105
-3.59768
-3.61033
-3.54818
-3.41209
-3.20463
-2.93013
-2.59472
-2.20612
-1.77374
-1.30827
-0.821547
-0.326453
0.163655
0.63523
1.07486
1.46985
1.80847
2.08053
2.27776
2.39413
2.42614
2.37328
2.23779
2.02513
1.74362
1.40436
1.02079
0.608283
0.183622
-0.235226
-0.631088
-0.987123
-1.28816
-1.5215
-1.67755
-1.75026
-1.73764
-1.64209
-1.47021
-1.2327
-0.943912
-0.621199
-0.28368
0.0478565
0.353263
0.614187
0.815111
0.944671
0.996534
0.969893
0.869607
0.705728
0.492744
0.248095
-0.00924178
-0.259964
-0.48608
-0.67288
-0.809343
-0.889003
-0.910178
-0.875171
-0.791111
-0.667662
-0.51672
-0.35115
-0.183629
-0.0260901
0.111715
0.222152
0.300318
0.344037
0.353749
0.33208
0.283667
0.214378
0.130864
0.0400157
-0.0514745
-0.137545
-0.213066
-0.274096
-0.317976
-0.343352
-0.350115
-0.339193
-0.312869
-0.273548
-0.224556
-0.16942
-0.111742
-0.0549836
-0.00229175
0.0434889
0.08035
0.10665
0.121464
0.124473
0.115937
0.0966751
0.0679746
0.0315177
-0.0107022
-0.0564966
-0.103559
-0.149574
-0.192293
-0.229615
-0.25966
-0.280825
-0.29184
-9.12956
-9.12784
-9.12447
-9.12045
-9.1147
-9.11586
-9.09633
-9.11636
-6.64442
-6.57211
-6.57033
-6.51175
-6.43523
-6.33146
-6.19947
-6.03729
-5.8444
-5.61975
-5.36341
-5.07552
-4.75674
-4.40804
-4.03078
-3.62666
-3.19774
-2.74641
-2.27543
-1.78786
-1.28701
-0.776523
-0.260295
0.257479
0.772418
1.27994
1.77534
2.2538
2.71049
3.14052
3.53913
3.90168
4.22376
4.5012
4.73012
4.90709
5.02913
5.09378
5.09895
5.04272
4.92531
4.74739
4.51023
4.21587
3.86721
3.46822
3.02362
2.53896
2.02088
1.47669
0.914259
0.342268
-0.230174
-0.793754
-1.33884
-1.85572
-2.33496
-2.76749
-3.14486
-3.45929
-3.70405
-3.87371
-3.96416
-3.97288
-3.89902
-3.74367
-3.50982
-3.20236
-2.82816
-2.39585
-1.91588
-1.40017
-0.86181
-0.31508
0.225247
0.744211
1.22704
1.65977
2.02954
2.3252
2.53776
2.6607
2.69029
2.62614
2.47092
2.23084
1.91528
1.53667
1.10997
0.652305
0.182287
-0.280184
-0.716177
-1.10712
-1.43633
-1.68994
-1.85756
-1.93272
-1.91338
-1.80248
-1.60755
-1.34063
-1.01778
-0.658274
-0.283502
0.0833958
0.420456
0.707244
0.926687
1.06639
1.11964
1.08586
0.970814
0.786024
0.547852
0.275898
-0.00871422
-0.284403
-0.531878
-0.734911
-0.881679
-0.965485
-0.984875
-0.942915
-0.847724
-0.710258
-0.543752
-0.362407
-0.180023
-0.00956059
0.138555
0.256263
0.33851
0.383218
0.391129
0.365371
0.311116
0.234849
0.143826
0.045497
-0.0529567
-0.145082
-0.225485
-0.290052
-0.336061
-0.362192
-0.368462
-0.356154
-0.327167
-0.284748
-0.232285
-0.173535
-0.112321
-0.0522954
0.00324108
0.0513437
0.0899094
0.117279
0.132528
0.135367
0.126108
0.10565
0.0753624
0.0370404
-0.0072275
-0.0551505
-0.104323
-0.152338
-0.196866
-0.235734
-0.267005
-0.289024
-0.300481
-9.9011
-9.9003
-9.89856
-9.89667
-9.89353
-9.89497
-9.8842
-9.89659
-7.30188
-7.22966
-7.20988
-7.13843
-7.04385
-6.9203
-6.76657
-6.58064
-6.362
-6.1097
-5.82371
-5.50416
-5.15175
-4.76743
-4.35258
-3.90902
-3.4389
-2.9448
-2.42969
-1.89687
-1.34996
-0.792848
-0.229869
0.334444
0.895324
1.44776
1.98663
2.50665
3.00259
3.46909
3.90101
4.29329
4.64116
4.94008
5.18588
5.37487
5.50391
5.57052
5.57251
5.50614
5.37338
5.17497
4.9122
4.58725
4.20334
3.76485
3.27695
2.74577
2.17862
1.58347
0.968981
0.344648
-0.279562
-0.893501
-1.48667
-2.04848
-2.56866
-3.03736
-3.44538
-3.78429
-4.04684
-4.22717
-4.32091
-4.32537
-4.23965
-4.06515
-3.80524
-3.46537
-3.05313
-2.57803
-2.05158
-1.48685
-0.898221
-0.301272
0.287821
0.85272
1.37734
1.84649
2.24621
2.56444
2.79146
2.92037
2.94742
2.87156
2.69666
2.42951
2.08049
1.66332
1.19445
0.692728
0.178554
-0.326325
-0.801223
-1.22589
-1.58221
-1.85517
-2.03362
-2.11074
-2.08441
-1.95816
-1.74044
-1.44459
-1.08829
-0.692829
-0.281684
0.119691
0.48747
0.799236
1.03642
1.18563
1.23981
1.19862
1.06878
0.863261
0.600322
0.301621
-0.00949109
-0.309422
-0.577403
-0.795874
-0.952259
-1.03968
-1.05693
-1.00791
-0.901687
-0.750497
-0.568879
-0.372298
-0.175712
0.00704965
0.16488
0.289346
0.375277
0.420712
0.42671
0.39688
0.336935
0.253941
0.155737
0.0503001
-0.054731
-0.152544
-0.237497
-0.305325
-0.35326
-0.380022
-0.385748
-0.371849
-0.340528
-0.295166
-0.239422
-0.177273
-0.112747
-0.0496739
0.00850433
0.0587565
0.0988872
0.127227
0.142856
0.145514
0.135563
0.113977
0.0822012
0.0421392
-0.00403381
-0.0539318
-0.105059
-0.154924
-0.201121
-0.241416
-0.273816
-0.296623
-0.308487
-10.5871
-10.5868
-10.5859
-10.5851
-10.5831
-10.5845
-10.5779
-10.5859
-7.90948