/*--------------------------------*- C++ -*----------------------------------*\
  =========                 |
  \\      /  F ield         | OpenFOAM: The Open Source CFD Toolbox
   \\    /   O peration     | Website:  https://openfoam.org
    \\  /    A nd           | Version:  12
     \\/     M anipulation  |
\*---------------------------------------------------------------------------*/
FoamFile
{
    format      ascii;
    class       volVectorField;
    location    "7.28";
    object      U;
}
// * * * * * * * * * * * * * * * * * * * * * * * * * * * * * * * * * * * * * //

dimensions      [0 1 -1 0 0 0 0];

internalField   nonuniform List<vector> 
3829
(
(-6.27469e-06 1.12407e-05 0)
(-1.90044e-05 1.03208e-05 0)
(-3.18959e-05 1.07655e-05 0)
(-4.50735e-05 1.14472e-05 0)
(-5.86039e-05 1.2352e-05 0)
(-7.25357e-05 1.34689e-05 0)
(-8.69149e-05 1.47815e-05 0)
(-0.00010181 1.62608e-05 0)
(-0.000117238 1.78901e-05 0)
(-0.000133244 1.96337e-05 0)
(-0.000149857 2.14438e-05 0)
(-0.0001671 2.32859e-05 0)
(-0.000184943 2.51153e-05 0)
(-0.000203409 2.68736e-05 0)
(-0.000222457 2.85331e-05 0)
(-0.000242016 3.0027e-05 0)
(-0.000262052 3.13137e-05 0)
(-0.000282478 3.23363e-05 0)
(-0.000303197 3.30588e-05 0)
(-0.000324095 3.34387e-05 0)
(-0.000345047 3.34412e-05 0)
(-0.000365912 3.30366e-05 0)
(-0.00038654 3.22017e-05 0)
(-0.000406768 3.09236e-05 0)
(-0.000426469 2.91887e-05 0)
(-0.000445419 2.70034e-05 0)
(-0.000463392 2.43707e-05 0)
(-0.000480263 2.12963e-05 0)
(-0.000495887 1.7809e-05 0)
(-0.000510097 1.39314e-05 0)
(-0.000522799 9.69644e-06 0)
(-0.000533731 5.15861e-06 0)
(-0.000542736 3.65219e-07 0)
(-0.000549868 -4.66241e-06 0)
(-0.000554945 -9.81636e-06 0)
(-0.000557876 -1.50704e-05 0)
(-0.000558684 -2.03321e-05 0)
(-0.000557129 -2.55537e-05 0)
(-0.000553179 -3.07381e-05 0)
(-0.000546947 -3.58338e-05 0)
(-0.000538568 -4.07903e-05 0)
(-0.000528123 -4.55447e-05 0)
(-0.000515586 -5.00395e-05 0)
(-0.000501061 -5.42213e-05 0)
(-0.000484639 -5.80576e-05 0)
(-0.000466446 -6.14996e-05 0)
(-0.00044661 -6.45143e-05 0)
(-0.000425289 -6.70705e-05 0)
(-0.000402645 -6.9142e-05 0)
(-0.000378856 -7.0706e-05 0)
(-0.000354136 -7.17547e-05 0)
(-0.000328632 -7.22582e-05 0)
(-0.000302671 -7.22384e-05 0)
(-0.000276336 -7.165e-05 0)
(-0.000249906 -7.05558e-05 0)
(-0.0002236 -6.89012e-05 0)
(-0.00019773 -6.67357e-05 0)
(-0.000172401 -6.40523e-05 0)
(-0.000147902 -6.09525e-05 0)
(-0.000124553 -5.73835e-05 0)
(-0.000102335 -5.33996e-05 0)
(-8.16764e-05 -4.9041e-05 0)
(-6.25848e-05 -4.43643e-05 0)
(-4.53428e-05 -3.93935e-05 0)
(-3.00779e-05 -3.42587e-05 0)
(-1.70236e-05 -2.89689e-05 0)
(-6.04156e-06 -2.35477e-05 0)
(2.43203e-06 -1.814e-05 0)
(8.40079e-06 -1.26742e-05 0)
(1.21376e-05 -7.31199e-06 0)
(1.36939e-05 -2.05519e-06 0)
(1.27556e-05 2.8964e-06 0)
(9.33288e-06 7.62305e-06 0)
(3.62661e-06 1.19501e-05 0)
(-4.29329e-06 1.59669e-05 0)
(-1.39433e-05 1.94992e-05 0)
(-2.51881e-05 2.25433e-05 0)
(-3.79398e-05 2.49715e-05 0)
(-5.17639e-05 2.68211e-05 0)
(-6.63795e-05 2.80202e-05 0)
(-8.18033e-05 2.86043e-05 0)
(-9.72471e-05 2.85331e-05 0)
(-0.000112608 2.77981e-05 0)
(-0.000127584 2.64522e-05 0)
(-0.000141715 2.4498e-05 0)
(-0.000154716 2.19753e-05 0)
(-0.000166226 1.89343e-05 0)
(-0.000175986 1.54379e-05 0)
(-0.000183683 1.15707e-05 0)
(-0.000189095 7.39141e-06 0)
(-0.000192063 3.01804e-06 0)
(-0.000192269 -1.4631e-06 0)
(-0.000189565 -5.94058e-06 0)
(-0.000184005 -1.03208e-05 0)
(-0.000175726 -1.45117e-05 0)
(-0.000164873 -1.8395e-05 0)
(-0.0001516 -2.18885e-05 0)
(-0.000136216 -2.48877e-05 0)
(-0.000118986 -2.73032e-05 0)
(-0.000100183 -2.90705e-05 0)
(-8.03548e-05 -3.01458e-05 0)
(-5.99787e-05 -3.04836e-05 0)
(-3.93508e-05 -3.0062e-05 0)
(-1.91586e-05 -2.89396e-05 0)
(5.57256e-08 -2.70851e-05 0)
(1.79627e-05 -2.45775e-05 0)
(3.40162e-05 -2.14919e-05 0)
(4.77986e-05 -1.79159e-05 0)
(5.89651e-05 -1.39671e-05 0)
(6.72318e-05 -9.75896e-06 0)
(7.24279e-05 -5.43968e-06 0)
(7.44556e-05 -1.14287e-06 0)
(7.32509e-05 2.93015e-06 0)
(6.88791e-05 6.68635e-06 0)
(6.17467e-05 1.00288e-05 0)
(5.2241e-05 1.28033e-05 0)
(4.0705e-05 1.49326e-05 0)
(2.77131e-05 1.63293e-05 0)
(1.38404e-05 1.69601e-05 0)
(-2.8149e-07 1.68125e-05 0)
(-1.40208e-05 1.59043e-05 0)
(-2.67583e-05 1.42988e-05 0)
(-3.79121e-05 1.20816e-05 0)
(-4.69987e-05 9.37106e-06 0)
(-5.35918e-05 6.31024e-06 0)
(-5.74587e-05 3.05163e-06 0)
(-5.83433e-05 -2.21712e-07 0)
(-5.62387e-05 -3.35157e-06 0)
(-5.13749e-05 -6.1611e-06 0)
(-4.40905e-05 -8.55262e-06 0)
(-3.48489e-05 -1.0345e-05 0)
(-2.4197e-05 -1.15034e-05 0)
(-1.27536e-05 -1.19207e-05 0)
(-1.15265e-06 -1.1647e-05 0)
(9.84676e-06 -1.06567e-05 0)
(1.95737e-05 -9.08201e-06 0)
(2.75006e-05 -7.00724e-06 0)
(3.31805e-05 -4.60124e-06 0)
(3.63211e-05 -2.00319e-06 0)
(3.67379e-05 5.71083e-07 0)
(3.44392e-05 2.98472e-06 0)
(2.97616e-05 5.04356e-06 0)
(2.31032e-05 6.65357e-06 0)
(1.4999e-05 7.69638e-06 0)
(6.10451e-06 8.10305e-06 0)
(-2.97145e-06 7.87745e-06 0)
(-1.15005e-05 7.03991e-06 0)
(-1.87346e-05 5.70394e-06 0)
(-2.42086e-05 3.95074e-06 0)
(-2.75313e-05 1.93914e-06 0)
(-2.84037e-05 -1.64664e-07 0)
(-2.67268e-05 -2.2122e-06 0)
(-2.26912e-05 -4.06023e-06 0)
(-1.65914e-05 -5.56661e-06 0)
(-8.87111e-06 -6.65939e-06 0)
(2.6402e-08 -7.22161e-06 0)
(9.3404e-06 -7.27665e-06 0)
(1.82941e-05 -6.79814e-06 0)
(2.63951e-05 -5.86848e-06 0)
(3.30621e-05 -4.53983e-06 0)
(3.78652e-05 -2.93445e-06 0)
(4.04721e-05 -1.16724e-06 0)
(4.06627e-05 6.2987e-07 0)
(3.84286e-05 2.34932e-06 0)
(3.3961e-05 3.89299e-06 0)
(2.75305e-05 5.15653e-06 0)
(1.95411e-05 6.09066e-06 0)
(1.04907e-05 6.63371e-06 0)
(7.91117e-07 6.78571e-06 0)
(-8.94265e-06 6.56772e-06 0)
(-1.80844e-05 5.99855e-06 0)
(-2.62425e-05 5.14876e-06 0)
(-3.30232e-05 4.07577e-06 0)
(-3.81456e-05 2.86254e-06 0)
(-4.14009e-05 1.58548e-06 0)
(-4.27345e-05 3.18763e-07 0)
(-4.21684e-05 -8.59174e-07 0)
(-3.98502e-05 -1.90825e-06 0)
(-3.59985e-05 -2.76693e-06 0)
(-3.0902e-05 -3.42223e-06 0)
(-2.49014e-05 -3.84648e-06 0)
(-1.83399e-05 -4.04505e-06 0)
(-1.15811e-05 -4.03371e-06 0)
(-4.95591e-06 -3.82707e-06 0)
(1.24741e-06 -3.47239e-06 0)
(6.78039e-06 -2.99358e-06 0)
(1.14607e-05 -2.43955e-06 0)
(1.51609e-05 -1.8414e-06 0)
(1.78175e-05 -1.24581e-06 0)
(1.94634e-05 -6.66561e-07 0)
(2.01236e-05 -1.56969e-07 0)
(1.99086e-05 3.06441e-07 0)
(1.89516e-05 6.69345e-07 0)
(1.73556e-05 9.55879e-07 0)
(1.52815e-05 1.17776e-06 0)
(1.28714e-05 1.3244e-06 0)
(1.021e-05 1.41177e-06 0)
(7.38759e-06 1.46936e-06 0)
(4.47485e-06 1.49509e-06 0)
(1.49758e-06 1.50529e-06 0)
(-4.28971e-06 0.000229731 0)
(-1.28263e-05 0.000231022 0)
(-2.16669e-05 0.000232595 0)
(-3.09285e-05 0.00023494 0)
(-4.07824e-05 0.000238029 0)
(-5.13626e-05 0.000241808 0)
(-6.28618e-05 0.000246189 0)
(-7.53354e-05 0.000251073 0)
(-8.88397e-05 0.000256347 0)
(-0.000103667 0.000261848 0)
(-0.00011981 0.00026742 0)
(-0.000137242 0.000272902 0)
(-0.000156103 0.000278088 0)
(-0.000176253 0.000282787 0)
(-0.000197692 0.000286811 0)
(-0.000220434 0.000289953 0)
(-0.000244339 0.000292035 0)
(-0.000269252 0.000292866 0)
(-0.000294947 0.000292302 0)
(-0.000321283 0.000290173 0)
(-0.000348021 0.000286377 0)
(-0.000374924 0.000280813 0)
(-0.000401708 0.00027341 0)
(-0.000428137 0.000264148 0)
(-0.000453946 0.000252995 0)
(-0.000478796 0.000240029 0)
(-0.000502469 0.00022531 0)
(-0.000524672 0.000208918 0)
(-0.000545156 0.000191018 0)
(-0.00056374 0.000171751 0)
(-0.000580139 0.000151327 0)
(-0.000594019 0.000129891 0)
(-0.000605457 0.000107711 0)
(-0.000614148 8.49505e-05 0)
(-0.000619898 6.18362e-05 0)
(-0.000622751 3.85605e-05 0)
(-0.000622621 1.53082e-05 0)
(-0.000619867 -7.64184e-06 0)
(-0.000614447 -3.00171e-05 0)
(-0.000606171 -5.16412e-05 0)
(-0.000595126 -7.23899e-05 0)
(-0.000581376 -9.20757e-05 0)
(-0.000564971 -0.000110561 0)
(-0.000546175 -0.000127717 0)
(-0.000525122 -0.00014342 0)
(-0.00050195 -0.000157558 0)
(-0.000476894 -0.00017005 0)
(-0.00045016 -0.000180806 0)
(-0.000421965 -0.000189782 0)
(-0.000392587 -0.000196918 0)
(-0.000362209 -0.000202186 0)
(-0.000331134 -0.000205553 0)
(-0.000299612 -0.000207041 0)
(-0.000267927 -0.000206666 0)
(-0.000236317 -0.000204434 0)
(-0.000204921 -0.000200375 0)
(-0.000174286 -0.00019468 0)
(-0.000144754 -0.0001872 0)
(-0.000116388 -0.000178262 0)
(-8.92694e-05 -0.000167776 0)
(-6.381e-05 -0.000156005 0)
(-4.04285e-05 -0.000143002 0)
(-1.9046e-05 -0.000129014 0)
(-2.53911e-07 -0.000114072 0)
(1.59004e-05 -9.84574e-05 0)
(2.96739e-05 -8.22766e-05 0)
(4.06271e-05 -6.57432e-05 0)
(4.87499e-05 -4.90824e-05 0)
(5.40016e-05 -3.24068e-05 0)
(5.63464e-05 -1.60243e-05 0)
(5.57063e-05 -9.03021e-08 0)
(5.21264e-05 1.50762e-05 0)
(4.57471e-05 2.94051e-05 0)
(3.67947e-05 4.26331e-05 0)
(2.53725e-05 5.4632e-05 0)
(1.16052e-05 6.524e-05 0)
(-4.17016e-06 7.42064e-05 0)
(-2.16985e-05 8.14346e-05 0)
(-4.03174e-05 8.68384e-05 0)
(-5.97576e-05 9.0211e-05 0)
(-7.99134e-05 9.16649e-05 0)
(-0.000100158 9.10735e-05 0)
(-0.000120052 8.8481e-05 0)
(-0.000139259 8.39377e-05 0)
(-0.000157374 7.75206e-05 0)
(-0.000173955 6.93694e-05 0)
(-0.000188576 5.96277e-05 0)
(-0.000200873 4.84989e-05 0)
(-0.000210566 3.62281e-05 0)
(-0.000217342 2.30521e-05 0)
(-0.000220971 9.29222e-06 0)
(-0.000221183 -4.78509e-06 0)
(-0.000217826 -1.88174e-05 0)
(-0.000211038 -3.25041e-05 0)
(-0.000200901 -4.5542e-05 0)
(-0.000187612 -5.75957e-05 0)
(-0.000171386 -6.83624e-05 0)
(-0.00015253 -7.75513e-05 0)
(-0.000131446 -8.48971e-05 0)
(-0.000108557 -9.02193e-05 0)
(-8.44765e-05 -9.3362e-05 0)
(-5.97499e-05 -9.4189e-05 0)
(-3.49742e-05 -9.27063e-05 0)
(-1.08084e-05 -8.89458e-05 0)
(1.21573e-05 -8.29887e-05 0)
(3.3306e-05 -7.49981e-05 0)
(5.2083e-05 -6.52316e-05 0)
(6.7974e-05 -5.39662e-05 0)
(8.0586e-05 -4.15751e-05 0)
(8.95759e-05 -2.84427e-05 0)
(9.4746e-05 -1.50164e-05 0)
(9.58893e-05 -1.7418e-06 0)
(9.30704e-05 1.09076e-05 0)
(8.66447e-05 2.25434e-05 0)
(7.68825e-05 3.27845e-05 0)
(6.42365e-05 4.12371e-05 0)
(4.92333e-05 4.76254e-05 0)
(3.25644e-05 5.17238e-05 0)
(1.49896e-05 5.34247e-05 0)
(-2.73796e-06 5.2687e-05 0)
(-1.98136e-05 4.96017e-05 0)
(-3.54718e-05 4.43568e-05 0)
(-4.9018e-05 3.72443e-05 0)
(-5.98579e-05 2.8617e-05 0)
(-6.75126e-05 1.89461e-05 0)
(-7.16845e-05 8.70595e-06 0)
(-7.21297e-05 -1.53777e-06 0)
(-6.88817e-05 -1.1284e-05 0)
(-6.23201e-05 -2.00235e-05 0)
(-5.27965e-05 -2.73467e-05 0)
(-4.09213e-05 -3.2816e-05 0)
(-2.74072e-05 -3.62411e-05 0)
(-1.30499e-05 -3.73664e-05 0)
(1.34846e-06 -3.62947e-05 0)
(1.4873e-05 -3.30541e-05 0)
(2.66466e-05 -2.79582e-05 0)
(3.60882e-05 -2.13729e-05 0)
(4.26624e-05 -1.37463e-05 0)
(4.6011e-05 -5.64936e-06 0)
(4.59762e-05 2.41351e-06 0)
(4.26297e-05 9.85526e-06 0)
(3.64043e-05 1.62389e-05 0)
(2.78529e-05 2.11326e-05 0)
(1.75671e-05 2.42413e-05 0)
(6.42615e-06 2.53755e-05 0)
(-4.80329e-06 2.45044e-05 0)
(-1.52087e-05 2.18182e-05 0)
(-2.39467e-05 1.75438e-05 0)
(-3.04895e-05 1.20595e-05 0)
(-3.43197e-05 5.811e-06 0)
(-3.51738e-05 -7.21186e-07 0)
(-3.30076e-05 -7.00791e-06 0)
(-2.80385e-05 -1.26646e-05 0)
(-2.06881e-05 -1.72377e-05 0)
(-1.14516e-05 -2.04879e-05 0)
(-9.27068e-07 -2.21463e-05 0)
(9.98095e-06 -2.21984e-05 0)
(2.04088e-05 -2.06672e-05 0)
(2.97496e-05 -1.7745e-05 0)
(3.73718e-05 -1.36558e-05 0)
(4.27632e-05 -8.75714e-06 0)
(4.55899e-05 -3.3913e-06 0)
(4.56544e-05 2.04489e-06 0)
(4.30081e-05 7.23382e-06 0)
(3.78563e-05 1.18387e-05 0)
(3.05456e-05 1.55876e-05 0)
(2.15455e-05 1.83064e-05 0)
(1.14244e-05 1.9871e-05 0)
(7.06178e-07 2.0256e-05 0)
(-9.97061e-06 1.95218e-05 0)
(-1.99184e-05 1.77685e-05 0)
(-2.87001e-05 1.51854e-05 0)
(-3.59124e-05 1.19517e-05 0)
(-4.12569e-05 8.31938e-06 0)
(-4.45429e-05 4.51532e-06 0)
(-4.57198e-05 7.68643e-07 0)
(-4.48568e-05 -2.72051e-06 0)
(-4.2127e-05 -5.79371e-06 0)
(-3.77846e-05 -8.30651e-06 0)
(-3.21613e-05 -1.01931e-05 0)
(-2.56199e-05 -1.14024e-05 0)
(-1.85538e-05 -1.1948e-05 0)
(-1.13363e-05 -1.1866e-05 0)
(-4.33156e-06 -1.12299e-05 0)
(2.16402e-06 -1.01456e-05 0)
(7.90337e-06 -8.7171e-06 0)
(1.2699e-05 -7.06481e-06 0)
(1.64292e-05 -5.30268e-06 0)
(1.90513e-05 -3.53622e-06 0)
(2.05938e-05 -1.86002e-06 0)
(2.11218e-05 -3.53223e-07 0)
(2.07466e-05 9.60537e-07 0)
(1.96023e-05 2.0241e-06 0)
(1.7859e-05 2.84787e-06 0)
(1.5642e-05 3.45864e-06 0)
(1.30974e-05 3.86469e-06 0)
(1.03482e-05 4.11568e-06 0)
(7.46596e-06 4.25491e-06 0)
(4.508e-06 4.31719e-06 0)
(1.50686e-06 4.34275e-06 0)
(2.99223e-07 0.000154903 0)
(7.32227e-07 0.000155044 0)
(6.01894e-07 0.000159885 0)
(-4.43157e-07 0.000167174 0)
(-2.81698e-06 0.000176805 0)
(-6.97144e-06 0.000188656 0)
(-1.32897e-05 0.000202525 0)
(-2.19572e-05 0.000218177 0)
(-3.34218e-05 0.000235305 0)
(-4.80101e-05 0.000253532 0)
(-6.56248e-05 0.000272489 0)
(-8.65931e-05 0.000291691 0)
(-0.000111023 0.000310684 0)
(-0.000138675 0.000328978 0)
(-0.000169549 0.000346067 0)
(-0.00020343 0.00036152 0)
(-0.00024006 0.000374794 0)
(-0.000279036 0.000385428 0)
(-0.000320051 0.000393021 0)
(-0.000362627 0.000397239 0)
(-0.000406125 0.000397782 0)
(-0.000450177 0.000394456 0)
(-0.000494054 0.000387096 0)
(-0.000537324 0.000375691 0)
(-0.000579251 0.000360223 0)
(-0.000619052 0.000340829 0)
(-0.000656509 0.000317736 0)
(-0.000690902 0.000291193 0)
(-0.000721769 0.00026149 0)
(-0.000748741 0.000229059 0)
(-0.000771755 0.000194379 0)
(-0.000790298 0.000157812 0)
(-0.00080421 0.000119909 0)
(-0.000813819 8.11568e-05 0)
(-0.000818858 4.20025e-05 0)
(-0.000819569 2.99849e-06 0)
(-0.000815575 -3.55773e-05 0)
(-0.000806319 -7.34197e-05 0)
(-0.000792409 -0.000110199 0)
(-0.00077478 -0.000145585 0)
(-0.000753558 -0.000179261 0)
(-0.000728803 -0.000210926 0)
(-0.000700837 -0.000240345 0)
(-0.000669896 -0.000267304 0)
(-0.000636209 -0.000291606 0)
(-0.000600135 -0.0003131 0)
(-0.000561943 -0.000331674 0)
(-0.000522001 -0.000347193 0)
(-0.00048063 -0.000359588 0)
(-0.000438098 -0.000368774 0)
(-0.000394758 -0.000374765 0)
(-0.000351003 -0.000377552 0)
(-0.000307359 -0.000377147 0)
(-0.000263847 -0.000373604 0)
(-0.000220806 -0.000366952 0)
(-0.000179215 -0.000357319 0)
(-0.000138629 -0.000344829 0)
(-9.97203e-05 -0.000329579 0)
(-6.29972e-05 -0.000311748 0)
(-2.84244e-05 -0.00029155 0)
(3.40119e-06 -0.000269167 0)
(3.21749e-05 -0.000244844 0)
(5.80326e-05 -0.000218768 0)
(8.05662e-05 -0.00019136 0)
(9.93853e-05 -0.00016273 0)
(0.000114643 -0.000133337 0)
(0.000125996 -0.000103434 0)
(0.000133506 -7.34334e-05 0)
(0.000136927 -4.36498e-05 0)
(0.00013636 -1.45142e-05 0)
(0.000131858 1.36157e-05 0)
(0.000123539 4.04199e-05 0)
(0.000111667 6.55323e-05 0)
(9.62495e-05 8.8615e-05 0)
(7.77873e-05 0.000109332 0)
(5.634e-05 0.000127398 0)
(3.23099e-05 0.000142597 0)
(6.4014e-06 0.000154635 0)
(-2.12644e-05 0.00016337 0)
(-4.97413e-05 0.000168573 0)
(-7.87567e-05 0.000170204 0)
(-0.000107769 0.000168265 0)
(-0.00013607 0.000162739 0)
(-0.000163266 0.000153741 0)
(-0.000188642 0.000141432 0)
(-0.00021172 0.000126075 0)
(-0.000231981 0.000107936 0)
(-0.000248884 8.74093e-05 0)
(-0.000262065 6.49018e-05 0)
(-0.000271126 4.09173e-05 0)
(-0.000275871 1.5948e-05 0)
(-0.000275938 -9.43642e-06 0)
(-0.000271137 -3.46846e-05 0)
(-0.00026176 -5.92313e-05 0)
(-0.000247907 -8.24882e-05 0)
(-0.000229785 -0.000103872 0)
(-0.000207733 -0.000122849 0)
(-0.000182214 -0.000138916 0)
(-0.000153842 -0.000151625 0)
(-0.000123234 -0.000160646 0)
(-9.10893e-05 -0.000165726 0)
(-5.83194e-05 -0.000166676 0)
(-2.56882e-05 -0.000163461 0)
(5.94029e-06 -0.000156173 0)
(3.57118e-05 -0.000144991 0)
(6.28622e-05 -0.00013025 0)
(8.66057e-05 -0.000112387 0)
(0.000106287 -9.19614e-05 0)
(0.000121362 -6.95939e-05 0)
(0.000131429 -4.60191e-05 0)
(0.000136244 -2.19937e-05 0)
(0.00013571 1.6611e-06 0)
(0.000129974 2.41558e-05 0)
(0.000119411 4.47018e-05 0)
(0.000104453 6.25976e-05 0)
(8.57736e-05 7.72197e-05 0)
(6.41514e-05 8.80462e-05 0)
(4.05646e-05 9.47338e-05 0)
(1.60127e-05 9.70883e-05 0)
(-8.44199e-06 9.50575e-05 0)
(-3.16858e-05 8.8867e-05 0)
(-5.27024e-05 7.88342e-05 0)
(-7.06017e-05 6.55308e-05 0)
(-8.45812e-05 4.96258e-05 0)
(-9.40337e-05 3.19593e-05 0)
(-9.86005e-05 1.34051e-05 0)
(-9.80428e-05 -5.06541e-06 0)
(-9.25396e-05 -2.25176e-05 0)
(-8.25698e-05 -3.80546e-05 0)
(-6.86658e-05 -5.08549e-05 0)
(-5.1758e-05 -6.033e-05 0)
(-3.27779e-05 -6.59569e-05 0)
(-1.29061e-05 -6.75442e-05 0)
(6.69337e-06 -6.50124e-05 0)
(2.48918e-05 -5.87731e-05 0)
(4.04369e-05 -4.92002e-05 0)
(5.26098e-05 -3.70564e-05 0)
(6.06574e-05 -2.31275e-05 0)
(6.4246e-05 -8.46705e-06 0)
(6.32336e-05 5.98527e-06 0)
(5.78041e-05 1.92133e-05 0)
(4.86105e-05 3.04417e-05 0)
(3.63405e-05 3.89005e-05 0)
(2.19546e-05 4.40699e-05 0)
(6.56531e-06 4.57585e-05 0)
(-8.6102e-06 4.38207e-05 0)
(-2.24419e-05 3.87162e-05 0)
(-3.39147e-05 3.08428e-05 0)
(-4.22647e-05 2.09021e-05 0)
(-4.69813e-05 9.72552e-06 0)
(-4.76963e-05 -1.8295e-06 0)
(-4.45028e-05 -1.28849e-05 0)
(-3.7749e-05 -2.27085e-05 0)
(-2.79846e-05 -3.05492e-05 0)
(-1.59477e-05 -3.59621e-05 0)
(-2.42639e-06 -3.86311e-05 0)
(1.13951e-05 -3.84584e-05 0)
(2.44579e-05 -3.55973e-05 0)
(3.60024e-05 -3.03404e-05 0)
(4.52475e-05 -2.31679e-05 0)
(5.16284e-05 -1.46456e-05 0)
(5.47948e-05 -5.41234e-06 0)
(5.45926e-05 3.87515e-06 0)
(5.11274e-05 1.26421e-05 0)
(4.46746e-05 2.03391e-05 0)
(3.57357e-05 2.65427e-05 0)
(2.49192e-05 3.09431e-05 0)
(1.29185e-05 3.33914e-05 0)
(3.79023e-07 3.38533e-05 0)
(-1.19376e-05 3.24361e-05 0)
(-2.32585e-05 2.93474e-05 0)
(-3.31088e-05 2.48933e-05 0)
(-4.10395e-05 1.941e-05 0)
(-4.67316e-05 1.33134e-05 0)
(-5.00221e-05 6.97081e-06 0)
(-5.09034e-05 7.7855e-07 0)
(-4.94942e-05 -4.94982e-06 0)
(-4.60169e-05 -9.94061e-06 0)
(-4.08018e-05 -1.39958e-05 0)
(-3.42465e-05 -1.69839e-05 0)
(-2.67782e-05 -1.88568e-05 0)
(-1.88352e-05 -1.96266e-05 0)
(-1.08396e-05 -1.93811e-05 0)
(-3.19037e-06 -1.82444e-05 0)
(3.79956e-06 -1.63801e-05 0)
(9.87568e-06 -1.39784e-05 0)
(1.48532e-05 -1.1233e-05 0)
(1.86273e-05 -8.33648e-06 0)
(2.11621e-05 -5.45841e-06 0)
(2.25207e-05 -2.74734e-06 0)
(2.28026e-05 -3.17009e-07 0)
(2.21416e-05 1.75875e-06 0)
(2.07031e-05 3.44182e-06 0)
(1.86731e-05 4.72575e-06 0)
(1.62056e-05 5.63678e-06 0)
(1.3461e-05 6.23984e-06 0)
(1.05566e-05 6.59183e-06 0)
(7.56527e-06 6.76973e-06 0)
(4.55078e-06 6.84065e-06 0)
(1.5192e-06 6.86351e-06 0)
(1.36111e-05 0.000248309 0)
(4.07824e-05 0.000254644 0)
(6.69095e-05 0.000267463 0)
(9.10424e-05 0.000286668 0)
(0.000112271 0.00031205 0)
(0.00012971 0.000343149 0)
(0.000142478 0.000379402 0)
(0.000149921 0.000419814 0)
(0.000151122 0.00046364 0)
(0.000145544 0.000509787 0)
(0.000132728 0.000557202 0)
(0.000112281 0.000604561 0)
(8.42331e-05 0.000650722 0)
(4.86525e-05 0.000694377 0)
(6.08558e-06 0.000734369 0)
(-4.34957e-05 0.00076955 0)
(-9.99052e-05 0.000798889 0)
(-0.000161918 0.00082159 0)
(-0.000228397 0.000836774 0)
(-0.000298421 0.00084366 0)
(-0.000370798 0.000841921 0)
(-0.000444433 0.000831276 0)
(-0.000517901 0.00081159 0)
(-0.000590115 0.000783081 0)
(-0.000659949 0.000746099 0)
(-0.000725732 0.00070102 0)
(-0.000786725 0.000648944 0)
(-0.000842343 0.000590563 0)
(-0.000891482 0.000527047 0)
(-0.000933109 0.000459233 0)
(-0.000967464 0.000388549 0)
(-0.000994028 0.000315879 0)
(-0.00101238 0.000242199 0)
(-0.00102297 0.000168524 0)
(-0.00102547 9.54438e-05 0)
(-0.00102091 2.3856e-05 0)
(-0.00101049 -4.53672e-05 0)
(-0.00099431 -0.000111653 0)
(-0.000972386 -0.000174586 0)
(-0.000944819 -0.000233838 0)
(-0.000911942 -0.000289012 0)
(-0.000874275 -0.000339866 0)
(-0.000832362 -0.000386161 0)
(-0.000786699 -0.000427714 0)
(-0.00073776 -0.000464379 0)
(-0.000686108 -0.000496044 0)
(-0.000632097 -0.000522713 0)
(-0.000576143 -0.000544227 0)
(-0.000518708 -0.000560688 0)
(-0.000460425 -0.000572089 0)
(-0.000401802 -0.000578449 0)
(-0.000343134 -0.000579703 0)
(-0.000284937 -0.000576272 0)
(-0.000227519 -0.000567857 0)
(-0.000171396 -0.00055497 0)
(-0.000117133 -0.000537617 0)
(-6.50027e-05 -0.000516077 0)
(-1.55577e-05 -0.000490488 0)
(3.07004e-05 -0.000461275 0)
(7.37389e-05 -0.000428525 0)
(0.000113087 -0.000392654 0)
(0.000148379 -0.000354098 0)
(0.000179137 -0.000313012 0)
(0.000205142 -0.000270131 0)
(0.000226228 -0.000225632 0)
(0.000242217 -0.000180183 0)
(0.000252933 -0.000134224 0)
(0.000258254 -8.83329e-05 0)
(0.000258168 -4.29952e-05 0)
(0.000252556 1.18371e-06 0)
(0.000241787 4.37458e-05 0)
(0.000226009 8.40909e-05 0)
(0.000205377 0.000121718 0)
(0.00018022 0.000156043 0)
(0.000150953 0.000186705 0)
(0.000118127 0.000213089 0)
(8.20851e-05 0.000235013 0)
(4.34074e-05 0.000252013 0)
(2.93301e-06 0.000263873 0)
(-3.86785e-05 0.000270348 0)
(-8.062e-05 0.000271294 0)
(-0.000122205 0.000266766 0)
(-0.000162659 0.000256779 0)
(-0.000201157 0.000241545 0)
(-0.000236884 0.00022133 0)
(-0.000269158 0.000196502 0)
(-0.000297263 0.000167565 0)
(-0.000320494 0.000135055 0)
(-0.000338342 9.96288e-05 0)
(-0.000350361 6.20048e-05 0)
(-0.000356248 2.304e-05 0)
(-0.000355676 -1.63197e-05 0)
(-0.000348594 -5.5306e-05 0)
(-0.000335151 -9.30524e-05 0)
(-0.000315501 -0.000128638 0)
(-0.000290065 -0.000161206 0)
(-0.000259353 -0.000189872 0)
(-0.000223971 -0.00021394 0)
(-0.000184813 -0.000232732 0)
(-0.000142846 -0.000245761 0)
(-9.90564e-05 -0.000252628 0)
(-5.45405e-05 -0.000253149 0)
(-1.05559e-05 -0.00024724 0)
(3.17562e-05 -0.000235095 0)
(7.1278e-05 -0.000217018 0)
(0.000106862 -0.00019356 0)
(0.000137508 -0.000165392 0)
(0.00016238 -0.000133401 0)
(0.000180799 -9.86232e-05 0)
(0.000192228 -6.21647e-05 0)
(0.000196403 -2.52622e-05 0)
(0.000193175 1.0859e-05 0)
(0.000182789 4.50211e-05 0)
(0.000165891 7.60689e-05 0)
(0.000143179 0.000102825 0)
(0.000115556 0.000124394 0)
(8.41899e-05 0.00014001 0)
(5.04713e-05 0.000149158 0)
(1.57502e-05 0.000151565 0)
(-1.84067e-05 0.000147275 0)
(-5.05056e-05 0.000136591 0)
(-7.91769e-05 0.000120115 0)
(-0.000103136 9.86663e-05 0)
(-0.000121376 7.34028e-05 0)
(-0.000133151 4.56181e-05 0)
(-0.000138033 1.66913e-05 0)
(-0.000135782 -1.18521e-05 0)
(-0.000126689 -3.86312e-05 0)
(-0.000111433 -6.22205e-05 0)
(-9.09844e-05 -8.14736e-05 0)
(-6.65534e-05 -9.53502e-05 0)
(-3.95614e-05 -0.000103225 0)
(-1.15841e-05 -0.000104791 0)
(1.55874e-05 -0.000100051 0)
(4.03335e-05 -8.95583e-05 0)
(6.12524e-05 -7.40835e-05 0)
(7.71889e-05 -5.47635e-05 0)
(8.7232e-05 -3.29356e-05 0)
(9.08951e-05 -1.0149e-05 0)
(8.81837e-05 1.20497e-05 0)
(7.95128e-05 3.22318e-05 0)
(6.57771e-05 4.91037e-05 0)
(4.79773e-05 6.1513e-05 0)
(2.7611e-05 6.88597e-05 0)
(6.1283e-06 7.07318e-05 0)
(-1.47616e-05 6.71848e-05 0)
(-3.3407e-05 5.87975e-05 0)
(-4.86703e-05 4.63014e-05 0)
(-5.94799e-05 3.08702e-05 0)
(-6.519e-05 1.37188e-05 0)
(-6.55413e-05 -3.79766e-06 0)
(-6.07393e-05 -2.04337e-05 0)
(-5.12484e-05 -3.49529e-05 0)
(-3.792e-05 -4.63931e-05 0)
(-2.18587e-05 -5.40823e-05 0)
(-4.13325e-06 -5.76056e-05 0)
(1.37452e-05 -5.69239e-05 0)
(3.0434e-05 -5.22813e-05 0)
(4.4949e-05 -4.41884e-05 0)
(5.63589e-05 -3.33838e-05 0)
(6.40083e-05 -2.07256e-05 0)
(6.75071e-05 -7.16225e-06 0)
(6.67854e-05 6.32691e-06 0)
(6.20675e-05 1.89215e-05 0)
(5.37721e-05 2.98416e-05 0)
(4.25564e-05 3.85226e-05 0)
(2.92248e-05 4.45409e-05 0)
(1.46659e-05 4.77173e-05 0)
(-3.12508e-07 4.80407e-05 0)
(-1.48133e-05 4.5716e-05 0)
(-2.79498e-05 4.10544e-05 0)
(-3.91705e-05 3.45084e-05 0)
(-4.79821e-05 2.66014e-05 0)
(-5.40789e-05 1.78971e-05 0)
(-5.73199e-05 8.93819e-06 0)
(-5.77367e-05 2.66709e-07 0)
(-5.55435e-05 -7.68285e-06 0)
(-5.10456e-05 -1.45371e-05 0)
(-4.46533e-05 -2.00361e-05 0)
(-3.68525e-05 -2.40206e-05 0)
(-2.81478e-05 -2.64282e-05 0)
(-1.906e-05 -2.72954e-05 0)
(-1.00628e-05 -2.6767e-05 0)
(-1.58353e-06 -2.50235e-05 0)
(6.03142e-06 -2.23045e-05 0)
(1.25198e-05 -1.88765e-05 0)
(1.77042e-05 -1.50137e-05 0)
(2.1496e-05 -1.0982e-05 0)
(2.39005e-05 -7.01618e-06 0)
(2.50048e-05 -3.30847e-06 0)
(2.49451e-05 -2.49864e-08 0)
(2.39006e-05 2.74707e-06 0)
(2.2065e-05 4.96618e-06 0)
(1.96613e-05 6.62657e-06 0)
(1.68722e-05 7.77029e-06 0)
(1.38661e-05 8.49788e-06 0)
(1.07709e-05 8.888e-06 0)
(7.66252e-06 9.05884e-06 0)
(4.58128e-06 9.10512e-06 0)
(1.52435e-06 9.10599e-06 0)
(4.24535e-05 -0.0002086 0)
(0.00012693 -0.000199859 0)
(0.000209133 -0.000174377 0)
(0.000286762 -0.00013602 0)
(0.000357059 -8.49082e-05 0)
(0.000417504 -2.18796e-05 0)
(0.000464672 5.29839e-05 0)
(0.000497568 0.000137471 0)
(0.000515557 0.000231404 0)
(0.000516896 0.000331002 0)
(0.000500732 0.000434836 0)
(0.00046662 0.00053951 0)
(0.000415001 0.000642836 0)
(0.000346544 0.000741967 0)
(0.000262642 0.000834611 0)
(0.000164629 0.000918299 0)
(5.50452e-05 0.000991062 0)
(-6.45832e-05 0.00105106 0)
(-0.000193478 0.00109653 0)
(-0.00032796 0.0011264 0)
(-0.00046459 0.00113971 0)
(-0.000601882 0.00113583 0)
(-0.000736518 0.00111484 0)
(-0.000865633 0.0010768 0)
(-0.000987807 0.00102299 0)
(-0.00109875 0.000954092 0)
(-0.00119687 0.000872862 0)
(-0.00128154 0.000779909 0)
(-0.00135183 0.000679827 0)
(-0.00140646 0.000573265 0)
(-0.00144556 0.000463728 0)
(-0.00147099 0.000352771 0)
(-0.00148234 0.000242411 0)
(-0.00148186 0.000134305 0)
(-0.00147006 2.96808e-05 0)
(-0.00144633 -7.09324e-05 0)
(-0.00141214 -0.000166993 0)
(-0.00136912 -0.000257732 0)
(-0.00131894 -0.000342555 0)
(-0.00126261 -0.000421028 0)
(-0.0012007 -0.00049285 0)
(-0.00113404 -0.000557928 0)
(-0.00106325 -0.000615939 0)
(-0.00098901 -0.000666995 0)
(-0.000911874 -0.000710961 0)
(-0.000832821 -0.000747884 0)
(-0.000751956 -0.000777793 0)
(-0.000670004 -0.000800724 0)
(-0.000587869 -0.00081663 0)
(-0.000505526 -0.000825913 0)
(-0.000423131 -0.000828341 0)
(-0.000342461 -0.000824334 0)
(-0.000263202 -0.000813744 0)
(-0.000185643 -0.000796924 0)
(-0.000111202 -0.000774129 0)
(-3.99188e-05 -0.000745556 0)
(2.81689e-05 -0.000711411 0)
(9.19851e-05 -0.000672113 0)
(0.000151244 -0.000627879 0)
(0.00020606 -0.000579103 0)
(0.000254827 -0.000526342 0)
(0.000298149 -0.000469904 0)
(0.000335259 -0.000410682 0)
(0.000365771 -0.000348844 0)
(0.000389621 -0.000285397 0)
(0.000406215 -0.000220688 0)
(0.000415624 -0.000155664 0)
(0.000417877 -9.08441e-05 0)
(0.000412814 -2.71696e-05 0)
(0.000400645 3.47404e-05 0)
(0.000381564 9.40861e-05 0)
(0.000355729 0.00015011 0)
(0.000323527 0.000202035 0)
(0.000285426 0.000249185 0)
(0.000241972 0.000290906 0)
(0.000193859 0.000326559 0)
(0.000141918 0.000355601 0)
(8.68052e-05 0.000377631 0)
(2.93666e-05 0.00039226 0)
(-2.929e-05 0.000399233 0)
(-8.80389e-05 0.000398438 0)
(-0.000145919 0.00038983 0)
(-0.000201848 0.000373585 0)
(-0.000254793 0.000349945 0)
(-0.000303688 0.000319343 0)
(-0.000347529 0.00028227 0)
(-0.000385476 0.000239467 0)
(-0.000416688 0.000191778 0)
(-0.000440451 0.000140234 0)
(-0.000456027 8.58868e-05 0)
(-0.000462824 2.98336e-05 0)
(-0.000460835 -2.67501e-05 0)
(-0.00045019 -8.25456e-05 0)
(-0.000430939 -0.00013629 0)
(-0.000403365 -0.000186659 0)
(-0.000367902 -0.000232434 0)
(-0.000325365 -0.000272483 0)
(-0.000276778 -0.000305766 0)
(-0.0002233 -0.000331436 0)
(-0.000166251 -0.000348743 0)
(-0.000107026 -0.000357187 0)
(-4.72108e-05 -0.000356546 0)
(1.16181e-05 -0.000346766 0)
(6.78182e-05 -0.00032812 0)
(0.000119868 -0.0003011 0)
(0.000166326 -0.000266555 0)
(0.000205832 -0.000225491 0)
(0.000237134 -0.000179163 0)
(0.000259404 -0.000129062 0)
(0.000271997 -7.68578e-05 0)
(0.000274606 -2.4241e-05 0)
(0.000267388 2.69848e-05 0)
(0.000250765 7.51402e-05 0)
(0.000225296 0.000118471 0)
(0.000192012 0.000155503 0)
(0.000152423 0.000184892 0)
(0.000108095 0.00020565 0)
(6.0943e-05 0.000217084 0)
(1.29495e-05 0.000218874 0)
(-3.38226e-05 0.000211065 0)
(-7.73489e-05 0.000194205 0)
(-0.000115817 0.000169191 0)
(-0.000147499 0.000137359 0)
(-0.000170948 0.000100228 0)
(-0.000185345 5.97444e-05 0)
(-0.000190113 1.80031e-05 0)
(-0.000185156 -2.28481e-05 0)
(-0.000170976 -6.08872e-05 0)
(-0.000148549 -9.4032e-05 0)
(-0.000119145 -0.000120763 0)
(-8.4577e-05 -0.000139542 0)
(-4.69407e-05 -0.000149591 0)
(-8.37768e-06 -0.000150594 0)
(2.8681e-05 -0.000142565 0)
(6.20336e-05 -0.000126397 0)
(8.96981e-05 -0.000103216 0)
(0.000110243 -7.47568e-05 0)
(0.000122466 -4.30794e-05 0)
(0.00012588 -1.02906e-05 0)
(0.000120658 2.13676e-05 0)
(0.000107463 4.98559e-05 0)
(8.74371e-05 7.32116e-05 0)
(6.22699e-05 9.01088e-05 0)
(3.39696e-05 9.95692e-05 0)
(4.51747e-06 0.000101183 0)
(-2.36135e-05 9.52474e-05 0)
(-4.84607e-05 8.24726e-05 0)
(-6.83567e-05 6.4162e-05 0)
(-8.2019e-05 4.19433e-05 0)
(-8.88152e-05 1.75162e-05 0)
(-8.84555e-05 -7.05814e-06 0)
(-8.12813e-05 -3.00945e-05 0)
(-6.80643e-05 -4.99432e-05 0)
(-5.00882e-05 -6.52999e-05 0)
(-2.87845e-05 -7.53229e-05 0)
(-5.68792e-06 -7.95221e-05 0)
(1.72691e-05 -7.793e-05 0)
(3.84321e-05 -7.09615e-05 0)
(5.65351e-05 -5.94209e-05 0)
(7.04712e-05 -4.4338e-05 0)
(7.95124e-05 -2.69386e-05 0)
(8.32469e-05 -8.55544e-06 0)
(8.17236e-05 9.5765e-06 0)
(7.53192e-05 2.62799e-05 0)
(6.46227e-05 4.0581e-05 0)
(5.05368e-05 5.17493e-05 0)
(3.4087e-05 5.92878e-05 0)
(1.63921e-05 6.30267e-05 0)
(-1.52808e-06 6.29799e-05 0)
(-1.86103e-05 5.94737e-05 0)
(-3.38645e-05 5.29816e-05 0)
(-4.66434e-05 4.40921e-05 0)
(-5.64264e-05 3.35493e-05 0)
(-6.29132e-05 2.20655e-05 0)
(-6.59961e-05 1.0396e-05 0)
(-6.5796e-05 -8.09558e-07 0)
(-6.2612e-05 -1.0977e-05 0)
(-5.68435e-05 -1.96497e-05 0)
(-4.90238e-05 -2.65042e-05 0)
(-3.97318e-05 -3.13664e-05 0)
(-2.95653e-05 -3.41793e-05 0)
(-1.91356e-05 -3.50231e-05 0)
(-8.97798e-06 -3.40832e-05 0)
(4.4178e-07 -3.16289e-05 0)
(8.75293e-06 -2.79665e-05 0)
(1.56881e-05 -2.34537e-05 0)
(2.10782e-05 -1.84375e-05 0)
(2.48634e-05 -1.32619e-05 0)
(2.70795e-05 -8.21787e-06 0)
(2.78529e-05 -3.56487e-06 0)
(2.73705e-05 5.30901e-07 0)
(2.58652e-05 3.9288e-06 0)
(2.35658e-05 6.61277e-06 0)
(2.07207e-05 8.57119e-06 0)
(1.75582e-05 9.88208e-06 0)
(1.42612e-05 1.06564e-05 0)
(1.09553e-05 1.10265e-05 0)
(7.71963e-06 1.11427e-05 0)
(4.58432e-06 1.11321e-05 0)
(1.51963e-06 1.11032e-05 0)
(8.87812e-05 -0.000707981 0)
(0.000266037 -0.00067776 0)
(0.000439827 -0.000613481 0)
(0.000607247 -0.000516936 0)
(0.000762944 -0.000388569 0)
(0.000905957 -0.000231009 0)
(0.00102817 -4.48948e-05 0)
(0.00112846 0.000162605 0)
(0.0011977 0.000391763 0)
(0.00123085 0.00062958 0)
(0.0012306 0.000872365 0)
(0.00119345 0.00111004 0)
(0.00112301 0.00133665 0)
(0.0010198 0.00154578 0)
(0.000887084 0.00173273 0)
(0.000727268 0.00189356 0)
(0.000544277 0.0020252 0)
(0.000341238 0.00212521 0)