/*--------------------------------*- C++ -*----------------------------------*\
  =========                 |
  \\      /  F ield         | OpenFOAM: The Open Source CFD Toolbox
   \\    /   O peration     | Website:  https://openfoam.org
    \\  /    A nd           | Version:  12
     \\/     M anipulation  |
\*---------------------------------------------------------------------------*/
FoamFile
{
    format      ascii;
    class       volScalarField;
    location    "10.08";
    object      p_rgh;
}
// * * * * * * * * * * * * * * * * * * * * * * * * * * * * * * * * * * * * * //

dimensions      [1 -1 -2 0 0 0 0];

internalField   nonuniform List<scalar> 
3829
(
-4.26383
-4.26245
-4.25964
-4.25534
-4.24949
-4.242
-4.2328
-4.22182
-4.20895
-4.19407
-4.17705
-4.15774
-4.13598
-4.11163
-4.08452
-4.05448
-4.02134
-3.98496
-3.94518
-3.9019
-3.855
-3.8044
-3.75002
-3.69184
-3.62982
-3.56399
-3.4944
-3.42115
-3.34434
-3.26413
-3.18068
-3.09421
-3.00494
-2.91311
-2.81902
-2.72297
-2.62527
-2.52625
-2.42625
-2.32561
-2.22471
-2.12393
-2.02366
-1.9243
-1.82626
-1.72992
-1.6357
-1.54395
-1.45506
-1.36938
-1.28725
-1.20898
-1.13486
-1.06697
-1.00429
-0.946906
-0.894892
-0.848297
-0.807123
-0.771319
-0.740818
-0.71552
-0.695285
-0.679928
-0.669196
-0.662776
-0.660289
-0.661318
-0.665397
-0.671969
-0.680665
-0.690504
-0.701063
-0.711699
-0.721772
-0.730632
-0.737651
-0.742222
-0.743774
-0.741798
-0.735856
-0.725581
-0.710723
-0.690424
-0.664939
-0.634439
-0.599157
-0.559382
-0.515476
-0.467925
-0.417346
-0.364479
-0.31018
-0.255374
-0.201072
-0.148326
-0.0982012
-0.0517687
-0.0100434
0.0260269
0.0555887
0.0779462
0.0925754
0.099163
0.0967621
0.0859878
0.0673308
0.0413736
0.00888844
-0.0290921
-0.0713125
-0.116314
-0.162509
-0.208185
-0.251647
-0.291196
-0.325234
-0.352322
-0.371278
-0.38124
-0.381714
-0.371774
-0.352205
-0.32379
-0.287543
-0.244893
-0.197611
-0.147706
-0.0974784
-0.0491716
-0.00501675
0.0329237
0.062923
0.0836661
0.0943709
0.0937909
0.0830906
0.0632548
0.0357041
0.00241745
-0.0342569
-0.0748815
-0.11067
-0.142401
-0.16778
-0.185059
-0.193121
-0.191666
-0.1809
-0.16207
-0.136913
-0.107725
-0.0771186
-0.0476764
-0.022241
-0.00279222
0.00909232
0.0125839
0.00764605
-0.00476826
-0.0230662
-0.045111
-0.0684686
-0.0906853
-0.109564
-0.123372
-0.131359
-0.133061
-0.128433
-0.119736
-0.108697
-0.097036
-0.0864843
-0.0786156
-0.0744517
-0.0745082
-0.0782838
-0.0848719
-0.092827
-0.100536
-0.106163
-0.108458
-0.106489
-0.0999615
-0.0892839
-0.0755507
-0.0603427
-0.0456213
-0.0333658
-0.0255382
-0.0234796
-0.0280355
-0.0392954
-0.0565272
-0.0782545
-0.102345
-0.126303
-0.147468
-0.163358
-0.171939
-4.39174
-4.39057
-4.38818
-4.38448
-4.37938
-4.37277
-4.36449
-4.35438
-4.34223
-4.32788
-4.31114
-4.29181
-4.26969
-4.24451
-4.21609
-4.18437
-4.14945
-4.11134
-4.06997
-4.02523
-3.97701
-3.92514
-3.86944
-3.80969
-3.7456
-3.67683
-3.60308
-3.52426
-3.44048
-3.35198
-3.25909
-3.16222
-3.06178
-2.95818
-2.85181
-2.74309
-2.63245
-2.52034
-2.40725
-2.29366
-2.18006
-2.06696
-1.95485
-1.84423
-1.7356
-1.62944
-1.52621
-1.42638
-1.33037
-1.23857
-1.1513
-1.06881
-0.991267
-0.921689
-0.858673
-0.802128
-0.752062
-0.708468
-0.671317
-0.640555
-0.616095
-0.597805
-0.585498
-0.578906
-0.577686
-0.581427
-0.589638
-0.601773
-0.617217
-0.635305
-0.655404
-0.676615
-0.698244
-0.719505
-0.739606
-0.757743
-0.773145
-0.785076
-0.792839
-0.79581
-0.793455
-0.785327
-0.771149
-0.75032
-0.722963
-0.689215
-0.649294
-0.60355
-0.55247
-0.496709
-0.437078
-0.374527
-0.310137
-0.245075
-0.180609
-0.118048
-0.0587125
-0.00393412
0.0450284
0.0870091
0.120956
0.146011
0.161505
0.166964
0.16199
0.146943
0.122271
0.0886737
0.0471776
-0.000901896
-0.0539897
-0.110275
-0.167807
-0.224431
-0.27808
-0.326693
-0.368326
-0.401234
-0.423984
-0.435515
-0.435141
-0.422539
-0.398264
-0.363157
-0.318546
-0.266275
-0.208573
-0.147957
-0.0873337
-0.0293987
0.0231176
0.0677207
0.102299
0.125304
0.135695
0.132999
0.117975
0.0917635
0.0562624
0.0139501
-0.0323247
-0.0801604
-0.124449
-0.163112
-0.193511
-0.213632
-0.222201
-0.218813
-0.204185
-0.179765
-0.14788
-0.111427
-0.073671
-0.0378319
-0.00724389
0.0157011
0.0292214
0.0324121
0.0248348
0.00838002
-0.0148799
-0.042264
-0.0707584
-0.0974277
-0.119492
-0.135063
-0.143172
-0.14393
-0.136427
-0.124503
-0.110066
-0.0952645
-0.0821916
-0.0727496
-0.068134
-0.0687454
-0.0740339
-0.0827755
-0.0931436
-0.103163
-0.110609
-0.114026
-0.112299
-0.105118
-0.0929923
-0.0772197
-0.0596675
-0.0426071
-0.0283309
-0.0190602
-0.0162983
-0.0209962
-0.0332354
-0.052164
-0.0761116
-0.102726
-0.129188
-0.152568
-0.170114
-0.17959
-4.61999
-4.62029
-4.6209
-4.62183
-4.62308
-4.6247
-4.62665
-4.62874
-4.63052
-4.63123
-4.62992
-4.62561
-4.61727
-4.60375
-4.58319
-4.55298
-4.51882
-4.48161
-4.43964
-4.39236
-4.3395
-4.28086
-4.2163
-4.14593
-4.07125
-3.9885
-3.89616
-3.79421
-3.68454
-3.56829
-3.44625
-3.321
-3.19229
-3.06064
-2.92657
-2.79054
-2.65296
-2.51434
-2.37528
-2.23638
-2.0983
-1.96169
-1.82721
-1.69551
-1.56724
-1.44308
-1.32363
-1.20949
-1.1013
-0.999662
-0.905203
-0.818579
-0.740504
-0.666127
-0.600729
-0.544091
-0.496238
-0.457161
-0.426818
-0.4051
-0.391844
-0.38678
-0.389519
-0.399565
-0.416355
-0.439266
-0.467589
-0.50054
-0.537262
-0.576844
-0.618292
-0.6606
-0.702705
-0.743544
-0.782049
-0.817145
-0.8478
-0.873038
-0.891953
-0.903705
-0.907614
-0.90315
-0.889844
-0.867357
-0.835736
-0.795105
-0.745753
-0.688182
-0.623134
-0.551561
-0.474618
-0.393642
-0.310134
-0.225698
-0.142098
-0.0611171
0.015447
0.0858068
0.148253
0.201194
0.243206
0.273103
0.290048
0.293546
0.283445
0.259943
0.223596
0.175396
0.11682
0.0497238
-0.0237253
-0.101069
-0.179872
-0.256788
-0.329289
-0.394601
-0.450123
-0.493566
-0.523057
-0.537229
-0.535283
-0.517223
-0.48358
-0.43549
-0.374931
-0.304512
-0.227288
-0.146653
-0.0666531
0.00913902
0.0770539
0.133801
0.176663
0.203555
0.21336
0.206087
0.182369
0.1439
0.0934154
0.0344067
-0.0291715
-0.0930061
-0.152301
-0.203302
-0.242579
-0.267599
-0.276879
-0.269373
-0.246983
-0.211824
-0.167183
-0.117073
-0.0659259
-0.0184018
0.0215271
0.0505609
0.0667387
0.0699193
0.0562253
0.0319498
-0.000656233
-0.0380103
-0.0759554
-0.110959
-0.138666
-0.157144
-0.165148
-0.163129
-0.1519
-0.132732
-0.111947
-0.0913129
-0.0736274
-0.0613863
-0.0560726
-0.0579222
-0.0661694
-0.078987
-0.0938633
-0.108162
-0.118949
-0.124358
-0.123003
-0.11457
-0.0997743
-0.0802776
-0.0584882
-0.037232
-0.0193294
-0.00749821
-0.0035158
-0.0084949
-0.0224834
-0.0444398
-0.072338
-0.103388
-0.134269
-0.161547
-0.182002
-0.193043
-4.7765
-4.77785
-4.7805
-4.78427
-4.78884
-4.79377
-4.79856
-4.80281
-4.80634
-4.80925
-4.81181
-4.81433
-4.81729
-4.8212
-4.82825
-4.8361
-4.83357
-4.81901
-4.79342
-4.75667
-4.70818
-4.64766
-4.57477
-4.48917
-4.38918
-4.2752
-4.15616
-4.02943
-3.90126
-3.76829
-3.62826
-3.48048
-3.32529
-3.16363
-2.99658
-2.82541
-2.65154
-2.47625
-2.30073
-2.12609
-1.95341
-1.78368
-1.61784
-1.45682
-1.30146
-1.15253
-1.01084
-0.877118
-0.752004
-0.635989
-0.529541
-0.433021
-0.346654
-0.270884
-0.209215
-0.159255
-0.120594
-0.0931394
-0.0768481
-0.0715893
-0.0771219
-0.0930682
-0.118911
-0.153995
-0.19755
-0.248693
-0.306433
-0.369681
-0.437239
-0.507847
-0.580102
-0.65263
-0.723964
-0.792666
-0.857274
-0.91632
-0.968412
-1.01224
-1.04659
-1.07038
-1.08263
-1.08258
-1.06966
-1.04387
-1.00507
-0.953446
-0.889446
-0.813868
-0.727819
-0.632683
-0.530104
-0.421969
-0.31039
-0.197563
-0.0860503
0.0217166
0.123251
0.216077
0.297878
0.3665
0.420035
0.456942
0.475902
0.476232
0.458153
0.421813
0.368032
0.298308
0.214719
0.11986
0.0167912
-0.0910516
-0.20034
-0.306493
-0.406018
-0.49513
-0.570373
-0.62866
-0.667488
-0.685055
-0.680178
-0.653484
-0.605555
-0.538182
-0.454183
-0.357223
-0.251633
-0.141999
-0.0341028
0.0672412
0.157063
0.230933
0.285257
0.31735
0.325783
0.311087
0.274036
0.21728
0.144772
0.0614874
-0.0270705
-0.114603
-0.195211
-0.263472
-0.314852
-0.346283
-0.356618
-0.341781
-0.307547
-0.256514
-0.193216
-0.123276
-0.0527659
0.0115947
0.0645188
0.101495
0.11953
0.116843
0.0989783
0.0643244
0.0182301
-0.0336508
-0.0854813
-0.13156
-0.167298
-0.189573
-0.19705
-0.190775
-0.173271
-0.143007
-0.11357
-0.0845677
-0.0603702
-0.0443325
-0.0382591
-0.0422064
-0.0549212
-0.0737115
-0.09509
-0.115532
-0.131007
-0.139133
-0.138216
-0.127936
-0.109324
-0.0846129
-0.0569312
-0.0298957
-0.00702578
0.0082896
0.0139039
0.00849605
-0.00791154
-0.0339917
-0.067247
-0.104275
-0.1411
-0.173597
-0.197956
-0.211094
-5.00163
-5.01068
-5.0289
-5.05616
-5.09196
-5.13539
-5.18513
-5.23943
-5.29617
-5.35274
-5.40606
-5.45205
-5.49504
-5.53065
-5.5547
-5.56898
-5.57476
-5.56922
-5.55025
-5.51612
-5.46571
-5.39807
-5.31285
-5.2101
-5.09024
-4.95466
-4.80562
-4.64547
-4.46874
-4.26579
-4.04791
-3.8216
-3.59126
-3.35883
-3.12501
-2.89072
-2.65705
-2.42511
-2.19588
-1.97089
-1.75102
-1.53733
-1.33087
-1.13259
-0.94348
-0.764439
-0.59625
-0.439636
-0.295304
-0.163997
-0.0462998
0.0573555
0.146453
0.220838
0.27786
0.320923
0.349252
0.362588
0.360965
0.344684
0.314265
0.270397
0.213878
0.145655
0.0668212
-0.0213948
-0.11762
-0.220348
-0.327926
-0.438916
-0.550899
-0.662305
-0.771133
-0.875421
-0.97324
-1.06264
-1.14178
-1.2089
-1.2624
-1.30087
-1.32309
-1.32792
-1.31433
-1.28275
-1.23315
-1.1658
-1.08146
-0.981309
-0.866892
-0.740147
-0.60337
-0.459176
-0.310485
-0.160153
-0.0119615
0.130931
0.265112
0.387235
0.494175
0.583027
0.65121
0.696619
0.717855
0.713525
0.684413
0.630656
0.55353
0.455202
0.338575
0.20722
0.0653107
-0.0824573
-0.231128
-0.375258
-0.509687
-0.62943
-0.729816
-0.806729
-0.856896
-0.878033
-0.868807
-0.830018
-0.762653
-0.669447
-0.554394
-0.422519
-0.279686
-0.132025
0.0120528
0.146309
0.264132
0.359653
0.428137
0.466276
0.472201
0.446763
0.391439
0.310146
0.20841
0.0931578
-0.0281095
-0.146567
-0.254527
-0.344626
-0.410732
-0.448436
-0.454861
-0.433883
-0.384599
-0.31256
-0.224666
-0.128857
-0.0325872
0.0533364
0.122709
0.169732
0.190818
0.185047
0.155547
0.105368
0.0408979
-0.0302023
-0.0999988
-0.160511
-0.205985
-0.232445
-0.238516
-0.225623
-0.197305
-0.157334
-0.114636
-0.0744241
-0.0419138
-0.0212862
-0.0146239
-0.0216996
-0.0404902
-0.0671677
-0.0969465
-0.125393
-0.146723
-0.158169
-0.157655
-0.144922
-0.12141
-0.0901094
-0.0550586
-0.0208513
0.00811114
0.027686
0.0352285
0.0292349
0.00982537
-0.0213085
-0.0610768
-0.10535
-0.149346
-0.188129
-0.21717
-0.232831
-4.75511
-4.7724
-4.80718
-4.85927
-4.92817
-5.01299
-5.1126
-5.22523
-5.34897
-5.48123
-5.61968
-5.76282
-5.9018
-6.02686
-6.13583
-6.22629
-6.29566
-6.34137
-6.36103
-6.35252
-6.31428
-6.24511
-6.14412
-6.01163
-5.84833
-5.65486
-5.43257
-5.18226
-4.90324
-4.63284
-4.35821
-4.076
-3.78552
-3.48845
-3.18795
-2.88678
-2.58741
-2.29188
-2.00236
-1.72037
-1.44736
-1.18465
-0.933387
-0.694688
-0.469484
-0.258715
-0.0632937
0.115961
0.278369
0.423431
0.550617
0.659351
0.749705
0.821869
0.870982
0.901547
0.913308
0.906114
0.8801
0.83568
0.773495
0.694428
0.599538
0.490111
0.367604
0.233664
0.090121
-0.0610259
-0.217596
-0.377277
-0.537638
-0.696178
-0.850293
-0.997443
-1.13507
-1.26064
-1.37175
-1.4662
-1.54201
-1.59745
-1.63114
-1.64201
-1.62473
-1.5841
-1.51966
-1.43169
-1.32119
-1.18977
-1.03953
-0.87306
-0.693465
-0.504267
-0.309387
-0.112953
0.0805918
0.266731
0.44097
0.598887
0.736342
0.849558
0.935294
0.99093
1.0141
1.0037
0.960144
0.884178
0.777735
0.643743
0.4861
0.309599
0.119839
-0.0769398
-0.274023
-0.464423
-0.641272
-0.797966
-0.928397
-1.02733
-1.09063
-1.11538
-1.09984
-1.04505
-0.952914
-0.827273
-0.673532
-0.498529
-0.309905
-0.114939
0.0732056
0.247234
0.39867
0.519947
0.604865
0.649328
0.651197
0.611497
0.532818
0.420638
0.282476
0.12754
-0.0339136
-0.190255
-0.331349
-0.447566
-0.531074
-0.576422
-0.581053
-0.547435
-0.47769
-0.378839
-0.260231
-0.133029
-0.00387075
0.107506
0.196458
0.255061
0.278972
0.267467
0.223747
0.153768
0.0661841
-0.028638
-0.120623
-0.198333
-0.255043
-0.285799
-0.289323
-0.267762
-0.226476
-0.171862
-0.113794
-0.0601745
-0.0178893
0.0078819
0.0147678
0.00338166
-0.0231716
-0.0596176
-0.0995217
-0.137891
-0.165971
-0.181219
-0.181005
-0.165155
-0.13575
-0.0966158
-0.0529046
-0.0103363
0.0257008
0.0501253
0.0598109
0.0530655
0.0301438
-0.00682599
-0.054053
-0.106591
-0.158723
-0.204619
-0.23896
-0.257464
-4.30154
-4.34018
-4.41809
-4.5349
-4.68942
-4.87914
-5.1008
-5.3491
-5.6178
-5.89812
-6.18172
-6.46175
-6.72616
-6.97543
-7.20111
-7.39596
-7.55394
-7.66996
-7.73993
-7.76062
-7.72977
-7.6461
-7.50959
-7.32127
-7.084
-6.80214
-6.48287
-6.1349
-5.77349
-5.36765
-4.94318
-4.51418
-4.08732
-3.66611
-3.25344
-2.85139
-2.46143
-2.0847
-1.72216
-1.37491
-1.04305
-0.727692
-0.429585
-0.149503
0.111806
0.353622
0.575215
0.775856
0.954798
1.11121
1.24433
1.35344
1.43733
1.49487
1.54025
1.55951
1.55316
1.522
1.4669
1.38873
1.28853
1.1675
1.02708
0.868946
0.695007
0.507388
0.308451
0.100771
-0.112839
-0.329385
-0.54581
-0.758893
-0.965277
-1.16169
-1.34492
-1.51167
-1.65896
-1.78395
-1.88405
-1.95717
-2.00176
-2.01729
-1.99553
-1.94386
-1.86129
-1.7482
-1.60598
-1.4368
-1.24345
-1.0294
-0.798697
-0.555954
-0.306267
-0.0551008
0.191878
0.428824
0.649957
0.849596
1.02251
1.16399
1.26982
1.33685
1.36318
1.34332
1.2816
1.17877
1.03725
0.860801
0.654502
0.42461
0.178404
-0.0760681
-0.3299
-0.574358
-0.800521
-0.999887
-1.16482
-1.28878
-1.36667
-1.39548
-1.37032
-1.29553
-1.17339
-1.00886
-0.809096
-0.58325
-0.342285
-0.0880487
0.149922
0.369897
0.560034
0.710573
0.813779
0.864416
0.860446
0.802894
0.695829
0.54661
0.365053
0.163163
-0.0458189
-0.246468
-0.425929
-0.572004
-0.674975
-0.728306
-0.729337
-0.679985
-0.585052
-0.453707
-0.298057
-0.131976
0.0312089
0.173788
0.285401
0.3568
0.382873
0.363243
0.302183
0.208194
0.0928965
-0.0304318
-0.147333
-0.245157
-0.31439
-0.349343
-0.348837
-0.316333
-0.259281
-0.186587
-0.110562
-0.041512
0.0117749
0.0429904
0.0495696
0.032631
-0.00336739
-0.0514828
-0.103662
-0.152262
-0.18845
-0.207934
-0.20786
-0.188285
-0.152022
-0.103953
-0.0504771
0.00144531
0.0453219
0.0750601
0.0870194
0.079345
0.0524719
0.0090369
-0.0463966
-0.107977
-0.168963
-0.22261
-0.26269
-0.284272
-2.90091
-2.97416
-3.12229
-3.34602
-3.64517
-4.01624
-4.45698
-4.95639
-5.51006
-6.07723
-6.63162
-7.16427
-7.66262
-8.11625
-8.5171
-8.85892
-9.13685
-9.34604
-9.48107
-9.53692
-9.51009
-9.39823
-9.20103
-8.91805
-8.55229
-8.10764
-7.59383
-7.01901
-6.4291
-5.85105
-5.28434
-4.72606
-4.18098
-3.65186
-3.14079
-2.6489
-2.17732
-1.72689
-1.29848
-0.892143
-0.507722
-0.145597
0.193861
0.510191
0.802995
1.07172
1.31576
1.53443
1.72695
1.89253
2.03066
2.14065
2.22219
2.2753
2.2999
2.29589
2.26284
2.2009
2.11056
1.99269
1.8484
1.67917
1.48674
1.2732
1.04091
0.792539
0.531035
0.25962
-0.0181898
-0.298654
-0.577953
-0.852062
-1.11681
-1.36812
-1.60192
-1.81419
-2.00108
-2.15908
-2.28489
-2.37542
-2.42786
-2.43934
-2.41911
-2.35655
-2.25321
-2.11078
-1.93153
-1.71842
-1.47515
-1.20618
-0.916702
-0.612559
-0.300192
0.0134671
0.321301
0.615931
0.89012
1.13678
1.34931
1.52178
1.6492
1.7281
1.75711
1.72556
1.64298
1.50934
1.32751
1.10234
0.840348
0.54956
0.239126
-0.0808514
-0.398979
-0.704421
-0.985934
-1.23306
-1.43618
-1.58709
-1.67961
-1.71014
-1.67487
-1.57706
-1.42018
-1.21071
-0.95782
-0.673034
-0.369336
-0.0569574
0.240417
0.512808
0.746399
0.929246
1.05199
1.10856
1.09663
1.01771
0.877458
0.68541
0.454143
0.198728
-0.0647254
-0.315286
-0.537553
-0.716595
-0.8406
-0.90175
-0.897183
-0.82907
-0.704559
-0.535497
-0.337341
-0.127526
0.0752625
0.252231
0.388766
0.473667
0.501046
0.470989
0.389362
0.26735
0.120094
-0.035616
-0.180901
-0.300814
-0.383411
-0.422158
-0.416057
-0.37029
-0.294699
-0.201029
-0.10464
-0.0183883
0.0468426
0.0835929
0.0891966
0.0654815
0.0184627
-0.042988
-0.108855
-0.168945
-0.213897
-0.237852
-0.237697
-0.213819
-0.169848
-0.111906
-0.0477737
0.0142198
0.0666107
0.101934
0.116214
0.107437
0.0762619
0.0259115
-0.0383115
-0.109484
-0.179839
-0.241647
-0.287772
-0.312592
-0.629277
-0.750236
-0.995166
-1.36577
-1.86164
-2.4785
-3.21217
-4.05544
-5.01303
-5.99809
-6.98697
-7.93497
-8.82154
-9.62845
-10.341
-10.9466
-11.4345
-11.797
-12.0282
-12.1257
-12.0877
-11.9118
-11.5993
-11.152
-10.5757
-9.87922
-9.07881
-8.19206
-7.32013
-6.4717
-5.66014
-4.89404
-4.17526
-3.50327
-2.87499
-2.28736
-1.73718
-1.22151
-0.738211
-0.284772
0.141955
0.541539
0.914223
1.26004
1.57862
1.86944
2.13185
2.36502
2.56812
2.74027
2.88049
2.98808
3.06225
3.10243
3.10956
3.08214
3.02027
2.92431
2.79489
2.63302
2.44
2.21761
1.96793
1.6935
1.3972
1.08225
0.752265
0.411168
0.0632451
-0.286942
-0.634728
-0.975209
-1.30328
-1.61399
-1.90245
-2.16372
-2.39322
-2.58667
-2.74017
-2.85019
-2.91411
-2.92972
-2.89944
-2.81947
-2.69031
-2.51362
-2.29206
-2.02933
-1.72999
-1.3996
-1.04462
-0.672265
-0.290447
0.0923081
0.467282
0.825407
1.15781
1.45583
1.71144
1.91735
2.0672
2.15539
2.17644
2.14138
2.03772
1.87005
1.64329
1.36387
1.04002
0.681669
0.300217
-0.0918038
-0.480672
-0.852922
-1.19493
-1.49386
-1.73811
-1.91774
-2.02496
-2.05393
-2.00865
-1.88489
-1.68882
-1.42902
-1.11698
-0.766959
-0.394843
-0.0166874
0.344891
0.67432
0.95494
1.17245
1.31565
1.37748
1.35553
1.25195
1.07411
0.834083
0.547743
0.233553
-0.0913793
-0.39607
-0.664643
-0.879098
-1.02519
-1.09373
-1.08161
-0.991827
-0.833779
-0.622426
-0.377114
-0.119021
0.127763
0.341915
0.505063
0.603825
0.631505
0.58881
0.483533
0.329928
0.147013
-0.0446783
-0.221094
-0.364633
-0.461012
-0.502668
-0.48968
-0.428477
-0.331845
-0.214659
-0.095909
0.00895975
0.0867924
0.129011
0.132893
0.101245
0.0418034
-0.0343836
-0.115117
-0.18772
-0.241888
-0.270401
-0.269898
-0.241175
-0.188815
-0.12025
-0.044798
0.0277275
0.0891781
0.130178
0.146766
0.136728
0.100981
0.0433562
-0.0299908
-0.111092
-0.191124
-0.261325
-0.313658
-0.341796
3.01157
2.82842
2.45218
1.86705
1.04675
-0.0243422
-1.4376
-3.10398
-5.61696
-7.46657
-9.12443
-10.558
-11.7875
-12.8315
-13.705
-14.4174
-14.9748
-15.3797
-15.633
-15.7306
-15.6667
-15.4302
-15.0085
-14.3815
-13.5281
-12.4231
-11.0942
-9.09648
-7.75266
-6.54084
-5.51202
-4.5965
-3.77622
-3.02774
-2.33901
-1.70187
-1.10985
-0.557652
-0.0515603
0.432677
0.886885
1.31196
1.70829
2.0759
2.41429
2.72266
2.99998
3.24506
3.45659
3.6333
3.77393
3.87736
3.9426
3.9689
3.95571
3.90269
3.80976
3.67728
3.50595
3.2969
3.05169
2.77239
2.46146
2.12194
1.75723
1.3712
0.968143
0.552754
0.130147
-0.294233
-0.714808
-1.12573
-1.52093
-1.89453
-2.24067
-2.55353
-2.82771
-3.05818
-3.24032
-3.37026
-3.44485
-3.46205
-3.42137
-3.32156
-3.16329
-2.94845
-2.68025
-2.36314
-2.00265
-1.60551
-1.1795
-0.733354
-0.276592
0.180579
0.627687
1.05389
1.44858
1.80145
2.10297
2.34452
2.5186
2.61939
2.643
2.59114
2.46078
2.25482
1.97877
1.64034
1.24954
0.818355
0.360466
-0.109221
-0.573802
-1.01744
-1.42384
-1.77776
-2.06547
-2.27526
-2.39825
-2.42888
-2.36729
-2.21365
-1.97435
-1.65962
-1.28347
-0.863083
-0.417775
0.0319611
0.461813
0.851802
1.18208
1.43577
1.5999
1.66622
1.6323
1.50112
1.28192
0.98955
0.643721
0.267907
-0.126641
-0.487403
-0.804887
-1.05656
-1.22534
-1.30068
-1.27921
-1.16511
-0.970147
-0.71268
-0.416278
-0.106299
0.187754
0.441302
0.632232
0.744915
0.77181
0.714464
0.582815
0.394593
0.172882
-0.057619
-0.267303
-0.435549
-0.545881
-0.589953
-0.568323
-0.489667
-0.369809
-0.227148
-0.0844325
0.0400916
0.130897
0.178344
0.179773
0.139158
0.0661162
-0.025928
-0.122407
-0.208244
-0.271901
-0.304942
-0.303806
-0.269786
-0.208493
-0.128787
-0.0415512
0.0417624
0.112578
0.159233
0.178082
0.166649
0.12614
0.061038
-0.0216061
-0.112781
-0.202608
-0.281274
-0.339855
-0.371332
8.16273
7.94642
7.49299
6.76917
5.71688
4.26788
2.32119
-0.255047
-4.10215
-6.72995
-9.12011
-11.2148
-13.0285
-14.5773
-15.8754
-16.9326
-17.7569
-18.3529
-18.7221
-18.8653
-18.7755
-18.4441
-17.8585
-16.9998
-15.8422
-14.3611
-12.5939
-9.69079
-7.79151
-6.24233
-4.98946
-3.94757
-3.0553
-2.27486
-1.5751
-0.936964
-0.344696
0.204747
0.726309
1.22002
1.68696
2.12693
2.53958
2.92396
3.27873
3.60229
3.8929
4.14874
4.36795
4.54867
4.68916
4.78785
4.84334
4.85454
4.82062
4.74112
4.61595
4.44546
4.23043
3.97217
3.67247
3.33372
2.95883
2.55131
2.11518
1.65494
1.17562
0.682743
0.182277
-0.319388
-0.815717
-1.29987
-1.76475
-2.20349
-2.6093
-2.97538
-3.29543
-3.56366
-3.77479
-3.92434
-4.0088
-4.02558
-3.97356
-3.85214
-3.6623
-3.40638
-3.08819
-2.71304
-2.28751
-1.81957
-1.31841
-0.794327
-0.258516
0.276953
0.799838
1.29741
1.75729
2.16742
2.51669
2.79512
2.99416
3.10734
3.13046
3.06255
2.90338
2.65629
2.32766
1.92662
1.46499
0.956911
0.418512
-0.132593
-0.676639
-1.1949
-1.6684
-2.07943
-2.41203
-2.65268
-2.79132
-2.82185
-2.74299
-2.55698
-2.27129
-1.89817
-1.45419
-0.95971
-0.437296
0.0878507
0.588937
1.04189
1.42355
1.71435
1.89939
1.96939
1.92174
1.76052
1.49693
1.14878
0.739583
0.298036
-0.166772
-0.586861
-0.955501
-1.24555
-1.43726
-1.51868
-1.48627
-1.34564
-1.11105
-0.804505
-0.454035
-0.0895557
0.254063
0.548493
0.767872
0.894271
0.919283
0.845573
0.6853
0.4601
0.197451
-0.0745107
-0.318682
-0.5122
-0.63637
-0.682036
-0.65044
-0.552644
-0.407822
-0.238239
-0.0704155
0.0743988
0.178287
0.230607
0.228897
0.178435
0.0908929
-0.0178126
-0.130637
-0.230126
-0.303365
-0.340813
-0.338767
-0.299089
-0.228495
-0.137325
-0.0380441
0.0564191
0.136079
0.18857
0.209615
0.196678
0.151309
0.0786592
-0.0133024
-0.114533
-0.214106
-0.301167
-0.365934
-0.400714
14.5534
14.4684
14.3022
14.0586
13.7663
13.4239
13.233
12.8065
-4.1739
-3.67391
-3.38585
-2.88521
-2.35073
-1.77935
-1.20353
-0.628576
-0.0652792
0.486352
1.01286
1.52811
2.02343
2.49765
2.94905
3.37579
3.77559
4.14608
4.48468
4.78876
5.05572
5.28298
5.46808
5.60873
5.70285
5.74868
5.74478
5.68993
5.58363
5.4257
5.21648
4.95685
4.64828
4.29282
3.89323
3.45282
2.97565
2.46634
1.93008
1.37268
0.800466
0.220328
-0.360371
-0.934097
-1.49299
-2.0289
-2.53395
-3.00036
-3.42034
-3.7867
-4.09286
-4.3328
-4.50144
-4.59479
-4.60996
-4.54542
-4.40091
-4.17769
-3.87856
-3.50804
-3.07235
-2.57914
-2.03768
-1.45866
-0.853948
-0.236491
0.379751
0.980654
1.55159
2.07832
2.54703
2.94502
3.26089
3.48497
3.60995
3.6311
3.54662
3.35726
3.06715
2.68371
2.21763
1.68263
1.09516
0.473845
-0.161635
-0.787182
-1.38192
-1.92404
-2.39326
-2.77135
-3.04299
-3.19678
-3.22595
-3.12877
-2.90859
-2.5744
-2.14048
-1.62617
-1.05504
-0.453303
0.149648
0.72375
1.24099
1.67485
2.00303
2.20865
2.28143
2.21866
2.02555
1.71538
1.30898
0.833547
0.320335
-0.207616
-0.692211
-1.11359
-1.44255
-1.65702
-1.74369
-1.69906
-1.53016
-1.254
-0.896351
-0.489767
-0.0692403
0.325332
0.661416
0.909435
1.04916
1.07163
0.979795
0.789156
0.525326
0.220553
-0.0951516
-0.374171
-0.593069
-0.730745
-0.777182
-0.734511
-0.616276
-0.445275
-0.247762
-0.0541799
0.111175
0.228021
0.284784
0.279324
0.218338
0.115661
-0.0102004
-0.139642
-0.252953
-0.335707
-0.37737
-0.37416
-0.328566
-0.248468
-0.145713
-0.0343402
0.0713548
0.15943
0.21775
0.240889
0.226367
0.176113
0.0959632
-0.005196
-0.116328
-0.225452
-0.320721
-0.391529
-0.429533
20.6865
20.6412
20.5529
20.4272
20.2754
20.0979
19.9737
19.6951
-2.79794
-2.39611
-2.11455
-1.70519
-1.25309
-0.771355
-0.271126
0.244769
0.762138
1.28548
1.79911
2.30655
2.8033
3.2855
3.74943
4.19151
4.60815
4.99578
5.35081
5.66972
5.94907
6.18556
6.37609
6.51778
6.6081
6.64484
6.62624
6.55089
6.41804
6.22745
5.97949
5.67514
5.31603
4.90449
4.44364
3.93726
3.38993
2.8069
2.19407
1.55801
0.905899
0.245543
-0.414674
-1.06621
-1.70016
-2.30733
-2.87882
-3.40582
-3.87958
-4.29201
-4.63568
-4.90388
-5.0909
-5.19228
-5.20483
-5.12683
-4.95813
-4.70031
-4.35668
-3.93246
-3.4348
-2.8725
-2.25613
-1.59786
-0.911259
-0.21097
0.487092
1.16693
1.81197
2.40612
2.93377
3.38061
3.73384
3.98263
4.1188
4.13705
4.03534
3.81487
3.48059
3.04112
2.50873
1.89912
1.23106
0.52558
-0.195248
-0.903205
-1.57499
-2.18613
-2.71371
-3.13721
-3.43946
-3.60774
-3.63458
-3.51817
-3.26271
-2.87875
-2.38268
-1.7968
-1.14784
-0.465709
0.21595
0.863662
1.44549
1.93155
2.29679
2.52243
2.59711
2.51818
2.29194
1.93386
1.46786
0.924876
0.340251
-0.253531
-0.802062
-1.27633
-1.64407
-1.88076
-1.9719
-1.91402
-1.71568
-1.3967
-0.986813
-0.523189
-0.0458836
0.400131
0.777968
1.05438
1.20683
1.22565
1.11486
0.892719
0.589292
0.242273
-0.119324
-0.432584
-0.67661
-0.827297
-0.873752
-0.819128
-0.679562
-0.48162
-0.255678
-0.0361266
0.14968
0.279159
0.339895
0.33017
0.258192
0.14003
-0.00317978
-0.149261
-0.276317
-0.368382
-0.414018
-0.409423
-0.357761
-0.268111
-0.153819
-0.0305069
0.0861534
0.182508
0.246401
0.271498
0.255336
0.200243
0.11274
0.00260767
-0.118136
-0.236505
-0.339708
-0.416344
-0.457456
26.2979
26.2745
26.2296
26.165
26.0905
26.0015
25.9638
25.8407
-1.44681
-1.20121
-1.0078
-0.701266
-0.336081
0.0814344
0.529782
1.01165
1.50113
2.00815
2.51828
3.02854
3.53385
4.02922
4.50968
4.97042
5.40669
5.81388
6.18746
6.52304
6.81641
7.06356
7.26077
7.40463
7.49213
7.52066
7.48814
7.39297
7.2342
7.01154
6.72538
6.37681
5.96767
5.50054
4.97894
4.40708
3.79011
3.13389
2.44502
1.73088
0.999478
0.259482
-0.479595
-1.20823
-1.91651
-2.59416
-3.23128
-3.81806
-4.34475
-4.80238
-5.18272
-5.47831
-5.68286
-5.79146
-5.8006
-5.70842
-5.51488
-5.22187
-4.8332
-4.35482
-3.79481
-3.16312
-2.47165
-1.73406
-0.965602
-0.182557
0.597089
1.35555
2.07432
2.73542
3.32148
3.81662
4.20661
4.47944
4.62615
4.64086
4.52142
4.2694
3.89055
3.39473
2.79581
2.11151
1.36294
0.573538
-0.23259
-1.02253
-1.77078
-2.45029
-3.03557
-3.50376
-3.83586
-4.01786
-4.04164
-3.90538
-3.61413
-3.17991
-2.62147
-1.96375
-1.23708
-0.474742
0.285322
1.00614
1.65192
2.18945
2.59098
2.83582
2.91166
2.8158
2.5558
2.14933
1.62343
1.01297
0.357421
-0.303142
-0.914544
-1.44103
-1.84679
-2.10495
-2.19976
-2.12789
-1.89948
-1.53722
-1.07474
-0.554222
-0.0199837
0.477024
0.896121
1.20031
1.36479
1.37922
1.2488
0.994554
0.651078
0.262482
-0.146362
-0.49267
-0.761338
-0.924426
-0.970222
-0.903015
-0.74163
-0.516428
-0.262046
-0.0167014
0.189179
0.33081
0.395037
0.380643
0.29741
0.163678
0.00318984
-0.159305
-0.299835
-0.400892
-0.450227
-0.444069
-0.386287
-0.287175
-0.161561
-0.0265971
0.10063
0.205039
0.274204
0.301109
0.283283
0.223455
0.128824
0.0100459
-0.119932
-0.247154
-0.357948
-0.440153
-0.484225
31.3705
31.358
31.3344
31.3
31.2618
31.2183
31.197
31.1434
-0.520722
-0.347221
-0.178774
0.0762329
0.397818
0.784902
1.20015
1.67047
2.14841
2.65007
3.16419
3.68474
4.20509
4.71899
5.22039
5.70338
6.16227
6.59152
6.98577
7.33985
7.64881
7.90801
8.11312
8.26025
8.34593
8.36721
8.32171
8.20761
8.02384
7.77007
7.44671
7.05498
6.59692
6.07539
5.49428
4.85827
4.17304
3.44508
2.6817
1.89105
1.08196
0.263818
-0.552454
-1.35651
-2.13747
-2.88398
-3.58514
-4.23017
-4.80835
-5.30984
-5.72559
-6.04747
-6.26859
-6.38364
-6.38876
-6.28198
-6.06337
-5.73513
-5.30159
-4.76941
-4.1476
-3.44722
-2.68153
-1.86566
-1.01649
-0.151996
0.707933
1.54366
2.33478
3.06151
3.70473
4.24699
4.67269
4.9687
5.12522
5.13592
4.99851
4.71496
4.29182
3.74015
3.07541
2.31737
1.48958
0.618229
-0.273352
-1.1431
-1.96618
-2.7126
-3.35418
-3.86584
-4.22673
-4.42161
-4.44176
-4.28536
-3.95829
-3.47419
-2.85394
-2.1253
-1.32188
-0.480779
0.356369
1.14885
1.85717
2.44484
2.88146
3.14456
3.22086
3.10768
2.81386
2.35924
1.77399
1.09684
0.371839
-0.354976
-1.02777
-1.60514
-2.04778
-2.32641
-2.42416
-2.33784
-2.07922
-1.67386
-1.15933
-0.582415
0.00749867
0.554649
1.01402
1.34507
1.52081
1.53032
1.37991
1.09345
0.709881
0.281047
-0.175431
-0.553221
-0.845904
-1.0207
-1.06526
-0.985099
-0.801758
-0.549371
-0.267006
0.00364963
0.228984
0.382174
0.449418
0.430065
0.33551
0.186354
0.00888181
-0.169576
-0.323159
-0.432807
-0.48555
-0.477694
-0.413833
-0.30547
-0.168871
-0.0226747
0.11465
0.226789
0.300904
0.329464
0.309974
0.245564
0.1441
0.0170656
-0.121694
-0.257321
-0.375304
-0.462777
-0.509652
35.8948
35.8873
35.8739
35.8537
35.8324
35.8076
35.797
35.766
0.132849
0.276293
0.431133
0.662479
0.955012
1.36162
1.75878
2.21542
2.6981
3.20789
3.73526
4.27329
4.81449
5.35167
5.87784
6.38623
6.87026
7.32367
7.74033
8.11439
8.44023
8.71258
8.9266
9.07792
9.16272
9.17771
9.12021
8.9882
8.78055
8.49688
8.13767
7.70424
7.19887
6.62469
5.98596
5.28779
4.53642
3.73893
2.90334
2.03857
1.15434
0.260158
-0.630729
-1.50774
-2.35897
-3.17202
-3.935
-4.63618
-5.26391
-5.8075
-6.25715
-6.60402
-6.84069
-6.96146
-6.96214
-6.84059
-6.59707
-6.23408
-5.75644
-5.17152
-4.48924
-3.72176
-2.88362
-1.99145
-1.0637
-0.119977
0.817981
1.72873
2.59004
3.38034
4.07883
4.66656
5.12661
5.44472
5.61032
5.61668
5.46135
5.1467
4.68009
4.07378
3.34474
2.5148
1.60994
0.659195
-0.316206
-1.26293
-2.15846
-2.96964
-3.66561
-4.21909
-4.60745
-4.81433
-4.83039
-4.65389
-4.29153
-3.75853
-3.07777
-2.28001
-1.4018
-0.484157
0.427844
1.28977
2.05854
2.6945
3.16473
3.44501
3.52121
3.39059
3.06337
2.56149
1.91821
1.17607
0.383605
-0.407875
-1.14001
-1.76647
-2.24446
-2.54246
-2.64249
-2.54153
-2.25302
-1.80532
-1.23981
-0.60812
0.0361834
0.631804
1.13003
1.4868
1.67302
1.67719
1.5068
1.18847
0.765196
0.292792
-0.200745
-0.613145
-0.929144
-1.11489
-1.15774
-1.06449
-0.859402
-0.580303
-0.270644
0.0245061
0.268482
0.432561
0.502375
0.477887
0.372111
0.207871
0.0139216
-0.179912
-0.345993
-0.463769
-0.519623
-0.509979
-0.44016
-0.322848
-0.175709
-0.018803
0.12811
0.247577
0.326309
0.356372
0.335245
0.266442
0.158484
0.0236405
-0.123407
-0.266945
-0.391682
-0.4841
-0.533605
39.919
39.9143
39.9061
39.8934
39.8812
39.8655
39.8608
39.8411
0.610583
0.739457
0.891194
1.11392
1.41255
1.79415
2.20446
2.66684
3.16261
3.68878
4.23613
4.79722
5.36379
5.92792
6.4818
7.01788
7.52888
8.00788
8.44815
8.8432
9.18678
9.47305
9.69666
9.85288
9.93758
9.94716
9.87863
9.72979
9.49949
9.18735
8.79389
8.32058
7.76989
7.14524
6.45126
5.69349
4.87867
4.01447
3.10957
2.17371
1.21781
0.249878
-0.712116
-1.65902
-2.57754
-3.45427
-4.27635
-5.03114
-5.70611
-6.28976
-6.77155
-7.14198
-7.39314
-7.51896
-7.51494
-7.37868
-7.11074
-6.7139
-6.19343
-5.55742
-4.81665
-3.98434
-3.07629
-2.11054
-1.10711
-0.0871614
0.92582
1.90866
2.83734
3.68859
4.43999
5.07115
5.56394
5.9029
6.0769
6.07865
5.90571
5.56077
5.05203
4.39283
3.60169
2.7023
1.7231
0.696864
-0.36047
-1.38028
-2.34534
-3.21862
-3.96659
-4.55992
-4.97428
-5.19224
-5.20394