/*--------------------------------*- C++ -*----------------------------------*\
  =========                 |
  \\      /  F ield         | OpenFOAM: The Open Source CFD Toolbox
   \\    /   O peration     | Website:  https://openfoam.org
    \\  /    A nd           | Version:  12
     \\/     M anipulation  |
\*---------------------------------------------------------------------------*/
FoamFile
{
    format      ascii;
    class       volVectorField;
    location    "3.08";
    object      U;
}
// * * * * * * * * * * * * * * * * * * * * * * * * * * * * * * * * * * * * * //

dimensions      [0 1 -1 0 0 0 0];

internalField   nonuniform List<vector> 
3829
(
(2.72477e-06 -2.62829e-05 0)
(8.21252e-06 -2.6269e-05 0)
(1.37354e-05 -2.60944e-05 0)
(1.92694e-05 -2.58303e-05 0)
(2.47938e-05 -2.54776e-05 0)
(3.02955e-05 -2.50362e-05 0)
(3.57545e-05 -2.45102e-05 0)
(4.11394e-05 -2.39072e-05 0)
(4.64283e-05 -2.32201e-05 0)
(5.16202e-05 -2.247e-05 0)
(5.66912e-05 -2.1651e-05 0)
(6.16184e-05 -2.07765e-05 0)
(6.64118e-05 -1.98529e-05 0)
(7.1067e-05 -1.88862e-05 0)
(7.55497e-05 -1.78862e-05 0)
(7.98553e-05 -1.68715e-05 0)
(8.39726e-05 -1.58558e-05 0)
(8.78676e-05 -1.485e-05 0)
(9.1545e-05 -1.38672e-05 0)
(9.50036e-05 -1.29197e-05 0)
(9.82447e-05 -1.20177e-05 0)
(0.000101278 -1.1169e-05 0)
(0.000104113 -1.03808e-05 0)
(0.000106765 -9.6576e-06 0)
(0.000109249 -9.00237e-06 0)
(0.000111584 -8.41519e-06 0)
(0.000113784 -7.89488e-06 0)
(0.000115872 -7.4417e-06 0)
(0.000117863 -7.04262e-06 0)
(0.000119769 -6.69435e-06 0)
(0.000121604 -6.38803e-06 0)
(0.000123377 -6.11362e-06 0)
(0.000125098 -5.85995e-06 0)
(0.000126757 -5.61764e-06 0)
(0.000128346 -5.37828e-06 0)
(0.000129861 -5.13376e-06 0)
(0.000131332 -4.86964e-06 0)
(0.000132731 -4.57662e-06 0)
(0.000134051 -4.23755e-06 0)
(0.000135324 -3.85426e-06 0)
(0.000136484 -3.41352e-06 0)
(0.000137543 -2.91002e-06 0)
(0.000138446 -2.34276e-06 0)
(0.000139163 -1.70231e-06 0)
(0.000139703 -9.9355e-07 0)
(0.000139997 -2.1627e-07 0)
(0.000139971 6.2988e-07 0)
(0.00013956 1.55403e-06 0)
(0.000138756 2.54586e-06 0)
(0.000137535 3.59775e-06 0)
(0.000135869 4.70069e-06 0)
(0.000133735 5.84604e-06 0)
(0.000131113 7.01893e-06 0)
(0.000127989 8.21596e-06 0)
(0.000124361 9.41561e-06 0)
(0.000120207 1.06102e-05 0)
(0.000115533 1.17868e-05 0)
(0.000110368 1.29278e-05 0)
(0.000104662 1.40185e-05 0)
(9.8518e-05 1.50527e-05 0)
(9.19584e-05 1.6002e-05 0)
(8.49285e-05 1.68489e-05 0)
(7.75052e-05 1.75857e-05 0)
(6.97355e-05 1.81997e-05 0)
(6.16286e-05 1.86667e-05 0)
(5.33338e-05 1.90047e-05 0)
(4.47795e-05 1.91534e-05 0)
(3.61608e-05 1.91635e-05 0)
(2.75041e-05 1.89733e-05 0)
(1.88406e-05 1.8636e-05 0)
(1.03689e-05 1.81003e-05 0)
(2.094e-06 1.74245e-05 0)
(-5.94703e-06 1.65558e-05 0)
(-1.3609e-05 1.55543e-05 0)
(-2.07483e-05 1.43827e-05 0)
(-2.73886e-05 1.30813e-05 0)
(-3.33521e-05 1.16565e-05 0)
(-3.86648e-05 1.01141e-05 0)
(-4.32094e-05 8.49952e-06 0)
(-4.69318e-05 6.81079e-06 0)
(-4.98608e-05 5.08045e-06 0)
(-5.18678e-05 3.33456e-06 0)
(-5.29899e-05 1.59011e-06 0)
(-5.3181e-05 -1.12322e-07 0)
(-5.23885e-05 -1.77588e-06 0)
(-5.07175e-05 -3.34888e-06 0)
(-4.81905e-05 -4.8269e-06 0)
(-4.48536e-05 -6.18886e-06 0)
(-4.07569e-05 -7.40489e-06 0)
(-3.59779e-05 -8.47329e-06 0)
(-3.06091e-05 -9.36421e-06 0)
(-2.47261e-05 -1.00733e-05 0)
(-1.84247e-05 -1.05956e-05 0)
(-1.1829e-05 -1.09264e-05 0)
(-5.04017e-06 -1.10643e-05 0)
(1.82835e-06 -1.10123e-05 0)
(8.65938e-06 -1.07787e-05 0)
(1.53461e-05 -1.0371e-05 0)
(2.17729e-05 -9.80541e-06 0)
(2.7845e-05 -9.09525e-06 0)
(3.34651e-05 -8.26017e-06 0)
(3.85457e-05 -7.31716e-06 0)
(4.30019e-05 -6.29101e-06 0)
(4.67964e-05 -5.1952e-06 0)
(4.98794e-05 -4.06965e-06 0)
(5.2181e-05 -2.91796e-06 0)
(5.37172e-05 -1.76652e-06 0)
(5.4458e-05 -6.41366e-07 0)
(5.44183e-05 4.48138e-07 0)
(5.36339e-05 1.47288e-06 0)
(5.20993e-05 2.43072e-06 0)
(4.98955e-05 3.30136e-06 0)
(4.70694e-05 4.07774e-06 0)
(4.36738e-05 4.75248e-06 0)
(3.97761e-05 5.31149e-06 0)
(3.54503e-05 5.76303e-06 0)
(3.07741e-05 6.09847e-06 0)
(2.5855e-05 6.3217e-06 0)
(2.07602e-05 6.43278e-06 0)
(1.55553e-05 6.4485e-06 0)
(1.03327e-05 6.35439e-06 0)
(5.17676e-06 6.18555e-06 0)
(1.65558e-07 5.92106e-06 0)
(-4.66113e-06 5.59184e-06 0)
(-9.22909e-06 5.19844e-06 0)
(-1.34853e-05 4.75713e-06 0)
(-1.73809e-05 4.27144e-06 0)
(-2.08807e-05 3.75664e-06 0)
(-2.39409e-05 3.22096e-06 0)
(-2.6557e-05 2.67126e-06 0)
(-2.87085e-05 2.12455e-06 0)
(-3.037e-05 1.58335e-06 0)
(-3.15573e-05 1.05306e-06 0)
(-3.22688e-05 5.49475e-07 0)
(-3.25213e-05 6.55413e-08 0)
(-3.23395e-05 -3.81469e-07 0)
(-3.17296e-05 -7.94798e-07 0)
(-3.07282e-05 -1.17002e-06 0)
(-2.93693e-05 -1.50232e-06 0)
(-2.76772e-05 -1.79169e-06 0)
(-2.56901e-05 -2.03872e-06 0)
(-2.34542e-05 -2.2429e-06 0)
(-2.10091e-05 -2.40227e-06 0)
(-1.83941e-05 -2.51978e-06 0)
(-1.56502e-05 -2.5957e-06 0)
(-1.28127e-05 -2.63358e-06 0)
(-9.9209e-06 -2.63486e-06 0)
(-7.0129e-06 -2.60231e-06 0)
(-4.12698e-06 -2.53995e-06 0)
(-1.30188e-06 -2.45107e-06 0)
(1.44045e-06 -2.33683e-06 0)
(4.07258e-06 -2.2028e-06 0)
(6.56362e-06 -2.05183e-06 0)
(8.89633e-06 -1.88545e-06 0)
(1.10473e-05 -1.70888e-06 0)
(1.30041e-05 -1.5231e-06 0)
(1.47541e-05 -1.33415e-06 0)
(1.62854e-05 -1.14255e-06 0)
(1.75951e-05 -9.51683e-07 0)
(1.86767e-05 -7.64046e-07 0)
(1.95329e-05 -5.80949e-07 0)
(2.01678e-05 -4.06545e-07 0)
(2.05835e-05 -2.39902e-07 0)
(2.07884e-05 -8.46273e-08 0)
(2.07948e-05 6.00048e-08 0)
(2.06156e-05 1.91761e-07 0)
(2.02627e-05 3.09969e-07 0)
(1.97508e-05 4.14451e-07 0)
(1.90951e-05 5.04983e-07 0)
(1.83115e-05 5.81237e-07 0)
(1.7422e-05 6.43934e-07 0)
(1.64419e-05 6.92821e-07 0)
(1.53818e-05 7.29152e-07 0)
(1.4268e-05 7.53244e-07 0)
(1.3117e-05 7.66082e-07 0)
(1.19385e-05 7.67972e-07 0)
(1.0749e-05 7.60711e-07 0)
(9.56904e-06 7.44603e-07 0)
(8.40429e-06 7.20786e-07 0)
(7.27072e-06 6.90195e-07 0)
(6.1832e-06 6.52851e-07 0)
(5.14402e-06 6.10721e-07 0)
(4.16713e-06 5.64021e-07 0)
(3.2593e-06 5.13931e-07 0)
(2.43124e-06 4.60597e-07 0)
(1.68767e-06 4.05877e-07 0)
(1.03016e-06 3.50078e-07 0)
(4.61222e-07 2.94483e-07 0)
(-1.02366e-08 2.39983e-07 0)
(-3.8734e-07 1.87312e-07 0)
(-6.795e-07 1.36646e-07 0)
(-8.84895e-07 8.91338e-08 0)
(-1.00752e-06 4.53669e-08 0)
(-1.05247e-06 5.72844e-09 0)
(-1.02646e-06 -2.98677e-08 0)
(-9.37011e-07 -6.03762e-08 0)
(-7.9223e-07 -8.55189e-08 0)
(-6.0181e-07 -1.0496e-07 0)
(-3.76428e-07 -1.1825e-07 0)
(-1.28197e-07 -1.24999e-07 0)
(3.51789e-06 -8.18293e-05 0)
(1.05938e-05 -8.17013e-05 0)
(1.76926e-05 -8.10445e-05 0)
(2.47727e-05 -8.00571e-05 0)
(3.17992e-05 -7.87348e-05 0)
(3.8734e-05 -7.70911e-05 0)
(4.54915e-05 -7.51314e-05 0)
(5.21383e-05 -7.28832e-05 0)
(5.85421e-05 -7.03582e-05 0)
(6.46931e-05 -6.75905e-05 0)
(7.06408e-05 -6.4613e-05 0)
(7.62599e-05 -6.14603e-05 0)
(8.16265e-05 -5.81728e-05 0)
(8.6716e-05 -5.47869e-05 0)
(9.13968e-05 -5.13429e-05 0)
(9.56427e-05 -4.78881e-05 0)
(9.95113e-05 -4.44581e-05 0)
(0.000102978 -4.1105e-05 0)
(0.000106044 -3.787e-05 0)
(0.000108736 -3.47939e-05 0)
(0.000111095 -3.19097e-05 0)
(0.000113156 -2.92469e-05 0)
(0.000114954 -2.68265e-05 0)
(0.000116539 -2.46635e-05 0)
(0.000117959 -2.27696e-05 0)
(0.000119258 -2.11343e-05 0)
(0.000120453 -1.97535e-05 0)
(0.000121644 -1.86119e-05 0)
(0.000122867 -1.76849e-05 0)
(0.000124102 -1.69452e-05 0)
(0.000125404 -1.63389e-05 0)
(0.000126794 -1.58758e-05 0)
(0.00012827 -1.5496e-05 0)
(0.000129802 -1.51805e-05 0)
(0.000131369 -1.48795e-05 0)
(0.000133003 -1.45431e-05 0)
(0.000134734 -1.41096e-05 0)
(0.000136544 -1.35759e-05 0)
(0.000138359 -1.28856e-05 0)
(0.000140181 -1.2012e-05 0)
(0.000141984 -1.0932e-05 0)
(0.000143709 -9.62268e-06 0)
(0.000145319 -8.0739e-06 0)
(0.000146753 -6.26827e-06 0)
(0.000147966 -4.20687e-06 0)
(0.00014892 -1.89497e-06 0)
(0.000149589 6.59873e-07 0)
(0.000149849 3.46505e-06 0)
(0.000149605 6.52014e-06 0)
(0.000148842 9.7807e-06 0)
(0.000147531 1.3218e-05 0)
(0.000145622 1.67947e-05 0)
(0.000143125 2.04816e-05 0)
(0.000139997 2.42378e-05 0)
(0.000136219 2.79991e-05 0)
(0.000131816 3.17617e-05 0)
(0.000126749 3.54438e-05 0)
(0.000121045 3.90485e-05 0)
(0.000114712 4.24836e-05 0)
(0.00010779 4.57131e-05 0)
(0.000100259 4.86641e-05 0)
(9.21633e-05 5.13082e-05 0)
(8.36058e-05 5.36079e-05 0)
(7.45631e-05 5.55054e-05 0)
(6.51828e-05 5.69626e-05 0)
(5.54608e-05 5.79523e-05 0)
(4.54671e-05 5.84294e-05 0)
(3.53982e-05 5.84097e-05 0)
(2.52857e-05 5.78243e-05 0)
(1.52103e-05 5.67343e-05 0)
(5.38605e-06 5.50863e-05 0)
(-4.18488e-06 5.2916e-05 0)
(-1.34648e-05 5.02043e-05 0)
(-2.22429e-05 4.70306e-05 0)
(-3.04616e-05 4.33714e-05 0)
(-3.79745e-05 3.93022e-05 0)
(-4.47409e-05 3.48579e-05 0)
(-5.06427e-05 3.00925e-05 0)
(-5.55994e-05 2.50712e-05 0)
(-5.96096e-05 1.98621e-05 0)
(-6.26019e-05 1.45196e-05 0)
(-6.45136e-05 9.16207e-06 0)
(-6.5336e-05 3.82134e-06 0)
(-6.50988e-05 -1.39154e-06 0)
(-6.37165e-05 -6.42713e-06 0)
(-6.12726e-05 -1.12126e-05 0)
(-5.79034e-05 -1.56768e-05 0)
(-5.35702e-05 -1.97565e-05 0)
(-4.8392e-05 -2.33938e-05 0)
(-4.24516e-05 -2.65398e-05 0)
(-3.58349e-05 -2.91528e-05 0)
(-2.87025e-05 -3.12024e-05 0)
(-2.11486e-05 -3.26709e-05 0)
(-1.33092e-05 -3.35482e-05 0)
(-5.31e-06 -3.38386e-05 0)
(2.70635e-06 -3.35534e-05 0)
(1.06106e-05 -3.27177e-05 0)
(1.82751e-05 -3.13645e-05 0)
(2.55683e-05 -2.9541e-05 0)
(3.23897e-05 -2.72866e-05 0)
(3.86351e-05 -2.46677e-05 0)
(4.42058e-05 -2.17412e-05 0)
(4.90313e-05 -1.85757e-05 0)
(5.3036e-05 -1.52287e-05 0)
(5.6202e-05 -1.17803e-05 0)
(5.85026e-05 -8.28981e-06 0)
(5.98944e-05 -4.82315e-06 0)
(6.03979e-05 -1.44177e-06 0)
(6.00239e-05 1.80776e-06 0)
(5.88296e-05 4.85827e-06 0)
(5.68362e-05 7.68788e-06 0)
(5.41132e-05 1.02519e-05 0)
(5.07426e-05 1.25151e-05 0)
(4.67612e-05 1.44639e-05 0)
(4.22758e-05 1.60756e-05 0)
(3.73744e-05 1.73541e-05 0)
(3.21241e-05 1.8287e-05 0)
(2.66535e-05 1.88858e-05 0)
(2.10592e-05 1.91603e-05 0)
(1.53721e-05 1.91323e-05 0)
(9.72521e-06 1.88033e-05 0)
(4.18786e-06 1.8232e-05 0)
(-1.17396e-06 1.74162e-05 0)
(-6.27246e-06 1.64005e-05 0)
(-1.10691e-05 1.52041e-05 0)
(-1.55052e-05 1.38654e-05 0)
(-1.95358e-05 1.24134e-05 0)
(-2.31173e-05 1.08788e-05 0)
(-2.62251e-05 9.29015e-06 0)
(-2.88379e-05 7.67427e-06 0)
(-3.09457e-05 6.05821e-06 0)
(-3.25481e-05 4.4657e-06 0)
(-3.36349e-05 2.92062e-06 0)
(-3.42303e-05 1.43887e-06 0)
(-3.43493e-05 3.71331e-08 0)
(-3.40093e-05 -1.26491e-06 0)
(-3.32425e-05 -2.46214e-06 0)
(-3.20701e-05 -3.54485e-06 0)
(-3.05348e-05 -4.5039e-06 0)
(-2.86712e-05 -5.33734e-06 0)
(-2.65167e-05 -6.04313e-06 0)
(-2.41126e-05 -6.62078e-06 0)
(-2.15047e-05 -7.07026e-06 0)
(-1.87364e-05 -7.39861e-06 0)
(-1.58493e-05 -7.60562e-06 0)
(-1.28805e-05 -7.70305e-06 0)
(-9.86757e-06 -7.69474e-06 0)
(-6.85267e-06 -7.59105e-06 0)
(-3.87454e-06 -7.39814e-06 0)
(-9.66751e-07 -7.12755e-06 0)
(1.84541e-06 -6.78908e-06 0)
(4.53208e-06 -6.39132e-06 0)
(7.06937e-06 -5.94366e-06 0)
(9.4366e-06 -5.45615e-06 0)
(1.16115e-05 -4.93728e-06 0)
(1.35809e-05 -4.39827e-06 0)
(1.53331e-05 -3.84415e-06 0)
(1.68605e-05 -3.28769e-06 0)
(1.81577e-05 -2.73105e-06 0)
(1.92213e-05 -2.18557e-06 0)
(2.00521e-05 -1.65548e-06 0)
(2.06573e-05 -1.14682e-06 0)
(2.10401e-05 -6.64988e-07 0)
(2.12088e-05 -2.13899e-07 0)
(2.11777e-05 2.02464e-07 0)
(2.09578e-05 5.82366e-07 0)
(2.0564e-05 9.22867e-07 0)
(2.00114e-05 1.22282e-06 0)
(1.93152e-05 1.48297e-06 0)
(1.84926e-05 1.70234e-06 0)
(1.75656e-05 1.88216e-06 0)
(1.65499e-05 2.02012e-06 0)
(1.54572e-05 2.12313e-06 0)
(1.43131e-05 2.1926e-06 0)
(1.31342e-05 2.22586e-06 0)
(1.19309e-05 2.22949e-06 0)
(1.07197e-05 2.20525e-06 0)
(9.52027e-06 2.15966e-06 0)
(8.33898e-06 2.08779e-06 0)
(7.19037e-06 1.99979e-06 0)
(6.09047e-06 1.88953e-06 0)
(5.0417e-06 1.76716e-06 0)
(4.05702e-06 1.63117e-06 0)
(3.14308e-06 1.4838e-06 0)
(2.31128e-06 1.33151e-06 0)
(1.56643e-06 1.17039e-06 0)
(9.09398e-07 1.0085e-06 0)
(3.43255e-07 8.46212e-07 0)
(-1.23738e-07 6.90743e-07 0)
(-4.95514e-07 5.36722e-07 0)
(-7.81095e-07 3.90137e-07 0)
(-9.78269e-07 2.52939e-07 0)
(-1.09187e-06 1.26028e-07 0)
(-1.12769e-06 1.08895e-08 0)
(-1.09181e-06 -9.15832e-08 0)
(-9.91418e-07 -1.79663e-07 0)
(-8.35342e-07 -2.52324e-07 0)
(-6.33135e-07 -3.08587e-07 0)
(-3.95514e-07 -3.47058e-07 0)
(-1.34616e-07 -3.66591e-07 0)
(5.45939e-06 -0.000152858 0)
(1.6412e-05 -0.000152352 0)
(2.73266e-05 -0.000150735 0)
(3.81538e-05 -0.000148287 0)
(4.87753e-05 -0.000145031 0)
(5.91038e-05 -0.000140986 0)
(6.90144e-05 -0.00013619 0)
(7.8446e-05 -0.000130682 0)
(8.73295e-05 -0.000124548 0)
(9.55187e-05 -0.000117859 0)
(0.000103015 -0.000110703 0)
(0.000109746 -0.000103208 0)
(0.000115734 -9.54435e-05 0)
(0.000120996 -8.75537e-05 0)
(0.000125429 -7.96992e-05 0)
(0.00012908 -7.19786e-05 0)
(0.000131933 -6.45274e-05 0)
(0.000133937 -5.74831e-05 0)
(0.000135193 -5.09242e-05 0)
(0.000135775 -4.49318e-05 0)
(0.000135778 -3.95665e-05 0)
(0.000135305 -3.48699e-05 0)
(0.000134472 -3.08474e-05 0)
(0.000133362 -2.75074e-05 0)
(0.000132155 -2.48622e-05 0)
(0.000130972 -2.28702e-05 0)
(0.00012985 -2.1533e-05 0)
(0.000128938 -2.07658e-05 0)
(0.000128316 -2.05293e-05 0)
(0.000128151 -2.06751e-05 0)
(0.000128234 -2.12186e-05 0)
(0.000128594 -2.20095e-05 0)
(0.000129395 -2.28835e-05 0)
(0.000130553 -2.37946e-05 0)
(0.000132213 -2.46446e-05 0)
(0.000134425 -2.53277e-05 0)
(0.000136944 -2.57544e-05 0)
(0.0001397 -2.58441e-05 0)
(0.000142796 -2.55194e-05 0)
(0.000146069 -2.47481e-05 0)
(0.000149432 -2.3473e-05 0)
(0.000152816 -2.16581e-05 0)
(0.000156132 -1.92852e-05 0)
(0.00015929 -1.63419e-05 0)
(0.000162179 -1.28315e-05 0)
(0.000164703 -8.76394e-06 0)
(0.000166857 -4.17685e-06 0)
(0.000168605 8.96228e-07 0)
(0.000169687 6.41553e-06 0)
(0.000169953 1.23889e-05 0)
(0.000169423 1.8707e-05 0)
(0.000168078 2.53106e-05 0)
(0.000165898 3.21341e-05 0)
(0.00016272 3.90662e-05 0)
(0.000158718 4.60619e-05 0)
(0.000153814 5.30022e-05 0)
(0.000148048 5.98074e-05 0)
(0.000141418 6.64113e-05 0)
(0.000133727 7.27038e-05 0)
(0.000125169 7.85806e-05 0)
(0.000115808 8.39705e-05 0)
(0.000105759 8.8764e-05 0)
(9.49922e-05 9.28968e-05 0)
(8.35558e-05 9.6287e-05 0)
(7.16043e-05 9.88841e-05 0)
(5.9251e-05 0.000100594 0)
(4.66127e-05 0.000101427 0)
(3.38005e-05 0.000101301 0)
(2.10089e-05 0.000100225 0)
(8.3386e-06 9.81731e-05 0)
(-4.10857e-06 9.51517e-05 0)
(-1.62055e-05 9.11556e-05 0)
(-2.77634e-05 8.62503e-05 0)
(-3.86446e-05 8.04758e-05 0)
(-4.87472e-05 7.38923e-05 0)
(-5.78813e-05 6.65874e-05 0)
(-6.5967e-05 5.86336e-05 0)
(-7.29253e-05 5.01549e-05 0)
(-7.86165e-05 4.12458e-05 0)
(-8.3038e-05 3.20336e-05 0)
(-8.60575e-05 2.26554e-05 0)
(-8.76488e-05 1.32339e-05 0)
(-8.78864e-05 3.91103e-06 0)
(-8.66883e-05 -5.1467e-06 0)
(-8.41331e-05 -1.38371e-05 0)
(-8.02718e-05 -2.20546e-05 0)
(-7.51871e-05 -2.96644e-05 0)
(-6.89647e-05 -3.6548e-05 0)
(-6.17154e-05 -4.26257e-05 0)
(-5.35757e-05 -4.78024e-05 0)
(-4.46993e-05 -5.20309e-05 0)
(-3.52468e-05 -5.52543e-05 0)
(-2.53743e-05 -5.74487e-05 0)
(-1.52688e-05 -5.86124e-05 0)
(-5.09386e-06 -5.87558e-05 0)
(4.97995e-06 -5.79081e-05 0)
(1.47812e-05 -5.61298e-05 0)
(2.41471e-05 -5.34787e-05 0)
(3.29511e-05 -5.00425e-05 0)
(4.1059e-05 -4.59058e-05 0)
(4.83368e-05 -4.11836e-05 0)
(5.47022e-05 -3.59746e-05 0)
(6.00818e-05 -3.04018e-05 0)
(6.44161e-05 -2.458e-05 0)
(6.76673e-05 -1.86208e-05 0)
(6.98186e-05 -1.26456e-05 0)
(7.08825e-05 -6.75871e-06 0)
(7.08912e-05 -1.05613e-06 0)
(6.98558e-05 4.35327e-06 0)
(6.78792e-05 9.43494e-06 0)
(6.50191e-05 1.40597e-05 0)
(6.13293e-05 1.8236e-05 0)
(5.69357e-05 2.18735e-05 0)
(5.19212e-05 2.49581e-05 0)
(4.63968e-05 2.74705e-05 0)
(4.04619e-05 2.94084e-05 0)
(3.42098e-05 3.07782e-05 0)
(2.77966e-05 3.15997e-05 0)
(2.13119e-05 3.18828e-05 0)
(1.47982e-05 3.16622e-05 0)
(8.42457e-06 3.09795e-05 0)
(2.26247e-06 2.98847e-05 0)
(-3.64474e-06 2.84246e-05 0)
(-9.21164e-06 2.66388e-05 0)
(-1.43865e-05 2.45824e-05 0)
(-1.91e-05 2.23085e-05 0)
(-2.33224e-05 1.98651e-05 0)
(-2.7024e-05 1.73035e-05 0)
(-3.01736e-05 1.46711e-05 0)
(-3.2771e-05 1.20163e-05 0)
(-3.4807e-05 9.36996e-06 0)
(-3.62671e-05 6.78042e-06 0)
(-3.71809e-05 4.27438e-06 0)
(-3.75651e-05 1.88465e-06 0)
(-3.74316e-05 -3.58994e-07 0)
(-3.68261e-05 -2.44896e-06 0)
(-3.57766e-05 -4.34846e-06 0)
(-3.43112e-05 -6.06571e-06 0)
(-3.24788e-05 -7.57593e-06 0)
(-3.03174e-05 -8.87909e-06 0)
(-2.78673e-05 -9.97449e-06 0)
(-2.51772e-05 -1.08616e-05 0)
(-2.22993e-05 -1.15477e-05 0)
(-1.92728e-05 -1.20338e-05 0)
(-1.61452e-05 -1.23318e-05 0)
(-1.29576e-05 -1.24516e-05 0)
(-9.74602e-06 -1.24064e-05 0)
(-6.55162e-06 -1.22087e-05 0)
(-3.41344e-06 -1.18723e-05 0)
(-3.73945e-07 -1.14144e-05 0)
(2.54991e-06 -1.0848e-05 0)
(5.33197e-06 -1.01909e-05 0)
(7.94114e-06 -9.45831e-06 0)
(1.0362e-05 -8.6636e-06 0)
(1.25706e-05 -7.82442e-06 0)
(1.45602e-05 -6.95266e-06 0)
(1.63169e-05 -6.06085e-06 0)
(1.78338e-05 -5.16361e-06 0)
(1.91106e-05 -4.27381e-06 0)
(2.01388e-05 -3.39967e-06 0)
(2.09287e-05 -2.55583e-06 0)
(2.14834e-05 -1.74392e-06 0)
(2.18084e-05 -9.78896e-07 0)
(2.19143e-05 -2.61974e-07 0)
(2.18166e-05 3.97802e-07 0)
(2.15293e-05 9.97476e-07 0)
(2.10656e-05 1.53444e-06 0)
(2.04448e-05 2.00662e-06 0)
(1.96822e-05 2.41367e-06 0)
(1.87945e-05 2.75587e-06 0)
(1.78021e-05 3.03415e-06 0)
(1.67265e-05 3.2491e-06 0)
(1.55828e-05 3.40578e-06 0)
(1.43861e-05 3.5086e-06 0)
(1.31586e-05 3.55608e-06 0)
(1.19145e-05 3.55844e-06 0)
(1.067e-05 3.51544e-06 0)
(9.43842e-06 3.43707e-06 0)
(8.22884e-06 3.32031e-06 0)
(7.05586e-06 3.17555e-06 0)
(5.93415e-06 2.99967e-06 0)
(4.87067e-06 2.80252e-06 0)
(3.87094e-06 2.58474e-06 0)
(2.94959e-06 2.3492e-06 0)
(2.11116e-06 2.10452e-06 0)
(1.36169e-06 1.8489e-06 0)
(7.06741e-07 1.58944e-06 0)
(1.47725e-07 1.33133e-06 0)
(-3.12017e-07 1.08238e-06 0)
(-6.7702e-07 8.37245e-07 0)
(-9.49913e-07 6.04916e-07 0)
(-1.13366e-06 3.869e-07 0)
(-1.23288e-06 1.85595e-07 0)
(-1.25281e-06 2.9851e-09 0)
(-1.19992e-06 -1.58891e-07 0)
(-1.08169e-06 -2.98275e-07 0)
(-9.06978e-07 -4.13361e-07 0)
(-6.85225e-07 -5.02649e-07 0)
(-4.27259e-07 -5.63732e-07 0)
(-1.45343e-07 -5.94859e-07 0)
(9.55736e-06 -0.000256639 0)
(2.85916e-05 -0.000255167 0)
(4.75772e-05 -0.000251586 0)
(6.62465e-05 -0.000246198 0)
(8.42892e-05 -0.000239052 0)
(0.000101589 -0.000230214 0)
(0.000117922 -0.000219786 0)
(0.00013304 -0.000207913 0)
(0.00014665 -0.000194699 0)
(0.000158743 -0.000180301 0)
(0.00016905 -0.000164843 0)
(0.000177599 -0.00014865 0)
(0.000184406 -0.000132 0)
(0.000188947 -0.000115274 0)
(0.000191426 -9.8797e-05 0)
(0.00019204 -8.28696e-05 0)
(0.000190654 -6.78328e-05 0)
(0.000187631 -5.41242e-05 0)
(0.00018336 -4.19211e-05 0)
(0.000178008 -3.12812e-05 0)
(0.000171876 -2.23198e-05 0)
(0.000165337 -1.5115e-05 0)
(0.000158631 -9.7159e-06 0)
(0.00015177 -6.10217e-06 0)
(0.000145092 -4.18016e-06 0)
(0.000138706 -3.8156e-06 0)
(0.000132844 -4.91701e-06 0)
(0.000127817 -7.20195e-06 0)
(0.000123969 -1.05697e-05 0)
(0.00012099 -1.4668e-05 0)
(0.000118881 -1.92896e-05 0)
(0.00011855 -2.40949e-05 0)
(0.000119443 -2.88282e-05 0)
(0.000121152 -3.32225e-05 0)
(0.000123945 -3.72316e-05 0)
(0.00012778 -4.06417e-05 0)
(0.000132502 -4.33806e-05 0)
(0.000138001 -4.52529e-05 0)
(0.000143975 -4.62283e-05 0)
(0.000150295 -4.62098e-05 0)
(0.000156936 -4.51486e-05 0)
(0.000163646 -4.30136e-05 0)
(0.000170271 -3.97984e-05 0)
(0.000176648 -3.55116e-05 0)
(0.00018263 -3.01764e-05 0)
(0.000188028 -2.38288e-05 0)
(0.000192724 -1.6544e-05 0)
(0.000196609 -8.4205e-06 0)
(0.000199752 4.68142e-07 0)
(0.000201848 1.00235e-05 0)
(0.000202609 2.01968e-05 0)
(0.000202195 3.08007e-05 0)
(0.000200422 4.17484e-05 0)
(0.000197337 5.28702e-05 0)
(0.000192936 6.40581e-05 0)
(0.000187123 7.51781e-05 0)
(0.000180096 8.60607e-05 0)
(0.00017178 9.65458e-05 0)
(0.000162039 0.000106496 0)
(0.000151099 0.000115756 0)
(0.000138958 0.000124186 0)
(0.000125711 0.000131686 0)
(0.000111565 0.000138082 0)
(9.65679e-05 0.00014329 0)
(8.08396e-05 0.000147241 0)
(6.46078e-05 0.000149815 0)
(4.80049e-05 0.000150968 0)
(3.12136e-05 0.000150643 0)
(1.44741e-05 0.000148828 0)
(-2.13431e-06 0.000145474 0)
(-1.83429e-05 0.000140642 0)
(-3.39578e-05 0.000134333 0)
(-4.87863e-05 0.000126647 0)
(-6.26481e-05 0.000117629 0)
(-7.53562e-05 0.000107431 0)
(-8.67427e-05 9.61414e-05 0)
(-9.66612e-05 8.3928e-05 0)
(-0.000104957 7.09398e-05 0)
(-0.000111567 5.73779e-05 0)
(-0.00011638 4.34126e-05 0)
(-0.000119354 2.92742e-05 0)
(-0.000120452 1.51262e-05 0)
(-0.000119577 1.22289e-06 0)
(-0.000116882 -1.22541e-05 0)
(-0.00011249 -2.51048e-05 0)
(-0.000106416 -3.71409e-05 0)
(-9.87813e-05 -4.81798e-05 0)
(-8.97244e-05 -5.80646e-05 0)
(-7.94387e-05 -6.6662e-05 0)
(-6.81141e-05 -7.38688e-05 0)
(-5.59547e-05 -7.95878e-05 0)
(-4.31868e-05 -8.37882e-05 0)
(-3.0054e-05 -8.64221e-05 0)
(-1.67831e-05 -8.75184e-05 0)
(-3.57743e-06 -8.70924e-05 0)
(9.30187e-06 -8.52381e-05 0)
(2.16617e-05 -8.20211e-05 0)
(3.33174e-05 -7.75721e-05 0)
(4.4087e-05 -7.20071e-05 0)
(5.38223e-05 -6.54852e-05 0)
(6.24e-05 -5.81729e-05 0)
(6.97213e-05 -5.02358e-05 0)
(7.56987e-05 -4.1853e-05 0)
(8.0301e-05 -3.31952e-05 0)
(8.35134e-05 -2.44333e-05 0)
(8.53449e-05 -1.5735e-05 0)
(8.58264e-05 -7.24185e-06 0)
(8.49854e-05 8.79886e-07 0)
(8.29755e-05 8.54152e-06 0)
(7.9828e-05 1.56349e-05 0)
(7.56653e-05 2.20542e-05 0)
(7.06436e-05 2.77357e-05 0)
(6.48069e-05 3.26378e-05 0)
(5.8346e-05 3.67211e-05 0)
(5.13903e-05 3.99768e-05 0)
(4.40786e-05 4.24029e-05 0)
(3.65232e-05 4.40253e-05 0)
(2.88601e-05 4.48761e-05 0)
(2.1209e-05 4.49748e-05 0)
(1.36567e-05 4.43779e-05 0)
(6.36245e-06 4.31856e-05 0)
(-6.01354e-07 4.1421e-05 0)
(-7.19577e-06 3.91773e-05 0)
(-1.33249e-05 3.65092e-05 0)
(-1.89321e-05 3.34968e-05 0)
(-2.39755e-05 3.02137e-05 0)
(-2.84216e-05 2.67285e-05 0)
(-3.22358e-05 2.31129e-05 0)
(-3.54027e-05 1.94252e-05 0)
(-3.79361e-05 1.57244e-05 0)
(-3.98319e-05 1.20763e-05 0)
(-4.10977e-05 8.51404e-06 0)
(-4.17565e-05 5.09037e-06 0)
(-4.18304e-05 1.84805e-06 0)
(-4.13757e-05 -1.18321e-06 0)
(-4.04051e-05 -3.99274e-06 0)
(-3.89756e-05 -6.53641e-06 0)
(-3.71283e-05 -8.81284e-06 0)
(-3.48948e-05 -1.08069e-05 0)
(-3.23469e-05 -1.25163e-05 0)
(-2.95208e-05 -1.39325e-05 0)
(-2.647e-05 -1.50736e-05 0)
(-2.32426e-05 -1.59353e-05 0)
(-1.98873e-05 -1.65323e-05 0)
(-1.64577e-05 -1.68775e-05 0)
(-1.29918e-05 -1.69804e-05 0)
(-9.52939e-06 -1.68659e-05 0)
(-6.11192e-06 -1.65475e-05 0)
(-2.78275e-06 -1.6044e-05 0)
(4.26074e-07 -1.53884e-05 0)
(3.49073e-06 -1.45929e-05 0)
(6.38059e-06 -1.36761e-05 0)
(9.07803e-06 -1.266e-05 0)
(1.15613e-05 -1.15683e-05 0)
(1.3811e-05 -1.04174e-05 0)
(1.58224e-05 -9.22407e-06 0)
(1.75811e-05 -8.01568e-06 0)
(1.90804e-05 -6.79864e-06 0)
(2.03242e-05 -5.59832e-06 0)
(2.13072e-05 -4.4213e-06 0)
(2.20395e-05 -3.28424e-06 0)
(2.25286e-05 -2.20083e-06 0)
(2.27786e-05 -1.17746e-06 0)
(2.28054e-05 -2.24042e-07 0)
(2.26217e-05 6.55004e-07 0)
(2.22461e-05 1.4514e-06 0)
(2.16946e-05 2.16192e-06 0)
(2.09854e-05 2.78502e-06 0)
(2.0136e-05 3.31853e-06 0)
(1.91647e-05 3.76494e-06 0)
(1.80937e-05 4.12404e-06 0)
(1.69434e-05 4.40338e-06 0)
(1.57292e-05 4.60061e-06 0)
(1.44691e-05 4.725e-06 0)
(1.31855e-05 4.78242e-06 0)
(1.18902e-05 4.77626e-06 0)
(1.05992e-05 4.71446e-06 0)
(9.3284e-06 4.59887e-06 0)
(8.08448e-06 4.43889e-06 0)
(6.88179e-06 4.2371e-06 0)
(5.73535e-06 4.00209e-06 0)
(4.65134e-06 3.73388e-06 0)
(3.63525e-06 3.43974e-06 0)
(2.70154e-06 3.12505e-06 0)
(1.85649e-06 2.79231e-06 0)
(1.10343e-06 2.45126e-06 0)
(4.49569e-07 2.10083e-06 0)
(-1.02e-07 1.75776e-06 0)
(-5.52579e-07 1.42003e-06 0)
(-9.05407e-07 1.09304e-06 0)
(-1.16323e-06 7.82703e-07 0)
(-1.33e-06 4.92104e-07 0)
(-1.41027e-06 2.24286e-07 0)
(-1.41015e-06 -1.84746e-08 0)
(-1.336e-06 -2.3371e-07 0)
(-1.19535e-06 -4.19113e-07 0)
(-9.97293e-07 -5.72247e-07 0)
(-7.50989e-07 -6.91311e-07 0)
(-4.67395e-07 -7.72931e-07 0)
(-1.58933e-07 -8.1465e-07 0)
(1.73102e-05 -0.000428474 0)
(5.17833e-05 -0.000424923 0)
(8.59051e-05 -0.000417369 0)
(0.000119123 -0.000406029 0)
(0.000150888 -0.000390974 0)
(0.000180808 -0.000372362 0)
(0.000208323 -0.00035046 0)
(0.000233396 -0.000325647 0)
(0.000255917 -0.000298386 0)
(0.000275698 -0.000269356 0)
(0.000291825 -0.000239212 0)
(0.00030344 -0.000208643 0)
(0.000310371 -0.00017827 0)
(0.00031245 -0.000148717 0)
(0.000310187 -0.000120351 0)
(0.000303673 -9.35179e-05 0)
(0.000292273 -6.84986e-05 0)
(0.000276973 -4.5423e-05 0)
(0.000260002 -2.49028e-05 0)
(0.000241805 -7.27842e-06 0)
(0.000222422 7.08449e-06 0)
(0.000202344 1.79758e-05 0)
(0.000182205 2.53006e-05 0)
(0.000162784 2.90917e-05 0)
(0.000144807 2.94619e-05 0)
(0.000128341 2.67701e-05 0)
(0.000114101 2.13141e-05 0)
(0.000102239 1.36717e-05 0)
(9.31139e-05 4.3681e-06 0)
(8.72536e-05 -6.00707e-06 0)
(8.43264e-05 -1.67677e-05 0)
(8.45927e-05 -2.77301e-05 0)
(8.77127e-05 -3.85619e-05 0)
(9.2579e-05 -4.89278e-05 0)
(9.90637e-05 -5.83439e-05 0)
(0.00010728 -6.65385e-05 0)
(0.000116868 -7.3188e-05 0)
(0.000127551 -7.81983e-05 0)
(0.000138943 -8.14011e-05 0)
(0.000150947 -8.26483e-05 0)
(0.000163199 -8.19466e-05 0)
(0.00017543 -7.93114e-05 0)
(0.000187389 -7.47452e-05 0)
(0.000198861 -6.83335e-05 0)
(0.000209635 -6.01961e-05 0)
(0.000219417 -5.0452e-05 0)
(0.000227971 -3.91776e-05 0)
(0.000235282 -2.663e-05 0)
(0.000241154 -1.29124e-05 0)
(0.000245532 1.6579e-06 0)
(0.000248106 1.7097e-05 0)
(0.000248768 3.31563e-05 0)
(0.000247579 4.96581e-05 0)
(0.000244356 6.63448e-05 0)
(0.000239409 8.30518e-05 0)
(0.000232483 9.95769e-05 0)
(0.000223583 0.000115689 0)
(0.000212838 0.000131064 0)
(0.000200107 0.000145611 0)
(0.00018561 0.000159091 0)
(0.000169619 0.00017129 0)
(0.00015216 0.000182036 0)
(0.000133314 0.00019119 0)
(0.000113471 0.000198561 0)
(9.26842e-05 0.000204016 0)
(7.11812e-05 0.000207527 0)
(4.92743e-05 0.000208893 0)
(2.71883e-05 0.000208155 0)
(5.15226e-06 0.000205222 0)
(-1.65289e-05 0.00020014 0)
(-3.7584e-05 0.000192925 0)
(-5.77883e-05 0.000183656 0)
(-7.68397e-05 0.000172422 0)
(-9.44634e-05 0.000159365 0)
(-0.000110457 0.000144643 0)
(-0.00012462 0.000128447 0)
(-0.000136718 0.000111001 0)
(-0.000146612 9.25375e-05 0)
(-0.000154157 7.33324e-05 0)
(-0.00015929 5.36688e-05 0)
(-0.000161935 3.38551e-05 0)
(-0.000162052 1.41821e-05 0)
(-0.000159685 -5.05275e-06 0)
(-0.000154947 -2.36086e-05 0)
(-0.00014793 -4.11614e-05 0)
(-0.00013876 -5.74505e-05 0)
(-0.000127638 -7.2231e-05 0)
(-0.000114786 -8.53073e-05 0)
(-0.00010047 -9.64675e-05 0)
(-8.49355e-05 -0.000105654 0)
(-6.85186e-05 -0.000112691 0)
(-5.15078e-05 -0.000117583 0)
(-3.42024e-05 -0.000120295 0)
(-1.6932e-05 -0.000120854 0)
(1.45006e-09 -0.000119344 0)
(1.63184e-05 -0.000115899 0)
(3.17834e-05 -0.000110646 0)
(4.61406e-05 -0.000103777 0)
(5.92167e-05 -9.54883e-05 0)
(7.07981e-05 -8.59986e-05 0)
(8.07635e-05 -7.55327e-05 0)
(8.90248e-05 -6.43633e-05 0)
(9.55237e-05 -5.27178e-05 0)
(0.000100243 -4.08524e-05 0)
(0.000103178 -2.89518e-05 0)
(0.000104395 -1.72731e-05 0)
(0.00010393 -6.02217e-06 0)
(0.000101931 4.67284e-06 0)
(9.85519e-05 1.46466e-05 0)
(9.38659e-05 2.37362e-05 0)
(8.80316e-05 3.18958e-05 0)
(8.12391e-05 3.90006e-05 0)
(7.36522e-05 4.50253e-05 0)
(6.54277e-05 4.99249e-05 0)
(5.67442e-05 5.37436e-05 0)
(4.77629e-05 5.64643e-05 0)
(3.86356e-05 5.81227e-05 0)
(2.95015e-05 5.87875e-05 0)
(2.04885e-05 5.85024e-05 0)
(1.17699e-05 5.73591e-05 0)
(3.45145e-06 5.54573e-05 0)
(-4.41585e-06 5.28787e-05 0)
(-1.17451e-05 4.96951e-05 0)
(-1.84788e-05 4.60401e-05 0)
(-2.45446e-05 4.197e-05 0)
(-2.99014e-05 3.76017e-05 0)
(-3.45294e-05 3.30201e-05 0)
(-3.84219e-05 2.8309e-05 0)
(-4.1574e-05 2.35536e-05 0)
(-4.39828e-05 1.8809e-05 0)
(-4.56835e-05 1.41648e-05 0)
(-4.66866e-05 9.66834e-06 0)
(-4.70112e-05 5.3745e-06 0)
(-4.67116e-05 1.32105e-06 0)
(-4.58511e-05 -2.45534e-06 0)
(-4.44552e-05 -5.90934e-06 0)
(-4.2569e-05 -9.03827e-06 0)
(-4.02619e-05 -1.18097e-05 0)
(-3.75803e-05 -1.42213e-05 0)
(-3.45753e-05 -1.62697e-05 0)
(-3.13128e-05 -1.79553e-05 0)
(-2.78465e-05 -1.92863e-05 0)
(-2.42228e-05 -2.02718e-05 0)
(-2.0503e-05 -2.09277e-05 0)
(-1.67272e-05 -2.12728e-05 0)
(-1.29493e-05 -2.13275e-05 0)
(-9.20884e-06 -2.1109e-05 0)
(-5.5381e-06 -2.06434e-05 0)
(-1.99789e-06 -1.99628e-05 0)
(1.38047e-06 -1.90898e-05 0)
(4.59747e-06 -1.80512e-05 0)
(7.61673e-06 -1.68719e-05 0)
(1.0405e-05 -1.55752e-05 0)
(1.29539e-05 -1.41897e-05 0)
(1.5249e-05 -1.2737e-05 0)
(1.72737e-05 -1.12435e-05 0)
(1.90261e-05 -9.73009e-06 0)
(2.05031e-05 -8.21988e-06 0)
(2.17058e-05 -6.72267e-06 0)
(2.26361e-05 -5.26965e-06 0)
(2.32978e-05 -3.8612e-06 0)
(2.37058e-05 -2.52493e-06 0)
(2.38698e-05 -1.2674e-06 0)
(2.38036e-05 -9.86197e-08 0)
(2.35242e-05 9.74157e-07 0)
(2.30476e-05 1.94408e-06 0)
(2.2394e-05 2.80687e-06 0)
(2.15839e-05 3.56023e-06 0)
(2.06364e-05 4.20305e-06 0)
(1.95701e-05 4.7361e-06 0)
(1.84099e-05 5.16558e-06 0)
(1.71753e-05 5.49163e-06 0)
(1.58825e-05 5.72029e-06 0)
(1.45538e-05 5.85988e-06 0)
(1.32059e-05 5.91805e-06 0)
(1.18542e-05 5.89642e-06 0)
(1.05133e-05 5.81087e-06 0)
(9.19745e-06 5.66118e-06 0)
(7.9159e-06 5.45491e-06 0)
(6.6821e-06 5.20291e-06 0)
(5.50843e-06 4.90837e-06 0)
(4.40039e-06 4.57386e-06 0)
(3.3675e-06 4.20818e-06 0)
(2.42033e-06 3.81877e-06 0)
(1.56671e-06 3.40659e-06 0)
(8.09401e-07 2.98259e-06 0)
(1.59005e-07 2.55247e-06 0)
(-3.83793e-07 2.12801e-06 0)
(-8.24975e-07 1.71007e-06 0)
(-1.16327e-06 1.30836e-06 0)
(-1.4032e-06 9.2716e-07 0)
(-1.5501e-06 5.71789e-07 0)
(-1.60928e-06 2.4414e-07 0)
(-1.58661e-06 -5.26904e-08 0)
(-1.4886e-06 -3.15839e-07 0)
(-1.32286e-06 -5.42589e-07 0)
(-1.09871e-06 -7.29892e-07 0)
(-8.25034e-07 -8.75865e-07 0)
(-5.12706e-07 -9.76436e-07 0)
(-1.74301e-07 -1.02789e-06 0)
(3.16703e-05 -0.000672499 0)
(9.47122e-05 -0.000663746 0)
(0.000156988 -0.000646697 0)
(0.00021739 -0.000621092 0)
(0.000274898 -0.000587102 0)
(0.00032837 -0.000545218 0)
(0.00037646 -0.000496119 0)
(0.000418055 -0.000440645 0)
(0.000451473 -0.000380086 0)
(0.000475888 -0.000316239 0)
(0.000491188 -0.000250983 0)
(0.000497695 -0.000185862 0)
(0.000495957 -0.000122337 0)
(0.000486963 -6.17336e-05 0)
(0.00047246 -5.67537e-06 0)
(0.000453169 4.4695e-05 0)
(0.000430011 8.85358e-05 0)
(0.000401938 0.000125511 0)
(0.000368671 0.000155236 0)
(0.000331686 0.000177308 0)
(0.00029194 0.000191555 0)
(0.000251104 0.000197997 0)
(0.000210568 0.000196803 0)
(0.000171341 0.000188294 0)
(0.000135168 0.00017299 0)