/*--------------------------------*- C++ -*----------------------------------*\
  =========                 |
  \\      /  F ield         | OpenFOAM: The Open Source CFD Toolbox
   \\    /   O peration     | Website:  https://openfoam.org
    \\  /    A nd           | Version:  12
     \\/     M anipulation  |
\*---------------------------------------------------------------------------*/
FoamFile
{
    format      ascii;
    class       volScalarField;
    location    "0.01";
    object      epsilon;
}
// * * * * * * * * * * * * * * * * * * * * * * * * * * * * * * * * * * * * * //

dimensions      [0 2 -3 0 0 0 0];

internalField   nonuniform List<scalar> 
12225
(
278.171
262.78
248.168
235.352
225.147
217.865
213.471
211.71
212.207
214.543
218.304
223.117
228.659
234.663
240.922
247.273
253.667
263.304
60.3019
84.9426
95.9831
105.227
116.589
130.785
147.727
166.987
187.978
210.071
232.676
255.287
277.502
299.031
319.727
339.487
358.885
377.577
25.1584
35.8152
42.7879
47.9024
52.6109
57.5361
62.9619
69.0149
75.7148
83.0105
90.8108
99.0067
107.488
116.156
124.935
133.79
142.779
151.985
17.4906
21.2044
24.547
27.3773
29.88
32.2227
34.5244
36.8684
39.3055
41.8607
44.5411
47.3423
50.2541
53.2652
56.3673
59.5635
62.8701
66.3101
15.4796
16.7246
18.1331
19.5092
20.8049
22.023
23.1825
24.307
25.4169
26.5269
27.6468
28.7824
29.9371
31.1129
32.3126
33.5413
34.807
36.1097
14.9062
15.2314
15.7291
16.3058
16.9079
17.5081
18.0948
18.6655
19.2222
19.768
20.3063
20.8398
21.371
21.9021
22.4355
22.9744
23.5223
24.076
14.7445
14.7367
14.8286
14.9937
15.2067
15.4478
15.7031
15.9642
16.2265
16.4876
16.7466
17.0033
17.2577
17.5107
17.763
18.0159
18.2711
18.5254
14.7011
14.5819
14.5099
14.4826
14.4929
14.5327
14.5942
14.671
14.7583
14.8528
14.9522
15.0548
15.1596
15.2662
15.3742
15.484
15.5958
15.7075
14.6901
14.5371
14.4066
14.2999
14.2165
14.1545
14.1109
14.0827
14.0671
14.0618
14.0648
14.0744
14.0896
14.1093
14.1331
14.1604
14.1911
14.2239
14.6874
14.5251
14.376
14.2409
14.1199
14.013
13.9192
13.8375
13.7668
13.7057
13.6532
13.6081
13.5697
13.5371
13.5098
13.4872
13.4691
13.4548
14.6868
14.5221
14.3677
14.2235
14.0895
13.9654
13.851
13.7457
13.649
13.5605
13.4793
13.4051
13.3373
13.2752
13.2186
13.1671
13.1203
13.0783
14.6866
14.5213
14.3656
14.219
14.0812
13.9519
13.8306
13.7169
13.6106
13.5112
13.4184
13.3317
13.2507
13.1752
13.1049
13.0394
12.9786
12.9228
14.6865
14.521
14.3649
14.2175
14.0785
13.9473
13.8236
13.7068
13.5966
13.4927
13.3948
13.3024
13.2154
13.1334
13.0563
12.9837
12.9157
12.8526
14.6864
14.5208
14.3645
14.2169
14.0775
13.9457
13.8211
13.7033
13.5917
13.4862
13.3862
13.2917
13.2021
13.1174
13.0373
12.9615
12.8901
12.8235
14.6864
14.5207
14.3643
14.2166
14.077
13.945
13.8202
13.702
13.59
13.484
13.3835
13.2882
13.1979
13.1123
13.0312
12.9545
12.8819
12.814
14.6863
14.5206
14.3641
14.2163
14.0766
13.9446
13.8196
13.7013
13.5892
13.483
13.3823
13.2869
13.1964
13.1106
13.0292
12.9521
12.8792
12.8109
14.6863
14.5205
14.364
14.2161
14.0764
13.9442
13.8192
13.7008
13.5886
13.4823
13.3816
13.286
13.1954
13.1095
13.028
12.9507
12.8775
12.809
14.6863
14.5204
14.3639
14.216
14.0762
13.944
13.8189
13.7004
13.5881
13.4817
13.3809
13.2852
13.1944
13.1083
13.0266
12.9491
12.8756
12.8066
14.6863
14.5204
14.3639
14.216
14.0761
13.9439
13.8187
13.7001
13.5878
13.4813
13.3803
13.2844
13.1935
13.1071
13.0251
12.9472
12.8732
12.8038
14.6863
14.5205
14.3639
14.216
14.0762
13.944
13.8188
13.7002
13.5878
13.4812
13.3801
13.2841
13.193
13.1064
13.0241
12.9459
12.8717
12.8019
14.6863
14.5205
14.364
14.2162
14.0764
13.9443
13.8191
13.7006
13.5883
13.4819
13.3809
13.285
13.194
13.1076
13.0255
12.9475
12.8735
12.804
14.6863
14.5206
14.3643
14.2167
14.0773
13.9457
13.8212
13.7036
13.5925
13.4874
13.3879
13.2939
13.2049
13.1207
13.041
12.9656
12.8943
12.8276
14.6865
14.5213
14.3659
14.2202
14.0836
13.9559
13.8365
13.7251
13.6211
13.5242
13.4338
13.3495
13.2709
13.1975
13.1291
13.0652
13.0057
12.9508
14.6876
14.5264
14.3792
14.2464
14.1277
14.0222
13.929
13.8468
13.7744
13.7105
13.6543
13.6047
13.561
13.5225
13.4886
13.4589
13.4331
13.4111
14.6976
14.566
14.4697
14.4056
14.3683
14.3523
14.3527
14.365
14.3863
14.4141
14.4468
14.4831
14.5222
14.5635
14.6067
14.6515
14.6978
14.7453
14.773
14.8158
14.954
15.1486
15.3709
15.6033
15.8357
16.0634
16.2847
16.4993
16.7079
16.9112
17.1104
17.3064
17.5001
17.6922
17.8833
18.073
15.2538
16.0993
17.0387
17.9223
18.7222
19.4471
20.1108
20.7283
21.3129
21.8758
22.4253
22.9678
23.5078
24.0485
24.5921
25.1397
25.692
26.2466
18.0144
21.9119
24.8159
26.9338
28.6471
30.1585
31.5715
32.9514
34.3385
35.7559
37.2155
38.7222
40.2764
41.8754
43.515
45.1899
46.895
48.6175
33.7609
45.1241
50.7143
54.2843
57.4717
60.7503
64.2757
68.0948
72.1968
76.5439
81.0909
85.7925
90.6065
95.4947
100.425
105.371
110.32
115.243
163.209
157.151
151.3
145.765
140.748
136.366
132.66
129.625
127.223
125.397
124.087
123.229
122.762
122.63
122.782
123.174
123.766
124.52
24.8601
8.00514
8.73295
8.7404
39.3806
44.9794
51.3873
58.5936
66.9519
76.8125
88.4674
102.157
118.078
136.38
157.158
180.447
206.213
234.353
264.701
297.034
331.088
366.571
403.175
440.594
478.528
516.696
554.839
592.724
630.145
666.931
702.938
738.064
772.244
805.465
837.778
869.315
900.309
930.537
957.385
980.48
999.456
1013.92
1023.5
1027.86
1026.73
1019.95
1007.46
989.313
965.722
937.012
903.639
866.166
825.244
781.59
735.964
689.147
641.93
595.108
549.485
505.931
465.59
429.516
399.161
373.647
349.865
327.464
306.416
286.742
268.461
251.576
236.075
221.93
209.103
197.546
187.204
178.018
169.924
162.857
156.752
151.543
147.164
143.55
140.638
138.365
136.672
135.5
134.792
134.495
134.557
134.93
135.568
136.429
137.474
138.668
139.978
141.375
142.835
144.335
145.855
147.379
148.894
150.389
151.853
153.279
154.663
156
157.287
158.522
159.707
160.833
161.893
162.886
163.814
164.678
165.477
166.216
166.896
167.52
168.095
168.624
169.113
169.566
169.99
170.387
170.763
171.12
171.462
171.791
172.108
172.417
172.717
173.011
173.3
173.584
173.864
174.141
174.416
174.688
174.959
175.229
175.498
175.767
176.035
176.304
176.574
176.844
177.115
177.387
177.661
177.936
178.213
178.492
178.772
179.054
179.337
179.622
179.909
180.196
180.484
180.771
181.057
181.341
181.621
181.895
182.161
182.415
182.653
182.869
183.054
183.198
183.287
183.3
183.208
182.969
182.521
181.762
180.543
178.533
175.488
169.291
49.6544
38.7138
44.9721
54.0793
64.3363
74.3057
84.5297
95.3728
107.046
119.588
132.898
146.791
161.039
175.404
189.663
203.624
217.135
230.085
242.406
254.06
265.039
275.354
285.032
294.11
302.631
310.648
318.219
325.413
332.31
339.004
345.604
352.239
359.06
366.239
373.976
382.498
392.046
402.9
413.855
424.209
433.667
441.95
448.776
453.87
456.978
457.884
456.42
452.481
446.03
437.105
425.818
412.351
396.948
379.9
361.536
342.202
322.254
302.038
281.882
262.091
242.935
224.588
207.18
191.351
176.802
163.168
150.402
138.5
127.46
117.267
107.903
99.337
91.5355
84.459
78.0655
72.3111
67.1511
62.5411
58.4375
54.7982
51.5828
48.7529
46.2726
44.1081
42.2282
40.6038
39.2083
38.0172
37.0081
36.1605
35.4558
34.8773
34.4097
34.0392
33.7535
33.5414
33.393
33.2995
33.2528
33.2461
33.273
33.3282
33.4067
33.5044
33.6177
33.7432
33.8783
34.0207
34.1688
34.3296
34.5142
34.7167
34.9316
35.1515
35.3709
35.5873
35.7981
36.0011
36.195
36.3787
36.5523
36.716
36.8705
37.0167
37.1555
37.2876
37.4139
37.5348
37.651
37.7627
37.8703
37.9741
38.0744
38.1713
38.2652
38.3562
38.4445
38.5304
38.6141
38.6958
38.7757
38.8539
38.9306
39.006
39.0804
39.1537
39.2263
39.2982
39.3696
39.4407
39.5116
39.5825
39.6536
39.725
39.7969
39.8696
39.9432
40.0182
40.0947
40.1732
40.2542
40.3382
40.426
40.5185
40.6169
40.7228
40.8384
40.9664
41.1108
41.277
41.473
41.7105
42.0074
42.3924
42.9132
43.6534
44.7716
46.5483
49.661
55.2051
85.1516
66.3476
69.9136
77.2848
85.7551
94.5887
103.622
112.936
122.62
132.668
142.983
153.418
163.814
174.027
183.939
193.466
202.559
211.197
219.384
227.14
234.499
241.505
248.214
254.69
261.012
267.27
273.568
280.021
286.752
293.886
301.544
309.836
318.853
328.659
339.287
350.726
362.918
375.672
388.445
400.915
412.785
423.735
433.429
441.531
447.72
451.707
453.255
452.188
448.411
441.912
432.764
421.127
407.232
391.374
373.885
355.124
335.453
315.222
294.757
274.347
254.24
234.628
215.717
198.362
182.231
167.094
152.915
139.688
127.41
116.065
105.63
96.0728
87.3552
79.4337
72.2615
65.7899
59.969
54.7489
50.0808
45.9172
42.2128
38.9246
36.0123
33.4384
31.1681
29.1697
27.4139
25.8744
24.5272
23.3506
22.3253
21.4337
20.6603
19.9912
19.4138
18.9172
18.4915
18.1281
17.8191
17.5579
17.3383
17.155
17.0034
16.8793
16.779
16.6995
16.6377
16.5914
16.5583
16.5369
16.5258
16.5239
16.5302
16.546
16.5715
16.604
16.641
16.6812
16.7236
16.7674
16.8118
16.8564
16.9008
16.9447
16.9878
17.0302
17.0716
17.1121
17.1516
17.1901
17.2276
17.2641
17.2995
17.334
17.3675
17.4001
17.4319
17.4628
17.4929
17.5222
17.5509
17.579
17.6065
17.6335
17.66
17.6862
17.712
17.7375
17.7627
17.7878
17.8127
17.8376
17.8624
17.8873
17.9123
17.9374
17.9628
17.9885
18.0147
18.0415
18.069
18.0974
18.127
18.158
18.1909
18.2262
18.2644
18.3065
18.3537
18.4077
18.4709
18.547
18.6412
18.7625
18.9252
19.1548
19.5014
20.0582
21.0775
22.9867
109.877
85.2472
86.8814
92.6883
99.7183
107.378
115.486
124.011
132.951
142.256
151.821
161.517
171.212
180.796
190.187
199.332
208.202
216.791
225.105
233.161
240.983
248.606
256.072
263.434
270.76
278.136
285.661
293.447
301.619
310.3
319.611
329.656
340.513
352.224
364.782
378.126
392.135
406.568
421.077
435.366
449.113
461.967
473.551
483.482
491.385
496.914
499.77
499.724
496.629
490.436
481.2
469.079
454.325
437.262
418.27
397.757
376.133
353.792
331.095
308.363
285.868
263.839
242.713
223.216
204.87
187.584
171.351
156.174
142.052
128.972
116.911
105.839
95.7147
86.4949
78.1302
70.5687
63.7566
57.6395
52.1632
47.2744
42.9218
39.056
35.6303
32.6011
29.9276
27.5724
25.5008
23.6817
22.0865
20.6896
19.4679
18.4008
17.4699
16.6587
15.9529
15.3394
14.807
14.3455
13.9462
13.6013
13.304
13.0482
12.8287
12.6409
12.4807
12.3447
12.2297
12.133
12.0522
11.9852
11.9303
11.886
11.8507
11.8236
11.8037
11.7907
11.7846
11.7834
11.7864
11.7928
11.802
11.8135
11.8268
11.8415
11.8573
11.8739
11.8912
11.9087
11.9266
11.9445
11.9624
11.9802
11.9978
12.0152
12.0323
12.0492
12.0657
12.0819
12.0977
12.1132
12.1285
12.1434
12.158
12.1724
12.1866
12.2005
12.2142
12.2278
12.2412
12.2544
12.2676
12.2808
12.2938
12.3069
12.3199
12.333
12.3462
12.3596
12.3731
12.3868
12.4009
12.4153
12.4302
12.4458
12.4622
12.4796
12.4983
12.5187
12.5414
12.5669
12.5965
12.6315
12.6743
12.7284
12.7996
12.8979
13.0421
13.2674
13.6558
14.35
127.007
96.7347
96.5779
101.384
107.761
115.102
123.241
132.106
141.626
151.692
162.159
172.866
183.662
194.421
205.049
215.478
225.666
235.584
245.217
254.557
263.607
272.381
280.908
289.239
297.45
305.638
313.925
322.449
331.355
340.789
350.881
361.736
373.424
385.967
399.333
413.428
428.098
443.136
458.346
473.459
488.154
502.066
514.795
525.925
535.036
541.724
545.624
546.43
543.924
537.993
528.649
516.031
500.399
482.116
461.613
439.363
415.839
391.494
366.736
341.923
317.351
293.316
270.714
249.409
229.208
210.09
192.071
175.164
159.372
144.687
131.092
118.558
107.051
96.5301
86.9492
78.2578
70.403
63.3299
56.9828
51.3059
46.2442
41.7442
37.7546
34.2263
31.1132
28.3723
25.9639
23.8511
22.0008
20.3826
18.9691
17.736
16.6612
15.7254
14.9113
14.2036
13.5889
13.0553
12.5925
12.1915
11.8442
11.5438
11.2843
11.0603
10.8672
10.7012
10.5587
10.4366
10.3324
10.2437
10.1686
10.1052
10.0521
10.0079
9.97152
9.94202
9.91873
9.90131
9.88864
9.88002
9.87489
9.87272
9.87307
9.87552
9.87973
9.8854
9.89226
9.90008
9.90866
9.91783
9.92744
9.93737
9.94751
9.95777
9.96809
9.9784
9.98866
9.99884
10.0089
10.0188
10.0286
10.0383
10.0478
10.0571
10.0663
10.0754
10.0844
10.0932
10.102
10.1106
10.1192
10.1278
10.1363
10.1447
10.1532
10.1617
10.1702
10.1787
10.1874
10.1962
10.2051
10.2143
10.2237
10.2334
10.2436
10.2544
10.2658
10.2782
10.2918
10.307
10.3244
10.3447
10.3692
10.3997
10.4392
10.4928
10.5693
10.6853
10.8736
11.1869
138.302
102.635
100.832
105.148
111.611
119.453
128.471
138.554
149.573
161.357
173.697
186.373
199.183
211.954
224.549
236.86
248.81
260.336
271.395
281.956
292.006
301.555
310.637
319.313
327.679
335.854
343.985
352.231
360.76
369.733
379.297
389.568
400.627
412.503
425.171
438.542
452.461
466.795
481.522
496.424
511.195
525.478
538.874
550.952
561.263
569.347
574.758
577.088
575.996
571.251
562.762
550.604
535.013
516.371
495.165
471.941
447.251
421.622
395.514
369.332
343.408
318.589
295.023
272.515
251.052
230.659
211.363
193.184
176.127
160.191
145.361
131.619
118.935
107.276
96.6033
86.8723
78.0358
70.0431
62.8418
56.3779
50.5971
45.445
40.8686
36.8162
33.2381
30.0874
27.3198
24.8942
22.7726
20.9202
19.3055
17.8998
16.6776
15.616
14.6947
13.8957
13.2031
12.6031
12.0835
11.6337
11.2444
10.9077
10.6164
10.3646
10.1471
9.95935
9.79739
9.65785
9.5378
9.4347
9.34634
9.27081
9.20644
9.15179
9.1056
9.06678
9.03445
9.00794
8.98661
8.96969
8.95659
8.9468
8.93984
8.93533
8.9329
8.93225
8.93309
8.93518
8.93832
8.94232
8.94701
8.95225
8.95794
8.96395
8.97021
8.97664
8.98319
8.9898
8.99643
9.00306
9.00966
9.01621
9.02271
9.02914
9.0355
9.04179
9.04802
9.05418
9.06028
9.06632
9.07232
9.07828
9.08421
9.09011
9.09601
9.10192
9.10783
9.11379
9.11979
9.12587
9.13204
9.13834
9.14481
9.15149
9.15843
9.16573
9.17346
9.18177
9.19082
9.20087
9.21225
9.22545
9.24122
9.26067
9.28562
9.31901
9.3659
9.43518
9.54256
9.71047
145.242
104.901
101.619
105.747
112.731
121.57
131.976
143.784
156.805
170.795
185.467
200.525
215.692
230.728
245.439
259.668
273.294
286.226
298.394
309.752
320.277
329.975
338.883
347.069
354.637
361.723
368.488
375.118
381.809
388.76
396.161
404.177
412.937
422.522
432.952
444.176
456.074
468.596
481.865
495.693
509.796
523.844
537.47
550.279
561.833
571.66
579.245
584.059
585.593
583.421
577.264
567.045
552.916
535.24
514.549
491.473
466.662
440.741
414.217
387.58
361.779
336.955
313.036
290.051
268.048
247.068
227.142
208.288
190.515
173.821
158.2
143.638
130.114
117.604
106.078
95.5024
85.8383
77.0442
69.0752
61.884
55.4215
49.6372
44.4802
39.8999
35.8463
32.271
29.1275
26.3718
23.9623
21.8608
20.0316
18.4425
17.0643
15.8705
14.8376
13.9448
13.1736
12.5077
11.9329
11.4369
11.0088
10.6393
10.3205
10.0452
9.80764
9.60254
9.42551
9.27276
9.14102
9.02747
8.92971
8.84564
8.77347
8.71162
8.65877
8.61374
8.57552
8.5433
8.51643
8.4942
8.476
8.46129
8.44961
8.44056
8.43377
8.42892
8.42574
8.42398
8.42342
8.42387
8.42517
8.42716
8.42973
8.43276
8.43617
8.43986
8.44378
8.44786
8.45206
8.45634
8.46068
8.46504
8.46942
8.47378
8.47814
8.48247
8.48677
8.49105
8.4953
8.49952
8.50372
8.5079
8.51206
8.51621
8.52035
8.5245
8.52866
8.53285
8.53707
8.54133
8.54566
8.55008
8.5546
8.55927
8.56411
8.56918
8.57453
8.58027
8.5865
8.59338
8.60114
8.61012
8.62079
8.63392
8.65067
8.67296
8.70396
8.74897
8.81659
8.91749
148.942
104.968
100.398
104.461
112.115
122.127
134.1
147.804
162.979
179.302
196.398
213.88
231.386
248.602
265.271
281.188
296.194
310.165
323.009
334.658
345.071
354.237
362.175
368.946
374.651
379.435
383.488
387.039
390.35
393.705
397.387
401.664
406.764
412.855
420.033
428.305
437.593
447.896
459.288
471.542
484.374
497.504
510.658
523.559
535.894
547.276
557.213
565.097
570.236
571.939
569.624
562.948
551.869
536.657
517.853
496.175
472.371
447.249
421.289
395.894
370.984
346.703
323.169
300.474
278.685
257.844
237.977
219.101
201.221
184.339
168.448
153.541
139.604
126.622
114.574
103.438
93.186
83.7879
75.21
67.4154
60.3643
54.0145
48.3218
43.2406
38.7247
34.7277
31.204
28.1091
25.4
23.0364
20.98
19.1956
17.6506
16.3157
15.1642
14.1721
13.3184
12.5842
11.9532
11.411
10.945
10.5446
10.2003
9.90419
9.64937
9.42996
9.24097
9.0781
8.9377
8.81666
8.71233
8.62243
8.545
8.47839
8.42115
8.37205
8.33002
8.29417
8.26375
8.2381
8.21658
8.19866
8.18388
8.1718
8.16208
8.15439
8.14845
8.14402
8.14088
8.13883
8.13771
8.13737
8.13769
8.13855
8.13986
8.14153
8.1435
8.1457
8.14809
8.15062
8.15326
8.15599
8.15876
8.16158
8.16443
8.16729
8.17015
8.17302
8.17588
8.17874
8.18159
8.18444
8.18728
8.19013
8.19297
8.19582
8.19868
8.20156
8.20447
8.2074
8.21039
8.21343
8.21654
8.21975
8.22308
8.22656
8.23024
8.23417
8.23843
8.24314
8.24845
8.2546
8.26191
8.27093
8.28246
8.29782
8.31913
8.34979
8.39499
8.46035
150.186
103.739
98.0807
102.089
110.367
121.493
134.965
150.478
167.702
186.227
205.586
225.3
244.92
264.059
282.401
299.693
315.74
330.386
343.504
354.992
364.772
372.791
379.038
383.547
386.417
387.821
388.008
387.309
386.119
384.878
384.038
384.023
385.193
387.807
392.007
397.81
405.115
413.834
423.674
434.274
445.332
456.642
468.092
479.641
491.253
502.811
514.025
524.355
533.009
539.017
541.401
539.408
532.659
521.2
505.496
486.346
464.537
441.401
417.761
394.006
370.462
347.378
324.926
303.219
282.325
262.283
243.115
224.831
207.433
190.92
175.289
160.532
146.642
133.609
121.422
110.066
99.5274
89.7856
80.8195
72.6047
65.1133
58.3145
52.1744
46.6567
41.7224
37.3314
33.4422
30.013
27.0026
24.3705
22.0778
20.0878
18.3658
16.8798
15.6007
14.5019
13.5595
12.7524
12.0618
11.4712
10.9663
10.5347
10.1656
9.84971
9.57925
9.34747
9.14864
8.97792
8.83121
8.70502
8.59641
8.5029
8.42236
8.353
8.29329
8.24192
8.19778
8.15991
8.12751
8.09991
8.07647
8.05666
8.03999
8.02606
8.01451
8.00501
7.99729
7.9911
7.98623
7.98249
7.97971
7.97776
7.9765
7.97583
7.97565
7.97587
7.97643
7.97727
7.97834
7.97958
7.98097
7.98248
7.98407
7.98574
7.98746
7.98922
7.99101
7.99282
7.99464
7.99648
7.99832
8.00018
8.00203
8.00389
8.00576
8.00764
8.00953
8.01143
8.01335
8.0153
8.01728
8.01929
8.02136
8.02349
8.0257
8.02802
8.03046
8.03308
8.03592
8.03907
8.04264
8.04678
8.05176
8.05794
8.06593
8.07667
8.09163
8.11314
8.14455
8.18914
149.529
101.777
95.2326
99.1354
107.883
119.918
134.655
151.72
170.712
191.142
212.456
234.086
255.505
276.256
295.971
314.352
331.167
346.219
359.338
370.37
379.178
385.653
389.735
391.436
390.871
388.28
384.044
378.677
372.808
367.126
362.313
358.971
357.554
358.324
361.339
366.467
373.432
381.814
390.831
399.969
408.896
417.469
425.75
433.981
442.523
451.709
461.678
472.208
482.621
491.802
498.367
501.054
499.008
491.906
479.987
464.152
445.745
425.544
404.308
382.638
360.975
339.631
318.806
298.624
279.155
260.435
242.479
225.291
208.868
193.208
178.302
164.147
150.736
138.063
126.121
114.904
104.404
94.6123
85.5185
77.1096
69.3705
62.283
55.8255
49.9733
44.6982
39.9694
35.7531
32.0138
28.7149
25.8187
23.2883
21.0871
19.1802
17.5343
16.1186
14.9043
13.8656
12.9789
12.2232
11.58
11.0331
10.5682
10.173
9.83696
9.55106
9.30759
9.10001
8.92279
8.77131
8.64163
8.53047
8.43509
8.35315
8.28272
8.22214
8.17003
8.12521
8.08669
8.05362
8.0253
8.00111
7.98048
7.96297
7.94815
7.93567
7.92521
7.91651
7.90932
7.90344
7.89869
7.8949
7.89193
7.88966
7.88799
7.88683
7.88608
7.88569
7.8856
7.88575
7.8861
7.88661
7.88726
7.88802
7.88887
7.88978
7.89075
7.89177
7.89281
7.89389
7.89498
7.89609
7.89722
7.89835
7.8995
7.90065
7.90182
7.90299
7.90418
7.90538
7.9066
7.90784
7.90911
7.91041
7.91175
7.91315
7.91461
7.91616
7.91782
7.91964
7.92167
7.92398
7.92671
7.93003
7.93423
7.93977
7.94733
7.958
7.97345
7.99597
8.02766
147.387
99.4791
92.2539
95.9798
104.99
117.655
133.332
151.592
171.978
193.933
216.827
240.02
262.913
284.992
305.839
325.116
342.549
357.901
370.947
381.469
389.258
394.137
395.994
394.828
390.798
384.271
375.832
366.281
356.564
347.68
340.549
335.887
334.12
335.342
339.339
345.645
353.674
362.577
371.381
379.483
386.478
392.178
396.67
400.369
403.985
408.353
414.194
421.833
430.989
440.703
449.356
455.211
456.941
453.758
445.875
433.955
418.894
401.621
382.985
363.674
344.2
324.916
306.047
287.725
270.02
252.964
236.567
220.827
205.737
191.287
177.47
164.278
151.703
139.742
128.388
117.639
107.492
97.944
88.993
80.6354
72.8667
65.6805
59.0674
53.0152
47.508
42.5263
38.047
34.0436
30.4869
27.3455
24.5866
22.1767
20.0823
18.2709
16.711
15.3731
14.2297
13.2555
12.4277
11.7258
11.1318
10.6295
10.2052
9.84686
9.54412
9.28821
9.07166
8.88819
8.73249
8.60014
8.48744
8.39131
8.30916
8.23886
8.17862
8.12695
8.0826
8.04452
8.01184
7.98381
7.95981
7.93928
7.92176
7.90684
7.89418
7.88347
7.87445
7.86689
7.86059
7.85537
7.85109
7.8476
7.84479
7.84256
7.84083
7.83951
7.83854
7.83786
7.83743
7.83721
7.83715
7.83724
7.83743
7.83773
7.8381
7.83852
7.839
7.83952
7.84007
7.84065
7.84124
7.84186
7.84248
7.84312
7.84377
7.84442
7.84509
7.84576
7.84645
7.84715
7.84786
7.84859
7.84934
7.85012
7.85093
7.85178
7.85269
7.85368
7.85476
7.85599
7.85742
7.85915
7.86131
7.86413
7.86796
7.87334
7.8811
7.89246
7.9091
7.93249
144.089
97.1977
89.5151
92.994
102.052
115.043
131.298
150.357
171.724
194.797
218.893
243.313
267.404
290.601
312.441
332.55
350.613
366.349
379.481
389.725
396.796
400.441
400.493
396.94
390.001
380.193
368.354
355.603
343.234
332.538
324.6
320.135
319.399
322.193
327.941
335.824
344.966
354.423
363.38
371.215
377.374
381.436
383.253
383.125
381.893
380.746
380.954
383.462
388.56
395.778
403.619
410.044
413.553
413.087
408.284
399.435
387.261
372.66
356.504
339.524
322.27
305.119
288.308
271.97
256.173
240.942
226.28
212.178
198.625
185.607
173.112
161.128
149.647
138.661
128.164
118.154
108.627
99.5852
91.0287
82.9603
75.383
68.2989
61.7093
55.6131
50.0063
44.8813
40.2268
36.0272
32.2633
28.912
25.9476
23.342
21.0657
19.0887
17.3809
15.9131
14.6575
13.5878
12.6801
11.9122
11.2644
10.7191
10.2609
9.87626
9.55362
9.28298
9.05584
8.86505
8.70457
8.56936
8.45522
8.35866
8.27681
8.20727
8.14808
8.0976
8.05448
8.01761
7.98606
7.95906
7.93596
7.9162
7.89932
7.88492
7.87265
7.86224
7.85341
7.84595
7.83968
7.83442
7.83003
7.82638
7.82338
7.82092
7.81892
7.81731
7.81604
7.81504
7.81427
7.8137
7.81329
7.81302
7.81285
7.81278
7.81278
7.81284
7.81296
7.81311
7.81329
7.8135
7.81374
7.81398
7.81425
7.81452
7.8148
7.8151
7.8154
7.8157
7.81602
7.81634
7.81668
7.81702
7.81737
7.81775
7.81814
7.81855
7.81901
7.81951
7.82007
7.82074
7.82155
7.82257
7.82392
7.82578
7.82843
7.83231
7.83807
7.84666
7.85936
7.87727
140.416
95.7207
87.574
90.7215
99.6287
112.654
129.123
148.567
170.48
194.246
219.161
244.495
269.562
293.755
316.575
337.628
356.491
372.876
386.47
396.932
403.907
407.068
406.18
401.198
392.371
380.325
366.1
351.086
336.859
324.923
316.449
312.077
311.864
315.356
321.742
330.051
339.332
348.922
358.209
366.57
373.293
377.64
379.03
377.346
373.282
368.089
363.354
360.516
360.403
362.976
367.31
371.856
374.908
375.084
371.643
364.551
354.312
341.706
327.56
312.589
297.338
282.177
267.333
252.929
239.018
225.615
212.714
200.299
188.352
176.854
165.789
155.143
144.902
135.056
125.595
116.515
107.81
99.4805
91.5274
83.9553
76.7703
69.98
63.5925
57.6152
52.0538
46.9115
42.1883
37.88
33.978
30.4696
27.338
24.5627
22.1204
19.9858
18.132
16.5322
15.1594
13.9876
12.9923
12.1506
11.4416
10.8464
10.3481
9.93187
9.58476
9.29562
9.05486
8.85438
8.68733
8.54796
8.43149
8.33398
8.25215
8.18331
8.12526
8.07618
8.0346
7.99929
7.96926
7.9437
7.92191
7.90334
7.88751
7.87401
7.86252
7.85274
7.84443
7.83739
7.83143
7.82639
7.82215
7.81858
7.81559
7.81309
7.81101
7.80929
7.80786
7.80668
7.80571
7.80491
7.80427
7.80374
7.80332
7.80298
7.80271
7.80249
7.80232
7.80218
7.80208
7.802
7.80194
7.8019
7.80187
7.80186
7.80185
7.80185
7.80186
7.80187
7.8019
7.80192
7.80196
7.802
7.80205
7.80211
7.80218
7.80227
7.80238
7.80251
7.80269
7.80294
7.8033
7.80381
7.80458
7.80576
7.80758
7.81041
7.81478
7.82146
7.83147
7.8457
136.82
95.3819
86.9094
89.7281
98.3915
111.271
127.7
147.22
169.337
193.447
218.854
244.826
270.657
295.716
319.469
341.47
361.326
378.691
393.214
404.515
412.19
415.852
415.202
410.13
400.846
387.977
372.617
356.264
340.624
327.312
317.543
311.924
310.423
312.518
317.42
324.359
332.736
341.854
351.172
360.111
367.911
373.647
376.405
375.602
371.348
364.592
356.91
350.001
345.132
342.802
342.648
343.579
344.122
342.889
338.97
332.107
322.599
311.079
298.269
284.814
271.201
257.758
244.672
232.036
219.881
208.202
196.981
186.193
175.814
165.819
156.19
146.907
137.955
129.318
120.984
112.942
105.184
97.7069
90.5085
83.5917
76.9626
70.6302
64.6055
58.9009
53.5289
48.5007
43.8254
39.5091
35.5536
31.9567
28.7115
25.8064
23.2263
20.9522
18.9628
17.2348
15.7441
14.4664
13.3778
12.4554
11.6778
11.0253
10.4798
10.0255
9.64819
9.33554
9.07689
8.86315
8.68658
8.54069
8.42004
8.32013
8.23725
8.16833
8.11087
8.06284
8.02258
7.98874
7.96021
7.93613
7.91576
7.89849
7.88384
7.87139
7.86081
7.85181
7.84415
7.83764
7.83209
7.82738
7.82336
7.81995
7.81704
7.81455
7.81243
7.81062
7.80906
7.80772
7.80657
7.80556
7.80468
7.8039
7.80322
7.8026
7.80205
7.80154
7.80108
7.80065
7.80025
7.79988
7.79952
7.79918
7.79886
7.79855
7.79825
7.79797
7.79769
7.79742
7.79716
7.7969
7.79666
7.79642
7.79619
7.79597
7.79575
7.79555
7.79536
7.79519
7.79505
7.79495
7.79494
7.79506
7.79538
7.79605
7.79725
7.79931
7.80268
7.80801
7.81614
7.8278
133.674
96.5498
87.9203
90.4067
98.7602
111.367
127.573
146.942
169.014
193.224
218.911
245.366
271.887
297.828
322.626
345.803
366.942
385.664
401.59
414.319
423.424
428.489
429.169
425.3
417.013
404.85
389.812
373.307
356.96
342.33
330.611
322.44
317.89
316.622
318.158
322.229
328.472
336.148
344.724
353.667
362.232
369.391
373.947
374.868
371.748
365.114
356.321
347.045
338.71
332.151
327.48
324.116
320.989
316.934
311.097
303.155
293.288
281.993
269.864
257.431
245.084
233.066
221.501
210.434
199.859
189.749
180.07
170.788
161.87
153.292
145.029
137.06
129.367
121.93
114.734
107.763
101.005
94.4517
88.0963
81.9379
75.9797
70.2286
64.6957
59.3946
54.3408
49.5504
45.039
40.8201
36.9046
33.2993
30.007
27.0257
24.3486
21.9649
19.8599
18.0161
16.4135
15.0309
13.8465
12.8386
11.9862
11.2693
10.6696
10.1703
9.75627
9.41417
9.13236
8.90076
8.71074
8.55501
8.42742
8.32286
8.23709
8.16663
8.10861
8.06073
8.02109
7.98818
7.96076
7.93786
7.91866
7.90253
7.88893
7.87742
7.86766
7.85937
7.85229
7.84623
7.84104
7.83657
7.8327
7.82935
7.82643
7.82388
7.82162
7.81963
7.81784
7.81624
7.81479
7.81346
7.81224
7.81111
7.81006
7.80907
7.80813
7.80724
7.80638
7.80557
7.80478
7.80402
7.80328
7.80257
7.80187
7.8012
7.80054
7.7999
7.79928
7.79867
7.79808
7.7975
7.79693
7.79638
7.79584
7.79531
7.79479
7.79428
7.79379
7.79331
7.79286
7.79245
7.7921
7.79186
7.7918
7.79204
7.79275
7.79421
7.79683
7.80115
7.8079
7.81773
131.471
99.9044
91.3221
93.3991
101.328
113.54
129.389
148.467
170.36
194.564
220.479
247.434
274.749
301.767
327.9
352.625
375.489
396.074
413.979
428.791
440.084
447.437
450.487
449.02
443.069
433.021
419.665
404.162
387.904
372.284
358.456
347.168
338.733
333.143
330.313
330.493
333.384
338.456
345.242
353.208
361.578
369.234
374.777
376.862
374.708
368.484
359.244
348.443
337.442
327.236
318.307
310.525
303.245
295.623
287.001
277.13
266.164
254.5
242.599
230.845
219.497
208.688
198.456
188.784
179.627
170.932
162.647
154.73
147.145
139.864
132.862
126.117
119.608
113.315
107.219
101.3
95.543
89.9326
84.4584
79.1138
73.8973
68.812
63.8658
59.0709
54.4427
49.9988
45.7582
41.7391
37.9585
34.4307
31.1665
28.1723
25.4503
22.9977
20.8075
18.8688
17.1674
15.6867
14.4083
13.3129
12.381
11.5937
10.9327
10.3809
9.92277
9.54425
9.23285
8.97761
8.76906
8.59908
8.46081
8.34844
8.25717
8.18301
8.12269
8.07354
8.03339
8.0005
7.97345
7.95114
7.93265
7.91724
7.90435
7.89349
7.88429
7.87645
7.86972
7.86391
7.85886
7.85442
7.85051
7.84702
7.84388
7.84104
7.83845
7.83606
7.83384
7.83177
7.82982
7.82797
7.82622
7.82453
7.82292
7.82136
7.81985
7.8184
7.81698
7.81561
7.81427
7.81297
7.8117
7.81047
7.80927
7.8081
7.80696
7.80586
7.80478
7.80373
7.80271
7.80172
7.80075
7.7998
7.79888
7.79798
7.79711
7.79625
7.79541
7.79459
7.7938
7.79305
7.79236
7.79178
7.79136
7.7912
7.79149
7.79245
7.79446
7.79801
7.80372
7.81218
131.188
105.547
97.298
98.8846
106.267
118.011
133.479
152.28
174.043
198.323
224.579
252.189
280.489
308.818
336.552
363.123
388.024
410.794
431.003
448.229
462.053
472.071
477.926
479.377
476.382
469.175
458.322
444.71
429.456
413.755
398.695
385.117
373.573
364.376
357.802
354.314
353.637
355.56
359.761
365.733
372.657
379.325
384.21
385.813
383.182
376.273
365.83
352.974
338.902
324.736
311.285
298.805
287.015
275.403
263.57
251.411
239.097
226.932
215.216
204.152
193.832
184.255
175.361
167.068
159.288
151.946
144.981
138.344
132
125.922
120.087
114.475
109.067
103.843
98.7826
93.8654
89.0716
84.3831
79.7847
75.265
70.8172
66.4397
62.1361
57.9152
53.7901
49.7774
45.8965
42.1677
38.6113
35.2465
32.0898
29.1545
26.4501
23.9813
21.7488
19.7487
17.9732
16.4113
15.0492
13.8714
12.861
12.0011
11.2743
10.6645
10.1559
9.73428
9.38672
9.10163
8.86881
8.67942
8.52589
8.40174
8.30157
8.22084
8.1558
8.10338
8.06107
8.02685
7.99906
7.97641
7.95785
7.94254
7.92982
7.91914
7.91011
7.90238
7.89569
7.88983
7.88464
7.87999
7.87577
7.8719
7.86832
7.86496
7.8618
7.85879
7.85592
7.85316
7.85049
7.8479
7.8454
7.84295
7.84057
7.83825
7.83599
7.83377
7.83162
7.82951
7.82745
7.82545
7.8235
7.8216
7.81975
7.81795
7.81621
7.81451
7.81287
7.81127
7.80972
7.80822
7.80677
7.80535
7.80398
7.80265
7.80135
7.80009
7.79886
7.79767
7.79652
7.79541
7.79437
7.79344
7.79267
7.79216
7.79206
7.79261
7.79413
7.79706
7.80197
7.80938
133.212
113.067
105.585
106.679
113.441
124.712
139.89
158.583
180.444
205.063
231.94
260.483
290.041
319.939
349.515
378.151
405.277
430.383
452.999
472.691
489.044
501.675
510.247
514.521
514.411
510.049
501.827
490.407
476.673
461.626
446.268
431.484
417.994
406.365
397.155
390.934
387.432
386.618
388.245
391.792
396.378
400.717
403.237
402.459
397.466
388.121
374.885
358.597
340.453
321.824
303.809
286.894
271.012
255.883
241.316
227.325
214.067
201.729
190.431
180.19
170.937
162.55
154.891
147.826
141.243
135.056
129.199
123.628
118.309
113.22
108.343
103.662
99.1604
94.8204
90.6224
86.5458
82.5694
78.6726
74.837
71.0473
67.2921
63.5654
59.8662
56.1993
52.5743
49.0054
45.5103
42.1091
38.8232
35.6736
32.6802
29.8606
27.2293
24.7968
22.5695
20.5498
18.7356
17.1214
15.6984
14.455
13.3781
12.453
11.6647
10.9979
10.4381
9.97114
9.5842
9.26544
9.0043
8.79144
8.61874
8.47917
8.36678
8.27652
8.20419
8.14629
8.09994