/*--------------------------------*- C++ -*----------------------------------*\
  =========                 |
  \\      /  F ield         | OpenFOAM: The Open Source CFD Toolbox
   \\    /   O peration     | Website:  https://openfoam.org
    \\  /    A nd           | Version:  12
     \\/     M anipulation  |
\*---------------------------------------------------------------------------*/
FoamFile
{
    format      ascii;
    class       volScalarField;
    location    "0.01";
    object      k;
}
// * * * * * * * * * * * * * * * * * * * * * * * * * * * * * * * * * * * * * //

dimensions      [0 2 -2 0 0 0 0];

internalField   nonuniform List<scalar> 
12225
(
0.353484
0.333926
0.315358
0.299072
0.286106
0.276856
0.271278
0.269049
0.269692
0.272675
0.277474
0.283614
0.290684
0.298347
0.30634
0.314457
0.322642
0.334976
0.434214
0.443818
0.43271
0.428233
0.434614
0.450026
0.471755
0.497341
0.524798
0.552651
0.579887
0.605859
0.6302
0.652752
0.673553
0.692645
0.710917
0.727362
0.394988
0.40985
0.408847
0.403671
0.399897
0.398881
0.400683
0.404998
0.411393
0.419401
0.428586
0.43857
0.449042
0.459762
0.470572
0.481371
0.492269
0.503089
0.379544
0.384529
0.385986
0.384959
0.382998
0.381049
0.379564
0.378739
0.378628
0.379203
0.380398
0.38213
0.384317
0.386884
0.389777
0.392962
0.396445
0.400189
0.374947
0.375797
0.376037
0.375417
0.374178
0.372624
0.370991
0.369435
0.368048
0.366879
0.365945
0.365245
0.364767
0.364499
0.364428
0.364549
0.364861
0.365356
0.373479
0.372521
0.371685
0.370685
0.369461
0.368062
0.36656
0.365024
0.363508
0.36205
0.360675
0.359397
0.358225
0.35716
0.356204
0.355358
0.354627
0.354012
0.37301
0.371285
0.369786
0.368368
0.366954
0.365515
0.364051
0.362575
0.361104
0.359658
0.358249
0.356889
0.355586
0.354345
0.35317
0.352065
0.351033
0.350085
0.372864
0.370835
0.368995
0.367293
0.365683
0.364135
0.362628
0.361153
0.359709
0.358298
0.356924
0.35559
0.354298
0.353054
0.351858
0.350714
0.349625
0.348605
0.37282
0.370679
0.368689
0.366831
0.365085
0.363434
0.36186
0.360351
0.358898
0.357496
0.356142
0.354834
0.353573
0.352357
0.351186
0.350063
0.34899
0.347979
0.372806
0.370628
0.368577
0.366646
0.364826
0.363106
0.361476
0.359927
0.358448
0.357035
0.355681
0.354383
0.353137
0.351942
0.350796
0.349699
0.348652
0.347666
0.372801
0.370609
0.368536
0.366576
0.36472
0.362964
0.361299
0.359719
0.358217
0.356786
0.355423
0.354122
0.352879
0.351692
0.350559
0.349477
0.348448
0.347483
0.372799
0.370603
0.368522
0.36655
0.364681
0.362908
0.361227
0.359631
0.358114
0.356671
0.355298
0.353991
0.352746
0.351559
0.350429
0.349354
0.348333
0.347378
0.372797
0.370599
0.368514
0.366537
0.364661
0.362881
0.361191
0.359586
0.358061
0.35661
0.355231
0.353918
0.352669
0.35148
0.35035
0.349276
0.348259
0.347309
0.372796
0.370596
0.368509
0.366529
0.36465
0.362866
0.361171
0.359561
0.358031
0.356575
0.355191
0.353875
0.352622
0.351432
0.350301
0.349227
0.34821
0.347261
0.372795
0.370594
0.368505
0.366523
0.364642
0.362855
0.361158
0.359545
0.358012
0.356554
0.355168
0.353849
0.352595
0.351403
0.350271
0.349196
0.348179
0.347229
0.372795
0.370592
0.368502
0.366518
0.364636
0.362848
0.361149
0.359534
0.357999
0.35654
0.355151
0.353831
0.352576
0.351383
0.350249
0.349173
0.348154
0.347202
0.372794
0.37059
0.3685
0.366515
0.364631
0.362842
0.361141
0.359525
0.357989
0.356528
0.355138
0.353816
0.352559
0.351364
0.350228
0.349149
0.348127
0.34717
0.372794
0.37059
0.368498
0.366513
0.364628
0.362837
0.361136
0.359519
0.357981
0.356518
0.355126
0.353802
0.352542
0.351344
0.350204
0.34912
0.348092
0.347128
0.372793
0.370589
0.368498
0.366512
0.364627
0.362836
0.361133
0.359515
0.357975
0.35651
0.355116
0.353788
0.352525
0.351322
0.350176
0.349086
0.348049
0.347077
0.372794
0.37059
0.368499
0.366513
0.364628
0.362837
0.361134
0.359515
0.357974
0.356508
0.355111
0.353781
0.352514
0.351307
0.350156
0.34906
0.348016
0.347036
0.372794
0.370591
0.3685
0.366516
0.364632
0.362841
0.361139
0.35952
0.35798
0.356513
0.355116
0.353785
0.352516
0.351307
0.350154
0.349054
0.348007
0.347022
0.372795
0.370593
0.368504
0.366522
0.364641
0.362854
0.361156
0.359541
0.358005
0.356542
0.355149
0.353821
0.352555
0.351348
0.350196
0.349097
0.348049
0.347062
0.372796
0.370599
0.368518
0.366547
0.36468
0.362909
0.361229
0.359632
0.358113
0.356665
0.355285
0.353968
0.35271
0.351508
0.350359
0.349259
0.348209
0.347218
0.372804
0.37063
0.36859
0.366673
0.364865
0.363154
0.36153
0.35998
0.358498
0.357077
0.355713
0.354402
0.353142
0.351932
0.350768
0.349651
0.34858
0.347566
0.372855
0.370815
0.368964
0.367246
0.365615
0.36404
0.362505
0.361004
0.359535
0.358101
0.356704
0.355349
0.354039
0.352775
0.351562
0.350399
0.349288
0.348241
0.373162
0.371751
0.370537
0.369296
0.367934
0.366448
0.364876
0.363264
0.361651
0.360067
0.358534
0.357069
0.355682
0.354378
0.35316
0.35203
0.350985
0.350034
0.374772
0.375746
0.375982
0.375082
0.373409
0.371377
0.369245
0.367167
0.36523
0.363486
0.361957
0.360652
0.359567
0.358692
0.358015
0.357519
0.35719
0.357011
0.382638
0.391138
0.391342
0.38752
0.383025
0.379058
0.375959
0.373789
0.372508
0.372036
0.372279
0.37314
0.374525
0.376349
0.378535
0.381016
0.383732
0.386616
0.406049
0.411502
0.402113
0.392886
0.387801
0.386916
0.389458
0.394602
0.401627
0.409952
0.419138
0.428854
0.438853
0.448951
0.459019
0.468964
0.478745
0.488272
0.360335
0.346959
0.334043
0.321822
0.310745
0.301068
0.292886
0.286183
0.280876
0.276841
0.273941
0.272038
0.270997
0.270694
0.271015
0.271862
0.273149
0.274792
0.0877583
0.127756
0.14009
0.1428
0.145378
0.158762
0.173623
0.189662
0.207512
0.227703
0.250554
0.276221
0.304742
0.336059
0.37003
0.406433
0.444978
0.48532
0.527079
0.569856
0.613255
0.656896
0.70043
0.743546
0.785973
0.827485
0.867894
0.907054
0.944854
0.981212
1.01608
1.04944
1.08131
1.11173
1.14081
1.16867
1.19556
1.22181
1.24558
1.26603
1.28295
1.29612
1.30526
1.31014
1.31054
1.30628
1.29724
1.28339
1.26477
1.24148
1.21374
1.18185
1.14617
1.10713
1.06523
1.02102
0.97507
0.928012
0.880519
0.833377
0.787619
0.744452
0.705426
0.672683
0.64313
0.61482
0.58758
0.561461
0.536552
0.512935
0.490678
0.469833
0.450436
0.432505
0.416046
0.401051
0.387501
0.375366
0.364607
0.355174
0.347013
0.34006
0.334244
0.32949
0.32572
0.32285
0.320796
0.319474
0.318798
0.318688
0.319065
0.319853
0.320984
0.322392
0.32402
0.325815
0.32773
0.329725
0.331765
0.33382
0.335865
0.337881
0.339849
0.341758
0.343598
0.345362
0.347044
0.348643
0.350158
0.35158
0.352895
0.354105
0.355212
0.356219
0.357127
0.35794
0.358662
0.359298
0.359856
0.360343
0.360765
0.361132
0.361449
0.361725
0.361964
0.362172
0.362354
0.362513
0.362652
0.362775
0.362882
0.362977
0.36306
0.363133
0.363197
0.363253
0.363302
0.363344
0.363381
0.363413
0.36344
0.363462
0.363481
0.363497
0.36351
0.363519
0.363526
0.363531
0.363534
0.363535
0.363534
0.363532
0.363527
0.363521
0.363512
0.363501
0.363488
0.363471
0.363451
0.363425
0.363394
0.363355
0.363306
0.363245
0.363168
0.36307
0.362946
0.362788
0.362585
0.362323
0.361983
0.361538
0.36095
0.360164
0.359098
0.357619
0.35553
0.352393
0.347876
0.339135
0.175008
0.270712
0.336175
0.388351
0.433299
0.473763
0.511181
0.547795
0.585081
0.623658
0.663523
0.704343
0.745674
0.787104
0.828335
0.869218
0.909751
0.95006
0.990371
1.03097
1.07217
1.11431
1.15766
1.20249
1.24901
1.29738
1.34769
1.39997
1.45422
1.51036
1.56827
1.62776
1.68861
1.75051
1.81312
1.876
1.93868
2.00029
2.06008
2.11779
2.17254
2.22336
2.2692
2.30899
2.34173
2.36648
2.38243
2.38892
2.38549
2.37189
2.34811
2.31438
2.27113
2.21903
2.1589
2.09168
2.01844
1.94027
1.85828
1.77355
1.68711
1.59977
1.51237
1.429
1.34958
1.27273
1.19847
1.12699
1.05854
0.993283
0.931363
0.872855
0.817791
0.766162
0.71792
0.672992
0.631276
0.592655
0.556996
0.524155
0.493983
0.466329
0.441039
0.417961
0.396946
0.377851
0.360534
0.344863
0.330708
0.317948
0.306467
0.296157
0.286915
0.278645
0.271257
0.264668
0.258802
0.253587
0.248957
0.244852
0.241217
0.238003
0.235164
0.232659
0.230451
0.228507
0.226796
0.225292
0.223973
0.222824
0.221838
0.220991
0.220264
0.219641
0.219111
0.218661
0.21828
0.21796
0.217692
0.21747
0.217287
0.217138
0.217018
0.216924
0.21685
0.216794
0.216751
0.21672
0.216697
0.216681
0.216669
0.216659
0.216651
0.216643
0.216634
0.216625
0.216613
0.2166
0.216584
0.216566
0.216545
0.216523
0.216497
0.21647
0.21644
0.216408
0.216373
0.216337
0.216299
0.21626
0.216218
0.216176
0.216132
0.216087
0.216042
0.215996
0.21595
0.215904
0.215858
0.215814
0.215771
0.21573
0.215692
0.215658
0.21563
0.215609
0.215598
0.2156
0.21562
0.215664
0.215742
0.215869
0.216066
0.216371
0.216846
0.217607
0.218862
0.221108
0.224995
0.234531
0.304729
0.43996
0.524448
0.586497
0.63726
0.681816
0.72285
0.762595
0.802682
0.843958
0.886663
0.9307
0.975852
1.02192
1.06881
1.1165
1.16505
1.21458
1.2652
1.317
1.37001
1.42425
1.47968
1.53622
1.59384
1.65248
1.71214
1.77288
1.83478
1.89796
1.96257
2.02871
2.09646
2.16582
2.23668
2.30882
2.38187
2.45496
2.52761
2.59893
2.66781
2.73298
2.7931
2.84677
2.89263
2.9294
2.95589
2.97113
2.97435
2.96506
2.94305
2.90842
2.86157
2.80318
2.73416
2.65562
2.56879
2.47497
2.3755
2.27166
2.16468
2.05566
1.94584
1.84035
1.73846
1.63939
1.54329
1.4505
1.36135
1.27611
1.19499
1.11813
1.0456
0.977432
0.913586
0.853992
0.798539
0.747089
0.69948
0.655534
0.615061
0.577866
0.543749
0.512515
0.483968
0.457922
0.434193
0.41261
0.393007
0.375227
0.359123
0.344556
0.331397
0.319523
0.308822
0.299188
0.290524
0.282738
0.275749
0.269478
0.263857
0.258821
0.25431
0.250273
0.24666
0.243429
0.240538
0.237953
0.235641
0.233574
0.231723
0.230066
0.228579
0.22724
0.226032
0.22494
0.223956
0.223066
0.22226
0.22153
0.220867
0.220265
0.219717
0.219219
0.218765
0.21835
0.217971
0.217622
0.217302
0.217007
0.216733
0.21648
0.216243
0.216022
0.215815
0.215619
0.215435
0.215261
0.215095
0.214937
0.214785
0.21464
0.214501
0.214366
0.214236
0.21411
0.213987
0.213867
0.213749
0.213634
0.213521
0.21341
0.2133
0.213191
0.213083
0.212976
0.212869
0.212763
0.212656
0.212549
0.212442
0.212334
0.212224
0.212113
0.212
0.211884
0.211765
0.211642
0.211514
0.211379
0.211237
0.211086
0.210925
0.210752
0.210569
0.210386
0.210218
0.210167
0.210288
0.211638
0.393988
0.559907
0.661769
0.732873
0.788408
0.836571
0.881688
0.92638
0.972265
1.02015
1.07022
1.12234
1.17623
1.23159
1.28819
1.34585
1.40442
1.46377
1.52373
1.58414
1.64478
1.70546
1.76597
1.82619
1.88606
1.94561
2.00501
2.06454
2.12457
2.18553
2.24788
2.31204
2.37834
2.44698
2.51794
2.59096
2.66552
2.74087
2.81658
2.89175
2.96523
3.03571
3.10176
3.1619
3.2146
3.2584
3.2919
3.31386
3.32324
3.31929
3.30153
3.26985
3.2245
3.16603
3.09531
3.01345
2.92172
2.82148
2.71415
2.60112
2.48371
2.36317
2.24195
2.12467
2.0098
1.89731
1.78762
1.68119
1.57847
1.47984
1.38559
1.29596
1.2111
1.1311
1.05597
0.985691
0.920178
0.859308
0.802923
0.750839
0.702851
0.65874
0.618282
0.581246
0.547405
0.516536
0.488423
0.462857
0.439641
0.418588
0.399521
0.382276
0.366696
0.352639
0.339969
0.328563
0.318305
0.309088
0.300815
0.293394
0.286743
0.280787
0.275455
0.270686
0.266421
0.262608
0.259202
0.256158
0.25344
0.251011
0.248842
0.246904
0.245171
0.243622
0.242233
0.240986
0.239862
0.23885
0.237939
0.237116
0.236371
0.235695
0.235081
0.234522
0.23401
0.233542
0.233112
0.232717
0.232351
0.232013
0.2317
0.231408
0.231136
0.230882
0.230644
0.23042
0.230209
0.23001
0.229822
0.229643
0.229473
0.229311
0.229156
0.229007
0.228863
0.228725
0.228591
0.228461
0.228334
0.228211
0.22809
0.227972
0.227856
0.227741
0.227628
0.227516
0.227405
0.227294
0.227183
0.227072
0.226961
0.226849
0.226735
0.22662
0.226502
0.226382
0.226258
0.226129
0.225994
0.225851
0.225698
0.225533
0.225353
0.225154
0.224932
0.224684
0.224407
0.22412
0.223791
0.223623
0.455367
0.637046
0.75154
0.831823
0.894472
0.949221
1.00151
1.05439
1.10946
1.16734
1.228
1.29105
1.35593
1.42211
1.4891
1.55646
1.62379
1.69072
1.75688
1.82191
1.88547
1.94729
2.00719
2.06514
2.12123
2.17575
2.22915
2.28199
2.33495
2.38871
2.44394
2.50121
2.56091
2.62326
2.68821
2.75543
2.82434
2.89445
2.96584
3.03784
3.10942
3.17936
3.24632
3.30883
3.36535
3.41431
3.45416
3.48339
3.50067
3.50485
3.49512
3.47101
3.43245
3.37978
3.3137
3.23524
3.14563
3.04625
2.93853
2.8239
2.70375
2.57958
2.45621
2.33418
2.21322
2.09375
1.97637
1.8617
1.75028
1.64262
1.53912
1.44013
1.34592
1.25666
1.17249
1.09345
1.01954
0.950688
0.886784
0.827671
0.773158
0.723032
0.677059
0.634993
0.596586
0.561588
0.529751
0.500838
0.474621
0.45088
0.429412
0.410024
0.392534
0.376778
0.362598
0.349851
0.338405
0.328138
0.318936
0.310698
0.303328
0.296739
0.290854
0.285601
0.280914
0.276735
0.27301
0.269692
0.266736
0.264104
0.261761
0.259676
0.257819
0.256165
0.254692
0.253379
0.252206
0.251155
0.250214
0.249371
0.248613
0.247932
0.247317
0.246761
0.246257
0.245798
0.245379
0.244996
0.244645
0.244321
0.244023
0.243746
0.243489
0.24325
0.243027
0.242818
0.242622
0.242438
0.242264
0.242099
0.241943
0.241794
0.241652
0.241517
0.241386
0.241261
0.241139
0.241022
0.240908
0.240796
0.240688
0.240581
0.240477
0.240374
0.240272
0.240172
0.240072
0.239972
0.239873
0.239774
0.239674
0.239573
0.239472
0.239368
0.239263
0.239155
0.239044
0.238929
0.238808
0.238681
0.238545
0.238399
0.23824
0.238065
0.237872
0.237661
0.23743
0.237194
0.236944
0.236773
0.495158
0.680809
0.80321
0.892141
0.963695
1.02767
1.08984
1.15341
1.21991
1.28972
1.36251
1.43754
1.51394
1.59086
1.66748
1.74312
1.81712
1.88892
1.958
2.02391
2.08629
2.14493
2.19976
2.25091
2.29871
2.34366
2.38644
2.42787
2.46878
2.51007
2.55252
2.59684
2.64353
2.69288
2.74496
2.79955
2.85617
2.9147
2.97592
3.03941
3.10436
3.16973
3.23435
3.29688
3.3559
3.40982
3.45698
3.49565
3.52408
3.54068
3.54408
3.53329
3.50776
3.46746
3.41281
3.34465
3.26413
3.1726
3.07146
2.96216
2.84615
2.72738
2.60764
2.48693
2.36579
2.24491
2.12505
2.00689
1.8911
1.77828
1.66895
1.56357
1.46255
1.36619
1.27475
1.1884
1.10724
1.03131
0.960575
0.894956
0.834317
0.778478
0.727229
0.680335
0.637541
0.598585
0.5632
0.531123
0.502095
0.475868
0.452209
0.430893
0.411713
0.394477
0.379004
0.365131
0.352703
0.341583
0.331641
0.322762
0.314838
0.307773
0.301478
0.295873
0.290886
0.286451
0.282509
0.279008
0.275898
0.273138
0.270689
0.268517
0.26659
0.264881
0.263365
0.26202
0.260827
0.259765
0.25882
0.257978
0.257227
0.256556
0.255956
0.255418
0.254933
0.254497
0.254102
0.253744
0.253418
0.253121
0.252848
0.252598
0.252368
0.252154
0.251957
0.251773
0.251601
0.25144
0.251289
0.251147
0.251012
0.250885
0.250763
0.250648
0.250537
0.25043
0.250327
0.250228
0.250131
0.250037
0.249946
0.249856
0.249768
0.249681
0.249595
0.24951
0.249426
0.249342
0.249258
0.249174
0.24909
0.249005
0.248919
0.248832
0.248743
0.248652
0.248558
0.248461
0.248359
0.248252
0.248138
0.248016
0.247885
0.247743
0.247589
0.247426
0.247257
0.2471
0.246966
0.24693
0.518852
0.701238
0.827639
0.923884
1.00468
1.07902
1.15239
1.22784
1.30669
1.38903
1.47417
1.56101
1.64831
1.73487
1.81959
1.90153
1.97984
2.05382
2.12285
2.18648
2.24436
2.29634
2.34246
2.38299
2.41839
2.44934
2.47668
2.50141
2.5246
2.54734
2.5707
2.59561
2.62287
2.65306
2.68648
2.72318
2.76291
2.80595
2.85344
2.90513
2.96032
3.01818
3.07778
3.13813
3.19807
3.25628
3.31116
3.36082
3.40318
3.43607
3.45743
3.46551
3.45908
3.4375
3.4008
3.34952
3.28467
3.20751
3.1194
3.02185
2.91857
2.81117
2.70022
2.58648
2.47075
2.35387
2.23661
2.11977
2.00405
1.89013
1.77865
1.67017
1.56522
1.46423
1.3676
1.27563
1.18857
1.10658
1.02976
0.958131
0.891664
0.830258
0.773763
0.72199
0.674711
0.631677
0.59262
0.557265
0.525335
0.496558
0.470669
0.447416
0.426562
0.407883
0.391173
0.376242
0.362914
0.351029
0.34044
0.331014
0.322631
0.31518
0.308563
0.30269
0.297482
0.292864
0.288773
0.28515
0.281943
0.279106
0.276596
0.274377
0.272416
0.270683
0.269152
0.267799
0.266604
0.265547
0.264611
0.263783
0.263048
0.262396
0.261817
0.261301
0.260841
0.26043
0.260062
0.259731
0.259433
0.259163
0.258919
0.258696
0.258493
0.258307
0.258136
0.257978
0.257831
0.257695
0.257568
0.257449
0.257338
0.257232
0.257132
0.257037
0.256947
0.25686
0.256776
0.256695
0.256617
0.256541
0.256467
0.256395
0.256323
0.256253
0.256184
0.256115
0.256047
0.25598
0.255912
0.255844
0.255776
0.255707
0.255638
0.255567
0.255495
0.255421
0.255345
0.255266
0.255184
0.255097
0.255006
0.254909
0.254806
0.254696
0.254581
0.254464
0.254355
0.254271
0.254236
0.254312
0.530675
0.706044
0.833516
0.935309
1.0245
1.10894
1.19347
1.28074
1.37171
1.46612
1.56289
1.66053
1.75744
1.85209
1.94314
2.02941
2.10993
2.18387
2.25056
2.3095
2.36035
2.40293
2.43733
2.46384
2.48302
2.49566
2.50282
2.50577
2.50593
2.50482
2.50397
2.50482
2.50865
2.51645
2.52891
2.54637
2.56883
2.59669
2.63056
2.66983
2.71375
2.76165
2.81301
2.86745
2.92451
2.98353
3.04341
3.10251
3.15858
3.20893
3.25068
3.28114
3.29809
3.30005
3.28639
3.25724
3.21336
3.15598
3.08626
3.00819
2.92266
2.83078
2.73353
2.63185
2.52662
2.41869
2.30887
2.19797
2.08675
1.97594
1.86623
1.75828
1.6527
1.55005
1.45084
1.35551
1.26443
1.17792
1.0962
1.01946
0.947774
0.881169
0.8196
0.762963
0.711099
0.663808
0.620853
0.581975
0.546898
0.515339
0.487016
0.461652
0.438981
0.418751
0.400727
0.384689
0.370434
0.357779
0.346553
0.336605
0.327795
0.319999
0.313104
0.30701
0.301627
0.296873
0.292677
0.288976
0.285711
0.282832
0.280296
0.27806
0.276092
0.274358
0.272832
0.271489
0.270308
0.269268
0.268351
0.267544
0.266832
0.266204
0.26565
0.26516
0.264726
0.264341
0.264
0.263696
0.263425
0.263182
0.262965
0.262768
0.262591
0.262431
0.262285
0.262151
0.262028
0.261916
0.261811
0.261714
0.261624
0.261539
0.261459
0.261383
0.261312
0.261243
0.261178
0.261114
0.261053
0.260994
0.260936
0.26088
0.260825
0.26077
0.260717
0.260663
0.260611
0.260558
0.260505
0.260453
0.2604
0.260346
0.260292
0.260237
0.260181
0.260123
0.260064
0.260003
0.259939
0.259872
0.259802
0.259728
0.259651
0.259571
0.259491
0.259416
0.259358
0.259335
0.259375
0.259531
0.533643
0.700374
0.826833
0.932335
1.02841
1.12174
1.2164
1.31448
1.41651
1.5218
1.62887
1.73586
1.84083
1.94199
2.03775
2.12679
2.20798
2.28041
2.34331
2.39607
2.43825
2.46961
2.49015
2.50014
2.50023
2.49141
2.47508
2.45302
2.4273
2.40019
2.374
2.35092
2.33282
2.32112
2.31674
2.32005
2.33095
2.34934
2.37373
2.40266
2.43507
2.47047
2.50895
2.55106
2.59761
2.64924
2.70611
2.76744
2.8314
2.89508
2.95482
3.00686
3.04777
3.07481
3.08645
3.08214
3.06222
3.02841
2.98278
2.92688
2.86195
2.78914
2.70945
2.62381
2.5331
2.43816
2.33982
2.23886
2.13607
2.03221
1.92802
1.8242
1.72142
1.62033
1.52152
1.42552
1.33283
1.24388
1.15904
1.07861
1.00283
0.931852
0.865772
0.804603
0.748294
0.696731
0.64975
0.607141
0.568661
0.534043
0.503007
0.475266
0.450537
0.428545
0.409026
0.391733
0.376436
0.362921
0.350995
0.340481
0.33122
0.323069
0.315898
0.309593
0.304051
0.299182
0.294906
0.29115
0.287852
0.284957
0.282417
0.280187
0.278231
0.276515
0.275011
0.273691
0.272535
0.271522
0.270633
0.269853
0.26917
0.26857
0.268043
0.26758
0.267174
0.266816
0.266501
0.266223
0.265978
0.26576
0.265567
0.265395
0.265241
0.265104
0.26498
0.264868
0.264767
0.264674
0.26459
0.264512
0.26444
0.264373
0.264311
0.264253
0.264197
0.264145
0.264095
0.264047
0.264001
0.263957
0.263913
0.263871
0.26383
0.263789
0.263749
0.263709
0.26367
0.26363
0.263591
0.263551
0.263512
0.263472
0.263431
0.26339
0.263348
0.263304
0.26326
0.263214
0.263166
0.263117
0.263065
0.263012
0.262957
0.262903
0.262853
0.262813
0.262796
0.262821
0.262916
0.263125
0.529883
0.687662
0.811725
0.919245
1.02042
1.12094
1.22409
1.33139
1.44287
1.55741
1.67318
1.78795
1.89951
2.00582
2.10513
2.19595
2.27705
2.34737
2.40601
2.45219
2.48529
2.5049
2.51089
2.50355
2.48364
2.45255
2.41231
2.36557
2.31547
2.26544
2.21889
2.17882
2.14757
2.12662
2.11649
2.11687
2.12681
2.14438
2.16541
2.1874
2.20891
2.22953
2.24995
2.27185
2.29765
2.32994
2.37087
2.42145
2.4811
2.54743
2.61636
2.68317
2.74324
2.79211
2.82716
2.84697
2.85171
2.84279
2.82143
2.78885
2.74615
2.69436
2.63443
2.56722
2.49359
2.41434
2.33026
2.24215
2.15078
2.05694
1.96136
1.86479
1.76792
1.67143
1.57596
1.48211
1.39044
1.30148
1.2157
1.1335
1.05525
0.981238
0.911694
0.846769
0.786542
0.73102
0.680142
0.633787
0.59178
0.553903
0.519908
0.489522
0.462464
0.438449
0.417196
0.398435
0.381909
0.36738
0.354627
0.343447
0.333657
0.325092
0.317605
0.311062
0.305348
0.300358
0.296002
0.292198
0.288878
0.285979
0.283447
0.281237
0.279307
0.277622
0.276151
0.274866
0.273745
0.272766
0.271912
0.271166
0.270514
0.269945
0.269449
0.269015
0.268636
0.268305
0.268016
0.267763
0.267541
0.267347
0.267176
0.267025
0.266892
0.266774
0.26667
0.266576
0.266493
0.266418
0.26635
0.266288
0.266231
0.26618
0.266132
0.266087
0.266045
0.266006
0.265969
0.265934
0.2659
0.265867
0.265835
0.265805
0.265775
0.265745
0.265716
0.265687
0.265658
0.26563
0.265601
0.265573
0.265544
0.265515
0.265485
0.265455
0.265425
0.265393
0.265361
0.265328
0.265293
0.265258
0.265222
0.265185
0.265149
0.265115
0.265089
0.265077
0.265091
0.26515
0.265282
0.26552
0.520964
0.670416
0.791306
0.899456
1.00399
1.1098
1.21952
1.33412
1.45318
1.57522
1.69802
1.81911
1.93603
2.04656
2.1488
2.24113
2.32219
2.39077
2.4458
2.48627
2.51135
2.52038
2.51312
2.48986
2.45165
2.40045
2.33925
2.27197
2.20323
2.13792
2.0806
2.0349
2.00314
1.98607
1.98297
1.99191
2.01032
2.03357
2.05617
2.07489
2.08779
2.09412
2.09464
2.09173
2.08928
2.0919
2.10418
2.12959
2.16974
2.22383
2.28814
2.35732
2.4265
2.48907
2.5406
2.57994
2.60635
2.61991
2.62117
2.6109
2.58993
2.5591
2.51922
2.47105
2.41535
2.35289
2.28442
2.21072
2.13254
2.05067
1.96584
1.8788
1.79024
1.70085
1.61129
1.52215
1.43405
1.34753
1.26312
1.1813
1.10254
1.02721
0.955676
0.888204
0.825008
0.76623
0.711934
0.662115
0.616697
0.575546
0.538477
0.505264
0.475652
0.449368
0.426132
0.405663
0.387688
0.371946
0.35819
0.346196
0.335754
0.326675
0.318791
0.311949
0.306016
0.300872
0.296414
0.292549
0.289198
0.286293
0.283773
0.281586
0.279689
0.278041
0.27661
0.275367
0.274287
0.27335
0.272535
0.271826
0.271211
0.270676
0.270212
0.269808
0.269458
0.269153
0.268889
0.268659
0.26846
0.268286
0.268135
0.268003
0.267887
0.267786
0.267698
0.267619
0.26755
0.267489
0.267434
0.267384
0.26734
0.267299
0.267263
0.267229
0.267197
0.267168
0.26714
0.267114
0.267089
0.267065
0.267042
0.267019
0.266997
0.266976
0.266955
0.266934
0.266913
0.266893
0.266872
0.266851
0.266831
0.26681
0.266788
0.266767
0.266745
0.266722
0.266699
0.266675
0.266651
0.266626
0.266601
0.266577
0.266555
0.266537
0.266528
0.266535
0.26657
0.266652
0.266804
0.267055
0.508086
0.65068
0.768274
0.876067
0.98242
1.09167
1.20597
1.32587
1.45059
1.57833
1.70663
1.83281
1.95423
2.06852
2.17366
2.26791
2.34979
2.41795
2.47112
2.50808
2.52774
2.5292
2.51206
2.47662
2.42424
2.35756
2.28065
2.19889
2.11849
2.04576
1.98621
1.94366
1.91981
1.91412
1.92413
1.94599
1.9753
2.00591
2.03272
2.05221
2.06164
2.05925
2.04477
2.0203
1.99036
1.96102
1.93904
1.93051
1.93959
1.96812
2.01402
2.0714
2.13503
2.19915
2.25887
2.31075
2.35269
2.38368
2.40346
2.41223
2.41041
2.39851
2.37712
2.34684
2.3083
2.26219
2.20921
2.15009
2.08559
2.01645
1.94341
1.86718
1.78846
1.7079
1.62613
1.54375
1.46133
1.37943
1.29857
1.21928
1.14204
1.0673
0.995494
0.926998
0.862136
0.801169
0.744292
0.691623
0.643209
0.599024
0.558975
0.522912
0.490638
0.461919
0.436497
0.4141
0.394453
0.377282
0.362326
0.349337
0.338084
0.328356
0.319961
0.312726
0.306497
0.301138
0.29653
0.292568
0.289161
0.286231
0.28371
0.28154
0.279671
0.278059
0.27667
0.275471
0.274435
0.273541
0.272769
0.272101
0.271524
0.271025
0.270594
0.270221
0.269899
0.269621
0.269381
0.269173
0.268994
0.268839
0.268705
0.268589
0.268488
0.2684
0.268324
0.268257
0.268199
0.268147
0.268102
0.268061
0.268025
0.267992
0.267962
0.267935
0.26791
0.267887
0.267865
0.267845
0.267825
0.267806
0.267789
0.267771
0.267754
0.267738
0.267722
0.267706
0.26769
0.267674
0.267658
0.267642
0.267627
0.267611
0.267594
0.267578
0.267561
0.267544
0.267527
0.267509
0.267492
0.267474
0.267456
0.26744
0.267427
0.267419
0.267421
0.26744
0.267488
0.267581
0.267741
0.267993
0.494048
0.630707
0.745152
0.85226
0.959365
1.07047
1.18747
1.31066
1.43906
1.5707
1.70301
1.8332
1.95853
2.07653
2.18509
2.28244
2.36668
2.43647
2.49044
2.52717
2.54533
2.54378
2.52191
2.47995
2.41937
2.34331
2.25668
2.16601
2.0788
2.00245
1.94306
1.90437
1.88736
1.8904
1.90974
1.94037
1.97664
2.01276
2.0445
2.06812
2.08005
2.07712
2.05709
2.02085
1.97243
1.91818
1.86621
1.82464
1.79988
1.79557
1.81207
1.84674
1.89483
1.95063
2.00856
2.064
2.11364
2.15535
2.18796
2.21094
2.22414
2.22766
2.22176
2.20682
2.18331
2.15179
2.11291
2.06736
2.01585
1.95911
1.89784
1.83274
1.76445
1.69359
1.62075
1.54647
1.47128
1.39569
1.3202
1.24529
1.17146
1.09917
1.02888
0.961031
0.896015
0.834192
0.775865
0.721271
0.670579
0.623881
0.581197
0.542477
0.507607
0.476419
0.448705
0.424226
0.402722
0.383925
0.36757
0.353397
0.341157
0.330619
0.321571
0.31382
0.307191
0.301531
0.296702
0.292584
0.289075
0.286085
0.283535
0.28136
0.279504
0.277918
0.276562
0.275401
0.274407
0.273555
0.272824
0.272196
0.271657
0.271193
0.270795
0.270453
0.270158
0.269905
0.269687
0.2695
0.269338
0.269199
0.26908
0.268976
0.268886
0.268809
0.268741
0.268682
0.268631
0.268585
0.268545
0.268509
0.268477
0.268448
0.268421
0.268397
0.268374
0.268353
0.268334
0.268315
0.268298
0.268281
0.268264
0.268249
0.268233
0.268218
0.268203
0.268189
0.268174
0.26816
0.268146
0.268132
0.268118
0.268104
0.26809
0.268075
0.268061
0.268047
0.268032
0.268017
0.268002
0.267988
0.267974
0.267962
0.267953
0.26795
0.267958
0.267983
0.268035
0.268131
0.26829
0.268532
0.48033
0.613509
0.724948
0.831439
0.938839
1.05082
1.16915
1.29407
1.42454
1.55858
1.69361
1.82683
1.95547
2.077
2.18924
2.29027
2.37837
2.45201
2.50967
2.54984
2.571
2.57184
2.55151
2.51003
2.44874
2.37078
2.28123
2.18703
2.09619
2.01664
1.95476
1.91432
1.89604
1.89795
1.91623
1.94627
1.98276
2.02027
2.05469
2.08221
2.09876
2.10024
2.0832
2.04621
1.99104
1.92312
1.85071
1.78308
1.72853
1.69297
1.67928
1.68717
1.71362
1.75378
1.80211
1.85346
1.90362
1.94951
1.98907
2.02099
2.0445
2.05921
2.065
2.062
2.05049
2.03093
2.00388
1.96997
1.92988
1.88431
1.83394
1.77942
1.72134
1.66027
1.59673
1.53121
1.46414
1.39598
1.32716
1.2581
1.18924
1.12102
1.0539
0.988319
0.924708
0.863482
0.80502
0.749652
0.697653
0.649229
0.604514
0.563567
0.526378
0.492868
0.462901
0.436294
0.412829
0.392263
0.374341
0.358805
0.345401
0.333886
0.324029
0.31562
0.308467
0.302395
0.297252
0.292901
0.289223
0.286118
0.283495
0.28128
0.279408
0.277825
0.276485
0.275349
0.274386
0.273567
0.272871
0.272278
0.271772
0.27134
0.270972
0.270656
0.270386
0.270155
0.269956
0.269786
0.269639
0.269512
0.269402
0.269308
0.269225
0.269153
0.26909
0.269034
0.268985
0.268941
0.268901
0.268865
0.268833
0.268803
0.268775
0.268749
0.268725
0.268702
0.26868
0.26866
0.26864
0.26862
0.268602
0.268584
0.268566
0.268549
0.268532
0.268515
0.268499
0.268483
0.268467
0.268452
0.268436
0.268421
0.268405
0.26839
0.268375
0.26836
0.268345
0.268329
0.268315
0.2683
0.268287
0.268275
0.268267
0.268265
0.268273
0.268299
0.268351
0.268443
0.268594
0.268821
0.468159
0.601112
0.709807
0.815678
0.923101
1.03532
1.15404
1.27954
1.41091
1.5463
1.68324
1.81901
1.95088
2.07631
2.19304
2.2991
2.39274
2.47234
2.53634
2.58315
2.61121
2.61913
2.60591
2.57137
2.51657
2.44429
2.35919
2.26774
2.17749
2.09598
2.02937
1.98145
1.9533
1.94369
1.95005
1.96978
1.9986
2.03129
2.06366
2.09173
2.1111
2.11688
2.10426
2.06993
2.01372
1.93964
1.85536
1.77039
1.69393
1.63342
1.59375
1.57674
1.58117
1.60344
1.6386
1.68148
1.72742
1.77267
1.81445
1.85073
1.88018
1.90192
1.91551
1.92082
1.91797
1.9073
1.88933
1.86463
1.83386
1.79768
1.75674
1.71164
1.66293
1.61111
1.55662
1.49987
1.44123
1.38103
1.31964
1.25738
1.19463
1.13176
1.06917
1.00728
0.94652
0.887312
0.830072
0.775191
0.723019
0.673854
0.627933
0.585421
0.546413
0.51093
0.478928
0.450298
0.424887
0.402496
0.382905
0.365872
0.351151
0.338497
0.327674
0.318458
0.31064
0.304032
0.298463
0.293781
0.289852
0.28656
0.283804
0.281499
0.27957
0.277956
0.276604
0.275471
0.274519
0.273719
0.273045
0.272476
0.271995
0.271588
0.271242
0.270947
0.270696
0.27048
0.270296
0.270136
0.269999
0.269879
0.269775
0.269683
0.269602
0.26953
0.269466
0.269408
0.269356
0.269308
0.269264
0.269223
0.269185
0.269149
0.269115
0.269083
0.269052
0.269022
0.268994
0.268966
0.268939
0.268914
0.268888
0.268864
0.26884
0.268817
0.268794
0.268772
0.26875
0.268729
0.268708
0.268687
0.268667
0.268647
0.268628
0.268609
0.26859
0.268571
0.268553
0.268534
0.268516
0.268499
0.268483
0.268469
0.268459
0.268454
0.26846
0.268482
0.268529
0.268615
0.268754
0.268963
0.459058
0.59547
0.701727
0.806587
0.913603
1.02559
1.14414
1.26963
1.40135
1.5377
1.67643
1.81498
1.95068
2.08099
2.2036
2.31644
2.41768
2.50564
2.57872
2.63536
2.67403
2.69333
2.69224
2.67037
2.62843
2.56853
2.49443
2.41148
2.32606
2.24471
2.17311
2.11518
2.0728
2.04607
2.03415
2.03667
2.05016
2.07054
2.09387
2.11601
2.13216
2.13675
2.12398
2.08925
2.03103
1.95219
1.85965
1.76252
1.67019
1.59099
1.53117
1.49412
1.48
1.48626
1.50862
1.54212
1.58197
1.62403
1.66499
1.70233
1.73423
1.75948
1.77736
1.78757
1.79014
1.78535
1.77366
1.75565
1.73194
1.70317
1.66995
1.63284
1.59233
1.54887
1.50281
1.45447
1.40413
1.35203
1.29841
1.24353
1.18764
1.13104
1.07405
1.01704
0.960381
0.904484
0.849763
0.796631
0.745479
0.696668
0.650511
0.607265
0.567121
0.530199
0.496551
0.466159
0.438945
0.414781
0.393493
0.37488
0.358721
0.344785
0.332838
0.322655
0.314019
0.306729
0.300601
0.295468
0.291182
0.287612
0.284645
0.282182
0.28014
0.278448
0.277045
0.275882
0.274915
0.274111
0.273441
0.272881
0.272412
0.272018
0.271684
0.271402
0.271161
0.270954
0.270776
0.270621
0.270486
0.270367
0.270262
0.270167
0.270082
0.270004
0.269933
0.269867
0.269805
0.269747
0.269693
0.269641
0.269591
0.269543
0.269498
0.269453
0.269411
0.269369
0.269329
0.269289
0.269251
0.269214
0.269178
0.269143
0.269108
0.269075
0.269042
0.269011
0.26898
0.26895
0.26892
0.268892
0.268864
0.268837
0.268811
0.268785
0.268759
0.268735
0.26871
0.268686
0.268663
0.268641
0.26862
0.268601
0.268586
0.268577
0.268577
0.268594
0.268635
0.268711
0.268837
0.269027
0.45655
0.599187
0.703874
0.807028
0.912882