/*--------------------------------*- C++ -*----------------------------------*\
  =========                 |
  \\      /  F ield         | OpenFOAM: The Open Source CFD Toolbox
   \\    /   O peration     | Website:  https://openfoam.org
    \\  /    A nd           | Version:  12
     \\/     M anipulation  |
\*---------------------------------------------------------------------------*/
FoamFile
{
    format      ascii;
    class       volScalarField;
    location    "0.01";
    object      nut;
}
// * * * * * * * * * * * * * * * * * * * * * * * * * * * * * * * * * * * * * //

dimensions      [0 2 -1 0 0 0 0];

internalField   nonuniform List<scalar> 
12225
(
4.04268e-05
3.819e-05
3.60664e-05
3.4204e-05
3.27213e-05
3.16638e-05
3.10265e-05
3.07725e-05
3.08474e-05
3.11903e-05
3.17413e-05
3.24462e-05
3.3258e-05
3.41382e-05
3.50568e-05
3.59906e-05
3.69334e-05
3.8354e-05
0.000281397
0.000208702
0.000175566
0.000156847
0.000145812
0.000139367
0.000135587
0.000133312
0.000131862
0.000130852
0.00013007
0.000129407
0.000128805
0.00012824
0.000127705
0.000127186
0.000126743
0.000126107
0.00055812
0.000422108
0.000351596
0.000306155
0.000273567
0.000248879
0.000229491
0.000213898
0.000201176
0.000190708
0.000182046
0.000174846
0.000168833
0.000163783
0.000159518
0.000155876
0.000152751
0.000149876
0.000741245
0.000627586
0.000546244
0.000487171
0.000441829
0.000405548
0.000375566
0.000350161
0.000328257
0.000309157
0.000292387
0.000277597
0.000264515
0.000252908
0.000242576
0.000233326
0.000224991
0.000217367
0.000817381
0.000759967
0.000701829
0.000650174
0.000605665
0.000567426
0.000534329
0.000505343
0.000479656
0.00045667
0.000435943
0.000417141
0.000400004
0.000384322
0.00036991
0.000356594
0.000344217
0.000332699
0.000842187
0.000819978
0.000790476
0.000758418
0.000726589
0.000696376
0.000668313
0.00064246
0.000618682
0.000596782
0.000576559
0.000557825
0.000540416
0.00052418
0.000508982
0.000494688
0.000481179
0.000468484
0.000849283
0.000841893
0.000829931
0.00081451
0.000796947
0.000778371
0.000759594
0.000741122
0.00072324
0.000706093
0.000689739
0.000674183
0.0006594
0.000645347
0.000631969
0.0006192
0.00060698
0.000595417
0.000851125
0.000848769
0.000844535
0.000838342
0.000830418
0.000821144
0.000810932
0.000800142
0.00078906
0.0007779
0.000766814
0.000755904
0.000745235
0.000734843
0.000724742
0.000714932
0.000705409
0.000696313
0.000851561
0.00085067
0.000849184
0.000846916
0.000843795
0.000839845
0.000835159
0.000829865
0.000824097
0.00081798
0.000811625
0.000805124
0.000798549
0.000791955
0.000785384
0.000778863
0.000772419
0.000766181
0.000851653
0.000851134
0.000850471
0.000849572
0.000848362
0.000846799
0.000844868
0.000842582
0.00083997
0.000837072
0.000833932
0.000830596
0.000827104
0.000823493
0.000819795
0.000816037
0.000812247
0.000808521
0.000851668
0.000851231
0.000850779
0.00085028
0.000849702
0.000849015
0.000848197
0.000847234
0.000846121
0.000844861
0.00084346
0.000841931
0.000840288
0.000838545
0.000836716
0.000834818
0.000832867
0.000830922
0.00085167
0.000851245
0.000850835
0.00085043
0.000850016
0.000849579
0.000849108
0.000848591
0.00084802
0.00084739
0.000846699
0.000845946
0.000845135
0.000844269
0.000843353
0.000842394
0.000841403
0.000840413
0.000851668
0.000851245
0.000850843
0.00085046
0.00085009
0.000849729
0.000849371
0.00084901
0.000848642
0.000848261
0.000847866
0.000847454
0.000847024
0.000846576
0.000846111
0.000845632
0.000845143
0.000844665
0.000851667
0.000851242
0.00085084
0.000850459
0.000850098
0.000849754
0.000849426
0.00084911
0.000848805
0.000848509
0.000848219
0.000847934
0.000847654
0.000847378
0.000847107
0.00084684
0.000846582
0.000846347
0.000851666
0.000851239
0.000850835
0.000850453
0.000850091
0.000849749
0.000849425
0.000849117
0.000848824
0.000848546
0.000848282
0.000848031
0.000847792
0.000847566
0.000847353
0.000847154
0.000846971
0.000846817
0.000851665
0.000851237
0.000850831
0.000850447
0.000850084
0.00084974
0.000849415
0.000849106
0.000848814
0.000848538
0.000848277
0.000848031
0.000847799
0.000847582
0.00084738
0.000847193
0.000847025
0.000846887
0.000851664
0.000851235
0.000850828
0.000850443
0.000850078
0.000849733
0.000849406
0.000849096
0.000848802
0.000848525
0.000848262
0.000848015
0.000847782
0.000847564
0.000847361
0.000847173
0.000847003
0.000846862
0.000851664
0.000851234
0.000850826
0.00085044
0.000850075
0.000849728
0.000849399
0.000849088
0.000848793
0.000848513
0.000848248
0.000847998
0.000847762
0.00084754
0.000847332
0.000847138
0.000846961
0.000846812
0.000851663
0.000851233
0.000850826
0.000850439
0.000850073
0.000849726
0.000849396
0.000849083
0.000848786
0.000848503
0.000848235
0.000847981
0.00084774
0.000847512
0.000847297
0.000847095
0.000846908
0.000846746
0.000851664
0.000851234
0.000850827
0.000850441
0.000850075
0.000849727
0.000849397
0.000849083
0.000848784
0.000848499
0.000848227
0.000847968
0.000847721
0.000847486
0.000847263
0.00084705
0.000846851
0.000846677
0.000851664
0.000851235
0.000850829
0.000850444
0.000850078
0.00084973
0.000849398
0.00084908
0.000848775
0.000848483
0.0008482
0.000847928
0.000847663
0.000847407
0.000847159
0.000846917
0.000846685
0.000846473
0.000851665
0.000851237
0.00085083
0.000850442
0.000850068
0.000849704
0.000849347
0.000848991
0.000848635
0.000848275
0.000847908
0.000847534
0.00084715
0.000846757
0.000846354
0.000845941
0.000845521
0.000845107
0.000851664
0.000851228
0.000850795
0.000850347
0.000849868
0.00084934
0.000848752
0.000848093
0.00084736
0.00084655
0.000845665
0.000844708
0.000843685
0.000842601
0.000841463
0.000840278
0.000839055
0.000837817
0.000851634
0.000851074
0.000850344
0.000849364
0.000848079
0.000846463
0.000844518
0.000842265
0.000839737
0.000836973
0.000834013
0.000830897
0.00082766
0.000824335
0.000820948
0.000817524
0.000814087
0.000810683
0.000851289
0.000849605
0.000846742
0.000842611
0.000837308
0.000831031
0.000824021
0.000816506
0.000808677
0.000800689
0.000792659
0.000784677
0.000776803
0.000769081
0.000761539
0.000754195
0.000747063
0.000740198
0.000848339
0.000839502
0.000826317
0.00081025
0.000792651
0.000774553
0.000756653
0.00073935
0.000722839
0.0007072
0.000692442
0.000678536
0.000665435
0.000653084
0.000641426
0.000630404
0.000619973
0.000610145
0.0008287
0.000789267
0.000746691
0.000706479
0.000670279
0.00063829
0.000610159
0.000585337
0.00056329
0.000543566
0.000525796
0.000509682
0.000494982
0.000481501
0.000469082
0.000457595
0.000446933
0.000437053
0.000731474
0.000628381
0.000555426
0.000501804
0.00046091
0.00042879
0.000402928
0.000381611
0.00036369
0.00034839
0.000335163
0.000323613
0.000313439
0.000304414
0.000296357
0.000289125
0.0002826
0.0002767
0.000439527
0.000337736
0.000286951
0.000255919
0.000235508
0.000221783
0.000212382
0.000205801
0.00020108
0.000197605
0.000194978
0.000192936
0.000191303
0.00018996
0.000188826
0.000187846
0.000186982
0.000186187
7.15997e-05
6.89419e-05
6.63752e-05
6.39469e-05
6.17458e-05
5.98229e-05
5.81968e-05
5.68646e-05
5.58093e-05
5.50066e-05
5.44293e-05
5.40495e-05
5.38405e-05
5.37777e-05
5.38387e-05
5.40035e-05
5.42551e-05
5.45771e-05
2.78815e-05
0.0001835
0.000202253
0.000209974
4.8301e-05
5.04339e-05
5.27959e-05
5.52526e-05
5.78852e-05
6.07505e-05
6.38649e-05
6.72182e-05
7.07845e-05
7.4529e-05
7.84117e-05
8.23894e-05
8.64179e-05
9.04542e-05
9.4458e-05
9.83936e-05
0.000102231
0.000105944
0.000109516
0.000112933
0.000116185
0.000119269
0.000122183
0.000124927
0.000127506
0.000129924
0.000132185
0.000134297
0.000136267
0.000138101
0.000139809
0.0001414
0.000142888
0.000144383
0.000145847
0.000147126
0.000148218
0.000149117
0.000149813
0.000150296
0.000150552
0.000150569
0.000150335
0.000149841
0.000149077
0.000148039
0.000146724
0.000145133
0.00014327
0.000141143
0.000138763
0.000136144
0.000133299
0.000130243
0.000126989
0.000123548
0.000119914
0.000116128
0.000112201
0.000108994
0.000106399
0.00010389
0.000101406
9.89443e-05
9.65128e-05
9.41233e-05
9.1788e-05
8.95188e-05
8.73269e-05
8.52229e-05
8.32164e-05
8.13163e-05
7.95304e-05
7.78654e-05
7.63268e-05
7.49186e-05
7.36434e-05
7.25021e-05
7.14938e-05
7.06157e-05
6.98637e-05
6.92318e-05
6.87126e-05
6.82978e-05
6.79779e-05
6.77433e-05
6.75839e-05
6.74896e-05
6.74509e-05
6.74584e-05
6.75037e-05
6.75789e-05
6.7677e-05
6.77917e-05
6.79177e-05
6.80504e-05
6.81859e-05
6.8321e-05
6.8453e-05
6.85799e-05
6.87001e-05
6.88125e-05
6.8916e-05
6.90103e-05
6.90951e-05
6.91695e-05
6.92318e-05
6.92823e-05
6.93213e-05
6.93493e-05
6.93663e-05
6.93729e-05
6.93693e-05
6.93561e-05
6.9334e-05
6.93034e-05
6.92654e-05
6.92205e-05
6.91696e-05
6.91134e-05
6.90526e-05
6.89878e-05
6.89194e-05
6.88479e-05
6.87736e-05
6.86969e-05
6.86179e-05
6.8537e-05
6.84542e-05
6.83697e-05
6.82836e-05
6.8196e-05
6.8107e-05
6.80167e-05
6.79252e-05
6.78324e-05
6.77385e-05
6.76434e-05
6.75472e-05
6.745e-05
6.73517e-05
6.72524e-05
6.71521e-05
6.70508e-05
6.69486e-05
6.68453e-05
6.67412e-05
6.6636e-05
6.65299e-05
6.64228e-05
6.63146e-05
6.62055e-05
6.60952e-05
6.59839e-05
6.58713e-05
6.57574e-05
6.56421e-05
6.55253e-05
6.54066e-05
6.5286e-05
6.5163e-05
6.50373e-05
6.49083e-05
6.47753e-05
6.46373e-05
6.4493e-05
6.43408e-05
6.41782e-05
6.40018e-05
6.38066e-05
6.35854e-05
6.33261e-05
6.3011e-05
6.26005e-05
6.20647e-05
6.11441e-05
5.5514e-05
0.000170369
0.000226168
0.000250993
0.00026264
0.000271859
0.000278217
0.000283174
0.000287809
0.000292718
0.000298152
0.000304167
0.000310749
0.000317882
0.00032559
0.000333942
0.000343051
0.000353066
0.000364163
0.000376529
0.000390359
0.000405844
0.000423164
0.000442483
0.000463942
0.000487651
0.000513683
0.00054206
0.000572744
0.00060562
0.000640479
0.000676997
0.000714717
0.000753025
0.000791135
0.000828091
0.00086281
0.000893784
0.000922921
0.000951539
0.000979542
0.00100668
0.00103266
0.0010572
0.00107999
0.00110076
0.00111923
0.00113513
0.00114824
0.00115836
0.00116535
0.00116908
0.00116948
0.00116654
0.00116026
0.00115067
0.00113783
0.00112177
0.00110255
0.00108014
0.00105448
0.00102559
0.000993597
0.000960445
0.000927148
0.000893476
0.00085949
0.00082534
0.000791191
0.000757201
0.000723515
0.000690265
0.000657564
0.000625514
0.000594204
0.000563712
0.000534107
0.000505454
0.000477809
0.000451227
0.000425757
0.000401445
0.000378331
0.000356447
0.000335818
0.000316458
0.000298372
0.00028155
0.000265972
0.000251606
0.000238409
0.000226331
0.000215311
0.000205288
0.000196194
0.00018796
0.000180519
0.000173803
0.000167749
0.000162296
0.000157386
0.000152967
0.000148988
0.000145405
0.000142178
0.000139269
0.000136644
0.000134274
0.000132131
0.000130166
0.000128327
0.000126606
0.000125
0.000123517
0.000122159
0.000120917
0.000119787
0.000118763
0.000117837
0.000117002
0.000116251
0.000115574
0.000114963
0.000114409
0.000113904
0.000113441
0.000113014
0.000112618
0.000112247
0.000111898
0.000111567
0.000111252
0.000110951
0.000110661
0.000110381
0.000110109
0.000109844
0.000109586
0.000109332
0.000109083
0.000108838
0.000108596
0.000108357
0.00010812
0.000107884
0.00010765
0.000107417
0.000107185
0.000106953
0.000106721
0.000106488
0.000106256
0.000106023
0.000105788
0.000105553
0.000105315
0.000105076
0.000104835
0.000104591
0.000104343
0.000104092
0.000103836
0.000103574
0.000103305
0.000103028
0.00010274
0.000102439
0.000102121
0.000101781
0.000101412
0.000101006
0.000100549
0.00010002
9.93921e-05
9.86173e-05
9.76271e-05
9.62896e-05
9.45249e-05
9.1743e-05
8.96738e-05
9.8147e-05
0.000262569
0.000354067
0.000400571
0.000426202
0.000442321
0.000453823
0.000463445
0.000472897
0.000483189
0.000494854
0.000508144
0.000523189
0.000540086
0.000558947
0.000579902
0.000603092
0.000628652
0.000656687
0.000687257
0.000720363
0.000755945
0.000793871
0.00083395
0.000875933
0.000919526
0.000964402
0.00101021
0.00105659
0.00110316
0.00114959
0.0011955
0.00124058
0.00128452
0.00132704
0.00136791
0.00140692
0.00144385
0.00148025
0.00151628
0.00155177
0.00158643
0.00161993
0.00165191
0.00168199
0.00170979
0.00173491
0.00175698
0.00177562
0.0017905
0.0018013
0.00180777
0.00180971
0.00180698
0.0017995
0.00178729
0.00177038
0.0017489
0.00172301
0.00169289
0.00165877
0.00162093
0.0015797
0.00153669
0.00149261
0.00144758
0.00140181
0.00135556
0.00130912
0.00126275
0.0012167
0.00117119
0.00112639
0.00108246
0.00103952
0.000997679
0.000956992
0.000917513
0.000879271
0.000842283
0.000806557
0.000772097
0.000738905
0.000706984
0.00067634
0.000646983
0.000618924
0.000592177
0.000566753
0.000542664
0.000519913
0.000498499
0.000478411
0.000459631
0.000442129
0.000425868
0.000410802
0.000396881
0.000384046
0.000372236
0.000361388
0.000351438
0.000342321
0.000333977
0.000326343
0.000319362
0.000312979
0.000307144
0.000301806
0.000296918
0.000292428
0.000288292
0.000284469
0.00028088
0.000277473
0.000274261
0.000271261
0.000268461
0.00026585
0.000263416
0.00026115
0.000259041
0.000257078
0.000255251
0.000253548
0.000251959
0.000250474
0.000249084
0.000247779
0.000246553
0.000245397
0.000244305
0.000243272
0.000242292
0.00024136
0.000240472
0.000239625
0.000238814
0.000238035
0.000237287
0.000236566
0.00023587
0.000235195
0.00023454
0.000233903
0.000233282
0.000232675
0.00023208
0.000231495
0.00023092
0.000230353
0.000229792
0.000229236
0.000228684
0.000228134
0.000227585
0.000227036
0.000226484
0.000225928
0.000225366
0.000224796
0.000224214
0.000223617
0.000223001
0.000222361
0.000221689
0.000220976
0.000220212
0.00021938
0.000218458
0.000217418
0.000216217
0.000214794
0.000213057
0.000210858
0.000207969
0.000203947
0.000198189
0.000188821
0.000175369
0.000127146
0.000330974
0.000453657
0.000521525
0.000561008
0.000586584
0.000605818
0.000622815
0.00063991
0.00065841
0.000678979
0.000701902
0.000727265
0.000755069
0.000785277
0.000817824
0.000852613
0.000889497
0.000928271
0.000968665
0.00101035
0.00105296
0.0010961
0.00113937
0.00118241
0.00122489
0.00126656
0.00130726
0.00134687
0.0013854
0.00142287
0.00145939
0.00149505
0.00152998
0.00156423
0.00159782
0.00163069
0.00166297
0.00169561
0.00172866
0.00176199
0.00179536
0.00182849
0.00186105
0.00189267
0.00192296
0.00195148
0.00197779
0.0020014
0.00202185
0.00203867
0.00205141
0.00205968
0.00206315
0.00206155
0.00205472
0.00204257
0.00202511
0.00200244
0.0019747
0.00194213
0.00190499
0.0018638
0.00182013
0.00177447
0.00172712
0.00167844
0.0016288
0.00157859
0.00152818
0.00147794
0.00142818
0.00137919
0.00133122
0.00128448
0.00123912
0.00119526
0.00115298
0.00111231
0.00107327
0.00103584
0.000999963
0.000965597
0.000932675
0.000901132
0.000870904
0.000841938
0.000814186
0.000787612
0.000762192
0.000737911
0.000714759
0.000692734
0.000671833
0.000652054
0.000633391
0.000615833
0.000599364
0.00058396
0.000569591
0.000556221
0.000543808
0.000532307
0.00052167
0.000511845
0.000502781
0.000494428
0.000486735
0.000479652
0.000473133
0.00046713
0.000461599
0.000456497
0.000451778
0.000447397
0.000443288
0.000439389
0.000435734
0.000432306
0.000429087
0.000426063
0.00042322
0.000420544
0.000418024
0.000415648
0.000413407
0.000411291
0.00040929
0.000407396
0.000405603
0.000403902
0.000402288
0.000400753
0.000399293
0.000397903
0.000396576
0.00039531
0.000394098
0.000392937
0.000391823
0.000390752
0.000389719
0.000388723
0.000387759
0.000386824
0.000385915
0.00038503
0.000384166
0.000383321
0.000382492
0.000381677
0.000380874
0.000380081
0.000379296
0.000378517
0.000377742
0.000376969
0.000376196
0.000375419
0.000374637
0.000373845
0.000373042
0.000372221
0.000371377
0.000370504
0.000369594
0.000368636
0.000367615
0.000366513
0.000365305
0.000363956
0.000362416
0.000360616
0.000358449
0.000355752
0.000352264
0.00034751
0.000340736
0.000330073
0.000313635
0.000146938
0.000377573
0.000526342
0.000614233
0.00066821
0.000704519
0.000732484
0.000757393
0.000782206
0.000808488
0.000836949
0.000867792
0.000900945
0.000936198
0.000973272
0.00101185
0.00105157
0.00109205
0.00113286
0.00117357
0.00121373
0.00125293
0.00129079
0.00132704
0.00136146
0.00139397
0.0014246
0.00145348
0.00148082
0.00150689
0.00153202
0.0015565
0.00158063
0.00160463
0.00162867
0.0016528
0.001677
0.00170152
0.00172721
0.00175424
0.00178256
0.00181202
0.00184243
0.00187356
0.00190511
0.00193674
0.00196804
0.00199854
0.00202771
0.00205497
0.0020797
0.00210125
0.00211901
0.00213239
0.00214088
0.00214404
0.00214157
0.00213328
0.00211909
0.00209901
0.00207317
0.00204176
0.00200569
0.00196607
0.00192336
0.00187796
0.00183028
0.0017808
0.00173001
0.00167837
0.00162635
0.00157441
0.00152296
0.00147236
0.00142296
0.00137503
0.0013288
0.00128443
0.00124204
0.00120168
0.00116338
0.0011271
0.00109276
0.00106028
0.00102954
0.00100042
0.000972785
0.000946518
0.000921504
0.000897649
0.000874871
0.00085311
0.000832321
0.000812475
0.000793555
0.000775552
0.000758462
0.000742281
0.000727006
0.000712627
0.000699133
0.000686504
0.000674715
0.000663738
0.000653538
0.000644078
0.000635319
0.000627218
0.000619733
0.000612824
0.000606447
0.000600564
0.000595134
0.000590119
0.000585481
0.000581178
0.000577162
0.000573366
0.000569808
0.000566467
0.000563325
0.000560364
0.000557569
0.000554926
0.000552425
0.000550053
0.000547801
0.000545661
0.000543625
0.000541687
0.00053984
0.00053808
0.000536399
0.000534795
0.000533262
0.000531796
0.000530392
0.000529047
0.000527757
0.000526517
0.000525324
0.000524175
0.000523065
0.000521991
0.00052095
0.000519939
0.000518955
0.000517995
0.000517056
0.000516136
0.000515232
0.000514342
0.000513465
0.000512597
0.000511737
0.000510882
0.00051003
0.000509178
0.000508325
0.000507467
0.000506601
0.000505723
0.000504828
0.000503912
0.000502969
0.000501988
0.000500961
0.000499874
0.000498709
0.000497442
0.000496041
0.00049446
0.000492635
0.000490471
0.000487824
0.000484471
0.000480029
0.000473872
0.000464687
0.00045102
0.000159552
0.000406439
0.000575843
0.000681256
0.000748884
0.000795706
0.000832076
0.000864155
0.000895448
0.000927775
0.000961894
0.000997925
0.00103564
0.00107464
0.00111444
0.00115452
0.00119438
0.00123349
0.00127136
0.00130751
0.00134153
0.0013731
0.00140198
0.00142805
0.00145131
0.00147191
0.00149007
0.00150614
0.00152051
0.00153365
0.00154598
0.00155793
0.00156989
0.00158216
0.00159497
0.00160845
0.00162267
0.00163797
0.00165527
0.00167482
0.00169668
0.00172081
0.00174714
0.00177556
0.0018059
0.00183793
0.00187134
0.00190571
0.00194051
0.0019751
0.00200874
0.00204062
0.00206985
0.00209557
0.00211698
0.00213332
0.00214401
0.00214857
0.00214669
0.00213818
0.00212299
0.00210137
0.00207435
0.00204258
0.00200646
0.0019664
0.00192287
0.00187638
0.00182745
0.00177666
0.00172456
0.00167171
0.00161865
0.00156589
0.00151391
0.00146314
0.00141394
0.00136664
0.00132147
0.00127861
0.00123817
0.00120019
0.00116465
0.00113149
0.00110058
0.00107179
0.00104494
0.00101984
0.000996325
0.000974204
0.000953321
0.000933539
0.000914742
0.000896841
0.000879773
0.000863494
0.000847978
0.000833212
0.000819191
0.000805913
0.000793376
0.000781576
0.000770505
0.000760149
0.000750489
0.000741501
0.000733158
0.000725428
0.000718278
0.000711672
0.000705575
0.000699951
0.000694764
0.000689981
0.000685567
0.00068149
0.000677712
0.000674185
0.000670874
0.000667774
0.000664863
0.000662125
0.000659543
0.000657103
0.000654792
0.000652599
0.000650515
0.000648531
0.000646639
0.000644834
0.00064311
0.000641462
0.000639885
0.000638376
0.00063693
0.000635544
0.000634215
0.000632939
0.000631713
0.000630533
0.000629396
0.0006283
0.00062724
0.000626215
0.00062522
0.000624253
0.000623312
0.000622393
0.000621494
0.000620613
0.000619748
0.000618896
0.000618056
0.000617225
0.000616401
0.000615582
0.000614767
0.000613952
0.000613136
0.000612315
0.000611488
0.000610649
0.000609797
0.000608925
0.000608028
0.0006071
0.00060613
0.000605107
0.000604015
0.000602835
0.000601539
0.000600088
0.00059843
0.000596488
0.000594148
0.000591238
0.000587478
0.000582423
0.000575244
0.000565133
0.000166815
0.000421886
0.000606669
0.000726459
0.000805849
0.000861931
0.000905617
0.000943658
0.000979998
0.00101669
0.00105456
0.00109366
0.00113367
0.00117401
0.00121408
0.00125323
0.00129084
0.00132634
0.00135923
0.00138905
0.00141547
0.00143824
0.00145727
0.00147255
0.00148426
0.00149267
0.00149816
0.00150122
0.00150239
0.00150223
0.00150132
0.0015002
0.00149938
0.00149929
0.00150027
0.00150258
0.00150641
0.00151218
0.00152074
0.00153236
0.00154712
0.00156506
0.00158622
0.00161065
0.00163837
0.00166936
0.00170349
0.00174051
0.00177999
0.00182132
0.00186369
0.00190616
0.00194762
0.00198692
0.00202291
0.00205451
0.00208077
0.00210086
0.00211426
0.00212044
0.00211904
0.00211078
0.00209627
0.0020758
0.00204969
0.00201832
0.00198211
0.00194158
0.00189727
0.0018498
0.00179977
0.00174782
0.0016946
0.00164074
0.00158684
0.00153347
0.00148118
0.00143042
0.00138162
0.0013351
0.00129112
0.00124986
0.00121141
0.0011758
0.00114297
0.00111281
0.00108515
0.00105981
0.00103654
0.00101512
0.000995308
0.000976888
0.000959661
0.000943459
0.000928146
0.000913617
0.0008998
0.000886647
0.000874131
0.00086224
0.00085097
0.000840321
0.000830292
0.00082088
0.000812079
0.000803876
0.000796253
0.000789189
0.000782657
0.00077663
0.000771077
0.000765966
0.000761267
0.000756947
0.000752976
0.000749323
0.000745959
0.000742849
0.000739949
0.000737246
0.000734719
0.000732353
0.00073013
0.000728037
0.000726061
0.000724191
0.000722416
0.00072073
0.000719124
0.000717591
0.000716128
0.000714729
0.000713389
0.000712106
0.000710875
0.000709695
0.000708561
0.000707471
0.000706423
0.000705413
0.00070444
0.0007035
0.00070259
0.000701709
0.000700854
0.000700023
0.000699212
0.000698421
0.000697646
0.000696887
0.00069614
0.000695405
0.000694679
0.000693961
0.000693248
0.00069254
0.000691834
0.000691129
0.000690422
0.000689711
0.000688994
0.000688268
0.00068753
0.000686776
0.000686001
0.000685199
0.000684363
0.000683483
0.000682547
0.000681539
0.000680436
0.00067921
0.000677819
0.000676205
0.000674286
0.000671938
0.00066897
0.00066509
0.000659804
0.000652729
0.00017017
0.000427413
0.000622795
0.000753701
0.000842564
0.000906249
0.000955949
0.000998797
0.00103905
0.00107894
0.00111934
0.00116029
0.00120134
0.00124183
0.00128103
0.00131821
0.0013527
0.00138389
0.00141127
0.00143443
0.00145306
0.00146701
0.00147623
0.00148083
0.00148106
0.00147732
0.00147012
0.00146006
0.00144786
0.00143425
0.00141999
0.00140583
0.00139245
0.00138045
0.00137033
0.00136249
0.00135719
0.0013549
0.00135598
0.00136047
0.00136836
0.00137969
0.00139462
0.00141341
0.00143639
0.00146385
0.00149604
0.00153301
0.0015746
0.00162037
0.00166957
0.00172117
0.00177391
0.00182636
0.00187705
0.00192446
0.00196733
0.0020043
0.00203483
0.00205719
0.00207226
0.00208016
0.00208095
0.00207472
0.00206162
0.00204195
0.00201608
0.00198446
0.00194764
0.00190622
0.00186082
0.00181215
0.00176089
0.00170776
0.00165347
0.0015987
0.00154412
0.00149036
0.00143797
0.00138747
0.00133928
0.00129375
0.00125113
0.0012116
0.00117521
0.00114196
0.00111176
0.00108444
0.00105979
0.00103756
0.00101747
0.000999242
0.000982591
0.000967272
0.000953063
0.000939782
0.000927286
0.000915472
0.000904269
0.000893634
0.000883546
0.000873995
0.00086498
0.000856502
0.000848561
0.000841151
0.000834264
0.000827885
0.000821997
0.000816576
0.000811597
0.000807033
0.000802855
0.000799034
0.000795541
0.000792348
0.000789428
0.000786751
0.000784283
0.000781998
0.000779879
0.000777909
0.000776071
0.000774353
0.000772742
0.000771225
0.000769795
0.000768442
0.000767158
0.000765939
0.000764777
0.000763669
0.00076261
0.000761597
0.000760626
0.000759696
0.000758802
0.000757943
0.000757117
0.000756321
0.000755553
0.000754812
0.000754094
0.000753398
0.000752722
0.000752064
0.000751423
0.000750796
0.000750182
0.00074958
0.000748987
0.000748403
0.000747826
0.000747254
0.000746687
0.000746123
0.00074556
0.000744997
0.000744433
0.000743865
0.000743292
0.000742712
0.000742122
0.000741518
0.000740898
0.000740257
0.00073959
0.000738888
0.000738142
0.000737341
0.000736469
0.000735503
0.000734414
0.000733162
0.000731689
0.000729915
0.000727718
0.000724919
0.00072124
0.000716529
0.000170653
0.000425559
0.000627328
0.000766318
0.000862446
0.000932131
0.000986673
0.00103342
0.00107682
0.00111922
0.0011615
0.00120368
0.00124522
0.00128539
0.00132336
0.00135836
0.00138965
0.0014166
0.0014387
0.00145554
0.00146683
0.00147243
0.00147235
0.00146674
0.00145594
0.00144046
0.00142096
0.00139826
0.00137331
0.00134713
0.00132078
0.00129527
0.00127153
0.00125032
0.00123226
0.00121776
0.00120707
0.00120035
0.00119694
0.00119636
0.00119834
0.00120289
0.00121031
0.00122115
0.00123619
0.00125627
0.00128218
0.00131454
0.00135367
0.00139946
0.0014514
0.00150852
0.00156949
0.00163258
0.00169606
0.00175793
0.00181675
0.00186999
0.00191671
0.00195681
0.00198987
0.00201549
0.00203338
0.00204338
0.00204549
0.00203984
0.00202672
0.0020065
0.00197968
0.00194683
0.00190858
0.00186563
0.0018187
0.00176855
0.00171593
0.00166162
0.00160638
0.00155092
0.00149596
0.00144213
0.00139003
0.00134017
0.00129298
0.0012488
0.00120786
0.0011703
0.00113616
0.00110538
0.00107782
0.00105325
0.00103142
0.00101201
0.000994707
0.000979191
0.000965163
0.000952356
0.000940547
0.000929556
0.00091925
0.000909537
0.000900359
0.000891684
0.000883497
0.000875792
0.000868569
0.000861827
0.000855562
0.000849766
0.000844426
0.000839523
0.000835038
0.000830945
0.000827218
0.000823832
0.000820757
0.000817968
0.000815438
0.000813141
0.000811048
0.00080913
0.00080737
0.000805751
0.000804257
0.000802875
0.000801592
0.000800396
0.000799278
0.00079823
0.000797244
0.000796313
0.000795433
0.000794597
0.000793803
0.000793046
0.000792323
0.000791633
0.000790971
0.000790336
0.000789726
0.000789139
0.000788573
0.000788026
0.000787497
0.000786984
0.000786486
0.000786001
0.000785528
0.000785065
0.000784612
0.000784167
0.000783729
0.000783297
0.00078287
0.000782446
0.000782025
0.000781606
0.000781188
0.000780769
0.000780349
0.000779926
0.000779499
0.000779066
0.000778625
0.000778174
0.000777711
0.000777232
0.000776733
0.000776209
0.000775654
0.000775058
0.00077441
0.000773697
0.000772898
0.000771987
0.000770928
0.000769672
0.000768149
0.000766258
0.000763855
0.000760901
0.000168997
0.000418162
0.000622693
0.000767143
0.000868663
0.000943027
0.00100149
0.0010515
0.00109756
0.00114207
0.00118592
0.00122907
0.00127094
0.00131073
0.00134757
0.00138061
0.0014091
0.00143238
0.00144989
0.00146122
0.00146607
0.00146429
0.00145589
0.0014411
0.00142032
0.00139423
0.00136373
0.00132998
0.0012943
0.00125815
0.00122301
0.00119021
0.0011609
0.00113591
0.00111573
0.00110052
0.00109015
0.00108392
0.00107978
0.00107664
0.00107395
0.00107163
0.00107012
0.00107036
0.00107368
0.00108162
0.00109577
0.00111753
0.00114796
0.00118756
0.0012362
0.00129316
0.00135726
0.00142634
0.0014987
0.00157162
0.00164197
0.00170917
0.00177202
0.00182939
0.00188024
0.00192374
0.00195924
0.0019863
0.00200469
0.00201437
0.00201547
0.0020083
0.00199326
0.00197088
0.00194178
0.00190663
0.00186616
0.00182113
0.00177233
0.00172055
0.00166661
0.00161128
0.00155537
0.0014996
0.00144469
0.0013913
0.00134001
0.00129132
0.00124565
0.0012033
0.00116447
0.00112925
0.00109763
0.00106949
0.00104462
0.00102275
0.00100357
0.000986715
0.000971844
0.000958615
0.000946726
0.000935917
0.000925978
0.000916752
0.000908126
0.000900029
0.000892419
0.000885272
0.000878579
0.000872336
0.00086654
0.000861185
0.000856261
0.000851754
0.000847646
0.000843915
0.000840537
0.000837487
0.000834738
0.000832265
0.000830041
0.000828042
0.000826242
0.000824613
0.000823137
0.000821797
0.000820577
0.000819463
0.000818442
0.000817505
0.000816639
0.000815838
0.000815093
0.000814398
0.000813747
0.000813136
0.00081256
0.000812014
0.000811498
0.000811006
0.000810538
0.00081009
0.000809662
0.00080925
0.000808855
0.000808473
0.000808105
0.000807748
0.000807401
0.000807064
0.000806735
0.000806413
0.000806097
0.000805788
0.000805482
0.000805181
0.000804883
0.000804587
0.000804293
0.000804
0.000803707
0.000803414
0.000803119
0.000802822
0.000802522
0.000802217
0.000801907
0.00080159
0.000801264
0.000800926
0.000800575
0.000800206
0.000799816
0.000799398
0.000798945
0.000798449
0.000797897
0.000797274
0.00079656
0.000795729
0.000794745
0.000793562
0.00079211
0.000790405
0.00016573
0.00040663
0.000610867
0.000758617
0.00086408
0.000942149
0.00100389
0.0010567
0.00110512
0.00115152
0.00119678
0.00124083
0.00128308
0.00132269
0.00135876
0.0013904
0.00141682
0.00143733
0.00145135
0.00145842
0.0014582
0.00145053
0.00143543
0.00141314
0.00138423
0.00134956
0.00131039
0.00126833
0.00122525
0.00118317
0.00114403
0.00110952
0.00108085
0.00105863
0.0010429
0.00103312
0.00102841
0.00102651
0.00102457
0.00102104
0.00101505
0.00100638
0.000995477
0.000983545
0.000972456
0.000964474
0.000962061
0.000967595
0.000983089
0.00100995
0.00104862
0.00109867
0.00115969
0.00122883
0.00130288
0.00138043
0.0014595
0.00153815
0.00161456
0.00168698
0.00175391
0.00181404
0.00186632
0.00190997
0.0019445
0.00196964
0.00198537
0.00199185
0.00198942
0.00197855
0.00195981
0.00193385
0.00190139
0.00186316
0.00181996
0.00177259
0.00172184
0.00166855
0.00161352
0.00155755
0.00150141
0.00144587
0.00139161
0.00133927
0.00128941
0.00124252
0.00119895
0.00115897
0.00112272
0.00109023
0.0010614
0.00103605
0.00101393
0.00099469
0.000977977
0.000963413
0.000950633
0.000939303
0.000929138
0.000919904
0.000911423
0.000903569
0.000896256
0.000889433
0.00088307
0.000877152
0.00087167
0.000866614
0.000861977
0.000857745
0.000853901
0.000850425
0.000847296
0.000844487
0.000841973
0.000839729
0.000837729
0.000835948
0.000834361
0.000832944
0.000831677
0.000830542
0.000829524
0.000828609
0.000827783
0.000827037
0.000826358
0.00082574
0.000825174
0.000824654
0.000824174
0.000823729
0.000823315
0.000822927
0.000822564
0.000822222
0.000821898
0.000821591
0.000821298
0.000821019
0.000820752
0.000820495
0.000820247
0.000820008
0.000819776
0.00081955
0.000819331
0.000819116
0.000818905
0.000818698
0.000818495
0.000818293
0.000818094
0.000817897
0.0008177
0.000817504
0.000817307
0.000817111
0.000816913
0.000816714
0.000816512
0.000816308
0.000816099
0.000815886
0.000815667
0.00081544
0.000815204
0.000814957
0.000814696
0.000814417
0.000814116
0.000813789
0.000813429
0.000813028
0.000812577
0.000812066
0.000811482
0.000810809
0.000810025
0.000809163
0.000161245
0.000392032
0.000593443
0.000742783