/*--------------------------------*- C++ -*----------------------------------*\
  =========                 |
  \\      /  F ield         | OpenFOAM: The Open Source CFD Toolbox
   \\    /   O peration     | Website:  https://openfoam.org
    \\  /    A nd           | Version:  12
     \\/     M anipulation  |
\*---------------------------------------------------------------------------*/
FoamFile
{
    format      ascii;
    class       volScalarField;
    location    "0.01";
    object      p;
}
// * * * * * * * * * * * * * * * * * * * * * * * * * * * * * * * * * * * * * //

dimensions      [0 2 -2 0 0 0 0];

internalField   nonuniform List<scalar> 
12225
(
-0.164697
-2.50516
-3.67625
-3.97449
-4.13866
-4.29035
-4.40688
-4.4862
-4.54465
-4.59182
-4.62872
-4.65439
-4.66819
-4.6687
-4.65324
-4.61466
-4.54967
-4.41042
-3.7634
-4.42468
-4.48319
-4.33369
-4.28849
-4.35388
-4.42971
-4.48804
-4.53488
-4.57504
-4.60778
-4.63124
-4.64416
-4.64482
-4.63079
-4.59609
-4.53928
-4.44073
-3.88758
-3.7528
-3.91954
-4.05533
-4.16379
-4.28358
-4.38592
-4.46028
-4.51692
-4.56346
-4.60094
-4.62836
-4.64485
-4.64917
-4.63951
-4.61188
-4.56706
-4.50185
-3.74365
-3.66608
-3.95142
-4.12979
-4.21775
-4.30945
-4.39822
-4.46764
-4.52203
-4.56742
-4.60462
-4.63253
-4.6503
-4.65697
-4.65133
-4.63129
-4.59835
-4.55392
-3.75794
-3.77755
-4.01826
-4.16457
-4.23539
-4.31578
-4.39986
-4.46835
-4.5226
-4.56808
-4.60588
-4.63511
-4.6551
-4.66528
-4.66505
-4.65366
-4.63277
-4.60504
-3.82178
-3.8639
-4.04035
-4.16882
-4.2433
-4.32192
-4.40294
-4.47059
-4.52501
-4.57096
-4.60975
-4.64074
-4.6635
-4.67783
-4.68368
-4.68127
-4.67243
-4.66048
-3.88178
-3.92029
-4.05572
-4.17642
-4.25577
-4.33159
-4.40821
-4.47439
-4.52897
-4.57557
-4.61557
-4.64867
-4.67466
-4.69369
-4.70619
-4.71303
-4.71629
-4.71933
-3.9353
-3.96946
-4.079
-4.19017
-4.26991
-4.34213
-4.41444
-4.47912
-4.53392
-4.58135
-4.62283
-4.65838
-4.68804
-4.71225
-4.73183
-4.74806
-4.76318
-4.78033
-3.98575
-4.01699
-4.107
-4.20637
-4.28396
-4.35317
-4.42184
-4.48497
-4.53994
-4.58831
-4.63148
-4.66977
-4.70341
-4.7331
-4.75993
-4.78544
-4.8119
-4.84218
-4.03393
-4.06219
-4.1366
-4.22422
-4.29853
-4.36516
-4.43063
-4.49212
-4.54714
-4.59653
-4.64155
-4.68273
-4.72053
-4.7558
-4.78979
-4.82419
-4.8612
-4.90342
-4.07966
-4.10466
-4.1668
-4.24379
-4.31403
-4.37812
-4.44075
-4.50059
-4.55557
-4.60601
-4.65295
-4.6971
-4.73906
-4.7798
-4.82065
-4.86329
-4.90983
-4.9625
-4.11915
-4.1413
-4.19463
-4.26307
-4.32911
-4.39077
-4.45109
-4.50949
-4.56439
-4.61576
-4.66449
-4.71131
-4.75697
-4.80245
-4.84909
-4.89852
-4.95264
-5.01338
-4.15595
-4.17565
-4.22183
-4.28281
-4.34459
-4.40381
-4.46206
-4.51915
-4.57391
-4.62616
-4.67659
-4.72595
-4.77503
-4.82484
-4.87666
-4.93198
-4.99252
-5.05989
-4.19486
-4.21215
-4.25181
-4.3056
-4.36269
-4.41911
-4.47521
-4.53094
-4.58549
-4.63861
-4.6908
-4.74277
-4.79532
-4.8494
-4.90619
-4.96698
-5.03321
-5.10617
-4.23469
-4.24968
-4.28365
-4.33089
-4.38314
-4.43649
-4.49042
-4.54477
-4.599
-4.65287
-4.70668
-4.76106
-4.81674
-4.87457
-4.93553
-5.00066
-5.07109
-5.14773
-4.27351
-4.28646
-4.31574
-4.35735
-4.40503
-4.45525
-4.507
-4.55996
-4.61369
-4.66797
-4.72296
-4.77912
-4.83704
-4.89741
-4.96095
-5.02842
-5.10059
-5.178
-4.30839
-4.31971
-4.3454
-4.38256
-4.42633
-4.47364
-4.5233
-4.5748
-4.62772
-4.6818
-4.73707
-4.79379
-4.85236
-4.91321
-4.97683
-5.04365
-5.11409
-5.18837
-4.33477
-4.34498
-4.3683
-4.40248
-4.44345
-4.48847
-4.5363
-4.58627
-4.63792
-4.6909
-4.7451
-4.80058
-4.85751
-4.91609
-4.97653
-5.03901
-5.10367
-5.1705
-4.34531
-4.35508
-4.37753
-4.41063
-4.45048
-4.49434
-4.54087
-4.58936
-4.63923
-4.69003
-4.74147
-4.79344
-4.84591
-4.89888
-4.95236
-5.00632
-5.06071
-5.11542
-4.33135
-4.34173
-4.36553
-4.40044
-4.44195
-4.48677
-4.53343
-4.58133
-4.62991
-4.67858
-4.72698
-4.77492
-4.82229
-4.86902
-4.91501
-4.96019
-5.00443
-5.04761
-4.30547
-4.31689
-4.3433
-4.38196
-4.42695
-4.47407
-4.52199
-4.57038
-4.61865
-4.6661
-4.71237
-4.75734
-4.80089
-4.84292
-4.88332
-4.92198
-4.95879
-4.99366
-4.2705
-4.28307
-4.31355
-4.35859
-4.40881
-4.45887
-4.50864
-4.55841
-4.60718
-4.65406
-4.69882
-4.7415
-4.78204
-4.82033
-4.85626
-4.88976
-4.92073
-4.94911
-4.22969
-4.24242
-4.27822
-4.33311
-4.3905
-4.4438
-4.49565
-4.54718
-4.59687
-4.64362
-4.68746
-4.72857
-4.76692
-4.80241
-4.83497
-4.86459
-4.89119
-4.91477
-4.18569
-4.1971
-4.23971
-4.30666
-4.37167
-4.42923
-4.48462
-4.53854
-4.589
-4.63552
-4.67866
-4.71865
-4.75538
-4.78876
-4.81881
-4.84554
-4.86891
-4.88893
-4.139
-4.14692
-4.20676
-4.28593
-4.35195
-4.412
-4.47321
-4.53143
-4.58333
-4.6299
-4.67267
-4.71193
-4.74749
-4.77932
-4.8075
-4.83212
-4.85317
-4.87071
-4.0901
-4.07155
-4.18048
-4.28519
-4.34485
-4.39899
-4.46212
-4.52334
-4.57657
-4.62363
-4.66659
-4.70568
-4.74065
-4.77155
-4.79857
-4.82182
-4.84135
-4.8572
-4.07079
-3.93995
-4.1064
-4.27151
-4.35119
-4.40776
-4.47004
-4.52915
-4.5803
-4.62602
-4.66804
-4.70618
-4.74012
-4.76992
-4.79577
-4.81778
-4.83607
-4.85072
-4.21591
-3.89891
-3.9475
-4.0986
-4.22712
-4.33449
-4.427
-4.50055
-4.55983
-4.61123
-4.65713
-4.6977
-4.73309
-4.76373
-4.78996
-4.812
-4.83024
-4.84522
-4.24485
-4.7025
-4.68216
-4.51237
-4.4245
-4.45036
-4.50511
-4.55354
-4.59645
-4.63767
-4.67676
-4.7123
-4.74375
-4.77116
-4.79457
-4.81393
-4.82939
-4.84264
-0.773807
-2.69681
-3.78179
-4.06909
-4.20067
-4.3333
-4.44236
-4.51945
-4.57898
-4.63085
-4.67706
-4.71748
-4.75245
-4.7825
-4.80787
-4.82841
-4.84367
-4.85178
-7.44306
-7.46864
-7.52218
-7.59209
-7.6767
-7.78854
-7.92326
-8.08127
-8.26354
-8.47116
-8.70526
-8.96706
-9.25792
-9.57935
-9.93298
-10.3204
-10.7432
-11.2023
-11.6984
-12.2311
-12.7985
-13.3976
-14.0231
-14.6679
-15.3229
-15.9766
-16.6156
-17.2248
-17.7877
-18.2868
-18.7041
-19.0223
-19.225
-19.2989
-19.2334
-19.0159
-18.6289
-18.0603
-17.2889
-16.3268
-15.1863
-13.8807
-12.4256
-10.8392
-9.14172
-7.35529
-5.50329
-3.60965
-1.69813
0.20832
2.0882
3.92194
5.69237
7.3849
8.98775
10.4919
11.8909
13.1811
14.3607
15.4305
16.393
17.2537
18.021
18.6987
19.2873
19.7924
20.2203
20.5778
20.8713
21.1073
21.2918
21.4306
21.5292
21.5924
21.625
21.6312
21.6148
21.5792
21.5277
21.4629
21.3873
21.303
21.212
21.1159
21.0161
20.9139
20.8102
20.7059
20.6018
20.4986
20.3967
20.2965
20.1984
20.1028
20.0099
19.9198
19.8328
19.7488
19.6681
19.5905
19.5161
19.4449
19.3768
19.3118
19.2498
19.1908
19.1346
19.0812
19.0307
18.9829
18.9375
18.8941
18.8525
18.813
18.7754
18.7396
18.7055
18.6732
18.6425
18.6134
18.5857
18.5595
18.5346
18.5109
18.4883
18.4668
18.4463
18.4266
18.4079
18.3898
18.3725
18.3559
18.3398
18.3243
18.3093
18.2948
18.2807
18.267
18.2537
18.2407
18.2279
18.2155
18.2032
18.1912
18.1794
18.1677
18.1562
18.1449
18.1336
18.1225
18.1115
18.1006
18.0898
18.0791
18.0685
18.058
18.0478
18.0377
18.0278
18.0182
18.0089
18.0002
17.9919
17.9845
17.9779
17.9725
17.9687
17.967
17.9678
17.9721
17.981
17.996
18.0194
18.0542
18.1053
18.1797
18.2896
18.4503
18.7029
19.0227
-7.27757
-7.32776
-7.37908
-7.43561
-7.51068
-7.61061
-7.73411
-7.88183
-8.05507
-8.25487
-8.48244
-8.73926
-9.02725
-9.34865
-9.70601
-10.102
-10.539
-11.0192
-11.5438
-12.1127
-12.7243
-13.3749
-14.0587
-14.7675
-15.4907
-16.2155
-16.9271
-17.6089
-18.2428
-18.8098
-19.29
-19.6635
-19.911
-20.0137
-19.9543
-19.7205
-19.3082
-18.7126
-17.9524
-17.0198
-15.9156
-14.6476
-13.2283
-11.6741
-10.0041
-8.23974
-6.404
-4.5205
-2.61292
-0.704259
1.18377
3.03133
4.82085
6.53733
8.16853
9.70498
11.1399
12.4691
13.6906
14.8044
15.8118
16.7148
17.5161
18.2212
18.8369
19.3694
19.8249
20.2096
20.53
20.7921
21.0018
21.1647
21.2862
21.371
21.424
21.4491
21.4503
21.4311
21.3945
21.3435
21.2805
21.2077
21.127
21.0403
20.9489
20.8542
20.7572
20.659
20.5603
20.4617
20.364
20.2675
20.1728
20.0801
19.9897
19.9018
19.8167
19.7345
19.6553
19.579
19.5058
19.4357
19.3685
19.3043
19.2431
19.1847
19.1291
19.0761
19.0257
18.9777
18.9319
18.8885
18.8473
18.8082
18.7711
18.7358
18.7023
18.6705
18.6403
18.6115
18.5842
18.5582
18.5335
18.5099
18.4875
18.466
18.4456
18.426
18.4072
18.3892
18.3719
18.3553
18.3393
18.3238
18.3089
18.2944
18.2803
18.2666
18.2533
18.2403
18.2276
18.2151
18.2029
18.1909
18.179
18.1674
18.1559
18.1445
18.1333
18.1222
18.1111
18.1002
18.0894
18.0787
18.0681
18.0577
18.0473
18.0372
18.0273
18.0177
18.0084
17.9995
17.9912
17.9837
17.977
17.9714
17.9674
17.9654
17.9658
17.9696
17.9778
17.9917
18.0135
18.046
18.0934
18.1614
18.2602
18.3999
18.6119
18.8706
-7.00767
-7.11469
-7.20364
-7.2757
-7.35668
-7.45886
-7.58604
-7.7408
-7.92543
-8.14193
-8.39222
-8.6783
-9.00228
-9.36627
-9.77225
-10.2219
-10.7161
-11.2551
-11.8379
-12.4624
-13.1247
-13.8199
-14.541
-15.2797
-16.0258
-16.7677
-17.4922
-18.1846
-18.8288
-19.4079
-19.904
-20.2991
-20.5753
-20.7148
-20.7001
-20.5163
-20.1536
-19.607
-18.877
-17.9643
-16.8736
-15.6137
-14.1976
-12.6418
-10.9658
-9.19129
-7.34166
-5.44102
-3.51353
-1.58271
0.329261
2.2021
4.01787
5.7613
7.41994
8.98419
10.4472
11.8048
13.055
14.1975
15.2336
16.1658
16.9981
17.7353
18.3827
18.9459
19.431
19.8442
20.1917
20.4794
20.7133
20.8989
21.0415
21.1462
21.2175
21.2597
21.2766
21.2719
21.2487
21.21
21.1583
21.0958
21.0247
20.9467
20.8633
20.7758
20.6856
20.5935
20.5003
20.4069
20.3139
20.2217
20.1308
20.0416
19.9544
19.8696
19.7872
19.7074
19.6304
19.5563
19.4849
19.4165
19.3509
19.2882
19.2283
19.1711
19.1165
19.0646
19.0151
18.968
18.9232
18.8807
18.8404
18.8019
18.7654
18.7306
18.6976
18.6661
18.6362
18.6078
18.5807
18.555
18.5305
18.5072
18.485
18.4638
18.4435
18.4241
18.4055
18.3877
18.3706
18.3541
18.3382
18.3228
18.3079
18.2935
18.2795
18.2659
18.2527
18.2397
18.227
18.2146
18.2025
18.1905
18.1787
18.1671
18.1556
18.1443
18.133
18.1219
18.1109
18.1
18.0892
18.0785
18.0679
18.0574
18.0471
18.037
18.027
18.0174
18.008
17.9991
17.9907
17.983
17.9762
17.9705
17.9663
17.9639
17.964
17.9672
17.9746
17.9874
18.0076
18.0377
18.0811
18.1425
18.2294
18.3476
18.5119
18.6843
-6.81997
-6.96975
-7.09943
-7.20202
-7.30716
-7.43074
-7.57909
-7.75613
-7.96502
-8.20847
-8.48887
-8.80843
-9.1692
-9.57304
-10.0215
-10.5155
-11.0556
-11.6412
-12.2712
-12.9431
-13.6534
-14.3972
-15.1681
-15.9583
-16.7581
-17.5562
-18.3391
-19.0917
-19.7971
-20.4369
-20.9916
-21.4414
-21.7665
-21.9479
-21.9677
-21.8112
-21.4681
-20.9319
-20.1998
-19.2732
-18.1576
-16.8633
-15.4045
-13.7991
-12.0682
-10.2349
-8.3243
-6.36189
-4.37331
-2.38333
-0.415198
1.50998
3.37374
5.16055
6.85797
8.45664
9.95009
11.3345
12.6083
13.7718
14.8266
15.7771
16.6282
17.3841
18.0498
18.6309
19.1336
19.5638
19.9277
20.2313
20.4804
20.6805
20.8371
20.9549
21.0386
21.0924
21.1204
21.126
21.1126
21.083
21.0398
20.9854
20.9218
20.8508
20.7741
20.6929
20.6085
20.5219
20.434
20.3454
20.2569
20.169
20.082
19.9965
19.9128
19.8312
19.7517
19.6748
19.6003
19.5285
19.4594
19.3929
19.3292
19.2682
19.2099
19.1541
19.101
19.0502
19.0019
18.9559
18.9121
18.8704
18.8308
18.793
18.7572
18.723
18.6906
18.6597
18.6304
18.6025
18.576
18.5507
18.5266
18.5037
18.4818
18.4609
18.4409
18.4218
18.4034
18.3858
18.3688
18.3525
18.3367
18.3215
18.3068
18.2925
18.2786
18.2651
18.2519
18.2391
18.2265
18.2141
18.202
18.1901
18.1783
18.1668
18.1553
18.144
18.1328
18.1217
18.1107
18.0998
18.089
18.0783
18.0677
18.0573
18.0469
18.0367
18.0268
18.017
18.0076
17.9986
17.9901
17.9823
17.9752
17.9693
17.9647
17.9619
17.9613
17.9638
17.9701
17.9814
17.9994
18.0261
18.0645
18.118
18.1912
18.2862
18.4055
18.5102
-6.81364
-6.99039
-7.14732
-7.27432
-7.40182
-7.54679
-7.71643
-7.91531
-8.14712
-8.41505
-8.72192
-9.07033
-9.46266
-9.90101
-10.3871
-10.9221
-11.5067
-12.1406
-12.8227
-13.551
-14.322
-15.1311
-15.972
-16.8367
-17.7151
-18.5954
-19.4632
-20.3023
-21.0941
-21.8185
-22.454
-22.9784
-23.3697
-23.6066
-23.6695
-23.5424
-23.2138
-22.6761
-21.9261
-20.9654
-19.8011
-18.4449
-16.913
-15.2255
-13.4058
-11.4796
-9.47399
-7.41691
-5.3361
-3.25822
-1.20812
0.791908
2.72265
4.56832
6.31664
7.95877
9.48905
10.9045
12.2044
13.39
14.4645
15.433
16.3003
17.0714
17.7518
18.3474
18.8643
19.3085
19.6863
20.0035
20.2659
20.4789
20.6478
20.7775
20.8725
20.9371
20.9752
20.9903
20.9858
20.9645
20.9291
20.8819
20.8251
20.7604
20.6896
20.6139
20.5347
20.4529
20.3695
20.2852
20.2006
20.1164
20.033
19.9508
19.8702
19.7915
19.7148
19.6404
19.5684
19.4989
19.4318
19.3674
19.3055
19.2463
19.1895
19.1353
19.0835
19.0341
18.987
18.9421
18.8994
18.8587
18.82
18.7831
18.748
18.7147
18.683
18.6527
18.624
18.5967
18.5706
18.5458
18.5222
18.4996
18.4781
18.4575
18.4378
18.4189
18.4008
18.3834
18.3667
18.3506
18.335
18.32
18.3054
18.2912
18.2775
18.2641
18.251
18.2382
18.2257
18.2135
18.2014
18.1896
18.1779
18.1663
18.1549
18.1437
18.1325
18.1214
18.1105
18.0996
18.0888
18.0781
18.0675
18.057
18.0466
18.0364
18.0264
18.0166
18.007
17.9979
17.9893
17.9812
17.9739
17.9676
17.9626
17.9592
17.9579
17.9594
17.9643
17.9737
17.9891
18.0119
18.0445
18.089
18.1478
18.2199
18.301
18.3564
-6.99413
-7.17716
-7.34352
-7.48402
-7.62641
-7.78677
-7.9725
-8.18855
-8.43912
-8.72787
-9.05814
-9.43308
-9.85557
-10.3282
-10.8532
-11.4321
-12.0661
-12.7553
-13.499
-14.2954
-15.1413
-16.0323
-16.962
-17.922
-18.9021
-19.8891
-20.8678
-21.8201
-22.7255
-23.5613
-24.3031
-24.9256
-25.4035
-25.7126
-25.8303
-25.7384
-25.4243
-24.8792
-24.0999
-23.0891
-21.8554
-20.4128
-18.7803
-16.9809
-15.041
-12.9893
-10.8561
-8.67232
-6.46851
-4.27397
-2.11578
-0.0179246
1.99937
3.91996
5.73192
7.42722
9.00132
10.4526
11.7818
12.9919
14.0878
15.075
15.9587
16.745
17.4398
18.0496
18.5805
19.0387
19.4304
19.7614
20.0375
20.2639
20.4459
20.5882
20.6954
20.7716
20.8207
20.8462
20.8514
20.8393
20.8124
20.7732
20.7237
20.6659
20.6013
20.5315
20.4577
20.381
20.3023
20.2224
20.1419
20.0616
19.9818
19.903
19.8255
19.7498
19.6759
19.6041
19.5346
19.4673
19.4025
19.3401
19.2801
19.2227
19.1676
19.1149
19.0646
19.0166
18.9708
18.9271
18.8855
18.8458
18.8081
18.7722
18.738
18.7054
18.6744
18.6449
18.6168
18.5901
18.5646
18.5403
18.5171
18.495
18.4739
18.4537
18.4343
18.4158
18.398
18.3808
18.3644
18.3484
18.3331
18.3182
18.3038
18.2898
18.2762
18.2629
18.25
18.2373
18.2249
18.2127
18.2007
18.1889
18.1773
18.1658
18.1545
18.1433
18.1321
18.1211
18.1101
18.0993
18.0885
18.0778
18.0671
18.0566
18.0462
18.0359
18.0258
18.016
18.0063
17.9971
17.9882
17.9799
17.9723
17.9656
17.9601
17.956
17.9538
17.954
17.9573
17.9646
17.9768
17.9953
18.0215
18.0566
18.1011
18.1519
18.2014
18.22
-7.30139
-7.4761
-7.63873
-7.7837
-7.93429
-8.10457
-8.30168
-8.5309
-8.79683
-9.10371
-9.45551
-9.85601
-10.3087
-10.817
-11.3835
-12.0107
-12.7001
-13.4526
-14.268
-15.1449
-16.0805
-17.0705
-18.1085
-19.1861
-20.2921
-21.4127
-22.5309
-23.6267
-24.6768
-25.6552
-26.5335
-27.2823
-27.8717
-28.2734
-28.461
-28.4134
-28.1164
-27.5605
-26.7424
-25.6664
-24.3436
-22.7909
-21.0309
-19.0901
-16.9986
-14.7889
-12.4948
-10.1509
-7.7916
-5.44958
-3.15503
-0.934294
1.19093
3.20399
5.09338
6.85217
8.47744
9.96953
11.3316
12.5691
13.6878
14.6938
15.5942
16.3956
17.1048
17.7285
18.2733
18.7454
19.1511
19.4961
19.7862
20.0266
20.2224
20.3783
20.4987
20.5876
20.649
20.6862
20.7025
20.7007
20.6836
20.6534
20.6124
20.5624
20.505
20.4419
20.3743
20.3033
20.2298
20.1547
20.0788
20.0026
19.9267
19.8516
19.7775
19.7049
19.6341
19.5651
19.4981
19.4334
19.3708
19.3106
19.2527
19.1971
19.1439
19.0929
19.0441
18.9976
18.9531
18.9107
18.8703
18.8318
18.7952
18.7602
18.7269
18.6953
18.6651
18.6363
18.609
18.5829
18.558
18.5343
18.5116
18.49
18.4693
18.4495
18.4305
18.4123
18.3948
18.3779
18.3617
18.3461
18.3309
18.3163
18.302
18.2882
18.2747
18.2616
18.2488
18.2362
18.2239
18.2118
18.2
18.1882
18.1767
18.1653
18.154
18.1428
18.1317
18.1207
18.1097
18.0989
18.0881
18.0774
18.0667
18.0562
18.0457
18.0354
18.0252
18.0152
18.0055
17.996
17.9869
17.9784
17.9704
17.9632
17.9571
17.9522
17.949
17.9478
17.9493
17.9541
17.963
17.9768
17.9964
18.022
18.0528
18.0845
18.108
18.0984
-7.66733
-7.82537
-7.97638
-8.11956
-8.27345
-8.44972
-8.65509
-8.89501
-9.17452
-9.49843
-9.87138
-10.2979
-10.7822
-11.3285
-11.9403
-12.6207
-13.3721
-14.196
-15.093
-16.0623
-17.1016
-18.2071
-19.3726
-20.5894
-21.8461
-23.1279
-24.4161
-25.6882
-26.9176
-28.0737
-29.1232
-30.0307
-30.7606
-31.2788
-31.554
-31.5617
-31.2863
-30.7168
-29.851
-28.6956
-27.2649
-25.58
-23.6675
-21.5582
-19.2861
-16.8875
-14.4003
-11.8634
-9.31524
-6.79333
-4.33205
-1.96118
0.295335
2.41987
4.40146
6.23454
7.91861
9.45751
10.8571
12.124
13.2661
14.2917
15.2088
16.0252
16.7484
17.3856
17.9438
18.4294
18.8488
19.2077
19.5119
19.7664
19.9764
20.1464
20.2806
20.3832
20.4577
20.5077
20.5361
20.546
20.5397
20.5199
20.4884
20.4473
20.3982
20.3428
20.2822
20.2176
20.1501
20.0806
20.0097
19.9382
19.8667
19.7956
19.7253
19.6562
19.5886
19.5226
19.4585
19.3965
19.3364
19.2786
19.2229
19.1693
19.118
19.0688
19.0218
18.9768
18.9339
18.8929
18.8538
18.8165
18.781
18.7471
18.7149
18.6841
18.6548
18.6269
18.6003
18.5749
18.5507
18.5276
18.5055
18.4844
18.4642
18.4448
18.4262
18.4084
18.3913
18.3747
18.3588
18.3434
18.3285
18.3141
18.3001
18.2864
18.2731
18.2602
18.2475
18.235
18.2229
18.2109
18.1991
18.1875
18.176
18.1646
18.1534
18.1422
18.1312
18.1202
18.1093
18.0984
18.0877
18.0769
18.0663
18.0557
18.0452
18.0348
18.0245
18.0144
18.0045
17.9948
17.9855
17.9766
17.9682
17.9605
17.9537
17.9479
17.9436
17.941
17.9405
17.9426
17.948
17.9569
17.9698
17.9861
18.0042
18.019
18.0212
17.99
-8.03202
-8.16886
-8.30388
-8.44139
-8.59549
-8.7754
-8.98734
-9.23683
-9.52928
-9.87006
-10.2645
-10.7179
-11.2355
-11.8221
-12.4823
-13.2201
-14.0388
-14.9407
-15.9274
-16.999
-18.154
-19.3892
-20.6991
-22.0753
-23.5061
-24.9758
-26.4642
-27.9458
-29.3896
-30.7597
-32.0157
-33.1148
-34.0138
-34.6715
-35.0506
-35.1227
-34.8709
-34.2835
-33.3606
-32.1125
-30.5584
-28.7242
-26.6413
-24.3449
-21.8725
-19.2635
-16.5592
-13.8021
-11.0358
-8.30336
-5.64534
-3.0967
-0.684855
1.57053
3.65905
5.57766
7.32997
8.92213
10.3622
11.6606
12.8275
13.8731
14.807
15.6382
16.375
17.0253
17.5964
18.0951
18.5276
18.9001
19.218
19.4865
19.7106
19.8948
20.0432
20.1597
20.248
20.3113
20.3527
20.375
20.3806
20.372
20.3511
20.3199
20.2801
20.2331
20.1804
20.1232
20.0624
19.9991
19.9339
19.8677
19.801
19.7343
19.6682
19.603
19.539
19.4764
19.4154
19.3563
19.299
19.2437
19.1904
19.1391
19.0899
19.0427
18.9975
18.9542
18.9129
18.8735
18.8358
18.7999
18.7656
18.7329
18.7017
18.672
18.6437
18.6166
18.5908
18.5662
18.5427
18.5203
18.4988
18.4783
18.4586
18.4397
18.4216
18.4042
18.3874
18.3712
18.3556
18.3405
18.3259
18.3117
18.2979
18.2844
18.2713
18.2585
18.246
18.2337
18.2217
18.2098
18.1981
18.1866
18.1752
18.1639
18.1527
18.1416
18.1306
18.1197
18.1088
18.0979
18.0872
18.0764
18.0658
18.0551
18.0446
18.0341
18.0237
18.0135
18.0034
17.9935
17.9839
17.9747
17.9658
17.9576
17.95
17.9433
17.9377
17.9335
17.9309
17.9303
17.932
17.9361
17.9423
17.9499
17.9563
17.9564
17.941
17.8932
-8.34431
-8.45779
-8.57481
-8.70449
-8.85701
-9.03925
-9.25679
-9.51516
-9.82007
-10.1774
-10.5932
-11.0736
-11.6248
-12.2525
-12.9623
-13.7592
-14.6476
-15.631
-16.712
-17.8919
-19.1703
-20.5452
-22.0119
-23.5627
-25.1861
-26.8657
-28.5794
-30.2983
-31.9864
-33.6004
-35.0915
-36.4073
-37.4952
-38.3058
-38.7943
-38.9282
-38.6942
-38.0794
-37.0885
-35.7377
-34.0522
-32.0637
-29.8086
-27.3253
-24.6535
-21.8334
-18.9073
-15.92
-12.9194
-9.9555
-7.07757
-4.32856
-1.74128
0.66189
2.87231
4.88909
6.717
8.36679
9.85095
11.1829
12.3757
13.442
14.3929
15.2389
15.9892
16.6523
17.2359
17.7471
18.1924
18.5778
18.9091
19.1912
19.4291
19.6272
19.7897
19.9203
20.0225
20.0995
20.1542
20.1894
20.2075
20.2108
20.2012
20.1806
20.1508
20.1132
20.0692
20.02
19.9666
19.9101
19.8512
19.7908
19.7295
19.6678
19.6062
19.5452
19.4851
19.4262
19.3687
19.3127
19.2584
19.2058
19.1551
19.1063
19.0593
19.0143
18.9711
18.9297
18.8902
18.8524
18.8162
18.7817
18.7488
18.7174
18.6874
18.6588
18.6315
18.6054
18.5805
18.5568
18.534
18.5123
18.4915
18.4716
18.4525
18.4341
18.4165
18.3995
18.3832
18.3674
18.3521
18.3373
18.323
18.3091
18.2955
18.2823
18.2694
18.2568
18.2444
18.2323
18.2204
18.2086
18.197
18.1856
18.1743
18.1631
18.152
18.1409
18.13
18.1191
18.1082
18.0974
18.0866
18.0759
18.0652
18.0545
18.0439
18.0334
18.0229
18.0125
18.0022
17.9921
17.9822
17.9726
17.9633
17.9544
17.946
17.9384
17.9315
17.9256
17.9209
17.9175
17.9155
17.9147
17.9147
17.9139
17.9098
17.8971
17.8674
17.8065
-8.56227
-8.6524
-8.75086
-8.87149
-9.02127
-9.20481
-9.42694
-9.6931
-10.0092
-10.3817
-10.8173
-11.3229
-11.9057
-12.5724
-13.3297
-14.1838
-15.1403
-16.2038
-17.3783
-18.6664
-20.0693
-21.5861
-23.2136
-24.9449
-26.769
-28.6688
-30.6201
-32.5901
-34.5364
-36.4069
-38.1425
-39.6795
-40.9549
-41.9105
-42.4949
-42.6714
-42.4437
-41.7902
-40.7244
-39.2696
-37.458
-35.3276
-32.9192
-30.2738
-27.4304
-24.4274
-21.3042
-18.1047
-14.8796
-11.6858
-8.58341
-5.62537
-2.85121
-0.286673
2.05567
4.17689
6.08592
7.79716
9.32752
10.6943
11.9139
13.0012
13.9695
14.8304
15.5941
16.2699
16.8658
17.3893
17.847
18.2451
18.5892
18.8846
19.1359
19.3477
19.524
19.6684
19.7844
19.8751
19.9434
19.9917
20.0226
20.0381
20.0403
20.0309
20.0116
19.9839
19.9491
19.9085
19.8632
19.814
19.762
19.7079
19.6523
19.596
19.5394
19.483
19.4271
19.3721
19.3183
19.2657
19.2146
19.1651
19.1171
19.0709
19.0265
18.9837
18.9427
18.9033
18.8657
18.8296
18.7952
18.7622
18.7307
18.7007
18.672
18.6446
18.6184
18.5933
18.5694
18.5465
18.5247
18.5037
18.4836
18.4644
18.4459
18.4281
18.411
18.3945
18.3786
18.3632
18.3483
18.3339
18.3199
18.3062
18.2929
18.28
18.2673
18.2549
18.2427
18.2307
18.219
18.2073
18.1959
18.1846
18.1733
18.1622
18.1512
18.1402
18.1293
18.1184
18.1076
18.0968
18.086
18.0753
18.0646
18.0539
18.0432
18.0326
18.022
18.0114
18.001
17.9906
17.9804
17.9704
17.9606
17.9511
17.9419
17.9332
17.925
17.9174
17.9106
17.9043
17.8987
17.8932
17.8871
17.8788
17.8652
17.8414
17.7998
17.7287
-8.65159
-8.72505
-8.80445
-8.91493
-9.06071
-9.2441
-9.46909
-9.7409
-10.0656
-10.4501
-10.9017
-11.4282
-12.0376
-12.7378
-13.5366
-14.4412
-15.4585
-16.5945
-17.8546
-19.2428
-20.7617
-22.412
-24.1917
-26.095
-28.1111
-30.2222
-32.4016
-34.6118
-36.8031
-38.9142
-40.8744
-42.609
-44.0455
-45.1189
-45.7779
-45.9929
-45.7445
-45.0427
-43.9034
-42.355
-40.4365
-38.1921
-35.6669
-32.9034
-29.9395
-26.8084
-23.5431
-20.1825
-16.7765
-13.3873
-10.0822
-6.92443
-3.96667
-1.24223
1.23294
3.45934
5.44926
7.22159
8.79779
10.1992
11.4454
12.5538
13.5395
14.4154
15.1927
15.8811
16.4893
17.0248
17.4946
17.905
18.2617
18.5699
18.8344
19.0596
19.2493
19.4074
19.537
19.6412
19.7229
19.7844
19.8281
19.8561
19.8702
19.8723
19.8639
19.8465
19.8214
19.7899
19.753
19.7116
19.6668
19.6194
19.57
19.5194
19.4681
19.4166
19.3653
19.3145
19.2645
19.2156
19.1679
19.1215
19.0766
19.0332
18.9913
18.951
18.9123
18.8751
18.8394
18.8053
18.7726
18.7413
18.7114
18.6828
18.6554
18.6293
18.6043
18.5804
18.5575
18.5356
18.5146
18.4945
18.4752
18.4566
18.4388
18.4216
18.4051
18.3891
18.3737
18.3587
18.3442
18.3302
18.3165
18.3032
18.2902
18.2775
18.265
18.2528
18.2408
18.2291
18.2174
18.206
18.1946
18.1834
18.1723
18.1613
18.1503
18.1394
18.1286
18.1177
18.1069
18.0962
18.0854
18.0747
18.0639
18.0532
18.0424
18.0317
18.021
18.0103
17.9997
17.9891
17.9785
17.9681
17.9578
17.9476
17.9376
17.9279
17.9184
17.9091
17.9
17.8911
17.8819
17.8719
17.8602
17.8448
17.8228
17.7895
17.738
17.6587
-8.60114
-8.65219
-8.71635
-8.81762
-8.95835
-9.13967
-9.36488
-9.63892
-9.96795
-10.3592
-10.8205
-11.3606
-11.9883
-12.7126
-13.5422
-14.4855
-15.5505
-16.7447
-18.0744
-19.5451
-21.1606
-22.9231
-24.8313
-26.8801
-29.0586
-31.3478
-33.7181
-36.127
-38.5181
-40.8211
-42.9558
-44.8389
-46.3914
-47.5452
-48.249
-48.476
-48.22
-47.4845
-46.2924
-44.6788
-42.6891
-40.3741
-37.7841
-34.9637
-31.9475
-28.762
-25.431
-21.9833
-18.4627
-14.9315
-11.464
-8.1374
-5.01829
-2.15153
0.442136
2.76285
4.82548
6.6529
8.27074
9.70396
10.9751
12.1037
13.1063
13.9969
14.7876
15.4885
16.1087
16.6561
17.1379
17.5603
17.9293
18.25
18.5273
18.7654
18.9684
19.1397
19.2828
19.4004
19.4952
19.5698
19.6263
19.6667
19.6929
19.7066
19.7093
19.7025
19.6873
19.6651
19.6369
19.6038
19.5666
19.5261
19.4833
19.4387
19.3929
19.3465
19.3
19.2536
19.2078
19.1627
19.1186
19.0756
19.0338
18.9933
18.9541
18.9164
18.8801
18.8451
18.8116
18.7795
18.7486
18.7191
18.6908
18.6638
18.6379
18.6131
18.5893
18.5666
18.5448
18.5239
18.5039
18.4846
18.4661
18.4484
18.4312
18.4147
18.3988
18.3834
18.3684
18.354
18.3399
18.3262
18.3129
18.2999
18.2872
18.2748
18.2626
18.2506
18.2389
18.2273
18.2158
18.2045
18.1933
18.1822
18.1712
18.1603
18.1494
18.1386
18.1278
18.117
18.1062
18.0955
18.0847
18.074
18.0632
18.0524
18.0417
18.0308
18.02
18.0092
17.9983
17.9875
17.9766
17.9658
17.9549
17.9441
17.9333
17.9225
17.9116
17.9007
17.8895
17.8778
17.8653
17.8511
17.8341
17.8123
17.7829
17.7413
17.6817
17.5958
-8.40694
-8.43485
-8.48452
-8.57637
-8.7107
-8.88747
-9.1094
-9.38117
-9.70891
-10.1001
-10.5631
-11.1073
-11.7424
-12.478
-13.324
-14.2897
-15.3842
-16.6157
-17.9917
-19.5186
-21.2012
-23.0421
-25.0405
-27.1914
-29.4829
-31.8943
-34.3933
-36.9336
-39.4534
-41.8773
-44.12
-46.0945
-47.7198
-48.928
-49.6697
-49.9216
-49.676
-48.9385
-47.7348
-46.1033
-44.0942
-41.7628
-39.1634
-36.3422
-33.3334
-30.1576
-26.8279
-23.3613
-19.7923
-16.1809
-12.6087
-9.16518
-5.9297
-2.95746
-0.274799
2.11732
4.23549
6.10565
7.75659
9.21598
10.5084
11.6549
12.6731
13.5777
14.3811
15.0942
15.7262
16.2852
16.7785
17.2128
17.5937
17.9266
18.2164
18.4673
18.6832
18.8676
19.0237
19.1544
19.2623
19.3498
19.419
19.4718
19.51
19.5353
19.5492
19.553
19.548
19.5353
19.5161
19.4913
19.462
19.4288
19.3927
19.3544
19.3144
19.2734
19.2318
19.1901
19.1485
19.1074
19.067
19.0275
18.9889
18.9515
18.9152
18.8801
18.8463
18.8137
18.7824
18.7523
18.7235
18.6958
18.6692
18.6438
18.6194
18.596
18.5736
18.5521
18.5314
18.5116
18.4926
18.4743
18.4566
18.4396
18.4233
18.4074
18.3921
18.3773
18.3629
18.3489
18.3353
18.3221
18.3091
18.2965
18.2841
18.272
18.26
18.2483
18.2368
18.2254
18.2141
18.203
18.1919
18.181
18.1701
18.1592
18.1484
18.1377
18.127
18.1162
18.1055
18.0948
18.0841
18.0733
18.0625
18.0517
18.0408
18.03
18.019
18.008
17.997
17.9859
17.9747
17.9634
17.9521
17.9406
17.9289
17.9171
17.9049
17.8924
17.8791
17.8649
17.8491
17.8309
17.809
17.7815
17.7455
17.6968
17.6303
17.5391
-8.08272
-8.08305
-8.11845
-8.20102
-8.32714
-8.49593
-8.70987
-8.9734
-9.2926
-9.67507
-10.1297
-10.6662
-11.2949
-12.0264
-12.8711
-13.8392
-14.9404
-16.1837
-17.577
-19.1272
-20.8391
-22.7154
-24.755
-26.9521
-29.2936
-31.7574
-34.3092
-36.9006
-39.4683
-41.936
-44.2184
-46.2291
-47.8885
-49.1303
-49.9057
-50.191
-49.9757
-49.2688
-48.0964
-46.4984
-44.5272
-42.241
-39.6963
-36.9398
-34.0027
-30.8987
-27.631
-24.2062
-20.6515
-17.0253
-13.4147
-9.91878
-6.62682
-3.60171
-0.87377
1.5552
3.70288
5.59695
7.26786
8.74452
10.0523
11.2128
12.244
13.1608
13.9759
14.7003
15.3433
15.9134
16.4179
16.8635
17.2561
17.601
17.903
18.1663
18.3949
18.5921
18.7612
18.9048
19.0256
19.1258
19.2075
19.2725
19.3227
19.3596
19.3846
19.399
19.4042
19.4012
19.3911
19.375
19.3536
19.328
19.2989
19.267
19.2331
19.1976
19.1612
19.1242
19.0871
19.0501
19.0136
18.9776
18.9424
18.9081
18.8747
18.8424
18.8112
18.7811
18.752
18.7241
18.6973
18.6715
18.6467
18.6229
18.6001
18.5781
18.5571
18.5369
18.5174
18.4987
18.4807
18.4634
18.4467
18.4305
18.4149
18.3998
18.3851
18.3709
18.3571
18.3436
18.3305
18.3177
18.3052
18.2929
18.2808
18.269
18.2574
18.2459
18.2346
18.2234
18.2123
18.2013
18.1904
18.1796
18.1689
18.1581
18.1474
18.1368
18.1261
18.1154
18.1048
18.0941
18.0833
18.0726
18.0618
18.0509
18.04
18.029
18.018
18.0068
17.9956
17.9842
17.9727
17.9611
17.9492
17.9371
17.9246
17.9118
17.8984
17.8842
17.869
17.8522
17.8334
17.8115
17.7852
17.7525
17.7107
17.656
17.5837
17.4881
-7.64504
-7.61336
-7.63398
-7.70679
-7.82191
-7.97814
-8.17829
-8.42668
-8.7293
-9.09384
-9.52942
-10.0462
-10.6548
-11.3664
-12.1918
-13.1418
-14.2261
-15.454
-16.8334
-18.3706
-20.0701
-21.9334
-23.9586
-26.1383
-28.4582
-30.895
-33.4139
-35.9676
-38.4949
-40.9233
-43.1726
-45.1613
-46.8138
-48.0652
-48.8667
-49.1921
-49.0321
-48.3967
-47.3097
-45.8097
-43.9483
-41.7824
-39.3672
-36.7466
-33.946
-30.9711
-27.8159
-24.4796
-20.9867
-17.3986
-13.8092
-10.3254
-7.04248
-4.02617
-1.30703
1.1143
3.25677
5.14876
6.82077
8.30122
9.61487
10.7826
11.8217
12.7471
13.5711
14.3046
14.9572
15.5371
16.0519
16.5082
16.9119
17.2683
17.5823
17.8579
18.099
18.3091
18.491
18.6475
18.7812
18.8942
18.9884
19.0658
19.1281
19.1766
19.2129
19.2383
19.2539
19.2608
19.2601
19.2528
19.2399
19.2221
19.2003
19.1752
19.1476
19.118
19.0871
19.0551
19.0227
18.99
18.9575
18.9253
18.8936
18.8626
18.8323
18.8029
18.7743
18.7468
18.7201
18.6944
18.6697
18.6459
18.623
18.6009
18.5797
18.5593
18.5397
18.5209
18.5027
18.4852
18.4683
18.4519
18.4362
18.4209
18.4061
18.3917
18.3778
18.3642
18.351
18.3381
18.3254
18.3131
18.301
18.2891
18.2774
18.2659
18.2545
18.2433
18.2322
18.2213
18.2104
18.1996
18.1889
18.1782
18.1676
18.157
18.1464
18.1358
18.1252
18.1146
18.104
18.0933
18.0826
18.0719
18.061
18.0502
18.0392
18.0281
18.017
18.0057
17.9942
17.9826
17.9708
17.9587
17.9464
17.9336
17.9204
17.9066
17.8919
17.8762
17.8591
17.8401
17.8185
17.7932
17.7628
17.7255
17.6786
17.6187
17.5415
17.4423
-7.15187
-7.08532
-7.09021
-7.15149
-7.25116
-7.3887
-7.56794
-7.79333
-8.07082
-8.40823
-8.81482
-9.30086
-9.87725
-10.5552
-11.3456
-12.2591
-13.3055
-14.4935
-15.8302
-17.3213
-18.9698
-20.7759
-22.7358
-24.8409
-27.0755
-29.416
-31.8286
-34.2687
-36.6802
-38.9972
-41.1476
-43.0574
-44.6571
-45.8855
-46.6962
-47.0675
-46.9824
-46.4508
-45.4936
-44.1462
-42.4555
-40.4738
-38.2502
-35.8215
-33.2045
-30.3954
-27.381
-24.159
-20.7586
-17.25
-13.7361
-10.3287
-7.12293
-4.1807
-1.52777
0.838667
2.93891
4.80073
6.45281
7.92132
9.22886
10.3945
11.4345
12.3627
13.191
13.93
14.589
15.1763
15.6993
16.1646
16.578
16.9448
17.2696
17.5565
17.8094
18.0314
18.2255
18.3943
18.5402
18.6653
18.7716
18.8608
18.9346
18.9945
19.0417
19.0775
19.1032
19.1198
19.1284
19.1298
19.1252
19.1152
19.1008
19.0826
19.0614
19.0378
19.0123
18.9855
18.9578
18.9296
18.9011
18.8727
18.8445
18.8168
18.7896
18.7631
18.7372
18.7122
18.6879
18.6645
18.6419
18.62
18.599
18.5787
18.5591
18.5403
18.5221