/*--------------------------------*- C++ -*----------------------------------*\
  =========                 |
  \\      /  F ield         | OpenFOAM: The Open Source CFD Toolbox
   \\    /   O peration     | Website:  https://openfoam.org
    \\  /    A nd           | Version:  12
     \\/     M anipulation  |
\*---------------------------------------------------------------------------*/
FoamFile
{
    format      ascii;
    class       surfaceScalarField;
    location    "0.01";
    object      phi;
}
// * * * * * * * * * * * * * * * * * * * * * * * * * * * * * * * * * * * * * //

dimensions      [0 3 -1 0 0 0 0];

internalField   nonuniform List<scalar> 
24170
(
3.13587e-06
5.25341e-08
3.0498e-06
8.60749e-08
2.97404e-06
7.57597e-08
2.90472e-06
6.93216e-08
2.83922e-06
6.54954e-08
2.7817e-06
5.75244e-08
2.73262e-06
4.90715e-08
2.69101e-06
4.16113e-08
2.65551e-06
3.55063e-08
2.62487e-06
3.06339e-08
2.5981e-06
2.67767e-08
2.57433e-06
2.37667e-08
2.55285e-06
2.14809e-08
2.53299e-06
1.98575e-08
2.51413e-06
1.88627e-08
2.49524e-06
1.8886e-08
2.47536e-06
1.98871e-08
2.76698e-08
2.44769e-06
3.45226e-06
1.75233e-08
3.45482e-06
8.35163e-08
3.44857e-06
8.20057e-08
3.43732e-06
8.05783e-08
3.42315e-06
7.96641e-08
3.40568e-06
7.49887e-08
3.38601e-06
6.87429e-08
3.36497e-06
6.26566e-08
3.34335e-06
5.71211e-08
3.32179e-06
5.21997e-08
3.30066e-06
4.79058e-08
3.28017e-06
4.4255e-08
3.26039e-06
4.12547e-08
3.2413e-06
3.89565e-08
3.22279e-06
3.73642e-08
3.20462e-06
3.70646e-08
3.18686e-06
3.76403e-08
4.40097e-08
3.17052e-06
3.66441e-06
1.56301e-08
3.67769e-06
7.02369e-08
3.68491e-06
7.47843e-08
3.68919e-06
7.62964e-08
3.69091e-06
7.79465e-08
3.68971e-06
7.61889e-08
3.68615e-06
7.22988e-08
3.68081e-06
6.80002e-08
3.6741e-06
6.38356e-08
3.66635e-06
5.99467e-08
3.65783e-06
5.64244e-08
3.64873e-06
5.33587e-08
3.63916e-06
5.08255e-08
3.62918e-06
4.8937e-08
3.61875e-06
4.77883e-08
3.60795e-06
4.78686e-08
3.59649e-06
4.90966e-08
5.351e-08
3.58699e-06
3.92454e-06
1.64756e-08
3.93575e-06
5.90266e-08
3.94236e-06
6.81767e-08
3.9477e-06
7.09535e-08
3.95205e-06
7.35962e-08
3.95488e-06
7.3364e-08
3.95632e-06
7.08574e-08
3.95666e-06
6.76622e-08
3.95606e-06
6.4431e-08
3.95467e-06
6.13428e-08
3.95258e-06
5.85119e-08
3.94988e-06
5.60573e-08
3.94662e-06
5.40893e-08
3.94281e-06
5.27444e-08
3.93843e-06
5.21663e-08
3.93359e-06
5.27106e-08
3.92821e-06
5.44787e-08
5.83117e-08
3.92341e-06
4.2078e-06
1.58028e-08
4.21598e-06
5.08433e-08
4.22153e-06
6.26257e-08
4.22635e-06
6.61368e-08
4.23098e-06
6.897e-08
4.23484e-06
6.95011e-08
4.23782e-06
6.78774e-08
4.24004e-06
6.54391e-08
4.2416e-06
6.28704e-08
4.24257e-06
6.03754e-08
4.243e-06
5.8081e-08
4.24294e-06
5.61225e-08
4.2424e-06
5.46295e-08
4.24139e-06
5.37467e-08
4.23993e-06
5.36305e-08
4.2381e-06
5.45412e-08
4.23595e-06
5.66307e-08
6.02892e-08
4.23397e-06
4.51043e-06
1.44594e-08
4.51682e-06
4.44558e-08
4.52208e-06
5.73685e-08
4.52665e-06
6.15624e-08
4.53119e-06
6.44311e-08
4.53529e-06
6.54017e-08
4.53876e-06
6.44075e-08
4.54166e-06
6.25367e-08
4.54406e-06
6.0468e-08
4.54601e-06
5.84321e-08
4.54752e-06
5.65659e-08
4.54863e-06
5.5013e-08
4.54935e-06
5.39112e-08
4.54969e-06
5.34025e-08
4.54969e-06
5.36366e-08
4.54942e-06
5.48074e-08
4.549e-06
5.70491e-08
6.05601e-08
4.54873e-06
4.83409e-06
1.30919e-08
4.83953e-06
3.90162e-08
4.84474e-06
5.21512e-08
4.84926e-06
5.7042e-08
4.8537e-06
5.9991e-08
4.85785e-06
6.12548e-08
4.86151e-06
6.07442e-08
4.86472e-06
5.93282e-08
4.86753e-06
5.76594e-08
4.86997e-06
5.59942e-08
4.87206e-06
5.44791e-08
4.87381e-06
5.32594e-08
4.87525e-06
5.24736e-08
4.8764e-06
5.22548e-08
4.8773e-06
5.27356e-08
4.87804e-06
5.40591e-08
4.87877e-06
5.63218e-08
5.96385e-08
4.87969e-06
5.18087e-06
1.18031e-08
5.18565e-06
3.4233e-08
5.19075e-06
4.7052e-08
5.19527e-06
5.25238e-08
5.19967e-06
5.55882e-08
5.20387e-06
5.70619e-08
5.20767e-06
5.69431e-08
5.21108e-06
5.59149e-08
5.21415e-06
5.45848e-08
5.21692e-06
5.32306e-08
5.21939e-06
5.20074e-08
5.22159e-06
5.10589e-08
5.22355e-06
5.05184e-08
5.22529e-06
5.05071e-08
5.22689e-06
5.11357e-08
5.22845e-06
5.25067e-08
5.23009e-06
5.46794e-08
5.77258e-08
5.232e-06
5.55258e-06
1.05643e-08
5.5568e-06
3.00104e-08
5.56168e-06
4.21707e-08
5.5662e-06
4.8008e-08
5.5706e-06
5.1181e-08
5.57486e-06
5.28039e-08
5.5788e-06
5.30039e-08
5.5824e-06
5.23138e-08
5.58571e-06
5.1279e-08
5.58875e-06
5.01897e-08
5.59155e-06
4.92084e-08
5.59413e-06
4.8474e-08
5.59654e-06
4.81113e-08
5.59882e-06
4.82266e-08
5.60105e-06
4.89084e-08
5.60333e-06
5.02264e-08
5.6058e-06
5.22079e-08
5.48981e-08
5.60863e-06
5.95097e-06
9.37469e-09
5.95471e-06
2.62677e-08
5.95933e-06
3.7548e-08
5.96383e-06
4.35132e-08
5.96825e-06
4.67587e-08
5.97257e-06
4.8478e-08
5.97665e-06
4.89248e-08
5.98045e-06
4.85211e-08
5.98398e-06
4.77402e-08
5.9873e-06
4.68729e-08
5.99042e-06
4.60856e-08
5.99339e-06
4.55096e-08
5.99624e-06
4.52579e-08
5.99905e-06
4.54213e-08
6.00189e-06
4.60668e-08
6.00488e-06
4.72377e-08
6.00815e-06
4.89357e-08
5.11881e-08
6.01186e-06
6.37794e-06
8.24881e-09
6.38128e-06
2.29233e-08
6.38564e-06
3.31892e-08
6.39009e-06
3.90612e-08
6.39453e-06
4.23215e-08
6.39892e-06
4.40873e-08
6.40314e-06
4.47068e-08
6.40713e-06
4.45301e-08
6.41091e-06
4.39575e-08
6.41452e-06
4.32665e-08
6.41798e-06
4.26229e-08
6.42134e-06
4.2148e-08
6.42466e-06
4.19411e-08
6.428e-06
4.20767e-08
6.43147e-06
4.26028e-08
6.43516e-06
4.35416e-08
6.43922e-06
4.48758e-08
4.66212e-08
6.44379e-06
5.74174e-06
7.34597e-09
5.7443e-06
2.03575e-08
5.74779e-06
2.97039e-08
5.75151e-06
3.53425e-08
5.75527e-06
3.85585e-08
5.75903e-06
4.03274e-08
5.7627e-06
4.10362e-08
5.76623e-06
4.09998e-08
5.76963e-06
4.05632e-08
5.77291e-06
3.99832e-08
5.77611e-06
3.94197e-08
5.77927e-06
3.89848e-08
5.78245e-06
3.87654e-08
5.7857e-06
3.88226e-08
5.78912e-06
3.91902e-08
5.79278e-06
3.98766e-08
5.79681e-06
4.08532e-08
4.21314e-08
5.8013e-06
6.99912e-06
6.37796e-09
7.00184e-06
1.76393e-08
7.00562e-06
2.59223e-08
7.0098e-06
3.11658e-08
7.01411e-06
3.42442e-08
7.01848e-06
3.5961e-08
7.02281e-06
3.67114e-08
7.02703e-06
3.67771e-08
7.03115e-06
3.6446e-08
7.03518e-06
3.59459e-08
7.03918e-06
3.54253e-08
7.04318e-06
3.49843e-08
7.04725e-06
3.4695e-08
7.05147e-06
3.46042e-08
7.05592e-06
3.47323e-08
7.06072e-06
3.50759e-08
7.06598e-06
3.55986e-08
3.63077e-08
7.0718e-06
8.53187e-06
5.35238e-09
8.53472e-06
1.47892e-08
8.53878e-06
2.18625e-08
8.54342e-06
2.65245e-08
8.54833e-06
2.93379e-08
8.55337e-06
3.09201e-08
8.55844e-06
3.16396e-08
8.56348e-06
3.1744e-08
8.56846e-06
3.14645e-08
8.57341e-06
3.09924e-08
8.57838e-06
3.04576e-08
8.58342e-06
2.99453e-08
8.5886e-06
2.95116e-08
8.59402e-06
2.91889e-08
8.59976e-06
2.89857e-08
8.60595e-06
2.88905e-08
8.61268e-06
2.88635e-08
2.89116e-08
8.62008e-06
1.04003e-05
4.2769e-09
1.04033e-05
1.18155e-08
1.04076e-05
1.75288e-08
1.04127e-05
2.14054e-08
1.04183e-05
2.37922e-08
1.04241e-05
2.51261e-08
1.043e-05
2.57153e-08
1.0436e-05
2.57677e-08
1.0442e-05
2.54608e-08
1.0448e-05
2.49429e-08
1.04542e-05
2.43189e-08
1.04604e-05
2.36556e-08
1.0467e-05
2.29934e-08
1.04738e-05
2.23514e-08
1.04811e-05
2.17295e-08
1.04888e-05
2.11124e-08
1.04972e-05
2.0463e-08
1.97908e-08
1.05064e-05
1.26779e-05
3.15258e-09
1.2681e-05
8.69732e-09
1.26857e-05
1.28945e-08
1.26913e-05
1.57739e-08
1.26975e-05
1.75432e-08
1.27042e-05
1.84833e-08
1.27111e-05
1.88188e-08
1.27181e-05
1.87073e-08
1.27253e-05
1.82743e-08
1.27327e-05
1.7623e-08
1.27401e-05
1.68278e-08
1.27479e-05
1.59352e-08
1.27559e-05
1.49703e-08
1.27643e-05
1.39417e-08
1.27732e-05
1.28452e-08
1.27826e-05
1.16662e-08
1.27927e-05
1.03756e-08
8.98781e-09
1.28035e-05
1.54544e-05
1.96282e-09
1.54577e-05
5.37069e-09
1.54627e-05
7.87496e-09
1.54689e-05
9.5402e-09
1.5476e-05
1.04865e-08
1.54836e-05
1.08681e-08
1.54916e-05
1.08163e-08
1.54999e-05
1.04262e-08
1.55084e-05
9.77124e-09
1.55171e-05
8.90967e-09
1.55261e-05
7.88292e-09
1.55353e-05
6.71585e-09
1.55448e-05
5.42142e-09
1.55548e-05
3.9982e-09
1.55652e-05
2.44439e-09
1.55761e-05
7.48759e-10
1.55876e-05
-1.10486e-09
-3.09737e-09
1.55997e-05
1.88389e-05
6.6212e-10
1.88426e-05
1.69706e-09
1.88482e-05
2.2799e-09
1.88552e-05
2.5029e-09
1.88633e-05
2.42667e-09
1.88721e-05
2.09867e-09
1.88813e-05
1.55132e-09
1.8891e-05
8.05686e-10
1.89008e-05
-1.17821e-10
1.8911e-05
-1.20615e-09
1.89213e-05
-2.45152e-09
1.89319e-05
-3.85105e-09
1.89427e-05
-5.40533e-09
1.89538e-05
-7.11719e-09
1.89652e-05
-8.99005e-09
1.8977e-05
-1.10271e-08
1.89891e-05
-1.32332e-08
-1.55866e-08
1.90016e-05
2.29649e-05
-8.51572e-10
2.29692e-05
-2.61026e-09
2.29757e-05
-4.29232e-09
2.2984e-05
-5.76798e-09
2.29935e-05
-7.02544e-09
2.30037e-05
-8.13998e-09
2.30144e-05
-9.20039e-09
2.30255e-05
-1.02656e-08
2.30368e-05
-1.13747e-08
2.30481e-05
-1.25628e-08
2.30595e-05
-1.38592e-08
2.3071e-05
-1.52847e-08
2.30824e-05
-1.68521e-08
2.30939e-05
-1.8569e-08
2.31053e-05
-2.04388e-08
2.31168e-05
-2.24604e-08
2.31281e-05
-2.46296e-08
-2.6928e-08
2.31395e-05
1.68119e-05
-2.03669e-09
1.68152e-05
-5.94726e-09
1.68203e-05
-9.35921e-09
1.68266e-05
-1.20566e-08
1.68336e-05
-1.40676e-08
1.68411e-05
-1.56185e-08
1.68488e-05
-1.69108e-08
1.68566e-05
-1.80547e-08
1.68644e-05
-1.91281e-08
1.6872e-05
-2.02047e-08
1.68795e-05
-2.13424e-08
1.68868e-05
-2.25773e-08
1.68939e-05
-2.39311e-08
1.69007e-05
-2.54156e-08
1.69073e-05
-2.70358e-08
1.69136e-05
-2.87899e-08
1.69197e-05
-3.06705e-08
-3.26626e-08
1.69254e-05
1.46357e-05
-3.17376e-09
1.46389e-05
-9.17028e-09
1.46438e-05
-1.42516e-08
1.46498e-05
-1.79963e-08
1.46562e-05
-2.05337e-08
1.46629e-05
-2.23309e-08
1.46697e-05
-2.36922e-08
1.46764e-05
-2.47559e-08
1.46829e-05
-2.56437e-08
1.46892e-05
-2.64736e-08
1.46952e-05
-2.73263e-08
1.47009e-05
-2.82476e-08
1.47062e-05
-2.92652e-08
1.47112e-05
-3.03957e-08
1.47158e-05
-3.16461e-08
1.472e-05
-3.30152e-08
1.47238e-05
-3.44952e-08
-3.60734e-08
1.47272e-05
1.27412e-05
-4.24478e-09
1.27444e-05
-1.24169e-08
1.27494e-05
-1.92206e-08
1.27552e-05
-2.37698e-08
1.27612e-05
-2.6581e-08
1.27674e-05
-2.8484e-08
1.27735e-05
-2.97927e-08
1.27794e-05
-3.06418e-08
1.2785e-05
-3.12239e-08
1.27902e-05
-3.17106e-08
1.27951e-05
-3.21976e-08
1.27996e-05
-3.27336e-08
1.28036e-05
-3.33502e-08
1.28073e-05
-3.40679e-08
1.28106e-05
-3.48951e-08
1.28134e-05
-3.58308e-08
1.28157e-05
-3.6867e-08
-3.79924e-08
1.28177e-05
1.10918e-05
-5.1373e-09
1.10952e-05
-1.57668e-08
1.11004e-05
-2.4492e-08
1.11062e-05
-2.94784e-08
1.11119e-05
-3.22875e-08
1.11176e-05
-3.41852e-08
1.11231e-05
-3.5337e-08
1.11283e-05
-3.58679e-08
1.11332e-05
-3.60702e-08
1.11376e-05
-3.61625e-08
1.11417e-05
-3.62424e-08
1.11453e-05
-3.63595e-08
1.11485e-05
-3.65502e-08
1.11513e-05
-3.68375e-08
1.11536e-05
-3.72297e-08
1.11555e-05
-3.77256e-08
1.11569e-05
-3.83174e-08
-3.89949e-08
1.1158e-05
9.65582e-06
-5.74518e-09
9.65936e-06
-1.93047e-08
9.66494e-06
-3.00687e-08
9.67055e-06
-3.50889e-08
9.67602e-06
-3.7759e-08
9.68139e-06
-3.95533e-08
9.68646e-06
-4.04052e-08
9.69111e-06
-4.05213e-08
9.69535e-06
-4.03092e-08
9.69918e-06
-3.99956e-08
9.7026e-06
-3.96612e-08
9.7056e-06
-3.93555e-08
9.70817e-06
-3.91206e-08
9.71031e-06
-3.89813e-08
9.71203e-06
-3.89459e-08
9.71331e-06
-3.90131e-08
9.71417e-06
-3.91747e-08
-3.94194e-08
9.7146e-06
8.40547e-06
-5.86282e-09
8.40978e-06
-2.36109e-08
8.41524e-06
-3.55295e-08
8.4204e-06
-4.02534e-08
8.42568e-06
-4.3033e-08
8.43087e-06
-4.47516e-08
8.43564e-06
-4.51754e-08
8.43991e-06
-4.47835e-08
8.44371e-06
-4.41126e-08
8.44708e-06
-4.33642e-08
8.45001e-06
-4.25937e-08
8.45251e-06
-4.18511e-08
8.45457e-06
-4.1182e-08
8.4562e-06
-4.06118e-08
8.4574e-06
-4.01492e-08
8.45818e-06
-3.97939e-08
8.45855e-06
-3.95389e-08
-3.93748e-08
8.4585e-06
7.31538e-06
-3.95958e-09
7.32208e-06
-3.03097e-08
7.32733e-06
-4.07821e-08
7.33201e-06
-4.49329e-08
7.33714e-06
-4.81649e-08
7.34228e-06
-4.9885e-08
7.3469e-06
-4.97977e-08
7.35093e-06
-4.881e-08
7.35439e-06
-4.75803e-08
7.35731e-06
-4.62852e-08
7.3597e-06
-4.49789e-08
7.36157e-06
-4.37214e-08
7.36295e-06
-4.256e-08
7.36385e-06
-4.15176e-08
7.36431e-06
-4.06019e-08
7.36433e-06
-3.98127e-08
7.36393e-06
-3.91407e-08
-3.85745e-08
7.36313e-06
6.3627e-06
3.40199e-09
6.37334e-06
-4.0946e-08
6.38022e-06
-4.7659e-08
6.38609e-06
-5.08093e-08
6.39178e-06
-5.38462e-08
6.39682e-06
-5.49319e-08
6.40089e-06
-5.38703e-08
6.40411e-06
-5.20225e-08
6.40655e-06
-5.0021e-08
6.40825e-06
-4.7983e-08
6.40924e-06
-4.59764e-08
6.4096e-06
-4.40775e-08
6.40937e-06
-4.23328e-08
6.40861e-06
-4.07587e-08
6.40737e-06
-3.93587e-08
6.40569e-06
-3.81302e-08
6.40361e-06
-3.70603e-08
-3.61239e-08
6.40116e-06
5.53455e-06
1.43159e-08
5.54713e-06
-5.35215e-08
5.55721e-06
-5.77394e-08
5.56591e-06
-5.95123e-08
5.57259e-06
-6.05305e-08
5.57685e-06
-5.91877e-08
5.57874e-06
-5.57631e-08
5.57886e-06
-5.21402e-08
5.57761e-06
-4.87735e-08
5.57526e-06
-4.56306e-08
5.57201e-06
-4.27219e-08
5.56802e-06
-4.00871e-08
5.56342e-06
-3.77401e-08
5.55833e-06
-3.56704e-08
5.55284e-06
-3.38613e-08
5.54701e-06
-3.23073e-08
5.54095e-06
-3.0997e-08
-2.98738e-08
5.5347e-06
4.85552e-06
-1.36011e-08
4.85878e-06
-5.67725e-08
4.85983e-06
-5.87975e-08
4.85755e-06
-5.72246e-08
4.85424e-06
-5.7224e-08
4.84783e-06
-5.27776e-08
4.83868e-06
-4.66114e-08
4.82733e-06
-4.0794e-08
4.81447e-06
-3.59084e-08
4.8007e-06
-3.18623e-08
4.78648e-06
-2.85047e-08
4.77212e-06
-2.57247e-08
4.75781e-06
-2.34285e-08
4.74367e-06
-2.1532e-08
4.72978e-06
-1.99699e-08
4.7162e-06
-1.87295e-08
4.70304e-06
-1.78338e-08
-1.77612e-08
4.69092e-06
4.18908e-06
4.1323e-06
4.07351e-06
4.01628e-06
3.95906e-06
3.90628e-06
3.85967e-06
3.81887e-06
3.78297e-06
3.7511e-06
3.7226e-06
3.69687e-06
3.67344e-06
3.65191e-06
3.63194e-06
3.61321e-06
3.59538e-06
3.57762e-06
7.17147e-08
-7.17147e-08
9.19974e-08
-2.02826e-08
7.56944e-08
1.63029e-08
3.37862e-08
4.19083e-08
-2.13361e-08
5.51223e-08
-8.5627e-08
6.42909e-08
-1.60356e-07
7.47293e-08
-2.4672e-07
8.63637e-08
-3.4628e-07
9.95603e-08
-4.60691e-07
1.14411e-07
-5.91471e-07
1.3078e-07
-7.39892e-07
1.48421e-07
-9.0691e-07
1.67019e-07
-1.09312e-06
1.86206e-07
-1.29867e-06
2.05558e-07
-1.52327e-06
2.24601e-07
-1.76609e-06
2.42817e-07
-2.02576e-06
2.59673e-07
-2.30041e-06
2.74642e-07
-2.58764e-06
2.87234e-07
-2.88466e-06
2.97016e-07
-3.18829e-06
3.03635e-07
-3.49512e-06
3.06826e-07
-3.80153e-06
3.06413e-07
-4.10384e-06
3.02308e-07
-4.39833e-06
2.94493e-07
-4.68134e-06
2.8301e-07
-4.94931e-06
2.67968e-07
-5.19883e-06
2.49518e-07
-5.42667e-06
2.27848e-07
-5.62985e-06
2.03176e-07
-5.80559e-06
1.75741e-07
-5.95141e-06
1.45816e-07
-6.06512e-06
1.1371e-07
-6.14496e-06
7.98384e-08
-6.18984e-06
4.48826e-08
-6.19917e-06
9.33229e-09
-6.17761e-06
-2.15612e-08
-6.12583e-06
-5.17772e-08
-6.04512e-06
-8.07142e-08
-5.93646e-06
-1.08662e-07
-5.80083e-06
-1.35632e-07
-5.63933e-06
-1.61495e-07
-5.45327e-06
-1.86055e-07
-5.24418e-06
-2.09095e-07
-5.01377e-06
-2.30406e-07
-4.76398e-06
-2.49799e-07
-4.49686e-06
-2.67118e-07
-4.21461e-06
-2.82243e-07
-3.91952e-06
-2.95095e-07
-3.61388e-06
-3.05636e-07
-3.30001e-06
-3.13874e-07
-2.98015e-06
-3.19855e-07
-2.6565e-06
-3.23658e-07
-2.3311e-06
-3.25393e-07
-2.00592e-06
-3.25188e-07
-1.68273e-06
-3.23183e-07
-1.36322e-06
-3.19516e-07
-1.04891e-06
-3.14306e-07
-7.41246e-07
-3.07664e-07
-4.4149e-07
-2.99756e-07
-1.50303e-07
-2.91187e-07
1.32578e-07
-2.82881e-07
4.0686e-07
-2.74282e-07
6.71721e-07
-2.64861e-07
9.26664e-07
-2.54942e-07
1.17136e-06
-2.44695e-07
1.4056e-06
-2.3424e-07
1.62927e-06
-2.23671e-07
1.84233e-06
-2.13061e-07
2.04481e-06
-2.02474e-07
2.23677e-06
-1.91964e-07
2.41835e-06
-1.81578e-07
2.5897e-06
-1.71354e-07
2.75103e-06
-1.61329e-07
2.90256e-06
-1.51532e-07
3.04455e-06
-1.41989e-07
3.17727e-06
-1.32723e-07
3.30103e-06
-1.23753e-07
3.41612e-06
-1.15096e-07
3.52289e-06
-1.06766e-07
3.62166e-06
-9.87745e-08
3.7128e-06
-9.11324e-08
3.79664e-06
-8.38467e-08
3.87356e-06
-7.69228e-08
3.94393e-06
-7.03637e-08
4.0081e-06
-6.41702e-08
4.06644e-06
-5.83405e-08
4.11931e-06
-5.28704e-08
4.16706e-06
-4.77538e-08
4.21005e-06
-4.29822e-08
4.24859e-06
-3.85459e-08
4.28302e-06
-3.4433e-08
4.31366e-06
-3.06311e-08
4.34078e-06
-2.7126e-08
4.36468e-06
-2.39031e-08
4.38563e-06
-2.09471e-08
4.40387e-06
-1.82421e-08
4.41965e-06
-1.57726e-08
4.43317e-06
-1.35225e-08
4.44465e-06
-1.14767e-08
4.45427e-06
-9.61989e-09
4.4622e-06
-7.93746e-09
4.46862e-06
-6.41507e-09
4.47366e-06
-5.03885e-09
4.47745e-06
-3.79501e-09
4.48012e-06
-2.66707e-09
4.48175e-06
-1.63275e-09
4.48239e-06
-6.3309e-10
4.48198e-06
4.09085e-10
4.48048e-06
1.49445e-09
4.47795e-06
2.52747e-09
4.47449e-06
3.46504e-09
4.4702e-06
4.29157e-09
4.46519e-06
5.01006e-09
4.45957e-06
5.61651e-09
4.45347e-06
6.10539e-09
4.44699e-06
6.47982e-09
4.44023e-06
6.75139e-09
4.4333e-06
6.93701e-09
4.42624e-06
7.05558e-09
4.41912e-06
7.12647e-09
4.41195e-06
7.16622e-09
4.40476e-06
7.18801e-09
4.39756e-06
7.20091e-09
4.39035e-06
7.21064e-09
4.38313e-06
7.22054e-09
4.3759e-06
7.23185e-09
4.36865e-06
7.2451e-09
4.36139e-06
7.26031e-09
4.35411e-06
7.27716e-09
4.34682e-06
7.29566e-09
4.3395e-06
7.31554e-09
4.33217e-06
7.33689e-09
4.32481e-06
7.35969e-09
4.31742e-06
7.38401e-09
4.31001e-06
7.40976e-09
4.30258e-06
7.43722e-09
4.29511e-06
7.46623e-09
4.28761e-06
7.49688e-09
4.28008e-06
7.52925e-09
4.27252e-06
7.56337e-09
4.26492e-06
7.59939e-09
4.25728e-06
7.63732e-09
4.24961e-06
7.67734e-09
4.24189e-06
7.71956e-09
4.23412e-06
7.76425e-09
4.22631e-06
7.81169e-09
4.21845e-06
7.86228e-09
4.21053e-06
7.91639e-09
4.20256e-06
7.97455e-09
4.19452e-06
8.03756e-09
4.18641e-06
8.1063e-09
4.17823e-06
8.18181e-09
4.16997e-06
8.26561e-09
4.16161e-06
8.35948e-09
4.15314e-06
8.46583e-09
4.14455e-06
8.58751e-09
4.13582e-06
8.72835e-09
4.12693e-06
8.89319e-09
4.11784e-06
9.08841e-09
4.10852e-06
9.32213e-09
4.09892e-06
9.60515e-09
4.08896e-06
9.9515e-09
4.07858e-06
1.038e-08
4.06767e-06
1.09159e-08
4.05608e-06
1.15932e-08
4.04362e-06
1.24592e-08
4.03004e-06
1.35803e-08
4.01498e-06
1.50517e-08
3.99797e-06
1.70138e-08
3.97829e-06
1.96803e-08
3.9549e-06
2.33883e-08
3.92621e-06
2.86907e-08
3.88965e-06
3.65572e-08
3.84101e-06
4.86468e-08
3.77229e-06
6.87145e-08
3.67143e-06
1.00865e-07
3.50093e-06
1.70498e-07
2.48327e-07
3.2526e-06
-7.7e-08
5.28524e-09
-1.72744e-07
7.5461e-08
-2.8752e-07
1.31079e-07
-4.17605e-07
1.71993e-07
-5.63751e-07
2.01269e-07
-7.24557e-07
2.25096e-07
-8.97958e-07
2.48131e-07
-1.08378e-06
2.72189e-07
-1.28208e-06
2.97859e-07
-1.49285e-06
3.25179e-07
-1.71587e-06
3.53798e-07
-1.95058e-06
3.83133e-07
-2.19603e-06
4.12464e-07
-2.45081e-06
4.40993e-07
-2.71314e-06
4.67882e-07
-2.98083e-06
4.92295e-07
-3.25145e-06
5.13437e-07
-3.52237e-06
5.30592e-07
-3.79089e-06
5.43159e-07
-4.05433e-06
5.50678e-07
-4.31016e-06
5.52845e-07
-4.55604e-06
5.49512e-07
-4.78989e-06
5.40675e-07
-5.00993e-06
5.26455e-07
-5.21469e-06
5.07067e-07
-5.40299e-06
4.82795e-07
-5.57394e-06
4.53964e-07
-5.7269e-06
4.20922e-07
-5.86141e-06
3.84025e-07
-5.97719e-06
3.43629e-07
-6.0741e-06
3.00091e-07
-6.15214e-06
2.53782e-07
-6.21142e-06
2.05097e-07
-6.25218e-06
1.54463e-07
-6.27469e-06
1.02351e-07
-6.27912e-06
4.93179e-08
-6.26496e-06
-4.8281e-09
-6.22713e-06
-5.93971e-08
-6.16425e-06
-1.14652e-07
-6.07517e-06
-1.69795e-07
-5.95969e-06
-2.24141e-07
-5.81823e-06
-2.77095e-07
-5.65163e-06
-3.28093e-07
-5.46109e-06
-3.76596e-07
-5.24808e-06
-4.22106e-07
-5.01431e-06
-4.64172e-07
-4.76171e-06
-5.02406e-07
-4.49233e-06
-5.36493e-07
-4.20838e-06
-5.66198e-07
-3.9121e-06
-5.91373e-07
-3.60578e-06
-6.11956e-07
-3.29168e-06
-6.27975e-07
-2.97199e-06
-6.39541e-07
-2.64881e-06
-6.46837e-07
-2.3241e-06
-6.50105e-07
-1.99965e-06
-6.49637e-07
-1.67708e-06
-6.45752e-07
-1.35781e-06
-6.38783e-07
-1.04306e-06
-6.29062e-07
-7.33796e-07
-6.16926e-07
-4.308e-07
-6.02753e-07
-1.34937e-07
-5.8705e-07
1.52432e-07
-5.70251e-07
4.30576e-07
-5.52425e-07
6.99364e-07
-5.33649e-07
9.58564e-07
-5.14143e-07
1.20798e-06
-4.94115e-07
1.44749e-06
-4.73743e-07
1.677e-06
-4.53182e-07
1.8965e-06
-4.32566e-07
2.10604e-06
-4.12012e-07
2.3057e-06
-3.91622e-07
2.49561e-06
-3.71487e-07
2.67594e-06
-3.51684e-07
2.84689e-06
-3.32278e-07
3.00868e-06
-3.13326e-07
3.16157e-06
-2.94876e-07
3.30581e-06
-2.76967e-07
3.44169e-06
-2.59631e-07
3.56949e-06
-2.42894e-07
3.6895e-06
-2.26776e-07
3.80201e-06
-2.11291e-07
3.90733e-06
-1.96451e-07
4.00575e-06
-1.82262e-07
4.09755e-06
-1.68728e-07
4.18304e-06
-1.55849e-07
4.26249e-06
-1.43623e-07
4.33619e-06
-1.32043e-07
4.40442e-06
-1.21102e-07
4.46746e-06
-1.10789e-07
4.52557e-06
-1.01091e-07
4.57902e-06
-9.19947e-08
4.62807e-06
-8.34818e-08
4.67297e-06
-7.55338e-08
4.71397e-06
-6.81306e-08
4.75132e-06
-6.125e-08
4.78524e-06
-5.4869e-08
4.81596e-06
-4.89635e-08
4.8437e-06
-4.35086e-08
4.86866e-06
-3.84795e-08
4.89103e-06
-3.38508e-08
4.91101e-06
-2.95976e-08
4.92877e-06
-2.56949e-08
4.94447e-06
-2.21183e-08
4.95827e-06
-1.88439e-08
4.97033e-06
-1.58473e-08
4.98076e-06
-1.31042e-08
4.98972e-06
-1.05892e-08
4.99738e-06
-8.28815e-09
5.00398e-06
-6.19497e-09
5.00975e-06
-4.2724e-09
5.01476e-06
-2.487e-09
5.01905e-06
-8.20604e-10
5.02262e-06
7.14595e-10
5.0255e-06
2.13242e-09
5.02768e-06
3.43257e-09
5.02918e-06
4.61324e-09
5.02998e-06
5.67704e-09
5.0301e-06
6.63014e-09
5.02956e-06
7.47894e-09
5.02838e-06
8.23216e-09
5.02661e-06
8.90027e-09
5.02428e-06
9.49406e-09
5.02144e-06
1.00241e-08
5.01815e-06
1.04999e-08
5.01443e-06
1.09299e-08
5.01033e-06
1.1321e-08
5.00588e-06
1.16788e-08
5.00112e-06
1.20081e-08
4.99606e-06
1.23125e-08
4.99075e-06
1.25952e-08
4.98518e-06
1.28587e-08
4.97939e-06
1.31053e-08
4.97339e-06
1.33368e-08
4.9672e-06
1.35552e-08
4.96082e-06
1.37616e-08
4.95427e-06
1.39578e-08
4.94756e-06
1.41447e-08
4.94071e-06
1.43237e-08
4.93371e-06
1.44958e-08
4.92658e-06
1.46619e-08
4.91932e-06
1.48228e-08
4.91194e-06
1.49795e-08
4.90444e-06
1.51327e-08
4.89683e-06
1.52833e-08
4.88912e-06
1.5432e-08
4.88131e-06
1.55794e-08
4.87339e-06
1.57263e-08
4.86538e-06
1.58737e-08
4.85728e-06
1.60223e-08
4.84908e-06
1.61732e-08
4.84079e-06
1.63276e-08
4.83241e-06
1.6487e-08
4.82393e-06
1.66533e-08
4.81537e-06
1.68286e-08
4.80671e-06
1.70159e-08
4.79796e-06
1.72186e-08
4.78911e-06
1.74412e-08
4.78015e-06
1.76893e-08
4.77107e-06
1.79702e-08
4.76187e-06
1.82929e-08
4.75252e-06
1.86691e-08
4.74301e-06
1.91142e-08
4.73331e-06
1.96481e-08
4.7234e-06
2.02969e-08
4.71322e-06
2.10956e-08
4.70272e-06
2.20912e-08
4.69183e-06
2.3348e-08
4.68045e-06
2.49552e-08
4.66847e-06
2.70396e-08
4.6557e-06
2.97849e-08
4.64191e-06
3.34646e-08
4.62679e-06
3.85049e-08
4.60991e-06
4.55737e-08
4.59061e-06
5.58589e-08
4.56808e-06
7.11817e-08
4.54067e-06
9.61193e-08
4.50644e-06
1.35091e-07
4.46076e-06
2.1618e-07
3.36212e-07
4.37288e-06
-1.6637e-07
1.71656e-07
-3.36365e-07
2.45456e-07
-5.07598e-07
3.02313e-07
-6.83589e-07
3.47984e-07
-8.67781e-07
3.85461e-07
-1.06101e-06
4.18321e-07
-1.26242e-06
4.49547e-07
-1.47106e-06
4.80823e-07
-1.68599e-06
5.12791e-07
-1.90624e-06
5.45427e-07
-2.13073e-06
5.7829e-07
-2.35829e-06
6.1069e-07
-2.58763e-06
6.41811e-07
-2.81743e-06
6.7079e-07
-3.04632e-06
6.96776e-07
-3.27302e-06
7.1899e-07
-3.49633e-06
7.36752e-07
-3.71526e-06
7.49521e-07
-3.929e-06
7.56899e-07
-4.13696e-06
7.58634e-07
-4.33872e-06
7.54606e-07
-4.53401e-06
7.44802e-07
-4.72262e-06
7.29285e-07
-4.90433e-06
7.08163e-07
-5.07882e-06
6.8156e-07
-5.24563e-06
6.49601e-07
-5.40406e-06
6.12394e-07
-5.55317e-06
5.70038e-07
-5.69177e-06
5.22625e-07
-5.8184e-06
4.70257e-07
-5.93138e-06
4.13067e-07
-6.02883e-06
3.5124e-07
-6.10877e-06
2.85031e-07
-6.16909e-06
2.14786e-07
-6.20768e-06
1.40945e-07
-6.22238e-06
6.40166e-08
-6.21178e-06
-1.54323e-08
-6.17445e-06
-9.67278e-08
-6.11011e-06
-1.78989e-07
-6.01867e-06
-2.61236e-07
-5.90035e-06
-3.42466e-07
-5.75573e-06
-4.2171e-07
-5.58578e-06
-4.98043e-07
-5.39178e-06
-5.70599e-07
-5.1753e-06
-6.38588e-07
-4.93816e-06
-7.01309e-07
-4.68239e-06
-7.5817e-07
-4.41019e-06
-8.08695e-07
-4.12385e-06
-8.52539e-07
-3.82573e-06
-8.89495e-07
-3.51819e-06
-9.19495e-07
-3.20356e-06
-9.4261e-07
-2.88406e-06
-9.59041e-07
-2.56179e-06
-9.69102e-07
-2.23869e-06
-9.73203e-07
-1.91651e-06
-9.71821e-07
-1.59678e-06
-9.65481e-07
-1.28084e-06
-9.54724e-07
-9.69803e-07
-9.40097e-07
-6.6459e-07
-9.22139e-07
-3.65949e-07
-9.01393e-07
-7.46663e-08
-8.78333e-07
2.08402e-07
-8.5332e-07
4.82694e-07
-8.26716e-07
7.47908e-07
-7.98864e-07
1.00382e-06
-7.7005e-07
1.25024e-06
-7.40544e-07
1.48709e-06
-7.10585e-07
1.71429e-06
-6.80382e-07
1.93184e-06
-6.50121e-07
2.1398e-06
-6.19966e-07
2.33824e-06
-5.90062e-07
2.52728e-06
-5.60534e-07
2.7071e-06
-5.31495e-07
2.87786e-06
-5.0304e-07
3.03978e-06
-4.75251e-07
3.1931e-06
-4.48197e-07
3.33807e-06
-4.21934e-07
3.47495e-06
-3.96509e-07
3.60401e-06
-3.71957e-07
3.72554e-06
-3.48305e-07
3.83982e-06
-3.25572e-07
3.94714e-06
-3.0377e-07
4.04778e-06
-2.82905e-07
4.14203e-06
-2.62977e-07
4.23016e-06
-2.43983e-07
4.31246e-06
-2.25915e-07
4.38918e-06
-2.08763e-07
4.46059e-06
-1.92512e-07
4.52695e-06
-1.77146e-07
4.5885e-06
-1.62647e-07
4.6455e-06
-1.48993e-07
4.69818e-06
-1.36162e-07
4.74677e-06
-1.24128e-07
4.79151e-06
-1.12865e-07
4.8326e-06
-1.02345e-07
4.87027e-06
-9.25367e-08
4.90472e-06
-8.34098e-08
4.93614e-06
-7.49319e-08
4.96473e-06
-6.70701e-08
4.99067e-06
-5.97914e-08
5.01414e-06
-5.30624e-08
5.03529e-06
-4.68499e-08
5.05429e-06
-4.11212e-08
5.07129e-06
-3.58438e-08
5.08643e-06
-3.09856e-08
5.09984e-06
-2.65158e-08
5.11166e-06
-2.24045e-08
5.122e-06
-1.86253e-08
5.13096e-06
-1.51567e-08
5.13866e-06
-1.19724e-08
5.14522e-06
-9.04339e-09
5.15074e-06
-6.3496e-09
5.15534e-06
-3.88001e-09
5.15909e-06
-1.61647e-09
5.16205e-06
4.68899e-10
5.16428e-06
2.38222e-09
5.16583e-06
4.13047e-09
5.16673e-06
5.7282e-09
5.16702e-06
7.18658e-09
5.16674e-06
8.51766e-09
5.1659e-06
9.73349e-09
5.16455e-06
1.08454e-08
5.16271e-06
1.18646e-08
5.16041e-06
1.28009e-08
5.15768e-06
1.36636e-08
5.15454e-06
1.44609e-08
5.15102e-06
1.51995e-08
5.14714e-06
1.58857e-08
5.14293e-06
1.65247e-08
5.1384e-06
1.71208e-08
5.13358e-06
1.76782e-08
5.12849e-06
1.82001e-08
5.12313e-06
1.86899e-08
5.11754e-06
1.91501e-08
5.11172e-06
1.95837e-08
5.10568e-06
1.9993e-08
5.09945e-06
2.03802e-08
5.09302e-06
2.07475e-08
5.08642e-06
2.10969e-08
5.07965e-06
2.14302e-08
5.07273e-06
2.17494e-08
5.06565e-06
2.20559e-08
5.05843e-06
2.23515e-08
5.05108e-06
2.26376e-08
5.04359e-06
2.29157e-08
5.03599e-06
2.31871e-08
5.02826e-06
2.34534e-08
5.02042e-06
2.3716e-08
5.01246e-06
2.39763e-08
5.0044e-06
2.4236e-08
4.99623e-06
2.4497e-08
4.98796e-06
2.47616e-08
4.97958e-06
2.50324e-08
4.97109e-06
2.53127e-08
4.9625e-06
2.56065e-08
4.9538e-06
2.59187e-08
4.94499e-06
2.62556e-08
4.93605e-06
2.66249e-08
4.92699e-06
2.70365e-08
4.91778e-06
2.75027e-08
4.90841e-06
2.80397e-08
4.89885e-06
2.86681e-08
4.88909e-06
2.94146e-08
4.87907e-06
3.03144e-08
4.86875e-06
3.14138e-08
4.85807e-06
3.27752e-08
4.84693e-06
3.44832e-08
4.83523e-06
3.66543e-08
4.82282e-06
3.94522e-08
4.80949e-06
4.31119e-08
4.79498e-06
4.79778e-08
4.77891e-06
5.45746e-08
4.76077e-06
6.37102e-08
4.73988e-06
7.67525e-08
4.71525e-06
9.58126e-08
4.68595e-06
1.25412e-07
4.64988e-06
1.71168e-07
4.61315e-06
2.5291e-07
3.78681e-07
4.57068e-06
-2.00442e-07
3.72098e-07
-3.94627e-07
4.39641e-07
-5.84466e-07
4.92152e-07
-7.73277e-07
5.36794e-07
-9.63739e-07
5.75923e-07
-1.15702e-06
6.11604e-07
-1.35313e-06
6.45657e-07
-1.55159e-06
6.79286e-07
-1.75181e-06
7.13009e-07
-1.95318e-06
7.46791e-07
-2.15511e-06
7.80219e-07
-2.35707e-06
8.12651e-07
-2.55859e-06
8.43338e-07
-2.75931e-06
8.71506e-07
-2.95895e-06
8.96414e-07
-3.15736e-06
9.174e-07
-3.35451e-06
9.33903e-07
-3.55046e-06
9.45469e-07
-3.74531e-06
9.5175e-07
-3.93915e-06
9.52479e-07
-4.132e-06
9.47453e-07
-4.3237e-06
9.36501e-07
-4.51387e-06
9.19457e-07
-4.70185e-06
8.96148e-07
-4.88668e-06
8.6638e-07
-5.06702e-06
8.29941e-07
-5.24123e-06
7.86611e-07
-5.40738e-06
7.36186e-07
-5.56326e-06
6.78505e-07
-5.70649e-06
6.13485e-07
-5.83457e-06
5.41152e-07
-5.94501e-06
4.61674e-07
-6.03536e-06
3.75384e-07
-6.10337e-06
2.82793e-07
-6.14701e-06
1.84588e-07
-6.16462e-06
8.16222e-08
-6.15496e-06
-2.50922e-08
-6.11725e-06
-1.34438e-07
-6.05109e-06
-2.45145e-07
-5.95647e-06
-3.5585e-07
-5.83377e-06
-4.65167e-07
-5.68375e-06
-5.71738e-07
-5.50753e-06
-6.7426e-07
-5.30661e-06
-7.71521e-07
-5.08277e-06
-8.62423e-07
-4.83808e-06
-9.46003e-07
-4.57479e-06
-1.02145e-06
-4.29535e-06
-1.08814e-06
-4.00228e-06
-1.14561e-06
-3.69816e-06
-1.19361e-06
-3.38556e-06
-1.2321e-06
-3.06696e-06
-1.26121e-06
-2.7447e-06
-1.2813e-06
-2.42095e-06
-1.29285e-06
-2.09767e-06
-1.29649e-06
-1.77656e-06
-1.29293e-06
-1.45909e-06
-1.28295e-06
-1.1465e-06
-1.26732e-06
-8.3978e-07
-1.24681e-06
-5.39748e-07
-1.22217e-06
-2.47055e-07
-1.19409e-06
3.77074e-08
-1.16309e-06
3.14053e-07
-1.12967e-06
5.81632e-07
-1.0943e-06
8.40192e-07
-1.05742e-06
1.08957e-06
-1.01943e-06
1.32967e-06
-9.80645e-07
1.56045e-06
-9.41364e-07
1.7819e-06
-9.01837e-07
1.99407e-06
-8.62288e-07
2.19702e-06
-8.22916e-07
2.39085e-06
-7.83894e-07
2.5757e-06
-7.45378e-07
2.7517e-06
-7.07502e-07
2.91905e-06
-6.70387e-07
3.07793e-06
-6.34133e-07
3.22856e-06
-5.98828e-07
3.37117e-06
-5.64544e-07
3.50601e-06
-5.31341e-07
3.63331e-06
-4.99265e-07
3.75336e-06
-4.68349e-07
3.86641e-06
-4.38619e-07
3.97272e-06
-4.10088e-07
4.07258e-06
-3.82764e-07
4.16625e-06
-3.56646e-07
4.254e-06
-3.31726e-07
4.33607e-06
-3.07993e-07
4.41274e-06
-2.85433e-07
4.48426e-06
-2.64023e-07
4.55085e-06
-2.43744e-07
4.61277e-06
-2.24568e-07
4.67025e-06
-2.0647e-07
4.72351e-06
-1.8942e-07
4.77277e-06
-1.73387e-07
4.81824e-06
-1.58339e-07
4.86014e-06
-1.4424e-07
4.89865e-06
-1.31054e-07
4.93399e-06
-1.18745e-07
4.96633e-06
-1.07273e-07
4.99586e-06
-9.65988e-08
5.02275e-06
-8.66819e-08
5.04717e-06
-7.74819e-08
5.06928e-06
-6.89583e-08
5.08923e-06
-6.10706e-08
5.10716e-06
-5.3779e-08
5.12322e-06
-4.70443e-08
5.13753e-06
-4.08283e-08
5.15022e-06
-3.50944e-08
5.16141e-06
-2.98081e-08
5.17119e-06
-2.49388e-08
5.17967e-06
-2.04562e-08
5.18696e-06
-1.63289e-08
5.19314e-06
-1.25292e-08
5.19829e-06
-9.03473e-09
5.2025e-06
-5.82365e-09
5.20584e-06
-2.87073e-09
5.20838e-06
-1.57854e-10
5.21018e-06
2.33188e-09
5.21129e-06
4.61717e-09
5.21176e-06
6.71507e-09
5.21163e-06
8.6422e-09
5.21095e-06
1.04148e-08
5.20975e-06
1.20478e-08
5.20806e-06
1.35554e-08
5.20591e-06
1.49502e-08
5.20333e-06
1.62436e-08
5.20035e-06
1.74457e-08
5.19698e-06
1.8565e-08
5.19326e-06
1.96094e-08
5.1892e-06
2.05852e-08