/*--------------------------------*- C++ -*----------------------------------*\
  =========                 |
  \\      /  F ield         | OpenFOAM: The Open Source CFD Toolbox
   \\    /   O peration     | Website:  https://openfoam.org
    \\  /    A nd           | Version:  12
     \\/     M anipulation  |
\*---------------------------------------------------------------------------*/
FoamFile
{
    format      ascii;
    class       volVectorField;
    location    "0.01";
    object      U;
}
// * * * * * * * * * * * * * * * * * * * * * * * * * * * * * * * * * * * * * //

dimensions      [0 1 -1 0 0 0 0];

internalField   nonuniform List<vector> 
12225
(
(9.86505 -0.858402 0)
(9.67869 -0.67489 0)
(9.46347 -0.36625 0)
(9.22682 -0.173431 0)
(9.00346 -0.0752839 0)
(8.80897 -0.0275677 0)
(8.64295 -0.00444959 0)
(8.50161 0.00685277 0)
(8.38125 0.0124373 0)
(8.27813 0.0151572 0)
(8.18871 0.0164296 0)
(8.10996 0.0170072 0)
(8.03941 0.0172968 0)
(7.97501 0.017544 0)
(7.91449 0.0179196 0)
(7.85682 0.0187251 0)
(7.79357 0.0206894 0)
(7.74094 0.0256696 0)
(10.0521 0.269524 0)
(10.1162 0.363805 0)
(10.1144 0.271699 0)
(10.0799 0.183974 0)
(10.039 0.128231 0)
(9.99305 0.0947585 0)
(9.93931 0.0741379 0)
(9.87927 0.0608724 0)
(9.81618 0.051846 0)
(9.75257 0.0453134 0)
(9.68989 0.0403991 0)
(9.62889 0.0366871 0)
(9.56991 0.0339563 0)
(9.51308 0.0321391 0)
(9.45793 0.0311786 0)
(9.40493 0.0317992 0)
(9.35074 0.033215 0)
(9.30595 0.0438853 0)
(9.99805 0.0407644 0)
(10.0221 0.0262796 0)
(10.0522 0.00953191 0)
(10.0697 0.0196807 0)
(10.0769 0.0364258 0)
(10.0773 0.0463988 0)
(10.071 0.0504762 0)
(10.0586 0.0516662 0)
(10.0418 0.051578 0)
(10.0218 0.0509325 0)
(9.99949 0.0501271 0)
(9.97535 0.0494208 0)
(9.94978 0.0489866 0)
(9.92308 0.0490168 0)
(9.89521 0.0496735 0)
(9.86635 0.0516712 0)
(9.83607 0.0550012 0)
(9.80597 0.064076 0)
(9.99675 0.00536998 0)
(10.0082 0.0255878 0)
(10.0339 0.0406551 0)
(10.0523 0.0517218 0)
(10.0635 0.0579925 0)
(10.072 0.0596646 0)
(10.0776 0.059205 0)
(10.08 0.0582934 0)
(10.0795 0.0573932 0)
(10.0768 0.0565728 0)
(10.0724 0.0558987 0)
(10.0662 0.0554793 0)
(10.0586 0.0554428 0)
(10.0496 0.0559783 0)
(10.0392 0.0573056 0)
(10.0275 0.0600138 0)
(10.0146 0.0643901 0)
(10.0007 0.072283 0)
(9.99928 0.00696762 0)
(10.0081 0.0344591 0)
(10.027 0.0467531 0)
(10.0414 0.0511563 0)
(10.0517 0.054136 0)
(10.0613 0.0557578 0)
(10.0697 0.0561876 0)
(10.076 0.0561298 0)
(10.0805 0.0559443 0)
(10.0834 0.0557522 0)
(10.085 0.0556634 0)
(10.0855 0.0558207 0)
(10.0847 0.0563846 0)
(10.0829 0.0575622 0)
(10.08 0.0596058 0)
(10.076 0.062978 0)
(10.0713 0.0680219 0)
(10.066 0.0755837 0)
(10.0002 0.00926192 0)
(10.0078 0.0324692 0)
(10.0224 0.0421518 0)
(10.0347 0.0458508 0)
(10.0443 0.0494139 0)
(10.0535 0.0520471 0)
(10.0621 0.0532759 0)
(10.0693 0.0537626 0)
(10.0751 0.0540163 0)
(10.0799 0.0542335 0)
(10.0837 0.0545456 0)
(10.0866 0.0551074 0)
(10.0887 0.0560922 0)
(10.0899 0.0577095 0)
(10.0902 0.0602125 0)
(10.0899 0.0639698 0)
(10.0891 0.0693057 0)
(10.0881 0.0767347 0)
(10.0003 0.00889388 0)
(10.0067 0.0277332 0)
(10.0188 0.0373606 0)
(10.03 0.0420642 0)
(10.0391 0.0460658 0)
(10.0477 0.0489627 0)
(10.0559 0.0504621 0)
(10.0631 0.0512096 0)
(10.0693 0.051723 0)
(10.0747 0.0522072 0)
(10.0794 0.0527938 0)
(10.0833 0.0536388 0)
(10.0866 0.0549188 0)
(10.0893 0.0568367 0)
(10.0914 0.0596293 0)
(10.0931 0.0635943 0)
(10.0946 0.0690071 0)
(10.0961 0.0762193 0)
(10.0003 0.00792936 0)
(10.0057 0.0239507 0)
(10.0159 0.0337271 0)
(10.0262 0.0389882 0)
(10.0348 0.0429374 0)
(10.0428 0.0458028 0)
(10.0506 0.0474638 0)
(10.0576 0.0484221 0)
(10.0639 0.0491366 0)
(10.0695 0.0498186 0)
(10.0745 0.0506061 0)
(10.0791 0.0516552 0)
(10.0831 0.0531391 0)
(10.0866 0.055248 0)
(10.0898 0.0581926 0)
(10.0928 0.062212 0)
(10.0959 0.0675216 0)
(10.0992 0.0743778 0)
(10.0004 0.0070643 0)
(10.0048 0.0209986 0)
(10.0135 0.0304259 0)
(10.0228 0.0358354 0)
(10.0309 0.0396731 0)
(10.0385 0.0425137 0)
(10.0459 0.0443248 0)
(10.0528 0.0454646 0)
(10.059 0.0463359 0)
(10.0647 0.0471629 0)
(10.07 0.0480921 0)
(10.0748 0.0492757 0)
(10.0793 0.0508781 0)
(10.0835 0.0530714 0)
(10.0875 0.0560364 0)
(10.0915 0.0599605 0)
(10.0958 0.0650021 0)
(10.1005 0.0713545 0)
(10.0004 0.00629388 0)
(10.0042 0.0184332 0)
(10.0115 0.0272085 0)
(10.0198 0.0326011 0)
(10.0274 0.0363651 0)
(10.0347 0.0391758 0)
(10.0417 0.0410832 0)
(10.0484 0.0423534 0)
(10.0546 0.0433363 0)
(10.0603 0.0442602 0)
(10.0657 0.0452755 0)
(10.0708 0.0465261 0)
(10.0757 0.0481626 0)
(10.0804 0.0503358 0)
(10.0851 0.0531945 0)
(10.09 0.0568808 0)
(10.0952 0.0615023 0)
(10.101 0.0672034 0)
(10.0003 0.00556829 0)
(10.0036 0.0161278 0)
(10.0098 0.0241419 0)
(10.0172 0.0293959 0)
(10.0243 0.0330648 0)
(10.0312 0.0358012 0)
(10.0379 0.0377355 0)
(10.0444 0.0390798 0)
(10.0505 0.0401289 0)
(10.0563 0.0411016 0)
(10.0618 0.0421462 0)
(10.0672 0.0433954 0)
(10.0724 0.0449817 0)
(10.0776 0.0470326 0)
(10.0829 0.0496649 0)
(10.0885 0.0529804 0)
(10.0945 0.0570429 0)
(10.1012 0.0619566 0)
(10.0003 0.00492585 0)
(10.0031 0.0141966 0)
(10.0085 0.0214803 0)
(10.0151 0.0264985 0)
(10.0218 0.0300306 0)
(10.0284 0.0326579 0)
(10.0348 0.0345614 0)
(10.0411 0.035922 0)
(10.0472 0.0369861 0)
(10.053 0.0379553 0)
(10.0586 0.0389711 0)
(10.0642 0.0401531 0)
(10.0697 0.0416154 0)
(10.0752 0.0434622 0)
(10.081 0.0457823 0)
(10.0871 0.0486448 0)
(10.0938 0.0520794 0)
(10.1012 0.0561624 0)
(10.0003 0.00432621 0)
(10.0027 0.012443 0)
(10.0074 0.0189755 0)
(10.0134 0.0236618 0)
(10.0197 0.0270095 0)
(10.0259 0.0294972 0)
(10.0321 0.0313259 0)
(10.0382 0.032657 0)
(10.0442 0.0336945 0)
(10.05 0.0346173 0)
(10.0557 0.0355555 0)
(10.0614 0.0366147 0)
(10.0672 0.0378893 0)
(10.0731 0.039461 0)
(10.0792 0.0413922 0)
(10.0858 0.0437244 0)
(10.0929 0.0464594 0)
(10.1008 0.0496488 0)
(10.0002 0.00369913 0)
(10.0024 0.0106126 0)
(10.0064 0.0162816 0)
(10.0117 0.0204971 0)
(10.0175 0.0235624 0)
(10.0234 0.0258382 0)
(10.0293 0.0275213 0)
(10.0352 0.0287554 0)
(10.0411 0.0297027 0)
(10.0469 0.0305117 0)
(10.0527 0.0312954 0)
(10.0586 0.0321407 0)
(10.0646 0.0331198 0)
(10.0708 0.0342889 0)
(10.0773 0.035684 0)
(10.0842 0.0373198 0)
(10.0918 0.0391735 0)
(10.1 0.041274 0)
(10.0002 0.00304115 0)
(10.002 0.00870024 0)
(10.0055 0.0134022 0)
(10.0102 0.0170007 0)
(10.0155 0.0196592 0)
(10.021 0.0216259 0)
(10.0267 0.0230704 0)
(10.0324 0.0241149 0)
(10.0382 0.0248816 0)
(10.044 0.025484 0)
(10.0498 0.0260106 0)
(10.0558 0.0265262 0)
(10.0619 0.0270778 0)
(10.0683 0.0276959 0)
(10.0751 0.0283913 0)
(10.0823 0.0291552 0)
(10.09 0.029946 0)
(10.0984 0.0307742 0)
(10.0002 0.00235074 0)
(10.0018 0.0067005 0)
(10.0048 0.0103319 0)
(10.0089 0.0131589 0)
(10.0137 0.0152621 0)
(10.0189 0.0167949 0)
(10.0242 0.0178831 0)
(10.0298 0.0186198 0)
(10.0354 0.019089 0)
(10.0411 0.0193669 0)
(10.0469 0.0195122 0)
(10.0529 0.0195641 0)
(10.0591 0.0195446 0)
(10.0656 0.0194597 0)
(10.0724 0.0192987 0)
(10.0796 0.0190349 0)
(10.0873 0.0186163 0)
(10.0955 0.0180398 0)
(10.0002 0.00162183 0)
(10.0015 0.0045879 0)
(10.0042 0.00703522 0)
(10.0079 0.0089314 0)
(10.0123 0.0103144 0)
(10.0171 0.0112661 0)
(10.0222 0.0118613 0)
(10.0275 0.0121562 0)
(10.0329 0.0121974 0)
(10.0385 0.0120239 0)
(10.0442 0.0116627 0)
(10.0501 0.0111264 0)
(10.0561 0.0104138 0)
(10.0624 0.00951155 0)
(10.069 0.00839351 0)
(10.0759 0.0070234 0)
(10.0831 0.00534752 0)
(10.0907 0.00335609 0)
(10.0002 0.000834156 0)
(10.0014 0.00229932 0)
(10.0038 0.00342329 0)
(10.0072 0.00422026 0)
(10.0113 0.00470991 0)
(10.0158 0.00492158 0)
(10.0206 0.00487968 0)
(10.0257 0.00459996 0)
(10.0308 0.004092 0)
(10.0362 0.00335968 0)
(10.0416 0.00239934 0)
(10.0471 0.00119882 0)
(10.0528 -0.000262159 0)
(10.0586 -0.00201076 0)
(10.0646 -0.00408089 0)
(10.0708 -0.00651093 0)
(10.0771 -0.00934779 0)
(10.0836 -0.0126051 0)
(10.0001 -5.91235e-05 0)
(10.0013 -0.000295079 0)
(10.0037 -0.00068127 0)
(10.0069 -0.00115831 0)
(10.0109 -0.00171399 0)
(10.0152 -0.00236506 0)
(10.0198 -0.00313919 0)
(10.0246 -0.00406279 0)
(10.0295 -0.00516094 0)
(10.0344 -0.00646081 0)
(10.0394 -0.00799232 0)
(10.0443 -0.00978727 0)
(10.0493 -0.0118787 0)
(10.0543 -0.014301 0)
(10.0593 -0.017089 0)
(10.0643 -0.0202773 0)
(10.0692 -0.0239008 0)
(10.0742 -0.0279758 0)
(10.0002 -0.000916209 0)
(10.0014 -0.00278827 0)
(10.0039 -0.0046153 0)
(10.0073 -0.00627881 0)
(10.0114 -0.00776887 0)
(10.0158 -0.00915404 0)
(10.0203 -0.0105141 0)
(10.0249 -0.0119112 0)
(10.0296 -0.0133991 0)
(10.0342 -0.0150313 0)
(10.0387 -0.0168581 0)
(10.0431 -0.0189236 0)
(10.0473 -0.0212671 0)
(10.0515 -0.0239246 0)
(10.0555 -0.0269287 0)
(10.0593 -0.0303083 0)
(10.063 -0.0340887 0)
(10.0665 -0.0382841 0)
(10.0002 -0.00165228 0)
(10.0016 -0.00494613 0)
(10.0043 -0.00800623 0)
(10.0081 -0.0106041 0)
(10.0124 -0.0127552 0)
(10.017 -0.0146226 0)
(10.0217 -0.016337 0)
(10.0263 -0.0179759 0)
(10.0308 -0.0196136 0)
(10.0352 -0.0213298 0)
(10.0394 -0.0231934 0)
(10.0434 -0.0252571 0)
(10.0471 -0.0275633 0)
(10.0507 -0.0301485 0)
(10.054 -0.0330435 0)
(10.057 -0.0362737 0)
(10.0597 -0.0398587 0)
(10.0622 -0.0438114 0)
(10.0002 -0.0023501 0)
(10.0017 -0.00707052 0)
(10.0049 -0.0113711 0)
(10.0093 -0.01478 0)
(10.0141 -0.0173978 0)
(10.0189 -0.0195693 0)
(10.0238 -0.0214863 0)
(10.0285 -0.0232275 0)
(10.033 -0.0248825 0)
(10.0373 -0.0265533 0)
(10.0412 -0.0283216 0)
(10.0449 -0.0302456 0)
(10.0483 -0.0323705 0)
(10.0513 -0.0347336 0)
(10.0541 -0.0373645 0)
(10.0564 -0.0402857 0)
(10.0585 -0.0435125 0)
(10.0602 -0.0470561 0)
(10.0002 -0.00299278 0)
(10.0019 -0.0091973 0)
(10.0056 -0.0147667 0)
(10.0108 -0.0188939 0)
(10.0163 -0.0218773 0)
(10.0215 -0.0242393 0)
(10.0265 -0.0261994 0)
(10.0314 -0.0278747 0)
(10.0359 -0.0294112 0)
(10.0402 -0.0309341 0)
(10.044 -0.0325203 0)
(10.0474 -0.0342222 0)
(10.0505 -0.0360847 0)
(10.0532 -0.0381454 0)
(10.0555 -0.0404323 0)
(10.0574 -0.0429648 0)
(10.059 -0.0457555 0)
(10.0601 -0.0488133 0)
(10.0001 -0.00357206 0)
(10.0019 -0.011581 0)
(10.0065 -0.0181625 0)
(10.0127 -0.0226046 0)
(10.0188 -0.0259292 0)
(10.0244 -0.0286105 0)
(10.0297 -0.0306293 0)
(10.0348 -0.0321457 0)
(10.0394 -0.033448 0)
(10.0436 -0.0347223 0)
(10.0474 -0.0360444 0)
(10.0507 -0.0374581 0)
(10.0536 -0.0390053 0)
(10.056 -0.0407211 0)
(10.058 -0.0426293 0)
(10.0596 -0.0447458 0)
(10.0607 -0.047079 0)
(10.0614 -0.0496345 0)
(9.99997 -0.00378562 0)
(10.0018 -0.0151578 0)
(10.0076 -0.0226187 0)
(10.0147 -0.0262412 0)
(10.0212 -0.0292058 0)
(10.0273 -0.0320888 0)
(10.0332 -0.0343046 0)
(10.0387 -0.0358378 0)
(10.0435 -0.0370309 0)
(10.0477 -0.0381167 0)
(10.0515 -0.0391906 0)
(10.0547 -0.0403105 0)
(10.0574 -0.0415276 0)
(10.0596 -0.0428798 0)
(10.0613 -0.0443912 0)
(10.0625 -0.0460763 0)
(10.0632 -0.047942 0)
(10.0634 -0.0499929 0)
(9.99912 -0.00179114 0)
(10.0003 -0.0186186 0)
(10.0086 -0.0293782 0)
(10.0173 -0.0326714 0)
(10.0241 -0.0341381 0)
(10.0306 -0.0357456 0)
(10.0372 -0.0371904 0)
(10.0434 -0.0383549 0)
(10.0485 -0.0393626 0)
(10.0529 -0.0402837 0)
(10.0565 -0.0411548 0)
(10.0594 -0.0420275 0)
(10.0616 -0.0429552 0)
(10.0632 -0.043977 0)
(10.0641 -0.0451189 0)
(10.0644 -0.0463981 0)
(10.0642 -0.0478213 0)
(10.0633 -0.0493924 0)
(9.9956 0.00414183 0)
(9.99397 -0.0124711 0)
(10.0075 -0.0306909 0)
(10.0213 -0.0419844 0)
(10.0307 -0.046872 0)
(10.0383 -0.0478192 0)
(10.0453 -0.0471344 0)
(10.0512 -0.0462837 0)
(10.0557 -0.0457045 0)
(10.0589 -0.045358 0)
(10.061 -0.0451761 0)
(10.062 -0.0451483 0)
(10.0621 -0.045281 0)
(10.0613 -0.0455764 0)
(10.0597 -0.0460355 0)
(10.0574 -0.0466608 0)
(10.0545 -0.0474452 0)
(10.0509 -0.0483646 0)
(9.99044 -0.0122736 0)
(9.9897 0.00788653 0)
(10.0088 0.0231271 0)
(10.0293 0.0143451 0)
(10.0441 -0.00458521 0)
(10.0537 -0.0194146 0)
(10.0592 -0.0282367 0)
(10.0609 -0.0333777 0)
(10.0597 -0.036495 0)
(10.0563 -0.0383731 0)
(10.0512 -0.0394845 0)
(10.0446 -0.0401652 0)
(10.0369 -0.0406335 0)
(10.0281 -0.0410219 0)
(10.0185 -0.0414158 0)
(10.0083 -0.0418777 0)
(9.99754 -0.0424635 0)
(9.98639 -0.0431471 0)
(10.0212 -0.210804 0)
(10.0641 -0.314679 0)
(10.0746 -0.253387 0)
(10.0671 -0.180533 0)
(10.0586 -0.131616 0)
(10.049 -0.100385 0)
(10.0338 -0.0797295 0)
(10.0125 -0.0659277 0)
(9.98701 -0.0565479 0)
(9.9591 -0.0499161 0)
(9.92995 -0.045033 0)
(9.90024 -0.0413383 0)
(9.87047 -0.0384938 0)
(9.84095 -0.036282 0)
(9.81188 -0.0345665 0)
(9.78339 -0.0332919 0)
(9.75569 -0.0324313 0)
(9.72877 -0.0323052 0)
(9.94552 0.659776 0)
(9.88575 0.547362 0)
(9.77926 0.320464 0)
(9.63497 0.16951 0)
(9.48773 0.0855724 0)
(9.35444 0.0408878 0)
(9.23691 0.0170742 0)
(9.13344 0.00405688 0)
(9.04237 -0.00328967 0)
(8.96198 -0.00753646 0)
(8.89046 -0.0100424 0)
(8.82621 -0.0115665 0)
(8.76793 -0.0125359 0)
(8.7146 -0.0131935 0)
(8.66536 -0.013685 0)
(8.61948 -0.0141244 0)
(8.5761 -0.0146007 0)
(8.53482 -0.0154529 0)
(0.0444574 -0.131176 -2.72128e-20)
(0.0763587 -0.0760941 2.50615e-20)
(0.0801408 -0.021786 0)
(0.0575764 0.018101 0)
(0.00636426 0.0273157 0)
(-0.0474789 0.0298782 -2.69581e-20)
(-0.107172 0.0375974 0)
(-0.178433 0.0470103 0)
(-0.260827 0.0583586 0)
(-0.355775 0.071807 0)
(-0.464744 0.087306 2.52315e-20)
(-0.589026 0.10472 0)
(-0.72965 0.12386 0)
(-0.887345 0.14446 0)
(-1.06249 0.166143 0)
(-1.25506 0.188402 2.37863e-20)
(-1.46457 0.210604 0)
(-1.69009 0.232023 0)
(-1.93017 0.251885 0)
(-2.18292 0.26942 0)
(-2.44602 0.283917 0)
(-2.71679 0.29476 0)
(-2.99227 0.301467 0)
(-3.26931 0.303698 2.33809e-20)
(-3.54461 0.301264 -2.35026e-20)
(-3.81484 0.29412 2.36381e-20)
(-4.07668 0.282344 2.37758e-20)
(-4.32685 0.266127 0)
(-4.56221 0.245754 0)
(-4.77975 0.221606 -2.40727e-20)
(-4.97663 0.194149 -2.40883e-20)
(-5.15021 0.163944 0)
(-5.29812 0.131683 0)
(-5.41828 0.0981941 -2.37013e-20)
(-5.50907 0.0644707 0)
(-5.56864 0.0318509 0)
(-5.59586 0.00129347 2.23996e-20)
(-5.59166 -0.0266281 0)
(-5.56144 -0.0518724 2.07197e-20)
(-5.50454 -0.0756136 3.92905e-20)
(-5.42187 -0.0982957 0)
(-5.31423 -0.120007 0)
(-5.18254 -0.140686 0)
(-5.02783 -0.160211 0)
(-4.85136 -0.178439 0)
(-4.65455 -0.195231 1.96397e-20)
(-4.43903 -0.210467 1.52969e-20)
(-4.2066 -0.224048 1.06801e-20)
(-3.95915 -0.235905 0)
(-3.6987 -0.245998 -6.85978e-22)
(-3.42732 -0.254318 0)
(-3.1471 -0.260882 -1.02168e-20)
(-2.86008 -0.26573 -1.59711e-20)
(-2.56829 -0.268919 0)
(-2.27366 -0.270514 0)
(-1.97802 -0.270574 0)
(-1.68308 -0.269147 -4.07206e-20)
(-1.39045 -0.266248 0)
(-1.10159 -0.26184 0)
(-0.817855 -0.255819 0)
(-0.540471 -0.248038 0)
(-0.270197 -0.238364 0)
(-0.00722271 -0.227003 0)
(0.248471 -0.21489 0)
(0.496556 -0.202809 0)
(0.736089 -0.190953 7.50561e-20)
(0.966655 -0.179395 0)
(1.18799 -0.16818 0)
(1.39995 -0.157333 -7.16422e-20)
(1.60243 -0.14687 -7.04168e-20)
(1.79542 -0.1368 0)
(1.97896 -0.12713 6.79386e-20)
(2.15311 -0.117863 -6.67094e-20)
(2.318 -0.109 0)
(2.47378 -0.100542 6.43131e-20)
(2.62063 -0.092487 0)
(2.75875 -0.0848344 0)
(2.88837 -0.0775817 -6.09512e-20)
(3.00976 -0.0707265 0)
(3.12316 -0.064266 5.88982e-20)
(3.22886 -0.0581967 0)
(3.32716 -0.0525143 -5.70051e-20)
(3.41836 -0.0472136 -5.61183e-20)
(3.50277 -0.0422881 -5.52704e-20)
(3.58072 -0.0377296 -1.08921e-19)
(3.65253 -0.0335283 1.07375e-19)
(3.71852 -0.0296727 0)
(3.77903 -0.0261494 0)
(3.83439 -0.0229434 0)
(3.88491 -0.0200386 1.0187e-19)
(3.93091 -0.0174175 1.0065e-19)
(3.9727 -0.0150622 -9.94859e-20)
(4.01058 -0.0129542 0)
(4.04484 -0.0110752 9.7316e-20)
(4.07575 -0.00940693 9.63048e-20)
(4.10359 -0.00793163 9.53394e-20)
(4.1286 -0.00663214 0)
(4.15102 -0.00549202 0)
(4.17107 -0.00449574 0)
(4.18896 -0.00362872 9.18874e-20)
(4.20489 -0.00287737 0)
(4.21903 -0.0022291 0)
(4.23156 -0.00167234 -8.9666e-20)
(4.24264 -0.00119643 0)
(4.25239 -0.000791302 0)
(4.26095 -0.000447927 -8.77007e-20)
(4.26844 -0.000156548 0)
(4.27494 9.43099e-05 0)
(4.28057 0.000329745 8.59486e-20)
(4.28529 0.000606644 8.54041e-20)
(4.28897 0.000953245 0)
(4.29168 0.00134303 -8.4366e-20)
(4.29349 0.00173921 0)
(4.2945 0.00211105 8.34013e-20)
(4.2948 0.00243509 0)
(4.2945 0.00269483 8.24995e-20)
(4.29371 0.00287747 8.20687e-20)
(4.29254 0.0029754 0)
(4.2911 0.00299045 0)
(4.28947 0.00293297 0)
(4.28774 0.00281865 0)
(4.28596 0.00266549 0)
(4.28416 0.00249082 0)
(4.28237 0.00230905 0)
(4.28061 0.00213067 7.89524e-20)
(4.27887 0.00196227 -7.85924e-20)
(4.27715 0.00180724 0)
(4.27546 0.00166665 0)
(4.2738 0.00154013 0)
(4.27217 0.00142661 0)
(4.27055 0.00132471 -1.53722e-19)
(4.26896 0.00123308 0)
(4.26738 0.00115048 1.52391e-19)
(4.26583 0.00107584 -1.51735e-19)
(4.26429 0.00100826 0)
(4.26278 0.00094698 0)
(4.26127 0.000891334 0)
(4.25978 0.000840758 1.49169e-19)
(4.25831 0.000794756 1.4854e-19)
(4.25685 0.000752891 0)
(4.2554 0.00071478 1.47295e-19)
(4.25395 0.000680099 1.46679e-19)
(4.25252 0.000648568 -1.46067e-19)
(4.25109 0.00061996 0)
(4.24967 0.000594089 0)
(4.24825 0.00057082 -1.44252e-19)
(4.24684 0.000550067 0)
(4.24542 0.000531795 0)
(4.24399 0.000516014 0)
(4.24257 0.000502781 0)
(4.24113 0.000492201 1.41292e-19)
(4.23967 0.000484441 1.40709e-19)
(4.2382 0.000479729 0)
(4.2367 0.000478372 1.39554e-19)
(4.23517 0.000480774 0)
(4.2336 0.000487463 0)
(4.23197 0.000499127 1.37847e-19)
(4.23028 0.00051666 0)
(4.2285 0.00054122 1.3673e-19)
(4.22662 0.000574322 0)
(4.2246 0.000617942 0)
(4.22241 0.000674666 1.35096e-19)
(4.22001 0.000747886 0)
(4.21734 0.000842077 1.34047e-19)
(4.21432 0.00096318 0)
(4.21086 0.00111915 0)
(4.20682 0.00132075 0)
(4.20203 0.00158278 -1.32117e-19)
(4.19628 0.00192591 0)
(4.18923 0.00237969 1.31305e-19)
(4.18046 0.00298741 0)
(4.16936 0.00381465 0)
(4.15502 0.00496404 0)
(4.13609 0.00660402 0)
(4.11053 0.0090266 0)
(4.07467 0.0127273 0)
(4.02367 0.0188831 0)
(3.94261 0.0284522 -2.65307e-19)
(3.83351 0.0506357 0)
(3.56198 0.0699303 0)
(-0.0533049 -0.111183 7.86177e-20)
(-0.108355 0.0112097 -6.71651e-20)
(-0.197302 0.104924 0)
(-0.307816 0.171399 3.83809e-20)
(-0.432725 0.213962 0)
(-0.569579 0.245304 1.82494e-20)
(-0.718146 0.275358 -3.47921e-20)
(-0.878196 0.307217 -3.40249e-20)
(-1.04938 0.34179 0)
(-1.23182 0.379164 -3.28199e-20)
(-1.4255 0.418819 -1.6477e-20)
(-1.63011 0.45991 0)
(-1.84501 0.501413 0)
(-2.06916 0.542195 0)
(-2.30116 0.581066 0)
(-2.53923 0.616826 -1.57959e-20)
(-2.7813 0.64832 0)
(-3.0251 0.6745 3.17971e-20)
(-3.26822 0.694475 0)
(-3.50823 0.707558 0)
(-3.74279 0.713288 -3.30766e-20)
(-3.96968 0.711438 0)
(-4.1869 0.701998 3.43136e-20)
(-4.39271 0.685152 -1.71437e-20)
(-4.58564 0.661233 1.74538e-20)
(-4.76448 0.630689 -1.77643e-20)
(-4.92829 0.594036 -1.80622e-20)
(-5.07637 0.551822 0)
(-5.20821 0.504607 0)
(-5.32346 0.452947 1.8741e-20)
(-5.42192 0.397388 -2.00403e-20)
(-5.50351 0.338475 0)
(-5.56823 0.276788 0)
(-5.6162 0.212969 1.8656e-20)
(-5.64755 0.147855 0)
(-5.6627 0.082547 0)
(-5.66168 0.0181591 -1.74782e-20)
(-5.64292 -0.0446427 0)
(-5.60089 -0.105362 1.73731e-20)
(-5.5354 -0.16407 -2.99785e-20)
(-5.446 -0.220636 0)
(-5.33275 -0.274744 0)
(-5.19619 -0.325986 -4.90707e-20)
(-5.0372 -0.373933 -4.36318e-20)
(-4.85698 -0.418173 -3.78231e-20)
(-4.65692 -0.458342 1.75063e-20)
(-4.43864 -0.494141 -1.09256e-20)
(-4.20394 -0.525345 -2.60533e-20)
(-3.95471 -0.551815 1.15442e-20)
(-3.69296 -0.5735 4.75099e-22)
(-3.42074 -0.590434 0)
(-3.14009 -0.602738 6.93285e-21)
(-2.85304 -0.610608 -7.31131e-21)
(-2.56152 -0.614306 0)
(-2.26737 -0.614146 0)
(-1.97231 -0.610474 0)
(-1.67788 -0.603659 2.63394e-20)
(-1.38547 -0.594061 0)
(-1.09628 -0.582012 -6.55537e-20)
(-0.811326 -0.567799 0)
(-0.53146 -0.551652 -8.22196e-20)
(-0.257374 -0.533724 0)
(0.0100005 -0.514169 9.53602e-20)
(0.269597 -0.493446 0)
(0.521061 -0.472143 -9.95274e-20)
(0.764165 -0.450576 4.93815e-20)
(0.998718 -0.428964 0)
(1.22455 -0.407468 1.02941e-19)
(1.44153 -0.386217 5.26146e-20)
(1.64963 -0.365314 5.27071e-20)
(1.84882 -0.344846 0)
(2.03915 -0.324881 5.13109e-20)
(2.22071 -0.305478 5.24759e-20)
(2.39362 -0.286683 0)
(2.55803 -0.268532 -5.20167e-20)
(2.71413 -0.251055 1.02557e-19)
(2.86212 -0.234271 0)
(3.00222 -0.218195 5.10503e-20)
(3.13466 -0.202835 0)
(3.2597 -0.188196 -1.50289e-19)
(3.37758 -0.174277 0)
(3.48857 -0.161075 1.4799e-19)
(3.59293 -0.148583 4.90785e-20)
(3.69091 -0.136792 -4.82718e-20)
(3.78277 -0.12569 -9.57869e-20)
(3.86879 -0.115262 9.50222e-20)
(3.9492 -0.105494 0)
(4.02427 -0.0963661 0)
(4.09425 -0.0878589 0)
(4.15938 -0.0799505 -2.76667e-19)
(4.21991 -0.0726177 -9.15591e-20)
(4.27608 -0.0658358 9.07703e-20)
(4.32812 -0.0595796 0)
(4.37628 -0.0538226 8.89637e-20)
(4.42077 -0.048538 -8.84921e-20)
(4.46182 -0.0436986 -8.77657e-20)
(4.49964 -0.0392772 0)
(4.53444 -0.0352464 0)
(4.56641 -0.0315797 0)
(4.59577 -0.028251 -8.50428e-20)
(4.62267 -0.0252349 0)
(4.64731 -0.0225072 1.67465e-19)
(4.66984 -0.0200445 2.49479e-19)
(4.69043 -0.0178246 -1.65135e-19)
(4.70922 -0.0158259 0)
(4.72636 -0.0140277 -8.1429e-20)
(4.74196 -0.0124087 0)
(4.75616 -0.0109452 -1.60878e-19)
(4.76908 -0.00960438 7.99127e-20)
(4.78091 -0.00833862 7.94321e-20)
(4.79196 -0.00713027 0)
(4.80233 -0.00600329 2.35618e-19)
(4.81206 -0.00498502 -1.56164e-19)
(4.82116 -0.0040804 -7.76629e-20)
(4.82964 -0.00328698 0)
(4.83752 -0.00260434 -7.68014e-20)
(4.84479 -0.00202888 -2.29129e-19)
(4.85145 -0.00155372 0)
(4.85751 -0.00116766 -1.51156e-19)
(4.86298 -0.000857175 -1.50392e-19)
(4.86787 -0.000608305 -1.49647e-19)
(4.87221 -0.000407983 0)
(4.87606 -0.000245072 0)
(4.87944 -0.000110847 0)
(4.88241 1.10025e-06 7.34064e-20)
(4.885 9.52753e-05 7.30837e-20)
(4.88725 0.000174791 0)
(4.8892 0.000241856 1.44849e-19)
(4.89088 0.000298141 1.44212e-19)
(4.89232 0.000345024 0)
(4.89354 0.000383717 1.42973e-19)
(4.89457 0.000415319 2.84711e-19)
(4.89541 0.000440841 -1.41759e-19)
(4.89609 0.000461196 -1.41151e-19)
(4.89663 0.000477197 0)
(4.89703 0.000489558 0)
(4.89731 0.000498901 0)
(4.89748 0.00050576 -1.3884e-19)
(4.89755 0.000510601 1.38266e-19)
(4.89753 0.000513824 2.75415e-19)
(4.89742 0.000515783 -1.37153e-19)
(4.89724 0.000516799 1.36593e-19)
(4.89699 0.000517163 1.3605e-19)
(4.89668 0.000517148 0)
(4.89631 0.000517011 0)
(4.89588 0.000517008 -1.34417e-19)
(4.89541 0.000517401 0)
(4.89489 0.000518469 0)
(4.89432 0.000520521 2.6564e-19)
(4.89372 0.000523911 0)
(4.89308 0.000529059 1.31766e-19)
(4.8924 0.000536479 -1.31248e-19)
(4.89169 0.000546809 0)
(4.89095 0.000560835 1.30208e-19)
(4.89017 0.000579539 0)
(4.88935 0.000604151 0)
(4.8885 0.000636212 -1.2868e-19)
(4.88761 0.00067766 2.56347e-19)
(4.88667 0.000730941 -1.27676e-19)
(4.88568 0.000799165 0)
(4.88463 0.000886306 0)
(4.8835 0.000997462 1.26194e-19)
(4.88227 0.00113923 0)
(4.88093 0.00132019 1.25238e-19)
(4.87944 0.00155165 0)
(4.87776 0.00184862 0)
(4.87585 0.00223131 0)
(4.87363 0.00272733 1.23469e-19)
(4.87102 0.00337508 0)
(4.86791 0.00422909 -1.22693e-19)
(4.86413 0.00536882 0)
(4.85948 0.00691317 0)
(4.85368 0.0090481 2.43556e-19)
(4.84629 0.0120692 -2.43204e-19)
(4.83684 0.0165018 0)
(4.82421 0.0231699 0)
(4.80837 0.0341394 0)
(4.78363 0.0511631 7.33919e-19)
(4.76023 0.0879228 0)
(4.70061 0.13328 -4.9462e-19)
(-0.114779 0.1586 -1.54202e-21)
(-0.226303 0.291818 7.55649e-20)
(-0.370046 0.394609 0)
(-0.525374 0.473046 -6.16498e-20)
(-0.686417 0.533166 0)
(-0.85462 0.583314 0)
(-1.03055 0.630278 2.81865e-22)
(-1.21348 0.677519 2.72757e-20)
(-1.40258 0.726204 2.66638e-20)
(-1.59702 0.776256 2.64511e-20)
(-1.79592 0.82686 0)
(-1.99829 0.876789 0)
(-2.20304 0.924613 -2.60782e-20)
(-2.409 0.968837 -5.23272e-20)
(-2.61497 1.00799 5.26807e-20)
(-2.81974 1.04074 0)
(-3.02221 1.06592 5.39145e-20)
(-3.22137 1.0826 -2.66433e-20)
(-3.41642 1.09016 0)
(-3.60672 1.08826 5.69044e-20)
(-3.79183 1.07681 2.80578e-20)
(-3.97145 1.05601 -5.94372e-20)
(-4.14537 1.02623 -2.92603e-20)
(-4.31341 0.987999 0)
(-4.47534 0.941919 6.35236e-20)
(-4.63082 0.888638 6.48387e-20)
(-4.77931 0.828802 0)
(-4.9201 0.763037 6.71946e-20)
(-5.05221 0.691938 0)
(-5.17442 0.616072 6.89445e-20)
(-5.2853 0.535986 3.3304e-20)
(-5.38324 0.452216 0)
(-5.46648 0.365291 0)
(-5.5331 0.275724 0)
(-5.58111 0.184004 0)
(-5.60856 0.0905439 0)
(-5.61381 -0.00419244 0)
(-5.59551 -0.0996764 6.33423e-20)
(-5.55281 -0.195055 -8.89309e-20)
(-5.48556 -0.289008 0)
(-5.39377 -0.38033 0)
(-5.27778 -0.467975 0)
(-5.13823 -0.550997 -3.29622e-21)
(-4.97612 -0.628545 3.68215e-20)
(-4.7927 -0.699871 6.67581e-20)
(-4.58948 -0.764348 -5.61374e-20)
(-4.36819 -0.821476 -2.40062e-20)
(-4.1307 -0.870897 1.53907e-20)
(-3.87904 -0.9124 2.74814e-21)
(-3.6153 -0.945925 6.26926e-21)
(-3.34161 -0.97156 0)
(-3.0601 -0.989534 -6.0551e-21)
(-2.77282 -1.0002 2.4055e-21)
(-2.48174 -1.00403 0)
(-2.18869 -1.00158 0)
(-1.89534 -0.993443 3.10657e-20)
(-1.60319 -0.980276 0)
(-1.31355 -0.962731 0)
(-1.02754 -0.941452 -4.77719e-20)
(-0.746091 -0.917067 -1.12358e-19)
(-0.470003 -0.890201 6.45717e-20)
(-0.199902 -0.861449 0)
(0.0634555 -0.831271 -7.41595e-20)
(0.319354 -0.799968 0)
(0.567416 -0.767832 -7.54467e-20)
(0.807379 -0.735153 -8.06161e-20)
(1.03905 -0.70221 1.61464e-19)
(1.26229 -0.669248 8.08022e-20)
(1.47699 -0.636476 0)
(1.68313 -0.604073 -1.68634e-19)
(1.8807 -0.572192 0)
(2.06976 -0.540962 -2.5822e-19)
(2.25037 -0.510492 -1.72441e-19)
(2.42266 -0.48087 -1.73137e-19)
(2.58676 -0.45217 1.736e-19)
(2.74286 -0.424447 -2.61519e-19)
(2.89113 -0.397744 0)
(3.03178 -0.372094 0)
(3.16505 -0.347517 1.73659e-19)
(3.29116 -0.324023 2.60545e-19)
(3.41036 -0.301616 0)
(3.52291 -0.280293 -8.66711e-20)
(3.62904 -0.260046 0)
(3.72902 -0.24086 2.57263e-19)
(3.8231 -0.222718 7.16133e-22)
(3.91153 -0.205601 -6.60474e-22)
(3.99455 -0.189484 -1.69135e-19)
(4.0724 -0.174342 0)
(4.14533 -0.160147 1.6757e-19)
(4.21355 -0.146869 4.75858e-22)
(4.27731 -0.134477 0)
(4.33682 -0.122937 0)
(4.39231 -0.112215 0)
(4.44397 -0.102277 -1.63672e-19)
(4.49202 -0.0930837 0)
(4.53667 -0.0845994 0)
(4.5781 -0.0767855 0)
(4.61651 -0.0696038 0)
(4.65207 -0.0630161 0)
(4.68497 -0.0569847 -1.58021e-19)
(4.71538 -0.0514725 0)
(4.74346 -0.0464432 -1.56449e-19)
(4.76936 -0.0418617 -1.55576e-19)
(4.79323 -0.037694 1.54714e-19)
(4.81522 -0.0339073 0)
(4.83545 -0.0304696 1.53029e-19)
(4.85405 -0.0273504 0)
(4.87115 -0.0245193 1.514e-19)
(4.88686 -0.0219521 -1.50607e-19)
(4.90128 -0.0196397 -4.4931e-19)
(4.91452 -0.0175685 0)
(4.92666 -0.0157113 -4.44804e-19)
(4.93784 -0.0140397 -1.47453e-19)
(4.94814 -0.0125245 0)
(4.95766 -0.0111422 -2.92168e-19)
(4.96647 -0.00988329 -2.90756e-19)
(4.9746 -0.00874219 4.34069e-19)
(4.98212 -0.00770914 0)
(4.98906 -0.00677695 1.43348e-19)
(4.99546 -0.00594077 1.42682e-19)
(5.00134 -0.00519515 4.26025e-19)
(5.00674 -0.00453356 0)
(5.01168 -0.00394874 0)
(5.01619 -0.00343293 0)
(5.02029 -0.00297822 1.39486e-19)
(5.02402 -0.00257701 0)
(5.0274 -0.00222233 0)
(5.03045 -0.00190808 -1.37754e-19)
(5.0332 -0.00162903 -1.37178e-19)
(5.03566 -0.0013808 0)
(5.03787 -0.00115969 0)
(5.03983 -0.00096263 -2.70984e-19)
(5.04158 -0.000786978 0)
(5.04311 -0.000630463 2.68797e-19)
(5.04446 -0.000491084 2.67703e-19)
(5.04563 -0.000367058 0)
(5.04664 -0.000256776 0)
(5.0475 -0.000158783 -2.64527e-19)
(5.04822 -7.17445e-05 -9.72924e-24)
(5.04882 5.55615e-06 -8.6935e-24)
(5.04931 7.42354e-05 0)
(5.04969 0.00013532 -5.20798e-19)
(5.04998 0.000189755 0)
(5.05018 0.000238418 0)
(5.05029 0.000282124 0)
(5.05034 0.000321638 2.56362e-19)
(5.05031 0.000357689 0)
(5.05022 0.000390981 -5.08735e-19)
(5.05007 0.000422224 -2.53382e-19)
(5.04987 0.000452155 0)
(5.04962 0.000481576 -2.51417e-19)
(5.04931 0.000511387 0)
(5.04896 0.000542638 0)
(5.04857 0.000576574 -7.45501e-19)
(5.04813 0.000614698 4.95073e-19)
(5.04765 0.000658838 0)
(5.04712 0.000711239 4.91251e-19)
(5.04653 0.000774681 -2.44681e-19)
(5.04589 0.00085262 0)
(5.04519 0.000949391 0)
(5.04441 0.00107047 0)
(5.04354 0.0012228 -7.22886e-19)
(5.04256 0.00141532 0)
(5.04144 0.00165955 -2.39172e-19)
(5.04014 0.00197053 0)
(5.03863 0.00236813 0)
(5.03684 0.00287885 0)
(5.0347 0.00353864 0)
(5.0321 0.00439698 0)
(5.0289 0.00552334 0)
(5.02493 0.00701766 -4.67342e-19)
(5.01993 0.00902682 0)
(5.01358 0.0117766 -2.32722e-19)
(5.00539 0.0156151 6.97016e-19)
(4.99478 0.0211481 0)
(4.98074 0.0292951 0)
(4.96263 0.0421964 -4.65093e-19)
(4.93796 0.0622334 -4.67875e-19)
(4.91026 0.100122 4.68107e-19)
(4.87923 0.159046 4.73448e-19)
(-0.13742 0.512696 -1.27532e-19)
(-0.269446 0.641534 -9.96896e-20)
(-0.431704 0.740007 -5.78302e-20)
(-0.600764 0.819969 -2.67608e-20)
(-0.770114 0.886456 0)
(-0.941026 0.944527 4.95116e-20)
(-1.11456 0.998494 -2.44459e-20)
(-1.29057 1.051 0)
(-1.46857 1.10311 -2.33314e-20)
(-1.64801 1.15475 0)
(-1.82837 1.20513 4.696e-20)
(-2.00916 1.25307 0)
(-2.18992 1.29726 2.30586e-20)
(-2.3703 1.33634 4.63848e-20)
(-2.54998 1.36908 -4.68094e-20)
(-2.72879 1.39443 0)
(-2.90666 1.41156 -4.81105e-20)
(-3.08359 1.41989 0)
(-3.25968 1.4191 0)
(-3.43503 1.40907 -5.10536e-20)
(-3.6097 1.38983 0)
(-3.78364 1.36154 -2.4867e-21)
(-3.95663 1.3244 0)
(-4.12822 1.27862 0)
(-4.29767 1.2244 2.96577e-21)
(-4.46397 1.16186 -5.89008e-20)
(-4.62577 1.09112 -6.35096e-20)
(-4.78145 1.01227 -6.14152e-20)
(-4.92912 0.925388 0)
(-5.06669 0.830638 -1.30772e-19)
(-5.19194 0.728267 0)
(-5.30257 0.618669 -6.89048e-20)
(-5.39634 0.502414 0)
(-5.47106 0.380276 0)
(-5.52474 0.253208 6.90152e-20)
(-5.55567 0.122338 0)
(-5.56253 -0.0111006 -6.66113e-20)
(-5.54438 -0.145686 4.5218e-21)
(-5.50064 -0.279927 1.18432e-19)
(-5.43108 -0.412184 -1.16385e-19)
(-5.33581 -0.540845 0)
(-5.21531 -0.66438 0)
(-5.07041 -0.781373 -4.9915e-20)
(-4.90224 -0.890554 0)
(-4.71226 -0.990815 -3.27927e-20)
(-4.50218 -1.08124 2.77238e-20)
(-4.27394 -1.1611 2.24548e-20)
(-4.02964 -1.22989 0)
(-3.77152 -1.28734 -1.14699e-20)
(-3.50188 -1.33338 -5.82692e-21)
(-3.22305 -1.36816 4.82836e-21)
(-2.93733 -1.39208 5.5992e-21)
(-2.64689 -1.40567 1.13305e-20)
(-2.35378 -1.40967 0)
(-2.05989 -1.40491 0)
(-1.76687 -1.3923 -2.83943e-20)
(-1.47618 -1.37279 0)
(-1.18904 -1.34734 0)
(-0.906467 -1.31687 9.03142e-20)
(-0.629323 -1.28226 1.01397e-19)
(-0.358273 -1.24437 0)
(-0.0938089 -1.20391 0)
(0.163502 -1.16145 0)
(0.413295 -1.11749 0)
(0.655267 -1.0725 1.37072e-19)
(0.889218 -1.02688 -1.38692e-19)
(1.11502 -0.981005 -1.44324e-19)
(1.33259 -0.935195 -2.92545e-19)
(1.54189 -0.889719 0)
(1.74294 -0.844808 1.7768e-21)
(1.93575 -0.80066 0)
(2.12041 -0.757445 1.55381e-19)
(2.29698 -0.715303 1.47253e-21)