# Probe 0 (0 0 0)
# Time            0                
0                 0                
0.005             155.5422974      
0.01              275.0175441      
0.015             366.889406       
0.02              437.559262       
0.025             491.9443755      
0.03              533.8205895      
0.035             566.0865753      
0.04              590.9673094      
0.045             610.1705851      
0.05              625.0072956      
0.055             636.4838122      
0.06              645.3728924      
0.065             652.2680865      
0.07              657.6254697      
0.075             661.7956447      
0.08              665.0482814      
0.085             667.5909302      
0.09              669.583449       
0.095             671.1490635      
0.1               672.3828505      
0.105             673.3582441      
0.11              674.1320286      
0.115             674.7481693      
0.12              675.2407548      
0.125             675.6362567      
0.13              675.9552666      
0.135             676.2138316      
0.14              676.4244826      
0.145             676.5970257      
0.15              676.7391526      
0.155             676.8569119      
0.16              676.9550724      
0.165             677.0374048      
0.17              677.1068995      
0.175             677.1659354      
0.18              677.2164115      
0.185             677.2598487      
0.19              677.2974695      
0.195             677.3302604      
0.2               677.35902        
0.205             677.3843976      
0.21              677.4069237      
0.215             677.4270324      
0.22              677.4450814      
0.225             677.461366       
0.23              677.4761312      
0.235             677.4895812      
0.24              677.5018869      
0.245             677.5131916      
0.25              677.5236165      
0.255             677.533264       
0.26              677.5422213      
0.265             677.550563       
0.27              677.5583528      
0.275             677.5656459      
0.28              677.5724896      
0.285             677.5789254      
0.29              677.5849892      
0.295             677.5907124      
0.3               677.5961229      
0.305             677.601245       
0.31              677.6061005      
0.315             677.6107086      
0.32              677.6150866      
0.325             677.6192499      
0.33              677.6232125      
0.335             677.626987       
0.34              677.6305847      
0.345             677.6340162      
0.35              677.6372908      
0.355             677.6404175      
0.36              677.6434041      
0.365             677.6462583      
0.37              677.6489868      
0.375             677.6515959      
0.38              677.6540917      
0.385             677.6564797      
0.39              677.6587651      
0.395             677.6609527      
0.4               677.6630471      
0.405             677.6650526      
0.41              677.6669733      
0.415             677.6688132      
0.42              677.6705756      
0.425             677.6722641      
0.43              677.673882       
0.435             677.6754323      
0.44              677.6769179      
0.445             677.6783417      
0.45              677.6797064      
0.455             677.6810145      
0.46              677.6822683      
0.465             677.6834702      
0.47              677.6846223      
0.475             677.6857268      
0.48              677.6867856      
0.485             677.6878007      
0.49              677.688774       
0.495             677.689707       
0.5               677.6906016      
0.505             677.6914593      
0.51              677.6922817      
0.515             677.6930702      
0.52              677.6938263      
0.525             677.6945512      
0.53              677.6952464      
0.535             677.6959128      
0.54              677.6965519      
0.545             677.6971648      
0.55              677.6977525      
0.555             677.6983159      
0.56              677.6988562      
0.565             677.6993742      
0.57              677.6998711      
0.575             677.7003473      
0.58              677.7008041      
0.585             677.701242       
0.59              677.701662       
0.595             677.7020647      
0.6               677.7024508      
0.605             677.7028211      
0.61              677.7031761      
0.615             677.7035165      
0.62              677.703843       
0.625             677.704156       
0.63              677.7044562      
0.635             677.7047439      
0.64              677.7050199      
0.645             677.7052844      
0.65              677.7055381      
0.655             677.7057813      
0.66              677.7060146      
0.665             677.7062382      
0.67              677.7064526      
0.675             677.7066582      
0.68              677.7068553      
0.685             677.7070444      
0.69              677.7072256      
0.695             677.7073993      
0.7               677.707566       
0.705             677.7077257      
0.71              677.7078789      
0.715             677.7080257      
0.72              677.7081664      
0.725             677.7083014      
0.73              677.7084308      
0.735             677.7085548      
0.74              677.7086738      
0.745             677.7087878      
0.75              677.7088971      
0.755             677.7090018      
0.76              677.7091023      
0.765             677.7091987      
0.77              677.709291       
0.775             677.7093795      
0.78              677.7094643      
0.785             677.7095456      
0.79              677.7096236      
0.795             677.7096983      
0.8               677.70977        
0.805             677.7098386      
0.81              677.7099045      
0.815             677.7099676      
0.82              677.7100281      
0.825             677.7100861      
0.83              677.7101416      
0.835             677.7101949      
0.84              677.710246       
0.845             677.7102949      
0.85              677.7103418      
0.855             677.7103868      
0.86              677.7104299      
0.865             677.7104711      
0.87              677.7105108      
0.875             677.7105486      
0.88              677.710585       
0.885             677.7106198      
0.89              677.7106532      
0.895             677.710685       
0.9               677.7107157      
0.905             677.7107451      
0.91              677.7107731      
0.915             677.7108         
0.92              677.7108259      
0.925             677.7108506      
0.93              677.7108743      
0.935             677.7108969      
0.94              677.7109186      
0.945             677.7109395      
0.95              677.7109594      
0.955             677.7109786      
0.96              677.7109968      
0.965             677.7110144      
0.97              677.7110312      
0.975             677.7110473      
0.98              677.7110627      
0.985             677.7110775      
0.99              677.7110915      
0.995             677.711105       
1                 677.7111181      
