# Probe 0 (0 0 0)
# Time            0                
0                 0                
0.005             -1.001784307e-05 
0.01              -1.771110116e-05 
0.015             -2.362580134e-05 
0.02              -2.817476512e-05 
0.025             -3.167498494e-05 
0.03              -3.436979123e-05 
0.035             -3.644593215e-05 
0.04              -3.80467166e-05  
0.045             -3.928211789e-05 
0.05              -4.023653463e-05 
0.055             -4.097474859e-05 
0.06              -4.15464961e-05  
0.065             -4.198997437e-05 
0.07              -4.233453025e-05 
0.075             -4.260272158e-05 
0.08              -4.281189743e-05 
0.085             -4.297540949e-05 
0.09              -4.310354066e-05 
0.095             -4.320421702e-05 
0.1               -4.328355378e-05 
0.105             -4.33462739e-05  
0.11              -4.339602933e-05 
0.115             -4.343564753e-05 
0.12              -4.34673207e-05  
0.125             -4.349275117e-05 
0.13              -4.351326308e-05 
0.135             -4.352988833e-05 
0.14              -4.354343272e-05 
0.145             -4.355452678e-05 
0.15              -4.356366513e-05 
0.155             -4.357123667e-05 
0.16              -4.357754805e-05 
0.165             -4.358284172e-05 
0.17              -4.358730996e-05 
0.175             -4.359110573e-05 
0.18              -4.359435113e-05 
0.185             -4.359714396e-05 
0.19              -4.359956281e-05 
0.195             -4.360167111e-05 
0.2               -4.360352022e-05 
0.205             -4.360515189e-05 
0.21              -4.360660021e-05 
0.215             -4.36078931e-05  
0.22              -4.360905357e-05 
0.225             -4.361010058e-05 
0.23              -4.361104991e-05 
0.235             -4.361191468e-05 
0.24              -4.361270588e-05 
0.245             -4.361343272e-05 
0.25              -4.361410298e-05 
0.255             -4.361472327e-05 
0.26              -4.361529918e-05 
0.265             -4.361583551e-05 
0.27              -4.361633635e-05 
0.275             -4.361680526e-05 
0.28              -4.361724528e-05 
0.285             -4.361765907e-05 
0.29              -4.361804894e-05 
0.295             -4.361841691e-05 
0.3               -4.361876478e-05 
0.305             -4.361909411e-05 
0.31              -4.361940629e-05 
0.315             -4.361970257e-05 
0.32              -4.361998405e-05 
0.325             -4.362025173e-05 
0.33              -4.36205065e-05  
0.335             -4.362074918e-05 
0.34              -4.36209805e-05  
0.345             -4.362120113e-05 
0.35              -4.362141167e-05 
0.355             -4.36216127e-05  
0.36              -4.362180472e-05 
0.365             -4.362198823e-05 
0.37              -4.362216366e-05 
0.375             -4.362233141e-05 
0.38              -4.362249188e-05 
0.385             -4.362264542e-05 
0.39              -4.362279235e-05 
0.395             -4.362293301e-05 
0.4               -4.362306767e-05 
0.405             -4.362319661e-05 
0.41              -4.36233201e-05  
0.415             -4.36234384e-05  
0.42              -4.362355171e-05 
0.425             -4.362366028e-05 
0.43              -4.362376429e-05 
0.435             -4.362386397e-05 
0.44              -4.362395949e-05 
0.445             -4.362405103e-05 
0.45              -4.362413878e-05 
0.455             -4.362422288e-05 
0.46              -4.362430349e-05 
0.465             -4.362438077e-05 
0.47              -4.362445484e-05 
0.475             -4.362452586e-05 
0.48              -4.362459394e-05 
0.485             -4.36246592e-05  
0.49              -4.362472178e-05 
0.495             -4.362478177e-05 
0.5               -4.362483928e-05 
0.505             -4.362489443e-05 
0.51              -4.36249473e-05  
0.515             -4.3624998e-05   
0.52              -4.362504661e-05 
0.525             -4.362509322e-05 
0.53              -4.362513792e-05 
0.535             -4.362518077e-05 
0.54              -4.362522186e-05 
0.545             -4.362526126e-05 
0.55              -4.362529905e-05 
0.555             -4.362533527e-05 
0.56              -4.362537001e-05 
0.565             -4.362540332e-05 
0.57              -4.362543527e-05 
0.575             -4.362546588e-05 
0.58              -4.362549525e-05 
0.585             -4.362552341e-05 
0.59              -4.362555041e-05 
0.595             -4.36255763e-05  
0.6               -4.362560113e-05 
0.605             -4.362562493e-05 
0.61              -4.362564776e-05 
0.615             -4.362566965e-05 
0.62              -4.362569064e-05 
0.625             -4.362571076e-05 
0.63              -4.362573006e-05 
0.635             -4.362574856e-05 
0.64              -4.362576631e-05 
0.645             -4.362578332e-05 
0.65              -4.362579963e-05 
0.655             -4.362581527e-05 
0.66              -4.362583026e-05 
0.665             -4.362584464e-05 
0.67              -4.362585842e-05 
0.675             -4.362587164e-05 
0.68              -4.362588432e-05 
0.685             -4.362589647e-05 
0.69              -4.362590812e-05 
0.695             -4.36259193e-05  
0.7               -4.362593001e-05 
0.705             -4.362594028e-05 
0.71              -4.362595013e-05 
0.715             -4.362595957e-05 
0.72              -4.362596862e-05 
0.725             -4.362597729e-05 
0.73              -4.362598561e-05 
0.735             -4.362599359e-05 
0.74              -4.362600123e-05 
0.745             -4.362600857e-05 
0.75              -4.362601559e-05 
0.755             -4.362602233e-05 
0.76              -4.362602879e-05 
0.765             -4.362603499e-05 
0.77              -4.362604092e-05 
0.775             -4.362604661e-05 
0.78              -4.362605206e-05 
0.785             -4.362605729e-05 
0.79              -4.362606231e-05 
0.795             -4.362606711e-05 
0.8               -4.362607172e-05 
0.805             -4.362607613e-05 
0.81              -4.362608037e-05 
0.815             -4.362608442e-05 
0.82              -4.362608832e-05 
0.825             -4.362609204e-05 
0.83              -4.362609561e-05 
0.835             -4.362609904e-05 
0.84              -4.362610232e-05 
0.845             -4.362610547e-05 
0.85              -4.362610848e-05 
0.855             -4.362611138e-05 
0.86              -4.362611414e-05 
0.865             -4.36261168e-05  
0.87              -4.362611935e-05 
0.875             -4.362612178e-05 
0.88              -4.362612412e-05 
0.885             -4.362612636e-05 
0.89              -4.36261285e-05  
0.895             -4.362613055e-05 
0.9               -4.362613253e-05 
0.905             -4.362613441e-05 
0.91              -4.362613622e-05 
0.915             -4.362613795e-05 
0.92              -4.362613961e-05 
0.925             -4.36261412e-05  
0.93              -4.362614272e-05 
0.935             -4.362614418e-05 
0.94              -4.362614557e-05 
0.945             -4.362614691e-05 
0.95              -4.362614819e-05 
0.955             -4.362614942e-05 
0.96              -4.36261506e-05  
0.965             -4.362615173e-05 
0.97              -4.362615281e-05 
0.975             -4.362615384e-05 
0.98              -4.362615484e-05 
0.985             -4.362615578e-05 
0.99              -4.362615669e-05 
0.995             -4.362615756e-05 
1                 -4.36261584e-05  
