# Probe 0 (0 0 0)
# Time            0                
0                 100000           
0.005             103842.6918      
0.01              107183.1643      
0.015             110085.7229      
0.02              112606.3719      
0.025             114793.9167      
0.03              116690.9101      
0.035             118334.4668      
0.04              119756.9677      
0.045             120986.6697      
0.05              122048.2354      
0.055             122963.1926      
0.06              123750.3353      
0.065             124426.0714      
0.07              125004.7268      
0.075             125498.8097      
0.08              125919.2415      
0.085             126275.5578      
0.09              126576.0845      
0.095             126828.0907      
0.1               127037.9226      
0.105             127211.1202      
0.11              127352.5197      
0.115             127466.342       
0.12              127556.271       
0.125             127625.5212      
0.13              127676.8973      
0.135             127712.8458      
0.14              127735.5005      
0.145             127746.722       
0.15              127748.1322      
0.155             127741.1446      
0.16              127726.9907      
0.165             127706.7428      
0.17              127681.3346      
0.175             127651.5782      
0.18              127618.1802      
0.185             127581.7544      
0.19              127542.834       
0.195             127501.8818      
0.2               127459.299       
0.205             127415.4331      
0.21              127370.585       
0.215             127325.0142      
0.22              127278.9452      
0.225             127232.5709      
0.23              127186.0573      
0.235             127139.5468      
0.24              127093.1611      
0.245             127047.004       
0.25              127001.1638      
0.255             126955.7151      
0.26              126910.7205      
0.265             126866.2327      
0.27              126822.2951      
0.275             126778.9437      
0.28              126736.2074      
0.285             126694.1095      
0.29              126652.6682      
0.295             126611.8973      
0.3               126571.8069      
0.305             126532.4037      
0.31              126493.6919      
0.315             126455.6728      
0.32              126418.3461      
0.325             126381.7096      
0.33              126345.7595      
0.335             126310.4907      
0.34              126275.8973      
0.345             126241.9722      
0.35              126208.7077      
0.355             126176.0953      
0.36              126144.1264      
0.365             126112.7915      
0.37              126082.081       
0.375             126051.9851      
0.38              126022.4937      
0.385             125993.5965      
0.39              125965.2834      
0.395             125937.5439      
0.4               125910.3677      
0.405             125883.7445      
0.41              125857.6639      
0.415             125832.1158      
0.42              125807.0898      
0.425             125782.5761      
0.43              125758.5646      
0.435             125735.0455      
0.44              125712.009       
0.445             125689.4457      
0.45              125667.3461      
0.455             125645.7008      
0.46              125624.5008      
0.465             125603.737       
0.47              125583.4007      
0.475             125563.4832      
0.48              125543.9759      
0.485             125524.8704      
0.49              125506.1586      
0.495             125487.8325      
0.5               125469.884       
0.505             125452.3056      
0.51              125435.0894      
0.515             125418.2282      
0.52              125401.7146      
0.525             125385.5414      
0.53              125369.7017      
0.535             125354.1886      
0.54              125338.9953      
0.545             125324.1152      
0.55              125309.5418      
0.555             125295.2689      
0.56              125281.2903      
0.565             125267.5998      
0.57              125254.1914      
0.575             125241.0595      
0.58              125228.1982      
0.585             125215.602       
0.59              125203.2654      
0.595             125191.183       
0.6               125179.3495      
0.605             125167.76        
0.61              125156.4091      
0.615             125145.2922      
0.62              125134.4043      
0.625             125123.7406      
0.63              125113.2967      
0.635             125103.0678      
0.64              125093.0497      
0.645             125083.2378      
0.65              125073.628       
0.655             125064.2162      
0.66              125054.9981      
0.665             125045.9698      
0.67              125037.1274      
0.675             125028.4671      
0.68              125019.9851      
0.685             125011.6776      
0.69              125003.5412      
0.695             124995.5723      
0.7               124987.7673      
0.705             124980.123       
0.71              124972.6361      
0.715             124965.3032      
0.72              124958.1212      
0.725             124951.0871      
0.73              124944.1976      
0.735             124937.4499      
0.74              124930.8411      
0.745             124924.3682      
0.75              124918.0285      
0.755             124911.8192      
0.76              124905.7376      
0.765             124899.7811      
0.77              124893.9472      
0.775             124888.2333      
0.78              124882.6369      
0.785             124877.1555      
0.79              124871.787       
0.795             124866.5288      
0.8               124861.3788      
0.805             124856.3346      
0.81              124851.3942      
0.815             124846.5554      
0.82              124841.8161      
0.825             124837.1743      
0.83              124832.6278      
0.835             124828.1749      
0.84              124823.8135      
0.845             124819.5418      
0.85              124815.3579      
0.855             124811.26        
0.86              124807.2463      
0.865             124803.3152      
0.87              124799.4649      
0.875             124795.6937      
0.88              124792           
0.885             124788.3823      
0.89              124784.8389      
0.895             124781.3683      
0.9               124777.9691      
0.905             124774.6398      
0.91              124771.3788      
0.915             124768.1849      
0.92              124765.0566      
0.925             124761.9927      
0.93              124758.9916      
0.935             124756.0523      
0.94              124753.1734      
0.945             124750.3536      
0.95              124747.5917      
0.955             124744.8867      
0.96              124742.2372      
0.965             124739.6421      
0.97              124737.1004      
0.975             124734.6109      
0.98              124732.1725      
0.985             124729.7842      
0.99              124727.445       
0.995             124725.1539      
1                 124722.9099      
