/*--------------------------------*- C++ -*----------------------------------*\
  =========                 |
  \\      /  F ield         | OpenFOAM: The Open Source CFD Toolbox
   \\    /   O peration     | Website:  https://openfoam.org
    \\  /    A nd           | Version:  12
     \\/     M anipulation  |
\*---------------------------------------------------------------------------*/
FoamFile
{
    format      ascii;
    class       volVectorField;
    location    "700";
    object      U;
}
// * * * * * * * * * * * * * * * * * * * * * * * * * * * * * * * * * * * * * //

dimensions      [0 1 -1 0 0 0 0];

internalField   nonuniform List<vector> 
80
(
(0.00159846 0 0)
(0.00476798 0 0)
(0.00790431 0 0)
(0.0110008 0 0)
(0.0140516 0 0)
(0.0170513 0 0)
(0.0199953 0 0)
(0.0228799 0 0)
(0.0257019 0 0)
(0.0284593 0 0)
(0.0311505 0 0)
(0.033775 0 0)
(0.0363324 0 0)
(0.0388233 0 0)
(0.0412486 0 0)
(0.0436095 0 0)
(0.0459075 0 0)
(0.0481444 0 0)
(0.0503222 0 0)
(0.0524428 0 0)
(0.0545084 0 0)
(0.0565209 0 0)
(0.0584824 0 0)
(0.060395 0 0)
(0.0622603 0 0)
(0.0640801 0 0)
(0.0658558 0 0)
(0.0675886 0 0)
(0.0692795 0 0)
(0.070929 0 0)
(0.0725372 0 0)
(0.0741035 0 0)
(0.0756267 0 0)
(0.0771046 0 0)
(0.0785332 0 0)
(0.0799081 0 0)
(0.0812166 0 0)
(0.082458 0 0)
(0.0835657 0 0)
(0.0846376 0 0)
(0.0849561 0 0)
(0.0838497 0 0)
(0.0827819 0 0)
(0.081548 0 0)
(0.0802506 0 0)
(0.0788818 0 0)
(0.0774579 0 0)
(0.0759828 0 0)
(0.0744612 0 0)
(0.0728953 0 0)
(0.0712865 0 0)
(0.0696355 0 0)
(0.0679423 0 0)
(0.0662064 0 0)
(0.064427 0 0)
(0.0626028 0 0)
(0.0607324 0 0)
(0.0588142 0 0)
(0.0568463 0 0)
(0.0548268 0 0)
(0.0527536 0 0)
(0.0506246 0 0)
(0.0484378 0 0)
(0.046191 0 0)
(0.0438824 0 0)
(0.0415101 0 0)
(0.0390725 0 0)
(0.0365685 0 0)
(0.0339969 0 0)
(0.0313575 0 0)
(0.0286503 0 0)
(0.025876 0 0)
(0.0230361 0 0)
(0.0201329 0 0)
(0.0171692 0 0)
(0.0141492 0 0)
(0.0110774 0 0)
(0.00795936 0 0)
(0.00480113 0 0)
(0.00160952 0 0)
)
;

boundaryField
{
    lowerWall
    {
        type            noSlip;
    }
    upperWall
    {
        type            noSlip;
    }
    front
    {
        type            cyclic;
    }
    back
    {
        type            cyclic;
    }
    defaultFaces
    {
        type            empty;
    }
}


// ************************************************************************* //
