/*--------------------------------*- C++ -*----------------------------------*\
  =========                 |
  \\      /  F ield         | OpenFOAM: The Open Source CFD Toolbox
   \\    /   O peration     | Website:  https://openfoam.org
    \\  /    A nd           | Version:  12
     \\/     M anipulation  |
\*---------------------------------------------------------------------------*/
FoamFile
{
    format      ascii;
    class       volVectorField;
    location    "500";
    object      U;
}
// * * * * * * * * * * * * * * * * * * * * * * * * * * * * * * * * * * * * * //

dimensions      [0 1 -1 0 0 0 0];

internalField   nonuniform List<vector> 
80
(
(0.00346635 0 0)
(0.0102529 0 0)
(0.0167436 0 0)
(0.0227735 0 0)
(0.0282304 0 0)
(0.0330626 0 0)
(0.0372759 0 0)
(0.0409167 0 0)
(0.0440493 0 0)
(0.0467383 0 0)
(0.0490396 0 0)
(0.0509991 0 0)
(0.0526547 0 0)
(0.0540387 0 0)
(0.05518 0 0)
(0.0561067 0 0)
(0.0568418 0 0)
(0.0574137 0 0)
(0.0578339 0 0)
(0.0579704 0 0)
(0.0578784 0 0)
(0.0577592 0 0)
(0.0576637 0 0)
(0.057596 0 0)
(0.0575551 0 0)
(0.0575398 0 0)
(0.0575485 0 0)
(0.0575779 0 0)
(0.0576244 0 0)
(0.0576849 0 0)
(0.0577571 0 0)
(0.0578391 0 0)
(0.0579297 0 0)
(0.0580278 0 0)
(0.0581326 0 0)
(0.0582435 0 0)
(0.0583598 0 0)
(0.0584811 0 0)
(0.0586069 0 0)
(0.0587359 0 0)
(0.0588635 0 0)
(0.0589765 0 0)
(0.0590516 0 0)
(0.0590697 0 0)
(0.0590319 0 0)
(0.0589556 0 0)
(0.0588624 0 0)
(0.0587672 0 0)
(0.0586769 0 0)
(0.0585943 0 0)
(0.0585211 0 0)
(0.0584591 0 0)
(0.0584105 0 0)
(0.0583781 0 0)
(0.0583653 0 0)
(0.0583753 0 0)
(0.0584099 0 0)
(0.0584694 0 0)
(0.0585519 0 0)
(0.0586375 0 0)
(0.0586221 0 0)
(0.0583342 0 0)
(0.0578576 0 0)
(0.0572469 0 0)
(0.0564731 0 0)
(0.0555137 0 0)
(0.0543427 0 0)
(0.0529319 0 0)
(0.0512518 0 0)
(0.0492694 0 0)
(0.0469463 0 0)
(0.0442359 0 0)
(0.0410817 0 0)
(0.037419 0 0)
(0.0331832 0 0)
(0.028328 0 0)
(0.0228484 0 0)
(0.0167963 0 0)
(0.0102842 0 0)
(0.00347668 0 0)
)
;

boundaryField
{
    lowerWall
    {
        type            noSlip;
    }
    upperWall
    {
        type            noSlip;
    }
    front
    {
        type            cyclic;
    }
    back
    {
        type            cyclic;
    }
    defaultFaces
    {
        type            empty;
    }
}


// ************************************************************************* //
