# Selection :     patch(inlet)
# Faces  :        1
# Area   :        1.0000000000e-01
# Time            	areaAverage(k)
1                 	2.7934783400e-01
