/*--------------------------------*- C++ -*----------------------------------*\
  =========                 |
  \\      /  F ield         | OpenFOAM: The Open Source CFD Toolbox
   \\    /   O peration     | Website:  https://openfoam.org
    \\  /    A nd           | Version:  12
     \\/     M anipulation  |
\*---------------------------------------------------------------------------*/
FoamFile
{
    format      ascii;
    class       volScalarField;
    location    "10";
    object      p;
}
// * * * * * * * * * * * * * * * * * * * * * * * * * * * * * * * * * * * * * //

dimensions      [0 2 -2 0 0 0 0];

internalField   nonuniform List<scalar> 
400
(
8.48862e-08
-0.000134592
-0.000291313
-0.000193583
-0.00113737
-0.00320308
-0.00559756
-0.00776812
-0.00951154
-0.0107017
-0.0112824
-0.0111789
-0.0103432
-0.00864201
-0.0059898
-0.00236423
0.00208966
0.00673286
0.010039
0.0113038
2.76759e-05
-8.35507e-05
-0.000271825
-0.000980409
-0.00246478
-0.00459447
-0.00677957
-0.00883668
-0.010453
-0.0115627
-0.0121026
-0.0120515
-0.0113391
-0.00988159
-0.00759654
-0.00444997
-0.000461557
0.00399398
0.00776551
0.00987285
0.000378734
-0.000132817
-0.0010287
-0.00255203
-0.00464053
-0.00685251
-0.00898092
-0.0108568
-0.0122169
-0.0130857
-0.0134489
-0.0133064
-0.0126235
-0.011388
-0.00954348
-0.00706282
-0.00387658
-1.91003e-05
0.00372988
0.00625247
0.000193352
-0.000698876
-0.00235977
-0.00465787
-0.00713324
-0.00939864
-0.0112711
-0.0126697
-0.013661
-0.014266
-0.0144879
-0.0143338
-0.0137651
-0.0127548
-0.0112756
-0.00933342
-0.00690494
-0.00383703
-0.000584669
0.00179348
-0.000841299
-0.00203295
-0.0042584
-0.00695204
-0.0094476
-0.0114752
-0.0130057
-0.0140861
-0.0148179
-0.0152492
-0.0153972
-0.0152533
-0.0147897
-0.013982
-0.0127983
-0.0112443
-0.00939833
-0.00704022
-0.00458545
-0.00243245
-0.00270645
-0.00400955
-0.00639889
-0.00905745
-0.0113234
-0.0130276
-0.0142492
-0.0151084
-0.0156713
-0.0159857
-0.0160795
-0.0159519
-0.0155882
-0.0149592
-0.0140458
-0.0128025
-0.0113878
-0.00959996
-0.00780566
-0.00601164
-0.00487115
-0.00612747
-0.00837023
-0.0108023
-0.0127555
-0.0141347
-0.0151226
-0.0158221
-0.0162742
-0.0165189
-0.0165864
-0.0164794
-0.0161926
-0.015698
-0.015001
-0.014011
-0.0129255
-0.0115586
-0.0102802
-0.00882531
-0.00682839
-0.00795665
-0.00994395
-0.0121141
-0.0137675
-0.0148887
-0.0157194
-0.01631
-0.0166901
-0.0168918
-0.0169461
-0.0168573
-0.016631
-0.0162346
-0.0156965
-0.0148869
-0.0140627
-0.0129651
-0.0120706
-0.0109207
-0.00825283
-0.00926408
-0.0110239
-0.0129708
-0.0144048
-0.0153646
-0.0160956
-0.0166176
-0.0169558
-0.0171344
-0.0171819
-0.0171059
-0.0169204
-0.016586
-0.0161628
-0.0154505
-0.0148565
-0.0138561
-0.0133112
-0.0123545
-0.00905818
-0.00996133
-0.0115725
-0.0133823
-0.0146955
-0.0155855
-0.0162728
-0.0167667
-0.0170929
-0.0172669
-0.0173205
-0.017249
-0.0170837
-0.0167717
-0.0164188
-0.0157161
-0.0153337
-0.0142569
-0.0140636
-0.0131729
-0.00920576
-0.0100536
-0.0115937
-0.0133625
-0.0146657
-0.0155727
-0.0162638
-0.0167633
-0.0171006
-0.0172823
-0.0173408
-0.0172719
-0.0171082
-0.0167934
-0.0164509
-0.0157244
-0.0154611
-0.0142045
-0.0143716
-0.0133499
-0.00872502
-0.00957889
-0.0111149
-0.0129391
-0.0143266
-0.015319
-0.0160569
-0.0165943
-0.0169645
-0.0171712
-0.0172409
-0.0171706
-0.0169832
-0.016651
-0.016236
-0.0155149
-0.0151373
-0.0137636
-0.0141546
-0.0128724
-0.00773267
-0.00865774
-0.0102307
-0.0121226
-0.0136734
-0.0148045
-0.0156365
-0.0162458
-0.0166731
-0.0169189
-0.0170017
-0.0169182
-0.016688
-0.0163011
-0.0157769
-0.015022
-0.0143832
-0.0129449
-0.0133729
-0.0117282
-0.00654764
-0.00749939
-0.00905921
-0.0109074
-0.01266
-0.0139869
-0.0149698
-0.0156919
-0.016202
-0.0165003
-0.0166001
-0.0165001
-0.0162141
-0.0157377
-0.0150763
-0.0141981
-0.0132297
-0.0117207
-0.012019
-0.00995261
-0.00543256
-0.00632016
-0.00772863
-0.0093962
-0.0112162
-0.0127814
-0.0140079
-0.0149102
-0.0155428
-0.015916
-0.0160422
-0.015922
-0.0155636
-0.0149618
-0.014119
-0.0130216
-0.0117113
-0.0100843
-0.0101626
-0.00760369
-0.00490409
-0.00537792
-0.00629541
-0.00761918
-0.0093548
-0.0111349
-0.0126638
-0.0138375
-0.0146667
-0.0151611
-0.0153351
-0.0151957
-0.0147487
-0.0139884
-0.0129169
-0.0115328
-0.00989835
-0.00808511
-0.00785307
-0.00472182
-0.00494614
-0.00483695
-0.00484905
-0.00562979
-0.00718226
-0.00907605
-0.0109024
-0.0123942
-0.0134886
-0.0141764
-0.0144622
-0.0143406
-0.0138098
-0.0128773
-0.0115517
-0.00984367
-0.00785611
-0.00582901
-0.0051527
-0.00118719
-0.00486219
-0.00420276
-0.00332891
-0.00357073
-0.00492504
-0.00686198
-0.00889977
-0.0106577
-0.0120143
-0.0129076
-0.0133244
-0.0132529
-0.0127017
-0.0116507
-0.0101196
-0.00812563
-0.00583301
-0.00341869
-0.00167328
0.00442405
-0.00417917
-0.00319447
-0.00194178
-0.0019451
-0.00312989
-0.00506858
-0.00723437
-0.00923324
-0.0108177
-0.0119112
-0.0124643
-0.0124787
-0.0119345
-0.0108327
-0.00918017
-0.00696909
-0.00419349
-0.000673294
0.00474857
0.0176143
-0.00542995
-0.0021869
-0.000822972
-0.000895506
-0.00195815
-0.00385365
-0.00609734
-0.00829415
-0.0100813
-0.0113352
-0.0120033
-0.0120955
-0.0116134
-0.0105737
-0.00894301
-0.00657037
-0.0025325
0.00493943
0.0193144
0.0423652
)
;

boundaryField
{
    movingWall
    {
        type            zeroGradient;
    }
    fixedWalls
    {
        type            zeroGradient;
    }
    frontAndBack
    {
        type            empty;
    }
}


// ************************************************************************* //
