/*--------------------------------*- C++ -*----------------------------------*\
  =========                 |
  \\      /  F ield         | OpenFOAM: The Open Source CFD Toolbox
   \\    /   O peration     | Website:  https://openfoam.org
    \\  /    A nd           | Version:  12
     \\/     M anipulation  |
\*---------------------------------------------------------------------------*/
FoamFile
{
    format      ascii;
    class       surfaceScalarField;
    location    "10";
    object      phi;
}
// * * * * * * * * * * * * * * * * * * * * * * * * * * * * * * * * * * * * * //

dimensions      [0 3 -1 0 0 0 0];

internalField   nonuniform List<scalar> 
760
(
3.19635e-07
-3.19643e-07
1.65276e-07
1.54358e-07
-6.85034e-07
8.5031e-07
-2.38626e-06
1.70122e-06
-4.25478e-06
1.86853e-06
-5.80264e-06
1.54786e-06
-7.102e-06
1.29935e-06
-8.01714e-06
9.15141e-07
-8.73231e-06
7.15173e-07
-9.16977e-06
4.37455e-07
-9.45282e-06
2.83052e-07
-9.4943e-06
4.14815e-08
-9.37357e-06
-1.20732e-07
-9.03319e-06
-3.40378e-07
-8.45173e-06
-5.81466e-07
-7.50274e-06
-9.48984e-07
-6.09389e-06
-1.40885e-06
-4.08898e-06
-2.00491e-06
-1.67222e-06
-2.41675e-06
-1.67222e-06
-3.4937e-07
2.97269e-08
-1.4591e-06
1.26409e-06
-3.25503e-06
2.64624e-06
-4.93676e-06
3.38295e-06
-6.15239e-06
3.08415e-06
-7.27113e-06
2.6666e-06
-8.06497e-06
2.0932e-06
-8.74879e-06
1.59896e-06
-9.17324e-06
1.13962e-06
-9.44218e-06
7.06395e-07
-9.4953e-06
3.36174e-07
-9.40763e-06
-4.61919e-08
-9.18074e-06
-3.4762e-07
-8.80372e-06
-7.17402e-07
-8.2287e-06
-1.15648e-06
-7.43611e-06
-1.74158e-06
-6.28641e-06
-2.55855e-06
-4.65066e-06
-3.64067e-06
-2.40757e-06
-4.65984e-06
-4.07979e-06
-1.15888e-06
1.1886e-06
-2.82608e-06
2.93129e-06
-4.35093e-06
4.17109e-06
-5.47814e-06
4.51016e-06
-6.34316e-06
3.94917e-06
-6.99868e-06
3.32211e-06
-7.36852e-06
2.46304e-06
-7.58467e-06
1.81511e-06
-7.57474e-06
1.12969e-06
-7.53131e-06
6.62974e-07
-7.41132e-06
2.16177e-07
-7.30377e-06
-1.53741e-07
-7.06004e-06
-5.91354e-07
-6.75191e-06
-1.02553e-06
-6.28062e-06
-1.62776e-06
-5.71156e-06
-2.31065e-06
-4.97327e-06
-3.29683e-06
-3.94317e-06
-4.67077e-06
-2.32027e-06
-6.28274e-06
-6.40007e-06
-1.46888e-06
2.65749e-06
-3.07841e-06
4.54081e-06
-4.3201e-06
5.41279e-06
-5.08386e-06
5.27392e-06
-5.55051e-06
4.41583e-06
-5.72211e-06
3.49372e-06
-5.73784e-06
2.47876e-06
-5.72095e-06
1.79822e-06
-5.71266e-06
1.1214e-06
-5.70141e-06
6.51725e-07
-5.62174e-06
1.36501e-07
-5.51136e-06
-2.6412e-07
-5.33794e-06
-7.64769e-07
-5.09088e-06
-1.27259e-06
-4.73333e-06
-1.98532e-06
-4.21518e-06
-2.8288e-06
-3.61978e-06
-3.89223e-06
-2.90399e-06
-5.38656e-06
-1.81588e-06
-7.37084e-06
-8.21595e-06
-1.46102e-06
4.1185e-06
-2.77668e-06
5.85648e-06
-3.64546e-06
6.28157e-06
-4.12525e-06
5.75371e-06
-4.29761e-06
4.58819e-06
-4.3035e-06
3.49961e-06
-4.30642e-06
2.48168e-06
-4.29818e-06
1.78998e-06
-4.27523e-06
1.09845e-06
-4.24098e-06
6.17478e-07
-4.19196e-06
8.74756e-08
-4.10704e-06
-3.49033e-07
-3.96911e-06
-9.02708e-07
-3.77479e-06
-1.46691e-06
-3.53425e-06
-2.22586e-06
-3.16974e-06
-3.1933e-06
-2.71565e-06
-4.34633e-06
-2.22996e-06
-5.87225e-06
-1.41701e-06
-8.1838e-06
-9.63296e-06
-1.19683e-06
5.31533e-06
-2.14763e-06
6.80728e-06
-2.77548e-06
6.90942e-06
-3.07785e-06
6.05607e-06
-3.15557e-06
4.66592e-06
-3.131e-06
3.47504e-06
-3.13623e-06
2.48691e-06
-3.12305e-06
1.7768e-06
-3.10743e-06
1.08282e-06
-3.07526e-06
5.85311e-07
-3.03364e-06
4.58577e-08
-2.96817e-06
-4.14507e-07
-2.87713e-06
-9.93753e-07
-2.71962e-06
-1.62442e-06
-2.5109e-06
-2.43458e-06
-2.24277e-06
-3.46143e-06
-1.88849e-06
-4.7006e-06
-1.49636e-06
-6.26438e-06
-1.08535e-06
-8.59481e-06
-1.07183e-05
-8.5806e-07
6.17339e-06
-1.52075e-06
7.46997e-06
-1.95702e-06
7.34569e-06
-2.12984e-06
6.22889e-06
-2.18059e-06
4.71667e-06
-2.17991e-06
3.47435e-06
-2.19601e-06
2.50301e-06
-2.19208e-06
1.77287e-06
-2.19155e-06
1.08229e-06
-2.16761e-06
5.61376e-07
-2.14224e-06
2.04869e-08
-2.09454e-06
-4.62212e-07
-2.0505e-06
-1.03779e-06
-1.95648e-06
-1.71844e-06
-1.81145e-06
-2.5796e-06
-1.61992e-06
-3.65296e-06
-1.35874e-06
-4.96178e-06
-1.07545e-06
-6.54767e-06
-7.93743e-07
-8.87651e-06
-1.15121e-05
-5.03499e-07
6.67689e-06
-9.29484e-07
7.89595e-06
-1.21199e-06
7.6282e-06
-1.34419e-06
6.36109e-06
-1.38227e-06
4.75475e-06
-1.39631e-06
3.48839e-06
-1.4272e-06
2.5339e-06
-1.44084e-06
1.78651e-06
-1.4565e-06
1.09795e-06
-1.44464e-06
5.49518e-07
-1.4296e-06
5.44356e-09
-1.38478e-06
-5.07024e-07
-1.34255e-06
-1.08003e-06
-1.28082e-06
-1.78017e-06
-1.17881e-06
-2.68161e-06
-1.05491e-06
-3.77686e-06
-8.7344e-07
-5.14325e-06
-6.8278e-07
-6.73833e-06
-5.89719e-07
-8.96957e-06
-1.21018e-05
-2.16247e-07
6.89314e-06
-4.33302e-07
8.11301e-06
-5.80561e-07
7.77546e-06
-6.73453e-07
6.45398e-06
-7.08691e-07
4.78999e-06
-7.37042e-07
3.51674e-06
-7.84937e-07
2.58179e-06
-8.23869e-07
1.82544e-06
-8.61581e-07
1.13566e-06
-8.71867e-07
5.59805e-07
-8.71081e-07
4.65822e-09
-8.53864e-07
-5.24242e-07
-8.21993e-07
-1.1119e-06
-7.8426e-07
-1.8179e-06
-7.27524e-07
-2.73834e-06
-6.51136e-07
-3.85325e-06
-5.73699e-07
-5.22069e-06
-4.76607e-07
-6.83542e-06
-4.1986e-07
-9.02632e-06
-1.25216e-05
8.03579e-08
6.81278e-06
2.84154e-08
8.16495e-06
-2.77113e-08
7.83158e-06
-4.89232e-08
6.47519e-06
-9.63446e-08
4.83741e-06
-1.56755e-07
3.57715e-06
-2.13198e-07
2.63824e-06
-2.62525e-07
1.87477e-06
-3.06826e-07
1.17996e-06
-3.27751e-07
5.80729e-07
-3.46878e-07
2.37861e-08
-3.50233e-07
-5.20887e-07
-3.25536e-07
-1.1366e-06
-3.12429e-07
-1.83101e-06
-2.71863e-07
-2.77891e-06
-2.71297e-07
-3.85382e-06
-2.3179e-07
-5.26019e-06
-2.33139e-07
-6.83407e-06
-3.20455e-07
-8.939e-06
-1.28421e-05
3.48068e-07
6.46472e-06
5.02377e-07
8.01064e-06
5.81185e-07
7.75277e-06
5.13902e-07
6.54248e-06
4.50849e-07
4.90047e-06
3.96794e-07
3.63121e-06
3.46899e-07
2.68813e-06
2.96487e-07
1.92518e-06
2.43489e-07
1.23296e-06
1.98353e-07
6.25865e-07
1.69211e-07
5.29275e-08
1.43672e-07
-4.95347e-07
1.38141e-07
-1.13106e-06
1.09213e-07
-1.80208e-06
1.18342e-07
-2.78804e-06
-1.97838e-09
-3.7335e-06
4.55869e-08
-5.30776e-06
-1.06841e-07
-6.68165e-06
-2.13246e-07
-8.8326e-06
-1.30553e-05
6.01361e-07
5.86335e-06
9.65584e-07
7.64642e-06
1.16532e-06
7.55303e-06
1.10858e-06
6.59922e-06
1.03267e-06
4.97638e-06
9.67045e-07
3.69684e-06
9.20836e-07
2.73434e-06
8.77859e-07
1.96816e-06
8.24644e-07
1.28618e-06
7.73935e-07
6.76575e-07
7.29242e-07
9.76201e-08
6.96943e-07
-4.63048e-07
6.4733e-07
-1.08145e-06
6.19564e-07
-1.77431e-06
5.25658e-07
-2.69413e-06
4.40893e-07
-3.64873e-06
3.11235e-07
-5.1781e-06
6.29526e-08
-6.43336e-06
-1.25549e-07
-8.6441e-06
-1.31809e-05
8.81751e-07
4.9816e-06
1.39257e-06
7.1356e-06
1.72701e-06
7.2186e-06
1.77662e-06
6.54961e-06
1.67409e-06
5.07891e-06
1.60431e-06
3.76662e-06
1.56721e-06
2.77144e-06
1.53872e-06
1.99665e-06
1.49723e-06
1.32766e-06
1.44566e-06
7.28151e-07
1.37853e-06
1.64746e-07
1.31308e-06
-3.97594e-07
1.22214e-06
-9.90519e-07
1.13754e-06
-1.68971e-06
9.70156e-07
-2.52674e-06
8.31961e-07
-3.51054e-06
5.68696e-07
-4.91484e-06
2.46346e-07
-6.11101e-06
1.89558e-08
-8.41671e-06
-1.31619e-05
1.13375e-06
3.84785e-06
1.86055e-06
6.4088e-06
2.29407e-06
6.78508e-06
2.48291e-06
6.36077e-06
2.40391e-06
5.15791e-06
2.33167e-06
3.83886e-06
2.2954e-06
2.8077e-06
2.27764e-06
2.01442e-06
2.24893e-06
1.35637e-06
2.20306e-06
7.74021e-07
2.12773e-06
2.40074e-07
2.03452e-06
-3.04378e-07
1.91167e-06
-8.67673e-07
1.76501e-06
-1.54305e-06
1.55238e-06
-2.31411e-06
1.34761e-06
-3.30577e-06
9.69838e-07
-4.53707e-06
5.27437e-07
-5.66861e-06
1.36418e-07
-8.02569e-06
-1.30255e-05
1.35826e-06
2.48959e-06
2.19102e-06
5.57605e-06
2.77067e-06
6.20542e-06
3.17366e-06
5.95778e-06
3.27449e-06
5.05708e-06
3.24235e-06
3.87099e-06
3.19334e-06
2.85672e-06
3.16765e-06
2.0401e-06
3.13488e-06
1.38915e-06
3.0872e-06
8.21695e-07
3.00477e-06
3.22504e-07
2.89246e-06
-1.92063e-07
2.73016e-06
-7.05377e-07
2.52526e-06
-1.33815e-06
2.25771e-06
-2.04656e-06
1.93142e-06
-2.97947e-06
1.3991e-06
-4.00475e-06
7.6687e-07
-5.03638e-06
2.97859e-07
-7.55668e-06
-1.27276e-05
1.42183e-06
1.06775e-06
2.38184e-06
4.61604e-06
3.10223e-06
5.48504e-06
3.75041e-06
5.30959e-06
4.12352e-06
4.68397e-06
4.26022e-06
3.73429e-06
4.29629e-06
2.82065e-06
4.29771e-06
2.03868e-06
4.26195e-06
1.42491e-06
4.20127e-06
8.82378e-07
4.10511e-06
4.18664e-07
3.97384e-06
-6.07903e-08
3.76877e-06
-5.00309e-07
3.50517e-06
-1.07455e-06
3.14892e-06
-1.69031e-06
2.66404e-06
-2.49459e-06
1.98205e-06
-3.32276e-06
1.16569e-06
-4.22003e-06
5.4529e-07
-6.93627e-06
-1.21824e-05
8.78191e-07
1.89563e-07
2.04512e-06
3.44912e-06
3.16188e-06
4.36827e-06
4.09294e-06
4.37854e-06
4.78943e-06
3.98749e-06
5.22679e-06
3.29693e-06
5.47029e-06
2.57716e-06
5.59363e-06
1.91533e-06
5.63608e-06
1.38246e-06
5.6225e-06
8.95961e-07
5.52909e-06
5.12078e-07
5.34547e-06
1.22824e-07
5.09483e-06
-2.49666e-07
4.74202e-06
-7.21742e-07
4.23233e-06
-1.18062e-06
3.53332e-06
-1.79558e-06
2.58819e-06
-2.37763e-06
1.54719e-06
-3.17903e-06
8.71162e-07
-6.26024e-06
-1.13112e-05
-1.78679e-07
3.68242e-07
1.28095e-06
1.98948e-06
2.69435e-06
2.95487e-06
3.95895e-06
3.11394e-06
5.00437e-06
2.94206e-06
5.80419e-06
2.49711e-06
6.35065e-06
2.03069e-06
6.73197e-06
1.53401e-06
6.92666e-06
1.18776e-06
7.01025e-06
8.12371e-07
6.94267e-06
5.79665e-07
6.8063e-06
2.59191e-07
6.48069e-06
7.59435e-08
6.03295e-06
-2.74e-07
5.34787e-06
-4.95538e-07
4.48676e-06
-9.34468e-07
3.26408e-06
-1.15496e-06
2.21735e-06
-2.1323e-06
1.43459e-06
-5.47747e-06
-9.87661e-06
-1.20025e-06
1.56849e-06
-1.3341e-07
9.22643e-07
1.5003e-06
1.32116e-06
3.10152e-06
1.51273e-06
4.50147e-06
1.54211e-06
5.6293e-06
1.36928e-06
6.46759e-06
1.19241e-06
7.05517e-06
9.46426e-07
7.44705e-06
7.95884e-07
7.64094e-06
6.18479e-07
7.70061e-06
5.19988e-07
7.58319e-06
3.76618e-07
7.33978e-06
3.1935e-07
6.89042e-06
1.75356e-07
6.2921e-06
1.02788e-07
5.45506e-06
-9.74266e-08
4.58989e-06
-2.89789e-07
3.87646e-06
-1.41887e-06
2.64125e-06
-4.24226e-06
-7.23536e-06
1.56849e-06
2.49113e-06
3.81229e-06
5.32502e-06
6.86714e-06
8.23642e-06
9.42882e-06
1.03752e-05
1.11711e-05
1.17896e-05
1.23096e-05
1.26862e-05
1.30056e-05
1.31809e-05
1.32837e-05
1.31863e-05
1.28965e-05
1.14776e-05
7.23536e-06
)
;

boundaryField
{
    movingWall
    {
        type            calculated;
        value           uniform 0;
    }
    fixedWalls
    {
        type            calculated;
        value           uniform 0;
    }
    frontAndBack
    {
        type            empty;
    }
}


// ************************************************************************* //
