/*--------------------------------*- C++ -*----------------------------------*\
  =========                 |
  \\      /  F ield         | OpenFOAM: The Open Source CFD Toolbox
   \\    /   O peration     | Website:  https://openfoam.org
    \\  /    A nd           | Version:  12
     \\/     M anipulation  |
\*---------------------------------------------------------------------------*/
FoamFile
{
    format      ascii;
    class       volVectorField;
    location    "10";
    object      U;
}
// * * * * * * * * * * * * * * * * * * * * * * * * * * * * * * * * * * * * * //

dimensions      [0 1 -1 0 0 0 0];

internalField   nonuniform List<vector> 
400
(
(0.00325989 -0.00513758 0)
(0.00878125 -0.00232753 0)
(-0.00307279 0.00386208 0)
(-0.0202915 0.0149486 0)
(-0.0735664 0.0222543 0)
(-0.104016 0.0156784 0)
(-0.135032 0.0155866 0)
(-0.15317 0.0112886 0)
(-0.170653 0.0100357 0)
(-0.18 0.00672369 0)
(-0.187885 0.00561521 0)
(-0.191083 0.00293816 0)
(-0.191529 0.000768426 0)
(-0.185886 -0.00203551 0)
(-0.176166 -0.00533386 0)
(-0.1583 -0.0100064 0)
(-0.133513 -0.0155579 0)
(-0.0980495 -0.02127 0)
(-0.0587802 -0.0211475 0)
(-0.0128596 -0.00467637 0)
(-0.0020698 -0.00892065 0)
(-0.0122927 0.00915382 0)
(-0.0428014 0.0335846 0)
(-0.0839722 0.0531345 0)
(-0.116311 0.0485832 0)
(-0.137349 0.0424824 0)
(-0.156641 0.0346603 0)
(-0.169973 0.0240661 0)
(-0.181275 0.0174284 0)
(-0.187145 0.00961494 0)
(-0.19138 0.00457863 0)
(-0.190819 -0.00189564 0)
(-0.188384 -0.00688229 0)
(-0.181628 -0.0140913 0)
(-0.171878 -0.0216575 0)
(-0.156189 -0.0332191 0)
(-0.134991 -0.0473839 0)
(-0.105682 -0.0661083 0)
(-0.0716181 -0.080043 0)
(-0.0205138 -0.0575198 0)
(-0.0108399 0.0108198 0)
(-0.0369919 0.0444221 0)
(-0.0727689 0.0695351 0)
(-0.103028 0.078638 0)
(-0.122201 0.0695653 0)
(-0.135389 0.059204 0)
(-0.146949 0.0440399 0)
(-0.151044 0.0345186 0)
(-0.151793 0.0234721 0)
(-0.151533 0.0150764 0)
(-0.149948 0.00657456 0)
(-0.147997 -0.000694953 0)
(-0.145068 -0.00869993 0)
(-0.139343 -0.0169092 0)
(-0.131878 -0.0280063 0)
(-0.121291 -0.0416742 0)
(-0.105838 -0.0625101 0)
(-0.0850488 -0.089189 0)
(-0.0638932 -0.117388 0)
(-0.0215829 -0.115384 0)
(-0.0140204 0.0392303 0)
(-0.0463386 0.0761267 0)
(-0.0789607 0.0969344 0)
(-0.0993435 0.096863 0)
(-0.10952 0.0827149 0)
(-0.115897 0.0674822 0)
(-0.114815 0.0499316 0)
(-0.113012 0.035906 0)
(-0.114727 0.0222694 0)
(-0.113731 0.0126801 0)
(-0.114025 0.00290894 0)
(-0.112175 -0.004872 0)
(-0.109562 -0.0144674 0)
(-0.105281 -0.023962 0)
(-0.0983959 -0.0369099 0)
(-0.0917527 -0.0513474 0)
(-0.0797682 -0.0720259 0)
(-0.0598967 -0.103119 0)
(-0.0494793 -0.140589 0)
(-0.0167214 -0.150184 0)
(-0.0135928 0.0664894 0)
(-0.0466665 0.10314 0)
(-0.0691688 0.114884 0)
(-0.0828056 0.108497 0)
(-0.0862817 0.0897217 0)
(-0.0865746 0.0709292 0)
(-0.0840787 0.0505445 0)
(-0.0858828 0.0364563 0)
(-0.0847205 0.022337 0)
(-0.0856095 0.012696 0)
(-0.0842085 0.00205381 0)
(-0.0843435 -0.00642325 0)
(-0.0809512 -0.0172985 0)
(-0.0790987 -0.0284392 0)
(-0.0720823 -0.0438564 0)
(-0.0674532 -0.0616048 0)
(-0.0625434 -0.0827727 0)
(-0.0417607 -0.113459 0)
(-0.0438901 -0.159605 0)
(-0.006189 -0.18349 0)
(-0.0117097 0.0925801 0)
(-0.0381104 0.125255 0)
(-0.0530015 0.130873 0)
(-0.0634661 0.118074 0)
(-0.0624167 0.0942334 0)
(-0.0618947 0.0710889 0)
(-0.061026 0.0509446 0)
(-0.062958 0.0367656 0)
(-0.0609361 0.0226137 0)
(-0.0625478 0.0126771 0)
(-0.0602782 0.00173595 0)
(-0.0613886 -0.00700542 0)
(-0.0581997 -0.0182087 0)
(-0.0576826 -0.0299607 0)
(-0.052442 -0.045802 0)
(-0.0455651 -0.0660626 0)
(-0.0467757 -0.0895993 0)
(-0.025324 -0.120084 0)
(-0.0343203 -0.167102 0)
(-0.00330222 -0.20395 0)
(-0.00901431 0.114099 0)
(-0.027218 0.141337 0)
(-0.0382042 0.141338 0)
(-0.0448826 0.122281 0)
(-0.0419739 0.0937271 0)
(-0.0427033 0.0700781 0)
(-0.04271 0.0503722 0)
(-0.0442738 0.0357898 0)
(-0.0426262 0.0217339 0)
(-0.0442583 0.0113722 0)
(-0.0421776 0.00025792 0)
(-0.0434012 -0.0091889 0)
(-0.0410518 -0.0208937 0)
(-0.0407189 -0.0341029 0)
(-0.0392094 -0.0505813 0)
(-0.0308706 -0.0716709 0)
(-0.0361098 -0.096817 0)
(-0.0152717 -0.128812 0)
(-0.0298284 -0.175449 0)
(0.00286312 -0.223679 0)
(-0.00521986 0.128137 0)
(-0.0164269 0.153244 0)
(-0.0240915 0.149826 0)
(-0.0283087 0.126565 0)
(-0.0255591 0.0965099 0)
(-0.0273469 0.0706589 0)
(-0.0275758 0.0509565 0)
(-0.0290027 0.0360005 0)
(-0.0280106 0.022225 0)
(-0.0295306 0.0115655 0)
(-0.0279677 0.000655587 0)
(-0.0288287 -0.00894053 0)
(-0.027248 -0.0201975 0)
(-0.025742 -0.0340846 0)
(-0.0271496 -0.0516104 0)
(-0.0177413 -0.0735457 0)
(-0.0266181 -0.0997976 0)
(-0.00556777 -0.131541 0)
(-0.0239817 -0.177467 0)
(0.00419259 -0.235371 0)
(-0.00198335 0.136917 0)
(-0.00768087 0.160361 0)
(-0.0117681 0.154078 0)
(-0.0142078 0.128121 0)
(-0.0120436 0.0946107 0)
(-0.014554 0.0693766 0)
(-0.0147287 0.050802 0)
(-0.0163411 0.0358757 0)
(-0.0161651 0.0221428 0)
(-0.0177156 0.0107918 0)
(-0.0168625 -0.000385709 0)
(-0.0175408 -0.0109207 0)
(-0.0172669 -0.0224332 0)
(-0.0147355 -0.0364818 0)
(-0.0182939 -0.0548697 0)
(-0.00849584 -0.0767725 0)
(-0.0200561 -0.104703 0)
(0.000161624 -0.136678 0)
(-0.0218523 -0.180482 0)
(0.00820724 -0.247481 0)
(0.00187602 0.138231 0)
(0.000823273 0.164342 0)
(-0.000224865 0.157227 0)
(-0.00149413 0.12993 0)
(-0.000207918 0.0977021 0)
(-0.00301874 0.0718126 0)
(-0.00325792 0.0527148 0)
(-0.00502518 0.0372921 0)
(-0.0052534 0.0232885 0)
(-0.00661648 0.0114916 0)
(-0.00657709 0.000530134 0)
(-0.00686773 -0.0102796 0)
(-0.00768309 -0.0222164 0)
(-0.00456052 -0.0359257 0)
(-0.00927709 -0.0550174 0)
(0.000263825 -0.0760144 0)
(-0.0134152 -0.105222 0)
(0.00680864 -0.135218 0)
(-0.0187624 -0.180153 0)
(0.0089651 -0.25391 0)
(0.00531173 0.134852 0)
(0.00779326 0.163667 0)
(0.0102843 0.156664 0)
(0.0102681 0.130127 0)
(0.0110753 0.0958837 0)
(0.0081651 0.0707488 0)
(0.00794883 0.0524162 0)
(0.00625102 0.0373681 0)
(0.00574375 0.023607 0)
(0.00436786 0.0115875 0)
(0.00352402 0.000411961 0)
(0.00356086 -0.0105694 0)
(0.00180823 -0.0234027 0)
(0.00428017 -0.0371483 0)
(-0.000777667 -0.056807 0)
(0.00691018 -0.0769105 0)
(-0.00771173 -0.107731 0)
(0.0110131 -0.136236 0)
(-0.01763 -0.179258 0)
(0.0121019 -0.260072 0)
(0.00731841 0.125232 0)
(0.0155373 0.159276 0)
(0.0206994 0.155239 0)
(0.0222504 0.131946 0)
(0.0228696 0.0998311 0)
(0.0199894 0.0738795 0)
(0.0194407 0.0546268 0)
(0.0179038 0.0392879 0)
(0.0173495 0.0254756 0)
(0.0162285 0.0131597 0)
(0.0147949 0.0015722 0)
(0.0148798 -0.0096829 0)
(0.012503 -0.0223617 0)
(0.0141883 -0.0359462 0)
(0.00902049 -0.0547034 0)
(0.0145334 -0.0741522 0)
(-0.000261103 -0.104154 0)
(0.0168039 -0.130842 0)
(-0.0163552 -0.175486 0)
(0.0140312 -0.262644 0)
(0.0109717 0.113701 0)
(0.0222693 0.150453 0)
(0.0307412 0.148896 0)
(0.0341873 0.131955 0)
(0.0357101 0.0979063 0)
(0.0330307 0.0728456 0)
(0.0323092 0.0538458 0)
(0.0311021 0.0387253 0)
(0.030516 0.0253655 0)
(0.0300218 0.0134077 0)
(0.027888 0.00213085 0)
(0.0278608 -0.00916448 0)
(0.0243668 -0.0212735 0)
(0.0250306 -0.0354686 0)
(0.0191589 -0.0532686 0)
(0.0220866 -0.0732555 0)
(0.00741968 -0.102125 0)
(0.0207352 -0.127597 0)
(-0.01524 -0.170624 0)
(0.0178389 -0.263286 0)
(0.0134473 0.0896211 0)
(0.0293476 0.139424 0)
(0.0421024 0.142113 0)
(0.0464243 0.13175 0)
(0.0497735 0.103648 0)
(0.047915 0.0759317 0)
(0.0467916 0.0558037 0)
(0.0459583 0.040452 0)
(0.0451146 0.0273614 0)
(0.0454952 0.0155795 0)
(0.0428621 0.00453176 0)
(0.0428267 -0.00670887 0)
(0.0383566 -0.0184775 0)
(0.0382013 -0.0323533 0)
(0.031483 -0.0485011 0)
(0.0323423 -0.0680731 0)
(0.0182865 -0.0933599 0)
(0.0270695 -0.117121 0)
(-0.0124863 -0.163966 0)
(0.0213897 -0.261208 0)
(0.017239 0.0698102 0)
(0.0341922 0.121637 0)
(0.0504312 0.130554 0)
(0.0584 0.123271 0)
(0.0642494 0.102812 0)
(0.065076 0.0761569 0)
(0.0645509 0.0548055 0)
(0.0642775 0.0389029 0)
(0.0626324 0.0262666 0)
(0.0634368 0.0152513 0)
(0.0603579 0.00521288 0)
(0.0603019 -0.00526606 0)
(0.0550828 -0.0159877 0)
(0.0540093 -0.0290017 0)
(0.0462663 -0.0438148 0)
(0.04499 -0.0629966 0)
(0.0305351 -0.0862452 0)
(0.032671 -0.108257 0)
(-0.00996325 -0.155657 0)
(0.0273677 -0.258431 0)
(0.0177142 0.0299085 0)
(0.0383962 0.104892 0)
(0.056106 0.119922 0)
(0.0678885 0.11645 0)
(0.0775438 0.101679 0)
(0.0832024 0.0794244 0)
(0.0848444 0.0583834 0)
(0.0868319 0.0412352 0)
(0.0850261 0.0279983 0)
(0.0861194 0.0167729 0)
(0.0824452 0.00743747 0)
(0.0822085 -0.00216379 0)
(0.0762891 -0.0115693 0)
(0.0742579 -0.0234673 0)
(0.0655087 -0.0365246 0)
(0.0618896 -0.0540521 0)
(0.046219 -0.0722529 0)
(0.0409879 -0.0910296 0)
(-0.00423906 -0.145098 0)
(0.0340099 -0.253987 0)
(0.00514252 0.00919281 0)
(0.0317704 0.0739487 0)
(0.0547117 0.0980208 0)
(0.0715503 0.09887 0)
(0.0869257 0.0895163 0)
(0.0992169 0.0736717 0)
(0.105416 0.0570767 0)
(0.111463 0.0416724 0)
(0.111553 0.0288359 0)
(0.114003 0.0176388 0)
(0.110755 0.0084458 0)
(0.110394 -0.000606966 0)
(0.103685 -0.00905966 0)
(0.100204 -0.0190323 0)
(0.0895805 -0.0295632 0)
(0.0819693 -0.0432041 0)
(0.0629477 -0.0571043 0)
(0.0485055 -0.0757803 0)
(0.00186915 -0.137747 0)
(0.0439687 -0.249146 0)
(-0.0212918 -0.00290543 0)
(0.0153587 0.0603384 0)
(0.041437 0.0800562 0)
(0.0658249 0.0819383 0)
(0.0870662 0.0756709 0)
(0.107701 0.0635365 0)
(0.119519 0.0508875 0)
(0.131834 0.0394159 0)
(0.135364 0.0302199 0)
(0.140873 0.0212144 0)
(0.138894 0.0143165 0)
(0.139295 0.0066633 0)
(0.132154 0.000620967 0)
(0.127664 -0.00720755 0)
(0.114122 -0.0142182 0)
(0.103151 -0.0242926 0)
(0.0796546 -0.0341902 0)
(0.057376 -0.0539314 0)
(0.0170793 -0.127194 0)
(0.0572412 -0.236059 0)
(-0.0285927 0.0217931 0)
(-0.0158294 0.0225229 0)
(0.0124455 0.0400715 0)
(0.0465657 0.0445113 0)
(0.0737896 0.0439766 0)
(0.101587 0.0381756 0)
(0.119378 0.0324124 0)
(0.135782 0.0238626 0)
(0.144609 0.0191262 0)
(0.151766 0.0126749 0)
(0.153882 0.00993046 0)
(0.153809 0.00422847 0)
(0.149478 0.00278434 0)
(0.144077 -0.00291897 0)
(0.13117 -0.00428273 0)
(0.120186 -0.0113581 0)
(0.0947287 -0.0148404 0)
(0.0798515 -0.0410823 0)
(0.0557479 -0.114028 0)
(0.0819686 -0.185101 0)
(0.0346846 0.0320219 0)
(0.0394434 0.018129 0)
(0.0570516 0.0168194 0)
(0.0914266 0.0191058 0)
(0.119271 0.0211022 0)
(0.14984 0.0201419 0)
(0.174364 0.0186028 0)
(0.197394 0.0166071 0)
(0.214995 0.0145787 0)
(0.230318 0.0132919 0)
(0.241419 0.0115457 0)
(0.250826 0.0108516 0)
(0.257197 0.00922396 0)
(0.26179 0.00895499 0)
(0.264976 0.00750132 0)
(0.264222 0.00669561 0)
(0.258252 0.00587991 0)
(0.24373 -0.00148449 0)
(0.203113 -0.0140965 0)
(0.150745 -0.0334131 0)
)
;

boundaryField
{
    movingWall
    {
        type            fixedValue;
        value           uniform (1 0 0);
    }
    fixedWalls
    {
        type            noSlip;
    }
    frontAndBack
    {
        type            empty;
    }
}


// ************************************************************************* //
