/*--------------------------------*- C++ -*----------------------------------*\
  =========                 |
  \\      /  F ield         | OpenFOAM: The Open Source CFD Toolbox
   \\    /   O peration     | Website:  https://openfoam.org
    \\  /    A nd           | Version:  12
     \\/     M anipulation  |
\*---------------------------------------------------------------------------*/
FoamFile
{
    format      ascii;
    class       volScalarField;
    location    "18.12";
    object      p_rgh;
}
// * * * * * * * * * * * * * * * * * * * * * * * * * * * * * * * * * * * * * //

dimensions      [1 -1 -2 0 0 0 0];

internalField   nonuniform List<scalar> 
3829
(
-4.03496
-4.03349
-4.03068
-4.02634
-4.02031
-4.01224
-4.00221
-3.99085
-3.97797
-3.96341
-3.94703
-3.92869
-3.90824
-3.88556
-3.86047
-3.83285
-3.80255
-3.76946
-3.73345
-3.69442
-3.65227
-3.6069
-3.55825
-3.50627
-3.45091
-3.39217
-3.33005
-3.26462
-3.19593
-3.12412
-3.04947
-2.97113
-2.88953
-2.80502
-2.71791
-2.62853
-2.53721
-2.44429
-2.3501
-2.25499
-2.15925
-2.06323
-1.96732
-1.87187
-1.77728
-1.68395
-1.59227
-1.50266
-1.41552
-1.33122
-1.25017
-1.17273
-1.09927
-1.03012
-0.965616
-0.906029
-0.851657
-0.802842
-0.760302
-0.723749
-0.693088
-0.668221
-0.649017
-0.63531
-0.626904
-0.623567
-0.62498
-0.630744
-0.640373
-0.653411
-0.66933
-0.687354
-0.706795
-0.726956
-0.747097
-0.76643
-0.784171
-0.799538
-0.811761
-0.820103
-0.823885
-0.822504
-0.815447
-0.802339
-0.781443
-0.753386
-0.718328
-0.676506
-0.628249
-0.573994
-0.514299
-0.449888
-0.381677
-0.310722
-0.238227
-0.165521
-0.0940432
-0.025271
0.0393143
0.0982473
0.150108
0.193615
0.227644
0.251333
0.264074
0.264223
0.252457
0.229341
0.195597
0.152194
0.100451
0.0420692
-0.0210793
-0.0865155
-0.1518
-0.214495
-0.272064
-0.322059
-0.362265
-0.390847
-0.406359
-0.402548
-0.383655
-0.350525
-0.304352
-0.246751
-0.18007
-0.107142
-0.0309038
0.043471
0.112785
0.173174
0.221037
0.253331
0.267859
0.263448
0.238968
0.196073
0.137002
0.0649744
-0.0158212
-0.109066
-0.191435
-0.266423
-0.328644
-0.3735
-0.397598
-0.399125
-0.37697
-0.333681
-0.272698
-0.199094
-0.118922
-0.039784
0.0312024
0.0876779
0.12441
0.138357
0.120893
0.0810559
0.0227565
-0.0478293
-0.123056
-0.193594
-0.25061
-0.287069
-0.297737
-0.280758
-0.238119
-0.17551
-0.100189
-0.0223585
0.0459573
0.0964501
0.122014
0.11946
0.089903
0.0392682
-0.0248183
-0.0903862
-0.145369
-0.180841
-0.190491
-0.173203
-0.133322
-0.0792407
-0.0220709
0.0261181
0.0551998
0.0602168
0.0414547
0.00489116
-0.0393096
-0.0795376
-0.105391
-0.111841
-0.0992504
-0.0743688
-0.047933
-0.0309251
-4.10316
-4.10232
-4.10049
-4.09769
-4.09399
-4.08966
-4.0845
-4.07763
-4.06914
-4.05905
-4.04733
-4.03392
-4.01885
-4.00249
-3.98269
-3.95945
-3.93267
-3.90222
-3.86796
-3.82977
-3.78753
-3.74111
-3.6904
-3.63532
-3.57579
-3.51178
-3.44325
-3.3702
-3.29262
-3.21048
-3.12361
-3.03491
-2.94375
-2.84989
-2.75329
-2.65408
-2.55248
-2.4488
-2.34343
-2.23679
-2.12937
-2.02168
-1.9142
-1.80744
-1.70191
-1.59812
-1.49655
-1.39771
-1.30206
-1.2101
-1.12224
-1.03892
-0.960477
-0.887235
-0.819423
-0.757257
-0.700608
-0.654698
-0.61557
-0.58326
-0.557716
-0.538861
-0.526587
-0.520751
-0.521124
-0.527424
-0.539273
-0.556197
-0.577643
-0.602995
-0.631848
-0.662732
-0.695017
-0.727848
-0.760324
-0.791482
-0.820359
-0.845993
-0.867437
-0.883778
-0.894196
-0.897932
-0.894347
-0.882936
-0.862038
-0.832346
-0.79395
-0.747059
-0.692001
-0.629285
-0.559628
-0.483976
-0.403494
-0.319509
-0.233539
-0.146883
-0.0619817
0.0196912
0.0962888
0.165992
0.227038
0.277832
0.316997
0.343408
0.356161
0.354126
0.337761
0.307544
0.264278
0.209155
0.143892
0.0706178
-0.00832408
-0.0898621
-0.170986
-0.248686
-0.319827
-0.381406
-0.430706
-0.465484
-0.484025
-0.479499
-0.456798
-0.416561
-0.36005
-0.289319
-0.207314
-0.117569
-0.0235543
0.0680474
0.153444
0.227877
0.286888
0.326711
0.344523
0.338566
0.308352
0.255506
0.182693
0.0939833
-0.00541196
-0.116189
-0.217125
-0.308609
-0.384086
-0.437946
-0.466117
-0.466122
-0.437647
-0.383115
-0.306904
-0.215448
-0.116287
-0.0189425
0.0677662
0.135804
0.178539
0.191917
0.171198
0.121998
0.0493324
-0.0387052
-0.132635
-0.220275
-0.291241
-0.336743
-0.350383
-0.3281
-0.274517
-0.196681
-0.10376
-0.00810569
0.0752362
0.136196
0.166096
0.160784
0.12243
0.0581806
-0.0221068
-0.103732
-0.171379
-0.214351
-0.225007
-0.202031
-0.151235
-0.0834115
-0.0124278
0.0462521
0.0809588
0.0853347
0.0600678
0.0132427
-0.0423475
-0.0920558
-0.122733
-0.128456
-0.10993
-0.0760779
-0.0407926
-0.0182914
-4.35464
-4.35512
-4.35608
-4.35742
-4.35892
-4.36021
-4.36078
-4.36
-4.3572
-4.35144
-4.34431
-4.33494
-4.32262
-4.30619
-4.28749
-4.26565
-4.24024
-4.21077
-4.17678
-4.13789
-4.09371
-4.04397
-3.98843
-3.92694
-3.85938
-3.78573
-3.70609
-3.62059
-3.52947
-3.43307
-3.33204
-3.22537
-3.11155
-2.99227
-2.86879
-2.74219
-2.61335
-2.48289
-2.35132
-2.21911
-2.08683
-1.95504
-1.82433
-1.69533
-1.56864
-1.44491
-1.32476
-1.2088
-1.09768
-0.991995
-0.892316
-0.799211
-0.713269
-0.635059
-0.56513
-0.504018
-0.452557
-0.405422
-0.367512
-0.338836
-0.319451
-0.309306
-0.308255
-0.316021
-0.332169
-0.356136
-0.387263
-0.424808
-0.467906
-0.515597
-0.571175
-0.625285
-0.68104
-0.737188
-0.792431
-0.845427
-0.894851
-0.93939
-0.977761
-1.00875
-1.03124
-1.04418
-1.04668
-1.03806
-1.01697
-0.983802
-0.938643
-0.881696
-0.813374
-0.734372
-0.645708
-0.548703
-0.444954
-0.336295
-0.224779
-0.11268
-0.0024095
0.103542
0.202679
0.292533
0.370709
0.435049
0.483712
0.51513
0.528013
0.521724
0.496405
0.452519
0.391081
0.313817
0.223077
0.121806
0.0133397
-0.0983638
-0.209105
-0.314768
-0.411116
-0.494078
-0.560033
-0.60598
-0.629897
-0.623992
-0.593936
-0.540096
-0.463974
-0.36848
-0.257637
-0.136265
-0.00918775
0.11461
0.230032
0.330634
0.410427
0.46428
0.488178
0.479043
0.437603
0.365763
0.267113
0.147272
0.0133331
-0.1317
-0.266932
-0.388876
-0.488805
-0.559215
-0.594413
-0.591593
-0.550681
-0.4746
-0.369534
-0.244368
-0.109401
0.02211
0.138369
0.228243
0.28258
0.295141
0.267219
0.199277
0.0988973
-0.0223725
-0.151504
-0.27109
-0.367802
-0.430067
-0.45062
-0.416122
-0.341493
-0.235133
-0.109169
0.0197618
0.130996
0.211172
0.248658
0.237889
0.182504
0.0924493
-0.018356
-0.130095
-0.22127
-0.27781
-0.289698
-0.25563
-0.183929
-0.090051
0.0069196
0.0852423
0.130132
0.132768
0.0948024
0.028056
-0.0493289
-0.116899
-0.156519
-0.160414
-0.130115
-0.0787226
-0.0262817
0.0068712
-4.47544
-4.47724
-4.48085
-4.48622
-4.49332
-4.50216
-4.51275
-4.52506
-4.53906
-4.55484
-4.56954
-4.58308
-4.59668
-4.60553
-4.6093
-4.6074
-4.59916
-4.58392
-4.56105
-4.52994
-4.49009
-4.44105
-4.3825
-4.3142
-4.23601
-4.14788
-4.04976
-3.94238
-3.82579
-3.70022
-3.56579
-3.42223
-3.27641
-3.12689
-2.97342
-2.8161
-2.65539
-2.49206
-2.32691
-2.16117
-1.9958
-1.83161
-1.66949
-1.51032
-1.35496
-1.20422
-1.05895
-0.919927
-0.787896
-0.663597
-0.547747
-0.441042
-0.344112
-0.257476
-0.181586
-0.11691
-0.0634458
-0.0209418
0.00783515
0.0243281
0.02891
0.0217406
0.00302289
-0.0269112
-0.0675823
-0.118338
-0.178369
-0.24672
-0.322292
-0.403867
-0.490191
-0.579421
-0.669949
-0.760207
-0.848496
-0.933009
-1.01195
-1.08353
-1.14601
-1.19772
-1.23716
-1.26297
-1.27398
-1.26898
-1.24711
-1.20847
-1.15297
-1.08085
-0.992714
-0.889561
-0.772869
-0.644499
-0.506695
-0.36201
-0.213313
-0.0637853
0.083286
0.22445
0.356259
0.475296
0.578266
0.662217
0.72453
0.762932
0.776214
0.763544
0.724801
0.66062
0.572494
0.462859
0.334992
0.193042
0.0416689
-0.113749
-0.267397
-0.413539
-0.546261
-0.659864
-0.749322
-0.8102
-0.839171
-0.833352
-0.79318
-0.71949
-0.614669
-0.482988
-0.330078
-0.162655
0.0121724
0.182625
0.341397
0.47966
0.589427
0.66373
0.697145
0.682324
0.623896
0.524057
0.387893
0.223169
0.0395134
-0.156636
-0.340963
-0.506701
-0.641693
-0.735642
-0.780931
-0.77336
-0.713675
-0.605754
-0.458434
-0.284095
-0.0967314
0.0844526
0.243618
0.365364
0.437228
0.45137
0.409355
0.312279
0.170625
0.000390943
-0.180338
-0.346254
-0.47913
-0.563427
-0.592
-0.540721
-0.436544
-0.289113
-0.115344
0.0617027
0.213167
0.32069
0.368347
0.349274
0.268517
0.140529
-0.0147768
-0.170225
-0.295241
-0.370933
-0.383725
-0.332861
-0.230146
-0.098028
0.0368322
0.143641
0.20276
0.202087
0.144839
0.0482223
-0.0613988
-0.155079
-0.207502
-0.208045
-0.159641
-0.0817024
-0.00344148
0.0456881
-4.63794
-4.64543
-4.66055
-4.68331
-4.71342
-4.74999
-4.79192
-4.83787
-4.88641
-4.93576
-4.98355
-5.02994
-5.07083
-5.10882
-5.1416
-5.16713
-5.18363
-5.18942
-5.18322
-5.16328
-5.12886
-5.07918
-5.01373
-4.93232
-4.83505
-4.72233
-4.59499
-4.45408
-4.30106
-4.13769
-3.96653
-3.77785
-3.57789
-3.37122
-3.16063
-2.94745
-2.73264
-2.51719
-2.30211
-2.0884
-1.87706
-1.66904
-1.46534
-1.26692
-1.07476
-0.889877
-0.713027
-0.545228
-0.387427
-0.240517
-0.105308
0.0173859
0.126817
0.222311
0.30313
0.368837
0.418676
0.451937
0.471891
0.476175
0.464306
0.436396
0.392877
0.334429
0.261887
0.176229
0.0786029
-0.0296618
-0.147034
-0.271795
-0.40213
-0.535952
-0.671018
-0.805128
-0.935937
-1.06098
-1.17784
-1.28415
-1.3775
-1.45571
-1.5167
-1.55852
-1.57969
-1.57885
-1.55534
-1.50872
-1.43886
-1.34608
-1.23125
-1.09585
-0.941939
-0.772059
-0.589294
-0.397135
-0.199499
-0.000761688
0.194627
0.381928
0.556471
0.713638
0.848929
0.958366
1.03839
1.08605
1.09941
1.07797
1.02126
0.930099
0.806672
0.654408
0.477732
0.282338
0.0745996
-0.138096
-0.347845
-0.546826
-0.726949
-0.880571
-1.00069
-1.08145
-1.11833
-1.11051
-1.05575
-0.955095
-0.81203
-0.632424
-0.424062
-0.196221
0.041101
0.272443
0.487606
0.674645
0.822852
0.92328
0.969283
0.94638
0.865365
0.728777
0.543504
0.320117
0.071476
-0.19172
-0.440034
-0.662499
-0.842768
-0.966841
-1.0248
-1.01052
-0.925583
-0.775402
-0.572239
-0.333172
-0.0768708
0.16937
0.384585
0.547903
0.642598
0.658405
0.596736
0.460419
0.264001
0.0288949
-0.220907
-0.447402
-0.626227
-0.734832
-0.757282
-0.699022
-0.55893
-0.357974
-0.121273
0.118675
0.322571
0.465302
0.525453
0.494613
0.379693
0.20132
-0.0126753
-0.225412
-0.394295
-0.494339
-0.507586
-0.433412
-0.28906
-0.106135
0.078541
0.22251
0.299513
0.293433
0.209688
0.0727565
-0.079855
-0.208073
-0.276931
-0.272101
-0.198628
-0.0844313
0.0289317
0.0997056
-4.4154
-4.43149
-4.4639
-4.51241
-4.57662
-4.65592
-4.74959
-4.85597
-4.97302
-5.09773
-5.22758
-5.35663
-5.47953
-5.59358
-5.696
-5.78394
-5.8547
-5.90575
-5.93492
-5.94034
-5.92053
-5.8744
-5.8013
-5.70114
-5.57442
-5.42188
-5.24514
-5.04585
-4.82652
-4.58873
-4.33256
-4.08209
-3.82649
-3.56502
-3.29817
-3.02772
-2.75567
-2.48373
-2.21347
-1.94633
-1.68365
-1.42673
-1.17677
-0.934808
-0.701984
-0.479354
-0.268034
-0.0690613
0.116577
0.287815
0.44363
0.583145
0.705406
0.809702
0.895198
0.961307
1.00769
1.0341
1.03878
1.02322
0.987498
0.931774
0.856459
0.76228
0.650222
0.521525
0.377692
0.22046
0.051866
-0.125816
-0.310172
-0.498554
-0.687946
-0.875434
-1.05796
-1.23227
-1.39517
-1.54347
-1.67414
-1.78413
-1.87073
-1.93158
-1.9644
-1.96771
-1.94158
-1.88445
-1.79609
-1.67706
-1.52862
-1.35286
-1.15252
-0.931004
-0.692429
-0.44146
-0.18326
0.0762588
0.331229
0.575376
0.802501
1.00647
1.18137
1.32199
1.42355
1.48239
1.49562
1.46288
1.38345
1.25859
1.09131
0.886188
0.649228
0.387898
0.110714
-0.172493
-0.451289
-0.715228
-0.953654
-1.15646
-1.31422
-1.41925
-1.46546
-1.45452
-1.38081
-1.24595
-1.05493
-0.81566
-0.538624
-0.23627
0.0780524
0.384208
0.668384
0.9148
1.10918
1.24027
1.30075
1.26784
1.15942
0.977966
0.732397
0.436624
0.108072
-0.237379
-0.564267
-0.85624
-1.09166
-1.25223
-1.32443
-1.30171
-1.18488
-0.982039
-0.709522
-0.390017
-0.0489242
0.277596
0.561703
0.775717
0.897785
0.914849
0.827901
0.642465
0.378268
0.0628355
-0.275374
-0.576193
-0.811212
-0.951618
-0.976934
-0.897445
-0.709543
-0.441222
-0.126347
0.1912
0.459406
0.644984
0.71969
0.673153
0.514966
0.273649
-0.0131496
-0.296422
-0.519
-0.648161
-0.660658
-0.556476
-0.359671
-0.11342
0.132959
0.322506
0.420733
0.406658
0.288763
0.10079
-0.105813
-0.276886
-0.365587
-0.353021
-0.247038
-0.0864405
0.0716816
0.170031
-3.97465
-4.00788
-4.07492
-4.17551
-4.30883
-4.47281
-4.66579
-4.88355
-5.12178
-5.37278
-5.62972
-5.88425
-6.13178
-6.36478
-6.57687
-6.76235
-6.91633
-7.03462
-7.11382
-7.15123
-7.14487
-7.09324
-6.99611
-6.85388
-6.66862
-6.44313
-6.18224
-5.89156
-5.57976
-5.2536
-4.91318
-4.55783
-4.19761
-3.83595
-3.47566
-3.11882
-2.76699
-2.42133
-2.08282
-1.75236
-1.43081
-1.11907
-0.818127
-0.529008
-0.252827
0.0100631
0.258141
0.490233
0.705208
0.901943
1.07931
1.2361
1.37132
1.48383
1.57286
1.63756
1.67703
1.69072
1.68043
1.64411
1.58184
1.49414
1.38176
1.24575
1.08739
0.908292
0.710371
0.495884
0.267433
0.0279189
-0.21955
-0.471538
-0.724241
-0.973926
-1.21663
-1.44817
-1.66446
-1.86147
-2.03516
-2.18181
-2.29792
-2.38045
-2.42655
-2.43441
-2.40385
-2.33303
-2.22178
-2.07088
-1.88209
-1.65808
-1.40243
-1.11956
-0.814817
-0.494232
-0.164424
0.16684
0.49206
0.803158
1.09212
1.35102
1.57233
1.74932
1.87592
1.94764
1.96032
1.91374
1.80706
1.64207
1.4228
1.15512
0.846848
0.507596
0.148496
-0.217741
-0.577789
-0.918157
-1.22514
-1.48557
-1.68752
-1.82113
-1.87856
-1.86242
-1.76508
-1.58894
-1.34061
-1.03042
-0.672013
-0.281663
0.123282
0.517529
0.882664
1.19833
1.44578
1.61014
1.68233
1.64167
1.50253
1.26876
0.952202
0.571103
0.148414
-0.2938
-0.712984
-1.08649
-1.38637
-1.58919
-1.67779
-1.64385
-1.4886
-1.22303
-0.86834
-0.454213
-0.0116335
0.409171
0.773872
1.04692
1.20038
1.21803
1.1
0.855929
0.512204
0.10351
-0.346608
-0.733165
-1.03337
-1.21148
-1.24302
-1.13367
-0.886754
-0.537497
-0.129851
0.279262
0.623067
0.858466
0.949253
0.882966
0.672557
0.35607
-0.0169923
-0.383485
-0.668825
-0.831253
-0.841335
-0.700612
-0.440801
-0.119001
0.200451
0.44349
0.565839
0.540959
0.381075
0.131428
-0.139867
-0.361789
-0.473444
-0.450614
-0.304563
-0.0873591
0.125117
0.25688
-2.75104
-2.81255
-2.93692
-3.12517
-3.37819
-3.6942
-4.07335
-4.50814
-4.99812
-5.51006
-6.01527
-6.49751
-6.94746
-7.3571
-7.72084
-8.03434
-8.29399
-8.49612
-8.63704
-8.71299
-8.72106
-8.65856
-8.52339
-8.31387
-8.0322
-7.68133
-7.26991
-6.80593
-6.32889
-5.84382
-5.36746
-4.89694
-4.43299
-3.97722
-3.53073
-3.09421
-2.66836
-2.25383
-1.85117
-1.46089
-1.08362
-0.719995
-0.372234
-0.0378286
0.280779
0.582559
0.866374
1.13094
1.37487
1.59684
1.79552
1.96941
2.11715
2.23754
2.32942
2.39182
2.42388
2.42464
2.39406
2.33208
2.23869
2.11434
1.95983
1.77639
1.56563
1.32954
1.07052
0.791359
0.495308
0.186019
-0.132633
-0.45638
-0.780463
-1.10016
-1.41055
-1.70642
-1.98262
-2.23415
-2.45603
-2.64351
-2.79246
-2.89878
-2.95929
-2.97131
-2.93494
-2.84775
-2.70963
-2.52173
-2.28634
-2.00683
-1.68772
-1.33463
-0.954248
-0.554182
-0.142814
0.270136
0.675242
1.06237
1.42145
1.74258
2.01636
2.23425
2.3889
2.47447
2.48651
2.42371
2.28559
2.07464
1.79584
1.4567
1.06711
0.639148
0.186769
-0.273991
-0.726305
-1.15333
-1.53786
-1.86343
-2.11539
-2.28143
-2.35181
-2.32821
-2.20272
-1.97878
-1.66458
-1.27319
-0.821886
-0.331199
0.177004
0.671314
1.12829
1.52204
1.82892
2.02891
2.10766
2.06364
1.89069
1.59722
1.19952
0.721453
0.191604
-0.361086
-0.884688
-1.3502
-1.72267
-1.97273
-2.07965
-2.03198
-1.83221
-1.49471
-1.04607
-0.523171
0.0341576
0.562594
1.01862
1.35801
1.5463
1.56343
1.4086
1.0968
0.66323
0.156104
-0.44048
-0.916194
-1.28907
-1.50984
-1.54766
-1.40304
-1.08745
-0.64482
-0.131108
0.382285
0.811775
1.10301
1.21097
1.12099
0.84999
0.44691
-0.0248653
-0.485928
-0.84219
-1.04157
-1.04771
-0.863851
-0.53098
-0.122193
0.280653
0.584371
0.733283
0.69461
0.485217
0.163818
-0.18217
-0.462292
-0.599682
-0.563943
-0.370503
-0.0869254
0.189063
0.359795
-0.785752
-0.888669
-1.09698
-1.413
-1.83797
-2.37162
-3.00987
-3.74129
-4.57664
-5.42194
-6.26486
-7.08059
-7.85078
-8.55945
-9.19258
-9.73784
-10.1851
-10.5268
-10.7582
-10.8769
-10.8816
-10.7718
-10.5493
-10.2161
-9.77678
-9.23671
-8.60587
-7.8924
-7.19957
-6.51558
-5.85381
-5.22003
-4.61622
-4.0419
-3.49487
-2.97271
-2.47295
-1.99349
-1.53254
-1.08896
-0.662193
-0.252169
0.139284
0.515322
0.873485
1.21259
1.53121
1.8278
2.10072
2.34822
2.56847
2.75979
2.92047
3.04878
3.1432
3.20238
3.22516
3.2112
3.15974
3.07031
2.9431
2.7787
2.5781
2.34278
2.07469
1.77622
1.45029
1.10032
0.730268
0.344597
-0.0519701
-0.45421
-0.856375
-1.25267
-1.63701
-2.00308
-2.34468
-2.6556
-2.92982
-3.16167
-3.34586
-3.47776
-3.55349
-3.56968
-3.52579
-3.41955
-3.25098
-3.02157
-2.7341
-2.39276
-2.00312
-1.57212
-1.10797
-0.619973
-0.118346
0.384768
0.877985
1.34889
1.78514
2.1747
2.50605
2.76876
2.95393
3.05428
3.06509
2.98391
2.81066
2.54855
2.2037
1.78546
1.30596
0.78001
0.224572
-0.340426
-0.894386
-1.41675
-1.88648
-2.28365
-2.59043
-2.7918
-2.87638
-2.84345
-2.68594
-2.4084
-2.02093
-1.53947
-0.985374
-0.383538
0.238771
0.843382
1.40155
1.88133
2.2538
2.49352
2.57848
2.53045
2.31869
1.95814
1.47015
0.884613
0.236192
-0.437962
-1.07662
-1.6432
-2.09512
-2.39664
-2.52226
-2.45913
-2.2097
-1.79217
-1.23962
-0.597186
0.0895207
0.735963
1.29202
1.7038
1.92942
1.94481
1.74807
1.35979
0.825222
0.211542
-0.548212
-1.11931
-1.57295
-1.84095
-1.88462
-1.70031
-1.30777
-0.760998
-0.12961
0.498979
1.02276
1.37482
1.50073
1.3832
1.044
0.544236
-0.0369345
-0.602433
-1.03652
-1.27576
-1.27654
-1.04339
-0.628423
-0.12262
0.372537
0.743157
0.920495
0.865138
0.599376
0.197157
-0.232427
-0.57713
-0.742582
-0.691365
-0.443816
-0.0849873
0.262781
0.477479
2.30866
2.14831
1.82249
1.31855
0.608386
-0.31382
-1.55562
-2.99207
-5.28666
-6.89894
-8.34991
-9.58411
-10.6397
-11.5318
-12.2795
-12.8931
-13.3801
-13.7445
-13.9882
-14.1082
-14.0979
-13.9465
-13.6437
-13.1705
-12.5078
-11.6347
-10.5789
-8.86872
-7.79373
-6.80305
-5.95368
-5.19278
-4.50318
-3.86213
-3.25903
-2.68722
-2.1426
-1.62156
-1.121
-0.638886
-0.173811
0.271169
0.702023
1.11553
1.51029
1.88477
2.23715
2.56541
2.86732
3.14061
3.383
3.59227
3.76616
3.90259
3.99963
4.05562
4.06915
4.03917
3.96493
3.84612
3.68284
3.47573
3.22595
2.93525
2.60591
2.2408
1.8434
1.41777
0.96865
0.501358
0.021544
-0.464546
-0.950054
-1.42804
-1.8913
-2.33224
-2.74339
-3.11747
-3.44728
-3.726
-3.94743
-4.1061
-4.19737
-4.21739
-4.1647
-4.03731
-3.83537
-3.5607
-3.21668
-2.80836
-2.34242
-1.82721
-1.2727
-0.690019
-0.0912224
0.508919
1.09685
1.6577
2.17675
2.63961
3.03252
3.34308
3.56066
3.67662
3.68545
3.58404
3.37265
3.05506
2.63885
2.13529
1.55884
0.927377
0.261136
-0.415809
-1.07886
-1.70348
-2.26459
-2.7384
-3.10364
-3.34251
-3.44177
-3.39804
-3.20553
-2.86967
-2.4028
-1.82413
-1.15913
-0.437488
0.307605
1.03078
1.69755
2.26996
2.71345
2.99862
3.10309
3.03658
2.77921
2.34498
1.75911
1.05727
0.281402
-0.523044
-1.28525
-1.96023
-2.49712
-2.8533
-2.99816
-2.91757
-2.61405
-2.11007
-1.4454
-0.674274
0.153182
0.926131
1.58909
2.07807
2.34294
2.3551
2.11203
1.63948
0.991908
0.245978
-0.645385
-1.33618
-1.87959
-2.19835
-2.2473
-2.01978
-1.54341
-0.883766
-0.125184
0.627403
1.2523
1.6691
1.81328
1.66485
1.25094
0.646038
-0.0531939
-0.731004
-1.24835
-1.52964
-1.52328
-1.23584
-0.731286
-0.120113
0.47467
0.917096
1.12413
1.04944
0.721436
0.230729
-0.289905
-0.704367
-0.899694
-0.830643
-0.523186
-0.0815392
0.345012
0.607933
6.76956
6.57065
6.15543
5.49549
4.55377
3.28826
1.59382
-0.596662
-4.02516
-6.07646
-8.06673
-9.8183
-11.3511
-12.6721
-13.792
-14.716
-15.4496
-15.9941
-16.3571
-16.5344
-16.5235
-16.3192
-15.9147
-15.3
-14.4594
-13.3927
-12.1962
-9.74794
-8.18312
-6.90202
-5.85246
-4.96344
-4.1865
-3.49437
-2.86208
-2.27335
-1.71354
-1.17568
-0.654342
-0.147642
0.345219
0.822857
1.28716
1.73522
2.16509
2.57439
2.96059
3.32095
3.65269
3.95287
4.21855
4.4468
4.6349
4.78025
4.88046
4.93344
4.93742
4.89119
4.79372
4.6446
4.44392
4.19242
3.89144
3.543
3.14977
2.71511
2.24306
1.73838
1.20663
0.654035
0.0872114
-0.486504
-1.05909
-1.62241
-2.16802
-2.68704
-3.17073
-3.61057
-3.99813
-4.32546
-4.58541
-4.77154
-4.87837
-4.90172
-4.8392
-4.68899
-4.4514
-4.12863
-3.72466
-3.24548
-2.69897
-2.09493
-1.44514
-0.762725
-0.0617152
0.640458
1.3279
1.98321
2.5891
3.12874
3.58603
3.94653
4.19777
4.32979
4.33607
4.213
3.96102
3.58476
3.09321
2.49962
1.82101
1.07863
0.295858
-0.498707
-1.27628
-2.00815
-2.66501
-3.21895
-3.64514
-3.92291
-4.03703
-3.9813
-3.7515
-3.35382
-2.80297
-2.12168
-1.33977
-0.491997
0.382102
1.22982
2.01072
2.68044
3.1987
3.53192
3.65637
3.56974
3.26289
2.75025
2.06083
1.23613
0.326565
-0.614943
-1.50679
-2.29537
-2.9211
-3.33415
-3.49886
-3.39888
-3.03774
-2.44222
-1.65965
-0.75217
0.22301
1.12946
1.90414
2.47363
2.77906
2.78674
2.49378
1.93097
1.16219
0.272737
-0.74393
-1.5646
-2.20359
-2.57556
-2.62896
-2.35546
-1.78991
-1.01064
-0.117931
0.765107
1.49603
1.98036
2.14284
1.9607
1.467
0.750388
-0.0733513
-0.86924
-1.47371
-1.7984
-1.78342
-1.43767
-0.837657
-0.114628
0.585024
1.10295
1.34039
1.24407
0.849103
0.263927
-0.353528
-0.841606
-1.06809
-0.979188
-0.607129
-0.0766565
0.434223
0.748694
12.375
12.3057
12.1682
11.9674
11.7289
11.4525
11.3017
10.9607
-5.23467
-4.81659
-4.63745
-4.24316
-3.81089
-3.32793
-2.82051
-2.29748
-1.76842
-1.23532
-0.702887
-0.172958
0.351588
0.865991
1.37418
1.8708
2.35325
2.81858
3.26356
3.68478
4.0787
4.4417
4.77012
5.06034
5.30883
5.51221
5.66737
5.77142
5.82188
5.81665
5.75411
5.63314
5.45322
5.21443
4.91762
4.56428
4.15676
3.6981
3.19215
2.64358
2.05784
1.44134
0.801244
0.145169
-0.518437
-1.18034
-1.83114
-2.46114
-3.06012
-3.61805
-4.12509
-4.57159
-4.94846
-5.2475
-5.46133
-5.58364
-5.60975
-5.53658
-5.36238
-5.08756
-4.71473
-4.24856
-3.69597
-3.06607
-2.37022
-1.62198
-0.836606
-0.0302639
0.777111
1.56706
2.31958
3.01478
3.63332
4.15671
4.56836
4.85393
5.00216
5.00532
4.85946
4.56528
4.12824
3.55875
2.87202
2.08793
1.23115
0.328272
-0.587416
-1.48288
-2.32504
-3.08025
-3.71637
-4.20488
-4.52222
-4.65093
-4.58246
-4.31381
-3.85199
-3.21418
-2.4267
-1.52398
-0.546237
0.460764
1.43677
2.3352
3.10505
3.70012
4.08224
4.22463
4.1188
3.76049
3.16642
2.36974
1.41826
0.370671
-0.712043
-1.73718
-2.64245
-3.35928
-3.8305
-4.0153
-3.89446
-3.47315
-2.78258
-1.8788
-0.83337
0.301117
1.34231
2.23115
2.88318
3.22983
3.23204
2.88666
2.22965
1.33474
0.299426
-0.849989
-1.80197
-2.53941
-2.96586
-3.02296
-2.70131
-2.04283
-1.13929
-0.108045
0.909529
1.74949
2.30291
2.4834
2.26545
1.68839
0.855412
-0.096989
-1.01446
-1.70839
-2.07713
-2.05243
-1.64527
-0.945739
-0.106427
0.701531
1.29725
1.56532
1.44548
0.980108
0.296268
-0.422017
-0.986219
-1.2446
-1.13423
-0.694117
-0.0704834
0.528666
0.897052
17.7154
17.6778
17.6041
17.4969
17.3679
17.2104
17.1012
16.8336
-4.59968
-4.21203
-3.98738
-3.62066
-3.21607
-2.77849
-2.3141
-1.82419
-1.31686
-0.793968
-0.260696
0.281005
0.824297
1.36638
1.9043
2.43435
2.95256
3.45493
3.93722
4.39509
4.82415
5.21996
5.5781
5.89424
6.16419
6.38398
6.54991
6.65862
6.70717
6.69301
6.61466
6.47043
6.2598
5.98287
5.64057
5.23462
4.76764
4.24309
3.66533
3.03962
2.37215
1.67017
0.941788
0.195669
-0.558633
-1.31064
-2.04967
-2.76473
-3.44423
-4.07685
-4.65148
-5.1572
-5.58376
-5.92188
-6.16322
-6.30075
-6.32909
-6.2447
-6.04576
-5.73283
-5.30889
-4.77933
-4.15204
-3.4374
-2.64834
-1.80025
-0.91037
0.00269553
0.916626
1.8103
2.66112
3.44662
4.1449
4.73496
5.19814
5.51821
5.68243
5.68202
5.51271
5.17546
4.67653
4.02785
3.24653
2.35546
1.38262
0.358108
-0.680149
-1.69487
-2.64852
-3.50302
-4.22203
-4.77326
-5.13016
-5.27308
-5.19137
-4.88286
-4.35574
-3.62949
-2.7341
-1.70883
-0.599451
0.542095
1.64798
2.66532
3.53634
4.20884
4.63982
4.79919
4.67418
4.26344
3.58642
2.68067
1.60064
0.4131
-0.812492
-1.97233
-2.99547
-3.80422
-4.33394
-4.53867
-4.39603
-3.91295
-3.12558
-2.09908
-0.91749
0.386802
1.56049
2.5642
3.29961
3.6876
3.68358
3.2843
2.53079
1.50732
0.325702
-0.961447
-2.04465
-2.8815
-3.36269
-3.42271
-3.05155
-2.29801
-1.26762
-0.0958053
1.05801
2.00823
2.63117
2.82913
2.574
1.91147
0.959487
-0.123563
-1.16393
-1.94824
-2.36102
-2.32569
-1.85517
-1.05386
-0.0957606
0.821942
1.49653
1.79494
1.6502
1.11228
0.327363
-0.493991
-1.1355
-1.42603
-1.29302
-0.782649
-0.0632265
0.626541
1.05023
22.5766
22.558
22.521
22.466
22.4045
22.3282
22.3028
22.1867
-3.76387
-3.52229
-3.36316
-3.08154
-2.74191
-2.3487
-1.91517
-1.44347
-0.944247
-0.419236
0.124747
0.690291
1.2579
1.82919
2.40017
2.96634
3.5227
4.06417
4.5856
5.08176
5.54744
5.9774
6.36647
6.70963
7.00202
7.23909
7.41659
7.53071
7.57809
7.55597
7.462
7.29492
7.05402
6.73939
6.35208
5.89397
5.36803
4.7781
4.12904
3.4267
2.67801
1.89104
1.07489
0.23926
-0.605221
-1.44678
-2.27349
-3.07304
-3.8325
-4.53923
-5.18086
-5.74523
-6.22089
-6.59756
-6.86592
-7.01818
-7.04834
-6.95237
-6.72838
-6.37708
-5.90183
-5.30871
-4.60658
-3.80717
-2.92498
-1.97725
-0.9833
0.0369262
1.05683
2.05381
3.00255
3.87795
4.65557
5.3119
5.82622
6.18041
6.36025
6.35596
6.16296
5.78245
5.22152
4.49355
3.61774
2.61983
1.53105
0.38528
-0.775141
-1.90866
-2.97333
-3.92656
-4.72794
-5.34135
-5.73728
-5.89385
-5.79867
-5.44996
-4.85742
-4.04262
-3.03931
-1.89167
-0.65103
0.624639
1.85997
2.99577
3.96748
4.71685
5.19595
5.3714
5.2273
4.76406
4.00388
2.98898
1.78065
0.453336
-0.914466
-2.20841
-3.34888
-4.24901
-4.83669
-5.06085
-4.8959
-4.35058
-3.46597
-2.31666
-1.0043
0.47921
1.77962
2.89774
3.71631
4.14528
4.13449
3.68071
2.83009
1.67766
0.350614
-1.0756
-2.28882
-3.22456
-3.75989
-3.82214
-3.40087
-2.55171
-1.39381
-0.0815568
1.20795
2.26806
2.95994
3.17465
2.88163
2.13301
1.06134
-0.152597
-1.315
-2.18934
-2.64552
-2.59892
-2.06419
-1.16057
-0.0831676
0.944265
1.69748
2.02556
1.85503
1.24366
0.356937
-0.568042
-1.28688
-1.60932
-1.45294
-0.871336
-0.0551071
0.726096
1.20556
26.9682
26.9586
26.9395
26.9105
26.8804
26.8433
26.8323
26.7771
-3.29655
-3.1154
-2.96654
-2.72047
-2.40852
-2.03659
-1.61636
-1.14926
-0.646839
-0.111749
0.442287
1.05756
1.6462
2.24878
2.85586
3.46087
4.05757
4.63995
5.20199
5.73771
6.24108
6.70612
7.12695
7.49784
7.81333
8.06828
8.25795
8.37805
8.42484
8.3952
8.28648
8.09732
7.82697
7.47555
7.04423
6.5351
5.95142
5.29744
4.5785
3.80105
2.9727
2.10235
1.20006
0.27653
-0.656426
-1.58586
-2.49857
-3.38097
-4.21879
-4.99812
-5.70532
-6.32701
-6.85064
-7.26485
-7.55946
-7.72585
-7.75748
-7.64978
-7.40082
-7.01145
-6.48542
-5.82948
-5.05347
-4.17043
-3.19642
-2.15052
-1.05409
0.0714621
1.19564
2.2942
3.33918
4.30291
5.1584
5.87979
6.44415
6.83169
7.02663
7.01824
6.80164
6.37831
5.75616
4.94988
3.98093
2.87776
1.67482
0.409824
-0.870744
-2.12104
-3.29477
-4.34492
-5.22707
-5.90134
-6.33531
-6.50499
-6.39616
-6.00756
-5.35037
-4.44817
-3.33843
-2.07019
-0.700469
0.707026
2.06964
3.3219
4.39249
5.21717
5.74314
5.93383
5.77077
5.25566
4.41333
3.29077
1.95596
0.491085
-1.01625
-2.442
-3.69773
-4.68751
-5.33188
-5.57494
-5.38742
-4.78032
-3.79919
-2.52781
-1.08839
0.572263
1.99545
3.2269
4.12747
4.5966
4.57866
4.07065
3.12383
1.84372
0.373338
-1.18998
-2.5309
-3.5638
-4.152
-4.21586
-3.74461
-2.80066
-1.51638
-0.0656435
1.35697
2.52523
3.28462
3.5152
3.18424
2.35017
1.15981
-0.183491
-1.46523
-2.42819
-2.92663
-2.86839
-2.26955
-1.26458
-0.0690303
1.06649
1.89711
2.25386
2.05712
1.37253
0.384789
-0.642869
-1.43798
-1.79169
-1.61163
-0.958936
-0.0463657
0.82573
1.36059
30.8757
30.8704
30.8601
30.844
30.829
30.8082
30.8059
30.774
-3.03763
-2.88336
-2.73796
-2.50339
-2.20018
-1.83163
-1.4099
-0.934234
-0.417379
0.140948
0.728032
1.35084
1.9811
2.62258
3.26967
3.91596
4.55466
5.17912
5.78265
6.35855
6.90012
7.40066
7.85356
8.25245
8.59129
8.86441
9.06657
9.19308
9.2398
9.20325
9.08054
8.8702
8.57149
8.18455
7.71067
7.15215
6.51258
5.79658
5.00994
4.1597
3.25411
2.30288
1.317
0.308191
-0.71061
-1.72528
-2.7214
-3.68411
-4.59786
-5.44748
-6.21812
-6.89524
-7.46518
-7.9156
-8.2354
-8.41525
-8.44809
-8.32867
-8.05516
-7.62852
-7.05289
-6.33563
-5.48757
-4.52303
-3.45959
-2.31816
-1.12209
0.105842
1.33132
2.52856
3.66704
4.71654
5.64758
6.43206
7.04487
7.46462
7.67407
7.6614
7.42159
6.95639
6.27455
5.39195
4.33228
3.12663
1.81263
0.431828
-0.965501
-2.32922
-3.60884
-4.75303
-5.71345
-6.44662
-6.91726
-7.09953
-6.97696
-6.54933
-5.82902
-4.84163
-3.62821
-2.24253
-0.747336
0.788007
2.27437
3.63978
4.80635
5.70396
6.2751
6.48027
6.29847
5.7327
4.81027
3.58284
2.12462
0.526198
-1.11636
-2.67017
-4.03783
-5.11455
-5.81376
-6.07512
-5.86502
-5.19743
-4.12156
-2.72972
-1.16546
0.660932
2.20457
3.54764
4.52822
5.03625
5.01094
4.44969
3.40883
2.0038
0.39341
-1.30248
-2.76782
-3.89512
-4.53436
-4.59928
-4.07883
-3.04214
-1.63414
-0.0484355
1.503
2.77654
3.60131
3.84676
3.47835
2.56062
1.25405
-0.215695
-1.61247
-2.66181
-3.20091
-3.13094
-2.46889
-1.36492
-0.0537743
1.18694
2.09282
2.477
2.25407
1.49748
0.410792
-0.717278
-1.58673
-1.97073
-1.76709
-1.0444
-0.0372205
0.924026
1.51319
34.3482
34.3455
34.3404
34.3317
34.3254
34.3137
34.3164
34.2968
-2.90976
-2.76892
-2.62178
-2.38937
-2.08467
-1.70983
-1.27755
-0.78609
-0.248992
0.339168
0.956414
1.60597
2.27331
2.9548
3.64345
4.33217
5.0136
5.68049
6.32561
6.94169
7.52139
8.05729
8.54211
8.96884
9.33087
9.62209
9.83683
9.97
10.0171
9.97429
9.83829
9.60778
9.28198
8.86107
8.34643
7.74058
7.04743
6.27198
5.42044
4.50039
3.52066
2.49176
1.42561
0.334889
-0.766351
-1.86287
-2.93907
-3.97885
-4.96541
-5.8824
-6.71382
-7.44398
-8.05819
-8.5432
-8.88697
-9.07951
-9.11343
-8.98237
-8.68504
-8.2223
-7.59876
-6.82233
-5.90478
-4.86165
-3.71205
-2.47862
-1.1868
0.139672
1.46246
2.75457
3.98291
5.1148
6.11838
6.96343
7.62266
8.07322
8.29645
8.27944
8.01707
7.51142
6.77195
5.81585
4.66877
3.36434
1.94348
0.451391
-1.0582
-2.53093
-3.91227
-5.14678
-6.18229
-6.97189
-7.47751
-7.67192
-7.53553
-7.07019
-6.28891
-5.21939
-3.90607
-2.4072
-0.791333
0.86659
2.47202
3.94624
5.20499
6.17252
6.78678
7.00564
6.80549
6.19077
5.19112
3.86268
2.28522
0.558478
-1.21351
-2.89059
-4.36581
-5.52594
-6.27764
-6.55676
-6.32423
-5.5981
-4.43034
-2.92042
-1.2288
0.737877
2.40452
3.85682
4.91457
5.45992
5.42716
4.81426
3.6825
2.15658
0.410516
-1.41135
-2.99705
-4.21516
-4.90318
-4.96869
-4.40036
-3.27399
-1.7462
-0.0302558
1.64428
3.01939
3.90683
4.1661
3.7612
2.7625
1.34342
-0.248711
-1.75493
-2.88773
-3.46558
-3.38401
-2.66035
-1.46077
-0.0378996
1.30423
2.28245
2.69266
2.44391
1.61737
0.434898
-0.790249
-1.7314
-2.14442
-1.91761
-1.12685
-0.0278787
1.01979
1.66157
37.4285
37.4272
37.4254
37.4213
37.4206
37.4142
37.4211
37.4076