/*--------------------------------*- C++ -*----------------------------------*\
  =========                 |
  \\      /  F ield         | OpenFOAM: The Open Source CFD Toolbox
   \\    /   O peration     | Website:  https://openfoam.org
    \\  /    A nd           | Version:  12
     \\/     M anipulation  |
\*---------------------------------------------------------------------------*/
FoamFile
{
    format      ascii;
    class       volVectorField;
    location    "18.12";
    object      zeta;
}
// * * * * * * * * * * * * * * * * * * * * * * * * * * * * * * * * * * * * * //

dimensions      [0 1 0 0 0 0 0];

internalField   uniform (0 0 0);

boundaryField
{
    freeSurface
    {
        type            calculated;
        value           nonuniform List<vector> 
181
(
(0 0.00445899 0)
(0 0.00445845 0)
(0 0.00445864 0)
(0 0.00445898 0)
(0 0.00445988 0)
(0 0.00446038 0)
(0 0.00446199 0)
(0 0.00446195 0)
(0 -0.000314214 0)
(0 -0.000298067 0)
(0 -0.000281221 0)
(0 -0.000256698 0)
(0 -0.000220592 0)
(0 -0.000174209 0)
(0 -0.000123557 0)
(0 -6.31991e-05 0)
(0 1.63857e-06 0)
(0 7.19614e-05 0)
(0 0.000146925 0)
(0 0.000225714 0)
(0 0.000307925 0)
(0 0.000392227 0)
(0 0.000477619 0)
(0 0.000562958 0)
(0 0.00064723 0)
(0 0.000729724 0)
(0 0.00080968 0)
(0 0.000886207 0)
(0 0.000958335 0)
(0 0.00102502 0)
(0 0.0010853 0)
(0 0.00113817 0)
(0 0.00118284 0)
(0 0.00121866 0)
(0 0.00124484 0)
(0 0.00126085 0)
(0 0.00126594 0)
(0 0.00125968 0)
(0 0.00124171 0)
(0 0.00121189 0)
(0 0.00117013 0)
(0 0.0011165 0)
(0 0.00105109 0)
(0 0.000974288 0)
(0 0.000886606 0)
(0 0.0007887 0)
(0 0.000681278 0)
(0 0.000565347 0)
(0 0.000441862 0)
(0 0.00031219 0)
(0 0.000177885 0)
(0 4.05696e-05 0)
(0 -9.79276e-05 0)
(0 -0.000235775 0)
(0 -0.000371027 0)
(0 -0.000501534 0)
(0 -0.000625221 0)
(0 -0.000740096 0)
(0 -0.000844109 0)
(0 -0.000935313 0)
(0 -0.00101189 0)
(0 -0.00107228 0)
(0 -0.00111487 0)
(0 -0.00113833 0)
(0 -0.00114188 0)
(0 -0.0011249 0)
(0 -0.00108689 0)
(0 -0.00102813 0)
(0 -0.00094914 0)
(0 -0.00085099 0)
(0 -0.000735122 0)
(0 -0.000603529 0)
(0 -0.00045871 0)
(0 -0.000303432 0)
(0 -0.000140937 0)
(0 2.52371e-05 0)
(0 0.000191311 0)
(0 0.000353408 0)
(0 0.00050731 0)
(0 0.000648923 0)
(0 0.000774344 0)
(0 0.0008798 0)
(0 0.000961658 0)
(0 0.00101738 0)
(0 0.00104433 0)
(0 0.00104108 0)
(0 0.00100704 0)
(0 0.000942475 0)
(0 0.000848586 0)
(0 0.000727589 0)
(0 0.000582675 0)
(0 0.000417919 0)
(0 0.000238901 0)
(0 5.13268e-05 0)
(0 -0.000138317 0)
(0 -0.000323276 0)
(0 -0.000496519 0)
(0 -0.000651115 0)
(0 -0.000780582 0)
(0 -0.000878969 0)
(0 -0.000941478 0)
(0 -0.000964827 0)
(0 -0.000946613 0)
(0 -0.000887073 0)
(0 -0.00078788 0)
(0 -0.000652471 0)
(0 -0.000486566 0)
(0 -0.000297429 0)
(0 -9.38985e-05 0)
(0 0.00011368 0)
(0 0.000315589 0)
(0 0.000500633 0)
(0 0.000658321 0)
(0 0.000779175 0)
(0 0.000855382 0)
(0 0.000881565 0)
(0 0.000855482 0)
(0 0.000777002 0)
(0 0.000650329 0)
(0 0.000482606 0)
(0 0.000283303 0)
(0 6.60843e-05 0)
(0 -0.000154944 0)
(0 -0.000365618 0)
(0 -0.000550324 0)
(0 -0.000695134 0)
(0 -0.000788359 0)
(0 -0.000821751 0)
(0 -0.000791369 0)
(0 -0.000698528 0)
(0 -0.000549862 0)
(0 -0.000356955 0)
(0 -0.000136183 0)
(0 9.19712e-05 0)
(0 0.000308529 0)
(0 0.000492517 0)
(0 0.000625031 0)
(0 0.00069245 0)
(0 0.000686487 0)
(0 0.000607308 0)
(0 0.000462622 0)
(0 0.000268062 0)
(0 4.54637e-05 0)
(0 -0.000178426 0)
(0 -0.000379581 0)
(0 -0.000532774 0)
(0 -0.000618307 0)
(0 -0.000624859 0)
(0 -0.000551398 0)
(0 -0.000407655 0)
(0 -0.000213272 0)
(0 3.98492e-06 0)
(0 0.000212993 0)
(0 0.000386082 0)
(0 0.000496428 0)
(0 0.00052707 0)
(0 0.000473776 0)
(0 0.000345824 0)
(0 0.000164862 0)
(0 -3.73603e-05 0)
(0 -0.000224619 0)
(0 -0.000367314 0)
(0 -0.000438354 0)
(0 -0.00042525 0)
(0 -0.000332233 0)
(0 -0.000179175 0)
(0 1.84459e-06 0)
(0 0.000171334 0)
(0 0.000294039 0)
(0 0.000344008 0)
(0 0.000310039 0)
(0 0.000203019 0)
(0 5.15124e-05 0)
(0 -0.000104654 0)
(0 -0.00022365 0)
(0 -0.000274951 0)
(0 -0.000244168 0)
(0 -0.000141374 0)
(0 4.50572e-07 0)
(0 0.000135265 0)
(0 0.000217731 0)
)
;
    }
    walls
    {
        type            calculated;
        value           uniform (0 0 0);
    }
    floatingObject
    {
        type            calculated;
        value           uniform (0 0 0);
    }
    frontAndBack
    {
        type            empty;
    }
}


// ************************************************************************* //
