#           v             n
     0.523599             0
     0.648652             0
     0.790112             0
     0.953116             0
      1.13449             0
      1.34047             0
      1.56672             0
      1.82069             0
      2.09677   0.000769298
      2.40376    0.00287173
      2.73462    0.00573887
      3.09966     0.0078935
      3.49026    0.00927194
      3.91837    0.00967965
      4.37366    0.00795211
      4.86986    0.00457546
       5.3948    0.00195514
      5.96412   0.000621374
      6.56366   0.000157179
      7.21112   3.15129e-05
      7.89023   5.27934e-06
      8.62085   7.30109e-07
      9.38447   8.70756e-08
      10.2033   8.80683e-09
      11.0564   7.84991e-10
      11.9684   6.04752e-11
      12.9159   4.17135e-12
      13.9262   2.52222e-13
      14.9731   3.02024e-14
