#              y        d.bubbles                p       alpha.air1       alpha.air2       alpha.air3    alpha.bubbles
           0.015    0.00305600394       107385.564   5.84157465e-65   6.30907553e-62   4.22737517e-72            3e-06
           0.025    0.00305600394       107284.815   1.48930646e-56    3.6889182e-54   2.54191215e-64            3e-06
           0.035    0.00305600394       107184.066   2.27127733e-16   1.01424206e-25   2.51678721e-31            3e-06
           0.045    0.00300031704       107100.462      0.340964124   1.52258005e-10   3.77820064e-16      0.340966124
           0.055    0.00300095524       107032.907      0.319039041   1.67863422e-08   1.48158318e-15      0.319041041
           0.065    0.00300159816       106964.366      0.321156816   1.09688741e-07   1.27488347e-14      0.321158816
           0.075    0.00300224123       106895.911      0.320704207   4.12539293e-07   1.01430979e-13      0.320706207
           0.085    0.00300288477       106827.442      0.320872162   1.17164586e-06   5.84390192e-13      0.320874334
           0.095    0.00300352873       106758.991      0.321064307   2.77802872e-06   2.58999361e-12      0.321068085
           0.105    0.00300417299        106690.56      0.321277901   5.80129843e-06   9.42370612e-12      0.321284702
           0.115    0.00300481751       106622.151      0.321494567   1.10175795e-05   2.94552208e-11      0.321506584
           0.125    0.00300546227       106553.765      0.321710431   1.94333722e-05   8.16168163e-11      0.321730865
           0.135    0.00300610725       106485.402      0.321922743      3.23036e-05   2.05044765e-10      0.321956046
           0.145    0.00300675244       106417.061      0.322129609   5.11440061e-05   4.74899317e-10      0.322181753
           0.155     0.0030073978       106348.744      0.322329111   7.77377151e-05   1.02693874e-09      0.322407849
           0.165    0.00300804333       106280.448      0.322519165   0.000114136178   2.09400518e-09      0.322634301
           0.175      0.003008689       106212.176      0.322697445   0.000162654788   4.05814907e-09        0.3228611
           0.185    0.00300933479       106143.927      0.322861386   0.000225863471   7.52260539e-09      0.323088249
           0.195     0.0030099807         106075.7      0.323008488   0.000306573819   1.34083352e-08      0.323316062
           0.205     0.0030106267       106007.497       0.32313408   0.000407815049   2.30799468e-08      0.323542896
           0.215    0.00301127278       105939.316      0.323237573   0.000532845282   3.85085745e-08      0.323771419
           0.225    0.00301191891       105871.161      0.323360325   0.000685063792   6.24700742e-08      0.324046389
           0.235    0.00301256514       105803.029      0.323377191   0.000867993929   9.87917129e-08      0.324246185
           0.245    0.00301321144       105734.919       0.32337105    0.00108536872   1.52663468e-07      0.324457419
           0.255    0.00301385782        105666.83      0.323341718    0.00134099603   2.30986937e-07      0.324683714
           0.265    0.00301450425       105598.764      0.323273446     0.0016387067   3.42788575e-07      0.324913153
           0.275    0.00301515075       105530.722      0.323159398    0.00198238496   4.99712846e-07      0.325142783
           0.285    0.00301579731       105462.703      0.322995734    0.00237592806   7.16578519e-07      0.325372662
           0.295    0.00301644394       105394.706      0.322778645    0.00282320577   1.01200527e-06      0.325602863
           0.305    0.00301709076       105326.733      0.322504119    0.00332803235   1.40911936e-06       0.32583356
           0.315    0.00301773768       105258.784       0.32216863    0.00389414522   1.93633843e-06      0.326064712
           0.325    0.00301838472       105190.857      0.321768243    0.00452516746   2.62822669e-06      0.326296039
           0.335    0.00301903189       105122.954      0.321299695    0.00522459792   3.52643959e-06      0.326527819
           0.345    0.00301967921       105055.075      0.320759348    0.00599576848   4.68072361e-06      0.326759797
           0.355     0.0030203267       104987.218      0.320144213    0.00684184267   6.15001456e-06      0.326992205
           0.365    0.00302097436       104919.386      0.319451054    0.00776577508   8.00357309e-06      0.327224832
           0.375    0.00302162221       104851.576      0.318677218    0.00877031197   1.03222148e-05      0.327457852
           0.385    0.00302227027        104783.79      0.317820044    0.00985796033   1.31995677e-05      0.327691204
           0.395    0.00302291856       104716.028      0.316877151     0.0110309807   1.67434003e-05      0.327924875
           0.405    0.00302356709       104648.289      0.315846406     0.0122913731   2.10769801e-05      0.328158856
           0.415    0.00302421587       104580.574      0.314725942     0.0136408659   2.63404635e-05      0.328393148
           0.425    0.00302486492       104512.882      0.313514148     0.0150809087   3.26923183e-05      0.328627749
           0.435    0.00302551426       104445.214      0.312209682     0.0166126649    4.0310747e-05      0.328862657
           0.445     0.0030261639        104377.57      0.310811473     0.0182370062    4.9395113e-05      0.329097875
           0.455    0.00302681386       104309.949      0.309318723     0.0199545106   6.01673632e-05      0.329333401
           0.465    0.00302746414       104242.352      0.307730903     0.0217654601   7.28734187e-05      0.329569237
           0.475    0.00302811477       104174.779      0.306047758     0.0236698406   8.77845319e-05      0.329805383
           0.485    0.00302876575        104107.23      0.304269296     0.0256673435   0.000105198602      0.330041838
           0.495    0.00302941709       104039.704      0.302395791     0.0277573692   0.000125441426      0.330278602
           0.505    0.00303006882       103972.203      0.300427774     0.0299390315   0.000148867889      0.330515673
           0.515    0.00303072092       103904.725      0.298366027     0.0322111627   0.000175863058      0.330753052
           0.525    0.00303137343       103837.271      0.296211576     0.0345723209   0.000206843192       0.33099074
           0.535    0.00303202633       103769.842      0.293965682      0.037020797   0.000242256643      0.331228735
           0.545    0.00303267965       103702.436      0.291629831     0.0395546237   0.000282584644      0.331467039
           0.555    0.00303333339       103635.054      0.289205724      0.042171585   0.000328341969      0.331705651
           0.565    0.00303398756       103567.696      0.286695268     0.0448692263   0.000380077466      0.331944572
           0.575    0.00303464215       103500.363      0.284100561     0.0476448653   0.000438374445      0.332183801
           0.585    0.00303529719       103433.053      0.281423883     0.0504956039    0.00050385092      0.332423338
           0.595    0.00303595266       103365.768      0.278667685     0.0534183395   0.000577159694      0.332663184
           0.605    0.00303660858       103298.506      0.275834572     0.0564097781   0.000658988293      0.332903338
           0.615    0.00303726494       103231.269      0.272927295     0.0594664465   0.000750058724      0.333143801
           0.625    0.00303792175       103164.057      0.269948739     0.0625847057   0.000851127081      0.333384572
           0.635    0.00303857902       103096.868      0.266901905     0.0657607638   0.000962982973      0.333625652
           0.645    0.00303923673       103029.704      0.263789903     0.0689906893    0.00108644878      0.333867041
           0.655     0.0030398949       102962.564      0.260615935     0.0722704246    0.00122237878      0.334108738
           0.665    0.00304055352       102895.449      0.257383287     0.0755957998    0.00137165801      0.334350744
           0.675     0.0030412126       102828.358      0.254095313     0.0789625451    0.00153520111       0.33459306
           0.685    0.00304187212       102761.291      0.250755428     0.0823663052    0.00171395088      0.334835684
           0.695     0.0030425321       102694.249      0.247367089     0.0858026516    0.00190887673      0.335078618
           0.705    0.00304319252       102627.231      0.243933792     0.0892670959    0.00212097297      0.335321861
           0.715    0.00304385339       102560.238      0.240459054     0.0927551024    0.00235125698      0.335565414
           0.725     0.0030445147       102493.269      0.236946408     0.0962621006     0.0026007672      0.335809276
           0.735    0.00304517645       102426.325      0.233399389     0.0997834974    0.00287056099      0.336053448
           0.745    0.00304583864       102359.406      0.229821527      0.103314689    0.00316171245      0.336297929
           0.755    0.00304650125       102292.511      0.226216337      0.106851072    0.00347531001      0.336542719
           0.765     0.0030471643       102225.641      0.222587308      0.110388056    0.00381245401      0.336787818
           0.775    0.00304782777       102158.795      0.218937899      0.113921073    0.00417425411      0.337033226
           0.785    0.00304849166       102091.974       0.21527153      0.117445587     0.0045618267      0.337278944
           0.795    0.00304915596       102025.178       0.21159157      0.120957107    0.00497629215       0.33752497
           0.805    0.00304982067       101958.407      0.207901338      0.124451194    0.00541877207      0.337771304
           0.815    0.00305048578       101891.661      0.204204091       0.12792347    0.00589038649      0.338017947
           0.825    0.00305115128        101824.94      0.200503019      0.131369627    0.00639225102      0.338264898
           0.835    0.00305181717       101758.243      0.196801244      0.134785438    0.00692547395      0.338512156
           0.845    0.00305248345       101691.571      0.193101808       0.13816676    0.00749115337      0.338759722
           0.855    0.00305315009       101624.925      0.189407676      0.141509545    0.00809037432      0.339007596
           0.865    0.00305381711       101558.303      0.185721727      0.144809845    0.00872420583      0.339255778
           0.875    0.00305448447       101491.706      0.182046751      0.148063819    0.00939369812      0.339504268
           0.885    0.00305515219       101425.135       0.17838545      0.151267738     0.0100998797      0.339753067
           0.895    0.00305582025       101358.588       0.17474043      0.154417992     0.0108437548      0.340002177
           0.905    0.00305648864       101292.067      0.171114202      0.157511094        0.0116263      0.340251597
           0.915    0.00305715734       101225.571      0.167509181      0.160543684     0.0124484626      0.340501329
           0.925    0.00305782636       101159.099      0.163927681      0.163512535     0.0133111571      0.340751374
           0.935    0.00305849567       101092.653      0.160371917      0.166414554     0.0142152629      0.341001734
           0.945    0.00305916527       101026.233      0.156844001      0.169246788     0.0151616224      0.341252412
           0.955    0.00305983515       100959.837      0.153345947      0.172006424     0.0161510377      0.341503409
           0.965    0.00306050529       100893.467      0.149879665      0.174690794     0.0171842694      0.341754729
           0.975    0.00306117568       100827.123      0.146446964      0.177297376     0.0182620337      0.342006373
           0.985     0.0030618463       100760.803       0.14304955      0.179823795     0.0193850011      0.342258347
           0.995    0.00306251715       100694.509      0.139689037      0.182267821     0.0205537925      0.342510651
