/*--------------------------------*- C++ -*----------------------------------*\
  =========                 |
  \\      /  F ield         | OpenFOAM: The Open Source CFD Toolbox
   \\    /   O peration     | Website:  https://openfoam.org
    \\  /    A nd           | Version:  12
     \\/     M anipulation  |
\*---------------------------------------------------------------------------*/
FoamFile
{
    format      ascii;
    class       volScalarField;
    location    "16.52";
    object      p;
}
// * * * * * * * * * * * * * * * * * * * * * * * * * * * * * * * * * * * * * //

dimensions      [1 -1 -2 0 0 0 0];

internalField   nonuniform List<scalar> 
3829
(
-610.598
-610.599
-610.601
-610.605
-610.609
-610.616
-610.623
-610.632
-610.643
-610.656
-610.67
-610.686
-610.704
-610.725
-610.748
-610.774
-610.802
-610.833
-610.868
-610.905
-610.946
-610.991
-611.038
-611.09
-611.144
-611.203
-611.264
-611.329
-611.397
-611.469
-611.542
-611.619
-611.698
-611.779
-611.862
-611.946
-612.031
-612.117
-612.204
-612.291
-612.377
-612.463
-612.547
-612.63
-612.711
-612.79
-612.866
-612.94
-613.01
-613.075
-613.136
-613.193
-613.244
-613.292
-613.334
-613.371
-613.404
-613.432
-613.456
-613.475
-613.49
-613.501
-613.508
-613.512
-613.513
-613.512
-613.509
-613.504
-613.498
-613.493
-613.488
-613.484
-613.482
-613.483
-613.486
-613.493
-613.505
-613.521
-613.542
-613.568
-613.601
-613.639
-613.683
-613.733
-613.787
-613.847
-613.91
-613.977
-614.046
-614.117
-614.189
-614.26
-614.329
-614.395
-614.456
-614.511
-614.56
-614.6
-614.631
-614.652
-614.662
-614.66
-614.646
-614.621
-614.586
-614.541
-614.487
-614.426
-614.36
-614.291
-614.22
-614.151
-614.085
-614.025
-613.974
-613.933
-613.905
-613.89
-613.89
-613.906
-613.937
-613.981
-614.038
-614.106
-614.181
-614.261
-614.343
-614.421
-614.494
-614.557
-614.607
-614.642
-614.66
-614.658
-614.639
-614.603
-614.553
-614.491
-614.423
-614.352
-614.283
-614.221
-614.171
-614.136
-614.119
-614.127
-614.153
-614.196
-614.252
-614.317
-614.384
-614.448
-614.502
-614.54
-614.558
-614.554
-614.525
-614.475
-614.408
-614.33
-614.246
-614.17
-614.109
-614.067
-614.051
-614.063
-614.1
-614.16
-614.234
-614.315
-614.391
-614.452
-614.491
-614.503
-614.486
-614.442
-614.38
-614.307
-614.233
-614.173
-614.135
-614.123
-614.137
-614.175
-614.227
-614.284
-614.333
-614.367
-614.379
-614.369
-614.343
-614.31
-614.281
-614.267
-614.274
-614.305
-614.354
-614.41
-614.459
-614.488
-1768.81
-1768.81
-1768.81
-1768.82
-1768.82
-1768.82
-1768.83
-1768.83
-1768.84
-1768.85
-1768.86
-1768.87
-1768.89
-1768.9
-1768.93
-1768.95
-1768.98
-1769.02
-1769.05
-1769.09
-1769.14
-1769.19
-1769.24
-1769.3
-1769.37
-1769.43
-1769.51
-1769.58
-1769.66
-1769.74
-1769.83
-1769.92
-1770.01
-1770.11
-1770.2
-1770.3
-1770.4
-1770.5
-1770.6
-1770.7
-1770.8
-1770.9
-1770.99
-1771.09
-1771.18
-1771.26
-1771.35
-1771.42
-1771.5
-1771.57
-1771.63
-1771.69
-1771.74
-1771.79
-1771.83
-1771.87
-1771.9
-1771.92
-1771.94
-1771.95
-1771.95
-1771.95
-1771.95
-1771.94
-1771.93
-1771.92
-1771.91
-1771.89
-1771.87
-1771.86
-1771.84
-1771.82
-1771.81
-1771.8
-1771.8
-1771.8
-1771.81
-1771.82
-1771.84
-1771.87
-1771.9
-1771.94
-1771.99
-1772.04
-1772.1
-1772.17
-1772.25
-1772.32
-1772.41
-1772.49
-1772.57
-1772.66
-1772.74
-1772.82
-1772.89
-1772.96
-1773.01
-1773.06
-1773.1
-1773.12
-1773.13
-1773.12
-1773.11
-1773.08
-1773.03
-1772.97
-1772.91
-1772.83
-1772.75
-1772.66
-1772.58
-1772.49
-1772.41
-1772.34
-1772.28
-1772.23
-1772.19
-1772.17
-1772.17
-1772.19
-1772.23
-1772.29
-1772.36
-1772.44
-1772.53
-1772.63
-1772.73
-1772.82
-1772.91
-1772.98
-1773.04
-1773.08
-1773.1
-1773.1
-1773.07
-1773.03
-1772.96
-1772.89
-1772.8
-1772.71
-1772.63
-1772.55
-1772.49
-1772.45
-1772.43
-1772.44
-1772.47
-1772.53
-1772.6
-1772.68
-1772.76
-1772.85
-1772.91
-1772.96
-1772.98
-1772.98
-1772.94
-1772.88
-1772.8
-1772.71
-1772.6
-1772.51
-1772.44
-1772.39
-1772.37
-1772.38
-1772.43
-1772.5
-1772.59
-1772.69
-1772.79
-1772.86
-1772.91
-1772.92
-1772.9
-1772.84
-1772.76
-1772.68
-1772.58
-1772.51
-1772.47
-1772.46
-1772.48
-1772.53
-1772.59
-1772.66
-1772.72
-1772.76
-1772.77
-1772.76
-1772.72
-1772.68
-1772.64
-1772.62
-1772.62
-1772.66
-1772.72
-1772.79
-1772.85
-1772.88
-2794.85
-2794.85
-2794.85
-2794.85
-2794.85
-2794.85
-2794.85
-2794.85
-2794.85
-2794.86
-2794.86
-2794.87
-2794.88
-2794.89
-2794.9
-2794.92
-2794.94
-2794.96
-2794.99
-2795.03
-2795.07
-2795.12
-2795.18
-2795.24
-2795.31
-2795.39
-2795.47
-2795.56
-2795.66
-2795.76
-2795.87
-2795.98
-2796.1
-2796.22
-2796.34
-2796.46
-2796.59
-2796.71
-2796.84
-2796.96
-2797.08
-2797.2
-2797.32
-2797.43
-2797.54
-2797.64
-2797.74
-2797.83
-2797.92
-2797.99
-2798.06
-2798.12
-2798.17
-2798.21
-2798.24
-2798.27
-2798.29
-2798.3
-2798.3
-2798.3
-2798.29
-2798.27
-2798.24
-2798.22
-2798.18
-2798.15
-2798.11
-2798.07
-2798.03
-2797.99
-2797.96
-2797.92
-2797.89
-2797.87
-2797.85
-2797.84
-2797.84
-2797.84
-2797.86
-2797.88
-2797.92
-2797.97
-2798.02
-2798.09
-2798.16
-2798.25
-2798.34
-2798.44
-2798.54
-2798.65
-2798.76
-2798.87
-2798.97
-2799.08
-2799.17
-2799.25
-2799.33
-2799.39
-2799.43
-2799.46
-2799.47
-2799.46
-2799.44
-2799.39
-2799.33
-2799.25
-2799.16
-2799.06
-2798.95
-2798.83
-2798.71
-2798.6
-2798.49
-2798.39
-2798.31
-2798.24
-2798.19
-2798.17
-2798.17
-2798.2
-2798.25
-2798.32
-2798.42
-2798.53
-2798.65
-2798.78
-2798.92
-2799.04
-2799.16
-2799.26
-2799.33
-2799.38
-2799.4
-2799.39
-2799.36
-2799.29
-2799.2
-2799.09
-2798.97
-2798.85
-2798.74
-2798.64
-2798.56
-2798.5
-2798.48
-2798.49
-2798.54
-2798.62
-2798.71
-2798.83
-2798.95
-2799.06
-2799.15
-2799.22
-2799.25
-2799.24
-2799.2
-2799.12
-2799.01
-2798.88
-2798.74
-2798.62
-2798.52
-2798.45
-2798.43
-2798.45
-2798.51
-2798.61
-2798.74
-2798.87
-2798.99
-2799.09
-2799.15
-2799.17
-2799.13
-2799.06
-2798.95
-2798.83
-2798.71
-2798.62
-2798.56
-2798.55
-2798.58
-2798.65
-2798.74
-2798.84
-2798.92
-2798.97
-2798.98
-2798.95
-2798.9
-2798.83
-2798.77
-2798.74
-2798.74
-2798.79
-2798.87
-2798.96
-2799.04
-2799.09
-3703.7
-3703.7
-3703.69
-3703.68
-3703.67
-3703.65
-3703.63
-3703.61
-3703.58
-3703.56
-3703.54
-3703.51
-3703.5
-3703.48
-3703.47
-3703.47
-3703.47
-3703.49
-3703.52
-3703.55
-3703.6
-3703.66
-3703.73
-3703.81
-3703.91
-3704.01
-3704.13
-3704.25
-3704.39
-3704.53
-3704.68
-3704.84
-3705
-3705.16
-3705.33
-3705.49
-3705.66
-3705.82
-3705.99
-3706.15
-3706.3
-3706.46
-3706.6
-3706.74
-3706.87
-3706.99
-3707.1
-3707.21
-3707.3
-3707.38
-3707.45
-3707.51
-3707.56
-3707.6
-3707.63
-3707.65
-3707.65
-3707.64
-3707.62
-3707.6
-3707.56
-3707.52
-3707.46
-3707.4
-3707.34
-3707.27
-3707.2
-3707.13
-3707.06
-3706.99
-3706.92
-3706.86
-3706.8
-3706.76
-3706.72
-3706.69
-3706.67
-3706.67
-3706.68
-3706.71
-3706.75
-3706.8
-3706.87
-3706.95
-3707.05
-3707.16
-3707.28
-3707.41
-3707.55
-3707.69
-3707.83
-3707.98
-3708.12
-3708.25
-3708.38
-3708.49
-3708.59
-3708.66
-3708.72
-3708.76
-3708.77
-3708.76
-3708.72
-3708.65
-3708.57
-3708.46
-3708.33
-3708.19
-3708.04
-3707.88
-3707.71
-3707.56
-3707.41
-3707.27
-3707.16
-3707.07
-3707
-3706.97
-3706.98
-3707.02
-3707.09
-3707.19
-3707.32
-3707.47
-3707.64
-3707.82
-3708
-3708.17
-3708.33
-3708.46
-3708.56
-3708.62
-3708.65
-3708.63
-3708.57
-3708.47
-3708.35
-3708.2
-3708.03
-3707.86
-3707.7
-3707.56
-3707.45
-3707.38
-3707.36
-3707.38
-3707.44
-3707.55
-3707.69
-3707.85
-3708.02
-3708.17
-3708.3
-3708.4
-3708.44
-3708.43
-3708.37
-3708.26
-3708.11
-3707.94
-3707.74
-3707.57
-3707.44
-3707.35
-3707.32
-3707.35
-3707.44
-3707.58
-3707.75
-3707.93
-3708.1
-3708.23
-3708.31
-3708.33
-3708.28
-3708.17
-3708.03
-3707.86
-3707.7
-3707.58
-3707.51
-3707.49
-3707.54
-3707.64
-3707.77
-3707.9
-3708.01
-3708.07
-3708.08
-3708.04
-3707.95
-3707.86
-3707.77
-3707.72
-3707.72
-3707.78
-3707.89
-3708.01
-3708.13
-3708.19
-4509.05
-4509.04
-4509.02
-4508.99
-4508.94
-4508.89
-4508.83
-4508.76
-4508.69
-4508.62
-4508.54
-4508.47
-4508.4
-4508.34
-4508.3
-4508.26
-4508.23
-4508.22
-4508.22
-4508.25
-4508.29
-4508.35
-4508.43
-4508.54
-4508.66
-4508.8
-4508.95
-4509.12
-4509.31
-4509.51
-4509.71
-4509.93
-4510.15
-4510.37
-4510.6
-4510.82
-4511.04
-4511.26
-4511.48
-4511.69
-4511.89
-4512.08
-4512.26
-4512.43
-4512.59
-4512.73
-4512.87
-4512.98
-4513.09
-4513.18
-4513.25
-4513.31
-4513.35
-4513.37
-4513.38
-4513.38
-4513.36
-4513.32
-4513.28
-4513.22
-4513.15
-4513.06
-4512.97
-4512.87
-4512.77
-4512.66
-4512.54
-4512.43
-4512.31
-4512.2
-4512.1
-4512
-4511.91
-4511.83
-4511.77
-4511.72
-4511.69
-4511.67
-4511.68
-4511.7
-4511.75
-4511.81
-4511.9
-4512.01
-4512.13
-4512.28
-4512.43
-4512.6
-4512.79
-4512.97
-4513.17
-4513.36
-4513.54
-4513.72
-4513.89
-4514.03
-4514.16
-4514.26
-4514.34
-4514.38
-4514.4
-4514.38
-4514.32
-4514.23
-4514.11
-4513.97
-4513.79
-4513.6
-4513.39
-4513.17
-4512.95
-4512.74
-4512.53
-4512.35
-4512.2
-4512.08
-4512
-4511.96
-4511.96
-4512.02
-4512.11
-4512.25
-4512.43
-4512.64
-4512.87
-4513.11
-4513.35
-4513.58
-4513.79
-4513.96
-4514.09
-4514.17
-4514.2
-4514.17
-4514.09
-4513.95
-4513.77
-4513.56
-4513.33
-4513.1
-4512.88
-4512.69
-4512.55
-4512.45
-4512.42
-4512.45
-4512.55
-4512.7
-4512.89
-4513.11
-4513.35
-4513.57
-4513.74
-4513.87
-4513.93
-4513.92
-4513.84
-4513.68
-4513.48
-4513.24
-4512.98
-4512.76
-4512.57
-4512.46
-4512.42
-4512.46
-4512.59
-4512.78
-4513.01
-4513.26
-4513.48
-4513.65
-4513.76
-4513.78
-4513.7
-4513.56
-4513.36
-4513.14
-4512.92
-4512.76
-4512.67
-4512.66
-4512.73
-4512.87
-4513.05
-4513.23
-4513.37
-4513.46
-4513.46
-4513.39
-4513.27
-4513.13
-4513
-4512.92
-4512.93
-4513.01
-4513.15
-4513.32
-4513.48
-4513.57
-5222.71
-5222.69
-5222.64
-5222.57
-5222.48
-5222.37
-5222.25
-5222.1
-5221.95
-5221.79
-5221.63
-5221.48
-5221.34
-5221.2
-5221.06
-5220.94
-5220.84
-5220.77
-5220.72
-5220.7
-5220.72
-5220.78
-5220.88
-5221.01
-5221.18
-5221.38
-5221.61
-5221.86
-5222.13
-5222.42
-5222.73
-5223.03
-5223.35
-5223.66
-5223.97
-5224.27
-5224.57
-5224.86
-5225.14
-5225.41
-5225.66
-5225.9
-5226.12
-5226.33
-5226.51
-5226.68
-5226.83
-5226.96
-5227.07
-5227.16
-5227.23
-5227.28
-5227.32
-5227.33
-5227.32
-5227.29
-5227.24
-5227.17
-5227.09
-5226.99
-5226.87
-5226.74
-5226.6
-5226.45
-5226.29
-5226.13
-5225.96
-5225.8
-5225.63
-5225.47
-5225.32
-5225.18
-5225.05
-5224.93
-5224.84
-5224.76
-5224.71
-5224.68
-5224.68
-5224.71
-5224.76
-5224.84
-5224.95
-5225.09
-5225.25
-5225.43
-5225.64
-5225.86
-5226.1
-5226.34
-5226.59
-5226.84
-5227.09
-5227.32
-5227.53
-5227.73
-5227.89
-5228.02
-5228.12
-5228.17
-5228.19
-5228.16
-5228.08
-5227.97
-5227.81
-5227.61
-5227.38
-5227.12
-5226.84
-5226.55
-5226.26
-5225.98
-5225.71
-5225.47
-5225.27
-5225.11
-5225.01
-5224.96
-5224.97
-5225.04
-5225.17
-5225.36
-5225.59
-5225.87
-5226.17
-5226.49
-5226.81
-5227.11
-5227.38
-5227.61
-5227.78
-5227.88
-5227.91
-5227.86
-5227.75
-5227.56
-5227.32
-5227.04
-5226.73
-5226.42
-5226.13
-5225.88
-5225.68
-5225.56
-5225.53
-5225.57
-5225.7
-5225.9
-5226.16
-5226.45
-5226.8
-5227.07
-5227.31
-5227.48
-5227.56
-5227.54
-5227.43
-5227.23
-5226.96
-5226.65
-5226.3
-5226
-5225.77
-5225.61
-5225.56
-5225.63
-5225.79
-5226.05
-5226.35
-5226.68
-5226.97
-5227.2
-5227.33
-5227.34
-5227.25
-5227.05
-5226.79
-5226.49
-5226.22
-5226.01
-5225.89
-5225.89
-5225.99
-5226.18
-5226.41
-5226.66
-5226.85
-5226.95
-5226.95
-5226.85
-5226.68
-5226.48
-5226.3
-5226.2
-5226.2
-5226.31
-5226.5
-5226.73
-5226.93
-5227.05
-5855.4
-5855.35
-5855.26
-5855.12
-5854.93
-5854.7
-5854.42
-5854.11
-5853.78
-5853.42
-5853.06
-5852.69
-5852.32
-5851.99
-5851.7
-5851.45
-5851.26
-5851.12
-5851.04
-5851.03
-5851.08
-5851.19
-5851.37
-5851.6
-5851.89
-5852.21
-5852.6
-5853
-5853.45
-5853.88
-5854.34
-5854.78
-5855.21
-5855.63
-5856.04
-5856.44
-5856.83
-5857.19
-5857.54
-5857.87
-5858.17
-5858.46
-5858.72
-5858.96
-5859.17
-5859.36
-5859.53
-5859.67
-5859.79
-5859.88
-5859.94
-5859.97
-5859.98
-5859.96
-5859.93
-5859.86
-5859.78
-5859.67
-5859.54
-5859.39
-5859.22
-5859.03
-5858.84
-5858.63
-5858.41
-5858.18
-5857.95
-5857.73
-5857.5
-5857.28
-5857.08
-5856.88
-5856.71
-5856.55
-5856.42
-5856.32
-5856.24
-5856.2
-5856.19
-5856.22
-5856.29
-5856.39
-5856.52
-5856.69
-5856.9
-5857.13
-5857.39
-5857.67
-5857.98
-5858.29
-5858.61
-5858.93
-5859.24
-5859.53
-5859.81
-5860.05
-5860.26
-5860.43
-5860.55
-5860.62
-5860.63
-5860.59
-5860.49
-5860.34
-5860.13
-5859.88
-5859.58
-5859.24
-5858.89
-5858.51
-5858.14
-5857.78
-5857.44
-5857.13
-5856.87
-5856.67
-5856.54
-5856.47
-5856.49
-5856.59
-5856.76
-5857
-5857.31
-5857.66
-5858.05
-5858.46
-5858.87
-5859.25
-5859.6
-5859.88
-5860.1
-5860.22
-5860.26
-5860.19
-5860.03
-5859.79
-5859.47
-5859.1
-5858.7
-5858.3
-5857.93
-5857.6
-5857.35
-5857.2
-5857.16
-5857.22
-5857.4
-5857.67
-5858.01
-5858.39
-5858.82
-5859.19
-5859.49
-5859.71
-5859.82
-5859.8
-5859.65
-5859.39
-5859.04
-5858.63
-5858.19
-5857.81
-5857.5
-5857.31
-5857.25
-5857.34
-5857.55
-5857.88
-5858.28
-5858.7
-5859.07
-5859.36
-5859.52
-5859.53
-5859.4
-5859.14
-5858.8
-5858.43
-5858.08
-5857.81
-5857.67
-5857.67
-5857.81
-5858.05
-5858.36
-5858.68
-5858.92
-5859.05
-5859.04
-5858.9
-5858.68
-5858.42
-5858.18
-5858.04
-5858.04
-5858.18
-5858.43
-5858.72
-5858.98
-5859.14
-6416.93
-6416.85
-6416.7
-6416.47
-6416.14
-6415.72
-6415.21
-6414.62
-6414
-6413.36
-6412.74
-6412.13
-6411.57
-6411.05
-6410.6
-6410.21
-6409.91
-6409.69
-6409.56
-6409.52
-6409.56
-6409.68
-6409.9
-6410.18
-6410.54
-6410.95
-6411.47
-6412.04
-6412.65
-6413.26
-6413.87
-6414.46
-6415.03
-6415.59
-6416.12
-6416.62
-6417.1
-6417.54
-6417.96
-6418.34
-6418.7
-6419.02
-6419.32
-6419.58
-6419.82
-6420.02
-6420.19
-6420.33
-6420.44
-6420.51
-6420.57
-6420.59
-6420.59
-6420.54
-6420.47
-6420.37
-6420.24
-6420.09
-6419.9
-6419.7
-6419.47
-6419.22
-6418.96
-6418.68
-6418.39
-6418.1
-6417.8
-6417.5
-6417.21
-6416.93
-6416.66
-6416.41
-6416.18
-6415.98
-6415.81
-6415.68
-6415.58
-6415.52
-6415.5
-6415.54
-6415.61
-6415.74
-6415.9
-6416.12
-6416.37
-6416.66
-6416.98
-6417.34
-6417.71
-6418.1
-6418.5
-6418.9
-6419.28
-6419.65
-6419.99
-6420.3
-6420.56
-6420.77
-6420.92
-6421
-6421.01
-6420.96
-6420.83
-6420.64
-6420.38
-6420.05
-6419.68
-6419.26
-6418.81
-6418.34
-6417.88
-6417.42
-6417
-6416.61
-6416.29
-6416.04
-6415.88
-6415.8
-6415.83
-6415.95
-6416.17
-6416.48
-6416.86
-6417.31
-6417.79
-6418.31
-6418.81
-6419.3
-6419.72
-6420.08
-6420.34
-6420.49
-6420.53
-6420.44
-6420.24
-6419.92
-6419.52
-6419.05
-6418.55
-6418.04
-6417.57
-6417.16
-6416.85
-6416.66
-6416.61
-6416.7
-6416.93
-6417.27
-6417.71
-6418.2
-6418.72
-6419.19
-6419.58
-6419.86
-6419.99
-6419.96
-6419.77
-6419.44
-6419
-6418.49
-6417.94
-6417.46
-6417.08
-6416.85
-6416.78
-6416.89
-6417.16
-6417.57
-6418.07
-6418.6
-6419.07
-6419.42
-6419.61
-6419.62
-6419.45
-6419.12
-6418.7
-6418.22
-6417.79
-6417.46
-6417.29
-6417.3
-6417.48
-6417.79
-6418.17
-6418.6
-6418.89
-6419.04
-6419.02
-6418.84
-6418.55
-6418.22
-6417.91
-6417.74
-6417.73
-6417.91
-6418.22
-6418.59
-6418.92
-6419.11
-6915.62
-6915.48
-6915.19
-6914.74
-6914.16
-6913.42
-6912.54
-6911.45
-6910.37
-6909.23
-6908.04
-6906.88
-6905.78
-6904.78
-6903.91
-6903.19
-6902.63
-6902.25
-6902.03
-6902
-6902.17
-6902.57
-6903.17
-6903.84
-6904.54
-6905.25
-6906.03
-6906.9
-6907.82
-6908.72
-6909.6
-6910.42
-6911.19
-6911.9
-6912.55
-6913.15
-6913.7
-6914.21
-6914.67
-6915.1
-6915.49
-6915.84
-6916.15
-6916.43
-6916.68
-6916.89
-6917.06
-6917.2
-6917.31
-6917.38
-6917.41
-6917.41
-6917.37
-6917.29
-6917.18
-6917.04
-6916.86
-6916.65
-6916.41
-6916.14
-6915.85
-6915.53
-6915.19
-6914.84
-6914.48
-6914.11
-6913.73
-6913.36
-6912.99
-6912.64
-6912.31
-6911.99
-6911.71
-6911.46
-6911.25
-6911.08
-6910.95
-6910.88
-6910.86
-6910.9
-6910.99
-6911.13
-6911.34
-6911.6
-6911.9
-6912.26
-6912.65
-6913.08
-6913.54
-6914.01
-6914.5
-6914.98
-6915.46
-6915.9
-6916.32
-6916.69
-6917
-6917.26
-6917.44
-6917.54
-6917.55
-6917.48
-6917.33
-6917.08
-6916.76
-6916.36
-6915.9
-6915.39
-6914.84
-6914.27
-6913.7
-6913.15
-6912.63
-6912.16
-6911.77
-6911.47
-6911.27
-6911.19
-6911.22
-6911.37
-6911.64
-6912.02
-6912.49
-6913.04
-6913.64
-6914.26
-6914.88
-6915.47
-6915.99
-6916.42
-6916.73
-6916.91
-6916.95
-6916.84
-6916.58
-6916.19
-6915.69
-6915.11
-6914.49
-6913.87
-6913.29
-6912.79
-6912.41
-6912.19
-6912.13
-6912.25
-6912.53
-6912.96
-6913.5
-6914.11
-6914.75
-6915.32
-6915.8
-6916.14
-6916.3
-6916.26
-6916.02
-6915.62
-6915.07
-6914.45
-6913.78
-6913.2
-6912.74
-6912.45
-6912.37
-6912.51
-6912.85
-6913.35
-6913.96
-6914.62
-6915.18
-6915.61
-6915.84
-6915.84
-6915.63
-6915.22
-6914.69
-6914.12
-6913.59
-6913.2
-6913
-6913.02
-6913.25
-6913.63
-6914.09
-6914.64
-6914.97
-6915.15
-6915.12
-6914.9
-6914.53
-6914.12
-6913.73
-6913.52
-6913.51
-6913.73
-6914.11
-6914.56
-6914.97
-6915.21
-7359.34
-7359.16
-7358.78
-7358.22
-7357.49
-7356.2
-7354.57
-7352.49
-7349.71
-7347.12
-7345.15
-7343.4
-7341.94
-7340.68
-7339.58
-7338.65
-7337.9
-7337.46
-7337.2
-7337.03
-7336.97
-7337.01
-7337.24
-7337.79
-7338.9
-7340.45
-7342.55
-7344.93
-7346.68
-7348.03
-7349.23
-7350.23
-7351.13
-7351.93
-7352.66
-7353.31
-7353.9
-7354.44
-7354.93
-7355.38
-7355.79
-7356.15
-7356.48
-7356.76
-7357.01
-7357.22
-7357.39
-7357.53
-7357.61
-7357.66
-7357.68
-7357.65
-7357.59
-7357.47
-7357.32
-7357.13
-7356.9
-7356.64
-7356.33
-7356
-7355.63
-7355.24
-7354.83
-7354.4
-7353.95
-7353.5
-7353.05
-7352.59
-7352.15
-7351.72
-7351.32
-7350.94
-7350.59
-7350.29
-7350.03
-7349.83
-7349.68
-7349.59
-7349.57
-7349.61
-7349.71
-7349.89
-7350.13
-7350.44
-7350.8
-7351.23
-7351.7
-7352.21
-7352.76
-7353.32
-7353.91
-7354.48
-7355.04
-7355.58
-7356.07
-7356.51
-7356.89
-7357.19
-7357.4
-7357.52
-7357.54
-7357.45
-7357.26
-7356.97
-7356.58
-7356.1
-7355.55
-7354.94
-7354.28
-7353.6
-7352.92
-7352.26
-7351.64
-7351.09
-7350.62
-7350.27
-7350.03
-7349.93
-7349.98
-7350.16
-7350.49
-7350.94
-7351.51
-7352.16
-7352.88
-7353.63
-7354.37
-7355.06
-7355.68
-7356.19
-7356.56
-7356.77
-7356.81
-7356.66
-7356.35
-7355.87
-7355.27
-7354.58
-7353.83
-7353.08
-7352.39
-7351.79
-7351.35
-7351.08
-7351.02
-7351.16
-7351.51
-7352.03
-7352.68
-7353.42
-7354.18
-7354.87
-7355.45
-7355.85
-7356.04
-7355.99
-7355.7
-7355.21
-7354.56
-7353.81
-7353.02
-7352.32
-7351.77
-7351.43
-7351.34
-7351.51
-7351.92
-7352.52
-7353.24
-7354.05
-7354.72
-7355.21
-7355.48
-7355.48
-7355.22
-7354.73
-7354.09
-7353.41
-7352.78
-7352.32
-7352.08
-7352.12
-7352.4
-7352.87
-7353.41
-7354.07
-7354.47
-7354.68
-7354.64
-7354.36
-7353.92
-7353.42
-7352.94
-7352.69
-7352.68
-7352.94
-7353.39
-7353.94
-7354.42
-7354.71
-7754.37
-7754.09
-7753.5
-7752.55
-7751.12
-7749.5
-7747.31
-7744.7
-7741.19
-7738.47
-7735.93
-7733.68
-7731.77
-7730.15
-7728.83
-7727.77
-7726.91
-7726.1
-7725.5
-7725.21
-7725.2
-7725.47
-7726.04
-7726.9
-7728.08
-7729.54
-7731.29
-7734.03
-7736.14
-7737.91
-7739.29
-7740.46
-7741.38
-7742.2
-7742.92
-7743.57
-7744.15
-7744.68
-7745.16
-7745.61
-7746.01
-7746.38
-7746.7
-7746.99
-7747.24
-7747.45
-7747.61
-7747.74
-7747.82
-7747.85
-7747.84
-7747.79
-7747.68
-7747.53
-7747.34
-7747.1
-7746.81
-7746.49
-7746.12
-7745.72
-7745.28
-7744.81
-7744.32
-7743.8
-7743.27
-7742.74
-7742.2
-7741.66
-7741.14
-7740.63
-7740.15
-7739.7
-7739.3
-7738.94
-7738.63
-7738.39
-7738.22
-7738.11
-7738.08
-7738.13
-7738.25
-7738.46
-7738.74
-7739.1
-7739.53
-7740.03
-7740.58
-7741.18
-7741.82
-7742.48
-7743.16
-7743.84
-7744.5
-7745.12
-7745.7
-7746.21
-7746.65
-7747
-7747.25
-7747.38
-7747.4
-7747.3
-7747.07
-7746.73
-7746.27
-7745.71
-7745.06
-7744.34
-7743.57
-7742.77
-7741.98
-7741.2
-7740.48
-7739.84
-7739.29
-7738.88
-7738.61
-7738.5
-7738.55
-7738.78
-7739.16
-7739.69
-7740.36
-7741.12
-7741.96
-7742.85
-7743.71
-7744.52
-7745.25
-7745.84
-7746.27
-7746.51
-7746.54
-7746.37
-7745.99
-7745.43
-7744.72
-7743.9
-7743.01
-7742.14
-7741.32
-7740.63
-7740.11
-7739.8
-7739.73
-7739.91
-7740.32
-7740.94
-7741.71
-7742.58
-7743.48
-7744.29
-7744.97
-7745.44
-7745.65
-7745.59
-7745.25
-7744.67
-7743.9
-7743.02
-7742.1
-7741.29
-7740.64
-7740.25
-7740.15
-7740.35
-7740.84
-7741.54
-7742.37
-7743.35
-7744.11
-7744.69
-7745
-7744.99
-7744.67
-7744.09
-7743.34
-7742.54
-7741.81
-7741.27
-7741.01
-7741.06
-7741.4
-7741.95
-7742.61
-7743.36
-7743.83
-7744.07
-7744.01
-7743.68
-7743.16
-7742.57
-7741.99
-7741.7
-7741.69
-7741.99
-7742.53
-7743.17
-7743.74
-7744.08
-8106.6
-8106.53
-8106.38
-8106.21
-8106.02
-8106.04
-8106.19
-8105.77
-8085.54
-8085.8
-8086.18
-8086.64
-8087.25
-8087.81
-8088.4
-8088.97
-8089.53
-8090.05
-8090.55
-8091.01
-8091.44
-8091.84
-8092.2
-8092.52
-8092.81
-8093.05
-8093.26
-8093.42
-8093.53
-8093.6
-8093.62
-8093.58
-8093.5
-8093.37
-8093.18
-8092.94
-8092.65
-8092.31
-8091.92
-8091.49
-8091.01
-8090.5
-8089.95
-8089.38
-8088.78
-8088.17
-8087.54
-8086.91
-8086.29
-8085.68
-8085.1
-8084.54
-8084.02
-8083.55
-8083.14
-8082.79
-8082.51
-8082.31
-8082.18
-8082.15
-8082.2
-8082.35
-8082.59
-8082.91
-8083.33
-8083.82
-8084.39
-8085.03
-8085.72
-8086.46
-8087.22
-8088
-8088.78
-8089.54
-8090.26
-8090.92
-8091.51
-8092.01
-8092.41
-8092.69
-8092.85
-8092.86
-8092.74
-8092.48
-8092.08
-8091.55
-8090.91
-8090.16
-8089.33
-8088.44
-8087.53
-8086.61
-8085.72
-8084.89
-8084.15
-8083.53
-8083.06
-8082.75
-8082.63
-8082.69
-8082.95
-8083.4
-8084.02
-8084.78
-8085.66
-8086.63
-8087.66
-8088.65
-8089.58
-8090.4
-8091.08
-8091.57
-8091.84
-8091.88
-8091.67
-8091.23
-8090.57
-8089.75
-8088.8
-8087.78
-8086.77
-8085.83
-8085.03
-8084.43
-8084.08
-8084
-8084.22
-8084.7
-8085.42
-8086.32
-8087.32
-8088.36
-8089.3
-8090.08
-8090.62
-8090.86
-8090.79
-8090.39
-8089.72
-8088.83
-8087.81
-8086.75
-8085.82
-8085.08
-8084.63
-8084.52
-8084.76
-8085.33
-8086.14
-8087.08
-8088.24
-8089.1
-8089.75
-8090.1
-8090.08
-8089.71
-8089.04
-8088.18
-8087.25
-8086.42
-8085.8
-8085.51
-8085.57
-8085.97
-8086.62
-8087.39
-8088.22
-8088.77
-8089.05
-8088.98
-8088.59
-8087.98
-8087.3
-8086.62
-8086.28
-8086.27
-8086.62
-8087.24
-8087.98
-8088.64
-8089.03
-8419.08
-8419.04
-8418.95
-8418.83
-8418.65
-8418.45
-8418.15
-8417.97
-8392.65
-8392.97
-8393.32
-8393.7
-8394.17
-8394.64
-8395.13
-8395.62
-8396.11
-8396.59
-8397.05
-8397.49
-8397.91
-8398.3
-8398.65
-8398.98
-8399.26
-8399.51
-8399.71
-8399.87
-8399.97
-8400.03
-8400.03
-8399.97
-8399.86
-8399.7
-8399.47
-8399.19
-8398.85
-8398.45
-8398
-8397.51
-8396.96
-8396.37
-8395.75
-8395.09
-8394.4
-8393.7
-8392.99
-8392.28
-8391.57
-8390.88
-8390.21
-8389.58
-8388.99
-8388.46
-8387.99
-8387.59
-8387.27
-8387.04
-8386.9
-8386.86
-8386.92
-8387.09
-8387.36
-8387.73
-8388.2
-8388.76
-8389.41
-8390.14
-8390.92
-8391.75
-8392.62
-8393.5
-8394.38
-8395.24
-8396.05
-8396.8
-8397.47
-8398.04
-8398.49
-8398.8
-8398.97
-8398.99
-8398.85
-8398.55
-8398.1
-8397.5
-8396.77
-8395.92
-8394.98
-8393.97
-8392.93
-8391.89
-8390.89
-8389.95
-8389.12
-8388.42
-8387.89
-8387.54
-8387.41
-8387.49
-8387.78
-8388.29
-8389
-8389.86
-8390.86
-8391.95
-8393.13
-8394.25
-8395.3
-8396.23
-8396.99
-8397.54
-8397.84
-8397.88
-8397.63
-8397.13
-8396.38
-8395.44
-8394.35
-8393.2
-8392.05
-8390.98
-8390.08
-8389.4
-8389.01
-8388.93
-8389.18
-8389.73
-8390.56
-8391.58
-8392.72
-8393.9
-8394.96
-8395.85
-8396.46
-8396.74
-8396.65
-8396.19
-8395.42
-8394.41
-8393.26
-8392.06
-8391.01
-8390.17
-8389.67
-8389.55
-8389.83
-8390.48
-8391.4
-8392.46
-8393.78
-8394.74
-8395.48
-8395.86
-8395.84
-8395.41
-8394.64
-8393.66
-8392.61
-8391.67
-8390.98
-8390.66
-8390.74
-8391.2
-8391.95
-8392.83
-8393.75
-8394.38
-8394.68
-8394.6
-8394.15
-8393.45
-8392.69
-8391.89
-8391.52
-8391.51
-8391.9
-8392.61
-8393.45
-8394.2
-8394.65
-8696.09
-8696.07
-8696.01
-8695.93
-8695.82
-8695.72
-8695.56
-8695.5
-8665.01
-8665.15
-8665.39
-8665.65
-8666.02
-8666.41
-8666.84
-8667.28
-8667.73
-8668.18
-8668.62
-8669.05
-8669.46
-8669.85
-8670.21
-8670.53
-8670.82
-8671.07
-8671.27
-8671.42
-8671.52
-8671.57
-8671.55
-8671.48
-8671.34
-8671.15
-8670.88
-8670.56
-8670.17
-8669.72
-8669.21
-8668.65
-8668.03
-8667.37
-8666.67
-8665.93
-8665.16
-8664.37
-8663.57
-8662.77
-8661.98
-8661.2
-8660.46
-8659.75
-8659.09
-8658.49
-8657.97
-8657.52
-8657.17
-8656.91
-8656.76
-8656.71
-8656.78
-8656.97
-8657.27
-8657.69
-8658.22
-8658.85
-8659.57
-8660.38
-8661.26
-8662.19
-8663.16
-8664.14
-8665.12
-8666.08
-8666.99
-8667.83
-8668.57
-8669.2
-8669.7
-8670.05
-8670.24
-8670.26
-8670.1
-8669.76
-8669.25
-8668.58
-8667.76
-8666.81
-8665.76
-8664.64
-8663.48
-8662.32
-8661.19
-8660.15
-8659.22
-8658.45
-8657.85
-8657.48
-8657.33
-8657.42
-8657.76
-8658.33
-8659.12
-8660.09
-8661.21
-8662.42
-8663.74
-8664.99
-8666.15
-8667.19
-8668.04
-8668.65
-8668.98
-8669.01
-8668.74
-8668.16
-8667.32
-8666.26
-8665.05
-8663.75
-8662.47
-8661.28
-8660.27
-8659.51
-8659.08
-8658.99
-8659.28
-8659.91
-8660.84
-8661.99
-8663.27
-8664.58
-8665.78
-8666.76
-8667.44
-8667.75
-8667.65
-8667.14
-8666.27
-8665.13
-8663.85
-8662.51
-8661.33
-8660.41
-8659.84
-8659.72
-8660.04
-8660.77
-8661.8
-8662.99
-8664.44
-8665.52
-8666.34
-8666.77
-8666.73
-8666.25
-8665.38
-8664.29
-8663.12
-8662.07
-8661.3
-8660.95
-8661.05
-8661.58
-8662.42
-8663.41
-8664.42
-8665.13
-8665.46
-8665.36
-8664.85
-8664.06
-8663.21
-8662.32
-8661.9
-8661.89
-8662.33
-8663.12
-8664.06
-8664.9
-8665.4
-8941.59
-8941.58
-8941.55
-8941.5
-8941.44
-8941.38
-8941.31
-8941.28
-8905.96
-8906.05
-8906.26
-8906.47
-8906.78
-8907.13
-8907.52
-8907.93
-8908.35
-8908.79
-8909.22
-8909.65
-8910.07
-8910.46
-8910.82
-8911.16
-8911.45
-8911.7
-8911.91
-8912.06
-8912.16
-8912.19
-8912.16
-8912.07
-8911.91
-8911.68
-8911.39
-8911.02
-8910.59
-8910.08
-8909.52
-8908.89
-8908.21
-8907.47
-8906.69
-8905.87
-8905.02
-8904.15
-8903.26
-8902.38
-8901.5
-8900.64
-8899.82
-8899.04
-8898.31
-8897.65
-8897.07
-8896.58
-8896.19
-8895.91
-8895.74
-8895.69
-8895.77
-8895.98
-8896.31
-8896.77
-8897.36
-8898.05
-8898.85
-8899.75
-8900.72
-8901.74
-8902.81
-8903.9
-8904.98
-8906.04
-8907.04
-8907.96
-8908.78
-8909.47
-8910.02
-8910.41
-8910.61
-8910.63
-8910.45
-8910.08
-8909.52
-8908.77
-8907.86
-8906.82
-8905.66
-8904.42
-8903.14
-8901.86
-8900.62
-8899.47
-8898.45
-8897.6
-8896.95
-8896.54
-8896.38
-8896.48
-8896.86
-8897.5
-8898.37
-8899.44
-8900.67
-8902
-8903.48
-8904.84
-8906.13
-8907.27
-8908.2
-8908.87
-8909.23
-8909.26
-8908.95
-8908.31
-8907.38
-8906.2
-8904.86
-8903.42
-8902
-8900.69
-8899.57
-8898.75
-8898.27
-8898.18
-8898.5
-8899.21
-8900.24
-8901.52
-8902.93
-8904.38
-8905.7
-8906.79
-8907.54
-8907.88
-8907.76
-8907.19
-8906.23
-8904.97
-8903.55
-8902.08
-8900.78
-8899.76
-8899.14
-8899.01
-8899.37
-8900.18
-8901.33
-8902.66
-8904.21
-8905.41
-8906.32
-8906.78
-8906.74
-8906.2
-8905.24
-8904.02
-8902.74
-8901.58
-8900.75
-8900.36
-8900.48
-8901.07
-8902.01
-8903.11
-8904.21
-8904.99
-8905.36
-8905.24
-8904.67
-8903.79
-8902.84
-8901.87
-8901.4
-8901.38
-8901.87
-8902.74
-8903.79
-8904.72
-8905.27
-9159.13
-9159.12
-9159.1
-9159.07
-9159.04
-9159.01
-9158.98
-9158.98
-9119.25
-9119.33
-9119.51
-9119.71
-9119.99
-9120.32
-9120.69
-9121.09
-9121.51
-9121.95
-9122.39
-9122.82
-9123.24
-9123.65
-9124.02
-9124.37
-9124.67
-9124.93
-9125.14
-9125.29
-9125.39
-9125.41
-9125.38
-9125.27
-9125.09
-9124.83
-9124.5
-9124.1
-9123.62
-9123.06
-9122.44
-9121.75
-9121
-9120.2
-9119.34
-9118.44
-9117.51
-9116.56
-9115.59
-9114.62
-9113.67
-9112.73
-9111.83
-9110.98
-9110.19
-9109.47
-9108.84
-9108.3
-9107.87
-9107.56
-9107.38
-9107.33
-9107.42
-9107.65
-9108.02
-9108.52
-9109.16
-9109.92
-9110.79
-9111.77
-9112.83
-9113.95
-9115.11
-9116.3
-9117.48
-9118.63
-9119.72
-9120.72
-9121.62
-9122.37
-9122.97
-9123.39
-9123.61
-9123.63
-9123.43
-9123.02
-9122.4
-9121.59
-9120.6
-9119.46
-9118.19
-9116.84
-9115.44
-9114.05
-9112.7
-9111.45
-9110.34
-9109.41
-9108.71
-9108.26
-9108.09
-9108.21
-9108.62
-9109.32
-9110.28
-9111.45
-9112.79
-9114.24
-9115.86
-9117.34
-9118.74
-9119.98
-9120.99
-9121.72
-9122.11
-9122.13
-9121.79
-9121.09
-9120.06
-9118.78
-9117.31
-9115.74
-9114.19
-9112.75
-9111.54
-9110.64
-9110.12
-9110.03
-9110.39
-9111.16
-9112.29
-9113.69
-9115.25
-9116.83
-9118.27
-9119.46
-9120.27
-9120.64
-9120.5
-9119.88
-9118.82
-9117.44
-9115.89
-9114.29
-9112.87
-9111.77
-9111.1
-9110.96
-9111.36
-9112.25
-9113.51
-9114.98
-9116.63
-9117.94
-9118.93
-9119.43
-9119.38
-9118.78
-9117.73
-9116.4
-9115
-9113.75
-9112.84
-9112.42
-9112.56
-9113.22
-9114.25
-9115.45
-9116.65
-9117.49
-9117.89
-9117.76
-9117.13
-9116.16
-9115.11
-9114.07
-9113.55
-9113.53
-9114.06
-9115.02
-9116.16
-9117.17
-9117.78
-9351.86
-9351.85
-9351.84
-9351.82
-9351.8
-9351.78
-9351.76
-9351.76
-9308.1
-9308.17
-9308.35
-9308.54
-9308.82
-9309.14
-9309.51
-9309.91
-9310.33
-9310.78
-9311.23
-9311.67
-9312.11
-9312.53
-9312.92
-9313.28
-9313.59
-9313.86
-9314.08
-9314.24
-9314.33
-9314.35
-9314.31
-9314.18
-9313.98
-9313.7
-9313.34
-9312.9
-9312.38
-9311.78
-9311.1
-9310.35
-9309.54
-9308.67
-9307.74
-9306.77
-9305.76
-9304.73
-9303.68
-9302.63
-9301.6
-9300.59
-9299.62
-9298.7
-9297.84
-9297.07
-9296.38
-9295.8
-9295.34
-9295.01
-9294.81
-9294.76
-9294.86
-9295.11
-9295.51
-9296.05
-9296.74
-9297.57
-9298.51
-9299.57
-9300.71
-9301.92
-9303.18
-9304.46
-9305.74
-9306.98
-9308.15
-9309.24
-9310.2
-9311.02
-9311.66
-9312.11
-9312.35
-9312.36
-9312.15
-9311.7
-9311.04
-9310.15
-9309.08
-9307.85
-9306.48
-9305.02
-9303.51
-9302.01
-9300.56
-9299.21
-9298.01
-9297.01
-9296.25
-9295.77
-9295.59
-9295.72
-9296.18
-9296.93
-9297.97
-9299.24
-9300.69
-9302.25
-9304
-9305.59
-9307.1
-9308.44
-9309.53
-9310.31
-9310.73
-9310.75
-9310.37
-9309.61
-9308.5
-9307.1
-9305.51
-9303.82
-9302.14
-9300.59
-9299.28
-9298.31
-9297.75
-9297.66
-9298.05
-9298.89
-9300.12
-9301.64
-9303.32
-9305.03
-9306.59
-9307.88
-9308.76
-9309.14
-9308.99
-9308.31
-9307.17
-9305.68
-9304
-9302.27
-9300.74
-9299.55
-9298.83
-9298.68
-9299.12
-9300.09
-9301.47
-9303.06
-9304.81
-9306.23
-9307.3
-9307.84
-9307.78
-9307.12
-9305.99
-9304.55
-9303.03
-9301.68
-9300.7
-9300.26
-9300.42
-9301.14
-9302.26
-9303.56
-9304.84
-9305.76
-9306.18
-9306.03
-9305.35
-9304.29
-9303.14
-9302.05
-9301.47
-9301.45
-9302.02
-9303.06
-9304.29
-9305.39
-9306.04
-9522.6
-9522.59
-9522.58
-9522.57
-9522.55
-9522.54
-9522.53
-9522.52
-9475.33
-9475.4
-9475.57
-9475.76
-9476.04
-9476.37
-9476.74
-9477.15
-9477.59