/*--------------------------------*- C++ -*----------------------------------*\
  =========                 |
  \\      /  F ield         | OpenFOAM: The Open Source CFD Toolbox
   \\    /   O peration     | Website:  https://openfoam.org
    \\  /    A nd           | Version:  12
     \\/     M anipulation  |
\*---------------------------------------------------------------------------*/
FoamFile
{
    format      ascii;
    class       volScalarField;
    location    "3.86";
    object      p_rgh;
}
// * * * * * * * * * * * * * * * * * * * * * * * * * * * * * * * * * * * * * //

dimensions      [1 -1 -2 0 0 0 0];

internalField   nonuniform List<scalar> 
3829
(
0.315617
0.315393
0.314938
0.314247
0.313318
0.312148
0.310739
0.309092
0.307211
0.305102
0.302772
0.300229
0.297482
0.294542
0.29142
0.288129
0.28468
0.281087
0.27736
0.273513
0.269554
0.265493
0.261336
0.257088
0.252751
0.248323
0.2438
0.239175
0.234436
0.229568
0.224554
0.219372
0.213998
0.208404
0.202562
0.196441
0.190008
0.183228
0.176068
0.168493
0.160487
0.152027
0.143094
0.133673
0.123754
0.113334
0.102418
0.0910175
0.0791527
0.066853
0.0541571
0.0411131
0.0277789
0.0142211
0.000516313
-0.0132519
-0.0269887
-0.0405944
-0.0539628
-0.0669838
-0.0795426
-0.0915204
-0.102801
-0.113267
-0.122806
-0.131313
-0.138683
-0.144828
-0.149669
-0.153138
-0.155182
-0.155766
-0.154875
-0.152513
-0.148708
-0.143531
-0.137058
-0.129388
-0.12065
-0.110983
-0.100552
-0.089538
-0.0781356
-0.0665572
-0.0550237
-0.0437593
-0.0329944
-0.0229562
-0.0138605
-0.00591092
0.000709458
0.00583996
0.00936226
0.0110713
0.0108494
0.00871958
0.00471926
-0.00109396
-0.00863951
-0.0178044
-0.0284278
-0.0403144
-0.0532345
-0.0669307
-0.0811253
-0.0955232
-0.10982
-0.123719
-0.136928
-0.149167
-0.16018
-0.169737
-0.177646
-0.183748
-0.187934
-0.190132
-0.190296
-0.188474
-0.184738
-0.1792
-0.17201
-0.163357
-0.153457
-0.142547
-0.130886
-0.118742
-0.106385
-0.0940864
-0.0821066
-0.0706895
-0.0600652
-0.0504372
-0.0419792
-0.0348378
-0.0291255
-0.0249217
-0.022272
-0.0211876
-0.0216481
-0.0236029
-0.0269726
-0.031653
-0.037519
-0.044426
-0.0522125
-0.0607097
-0.0697412
-0.0791248
-0.0886815
-0.0982343
-0.107614
-0.116657
-0.125233
-0.133204
-0.140456
-0.14689
-0.152427
-0.157009
-0.160594
-0.163163
-0.164712
-0.16526
-0.164839
-0.163496
-0.161292
-0.158302
-0.154609
-0.150305
-0.14549
-0.140267
-0.13474
-0.129013
-0.123191
-0.117372
-0.111649
-0.10611
-0.100832
-0.0958843
-0.0913234
-0.0871972
-0.0835399
-0.0803749
-0.0777144
-0.0755591
-0.0738989
-0.0727135
-0.0719729
-0.07164
-0.0716695
-0.0720098
-0.0726042
-0.0733924
-0.0743125
-0.075301
-0.0762958
-0.0772379
-0.0780724
-0.0787503
-0.0792305
-0.0794811
0.335164
0.334818
0.334116
0.333052
0.331627
0.329843
0.327707
0.325229
0.322423
0.319307
0.315903
0.312238
0.30834
0.30424
0.29997
0.295563
0.291056
0.286479
0.281864
0.277239
0.272632
0.268063
0.263549
0.259102
0.254727
0.250422
0.24618
0.241984
0.237813
0.233635
0.229416
0.225112
0.220674
0.21605
0.211179
0.206003
0.200457
0.194481
0.188025
0.180991
0.173364
0.165115
0.156213
0.146632
0.136351
0.125359
0.113656
0.101254
0.0881774
0.0744644
0.060166
0.0453466
0.0300838
0.0144666
-0.0014028
-0.0174125
-0.0334375
-0.0493477
-0.065004
-0.0802622
-0.0949737
-0.108987
-0.122153
-0.134319
-0.145348
-0.155104
-0.163461
-0.170306
-0.175548
-0.179106
-0.180923
-0.180945
-0.17915
-0.175557
-0.170184
-0.163146
-0.154544
-0.144522
-0.133231
-0.120851
-0.107586
-0.0936636
-0.0793301
-0.0648464
-0.0504845
-0.0365207
-0.0232376
-0.0109115
0.000195051
0.00983444
0.0177788
0.0238393
0.0278466
0.0298072
0.0294434
0.0267935
0.0218953
0.0148163
0.00566701
-0.00538718
-0.0181303
-0.0323096
-0.0476363
-0.0637923
-0.080439
-0.0972235
-0.11377
-0.129758
-0.144836
-0.158686
-0.171022
-0.181593
-0.190196
-0.196673
-0.200928
-0.202922
-0.202497
-0.199868
-0.195117
-0.188388
-0.179869
-0.169787
-0.158402
-0.14599
-0.132846
-0.119276
-0.105579
-0.0920523
-0.0789768
-0.0666138
-0.0552027
-0.0449542
-0.0360444
-0.0286153
-0.0227732
-0.0185876
-0.0160922
-0.0152831
-0.0161217
-0.0185408
-0.0224445
-0.0277109
-0.0341968
-0.0417415
-0.0501696
-0.059298
-0.0689373
-0.0788957
-0.0889843
-0.0990175
-0.108805
-0.118216
-0.127099
-0.135315
-0.14275
-0.149308
-0.154912
-0.159508
-0.16306
-0.165552
-0.166987
-0.16739
-0.166796
-0.165259
-0.162845
-0.159635
-0.155716
-0.151187
-0.146151
-0.140714
-0.134985
-0.129071
-0.123078
-0.117107
-0.111252
-0.105602
-0.100235
-0.095219
-0.090611
-0.0864576
-0.0827917
-0.0796351
-0.0769982
-0.0748797
-0.0732676
-0.0721397
-0.0714643
-0.0712025
-0.071307
-0.071724
-0.072395
-0.0732583
-0.0742499
-0.0753049
-0.0763599
-0.0773543
-0.078232
-0.0789434
-0.0794463
-0.0797086
0.376476
0.375783
0.374384
0.372275
0.369462
0.365962
0.361804
0.357034
0.351704
0.345875
0.339614
0.332998
0.326107
0.319022
0.311831
0.304625
0.29749
0.290513
0.28377
0.277336
0.271271
0.265627
0.260442
0.255738
0.251521
0.247781
0.244492
0.24161
0.239077
0.236816
0.23474
0.232751
0.230742
0.228598
0.226199
0.22342
0.220135
0.21623
0.211387
0.205774
0.199263
0.191754
0.183172
0.173463
0.162591
0.15054
0.137316
0.122941
0.10746
0.0909333
0.0734458
0.0550988
0.0360135
0.0163272
-0.00380527
-0.0242161
-0.0447196
-0.0651217
-0.0852194
-0.104803
-0.12366
-0.141574
-0.158328
-0.173707
-0.187532
-0.199619
-0.209796
-0.21782
-0.223708
-0.227328
-0.228603
-0.227495
-0.224011
-0.218203
-0.20975
-0.199164
-0.186553
-0.172085
-0.155904
-0.138347
-0.119724
-0.100344
-0.0805324
-0.0606404
-0.041034
-0.0220856
-0.00417197
0.0123409
0.0271101
0.0398166
0.0501855
0.0579739
0.062961
0.0650455
0.0641459
0.0602741
0.0534678
0.0438301
0.0315468
0.0168704
0.000113023
-0.0183677
-0.0381721
-0.0588691
-0.0800063
-0.101115
-0.121747
-0.141465
-0.159843
-0.176498
-0.191095
-0.203347
-0.213029
-0.219986
-0.22411
-0.22536
-0.223973
-0.219866
-0.213232
-0.204302
-0.193347
-0.180673
-0.166615
-0.151524
-0.135761
-0.119691
-0.103668
-0.088026
-0.0730811
-0.0591203
-0.0464009
-0.0351388
-0.0255099
-0.0176508
-0.0116522
-0.00756333
-0.00539368
-0.00511204
-0.00664857
-0.00990795
-0.0147632
-0.0210622
-0.0286333
-0.0372871
-0.046822
-0.0570336
-0.067712
-0.0786477
-0.0896433
-0.100513
-0.110919
-0.120969
-0.130365
-0.138983
-0.146714
-0.153466
-0.159169
-0.163776
-0.167258
-0.169608
-0.170842
-0.170988
-0.170094
-0.168222
-0.165448
-0.161862
-0.15756
-0.152647
-0.147235
-0.141437
-0.135367
-0.129138
-0.122858
-0.116633
-0.110558
-0.104723
-0.0992083
-0.0940804
-0.0893961
-0.0851998
-0.0815226
-0.0783828
-0.0757878
-0.0737334
-0.0722039
-0.0711745
-0.0706105
-0.0704695
-0.0707009
-0.0712478
-0.0720485
-0.0730383
-0.0741505
-0.0753178
-0.076474
-0.0775565
-0.0785071
-0.0792744
-0.0798156
-0.0800973
0.446964
0.445535
0.442649
0.438291
0.432477
0.425262
0.416731
0.407006
0.396228
0.384559
0.372167
0.359239
0.346052
0.332622
0.319278
0.306247
0.293742
0.281959
0.271078
0.261264
0.252651
0.245338
0.239393
0.234842
0.231673
0.229834
0.229235
0.229755
0.231233
0.233484
0.236299
0.239447
0.242682
0.245749
0.248395
0.250352
0.251372
0.251276
0.250011
0.247247
0.242851
0.236706
0.228722
0.218832
0.206997
0.19321
0.177493
0.159901
0.140521
0.119466
0.0968789
0.0729296
0.0478144
0.021752
-0.00501698
-0.0322352
-0.0596193
-0.0868803
-0.113722
-0.139838
-0.164927
-0.188673
-0.210792
-0.230684
-0.248606
-0.264071
-0.276838
-0.286696
-0.293477
-0.297048
-0.297319
-0.294239
-0.287794
-0.277991
-0.265417
-0.249779
-0.231336
-0.210377
-0.187244
-0.162329
-0.135574
-0.108334
-0.0806236
-0.0529443
-0.0258139
0.000249327
0.0247317
0.0471383
0.0670121
0.0839398
0.0975529
0.107533
0.113646
0.11574
0.113827
0.107907
0.0980605
0.0844851
0.0674849
0.0474369
0.0247974
7.50639e-05
-0.0261709
-0.0533495
-0.0808614
-0.107929
-0.134233
-0.159064
-0.181899
-0.202275
-0.219798
-0.234142
-0.245083
-0.252471
-0.256256
-0.256481
-0.253282
-0.246828
-0.237381
-0.225265
-0.210853
-0.194557
-0.176814
-0.158071
-0.138776
-0.119371
-0.10029
-0.0818864
-0.064533
-0.048545
-0.0341952
-0.0217054
-0.0112443
-0.00293074
0.00316366
0.00701677
0.0086567
0.0081693
0.00564704
0.00122646
-0.00492409
-0.0126121
-0.0216274
-0.031745
-0.0427314
-0.0543509
-0.0663684
-0.0785532
-0.0906837
-0.102549
-0.113927
-0.124711
-0.134723
-0.143825
-0.151908
-0.158884
-0.164691
-0.169289
-0.17266
-0.174809
-0.175769
-0.175574
-0.174284
-0.171973
-0.168732
-0.164658
-0.159862
-0.154457
-0.148565
-0.142306
-0.135803
-0.129175
-0.122533
-0.115987
-0.109635
-0.10357
-0.0978716
-0.0926066
-0.0878303
-0.0835847
-0.0798976
-0.0767835
-0.0742458
-0.072276
-0.0708544
-0.0699522
-0.0695316
-0.0695456
-0.0699396
-0.0706524
-0.0716184
-0.0727693
-0.0740348
-0.0753445
-0.0766293
-0.0778233
-0.0788661
-0.0797042
-0.0802935
-0.0805997
0.571029
0.568055
0.562046
0.552981
0.540839
0.525459
0.507569
0.48739
0.465213
0.441366
0.416282
0.390417
0.364234
0.338202
0.312807
0.28854
0.265887
0.245195
0.226909
0.211354
0.198778
0.189346
0.183136
0.180142
0.18027
0.183338
0.189082
0.197164
0.207188
0.218703
0.231233
0.244278
0.257333
0.269907
0.281504
0.291698
0.300186
0.30643
0.31043
0.311879
0.31055
0.306272
0.29893
0.288464
0.274866
0.258178
0.238482
0.215903
0.190608
0.1628
0.132722
0.100647
0.0668863
0.0317736
-0.00432525
-0.0410304
-0.0779386
-0.11463
-0.150673
-0.185641
-0.219096
-0.250522
-0.279668
-0.306069
-0.329358
-0.349188
-0.36525
-0.377276
-0.385047
-0.3884
-0.387235
-0.381512
-0.371262
-0.356635
-0.337777
-0.314933
-0.28842
-0.258622
-0.226004
-0.191088
-0.154429
-0.116692
-0.0785687
-0.0407143
-0.00382573
0.0314041
0.064283
0.0941552
0.120421
0.142534
0.160034
0.172543
0.179757
0.181485
0.177846
0.168849
0.154673
0.135661
0.112266
0.0850339
0.0546169
0.0217304
-0.0128514
-0.048321
-0.0838603
-0.118641
-0.15193
-0.182999
-0.21119
-0.23594
-0.256794
-0.273401
-0.28553
-0.293071
-0.296037
-0.294571
-0.288877
-0.279257
-0.266104
-0.249872
-0.231065
-0.210229
-0.18793
-0.164728
-0.14118
-0.117826
-0.0951329
-0.0735243
-0.0534147
-0.0351463
-0.0190061
-0.00521357
0.00607693
0.0147705
0.0208311
0.0242718
0.0251484
0.0236695
0.0198979
0.0140358
0.00630459
-0.00305631
-0.013792
-0.0256373
-0.0383209
-0.0515759
-0.0651398
-0.0787563
-0.0921859
-0.105191
-0.117592
-0.129221
-0.139914
-0.149541
-0.157995
-0.165195
-0.171089
-0.175649
-0.178868
-0.180757
-0.18139
-0.180786
-0.179028
-0.176205
-0.172419
-0.167783
-0.162418
-0.15645
-0.150009
-0.143226
-0.13623
-0.129156
-0.122106
-0.115198
-0.108538
-0.102217
-0.0963159
-0.0909019
-0.0860279
-0.081733
-0.0780409
-0.0749618
-0.0724939
-0.0706239
-0.069328
-0.0685728
-0.0683169
-0.0685086
-0.0690883
-0.0699902
-0.0711441
-0.0724776
-0.073917
-0.0753882
-0.0768185
-0.0781387
-0.0792852
-0.0802029
-0.080846
-0.0811795
0.770117
0.764383
0.752846
0.735558
0.712688
0.684629
0.650732
0.610831
0.567244
0.520296
0.47093
0.420213
0.369265
0.319228
0.271234
0.22637
0.185639
0.149918
0.119936
0.0961011
0.0788114
0.0682303
0.0643466
0.0669816
0.0757812
0.0902122
0.109563
0.133009
0.159663
0.188548
0.218637
0.248934
0.278525
0.306554
0.332239
0.355031
0.37428
0.389884
0.401298
0.408217
0.410448
0.40788
0.400477
0.388267
0.371338
0.349833
0.323951
0.29394
0.260093
0.222749
0.182291
0.139135
0.0937419
0.046596
-0.00179675
-0.0508944
-0.100134
-0.148948
-0.196748
-0.242776
-0.286782
-0.328041
-0.366011
-0.400163
-0.430009
-0.455104
-0.475059
-0.489536
-0.498266
-0.501058
-0.497808
-0.488496
-0.473165
-0.452006
-0.425277
-0.393344
-0.356662
-0.315771
-0.271312
-0.22401
-0.174645
-0.124056
-0.0731692
-0.0228879
0.0258549
0.0721461
0.115084
0.153824
0.187594
0.215698
0.237546
0.25272
0.260927
0.261669
0.255377
0.242118
0.222218
0.196176
0.164637
0.128371
0.0882782
0.0453338
0.000575991
-0.0449183
-0.0900515
-0.133839
-0.175303
-0.21354
-0.247762
-0.27731
-0.301669
-0.320479
-0.333535
-0.340775
-0.342261
-0.338451
-0.329485
-0.315851
-0.298116
-0.276894
-0.25285
-0.226679
-0.199088
-0.170766
-0.142396
-0.114724
-0.0880393
-0.062936
-0.0398758
-0.0192203
-0.00125761
0.0138052
0.0258352
0.0347747
0.040633
0.0434809
0.0434603
0.040677
0.0353988
0.0278556
0.0183144
0.00706449
-0.00559301
-0.0193503
-0.0338992
-0.0489381
-0.0641757
-0.0793351
-0.0941643
-0.108343
-0.121818
-0.13433
-0.145726
-0.155882
-0.164697
-0.172103
-0.178057
-0.182546
-0.185577
-0.187185
-0.187417
-0.18635
-0.184072
-0.180685
-0.176306
-0.171059
-0.165079
-0.158504
-0.151476
-0.144132
-0.136609
-0.129069
-0.121582
-0.114295
-0.107311
-0.100724
-0.0946141
-0.0890483
-0.0840778
-0.0797376
-0.0760475
-0.0730122
-0.0706243
-0.068865
-0.0677064
-0.0671106
-0.0670325
-0.0674156
-0.0681949
-0.0692994
-0.0706538
-0.072182
-0.0738065
-0.0754496
-0.0770348
-0.0784888
-0.0797453
-0.0807468
-0.0814464
-0.0818084
1.10946
1.09715
1.07228
1.0348
0.984937
0.923352
0.851471
0.77179
0.684795
0.594431
0.50065
0.40622
0.313688
0.225373
0.143306
0.0691944
0.00440689
-0.0500212
-0.0933309
-0.124959
-0.144511
-0.151771
-0.146762
-0.12981
-0.101634
-0.0634138
-0.0168464
0.0359138
0.092728
0.151692
0.210923
0.268515
0.322736
0.372365
0.417345
0.456079
0.488649
0.514599
0.533618
0.545518
0.55023
0.547795
0.538337
0.52205
0.499188
0.470064
0.435042
0.394535
0.349003
0.298953
0.244938
0.187547
0.127394
0.0651433
0.0014839
-0.0628713
-0.127176
-0.190665
-0.252566
-0.312185
-0.36877
-0.421573
-0.469891
-0.513052
-0.550448
-0.581521
-0.605784
-0.622826
-0.632325
-0.634061
-0.627926
-0.613916
-0.5922
-0.562982
-0.526632
-0.483661
-0.434696
-0.380469
-0.321839
-0.25977
-0.19529
-0.129508
-0.0636016
0.00123445
0.0637933
0.122898
0.177391
0.226188
0.268334
0.302991
0.329448
0.347164
0.355919
0.355033
0.345127
0.326399
0.299334
0.264641
0.223208
0.176086
0.12448
0.0696815
0.0130371
-0.0441014
-0.100015
-0.154031
-0.204616
-0.25071
-0.291394
-0.32593
-0.353766
-0.374539
-0.388109
-0.394532
-0.394078
-0.386968
-0.373867
-0.355378
-0.332238
-0.305246
-0.275239
-0.243079
-0.209621
-0.175663
-0.141902
-0.110046
-0.0789815
-0.0502174
-0.0241475
-0.00111809
0.0185967
0.034814
0.0474364
0.0564444
0.0618984
0.0639282
0.0627447
0.0585246
0.0515604
0.0421549
0.0306342
0.0173408
0.00262404
-0.0131653
-0.0296784
-0.0465826
-0.0635594
-0.0803034
-0.0965246
-0.111976
-0.126503
-0.139887
-0.151972
-0.162635
-0.171787
-0.179367
-0.185347
-0.189727
-0.192531
-0.193814
-0.193618
-0.192055
-0.189224
-0.185243
-0.180241
-0.174358
-0.167739
-0.160537
-0.152903
-0.144986
-0.136931
-0.128895
-0.120974
-0.113305
-0.105996
-0.0991418
-0.0928253
-0.0871117
-0.0820496
-0.0776712
-0.0739909
-0.0710071
-0.0687066
-0.0670652
-0.0660505
-0.0656208
-0.0657272
-0.0663084
-0.0672941
-0.068607
-0.0701672
-0.0718946
-0.0737086
-0.0755278
-0.0772714
-0.0788622
-0.0802303
-0.0813166
-0.0820731
-0.0824637
1.67406
1.65364
1.61268
1.55146
1.47063
1.37082
1.25194
1.11508
0.962515
0.802961
0.6405
0.478859
0.321392
0.171342
0.0316077
-0.0951534
-0.206474
-0.300086
-0.373977
-0.426488
-0.456475
-0.463465
-0.447653
-0.409937
-0.352044
-0.276488
-0.186795
-0.0888502
0.0150127
0.119578
0.22106
0.316284
0.403506
0.481709
0.549361
0.607007
0.653875
0.689842
0.715038
0.729717
0.734202
0.728856
0.714091
0.690356
0.658135
0.617952
0.570366
0.515977
0.455434
0.389419
0.318651
0.2439
0.165979
0.0857217
0.00401625
-0.0782475
-0.160103
-0.240623
-0.318892
-0.393955
-0.464888
-0.530767
-0.590729
-0.643951
-0.689684
-0.727252
-0.756067
-0.775643
-0.785606
-0.785715
-0.775868
-0.756106
-0.726635
-0.687795
-0.640085
-0.58418
-0.520905
-0.451215
-0.376224
-0.297173
-0.215383
-0.132267
-0.0493167
0.0319583
0.110042
0.18346
0.250779
0.310661
0.361913
0.403484
0.434552
0.454463
0.462753
0.459893
0.445495
0.420092
0.384427
0.339487
0.286476
0.226782
0.161973
0.0937144
0.0237288
-0.0462559
-0.114459
-0.179488
-0.239827
-0.294206
-0.341565
-0.381078
-0.412164
-0.434495
-0.448009
-0.452895
-0.449653
-0.438687
-0.420738
-0.396654
-0.367401
-0.333982
-0.297428
-0.258786
-0.219077
-0.179258
-0.140245
-0.10306
-0.0678938
-0.0355536
-0.006548
0.0187482
0.0400762
0.0572809
0.0703119
0.0791986
0.0840496
0.0850492
0.082549
0.0767209
0.0679181
0.0565144
0.0428979
0.0274642
0.0106096
-0.00727153
-0.0257923
-0.044591
-0.0633237
-0.0816648
-0.0992488
-0.11595
-0.131515
-0.145744
-0.158484
-0.169619
-0.179069
-0.186787
-0.192758
-0.196995
-0.19954
-0.200459
-0.199821
-0.197742
-0.194342
-0.189752
-0.184117
-0.177589
-0.170325
-0.162492
-0.154251
-0.145761
-0.137175
-0.128652
-0.120301
-0.112256
-0.104627
-0.0975139
-0.090998
-0.0851441
-0.0799987
-0.0755901
-0.0719269
-0.0690014
-0.0667935
-0.0652737
-0.0644055
-0.0641434
-0.0644359
-0.065217
-0.0664101
-0.0679319
-0.0696974
-0.0716232
-0.0736258
-0.0756204
-0.0775219
-0.0792485
-0.0807273
-0.0818969
-0.0827089
-0.0831275
2.50436
2.46677
2.39046
2.27426
2.11742
1.92043
1.68587
1.41917
1.13044
0.827099
0.523562
0.230614
-0.0439636
-0.294417
-0.516794
-0.708308
-0.867029
-0.991587
-1.08094
-1.13418
-1.15041
-1.12892
-1.06942
-0.971924
-0.837697
-0.669888
-0.474277
-0.265081
-0.062139
0.125071
0.293917
0.439879
0.564479
0.669336
0.75649
0.827552
0.883134
0.923691
0.949842
0.962292
0.961765
0.948984
0.924647
0.889448
0.844081
0.78926
0.72572
0.654224
0.575575
0.49062
0.400256
0.305423
0.207111
0.106349
0.00421193
-0.0981859
-0.199686
-0.299218
-0.395609
-0.487709
-0.574394
-0.654572
-0.727186
-0.791252
-0.845878
-0.890259
-0.923706
-0.945655
-0.95568
-0.953525
-0.939099
-0.912508
-0.874027
-0.824123
-0.763448
-0.692877
-0.613459
-0.526404
-0.433114
-0.335139
-0.234126
-0.131831
-0.030094
0.0692273
0.164275
0.253253
0.334408
0.406127
0.466988
0.515758
0.551441
0.57334
0.581036
0.574899
0.554797
0.521415
0.475732
0.419045
0.352912
0.279104
0.1996
0.116482
0.0318961
-0.0520232
-0.13326
-0.210015
-0.280553
-0.343427
-0.397457
-0.441755
-0.475745
-0.499141
-0.511972
-0.51452
-0.507954
-0.492439
-0.468954
-0.438629
-0.402677
-0.362317
-0.318787
-0.27332
-0.227094
-0.18121
-0.136753
-0.094537
-0.0551549
-0.0192967
0.0125163
0.0399193
0.0626806
0.0806842
0.0939315
0.102511
0.106588
0.106344
0.102431
0.094854
0.0841006
0.070612
0.054834
0.0372142
0.0181945
-0.00178986
-0.0223162
-0.0429937
-0.0634593
-0.0833965
-0.102242
-0.120175
-0.136738
-0.151766
-0.165115
-0.176677
-0.186385
-0.194203
-0.20013
-0.204196
-0.206457
-0.206995
-0.2059
-0.203298
-0.199324
-0.194125
-0.187858
-0.18069
-0.172789
-0.164333
-0.155497
-0.146446
-0.137343
-0.128348
-0.11958
-0.111171
-0.103237
-0.0958758
-0.0891714
-0.0831874
-0.0779678
-0.0735373
-0.0698982
-0.067036
-0.0649238
-0.0635264
-0.0628039
-0.0627073
-0.0631836
-0.0641621
-0.0655598
-0.0672867
-0.0692528
-0.0713718
-0.0735584
-0.0757245
-0.0777803
-0.0796394
-0.0812252
-0.0824751
-0.0833403
-0.0837853
3.72183
3.66977
3.56377
3.40074
3.1758
2.88529
2.52195
2.07631
1.555
1.03701
0.576528
0.149715
-0.235565
-0.576065
-0.872216
-1.12406
-1.3314
-1.4937
-1.61011
-1.67938
-1.69995
-1.66999
-1.58764
-1.44969
-1.2546
-1.00206
-0.663107
-0.321064
-0.0175757
0.235793
0.451966
0.638972
0.796867
0.928385
1.03431
1.1157
1.17425
1.21267
1.23315
1.23725
1.22625
1.2012
1.16302
1.11255
1.05059
0.977985
0.895572
0.804242
0.704929
0.598622
0.486367
0.369274
0.248507
0.125276
0.000849719
-0.123347
-0.246195
-0.366227
-0.482081
-0.592413
-0.695895
-0.79123
-0.877194
-0.952619
-1.01646
-1.06779
-1.10581
-1.12987
-1.1395
-1.13444
-1.11463
-1.08021
-1.03157
-0.969319
-0.894282
-0.807555
-0.710436
-0.604412
-0.491202
-0.372702
-0.250907
-0.127941
-0.00602608
0.112608
0.225736
0.331202
0.426929
0.51102
0.581796
0.637828
0.677999
0.701548
0.708099
0.697753
0.670883
0.628343
0.571373
0.501615
0.421023
0.331797
0.236368
0.137266
0.0370846
-0.0614466
-0.156317
-0.245211
-0.326152
-0.397526
-0.458046
-0.506806
-0.543262
-0.567223
-0.578782
-0.577889
-0.567839
-0.547114
-0.517485
-0.480394
-0.437293
-0.389636
-0.33886
-0.286376
-0.233501
-0.181471
-0.131683
-0.0845639
-0.0410498
-0.00182301
0.0326184
0.0619335
0.0859271
0.104532
0.117809
0.125915
0.12911
0.127803
0.122055
0.112598
0.0998246
0.0842097
0.0662498
0.0464417
0.0252719
0.00321365
-0.0192784
-0.0417855
-0.0639189
-0.0853147
-0.105545
-0.124573
-0.142065
-0.157832
-0.171736
-0.183678
-0.193601
-0.201484
-0.207339
-0.211211
-0.213171
-0.213319
-0.211762
-0.208638
-0.204097
-0.198299
-0.191414
-0.183621
-0.175101
-0.166042
-0.15663
-0.14704
-0.13744
-0.127995
-0.118829
-0.110076
-0.101851
-0.094257
-0.0873769
-0.0812738
-0.0759896
-0.0715448
-0.0679358
-0.0651407
-0.0631252
-0.0618485
-0.0612687
-0.0613321
-0.0619871
-0.0631576
-0.0647541
-0.0666792
-0.068838
-0.0711425
-0.0735057
-0.0758368
-0.0780414
-0.0800276
-0.0817156
-0.0830415
-0.0839567
-0.0844264
5.36937
5.31194
5.19171
4.99762
4.71213
4.30927
3.74993
2.91816
1.8443
0.887633
0.106125
-0.554249
-1.11414
-1.58692
-1.98175
-2.30482
-2.56043
-2.75135
-2.87891
-2.9429
-2.94129
-2.87075
-2.72605
-2.49889
-2.17759
-1.75349
-1.15766
-0.396395
0.189967
0.567864
0.848983
1.05801
1.2148
1.33246
1.41959
1.48208
1.52411
1.54748
1.55334
1.54267
1.5163
1.47505
1.4197
1.35107
1.26997
1.17728
1.07389
0.960784
0.838989
0.709618
0.573858
0.432972
0.288299
0.141241
-0.00671807
-0.154091
-0.299334
-0.44086
-0.577083
-0.706441
-0.827395
-0.93844
-1.03816
-1.1252
-1.19839
-1.25663
-1.29904
-1.32489
-1.33366
-1.32504
-1.29913
-1.25604
-1.19628
-1.12062
-1.03008
-0.926004
-0.809945
-0.683699
-0.549322
-0.409071
-0.265323
-0.120595
0.0225049
0.16135
0.293318
0.415898
0.52667
0.623418
0.704215
0.767432
0.811821
0.836544
0.841227
0.826011
0.791508
0.738811
0.669491
0.585577
0.48945
0.383777
0.271492
0.155586
0.0390092
-0.0743212
-0.183279
-0.28447
-0.375791
-0.455481
-0.522176
-0.574968
-0.613405
-0.637451
-0.647587
-0.645131
-0.628579
-0.601716
-0.565421
-0.521183
-0.470648
-0.41549
-0.357348
-0.297795
-0.238284
-0.18005
-0.125336
-0.0733661
-0.0259003
0.0164878
0.0533405
0.0843536
0.109371
0.128387
0.14152
0.148997
0.151148
0.148393
0.141027
0.129686
0.114877
0.0971384
0.0770164
0.0550558
0.0317848
0.00771226
-0.0166774
-0.0409429
-0.0646714
-0.0874603
-0.108968
-0.129042
-0.147395
-0.163841
-0.178244
-0.190519
-0.200617
-0.208532
-0.214291
-0.217953
-0.219603
-0.21936
-0.217343
-0.213708
-0.208614
-0.202236
-0.194755
-0.18636
-0.177245
-0.167609
-0.157647
-0.147545
-0.137476
-0.127607
-0.118066
-0.108988
-0.100492
-0.0926806
-0.0856385
-0.0794279
-0.0740883
-0.0696361
-0.066062
-0.0633363
-0.0614168
-0.0602571
-0.0598096
-0.0600307
-0.0608572
-0.0622123
-0.0639996
-0.0661138
-0.0684555
-0.0709353
-0.073466
-0.0759543
-0.0783006
-0.0804074
-0.0821917
-0.0835887
-0.0845502
-0.0850427
7.14649
7.10606
7.02694
6.9073
6.75343
6.56541
6.38467
6.08896
0.928542
1.13852
1.28119
1.41623
1.54612
1.65951
1.75177
1.82163
1.86865
1.89514
1.90235
1.89147
1.86352
1.81935
1.75969
1.68525
1.59677
1.49503
1.38089
1.25528
1.11924
0.973877
0.820421
0.660188
0.494591
0.325144
0.153424
-0.018833
-0.190032
-0.358318
-0.521908
-0.678991
-0.827788
-0.966538
-1.09352
-1.20713
-1.30584
-1.3883
-1.45331
-1.49987
-1.52717
-1.53465
-1.52203
-1.48932
-1.43682
-1.36517
-1.27529
-1.16841
-1.04611
-0.910232
-0.762888
-0.606486
-0.443657
-0.277186
-0.110026
0.0548876
0.214479
0.365731
0.505742
0.631754
0.741228
0.831987
0.902195
0.950468
0.975898
0.978128
0.957399
0.914516
0.85086
0.768358
0.66946
0.557007
0.43417
0.304419
0.171266
0.0382138
-0.0908714
-0.213691
-0.327041
-0.428511
-0.516185
-0.588637
-0.644987
-0.684848
-0.70837
-0.716161
-0.709287
-0.68817
-0.655179
-0.611988
-0.560394
-0.5023
-0.439584
-0.374087
-0.307551
-0.241582
-0.177621
-0.11746
-0.0611695
-0.0100388
0.035267
0.0742938
0.106784
0.132626
0.151876
0.164714
0.171441
0.172449
0.168214
0.15917
0.145941
0.129116
0.109288
0.0870567
0.0630094
0.0377127
0.0117087
-0.0144909
-0.0404257
-0.0656659
-0.089756
-0.112448
-0.133499
-0.152646
-0.169706
-0.184555
-0.197116
-0.207354
-0.215273
-0.220918
-0.224359
-0.225696
-0.225067
-0.222603
-0.218471
-0.212845
-0.205913
-0.197863
-0.188896
-0.179216
-0.169033
-0.158553
-0.147969
-0.137459
-0.127194
-0.117303
-0.107924
-0.0991757
-0.0911644
-0.0839744
-0.0776671
-0.0722807
-0.0678273
-0.0642916
-0.061636
-0.0598107
-0.0587633
-0.0584444
-0.0588111
-0.0598002
-0.061331
-0.0632995
-0.0655924
-0.0681057
-0.0707496
-0.0734376
-0.0760741
-0.0785541
-0.0807742
-0.0826484
-0.0841111
-0.0851152
-0.0856284
9.04251
9.02706
8.99831
8.95548
8.90275
8.84996
8.78869
8.74362
1.92363
1.96186
2.03735
2.08983
2.14581
2.19436
2.23375
2.26279
2.27929
2.28079
2.26629
2.23547
2.18833
2.12507
2.04604
1.95174
1.84275
1.71978
1.58366
1.43535
1.2759
1.10654
0.928586
0.743487
0.552819
0.358263
0.16159
-0.035312
-0.230545
-0.422078
-0.607891
-0.785949
-0.954245
-1.1108
-1.25368
-1.38108
-1.49131
-1.58285
-1.65439
-1.7048
-1.7332
-1.739
-1.7219
-1.68191
-1.61949
-1.53542
-1.43079
-1.30702
-1.16595
-1.00974
-0.840794
-0.661892
-0.476049
-0.286443
-0.0966334
0.0903782
0.270922
0.441568
0.59905
0.740256
0.862338
0.962855
1.03977
1.09157
1.11727
1.11655
1.08977
1.03792
0.962711
0.86644
0.751994
0.622715
0.482296
0.334752
0.184135
0.0344566
-0.110195
-0.246807
-0.372055
-0.483313
-0.578536
-0.656261
-0.715647
-0.756426
-0.778896
-0.783853
-0.772551
-0.746167
-0.706841
-0.656621
-0.597605
-0.531947
-0.461747
-0.389025
-0.315682
-0.243467
-0.173974
-0.108749
-0.0483288
0.00620008
0.0541628
0.0951306
0.128883
0.155365
0.174693
0.187118
0.193001
0.192805
0.187075
0.176339
0.161249
0.142452
0.120598
0.096334
0.0702875
0.0430601
0.0152256
-0.0126821
-0.040186
-0.0668515
-0.0921316
-0.115924
-0.137877
-0.157748
-0.175361
-0.190605
-0.203409
-0.213755
-0.221657
-0.227174
-0.23039
-0.231416
-0.230412
-0.227516
-0.222909
-0.216778
-0.209319
-0.200733
-0.191226
-0.181015
-0.170319
-0.159354
-0.14832
-0.137401
-0.126768
-0.116554
-0.106896
-0.0979163
-0.0897214
-0.0823968
-0.0760037
-0.0705778
-0.0661283
-0.0626336
-0.0600479
-0.0583135
-0.0573726
-0.0571748
-0.0576771
-0.0588189
-0.0605155
-0.0626549
-0.0651152
-0.0677879
-0.0705841
-0.0734184
-0.0761937
-0.0787989
-0.0811247
-0.0830821
-0.0846051
-0.0856479
-0.0861797
10.7844
10.7754
10.759
10.7336
10.7023
10.6698
10.633
10.5938
2.46989
2.4923
2.54395
2.58338
2.62245
2.65382
2.67362
2.6815
2.67645
2.65732
2.62315
2.5733
2.50739
2.4253
2.32711
2.2131
2.08375
1.93968
1.7817
1.61077
1.42803
1.23475
1.03238
0.822513
0.606868
0.387309
0.165793
-0.0555956
-0.27472
-0.489326
-0.697175
-0.895996
-1.08356
-1.25767
-1.41618
-1.5571
-1.67854
-1.77885
-1.85657
-1.91051
-1.93971
-1.94348
-1.92151
-1.87392
-1.80127
-1.70448
-1.58481
-1.44391
-1.28386
-1.10712
-0.916438
-0.714934
-0.506001
-0.293104
-0.0809886
0.128188
0.329564
0.519428
0.694167
0.850317
0.984719
1.09468
1.17797
1.2329
1.25849
1.25442
1.22117
1.15996
1.07281
0.962423
0.832133
0.685804
0.527669
0.362277
0.19424
0.0280946
-0.131798
-0.281891
-0.418633
-0.539207
-0.641471
-0.723958
-0.785878
-0.827101
-0.848086
-0.84986
-0.833965
-0.801989
-0.756202
-0.698919
-0.632531
-0.559423
-0.481912
-0.402189
-0.322297
-0.244103
-0.169367
-0.0994372
-0.0351475
0.0225078
0.0728739
0.115551
0.150365
0.177324
0.1966
0.208516
0.213498
0.212065
0.204852
0.192443
0.17554
0.154839
0.131043
0.104841
0.0769001
0.0478514
0.0182966
-0.0112082
-0.040173
-0.0681745
-0.0945298
-0.119346
-0.142123
-0.162648
-0.180758
-0.196346
-0.209357
-0.219782
-0.227651
-0.233031
-0.236023
-0.236744
-0.235381
-0.232072
-0.227015
-0.220408
-0.212455
-0.203366
-0.193355
-0.182647
-0.171473
-0.160057
-0.148607
-0.13731
-0.12634
-0.115828
-0.105915
-0.0967224
-0.0883603
-0.0809142
-0.0744447
-0.0689862
-0.0645446
-0.0610922
-0.0585752
-0.0569279
-0.0560869
-0.0560013
-0.0566294
-0.0579135
-0.0597655
-0.062065
-0.064681
-0.0675007
-0.0704372
-0.0734067
-0.0763111
-0.0790329
-0.0814567
-0.0834903
-0.0850684
-0.0861461
-0.0866946
12.3586
12.3533
12.3438
12.329
12.3122
12.2956
12.2765
12.2634
3.02553
3.01969
3.04462
3.0594
3.07446
3.08394
3.08462
3.07458
3.05203
3.01568
2.96443
2.89747
2.81425
2.71447
2.59803
2.46512
2.31608
2.15152
1.97224
1.77923
1.57369
1.35699
1.13069
0.896518
0.656367
0.412275
0.166392
-0.0789981
-0.321532
-0.558734
-0.788137
-1.00724
-1.21361
-1.40481
-1.57849
-1.73248
-1.8647
-1.97337
-2.05692
-2.11405
-2.14377
-2.14533
-2.1182
-2.06277
-1.97973
-1.87013
-1.73541
-1.57739
-1.39844
-1.2013
-0.989051
-0.765186
-0.533494
-0.29796
-0.0630294
0.16759
0.389327
0.597983
0.789551
0.96022
1.10653
1.22554
1.3148
1.37252
1.39765
1.38992
1.34993
1.27913
1.17986
1.05524
0.909058
0.745713
0.569976
0.386941
0.201749
0.0195543
-0.155131
-0.318225
-0.465937
-0.595277
-0.704043
-0.790769
-0.854746
-0.895991
-0.915151
-0.91349
-0.892863
-0.855156
-0.802887
-0.738617
-0.665008
-0.584664
-0.500098
-0.413669
-0.327541
-0.243674
-0.164061
-0.0897571
-0.0218848
0.0386253
0.0911433
0.135312
0.171011
0.198302
0.217423
0.228762
0.232809
0.230134
0.221466
0.207432
0.188783
0.166265
0.140627
0.112596
0.0828739
0.0521204
0.0209619
-0.0100248
-0.0403363
-0.069533
-0.0969565
-0.122671
-0.146193
-0.167309
-0.185859
-0.201749
-0.214933
-0.225415
-0.233237
-0.238477
-0.241249
-0.241703
-0.239971
-0.236271
-0.230791
-0.223739
-0.215326
-0.205769
-0.195291
-0.184122
-0.172504
-0.160672
-0.148839
-0.137197
-0.125917
-0.115133
-0.104986
-0.0956004
-0.0870863
-0.0795308
-0.0729939
-0.0675084
-0.0630778
-0.0596682
-0.0572178
-0.0556531
-0.054905
-0.0549227
-0.0556666
-0.0570824
-0.0590793
-0.0615279
-0.0642878
-0.0672424
-0.070307
-0.0734009
-0.0764246
-0.0792545
-0.0817684
-0.0838718
-0.0854997
-0.0866088
-0.0871722
13.7682
13.7649
13.7595
13.7508
13.7415
13.7324
13.7225
13.7173
3.47918
3.4673
3.48108
3.48381
3.48418
3.4788
3.46479
3.44021
3.40321
3.3523
3.28627
3.20416
3.10529
2.98923
2.85579
2.70505
2.53733
2.3532
2.15346
1.93919
1.71164
1.47229
1.22283
0.965131
0.701241
0.433377
0.163881
-0.104757
-0.369959
-0.629025
-0.879265
-1.11797
-1.34245
-1.55011
-1.73837
-1.90486
-2.04736
-2.16392
-2.25288
-2.31288
-2.34291
-2.34223
-2.30961
-2.24624
-2.15286
-2.03058
-1.88098
-1.70611
-1.50858
-1.29143
-1.05806
-0.812338
-0.558426
-0.3007
-0.04385
0.207718
0.449205
0.67603
0.883832
1.06846
1.22617
1.35375
1.44859
1.50875
1.53315
1.52155
1.47467
1.39421
1.28283
1.14405
0.982166
0.802068
0.609066
0.408796
0.206905
0.00929275
-0.179631
-0.355137
-0.513206
-0.650717
-0.765423
-0.855879
-0.921473
-0.962386
-0.979469
-0.974213
-0.948765
-0.905322
-0.846657
-0.77557
-0.694972