/*--------------------------------*- C++ -*----------------------------------*\
  =========                 |
  \\      /  F ield         | OpenFOAM: The Open Source CFD Toolbox
   \\    /   O peration     | Website:  https://openfoam.org
    \\  /    A nd           | Version:  12
     \\/     M anipulation  |
\*---------------------------------------------------------------------------*/
FoamFile
{
    format      ascii;
    class       surfaceScalarField;
    location    "2.06";
    object      phi;
}
// * * * * * * * * * * * * * * * * * * * * * * * * * * * * * * * * * * * * * //

dimensions      [1 0 -1 0 0 0 0];

internalField   nonuniform List<scalar> 
7429
(
7.47543e-05
-7.47543e-05
0.000150411
-7.5657e-05
0.000226595
-7.6184e-05
0.000303125
-7.65296e-05
0.000379816
-7.66916e-05
0.000456483
-7.66669e-05
0.000532931
-7.64478e-05
0.000608978
-7.6047e-05
0.000684449
-7.54713e-05
0.000759177
-7.47275e-05
0.00083299
-7.38135e-05
0.000905763
-7.2773e-05
0.000977364
-7.16007e-05
0.00104764
-7.0277e-05
0.0011164
-6.87615e-05
0.00118345
-6.70492e-05
0.00124861
-6.51628e-05
0.00131174
-6.31218e-05
0.00137269
-6.09551e-05
0.00143139
-5.86986e-05
0.00148776
-5.63756e-05
0.00154178
-5.4016e-05
0.00159343
-5.16464e-05
0.00164271
-4.92807e-05
0.00168965
-4.69405e-05
0.00173428
-4.46324e-05
0.00177665
-4.23685e-05
0.00181679
-4.01418e-05
0.00185475
-3.79621e-05
0.00189055
-3.57974e-05
0.00192421
-3.36644e-05
0.00195573
-3.15163e-05
0.00198503
-2.93006e-05
0.00201192
-2.6889e-05
0.00203645
-2.45325e-05
0.00205885
-2.24006e-05
0.00207918
-2.03241e-05
0.00209738
-1.82e-05
0.00211336
-1.59778e-05
0.00212699
-1.36309e-05
0.00213813
-1.11426e-05
0.00214664
-8.51409e-06
0.00215221
-5.57092e-06
0.00215488
-2.66432e-06
0.00215323
1.64832e-06
0.0021474
5.82761e-06
0.00213729
1.01163e-05
0.00212272
1.45647e-05
0.00210355
1.91764e-05
0.00207961
2.39338e-05
0.00205079
2.88208e-05
0.00201699
3.38022e-05
0.00197814
3.88518e-05
0.0019342
4.39372e-05
0.00188518
4.90156e-05
0.00183112
5.40664e-05
0.0017721
5.90146e-05
0.00170821
6.38968e-05
0.00163961
6.86003e-05
0.00156643
7.31713e-05
0.00148892
7.75168e-05
0.0014073
8.16152e-05
0.00132191
8.53948e-05
0.00123314
8.87663e-05
0.00114139
9.17518e-05
0.00104714
9.42508e-05
0.000950863
9.62759e-05
0.000853122
9.77412e-05
0.0007545
9.86227e-05
0.000655568
9.89315e-05
0.000556906
9.86623e-05
0.000459218
9.76881e-05
0.000363119
9.6099e-05
0.000269173
9.39462e-05
0.000177967
9.12055e-05
9.01219e-05
8.78453e-05
6.15458e-06
8.39673e-05
-7.3402e-05
7.95566e-05
-0.000148073
7.46706e-05
-0.000217379
6.93067e-05
-0.000280987
6.36082e-05
-0.000338572
5.75843e-05
-0.000389836
5.12647e-05
-0.000434594
4.47576e-05
-0.00047272
3.81264e-05
-0.000504148
3.14274e-05
-0.000528893
2.47454e-05
-0.000546976
1.80832e-05
-0.000558574
1.15973e-05
-0.000563847
5.27327e-06
-0.00056302
-8.27491e-07
-0.000556365
-6.65422e-06
-0.00054421
-1.21554e-05
-0.000526914
-1.72955e-05
-0.000504879
-2.20348e-05
-0.000478538
-2.63411e-05
-0.000448334
-3.02044e-05
-0.000414749
-3.35854e-05
-0.000378235
-3.65136e-05
-0.000339294
-3.89409e-05
-0.000298405
-4.08892e-05
-0.000256034
-4.2371e-05
-0.000212659
-4.33747e-05
-0.00016872
-4.39391e-05
-0.000124646
-4.40745e-05
-8.08593e-05
-4.37863e-05
-3.77361e-05
-4.31232e-05
4.37698e-06
-4.21131e-05
4.51408e-05
-4.07638e-05
8.42667e-05
-3.91259e-05
0.000121495
-3.72286e-05
0.00015658
-3.50847e-05
0.000189345
-3.27646e-05
0.000219595
-3.02508e-05
0.000247194
-2.7599e-05
0.000272065
-2.48707e-05
0.000294126
-2.20609e-05
0.000313299
-1.91727e-05
0.000329608
-1.63096e-05
0.000343017
-1.34086e-05
0.000353601
-1.05845e-05
0.000361396
-7.79446e-06
0.000366475
-5.07905e-06
0.000368896
-2.4208e-06
0.000368863
3.29732e-08
0.000366449
2.41374e-06
0.00036179
4.65873e-06
0.000355021
6.76939e-06
0.000346291
8.72947e-06
0.000335753
1.05381e-05
0.000323574
1.21789e-05
0.000309925
1.36497e-05
0.000294969
1.49554e-05
0.000278884
1.60854e-05
0.000261807
1.70763e-05
0.000243939
1.78684e-05
0.000225409
1.85298e-05
0.000206407
1.90019e-05
0.000187061
1.93463e-05
0.000167509
1.95517e-05
0.000147917
1.95927e-05
0.000128408
1.95086e-05
0.000109099
1.93088e-05
9.011e-05
1.89892e-05
7.15449e-05
1.85651e-05
5.3512e-05
1.8033e-05
3.60834e-05
1.74286e-05
1.93289e-05
1.67545e-05
3.33817e-06
1.59907e-05
-1.1844e-05
1.51822e-05
-2.61608e-05
1.43168e-05
-3.95704e-05
1.34096e-05
-5.20388e-05
1.24684e-05
-6.35433e-05
1.15045e-05
-7.40692e-05
1.05259e-05
-8.36019e-05
9.53268e-06
-9.21518e-05
8.54986e-06
-9.97162e-05
7.56446e-06
-0.000106314
6.59791e-06
-0.000111965
5.65041e-06
-0.00011669
4.72512e-06
-0.000120522
3.83259e-06
-0.000123497
2.97466e-06
-0.000125653
2.15603e-06
-0.000127029
1.37631e-06
-0.000127673
6.43393e-07
-0.000127642
-3.02745e-08
-0.00012698
-6.62743e-07
-0.00012573
-1.24992e-06
-0.000123942
-1.78728e-06
-0.000121669
-2.27354e-06
-0.000118961
-2.70787e-06
-0.000115871
-3.09021e-06
-0.000112451
-3.42012e-06
-0.000108751
-3.6998e-06
-0.000104821
-3.92996e-06
-0.000100705
-4.11559e-06
-9.6445e-05
-4.2603e-06
-9.20754e-05
-4.36964e-06
-8.76274e-05
-4.44799e-06
-8.3124e-05
-4.5034e-06
-7.85844e-05
-4.53963e-06
-7.40221e-05
-4.56227e-06
-6.94461e-05
-4.57603e-06
-6.48625e-05
-4.58353e-06
-6.02765e-05
-4.58608e-06
-5.56929e-05
-4.58353e-06
-5.11188e-05
-4.57415e-06
-4.65638e-05
-4.55498e-06
-4.2042e-05
-4.52184e-06
-3.75677e-05
-4.4743e-06
-3.31547e-05
-4.41298e-06
-2.88144e-05
-4.34029e-06
-2.45507e-05
-4.26376e-06
-2.0359e-05
-4.19168e-06
-1.62306e-05
-4.12833e-06
-1.21499e-05
-4.08071e-06
-8.09925e-06
-4.05069e-06
-4.05769e-06
-4.04155e-06
-4.05769e-06
7.93301e-05
-0.000154084
0.00015949
-0.000155817
0.00024002
-0.000156714
0.000320623
-0.000157133
0.000400997
-0.000157065
0.000480844
-0.000156514
0.000559882
-0.000155486
0.000637821
-0.000153986
0.000714398
-0.000152048
0.000789437
-0.000149767
0.000862709
-0.000147085
0.000934152
-0.000144217
0.00100354
-0.000140989
0.00107051
-0.000137248
0.00113487
-0.000133115
0.00119632
-0.000128506
0.00125476
-0.0001236
0.00131008
-0.000118444
0.00136231
-0.00011318
0.00141146
-0.000107855
0.00145767
-0.00010258
0.00150106
-9.74048e-05
0.00154181
-9.23955e-05
0.00158011
-8.75819e-05
0.00161617
-8.30069e-05
0.00165021
-7.86732e-05
0.00168242
-7.45721e-05
0.00171298
-7.07049e-05
0.00174206
-6.70429e-05
0.00176978
-6.35121e-05
0.00179619
-6.00769e-05
0.00182135
-5.66788e-05
0.0018452
-5.31456e-05
0.00186751
-4.92022e-05
0.00188855
-4.55758e-05
0.00190852
-4.2364e-05
0.00192732
-3.91264e-05
0.00194483
-3.57134e-05
0.00196087
-3.20141e-05
0.00197524
-2.80007e-05
0.00198768
-2.35862e-05
0.0019979
-1.87355e-05
0.00200569
-1.33568e-05
0.00201052
-7.49301e-06
0.00201194
2.30392e-07
0.00200921
8.55564e-06
0.00200227
1.70504e-05
0.00199092
2.59132e-05
0.00197495
3.51507e-05
0.00195416
4.47286e-05
0.00192838
5.4598e-05
0.00189748
6.46973e-05
0.00186136
7.4974e-05
0.00181997
8.53268e-05
0.00177328
9.57106e-05
0.00172129
0.000106051
0.00166411
0.000116193
0.00160177
0.000126243
0.00153447
0.000135899
0.00146232
0.000145319
0.00138562
0.000154222
0.0013047
0.000162531
0.00121996
0.000170138
0.00113181
0.000176916
0.00104072
0.000182841
0.000947226
0.000187744
0.000851846
0.000191656
0.000755245
0.000194343
0.000657999
0.000195868
0.000560805
0.000196125
0.000464245
0.000195222
0.000368997
0.000192936
0.000275714
0.000189382
0.000184942
0.000184718
9.73931e-05
0.000178754
1.35973e-05
0.000171641
-6.59436e-05
0.000163508
-0.000140648
0.000154261
-0.000210128
0.000144151
-0.000273984
0.000133162
-0.000331907
0.000121531
-0.000383519
0.000109196
-0.000428743
9.64894e-05
-0.000467369
8.33836e-05
-0.000499416
7.01725e-05
-0.000524857
5.6869e-05
-0.000543697
4.35848e-05
-0.000556143
3.05296e-05
-0.000562332
1.77867e-05
-0.00056252
5.461e-06
-0.000556992
-6.35584e-06
-0.000546073
-1.75724e-05
-0.000530125
-2.81039e-05
-0.000509536
-3.78841e-05
-0.000484738
-4.68335e-05
-0.000456177
-5.49022e-05
-0.000424302
-6.20789e-05
-0.000389593
-6.8295e-05
-0.000352488
-7.36185e-05
-0.000313475
-7.79538e-05
-0.000273018
-8.13456e-05
-0.000231551
-8.38387e-05
-0.000189507
-8.54181e-05
-0.0001473
-8.61464e-05
-0.000105326
-8.6048e-05
-6.39413e-05
-8.51714e-05
-2.3475e-05
-8.35895e-05
1.57564e-05
-8.13445e-05
5.3469e-05
-7.84764e-05
8.9433e-05
-7.50898e-05
0.000123413
-7.12084e-05
0.000155215
-6.68871e-05
0.000184723
-6.22726e-05
0.000211781
-5.7309e-05
0.000236269
-5.20865e-05
0.000258157
-4.67589e-05
0.000277389
-4.12932e-05
0.000293922
-3.57059e-05
0.000307791
-3.01776e-05
0.000319
-2.46176e-05
0.000327602
-1.91865e-05
0.000333672
-1.38653e-05
0.000337286
-8.69307e-06
0.000338537
-3.6713e-06
0.000337579
9.91108e-07
0.000334501
5.49157e-06
0.000329408
9.75214e-06
0.000322458
1.37188e-05
0.000313789
1.73981e-05
0.000303548
2.07791e-05
0.000291891
2.38358e-05
0.000278972
2.65688e-05
0.000264936
2.89923e-05
0.000249916
3.11046e-05
0.000234099
3.28937e-05
0.000217615
3.43526e-05
0.000200626
3.55188e-05
0.000183236
3.63914e-05
0.000165606
3.69762e-05
0.000147871
3.72865e-05
0.00013012
3.7344e-05
0.000112475
3.7154e-05
9.50613e-05
3.67222e-05
7.79827e-05
3.60678e-05
6.13279e-05
3.52199e-05
4.51443e-05
3.42166e-05
2.95458e-05
3.30271e-05
1.45986e-05
3.17016e-05
3.55985e-07
3.02334e-05
-1.31377e-05
2.86759e-05
-2.58358e-05
2.70148e-05
-3.77053e-05
2.52791e-05
-4.8718e-05
2.34812e-05
-5.88581e-05
2.16446e-05
-6.81156e-05
1.97834e-05
-7.64832e-05
1.79002e-05
-8.39603e-05
1.60269e-05
-9.05597e-05
1.41639e-05
-9.62923e-05
1.23304e-05
-0.000101176
1.05346e-05
-0.000105235
8.78362e-06
-0.000108499
7.09668e-06
-0.000111002
5.47724e-06
-0.00011278
3.93409e-06
-0.000113875
2.47131e-06
-0.000114322
1.0908e-06
-0.000114172
-1.80021e-07
-0.000113464
-1.37095e-06
-0.000112241
-2.47347e-06
-0.000110546
-3.48215e-06
-0.000108425
-4.39446e-06
-0.000105924
-5.20853e-06
-0.00010309
-5.92391e-06
-9.99712e-05
-6.53939e-06
-9.66121e-05
-7.05889e-06
-9.30582e-05
-7.48387e-06
-8.93497e-05
-7.82407e-06
-8.55232e-05
-8.08681e-06
-8.16099e-05
-8.28292e-06
-7.76368e-05
-8.42117e-06
-7.36231e-05
-8.51703e-06
-6.95849e-05
-8.57783e-06
-6.55327e-05
-8.61446e-06
-6.14725e-05
-8.6363e-06
-5.74076e-05
-8.64843e-06
-5.33404e-05
-8.65325e-06
-4.92736e-05
-8.65031e-06
-4.52124e-05
-8.63536e-06
-4.11654e-05
-8.60195e-06
-3.71469e-05
-8.54035e-06
-3.31721e-05
-8.4491e-06
-2.92561e-05
-8.32898e-06
-2.54109e-05
-8.18552e-06
-2.16402e-05
-8.03447e-06
-1.79388e-05
-7.89303e-06
-1.42972e-05
-7.77e-06
-1.06998e-05
-7.67805e-06
-7.13015e-06
-7.62036e-06
-3.57161e-06
-7.60009e-06
-7.6293e-06
9.72581e-05
-0.000251343
0.000195236
-0.000253795
0.0002932
-0.000254677
0.000390547
-0.000254481
0.000486692
-0.000253209
0.000581018
-0.00025084
0.000672963
-0.000247432
0.000761985
-0.000243008
0.000847606
-0.000237669
0.000929393
-0.000231554
0.00100706
-0.000224757
0.00108036
-0.000217514
0.00114938
-0.00021001
0.0012139
-0.00020176
0.00127345
-0.000192665
0.00132784
-0.000182901
0.001377
-0.000172756
0.00142102
-0.00016247
0.00146014
-0.000152294
0.00149468
-0.000142397
0.00152505
-0.000132957
0.00155176
-0.000124113
0.00157534
-0.000115972
0.00159634
-0.000108588
0.00161536
-0.00010202
0.00163288
-9.61932e-05
0.00164943
-9.11234e-05
0.00166545
-8.67313e-05
0.00168131
-8.28951e-05
0.00169724
-7.94462e-05
0.0017134
-7.62332e-05
0.00172954
-7.28173e-05
0.00174575
-6.93592e-05
0.00176322
-6.66734e-05
0.00178197
-6.43295e-05
0.00180145
-6.18407e-05
0.0018213
-5.89724e-05
0.00184114
-5.55522e-05
0.00186061
-5.14904e-05
0.00187928
-4.66722e-05
0.0018967
-4.10019e-05
0.00191212
-3.416e-05
0.00192524
-2.6474e-05
0.00193546
-1.77142e-05
0.00194414
-8.44616e-06
0.00194742
5.27632e-06
0.00194596
1.85049e-05
0.00193958
3.22919e-05
0.00192801
4.67259e-05
0.001911
6.17379e-05
0.00188831
7.72929e-05
0.0018598
9.32015e-05
0.00182531
0.000109464
0.00178471
0.000125926
0.00173801
0.000142416
0.00168509
0.000158964
0.00162613
0.000175157
0.00156113
0.000191241
0.00149035
0.000206677
0.00141404
0.000221638
0.00133262
0.000235634
0.00124649
0.00024866
0.00115617
0.000260461
0.00106221
0.000270873
0.000965244
0.00027981
0.000865912
0.000287075
0.000765009
0.00029256
0.000663146
0.000296206
0.000561061
0.000297953
0.000459639
0.000297547
0.000359438
0.000295424
0.000261347
0.000291028
0.00016601
0.000284719
7.40676e-05
0.00027666
-1.38693e-05
0.000266691
-9.70415e-05
0.000254813
-0.000175086
0.000241553
-0.000247365
0.00022654
-0.000313484
0.00021027
-0.000373117
0.000192795
-0.000426117
0.00017453
-0.00047217
0.00015525
-0.000511184
0.000135503
-0.000543142
0.000115341
-0.000568025
9.50559e-05
-0.000585988
7.4832e-05
-0.000597333
5.493e-05
-0.000602048
3.52446e-05
-0.00060063
1.63683e-05
-0.000593423
-1.74573e-06
-0.000580749
-1.903e-05
-0.000562985
-3.53359e-05
-0.000540591
-5.04978e-05
-0.000514027
-6.44482e-05
-0.000483781
-7.70798e-05
-0.000450337
-8.83461e-05
-0.000414183
-9.8233e-05
-0.000375817
-0.000106661
-0.000335713
-0.000113723
-0.000294345
-0.000119321
-0.000252174
-0.000123517
-0.000209596
-0.000126417
-0.00016704
-0.000127973
-0.000124854
-0.000128332
-8.34019e-05
-0.0001275
-4.30222e-05
-0.000125551
-3.98298e-06
-0.000122629
3.34679e-05
-0.000118795
6.90922e-05
-0.000114101
0.000102701
-0.000108698
0.000134152
-0.00010266
0.000163293
-9.60278e-05
0.000189971
-8.89509e-05
0.000214129
-8.14668e-05
0.000235797
-7.37549e-05
0.000254793
-6.57545e-05
0.000271246
-5.7746e-05
0.000285142
-4.96019e-05
0.000296427
-4.14631e-05
0.000305303
-3.34938e-05
0.000311722
-2.5605e-05
0.000315754
-1.78972e-05
0.000317585
-1.05245e-05
0.000317317
-3.40257e-06
0.000315024
3.2838e-06
0.000310841
9.6742e-06
0.0003049
1.56938e-05
0.000297333
2.12849e-05
0.000288263
2.64683e-05
0.000277846
3.11966e-05
0.00026622
3.54616e-05
0.00025351
3.92785e-05
0.000239896
4.26065e-05
0.000225502
4.54993e-05
0.000210452
4.79432e-05
0.000194892
4.99128e-05
0.000178947
5.14634e-05
0.000162763
5.25763e-05
0.000146413
5.33253e-05
0.000130035
5.3665e-05
0.00011376
5.36189e-05
9.76535e-05
5.32606e-05
8.17929e-05
5.25828e-05
6.62783e-05
5.15824e-05
5.1181e-05
5.03173e-05
3.65798e-05
4.88177e-05
2.25546e-05
4.70523e-05
9.15084e-06
4.51053e-05
-3.56528e-06
4.29495e-05
-1.55733e-05
4.06839e-05
-2.68398e-05
3.82813e-05
-3.73372e-05
3.57765e-05
-4.70456e-05
3.31895e-05
-5.59506e-05
3.05497e-05
-6.40479e-05
2.78807e-05
-7.1332e-05
2.51843e-05
-7.78182e-05
2.25132e-05
-8.35037e-05
1.98494e-05
-8.84106e-05
1.72374e-05
-9.25563e-05
1.46802e-05
-9.59636e-05
1.21909e-05
-9.8662e-05
9.79513e-06
-0.000100683
7.49832e-06
-0.000102063
5.31398e-06
-0.000102839
3.24714e-06
-0.000103049
1.30054e-06
-0.000102736
-4.92767e-07
-0.000101933
-2.1739e-06
-0.000100679
-3.72713e-06
-9.90142e-05
-5.14719e-06
-9.69781e-05
-6.43056e-06
-9.46124e-05
-7.57419e-06
-9.19596e-05
-8.57668e-06
-8.90636e-05
-9.43544e-06
-8.59669e-05
-1.01555e-05
-8.27115e-05
-1.07393e-05
-7.93343e-05
-1.12013e-05
-7.58681e-05
-1.1553e-05
-7.23404e-05
-1.18107e-05
-6.87739e-05
-1.19877e-05
-6.51845e-05
-1.21064e-05
-6.15848e-05
-1.21776e-05
-5.79818e-05
-1.22174e-05
-5.43779e-05
-1.22402e-05
-5.07727e-05
-1.22537e-05
-4.7165e-05
-1.2261e-05
-4.3554e-05
-1.22613e-05
-3.9943e-05
-1.22463e-05
-3.63394e-05
-1.22055e-05
-3.27591e-05
-1.21207e-05
-2.92198e-05
-1.19885e-05
-2.57399e-05
-1.18088e-05
-2.23332e-05
-1.15922e-05
-1.90034e-05
-1.13643e-05
-1.57437e-05
-1.11528e-05
-1.25414e-05
-1.09723e-05
-9.38119e-06
-1.08383e-05
-6.24717e-06
-1.07544e-05
-3.12778e-06
-1.07195e-05
-1.07571e-05
0.000133378
-0.000384721
0.000267225
-0.000387642
0.000400281
-0.000387734
0.000531324
-0.000385524
0.000659108
-0.000380993
0.000782458
-0.000374191
0.000900213
-0.000365187
0.00101136
-0.000354159
0.00111513
-0.00034143
0.00121109
-0.00032752
0.00129929
-0.000312958
0.00137934
-0.00029756
0.00144922
-0.000279893
0.00150807
-0.000260613
0.00155584
-0.000240428
0.00159295
-0.000220016
0.00162002
-0.000199824
0.00163797
-0.000180416
0.00164782
-0.000162151
0.00165079
-0.000145368
0.00164814
-0.000130302
0.00164122
-0.000117192
0.00163143
-0.000106184
0.0016202
-9.73522e-05
0.00160888
-9.07051e-05
0.0015987
-8.60173e-05
0.00159081
-8.3224e-05
0.001586
-8.19291e-05
0.00158494
-8.18361e-05
0.00158792
-8.24234e-05
0.00159489
-8.31974e-05
0.00160529
-8.32256e-05
0.00161899
-8.30526e-05
0.00163669
-8.43715e-05
0.0016579
-8.55488e-05
0.00168212
-8.60516e-05
0.00170869
-8.5549e-05
0.00173693
-8.37854e-05
0.00176604
-8.06063e-05
0.00179502
-7.56536e-05
0.00182337
-6.93482e-05
0.00185036
-6.11538e-05
0.00187467
-5.07862e-05
0.00189598
-3.90196e-05
0.0019133
-2.57619e-05
0.00192809
-9.51813e-06
0.0019355
1.10908e-05
0.00193674
3.1059e-05
0.00193155
5.1912e-05
0.00191962
7.36722e-05
0.00190074
9.61711e-05
0.00187461
0.000119332
0.00184114
0.000142931
0.0018001
0.000166971
0.00175151
0.000191
0.00169532
0.000215154
0.00163165
0.000238833
0.00156078
0.000262108
0.00148298
0.000284473
0.00139878
0.000305844
0.00130871
0.000325697
0.00121336
0.000344014
0.00111343
0.000360394
0.00100971
0.000374589
0.00090305
0.000386473
0.000794236
0.000395889
0.000683951
0.000402845
0.00057327
0.000406887
0.000463066
0.000408157
0.000354298
0.000406314
0.000247599
0.000402123
0.000143876
0.00039475
4.40623e-05
0.000384534
-5.11577e-05
0.00037188
-0.000140911
0.000356445
-0.000224809
0.000338711
-0.000301997
0.000318741
-0.000372448
0.000296992
-0.000435546
0.000273368
-0.000491046
0.000248295
-0.000538877
0.000222362
-0.000578965
0.000195338
-0.000611245
0.000167783
-0.000635636
0.000139732
-0.00065246
0.000111881
-0.000661954
8.43258e-05
-0.000664522
5.74981e-05
-0.000660549
3.12717e-05
-0.000650341
6.15988e-06
-0.000634477
-1.76097e-05
-0.000613394
-4.01129e-05
-0.000587577
-6.11535e-05
-0.000557584
-8.04907e-05
-0.000523971
-9.80608e-05
-0.000487267
-0.000113784
-0.00044797
-0.000127643
-0.000406643
-0.00013956
-0.000363819
-0.000149485
-0.000319975
-0.000157567
-0.000275574
-0.000163723
-0.000231052
-0.000168039
-0.000186809
-0.000170659
-0.000143233
-0.00017155
-0.000100617
-0.000170948
-5.93309e-05
-0.000168786
-1.95946e-05
-0.000165287
1.83453e-05
-0.000160569
5.42751e-05
-0.000154725
8.80377e-05
-0.000147863
0.00011953
-0.000140191
0.000148623
-0.000131752
0.000175196
-0.000122602
0.000199187
-0.000112941
0.000220669
-0.000102949
0.000239472
-9.25587e-05
0.000255809
-8.20912e-05
0.000269549
-7.14863e-05
0.000280764
-6.08169e-05
0.00028964
-5.0339e-05
0.000296034
-3.98879e-05
0.000300258
-2.98284e-05
0.000302368
-2.00074e-05
0.000302378
-1.05341e-05
0.000300424
-1.4488e-06
0.000296757
6.95052e-06
0.000291393
1.50382e-05
0.000284472
2.2615e-05
0.000276129
2.96283e-05
0.000266515
3.60815e-05
0.000255764
4.19478e-05
0.000244018
4.72073e-05
0.000231419
5.1878e-05
0.000218039
5.59865e-05
0.000204061
5.94765e-05
0.000189611
6.2394e-05
0.000174773
6.47507e-05
0.000159688
6.65479e-05
0.000144443
6.78212e-05
0.00012917
6.85989e-05
0.000113967
6.88676e-05
9.88762e-05
6.87097e-05
8.40295e-05
6.81074e-05
6.94896e-05
6.71227e-05
5.53302e-05
6.57417e-05
4.16329e-05
6.40146e-05
2.84632e-05
6.19873e-05
1.58473e-05
5.96682e-05
3.85998e-06
5.70927e-05
-7.55484e-06
5.43643e-05
-1.82535e-05
5.13825e-05
-2.82448e-05
4.82727e-05
-3.75131e-05
4.50449e-05
-4.60469e-05
4.17233e-05
-5.38383e-05
3.83411e-05
-6.08871e-05
3.49295e-05
-6.71962e-05
3.14934e-05
-7.27776e-05
2.80945e-05
-7.76402e-05
2.4712e-05
-8.17903e-05
2.13875e-05
-8.52556e-05
1.81456e-05
-8.80588e-05
1.49941e-05
-9.02286e-05
1.19649e-05
-9.17963e-05
9.06601e-06
-9.27978e-05
6.31557e-06
-9.32693e-05
3.71856e-06
-9.32453e-05
1.27659e-06
-9.27674e-05
-9.7071e-07
-9.18613e-05
-3.07998e-06
-9.05628e-05
-5.02561e-06
-8.89066e-05
-6.8034e-06
-8.69281e-05
-8.40904e-06
-8.46645e-05
-9.83782e-06
-8.21546e-05
-1.10865e-05
-7.94397e-05
-1.21504e-05
-7.65606e-05
-1.30347e-05
-7.35569e-05
-1.3743e-05
-7.04632e-05
-1.4295e-05
-6.73086e-05
-1.47076e-05
-6.41172e-05
-1.50021e-05
-6.09076e-05
-1.51972e-05
-5.76927e-05
-1.53213e-05
-5.44816e-05
-1.53887e-05
-5.12781e-05
-1.54209e-05
-4.8081e-05
-1.54372e-05
-4.48856e-05
-1.54491e-05
-4.16871e-05
-1.54595e-05
-3.84802e-05
-1.54683e-05
-3.52665e-05
-1.546e-05
-3.20515e-05
-1.54205e-05
-2.88538e-05
-1.53184e-05
-2.56945e-05
-1.51477e-05
-2.25975e-05
-1.49058e-05
-1.9579e-05
-1.46108e-05
-1.66429e-05
-1.43003e-05
-1.3779e-05
-1.40168e-05
-1.09696e-05
-1.37817e-05
-8.19963e-06
-1.36082e-05
-5.45516e-06
-1.34988e-05
-2.72788e-06
-1.34468e-05
-1.3485e-05
0.000195916
-0.000580638
0.000391658
-0.000583383
0.000584853
-0.000580929
0.000773006
-0.000573677
0.000953615
-0.000561602
0.00112429
-0.000544865
0.00128287
-0.000523772
0.00142755
-0.00049884
0.0015572
-0.000471074
0.00167183
-0.000442155
0.00177085
-0.000411972
0.00185077
-0.000377484
0.00191095
-0.000340077
0.00195179
-0.000301447
0.00197418
-0.000262814
0.00197931
-0.000225153
0.00196873
-0.000189247
0.00194426
-0.000155943
0.00190784
-0.000125734
0.00186154
-9.90637e-05
0.00180745
-7.62126e-05
0.00174825
-5.79942e-05
0.00168691
-4.48436e-05
0.00162669
-3.71295e-05
0.0015707
-3.47169e-05
0.00152186
-3.71755e-05
0.00148244
-4.38028e-05
0.00145354
-5.30337e-05
0.00143464
-6.2932e-05
0.00142304
-7.08256e-05
0.00141899
-7.91482e-05
0.0014251
-8.93306e-05
0.00144167
-9.96283e-05
0.0014664
-0.000109096
0.00149789
-0.000117047
0.00153497
-0.000123128
0.00157638
-0.000126957
0.00162095
-0.000128357
0.00166715
-0.000126803
0.00171387
-0.00012238
0.00175962
-0.000115092
0.00180363
-0.00010517
0.0018441
-9.12561e-05
0.00188093
-7.58455e-05
0.001911
-5.58355e-05
0.00193683
-3.53476e-05
0.00195655
-8.63e-06
0.00196717
2.04454e-05
0.00196946
4.96207e-05
0.00196332
7.98072e-05
0.00194827
0.000111225
0.0019241
0.000143499
0.00189049
0.000176546
0.00184754
0.000209917
0.00179507
0.000243465
0.00173335
0.000276879
0.00166262
0.000309566
0.0015833
0.000341419
0.00149609
0.000371691
0.00140133
0.000400596
0.00130007
0.000426964
0.00119295
0.000451127
0.00108101
0.000472338
0.000965195
0.000490404
0.000846262
0.000505406
0.000725447
0.000516703
0.000603825
0.000524467
0.000482587
0.000528125
0.000362564
0.00052818
0.000244788
0.000524091
0.000130602
0.000516309
2.07812e-05
0.00050457
-8.38424e-05
0.000489157
-0.000182166
0.000470203
-0.000274044
0.000448323
-0.000358204
0.000422871
-0.000434587
0.000395123
-0.00050257
0.000364975
-0.000561983
0.00033278
-0.000612859
0.000299171
-0.000654761
0.000264263
-0.000687845
0.000228422
-0.000712326
0.000192265
-0.000728536
0.000155941
-0.00073654
0.000119885
-0.00073686
8.4646e-05
-0.000729995
5.06333e-05
-0.000716581
1.78577e-05
-0.000697297
-1.31246e-05
-0.000672416
-4.24909e-05
-0.0006426
-6.99283e-05
-0.00060853
-9.52237e-05
-0.000570818
-0.000118203
-0.000530072
-0.000138806
-0.000486906
-0.00015695
-0.000441916
-0.000172632
-0.000395638
-0.000185838
-0.000348622
-0.000196501
-0.000301341
-0.000204848
-0.00025417
-0.000210894
-0.000207597
-0.000214613
-0.000161961
-0.000216295
-0.000117692
-0.000215819
-7.49791e-05
-0.000213661
-3.40441e-05
-0.000209721
4.79058e-06
-0.000204122
4.1459e-05
-0.000197237
7.57991e-05
-0.000189065
0.000107624
-0.000179689
0.000136864
-0.000169431
0.000163543
-0.000158431
0.000187546
-0.000146605
0.00020898
-0.000134375
0.000227739
-0.000121707
0.000243875
-0.000108695
0.000257527
-9.57434e-05
0.000268608
-8.25675e-05
0.000277418
-6.96261e-05
0.000283813
-5.67343e-05
0.000288108
-4.41834e-05
0.000290261
-3.19807e-05
0.000290396
-2.01429e-05
0.000288634
-8.77203e-06
0.000285352
1.83326e-06
0.000280341
1.19612e-05
0.000273868
2.15117e-05
0.000266059
3.04235e-05
0.000257021
3.86667e-05
0.000246912
4.61898e-05
0.00023587
5.29897e-05
0.000224015
5.9063e-05
0.000211436
6.44572e-05
0.000198304
6.91182e-05
0.000184715
7.30656e-05
0.000170783
7.63254e-05
0.0001566
7.89339e-05
0.000142301
8.08468e-05
0.00012795
8.21721e-05
0.000113647
8.29029e-05
9.94701e-05
8.3044e-05
8.55034e-05
8.26765e-05
7.18173e-05
8.17934e-05
5.84806e-05
8.04595e-05
4.55587e-05
7.86636e-05
3.31099e-05
7.64634e-05
2.11643e-05
7.39329e-05
9.78435e-06
7.10482e-05
-1.017e-06
6.7894e-05
-1.11674e-05
6.45147e-05
-2.06886e-05
6.09037e-05
-2.95328e-05
5.71169e-05
-3.76932e-05
5.32052e-05
-4.51745e-05
4.92046e-05
-5.19666e-05
4.51332e-05
-5.80771e-05
4.104e-05
-6.35276e-05
3.69439e-05
-6.82979e-05
3.28649e-05
-7.24265e-05
2.88406e-05
-7.59095e-05
2.48705e-05
-7.87656e-05
2.10016e-05
-8.10293e-05
1.72578e-05
-8.27271e-05
1.36627e-05
-8.38888e-05
1.02277e-05
-8.45515e-05
6.97824e-06
-8.47502e-05
3.9173e-06
-8.45323e-05
1.05872e-06
-8.39053e-05
-1.59777e-06
-8.29097e-05
-4.07551e-06
-8.15745e-05
-6.36083e-06
-7.99289e-05
-8.44908e-06
-7.80033e-05
-1.03346e-05
-7.58307e-05
-1.20104e-05
-7.3447e-05
-1.34703e-05
-7.08914e-05
-1.4706e-05
-6.82042e-05
-1.57218e-05
-6.54236e-05
-1.65236e-05
-6.25825e-05
-1.71361e-05
-5.97061e-05
-1.75839e-05
-5.68152e-05
-1.7893e-05
-5.39245e-05
-1.80879e-05
-5.1044e-05
-1.82017e-05
-4.81803e-05
-1.82524e-05
-4.53344e-05
-1.82668e-05
-4.25018e-05
-1.82698e-05
-3.96733e-05
-1.82775e-05
-3.68407e-05
-1.82921e-05
-3.39931e-05
-1.83159e-05
-3.11313e-05
-1.83217e-05
-2.82578e-05
-1.82941e-05
-2.53948e-05
-1.81814e-05
-2.25675e-05
-1.7975e-05
-1.98066e-05
-1.76667e-05
-1.71314e-05
-1.72859e-05
-1.45466e-05
-1.6885e-05
-1.20366e-05
-1.65268e-05
-9.57703e-06
-1.62413e-05
-7.15246e-06
-1.60327e-05
-4.75257e-06
-1.58987e-05
-2.37074e-06
-1.58286e-05
-1.58557e-05
0.000301639
-0.000882276
0.000602328
-0.000884073
0.000898141
-0.000876742
0.00118462
-0.000860154
0.00145722
-0.000834203
0.00171138
-0.000799024
0.00194248
-0.000754878
0.00214644
-0.000702796
0.00231928
-0.000643915
0.00245534
-0.00057821
0.0025509
-0.000507535
0.00260717
-0.000433755
0.00262597
-0.000358881
0.00260945
-0.000284927
0.00256109
-0.000214451
0.0024857
-0.000149764
0.00238995
-9.34903e-05
0.00227962
-4.56135e-05
0.00216139
-7.50617e-06
0.00204116
2.1162e-05
0.00191277
5.2183e-05
0.00178353
7.1246e-05
0.00165506
8.36214e-05
0.00153359
8.43465e-05
0.00142274
7.61298e-05
0.0013267
5.88606e-05
0.00124808
3.48151e-05
0.00118969
5.36605e-06
0.00114429
-1.75396e-05
0.00111912
-4.56531e-05
0.00111515
-7.51766e-05
0.00112974
-0.000103924
0.00116067
-0.000130551
0.00120541
-0.000153839
0.00126157
-0.000173205
0.00132643
-0.000187991
0.00139727
-0.000197803
0.00147143
-0.000202513
0.00154703
-0.000202404
0.00162244
-0.000197787
0.00169468
-0.000187338
0.00176337
-0.000173857
0.00182615
-0.000154031
0.00188256
-0.000132264
0.00193106
-0.000104326
0.00197068
-7.49692e-05
0.00200165
-3.95988e-05
0.00202275
-6.61606e-07
0.00203297
3.94056e-05
0.00203192
8.0854e-05
0.00201987
0.000123273
0.00199624
0.000167138
0.00196105
0.000211733
0.00191416
0.000256805
0.00185579
0.000301833
0.00178632
0.000346354
0.00170649
0.000389392
0.00161681
0.000431103
0.00151808
0.000470422
0.00141114
0.000507533
0.0012968
0.000541301
0.00117649
0.000571436
0.001051
0.000597836
0.000921486
0.000619914
0.000789412
0.000637479
0.000656078
0.000650038
0.000522473
0.000658072
0.000389899
0.000660699
0.000260143
0.000657937
0.000134213
0.00065002
1.27079e-05
0.000637814
-0.000103055
0.000620333
-0.000211585
0.000597688
-0.000313047
0.000571665
-0.000405642
0.000540919
-0.000489431
0.00050666
-0.000563831
0.000469523
-0.000628563
0.000429708
-0.000683627
0.000387844
-0.000728412
0.000343956
-0.000763177
0.000299028
-0.000788461
0.000253707
-0.00080449
0.000208293
-0.000811532
0.000162984
-0.000810202
0.000118554
-0.000801094
7.55379e-05
-0.00078466
3.41997e-05
-0.000762071
-4.73095e-06
-0.000733559
-4.16364e-05
-0.000699904
-7.61459e-05
-0.000661751
-0.000108082
-0.000619935
-0.00013704
-0.000575154
-0.000162984
-0.000528026
-0.000185934
-0.000479185
-0.000205792
-0.00042929
-0.000222528
-0.000378902
-0.000236226
-0.000328601
-0.000246802
-0.000278572
-0.000254877
-0.000229484
-0.000259981
-0.000181672
-0.000262425
-0.000135515
-0.000262452
-9.10942e-05
-0.00026024
-4.88597e-05
-0.000255896
-8.94049e-06
-0.00024964
2.87231e-05
-0.000241786
6.37416e-05
-0.000232256
9.61115e-05
-0.000221435
0.000125816
-0.000209393
0.000152675
-0.00019629
0.000176852
-0.000182608
0.000198271
-0.000168024
0.000217061
-0.000153165
0.000233164
-0.000137811
0.000246801
-0.000122332
0.000257869
-0.000106812
0.000266638
-9.13363e-05
0.000273076
-7.60638e-05
0.000277297
-6.09555e-05
0.000279558
-4.6444e-05
0.000279843
-3.22665e-05
0.000278285
-1.85842e-05
0.000275207
-5.69467e-06
0.000270541
6.49927e-06
0.000264417
1.80856e-05
0.000257027
2.89021e-05
0.000248486
3.8964e-05
0.000238946
4.82072e-05
0.00022851
5.66257e-05
0.000217276
6.42231e-05
0.000205376
7.09637e-05
0.000192965
7.68682e-05
0.00018012
8.1963e-05
0.000166958
8.62272e-05
0.000153582
8.97019e-05
0.000140087
9.24282e-05
0.000126549
9.43849e-05
0.00011305
9.5671e-05
9.96743e-05
9.6279e-05
8.65045e-05
9.62138e-05
7.35881e-05
9.55928e-05
6.09961e-05
9.43855e-05
4.87828e-05
9.26728e-05
3.70179e-05
9.04285e-05
2.57089e-05
8.77724e-05
1.49006e-05
8.47412e-05
4.62833e-06
8.13204e-05
-5.07418e-06
7.75966e-05
-1.41536e-05
7.35941e-05
-2.26025e-05
6.93526e-05
-3.04207e-05
6.49351e-05
-3.76035e-05
6.03881e-05
-4.41411e-05
5.57422e-05
-5.00512e-05
5.10433e-05
-5.53425e-05
4.63313e-05
-6.00118e-05
4.16132e-05
-6.4086e-05
3.6939e-05
-6.75605e-05
3.23151e-05
-7.04574e-05
2.77674e-05
-7.27951e-05
2.33393e-05
-7.45886e-05
1.90513e-05
-7.5874e-05
1.49481e-05
-7.66893e-05
1.1043e-05
-7.70686e-05
7.35752e-06
-7.70477e-05
3.89641e-06
-7.66541e-05
6.65118e-07
-7.59125e-05
-2.33937e-06
-7.48537e-05
-5.13434e-06
-7.35009e-05
-7.71361e-06
-7.18786e-05
-1.00713e-05
-7.00125e-05
-1.22007e-05
-6.79312e-05
-1.40918e-05
-6.5668e-05
-1.57334e-05
-6.32611e-05
-1.71129e-05
-6.07514e-05
-1.82315e-05
-5.81756e-05
-1.90995e-05
-5.55662e-05
-1.97455e-05
-5.29436e-05
-2.02065e-05
-5.03257e-05
-2.05109e-05
-4.77231e-05
-2.06906e-05
-4.51437e-05
-2.07811e-05
-4.25922e-05
-2.0804e-05
-4.00674e-05
-2.07916e-05
-3.7562e-05
-2.07752e-05
-3.50627e-05
-2.07768e-05
-3.25582e-05
-2.07966e-05
-3.00311e-05
-2.0843e-05
-2.74822e-05
-2.08706e-05
-2.49097e-05
-2.08665e-05
-2.23401e-05
-2.07511e-05
-1.98026e-05
-2.05125e-05
-1.73367e-05
-2.01326e-05
-1.49656e-05
-1.9657e-05
-1.26951e-05
-1.91555e-05
-1.0502e-05
-1.87199e-05
-8.3534e-06
-1.83899e-05
-6.23245e-06
-1.81537e-05
-4.1335e-06
-1.79977e-05
-2.05423e-06
-1.79079e-05
-1.79099e-05
0.000474674
-0.00135695