# Selection :     faceZone(f0)
# Faces  :        1
# Area   :        1.0000000000e-01
# Time            	orientedSum(phi)
1                 	-1.0000000000e+00
