/*--------------------------------*- C++ -*----------------------------------*\
  =========                 |
  \\      /  F ield         | OpenFOAM: The Open Source CFD Toolbox
   \\    /   O peration     | Website:  https://openfoam.org
    \\  /    A nd           | Version:  12
     \\/     M anipulation  |
\*---------------------------------------------------------------------------*/
FoamFile
{
    format      ascii;
    class       volScalarField;
    location    "0.18";
    object      epsilon;
}
// * * * * * * * * * * * * * * * * * * * * * * * * * * * * * * * * * * * * * //

dimensions      [0 2 -3 0 0 0 0];

internalField   nonuniform List<scalar> 
12225
(
278.515
263.66
249.434
236.839
226.738
219.484
215.07
213.264
213.707
215.992
219.715
224.507
230.047
236.072
242.38
248.803
255.377
264.897
61.116
86.6954
97.9916
107.208
118.466
132.558
149.413
168.615
189.583
211.691
234.348
257.044
279.374
301.041
321.954
341.95
362.558
381.136
25.2776
36.1831
43.3818
48.6215
53.3866
58.3367
63.7713
69.8267
76.5279
83.8267
91.6329
99.8373
108.329
117.007
125.806
134.707
143.859
153.258
17.5217
21.2986
24.7145
27.6101
30.1621
32.5403
34.867
37.2284
39.6778
42.2416
44.9274
47.7307
50.6406
53.6448
56.7347
59.9183
63.2148
66.6512
15.4878
16.7519
18.1858
19.5889
20.9096
22.1491
23.3265
24.4654
25.5867
26.7056
27.8319
28.9712
30.1266
31.2994
32.4914
33.7077
34.9532
36.2249
14.9084
15.2396
15.7463
16.3341
16.9476
17.559
18.1559
18.7357
19.3003
19.8528
20.3965
20.9339
21.4673
21.9985
22.5291
23.0616
23.5978
24.1318
14.7451
14.7391
14.8342
15.0036
15.2216
15.4679
15.7286
15.9949
16.262
16.5275
16.7904
17.0501
17.3068
17.5608
17.8126
18.063
18.3124
18.5566
14.7012
14.5825
14.5116
14.4858
14.4981
14.5403
14.6043
14.6837
14.7737
14.8708
14.9726
15.0773
15.1838
15.2915
15.3999
15.5088
15.6179
15.7247
14.6901
14.5373
14.407
14.3009
14.2182
14.1571
14.1145
14.0875
14.0733
14.0693
14.0736
14.0845
14.1007
14.1213
14.1454
14.1724
14.2019
14.2322
14.6874
14.5252
14.3761
14.2411
14.1204
14.0137
13.9203
13.8391
13.7688
13.7083
13.6564
13.612
13.5741
13.5419
13.5147
13.492
13.4732
13.4575
14.6868
14.5221
14.3677
14.2236
14.0896
13.9655
13.8512
13.746
13.6495
13.561
13.4801
13.406
13.3383
13.2763
13.2197
13.1678
13.1204
13.0772
14.6866
14.5213
14.3656
14.219
14.0812
13.9518
13.8305
13.7168
13.6105
13.5111
13.4182
13.3314
13.2503
13.1747
13.104
13.038
12.9764
12.9194
14.6865
14.521
14.3648
14.2175
14.0785
13.9473
13.8234
13.7065
13.5963
13.4922
13.3941
13.3015
13.2142
13.1319
13.0542
12.981
12.912
12.8475
14.6864
14.5208
14.3645
14.2169
14.0774
13.9456
13.8209
13.7029
13.5912
13.4855
13.3853
13.2904
13.2005
13.1152
13.0344
12.9578
12.8852
12.8171
14.6864
14.5207
14.3643
14.2165
14.0769
13.9449
13.8199
13.7016
13.5895
13.4832
13.3824
13.2868
13.196
13.1098
13.0279
12.9501
12.8762
12.8067
14.6863
14.5206
14.3641
14.2163
14.0766
13.9444
13.8193
13.7009
13.5886
13.4822
13.3812
13.2854
13.1943
13.1079
13.0257
12.9475
12.8732
12.8033
14.6863
14.5205
14.364
14.2161
14.0763
13.9441
13.8189
13.7004
13.5881
13.4815
13.3805
13.2845
13.1934
13.1068
13.0245
12.9462
12.8718
12.8018
14.6863
14.5204
14.3639
14.216
14.0761
13.9439
13.8187
13.7001
13.5877
13.4811
13.3799
13.2839
13.1927
13.1061
13.0237
12.9454
12.8709
12.8008
14.6863
14.5204
14.3639
14.2159
14.0761
13.9438
13.8186
13.6999
13.5875
13.4809
13.3797
13.2837
13.1925
13.1058
13.0233
12.945
12.8704
12.8003
14.6863
14.5205
14.3639
14.216
14.0762
13.9439
13.8187
13.7001
13.5877
13.4811
13.38
13.284
13.1928
13.1061
13.0237
12.9454
12.8709
12.8008
14.6863
14.5205
14.364
14.2162
14.0764
13.9443
13.8192
13.7007
13.5885
13.4821
13.3812
13.2854
13.1945
13.1082
13.0262
12.9483
12.8742
12.8046
14.6863
14.5206
14.3643
14.2167
14.0773
13.9457
13.8214
13.7039
13.5928
13.4879
13.3886
13.2947
13.2059
13.1219
13.0423
12.967
12.8956
12.8288
14.6865
14.5212
14.3659
14.2202
14.0837
13.956
13.8368
13.7256
13.6218
13.525
13.4348
13.3506
13.272
13.1986
13.1301
13.0659
13.006
12.9505
14.6876
14.5264
14.3793
14.2467
14.1282
14.0231
13.9302
13.8484
13.7762
13.7126
13.6564
13.6068
13.5628
13.5237
13.489
13.4581
13.4306
13.4066
14.6976
14.5664
14.4707
14.4075
14.3714
14.3568
14.3584
14.372
14.3941
14.4224
14.455
14.4907
14.5286
14.568
14.6084
14.6495
14.6912
14.7331
14.7737
14.8187
14.9602
15.1591
15.3863
15.6233
15.8597
16.0904
16.3134
16.5283
16.7357
16.9364
17.1311
17.3208
17.5063
17.688
17.8665
18.0413
15.2587
16.1151
17.0712
17.9727
18.7878
19.5238
20.1944
20.8148
21.3987
21.9571
22.4984
23.0287
23.5523
24.072
24.5896
25.106
25.6214
26.1331
18.0414
22.0078
24.9885
27.1532
28.8882
30.4048
31.8123
33.1782
34.5435
35.9306
37.3507
38.8075
40.3003
41.8249
43.3759
44.9468
46.5312
48.116
34.024
45.6878
51.3768
54.9423
58.0808
61.2978
64.7505
68.4828
72.4786
76.6951
81.0818
85.5893
90.1708
94.7847
99.3953
103.974
108.504
112.96
163.308
157.417
151.704
146.261
141.3
136.947
133.25
130.206
127.78
125.918
124.558
123.637
123.093
122.87
122.916
123.186
123.64
124.24
0.319173
0.35859
0.583232
0.791927
1.02307
1.28351
1.57722
1.90946
2.26715
2.63358
3.00864
3.39006
3.77531
4.1621
4.54842
4.93248
5.31261
5.68716
6.05448
6.41284
6.76047
7.0955
7.41604
7.72016
8.00586
8.27097
8.51301
8.729
8.91541
9.0686
9.18588
9.2661
39.2723
9.30714
9.27931
9.32233
9.32696
9.27112
9.35649
39.9822
40.0453
9.46502
9.52002
42.4538
45.3204
48.3882
51.6331
55.0476
58.6296
62.3786
66.2956
70.3822
74.6406
79.0731
83.682
88.4698
93.4386
98.5904
103.927
109.451
115.162
121.062
127.151
133.43
139.898
146.555
153.4
160.431
167.647
175.045
182.622
190.375
198.299
206.392
214.647
223.06
231.625
240.336
249.187
258.17
267.278
276.503
285.838
295.273
304.8
314.409
324.091
333.836
343.633
353.472
363.341
373.229
383.124
393.013
402.885
412.73
422.541
432.317
442.071
451.837
461.553
471.138
480.589
489.898
499.052
508.035
516.833
525.428
533.805
541.949
549.845
557.477
564.832
571.895
578.652
585.091
591.199
596.965
602.378
607.427
612.103
616.398
620.303
623.811
626.918
629.617
631.905
633.778
635.234
636.272
636.891
637.093
636.88
636.254
635.219
633.78
631.943
629.714
627.102
624.114
620.759
617.05
612.995
608.607
603.897
598.881
593.57
587.978
582.121
576.013
569.67
563.106
556.339
549.384
542.256
534.973
527.551
520.003
512.352
504.607
496.785
488.919
480.977
473.076
465.307
459.4
456.47
453.754
451.036
448.307
445.567
442.814
440.043
437.232
434.334
431.249
427.742
423.209
416.162
400.25
1.11721
0.686119
0.706158
0.815149
0.970772
1.1626
1.38751
1.64164
1.91898
2.21335
2.52059
2.83767
3.16239
3.49312
3.82866
4.16816
4.51097
4.85665
5.20498
5.55594
5.90981
6.26723
6.62935
6.99798
7.3758
7.7666
8.17562
8.61011
9.08062
9.60505
10.2236
11.0589
12.5754
12.6346
13.5982
14.6479
15.9058
17.496
18.8222
20.6629
22.0221
23.0153
24.7737
27.0012
28.5982
30.2014
31.8564
33.5701
35.3442
37.1803
39.0799
41.0443
43.0745
45.1717
47.3366
49.57
51.8725
54.2446
56.6867
59.199
61.7817
64.4347
67.1579
69.951
72.8136
75.7452
78.7451
81.8124
84.9461
88.1452
91.4083
94.734
98.1209
101.567
105.071
108.63
112.242
115.906
119.618
123.377
127.179
131.021
134.901
138.816
142.762
146.736
150.735
154.754
158.79
162.839
166.896
170.959
175.022
179.081
183.134
187.178
191.213
195.242
199.273
203.335
207.409
211.444
215.43
219.362
223.234
227.041
230.777
234.435
238.009
241.493
244.882
248.17
251.35
254.418
257.368
260.195
262.895
265.461
267.891
270.179
272.322
274.316
276.159
277.845
279.374
280.743
281.949
282.991
283.868
284.579
285.122
285.499
285.708
285.752
285.63
285.344
284.895
284.286
283.519
282.597
281.523
280.3
278.933
277.424
275.779
274.002
272.098
270.071
267.928
265.674
263.314
260.854
258.3
255.659
252.936
250.136
247.269
244.336
241.349
238.309
235.224
232.112
228.929
225.787
222.713
220.027
217.913
215.923
213.959
212.004
210.055
208.112
206.176
204.247
202.319
200.388
198.429
196.432
194.274
193.046
2.16565
1.1266
1.03747
1.09759
1.21867
1.38209
1.5805
1.80865
2.06135
2.33365
2.6214
2.92144
3.23155
3.55032
3.87695
4.21116
4.553
4.90287
5.26145
5.62973
6.00907
6.40121
6.80838
7.23338
7.67968
8.15147
8.65372
9.19223
9.77349
10.4047
11.094
11.8519
12.7004
13.5437
14.4624
15.42
16.4347
17.5108
18.6176
19.8009
21.0224
22.2643
23.553
24.875
26.1969
27.5541
28.9577
30.4108
31.9145
33.4693
35.0758
36.7345
38.4458
40.2101
42.0278
43.8993
45.8247
47.8044
49.8383
51.9267
54.0694
56.2664
58.5175
60.8224
63.1808
65.5923
68.0562
70.5721
73.139
75.7563
78.4229
81.1378
83.8999
86.7079
89.5604
92.456
95.3932
98.3702
101.385
104.436
107.522
110.639
113.787
116.961
120.161
123.384
126.627
129.888
133.163
136.451
139.748
143.053
146.362
149.675
152.989
156.304
159.62
162.939
166.263
169.589
172.898
176.176
179.415
182.612
185.76
188.855
191.892
194.866
197.772
200.606
203.362
206.035
208.622
211.117
213.516
215.816
218.012
220.099
222.076
223.937
225.681
227.304
228.803
230.176
231.42
232.534
233.516
234.365
235.08
235.66
236.103
236.412
236.584
236.622
236.525
236.294
235.932
235.44
234.819
234.072
233.201
232.21
231.101
229.877
228.542
227.1
225.554
223.909
222.169
220.338
218.421
216.422
214.346
212.199
209.984
207.707
205.374
202.985
200.552
198.074
195.554
193.024
190.465
187.917
185.41
183.053
180.903
178.837
176.804
174.788
172.785
170.798
168.827
166.878
164.956
163.073
161.246
159.538
158.041
157.555
3.32127
1.61462
1.39417
1.40318
1.49702
1.64147
1.82399
2.03778
2.27762
2.53904
2.81822
3.11214
3.41866
3.73641
4.06475
4.40357
4.7532
5.11438
5.48811
5.87572
6.27881
6.69925
7.13924
7.60126
8.08808
8.60273
9.14844
9.72854
10.3463
11.0046
11.7058
12.4515
13.2429
14.0734
14.9452
15.8562
16.8096
17.8074
18.8482
19.934
21.061
22.2255
23.4262
24.6614
25.931
27.2405
28.5937
29.9931
31.4398
32.9347
34.4784
36.0715
37.7144
39.4077
41.1517
42.947
44.7937
46.6922
48.6428
50.6457
52.7011
54.809
56.9694
59.1823
61.4476
63.7651
66.1344
68.5552
71.0269
73.5489
76.1206
78.7411
81.4096
84.1248
86.8858
89.6912
92.5396
95.4295
98.3593
101.327
104.331
107.37
110.441
113.542
116.67
119.825
123.002
126.2
129.416
132.648
135.893
139.15
142.415
145.687
148.964
152.246
155.53
158.814
162.097
165.365
168.61
171.823
174.998
178.131
181.215
184.247
187.22
190.131
192.973
195.742
198.433
201.042
203.563
205.992
208.325
210.558
212.686
214.707
216.615
218.408
220.083
221.636
223.066
224.369
225.545
226.59
227.503
228.284
228.93
229.442
229.82
230.062
230.171
230.145
229.986
229.696
229.276
228.727
228.052
227.252
226.332
225.294
224.14
222.874
221.5
220.022
218.443
216.769
215.001
213.147
211.21
209.194
207.103
204.946
202.724
200.44
198.107
195.717
193.289
190.83
188.34
185.832
183.306
180.783
178.285
175.86
173.536
171.271
169.038
166.828
164.638
162.47
160.329
158.221
156.157
154.156
152.25
150.518
149.075
148.387
4.42104
2.08063
1.73337
1.69616
1.76639
1.89537
2.06568
2.26877
2.49913
2.75248
3.02532
3.31489
3.61917
3.93685
4.2673
4.61042
4.9666
5.33658
5.72139
6.12232
6.54088
6.97876
7.43783
7.9201
8.42768
8.96276
9.52753
10.1241
10.7546
11.4206
12.1237
12.8648
13.6444
14.4627
15.32
16.2168
17.154
18.1324
19.1523
20.2137
21.3161
22.4591
23.6427
24.8668
26.1322
27.4408
28.7945
30.1948
31.6429
33.1399
34.6866
36.2837
37.9321
39.6325
41.3855
43.1918
45.0519
46.9666
48.9362
50.9613
53.0423
55.1797
57.3736
59.6244
61.9321
64.2968
66.7185
69.197
71.7321
74.3232
76.97
79.6718
82.4277
85.2368
88.0981
91.0103
93.9721
96.9819
100.038
103.139
106.282
109.466
112.689
115.947
119.239
122.562
125.914
129.292
132.693
136.114
139.553
143.007
146.474
149.95
153.434
156.922
160.412
163.901
167.378
170.834
174.261
177.654
181.007
184.313
187.567
190.764
193.898
196.962
199.953
202.864
205.691
208.427
211.068
213.61
216.046
218.374
220.587
222.684
224.658
226.508
228.229
229.819
231.275
232.595
233.776
234.816
235.715
236.471
237.083
237.55
237.874
238.053
238.088
237.981
237.732
237.343
236.817
236.154
235.358
234.431
233.376
232.197
230.898
229.481
227.952
226.313
224.571
222.729
220.792
218.764
216.653
214.461
212.19
209.856
207.454
204.988
202.48
199.924
197.33
194.704
192.05
189.377
186.689
184.001
181.328
178.697
176.123
173.594
171.096
168.625
166.182
163.767
161.389
159.054
156.778
154.584
152.509
150.629
149.039
147.999
5.39528
2.49596
2.03876
1.96106
2.01058
2.12607
2.28573
2.4794
2.7011
2.94662
3.21272
3.49687
3.79723
4.11257
4.44225
4.78615
5.14459
5.51823
5.90802
6.31513
6.74091
7.18685
7.65457
8.14578
8.66222
9.20569
9.77796
10.3807
11.0157
11.6843
12.3879
13.1276
13.9046
14.7195
15.5733
16.4668
17.4007
18.3758
19.3926
20.4517
21.5534
22.6983
23.887
25.1202
26.3988
27.7239
29.097
30.5194
31.9922
33.5168
35.0942
36.7256
38.4121
40.1546
41.9542
43.812
45.7288
47.7057
49.7435
51.8431
54.0052
56.2307
58.52
60.8739
63.2927
65.7769
68.3265
70.9418
73.6227
76.369
79.1803
82.0561
84.9957
87.9983
91.0627
94.1878
97.372
100.614
103.911
107.263
110.666
114.118
117.617
121.16
124.745
128.368
132.027
135.718
139.439
143.185
146.954
150.743
154.547
158.364
162.19
166.02
169.852
173.677
177.483
181.262
185.009
188.717
192.378
195.988
199.538
203.024
206.438
209.775
213.028
216.192
219.259
222.225
225.083
227.829
230.456
232.961
235.338
237.582
239.69
241.658
243.482
245.158
246.685
248.06
249.279
250.343
251.248
251.995
252.583
253.01
253.278
253.387
253.338
253.131
252.769
252.254
251.588
250.773
249.813
248.711
247.47
246.095
244.59
242.959
241.206
239.336
237.357
235.271
233.083
230.799
228.429
225.974
223.432
220.83
218.163
215.436
212.661
209.84
206.98
204.088
201.169
198.231
195.281
192.328
189.385
186.47
183.592
180.751
177.941
175.163
172.418
169.71
167.047
164.44
161.904
159.465
157.161
155.058
153.225
151.804
6.21432
2.85557
2.30374
2.19028
2.22111
2.32416
2.47378
2.65829
2.87119
3.10826
3.36643
3.6434
3.93747
4.24754
4.573
4.91371
5.26994
5.64228
6.03157
6.43888
6.86546
7.31267
7.78199
8.27495
8.79316
9.33822
9.91176
10.5154
11.1506
11.8189
12.5217
13.2603
14.0359
14.8496
15.7027
16.596
17.5305
18.5073
19.5272
20.5912
21.7001
22.8549
24.0567
25.3064
26.6054
27.9547
29.3558
30.8102
32.3192
33.8844
35.5073
37.1893
38.9319
40.7366
42.6048
44.538
46.5376
48.6049
50.7413
52.9481
55.2264
57.5775
60.0024
62.502
65.0772
67.7285
70.4567
73.262
76.1446
79.1046
82.1417
85.2556
88.4456
91.7108
95.0502
98.4624
101.946
105.499
109.119
112.804
116.552
120.36
124.225
128.144
132.114
136.13
140.191
144.291
148.427
152.596
156.792
161.013
165.252
169.507
173.772
178.043
182.314
186.568
190.798
194.996
199.156
203.27
207.331
211.331
215.263
219.121
222.896
226.581
230.171
233.656
237.032
240.291
243.426
246.433
249.305
252.035
254.621
257.055
259.333
261.452
263.407
265.195
266.814
268.26
269.531
270.626
271.543
272.282
272.841
273.222
273.423
273.447
273.295
272.968
272.468
271.798
270.961
269.961
268.8
267.482
266.012
264.396
262.638
260.743
258.715
256.559
254.287
251.901
249.403
246.801
244.113
241.336
238.477
235.547
232.551
229.495
226.387
223.233
220.04
216.815
213.564
210.295
207.014
203.731
200.456
197.2
193.975
190.782
187.623
184.499
181.415
178.376
175.392
172.474
169.64
166.915
164.336
161.958
159.824
158.016
6.89226
3.15896
2.52566
2.38022
2.39369
2.48476
2.6244
2.79954
3.00316
3.23094
3.47993
3.74799
4.03362
4.33582
4.65406
4.98823
5.33856
5.7056
6.09016
6.49323
6.91599
7.35972
7.82582
8.31576
8.83106
9.37326
9.94393
10.5446
11.1769
11.8422
12.542
13.2778
14.051
14.8629
15.7147
16.6078
17.5435
18.5229
19.5474
20.6181
21.7365
22.9038
24.1215
25.3909
26.7136
28.0911
29.5251
31.0174
32.5697
34.1839
35.862
37.6058
39.4173
41.2985
43.2513
45.2777
47.3795
49.5588
51.8172
54.1567
56.5789
59.0855
61.6779
64.3575
67.1255
69.9831
72.931
75.9699
79.1004
82.3225
85.6363
89.0414
92.5372
96.1229
99.7972
103.559
107.406
111.336
115.347
119.436
123.6
127.837
132.142
136.511
140.942
145.43
149.97
154.558
159.189
163.86
168.563
173.296
178.051
182.823
187.607
192.397
197.181
201.941
206.669
211.359
216.003
220.592
225.119
229.574
233.95
238.238
242.43
246.518
250.494
254.349
258.077
261.67
265.121
268.423
271.569
274.554
277.372
280.017
282.484
284.768
286.865
288.773
290.487
292.005
293.326
294.448
295.368
296.088
296.606
296.922
297.039
296.956
296.677
296.202
295.535
294.679
293.638
292.416
291.018
289.447
287.706
285.807
283.754
281.551
279.202
276.712
274.1
271.367
268.518
265.561
262.507
259.361
256.129
252.822
249.446
246.008
242.516
238.978
235.401
231.791
228.157
224.506
220.845
217.182
213.527
209.89
206.28
202.702
199.161
195.66
192.206
188.806
185.469
182.21
179.045
176.001
173.109
170.415
167.943
165.744
7.42955
3.40527
2.70366
2.52983
2.52701
2.60627
2.73572
2.90107
3.09481
3.31249
3.55122
3.80901
4.08452
4.37687
4.68564
5.01074
5.35244
5.71128
6.08803
6.48366
6.89929
7.33617
7.79564
8.27914
8.78813
9.32415
9.88874
10.4835
11.1099
11.7696
12.4641
13.195
13.9638
14.7722
15.6215
16.5134
17.4494
18.4312
19.4602
20.5382
21.6668
22.8478
24.0829
25.3742
26.7233
28.1325
29.6037
31.1392
32.7412
34.4121
36.1544
37.9704
39.8628
41.8339
43.8864
46.0229
48.2457
50.5575
52.9606
55.4573
58.05
60.7407
63.5315
66.4243
69.4206
72.5219
75.7295
79.0443
82.4669
85.9978
89.6371
93.3843
97.2391
101.2
105.266
109.436
113.707
118.076
122.541
127.099
131.746
136.478
141.291
146.181
151.142
156.17
161.26
166.406
171.604
176.846
182.127
187.441
192.781
198.141
203.513
208.89
214.245
219.568
224.853
230.092
235.274
240.39
245.432
250.389
255.252
260.012
264.658
269.182
273.575
277.828
281.933
285.881
289.666
293.278
296.712
299.961
303.018
305.877
308.533
310.98
313.214
315.233
317.033
318.611
319.966
321.096
322.001
322.679
323.131
323.358
323.361
323.142
322.704
322.049
321.18
320.102
318.82
317.34
315.666
313.802
311.749
309.525
307.135
304.584
301.877
299.022
296.031
292.911
289.668
286.311
282.849
279.291
275.643
271.916
268.118
264.255
260.338
256.374
252.371
248.336
244.279
240.205
236.124
232.044
227.973
223.92
219.895
215.904
211.954
208.051
204.201
200.413
196.699
193.072
189.551
186.159
182.925
179.885
177.049
174.455
7.83054
3.59558
2.83875
2.64014
2.62203
2.68956
2.80853
2.96363
3.14693
3.35385
3.58152
3.82809
4.09232
4.37347
4.67121
4.98554
5.31674
5.66536
6.03217
6.41812
6.82429
7.25191
7.70229
8.17684
8.67703
9.20436
9.76041
10.3468
10.9651
11.617
12.3042
13.0285
13.7914
14.5949
15.4408
16.3308
17.2669
18.251
19.2851
20.3713
21.5116
22.7084
23.9638
25.2802
26.6602
28.1061
29.6207
31.2067
32.8671
34.6046
36.4224
38.3237
40.3114
42.3889
44.5594
46.826
49.1919
51.6604
54.2343
56.9168
59.7106
62.6184
65.6428
68.786
72.0503
75.4373
78.9487
82.5857
86.349
90.2393
94.2566
98.4005
102.67
107.065
111.582
116.221
120.978
125.85
130.834
135.925
141.12
146.414
151.801
157.277
162.834
168.469
174.174
179.943
185.77
191.648
197.569
203.527
209.513
215.52
221.54
227.549
233.523
239.457
245.342
251.169
256.926
262.605
268.193
273.679
279.054
284.305
289.423
294.397
299.219
303.877
308.364
312.669
316.786
320.705
324.419
327.921
331.204
334.263
337.091
339.681
342.031
344.137
345.996
347.606
348.966
350.074
350.929
351.532
351.883
351.984
351.836
351.443
350.807
349.933
348.821
347.48
345.917
344.138
342.147
339.95
337.554
334.969
332.204
329.266
326.162
322.901
319.493
315.947
312.272
308.476
304.57
300.562
296.462
292.279
288.023
283.701
279.324
274.9
270.438
265.946
261.433
256.906
252.375
247.848
243.332
238.838
234.374
229.948
225.568
221.241
216.975
212.78
208.668
204.654
200.754
196.992
193.393
189.984
186.767
183.776
8.10364
3.73284
2.93353
2.71377
2.68146
2.7374
2.84565
2.99013
3.16256
3.35825
3.57436
3.80911
4.06138
4.33056
4.61638
4.9189
5.23846
5.57563
5.93116
6.306
6.70122
7.11802
7.55772
8.0217
8.51145
9.02851
9.57451
10.1511
10.76
11.4031
12.0822
12.7991
13.556
14.3548
15.1976
16.0867
17.0244
18.0129
19.0548
20.1525
21.3088
22.5264
23.808
25.1567
26.5755
28.0676
29.6364
31.2852
33.0176
34.8373
36.748
38.7536
40.8581
43.0653
45.3793
47.8039
50.3432
53.001
55.781
58.6867
61.7216
64.8889
68.1917
71.6327
75.2145
78.939
82.8082
86.8234
90.9855
95.295
99.7517
104.355
109.104
113.998
119.033
124.207
129.518
134.96
140.531
146.224
152.035
157.957
163.984
170.111
176.329
182.632
189.013
195.465
201.979
208.549
215.166
221.821
228.505
235.209
241.916
248.585
255.211
261.783
268.292
274.728
281.078
287.331
293.475
299.497
305.384
311.125
316.708
322.124
327.361
332.408
337.258
341.898
346.322
350.52
354.484
358.208
361.685
364.909
367.87
370.564
372.989
375.139
377.014
378.612
379.931
380.97
381.731
382.212
382.414
382.341
381.995
381.38
380.5
379.36
377.964
376.32
374.433
372.312
369.963
367.393
364.611
361.626
358.447
355.084
351.545
347.84
343.979
339.973
335.831
331.563
327.18
322.692
318.109
313.44
308.697
303.888
299.024
294.114
289.168
284.193
279.201
274.198
269.195
264.199
259.219
254.265
249.345
244.468
239.642
234.877
230.181
225.565
221.041
216.624
212.332
208.184
204.202
200.41
196.801
193.411
8.26084
3.82156
2.9918
2.75453
2.70922
2.75386
2.85132
2.98497
3.1463
3.33055
3.53491
3.75765
3.99777
4.25471
4.52831
4.81867
5.12617
5.45139
5.79511
6.15826
6.54193
6.94732
7.37575
7.82866
8.30757
8.81408
9.34993
9.91689
10.5169
11.1519
11.8239
12.5353
13.2882
14.0851
14.9284
15.8208
16.765
17.764
18.8206
19.9381
21.1196
22.3686
23.6886
25.0833
26.5564
28.1119
29.7539
31.4867
33.3146
35.2421
37.274
39.4147
41.6693
44.0423
46.5387
49.1633
51.9206
54.8154
57.852
61.0346
64.3669
67.8528
71.4955
75.2982
79.2637
83.3943
87.6916
92.1571
96.7915
101.595
106.567
111.707
117.012
122.481
128.111
133.897
139.837
145.924
152.154
158.521
165.017
171.637
178.37
185.21
192.148
199.177
206.289
213.475
220.727
228.036
235.391
242.784
250.205
257.639
265.033
272.376
279.66
286.874
294.006
301.044
307.975
314.787
321.469
328.003
334.376
340.575
346.588
352.406
358.016
363.408
368.572
373.498
378.177
382.599
386.757
390.645
394.255
397.585
400.62
403.356
405.791
407.924
409.752
411.275
412.49
413.399
414.003
414.302
414.297
413.994
413.395
412.504
411.328
409.871
408.14
406.142
403.885
401.376
398.625
395.639
392.428
389.002
385.371
381.546
377.536
373.353
369.007
364.509
359.871
355.102
350.216
345.221
340.131
334.954
329.702
324.386
319.016
313.601
308.153
302.681
297.193
291.7
286.211
280.733
275.277
269.852
264.466
259.13
253.851
248.641
243.507
238.462
233.519
228.691
223.997
219.454
215.081
210.897
206.893
203.104
8.31698
3.86736
3.01813
2.76695
2.71002
2.74387
2.83072
2.95361
3.10393
3.27689
3.46971
3.68073
3.90902
4.15409
4.41585
4.69444
4.99029
5.30401
5.63639
5.98839
6.36115
6.75589
7.17401
7.61702
8.08653
8.58431
9.11222
9.67228
10.2666
10.8975
11.5672
12.2785
13.034
13.8364
14.6889
15.5946
16.5569
17.5791
18.6652
19.8188
21.0441
22.3452
23.7266
25.1927
26.7482
28.3979
30.147
32.0006
33.9641
36.043
38.2427
40.5691
43.0277
45.6243
48.3646
51.2542
54.2985
57.5029
60.8724
64.4114
68.1237
72.0134
76.0838
80.3383
84.7795
89.4094
94.2297
99.2411
104.444
109.837
115.42
121.19
127.145
133.282
139.595
146.08
152.733
159.545
166.512
173.626
180.879
188.262
195.762
203.372
211.082
218.884
226.768
234.726
242.748
250.825
258.945
267.099
275.272
283.397
291.463
299.461
307.377
315.2
322.917
330.514
337.978
345.296
352.459
359.448
366.239
372.826
379.196
385.34
391.244
396.9
402.295
407.421
412.269
416.828
421.093
425.055
428.709
432.049
435.068
437.76
440.123
442.156
443.856
445.223
446.258
446.961
447.333
447.377
447.096
446.494
445.575
444.346
442.812
440.979
438.856
436.45
433.77
430.824
427.624
424.177
420.495
416.589
412.469
408.147
403.634
398.942
394.082
389.067
383.908
378.618
373.207
367.689
362.074
356.374
350.6
344.765
338.878
332.95
326.992
321.014
315.025
309.036
303.056
297.094
291.159
285.261
279.409
273.612
267.881
262.225
256.654
251.18
245.817
240.578
235.48
230.54
225.774
221.198
216.8
212.619
8.28929
3.87659
3.01757
2.75597
2.68901
2.71293
2.78973
2.9024
3.04229
3.20465
3.38676
3.58704
3.8046
4.03904
4.29031
4.55863
4.84447
5.1485
5.47157
5.81472
6.17916
6.56625
6.97749
7.41458
7.87933
8.37372
8.89992
9.46023
10.0572
10.6934
11.3718
12.0954
12.8676
13.6917
14.5714
15.5107
16.5136
17.5847
18.7284
19.9497
21.2536
22.6454
24.1305
25.7146
27.4032
29.2024
31.1182
33.1571
35.3254
37.6298
40.0769
42.6731
45.4252
48.3397
51.423
54.6813
58.121
61.7477
65.5673
69.584
73.8
78.2188
82.8441
87.6786
92.7243
97.9826
103.454
109.138
115.034
121.139
127.452
133.968
140.683
147.592
154.69
161.968
169.421
177.04
184.817
192.745
200.817
209.021
217.335
225.752
234.264
242.861
251.535
260.276
269.073
277.918
286.799
295.692
304.525
313.286
321.965
330.547
339.019
347.368
355.58
363.641
371.537
379.254
386.779
394.096
401.19
408.046
414.655
421.004
427.082
432.878
438.383
443.586
448.479
453.055
457.304
461.222
464.802
468.038
470.926
473.462
475.643
477.468
478.937
480.048
480.804
481.206
481.256
480.958
480.316
479.335
478.02
476.379
474.417
472.143
469.565
466.693
463.535
460.103
456.405
452.454
448.261
443.837
439.194
434.344
429.301
424.075
418.68
413.129
407.433
401.606
395.661
389.609
383.462
377.234
370.935
364.578
358.174
351.733
345.268
338.787
332.303
325.823
319.358
312.918
306.512
300.149
293.838
287.591
281.416
275.323
269.324
263.431
257.655
252.012
246.517
241.186
236.034
231.073
226.29
221.728
8.19687
3.85594
2.99532
2.72676
2.65173
2.66712
2.73513
2.83885
2.96974
3.12314
3.29641
3.48807
3.6973
3.9238
4.16759
4.429
4.70858
5.00713
5.32565
5.66533
6.02758
6.41399
6.82634
7.26662
7.73702
8.23994
8.77799
9.35402
9.97112
10.6326
11.3422
12.1037
12.9211
13.799
14.7419
15.7547
16.8429
18.0119
19.2677
20.6166
22.0651
23.62
25.2883
27.0768
28.9919
31.0407
33.2309
35.57
38.0657
40.7256
43.557
46.5673
49.7637
53.153
56.7421
60.5371
64.5444
68.77
73.2208
77.9027
82.8065
87.9381
93.3005
98.8953
104.723
110.783
117.073
123.592
130.336
137.301
144.483
151.874
159.469
167.261
175.24
183.399
191.728
200.216
208.855
217.634
226.543
235.568
244.696
253.915
263.215
272.587
282.019
291.505
301.03
310.595
320.139
329.606
338.983
348.257
357.413
366.44
375.321
384.044
392.594
400.956
409.118
417.065
424.784
432.261
439.481
446.432
453.103
459.482
465.558
471.322
476.764
481.876
486.648
491.075
495.148
498.864
502.216
505.199
507.812
510.05
511.912
513.397
514.506
515.24
515.6
515.589
515.211
514.469
513.37
511.919
510.123
507.989
505.525
502.74
499.643
496.245
492.555
488.585
484.346
479.85
475.109
470.136
464.942
459.542
453.947
448.172
442.229
436.132
429.893
423.527
417.045
410.461
403.787
397.036
390.221
383.352
376.442
369.502
362.544
355.577
348.612
341.659
334.728
327.828
320.969
314.161
307.412
300.733
294.134
287.624
281.216
274.92
268.75
262.72
256.844
251.137
245.612
240.281
235.13
230.205
8.05419
3.81041
2.95541
2.68358
2.60304
2.61212
2.67358
2.77081
2.89548
3.04312
3.21122
3.39842
3.60408
3.82801
4.07044
4.33186
4.61308
4.91515
5.2394
5.58737
5.96089
6.36202
6.79311
7.25675
7.75584
8.29357
8.87343
9.49916
10.1749
10.9052
11.695
12.5497
13.475
14.4764
15.5599
16.7324
18.0008
19.3727
20.856
22.4589
24.19
26.0584
28.0744
30.2466
32.5779
35.0783
37.7573
40.6233
43.6848
46.9495
50.4251
54.1185
58.0362
62.1843
66.5681
71.1924
76.0613
81.1784
86.5463
92.1661
98.0354
104.154
110.52
117.132
123.986
131.08
138.409
145.966
153.746
161.741
169.944
178.345
186.936
195.707
204.647
213.745
222.991
232.373
241.879
251.498
261.218
271.027
280.912
290.863
300.869
310.922
321.01
331.136
341.26
351.303
361.244
371.07
380.766
390.319
399.714
408.939
417.978
426.82
435.449
443.854
452.02
459.936
467.588
474.964
482.052
488.84
495.317
501.474
507.3
512.787
517.927
522.711
527.133
531.187
534.867
538.168
541.087
543.621
545.766
547.521
548.887
549.862
550.449
550.648
550.464
549.9
548.96
547.65
545.975
543.943
541.562
538.838
535.782
532.403
528.712
524.718
520.433
515.868
511.037
505.95
500.622
495.065
489.291
483.315
477.151
470.811
464.309
457.659
450.874
443.968
436.953
429.844
422.652
415.391
408.073
400.709
393.311
385.892
378.461
371.03
363.608
356.207
348.834
341.501
334.215
326.988
319.827
312.743
305.746
298.845
292.053
285.38
278.839
272.443
266.208
260.146
254.269
248.59
243.092
237.825
7.90701
3.75511
2.90972
2.63892
2.55727
2.56478
2.62495
2.72162
2.84677
2.99618
3.1676
3.35993
3.57281
3.8064
4.06131
4.33851
4.63932
4.96544
5.31888
5.70201
6.11757
6.56869
7.05886
7.59195
8.17233
8.8049
9.49504
10.248
11.0699
11.9676
12.9486
14.0214
15.1958
16.4782
17.8756
19.3985
21.0569
22.8611
24.8216
26.9488
29.2532
31.7456
34.436
37.3337
40.4463
43.7823
47.3496
51.1557
55.207
59.5093
64.0671
68.8843
73.9636
79.307
84.9153
90.7885
96.9256
103.325
109.984
116.898
124.061
131.469
139.115
146.993
155.093
163.41
171.934
180.656
189.567
198.656
207.914
217.329
226.89
236.587
246.408
256.342
266.376
276.5
286.703
296.972
307.299
317.672
328.08
338.52
348.975
359.456
369.922
380.29
390.532
400.64
410.602
420.403
430.032
439.476
448.722
457.758
466.571
475.15
483.482
491.557
499.361
506.885
514.117
521.047
527.664
533.958
539.92
545.542
550.815
555.731
560.284
564.467
568.275
571.703
574.747
577.402
579.666
581.538
583.016
584.099
584.789
585.085
584.991
584.509
583.643
582.398
580.779
578.792
576.443
573.741
570.693
567.309
563.599
559.571
555.237
550.609
545.697
540.513
535.072
529.384
523.463
517.323
510.976
504.436
497.718
490.834
483.798
476.624
469.326
461.916
454.408
446.815
439.149
431.424
423.65
415.841
408.007
400.159
392.309
384.467
376.642
368.845
361.086
353.372
345.713
338.119
330.598
323.16
315.815
308.572
301.442
294.437
287.569
280.851
274.297
267.919
261.728
255.737
249.929
244.358
7.7816
3.69991
2.86797
2.60431
2.52861
2.54259
2.61062
2.71711
2.8545
3.01904
3.20896
3.42374
3.66366
3.92969
4.22334
4.54664
4.90217
5.29303
5.72285
6.19586
6.71684
7.29128
7.92546
8.62565
9.39929
10.2553
11.2046
12.2535
13.4114
14.6901
16.1017
17.6586
19.3737
21.2588
23.3259
25.5879
28.0573
30.7466
33.6673
36.8303
40.2457
43.9224
47.8679
52.0882
56.5876
61.3691
66.4347
71.7848
77.4187
83.3342
89.5279
95.9955
102.731
109.729
116.982
124.482
132.22
140.189
148.377
156.777
165.378
174.169
183.14
192.282
201.583
211.033
220.622
230.339
240.175
250.119
260.16
270.289
280.496
290.77
301.104
311.485
321.906
332.359
342.835
353.323
363.825
374.324
384.812
395.32
405.773
416.094
426.266
436.287
446.143
455.824
465.32
474.621
483.715
492.592
501.242
509.653
517.816
525.721
533.357
540.715
547.785
554.557
561.023
567.173
572.999
578.493
583.646
588.452
592.905
596.996
600.722
604.077
607.056
609.655
611.872
613.704