/*--------------------------------*- C++ -*----------------------------------*\
  =========                 |
  \\      /  F ield         | OpenFOAM: The Open Source CFD Toolbox
   \\    /   O peration     | Website:  https://openfoam.org
    \\  /    A nd           | Version:  12
     \\/     M anipulation  |
\*---------------------------------------------------------------------------*/
FoamFile
{
    format      ascii;
    class       volScalarField;
    location    "0.18";
    object      k;
}
// * * * * * * * * * * * * * * * * * * * * * * * * * * * * * * * * * * * * * //

dimensions      [0 2 -2 0 0 0 0];

internalField   nonuniform List<scalar> 
12225
(
0.353921
0.335043
0.316966
0.300961
0.288125
0.278907
0.273298
0.271003
0.271566
0.27447
0.279201
0.28529
0.292331
0.299986
0.308002
0.316164
0.324518
0.336615
0.436864
0.448979
0.438085
0.433061
0.438788
0.453587
0.474802
0.499983
0.527141
0.554793
0.581909
0.607824
0.632161
0.654743
0.675678
0.694862
0.714381
0.729698
0.395187
0.410874
0.410631
0.405747
0.402011
0.400924
0.402615
0.406808
0.413083
0.42098
0.430067
0.439963
0.450358
0.461009
0.471776
0.482547
0.49361
0.504332
0.379641
0.38484
0.386546
0.38573
0.383905
0.382026
0.380567
0.379739
0.379606
0.380148
0.381302
0.382986
0.385118
0.387624
0.39045
0.393561
0.396977
0.400595
0.374976
0.3759
0.376239
0.375721
0.37457
0.373084
0.371496
0.369967
0.368593
0.367426
0.366484
0.365768
0.365268
0.364968
0.364857
0.364924
0.365165
0.36555
0.373488
0.372555
0.371759
0.370807
0.369631
0.368275
0.366809
0.3653
0.363803
0.362358
0.36099
0.359714
0.358537
0.357461
0.356488
0.355617
0.354846
0.354171
0.373012
0.371296
0.369813
0.368416
0.367025
0.36561
0.364168
0.362711
0.361257
0.359824
0.358425
0.357072
0.355773
0.354532
0.353354
0.352239
0.351191
0.350216
0.372865
0.370838
0.369004
0.36731
0.365711
0.364174
0.362679
0.361216
0.359782
0.358381
0.357015
0.355687
0.354401
0.35316
0.351966
0.350821
0.349727
0.348695
0.37282
0.37068
0.368691
0.366836
0.365095
0.363448
0.36188
0.360376
0.358928
0.357531
0.356182
0.354879
0.353621
0.352408
0.35124
0.350117
0.34904
0.348021
0.372806
0.370628
0.368578
0.366648
0.364829
0.36311
0.361482
0.359934
0.358457
0.357045
0.355693
0.354396
0.353152
0.351957
0.350811
0.349711
0.348658
0.347662
0.372801
0.370609
0.368537
0.366576
0.36472
0.362964
0.361299
0.359718
0.358215
0.356784
0.35542
0.354118
0.352873
0.351684
0.350546
0.349458
0.348419
0.347438
0.372799
0.370602
0.368522
0.36655
0.36468
0.362907
0.361224
0.359627
0.358108
0.356664
0.355288
0.353978
0.352728
0.351536
0.350399
0.349313
0.348278
0.347303
0.372797
0.370599
0.368514
0.366537
0.36466
0.362879
0.361188
0.359581
0.358053
0.356599
0.355216
0.353899
0.352643
0.351447
0.350307
0.34922
0.348184
0.347209
0.372796
0.370596
0.368509
0.366528
0.364649
0.362864
0.361167
0.359555
0.358022
0.356562
0.355174
0.353851
0.352591
0.351391
0.350247
0.349157
0.348118
0.347141
0.372795
0.370593
0.368505
0.366523
0.364641
0.362853
0.361154
0.359539
0.358002
0.35654
0.355148
0.353822
0.35256
0.351356
0.350209
0.349116
0.348074
0.347094
0.372794
0.370592
0.368502
0.366518
0.364634
0.362845
0.361145
0.359527
0.357989
0.356525
0.355131
0.353803
0.352538
0.351333
0.350184
0.349088
0.348044
0.347061
0.372794
0.37059
0.368499
0.366515
0.36463
0.362839
0.361137
0.359519
0.357979
0.356513
0.355118
0.353789
0.352523
0.351316
0.350165
0.349067
0.348021
0.347037
0.372794
0.370589
0.368498
0.366512
0.364627
0.362835
0.361132
0.359513
0.357972
0.356506
0.355109
0.353779
0.352511
0.351303
0.350151
0.349052
0.348005
0.347019
0.372793
0.370589
0.368497
0.366512
0.364626
0.362834
0.361131
0.359511
0.357969
0.356502
0.355105
0.353775
0.352506
0.351297
0.350145
0.349045
0.347997
0.34701
0.372794
0.37059
0.368498
0.366513
0.364628
0.362836
0.361133
0.359514
0.357973
0.356506
0.355109
0.353779
0.352511
0.351302
0.350149
0.34905
0.348002
0.347015
0.372794
0.370591
0.3685
0.366516
0.364632
0.362841
0.36114
0.359522
0.357982
0.356517
0.355122
0.353793
0.352526
0.351319
0.350168
0.34907
0.348023
0.347038
0.372795
0.370593
0.368504
0.366522
0.364641
0.362855
0.361159
0.359546
0.358012
0.356552
0.355163
0.353839
0.352578
0.351376
0.350229
0.349135
0.348091
0.347109
0.372796
0.370598
0.368518
0.366547
0.364681
0.362913
0.361235
0.359642
0.358127
0.356685
0.355311
0.354001
0.352751
0.351557
0.350415
0.349324
0.348282
0.347299
0.372804
0.370631
0.368592
0.366676
0.364872
0.363166
0.361548
0.360006
0.358532
0.357121
0.355767
0.354467
0.353219
0.35202
0.350868
0.349762
0.348702
0.347697
0.372856
0.370818
0.368973
0.367264
0.365645
0.364085
0.362567
0.361083
0.359631
0.358213
0.356833
0.355493
0.354197
0.352946
0.351744
0.35059
0.349487
0.348445
0.373166
0.37177
0.370579
0.369371
0.368049
0.366605
0.365072
0.363492
0.361906
0.360342
0.358826
0.357372
0.355991
0.354689
0.353468
0.352329
0.351272
0.350303
0.374797
0.375829
0.376175
0.375401
0.373834
0.371876
0.369792
0.36774
0.365814
0.364067
0.362524
0.361194
0.360075
0.359156
0.358424
0.357863
0.357456
0.357189
0.382729
0.39167
0.392375
0.388805
0.384384
0.380403
0.377247
0.374997
0.373621
0.373037
0.373152
0.373865
0.375082
0.376714
0.378682
0.380918
0.38336
0.38594
0.407499
0.414514
0.405423
0.395992
0.390555
0.389291
0.391454
0.396214
0.402833
0.410722
0.419429
0.428613
0.43802
0.447463
0.456805
0.465952
0.474859
0.483439
0.360554
0.347547
0.334933
0.322917
0.311965
0.302353
0.29419
0.28747
0.282115
0.278004
0.275001
0.272966
0.271766
0.271273
0.271375
0.271971
0.272973
0.274299
0.00111096
0.00569359
0.00925321
0.0125532
0.0162025
0.0203092
0.0249348
0.0301611
0.0357817
0.0415306
0.0474056
0.0533707
0.0593855
0.0654139
0.0714238
0.0773871
0.0832772
0.0890685
0.0947351
0.10025
0.105587
0.110716
0.115609
0.120238
0.12457
0.128574
0.13221
0.135432
0.138185
0.140404
0.141978
0.142519
0.140248
0.143607
0.143735
0.144244
0.144157
0.142904
0.143776
0.143306
0.144202
0.146332
0.147882
0.150636
0.157235
0.164188
0.17138
0.178782
0.18638
0.194163
0.202124
0.210259
0.218564
0.227036
0.235672
0.244471
0.253428
0.262543
0.271811
0.281231
0.290797
0.300506
0.310355
0.320339
0.330452
0.340689
0.351046
0.361516
0.372092
0.382768
0.393537
0.404392
0.415325
0.426328
0.437394
0.448513
0.459678
0.47088
0.48211
0.493358
0.504617
0.515876
0.527126
0.538359
0.549564
0.560732
0.571854
0.582919
0.593918
0.604841
0.615677
0.626417
0.63705
0.647566
0.657955
0.668211
0.678329
0.688311
0.698175
0.707959
0.717601
0.72702
0.736219
0.745193
0.753934
0.762431
0.770674
0.778651
0.786352
0.793765
0.800882
0.807691
0.814185
0.820354
0.826189
0.831683
0.836828
0.841618
0.846046
0.850106
0.853793
0.857104
0.860034
0.862579
0.864737
0.866507
0.867886
0.868875
0.869472
0.86968
0.869498
0.86893
0.867978
0.866645
0.864936
0.862854
0.860407
0.857599
0.854437
0.850928
0.847081
0.842903
0.838405
0.833594
0.828481
0.823077
0.817392
0.811437
0.805225
0.798768
0.792077
0.785164
0.778044
0.77073
0.763233
0.755567
0.747748
0.739784
0.731697
0.723494
0.715188
0.706811
0.69833
0.689857
0.681481
0.67489
0.67121
0.667736
0.664256
0.660758
0.657243
0.653712
0.650156
0.646554
0.642862
0.638979
0.634672
0.629341
0.621498
0.604732
0.00389067
0.0147879
0.0219018
0.0276692
0.03296
0.038184
0.0436082
0.0493226
0.0553048
0.0614874
0.0678125
0.0742304
0.0807011
0.0871926
0.0936794
0.10014
0.106557
0.112914
0.119194
0.125383
0.131467
0.137434
0.143272
0.148971
0.154523
0.15992
0.165153
0.170212
0.175095
0.179818
0.184423
0.188968
0.193554
0.198847
0.204478
0.210576
0.217129
0.224683
0.232493
0.24048
0.250018
0.261338
0.273146
0.284615
0.296021
0.307662
0.319708
0.332136
0.344921
0.358047
0.371505
0.385288
0.399393
0.413818
0.428561
0.443621
0.458996
0.474685
0.490687
0.506997
0.523615
0.540537
0.557758
0.575275
0.593082
0.611173
0.629543
0.648184
0.667089
0.686248
0.705653
0.725295
0.745162
0.765244
0.785529
0.806004
0.826659
0.847478
0.868449
0.889557
0.910789
0.932129
0.953563
0.975075
0.99665
1.01827
1.03993
1.06159
1.08326
1.10491
1.12653
1.14809
1.16959
1.191
1.2123
1.23348
1.25452
1.27539
1.29608
1.31644
1.33639
1.35605
1.37542
1.39449
1.41323
1.43162
1.44965
1.46728
1.4845
1.50129
1.51763
1.53348
1.54885
1.5637
1.57801
1.59177
1.60496
1.61757
1.62958
1.64097
1.65172
1.66184
1.6713
1.6801
1.68822
1.69566
1.7024
1.70845
1.7138
1.71844
1.72237
1.72558
1.72809
1.72989
1.73097
1.73136
1.73104
1.73003
1.72833
1.72596
1.72292
1.71922
1.71487
1.70989
1.70429
1.69809
1.69131
1.68395
1.67605
1.66761
1.65866
1.64922
1.63931
1.62895
1.61817
1.60698
1.59542
1.5835
1.57126
1.55871
1.54587
1.53283
1.51943
1.506
1.49251
1.47927
1.46649
1.45373
1.44091
1.42805
1.41516
1.40225
1.38933
1.37641
1.36345
1.35043
1.3372
1.32363
1.30848
1.28892
0.00754299
0.0237164
0.03302
0.0400205
0.0462239
0.0522188
0.0582756
0.0645118
0.070954
0.0775806
0.0843519
0.091227
0.0981704
0.105154
0.112158
0.119167
0.126171
0.133161
0.140135
0.147087
0.15402
0.160936
0.167842
0.174746
0.181665
0.188616
0.195623
0.202717
0.20994
0.217353
0.225034
0.233073
0.24156
0.250594
0.260179
0.270298
0.280997
0.292348
0.304327
0.316952
0.330288
0.344299
0.358811
0.373619
0.388698
0.404128
0.419976
0.436256
0.452962
0.470087
0.487624
0.505569
0.523917
0.542664
0.561809
0.581348
0.601278
0.621597
0.642301
0.663387
0.68485
0.706686
0.728888
0.751451
0.774369
0.797632
0.821233
0.845163
0.869411
0.893967
0.918819
0.943955
0.969361
0.995024
1.02093
1.04706
1.0734
1.09994
1.12665
1.15352
1.18054
1.20767
1.23491
1.26224
1.28963
1.31707
1.34453
1.372
1.39945
1.42687
1.45423
1.48152
1.50871
1.53579
1.56272
1.5895
1.61611
1.64251
1.6687
1.6945
1.71995
1.74506
1.7698
1.79415
1.81809
1.84158
1.8646
1.88712
1.90911
1.93054
1.95139
1.97162
1.99122
2.01016
2.02841
2.04595
2.06276
2.07881
2.09409
2.10858
2.12226
2.13511
2.14712
2.15827
2.16856
2.17797
2.18648
2.19411
2.20083
2.20664
2.21154
2.21552
2.21859
2.22075
2.22201
2.22235
2.2218
2.22036
2.21804
2.21485
2.2108
2.20591
2.20019
2.19366
2.18634
2.17824
2.16939
2.15982
2.14954
2.13857
2.12695
2.1147
2.10185
2.08842
2.07445
2.05996
2.04499
2.02955
2.0137
1.99746
1.98083
1.96398
1.94685
1.92954
1.9121
1.89473
1.87752
1.86031
1.84304
1.82573
1.80839
1.79106
1.77375
1.75649
1.7393
1.72221
1.70519
1.68834
1.67109
1.6531
0.0115695
0.0318438
0.0428298
0.0508466
0.0578161
0.0644124
0.0709502
0.0775836
0.0843758
0.091337
0.09845
0.105687
0.113022
0.12043
0.127897
0.135412
0.14297
0.15057
0.158217
0.165916
0.173679
0.18152
0.189457
0.197513
0.205714
0.214093
0.222686
0.231536
0.24069
0.250208
0.26015
0.270579
0.281546
0.29309
0.30523
0.31797
0.331326
0.345316
0.359937
0.375176
0.391014
0.407422
0.424343
0.441706
0.459477
0.477668
0.496303
0.515396
0.53495
0.554968
0.575447
0.596386
0.617783
0.639637
0.661945
0.684706
0.707918
0.731578
0.755683
0.780229
0.805213
0.830629
0.856473
0.882737
0.909415
0.936498
0.963978
0.991844
1.02009
1.04869
1.07764
1.10694
1.13655
1.16647
1.19667
1.22715
1.25788
1.28884
1.32002
1.35138
1.38292
1.41461
1.44642
1.47834
1.51034
1.54239
1.57448
1.60658
1.63866
1.67071
1.70269
1.73459
1.76638
1.79804
1.82954
1.86086
1.89199
1.92289
1.95346
1.98365
2.01346
2.04286
2.07183
2.10034
2.12835
2.15584
2.18277
2.20909
2.23479
2.25983
2.28417
2.30779
2.33065
2.35272
2.37398
2.39439
2.41394
2.43259
2.45032
2.46712
2.48295
2.4978
2.51165
2.5245
2.53631
2.54709
2.55681
2.56548
2.57307
2.5796
2.58505
2.58942
2.59271
2.59493
2.59608
2.59617
2.5952
2.59318
2.59013
2.58605
2.58097
2.5749
2.56786
2.55987
2.55094
2.54112
2.53042
2.51886
2.50647
2.49329
2.47935
2.46466
2.44927
2.43322
2.41653
2.39922
2.38137
2.36295
2.34408
2.32481
2.30514
2.28515
2.26485
2.24432
2.22363
2.20289
2.18218
2.16144
2.14064
2.11981
2.09898
2.07817
2.05744
2.03683
2.0164
1.99625
1.97646
1.95726
1.93848
1.92032
0.0154017
0.0389679
0.0514107
0.0603815
0.0680449
0.0751661
0.0821084
0.0890626
0.0961245
0.103333
0.110695
0.118199
0.125829
0.133571
0.141414
0.14935
0.157381
0.165511
0.17375
0.182109
0.190607
0.199265
0.208109
0.217166
0.226472
0.236061
0.245974
0.256254
0.266946
0.278098
0.289755
0.301961
0.314748
0.328142
0.342156
0.356795
0.372061
0.387954
0.404468
0.421586
0.439292
0.457563
0.476374
0.495693
0.515501
0.535795
0.556583
0.577871
0.599665
0.621969
0.644783
0.668111
0.691952
0.716308
0.741177
0.76656
0.792456
0.818864
0.845782
0.873207
0.901137
0.929566
0.958491
0.987905
1.0178
1.04817
1.07901
1.1103
1.14203
1.17419
1.20677
1.23974
1.27311
1.30683
1.3409
1.3753
1.41001
1.445
1.48024
1.51572
1.55141
1.58729
1.62332
1.65949
1.69575
1.7321
1.7685
1.80491
1.84132
1.8777
1.91401
1.95023
1.98633
2.02229
2.05808
2.09366
2.12901
2.1641
2.19878
2.23304
2.26687
2.30024
2.33311
2.36545
2.39722
2.42838
2.45889
2.48872
2.51781
2.54615
2.57368
2.60038
2.6262
2.65112
2.67509
2.6981
2.72011
2.74109
2.76101
2.77985
2.79759
2.8142
2.82967
2.84397
2.8571
2.86904
2.87977
2.88929
2.89759
2.90466
2.91051
2.91512
2.91851
2.92067
2.92161
2.92134
2.91987
2.9172
2.91336
2.90836
2.90222
2.89496
2.88659
2.87715
2.86666
2.85515
2.84264
2.82917
2.81476
2.79946
2.78329
2.7663
2.74849
2.72996
2.7107
2.69073
2.67021
2.6491
2.62747
2.60538
2.58285
2.55994
2.53669
2.51317
2.48944
2.4656
2.4417
2.41775
2.39374
2.3697
2.34568
2.32173
2.2979
2.27427
2.25095
2.22806
2.20579
2.18444
2.16398
2.14463
0.0187972
0.0450322
0.0587893
0.0686275
0.0769224
0.0845167
0.0918164
0.0990434
0.106322
0.113716
0.121255
0.128946
0.136786
0.144771
0.152895
0.161158
0.169565
0.178123
0.186846
0.195752
0.204862
0.214201
0.223798
0.233686
0.243898
0.254472
0.265447
0.276862
0.288756
0.301168
0.314132
0.32768
0.341835
0.356614
0.372026
0.388074
0.404759
0.422076
0.440018
0.458574
0.477732
0.497478
0.517799
0.53868
0.56011
0.582087
0.604612
0.627691
0.651328
0.675528
0.700296
0.725635
0.751548
0.778038
0.805109
0.83276
0.860995
0.889812
0.919213
0.949195
0.979758
1.0109
1.04261
1.07489
1.10773
1.14113
1.17507
1.20954
1.24454
1.28004
1.31603
1.3525
1.38943
1.42679
1.46457
1.50274
1.54128
1.58016
1.61935
1.65883
1.69857
1.73854
1.7787
1.81903
1.85949
1.90006
1.94069
1.98136
2.02204
2.06268
2.10327
2.14376
2.18412
2.22433
2.26434
2.30412
2.34364
2.38282
2.42154
2.45979
2.49756
2.5348
2.57148
2.60756
2.64299
2.67772
2.71172
2.74493
2.77732
2.80884
2.83946
2.86912
2.8978
2.92544
2.95203
2.97751
3.00186
3.02505
3.04705
3.06782
3.08734
3.1056
3.12256
3.13822
3.15254
3.16553
3.17716
3.18743
3.19633
3.20385
3.20999
3.21476
3.21815
3.22016
3.22082
3.22012
3.21807
3.2147
3.21002
3.20404
3.19679
3.1883
3.17858
3.16767
3.15559
3.14237
3.12806
3.11268
3.09626
3.07884
3.06049
3.04121
3.02101
3.00005
2.97833
2.95586
2.93274
2.909
2.88468
2.85984
2.83452
2.80879
2.78268
2.75625
2.72958
2.70275
2.6758
2.64877
2.62169
2.59459
2.56753
2.54057
2.51379
2.48729
2.46121
2.43571
2.41103
2.38748
2.36507
2.34392
0.0216519
0.0501255
0.0649965
0.075586
0.0844352
0.0924472
0.10006
0.107521
0.114974
0.122508
0.13017
0.137984
0.145963
0.154111
0.162431
0.17093
0.179616
0.1885
0.1976
0.206936
0.216531
0.226413
0.236611
0.247159
0.25809
0.269439
0.281241
0.293533
0.306346
0.319713
0.333661
0.348213
0.363389
0.3792
0.395654
0.412756
0.430506
0.4489
0.467935
0.487605
0.507904
0.528823
0.550358
0.572501
0.595249
0.618602
0.642561
0.667132
0.69232
0.718133
0.744575
0.771655
0.799377
0.827747
0.856769
0.886448
0.916788
0.947791
0.979459
1.01179
1.04479
1.07845
1.11278
1.14776
1.18339
1.21967
1.25658
1.29411
1.33226
1.371
1.41032
1.4502
1.49062
1.53156
1.57299
1.61489
1.65723
1.69998
1.7431
1.78657
1.83035
1.87441
1.91871
1.96321
2.00788
2.05268
2.09757
2.14252
2.18748
2.23242
2.2773
2.32208
2.36673
2.41119
2.45545
2.49944
2.54315
2.58639
2.62914
2.67138
2.71307
2.75417
2.79464
2.83442
2.87347
2.91174
2.94918
2.98574
3.02137
3.05603
3.08967
3.12224
3.1537
3.184
3.21312
3.24101
3.26763
3.29295
3.31693
3.33955
3.36078
3.38059
3.39896
3.41587
3.43131
3.44526
3.4577
3.46863
3.47804
3.48593
3.49229
3.49712
3.50043
3.50223
3.50252
3.50132
3.49863
3.49449
3.48891
3.4819
3.47349
3.46372
3.45261
3.44019
3.42648
3.41153
3.39539
3.37809
3.35964
3.3401
3.31956
3.29804
3.27556
3.25222
3.22805
3.2031
3.17742
3.15106
3.12408
3.09654
3.06848
3.03996
3.01103
2.98175
2.9522
2.92243
2.89252
2.86251
2.83243
2.80236
2.77234
2.74246
2.71281
2.68352
2.65473
2.62666
2.59955
2.5737
2.5491
2.52579
0.0240151
0.054292
0.0700677
0.0812782
0.0905915
0.0989561
0.106834
0.114487
0.12208
0.129714
0.137455
0.145343
0.153402
0.161647
0.17009
0.178744
0.187622
0.196739
0.206113
0.215768
0.225728
0.236021
0.246676
0.257724
0.269198
0.281129
0.293551
0.306493
0.319984
0.33405
0.348715
0.363998
0.379915
0.396478
0.413695
0.431571
0.450109
0.469311
0.489175
0.509701
0.530888
0.552735
0.575239
0.598402
0.622225
0.646711
0.671864
0.697693
0.724204
0.751407
0.779309
0.807922
0.837251
0.867307
0.898097
0.929627
0.961905
0.994934
1.02872
1.06326
1.09857
1.13463
1.17146
1.20904
1.24737
1.28645
1.32626
1.36679
1.40803
1.44997
1.49258
1.53585
1.57975
1.62426
1.66934
1.71497
1.76112
1.80776
1.85484
1.90232
1.95018
1.99836
2.04683
2.09555
2.14446
2.19354
2.24273
2.29199
2.34127
2.39054
2.43975
2.48886
2.53781
2.58657
2.63509
2.68332
2.73117
2.7785
2.82529
2.8715
2.9171
2.96204
3.00627
3.04973
3.09237
3.13413
3.17497
3.21482
3.25364
3.29137
3.32795
3.36336
3.39753
3.43042
3.46198
3.49219
3.52099
3.54835
3.57423
3.59861
3.62144
3.64271
3.66239
3.68046
3.69691
3.71172
3.72488
3.73638
3.74621
3.75437
3.76085
3.76567
3.76882
3.77031
3.77017
3.76839
3.765
3.76003
3.75348
3.74538
3.73576
3.72467
3.71212
3.69816
3.68281
3.66608
3.6481
3.62887
3.60843
3.58683
3.56413
3.54039
3.51563
3.48993
3.46334
3.43592
3.40771
3.37877
3.34917
3.31896
3.28819
3.25693
3.22523
3.19315
3.16076
3.12813
3.09532
3.06239
3.0294
2.99642
2.96352
2.93079
2.89833
2.8663
2.83486
2.80422
2.77464
2.74639
2.71941
2.69372
0.0258883
0.0575755
0.0740531
0.0857508
0.0954313
0.104076
0.112162
0.119965
0.127659
0.135359
0.143142
0.151061
0.159152
0.16744
0.175945
0.184684
0.193677
0.202941
0.212497
0.222369
0.232582
0.243162
0.254138
0.265539
0.277395
0.289736
0.302589
0.315983
0.329943
0.344491
0.359649
0.375435
0.391863
0.408947
0.426697
0.44512
0.464223
0.48401
0.504486
0.525656
0.547522
0.570089
0.593361
0.617343
0.642042
0.667465
0.693621
0.720519
0.74817
0.776587
0.805781
0.835764
0.866549
0.898145
0.930565
0.963817
0.997912
1.03286
1.06866
1.10532
1.14285
1.18124
1.2205
1.26063
1.30161
1.34345
1.38613
1.42964
1.47396
1.51909
1.565
1.61166
1.65905
1.70714
1.7559
1.8053
1.85529
1.90584
1.95691
2.00845
2.06042
2.11277
2.16545
2.21842
2.27161
2.32499
2.37851
2.4321
2.48573
2.53935
2.5929
2.64633
2.6996
2.75265
2.80543
2.85789
2.90983
2.9612
3.01198
3.06212
3.11158
3.1603
3.20822
3.25529
3.30144
3.34662
3.39076
3.4338
3.4757
3.51639
3.55582
3.59394
3.6307
3.66605
3.69994
3.73234
3.76319
3.79247
3.82012
3.84612
3.87043
3.89302
3.91389
3.933
3.95034
3.96589
3.97965
3.99161
4.00175
4.01007
4.01657
4.02127
4.02417
4.02528
4.02461
4.02218
4.01802
4.01214
4.00457
3.99534
3.98445
3.97199
3.95798
3.94246
3.92546
3.90702
3.88721
3.86608
3.84365
3.82
3.79517
3.76923
3.74222
3.7142
3.68523
3.65537
3.62469
3.59323
3.56106
3.52824
3.49482
3.46088
3.42647
3.39166
3.3565
3.32108
3.28546
3.2497
3.21389
3.17808
3.14237
3.10687
3.07168
3.03696
3.0029
2.96971
2.93764
2.90691
2.87744
2.84926
0.0272866
0.0600328
0.0770225
0.0890769
0.0990263
0.107875
0.11611
0.124015
0.13177
0.1395
0.14729
0.155204
0.163286
0.17157
0.180083
0.188848
0.197888
0.207223
0.216876
0.226871
0.237233
0.247986
0.259159
0.270778
0.282871
0.295465
0.308586
0.322258
0.336505
0.35135
0.366812
0.382909
0.399657
0.417071
0.435162
0.453944
0.473425
0.493616
0.514525
0.536162
0.558535
0.581653
0.605527
0.630167
0.655583
0.681788
0.708795
0.736618
0.765271
0.794771
0.825131
0.856369
0.888499
0.921536
0.955495
0.990388
1.02623
1.06302
1.10078
1.13952
1.17923
1.21992
1.2616
1.30425
1.34788
1.39248
1.43804
1.48454
1.53197
1.58031
1.62953
1.67962
1.73053
1.78224
1.83471
1.88791
1.94178
1.99629
2.05138
2.107
2.16311
2.21965
2.27655
2.33378
2.39126
2.44894
2.50677
2.56468
2.62264
2.68057
2.73842
2.79614
2.85367
2.91096
2.96795
3.02448
3.08042
3.13574
3.1904
3.24436
3.29755
3.34992
3.40141
3.45194
3.50145
3.54987
3.59715
3.64322
3.68803
3.7315
3.77359
3.81425
3.85341
3.89104
3.92707
3.96147
3.9942
4.02521
4.05445
4.08189
4.1075
4.13125
4.15313
4.17311
4.19118
4.20733
4.22154
4.23381
4.24412
4.25248
4.25888
4.26335
4.26589
4.26651
4.26523
4.26207
4.25705
4.25021
4.24157
4.23116
4.21901
4.20518
4.18971
4.17263
4.15399
4.13383
4.11222
4.08921
4.06484
4.03917
4.01226
3.98418
3.95496
3.92469
3.89341
3.8612
3.82811
3.7942
3.75955
3.72421
3.68824
3.65172
3.61469
3.57724
3.53942
3.50131
3.46299
3.42452
3.38598
3.34746
3.30906
3.27087
3.23304
3.19572
3.15909
3.12339
3.08882
3.0556
3.02359
2.99288
0.0282393
0.0617353
0.0790633
0.0913522
0.101475
0.110451
0.118774
0.126729
0.134503
0.142226
0.149989
0.157863
0.165899
0.174139
0.182613
0.191352
0.200378
0.209716
0.219389
0.229421
0.239837
0.25066
0.261917
0.273633
0.285833
0.298542
0.311786
0.325588
0.33997
0.354954
0.370561
0.38681
0.403719
0.421305
0.439584
0.458572
0.478282
0.49873
0.51993
0.541895
0.564641
0.588182
0.612533
0.63771
0.663729
0.690607
0.718363
0.747014
0.77658
0.807081
0.838536
0.870964
0.904385
0.938817
0.974278
1.01078
1.04835
1.08699
1.12671
1.16753
1.20944
1.25245
1.29657
1.34179
1.3881
1.43551
1.48398
1.53352
1.58411
1.63571
1.6883
1.74186
1.79634
1.85171
1.90793
1.96495
2.02273
2.08121
2.14033
2.20005
2.26029
2.321
2.38211
2.44355
2.50527
2.5672
2.62927
2.69142
2.7536
2.81575
2.87779
2.93968
3.00134
3.06273
3.12373
3.18413
3.24389
3.30297
3.36131
3.41887
3.47557
3.53137
3.58618
3.63993
3.69255
3.74398
3.79414
3.84297
3.89041
3.93641
3.98089
4.02381
4.06511
4.10474
4.14265
4.1788
4.21314
4.24564
4.27623
4.30487
4.33154
4.35623
4.3789
4.39954
4.41813
4.43468
4.44915
4.46158
4.4719
4.48013
4.4863
4.4904
4.49246
4.49249
4.49051
4.48654
4.48062
4.47277
4.46302
4.45141
4.43798
4.42278
4.40585
4.38723
4.36697
4.34514
4.32177
4.29693
4.27067
4.24306
4.21414
4.18399
4.15267
4.12024
4.08675
4.05229
4.01691
3.98068
3.94367
3.90593
3.86755
3.82857
3.78907
3.74912
3.70878
3.66813
3.62725
3.58621
3.5451
3.504
3.46303
3.4223
3.38194
3.34212
3.30303
3.26487
3.22786
3.19217
3.15764
3.1244
0.028788
0.0627652
0.080277
0.0926888
0.102896
0.111926
0.120274
0.128228
0.135977
0.143654
0.151355
0.159155
0.167111
0.175268
0.183663
0.192325
0.201284
0.210563
0.220187
0.230179
0.240564
0.251365
0.262607
0.274313
0.286508
0.299216
0.312461
0.326267
0.340657
0.355653
0.371278
0.387553
0.404499
0.422136
0.440484
0.459564
0.479395
0.499996
0.521387
0.543588
0.56662
0.590503
0.615258
0.640907
0.66747
0.694972
0.723434
0.752881
0.783337
0.814825
0.84737
0.880996
0.915724
0.951578
0.988579
1.02674
1.06609
1.10664
1.14839
1.19137
1.23557
1.28099
1.32764
1.37552
1.42461
1.47491
1.5264
1.57907
1.63288
1.68782
1.74385
1.80094
1.85904
1.91811
1.97811
2.03898
2.10066
2.16309
2.22623
2.28999
2.35431
2.41912
2.48434
2.5499
2.61572
2.68175
2.7479
2.81412
2.88034
2.94649
3.01252
3.07834
3.14391
3.20914
3.27377
3.33774
3.40101
3.46352
3.52522
3.58603
3.64591
3.70477
3.76255
3.81917
3.87454
3.92859
3.98125
4.03246
4.08217
4.13031
4.17681
4.22163
4.2647
4.30597
4.3454
4.38294
4.41856
4.45223
4.48385
4.51339
4.54083
4.56615
4.58934
4.61038
4.62925
4.64595
4.66047
4.6728
4.68295
4.6909
4.69667
4.70029
4.70175
4.70109
4.69833
4.69349
4.6866
4.67769
4.66681
4.65399
4.63927
4.62271
4.60434
4.58422
4.5624
4.53893
4.51388
4.4873
4.45925
4.42979
4.39898
4.36689
4.33359
4.29913
4.26359
4.22703
4.18952
4.15113
4.11192
4.07197
4.03133
3.99008
3.94829
3.90602
3.86335
3.82034
3.77709
3.73367
3.69017
3.64669
3.60332
3.56021
3.51748
3.47531
3.43387
3.39338
3.35401
3.31593
3.27897
3.24328
0.0289846
0.0632132
0.0807735
0.0932092
0.10342
0.112433
0.120747
0.128648
0.136328
0.14392
0.151524
0.159217
0.16706
0.175099
0.183374
0.191918
0.20076
0.209925
0.219439
0.229324
0.239605
0.250305
0.261447
0.273054
0.285152
0.297764
0.310915
0.324629
0.338931
0.353846
0.369398
0.385611
0.402511
0.420121
0.438468
0.457575
0.477467
0.498172
0.519714
0.54212
0.565416
0.58963
0.614789
0.64092
0.668051
0.696209
0.725424
0.755725
0.78714
0.819698
0.853427
0.888355
0.924509
0.961913
1.00059
1.04056
1.08185
1.12447
1.16843
1.21374
1.2604
1.30841
1.35776
1.40846
1.46049
1.51384
1.56848
1.6244
1.68156
1.73994
1.79949
1.86016
1.92193
1.98472
2.04849
2.11317
2.1787
2.24502
2.31206
2.37975
2.44801
2.51676
2.58589
2.65534
2.72503
2.79489
2.86484
2.93482
3.00475
3.07457
3.14422
3.21362
3.28271
3.35119
3.41901
3.48611
3.55242
3.61789
3.68245
3.74602
3.80855
3.86997
3.93024
3.98923
4.04682
4.10297
4.15762
4.21071
4.26217
4.31195
4.35998
4.40621
4.45057
4.49303
4.53353
4.57202
4.60847
4.64284
4.67507
4.70512
4.73298
4.75861
4.782
4.80314
4.82202
4.83862
4.85294
4.86498
4.87474
4.88223
4.88745
4.89043
4.89118
4.88972
4.88608
4.88029
4.87238
4.86239
4.85036
4.83632
4.82033
4.80243
4.78268
4.76112
4.73781
4.71281
4.68617
4.65797
4.62825
4.59709
4.56454
4.53068
4.49557
4.45927
4.42186
4.38341
4.34397
4.30363
4.26245
4.2205
4.17784
4.13455
4.0907
4.04635
4.00158
3.95646
3.91107
3.8655
3.81984
3.7742
3.72867
3.68338
3.63848
3.59414
3.55054
3.50786
3.46628
3.42595
3.38668
3.34868
0.028889
0.0631748
0.0806673
0.09304
0.103181
0.112114
0.120337
0.128136
0.135703
0.143172
0.150644
0.158198
0.165894
0.173783
0.181904
0.190291
0.198974
0.207979
0.217332
0.227055
0.237173
0.247709
0.258687
0.270131
0.282066
0.294517
0.307511
0.321074
0.335233
0.350016
0.365451
0.381568
0.398396
0.415963
0.434302
0.453441
0.473415
0.494253
0.515991
0.538662
0.562299
0.586938
0.612612
0.639354
0.667197
0.696174
0.72632
0.757668
0.790253
0.824107
0.859262
0.895748
0.933593
0.972824
1.01347
1.05554
1.09906
1.14405
1.19052
1.23848
1.28789
1.33877
1.39109
1.44486
1.50006
1.55666
1.61464
1.67397
1.73461
1.79652
1.85965
1.92395
1.98937
2.05584
2.1233
2.19168
2.26091
2.33093
2.40164
2.47299
2.54491
2.6173
2.69
2.76294
2.83607
2.90931
2.98258
3.05582
3.12896
3.20193
3.27466
3.34706
3.41884
3.48995
3.56033
3.62989
3.69858
3.76633
3.83306
3.89871
3.9632
4.02646
4.08844
4.14904
4.20816
4.26574
4.32172
4.37604
4.42862
4.47942
4.52837
4.57542
4.6205
4.66358
4.70461
4.74354
4.78032
4.81494
4.84732
4.87746
4.90531
4.93086
4.95409
4.97499
4.99355
5.00975
5.02361
5.03511
5.04427
5.05109
5.05558
5.05777
5.05767
5.0553
5.05071
5.04391
5.03494
5.02384
5.01066
4.99543
4.97821
4.95904
4.93798
4.91507
4.89039
4.86398
4.83592
4.80625
4.77504
4.74236
4.70828
4.67286
4.63616
4.59827
4.55924
4.51914
4.47804
4.43602
4.39314
4.34947
4.30508
4.26003
4.2144
4.16826
4.12168
4.07473
4.0275
3.98008
3.93255
3.88501
3.83758
3.79039
3.74357
3.6973
3.65175
3.6071
3.56351
3.52111
3.47972
3.43959
0.0285679
0.062747
0.0800723
0.0923069
0.102313
0.11111
0.11919
0.126841
0.134254
0.141564
0.148872
0.156256
0.163778
0.171487
0.179424
0.187623
0.196114
0.204924
0.214079
0.223602
0.233519
0.243855
0.254633
0.265881
0.277625
0.289894
0.302716
0.316122
0.330143
0.344812
0.360162
0.376229
0.393047
0.410653
0.429082
0.448373
0.468567
0.489702
0.511822
0.534968
0.559184
0.584513
0.610998
0.638677
0.66758
0.697746
0.729216
0.762027
0.796218
0.831822
0.868873
0.907399
0.947428
0.988984
1.03209
1.07676
1.12301
1.17085
1.22032
1.27141
1.32402
1.37815
1.43381
1.49098
1.54962
1.60972
1.67123
1.73411
1.79831
1.86379
1.93048
1.99833
2.06727
2.13723
2.20814
2.27993
2.35251
2.42581
2.49974
2.57423
2.6492
2.72453
2.80014
2.87592
2.9518
3.02772
3.10358
3.17934
3.25491
3.33025
3.40518
3.47948
3.55311
3.62597
3.698
3.76914
3.8393
3.90842
3.97642
4.04323
4.10879
4.17302
4.23585
4.29721
4.35701
4.4152
4.47169
4.52643
4.57937
4.63043
4.67957
4.72672
4.77185
4.81489
4.85581
4.89457
4.93112
4.96542
4.99745
5.02717
5.05455
5.07958
5.10224
5.12252
5.1404
5.1559
5.169
5.1797
5.18802
5.19397
5.19755
5.1988
5.19773
5.19436
5.18874
5.18089
5.17084
5.15865
5.14435
5.12798
5.10961
5.08927
5.06702
5.04291
5.01702
4.98939
4.96008
4.92916
4.8967
4.86276
4.82739
4.79068
4.75269
4.71349
4.67314
4.63171
4.58928
4.5459
4.50166
4.45661
4.41083
4.36437
4.31732
4.26974
4.2217
4.17328
4.12456
4.07561
4.02655
3.97746
3.92845
3.87967
3.83124
3.78332
3.73609
3.68973
3.64438
3.60016
3.55691
3.51487
0.0280705
0.0619992
0.079067
0.0910935
0.100904
0.109507
0.117393
0.12485
0.132068
0.139181
0.146291
0.153474
0.160793
0.168295
0.176021
0.184007
0.192282
0.200875
0.209812
0.219121
0.228828
0.23896
0.249547
0.260617
0.272203
0.284338
0.297055
0.310391
0.324384
0.339073
0.354501
0.370713
0.387754
0.405665
0.424489
0.444274
0.465069
0.486926
0.509897
0.534034
0.55939
0.586022
0.613994
0.64335
0.67407
0.706213
0.739828
0.774954
0.811626
0.849875
0.889727
0.931206
0.974329
1.01911
1.06555
1.11367
1.16346
1.21492
1.26804
1.3228
1.37914
1.43706
1.4965
1.55744
1.61984
1.68365
1.74882
1.81531
1.88305
1.95198
2.02204
2.09315
2.16526
2.23828
2.31213
2.38674
2.46203
2.53791
2.6143
2.69111
2.76826
2.84567
2.92323
3.00086
3.07849
3.15604
3.23344
3.31066
3.38756
3.46391
3.53964
3.61467
3.68892
3.76232
3.8348
3.90629
3.97672
4.04601
4.1141
4.18091
4.24639
4.31046
4.37304
4.43408
4.49351
4.55125
4.60725
4.66144
4.71377
4.76418
4.81261
4.85902
4.90336
4.94558
4.98564
5.0235
5.05912
5.09248
5.12353
5.15225
5.17862
5.20262
5.22423
5.24345
5.26027
5.27468
5.28669
5.2963
5.30352
5.30837
5.31085
5.31099
5.30882
5.30435
5.29763
5.28869
5.27755
5.26428
5.2489
5.23147
5.21203
5.19064
5.16735
5.14221
5.11529
5.08664
5.05633
5.02441
4.99095
4.95602
4.91967
4.88198
4.84302
4.80284
4.76151
4.71911
4.6757
4.63134
4.58611
4.54006
4.49326
4.44579
4.3977
4.34907
4.29996
4.25045
4.20061
4.15053
4.1003
4.05002
3.9998
3.94977
3.90005
3.85082
3.80222
3.75444
3.70761
3.66185
3.617
3.57333
0.0275606
0.0611304
0.0778729
0.089636
0.0992017
0.107568
0.115224
0.122456
0.129454
0.136352
0.14325
0.150224
0.157334
0.16463
0.172153
0.179938
0.188019
0.196427
0.205193
0.214348
0.223923
0.233953
0.244472
0.255518
0.267131
0.279354
0.292231
0.305806
0.320124
0.33524
0.35121
0.3681
0.385983
0.404889
0.424853
0.445947
0.468235
0.491779
0.51664
0.542876
0.570544
0.599699
0.630391
0.662658
0.696522
0.732016
0.769169
0.808007
0.848548
0.890804
0.934782
0.980485
1.02791
1.07704
1.12787
1.18037
1.23453
1.29031
1.34769
1.40661
1.46704
1.52893
1.59222
1.65687
1.72282
1.79002