/*--------------------------------*- C++ -*----------------------------------*\
  =========                 |
  \\      /  F ield         | OpenFOAM: The Open Source CFD Toolbox
   \\    /   O peration     | Website:  https://openfoam.org
    \\  /    A nd           | Version:  12
     \\/     M anipulation  |
\*---------------------------------------------------------------------------*/
FoamFile
{
    format      ascii;
    class       volScalarField;
    location    "0.18";
    object      nut;
}
// * * * * * * * * * * * * * * * * * * * * * * * * * * * * * * * * * * * * * //

dimensions      [0 2 -1 0 0 0 0];

internalField   nonuniform List<scalar> 
12225
(
4.04768e-05
3.83178e-05
3.62504e-05
3.44199e-05
3.2952e-05
3.18977e-05
3.12562e-05
3.09937e-05
3.10582e-05
3.13902e-05
3.19313e-05
3.26277e-05
3.34329e-05
3.43085e-05
3.52252e-05
3.61587e-05
3.7114e-05
3.84976e-05
0.000281048
0.000209266
0.000176267
0.000157439
0.000146271
0.000139687
0.000135793
0.000133431
0.000131916
0.000130859
0.000130044
0.000129357
0.00012874
0.000128162
0.000127623
0.00012708
0.000126685
0.000125733
0.000556047
0.000419908
0.000349815
0.000304736
0.000272449
0.000247985
0.000228769
0.000213304
0.000200676
0.000190276
0.000181661
0.000174495
0.000168506
0.000163474
0.000159225
0.000155573
0.000152431
0.000149366
0.000740308
0.000625821
0.000544117
0.000485
0.000439773
0.000403653
0.000373844
0.000348609
0.00032686
0.000307899
0.000291252
0.000276573
0.000263592
0.000252079
0.000241838
0.000232652
0.000224365
0.000216694
0.000817069
0.000759142
0.000700546
0.000648578
0.000603898
0.000565586
0.000532477
0.000503518
0.000477884
0.000454968
0.000434322
0.000415612
0.00039858
0.000383015
0.000368738
0.000355564
0.000343348
0.000331993
0.0008421
0.000819688
0.000789925
0.000757606
0.000725555
0.000695165
0.000666968
0.000641021
0.00061718
0.000595245
0.000575012
0.000556295
0.000538929
0.000522767
0.000507678
0.000493534
0.000480232
0.000467819
0.000849261
0.000841808
0.000829742
0.000814188
0.000796481
0.000777762
0.000758851
0.000740258
0.000722272
0.000705039
0.000688619
0.00067302
0.000658221
0.000644183
0.000630861
0.000618198
0.000606156
0.00059486
0.00085112
0.000848748
0.00084448
0.000838236
0.000830246
0.000820896
0.0008106
0.000799724
0.000788557
0.000777316
0.000766158
0.000755188
0.000744477
0.000734067
0.00072398
0.000714226
0.000704818
0.000695909
0.00085156
0.000850665
0.00084917
0.000846887
0.000843741
0.000839759
0.000835034
0.000829695
0.000823876
0.000817707
0.000811301
0.000804752
0.000798138
0.000791517
0.000784939
0.000778438
0.000772051
0.000765916
0.000851652
0.000851133
0.000850468
0.000849564
0.000848347
0.000846772
0.000844826
0.00084252
0.000839884
0.000836959
0.00083379
0.000830425
0.000826905
0.000823272
0.00081956
0.000815801
0.000812029
0.00080834
0.000851668
0.00085123
0.000850778
0.000850278
0.000849698
0.000849006
0.000848182
0.000847211
0.000846088
0.000844814
0.000843399
0.000841853
0.000840193
0.000838433
0.000836589
0.000834679
0.000832722
0.000830774
0.000851669
0.000851245
0.000850835
0.000850429
0.000850014
0.000849575
0.000849101
0.000848579
0.000848002
0.000847365
0.000846664
0.000845901
0.000845077
0.000844197
0.000843266
0.00084229
0.000841279
0.000840267
0.000851668
0.000851244
0.000850843
0.000850459
0.000850088
0.000849726
0.000849365
0.000849001
0.000848628
0.000848243
0.00084784
0.00084742
0.000846979
0.000846517
0.000846036
0.000845536
0.000845021
0.00084451
0.000851667
0.000851242
0.000850839
0.000850458
0.000850096
0.000849751
0.000849421
0.000849102
0.000848793
0.000848491
0.000848194
0.000847901
0.00084761
0.00084732
0.000847031
0.000846741
0.000846453
0.000846179
0.000851666
0.000851239
0.000850835
0.000850452
0.00085009
0.000849746
0.000849419
0.000849108
0.000848811
0.000848528
0.000848256
0.000847996
0.000847745
0.000847504
0.000847272
0.000847047
0.000846832
0.000846637
0.000851665
0.000851236
0.000850831
0.000850447
0.000850083
0.000849737
0.000849409
0.000849098
0.000848801
0.000848519
0.00084825
0.000847994
0.00084775
0.000847517
0.000847294
0.000847082
0.000846881
0.000846703
0.000851664
0.000851235
0.000850828
0.000850442
0.000850077
0.00084973
0.000849401
0.000849088
0.00084879
0.000848507
0.000848237
0.00084798
0.000847735
0.000847502
0.000847279
0.000847066
0.000846866
0.000846689
0.000851663
0.000851234
0.000850826
0.00085044
0.000850073
0.000849725
0.000849395
0.000849081
0.000848782
0.000848498
0.000848227
0.000847969
0.000847723
0.000847488
0.000847264
0.00084705
0.000846849
0.00084667
0.000851663
0.000851233
0.000850825
0.000850439
0.000850072
0.000849724
0.000849393
0.000849078
0.000848779
0.000848494
0.000848223
0.000847964
0.000847717
0.000847481
0.000847256
0.000847041
0.000846839
0.000846659
0.000851664
0.000851234
0.000850826
0.00085044
0.000850074
0.000849726
0.000849396
0.000849081
0.000848782
0.000848497
0.000848225
0.000847966
0.000847718
0.000847481
0.000847254
0.000847037
0.000846832
0.000846649
0.000851664
0.000851235
0.000850829
0.000850443
0.000850078
0.00084973
0.000849399
0.000849082
0.00084878
0.000848489
0.00084821
0.00084794
0.00084768
0.000847427
0.000847183
0.000846945
0.000846716
0.000846506
0.000851665
0.000851237
0.00085083
0.000850442
0.000850069
0.000849706
0.000849351
0.000848999
0.000848647
0.000848293
0.000847935
0.00084757
0.000847198
0.000846819
0.000846433
0.000846039
0.000845641
0.000845252
0.000851664
0.000851228
0.000850794
0.000850348
0.00084987
0.000849345
0.000848762
0.000848111
0.000847388
0.000846593
0.000845728
0.000844796
0.000843805
0.000842761
0.000841671
0.000840543
0.000839387
0.000838226
0.000851634
0.000851073
0.000850343
0.000849363
0.000848079
0.000846468
0.000844531
0.000842292
0.000839785
0.000837052
0.000834134
0.000831074
0.000827909
0.000824672
0.000821392
0.000818096
0.000814808
0.000811573
0.000851287
0.000849596
0.000846721
0.000842577
0.000837262
0.000830979
0.000823971
0.00081647
0.000808673
0.000800736
0.000792782
0.0007849
0.000777155
0.000769592
0.000762242
0.000755124
0.000748252
0.00074168
0.000848318
0.000839426
0.000826161
0.000810016
0.000792357
0.000774223
0.000756316
0.000739038
0.000722586
0.000707041
0.000692414
0.000678678
0.000665786
0.000653685
0.000642317
0.000631628
0.000621571
0.000612155
0.000828548
0.000788842
0.000746032
0.0007057
0.000669458
0.000637494
0.000609435
0.000584726
0.000562828
0.000543287
0.000525732
0.000509865
0.000495445
0.000482277
0.000470202
0.00045909
0.000448834
0.000439387
0.000730726
0.000627344
0.000554504
0.000501055
0.000460312
0.000428339
0.000402623
0.000381457
0.000363696
0.000348564
0.000335517
0.000324157
0.000314185
0.000305373
0.000297539
0.00029054
0.000284257
0.000278607
0.000439249
0.00033847
0.000287934
0.000256867
0.00023636
0.000222508
0.000212991
0.00020631
0.000201504
0.000197957
0.00019527
0.000193176
0.000191498
0.000190116
0.000188946
0.000187932
0.000187036
0.00018621
7.16431e-05
6.90587e-05
6.65522e-05
6.41646e-05
6.19883e-05
6.00784e-05
5.84564e-05
5.71212e-05
5.60571e-05
5.52402e-05
5.46435e-05
5.42392e-05
5.40006e-05
5.39028e-05
5.39231e-05
5.40415e-05
5.42406e-05
5.45041e-05
3.4803e-07
8.13609e-06
1.32125e-05
1.79089e-05
2.3094e-05
2.8922e-05
3.54782e-05
4.28771e-05
5.08259e-05
5.89429e-05
6.72251e-05
7.56206e-05
8.4072e-05
9.25272e-05
0.000100941
0.000109273
0.000117486
0.000125544
0.00013341
0.000141047
0.000148417
0.000155482
0.000162202
0.000168538
0.000174447
0.000179883
0.000184793
0.000189111
0.000192762
0.000195642
0.000197499
0.000197283
4.50766e-05
0.000199423
0.000200378
0.00020087
0.000200526
0.000198243
0.000198839
4.6228e-05
4.67341e-05
0.000203609
0.000206745
4.81041e-05
4.9096e-05
5.01401e-05
5.11959e-05
5.22582e-05
5.33244e-05
5.43927e-05
5.5462e-05
5.65313e-05
5.76002e-05
5.86682e-05
5.97347e-05
6.07996e-05
6.18624e-05
6.29229e-05
6.39807e-05
6.50354e-05
6.60866e-05
6.71342e-05
6.81775e-05
6.92163e-05
7.02501e-05
7.12786e-05
7.23012e-05
7.33175e-05
7.4327e-05
7.53294e-05
7.63241e-05
7.73106e-05
7.82884e-05
7.92572e-05
8.02164e-05
8.11655e-05
8.2104e-05
8.30316e-05
8.39477e-05
8.48519e-05
8.57438e-05
8.66229e-05
8.74889e-05
8.83412e-05
8.91795e-05
9.00034e-05
9.08125e-05
9.16064e-05
9.23847e-05
9.31471e-05
9.38931e-05
9.46224e-05
9.53345e-05
9.60292e-05
9.67061e-05
9.73651e-05
9.80063e-05
9.86301e-05
9.92382e-05
9.98337e-05
0.000100412
0.000100969
0.000101504
0.000102017
0.000102509
0.000102979
0.000103427
0.000103852
0.000104254
0.000104633
0.000104988
0.000105319
0.000105626
0.000105908
0.000106166
0.000106398
0.000106606
0.000106788
0.000106945
0.000107077
0.000107182
0.000107263
0.000107317
0.000107346
0.00010735
0.000107327
0.000107279
0.000107206
0.000107108
0.000106984
0.000106835
0.000106662
0.000106464
0.000106242
0.000105995
0.000105725
0.000105432
0.000105116
0.000104777
0.000104415
0.000104032
0.000103628
0.000103203
0.000102758
0.000102293
0.000101808
0.000101305
0.000100784
0.000100245
9.96899e-05
9.91183e-05
9.85311e-05
9.79291e-05
9.7313e-05
9.66834e-05
9.6041e-05
9.53868e-05
9.47212e-05
9.40453e-05
9.33595e-05
9.26647e-05
9.19627e-05
9.12514e-05
9.05379e-05
8.98279e-05
8.92312e-05
8.88274e-05
8.84366e-05
8.80443e-05
8.76499e-05
8.72534e-05
8.68547e-05
8.64534e-05
8.6048e-05
8.56355e-05
8.52093e-05
8.47537e-05
8.42285e-05
8.35334e-05
8.22311e-05
1.21943e-06
2.86853e-05
6.11366e-05
8.45274e-05
0.000100716
0.000112868
0.000123351
0.00013337
0.000143449
0.000153732
0.000164195
0.000174761
0.000185347
0.000195879
0.000206292
0.000216529
0.000226537
0.000236265
0.000245659
0.000254662
0.000263212
0.000271241
0.000278672
0.000285413
0.000291354
0.000296359
0.000300257
0.000302841
0.000303862
0.000302977
0.000299412
0.000290608
0.000268119
0.000281657
0.00027673
0.000272449
0.000266761
0.000259684
0.000258459
0.000251889
0.000255462
0.000267073
0.000271046
0.000270007
0.000275771
0.000282074
0.00028877
0.000295748
0.000302945
0.00031032
0.000317847
0.000325507
0.000333291
0.000341189
0.000349197
0.000357312
0.00036553
0.00037385
0.000382269
0.000390786
0.000399399
0.000408106
0.000416905
0.000425793
0.000434769
0.000443829
0.000452971
0.00046219
0.000471483
0.000480846
0.000490275
0.000499765
0.00050931
0.000518907
0.000528549
0.00053823
0.000547946
0.000557691
0.000567457
0.000577241
0.000587035
0.000596834
0.000606632
0.000616423
0.000626203
0.000635965
0.000645705
0.000655418
0.0006651
0.000674746
0.000684351
0.000693911
0.00070342
0.000712872
0.000722258
0.000731562
0.000740762
0.000749819
0.000758675
0.000767064
0.000774964
0.000782708
0.000790329
0.000797829
0.000805202
0.000812444
0.000819548
0.000826509
0.000833321
0.000839979
0.000846477
0.000852811
0.000858976
0.000864966
0.000870776
0.000876404
0.000881843
0.00088709
0.000892142
0.000896994
0.000901643
0.000906086
0.00091032
0.000914342
0.000918151
0.000921743
0.000925117
0.000928272
0.000931205
0.000933915
0.000936401
0.000938664
0.000940702
0.000942516
0.000944105
0.000945471
0.000946613
0.000947534
0.000948234
0.000948715
0.000948979
0.000949028
0.000948866
0.000948494
0.000947916
0.000947136
0.000946157
0.000944982
0.000943618
0.000942067
0.000940336
0.000938428
0.000936349
0.000934107
0.000931706
0.000929152
0.000926454
0.000923614
0.000920646
0.000917553
0.000914339
0.000911029
0.000907618
0.000904052
0.000900181
0.000895082
0.000888217
0.000880868
0.000873347
0.000865735
0.000858063
0.000850345
0.00084259
0.000834797
0.000826961
0.000819058
0.000811014
0.000802717
0.000793169
0.000774516
2.36451e-06
4.49332e-05
9.4585e-05
0.000131331
0.000157794
0.000177566
0.000193384
0.000207093
0.000219808
0.00023212
0.000244286
0.000256385
0.000268406
0.000280304
0.000292021
0.000303497
0.000314675
0.000325499
0.000335914
0.000345865
0.000355297
0.000364157
0.00037239
0.000379942
0.000386761
0.000392794
0.000397998
0.000402349
0.000405867
0.000408641
0.000410819
0.000412514
0.000413499
0.000417297
0.000421256
0.000426426
0.0004324
0.000439275
0.000447714
0.00045661
0.000467031
0.000479188
0.000491958
0.000505053
0.000519059
0.000533448
0.000548185
0.000563244
0.0005786
0.000594227
0.000610106
0.000626223
0.000642567
0.000659128
0.000675901
0.000692879
0.000710058
0.000727433
0.000745001
0.000762757
0.000780696
0.000798815
0.000817106
0.000835566
0.000854186
0.000872961
0.000891882
0.000910942
0.000930131
0.000949439
0.000968858
0.000988376
0.00100798
0.00102766
0.00104741
0.00106721
0.00108705
0.00110692
0.0011268
0.00114668
0.00116655
0.0011864
0.00120621
0.00122598
0.00124568
0.00126531
0.00128486
0.00130431
0.00132365
0.00134287
0.00136196
0.0013809
0.00139967
0.00141826
0.00143664
0.00145478
0.00147264
0.00149017
0.00150731
0.0015238
0.00153987
0.00155567
0.0015712
0.00158647
0.00160148
0.00161621
0.00163064
0.00164477
0.00165859
0.00167208
0.00168524
0.00169805
0.0017105
0.00172259
0.00173429
0.00174562
0.00175655
0.00176707
0.00177719
0.00178688
0.00179616
0.001805
0.0018134
0.00182136
0.00182888
0.00183594
0.00184254
0.00184869
0.00185438
0.0018596
0.00186435
0.00186864
0.00187246
0.00187581
0.0018787
0.00188111
0.00188307
0.00188456
0.00188559
0.00188617
0.0018863
0.00188598
0.00188521
0.00188402
0.00188239
0.00188034
0.00187788
0.00187502
0.00187175
0.0018681
0.00186408
0.00185968
0.00185494
0.00184985
0.00184443
0.00183869
0.00183265
0.00182632
0.00181973
0.00181289
0.0018058
0.00179849
0.00179098
0.00178312
0.00177473
0.00176507
0.00175375
0.00174163
0.0017291
0.00171634
0.00170342
0.00169036
0.0016772
0.00166393
0.00165053
0.00163693
0.00162294
0.00160804
0.00159028
0.00156102
3.62715e-06
5.65227e-05
0.000118418
0.000165827
0.000200961
0.000227483
0.000248385
0.000265843
0.000281318
0.00029571
0.000309528
0.00032302
0.000336288
0.00034935
0.000362186
0.00037476
0.000387031
0.000398959
0.000410511
0.000421657
0.000432376
0.000442655
0.000452493
0.000461899
0.000470897
0.000479526
0.000487846
0.000495942
0.000503938
0.000512002
0.000520344
0.000529186
0.000538714
0.000549345
0.000561042
0.000573875
0.000587756
0.000602662
0.000618621
0.000635503
0.000653354
0.000672172
0.000691791
0.000712018
0.00073274
0.000753841
0.000775292
0.000797082
0.0008192
0.000841637
0.000864382
0.000887428
0.000910766
0.00093439
0.000958293
0.000982469
0.00100691
0.00103162
0.00105658
0.00108179
0.00110725
0.00113294
0.00115885
0.00118499
0.00121133
0.00123787
0.00126459
0.00129148
0.00131854
0.00134574
0.00137307
0.00140051
0.00142805
0.00145567
0.00148335
0.00151108
0.00153884
0.0015666
0.00159436
0.00162209
0.00164977
0.00167738
0.00170492
0.00173235
0.00175966
0.00178684
0.00181386
0.00184071
0.00186738
0.00189384
0.00192007
0.00194605
0.00197176
0.00199719
0.00202229
0.00204704
0.00207141
0.00209538
0.00211875
0.00214156
0.00216393
0.00218594
0.00220758
0.00222885
0.00224975
0.00227026
0.00229036
0.00231004
0.00232928
0.00234807
0.00236639
0.00238423
0.00240158
0.00241843
0.00243475
0.00245054
0.00246578
0.00248047
0.0024946
0.00250815
0.00252111
0.00253348
0.00254524
0.0025564
0.00256694
0.00257685
0.00258614
0.0025948
0.00260282
0.0026102
0.00261693
0.00262302
0.00262846
0.00263326
0.00263741
0.00264092
0.00264378
0.00264601
0.00264759
0.00264855
0.00264888
0.00264858
0.00264768
0.00264616
0.00264405
0.00264135
0.00263807
0.00263423
0.00262983
0.00262488
0.00261941
0.00261342
0.00260693
0.00259995
0.00259251
0.00258462
0.0025763
0.00256758
0.00255847
0.002549
0.00253919
0.00252902
0.00251852
0.00250759
0.00249605
0.00248347
0.00246964
0.00245496
0.00243976
0.00242421
0.0024084
0.00239238
0.0023762
0.00235986
0.00234334
0.00232654
0.00230919
0.00229061
0.00226862
0.00223663
4.82901e-06
6.56843e-05
0.000137233
0.000193457
0.000235911
0.000268282
0.000293735
0.000314661
0.000332752
0.000349138
0.000364523
0.000379315
0.00039373
0.000407868
0.000421766
0.000435425
0.000448838
0.000461993
0.000474885
0.000487517
0.000499902
0.000512067
0.000524054
0.000535916
0.000547725
0.000559564
0.000571533
0.000583749
0.000596343
0.000609461
0.000623259
0.000637883
0.000653452
0.000670067
0.000687753
0.000706505
0.000726283
0.000747047
0.000768757
0.000791352
0.00081478
0.00083898
0.000863857
0.000889302
0.00091522
0.000941549
0.000968261
0.000995342
0.00102278
0.00105058
0.00107872
0.0011072
0.00113602
0.00116517
0.00119464
0.00122443
0.00125453
0.00128492
0.00131562
0.00134659
0.00137785
0.00140937
0.00144114
0.00147316
0.0015054
0.00153786
0.00157052
0.00160336
0.00163637
0.00166953
0.00170281
0.00173621
0.00176969
0.00180324
0.00183684
0.00187046
0.00190409
0.00193769
0.00197125
0.00200475
0.00203815
0.00207145
0.00210461
0.00213762
0.00217045
0.00220309
0.00223551
0.00226769
0.00229961
0.00233126
0.0023626
0.00239362
0.0024243
0.00245461
0.00248453
0.00251403
0.00254309
0.00257167
0.00259961
0.00262702
0.00265396
0.00268048
0.00270656
0.00273221
0.00275741
0.00278214
0.0028064
0.00283015
0.00285339
0.0028761
0.00289826
0.00291985
0.00294086
0.00296128
0.00298108
0.00300026
0.0030188
0.00303669
0.00305391
0.00307045
0.0030863
0.00310146
0.0031159
0.00312963
0.00314264
0.00315491
0.00316644
0.00317722
0.00318725
0.00319653
0.00320504
0.00321279
0.00321978
0.003226
0.00323146
0.00323615
0.00324008
0.00324325
0.00324566
0.00324732
0.00324823
0.0032484
0.00324784
0.00324655
0.00324454
0.00324183
0.00323842
0.00323432
0.00322956
0.00322414
0.00321807
0.00321139
0.00320409
0.0031962
0.00318775
0.00317874
0.00316921
0.00315918
0.00314866
0.00313768
0.00312626
0.00311441
0.00310213
0.00308936
0.00307597
0.00306175
0.00304657
0.00303061
0.00301408
0.00299714
0.00297988
0.00296236
0.00294464
0.00292673
0.00290862
0.00289023
0.00287128
0.00285111
0.0028278
0.00279696
5.89404e-06
7.31227e-05
0.000152572
0.000216146
0.000264866
0.000302378
0.000331939
0.000356079
0.000376655
0.000394966
0.000411876
0.000427933
0.000443466
0.00045866
0.000473616
0.000488384
0.000502994
0.000517467
0.000531826
0.000546102
0.000560334
0.000574576
0.000588891
0.000603357
0.000618058
0.000633092
0.00064856
0.00066457
0.00068123
0.000698647
0.00071692
0.000736131
0.000756341
0.00077758
0.000799848
0.000823122
0.000847364
0.000872528
0.000898562
0.000925408
0.000953007
0.000981292
0.00101019
0.00103964
0.00106956
0.00109993
0.0011307
0.00116187
0.00119343
0.00122537
0.00125768
0.00129035
0.00132339
0.00135678
0.00139052
0.00142459
0.00145899
0.00149372
0.00152876
0.00156409
0.00159972
0.00163562
0.00167179
0.0017082
0.00174485
0.00178171
0.00181877
0.00185601
0.00189341
0.00193095
0.0019686
0.00200635
0.00204417
0.00208204
0.00211993
0.00215782
0.00219569
0.0022335
0.00227123
0.00230887
0.00234637
0.00238373
0.00242091
0.00245789
0.00249464
0.00253115
0.00256739
0.00260334
0.00263898
0.00267429
0.00270925
0.00274383
0.00277802
0.0028118
0.00284513
0.00287802
0.00291042
0.00294227
0.00297351
0.00300423
0.00303446
0.00306423
0.00309353
0.00312236
0.00315069
0.00317852
0.00320583
0.0032326
0.0032588
0.00328442
0.00330945
0.00333387
0.00335765
0.00338079
0.00340326
0.00342505
0.00344614
0.00346653
0.00348618
0.0035051
0.00352327
0.00354068
0.00355731
0.00357316
0.00358821
0.00360247
0.00361591
0.00362854
0.00364034
0.00365131
0.00366145
0.00367075
0.00367921
0.00368683
0.00369361
0.00369954
0.00370463
0.00370888
0.00371229
0.00371487
0.00371663
0.00371755
0.00371767
0.00371697
0.00371548
0.0037132
0.00371014
0.00370631
0.00370174
0.00369643
0.00369039
0.00368364
0.00367622
0.00366812
0.00365937
0.00364999
0.00364001
0.00362945
0.00361833
0.00360668
0.00359452
0.00358185
0.00356868
0.00355499
0.0035407
0.00352569
0.00350991
0.00349343
0.00347639
0.0034589
0.00344106
0.00342293
0.00340457
0.00338602
0.0033673
0.00334834
0.00332892
0.00330847
0.00328551
0.00325721
6.78954e-06
7.91894e-05
0.00016504
0.000234761
0.000288882
0.000330952
0.000364255
0.000391404
0.000414365
0.000434564
0.000452994
0.000470322
0.000486979
0.000503235
0.000519256
0.000535144
0.000550968
0.000566778
0.000582624
0.000598556
0.00061463
0.000630913
0.000647476
0.0006644
0.000681771
0.000699678
0.000718208
0.000737448
0.000757479
0.000778372
0.000800187
0.000822965
0.000846732
0.00087149
0.000897224
0.000923905
0.000951492
0.000979938
0.00100919
0.0010392
0.0010699
0.00110125
0.00113318
0.00116564
0.00119859
0.001232
0.00126583
0.00130008
0.00133474
0.00136978
0.00140521
0.00144102
0.0014772
0.00151374
0.00155064
0.00158788
0.00162546
0.00166337
0.00170158
0.0017401
0.00177891
0.001818
0.00185734
0.00189693
0.00193674
0.00197676
0.00201698
0.00205735
0.00209788
0.00213853
0.00217929
0.00222012
0.00226101
0.00230192
0.00234285
0.00238374
0.00242459
0.00246537
0.00250604
0.00254658
0.00258697
0.00262717
0.00266717
0.00270694
0.00274645
0.00278568
0.0028246
0.0028632
0.00290146
0.00293935
0.00297685
0.00301396
0.00305063
0.00308687
0.00312265
0.00315795
0.00319276
0.00322695
0.00326059
0.00329373
0.00332638
0.00335855
0.00339024
0.00342143
0.00345213
0.00348229
0.00351192
0.00354098
0.00356946
0.00359733
0.00362459
0.00365121
0.00367718
0.00370247
0.00372706
0.00375095
0.00377411
0.00379653
0.00381819
0.00383908
0.00385918
0.00387848
0.00389697
0.00391463
0.00393146
0.00394745
0.00396259
0.00397687
0.00399027
0.0040028
0.00401445
0.00402522
0.00403509
0.00404408
0.00405217
0.00405937
0.00406568
0.00407109
0.00407561
0.00407924
0.004082
0.00408388
0.00408488
0.00408502
0.00408431
0.00408275
0.00408036
0.00407714
0.00407311
0.0040683
0.00406269
0.00405631
0.00404919
0.00404135
0.00403279
0.00402355
0.00401365
0.00400311
0.00399196
0.00398021
0.00396789
0.00395502
0.0039416
0.00392762
0.00391305
0.00389783
0.00388195
0.00386543
0.00384837
0.00383085
0.00381296
0.00379477
0.00377634
0.00375774
0.003739
0.0037201
0.00370089
0.00368092
0.0036591
0.00363359
7.53095e-06
8.39791e-05
0.000174945
0.000249789
0.000308567
0.000354685
0.000391406
0.000421376
0.000446634
0.000468694
0.000488648
0.000507263
0.000525058
0.000542382
0.000559462
0.00057645
0.000593452
0.000610548
0.000627807
0.000645292
0.000663071
0.000681211
0.000699786
0.000718869
0.000738537
0.000758865
0.000779923
0.000801775
0.000824477
0.000848076
0.000872603
0.000898078
0.000924504
0.000951872
0.000980158
0.00100933
0.00103935
0.00107017
0.00110175
0.00113403
0.00116697
0.00120052
0.00123463
0.00126926
0.00130438
0.00133997
0.00137599
0.00141243
0.00144928
0.00148652
0.00152415
0.00156216
0.00160054
0.00163928
0.00167838
0.00171781
0.00175758
0.00179767
0.00183807
0.00187876
0.00191974
0.00196098
0.00200248
0.00204421
0.00208615
0.0021283
0.00217063
0.00221312
0.00225574
0.00229849
0.00234132
0.00238423
0.00242718
0.00247016
0.00251312
0.00255606
0.00259894
0.00264173
0.00268441
0.00272694
0.00276931
0.00281148
0.00285344
0.00289514
0.00293657
0.0029777
0.00301851
0.00305897
0.00309908
0.0031388
0.00317812
0.00321703
0.00325549
0.00329351
0.00333106
0.00336813
0.00340467
0.00344064
0.0034761
0.00351107
0.00354557
0.0035796
0.00361315
0.00364621
0.00367876
0.00371079
0.00374227
0.00377318
0.00380351
0.00383322
0.00386232
0.00389076
0.00391854
0.00394564
0.00397203
0.0039977
0.00402263
0.0040468
0.00407019
0.0040928
0.00411459
0.00413556
0.0041557
0.00417499
0.00419343
0.004211
0.00422769
0.0042435
0.00425841
0.00427241
0.0042855
0.00429767
0.00430893
0.00431926
0.00432868
0.00433716
0.00434471
0.00435133
0.00435703
0.00436181
0.00436568
0.00436862
0.00437065
0.00437177
0.00437202
0.00437139
0.00436986
0.00436746
0.00436421
0.00436013
0.00435522
0.0043495
0.004343
0.00433573
0.0043277
0.00431895
0.00430949
0.00429935
0.00428854
0.0042771
0.00426504
0.00425238
0.00423913
0.0042253
0.00421088
0.00419584
0.00418019
0.00416395
0.00414719
0.00412996
0.00411236
0.00409445
0.00407631
0.00405802
0.00403963
0.00402117
0.00400254
0.00398344
0.00396304
0.00394012
8.11871e-06
8.76124e-05
0.000182548
0.000261593
0.000324353
0.000374046
0.000413871
0.000446475
0.00047393
0.000497809
0.00051928
0.000539184
0.000558117
0.000576495
0.000594602
0.000612635
0.000630734
0.000649004
0.000667532
0.00068639
0.000705649
0.000725376
0.000745639
0.000766503
0.000788032
0.000810284
0.000833314
0.000857167
0.00088188
0.000907481
0.000933984
0.000961396
0.000989708
0.0010189
0.00104896
0.00107984
0.00111151
0.00114393
0.00117705
0.00121083
0.00124524
0.00128022
0.00131574
0.00135178
0.00138829
0.00142525
0.00146265
0.00150046
0.00153868
0.00157729
0.00161628
0.00165564
0.00169536
0.00173543
0.00177585
0.0018166
0.00185767
0.00189905
0.00194074
0.00198271
0.00202496
0.00206747
0.00211023
0.00215322
0.00219642
0.00223983
0.00228341
0.00232715
0.00237103
0.00241503
0.00245913
0.00250331
0.00254754
0.00259179
0.00263605
0.00268028
0.00272446
0.00276857
0.00281256
0.00285643
0.00290013
0.00294364
0.00298693
0.00302997
0.00307274
0.00311521
0.00315736
0.00319916
0.0032406
0.00328166
0.00332231
0.00336254
0.00340234
0.00344168
0.00348057
0.00351898
0.00355686
0.00359425
0.00363117
0.00366764
0.00370366
0.00373923
0.00377433
0.00380896
0.00384309
0.0038767
0.00390977
0.00394228
0.00397421
0.00400553
0.00403623
0.00406629
0.00409568
0.00412438
0.00415238
0.00417965
0.00420618
0.00423194
0.00425692
0.0042811
0.00430446
0.00432698
0.00434866
0.00436947
0.00438942
0.00440848
0.00442666
0.00444393
0.00446029
0.00447572
0.00449021
0.00450377
0.00451639
0.00452807
0.00453881
0.0045486
0.00455743
0.0045653
0.00457222
0.0045782
0.00458327
0.00458736
0.00459051
0.00459273
0.00459403
0.00459442
0.0045939
0.00459249
0.00459019
0.00458703
0.00458302
0.00457816
0.00457249
0.00456602
0.00455876
0.00455074
0.00454198
0.0045325
0.00452232
0.00451146
0.00449995
0.0044878
0.00447503
0.00446165
0.00444767
0.00443309
0.00441792
0.00440218
0.00438593
0.00436922
0.00435212
0.00433472
0.00431709
0.00429933
0.00428152
0.00426371
0.00424586
0.00422778
0.00420883
0.00418815
8.55755e-06
9.02093e-05
0.000188083
0.000270487
0.000336594
0.000389406
0.000432022
0.000467053
0.00049658
0.000522209
0.000545157
0.000566324
0.000586367
0.000605756
0.000624825
0.00064381
0.000662882
0.000682169
0.000701768
0.000721762
0.000742222
0.000763212
0.000784793
0.000807021
0.000829945
0.000853613
0.000878062
0.000903325
0.000929425
0.000956375
0.000984181
0.00101284
0.00104234
0.00107265
0.00110376
0.00113564
0.00116824
0.00120153
0.00123547
0.00127004
0.00130518
0.00134086
0.00137706
0.00141375
0.00145089
0.00148847
0.00152647
0.00156487
0.00160366
0.00164283
0.00168236
0.00172226
0.0017625
0.00180308
0.001844
0.00188524
0.0019268
0.00196866
0.00201082
0.00205327
0.00209599
0.00213898
0.00218222
0.0022257
0.0022694
0.00231331
0.00235742
0.00240171
0.00244616
0.00249075
0.00253546
0.00258027
0.00262516
0.00267011
0.00271509
0.00276007
0.00280503
0.00284994
0.00289477
0.0029395
0.00298408
0.0030285
0.00307272
0.00311671
0.00316045
0.0032039
0.00324704
0.00328985
0.0033323
0.00337437
0.00341604
0.00345731
0.00349815
0.00353856
0.00357851
0.00361801
0.00365706
0.00369568
0.00373389
0.00377168
0.00380905
0.003846
0.00388251
0.00391855
0.00395412
0.00398918
0.00402371
0.0040577
0.00409111
0.00412393
0.00415614
0.0041877
0.0042186
0.00424881
0.00427833
0.00430712
0.00433516
0.00436244
0.00438894
0.00441462
0.00443948
0.00446349
0.00448665
0.00450894
0.00453036
0.00455088
0.00457051
0.00458923
0.00460701
0.00462385
0.00463975
0.00465469
0.00466867
0.00468171
0.00469381
0.00470493
0.00471507
0.00472423
0.00473242
0.00473965
0.00474593
0.00475124
0.00475559
0.00475899
0.00476146
0.00476299
0.0047636
0.00476329
0.00476208
0.00475999
0.00475702
0.00475319
0.00474852
0.00474302
0.00473671
0.00472961
0.00472174
0.00471312
0.00470377
0.00469371
0.00468297
0.00467155
0.00465949
0.0046468
0.00463348
0.00461956
0.00460505
0.00458999
0.00457441
0.00455837
0.00454194
0.0045252
0.00450824
0.00449116
0.00447407
0.00445703
0.00444006
0.00442302
0.00440543
0.00438664
8.85664e-06
9.18903e-05
0.000191779
0.000276763
0.000345614
0.000401094
0.000446172
0.000483399
0.000514838
0.000542107
0.000566452
0.000588815
0.000609898
0.000630215
0.00065014
0.000669944
0.000689822
0.000709921
0.000730351
0.000751199
0.000772537
0.000794426
0.00081692
0.000840064
0.0008639
0.000888461
0.000913776
0.000939864
0.000966738
0.000994405
0.00102286
0.0010521
0.00108211
0.00111286
0.00114433
0.00117649
0.00120932
0.00124277
0.00127682
0.00131143
0.00134657
0.00138221
0.00141833
0.00145491
0.00149191
0.00152932
0.00156713
0.00160532
0.00164388
0.0016828
0.00172207
0.00176169
0.00180165
0.00184195
0.00188257
0.00192352
0.00196478
0.00200636
0.00204825
0.00209043
0.00213292
0.00217568
0.00221872
0.00226204
0.0023056
0.00234942
0.00239347
0.00243774
0.00248221
0.00252687
0.00257171
0.00261669
0.00266181
0.00270703
0.00275233
0.00279769
0.00284308
0.00288847
0.00293383
0.00297913
0.00302433
0.00306941
0.00311432
0.00315904
0.00320353
0.00324776
0.0032917
0.00333533
0.00337861
0.00342154
0.00346408
0.00350622
0.00354796
0.00358927
0.00363016
0.0036707
0.00371087
0.00375067
0.00379011
0.00382917
0.00386785
0.00390613
0.00394399
0.00398141
0.00401837
0.00405485
0.00409081
0.00412623
0.00416109
0.00419537
0.00422904
0.00426207
0.00429445
0.00432615
0.00435715
0.00438742
0.00441696
0.00444574
0.00447372
0.00450089
0.00452723
0.00455272
0.00457735
0.00460111
0.00462398
0.00464595
0.00466703
0.00468721
0.00470643
0.00472469
0.00474199
0.00475833
0.00477371
0.00478812
0.00480157
0.00481404
0.00482552
0.00483602
0.00484553
0.00485408
0.00486165
0.00486825
0.00487389
0.00487856
0.00488228
0.00488506
0.0048869
0.00488781
0.00488781
0.0048869
0.00488511
0.00488243
0.0048789
0.00487452
0.00486931
0.00486329
0.00485648
0.00484889
0.00484054
0.00483146
0.00482166
0.00481117
0.0048
0.00478817
0.0047757
0.00476262
0.00474894
0.00473469
0.00471992
0.00470469
0.00468906
0.00467311
0.00465694
0.00464065
0.00462436
0.00460816
0.0045921
0.00457609
0.00455974
0.00454252
9.02905e-06
9.27768e-05
0.000193862
0.000280705
0.00035172
0.000409412
0.000456601
0.000495756
0.000528901
0.000557647
0.000583255
0.000606692
0.000628691
0.0006498
0.000670423
0.000690859
0.000711324
0.00073198
0.000752946
0.000774315
0.000796158
0.000818533
0.000841488
0.000865062
0.000889286
0.000914186
0.00093978
0.000966081
0.000993094
0.00102082
0.00104925
0.00107838
0.00110818
0.00113865
0.00116974
0.00120145
0.00123374
0.00126659
0.00129996
0.00133383
0.00136817
0.00140297
0.00143819
0.00147383
0.00150986
0.00154628
0.00158306
0.0016202
0.0016577
0.00169554
0.00173374