/*--------------------------------*- C++ -*----------------------------------*\
  =========                 |
  \\      /  F ield         | OpenFOAM: The Open Source CFD Toolbox
   \\    /   O peration     | Website:  https://openfoam.org
    \\  /    A nd           | Version:  12
     \\/     M anipulation  |
\*---------------------------------------------------------------------------*/
FoamFile
{
    format      ascii;
    class       volScalarField;
    location    "0.18";
    object      p;
}
// * * * * * * * * * * * * * * * * * * * * * * * * * * * * * * * * * * * * * //

dimensions      [0 2 -2 0 0 0 0];

internalField   nonuniform List<scalar> 
12225
(
-1.1179
-3.40089
-4.56336
-4.87155
-5.03982
-5.19956
-5.32415
-5.41258
-5.48219
-5.54321
-5.59741
-5.64462
-5.68513
-5.71824
-5.74279
-5.74836
-5.74464
-5.63511
-4.5854
-5.28751
-5.37774
-5.24269
-5.20264
-5.26994
-5.35072
-5.4166
-5.47363
-5.52704
-5.57662
-5.6212
-5.66047
-5.69354
-5.71996
-5.73263
-5.74447
-5.72802
-4.79015
-4.68719
-4.84397
-4.96611
-5.0735
-5.19584
-5.30417
-5.38687
-5.45411
-5.514
-5.56819
-5.61646
-5.65894
-5.69536
-5.72612
-5.74809
-5.77563
-5.80753
-4.65286
-4.57473
-4.8508
-5.02954
-5.12402
-5.22119
-5.31635
-5.39395
-5.45859
-5.51686
-5.57022
-5.6183
-5.66123
-5.69915
-5.73308
-5.76308
-5.80093
-5.85296
-4.65983
-4.67708
-4.91717
-5.06709
-5.14316
-5.22791
-5.31757
-5.3937
-5.45773
-5.51554
-5.56878
-5.61727
-5.66126
-5.70131
-5.73888
-5.77571
-5.82047
-5.88003
-4.72152
-4.76398
-4.94177
-5.07252
-5.15055
-5.23313
-5.31949
-5.39441
-5.45811
-5.51569
-5.56898
-5.61799
-5.66312
-5.70522
-5.74599
-5.78774
-5.83666
-5.89822
-4.78126
-4.82078
-4.95719
-5.07942
-5.16185
-5.24162
-5.32336
-5.3963
-5.45946
-5.51676
-5.57003
-5.61951
-5.6657
-5.70961
-5.75295
-5.79801
-5.84907
-5.90969
-4.83442
-4.86931
-4.97962
-5.09227
-5.17486
-5.25082
-5.32784
-5.3986
-5.46111
-5.51808
-5.57129
-5.6212
-5.66833
-5.71374
-5.75898
-5.80604
-5.85772
-5.91593
-4.88421
-4.91595
-5.00674
-5.10757
-5.18768
-5.2602
-5.33302
-5.40147
-5.46309
-5.51963
-5.57271
-5.62291
-5.67078
-5.71729
-5.76377
-5.81175
-5.86297
-5.91824
-4.93158
-4.96021
-5.03539
-5.12431
-5.20073
-5.27017
-5.33917
-5.40507
-5.46554
-5.5215
-5.57431
-5.62462
-5.67295
-5.72013
-5.76721
-5.81529
-5.86538
-5.91761
-4.97636
-5.00164
-5.06445
-5.14253
-5.21445
-5.28079
-5.3462
-5.40944
-5.46851
-5.52371
-5.5761
-5.6263
-5.67479
-5.72221
-5.76935
-5.81694
-5.86551
-5.91484
-5.01488
-5.03722
-5.09106
-5.16035
-5.22764
-5.29097
-5.3533
-5.41408
-5.47169
-5.52605
-5.5779
-5.62779
-5.67613
-5.72343
-5.77023
-5.817
-5.86402
-5.91091
-5.05059
-5.07039
-5.11692
-5.17847
-5.24106
-5.30133
-5.36077
-5.41915
-5.47519
-5.52858
-5.57976
-5.62918
-5.67716
-5.72407
-5.77028
-5.81604
-5.86146
-5.90615
-5.08814
-5.10544
-5.14523
-5.19924
-5.25661
-5.31333
-5.36965
-5.42538
-5.47954
-5.53167
-5.58193
-5.6306
-5.67793
-5.72412
-5.76939
-5.81383
-5.85744
-5.89987
-5.12628
-5.14118
-5.17503
-5.22206
-5.27398
-5.32678
-5.3798
-5.4327
-5.4847
-5.53525
-5.58428
-5.63189
-5.67822
-5.72334
-5.76732
-5.81018
-5.85184
-5.89203
-5.16308
-5.17582
-5.20469
-5.24562
-5.29229
-5.34105
-5.39071
-5.44072
-5.49036
-5.53906
-5.58656
-5.6328
-5.67778
-5.7215
-5.76393
-5.80501
-5.84468
-5.88273
-5.19565
-5.20665
-5.23164
-5.26766
-5.30977
-5.35477
-5.40127
-5.44852
-5.4958
-5.5425
-5.58825
-5.63289
-5.67629
-5.71838
-5.75908
-5.79832
-5.83603
-5.87208
-5.21964
-5.22944
-5.25183
-5.28452
-5.32337
-5.36552
-5.40951
-5.45449
-5.49972
-5.54458
-5.58863
-5.63163
-5.6734
-5.71382
-5.75281
-5.79028
-5.82618
-5.86045
-5.22809
-5.23745
-5.25892
-5.29046
-5.32816
-5.36917
-5.41201
-5.45581
-5.49986
-5.54351
-5.58633
-5.62803
-5.66844
-5.70745
-5.74497
-5.78095
-5.81536
-5.84818
-5.21316
-5.22322
-5.24622
-5.27986
-5.31967
-5.36228
-5.40617
-5.45066
-5.49511
-5.53889
-5.58157
-5.62292
-5.66281
-5.70117
-5.73793
-5.77309
-5.80664
-5.8386
-5.18699
-5.19819
-5.22398
-5.26172
-5.30549
-5.35107
-5.39714
-5.44337
-5.48914
-5.53375
-5.57687
-5.61838
-5.65826
-5.69644
-5.73292
-5.7677
-5.80083
-5.83236
-5.15207
-5.16445
-5.19449
-5.23897
-5.28849
-5.33764
-5.38639
-5.43512
-5.48286
-5.52874
-5.57259
-5.61453
-5.65462
-5.69283
-5.7292
-5.7638
-5.79669
-5.82794
-5.11146
-5.12407
-5.15944
-5.21404
-5.27118
-5.3242
-5.37579
-5.42721
-5.47702
-5.52423
-5.56896
-5.61149
-5.65191
-5.69027
-5.72664
-5.76116
-5.79392
-5.82502
-5.06763
-5.0792
-5.12159
-5.18822
-5.25292
-5.31058
-5.36651
-5.42121
-5.47275
-5.52086
-5.56623
-5.60926
-5.64997
-5.68842
-5.72478
-5.75922
-5.79186
-5.82283
-5.02078
-5.02854
-5.08959
-5.16939
-5.23453
-5.2942
-5.35612
-5.41572
-5.4695
-5.51858
-5.56464
-5.60815
-5.64908
-5.68756
-5.72386
-5.75819
-5.79073
-5.82163
-4.97283
-4.94919
-5.05999
-5.16892
-5.2295
-5.2836
-5.34704
-5.40941
-5.4647
-5.51472
-5.56161
-5.60571
-5.64697
-5.6856
-5.72194
-5.75627
-5.78878
-5.81962
-4.96352
-4.8192
-4.97823
-5.14443
-5.22892
-5.28993
-5.35473
-5.41588
-5.46962
-5.51876
-5.56516
-5.60882
-5.64962
-5.68781
-5.72374
-5.75767
-5.78987
-5.82051
-5.10893
-4.82513
-4.85986
-4.99031
-5.10988
-5.21687
-5.31092
-5.38666
-5.44889
-5.5041
-5.55482
-5.60138
-5.64413
-5.6837
-5.72059
-5.75519
-5.78802
-5.81971
-5.04573
-5.54542
-5.55553
-5.39627
-5.31527
-5.33946
-5.39358
-5.44296
-5.48804
-5.53256
-5.57617
-5.61756
-5.65638
-5.69282
-5.72709
-5.75928
-5.78965
-5.82006
-1.70705
-3.57761
-4.64888
-4.94191
-5.07673
-5.21346
-5.32535
-5.40531
-5.46824
-5.52422
-5.57548
-5.6221
-5.66466
-5.70388
-5.74019
-5.7736
-5.80377
-5.82892
-6.72102
-6.72102
-6.72141
-6.72215
-6.72315
-6.7244
-6.72589
-6.72765
-6.72969
-6.73201
-6.73465
-6.73764
-6.74102
-6.74481
-6.74907
-6.75382
-6.75909
-6.76493
-6.77137
-6.77844
-6.78618
-6.79463
-6.80382
-6.8138
-6.82461
-6.83629
-6.84891
-6.86252
-6.87717
-6.89292
-6.90981
-6.92806
-6.94762
-6.96811
-6.99072
-7.017
-7.0444
-7.05882
-7.06821
-7.10136
-7.14631
-7.16835
-7.18018
-7.20321
-7.23003
-7.25761
-7.28611
-7.31543
-7.34538
-7.37582
-7.40664
-7.43772
-7.46897
-7.50027
-7.53152
-7.56263
-7.59348
-7.62397
-7.65397
-7.68338
-7.71205
-7.73987
-7.7667
-7.79239
-7.8168
-7.83977
-7.86115
-7.88078
-7.89847
-7.91408
-7.9274
-7.93828
-7.94652
-7.95193
-7.95434
-7.95355
-7.94938
-7.94163
-7.93011
-7.91464
-7.89503
-7.8711
-7.84267
-7.80955
-7.77157
-7.72857
-7.68037
-7.62682
-7.56776
-7.50305
-7.43253
-7.35607
-7.27356
-7.18488
-7.08991
-6.98857
-6.88084
-6.76674
-6.6462
-6.51902
-6.3849
-6.24373
-6.09566
-5.94073
-5.77897
-5.6104
-5.43505
-5.25296
-5.06421
-4.86885
-4.66698
-4.45871
-4.24417
-4.02348
-3.79681
-3.56432
-3.3262
-3.08264
-2.83386
-2.58007
-2.32152
-2.05844
-1.79111
-1.51979
-1.24476
-0.966303
-0.684714
-0.400292
-0.113346
0.175815
0.466876
0.759519
1.05343
1.34828
1.64376
1.93956
2.23535
2.53083
2.8257
3.11965
3.41239
3.70363
3.99311
4.28054
4.56569
4.84828
5.1281
5.40491
5.67851
5.94868
6.21525
6.47804
6.73688
6.99163
7.24214
7.4883
7.72997
7.96708
8.19951
8.4272
8.65007
8.86807
9.08116
9.28931
9.4925
9.69066
9.88362
10.0713
10.2536
10.4307
10.6025
10.769
10.9303
11.0864
11.2373
11.3835
11.5258
11.6656
11.8122
11.9661
-6.71947
-6.71982
-6.72033
-6.72093
-6.72152
-6.72211
-6.72285
-6.72387
-6.72521
-6.72692
-6.729
-6.73149
-6.73439
-6.73772
-6.74152
-6.74581
-6.75061
-6.75597
-6.7619
-6.76844
-6.77562
-6.78347
-6.79203
-6.80133
-6.81139
-6.82225
-6.8339
-6.84634
-6.85956
-6.87352
-6.88824
-6.90364
-6.9196
-6.93669
-6.95473
-6.97178
-6.98553
-7.00902
-7.0452
-7.06796
-7.07602
-7.09947
-7.13938
-7.17453
-7.20493
-7.23442
-7.26412
-7.29408
-7.32435
-7.35492
-7.38574
-7.41676
-7.4479
-7.47907
-7.5102
-7.54118
-7.57191
-7.6023
-7.63222
-7.66156
-7.69021
-7.71802
-7.74488
-7.77063
-7.79513
-7.81823
-7.83978
-7.8596
-7.87754
-7.89342
-7.90707
-7.91831
-7.92695
-7.93282
-7.93572
-7.93546
-7.93186
-7.92474
-7.91389
-7.89913
-7.88028
-7.85716
-7.82957
-7.79735
-7.76032
-7.71831
-7.67116
-7.6187
-7.56079
-7.49728
-7.42802
-7.35288
-7.27175
-7.1845
-7.09101
-6.99119
-6.88492
-6.77207
-6.65249
-6.52599
-6.39275
-6.25293
-6.10639
-5.95306
-5.79293
-5.62601
-5.45232
-5.27191
-5.08482
-4.89113
-4.69093
-4.48433
-4.27143
-4.05238
-3.82733
-3.59644
-3.35989
-3.11787
-2.8706
-2.61829
-2.36117
-2.0995
-1.83353
-1.56352
-1.28975
-1.01251
-0.732075
-0.448758
-0.162858
0.125314
0.415447
0.707225
1.00033
1.29444
1.58925
1.88444
2.17968
2.47469
2.76914
3.06273
3.35519
3.64621
3.93553
4.22286
4.50797
4.79058
5.07047
5.34741
5.62118
5.89159
6.15843
6.42154
6.68074
6.93588
7.18683
7.43344
7.67561
7.91324
8.14621
8.37447
8.59793
8.81654
9.03026
9.23905
9.44289
9.64168
9.83528
10.0236
10.2066
10.3844
10.5569
10.7242
10.8863
11.0432
11.1952
11.3427
11.4868
11.6287
11.7787
11.9265
-6.71555
-6.71678
-6.71807
-6.71916
-6.71993
-6.72052
-6.72117
-6.72201
-6.72315
-6.72464
-6.72651
-6.72878
-6.73148
-6.73464
-6.73827
-6.7424
-6.74705
-6.75227
-6.75807
-6.76448
-6.77154
-6.77927
-6.7877
-6.79687
-6.8068
-6.81752
-6.82905
-6.84141
-6.85462
-6.86869
-6.88367
-6.89955
-6.91626
-6.93387
-6.95239
-6.97136
-6.99085
-7.01334
-7.03931
-7.0635
-7.08437
-7.10738
-7.13493
-7.16355
-7.19204
-7.22079
-7.24995
-7.27948
-7.30932
-7.33944
-7.36979
-7.40033
-7.43097
-7.46166
-7.4923
-7.5228
-7.55308
-7.58303
-7.61255
-7.64152
-7.66982
-7.69732
-7.7239
-7.74941
-7.77372
-7.79667
-7.81811
-7.83788
-7.8558
-7.87173
-7.88547
-7.89685
-7.90569
-7.91181
-7.91501
-7.91513
-7.91196
-7.90532
-7.89502
-7.88087
-7.86269
-7.84029
-7.8135
-7.78213
-7.74601
-7.70498
-7.65886
-7.6075
-7.55075
-7.48845
-7.42046
-7.34665
-7.26689
-7.18105
-7.08903
-6.99072
-6.88599
-6.77471
-6.65679
-6.53219
-6.40086
-6.26286
-6.11814
-5.96667
-5.80842
-5.64341
-5.47165
-5.29317
-5.10803
-4.91629
-4.71805
-4.51339
-4.30244
-4.08532
-3.86219
-3.63319
-3.39852
-3.15835
-2.9129
-2.66238
-2.40701
-2.14705
-1.88273
-1.61434
-1.34213
-1.06638
-0.787401
-0.50547
-0.220894
0.0660216
0.354965
0.645623
0.93768
1.23082
1.52473
1.81909
2.11359
2.40791
2.70177
2.99485
3.28686
3.57752
3.86654
4.15366
4.43861
4.72115
5.00104
5.27804
5.55194
5.82253
6.08962
6.35302
6.61258
6.86812
7.11952
7.36662
7.60933
7.84752
8.0811
8.30998
8.53409
8.75336
8.96773
9.17716
9.38161
9.58102
9.77532
9.96444
10.1483
10.327
10.5004
10.6686
10.8316
10.9896
11.1428
11.2918
11.4378
11.5815
11.734
11.8715
-6.70979
-6.71187
-6.71432
-6.71636
-6.71776
-6.71879
-6.71973
-6.72074
-6.72197
-6.72348
-6.72534
-6.72758
-6.73024
-6.73335
-6.73694
-6.74102
-6.74563
-6.75079
-6.75653
-6.76288
-6.76987
-6.77753
-6.78588
-6.79495
-6.80477
-6.81536
-6.82674
-6.83894
-6.85197
-6.86585
-6.88062
-6.89628
-6.91284
-6.93031
-6.94869
-6.96796
-6.9883
-7.0101
-7.03327
-7.05693
-7.08073
-7.10544
-7.13151
-7.15851
-7.18609
-7.21421
-7.2428
-7.27181
-7.30117
-7.33084
-7.36075
-7.39086
-7.42109
-7.45138
-7.48163
-7.51178
-7.54171
-7.57135
-7.60057
-7.62928
-7.65735
-7.68466
-7.71107
-7.73646
-7.76067
-7.78356
-7.80498
-7.82477
-7.84276
-7.85878
-7.87266
-7.88422
-7.89329
-7.89967
-7.90319
-7.90365
-7.90088
-7.89468
-7.88486
-7.87124
-7.85363
-7.83185
-7.80572
-7.77506
-7.7397
-7.69946
-7.65418
-7.6037
-7.54786
-7.48652
-7.41954
-7.34676
-7.26807
-7.18333
-7.09243
-6.99525
-6.89168
-6.78161
-6.66496
-6.54169
-6.41179
-6.27522
-6.13193
-5.98191
-5.82513
-5.6616
-5.49133
-5.31435
-5.13072
-4.9405
-4.74376
-4.54062
-4.33117
-4.11555
-3.8939
-3.66639
-3.43317
-3.19444
-2.9504
-2.70126
-2.44726
-2.18862
-1.9256
-1.65846
-1.38747
-1.11291
-0.835058
-0.554215
-0.270679
0.0152462
0.303251
0.593024
0.88425
1.17661
1.4698
1.7635
2.0574
2.35119
2.64456
2.93721
3.22886
3.51921
3.80799
4.09492
4.37974
4.6622
4.94207
5.2191
5.49308
5.7638
6.03107
6.29469
6.55452
6.81037
7.06211
7.30959
7.55271
7.79134
8.02538
8.25474
8.47936
8.69916
8.91408
9.12406
9.32903
9.52891
9.7237
9.91335
10.0978
10.2771
10.4511
10.62
10.7837
10.9425
11.0965
11.2464
11.3934
11.5371
11.6885
11.8137
-6.70363
-6.70663
-6.71032
-6.71341
-6.71562
-6.71726
-6.71867
-6.72006
-6.72156
-6.72329
-6.72532
-6.7277
-6.73048
-6.7337
-6.73737
-6.74154
-6.74624
-6.75148
-6.75729
-6.76372
-6.77078
-6.7785
-6.78692
-6.79605
-6.80593
-6.81659
-6.82804
-6.84031
-6.85342
-6.86738
-6.88223
-6.89796
-6.91461
-6.93217
-6.95067
-6.97012
-6.99057
-7.01207
-7.03454
-7.05778
-7.0817
-7.10651
-7.13227
-7.1588
-7.18593
-7.2136
-7.24175
-7.27033
-7.2993
-7.32859
-7.35815
-7.38792
-7.41783
-7.44782
-7.47779
-7.50767
-7.53737
-7.56679
-7.59582
-7.62436
-7.65229
-7.67948
-7.7058
-7.73113
-7.75531
-7.7782
-7.79964
-7.81947
-7.83754
-7.85367
-7.86769
-7.87941
-7.88867
-7.89528
-7.89905
-7.8998
-7.89734
-7.89147
-7.88203
-7.86881
-7.85163
-7.8303
-7.80466
-7.77451
-7.73969
-7.70002
-7.65534
-7.60549
-7.55031
-7.48966
-7.42338
-7.35134
-7.2734
-7.18944
-7.09935
-7.003
-6.90028
-6.79112
-6.67542
-6.55313
-6.42422
-6.28865
-6.14636
-5.99734
-5.84157
-5.67906
-5.50981
-5.33386
-5.15126
-4.96206
-4.76636
-4.56424
-4.35581
-4.14121
-3.92057
-3.69405
-3.46182
-3.22406
-2.98098
-2.73279
-2.4797
-2.22197
-1.95983
-1.69354
-1.42338
-1.14962
-0.872549
-0.59245
-0.309626
-0.0243805
0.262979
0.552142
0.842794
1.13462
1.42731
1.72055
2.01403
2.30744
2.60047
2.89282
3.18421
3.47434
3.76294
4.04973
4.33445
4.61685
4.89669
5.17373
5.44775
5.71856
5.98594
6.24972
6.50972
6.76578
7.01775
7.26549
7.50888
7.74782
7.98219
8.2119
8.43689
8.65706
8.87236
9.0827
9.28801
9.48821
9.68329
9.87326
10.0581
10.2377
10.4121
10.5813
10.7455
10.9047
11.0592
11.2093
11.3563
11.4988
11.6474
11.7609
-6.69836
-6.70214
-6.70691
-6.711
-6.71402
-6.71634
-6.71832
-6.72017
-6.72207
-6.72414
-6.72647
-6.72912
-6.73214
-6.73558
-6.73947
-6.74385
-6.74874
-6.75418
-6.76019
-6.76681
-6.77406
-6.78198
-6.79059
-6.79992
-6.81
-6.82086
-6.83251
-6.84499
-6.8583
-6.87247
-6.88752
-6.90345
-6.92028
-6.93801
-6.95664
-6.97619
-6.99667
-7.01805
-7.0403
-7.06332
-7.08711
-7.11167
-7.13704
-7.16311
-7.18982
-7.21709
-7.24486
-7.2731
-7.30174
-7.33074
-7.36002
-7.38954
-7.41921
-7.44898
-7.47876
-7.50847
-7.53802
-7.56731
-7.59623
-7.62469
-7.65255
-7.67969
-7.706
-7.73132
-7.75552
-7.77845
-7.79995
-7.81987
-7.83804
-7.85429
-7.86845
-7.88034
-7.88978
-7.89658
-7.90057
-7.90155
-7.89934
-7.89374
-7.88458
-7.87166
-7.8548
-7.83381
-7.80852
-7.77874
-7.74431
-7.70505
-7.66079
-7.61138
-7.55667
-7.49649
-7.4307
-7.35917
-7.28177
-7.19836
-7.10884
-7.01307
-6.91097
-6.80245
-6.68742
-6.56581
-6.43758
-6.30268
-6.16107
-6.01272
-5.85763
-5.69579
-5.52722
-5.35195
-5.17002
-4.98151
-4.78648
-4.58504
-4.37729
-4.16335
-3.94338
-3.71752
-3.48594
-3.24883
-3.00639
-2.75882
-2.50635
-2.24922
-1.98767
-1.72197
-1.45237
-1.17915
-0.902606
-0.623016
-0.340681
-0.0559036
0.231009
0.519746
0.809996
1.10145
1.39378
1.68669
1.97987
2.273
2.56577
2.8579
3.14909
3.43905
3.72751
4.01418
4.29881
4.58114
4.86094
5.13797
5.41201
5.68285
5.9503
6.21416
6.47426
6.73044
6.98256
7.23047
7.47405
7.71319
7.94778
8.17773
8.40294
8.62336
8.83889
9.04946
9.25499
9.4554
9.65069
9.84086
10.0259
10.2057
10.3804
10.5499
10.7142
10.8736
11.0283
11.1783
11.3247
11.4655
11.6109
11.714
-6.69481
-6.69918
-6.7048
-6.70972
-6.71347
-6.71642
-6.71896
-6.72131
-6.72365
-6.72611
-6.7288
-6.73178
-6.73511
-6.73885
-6.74302
-6.74768
-6.75284
-6.75855
-6.76483
-6.77171
-6.77923
-6.7874
-6.79627
-6.80586
-6.81619
-6.82729
-6.83919
-6.85189
-6.86543
-6.87981
-6.89504
-6.91114
-6.92811
-6.94594
-6.96465
-6.98423
-7.00468
-7.02597
-7.04808
-7.07097
-7.09461
-7.119
-7.1441
-7.16989
-7.1963
-7.22328
-7.2508
-7.27879
-7.3072
-7.33599
-7.36509
-7.39444
-7.42398
-7.45362
-7.4833
-7.51293
-7.54241
-7.57166
-7.60056
-7.629
-7.65687
-7.68405
-7.71039
-7.73577
-7.76005
-7.78307
-7.80467
-7.8247
-7.843
-7.85938
-7.87369
-7.88573
-7.89534
-7.90232
-7.90648
-7.90765
-7.90564
-7.90025
-7.8913
-7.8786
-7.86197
-7.84122
-7.81617
-7.78664
-7.75247
-7.71347
-7.6695
-7.62038
-7.56596
-7.50609
-7.44062
-7.36943
-7.29237
-7.20932
-7.12017
-7.02479
-6.9231
-6.81499
-6.70039
-6.57922
-6.45142
-6.31694
-6.17575
-6.02783
-5.87315
-5.71173
-5.54357
-5.36872
-5.18721
-4.99911
-4.80451
-4.60348
-4.39615
-4.18263
-3.96308
-3.73763
-3.50647
-3.26978
-3.02774
-2.78058
-2.52851
-2.27178
-2.01062
-1.7453
-1.47608
-1.20323
-0.927043
-0.647804
-0.365809
-0.0813603
0.205235
0.493667
0.783624
1.07479
1.36687
1.65953
1.95247
2.24538
2.53796
2.8299
3.12092
3.41073
3.69905
3.98561
4.27014
4.5524
4.83214
5.10913
5.38314
5.65397
5.92142
6.1853
6.44545
6.70169
6.95389
7.20189
7.44558
7.68483
7.91955
8.14964
8.375
8.59556
8.81123
9.02195
9.22762
9.42818
9.62362
9.81393
9.99909
10.1791
10.3539
10.5235
10.688
10.8475
11.002
11.1517
11.2972
11.436
11.5786
11.6725
-6.69342
-6.69819
-6.70441
-6.70995
-6.71428
-6.71778
-6.72081
-6.72363
-6.72639
-6.72925
-6.7323
-6.73562
-6.73929
-6.74334
-6.74783
-6.75279
-6.75825
-6.76425
-6.77082
-6.77798
-6.78578
-6.79423
-6.80337
-6.81322
-6.8238
-6.83514
-6.84727
-6.86019
-6.87392
-6.88847
-6.90386
-6.92009
-6.93716
-6.95507
-6.97382
-6.99341
-7.01382
-7.03504
-7.05706
-7.07984
-7.10337
-7.12761
-7.15256
-7.17817
-7.2044
-7.23122
-7.25858
-7.28642
-7.31471
-7.34339
-7.3724
-7.40169
-7.43117
-7.46078
-7.49045
-7.52008
-7.54958
-7.57886
-7.60781
-7.63632
-7.66427
-7.69153
-7.71798
-7.74347
-7.76786
-7.791
-7.81274
-7.83291
-7.85134
-7.86787
-7.88232
-7.89451
-7.90426
-7.91139
-7.9157
-7.91702
-7.91515
-7.9099
-7.90109
-7.88854
-7.87205
-7.85144
-7.82653
-7.79715
-7.76312
-7.72427
-7.68045
-7.63148
-7.57722
-7.51752
-7.45223
-7.38122
-7.30435
-7.22151
-7.13256
-7.0374
-6.93594
-6.82806
-6.71369
-6.59275
-6.46518
-6.33092
-6.18995
-6.04224
-5.88778
-5.72657
-5.55863
-5.38398
-5.20269
-5.01481
-4.82042
-4.61962
-4.41251
-4.19923
-3.9799
-3.7547
-3.52377
-3.28731
-3.04552
-2.7986
-2.54678
-2.29029
-2.02938
-1.7643
-1.49532
-1.22272
-0.946776
-0.667777
-0.386018
-0.101803
0.184564
0.472772
0.762511
1.05347
1.34533
1.6378
1.93055
2.22328
2.51568
2.80746
3.09833
3.388
3.67619
3.96262
4.24705
4.5292
4.80885
5.08576
5.35971
5.63049
5.89791
6.16177
6.42191
6.67816
6.93037
7.1784
7.42213
7.66143
7.89621
8.12636
8.3518
8.57244
8.78819
8.99899
9.20474
9.4054
9.60094
9.79136
9.97661
10.1567
10.3316
10.5013
10.6658
10.8251
10.9794
11.1285
11.273
11.4098
11.5497
11.6357
-6.69438
-6.69936
-6.70592
-6.71186
-6.71661
-6.72053
-6.72397
-6.72718
-6.73032
-6.73352
-6.73691
-6.74055
-6.74452
-6.74888
-6.75365
-6.75889
-6.76463
-6.7709
-6.77774
-6.78517
-6.79322
-6.80192
-6.81129
-6.82137
-6.83217
-6.84372
-6.85603
-6.86912
-6.88301
-6.8977
-6.9132
-6.92952
-6.94666
-6.96462
-6.9834
-7.00299
-7.02338
-7.04457
-7.06653
-7.08924
-7.1127
-7.13686
-7.16173
-7.18725
-7.2134
-7.24014
-7.26744
-7.29523
-7.32349
-7.35216
-7.38117
-7.41047
-7.43999
-7.46965
-7.49938
-7.52909
-7.55869
-7.58808
-7.61714
-7.64577
-7.67385
-7.70125
-7.72784
-7.75348
-7.77801
-7.8013
-7.82318
-7.84349
-7.86207
-7.87873
-7.89331
-7.90562
-7.91549
-7.92272
-7.92713
-7.92854
-7.92676
-7.92159
-7.91285
-7.90036
-7.88393
-7.86337
-7.83851
-7.80917
-7.77518
-7.73638
-7.69259
-7.64367
-7.58945
-7.52979
-7.46455
-7.39359
-7.31679
-7.23401
-7.14513
-7.05006
-6.94867
-6.84087
-6.72657
-6.60569
-6.47818
-6.34399
-6.20307
-6.05541
-5.901
-5.73984
-5.57195
-5.39737
-5.21613
-5.02832
-4.834
-4.63328
-4.42625
-4.21306
-3.99383
-3.76872
-3.53791
-3.30156
-3.05989
-2.8131
-2.56141
-2.30506
-2.0443
-1.77937
-1.51055
-1.23811
-0.962332
-0.6835
-0.401911
-0.117867
0.168325
0.456359
0.745923
1.03671
1.3284
1.62069
1.91327
2.20583
2.49808
2.7897
3.08041
3.36993
3.65797
3.94426
4.22856
4.51059
4.79013
5.06693
5.34079
5.61149
5.87882
6.14262
6.4027
6.6589
6.91108
7.15909
7.4028
7.6421
7.87688
8.10705
8.3325
8.55316
8.76895
8.97978
9.18558
9.38629
9.58189
9.77236
9.95767
10.1378
10.3127
10.4824
10.6468
10.806
10.9599
11.1083
11.2516
11.3864
11.5239
11.603
-6.69765
-6.70266
-6.70931
-6.71544
-6.72045
-6.72465
-6.7284
-6.7319
-6.73533
-6.73882
-6.74247
-6.74637
-6.7506
-6.75519
-6.7602
-6.76567
-6.77163
-6.77812
-6.78517
-6.7928
-6.80105
-6.80995
-6.8195
-6.82975
-6.84072
-6.85241
-6.86486
-6.87807
-6.89206
-6.90684
-6.92242
-6.9388
-6.95599
-6.97398
-6.99278
-7.01238
-7.03277
-7.05394
-7.07588
-7.09858
-7.12202
-7.14617
-7.17102
-7.19653
-7.22268
-7.24943
-7.27675
-7.30458
-7.33289
-7.36162
-7.39072
-7.42011
-7.44974
-7.47953
-7.50939
-7.53924
-7.56899
-7.59853
-7.62775
-7.65655
-7.68479
-7.71236
-7.73911
-7.7649
-7.78959
-7.81302
-7.83504
-7.85548
-7.87417
-7.89094
-7.90561
-7.91801
-7.92794
-7.93523
-7.93968
-7.94112
-7.93935
-7.93419
-7.92544
-7.91293
-7.89646
-7.87587
-7.85096
-7.82157
-7.78753
-7.74866
-7.70481
-7.65582
-7.60154
-7.54183
-7.47653
-7.40552
-7.32866
-7.24584
-7.15693
-7.06181
-6.96037
-6.85252
-6.73815
-6.61721
-6.48963
-6.35536
-6.21437
-6.06664
-5.91216
-5.75093
-5.58298
-5.40833
-5.22705
-5.03919
-4.84484
-4.64409
-4.43705
-4.22385
-4.00462
-3.77953
-3.54874
-3.31244
-3.07081
-2.82408
-2.57246
-2.31619
-2.05551
-1.79068
-1.52197
-1.24964
-0.973985
-0.695285
-0.413834
-0.129935
0.156107
0.443985
0.73339
1.02401
1.31553
1.60765
1.90006
2.19244
2.48451
2.77596
3.0665
3.35585
3.64372
3.92986
4.21399
4.49587
4.77526
5.05192
5.32564
5.59621
5.86343
6.12712
6.38709
6.6432
6.8953
7.14323
7.38688
7.62613
7.86087
8.091
8.31642
8.53707
8.75284
8.96366
9.16947
9.37021
9.56583
9.75633
9.94165
10.1218
10.2967
10.4663
10.6306
10.7895
10.9429
11.0906
11.2326
11.3654
11.5007
11.574
-6.70299
-6.70789
-6.71444
-6.72056
-6.72566
-6.73002
-6.73393
-6.73763
-6.74125
-6.74492
-6.74876
-6.75284
-6.75723
-6.76199
-6.76715
-6.77277
-6.77888
-6.78551
-6.79269
-6.80046
-6.80883
-6.81784
-6.82751
-6.83786
-6.84892
-6.86071
-6.87323
-6.88652
-6.90057
-6.9154
-6.93103
-6.94744
-6.96466
-6.98268
-7.0015
-7.02112
-7.04152
-7.06271
-7.08468
-7.1074
-7.13087
-7.15506
-7.17996
-7.20553
-7.23175
-7.25858
-7.28599
-7.31393
-7.34236
-7.37123
-7.40046
-7.43001
-7.4598
-7.48976
-7.5198
-7.54983
-7.57976
-7.60948
-7.63889
-7.66786
-7.69627
-7.724
-7.7509
-7.77684
-7.80166
-7.82521
-7.84733
-7.86786
-7.88662
-7.90344
-7.91814
-7.93055
-7.94048
-7.94775
-7.95217
-7.95355
-7.95172
-7.94647
-7.93762
-7.925
-7.90842
-7.88769
-7.86265
-7.83312
-7.79892
-7.75991
-7.71591
-7.66676
-7.61233
-7.55247
-7.48702
-7.41587
-7.33888
-7.25593
-7.16688
-7.07162
-6.97002
-6.862
-6.74747
-6.62636
-6.49861
-6.36417
-6.22301
-6.07512
-5.92048
-5.7591
-5.591
-5.41623
-5.23482
-5.04685
-4.8524
-4.65156
-4.44445
-4.23119
-4.01192
-3.78679
-3.55599
-3.31968
-3.07807
-2.83136
-2.57978
-2.32356
-2.06295
-1.7982
-1.52958
-1.25735
-0.981813
-0.703241
-0.421933
-0.138186
0.147695
0.435405
0.724635
1.01507
1.30641
1.59834
1.89054
2.18273
2.4746
2.76584
3.05618
3.34532
3.63299
3.91892
4.20285
4.48454
4.76373
5.04021
5.31375
5.58414
5.85119
6.11472
6.37455
6.63052
6.88248
7.1303
7.37384
7.61299
7.84764
8.07769
8.30305
8.52364
8.73936
8.95015
9.15594
9.35666
9.55228
9.74277
9.92808
10.1082
10.283
10.4525
10.6166
10.7752
10.9281
11.0749
11.2156
11.3465
11.4798
11.5482
-6.71011
-6.71477
-6.72105
-6.727
-6.73205
-6.73641
-6.74038
-6.74414
-6.74784
-6.7516
-6.75551
-6.75967
-6.76413
-6.76894
-6.77417
-6.77984
-6.786
-6.79268
-6.79991
-6.80772
-6.81613
-6.82518
-6.83489
-6.84528
-6.85637
-6.86818
-6.88074
-6.89404
-6.90812
-6.92297
-6.93862
-6.95506
-6.9723
-6.99034
-7.00919
-7.02884
-7.04929
-7.07053
-7.09255
-7.11534
-7.13888
-7.16316
-7.18816
-7.21384
-7.24018
-7.26715
-7.29471
-7.32281
-7.3514
-7.38044
-7.40985
-7.43959
-7.46957
-7.49971
-7.52994
-7.56015
-7.59026
-7.62016
-7.64972
-7.67885
-7.7074
-7.73525
-7.76226
-7.78829
-7.81318
-7.83678
-7.85893
-7.87947
-7.89822
-7.915
-7.92965
-7.94199
-7.95182
-7.95898
-7.96326
-7.9645
-7.96249
-7.95706
-7.94803
-7.9352
-7.91841
-7.89746
-7.8722
-7.84244
-7.80801
-7.76877
-7.72454
-7.67517
-7.62052
-7.56044
-7.49478
-7.42343
-7.34624
-7.26309
-7.17382
-7.07832
-6.97648
-6.86821
-6.75344
-6.63208
-6.50409
-6.36943
-6.22805
-6.07993
-5.92508
-5.76351
-5.59523
-5.42028
-5.23872
-5.05061
-4.85603
-4.65509
-4.44788
-4.23454
-4.01521
-3.79005
-3.55922
-3.3229
-3.08131
-2.83463
-2.58311
-2.32696
-2.06643
-1.80178
-1.53327
-1.26117
-0.985775
-0.707359
-0.426222
-0.142658
0.143031
0.430538
0.719555
1.00977
1.30088
1.59257
1.88454
2.17648
2.46809
2.75908
3.04916
3.33804
3.62545
3.91113
4.19481
4.47624
4.75519
5.03143
5.30473
5.5749
5.84173
6.10505
6.36468
6.62046
6.87225
7.1199
7.36328
7.60229
7.83681
8.06675
8.292
8.5125
8.72814
8.93887
9.1446
9.34529
9.54089
9.73134
9.91662
10.0967
10.2714
10.4407
10.6046
10.7628
10.9151
11.061
11.2005
11.3295
11.461
11.5252
-6.71864
-6.72299
-6.72887
-6.73452
-6.73938
-6.74362
-6.74751
-6.75121
-6.75486
-6.75857
-6.76244
-6.76655
-6.77096
-6.77572
-6.7809
-6.78652
-6.79264
-6.79927
-6.80645
-6.81422
-6.82259
-6.83161
-6.84128
-6.85164
-6.86271
-6.8745
-6.88704
-6.90033
-6.9144
-6.92925
-6.9449
-6.96135
-6.97861
-6.99668
-7.01557
-7.03526
-7.05577
-7.07708
-7.09919
-7.12207
-7.14573
-7.17013
-7.19526
-7.22108
-7.24758
-7.27471
-7.30243
-7.3307
-7.35947
-7.38869
-7.41828
-7.44819
-7.47834
-7.50864
-7.53902
-7.56938
-7.59961
-7.62962
-7.65928
-7.68848
-7.71709
-7.74498
-7.772
-7.79802
-7.82288
-7.84642
-7.86849
-7.88892
-7.90754
-7.92418
-7.93866
-7.9508
-7.96043
-7.96735
-7.97139
-7.97237
-7.97009
-7.96438
-7.95506
-7.94194
-7.92485
-7.90361
-7.87804
-7.84799
-7.81327
-7.77374
-7.72923
-7.67959
-7.62467
-7.56433
-7.49843
-7.42684
-7.34941
-7.26598
-7.17642
-7.08062
-6.97848
-6.86993
-6.75486
-6.63323
-6.50497
-6.37004
-6.22842
-6.08007
-5.92501
-5.76324
-5.59477
-5.41966
-5.23795
-5.04971
-4.85502
-4.65399
-4.44671
-4.23332
-4.01396
-3.78879
-3.55797
-3.32169
-3.08014
-2.83354
-2.58211
-2.32607
-2.06567
-1.80117
-1.53282
-1.26091
-0.985706
-0.707503
-0.426594
-0.143272
0.142161
0.429402
0.718142
1.00807
1.29889
1.59027
1.88193
2.17355
2.46485
2.75552
3.04527
3.33383
3.62092
3.90627
4.18963
4.47075
4.74939
5.02533
5.29834
5.56822
5.83478
6.09783
6.35721
6.61275
6.8643
7.11174
7.35492
7.59375
7.8281
8.05788
8.283
8.50337
8.71891
8.92954
9.13521
9.33584
9.53138
9.72179
9.90701
10.087
10.2616
10.4307
10.5943
10.7521
10.9038
11.0488
11.187
11.3144
11.4439
11.5049
-6.72826
-6.73225
-6.73766
-6.7429
-6.74744
-6.75143
-6.75509
-6.75858
-6.76204
-6.76556
-6.76925
-6.77318
-6.77741
-6.78201
-6.78702
-6.79249
-6.79845
-6.80494
-6.81199
-6.81964
-6.8279
-6.83681
-6.84639
-6.85667
-6.86766
-6.87939
-6.89187
-6.90512
-6.91915
-6.93398
-6.94962
-6.96607
-6.98335
-7.00145
-7.02038
-7.04013
-7.06071
-7.0821
-7.1043
-7.12729
-7.15106
-7.17558
-7.20084
-7.2268
-7.25344
-7.28071
-7.30857
-7.33698
-7.36588
-7.39522
-7.42493
-7.45494
-7.48517
-7.51555
-7.54598
-7.57637
-7.60661
-7.63661
-7.66624
-7.69538
-7.7239
-7.75168
-7.77857
-7.80442
-7.8291
-7.85244
-7.87428
-7.89446
-7.91281
-7.92915
-7.94333
-7.95514
-7.96443
-7.97101
-7.97469
-7.9753
-7.97266
-7.96658
-7.95688
-7.9434
-7.92594
-7.90435
-7.87844
-7.84805
-7.81301
-7.77316
-7.72836
-7.67843
-7.62325
-7.56265
-7.49651
-7.42466
-7.34692
-7.26317
-7.17329
-7.07717
-6.97473
-6.86588
-6.75053
-6.62863
-6.50011
-6.36494
-6.22309
-6.07454
-5.91929
-5.75735
-5.58874
-5.4135
-5.23169
-5.04337
-4.84862
-4.64755
-4.44026
-4.22688
-4.00755
-3.78243
-3.55169
-3.31552
-3.0741
-2.82765
-2.57638
-2.32053
-2.06034
-1.79607
-1.52798
-1.25633
-0.981411
-0.703508
-0.422913
-0.13992
0.145171
0.432056
0.720431
1.00999
1.30042
1.59141
1.88267
2.1739
2.46479
2.75505
3.0444
3.33255
3.61924
3.9042
4.18716
4.46789
4.74615
5.02171
5.29436
5.56389
5.83011
6.09284
6.3519
6.60715
6.85842
7.10559
7.34854
7.58713
7.82128
8.05087
8.27582
8.49604
8.71144
8.92197
9.12754
9.3281
9.52358
9.71392
9.89907
10.0789
10.2534
10.4224
10.5857
10.743
10.894
11.0381
11.1751
11.3008
11.4286
11.4871
-6.73873
-6.74234
-6.74724
-6.75198
-6.75608
-6.75966
-6.76294
-6.76606
-6.76915
-6.77232
-6.77566
-6.77927
-6.78319
-6.78749
-6.79222
-6.79742
-6.80314
-6.8094
-6.81624
-6.82369
-6.83178
-6.84052
-6.84996
-6.8601
-6.87098
-6.8826
-6.895
-6.90817
-6.92215
-6.93694
-6.95254
-6.96898
-6.98625
-7.00437
-7.02332
-7.04311
-7.06373
-7.08517
-7.10743
-7.13049
-7.15433
-7.17893
-7.20425
-7.23028
-7.25697
-7.28429
-7.31219
-7.34061
-7.36952
-7.39884
-7.42851
-7.45846
-7.48861
-7.51888
-7.54918
-7.57941
-7.60948
-7.63927
-7.66866
-7.69755
-7.7258
-7.75328
-7.77985
-7.80536
-7.82968
-7.85264
-7.87409
-7.89387
-7.9118
-7.92772
-7.94145
-7.95283
-7.96167
-7.9678
-7.97104
-7.97121
-7.96813
-7.96163
-7.95152
-7.93763
-7.91979
-7.89782
-7.87156
-7.84084
-7.80549
-7.76535
-7.72027
-7.6701
-7.61469
-7.55387
-7.48746
-7.4153
-7.33724
-7.25317
-7.16298
-7.06658
-6.96387
-6.85475
-6.73916
-6.61703
-6.48832
-6.35296
-6.21095
-6.06227
-5.90691
-5.74488
-5.5762
-5.40093
-5.2191
-5.03079
-4.83607
-4.63506
-4.42786
-4.21459
-3.9954
-3.77044
-3.53989
-3.30392
-3.06274
-2.81654
-2.56556
-2.31001
-2.05015
-1.78622
-1.51848
-1.24722
-0.972698
-0.695208
-0.415041
-0.13249
0.152146
0.438567
0.726466
1.01554
1.30548
1.59598
1.88674
2.17746
2.46784
2.7576
3.04645
3.3341
3.6203
3.90476
4.18725
4.46751
4.74531
5.02042
5.29263
5.56174
5.82755
6.08989
6.34858
6.60347
6.85442
7.10128
7.34393
7.58226
7.81616
8.04553
8.27028
8.49032
8.70558
8.91598
9.12144
9.32191
9.51732
9.70759
9.89266
10.0724
10.2468
10.4155
10.5785
10.7354
10.8858
11.0289
11.1648
11.289
11.415
11.4715
-6.75031
-6.75357
-6.75793
-6.76209
-6.7656
-6.76858
-6.77124
-6.77376
-6.77626
-6.77886
-6.78166
-6.78475
-6.7882
-6.79206
-6.79638
-6.8012
-6.80657
-6.81251
-6.81905
-6.82623
-6.83407
-6.84259
-6.85181
-6.86177
-6.87247
-6.88394
-6.89619
-6.90924
-6.9231
-6.93778
-6.9533
-6.96966
-6.98686
-7.00491
-7.0238
-7.04353
-7.06409
-7.08548
-7.10767
-7.13066
-7.15442
-7.17892
-7.20414
-7.23005
-7.25659
-7.28375
-7.31146
-7.33967
-7.36834
-7.3974
-7.42679
-7.45642
-7.48624
-7.51615
-7.54606
-7.57588
-7.60552
-7.63486
-7.66379
-7.69219
-7.71994
-7.74691
-7.77295
-7.79794
-7.82171
-7.84413
-7.86503
-7.88425
-7.90163
-7.917
-7.9302
-7.94104
-7.94936
-7.95498
-7.95772
-7.9574
-7.95386
-7.94692
-7.93639
-7.92211
-7.9039
-7.8816
-7.85503
-7.82402
-7.78843
-7.74808
-7.70282
-7.65248
-7.59688
-7.53582
-7.46914
-7.39668
-7.31835
-7.23403
-7.14361
-7.047
-6.94409
-6.83481
-6.71908
-6.59683
-6.46801
-6.33259
-6.19053
-6.04183
-5.88648
-5.72448
-5.55587
-5.38069
-5.19898
-5.01081
-4.81628
-4.61547
-4.40849
-4.19548
-3.97657
-3.75193
-3.52171
-3.28611
-3.04531
-2.79953
-2.54898
-2.29389
-2.0345
-1.77107
-1.50385
-1.23312
-0.959146
-0.682222
-0.402633