/*--------------------------------*- C++ -*----------------------------------*\
  =========                 |
  \\      /  F ield         | OpenFOAM: The Open Source CFD Toolbox
   \\    /   O peration     | Website:  https://openfoam.org
    \\  /    A nd           | Version:  12
     \\/     M anipulation  |
\*---------------------------------------------------------------------------*/
FoamFile
{
    format      ascii;
    class       surfaceScalarField;
    location    "0.18";
    object      phi;
}
// * * * * * * * * * * * * * * * * * * * * * * * * * * * * * * * * * * * * * //

dimensions      [0 3 -1 0 0 0 0];

internalField   nonuniform List<scalar> 
24170
(
3.1336e-06
5.48072e-08
3.04827e-06
8.53288e-08
2.97314e-06
7.51275e-08
2.9043e-06
6.88412e-08
2.83947e-06
6.4836e-08
2.78224e-06
5.72299e-08
2.73333e-06
4.89099e-08
2.69179e-06
4.15366e-08
2.65633e-06
3.5454e-08
2.6258e-06
3.05398e-08
2.5992e-06
2.65947e-08
2.57575e-06
2.34551e-08
2.55474e-06
2.10029e-08
2.53552e-06
1.92261e-08
2.51742e-06
1.80953e-08
2.49867e-06
1.87556e-08
2.47798e-06
2.06864e-08
3.80916e-08
2.43989e-06
3.45361e-06
1.84453e-08
3.45616e-06
8.27762e-08
3.44962e-06
8.16736e-08
3.43799e-06
8.04648e-08
3.4235e-06
7.93277e-08
3.40596e-06
7.47752e-08
3.38632e-06
6.85452e-08
3.36541e-06
6.24476e-08
3.34399e-06
5.687e-08
3.32268e-06
5.1855e-08
3.30186e-06
4.74106e-08
3.28177e-06
4.35473e-08
3.26252e-06
4.02587e-08
3.24408e-06
3.76569e-08
3.22652e-06
3.56561e-08
3.20967e-06
3.56073e-08
3.19443e-06
3.59278e-08
4.62781e-08
3.18624e-06
3.66535e-06
1.5609e-08
3.67825e-06
6.98781e-08
3.68531e-06
7.46144e-08
3.68959e-06
7.61855e-08
3.69126e-06
7.76576e-08
3.69012e-06
7.59118e-08
3.68667e-06
7.20027e-08
3.68146e-06
6.76504e-08
3.67494e-06
6.3392e-08
3.66745e-06
5.93468e-08
3.65927e-06
5.55916e-08
3.65061e-06
5.22056e-08
3.64162e-06
4.92447e-08
3.63242e-06
4.68606e-08
3.623e-06
4.50796e-08
3.61379e-06
4.48167e-08
3.60445e-06
4.52647e-08
4.99944e-08
3.60073e-06
3.92465e-06
1.63489e-08
3.9358e-06
5.87276e-08
3.94254e-06
6.78725e-08
3.94801e-06
7.07123e-08
3.95242e-06
7.32496e-08
3.95534e-06
7.29965e-08
3.95688e-06
7.04559e-08
3.95736e-06
6.71754e-08
3.95695e-06
6.38006e-08
3.95581e-06
6.04911e-08
3.95406e-06
5.73411e-08
3.95181e-06
5.44524e-08
3.94915e-06
5.19089e-08
3.94615e-06
4.98562e-08
3.94286e-06
4.83741e-08
3.9397e-06
4.79724e-08
3.93669e-06
4.82776e-08
5.0257e-08
3.93642e-06
4.20777e-06
1.5709e-08
4.216e-06
5.0497e-08
4.22166e-06
6.22106e-08
4.22659e-06
6.5783e-08
4.23128e-06
6.85543e-08
4.23524e-06
6.90444e-08
4.23833e-06
6.73662e-08
4.24069e-06
6.48128e-08
4.24243e-06
6.2055e-08
4.24365e-06
5.92774e-08
4.24441e-06
5.65816e-08
4.24478e-06
5.40776e-08
4.24483e-06
5.18607e-08
4.24463e-06
5.00548e-08
4.24426e-06
4.87405e-08
4.24407e-06
4.81666e-08
4.24424e-06
4.81119e-08
4.86202e-08
4.24587e-06
4.51044e-06
1.43568e-08
4.51686e-06
4.40757e-08
4.52217e-06
5.69013e-08
4.52683e-06
6.11264e-08
4.53144e-06
6.39449e-08
4.53562e-06
6.48581e-08
4.5392e-06
6.37881e-08
4.54224e-06
6.17759e-08
4.54481e-06
5.94787e-08
4.54699e-06
5.71043e-08
4.54881e-06
5.47602e-08
4.55033e-06
5.25569e-08
4.5516e-06
5.0589e-08
4.5527e-06
4.8954e-08
4.55373e-06
4.77097e-08
4.55495e-06
4.69514e-08
4.55656e-06
4.65001e-08
4.61197e-08
4.55906e-06
4.83412e-06
1.29563e-08
4.83958e-06
3.86179e-08
4.84483e-06
5.16516e-08
4.84942e-06
5.65391e-08
4.85392e-06
5.9439e-08
4.85814e-06
6.06343e-08
4.8619e-06
6.00289e-08
4.86523e-06
5.84485e-08
4.86819e-06
5.65173e-08
4.87083e-06
5.4465e-08
4.87319e-06
5.24044e-08
4.8753e-06
5.04413e-08
4.87723e-06
4.86633e-08
4.87904e-06
4.71422e-08
4.88084e-06
4.59091e-08
4.88282e-06
4.49739e-08
4.88514e-06
4.41756e-08
4.32477e-08
4.88802e-06
5.1809e-06
1.1637e-08
5.1857e-06
3.38144e-08
5.19084e-06
4.65194e-08
5.19541e-06
5.19632e-08
5.19987e-06
5.49794e-08
5.20413e-06
5.63793e-08
5.208e-06
5.61516e-08
5.21151e-06
5.4941e-08
5.21471e-06
5.33222e-08
5.21763e-06
5.15425e-08
5.22031e-06
4.972e-08
5.2228e-06
4.79541e-08
5.22514e-06
4.63226e-08
5.22741e-06
4.48764e-08
5.22969e-06
4.36246e-08
5.23213e-06
4.25359e-08
5.23484e-06
4.147e-08
4.02113e-08
5.23787e-06
5.5526e-06
1.03743e-08
5.55685e-06
2.9566e-08
5.56176e-06
4.16042e-08
5.56633e-06
4.73992e-08
5.57078e-06
5.05269e-08
5.57508e-06
5.20766e-08
5.57907e-06
5.21613e-08
5.58274e-06
5.12791e-08
5.58612e-06
4.99405e-08
5.58926e-06
4.84022e-08
5.59219e-06
4.67878e-08
5.59495e-06
4.51897e-08
5.5976e-06
4.36756e-08
5.6002e-06
4.22817e-08
5.60282e-06
4.10037e-08
5.60556e-06
3.97959e-08
5.60848e-06
3.85444e-08
3.70991e-08
5.61159e-06
5.95099e-06
9.1649e-09
5.95476e-06
2.57954e-08
5.95941e-06
3.6951e-08
5.96394e-06
4.2868e-08
5.96839e-06
4.60738e-08
5.97274e-06
4.77277e-08
5.97684e-06
4.80628e-08
5.98065e-06
4.74691e-08
5.98421e-06
4.63847e-08
5.98754e-06
4.50651e-08
5.99069e-06
4.36376e-08
5.9937e-06
4.21878e-08
5.9966e-06
4.07746e-08
5.99945e-06
3.94249e-08
6.00233e-06
3.81289e-08
6.00528e-06
3.68427e-08
6.00835e-06
3.54802e-08
3.39491e-08
6.0115e-06
6.37795e-06
8.02238e-09
6.38132e-06
2.24251e-08
6.38571e-06
3.25685e-08
6.39018e-06
3.83944e-08
6.39463e-06
4.1626e-08
6.39901e-06
4.33422e-08
6.40321e-06
4.3866e-08
6.40716e-06
4.35166e-08
6.41089e-06
4.26599e-08
6.41441e-06
4.15387e-08
6.41777e-06
4.02812e-08
6.42099e-06
3.89667e-08
6.42412e-06
3.7647e-08
6.4272e-06
3.6344e-08
6.43028e-06
3.50489e-08
6.4334e-06
3.37267e-08
6.43656e-06
3.23179e-08
3.07737e-08
6.43973e-06
5.74175e-06
7.10825e-09
5.74433e-06
1.98418e-08
5.74783e-06
2.90711e-08
5.75155e-06
3.4672e-08
5.7553e-06
3.78744e-08
5.75903e-06
3.96149e-08
5.76264e-06
4.02522e-08
5.76609e-06
4.00715e-08
5.76936e-06
3.93852e-08
5.77249e-06
3.84169e-08
5.77548e-06
3.72917e-08
5.77836e-06
3.60847e-08
5.78116e-06
3.4843e-08
5.78392e-06
3.35869e-08
5.78666e-06
3.2311e-08
5.78939e-06
3.09902e-08
5.79213e-06
2.95836e-08
2.80709e-08
5.79483e-06
6.99913e-06
6.13137e-09
7.00186e-06
1.71097e-08
7.00565e-06
2.52868e-08
7.00981e-06
3.05097e-08
7.01409e-06
3.36001e-08
7.01838e-06
3.53226e-08
7.02259e-06
3.60432e-08
7.02664e-06
3.6015e-08
7.03053e-06
3.54961e-08
7.03426e-06
3.46846e-08
7.03786e-06
3.36991e-08
7.04133e-06
3.26098e-08
7.04472e-06
3.14597e-08
7.04803e-06
3.02689e-08
7.05131e-06
2.90373e-08
7.05455e-06
2.77514e-08
7.05774e-06
2.63877e-08
2.49474e-08
7.06087e-06
8.53188e-06
5.10093e-09
8.53473e-06
1.4255e-08
8.53878e-06
2.12423e-08
8.54337e-06
2.59137e-08
8.54819e-06
2.87799e-08
8.55309e-06
3.04214e-08
8.55796e-06
3.11777e-08
8.5627e-06
3.12703e-08
8.5673e-06
3.0905e-08
8.57173e-06
3.02484e-08
8.57602e-06
2.94079e-08
8.58018e-06
2.8448e-08
8.58424e-06
2.74079e-08
8.5882e-06
2.63086e-08
8.59208e-06
2.51561e-08
8.59588e-06
2.39478e-08
8.59959e-06
2.26742e-08
2.13513e-08
8.60319e-06
1.04003e-05
4.02743e-09
1.04033e-05
1.12952e-08
1.04075e-05
1.69559e-08
1.04126e-05
2.08896e-08
1.0418e-05
2.33916e-08
1.04235e-05
2.48651e-08
1.04291e-05
2.55917e-08
1.04346e-05
2.57572e-08
1.044e-05
2.55193e-08
1.04452e-05
2.5009e-08
1.04503e-05
2.4317e-08
1.04553e-05
2.35004e-08
1.04601e-05
2.25946e-08
1.04648e-05
2.1621e-08
1.04693e-05
2.05907e-08
1.04738e-05
1.95093e-08
1.04781e-05
1.83774e-08
1.72186e-08
1.04822e-05
1.26779e-05
2.9164e-09
1.2681e-05
8.22178e-09
1.26855e-05
1.24189e-08
1.2691e-05
1.54255e-08
1.2697e-05
1.73999e-08
1.27032e-05
1.85929e-08
1.27096e-05
1.92076e-08
1.2716e-05
1.93848e-08
1.27223e-05
1.92371e-08
1.27284e-05
1.88584e-08
1.27344e-05
1.83179e-08
1.27403e-05
1.76618e-08
1.27459e-05
1.69202e-08
1.27514e-05
1.61131e-08
1.27568e-05
1.5254e-08
1.27619e-05
1.4353e-08
1.27669e-05
1.34158e-08
1.24683e-08
1.27717e-05
1.54543e-05
1.75662e-09
1.54576e-05
4.98342e-09
1.54624e-05
7.56348e-09
1.54684e-05
9.45078e-09
1.54751e-05
1.072e-08
1.54822e-05
1.15011e-08
1.54895e-05
1.19095e-08
1.54968e-05
1.20305e-08
1.55041e-05
1.19313e-08
1.55113e-05
1.16682e-08
1.55184e-05
1.12847e-08
1.55252e-05
1.08113e-08
1.55319e-05
1.02696e-08
1.55383e-05
9.67524e-09
1.55445e-05
9.04021e-09
1.55505e-05
8.3748e-09
1.55562e-05
7.68569e-09
6.9969e-09
1.55617e-05
1.88389e-05
5.06468e-10
1.88424e-05
1.4486e-09
1.88478e-05
2.20281e-09
1.88545e-05
2.75901e-09
1.88621e-05
3.1392e-09
1.88702e-05
3.37295e-09
1.88786e-05
3.48286e-09
1.88872e-05
3.48765e-09
1.88957e-05
3.40553e-09
1.89041e-05
3.25278e-09
1.89123e-05
3.04238e-09
1.89204e-05
2.78455e-09
1.89281e-05
2.48773e-09
1.89357e-05
2.15931e-09
1.89429e-05
1.8059e-09
1.89498e-05
1.43421e-09
1.89565e-05
1.04866e-09
6.68289e-10
1.89628e-05
2.29648e-05
-9.4127e-10
2.29689e-05
-2.68471e-09
2.29752e-05
-4.10102e-09
2.29831e-05
-5.14702e-09
2.29921e-05
-5.83929e-09
2.30017e-05
-6.2644e-09
2.30117e-05
-6.5156e-09
2.30219e-05
-6.65156e-09
2.3032e-05
-6.70905e-09
2.3042e-05
-6.71931e-09
2.30517e-05
-6.70757e-09
2.30612e-05
-6.68996e-09
2.30704e-05
-6.67525e-09
2.30792e-05
-6.66803e-09
2.30877e-05
-6.67031e-09
2.30958e-05
-6.68181e-09
2.31035e-05
-6.70237e-09
-6.71981e-09
2.31109e-05
1.68119e-05
-2.08713e-09
1.68151e-05
-5.92063e-09
1.682e-05
-9.031e-09
1.68261e-05
-1.12737e-08
1.6833e-05
-1.26974e-08
1.68403e-05
-1.35362e-08
1.68478e-05
-1.39939e-08
1.68553e-05
-1.41787e-08
1.68627e-05
-1.41657e-08
1.687e-05
-1.40253e-08
1.68771e-05
-1.38124e-08
1.6884e-05
-1.35614e-08
1.68906e-05
-1.32929e-08
1.6897e-05
-1.30199e-08
1.69031e-05
-1.27509e-08
1.69089e-05
-1.24895e-08
1.69144e-05
-1.22385e-08
-1.19896e-08
1.69197e-05
1.46357e-05
-3.19646e-09
1.46388e-05
-9.08124e-09
1.46437e-05
-1.38571e-08
1.46495e-05
-1.71583e-08
1.4656e-05
-1.91309e-08
1.46627e-05
-2.02495e-08
1.46695e-05
-2.08164e-08
1.46763e-05
-2.09658e-08
1.4683e-05
-2.08174e-08
1.46894e-05
-2.04876e-08
1.46957e-05
-2.00556e-08
1.47017e-05
-1.95667e-08
1.47074e-05
-1.90497e-08
1.47129e-05
-1.85248e-08
1.47182e-05
-1.80047e-08
1.47232e-05
-1.74962e-08
1.4728e-05
-1.70032e-08
-1.65203e-08
1.47325e-05
1.27412e-05
-4.24519e-09
1.27444e-05
-1.2293e-08
1.27494e-05
-1.88165e-08
1.27551e-05
-2.29547e-08
1.27613e-05
-2.52474e-08
1.27676e-05
-2.65394e-08
1.27739e-05
-2.71348e-08
1.27801e-05
-2.71606e-08
1.27861e-05
-2.68083e-08
1.27918e-05
-2.62492e-08
1.27973e-05
-2.55784e-08
1.28026e-05
-2.48453e-08
1.28077e-05
-2.40844e-08
1.28125e-05
-2.33202e-08
1.2817e-05
-2.25678e-08
1.28214e-05
-2.18347e-08
1.28255e-05
-2.11248e-08
-2.04342e-08
1.28294e-05
1.10918e-05
-5.12281e-09
1.10951e-05
-1.56159e-08
1.11004e-05
-2.41132e-08
1.11062e-05
-2.87378e-08
1.11121e-05
-3.10901e-08
1.1118e-05
-3.24598e-08
1.11238e-05
-3.2995e-08
1.11295e-05
-3.28148e-08
1.11349e-05
-3.22108e-08
1.114e-05
-3.13995e-08
1.11449e-05
-3.04781e-08
1.11496e-05
-2.94977e-08
1.1154e-05
-2.84981e-08
1.11582e-05
-2.75068e-08
1.11622e-05
-2.65388e-08
1.11659e-05
-2.56008e-08
1.11695e-05
-2.4696e-08
-2.3821e-08
1.11729e-05
9.65583e-06
-5.73712e-09
9.65935e-06
-1.91406e-08
9.66496e-06
-2.9715e-08
9.67064e-06
-3.44217e-08
9.67628e-06
-3.67296e-08
9.68191e-06
-3.80958e-08
9.68735e-06
-3.84293e-08
9.69248e-06
-3.79496e-08
9.69734e-06
-3.70641e-08
9.70193e-06
-3.59952e-08
9.70628e-06
-3.48228e-08
9.71038e-06
-3.35982e-08
9.71425e-06
-3.23664e-08
9.7179e-06
-3.11566e-08
9.72134e-06
-2.9983e-08
9.72459e-06
-2.88516e-08
9.72766e-06
-2.77636e-08
-2.67142e-08
9.73055e-06
8.40543e-06
-5.81731e-09
8.40981e-06
-2.35154e-08
8.41531e-06
-3.52182e-08
8.4205e-06
-3.96116e-08
8.42593e-06
-4.21592e-08
8.4314e-06
-4.35663e-08
8.43655e-06
-4.35786e-08
8.44131e-06
-4.27077e-08
8.44573e-06
-4.14898e-08
8.44986e-06
-4.01248e-08
8.45371e-06
-3.86701e-08
8.45729e-06
-3.71777e-08
8.46062e-06
-3.56955e-08
8.46371e-06
-3.42523e-08
8.46659e-06
-3.28619e-08
8.46927e-06
-3.15301e-08
8.47177e-06
-3.02577e-08
-2.90409e-08
8.47409e-06
7.31506e-06
-3.59026e-09
7.32194e-06
-3.04002e-08
7.32739e-06
-4.06676e-08
7.33216e-06
-4.43787e-08
7.33747e-06
-4.74697e-08
7.34284e-06
-4.89386e-08
7.3478e-06
-4.85381e-08
7.35228e-06
-4.71862e-08
7.35632e-06
-4.553e-08
7.35994e-06
-4.37481e-08
7.36317e-06
-4.18995e-08
7.36604e-06
-4.00475e-08
7.36859e-06
-3.82415e-08
7.37084e-06
-3.65076e-08
7.37284e-06
-3.48576e-08
7.3746e-06
-3.32959e-08
7.37617e-06
-3.18197e-08
-3.04227e-08
7.37755e-06
6.36222e-06
4.25521e-09
6.37294e-06
-4.11244e-08
6.38007e-06
-4.77931e-08
6.38625e-06
-5.05571e-08
6.39222e-06
-5.34364e-08
6.3975e-06
-5.42229e-08
6.40185e-06
-5.28929e-08
6.40543e-06
-5.07583e-08
6.40833e-06
-4.8433e-08
6.41061e-06
-4.60293e-08
6.41233e-06
-4.36149e-08
6.41355e-06
-4.12674e-08
6.41434e-06
-3.90353e-08
6.41477e-06
-3.69384e-08
6.4149e-06
-3.49831e-08
6.41477e-06
-3.31707e-08
6.41444e-06
-3.14929e-08
-2.99292e-08
6.41395e-06
5.53608e-06
1.364e-08
5.54775e-06
-5.27976e-08
5.55744e-06
-5.74783e-08
5.56601e-06
-5.91243e-08
5.57277e-06
-6.02008e-08
5.57719e-06
-5.86404e-08
5.57933e-06
-5.50354e-08
5.57976e-06
-5.11879e-08
5.5789e-06
-4.75724e-08
5.57703e-06
-4.41605e-08
5.57437e-06
-4.09596e-08
5.57111e-06
-3.80074e-08
5.5674e-06
-3.53175e-08
5.56334e-06
-3.28815e-08
5.55904e-06
-3.06851e-08
5.5546e-06
-2.87251e-08
5.5501e-06
-2.69926e-08
-2.54266e-08
5.54559e-06
4.85751e-06
-1.62605e-08
4.86091e-06
-5.61987e-08
4.8615e-06
-5.80703e-08
4.85883e-06
-5.64553e-08
4.85482e-06
-5.61922e-08
4.84813e-06
-5.1943e-08
4.83887e-06
-4.57795e-08
4.82762e-06
-3.99338e-08
4.815e-06
-3.49596e-08
4.80162e-06
-3.07798e-08
4.78792e-06
-2.72585e-08
4.77421e-06
-2.42924e-08
4.76068e-06
-2.17909e-08
4.74747e-06
-1.96747e-08
4.73467e-06
-1.78809e-08
4.72234e-06
-1.63996e-08
4.71061e-06
-1.52573e-08
-1.4947e-08
4.70013e-06
4.18642e-06
4.13022e-06
4.07215e-06
4.01569e-06
3.9595e-06
3.90756e-06
3.86178e-06
3.82184e-06
3.78688e-06
3.7561e-06
3.72885e-06
3.70455e-06
3.68276e-06
3.66309e-06
3.64521e-06
3.62881e-06
3.61355e-06
3.5986e-06
1.09387e-08
-1.09387e-08
2.18206e-08
-1.08819e-08
2.82644e-08
-6.4439e-09
2.94162e-08
-1.15172e-09
2.56329e-08
3.78327e-09
1.7804e-08
7.82894e-09
6.90838e-09
1.08956e-08
-6.22069e-09
1.31291e-08
-2.09902e-08
1.47696e-08
-3.70177e-08
1.60275e-08
-5.40676e-08
1.70499e-08
-7.20016e-08
1.7934e-08
-9.0739e-08
1.87374e-08
-1.10231e-07
1.9492e-08
-1.30445e-07
2.02141e-08
-1.51356e-07
2.09113e-08
-1.72943e-07
2.15866e-08
-1.95184e-07
2.22409e-08
-2.18058e-07
2.28738e-08
-2.41543e-07
2.34849e-08
-2.65616e-07
2.40732e-08
-2.90253e-07
2.46372e-08
-3.15427e-07
2.5174e-08
-3.41107e-07
2.56795e-08
-3.67255e-07
2.61489e-08
-3.93836e-07
2.65801e-08
-4.20815e-07
2.69798e-08
-4.48189e-07
2.73738e-08
-4.76e-07
2.78109e-08
-5.0434e-07
2.83402e-08
-5.33285e-07
2.89449e-08
-5.62886e-07
2.96009e-08
-5.93448e-07
3.05621e-08
-6.25002e-07
3.15543e-08
-6.56355e-07
3.13531e-08
-6.88157e-07
3.18014e-08
-7.23557e-07
3.54005e-08
-7.60288e-07
3.67308e-08
-7.95385e-07
3.50971e-08
-8.33408e-07
3.80227e-08
-8.76546e-07
4.31383e-08
-9.21184e-07
4.46376e-08
-9.60631e-07
3.94475e-08
-9.97612e-07
3.69807e-08
-1.03688e-06
3.92704e-08
-1.07805e-06
4.11724e-08
-1.12021e-06
4.21538e-08
-1.163e-06
4.27935e-08
-1.20619e-06
4.31868e-08
-1.24961e-06
4.34172e-08
-1.29314e-06
4.35358e-08
-1.33672e-06
4.3574e-08
-1.38027e-06
4.35512e-08
-1.42375e-06
4.34797e-08
-1.46711e-06
4.33668e-08
-1.51033e-06
4.32171e-08
-1.55336e-06
4.30332e-08
-1.59618e-06
4.28163e-08
-1.63875e-06
4.25667e-08
-1.68103e-06
4.22843e-08
-1.723e-06
4.19684e-08
-1.76462e-06
4.16183e-08
-1.80585e-06
4.12331e-08
-1.84666e-06
4.08116e-08
-1.88702e-06
4.0353e-08
-1.92687e-06
3.98564e-08
-1.96619e-06
3.93209e-08
-2.00494e-06
3.87457e-08
-2.04307e-06
3.81303e-08
-2.08054e-06
3.74742e-08
-2.11732e-06
3.6777e-08
-2.15336e-06
3.60387e-08
-2.18862e-06
3.5259e-08
-2.22306e-06
3.44382e-08
-2.25663e-06
3.35765e-08
-2.28931e-06
3.26743e-08
-2.32104e-06
3.17321e-08
-2.35179e-06
3.07504e-08
-2.38152e-06
2.97299e-08
-2.41019e-06
2.86714e-08
-2.43777e-06
2.75756e-08
-2.46421e-06
2.64434e-08
-2.48949e-06
2.52756e-08
-2.51356e-06
2.40729e-08
-2.53639e-06
2.28359e-08
-2.55796e-06
2.15651e-08
-2.57822e-06
2.02609e-08
-2.59714e-06
1.8923e-08
-2.61469e-06
1.75511e-08
-2.63084e-06
1.61441e-08
-2.64554e-06
1.47002e-08
-2.65875e-06
1.32165e-08
-2.67044e-06
1.16891e-08
-2.68055e-06
1.01109e-08
-2.68903e-06
8.47287e-09
-2.69579e-06
6.76247e-09
-2.70075e-06
4.96316e-09
-2.70382e-06
3.06581e-09
-2.70488e-06
1.05809e-09
-2.70403e-06
-8.44595e-10
-2.70154e-06
-2.49435e-09
-2.69747e-06
-4.07262e-09
-2.69184e-06
-5.62705e-09
-2.68466e-06
-7.17811e-09
-2.67593e-06
-8.73454e-09
-2.66563e-06
-1.02977e-08
-2.65376e-06
-1.18668e-08
-2.64032e-06
-1.34401e-08
-2.62531e-06
-1.50156e-08
-2.60871e-06
-1.65913e-08
-2.59055e-06
-1.81651e-08
-2.57081e-06
-1.97347e-08
-2.54952e-06
-2.12981e-08
-2.52666e-06
-2.28532e-08
-2.50227e-06
-2.4398e-08
-2.47633e-06
-2.59303e-08
-2.44889e-06
-2.7448e-08
-2.41994e-06
-2.89492e-08
-2.38951e-06
-3.04316e-08
-2.35761e-06
-3.18933e-08
-2.32428e-06
-3.33324e-08
-2.28953e-06
-3.47468e-08
-2.2534e-06
-3.61347e-08
-2.2159e-06
-3.74943e-08
-2.17708e-06
-3.88238e-08
-2.13696e-06
-4.01215e-08
-2.09557e-06
-4.13858e-08
-2.05296e-06
-4.26149e-08
-2.00915e-06
-4.38073e-08
-1.96419e-06
-4.49614e-08
-1.91811e-06
-4.60757e-08
-1.87097e-06
-4.71491e-08
-1.82279e-06
-4.81802e-08
-1.77362e-06
-4.91681e-08
-1.72351e-06
-5.01116e-08
-1.6725e-06
-5.10099e-08
-1.62063e-06
-5.18619e-08
-1.56797e-06
-5.26671e-08
-1.51454e-06
-5.34248e-08
-1.46041e-06
-5.41347e-08
-1.40561e-06
-5.47965e-08
-1.3502e-06
-5.541e-08
-1.29423e-06
-5.59752e-08
-1.23773e-06
-5.6492e-08
-1.18077e-06
-5.6961e-08
-1.12339e-06
-5.73826e-08
-1.06563e-06
-5.77574e-08
-1.00755e-06
-5.80861e-08
-9.49177e-07
-5.83697e-08
-8.90567e-07
-5.86094e-08
-8.31761e-07
-5.88064e-08
-7.72799e-07
-5.89621e-08
-7.13721e-07
-5.90782e-08
-6.54564e-07
-5.91565e-08
-5.95365e-07
-5.91987e-08
-5.36159e-07
-5.92066e-08
-4.76976e-07
-5.91823e-08
-4.17849e-07
-5.91273e-08
-3.58806e-07
-5.90429e-08
-2.99876e-07
-5.89297e-08
-2.41089e-07
-5.87877e-08
-1.82477e-07
-5.86115e-08
-1.24072e-07
-5.84051e-08
-6.59063e-08
-5.81659e-08
-8.02532e-09
-5.7881e-08
4.9534e-08
-5.75593e-08
1.06743e-07
-5.7209e-08
1.63607e-07
-5.68642e-08
2.20151e-07
-5.65438e-08
2.76387e-07
-5.62362e-08
3.32309e-07
-5.59217e-08
3.87884e-07
-5.55747e-08
4.4304e-07
-5.5156e-08
4.97638e-07
-5.45984e-08
5.51409e-07
-5.37707e-08
6.03814e-07
-5.24053e-08
6.5363e-07
-4.98156e-08
6.97981e-07
-4.43517e-08
7.29196e-07
-3.12145e-08
9.18092e-09
7.20015e-07
6.15058e-09
-1.70893e-08
6.64772e-09
-1.1379e-08
3.15091e-09
-2.94708e-09
-3.02549e-09
5.02467e-09
-1.14549e-08
1.22126e-08
-2.20471e-08
1.84212e-08
-3.47315e-08
2.35799e-08
-4.93598e-08
2.77574e-08
-6.57099e-08
3.11196e-08
-8.35448e-08
3.38624e-08
-1.02657e-07
3.61618e-08
-1.22879e-07
3.81567e-08
-1.4409e-07
3.99478e-08
-1.66201e-07
4.16034e-08
-1.89155e-07
4.31679e-08
-2.12913e-07
4.46692e-08
-2.37451e-07
4.61251e-08
-2.62758e-07
4.75472e-08
-2.88827e-07
4.89434e-08
-3.15662e-07
5.032e-08
-3.43272e-07
5.16826e-08
-3.71671e-07
5.30362e-08
-4.00882e-07
5.43856e-08
-4.30939e-07
5.57362e-08
-4.61885e-07
5.70952e-08
-4.9378e-07
5.84747e-08
-5.26695e-07
5.98947e-08
-5.60707e-07
6.13855e-08
-5.95878e-07
6.29826e-08
-6.32242e-07
6.47042e-08
-6.6982e-07
6.65227e-08
-7.08624e-07
6.84051e-08
-7.48453e-07
7.03902e-08
-7.89259e-07
7.23604e-08
-8.3194e-07
7.40341e-08
-8.75964e-07
7.58253e-08
-9.1865e-07
7.80872e-08
-9.61663e-07
7.97431e-08
-1.00708e-06
8.05114e-08
-1.05097e-06
8.19133e-08
-1.09175e-06
8.39245e-08
-1.13187e-06
8.47551e-08
-1.17603e-06
8.3611e-08
-1.22161e-06
8.25608e-08
-1.26505e-06
8.27039e-08
-1.30698e-06
8.31065e-08
-1.34818e-06
8.33553e-08
-1.38886e-06
8.34672e-08
-1.42913e-06
8.34581e-08
-1.46906e-06
8.33439e-08
-1.50866e-06
8.31408e-08
-1.54795e-06
8.28619e-08
-1.58691e-06
8.25166e-08
-1.62555e-06
8.21113e-08
-1.66383e-06
8.165e-08
-1.70175e-06
8.11349e-08
-1.73928e-06
8.05665e-08
-1.77641e-06
7.99446e-08
-1.81311e-06
7.92681e-08
-1.84936e-06
7.85355e-08
-1.88514e-06
7.77451e-08
-1.92041e-06
7.68948e-08
-1.95516e-06
7.59827e-08
-1.98936e-06
7.50069e-08
-2.02297e-06
7.39656e-08
-2.05597e-06
7.28573e-08
-2.08833e-06
7.16803e-08
-2.12002e-06
7.04336e-08
-2.15101e-06
6.91162e-08
-2.18126e-06
6.77272e-08
-2.21075e-06
6.62663e-08
-2.23944e-06
6.47332e-08
-2.26731e-06
6.3128e-08
-2.29432e-06
6.14507e-08
-2.32045e-06
5.9702e-08
-2.34566e-06
5.78826e-08
-2.36992e-06
5.59932e-08
-2.3932e-06
5.40348e-08
-2.41548e-06
5.20087e-08
-2.43673e-06
4.9916e-08
-2.45691e-06
4.77581e-08
-2.476e-06
4.55363e-08
-2.49398e-06
4.32521e-08
-2.51081e-06
4.09066e-08
-2.52648e-06
3.85011e-08
-2.54095e-06
3.60365e-08
-2.5542e-06
3.35138e-08
-2.56621e-06
3.09334e-08
-2.57696e-06
2.82955e-08
-2.58641e-06
2.56001e-08
-2.59456e-06
2.28466e-08
-2.60138e-06
2.00344e-08
-2.60685e-06
1.71629e-08
-2.61097e-06
1.42317e-08
-2.61374e-06
1.12416e-08
-2.61517e-06
8.19669e-09
-2.61532e-06
5.10723e-09
-2.61426e-06
2.00261e-09
-2.61211e-06
-1.0859e-09
-2.60882e-06
-4.13869e-09
-2.60417e-06
-7.14529e-09
-2.59807e-06
-1.01728e-08
-2.59047e-06
-1.32213e-08
-2.58136e-06
-1.62891e-08
-2.57072e-06
-1.93754e-08
-2.55854e-06
-2.24776e-08
-2.54481e-06
-2.55922e-08
-2.52954e-06
-2.87154e-08
-2.51271e-06
-3.1843e-08
-2.49433e-06
-3.49707e-08
-2.4744e-06
-3.80944e-08
-2.45293e-06
-4.12097e-08
-2.42991e-06
-4.43126e-08
-2.40537e-06
-4.73988e-08
-2.3793e-06
-5.04641e-08
-2.35173e-06
-5.35046e-08
-2.32266e-06
-5.65161e-08
-2.29211e-06
-5.94943e-08
-2.26011e-06
-6.24354e-08
-2.22667e-06
-6.53351e-08
-2.19181e-06
-6.81896e-08
-2.15556e-06
-7.0995e-08
-2.11795e-06
-7.37475e-08
-2.079e-06
-7.64436e-08
-2.03875e-06
-7.90797e-08
-1.99721e-06
-8.16524e-08
-1.95444e-06
-8.41584e-08
-1.91046e-06
-8.65945e-08
-1.86531e-06
-8.89573e-08
-1.81903e-06
-9.12439e-08
-1.77165e-06
-9.34513e-08
-1.72323e-06
-9.5577e-08
-1.67379e-06
-9.76185e-08
-1.62338e-06
-9.95738e-08
-1.57205e-06
-1.01441e-07
-1.51985e-06
-1.03218e-07
-1.46681e-06
-1.04902e-07
-1.41298e-06
-1.06494e-07
-1.35841e-06
-1.0799e-07
-1.30316e-06
-1.09392e-07
-1.24726e-06
-1.10697e-07
-1.19076e-06
-1.11907e-07
-1.13371e-06
-1.1302e-07
-1.07617e-06
-1.14037e-07
-1.01817e-06
-1.14958e-07
-9.59769e-07
-1.15786e-07
-9.01007e-07
-1.16519e-07
-8.41931e-07
-1.17162e-07
-7.82587e-07
-1.17714e-07
-7.23018e-07
-1.18179e-07
-6.63265e-07
-1.18559e-07
-6.0337e-07
-1.18857e-07
-5.43373e-07
-1.19076e-07
-4.8331e-07
-1.1922e-07
-4.23217e-07
-1.19292e-07
-3.63128e-07
-1.19296e-07
-3.03074e-07
-1.19236e-07
-2.43086e-07
-1.19115e-07
-1.83192e-07
-1.18937e-07
-1.23419e-07
-1.18703e-07
-6.37929e-08
-1.18414e-07
-4.33892e-09
-1.18065e-07
5.49148e-08
-1.17659e-07
1.13942e-07
-1.17193e-07
1.72728e-07
-1.16667e-07
2.31264e-07
-1.16096e-07
2.89551e-07
-1.15496e-07
3.47586e-07
-1.14899e-07
4.05361e-07
-1.14319e-07
4.62868e-07
-1.13743e-07
5.20085e-07
-1.13139e-07
5.7697e-07
-1.1246e-07
6.33445e-07
-1.1163e-07
6.8936e-07
-1.10514e-07
7.44447e-07
-1.08858e-07
7.98206e-07
-1.06164e-07
8.49663e-07
-1.01273e-07
8.97194e-07
-9.18827e-08
9.37497e-07
-7.15167e-08
-2.4e-08
9.70677e-07
-2.18922e-09
-1.49e-08
-9.36481e-09
-4.20343e-09
-1.86552e-08
6.34334e-09
-2.93186e-08
1.56881e-08
-4.11581e-08
2.40521e-08
-5.41968e-08
3.14599e-08
-6.85256e-08
3.79088e-08
-8.4209e-08
4.34407e-08
-1.01245e-07
4.81559e-08
-1.19575e-07
5.21921e-08
-1.39108e-07
5.56951e-08
-1.5975e-07
5.87983e-08
-1.81413e-07
6.16114e-08
-2.04029e-07
6.42193e-08
-2.27546e-07
6.66843e-08
-2.51928e-07
6.90511e-08
-2.77154e-07
7.13515e-08
-3.03215e-07
7.36087e-08
-3.30112e-07
7.58399e-08
-3.57851e-07
7.80591e-08
-3.86446e-07
8.02778e-08
-4.15916e-07
8.25061e-08
-4.46284e-07
8.4753e-08
-4.77574e-07
8.70269e-08
-5.09815e-07
8.93363e-08
-5.43031e-07
9.16908e-08
-5.77238e-07
9.41011e-08
-6.12429e-07
9.6577e-08
-6.48567e-07
9.91205e-08
-6.85577e-07
1.01714e-07
-7.23369e-07
1.04314e-07
-7.61829e-07
1.06865e-07
-8.00755e-07
1.09316e-07
-8.39986e-07
1.11592e-07
-8.79579e-07
1.13627e-07
-9.19226e-07
1.15472e-07
-9.58277e-07
1.17139e-07
-9.96998e-07
1.18464e-07
-1.03592e-06
1.19432e-07
-1.07426e-06
1.20257e-07
-1.11126e-06
1.2092e-07
-1.1476e-06
1.21096e-07
-1.18471e-06
1.20728e-07
-1.22239e-06
1.20238e-07
-1.25962e-06
1.19932e-07
-1.29623e-06
1.19716e-07
-1.33237e-06
1.19492e-07
-1.36812e-06
1.19225e-07
-1.40356e-06
1.189e-07
-1.43873e-06
1.18508e-07
-1.47364e-06
1.1805e-07
-1.5083e-06
1.17525e-07
-1.54272e-06
1.16934e-07
-1.57688e-06
1.16277e-07
-1.61079e-06
1.15553e-07
-1.64441e-06
1.14762e-07
-1.67775e-06
1.13902e-07
-1.71077e-06
1.12969e-07
-1.74347e-06
1.11961e-07
-1.77581e-06
1.10876e-07
-1.80777e-06
1.09709e-07
-1.83933e-06
1.08457e-07
-1.87047e-06
1.07118e-07
-1.90115e-06
1.05688e-07
-1.93135e-06
1.04164e-07
-1.96103e-06
1.02545e-07
-1.99018e-06
1.00828e-07
-2.01876e-06
9.90109e-08
-2.04674e-06
9.70926e-08
-2.07408e-06
9.50719e-08
-2.10076e-06
9.29479e-08
-2.12675e-06
9.07203e-08
-2.15201e-06
8.83889e-08
-2.17651e-06
8.59541e-08
-2.20023e-06
8.34163e-08
-2.22312e-06
8.07764e-08
-2.24516e-06
7.80356e-08
-2.26632e-06
7.51952e-08
-2.28657e-06
7.22568e-08
-2.30588e-06
6.9222e-08
-2.32421e-06
6.60928e-08
-2.34155e-06
6.28712e-08
-2.35786e-06
5.95592e-08
-2.37311e-06
5.61587e-08
-2.38728e-06
5.26719e-08
-2.40034e-06
4.91006e-08
-2.41228e-06
4.54466e-08
-2.42305e-06
4.17115e-08
-2.43265e-06
3.7897e-08
-2.44106e-06
3.40045e-08
-2.44825e-06
3.00355e-08
-2.45421e-06
2.59921e-08
-2.45892e-06
2.18769e-08
-2.46238e-06
1.76937e-08
-2.46459e-06
1.34485e-08
-2.46554e-06
9.15018e-09
-2.46525e-06
4.81243e-09
-2.46369e-06
4.49707e-10
-2.46086e-06
-3.91656e-09
-2.4567e-06
-8.30093e-09
-2.45113e-06
-1.2714e-08
-2.44413e-06
-1.71713e-08
-2.43569e-06
-2.16704e-08
-2.42577e-06
-2.62064e-08
-2.41437e-06
-3.07737e-08
-2.40148e-06
-3.53665e-08
-2.38709e-06
-3.99785e-08
-2.37121e-06
-4.46035e-08
-2.35381e-06
-4.92353e-08
-2.33492e-06
-5.38674e-08
-2.31452e-06
-5.84936e-08
-2.29262e-06
-6.31076e-08
-2.26923e-06
-6.77032e-08
-2.24435e-06
-7.22741e-08
-2.218e-06
-7.68142e-08
-2.19019e-06
-8.13174e-08
-2.16093e-06
-8.57777e-08
-2.13024e-06
-9.01889e-08
-2.09813e-06
-9.4545e-08
-2.06462e-06
-9.884e-08
-2.02974e-06
-1.03068e-07
-1.99351e-06
-1.07223e-07
-1.95596e-06
-1.113e-07
-1.91711e-06
-1.15293e-07
-1.877e-06
-1.19197e-07
-1.83564e-06
-1.23006e-07
-1.79308e-06
-1.26717e-07
-1.74935e-06
-1.30324e-07
-1.70449e-06
-1.33823e-07
-1.65852e-06
-1.37208e-07
-1.6115e-06
-1.40476e-07
-1.56345e-06
-1.43623e-07
-1.51443e-06
-1.46644e-07
-1.46446e-06
-1.49538e-07
-1.4136e-06
-1.523e-07
-1.36189e-06
-1.54928e-07
-1.30938e-06
-1.5742e-07
-1.2561e-06
-1.59773e-07
-1.2021e-06
-1.61985e-07
-1.14744e-06
-1.64056e-07
-1.09215e-06
-1.65984e-07
-1.03629e-06
-1.6777e-07
-9.79895e-07
-1.69413e-07
-9.23019e-07
-1.70912e-07
-8.65707e-07
-1.7227e-07
-8.08004e-07
-1.73488e-07
-7.49956e-07
-1.74568e-07
-6.91607e-07
-1.75511e-07
-6.33e-07
-1.76321e-07
-5.74178e-07
-1.77001e-07
-5.15181e-07
-1.77555e-07
-4.56051e-07
-1.77987e-07
-3.96825e-07
-1.78302e-07
-3.37539e-07
-1.78506e-07
-2.78227e-07
-1.78603e-07
-2.18923e-07
-1.786e-07
-1.59657e-07
-1.78502e-07
-1.00458e-07
-1.78314e-07
-4.13524e-08
-1.78043e-07
1.76351e-08
-1.7769e-07
7.64795e-08
-1.77258e-07
1.3516e-07
-1.76746e-07
1.93656e-07
-1.76155e-07
2.51954e-07
-1.7549e-07
3.10052e-07
-1.74766e-07
3.67959e-07
-1.74002e-07
4.25678e-07
-1.73214e-07
4.83192e-07
-1.72414e-07
5.40484e-07
-1.71611e-07
5.97533e-07
-1.70791e-07
6.54312e-07
-1.69917e-07
7.10774e-07
-1.68923e-07
7.66841e-07
-1.67697e-07
8.22373e-07
-1.66046e-07
8.77132e-07
-1.63616e-07
9.30711e-07
-1.59744e-07
9.82477e-07
-1.53038e-07
1.03152e-06
-1.40928e-07
1.07735e-06
-1.17342e-07
-7.07846e-08
1.12413e-06
-8.86086e-09
-6.03918e-09
-2.11411e-08
8.07679e-09
-3.44505e-08
1.96528e-08
-4.83655e-08
2.96031e-08
-6.28485e-08
3.85351e-08
-7.7986e-08
4.65974e-08
-9.39067e-08
5.38295e-08
-1.10731e-07
6.02647e-08
-1.28539e-07
6.59642e-08
-1.47366e-07
7.10186e-08
-1.67206e-07
7.55352e-08
-1.88031e-07
7.96233e-08
-2.09802e-07
8.33823e-08
-2.32479e-07
8.68965e-08
-2.56028e-07
9.02335e-08
-2.80422e-07
9.34455e-08
-3.05643e-07
9.65723e-08
-3.31678e-07
9.96437e-08
-3.58521e-07
1.02682e-07
-3.86167e-07
1.05706e-07
-4.14616e-07
1.08726e-07
-4.43863e-07
1.11754e-07
-4.73904e-07
1.14793e-07
-5.04725e-07
1.17848e-07
-5.36306e-07
1.20917e-07
-5.68612e-07
1.23997e-07
-6.01592e-07
1.2708e-07
-6.35168e-07
1.30153e-07
-6.69239e-07
1.33192e-07
-7.03686e-07
1.36161e-07
-7.38383e-07
1.39011e-07
-7.73206e-07
1.41688e-07
-8.0803e-07
1.44141e-07
-8.42759e-07
1.46321e-07
-8.77335e-07
1.48203e-07
-9.11659e-07
1.49796e-07
-9.45631e-07
1.5111e-07
-9.79295e-07
1.52128e-07
-1.01272e-06
1.5286e-07
-1.04582e-06
1.53355e-07
-1.07852e-06
1.53615e-07
-1.111e-06
1.53577e-07
-1.14354e-06
1.53271e-07
-1.17616e-06
1.52855e-07
-1.20867e-06
1.52441e-07
-1.24098e-06
1.52033e-07
-1.2731e-06
1.51609e-07
-1.30503e-06
1.51153e-07
-1.33678e-06
1.5065e-07
-1.36836e-06
1.50093e-07
-1.39979e-06
1.49473e-07
-1.43105e-06
1.48787e-07
-1.46215e-06
1.48031e-07
-1.49307e-06
1.472e-07
-1.52381e-06
1.4629e-07
-1.55434e-06
1.45298e-07
-1.58466e-06
1.44218e-07
-1.61473e-06
1.43047e-07
-1.64455e-06
1.41779e-07
-1.67409e-06
1.4041e-07
-1.70331e-06
1.38936e-07
-1.73221e-06
1.37351e-07
-1.76074e-06
1.35651e-07
-1.78889e-06
1.33834e-07
-1.81662e-06
1.31894e-07
-1.8439e-06
1.29828e-07
-1.87071e-06
1.27635e-07
-1.89701e-06
1.2531e-07
-1.92277e-06
1.22854e-07
-1.94796e-06
1.20263e-07
-1.97255e-06
1.17537e-07
-1.9965e-06
1.14675e-07
-2.01979e-06
1.11677e-07
-2.04238e-06
1.08544e-07
-2.06424e-06
1.05275e-07
-2.08533e-06
1.01873e-07
-2.10564e-06
9.83386e-08
-2.12512e-06
9.46733e-08
-2.14374e-06
9.08795e-08
-2.16148e-06
8.69592e-08
-2.1783e-06
8.29151e-08
-2.19418e-06
7.87498e-08
-2.20908e-06
7.44661e-08
-2.22299e-06
7.00669e-08
-2.23587e-06
6.5555e-08
-2.24771e-06
6.09334e-08
-2.25847e-06
5.62049e-08
-2.26813e-06
5.13724e-08
-2.27667e-06
4.64387e-08
-2.28407e-06
4.14067e-08
-2.29031e-06
3.62797e-08
-2.29538e-06
3.1061e-08
-2.29926e-06
2.57552e-08
-2.30194e-06
2.03675e-08
-2.30339e-06
1.49048e-08
-2.30362e-06
9.37535e-09
-2.30259e-06
3.78873e-09
-2.3003e-06
-1.84642e-09
-2.29669e-06
-7.5238e-09
-2.29174e-06
-1.32502e-08
-2.28542e-06
-1.9035e-08
-2.27771e-06
-2.48819e-08
-2.26859e-06
-3.07861e-08
-2.25806e-06
-3.67408e-08
-2.24609e-06
-4.2738e-08
-2.23269e-06
-4.87695e-08
-2.21784e-06
-5.48267e-08
-2.20155e-06
-6.09014e-08
-2.1838e-06
-6.69852e-08
-2.16459e-06
-7.30696e-08
-2.14394e-06
-7.91464e-08
-2.12184e-06
-8.52072e-08
-2.0983e-06
-9.12439e-08
-2.07333e-06
-9.72483e-08
-2.04693e-06
-1.03212e-07
-2.01912e-06
-1.09128e-07
-1.98991e-06
-1.14987e-07
-1.95931e-06
-1.20782e-07