/*--------------------------------*- C++ -*----------------------------------*\
  =========                 |
  \\      /  F ield         | OpenFOAM: The Open Source CFD Toolbox
   \\    /   O peration     | Website:  https://openfoam.org
    \\  /    A nd           | Version:  12
     \\/     M anipulation  |
\*---------------------------------------------------------------------------*/
FoamFile
{
    format      ascii;
    class       volVectorField;
    location    "0.18";
    object      U;
}
// * * * * * * * * * * * * * * * * * * * * * * * * * * * * * * * * * * * * * //

dimensions      [0 1 -1 0 0 0 0];

internalField   nonuniform List<vector> 
12225
(
(9.86107 -0.874318 0)
(9.67247 -0.700191 0)
(9.45895 -0.38759 0)
(9.22463 -0.188476 0)
(9.00344 -0.0843908 0)
(8.81033 -0.0328723 0)
(8.64502 -0.00754615 0)
(8.50399 0.00503057 0)
(8.38377 0.0113439 0)
(8.28085 0.0144819 0)
(8.19182 0.0159797 0)
(8.11383 0.0166527 0)
(8.04446 0.0169443 0)
(7.98191 0.0171475 0)
(7.92324 0.0174551 0)
(7.86942 0.0185906 0)
(7.79968 0.0215741 0)
(7.77325 0.0302762 0)
(10.0547 0.26307 0)
(10.1201 0.360742 0)
(10.118 0.273823 0)
(10.0826 0.187091 0)
(10.0405 0.131166 0)
(9.99389 0.0969328 0)
(9.94007 0.0755648 0)
(9.88033 0.0617596 0)
(9.81774 0.0523566 0)
(9.75479 0.045543 0)
(9.69293 0.040376 0)
(9.63295 0.0363954 0)
(9.57526 0.0333461 0)
(9.52022 0.0312111 0)
(9.46705 0.0298266 0)
(9.41822 0.0309733 0)
(9.3667 0.0321145 0)
(9.34152 0.0527122 0)
(9.99919 0.0460873 0)
(10.0244 0.0342112 0)
(10.0538 0.0149526 0)
(10.0708 0.0218151 0)
(10.0778 0.0366785 0)
(10.0783 0.0460166 0)
(10.0722 0.0499592 0)
(10.0602 0.0511529 0)
(10.0438 0.0510629 0)
(10.0244 0.0503509 0)
(10.0029 0.0493884 0)
(9.97982 0.0484222 0)
(9.95563 0.0476035 0)
(9.93078 0.0471684 0)
(9.90524 0.0471922 0)
(9.88003 0.049023 0)
(9.85437 0.0518313 0)
(9.8344 0.0633626 0)
(9.9968 0.00642851 0)
(10.0085 0.0250202 0)
(10.0342 0.0389411 0)
(10.0528 0.0503069 0)
(10.0644 0.0571139 0)
(10.0731 0.0591722 0)
(10.0789 0.0588628 0)
(10.0816 0.057946 0)
(10.0815 0.0569436 0)
(10.0794 0.0559315 0)
(10.0756 0.0549629 0)
(10.0705 0.0541253 0)
(10.0642 0.0535103 0)
(10.057 0.053314 0)
(10.0489 0.0536731 0)
(10.0407 0.0554724 0)
(10.0327 0.0583779 0)
(10.0272 0.0649201 0)
(9.99922 0.0067382 0)
(10.0081 0.0335761 0)
(10.0271 0.0460472 0)
(10.0418 0.0508506 0)
(10.0524 0.0539211 0)
(10.0622 0.0555121 0)
(10.0708 0.0558618 0)
(10.0774 0.0556815 0)
(10.0822 0.0553177 0)
(10.0856 0.054862 0)
(10.0879 0.0543894 0)
(10.0893 0.0540053 0)
(10.0897 0.0538206 0)
(10.0895 0.0540116 0)
(10.0888 0.0547317 0)
(10.0881 0.056477 0)
(10.0879 0.0590616 0)
(10.0894 0.0629826 0)
(10.0002 0.00907501 0)
(10.0078 0.0321276 0)
(10.0225 0.0419159 0)
(10.035 0.0456721 0)
(10.0448 0.0491342 0)
(10.0542 0.0516736 0)
(10.063 0.0528162 0)
(10.0704 0.0531729 0)
(10.0766 0.0532191 0)
(10.0818 0.0531195 0)
(10.0862 0.0529663 0)
(10.0899 0.0528684 0)
(10.093 0.0529375 0)
(10.0956 0.0533185 0)
(10.0979 0.0541369 0)
(10.1003 0.0556371 0)
(10.1033 0.0576614 0)
(10.1076 0.0600599 0)
(10.0003 0.00880168 0)
(10.0068 0.0275215 0)
(10.0189 0.0370885 0)
(10.0303 0.0417488 0)
(10.0395 0.0456723 0)
(10.0482 0.0485005 0)
(10.0566 0.0499151 0)
(10.064 0.0505141 0)
(10.0705 0.0507836 0)
(10.0762 0.0508964 0)
(10.0814 0.0509398 0)
(10.086 0.0510145 0)
(10.0902 0.0512228 0)
(10.094 0.0516757 0)
(10.0977 0.0524574 0)
(10.1015 0.053662 0)
(10.1059 0.0551285 0)
(10.1112 0.0565377 0)
(10.0004 0.00783896 0)
(10.0057 0.0236993 0)
(10.016 0.033376 0)
(10.0264 0.0385969 0)
(10.0351 0.0424952 0)
(10.0433 0.0452929 0)
(10.0512 0.0468519 0)
(10.0584 0.0476381 0)
(10.0648 0.0480766 0)
(10.0707 0.0483412 0)
(10.0761 0.04852 0)
(10.0811 0.0487052 0)
(10.0857 0.0489858 0)
(10.0901 0.0494422 0)
(10.0945 0.0501195 0)
(10.099 0.051027 0)
(10.1039 0.0520038 0)
(10.1094 0.0527402 0)
(10.0004 0.00695327 0)
(10.0049 0.0207131 0)
(10.0136 0.0300435 0)
(10.023 0.0354126 0)
(10.0312 0.0392009 0)
(10.0389 0.0419657 0)
(10.0464 0.0436615 0)
(10.0533 0.0446139 0)
(10.0597 0.0451878 0)
(10.0655 0.045565 0)
(10.071 0.0458378 0)
(10.0761 0.0460897 0)
(10.081 0.0463949 0)
(10.0857 0.0468083 0)
(10.0903 0.0473458 0)
(10.0951 0.0479743 0)
(10.1002 0.0485468 0)
(10.1056 0.048822 0)
(10.0004 0.00616685 0)
(10.0042 0.0181287 0)
(10.0116 0.0268078 0)
(10.0199 0.0321523 0)
(10.0277 0.0358653 0)
(10.0349 0.0386 0)
(10.042 0.0403897 0)
(10.0487 0.0414682 0)
(10.0549 0.0421455 0)
(10.0607 0.0426049 0)
(10.0661 0.042941 0)
(10.0713 0.0432273 0)
(10.0763 0.0435239 0)
(10.0811 0.0438667 0)
(10.0859 0.0442534 0)
(10.0907 0.0446353 0)
(10.0958 0.0448894 0)
(10.101 0.0448486 0)
(10.0003 0.00543042 0)
(10.0036 0.0158072 0)
(10.0099 0.0237235 0)
(10.0173 0.0289254 0)
(10.0245 0.0325476 0)
(10.0314 0.0352165 0)
(10.0381 0.0370409 0)
(10.0445 0.0382014 0)
(10.0506 0.0389532 0)
(10.0562 0.0394699 0)
(10.0616 0.0398445 0)
(10.0668 0.0401414 0)
(10.0717 0.0404082 0)
(10.0766 0.0406681 0)
(10.0814 0.0409099 0)
(10.0862 0.0410852 0)
(10.0911 0.0410985 0)
(10.0962 0.0408448 0)
(10.0003 0.00477832 0)
(10.0031 0.0138631 0)
(10.0086 0.021051 0)
(10.0152 0.0260206 0)
(10.0219 0.0295161 0)
(10.0284 0.032091 0)
(10.0348 0.0339022 0)
(10.041 0.0351003 0)
(10.0469 0.035894 0)
(10.0524 0.0364411 0)
(10.0577 0.0368308 0)
(10.0628 0.0371199 0)
(10.0678 0.0373471 0)
(10.0726 0.0375281 0)
(10.0774 0.0376497 0)
(10.0822 0.0376711 0)
(10.0869 0.0375211 0)
(10.0917 0.0371394 0)
(10.0003 0.0041722 0)
(10.0028 0.012097 0)
(10.0075 0.0185384 0)
(10.0134 0.0231851 0)
(10.0197 0.0265113 0)
(10.0258 0.0289683 0)
(10.0319 0.0307322 0)
(10.0378 0.0319359 0)
(10.0435 0.0327483 0)
(10.0489 0.0333078 0)
(10.0542 0.0336975 0)
(10.0592 0.0339682 0)
(10.0641 0.0341516 0)
(10.0689 0.034259 0)
(10.0736 0.0342791 0)
(10.0782 0.0341804 0)
(10.0828 0.0339123 0)
(10.0874 0.0334471 0)
(10.0003 0.00354071 0)
(10.0024 0.0102598 0)
(10.0064 0.0158479 0)
(10.0117 0.0200407 0)
(10.0174 0.0231097 0)
(10.0232 0.0253903 0)
(10.0289 0.0270553 0)
(10.0345 0.0282224 0)
(10.04 0.0290233 0)
(10.0453 0.0295722 0)
(10.0504 0.0299432 0)
(10.0554 0.0301807 0)
(10.0602 0.0303106 0)
(10.0649 0.0303421 0)
(10.0695 0.0302676 0)
(10.074 0.0300672 0)
(10.0784 0.029709 0)
(10.0827 0.02919 0)
(10.0002 0.00288222 0)
(10.002 0.00835055 0)
(10.0055 0.0129894 0)
(10.0101 0.0165934 0)
(10.0153 0.019296 0)
(10.0206 0.0213226 0)
(10.026 0.0228223 0)
(10.0313 0.0238956 0)
(10.0366 0.0246412 0)
(10.0417 0.0251469 0)
(10.0467 0.0254746 0)
(10.0515 0.0256616 0)
(10.0562 0.0257294 0)
(10.0608 0.0256867 0)
(10.0652 0.025531 0)
(10.0695 0.0252531 0)
(10.0737 0.0248366 0)
(10.0778 0.024295 0)
(10.0002 0.00219701 0)
(10.0017 0.00636984 0)
(10.0047 0.00996801 0)
(10.0088 0.0128446 0)
(10.0134 0.0150525 0)
(10.0183 0.0167271 0)
(10.0233 0.0179788 0)
(10.0284 0.0188859 0)
(10.0334 0.019518 0)
(10.0383 0.0199377 0)
(10.0431 0.0201915 0)
(10.0478 0.020309 0)
(10.0523 0.0203077 0)
(10.0567 0.0201963 0)
(10.061 0.0199769 0)
(10.0651 0.0196484 0)
(10.0691 0.0192053 0)
(10.073 0.0186697 0)
(10.0002 0.00148192 0)
(10.0015 0.00430096 0)
(10.0041 0.00676111 0)
(10.0077 0.00877017 0)
(10.0119 0.0103428 0)
(10.0164 0.0115487 0)
(10.021 0.0124546 0)
(10.0258 0.0131113 0)
(10.0306 0.0135621 0)
(10.0353 0.0138453 0)
(10.0399 0.0139911 0)
(10.0444 0.0140198 0)
(10.0488 0.0139441 0)
(10.053 0.0137718 0)
(10.0571 0.0135073 0)
(10.061 0.013154 0)
(10.0648 0.0127121 0)
(10.0685 0.0122061 0)
(10.0001 0.000719229 0)
(10.0013 0.00208783 0)
(10.0037 0.00328902 0)
(10.0069 0.00428169 0)
(10.0108 0.00506833 0)
(10.015 0.00567364 0)
(10.0194 0.00612263 0)
(10.024 0.00643542 0)
(10.0285 0.00662976 0)
(10.033 0.00672146 0)
(10.0374 0.00672303 0)
(10.0418 0.00664328 0)
(10.046 0.00648826 0)
(10.05 0.0062624 0)
(10.054 0.00596927 0)
(10.0577 0.00561289 0)
(10.0613 0.00519494 0)
(10.0648 0.00473798 0)
(10.0001 -0.000137799 0)
(10.0013 -0.000401782 0)
(10.0035 -0.000637599 0)
(10.0067 -0.000832459 0)
(10.0104 -0.000983697 0)
(10.0145 -0.00110505 0)
(10.0188 -0.00121568 0)
(10.0232 -0.00132942 0)
(10.0277 -0.00145498 0)
(10.032 -0.00159958 0)
(10.0363 -0.00176982 0)
(10.0405 -0.0019708 0)
(10.0446 -0.00220586 0)
(10.0485 -0.00247687 0)
(10.0523 -0.00278445 0)
(10.0559 -0.00312758 0)
(10.0594 -0.00350631 0)
(10.0627 -0.00390379 0)
(10.0001 -0.000961939 0)
(10.0014 -0.00280257 0)
(10.0038 -0.00443028 0)
(10.0071 -0.00576282 0)
(10.0111 -0.00679382 0)
(10.0153 -0.00758472 0)
(10.0197 -0.00820243 0)
(10.0242 -0.00869221 0)
(10.0287 -0.00908861 0)
(10.0331 -0.00942369 0)
(10.0374 -0.00972403 0)
(10.0416 -0.0100083 0)
(10.0456 -0.0102891 0)
(10.0494 -0.0105752 0)
(10.0531 -0.0108724 0)
(10.0567 -0.0111838 0)
(10.0601 -0.0115122 0)
(10.0633 -0.0118466 0)
(10.0002 -0.00167603 0)
(10.0015 -0.00490642 0)
(10.0042 -0.007754 0)
(10.008 -0.0100153 0)
(10.0123 -0.0117058 0)
(10.0168 -0.0129819 0)
(10.0215 -0.0139616 0)
(10.0262 -0.014704 0)
(10.0308 -0.0152636 0)
(10.0353 -0.0156992 0)
(10.0396 -0.0160579 0)
(10.0438 -0.0163701 0)
(10.0478 -0.0166552 0)
(10.0517 -0.0169274 0)
(10.0553 -0.0171964 0)
(10.0589 -0.017468 0)
(10.0622 -0.0177467 0)
(10.0654 -0.018025 0)
(10.0002 -0.00235815 0)
(10.0017 -0.00699563 0)
(10.0048 -0.0110909 0)
(10.0092 -0.0141857 0)
(10.0141 -0.0163741 0)
(10.019 -0.0179936 0)
(10.024 -0.0192243 0)
(10.0289 -0.0201307 0)
(10.0337 -0.0207849 0)
(10.0383 -0.0212694 0)
(10.0427 -0.0216458 0)
(10.047 -0.0219522 0)
(10.051 -0.0222149 0)
(10.0549 -0.0224531 0)
(10.0586 -0.0226801 0)
(10.0621 -0.0229037 0)
(10.0654 -0.023129 0)
(10.0685 -0.0233513 0)
(10.0002 -0.00299392 0)
(10.0018 -0.00910506 0)
(10.0056 -0.0144735 0)
(10.0108 -0.0183138 0)
(10.0164 -0.0209288 0)
(10.0217 -0.0228186 0)
(10.027 -0.0241777 0)
(10.0322 -0.0251119 0)
(10.0372 -0.0257589 0)
(10.042 -0.0262303 0)
(10.0465 -0.026586 0)
(10.0508 -0.0268613 0)
(10.0549 -0.0270848 0)
(10.0588 -0.0272793 0)
(10.0624 -0.0274596 0)
(10.0659 -0.0276341 0)
(10.0692 -0.0278082 0)
(10.0724 -0.0279787 0)
(10.0001 -0.00357014 0)
(10.0019 -0.0115364 0)
(10.0065 -0.0179275 0)
(10.0127 -0.0220514 0)
(10.0189 -0.025031 0)
(10.0248 -0.0273275 0)
(10.0304 -0.0288654 0)
(10.0359 -0.0297741 0)
(10.0411 -0.0303305 0)
(10.046 -0.0307128 0)
(10.0507 -0.0309868 0)
(10.055 -0.0311847 0)
(10.0592 -0.0313361 0)
(10.063 -0.0314643 0)
(10.0667 -0.0315831 0)
(10.0702 -0.0316994 0)
(10.0735 -0.0318168 0)
(10.0765 -0.0319312 0)
(9.99997 -0.00369012 0)
(10.0018 -0.0151806 0)
(10.0076 -0.022651 0)
(10.0148 -0.0259795 0)
(10.0214 -0.0285402 0)
(10.0277 -0.0309998 0)
(10.034 -0.0327754 0)
(10.04 -0.0338118 0)
(10.0455 -0.0344099 0)
(10.0505 -0.0347788 0)
(10.0553 -0.0350017 0)
(10.0597 -0.0351275 0)
(10.0638 -0.0351985 0)
(10.0676 -0.0352441 0)
(10.0712 -0.035281 0)
(10.0745 -0.0353174 0)
(10.0776 -0.0353568 0)
(10.0804 -0.035397 0)
(9.99898 -0.00130941 0)
(9.99999 -0.0179746 0)
(10.0085 -0.02907 0)
(10.0174 -0.0326936 0)
(10.0244 -0.0341155 0)
(10.0312 -0.0353395 0)
(10.0382 -0.036284 0)
(10.0449 -0.0369239 0)
(10.0507 -0.037372 0)
(10.0559 -0.0376683 0)
(10.0606 -0.0378276 0)
(10.0647 -0.0378858 0)
(10.0684 -0.0378843 0)
(10.0717 -0.0378524 0)
(10.0746 -0.0378085 0)
(10.0772 -0.0377638 0)
(10.0794 -0.0377219 0)
(10.0814 -0.0376819 0)
(9.99528 0.00386879 0)
(9.99334 -0.010312 0)
(10.007 -0.0271034 0)
(10.0212 -0.0389255 0)
(10.0311 -0.0448623 0)
(10.0392 -0.0464672 0)
(10.0466 -0.045982 0)
(10.0529 -0.0450234 0)
(10.058 -0.0441463 0)
(10.0621 -0.043372 0)
(10.0652 -0.0426571 0)
(10.0675 -0.0419987 0)
(10.069 -0.0414032 0)
(10.07 -0.0408703 0)
(10.0704 -0.0403976 0)
(10.0704 -0.039984 0)
(10.07 -0.0396202 0)
(10.0693 -0.0392791 0)
(9.99144 -0.0172935 0)
(9.99189 0.000365418 0)
(10.01 0.0176654 0)
(10.0295 0.0115881 0)
(10.0441 -0.00510891 0)
(10.0541 -0.0188248 0)
(10.06 -0.0271711 0)
(10.0622 -0.0320481 0)
(10.0617 -0.0349295 0)
(10.059 -0.0365349 0)
(10.0549 -0.0373118 0)
(10.0495 -0.0375854 0)
(10.0432 -0.0375685 0)
(10.0361 -0.0373907 0)
(10.0285 -0.0371357 0)
(10.0206 -0.0368647 0)
(10.0125 -0.0366332 0)
(10.0043 -0.03641 0)
(10.0236 -0.206008 0)
(10.0684 -0.312339 0)
(10.0788 -0.255592 0)
(10.0704 -0.184177 0)
(10.0605 -0.134901 0)
(10.0499 -0.102726 0)
(10.0342 -0.0811653 0)
(10.0129 -0.0666189 0)
(9.98778 -0.0566271 0)
(9.96054 -0.0494714 0)
(9.93232 -0.0441142 0)
(9.90382 -0.0399658 0)
(9.87552 -0.0366681 0)
(9.84777 -0.0339883 0)
(9.82079 -0.0317785 0)
(9.79472 -0.0299751 0)
(9.76978 -0.0285478 0)
(9.746 -0.0278132 0)
(9.94226 0.671595 0)
(9.87995 0.567455 0)
(9.77444 0.338467 0)
(9.63237 0.183319 0)
(9.48763 0.0949061 0)
(9.35651 0.0470833 0)
(9.24094 0.0212985 0)
(9.13943 0.00707715 0)
(9.05048 -0.000982154 0)
(8.97249 -0.00562327 0)
(8.90372 -0.00831233 0)
(8.84264 -0.00987444 0)
(8.788 -0.0107798 0)
(8.73881 -0.0112973 0)
(8.69425 -0.0115877 0)
(8.65362 -0.0117757 0)
(8.61606 -0.0119551 0)
(8.5812 -0.0124869 0)
(0.00493609 -0.0118358 -3.49691e-20)
(0.0154431 -0.0157688 3.44463e-20)
(0.0231219 -0.0115453 0)
(0.0267029 -0.00463524 0)
(0.0254331 0.0022167 0)
(0.0200566 0.00765 -3.20698e-20)
(0.0115397 0.0113937 0)
(0.00070188 0.0137659 0)
(-0.0118037 0.0152494 0)
(-0.0255664 0.0162307 0)
(-0.0403382 0.016951 2.90148e-20)
(-0.0559576 0.017548 0)
(-0.0723339 0.0180918 0)
(-0.0894149 0.0186133 0)
(-0.107168 0.0191237 0)
(-0.125571 0.0196247 2.59209e-20)
(-0.144603 0.0201143 0)
(-0.164248 0.0205893 0)
(-0.184488 0.0210464 0)
(-0.205305 0.0214827 0)
(-0.22668 0.0218953 0)
(-0.248592 0.0222801 0)
(-0.271022 0.0226306 0)
(-0.293942 0.0229382 2.23439e-20)
(-0.317325 0.0231937 -2.20059e-20)
(-0.341138 0.0233955 2.16907e-20)
(-0.365348 0.0235638 2.13984e-20)
(-0.38993 0.0237662 0)
(-0.4149 0.0241389 0)
(-0.440327 0.0248402 -2.06571e-20)
(-0.466289 0.0258883 -2.04533e-20)
(-0.492926 0.0273583 0)
(-0.520372 0.0299693 0)
(-0.548412 0.0324549 -1.99492e-20)
(-0.577062 0.0313454 0)
(-0.606295 0.0326221 0)
(-0.636345 0.0432744 2.00204e-20)
(-0.668429 0.0439864 0)
(-0.702418 0.0345089 2.09848e-20)
(-0.736428 0.0435771 3.89488e-20)
(-0.7732 0.0612899 0)
(-0.812678 0.0637051 0)
(-0.851638 0.0413742 0)
(-0.887261 0.0275443 0)
(-0.921751 0.0296239 0)
(-0.958804 0.0320183 3.99226e-20)
(-0.997369 0.0328241 3.94827e-20)
(-1.0366 0.0333289 3.9051e-20)
(-1.07636 0.0335679 0)
(-1.11644 0.033643 -3.82181e-20)
(-1.15673 0.0336104 0)
(-1.19715 0.0335036 3.74284e-20)
(-1.23762 0.0333436 3.70493e-20)
(-1.27812 0.033143 0)
(-1.31859 0.0329101 0)
(-1.359 0.0326496 0)
(-1.39931 0.0323647 3.56252e-20)
(-1.43951 0.0320571 0)
(-1.47956 0.0317278 0)
(-1.51942 0.0313772 0)
(-1.55908 0.0310052 0)
(-1.5985 0.0306119 0)
(-1.63764 0.0301968 0)
(-1.67648 0.0297597 0)
(-1.71498 0.0293002 0)
(-1.75311 0.0288183 -3.27976e-20)
(-1.79082 0.0283136 0)
(-1.8281 0.0277861 0)
(-1.86489 0.0272358 3.19132e-20)
(-1.90116 0.0266628 3.16199e-20)
(-1.93687 0.0260674 0)
(-1.97199 0.0254499 -3.10318e-20)
(-2.00647 0.0248107 3.0736e-20)
(-2.04028 0.0241503 0)
(-2.07337 0.0234695 -3.01382e-20)
(-2.10571 0.0227688 0)
(-2.13726 0.022049 0)
(-2.16798 0.0213109 2.92177e-20)
(-2.19784 0.0205554 0)
(-2.22679 0.0197832 -2.85821e-20)
(-2.25481 0.0189953 0)
(-2.28185 0.0181924 2.79245e-20)
(-2.30787 0.0173751 2.75862e-20)
(-2.33285 0.0165442 2.72409e-20)
(-2.35675 0.0156999 5.37767e-20)
(-2.37954 0.0148425 -5.30559e-20)
(-2.40117 0.0139717 0)
(-2.42163 0.0130868 0)
(-2.44087 0.0121866 0)
(-2.45886 0.0112691 -5.00012e-20)
(-2.47556 0.0103311 -4.9191e-20)
(-2.49094 0.00936873 4.8361e-20)
(-2.50494 0.00837714 0)
(-2.51754 0.00735069 -4.66391e-20)
(-2.52866 0.00628254 -4.57464e-20)
(-2.53824 0.00516677 -4.48321e-20)
(-2.54621 0.00400513 0)
(-2.55249 0.00281935 0)
(-2.55695 0.00165856 0)
(-2.55948 0.000584627 -4.09535e-20)
(-2.56034 -0.000354642 0)
(-2.55979 -0.00119688 0)
(-2.55775 -0.00201266 3.77717e-20)
(-2.55426 -0.0028166 0)
(-2.54931 -0.00361456 0)
(-2.54288 -0.00440755 3.4354e-20)
(-2.53496 -0.00519546 0)
(-2.52555 -0.00597764 0)
(-2.51464 -0.0067533 -3.06968e-20)
(-2.50221 -0.00752158 -2.94247e-20)
(-2.48828 -0.00828161 0)
(-2.47282 -0.00903254 2.68018e-20)
(-2.45586 -0.00977353 0)
(-2.43737 -0.0105038 -2.4076e-20)
(-2.41738 -0.0112224 0)
(-2.39588 -0.0119288 -2.12503e-20)
(-2.37289 -0.012622 -1.98012e-20)
(-2.3484 -0.0133013 0)
(-2.32244 -0.0139661 0)
(-2.29502 -0.0146155 0)
(-2.26615 -0.015249 0)
(-2.23585 -0.0158658 0)
(-2.20414 -0.0164654 0)
(-2.17103 -0.0170473 0)
(-2.13656 -0.0176108 -7.42655e-21)
(-2.10074 -0.0181556 5.79438e-21)
(-2.06361 -0.018681 0)
(-2.02519 -0.0191866 0)
(-1.9855 -0.019672 0)
(-1.94459 -0.0201367 0)
(-1.90248 -0.0205804 -5.1603e-21)
(-1.8592 -0.0210029 0)
(-1.8148 -0.0214039 1.20152e-20)
(-1.7693 -0.0217831 -1.54659e-20)
(-1.72275 -0.0221404 0)
(-1.67518 -0.0224756 0)
(-1.62664 -0.0227887 0)
(-1.57716 -0.0230795 2.93608e-20)
(-1.52679 -0.0233482 3.28438e-20)
(-1.47557 -0.0235947 0)
(-1.42354 -0.0238193 3.98012e-20)
(-1.37074 -0.0240221 4.327e-20)
(-1.31722 -0.0242032 -4.67285e-20)
(-1.26302 -0.024363 0)
(-1.20818 -0.0245019 0)
(-1.15275 -0.0246203 -5.70138e-20)
(-1.09677 -0.0247186 0)
(-1.04028 -0.0247974 0)
(-0.983326 -0.0248572 0)
(-0.925946 -0.0248987 0)
(-0.86818 -0.0249227 7.36939e-20)
(-0.810068 -0.0249298 7.69374e-20)
(-0.751645 -0.024921 0)
(-0.692949 -0.024897 8.33128e-20)
(-0.634012 -0.0248587 0)
(-0.574868 -0.0248071 0)
(-0.515547 -0.024743 9.25643e-20)
(-0.456078 -0.0246672 0)
(-0.396489 -0.0245803 9.8501e-20)
(-0.336806 -0.0244823 0)
(-0.277057 -0.024373 0)
(-0.21727 -0.0242489 1.07025e-19)
(-0.157474 -0.0241027 0)
(-0.0976999 -0.0239308 1.12436e-19)
(-0.0379657 -0.0237255 0)
(0.0216496 -0.0234222 0)
(0.0810751 -0.02303 0)
(0.140388 -0.0226473 -1.18839e-19)
(0.199585 -0.0222893 0)
(0.258678 -0.0219474 1.20318e-19)
(0.317674 -0.0216118 0)
(0.376556 -0.0212721 0)
(0.435276 -0.020914 0)
(0.493726 -0.0205139 0)
(0.551725 -0.0200259 0)
(0.608764 -0.0193578 0)
(0.664423 -0.0182614 0)
(0.714587 -0.0161047 -2.47732e-19)
(0.763334 -0.0112348 0)
(0.765078 0.00641325 0)
(0.00366982 -0.0307463 1.03832e-19)
(0.00679199 -0.0258415 -9.92528e-20)
(0.00487913 -0.0124953 0)
(0.000539538 0.000728099 5.95495e-20)
(-0.00589128 0.0125564 0)
(-0.0143543 0.0223846 2.78357e-20)
(-0.024758 0.0300792 -5.41803e-20)
(-0.0369731 0.0358739 -5.28218e-20)
(-0.0508249 0.0401894 0)
(-0.0661079 0.0434613 -5.027e-20)
(-0.0826236 0.0460376 -2.45442e-20)
(-0.100207 0.0481636 0)
(-0.118732 0.0499994 0)
(-0.13811 0.0516423 0)
(-0.158278 0.0531494 0)
(-0.179198 0.0545524 -2.18881e-20)
(-0.200843 0.0558688 0)
(-0.223199 0.0571083 4.19701e-20)
(-0.24626 0.0582767 0)
(-0.270027 0.0593781 0)
(-0.294505 0.0604156 -3.96805e-20)
(-0.319708 0.0613915 0)
(-0.345653 0.0623072 3.83854e-20)
(-0.372366 0.0631634 -1.89263e-20)
(-0.399884 0.0639624 1.86597e-20)
(-0.428253 0.0647114 -1.84161e-20)
(-0.457535 0.0654302 -1.81963e-20)
(-0.487801 0.066156 0)
(-0.519116 0.0669376 0)
(-0.551525 0.0677985 1.76889e-20)
(-0.58508 0.0686822 -1.75057e-20)
(-0.619773 0.0695049 0)
(-0.655399 0.0703842 0)
(-0.692049 0.0714013 1.73644e-20)
(-0.730288 0.0721407 0)
(-0.769759 0.0729835 0)
(-0.809091 0.0744969 -1.71388e-20)
(-0.848938 0.0766568 0)
(-0.889471 0.078284 1.69865e-20)
(-0.929807 0.0786928 -3.34034e-20)
(-0.968192 0.0793037 0)
(-1.00575 0.080979 0)
(-1.04503 0.0826029 -6.54142e-20)
(-1.08614 0.0837482 -6.46913e-20)
(-1.1271 0.0850941 -6.39157e-20)
(-1.16651 0.0860922 3.15071e-20)
(-1.20492 0.0864867 -3.13107e-20)
(-1.24282 0.0864806 -9.27419e-20)
(-1.28036 0.0862059 6.11083e-20)
(-1.31763 0.085739 3.03041e-20)
(-1.35466 0.0851335 0)
(-1.39145 0.0844247 -2.96812e-20)
(-1.428 0.0836358 2.92327e-20)
(-1.46432 0.0827821 0)
(-1.50038 0.0818733 0)
(-1.53616 0.0809155 0)
(-1.57167 0.0799126 -2.8259e-20)
(-1.60687 0.0788663 0)
(-1.64174 0.0777776 5.53152e-20)
(-1.67627 0.0766467 0)
(-1.71044 0.0754732 5.42997e-20)
(-1.74422 0.0742568 0)
(-1.77758 0.0729967 -5.33131e-20)
(-1.81051 0.0716925 0)
(-1.84297 0.0703437 5.23477e-20)
(-1.87494 0.06895 -2.58637e-20)
(-1.90639 0.0675111 0)
(-1.93729 0.0660273 -5.0923e-20)
(-1.96762 0.0644987 -2.52937e-20)
(-1.99734 0.0629258 -2.50561e-20)
(-2.02643 0.0613095 0)
(-2.05486 0.0596505 -2.445e-20)
(-2.0826 0.0579501 -2.43375e-20)
(-2.10961 0.0562096 0)
(-2.13587 0.0544305 2.38493e-20)
(-2.16135 0.0526143 -4.70884e-20)
(-2.18602 0.0507629 0)
(-2.20985 0.0488781 -2.30952e-20)
(-2.23282 0.0469618 0)
(-2.25488 0.0450161 6.76234e-20)
(-2.27603 0.0430428 0)
(-2.29622 0.041044 -6.60115e-20)
(-2.31543 0.0390215 -2.17544e-20)
(-2.33364 0.0369771 2.1395e-20)
(-2.35081 0.0349124 4.22214e-20)
(-2.36693 0.032829 -4.16405e-20)
(-2.38196 0.0307278 0)
(-2.39589 0.0286099 0)
(-2.40868 0.0264756 0)
(-2.42031 0.0243248 1.17701e-19)
(-2.43076 0.022157 3.85946e-20)
(-2.44001 0.0199706 -3.79144e-20)
(-2.44804 0.0177639 0)
(-2.45482 0.0155344 -3.64857e-20)
(-2.46036 0.0132789 3.57753e-20)
(-2.46466 0.0109934 3.50284e-20)
(-2.46774 0.00867601 0)
(-2.46966 0.00634087 0)
(-2.47051 0.00403236 0)
(-2.47038 0.00180834 3.18539e-20)
(-2.46913 -0.000304717 0)
(-2.46649 -0.00233742 -6.03822e-20)
(-2.46248 -0.00433508 -8.78979e-20)
(-2.45704 -0.00630994 5.68504e-20)
(-2.45016 -0.00826711 0)
(-2.44183 -0.0102067 2.6664e-20)
(-2.43202 -0.0121272 0)
(-2.42074 -0.0140266 4.93486e-20)
(-2.40798 -0.0159026 -2.37931e-20)
(-2.39372 -0.0177528 -2.28003e-20)
(-2.37797 -0.0195751 0)
(-2.36071 -0.021367 -6.1784e-20)
(-2.34197 -0.0231267 3.91677e-20)
(-2.32172 -0.0248519 1.83739e-20)
(-2.29998 -0.0265408 0)
(-2.27676 -0.0281913 1.61723e-20)
(-2.25206 -0.0298018 4.54711e-20)
(-2.22589 -0.0313704 0)
(-2.19826 -0.0328955 2.58686e-20)
(-2.16918 -0.0343753 2.355e-20)
(-2.13867 -0.0358085 2.12053e-20)
(-2.10675 -0.0371936 0)
(-2.07344 -0.0385293 0)
(-2.03876 -0.0398146 0)
(-2.00272 -0.0410483 -6.0108e-21)
(-1.96536 -0.0422294 -4.34925e-21)
(-1.92669 -0.0433572 0)
(-1.88675 -0.0444307 -4.17947e-21)
(-1.84557 -0.0454493 -1.67813e-21)
(-1.80317 -0.0464122 0)
(-1.7596 -0.047319 3.84763e-21)
(-1.71487 -0.0481694 1.17849e-20)
(-1.66903 -0.0489631 -8.93577e-21)
(-1.62211 -0.0497002 -1.04663e-20)
(-1.57416 -0.0503806 0)
(-1.5252 -0.0510044 0)
(-1.47528 -0.0515718 0)
(-1.42444 -0.052083 -2.17017e-20)
(-1.37272 -0.0525388 2.31734e-20)
(-1.32016 -0.0529397 5.24918e-20)
(-1.2668 -0.0532866 -2.9317e-20)
(-1.21269 -0.0535803 3.07442e-20)
(-1.15786 -0.0538217 3.43441e-20)
(-1.10237 -0.0540121 0)
(-1.04626 -0.0541527 0)
(-0.989557 -0.054245 -4.06718e-20)
(-0.932318 -0.0542906 0)
(-0.874581 -0.054291 0)
(-0.816387 -0.0542481 9.69585e-20)
(-0.757777 -0.0541638 0)
(-0.698789 -0.0540401 5.26545e-20)
(-0.639463 -0.0538792 -5.60645e-20)
(-0.579834 -0.0536833 0)
(-0.519938 -0.0534547 5.95388e-20)
(-0.459809 -0.0531957 0)
(-0.399479 -0.0529086 0)
(-0.338978 -0.0525957 -6.7199e-20)
(-0.278333 -0.0522589 1.37607e-19)
(-0.217572 -0.0518997 -7.14157e-20)
(-0.156721 -0.0515186 0)
(-0.0958028 -0.0511144 0)
(-0.0348425 -0.0506855 7.64545e-20)
(0.0261368 -0.0502273 0)
(0.0871089 -0.0497387 7.91721e-20)
(0.148059 -0.0492301 0)
(0.208967 -0.0486926 0)
(0.269829 -0.0481219 0)
(0.330663 -0.0475499 8.41199e-20)
(0.39146 -0.046995 0)
(0.452213 -0.0464525 -8.58562e-20)
(0.512912 -0.0459094 0)
(0.573528 -0.0453459 0)
(0.634005 -0.0447316 1.75354e-19)
(0.694231 -0.0440144 -1.76664e-19)
(0.754017 -0.0430936 0)
(0.812924 -0.0417738 0)
(0.870499 -0.0395511 0)
(0.924188 -0.0354654 5.45106e-19)
(0.976553 -0.0262359 0)
(1.00697 -0.00390252 -3.70825e-19)
(-0.000106025 -0.0330826 -4.95036e-23)
(-0.00468702 -0.0168695 1.2827e-19)
(-0.0122467 0.00140015 0)
(-0.020985 0.0177127 -1.09103e-19)
(-0.0309606 0.0321031 0)
(-0.0420281 0.044504 0)
(-0.0542093 0.0548989 1.12006e-23)
(-0.0675793 0.0634129 4.68487e-20)
(-0.0821734 0.0703038 4.56446e-20)
(-0.0979643 0.0758935 4.45489e-20)
(-0.114883 0.080498 0)
(-0.132845 0.0843862 0)
(-0.151769 0.0877661 -4.15504e-20)
(-0.171588 0.0907878 -8.1299e-20)
(-0.192248 0.0935553 7.95882e-20)
(-0.213712 0.0961385 0)
(-0.235959 0.0985847 7.64334e-20)
(-0.258975 0.100927 -3.75071e-20)
(-0.28276 0.103188 0)
(-0.307317 0.105389 7.23372e-20)
(-0.332659 0.107546 3.5581e-20)
(-0.358801 0.109674 -7.00024e-20)
(-0.385763 0.111788 -3.44888e-20)
(-0.413569 0.113904 0)
(-0.442246 0.116041 6.70448e-20)
(-0.471818 0.118224 6.61946e-20)
(-0.502308 0.120484 0)
(-0.533725 0.12286 6.46825e-20)
(-0.566053 0.125381 0)
(-0.59924 0.128044 6.33925e-20)
(-0.633219 0.130796 3.14229e-20)
(-0.667904 0.133565 0)
(-0.703116 0.136276 0)
(-0.738715 0.138771 0)
(-0.774706 0.140912 0)
(-0.810907 0.142883 0)
(-0.846904 0.144792 0)
(-0.882552 0.145972 5.87064e-20)
(-0.918169 0.146394 -8.70832e-20)
(-0.953631 0.146941 0)
(-0.988142 0.147342 0)
(-1.02175 0.146432 0)
(-1.05564 0.144184 3.04832e-23)
(-1.09027 0.142061 5.4648e-20)
(-1.12495 0.140716 1.07863e-19)
(-1.15912 0.139651 -1.06521e-19)
(-1.19282 0.138584 -5.25702e-20)
(-1.2262 0.137453 5.20146e-20)
(-1.25931 0.136231 -8.14251e-23)
(-1.2922 0.134919 5.0716e-20)
(-1.32491 0.133523 0)
(-1.35743 0.132051 4.95608e-20)
(-1.38979 0.130511 -8.84408e-23)
(-1.42197 0.128909 0)
(-1.45396 0.127248 0)
(-1.48576 0.125531 -4.74165e-20)
(-1.51735 0.123758 0)
(-1.54872 0.121929 0)
(-1.57985 0.120043 4.58316e-20)
(-1.61071 0.118099 9.08975e-20)
(-1.64129 0.116096 -4.50745e-20)
(-1.67157 0.114032 0)
(-1.70152 0.111906 4.41532e-20)
(-1.73112 0.109717 0)
(-1.76034 0.107464 4.30608e-20)
(-1.78916 0.105146 4.28076e-20)
(-1.81755 0.102764 -8.45431e-20)
(-1.84547 0.100316 -4.17399e-20)
(-1.87291 0.0978049 0)
(-1.89984 0.09523 8.19192e-20)
(-1.92622 0.0925927 0)
(-1.95202 0.0898944 1.20347e-19)
(-1.97722 0.087137 7.92984e-20)
(-2.00179 0.0843224 7.84191e-20)
(-2.02569 0.0814528 -7.75348e-20)
(-2.04889 0.0785307 1.15043e-19)
(-2.07137 0.0755588 0)
(-2.09309 0.0725398 0)
(-2.11403 0.0694766 -7.39224e-20)
(-2.13416 0.0663722 -1.09556e-19)
(-2.15344 0.0632295 0)
(-2.17185 0.0600515 3.56078e-20)
(-2.18936 0.0568411 0)
(-2.20595 0.0536012 -1.03774e-19)
(-2.22158 0.0503343 -9.07555e-23)
(-2.23623 0.047043 8.21601e-23)
(-2.24987 0.0437295 6.60981e-20)
(-2.26249 0.0403958 0)
(-2.27405 0.0370437 -6.39698e-20)
(-2.28453 0.0336748 -4.51443e-23)
(-2.29392 0.0302908 0)
(-2.30219 0.0268933 0)
(-2.30932 0.0234847 0)
(-2.31531 0.0200685 5.82817e-20)
(-2.32015 0.0166505 0)
(-2.32383 0.0132399 0)
(-2.32636 0.00985048 0)
(-2.32772 0.00650125 0)
(-2.32792 0.00320951 0)
(-2.3269 -2.3723e-05 5.06282e-20)
(-2.3246 -0.00322851 0)
(-2.32096 -0.00642162 4.77684e-20)
(-2.31597 -0.00959674 4.63318e-20)
(-2.30959 -0.0127506 -4.48697e-20)
(-2.30182 -0.0158798 0)
(-2.29264 -0.0189807 -4.18689e-20)
(-2.28203 -0.0220494 0)
(-2.26998 -0.0250821 -3.87674e-20)
(-2.25649 -0.0280748 3.71795e-20)
(-2.24156 -0.0310236 1.0706e-19)
(-2.22517 -0.0339249 0)
(-2.20732 -0.036775 9.72212e-20)
(-2.18802 -0.0395706 3.1017e-20)
(-2.16727 -0.0423084 0)
(-2.14506 -0.0449852 5.47942e-20)
(-2.12141 -0.0475979 5.13245e-20)
(-2.09633 -0.0501438 -7.14659e-20)
(-2.06981 -0.0526201 0)
(-2.04188 -0.055024 -2.00646e-20)
(-2.01254 -0.057353 -1.82454e-20)
(-1.98181 -0.0596048 -4.98233e-20)
(-1.9497 -0.0617771 0)
(-1.91624 -0.063868 0)
(-1.88144 -0.0658757 0)
(-1.84533 -0.0677985 -9.59451e-21)
(-1.80793 -0.0696351 0)
(-1.76926 -0.0713841 0)
(-1.72935 -0.0730444 3.20943e-21)
(-1.68823 -0.0746147 1.28726e-21)
(-1.64592 -0.0760943 0)
(-1.60247 -0.0774824 0)
(-1.5579 -0.0787785 -9.01143e-21)
(-1.51225 -0.0799826 0)
(-1.46554 -0.0810946 1.67529e-20)
(-1.41783 -0.0821147 1.98298e-20)
(-1.36914 -0.0830433 0)
(-1.31951 -0.0838806 0)
(-1.26898 -0.0846274 -3.13669e-20)
(-1.2176 -0.0852847 -8.2e-22)
(-1.1654 -0.0858538 -8.25214e-22)
(-1.11242 -0.0863361 0)
(-1.05871 -0.0867331 -9.3953e-20)
(-1.00431 -0.0870465 0)
(-0.94925 -0.0872781 0)
(-0.893586 -0.0874305 0)
(-0.837355 -0.0875061 6.22254e-20)
(-0.780597 -0.0875073 0)
(-0.723354 -0.0874369 -1.37224e-19)
(-0.665666 -0.087298 -7.30083e-20)
(-0.607571 -0.0870938 0)
(-0.549109 -0.0868277 -8.00017e-20)
(-0.490316 -0.0865031 0)
(-0.431229 -0.0861237 0)
(-0.371881 -0.0856933 -2.6884e-19)
(-0.312304 -0.0852156 1.85271e-19)
(-0.252531 -0.0846945 0)
(-0.192589 -0.0841335 1.98148e-19)
(-0.132506 -0.0835358 -1.03011e-19)
(-0.0723079 -0.0829039 0)
(-0.0120174 -0.0822405 0)
(0.0483428 -0.0815468 0)
(0.108752 -0.080822 -3.38857e-19)
(0.169193 -0.0800651 0)
(0.229647 -0.0792775 -1.17301e-19)
(0.290108 -0.0784683 0)
(0.350584 -0.0776503 0)
(0.411091 -0.0768327 0)
(0.471621 -0.0760231 0)
(0.532157 -0.0752264 0)
(0.592683 -0.074436 0)
(0.653178 -0.0736348 -2.56451e-19)
(0.71361 -0.0727941 0)
(0.773919 -0.0718672 -1.31572e-19)
(0.833999 -0.0707734 3.97247e-19)
(0.893673 -0.0693633 0)
(0.952574 -0.0673529 0)
(1.01036 -0.064123 -2.71515e-19)
(1.06532 -0.0584922 -2.75039e-19)
(1.12012 -0.0474956 2.77038e-19)
(1.16274 -0.0248049 2.81859e-19)
(-0.00403225 -0.021559 -2.04747e-19)
(-0.0136078 0.00201371 -1.87402e-19)
(-0.0247027 0.0228527 -1.11709e-19)
(-0.0365592 0.0407586 -5.11874e-20)
(-0.0491639 0.056546 0)
(-0.0623439 0.0704194 9.18428e-20)
(-0.0761591 0.0824564 -4.42558e-20)
(-0.0907337 0.0927604 0)
(-0.106167 0.101505 -4.17762e-20)
(-0.122514 0.108918 0)
(-0.139785 0.115251 7.95759e-20)
(-0.157965 0.120741 0)
(-0.177023 0.125591 3.8058e-20)
(-0.196923 0.129966 7.45214e-20)
(-0.217635 0.133991 -7.30102e-20)
(-0.239131 0.137758 0)
(-0.261393 0.141336 -7.02228e-20)
(-0.284408 0.144776 0)
(-0.308172 0.148114 0)
(-0.332679 0.15138 -6.65833e-20)
(-0.35793 0.154597 0)
(-0.383925 0.157784 3.63941e-24)
(-0.410661 0.160955 0)
(-0.438133 0.164121 0)
(-0.466328 0.167289 -3.93215e-24)
(-0.495223 0.170464 -6.09111e-20)
(-0.524783 0.173647 -6.01226e-20)
(-0.554951 0.176831 -5.93765e-20)
(-0.585649 0.179991 0)
(-0.616776 0.18308 -1.15898e-19)
(-0.648221 0.18602 0)
(-0.679873 0.188726 -5.65749e-20)
(-0.711615 0.191118 0)
(-0.743345 0.193101 0)
(-0.775003 0.194618 5.45055e-20)
(-0.806519 0.195719 0)
(-0.837793 0.196446 -5.3088e-20)
(-0.868806 0.196686 -4.75389e-24)
(-0.899616 0.196444 1.03373e-19)
(-0.930196 0.195942 -1.01953e-19)
(-0.960458 0.195185 0)
(-0.990468 0.193876 0)
(-1.02048 0.191979 -4.89073e-20)
(-1.05063 0.189931 0)
(-1.08082 0.188014 -4.76223e-20)
(-1.11089 0.186191 4.69931e-20)
(-1.14081 0.184387 4.63816e-20)
(-1.1706 0.182565 0)
(-1.20027 0.180704 -4.5209e-20)
(-1.22982 0.178789 -4.46465e-20)
(-1.25928 0.176815 8.81283e-20)
(-1.28863 0.17478 -4.35657e-20)
(-1.31788 0.172683 -4.30458e-20)
(-1.34702 0.170521 0)
(-1.37604 0.168295 0)