#           v             n
     0.523599             0
     0.648652             0
     0.790112             0
     0.953116             0
      1.13449             0
      1.34047             0
      1.56672             0
      1.82069             0
      2.09677   1.59923e-10
      2.40376   5.80308e-09
      2.73462   1.13421e-07
      3.09966     1.123e-06
      3.49026   8.12846e-06
      3.91837   3.89883e-05
      4.37366   0.000149742
      4.86986    0.00042674
       5.3948    0.00101971
      5.96412    0.00191851
      6.56366    0.00310319
      7.21112    0.00408921
      7.89023     0.0047031
      8.62085    0.00450718
      9.38447    0.00381341
      10.2033    0.00273522
      11.0564    0.00174973
      11.9684   0.000962591
      12.9159   0.000476734
      13.9262   0.000205545
      14.9731   0.000263498
