/*--------------------------------*- C++ -*----------------------------------*\
  =========                 |
  \\      /  F ield         | OpenFOAM: The Open Source CFD Toolbox
   \\    /   O peration     | Website:  https://openfoam.org
    \\  /    A nd           | Version:  12
     \\/     M anipulation  |
\*---------------------------------------------------------------------------*/
FoamFile
{
    format      ascii;
    class       surfaceScalarField;
    location    "10.98";
    object      phi;
}
// * * * * * * * * * * * * * * * * * * * * * * * * * * * * * * * * * * * * * //

dimensions      [1 0 -1 0 0 0 0];

internalField   nonuniform List<scalar> 
7429
(
0.000153066
-0.000153065
0.000309201
-0.000156135
0.000467711
-0.00015851
0.000628912
-0.000161201
0.00079318
-0.000164268
0.000960931
-0.000167751
0.00113257
-0.000171642
0.00130838
-0.000175804
0.00148847
-0.000180092
0.00167292
-0.000184447
0.00186174
-0.000188826
0.00205493
-0.000193191
0.00225248
-0.000197544
0.00245422
-0.000201738
0.00266004
-0.000205823
0.00286969
-0.000209647
0.00308287
-0.000213187
0.00329926
-0.000216386
0.00351842
-0.000219155
0.00373983
-0.00022141
0.00396292
-0.000223093
0.00418705
-0.000224134
0.00441147
-0.000224415
0.00463535
-0.000223878
0.00485778
-0.00022243
0.00507779
-0.000220012
0.0052943
-0.000216513
0.00550619
-0.000211885
0.00571223
-0.000206043
0.00591119
-0.000198959
0.00610175
-0.000190562
0.00628258
-0.000180828
0.00645237
-0.000169791
0.00660975
-0.000157376
0.00675334
-0.000143596
0.00688169
-0.000128342
0.00699374
-0.000112056
0.00708877
-9.50331e-05
0.007166
-7.72232e-05
0.00722421
-5.82121e-05
0.0072625
-3.82932e-05
0.00727966
-1.7153e-05
0.00727212
7.53853e-06
0.00723919
3.2928e-05
0.00717999
5.92003e-05
0.00709367
8.63202e-05
0.00697957
0.000114096
0.00683725
0.000142321
0.0066665
0.000170749
0.00646735
0.000199158
0.00624012
0.000227227
0.00598525
0.000254872
0.00570364
0.00028161
0.00539621
0.000307424
0.00506435
0.000331864
0.00470929
0.000355056
0.00433319
0.0003761
0.00393764
0.000395551
0.00352529
0.000412349
0.00309839
0.000426901
0.00266027
0.000438117
0.00221386
0.000446414
0.00176299
0.00045087
0.00131147
0.000451514
0.000863312
0.000448162
0.000422796
0.000440516
-5.71319e-06
0.000428509
-0.000417598
0.000411885
-0.000808227
0.000390629
-0.00117304
0.00036481
-0.0015078
0.000334763
-0.00180811
0.000300306
-0.00206998
0.000261869
-0.00228981
0.000219834
-0.00246445
0.000174645
-0.00259133
0.00012687
-0.00266859
7.7263e-05
-0.00269559
2.70057e-05
-0.00266455
-3.10406e-05
-0.00257863
-8.59205e-05
-0.00244083
-0.000137803
-0.00225345
-0.000187376
-0.00201992
-0.000233532
-0.00174353
-0.000276392
-0.00142905
-0.000314478
-0.00108162
-0.000347436
-0.000707918
-0.000373697
-0.000315186
-0.000392732
8.89781e-05
-0.000404164
0.000496083
-0.000407105
0.000897423
-0.00040134
0.00128395
-0.000386529
0.00164668
-0.000362732
0.00197692
-0.000330238
0.00226636
-0.000289434
0.00250748
-0.000241129
0.00269353
-0.000186044
0.0028194
-0.000125871
0.00288129
-6.18921e-05
0.00287165
9.64405e-06
0.00278955
8.21026e-05
0.00263952
0.000150026
0.00242577
0.000213747
0.00215336
0.000272411
0.00182876
0.000324601
0.00146073
0.00036803
0.00105949
0.000401238
0.000637077
0.000422415
0.000206382
0.000430695
-0.000218713
0.000425096
-0.000624164
0.00040545
-0.00099588
0.000371716
-0.00132098
0.0003251
-0.0015873
0.000266316
-0.00178503
0.00019773
-0.00190637
0.00012134
-0.00194698
4.0618e-05
-0.00189629
-5.06895e-05
-0.00176074
-0.000135559
-0.00154727
-0.000213462
-0.00126451
-0.000282766
-0.00092321
-0.000341298
-0.000537517
-0.000385693
-0.000124087
-0.000413429
0.000298265
-0.000422353
0.000710098
-0.000411833
0.00109175
-0.000381652
0.00142463
-0.000332882
0.0016922
-0.000267569
0.00188066
-0.000188463
0.00198041
-9.9744e-05
0.00198536
-4.95011e-06
0.001889
9.63592e-05
0.00170317
0.000185826
0.00143866
0.000264515
0.00111024
0.000328423
0.000736648
0.000373589
0.000340516
0.000396132
-5.41288e-05
0.000394645
-0.000422314
0.000368185
-0.000740971
0.000318658
-0.000989934
0.000248963
-0.00115367
0.000163735
-0.00122284
6.91682e-05
-0.00118842
-3.44175e-05
-0.00105812
-0.000130295
-0.000845404
-0.000212721
-0.00056733
-0.000278074
-0.000246404
-0.000320926
9.05452e-05
-0.000336949
0.00041558
-0.000325035
0.00070157
-0.00028599
0.000924911
-0.000223341
0.00106747
-0.000142554
0.00111892
-5.14597e-05
0.00107089
4.80316e-05
0.00093414
0.000136753
0.000723669
0.000210471
0.000460332
0.000263338
0.000170016
0.000290316
-0.000118811
0.000288826
-0.000378478
0.000259667
-0.000585478
0.000207
-0.000722733
0.000137255
-0.000781639
5.89065e-05
-0.000760205
-2.14348e-05
-0.000669453
-9.07515e-05
-0.000526368
-0.000143086
-0.000352091
-0.000174276
-0.000170599
-0.000181493
-4.31397e-06
-0.000166285
0.00012837
-0.000132684
0.000216013
-8.76434e-05
0.000254903
-3.88897e-05
0.000248572
6.33074e-06
0.00020902
3.9552e-05
0.000151885
5.71355e-05
9.44137e-05
5.74708e-05
5.26445e-05
4.17693e-05
3.80075e-05
1.4637e-05
5.74637e-05
-1.94562e-05
0.000110381
-5.29177e-05
0.000186607
-7.62257e-05
0.000271911
-8.53037e-05
0.000349536
-7.76257e-05
0.000403023
-5.34862e-05
0.000419045
-1.60225e-05
0.000386859
3.21858e-05
0.000306348
8.05112e-05
0.000183669
0.000122679
3.1133e-05
0.000152536
-0.000133302
0.000164435
-0.000288432
0.00015513
-0.000413065
0.000124633
-0.000489505
7.64398e-05
-0.000505414
1.59091e-05
-0.000455856
-4.95585e-05
-0.000345238
-0.000110618
-0.000186523
-0.000158715
-0.000186523
0.000160858
-0.000313923
0.000326901
-0.000322178
0.000495537
-0.000327145
0.000667055
-0.000332719
0.000841701
-0.000338913
0.00101968
-0.000345734
0.00120109
-0.000353048
0.00138633
-0.000361043
0.001576
-0.000369756
0.00177073
-0.000379186
0.00197104
-0.000389132
0.00217745
-0.000399597
0.00239037
-0.000410464
0.0026096
-0.000420969
0.00283471
-0.000430935
0.00306514
-0.00044007
0.00330025
-0.000448304
0.0035394
-0.000455531
0.00378184
-0.000461602
0.00402683
-0.000466397
0.00427347
-0.000469729
0.00452074
-0.000471405
0.00476756
-0.000471231
0.00501267
-0.000468988
0.00525472
-0.000464482
0.00549218
-0.000457478
0.00572345
-0.000447776
0.00594693
-0.000435367
0.006161
-0.000420109
0.00636428
-0.000402247
0.00655611
-0.000382387
0.00673583
-0.000360548
0.00690265
-0.000336608
0.0070559
-0.000310626
0.00719477
-0.000282466
0.0073186
-0.000252172
0.0074261
-0.000219556
0.00751581
-0.000184746
0.00758633
-0.000147744
0.00763682
-0.000108702
0.00766638
-6.78489e-05
0.0076755
-2.62733e-05
0.00765339
2.96438e-05
0.0076008
8.55205e-05
0.00751856
0.000141443
0.00740693
0.000197947
0.00726601
0.000255014
0.00709595
0.000312386
0.00689683
0.000369869
0.00666907
0.000426912
0.00641298
0.000483317
0.00612918
0.000538675
0.00581827
0.000592523
0.00548143
0.000644266
0.00511966
0.000693627
0.00473459
0.000740127
0.00432778
0.000782915
0.00390134
0.000821991
0.00345771
0.000855982
0.00299936
0.000885251
0.00252963
0.000907842
0.00205213
0.00092392
0.00157062
0.000932372
0.00108935
0.000932789
0.000612527
0.000924983
0.000144826
0.000908217
-0.000308978
0.000882313
-0.000743976
0.000846883
-0.00115513
0.00080178
-0.00153765
0.000747333
-0.00188692
0.000684028
-0.00219822
0.000611615
-0.00246719
0.000530833
-0.00269036
0.000443005
-0.0028642
0.000348482
-0.00298572
0.000248394
-0.00305245
0.000143991
-0.00306433
3.88926e-05
-0.00301393
-8.14403e-05
-0.00290682
-0.000193039
-0.00274425
-0.000300367
-0.00252866
-0.000402967
-0.00226311
-0.000499084
-0.00195149
-0.000588008
-0.00159907
-0.0006669
-0.00121199
-0.000734515
-0.000797526
-0.000788163
-0.00036338
-0.000826878
8.16925e-05
-0.000849237
0.000528536
-0.000853948
0.000967529
-0.000840334
0.00138886
-0.000807865
0.00178286
-0.000756726
0.00213995
-0.000687331
0.00245135
-0.000600831
0.0027088
-0.000498582
0.00290478
-0.000382018
0.00303362
-0.000254711
0.00309196
-0.000120235
0.0030719
2.97047e-05
0.00297586
0.000178139
0.00280665
0.000319237
0.00256806
0.000452337
0.00226533
0.000575145
0.00190627
0.000683661
0.00150064
0.000773661
0.00106016
0.000841712
0.000597669
0.000884909
0.000128089
0.000900274
-0.000333975
0.00088716
-0.00077275
0.000844226
-0.00117359
0.000772556
-0.00152167
0.00067318
-0.00180452
0.000549165
-0.00201109
0.000404302
-0.00213332
0.000243572
-0.00216652
7.38201e-05
-0.0021023
-0.000114913
-0.00194764
-0.000290221
-0.00170859
-0.000452511
-0.00139401
-0.000597343
-0.00101672
-0.000718593
-0.000592519
-0.000809892
-0.000139997
-0.000865951
0.000320439
-0.000882789
0.00076707
-0.000858464
0.00117917
-0.000793754
0.00153574
-0.000689454
0.00181967
-0.000551491
0.00201639
-0.000385188
0.00211587
-0.000199228
0.0021082
2.72307e-06
0.00199604
0.00020852
0.00178727
0.000394594
0.00149316
0.000558626
0.00113078
0.000690802
0.000721692
0.000782678
0.000290372
0.000827452
-0.000136426
0.000821443
-0.000531885
0.000763644
-0.00087078
0.000657553
-0.00113161
0.000509794
-0.00129793
0.000330055
-0.00136008
0.000131316
-0.00131098
-8.35206e-05
-0.00116005
-0.000281219
-0.000920189
-0.000452584
-0.000610607
-0.000587656
-0.000257761
-0.000673772
0.000110652
-0.000705362
0.000462455
-0.000676838
0.000769044
-0.000592579
0.00100492
-0.000459216
0.0011512
-0.00028883
0.00119724
-9.75083e-05
0.00113683
0.000108446
0.000981993
0.00029159
0.000748719
0.000443745
0.000461045
0.000551011
0.000147856
0.000603505
-0.000160134
0.000596816
-0.000432712
0.000532245
-0.000645094
0.000419382
-0.000779665
0.000271826
-0.000828678
0.000107919
-0.000791583
-5.85298e-05
-0.000681832
-0.000200502
-0.000518339
-0.00030658
-0.00032553
-0.000367085
-0.000129564
-0.000377459
4.50108e-05
-0.00034086
0.000178985
-0.000266658
0.00026097
-0.000169628
0.000288432
-6.6352e-05
0.000266954
2.78086e-05
0.000210525
9.59809e-05
0.000136883
0.000130777
6.58133e-05
0.000128541
1.45755e-05
9.3007e-05
-3.9915e-06
3.3204e-05
1.63351e-05
-3.97828e-05
7.14698e-05
-0.000108052
0.000154858
-0.000159614
0.00024875
-0.000179196
0.000335167
-0.000164043
0.0003964
-0.000114719
0.00041823
-3.78516e-05
0.00039036
6.00557e-05
0.000312319
0.000158552
0.000190406
0.000244592
3.75896e-05
0.000305352
-0.000127723
0.000329748
-0.000283658
0.000311065
-0.000409109
0.000250083
-0.000486084
0.000153415
-0.000502446
3.22712e-05
-0.000453442
-9.85619e-05
-0.000343499
-0.00022056
-0.000185576
-0.000316639
-0.000372099
8.37704e-05
-0.000397693
0.000168838
-0.000407245
0.000255476
-0.000413781
0.000344103
-0.000421345
0.000435221
-0.000430032
0.000529664
-0.000440176
0.000628415
-0.000451799
0.000732964
-0.000465592
0.000845016
-0.000481807
0.000966955
-0.000501125
0.00109789
-0.000520069
0.00123691
-0.000538617
0.00138332
-0.000556865
0.00153816
-0.000575814
0.00170213
-0.000594907
0.00187568
-0.000613616
0.00205899
-0.000631609
0.00225224
-0.000648779
0.00245524
-0.000664603
0.00266759
-0.000678747
0.00288861
-0.000690752
0.00311764
-0.000700433
0.00335369
-0.000707278
0.00359578
-0.000711084
0.00384239
-0.000711083
0.00409226
-0.000707357
0.00434383
-0.000699338
0.00459599
-0.00068753
0.00484696
-0.000671078
0.00509492
-0.000650205
0.00533725
-0.000624716
0.00557164
-0.000594937
0.00579546
-0.000560432
0.00600584
-0.000521009
0.00620077
-0.000477393
0.00638062
-0.000432018
0.00654527
-0.000384207
0.00669355
-0.000333029
0.00682333
-0.000277528
0.00693265
-0.000218013
0.00701822
-0.000153422
0.00707544
-8.34936e-05
0.00711158
-6.49339e-06
0.00712019
7.69095e-05
0.00709899
0.000162642
0.00704583
0.000251103
0.00695907
0.000341781
0.00683755
0.000433904
0.00668057
0.000526842
0.00648768
0.000619805
0.00625883
0.000712168
0.00599442
0.000803083
0.00569496
0.000891989
0.00536121
0.000978016
0.00499449
0.00106035
0.00459618
0.00113844
0.0041685
0.00121059
0.00371408
0.00127641
0.00323642
0.00133364
0.0027389
0.00138277
0.00222566
0.00142109
0.00170102
0.00144856
0.00116959
0.0014638
0.000636713
0.00146567
0.000107735
0.00145396
-0.000411492
0.00142744
-0.000915452
0.00138627
-0.00139816
0.00132959
-0.00185368
0.0012573
-0.00227595
0.0011696
-0.00265943
0.00106751
-0.00299844
0.000950619
-0.00328763
0.000820024
-0.00352292
0.000678296
-0.00370006
0.000525622
-0.00381568
0.000364018
-0.00386785
0.000196159
-0.00385172
2.27616e-05
-0.0037653
-0.000167859
-0.00361356
-0.000344785
-0.00339743
-0.000516497
-0.00311931
-0.00068109
-0.00278234
-0.00083605
-0.00239271
-0.000977637
-0.0019558
-0.00110381
-0.00147966
-0.00121066
-0.000972854
-0.00129497
-0.000444926
-0.00135481
9.37343e-05
-0.0013879
0.00063214
-0.00139235
0.00115867
-0.00136686
0.00166169
-0.00131088
0.00212964
-0.00122468
0.00255131
-0.001109
0.0029158
-0.000965318
0.00321434
-0.00079713
0.00343911
-0.000606787
0.00358192
-0.00039752
0.00363647
-0.00017478
0.0035992
6.69765e-05
0.00347306
0.000304275
0.00325985
0.000532443
0.00296366
0.000748533
0.00259143
0.000947377
0.00215303
0.00112205
0.0016606
0.0012661
0.00112832
0.00137399
0.000572477
0.00144075
1.00192e-05
0.00146273
-0.00054058
0.00143776
-0.00106098
0.00136462
-0.0015329
0.00124448
-0.00193948
0.00107976
-0.00226626
0.000875947
-0.00249993
0.000637973
-0.0026321
0.00037574
-0.00265385
9.55666e-05
-0.00256242
-0.000206343
-0.0023642
-0.000488434
-0.00206599
-0.00075072
-0.00167907
-0.000984266
-0.00121886
-0.00117881
-0.000706003
-0.00132275
-0.000161415
-0.00141054
0.00038904
-0.00143324
0.000919858
-0.00138928
0.00140538
-0.00127928
0.00182262
-0.0011067
0.00214998
-0.00087885
0.00237019
-0.000605396
0.00247177
-0.000300809
0.00244617
2.83276e-05
0.00229945
0.000355237
0.00203852
0.000655524
0.00167734
0.00091981
0.00123702
0.00113112
0.000744295
0.0012754
0.000229044
0.0013427
-0.000276259
0.00132675
-0.000739936
0.00122732
-0.00113262
0.00105023
-0.00142883
0.000806011
-0.00161009
0.000511306
-0.00166383
0.000185065
-0.00158767
-0.000159681
-0.00139162
-0.000477273
-0.00109104
-0.000753167
-0.000711424
-0.00096727
-0.000282734
-0.00110246
0.000157625
-0.00114572
0.000574008
-0.00109322
0.000931908
-0.000950479
0.00120165
-0.000728959
0.00136194
-0.000449118
0.00140089
-0.000136464
0.00131573
0.000193607
0.00112014
0.000487188
0.000834451
0.000729429
0.000488491
0.000896971
0.000117393
0.000974603
-0.000240297
0.000954507
-0.000550365
0.000842314
-0.000784271
0.000653287
-0.000922471
0.000410027
-0.000957768
0.000143216
-0.000892877
-0.00012342
-0.000744765
-0.000348614
-0.000538074
-0.000513271
-0.000303057
-0.000602102
-7.17546e-05
-0.000608761
0.000126567
-0.000539182
0.000270692
-0.000410783
0.000348458
-0.000247393
0.000359234
-7.71289e-05
0.000312031
7.50121e-05
0.000225164
0.000182848
0.000121497
0.000234444
2.47518e-05
0.000225286
-4.31137e-05
0.000160873
-6.91825e-05
5.92728e-05
-4.5553e-05
-6.34123e-05
2.00754e-05
-0.000173681
0.000119526
-0.000259064
0.000232995
-0.000292665
0.00033848
-0.000269528
0.000415212
-0.000191452
0.000446951
-6.95901e-05
0.000423038
8.3969e-05
0.000342759
0.00023883
0.000213205
0.000374146
4.93975e-05
0.00046916
-0.00012832
0.000507466
-0.000295977
0.000478721
-0.000430871
0.000384978
-0.000513667
0.00023621
-0.000531575
5.01796e-05
-0.000479932
-0.000150206
-0.00036358
-0.000336912
-0.000196393
-0.000483826
-0.000568492
7.60962e-05
-0.000473788
0.000158673
-0.000489822
0.000247411
-0.000502519
0.000344889
-0.000518822
0.000452902
-0.000538045
0.000573695
-0.000560968
0.000707091
-0.000585194
0.000854328
-0.000612829
0.0010121
-0.000639578
0.00117976
-0.000668782
0.00135839
-0.000698702
0.00155155
-0.000731781
0.00175933
-0.000764645
0.0019809
-0.000797378
0.00221595
-0.000829956
0.00246321
-0.000860874
0.00272179
-0.000890187
0.00299119
-0.000918183
0.00327167
-0.00094508
0.00356317
-0.00097025
0.00386496
-0.000992538
0.00417639
-0.00101186
0.00449562
-0.00102651
0.00482118
-0.00103664
0.00514932
-0.00103923
0.00547775
-0.00103578
0.00580016
-0.00102175
0.00611354
-0.00100091
0.0064096
-0.000967134
0.00668875
-0.00092936
0.0069507
-0.000886668
0.00719751
-0.000841744
0.00742945
-0.000792366
0.00764717
-0.000738738
0.0078496
-0.000679821
0.00803358
-0.00061599
0.00819596
-0.000546587
0.00833489
-0.000471963
0.00844917
-0.000391808
0.00853736
-0.000306205
0.00859909
-0.000215148
0.00863644
-0.000120843
0.00863924
-9.29273e-06
0.00859506
0.000121083
0.00851149
0.000246215
0.00839033
0.000372267
0.00823188
0.000500225
0.0080365
0.00062929
0.00780355
0.000759789
0.00753297
0.000890388
0.00722386
0.00102127
0.00687701
0.00114993
0.00649187
0.00127713
0.00606975
0.00140013
0.00561084
0.00151926
0.00511755
0.00163173
0.00459289
0.00173526
0.00403892
0.00183038
0.00345911
0.00191345
0.00285723
0.00198464
0.00223827
0.00204005
0.00160788
0.00207894
0.000971353
0.00210033
0.000335074
0.00210195
-0.000294758
0.00208379
-0.000911532
0.00204422
-0.00150847
0.00198321
-0.00207781
0.00189893
-0.00261289
0.00179237
-0.00310632
0.00166303
-0.00355156
0.00151276
-0.00394176
0.00134081
-0.00427072
0.00114899
-0.00453391
0.00094148
-0.00472628
0.000717997
-0.00484302
0.00048075
-0.00488081
0.00023395
-0.00482956
-2.84857e-05
-0.00470464
-0.00029278
-0.00449988
-0.000549541
-0.00421666
-0.000799717
-0.00385912
-0.00103863
-0.00343155
-0.00126363
-0.00294056
-0.00146863
-0.00239422
-0.00165015
-0.00180163
-0.00180325
-0.00117382
-0.00192277
-0.000522737
-0.00200589
0.000138916
-0.00204955
0.000797771
-0.00205121
0.00143963
-0.00200873
0.00205008
-0.00192132
0.00261554
-0.00179014
0.00312277
-0.00161623
0.00355718
-0.00139973
0.00390764
-0.00114758
0.00416568
-0.000864828
0.00432397
-0.000555814
0.00437771
-0.000228516
0.00431627
0.000128421
0.00414757
0.00047297
0.00387315
0.000806863
0.00349865
0.00112303
0.00303252
0.00141351
0.00248751
0.00166707
0.0018791
0.0018745
0.00122435
0.00202874
0.000543364
0.00212173
-0.000142208
0.0021483
-0.000810219
0.00210577
-0.00143843
0.00199283
-0.00200432
0.00181038
-0.00248847
0.0015639
-0.00287183
0.00125931
-0.00314023
0.000906377
-0.003282
0.00051751
-0.003293
0.000106565
-0.00316537
-0.000333977
-0.0029087
-0.000745098
-0.00253076
-0.00112866
-0.00204594
-0.00146909
-0.00147516
-0.00174959
-0.000841836
-0.00195607
-0.000176315
-0.00207606
0.000494211
-0.00210377
0.00113633
-0.0020314
0.00172037
-0.00186332
0.00221606
-0.00160239
0.00259904
-0.00126183
0.00285131
-0.000857666
0.00295853
-0.00040803
0.00290929
7.75721e-05
0.00271396
0.000550563
0.00238063
0.000988859
0.001928
0.00137244
0.00138295
0.00167617
0.000779028
0.00187932
0.000151674
0.00197006
-0.000458464
0.00193689
-0.00101246
0.00178131
-0.00147536
0.00151314
-0.0018178
0.00114845
-0.00201763
0.000711139
-0.00206211
0.000229541
-0.00194915
-0.000272635
-0.00169208
-0.00073434
-0.00131034
-0.00113491
-0.000837264
-0.00144035
-0.000309977
-0.00162975
0.000227233
-0.00168293
0.000729285
-0.00159527
0.00115501
-0.0013762
0.00146897
-0.00104292
0.00164727
-0.000627419
0.0016751
-0.000164291
0.00155616
0.000312548
0.00130463
0.000738719
0.00094784
0.00108622
0.000524092
0.00132072
7.61025e-05
0.00142259
-0.000348357
0.00137897
-0.000708848
0.0012028
-0.00097177
0.000916209
-0.00111516
0.000553416
-0.001132
0.000160056
-0.00103008
-0.000225337
-0.000830851
-0.000547846
-0.000566773
-0.00077735
-0.000276181
-0.000892694
1.56816e-06
-0.00088651
0.000231631
-0.000769245
0.000389103
-0.000568255
0.00046187
-0.00032016
0.000450399
-6.56587e-05
0.000370188
0.000155223
0.000244247
0.00030879
0.000102359
0.000376332
-2.55905e-05
0.000353235
-0.000115059
0.000250341
-0.000148572
9.27853e-05
-0.000120755
-9.12287e-05
-3.78325e-05
-0.000256604
8.20334e-05
-0.00037893
0.000221847
-0.000432478
0.00035187
-0.000399552
0.000448032
-0.000287613
0.000491369
-0.000112927
0.000470694
0.000104644
0.000385303
0.000324221
0.000243893
0.000515556
6.37501e-05
0.000649303
-0.000132015
0.000703231
-0.000316508
0.000663214
-0.000464677
0.000533147
-0.000555531
0.000327064
-0.000575395
7.00438e-05
-0.000519557
-0.000206044
-0.000393585
-0.000462884
-0.000212571
-0.000664841
-0.000781062
1.91055e-05
-0.000492894
3.99639e-05
-0.00051068
6.11361e-05
-0.000523691
8.29379e-05
-0.000540623
0.000104673
-0.00055978
0.000128629
-0.000584923
0.000150198
-0.000606763
0.000173768
-0.000636398
0.000189168
-0.000654978
0.000207043
-0.000686656
0.000230147
-0.000721805
0.000265988
-0.000767621
0.00031959
-0.000818247
0.000397535
-0.000875322
0.000503721
-0.000936142
0.000642087
-0.00099924
0.000814504
-0.0010626
0.00102079
-0.00112446
0.00125921
-0.0011835
0.00152639
-0.00123743
0.00181877
-0.00128491
0.00213527
-0.00132836
0.0024718
-0.00136305
0.00282692
-0.00139175
0.00319479
-0.0014071
0.00357363
-0.00141463
0.0039528
-0.00140092
0.00433228
-0.00138039
0.00469974
-0.0013346
0.00506051
-0.00129013
0.00541139
-0.00123754
0.00575239
-0.00118275
0.00608172
-0.00112169
0.00639877
-0.00105579
0.0067025
-0.000983553
0.00699094
-0.000904434
0.0072617
-0.00081734
0.00751176
-0.000722028
0.00773912
-0.000619163
0.00793925
-0.00050634
0.00810492
-0.000380813
0.00823101
-0.000246937
0.00832215
-0.00010043
0.00838102
6.22058e-05
0.00839865
0.000228593
0.0083706
0.000400317
0.00829449
0.000576328
0.00816831
0.000755472
0.007991
0.000937102
0.00776078
0.0011206
0.0074782
0.00130386
0.0071416
0.00148653
0.00675353
0.0016652
0.00631332
0.00184035
0.00582466
0.00200791
0.00528924
0.00216715
0.00471071
0.00231379
0.00409315
0.00244794
0.00344213
0.00256447
0.00276249
0.00266428
0.00205994
0.00274261
0.00134077
0.00279811
0.000612532
0.00282856
-0.000117673
0.00283215
-0.000841601
0.00280772
-0.00155056
0.00275317
-0.00223628
0.00266894
-0.00289027
0.00255292
-0.00350385
0.00240595
-0.00406814
0.00222732
-0.0045751
0.00201972
-0.00501644
0.00178215
-0.00538387
0.00151642
-0.00567253
0.00123014
-0.00587343
0.000918901
-0.00598661
0.000593924
-0.00600846
0.000255803
-0.00592676
-0.00011019
-0.00575235
-0.000467186
-0.00548362
-0.000818275
-0.00512246
-0.00116088
-0.00467234
-0.00148875
-0.00413959
-0.00179638
-0.0035325
-0.00207572
-0.0028615
-0.00232114
-0.00213746
-0.0025273
-0.0013734
-0.00268683
-0.000584027
-0.00279527
0.000215353
-0.00284893
0.00100875
-0.00284461
0.00177948
-0.00277945
0.00250913
-0.00265098
0.00318132
-0.00246233
0.00378136
-0.00221627
0.00429469
-0.00191306
0.00470532
-0.00155822
0.00500107
-0.00116057
0.00517321
-0.000727954
0.00521503
-0.00027034
0.00512852
0.000214934
0.00491107
0.000690421
0.00456566
0.00115227
0.00410003
0.00158866
0.00352604
0.00198751
0.00285908
0.00233402
0.00211765
0.00261593
0.00132453
0.00282186
0.000502691
0.00294357
-0.000321639
0.00297263
-0.00112167
0.0029058
-0.00187093
0.0027421
-0.00254209
0.00248154
-0.00311268
0.00213448
-0.00355994
0.00170658
-0.00386523
0.00121166
-0.00401598
0.000668257
-0.00400531
9.59001e-05
-0.00383459
-0.000504699
-0.00350848
-0.00107121
-0.0030381
-0.00159904
-0.00244264
-0.00206454
-0.00174599
-0.00244624
-0.000979681
-0.00272238
-0.000172973
-0.00288277
0.000630041
-0.00290678
0.00139739
-0.00279874
0.00208857
-0.0025545
0.00267265
-0.00218647
0.00311871
-0.00170789
0.00340256
-0.00114152
0.0035101
-0.000515567
0.00343323
0.000154439
0.0031806
0.000803193
0.00276403
0.00140543
0.00220721
0.00192925
0.00154326
0.00234013
0.000812499
0.00261008
5.82504e-05
0.0027243
-0.000668739
0.00266387
-0.00132478
0.00243735
-0.00186568
0.00205404
-0.00225703
0.0015398
-0.00247441
0.000928521
-0.00250634
0.000261469
-0.00234953
-0.000429441
-0.00202082
-0.00106305
-0.00154676
-0.00160897
-0.000966051
-0.00202106
-0.000327894
-0.00226791
0.000317678
-0.0023285
0.000914901
-0.0021925
0.00141443
-0.00187573
0.00177574
-0.00140423
0.00197051
-0.000822189
0.00198449
-0.000178278
0.00182394
0.000473101
0.00150711
0.00105555
0.00106924
0.00152409
0.000555938
0.00183402
2.08476e-05
0.00195768
-0.00047772
0.00187753
-0.000893564
0.00161865
-0.00118675
0.0012094
-0.00133377
0.000700429
-0.00132716
0.000153448
-0.00118125
-0.00037124
-0.000922792
-0.000806308
-0.00059302
-0.00110712
-0.000240079
-0.00124564
8.93794e-05
-0.00121597
0.000353548
-0.00103341
0.000523994
-0.0007387
0.000588536
-0.000384702
0.000551478
-2.86008e-05
0.000432494
0.000274207
0.000262379
0.000478904
7.72522e-05
0.000561459
-8.50459e-05
0.000515533
-0.000195959
0.000361255
-0.000236667
0.000133493
-0.000202484
-0.000125412
-0.000101673
-0.000357414
4.44195e-05
-0.000525023
0.000214053
-0.000602111
0.000370829
-0.000556328
0.000487528
-0.000404311
0.000542645
-0.000168045
0.00052458
0.000122709
0.00043255
0.000416251
0.000277082
0.000671024
7.84347e-05
0.00084795
-0.000137065
0.000918731
-0.000339797
0.000865945
-0.000502199
0.000695549
-0.000601522
0.000426388
-0.000623126
9.1647e-05
-0.000562534
-0.000266635
-0.000425978
-0.00059944
-0.000229949
-0.000860869
-0.00101101
-0.000256539
-0.000236354
-0.00050155
-0.000265669
-0.00071445
-0.000310791
-0.000876096
-0.000378977
-0.000971321
-0.000464555
-0.000976428
-0.000579815
-0.000901587
-0.000681604
-0.000698487
-0.000839497
-0.000460519
-0.000892946
-0.000163883
-0.000983292
0.000147058
-0.00103275
0.00046166
-0.00108222
0.000762977
-0.00111956
0.00104561
-0.00115795
0.00130769
-0.00119823
0.00155198
-0.00124352
0.00178472
-0.00129535
0.00201554
-0.00135529
0.00225383
-0.00142179
0.00251527
-0.00149887
0.00281266
-0.0015823
0.00315836
-0.00167407
0.00355354
-0.00175823
0.0040032
-0.00184142
0.004486
-0.0018899
0.00501058
-0.0019392
0.00551876
-0.0019091
0.00605986
-0.00192149
0.00653265
-0.00180739
0.00698738
-0.00174485
0.00739259
-0.00164276
0.00776824
-0.0015584
0.00811255
-0.001466
0.00842855
-0.00137179
0.00871744
-0.00127244
0.00897858
-0.00116558
0.00921226
-0.00105102
0.00941754
-0.000927305
0.00959173
-0.000793355
0.00973405
-0.000648658
0.00984489
-0.000491658
0.00992424
-0.000326285
0.00996613
-0.000142324
0.0099524
7.59402e-05
0.00988874
0.000292255
0.00978017
0.000508887
0.00962519
0.000731302
0.0094209
0.000959761
0.00916559
0.00119242
0.00885604
0.00143016
0.00849215
0.00166774
0.00807343
0.00190526
0.00759747
0.00214115
0.00706643
0.00237139
0.00648311
0.00259123
0.0058485
0.00280175
0.00516747
0.00299482
0.00444361
0.0031718
0.00368217
0.00332591
0.00288844
0.003458
0.00207033
0.00356072
0.00123441
0.00363403
0.000389139
0.00367383
-0.000456198
0.00367749
-0.00129299
0.00364451
-0.00211189
0.00357207
-0.00290221
0.00345926
-0.00365509
0.0033058
-0.00435771
0.00310858
-0.00500092
0.00287053
-0.00557561
0.0025944
-0.00607258
0.00227913
-0.00648596
0.00192979
-0.00680141
0.0015456
-0.00702135
0.00113884
-0.00712902
0.000701593
-0.00712977
0.000256546
-0.00701748
-0.000222477
-0.00679475
-0.00068991
-0.00646104
-0.00115198
-0.00601869
-0.00160323
-0.00547336
-0.00203408
-0.00483394
-0.00243579
-0.00410889
-0.00280077
-0.00330948
-0.00312056
-0.00245051
-0.00338627
-0.00154713
-0.0035902
-0.00061556
-0.00372683
0.000324832
-0.00378932
0.00125478
-0.00377456
0.00215602
-0.0036807
0.00300748
-0.00350244
0.00378816
-0.003243
0.00447968
-0.00290779
0.00506629
-0.00249968
0.00553234
-0.00202426
0.00586426
-0.00149249
0.00605119
-0.000914885
0.00608806
-0.000307211
0.00596504
0.000337959
0.00569151
0.000963943
0.00526949
0.00157429
0.00470758
0.00215057
0.00402113
0.00267396
0.00322786
0.00312729
0.00235001
0.00349379
0.00141288
0.00375899
0.000445332
0.00391112
-0.000521716
0.00393968
-0.00145616
0.00384024
-0.0023273
0.00361323
-0.00310394
0.00325818
-0.00375982
0.00279036
-0.00426572
0.00221248
-0.00460647
0.00155241
-0.00476624
0.000828029
-0.00473211
6.17665e-05
-0.00451612
-0.000720689
-0.00411724
-0.00147009
-0.00355008
-0.00216619
-0.0028371
-0.00277753
-0.0020098
-0.00327354
-0.00110037
-0.00363181
-0.000157311
-0.00382582
0.000787533
-0.00385163
0.00167965
-0.00369086
0.00248385
-0.0033587
0.00315444
-0.00285706
0.00365959
-0.00221304
0.00397315
-0.00145508
0.00407646
-0.000618873
0.00396963
0.000261265
0.00365504
0.00111779
0.00314867
0.0019118
0.00248277
0.00259515
0.00169491
0.00312799
0.00083301
0.00347198
-4.77489e-05
0.00360506
-0.000894153
0.00351028
-0.00165158
0.00319478
-0.00227147
0.00267392
-0.0027126
0.00198093
-0.00294458
0.00116051
-0.00295718
0.000274065
-0.00275302
-0.000633593
-0.00234786
-0.00146822
-0.00177681
-0.00218002
-0.00108435
-0.00271351
-0.000330087
-0.00302217
0.000424193
-0.00308278
0.00111632
-0.00288462
0.00168889
-0.0024483
0.0020957
-0.00181104
0.00230407
-0.00103056
0.00230045
-0.000174655
0.0020937
0.000679849
0.00170686
0.00144239
0.00118253
0.00204842
0.000578228
0.00243832
-4.31434e-05
0.00257906
-0.000618574
0.00245296
-0.00108945
0.00208952
-0.00141117
0.00153112
-0.00155869
0.000847951
-0.00152514
0.000119899
-0.00133037
-0.000566006
-0.00100888
-0.00112781
-0.000610314
-0.00150568
-0.000192433
-0.00166352
0.000188087
-0.00159649
0.000484703
-0.00133003
0.000665891
-0.000919888
0.000719295
-0.000438106
0.00065269
3.80049e-05
0.000492394
0.000434502
0.000275809
0.000695489
4.71355e-05
0.000790133
-0.000149183
0.000711851
-0.000281133
0.000493205
-0.000327715
0.000180075
-0.000284866
-0.00016826
-0.000163573
-0.000478708
1.06228e-05
-0.000699218
0.000208915
-0.000800404
0.000391796
-0.00073921
0.000528307
-0.000540822
0.000594403
-0.000234141
0.000577831
0.000139281
0.000478472
0.00051561
0.000309044
0.000840452
9.23922e-05
0.0010646
-0.000142225
0.00115335
-0.000362307
0.00108603
-0.000537876
0.000871119
-0.000644838
0.000533349
-0.000667833
0.000114642
-0.000602545
-0.000331923
-0.000455998
-0.000745988
-0.000246093
-0.00107077
-0.0012571
-0.000127278
-0.000109076
-0.000242234
-0.000150712
-0.000307841
-0.000245184
-0.000306218
-0.0003806
-0.000215258
-0.000555515
-1.82853e-05
-0.000776786
0.000190602
-0.000890492
0.000403498
-0.00105239
0.000198262
-0.000687709
-0.000193725
-0.000591305
-0.000682194
-0.000544277
-0.00115419
-0.000610227
-0.00156433
-0.000709424
-0.00186865
-0.000853628
-0.00204303
-0.00102385
-0.00207692
-0.00120963
-0.00197434
-0.00139793
-0.00174603
-0.00158359
-0.00140889
-0.00175893
-0.000984727
-0.00192303
-0.000503574
-0.00206346
3.33266e-05
-0.00221097
0.00060269
-0.00232759
0.001218
-0.00245672
0.00186109
-0.00253299
0.00257657
-0.00265469
0.00331753
-0.00265006
0.0041463
-0.00275025
0.00481224
-0.00247333
0.0053686
-0.00230121
0.00586931
-0.00214347
0.00633493
-0.00202403
0.00677416
-0.00190522
0.0071911
-0.00178872
0.0075898
-0.00167114
0.0079699
-0.00154567
0.00833397
-0.00141509
0.00867704
-0.00127037
0.00899477
-0.00111109