/*--------------------------------*- C++ -*----------------------------------*\
  =========                 |
  \\      /  F ield         | OpenFOAM: The Open Source CFD Toolbox
   \\    /   O peration     | Website:  https://openfoam.org
    \\  /    A nd           | Version:  12
     \\/     M anipulation  |
\*---------------------------------------------------------------------------*/
FoamFile
{
    format      ascii;
    class       surfaceScalarField;
    location    "12.96";
    object      phi;
}
// * * * * * * * * * * * * * * * * * * * * * * * * * * * * * * * * * * * * * //

dimensions      [1 0 -1 0 0 0 0];

internalField   nonuniform List<scalar> 
7429
(
0.000163158
-0.000163157
0.000330443
-0.000167284
0.000500502
-0.000170058
0.000673707
-0.000173204
0.000850479
-0.000176771
0.00103122
-0.00018074
0.0012163
-0.000185077
0.00140605
-0.000189754
0.00160079
-0.000194739
0.00180077
-0.000199981
0.00200619
-0.000205414
0.00221715
-0.000210956
0.00243377
-0.000216621
0.00265597
-0.000222205
0.00288373
-0.000227751
0.00311681
-0.000233079
0.00335495
-0.000238141
0.00359776
-0.000242812
0.00384475
-0.000246989
0.00409531
-0.000250556
0.0043487
-0.000253392
0.00460408
-0.000255384
0.00486053
-0.000256444
0.00511695
-0.00025642
0.0053722
-0.00025525
0.00562497
-0.000252765
0.00587391
-0.000248945
0.00611757
-0.000243662
0.00635443
-0.000236852
0.00658295
-0.000228524
0.00680155
-0.000218594
0.00700861
-0.000207067
0.00720259
-0.000193979
0.0073819
-0.00017931
0.00754499
-0.000163082
0.00769038
-0.000145388
0.00781672
-0.000126345
0.00792314
-0.000106421
0.00800851
-8.53625e-05
0.00807185
-6.33449e-05
0.00811212
-4.02694e-05
0.00812716
-1.5044e-05
0.00811518
1.19797e-05
0.00807493
4.02552e-05
0.0080055
6.94297e-05
0.00790621
9.92928e-05
0.0077766
0.000129609
0.00761647
0.000160127
0.0074259
0.000190567
0.00720519
0.000220717
0.00695492
0.000250266
0.00667587
0.000279049
0.00636926
0.000306611
0.00603615
0.000333114
0.00567841
0.000357741
0.00529738
0.000381028
0.00489547
0.000401906
0.00447466
0.000420809
0.00403798
0.000436686
0.00358787
0.000450109
0.0031282
0.000459666
0.0026621
0.000466104
0.0021938
0.000468303
0.00172729
0.000466504
0.00126683
0.000460466
0.000816876
0.00044995
0.000381999
0.000434877
-3.33229e-05
0.000415321
-0.000424189
0.000390866
-0.000786156
0.000361967
-0.00111495
0.000328793
-0.00140621
0.000291263
-0.00165621
0.000249996
-0.00186157
0.000205364
-0.00201954
0.000157972
-0.00212748
0.000107933
-0.00218432
5.6845e-05
-0.00218869
4.36982e-06
-0.00213395
-5.4742e-05
-0.00202517
-0.000108779
-0.00186568
-0.000159491
-0.00165848
-0.000207197
-0.00140726
-0.000251218
-0.00111621
-0.000291053
-0.000790954
-0.000325257
-0.000437527
-0.000353427
-6.36028e-05
-0.000373924
0.000323043
-0.000386646
0.000713644
-0.000390601
0.0010991
-0.000385456
0.00146999
-0.000370893
0.00181669
-0.000346693
0.00213
-0.000313311
0.0024009
-0.000270898
0.00262131
-0.000220415
0.00278365
-0.000162338
0.00288258
-9.89259e-05
0.00291386
-3.12828e-05
0.0028643
4.95609e-05
0.00273829
0.00012601
0.00253907
0.000199218
0.00227095
0.000268116
0.00193929
0.000331667
0.00155134
0.000387944
0.00111637
0.000434975
0.000646168
0.000470199
0.000153796
0.000492373
-0.000346064
0.00049986
-0.000837331
0.000491267
-0.00130375
0.000466423
-0.00172918
0.000425424
-0.00209789
0.000368711
-0.00239581
0.000297926
-0.00261087
0.000215053
-0.00273306
0.000122196
-0.00275671
2.36494e-05
-0.00266672
-8.99918e-05
-0.00247201
-0.000194709
-0.00218001
-0.000292001
-0.00180059
-0.000379421
-0.00134629
-0.000454301
-0.000833738
-0.000512551
-0.00028348
-0.000550258
0.000282181
-0.000565661
0.000838131
-0.00055595
0.00135944
-0.000521311
0.00182181
-0.000462363
0.00220321
-0.000381401
0.00248428
-0.000281077
0.00265084
-0.000166554
0.00269498
-4.4148e-05
0.00260147
9.35195e-05
0.00238259
0.000218879
0.0020516
0.000330983
0.00162485
0.000426751
0.00112469
0.000500163
0.000578962
0.000545729
1.91877e-05
0.000559774
-0.000521559
0.000540746
-0.00101153
0.000489968
-0.0014211
0.000409572
-0.00172657
0.000305475
-0.00191
0.000183426
-0.00196413
5.41279e-05
-0.00187847
-8.56542e-05
-0.0016717
-0.00020677
-0.00136392
-0.00030778
-0.000982
-0.000381924
-0.000558999
-0.000423001
-0.000132565
-0.000426434
0.000259573
-0.000392138
0.000582045
-0.000322472
0.000805921
-0.000223876
0.000912376
-0.000106455
0.000886382
2.59944e-05
0.000733092
0.00015329
0.000472919
0.000260173
0.000132509
0.00034041
-0.000252502
0.000385011
-0.000639633
0.000387131
-0.000986427
0.000346794
-0.00125404
0.000267614
-0.00141192
0.000157879
-0.00144247
3.05534e-05
-0.0013309
-0.000111578
-0.0010974
-0.000233491
-0.000767538
-0.000329867
-0.00037801
-0.000389527
2.66274e-05
-0.000404638
0.000397945
-0.000371318
0.000693549
-0.000295603
0.00088089
-0.000187341
0.000942359
-6.14698e-05
0.00087063
7.1729e-05
0.000686881
0.000183749
0.000421475
0.000265406
0.000115199
0.000306276
-0.00018635
0.000301549
-0.00043925
0.0002529
-0.000609877
0.000170627
-0.00067884
6.8963e-05
-0.000640818
-3.8022e-05
-0.000511028
-0.00012979
-0.000315641
-0.000195386
-8.86436e-05
-0.000226998
0.000133873
-0.000222516
0.000320152
-0.000186279
0.000448072
-0.00012792
0.000507765
-5.96928e-05
0.00050178
5.98509e-06
0.000442487
5.92931e-05
0.000349122
9.33646e-05
0.000242064
0.000107058
0.000140422
0.000101641
5.75051e-05
8.29173e-05
1.81634e-06
5.56888e-05
-2.66464e-05
2.84627e-05
-3.22971e-05
5.65073e-06
-2.0527e-05
-1.17701e-05
-2.0527e-05
0.00017904
-0.000342197
0.000366079
-0.000354322
0.000556525
-0.000360503
0.00075094
-0.000367618
0.000949921
-0.000375751
0.00115418
-0.000384994
0.00136433
-0.000395234
0.00158106
-0.000406478
0.00180484
-0.000418517
0.00203618
-0.000431321
0.00227534
-0.000444571
0.00252253
-0.000458146
0.0027779
-0.000471987
0.00304126
-0.000485569
0.00331215
-0.000498641
0.00358988
-0.000510799
0.0038736
-0.000521861
0.00416241
-0.000531628
0.00445529
-0.000539861
0.00475102
-0.000546284
0.00504833
-0.000550709
0.0053458
-0.000552849
0.00564178
-0.000552425
0.00593457
-0.000549209
0.00622226
-0.000542942
0.00650297
-0.00053347
0.00677468
-0.000520654
0.00703563
-0.000504607
0.00728423
-0.000485454
0.00751917
-0.000463465
0.00773918
-0.000438607
0.0079432
-0.000411086
0.00813008
-0.000380856
0.00829873
-0.000347959
0.0084482
-0.000312548
0.00857758
-0.000274773
0.00868569
-0.000234449
0.00877121
-0.000191946
0.00883318
-0.000147325
0.00887078
-0.000100954
0.00888378
-5.32612e-05
0.00886947
-7.35168e-07
0.00881744
6.40113e-05
0.00873194
0.000125756
0.00861394
0.000187423
0.00846413
0.00024911
0.008283
0.00031074
0.00807108
0.000372046
0.00782897
0.000432672
0.00755727
0.000492418
0.00725676
0.000550773
0.00692836
0.000607451
0.00657302
0.000661956
0.00619223
0.000713898
0.00578729
0.000762681
0.00536023
0.000808092
0.00491301
0.000849121
0.00444781
0.000886012
0.00396765
0.000916842
0.00347533
0.000942431
0.00297442
0.000960574
0.00246869
0.000971833
0.00196205
0.000974946
0.00145904
0.000969513
0.000964157
0.000955351
0.000482181
0.000931926
1.78427e-05
0.000899216
-0.000423638
0.000856802
-0.000837462
0.00080469
-0.00121867
0.00074318
-0.00156278
0.000672901
-0.00186518
0.000593656
-0.00212177
0.000506592
-0.00232905
0.000412645
-0.00248405
0.000312965
-0.00258435
0.000208241
-0.00262894
0.000101428
-0.00261005
-1.45133e-05
-0.00253321
-0.000131586
-0.0023991
-0.000242886
-0.00221001
-0.000348581
-0.00196864
-0.000448565
-0.00167911
-0.000540754
-0.00134649
-0.000623667
-0.00097678
-0.000694972
-0.000577118
-0.00075309
-0.00015561
-0.000795432
0.000278773
-0.000821029
0.000716459
-0.000828287
0.00114756
-0.000816562
0.0015615
-0.000784829
0.00194819
-0.000733382
0.00229683
-0.000661949
0.00259834
-0.000572407
0.002843
-0.000465081
0.00302349
-0.000342824
0.00313317
-0.000208609
0.00316653
-6.46409e-05
0.00311354
0.000102547
0.00297823
0.000261319
0.00276315
0.000414303
0.00247188
0.000559388
0.00211029
0.000693259
0.00168638
0.000811854
0.00121103
0.000910322
0.000696901
0.000984327
0.000158764
0.00103051
-0.000386735
0.00104536
-0.000922354
0.00102689
-0.00143013
0.000974196
-0.00189261
0.000887903
-0.00229235
0.000768457
-0.00261449
0.000620066
-0.00284525
0.00044581
-0.00297514
0.000252088
-0.00299481
4.33148e-05
-0.00289463
-0.000190169
-0.00268226
-0.000407081
-0.0023646
-0.000609657
-0.00195137
-0.000792655
-0.00145684
-0.000948825
-0.000900186
-0.00106921
-0.000303704
-0.00114674
0.000308314
-0.00117768
0.000908067
-0.0011557
0.00146886
-0.00108211
0.00196416
-0.000957661
0.00236968
-0.000786919
0.00266545
-0.000576851
0.00283656
-0.000337663
0.00287102
-7.86106e-05
0.00276137
0.000203172
0.00251788
0.000462373
0.00215335
0.000695514
0.00168599
0.000894108
0.00114183
0.00104433
0.000551758
0.0011358
-5.11419e-05
0.00116267
-0.00063004
0.00111964
-0.00114996
0.00100989
-0.0015795
0.000839106
-0.00189278
0.000618759
-0.00207224
0.000362888
-0.00210788
8.97608e-05
-0.00199576
-0.000197771
-0.00175342
-0.000449107
-0.00140231
-0.00065889
-0.000972817
-0.000811417
-0.000501978
-0.00089384
-3.05531e-05
-0.000897859
0.000397108
-0.000819798
0.000745544
-0.000670909
0.000984047
-0.000462379
0.00109083
-0.000213237
0.00105224
6.45785e-05
0.000877382
0.000328152
0.00058558
0.000551975
0.000207135
0.000718855
-0.000218511
0.000810657
-0.000644235
0.000812854
-0.00102314
0.000725698
-0.00131356
0.000558038
-0.00148289
0.000327206
-0.00151067
5.83351e-05
-0.00138852
-0.000233725
-0.00113473
-0.000487283
-0.000777473
-0.000687126
-0.000358029
-0.000808971
7.44991e-05
-0.000837166
0.000467789
-0.000764608
0.0007764
-0.000604215
0.000965935
-0.000376876
0.00101824
-0.000113778
0.000929432
0.00016054
0.000721576
0.000391605
0.000428978
0.000558004
9.66996e-05
0.000638555
-0.000225196
0.000623445
-0.000490338
0.000518041
-0.000663909
0.000344198
-0.000726459
0.000131513
-0.000675824
-8.86576e-05
-0.000529117
-0.000276497
-0.000316385
-0.000408118
-7.51142e-05
-0.000468268
0.00015579
-0.00045342
0.000343618
-0.000374107
0.000466575
-0.000250877
0.000516359
-0.000109476
0.000498051
2.42932e-05
0.000426671
0.000130673
0.000323889
0.000196147
0.000210945
0.000220003
0.000108462
0.000204124
2.8371e-05
0.000163009
-2.07519e-05
0.000104812
-4.39951e-05
5.17059e-05
-4.3111e-05
4.76664e-06
-2.58763e-05
-2.90048e-05
-4.64034e-05
5.30135e-05
-0.000395209
0.000108293
-0.0004096
0.000165729
-0.000417937
0.000226343
-0.000428232
0.000291208
-0.000440614
0.000361911
-0.000455696
0.000439783
-0.000473105
0.000527029
-0.000493722
0.000625023
-0.000516509
0.000734678
-0.000540975
0.000856282
-0.000566174
0.000990409
-0.000592271
0.00113674
-0.000618317
0.00129551
-0.000644336
0.00146841
-0.000671547
0.00165665
-0.000699034
0.00186073
-0.000725939
0.00208066
-0.000751553
0.00231584
-0.000775046
0.00256559
-0.000796034
0.00282887
-0.000813987
0.00310436
-0.000828336
0.00339051
-0.000838571
0.00368552
-0.000844222
0.00398716
-0.000844582
0.00429354
-0.000839849
0.00460204
-0.000829153
0.00491056
-0.000813121
0.00521598
-0.000790876
0.00551505
-0.000762535
0.00580472
-0.000728276
0.00608209
-0.000688457
0.00634455
-0.00064331
0.00658992
-0.000593335
0.0068158
-0.000538424
0.00702141
-0.000480388
0.0072058
-0.000418834
0.00736923
-0.000355378
0.00750872
-0.000286816
0.00762342
-0.000215654
0.00770862
-0.000138456
0.00776285
-5.49638e-05
0.00779267
3.41836e-05
0.0077916
0.000126834
0.00775681
0.000222213
0.00768651
0.000319406
0.00757945
0.000417796
0.00743493
0.000516565
0.00725242
0.000615187
0.00703205
0.000712788
0.00677407
0.000808752
0.00647914
0.000902384
0.00614822
0.000992872
0.00578239
0.00107973
0.00538334
0.00116173
0.00495292
0.00123851
0.00449432
0.00130772
0.00401059
0.00136974
0.00350528
0.00142216
0.00298228
0.00146543
0.0024459
0.00149695
0.00190083
0.0015169
0.00135212
0.00152366
0.000805358
0.00151627
0.000266006
0.0014947
-0.000259957
0.00145789
-0.000766664
0.00140592
-0.00124816
0.00133829
-0.00169793
0.00125446
-0.00211021
0.00115546
-0.00247952
0.00104221
-0.00280063
0.000914767
-0.00306797
0.000773929
-0.00327801
0.000622692
-0.00342645
0.0004614
-0.00351006
0.00029185
-0.0035282
0.000119566
-0.00347135
-7.13562e-05
-0.00334722
-0.000255723
-0.00315687
-0.000433238
-0.00290159
-0.000603852
-0.0025855
-0.000764657
-0.00221246
-0.000913794
-0.0017892
-0.00104693
-0.0013227
-0.00116147
-0.00082181
-0.00125398
-0.000296599
-0.00132064
0.000242551
-0.00136018
0.000784068
-0.0013698
0.00131543
-0.00134792
0.00182476
-0.00129416
0.00229871
-0.00120733
0.00272601
-0.00108925
0.00309457
-0.000940964
0.00339253
-0.000763041
0.00361243
-0.000562722
0.00374504
-0.000341222
0.00378403
-0.000103626
0.00372079
0.000165779
0.00355925
0.000422864
0.00330144
0.000672113
0.00295119
0.000909633
0.00251622
0.00112823
0.00200604
0.00132203
0.00143408
0.00148228
0.000816033
0.00160238
0.000170486
0.00167606
-0.000483377
0.00169922
-0.00112421
0.00166772
-0.00173122
0.00158121
-0.00228222
0.0014389
-0.00275759
0.00124383
-0.00313725
0.000999725
-0.00340705
0.000715603
-0.00355375
0.000398788
-0.0035722
6.17666e-05
-0.00344711
-0.000315256
-0.0031903
-0.000663897
-0.00280776
-0.000992196
-0.00231104
-0.00128937
-0.00171842
-0.00154144
-0.00105398
-0.00173365
-0.000343057
-0.00185766
0.000381805
-0.00190254
0.00109009
-0.00186399
0.0017489
-0.00174092
0.00232725
-0.00153601
0.00279693
-0.00125659
0.0031332
-0.000913124
0.00331769
-0.000522151
0.00334315
-0.000104069
0.00319831
0.000348011
0.00289671
0.000763971
0.00245283
0.00113939
0.00188903
0.0014579
0.00123828
0.00169508
0.00053695
0.00183713
-0.000172658
0.00187228
-0.000848726
0.00179571
-0.00144946
0.00161062
-0.00193784
0.00132749
-0.00228347
0.000964389
-0.00246621
0.000545627
-0.00247718
0.000100738
-0.00231367
-0.000361287
-0.00199681
-0.000765963
-0.00155318
-0.00110253
-0.00102085
-0.00134375
-0.000445908
-0.00146878
0.000123811
-0.00146758
0.000637737
-0.00133372
0.00105021
-0.00108338
0.00132423
-0.000736402
0.00143703
-0.000326035
0.0013755
0.000126105
0.00115212
0.000551534
0.000789234
0.000914863
0.000324005
0.00118408
-0.000192745
0.00132741
-0.000706134
0.00132624
-0.00115922
0.00117878
-0.00150292
0.00090174
-0.00169813
0.000522419
-0.00172509
8.52891e-05
-0.00157489
-0.000383923
-0.00126962
-0.00079255
-0.000844271
-0.00111248
-0.000349278
-0.00130396
0.000155745
-0.00134219
0.000609584
-0.00121845
0.00095852
-0.000953151
0.00116284
-0.000581191
0.0012032
-0.000154141
0.00108022
0.000283522
0.000819911
0.000651912
0.000464745
0.00091317
6.97323e-05
0.00103357
-0.00030409
0.000997267
-0.000604644
0.000818595
-0.000792629
0.000532183
-0.0008482
0.000187085
-0.000772818
-0.00016404
-0.000589166
-0.000460149
-0.000334809
-0.000662475
-5.52305e-05
-0.000747847
0.000203515
-0.000712166
0.00040524
-0.000575832
0.000527531
-0.000373169
0.000564437
-0.000146383
0.000525263
6.34677e-05
0.000430276
0.000225659
0.000306409
0.000320015
0.000177961
0.00034845
6.81834e-05
0.000313902
-9.57867e-06
0.000240771
-5.65208e-05
0.000151754
-7.14728e-05
6.66579e-05
-6.06657e-05
-6.04047e-06
-3.43844e-05
-5.52861e-05
-8.07878e-05
3.55109e-05
-0.000430719
8.2118e-05
-0.000456206
0.00013848
-0.000474298
0.000209063
-0.000498813
0.000297128
-0.000528678
0.000406544
-0.000565111
0.000538169
-0.000604728
0.000696012
-0.000651565
0.000878222
-0.000698717
0.00108705
-0.000749798
0.00132039
-0.00079952
0.00157706
-0.000848935
0.00185452
-0.000895781
0.00215097
-0.000940778
0.00246512
-0.000985702
0.00279625
-0.00103016
0.00314363
-0.00107332
0.00350699
-0.00111491
0.00388562
-0.00115368
0.00427899
-0.0011894
0.004685
-0.00122
0.00510144
-0.00124478
0.00552416
-0.00126128
0.00595008
-0.00127014
0.00637286
-0.00126736
0.00678875
-0.00125574
0.00718858
-0.00122897
0.00757005
-0.0011946
0.00792407
-0.00114489
0.00825392
-0.00109238
0.00855666
-0.00103102
0.00883399
-0.00096579
0.00908517
-0.00089449
0.00931004
-0.000818207
0.00950839
-0.000736775
0.00967827
-0.000650266
0.00981845
-0.000559015
0.00992629
-0.000463216
0.0100024
-0.000362916
0.0100451
-0.000258394
0.0100578
-0.000151147
0.0100443
-4.14304e-05
0.0099698
0.000108674
0.00985223
0.0002444
0.00969503
0.000379418
0.00949998
0.000514458
0.00926771
0.000650059
0.00899849
0.000785789
0.00869248
0.000921199
0.00834936
0.0010559
0.00796943
0.00118868
0.00755245
0.00131937
0.00709968
0.00144564
0.00661151
0.0015679
0.00609007
0.00168318
0.00553786
0.00179072
0.00495695
0.00188863
0.0043504
0.00197628
0.00372227
0.00205029
0.00307653
0.00211118
0.0024184
0.00215508
0.00175367
0.00218163
0.00108809
0.00218925
0.000427579
0.00217678
-0.000221162
0.00214344
-0.000851006
0.00208773
-0.00145483
0.00200975
-0.00202595
0.00190942
-0.00255664
0.00178515
-0.00303997
0.00163879
-0.00346995
0.00147219
-0.00383959
0.00128441
-0.00414282
0.00107717
-0.00437413
0.000853994
-0.00452983
0.000617106
-0.00460659
0.000368606
-0.00459891
0.000111887
-0.0045058
-0.000164468
-0.00433092
-0.000430603
-0.00407534
-0.00068881
-0.00374067
-0.000938526
-0.00333137
-0.00117395
-0.0028537
-0.00139146
-0.00231529
-0.00158534
-0.00172552
-0.00175124
-0.00109531
-0.00188419
-0.000436234
-0.00197972
0.000237816
-0.00203423
0.00091291
-0.0020449
0.00157502
-0.00201003
0.00220705
-0.00192619
0.00279561
-0.00179589
0.0033242
-0.00161784
0.00377772
-0.00139448
0.00414583
-0.00113116
0.00441505
-0.000831937
0.00457593
-0.000502103
0.00462166
-0.000149356
0.00454287
0.00024457
0.00434363
0.0006221
0.00402602
0.000989732
0.00359509
0.00134056
0.0030595
0.00166382
0.00243229
0.00194924
0.00173049
0.00218409
0.000973525
0.00235934
0.000183523
0.00246606
-0.000615688
0.00249843
-0.0013983
0.00245033
-0.0021376
0.0023205
-0.00280659
0.0021079
-0.00338172
0.00181896
-0.00384129
0.0014593
-0.00416182
0.00103613
-0.00433136
0.000568328
-0.00434112
7.15314e-05
-0.00418286
-0.000473525
-0.00386371
-0.000983041
-0.00339253
-0.00146338
-0.00278358
-0.00189832
-0.00206173
-0.0022633
-0.0012526
-0.00254278
-0.000390805
-0.00271946
0.000487766
-0.00278111
0.00134116
-0.00271738
0.00213184
-0.0025316
0.00282226
-0.00222643
0.00337657
-0.00181091
0.00376779
-0.00130434
0.00397547
-0.000729825
0.00398151
-0.000110114
0.00378973
0.00053979
0.00340889
0.00114481
0.00285636
0.00169192
0.00216527
0.002149
0.00137176
0.00248859
0.000522378
0.00268651
-0.000332979
0.00272764
-0.00114032
0.00260305
-0.0018497
0.00232
-0.00241739
0.00189517
-0.00280772
0.00135472
-0.00299697
0.000734876
-0.00297219
7.59637e-05
-0.002742
-0.000591485
-0.00232689
-0.00118107
-0.00176149
-0.00166793
-0.00109293
-0.0020123
-0.000377247
-0.00218447
0.000322231
-0.00216706
0.000946842
-0.00195834
0.00144057
-0.00157711
0.00176241
-0.00105824
0.00188297
-0.000446592
0.00179025
0.00021882
0.00150047
0.000841317
0.00104202
0.00137332
0.000462567
0.00176354
-0.000177175
0.00196715
-0.000806547
0.00195562
-0.00135809
0.00173033
-0.00177195
0.0013156
-0.00200209
0.000752556
-0.00202319
0.000106392
-0.00183354
-0.000573577
-0.00145707
-0.00116902
-0.000938917
-0.00163064
-0.000342037
-0.00190084
0.000261121
-0.00194535
0.000796075
-0.0017534
0.00119852
-0.0013556
0.00142375
-0.00080642
0.00144812
-0.000178514
0.00127941
0.000452238
0.000948976
0.000982342
0.000510775
0.00135137
3.12847e-05
0.00151306
-0.000410336
0.00143889
-0.000757758
0.00116602
-0.000964606
0.000739031
-0.00101018
0.000232658
-0.000900975
-0.000273245
-0.000667207
-0.000693917
-0.000356946
-0.000972736
-2.5691e-05
-0.0010791
0.000269311
-0.00100717
0.000489845
-0.000796366
0.000611888
-0.000495212
0.000632248
-0.000166743
0.000566044
0.000129671
0.000440748
0.000350955
0.000289452
0.000471311
0.000141833
0.000496068
2.21455e-05
0.000433589
-5.79259e-05
0.000320842
-9.77959e-05
0.000191624
-0.000102307
7.11686e-05
-8.09434e-05
-2.74037e-05
-4.43734e-05
-9.18561e-05
-0.000125161
-8.53087e-05
-0.000345409
-0.000163951
-0.000377563
-0.000239118
-0.00039913
-0.000309193
-0.000428737
-0.000374517
-0.000463353
-0.000425203
-0.000514424
-0.000471205
-0.000558726
-0.000509847
-0.000612922
-0.000562069
-0.000646494
-0.000610687
-0.00070118
-0.000646862
-0.000763344
-0.000653244
-0.000842552
-0.000621035
-0.000927989
-0.000540845
-0.00102097
-0.000410585
-0.00111596
-0.000227772
-0.00121297
6.58877e-06
-0.00130768
0.000291144
-0.00139946
0.000622148
-0.00148468
0.000994309
-0.00156156
0.00140187
-0.00162755
0.00184304
-0.00168594
0.00231093
-0.00172918
0.00280213
-0.00176134
0.00330655
-0.00177178
0.00382145
-0.00177065
0.00433135
-0.00173887
0.00483752
-0.00170077
0.00532135
-0.00162873
0.00578508
-0.00155611
0.00622153
-0.00146746
0.00663062
-0.00137488
0.00701188
-0.00127576
0.00736557
-0.00117189
0.00769273
-0.00106394
0.00799293
-0.000950464
0.00826501
-0.000831095
0.00850841
-0.000706614
0.00871804
-0.000572544
0.00889055
-0.000430903
0.00902413
-0.000284732
0.00910918
-0.00012648
0.00916801
4.98476e-05
0.00918569
0.000226725
0.00915775
0.000407356
0.00908076
0.000591442
0.00895293
0.000777888
0.00877274
0.000965984
0.00853916
0.00115478
0.00825203
0.00134304
0.00791128
0.00152942
0.00751783
0.00171282
0.00707271
0.00189076
0.00657869
0.00206193
0.00603701
0.00222486
0.0054507
0.00237703
0.00482496
0.00251436
0.00416381
0.00263743
0.00347216
0.00274194
0.00275548
0.00282786
0.0020208
0.00288975
0.00127381
0.00292863
0.000522578
0.00294048
-0.000224435
0.00292379
-0.000959882
0.00287889
-0.00167514
0.00280299
-0.00236118
0.00269579
-0.00300932
0.00255755
-0.00361128
0.00238712
-0.00415787
0.00218538
-0.00464057
0.00195489
-0.00505023
0.00169406
-0.00538233
0.00140927
-0.00562829
0.00109995
-0.0057847
0.000773517
-0.00584646
0.000430361
-0.00581211
7.75415e-05
-0.00567143
-0.000305151
-0.00543455
-0.000667485
-0.00510068
-0.00102268
-0.00467296
-0.00136624
-0.00415629
-0.00169063
-0.00355858
-0.00198917
-0.0028893
-0.00225461
-0.00215945
-0.0024811
-0.00138164
-0.002662
-0.000571711
-0.00278965
0.000255481
-0.00286142
0.00108273
-0.00287215
0.00188984
-0.00281714
0.00266193
-0.00269828
0.00337778
-0.00251174
0.00401783
-0.0022579
0.00456827
-0.00194492
0.00501262
-0.00157551
0.00533549
-0.00115481
0.0055261
-0.000692707
0.0055763
-0.000199561
0.0054778
0.000343069
0.00523377
0.000866129
0.00484585
0.00137766
0.00432048
0.00186592
0.00366961
0.00231469
0.00290965
0.0027092
0.00205949
0.00303426
0.00114289
0.00327593
0.000187208
0.00342174
-0.000777953
0.00346359
-0.0017192
0.00339158
-0.00260557
0.00320687
-0.00340801
0.00291034
-0.00409271
0.00250365
-0.00463603
0.00200262
-0.00501757
0.00141767
-0.00521157
0.000762322
-0.00520667
6.66297e-05
-0.00501066
-0.000669531
-0.00462044
-0.00137326
-0.0040455
-0.00203833
-0.00330838
-0.00263543
-0.0024347
-0.00313697
-0.00145936
-0.00351812
-0.000427589
-0.00375123
0.000621542
-0.00383024
0.00163984
-0.00373568
0.00257836
-0.00347011
0.0033911
-0.00303918
0.00403931
-0.00245912
0.0044884
-0.00175343
0.00471146
-0.000952887
0.00470304
-0.000101697
0.00445415
0.000788685
0.00397985
0.00161911
0.00330487
0.0023669
0.00246394
0.00298992
0.0015077
0.00344483
0.00048992
0.00370429
-0.000525749
0.00374331
-0.00147932
0.00355662
-0.00230956
0.00315025
-0.00296463
0.00255025
-0.00340306
0.00179315
-0.00359743
0.000929248
-0.00352753
6.06214e-06
-0.00322245
-0.000896564
-0.00269371
-0.00170981
-0.00198987
-0.00237177
-0.00116673
-0.00283543
-0.000295005
-0.0030562
0.000551287
-0.00301335
0.00129754
-0.00270459
0.00188276
-0.00216232
0.00225195
-0.00142744
0.00237769
-0.000572331
0.0022481
0.000348413
0.00187978
0.00120964
0.0013107
0.00194239
0.000598983
0.00247526
-0.000176791
0.00274292
-0.000935724
0.00271455
-0.00159548
0.00239008
-0.00208479
0.00180491
-0.00235168
0.00101945
-0.00236239
0.000117097
-0.00212588
-0.000810089
-0.00166682
-0.00162808
-0.00104235
-0.0022551
-0.000329549
-0.00261364
0.000383511
-0.00265841
0.0010081
-0.00237799
0.00146972
-0.00181722
0.00171485
-0.00105155
0.00171984
-0.000183497
0.00149737
0.000674706
0.00108684
0.00139287
0.000555853
0.00188236
-1.31154e-05
0.00208203
-0.000534126
0.0019599
-0.000932542
0.00156443
-0.00115782
0.000964304
-0.00118926
0.000264107
-0.00103945
-0.000423056
-0.00074811
-0.00098526
-0.000375431
-0.00134541
1.08925e-05
-0.00146543
0.000347824
-0.0013441
0.000587624
-0.00103617
0.000706979
-0.000614566
0.000706911
-0.000166675
0.000609521
0.000227062
0.000450145
0.000510331
0.000269069
0.000652387
0.000102055
0.000663083
-2.63865e-05
0.000562031
-0.000107227
0.000401682
-0.000139191
0.000223587
-0.000132298
6.4276e-05
-9.9895e-05
-5.98067e-05
-5.29932e-05
-0.000138758
-0.000178154
-0.000544054
0.000198646
-0.00105159
0.000129969
-0.0014753
2.45881e-05
-0.00180117
-0.000102873
-0.00203167
-0.000232846
-0.00213079
-0.000415308
-0.00210637
-0.000583145
-0.00189464
-0.00082465
-0.00163089
-0.000910239
-0.00129034
-0.00104173
-0.000925483
-0.0011282
-0.000546722
-0.00122131
-0.000170326
-0.00130438
0.000200324
-0.00139162
0.000568883
-0.00148452
0.00094064
-0.00158472
0.00132558
-0.00169262
0.00173492
-0.0018088
0.00217974
-0.00192951
0.00267432
-0.00205614
0.00322679
-0.00218003
0.00384195
-0.0023011
0.00450714
-0.00239437
0.00522119
-0.0024754
0.00595109
-0.00250167
0.00670417
-0.00252373
0.00740829
-0.00244299
0.00811951
-0.00241199
0.00870679
-0.00221601
0.00924061
-0.00208993
0.00968636
-0.0019132
0.0100748
-0.00176329
0.0104042
-0.00160518
0.0106842
-0.00145187
0.0109171
-0.00129685
0.0111067
-0.00114003
0.0112557
-0.000980128
0.0113657
-0.000816677
0.0114401
-0.000646906
0.011481
-0.000471752
0.011482
-0.000285774
0.0114572
-0.00010166
0.0113639
0.000143155
0.0112263
0.000364281
0.011048
0.000585683
0.0108284
0.000811034
0.0105657
0.00104056
0.0102565
0.00127522
0.00989979
0.00151147
0.00949337
0.00174945
0.00903569
0.00198711
0.00852667
0.00222184
0.00796641
0.00245102
0.00735454
0.0026738
0.00669492
0.00288448
0.00598986
0.00308209
0.00524297
0.00326125
0.00445816
0.00342224
0.00364228
0.00355781
0.00280031
0.00366983
0.00193962
0.00375045
0.00106819
0.00380005
0.000194062
0.00381461
-0.000673837
0.00379169
-0.00152579
0.00373085
-0.00235212
0.00362932
-0.0031436
0.00348727
-0.00388974
0.00330369
-0.00457892
0.00307629
-0.00520157
0.00280803
-0.00574962
0.00250294
-0.00621491
0.00215935
-0.00658403
0.00177839
-0.00685689
0.00137281
-0.00701875
0.000935378
-0.00706997
0.000481587
-0.00699543
2.99464e-06
-0.00681682
-0.000483757
-0.00652127
-0.000963034
-0.00611094
-0.00143301
-0.00559021
-0.00188698
-0.0049656
-0.00231524
-0.0042469
-0.00270787
-0.00344416
-0.00305735
-0.00257107
-0.00335419
-0.00164386
-0.00358921
-0.000679309
-0.0037542
0.000303701
-0.00384443
0.00128344
-0.00385189
0.00224091
-0.00377461
0.0031533
-0.00361067
0.00399637
-0.00335481
0.0047517
-0.00301324
0.00540042
-0.00259363
0.00592077
-0.00209586
0.00629693
-0.00153098
0.00651578
-0.000911556
0.00656741
-0.00025119
0.00644661
0.000463871
0.00615329
0.00115944
0.00569012
0.00184084
0.00506495
0.00249108
0.00429152
0.00308812
0.00338968
0.00361104
0.00238373
0.00404021
0.0013037
0.00435596
0.000179942
0.0045455
-0.000951648
0.00459518
-0.00205597
0.0044959
-0.00309625
0.00424715
-0.00403222
0.00384631
-0.00483266
0.00330409
-0.00546056
0.00263052
-0.00589372
0.00185083
-0.00611716
0.000985765
-0.00609939
4.8857e-05
-0.005857
-0.000911917
-0.0053878
-0.00184246
-0.00470596
-0.00272017
-0.0038343
-0.00350709
-0.00280425
-0.00416702
-0.0016633
-0.00465907
-0.000449991
-0.00496454
0.00077526
-0.00505549
0.00195827
-0.0049187
0.00304429
-0.00455613
0.00398295
-0.00397784
0.00472579
-0.00320195
0.00523365
-0.00226129
0.00547858
-0.00119782
0.00543625
-5.93662e-05
0.00512896
0.00109598
0.00455765
0.00219042
0.00375194
0.00317262
0.00275864
0.00398322
0.00163343
0.00457004
0.0004451
0.00489262
-0.000738888
0.0049273
-0.00184029
0.00465802
-0.00279252
0.00410248
-0.00353343
0.00329115
-0.0040163
0.00227602
-0.00420975
0.0011227
-0.00410193
-0.000101756
-0.00370933
-0.00128917
-0.00306218
-0.00235696
-0.00221193
-0.00322202
-0.00123023
-0.00381714
-0.000196896
-0.00408953
0.000794811
-0.00400506
0.00166695
-0.00357673
0.00233935
-0.00283472
0.00275964
-0.00184773
0.00288391
-0.000696601
0.002712
0.00052033
0.00225962
0.00166201
0.00157573
0.00262628
0.000730714
0.00332027
-0.000188662
0.0036623
-0.00108061
0.0036065
-0.00185016
0.00315963
-0.00241526
0.00237001
-0.00271233
0.00131652
-0.00271461
0.000119378
-0.00242457
-0.00110013
-0.00187725
-0.0021754
-0.00114235
-0.00299001
-0.000310983
-0.00344501
0.00051468
-0.00348407
0.00123024
-0.00309355
0.0017494
-0.00233639
0.00201217
-0.00131431
0.00199452
-0.000165854
0.00171365
0.000955578
0.00121891
0.00188762
0.000591546
0.00250972
-7.08191e-05
0.00274439
-0.000668274
0.00255735
-0.00111543
0.00201159
-0.00135568
0.00120456
-0.00136893
0.000277362
-0.00117423
-0.000617764
-0.000821826
-0.00133766
-0.000384379
-0.00178286
5.81213e-05
-0.00190793
0.0004336
-0.00171958
0.000689668
-0.00129224
0.000803138
-0.000728035
0.000779477
-0.000143014
0.000648581
0.000357958
0.000454415
0.000704496
0.000243754
0.000863047
5.82832e-05
0.000848554
-7.84827e-05
0.000698797
-0.00015553
0.00047873
-0.000178129
0.000246187
-0.000159111
4.52571e-05
-0.000115593
-0.000103324
-5.96129e-05
-0.000194738
-0.000237767
-0.00052204
0.000720686
-0.00100177
0.000609697
-0.00139909
0.000421909
-0.00167131
0.00016935
-0.00178316
-0.00012099
-0.0016014
-0.000597073
-0.00127597
-0.000908576
-0.0009565
-0.00114412
-0.00137443
-0.000492312
-0.00204265
-0.000373506
-0.00275928
-0.000411568
-0.00336457
-0.000616024
-0.00381915
-0.000849807
-0.00408982
-0.00112094
-0.00416314
-0.0014112
-0.00403799
-0.00170987
-0.00372665
-0.00200396
-0.00325206
-0.00228338
-0.00264082
-0.00254075
-0.00192552
-0.00277144
-0.00114556
-0.00295999
-0.000297922
-0.00314873
0.000589667
-0.00328196
0.00153244
-0.00341817
0.0024987
-0.00346793
0.00353708
-0.00356211
0.00457021
-0.00347612
0.00568394
-0.00352572
0.00652721
-0.00305928
0.00720733
-0.00277004
0.00776653
-0.00247241
0.0082396
-0.00223635
0.0086508
-0.00201639
0.00901428
-0.00181535
0.00934316
-0.00162574
0.0096439
-0.00144077
0.00992068
-0.00125691
0.0101722
-0.00106816
0.010393
-0.000867768
0.0105739
-0.000652659
0.0107153
-0.000427171
0.0108016
-0.000187946
0.0108737
7.10302e-05
0.0108973
0.000340716
0.0108624
0.000620611
0.0107653
0.000908081
0.0106044