/*--------------------------------*- C++ -*----------------------------------*\
  =========                 |
  \\      /  F ield         | OpenFOAM: The Open Source CFD Toolbox
   \\    /   O peration     | Website:  https://openfoam.org
    \\  /    A nd           | Version:  12
     \\/     M anipulation  |
\*---------------------------------------------------------------------------*/
FoamFile
{
    format      ascii;
    class       volScalarField;
    location    "18.24";
    object      p;
}
// * * * * * * * * * * * * * * * * * * * * * * * * * * * * * * * * * * * * * //

dimensions      [1 -1 -2 0 0 0 0];

internalField   nonuniform List<scalar> 
3829
(
-616.557
-616.557
-616.556
-616.553
-616.551
-616.547
-616.543
-616.538
-616.532
-616.525
-616.517
-616.508
-616.498
-616.487
-616.475
-616.461
-616.446
-616.43
-616.412
-616.393
-616.372
-616.349
-616.325
-616.299
-616.27
-616.24
-616.208
-616.174
-616.138
-616.1
-616.059
-616.016
-615.972
-615.925
-615.876
-615.825
-615.771
-615.715
-615.658
-615.598
-615.537
-615.475
-615.411
-615.346
-615.28
-615.214
-615.147
-615.081
-615.014
-614.948
-614.883
-614.818
-614.756
-614.695
-614.636
-614.58
-614.527
-614.478
-614.432
-614.391
-614.353
-614.321
-614.293
-614.271
-614.254
-614.242
-614.236
-614.236
-614.243
-614.254
-614.271
-614.292
-614.318
-614.348
-614.382
-614.419
-614.458
-614.498
-614.54
-614.581
-614.621
-614.659
-614.695
-614.726
-614.754
-614.775
-614.791
-614.8
-614.802
-614.795
-614.78
-614.757
-614.726
-614.687
-614.641
-614.588
-614.53
-614.468
-614.403
-614.336
-614.269
-614.204
-614.142
-614.085
-614.035
-613.994
-613.962
-613.941
-613.932
-613.935
-613.951
-613.98
-614.02
-614.07
-614.129
-614.194
-614.264
-614.336
-614.406
-614.472
-614.531
-614.581
-614.618
-614.641
-614.65
-614.64
-614.614
-614.572
-614.517
-614.451
-614.376
-614.284
-614.205
-614.131
-614.065
-614.012
-613.975
-613.958
-613.961
-613.987
-614.032
-614.095
-614.173
-614.259
-614.35
-614.437
-614.516
-614.58
-614.625
-614.647
-614.642
-614.614
-614.563
-614.496
-614.418
-614.335
-614.257
-614.19
-614.142
-614.117
-614.118
-614.144
-614.192
-614.255
-614.327
-614.397
-614.455
-614.495
-614.51
-614.495
-614.452
-614.389
-614.311
-614.229
-614.155
-614.099
-614.068
-614.068
-614.098
-614.154
-614.233
-614.31
-614.379
-614.432
-614.459
-614.459
-614.433
-614.387
-614.331
-614.274
-614.226
-614.196
-614.185
-614.195
-614.221
-614.256
-614.295
-614.331
-614.357
-614.372
-1774.97
-1774.97
-1774.97
-1774.97
-1774.97
-1774.97
-1774.96
-1774.96
-1774.95
-1774.95
-1774.94
-1774.94
-1774.93
-1774.92
-1774.91
-1774.9
-1774.88
-1774.87
-1774.85
-1774.83
-1774.81
-1774.79
-1774.77
-1774.74
-1774.72
-1774.69
-1774.65
-1774.62
-1774.58
-1774.54
-1774.5
-1774.45
-1774.4
-1774.35
-1774.3
-1774.24
-1774.18
-1774.12
-1774.06
-1774
-1773.93
-1773.86
-1773.79
-1773.72
-1773.65
-1773.57
-1773.5
-1773.42
-1773.35
-1773.27
-1773.2
-1773.13
-1773.06
-1772.99
-1772.92
-1772.86
-1772.8
-1772.75
-1772.7
-1772.65
-1772.61
-1772.58
-1772.55
-1772.53
-1772.51
-1772.5
-1772.5
-1772.5
-1772.51
-1772.53
-1772.56
-1772.59
-1772.62
-1772.66
-1772.71
-1772.76
-1772.81
-1772.86
-1772.92
-1772.97
-1773.02
-1773.07
-1773.12
-1773.16
-1773.19
-1773.22
-1773.24
-1773.25
-1773.26
-1773.25
-1773.24
-1773.21
-1773.17
-1773.13
-1773.07
-1773.01
-1772.94
-1772.86
-1772.78
-1772.7
-1772.62
-1772.54
-1772.46
-1772.4
-1772.33
-1772.28
-1772.25
-1772.22
-1772.21
-1772.22
-1772.24
-1772.27
-1772.32
-1772.39
-1772.46
-1772.54
-1772.63
-1772.72
-1772.8
-1772.88
-1772.96
-1773.02
-1773.06
-1773.09
-1773.1
-1773.09
-1773.06
-1773.01
-1772.94
-1772.85
-1772.76
-1772.65
-1772.55
-1772.46
-1772.38
-1772.32
-1772.27
-1772.25
-1772.25
-1772.29
-1772.34
-1772.42
-1772.51
-1772.62
-1772.73
-1772.84
-1772.93
-1773.01
-1773.06
-1773.08
-1773.08
-1773.04
-1772.98
-1772.89
-1772.8
-1772.69
-1772.6
-1772.52
-1772.46
-1772.43
-1772.43
-1772.47
-1772.53
-1772.61
-1772.7
-1772.79
-1772.86
-1772.91
-1772.93
-1772.91
-1772.86
-1772.78
-1772.69
-1772.59
-1772.5
-1772.43
-1772.39
-1772.39
-1772.43
-1772.5
-1772.6
-1772.69
-1772.77
-1772.83
-1772.86
-1772.86
-1772.83
-1772.77
-1772.7
-1772.63
-1772.58
-1772.54
-1772.53
-1772.55
-1772.58
-1772.62
-1772.67
-1772.71
-1772.74
-1772.76
-2801.25
-2801.25
-2801.25
-2801.24
-2801.24
-2801.24
-2801.24
-2801.24
-2801.24
-2801.23
-2801.23
-2801.22
-2801.22
-2801.21
-2801.2
-2801.2
-2801.19
-2801.17
-2801.16
-2801.14
-2801.13
-2801.11
-2801.08
-2801.06
-2801.03
-2801
-2800.97
-2800.93
-2800.89
-2800.85
-2800.8
-2800.75
-2800.7
-2800.64
-2800.58
-2800.52
-2800.45
-2800.38
-2800.31
-2800.23
-2800.15
-2800.07
-2799.98
-2799.9
-2799.81
-2799.72
-2799.63
-2799.54
-2799.45
-2799.36
-2799.27
-2799.18
-2799.1
-2799.01
-2798.93
-2798.86
-2798.79
-2798.72
-2798.66
-2798.61
-2798.56
-2798.53
-2798.49
-2798.47
-2798.46
-2798.45
-2798.46
-2798.47
-2798.49
-2798.52
-2798.56
-2798.61
-2798.67
-2798.73
-2798.79
-2798.86
-2798.94
-2799.01
-2799.09
-2799.17
-2799.24
-2799.31
-2799.38
-2799.44
-2799.49
-2799.53
-2799.56
-2799.58
-2799.59
-2799.58
-2799.56
-2799.52
-2799.48
-2799.42
-2799.34
-2799.26
-2799.17
-2799.07
-2798.96
-2798.85
-2798.74
-2798.64
-2798.54
-2798.45
-2798.36
-2798.3
-2798.25
-2798.21
-2798.2
-2798.21
-2798.24
-2798.29
-2798.36
-2798.45
-2798.55
-2798.66
-2798.78
-2798.9
-2799.01
-2799.12
-2799.22
-2799.3
-2799.36
-2799.4
-2799.41
-2799.4
-2799.35
-2799.28
-2799.19
-2799.08
-2798.95
-2798.81
-2798.68
-2798.55
-2798.44
-2798.35
-2798.29
-2798.26
-2798.27
-2798.31
-2798.39
-2798.49
-2798.62
-2798.76
-2798.91
-2799.05
-2799.18
-2799.28
-2799.34
-2799.37
-2799.36
-2799.31
-2799.22
-2799.11
-2798.97
-2798.83
-2798.7
-2798.6
-2798.52
-2798.48
-2798.49
-2798.54
-2798.63
-2798.74
-2798.87
-2798.99
-2799.09
-2799.16
-2799.18
-2799.16
-2799.09
-2798.98
-2798.86
-2798.72
-2798.61
-2798.52
-2798.47
-2798.47
-2798.52
-2798.61
-2798.75
-2798.87
-2798.97
-2799.05
-2799.09
-2799.08
-2799.03
-2798.95
-2798.86
-2798.78
-2798.7
-2798.66
-2798.65
-2798.68
-2798.72
-2798.78
-2798.83
-2798.88
-2798.92
-2798.94
-3710.33
-3710.33
-3710.33
-3710.33
-3710.34
-3710.34
-3710.35
-3710.35
-3710.36
-3710.36
-3710.37
-3710.37
-3710.37
-3710.38
-3710.38
-3710.38
-3710.37
-3710.37
-3710.36
-3710.36
-3710.34
-3710.33
-3710.31
-3710.29
-3710.26
-3710.24
-3710.2
-3710.17
-3710.12
-3710.08
-3710.03
-3709.97
-3709.91
-3709.85
-3709.78
-3709.7
-3709.63
-3709.54
-3709.46
-3709.37
-3709.27
-3709.17
-3709.07
-3708.96
-3708.86
-3708.74
-3708.63
-3708.52
-3708.41
-3708.29
-3708.18
-3708.07
-3707.96
-3707.86
-3707.76
-3707.67
-3707.58
-3707.5
-3707.43
-3707.36
-3707.31
-3707.26
-3707.23
-3707.2
-3707.19
-3707.19
-3707.21
-3707.24
-3707.27
-3707.32
-3707.39
-3707.46
-3707.54
-3707.63
-3707.72
-3707.83
-3707.93
-3708.04
-3708.15
-3708.26
-3708.37
-3708.47
-3708.57
-3708.65
-3708.72
-3708.78
-3708.83
-3708.86
-3708.87
-3708.86
-3708.84
-3708.79
-3708.73
-3708.64
-3708.55
-3708.43
-3708.3
-3708.17
-3708.02
-3707.88
-3707.73
-3707.58
-3707.45
-3707.32
-3707.21
-3707.13
-3707.06
-3707.01
-3706.99
-3707.01
-3707.06
-3707.13
-3707.23
-3707.35
-3707.48
-3707.64
-3707.8
-3707.97
-3708.13
-3708.28
-3708.41
-3708.52
-3708.61
-3708.66
-3708.67
-3708.65
-3708.59
-3708.49
-3708.36
-3708.21
-3708.04
-3707.84
-3707.66
-3707.49
-3707.34
-3707.22
-3707.13
-3707.09
-3707.1
-3707.16
-3707.27
-3707.41
-3707.59
-3707.78
-3707.98
-3708.17
-3708.34
-3708.47
-3708.56
-3708.6
-3708.57
-3708.5
-3708.38
-3708.22
-3708.03
-3707.84
-3707.66
-3707.52
-3707.41
-3707.36
-3707.38
-3707.46
-3707.58
-3707.74
-3707.92
-3708.09
-3708.22
-3708.32
-3708.34
-3708.32
-3708.22
-3708.08
-3707.91
-3707.73
-3707.57
-3707.45
-3707.39
-3707.4
-3707.47
-3707.58
-3707.78
-3707.93
-3708.07
-3708.17
-3708.22
-3708.2
-3708.13
-3708.02
-3707.9
-3707.78
-3707.69
-3707.64
-3707.64
-3707.67
-3707.73
-3707.81
-3707.88
-3707.95
-3707.99
-3708.01
-4515.74
-4515.74
-4515.75
-4515.75
-4515.76
-4515.77
-4515.78
-4515.79
-4515.8
-4515.81
-4515.83
-4515.84
-4515.85
-4515.86
-4515.87
-4515.88
-4515.89
-4515.9
-4515.9
-4515.9
-4515.89
-4515.89
-4515.87
-4515.86
-4515.83
-4515.81
-4515.78
-4515.74
-4515.69
-4515.65
-4515.59
-4515.53
-4515.46
-4515.39
-4515.31
-4515.22
-4515.13
-4515.03
-4514.92
-4514.81
-4514.69
-4514.57
-4514.44
-4514.31
-4514.17
-4514.03
-4513.89
-4513.75
-4513.6
-4513.46
-4513.32
-4513.18
-4513.04
-4512.91
-4512.79
-4512.67
-4512.56
-4512.45
-4512.36
-4512.29
-4512.22
-4512.17
-4512.13
-4512.11
-4512.1
-4512.12
-4512.14
-4512.18
-4512.24
-4512.31
-4512.4
-4512.5
-4512.61
-4512.74
-4512.88
-4513.02
-4513.17
-4513.33
-4513.48
-4513.64
-4513.78
-4513.93
-4514.06
-4514.17
-4514.28
-4514.36
-4514.42
-4514.46
-4514.48
-4514.47
-4514.44
-4514.38
-4514.29
-4514.18
-4514.05
-4513.89
-4513.72
-4513.54
-4513.34
-4513.14
-4512.94
-4512.75
-4512.57
-4512.4
-4512.26
-4512.14
-4512.05
-4512
-4511.98
-4512
-4512.06
-4512.16
-4512.29
-4512.45
-4512.64
-4512.85
-4513.07
-4513.3
-4513.52
-4513.72
-4513.9
-4514.05
-4514.17
-4514.23
-4514.25
-4514.22
-4514.13
-4514
-4513.83
-4513.62
-4513.38
-4513.12
-4512.87
-4512.64
-4512.44
-4512.27
-4512.16
-4512.1
-4512.13
-4512.21
-4512.35
-4512.55
-4512.78
-4513.04
-4513.31
-4513.57
-4513.79
-4513.97
-4514.08
-4514.13
-4514.09
-4513.99
-4513.82
-4513.59
-4513.34
-4513.08
-4512.85
-4512.65
-4512.51
-4512.45
-4512.48
-4512.59
-4512.76
-4512.98
-4513.22
-4513.45
-4513.64
-4513.77
-4513.81
-4513.77
-4513.64
-4513.45
-4513.21
-4512.97
-4512.76
-4512.6
-4512.53
-4512.54
-4512.64
-4512.81
-4513.04
-4513.25
-4513.44
-4513.57
-4513.63
-4513.6
-4513.5
-4513.35
-4513.19
-4513.03
-4512.92
-4512.86
-4512.86
-4512.91
-4512.99
-4513.09
-4513.18
-4513.26
-4513.32
-4513.35
-5229.09
-5229.09
-5229.1
-5229.11
-5229.12
-5229.14
-5229.16
-5229.19
-5229.22
-5229.25
-5229.29
-5229.32
-5229.36
-5229.39
-5229.42
-5229.45
-5229.47
-5229.5
-5229.51
-5229.53
-5229.54
-5229.54
-5229.54
-5229.53
-5229.52
-5229.5
-5229.47
-5229.44
-5229.4
-5229.34
-5229.29
-5229.22
-5229.14
-5229.06
-5228.96
-5228.86
-5228.75
-5228.64
-5228.51
-5228.37
-5228.23
-5228.08
-5227.92
-5227.76
-5227.59
-5227.41
-5227.23
-5227.05
-5226.87
-5226.69
-5226.51
-5226.34
-5226.16
-5226
-5225.84
-5225.69
-5225.55
-5225.43
-5225.32
-5225.22
-5225.14
-5225.08
-5225.04
-5225.01
-5225.01
-5225.03
-5225.07
-5225.13
-5225.21
-5225.32
-5225.44
-5225.58
-5225.74
-5225.91
-5226.1
-5226.3
-5226.5
-5226.71
-5226.92
-5227.12
-5227.32
-5227.51
-5227.69
-5227.85
-5227.98
-5228.1
-5228.18
-5228.24
-5228.26
-5228.25
-5228.2
-5228.12
-5228.01
-5227.86
-5227.69
-5227.49
-5227.26
-5227.01
-5226.76
-5226.5
-5226.23
-5225.98
-5225.74
-5225.52
-5225.33
-5225.18
-5225.06
-5225
-5224.98
-5225.01
-5225.09
-5225.22
-5225.39
-5225.61
-5225.86
-5226.14
-5226.43
-5226.73
-5227.02
-5227.29
-5227.53
-5227.73
-5227.88
-5227.96
-5227.98
-5227.94
-5227.83
-5227.65
-5227.42
-5227.14
-5226.83
-5226.48
-5226.15
-5225.85
-5225.58
-5225.37
-5225.22
-5225.15
-5225.18
-5225.29
-5225.48
-5225.74
-5226.05
-5226.39
-5226.74
-5227.08
-5227.37
-5227.6
-5227.75
-5227.8
-5227.75
-5227.61
-5227.38
-5227.08
-5226.75
-5226.4
-5226.09
-5225.83
-5225.66
-5225.6
-5225.63
-5225.77
-5226
-5226.3
-5226.63
-5226.94
-5227.19
-5227.35
-5227.4
-5227.35
-5227.18
-5226.92
-5226.61
-5226.29
-5226.01
-5225.81
-5225.72
-5225.74
-5225.88
-5226.1
-5226.39
-5226.68
-5226.92
-5227.09
-5227.15
-5227.1
-5226.97
-5226.77
-5226.56
-5226.36
-5226.22
-5226.15
-5226.15
-5226.22
-5226.33
-5226.46
-5226.58
-5226.68
-5226.74
-5226.77
-5861.04
-5861.05
-5861.06
-5861.08
-5861.1
-5861.13
-5861.16
-5861.21
-5861.26
-5861.31
-5861.37
-5861.44
-5861.5
-5861.57
-5861.62
-5861.68
-5861.73
-5861.77
-5861.81
-5861.84
-5861.86
-5861.88
-5861.89
-5861.9
-5861.89
-5861.88
-5861.85
-5861.82
-5861.78
-5861.72
-5861.66
-5861.59
-5861.5
-5861.41
-5861.3
-5861.18
-5861.05
-5860.91
-5860.75
-5860.58
-5860.41
-5860.22
-5860.03
-5859.82
-5859.61
-5859.39
-5859.17
-5858.95
-5858.72
-5858.49
-5858.27
-5858.05
-5857.84
-5857.63
-5857.43
-5857.25
-5857.08
-5856.92
-5856.78
-5856.67
-5856.57
-5856.5
-5856.45
-5856.42
-5856.43
-5856.46
-5856.51
-5856.6
-5856.71
-5856.85
-5857.01
-5857.2
-5857.41
-5857.64
-5857.88
-5858.14
-5858.4
-5858.68
-5858.95
-5859.22
-5859.48
-5859.72
-5859.95
-5860.16
-5860.34
-5860.48
-5860.59
-5860.66
-5860.69
-5860.68
-5860.62
-5860.52
-5860.37
-5860.18
-5859.96
-5859.7
-5859.41
-5859.09
-5858.76
-5858.42
-5858.09
-5857.76
-5857.45
-5857.17
-5856.93
-5856.74
-5856.59
-5856.51
-5856.49
-5856.53
-5856.63
-5856.8
-5857.03
-5857.31
-5857.64
-5858
-5858.37
-5858.76
-5859.13
-5859.48
-5859.79
-5860.04
-5860.23
-5860.34
-5860.36
-5860.3
-5860.16
-5859.93
-5859.63
-5859.27
-5858.87
-5858.41
-5857.99
-5857.61
-5857.27
-5857
-5856.82
-5856.74
-5856.77
-5856.91
-5857.15
-5857.48
-5857.88
-5858.32
-5858.77
-5859.2
-5859.58
-5859.87
-5860.05
-5860.11
-5860.05
-5859.85
-5859.55
-5859.16
-5858.73
-5858.29
-5857.88
-5857.56
-5857.34
-5857.26
-5857.31
-5857.5
-5857.8
-5858.19
-5858.63
-5859.03
-5859.35
-5859.56
-5859.62
-5859.54
-5859.32
-5858.99
-5858.59
-5858.18
-5857.83
-5857.57
-5857.45
-5857.49
-5857.67
-5857.97
-5858.33
-5858.7
-5859
-5859.21
-5859.28
-5859.21
-5859.03
-5858.77
-5858.5
-5858.25
-5858.08
-5858
-5858.02
-5858.11
-5858.26
-5858.42
-5858.56
-5858.68
-5858.75
-5858.78
-6420.71
-6420.72
-6420.74
-6420.77
-6420.81
-6420.86
-6420.92
-6421.02
-6421.14
-6421.27
-6421.4
-6421.51
-6421.61
-6421.69
-6421.77
-6421.85
-6421.91
-6421.97
-6422.02
-6422.07
-6422.11
-6422.15
-6422.18
-6422.19
-6422.2
-6422.19
-6422.16
-6422.12
-6422.07
-6422.01
-6421.94
-6421.86
-6421.77
-6421.67
-6421.55
-6421.41
-6421.26
-6421.09
-6420.9
-6420.71
-6420.49
-6420.27
-6420.03
-6419.78
-6419.52
-6419.26
-6418.98
-6418.71
-6418.43
-6418.15
-6417.88
-6417.61
-6417.35
-6417.09
-6416.85
-6416.62
-6416.42
-6416.23
-6416.06
-6415.92
-6415.8
-6415.72
-6415.66
-6415.64
-6415.64
-6415.69
-6415.77
-6415.88
-6416.02
-6416.2
-6416.41
-6416.65
-6416.92
-6417.21
-6417.52
-6417.84
-6418.18
-6418.52
-6418.87
-6419.21
-6419.54
-6419.85
-6420.13
-6420.39
-6420.62
-6420.8
-6420.94
-6421.03
-6421.07
-6421.05
-6420.98
-6420.85
-6420.66
-6420.43
-6420.14
-6419.81
-6419.45
-6419.05
-6418.64
-6418.22
-6417.79
-6417.39
-6417
-6416.65
-6416.35
-6416.11
-6415.93
-6415.83
-6415.8
-6415.86
-6415.99
-6416.21
-6416.5
-6416.85
-6417.26
-6417.71
-6418.19
-6418.67
-6419.14
-6419.58
-6419.96
-6420.28
-6420.51
-6420.64
-6420.67
-6420.59
-6420.41
-6420.12
-6419.74
-6419.29
-6418.8
-6418.21
-6417.69
-6417.21
-6416.78
-6416.45
-6416.23
-6416.14
-6416.17
-6416.35
-6416.65
-6417.07
-6417.57
-6418.12
-6418.68
-6419.22
-6419.69
-6420.05
-6420.27
-6420.34
-6420.25
-6420
-6419.62
-6419.13
-6418.59
-6418.03
-6417.53
-6417.12
-6416.85
-6416.75
-6416.82
-6417.07
-6417.45
-6417.94
-6418.51
-6419.01
-6419.41
-6419.67
-6419.75
-6419.64
-6419.36
-6418.94
-6418.44
-6417.93
-6417.49
-6417.17
-6417.03
-6417.09
-6417.32
-6417.69
-6418.15
-6418.6
-6418.97
-6419.22
-6419.3
-6419.21
-6418.97
-6418.65
-6418.31
-6418.01
-6417.8
-6417.72
-6417.75
-6417.87
-6418.06
-6418.25
-6418.42
-6418.55
-6418.63
-6418.67
-6916.43
-6916.44
-6916.46
-6916.49
-6916.53
-6916.58
-6916.64
-6916.71
-6916.85
-6916.99
-6917.13
-6917.27
-6917.4
-6917.53
-6917.66
-6917.79
-6917.91
-6918.02
-6918.12
-6918.21
-6918.29
-6918.36
-6918.42
-6918.47
-6918.52
-6918.55
-6918.56
-6918.54
-6918.53
-6918.5
-6918.45
-6918.36
-6918.26
-6918.13
-6917.99
-6917.83
-6917.64
-6917.44
-6917.22
-6916.98
-6916.72
-6916.45
-6916.16
-6915.87
-6915.56
-6915.24
-6914.91
-6914.58
-6914.24
-6913.91
-6913.58
-6913.25
-6912.93
-6912.63
-6912.34
-6912.07
-6911.81
-6911.59
-6911.39
-6911.22
-6911.08
-6910.98
-6910.92
-6910.89
-6910.91
-6910.97
-6911.07
-6911.21
-6911.39
-6911.61
-6911.88
-6912.17
-6912.5
-6912.86
-6913.24
-6913.64
-6914.06
-6914.48
-6914.91
-6915.32
-6915.73
-6916.11
-6916.46
-6916.78
-6917.05
-6917.28
-6917.45
-6917.56
-6917.6
-6917.58
-6917.49
-6917.33
-6917.1
-6916.81
-6916.46
-6916.06
-6915.61
-6915.13
-6914.62
-6914.11
-6913.59
-6913.09
-6912.62
-6912.2
-6911.83
-6911.54
-6911.32
-6911.2
-6911.17
-6911.24
-6911.41
-6911.67
-6912.03
-6912.47
-6912.97
-6913.52
-6914.11
-6914.7
-6915.27
-6915.8
-6916.27
-6916.66
-6916.94
-6917.1
-6917.13
-6917.03
-6916.8
-6916.45
-6915.99
-6915.44
-6914.83
-6914.1
-6913.47
-6912.88
-6912.37
-6911.97
-6911.7
-6911.6
-6911.64
-6911.85
-6912.23
-6912.73
-6913.35
-6914.02
-6914.71
-6915.36
-6915.93
-6916.37
-6916.64
-6916.72
-6916.6
-6916.29
-6915.81
-6915.21
-6914.54
-6913.86
-6913.25
-6912.75
-6912.42
-6912.31
-6912.41
-6912.71
-6913.19
-6913.79
-6914.51
-6915.11
-6915.6
-6915.92
-6916.01
-6915.87
-6915.52
-6915.01
-6914.39
-6913.77
-6913.23
-6912.85
-6912.69
-6912.76
-6913.06
-6913.51
-6914.07
-6914.61
-6915.07
-6915.36
-6915.44
-6915.32
-6915.03
-6914.63
-6914.22
-6913.86
-6913.62
-6913.52
-6913.57
-6913.73
-6913.96
-6914.19
-6914.39
-6914.53
-6914.62
-6914.66
-7355.48
-7355.51
-7355.57
-7355.67
-7355.82
-7356.01
-7356.3
-7356.57
-7357.39
-7357.59
-7357.81
-7358
-7358.14
-7358.25
-7358.34
-7358.41
-7358.47
-7358.53
-7358.59
-7358.65
-7358.71
-7358.77
-7358.82
-7358.87
-7358.89
-7358.9
-7358.95
-7358.55
-7358.54
-7358.44
-7358.36
-7358.26
-7358.15
-7358.02
-7357.86
-7357.68
-7357.46
-7357.23
-7356.97
-7356.69
-7356.38
-7356.06
-7355.73
-7355.37
-7355.01
-7354.63
-7354.24
-7353.85
-7353.45
-7353.05
-7352.66
-7352.28
-7351.9
-7351.54
-7351.2
-7350.87
-7350.58
-7350.31
-7350.08
-7349.88
-7349.72
-7349.6
-7349.53
-7349.51
-7349.53
-7349.6
-7349.73
-7349.9
-7350.12
-7350.39
-7350.71
-7351.07
-7351.47
-7351.9
-7352.36
-7352.84
-7353.34
-7353.85
-7354.36
-7354.86
-7355.34
-7355.8
-7356.22
-7356.6
-7356.93
-7357.2
-7357.4
-7357.53
-7357.58
-7357.55
-7357.44
-7357.25
-7356.98
-7356.63
-7356.21
-7355.73
-7355.19
-7354.62
-7354.01
-7353.39
-7352.78
-7352.18
-7351.62
-7351.11
-7350.68
-7350.33
-7350.07
-7349.93
-7349.89
-7349.98
-7350.19
-7350.51
-7350.94
-7351.46
-7352.07
-7352.73
-7353.43
-7354.13
-7354.82
-7355.45
-7356.01
-7356.47
-7356.8
-7357
-7357.03
-7356.91
-7356.63
-7356.2
-7355.65
-7354.99
-7354.27
-7353.4
-7352.65
-7351.94
-7351.33
-7350.85
-7350.54
-7350.41
-7350.47
-7350.73
-7351.18
-7351.79
-7352.52
-7353.32
-7354.15
-7354.92
-7355.6
-7356.12
-7356.44
-7356.53
-7356.38
-7356
-7355.43
-7354.7
-7353.9
-7353.08
-7352.35
-7351.75
-7351.37
-7351.24
-7351.37
-7351.74
-7352.32
-7353.01
-7353.93
-7354.63
-7355.21
-7355.59
-7355.7
-7355.53
-7355.1
-7354.48
-7353.75
-7353
-7352.36
-7351.92
-7351.73
-7351.82
-7352.18
-7352.73
-7353.39
-7354.04
-7354.57
-7354.91
-7355
-7354.84
-7354.49
-7354.01
-7353.52
-7353.1
-7352.82
-7352.73
-7352.8
-7352.99
-7353.26
-7353.53
-7353.76
-7353.92
-7354.01
-7354.06
-7744.1
-7744.15
-7744.26
-7744.43
-7744.66
-7744.97
-7745.4
-7746.06
-7747.14
-7746.63
-7746.57
-7746.59
-7746.65
-7746.74
-7746.84
-7746.96
-7747.08
-7747.2
-7747.31
-7747.43
-7747.55
-7747.68
-7747.82
-7747.98
-7748.18
-7748.45
-7749.07
-7748.74
-7748.65
-7748.53
-7748.4
-7748.25
-7748.08
-7747.88
-7747.67
-7747.43
-7747.18
-7746.9
-7746.6
-7746.27
-7745.92
-7745.55
-7745.16
-7744.75
-7744.32
-7743.88
-7743.43
-7742.97
-7742.51
-7742.05
-7741.59
-7741.14
-7740.71
-7740.28
-7739.89
-7739.51
-7739.17
-7738.86
-7738.59
-7738.36
-7738.18
-7738.04
-7737.96
-7737.94
-7737.97
-7738.06
-7738.21
-7738.41
-7738.68
-7739
-7739.37
-7739.8
-7740.27
-7740.78
-7741.32
-7741.89
-7742.47
-7743.08
-7743.67
-7744.26
-7744.83
-7745.36
-7745.86
-7746.3
-7746.69
-7747
-7747.24
-7747.39
-7747.45
-7747.42
-7747.28
-7747.06
-7746.74
-7746.33
-7745.83
-7745.27
-7744.64
-7743.96
-7743.25
-7742.52
-7741.8
-7741.11
-7740.45
-7739.86
-7739.35
-7738.94
-7738.64
-7738.47
-7738.44
-7738.54
-7738.79
-7739.17
-7739.68
-7740.3
-7741.01
-7741.78
-7742.6
-7743.43
-7744.23
-7744.97
-7745.63
-7746.16
-7746.55
-7746.77
-7746.81
-7746.66
-7746.33
-7745.83
-7745.18
-7744.4
-7743.55
-7742.54
-7741.66
-7740.84
-7740.13
-7739.56
-7739.19
-7739.04
-7739.12
-7739.43
-7739.96
-7740.68
-7741.53
-7742.48
-7743.44
-7744.35
-7745.14
-7745.74
-7746.11
-7746.21
-7746.03
-7745.58
-7744.9
-7744.05
-7743.1
-7742.15
-7741.28
-7740.59
-7740.15
-7740
-7740.16
-7740.61
-7741.29
-7742.11
-7743.19
-7744.01
-7744.69
-7745.13
-7745.25
-7745.05
-7744.55
-7743.81
-7742.95
-7742.08
-7741.33
-7740.82
-7740.6
-7740.72
-7741.15
-7741.79
-7742.57
-7743.32
-7743.94
-7744.32
-7744.42
-7744.22
-7743.8
-7743.24
-7742.67
-7742.19
-7741.87
-7741.77
-7741.87
-7742.1
-7742.42
-7742.73
-7742.98
-7743.16
-7743.26
-7743.3
-8087.77
-8087.76
-8087.76
-8087.75
-8087.73
-8087.71
-8087.57
-8087.67
-8093.3
-8093.22
-8093.4
-8093.39
-8093.37
-8093.29
-8093.16
-8092.97
-8092.74
-8092.47
-8092.17
-8091.83
-8091.46
-8091.06
-8090.63
-8090.19
-8089.71
-8089.23
-8088.72
-8088.2
-8087.68
-8087.15
-8086.62
-8086.1
-8085.58
-8085.08
-8084.6
-8084.14
-8083.72
-8083.32
-8082.97
-8082.66
-8082.4
-8082.19
-8082.04
-8081.95
-8081.93
-8081.97
-8082.08
-8082.25
-8082.49
-8082.8
-8083.17
-8083.61
-8084.1
-8084.64
-8085.23
-8085.86
-8086.52
-8087.19
-8087.89
-8088.57
-8089.25
-8089.9
-8090.52
-8091.09
-8091.6
-8092.04
-8092.41
-8092.68
-8092.85
-8092.92
-8092.88
-8092.73
-8092.46
-8092.09
-8091.62
-8091.05
-8090.39
-8089.67
-8088.89
-8088.07
-8087.23
-8086.4
-8085.6
-8084.85
-8084.17
-8083.59
-8083.11
-8082.78
-8082.58
-8082.55
-8082.67
-8082.96
-8083.4
-8083.99
-8084.7
-8085.52
-8086.42
-8087.36
-8088.31
-8089.23
-8090.09
-8090.84
-8091.45
-8091.9
-8092.15
-8092.19
-8092.02
-8091.63
-8091.05
-8090.29
-8089.4
-8088.42
-8087.26
-8086.25
-8085.31
-8084.49
-8083.84
-8083.42
-8083.24
-8083.34
-8083.7
-8084.31
-8085.14
-8086.13
-8087.22
-8088.32
-8089.37
-8090.27
-8090.96
-8091.38
-8091.49
-8091.27
-8090.75
-8089.96
-8088.98
-8087.88
-8086.78
-8085.79
-8085
-8084.49
-8084.33
-8084.52
-8085.05
-8085.84
-8086.8
-8088.03
-8088.98
-8089.76
-8090.26
-8090.4
-8090.16
-8089.57
-8088.73
-8087.73
-8086.73
-8085.88
-8085.29
-8085.05
-8085.19
-8085.69
-8086.44
-8087.33
-8088.19
-8088.9
-8089.33
-8089.42
-8089.19
-8088.69
-8088.05
-8087.4
-8086.85
-8086.5
-8086.4
-8086.52
-8086.8
-8087.16
-8087.51
-8087.79
-8087.98
-8088.08
-8088.12
-8392.42
-8392.42
-8392.43
-8392.45
-8392.47
-8392.52
-8392.49
-8392.65
-8400.1
-8399.89
-8399.9
-8399.77
-8399.64
-8399.47
-8399.27
-8399.04
-8398.77
-8398.46
-8398.11
-8397.73
-8397.32
-8396.87
-8396.39
-8395.88
-8395.35
-8394.8
-8394.23
-8393.64
-8393.05
-8392.45
-8391.85
-8391.26
-8390.68
-8390.11
-8389.57
-8389.05
-8388.57
-8388.13
-8387.73
-8387.38
-8387.09
-8386.86
-8386.69
-8386.6
-8386.57
-8386.62
-8386.74
-8386.95
-8387.22
-8387.58
-8388
-8388.5
-8389.06
-8389.67
-8390.34
-8391.06
-8391.8
-8392.57
-8393.36
-8394.14
-8394.91
-8395.65
-8396.35
-8396.99
-8397.57
-8398.07
-8398.48
-8398.78
-8398.98
-8399.05
-8399.01
-8398.83
-8398.53
-8398.11
-8397.57
-8396.92
-8396.18
-8395.36
-8394.48
-8393.55
-8392.6
-8391.66
-8390.75
-8389.9
-8389.13
-8388.47
-8387.94
-8387.56
-8387.34
-8387.3
-8387.45
-8387.78
-8388.28
-8388.95
-8389.76
-8390.69
-8391.71
-8392.78
-8393.85
-8394.9
-8395.87
-8396.72
-8397.41
-8397.91
-8398.19
-8398.23
-8398.03
-8397.59
-8396.92
-8396.06
-8395.05
-8393.94
-8392.64
-8391.5
-8390.43
-8389.5
-8388.77
-8388.29
-8388.1
-8388.21
-8388.62
-8389.32
-8390.26
-8391.38
-8392.61
-8393.87
-8395.04
-8396.06
-8396.84
-8397.31
-8397.43
-8397.18
-8396.58
-8395.68
-8394.56
-8393.32
-8392.07
-8390.95
-8390.05
-8389.49
-8389.3
-8389.53
-8390.14
-8391.05
-8392.15
-8393.51
-8394.6
-8395.49
-8396.06
-8396.21
-8395.93
-8395.26
-8394.3
-8393.17
-8392.04
-8391.07
-8390.41
-8390.15
-8390.32
-8390.89
-8391.75
-8392.75
-8393.72
-8394.51
-8394.99
-8395.08
-8394.81
-8394.24
-8393.51
-8392.77
-8392.16
-8391.78
-8391.68
-8391.83
-8392.15
-8392.56
-8392.95
-8393.26
-8393.46
-8393.56
-8393.6
-8662.31
-8662.31
-8662.32
-8662.33
-8662.33
-8662.36
-8662.32
-8662.4
-8671.3
-8671.16
-8671.17
-8671.06
-8670.92
-8670.74
-8670.52
-8670.25
-8669.95
-8669.6
-8669.21
-8668.79
-8668.32
-8667.82
-8667.28
-8666.72
-8666.12
-8665.51
-8664.87
-8664.22
-8663.56
-8662.89
-8662.23
-8661.57
-8660.92
-8660.29
-8659.68
-8659.11
-8658.57
-8658.08
-8657.64
-8657.25
-8656.93
-8656.67
-8656.49
-8656.38
-8656.36
-8656.41
-8656.56
-8656.78
-8657.1
-8657.49
-8657.97
-8658.53
-8659.16
-8659.85
-8660.6
-8661.4
-8662.23
-8663.1
-8663.97
-8664.85
-8665.7
-8666.53
-8667.31
-8668.03
-8668.68
-8669.24
-8669.69
-8670.03
-8670.25
-8670.33
-8670.27
-8670.08
-8669.74
-8669.27
-8668.66
-8667.94
-8667.11
-8666.19
-8665.2
-8664.17
-8663.1
-8662.05
-8661.04
-8660.09
-8659.23
-8658.5
-8657.91
-8657.48
-8657.24
-8657.2
-8657.37
-8657.74
-8658.3
-8659.05
-8659.96
-8661
-8662.14
-8663.33
-8664.54
-8665.7
-8666.78
-8667.73
-8668.5
-8669.06
-8669.37
-8669.41
-8669.18
-8668.69
-8667.94
-8666.97
-8665.84
-8664.59
-8663.17
-8661.89
-8660.69
-8659.65
-8658.83
-8658.3
-8658.09
-8658.22
-8658.68
-8659.47
-8660.52
-8661.78
-8663.15
-8664.55
-8665.86
-8667
-8667.86
-8668.38
-8668.51
-8668.22
-8667.55
-8666.54
-8665.28
-8663.89
-8662.5
-8661.25
-8660.25
-8659.62
-8659.42
-8659.69
-8660.38
-8661.41
-8662.65
-8664.14
-8665.36
-8666.36
-8666.99
-8667.16
-8666.84
-8666.09
-8665.01
-8663.74
-8662.48
-8661.4
-8660.67
-8660.39
-8660.59
-8661.23
-8662.19
-8663.32
-8664.4
-8665.27
-8665.79
-8665.89
-8665.57
-8664.93
-8664.11
-8663.29
-8662.61
-8662.2
-8662.1
-8662.28
-8662.65
-8663.1
-8663.53
-8663.86
-8664.07
-8664.17
-8664.21
-8901.39
-8901.4
-8901.4
-8901.4
-8901.4
-8901.42
-8901.4
-8901.44
-8911.76
-8911.63
-8911.6
-8911.48
-8911.33
-8911.12
-8910.88
-8910.58
-8910.24
-8909.86
-8909.43
-8908.95
-8908.44
-8907.89
-8907.3
-8906.67
-8906.02
-8905.34
-8904.64
-8903.92
-8903.19
-8902.46
-8901.73
-8901
-8900.28
-8899.59
-8898.92
-8898.29
-8897.7
-8897.16
-8896.67
-8896.25
-8895.9
-8895.62
-8895.42
-8895.3
-8895.28
-8895.34
-8895.5
-8895.76
-8896.1
-8896.54
-8897.07
-8897.69
-8898.38
-8899.15
-8899.98
-8900.86
-8901.79
-8902.74
-8903.71
-8904.67
-8905.62
-8906.53
-8907.39
-8908.19
-8908.9
-8909.51
-8910.01
-8910.39
-8910.62
-8910.71
-8910.65
-8910.43
-8910.06
-8909.53
-8908.86
-8908.06
-8907.15
-8906.13
-8905.04
-8903.9
-8902.72
-8901.56
-8900.45
-8899.4
-8898.46
-8897.65
-8897
-8896.54
-8896.28
-8896.23
-8896.42
-8896.83
-8897.45
-8898.28
-8899.29
-8900.44
-8901.69
-8903.01
-8904.34
-8905.62
-8906.82
-8907.86
-8908.71
-8909.32
-8909.66
-8909.7
-8909.44
-8908.89
-8908.06
-8906.99
-8905.74
-8904.36
-8902.81
-8901.39
-8900.07
-8898.93
-8898.03
-8897.44
-8897.21
-8897.36
-8897.88
-8898.74
-8899.91
-8901.29
-8902.81
-8904.35
-8905.8
-8907.05
-8908
-8908.56
-8908.7
-8908.38
-8907.63
-8906.51
-8905.12
-8903.58
-8902.05
-8900.66
-8899.57
-8898.88
-8898.67
-8898.97
-8899.74
-8900.89
-8902.27
-8903.88
-8905.24
-8906.35
-8907.04
-8907.22
-8906.87
-8906.03
-8904.83
-8903.43
-8902.04
-8900.86
-8900.06
-8899.75
-8899.98
-8900.7
-8901.76
-8903
-8904.19
-8905.15
-8905.71
-8905.8
-8905.44
-8904.73
-8903.82
-8902.92
-8902.18
-8901.74
-8901.64
-8901.85
-8902.27
-8902.77
-8903.23
-8903.59
-8903.81
-8903.9
-8903.94
-9113.2
-9113.2
-9113.2
-9113.2
-9113.2
-9113.21
-9113.19
-9113.22
-9124.84
-9124.72
-9124.67
-9124.54
-9124.36
-9124.14
-9123.86
-9123.54
-9123.17
-9122.75
-9122.28
-9121.76
-9121.2
-9120.59
-9119.95
-9119.27
-9118.56
-9117.82
-9117.05
-9116.27
-9115.48
-9114.68
-9113.88
-9113.08
-9112.31
-9111.55
-9110.82
-9110.13
-9109.49
-9108.9
-9108.37
-9107.91
-9107.53
-9107.23
-9107.01
-9106.89
-9106.86
-9106.94
-9107.11
-9107.39
-9107.78
-9108.26
-9108.84
-9109.51
-9110.27
-9111.11
-9112.02
-9112.98
-9113.99
-9115.03
-9116.09
-9117.14
-9118.17
-9119.17
-9120.11
-9120.98
-9121.75
-9122.42
-9122.96
-9123.37
-9123.63
-9123.72
-9123.65
-9123.41
-9123
-9122.43
-9121.69
-9120.82
-9119.82
-9118.71
-9117.52
-9116.28
-9114.98
-9113.73
-9112.51
-9111.37
-9110.34
-9109.46
-9108.75
-9108.25
-9107.97
-9107.93
-9108.13
-9108.58
-9109.27
-9110.17
-9111.27
-9112.53
-9113.9
-9115.34
-9116.78
-9118.19
-9119.48
-9120.62
-9121.54
-9122.2
-9122.57
-9122.62
-9122.33
-9121.73
-9120.82
-9119.65
-9118.28
-9116.77
-9115.1
-9113.55
-9112.11
-9110.86
-9109.88
-9109.24
-9108.99
-9109.16
-9109.73
-9110.68
-9111.95
-9113.46
-9115.12
-9116.8
-9118.37
-9119.73
-9120.76
-9121.38
-9121.52
-9121.16
-9120.34
-9119.11
-9117.59
-9115.92
-9114.24
-9112.73
-9111.54
-9110.79
-9110.57
-9110.9
-9111.75
-9113.02
-9114.54
-9116.27
-9117.76
-9118.97
-9119.72
-9119.92
-9119.53
-9118.61
-9117.29
-9115.77
-9114.25
-9112.96
-9112.09
-9111.77
-9112.03
-9112.82
-9113.99
-9115.33
-9116.63
-9117.66
-9118.26
-9118.35
-9117.95
-9117.16
-9116.18
-9115.2
-9114.4
-9113.93
-9113.84
-9114.07
-9114.53
-9115.08
-9115.58
-9115.96
-9116.18
-9116.28
-9116.3
-9300.82
-9300.82
-9300.82
-9300.82
-9300.82
-9300.83
-9300.82
-9300.83
-9313.65
-9313.54
-9313.47
-9313.33
-9313.13
-9312.89
-9312.59
-9312.24
-9311.84
-9311.38
-9310.87
-9310.31
-9309.7
-9309.05
-9308.35
-9307.62
-9306.85
-9306.05
-9305.23
-9304.38
-9303.52
-9302.66
-9301.8
-9300.94
-9300.1
-9299.29
-9298.5
-9297.76
-9297.07
-9296.43
-9295.86
-9295.37
-9294.95
-9294.63
-9294.4
-9294.27
-9294.24
-9294.33
-9294.52
-9294.82
-9295.24
-9295.76
-9296.39
-9297.12
-9297.94
-9298.85
-9299.83
-9300.88
-9301.97
-9303.09
-9304.23
-9305.37
-9306.49
-9307.56
-9308.58
-9309.51
-9310.35
-9311.07
-9311.66
-9312.09
-9312.37
-9312.47
-9312.39
-9312.13
-9311.68
-9311.06
-9310.27
-9309.32
-9308.24
-9307.04
-9305.75
-9304.41
-9303.01
-9301.66
-9300.34
-9299.11
-9298.01
-9297.06
-9296.29
-9295.75
-9295.45
-9295.41
-9295.63
-9296.12
-9296.86
-9297.84
-9299.03
-9300.39
-9301.87
-9303.43
-9304.99
-9306.5
-9307.9
-9309.13
-9310.12
-9310.84
-9311.23
-9311.28
-9310.97
-9310.31
-9309.32
-9308.06
-9306.57
-9304.94
-9303.15
-9301.48
-9299.92
-9298.57
-9297.52
-9296.83
-9296.56
-9296.74
-9297.36
-9298.39
-9299.77
-9301.4
-9303.19
-9305
-9306.7
-9308.17
-9309.28
-9309.94
-9310.08
-9309.7
-9308.8
-9307.47
-9305.83
-9304.01
-9302.2
-9300.57
-9299.28
-9298.48
-9298.25
-9298.62
-9299.54
-9300.92
-9302.58
-9304.42
-9306.04
-9307.35
-9308.16
-9308.36
-9307.94
-9306.94
-9305.51
-9303.86
-9302.23
-9300.84
-9299.91
-9299.56
-9299.85
-9300.71
-9301.98
-9303.43
-9304.83
-9305.94
-9306.58
-9306.66
-9306.22
-9305.36
-9304.29
-9303.24
-9302.39
-9301.89
-9301.8
-9302.07
-9302.57
-9303.16
-9303.7
-9304.09
-9304.32
-9304.41
-9304.43
-9467.04
-9467.04
-9467.04
-9467.04
-9467.03
-9467.03
-9467.02
-9467.03
-9480.96
-9480.84
-9480.77
-9480.61
-9480.41
-9480.14
-9479.82
-9479.45
-9479.01