/*--------------------------------*- C++ -*----------------------------------*\
  =========                 |
  \\      /  F ield         | OpenFOAM: The Open Source CFD Toolbox
   \\    /   O peration     | Website:  https://openfoam.org
    \\  /    A nd           | Version:  12
     \\/     M anipulation  |
\*---------------------------------------------------------------------------*/
FoamFile
{
    format      ascii;
    class       volScalarField;
    location    "8";
    object      p;
}
// * * * * * * * * * * * * * * * * * * * * * * * * * * * * * * * * * * * * * //

dimensions      [0 2 -2 0 0 0 0];

internalField   nonuniform List<scalar> 
400
(
5.55566e-08
-0.000126236
-0.000294386
-0.0002041
-0.00107295
-0.00298727
-0.00521146
-0.00722607
-0.0088352
-0.00992456
-0.0104512
-0.0103686
-0.00964576
-0.00811486
-0.00566972
-0.00227491
0.00194749
0.00642102
0.009643
0.0109667
6.07249e-05
-6.30637e-05
-0.000271756
-0.000939157
-0.00232177
-0.00429633
-0.00631702
-0.00821454
-0.00970039
-0.0107161
-0.0112145
-0.0111827
-0.0105615
-0.00926509
-0.007186
-0.00426705
-0.000512411
0.00375954
0.00742223
0.00950016
0.000375796
-0.000100195
-0.000967865
-0.00240667
-0.00435863
-0.00640724
-0.00836633
-0.0100903
-0.0113351
-0.0121332
-0.0124706
-0.012348
-0.0117332
-0.0106207
-0.00895423
-0.0066918
-0.00373738
-9.02269e-05
0.00351474
0.00594653
0.000174937
-0.000649426
-0.00221146
-0.00437487
-0.00668643
-0.00877807
-0.0104811
-0.0117324
-0.0126234
-0.0131726
-0.013372
-0.0132343
-0.012724
-0.011815
-0.0104828
-0.00872942
-0.00652512
-0.0036795
-0.000596961
0.00168511
-0.000817668
-0.00191421
-0.00399605
-0.00652145
-0.00883407
-0.0106779
-0.0120367
-0.0129837
-0.0136345
-0.0140281
-0.0141682
-0.0140461
-0.0136295
-0.0128931
-0.0118184
-0.010416
-0.00877223
-0.00663749
-0.00435075
-0.00229336
-0.00257194
-0.00376902
-0.00599764
-0.00848256
-0.0105639
-0.0120719
-0.013122
-0.0138636
-0.014362
-0.0146615
-0.0147706
-0.0146765
-0.0143556
-0.0137763
-0.0129366
-0.0118043
-0.0105548
-0.00896704
-0.00732993
-0.00562394
-0.00457945
-0.00573243
-0.00782079
-0.0100926
-0.0118651
-0.013031
-0.0138476
-0.0144377
-0.0148387
-0.0150876
-0.0151958
-0.0151425
-0.0149103
-0.0144633
-0.0138164
-0.012898
-0.0119359
-0.0107341
-0.00959668
-0.00822412
-0.00637514
-0.00741104
-0.00925372
-0.0112762
-0.012743
-0.0136289
-0.0142832
-0.0147708
-0.0151165
-0.0153444
-0.0154664
-0.0154596
-0.0153094
-0.0149681
-0.0144697
-0.0137024
-0.0129669
-0.011996
-0.0112172
-0.0101441
-0.00767093
-0.00859882
-0.0102133
-0.0120046
-0.0132446
-0.0139545
-0.0145016
-0.0149243
-0.0152429
-0.0154687
-0.0156092
-0.0156411
-0.0155582
-0.0152945
-0.0149092
-0.0142173
-0.0136941
-0.0127829
-0.0123337
-0.0114341
-0.00839384
-0.00921874
-0.0106693
-0.0123121
-0.0134206
-0.0140553
-0.014551
-0.0149427
-0.0152585
-0.0154976
-0.0156681
-0.0157296
-0.0156879
-0.0154588
-0.0151457
-0.0144514
-0.0141155
-0.0131074
-0.0129977
-0.0121385
-0.00851371
-0.00927825
-0.0106555
-0.012233
-0.0133253
-0.0139843
-0.0144692
-0.014859
-0.015184
-0.0154428
-0.0156361
-0.0157191
-0.0156853
-0.0154573
-0.0151407
-0.0144362
-0.0141619
-0.0130087
-0.013231
-0.0122452
-0.00807616
-0.00883288
-0.0102002
-0.0118274
-0.0130068
-0.0137438
-0.0142532
-0.0146614
-0.0150071
-0.0152863
-0.0154925
-0.0155755
-0.0155196
-0.0152652
-0.0148666
-0.0141663
-0.0137842
-0.0125479
-0.0129768
-0.0117618
-0.00719634
-0.00801946
-0.00941373
-0.0110967
-0.0124458
-0.0133118
-0.0138885
-0.014336
-0.0147079
-0.0150002
-0.0152057
-0.0152649
-0.0151578
-0.0148417
-0.0143354
-0.0136006
-0.0130185
-0.0117541
-0.0122488
-0.0107067
-0.00617684
-0.00702008
-0.00839604
-0.0100226
-0.0115646
-0.0126288
-0.0133381
-0.0138591
-0.0142696
-0.0145734
-0.014766
-0.014789
-0.0146154
-0.0142109
-0.0135889
-0.0127606
-0.0119291
-0.0106423
-0.011071
-0.00912092
-0.00526947
-0.00602294
-0.00724096
-0.00868778
-0.0102892
-0.0116038
-0.0125526
-0.013211
-0.0136913
-0.0140155
-0.0141895
-0.0141711
-0.0139239
-0.0134155
-0.0126579
-0.0116724
-0.0105852
-0.00923466
-0.00951657
-0.00705634
-0.00485432
-0.00522688
-0.0059828
-0.00711038
-0.00863216
-0.0101747
-0.011427
-0.0123316
-0.0129572
-0.0133496
-0.013525
-0.0134658
-0.0131389
-0.012518
-0.0116
-0.0104104
-0.00907066
-0.00758876
-0.00759719
-0.00452821
-0.0048965
-0.00473396
-0.00468402
-0.00533549
-0.0067009
-0.00836388
-0.00992149
-0.0111415
-0.0120078
-0.0125533
-0.0128029
-0.0127354
-0.0123345
-0.011584
-0.0104875
-0.00905218
-0.00741809
-0.00574451
-0.00532241
-0.00139012
-0.00475269
-0.00410044
-0.00329173
-0.00348132
-0.0046859
-0.00641054
-0.00819478
-0.00968965
-0.0108159
-0.0115493
-0.0118962
-0.0118556
-0.0114357
-0.0105996
-0.009348
-0.00768393
-0.00576269
-0.00372983
-0.00222603
0.00384227
-0.00412359
-0.00315962
-0.00203005
-0.00202254
-0.00309262
-0.00483478
-0.0067601
-0.00849138
-0.0098357
-0.0107456
-0.0112062
-0.0112348
-0.010821
-0.00993803
-0.00858829
-0.00675145
-0.00442181
-0.00131588
0.0039295
0.016751
-0.0053779
-0.00219219
-0.000953394
-0.00106157
-0.00203951
-0.00376504
-0.00576417
-0.00769836
-0.00922831
-0.0102808
-0.0108328
-0.0109225
-0.0105451
-0.0097111
-0.0083301
-0.00629933
-0.00281304
0.00415296
0.018323
0.0413483
)
;

boundaryField
{
    movingWall
    {
        type            zeroGradient;
    }
    fixedWalls
    {
        type            zeroGradient;
    }
    frontAndBack
    {
        type            empty;
    }
}


// ************************************************************************* //
