/*--------------------------------*- C++ -*----------------------------------*\
  =========                 |
  \\      /  F ield         | OpenFOAM: The Open Source CFD Toolbox
   \\    /   O peration     | Website:  https://openfoam.org
    \\  /    A nd           | Version:  12
     \\/     M anipulation  |
\*---------------------------------------------------------------------------*/
FoamFile
{
    format      ascii;
    class       surfaceScalarField;
    location    "8";
    object      phi;
}
// * * * * * * * * * * * * * * * * * * * * * * * * * * * * * * * * * * * * * //

dimensions      [0 3 -1 0 0 0 0];

internalField   nonuniform List<scalar> 
760
(
3.03073e-07
-3.03078e-07
1.64685e-07
1.38387e-07
-6.55715e-07
8.204e-07
-2.3059e-06
1.65018e-06
-4.11468e-06
1.80878e-06
-5.6126e-06
1.49792e-06
-6.86931e-06
1.25671e-06
-7.75596e-06
8.86651e-07
-8.4508e-06
6.94839e-07
-8.88202e-06
4.31223e-07
-9.16586e-06
2.83837e-07
-9.21757e-06
5.17088e-08
-9.11667e-06
-1.00901e-07
-8.7981e-06
-3.18566e-07
-8.26268e-06
-5.35425e-07
-7.35855e-06
-9.04124e-07
-6.01199e-06
-1.34656e-06
-4.05491e-06
-1.95708e-06
-1.69697e-06
-2.35793e-06
-1.69697e-06
-3.63572e-07
6.04942e-08
-1.45029e-06
1.22511e-06
-3.17834e-06
2.54845e-06
-4.79296e-06
3.2648e-06
-5.96638e-06
2.9822e-06
-7.03921e-06
2.57074e-06
-7.80025e-06
2.01775e-06
-8.45549e-06
1.54189e-06
-8.86615e-06
1.1055e-06
-9.12665e-06
6.91725e-07
-9.18156e-06
3.38742e-07
-9.09726e-06
-3.25949e-08
-8.88165e-06
-3.16505e-07
-8.53419e-06
-6.66025e-07
-7.98901e-06
-1.08061e-06
-7.25151e-06
-1.64163e-06
-6.15323e-06
-2.44484e-06
-4.57244e-06
-3.53788e-06
-2.36591e-06
-4.56447e-06
-4.06288e-06
-1.11959e-06
1.18008e-06
-2.72861e-06
2.83413e-06
-4.20887e-06
4.02872e-06
-5.30106e-06
4.35699e-06
-6.13013e-06
3.81126e-06
-6.75424e-06
3.19486e-06
-7.0953e-06
2.35881e-06
-7.28512e-06
1.73171e-06
-7.25433e-06
1.0747e-06
-7.19881e-06
6.36208e-07
-7.07737e-06
2.17303e-07
-6.98164e-06
-1.28318e-07
-6.75183e-06
-5.46319e-07
-6.46079e-06
-9.5707e-07
-6.02204e-06
-1.51935e-06
-5.47772e-06
-2.18596e-06
-4.80995e-06
-3.11261e-06
-3.83946e-06
-4.50837e-06
-2.26821e-06
-6.13571e-06
-6.33109e-06
-1.41113e-06
2.59122e-06
-2.95906e-06
4.38206e-06
-4.15996e-06
5.22961e-06
-4.89899e-06
5.09603e-06
-5.33289e-06
4.24516e-06
-5.46608e-06
3.32805e-06
-5.44435e-06
2.33707e-06
-5.40198e-06
1.68935e-06
-5.38115e-06
1.05387e-06
-5.36828e-06
6.23332e-07
-5.29773e-06
1.46756e-07
-5.19313e-06
-2.32915e-07
-5.03286e-06
-7.0659e-07
-4.7989e-06
-1.19103e-06
-4.45987e-06
-1.85838e-06
-3.98895e-06
-2.65688e-06
-3.44668e-06
-3.65488e-06
-2.78871e-06
-5.16634e-06
-1.7563e-06
-7.16812e-06
-8.08739e-06
-1.38916e-06
3.98038e-06
-2.66027e-06
5.65316e-06
-3.49683e-06
6.06618e-06
-3.95041e-06
5.5496e-06
-4.09136e-06
4.38611e-06
-4.0587e-06
3.2954e-06
-4.03331e-06
2.31167e-06
-4.02177e-06
1.67781e-06
-4.00766e-06
1.03976e-06
-3.99443e-06
6.10106e-07
-3.9627e-06
1.15025e-07
-3.89302e-06
-3.02594e-07
-3.76278e-06
-8.36834e-07
-3.56517e-06
-1.38865e-06
-3.31583e-06
-2.10772e-06
-2.95884e-06
-3.01387e-06
-2.54181e-06
-4.07191e-06
-2.12023e-06
-5.58791e-06
-1.36964e-06
-7.91871e-06
-9.45703e-06
-1.13997e-06
5.12035e-06
-2.04877e-06
6.56196e-06
-2.64368e-06
6.66109e-06
-2.91505e-06
5.82098e-06
-2.95486e-06
4.42592e-06
-2.88308e-06
3.22362e-06
-2.86738e-06
2.29597e-06
-2.86204e-06
1.67247e-06
-2.87038e-06
1.0481e-06
-2.87475e-06
6.14471e-07
-2.87555e-06
1.15828e-07
-2.8446e-06
-3.33546e-07
-2.76905e-06
-9.12384e-07
-2.60567e-06
-1.55202e-06
-2.38055e-06
-2.33284e-06
-2.09479e-06
-3.29964e-06
-1.74191e-06
-4.42478e-06
-1.38692e-06
-5.9429e-06
-1.03442e-06
-8.2712e-06
-1.04915e-05
-8.06045e-07
5.9264e-06
-1.43496e-06
7.19088e-06
-1.84132e-06
7.06744e-06
-1.97629e-06
5.95595e-06
-1.97286e-06
4.42249e-06
-1.90636e-06
3.15712e-06
-1.8963e-06
2.28592e-06
-1.89395e-06
1.67011e-06
-1.92639e-06
1.08054e-06
-1.95376e-06
6.41845e-07
-1.98868e-06
1.50748e-07
-1.99982e-06
-3.22401e-07
-1.98979e-06
-9.22413e-07
-1.89681e-06
-1.645e-06
-1.73035e-06
-2.4993e-06
-1.52018e-06
-3.5098e-06
-1.2539e-06
-4.69107e-06
-1.00151e-06
-6.19529e-06
-7.60281e-07
-8.51243e-06
-1.12517e-05
-4.63903e-07
6.3903e-06
-8.58792e-07
7.58577e-06
-1.10872e-06
7.31737e-06
-1.20264e-06
6.04987e-06
-1.17463e-06
4.39448e-06
-1.11243e-06
3.09491e-06
-1.10618e-06
2.27967e-06
-1.11637e-06
1.6803e-06
-1.16523e-06
1.1294e-06
-1.21245e-06
6.8906e-07
-1.26517e-06
2.03476e-07
-1.29288e-06
-2.94699e-07
-1.30637e-06
-9.08916e-07
-1.2649e-06
-1.68647e-06
-1.14355e-06
-2.62065e-06
-9.9021e-07
-3.66315e-06
-7.95668e-07
-4.88561e-06
-6.27888e-07
-6.36307e-06
-5.62058e-07
-8.57826e-06
-1.18138e-05
-1.81166e-07
6.57146e-06
-3.73557e-07
7.77816e-06
-4.95592e-07
7.4394e-06
-5.56149e-07
6.11043e-06
-5.30892e-07
4.36923e-06
-4.89853e-07
3.05388e-06
-4.9201e-07
2.28183e-06
-5.21732e-07
1.71003e-06
-5.88552e-07
1.19622e-06
-6.5385e-07
7.54358e-07
-7.22101e-07
2.71727e-07
-7.52993e-07
-2.63806e-07
-7.65188e-07
-8.96721e-07
-7.5845e-07
-1.69321e-06
-6.96617e-07
-2.68248e-06
-6.01819e-07
-3.75795e-06
-5.19152e-07
-4.96828e-06
-4.3257e-07
-6.44965e-06
-4.01821e-07
-8.60901e-06
-1.22156e-05
1.07035e-07
6.46443e-06
7.99475e-08
7.80524e-06
3.41742e-08
7.48518e-06
2.24972e-08
6.12211e-06
2.58834e-08
4.36584e-06
1.35705e-08
3.06619e-06
-4.56107e-09
2.29996e-06
-4.58499e-08
1.75132e-06
-1.11012e-07
1.26138e-06
-1.75611e-07
8.18957e-07
-2.42561e-07
3.38677e-07
-2.84417e-07
-2.2195e-07
-2.78121e-07
-9.03017e-07
-2.77395e-07
-1.69394e-06
-2.32678e-07
-2.7272e-06
-2.29729e-07
-3.76089e-06
-1.80119e-07
-5.01789e-06
-2.00914e-07
-6.42886e-06
-3.07083e-07
-8.50284e-06
-1.25227e-05
3.57462e-07
6.10697e-06
5.20065e-07
7.64264e-06
6.07822e-07
7.39742e-06
5.33216e-07
6.19671e-06
4.81444e-07
4.41761e-06
4.56832e-07
3.0908e-06
4.41848e-07
2.31494e-06
4.08319e-07
1.78484e-06
3.53048e-07
1.31666e-06
2.96492e-07
8.75514e-07
2.47866e-07
3.87303e-07
2.05751e-07
-1.79836e-07
2.03574e-07
-9.0084e-07
1.88485e-07
-1.67885e-06
1.83582e-07
-2.72229e-06
7.26046e-08
-3.64992e-06
7.74323e-08
-5.02272e-06
-8.88901e-08
-6.26253e-06
-2.09821e-07
-8.38191e-06
-1.27325e-05
5.98038e-07
5.50893e-06
9.50037e-07
7.29064e-06
1.1426e-06
7.20486e-06
1.08053e-06
6.25878e-06
9.8613e-07
4.51201e-06
9.16645e-07
3.16029e-06
8.9622e-07
2.33537e-06
8.85575e-07
1.79549e-06
8.62473e-07
1.33976e-06
8.38564e-07
8.99422e-07
8.18627e-07
4.0724e-07
7.99147e-07
-1.60355e-07
7.61156e-07
-8.62849e-07
7.3344e-07
-1.65113e-06
6.26452e-07
-2.61531e-06
5.13339e-07
-3.5368e-06
3.45976e-07
-4.85535e-06
8.61211e-08
-6.00268e-06
-1.22757e-07
-8.17303e-06
-1.28553e-05
8.49964e-07
4.65897e-06
1.34466e-06
6.79595e-06
1.66904e-06
6.88047e-06
1.7076e-06
6.22022e-06
1.55234e-06
4.66727e-06
1.45385e-06
3.25878e-06
1.43265e-06
2.35657e-06
1.45049e-06
1.77765e-06
1.4687e-06
1.32154e-06
1.47879e-06
8.89332e-07
1.47171e-06
4.14319e-07
1.45171e-06
-1.40351e-07
1.38165e-06
-7.9279e-07
1.29318e-06
-1.56267e-06
1.09548e-06
-2.4176e-06
8.9559e-07
-3.33691e-06
5.8625e-07
-4.54601e-06
2.39675e-07
-5.6561e-06
4.698e-09
-7.93806e-06
-1.28506e-05
1.08734e-06
3.57163e-06
1.7727e-06
6.11059e-06
2.18451e-06
6.46866e-06
2.36327e-06
6.04146e-06
2.22398e-06
4.80656e-06
2.0884e-06
3.39436e-06
2.03934e-06
2.40563e-06
2.06686e-06
1.75014e-06
2.12157e-06
1.26683e-06
2.17122e-06
8.39682e-07
2.17928e-06
4.06255e-07
2.14701e-06
-1.08082e-07
2.05101e-06
-6.96785e-07
1.894e-06
-1.40566e-06
1.63837e-06
-2.16198e-06
1.36011e-06
-3.05865e-06
9.41864e-07
-4.12777e-06
4.85527e-07
-5.19976e-06
1.14061e-07
-7.56659e-06
-1.27365e-05
1.27477e-06
2.29686e-06
2.06801e-06
5.31735e-06
2.61829e-06
5.91838e-06
3.00028e-06
5.65947e-06
3.0395e-06
4.76734e-06
2.92951e-06
3.50435e-06
2.84805e-06
2.48709e-06
2.83878e-06
1.7594e-06
2.867e-06
1.23861e-06
2.91864e-06
7.8805e-07
2.9341e-06
3.90795e-07
2.89112e-06
-6.51029e-08
2.75915e-06
-5.6482e-07
2.54121e-06
-1.18771e-06
2.21996e-06
-1.84073e-06
1.84118e-06
-2.67987e-06
1.2921e-06
-3.57868e-06
6.70267e-07
-4.57793e-06
2.51744e-07
-7.14807e-06
-1.24848e-05
1.28634e-06
1.01052e-06
2.1888e-06
4.41489e-06
2.89272e-06
5.21447e-06
3.517e-06
5.03519e-06
3.84995e-06
4.43439e-06
3.90795e-06
3.44635e-06
3.87293e-06
2.52211e-06
3.84693e-06
1.7854e-06
3.82826e-06
1.25728e-06
3.81754e-06
7.9877e-07
3.7807e-06
4.27634e-07
3.72332e-06
-7.7202e-09
3.5486e-06
-3.90101e-07
3.27943e-06
-9.18538e-07
2.90725e-06
-1.46855e-06
2.42827e-06
-2.20089e-06
1.77223e-06
-2.92265e-06
1.01836e-06
-3.82406e-06
4.85889e-07
-6.6156e-06
-1.19989e-05
7.71977e-07
2.38538e-07
1.86884e-06
3.31802e-06
2.9184e-06
4.16491e-06
3.80392e-06
4.14967e-06
4.46194e-06
3.77638e-06
4.83301e-06
3.07527e-06
5.00047e-06
2.35465e-06
5.07024e-06
1.71563e-06
5.08306e-06
1.24446e-06
5.06853e-06
8.13297e-07
4.9947e-06
5.01468e-07
4.84029e-06
1.46691e-07
4.60322e-06
-1.53031e-07
4.28159e-06
-5.96906e-07
3.79833e-06
-9.85297e-07
3.15443e-06
-1.55699e-06
2.29468e-06
-2.0629e-06
1.37113e-06
-2.90051e-06
8.05817e-07
-6.05028e-06
-1.11931e-05
-2.03557e-07
4.42095e-07
1.1444e-06
1.97007e-06
2.44794e-06
2.86137e-06
3.64705e-06
2.95056e-06
4.63445e-06
2.78897e-06
5.37037e-06
2.33936e-06
5.83908e-06
1.88593e-06
6.15303e-06
1.40168e-06
6.30146e-06
1.09604e-06
6.35639e-06
7.5837e-07
6.28616e-06
5.71694e-07
6.14644e-06
2.86412e-07
5.85781e-06
1.35597e-07
5.44324e-06
-1.82336e-07
4.82833e-06
-3.70387e-07
4.03997e-06
-7.68628e-07
2.96798e-06
-9.90916e-07
2.06192e-06
-1.99444e-06
1.3787e-06
-5.36706e-06
-9.81437e-06
-1.16535e-06
1.60744e-06
-1.5419e-07
9.58912e-07
1.3984e-06
1.30877e-06
2.91244e-06
1.43652e-06
4.22566e-06
1.47575e-06
5.27294e-06
1.29208e-06
6.02146e-06
1.13741e-06
6.53788e-06
8.85259e-07
6.86617e-06
7.67743e-07
7.02919e-06
5.95356e-07
7.07128e-06
5.29601e-07
6.97494e-06
3.82756e-07
6.75515e-06
3.55383e-07
6.36702e-06
2.05796e-07
5.83431e-06
1.62326e-07
5.12527e-06
-5.95884e-08
4.40267e-06
-2.68317e-07
3.77959e-06
-1.37137e-06
2.59984e-06
-4.18731e-06
-7.21453e-06
1.60744e-06
2.56635e-06
3.87513e-06
5.31165e-06
6.7874e-06
8.07948e-06
9.21689e-06
1.01022e-05
1.08699e-05
1.14653e-05
1.19949e-05
1.23776e-05
1.2733e-05
1.29388e-05
1.31011e-05
1.30415e-05
1.27732e-05
1.14018e-05
7.21453e-06
)
;

boundaryField
{
    movingWall
    {
        type            calculated;
        value           uniform 0;
    }
    fixedWalls
    {
        type            calculated;
        value           uniform 0;
    }
    frontAndBack
    {
        type            empty;
    }
}


// ************************************************************************* //
