/*--------------------------------*- C++ -*----------------------------------*\
  =========                 |
  \\      /  F ield         | OpenFOAM: The Open Source CFD Toolbox
   \\    /   O peration     | Website:  https://openfoam.org
    \\  /    A nd           | Version:  12
     \\/     M anipulation  |
\*---------------------------------------------------------------------------*/
FoamFile
{
    format      ascii;
    class       volVectorField;
    location    "8";
    object      U;
}
// * * * * * * * * * * * * * * * * * * * * * * * * * * * * * * * * * * * * * //

dimensions      [0 1 -1 0 0 0 0];

internalField   nonuniform List<vector> 
400
(
(0.00304684 -0.00537964 0)
(0.00847001 -0.00288268 0)
(-0.00282246 0.00365834 0)
(-0.0195795 0.0144995 0)
(-0.0710382 0.0215087 0)
(-0.100525 0.0152498 0)
(-0.130537 0.0150542 0)
(-0.148179 0.0110018 0)
(-0.16504 0.0098052 0)
(-0.174149 0.0067008 0)
(-0.181873 0.00561641 0)
(-0.185078 0.00304249 0)
(-0.185917 0.00128558 0)
(-0.181175 -0.00189941 0)
(-0.172024 -0.00454616 0)
(-0.155296 -0.00966094 0)
(-0.1313 -0.0146362 0)
(-0.0971669 -0.0208421 0)
(-0.0586782 -0.0201563 0)
(-0.0132552 -0.00574667 0)
(-0.00200955 -0.00769912 0)
(-0.0129014 0.00906912 0)
(-0.0421533 0.0324092 0)
(-0.0816013 0.0512398 0)
(-0.112798 0.0470687 0)
(-0.132988 0.0410336 0)
(-0.151445 0.0335094 0)
(-0.16433 0.023324 0)
(-0.175095 0.0169927 0)
(-0.180789 0.00949717 0)
(-0.184829 0.00464178 0)
(-0.184503 -0.00163127 0)
(-0.182306 -0.00643538 0)
(-0.176288 -0.0132386 0)
(-0.167176 -0.0204532 0)
(-0.152388 -0.0316519 0)
(-0.132026 -0.0456812 0)
(-0.10355 -0.0645645 0)
(-0.0707231 -0.0787401 0)
(-0.0195173 -0.0578923 0)
(-0.00986257 0.0110763 0)
(-0.0359373 0.0428638 0)
(-0.0704838 0.0671089 0)
(-0.0996562 0.0760955 0)
(-0.118205 0.0673062 0)
(-0.13057 0.0571061 0)
(-0.141634 0.0424028 0)
(-0.14519 0.0331525 0)
(-0.145476 0.0226588 0)
(-0.145 0.0146414 0)
(-0.143276 0.00658364 0)
(-0.141336 -0.000306739 0)
(-0.138698 -0.00783959 0)
(-0.133348 -0.0155133 0)
(-0.126642 -0.0258657 0)
(-0.116804 -0.0389487 0)
(-0.102535 -0.0593528 0)
(-0.082167 -0.0864274 0)
(-0.0626704 -0.114766 0)
(-0.0209206 -0.114431 0)
(-0.0132241 0.0384644 0)
(-0.0444265 0.0733764 0)
(-0.0760362 0.0935687 0)
(-0.095735 0.0935734 0)
(-0.105521 0.0796893 0)
(-0.110968 0.0647216 0)
(-0.10908 0.0475248 0)
(-0.106544 0.0341157 0)
(-0.108141 0.0211938 0)
(-0.10724 0.012234 0)
(-0.10747 0.00311135 0)
(-0.105779 -0.00412293 0)
(-0.103246 -0.013062 0)
(-0.0992609 -0.0219508 0)
(-0.0928148 -0.0339052 0)
(-0.0867061 -0.0475057 0)
(-0.0761808 -0.0672389 0)
(-0.0569583 -0.0989138 0)
(-0.0480002 -0.137046 0)
(-0.0159593 -0.147912 0)
(-0.0124133 0.0644008 0)
(-0.0445704 0.0995674 0)
(-0.0663973 0.110959 0)
(-0.0794982 0.104785 0)
(-0.0824427 0.0860974 0)
(-0.0816156 0.0672355 0)
(-0.0786642 0.0474881 0)
(-0.080202 0.0341868 0)
(-0.0793907 0.0210133 0)
(-0.0806868 0.0121536 0)
(-0.0796352 0.00226574 0)
(-0.079965 -0.0058589 0)
(-0.0768384 -0.0162481 0)
(-0.0746574 -0.0268973 0)
(-0.0679429 -0.0410935 0)
(-0.0627712 -0.0575285 0)
(-0.0589786 -0.0771194 0)
(-0.0389245 -0.107599 0)
(-0.0424577 -0.154573 0)
(-0.00586749 -0.180215 0)
(-0.0108565 0.0893833 0)
(-0.0363764 0.120913 0)
(-0.0505118 0.126368 0)
(-0.0605709 0.11373 0)
(-0.0588058 0.0896257 0)
(-0.057001 0.0664795 0)
(-0.0557058 0.0470791 0)
(-0.0576027 0.0343757 0)
(-0.0560614 0.0214254 0)
(-0.0584938 0.0127088 0)
(-0.0570595 0.00253234 0)
(-0.0586678 -0.00597048 0)
(-0.0560962 -0.0169563 0)
(-0.0551647 -0.0287234 0)
(-0.0501022 -0.0437965 0)
(-0.0426039 -0.0626799 0)
(-0.0439117 -0.084041 0)
(-0.0228423 -0.113887 0)
(-0.0328257 -0.161059 0)
(-0.00292979 -0.199642 0)
(-0.00818986 0.109877 0)
(-0.0256998 0.136297 0)
(-0.0360282 0.136272 0)
(-0.042359 0.117547 0)
(-0.0384568 0.088682 0)
(-0.0374773 0.0645397 0)
(-0.0368712 0.0464502 0)
(-0.038363 0.0339343 0)
(-0.0370817 0.0215357 0)
(-0.0397368 0.0125755 0)
(-0.038965 0.00235646 0)
(-0.0410541 -0.00701791 0)
(-0.0397753 -0.0189199 0)
(-0.0394525 -0.0325788 0)
(-0.0378696 -0.048738 0)
(-0.0288221 -0.0686389 0)
(-0.034184 -0.0912872 0)
(-0.0134014 -0.121895 0)
(-0.0287517 -0.168535 0)
(0.00295421 -0.21872 0)
(-0.00463321 0.122906 0)
(-0.0152574 0.147482 0)
(-0.0221851 0.14426 0)
(-0.0260145 0.121277 0)
(-0.0222517 0.0901557 0)
(-0.0220285 0.0637895 0)
(-0.0214636 0.0465082 0)
(-0.0226992 0.0340561 0)
(-0.0219634 0.0225638 0)
(-0.0244501 0.0137379 0)
(-0.024456 0.00396987 0)
(-0.0264374 -0.00559604 0)
(-0.0261331 -0.017637 0)
(-0.0253132 -0.0328187 0)
(-0.0268091 -0.0505608 0)
(-0.016511 -0.0713672 0)
(-0.0252239 -0.0947116 0)
(-0.00412574 -0.124456 0)
(-0.0231737 -0.169996 0)
(0.00432173 -0.229823 0)
(-0.00138883 0.130943 0)
(-0.00674745 0.154117 0)
(-0.0100692 0.147967 0)
(-0.012346 0.12208 0)
(-0.00944234 0.0871654 0)
(-0.00990882 0.0609921 0)
(-0.00925997 0.0453625 0)
(-0.0104447 0.0336933 0)
(-0.0105678 0.0231508 0)
(-0.0129127 0.0143293 0)
(-0.0135958 0.00456462 0)
(-0.0151933 -0.00575657 0)
(-0.0157856 -0.0181551 0)
(-0.0139538 -0.0341718 0)
(-0.0179482 -0.0536291 0)
(-0.00746471 -0.0747696 0)
(-0.0190931 -0.099863 0)
(0.00121275 -0.129212 0)
(-0.0210991 -0.172463 0)
(0.00808952 -0.241488 0)
(0.00225091 0.131582 0)
(0.00142439 0.157599 0)
(0.00094659 0.150647 0)
(-0.000294206 0.123145 0)
(0.00137135 0.0886012 0)
(8.99423e-05 0.0618703 0)
(0.000551963 0.0461005 0)
(-0.000678071 0.034723 0)
(-0.00123749 0.0246077 0)
(-0.00318335 0.0157257 0)
(-0.00420446 0.00612719 0)
(-0.00530042 -0.00493699 0)
(-0.00673046 -0.0179939 0)
(-0.00365776 -0.0337773 0)
(-0.00869524 -0.0544438 0)
(0.00121934 -0.0745465 0)
(-0.0125544 -0.10057 0)
(0.00770509 -0.127493 0)
(-0.018248 -0.171721 0)
(0.00895779 -0.247582 0)
(0.00547849 0.127934 0)
(0.00797896 0.156436 0)
(0.0109004 0.149701 0)
(0.0106799 0.122792 0)
(0.011359 0.0861263 0)
(0.00942604 0.0599596 0)
(0.00954952 0.0451141 0)
(0.00835354 0.0346036 0)
(0.0077339 0.0251892 0)
(0.00630997 0.0164589 0)
(0.00511174 0.00701054 0)
(0.00484016 -0.00431037 0)
(0.00290033 -0.0188342 0)
(0.00584565 -0.0345489 0)
(0.000685576 -0.055855 0)
(0.0083441 -0.0753299 0)
(-0.0067916 -0.102401 0)
(0.0117393 -0.127986 0)
(-0.0174241 -0.170132 0)
(0.0120009 -0.253487 0)
(0.00751959 0.117974 0)
(0.0153128 0.151918 0)
(0.020484 0.148037 0)
(0.0216262 0.124896 0)
(0.0220859 0.0896153 0)
(0.019329 0.0627749 0)
(0.018571 0.0467139 0)
(0.0175558 0.0360248 0)
(0.0174131 0.0267248 0)
(0.0167939 0.0178391 0)
(0.0160105 0.00797774 0)
(0.0166647 -0.00323301 0)
(0.014541 -0.0179683 0)
(0.0167416 -0.033778 0)
(0.0111674 -0.0534943 0)
(0.0165636 -0.0723574 0)
(0.00059919 -0.097995 0)
(0.0173479 -0.12201 0)
(-0.0162714 -0.165764 0)
(0.013986 -0.255909 0)
(0.0106372 0.10661 0)
(0.0214633 0.143043 0)
(0.0299118 0.141736 0)
(0.0329125 0.125104 0)
(0.0337699 0.0891556 0)
(0.0306152 0.0622904 0)
(0.0292855 0.0457408 0)
(0.0284957 0.03506 0)
(0.0288874 0.0262417 0)
(0.0294368 0.0176402 0)
(0.0286776 0.0079674 0)
(0.0301565 -0.00329023 0)
(0.0272506 -0.0167492 0)
(0.0287165 -0.0324921 0)
(0.0220743 -0.0507281 0)
(0.0244539 -0.0696892 0)
(0.00765011 -0.0946549 0)
(0.0210442 -0.118363 0)
(-0.0156766 -0.160814 0)
(0.0176366 -0.256839 0)
(0.0131988 0.0835592 0)
(0.0279266 0.132732 0)
(0.0403051 0.135229 0)
(0.0441749 0.125045 0)
(0.0470072 0.0960649 0)
(0.0440068 0.0663829 0)
(0.0416461 0.0476326 0)
(0.0408007 0.0358036 0)
(0.0411395 0.0266533 0)
(0.0432466 0.0181138 0)
(0.0424215 0.00882142 0)
(0.0445402 -0.0021279 0)
(0.0409905 -0.0144972 0)
(0.041746 -0.0292606 0)
(0.0339894 -0.0454057 0)
(0.0338369 -0.0634054 0)
(0.017274 -0.0854205 0)
(0.0266196 -0.107389 0)
(-0.0133975 -0.154436 0)
(0.0210788 -0.255163 0)
(0.0163045 0.0637781 0)
(0.0322201 0.115454 0)
(0.0478153 0.124259 0)
(0.0552927 0.11709 0)
(0.0604167 0.0966139 0)
(0.0603999 0.068106 0)
(0.0582421 0.0471588 0)
(0.0570817 0.0337517 0)
(0.0558472 0.0244004 0)
(0.0584341 0.016163 0)
(0.0572249 0.00806028 0)
(0.0596472 -0.0018862 0)
(0.0555621 -0.0125634 0)
(0.0555748 -0.0257787 0)
(0.0465928 -0.0397563 0)
(0.0441304 -0.0571328 0)
(0.0273964 -0.0774595 0)
(0.0310397 -0.0989038 0)
(-0.0117267 -0.147276 0)
(0.0268562 -0.253367 0)
(0.0159472 0.0280308 0)
(0.0353586 0.0999603 0)
(0.0523934 0.114083 0)
(0.0635648 0.110313 0)
(0.0726487 0.09611 0)
(0.0773461 0.0728624 0)
(0.0776241 0.0515454 0)
(0.0781666 0.0355752 0)
(0.0753628 0.0245531 0)
(0.0773203 0.015549 0)
(0.0745509 0.00813977 0)
(0.076477 -0.000427762 0)
(0.0715888 -0.00912391 0)
(0.0709316 -0.0205239 0)
(0.0611056 -0.0323422 0)
(0.0573452 -0.048194 0)
(0.040382 -0.0643268 0)
(0.0377471 -0.0828526 0)
(-0.00637196 -0.138024 0)
(0.0334067 -0.249771 0)
(0.00406783 0.00902829 0)
(0.0286737 0.0713288 0)
(0.0503365 0.093292 0)
(0.0663166 0.0935439 0)
(0.0808746 0.0845409 0)
(0.0925142 0.0683246 0)
(0.0970135 0.0515606 0)
(0.10208 0.0366075 0)
(0.10031 0.0251219 0)
(0.102667 0.015444 0)
(0.0990191 0.0079578 0)
(0.0998567 7.14466e-06 0)
(0.0935523 -0.00722362 0)
(0.0914069 -0.0165411 0)
(0.0805503 -0.0256171 0)
(0.0740947 -0.0381422 0)
(0.054822 -0.0501337 0)
(0.044176 -0.0692211 0)
(-0.000349181 -0.132589 0)
(0.0433066 -0.246339 0)
(-0.0197968 -0.000632986 0)
(0.0130205 0.0587153 0)
(0.0376354 0.0766724 0)
(0.0604311 0.0777465 0)
(0.0803321 0.0717924 0)
(0.0999716 0.0595211 0)
(0.110369 0.0469613 0)
(0.121256 0.035897 0)
(0.123355 0.0277867 0)
(0.127886 0.0195245 0)
(0.12545 0.0140386 0)
(0.125764 0.00696707 0)
(0.119316 0.00214086 0)
(0.115383 -0.00533333 0)
(0.102806 -0.0111446 0)
(0.0935205 -0.0206621 0)
(0.070939 -0.0290915 0)
(0.053302 -0.0496769 0)
(0.0153227 -0.124021 0)
(0.0565856 -0.234274 0)
(-0.0271902 0.022695 0)
(-0.0156678 0.0227919 0)
(0.0114165 0.038657 0)
(0.043822 0.0417197 0)
(0.0691391 0.0413262 0)
(0.0955031 0.0356243 0)
(0.111441 0.0302043 0)
(0.126495 0.0219178 0)
(0.133696 0.0177044 0)
(0.139882 0.0121097 0)
(0.141201 0.00978536 0)
(0.141159 0.00491212 0)
(0.137379 0.00361848 0)
(0.132802 -0.00137207 0)
(0.121528 -0.00281094 0)
(0.112061 -0.00939091 0)
(0.0889547 -0.0137062 0)
(0.077773 -0.0396681 0)
(0.054532 -0.112454 0)
(0.0813253 -0.184428 0)
(0.0354107 0.0326846 0)
(0.0403973 0.0193444 0)
(0.058317 0.0178458 0)
(0.092462 0.0187594 0)
(0.118033 0.0209219 0)
(0.147973 0.019299 0)
(0.17057 0.0183885 0)
(0.193078 0.0158317 0)
(0.209365 0.0146951 0)
(0.224284 0.012802 0)
(0.234777 0.0120782 0)
(0.244209 0.0105801 0)
(0.250964 0.0100569 0)
(0.255873 0.00873089 0)
(0.260107 0.00847366 0)
(0.260297 0.00676291 0)
(0.255736 0.00560968 0)
(0.24222 -0.00142072 0)
(0.202647 -0.0139867 0)
(0.150242 -0.0333845 0)
)
;

boundaryField
{
    movingWall
    {
        type            fixedValue;
        value           uniform (1 0 0);
    }
    fixedWalls
    {
        type            noSlip;
    }
    frontAndBack
    {
        type            empty;
    }
}


// ************************************************************************* //
