/*--------------------------------*- C++ -*----------------------------------*\
  =========                 |
  \\      /  F ield         | OpenFOAM: The Open Source CFD Toolbox
   \\    /   O peration     | Website:  https://openfoam.org
    \\  /    A nd           | Version:  12
     \\/     M anipulation  |
\*---------------------------------------------------------------------------*/
FoamFile
{
    format      ascii;
    class       volScalarField;
    location    "0.17";
    object      epsilon;
}
// * * * * * * * * * * * * * * * * * * * * * * * * * * * * * * * * * * * * * //

dimensions      [0 2 -3 0 0 0 0];

internalField   nonuniform List<scalar> 
12225
(
278.515
263.66
249.434
236.839
226.738
219.484
215.07
213.264
213.708
215.993
219.717
224.509
230.05
236.076
242.385
248.81
255.387
264.912
61.116
86.6955
97.9918
107.208
118.466
132.559
149.415
168.618
189.587
211.696
234.356
257.054
279.388
301.059
321.979
341.984
362.612
381.207
25.2776
36.1831
43.3818
48.6215
53.3868
58.337
63.7718
69.8275
76.5291
83.8283
91.6353
99.8408
108.333
117.014
125.816
134.72
143.879
153.289
17.5217
21.2986
24.7145
27.6101
30.1622
32.5404
34.8672
37.2287
39.6782
42.2422
44.9283
47.732
50.6423
53.6472
56.7382
59.9234
63.2223
66.6627
15.4878
16.7519
18.1859
19.5889
20.9096
22.1492
23.3266
24.4656
25.5869
26.7058
27.8322
28.9718
30.1273
31.3004
32.4929
33.7097
34.9562
36.2292
14.9084
15.2396
15.7464
16.3341
16.9477
17.559
18.1559
18.7358
19.3004
19.853
20.3967
20.9342
21.4677
21.999
22.5298
23.0625
23.5991
24.1336
14.7451
14.7391
14.8342
15.0036
15.2216
15.4679
15.7286
15.9949
16.2621
16.5276
16.7905
17.0502
17.307
17.5611
17.813
18.0634
18.313
18.5574
14.7012
14.5825
14.5116
14.4858
14.4981
14.5403
14.6043
14.6837
14.7737
14.8708
14.9726
15.0773
15.1839
15.2916
15.4001
15.509
15.6182
15.725
14.6901
14.5373
14.407
14.3009
14.2182
14.1571
14.1145
14.0875
14.0733
14.0693
14.0736
14.0845
14.1008
14.1213
14.1454
14.1725
14.2021
14.2324
14.6874
14.5252
14.3761
14.2411
14.1204
14.0137
13.9203
13.8391
13.7688
13.7083
13.6564
13.612
13.5741
13.5419
13.5148
13.4921
13.4732
13.4575
14.6868
14.5221
14.3677
14.2236
14.0896
13.9655
13.8512
13.746
13.6495
13.561
13.4801
13.406
13.3383
13.2763
13.2197
13.1678
13.1204
13.0772
14.6866
14.5213
14.3656
14.219
14.0812
13.9518
13.8305
13.7168
13.6105
13.5111
13.4182
13.3314
13.2503
13.1746
13.104
13.038
12.9764
12.9194
14.6865
14.521
14.3648
14.2175
14.0785
13.9472
13.8234
13.7065
13.5963
13.4922
13.3941
13.3015
13.2142
13.1319
13.0542
12.981
12.912
12.8475
14.6864
14.5208
14.3645
14.2169
14.0774
13.9456
13.8209
13.7029
13.5912
13.4855
13.3853
13.2904
13.2005
13.1152
13.0344
12.9578
12.8852
12.8171
14.6864
14.5207
14.3643
14.2165
14.0769
13.9449
13.8199
13.7016
13.5895
13.4832
13.3824
13.2868
13.196
13.1098
13.0279
12.9501
12.8762
12.8067
14.6863
14.5206
14.3641
14.2163
14.0766
13.9444
13.8193
13.7009
13.5886
13.4822
13.3812
13.2854
13.1943
13.1078
13.0257
12.9475
12.8732
12.8033
14.6863
14.5205
14.364
14.2161
14.0763
13.9441
13.8189
13.7004
13.5881
13.4815
13.3805
13.2845
13.1934
13.1068
13.0245
12.9462
12.8718
12.8018
14.6863
14.5204
14.3639
14.216
14.0761
13.9439
13.8187
13.7001
13.5877
13.4811
13.3799
13.2839
13.1927
13.1061
13.0237
12.9454
12.8709
12.8008
14.6863
14.5204
14.3639
14.2159
14.0761
13.9438
13.8186
13.6999
13.5875
13.4809
13.3797
13.2837
13.1925
13.1058
13.0234
12.945
12.8704
12.8003
14.6863
14.5205
14.3639
14.216
14.0762
13.9439
13.8187
13.7001
13.5877
13.4811
13.38
13.284
13.1928
13.1061
13.0237
12.9454
12.8709
12.8008
14.6863
14.5205
14.364
14.2162
14.0764
13.9443
13.8192
13.7007
13.5885
13.4821
13.3812
13.2854
13.1945
13.1082
13.0262
12.9483
12.8742
12.8046
14.6863
14.5206
14.3643
14.2167
14.0773
13.9457
13.8214
13.7039
13.5928
13.4879
13.3886
13.2947
13.2059
13.1219
13.0423
12.967
12.8956
12.8289
14.6865
14.5212
14.3659
14.2202
14.0837
13.956
13.8368
13.7256
13.6218
13.525
13.4348
13.3506
13.272
13.1986
13.1301
13.0659
13.006
12.9505
14.6876
14.5264
14.3793
14.2467
14.1282
14.0231
13.9302
13.8484
13.7762
13.7126
13.6564
13.6068
13.5628
13.5237
13.489
13.4581
13.4306
13.4066
14.6976
14.5664
14.4707
14.4075
14.3714
14.3568
14.3584
14.372
14.3941
14.4224
14.455
14.4907
14.5286
14.5679
14.6084
14.6495
14.6911
14.7331
14.7737
14.8187
14.9602
15.1591
15.3863
15.6233
15.8597
16.0904
16.3133
16.5283
16.7357
16.9363
17.131
17.3207
17.5062
17.6879
17.8663
18.0412
15.2587
16.1151
17.0712
17.9727
18.7878
19.5237
20.1943
20.8147
21.3986
21.957
22.4983
23.0286
23.5521
24.0718
24.5894
25.1057
25.621
26.1327
18.0414
22.0078
24.9885
27.1532
28.8882
30.4047
31.8122
33.1781
34.5433
35.9304
37.3504
38.8072
40.2998
41.8244
43.3752
44.946
46.5302
48.1149
34.024
45.6878
51.3767
54.9422
58.0806
61.2976
64.7502
68.4823
72.478
76.6942
81.0808
85.5879
90.1691
94.7827
99.3929
103.971
108.501
112.956
163.308
157.417
151.704
146.261
141.3
136.947
133.25
130.206
127.78
125.918
124.558
123.636
123.092
122.869
122.915
123.185
123.639
124.239
0.35357
0.389328
0.630748
0.856086
1.10624
1.38698
1.70279
2.05884
2.43691
2.82223
3.21372
3.60866
4.00434
4.39847
4.78921
5.17497
5.55434
5.92594
6.2883
6.63982
6.9787
7.30293
7.6103
7.89852
8.16534
8.40869
8.62675
8.81785
8.98015
9.1113
9.20722
9.25976
9.25931
9.22741
9.28879
9.35375
9.35632
9.32965
9.35471
9.42424
40.209
9.45646
40.8785
43.563
46.4897
49.5995
52.8781
56.3232
59.9331
63.7086
67.651
71.7623
76.045
80.5015
85.1343
89.9458
94.9383
100.114
105.474
111.021
116.756
122.679
128.791
135.093
141.584
148.263
155.13
162.182
169.419
176.837
184.434
192.205
200.148
208.258
216.531
224.96
233.54
242.265
251.129
260.124
269.244
278.48
287.824
297.267
306.802
316.417
326.105
335.854
345.655
355.496
365.366
375.254
385.146
395.033
404.901
414.741
424.547
434.317
444.067
453.833
463.536
473.106
482.543
491.836
500.972
509.936
518.712
527.284
535.636
543.753
551.619
559.22
566.541
573.568
580.288
586.687
592.753
598.475
603.841
608.842
613.467
617.709
621.559
625.011
628.059
630.698
632.923
634.732
636.123
637.094
637.646
637.779
637.497
636.8
635.695
634.185
632.277
629.978
627.295
624.237
620.814
617.037
612.915
608.462
603.689
598.61
593.238
587.588
581.674
575.512
569.116
562.502
555.687
548.686
541.514
534.189
526.727
519.14
511.453
503.673
495.821
487.923
479.954
472.035
464.292
458.887
456.014
453.274
450.529
447.771
445.001
442.22
439.42
436.579
433.651
430.535
426.998
422.435
415.352
399.45
1.21159
0.742923
0.763927
0.8815
1.049
1.25524
1.49643
1.76787
2.06237
2.37306
2.69516
3.02524
3.36084
3.7003
4.04251
4.38676
4.73264
5.07999
5.42886
5.77953
6.13255
6.48886
6.84991
7.2179
7.59608
7.98915
8.40371
8.84881
9.33696
9.88565
10.5189
11.2658
12.1436
13.1039
14.0213
15.0212
16.2197
17.6011
19.1387
20.6048
22.6123
23.8171
26.0412
27.6085
29.1699
30.7757
32.4386
34.1606
35.9435
37.7886
39.6975
41.6713
43.7112
45.818
47.9927
50.2359
52.5482
54.9302
57.382
59.904
62.4962
65.1587
67.8912
70.6935
73.5652
76.5056
79.5141
82.5898
85.7317
88.9387
92.2094
95.5425
98.9364
102.389
105.899
109.465
113.083
116.752
120.47
124.233
128.039
131.885
135.769
139.687
143.636
147.612
151.612
155.633
159.67
163.719
167.776
171.838
175.9
179.958
184.009
188.051
192.083
196.11
200.14
204.205
208.274
212.303
216.283
220.207
224.072
227.87
231.596
235.244
238.807
242.28
245.656
248.93
252.096
255.149
258.084
260.894
263.576
266.124
268.535
270.803
272.925
274.898
276.717
278.381
279.886
281.231
282.412
283.428
284.279
284.963
285.479
285.829
286.01
286.026
285.876
285.561
285.085
284.448
283.653
282.703
281.601
280.351
278.956
277.421
275.75
273.948
272.019
269.968
267.802
265.524
263.142
260.661
258.087
255.425
252.683
249.865
246.98
244.029
241.026
237.969
234.871
231.742
228.546
225.4
222.335
219.735
217.638
215.642
213.669
211.702
209.742
207.787
205.839
203.898
201.959
200.015
198.045
196.037
193.871
192.656
2.3339
1.21473
1.11803
1.18153
1.3106
1.48486
1.69606
1.93817
2.20525
2.49166
2.79269
3.10479
3.42552
3.75339
4.08768
4.42821
4.77526
5.12949
5.49186
5.86367
6.2466
6.6427
7.05457
7.48536
7.93897
8.42007
8.9342
9.48763
10.0873
10.7406
11.4549
12.2351
13.0782
13.9648
14.8745
15.8314
16.8534
17.931
19.0658
20.2523
21.4964
22.7559
24.061
25.3533
26.6732
28.0357
29.4465
30.9072
32.4183
33.9806
35.5945
37.2605
38.979
40.7506
42.5755
44.4542
46.3867
48.3735
50.4144
52.5097
54.6593
56.8631
59.1209
61.4324
63.7972
66.215
68.6851
71.207
73.7798
76.4027
79.0748
81.7949
84.5621
87.3749
90.2321
93.1321
96.0733
99.0541
102.073
105.127
108.216
111.336
114.485
117.662
120.864
124.088
127.332
130.594
133.87
137.157
140.455
143.758
147.067
150.378
153.691
157.005
160.319
163.637
166.96
170.283
173.588
176.861
180.094
183.285
186.426
189.514
192.543
195.509
198.406
201.23
203.975
206.638
209.213
211.696
214.083
216.369
218.551
220.624
222.585
224.431
226.159
227.764
229.246
230.601
231.827
232.922
233.885
234.714
235.408
235.967
236.39
236.677
236.828
236.844
236.726
236.474
236.09
235.576
234.933
234.164
233.273
232.26
231.13
229.886
228.531
227.069
225.504
223.84
222.082
220.233
218.299
216.283
214.191
212.028
209.798
207.507
205.159
202.756
200.311
197.818
195.29
192.748
190.18
187.627
185.123
182.79
180.648
178.579
176.538
174.514
172.504
170.508
168.529
166.572
164.642
162.75
160.915
159.2
157.698
157.211
3.56389
1.73614
1.49809
1.50605
1.60483
1.75745
1.95023
2.17557
2.42764
2.70137
2.99246
3.29755
3.61427
3.94117
4.27762
4.6236
4.97965
5.34666
5.72591
6.11894
6.5276
6.95401
7.40056
7.86995
8.36516
8.88937
9.44592
10.0381
10.669
11.3411
12.0565
12.8158
13.6179
14.4593
15.3376
16.2565
17.2194
18.2257
19.2758
20.3692
21.5029
22.6732
23.8783
25.1149
26.3882
27.703
29.0627
30.4687
31.9222
33.4238
34.9742
36.574
38.2236
39.9234
41.674
43.4758
45.329
47.234
49.191
51.2003
53.2619
55.3761
57.5427
59.7617
62.0331
64.3564
66.7315
69.158
71.6352
74.1626
76.7395
79.3651
82.0383
84.7582
87.5236
90.3332
93.1855
96.0791
99.0123
101.983
104.99
108.031
111.104
114.207
117.338
120.493
123.671
126.87
130.087
133.319
136.564
139.819
143.084
146.355
149.631
152.911
156.193
159.476
162.755
166.02
169.26
172.468
175.638
178.764
181.842
184.866
187.832
190.734
193.567
196.327
199.008
201.606
204.116
206.534
208.855
211.075
213.19
215.196
217.09
218.868
220.528
222.065
223.479
224.765
225.923
226.95
227.845
228.607
229.235
229.728
230.085
230.308
230.396
230.35
230.171
229.861
229.42
228.851
228.155
227.336
226.396
225.337
224.164
222.879
221.486
219.99
218.393
216.701
214.916
213.045
211.092
209.06
206.955
204.783
202.547
200.25
197.905
195.5
193.062
190.592
188.093
185.575
183.041
180.512
178.013
175.596
173.274
171.005
168.767
166.55
164.354
162.18
160.032
157.917
155.846
153.838
151.926
150.188
148.74
148.049
4.73061
2.23193
1.85873
1.81664
1.8892
2.02416
2.20265
2.41534
2.65611
2.92017
3.20362
3.50338
3.81724
4.14377
4.48234
4.83291
5.19598
5.57244
5.96349
6.3706
6.79545
7.23987
7.70588
8.19561
8.71126
9.2551
9.82935
10.4361
11.0771
11.7539
12.4677
13.2193
14.009
14.8368
15.7031
16.6088
17.5548
18.5416
19.5694
20.6383
21.7476
22.8972
24.0868
25.3165
26.5877
27.9025
29.2628
30.6698
32.1247
33.6285
35.182
36.7859
38.4411
40.1482
41.908
43.721
45.5879
47.5092
49.4856
51.5173
53.605
55.749
57.9495
60.2067
62.5209
64.8919
67.3199
69.8045
72.3455
74.9425
77.5949
80.3021
83.0633
85.8775
88.7435
91.6603
94.6263
97.6402
100.7
103.804
106.951
110.137
113.362
116.623
119.917
123.241
126.594
129.973
133.374
136.795
140.234
143.688
147.154
150.629
154.111
157.597
161.085
164.571
168.044
171.496
174.919
178.306
181.652
184.952
188.199
191.388
194.513
197.569
200.551
203.452
206.268
208.993
211.623
214.152
216.576
218.89
221.09
223.172
225.132
226.967
228.672
230.246
231.685
232.987
234.15
235.173
236.053
236.79
237.382
237.83
238.134
238.293
238.308
238.18
237.91
237.501
236.953
236.27
235.453
234.505
233.43
232.231
230.912
229.476
227.928
226.271
224.51
222.651
220.696
218.652
216.525
214.317
212.032
209.683
207.267
204.789
202.268
199.7
197.096
194.459
191.796
189.114
186.418
183.724
181.048
178.417
175.842
173.309
170.807
168.331
165.881
163.461
161.076
158.736
156.454
154.254
152.174
150.289
148.695
147.651
5.75905
2.67262
2.18252
2.09669
2.14633
2.26591
2.432
2.63356
2.86405
3.1188
3.39423
3.68754
3.99668
4.32032
4.65781
5.00904
5.3744
5.75468
6.15093
6.56446
6.99674
7.44938
7.92409
8.42267
8.94694
9.49873
10.0798
10.6919
11.3366
12.0151
12.7287
13.4785
14.2653
15.0899
15.9532
16.856
17.7989
18.7827
19.8079
20.875
21.9846
23.1372
24.3333
25.5738
26.8595
28.1919
29.5722
31.0019
32.4822
34.0141
35.599
37.2379
38.9318
40.6817
42.4889
44.3541
46.2785
48.2629
50.3082
52.4153
54.5849
56.8179
59.1147
61.4759
63.9021
66.3935
68.9503
71.5726
74.2603
77.0133
79.8311
82.7132
85.6589
88.6673
91.7373
94.8676
98.0568
101.303
104.605
107.96
111.367
114.822
118.324
121.87
125.457
129.082
132.742
136.434
140.155
143.902
147.671
151.458
155.262
159.077
162.901
166.729
170.559
174.38
178.181
181.955
185.697
189.398
193.053
196.655
200.197
203.675
207.08
210.407
213.65
216.802
219.858
222.812
225.658
228.391
231.005
233.495
235.857
238.086
240.179
242.13
243.937
245.596
247.105
248.461
249.662
250.706
251.592
252.319
252.885
253.292
253.539
253.626
253.555
253.327
252.943
252.406
251.718
250.882
249.9
248.776
247.514
246.118
244.592
242.941
241.168
239.278
237.28
235.176
232.969
230.669
228.282
225.81
223.254
220.638
217.957
215.217
212.43
209.597
206.726
203.824
200.896
197.949
194.991
192.031
189.084
186.166
183.285
180.44
177.626
174.843
172.092
169.379
166.711
164.099
161.558
159.114
156.805
154.698
152.86
151.437
6.62071
3.05286
2.46246
2.33813
2.36718
2.47271
2.62723
2.81814
3.0384
3.28335
3.54963
3.83469
4.13668
4.45438
4.78716
5.13488
5.49787
5.87677
6.27254
6.68636
7.11954
7.57356
8.04996
8.55035
9.07639
9.62973
10.212
10.8248
11.4695
12.1477
12.8605
13.6092
14.3949
15.2188
16.0818
16.9849
17.9291
18.9152
19.9444
21.0173
22.1351
23.2987
24.509
25.7673
27.0746
28.4323
29.8417
31.3044
32.8219
34.3955
36.0268
37.7173
39.4685
41.2818
43.1586
45.1004
47.1087
49.1847
51.3299
53.5454
55.8326
58.1925
60.6261
63.1343
65.7181
68.378
71.1146
73.9281
76.8189
79.7868
82.8316
85.9529
89.1501
92.4222
95.7682
99.1867
102.676
106.234
109.86
113.55
117.302
121.114
124.982
128.904
132.876
136.895
140.957
145.058
149.195
153.364
157.56
161.78
166.018
170.271
174.534
178.802
183.069
187.319
191.544
195.736
199.889
203.996
208.049
212.041
215.964
219.812
223.577
227.252
230.83
234.303
237.666
240.912
244.034
247.026
249.882
252.598
255.167
257.584
259.845
261.946
263.883
265.652
267.251
268.677
269.927
271.001
271.897
272.614
273.151
273.509
273.688
273.689
273.513
273.162
272.639
271.945
271.085
270.061
268.877
267.536
266.043
264.404
262.624
260.707
258.657
256.481
254.189
251.784
249.265
246.646
243.941
241.148
238.272
235.328
232.318
229.248
226.128
222.962
219.758
216.523
213.262
209.984
206.696
203.405
200.125
196.865
193.636
190.438
187.275
184.146
181.058
178.015
175.026
172.104
169.265
166.536
163.952
161.57
159.433
157.623
7.33077
3.37225
2.69586
2.53727
2.54734
2.6395
2.78272
2.96297
3.17268
3.40713
3.66311
3.93828
4.23099
4.54014
4.86518
5.20598
5.56282
5.93632
6.32733
6.73695
7.16642
7.61711
8.09047
8.58802
9.11132
9.66196
10.2415
10.8515
11.4934
12.1687
12.8788
13.6251
14.4088
15.2312
16.0936
16.9972
17.9433
18.933
19.9676
21.0484
22.1768
23.354
24.5815
25.8607
27.1931
28.5802
30.0239
31.5259
33.0879
34.7119
36.3998
38.1535
39.975
41.8663
43.8292
45.8657
47.9778
50.1674
52.4362
54.7861
57.2187
59.7356
62.3384
65.0283
67.8066
70.6742
73.6322
76.681
79.8211
83.0526
86.3756
89.7896
93.294
96.8879
100.57
104.339
108.193
112.129
116.147
120.241
124.411
128.652
132.961
137.334
141.767
146.257
150.799
155.389
160.021
164.692
169.395
174.126
178.88
183.651
188.432
193.219
197.998
202.752
207.474
212.157
216.793
221.374
225.892
230.338
234.704
238.981
243.161
247.237
251.199
255.041
258.755
262.333
265.768
269.054
272.184
275.151
277.951
280.577
283.025
285.289
287.366
289.253
290.945
292.442
293.74
294.839
295.736
296.431
296.925
297.217
297.308
297.2
296.895
296.395
295.702
294.82
293.754
292.507
291.083
289.486
287.721
285.797
283.72
281.494
279.121
276.609
273.976
271.223
268.353
265.377
262.305
259.141
255.893
252.571
249.18
245.728
242.223
238.673
235.084
231.464
227.821
224.16
220.491
216.821
213.16
209.518
205.903
202.321
198.775
195.27
191.812
188.408
185.068
181.804
178.636
175.588
172.693
169.996
167.521
165.321
7.89033
3.63016
2.88201
2.69317
2.68558
2.76474
2.89665
3.06601
3.26475
3.48808
3.73284
3.99687
4.27871
4.5774
4.89247
5.22386
5.57185
5.93702
6.3202
6.72243
7.14489
7.58889
8.05582
8.54715
9.0644
9.60909
10.1828
10.787
11.4234
12.0934
12.7985
13.5402
14.3201
15.1396
16.0002
16.9034
17.8507
18.8437
19.884
20.9732
22.113
23.3052
24.5516
25.854
27.2143
28.6347
30.1171
31.6639
33.2773
34.9597
36.7135
38.5411
40.4452
42.4282
44.4927
46.6412
48.8762
51.2002
53.6155
56.1246
58.7296
61.4327
64.2359
67.1409
70.1494
73.2628
76.4822
79.8087
83.2428
86.785
90.4351
94.1929
98.0578
102.029
106.104
110.282
114.561
118.939
123.411
127.976
132.628
137.366
142.183
147.077
152.042
157.072
162.165
167.312
172.51
177.753
183.034
188.346
193.685
199.042
204.411
209.784
215.132
220.449
225.727
230.957
236.13
241.237
246.269
251.215
256.066
260.813
265.446
269.956
274.334
278.572
282.661
286.592
290.359
293.953
297.369
300.598
303.634
306.473
309.107
311.532
313.744
315.739
317.515
319.069
320.399
321.504
322.382
323.034
323.459
323.659
323.634
323.388
322.922
322.238
321.341
320.235
318.926
317.418
315.716
313.825
311.744
309.494
307.079
304.502
301.77
298.891
295.878
292.735
289.471
286.093
282.612
279.036
275.371
271.627
267.813
263.937
260.006
256.029
252.014
247.969
243.901
239.819
235.73
231.642
227.565
223.507
219.477
215.482
211.527
207.62
203.766
199.975
196.258
192.628
189.104
185.709
182.472
179.43
176.592
173.997
8.30458
3.82797
3.02221
2.80713
2.78314
2.84958
2.97007
3.12827
3.31568
3.52738
3.76029
4.01237
4.2823
4.56928
4.87293
5.19324
5.53053
5.88539
6.25862
6.65122
7.06434
7.49924
7.95728
8.43989
8.94857
9.48484
10.0503
10.6465
11.275
11.9376
12.6359
13.3714
14.146
14.9613
15.8192
16.7214
17.6698
18.6663
19.7128
20.8115
21.9645
23.1739
24.4421
25.7713
27.1641
28.623
30.1507
31.7499
33.4235
35.1745
37.0059
38.9208
40.9224
43.0139
45.1985
47.4794
49.8598
52.3427
54.9312
57.6283
60.4367
63.3592
66.3982
69.5559
72.8346
76.2359
79.7613
83.412
87.1889
91.0923
95.1224
99.2787
103.56
107.966
112.495
117.143
121.91
126.791
131.783
136.882
142.084
147.384
152.776
158.256
163.817
169.455
175.162
180.933
186.761
192.639
198.56
204.516
210.5
216.505
222.521
228.522
234.489
240.415
246.292
252.109
257.856
263.523
269.099
274.573
279.934
285.171
290.273
295.232
300.036
304.677
309.145
313.432
317.528
321.427
325.12
328.6
331.861
334.896
337.7
340.265
342.59
344.67
346.502
348.086
349.417
350.497
351.324
351.898
352.219
352.29
352.112
351.688
351.022
350.117
348.974
347.603
346.01
344.2
342.179
339.953
337.527
334.914
332.121
329.156
326.025
322.739
319.306
315.736
312.038
308.221
304.294
300.267
296.149
291.948
287.675
283.339
278.948
274.511
270.036
265.533
261.01
256.475
251.935
247.4
242.879
238.379
233.91
229.48
225.096
220.765
216.496
212.299
208.184
204.167
200.266
196.502
192.9
189.49
186.272
183.28
8.58294
3.9691
3.11944
2.88216
2.84309
2.89714
3.00615
3.15298
3.3288
3.52859
3.7493
3.989
4.24648
4.52107
4.81247
5.12076
5.44627
5.7896
6.15155
6.5331
6.93537
7.3596
7.80713
8.27939
8.77787
9.30415
9.85983
10.4466
11.0662
11.7203
12.4109
13.1398
13.9089
14.7203
15.5761
16.4783
17.4294
18.4316
19.4873
20.5991
21.7695
23.0014
24.2976
25.6609
27.0946
28.6017
30.1856
31.8498
33.5977
35.4332
37.3598
39.3816
41.5024
43.7262
46.0569
48.4984
51.0547
53.7296
56.5267
59.4497
62.5018
65.6863
69.0062
72.4643
76.0629
79.8041
83.6896
87.7209
91.8987
96.2234
100.695
105.313
110.076
114.982
120.029
125.215
130.537
135.989
141.569
147.271
153.089
159.018
165.051
171.182
177.404
183.711
190.094
196.547
203.063
209.633
216.249
222.902
229.584
236.285
242.984
249.645
256.262
262.824
269.323
275.748
282.085
288.326
294.456
300.463
306.334
312.058
317.624
323.021
328.239
333.267
338.095
342.714
347.115
351.29
355.231
358.93
362.381
365.579
368.513
371.18
373.576
375.698
377.543
379.111
380.399
381.408
382.137
382.586
382.756
382.649
382.27
381.622
380.709
379.536
378.106
376.429
374.509
372.355
369.974
367.372
364.559
361.543
358.334
354.942
351.374
347.642
343.755
339.723
335.557
331.266
326.861
322.352
317.75
313.063
308.303
303.478
298.599
293.676
288.717
283.732
278.729
273.717
268.706
263.702
258.716
253.756
248.832
243.951
239.122
234.354
229.655
225.037
220.511
216.093
211.799
207.65
203.667
199.874
196.266
192.875
8.73846
4.05854
3.17791
2.92246
2.86975
2.91188
3.00949
3.14491
3.30907
3.4969
3.70538
3.93265
4.17761
4.43966
4.71862
5.01458
5.32793
5.65928
6.00944
6.37937
6.77019
7.18316
7.61961
8.08102
8.56892
9.08494
9.63082
10.2084
10.8194
11.466
12.1502
12.8742
13.6402
14.4506
15.3079
16.2147
17.1737
18.1877
19.2598
20.393
21.5905
22.8559
24.1924
25.6039
27.0941
28.667
30.3267
32.0774
33.9235
35.8695
37.92
40.0798
42.3535
44.746
47.2621
49.9065
52.6839
55.5988
58.6555
61.8581
65.2105
68.7163
72.3789
76.2013
80.1862
84.3359
88.652
93.1359
97.7881
102.609
107.598
112.753
118.074
123.558
129.201
135
140.952
147.05
153.29
159.666
166.171
172.797
179.536
186.381
193.324
200.356
207.47
214.657
221.91
229.218
236.572
243.963
251.38
258.807
266.192
273.525
280.799
288.001
295.121
302.146
309.063
315.861
322.526
329.043
335.397
341.577
347.57
353.367
358.955
364.325
369.465
374.366
379.02
383.416
387.548
391.407
394.99
398.291
401.295
404
406.404
408.505
410.301
411.79
412.972
413.847
414.416
414.68
414.64
414.301
413.666
412.74
411.527
410.034
408.267
406.233
403.94
401.397
398.61
395.59
392.346
388.887
385.224
381.368
377.328
373.115
368.741
364.216
359.552
354.76
349.85
344.834
339.723
334.527
329.257
323.925
318.539
313.111
307.65
302.166
296.669
291.167
285.669
280.184
274.722
269.292
263.902
258.562
253.28
248.067
242.932
237.885
232.941
228.113
223.418
218.874
214.502
210.318
206.314
202.527
8.78711
4.10242
3.20262
2.93296
2.86821
2.8991
2.98565
3.10989
3.26264
3.4388
3.6354
3.85066
4.08355
4.33355
4.60053
4.88465
5.18632
5.50618
5.84506
6.20396
6.58401
6.98652
7.41289
7.86467
8.3435
8.85117
9.38957
9.96071
10.5667
11.2099
11.8926
12.6174
13.387
14.2042
15.0719
15.9934
16.972
18.0111
19.1145
20.2859
21.5295
22.8493
24.2497
25.7352
27.3105
28.9804
30.75
32.6246
34.6093
36.7098
38.9315
41.2801
43.7613
46.3807
49.1439
52.0567
55.1244
58.3522
61.745
65.3071
69.0425
72.9549
77.048
81.3248
85.7879
90.4395
95.2808
100.313
105.535
110.948
116.549
122.337
128.308
134.46
140.788
147.288
153.952
160.777
167.754
174.878
182.139
189.529
197.035
204.649
212.362
220.167
228.053
236.012
244.034
252.109
260.228
268.378
276.543
284.659
292.715
300.701
308.605
316.414
324.116
331.698
339.145
346.446
353.592
360.559
367.33
373.894
380.242
386.361
392.241
397.871
403.24
408.339
413.158
417.688
421.923
425.854
429.477
432.785
435.77
438.428
440.757
442.755
444.419
445.75
446.748
447.414
447.748
447.754
447.435
446.794
445.837
444.569
442.996
441.124
438.962
436.518
433.799
430.817
427.579
424.096
420.378
416.437
412.283
407.928
403.383
398.66
393.771
388.727
383.542
378.225
372.791
367.25
361.613
355.894
350.102
344.249
338.347
332.405
326.434
320.444
314.446
308.448
302.46
296.49
290.55
284.647
278.79
272.991
267.257
261.599
256.027
250.553
245.189
239.951
234.853
229.914
225.149
220.575
216.178
211.999
8.74722
4.10759
3.19902
2.91897
2.84398
2.86467
2.94089
3.05462
3.19669
3.36203
3.54773
3.75209
3.97415
4.21345
4.46993
4.74381
5.03554
5.34583
5.67556
6.02581
6.3978
6.79295
7.2128
7.65907
8.13362
8.63846
9.17578
9.74792
10.3574
11.0069
11.6993
12.4377
13.2253
14.0656
14.9623
15.9192
16.9405
18.0306
19.1941
20.4358
21.7607
23.1741
24.6814
26.288
27.9996
29.8222
31.762
33.8253
36.0186
38.3482
40.8209
43.4431
46.2214
49.1623
52.2723
55.5575
59.024
62.6778
66.5242
70.5668
74.8084
79.2527
83.9031
88.7622
93.8321
99.1139
104.608
110.314
116.231
122.357
128.689
135.224
141.956
148.881
155.994
163.286
170.751
178.382
186.17
194.107
202.189
210.398
218.715
227.136
235.651
244.25
252.925
261.666
270.461
279.305
288.183
297.066
305.889
314.639
323.304
331.872
340.33
348.663
356.858
364.901
372.777
380.474
387.979
395.273
402.343
409.175
415.757
422.08
428.13
433.897
439.373
444.546
449.408
453.951
458.167
462.051
465.596
468.797
471.649
474.148
476.291
478.078
479.508
480.58
481.296
481.657
481.667
481.328
480.645
479.622
478.266
476.582
474.579
472.264
469.645
466.732
463.534
460.061
456.325
452.335
448.104
443.643
438.965
434.08
429.003
423.745
418.32
412.739
407.015
401.162
395.191
389.115
382.947
376.698
370.381
364.006
357.586
351.131
344.653
338.161
331.666
325.177
318.705
312.258
305.847
299.479
293.165
286.915
280.738
274.645
268.646
262.752
256.978
251.336
245.842
240.513
235.363
230.404
225.624
221.065
8.63895
4.08117
3.17262
2.88598
2.80294
2.81502
2.88233
2.987
3.11997
3.27629
3.45314
3.6489
3.8627
4.09417
4.34333
4.61048
4.89621
5.20133
5.52685
5.87403
6.24431
6.6393
7.06086
7.51102
7.992
8.50624
9.05641
9.64537
10.2763
10.9525
11.6777
12.4556
13.2905
14.1866
15.1486
16.1816
17.2907
18.4817
19.7604
21.133
22.6062
24.1865
25.881
27.6957
29.6374
31.7136
33.9318
36.2994
38.8241
41.5133
44.3743
47.4145
50.641
54.0606
57.6799
61.5052
65.5428
69.799
74.2814
78.9899
83.921
89.0798
94.469
100.09
105.943
112.027
118.341
124.883
131.648
138.634
145.834
153.244
160.856
168.663
176.657
184.828
193.169
201.668
210.317
219.104
228.019
237.049
246.181
255.402
264.704
274.076
283.509
292.993
302.515
312.078
321.611
331.066
340.43
349.69
358.831
367.841
376.705
385.41
393.94
402.282
410.422
418.346
426.041
433.493
440.687
447.61
454.253
460.602
466.648
472.38
477.79
482.868
487.606
491.997
496.035
499.713
503.027
505.972
508.545
510.743
512.564
514.008
515.075
515.766
516.084
516.029
515.608
514.822
513.679
512.184
510.344
508.165
505.658
502.829
499.689
496.248
492.515
488.504
484.224
479.688
474.907
469.895
464.665
459.228
453.599
447.79
441.815
435.688
429.42
423.026
416.519
409.91
403.214
396.443
389.608
382.722
375.796
368.842
361.87
354.892
347.917
340.956
334.017
327.111
320.248
313.435
306.684
300.003
293.403
286.893
280.485
274.191
268.023
261.994
256.121
250.417
244.895
239.568
234.421
229.499
8.47693
4.02829
3.12761
2.83841
2.75016
2.75607
2.81694
2.91523
3.04213
3.19287
3.36477
3.55635
3.7669
3.9962
4.24443
4.51212
4.80007
5.10936
5.44134
5.79763
6.18007
6.59081
7.03222
7.50698
8.01804
8.56862
9.16224
9.80272
10.4943
11.2416
12.0496
12.9237
13.8692
14.8917
15.9975
17.1934
18.4866
19.8844
21.3948
23.0259
24.7864
26.6857
28.7348
30.9359
33.2978
35.8301
38.5414
41.4404
44.5351
47.8332
51.3423
55.0692
59.0204
63.2017
67.6184
72.2753
77.1765
82.3252
87.7242
93.3734
99.2711
105.417
111.81
118.447
125.327
132.445
139.796
147.375
155.175
163.189
171.409
179.827
188.433
197.217
206.17
215.279
224.535
233.926
243.439
253.064
262.79
272.602
282.49
292.442
302.449
312.502
322.588
332.713
342.831
352.86
362.788
372.599
382.28
391.817
401.194
410.4
419.42
428.24
436.848
445.23
453.372
461.262
468.887
476.236
483.294
490.052
496.499
502.623
508.416
513.869
518.973
523.721
528.106
532.122
535.763
539.024
541.902
544.394
546.497
548.209
549.531
550.462
551.004
551.158
550.928
550.318
549.332
547.975
546.254
544.176
541.748
538.978
535.876
532.451
528.714
524.675
520.346
515.739
510.865
505.737
500.368
494.771
488.959
482.947
476.746
470.372
463.838
457.157
450.342
443.408
436.368
429.234
422.02
414.738
407.4
400.019
392.606
385.172
377.729
370.286
362.855
355.445
348.066
340.727
333.438
326.207
319.044
311.959
304.962
298.062
291.271
284.6
278.062
271.67
265.438
259.38
253.508
247.833
242.34
237.078
8.31063
3.96542
3.07678
2.78956
2.70076
2.70556
2.76558
2.86378
2.99166
3.14473
3.32058
3.518
3.73657
3.97641
4.23811
4.52266
4.83141
5.16608
5.52872
5.92176
6.34801
6.81065
7.31321
7.85968
8.45458
9.10285
9.8095
10.5801
11.421
12.3393
13.3428
14.4404
15.6396
16.9462
18.3699
19.9208
21.6088
23.4439
25.4364
27.5969
29.9357
32.4632
35.1895
38.1225
41.2706
44.6423
48.2456
52.0877
56.1749
60.5127
65.1056
69.9575
75.0709
80.4477
86.0886
91.9936
98.1617
104.591
111.279
118.22
125.41
132.844
140.514
148.414
156.537
164.874
173.417
182.158
191.086
200.191
209.464
218.892
228.467
238.175
248.006
257.949
267.991
278.123
288.331
298.605
308.936
319.312
329.722
340.163
350.617
361.1
371.559
381.914
392.144
402.239
412.185
421.971
431.583
441.009
450.236
459.251
468.043
476.599
484.908
492.957
500.735
508.232
515.436
522.335
528.921
535.183
541.112
546.7
551.937
556.816
561.332
565.476
569.245
572.632
575.633
578.246
580.467
582.295
583.728
584.765
585.408
585.658
585.517
584.988
584.074
582.78
581.113
579.077
576.68
573.929
570.833
567.401
563.643
559.568
555.188
550.513
545.556
540.328
534.843
529.113
523.151
516.97
510.585
504.008
497.254
490.335
483.267
476.062
468.734
461.296
453.762
446.145
438.457
430.711
422.918
415.091
407.242
399.381
391.519
383.666
375.832
368.028
360.262
352.543
344.881
337.284
329.762
322.324
314.979
307.738
300.611
293.609
286.745
280.031
273.481
267.109
260.924
254.938
249.136
243.571
8.16769
3.90298
3.03032
2.75153
2.66966
2.68183
2.75064
2.85964
3.00083
3.1702
3.36583
3.58711
3.83427
4.10826
4.41059
4.74332
5.10906
5.51094
5.95268
6.43854
6.97339
7.5629
8.21293
8.93014
9.72266
10.6003
11.57
12.6397
13.8208
15.1247
16.5632
18.1487
19.8931
21.8082
23.9066
26.2011
28.7042
31.428
34.3841
37.5831
41.0349
44.7482
48.7302
52.9865
57.5213
62.3379
67.4378
72.8217
78.4886
84.4364
90.6615
97.1596
103.925
110.952
118.232
125.759
133.523
141.516
149.729
158.152
166.774
175.586
184.578
193.739
203.058
212.526
222.131
231.864
241.715
251.673
261.728
271.869
282.087
292.373
302.716
313.106
323.536
333.996
344.477
354.971
365.478
375.982
386.476
396.985
407.433
417.741
427.904
437.912
447.755
457.423
466.904
476.189
485.266
494.125
502.754
511.145
519.286
527.167
534.779
542.111
549.153
555.897
562.333
568.453
574.246
579.707
584.825
589.596
594.011
598.064
601.75
605.064
608.002
610.558
612.732
614.519