/*--------------------------------*- C++ -*----------------------------------*\
  =========                 |
  \\      /  F ield         | OpenFOAM: The Open Source CFD Toolbox
   \\    /   O peration     | Website:  https://openfoam.org
    \\  /    A nd           | Version:  12
     \\/     M anipulation  |
\*---------------------------------------------------------------------------*/
FoamFile
{
    format      ascii;
    class       volScalarField;
    location    "0.17";
    object      nut;
}
// * * * * * * * * * * * * * * * * * * * * * * * * * * * * * * * * * * * * * //

dimensions      [0 2 -1 0 0 0 0];

internalField   nonuniform List<scalar> 
12225
(
4.04768e-05
3.83178e-05
3.62504e-05
3.44199e-05
3.2952e-05
3.18977e-05
3.12562e-05
3.09938e-05
3.10583e-05
3.13904e-05
3.19316e-05
3.2628e-05
3.34333e-05
3.4309e-05
3.5226e-05
3.61597e-05
3.71154e-05
3.84997e-05
0.000281048
0.000209266
0.000176266
0.000157439
0.000146271
0.000139687
0.000135793
0.00013343
0.000131915
0.000130858
0.000130044
0.000129357
0.00012874
0.000128162
0.000127623
0.00012708
0.000126686
0.000125731
0.000556047
0.000419907
0.000349815
0.000304736
0.000272448
0.000247984
0.000228767
0.000213303
0.000200675
0.000190274
0.000181659
0.000174492
0.000168503
0.00016347
0.000159221
0.000155567
0.000152425
0.000149356
0.000740308
0.000625821
0.000544116
0.000484999
0.000439771
0.000403651
0.000373843
0.000348607
0.000326857
0.000307895
0.000291247
0.000276568
0.000263585
0.000252071
0.000241828
0.00023264
0.000224349
0.000216673
0.000817069
0.000759142
0.000700545
0.000648578
0.000603897
0.000565584
0.000532475
0.000503515
0.000477881
0.000454963
0.000434316
0.000415605
0.000398572
0.000383005
0.000368725
0.000355547
0.000343326
0.000331964
0.0008421
0.000819688
0.000789924
0.000757606
0.000725554
0.000695164
0.000666966
0.000641018
0.000617177
0.000595241
0.000575007
0.000556288
0.00053892
0.000522756
0.000507665
0.000493517
0.00048021
0.00046779
0.000849261
0.000841808
0.000829742
0.000814188
0.000796481
0.000777761
0.00075885
0.000740257
0.00072227
0.000705036
0.000688615
0.000673014
0.000658213
0.000644174
0.000630849
0.000618183
0.000606137
0.000594836
0.00085112
0.000848748
0.00084448
0.000838236
0.000830246
0.000820895
0.000810599
0.000799722
0.000788555
0.000777314
0.000766155
0.000755184
0.000744472
0.00073406
0.000723971
0.000714215
0.000704804
0.000695892
0.00085156
0.000850665
0.00084917
0.000846887
0.000843741
0.000839759
0.000835034
0.000829694
0.000823875
0.000817706
0.000811299
0.000804749
0.000798134
0.000791513
0.000784933
0.00077843
0.000772042
0.000765904
0.000851652
0.000851133
0.000850468
0.000849564
0.000848347
0.000846772
0.000844826
0.000842519
0.000839883
0.000836958
0.000833789
0.000830423
0.000826903
0.000823269
0.000819556
0.000815796
0.000812023
0.000808333
0.000851668
0.00085123
0.000850778
0.000850278
0.000849698
0.000849006
0.000848182
0.000847211
0.000846087
0.000844814
0.000843398
0.000841853
0.000840192
0.000838431
0.000836588
0.000834677
0.000832719
0.000830771
0.000851669
0.000851245
0.000850835
0.000850429
0.000850014
0.000849575
0.000849101
0.000848579
0.000848002
0.000847364
0.000846664
0.0008459
0.000845076
0.000844196
0.000843265
0.000842289
0.000841277
0.000840265
0.000851668
0.000851244
0.000850843
0.000850459
0.000850088
0.000849726
0.000849365
0.000849001
0.000848628
0.000848242
0.00084784
0.000847419
0.000846978
0.000846517
0.000846035
0.000845535
0.00084502
0.000844509
0.000851667
0.000851242
0.000850839
0.000850458
0.000850096
0.000849751
0.00084942
0.000849102
0.000848793
0.000848491
0.000848194
0.000847901
0.00084761
0.00084732
0.00084703
0.000846741
0.000846452
0.000846178
0.000851666
0.000851239
0.000850835
0.000850452
0.00085009
0.000849746
0.000849419
0.000849108
0.000848811
0.000848528
0.000848256
0.000847996
0.000847745
0.000847504
0.000847271
0.000847047
0.000846831
0.000846637
0.000851665
0.000851236
0.000850831
0.000850447
0.000850083
0.000849737
0.000849409
0.000849098
0.000848801
0.000848519
0.00084825
0.000847994
0.00084775
0.000847517
0.000847294
0.000847082
0.000846881
0.000846702
0.000851664
0.000851235
0.000850828
0.000850442
0.000850077
0.00084973
0.000849401
0.000849088
0.00084879
0.000848507
0.000848237
0.00084798
0.000847735
0.000847502
0.000847279
0.000847066
0.000846866
0.000846689
0.000851663
0.000851234
0.000850826
0.00085044
0.000850073
0.000849725
0.000849395
0.000849081
0.000848782
0.000848498
0.000848227
0.000847969
0.000847723
0.000847488
0.000847264
0.00084705
0.000846849
0.00084667
0.000851663
0.000851233
0.000850825
0.000850439
0.000850072
0.000849724
0.000849393
0.000849078
0.000848779
0.000848494
0.000848223
0.000847964
0.000847717
0.000847481
0.000847256
0.000847041
0.000846839
0.000846659
0.000851664
0.000851234
0.000850826
0.00085044
0.000850074
0.000849726
0.000849396
0.000849082
0.000848782
0.000848497
0.000848225
0.000847966
0.000847718
0.000847481
0.000847254
0.000847037
0.000846832
0.000846649
0.000851664
0.000851235
0.000850829
0.000850443
0.000850078
0.00084973
0.000849399
0.000849082
0.00084878
0.000848489
0.00084821
0.00084794
0.00084768
0.000847428
0.000847183
0.000846945
0.000846716
0.000846507
0.000851665
0.000851237
0.00085083
0.000850442
0.000850069
0.000849706
0.000849351
0.000848999
0.000848647
0.000848293
0.000847935
0.00084757
0.000847199
0.00084682
0.000846433
0.00084604
0.000845642
0.000845253
0.000851664
0.000851228
0.000850794
0.000850348
0.00084987
0.000849345
0.000848762
0.000848111
0.000847388
0.000846593
0.000845728
0.000844797
0.000843806
0.000842762
0.000841672
0.000840544
0.000839388
0.000838227
0.000851634
0.000851073
0.000850343
0.000849363
0.00084808
0.000846468
0.000844531
0.000842292
0.000839785
0.000837052
0.000834135
0.000831075
0.00082791
0.000824673
0.000821394
0.000818098
0.00081481
0.000811576
0.000851287
0.000849596
0.000846721
0.000842578
0.000837262
0.000830979
0.000823971
0.000816471
0.000808674
0.000800737
0.000792783
0.000784901
0.000777157
0.000769594
0.000762245
0.000755127
0.000748256
0.000741684
0.000848318
0.000839426
0.000826161
0.000810017
0.000792357
0.000774224
0.000756317
0.000739039
0.000722587
0.000707043
0.000692416
0.00067868
0.000665789
0.000653688
0.000642321
0.000631632
0.000621575
0.00061216
0.000828548
0.000788843
0.000746033
0.0007057
0.000669459
0.000637495
0.000609436
0.000584728
0.00056283
0.000543289
0.000525735
0.000509868
0.000495448
0.00048228
0.000470206
0.000459094
0.000448839
0.000439392
0.000730726
0.000627345
0.000554505
0.000501056
0.000460313
0.00042834
0.000402624
0.000381458
0.000363697
0.000348566
0.000335519
0.000324159
0.000314188
0.000305375
0.000297542
0.000290543
0.00028426
0.00027861
0.000439249
0.00033847
0.000287934
0.000256867
0.00023636
0.000222509
0.000212991
0.00020631
0.000201504
0.000197958
0.00019527
0.000193176
0.000191499
0.000190116
0.000188946
0.000187933
0.000187036
0.00018621
7.16431e-05
6.90587e-05
6.65522e-05
6.41646e-05
6.19883e-05
6.00784e-05
5.84564e-05
5.71212e-05
5.6057e-05
5.52401e-05
5.46434e-05
5.42391e-05
5.40005e-05
5.39026e-05
5.39229e-05
5.40412e-05
5.42403e-05
5.45037e-05
3.85425e-07
8.83139e-06
1.4286e-05
1.93569e-05
2.49702e-05
3.12532e-05
3.83031e-05
4.62314e-05
5.46281e-05
6.31576e-05
7.17958e-05
8.04811e-05
8.91527e-05
9.77596e-05
0.00010626
0.000114619
0.000122806
0.000130788
0.000138535
0.000146011
0.000153178
0.000159991
0.000166408
0.000172381
0.000177868
0.000182831
0.000187235
0.000191045
0.000194221
0.000196701
0.00019839
0.000199215
0.000199395
0.000199842
0.000201011
0.000201975
0.000202258
0.000202119
0.000200306
0.000200986
4.68854e-05
0.000203387
4.75202e-05
4.84817e-05
4.95056e-05
5.05461e-05
5.15953e-05
5.26501e-05
5.37083e-05
5.47684e-05
5.58294e-05
5.68907e-05
5.79517e-05
5.9012e-05
6.00712e-05
6.11289e-05
6.21849e-05
6.32387e-05
6.42901e-05
6.53386e-05
6.6384e-05
6.74258e-05
6.84636e-05
6.9497e-05
7.05255e-05
7.15489e-05
7.25665e-05
7.3578e-05
7.45828e-05
7.55805e-05
7.65706e-05
7.75527e-05
7.85262e-05
7.94907e-05
8.04456e-05
8.13906e-05
8.23251e-05
8.32487e-05
8.41609e-05
8.50612e-05
8.59493e-05
8.68247e-05
8.76869e-05
8.85356e-05
8.93703e-05
9.01907e-05
9.09963e-05
9.17868e-05
9.25617e-05
9.33207e-05
9.40634e-05
9.47895e-05
9.54984e-05
9.61899e-05
9.68636e-05
9.75195e-05
9.81577e-05
9.87786e-05
9.93841e-05
9.99771e-05
0.000100553
0.000101106
0.000101638
0.000102149
0.000102638
0.000103105
0.000103549
0.000103971
0.000104371
0.000104746
0.000105098
0.000105426
0.00010573
0.000106009
0.000106263
0.000106493
0.000106697
0.000106876
0.00010703
0.000107158
0.000107261
0.000107337
0.000107389
0.000107414
0.000107414
0.000107388
0.000107336
0.000107259
0.000107157
0.00010703
0.000106877
0.0001067
0.000106498
0.000106272
0.000106022
0.000105748
0.00010545
0.00010513
0.000104787
0.000104422
0.000104035
0.000103627
0.000103198
0.000102749
0.00010228
0.000101792
0.000101286
0.000100761
0.000100219
9.966e-05
9.90852e-05
9.84948e-05
9.78897e-05
9.72706e-05
9.6638e-05
9.59929e-05
9.53359e-05
9.46674e-05
9.39889e-05
9.33006e-05
9.26035e-05
9.1899e-05
9.11853e-05
9.04702e-05
8.97611e-05
8.91955e-05
8.87954e-05
8.84031e-05
8.8009e-05
8.76127e-05
8.72143e-05
8.68138e-05
8.64105e-05
8.60032e-05
8.55888e-05
8.51605e-05
8.47029e-05
8.41755e-05
8.34776e-05
8.21748e-05
1.32226e-06
2.98987e-05
6.33768e-05
8.75162e-05
0.000104208
0.000116814
0.000127723
0.000138148
0.000148608
0.000159235
0.000169995
0.000180805
0.000191577
0.000202235
0.000212714
0.000222959
0.000232919
0.000242543
0.000251776
0.000260556
0.00026881
0.000276458
0.000283406
0.000289553
0.000294787
0.000298983
0.000302001
0.000303673
0.000303798
0.000302122
0.000298358
0.000292419
0.000285148
0.000279007
0.000276363
0.000273744
0.000269818
0.000265901
0.000262886
0.000262713
0.000257844
0.000267903
0.000266986
0.000272989
0.00027898
0.000285417
0.000292172
0.000299176
0.000306376
0.000313739
0.000321243
0.000328875
0.000336626
0.000344489
0.000352461
0.00036054
0.000368721
0.000377005
0.000385388
0.000393869
0.000402448
0.00041112
0.000419886
0.000428742
0.000437685
0.000446713
0.000455823
0.00046501
0.000474272
0.000483604
0.000493002
0.00050246
0.000511975
0.00052154
0.00053115
0.0005408
0.000550485
0.000560197
0.000569932
0.000579683
0.000589445
0.000599212
0.000608978
0.000618737
0.000628485
0.000638215
0.000647924
0.000657606
0.000667256
0.000676871
0.000686446
0.000695975
0.000705455
0.000714877
0.000724232
0.000733506
0.000742672
0.000751693
0.000760511
0.000768814
0.000776679
0.000784394
0.000791987
0.000799459
0.000806805
0.000814019
0.000821095
0.000828028
0.000834813
0.000841443
0.000847914
0.00085422
0.000860357
0.000866319
0.000872102
0.000877701
0.000883112
0.00088833
0.000893353
0.000898175
0.000902794
0.000907206
0.00091141
0.000915401
0.000919177
0.000922737
0.000926078
0.000929198
0.000932096
0.000934771
0.000937222
0.000939448
0.000941449
0.000943225
0.000944776
0.000946103
0.000947207
0.000948088
0.000948748
0.00094919
0.000949414
0.000949424
0.000949221
0.00094881
0.000948192
0.000947373
0.000946355
0.000945142
0.00094374
0.000942152
0.000940385
0.000938442
0.000936328
0.000934052
0.000931618
0.000929032
0.000926303
0.000923431
0.000920434
0.000917312
0.000914071
0.000910734
0.000907292
0.000903685
0.000899729
0.000894318
0.000887337
0.00087994
0.000872386
0.000864747
0.000857049
0.000849307
0.000841527
0.000833711
0.000825851
0.000817926
0.000809858
0.000801539
0.000791965
0.000773199
2.5479e-06
4.65416e-05
9.74613e-05
0.000135126
0.000162277
0.000182586
0.000198846
0.000212936
0.000225989
0.000238598
0.000251022
0.000263333
0.000275518
0.000287527
0.000299303
0.000310785
0.000321915
0.000332637
0.000342892
0.00035262
0.00036176
0.000370251
0.000378033
0.000385058
0.000391292
0.000396718
0.000401342
0.000405194
0.000408332
0.00041085
0.000412887
0.000414719
0.000416928
0.000420387
0.000425477
0.000431416
0.000437966
0.000445521
0.000453979
0.000463449
0.000473811
0.000486022
0.000498623
0.000512346
0.000526393
0.000540779
0.000555495
0.000570517
0.000585821
0.000601386
0.000617197
0.00063324
0.000649507
0.000665989
0.000682683
0.000699583
0.000716684
0.000733983
0.000751476
0.000769158
0.000787026
0.000805073
0.000823296
0.000841687
0.00086024
0.000878948
0.000897803
0.000916797
0.000935921
0.000955165
0.000974518
0.000993971
0.00101351
0.00103313
0.00105281
0.00107254
0.00109232
0.00111212
0.00113193
0.00115175
0.00117155
0.00119133
0.00121108
0.00123077
0.00125041
0.00126997
0.00128945
0.00130883
0.00132811
0.00134726
0.00136628
0.00138515
0.00140386
0.00142238
0.00144069
0.00145876
0.00147655
0.001494
0.00151105
0.00152745
0.00154346
0.00155919
0.00157466
0.00158988
0.00160482
0.00161949
0.00163387
0.00164794
0.00166169
0.00167512
0.00168822
0.00170097
0.00171336
0.00172538
0.00173703
0.00174829
0.00175915
0.00176961
0.00177966
0.00178929
0.0017985
0.00180727
0.0018156
0.00182349
0.00183093
0.00183792
0.00184445
0.00185052
0.00185613
0.00186127
0.00186594
0.00187015
0.00187389
0.00187715
0.00187995
0.00188228
0.00188415
0.00188555
0.0018865
0.00188698
0.00188702
0.00188661
0.00188576
0.00188447
0.00188276
0.00188062
0.00187807
0.00187512
0.00187177
0.00186804
0.00186393
0.00185946
0.00185463
0.00184947
0.00184397
0.00183816
0.00183206
0.00182566
0.001819
0.0018121
0.00180495
0.00179758
0.00179
0.00178206
0.00177352
0.00176357
0.00175207
0.00173985
0.00172725
0.00171442
0.00170144
0.00168833
0.00167511
0.00166179
0.00164834
0.00163469
0.00162064
0.00160569
0.00158789
0.00155857
3.89136e-06
5.83866e-05
0.000121694
0.000170199
0.000206169
0.000233332
0.000254736
0.0002726
0.000288412
0.00030309
0.000317149
0.00033084
0.000344264
0.00035744
0.000370346
0.000382947
0.000395202
0.000407073
0.000418523
0.000429523
0.000440051
0.000450095
0.000459659
0.000468765
0.000477462
0.000485823
0.000493947
0.000501957
0.000509998
0.000518235
0.00052685
0.000536054
0.000546102
0.000557245
0.000569553
0.000582874
0.000597145
0.000612419
0.000628645
0.000645781
0.000663838
0.000682807
0.000702498
0.000722778
0.000743456
0.000764485
0.000785852
0.000807549
0.000829569
0.000851903
0.000874542
0.00089748
0.000920708
0.000944222
0.000968016
0.000992085
0.00101642
0.00104102
0.00106588
0.001091
0.00111635
0.00114194
0.00116776
0.0011938
0.00122005
0.0012465
0.00127313
0.00129993
0.00132689
0.001354
0.00138124
0.00140859
0.00143603
0.00146356
0.00149115
0.00151878
0.00154644
0.00157411
0.00160177
0.0016294
0.00165699
0.00168451
0.00171194
0.00173927
0.00176649
0.00179357
0.00182049
0.00184725
0.00187381
0.00190017
0.0019263
0.00195219
0.00197781
0.00200313
0.00202813
0.00205278
0.00207705
0.00210092
0.00212416
0.00214686
0.00216914
0.00219105
0.0022126
0.00223379
0.0022546
0.00227501
0.00229502
0.00231461
0.00233376
0.00235246
0.00237069
0.00238844
0.0024057
0.00242245
0.00243867
0.00245437
0.00246952
0.00248411
0.00249813
0.00251158
0.00252444
0.0025367
0.00254836
0.00255941
0.00256984
0.00257965
0.00258883
0.00259737
0.00260527
0.00261253
0.00261914
0.00262511
0.00263043
0.0026351
0.00263913
0.0026425
0.00264524
0.00264733
0.00264878
0.0026496
0.0026498
0.00264937
0.00264833
0.00264669
0.00264445
0.00264162
0.00263821
0.00263423
0.00262971
0.00262464
0.00261904
0.00261293
0.00260632
0.00259924
0.00259168
0.00258368
0.00257527
0.00256644
0.00255723
0.00254767
0.00253776
0.0025275
0.0025169
0.00250584
0.00249415
0.00248133
0.00246731
0.0024525
0.00243718
0.00242154
0.00240564
0.00238954
0.00237327
0.00235685
0.00234025
0.00232337
0.00230595
0.0022873
0.00226525
0.00223322
5.16585e-06
6.77299e-05
0.000140811
0.000198261
0.000241674
0.000274791
0.000300824
0.000322208
0.000340668
0.000357357
0.000372994
0.000387995
0.000402582
0.000416858
0.00043086
0.000444593
0.000458051
0.000471224
0.000484109
0.000496712
0.00050905
0.000521152
0.00053307
0.00054487
0.000556642
0.000568492
0.000580544
0.000592931
0.000605791
0.000619263
0.000633477
0.000648553
0.000664594
0.000681674
0.000699801
0.000718931
0.000739024
0.000760054
0.000781973
0.000804728
0.000828272
0.000852535
0.000877421
0.000902825
0.00092866
0.000954884
0.000981478
0.00100843
0.00103575
0.00106341
0.00109142
0.00111977
0.00114846
0.00117747
0.00120681
0.00123647
0.00126644
0.00129671
0.00132728
0.00135813
0.00138927
0.00142067
0.00145232
0.00148422
0.00151635
0.00154869
0.00158124
0.00161397
0.00164686
0.0016799
0.00171307
0.00174635
0.00177971
0.00181315
0.00184663
0.00188013
0.00191363
0.00194711
0.00198055
0.00201392
0.00204721
0.00208038
0.00211342
0.0021463
0.00217901
0.00221152
0.00224382
0.00227587
0.00230767
0.00233919
0.00237041
0.00240131
0.00243186
0.00246205
0.00249184
0.00252121
0.00255014
0.00257859
0.00260639
0.00263368
0.0026605
0.0026869
0.00271287
0.0027384
0.00276348
0.0027881
0.00281224
0.00283588
0.002859
0.00288159
0.00290363
0.0029251
0.00294599
0.00296629
0.00298597
0.00300502
0.00302344
0.0030412
0.00305829
0.0030747
0.00309043
0.00310545
0.00311976
0.00313335
0.00314621
0.00315834
0.00316973
0.00318037
0.00319025
0.00319938
0.00320774
0.00321533
0.00322217
0.00322823
0.00323353
0.00323806
0.00324182
0.00324483
0.00324707
0.00324856
0.00324931
0.00324931
0.00324858
0.00324712
0.00324495
0.00324207
0.00323849
0.00323424
0.00322931
0.00322374
0.00321752
0.00321068
0.00320323
0.0031952
0.0031866
0.00317746
0.00316779
0.00315762
0.00314698
0.00313588
0.00312433
0.00311236
0.00309995
0.00308704
0.00307349
0.00305906
0.00304369
0.00302758
0.00301092
0.00299385
0.00297648
0.00295885
0.00294102
0.002923
0.00290479
0.0028863
0.00286726
0.00284699
0.00282361
0.00279272
6.28947e-06
7.53118e-05
0.000156376
0.000221278
0.000271065
0.000309423
0.00033965
0.000364317
0.000385315
0.000403969
0.000421165
0.000437463
0.000453203
0.000468575
0.000483686
0.00049859
0.000513321
0.000527902
0.00054236
0.00055673
0.000571056
0.000585396
0.000599819
0.000614413
0.000629274
0.00064451
0.000660233
0.000676556
0.000693586
0.000711418
0.000730133
0.000749792
0.000770434
0.000792075
0.000814702
0.000838282
0.000862774
0.000888135
0.000914314
0.000941255
0.000968901
0.000997188
0.00102605
0.00105542
0.00108524
0.00111547
0.00114611
0.00117714
0.00120855
0.00124034
0.00127249
0.00130502
0.0013379
0.00137114
0.00140472
0.00143865
0.0014729
0.00150748
0.00154238
0.00157757
0.00161306
0.00164882
0.00168485
0.00172113
0.00175764
0.00179436
0.00183129
0.00186839
0.00190565
0.00194306
0.00198057
0.00201818
0.00205586
0.00209359
0.00213134
0.00216909
0.00220681
0.00224448
0.00228207
0.00231956
0.00235692
0.00239413
0.00243117
0.002468
0.0025046
0.00254097
0.00257706
0.00261286
0.00264836
0.00268352
0.00271833
0.00275276
0.00278681
0.00282043
0.00285363
0.00288636
0.00291862
0.00295031
0.0029814
0.00301197
0.00304206
0.00307169
0.00310086
0.00312955
0.00315775
0.00318544
0.00321261
0.00323923
0.0032653
0.00329078
0.00331567
0.00333994
0.00336358
0.00338657
0.0034089
0.00343054
0.00345149
0.00347172
0.00349123
0.00350999
0.00352801
0.00354526
0.00356173
0.00357742
0.00359231
0.0036064
0.00361968
0.00363213
0.00364376
0.00365456
0.00366452
0.00367364
0.00368192
0.00368935
0.00369595
0.00370169
0.00370659
0.00371065
0.00371387
0.00371625
0.00371781
0.00371855
0.00371847
0.00371758
0.00371589
0.00371342
0.00371017
0.00370615
0.00370139
0.00369589
0.00368967
0.00368275
0.00367515
0.00366687
0.00365795
0.00364841
0.00363827
0.00362755
0.00361628
0.00360448
0.00359217
0.00357935
0.00356604
0.00355219
0.00353773
0.00352253
0.00350657
0.00348992
0.00347273
0.0034551
0.00343712
0.00341886
0.00340037
0.0033817
0.00336286
0.00334378
0.00332425
0.00330369
0.00328064
0.00325227
7.23106e-06
8.14799e-05
0.000169004
0.000240135
0.000295417
0.000338429
0.000372488
0.000400243
0.000423694
0.000444294
0.00046306
0.000480678
0.00049759
0.000514078
0.000530314
0.000546406
0.000562427
0.000578435
0.000594479
0.000610615
0.000626903
0.000643412
0.000660218
0.000677408
0.00069507
0.000713297
0.000732181
0.000751807
0.00077225
0.000793571
0.000815814
0.000839008
0.000863162
0.000888269
0.000914305
0.000941237
0.000969021
0.000997613
0.00102696
0.00105702
0.00108773
0.00111904
0.0011509
0.00118327
0.0012161
0.00124937
0.00128305
0.00131714
0.00135163
0.00138651
0.00142177
0.00145741
0.00149342
0.0015298
0.00156653
0.0016036
0.00164102
0.00167876
0.00171681
0.00175518
0.00179383
0.00183275
0.00187194
0.00191137
0.00195103
0.0019909
0.00203095
0.00207118
0.00211155
0.00215205
0.00219264
0.00223332
0.00227405
0.00231481
0.00235557
0.00239631
0.002437
0.00247761
0.00251812
0.0025585
0.00259872
0.00263876
0.00267859
0.00271819
0.00275754
0.0027966
0.00283536
0.00287379
0.00291188
0.00294961
0.00298695
0.00302388
0.0030604
0.00309647
0.00313209
0.00316722
0.00320186
0.00323589
0.00326936
0.00330234
0.00333483
0.00336684
0.00339838
0.00342942
0.00345996
0.00348997
0.00351943
0.00354833
0.00357666
0.00360437
0.00363147
0.00365793
0.00368373
0.00370886
0.00373329
0.00375701
0.00378001
0.00380226
0.00382375
0.00384446
0.00386439
0.00388351
0.00390182
0.0039193
0.00393595
0.00395176
0.00396671
0.0039808
0.00399401
0.00400635
0.0040178
0.00402837
0.00403804
0.00404682
0.00405471
0.00406171
0.0040678
0.004073
0.0040773
0.00408073
0.00408327
0.00408493
0.00408572
0.00408564
0.00408471
0.00408295
0.00408033
0.0040769
0.00407267
0.00406765
0.00406183
0.00405525
0.00404794
0.00403989
0.00403115
0.00402172
0.00401164
0.00400092
0.00398959
0.00397768
0.00396519
0.00395215
0.00393856
0.00392441
0.00390967
0.00389427
0.0038782
0.00386151
0.00384428
0.00382661
0.00380856
0.00379022
0.00377165
0.00375291
0.00373404
0.003715
0.00369566
0.00367558
0.00365365
0.00362806
8.00714e-06
8.63326e-05
0.000179011
0.000255328
0.00031535
0.0003625
0.000400067
0.000430729
0.000456554
0.000479085
0.000499439
0.000518402
0.000536511
0.000554125
0.000571482
0.000588742
0.000606015
0.000623387
0.000640928
0.000658707
0.000676792
0.000695253
0.000714165
0.000733603
0.000753643
0.00077436
0.000795823
0.000818091
0.000841215
0.000865231
0.000890162
0.000916016
0.000942786
0.000970457
0.000999
0.00102838
0.00105856
0.00108949
0.00112112
0.00115342
0.00118634
0.00121983
0.00125386
0.00128838
0.00132337
0.0013588
0.00139466
0.00143093
0.00146761
0.00150467
0.00154212
0.00157995
0.00161815
0.0016567
0.00169562
0.00173487
0.00177446
0.00181437
0.00185459
0.0018951
0.00193591
0.00197697
0.0020183
0.00205985
0.00210163
0.00214361
0.00218577
0.00222808
0.00227054
0.00231311
0.00235578
0.00239851
0.00244129
0.00248409
0.00252688
0.00256965
0.00261235
0.00265496
0.00269746
0.00273982
0.00278201
0.002824
0.00286577
0.0029073
0.00294854
0.00298949
0.00303012
0.00307041
0.00311033
0.00314987
0.00318902
0.00322774
0.00326603
0.00330387
0.00334124
0.00337813
0.00341449
0.00345028
0.00348556
0.00352036
0.00355469
0.00358855
0.00362193
0.00365482
0.0036872
0.00371906
0.00375036
0.0037811
0.00381126
0.0038408
0.00386972
0.00389798
0.00392559
0.0039525
0.00397871
0.0040042
0.00402894
0.00405293
0.00407614
0.00409855
0.00412015
0.00414094
0.00416088
0.00417998
0.00419822
0.00421559
0.00423208
0.00424768
0.00426239
0.00427618
0.00428905
0.00430101
0.00431205
0.00432217
0.00433136
0.00433962
0.00434695
0.00435334
0.00435881
0.00436336
0.004367
0.00436971
0.0043715
0.00437239
0.00437241
0.00437154
0.00436978
0.00436715
0.00436368
0.00435937
0.00435424
0.0043483
0.00434158
0.00433409
0.00432586
0.0043169
0.00430724
0.0042969
0.00428591
0.00427427
0.00426203
0.00424918
0.00423576
0.00422175
0.00420714
0.00419192
0.00417608
0.00415966
0.00414272
0.00412533
0.00410756
0.00408949
0.0040712
0.00405275
0.00403422
0.00401561
0.00399684
0.00397761
0.0039571
0.00393408
8.61889e-06
8.99949e-05
0.000186661
0.000267228
0.000331301
0.00038211
0.00042287
0.000456253
0.000484358
0.000508785
0.000530726
0.000551044
0.000570354
0.000589084
0.00060753
0.000625896
0.00064433
0.000662941
0.000681818
0.000701036
0.000720668
0.00074078
0.000761439
0.000782711
0.000804656
0.00082733
0.000850784
0.000875059
0.000900186
0.000926183
0.00095306
0.000980814
0.00100943
0.00103889
0.00106916
0.00110021
0.00113201
0.0011645
0.00119766
0.00123144
0.0012658
0.00130071
0.00133614
0.00137205
0.00140842
0.00144522
0.00148245
0.00152009
0.00155812
0.00159653
0.00163533
0.00167449
0.00171402
0.00175389
0.00179411
0.00183467
0.00187555
0.00191674
0.00195824
0.00200002
0.00204208
0.0020844
0.00212698
0.00216978
0.0022128
0.00225602
0.00229941
0.00234297
0.00238667
0.00243049
0.00247441
0.0025184
0.00256245
0.00260652
0.00265059
0.00269464
0.00273863
0.00278255
0.00282636
0.00287004
0.00291355
0.00295687
0.00299997
0.00304282
0.0030854
0.00312768
0.00316964
0.00321125
0.0032525
0.00329336
0.00333382
0.00337386
0.00341347
0.00345263
0.00349132
0.00352954
0.00356724
0.00360444
0.00364118
0.00367747
0.00371331
0.0037487
0.00378362
0.00381806
0.00385201
0.00388543
0.00391832
0.00395065
0.00398239
0.00401353
0.00404404
0.0040739
0.0041031
0.00413161
0.00415941
0.00418649
0.00421282
0.00423839
0.00426316
0.00428714
0.00431029
0.00433261
0.00435408
0.00437469
0.00439442
0.00441327
0.00443124
0.0044483
0.00446443
0.00447964
0.00449391
0.00450724
0.00451963
0.00453108
0.00454159
0.00455115
0.00455974
0.00456737
0.00457405
0.00457978
0.00458461
0.00458846
0.00459136
0.00459333
0.00459439
0.00459453
0.00459376
0.0045921
0.00458957
0.00458617
0.00458191
0.00457683
0.00457092
0.00456422
0.00455674
0.0045485
0.00453953
0.00452983
0.00451944
0.00450838
0.00449667
0.00448433
0.00447136
0.0044578
0.00444363
0.00442885
0.00441349
0.00439757
0.00438113
0.00436424
0.00434697
0.0043294
0.00431161
0.00429369
0.00427572
0.00425775
0.00423976
0.00422153
0.00420246
0.00418167
9.07196e-06
9.25913e-05
0.000192197
0.000276154
0.000343633
0.000397635
0.000441269
0.000477166
0.000507427
0.000533684
0.000557177
0.000578828
0.000599311
0.000619112
0.000638577
0.00065795
0.00067741
0.000697087
0.000717084
0.000737484
0.000758358
0.000779771
0.00080178
0.00082444
0.000847797
0.000871895
0.000896767
0.00092244
0.000948932
0.000976252
0.0010044
0.00103336
0.00106313
0.00109367
0.00112496
0.00115697
0.00118967
0.00122301
0.00125697
0.00129151
0.0013266
0.0013622
0.00139829
0.00143484
0.00147183
0.00150924
0.00154706
0.00158527
0.00162387
0.00166283
0.00170216
0.00174185
0.00178189
0.00182226
0.00186297
0.00190401
0.00194536
0.00198702
0.00202898
0.00207123
0.00211376
0.00215655
0.00219959
0.00224288
0.00228639
0.00233011
0.00237403
0.00241813
0.00246239
0.00250679
0.00255131
0.00259594
0.00264064
0.0026854
0.00273019
0.00277498
0.00281975
0.00286446
0.0029091
0.00295363
0.00299803
0.00304225
0.00308627
0.00313007
0.00317361
0.00321686
0.0032598
0.00330241
0.00334466
0.00338654
0.00342801
0.00346908
0.00350973
0.00354994
0.0035897
0.003629
0.00366786
0.0037063
0.00374432
0.00378192
0.00381911
0.00385587
0.00389218
0.00392804
0.00396341
0.00399828
0.00403262
0.00406641
0.00409963
0.00413225
0.00416425
0.00419561
0.00422631
0.00425632
0.00428563
0.00431421
0.00434204
0.00436912
0.0043954
0.00442087
0.00444551
0.00446931
0.00449225
0.00451432
0.00453551
0.00455582
0.00457522
0.00459372
0.00461127
0.00462788
0.00464354
0.00465824
0.00467199
0.00468479
0.00469665
0.00470752
0.00471741
0.00472632
0.00473426
0.00474124
0.00474727
0.00475232
0.00475642
0.00475956
0.00476177
0.00476304
0.00476339
0.00476283
0.00476137
0.00475902
0.0047558
0.00475173
0.00474681
0.00474107
0.00473452
0.00472719
0.0047191
0.00471025
0.00470068
0.00469041
0.00467945
0.00466783
0.00465557
0.00464267
0.00462916
0.00461504
0.00460034
0.00458508
0.00456931
0.00455309
0.00453648
0.00451957
0.00450244
0.00448519
0.00446792
0.00445072
0.0044336
0.00441641
0.00439868
0.00437976
9.37659e-06
9.42469e-05
0.000195853
0.000282407
0.000352675
0.000409409
0.000455581
0.000493756
0.000526011
0.000553988
0.000578952
0.000601868
0.000623454
0.000644239
0.000664611
0.000684848
0.000705154
0.00072568
0.000746539
0.000767819
0.000789592
0.000811918
0.000834849
0.000858428
0.000882692
0.000907671
0.00093339
0.000959863
0.0009871
0.0010151
0.00104386
0.00107337
0.0011036
0.00113454
0.00116616
0.00119843
0.00123132
0.0012648
0.00129884
0.00133341
0.00136848
0.00140402
0.00144002
0.00147645
0.00151329
0.00155053
0.00158815
0.00162614
0.0016645
0.00170321
0.00174228
0.00178168
0.00182143
0.00186151
0.00190192
0.00194266
0.00198372
0.00202509
0.00206677
0.00210875
0.00215103
0.0021936
0.00223644
0.00227956
0.00232293
0.00236656
0.00241041
0.00245449
0.00249878
0.00254325
0.0025879
0.0026327
0.00267762
0.00272266
0.00276777
0.00281294
0.00285814
0.00290334
0.00294851
0.00299361
0.00303862
0.0030835
0.00312821
0.00317274
0.00321703
0.00326106
0.0033048
0.00334822
0.00339131
0.00343403
0.00347637
0.00351831
0.00355985
0.00360096
0.00364166
0.00368201
0.00372199
0.0037616
0.00380085
0.00383972
0.00387821
0.00391629
0.00395396
0.00399119
0.00402795
0.00406422
0.00409998
0.0041352
0.00416986
0.00420393
0.00423739
0.00427021
0.00430238
0.00433386
0.00436465
0.00439471
0.00442403
0.00445259
0.00448035
0.00450729
0.00453341
0.00455867
0.00458307
0.0046066
0.00462924
0.00465099
0.00467183
0.00469178
0.00471076
0.00472878
0.00474584
0.00476193
0.00477706
0.00479123
0.00480443
0.00481664
0.00482787
0.00483811
0.00484737
0.00485565
0.00486297
0.00486931
0.00487467
0.00487908
0.00488254
0.00488505
0.00488662
0.00488727
0.004887
0.00488584
0.00488378
0.00488085
0.00487707
0.00487243
0.00486698
0.00486071
0.00485366
0.00484583
0.00483726
0.00482795
0.00481793
0.00480722
0.00479584
0.0047838
0.00477113
0.00475784
0.00474396
0.00472952
0.00471456
0.00469914
0.00468332
0.00466719
0.00465084
0.00463438
0.00461792
0.00460155
0.00458533
0.00456916
0.00455267
0.00453531
9.54703e-06
9.50879e-05
0.000197862
0.000286279
0.000358741
0.000417741
0.000466091
0.000506267
0.000540305
0.000569835
0.000596133
0.000620187
0.000642746
0.000664373
0.000685485
0.000706389
0.000727309
0.000748413
0.000769822
0.000791631
0.00081391
0.000836718
0.000860099
0.00088409
0.000908719
0.000934008
0.000959973
0.000986621
0.00101396
0.00104197
0.00107066
0.00110001
0.00113
0.00116062
0.00119183
0.00122361
0.00125593
0.00128877
0.00132211
0.00135592
0.00139018
0.00142486
0.00145995
0.00149543
0.00153129
0.00156752
0.00160411
0.00164106
0.00167835
0.00171599
0.00175397
0.00179229
0.00183096
0.00186998
0.00190933