/*--------------------------------*- C++ -*----------------------------------*\
  =========                 |
  \\      /  F ield         | OpenFOAM: The Open Source CFD Toolbox
   \\    /   O peration     | Website:  https://openfoam.org
    \\  /    A nd           | Version:  12
     \\/     M anipulation  |
\*---------------------------------------------------------------------------*/
FoamFile
{
    format      ascii;
    class       volScalarField;
    location    "0.17";
    object      p;
}
// * * * * * * * * * * * * * * * * * * * * * * * * * * * * * * * * * * * * * //

dimensions      [0 2 -2 0 0 0 0];

internalField   nonuniform List<scalar> 
12225
(
-1.12164
-3.40463
-4.56709
-4.87525
-5.04349
-5.20318
-5.32773
-5.41609
-5.48563
-5.54655
-5.60064
-5.64771
-5.68806
-5.72094
-5.7452
-5.75037
-5.7461
-5.63556
-4.58915
-5.29125
-5.38146
-5.24639
-5.20631
-5.27357
-5.35429
-5.42011
-5.47706
-5.53039
-5.57985
-5.62429
-5.6634
-5.69626
-5.72241
-5.73471
-5.74612
-5.72898
-4.7939
-4.69093
-4.8477
-4.96981
-5.07717
-5.19947
-5.30774
-5.39038
-5.45755
-5.51735
-5.57143
-5.61957
-5.66189
-5.6981
-5.72862
-5.75027
-5.77748
-5.809
-4.65661
-4.57847
-4.85452
-5.03324
-5.12769
-5.22482
-5.31992
-5.39747
-5.46204
-5.52022
-5.57347
-5.62142
-5.6642
-5.70194
-5.73565
-5.76539
-5.803
-5.85484
-4.66358
-4.68083
-4.9209
-5.07079
-5.14683
-5.23154
-5.32115
-5.39722
-5.46118
-5.5189
-5.57205
-5.62042
-5.66427
-5.70415
-5.74154
-5.77816
-5.82275
-5.88221
-4.72527
-4.76773
-4.9455
-5.07623
-5.15422
-5.23677
-5.32308
-5.39794
-5.46158
-5.51908
-5.57227
-5.62117
-5.66617
-5.70812
-5.74874
-5.79034
-5.83914
-5.90065
-4.78502
-4.82453
-4.96093
-5.08313
-5.16553
-5.24526
-5.32696
-5.39984
-5.46294
-5.52016
-5.57334
-5.62273
-5.6688
-5.71258
-5.7558
-5.80075
-5.85172
-5.91233
-4.83818
-4.87307
-4.98336
-5.09599
-5.17855
-5.25447
-5.33145
-5.40216
-5.4646
-5.5215
-5.57464
-5.62445
-5.67149
-5.71679
-5.76194
-5.80891
-5.86054
-5.91877
-4.88798
-4.91971
-5.01049
-5.1113
-5.19138
-5.26387
-5.33665
-5.40504
-5.46661
-5.52309
-5.57609
-5.62622
-5.67401
-5.72043
-5.76684
-5.81476
-5.86596
-5.92124
-4.93536
-4.96398
-5.03914
-5.12805
-5.20444
-5.27385
-5.34281
-5.40867
-5.46909
-5.52499
-5.57774
-5.62798
-5.67625
-5.72336
-5.77039
-5.81843
-5.86852
-5.92077
-4.98015
-5.00543
-5.06822
-5.14628
-5.21818
-5.28448
-5.34986
-5.41306
-5.47209
-5.52725
-5.57958
-5.62973
-5.67816
-5.72553
-5.77264
-5.82021
-5.86879
-5.91815
-5.01868
-5.04101
-5.09484
-5.16411
-5.23138
-5.29468
-5.35699
-5.41773
-5.4753
-5.52962
-5.58143
-5.63127
-5.67958
-5.72684
-5.77363
-5.82039
-5.86742
-5.91435
-5.0544
-5.07419
-5.12072
-5.18225
-5.24482
-5.30507
-5.36448
-5.42283
-5.47884
-5.5322
-5.58334
-5.63273
-5.68069
-5.72758
-5.77377
-5.81954
-5.86498
-5.90971
-5.09196
-5.10926
-5.14904
-5.20304
-5.26039
-5.3171
-5.37339
-5.4291
-5.48324
-5.53534
-5.58557
-5.63423
-5.68154
-5.72773
-5.77299
-5.81745
-5.86109
-5.90356
-5.13012
-5.14502
-5.17886
-5.22588
-5.27779
-5.33058
-5.38358
-5.43647
-5.48845
-5.53899
-5.588
-5.63561
-5.68193
-5.72706
-5.77106
-5.81394
-5.85564
-5.89588
-5.16695
-5.17969
-5.20856
-5.24948
-5.29614
-5.34489
-5.39454
-5.44454
-5.49418
-5.54287
-5.59037
-5.63662
-5.68161
-5.72535
-5.7678
-5.80892
-5.84863
-5.88673
-5.19955
-5.21056
-5.23554
-5.27156
-5.31367
-5.35867
-5.40517
-5.45242
-5.49969
-5.5464
-5.59217
-5.63682
-5.68024
-5.72236
-5.7631
-5.80238
-5.84014
-5.87625
-5.22359
-5.23339
-5.25578
-5.28847
-5.32733
-5.36948
-5.41348
-5.45847
-5.50371
-5.54858
-5.59266
-5.63568
-5.67748
-5.71794
-5.75697
-5.79449
-5.83045
-5.86477
-5.23209
-5.24145
-5.26293
-5.29448
-5.33218
-5.37321
-5.41606
-5.45988
-5.50395
-5.54763
-5.59048
-5.63221
-5.67266
-5.71171
-5.74928
-5.78531
-5.81977
-5.85266
-5.21721
-5.22727
-5.25027
-5.28393
-5.32375
-5.36638
-5.41029
-5.45479
-5.49928
-5.54309
-5.58581
-5.62719
-5.66713
-5.70553
-5.74234
-5.77755
-5.81116
-5.84317
-5.19107
-5.20226
-5.22807
-5.26582
-5.3096
-5.35521
-5.4013
-5.44756
-5.49335
-5.538
-5.58116
-5.62272
-5.66263
-5.70087
-5.73739
-5.77223
-5.80541
-5.837
-5.15616
-5.16855
-5.1986
-5.2431
-5.29263
-5.3418
-5.39059
-5.43934
-5.48712
-5.53303
-5.57693
-5.61891
-5.65904
-5.6973
-5.73373
-5.76838
-5.80132
-5.83263
-5.11558
-5.12818
-5.16357
-5.21818
-5.27534
-5.32839
-5.38001
-5.43146
-5.4813
-5.52855
-5.57332
-5.61589
-5.65636
-5.69477
-5.7312
-5.76577
-5.79858
-5.82974
-5.07176
-5.08333
-5.12573
-5.19237
-5.2571
-5.31478
-5.37074
-5.42548
-5.47705
-5.52519
-5.57062
-5.61369
-5.65444
-5.69294
-5.72935
-5.76385
-5.79654
-5.82757
-5.02491
-5.03268
-5.09374
-5.17355
-5.23871
-5.29842
-5.36036
-5.41999
-5.47381
-5.52293
-5.56904
-5.61259
-5.65357
-5.6921
-5.72845
-5.76283
-5.79542
-5.82638
-4.97697
-4.95333
-5.06414
-5.1731
-5.2337
-5.28782
-5.35129
-5.41369
-5.46902
-5.51908
-5.56601
-5.61016
-5.65146
-5.69014
-5.72654
-5.76092
-5.79348
-5.82438
-4.96767
-4.82335
-4.98239
-5.1486
-5.23312
-5.29416
-5.35898
-5.42017
-5.47395
-5.52312
-5.56957
-5.61328
-5.65412
-5.69236
-5.72834
-5.76233
-5.79458
-5.82527
-5.11308
-4.82928
-4.86402
-4.99449
-5.11408
-5.2211
-5.31517
-5.39095
-5.45321
-5.50847
-5.55922
-5.60583
-5.64864
-5.68825
-5.72519
-5.75985
-5.79273
-5.82447
-5.04988
-5.54957
-5.55969
-5.40044
-5.31947
-5.34369
-5.39784
-5.44725
-5.49237
-5.53693
-5.58058
-5.62202
-5.66088
-5.69737
-5.73169
-5.76393
-5.79436
-5.82483
-1.7112
-3.58176
-4.65304
-4.94609
-5.08093
-5.21769
-5.3296
-5.4096
-5.47256
-5.52859
-5.57989
-5.62656
-5.66916
-5.70843
-5.74479
-5.77825
-5.80848
-5.83368
-6.72574
-6.72574
-6.72613
-6.7269
-6.72793
-6.72923
-6.7308
-6.73264
-6.73477
-6.73721
-6.73998
-6.74313
-6.74667
-6.75066
-6.75512
-6.7601
-6.76562
-6.77173
-6.77846
-6.78585
-6.79392
-6.80272
-6.81229
-6.82265
-6.83385
-6.84593
-6.85895
-6.87295
-6.88798
-6.90412
-6.92158
-6.94008
-6.95877
-6.97848
-7.00114
-7.02682
-7.05464
-7.08389
-7.10126
-7.11442
-7.14993
-7.17816
-7.1927
-7.21748
-7.24435
-7.27198
-7.30062
-7.32997
-7.3599
-7.39028
-7.421
-7.45194
-7.48302
-7.51413
-7.54518
-7.57605
-7.60665
-7.63686
-7.66658
-7.69568
-7.72405
-7.75153
-7.77802
-7.80335
-7.82739
-7.84998
-7.87096
-7.89017
-7.90745
-7.92261
-7.93549
-7.94591
-7.95368
-7.95861
-7.96053
-7.95923
-7.95455
-7.94627
-7.93423
-7.91822
-7.89807
-7.87358
-7.84459
-7.81091
-7.77236
-7.72878
-7.68001
-7.62588
-7.56623
-7.50093
-7.42982
-7.35278
-7.26968
-7.1804
-7.08483
-6.9829
-6.87457
-6.75987
-6.63873
-6.51093
-6.37615
-6.23433
-6.08561
-5.93003
-5.76761
-5.59838
-5.42235
-5.23959
-5.05014
-4.85408
-4.65151
-4.44253
-4.22727
-4.00585
-3.77845
-3.54522
-3.30636
-3.06205
-2.81251
-2.55797
-2.29867
-2.03484
-1.76677
-1.4947
-1.21894
-0.939757
-0.657457
-0.372341
-0.0847188
0.205096
0.496787
0.790033
1.08451
1.37991
1.6759
1.97216
2.26838
2.56425
2.85946
3.15371
3.44671
3.73817
4.02781
4.31538
4.6006
4.88323
5.16305
5.43982
5.71333
5.98339
6.2498
6.5124
6.77103
7.02553
7.27577
7.52163
7.76299
7.99976
8.23185
8.45917
8.68166
8.89927
9.11196
9.31972
9.5225
9.72024
9.91274
10.0999
10.2818
10.4585
10.6298
10.7959
10.9567
11.1124
11.2629
11.4087
11.5506
11.69
11.8363
11.9901
-6.72411
-6.72448
-6.725
-6.72562
-6.72621
-6.72681
-6.72758
-6.72863
-6.73003
-6.73181
-6.734
-6.7366
-6.73963
-6.74313
-6.74711
-6.7516
-6.75663
-6.76223
-6.76843
-6.77527
-6.78276
-6.79095
-6.79985
-6.80948
-6.81988
-6.83107
-6.84305
-6.85583
-6.86939
-6.88374
-6.89868
-6.91407
-6.93083
-6.94953
-6.96871
-6.98701
-7.00485
-7.01988
-7.04372
-7.07861
-7.09676
-7.11856
-7.15745
-7.19043
-7.21991
-7.24933
-7.27891
-7.30876
-7.33891
-7.36935
-7.40003
-7.43088
-7.46183
-7.49281
-7.52372
-7.55446
-7.58494
-7.61506
-7.6447
-7.67375
-7.70209
-7.72958
-7.75609
-7.78149
-7.80563
-7.82836
-7.84951
-7.86893
-7.88646
-7.90191
-7.91512
-7.9259
-7.93408
-7.93947
-7.94188
-7.94113
-7.93703
-7.92938
-7.91801
-7.90272
-7.88333
-7.85966
-7.83152
-7.79874
-7.76115
-7.71857
-7.67085
-7.61782
-7.55933
-7.49524
-7.4254
-7.34968
-7.26796
-7.18012
-7.08605
-6.98563
-6.87876
-6.7653
-6.64509
-6.51794
-6.3841
-6.24366
-6.09648
-5.94251
-5.78173
-5.61415
-5.43979
-5.2587
-5.07093
-4.87655
-4.67566
-4.46834
-4.25473
-4.03496
-3.80918
-3.57755
-3.34026
-3.0975
-2.84948
-2.59642
-2.33856
-2.07614
-1.80942
-1.53867
-1.26417
-0.986196
-0.705054
-0.421041
-0.134464
0.154366
0.445133
0.737517
1.0312
1.32586
1.62118
1.91684
2.21252
2.50792
2.80272
3.09663
3.38935
3.6806
3.97009
4.25756
4.54275
4.82541
5.10531
5.38221
5.65591
5.92621
6.1929
6.45583
6.71482
6.96972
7.2204
7.46673
7.70859
7.94589
8.17852
8.40642
8.62951
8.84774
9.06106
9.26946
9.4729
9.67127
9.86442
10.0523
10.2349
10.4122
10.5843
10.7511
10.9127
11.0692
11.2208
11.3679
11.5116
11.6532
11.8028
11.9505
-6.72004
-6.72133
-6.72268
-6.72382
-6.72461
-6.72522
-6.72589
-6.72677
-6.72796
-6.72952
-6.73148
-6.73386
-6.7367
-6.74001
-6.74382
-6.74815
-6.75304
-6.7585
-6.76457
-6.77128
-6.77865
-6.78671
-6.79549
-6.80501
-6.8153
-6.82638
-6.83829
-6.85104
-6.86467
-6.87922
-6.89464
-6.91083
-6.92801
-6.94656
-6.96607
-6.98577
-7.00563
-7.02623
-7.04944
-7.07531
-7.09884
-7.12239
-7.15013
-7.1784
-7.20666
-7.23535
-7.26443
-7.29385
-7.32357
-7.35356
-7.38377
-7.41414
-7.44461
-7.4751
-7.50553
-7.53581
-7.56585
-7.59555
-7.6248
-7.65348
-7.68148
-7.70868
-7.73493
-7.76011
-7.78407
-7.80665
-7.82771
-7.84709
-7.86461
-7.88012
-7.89343
-7.90436
-7.91275
-7.9184
-7.92114
-7.92076
-7.9171
-7.90995
-7.89913
-7.88446
-7.86575
-7.84282
-7.81548
-7.78356
-7.74689
-7.70529
-7.65861
-7.60669
-7.54936
-7.48649
-7.41792
-7.34354
-7.2632
-7.17678
-7.08418
-6.98528
-6.87995
-6.76804
-6.64955
-6.52432
-6.39238
-6.25376
-6.10841
-5.9563
-5.79741
-5.63175
-5.45932
-5.28018
-5.09436
-4.90194
-4.703
-4.49765
-4.28599
-4.06816
-3.8443
-3.61458
-3.37917
-3.13826
-2.89207
-2.6408
-2.38468
-2.12397
-1.85891
-1.58978
-1.31684
-1.04037
-0.760674
-0.478045
-0.192788
0.0947886
0.38437
0.67564
0.968281
1.26197
1.5564
1.85124
2.14618
2.44092
2.73513
3.02853
3.32082
3.61171
3.90092
4.18819
4.47324
4.75584
5.03574
5.31271
5.58655
5.85704
6.12399
6.38723
6.64658
6.9019
7.15303
7.39986
7.64226
7.88013
8.11338
8.3419
8.56564
8.78454
8.99852
9.20756
9.41161
9.61061
9.80448
9.99317
10.1766
10.3548
10.5278
10.6956
10.8581
11.0157
11.1685
11.3171
11.4627
11.606
11.7582
11.8955
-6.71407
-6.71627
-6.71884
-6.72096
-6.72242
-6.7235
-6.72447
-6.72553
-6.7268
-6.72839
-6.73033
-6.73269
-6.73549
-6.73875
-6.74251
-6.7468
-6.75163
-6.75704
-6.76305
-6.76969
-6.77699
-6.78497
-6.79365
-6.80307
-6.81325
-6.8242
-6.83596
-6.84855
-6.86199
-6.87629
-6.89148
-6.90755
-6.92456
-6.94258
-6.96154
-6.98127
-7.00173
-7.02319
-7.04598
-7.06995
-7.09447
-7.11958
-7.14579
-7.17277
-7.20032
-7.2284
-7.25692
-7.28583
-7.31509
-7.34463
-7.37441
-7.40436
-7.43443
-7.46453
-7.49459
-7.52452
-7.55423
-7.58363
-7.6126
-7.64104
-7.66883
-7.69584
-7.72194
-7.747
-7.77087
-7.79342
-7.81447
-7.83387
-7.85147
-7.86708
-7.88054
-7.89167
-7.90029
-7.90622
-7.90927
-7.90926
-7.90599
-7.89929
-7.88897
-7.87483
-7.8567
-7.83439
-7.80772
-7.77652
-7.7406
-7.69981
-7.65397
-7.60293
-7.54653
-7.48463
-7.41707
-7.34373
-7.26446
-7.17915
-7.08767
-6.9899
-6.88575
-6.77511
-6.65784
-6.53397
-6.40345
-6.26627
-6.12236
-5.97171
-5.81429
-5.65011
-5.47919
-5.30155
-5.11725
-4.92635
-4.72893
-4.52509
-4.31494
-4.09862
-3.87625
-3.64801
-3.41406
-3.17459
-2.92981
-2.67994
-2.42518
-2.1658
-1.90204
-1.63416
-1.36244
-1.08715
-0.808584
-0.527041
-0.24282
0.0437703
0.332418
0.622808
0.914624
1.20755
1.50126
1.79545
2.0898
2.384
2.67774
2.97073
3.26266
3.55325
3.84222
4.12931
4.41424
4.69677
4.97666
5.25367
5.52759
5.79822
6.06536
6.32883
6.58846
6.84409
7.09557
7.34279
7.58561
7.82392
8.05763
8.28664
8.5109
8.73033
8.94488
9.15447
9.35903
9.5585
9.75287
9.94211
10.1261
10.305
10.4786
10.647
10.8103
10.9686
11.1223
11.2717
11.4183
11.5616
11.7127
11.8376
-6.70773
-6.71089
-6.71474
-6.71797
-6.72027
-6.72199
-6.72346
-6.7249
-6.72647
-6.72828
-6.7304
-6.7329
-6.73582
-6.73919
-6.74305
-6.74743
-6.75235
-6.75783
-6.76392
-6.77064
-6.778
-6.78605
-6.7948
-6.80428
-6.81452
-6.82554
-6.83737
-6.85002
-6.86352
-6.87789
-6.89313
-6.90926
-6.92631
-6.94431
-6.9632
-6.98294
-7.00355
-7.02507
-7.04756
-7.07098
-7.09521
-7.12026
-7.14614
-7.17269
-7.19981
-7.22744
-7.25553
-7.28403
-7.3129
-7.34208
-7.37151
-7.40114
-7.4309
-7.46071
-7.4905
-7.52019
-7.54967
-7.57886
-7.60766
-7.63594
-7.66359
-7.6905
-7.71653
-7.74154
-7.76539
-7.78793
-7.80902
-7.82848
-7.84616
-7.86189
-7.8755
-7.8868
-7.89562
-7.90178
-7.90509
-7.90537
-7.90242
-7.89607
-7.88612
-7.87239
-7.85469
-7.83284
-7.80667
-7.77598
-7.74062
-7.7004
-7.65517
-7.60477
-7.54903
-7.48781
-7.42097
-7.34837
-7.26987
-7.18534
-7.09467
-6.99774
-6.89444
-6.7847
-6.66841
-6.54552
-6.41601
-6.27983
-6.13693
-5.98728
-5.83088
-5.66773
-5.49783
-5.32123
-5.13796
-4.94809
-4.75171
-4.5489
-4.33978
-4.12447
-3.90311
-3.67587
-3.44292
-3.20443
-2.96061
-2.71167
-2.45784
-2.19936
-1.93648
-1.66946
-1.39856
-1.12407
-0.846281
-0.565478
-0.281966
0.00394976
0.291957
0.581743
0.87299
1.16538
1.45861
1.75234
2.04628
2.3401
2.63351
2.9262
3.21788
3.50826
3.79706
4.08401
4.36885
4.65132
4.93119
5.20822
5.4822
5.75291
6.02017
6.28379
6.54361
6.79945
7.05118
7.29865
7.54175
7.78037
8.01442
8.24379
8.46842
8.68823
8.90314
9.1131
9.318
9.51779
9.71246
9.90201
10.0864
10.2656
10.4396
10.6084
10.7721
10.9309
11.085
11.2347
11.3813
11.5234
11.6716
11.7848
-6.70233
-6.7063
-6.71129
-6.71555
-6.7187
-6.72112
-6.72318
-6.72511
-6.7271
-6.72926
-6.7317
-6.73447
-6.73764
-6.74125
-6.74533
-6.74992
-6.75504
-6.76073
-6.76702
-6.77392
-6.78148
-6.78972
-6.79867
-6.80835
-6.81878
-6.83
-6.84202
-6.85487
-6.86856
-6.88311
-6.89852
-6.91481
-6.93199
-6.95006
-6.96899
-6.98878
-7.00942
-7.03092
-7.05327
-7.07643
-7.10037
-7.12508
-7.15053
-7.17664
-7.20335
-7.2306
-7.25833
-7.2865
-7.31506
-7.34395
-7.37312
-7.40251
-7.43204
-7.46165
-7.49126
-7.52079
-7.55013
-7.57921
-7.6079
-7.63611
-7.66371
-7.69058
-7.7166
-7.74161
-7.7655
-7.78809
-7.80925
-7.8288
-7.84659
-7.86245
-7.87621
-7.88768
-7.89668
-7.90304
-7.90658
-7.90709
-7.9044
-7.89832
-7.88866
-7.87524
-7.85787
-7.83636
-7.81054
-7.78023
-7.74526
-7.70546
-7.66065
-7.61069
-7.55542
-7.49469
-7.42835
-7.35626
-7.2783
-7.19433
-7.10423
-7.0079
-6.90522
-6.79612
-6.6805
-6.55831
-6.42948
-6.29398
-6.15176
-6.00279
-5.84708
-5.6846
-5.51539
-5.33947
-5.15688
-4.9677
-4.772
-4.56987
-4.36142
-4.14679
-3.9261
-3.69953
-3.46722
-3.22938
-2.9862
-2.73789
-2.48468
-2.22681
-1.96451
-1.69806
-1.42773
-1.15378
-0.876514
-0.596216
-0.313188
-0.0277367
0.259828
0.549194
0.840045
1.13206
1.42494
1.71835
2.01199
2.30554
2.59871
2.89118
3.18266
3.47288
3.76154
4.04837
4.33313
4.61554
4.89537
5.1724
5.44639
5.71715
5.98447
6.24818
6.5081
6.76407
7.01594
7.26359
7.50688
7.74572
7.97998
8.20959
8.43445
8.6545
8.86966
9.07984
9.28496
9.48496
9.67985
9.86961
10.0542
10.2336
10.4079
10.5769
10.7409
10.8999
11.0541
11.2037
11.3497
11.4901
11.6351
11.7379
-6.69874
-6.70332
-6.70919
-6.71431
-6.71821
-6.72129
-6.72393
-6.72638
-6.72883
-6.7314
-6.73421
-6.73732
-6.74082
-6.74473
-6.7491
-6.75397
-6.75938
-6.76534
-6.77189
-6.77907
-6.78689
-6.79539
-6.80458
-6.81451
-6.82519
-6.83664
-6.84888
-6.86194
-6.87583
-6.89055
-6.90611
-6.92253
-6.9398
-6.95792
-6.97688
-6.99666
-7.01727
-7.03869
-7.06092
-7.08393
-7.10768
-7.13215
-7.15732
-7.18313
-7.20955
-7.23652
-7.264
-7.29193
-7.32028
-7.34898
-7.37797
-7.40721
-7.43661
-7.46611
-7.49563
-7.52508
-7.55437
-7.58341
-7.61209
-7.6403
-7.66792
-7.69483
-7.7209
-7.74598
-7.76994
-7.79263
-7.8139
-7.83357
-7.8515
-7.8675
-7.8814
-7.89303
-7.90221
-7.90875
-7.91247
-7.91318
-7.91069
-7.90482
-7.89538
-7.88218
-7.86504
-7.84377
-7.8182
-7.78814
-7.75344
-7.7139
-7.66938
-7.61972
-7.56475
-7.50433
-7.43832
-7.36657
-7.28896
-7.20535
-7.11564
-7.0197
-6.91743
-6.80875
-6.69357
-6.57182
-6.44342
-6.30835
-6.16656
-6.01802
-5.86272
-5.70067
-5.53188
-5.35638
-5.17422
-4.98546
-4.79018
-4.58847
-4.38045
-4.16624
-3.94597
-3.71981
-3.48793
-3.2505
-3.00773
-2.75983
-2.50702
-2.24954
-1.98763
-1.72156
-1.4516
-1.17802
-0.90111
-0.621158
-0.338466
-0.0533381
0.233915
0.52298
0.813544
1.10529
1.39791
1.69107
1.98448
2.27783
2.57079
2.86308
3.1544
3.44447
3.73301
4.01973
4.30439
4.58673
4.8665
5.14349
5.41746
5.68821
5.95554
6.21928
6.47924
6.73527
6.98723
7.23497
7.47837
7.71733
7.95172
8.18147
8.40648
8.62667
8.84197
9.0523
9.25756
9.45772
9.65276
9.84266
10.0274
10.207
10.3814
10.5506
10.7147
10.8737
11.0278
11.1771
11.3222
11.4606
11.6028
11.6963
-6.69741
-6.7024
-6.70887
-6.71463
-6.71914
-6.72277
-6.72593
-6.72887
-6.73175
-6.73473
-6.73792
-6.7414
-6.74523
-6.74947
-6.75416
-6.75933
-6.76504
-6.7713
-6.77814
-6.78559
-6.79369
-6.80246
-6.81192
-6.82209
-6.83301
-6.84469
-6.85714
-6.87039
-6.88444
-6.8993
-6.91499
-6.9315
-6.94883
-6.96698
-6.98595
-7.00572
-7.02628
-7.04764
-7.06976
-7.09264
-7.11626
-7.14057
-7.16556
-7.1912
-7.21744
-7.24424
-7.27157
-7.29937
-7.3276
-7.3562
-7.38512
-7.41429
-7.44365
-7.47313
-7.50265
-7.53211
-7.56143
-7.59052
-7.61925
-7.64754
-7.67524
-7.70225
-7.72842
-7.75362
-7.7777
-7.80052
-7.82192
-7.84174
-7.85981
-7.87595
-7.89001
-7.90179
-7.91112
-7.91781
-7.92167
-7.92253
-7.92019
-7.91447
-7.90517
-7.89212
-7.87512
-7.854
-7.82858
-7.79867
-7.76411
-7.72473
-7.68036
-7.63086
-7.57605
-7.51581
-7.44997
-7.37841
-7.301
-7.2176
-7.1281
-7.03238
-6.93035
-6.82191
-6.70697
-6.58545
-6.45728
-6.32244
-6.18087
-6.03255
-5.87747
-5.71564
-5.54706
-5.37178
-5.18984
-5.0013
-4.80625
-4.60477
-4.39697
-4.18299
-3.96296
-3.73704
-3.5054
-3.26821
-3.02568
-2.77802
-2.52545
-2.26821
-2.00655
-1.74072
-1.471
-1.19766
-0.920991
-0.641274
-0.358812
-0.0739123
0.213117
0.501964
0.792314
1.08385
1.37627
1.66924
1.96247
2.25563
2.54843
2.84056
3.13173
3.42166
3.71007
3.99667
4.28122
4.56346
4.84315
5.12006
5.39397
5.66468
5.93198
6.19569
6.45565
6.71169
6.96366
7.21144
7.45488
7.69388
7.92834
8.15816
8.38324
8.60352
8.8189
9.0293
9.23466
9.43492
9.63006
9.82007
10.0049
10.1846
10.3591
10.5283
10.6924
10.8514
11.0052
11.1539
11.298
11.4344
11.5738
11.6594
-6.69852
-6.70372
-6.71053
-6.71669
-6.72162
-6.72569
-6.72927
-6.73261
-6.73588
-6.73922
-6.74275
-6.74656
-6.7507
-6.75524
-6.76023
-6.76569
-6.77167
-6.7782
-6.78531
-6.79302
-6.80137
-6.81037
-6.82006
-6.83045
-6.84157
-6.85343
-6.86605
-6.87944
-6.89362
-6.90859
-6.92436
-6.94094
-6.95831
-6.97648
-6.99545
-7.01521
-7.03574
-7.05705
-7.07912
-7.10192
-7.12545
-7.14968
-7.17458
-7.20013
-7.22628
-7.25302
-7.28028
-7.30804
-7.33624
-7.36484
-7.39377
-7.42297
-7.45237
-7.48191
-7.5115
-7.54105
-7.57047
-7.59967
-7.62853
-7.65694
-7.68478
-7.71193
-7.73825
-7.7636
-7.78783
-7.8108
-7.83235
-7.85231
-7.87052
-7.8868
-7.90099
-7.91289
-7.92234
-7.92914
-7.93311
-7.93406
-7.93181
-7.92617
-7.91695
-7.90396
-7.88702
-7.86595
-7.84058
-7.81072
-7.7762
-7.73686
-7.69254
-7.64308
-7.58832
-7.52812
-7.46234
-7.39084
-7.31349
-7.23017
-7.14074
-7.04511
-6.94316
-6.8348
-6.71993
-6.59848
-6.47039
-6.3356
-6.19409
-6.04583
-5.89081
-5.72903
-5.56052
-5.3853
-5.20342
-5.01495
-4.81997
-4.61857
-4.41087
-4.19698
-3.97705
-3.75123
-3.5197
-3.28262
-3.04022
-2.79268
-2.54025
-2.28315
-2.02163
-1.75595
-1.48638
-1.2132
-0.936686
-0.657132
-0.374835
-0.0901012
0.19676
0.485438
0.775619
1.06699
1.35923
1.65204
1.9451
2.2381
2.53074
2.82272
3.11374
3.40352
3.69178
3.97825
4.26267
4.54479
4.82437
5.10118
5.37499
5.64561
5.91284
6.17649
6.43639
6.69238
6.94432
7.19207
7.4355
7.6745
7.90896
8.13879
8.3639
8.58419
8.79961
9.01005
9.21546
9.41577
9.61097
9.80104
9.98594
10.1657
10.3401
10.5094
10.6734
10.8322
10.9857
11.1337
11.2765
11.4109
11.548
11.6267
-6.70201
-6.70722
-6.71411
-6.72045
-6.72563
-6.73
-6.73388
-6.73752
-6.74109
-6.74472
-6.74853
-6.7526
-6.757
-6.76178
-6.767
-6.7727
-6.7789
-6.78564
-6.79296
-6.80087
-6.8094
-6.81859
-6.82844
-6.83899
-6.85026
-6.86225
-6.87498
-6.88848
-6.90274
-6.91778
-6.93361
-6.95022
-6.96762
-6.98581
-7.00478
-7.02453
-7.04506
-7.06635
-7.08839
-7.11117
-7.13468
-7.15889
-7.18377
-7.20931
-7.23547
-7.26222
-7.28951
-7.31731
-7.34557
-7.37424
-7.40325
-7.43256
-7.46208
-7.49174
-7.52147
-7.55117
-7.58074
-7.6101
-7.63912
-7.6677
-7.69571
-7.72303
-7.74951
-7.77502
-7.79941
-7.82253
-7.84422
-7.86431
-7.88263
-7.89903
-7.91331
-7.92529
-7.93481
-7.94166
-7.94568
-7.94666
-7.94442
-7.93878
-7.92955
-7.91655
-7.89958
-7.87848
-7.85306
-7.82315
-7.78858
-7.74919
-7.7048
-7.65528
-7.60046
-7.54021
-7.47438
-7.40283
-7.32543
-7.24207
-7.15261
-7.05694
-6.95495
-6.84653
-6.7316
-6.61009
-6.48193
-6.34708
-6.2055
-6.05717
-5.90209
-5.74025
-5.57167
-5.3964
-5.21448
-5.02597
-4.83096
-4.62954
-4.42182
-4.20793
-3.98801
-3.76221
-3.5307
-3.29367
-3.0513
-2.80382
-2.55145
-2.29443
-2.033
-1.76741
-1.49794
-1.22487
-0.948476
-0.669048
-0.386883
-0.102289
0.184428
0.472956
0.762983
1.0542
1.34628
1.63892
1.9318
2.22463
2.5171
2.80891
3.09976
3.38937
3.67746
3.96377
4.24804
4.53001
4.80944
5.0861
5.35979
5.63028
5.89738
6.16092
6.42072
6.67662
6.92848
7.17615
7.41952
7.65847
7.89289
8.12268
8.34776
8.56804
8.78344
8.99389
9.19931
9.39965
9.59487
9.78496
9.96988
10.1496
10.3241
10.4933
10.6571
10.8156
10.9687
11.1159
11.2575
11.3898
11.5247
11.5976
-6.70762
-6.7127
-6.71946
-6.72577
-6.73104
-6.73554
-6.7396
-6.74344
-6.7472
-6.75102
-6.75501
-6.75926
-6.76383
-6.76878
-6.77415
-6.77999
-6.78633
-6.79321
-6.80065
-6.80868
-6.81733
-6.82663
-6.83658
-6.84722
-6.85856
-6.87063
-6.88343
-6.89698
-6.91129
-6.92637
-6.94222
-6.95886
-6.97627
-6.99448
-7.01346
-7.03323
-7.05377
-7.07507
-7.09714
-7.11995
-7.14348
-7.16773
-7.19267
-7.21827
-7.2445
-7.27133
-7.29873
-7.32664
-7.35502
-7.38383
-7.41299
-7.44246
-7.47214
-7.50198
-7.53189
-7.56177
-7.59153
-7.62107
-7.65028
-7.67903
-7.70722
-7.7347
-7.76133
-7.78699
-7.81151
-7.83474
-7.85653
-7.87671
-7.89511
-7.91155
-7.92586
-7.93787
-7.94738
-7.95421
-7.95819
-7.95912
-7.95681
-7.95109
-7.94176
-7.92865
-7.91157
-7.89034
-7.86478
-7.83473
-7.80002
-7.76047
-7.71594
-7.66627
-7.6113
-7.5509
-7.48493
-7.41324
-7.33572
-7.25223
-7.16264
-7.06683
-6.96468
-6.85611
-6.74101
-6.61933
-6.49101
-6.356
-6.21426
-6.06577
-5.91053
-5.74855
-5.57984
-5.40444
-5.2224
-5.03379
-4.83868
-4.63718
-4.42939
-4.21544
-3.99547
-3.76964
-3.53811
-3.30108
-3.05872
-2.81127
-2.55894
-2.30196
-2.04059
-1.77508
-1.5057
-1.23273
-0.956439
-0.677134
-0.395106
-0.110658
0.175904
0.464269
0.754127
1.04516
1.33706
1.62951
1.92221
2.21484
2.50711
2.79871
3.08936
3.37877
3.66666
3.95277
4.23684
4.51861
4.79785
5.07432
5.34782
5.61814
5.88508
6.14846
6.40811
6.66387
6.9156
7.16315
7.40641
7.64526
7.8796
8.10931
8.33433
8.55455
8.76991
8.98032
9.18571
9.38605
9.58127
9.77136
9.95627
10.136
10.3104
10.4795
10.6431
10.8013
10.9538
11.1002
11.2405
11.3709
11.5037
11.5717
-6.71503
-6.71985
-6.7263
-6.73241
-6.73761
-6.74211
-6.74622
-6.75011
-6.75395
-6.75785
-6.76192
-6.76624
-6.77087
-6.77588
-6.78131
-6.7872
-6.79358
-6.8005
-6.80798
-6.81605
-6.82474
-6.83406
-6.84404
-6.85471
-6.86607
-6.87815
-6.89097
-6.90453
-6.91885
-6.93395
-6.94981
-6.96646
-6.9839
-7.00212
-7.02113
-7.04093
-7.06151
-7.08287
-7.10499
-7.12787
-7.15149
-7.17583
-7.20087
-7.22659
-7.25295
-7.27992
-7.30747
-7.33554
-7.36409
-7.39308
-7.42243
-7.45208
-7.48195
-7.51198
-7.54208
-7.57215
-7.60209
-7.6318
-7.66117
-7.69008
-7.7184
-7.746
-7.77274
-7.79849
-7.82308
-7.84636
-7.86818
-7.88836
-7.90675
-7.92316
-7.93741
-7.94934
-7.95876
-7.96548
-7.96932
-7.9701
-7.96763
-7.96172
-7.95221
-7.93889
-7.9216
-7.90015
-7.87437
-7.84409
-7.80915
-7.76938
-7.72463
-7.67473
-7.61955
-7.55894
-7.49275
-7.42087
-7.34315
-7.25946
-7.16965
-7.07361
-6.97122
-6.86241
-6.74708
-6.62516
-6.4966
-6.36136
-6.21941
-6.07071
-5.91527
-5.75309
-5.5842
-5.40864
-5.22645
-5.0377
-4.84247
-4.64086
-4.43298
-4.21896
-3.99893
-3.77306
-3.54151
-3.30447
-3.06213
-2.81471
-2.56243
-2.30552
-2.04423
-1.77881
-1.50954
-1.23669
-0.960537
-0.681382
-0.39952
-0.115248
0.171127
0.459295
0.748946
1.03977
1.33144
1.62366
1.91612
2.2085
2.50052
2.79188
3.08227
3.37142
3.65906
3.94491
4.22872
4.51024
4.78924
5.06547
5.33874
5.60883
5.87555
6.13872
6.39817
6.65374
6.90529
7.15268
7.39578
7.63449
7.8687
8.0983
8.32321
8.54334
8.75862
8.96897
9.17432
9.37462
9.56982
9.75988
9.94475
10.1244
10.2987
10.4676
10.6311
10.7889
10.9408
11.0862
11.2253
11.3539
11.4848
11.5487
-6.72384
-6.72831
-6.73433
-6.74011
-6.74509
-6.74946
-6.75347
-6.75729
-6.76108
-6.76493
-6.76894
-6.77321
-6.77779
-6.78275
-6.78812
-6.79395
-6.80029
-6.80715
-6.81458
-6.8226
-6.83124
-6.84052
-6.85046
-6.86109
-6.87242
-6.88448
-6.89727
-6.91082
-6.92513
-6.94021
-6.95608
-6.97274
-6.9902
-7.00845
-7.02751
-7.04736
-7.06801
-7.08944
-7.11165
-7.13464
-7.15837
-7.18284
-7.20802
-7.23388
-7.2604
-7.28754
-7.31526
-7.34351
-7.37224
-7.40141
-7.43093
-7.46076
-7.49081
-7.521
-7.55125
-7.58145
-7.61152
-7.64134
-7.67081
-7.69979
-7.72816
-7.7558
-7.78255
-7.80828
-7.83284
-7.85606
-7.8778
-7.89788
-7.91613
-7.93239
-7.94647
-7.95821
-7.96741
-7.9739
-7.9775
-7.97802
-7.97528
-7.96909
-7.95929
-7.94568
-7.92809
-7.90635
-7.88027
-7.8497
-7.81447
-7.77441
-7.72938
-7.67921
-7.62377
-7.5629
-7.49648
-7.42436
-7.34639
-7.26243
-7.17233
-7.07599
-6.97332
-6.86421
-6.7486
-6.62641
-6.49759
-6.36209
-6.21989
-6.07097
-5.91532
-5.75295
-5.58389
-5.40816
-5.22583
-5.03696
-4.84162
-4.63993
-4.43198
-4.21791
-3.99786
-3.77198
-3.54044
-3.30343
-3.06114
-2.81379
-2.5616
-2.3048
-2.04363
-1.77836
-1.50924
-1.23657
-0.960607
-0.681659
-0.400019
-0.115983
0.170143
0.458051
0.74743
1.03797
1.32935
1.62127
1.91342
2.2055
2.4972
2.78823
3.0783
3.36713
3.65445
3.93998
4.22347
4.50468
4.78336
5.0593
5.33227
5.60207
5.86851
6.13142
6.39061
6.64594
6.89726
7.14444
7.38734
7.62587
7.8599
8.08935
8.31412
8.53414
8.74931
8.95957
9.16485
9.36509
9.56025
9.75026
9.93508
10.1146
10.2888
10.4576
10.6208
10.7781
10.9294
11.074
11.2118
11.3386
11.4677
11.5283
-6.73371
-6.73779
-6.7433
-6.74863
-6.75326
-6.75735
-6.76112
-6.76473
-6.76831
-6.77196
-6.77579
-6.77987
-6.78427
-6.78905
-6.79425
-6.79993
-6.8061
-6.81282
-6.82012
-6.82801
-6.83653
-6.8457
-6.85555
-6.86609
-6.87735
-6.88934
-6.90208
-6.91558
-6.92986
-6.94493
-6.96079
-6.97746
-6.99494
-7.01323
-7.03233
-7.05225
-7.07297
-7.0945
-7.11682
-7.13991
-7.16377
-7.18837
-7.21369
-7.2397
-7.26636
-7.29365
-7.32151
-7.3499
-7.37877
-7.40805
-7.4377
-7.46762
-7.49775
-7.52801
-7.55831
-7.58855
-7.61862
-7.64843
-7.67786
-7.70677
-7.73506
-7.76258
-7.7892
-7.81477
-7.83914
-7.86215
-7.88365
-7.90348
-7.92146
-7.93742
-7.9512
-7.96261
-7.97147
-7.97762
-7.98085
-7.98101
-7.9779
-7.97135
-7.96117
-7.94719
-7.92924
-7.90715
-7.88073
-7.84983
-7.81427
-7.77391
-7.72858
-7.67813
-7.62242
-7.5613
-7.49464
-7.42225
-7.34398
-7.2597
-7.16928
-7.07264
-6.96966
-6.86026
-6.74437
-6.62191
-6.49284
-6.35711
-6.21469
-6.06557
-5.90974
-5.74721
-5.578
-5.40216
-5.21973
-5.03078
-4.83539
-4.63366
-4.42571
-4.21165
-3.99163
-3.76581
-3.53435
-3.29744
-3.05528
-2.80807
-2.55605
-2.29943
-2.03847
-1.77342
-1.50455
-1.23214
-0.956455
-0.6778
-0.396468
-0.112755
0.173034
0.460593
0.749611
1.03978
1.33078
1.62232
1.91408
2.20576
2.49706
2.78768
3.07735
3.36578
3.65269
3.93782
4.22092
4.50173
4.78004
5.0556
5.3282
5.59765
5.86376
6.12633
6.38522
6.64025
6.89129
7.1382
7.38086
7.61916
7.85299
8.08225
8.30685
8.52671
8.74176
8.95191
9.1571
9.35727
9.55236
9.74232
9.92707
10.1065
10.2806
10.4492
10.612
10.7689
10.9196
11.0632
11.1998
11.325
11.4523
11.5104
-6.74437
-6.74804
-6.75299
-6.75779
-6.76195
-6.76562
-6.76898
-6.7722
-6.7754
-6.77869
-6.78217
-6.78591
-6.78999
-6.79447
-6.79939
-6.80479
-6.81072
-6.81721
-6.82429
-6.83198
-6.84033
-6.84934
-6.85904
-6.86945
-6.88059
-6.89249
-6.90515
-6.91858
-6.93282
-6.94785
-6.96369
-6.98036
-6.99785
-7.01616
-7.0353
-7.05527
-7.07605
-7.09764
-7.12004
-7.14321
-7.16715
-7.19183
-7.21722
-7.2433
-7.27002
-7.29736
-7.32525
-7.35366
-7.38253
-7.4118
-7.44141
-7.47127
-7.50132
-7.53147
-7.56163
-7.59171
-7.6216
-7.6512
-7.68039
-7.70905
-7.73706
-7.76428
-7.79057
-7.81579
-7.8398
-7.86244
-7.88355
-7.90297
-7.92053
-7.93606
-7.9494
-7.96037
-7.96879
-7.97448
-7.97728
-7.97699
-7.97344
-7.96647
-7.95588
-7.9415
-7.92316
-7.9007
-7.87393
-7.84269
-7.80683
-7.76618
-7.72058
-7.66989
-7.61395
-7.5526
-7.48567
-7.41298
-7.33438
-7.24978
-7.15907
-7.06213
-6.95888
-6.84923
-6.7331
-6.61043
-6.48116
-6.34525
-6.20268
-6.05343
-5.8975
-5.73488
-5.56562
-5.38974
-5.2073
-5.01836
-4.82302
-4.62135
-4.41349
-4.19954
-3.97966
-3.754
-3.52273
-3.28603
-3.0441
-2.79715
-2.5454
-2.28908
-2.02844
-1.76373
-1.49522
-1.22318
-0.947888
-0.669641
-0.38873
-0.105453
0.179887
0.466986
0.755533
1.04522
1.33574
1.62678
1.91804
2.20922
2.50002
2.79014
3.07931
3.36723
3.65365
3.9383
4.22091
4.50126
4.7791
5.05421
5.32638
5.5954
5.8611
6.12329
6.3818
6.63648
6.88718
7.13378
7.37615
7.61418
7.84777
8.07681
8.30121
8.5209
8.7358
8.94582
9.15091
9.351
9.54602
9.7359
9.92058
10.0999
10.2739
10.4422
10.6048
10.7612
10.9112
11.054
11.1893
11.3131
11.4385
11.4947
-6.75608
-6.75936
-6.76374
-6.76792
-6.77146
-6.77449
-6.77723
-6.77982
-6.78241
-6.78512
-6.78805
-6.79127
-6.79487
-6.7989
-6.8034
-6.80842
-6.814
-6.82016
-6.82695
-6.83437
-6.84247
-6.85126
-6.86076
-6.87099
-6.88197
-6.89371
-6.90624
-6.91957
-6.9337
-6.94865
-6.96442
-6.98102
-6.99846
-7.01672
-7.03582
-7.05574
-7.07649
-7.09803
-7.12037
-7.14349
-7.16736
-7.19195
-7.21725
-7.2432
-7.26979
-7.29696
-7.32467
-7.35287
-7.38151
-7.41051
-7.43983
-7.46938
-7.49908
-7.52887
-7.55864
-7.5883
-7.61776
-7.64691
-7.67563
-7.7038
-7.73131
-7.75801
-7.78377
-7.80846
-7.83193
-7.85402
-7.87457
-7.89344
-7.91045
-7.92544
-7.93823
-7.94866
-7.95656
-7.96174
-7.96403
-7.96327
-7.95926
-7.95184
-7.94083
-7.92606
-7.90736
-7.88456
-7.85748
-7.82597
-7.78986
-7.749
-7.70322
-7.65236
-7.59624
-7.53465
-7.46743
-7.39445
-7.31559
-7.23074
-7.13979
-7.04265
-6.93921
-6.8294
-6.71313
-6.59034
-6.46098
-6.32501
-6.1824
-6.03314
-5.87721
-5.71464
-5.54545
-5.36967
-5.18735
-4.99857
-4.8034
-4.60194
-4.39431
-4.18062
-3.96103
-3.73568
-3.50474
-3.26841
-3.02686
-2.78032
-2.529
-2.27314
-2.01297
-1.74875
-1.48075
-1.20923
-0.93449
-0.656802
-0.376463
-0.0937709
0.190974
0.477466