/*--------------------------------*- C++ -*----------------------------------*\
  =========                 |
  \\      /  F ield         | OpenFOAM: The Open Source CFD Toolbox
   \\    /   O peration     | Website:  https://openfoam.org
    \\  /    A nd           | Version:  12
     \\/     M anipulation  |
\*---------------------------------------------------------------------------*/
FoamFile
{
    format      ascii;
    class       surfaceScalarField;
    location    "0.17";
    object      phi;
}
// * * * * * * * * * * * * * * * * * * * * * * * * * * * * * * * * * * * * * //

dimensions      [0 3 -1 0 0 0 0];

internalField   nonuniform List<scalar> 
24170
(
3.1336e-06
5.48075e-08
3.04827e-06
8.53296e-08
2.97314e-06
7.51287e-08
2.9043e-06
6.88428e-08
2.83946e-06
6.48382e-08
2.78223e-06
5.72326e-08
2.73331e-06
4.89132e-08
2.69177e-06
4.15405e-08
2.65631e-06
3.54588e-08
2.62577e-06
3.05456e-08
2.59917e-06
2.66018e-08
2.5757e-06
2.34641e-08
2.55469e-06
2.10145e-08
2.53545e-06
1.92419e-08
2.51733e-06
1.81177e-08
2.49853e-06
1.87937e-08
2.47779e-06
2.07451e-08
3.82628e-08
2.43953e-06
3.45361e-06
1.84456e-08
3.45616e-06
8.27772e-08
3.44962e-06
8.16754e-08
3.43799e-06
8.04673e-08
3.4235e-06
7.9331e-08
3.40595e-06
7.47795e-08
3.38632e-06
6.85504e-08
3.3654e-06
6.2454e-08
3.34398e-06
5.68779e-08
3.32266e-06
5.18645e-08
3.30184e-06
4.74224e-08
3.28175e-06
4.3562e-08
3.26248e-06
4.02773e-08
3.24404e-06
3.76815e-08
3.22647e-06
3.56892e-08
3.20961e-06
3.56589e-08
3.19435e-06
3.60011e-08
4.64331e-08
3.18618e-06
3.66535e-06
1.56094e-08
3.67825e-06
6.98795e-08
3.68531e-06
7.46168e-08
3.68959e-06
7.6189e-08
3.69126e-06
7.76622e-08
3.69012e-06
7.59177e-08
3.68666e-06
7.201e-08
3.68145e-06
6.76594e-08
3.67493e-06
6.3403e-08
3.66743e-06
5.93602e-08
3.65925e-06
5.5608e-08
3.65058e-06
5.2226e-08
3.64159e-06
4.92704e-08
3.63238e-06
4.68941e-08
3.62294e-06
4.51241e-08
3.61372e-06
4.48811e-08
3.60437e-06
4.53551e-08
5.014e-08
3.60066e-06
3.92465e-06
1.63495e-08
3.9358e-06
5.87295e-08
3.94254e-06
6.78758e-08
3.94801e-06
7.07169e-08
3.95242e-06
7.32556e-08
3.95533e-06
7.30042e-08
3.95688e-06
7.04654e-08
3.95735e-06
6.7187e-08
3.95694e-06
6.38147e-08
3.95579e-06
6.05083e-08
3.95403e-06
5.73622e-08
3.95178e-06
5.44784e-08
3.94911e-06
5.19414e-08
3.94611e-06
4.98979e-08
3.9428e-06
4.84285e-08
3.93964e-06
4.80467e-08
3.93661e-06
4.8378e-08
5.03973e-08
3.93636e-06
4.20777e-06
1.57098e-08
4.216e-06
5.04994e-08
4.22166e-06
6.22147e-08
4.22659e-06
6.57888e-08
4.23128e-06
6.85619e-08
4.23523e-06
6.9054e-08
4.23832e-06
6.73781e-08
4.24068e-06
6.48273e-08
4.24242e-06
6.20726e-08
4.24363e-06
5.92987e-08
4.24438e-06
5.66074e-08
4.24475e-06
5.41091e-08
4.24479e-06
5.18998e-08
4.24459e-06
5.0104e-08
4.24421e-06
4.88032e-08
4.24401e-06
4.82484e-08
4.24417e-06
4.82177e-08
4.87567e-08
4.24581e-06
4.51044e-06
1.43578e-08
4.51686e-06
4.40788e-08
4.52217e-06
5.69064e-08
4.52682e-06
6.11335e-08
4.53143e-06
6.39541e-08
4.53562e-06
6.48698e-08
4.53919e-06
6.38024e-08
4.54223e-06
6.17933e-08
4.5448e-06
5.94996e-08
4.54697e-06
5.71296e-08
4.54878e-06
5.47907e-08
4.5503e-06
5.25939e-08
4.55156e-06
5.06343e-08
4.55266e-06
4.90099e-08
4.55368e-06
4.77794e-08
4.55489e-06
4.70389e-08
4.5565e-06
4.66089e-08
4.62528e-08
4.559e-06
4.83412e-06
1.29575e-08
4.83958e-06
3.86215e-08
4.84483e-06
5.16576e-08
4.84941e-06
5.65475e-08
4.85392e-06
5.945e-08
4.85814e-06
6.06481e-08
4.86189e-06
6.00458e-08
4.86522e-06
5.8469e-08
4.86818e-06
5.65418e-08
4.87081e-06
5.44944e-08
4.87316e-06
5.24396e-08
4.87527e-06
5.04836e-08
4.87719e-06
4.87144e-08
4.879e-06
4.72042e-08
4.88079e-06
4.59846e-08
4.88277e-06
4.50658e-08
4.88509e-06
4.42861e-08
4.3378e-08
4.88796e-06
5.1809e-06
1.16384e-08
5.1857e-06
3.38187e-08
5.19083e-06
4.65265e-08
5.19541e-06
5.1973e-08
5.19987e-06
5.49922e-08
5.20412e-06
5.63953e-08
5.20799e-06
5.61711e-08
5.2115e-06
5.49646e-08
5.21469e-06
5.33503e-08
5.21761e-06
5.15759e-08
5.22029e-06
4.97598e-08
5.22277e-06
4.80015e-08
5.22511e-06
4.63789e-08
5.22737e-06
4.49436e-08
5.22965e-06
4.37048e-08
5.23208e-06
4.26309e-08
5.23479e-06
4.15813e-08
4.0339e-08
5.23782e-06
5.5526e-06
1.03759e-08
5.55685e-06
2.95709e-08
5.56176e-06
4.16123e-08
5.56632e-06
4.74105e-08
5.57078e-06
5.05415e-08
5.57508e-06
5.20949e-08
5.57906e-06
5.21834e-08
5.58272e-06
5.13057e-08
5.5861e-06
4.99721e-08
5.58924e-06
4.84396e-08
5.59216e-06
4.68319e-08
5.59492e-06
4.52416e-08
5.59757e-06
4.37367e-08
5.60016e-06
4.23535e-08
5.60277e-06
4.10876e-08
5.60551e-06
3.98932e-08
5.60844e-06
3.86558e-08
3.72243e-08
5.61155e-06
5.95099e-06
9.16677e-09
5.95476e-06
2.5801e-08
5.95941e-06
3.69601e-08
5.96394e-06
4.28808e-08
5.96839e-06
4.60903e-08
5.97273e-06
4.77481e-08
5.97683e-06
4.80876e-08
5.98064e-06
4.74987e-08
5.98419e-06
4.64197e-08
5.98752e-06
4.51062e-08
5.99067e-06
4.36857e-08
5.99367e-06
4.22439e-08
5.99656e-06
4.08398e-08
5.99942e-06
3.95003e-08
6.00229e-06
3.82157e-08
6.00524e-06
3.69414e-08
6.00831e-06
3.55913e-08
3.40719e-08
6.01146e-06
6.37795e-06
8.02447e-09
6.38132e-06
2.24314e-08
6.38571e-06
3.25787e-08
6.39018e-06
3.84086e-08
6.39462e-06
4.16442e-08
6.39901e-06
4.33648e-08
6.4032e-06
4.38933e-08
6.40715e-06
4.3549e-08
6.41087e-06
4.26981e-08
6.4144e-06
4.15833e-08
6.41775e-06
4.03329e-08
6.42097e-06
3.90264e-08
6.42409e-06
3.77155e-08
6.42717e-06
3.64223e-08
6.43025e-06
3.51375e-08
6.43336e-06
3.38262e-08
6.43652e-06
3.2428e-08
3.08938e-08
6.4397e-06
5.74175e-06
7.11052e-09
5.74433e-06
1.98486e-08
5.74783e-06
2.90822e-08
5.75155e-06
3.46873e-08
5.7553e-06
3.78941e-08
5.75902e-06
3.96392e-08
5.76264e-06
4.02815e-08
5.76608e-06
4.01062e-08
5.76935e-06
3.94258e-08
5.77247e-06
3.8464e-08
5.77546e-06
3.7346e-08
5.77834e-06
3.61469e-08
5.78114e-06
3.49138e-08
5.78389e-06
3.36669e-08
5.78663e-06
3.24006e-08
5.78937e-06
3.10896e-08
5.7921e-06
2.96925e-08
2.81885e-08
5.79481e-06
6.99913e-06
6.13384e-09
7.00186e-06
1.7117e-08
7.00565e-06
2.52988e-08
7.00981e-06
3.05263e-08
7.01408e-06
3.36214e-08
7.01837e-06
3.53488e-08
7.02258e-06
3.60746e-08
7.02663e-06
3.6052e-08
7.03052e-06
3.55392e-08
7.03425e-06
3.47343e-08
7.03784e-06
3.37559e-08
7.04131e-06
3.26743e-08
7.04469e-06
3.15324e-08
7.04801e-06
3.03501e-08
7.05128e-06
2.91272e-08
7.05452e-06
2.785e-08
7.05772e-06
2.64945e-08
2.50619e-08
7.06085e-06
8.53188e-06
5.1036e-09
8.53473e-06
1.4263e-08
8.53877e-06
2.12552e-08
8.54337e-06
2.59316e-08
8.54819e-06
2.88028e-08
8.55309e-06
3.04494e-08
8.55795e-06
3.12112e-08
8.56269e-06
3.13096e-08
8.56728e-06
3.09504e-08
8.57172e-06
3.03003e-08
8.57601e-06
2.94668e-08
8.58017e-06
2.85142e-08
8.58422e-06
2.74817e-08
8.58818e-06
2.63902e-08
8.59206e-06
2.52455e-08
8.59586e-06
2.40446e-08
8.59958e-06
2.27782e-08
2.14617e-08
8.60318e-06
1.04003e-05
4.03031e-09
1.04033e-05
1.13038e-08
1.04075e-05
1.69698e-08
1.04126e-05
2.09087e-08
1.04179e-05
2.34159e-08
1.04235e-05
2.48948e-08
1.04291e-05
2.56269e-08
1.04346e-05
2.57983e-08
1.044e-05
2.55664e-08
1.04452e-05
2.50624e-08
1.04503e-05
2.43771e-08
1.04553e-05
2.35673e-08
1.04601e-05
2.26684e-08
1.04648e-05
2.17016e-08
1.04693e-05
2.06781e-08
1.04738e-05
1.96031e-08
1.04781e-05
1.84771e-08
1.73236e-08
1.04822e-05
1.26779e-05
2.91945e-09
1.2681e-05
8.23076e-09
1.26855e-05
1.24335e-08
1.2691e-05
1.54456e-08
1.2697e-05
1.74253e-08
1.27032e-05
1.86238e-08
1.27096e-05
1.9244e-08
1.2716e-05
1.94269e-08
1.27223e-05
1.9285e-08
1.27284e-05
1.89123e-08
1.27344e-05
1.8378e-08
1.27403e-05
1.7728e-08
1.27459e-05
1.69924e-08
1.27514e-05
1.61912e-08
1.27568e-05
1.53378e-08
1.27619e-05
1.4442e-08
1.27669e-05
1.35095e-08
1.25663e-08
1.27717e-05
1.54543e-05
1.75976e-09
1.54576e-05
4.99261e-09
1.54624e-05
7.57839e-09
1.54684e-05
9.47115e-09
1.54751e-05
1.07457e-08
1.54822e-05
1.15321e-08
1.54895e-05
1.1946e-08
1.54968e-05
1.20723e-08
1.55041e-05
1.19786e-08
1.55113e-05
1.17209e-08
1.55184e-05
1.13428e-08
1.55252e-05
1.08747e-08
1.55319e-05
1.03381e-08
1.55383e-05
9.74862e-09
1.55445e-05
9.11812e-09
1.55505e-05
8.45684e-09
1.55563e-05
7.77139e-09
7.08579e-09
1.55617e-05
1.88389e-05
5.09553e-10
1.88424e-05
1.45759e-09
1.88478e-05
2.21735e-09
1.88545e-05
2.7788e-09
1.88621e-05
3.16408e-09
1.88702e-05
3.40281e-09
1.88786e-05
3.51763e-09
1.88872e-05
3.52727e-09
1.88957e-05
3.44994e-09
1.89041e-05
3.30188e-09
1.89124e-05
3.09602e-09
1.89204e-05
2.84253e-09
1.89282e-05
2.54983e-09
1.89357e-05
2.22522e-09
1.89429e-05
1.87528e-09
1.89499e-05
1.50666e-09
1.89565e-05
1.12377e-09
7.45653e-10
1.89629e-05
2.29648e-05
-9.38487e-10
2.29689e-05
-2.67659e-09
2.29752e-05
-4.0879e-09
2.29831e-05
-5.12922e-09
2.29921e-05
-5.81702e-09
2.30018e-05
-6.23782e-09
2.30118e-05
-6.48484e-09
2.30219e-05
-6.61674e-09
2.3032e-05
-6.67031e-09
2.3042e-05
-6.67682e-09
2.30518e-05
-6.66153e-09
2.30612e-05
-6.64057e-09
2.30704e-05
-6.62279e-09
2.30793e-05
-6.61278e-09
2.30877e-05
-6.6126e-09
2.30959e-05
-6.62196e-09
2.31036e-05
-6.64074e-09
-6.65672e-09
2.3111e-05
1.68119e-05
-2.08468e-09
1.68151e-05
-5.91346e-09
1.682e-05
-9.01943e-09
1.68261e-05
-1.12581e-08
1.6833e-05
-1.26779e-08
1.68403e-05
-1.35129e-08
1.68478e-05
-1.39671e-08
1.68553e-05
-1.41485e-08
1.68628e-05
-1.41321e-08
1.68701e-05
-1.39886e-08
1.68772e-05
-1.37729e-08
1.68841e-05
-1.35193e-08
1.68907e-05
-1.32483e-08
1.6897e-05
-1.29732e-08
1.69031e-05
-1.27022e-08
1.6909e-05
-1.24393e-08
1.69145e-05
-1.21869e-08
-1.19369e-08
1.69198e-05
1.46357e-05
-3.19437e-09
1.46388e-05
-9.07508e-09
1.46437e-05
-1.38472e-08
1.46496e-05
-1.71448e-08
1.4656e-05
-1.91142e-08
1.46627e-05
-2.02297e-08
1.46695e-05
-2.07936e-08
1.46763e-05
-2.094e-08
1.4683e-05
-2.0789e-08
1.46895e-05
-2.04567e-08
1.46957e-05
-2.00223e-08
1.47017e-05
-1.95312e-08
1.47075e-05
-1.90123e-08
1.4713e-05
-1.84857e-08
1.47183e-05
-1.79641e-08
1.47233e-05
-1.74544e-08
1.4728e-05
-1.69603e-08
-1.64767e-08
1.47326e-05
1.27412e-05
-4.24344e-09
1.27444e-05
-1.22878e-08
1.27494e-05
-1.88082e-08
1.27552e-05
-2.29434e-08
1.27613e-05
-2.52334e-08
1.27676e-05
-2.65227e-08
1.27739e-05
-2.71157e-08
1.27801e-05
-2.71391e-08
1.27861e-05
-2.67846e-08
1.27918e-05
-2.62234e-08
1.27974e-05
-2.55507e-08
1.28027e-05
-2.48159e-08
1.28077e-05
-2.40534e-08
1.28125e-05
-2.32879e-08
1.28171e-05
-2.25343e-08
1.28214e-05
-2.18003e-08
1.28256e-05
-2.10897e-08
-2.03985e-08
1.28295e-05
1.10918e-05
-5.12138e-09
1.10951e-05
-1.56117e-08
1.11004e-05
-2.41064e-08
1.11062e-05
-2.87285e-08
1.11121e-05
-3.10786e-08
1.1118e-05
-3.24462e-08
1.11238e-05
-3.29793e-08
1.11295e-05
-3.27972e-08
1.11349e-05
-3.21915e-08
1.11401e-05
-3.13785e-08
1.1145e-05
-3.04555e-08
1.11496e-05
-2.94738e-08
1.1154e-05
-2.84729e-08
1.11582e-05
-2.74805e-08
1.11622e-05
-2.65116e-08
1.1166e-05
-2.55728e-08
1.11696e-05
-2.46675e-08
-2.3792e-08
1.1173e-05
9.65583e-06
-5.73598e-09
9.65935e-06
-1.91372e-08
9.66496e-06
-2.97095e-08
9.67064e-06
-3.44142e-08
9.67629e-06
-3.67204e-08
9.68192e-06
-3.80849e-08
9.68736e-06
-3.84168e-08
9.6925e-06
-3.79355e-08
9.69736e-06
-3.70486e-08
9.70196e-06
-3.59783e-08
9.70631e-06
-3.48047e-08
9.71041e-06
-3.3579e-08
9.71428e-06
-3.23462e-08
9.71794e-06
-3.11355e-08
9.72139e-06
-2.99613e-08
9.72465e-06
-2.88293e-08
9.72772e-06
-2.77408e-08
-2.6691e-08
9.73062e-06
8.40543e-06
-5.81643e-09
8.40981e-06
-2.35128e-08
8.41531e-06
-3.52139e-08
8.4205e-06
-3.96059e-08
8.42594e-06
-4.2152e-08
8.43141e-06
-4.35578e-08
8.43656e-06
-4.35688e-08
8.44132e-06
-4.26967e-08
8.44575e-06
-4.14777e-08
8.44988e-06
-4.01116e-08
8.45374e-06
-3.8656e-08
8.45732e-06
-3.71627e-08
8.46065e-06
-3.56796e-08
8.46375e-06
-3.42358e-08
8.46664e-06
-3.28448e-08
8.46932e-06
-3.15126e-08
8.47182e-06
-3.02399e-08
-2.90227e-08
8.47415e-06
7.31506e-06
-3.58964e-09
7.32194e-06
-3.03982e-08
7.32739e-06
-4.06644e-08
7.33216e-06
-4.43744e-08
7.33747e-06
-4.74644e-08
7.34285e-06
-4.89322e-08
7.34781e-06
-4.85307e-08
7.35229e-06
-4.71778e-08
7.35633e-06
-4.55208e-08
7.35996e-06
-4.37381e-08
7.36319e-06
-4.18888e-08
7.36607e-06
-4.0036e-08
7.36862e-06
-3.82295e-08
7.37088e-06
-3.64951e-08
7.37288e-06
-3.48446e-08
7.37465e-06
-3.32826e-08
7.37621e-06
-3.18061e-08
-3.04089e-08
7.3776e-06
6.36222e-06
4.25561e-09
6.37295e-06
-4.1123e-08
6.38007e-06
-4.77908e-08
6.38625e-06
-5.0554e-08
6.39222e-06
-5.34325e-08
6.39751e-06
-5.42183e-08
6.40186e-06
-5.28875e-08
6.40544e-06
-5.07523e-08
6.40834e-06
-4.84263e-08
6.41063e-06
-4.6022e-08
6.41234e-06
-4.3607e-08
6.41357e-06
-4.12591e-08
6.41436e-06
-3.90266e-08
6.4148e-06
-3.69293e-08
6.41493e-06
-3.49737e-08
6.41481e-06
-3.31611e-08
6.41448e-06
-3.1483e-08
-2.99191e-08
6.41399e-06
5.53608e-06
1.36403e-08
5.54775e-06
-5.27967e-08
5.55744e-06
-5.74768e-08
5.56601e-06
-5.91222e-08
5.57277e-06
-6.01982e-08
5.57719e-06
-5.86373e-08
5.57934e-06
-5.50318e-08
5.57977e-06
-5.11838e-08
5.57891e-06
-4.75679e-08
5.57704e-06
-4.41555e-08
5.57439e-06
-4.09543e-08
5.57113e-06
-3.80018e-08
5.56742e-06
-3.53117e-08
5.56336e-06
-3.28754e-08
5.55907e-06
-3.06788e-08
5.55463e-06
-2.87187e-08
5.55013e-06
-2.6986e-08
-2.54199e-08
5.54563e-06
4.85751e-06
-1.62602e-08
4.86091e-06
-5.6198e-08
4.8615e-06
-5.80693e-08
4.85883e-06
-5.64539e-08
4.85483e-06
-5.61905e-08
4.84813e-06
-5.1941e-08
4.83887e-06
-4.57773e-08
4.82762e-06
-3.99313e-08
4.81501e-06
-3.49569e-08
4.80163e-06
-3.07769e-08
4.78793e-06
-2.72554e-08
4.77422e-06
-2.42892e-08
4.7607e-06
-2.17876e-08
4.74749e-06
-1.96713e-08
4.73469e-06
-1.78774e-08
4.72237e-06
-1.63961e-08
4.71064e-06
-1.52538e-08
-1.49435e-08
4.70016e-06
4.18642e-06
4.13022e-06
4.07215e-06
4.01569e-06
3.9595e-06
3.90756e-06
3.86179e-06
3.82185e-06
3.7869e-06
3.75612e-06
3.72887e-06
3.70458e-06
3.68279e-06
3.66312e-06
3.64524e-06
3.62884e-06
3.61359e-06
3.59865e-06
1.12262e-08
-1.12262e-08
2.22212e-08
-1.0995e-08
2.8604e-08
-6.38285e-09
2.95267e-08
-9.22729e-10
2.53993e-08
4.12743e-09
1.71332e-08
8.26609e-09
5.73839e-09
1.13948e-08
-7.92894e-09
1.36673e-08
-2.32596e-08
1.53306e-08
-3.98591e-08
1.65996e-08
-5.74852e-08
1.76261e-08
-7.59953e-08
1.85101e-08
-9.53058e-08
1.93105e-08
-1.15365e-07
2.00596e-08
-1.36139e-07
2.07733e-08
-1.57597e-07
2.14584e-08
-1.79714e-07
2.21173e-08
-2.02465e-07
2.27501e-08
-2.2582e-07
2.33557e-08
-2.49754e-07
2.39335e-08
-2.74237e-07
2.44832e-08
-2.99243e-07
2.50056e-08
-3.24746e-07
2.55031e-08
-3.50724e-07
2.59787e-08
-3.77158e-07
2.64338e-08
-4.04025e-07
2.68664e-08
-4.31298e-07
2.7273e-08
-4.58957e-07
2.76598e-08
-4.8701e-07
2.80527e-08
-5.15502e-07
2.84923e-08
-5.44635e-07
2.91328e-08
-5.74995e-07
3.03596e-08
-6.06636e-07
3.16416e-08
-6.37752e-07
3.11158e-08
-6.68447e-07
3.06949e-08
-7.0114e-07
3.26925e-08
-7.36042e-07
3.49023e-08
-7.72935e-07
3.68929e-08
-8.11342e-07
3.84069e-08
-8.49104e-07
3.77627e-08
-8.91831e-07
4.2727e-08
-9.35701e-07
4.387e-08
-9.7296e-07
3.72585e-08
-1.01e-06
3.70352e-08
-1.04991e-06
3.99158e-08
-1.09108e-06
4.11692e-08
-1.13309e-06
4.20126e-08
-1.17563e-06
4.25397e-08
-1.2185e-06
4.28662e-08
-1.26156e-06
4.30589e-08
-1.30472e-06
4.31582e-08
-1.3479e-06
4.31888e-08
-1.39107e-06
4.31661e-08
-1.43417e-06
4.30995e-08
-1.47716e-06
4.29947e-08
-1.52002e-06
4.28547e-08
-1.5627e-06
4.26816e-08
-1.60518e-06
4.24757e-08
-1.64741e-06
4.22373e-08
-1.68938e-06
4.19657e-08
-1.73104e-06
4.16602e-08
-1.77236e-06
4.132e-08
-1.8133e-06
4.09441e-08
-1.85384e-06
4.05314e-08
-1.89392e-06
4.00809e-08
-1.93351e-06
3.95919e-08
-1.97257e-06
3.90634e-08
-2.01107e-06
3.84948e-08
-2.04895e-06
3.78856e-08
-2.08619e-06
3.72353e-08
-2.12273e-06
3.65436e-08
-2.15854e-06
3.58105e-08
-2.19358e-06
3.50359e-08
-2.2278e-06
3.422e-08
-2.26116e-06
3.3363e-08
-2.29363e-06
3.24653e-08
-2.32515e-06
3.15276e-08
-2.3557e-06
3.05503e-08
-2.38524e-06
2.95341e-08
-2.41372e-06
2.84799e-08
-2.44111e-06
2.73883e-08
-2.46737e-06
2.62602e-08
-2.49246e-06
2.50965e-08
-2.51636e-06
2.38977e-08
-2.53902e-06
2.26645e-08
-2.56042e-06
2.13973e-08
-2.58052e-06
2.00965e-08
-2.59928e-06
1.87618e-08
-2.61667e-06
1.73928e-08
-2.63266e-06
1.59883e-08
-2.64721e-06
1.45465e-08
-2.66027e-06
1.30643e-08
-2.67181e-06
1.15378e-08
-2.68177e-06
9.95957e-09
-2.69009e-06
8.32041e-09
-2.6967e-06
6.60724e-09
-2.7015e-06
4.80345e-09
-2.7044e-06
2.90217e-09
-2.70529e-06
8.82192e-10
-2.70431e-06
-9.79372e-10
-2.70168e-06
-2.62106e-09
-2.69749e-06
-4.19525e-09
-2.69174e-06
-5.74808e-09
-2.68444e-06
-7.29927e-09
-2.67559e-06
-8.85642e-09
-2.66517e-06
-1.04207e-08
-2.65317e-06
-1.19911e-08
-2.63961e-06
-1.35659e-08
-2.62447e-06
-1.51431e-08
-2.60774e-06
-1.67206e-08
-2.58945e-06
-1.82964e-08
-2.56958e-06
-1.98682e-08
-2.54815e-06
-2.14339e-08
-2.52515e-06
-2.29915e-08
-2.50062e-06
-2.45387e-08
-2.47454e-06
-2.60736e-08
-2.44695e-06
-2.75939e-08
-2.41785e-06
-2.90977e-08
-2.38727e-06
-3.05827e-08
-2.35522e-06
-3.2047e-08
-2.32173e-06
-3.34884e-08
-2.28683e-06
-3.4905e-08
-2.25053e-06
-3.6295e-08
-2.21288e-06
-3.76564e-08
-2.17389e-06
-3.89875e-08
-2.1336e-06
-4.02865e-08
-2.09205e-06
-4.15517e-08
-2.04927e-06
-4.27814e-08
-2.00529e-06
-4.3974e-08
-1.96017e-06
-4.51279e-08
-1.91393e-06
-4.62416e-08
-1.86661e-06
-4.73138e-08
-1.81827e-06
-4.83434e-08
-1.76894e-06
-4.93292e-08
-1.71867e-06
-5.02703e-08
-1.6675e-06
-5.11656e-08
-1.61549e-06
-5.20143e-08
-1.56267e-06
-5.28156e-08
-1.5091e-06
-5.35691e-08
-1.45483e-06
-5.42745e-08
-1.3999e-06
-5.49315e-08
-1.34436e-06
-5.55398e-08
-1.28826e-06
-5.60996e-08
-1.23165e-06
-5.66108e-08
-1.17457e-06
-5.70741e-08
-1.11708e-06
-5.74898e-08
-1.05923e-06
-5.78587e-08
-1.00104e-06
-5.81814e-08
-9.42585e-07
-5.84591e-08
-8.83892e-07
-5.86929e-08
-8.25008e-07
-5.88841e-08
-7.65974e-07
-5.90342e-08
-7.06829e-07
-5.91448e-08
-6.47611e-07
-5.92177e-08
-5.88356e-07
-5.92547e-08
-5.29099e-07
-5.92576e-08
-4.69871e-07
-5.92282e-08
-4.10702e-07
-5.91683e-08
-3.51623e-07
-5.90788e-08
-2.92663e-07
-5.89605e-08
-2.3385e-07
-5.88127e-08
-1.7522e-07
-5.863e-08
-1.16803e-07
-5.84172e-08
-5.86323e-08
-5.81709e-08
-7.53747e-10
-5.78785e-08
5.67902e-08
-5.7544e-08
1.13983e-07
-5.71929e-08
1.70831e-07
-5.6848e-08
2.27359e-07
-5.65278e-08
2.83578e-07
-5.62188e-08
3.39479e-07
-5.59014e-08
3.9503e-07
-5.55504e-08
4.50156e-07
-5.51266e-08
5.04719e-07
-5.45625e-08
5.58445e-07
-5.37267e-08
6.10796e-07
-5.23509e-08
6.60542e-07
-4.97454e-08
7.04796e-07
-4.42546e-08
7.35828e-07
-3.10319e-08
9.56441e-09
7.26264e-07
6.21366e-09
-1.74398e-08
6.58042e-09
-1.13618e-08
2.86814e-09
-2.67058e-09
-3.57326e-09
5.51867e-09
-1.23377e-08
1.28919e-08
-2.3325e-08
1.92534e-08
-3.6461e-08
2.45309e-08
-5.15891e-08
2.87954e-08
-6.84769e-08
3.22184e-08
-8.68785e-08
3.50012e-08
-1.06577e-07
3.73248e-08
-1.274e-07
3.93323e-08
-1.49216e-07
4.1127e-08
-1.71935e-07
4.27783e-08
-1.95493e-07
4.43312e-08
-2.19848e-07
4.58137e-08
-2.44974e-07
4.72431e-08
-2.70855e-07
4.86311e-08
-2.97485e-07
4.99859e-08
-3.24867e-07
5.13154e-08
-3.53011e-07
5.26275e-08
-3.81938e-07
5.3932e-08
-4.11674e-07
5.52399e-08
-4.42259e-07
5.6563e-08
-4.73736e-07
5.79115e-08
-5.06163e-07
5.92934e-08
-5.39607e-07
6.07166e-08
-5.74141e-07
6.2194e-08
-6.09832e-07
6.3744e-08
-6.46727e-07
6.5387e-08
-6.84777e-07
6.71824e-08
-7.23627e-07
6.921e-08
-7.63193e-07
7.12075e-08
-8.04729e-07
7.26518e-08
-8.4803e-07
7.39955e-08
-8.91271e-07
7.59338e-08
-9.34361e-07
7.79924e-08
-9.77202e-07
7.97343e-08
-1.01983e-06
8.10363e-08
-1.06394e-06
8.18714e-08
-1.10446e-06
8.32447e-08
-1.14432e-06
8.37311e-08
-1.18927e-06
8.22132e-08
-1.23392e-06
8.16784e-08
-1.27611e-06
8.21129e-08
-1.31739e-06
8.24476e-08
-1.35804e-06
8.26556e-08
-1.39824e-06
8.27431e-08
-1.43809e-06
8.27204e-08
-1.47764e-06
8.2604e-08
-1.51689e-06
8.24075e-08
-1.55584e-06
8.21416e-08
-1.59449e-06
8.18136e-08
-1.63282e-06
8.14286e-08
-1.67081e-06
8.09891e-08
-1.70845e-06
8.04964e-08
-1.74572e-06
7.99503e-08
-1.7826e-06
7.93502e-08
-1.81905e-06
7.86946e-08
-1.85507e-06
7.79818e-08
-1.89062e-06
7.72099e-08
-1.92568e-06
7.63771e-08
-1.96021e-06
7.54812e-08
-1.9942e-06
7.45205e-08
-2.02761e-06
7.34932e-08
-2.06042e-06
7.23978e-08
-2.09259e-06
7.12329e-08
-2.12409e-06
6.99975e-08
-2.1549e-06
6.86906e-08
-2.18497e-06
6.73116e-08
-2.21429e-06
6.58601e-08
-2.24282e-06
6.4336e-08
-2.27052e-06
6.27393e-08
-2.29737e-06
6.10703e-08
-2.32334e-06
5.93297e-08
-2.34839e-06
5.7518e-08
-2.3725e-06
5.56362e-08
-2.39563e-06
5.36853e-08
-2.41777e-06
5.16665e-08
-2.43887e-06
4.9581e-08
-2.45891e-06
4.74302e-08
-2.47786e-06
4.52153e-08
-2.4957e-06
4.29378e-08
-2.51241e-06
4.05988e-08
-2.52794e-06
3.81995e-08
-2.54228e-06
3.57409e-08
-2.55541e-06
3.32239e-08
-2.5673e-06
3.06487e-08
-2.57792e-06
2.80157e-08
-2.58726e-06
2.53246e-08
-2.59529e-06
2.25751e-08
-2.60199e-06
1.97663e-08
-2.60735e-06
1.68977e-08
-2.61136e-06
1.39688e-08
-2.61402e-06
1.09807e-08
-2.61535e-06
7.93782e-09
-2.6154e-06
4.85093e-09
-2.61424e-06
1.75089e-09
-2.61203e-06
-1.33411e-09
-2.60864e-06
-4.37212e-09
-2.60388e-06
-7.37852e-09
-2.59767e-06
-1.04066e-08
-2.58996e-06
-1.34557e-08
-2.58073e-06
-1.65249e-08
-2.56998e-06
-1.96132e-08
-2.55768e-06
-2.27177e-08
-2.54384e-06
-2.58351e-08
-2.52844e-06
-2.89615e-08
-2.51149e-06
-3.20925e-08
-2.49299e-06
-3.5224e-08
-2.47293e-06
-3.83518e-08
-2.45133e-06
-4.14716e-08
-2.42818e-06
-4.45791e-08
-2.4035e-06
-4.76702e-08
-2.3773e-06
-5.07406e-08
-2.34959e-06
-5.37863e-08
-2.32038e-06
-5.6803e-08
-2.28969e-06
-5.97865e-08
-2.25754e-06
-6.27327e-08
-2.22395e-06
-6.56375e-08
-2.18894e-06
-6.84968e-08
-2.15254e-06
-7.13067e-08
-2.11477e-06
-7.40634e-08
-2.07567e-06
-7.67631e-08
-2.03525e-06
-7.94024e-08
-1.99356e-06
-8.19777e-08
-1.95063e-06
-8.44856e-08
-1.90649e-06
-8.69229e-08
-1.86117e-06
-8.92862e-08
-1.81473e-06
-9.15723e-08
-1.76719e-06
-9.37784e-08
-1.7186e-06
-9.59019e-08
-1.66901e-06
-9.79404e-08
-1.61844e-06
-9.98917e-08
-1.56696e-06
-1.01754e-07
-1.5146e-06
-1.03525e-07
-1.46141e-06
-1.05203e-07
-1.40744e-06
-1.06786e-07
-1.35274e-06
-1.08275e-07
-1.29734e-06
-1.09667e-07
-1.24131e-06
-1.10963e-07
-1.18469e-06
-1.12163e-07
-1.12752e-06
-1.13265e-07
-1.06986e-06
-1.14271e-07
-1.01176e-06
-1.15181e-07
-9.53249e-07
-1.15997e-07
-8.94389e-07
-1.16719e-07
-8.35222e-07
-1.17349e-07
-7.75791e-07
-1.1789e-07
-7.16141e-07
-1.18343e-07
-6.56313e-07
-1.18712e-07
-5.96349e-07
-1.18998e-07
-5.36287e-07
-1.19207e-07
-4.76165e-07
-1.1934e-07
-4.16019e-07
-1.19401e-07
-3.55881e-07
-1.19396e-07
-2.95783e-07
-1.19326e-07
-2.35756e-07
-1.19195e-07
-1.75828e-07
-1.19007e-07
-1.16025e-07
-1.18763e-07
-5.63748e-08
-1.18463e-07
3.09805e-09
-1.18103e-07
6.23648e-08
-1.17684e-07
1.21399e-07
-1.17205e-07
1.80188e-07
-1.16667e-07
2.38727e-07
-1.16083e-07
2.97011e-07
-1.15477e-07
3.5504e-07
-1.14877e-07
4.12806e-07
-1.14294e-07
4.703e-07
-1.13713e-07
5.27501e-07
-1.13102e-07
5.84366e-07
-1.12415e-07
6.40814e-07
-1.11575e-07
6.96698e-07
-1.10446e-07
7.51745e-07
-1.08774e-07
8.05455e-07
-1.0606e-07
8.56849e-07
-1.01139e-07
9.04296e-07
-9.17023e-08
9.44493e-07
-7.12284e-08
-2.34803e-08
9.77538e-07
-2.36837e-09
-1.50714e-08
-9.80073e-09
-3.92939e-09
-1.93789e-08
6.90763e-09
-3.03605e-08
1.65002e-08
-4.25497e-08
2.50811e-08
-5.59724e-08
3.26761e-08
-7.07223e-08
3.92807e-08
-8.68641e-08
4.49373e-08
-1.04394e-07
4.9748e-08
-1.23247e-07
5.38542e-08
-1.43327e-07
5.74055e-08
-1.64534e-07
6.05388e-08
-1.86774e-07
6.33669e-08
-2.09972e-07
6.59765e-08
-2.34072e-07
6.84312e-08
-2.59035e-07
7.07764e-08
-2.84836e-07
7.30447e-08
-3.11465e-07
7.52598e-08
-3.3892e-07
7.74406e-08
-3.67208e-07
7.96032e-08
-3.96342e-07
8.17624e-08
-4.26343e-07
8.39326e-08
-4.5723e-07
8.61273e-08
-4.89025e-07
8.83578e-08
-5.21745e-07
9.06316e-08
-5.55403e-07
9.29514e-08
-5.90002e-07
9.53157e-08
-6.25529e-07
9.77205e-08
-6.61943e-07
1.00158e-07
-6.99173e-07
1.02617e-07
-7.37073e-07
1.05082e-07
-7.75376e-07
1.07513e-07
-8.13947e-07
1.09779e-07
-8.53044e-07
1.11749e-07
-8.92546e-07
1.13498e-07
-9.31787e-07
1.15174e-07
-9.70497e-07
1.16703e-07
-1.00871e-06
1.17944e-07
-1.04652e-06
1.18851e-07
-1.08414e-06
1.19493e-07
-1.12078e-06
1.19878e-07
-1.15689e-06
1.19847e-07
-1.19407e-06
1.19392e-07
-1.23139e-06
1.19001e-07
-1.26807e-06
1.18792e-07
-1.30424e-06
1.18612e-07
-1.34e-06
1.18414e-07
-1.37542e-06
1.18169e-07
-1.41057e-06
1.17866e-07
-1.44546e-06
1.17499e-07
-1.48012e-06
1.17067e-07
-1.51455e-06
1.1657e-07
-1.54874e-06
1.16009e-07
-1.5827e-06
1.15382e-07
-1.6164e-06
1.14689e-07
-1.64983e-06
1.13928e-07
-1.68298e-06
1.13096e-07
-1.71582e-06
1.12191e-07
-1.74833e-06
1.11209e-07
-1.7805e-06
1.10148e-07
-1.81229e-06
1.09004e-07
-1.84369e-06
1.07773e-07
-1.87466e-06
1.06453e-07
-1.90518e-06
1.05042e-07
-1.93522e-06
1.03535e-07
-1.96476e-06
1.01931e-07
-1.99375e-06
1.00228e-07
-2.02218e-06
9.8425e-08
-2.05001e-06
9.65193e-08
-2.07721e-06
9.45104e-08
-2.10374e-06
9.23977e-08
-2.12959e-06
9.01809e-08
-2.15471e-06
8.78599e-08
-2.17907e-06
8.54352e-08
-2.20265e-06
8.29072e-08
-2.22541e-06
8.02769e-08
-2.24732e-06
7.75456e-08
-2.26835e-06
7.47144e-08
-2.28847e-06
7.17851e-08
-2.30765e-06
6.87594e-08
-2.32586e-06
6.56391e-08
-2.34307e-06
6.24262e-08
-2.35925e-06
5.91227e-08
-2.37438e-06
5.57306e-08
-2.38844e-06
5.22519e-08
-2.40138e-06
4.86884e-08
-2.4132e-06
4.50418e-08
-2.42387e-06
4.13138e-08
-2.43336e-06
3.75059e-08
-2.44165e-06
3.36196e-08
-2.44873e-06
2.96564e-08
-2.45458e-06
2.56182e-08
-2.45919e-06
2.15078e-08
-2.46256e-06
1.73292e-08
-2.46466e-06
1.30884e-08
-2.46552e-06
8.79456e-09
-2.46513e-06
4.46327e-09
-2.46348e-06
9.69588e-11
-2.46056e-06
-4.25613e-09
-2.45629e-06
-8.63845e-09
-2.45062e-06
-1.30523e-08
-2.44351e-06
-1.75113e-08
-2.43495e-06
-2.20126e-08
-2.42493e-06
-2.65513e-08
-2.41342e-06
-3.11218e-08
-2.40042e-06
-3.57182e-08
-2.38592e-06
-4.03345e-08
-2.36992e-06
-4.49643e-08
-2.35241e-06
-4.96013e-08
-2.33339e-06
-5.42392e-08
-2.31287e-06
-5.88717e-08
-2.29085e-06
-6.34923e-08
-2.26734e-06
-6.80949e-08
-2.24233e-06
-7.26732e-08
-2.21585e-06
-7.72209e-08
-2.18791e-06
-8.1732e-08
-2.15851e-06
-8.62002e-08
-2.12768e-06
-9.06193e-08
-2.09543e-06
-9.49832e-08
-2.06178e-06
-9.92857e-08
-2.02675e-06
-1.03521e-07
-1.99038e-06
-1.07683e-07
-1.95268e-06
-1.11766e-07
-1.91368e-06
-1.15764e-07
-1.8734e-06
-1.19673e-07
-1.8319e-06
-1.23487e-07
-1.78918e-06
-1.27201e-07
-1.74529e-06
-1.3081e-07
-1.70027e-06
-1.34309e-07
-1.65415e-06
-1.37694e-07
-1.60697e-06
-1.40959e-07
-1.55877e-06
-1.44103e-07
-1.50959e-06
-1.4712e-07
-1.45947e-06
-1.50007e-07
-1.40847e-06
-1.52762e-07
-1.35661e-06
-1.55382e-07
-1.30395e-06
-1.57864e-07
-1.25053e-06
-1.60205e-07
-1.1964e-06
-1.62405e-07
-1.1416e-06
-1.64463e-07
-1.08619e-06
-1.66377e-07
-1.0302e-06
-1.68148e-07
-9.73693e-07
-1.69775e-07
-9.16706e-07
-1.71258e-07
-8.59287e-07
-1.72599e-07
-8.01484e-07
-1.738e-07
-7.43341e-07
-1.74862e-07
-6.84902e-07
-1.75788e-07
-6.26211e-07
-1.7658e-07
-5.67311e-07
-1.77243e-07
-5.08243e-07
-1.7778e-07
-4.49045e-07
-1.78196e-07
-3.89757e-07
-1.78495e-07
-3.30414e-07
-1.78683e-07
-2.71051e-07
-1.78765e-07
-2.117e-07
-1.78747e-07
-1.52391e-07
-1.78634e-07
-9.31547e-08
-1.78432e-07
-3.40156e-08
-1.78146e-07
2.50005e-08
-1.77779e-07
8.38688e-08
-1.77331e-07
1.42569e-07
-1.76803e-07
2.0108e-07
-1.76195e-07
2.59389e-07
-1.75514e-07
3.17497e-07
-1.74775e-07
3.75413e-07
-1.73999e-07
4.33136e-07
-1.732e-07
4.9065e-07
-1.72391e-07
5.47936e-07
-1.7158e-07
6.04976e-07
-1.70752e-07
6.6174e-07
-1.69867e-07
7.18184e-07
-1.68859e-07
7.74227e-07
-1.67618e-07
8.29729e-07
-1.65948e-07
8.8445e-07
-1.63495e-07
9.37983e-07
-1.59594e-07
9.89692e-07
-1.52848e-07
1.03867e-06
-1.40676e-07
1.08441e-06
-1.16973e-07
-7.01844e-08
1.13111e-06
-9.20242e-09
-5.86903e-09
-2.18204e-08
8.6886e-09
-3.54786e-08
2.05658e-08
-4.97514e-08
3.0773e-08
-6.46048e-08
3.99345e-08
-8.01294e-08
4.82007e-08
-9.64582e-08
5.56095e-08
-1.13714e-07
6.21931e-08
-1.31978e-07
6.80124e-08
-1.51284e-07
7.31596e-08
-1.71622e-07
7.7744e-08
-1.92961e-07
8.18773e-08
-2.15255e-07
8.56614e-08
-2.38461e-07
8.91825e-08
-2.6254e-07
9.25097e-08
-2.8746e-07
9.56965e-08
-3.13199e-07
9.87837e-08
-3.39741e-07
1.01802e-07
-3.67078e-07
1.04777e-07
-3.95201e-07
1.07727e-07
-4.24106e-07
1.10667e-07
-4.53785e-07
1.13611e-07
-4.84222e-07
1.16565e-07
-5.15398e-07
1.19533e-07
-5.47278e-07
1.22511e-07
-5.79816e-07
1.25489e-07
-6.1295e-07
1.2845e-07
-6.466e-07
1.31371e-07
-6.80666e-07
1.34225e-07
-7.1503e-07
1.36981e-07
-7.49551e-07
1.39604e-07
-7.84084e-07
1.42046e-07
-8.18544e-07
1.44239e-07
-8.52932e-07
1.46137e-07
-8.87197e-07
1.47762e-07
-9.21178e-07
1.49156e-07
-9.54777e-07
1.50302e-07
-9.88013e-07
1.5118e-07
-1.02096e-06
1.51796e-07
-1.05363e-06
1.52161e-07
-1.08603e-06
1.52282e-07
-1.11832e-06
1.52135e-07
-1.15071e-06
1.51789e-07
-1.18312e-06
1.51405e-07
-1.21537e-06
1.51041e-07
-1.24743e-06
1.50677e-07
-1.27931e-06
1.50294e-07
-1.31102e-06
1.49877e-07
-1.34257e-06
1.49412e-07
-1.37396e-06
1.48892e-07
-1.4052e-06
1.4831e-07
-1.4363e-06
1.47661e-07
-1.46723e-06
1.46942e-07
-1.49799e-06
1.46147e-07
-1.52858e-06
1.45272e-07
-1.55896e-06
1.44313e-07
-1.58913e-06
1.43266e-07
-1.61907e-06
1.42125e-07
-1.64874e-06
1.40885e-07
-1.67814e-06
1.39543e-07
-1.70722e-06
1.38092e-07
-1.73598e-06
1.3653e-07
-1.76438e-06
1.34852e-07
-1.79239e-06
1.33053e-07
-1.81999e-06
1.31131e-07
-1.84714e-06
1.29082e-07
-1.87381e-06
1.26904e-07
-1.89998e-06
1.24594e-07
-1.92561e-06
1.2215e-07
-1.95067e-06
1.19572e-07
-1.97513e-06
1.16858e-07
-1.99896e-06
1.14008e-07
-2.02212e-06
1.11021e-07
-2.04459e-06
1.07899e-07
-2.06632e-06
1.04642e-07
-2.08729e-06
1.0125e-07
-2.10748e-06
9.77263e-08
-2.12683e-06
9.40715e-08
-2.14534e-06
9.02881e-08
-2.16295e-06
8.63782e-08
-2.17966e-06
8.23444e-08
-2.19542e-06
7.81893e-08
-2.21022e-06
7.39157e-08
-2.22401e-06
6.95264e-08
-2.23678e-06
6.50242e-08
-2.24851e-06
6.0412e-08
-2.25916e-06
5.56926e-08
-2.26871e-06
5.08688e-08
-2.27715e-06
4.59433e-08
-2.28445e-06
4.09191e-08
-2.29059e-06
3.57993e-08
-2.29556e-06
3.05875e-08
-2.29934e-06
2.52879e-08
-2.30192e-06
1.99061e-08
-2.30328e-06
1.44489e-08
-2.30341e-06
8.92468e-09
-2.30229e-06
3.34285e-09
-2.2999e-06
-2.29008e-09
-2.2962e-06
-7.96277e-09
-2.29115e-06
-1.3688e-08
-2.28472e-06
-1.94741e-08
-2.27691e-06
-2.53234e-08
-2.26769e-06
-3.12308e-08
-2.25706e-06
-3.71892e-08
-2.24499e-06
-4.31909e-08
-2.23148e-06
-4.92274e-08
-2.21652e-06
-5.52904e-08
-2.20011e-06
-6.13715e-08
-2.18225e-06
-6.74624e-08
-2.16294e-06
-7.35545e-08
-2.14217e-06
-7.96396e-08
-2.11995e-06
-8.57094e-08
-2.09629e-06
-9.17555e-08
-2.0712e-06
-9.77698e-08
-2.04467e-06
-1.03744e-07
-2.01673e-06
-1.0967e-07
-1.98739e-06
-1.1554e-07