/*--------------------------------*- C++ -*----------------------------------*\
  =========                 |
  \\      /  F ield         | OpenFOAM: The Open Source CFD Toolbox
   \\    /   O peration     | Website:  https://openfoam.org
    \\  /    A nd           | Version:  12
     \\/     M anipulation  |
\*---------------------------------------------------------------------------*/
FoamFile
{
    format      ascii;
    class       volVectorField;
    location    "0.17";
    object      U;
}
// * * * * * * * * * * * * * * * * * * * * * * * * * * * * * * * * * * * * * //

dimensions      [0 1 -1 0 0 0 0];

internalField   nonuniform List<vector> 
12225
(
(9.86107 -0.874317 0)
(9.67247 -0.700191 0)
(9.45895 -0.38759 0)
(9.22462 -0.188475 0)
(9.00343 -0.0843897 0)
(8.8103 -0.0328709 0)
(8.64499 -0.0075443 0)
(8.50395 0.00503294 0)
(8.38372 0.0113469 0)
(8.28077 0.0144857 0)
(8.19173 0.0159846 0)
(8.11371 0.0166591 0)
(8.04431 0.0169528 0)
(7.98172 0.0171594 0)
(7.92298 0.0174719 0)
(7.86909 0.0186212 0)
(7.79917 0.021612 0)
(7.77271 0.0304411 0)
(10.0547 0.26307 0)
(10.1201 0.360742 0)
(10.118 0.273824 0)
(10.0826 0.187092 0)
(10.0405 0.131168 0)
(9.99388 0.0969354 0)
(9.94006 0.0755682 0)
(9.8803 0.061764 0)
(9.81771 0.0523621 0)
(9.75475 0.04555 0)
(9.69287 0.040385 0)
(9.63289 0.0364072 0)
(9.57517 0.0333618 0)
(9.52011 0.031233 0)
(9.46691 0.0298578 0)
(9.41806 0.0310257 0)
(9.36647 0.0321944 0)
(9.34134 0.0529098 0)
(9.99919 0.0460875 0)
(10.0244 0.034212 0)
(10.0538 0.0149541 0)
(10.0708 0.0218173 0)
(10.0778 0.0366815 0)
(10.0782 0.0460206 0)
(10.0722 0.0499643 0)
(10.0602 0.0511594 0)
(10.0438 0.0510712 0)
(10.0244 0.0503613 0)
(10.0029 0.0494017 0)
(9.97975 0.0484395 0)
(9.95554 0.0476262 0)
(9.93068 0.0471994 0)
(9.90511 0.0472352 0)
(9.87987 0.0490899 0)
(9.85416 0.051931 0)
(9.83418 0.0635491 0)
(9.9968 0.00642882 0)
(10.0085 0.0250213 0)
(10.0342 0.0389429 0)
(10.0528 0.0503097 0)
(10.0644 0.0571178 0)
(10.073 0.0591774 0)
(10.0789 0.0588695 0)
(10.0815 0.0579546 0)
(10.0815 0.0569546 0)
(10.0793 0.0559455 0)
(10.0756 0.0549808 0)
(10.0705 0.0541484 0)
(10.0641 0.0535405 0)
(10.0569 0.0533547 0)
(10.0488 0.0537289 0)
(10.0405 0.0555538 0)
(10.0325 0.0584955 0)
(10.027 0.0651035 0)
(9.99922 0.00673863 0)
(10.0081 0.0335775 0)
(10.0271 0.0460497 0)
(10.0418 0.0508543 0)
(10.0524 0.0539262 0)
(10.0622 0.0555189 0)
(10.0708 0.0558704 0)
(10.0774 0.0556925 0)
(10.0822 0.0553316 0)
(10.0856 0.0548796 0)
(10.0879 0.0544117 0)
(10.0892 0.0540339 0)
(10.0897 0.0538577 0)
(10.0894 0.0540606 0)
(10.0887 0.0547976 0)
(10.0879 0.0565686 0)
(10.0877 0.059188 0)
(10.0893 0.0631589 0)
(10.0002 0.00907557 0)
(10.0078 0.0321294 0)
(10.0225 0.0419191 0)
(10.035 0.0456767 0)
(10.0448 0.0491405 0)
(10.0541 0.0516819 0)
(10.0629 0.0528268 0)
(10.0704 0.0531863 0)
(10.0766 0.053236 0)
(10.0818 0.0531407 0)
(10.0862 0.0529931 0)
(10.0898 0.0529024 0)
(10.0929 0.0529811 0)
(10.0955 0.0533751 0)
(10.0978 0.0542113 0)
(10.1002 0.0557363 0)
(10.1031 0.0577923 0)
(10.1075 0.0602307 0)
(10.0003 0.00880237 0)
(10.0068 0.0275237 0)
(10.0189 0.0370923 0)
(10.0303 0.0417544 0)
(10.0395 0.0456799 0)
(10.0482 0.0485104 0)
(10.0566 0.0499277 0)
(10.064 0.05053 0)
(10.0705 0.0508036 0)
(10.0762 0.0509214 0)
(10.0813 0.0509711 0)
(10.0859 0.0510539 0)
(10.0901 0.0512726 0)
(10.0939 0.0517393 0)
(10.0976 0.0525389 0)
(10.1014 0.0537669 0)
(10.1057 0.0552621 0)
(10.1111 0.0567044 0)
(10.0004 0.00783979 0)
(10.0057 0.0237019 0)
(10.016 0.0333805 0)
(10.0264 0.0386035 0)
(10.0351 0.0425041 0)
(10.0433 0.0453044 0)
(10.0511 0.0468667 0)
(10.0584 0.0476566 0)
(10.0648 0.0480996 0)
(10.0707 0.0483699 0)
(10.0761 0.0485557 0)
(10.081 0.0487496 0)
(10.0857 0.0490414 0)
(10.0901 0.0495118 0)
(10.0944 0.0502069 0)
(10.0989 0.0511362 0)
(10.1038 0.0521387 0)
(10.1093 0.0529034 0)
(10.0004 0.00695424 0)
(10.0049 0.0207162 0)
(10.0136 0.0300487 0)
(10.023 0.0354202 0)
(10.0312 0.0392111 0)
(10.0389 0.041979 0)
(10.0464 0.0436783 0)
(10.0533 0.044635 0)
(10.0597 0.045214 0)
(10.0655 0.0455973 0)
(10.0709 0.0458778 0)
(10.0761 0.0461389 0)
(10.0809 0.0464556 0)
(10.0856 0.0468831 0)
(10.0902 0.0474379 0)
(10.095 0.0480868 0)
(10.1001 0.0486822 0)
(10.1056 0.0489819 0)
(10.0004 0.00616795 0)
(10.0042 0.0181322 0)
(10.0116 0.0268137 0)
(10.0199 0.0321609 0)
(10.0277 0.0358769 0)
(10.0349 0.038615 0)
(10.042 0.0404087 0)
(10.0487 0.0414918 0)
(10.0549 0.0421747 0)
(10.0607 0.0426408 0)
(10.0661 0.042985 0)
(10.0713 0.0432809 0)
(10.0762 0.0435892 0)
(10.081 0.043946 0)
(10.0858 0.0443491 0)
(10.0907 0.0447498 0)
(10.0957 0.0450246 0)
(10.101 0.0450053 0)
(10.0003 0.00543167 0)
(10.0036 0.0158111 0)
(10.0099 0.0237302 0)
(10.0173 0.028935 0)
(10.0245 0.0325606 0)
(10.0314 0.0352333 0)
(10.0381 0.037062 0)
(10.0445 0.0382275 0)
(10.0505 0.0389853 0)
(10.0562 0.0395091 0)
(10.0616 0.039892 0)
(10.0667 0.0401988 0)
(10.0717 0.0404774 0)
(10.0765 0.0407508 0)
(10.0813 0.0410082 0)
(10.0862 0.0412009 0)
(10.0911 0.0412328 0)
(10.0961 0.0409983 0)
(10.0003 0.00477969 0)
(10.0031 0.0138674 0)
(10.0086 0.0210583 0)
(10.0152 0.0260311 0)
(10.0219 0.0295302 0)
(10.0284 0.0321092 0)
(10.0348 0.033925 0)
(10.041 0.0351286 0)
(10.0468 0.0359286 0)
(10.0524 0.036483 0)
(10.0577 0.0368812 0)
(10.0628 0.0371804 0)
(10.0678 0.0374191 0)
(10.0726 0.0376132 0)
(10.0774 0.0377496 0)
(10.0821 0.0377871 0)
(10.0869 0.0376541 0)
(10.0917 0.0372897 0)
(10.0003 0.00417369 0)
(10.0028 0.0121016 0)
(10.0075 0.0185464 0)
(10.0134 0.0231966 0)
(10.0196 0.0265266 0)
(10.0258 0.0289879 0)
(10.0319 0.0307568 0)
(10.0378 0.0319661 0)
(10.0435 0.0327851 0)
(10.0489 0.033352 0)
(10.0541 0.0337504 0)
(10.0592 0.0340311 0)
(10.0641 0.0342257 0)
(10.0688 0.0343458 0)
(10.0735 0.0343797 0)
(10.0782 0.0342959 0)
(10.0828 0.0340433 0)
(10.0874 0.0335939 0)
(10.0003 0.00354233 0)
(10.0024 0.0102649 0)
(10.0064 0.0158564 0)
(10.0117 0.020053 0)
(10.0174 0.0231262 0)
(10.0231 0.0254113 0)
(10.0289 0.0270815 0)
(10.0345 0.0282545 0)
(10.04 0.0290622 0)
(10.0453 0.0296187 0)
(10.0504 0.0299984 0)
(10.0554 0.0302456 0)
(10.0602 0.0303863 0)
(10.0649 0.0304297 0)
(10.0695 0.0303681 0)
(10.074 0.0301813 0)
(10.0784 0.029837 0)
(10.0827 0.0293322 0)
(10.0002 0.00288397 0)
(10.002 0.00835599 0)
(10.0055 0.0129987 0)
(10.0101 0.0166067 0)
(10.0153 0.0193136 0)
(10.0206 0.0213451 0)
(10.026 0.0228502 0)
(10.0313 0.0239295 0)
(10.0366 0.0246819 0)
(10.0417 0.0251952 0)
(10.0467 0.0255313 0)
(10.0515 0.0257278 0)
(10.0562 0.0258058 0)
(10.0608 0.0257741 0)
(10.0652 0.0256301 0)
(10.0695 0.0253644 0)
(10.0737 0.0249603 0)
(10.0778 0.0244312 0)
(10.0002 0.00219888 0)
(10.0017 0.00637562 0)
(10.0047 0.00997782 0)
(10.0088 0.0128586 0)
(10.0134 0.0150711 0)
(10.0183 0.0167507 0)
(10.0233 0.0180079 0)
(10.0284 0.018921 0)
(10.0334 0.0195599 0)
(10.0383 0.019987 0)
(10.0431 0.0202489 0)
(10.0477 0.0203752 0)
(10.0523 0.0203834 0)
(10.0567 0.020282 0)
(10.061 0.020073 0)
(10.0651 0.0197552 0)
(10.0691 0.0193229 0)
(10.073 0.0187981 0)
(10.0002 0.00148386 0)
(10.0015 0.00430697 0)
(10.0041 0.00677129 0)
(10.0077 0.0087847 0)
(10.0119 0.010362 0)
(10.0164 0.0115729 0)
(10.021 0.0124842 0)
(10.0258 0.0131469 0)
(10.0306 0.0136041 0)
(10.0353 0.0138943 0)
(10.0399 0.0140476 0)
(10.0444 0.0140843 0)
(10.0488 0.0140171 0)
(10.053 0.0138536 0)
(10.0571 0.0135981 0)
(10.0611 0.013254 0)
(10.0648 0.0128212 0)
(10.0685 0.0123244 0)
(10.0001 0.00072118 0)
(10.0013 0.00209385 0)
(10.0037 0.0032992 0)
(10.0069 0.00429618 0)
(10.0108 0.00508735 0)
(10.015 0.0056975 0)
(10.0194 0.00615167 0)
(10.024 0.00647002 0)
(10.0285 0.00667029 0)
(10.033 0.00676832 0)
(10.0375 0.00677657 0)
(10.0418 0.00670381 0)
(10.046 0.00655604 0)
(10.0501 0.00633761 0)
(10.054 0.00605202 0)
(10.0577 0.0057032 0)
(10.0614 0.00529274 0)
(10.0648 0.00484318 0)
(10.0001 -0.000135959 0)
(10.0013 -0.000396113 0)
(10.0035 -0.000628026 0)
(10.0067 -0.000818887 0)
(10.0104 -0.000965957 0)
(10.0145 -0.00108292 0)
(10.0188 -0.00118892 0)
(10.0232 -0.00129778 0)
(10.0277 -0.00141819 0)
(10.0321 -0.0015574 0)
(10.0364 -0.00172204 0)
(10.0406 -0.00191725 0)
(10.0446 -0.00214641 0)
(10.0485 -0.00241145 0)
(10.0523 -0.00271305 0)
(10.0559 -0.00305026 0)
(10.0594 -0.00342316 0)
(10.0627 -0.00381492 0)
(10.0001 -0.000960296 0)
(10.0014 -0.00279752 0)
(10.0038 -0.00442176 0)
(10.0071 -0.00575079 0)
(10.0111 -0.00677816 0)
(10.0153 -0.00756528 0)
(10.0197 -0.00817904 0)
(10.0242 -0.0086647 0)
(10.0287 -0.00905681 0)
(10.0331 -0.00938745 0)
(10.0374 -0.00968323 0)
(10.0416 -0.00996287 0)
(10.0456 -0.010239 0)
(10.0495 -0.0105203 0)
(10.0532 -0.0108128 0)
(10.0567 -0.0111196 0)
(10.0601 -0.0114435 0)
(10.0633 -0.0117735 0)
(10.0002 -0.0016746 0)
(10.0015 -0.00490202 0)
(10.0042 -0.0077466 0)
(10.008 -0.0100049 0)
(10.0123 -0.0116922 0)
(10.0169 -0.0129652 0)
(10.0215 -0.0139414 0)
(10.0262 -0.0146804 0)
(10.0308 -0.0152364 0)
(10.0353 -0.0156683 0)
(10.0396 -0.0160233 0)
(10.0438 -0.0163315 0)
(10.0478 -0.0166129 0)
(10.0517 -0.0168812 0)
(10.0554 -0.0171464 0)
(10.0589 -0.0174143 0)
(10.0622 -0.0176894 0)
(10.0654 -0.0179642 0)
(10.0002 -0.00235694 0)
(10.0017 -0.0069919 0)
(10.0048 -0.0110846 0)
(10.0092 -0.0141769 0)
(10.0141 -0.0163627 0)
(10.019 -0.0179794 0)
(10.024 -0.0192073 0)
(10.0289 -0.0201108 0)
(10.0337 -0.020762 0)
(10.0383 -0.0212435 0)
(10.0428 -0.0216167 0)
(10.047 -0.0219201 0)
(10.0511 -0.0221796 0)
(10.0549 -0.0224148 0)
(10.0586 -0.0226387 0)
(10.0621 -0.0228593 0)
(10.0654 -0.0230817 0)
(10.0686 -0.0233012 0)
(10.0002 -0.00299291 0)
(10.0018 -0.00910196 0)
(10.0056 -0.0144683 0)
(10.0108 -0.0183065 0)
(10.0164 -0.0209193 0)
(10.0217 -0.0228068 0)
(10.027 -0.0241636 0)
(10.0322 -0.0250955 0)
(10.0372 -0.02574 0)
(10.042 -0.0262089 0)
(10.0465 -0.0265622 0)
(10.0508 -0.0268349 0)
(10.0549 -0.0270559 0)
(10.0588 -0.0272478 0)
(10.0625 -0.0274256 0)
(10.066 -0.0275978 0)
(10.0693 -0.0277695 0)
(10.0724 -0.0279378 0)
(10.0001 -0.00356932 0)
(10.0019 -0.0115339 0)
(10.0065 -0.0179233 0)
(10.0127 -0.0220455 0)
(10.0189 -0.0250233 0)
(10.0248 -0.0273179 0)
(10.0305 -0.028854 0)
(10.036 -0.0297608 0)
(10.0412 -0.0303152 0)
(10.0461 -0.0306955 0)
(10.0507 -0.0309675 0)
(10.0551 -0.0311634 0)
(10.0592 -0.0313127 0)
(10.0631 -0.0314389 0)
(10.0668 -0.0315557 0)
(10.0702 -0.0316701 0)
(10.0735 -0.0317856 0)
(10.0766 -0.0318982 0)
(9.99997 -0.00368949 0)
(10.0018 -0.0151786 0)
(10.0076 -0.0226477 0)
(10.0148 -0.0259748 0)
(10.0214 -0.0285341 0)
(10.0277 -0.0309922 0)
(10.034 -0.0327664 0)
(10.04 -0.0338012 0)
(10.0455 -0.0343978 0)
(10.0506 -0.0347651 0)
(10.0553 -0.0349864 0)
(10.0597 -0.0351106 0)
(10.0638 -0.0351799 0)
(10.0677 -0.035224 0)
(10.0712 -0.0352593 0)
(10.0745 -0.0352942 0)
(10.0776 -0.0353321 0)
(10.0805 -0.0353709 0)
(9.99898 -0.00130894 0)
(9.99999 -0.0179731 0)
(10.0085 -0.0290674 0)
(10.0174 -0.0326899 0)
(10.0244 -0.0341108 0)
(10.0312 -0.0353337 0)
(10.0382 -0.036277 0)
(10.0449 -0.0369158 0)
(10.0507 -0.0373626 0)
(10.0559 -0.0376577 0)
(10.0606 -0.0378157 0)
(10.0648 -0.0378727 0)
(10.0685 -0.0378699 0)
(10.0718 -0.0378369 0)
(10.0747 -0.0377917 0)
(10.0772 -0.0377459 0)
(10.0795 -0.0377028 0)
(10.0815 -0.0376617 0)
(9.99528 0.00386911 0)
(9.99334 -0.010311 0)
(10.007 -0.0271018 0)
(10.0212 -0.0389231 0)
(10.0311 -0.044859 0)
(10.0392 -0.0464631 0)
(10.0466 -0.045977 0)
(10.053 -0.0450174 0)
(10.0581 -0.0441394 0)
(10.0621 -0.0433642 0)
(10.0652 -0.0426483 0)
(10.0675 -0.041989 0)
(10.0691 -0.0413925 0)
(10.07 -0.0408587 0)
(10.0704 -0.040385 0)
(10.0704 -0.0399706 0)
(10.0701 -0.0396059 0)
(10.0694 -0.039264 0)
(9.99144 -0.0172933 0)
(9.99189 0.000366102 0)
(10.01 0.0176665 0)
(10.0296 0.0115899 0)
(10.0441 -0.00510647 0)
(10.0541 -0.0188217 0)
(10.06 -0.0271674 0)
(10.0623 -0.0320437 0)
(10.0617 -0.0349246 0)
(10.0591 -0.0365293 0)
(10.0549 -0.0373056 0)
(10.0495 -0.0375785 0)
(10.0432 -0.037561 0)
(10.0361 -0.0373825 0)
(10.0286 -0.0371269 0)
(10.0207 -0.0368553 0)
(10.0126 -0.0366232 0)
(10.0044 -0.0363994 0)
(10.0236 -0.206007 0)
(10.0684 -0.312338 0)
(10.0788 -0.255591 0)
(10.0704 -0.184175 0)
(10.0605 -0.134899 0)
(10.0499 -0.102724 0)
(10.0342 -0.0811629 0)
(10.0129 -0.0666161 0)
(9.9878 -0.056624 0)
(9.96056 -0.0494679 0)
(9.93235 -0.0441102 0)
(9.90385 -0.0399615 0)
(9.87556 -0.0366635 0)
(9.84781 -0.0339833 0)
(9.82084 -0.0317731 0)
(9.79477 -0.0299694 0)
(9.76984 -0.0285418 0)
(9.74607 -0.0278069 0)
(9.94226 0.671595 0)
(9.87996 0.567455 0)
(9.77444 0.338467 0)
(9.63238 0.18332 0)
(9.48764 0.094907 0)
(9.35652 0.0470843 0)
(9.24096 0.0212998 0)
(9.13946 0.00707859 0)
(9.05052 -0.000980486 0)
(8.97252 -0.00562138 0)
(8.90376 -0.00831023 0)
(8.84269 -0.00987213 0)
(8.78806 -0.0107773 0)
(8.73888 -0.0112946 0)
(8.69433 -0.0115849 0)
(8.6537 -0.0117727 0)
(8.61616 -0.0119519 0)
(8.5813 -0.0124836 0)
(0.00511474 -0.0121587 -3.49779e-20)
(0.0158073 -0.0159854 3.44225e-20)
(0.0234833 -0.011541 0)
(0.0269383 -0.00441041 0)
(0.0254003 0.00262419 0)
(0.0196722 0.00818257 -3.19637e-20)
(0.0107315 0.0119995 0)
(-0.000573154 0.0144079 0)
(-0.0135693 0.0159046 0)
(-0.0278395 0.0168869 0)
(-0.0431246 0.0176039 2.88063e-20)
(-0.059259 0.0181977 0)
(-0.0761492 0.0187394 0)
(-0.0937408 0.0192594 0)
(-0.111999 0.0197669 0)
(-0.130898 0.0202614 2.5718e-20)
(-0.150415 0.0207391 0)
(-0.170529 0.0211949 0)
(-0.191216 0.0216246 0)
(-0.212453 0.0220245 0)
(-0.234216 0.0223926 0)
(-0.256481 0.0227288 0)
(-0.279226 0.023036 0)
(-0.302429 0.0233194 2.22277e-20)
(-0.326075 0.023583 -2.19036e-20)
(-0.350145 0.0238267 2.16027e-20)
(-0.374616 0.0240538 2.13245e-20)
(-0.39947 0.0243024 0)
(-0.424686 0.0246641 0)
(-0.450269 0.0252816 -2.06209e-20)
(-0.476455 0.0266791 -2.04301e-20)
(-0.5036 0.0298924 0)
(-0.531523 0.03285 0)
(-0.559985 0.0302132 -1.99444e-20)
(-0.588562 0.0283733 0)
(-0.617281 0.034175 0)
(-0.647884 0.04068 1.94673e-20)
(-0.680531 0.0461764 0)
(-0.714535 0.0481002 2.09636e-20)
(-0.750654 0.0431455 4.14562e-20)
(-0.787929 0.0587498 0)
(-0.825575 0.0594766 0)
(-0.864204 0.0330619 0)
(-0.898314 0.026697 0)
(-0.933075 0.031045 0)
(-0.970769 0.032064 3.98703e-20)
(-1.00912 0.0327985 3.94337e-20)
(-1.0482 0.033171 3.90059e-20)
(-1.08769 0.0333397 0)
(-1.12747 0.0333757 -3.81817e-20)
(-1.16743 0.0333233 0)
(-1.20751 0.0332089 3.74e-20)
(-1.24764 0.0330488 3.70244e-20)
(-1.28779 0.0328529 0)
(-1.32792 0.0326274 0)
(-1.368 0.0323761 0)
(-1.408 0.0321013 3.56112e-20)
(-1.44789 0.0318041 0)
(-1.48763 0.0314851 0)
(-1.52721 0.0311444 0)
(-1.56658 0.0307821 0)
(-1.60573 0.0303977 0)
(-1.64461 0.0299911 0)
(-1.68319 0.0295619 0)
(-1.72144 0.0291098 0)
(-1.75932 0.0286347 -3.27939e-20)
(-1.79681 0.0281364 0)
(-1.83385 0.0276148 0)
(-1.87042 0.02707 3.19101e-20)
(-1.90647 0.0265022 3.16166e-20)
(-1.94197 0.0259116 0)
(-1.97688 0.0252987 -3.10282e-20)
(-2.01115 0.0246639 3.0732e-20)
(-2.04476 0.0240078 0)
(-2.07766 0.023331 -3.01333e-20)
(-2.10981 0.0226342 0)
(-2.14117 0.0219182 0)
(-2.17171 0.0211838 2.9211e-20)
(-2.20138 0.0204319 0)
(-2.23016 0.0196633 -2.85739e-20)
(-2.258 0.0188788 0)
(-2.28487 0.0180791 2.79146e-20)
(-2.31073 0.0172651 2.75754e-20)
(-2.33555 0.0164372 2.72292e-20)
(-2.35929 0.0155958 5.37513e-20)
(-2.38191 0.014741 -5.30285e-20)
(-2.4034 0.0138726 0)
(-2.42371 0.0129899 0)
(-2.4428 0.0120915 0)
(-2.46064 0.0111754 -4.99654e-20)
(-2.4772 0.0102383 -4.91531e-20)
(-2.49243 0.00927626 4.83208e-20)
(-2.5063 0.00828435 0)
(-2.51875 0.00725687 -4.65944e-20)
(-2.52973 0.00618689 -4.56994e-20)
(-2.53917 0.00506875 -4.47829e-20)
(-2.54699 0.00390527 0)
(-2.55312 0.00272062 0)
(-2.55742 0.00156561 0)
(-2.55978 0.000500985 -4.0894e-20)
(-2.56054 -0.000423759 0)
(-2.55987 -0.00126301 0)
(-2.55772 -0.00207769 3.77039e-20)
(-2.55411 -0.00288163 0)
(-2.54904 -0.00367992 0)
(-2.5425 -0.00447346 3.42773e-20)
(-2.53446 -0.00526204 0)
(-2.52493 -0.00604501 0)
(-2.5139 -0.00682155 -3.06106e-20)
(-2.50135 -0.00759079 -2.93351e-20)
(-2.48729 -0.00835187 0)
(-2.47171 -0.00910391 2.67053e-20)
(-2.45461 -0.00984608 0)
(-2.43599 -0.0105775 -2.39723e-20)
(-2.41586 -0.0112975 0)
(-2.39423 -0.0120051 -2.11391e-20)
(-2.37109 -0.0126995 -1.96861e-20)
(-2.34646 -0.0133801 0)
(-2.32035 -0.0140461 0)
(-2.29278 -0.0146967 0)
(-2.26376 -0.0153313 0)
(-2.2333 -0.0159492 0)
(-2.20143 -0.0165497 0)
(-2.16817 -0.0171324 0)
(-2.13353 -0.0176967 -7.27774e-21)
(-2.09755 -0.0182419 5.64115e-21)
(-2.06026 -0.0187677 0)
(-2.02167 -0.0192736 0)
(-1.98181 -0.019759 0)
(-1.94073 -0.0202235 0)
(-1.89845 -0.0206669 -5.51097e-21)
(-1.85501 -0.0210888 0)
(-1.81044 -0.021489 1.2383e-20)
(-1.76478 -0.0218673 -1.5842e-20)
(-1.71806 -0.0222234 0)
(-1.67033 -0.0225573 0)
(-1.62163 -0.0228688 0)
(-1.572 -0.023158 2.97678e-20)
(-1.52148 -0.0234247 3.32578e-20)
(-1.47011 -0.0236693 0)
(-1.41793 -0.0238918 4.02282e-20)
(-1.36499 -0.0240923 4.3703e-20)
(-1.31133 -0.0242712 -4.7167e-20)
(-1.257 -0.0244286 0)
(-1.20204 -0.0245651 0)
(-1.14649 -0.0246811 -5.74667e-20)
(-1.0904 -0.0247769 0)
(-1.0338 -0.0248532 0)
(-0.976744 -0.0249107 0)
(-0.919267 -0.0249498 0)
(-0.86141 -0.0249715 7.41628e-20)
(-0.803211 -0.0249763 7.74084e-20)
(-0.744708 -0.0249653 0)
(-0.685935 -0.0249392 8.37868e-20)
(-0.626928 -0.0248989 0)
(-0.567718 -0.0248453 0)
(-0.508336 -0.0247792 9.30406e-20)
(-0.448811 -0.0247014 0)
(-0.38917 -0.0246125 9.89775e-20)
(-0.329441 -0.0245124 0)
(-0.269651 -0.0244005 0)
(-0.209828 -0.024273 1.075e-19)
(-0.150004 -0.0241225 0)
(-0.0902066 -0.0239461 1.12909e-19)
(-0.0304551 -0.0237344 0)
(0.0291485 -0.0234122 0)
(0.0885798 -0.0230131 0)
(0.147891 -0.0226317 -1.19092e-19)
(0.207086 -0.0222748 0)
(0.266176 -0.021933 1.20556e-19)
(0.325166 -0.0215968 0)
(0.384039 -0.0212559 0)
(0.442745 -0.0208962 0)
(0.501176 -0.0204941 0)
(0.559147 -0.0200037 0)
(0.61615 -0.0193324 0)
(0.671759 -0.0182315 0)
(0.721845 -0.0160676 -2.48113e-19)
(0.770501 -0.0111692 0)
(0.771924 0.00649192 0)
(0.00374335 -0.0315068 1.03827e-19)
(0.00681436 -0.0260217 -9.90866e-20)
(0.00473367 -0.0122319 0)
(0.000184706 0.00135078 5.92824e-20)
(-0.00650838 0.0134721 0)
(-0.015299 0.0235242 2.76639e-20)
(-0.0260826 0.0313762 -5.38121e-20)
(-0.0387237 0.0372715 -5.24336e-20)
(-0.0530399 0.0416451 0)
(-0.0688173 0.0449445 -4.98566e-20)
(-0.0858492 0.0475272 -2.43355e-20)
(-0.103963 0.0496454 0)
(-0.123029 0.0514631 0)
(-0.14295 0.0530797 0)
(-0.163662 0.0545524 0)
(-0.185121 0.0559124 -2.16979e-20)
(-0.207298 0.0571766 0)
(-0.230177 0.0583539 4.16219e-20)
(-0.253749 0.0594499 0)
(-0.278014 0.0604694 0)
(-0.30298 0.0614183 -3.93949e-20)
(-0.328661 0.0623048 0)
(-0.355081 0.0631396 3.81502e-20)
(-0.382269 0.0639344 -1.88237e-20)
(-0.410266 0.0646982 1.85722e-20)
(-0.439117 0.0654349 -1.83445e-20)
(-0.468882 0.0661451 -1.81407e-20)
(-0.499623 0.0668364 0)
(-0.531412 0.0675256 0)
(-0.564341 0.0682284 1.76797e-20)
(-0.598376 0.0690143 -1.75133e-20)
(-0.633154 0.0700894 0)
(-0.6687 0.0713397 0)
(-0.705876 0.0719817 1.741e-20)
(-0.744579 0.0724047 0)
(-0.783879 0.0735723 0)
(-0.823335 0.0749598 -1.70788e-20)
(-0.862674 0.0761266 0)
(-0.902189 0.0777822 1.69074e-20)
(-0.941847 0.0792119 -3.3715e-20)
(-0.979388 0.0797228 0)
(-1.01743 0.0812987 0)
(-1.05667 0.082389 -6.52705e-20)
(-1.09764 0.0836056 -6.45189e-20)
(-1.1377 0.0850179 -6.37551e-20)
(-1.17624 0.0857347 3.14375e-20)
(-1.21409 0.085952 -3.12451e-20)
(-1.25154 0.0858494 -9.25598e-20)
(-1.28869 0.0855178 6.09956e-20)
(-1.3256 0.0850247 3.02522e-20)
(-1.3623 0.084413 0)
(-1.39878 0.0837112 -2.96366e-20)
(-1.43504 0.0829378 2.91902e-20)
(-1.47108 0.0821049 0)
(-1.50687 0.0812198 0)
(-1.54241 0.0802872 0)
(-1.57767 0.0793097 -2.82275e-20)
(-1.61264 0.0782885 0)
(-1.64729 0.077224 5.52584e-20)
(-1.68161 0.0761162 0)
(-1.71556 0.0749645 5.42487e-20)
(-1.74914 0.0737685 0)
(-1.78231 0.0725275 -5.32667e-20)
(-1.81504 0.0712411 0)
(-1.84732 0.0699088 5.23048e-20)
(-1.87911 0.0685304 -2.58427e-20)
(-1.91039 0.0671058 0)
(-1.94112 0.0656353 -5.08834e-20)
(-1.97129 0.0641192 -2.52744e-20)
(-2.00085 0.0625581 -2.50371e-20)
(-2.02978 0.0609529 0)
(-2.05805 0.0593045 -2.44312e-20)
(-2.08564 0.0576142 -2.43189e-20)
(-2.1125 0.0558833 0)
(-2.13862 0.0541135 2.38307e-20)
(-2.16395 0.0523063 -4.70509e-20)
(-2.18848 0.0504636 0)
(-2.21218 0.0485872 -2.3076e-20)
(-2.235 0.0466792 0)
(-2.25694 0.0447414 6.75646e-20)
(-2.27795 0.0427759 0)
(-2.29801 0.0407846 -6.59507e-20)
(-2.3171 0.0387694 -2.17336e-20)
(-2.33518 0.0367321 2.13741e-20)
(-2.35224 0.0346742 4.21788e-20)
(-2.36824 0.0325972 -4.15971e-20)
(-2.38315 0.0305021 0)
(-2.39696 0.0283898 0)
(-2.40964 0.0262608 0)
(-2.42116 0.0241148 1.17557e-19)
(-2.4315 0.0219512 3.85453e-20)
(-2.44064 0.0197685 -3.7864e-20)
(-2.44856 0.0175648 0)
(-2.45524 0.0153376 -3.6434e-20)
(-2.46068 0.0130836 3.57213e-20)
(-2.46488 0.0107984 3.49732e-20)
(-2.46786 0.008481 0)
(-2.46969 0.00614814 0)
(-2.47046 0.00384844 0)
(-2.47027 0.0016338 3.17926e-20)
(-2.4689 -0.00046886 0)
(-2.46617 -0.00249816 -6.02553e-20)
(-2.46205 -0.00449414 -8.77022e-20)
(-2.4565 -0.00646859 5.67173e-20)
(-2.44951 -0.0084259 0)
(-2.44106 -0.010366 2.65951e-20)
(-2.43115 -0.0122873 0)
(-2.41975 -0.0141877 4.92019e-20)
(-2.40687 -0.0160649 -2.37189e-20)
(-2.39249 -0.0179165 -2.27241e-20)
(-2.37662 -0.0197403 0)
(-2.35924 -0.0215341 -6.15399e-20)
(-2.34037 -0.0232956 3.90014e-20)
(-2.32 -0.0250228 1.82876e-20)
(-2.29813 -0.0267137 0)
(-2.27477 -0.0283664 1.60815e-20)
(-2.24993 -0.029979 4.51938e-20)
(-2.22362 -0.0315497 0)
(-2.19585 -0.0330768 2.56747e-20)
(-2.16662 -0.0345586 2.33511e-20)
(-2.13597 -0.0359935 2.10013e-20)
(-2.1039 -0.0373801 0)
(-2.07043 -0.0387172 0)
(-2.03559 -0.0400035 0)
(-1.9994 -0.0412379 -5.89935e-21)
(-1.96188 -0.0424195 -4.23277e-21)
(-1.92305 -0.0435473 0)
(-1.88295 -0.0446205 -3.93788e-21)
(-1.8416 -0.0456382 -1.43107e-21)
(-1.79904 -0.0465999 0)
(-1.7553 -0.047505 4.10776e-21)
(-1.71041 -0.0483532 1.23113e-20)
(-1.66441 -0.0491443 -9.20638e-21)
(-1.61733 -0.0498783 -1.07378e-20)
(-1.56922 -0.0505552 0)
(-1.5201 -0.0511751 0)
(-1.47003 -0.0517381 0)
(-1.41903 -0.0522446 -2.19961e-20)
(-1.36716 -0.0526953 2.34683e-20)
(-1.31446 -0.0530909 5.30935e-20)
(-1.26096 -0.0534322 -2.96234e-20)
(-1.20671 -0.05372 3.10508e-20)
(-1.15176 -0.0539555 3.46574e-20)
(-1.09614 -0.0541397 0)
(-1.0399 -0.0542741 0)
(-0.983084 -0.0543603 -4.09907e-20)
(-0.925734 -0.0543996 0)
(-0.867892 -0.0543939 0)
(-0.809598 -0.0543449 9.7612e-20)
(-0.750893 -0.0542548 0)
(-0.691816 -0.0541254 5.29833e-20)
(-0.632406 -0.0539589 -5.63965e-20)
(-0.572699 -0.0537576 0)
(-0.512729 -0.0535238 5.98707e-20)
(-0.452532 -0.0532598 0)
(-0.392138 -0.052968 0)
(-0.331577 -0.0526504 -6.75338e-20)
(-0.270878 -0.052309 1.38276e-19)
(-0.210067 -0.0519452 -7.17506e-20)
(-0.149171 -0.0515592 0)
(-0.0882121 -0.0511496 0)
(-0.0272165 -0.0507148 7.6766e-20)
(0.0337924 -0.0502498 0)
(0.0947886 -0.0497551 7.93995e-20)
(0.155758 -0.049242 0)
(0.216679 -0.0486952 0)
(0.277557 -0.0481184 0)
(0.338401 -0.0475451 8.434e-20)
(0.399204 -0.0469896 0)
(0.459961 -0.0464457 -8.60682e-20)
(0.520659 -0.0459002 0)
(0.58127 -0.0453337 0)
(0.641738 -0.0447155 1.75755e-19)
(0.701949 -0.0439936 -1.77058e-19)
(0.761713 -0.0430668 0)
(0.820587 -0.0417394 0)
(0.878119 -0.0395055 0)
(0.931747 -0.0354016 5.46222e-19)
(0.984027 -0.0261236 0)
(1.01433 -0.00369346 -3.71572e-19)
(-0.000203874 -0.0336446 -5.12518e-23)
(-0.00496121 -0.016637 1.27965e-19)
(-0.0127556 0.00215775 0)
(-0.0217594 0.0189022 -1.08473e-19)
(-0.0320315 0.0336616 0)
(-0.0434256 0.0463694 0)
(-0.0559653 0.0570067 1.10596e-23)
(-0.0697277 0.0657017 4.64683e-20)
(-0.084747 0.0727195 4.52598e-20)
(-0.100993 0.0783914 4.41622e-20)
(-0.118391 0.0830428 0)
(-0.136851 0.0869503 0)
(-0.156287 0.0903277 -4.11755e-20)
(-0.176625 0.0933287 -8.05668e-20)
(-0.197808 0.0960592 7.88777e-20)
(-0.219795 0.0985903 0)
(-0.242561 0.10097 7.5776e-20)
(-0.266092 0.103232 -3.71937e-20)
(-0.290383 0.105403 0)
(-0.315439 0.107506 7.17785e-20)
(-0.341271 0.109562 3.53204e-20)
(-0.367896 0.111597 -6.9521e-20)
(-0.395334 0.113634 -3.42692e-20)
(-0.423605 0.115696 0)
(-0.452729 0.117803 6.66943e-20)
(-0.482722 0.119969 6.5888e-20)
(-0.513595 0.122206 0)
(-0.545345 0.124529 6.4452e-20)
(-0.577952 0.12695 0)
(-0.611385 0.12948 6.3213e-20)
(-0.645545 0.132131 3.13418e-20)
(-0.680179 0.134842 0)
(-0.715123 0.137331 0)
(-0.750559 0.139319 0)
(-0.786484 0.141042 0)
(-0.822449 0.142831 0)
(-0.858083 0.144477 0)
(-0.893357 0.145693 5.84527e-20)
(-0.928254 0.14621 -8.66966e-20)
(-0.962864 0.146166 0)
(-0.996834 0.145959 0)
(-1.03024 0.14467 0)
(-1.06412 0.142305 4.49218e-23)
(-1.09862 0.140544 5.44446e-20)
(-1.13287 0.139433 1.07467e-19)
(-1.16657 0.138413 -1.06148e-19)
(-1.19991 0.137373 -5.2393e-20)
(-1.23296 0.13626 5.1849e-20)
(-1.2658 0.135059 -8.32587e-23)
(-1.29844 0.133774 5.05666e-20)
(-1.33091 0.13241 0)
(-1.36323 0.130974 4.94273e-20)
(-1.39538 0.129474 -9.00272e-23)
(-1.42736 0.127913 0)
(-1.45917 0.126293 0)
(-1.49079 0.124616 -4.73087e-20)
(-1.52221 0.122882 0)
(-1.55341 0.12109 0)
(-1.58438 0.11924 4.57373e-20)
(-1.61508 0.117329 9.07192e-20)
(-1.64551 0.115357 -4.499e-20)
(-1.67564 0.113322 0)
(-1.70544 0.111223 4.40751e-20)
(-1.73489 0.109059 0)
(-1.76397 0.106829 4.2987e-20)
(-1.79265 0.104533 4.27372e-20)
(-1.8209 0.10217 -8.44057e-20)
(-1.84869 0.0997417 -4.16728e-20)
(-1.876 0.0972478 0)
(-1.90279 0.0946894 8.17926e-20)
(-1.92904 0.0920678 0)
(-1.95471 0.0893845 1.20166e-19)
(-1.97978 0.0866413 7.91798e-20)
(-2.00422 0.0838404 7.83026e-20)
(-2.02799 0.0809841 -7.74202e-20)
(-2.05107 0.0780749 1.14874e-19)
(-2.07343 0.0751154 0)
(-2.09503 0.0721085 0)
(-2.11585 0.0690571 -7.38131e-20)
(-2.13586 0.0659641 -1.09394e-19)
(-2.15503 0.0628326 0)
(-2.17332 0.0596655 3.55541e-20)
(-2.19072 0.0564656 0)
(-2.20719 0.0532358 -1.03614e-19)
(-2.22271 0.0499787 -9.02696e-23)
(-2.23726 0.0466967 8.16336e-23)
(-2.25079 0.0433921 6.59919e-20)
(-2.2633 0.0400668 0)
(-2.27476 0.0367225 -6.38633e-20)
(-2.28514 0.033361 -4.44691e-23)
(-2.29442 0.0299838 0)
(-2.30259 0.0265926 0)
(-2.30963 0.0231898 0)
(-2.31552 0.0197792 5.81723e-20)
(-2.32027 0.0163666 0)
(-2.32386 0.0129619 0)
(-2.32629 0.00957986 0)
(-2.32757 0.00623917 0)
(-2.32767 0.00295335 0)
(-2.32656 -0.000275425 5.05129e-20)
(-2.32416 -0.00347989 0)
(-2.32042 -0.00667235 4.76498e-20)
(-2.31533 -0.00984719 4.62118e-20)
(-2.30885 -0.0130011 -4.47482e-20)
(-2.30097 -0.0161308 0)
(-2.29168 -0.0192326 -4.17443e-20)
(-2.28096 -0.0223026 0)
(-2.26881 -0.0253369 -3.8639e-20)
(-2.25521 -0.0283315 3.70492e-20)
(-2.24015 -0.0312825 1.06666e-19)
(-2.22365 -0.0341863 0)
(-2.20569 -0.0370392 9.68134e-20)
(-2.18627 -0.0398377 3.08808e-20)
(-2.16539 -0.0425786 0)
(-2.14306 -0.0452586 5.45085e-20)
(-2.11928 -0.0478747 5.10334e-20)
(-2.09406 -0.0504239 -7.10191e-20)
(-2.06741 -0.0529033 0)
(-2.03934 -0.0553103 -1.99086e-20)
(-2.00986 -0.0576423 -1.80864e-20)
(-1.97899 -0.0598967 -4.934e-20)
(-1.94673 -0.0620713 0)
(-1.91312 -0.0641642 0)
(-1.87818 -0.0661733 0)
(-1.84191 -0.0680972 -9.42231e-21)
(-1.80435 -0.0699342 0)
(-1.76553 -0.0716831 0)
(-1.72546 -0.0733426 3.02318e-21)
(-1.68418 -0.0749114 1.09748e-21)
(-1.64172 -0.0763888 0)
(-1.59811 -0.0777739 0)
(-1.55338 -0.0790664 -9.4119e-21)
(-1.50757 -0.080266 0)
(-1.46071 -0.0813729 1.71668e-20)
(-1.41284 -0.0823873 2.02471e-20)
(-1.36399 -0.0833094 0)
(-1.31421 -0.0841396 0)
(-1.26354 -0.0848787 -3.18026e-20)
(-1.21201 -0.0855277 -8.22719e-22)
(-1.15967 -0.0860882 -8.27836e-22)
(-1.10656 -0.0865614 0)
(-1.05272 -0.086949 -9.48689e-20)
(-0.998183 -0.0872527 0)
(-0.943005 -0.0874746 0)
(-0.887223 -0.087617 0)
(-0.830879 -0.0876826 6.27002e-20)
(-0.774014 -0.0876739 0)
(-0.716668 -0.0875936 -1.38182e-19)
(-0.658883 -0.0874451 -7.34915e-20)
(-0.600697 -0.0872315 0)
(-0.542148 -0.0869562 -8.04891e-20)
(-0.483274 -0.0866227 0)
(-0.424111 -0.0862347 0)
(-0.364691 -0.0857961 -2.70312e-19)
(-0.305048 -0.0853105 1.86253e-19)
(-0.245212 -0.0847817 0)
(-0.185213 -0.0842134 1.99133e-19)
(-0.125078 -0.0836084 -1.03505e-19)
(-0.0648306 -0.0829693 0)
(-0.0044958 -0.0822987 0)
(0.0559041 -0.0815973 0)
(0.116349 -0.0808644 -3.39997e-19)
(0.17682 -0.0800989 0)
(0.237301 -0.0793031 -1.17671e-19)
(0.297786 -0.0784872 0)
(0.358286 -0.0776633 0)
(0.418815 -0.0768414 0)
(0.47936 -0.0760286 0)
(0.539907 -0.0752292 0)
(0.600439 -0.0744354 0)
(0.660936 -0.0736299 -2.57159e-19)
(0.721366 -0.072784 0)
(0.781668 -0.0718507 -1.31918e-19)
(0.841735 -0.0707492 3.98274e-19)
(0.901388 -0.0693299 0)
(0.960261 -0.0673077 0)
(1.01801 -0.0640611 -2.72182e-19)
(1.07292 -0.0584042 -2.757e-19)
(1.12765 -0.0473543 2.77701e-19)
(1.17019 -0.0245526 2.82531e-19)
(-0.00425467 -0.0215962 -2.0466e-19)
(-0.0140761 0.00281565 -1.86844e-19)
(-0.025458 0.02421 -1.11135e-19)
(-0.037625 0.0425799 -5.0857e-20)
(-0.0505536 0.0587705 0)
(-0.0640705 0.0729904 9.11147e-20)
(-0.0782393 0.0853157 -4.38859e-20)
(-0.093188 0.0958496 0)
(-0.109018 0.104768 -4.14034e-20)
(-0.125782 0.112306 0)
(-0.143491 0.118719 7.88446e-20)
(-0.162124 0.124251 0)
(-0.181647 0.129112 3.77056e-20)
(-0.20202 0.133471 7.38348e-20)
(-0.223206 0.137454 -7.23442e-20)
(-0.245177 0.141159 0)
(-0.267908 0.144655 -6.96042e-20)
(-0.291386 0.147994 0)
(-0.3156 0.151218 0)
(-0.340546 0.15436 -6.60464e-20)
(-0.36622 0.157449 0)
(-0.392617 0.160509 3.13603e-24)
(-0.41973 0.163559 0)
(-0.447546 0.166611 0)
(-0.47604 0.16967 -3.50281e-24)
(-0.505181 0.172727 -6.05524e-20)
(-0.53492 0.175767 -5.9788e-20)
(-0.565196 0.178763 -5.90604e-20)
(-0.59593 0.181684 0)
(-0.627026 0.184488 -1.1531e-19)
(-0.658366 0.187129 0)
(-0.689808 0.189533 -5.6289e-20)
(-0.721243 0.191557 0)
(-0.752658 0.193086 0)
(-0.784039 0.194206 5.42162e-20)
(-0.815266 0.195045 0)
(-0.846214 0.195537 -5.28022e-20)
(-0.876865 0.195617 -4.29491e-24)
(-0.907265 0.195277 1.02802e-19)
(-0.93743 0.19454 -1.0141e-19)
(-0.967359 0.193514 0)
(-0.997161 0.192004 0)
(-1.02704 0.190025 -4.86608e-20)
(-1.05705 0.188073 0)
(-1.08701 0.186272 -4.74034e-20)
(-1.11685 0.184525 4.67856e-20)
(-1.14655 0.182786 4.61849e-20)
(-1.17614 0.181022 0)
(-1.20562 0.179215 -4.50323e-20)
(-1.235 0.177354 -4.4479e-20)
(-1.26429 0.175435 8.78071e-20)
(-1.29348 0.173454 -4.34148e-20)
(-1.32258 0.17141 -4.29024e-20)
(-1.35158 0.169301 0)
(-1.38046 0.167125 0)
(-1.40922 0.164881 4.14354e-20)