/*--------------------------------*- C++ -*----------------------------------*\
  =========                 |
  \\      /  F ield         | OpenFOAM: The Open Source CFD Toolbox
   \\    /   O peration     | Website:  https://openfoam.org
    \\  /    A nd           | Version:  12
     \\/     M anipulation  |
\*---------------------------------------------------------------------------*/
FoamFile
{
    format      ascii;
    class       volScalarField;
    location    "2400";
    object      epsilon;
}
// * * * * * * * * * * * * * * * * * * * * * * * * * * * * * * * * * * * * * //

dimensions      [0 2 -3 0 0 0 0];

internalField   nonuniform List<scalar> 
80
(
334.772
131.198
74.7873
50.916
38.0854
30.1429
24.7546
20.8584
17.9063
15.588
13.7157
12.1688
10.8667
9.75353
8.78938
7.94501
7.19859
6.53351
5.93695
5.39891
4.91152
4.46852
4.06491
3.69669
3.36064
3.05421
2.7753
2.52224
2.29366
2.08841
1.90552
1.74411
1.60336
1.48249
1.38073
1.29734
1.23162
1.18294
1.1508
1.13482
1.13482
1.1508
1.18295
1.23162
1.29734
1.38073
1.48249
1.60336
1.74411
1.90552
2.08841
2.29366
2.52224
2.7753
3.05421
3.36065
3.69669
4.06491
4.46852
4.91152
5.39891
5.93694
6.5335
7.19859
7.94501
8.78938
9.75352
10.8667
12.1688
13.7157
15.588
17.9062
20.8584
24.7546
30.1429
38.0854
50.916
74.7873
131.198
334.772
)
;

boundaryField
{
    lowerWall
    {
        type            epsilonWallFunction;
        value           uniform 334.772;
    }
    upperWall
    {
        type            epsilonWallFunction;
        value           uniform 334.772;
    }
    front
    {
        type            cyclic;
    }
    back
    {
        type            cyclic;
    }
    defaultFaces
    {
        type            empty;
    }
}


// ************************************************************************* //
