/*--------------------------------*- C++ -*----------------------------------*\
  =========                 |
  \\      /  F ield         | OpenFOAM: The Open Source CFD Toolbox
   \\    /   O peration     | Website:  https://openfoam.org
    \\  /    A nd           | Version:  12
     \\/     M anipulation  |
\*---------------------------------------------------------------------------*/
FoamFile
{
    format      ascii;
    class       volSymmTensorField;
    location    "2400";
    object      R;
}
// * * * * * * * * * * * * * * * * * * * * * * * * * * * * * * * * * * * * * //

dimensions      [0 2 -2 0 0 0 0];

internalField   nonuniform List<symmTensor> 
80
(
(0.432254 -0.596108 -0 0.432254 -0 0.432254)
(0.430987 -0.199248 -0 0.430987 -0 0.430987)
(0.410453 -0.185797 -0 0.410453 -0 0.410453)
(0.394479 -0.179002 -0 0.394479 -0 0.394479)
(0.380824 -0.173428 -0 0.380824 -0 0.380824)
(0.36841 -0.16833 -0 0.36841 -0 0.36841)
(0.356728 -0.163444 -0 0.356728 -0 0.356728)
(0.345515 -0.158658 -0 0.345515 -0 0.345515)
(0.334623 -0.153919 -0 0.334623 -0 0.334623)
(0.323965 -0.149199 -0 0.323965 -0 0.323965)
(0.313486 -0.144481 -0 0.313486 -0 0.313486)
(0.30315 -0.139755 -0 0.30315 -0 0.30315)
(0.292936 -0.135015 -0 0.292936 -0 0.292936)
(0.28283 -0.130257 -0 0.28283 -0 0.28283)
(0.272825 -0.125478 -0 0.272825 -0 0.272825)
(0.26292 -0.120678 -0 0.26292 -0 0.26292)
(0.253117 -0.115855 -0 0.253117 -0 0.253117)
(0.243424 -0.11101 -0 0.243424 -0 0.243424)
(0.233851 -0.106145 -0 0.233851 -0 0.233851)
(0.22441 -0.101261 -0 0.22441 -0 0.22441)
(0.215121 -0.0963597 -0 0.215121 -0 0.215121)
(0.206002 -0.0914431 -0 0.206002 -0 0.206002)
(0.197078 -0.0865136 -0 0.197078 -0 0.197078)
(0.188377 -0.0815736 -0 0.188377 -0 0.188377)
(0.179928 -0.0766254 -0 0.179928 -0 0.179928)
(0.171765 -0.0716712 -0 0.171765 -0 0.171765)
(0.163927 -0.0667134 -0 0.163927 -0 0.163927)
(0.156451 -0.0617539 -0 0.156451 -0 0.156451)
(0.149378 -0.0567947 -0 0.149378 -0 0.149378)
(0.14275 -0.0518373 -0 0.14275 -0 0.14275)
(0.136607 -0.0468832 -0 0.136607 -0 0.136607)
(0.130987 -0.0419331 -0 0.130987 -0 0.130987)
(0.125925 -0.0369875 -0 0.125925 -0 0.125925)
(0.12145 -0.0320466 -0 0.12145 -0 0.12145)
(0.117586 -0.0271098 -0 0.117586 -0 0.117586)
(0.114349 -0.0221766 -0 0.114349 -0 0.114349)
(0.111752 -0.0172462 -0 0.111752 -0 0.111752)
(0.109802 -0.0123175 -0 0.109802 -0 0.109802)
(0.1085 -0.00739007 -0 0.1085 -0 0.1085)
(0.10785 -0.00246321 -0 0.10785 -0 0.10785)
(0.10785 0.00246348 -0 0.10785 -0 0.10785)
(0.108501 0.00739034 -0 0.108501 -0 0.108501)
(0.109802 0.0123178 -0 0.109802 -0 0.109802)
(0.111752 0.0172464 -0 0.111752 -0 0.111752)
(0.114349 0.0221769 -0 0.114349 -0 0.114349)
(0.117586 0.0271101 -0 0.117586 -0 0.117586)
(0.12145 0.0320468 -0 0.12145 -0 0.12145)
(0.125925 0.0369877 -0 0.125925 -0 0.125925)
(0.130987 0.0419333 -0 0.130987 -0 0.130987)
(0.136607 0.0468834 -0 0.136607 -0 0.136607)
(0.14275 0.0518375 -0 0.14275 -0 0.14275)
(0.149378 0.0567949 -0 0.149378 -0 0.149378)
(0.156451 0.0617541 -0 0.156451 -0 0.156451)
(0.163927 0.0667135 -0 0.163927 -0 0.163927)
(0.171766 0.0716714 -0 0.171766 -0 0.171766)
(0.179928 0.0766255 -0 0.179928 -0 0.179928)
(0.188377 0.0815737 -0 0.188377 -0 0.188377)
(0.197079 0.0865137 -0 0.197079 -0 0.197079)
(0.206002 0.0914432 -0 0.206002 -0 0.206002)
(0.215121 0.0963598 -0 0.215121 -0 0.215121)
(0.224411 0.101261 -0 0.224411 -0 0.224411)
(0.233851 0.106145 -0 0.233851 -0 0.233851)
(0.243424 0.111011 -0 0.243424 -0 0.243424)
(0.253117 0.115855 -0 0.253117 -0 0.253117)
(0.26292 0.120678 -0 0.26292 -0 0.26292)
(0.272825 0.125478 -0 0.272825 -0 0.272825)
(0.28283 0.130257 -0 0.28283 -0 0.28283)
(0.292936 0.135015 -0 0.292936 -0 0.292936)
(0.303151 0.139755 -0 0.303151 -0 0.303151)
(0.313486 0.144481 -0 0.313486 -0 0.313486)
(0.323965 0.149199 -0 0.323965 -0 0.323965)
(0.334623 0.153919 -0 0.334623 -0 0.334623)
(0.345515 0.158658 -0 0.345515 -0 0.345515)
(0.356728 0.163444 -0 0.356728 -0 0.356728)
(0.368411 0.16833 -0 0.368411 -0 0.368411)
(0.380824 0.173428 -0 0.380824 -0 0.380824)
(0.394479 0.179002 -0 0.394479 -0 0.394479)
(0.410453 0.185797 -0 0.410453 -0 0.410453)
(0.430987 0.199248 -0 0.430987 -0 0.430987)
(0.432255 0.596109 -0 0.432255 -0 0.432255)
)
;

boundaryField
{
    lowerWall
    {
        type            calculated;
        value           uniform (0.432254 -0.0982272 -0 0.432254 -0 0.432254);
    }
    upperWall
    {
        type            calculated;
        value           uniform (0.432255 0.0982272 -0 0.432255 -0 0.432255);
    }
    front
    {
        type            cyclic;
    }
    back
    {
        type            cyclic;
    }
    defaultFaces
    {
        type            empty;
    }
}


// ************************************************************************* //
