/*--------------------------------*- C++ -*----------------------------------*\
  =========                 |
  \\      /  F ield         | OpenFOAM: The Open Source CFD Toolbox
   \\    /   O peration     | Website:  https://openfoam.org
    \\  /    A nd           | Version:  12
     \\/     M anipulation  |
\*---------------------------------------------------------------------------*/
FoamFile
{
    format      ascii;
    class       volVectorField;
    location    "2400";
    object      U;
}
// * * * * * * * * * * * * * * * * * * * * * * * * * * * * * * * * * * * * * //

dimensions      [0 1 -1 0 0 0 0];

internalField   nonuniform List<vector> 
80
(
(6.02751 0 0)
(7.15839 0 0)
(7.76494 0 0)
(8.17664 0 0)
(8.48801 0 0)
(8.73891 0 0)
(8.94954 0 0)
(9.13143 0 0)
(9.29177 0 0)
(9.43531 0 0)
(9.56535 0 0)
(9.68426 0 0)
(9.79381 0 0)
(9.89534 0 0)
(9.98989 0 0)
(10.0783 0 0)
(10.1611 0 0)
(10.239 0 0)
(10.3122 0 0)
(10.3812 0 0)
(10.4463 0 0)
(10.5075 0 0)
(10.5651 0 0)
(10.6193 0 0)
(10.67 0 0)
(10.7175 0 0)
(10.7616 0 0)
(10.8025 0 0)
(10.8402 0 0)
(10.8746 0 0)
(10.9058 0 0)
(10.9337 0 0)
(10.9584 0 0)
(10.9799 0 0)
(10.9982 0 0)
(11.0133 0 0)
(11.0253 0 0)
(11.0343 0 0)
(11.0403 0 0)
(11.0432 0 0)
(11.0432 0 0)
(11.0403 0 0)
(11.0343 0 0)
(11.0253 0 0)
(11.0133 0 0)
(10.9982 0 0)
(10.9799 0 0)
(10.9584 0 0)
(10.9337 0 0)
(10.9058 0 0)
(10.8746 0 0)
(10.8402 0 0)
(10.8025 0 0)
(10.7616 0 0)
(10.7175 0 0)
(10.67 0 0)
(10.6193 0 0)
(10.5651 0 0)
(10.5075 0 0)
(10.4463 0 0)
(10.3812 0 0)
(10.3122 0 0)
(10.239 0 0)
(10.1611 0 0)
(10.0783 0 0)
(9.98989 0 0)
(9.89534 0 0)
(9.79381 0 0)
(9.68426 0 0)
(9.56535 0 0)
(9.43531 0 0)
(9.29177 0 0)
(9.13143 0 0)
(8.94954 0 0)
(8.73891 0 0)
(8.48801 0 0)
(8.17664 0 0)
(7.76494 0 0)
(7.1584 0 0)
(6.02751 0 0)
)
;

boundaryField
{
    lowerWall
    {
        type            noSlip;
    }
    upperWall
    {
        type            noSlip;
    }
    front
    {
        type            cyclic;
    }
    back
    {
        type            cyclic;
    }
    defaultFaces
    {
        type            empty;
    }
}


// ************************************************************************* //
