# Probe 0 (0 0 0)
# Time            0                
0                 0                
0.0025            6468.795457      
0.005             5544.191753      
0.0075            4992.576249      
0.01              4777.846219      
0.0125            4674.204181      
0.015             4619.015178      
0.0175            4588.400749      
0.02              4571.099197      
0.0225            4561.17269       
0.025             4555.283217      
0.0275            4551.483385      
0.03              4548.616002      
0.0325            4545.991834      
0.035             4543.206692      
0.0375            4540.033181      
0.04              4536.354606      
0.0425            4532.123658      
0.045             4527.336135      
0.0475            4522.014028      
0.05              4516.194559      
0.0525            4509.923059      
0.055             4503.248361      
0.0575            4496.219855      
0.06              4488.885638      
0.0625            4481.29141       
0.065             4473.479841      
0.0675            4465.490284      
0.07              4457.358677      
0.0725            4449.117596      
0.075             4440.796393      
0.0775            4432.421368      
0.08              4424.015991      
0.0825            4415.601112      
0.085             4407.195187      
0.0875            4398.814489      
0.09              4390.473314      
0.0925            4382.184171      
0.095             4373.957958      
0.0975            4365.804126      
0.1               4357.730829      
0.1025            4349.745058      
0.105             4341.852767      
0.1075            4334.058982      
0.11              4326.367903      
0.1125            4318.782994      
0.115             4311.307066      
0.1175            4303.942348      
0.12              4296.690556      
0.1225            4289.552946      
0.125             4282.530377      
0.1275            4275.623347      
0.13              4268.832044      
0.1325            4262.156377      
0.135             4255.596018      
0.1375            4249.150424      
0.14              4242.818869      
0.1425            4236.600467      
0.145             4230.494194      
0.1475            4224.498907      
0.15              4218.61336       
0.1525            4212.836221      
0.155             4207.166083      
0.1575            4201.601483      
0.16              4196.140902      
0.1625            4190.782784      
0.165             4185.52554       
0.1675            4180.367556      
0.17              4175.307203      
0.1725            4170.342836      
0.175             4165.472806      
0.1775            4160.695461      
0.18              4156.009153      
0.1825            4151.412235      
0.185             4146.903073      
0.1875            4142.480044      
0.19              4138.141535      
0.1925            4133.885953      
0.195             4129.71172       
0.1975            4125.617278      
0.2               4121.601088      
0.2025            4117.661634      
0.205             4113.79742       
0.2075            4110.006976      
0.21              4106.288851      
0.2125            4102.641622      
0.215             4099.063888      
0.2175            4095.554273      
0.22              4092.111426      
0.2225            4088.73402       
0.225             4085.420752      
0.2275            4082.170345      
0.23              4078.981547      
0.2325            4075.853128      
0.235             4072.783884      
0.2375            4069.772634      
0.24              4066.818222      
0.2425            4063.919513      
0.245             4061.075397      
0.2475            4058.284785      
0.25              4055.546614      
0.2525            4052.859838      
0.255             4050.223436      
0.2575            4047.636407      
0.26              4045.097771      
0.2625            4042.60657       
0.265             4040.161864      
0.2675            4037.762733      
0.27              4035.408278      
0.2725            4033.097618      
0.275             4030.829889      
0.2775            4028.604248      
0.28              4026.419868      
0.2825            4024.275939      
0.285             4022.171671      
0.2875            4020.106287      
0.29              4018.079028      
0.2925            4016.089152      
0.295             4014.135931      
0.2975            4012.218652      
0.3               4010.336619      
0.3025            4008.489149      
0.305             4006.675573      
0.3075            4004.895238      
0.31              4003.147502      
0.3125            4001.431738      
0.315             3999.747332      
0.3175            3998.093682      
0.32              3996.470199      
0.3225            3994.876306      
0.325             3993.311438      
0.3275            3991.775041      
0.33              3990.26671       
0.3325            3988.785773      
0.335             3987.331709      
0.3375            3985.904009      
0.34              3984.502175      
0.3425            3983.125717      
0.345             3981.774158      
0.3475            3980.447027      
0.35              3979.143865      
0.3525            3977.864223      
0.355             3976.607658      
0.3575            3975.373737      
0.36              3974.162039      
0.3625            3972.972146      
0.365             3971.803653      
0.3675            3970.656159      
0.37              3969.529275      
0.3725            3968.422617      
0.375             3967.335809      
0.3775            3966.268483      
0.38              3965.220278      
0.3825            3964.19084       
0.385             3963.179823      
0.3875            3962.186886      
0.39              3961.211696      
0.3925            3960.253925      
0.395             3959.313254      
0.3975            3958.389367      
0.4               3957.481957      
0.4025            3956.590721      
0.405             3955.715363      
0.4075            3954.855591      
0.41              3954.011122      
0.4125            3953.181675      
0.415             3952.366976      
0.4175            3951.566756      
0.42              3950.780751      
0.4225            3950.008702      
0.425             3949.250356      
0.4275            3948.505463      
0.43              3947.773779      
0.4325            3947.055065      
0.435             3946.349084      
0.4375            3945.655608      
0.44              3944.974408      
0.4425            3944.305263      
0.445             3943.647956      
0.4475            3943.002272      
0.45              3942.368002      
0.4525            3941.744939      
0.455             3941.132882      
0.4575            3940.531633      
0.46              3939.940998      
0.4625            3939.360784      
0.465             3938.790806      
0.4675            3938.230878      
0.47              3937.68082       
0.4725            3937.140456      
0.475             3936.609611      
0.4775            3936.088116      
0.48              3935.575803      
0.4825            3935.072508      
0.485             3934.57807       
0.4875            3934.092329      
0.49              3933.615131      
0.4925            3933.146324      
0.495             3932.685757      
0.4975            3932.233284      
0.5               3931.78876       
