# Probe 0 (0 0 0)
# Time            0                
0                 100000           
0.0025            102221.0665      
0.005             104217.6766      
0.0075            106034.1627      
0.01              107692.9772      
0.0125            109211.5212      
0.015             110604.9153      
0.0175            111886.2068      
0.02              113066.6943      
0.0225            114156.2162      
0.025             115163.3879      
0.0275            116095.7932      
0.03              116960.1389      
0.0325            117762.3826      
0.035             118507.8366      
0.0375            119201.2549      
0.04              119846.9057      
0.0425            120448.633       
0.045             121009.9073      
0.0475            121533.871       
0.05              122023.3753      
0.0525            122481.013       
0.055             122909.1469      
0.0575            123309.9342      
0.06              123685.3477      
0.0625            124037.1945      
0.065             124367.133       
0.0675            124676.6868      
0.07              124967.2576      
0.0725            125240.137       
0.075             125496.5163      
0.0775            125737.4957      
0.08              125964.0921      
0.0825            126177.2469      
0.085             126377.8318      
0.0875            126566.6554      
0.09              126744.4679      
0.0925            126911.9662      
0.095             127069.798       
0.0975            127218.5659      
0.1               127358.831       
0.1025            127491.1159      
0.105             127615.9079      
0.1075            127733.6616      
0.11              127844.8011      
0.1125            127949.7228      
0.115             128048.797       
0.1175            128142.3701      
0.12              128230.7658      
0.1225            128314.2875      
0.125             128393.219       
0.1275            128467.8265      
0.13              128538.3593      
0.1325            128605.0512      
0.135             128668.1216      
0.1375            128727.7763      
0.14              128784.2088      
0.1425            128837.6004      
0.145             128888.122       
0.1475            128935.9337      
0.15              128981.1864      
0.1525            129024.0219      
0.155             129064.5737      
0.1575            129102.9673      
0.16              129139.321       
0.1625            129173.7462      
0.165             129206.3478      
0.1675            129237.2247      
0.17              129266.47        
0.1725            129294.1717      
0.175             129320.4125      
0.1775            129345.2708      
0.18              129368.8202      
0.1825            129391.1303      
0.185             129412.267       
0.1875            129432.2923      
0.19              129451.2648      
0.1925            129469.2398      
0.195             129486.2698      
0.1975            129502.4042      
0.2               129517.6898      
0.2025            129532.1707      
0.205             129545.8887      
0.2075            129558.8836      
0.21              129571.1925      
0.2125            129582.851       
0.215             129593.8926      
0.2175            129604.349       
0.22              129614.2502      
0.2225            129623.6246      
0.225             129632.4993      
0.2275            129640.8997      
0.23              129648.8501      
0.2325            129656.3732      
0.235             129663.4909      
0.2375            129670.2237      
0.24              129676.5911      
0.2425            129682.6117      
0.245             129688.303       
0.2475            129693.6815      
0.25              129698.7632      
0.2525            129703.563       
0.255             129708.095       
0.2575            129712.3729      
0.26              129716.4093      
0.2625            129720.2165      
0.265             129723.806       
0.2675            129727.1886      
0.27              129730.3749      
0.2725            129733.3747      
0.275             129736.1974      
0.2775            129738.8519      
0.28              129741.3466      
0.2825            129743.6896      
0.285             129745.8886      
0.2875            129747.9508      
0.29              129749.8831      
0.2925            129751.692       
0.295             129753.3839      
0.2975            129754.9646      
0.3               129756.4398      
0.3025            129757.8148      
0.305             129759.0947      
0.3075            129760.2844      
0.31              129761.3885      
0.3125            129762.4113      
0.315             129763.3571      
0.3175            129764.2298      
0.32              129765.0332      
0.3225            129765.7708      
0.325             129766.4461      
0.3275            129767.0623      
0.33              129767.6225      
0.3325            129768.1297      
0.335             129768.5867      
0.3375            129768.9961      
0.34              129769.3604      
0.3425            129769.6821      
0.345             129769.9634      
0.3475            129770.2066      
0.35              129770.4137      
0.3525            129770.5867      
0.355             129770.7275      
0.3575            129770.8378      
0.36              129770.9194      
0.3625            129770.974       
0.365             129771.0029      
0.3675            129771.0078      
0.37              129770.99        
0.3725            129770.9508      
0.375             129770.8915      
0.3775            129770.8134      
0.38              129770.7175      
0.3825            129770.6049      
0.385             129770.4767      
0.3875            129770.3339      
0.39              129770.1774      
0.3925            129770.0081      
0.395             129769.8269      
0.3975            129769.6345      
0.4               129769.4317      
0.4025            129769.2193      
0.405             129768.9979      
0.4075            129768.7682      
0.41              129768.5308      
0.4125            129768.2864      
0.415             129768.0355      
0.4175            129767.7786      
0.42              129767.5162      
0.4225            129767.2488      
0.425             129766.9769      
0.4275            129766.701       
0.43              129766.4213      
0.4325            129766.1384      
0.435             129765.8525      
0.4375            129765.5642      
0.44              129765.2735      
0.4425            129764.981       
0.445             129764.6869      
0.4475            129764.3914      
0.45              129764.0949      
0.4525            129763.7976      
0.455             129763.4997      
0.4575            129763.2015      
0.46              129762.9031      
0.4625            129762.6049      
0.465             129762.3069      
0.4675            129762.0093      
0.47              129761.7124      
0.4725            129761.4162      
0.475             129761.121       
0.4775            129760.8268      
0.48              129760.5339      
0.4825            129760.2422      
0.485             129759.952       
0.4875            129759.6634      
0.49              129759.3763      
0.4925            129759.0911      
0.495             129758.8076      
0.4975            129758.5261      
0.5               129758.2466      
