# Selection :     patch(outlet)
# Faces  :        1
# Area   :        1.0000000000e-01
# Time            	areaAverage(p)
1                 	1.0000000000e+05
