/*--------------------------------*- C++ -*----------------------------------*\
  =========                 |
  \\      /  F ield         | OpenFOAM: The Open Source CFD Toolbox
   \\    /   O peration     | Website:  https://openfoam.org
    \\  /    A nd           | Version:  12
     \\/     M anipulation  |
\*---------------------------------------------------------------------------*/
FoamFile
{
    format      ascii;
    class       volScalarField;
    location    "0.04";
    object      epsilon;
}
// * * * * * * * * * * * * * * * * * * * * * * * * * * * * * * * * * * * * * //

dimensions      [0 2 -3 0 0 0 0];

internalField   nonuniform List<scalar> 
12225
(
278.545
263.737
249.548
236.98
226.904
219.681
215.317
213.584
214.132
216.559
220.466
225.486
231.304
237.658
244.35
251.235
258.325
268.894
61.1932
86.8772
98.2303
107.502
118.849
133.094
150.186
169.73
191.16
213.866
237.267
260.863
284.263
307.193
329.571
351.346
374.154
396.019
25.2889
36.2206
43.4501
48.7203
53.5228
58.525
64.0347
70.1963
77.0434
84.5364
92.5941
101.117
110.003
119.169
128.567
138.202
148.289
159.168
17.5247
21.3092
24.7364
27.6461
30.2155
32.6159
34.9722
37.3733
39.8756
42.509
45.285
48.204
51.2604
54.4494
57.7734
61.2533
64.9411
68.9469
15.4888
16.7555
18.1938
19.603
20.9318
22.1819
23.373
24.5298
25.6741
26.8226
27.9866
29.1739
30.3895
31.6382
32.9262
34.264
35.6679
37.1525
14.9088
15.2408
15.7493
16.3398
16.9573
17.5739
18.1777
18.7665
19.3425
19.9095
20.4713
21.0315
21.5932
22.1595
22.7341
23.3215
23.9271
24.5486
14.7452
14.7395
14.8352
15.0058
15.2256
15.4745
15.7388
16.0097
16.2828
16.5559
16.8283
17.0998
17.3711
17.6431
17.9171
18.1947
18.4777
18.7622
14.7013
14.5827
14.5119
14.4864
14.4995
14.5428
14.6085
14.6902
14.7833
14.8844
14.9912
15.1022
15.2166
15.3339
15.4541
15.5774
15.7039
15.8308
14.6902
14.5373
14.407
14.3009
14.2184
14.1576
14.1156
14.0896
14.0767
14.0746
14.0814
14.0955
14.1159
14.1415
14.1719
14.2066
14.2453
14.286
14.6875
14.5252
14.3761
14.2409
14.1201
14.0133
13.92
13.8389
13.7691
13.7092
13.6583
13.6153
13.5793
13.5495
13.5255
13.5066
13.4924
13.4819
14.6868
14.5221
14.3677
14.2234
14.0892
13.9649
13.8503
13.7449
13.6483
13.5599
13.4791
13.4054
13.3382
13.2772
13.2217
13.1715
13.1262
13.0854
14.6866
14.5213
14.3656
14.2189
14.0809
13.9512
13.8296
13.7156
13.6089
13.5092
13.4161
13.3291
13.2481
13.1725
13.1022
13.0368
12.976
12.92
14.6865
14.521
14.3649
14.2174
14.0782
13.9467
13.8226
13.7053
13.5947
13.4903
13.3917
13.2988
13.2112
13.1286
13.0509
12.9776
12.9087
12.8445
14.6865
14.5209
14.3645
14.2169
14.0773
13.9452
13.8203
13.702
13.5899
13.4838
13.3832
13.2879
13.1976
13.112
13.031
12.9541
12.8814
12.8132
14.6864
14.5208
14.3643
14.2166
14.0768
13.9447
13.8195
13.7009
13.5886
13.482
13.3809
13.2849
13.1939
13.1074
13.0253
12.9473
12.8733
12.8037
14.6864
14.5206
14.3642
14.2163
14.0766
13.9443
13.8191
13.7005
13.5881
13.4815
13.3804
13.2843
13.1932
13.1066
13.0243
12.9461
12.8719
12.8021
14.6863
14.5206
14.364
14.2162
14.0764
13.9441
13.8189
13.7004
13.588
13.4814
13.3803
13.2844
13.1933
13.1068
13.0246
12.9466
12.8724
12.8027
14.6863
14.5205
14.364
14.2161
14.0763
13.944
13.8189
13.7003
13.588
13.4816
13.3806
13.2848
13.1938
13.1075
13.0255
12.9476
12.8736
12.8041
14.6863
14.5205
14.3639
14.216
14.0762
13.9441
13.819
13.7005
13.5883
13.482
13.3811
13.2855
13.1947
13.1085
13.0267
12.949
12.8753
12.8059
14.6863
14.5205
14.3639
14.2161
14.0764
13.9443
13.8193
13.701
13.5889
13.4827
13.3821
13.2866
13.196
13.11
13.0284
12.9509
12.8774
12.8083
14.6863
14.5205
14.364
14.2163
14.0767
13.9447
13.8199
13.7018
13.59
13.4841
13.3837
13.2886
13.1984
13.1129
13.0317
12.9547
12.8817
12.8131
14.6863
14.5206
14.3643
14.2168
14.0777
13.9463
13.8223
13.7051
13.5945
13.49
13.3913
13.2981
13.2099
13.1266
13.0477
12.9732
12.9027
12.8368
14.6864
14.5212
14.366
14.2204
14.084
13.9566
13.8377
13.7267
13.6232
13.5268
13.4368
13.3529
13.2746
13.2015
13.1331
13.0692
13.0094
12.954
14.6876
14.5264
14.3794
14.2468
14.1284
14.0233
13.9305
13.8485
13.7762
13.7123
13.6557
13.6054
13.5606
13.5207
13.4848
13.4527
13.4237
13.3981
14.6976
14.5663
14.4707
14.4074
14.3711
14.356
14.3569
14.3695
14.3903
14.4169
14.4476
14.4808
14.5158
14.5519
14.5885
14.6255
14.6624
14.6993
14.7737
14.8185
14.9599
15.1584
15.3848
15.6205
15.855
16.0829
16.3024
16.5129
16.7149
16.9092
17.0966
17.2778
17.4536
17.6246
17.7912
17.9531
15.259
16.1157
17.0716
17.9722
18.7853
19.5178
20.1833
20.7966
21.3714
21.9184
22.4459
22.9596
23.4639
23.9614
24.4538
24.9419
25.4258
25.9033
18.0435
22.0145
24.9989
27.1627
28.8918
30.3973
31.7887
33.1329
34.4703
35.8227
37.2006
38.6072
40.0413
41.4984
42.9729
44.4583
45.9482
47.4303
34.0434
45.7264
51.4138
54.9632
58.0719
61.2458
64.6388
68.292
72.1865
76.2775
80.513
84.8424
89.2189
93.6009
97.9532
102.248
106.471
110.598
163.316
157.44
151.738
146.303
141.346
136.991
133.286
130.229
127.783
125.892
124.495
123.528
122.928
122.641
122.613
122.8
123.162
123.664
57.1165
90.2676
116.115
134.706
147.219
155.05
159.2
160.388
159.161
155.94
151.039
144.67
137.028
128.892
120.951
112.88
104.537
95.9518
87.3924
79.538
73.7717
72.3981
78.2365
93.2094
116.583
144.616
172.434
195.369
211.886
224.451
246.605
282.399
328.484
382.397
441.647
504.051
567.813
631.508
694.025
754.512
812.329
867.01
918.237
965.816
1009.66
1049.77
1086.22
1119.12
1148.63
1174.92
1198.18
1218.59
1236.35
1251.61
1264.57
1275.37
1284.16
1291.1
1296.31
1299.94
1302.1
1302.91
1302.5
1300.99
1298.48
1295.09
1290.93
1286.11
1280.74
1274.91
1268.74
1262.33
1255.76
1249.15
1242.58
1236.16
1229.96
1224.09
1218.64
1213.71
1209.4
1205.82
1203.11
1201.37
1200.14
1199.39
1199.12
1199.32
1199.95
1200.99
1202.36
1204.02
1205.89
1207.86
1209.83
1211.67
1213.21
1214.27
1214.62
1213.98
1212.06
1208.47
1202.81
1194.59
1183.29
1168.32
1149.1
1125.05
1095.64
1060.45
1019.28
972.173
919.495
862.02
801.021
738.565
678.622
628.992
594.989
564.224
534.471
505.904
478.837
453.507
430.043
408.486
388.804
370.921
354.725
340.091
326.882
314.965
304.208
294.487
285.686
277.698
270.426
263.781
257.684
252.062
246.849
241.988
237.424
233.101
228.959
224.964
221.06
217.222
213.442
209.721
206.062
202.467
198.94
195.482
192.092
188.772
185.518
182.331
179.209
176.151
173.156
170.222
167.348
164.534
161.776
159.073
156.422
153.818
151.254
148.722
146.209
143.698
141.165
138.575
135.878
132.999
129.833
126.155
121.871
115.637
106.866
102.308
101.69
100.281
98.0181
95.2167
92.0551
88.66
85.1483
81.6243
78.172
74.856
71.7693
69.2357
67.4488
66.0796
64.9407
64.0158
63.593
64.5693
68.9139
79.8128
100.538
132.489
174.109
222.116
275.422
323.342
362.846
394.495
419.392
438.605
453.27
464.696
474.001
482.077
489.594
497.008
504.587
512.438
520.553
528.843
537.178
545.411
553.4
561.017
568.159
574.745
580.718
586.038
590.683
594.645
597.923
600.526
602.468
603.766
604.442
604.519
604.023
602.98
601.42
599.37
596.862
593.926
590.595
586.9
582.876
578.556
573.974
569.167
564.17
559.02
553.756
548.417
543.044
537.681
532.375
527.176
522.143
517.338
512.836
508.717
505.073
502.002
499.344
496.996
494.965
493.26
491.887
490.851
490.15
489.779
489.728
489.982
490.52
491.314
492.327
493.512
494.81
496.147
497.427
498.534
499.326
499.625
499.222
497.87
495.287
491.161
485.169
476.99
466.348
453.045
437.011
418.351
397.388
374.709
351.2
327.831
306.864
287.018
267.819
249.47
232.175
216.067
201.209
187.609
175.232
164.016
153.882
144.743
136.51
129.095
122.418
116.4
110.973
106.072
101.642
97.6296
93.9908
90.6846
87.6749
84.9299
82.4221
80.1288
78.0638
76.3493
74.8673
73.5264
72.2889
71.1302
70.0332
68.9852
67.9766
66.9998
66.0488
65.1187
64.206
63.3081
62.4236
61.5518
60.6932
59.8486
59.02
58.2096
57.4205
56.6564
55.9217
55.2216
54.5627
53.9531
53.4036
52.9284
52.5474
52.2901
52.2009
52.3528
52.8652
53.985
56.0579
60.7703
129.222
113.16
105.498
99.9597
95.2076
90.8595
86.7035
82.6496
78.7006
74.9163
71.3883
68.2251
65.5541
63.5748
62.4589
62.2867
63.2774
65.9825
71.6114
82.4416
101.911
133.504
178.12
233.63
293.016
342.887
381.733
407.832
422.022
427.065
426.377
423.055
419.399
416.878
416.264
417.854
421.628
427.36
434.7
443.237
452.553
462.261
472.034
481.611
490.798
499.462
507.515
514.908
521.617
527.637
532.973
537.639
541.653
545.033
547.801
549.978
551.584
552.639
553.165
553.18
552.705
551.759
550.363
548.535
546.296
543.666
540.667
537.321
533.651
529.68
525.436
520.945
516.236
511.342
506.295
501.133
495.893
490.615
485.341
480.113
474.974
469.96
465.107
460.438
455.966
451.669
447.537
443.592
439.866
436.386
433.184
430.287
427.723
425.516
423.689
422.258
421.238
420.632
420.435
420.628
421.177
422.021
423.075
424.215
425.274
426.037
426.236
425.547
423.602
420.003
414.353
406.301
395.586
382.098
365.912
347.311
326.766
305.121
284.599
264.515
244.982
226.288
208.673
192.288
177.206
163.436
150.94
139.651
129.48
120.335
112.118
104.737
98.103
92.1363
86.7634
81.9186
77.5431
73.5852
69.9986
66.7428
63.7818
61.084
58.6213
56.3696
54.309
52.4264
50.7161
49.1677
47.7458
46.4318
45.2101
44.0675
42.9928
41.976
41.0089
40.0841
39.1954
38.3374
37.5059
36.6973
35.9087
35.1382
34.3843
33.6462
32.9236
32.2168
31.5266
30.8543
30.2021
29.5728
28.9708
28.4018
27.8744
27.4014
27.0025
26.7106
26.5819
26.7281
27.3617
29.0411
144.139
117.51
107.403
101.464
96.7993
92.5668
88.457
84.3814
80.3716
76.5335
73.0256
70.0528
67.879
66.878
67.22
69.2481
73.6277
81.6357
95.4717
118.188
153.21
202.857
259.17
313.877
359.527
390.577
406.67
410.314
405.689
397.206
388.414
381.584
377.821
377.421
380.21
385.784
393.652
403.301
414.237
426.009
438.223
450.551
462.73
474.56
485.897
496.641
506.73
516.126
524.811
532.783
540.047
546.614
552.501
557.726
562.306
566.263
569.615
572.381
574.58
576.231
577.352
577.96
578.073
577.707
576.879
575.607
573.908
571.799
569.298
566.423
563.193
559.628
555.749
551.577
547.133
542.442
537.525
532.406
527.109
521.656
516.069
510.369
504.58
498.726
492.835
486.954
481.065
475.191
469.37
463.641
458.049
452.638
447.456
442.55
437.969
433.759
429.966
426.63
423.785
421.453
419.644
418.345
417.515
417.079
416.913
416.838
416.612
415.922
414.387
411.572
407.01
400.252
390.915
378.751
363.694
345.877
325.641
304.663
283.898
263.269
243.129
223.834
205.652
188.752
173.213
159.046
146.209
134.629
124.214
114.861
106.469
98.9394
92.1788
86.1028
80.6349
75.7066
71.2571
67.2326
63.5859
60.2752
57.2637
54.519
52.0124
49.7186
47.6153
45.6828
43.9048
42.2707
40.7659
39.3722
38.076
36.8653
35.7293
34.6586
33.6447
32.6802
31.7583
30.8733
30.0201
29.1943
28.3923
27.6109
26.8478
26.101
25.3692
24.6513
23.947
23.2562
22.5795
21.9181
21.2736
20.649
20.0483
19.4781
18.948
18.4741
18.0832
17.8261
17.7934
18.1726
157.243
124.707
113.954
107.927
103.275
99.0521
94.93
90.8266
86.7975
82.998
79.6737
77.1744
76.0075
76.527
79.1688
84.6129
93.9996
109.234
133.189
166.387
208.85
257.349
304.798
344.187
370.777
383.288
384.048
377.339
367.687
358.639
352.326
349.64
350.657
355.029
362.248
371.781
383.125
395.823
409.467
423.703
438.225
452.778
467.154
481.19
494.757
507.761
520.135
531.832
542.824
553.095
562.639
571.459
579.563
586.961
593.668
599.701
605.076
609.81
613.922
617.429
620.348
622.697
624.492
625.748
626.483
626.71
626.444
625.7
624.491
622.831
620.732
618.208
615.271
611.933
608.205
604.1
599.628
594.8
589.628
584.123
578.297
572.164
565.743
559.055
552.125
544.993
537.667
530.166
522.525
514.784
506.989
499.189
491.438
483.795
476.32
469.078
462.134
455.553
449.4
443.732
438.599
434.032
430.042
426.605
423.656
421.071
418.659
416.149
413.188
409.342
404.124
397.03
387.6
375.493
360.548
342.792
322.946
302.63
281.921
261.218
240.973
221.577
203.309
186.343
170.76
156.567
143.719
132.139
121.73
112.388
104.008
96.4877
89.7349
83.6635
78.1965
73.2654
68.8096
64.7756
61.1163
57.7903
54.7614
51.9974
49.47
47.1541
45.0275
43.0703
41.265
39.5971
38.0548
36.6232
35.29
34.0438
32.8747
31.7736
30.7323
29.7435
28.8006
27.8976
27.0293
26.1911
25.3791
24.5898
23.8203
23.0682
22.3318
21.6096
20.9006
20.2043
19.5206
18.8498
18.1927
17.5508
16.9264
16.3232
15.7464
15.2049
14.7126
14.2944
13.9905
13.8714
167.833
136.923
125.792
119.046
113.968
109.576
105.444
101.43
97.5843
94.1077
91.3442
89.8056
90.2457
92.9889
98.823
108.574
123.359
144.372
172.401
206.759
245.115
283.238
315.902
338.986
350.872
352.777
347.981
340.371
333.199
328.513
327.213
329.412
334.811
342.957
353.377
365.635
379.339
394.142
409.736
425.845
442.228
458.676
475.009
491.074
506.748
521.927
536.534
550.506
563.799
576.382
588.235
599.347
609.716
619.343
628.235
636.404
643.861
650.622
656.701
662.114
666.879
671.01
674.524
677.436
679.76
681.51
682.699
683.337
683.437
683.007
682.056
680.592
678.621
676.148
673.178
669.715
665.762
661.322
656.399
650.996
645.12
638.778
631.98
624.742
617.081
609.017
600.567
591.752
582.602
573.154
563.447
553.528
543.449
533.269
523.05
512.863
502.784
492.892
483.269
474.001
465.167
456.841
449.079
441.915
435.343
429.306
423.681
418.265
412.762
406.773
399.826
391.41
381.008
368.232
352.865
334.954
315.915
295.949
275.483
255.026
235.058
215.97
198.035
181.42
166.194
152.354
139.848
128.592
118.484
109.416
101.283
93.9844
87.4262
81.5246
76.2043
71.399
67.0499
63.1057
59.5212
56.2569
53.2781
50.5542
48.0583
45.7666
43.6578
41.713
39.9156
38.2506
36.7055
35.2678
33.9261
32.6702
31.4908
30.3795
29.3284
28.3307
27.3798
26.4702
25.5966
24.7545
23.9397
23.1488
22.3788
21.6272
20.8918
20.171
19.4637
18.7689
18.0864
17.416
16.7581
16.1136
15.4838
14.8709
14.2783
13.7112
13.1776
12.6907
12.27
11.9447
173.278
155.683
142.266
133.58
127.688
123.152
119.221
115.609
112.337
109.655
108.022
108.101
110.303
115.156
123.422
135.813
152.906
174.909
201.305
230.487
259.765
285.791
305.501
317.238
321.309
319.722
315.321
310.786
308.013
307.985
310.979
316.857
325.302
335.948
348.446
362.476
377.753
394.015
411.025
428.563
446.428
464.438
482.426
500.246
517.772
534.892
551.515
567.565
582.981
597.717
611.737
625.016
637.539
649.298
660.29
670.519
679.989
688.713
696.699
703.963
710.517
716.376
721.555
726.066
729.923
733.138
735.723
737.686
739.038
739.783
739.929
739.479
738.435
736.799
734.57
731.749
728.333
724.32
719.708
714.497
708.687
702.278
695.276
687.686
679.516
670.773
661.467
651.625
641.274
630.443
619.167
607.484
595.441
583.091
570.493
557.717
544.837
531.939
519.112
506.453
494.063
482.043
470.486
459.472
449.05
439.222
429.937
421.067
412.397
403.583
394.191
383.756
371.712
357.708
341.533
323.912
305.016
285.225
265.033
244.96
225.473
206.94
189.613
173.634
159.052
145.846
133.949
123.269
113.696
105.119
97.4319
90.5337
84.3332
78.7489
73.7086
69.149
65.0147
61.2574
57.8351
54.711
51.8529
49.2326
46.8253
44.609
42.5642
40.6736
38.9217
37.2946
35.7802
34.3667
33.0441
31.8035
30.6363
29.5347
28.4919
27.5011
26.5566
25.6528
24.7849
23.9485
23.1396
22.3548
21.5911
20.846
20.1173
19.4034
18.7028
18.0148
17.3387
16.6742
16.0215
15.381
14.7538
14.1413
13.5456
12.9702
12.42
11.9027
11.4286
11.011
170.092
181.326
161.375
149.743
143.055
138.645
135.265
132.433
130.099
128.499
128.089
129.479
132.767
138.64
147.679
160.26
176.433
195.768
217.214
239.076
259.225
275.589
286.775
292.558
293.932
292.695
290.819
289.908
290.968
294.443
300.389
308.655
319.003
331.182
344.948
360.075
376.352
393.58
411.568
430.135
449.106
468.317
487.613
506.849
525.897
544.639
562.972
580.808
598.072
614.702
630.648
645.871
660.344
674.046
686.964
699.091
710.428
720.975
730.741
739.732
747.96
755.435
762.169
768.174
773.462
778.042
781.924
785.116
787.626
789.458
790.616
791.101
790.915
790.055
788.518
786.302
783.401
779.811
775.526
770.541
764.852
758.456
751.353
743.541
735.026
725.78
715.832
705.21
693.936
682.034
669.531
656.459
642.859
628.777
614.268
599.394
584.226
568.844
553.337
537.802
522.345
507.078
492.116
477.57
463.527
450.032
437.085
424.629
412.553
400.57
388.272
375.347
361.117
345.658
328.861
310.774
291.632
271.83
251.849
232.18
213.254
195.397
178.826
163.645
149.875
137.471
126.348
116.4
107.51
99.5636
92.4515
86.0743
80.3428
75.1786
70.5131
66.2866
62.4476
58.9515
55.7597
52.8386
50.159
47.6955
45.4256
43.3296
41.3901
39.5914
37.9198
36.3627
34.9086
33.547
32.2693
31.0673
29.9337
28.8616
27.8445
26.8768
25.9529
25.0679
24.2174
23.3971
22.6035
21.8332
21.0834
20.3517
19.6359
18.9345
18.2461
17.5696
16.9046
16.2506
15.6076
14.976
14.3564
13.7499
13.158
12.5831
12.0285
11.499
11.0004
10.5397
176.038
199.553
177.313
164.812
158.286
154.55
152.1
150.319
149.078
148.553
149.122
150.908
154.347
159.985
168.19
179.063
192.359
207.428
223.216
238.384
251.553
261.657
268.263
271.708
272.972
273.339
274.036
275.978
279.702
285.43
293.171
302.823
314.234
327.24
341.676
357.38
374.194
391.962
410.529
429.738
449.437
469.473
489.701
509.981
530.182
550.181
569.87
589.147
607.928
626.138
643.713
660.602
676.764
692.165
706.783
720.602
733.609
745.802
757.178
767.741
777.496
786.449
794.609
801.984
808.584
814.416
819.488
823.807
827.377
830.203
832.287
833.629
834.227
834.079
833.181
831.528
829.112
825.927
821.966
817.221
811.686
805.354
798.22
790.279
781.532
771.938
761.538
750.357
738.413
725.728
712.323
698.228
683.475
668.106
652.171
635.726
618.835
601.57
584.01
566.242
548.364
530.482
512.711
495.187
478.018
461.266
444.951
429.046
413.594
398.37
382.892
367.212
350.949
333.833
315.746
296.747
277.068
257.076
237.215
217.921
199.571
182.437
166.685
152.376
139.494
127.968
117.693
108.548
100.408
93.155
86.6778
80.8784
75.6699
70.9773
66.7355
62.8891
59.3903
56.1982
53.2777
50.5987
48.1348
45.8633
43.7644
41.8206
40.0164
38.3381
36.7735
35.3114
33.9414
32.6543
31.4425
30.2992
29.2177
28.1922
27.2169
26.2868
25.397
24.5431
23.721
22.9271
22.158
21.4106
20.6824
19.9711
19.2747
18.5917
17.9207
17.2609
16.6117
15.9726
15.3436
14.7249
14.1171
13.5209
12.9377
12.369
11.8172
11.2855
10.7777
10.2977
175.045
231.898
193.958
178.653
172.224
169.362
168.019
167.372
167.164
167.443
168.435
170.138
173.08
177.669
184.13
192.444
202.3
213.103
224.036
234.196
242.797
249.367
253.88
256.761
258.742
260.654
263.237
267.029
272.348
279.332
288.002
298.305
310.156
323.452
338.083
353.932
370.88
388.802
407.566
427.039
447.084
467.563
488.337
509.272
530.238
551.111
571.776
592.126
612.067
631.514
650.391
668.637
686.197
703.027
719.093
734.368
748.832
762.47
775.275
787.24
798.366
808.654
818.108
826.731
834.529
841.509
847.674
853.029
857.578
861.323
864.265
866.402
867.733
868.254
867.96
866.844
864.899
862.117
858.49
854.008
848.665
842.451
835.359
827.384
818.511
808.721
798.049
786.517
774.145
760.951
746.953
732.178
716.654
700.418
683.514
665.999
647.928
629.36
610.362
591.006
571.37
551.534
531.59
511.695
491.982
472.497
453.257
434.154
415.48
397.14
378.846
360.448
341.726
322.52
302.777
282.583
262.167
241.862
222.054
203.115
185.347
168.957
154.05
140.64
128.671
118.043
108.63
100.299
92.9176
86.3642
80.5282
75.3129
70.6344
66.4212
62.6124
59.1563
56.0091
53.1335
50.498
48.0753
45.8422
43.7785
41.8666
40.0912
38.4387
36.8971
35.4556
34.1045
32.834
31.6367
30.506
29.4359
28.4206
27.455
26.5342
25.6536
24.809
23.9966
23.2128
22.4543
21.718
21.0013
20.3018
19.6174
18.9465
18.2875
17.6392
17.0009
16.3719
15.752
15.141
14.5392
13.9469
13.3649
12.7942
12.236
11.6922
11.165
10.657
10.1707
795.767
279.002
207.263
189.166
183.246
181.465
181.32
181.828
182.61
183.601
184.646
186.114
188.373
191.717
196.307
202.118
208.912
216.263
223.626
230.451
236.314
241.023
244.664
247.574
250.243
253.196
256.892
261.675
267.762
275.267
284.227
294.632
306.441
319.595
334.022
349.639
366.354
384.065
402.662
422.029
442.045
462.584
483.517
504.716
526.054
547.409
568.664
589.709
610.442
630.771
650.612
669.892
688.547
706.522
723.773
740.261
755.956
770.835
784.88
798.079
810.424
821.909
832.532
842.293
851.192
859.232
866.413
872.738
878.209
882.824
886.584
889.487
891.529
892.705
893.01
892.437
890.978
888.625
885.368
881.199
876.108
870.089
863.134
855.239
846.364
836.535
825.775
814.104
801.539
788.098
773.8
758.667
742.723
725.997
708.529
690.387
671.614
652.253
632.358
611.98
591.177
569.994
548.438
526.694
504.97
483.245
461.555
439.93
418.458
397.117
375.832
354.533
333.145
311.636
290.048
268.519
247.277
226.619
206.863
188.297
171.142
155.526
141.489
128.991
117.938
108.202
99.6378
92.1017
85.4569
79.5793
74.3601
69.7051
65.5344
61.7806
58.387
55.306
52.4977
49.9287
47.5704
45.3988
43.3932
41.5358
39.8113
38.2062
36.7086
35.308
33.9951
32.761
31.5968
30.4968
29.4552
28.4666
27.526
26.6289
25.771
24.9482
24.157
23.3939
22.6557
21.9396
21.2428
20.5631
19.8983
19.2466
18.6064
17.9763
17.3554
16.743
16.1384
15.5416
14.9523
14.3708
13.7975
13.2331
12.6783
12.1343
11.6025
11.0845
10.5823
10.0979
181.011
242.901
208.034
194.535
190.136
189.561
190.597
192.219
193.946
195.518
196.939
198.455
200.326
202.783
205.971
209.912
214.484
219.437
224.451
229.209
233.483
237.191
240.417
243.393
246.435
249.884
254.046
259.167
265.415
272.897
281.667
291.745
303.121
315.769
329.644
344.692
360.836
377.993
396.072
414.973
434.592
454.814
475.522
496.597
517.918
539.367
560.827
582.187
603.343
624.196
644.658
664.646
684.089
702.921
721.088
738.542
755.243
771.157
786.259
800.526
813.943
826.496
838.176
848.978
858.896
867.928
876.071
883.324
889.684
895.149
899.717
903.385
906.146
907.996
908.929
908.936
908.01
906.142
903.323
899.543
894.796
889.073
882.368
874.668
865.959
856.267
845.612
834.012
821.484
808.047
793.72
778.523
762.477
745.599
727.893
709.497
690.417
670.678
650.316
629.364
607.857
585.826
563.306
540.377
517.11
493.54
469.71
445.673
421.502
397.251
372.973
348.735
324.623
300.755
277.291
254.426
232.395
211.445
191.814
173.696
157.219
142.429
129.295
117.727
107.592
98.7357
90.9992
84.23
78.2884
73.0513
68.4126
64.2822
60.5849
57.2579
54.2492
51.5156
49.0212
46.7361
44.6351
42.697
40.9037
39.2398
37.6919
36.2483
34.8986
33.6339
32.4457
31.3262
30.2674
29.265
28.3138
27.409
26.5461
25.721
24.9298
24.1692
23.4358
22.7265
22.0387
21.3696
20.7171
20.0789
19.4532
18.8383
18.2328
17.6357
17.046
16.4631
15.8864
15.3159
14.7516
14.1935
13.6423
13.0983
12.5625
12.0357
11.5191
11.0142
10.5222
10.045
180.988
245.197
209.407
196.188
192.541
192.924
195.012
197.698
200.408
202.868
205.079
207.144
209.228
211.5
214.098
217.083
220.428
224.019
227.692
231.275
234.645
237.765
240.697
243.597
246.679
250.178
254.322
259.303
265.271
272.326
280.535
289.94
300.555
312.378
325.391
339.569
354.843
371.119
388.338
406.422
425.279
444.814
464.92
485.488
506.407
527.563
548.846
570.145
591.356
612.379
633.118
653.489
673.41
692.81
711.624
729.796
747.275
764.021
779.995
795.168
809.514
823.013
835.647
847.404
858.272
868.243
877.309
885.464
892.702
899.019
904.408
908.863
912.378
914.947
916.561
917.212
916.892
915.591
913.301
910.014
905.722
900.417
894.096
886.742
878.369
868.995
858.637
847.314
835.041
821.839
807.728
792.727
776.859
760.145
742.614
724.314
705.269
685.498
665.016
643.837
621.968
599.413
576.176
552.272
527.714
502.522
476.728
450.395
423.62
396.534
369.315
342.187
315.412
289.275
264.055
240.004
217.346
196.265
176.907
159.363
143.664
129.771
117.587
106.972
97.7582
89.7717
82.8415
76.8103
71.5385
66.9058
62.8105
59.168
55.9082
52.9738
50.3175
47.9008
45.6917
43.6641
41.7961
40.0692
38.468
36.9792
35.5914
34.2946
33.0799
31.9396
30.8664
29.8531
28.893
27.983
27.1182
26.2942
25.507
24.7528
24.0282
23.3301
22.6555
22.0016
21.3658
20.746
20.1399
19.5457
18.9617
18.3863
17.8184
17.2569
16.701
16.1502
15.6041
15.0626
14.5257
13.9936
13.4668
12.9458
12.4314
11.9244
11.4258
10.9367
10.4585
9.99245
806.977
287.877
211.879
194.241
190.421
191.428
194.397
198.099
201.959
205.675
209.129
212.322
215.326
218.246
221.185
224.211
227.339
230.534
233.722
236.82
239.769
242.56
245.248
247.949
250.827
254.064
257.848
262.358
267.756
274.093
281.455
289.903
299.474
310.184
322.029
334.992
349.034
364.101
380.137
397.073
414.836
433.341
452.496
472.203
492.36
512.863
533.608
554.487
575.4
596.245
616.928
637.358
657.451
677.128
696.317
714.955
732.982
750.348
767.005
782.916
798.046
812.365
825.848
838.474
850.224
861.084
871.04
880.081
888.195
895.374
901.609
906.89
911.208
914.556
916.922
918.299
918.677
918.046
916.399
913.725
910.019
905.275
899.488
892.662
884.809
875.944
866.084
855.244
843.442
830.698
817.031
802.461
787.007
770.691
753.532
735.554
716.768
697.179
676.783
655.567
633.509
610.577
586.737
561.952
536.196
509.458
481.758
453.17
423.832
393.965
363.884
333.989
304.732
276.563
249.864
224.921
201.919
180.961
162.089
145.287
130.49
117.579
106.397
96.7604
88.4741
81.3473
75.2025
69.8815
65.2476
61.1854
57.5993
54.4106
51.5555
48.982
46.6482
44.5201
42.5698
40.7748
39.1162
37.5787
36.149
34.8162
33.5707
32.4042
31.3094
30.2797
29.3088
28.3898
27.5188
26.6924
25.9063
25.1567
24.4397
23.752
23.0904
22.452
21.8341
21.2341
20.6497
20.0788
19.5193
18.9695
18.4279
17.8931
17.3639
16.8394
16.3188
15.8018
15.2879
14.7771
14.2694
13.7651
13.2646
12.7684
12.2773
11.7921
11.3136
10.8428
10.3809
9.92902
779.754
278.456
204.088
187.083
183.825
185.471
189.258
194.071
199.261
204.477
209.534
214.353
218.926
223.278
227.448
231.466
235.339
239.047
242.553
245.816
248.817
251.57
254.135
256.628
259.211
262.017
265.226
269.009
273.51
278.833
285.07
292.291
300.549
309.874
320.28
331.766
344.311
357.884
372.442
387.933
404.295
421.457
439.34
457.86
476.925
496.442
516.312
536.437
556.718
577.059
597.365
617.544
637.509
657.178
676.473
695.324
713.665
731.436
748.583
765.058
780.817
795.823
810.041
823.443
836.002
847.695
858.503
868.408
877.393
885.444
892.547
898.691
903.862
908.049
911.241
913.426
914.595
914.737
913.843
911.904
908.914
904.868
899.774
893.639
886.471
878.285
869.093
858.912
847.758
835.648
822.599
808.629
793.753
777.984
761.333
743.803
725.393
706.086
685.855
664.659
642.445
619.144
594.681
568.98
541.977
513.637
483.975
453.085
421.169
388.562
355.739
323.296
291.876
262.07
234.326
208.919
185.959
165.45
147.322
131.457
117.7
105.863
95.7361
87.1017
79.7447
73.465
68.0831
63.4438
59.4162
55.8919
52.7823
50.016
47.5356
45.2949
43.2571
41.3927
39.6779
38.0935
36.6239
35.2563
33.9799
32.7858
31.6663
30.6147
29.6252
28.6922
27.8106
26.974
26.1811
25.4282
24.7117
24.0279
23.3736
22.7458
22.1414
21.5578
20.9924
20.4428
19.9068
19.3824
18.8677
18.361
17.8609
17.3661
16.8754
16.3879
15.903
15.4202
14.9391
14.4598
13.9823
13.5068
13.0338
12.5637
12.0973
11.6353
11.1785
10.7278
10.2841
9.8487
829.709
268.975
192.122
176.046
173.593
176.042
180.82
186.803
193.404
200.279
207.213
214.07
220.766
227.241
233.451
239.348
244.884
250.003
254.651
258.79
262.407
265.546
268.239
270.622
272.864
275.136
277.617
280.481
283.882
287.953
292.804
298.526
305.188
312.841
321.516
331.228
341.976
353.746
366.511
380.235
394.868
410.356
426.632
443.625
461.256
479.44
498.091
517.118
536.429
555.931
575.533
595.144
614.677
634.047
653.173
671.979
690.394
708.351
725.787
742.647
758.879
774.436
789.274
803.357
816.65
829.122
840.746
851.496
861.349
870.287
878.288
885.337
891.416
896.51
900.605
903.688
905.746
906.768
906.743
905.661
903.517
900.32
896.074
890.782
884.453
877.096
868.723
859.348
848.983
837.643
825.339
812.084
797.885
782.746
766.663
749.625
731.607
712.573
692.47
671.226
648.753
624.949
599.701
572.9
544.454
514.316
482.513
449.187
414.635
379.341
343.973
309.332
276.231
245.351
217.143
191.81
169.357
149.671
132.573
117.853
105.277
94.6027
85.5799
77.9666
71.5366
66.0873
61.443
57.4554
54.002
50.9834
48.3194
45.9461
43.8129
41.8797
40.1146
38.4925
36.9936
35.6017
34.3042
33.0908
31.9529
30.8836
29.8768
28.9276
28.0312
27.1836
26.3803
25.6162
24.8917
24.2034
23.548
22.9223
22.3236
21.7488
21.1956
20.6612
20.1434
19.6398
19.1485
18.6674
18.1947
17.7289
17.2685
16.8121
16.3588
15.9076
15.4578
15.009
14.5608
14.1132
13.6661
13.22
12.775
12.3319
11.891
11.4533
11.0193
10.59
10.1662
9.74884
169.067
211.189
175.133
163.938
162.728
166.032
171.725
178.831
186.825
195.383
204.282
213.351
222.444
231.427
240.169
248.537
256.4
263.632
270.121
275.812
280.572
284.479
287.633
290.176
292.283
294.144
295.955
297.909
300.185
302.943
306.319
310.428
315.365
321.2
327.985
335.754
344.525
354.3
365.069
376.808
389.487
403.06
417.478
432.68
448.601
465.168
482.305
499.929
517.957
536.304
554.881
573.603
592.384
611.138
629.785
648.244
666.441
684.304
701.764
718.759
735.229
751.119
766.379
780.963
794.829
807.936
820.25
831.739
842.372
852.122
860.965
868.878
875.838
881.826
886.824
890.816
893.785
895.719
896.605
896.433
895.209
892.936
889.612
885.239
879.823
873.368
865.883
857.377
847.859
837.336
825.813
813.295
799.777
785.251
769.698
753.086
735.37
716.487
696.357
674.875
651.921
627.357
601.039
572.83
542.625
510.384
476.173
440.222
402.968
365.091
327.486
291.151
257.019
225.785
197.82
173.196
151.786
133.351
117.614
104.282
93.0617
83.6658
75.8181
69.2635
63.7741
59.1524
55.2323
51.8767
48.9747
46.4377
44.1952
42.1918
40.384
38.7379
37.2267
35.8296
34.5304
33.3163
32.1772
31.1051
30.0936
29.1374
28.2324
27.3747
26.5613
25.7889
25.0542
24.3547
23.6901
23.0576
22.4545
21.8783
21.3266
20.797
20.2871
19.7948
19.3178
18.854
18.4015
17.9585
17.5232
17.0939
16.6694
16.2482
15.8294
15.4119
14.9952
14.5786
14.1618
13.7448
13.3274
12.91
12.4928
12.0763
11.6611
11.2478
10.8372
10.4299
10.0268
9.6286
168.155
202.143
165.346
154.657
154.176
158.325
165.017
173.334
182.796
193.107
204.045
215.418
227.038
238.71
250.226
261.371
271.93
281.697
290.392
297.86
304.084
309.108
313.028
315.987
318.169
319.782
321.043
322.172
323.375
324.845
326.748
329.229
332.409
336.385
341.232
347.004
353.738
361.452
370.154
379.833
390.471
402.039
414.496
427.795
441.881
456.692
472.161
488.216
504.78
521.776
539.12
556.732
574.528
592.425
610.342
628.2
645.92
663.427
680.651
697.522
713.975
729.95
745.39
760.241
774.453
787.981
800.782
812.816
824.048
834.443
843.969
852.599
860.305
867.064
872.852
877.649
881.437
884.199
885.921
886.599
886.238
884.831
882.373
878.862
874.298
868.684
862.022
854.314
845.564
835.772
824.933
813.039
800.076
786.017
770.827
754.454
736.829
717.863
697.445
675.441
651.7
626.055
598.338
568.4
536.144
501.566
464.812
426.242
386.487
346.455
307.261
270.049
235.773
205.035
178.047