/*--------------------------------*- C++ -*----------------------------------*\
  =========                 |
  \\      /  F ield         | OpenFOAM: The Open Source CFD Toolbox
   \\    /   O peration     | Website:  https://openfoam.org
    \\  /    A nd           | Version:  12
     \\/     M anipulation  |
\*---------------------------------------------------------------------------*/
FoamFile
{
    format      ascii;
    class       volScalarField;
    location    "0.04";
    object      k;
}
// * * * * * * * * * * * * * * * * * * * * * * * * * * * * * * * * * * * * * //

dimensions      [0 2 -2 0 0 0 0];

internalField   nonuniform List<scalar> 
12225
(
0.353958
0.335142
0.317111
0.301139
0.288335
0.279156
0.273607
0.271402
0.272093
0.27517
0.280126
0.286495
0.293875
0.301935
0.310422
0.319146
0.328154
0.341473
0.437098
0.449458
0.438627
0.433637
0.439449
0.454426
0.475926
0.501511
0.529195
0.557495
0.585381
0.612193
0.637557
0.661322
0.683586
0.704385
0.725879
0.744174
0.395198
0.410944
0.41077
0.405931
0.402235
0.401203
0.402976
0.40729
0.413732
0.421853
0.431226
0.441481
0.452315
0.463503
0.474919
0.486495
0.498581
0.510931
0.379647
0.384861
0.386591
0.385798
0.383994
0.382137
0.380704
0.379912
0.379829
0.380441
0.38169
0.383499
0.385795
0.388514
0.391615
0.395088
0.399009
0.403363
0.374979
0.375908
0.376254
0.375742
0.374598
0.373118
0.371538
0.37002
0.368661
0.367516
0.366605
0.365931
0.365488
0.365267
0.365262
0.365474
0.365921
0.366585
0.37349
0.372557
0.371761
0.370809
0.369634
0.368277
0.366811
0.365302
0.363807
0.362365
0.361003
0.359738
0.358578
0.357529
0.356594
0.355777
0.355082
0.354504
0.373013
0.371296
0.369811
0.368412
0.367018
0.365598
0.364152
0.36269
0.361231
0.359792
0.35839
0.357035
0.355736
0.354499
0.353329
0.352229
0.351203
0.350255
0.372866
0.370838
0.369002
0.367304
0.3657
0.364157
0.362655
0.361184
0.359742
0.358332
0.356957
0.355621
0.354327
0.35308
0.351881
0.350733
0.349639
0.348607
0.372821
0.370681
0.368689
0.36683
0.365083
0.36343
0.361853
0.360341
0.358883
0.357476
0.356116
0.354801
0.353532
0.352308
0.35113
0.349996
0.34891
0.34788
0.372807
0.370628
0.368576
0.366642
0.364818
0.363093
0.361457
0.359899
0.358413
0.35699
0.355626
0.354317
0.35306
0.351853
0.350694
0.349582
0.348515
0.347505
0.372802
0.37061
0.368536
0.366572
0.364711
0.362949
0.361276
0.359687
0.358174
0.356733
0.355357
0.354043
0.352786
0.351584
0.350434
0.349333
0.348281
0.347287
0.3728
0.370604
0.368521
0.366547
0.364673
0.362894
0.361205
0.359599
0.358072
0.356617
0.355232
0.35391
0.352649
0.351446
0.350297
0.3492
0.348153
0.347166
0.372798
0.3706
0.368514
0.366535
0.364655
0.36287
0.361172
0.359558
0.358022
0.35656
0.355167
0.35384
0.352575
0.351369
0.350218
0.349122
0.348076
0.347092
0.372797
0.370597
0.36851
0.366528
0.364645
0.362857
0.361156
0.359537
0.357997
0.356531
0.355134
0.353804
0.352536
0.351328
0.350176
0.349079
0.348033
0.34705
0.372796
0.370595
0.368506
0.366523
0.364639
0.362849
0.361147
0.359527
0.357986
0.356518
0.355121
0.353789
0.352521
0.351312
0.35016
0.349063
0.348018
0.347036
0.372795
0.370593
0.368503
0.366519
0.364635
0.362844
0.361141
0.359521
0.35798
0.356513
0.355116
0.353785
0.352518
0.35131
0.35016
0.349064
0.348021
0.34704
0.372795
0.370592
0.368501
0.366516
0.364631
0.36284
0.361138
0.359519
0.357978
0.356512
0.355116
0.353788
0.352522
0.351317
0.350168
0.349075
0.348034
0.347056
0.372794
0.37059
0.368499
0.366514
0.364629
0.362838
0.361136
0.359518
0.357979
0.356515
0.355121
0.353794
0.352531
0.351329
0.350184
0.349093
0.348056
0.347081
0.372794
0.37059
0.368498
0.366513
0.364629
0.362839
0.361138
0.359521
0.357984
0.356522
0.355131
0.353807
0.352547
0.351348
0.350206
0.349119
0.348086
0.347115
0.372794
0.37059
0.368499
0.366515
0.364631
0.362843
0.361144
0.359529
0.357994
0.356535
0.355147
0.353826
0.352569
0.351373
0.350235
0.349151
0.348121
0.347153
0.372794
0.37059
0.3685
0.366518
0.364636
0.36285
0.361153
0.359541
0.358009
0.356553
0.355168
0.353851
0.352598
0.351405
0.35027
0.34919
0.348163
0.347199
0.372794
0.370592
0.368504
0.366525
0.364647
0.362866
0.361175
0.359569
0.358044
0.356594
0.355217
0.353906
0.352659
0.351473
0.350344
0.349269
0.348246
0.347286
0.372796
0.370598
0.368518
0.366551
0.364688
0.362925
0.361254
0.359668
0.358163
0.356732
0.35537
0.354074
0.352839
0.351661
0.350538
0.349467
0.348446
0.347484
0.372804
0.37063
0.368593
0.366681
0.364881
0.36318
0.361569
0.360035
0.358571
0.357171
0.35583
0.354544
0.35331
0.352128
0.350994
0.349906
0.348866
0.347883
0.372855
0.370818
0.368974
0.36727
0.365656
0.364102
0.362592
0.361116
0.359674
0.358267
0.356897
0.35557
0.354286
0.353049
0.351861
0.350721
0.349632
0.348606
0.373166
0.37177
0.370582
0.36938
0.368066
0.366631
0.365106
0.363535
0.361955
0.360399
0.358888
0.357439
0.356062
0.354762
0.353542
0.352403
0.351343
0.35037
0.3748
0.375837
0.37619
0.375425
0.373867
0.371917
0.369837
0.367784
0.365854
0.364098
0.362542
0.361193
0.360049
0.3591
0.358332
0.35773
0.357275
0.356955
0.382739
0.391728
0.392484
0.388938
0.384517
0.380518
0.377332
0.375039
0.373605
0.37295
0.372977
0.373585
0.374681
0.376175
0.377988
0.380052
0.382306
0.384684
0.407617
0.41476
0.405686
0.39621
0.390685
0.389297
0.391293
0.39584
0.402197
0.409773
0.418117
0.426889
0.43584
0.444782
0.453584
0.462156
0.470456
0.478404
0.360572
0.347597
0.335009
0.32301
0.312065
0.30245
0.294272
0.287523
0.282124
0.277952
0.274869
0.272736
0.271417
0.270786
0.27073
0.271148
0.271954
0.273066
0.196386
0.249716
0.295554
0.326417
0.346399
0.358628
0.365039
0.366888
0.365046
0.360135
0.352579
0.34263
0.330484
0.317223
0.304032
0.290341
0.275848
0.260522
0.24475
0.229732
0.218183
0.214887
0.225515
0.252792
0.293239
0.338723
0.381263
0.414808
0.438265
0.455734
0.485238
0.531124
0.587469
0.650202
0.71588
0.781981
0.846777
0.90913
0.968322
1.02392
1.07567
1.12349
1.16736
1.20737
1.24363
1.27633
1.30566
1.33182
1.35504
1.37554
1.39352
1.40916
1.42266
1.43418
1.44388
1.45188
1.45833
1.46333
1.467
1.46944
1.47075
1.47102
1.47034
1.46879
1.46645
1.46342
1.45975
1.45555
1.45087
1.44581
1.44043
1.43481
1.42902
1.42313
1.41722
1.41137
1.40563
1.40008
1.3948
1.38987
1.38535
1.38134
1.37795
1.37527
1.37313
1.37135
1.36993
1.36887
1.36814
1.36773
1.3676
1.3677
1.36797
1.36836
1.36879
1.36916
1.36935
1.36925
1.36869
1.3675
1.36544
1.36228
1.35772
1.35141
1.34297
1.33197
1.31795
1.30042
1.27889
1.25291
1.22211
1.18624
1.14524
1.09931
1.04897
0.995333
0.940713
0.890199
0.853321
0.823212
0.793706
0.764694
0.736521
0.709514
0.683917
0.659882
0.637486
0.616741
0.597613
0.580036
0.563921
0.549167
0.535666
0.523309
0.511987
0.501598
0.492041
0.483225
0.475062
0.467473
0.460382
0.453723
0.44743
0.44144
0.435672
0.43009
0.424616
0.419212
0.413865
0.408573
0.403343
0.398178
0.393086
0.388069
0.383128
0.378266
0.373481
0.368771
0.364137
0.359577
0.355089
0.350672
0.346324
0.342044
0.337828
0.333674
0.329576
0.325529
0.321523
0.317545
0.313578
0.309597
0.305566
0.301433
0.297125
0.292526
0.287481
0.281641
0.274847
0.265029
0.368924
0.472675
0.537205
0.577745
0.601761
0.61387
0.616866
0.612748
0.603156
0.589464
0.572785
0.553938
0.533422
0.511128
0.487263
0.4629
0.439506
0.419332
0.406123
0.406426
0.430866
0.491819
0.5949
0.731925
0.883329
1.02839
1.15807
1.25579
1.32748
1.38252
1.4274
1.46714
1.50587
1.54668
1.59149
1.64135
1.69657
1.75683
1.82132
1.88882
1.95792
2.02714
2.09512
2.16067
2.22286
2.281
2.33467
2.38362
2.4278
2.46727
2.50215
2.53263
2.55893
2.58128
2.59988
2.61496
2.62673
2.63537
2.64107
2.64399
2.6443
2.64214
2.63767
2.63103
2.62235
2.61177
2.59943
2.58546
2.57
2.5532
2.53519
2.51613
2.49617
2.47547
2.45419
2.43249
2.41056
2.38858
2.36672
2.34518
2.32417
2.30388
2.28453
2.26634
2.24988
2.2349
2.22144
2.20959
2.19947
2.19118
2.1848
2.18039
2.17799
2.17762
2.17928
2.18294
2.18851
2.19589
2.20491
2.21534
2.22688
2.23911
2.25154
2.26351
2.27423
2.28276
2.28797
2.28859
2.28323
2.27046
2.24885
2.2172
2.17458
2.12055
2.05528
1.97958
1.89494
1.80306
1.71355
1.62586
1.53891
1.45382
1.37172
1.29345
1.21957
1.1504
1.08601
1.02636
0.971279
0.920531
0.873842
0.830915
0.791457
0.755177
0.721804
0.69108
0.662772
0.636663
0.612559
0.59028
0.569669
0.550579
0.532886
0.516467
0.501188
0.48689
0.473615
0.46139
0.450124
0.439725
0.430098
0.421153
0.412805
0.404973
0.397588
0.390587
0.383913
0.377519
0.371362
0.365407
0.359623
0.353984
0.348468
0.343058
0.337739
0.332502
0.32734
0.322249
0.31723
0.312289
0.307439
0.302701
0.29811
0.293719
0.289614
0.285943
0.282921
0.281157
0.280848
0.287907
0.447015
0.551629
0.617753
0.662295
0.69121
0.708045
0.714951
0.713652
0.705802
0.693025
0.676877
0.658786
0.639995
0.621677
0.603876
0.587672
0.575358
0.571509
0.584251
0.625837
0.710218
0.845345
1.0235
1.22425
1.41656
1.56313
1.66583
1.73045
1.76852
1.79292
1.81497
1.84324
1.88315
1.93723
2.00576
2.0875
2.18019
2.28103
2.38699
2.49512
2.60275
2.70766
2.80814
2.90298
2.99142
3.07308
3.14785
3.21583
3.27723
3.33234
3.38149
3.425
3.46321
3.49642
3.52491
3.54895
3.56877
3.5846
3.59662
3.60502
3.60998
3.61163
3.61015
3.60565
3.59827
3.58815
3.57541
3.56017
3.54257
3.52273
3.50079
3.47689
3.45117
3.4238
3.39493
3.36475
3.33343
3.30117
3.26818
3.23467
3.20086
3.16698
3.13325
3.09988
3.0671
3.03534
3.00445
2.97458
2.94593
2.91871
2.89314
2.86943
2.84777
2.82833
2.81128
2.79673
2.78479
2.77549
2.76883
2.76471
2.76297
2.76329
2.76524
2.76821
2.77138
2.7737
2.77389
2.7704
2.7615
2.74528
2.71983
2.68336
2.6344
2.57201
2.49597
2.40681
2.30582
2.19603
2.08794
1.97969
1.87209
1.76675
1.66512
1.56828
1.47694
1.39146
1.31196
1.23835
1.17042
1.10785
1.0503
0.997371
0.948701
0.903924
0.862694
0.824693
0.789628
0.757231
0.72726
0.699498
0.673749
0.649835
0.627597
0.60689
0.58756
0.569435
0.552351
0.536227
0.521091
0.506876
0.493517
0.480943
0.469088
0.457883
0.447261
0.437156
0.427508
0.418258
0.409352
0.40074
0.392375
0.384218
0.376228
0.368373
0.360623
0.352951
0.345334
0.337753
0.330192
0.322639
0.315086
0.307533
0.299984
0.292455
0.284978
0.277622
0.270482
0.263877
0.258002
0.255062
0.499015
0.599167
0.673748
0.727887
0.764511
0.786561
0.796488
0.796539
0.788909
0.775795
0.759397
0.741913
0.725539
0.712554
0.703469
0.700374
0.707073
0.730439
0.781215
0.872081
1.01295
1.20412
1.41171
1.60459
1.76011
1.86632
1.92813
1.95917
1.9763
1.99473
2.02539
2.07427
2.14319
2.23104
2.33501
2.45151
2.5768
2.70731
2.83987
2.97176
3.10081
3.2253
3.34402
3.45615
3.56121
3.65897
3.7494
3.83263
3.90884
3.97829
4.04127
4.09806
4.14896
4.19424
4.23416
4.26897
4.29891
4.32418
4.34499
4.36151
4.37392
4.38238
4.38704
4.38804
4.38551
4.37958
4.37037
4.35801
4.34262
4.3243
4.30319
4.2794
4.25306
4.22429
4.19322
4.16
4.12475
4.08763
4.04879
4.00837
3.96654
3.92345
3.87929
3.83423
3.78847
3.74257
3.6964
3.65013
3.60397
3.55819
3.51306
3.46887
3.42591
3.38447
3.34485
3.30732
3.27215
3.23957
3.20978
3.1829
3.15896
3.13791
3.11952
3.10339
3.08887
3.07508
3.06082
3.04456
3.0245
2.99859
2.96465
2.92055
2.86442
2.79493
2.71143
2.61408
2.50381
2.38797
2.2714
2.15385
2.03702
1.92281
1.8128
1.70813
1.60953
1.51737
1.43174
1.35253
1.27946
1.21218
1.15028
1.09336
1.04099
0.992773
0.94834
0.907343
0.869467
0.834425
0.801958
0.771834
0.743843
0.717797
0.693527
0.670876
0.6497
0.629853
0.611194
0.593575
0.576931
0.561218
0.546361
0.532292
0.518942
0.506248
0.494147
0.482575
0.471474
0.460785
0.450454
0.440428
0.430658
0.4211
0.41171
0.402451
0.393288
0.38419
0.375129
0.366083
0.35703
0.347954
0.338844
0.329692
0.320498
0.311267
0.302019
0.292797
0.28366
0.274784
0.266271
0.258928
0.544234
0.650476
0.739908
0.805243
0.849139
0.875314
0.887081
0.88742
0.879172
0.865181
0.848399
0.831989
0.819516
0.812698
0.814162
0.82745
0.85795
0.913959
1.00666
1.13777
1.30407
1.49029
1.67057
1.82224
1.93263
2.00138
2.03931
2.06286
2.08822
2.12733
2.18658
2.26752
2.3685
2.48618
2.61672
2.75634
2.90166
3.04973
3.19809
3.34469
3.4879
3.62644
3.75935
3.88594
4.00577
4.11855
4.22419
4.32268
4.41408
4.49856
4.57627
4.64744
4.71227
4.771
4.82383
4.871
4.91272
4.94918
4.98058
5.0071
5.02891
5.04618
5.05905
5.06768
5.07219
5.07271
5.06936
5.06227
5.05152
5.03724
5.01952
4.99845
4.97413
4.94665
4.9161
4.88257
4.84615
4.80691
4.76497
4.7204
4.67332
4.62383
4.57206
4.51817
4.46232
4.4048
4.34574
4.28526
4.22356
4.16088
4.0975
4.03371
3.96985
3.90624
3.84326
3.78127
3.72067
3.66184
3.60516
3.55095
3.49952
3.45107
3.40568
3.36325
3.32349
3.28581
3.2493
3.2127
3.17436
3.13231
3.08433
3.02816
2.96169
2.8833
2.79206
2.68772
2.57314
2.45592
2.33615
2.21546
2.09594
1.97953
1.86777
1.76175
1.66214
1.56924
1.48306
1.40343
1.33004
1.26248
1.20032
1.14313
1.09047
1.04193
0.997135
0.955737
0.917421
0.881901
0.848922
0.818256
0.789696
0.763057
0.738174
0.714894
0.693079
0.672599
0.653328
0.635143
0.617921
0.601611
0.58614
0.571436
0.557434
0.54407
0.531281
0.519007
0.507191
0.495776
0.484706
0.473932
0.463402
0.453072
0.442898
0.43284
0.422863
0.412934
0.403024
0.393108
0.383166
0.37318
0.363136
0.353027
0.342849
0.332607
0.322314
0.312001
0.301716
0.29157
0.281636
0.272311
0.580767
0.707509
0.817499
0.895398
0.94673
0.977115
0.99101
0.992159
0.984031
0.970118
0.954132
0.940155
0.932869
0.93411
0.94824
0.979719
1.03357
1.11474
1.22597
1.3639
1.51863
1.67429
1.81329
1.92319
2.00065
2.05178
2.08921
2.12712
2.17699
2.24546
2.33449
2.44278
2.5674
2.70486
2.8518
3.00521
3.16253
3.32156
3.48046
3.63766
3.79187
3.942
4.08719
4.22676
4.3602
4.48713
4.60731
4.72059
4.82692
4.92631
5.01882
5.10457
5.18368
5.25632
5.32265
5.38285
5.4371
5.48558
5.52848
5.56596
5.59819
5.62533
5.64753
5.66494
5.67768
5.68588
5.68965
5.68911
5.68435
5.67546
5.66252
5.6456
5.62477
5.60009
5.57162
5.5394
5.50347
5.46389
5.4207
5.37394
5.32366
5.26994
5.21285
5.15248
5.08894
5.02237
4.9529
4.88065
4.80581
4.72859
4.64921
4.56796
4.48512
4.40103
4.31607
4.23063
4.14516
4.06014
3.97604
3.89339
3.81268
3.73437
3.65885
3.58638
3.51705
3.45068
3.38677
3.32448
3.26253
3.19918
3.13238
3.05993
2.97959
2.88966
2.78907
2.6777
2.56239
2.44345
2.32242
2.20137
2.08239
1.96732
1.85755
1.75401
1.65719
1.56727
1.48415
1.40755
1.33707
1.27227
1.21269
1.15786
1.10734
1.06072
1.01762
0.977719
0.940703
0.906303
0.874281
0.84442
0.81653
0.79044
0.765996
0.743058
0.7215
0.701204
0.682061
0.663964
0.646799
0.630492
0.614975
0.600181
0.586048
0.572516
0.559525
0.547018
0.534939
0.523234
0.511851
0.500739
0.489851
0.47914
0.468564
0.458084
0.447663
0.437269
0.426874
0.416452
0.405983
0.395449
0.384836
0.374138
0.36335
0.352475
0.341525
0.330525
0.319514
0.30857
0.297752
0.287304
0.602672
0.766284
0.902255
0.993814
1.05331
1.0889
1.10629
1.10989
1.10374
1.09197
1.07907
1.07003
1.06799
1.07655
1.10019
1.14285
1.20749
1.29518
1.40384
1.52717
1.65513
1.77601
1.87992
1.96234
2.02559
2.07767
2.12917
2.18972
2.26563
2.35944
2.47072
2.59734
2.73656
2.8856
3.04193
3.20338
3.36805
3.5343
3.70068
3.86594
4.02894
4.18872
4.34442
4.49534
4.64087
4.78055
4.914
5.04095
5.16121
5.27468
5.3813
5.48107
5.57405
5.66032
5.73997
5.81315
5.87998
5.94062
5.99523
6.04395
6.08693
6.12434
6.1563
6.18296
6.20444
6.22087
6.23234
6.23896
6.24082
6.23798
6.23053
6.2185
6.20195
6.18092
6.15542
6.12549
6.09112
6.05234
6.00915
5.96156
5.90958
5.85324
5.79256
5.72757
5.65833
5.58486
5.50719
5.42551
5.33996
5.25072
5.15797
5.06192
4.96282
4.86098
4.75673
4.65046
4.54262
4.43369
4.32422
4.2148
4.10607
3.99866
3.89322
3.79033
3.69042
3.59371
3.50016
3.4094
3.32067
3.2326
3.14339
3.05126
2.95374
2.84958
2.73776
2.62216
2.50293
2.38128
2.25908
2.13839
2.02116
1.90897
1.80298
1.70387
1.61192
1.52709
1.44912
1.3776
1.31204
1.25192
1.19672
1.14597
1.09919
1.056
1.01601
0.978917
0.944422
0.91228
0.882269
0.854196
0.827888
0.803195
0.779978
0.758117
0.737498
0.718021
0.699591
0.682115
0.665501
0.649661
0.634536
0.620069
0.606202
0.59288
0.58005
0.567658
0.555652
0.543981
0.532597
0.52145
0.510497
0.499691
0.488993
0.478364
0.467769
0.457175
0.446556
0.435887
0.425147
0.414319
0.403391
0.392356
0.38121
0.369957
0.358606
0.34718
0.335711
0.324259
0.312876
0.301734
0.610377
0.827837
0.990804
1.09485
1.16276
1.20502
1.22791
1.23622
1.2343
1.22656
1.21774
1.21292
1.21401
1.22586
1.25249
1.29674
1.35964
1.43999
1.53394
1.63522
1.73622
1.82992
1.91205
1.98262
2.04585
2.10856
2.17785
2.25908
2.35501
2.46605
2.59106
2.72811
2.87512
3.03008
3.19122
3.35694
3.52582
3.69659
3.86807
4.03917
4.20888
4.37627
4.5405
4.70082
4.85656
5.00717
5.15216
5.29116
5.42385
5.55002
5.6695
5.78221
5.8881
5.98717
6.07946
6.16504
6.24399
6.31642
6.38246
6.44222
6.49584
6.54345
6.58518
6.62114
6.65146
6.67624
6.69558
6.70958
6.7183
6.72181
6.72016
6.71339
6.70154
6.68462
6.66263
6.63558
6.60345
6.56623
6.52389
6.47643
6.42381
6.36603
6.30306
6.23491
6.16159
6.08286
5.99889
5.90984
5.81582
5.71697
5.61341
5.50532
5.39289
5.27637
5.15606
5.03232
4.90554
4.77621
4.64484
4.51205
4.3785
4.24493
4.11214
3.98096
3.85208
3.72603
3.6031
3.48339
3.36685
3.25247
3.13861
3.02457
2.90716
2.78793
2.66643
2.54258
2.41712
2.29147
2.16743
2.04689
1.93154
1.82266
1.72108
1.62718
1.54098
1.46219
1.39035
1.3249
1.26524
1.21076
1.16089
1.11511
1.07296
1.03403
0.997951
0.964424
0.933179
0.903985
0.876643
0.850982
0.82685
0.804115
0.782661
0.762382
0.743185
0.724982
0.707693
0.691243
0.67555
0.660534
0.646142
0.632325
0.619034
0.60622
0.593836
0.581833
0.570164
0.558783
0.547644
0.536703
0.525916
0.515243
0.504644
0.494082
0.483525
0.47294
0.462303
0.451588
0.440777
0.429855
0.418808
0.407632
0.396322
0.384883
0.373325
0.361667
0.349937
0.338185
0.326458
0.314891
0.633587
0.890315
1.07461
1.19166
1.26953
1.32016
1.35035
1.36512
1.3689
1.36615
1.36156
1.35788
1.35915
1.3699
1.39359
1.43217
1.48577
1.55249
1.62867
1.7095
1.79016
1.86713
1.93931
2.00833
2.07795
2.15275
2.23671
2.33239
2.44072
2.56134
2.69317
2.83479
2.98474
3.14166
3.30426
3.47138
3.64194
3.81487
3.98919
4.16393
4.33815
4.51096
4.68152
4.84906
5.01286
5.17228
5.32677
5.47585
5.61913
5.75627
5.88702
6.0112
6.12867
6.23936
6.34323
6.44028
6.53055
6.61408
6.69096
6.76128
6.82512
6.88261
6.93384
6.97891
7.01793
7.05098
7.07816
7.09954
7.11518
7.12513
7.12944
7.12813
7.12121
7.1087
7.09057
7.06682
7.03741
7.00231
6.96148
6.91487
6.86243
6.80413
6.73991
6.66973
6.59356
6.51105
6.42243
6.32784
6.22737
6.1211
6.00914
5.89161
5.76866
5.6405
5.50738
5.36963
5.2276
5.08172
4.93246
4.78038
4.62611
4.47037
4.31401
4.15804
4.00339
3.8507
3.70045
3.5529
3.40913
3.26857
3.12891
2.99211
2.8568
2.72197
2.58722
2.45276
2.31948
2.18876
2.06222
1.94147
1.82785
1.72228
1.62522
1.53671
1.45646
1.38393
1.31847
1.25933
1.20581
1.15722
1.11292
1.07238
1.03511
1.0007
0.968804
0.939118
0.911396
0.885429
0.861038
0.83807
0.816396
0.795903
0.776492
0.758076
0.740575
0.723917
0.708037
0.69287
0.678346
0.664396
0.650975
0.638042
0.625554
0.61347
0.601747
0.590343
0.579217
0.568325
0.557626
0.54708
0.536647
0.526287
0.515965
0.505646
0.495298
0.484893
0.474404
0.46381
0.453092
0.442236
0.431232
0.420072
0.408757
0.397289
0.385679
0.373944
0.362112
0.350223
0.33832
0.32652
0.626832
0.944642
1.14834
1.27814
1.3667
1.4268
1.46556
1.48796
1.49826
1.50058
1.49909
1.4959
1.49591
1.50325
1.52101
1.55086
1.59287
1.64553
1.7062
1.77177
1.83952
1.90795
1.97713
2.04866
2.12502
2.20876
2.30185
2.40534
2.51941
2.6436
2.77712
2.91902
3.06834
3.22413
3.38549
3.55154
3.72141
3.89423
4.06913
4.24522
4.42164
4.59754
4.77209
4.94448
5.11399
5.27993
5.44167
5.59868
5.75046
5.89662
6.03681
6.17075
6.29825
6.41913
6.53329
6.64067
6.74122
6.83496
6.9219
7.00209
7.0756
7.14248
7.20281
7.25667
7.30414
7.34529
7.38018
7.40888
7.43143
7.44787
7.45823
7.46253
7.46075
7.4529
7.43896
7.41888
7.39262
7.36014
7.32137
7.27626
7.22473
7.16672
7.10216
7.03097
6.95302
6.86806
6.77628
6.6778
6.5727
6.46103
6.34287
6.2183
6.08743
5.95043
5.80752
5.65902
5.50523
5.34651
5.18327
5.01598
4.84518
4.67148
4.49556
4.31867
4.14201
3.96619
3.79168
3.61818
3.44862
3.28341
3.12151
2.96313
2.80784
2.65536
2.50575
2.35954
2.21769
2.08146
1.95224
1.83125
1.71942
1.61724
1.52475
1.44165
1.36732
1.30097
1.24174
1.18876
1.1412
1.09829
1.05938
1.02388
0.991316
0.961273
0.933414
0.907458
0.883175
0.860374
0.838897
0.818612
0.799406
0.781186
0.763868
0.74738
0.731657
0.71664
0.702273
0.688503
0.675266
0.662507
0.65019
0.638278
0.626736
0.615525
0.604609
0.593951
0.583512
0.573255
0.563141
0.553134
0.543196
0.533292
0.523388
0.513451
0.503451
0.493361
0.483158
0.472819
0.462329
0.451673
0.440843
0.429833
0.418643
0.407276
0.395744
0.384063
0.372258
0.360365
0.348424
0.336538
0.622924
0.976938
1.20411
1.34768
1.44717
1.51723
1.5653
1.59629
1.61418
1.62272
1.62385
1.62199
1.62136
1.62568
1.63784
1.65962
1.69151
1.73285
1.78213
1.83759
1.8978
1.96209
2.03068
2.1045
2.18487
2.27299
2.36972
2.47543
2.5901
2.71337
2.84475
2.98364
3.12944
3.28152
3.43922
3.60187
3.76878
3.93918
4.11232
4.28741
4.46362
4.64017
4.81622
4.99101
5.16377
5.3338
5.50042
5.66305
5.82114
5.97421
6.12186
6.26373
6.39953
6.52903
6.65205
6.76845
6.87814
6.98105
7.07715
7.16644
7.24893
7.32464
7.39361
7.45589
7.51153
7.56055
7.60303
7.63897
7.66843
7.69142
7.70795
7.71802
7.72161
7.71871
7.70928
7.69326
7.67062
7.64127
7.60515
7.56218
7.51227
7.45536
7.39134
7.32017
7.24144
7.15525
7.0617
6.96089
6.85285
6.73762
6.61527
6.48584
6.34941
6.20608
6.05602
5.89965
5.7372
5.56894
5.39519
5.21636
5.03287
4.84515
4.65336
4.45901
4.26397
4.06849
3.87325
3.67907
3.48739
3.29899
3.11429
2.93382
2.75803
2.58742
2.42266
2.26462
2.11436
1.973
1.84156
1.72084
1.61127
1.51286
1.42522
1.34765
1.27924
1.21895
1.16575
1.11863
1.07667
1.03906
1.00512
0.974252
0.945982
0.919912
0.89572
0.873148
0.851986
0.832065
0.813247
0.79542
0.778491
0.76238
0.747022
0.732356
0.71833
0.704896
0.692007
0.679615
0.667664
0.656113
0.644932
0.634087
0.623546
0.613274
0.603239
0.593407
0.583742
0.57421
0.564777
0.555406
0.546065
0.536718
0.527336
0.517886
0.50834
0.498674
0.488863
0.478889
0.468735
0.458389
0.447842
0.43709
0.426134
0.414978
0.403632
0.392114
0.380445
0.368659
0.356793
0.344939
0.659298
1.01855
1.24655
1.39709
1.50537
1.58474
1.64221
1.68234
1.70865
1.72373
1.73048
1.73278
1.73431
1.73845
1.74798
1.76492
1.79028
1.82422
1.86618
1.91533
1.97091
2.0325
2.10011
2.17408
2.25492
2.3431
2.43894
2.54259
2.65397
2.77291
2.89913
3.03232
3.17211
3.3181
3.46986
3.62687
3.78854
3.9542
4.12319
4.2948
4.46832
4.64297
4.81798
4.9926
5.16607
5.33768
5.50674
5.67261
5.83471
5.99251
6.14554
6.29338
6.43568
6.57212
6.70247
6.82651
6.94407
7.05505
7.15933
7.25687
7.34761
7.43154
7.50865
7.57895
7.64244
7.69913
7.74905
7.7922
7.82858
7.85821
7.88106
7.89712
7.90636
7.90874
7.90421
7.89271
7.87418
7.84852
7.81566
7.77551
7.72798
7.67296
7.61036
7.54002
7.46171
7.37552
7.28155
7.17984
7.07042
6.95333
6.82861
6.69628
6.5564
6.40897
6.25393
6.09216
5.92367
5.74862
5.56728
5.37993
5.18692
4.98866
4.78563
4.57871
4.3689
4.15691
3.94362
3.73006
3.51754
3.30728
3.10054
2.89863
2.70293
2.51483
2.33568
2.16677
2.00919
1.86384
1.73133
1.61193
1.50551
1.41158
1.32929
1.25757
1.1952
1.14094
1.0936
1.05205
1.01534
0.982627
0.953205
0.926502
0.902054
0.879486
0.858506
0.838878
0.820421
0.802988
0.786466
0.770763
0.755804
0.741526
0.727879
0.714814
0.702292
0.690273
0.678719
0.667587
0.656823
0.646406
0.636306
0.626491
0.61693
0.607591
0.598445
0.589457
0.580595
0.571827
0.563119
0.554437
0.54575
0.537026
0.528232
0.519342
0.510326
0.50116
0.491823
0.482295
0.472562
0.462611
0.452436
0.442031
0.431398
0.420542
0.409473
0.398207
0.386766
0.37518
0.363484
0.35176
0.657956
1.02781
1.26336
1.42094
1.5369
1.62468
1.69119
1.74072
1.77628
1.80023
1.81568
1.82573
1.83343
1.84172
1.8532
1.86994
1.89333
1.92409
1.96234
2.00783
2.06019
2.11909
2.18438
2.25604
2.33418
2.41894
2.51045
2.60879
2.714
2.82592
2.94448
3.06958
3.20106
3.33871
3.48229
3.63148
3.7857
3.9442
4.10654
4.27214
4.44035
4.61048
4.78182
4.95364
5.12521
5.29583
5.4648
5.63148
5.79523
5.95551
6.11178
6.26357
6.41047
6.55211
6.68817
6.81838
6.94251
7.06037
7.17179
7.27667
7.37489
7.46639
7.5511
7.62899
7.70002
7.76416
7.82139
7.87169
7.91504
7.95141
7.98076
8.00306
8.01826
8.0263
8.02711
8.02062
8.00673
7.98537
7.95643
7.9198
7.87539
7.82308
7.76278
7.69422
7.61743
7.53244
7.4393
7.33804
7.22867
7.11123
6.98575
6.85224
6.71077
6.56138
6.40418
6.23946
6.06735
5.88802
5.70162
5.50837
5.30851
5.10232
4.89019
4.67267
4.4504
4.2241
3.99469
3.76331
3.53144
3.30078
3.07334
2.85135
2.6372
2.43323
2.24151
2.06363
1.90068
1.75323
1.62136
1.50476
1.40273
1.31422
1.23796
1.17251
1.11641
1.06821
1.02661
0.990425
0.958654
0.930457
0.905148
0.882175
0.861105
0.841597
0.823389
0.806279
0.790114
0.774775
0.760172
0.746236
0.732912
0.720154
0.707926
0.696194
0.684929
0.6741
0.663676
0.653619
0.643885
0.634464
0.625325
0.61644
0.607778
0.599308
0.590999
0.582821
0.574741
0.566726
0.558744
0.550762
0.542749
0.534672
0.526502
0.51821
0.509769
0.501154
0.492344
0.483321
0.47407
0.464578
0.45484
0.44485
0.434611
0.424126
0.413407
0.402469
0.391332
0.380024
0.368577
0.357065
0.614979
1.00456
1.25409
1.41867
1.54066
1.63535
1.71
1.76879
1.81453
1.84978
1.87693
1.89836
1.9165
1.93372
1.95224
1.97395
2.00029
2.03221
2.07021
2.11438
2.16464
2.22079
2.28268
2.35023
2.42343
2.50228
2.58692
2.67761
2.77473
2.87753
2.98623
3.10103
3.22196
3.34897
3.48191
3.62055
3.76452
3.91335
4.06659
4.2237
4.38413
4.54724
4.71238
4.87887
5.04602
5.21314
5.37956
5.54462
5.70769
5.86817
6.02551
6.1792
6.32877
6.47379
6.61389
6.74873
6.87801
7.00148
7.11892
7.23014
7.33499
7.43333
7.52504
7.61003
7.68822
7.75954
7.82392
7.88131
7.93164
7.97486
8.01091
8.03971
8.06119
8.07528
8.08189
8.08091
8.07226
8.05582
8.03148
7.99912
7.95863
7.90989
7.85274
7.78711
7.71299
7.6304
7.53937
7.43989
7.33198
7.21566
7.09095
6.95788
6.81648
6.6668
6.50892
6.34295
6.169
5.98715
5.79748
5.60009
5.39508
5.1826
4.96284
4.73612
4.50288
4.26374
4.01961
3.77178
3.52197
3.27246
3.02603
2.78595
2.55566
2.33843
2.13692
1.95294
1.78736
1.6403
1.51124
1.39924
1.303
1.22098
1.15148
1.09276
1.04315
1.00106
0.965098
0.934062
0.906947
0.882936
0.861375
0.841753
0.823677
0.806846
0.791036
0.776079
0.761852
0.748266
0.735254
0.72277
0.710778
0.699251
0.688166
0.677504
0.667247
0.657374
0.647862
0.638671
0.629785
0.62119
0.61286
0.604767
0.596882
0.589174
0.581614
0.57417
0.566809
0.559498
0.552205
0.544897
0.537542
0.530107
0.522562
0.514879
0.507029
0.498988
0.490735
0.48225
0.473519
0.46453
0.455275
0.44575
0.435957
0.425899
0.415588
0.405036
0.394264
0.383297
0.372164
0.360934
0.59907
0.983554
1.22948
1.3942
1.5187
1.61801
1.6994
1.76722
1.82409
1.87208
1.91305
1.94875
1.98096
2.01139
2.04169
2.0733
2.10741
2.14489
2.18628
2.23187
2.28175
2.33592
2.39432
2.45707
2.52452
2.59604
2.67197
2.75273
2.83867
2.92988
3.0266
3.12905
3.23739
3.35169
3.47192
3.59797
3.72962
3.86654
4.00836
4.15466
4.30492
4.4586
4.61512
4.77386
4.93416
5.09537
5.25685
5.41795
5.57804
5.73651
5.89278
6.04631
6.1966
6.34316
6.48557
6.62344
6.75641
6.88417
7.00642
7.12292
7.23346
7.33782
7.43585
7.52738
7.61229
7.69045
7.76176
7.8261
7.88338
7.9335
7.97637
8.01188
8.03993
8.06043
8.07325
8.07827
8.07539
8.06446
8.04537
8.01797
7.98213
7.93773
7.8847
7.82299
7.75258
7.67347
7.58565
7.4891
7.38384
7.26985
7.14716
7.01577
6.87568
6.72693
6.56953
6.40352
6.22891
6.04569
5.85386
5.65337
5.44419
5.22631
4.99975
4.76463
4.52125
4.27015
4.01227
3.74906
3.48265
3.21596
2.9527
2.6972
2.45397
2.22708
2.01959
1.8332
1.6684
1.52469
1.4009
1.29545
1.20648
1.13199
1.06995
1.01837
0.975398
0.939387
0.908912
0.88278
0.860021
0.839864
0.821708
0.805093
0.789674
0.775196
0.761474
0.748373
0.735803
0.7237
0.712021
0.700741
0.689841
0.679312
0.669145
0.659334
0.649872
0.64075
0.63195
0.623435
0.615217
0.607279
0.599597
0.592147
0.584902
0.577832
0.570907
0.564095
0.557365
0.550682
0.544013
0.537325
0.530584
0.523757
0.516813
0.509722
0.502456
0.494989
0.487298
0.479365
0.471172
0.462707
0.453963
0.444935
0.435624
0.426032
0.41617
0.40605
0.39569
0.385114
0.37435
0.363456
0.605987
0.954607
1.18799
1.34909
1.47334
1.57558
1.66302
1.73953
1.80761
1.86902
1.92518
1.97729
2.02645
2.07368
2.1199
2.16592
2.21241
2.25988
2.30868
2.35907
2.4112
2.46544
2.5213
2.57901
2.63904
2.70167
2.76736
2.83661
2.90994
2.98776
3.07051
3.15853
3.25213
3.35151
3.45678
3.56794
3.68491
3.80749
3.93543
4.06839
4.20595
4.34767
4.49301
4.64143
4.79235
4.94515
5.09923
5.25395
5.40871
5.56289
5.71591
5.8672
6.01623
6.16248
6.30548
6.44478
6.57998
6.71069
6.83658
6.95732
7.07263
7.18225
7.28595
7.38351
7.47475
7.55948
7.63753
7.70877
7.77303
7.83018
7.88008
7.92259
7.95758
7.9849
8.00442
8.01598
8.01946
8.01468
8.00151
7.97978
7.94934
7.91018
7.86222
7.80541
7.73969
7.66505
7.58143
7.48883
7.38721
7.27657
7.15687
7.02811
6.89025
6.74328
6.58715
6.42182
6.2472
6.06321
5.86969
5.66651
5.45347
5.2304
4.99719
4.75382
4.50048
4.23772
3.96657
3.68881
3.40711
3.12519
2.84782
2.58045
2.32854
2.09667
1.88789
1.70352
1.54339
1.40629
1.29037
1.19345
1.11319
1.0472
0.993195
0.949012
0.912726
0.882669
0.857443
0.835911
0.817171
0.800522
0.78543
0.771499
0.758436
0.746033
0.734142
0.722665
0.711537
0.700718
0.690186
0.679934
0.669959
0.660265
0.650857
0.641742
0.632922
0.624398
0.616158
0.608177
0.600484
0.593064
0.585896
0.578959
0.57223
0.565679
0.55928
0.553
0.546807
0.540668
0.534549
0.528416
0.522232
0.515966
0.509585
0.503055
0.49635
0.48944
0.482303
0.474917
0.467266
0.459335
0.451116
0.442602
0.433794
0.424695
0.415311
0.405655
0.395744
0.385598
0.375242
0.364729
0.609613
0.928974
1.14131
1.29275
1.41418
1.51759
1.60922
1.69278
1.77062
1.84428
1.91485
1.98305
2.0494
2.11427
2.17788
2.24036
2.30179
2.36217
2.42148
2.47994
2.5367
2.5922
2.64674
2.70077
2.75485
2.8096
2.8657
2.92388
2.98486
3.04929
3.11781
3.19096
3.26919
3.35285
3.44221
3.5374
3.63847
3.74537
3.85793
3.97595
4.0991
4.22703
4.3593
4.49543
4.63492
4.7772
4.92173
5.0679
5.21512
5.36282
5.51041
5.6573
5.80296
5.94684
6.08844
6.22726
6.36286
6.49481
6.6227
6.74616
6.86484
6.97844
7.08664
7.18918
7.28581
7.37628
7.46039
7.53791
7.60866
7.67244
7.72906
7.77835
7.82013
7.85423
7.88046
7.89864
7.90861
7.91019
7.90319
7.88743
7.8629
7.82953
7.78723
7.73591
7.67551
7.60595
7.52719
7.43917
7.34184
7.23515
7.11904
6.99347
6.85835
6.7136
6.55912
6.39477
6.22037
6.03572
5.84057
5.63463
5.41757
5.1891
4.94896
4.69706
4.43358
4.15913