/*--------------------------------*- C++ -*----------------------------------*\
  =========                 |
  \\      /  F ield         | OpenFOAM: The Open Source CFD Toolbox
   \\    /   O peration     | Website:  https://openfoam.org
    \\  /    A nd           | Version:  12
     \\/     M anipulation  |
\*---------------------------------------------------------------------------*/
FoamFile
{
    format      ascii;
    class       volScalarField;
    location    "0.04";
    object      nut;
}
// * * * * * * * * * * * * * * * * * * * * * * * * * * * * * * * * * * * * * //

dimensions      [0 2 -1 0 0 0 0];

internalField   nonuniform List<scalar> 
12225
(
4.0481e-05
3.83291e-05
3.6267e-05
3.44403e-05
3.29758e-05
3.19258e-05
3.12909e-05
3.10383e-05
3.11168e-05
3.1468e-05
3.20338e-05
3.2761e-05
3.36035e-05
3.45236e-05
3.54924e-05
3.64872e-05
3.75173e-05
3.90279e-05
0.000280994
0.000209274
0.000176273
0.000157427
0.000146239
0.00013964
0.000135735
0.000133366
0.000131849
0.000130793
0.000129982
0.000129302
0.000128695
0.000128132
0.000127609
0.000127095
0.000126742
0.000125856
0.000555831
0.000419617
0.000349502
0.000304395
0.000272059
0.000247531
0.000228237
0.000212685
0.000199961
0.000189462
0.000180746
0.000173478
0.000167386
0.00016225
0.000157889
0.000154129
0.000150871
0.000147609
0.000740204
0.000625582
0.000543762
0.00048454
0.0004392
0.000402949
0.000372987
0.000347573
0.000325621
0.000306435
0.00028954
0.000274593
0.000261321
0.000249495
0.000238909
0.000229351
0.000220642
0.000212383
0.000817031
0.000759013
0.000700294
0.000648186
0.000603348
0.000564855
0.000531539
0.000502341
0.000476434
0.000453205
0.000432203
0.000413092
0.000395609
0.000379535
0.000364679
0.000350847
0.000337861
0.00032554
0.000842089
0.000819632
0.000789787
0.000757352
0.000725153
0.000694584
0.000666173
0.000639976
0.000615844
0.000593573
0.000572952
0.000553789
0.000535912
0.000519165
0.000503401
0.000488474
0.000474252
0.000460743
0.000849258
0.000841786
0.000829677
0.00081405
0.000796239
0.00077738
0.000758293
0.000739486
0.000721243
0.000703707
0.000686933
0.000670922
0.000655646
0.000641057
0.000627094
0.000613688
0.000600774
0.000588475
0.00085112
0.00084874
0.000844452
0.000838169
0.000830117
0.000820677
0.00081026
0.00079923
0.000787871
0.000776397
0.000764961
0.000753662
0.000742565
0.000731704
0.000721092
0.000710727
0.000700607
0.000690896
0.00085156
0.000850663
0.000849158
0.000846855
0.000843677
0.000839644
0.000834848
0.000829412
0.00082347
0.000817145
0.000810548
0.000803769
0.00079688
0.000789936
0.000782977
0.000776031
0.000769127
0.000762414
0.000851653
0.000851133
0.000850463
0.000849549
0.000848314
0.000846713
0.000844728
0.000842368
0.000839661
0.000836644
0.00083336
0.000829852
0.000826161
0.000822321
0.000818364
0.000814317
0.000810208
0.000806145
0.000851669
0.000851231
0.000850776
0.00085027
0.00084968
0.000848974
0.000848129
0.000847129
0.000845967
0.000844644
0.000843165
0.000841541
0.000839784
0.000837907
0.000835923
0.000833847
0.000831694
0.000829529
0.000851671
0.000851246
0.000850834
0.000850424
0.000850002
0.000849555
0.000849067
0.000848529
0.000847929
0.000847263
0.000846527
0.00084572
0.000844842
0.000843897
0.000842888
0.00084182
0.0008407
0.000839566
0.00085167
0.000851246
0.000850843
0.000850456
0.000850081
0.000849712
0.000849342
0.000848967
0.000848581
0.000848178
0.000847756
0.000847311
0.000846842
0.000846347
0.000845827
0.00084528
0.000844712
0.000844142
0.000851668
0.000851243
0.000850841
0.000850458
0.000850092
0.000849742
0.000849405
0.000849079
0.000848761
0.000848448
0.00084814
0.000847834
0.000847528
0.000847222
0.000846914
0.000846605
0.000846294
0.000845997
0.000851667
0.000851241
0.000850836
0.000850453
0.000850088
0.000849741
0.00084941
0.000849094
0.000848791
0.000848501
0.000848222
0.000847954
0.000847696
0.000847448
0.000847208
0.000846976
0.000846754
0.000846554
0.000851666
0.000851238
0.000850833
0.000850448
0.000850083
0.000849736
0.000849405
0.000849091
0.000848791
0.000848506
0.000848233
0.000847974
0.000847727
0.000847492
0.000847268
0.000847056
0.000846857
0.000846682
0.000851665
0.000851236
0.00085083
0.000850445
0.000850079
0.000849732
0.000849402
0.000849088
0.00084879
0.000848506
0.000848237
0.00084798
0.000847737
0.000847506
0.000847288
0.000847081
0.000846889
0.00084672
0.000851664
0.000851235
0.000850828
0.000850442
0.000850076
0.000849729
0.0008494
0.000849088
0.000848791
0.00084851
0.000848243
0.00084799
0.00084775
0.000847523
0.000847308
0.000847106
0.000846917
0.000846753
0.000851664
0.000851234
0.000850827
0.000850441
0.000850076
0.00084973
0.000849402
0.000849092
0.000848798
0.000848519
0.000848255
0.000848005
0.000847769
0.000847546
0.000847335
0.000847137
0.000846953
0.000846794
0.000851663
0.000851234
0.000850827
0.000850443
0.000850079
0.000849735
0.000849409
0.000849101
0.000848809
0.000848533
0.000848272
0.000848025
0.000847791
0.000847571
0.000847363
0.000847167
0.000846984
0.000846826
0.000851664
0.000851235
0.000850829
0.000850446
0.000850084
0.000849741
0.000849416
0.000849107
0.000848814
0.000848535
0.00084827
0.000848016
0.000847774
0.000847542
0.00084732
0.000847108
0.000846908
0.000846728
0.000851664
0.000851236
0.000850831
0.000850445
0.000850076
0.00084972
0.000849373
0.000849032
0.000848694
0.000848356
0.000848018
0.000847676
0.000847332
0.000846985
0.000846635
0.000846283
0.000845931
0.000845591
0.000851663
0.000851227
0.000850796
0.000850353
0.000849882
0.000849368
0.000848799
0.000848167
0.00084747
0.000846706
0.000845879
0.000844995
0.000844059
0.000843079
0.000842063
0.000841019
0.000839956
0.000838898
0.000851633
0.000851073
0.000850347
0.000849376
0.000848107
0.000846518
0.000844614
0.000842419
0.000839969
0.000837307
0.000834475
0.000831516
0.000828467
0.000825363
0.000822233
0.000819102
0.000815994
0.000812953
0.000851286
0.000849598
0.000846734
0.000842613
0.000837334
0.000831104
0.000824168
0.00081676
0.000809076
0.000801275
0.000793478
0.000785776
0.000778232
0.000770893
0.000763787
0.000756932
0.000750344
0.00074407
0.000848317
0.000839432
0.000826191
0.000810095
0.000792507
0.000774471
0.000756686
0.000739554
0.000723273
0.000707924
0.000693516
0.000680023
0.000667397
0.000655583
0.000644524
0.000634164
0.000624454
0.000615399
0.00082854
0.000788846
0.000746075
0.000705811
0.000669668
0.000637828
0.000609917
0.000585378
0.00056367
0.000544339
0.000527014
0.000511395
0.00049724
0.000484352
0.000472572
0.000461767
0.000451829
0.000442705
0.000730681
0.000627338
0.000554579
0.000501221
0.000460573
0.000428705
0.000403104
0.000382063
0.000364437
0.00034945
0.000336555
0.000325352
0.000315543
0.000306895
0.000299229
0.000292399
0.000286283
0.000280799
0.000439253
0.000338587
0.000288099
0.000257052
0.000236554
0.000222704
0.000213184
0.000206496
0.000201681
0.000198122
0.000195421
0.000193313
0.000191619
0.00019022
0.000189034
0.000188003
0.000187089
0.000186245
7.16467e-05
6.90686e-05
6.65674e-05
6.41831e-05
6.20083e-05
6.00978e-05
5.84729e-05
5.71322e-05
5.60595e-05
5.52309e-05
5.4619e-05
5.41957e-05
5.39343e-05
5.38097e-05
5.37995e-05
5.38836e-05
5.40448e-05
5.4267e-05
6.07718e-05
6.21733e-05
6.77057e-05
7.1187e-05
7.33555e-05
7.4655e-05
7.5332e-05
7.55333e-05
7.53533e-05
7.4854e-05
7.4074e-05
7.3032e-05
7.17355e-05
7.02663e-05
6.87816e-05
6.72113e-05
6.55109e-05
6.36618e-05
6.16899e-05
5.97186e-05
5.80755e-05
5.7403e-05
5.85038e-05
6.17037e-05
6.63821e-05
7.14029e-05
7.58698e-05
7.9265e-05
8.15856e-05
8.32809e-05
8.59311e-05
8.99025e-05
9.4558e-05
9.95001e-05
0.000104435
0.000109184
0.000113651
0.000117792
0.000121593
0.000125056
0.000128195
0.000131025
0.000133567
0.00013584
0.000137864
0.00013966
0.000141248
0.000142646
0.00014387
0.000144938
0.000145863
0.000146658
0.000147335
0.000147904
0.000148375
0.000148754
0.00014905
0.000149268
0.000149414
0.000149495
0.000149513
0.000149474
0.000149382
0.000149241
0.000149054
0.000148825
0.000148559
0.000148257
0.000147925
0.000147565
0.000147181
0.000146776
0.000146355
0.000145921
0.000145477
0.000145027
0.000144575
0.000144124
0.000143679
0.000143243
0.000142821
0.000142417
0.000142038
0.000141691
0.000141395
0.000141116
0.000140856
0.000140614
0.000140392
0.000140187
0.000139999
0.000139826
0.000139666
0.000139517
0.000139376
0.00013924
0.000139103
0.000138961
0.000138809
0.000138638
0.000138442
0.00013821
0.000137931
0.000137593
0.000137178
0.000136669
0.000136045
0.000135281
0.000134352
0.000133227
0.000131877
0.00013027
0.000128377
0.000126172
0.000123631
0.000120723
0.000117362
0.000113389
0.000110143
0.000108097
0.000106081
0.000104028
0.000101959
9.99034e-05
9.78897e-05
9.59398e-05
9.40705e-05
9.22927e-05
9.06132e-05
8.90345e-05
8.75564e-05
8.61766e-05
8.48907e-05
8.36937e-05
8.25796e-05
8.15421e-05
8.05745e-05
7.96705e-05
7.88236e-05
7.80276e-05
7.72766e-05
7.65649e-05
7.58872e-05
7.52389e-05
7.46113e-05
7.40029e-05
7.3405e-05
7.28126e-05
7.22235e-05
7.16374e-05
7.10547e-05
7.04763e-05
6.99029e-05
6.93352e-05
6.87735e-05
6.82182e-05
6.76693e-05
6.71268e-05
6.65905e-05
6.60603e-05
6.5536e-05
6.50173e-05
6.4504e-05
6.39957e-05
6.3492e-05
6.29924e-05
6.24965e-05
6.20033e-05
6.1512e-05
6.10211e-05
6.05288e-05
6.00325e-05
5.95286e-05
5.9012e-05
5.84751e-05
5.79062e-05
5.72893e-05
5.65889e-05
5.57862e-05
5.46679e-05
0.000114624
0.000196542
0.000255415
0.000299569
0.000332494
0.000356191
0.000372028
0.000381134
0.000384526
0.000383122
0.000377723
0.000368926
0.000356817
0.000339603
0.000316808
0.000291843
0.000267703
0.000247213
0.000233426
0.000230239
0.000242449
0.00027276
0.000316811
0.000363913
0.000403336
0.000428529
0.000438244
0.000438948
0.000437099
0.000436059
0.000437231
0.000441684
0.000450258
0.000463313
0.00048092
0.000502954
0.000529112
0.000558907
0.00059167
0.00062659
0.000662776
0.000699333
0.000735432
0.000770366
0.000803579
0.000834678
0.000863422
0.000889698
0.000913492
0.000934866
0.000953924
0.000970798
0.000985633
0.000998572
0.00100975
0.00101931
0.00102735
0.00103399
0.00103932
0.00104342
0.00104637
0.00104824
0.00104909
0.00104897
0.00104794
0.00104604
0.00104333
0.00103986
0.00103566
0.0010308
0.00102531
0.00101925
0.00101268
0.00100565
0.000998212
0.000990424
0.00098234
0.000974013
0.000965487
0.000956801
0.000947982
0.000939043
0.000929996
0.000920844
0.000912346
0.000904495
0.000897296
0.000890821
0.000885144
0.000880338
0.000876468
0.000873592
0.000871761
0.000871016
0.00087139
0.000872902
0.000875561
0.00087936
0.000884273
0.000890256
0.000897235
0.000905106
0.000913729
0.000922918
0.000932437
0.000941993
0.000951232
0.000959741
0.000967053
0.000972655
0.000976011
0.000976586
0.000973869
0.000967389
0.000956687
0.000941228
0.000920197
0.000892506
0.000861167
0.000828897
0.000795846
0.000762514
0.000729387
0.000696874
0.000665292
0.000634869
0.000605755
0.000578037
0.000551751
0.000526894
0.000503437
0.000481333
0.000460524
0.000440947
0.000422536
0.000405226
0.000388955
0.000373664
0.000359296
0.000345801
0.000333128
0.000321234
0.000310075
0.000299598
0.000289597
0.000279447
0.000269651
0.000260576
0.000252253
0.000244653
0.000237725
0.000231402
0.000225617
0.000220303
0.000215399
0.000210849
0.000206601
0.00020261
0.000198834
0.000195234
0.000191778
0.000188432
0.000185169
0.000181963
0.000178788
0.000175624
0.000172449
0.000169245
0.000165995
0.000162682
0.000159291
0.000155805
0.00015221
0.000148487
0.000144612
0.00014056
0.000136271
0.000131785
0.000126633
0.00012276
0.000139172
0.000242017
0.000325556
0.000394931
0.000451638
0.000496586
0.000530589
0.000554593
0.000569679
0.000576984
0.000577611
0.000572516
0.000562336
0.000547125
0.000525465
0.00049902
0.000470837
0.000445514
0.000429002
0.000427581
0.000445457
0.000481742
0.000529298
0.000577365
0.00061634
0.000641328
0.000654251
0.000660814
0.000666998
0.00067744
0.000695329
0.000722788
0.000760999
0.000810206
0.000869826
0.000938576
0.00101461
0.00109575
0.00117966
0.00126413
0.00134722
0.00142739
0.00150351
0.00157483
0.00164094
0.00170172
0.00175721
0.00180759
0.00185313
0.00189412
0.00193087
0.00196369
0.00199287
0.00201868
0.00204134
0.00206109
0.00207811
0.00209258
0.00210464
0.00211442
0.00212206
0.00212765
0.00213129
0.00213307
0.00213306
0.00213133
0.00212796
0.002123
0.00211652
0.00210857
0.0020992
0.00208849
0.00207648
0.00206323
0.00204881
0.00203327
0.00201668
0.00199911
0.00198065
0.00196136
0.00194136
0.00192076
0.00189968
0.00187829
0.0018568
0.00183585
0.00181529
0.00179519
0.00177569
0.00175692
0.00173904
0.00172217
0.00170643
0.00169195
0.00167881
0.00166711
0.00165691
0.00164824
0.0016411
0.00163548
0.00163128
0.0016284
0.00162664
0.00162576
0.00162542
0.00162523
0.00162469
0.00162323
0.00162022
0.00161497
0.00160678
0.00159497
0.00157893
0.00155817
0.00153231
0.0015011
0.00146439
0.00142248
0.00137863
0.00133348
0.00128754
0.00124145
0.00119583
0.00115117
0.00110787
0.00106619
0.00102631
0.000988302
0.000952191
0.000917946
0.000885504
0.000854785
0.000825694
0.000798133
0.000772004
0.000747214
0.000723676
0.000701308
0.000680037
0.000659799
0.000640533
0.000622187
0.000604712
0.000588054
0.000572106
0.000556649
0.00054141
0.000526332
0.00051184
0.000498002
0.000484853
0.000472402
0.000460634
0.000449521
0.000439021
0.000429085
0.000419658
0.000410684
0.000402102
0.000393852
0.000385874
0.000378109
0.000370497
0.00036298
0.000355502
0.000348008
0.000340443
0.000332755
0.000324892
0.000316798
0.000308419
0.000299695
0.000290557
0.000280923
0.000270683
0.000259696
0.000247704
0.000234466
0.00021895
0.000201613
0.000155485
0.000274956
0.000380382
0.000469957
0.000543423
0.000601522
0.000645459
0.000676721
0.000696938
0.000707758
0.000710731
0.000707169
0.000697956
0.000683274
0.000662572
0.000637521
0.000611126
0.000588207
0.000575319
0.00057914
0.000602744
0.000643272
0.00069207
0.000738264
0.000775516
0.000802617
0.000822759
0.000841922
0.00086647
0.000901563
0.000950526
0.0010148
0.00109415
0.00118695
0.00129062
0.00140206
0.00151807
0.00163565
0.00175222
0.00186575
0.00197468
0.00207797
0.00217497
0.00226536
0.00234906
0.00242614
0.00249684
0.00256141
0.0026202
0.00267353
0.00272174
0.00276515
0.00280406
0.00283875
0.00286948
0.00289648
0.00291997
0.00294012
0.00295712
0.00297111
0.00298225
0.00299065
0.00299643
0.00299969
0.00300052
0.00299903
0.00299528
0.00298934
0.0029813
0.00297121
0.00295915
0.00294516
0.00292932
0.00291168
0.00289232
0.00287128
0.00284866
0.00282451
0.00279893
0.00277201
0.00274384
0.00271453
0.00268421
0.002653
0.00262102
0.00258877
0.00255621
0.00252342
0.00249051
0.00245764
0.00242494
0.00239259
0.00236072
0.00232949
0.00229907
0.00226958
0.00224117
0.00221394
0.002188
0.00216341
0.00214018
0.00211831
0.00209772
0.00207824
0.00205967
0.00204169
0.00202388
0.00200576
0.00198675
0.00196622
0.0019435
0.00191795
0.00188901
0.00185622
0.0018193
0.0017781
0.00173263
0.00168454
0.00163557
0.00158589
0.00153602
0.00148659
0.00143817
0.00139121
0.00134604
0.00130288
0.00126183
0.00122292
0.00118611
0.00115133
0.00111848
0.00108742
0.00105804
0.00103021
0.0010038
0.000978706
0.000954818
0.000932045
0.0009103
0.000889511
0.000869613
0.000850548
0.000832266
0.00081472
0.00079785
0.00078157
0.000765752
0.000750159
0.000734842
0.000719974
0.000705588
0.00069171
0.000678353
0.000665516
0.000653186
0.000641339
0.000629941
0.000618951
0.000608318
0.00059799
0.000587906
0.000578004
0.000568219
0.000558484
0.000548728
0.000538883
0.000528876
0.000518635
0.000508085
0.000497147
0.000485737
0.000473764
0.000461119
0.000447675
0.000433261
0.000417649
0.000400464
0.000381216
0.000358617
0.000332033
0.000169529
0.000305362
0.000432382
0.00054071
0.000628355
0.000696157
0.000746046
0.000780348
0.000801463
0.000811687
0.000813069
0.000807242
0.000795245
0.000776759
0.000753547
0.000728265
0.000704759
0.000688234
0.000684754
0.000700223
0.000732837
0.000776708
0.000824062
0.000868281
0.000906627
0.000940534
0.000974595
0.00101497
0.00106737
0.00113568
0.00122132
0.0013235
0.00143981
0.00156691
0.00170118
0.00183917
0.00197785
0.00211477
0.00224804
0.00237625
0.00249847
0.00261408
0.00272275
0.00282435
0.00291892
0.00300658
0.00308755
0.00316208
0.00323046
0.00329298
0.00334994
0.00340161
0.00344828
0.00349021
0.00352763
0.00356078
0.00358985
0.00361505
0.00363655
0.0036545
0.00366906
0.00368037
0.00368854
0.00369369
0.00369593
0.00369535
0.00369205
0.00368609
0.00367757
0.00366656
0.00365311
0.0036373
0.00361919
0.00359883
0.0035763
0.00355166
0.00352495
0.00349626
0.00346565
0.00343318
0.00339893
0.00336299
0.00332543
0.00328635
0.00324583
0.00320408
0.00316124
0.00311735
0.0030725
0.00302683
0.00298045
0.00293351
0.00288617
0.00283857
0.00279089
0.0027433
0.00269599
0.00264913
0.0026029
0.00255748
0.002513
0.00246961
0.00242738
0.00238636
0.00234649
0.00230766
0.00226966
0.0022322
0.00219487
0.00215718
0.00211861
0.00207863
0.00203675
0.0019926
0.00194594
0.00189661
0.00184518
0.00179374
0.00174227
0.0016911
0.00164071
0.00159163
0.00154431
0.00149906
0.0014561
0.00141553
0.00137736
0.00134151
0.00130789
0.00127635
0.00124673
0.00121888
0.00119263
0.00116784
0.00114436
0.00112207
0.00110086
0.00108061
0.00106126
0.00104271
0.00102491
0.0010078
0.000991329
0.000975453
0.000960131
0.000945315
0.000930941
0.0009169
0.000903024
0.000889443
0.000876182
0.000863258
0.000850684
0.000838466
0.0008266
0.000815075
0.000803868
0.000792951
0.000782286
0.000771827
0.000761523
0.000751316
0.000741145
0.000730942
0.000720638
0.00071016
0.00069943
0.00068837
0.000676898
0.000664924
0.000652356
0.000639089
0.000625004
0.000609959
0.000593771
0.000576198
0.000556867
0.000535258
0.000510253
0.000481117
0.00018087
0.000329026
0.000478152
0.000606121
0.000707806
0.000784183
0.000838259
0.000873453
0.000893058
0.00090005
0.000896971
0.000885805
0.000867875
0.000844515
0.000818882
0.000795642
0.000779389
0.000774653
0.000784623
0.000809739
0.000846794
0.00089074
0.000936751
0.000981985
0.00102668
0.001074
0.00112888
0.00119639
0.00128013
0.00138134
0.00149897
0.00163032
0.00177187
0.00191997
0.00207129
0.00222303
0.00237292
0.00251926
0.0026608
0.00279664
0.00292619
0.00304908
0.00316512
0.00327424
0.00337647
0.00347192
0.00356073
0.00364311
0.00371927
0.00378944
0.00385385
0.00391275
0.00396635
0.0040149
0.00405859
0.00409764
0.00413223
0.00416255
0.00418877
0.00421104
0.00422952
0.00424434
0.00425562
0.00426348
0.00426804
0.00426938
0.00426762
0.00426281
0.00425506
0.00424443
0.00423098
0.00421479
0.0041959
0.00417437
0.00415026
0.00412361
0.00409446
0.00406287
0.00402888
0.00399254
0.00395388
0.00391295
0.00386981
0.0038245
0.00377708
0.00372762
0.00367621
0.00362292
0.00356783
0.00351103
0.00345262
0.00339271
0.00333144
0.00326893
0.00320535
0.00314088
0.0030757
0.00301004
0.00294412
0.00287819
0.00281251
0.00274734
0.00268292
0.00261949
0.00255722
0.00249623
0.00243655
0.00237815
0.00232088
0.00226447
0.00220861
0.00215296
0.00209711
0.00204087
0.00198404
0.00192656
0.00187052
0.00181565
0.0017621
0.00171018
0.00166032
0.00161288
0.00156813
0.00152623
0.00148722
0.00145104
0.00141756
0.00138661
0.00135798
0.00133144
0.00130679
0.0012838
0.00126229
0.00124209
0.00122303
0.00120498
0.00118782
0.00117144
0.00115577
0.00114073
0.00112626
0.0011123
0.00109882
0.00108577
0.00107313
0.00106086
0.00104893
0.00103727
0.00102577
0.00101443
0.00100328
0.000992327
0.000981578
0.00097104
0.00096071
0.000950579
0.000940632
0.000930845
0.000921186
0.000911617
0.000902093
0.000892561
0.000882964
0.000873238
0.000863316
0.000853126
0.000842593
0.000831636
0.000820174
0.000808117
0.000795371
0.000781834
0.000767389
0.000751902
0.000735207
0.000717092
0.000697247
0.000675246
0.00065029
0.000621946
0.000188652
0.000339454
0.000514991
0.000665444
0.000781991
0.000866514
0.000923908
0.000958987
0.000976016
0.000978671
0.000970122
0.000953237
0.000930658
0.000905786
0.000882648
0.000865529
0.000858197
0.00086316
0.000881095
0.000910692
0.000949129
0.000993306
0.00104114
0.00109246
0.00114927
0.00121513
0.00129393
0.00138854
0.00149986
0.00162679
0.00176668
0.00191619
0.00207189
0.0022307
0.00239005
0.00254788
0.00270266
0.00285322
0.00299873
0.00313861
0.00327245
0.00339999
0.00352108
0.00363566
0.00374372
0.00384532
0.00394054
0.00402951
0.00411237
0.00418928
0.00426042
0.00432596
0.00438609
0.00444099
0.00449084
0.00453581
0.00457607
0.00461178
0.0046431
0.00467018
0.00469316
0.00471215
0.0047273
0.0047387
0.00474647
0.00475071
0.0047515
0.00474892
0.00474306
0.00473398
0.00472174
0.0047064
0.004688
0.00466659
0.00464221
0.00461489
0.00458466
0.00455155
0.00451557
0.00447674
0.00443509
0.00439062
0.00434336
0.00429333
0.00424052
0.00418496
0.00412662
0.00406561
0.00400199
0.00393581
0.00386716
0.0037961
0.00372273
0.00364715
0.00356951
0.00348997
0.0034087
0.00332592
0.00324189
0.00315688
0.00307123
0.00298528
0.00289943
0.00281408
0.0027296
0.00264633
0.00256456
0.00248454
0.00240646
0.00233031
0.00225596
0.00218347
0.00211242
0.00204304
0.00197516
0.00191045
0.00184849
0.00178928
0.00173303
0.00168005
0.0016306
0.00158488
0.00154297
0.00150481
0.00147025
0.00143906
0.00141095
0.0013856
0.00136268
0.00134188
0.00132291
0.0013055
0.00128941
0.00127445
0.00126044
0.00124723
0.00123471
0.00122276
0.0012113
0.00120028
0.00118963
0.00117932
0.0011693
0.00115956
0.00115006
0.00114079
0.00113172
0.00112282
0.00111403
0.0011053
0.00109663
0.00108805
0.00107955
0.00107113
0.0010628
0.00105455
0.00104635
0.00103819
0.00103004
0.00102186
0.00101361
0.00100525
0.000996719
0.000987954
0.000978892
0.000969463
0.000959594
0.000949206
0.00093822
0.000926548
0.0009141
0.000900779
0.000886478
0.000871077
0.000854436
0.000836382
0.000816681
0.000795022
0.000770891
0.00074416
0.000197131
0.000340151
0.000547497
0.000720449
0.000850588
0.000942598
0.00100321
0.00103858
0.00105392
0.0010537
0.00104194
0.00102259
0.000999077
0.000975514
0.000956036
0.00094432
0.000943
0.000953282
0.000974925
0.00100661
0.00104659
0.00109356
0.00114736
0.00120923
0.00128157
0.0013671
0.00146783
0.00158432
0.00171546
0.00185886
0.00201147
0.00217017
0.00233216
0.00249508
0.00265706
0.00281667
0.00297282
0.00312474
0.00327183
0.00341368
0.00354998
0.00368053
0.00380518
0.00392383
0.00403645
0.00414303
0.0042436
0.00433822
0.00442695
0.0045099
0.00458718
0.00465891
0.00472523
0.00478626
0.00484216
0.00489305
0.00493909
0.0049804
0.00501713
0.0050494
0.00507733
0.00510105
0.00512066
0.00513628
0.00514799
0.00515589
0.00516006
0.00516058
0.00515752
0.00515093
0.00514086
0.00512737
0.00511049
0.00509024
0.00506666
0.00503977
0.00500956
0.00497605
0.00493924
0.00489912
0.00485569
0.00480894
0.00475885
0.00470541
0.00464864
0.00458832
0.00452452
0.00445733
0.00438677
0.00431289
0.00423571
0.00415527
0.00407164
0.00398489
0.00389512
0.00380247
0.00370711
0.00360924
0.00350909
0.00340696
0.0033032
0.00319822
0.00309251
0.00298662
0.00288111
0.00277647
0.00267319
0.00257179
0.00247292
0.00237679
0.00228339
0.0021935
0.00210635
0.00202377
0.00194576
0.00187218
0.00180303
0.00173849
0.00167877
0.00162408
0.00157454
0.00153015
0.00149078
0.00145618
0.00142596
0.00139971
0.00137696
0.00135724
0.0013401
0.00132512
0.00131192
0.00130018
0.00128962
0.00128
0.00127113
0.00126285
0.00125504
0.00124758
0.00124042
0.00123348
0.00122672
0.00122012
0.00121364
0.00120727
0.00120099
0.0011948
0.00118868
0.00118263
0.00117659
0.00117052
0.00116442
0.0011583
0.00115216
0.001146
0.00113982
0.0011336
0.00112734
0.00112101
0.00111458
0.00110802
0.00110129
0.00109433
0.00108711
0.00107955
0.00107159
0.00106317
0.00105421
0.00104464
0.00103437
0.00102333
0.00101143
0.000998579
0.000984677
0.00096962
0.000953292
0.000935557
0.000916244
0.000895142
0.00087194
0.000846713
0.000205234
0.000357496
0.000586148
0.000775462
0.000916406
0.0010149
0.00107896
0.00111576
0.00113129
0.00113073
0.00111885
0.00109964
0.00107716
0.0010557
0.00103923
0.00103092
0.00103283
0.00104576
0.00106951
0.00110333
0.00114656
0.00119912
0.00126176
0.00133601
0.00142362
0.0015259
0.00164307
0.00177408
0.00191682
0.0020686
0.00222663
0.00238833
0.00255155
0.00271453
0.00287592
0.00303472
0.00319014
0.00334163
0.00348874
0.00363116
0.00376863
0.00390095
0.00402797
0.00414957
0.00426568
0.00437624
0.00448121
0.0045806
0.00467442
0.00476271
0.00484553
0.00492294
0.00499503
0.00506189
0.00512362
0.00518032
0.00523211
0.00527907
0.00532134
0.00535901
0.00539219
0.00542098
0.00544548
0.00546578
0.00548195
0.00549409
0.00550226
0.00550652
0.00550694
0.00550356
0.00549642
0.00548556
0.00547099
0.00545275
0.00543082
0.00540523
0.00537595
0.00534298
0.0053063
0.00526588
0.00522169
0.00517369
0.00512186
0.00506615
0.00500652
0.00494268
0.00487472
0.0048027
0.00472663
0.00464652
0.00456237
0.00447418
0.00438197
0.0042858
0.00418573
0.00408189
0.00397441
0.00386347
0.00374929
0.00363216
0.00351241
0.00339047
0.00326687
0.00314232
0.00301754
0.00289315
0.00276974
0.00264792
0.00252904
0.00241364
0.00230119
0.00219422
0.00209295
0.00199748
0.00190796
0.0018246
0.00174759
0.00167716
0.0016135
0.0015567
0.0015067
0.00146331
0.00142617
0.0013948
0.00136862
0.00134701
0.00132932
0.00131493
0.00130326
0.00129379
0.00128607
0.0012797
0.00127437
0.0012698
0.00126578
0.00126214
0.00125876
0.00125553
0.00125239
0.00124929
0.00124619
0.00124308
0.00123993
0.00123674
0.00123351
0.00123024
0.00122693
0.00122357
0.00122016
0.00121662
0.00121298
0.00120923
0.00120538
0.00120144
0.00119738
0.0011932
0.00118889
0.00118442
0.00117976
0.00117488
0.00116974
0.00116428
0.00115846
0.00115222
0.00114548
0.00113819
0.00113027
0.00112165
0.00111225
0.00110199
0.00109078
0.00107854
0.00106519
0.00105063
0.00103476
0.00101747
0.000998652
0.000978157
0.000955811
0.000931799
0.00020202
0.000346322
0.00061189
0.000822983
0.000976096
0.00108182
0.00115051
0.00119053
0.00120858
0.0012103
0.00120078
0.00118372
0.00116361
0.00114471
0.00113078
0.00112482
0.00112877
0.00114358
0.00116947
0.00120636
0.00125432
0.00131383
0.00138575
0.00147114
0.00157073
0.00168452
0.00181155
0.00195001
0.00209756
0.00225171
0.00241011
0.00257074
0.00273193
0.0028924
0.00305115
0.00320743
0.00336066
0.00351041
0.00365634
0.00379818
0.00393569
0.00406868
0.004197
0.0043205
0.00443907
0.0045526
0.00466103
0.0047643
0.00486238
0.00495525
0.00504292
0.00512541
0.00520276
0.00527501
0.00534222
0.00540446
0.0054618
0.00551431
0.00556209
0.0056052
0.00564373
0.00567776
0.00570737
0.00573262
0.00575359
0.00577034
0.00578293
0.0057914
0.00579581
0.00579617
0.00579252
0.00578489
0.00577327
0.00575767
0.00573808
0.00571449
0.00568688
0.0056552
0.00561943
0.00557952
0.00553541
0.00548705
0.00543438
0.00537732
0.00531576
0.00524942
0.0051784
0.00510272
0.00502236
0.00493731
0.00484753
0.00475301
0.00465373
0.00454969
0.00444096
0.00432764
0.00420985
0.00408775
0.00396152
0.00383144
0.00369782
0.00356105
0.00342163
0.00328044
0.00313846
0.00299634
0.00285471
0.0027138
0.00257621
0.00244314
0.00231478
0.00219231
0.00207639
0.00196758
0.00186636
0.00177317
0.00168836
0.00161218
0.00154472
0.00148593
0.00143556
0.0013932
0.00135825
0.00133001
0.00130768
0.00129044
0.00127749
0.00126806
0.00126144
0.00125702
0.00125428
0.00125277
0.00125213
0.00125207
0.00125236
0.00125284
0.00125337
0.00125386
0.00125426
0.00125452
0.00125462
0.00125456
0.00125433
0.00125394
0.0012534
0.00125271
0.0012519
0.00125096
0.00124988
0.00124862
0.0012472
0.00124562
0.00124388
0.00124197
0.0012399
0.00123764
0.00123519
0.0012325
0.00122956
0.00122632
0.00122275
0.00121879
0.00121438
0.00120948
0.001204
0.0011979
0.00119108
0.00118348
0.00117502
0.00116562
0.0011552
0.00114368
0.00113097
0.00111701
0.00110169
0.00108495
0.00106668
0.00104681
0.00102524
0.00100221
4.3886e-05
0.000307872
0.000629588
0.000864112
0.0010286
0.00114169
0.00121616
0.00126126
0.00128417
0.00129079
0.00128527
0.00127221
0.00125599
0.00124066
0.00122984
0.00122646
0.00123263
0.00124964
0.0012782
0.00131874
0.00137168
0.00143755
0.00151689
0.00161004
0.00171684
0.00183645
0.00196736
0.00210758
0.00225489
0.00240717
0.00256251
0.0027193
0.00287628
0.00303244
0.00318704
0.00333949
0.00348933
0.00363622
0.00377987
0.00392003
0.0040565
0.00418908
0.00431762
0.00444194
0.0045619
0.00467739
0.00478827
0.00489447
0.0049959
0.00509252
0.00518427
0.00527113
0.0053531
0.00543018
0.00550239
0.00556976
0.00563233
0.00569014
0.00574323
0.00579167
0.0058355
0.00587478
0.00590956
0.0059399
0.00596583
0.00598742
0.00600469
0.00601767
0.0060264
0.00603089
0.00603115
0.00602718
0.00601898
0.00600654
0.00598981
0.00596879
0.00594341
0.00591364
0.00587941
0.00584066
0.00579732
0.00574931
0.00569654
0.00563895
0.00557616
0.00550817
0.005435
0.00535663
0.00527302
0.00518413
0.00508989
0.00499027
0.0048852
0.00477465
0.00465865
0.00453736
0.00441086
0.00427928
0.0041428
0.00400166
0.00385618
0.00370669
0.00355344
0.00339751
0.00324045
0.00308276
0.0029253
0.00276908
0.00261572
0.00246652
0.00232255
0.00218501
0.00205498
0.00193343
0.00182119
0.00171893
0.00162711
0.00154596
0.00147547
0.00141541
0.00136529
0.00132445
0.00129206
0.00126718
0.00124879
0.0012359
0.00122753
0.00122277
0.00122084
0.00122102
0.00122275
0.00122552
0.00122896
0.00123277
0.00123672
0.00124064
0.00124442
0.00124798
0.00125127
0.00125427
0.00125698
0.0012594
0.00126154
0.00126344
0.00126509
0.00126654
0.00126779
0.00126885
0.00126974
0.00127041
0.00127089
0.00127117
0.00127126
0.00127115
0.00127084
0.0012703
0.00126953
0.00126848
0.00126712
0.00126542
0.00126333
0.0012608
0.00125777
0.00125417
0.00124994
0.00124502
0.00123931
0.00123276
0.00122528
0.00121679
0.00120721
0.00119648
0.0011845
0.0011712
0.00115652
0.00114039
0.00112273
0.00110351
0.00108267
0.00106047
0.000216123
0.000384394
0.00067224
0.000903009
0.00107267
0.00119236
0.00127346
0.00132517
0.00135478
0.00136771
0.0013685
0.00136166
0.00135133
0.00134133
0.00133509
0.00133553
0.00134491
0.00136485
0.00139646
0.00144045
0.00149734
0.0015675
0.00165106
0.00174778
0.00185696
0.00197736
0.00210733
0.00224499
0.00238842
0.00253581
0.00268561
0.00283654
0.0029876
0.00313801
0.00328717
0.00343461
0.00357994
0.00372285
0.00386309
0.00400045
0.00413475
0.0042658
0.00439342
0.00451744
0.0046377
0.00475405
0.00486635
0.00497446
0.00507829
0.00517773
0.00527271
0.00536315
0.00544902
0.00553028
0.00560691
0.0056789
0.00574625
0.00580897