/*--------------------------------*- C++ -*----------------------------------*\
  =========                 |
  \\      /  F ield         | OpenFOAM: The Open Source CFD Toolbox
   \\    /   O peration     | Website:  https://openfoam.org
    \\  /    A nd           | Version:  12
     \\/     M anipulation  |
\*---------------------------------------------------------------------------*/
FoamFile
{
    format      ascii;
    class       volScalarField;
    location    "0.04";
    object      p;
}
// * * * * * * * * * * * * * * * * * * * * * * * * * * * * * * * * * * * * * //

dimensions      [0 2 -2 0 0 0 0];

internalField   nonuniform List<scalar> 
12225
(
-1.10403
-3.37942
-4.5348
-4.83403
-4.99033
-5.13497
-5.24142
-5.30852
-5.35341
-5.38604
-5.4079
-5.41842
-5.41735
-5.40352
-5.3739
-5.31724
-5.26293
-5.13083
-4.56062
-5.26342
-5.35002
-5.20624
-5.15413
-5.20609
-5.2685
-5.31288
-5.34508
-5.37005
-5.38727
-5.39519
-5.39299
-5.37936
-5.35216
-5.30544
-5.26419
-5.18181
-4.77238
-4.66958
-4.81933
-4.9308
-5.02521
-5.13223
-5.22235
-5.28374
-5.32635
-5.35804
-5.38019
-5.39219
-5.39372
-5.38411
-5.36245
-5.32707
-5.29708
-5.25201
-4.63628
-4.55548
-4.82434
-4.9935
-5.07585
-5.15815
-5.23537
-5.2919
-5.33221
-5.36266
-5.38444
-5.39687
-5.39968
-5.39266
-5.37597
-5.35076
-5.33055
-5.30897
-4.64341
-4.6578
-4.8915
-5.03217
-5.0962
-5.1661
-5.23796
-5.29324
-5.33325
-5.36365
-5.38586
-5.39942
-5.40425
-5.40065
-5.38955
-5.3734
-5.36131
-5.35282
-4.70601
-4.74591
-4.91757
-5.03905
-5.10508
-5.17297
-5.2418
-5.29621
-5.33632
-5.36704
-5.38999
-5.40497
-5.41211
-5.41209
-5.40633
-5.39759
-5.39216
-5.39197
-4.76723
-4.80431
-4.93468
-5.04775
-5.11841
-5.1838
-5.2484
-5.3013
-5.34145
-5.3726
-5.39644
-5.41302
-5.42266
-5.42628
-5.42547
-5.4229
-5.423
-5.42799
-4.8223
-4.85479
-4.95923
-5.06298
-5.13415
-5.19614
-5.25652
-5.30788
-5.34813
-5.37988
-5.4048
-5.4232
-5.43553
-5.44281
-5.44663
-5.4493
-5.45394
-5.46219
-4.87449
-4.90388
-4.98905
-5.08131
-5.15042
-5.20951
-5.26635
-5.31618
-5.35651
-5.389
-5.41518
-5.43559
-5.45073
-5.46162
-5.46974
-5.47693
-5.48536
-5.49601
-4.92482
-4.9512
-5.02103
-5.1018
-5.16773
-5.2244
-5.27821
-5.32648
-5.36684
-5.40015
-5.42776
-5.45028
-5.46829
-5.48271
-5.49482
-5.50602
-5.5178
-5.53064
-4.97322
-4.99638
-5.05415
-5.12456
-5.18661
-5.24095
-5.29214
-5.33892
-5.37926
-5.41349
-5.44263
-5.46737
-5.48826
-5.50611
-5.52195
-5.53685
-5.55177
-5.56693
-5.01574
-5.03605
-5.08519
-5.14732
-5.20542
-5.25758
-5.30672
-5.35227
-5.39262
-5.42773
-5.45837
-5.48516
-5.50865
-5.52953
-5.54862
-5.5667
-5.58447
-5.60202
-5.05606
-5.07394
-5.11614
-5.1711
-5.22525
-5.27529
-5.32268
-5.3672
-5.40761
-5.44365
-5.47583
-5.5047
-5.53076
-5.55456
-5.57675
-5.59792
-5.61856
-5.63868
-5.09974
-5.1153
-5.15125
-5.19943
-5.24933
-5.29705
-5.34281
-5.38646
-5.42708
-5.46428
-5.49833
-5.52966
-5.55866
-5.58579
-5.61151
-5.63624
-5.66031
-5.68373
-5.14604
-5.15947
-5.19011
-5.23229
-5.27802
-5.32339
-5.36777
-5.41085
-5.45195
-5.49063
-5.52692
-5.56111
-5.59349
-5.62438
-5.6541
-5.68293
-5.71111
-5.73866
-5.19366
-5.20529
-5.23176
-5.26909
-5.3112
-5.35453
-5.39796
-5.441
-5.48302
-5.52358
-5.56256
-5.60007
-5.6363
-5.67143
-5.70568
-5.73923
-5.77225
-5.80478
-5.24041
-5.25074
-5.27434
-5.30834
-5.34794
-5.39001
-5.43326
-5.477
-5.52063
-5.56367
-5.6059
-5.64729
-5.6879
-5.72783
-5.7672
-5.80611
-5.8447
-5.883
-5.28252
-5.29222
-5.31446
-5.34703
-5.38583
-5.42806
-5.47234
-5.5179
-5.56411
-5.61047
-5.65667
-5.70259
-5.74818
-5.79347
-5.8385
-5.88333
-5.92804
-5.97263
-5.31318
-5.32316
-5.34599
-5.37965
-5.42016
-5.46471
-5.51188
-5.56088
-5.61108
-5.66192
-5.71305
-5.76427
-5.8155
-5.8667
-5.91787
-5.96899
-6.02014
-6.07126
-5.31799
-5.32923
-5.3548
-5.39241
-5.4374
-5.48639
-5.53789
-5.59129
-5.646
-5.70145
-5.75723
-5.81318
-5.8692
-5.92526
-5.98131
-6.03734
-6.09338
-6.14938
-5.30583
-5.31854
-5.34773
-5.39069
-5.44126
-5.49514
-5.55104
-5.60869
-5.66747
-5.72672
-5.78612
-5.84558
-5.90507
-5.96454
-6.02394
-6.08328
-6.14259
-6.20179
-5.28152
-5.29567
-5.32972
-5.38038
-5.43789
-5.49676
-5.557
-5.61897
-5.68174
-5.74443
-5.80687
-5.86916
-5.93135
-5.9934
-6.0553
-6.11704
-6.17869
-6.24016
-5.24876
-5.26332
-5.30315
-5.36461
-5.43062
-5.49441
-5.55867
-5.62467
-5.69096
-5.75654
-5.8215
-5.88611
-5.95042
-6.01442
-6.07815
-6.14164
-6.20497
-6.26808
-5.21057
-5.22422
-5.27142
-5.3454
-5.41959
-5.48875
-5.55821
-5.62844
-5.6975
-5.76507
-5.83185
-5.89817
-5.964
-6.02936
-6.09434
-6.15903
-6.22349
-6.2877
-5.16767
-5.17757
-5.24371
-5.33126
-5.4063
-5.47798
-5.554
-5.62978
-5.70178
-5.77109
-5.83934
-5.90695
-5.97384
-6.04008
-6.10584
-6.17126
-6.23644
-6.30138
-5.1224
-5.10074
-5.21677
-5.33381
-5.40464
-5.47115
-5.54904
-5.62795
-5.7019
-5.77262
-5.84218
-5.9109
-5.97864
-6.04555
-6.11189
-6.17783
-6.24348
-6.30886
-5.11559
-4.97282
-5.13666
-5.31083
-5.40582
-5.4797
-5.55927
-5.63723
-5.70986
-5.77994
-5.84929
-5.91784
-5.98541
-6.05217
-6.11839
-6.18421
-6.24983
-6.31524
-5.26165
-4.98292
-5.02194
-5.15896
-5.28806
-5.40761
-5.51649
-5.60924
-5.69057
-5.76693
-5.8408
-5.91246
-5.9822
-6.05055
-6.11794
-6.18464
-6.25109
-6.31774
-5.19133
-5.69669
-5.71485
-5.56491
-5.49541
-5.53162
-5.60021
-5.66647
-5.73063
-5.79632
-5.86312
-5.92969
-5.99558
-6.06092
-6.1258
-6.19022
-6.25435
-6.31993
-1.86447
-3.73275
-4.80815
-5.10988
-5.25533
-5.40495
-5.53171
-5.62872
-5.71078
-5.78793
-5.86235
-5.93408
-6.00362
-6.07164
-6.13845
-6.20396
-6.2677
-6.32771
-7.3405
-7.3192
-7.31117
-7.33267
-7.39298
-7.49163
-7.61998
-7.7656
-7.91559
-8.05798
-8.182
-8.27818
-8.33823
-8.35934
-8.34815
-8.31089
-8.2536
-8.1829
-8.10717
-8.03527
-7.97412
-7.92789
-7.8983
-7.88518
-7.88732
-7.90341
-7.93231
-7.97348
-8.02805
-8.09984
-8.19498
-8.32368
-8.49678
-8.72527
-9.01735
-9.37634
-9.79961
-10.2789
-10.8015
-11.3525
-11.9164
-12.4791
-13.0286
-13.5558
-14.0544
-14.5209
-14.9537
-15.3528
-15.7196
-16.0558
-16.3637
-16.6458
-16.9044
-17.1418
-17.3602
-17.5613
-17.7468
-17.9181
-18.0766
-18.2231
-18.3586
-18.4837
-18.5991
-18.705
-18.8017
-18.8894
-18.9681
-19.0378
-19.0981
-19.1487
-19.1894
-19.2194
-19.2383
-19.2452
-19.2393
-19.2196
-19.1851
-19.1346
-19.0668
-18.9807
-18.8749
-18.748
-18.5976
-18.4196
-18.2094
-17.9658
-17.6864
-17.3681
-17.0074
-16.6006
-16.1435
-15.6319
-15.061
-14.426
-13.7217
-12.9431
-12.0846
-11.1411
-10.1077
-8.97995
-7.75429
-6.42845
-5.00188
-3.47635
-1.85653
-0.150616
1.62916
3.46613
5.33908
7.22258
9.08767
10.9032
12.6373
14.2597
15.7438
17.0688
18.222
19.2035
20.0168
20.6621
21.1477
21.4899
21.7067
21.8171
21.839
21.7895
21.6836
21.5344
21.3532
21.1493
20.9304
20.7029
20.4718
20.2411
20.014
19.7929
19.5798
19.376
19.1827
19.0004
18.8296
18.6708
18.5238
18.3892
18.2679
18.1549
18.0511
17.9564
17.871
17.7948
17.7273
17.6679
17.616
17.5711
17.5326
17.4999
17.4726
17.4501
17.432
17.4178
17.4073
17.4001
17.396
17.3948
17.3963
17.4006
17.4076
17.4176
17.4309
17.4481
17.4699
17.4974
17.5323
17.577
17.635
17.7111
17.8138
17.9515
18.1545
18.3878
-7.51461
-7.46385
-7.48498
-7.56153
-7.66485
-7.7865
-7.92148
-8.06151
-8.19748
-8.32137
-8.42668
-8.50866
-8.5645
-8.58776
-8.56788
-8.50472
-8.4033
-8.27353
-8.12925
-7.98684
-7.86338
-7.77213
-7.71801
-7.69693
-7.69919
-7.71375
-7.73241
-7.75429
-7.78601
-7.83843
-7.92202
-8.04849
-8.23306
-8.48944
-8.82527
-9.23985
-9.72406
-10.2624
-10.8361
-11.4259
-12.0149
-12.5892
-13.1388
-13.6574
-14.1416
-14.5902
-15.0038
-15.384
-15.7329
-16.053
-16.3468
-16.6169
-16.8654
-17.0946
-17.3062
-17.502
-17.6835
-17.8518
-18.0082
-18.1535
-18.2884
-18.4137
-18.5297
-18.6369
-18.7355
-18.8256
-18.9072
-18.9803
-19.0445
-19.0997
-19.1453
-19.1809
-19.2058
-19.2193
-19.2204
-19.2081
-19.1813
-19.1386
-19.0785
-18.9992
-18.8986
-18.7748
-18.6257
-18.4502
-18.2474
-18.0134
-17.7447
-17.4381
-17.0901
-16.6971
-16.2549
-15.7594
-15.206
-14.59
-13.9064
-13.15
-12.3157
-11.3982
-10.3927
-9.29456
-8.10022
-6.80706
-5.41414
-3.92264
-2.33645
-0.662817
1.08714
2.89798
4.74978
6.61831
8.47565
10.2914
12.0344
13.6744
15.1847
16.5437
17.7365
18.755
19.598
20.2715
20.7872
21.1602
21.4076
21.5475
21.5975
21.5742
21.4924
21.3653
21.204
21.0181
20.8152
20.602
20.3835
20.1639
19.9467
19.7343
19.5289
19.3319
19.1444
18.9674
18.8012
18.6462
18.5026
18.3699
18.247
18.1359
18.0346
17.943
17.8606
17.7868
17.7213
17.6635
17.613
17.5691
17.5314
17.4994
17.4725
17.4504
17.4325
17.4186
17.4082
17.401
17.3968
17.3955
17.3969
17.4009
17.4076
17.4173
17.4302
17.4468
17.4678
17.4944
17.528
17.5708
17.626
17.6977
17.7933
17.9183
18.0972
18.2905
-7.75258
-7.7034
-7.73894
-7.83264
-7.9473
-8.07111
-8.19912
-8.32493
-8.44167
-8.54325
-8.62451
-8.68123
-8.71008
-8.7084
-8.67388
-8.60464
-8.5016
-8.36864
-8.21417
-8.05262
-7.90288
-7.78223
-7.6988
-7.64901
-7.62266
-7.61124
-7.613
-7.63363
-7.68461
-7.78004
-7.93329
-8.15383
-8.44552
-8.80637
-9.22904
-9.70211
-10.2119
-10.7443
-11.2862
-11.826
-12.3549
-12.8658
-13.354
-13.8164
-14.2515
-14.6586
-15.0381
-15.3909
-15.7182
-16.0216
-16.3028
-16.5634
-16.8051
-17.0294
-17.2378
-17.4316
-17.6122
-17.7804
-17.9373
-18.0837
-18.2202
-18.3474
-18.4658
-18.5756
-18.6771
-18.7703
-18.8553
-18.9319
-19
-19.0592
-19.1091
-19.1491
-19.1787
-19.197
-19.2033
-19.1966
-19.1757
-19.1395
-19.0865
-19.0151
-18.9235
-18.8095
-18.6709
-18.5061
-18.3135
-18.0903
-17.8334
-17.5395
-17.2053
-16.8271
-16.4009
-15.9228
-15.3881
-14.7924
-14.1308
-13.3981
-12.5892
-11.699
-10.7225
-9.65508
-8.49286
-7.23287
-5.87366
-4.41569
-2.862
-1.21879
0.50398
2.29207
4.12671
5.98466
7.8387
9.65872
11.4133
13.072
14.6068
15.9949
17.2198
18.2725
19.1519
19.8626
20.4148
20.8227
21.103
21.2736
21.352
21.3547
21.2965
21.1908
21.0487
20.88
20.6926
20.4932
20.2869
20.0783
19.8708
19.6671
19.4693
19.2791
19.0978
18.9261
18.7648
18.6141
18.4741
18.3448
18.2257
18.1175
18.0189
17.9295
17.849
17.777
17.713
17.6566
17.6072
17.5645
17.5277
17.4965
17.4703
17.4488
17.4314
17.4177
17.4076
17.4006
17.3965
17.3951
17.3964
17.4002
17.4067
17.416
17.4283
17.4442
17.4643
17.4897
17.5216
17.5619
17.6134
17.6793
17.7652
17.8734
18.0169
18.1497
-8.02377
-8.00037
-8.0397
-8.12312
-8.22542
-8.33602
-8.44904
-8.55846
-8.65823
-8.7429
-8.80776
-8.84887
-8.8631
-8.84823
-8.80249
-8.72554
-8.61896
-8.48671
-8.3363
-8.17979
-8.03239
-7.9075
-7.81227
-7.74735
-7.71042
-7.70141
-7.72543
-7.792
-7.91151
-8.09154
-8.33479
-8.63868
-8.99642
-9.39878
-9.83575
-10.2976
-10.7752
-11.2606
-11.7467
-12.2272
-12.6971
-13.1521
-13.5891
-14.0058
-14.4008
-14.7735
-15.1238
-15.452
-15.7589
-16.0456
-16.3132
-16.5628
-16.7958
-17.0134
-17.2167
-17.4068
-17.5847
-17.7512
-17.9073
-18.0536
-18.1907
-18.319
-18.4389
-18.5508
-18.6547
-18.7507
-18.8389
-18.9191
-18.991
-19.0543
-19.1087
-19.1535
-19.1881
-19.2118
-19.2238
-19.223
-19.2083
-19.1786
-19.1326
-19.0686
-18.9851
-18.8802
-18.7519
-18.5983
-18.4171
-18.206
-17.9619
-17.6818
-17.3623
-16.9999
-16.5908
-16.1308
-15.6157
-15.0409
-14.4015
-13.6925
-12.9088
-12.0451
-11.0962
-10.0574
-8.9243
-7.69343
-6.36265
-4.93157
-3.40221
-1.77964
-0.0726807
1.70554
3.53713
5.39938
7.26508
9.10362
10.8825
12.5696
14.1351
15.554
16.8095
17.8931
18.8027
19.5417
20.1201
20.5522
20.855
21.0465
21.1442
21.1648
21.1234
21.0331
20.9054
20.7498
20.5745
20.386
20.1899
19.9905
19.7913
19.5952
19.4043
19.2205
19.0448
18.8784
18.7218
18.5754
18.4394
18.3137
18.1981
18.0925
17.9964
17.9095
17.8315
17.7617
17.6999
17.6454
17.5978
17.5566
17.5212
17.4912
17.466
17.4453
17.4287
17.4156
17.4059
17.3993
17.3954
17.3941
17.3953
17.399
17.4051
17.4139
17.4256
17.4406
17.4595
17.4832
17.5128
17.5499
17.5965
17.6551
17.7291
17.8181
17.9259
18.0088
-8.24132
-8.24477
-8.28522
-8.35493
-8.44085
-8.53478
-8.63072
-8.72305
-8.80636
-8.87573
-8.92682
-8.956
-8.96044
-8.93813
-8.88807
-8.8107
-8.70832
-8.58566
-8.45041
-8.31333
-8.18608
-8.07873
-7.99759
-7.94639
-7.92899
-7.95117
-8.02049
-8.14423
-8.32661
-8.56705
-8.8605
-9.19913
-9.57414
-9.97703
-10.4001
-10.8364
-11.2799
-11.7253
-12.1677
-12.6031
-13.028
-13.4396
-13.8357
-14.2148
-14.5759
-14.9185
-15.2424
-15.5479
-15.8355
-16.1059
-16.3599
-16.5983
-16.8223
-17.0325
-17.2301
-17.4158
-17.5905
-17.7549
-17.9096
-18.0553
-18.1925
-18.3215
-18.4427
-18.5562
-18.6623
-18.7609
-18.852
-18.9354
-19.011
-19.0783
-19.1369
-19.1864
-19.2261
-19.2552
-19.2729
-19.2783
-19.2703
-19.2477
-19.2092
-19.1534
-19.0786
-18.9831
-18.8651
-18.7223
-18.5527
-18.3537
-18.1227
-17.8566
-17.5522
-17.206
-16.8142
-16.3728
-15.8777
-15.3241
-14.7075
-14.0227
-13.2645
-12.4276
-11.5067
-10.4966
-9.39255
-8.19055
-6.88762
-5.4824
-3.97576
-2.37149
-0.677085
1.09553
2.92945
4.80246
6.68726
8.55239
10.3638
12.0871
13.6898
15.1455
16.4361
17.5521
18.4904
19.2548
19.8557
20.3081
20.6293
20.8377
20.9513
20.9868
20.9594
20.8824
20.7671
20.6231
20.4585
20.2801
20.0931
19.9021
19.7107
19.5216
19.3373
19.1593
18.9891
18.8277
18.6756
18.5334
18.4012
18.2791
18.1668
18.0643
17.9711
17.8869
17.8114
17.744
17.6843
17.6319
17.5861
17.5465
17.5126
17.484
17.46
17.4403
17.4245
17.4122
17.4031
17.3969
17.3933
17.3922
17.3935
17.397
17.4028
17.4111
17.4221
17.436
17.4535
17.4752
17.5021
17.5354
17.5766
17.627
17.6883
17.758
17.8343
17.8795
-8.34906
-8.36532
-8.41092
-8.47427
-8.54861
-8.62919
-8.71104
-8.78926
-8.85925
-8.91671
-8.95782
-8.9793
-8.97871
-8.95443
-8.90617
-8.83525
-8.74488
-8.64043
-8.52948
-8.42115
-8.32468
-8.24813
-8.1982
-8.1811
-8.20335
-8.27154
-8.39116
-8.56494
-8.79179
-9.06698
-9.38333
-9.73275
-10.1073
-10.4999
-10.9044
-11.3154
-11.7283
-12.1395
-12.5455
-12.9436
-13.3315
-13.7074
-14.0698
-14.4176
-14.7503
-15.0672
-15.3685
-15.6542
-15.9247
-16.1805
-16.422
-16.6502
-16.8655
-17.0689
-17.261
-17.4425
-17.6141
-17.7763
-17.9298
-18.0751
-18.2124
-18.3422
-18.4648
-18.5802
-18.6885
-18.7899
-18.8841
-18.9711
-19.0506
-19.1222
-19.1855
-19.24
-19.2851
-19.32
-19.3439
-19.356
-19.3551
-19.3401
-19.3097
-19.2626
-19.1971
-19.1116
-19.0041
-18.8727
-18.7151
-18.529
-18.3117
-18.0603
-17.7716
-17.4423
-17.0686
-16.6467
-16.1723
-15.641
-15.0481
-14.3884
-13.6569
-12.848
-11.9563
-10.9762
-9.90271
-8.73104
-7.45749
-6.07967
-4.59719
-3.01243
-1.33142
0.435322
2.27211
4.15744
6.06397
7.95936
9.80774
11.5718
13.2168
14.7145
16.0451
17.197
18.1663
18.9576
19.582
20.0551
20.3949
20.6205
20.75
20.8005
20.7873
20.7237
20.621
20.4889
20.3354
20.1671
19.9896
19.8074
19.6239
19.4422
19.2645
19.0927
18.9282
18.7719
18.6246
18.4868
18.3587
18.2403
18.1316
18.0324
17.9423
17.8611
17.7883
17.7234
17.6661
17.6159
17.5721
17.5344
17.5022
17.475
17.4524
17.4339
17.4191
17.4077
17.3993
17.3936
17.3905
17.3896
17.3909
17.3944
17.3999
17.4077
17.4179
17.4307
17.4466
17.4661
17.49
17.5192
17.5544
17.5962
17.6449
17.6965
17.746
17.7618
-8.32228
-8.34364
-8.40007
-8.46559
-8.53529
-8.60734
-8.67897
-8.74649
-8.80623
-8.85471
-8.88875
-8.90566
-8.90361
-8.88154
-8.83986
-8.78069
-8.70796
-8.62735
-8.54596
-8.47169
-8.41238
-8.37544
-8.36788
-8.39634
-8.46681
-8.58383
-8.74954
-8.96309
-9.22069
-9.51639
-9.84312
-10.1937
-10.5616
-10.9408
-11.3265
-11.7145
-12.1015
-12.4847
-12.8617
-13.2305
-13.5896
-13.9376
-14.2736
-14.5968
-14.9067
-15.2031
-15.486
-15.7553
-16.0115
-16.2549
-16.486
-16.7052
-16.9133
-17.1107
-17.2982
-17.4761
-17.6452
-17.8058
-17.9585
-18.1037
-18.2417
-18.3727
-18.4969
-18.6145
-18.7256
-18.8301
-18.9279
-19.0188
-19.1026
-19.1789
-19.2473
-19.3072
-19.3581
-19.3993
-19.4299
-19.449
-19.4557
-19.4487
-19.4269
-19.3889
-19.3332
-19.258
-19.1616
-19.0419
-18.8968
-18.7241
-18.521
-18.2849
-18.0126
-17.7007
-17.3458
-16.9439
-16.4909
-15.9825
-15.414
-14.7804
-14.0763
-13.2964
-12.4348
-11.486
-10.4442
-9.30436
-8.06191
-6.71343
-5.25727
-3.69433
-2.02904
-0.270346
1.56753
3.4641
5.39211
7.31824
9.20475
11.0114
12.7019
14.2453
15.619
16.8094
17.8124
18.6329
19.2826
19.778
20.138
20.382
20.5288
20.5957
20.598
20.549
20.4601
20.341
20.1995
20.0425
19.8754
19.7026
19.5278
19.3541
19.1838
19.0187
18.8603
18.7096
18.5676
18.4346
18.3109
18.1967
18.0919
17.9963
17.9097
17.8317
17.7619
17.6998
17.6452
17.5973
17.5558
17.5201
17.4898
17.4643
17.4432
17.4261
17.4125
17.4021
17.3945
17.3895
17.3869
17.3863
17.3878
17.3912
17.3965
17.4037
17.413
17.4247
17.4389
17.4561
17.4768
17.5015
17.5305
17.5638
17.6003
17.6354
17.6625
17.6551
-8.16184
-8.203
-8.26736
-8.33916
-8.40921
-8.47649
-8.5408
-8.59994
-8.65131
-8.69232
-8.72059
-8.73428
-8.7322
-8.71424
-8.68168
-8.63736
-8.58561
-8.53208
-8.48338
-8.44653
-8.42858
-8.43633
-8.47607
-8.55319
-8.67164
-8.83335
-9.03785
-9.28231
-9.562
-9.87102
-10.2031
-10.5522
-10.9129
-11.2805
-11.6511
-12.0215
-12.3891
-12.7515
-13.1071
-13.4544
-13.7921
-14.1195
-14.4357
-14.7403
-15.033
-15.3137
-15.5823
-15.839
-16.084
-16.3178
-16.5406
-16.7531
-16.9555
-17.1485
-17.3325
-17.5081
-17.6756
-17.8355
-17.9882
-18.1341
-18.2733
-18.4061
-18.5326
-18.6531
-18.7673
-18.8755
-18.9773
-19.0726
-19.1611
-19.2426
-19.3164
-19.3822
-19.4394
-19.4871
-19.5247
-19.5513
-19.5659
-19.5673
-19.5544
-19.5257
-19.48
-19.4154
-19.3302
-19.2225
-19.0902
-18.9311
-18.7426
-18.5219
-18.2661
-17.9719
-17.6358
-17.254
-16.8226
-16.3372
-15.7932
-15.1856
-14.5092
-13.7583
-12.9272
-12.0099
-11.0004
-9.89317
-8.68289
-7.36524
-5.93728
-4.39844
-2.75152
-1.00381
0.832117
2.73703
4.68389
6.63819
8.56089
10.4101
12.1467
13.7367
15.1543
16.3843
17.4222
18.2732
18.9498
19.4693
19.8512
20.1156
20.2817
20.3668
20.3865
20.3539
20.2805
20.1759
20.0479
19.9034
19.7478
19.5856
19.4205
19.2557
19.0934
18.9358
18.7842
18.6399
18.5036
18.376
18.2573
18.1478
18.0473
17.9557
17.8729
17.7984
17.732
17.6731
17.6213
17.5762
17.5372
17.5038
17.4755
17.452
17.4326
17.417
17.4047
17.3955
17.3889
17.3847
17.3826
17.3825
17.3842
17.3876
17.3926
17.3993
17.4077
17.4181
17.4305
17.4453
17.4626
17.4828
17.5057
17.5305
17.5557
17.576
17.5845
17.5588
-7.91657
-7.95248
-8.03453
-8.11708
-8.18931
-8.25439
-8.31331
-8.36549
-8.40953
-8.44383
-8.46694
-8.47793
-8.47654
-8.46364
-8.44136
-8.41312
-8.38355
-8.35815
-8.34304
-8.34453
-8.3688
-8.42156
-8.50762
-8.63051
-8.79204
-8.99205
-9.22848
-9.49761
-9.79459
-10.114
-10.4506
-10.7991
-11.1553
-11.5153
-11.8758
-12.2344
-12.5886
-12.9369
-13.2778
-13.6102
-13.9332
-14.2461
-14.5484
-14.84
-15.1205
-15.39
-15.6485
-15.8963
-16.1335
-16.3606
-16.5778
-16.7857
-16.9845
-17.1749
-17.3571
-17.5317
-17.6989
-17.8592
-18.0129
-18.1603
-18.3016
-18.437
-18.5666
-18.6904
-18.8086
-18.9209
-19.0272
-19.1274
-19.2212
-19.3081
-19.3879
-19.4599
-19.5236
-19.5782
-19.6231
-19.6574
-19.68
-19.69
-19.6861
-19.667
-19.6312
-19.5773
-19.5034
-19.4077
-19.2881
-19.1425
-18.9683
-18.763
-18.5234
-18.2466
-17.929
-17.5669
-17.1566
-16.6936
-16.1735
-15.5913
-14.9418
-14.2193
-13.4179
-12.5316
-11.554
-10.4791
-9.30101
-8.01465
-6.61588
-5.10273
-3.47629
-1.74229
0.0881878
1.99716
3.95807
5.9362
7.89157
9.78085
11.5612
13.1952
14.6548
15.9232
16.9955
17.8772
18.5813
19.126
19.5315
19.8182
20.0056
20.1111
20.1501
20.136
20.08
19.9916
19.8787
19.7482
19.6054
19.4549
19.3007
19.1457
18.9926
18.8432
18.6993
18.5619
18.4321
18.3105
18.1974
18.093
17.9973
17.9103
17.8317
17.7612
17.6985
17.6431
17.5946
17.5524
17.5162
17.4854
17.4595
17.438
17.4205
17.4066
17.3959
17.3879
17.3824
17.3791
17.3778
17.3782
17.3801
17.3835
17.3883
17.3945
17.402
17.411
17.4216
17.4339
17.4479
17.4635
17.4803
17.4972
17.5119
17.5191
17.5121
17.472
-7.57044
-7.64871
-7.74702
-7.8358
-7.90849
-7.97037
-8.02389
-8.06948
-8.10663
-8.13463
-8.15293
-8.16151
-8.1611
-8.15347
-8.14146
-8.12897
-8.12079
-8.12226
-8.139
-8.17653
-8.23999
-8.33371
-8.4609
-8.6233
-8.82104
-9.05258
-9.31499
-9.60423
-9.91568
-10.2445
-10.5861
-10.9362
-11.2911
-11.6474
-12.0026
-12.3544
-12.7009
-13.0407
-13.3727
-13.6959
-14.0097
-14.3137
-14.6074
-14.8908
-15.1638
-15.4264
-15.6788
-15.9212
-16.154
-16.3773
-16.5916
-16.7973
-16.9948
-17.1844
-17.3666
-17.5417
-17.7101
-17.8721
-18.028
-18.178
-18.3224
-18.4612
-18.5946
-18.7226
-18.8451
-18.9622
-19.0736
-19.1791
-19.2785
-19.3714
-19.4573
-19.5358
-19.6063
-19.6681
-19.7204
-19.7625
-19.7933
-19.8118
-19.8169
-19.8072
-19.7814
-19.7379
-19.6751
-19.5911
-19.4839
-19.3515
-19.1912
-19.0006
-18.7767
-18.5165
-18.2166
-17.8734
-17.4831
-17.0415
-16.5441
-15.986
-15.3619
-14.6663
-13.8933
-13.0364
-12.0892
-11.0453
-9.89835
-8.64246
-7.2726
-5.78556
-4.18099
-2.46316
-0.641799
1.26667
3.2366
5.23406
7.21745
9.14119
10.9596
12.6325
14.1295
15.4327
16.5369
17.4477
18.179
18.7493
19.1794
19.4899
19.7003
19.8281
19.8885
19.8948
19.8579
19.7874
19.6913
19.5761
19.4474
19.31
19.1677
19.0237
18.8805
18.7404
18.6049
18.4753
18.3527
18.2377
18.1308
18.0321
17.9419
17.8599
17.786
17.7199
17.6613
17.6098
17.5648
17.526
17.4928
17.4648
17.4415
17.4224
17.4071
17.3951
17.386
17.3795
17.3752
17.373
17.3724
17.3733
17.3756
17.3791
17.3837
17.3893
17.396
17.4037
17.4124
17.4222
17.4328
17.4439
17.4549
17.4643
17.4694
17.4652
17.4453
17.3937
-7.20953
-7.31727
-7.42173
-7.51625
-7.5917
-7.65195
-7.70132
-7.74137
-7.77252
-7.79494
-7.80909
-7.81572
-7.81642
-7.81365
-7.81084
-7.81223
-7.8227
-7.84738
-7.89138
-7.95947
-8.05569
-8.18311
-8.34353
-8.53734
-8.76349
-9.01964
-9.30243
-9.60781
-9.93145
-10.269
-10.6164
-10.9698
-11.3261
-11.6823
-12.0361
-12.3854
-12.7289
-13.065
-13.393
-13.712
-14.0216
-14.3213
-14.6111
-14.8907
-15.1604
-15.4201
-15.67
-15.9105
-16.1419
-16.3644
-16.5785
-16.7844
-16.9827
-17.1736
-17.3575
-17.5348
-17.7058
-17.8708
-18.0301
-18.1838
-18.3322
-18.4753
-18.6133
-18.7461
-18.8737
-18.9961
-19.1131
-19.2244
-19.3298
-19.4289
-19.5213
-19.6065
-19.6839
-19.7529
-19.8127
-19.8625
-19.9014
-19.9284
-19.9422
-19.9418
-19.9257
-19.8923
-19.8401
-19.7674
-19.6722
-19.5522
-19.4051
-19.2284
-19.0193
-18.7747
-18.4913
-18.1657
-17.794
-17.3722
-16.8958
-16.3599
-15.7594
-15.0886
-14.3416
-13.5119
-12.5929
-11.5778
-10.4598
-9.23267
-7.89055
-6.42932
-4.8474
-3.1472
-1.33692
0.567892
2.54279
4.55395
6.55881
8.50967
10.3585
12.0628
13.5904
14.9227
16.0542
16.9912
17.7478
18.3432
18.7981
19.1333
19.3681
19.5197
19.603
19.6311
19.615
19.5639
19.4858
19.3873
19.2741
19.1508
19.0215
18.8894
18.7571
18.627
18.5008
18.3798
18.2651
18.1574
18.0573
17.9651
17.8807
17.8043
17.7356
17.6744
17.6204
17.5731
17.5321
17.4969
17.4671
17.4423
17.4218
17.4053
17.3923
17.3823
17.3751
17.3702
17.3673
17.3662
17.3665
17.3681
17.3708
17.3744
17.3788
17.384
17.3898
17.3962
17.4031
17.4103
17.4176
17.4244
17.4298
17.4322
17.4287
17.4146
17.3838
17.3229
-6.89464
-6.97027
-7.09679
-7.20104
-7.27528
-7.33197
-7.37646
-7.41105
-7.43679
-7.4545
-7.46517
-7.47025
-7.47186
-7.47295
-7.4773
-7.48937
-7.51403
-7.55622
-7.62065
-7.71138
-7.83164
-7.9835
-8.16778
-8.38396
-8.63031
-8.90406
-9.20171
-9.5193
-9.85275
-10.198
-10.5514
-10.9094
-11.2691
-11.6278
-11.9833
-12.3338
-12.6779
-13.0144
-13.3424
-13.6614
-13.9708
-14.2705
-14.5602
-14.84
-15.11
-15.3703
-15.6212
-15.8629
-16.0958
-16.3201
-16.5364
-16.7449
-16.946
-17.1401
-17.3275
-17.5086
-17.6837
-17.853
-18.0168
-18.1753
-18.3286
-18.4769
-18.6202
-18.7585
-18.8918
-19.02
-19.143
-19.2604
-19.3721
-19.4777
-19.5767
-19.6687
-19.7531
-19.8293
-19.8965
-19.954
-20.0008
-20.036
-20.0584
-20.0668
-20.0599
-20.0362
-19.9942
-19.9321
-19.8479
-19.7396
-19.6048
-19.441
-19.2454
-19.0151
-18.7469
-18.4373
-18.0825
-17.6786
-17.2211
-16.7053
-16.1259
-15.4774
-14.7538
-13.9486
-13.055
-12.0661
-10.9745
-9.7735
-8.45682
-7.01957
-5.4591
-3.77655
-1.97865
-0.0798212
1.89621
3.91548
5.93458
7.90411
9.77411
11.5004
13.05
14.4037
15.5567
16.5155
17.2947
17.9135
18.3928
18.7529
19.0126
19.1888
19.2962
19.3474
19.353
19.3225
19.2635
19.1827
19.0859
18.9777
18.8623
18.743
18.6225
18.5033
18.3871
18.2754
18.1693
18.0696
17.977
17.8917
17.8139
17.7435
17.6806
17.6247
17.5756
17.533
17.4963
17.4652
17.4391
17.4176
17.4003
17.3866
17.3762
17.3685
17.3633
17.3602
17.3588
17.3589
17.3602
17.3626
17.3657
17.3695
17.3738
17.3785
17.3835
17.3886
17.3936
17.3984
17.4025
17.4052
17.4054
17.4013
17.3902
17.3673
17.3275
17.259
-6.56743
-6.6883
-6.80632
-6.9046
-6.97641
-7.02961
-7.07012
-7.10045
-7.122
-7.13606
-7.14404
-7.14777
-7.1497
-7.15305
-7.16177
-7.18038
-7.21373
-7.2666
-7.34338
-7.44775
-7.58237
-7.74876
-7.94716
-8.1766
-8.43501
-8.7195
-9.02657
-9.35239
-9.69298
-10.0445
-10.4034
-10.7665
-11.1307
-11.4937
-11.8531
-12.2075
-12.5552
-12.8952
-13.2267
-13.549
-13.8618
-14.1648
-14.4579
-14.7411
-15.0146
-15.2786
-15.5332
-15.7789
-16.0158
-16.2445
-16.4652
-16.6783
-16.8842
-17.0832
-17.2758
-17.4621
-17.6425
-17.8174
-17.9868
-18.151
-18.3101
-18.4643
-18.6136
-18.758
-18.8975
-19.0319
-19.1612
-19.2851
-19.4032
-19.5154
-19.6211
-19.72
-19.8113
-19.8946
-19.9691
-20.034
-20.0885
-20.1315
-20.1621
-20.1789
-20.1807
-20.166
-20.1334
-20.0811
-20.0072
-19.9095
-19.7858
-19.6337
-19.4503
-19.2329
-18.9782
-18.6828
-18.3432
-17.9551
-17.5143
-17.016
-16.4552
-15.8261
-15.1228
-14.3389
-13.4674
-12.5011
-11.4327
-10.2548
-8.96069
-7.54483
-6.00374
-4.33758
-2.55208
-0.660771
1.313
3.33498
5.36084
7.33983
9.22068
10.9584
12.5198
13.8864
15.0537
16.0289
16.8271
17.4671
17.9694
18.3538
18.6385
18.8397
18.9716
19.0463
19.0745
19.0651
19.026
18.9637
18.884
18.7917
18.6909
18.5851
18.4771
18.3695
18.264
18.1622
18.0654
17.9744
17.8898
17.8121
17.7413
17.6776
17.6208
17.5708
17.5271
17.4895
17.4576
17.4308
17.4088
17.391
17.3771
17.3665
17.3588
17.3537
17.3506
17.3494
17.3497
17.3512
17.3536
17.3567
17.3604
17.3645
17.3687
17.373
17.3772
17.381
17.3844
17.3868
17.3878
17.3866
17.382
17.372
17.3539
17.3235
17.276
17.2014
-6.29865
-6.43012
-6.53934
-6.63459
-6.70655
-6.75879
-6.79724
-6.82478
-6.84329
-6.85443
-6.85993
-6.86185
-6.86283
-6.86619
-6.87594
-6.89657
-6.93285
-6.98945
-7.07063
-7.17986
-7.31961
-7.49119
-7.69466
-7.92895
-8.19193
-8.48073
-8.79199
-9.12196
-9.46681
-9.82282
-10.1864
-10.5544
-10.9237
-11.2919
-11.6568
-12.0167
-12.3701
-12.716
-13.0534
-13.3816
-13.7004
-14.0095
-14.3087
-14.598
-14.8777
-15.1478
-15.4087
-15.6606
-15.9038
-16.1388
-16.3658
-16.5853
-16.7977
-17.0032
-17.2022
-17.395
-17.582
-17.7633
-17.9393
-18.11
-18.2757
-18.4365
-18.5923
-18.7433
-18.8893
-19.0303
-19.1661
-19.2966
-19.4214
-19.5402
-19.6526
-19.7582
-19.8564
-19.9465
-20.0281
-20.1001
-20.1618
-20.2123
-20.2504
-20.2751
-20.2849
-20.2786
-20.2546
-20.2112
-20.1465
-20.0583
-19.9445
-19.8026
-19.6299
-19.4237
-19.1807
-18.8977
-18.571
-18.1965
-17.77
-17.2867
-16.7416
-16.129
-15.4429
-14.6768
-13.8238
-12.8765
-11.8274
-10.6688
-9.39371
-7.99592
-6.47139
-4.81963
-3.04575
-1.16287
0.805629
2.8249
4.84968
6.82823
8.70873
10.4464
12.0089
13.3788
14.5529
15.5389
16.3518
17.0103
17.5339
17.9415
18.2506
18.4764
18.6327
18.7311
18.782
18.7941
18.7752
18.7318
18.6697
18.5937
18.5081
18.4164
18.3216
18.2261
18.1319
18.0407
17.9538
17.872
17.796
17.7264
17.6632
17.6066
17.5565
17.5127
17.475
17.4428
17.416
17.3939
17.3763
17.3625
17.3522
17.345
17.3403
17.3378
17.3372
17.338
17.3401
17.343
17.3467
17.3507
17.355
17.3594
17.3636
17.3676
17.371
17.3737
17.3754
17.3755
17.3737
17.3688
17.3597
17.3443
17.3201
17.2831
17.2291
17.1494
-6.10965
-6.21736
-6.32558
-6.41855
-6.48699
-6.53589
-6.57069
-6.59446
-6.60921
-6.61667
-6.61863
-6.61722
-6.61513
-6.61568
-6.62282
-6.64098
-6.67485
-6.72903
-6.80773
-6.91442
-7.05159
-7.22057
-7.42155
-7.65358
-7.91474
-8.20238
-8.51323
-8.84363
-9.1898
-9.54804
-9.91476
-10.2867
-10.6607
-11.0344
-11.4054
-11.772
-12.1325
-12.4857
-12.8308
-13.167
-13.4938
-13.811
-14.1184
-14.4159
-14.7037
-14.982
-15.251
-15.511
-15.7623
-16.0052
-16.2402
-16.4675
-16.6876
-16.9008
-17.1074
-17.3078
-17.5022
-17.6909
-17.8741
-18.0521
-18.2249
-18.3926
-18.5554
-18.7132
-18.8661
-19.0138
-19.1564
-19.2934
-19.4248
-19.5502
-19.6692
-19.7814
-19.8862
-19.983
-20.0712
-20.1499
-20.2185
-20.2758
-20.321
-20.3528
-20.37
-20.3712
-20.3549
-20.3193
-20.2626
-20.1827
-20.0774
-19.9443
-19.7807
-19.584
-19.3509
-19.0781
-18.7621
-18.3988
-17.984
-17.513
-16.9806
-16.3813
-15.709
-14.9572
-14.1188
-13.1865
-12.1525
-11.0091
-9.74874
-8.36508
-6.85367
-5.2137
-3.45013
-1.57624
0.384011
2.39486
4.4101
6.37754
8.24578
9.97134
11.5238
12.8876
14.0608
15.0518
15.8753
16.5491
17.0918
17.5211
17.8534
18.1031
18.2832
18.4049
18.4782
18.5118
18.5131
18.4887
18.4444
18.3851
18.3151
18.2379
18.1566
18.0737
17.9914
17.9113
17.8347
17.7626
17.6958
17.6348
17.5797
17.5308
17.4878
17.4508
17.4193
17.393
17.3716
17.3546
17.3416
17.3322
17.3258
17.3221
17.3206
17.3211
17.323
17.326
17.33
17.3346
17.3395
17.3446
17.3496
17.3543
17.3586
17.3623
17.3651
17.3667
17.3668
17.3648
17.3602
17.352
17.3387
17.3186
17.2889
17.2462
17.1866
17.1027
-5.97576
-6.07736
-6.17785
-6.26028
-6.32013
-6.3618
-6.38989
-6.40738
-6.41615
-6.41777
-6.41394
-6.40671
-6.39869
-6.39313
-6.3939
-6.40534
-6.43207
-6.47867
-6.54933
-6.64762
-6.77615
-6.93648
-7.1291
-7.35341
-7.60776
-7.88968
-8.19605
-8.52336
-8.86794
-9.2261
-9.59422
-9.96893
-10.3471
-10.7261
-11.1035
-11.4772
-11.8456
-12.2074
-12.5614
-12.907
-13.2434
-13.5703
-13.8876
-14.195
-14.4928
-14.781
-15.0597
-15.3294
-15.5903
-15.8426
-16.0869
-16.3234
-16.5524
-16.7744
-16.9897
-17.1986
-17.4013
-17.5982
-17.7894
-17.9751
-18.1556
-18.3309
-18.5011
-18.6662
-18.8261
-18.9808
-19.1302
-19.2741
-19.4122
-19.5441
-19.6696
-19.7883
-19.8995
-20.0027
-20.0972
-20.1824
-20.2573
-20.3211
-20.3728
-20.4112
-20.435
-20.443
-20.4334
-20.4046
-20.3548
-20.282
-20.1839
-20.0581
-19.9021
-19.7131
-19.4881
-19.2236
-18.9161
-18.5617
-18.1561
-17.6945
-17.1719
-16.5827
-15.9207
-15.1795
-14.3519
-13.4305
-12.4074
-11.2746
-10.0247
-8.65092
-7.14878
-5.51753
-3.76249
-1.89773
0.051567
2.04827
4.04524
5.99041
7.83385
9.53468
11.0655
12.4132
13.5777
14.5675
15.397
16.0829
16.6422
17.0914
17.4455
17.7181
17.9213
18.0658
18.1613
18.2161
18.2377
18.2325
18.2063
18.164
18.11
18.0478
17.9806
17.9109
17.841
17.7726
17.707
17.6453
17.5883
17.5365
17.4901
17.4494
17.4141
17.3843
17.3596
17.3396
17.3241
17.3126
17.3047
17.2999
17.2977
17.2979
17.2999
17.3034
17.308
17.3135
17.3195
17.3258
17.3322
17.3384
17.3442
17.3494
17.3538
17.3573
17.3594
17.36
17.3587
17.3548
17.3477
17.3363
17.3193
17.2948
17.2604
17.2126
17.1484
17.0608
-5.92276
-5.99875
-6.09723
-6.17368
-6.22102
-6.24986
-6.26654
-6.27375
-6.27292
-6.26525
-6.25217