/*--------------------------------*- C++ -*----------------------------------*\
  =========                 |
  \\      /  F ield         | OpenFOAM: The Open Source CFD Toolbox
   \\    /   O peration     | Website:  https://openfoam.org
    \\  /    A nd           | Version:  12
     \\/     M anipulation  |
\*---------------------------------------------------------------------------*/
FoamFile
{
    format      ascii;
    class       surfaceScalarField;
    location    "0.04";
    object      phi;
}
// * * * * * * * * * * * * * * * * * * * * * * * * * * * * * * * * * * * * * //

dimensions      [0 3 -1 0 0 0 0];

internalField   nonuniform List<scalar> 
24170
(
3.13329e-06
5.51164e-08
3.04773e-06
8.55573e-08
2.97219e-06
7.55394e-08
2.90277e-06
6.94267e-08
2.83715e-06
6.56143e-08
2.77894e-06
5.82075e-08
2.72885e-06
5.00914e-08
2.68593e-06
4.29273e-08
2.64886e-06
3.70665e-08
2.61646e-06
3.23953e-08
2.58774e-06
2.87239e-08
2.56184e-06
2.59014e-08
2.53801e-06
2.38298e-08
2.5155e-06
2.2509e-08
2.49345e-06
2.20522e-08
2.46998e-06
2.34668e-08
2.44429e-06
2.56896e-08
4.48472e-08
2.39944e-06
3.45372e-06
1.86424e-08
3.45618e-06
8.31034e-08
3.44939e-06
8.23231e-08
3.43743e-06
8.13917e-08
3.42246e-06
8.05777e-08
3.40432e-06
7.63487e-08
3.38395e-06
7.04661e-08
3.36214e-06
6.47378e-08
3.33965e-06
5.95588e-08
3.31706e-06
5.49811e-08
3.29476e-06
5.10246e-08
3.27295e-06
4.77149e-08
3.2517e-06
4.50747e-08
3.23098e-06
4.32261e-08
3.21076e-06
4.22716e-08
3.1911e-06
4.31263e-08
3.17244e-06
4.43497e-08
5.98852e-08
3.15741e-06
3.66539e-06
1.57696e-08
3.6781e-06
7.0394e-08
3.68488e-06
7.55416e-08
3.68877e-06
7.74973e-08
3.68996e-06
7.93949e-08
3.68821e-06
7.80933e-08
3.68402e-06
7.4664e-08
3.67792e-06
7.08308e-08
3.67034e-06
6.71386e-08
3.66161e-06
6.37181e-08
3.65197e-06
6.06613e-08
3.64162e-06
5.80673e-08
3.63066e-06
5.60264e-08
3.61917e-06
5.47175e-08
3.60712e-06
5.4328e-08
3.5947e-06
5.55439e-08
3.58117e-06
5.78818e-08
6.76686e-08
3.57338e-06
3.9246e-06
1.65622e-08
3.93555e-06
5.94408e-08
3.94199e-06
6.90983e-08
3.94704e-06
7.2449e-08
3.95091e-06
7.5529e-08
3.95315e-06
7.58482e-08
3.95389e-06
7.39218e-08
3.95342e-06
7.13061e-08
3.9519e-06
6.86573e-08
3.94947e-06
6.61489e-08
3.94624e-06
6.3894e-08
3.94229e-06
6.20182e-08
3.93767e-06
6.06439e-08
3.93243e-06
5.99581e-08
3.92658e-06
6.01717e-08
3.9204e-06
6.1725e-08
3.91372e-06
6.45649e-08
7.12446e-08
3.91014e-06
4.20769e-06
1.59976e-08
4.21572e-06
5.14174e-08
4.22104e-06
6.37698e-08
4.22551e-06
6.79853e-08
4.22961e-06
7.14274e-08
4.23283e-06
7.2624e-08
4.23505e-06
7.17004e-08
4.2364e-06
6.99616e-08
4.23696e-06
6.80917e-08
4.23682e-06
6.62913e-08
4.23603e-06
6.4683e-08
4.23465e-06
6.34039e-08
4.2327e-06
6.25889e-08
4.23025e-06
6.24101e-08
4.22737e-06
6.3052e-08
4.22432e-06
6.47754e-08
4.22127e-06
6.76137e-08
7.24571e-08
4.22006e-06
4.51036e-06
1.47227e-08
4.51656e-06
4.52216e-08
4.5215e-06
5.8826e-08
4.52566e-06
6.38311e-08
4.52963e-06
6.7456e-08
4.53303e-06
6.92163e-08
4.53569e-06
6.90479e-08
4.53764e-06
6.80064e-08
4.53897e-06
6.67638e-08
4.53972e-06
6.55458e-08
4.53992e-06
6.4482e-08
4.53961e-06
6.37111e-08
4.53883e-06
6.33665e-08
4.53765e-06
6.35932e-08
4.53617e-06
6.45296e-08
4.53464e-06
6.63115e-08
4.53332e-06
6.89269e-08
7.25444e-08
4.53323e-06
4.83404e-06
1.34017e-08
4.83926e-06
4.00047e-08
4.84412e-06
5.39662e-08
4.84817e-06
5.97776e-08
4.852e-06
6.3627e-08
4.8554e-06
6.58166e-08
4.85818e-06
6.62664e-08
4.86037e-06
6.58183e-08
4.86202e-06
6.51128e-08
4.86317e-06
6.43984e-08
4.86384e-06
6.38104e-08
4.86407e-06
6.34822e-08
4.8639e-06
6.35367e-08
4.8634e-06
6.40883e-08
4.86271e-06
6.52268e-08
4.86202e-06
6.70009e-08
4.8616e-06
6.93385e-08
7.2139e-08
4.86201e-06
5.18082e-06
1.21653e-08
5.18537e-06
3.54529e-08
5.19009e-06
4.92424e-08
5.19411e-06
5.5761e-08
5.19786e-06
5.98773e-08
5.20125e-06
6.24249e-08
5.20411e-06
6.34112e-08
5.20643e-06
6.34987e-08
5.20826e-06
6.32794e-08
5.20964e-06
6.30196e-08
5.21059e-06
6.28593e-08
5.21115e-06
6.29233e-08
5.21137e-06
6.33195e-08
5.21132e-06
6.41329e-08
5.21114e-06
6.54119e-08
5.21099e-06
6.71493e-08
5.21109e-06
6.92379e-08
7.15102e-08
5.21172e-06
5.55251e-06
1.09884e-08
5.5565e-06
3.14634e-08
5.561e-06
4.47491e-08
5.56498e-06
5.17756e-08
5.5687e-06
5.61595e-08
5.57211e-06
5.90153e-08
5.57504e-06
6.04765e-08
5.57748e-06
6.10606e-08
5.57947e-06
6.12957e-08
5.58103e-06
6.14574e-08
5.5822e-06
6.16892e-08
5.58302e-06
6.21054e-08
5.58354e-06
6.27978e-08
5.58384e-06
6.38265e-08
5.58405e-06
6.52095e-08
5.58429e-06
6.69089e-08
5.58472e-06
6.88094e-08
7.07566e-08
5.58547e-06
5.9509e-06
9.86678e-09
5.9544e-06
2.79565e-08
5.95863e-06
4.05265e-08
5.96257e-06
4.78352e-08
5.96627e-06
5.24565e-08
5.96971e-06
5.55771e-08
5.97273e-06
5.74527e-08
5.9753e-06
5.84932e-08
5.97744e-06
5.91545e-08
5.97919e-06
5.97095e-08
5.98058e-06
6.03032e-08
5.98164e-06
6.10386e-08
5.98245e-06
6.19918e-08
5.98307e-06
6.32037e-08
5.98361e-06
6.4673e-08
5.98417e-06
6.635e-08
5.98485e-06
6.81287e-08
6.98932e-08
5.98571e-06
6.37787e-06
8.8131e-09
6.38097e-06
2.48519e-08
6.38492e-06
3.65779e-08
6.3888e-06
4.39566e-08
6.39249e-06
4.87631e-08
6.39596e-06
5.21063e-08
6.39908e-06
5.43325e-08
6.40179e-06
5.57815e-08
6.40411e-06
5.68363e-08
6.40607e-06
5.77554e-08
6.40769e-06
5.86812e-08
6.40902e-06
5.97058e-08
6.41012e-06
6.0891e-08
6.41106e-06
6.22642e-08
6.41192e-06
6.38142e-08
6.41278e-06
6.54914e-08
6.4137e-06
6.72075e-08
6.88864e-08
6.41471e-06
5.74167e-06
7.97479e-09
5.74403e-06
2.24907e-08
5.74717e-06
3.34447e-08
5.75039e-06
4.07331e-08
5.75351e-06
4.56431e-08
5.75647e-06
4.91425e-08
5.75919e-06
5.16149e-08
5.76161e-06
5.33654e-08
5.76372e-06
5.47228e-08
5.76555e-06
5.59242e-08
5.76713e-06
5.71062e-08
5.76848e-06
5.83522e-08
5.76966e-06
5.9714e-08
5.77071e-06
6.12109e-08
5.7717e-06
6.28286e-08
5.77267e-06
6.45226e-08
5.77365e-06
6.62207e-08
6.78765e-08
5.77466e-06
6.99905e-06
7.08443e-09
7.00153e-06
2.00066e-08
7.00491e-06
3.00669e-08
7.00851e-06
3.71272e-08
7.01209e-06
4.20714e-08
7.01553e-06
4.56977e-08
7.01875e-06
4.8397e-08
7.02167e-06
5.0442e-08
7.02429e-06
5.21056e-08
7.02662e-06
5.35971e-08
7.02868e-06
5.50426e-08
7.03051e-06
5.65163e-08
7.03217e-06
5.80601e-08
7.03369e-06
5.96875e-08
7.03514e-06
6.13842e-08
7.03655e-06
6.31142e-08
7.03794e-06
6.48228e-08
6.6491e-08
7.03933e-06
8.53178e-06
6.14895e-09
8.53437e-06
1.74189e-08
8.53798e-06
2.64594e-08
8.54198e-06
3.31275e-08
8.54605e-06
3.80023e-08
8.55005e-06
4.16988e-08
8.55386e-06
4.45815e-08
8.55741e-06
4.68904e-08
8.56067e-06
4.88441e-08
8.56365e-06
5.06172e-08
8.56638e-06
5.23209e-08
8.56887e-06
5.40185e-08
8.57119e-06
5.57434e-08
8.57337e-06
5.75048e-08
8.57547e-06
5.9291e-08
8.5775e-06
6.10756e-08
8.57951e-06
6.28196e-08
6.45246e-08
8.58147e-06
1.04002e-05
5.1738e-09
1.04029e-05
1.47299e-08
1.04067e-05
2.26146e-08
1.04112e-05
2.87036e-08
1.04158e-05
3.33659e-08
1.04204e-05
3.70402e-08
1.0425e-05
4.00321e-08
1.04293e-05
4.25441e-08
1.04334e-05
4.47443e-08
1.04373e-05
4.67683e-08
1.04409e-05
4.87065e-08
1.04443e-05
5.06103e-08
1.04476e-05
5.25049e-08
1.04507e-05
5.43965e-08
1.04537e-05
5.62764e-08
1.04566e-05
5.81265e-08
1.04595e-05
5.99199e-08
6.16711e-08
1.04624e-05
1.26778e-05
4.15458e-09
1.26806e-05
1.19019e-08
1.26848e-05
1.84745e-08
1.26897e-05
2.37754e-08
1.2695e-05
2.80396e-08
1.27005e-05
3.15534e-08
1.2706e-05
3.45423e-08
1.27114e-05
3.71617e-08
1.27166e-05
3.95316e-08
1.27216e-05
4.17471e-08
1.27265e-05
4.38731e-08
1.27311e-05
4.59466e-08
1.27356e-05
4.79843e-08
1.274e-05
4.99891e-08
1.27444e-05
5.19537e-08
1.27486e-05
5.38657e-08
1.27528e-05
5.57054e-08
5.7494e-08
1.2757e-05
1.54543e-05
3.06281e-09
1.54573e-05
8.83284e-09
1.54619e-05
1.38876e-08
1.54675e-05
1.81567e-08
1.54738e-05
2.17913e-08
1.54804e-05
2.49559e-08
1.54871e-05
2.77861e-08
1.54939e-05
3.03788e-08
1.55007e-05
3.28058e-08
1.55073e-05
3.51213e-08
1.55138e-05
3.73616e-08
1.55202e-05
3.95457e-08
1.55265e-05
4.168e-08
1.55327e-05
4.37621e-08
1.55389e-05
4.5784e-08
1.5545e-05
4.77352e-08
1.55511e-05
4.95991e-08
5.13992e-08
1.55572e-05
1.88389e-05
1.82727e-09
1.88424e-05
5.31096e-09
1.88477e-05
8.53633e-09
1.88544e-05
1.14621e-08
1.8862e-05
1.4183e-08
1.88702e-05
1.67602e-08
1.88788e-05
1.92336e-08
1.88875e-05
2.16308e-08
1.88964e-05
2.39718e-08
1.89052e-05
2.62686e-08
1.89141e-05
2.85251e-08
1.89229e-05
3.0739e-08
1.89317e-05
3.29034e-08
1.89404e-05
3.50087e-08
1.89491e-05
3.7043e-08
1.89579e-05
3.89951e-08
1.89666e-05
4.08492e-08
4.26269e-08
1.89754e-05
2.29649e-05
2.86111e-10
2.29693e-05
9.11311e-10
2.2976e-05
1.78957e-09
2.29846e-05
2.93567e-09
2.29943e-05
4.39664e-09
2.3005e-05
6.11296e-09
2.30162e-05
8.00538e-09
2.30278e-05
1.00214e-08
2.30397e-05
1.21242e-08
2.30517e-05
1.42772e-08
2.30637e-05
1.64461e-08
2.30759e-05
1.86029e-08
2.30881e-05
2.0725e-08
2.31003e-05
2.27933e-08
2.31125e-05
2.47905e-08
2.31248e-05
2.67025e-08
2.31372e-05
2.85135e-08
3.02408e-08
2.31495e-05
1.6812e-05
-9.89591e-10
1.68156e-05
-2.68919e-09
1.68211e-05
-3.73915e-09
1.68281e-05
-4.01724e-09
1.6836e-05
-3.51705e-09
1.68445e-05
-2.44974e-09
1.68536e-05
-1.00754e-09
1.68629e-05
7.06074e-10
1.68724e-05
2.61537e-09
1.6882e-05
4.64443e-09
1.68917e-05
6.72993e-09
1.69015e-05
8.827e-09
1.69113e-05
1.09031e-08
1.69212e-05
1.29326e-08
1.69311e-05
1.48944e-08
1.6941e-05
1.6773e-08
1.6951e-05
1.85526e-08
2.02469e-08
1.6961e-05
1.46358e-05
-2.24359e-09
1.46394e-05
-6.26652e-09
1.46449e-05
-9.24873e-09
1.46517e-05
-1.08411e-08
1.46594e-05
-1.11438e-08
1.46675e-05
-1.0612e-08
1.46761e-05
-9.53829e-09
1.46848e-05
-8.05318e-09
1.46937e-05
-6.27786e-09
1.47027e-05
-4.33352e-09
1.47117e-05
-2.30675e-09
1.47208e-05
-2.5207e-10
1.47299e-05
1.79153e-09
1.47391e-05
3.79341e-09
1.47482e-05
5.73032e-09
1.47574e-05
7.58594e-09
1.47666e-05
9.34563e-09
1.10201e-08
1.47758e-05
1.27413e-05
-3.43924e-09
1.2745e-05
-9.9057e-09
1.27506e-05
-1.49085e-08
1.27574e-05
-1.75976e-08
1.27647e-05
-1.84757e-08
1.27725e-05
-1.83716e-08
1.27805e-05
-1.75812e-08
1.27887e-05
-1.62287e-08
1.27969e-05
-1.45074e-08
1.28052e-05
-1.25929e-08
1.28135e-05
-1.05865e-08
1.28218e-05
-8.54557e-09
1.28301e-05
-6.51289e-09
1.28384e-05
-4.52188e-09
1.28467e-05
-2.59613e-09
1.2855e-05
-7.51003e-10
1.28634e-05
1.00097e-09
2.66859e-09
1.28717e-05
1.10919e-05
-4.45814e-09
1.10957e-05
-1.36422e-08
1.11017e-05
-2.08816e-08
1.11084e-05
-2.43065e-08
1.11154e-05
-2.54886e-08
1.11227e-05
-2.57034e-08
1.11302e-05
-2.50916e-08
1.11378e-05
-2.37717e-08
1.11453e-05
-2.20371e-08
1.11528e-05
-2.01076e-08
1.11603e-05
-1.80856e-08
1.11678e-05
-1.60291e-08
1.11753e-05
-1.39846e-08
1.11827e-05
-1.19868e-08
1.11902e-05
-1.00579e-08
1.11977e-05
-8.21089e-09
1.12051e-05
-6.45601e-09
-4.78556e-09
1.12126e-05
9.65596e-06
-5.2037e-09
9.65987e-06
-1.75542e-08
9.6661e-06
-2.71133e-08
9.67265e-06
-3.08513e-08
9.67938e-06
-3.22161e-08
9.68632e-06
-3.26486e-08
9.69328e-06
-3.20521e-08
9.70016e-06
-3.06486e-08
9.70697e-06
-2.88469e-08
9.71373e-06
-2.68717e-08
9.72045e-06
-2.48077e-08
9.72714e-06
-2.27116e-08
9.73379e-06
-2.0634e-08
9.74041e-06
-1.86101e-08
9.74701e-06
-1.66599e-08
9.7536e-06
-1.47944e-08
9.76016e-06
-1.30206e-08
-1.13301e-08
9.7667e-06
8.40555e-06
-5.40081e-09
8.41028e-06
-2.22845e-08
8.41636e-06
-3.31897e-08
8.42233e-06
-3.68204e-08
8.42874e-06
-3.86316e-08
8.43539e-06
-3.93015e-08
8.44192e-06
-3.85768e-08
8.44824e-06
-3.69737e-08
8.45443e-06
-3.50285e-08
8.4605e-06
-3.29437e-08
8.46647e-06
-3.07807e-08
8.47235e-06
-2.85959e-08
8.47816e-06
-2.64418e-08
8.4839e-06
-2.4352e-08
8.48959e-06
-2.23449e-08
8.49523e-06
-2.04306e-08
8.50082e-06
-1.86142e-08
-1.68891e-08
8.50638e-06
7.31515e-06
-3.26529e-09
7.32235e-06
-2.94891e-08
7.32832e-06
-3.91545e-08
7.33378e-06
-4.22802e-08
7.33996e-06
-4.48182e-08
7.34638e-06
-4.57147e-08
7.35255e-06
-4.47462e-08
7.3584e-06
-4.28302e-08
7.36399e-06
-4.06124e-08
7.36932e-06
-3.8274e-08
7.37442e-06
-3.58778e-08
7.37931e-06
-3.34906e-08
7.38403e-06
-3.11653e-08
7.38861e-06
-2.89319e-08
7.39307e-06
-2.68055e-08
7.39744e-06
-2.47938e-08
7.40172e-06
-2.2898e-08
-2.11101e-08
7.40594e-06
6.36229e-06
4.51025e-09
6.37329e-06
-4.04903e-08
6.38086e-06
-4.67252e-08
6.38764e-06
-4.90602e-08
6.39437e-06
-5.15459e-08
6.40055e-06
-5.18909e-08
6.40594e-06
-5.01383e-08
6.41069e-06
-4.75848e-08
6.41492e-06
-4.48428e-08
6.41868e-06
-4.20274e-08
6.42201e-06
-3.92086e-08
6.42498e-06
-3.64665e-08
6.42767e-06
-3.38521e-08
6.43013e-06
-3.13879e-08
6.4324e-06
-2.9083e-08
6.43455e-06
-2.69407e-08
6.43661e-06
-2.49553e-08
-2.31058e-08
6.4386e-06
5.53628e-06
1.36963e-08
5.54809e-06
-5.23059e-08
5.5581e-06
-5.673e-08
5.56712e-06
-5.80784e-08
5.57449e-06
-5.89141e-08
5.57963e-06
-5.70333e-08
5.58263e-06
-5.31379e-08
5.58404e-06
-4.90002e-08
5.5843e-06
-4.50989e-08
5.58368e-06
-4.1408e-08
5.58241e-06
-3.7936e-08
5.58066e-06
-3.47213e-08
5.57859e-06
-3.17786e-08
5.5763e-06
-2.91013e-08
5.57389e-06
-2.66765e-08
5.57146e-06
-2.45024e-08
5.56907e-06
-2.25709e-08
-2.08134e-08
5.56678e-06
4.85767e-06
-1.63702e-08
4.8612e-06
-5.5835e-08
4.86198e-06
-5.75059e-08
4.85962e-06
-5.57211e-08
4.85597e-06
-5.52619e-08
4.84981e-06
-5.08733e-08
4.84122e-06
-4.45529e-08
4.83078e-06
-3.85598e-08
4.81912e-06
-3.34392e-08
4.80683e-06
-2.91156e-08
4.79435e-06
-2.54549e-08
4.78198e-06
-2.23549e-08
4.76993e-06
-1.97252e-08
4.75832e-06
-1.74879e-08
4.74722e-06
-1.55808e-08
4.73671e-06
-1.39951e-08
4.7269e-06
-1.27596e-08
-1.23782e-08
4.71847e-06
4.18631e-06
4.13047e-06
4.07297e-06
4.01724e-06
3.96198e-06
3.91111e-06
3.86656e-06
3.828e-06
3.79456e-06
3.76544e-06
3.73999e-06
3.71763e-06
3.69791e-06
3.68042e-06
3.66484e-06
3.65084e-06
3.63808e-06
3.6257e-06
6.14952e-08
-6.14952e-08
2.11128e-07
-1.49633e-07
4.06833e-07
-1.95705e-07
6.17653e-07
-2.1082e-07
8.25981e-07
-2.08328e-07
1.02182e-06
-1.95834e-07
1.19921e-06
-1.77398e-07
1.35457e-06
-1.55358e-07
1.48564e-06
-1.31069e-07
1.59087e-06
-1.05233e-07
1.66894e-06
-7.80712e-08
1.71842e-06
-4.94777e-08
1.73788e-06
-1.94612e-08
1.72409e-06
1.37959e-08
1.67376e-06
5.0325e-08
1.58978e-06
8.39811e-08
1.47673e-06
1.13054e-07
1.34207e-06
1.34654e-07
1.19642e-06
1.45649e-07
1.05227e-06
1.44152e-07
9.22154e-07
1.30118e-07
8.15129e-07
1.07025e-07
7.33152e-07
8.1977e-08
6.70007e-07
6.31448e-08
6.13588e-07
5.64188e-08
5.4997e-07
6.36183e-08
4.67145e-07
8.28242e-08
3.56676e-07
1.10469e-07
2.12988e-07
1.43688e-07
3.23103e-08
1.80678e-07
-1.8863e-07
2.20941e-07
-4.50491e-07
2.61861e-07
-7.48926e-07
2.98435e-07
-1.07598e-06
3.2705e-07
-1.42169e-06
3.45718e-07
-1.77567e-06
3.53979e-07
-2.12823e-06
3.52559e-07
-2.47118e-06
3.42948e-07
-2.79819e-06
3.27015e-07
-3.1049e-06
3.06705e-07
-3.38872e-06
2.83823e-07
-3.64862e-06
2.59902e-07
-3.88477e-06
2.36141e-07
-4.09818e-06
2.13412e-07
-4.29047e-06
1.92287e-07
-4.46355e-06
1.7308e-07
-4.61946e-06
1.55915e-07
-4.76023e-06
1.40774e-07
-4.88778e-06
1.27547e-07
-5.00386e-06
1.16075e-07
-5.11003e-06
1.06171e-07
-5.20767e-06
9.76456e-08
-5.29799e-06
9.03158e-08
-5.382e-06
8.40124e-08
-5.46058e-06
7.8583e-08
-5.53448e-06
7.38936e-08
-5.60431e-06
6.9828e-08
-5.67059e-06
6.62851e-08
-5.73377e-06
6.31786e-08
-5.7942e-06
6.04338e-08
-5.85219e-06
5.79864e-08
-5.90797e-06
5.57804e-08
-5.96174e-06
5.37668e-08
-6.01364e-06
5.19022e-08
-6.06379e-06
5.01475e-08
-6.11225e-06
4.84676e-08
-6.15908e-06
4.68296e-08
-6.20429e-06
4.5203e-08
-6.24785e-06
4.35584e-08
-6.28971e-06
4.18673e-08
-6.32981e-06
4.01016e-08
-6.36805e-06
3.82327e-08
-6.40428e-06
3.62315e-08
-6.43835e-06
3.40681e-08
-6.47006e-06
3.1711e-08
-6.49919e-06
2.91277e-08
-6.52547e-06
2.62834e-08
-6.54861e-06
2.31412e-08
-6.56828e-06
1.9665e-08
-6.58409e-06
1.58189e-08
-6.59568e-06
1.15859e-08
-6.60269e-06
7.01493e-09
-6.60487e-06
2.17188e-09
-6.60245e-06
-2.41203e-09
-6.59551e-06
-6.9423e-09
-6.58384e-06
-1.16696e-08
-6.56711e-06
-1.67356e-08
-6.54489e-06
-2.22183e-08
-6.51671e-06
-2.81774e-08
-6.48204e-06
-3.46703e-08
-6.44029e-06
-4.1756e-08
-6.39079e-06
-4.94975e-08
-6.33283e-06
-5.7962e-08
-6.26561e-06
-6.72206e-08
-6.18826e-06
-7.73484e-08
-6.09983e-06
-8.84226e-08
-5.99931e-06
-1.00521e-07
-5.8856e-06
-1.13718e-07
-5.75751e-06
-1.28081e-07
-5.61385e-06
-1.43666e-07
-5.45334e-06
-1.60507e-07
-5.27473e-06
-1.78607e-07
-5.07681e-06
-1.97928e-07
-4.85843e-06
-2.18379e-07
-4.61863e-06
-2.39794e-07
-4.3567e-06
-2.6193e-07
-4.07226e-06
-2.84442e-07
-3.76537e-06
-3.06886e-07
-3.43666e-06
-3.28714e-07
-3.08738e-06
-3.49284e-07
-2.71948e-06
-3.67897e-07
-2.33565e-06
-3.83826e-07
-1.93929e-06
-3.96367e-07
-1.53441e-06
-4.04872e-07
-1.12566e-06
-4.08754e-07
-7.18211e-07
-4.07449e-07
-3.1745e-07
-4.00761e-07
7.33142e-08
-3.90765e-07
4.50853e-07
-3.77539e-07
8.11665e-07
-3.60811e-07
1.15322e-06
-3.41556e-07
1.47382e-06
-3.20602e-07
1.77249e-06
-2.98666e-07
2.04885e-06
-2.76362e-07
2.30304e-06
-2.54194e-07
2.53559e-06
-2.32549e-07
2.74731e-06
-2.11713e-07
2.93918e-06
-1.91874e-07
3.11232e-06
-1.73142e-07
3.26789e-06
-1.55568e-07
3.40704e-06
-1.39153e-07
3.53092e-06
-1.23872e-07
3.64059e-06
-1.09674e-07
3.73709e-06
-9.65009e-08
3.82138e-06
-8.42887e-08
3.89435e-06
-7.29735e-08
3.95685e-06
-6.24949e-08
4.00964e-06
-5.27962e-08
4.05347e-06
-4.38262e-08
4.08901e-06
-3.55419e-08
4.1169e-06
-2.78868e-08
4.13769e-06
-2.07968e-08
4.15199e-06
-1.42961e-08
4.15985e-06
-7.85777e-09
4.16058e-06
-7.31088e-10
4.15344e-06
7.1411e-09
4.14016e-06
1.32777e-08
4.12213e-06
1.80283e-08
4.10053e-06
2.16009e-08
4.07628e-06
2.42504e-08
4.05009e-06
2.61866e-08
4.02253e-06
2.75689e-08
3.99401e-06
2.8521e-08
3.96487e-06
2.91367e-08
3.93538e-06
2.94872e-08
3.90575e-06
2.96272e-08
3.87615e-06
2.96015e-08
3.8467e-06
2.94475e-08
3.81751e-06
2.91987e-08
3.78862e-06
2.88855e-08
3.76008e-06
2.85366e-08
3.7319e-06
2.818e-08
3.70406e-06
2.7844e-08
3.6765e-06
2.75581e-08
3.64915e-06
2.73554e-08
3.62187e-06
2.72741e-08
3.59451e-06
2.73611e-08
3.56684e-06
2.76761e-08
3.53854e-06
2.82978e-08
3.5092e-06
2.93332e-08
3.47827e-06
3.09326e-08
3.44496e-06
3.33128e-08
3.40816e-06
3.67986e-08
3.36627e-06
4.18893e-08
3.31687e-06
4.94049e-08
3.25621e-06
6.0652e-08
3.17782e-06
7.83919e-08
3.07227e-06
1.05555e-07
2.91241e-06
1.59861e-07
2.23362e-07
2.68904e-06
1.93214e-07
-2.54709e-07
4.00654e-07
-3.57072e-07
5.89687e-07
-3.84738e-07
7.60521e-07
-3.81654e-07
9.13841e-07
-3.61648e-07
1.04975e-06
-3.31741e-07
1.16822e-06
-2.95866e-07
1.26909e-06
-2.56236e-07
1.35215e-06
-2.14125e-07
1.41722e-06
-1.70304e-07
1.46441e-06
-1.25257e-07
1.49423e-06
-7.92966e-08
1.50729e-06
-3.25287e-08
1.50552e-06
1.55714e-08
1.49069e-06
6.51516e-08
1.45863e-06
1.16043e-07
1.40557e-06
1.6611e-07
1.32844e-06
2.11785e-07
1.22597e-06
2.48119e-07
1.10028e-06
2.6985e-07
9.56538e-07
2.73855e-07
8.00857e-07
2.62707e-07
6.3674e-07
2.46094e-07
4.63084e-07
2.368e-07
2.74801e-07
2.44702e-07
6.49265e-08
2.73493e-07
-1.73326e-07
3.21077e-07
-4.45085e-07
3.82228e-07
-7.51959e-07
4.50562e-07
-1.09063e-06
5.19345e-07
-1.45156e-06
5.81877e-07
-1.82188e-06
6.3218e-07
-2.18932e-06
6.65876e-07
-2.54323e-06
6.80956e-07
-2.87536e-06
6.77851e-07
-3.18026e-06
6.58877e-07
-3.45517e-06
6.27466e-07
-3.69965e-06
5.87431e-07
-3.91505e-06
5.42413e-07
-4.10387e-06
4.95525e-07
-4.26924e-06
4.49188e-07
-4.41445e-06
4.05114e-07
-4.54268e-06
3.64377e-07
-4.6568e-06
3.27535e-07
-4.75928e-06
2.94762e-07
-4.85217e-06
2.65967e-07
-4.93715e-06
2.40895e-07
-5.01557e-06
2.19199e-07
-5.08853e-06
2.00501e-07
-5.15687e-06
1.84419e-07
-5.2213e-06
1.70597e-07
-5.28236e-06
1.58709e-07
-5.34051e-06
1.48466e-07
-5.39612e-06
1.39617e-07
-5.44948e-06
1.31944e-07
-5.50084e-06
1.25259e-07
-5.55041e-06
1.19402e-07
-5.59836e-06
1.14234e-07
-5.64482e-06
1.09637e-07
-5.6899e-06
1.05509e-07
-5.73367e-06
1.01758e-07
-5.7762e-06
9.83075e-08
-5.81752e-06
9.50855e-08
-5.85764e-06
9.20299e-08
-5.89658e-06
8.90835e-08
-5.93431e-06
8.61944e-08
-5.97079e-06
8.33143e-08
-6.00599e-06
8.03986e-08
-6.03983e-06
7.74048e-08
-6.07226e-06
7.42932e-08
-6.10318e-06
7.10256e-08
-6.13252e-06
6.75659e-08
-6.16016e-06
6.38793e-08
-6.18603e-06
5.99325e-08
-6.21001e-06
5.56944e-08
-6.23202e-06
5.11355e-08
-6.25196e-06
4.62291e-08
-6.26978e-06
4.09516e-08
-6.2854e-06
3.52849e-08
-6.29879e-06
2.9217e-08
-6.30995e-06
2.27454e-08
-6.3188e-06
1.58584e-08
-6.32513e-06
8.50926e-09
-6.32813e-06
5.82985e-10
-6.32701e-06
-8.06572e-09
-6.32122e-06
-1.74564e-08
-6.3103e-06
-2.76555e-08
-6.29377e-06
-3.87484e-08
-6.27112e-06
-5.08284e-08
-6.24179e-06
-6.39965e-08
-6.20519e-06
-7.83615e-08
-6.16064e-06
-9.40414e-08
-6.10744e-06
-1.11163e-07
-6.0448e-06
-1.29861e-07
-5.97187e-06
-1.50278e-07
-5.88773e-06
-1.72563e-07
-5.79139e-06
-1.96864e-07
-5.68178e-06
-2.23327e-07
-5.55778e-06
-2.52083e-07
-5.4182e-06
-2.8324e-07
-5.26184e-06
-3.16868e-07
-5.08747e-06
-3.52976e-07
-4.8939e-06
-3.91496e-07
-4.68003e-06
-4.3225e-07
-4.4449e-06
-4.74924e-07
-4.18779e-06
-5.19038e-07
-3.90831e-06
-5.63922e-07
-3.6065e-06
-6.087e-07
-3.28292e-06
-6.52291e-07
-2.93878e-06
-6.93432e-07
-2.57594e-06
-7.30732e-07
-2.19702e-06
-7.6275e-07
-1.80529e-06
-7.881e-07
-1.4046e-06
-8.0556e-07
-9.99181e-07
-8.1417e-07
-5.93281e-07
-8.13349e-07
-1.90774e-07
-8.03268e-07
2.03301e-07
-7.84839e-07
5.84428e-07
-7.58666e-07
9.49633e-07
-7.26016e-07
1.2965e-06
-6.88421e-07
1.62331e-06
-6.47415e-07
1.92904e-06
-6.044e-07
2.21328e-06
-5.60595e-07
2.47609e-06
-5.17002e-07
2.71794e-06
-4.744e-07
2.93958e-06
-4.33353e-07
3.14194e-06
-3.94241e-07
3.32609e-06
-3.57283e-07
3.4931e-06
-3.22581e-07
3.64409e-06
-2.90144e-07
3.78013e-06
-2.59916e-07
3.90227e-06
-2.31806e-07
4.01146e-06
-2.05697e-07
4.10864e-06
-1.81464e-07
4.19465e-06
-1.58981e-07
4.27028e-06
-1.38128e-07
4.33628e-06
-1.18793e-07
4.39333e-06
-1.00875e-07
4.44206e-06
-8.42809e-08
4.4831e-06
-6.89205e-08
4.51701e-06
-5.47034e-08
4.54426e-06
-4.15558e-08
4.56582e-06
-2.94095e-08
4.58325e-06
-1.81666e-08
4.59773e-06
-7.34127e-09
4.60852e-06
2.49369e-09
4.61521e-06
1.13322e-08
4.61777e-06
1.90431e-08
4.61637e-06
2.5651e-08
4.61133e-06
3.12329e-08
4.60302e-06
3.5876e-08
4.59186e-06
3.96765e-08
4.57827e-06
4.27299e-08
4.56263e-06
4.5125e-08
4.54532e-06
4.69438e-08
4.52665e-06
4.82623e-08
4.50695e-06
4.91515e-08
4.48647e-06
4.96782e-08
4.46545e-06
4.99058e-08
4.44409e-06
4.98955e-08
4.42256e-06
4.97069e-08
4.40101e-06
4.93995e-08
4.37953e-06
4.90341e-08
4.35821e-06
4.86753e-08
4.33709e-06
4.83945e-08
4.31618e-06
4.82739e-08
4.29544e-06
4.84137e-08
4.2748e-06
4.89398e-08
4.25412e-06
5.00179e-08
4.23318e-06
5.18731e-08
4.21167e-06
5.48214e-08
4.18914e-06
5.93266e-08
4.16495e-06
6.60767e-08
4.13815e-06
7.62112e-08
4.1074e-06
9.13977e-08
4.07031e-06
1.15479e-07
4.02388e-06
1.51991e-07
3.96105e-06
2.22692e-07
3.22442e-07
3.86197e-06
1.99179e-07
-4.53888e-07
3.88998e-07
-5.46892e-07
5.46349e-07
-5.4209e-07
6.78075e-07
-5.1338e-07
7.90121e-07
-4.73694e-07
8.85782e-07
-4.27402e-07
9.66602e-07
-3.76686e-07
1.0331e-06
-3.22731e-07
1.08521e-06
-2.66235e-07
1.1226e-06
-2.07702e-07
1.14491e-06
-1.47559e-07
1.15181e-06
-8.62007e-08
1.14328e-06
-2.40021e-08
1.11993e-06
3.8925e-08
1.08251e-06
1.02571e-07
1.03176e-06
1.66793e-07
9.67352e-07
2.30519e-07
8.87913e-07
2.91224e-07
7.91313e-07
3.44719e-07
6.75048e-07
3.86115e-07
5.36191e-07
4.12713e-07
3.71268e-07
4.2763e-07
1.76823e-07
4.40538e-07
-4.91975e-08
4.62821e-07
-3.0667e-07
5.02174e-07
-5.93473e-07
5.60297e-07
-9.05521e-07
6.33125e-07
-1.23606e-06
7.12763e-07
-1.57541e-06
7.89919e-07
-1.91193e-06
8.55861e-07
-2.2339e-06
9.03848e-07
-2.53176e-06
9.30042e-07
-2.79959e-06
9.33707e-07
-3.03535e-06
9.16718e-07
-3.24019e-06
8.8269e-07
-3.41736e-06
8.36046e-07
-3.57114e-06
7.81243e-07
-3.70597e-06
7.2226e-07
-3.82588e-06
6.6233e-07
-3.93423e-06
6.0387e-07
-4.03358e-06
5.48536e-07
-4.12581e-06
4.97343e-07
-4.21223e-06
4.50797e-07
-4.29373e-06
4.0904e-07
-4.37093e-06
3.71957e-07
-4.44423e-06
3.39275e-07
-4.51397e-06
3.1063e-07
-4.58039e-06
2.85618e-07
-4.64372e-06
2.63832e-07
-4.70418e-06
2.44877e-07
-4.76197e-06
2.2839e-07
-4.8173e-06
2.14038e-07
-4.87036e-06
2.01528e-07
-4.92134e-06
1.90598e-07
-4.97042e-06
1.81021e-07
-5.01775e-06
1.72594e-07
-5.0635e-06
1.65145e-07
-5.10778e-06
1.5852e-07
-5.15073e-06
1.52584e-07
-5.19244e-06
1.47219e-07
-5.233e-06
1.42319e-07
-5.27248e-06
1.3779e-07
-5.31094e-06
1.33546e-07
-5.34842e-06
1.29512e-07
-5.38496e-06
1.25616e-07
-5.42056e-06
1.21794e-07
-5.45523e-06
1.17985e-07
-5.48896e-06
1.14132e-07
-5.52174e-06
1.10183e-07
-5.55353e-06
1.06087e-07
-5.5843e-06
1.01796e-07
-5.614e-06
9.72622e-08
-5.64256e-06
9.24417e-08
-5.66992e-06
8.72903e-08
-5.69599e-06
8.17646e-08
-5.72068e-06
7.58218e-08
-5.74387e-06
6.94183e-08
-5.76542e-06
6.25088e-08
-5.78518e-06
5.50452e-08
-5.80294e-06
4.69749e-08
-5.81843e-06
3.82369e-08
-5.83133e-06
2.87531e-08
-5.84124e-06
1.84197e-08
-5.84777e-06
7.11179e-09
-5.85057e-06
-5.26535e-09
-5.84922e-06
-1.88045e-08
-5.84328e-06
-3.35974e-08
-5.83227e-06
-4.97577e-08
-5.81568e-06
-6.74164e-08
-5.79296e-06
-8.67193e-08
-5.76349e-06
-1.07826e-07
-5.72662e-06
-1.30909e-07
-5.68163e-06
-1.56156e-07
-5.62773e-06
-1.83765e-07
-5.56406e-06
-2.13949e-07
-5.48969e-06
-2.46927e-07
-5.40364e-06
-2.82919e-07
-5.30482e-06
-3.22142e-07
-5.19211e-06
-3.64795e-07
-5.06431e-06
-4.11046e-07
-4.92017e-06
-4.61004e-07
-4.75845e-06
-5.14699e-07
-4.5779e-06
-5.72045e-07
-4.37735e-06
-6.32798e-07
-4.15576e-06
-6.96513e-07
-3.9123e-06
-7.62498e-07
-3.64645e-06
-8.29776e-07
-3.35809e-06
-8.97057e-07
-3.04764e-06
-9.62736e-07
-2.71615e-06
-1.02492e-06
-2.36537e-06
-1.08152e-06
-1.99778e-06
-1.13034e-06
-1.61658e-06
-1.1693e-06
-1.22559e-06
-1.19655e-06
-8.28992e-07
-1.21077e-06
-4.3106e-07
-1.21128e-06
-3.61974e-08
-1.19813e-06
3.50692e-07
-1.17173e-06
7.25471e-07
-1.13345e-06
1.08495e-06
-1.08549e-06
1.42666e-06
-1.03014e-06
1.7489e-06
-9.69647e-07
2.05062e-06
-9.06124e-07
2.33142e-06
-8.41398e-07
2.59139e-06
-7.7697e-07
2.83099e-06
-7.14001e-07
3.05097e-06
-6.53332e-07
3.25225e-06
-5.95519e-07
3.43585e-06
-5.40887e-07
3.60285e-06
-4.89581e-07
3.75432e-06
-4.41611e-07
3.8913e-06
-3.96895e-07
4.01479e-06
-3.55295e-07
4.12573e-06
-3.16638e-07
4.225e-06
-2.8074e-07
4.31344e-06
-2.47414e-07
4.39179e-06
-2.16484e-07
4.46078e-06
-1.87783e-07
4.52107e-06
-1.61163e-07
4.57327e-06
-1.36486e-07
4.61798e-06
-1.13629e-07
4.65576e-06
-9.24768e-08
4.68712e-06
-7.29178e-08
4.71259e-06
-5.48853e-08
4.73277e-06
-3.83449e-08
4.74853e-06
-2.31036e-08
4.76026e-06
-9.23317e-09
4.76826e-06
3.33636e-09
4.77273e-06
1.45663e-08
4.77391e-06
2.44772e-08
4.77202e-06
3.31159e-08
4.76735e-06
4.05472e-08
4.76018e-06
4.68496e-08
4.7508e-06
5.21083e-08
4.73952e-06
5.6411e-08
4.72661e-06
5.98459e-08
4.71237e-06
6.25011e-08
4.69706e-06
6.44633e-08
4.68092e-06
6.58181e-08
4.66418e-06
6.66499e-08
4.64703e-06
6.70422e-08
4.62966e-06
6.70787e-08
4.61222e-06
6.68438e-08
4.59483e-06
6.64245e-08
4.57759e-06
6.59131e-08
4.56057e-06
6.54112e-08
4.54381e-06
6.50346e-08
4.5273e-06
6.49213e-08
4.511e-06
6.52427e-08
4.4948e-06
6.62196e-08
4.47852e-06
6.8147e-08
4.46192e-06
7.14309e-08
4.44459e-06
7.66535e-08
4.426e-06
8.46611e-08
4.40541e-06
9.68022e-08
4.38177e-06
1.15038e-07
4.35386e-06
1.43388e-07
4.31961e-06
1.86248e-07
4.28179e-06
2.60506e-07
3.6804e-07
4.23619e-06
1.65489e-07
-6.19377e-07
3.02569e-07
-6.83972e-07
4.13218e-07
-6.52739e-07
5.05232e-07
-6.05394e-07
5.82914e-07
-5.51375e-07
6.48317e-07
-4.92805e-07
7.02172e-07
-4.30542e-07
7.44471e-07
-3.6503e-07
7.748e-07
-2.96565e-07
7.92541e-07
-2.25443e-07
7.97001e-07
-1.5202e-07
7.87522e-07
-7.67209e-08
7.63578e-07
-5.89292e-11
7.24923e-07
7.75805e-08
6.7176e-07
1.55735e-07
6.04605e-07
2.33947e-07
5.23885e-07
3.11239e-07
4.29426e-07
3.85683e-07
3.19856e-07
4.54289e-07
1.91871e-07
5.141e-07
4.00509e-08
5.64533e-07
-1.41708e-07
6.09388e-07
-3.5725e-07
6.56081e-07
-6.06033e-07
7.11604e-07
-8.8295e-07
7.79091e-07
-1.17915e-06
8.56499e-07
-1.48328e-06
9.37249e-07
-1.7829e-06
1.01239e-06
-2.06619e-06
1.07321e-06
-2.32377e-06
1.11344e-06
-2.55006e-06
1.13014e-06
-2.74373e-06
1.12371e-06
-2.90698e-06
1.09696e-06
-3.04432e-06
1.05407e-06
-3.16125e-06
9.99612e-07
-3.26309e-06
9.37893e-07
-3.35443e-06
8.72579e-07
-3.43875e-06
8.06579e-07
-3.51848e-06
7.42055e-07
-3.59512e-06
6.80513e-07
-3.6695e-06
6.22918e-07
-3.74197e-06
5.69811e-07
-3.81259e-06
5.21414e-07
-3.88127e-06
4.77719e-07
-3.94787e-06
4.38559e-07
-4.01226e-06
4.03665e-07
-4.07434e-06
3.72711e-07
-4.13406e-06
3.45341e-07
-4.19143e-06
3.21197e-07
-4.24648e-06
2.99931e-07
-4.2993e-06
2.81212e-07
-4.35e-06
2.64736e-07
-4.3987e-06
2.50225e-07
-4.44553e-06
2.37428e-07
-4.49062e-06
2.26119e-07
-4.53413e-06
2.16097e-07
-4.57616e-06
2.07181e-07
-4.61685e-06
1.99211e-07
-4.65631e-06
1.92042e-07
-4.69464e-06
1.85543e-07
-4.73191e-06
1.79598e-07
-4.76823e-06
1.74101e-07
-4.80363e-06
1.68954e-07
-4.83819e-06
1.64067e-07
-4.87193e-06
1.59359e-07
-4.90489e-06
1.54753e-07
-4.93708e-06
1.50175e-07
-4.96851e-06
1.45559e-07
-4.99916e-06
1.40839e-07
-5.02903e-06
1.35953e-07
-5.05808e-06
1.3084e-07
-5.08625e-06
1.2544e-07
-5.11351e-06
1.19696e-07
-5.13976e-06
1.13546e-07
-5.16493e-06
1.06932e-07
-5.1889e-06
9.97916e-08
-5.21154e-06
9.20591e-08
-5.2327e-06
8.36647e-08
-5.25219e-06
7.45333e-08
-5.26979e-06
6.45819e-08
-5.28527e-06
5.37178e-08
-5.29836e-06
4.18342e-08
-5.30875e-06
2.88105e-08
-5.31615e-06
1.45182e-08
-5.32026e-06
-1.15896e-09
-5.32071e-06
-1.83514e-08
-5.31712e-06
-3.71942e-08
-5.30903e-06
-5.78393e-08
-5.29599e-06
-8.04592e-08
-5.27746e-06
-1.05245e-07
-5.25288e-06
-1.32408e-07
-5.22162e-06
-1.62176e-07
-5.18297e-06
-1.94798e-07
-5.1362e-06
-2.30538e-07
-5.08047e-06
-2.69679e-07
-5.01488e-06
-3.12515e-07
-4.93845e-06
-3.59346e-07
-4.85013e-06
-4.10465e-07
-4.74878e-06
-4.66149e-07
-4.63319e-06
-5.26636e-07
-4.50209e-06
-5.92096e-07
-4.35419e-06
-6.62599e-07
-4.18817e-06
-7.38067e-07
-4.00275e-06
-8.18224e-07
-3.79673e-06
-9.02527e-07
-3.56912e-06
-9.90108e-07
-3.31919e-06
-1.07971e-06
-3.04659e-06
-1.16966e-06
-2.75149e-06
-1.25783e-06
-2.43473e-06
-1.34169e-06
-2.09786e-06
-1.41839e-06
-1.74325e-06
-1.48495e-06
-1.37406e-06
-1.53848e-06
-9.94154e-07
-1.57646e-06
-6.07851e-07
-1.59707e-06
-2.19753e-07
-1.59938e-06
1.65197e-07
-1.58308e-06
5.42292e-07
-1.54882e-06
9.07612e-07
-1.49877e-06
1.25787e-06
-1.43576e-06
1.59062e-06
-1.36288e-06
1.90418e-06
-1.28321e-06
2.19761e-06
-1.19956e-06
2.47059e-06
-1.11438e-06
2.72327e-06
-1.02966e-06
2.95619e-06
-9.4692e-07
3.17012e-06
-8.67263e-07
3.36601e-06