/*--------------------------------*- C++ -*----------------------------------*\
  =========                 |
  \\      /  F ield         | OpenFOAM: The Open Source CFD Toolbox
   \\    /   O peration     | Website:  https://openfoam.org
    \\  /    A nd           | Version:  12
     \\/     M anipulation  |
\*---------------------------------------------------------------------------*/
FoamFile
{
    format      ascii;
    class       volVectorField;
    location    "0.04";
    object      U;
}
// * * * * * * * * * * * * * * * * * * * * * * * * * * * * * * * * * * * * * //

dimensions      [0 1 -1 0 0 0 0];

internalField   nonuniform List<vector> 
12225
(
(9.86065 -0.875653 0)
(9.67125 -0.702263 0)
(9.45671 -0.389213 0)
(9.22089 -0.189442 0)
(8.99758 -0.0847737 0)
(8.80171 -0.0328037 0)
(8.63303 -0.00713151 0)
(8.48798 0.00572766 0)
(8.36307 0.0122953 0)
(8.25473 0.015687 0)
(8.15948 0.0174601 0)
(8.07435 0.0184485 0)
(7.99679 0.0191175 0)
(7.92464 0.0197777 0)
(7.85505 0.0207271 0)
(7.78782 0.0225868 0)
(7.70194 0.0254863 0)
(7.64916 0.0392788 0)
(10.055 0.262557 0)
(10.1203 0.360644 0)
(10.1178 0.274335 0)
(10.0815 0.187943 0)
(10.0383 0.132182 0)
(9.99009 0.0981065 0)
(9.93433 0.0769408 0)
(9.8722 0.0633884 0)
(9.80674 0.0542924 0)
(9.74037 0.0478476 0)
(9.6745 0.0431243 0)
(9.60985 0.0396794 0)
(9.54676 0.0372911 0)
(9.48543 0.0359602 0)
(9.42529 0.0357552 0)
(9.36809 0.0379285 0)
(9.30766 0.0402711 0)
(9.26971 0.0662638 0)
(9.99927 0.0466254 0)
(10.0243 0.0352195 0)
(10.0531 0.0159966 0)
(10.0692 0.0228919 0)
(10.075 0.0378891 0)
(10.074 0.0474946 0)
(10.0661 0.0518026 0)
(10.0519 0.0534356 0)
(10.0329 0.053858 0)
(10.0103 0.053743 0)
(9.98513 0.0534816 0)
(9.95777 0.0533467 0)
(9.92862 0.0535344 0)
(9.89798 0.0543193 0)
(9.86584 0.0559831 0)
(9.8329 0.0595793 0)
(9.797 0.0644402 0)
(9.76474 0.0824441 0)
(9.99678 0.0066456 0)
(10.0082 0.0253959 0)
(10.0333 0.0395258 0)
(10.0509 0.0512541 0)
(10.0613 0.0585183 0)
(10.0684 0.0610771 0)
(10.0724 0.0613153 0)
(10.0729 0.061013 0)
(10.0702 0.060714 0)
(10.065 0.0605178 0)
(10.0578 0.0605057 0)
(10.0486 0.0608014 0)
(10.0377 0.061552 0)
(10.0251 0.0630152 0)
(10.011 0.0655188 0)
(9.99582 0.0698601 0)
(9.97913 0.0761397 0)
(9.96396 0.0896058 0)
(9.99919 0.00688185 0)
(10.0078 0.0340503 0)
(10.0261 0.0469581 0)
(10.0399 0.0522468 0)
(10.0492 0.0558448 0)
(10.0574 0.0580145 0)
(10.0641 0.0590189 0)
(10.0685 0.0595907 0)
(10.0707 0.0600965 0)
(10.0711 0.0606525 0)
(10.07 0.0613655 0)
(10.0674 0.0623833 0)
(10.0635 0.0638787 0)
(10.0582 0.0661053 0)
(10.0519 0.0693843 0)
(10.0448 0.074257 0)
(10.0372 0.0809434 0)
(10.0311 0.0914698 0)
(10.0002 0.00926977 0)
(10.0075 0.0327976 0)
(10.0215 0.0431158 0)
(10.033 0.0474333 0)
(10.0416 0.0515139 0)
(10.0494 0.05475 0)
(10.0563 0.0566876 0)
(10.0615 0.0579562 0)
(10.0651 0.0590533 0)
(10.0674 0.0601714 0)
(10.0684 0.0614392 0)
(10.0683 0.0630126 0)
(10.0671 0.0650687 0)
(10.0649 0.0678368 0)
(10.0619 0.0715862 0)
(10.0585 0.0766598 0)
(10.0551 0.0832114 0)
(10.053 0.0919126 0)
(10.0003 0.00905688 0)
(10.0064 0.0283598 0)
(10.018 0.0385474 0)
(10.0283 0.0438727 0)
(10.0363 0.0485349 0)
(10.0435 0.0521952 0)
(10.05 0.0545542 0)
(10.0552 0.0562315 0)
(10.0592 0.0577389 0)
(10.062 0.0592807 0)
(10.0639 0.0609835 0)
(10.0648 0.0629979 0)
(10.0649 0.0654918 0)
(10.0642 0.0686594 0)
(10.0629 0.0727057 0)
(10.0614 0.0778303 0)
(10.06 0.0840846 0)
(10.0598 0.0915619 0)
(10.0003 0.00814769 0)
(10.0054 0.0246979 0)
(10.0151 0.0351046 0)
(10.0245 0.04111 0)
(10.032 0.0458755 0)
(10.0386 0.0496445 0)
(10.0447 0.0523013 0)
(10.0498 0.0543368 0)
(10.0538 0.0562048 0)
(10.0569 0.0581132 0)
(10.0591 0.0601907 0)
(10.0606 0.0625801 0)
(10.0613 0.0654338 0)
(10.0615 0.0689085 0)
(10.0612 0.0731477 0)
(10.0608 0.078251 0)
(10.0606 0.0841864 0)
(10.0612 0.0908329 0)
(10.0003 0.00731495 0)
(10.0046 0.0218786 0)
(10.0127 0.0320571 0)
(10.0211 0.0383345 0)
(10.0282 0.0431218 0)
(10.0344 0.0470013 0)
(10.0402 0.0499529 0)
(10.0451 0.0523303 0)
(10.0491 0.0545289 0)
(10.0522 0.0567658 0)
(10.0547 0.0591748 0)
(10.0565 0.0618884 0)
(10.0577 0.0650395 0)
(10.0584 0.0687502 0)
(10.0588 0.0731129 0)
(10.0591 0.0781625 0)
(10.0596 0.0838214 0)
(10.0607 0.0899259 0)
(10.0003 0.00658276 0)
(10.0039 0.0194659 0)
(10.0107 0.0291145 0)
(10.0182 0.035493 0)
(10.0248 0.0403401 0)
(10.0307 0.0443365 0)
(10.0361 0.0475437 0)
(10.0409 0.0502249 0)
(10.0449 0.0527225 0)
(10.0481 0.0552554 0)
(10.0507 0.057959 0)
(10.0528 0.0609533 0)
(10.0543 0.0643507 0)
(10.0555 0.0682433 0)
(10.0564 0.0726864 0)
(10.0573 0.0776777 0)
(10.0583 0.0831265 0)
(10.0596 0.0888937 0)
(10.0003 0.0059028 0)
(10.0033 0.0173179 0)
(10.009 0.0263262 0)
(10.0157 0.0326894 0)
(10.0218 0.0375822 0)
(10.0274 0.0416611 0)
(10.0325 0.0450645 0)
(10.0371 0.0480042 0)
(10.0411 0.0507682 0)
(10.0445 0.0535655 0)
(10.0472 0.0565283 0)
(10.0496 0.0597634 0)
(10.0514 0.0633636 0)
(10.053 0.0673974 0)
(10.0544 0.0718954 0)
(10.0557 0.0768384 0)
(10.0571 0.0821424 0)
(10.0586 0.0877115 0)
(10.0003 0.00530059 0)
(10.0029 0.0155364 0)
(10.0078 0.0239293 0)
(10.0137 0.0301773 0)
(10.0194 0.0350684 0)
(10.0247 0.0391881 0)
(10.0297 0.0427246 0)
(10.0342 0.0458603 0)
(10.0381 0.0488368 0)
(10.0416 0.0518465 0)
(10.0445 0.055015 0)
(10.047 0.0584375 0)
(10.0492 0.0621908 0)
(10.0512 0.0663267 0)
(10.0529 0.0708619 0)
(10.0546 0.0757732 0)
(10.0563 0.0809902 0)
(10.058 0.0864536 0)
(10.0003 0.00474813 0)
(10.0025 0.0139257 0)
(10.0068 0.0216825 0)
(10.012 0.0277212 0)
(10.0174 0.0325635 0)
(10.0224 0.0366943 0)
(10.0272 0.040322 0)
(10.0316 0.0436116 0)
(10.0355 0.0467645 0)
(10.0391 0.0499519 0)
(10.0422 0.0532905 0)
(10.045 0.0568645 0)
(10.0475 0.0607374 0)
(10.0497 0.0649484 0)
(10.0518 0.0695068 0)
(10.0538 0.074391 0)
(10.0558 0.0795459 0)
(10.0578 0.0849469 0)
(10.0002 0.00417343 0)
(10.0022 0.0122587 0)
(10.0058 0.0192834 0)
(10.0105 0.0249922 0)
(10.0154 0.0297082 0)
(10.0202 0.0338018 0)
(10.0247 0.0374785 0)
(10.0291 0.0408882 0)
(10.0331 0.0441936 0)
(10.0368 0.0475395 0)
(10.0401 0.0510297 0)
(10.0431 0.0547365 0)
(10.046 0.0587108 0)
(10.0486 0.0629818 0)
(10.0511 0.0675548 0)
(10.0535 0.0724129 0)
(10.0558 0.0775168 0)
(10.0582 0.082869 0)
(10.0002 0.00357502 0)
(10.0018 0.0105277 0)
(10.005 0.0167302 0)
(10.0091 0.0219789 0)
(10.0136 0.026463 0)
(10.0181 0.030444 0)
(10.0226 0.0341035 0)
(10.0269 0.037573 0)
(10.031 0.0409803 0)
(10.0348 0.0444406 0)
(10.0384 0.0480406 0)
(10.0417 0.05184 0)
(10.0449 0.0558781 0)
(10.048 0.0601761 0)
(10.0509 0.0647377 0)
(10.0538 0.069552 0)
(10.0566 0.0745929 0)
(10.0594 0.0798815 0)
(10.0002 0.00294824 0)
(10.0016 0.00871891 0)
(10.0043 0.014002 0)
(10.008 0.0186455 0)
(10.0122 0.0227606 0)
(10.0165 0.0265189 0)
(10.0208 0.0300625 0)
(10.0251 0.0334983 0)
(10.0293 0.0369225 0)
(10.0334 0.0404205 0)
(10.0373 0.0440586 0)
(10.041 0.0478824 0)
(10.0446 0.0519207 0)
(10.0482 0.0561884 0)
(10.0516 0.0606879 0)
(10.055 0.0654128 0)
(10.0583 0.0703453 0)
(10.0616 0.0755164 0)
(10.0002 0.00228125 0)
(10.0014 0.00678972 0)
(10.0039 0.0110322 0)
(10.0072 0.0149039 0)
(10.0112 0.0184787 0)
(10.0154 0.0218616 0)
(10.0197 0.0251489 0)
(10.0241 0.0284171 0)
(10.0285 0.0317317 0)
(10.0328 0.0351495 0)
(10.0371 0.0387147 0)
(10.0413 0.0424576 0)
(10.0454 0.0463963 0)
(10.0494 0.0505392 0)
(10.0534 0.0548862 0)
(10.0574 0.0594324 0)
(10.0614 0.0641628 0)
(10.0653 0.069111 0)
(10.0001 0.00154145 0)
(10.0013 0.00464033 0)
(10.0036 0.00766768 0)
(10.0069 0.0105632 0)
(10.0108 0.0133857 0)
(10.015 0.0161927 0)
(10.0195 0.0190354 0)
(10.0241 0.0219555 0)
(10.0288 0.0249884 0)
(10.0335 0.028163 0)
(10.0382 0.0315006 0)
(10.0429 0.0350146 0)
(10.0475 0.0387112 0)
(10.0522 0.0425908 0)
(10.0568 0.0466491 0)
(10.0615 0.0508787 0)
(10.0661 0.0552643 0)
(10.0708 0.0598366 0)
(10.0001 0.000660399 0)
(10.0014 0.00206915 0)
(10.0037 0.00359716 0)
(10.0071 0.00523492 0)
(10.0112 0.00703554 0)
(10.0157 0.00901369 0)
(10.0205 0.0111715 0)
(10.0255 0.013512 0)
(10.0306 0.0160392 0)
(10.0358 0.0187541 0)
(10.041 0.0216542 0)
(10.0463 0.0247345 0)
(10.0516 0.0279883 0)
(10.0569 0.0314069 0)
(10.0622 0.0349795 0)
(10.0676 0.0386948 0)
(10.0729 0.0425353 0)
(10.0783 0.0465254 0)
(10.0002 -0.000231211 0)
(10.0015 -0.000543663 0)
(10.0042 -0.000568671 0)
(10.008 -0.000241472 0)
(10.0125 0.000487934 0)
(10.0174 0.00158188 0)
(10.0227 0.00299062 0)
(10.0282 0.00468187 0)
(10.0338 0.00663011 0)
(10.0395 0.00880825 0)
(10.0452 0.0111911 0)
(10.051 0.0137579 0)
(10.0569 0.0164912 0)
(10.0627 0.0193747 0)
(10.0686 0.0223923 0)
(10.0745 0.0255293 0)
(10.0804 0.0287668 0)
(10.0864 0.0321222 0)
(10.0002 -0.00102997 0)
(10.0017 -0.00290926 0)
(10.0048 -0.00434363 0)
(10.0091 -0.00514307 0)
(10.0141 -0.005286 0)
(10.0196 -0.00490928 0)
(10.0253 -0.00411657 0)
(10.0312 -0.00295708 0)
(10.0373 -0.00147837 0)
(10.0434 0.000263773 0)
(10.0496 0.00222231 0)
(10.0558 0.00436418 0)
(10.062 0.00666453 0)
(10.0682 0.00910192 0)
(10.0745 0.0116572 0)
(10.0807 0.0143139 0)
(10.087 0.0170534 0)
(10.0933 0.0198884 0)
(10.0002 -0.00180325 0)
(10.0019 -0.00527859 0)
(10.0055 -0.00816025 0)
(10.0105 -0.0100002 0)
(10.0162 -0.0108619 0)
(10.0222 -0.0110665 0)
(10.0284 -0.0107826 0)
(10.0348 -0.0100667 0)
(10.0413 -0.00898605 0)
(10.0478 -0.00762128 0)
(10.0542 -0.00603436 0)
(10.0607 -0.00426646 0)
(10.0673 -0.00234879 0)
(10.0738 -0.000307391 0)
(10.0803 0.00183619 0)
(10.0869 0.00406501 0)
(10.0934 0.00636151 0)
(10.1 0.00873494 0)
(10.0002 -0.0025294 0)
(10.0021 -0.00766613 0)
(10.0063 -0.0120179 0)
(10.0123 -0.0148067 0)
(10.0188 -0.0163116 0)
(10.0253 -0.0170185 0)
(10.0319 -0.0171118 0)
(10.0387 -0.0166913 0)
(10.0456 -0.0158914 0)
(10.0523 -0.0148223 0)
(10.0591 -0.0135449 0)
(10.0659 -0.0120971 0)
(10.0726 -0.0105119 0)
(10.0793 -0.00881782 0)
(10.0861 -0.0070369 0)
(10.0928 -0.00518529 0)
(10.0995 -0.00327856 0)
(10.1062 -0.00130997 0)
(10.0001 -0.00319142 0)
(10.0022 -0.0103635 0)
(10.0072 -0.0159248 0)
(10.0143 -0.0191869 0)
(10.0215 -0.0212582 0)
(10.0286 -0.0225874 0)
(10.0357 -0.0230902 0)
(10.0429 -0.0228913 0)
(10.05 -0.0222647 0)
(10.0571 -0.0213874 0)
(10.064 -0.0203267 0)
(10.071 -0.0191171 0)
(10.0779 -0.017792 0)
(10.0847 -0.0163796 0)
(10.0916 -0.0148997 0)
(10.0984 -0.0133657 0)
(10.1052 -0.0117894 0)
(10.112 -0.0101639 0)
(9.99999 -0.00338833 0)
(10.0021 -0.0142545 0)
(10.0084 -0.021074 0)
(10.0164 -0.0237184 0)
(10.0241 -0.0255544 0)
(10.0317 -0.0272373 0)
(10.0395 -0.028183 0)
(10.0472 -0.0283334 0)
(10.0547 -0.0279856 0)
(10.062 -0.0273466 0)
(10.0691 -0.0265005 0)
(10.0762 -0.0254986 0)
(10.0831 -0.0243864 0)
(10.09 -0.0231975 0)
(10.0968 -0.0219534 0)
(10.1035 -0.0206677 0)
(10.1102 -0.0193508 0)
(10.1168 -0.0179982 0)
(9.99899 -0.00105355 0)
(10.0003 -0.017221 0)
(10.0093 -0.027827 0)
(10.0191 -0.0309499 0)
(10.0271 -0.0318295 0)
(10.0352 -0.0324479 0)
(10.0438 -0.0327367 0)
(10.0522 -0.0326777 0)
(10.0601 -0.0323822 0)
(10.0675 -0.0318887 0)
(10.0746 -0.0312116 0)
(10.0814 -0.0303882 0)
(10.088 -0.0294618 0)
(10.0943 -0.0284652 0)
(10.1005 -0.0274203 0)
(10.1065 -0.0263426 0)
(10.1124 -0.0252414 0)
(10.1182 -0.0241148 0)
(9.99528 0.00398477 0)
(9.9936 -0.00970073 0)
(10.0078 -0.026039 0)
(10.0228 -0.0375103 0)
(10.0338 -0.0431063 0)
(10.0432 -0.0443138 0)
(10.0521 -0.0433682 0)
(10.0602 -0.0418931 0)
(10.0673 -0.0404531 0)
(10.0735 -0.0390759 0)
(10.079 -0.0377216 0)
(10.084 -0.0363894 0)
(10.0884 -0.0350879 0)
(10.0924 -0.0338194 0)
(10.0961 -0.0325844 0)
(10.0996 -0.0313853 0)
(10.1028 -0.0302166 0)
(10.106 -0.029051 0)
(9.99155 -0.0176183 0)
(9.99233 2.78715e-05 0)
(10.0109 0.0177253 0)
(10.0311 0.0121556 0)
(10.0466 -0.00398249 0)
(10.0578 -0.0172596 0)
(10.0651 -0.0252334 0)
(10.069 -0.0297422 0)
(10.0703 -0.0322357 0)
(10.0698 -0.0334281 0)
(10.068 -0.0337663 0)
(10.0653 -0.0335758 0)
(10.0618 -0.033071 0)
(10.0578 -0.0323833 0)
(10.0535 -0.0315987 0)
(10.0491 -0.0307806 0)
(10.0447 -0.0299878 0)
(10.0405 -0.0291846 0)
(10.0237 -0.205504 0)
(10.0688 -0.311868 0)
(10.0796 -0.255345 0)
(10.0716 -0.183888 0)
(10.0625 -0.134395 0)
(10.0527 -0.101932 0)
(10.0383 -0.0800777 0)
(10.0185 -0.0652415 0)
(9.99524 -0.0549615 0)
(9.97012 -0.0475161 0)
(9.94429 -0.0418653 0)
(9.91845 -0.0374176 0)
(9.89307 -0.0338144 0)
(9.8685 -0.0308225 0)
(9.84493 -0.0282941 0)
(9.82251 -0.0261663 0)
(9.80145 -0.0244119 0)
(9.78178 -0.0233476 0)
(9.94204 0.672643 0)
(9.88001 0.569333 0)
(9.77553 0.340295 0)
(9.63505 0.184912 0)
(9.49233 0.0961563 0)
(9.36358 0.0481456 0)
(9.25074 0.0223041 0)
(9.15232 0.00810591 0)
(9.06682 0.000118987 0)
(8.99261 -0.00441814 0)
(8.92796 -0.00698175 0)
(8.87133 -0.00840286 0)
(8.82145 -0.00915612 0)
(8.77733 -0.00951289 0)
(8.73811 -0.00963574 0)
(8.70308 -0.00965127 0)
(8.67135 -0.00965443 0)
(8.64254 -0.0100206 0)
(0.0181722 0.010319 -3.63589e-20)
(0.113436 -0.113563 3.2408e-20)
(0.271863 -0.207007 0)
(0.454008 -0.251435 0)
(0.640952 -0.262535 0)
(0.821693 -0.254344 -2.51972e-20)
(0.989026 -0.235244 0)
(1.13835 -0.209964 0)
(1.26695 -0.1812 0)
(1.37317 -0.150422 0)
(1.45589 -0.118219 2.30708e-20)
(1.51376 -0.0844448 0)
(1.54687 -0.0480194 0)
(1.55201 -0.00786428 0)
(1.52352 0.0345792 0)
(1.46348 0.0760358 2.31926e-20)
(1.37519 0.11229 0)
(1.26351 0.138899 0)
(1.13622 0.151813 0)
(1.00394 0.148264 0)
(0.878749 0.12859 0)
(0.771293 0.0974406 0)
(0.687265 0.0626389 0)
(0.624783 0.0328273 2.59162e-20)
(0.574739 0.0152424 -2.60213e-20)
(0.524325 0.0131036 2.61466e-20)
(0.461511 0.0241928 2.63983e-20)
(0.377167 0.0440192 0)
(0.265375 0.0698627 0)
(0.121184 0.101918 -2.87629e-20)
(-0.0585843 0.140658 -2.87663e-20)
(-0.276902 0.183743 0)
(-0.531811 0.227129 0)
(-0.81689 0.265219 -2.41582e-20)
(-1.1236 0.293838 0)
(-1.44244 0.311082 0)
(-1.76418 0.316957 2.17472e-20)
(-2.08068 0.312787 0)
(-2.38542 0.300635 2.12891e-20)
(-2.67363 0.282812 4.25295e-20)
(-2.94225 0.261519 0)
(-3.18974 0.238636 0)
(-3.41576 0.215629 0)
(-3.6209 0.193536 0)
(-3.80638 0.173019 0)
(-3.97382 0.154439 4.4035e-20)
(-4.12502 0.137927 4.43031e-20)
(-4.2618 0.12346 4.45447e-20)
(-4.38595 0.110915 0)
(-4.4991 0.100115 -4.49419e-20)
(-4.60275 0.0908629 0)
(-4.69822 0.082956 4.52275e-20)
(-4.78666 0.0762046 4.53321e-20)
(-4.86907 0.0704363 0)
(-4.94629 0.0654987 0)
(-5.01906 0.0612594 0)
(-5.08797 0.0576046 4.55373e-20)
(-5.15355 0.0544374 0)
(-5.21622 0.0516754 0)
(-5.27634 0.0492481 0)
(-5.33422 0.0470954 0)
(-5.39008 0.0451655 0)
(-5.44412 0.0434131 0)
(-5.49651 0.0417984 0)
(-5.54734 0.0402856 0)
(-5.59671 0.0388421 -4.51099e-20)
(-5.64466 0.0374379 0)
(-5.69122 0.0360442 0)
(-5.73639 0.0346335 4.47525e-20)
(-5.78012 0.0331791 4.46091e-20)
(-5.82237 0.0316545 0)
(-5.86304 0.0300336 -4.42823e-20)
(-5.90203 0.0282909 4.40972e-20)
(-5.9392 0.0264018 0)
(-5.97437 0.0243436 -4.36786e-20)
(-6.00736 0.0220977 0)
(-6.03793 0.0196512 0)
(-6.06581 0.017001 4.29089e-20)
(-6.09071 0.0141586 0)
(-6.11231 0.0111528 -4.22814e-20)
(-6.13025 0.00804824 0)
(-6.14414 0.00494534 4.15419e-20)
(-6.15371 0.00193408 4.11204e-20)
(-6.15858 -0.000891892 4.06404e-20)
(-6.15958 -0.00358433 8.02204e-20)
(-6.15631 -0.00637029 -7.90493e-20)
(-6.14852 -0.00933384 0)
(-6.13582 -0.0125203 0)
(-6.1178 -0.0159654 0)
(-6.09397 -0.0197034 -7.30052e-20)
(-6.06378 -0.0237698 -7.10802e-20)
(-6.02663 -0.0282021 6.89545e-20)
(-5.98185 -0.0330401 0)
(-5.92871 -0.038326 -6.4016e-20)
(-5.8664 -0.0441039 -6.11552e-20)
(-5.79404 -0.0504193 -5.79971e-20)
(-5.71066 -0.0573176 0)
(-5.61522 -0.0648427 0)
(-5.50662 -0.0730346 0)
(-5.38367 -0.0819258 -4.17376e-20)
(-5.24515 -0.0915379 0)
(-5.08979 -0.101876 0)
(-4.91636 -0.112922 2.4645e-20)
(-4.72366 -0.12463 0)
(-4.5106 -0.136915 0)
(-4.2763 -0.149651 2.03038e-21)
(-4.02013 -0.162659 0)
(-3.74186 -0.175708 0)
(-3.44174 -0.188514 2.72118e-20)
(-3.12059 -0.200744 3.85533e-20)
(-2.77989 -0.212026 0)
(-2.42187 -0.221956 -6.36333e-20)
(-2.04946 -0.230097 0)
(-1.66633 -0.235978 9.17294e-20)
(-1.27678 -0.239044 0)
(-0.885585 -0.238586 1.22453e-19)
(-0.497478 -0.23381 1.38651e-19)
(-0.116606 -0.223915 0)
(0.254116 -0.20996 0)
(0.612038 -0.194761 0)
(0.953567 -0.179421 0)
(1.27624 -0.164249 0)
(1.5787 -0.149496 0)
(1.86026 -0.135358 0)
(2.12073 -0.121979 1.29684e-19)
(2.36041 -0.109449 -1.26007e-19)
(2.57989 -0.0978168 0)
(2.78002 -0.0870923 0)
(2.96178 -0.0772587 0)
(3.12623 -0.0682788 0)
(3.27446 -0.0601026 -2.19828e-19)
(3.40755 -0.052673 0)
(3.52654 -0.0459306 2.0947e-19)
(3.63242 -0.0398166 -2.04827e-19)
(3.72612 -0.0342753 0)
(3.80851 -0.0292551 0)
(3.88042 -0.0247094 0)
(3.94259 -0.020596 1.89525e-19)
(3.99574 -0.0168774 1.86443e-19)
(4.04053 -0.0135234 0)
(4.07758 -0.0104937 1.81063e-19)
(4.10747 -0.00775135 1.78735e-19)
(4.13065 -0.00534017 -1.76631e-19)
(4.14794 -0.00293359 0)
(4.1587 0.000126315 0)
(4.16118 0.00323638 -1.71526e-19)
(4.15677 0.00592834 0)
(4.14701 0.00793752 0)
(4.13315 0.00926735 0)
(4.11621 0.0100531 0)
(4.097 0.0104359 1.66294e-19)
(4.07614 0.0105341 1.65596e-19)
(4.05411 0.0104407 0)
(4.03128 0.0102243 1.64433e-19)
(4.00796 0.00993281 0)
(3.98438 0.00959874 0)
(3.96072 0.00924438 1.63129e-19)
(3.93713 0.00888517 0)
(3.91373 0.00853237 1.62471e-19)
(3.8906 0.00819485 0)
(3.86779 0.00788013 0)
(3.84532 0.00759511 1.617e-19)
(3.82318 0.00734652 0)
(3.80135 0.00714144 1.61296e-19)
(3.77976 0.0069879 0)
(3.75829 0.0068956 0)
(3.73681 0.00687687 0)
(3.71511 0.00694799 -1.60746e-19)
(3.69292 0.00713102 0)
(3.66986 0.00745689 1.6066e-19)
(3.64543 0.00796985 0)
(3.61894 0.00873452 0)
(3.58942 0.00984799 0)
(3.55545 0.0114615 0)
(3.51506 0.0138214 0)
(3.46479 0.0173239 0)
(3.40091 0.0228197 0)
(3.30985 0.0310489 -3.3147e-19)
(3.19967 0.0482474 0)
(2.94641 0.0641917 0)
(0.124642 -0.282034 9.48621e-20)
(0.265822 -0.469433 -7.41967e-20)
(0.437235 -0.548681 0)
(0.601375 -0.565155 4.05401e-20)
(0.746721 -0.544576 0)
(0.875143 -0.502723 1.79818e-20)
(0.988388 -0.448736 -3.66768e-20)
(1.08645 -0.387873 -3.64172e-20)
(1.1689 -0.323167 0)
(1.23544 -0.256293 -3.66665e-20)
(1.28603 -0.188011 -1.80428e-20)
(1.32085 -0.118436 0)
(1.3396 -0.0470235 0)
(1.34474 0.0265093 0)
(1.33942 0.100731 0)
(1.32047 0.172924 -1.92811e-20)
(1.28436 0.239101 0)
(1.22779 0.293968 3.96484e-20)
(1.14838 0.331121 0)
(1.04603 0.344191 0)
(0.923843 0.329778 -3.95927e-20)
(0.787855 0.292214 0)
(0.643902 0.246273 3.87143e-20)
(0.493447 0.211816 -1.9461e-20)
(0.33308 0.203846 1.94778e-20)
(0.156992 0.227246 -1.97578e-20)
(-0.0414408 0.278128 -1.96315e-20)
(-0.268998 0.349027 0)
(-0.529187 0.433022 0)
(-0.821322 0.522942 1.66958e-20)
(-1.13888 0.609955 -1.527e-20)
(-1.47138 0.684908 0)
(-1.80721 0.740769 0)
(-2.13561 0.773512 1.39233e-20)
(-2.44781 0.782578 0)
(-2.73749 0.770222 0)
(-3.00096 0.74044 -1.35752e-20)
(-3.23686 0.697945 0)
(-3.44575 0.647391 1.45401e-20)
(-3.62952 0.592867 -2.83395e-20)
(-3.79082 0.537659 0)
(-3.93264 0.484189 0)
(-4.05793 0.434078 -6.0717e-20)
(-4.16944 0.388277 -6.15671e-20)
(-4.26956 0.347212 -6.23436e-20)
(-4.36031 0.310931 3.16712e-20)
(-4.44335 0.27923 -3.1749e-20)
(-4.52004 0.251753 -9.63241e-20)
(-4.59145 0.228071 6.47491e-20)
(-4.65844 0.207726 3.26363e-20)
(-4.7217 0.190277 0)
(-4.78178 0.175309 -3.3071e-20)
(-4.83912 0.162452 3.30572e-20)
(-4.8941 0.151378 0)
(-4.947 0.141804 0)
(-4.99807 0.133488 0)
(-5.04752 0.126223 -3.38107e-20)
(-5.0955 0.119832 0)
(-5.14217 0.114166 6.77716e-20)
(-5.18761 0.109098 0)
(-5.23192 0.10452 6.81214e-20)
(-5.27516 0.100337 0)
(-5.31737 0.0964689 -6.84236e-20)
(-5.35857 0.0928455 0)
(-5.39877 0.0894047 6.86828e-20)
(-5.43796 0.0860915 -3.42892e-20)
(-5.47611 0.0828569 0)
(-5.51319 0.0796565 -6.89886e-20)
(-5.54914 0.0764496 -3.46217e-20)
(-5.58391 0.0731985 -3.46449e-20)
(-5.61741 0.069868 0)
(-5.64958 0.0664241 -3.45363e-20)
(-5.68031 0.0628342 -3.46561e-20)
(-5.70952 0.059066 0)
(-5.73712 0.0550871 3.46012e-20)
(-5.76301 0.0508655 -6.90584e-20)
(-5.7871 0.0463693 0)
(-5.80932 0.0415678 -3.43881e-20)
(-5.8296 0.0364351 0)
(-5.84789 0.0309572 1.02451e-19)
(-5.86416 0.0251493 0)
(-5.8784 0.0190717 -1.01361e-19)
(-5.89047 0.012808 -3.35055e-20)
(-5.90021 0.00641695 3.33557e-20)
(-5.90627 -0.000159347 6.60376e-20)
(-5.90826 -0.00708699 -6.52632e-20)
(-5.90573 -0.0144622 0)
(-5.89821 -0.022356 0)
(-5.88523 -0.0308319 0)
(-5.86628 -0.0399531 1.81148e-19)
(-5.84081 -0.0497861 5.85414e-20)
(-5.80819 -0.0604014 -5.6786e-20)
(-5.76778 -0.0718743 0)
(-5.71883 -0.0842839 -5.39779e-20)
(-5.66055 -0.097713 5.02287e-20)
(-5.59208 -0.112246 4.75493e-20)
(-5.5125 -0.127966 0)
(-5.42078 -0.144951 0)
(-5.31586 -0.163269 0)
(-5.19659 -0.182969 3.37912e-20)
(-5.0618 -0.204074 0)
(-4.91027 -0.226567 -5.25392e-20)
(-4.74078 -0.250378 -6.21941e-20)
(-4.55217 -0.27537 3.17156e-20)
(-4.34338 -0.301319 0)
(-4.11353 -0.3279 5.73625e-21)
(-3.862 -0.35468 0)
(-3.58852 -0.381104 -2.0803e-20)
(-3.29331 -0.406504 1.56494e-20)
(-2.97711 -0.43012 2.37093e-20)
(-2.64134 -0.451136 0)
(-2.2881 -0.468735 1.34293e-19)
(-1.92016 -0.482155 -1.06358e-19)
(-1.54096 -0.490742 -6.56109e-20)
(-1.15439 -0.493986 0)
(-0.764629 -0.49152 -8.56839e-20)
(-0.37568 -0.483094 -2.82974e-19)
(0.00852475 -0.468401 0)
(0.383339 -0.447888 -2.04204e-19)
(0.745142 -0.423789 -2.06079e-19)
(1.0911 -0.3975 -2.06743e-19)
(1.41917 -0.369959 0)
(1.72796 -0.341959 0)
(2.01673 -0.314159 0)
(2.28524 -0.287079 9.94416e-20)
(2.53371 -0.261102 1.0027e-19)
(2.76269 -0.236488 0)
(2.97295 -0.213391 1.9263e-19)
(3.16541 -0.191879 1.89536e-19)
(3.34107 -0.171956 0)
(3.50097 -0.153579 1.84413e-19)
(3.64612 -0.136676 3.60735e-19)
(3.77752 -0.121159 -1.7828e-19)
(3.8961 -0.106929 -1.73994e-19)
(4.00276 -0.0938893 0)
(4.09832 -0.0819464 0)
(4.18355 -0.0710123 0)
(4.25917 -0.0610069 -1.65457e-19)
(4.32585 -0.0518575 1.62647e-19)
(4.38422 -0.0434998 3.22254e-19)
(4.43485 -0.0358677 -1.5967e-19)
(4.4783 -0.0288943 1.57567e-19)
(4.51513 -0.0225425 1.56569e-19)
(4.54564 -0.0165505 0)
(4.57121 -0.0105261 0)
(4.59411 -0.00494105 -1.52537e-19)
(4.61376 -5.2353e-05 0)
(4.62952 0.00402978 0)
(4.64118 0.00732565 2.9931e-19)
(4.64881 0.00994593 0)
(4.65267 0.0120026 1.48059e-19)
(4.65309 0.0135867 -1.47532e-19)
(4.65048 0.0147749 0)
(4.64525 0.0156314 1.46414e-19)
(4.63778 0.01621 0)
(4.62847 0.0165565 0)
(4.61766 0.0167111 -1.45336e-19)
(4.60566 0.0167098 2.90093e-19)
(4.59276 0.016585 -1.44806e-19)
(4.57921 0.0163664 0)
(4.56523 0.0160814 0)
(4.55102 0.015756 1.44251e-19)
(4.53672 0.015415 0)
(4.52247 0.0150834 1.43995e-19)
(4.50836 0.0147871 0)
(4.49445 0.0145545 0)
(4.48078 0.0144183 0)
(4.46732 0.0144184 1.43719e-19)
(4.45404 0.0146053 0)
(4.44081 0.0150459 -1.43727e-19)
(4.42745 0.0158318 0)
(4.4137 0.0170925 0)
(4.39917 0.0190184 2.88029e-19)
(4.38327 0.0218949 -2.88495e-19)
(4.36526 0.0261952 0)
(4.34364 0.0326168 0)
(4.31779 0.0427877 0)
(4.28072 0.058003 8.79811e-19)
(4.24288 0.08836 0)
(4.15258 0.12593 -5.94696e-19)
(0.12922 -0.69284 1.93798e-21)
(0.266041 -0.879567 9.09964e-20)
(0.415176 -0.891454 0)
(0.546363 -0.850992 -7.35318e-20)
(0.655222 -0.786487 0)
(0.747165 -0.708875 0)
(0.825607 -0.623699 -1.06291e-21)
(0.891461 -0.533978 3.22609e-20)
(0.944706 -0.441456 3.32221e-20)
(0.985075 -0.347264 3.26074e-20)
(1.01221 -0.252249 0)
(1.02576 -0.157105 0)
(1.02546 -0.0623574 -3.49242e-20)
(1.01153 0.0323255 -7.07111e-20)
(0.984831 0.127988 7.11908e-20)
(0.946088 0.224352 0)
(0.895617 0.318955 7.23386e-20)
(0.832727 0.406513 -3.58844e-20)
(0.755604 0.47899 0)
(0.661644 0.527484 7.20375e-20)
(0.548001 0.547047 3.50863e-20)
(0.412011 0.54303 -6.95391e-20)
(0.251079 0.532392 -3.39348e-20)
(0.0629209 0.535853 0)
(-0.15347 0.568178 6.36051e-20)
(-0.397631 0.63371 5.92994e-20)
(-0.66723 0.727355 0)
(-0.957701 0.838182 5.28074e-20)
(-1.26156 0.95277 0)
(-1.56886 1.05771 4.8395e-20)
(-1.86848 1.14158 2.28678e-20)
(-2.15028 1.19648 0)
(-2.40706 1.2189 0)
(-2.63527 1.20963 0)
(-2.83469 1.17278 0)
(-3.00753 1.11442 0)
(-3.15739 1.04126 0)
(-3.28835 0.959646 4.63134e-20)
(-3.40434 0.875006 -6.9266e-20)
(-3.50869 0.791542 0)
(-3.60408 0.712225 0)
(-3.69247 0.638922 0)
(-3.77526 0.572601 -8.12499e-22)
(-3.85341 0.513559 4.84001e-20)
(-3.92755 0.461632 9.8322e-20)
(-3.99812 0.416362 -9.91518e-20)
(-4.06543 0.377137 -5.00547e-20)
(-4.12974 0.343281 5.02471e-20)
(-4.19125 0.314117 4.19334e-23)
(-4.25015 0.289007 5.09117e-20)
(-4.30663 0.267371 0)
(-4.36087 0.248694 5.1407e-20)
(-4.41305 0.232526 -1.06948e-22)
(-4.46335 0.218479 0)
(-4.51192 0.206222 0)
(-4.55892 0.195469 -5.22787e-20)
(-4.60448 0.185978 0)
(-4.64875 0.177541 0)
(-4.69182 0.169981 5.2723e-20)
(-4.7338 0.163145 1.06126e-19)
(-4.77478 0.156899 -5.33953e-20)
(-4.81482 0.151128 0)
(-4.85399 0.14573 5.37572e-20)
(-4.89232 0.140616 0)
(-4.92986 0.135706 5.3874e-20)
(-4.96661 0.130929 5.42782e-20)
(-5.0026 0.126221 -1.08693e-19)
(-5.0378 0.121524 -5.44301e-20)
(-5.07223 0.116786 0)
(-5.10584 0.111958 1.09691e-19)
(-5.13861 0.106997 0)
(-5.17049 0.101865 1.65457e-19)
(-5.20143 0.0965242 1.10537e-19)
(-5.23138 0.0909436 1.10766e-19)
(-5.26026 0.0850946 -1.10959e-19)
(-5.28797 0.0789524 1.66643e-19)
(-5.31444 0.0724947 0)
(-5.33953 0.0657004 0)
(-5.36312 0.0585471 -1.11231e-19)
(-5.38503 0.051005 -1.66595e-19)
(-5.40503 0.0430286 0)
(-5.42285 0.0345466 5.51713e-20)
(-5.43813 0.0254602 0)
(-5.45053 0.0156713 -1.64318e-19)
(-5.45967 0.00511386 5.03062e-22)
(-5.46518 -0.00623689 -5.72462e-22)
(-5.46665 -0.0184334 1.0668e-19)
(-5.46366 -0.0315488 0)
(-5.45572 -0.0456671 -1.03608e-19)
(-5.44232 -0.0608803 9.10411e-22)
(-5.42291 -0.0772869 0)
(-5.39688 -0.0949928 0)
(-5.36354 -0.11411 0)
(-5.32219 -0.134758 8.94325e-20)
(-5.27201 -0.157056 0)
(-5.21216 -0.181131 0)
(-5.14168 -0.2071 0)
(-5.05956 -0.235076 0)
(-4.96474 -0.26515 0)
(-4.85605 -0.297387 6.14006e-20)
(-4.73231 -0.331804 0)
(-4.59226 -0.368358 4.41977e-20)
(-4.43467 -0.406919 3.57592e-20)
(-4.25831 -0.447249 -2.66067e-20)
(-4.06205 -0.488973 0)
(-3.84492 -0.531555 -6.11269e-21)
(-3.60618 -0.574281 0)
(-3.34544 -0.616249 1.72756e-20)
(-3.06274 -0.656373 -3.00009e-20)
(-2.7587 -0.693421 -1.21691e-19)
(-2.43458 -0.726068 0)
(-2.09235 -0.752987 -2.06693e-19)
(-1.7347 -0.772953 -7.81272e-20)
(-1.36497 -0.784963 0)
(-0.987039 -0.78835 -2.26705e-19)
(-0.605062 -0.7829 -2.58581e-19)
(-0.223165 -0.7689 4.35808e-19)
(0.154358 -0.746869 0)
(0.522962 -0.717657 1.61582e-19)
(0.879062 -0.682843 1.64939e-19)
(1.21987 -0.643933 4.96312e-19)
(1.54333 -0.602392 0)
(1.84805 -0.559552 0)
(2.13328 -0.516547 0)
(2.39883 -0.474286 1.6504e-19)
(2.64492 -0.433454 0)
(2.8721 -0.394529 0)
(3.08113 -0.357806 -1.64691e-19)
(3.27291 -0.32344 -1.62952e-19)
(3.44843 -0.291472 0)
(3.60869 -0.261864 0)
(3.75467 -0.234528 -3.14557e-19)
(3.88733 -0.20934 0)
(4.00759 -0.186162 3.0702e-19)
(4.11629 -0.164852 3.02234e-19)
(4.21424 -0.145271 0)
(4.30217 -0.127286 0)
(4.38079 -0.110775 -2.92769e-19)
(4.45073 -0.0956278 -7.57134e-22)
(4.5126 -0.0817439 -6.76187e-22)
(4.56696 -0.0690304 0)
(4.61436 -0.0573983 -5.66147e-19)
(4.65531 -0.0467515 0)
(4.69027 -0.0370539 0)
(4.71975 -0.0283386 0)
(4.74454 -0.0204254 2.76296e-19)
(4.7653 -0.0132473 0)
(4.78232 -0.00680651 -5.46519e-19)
(4.7958 -0.00113248 -2.72179e-19)
(4.80594 0.00377925 0)
(4.81296 0.00795756 -2.69993e-19)
(4.8171 0.0114461 0)
(4.81863 0.0143015 0)
(4.81784 0.016586 -8.02953e-19)
(4.81502 0.0183617 5.34186e-19)
(4.81047 0.019689 0)
(4.80446 0.0206253 5.32576e-19)
(4.79728 0.0212249 -2.66029e-19)
(4.78916 0.0215389 0)
(4.78035 0.0216155 0)
(4.77107 0.0215007 0)
(4.7615 0.0212385 -7.96011e-19)
(4.75181 0.0208717 0)
(4.74215 0.0204428 -2.65269e-19)
(4.73264 0.0199956 0)
(4.72336 0.0195763 0)
(4.71436 0.0192367 0)
(4.70568 0.0190371 0)
(4.69727 0.0190514 0)
(4.68908 0.0193742 0)
(4.68096 0.0201308 -5.3278e-19)
(4.67268 0.0214941 0)
(4.66392 0.0237128 -2.67496e-19)
(4.65418 0.0271493 8.04399e-19)
(4.64286 0.0323917 0)
(4.62884 0.0402865 0)
(4.61154 0.0526864 -5.42876e-19)
(4.58741 0.0714308 -5.47672e-19)
(4.56231 0.105347 5.49571e-19)
(4.51956 0.154791 5.55826e-19)
(0.104981 -1.04494 -1.71899e-19)
(0.212531 -1.18934 -1.33449e-19)
(0.318584 -1.14069 -7.92487e-20)
(0.409724 -1.05655 -3.75386e-20)
(0.485405 -0.959129 0)
(0.548931 -0.854049 6.62104e-20)
(0.602082 -0.743794 -3.32209e-20)
(0.645172 -0.629708 0)
(0.677908 -0.512657 -3.14239e-20)
(0.699774 -0.393361 0)
(0.710151 -0.272546 6.54545e-20)
(0.708402 -0.150976 0)
(0.693962 -0.0294264 3.34778e-20)
(0.666454 0.0913813 6.74402e-20)
(0.625824 0.211062 -6.78669e-20)
(0.572441 0.329163 0)
(0.506867 0.444206 -6.88192e-20)
(0.429366 0.552711 0)
(0.339296 0.648855 0)
(0.234377 0.726255 -6.77737e-20)
(0.110294 0.782615 0)
(-0.0383541 0.82458 -1.19485e-21)
(-0.216248 0.867131 0)
(-0.424944 0.925286 0)
(-0.662085 1.00736 1.0116e-21)
(-0.921455 1.11241 -4.75815e-20)
(-1.19389 1.23114 -4.6237e-20)
(-1.4684 1.34931 -4.29424e-20)
(-1.73359 1.45185 0)
(-1.97941 1.52655 -8.18878e-20)
(-2.19886 1.56622 0)
(-2.3888 1.56915 -4.08378e-20)
(-2.54985 1.53827 0)
(-2.68535 1.47951 0)
(-2.80005 1.40019 4.05685e-20)
(-2.89904 1.30764 0)
(-2.98685 1.20836 -4.07792e-20)
(-3.06713 1.10759 1.74694e-21)
(-3.14251 1.00924 8.07003e-20)
(-3.21472 0.915978 -8.2591e-20)
(-3.28475 0.829444 0)
(-3.35308 0.750477 0)
(-3.41985 0.679333 -4.26364e-20)
(-3.48502 0.615862 0)
(-3.54848 0.559659 -4.18376e-20)
(-3.61008 0.510167 4.21419e-20)
(-3.66972 0.466755 4.24261e-20)
(-3.72733 0.428777 0)
(-3.78287 0.3956 -4.29412e-20)
(-3.83637 0.366633 -4.31762e-20)
(-3.88789 0.341333 8.69499e-20)
(-3.93751 0.319209 -4.36116e-20)
(-3.98533 0.299827 -4.38157e-20)
(-4.03147 0.282804 0)
(-4.07605 0.267803 0)
(-4.11919 0.25453 4.43944e-20)
(-4.16102 0.242729 0)
(-4.20164 0.232175 0)
(-4.24117 0.222672 -8.98976e-20)
(-4.27969 0.214048 -9.02649e-20)
(-4.3173 0.20615 0)
(-4.35406 0.198846 0)
(-4.39004 0.192014 0)
(-4.42529 0.185549 0)
(-4.45986 0.179355 -9.21179e-20)
(-4.49377 0.173346 9.24678e-20)
(-4.52705 0.167442 9.28633e-20)
(-4.5597 0.161573 1.86475e-19)
(-4.59172 0.155673 0)
(-4.6231 0.14968 4.70376e-23)
(-4.65381 0.143537 0)
(-4.68382 0.137192 -9.46434e-20)
(-4.71308 0.130593 1.17312e-22)
(-4.74154 0.123692 -9.52646e-20)
(-4.7691 0.11644 9.55399e-20)
(-4.79568 0.108791 2.03706e-22)
(-4.82117 0.100695 0)
(-4.84543 0.0921032 9.64297e-20)
(-4.8683 0.0829621 9.6272e-20)
(-4.8896 0.0732149 1.93003e-19)
(-4.90911 0.0627975 0)
(-4.92658 0.0516311 -9.66574e-20)