/*--------------------------------*- C++ -*----------------------------------*\
  =========                 |
  \\      /  F ield         | OpenFOAM: The Open Source CFD Toolbox
   \\    /   O peration     | Website:  https://openfoam.org
    \\  /    A nd           | Version:  12
     \\/     M anipulation  |
\*---------------------------------------------------------------------------*/
FoamFile
{
    format      ascii;
    class       volScalarField;
    location    "15";
    object      p;
}
// * * * * * * * * * * * * * * * * * * * * * * * * * * * * * * * * * * * * * //

dimensions      [1 -1 -2 0 0 0 0];

internalField   nonuniform List<scalar> 
3829
(
-618.053
-618.052
-618.049
-618.045
-618.04
-618.033
-618.024
-618.014
-618.001
-617.987
-617.971
-617.953
-617.933
-617.91
-617.885
-617.857
-617.826
-617.792
-617.755
-617.715
-617.672
-617.626
-617.576
-617.523
-617.467
-617.407
-617.344
-617.278
-617.209
-617.137
-617.063
-616.986
-616.908
-616.827
-616.745
-616.661
-616.577
-616.492
-616.407
-616.323
-616.239
-616.156
-616.074
-615.995
-615.918
-615.844
-615.773
-615.706
-615.642
-615.583
-615.527
-615.477
-615.43
-615.389
-615.352
-615.32
-615.293
-615.27
-615.252
-615.238
-615.228
-615.222
-615.219
-615.219
-615.222
-615.227
-615.233
-615.24
-615.247
-615.254
-615.26
-615.264
-615.265
-615.264
-615.259
-615.25
-615.236
-615.218
-615.194
-615.163
-615.126
-615.083
-615.035
-614.981
-614.923
-614.859
-614.792
-614.722
-614.649
-614.574
-614.5
-614.427
-614.356
-614.289
-614.227
-614.171
-614.122
-614.081
-614.05
-614.028
-614.016
-614.016
-614.027
-614.048
-614.079
-614.118
-614.165
-614.218
-614.276
-614.335
-614.395
-614.453
-614.506
-614.553
-614.591
-614.619
-614.636
-614.639
-614.628
-614.604
-614.567
-614.519
-614.461
-614.397
-614.328
-614.257
-614.19
-614.128
-614.074
-614.033
-614.005
-613.993
-614.002
-614.029
-614.071
-614.127
-614.194
-614.268
-614.345
-614.42
-614.487
-614.544
-614.585
-614.607
-614.609
-614.59
-614.552
-614.497
-614.429
-614.353
-614.275
-614.202
-614.14
-614.094
-614.068
-614.063
-614.081
-614.119
-614.174
-614.239
-614.315
-614.381
-614.438
-614.479
-614.5
-614.5
-614.479
-614.442
-614.393
-614.34
-614.291
-614.253
-614.232
-614.23
-614.249
-614.284
-614.33
-614.38
-614.427
-614.459
-614.473
-614.467
-614.44
-614.398
-614.347
-614.296
-614.255
-614.229
-614.223
-614.237
-614.267
-614.306
-614.346
-614.379
-614.398
-614.402
-614.394
-614.377
-614.36
-614.349
-1776.54
-1776.54
-1776.54
-1776.53
-1776.53
-1776.52
-1776.52
-1776.51
-1776.5
-1776.49
-1776.48
-1776.46
-1776.44
-1776.42
-1776.4
-1776.37
-1776.34
-1776.31
-1776.27
-1776.23
-1776.18
-1776.13
-1776.08
-1776.02
-1775.96
-1775.89
-1775.82
-1775.74
-1775.66
-1775.58
-1775.49
-1775.4
-1775.31
-1775.22
-1775.12
-1775.03
-1774.93
-1774.83
-1774.73
-1774.63
-1774.54
-1774.44
-1774.35
-1774.26
-1774.17
-1774.09
-1774.01
-1773.94
-1773.87
-1773.81
-1773.76
-1773.71
-1773.66
-1773.62
-1773.59
-1773.56
-1773.54
-1773.53
-1773.52
-1773.51
-1773.51
-1773.51
-1773.52
-1773.53
-1773.55
-1773.57
-1773.58
-1773.6
-1773.62
-1773.64
-1773.66
-1773.67
-1773.68
-1773.69
-1773.69
-1773.69
-1773.68
-1773.66
-1773.64
-1773.61
-1773.57
-1773.52
-1773.47
-1773.41
-1773.34
-1773.27
-1773.19
-1773.11
-1773.02
-1772.94
-1772.85
-1772.76
-1772.68
-1772.6
-1772.53
-1772.46
-1772.41
-1772.36
-1772.33
-1772.3
-1772.29
-1772.3
-1772.31
-1772.34
-1772.38
-1772.43
-1772.49
-1772.56
-1772.63
-1772.71
-1772.78
-1772.85
-1772.92
-1772.98
-1773.03
-1773.06
-1773.08
-1773.09
-1773.07
-1773.04
-1773
-1772.94
-1772.87
-1772.79
-1772.7
-1772.61
-1772.53
-1772.45
-1772.39
-1772.34
-1772.31
-1772.29
-1772.3
-1772.34
-1772.39
-1772.46
-1772.54
-1772.63
-1772.72
-1772.81
-1772.9
-1772.97
-1773.02
-1773.04
-1773.04
-1773.02
-1772.97
-1772.9
-1772.82
-1772.73
-1772.63
-1772.54
-1772.47
-1772.41
-1772.38
-1772.38
-1772.4
-1772.45
-1772.52
-1772.6
-1772.69
-1772.77
-1772.84
-1772.89
-1772.91
-1772.91
-1772.88
-1772.83
-1772.77
-1772.7
-1772.64
-1772.6
-1772.57
-1772.57
-1772.59
-1772.64
-1772.69
-1772.76
-1772.81
-1772.85
-1772.87
-1772.86
-1772.83
-1772.78
-1772.72
-1772.65
-1772.61
-1772.58
-1772.57
-1772.59
-1772.63
-1772.68
-1772.72
-1772.76
-1772.78
-1772.78
-1772.77
-1772.75
-1772.72
-1772.71
-2802.89
-2802.89
-2802.89
-2802.89
-2802.89
-2802.89
-2802.89
-2802.89
-2802.89
-2802.88
-2802.88
-2802.87
-2802.86
-2802.85
-2802.84
-2802.82
-2802.79
-2802.76
-2802.72
-2802.68
-2802.63
-2802.58
-2802.52
-2802.45
-2802.37
-2802.29
-2802.2
-2802.11
-2802
-2801.9
-2801.79
-2801.67
-2801.55
-2801.43
-2801.31
-2801.19
-2801.06
-2800.94
-2800.81
-2800.69
-2800.57
-2800.46
-2800.35
-2800.24
-2800.14
-2800.04
-2799.95
-2799.87
-2799.79
-2799.72
-2799.66
-2799.61
-2799.57
-2799.53
-2799.51
-2799.49
-2799.48
-2799.48
-2799.48
-2799.49
-2799.51
-2799.54
-2799.57
-2799.6
-2799.64
-2799.68
-2799.72
-2799.76
-2799.8
-2799.84
-2799.88
-2799.91
-2799.94
-2799.96
-2799.98
-2799.98
-2799.98
-2799.97
-2799.95
-2799.91
-2799.87
-2799.82
-2799.75
-2799.68
-2799.6
-2799.51
-2799.41
-2799.31
-2799.2
-2799.09
-2798.98
-2798.87
-2798.76
-2798.66
-2798.57
-2798.48
-2798.41
-2798.36
-2798.31
-2798.29
-2798.28
-2798.29
-2798.31
-2798.36
-2798.42
-2798.49
-2798.57
-2798.67
-2798.77
-2798.87
-2798.98
-2799.08
-2799.17
-2799.25
-2799.31
-2799.36
-2799.38
-2799.39
-2799.37
-2799.33
-2799.27
-2799.19
-2799.09
-2798.98
-2798.87
-2798.75
-2798.64
-2798.53
-2798.45
-2798.38
-2798.34
-2798.32
-2798.34
-2798.38
-2798.45
-2798.54
-2798.65
-2798.77
-2798.9
-2799.02
-2799.14
-2799.23
-2799.29
-2799.33
-2799.33
-2799.29
-2799.23
-2799.13
-2799.02
-2798.89
-2798.77
-2798.65
-2798.55
-2798.48
-2798.44
-2798.44
-2798.47
-2798.54
-2798.64
-2798.75
-2798.87
-2798.97
-2799.06
-2799.12
-2799.15
-2799.14
-2799.1
-2799.03
-2798.94
-2798.85
-2798.77
-2798.7
-2798.67
-2798.67
-2798.7
-2798.77
-2798.85
-2798.93
-2799.01
-2799.06
-2799.08
-2799.07
-2799.03
-2798.96
-2798.88
-2798.79
-2798.73
-2798.69
-2798.69
-2798.72
-2798.77
-2798.83
-2798.9
-2798.95
-2798.97
-2798.97
-2798.94
-2798.91
-2798.87
-2798.85
-3712.08
-3712.08
-3712.09
-3712.1
-3712.11
-3712.12
-3712.14
-3712.16
-3712.18
-3712.2
-3712.22
-3712.23
-3712.25
-3712.26
-3712.26
-3712.26
-3712.25
-3712.23
-3712.2
-3712.16
-3712.11
-3712.05
-3711.98
-3711.89
-3711.8
-3711.69
-3711.57
-3711.44
-3711.31
-3711.16
-3711.01
-3710.85
-3710.69
-3710.53
-3710.36
-3710.19
-3710.02
-3709.86
-3709.7
-3709.54
-3709.38
-3709.23
-3709.09
-3708.95
-3708.83
-3708.72
-3708.61
-3708.52
-3708.44
-3708.37
-3708.31
-3708.27
-3708.23
-3708.21
-3708.19
-3708.19
-3708.2
-3708.22
-3708.25
-3708.29
-3708.33
-3708.39
-3708.45
-3708.52
-3708.59
-3708.66
-3708.74
-3708.81
-3708.88
-3708.95
-3709.02
-3709.08
-3709.13
-3709.17
-3709.2
-3709.23
-3709.23
-3709.23
-3709.21
-3709.17
-3709.12
-3709.06
-3708.98
-3708.89
-3708.78
-3708.66
-3708.54
-3708.4
-3708.26
-3708.11
-3707.96
-3707.82
-3707.68
-3707.55
-3707.43
-3707.32
-3707.23
-3707.15
-3707.1
-3707.07
-3707.07
-3707.08
-3707.13
-3707.19
-3707.28
-3707.38
-3707.5
-3707.64
-3707.78
-3707.92
-3708.07
-3708.21
-3708.33
-3708.44
-3708.53
-3708.6
-3708.63
-3708.63
-3708.61
-3708.55
-3708.47
-3708.36
-3708.22
-3708.07
-3707.91
-3707.75
-3707.59
-3707.45
-3707.33
-3707.24
-3707.18
-3707.16
-3707.18
-3707.24
-3707.34
-3707.47
-3707.62
-3707.79
-3707.97
-3708.14
-3708.29
-3708.41
-3708.5
-3708.54
-3708.54
-3708.49
-3708.4
-3708.27
-3708.11
-3707.94
-3707.76
-3707.6
-3707.47
-3707.38
-3707.33
-3707.33
-3707.38
-3707.48
-3707.61
-3707.77
-3707.93
-3708.07
-3708.19
-3708.27
-3708.31
-3708.29
-3708.22
-3708.12
-3708
-3707.87
-3707.75
-3707.67
-3707.62
-3707.62
-3707.67
-3707.76
-3707.87
-3707.99
-3708.1
-3708.17
-3708.2
-3708.18
-3708.12
-3708.02
-3707.91
-3707.8
-3707.72
-3707.67
-3707.67
-3707.71
-3707.78
-3707.87
-3707.96
-3708.02
-3708.05
-3708.04
-3708
-3707.95
-3707.9
-3707.86
-4517.43
-4517.44
-4517.46
-4517.48
-4517.52
-4517.57
-4517.62
-4517.68
-4517.74
-4517.81
-4517.88
-4517.95
-4518.01
-4518.07
-4518.12
-4518.16
-4518.18
-4518.19
-4518.18
-4518.14
-4518.09
-4518.02
-4517.93
-4517.81
-4517.68
-4517.53
-4517.36
-4517.18
-4516.98
-4516.78
-4516.56
-4516.34
-4516.11
-4515.88
-4515.65
-4515.42
-4515.2
-4514.98
-4514.76
-4514.56
-4514.36
-4514.18
-4514
-4513.85
-4513.69
-4513.56
-4513.43
-4513.33
-4513.24
-4513.16
-4513.1
-4513.06
-4513.03
-4513.02
-4513.03
-4513.05
-4513.08
-4513.13
-4513.2
-4513.27
-4513.35
-4513.45
-4513.55
-4513.66
-4513.78
-4513.89
-4514.01
-4514.13
-4514.24
-4514.35
-4514.46
-4514.55
-4514.63
-4514.7
-4514.76
-4514.8
-4514.82
-4514.82
-4514.8
-4514.76
-4514.7
-4514.62
-4514.52
-4514.4
-4514.26
-4514.11
-4513.94
-4513.76
-4513.58
-4513.38
-4513.19
-4513
-4512.81
-4512.64
-4512.48
-4512.34
-4512.22
-4512.13
-4512.07
-4512.03
-4512.03
-4512.06
-4512.12
-4512.21
-4512.33
-4512.48
-4512.65
-4512.84
-4513.03
-4513.23
-4513.43
-4513.62
-4513.79
-4513.94
-4514.06
-4514.15
-4514.2
-4514.2
-4514.16
-4514.09
-4513.97
-4513.81
-4513.63
-4513.42
-4513.2
-4512.98
-4512.77
-4512.58
-4512.42
-4512.29
-4512.22
-4512.2
-4512.22
-4512.31
-4512.44
-4512.62
-4512.82
-4513.06
-4513.29
-4513.52
-4513.72
-4513.89
-4514.01
-4514.06
-4514.06
-4513.99
-4513.86
-4513.68
-4513.46
-4513.23
-4513
-4512.78
-4512.6
-4512.48
-4512.42
-4512.43
-4512.51
-4512.64
-4512.82
-4513.03
-4513.25
-4513.45
-4513.6
-4513.71
-4513.75
-4513.71
-4513.62
-4513.48
-4513.3
-4513.13
-4512.97
-4512.85
-4512.79
-4512.81
-4512.87
-4512.99
-4513.15
-4513.31
-4513.45
-4513.55
-4513.59
-4513.56
-4513.47
-4513.35
-4513.19
-4513.05
-4512.94
-4512.88
-4512.88
-4512.94
-4513.04
-4513.16
-4513.28
-4513.36
-4513.39
-4513.37
-4513.31
-4513.23
-4513.16
-4513.12
-5230.49
-5230.51
-5230.55
-5230.61
-5230.69
-5230.79
-5230.9
-5231.02
-5231.14
-5231.27
-5231.4
-5231.53
-5231.65
-5231.76
-5231.87
-5231.96
-5232.04
-5232.11
-5232.17
-5232.2
-5232.2
-5232.17
-5232.1
-5231.99
-5231.83
-5231.64
-5231.4
-5231.14
-5230.86
-5230.56
-5230.24
-5229.92
-5229.6
-5229.28
-5228.96
-5228.65
-5228.35
-5228.06
-5227.78
-5227.52
-5227.27
-5227.04
-5226.83
-5226.63
-5226.45
-5226.29
-5226.16
-5226.05
-5225.96
-5225.89
-5225.84
-5225.81
-5225.81
-5225.82
-5225.85
-5225.91
-5225.98
-5226.06
-5226.17
-5226.29
-5226.42
-5226.57
-5226.72
-5226.88
-5227.05
-5227.22
-5227.39
-5227.56
-5227.73
-5227.89
-5228.04
-5228.17
-5228.29
-5228.39
-5228.47
-5228.53
-5228.57
-5228.58
-5228.56
-5228.52
-5228.44
-5228.34
-5228.22
-5228.06
-5227.89
-5227.69
-5227.47
-5227.24
-5226.99
-5226.74
-5226.49
-5226.24
-5226.01
-5225.78
-5225.58
-5225.39
-5225.24
-5225.13
-5225.05
-5225.01
-5225.01
-5225.05
-5225.14
-5225.27
-5225.43
-5225.63
-5225.86
-5226.11
-5226.37
-5226.64
-5226.91
-5227.16
-5227.39
-5227.59
-5227.75
-5227.86
-5227.92
-5227.92
-5227.87
-5227.77
-5227.61
-5227.4
-5227.15
-5226.88
-5226.59
-5226.29
-5226.01
-5225.76
-5225.54
-5225.38
-5225.28
-5225.25
-5225.3
-5225.41
-5225.59
-5225.82
-5226.1
-5226.41
-5226.72
-5227.02
-5227.29
-5227.51
-5227.66
-5227.73
-5227.72
-5227.62
-5227.44
-5227.21
-5226.92
-5226.61
-5226.3
-5226.02
-5225.79
-5225.63
-5225.56
-5225.58
-5225.68
-5225.87
-5226.11
-5226.39
-5226.67
-5226.93
-5227.14
-5227.27
-5227.31
-5227.26
-5227.13
-5226.93
-5226.7
-5226.46
-5226.25
-5226.1
-5226.03
-5226.04
-5226.14
-5226.3
-5226.51
-5226.72
-5226.91
-5227.04
-5227.09
-5227.05
-5226.93
-5226.76
-5226.56
-5226.38
-5226.23
-5226.16
-5226.17
-5226.25
-5226.39
-5226.55
-5226.69
-5226.8
-5226.83
-5226.8
-5226.72
-5226.61
-5226.51
-5226.45
-5861.81
-5861.87
-5861.97
-5862.11
-5862.31
-5862.55
-5862.82
-5863.14
-5863.48
-5863.84
-5864.2
-5864.55
-5864.9
-5865.24
-5865.55
-5865.85
-5866.13
-5866.34
-5866.48
-5866.49
-5866.38
-5866.18
-5865.92
-5865.6
-5865.25
-5864.86
-5864.43
-5863.94
-5863.48
-5863.01
-5862.54
-5862.08
-5861.63
-5861.19
-5860.76
-5860.35
-5859.96
-5859.59
-5859.25
-5858.92
-5858.62
-5858.35
-5858.1
-5857.89
-5857.69
-5857.52
-5857.38
-5857.26
-5857.16
-5857.1
-5857.06
-5857.05
-5857.07
-5857.11
-5857.18
-5857.27
-5857.38
-5857.52
-5857.67
-5857.85
-5858.04
-5858.24
-5858.46
-5858.68
-5858.91
-5859.15
-5859.38
-5859.61
-5859.84
-5860.05
-5860.25
-5860.43
-5860.6
-5860.74
-5860.85
-5860.93
-5860.98
-5861
-5860.98
-5860.93
-5860.84
-5860.72
-5860.55
-5860.36
-5860.14
-5859.88
-5859.61
-5859.31
-5859
-5858.68
-5858.36
-5858.05
-5857.75
-5857.46
-5857.2
-5856.97
-5856.78
-5856.64
-5856.54
-5856.49
-5856.5
-5856.56
-5856.68
-5856.85
-5857.07
-5857.33
-5857.63
-5857.95
-5858.29
-5858.64
-5858.99
-5859.31
-5859.61
-5859.87
-5860.07
-5860.21
-5860.29
-5860.29
-5860.23
-5860.09
-5859.88
-5859.61
-5859.28
-5858.93
-5858.55
-5858.17
-5857.81
-5857.48
-5857.2
-5857
-5856.87
-5856.84
-5856.89
-5857.04
-5857.27
-5857.58
-5857.94
-5858.34
-5858.74
-5859.13
-5859.47
-5859.75
-5859.94
-5860.03
-5860.01
-5859.88
-5859.65
-5859.34
-5858.97
-5858.57
-5858.17
-5857.81
-5857.52
-5857.32
-5857.23
-5857.27
-5857.41
-5857.65
-5857.97
-5858.33
-5858.69
-5859.02
-5859.28
-5859.44
-5859.49
-5859.42
-5859.24
-5858.99
-5858.68
-5858.37
-5858.1
-5857.91
-5857.82
-5857.84
-5857.97
-5858.18
-5858.45
-5858.73
-5858.97
-5859.13
-5859.19
-5859.14
-5858.99
-5858.77
-5858.51
-5858.27
-5858.1
-5858.01
-5858.02
-5858.13
-5858.31
-5858.52
-5858.7
-5858.83
-5858.87
-5858.82
-5858.71
-5858.56
-5858.43
-5858.35
-6419.83
-6419.94
-6420.17
-6420.45
-6420.81
-6421.23
-6421.73
-6422.28
-6422.87
-6423.48
-6424.1
-6424.7
-6425.24
-6425.74
-6426.15
-6426.47
-6426.66
-6426.77
-6426.78
-6426.74
-6426.67
-6426.62
-6426.52
-6426.33
-6426.03
-6425.61
-6425.09
-6424.49
-6423.85
-6423.21
-6422.57
-6421.95
-6421.35
-6420.78
-6420.23
-6419.72
-6419.24
-6418.8
-6418.38
-6418.01
-6417.67
-6417.36
-6417.08
-6416.84
-6416.62
-6416.43
-6416.3
-6416.19
-6416.12
-6416.07
-6416.06
-6416.07
-6416.12
-6416.2
-6416.31
-6416.44
-6416.61
-6416.8
-6417.01
-6417.25
-6417.5
-6417.77
-6418.06
-6418.35
-6418.66
-6418.96
-6419.27
-6419.57
-6419.86
-6420.13
-6420.39
-6420.63
-6420.84
-6421.02
-6421.16
-6421.27
-6421.34
-6421.37
-6421.35
-6421.29
-6421.18
-6421.02
-6420.82
-6420.58
-6420.3
-6419.99
-6419.64
-6419.28
-6418.89
-6418.49
-6418.1
-6417.7
-6417.33
-6416.97
-6416.65
-6416.37
-6416.14
-6415.96
-6415.84
-6415.79
-6415.81
-6415.89
-6416.04
-6416.26
-6416.54
-6416.87
-6417.25
-6417.66
-6418.09
-6418.53
-6418.96
-6419.37
-6419.74
-6420.06
-6420.32
-6420.5
-6420.59
-6420.59
-6420.51
-6420.32
-6420.06
-6419.72
-6419.31
-6418.86
-6418.38
-6417.91
-6417.45
-6417.04
-6416.69
-6416.44
-6416.28
-6416.24
-6416.31
-6416.5
-6416.8
-6417.19
-6417.64
-6418.14
-6418.65
-6419.13
-6419.56
-6419.9
-6420.14
-6420.24
-6420.21
-6420.04
-6419.75
-6419.36
-6418.89
-6418.39
-6417.9
-6417.45
-6417.09
-6416.85
-6416.74
-6416.79
-6416.98
-6417.29
-6417.69
-6418.14
-6418.6
-6419.01
-6419.32
-6419.52
-6419.56
-6419.47
-6419.24
-6418.92
-6418.54
-6418.13
-6417.8
-6417.56
-6417.45
-6417.49
-6417.65
-6417.93
-6418.26
-6418.62
-6418.91
-6419.12
-6419.19
-6419.12
-6418.93
-6418.65
-6418.33
-6418.03
-6417.81
-6417.71
-6417.74
-6417.88
-6418.11
-6418.36
-6418.6
-6418.75
-6418.79
-6418.73
-6418.58
-6418.39
-6418.22
-6418.12
-6913.67
-6913.79
-6914
-6914.39
-6914.95
-6915.68
-6916.57
-6917.59
-6918.67
-6919.75
-6920.82
-6921.86
-6922.82
-6923.7
-6924.47
-6925.12
-6925.65
-6926.07
-6926.4
-6926.63
-6926.73
-6926.62
-6926.19
-6925.57
-6924.79
-6923.87
-6922.84
-6921.68
-6920.59
-6919.57
-6918.63
-6917.75
-6916.95
-6916.22
-6915.55
-6914.95
-6914.4
-6913.9
-6913.44
-6913.03
-6912.66
-6912.34
-6912.05
-6911.8
-6911.59
-6911.43
-6911.28
-6911.17
-6911.11
-6911.08
-6911.09
-6911.13
-6911.22
-6911.33
-6911.49
-6911.68
-6911.9
-6912.15
-6912.43
-6912.73
-6913.06
-6913.4
-6913.76
-6914.13
-6914.52
-6914.9
-6915.28
-6915.65
-6916.02
-6916.36
-6916.68
-6916.98
-6917.24
-6917.46
-6917.65
-6917.78
-6917.87
-6917.9
-6917.88
-6917.8
-6917.67
-6917.48
-6917.24
-6916.95
-6916.61
-6916.22
-6915.8
-6915.36
-6914.89
-6914.4
-6913.92
-6913.44
-6912.99
-6912.56
-6912.17
-6911.83
-6911.55
-6911.34
-6911.2
-6911.14
-6911.16
-6911.27
-6911.46
-6911.73
-6912.08
-6912.49
-6912.95
-6913.45
-6913.98
-6914.53
-6915.06
-6915.56
-6916.01
-6916.4
-6916.72
-6916.93
-6917.05
-6917.05
-6916.93
-6916.71
-6916.38
-6915.95
-6915.46
-6914.9
-6914.32
-6913.73
-6913.17
-6912.67
-6912.25
-6911.93
-6911.75
-6911.7
-6911.79
-6912.03
-6912.4
-6912.87
-6913.43
-6914.04
-6914.66
-6915.25
-6915.78
-6916.19
-6916.47
-6916.6
-6916.55
-6916.34
-6915.98
-6915.5
-6914.93
-6914.31
-6913.71
-6913.17
-6912.74
-6912.45
-6912.33
-6912.39
-6912.63
-6913.01
-6913.51
-6914.06
-6914.62
-6915.11
-6915.49
-6915.72
-6915.77
-6915.65
-6915.36
-6914.96
-6914.49
-6913.99
-6913.58
-6913.3
-6913.17
-6913.21
-6913.42
-6913.76
-6914.18
-6914.61
-6914.98
-6915.22
-6915.3
-6915.22
-6914.98
-6914.63
-6914.24
-6913.88
-6913.62
-6913.5
-6913.54
-6913.72
-6914
-6914.31
-6914.6
-6914.78
-6914.83
-6914.74
-6914.55
-6914.31
-6914.1
-6913.97
-7348.63
-7348.81
-7349.19
-7349.77
-7350.58
-7351.89
-7353.49
-7355.53
-7358.56
-7360.65
-7362.36
-7363.84
-7365.14
-7366.24
-7367.17
-7367.94
-7368.55
-7369.01
-7369.36
-7369.58
-7369.67
-7369.5
-7369.11
-7368.37
-7367.33
-7366
-7364.48
-7361.39
-7359.91
-7358.53
-7357.39
-7356.37
-7355.47
-7354.67
-7353.95
-7353.31
-7352.72
-7352.2
-7351.73
-7351.31
-7350.93
-7350.6
-7350.31
-7350.06
-7349.85
-7349.69
-7349.56
-7349.47
-7349.43
-7349.43
-7349.47
-7349.55
-7349.67
-7349.84
-7350.04
-7350.28
-7350.56
-7350.88
-7351.23
-7351.6
-7352
-7352.43
-7352.87
-7353.33
-7353.79
-7354.25
-7354.72
-7355.17
-7355.61
-7356.03
-7356.42
-7356.77
-7357.09
-7357.36
-7357.58
-7357.74
-7357.85
-7357.89
-7357.86
-7357.77
-7357.61
-7357.39
-7357.1
-7356.75
-7356.34
-7355.88
-7355.38
-7354.85
-7354.29
-7353.71
-7353.14
-7352.57
-7352.02
-7351.52
-7351.05
-7350.65
-7350.32
-7350.07
-7349.91
-7349.84
-7349.88
-7350.01
-7350.24
-7350.57
-7350.99
-7351.48
-7352.04
-7352.65
-7353.29
-7353.94
-7354.57
-7355.17
-7355.71
-7356.18
-7356.55
-7356.81
-7356.94
-7356.94
-7356.8
-7356.53
-7356.13
-7355.62
-7355.02
-7354.35
-7353.65
-7352.94
-7352.27
-7351.67
-7351.17
-7350.8
-7350.58
-7350.52
-7350.64
-7350.93
-7351.37
-7351.95
-7352.62
-7353.35
-7354.09
-7354.8
-7355.42
-7355.91
-7356.24
-7356.39
-7356.33
-7356.07
-7355.63
-7355.05
-7354.37
-7353.63
-7352.92
-7352.27
-7351.76
-7351.42
-7351.3
-7351.37
-7351.66
-7352.13
-7352.72
-7353.39
-7354.05
-7354.64
-7355.09
-7355.35
-7355.41
-7355.25
-7354.9
-7354.41
-7353.86
-7353.23
-7352.76
-7352.42
-7352.27
-7352.33
-7352.59
-7353
-7353.5
-7354.02
-7354.45
-7354.74
-7354.83
-7354.72
-7354.43
-7354.02
-7353.56
-7353.13
-7352.82
-7352.68
-7352.74
-7352.96
-7353.3
-7353.67
-7354.01
-7354.22
-7354.27
-7354.16
-7353.92
-7353.64
-7353.38
-7353.23
-7732.01
-7732.27
-7732.81
-7733.69
-7735
-7736.52
-7738.33
-7740.88
-7745.05
-7748.27
-7751.15
-7753.62
-7755.74
-7757.51
-7758.97
-7760.13
-7761
-7761.56
-7761.76
-7761.6
-7761.08
-7760.32
-7759.4
-7758.33
-7756.99
-7755.3
-7753.32
-7750.3
-7748.34
-7746.64
-7745.48
-7744.37
-7743.42
-7742.62
-7741.91
-7741.28
-7740.72
-7740.22
-7739.76
-7739.35
-7738.98
-7738.65
-7738.37
-7738.13
-7737.93
-7737.78
-7737.67
-7737.6
-7737.58
-7737.6
-7737.67
-7737.79
-7737.96
-7738.17
-7738.43
-7738.73
-7739.07
-7739.45
-7739.87
-7740.32
-7740.81
-7741.31
-7741.84
-7742.38
-7742.93
-7743.48
-7744.03
-7744.56
-7745.08
-7745.57
-7746.03
-7746.45
-7746.82
-7747.14
-7747.4
-7747.59
-7747.72
-7747.77
-7747.74
-7747.63
-7747.44
-7747.18
-7746.84
-7746.43
-7745.95
-7745.41
-7744.83
-7744.2
-7743.54
-7742.87
-7742.2
-7741.53
-7740.9
-7740.3
-7739.77
-7739.3
-7738.91
-7738.62
-7738.44
-7738.37
-7738.41
-7738.57
-7738.85
-7739.24
-7739.74
-7740.32
-7740.98
-7741.69
-7742.44
-7743.2
-7743.95
-7744.65
-7745.29
-7745.84
-7746.27
-7746.57
-7746.72
-7746.71
-7746.55
-7746.22
-7745.75
-7745.15
-7744.44
-7743.65
-7742.83
-7742
-7741.21
-7740.51
-7739.92
-7739.49
-7739.23
-7739.17
-7739.32
-7739.66
-7740.18
-7740.86
-7741.65
-7742.51
-7743.38
-7744.21
-7744.93
-7745.51
-7745.89
-7746.05
-7745.97
-7745.67
-7745.15
-7744.46
-7743.66
-7742.8
-7741.96
-7741.21
-7740.62
-7740.23
-7740.08
-7740.18
-7740.53
-7741.08
-7741.79
-7742.57
-7743.34
-7744.03
-7744.55
-7744.85
-7744.9
-7744.71
-7744.29
-7743.71
-7743.05
-7742.33
-7741.77
-7741.38
-7741.21
-7741.29
-7741.59
-7742.08
-7742.66
-7743.29
-7743.79
-7744.12
-7744.23
-7744.09
-7743.75
-7743.26
-7742.72
-7742.22
-7741.87
-7741.71
-7741.78
-7742.04
-7742.44
-7742.88
-7743.28
-7743.52
-7743.57
-7743.43
-7743.15
-7742.81
-7742.51
-7742.32
-8069.74
-8069.85
-8070.06
-8070.35
-8070.62
-8070.84
-8071.22
-8071.64
-8088.97
-8088.45
-8088.09
-8087.58
-8087.01
-8086.41
-8085.83
-8085.26
-8084.73
-8084.22
-8083.76
-8083.33
-8082.94
-8082.59
-8082.27
-8082
-8081.77
-8081.58
-8081.44
-8081.34
-8081.3
-8081.3
-8081.35
-8081.46
-8081.61
-8081.82
-8082.08
-8082.39
-8082.75
-8083.16
-8083.61
-8084.1
-8084.63
-8085.19
-8085.78
-8086.39
-8087.02
-8087.66
-8088.3
-8088.93
-8089.55
-8090.15
-8090.72
-8091.25
-8091.74
-8092.17
-8092.53
-8092.83
-8093.05
-8093.19
-8093.24
-8093.21
-8093.09
-8092.87
-8092.57
-8092.18
-8091.7
-8091.15
-8090.53
-8089.86
-8089.14
-8088.38
-8087.61
-8086.83
-8086.07
-8085.34
-8084.66
-8084.04
-8083.51
-8083.07
-8082.74
-8082.53
-8082.45
-8082.51
-8082.7
-8083.03
-8083.48
-8084.05
-8084.73
-8085.49
-8086.31
-8087.18
-8088.06
-8088.92
-8089.73
-8090.46
-8091.09
-8091.58
-8091.93
-8092.1
-8092.09
-8091.89
-8091.51
-8090.96
-8090.27
-8089.44
-8088.54
-8087.58
-8086.63
-8085.72
-8084.91
-8084.24
-8083.74
-8083.45
-8083.38
-8083.55
-8083.95
-8084.56
-8085.35
-8086.26
-8087.25
-8088.26
-8089.21
-8090.04
-8090.7
-8091.13
-8091.3
-8091.21
-8090.86
-8090.26
-8089.46
-8088.53
-8087.54
-8086.58
-8085.72
-8085.04
-8084.6
-8084.44
-8084.57
-8084.97
-8085.62
-8086.43
-8087.33
-8088.22
-8089
-8089.6
-8089.94
-8089.99
-8089.76
-8089.27
-8088.59
-8087.82
-8087.01
-8086.36
-8085.91
-8085.72
-8085.81
-8086.17
-8086.74
-8087.41
-8088.14
-8088.71
-8089.09
-8089.2
-8089.04
-8088.64
-8088.08
-8087.46
-8086.89
-8086.48
-8086.31
-8086.4
-8086.71
-8087.17
-8087.67
-8088.14
-8088.4
-8088.45
-8088.29
-8087.96
-8087.56
-8087.21
-8087
-8367.71
-8367.74
-8367.79
-8367.87
-8367.99
-8368.26
-8368.49
-8368.77
-8392.23
-8391.87
-8391.57
-8391.18
-8390.75
-8390.26
-8389.79
-8389.32
-8388.85
-8388.41
-8387.98
-8387.58
-8387.21
-8386.88
-8386.57
-8386.31
-8386.09
-8385.91
-8385.78
-8385.7
-8385.67
-8385.69
-8385.77
-8385.91
-8386.1
-8386.35
-8386.66
-8387.02
-8387.44
-8387.91
-8388.43
-8389
-8389.6
-8390.25
-8390.92
-8391.62
-8392.34
-8393.06
-8393.79
-8394.51
-8395.22
-8395.9
-8396.54
-8397.14
-8397.69
-8398.18
-8398.59
-8398.93
-8399.18
-8399.34
-8399.4
-8399.36
-8399.22
-8398.97
-8398.63
-8398.18
-8397.64
-8397.02
-8396.32
-8395.55
-8394.73
-8393.88
-8393
-8392.12
-8391.26
-8390.44
-8389.67
-8388.97
-8388.37
-8387.87
-8387.51
-8387.27
-8387.19
-8387.26
-8387.48
-8387.85
-8388.37
-8389.02
-8389.79
-8390.66
-8391.6
-8392.58
-8393.57
-8394.55
-8395.46
-8396.29
-8397.01
-8397.57
-8397.95
-8398.14
-8398.13
-8397.9
-8397.47
-8396.84
-8396.04
-8395.11
-8394.08
-8393
-8391.91
-8390.89
-8389.97
-8389.2
-8388.64
-8388.31
-8388.25
-8388.44
-8388.9
-8389.6
-8390.49
-8391.53
-8392.66
-8393.8
-8394.87
-8395.81
-8396.55
-8397.04
-8397.23
-8397.12
-8396.7
-8396.02
-8395.11
-8394.06
-8392.93
-8391.84
-8390.88
-8390.11
-8389.62
-8389.44
-8389.6
-8390.07
-8390.81
-8391.73
-8392.75
-8393.76
-8394.65
-8395.31
-8395.69
-8395.74
-8395.46
-8394.9
-8394.12
-8393.25
-8392.34
-8391.6
-8391.09
-8390.88
-8391
-8391.41
-8392.05
-8392.81
-8393.65
-8394.29
-8394.71
-8394.84
-8394.66
-8394.2
-8393.56
-8392.85
-8392.21
-8391.76
-8391.57
-8391.67
-8392.03
-8392.56
-8393.12
-8393.65
-8393.94
-8394
-8393.8
-8393.43
-8392.97
-8392.57
-8392.33
-8631.96
-8632
-8632.1
-8632.26
-8632.47
-8632.67
-8632.55
-8632.6
-8660.91
-8660.7
-8660.5
-8660.22
-8659.88
-8659.46
-8659.07
-8658.65
-8658.24
-8657.83
-8657.43
-8657.05
-8656.69
-8656.36
-8656.06
-8655.8
-8655.59
-8655.42
-8655.3
-8655.23
-8655.22
-8655.26
-8655.36
-8655.53
-8655.76
-8656.05
-8656.4
-8656.82
-8657.29
-8657.83
-8658.41
-8659.05
-8659.73
-8660.46
-8661.21
-8662
-8662.8
-8663.62
-8664.43
-8665.24
-8666.03
-8666.79
-8667.51
-8668.18
-8668.8
-8669.34
-8669.8
-8670.17
-8670.45
-8670.63
-8670.69
-8670.65
-8670.49
-8670.21
-8669.82
-8669.32
-8668.72
-8668.02
-8667.24
-8666.38
-8665.47
-8664.51
-8663.53
-8662.55
-8661.59
-8660.67
-8659.82
-8659.04
-8658.37
-8657.82
-8657.41
-8657.16
-8657.07
-8657.15
-8657.4
-8657.82
-8658.4
-8659.14
-8660
-8660.97
-8662.02
-8663.12
-8664.23
-8665.32
-8666.34
-8667.27
-8668.06
-8668.69
-8669.12
-8669.33
-8669.31
-8669.05
-8668.56
-8667.86
-8666.96
-8665.92
-8664.76
-8663.55
-8662.34
-8661.19
-8660.16
-8659.31
-8658.68
-8658.32
-8658.25
-8658.48
-8658.99
-8659.78
-8660.78
-8661.94
-8663.2
-8664.47
-8665.67
-8666.72
-8667.54
-8668.08
-8668.29
-8668.16
-8667.69
-8666.92
-8665.9
-8664.73
-8663.46
-8662.25
-8661.17
-8660.32
-8659.78
-8659.59
-8659.78
-8660.31
-8661.14
-8662.18
-8663.32
-8664.44
-8665.43
-8666.17
-8666.58
-8666.63
-8666.31
-8665.67
-8664.8
-8663.81
-8662.81
-8661.98
-8661.42
-8661.19
-8661.32
-8661.79
-8662.51
-8663.36
-8664.31
-8665.01
-8665.48
-8665.62
-8665.41
-8664.89
-8664.17
-8663.38
-8662.67
-8662.17
-8661.96
-8662.08
-8662.49
-8663.09
-8663.72
-8664.3
-8664.62
-8664.68
-8664.46
-8664.03
-8663.52
-8663.06
-8662.8
-8865.88
-8865.9
-8865.91
-8865.93
-8865.88
-8865.75
-8865.94
-8866.05
-8899.15
-8899.01
-8898.84
-8898.62
-8898.33
-8897.98
-8897.63
-8897.25
-8896.86
-8896.47
-8896.08
-8895.71
-8895.35
-8895.03
-8894.73
-8894.48
-8894.26
-8894.09
-8893.98
-8893.92
-8893.92
-8893.98
-8894.11
-8894.3
-8894.56
-8894.89
-8895.29
-8895.76
-8896.29
-8896.88
-8897.53
-8898.24
-8899
-8899.8
-8900.64
-8901.51
-8902.4
-8903.3
-8904.2
-8905.09
-8905.96
-8906.8
-8907.6
-8908.34
-8909.01
-8909.61
-8910.12
-8910.53
-8910.84
-8911.03
-8911.1
-8911.05
-8910.87
-8910.56
-8910.13
-8909.58
-8908.91
-8908.14
-8907.27
-8906.32
-8905.31
-8904.26
-8903.18
-8902.1
-8901.05
-8900.03
-8899.09
-8898.23
-8897.5
-8896.9
-8896.45
-8896.17
-8896.08
-8896.17
-8896.45
-8896.92
-8897.57
-8898.38
-8899.33
-8900.41
-8901.57
-8902.78
-8904.01
-8905.21
-8906.34
-8907.36
-8908.23
-8908.92
-8909.39
-8909.62
-8909.59
-8909.31
-8908.76
-8907.98
-8906.99
-8905.83
-8904.56
-8903.21
-8901.88
-8900.61
-8899.47
-8898.54
-8897.85
-8897.45
-8897.38
-8897.63
-8898.21
-8899.08
-8900.19
-8901.48
-8902.87
-8904.27
-8905.59
-8906.75
-8907.65
-8908.24
-8908.47
-8908.31
-8907.79
-8906.93
-8905.81
-8904.5
-8903.11
-8901.78
-8900.59
-8899.66
-8899.07
-8898.87
-8899.08
-8899.67
-8900.6
-8901.75
-8903.01
-8904.25
-8905.33
-8906.14
-8906.59
-8906.63
-8906.27
-8905.55
-8904.58
-8903.49
-8902.39
-8901.48
-8900.86
-8900.61
-8900.77
-8901.29
-8902.1
-8903.02
-8904.09
-8904.85
-8905.36
-8905.51
-8905.27
-8904.7
-8903.9
-8903.03
-8902.25
-8901.7
-8901.48
-8901.62
-8902.08
-8902.73
-8903.44
-8904.07
-8904.42
-8904.48
-8904.23
-8903.75
-8903.18
-8902.68
-8902.38
-9073.07
-9073.08
-9073.09
-9073.1
-9073.11
-9073.16
-9073.17
-9073.2
-9110.37
-9110.26
-9110.1
-9109.9
-9109.64
-9109.32
-9108.99
-9108.62
-9108.24
-9107.86
-9107.47
-9107.1
-9106.74
-9106.41
-9106.11
-9105.85
-9105.64
-9105.47
-9105.36
-9105.31
-9105.32
-9105.39
-9105.54
-9105.76
-9106.05
-9106.42
-9106.86
-9107.37
-9107.96
-9108.61
-9109.33
-9110.1
-9110.93
-9111.81
-9112.73
-9113.67
-9114.64
-9115.63
-9116.61
-9117.58
-9118.54
-9119.45
-9120.32
-9121.13
-9121.86
-9122.51
-9123.07
-9123.52
-9123.85
-9124.05
-9124.13
-9124.07
-9123.87
-9123.54
-9123.06
-9122.46
-9121.73
-9120.88
-9119.94
-9118.9
-9117.8
-9116.65
-9115.48
-9114.3
-9113.15
-9112.04
-9111.01
-9110.09
-9109.29
-9108.63
-9108.15
-9107.85
-9107.75
-9107.85
-9108.16
-9108.68
-9109.39
-9110.28
-9111.32
-9112.5
-9113.76
-9115.09
-9116.43
-9117.74
-9118.97
-9120.09
-9121.04
-9121.78
-9122.3
-9122.54
-9122.51
-9122.19
-9121.6
-9120.74
-9119.66
-9118.39
-9116.99
-9115.52
-9114.06
-9112.68
-9111.44
-9110.42
-9109.67
-9109.25
-9109.17
-9109.45
-9110.09
-9111.04
-9112.25
-9113.66
-9115.18
-9116.71
-9118.15
-9119.41
-9120.39
-9121.03
-9121.27
-9121.1
-9120.52
-9119.58
-9118.34
-9116.92
-9115.41
-9113.95
-9112.66
-9111.65
-9111.01
-9110.8
-9111.04
-9111.69
-9112.71
-9113.97
-9115.34
-9116.69
-9117.87
-9118.75
-9119.23
-9119.27
-9118.87
-9118.08
-9117.01
-9115.81
-9114.62
-9113.63
-9112.96
-9112.69
-9112.87
-9113.45
-9114.33
-9115.34
-9116.49
-9117.33
-9117.88
-9118.04
-9117.77
-9117.15
-9116.28
-9115.33
-9114.48
-9113.88
-9113.65
-9113.81
-9114.31
-9115.03
-9115.8
-9116.48
-9116.86
-9116.92
-9116.64
-9116.12
-9115.49
-9114.94
-9114.62
-9256.6
-9256.61
-9256.61
-9256.63
-9256.64
-9256.65
-9256.65
-9256.68
-9297.57
-9297.46
-9297.32
-9297.13
-9296.88
-9296.57
-9296.24
-9295.88
-9295.5
-9295.11
-9294.72
-9294.34
-9293.98
-9293.64
-9293.33
-9293.06
-9292.84
-9292.67
-9292.56
-9292.51
-9292.53
-9292.62
-9292.79
-9293.03
-9293.35
-9293.75
-9294.23
-9294.79
-9295.43
-9296.13
-9296.91
-9297.75
-9298.65
-9299.6
-9300.59
-9301.62
-9302.67
-9303.73
-9304.79
-9305.84
-9306.87
-9307.86
-9308.8
-9309.67
-9310.46
-9311.16
-9311.76
-9312.24
-9312.6
-9312.82
-9312.9
-9312.83
-9312.62
-9312.25
-9311.74
-9311.08
-9310.29
-9309.38
-9308.36
-9307.24
-9306.05
-9304.81
-9303.54
-9302.27
-9301.02
-9299.83
-9298.72
-9297.72
-9296.86
-9296.16
-9295.64
-9295.32
-9295.21
-9295.33
-9295.67
-9296.23
-9297
-9297.96
-9299.09
-9300.36
-9301.73
-9303.16
-9304.61
-9306.03
-9307.36
-9308.56
-9309.59
-9310.39
-9310.94
-9311.21
-9311.17
-9310.82
-9310.18
-9309.25
-9308.07
-9306.7
-9305.18
-9303.6
-9302.02
-9300.52
-9299.19
-9298.09
-9297.28
-9296.82
-9296.74
-9297.05
-9297.74
-9298.78
-9300.1
-9301.62
-9303.26
-9304.92
-9306.47
-9307.83
-9308.88
-9309.56
-9309.82
-9309.63
-9309
-9307.97
-9306.64
-9305.1
-9303.46
-9301.89
-9300.5
-9299.41
-9298.73
-9298.51
-9298.77
-9299.49
-9300.59
-9301.96
-9303.44
-9304.9
-9306.17
-9307.11
-9307.63
-9307.66
-9307.22
-9306.36
-9305.2
-9303.9
-9302.62
-9301.55
-9300.83
-9300.54
-9300.74
-9301.37
-9302.33
-9303.44
-9304.65
-9305.56
-9306.16
-9306.33
-9306.04
-9305.35
-9304.41
-9303.39
-9302.47
-9301.83
-9301.59
-9301.76
-9302.31
-9303.09
-9303.93
-9304.65
-9305.06
-9305.12
-9304.81
-9304.24
-9303.57
-9302.97
-9302.62
-9419.18
-9419.18
-9419.19
-9419.2
-9419.21
-9419.22
-9419.22
-9419.24
-9463.46
-9463.37
-9463.22
-9463.03
-9462.78
-9462.48