/*--------------------------------*- C++ -*----------------------------------*\
  =========                 |
  \\      /  F ield         | OpenFOAM: The Open Source CFD Toolbox
   \\    /   O peration     | Website:  https://openfoam.org
    \\  /    A nd           | Version:  12
     \\/     M anipulation  |
\*---------------------------------------------------------------------------*/
FoamFile
{
    format      ascii;
    class       volScalarField;
    location    "15";
    object      p_rgh;
}
// * * * * * * * * * * * * * * * * * * * * * * * * * * * * * * * * * * * * * //

dimensions      [1 -1 -2 0 0 0 0];

internalField   nonuniform List<scalar> 
3829
(
-3.81455
-3.81326
-3.81063
-3.8066
-3.80112
-3.7941
-3.78548
-3.77516
-3.76304
-3.74902
-3.73298
-3.7148
-3.69435
-3.67151
-3.64613
-3.61808
-3.58724
-3.55348
-3.51669
-3.47678
-3.43365
-3.38726
-3.33754
-3.2845
-3.22814
-3.1685
-3.10565
-3.03969
-2.97076
-2.89903
-2.82469
-2.74797
-2.66913
-2.58846
-2.50625
-2.42284
-2.33857
-2.25381
-2.16892
-2.08429
-2.00031
-1.91739
-1.83596
-1.75647
-1.67955
-1.60547
-1.53458
-1.46719
-1.40361
-1.3441
-1.28887
-1.2381
-1.19193
-1.15044
-1.11367
-1.08164
-1.05431
-1.03158
-1.01334
-0.999396
-0.989509
-0.983376
-0.980639
-0.980887
-0.983645
-0.988396
-0.994581
-1.00163
-1.00886
-1.01566
-1.02139
-1.02539
-1.02701
-1.02564
-1.02068
-1.0116
-0.997926
-0.979283
-0.955422
-0.924593
-0.88774
-0.845022
-0.796649
-0.7429
-0.684145
-0.620848
-0.553642
-0.483308
-0.410727
-0.335237
-0.261292
-0.188363
-0.11772
-0.0506379
0.0116042
0.0677649
0.116698
0.15736
0.188884
0.210609
0.222114
0.222155
0.211333
0.190209
0.159466
0.119997
0.0729964
0.0199648
-0.0373218
-0.0968876
-0.156644
-0.214272
-0.267584
-0.314414
-0.352742
-0.380803
-0.397117
-0.400547
-0.390002
-0.365566
-0.328548
-0.280386
-0.222906
-0.158403
-0.0895613
-0.0187778
0.0488467
0.110912
0.164181
0.205788
0.23344
0.245602
0.235995
0.209416
0.167216
0.111348
0.0446387
-0.0293931
-0.106525
-0.181139
-0.248892
-0.305203
-0.346105
-0.36859
-0.370925
-0.351931
-0.313478
-0.258265
-0.190252
-0.114211
-0.0367554
0.0359928
0.098165
0.144443
0.170917
0.175428
0.157328
0.119086
0.0645289
-0.000909126
-0.0766555
-0.142924
-0.199468
-0.240314
-0.261448
-0.261285
-0.24057
-0.203082
-0.15447
-0.101889
-0.0522288
-0.0145216
0.00666518
0.00808716
-0.0104399
-0.0456991
-0.0919509
-0.14185
-0.188169
-0.220324
-0.234546
-0.228077
-0.201253
-0.159394
-0.108452
-0.0575731
-0.0162543
0.00932202
0.0150581
0.000988215
-0.0289383
-0.0679953
-0.107741
-0.140167
-0.159638
-0.163943
-0.155087
-0.138407
-0.121137
-0.110217
-3.9312
-3.93031
-3.92848
-3.92565
-3.92172
-3.91659
-3.91013
-3.90217
-3.89256
-3.88109
-3.86757
-3.85179
-3.83355
-3.81264
-3.78885
-3.76196
-3.73173
-3.69793
-3.66035
-3.61882
-3.57316
-3.52327
-3.46905
-3.41048
-3.34756
-3.28037
-3.20901
-3.13365
-3.05449
-2.97176
-2.8857
-2.79661
-2.70485
-2.61082
-2.51494
-2.41768
-2.31951
-2.22092
-2.1224
-2.02442
-1.92744
-1.83184
-1.73787
-1.64864
-1.56325
-1.48201
-1.40524
-1.33322
-1.26625
-1.20456
-1.14836
-1.09783
-1.05308
-1.01419
-0.98119
-0.954065
-0.932741
-0.917076
-0.90688
-0.901893
-0.901793
-0.906176
-0.914565
-0.926413
-0.941119
-0.958023
-0.97641
-0.99553
-1.0146
-1.03281
-1.04935
-1.06339
-1.07414
-1.08081
-1.08267
-1.07904
-1.06933
-1.05304
-1.02973
-0.998853
-0.960365
-0.914378
-0.861078
-0.80077
-0.733921
-0.661148
-0.58327
-0.501274
-0.416256
-0.329332
-0.242308
-0.156483
-0.0734123
0.00534321
0.078206
0.143645
0.200248
0.246722
0.281983
0.305167
0.315638
0.312625
0.296563
0.267945
0.22753
0.176461
0.116275
0.0488576
-0.0235761
-0.0985882
-0.173793
-0.245901
-0.312493
-0.370917
-0.418788
-0.454085
-0.475413
-0.482155
-0.466096
-0.434729
-0.38853
-0.328774
-0.257573
-0.177778
-0.0927459
-0.00581577
0.0774659
0.153666
0.218724
0.269029
0.301617
0.314307
0.303782
0.272092
0.220754
0.15226
0.0703141
-0.0207024
-0.115475
-0.206858
-0.289649
-0.358197
-0.407638
-0.434395
-0.435869
-0.411793
-0.363889
-0.295429
-0.211504
-0.118069
-0.0233663
0.0651362
0.140258
0.195518
0.226182
0.2296
0.205755
0.157213
0.0889785
0.00773608
-0.0829399
-0.163797
-0.231957
-0.280218
-0.303763
-0.300608
-0.272503
-0.223852
-0.162021
-0.0959466
-0.0336124
0.0128682
0.0387436
0.0399659
0.0158689
-0.0288207
-0.0867909
-0.149043
-0.205493
-0.245209
-0.262508
-0.254065
-0.221303
-0.170116
-0.108213
-0.0467926
0.00236345
0.031987
0.0373088
0.0185577
-0.0190364
-0.0669394
-0.114774
-0.152726
-0.17389
-0.176205
-0.162318
-0.139161
-0.115957
-0.101481
-4.11657
-4.11685
-4.11738
-4.11808
-4.11884
-4.11948
-4.11977
-4.11942
-4.11812
-4.11551
-4.11125
-4.10487
-4.09587
-4.08368
-4.06778
-4.04761
-4.02265
-3.99242
-3.95646
-3.91441
-3.86592
-3.81077
-3.74879
-3.67991
-3.60416
-3.52164
-3.4326
-3.33734
-3.23627
-3.12991
-3.01886
-2.90378
-2.78536
-2.66429
-2.5413
-2.4171
-2.29243
-2.16807
-2.04479
-1.92338
-1.8047
-1.68969
-1.57943
-1.4718
-1.36902
-1.27228
-1.18212
-1.09904
-1.02342
-0.955573
-0.895758
-0.844155
-0.800879
-0.765988
-0.739466
-0.721231
-0.711126
-0.708885
-0.714134
-0.726386
-0.745082
-0.769582
-0.799173
-0.833059
-0.870378
-0.910199
-0.951529
-0.993332
-1.03452
-1.07398
-1.1106
-1.14328
-1.1709
-1.19243
-1.20689
-1.21335
-1.21105
-1.19923
-1.17749
-1.14541
-1.10275
-1.04959
-0.986134
-0.912787
-0.8302
-0.739281
-0.641168
-0.537236
-0.429034
-0.318245
-0.206963
-0.0971249
0.00914129
0.109695
0.202383
0.28512
0.355989
0.413237
0.455386
0.481263
0.489827
0.480907
0.454681
0.411662
0.352849
0.279857
0.194829
0.100354
-0.000557329
-0.104585
-0.208085
-0.307249
-0.398387
-0.477915
-0.542484
-0.589281
-0.615984
-0.620928
-0.602039
-0.561087
-0.499132
-0.418211
-0.321506
-0.21306
-0.0975501
0.0199767
0.132633
0.235398
0.322729
0.389654
0.432122
0.447269
0.433144
0.390488
0.321063
0.228306
0.117404
-0.00554976
-0.13324
-0.256019
-0.366836
-0.45804
-0.52307
-0.55705
-0.557101
-0.523078
-0.456978
-0.363503
-0.249713
-0.123589
0.00323499
0.12099
0.219988
0.291616
0.329612
0.330696
0.295397
0.227156
0.133096
0.0224541
-0.0968895
-0.204623
-0.294029
-0.355598
-0.383071
-0.374056
-0.331441
-0.261505
-0.174489
-0.0823994
0.00144669
0.0647775
0.0992819
0.100304
0.0648807
0.00219471
-0.0777719
-0.16299
-0.238768
-0.292266
-0.314937
-0.302704
-0.258306
-0.189437
-0.107097
-0.0260911
0.0374669
0.0743047
0.0784481
0.0506614
-0.00149154
-0.065997
-0.128815
-0.176827
-0.201031
-0.199149
-0.175474
-0.13993
-0.105436
-0.0842059
-4.26955
-4.27273
-4.2791
-4.28858
-4.30099
-4.31602
-4.33327
-4.35218
-4.37204
-4.39193
-4.41076
-4.42737
-4.44062
-4.4494
-4.45264
-4.44938
-4.43864
-4.41946
-4.39093
-4.35224
-4.30272
-4.24184
-4.16925
-4.08483
-3.98871
-3.88125
-3.76309
-3.63508
-3.49826
-3.35366
-3.20224
-3.04508
-2.88339
-2.71842
-2.55143
-2.3837
-2.21646
-2.05087
-1.88802
-1.72891
-1.57437
-1.42513
-1.28162
-1.14376
-1.02018
-0.907798
-0.805958
-0.714666
-0.634103
-0.564474
-0.505999
-0.458825
-0.42306
-0.398716
-0.38572
-0.383887
-0.392913
-0.412378
-0.441745
-0.480335
-0.527358
-0.581892
-0.642911
-0.709283
-0.779778
-0.853095
-0.927844
-1.00257
-1.07577
-1.1459
-1.21144
-1.27087
-1.32264
-1.36537
-1.39772
-1.41842
-1.42639
-1.42073
-1.40058
-1.36605
-1.31666
-1.25235
-1.17339
-1.0804
-0.974338
-0.856506
-0.728527
-0.592338
-0.450114
-0.304243
-0.157494
-0.0126284
0.127404
0.259636
0.381096
0.488905
0.580397
0.65316
0.705112
0.73452
0.7406
0.722962
0.68164
0.617347
0.531546
0.426556
0.305343
0.171503
0.0292521
-0.116837
-0.261552
-0.399825
-0.526503
-0.636509
-0.725255
-0.788625
-0.823364
-0.82698
-0.802331
-0.746155
-0.660288
-0.547928
-0.413671
-0.263271
-0.103301
0.0589624
0.214441
0.355908
0.475652
0.56683
0.623838
0.642702
0.622484
0.562897
0.466342
0.3378
0.184492
0.0149779
-0.160358
-0.328644
-0.479956
-0.603735
-0.691009
-0.735019
-0.732545
-0.683271
-0.59012
-0.459963
-0.302707
-0.129331
0.0438358
0.203613
0.336754
0.431563
0.479693
0.476522
0.423703
0.326293
0.194519
0.0413214
-0.120149
-0.266322
-0.385886
-0.466033
-0.498521
-0.480218
-0.415695
-0.314392
-0.190665
-0.06107
0.0546677
0.141325
0.187271
0.18916
0.13494
0.0461027
-0.0656969
-0.184082
-0.288001
-0.361097
-0.391095
-0.373014
-0.311086
-0.21634
-0.10436
0.00466748
0.0886561
0.135372
0.137243
0.0958295
0.0223102
-0.066269
-0.150548
-0.212945
-0.2409
-0.232319
-0.19391
-0.140011
-0.0888912
-0.057726
-4.33358
-4.3427
-4.36108
-4.38864
-4.42511
-4.47003
-4.52278
-4.58215
-4.64669
-4.71454
-4.78374
-4.85196
-4.91678
-4.97545
-5.02514
-5.06291
-5.08611
-5.09246
-5.08021
-5.04832
-4.99621
-4.9236
-4.83054
-4.71734
-4.58465
-4.4335
-4.26545
-4.08235
-3.88642
-3.67961
-3.4639
-3.24143
-3.0144
-2.78495
-2.55509
-2.3267
-2.10161
-1.88145
-1.66778
-1.46212
-1.26598
-1.08078
-0.908206
-0.750275
-0.599205
-0.461701
-0.338894
-0.231559
-0.140112
-0.0648162
-0.00580013
0.0368761
0.0633066
0.0736514
0.0682073
0.0474562
0.0120195
-0.0373234
-0.0996686
-0.173996
-0.259148
-0.353828
-0.456612
-0.565917
-0.68007
-0.797271
-0.915647
-1.03323
-1.14796
-1.25775
-1.36057
-1.45435
-1.53704
-1.60676
-1.66165
-1.70012
-1.72078
-1.72239
-1.70376
-1.66503
-1.60566
-1.5256
-1.4253
-1.30566
-1.16806
-1.01429
-0.846589
-0.66762
-0.480373
-0.288163
-0.0946877
0.0962385
0.280587
0.454324
0.613414
0.753947
0.872296
0.965159
1.02978
1.0641
1.06654
1.03703
0.975487
0.882928
0.761473
0.614326
0.445576
0.260145
0.063689
-0.137639
-0.336359
-0.525735
-0.698725
-0.848576
-0.96898
-1.05463
-1.10108
-1.10517
-1.06936
-0.991039
-0.872358
-0.717766
-0.533591
-0.327706
-0.109015
0.112047
0.323774
0.51597
0.678144
0.800994
0.876869
0.900386
0.871313
0.788629
0.655711
0.479673
0.270416
0.0398146
-0.198057
-0.425597
-0.629484
-0.795486
-0.91143
-0.968365
-0.961437
-0.891194
-0.761876
-0.583112
-0.368618
-0.133843
0.0998414
0.314153
0.491114
0.615199
0.675452
0.666017
0.589228
0.452943
0.271389
0.0623726
-0.154435
-0.350274
-0.508423
-0.611916
-0.650103
-0.618354
-0.52424
-0.38133
-0.209242
-0.0302226
0.127198
0.243141
0.300722
0.289639
0.22331
0.102146
-0.0511786
-0.213055
-0.35371
-0.451832
-0.490789
-0.464449
-0.378891
-0.249936
-0.0992137
0.0459393
0.156044
0.214884
0.21309
0.153037
0.0512674
-0.0688028
-0.180716
-0.261816
-0.293687
-0.275541
-0.217157
-0.138748
-0.0655613
-0.0212638
-4.01833
-4.03868
-4.07948
-4.14015
-4.21939
-4.31484
-4.42404
-4.54357
-4.67009
-4.79973
-4.92915
-5.05536
-5.17627
-5.28946
-5.39341
-5.48752
-5.57063
-5.64058
-5.69437
-5.72556
-5.72795
-5.69598
-5.62495
-5.51207
-5.3569
-5.16177
-4.93085
-4.66897
-4.38444
-4.08288
-3.77005
-3.45064
-3.12863
-2.80748
-2.49024
-2.1796
-1.87793
-1.5873
-1.30951
-1.04599
-0.798032
-0.566537
-0.352113
-0.155031
0.0253861
0.180493
0.311859
0.422278
0.512251
0.581724
0.630565
0.658717
0.66627
0.653471
0.62075
0.568688
0.498072
0.409898
0.305342
0.185764
0.0526899
-0.0921284
-0.246801
-0.40924
-0.577245
-0.748428
-0.920304
-1.0903
-1.25569
-1.41375
-1.56177
-1.69705
-1.817
-1.91906
-2.00093
-2.06039
-2.0956
-2.10484
-2.08714
-2.04239
-1.9698
-1.86941
-1.7419
-1.58858
-1.41133
-1.21256
-0.995287
-0.763056
-0.519869
-0.270173
-0.0188543
0.228991
0.468008
0.692847
0.898175
1.07882
1.23001
1.34745
1.42767
1.46787
1.46529
1.42065
1.33371
1.20592
1.04025
0.840917
0.613377
0.364201
0.100894
-0.168511
-0.43364
-0.685819
-0.915751
-1.11437
-1.2736
-1.38625
-1.44664
-1.45125
-1.40085
-1.29408
-1.13399
-0.926551
-0.680127
-0.405227
-0.113807
0.179975
0.461063
0.71567
0.92989
1.0914
1.19015
1.21892
1.17837
1.06625
0.887714
0.652453
0.373871
0.067692
-0.247074
-0.547521
-0.815663
-1.03288
-1.18344
-1.2555
-1.2421
-1.145
-0.970404
-0.731337
-0.446147
-0.13529
0.172336
0.452993
0.68307
0.842305
0.916298
0.897693
0.790199
0.605148
0.361764
0.0838148
-0.201012
-0.457293
-0.661864
-0.792852
-0.837604
-0.787178
-0.65567
-0.461021
-0.229091
0.0114593
0.220096
0.371696
0.444812
0.429146
0.334476
0.170667
-0.0346383
-0.25043
-0.436091
-0.564286
-0.613434
-0.576186
-0.460819
-0.289391
-0.0909412
0.098023
0.239557
0.312278
0.305119
0.221253
0.0844078
-0.0745535
-0.221219
-0.322514
-0.359205
-0.328538
-0.244872
-0.135672
-0.034941
0.025673
-3.38105
-3.43118
-3.53129
-3.67892
-3.87303
-4.11122
-4.39042
-4.70434
-5.04533
-5.40158
-5.76221
-6.11266
-6.46518
-6.80226
-7.11831
-7.42063
-7.69794
-7.90996
-8.04587
-8.05325
-7.94388
-7.7465
-7.48452
-7.171
-6.8155
-6.42222
-5.99852
-5.50451
-5.04318
-4.57681
-4.1102
-3.64762
-3.19365
-2.75196
-2.32552
-1.91666
-1.52719
-1.15869
-0.812449
-0.489565
-0.19105
0.0820861
0.328935
0.548499
0.739114
0.910687
1.05763
1.17713
1.26895
1.33326
1.37035
1.38057
1.36441
1.32251
1.25562
1.16471
1.05092
0.915563
0.760173
0.586489
0.39646
0.192323
-0.0235097
-0.248365
-0.479517
-0.713768
-0.948026
-1.17896
-1.40317
-1.61714
-1.81747
-2.00074
-2.16348
-2.30256
-2.41503
-2.49818
-2.54948
-2.56719
-2.54939
-2.49617
-2.4067
-2.28118
-2.12061
-1.92671
-1.70194
-1.44944
-1.17311
-0.877592
-0.568047
-0.250185
0.0695371
0.384624
0.688106
0.973101
1.23278
1.4605
1.65013
1.79625
1.89424
1.94024
1.93192
1.86912
1.75183
1.58217
1.36406
1.10299
0.806027
0.481747
0.139826
-0.210644
-0.553859
-0.879681
-1.17622
-1.43203
-1.63637
-1.78037
-1.85684
-1.86076
-1.7927
-1.65173
-1.44211
-1.17162
-0.851097
-0.494259
-0.116895
0.262849
0.625812
0.953896
1.22915
1.43581
1.56111
1.59637
1.54075
1.39273
1.15948
0.853661
0.492831
0.0973375
-0.307818
-0.694005
-1.03742
-1.31409
-1.50435
-1.59381
-1.5713
-1.4414
-1.2127
-0.902161
-0.533508
-0.132601
0.261605
0.619646
0.911057
1.11045
1.20073
1.16873
1.02372
0.780327
0.463589
0.104261
-0.260492
-0.587256
-0.845219
-1.00676
-1.05952
-0.983925
-0.807922
-0.552086
-0.249421
0.0649844
0.333432
0.526099
0.616789
0.593899
0.465576
0.25037
-0.0167486
-0.296457
-0.534796
-0.697702
-0.757866
-0.706757
-0.55556
-0.333713
-0.0790414
0.160843
0.338619
0.426412
0.409423
0.299178
0.120848
-0.083894
-0.27098
-0.396111
-0.437081
-0.390706
-0.276449
-0.130436
0.00308451
0.0830664
-1.56623
-1.67277
-1.89939
-2.18488
-2.53955
-2.96372
-3.46284
-4.01133
-4.60643
-5.21842
-5.83169
-6.43055
-6.97841
-7.46904
-7.88602
-8.19911
-8.39868
-8.5084
-8.50976
-8.47153
-8.40535
-8.35476
-8.25859
-8.0688
-7.76844
-7.34705
-6.82699
-6.22034
-5.58873
-4.94206
-4.30474
-3.68269
-3.08338
-2.5102
-1.96606
-1.45334
-0.974096
-0.529211
-0.118912
0.25713
0.599183
0.908019
1.1843
1.42903
1.6445
1.83491
1.96871
2.07385
2.14976
2.1953
2.20983
2.19314
2.14543
2.06718
1.95916
1.82242
1.65832
1.46843
1.25463
1.01904
0.764102
0.492551
0.207372
-0.0881239
-0.390514
-0.695886
-1.0004
-1.29994
-1.59019
-1.86683
-2.12561
-2.36226
-2.57256
-2.75263
-2.89878
-3.00768
-3.07638
-3.10233
-3.08353
-3.0196
-2.90994
-2.75491
-2.55586
-2.31501
-2.03545
-1.72115
-1.3771
-1.00912
-0.62373
-0.228047
0.169672
0.56133
0.938194
1.29159
1.61291
1.89392
2.127
2.30523
2.42273
2.47492
2.45979
2.3758
2.22351
2.00585
1.72764
1.39597
1.01987
0.61021
0.179605
-0.264978
-0.695777
-1.10489
-1.47699
-1.79731
-2.05264
-2.23159
-2.32538
-2.32821
-2.23931
-2.05866
-1.79193
-1.44902
-1.04373
-0.593466
-0.11749
0.360348
0.816359
1.22782
1.57223
1.82985
1.9848
2.02659
1.95282
1.76306
1.46669
1.07979
0.624777
0.127755
-0.38034
-0.863619
-1.29205
-1.63557
-1.8695
-1.9766
-1.94349
-1.77575
-1.4847
-1.09216
-0.628475
-0.12521
0.367024
0.81221
1.17223
1.4155
1.5222
1.4741
1.28574
0.975292
0.574477
0.12253
-0.332852
-0.739149
-1.0565
-1.24939
-1.29324
-1.20405
-0.978301
-0.652824
-0.270624
0.131636
0.466198
0.704183
0.813684
0.780827
0.613908
0.339625
0.0018443
-0.351035
-0.648802
-0.850185
-0.921862
-0.854011
-0.661396
-0.38182
-0.0633085
0.233877
0.452114
0.556267
0.529614
0.385917
0.159743
-0.0969248
-0.329989
-0.481651
-0.526307
-0.461079
-0.311267
-0.122885
0.0482043
0.150351
0.526627
0.414297
0.200677
-0.189353
-0.752029
-1.4783
-2.37343
-3.39171
-4.46757
-5.5469
-6.6206
-7.65471
-8.62094
-9.4974
-10.2685
-10.9207
-11.4514
-11.8703
-12.2025
-12.433
-12.5335
-12.4149
-11.9905
-11.3699
-10.594
-9.67368
-8.64107
-7.48282
-6.39177
-5.36891
-4.42429
-3.55081
-2.74949
-2.01837
-1.35294
-0.74768
-0.196805
0.30414
0.75869
1.16915
1.53766
1.86525
2.15267
2.40022
2.60638
2.76731
2.91787
3.02718
3.09573
3.12494
3.11576
3.06901
2.98545
2.86595
2.71156
2.52355
2.30347
2.05322
1.775
1.47134
1.14514
0.799706
0.438632
0.0659038
-0.314262
-0.697284
-1.07841
-1.45264
-1.81477
-2.15953
-2.48174
-2.7762
-3.03787
-3.26205
-3.44431
-3.58051
-3.66738
-3.70217
-3.6805
-3.60351
-3.47055
-3.28209
-3.0398
-2.74639
-2.40569
-2.02261
-1.60329
-1.15491
-0.685461
-0.20363
0.28032
0.756539
1.21437
1.64314
2.03236
2.37193
2.65252
2.86566
3.0045
3.06381
3.03997
2.9319
2.74052
2.46936
2.12449
1.71459
1.2507
0.746212
0.216441
-0.327593
-0.856468
-1.35782
-1.81295
-2.20418
-2.51526
-2.73247
-2.84495
-2.84563
-2.73286
-2.50772
-2.17731
-1.75384
-1.25448
-0.70045
-0.115437
0.470963
1.02981
1.53317
1.95358
2.26696
2.45405
2.50195
2.40722
2.17061
1.80382
1.32677
0.767299
0.157644
-0.463999
-1.05405
-1.57563
-1.99204
-2.27301
-2.39764
-2.35238
-2.14206
-1.78156
-1.29768
-0.72814
-0.113371
0.487217
1.02793
1.46229
1.75206
1.87434
1.80816
1.57151
1.18624
0.692205
0.137674
-0.417489
-0.91092
-1.2931
-1.52146
-1.57108
-1.44813
-1.16402
-0.761064
-0.294145
0.21272
0.616093
0.902777
1.03192
0.986523
0.776509
0.436655
0.020708
-0.413815
-0.77655
-1.01931
-1.10266
-1.01535
-0.776279
-0.432588
-0.0437531
0.316094
0.578214
0.699485
0.66107
0.479605
0.200173
-0.11348
-0.397733
-0.577664
-0.625333
-0.538372
-0.348622
-0.113026
0.0997444
0.226441
4.90878
4.72366
4.34637
3.76552
2.95691
1.6503
0.04523
-1.9902
-5.02104
-7.11634
-8.82002
-10.3076
-11.6009
-12.7057
-13.6378
-14.4073
-15.0149
-15.4744
-15.8211
-16.0446
-16.1344
-15.9607
-15.5693
-14.8306
-13.7967
-12.4595
-10.9415
-7.85734
-6.37493
-4.99454
-3.84956
-2.83592
-1.93629
-1.1344
-0.415106
0.231062
0.812784
1.33678
1.8079
2.23027
2.60689
2.93965
3.22975
3.47805
3.68485
3.85122
3.97972
4.06496
4.10915
4.1115
4.07168
3.98975
3.86611
3.70145
3.49678
3.25346
2.97327
2.65832
2.31118
1.93478
1.53251
1.10826
0.666273
0.211247
-0.251797
-0.71748
-1.18009
-1.63373
-2.07221
-2.48924
-2.87867
-3.23437
-3.55023
-3.82068
-4.04054
-4.20509
-4.31035
-4.3531
-4.32775
-4.2361
-4.07745
-3.8524
-3.56294
-3.21237
-2.80532
-2.34775
-1.847
-1.31175
-0.751583
-0.176957
0.399857
0.967036
1.51182
2.02152
2.48352
2.88573
3.21702
3.46748
3.6289
3.69504
3.6615
3.52714
3.29324
2.96417
2.54722
2.05283
1.49433
0.887673
0.25097
-0.399312
-1.03355
-1.63389
-2.17813
-2.64524
-3.01583
-3.27349
-3.40538
-3.40318
-3.26417
-2.9906
-2.59108
-2.0804
-1.47922
-0.812852
-0.110523
0.592681
1.26229
1.86445
2.36627
2.73907
2.96002
3.01382
2.89546
2.60763
2.16434
1.5898
0.917436
0.186061
-0.55751
-1.26213
-1.88328
-2.37713
-2.70786
-2.85089
-2.79071
-2.5337
-2.09755
-1.51515
-0.83178
-0.0957961
0.620386
1.26299
1.77631
2.11385
2.24033
2.16472
1.87593
1.4092
0.814125
0.149424
-0.51296
-1.09951
-1.55058
-1.81616
-1.86864
-1.70983
-1.36106
-0.873558
-0.3215
0.309023
0.77946
1.11796
1.26737
1.20723
0.950153
0.539398
0.0396911
-0.4843
-0.915823
-1.20201
-1.29696
-1.18776
-0.897993
-0.484908
-0.0206588
0.406082
0.714618
0.85334
0.801023
0.578316
0.241243
-0.132972
-0.473425
-0.682323
-0.732254
-0.621091
-0.387777
-0.101019
0.156766
0.30991
10.7174
10.4583
9.91888
9.0356
7.72295
6.20271
4.39527
1.84036
-2.32939
-5.5507
-8.42356
-10.9001
-13.0133
-14.7887
-16.2477
-17.4048
-18.2717
-18.8312
-19.0337
-18.8787
-18.3578
-17.5931
-16.6766
-15.6089
-14.2634
-12.572
-10.5924
-7.5771
-5.61695
-3.91437
-2.76063
-1.64922
-0.698001
0.10672
0.813917
1.43998
2.00228
2.50891
2.96653
3.37838
3.74658
4.07203
4.35516
4.59546
4.79273
4.94654
5.05662
5.1254
5.14762
5.12293
5.05112
4.93221
4.76647
4.55453
4.29737
3.99642
3.65361
3.27132
2.85243
2.40032
1.91886
1.41257
0.886349
0.345652
-0.203674
-0.755366
-1.30279
-1.83903
-2.35687
-2.84896
-3.30816
-3.72726
-4.09917
-4.41738
-4.67579
-4.86881
-4.99207
-5.04311
-5.01235
-4.90482
-4.71871
-4.45462
-4.11498
-3.70373
-3.2264
-2.69001
-2.10324
-1.47631
-0.820552
-0.148181
0.526349
1.18916
1.82529
2.41986
2.95812
3.42592
3.81028
4.09959
4.28426
4.35687
4.31287
4.1505
3.8715
3.48108
2.98799
2.40447
1.74625
1.03205
0.283009
-0.478951
-1.22374
-1.92792
-2.56564
-3.11213
-3.54486
-3.84453
-3.99621
-3.99029
-3.82327
-3.49824
-3.02548
-2.42254
-1.71351
-0.928736
-0.102877
0.723401
1.50945
2.21531
2.80242
3.23723
3.49302
3.55231
3.40838
3.06583
2.54135
1.86364
1.07224
0.212507
-0.659266
-1.4841
-2.20943
-2.78397
-3.16577
-3.32693
-3.25034
-2.94345
-2.42681
-1.74028
-0.937317
-0.0730032
0.764054
1.51315
2.10885
2.49725
2.64195
2.54015
2.1936
1.64005
0.938268
0.157336
-0.617473
-1.30134
-1.82396
-2.12744
-2.18057
-1.98367
-1.5654
-0.986021
-0.326281
0.393009
0.951292
1.34552
1.51559
1.43886
1.13142
0.64585
0.0592062
-0.562119
-1.06395
-1.39473
-1.50105
-1.36806
-1.02427
-0.537805
0.00556825
0.502192
0.858786
1.01493
0.946968
0.680163
0.282092
-0.154655
-0.555977
-0.793496
-0.844982
-0.707656
-0.428001
-0.0871301
0.218116
0.399126
17.75
17.6411
17.4319
17.1453
16.8693
16.6515
16.2679
15.8501
-1.47421
-0.960741
-0.599625
-0.0860036
0.482747
1.08148
1.65846
2.23401
2.76631
3.26793
3.73303
4.16182
4.55291
4.90576
5.21924
5.49198
5.72253
5.90952
6.05155
6.14737
6.19425
6.19205
6.13923
6.03486
5.87849
5.67011
5.4102
5.09971
4.74014
4.33358
3.88266
3.39061
2.86126
2.29898
1.70892
1.09667
0.468456
-0.16902
-0.808593
-1.44265
-2.06325
-2.66212
-3.23082
-3.76114
-4.24482
-4.6737
-5.04029
-5.33751
-5.55874
-5.69803
-5.74897
-5.71975
-5.59697
-5.3823
-5.07745
-4.68552
-4.21119
-3.66092
-3.04288
-2.36708
-1.64538
-0.890884
-0.117627
0.657693
1.41906
2.14926
2.83115
3.44781
3.98298
4.42175
4.75075
4.95897
5.038
4.9826
4.79089
4.46504
4.01105
3.43907
2.76343
2.00228
1.17719
0.312654
-0.565069
-1.42348
-2.23444
-2.96823
-3.59623
-4.09259
-4.43519
-4.60683
-4.59647
-4.40009
-4.02149
-3.4727
-2.77396
-1.95341
-1.04647
-0.0924029
0.86085
1.76681
2.57938
3.25408
3.75236
4.04344
4.1076
3.93675
3.53698
2.92801
2.14329
1.22875
0.236776
-0.767238
-1.7158
-2.54817
-3.20528
-3.63853
-3.81113
-3.72301
-3.36401
-2.76363
-1.96888
-1.04309
-0.0454805
0.915363
1.7737
2.45368
2.89387
3.05451
2.9263
2.51885
1.87477
1.06223
0.161674
-0.728933
-1.51258
-2.1081
-2.4495
-2.50162
-2.26467
-1.77362
-1.09811
-0.328492
0.482759
1.12987
1.58141
1.77205
1.67726
1.31699
0.753869
0.0792393
-0.646067
-1.21802
-1.59386
-1.71125
-1.55302
-1.15291
-0.590365
0.034382
0.602647
1.00808
1.18133
1.09637
0.783376
0.321892
-0.177654
-0.644142
-0.9089
-0.961402
-0.79651
-0.468618
-0.0716899
0.282574
0.492336
25.2025
25.1731
25.1227
25.0485
24.9285
24.6544
24.4224
24.1501
0.685377
1.049
1.34796
1.73522
2.16924
2.65859
3.12465
3.60042
4.06121
4.50706
4.93157
5.33134
5.70204
6.04016
6.3424
6.60584
6.82758
7.00482
7.13496
7.21565
7.24529
7.22116
7.14176
7.00591
6.8129
6.56252
6.25511
5.89164
5.47364
5.0034
4.48384
3.91853
3.31173
2.66838
1.99423
1.29559
0.579452
-0.146603
-0.874496
-1.59562
-2.30101
-2.98129
-3.62693
-4.22863
-4.77705
-5.263
-5.67799
-6.01409
-6.26392
-6.42125
-6.48099
-6.44301
-6.30177
-6.05693
-5.71003
-5.26457
-4.72587
-4.1013
-3.40017
-2.63392
-1.81597
-0.961225
-0.085693
0.791758
1.65293
2.4783
3.24852
3.94441
4.54756
5.04113
5.41003
5.64181
5.72686
5.65959
5.43778
5.064
4.54534
3.89324
3.12407
2.2585
1.32106
0.339481
-0.655824
-1.62906
-2.54792
-3.37878
-4.0891
-4.64961
-5.03532
-5.22678
-5.21146
-4.9849
-4.55156
-3.92517
-3.12882
-2.19496
-1.16403
-0.0795946
1.00241
2.02984
2.95039
3.71357
4.27568
4.60201
4.67036
4.47172
4.01323
3.31794
2.42417
1.38443
0.258617
-0.879409
-1.95319
-2.89366
-3.63395
-4.1196
-4.31203
-4.20219
-3.78859
-3.10255
-2.19728
-1.14594
-0.0155152
1.07129
2.03998
2.80471
3.29644
3.47128
3.31632
2.84626
2.10963
1.18433
0.162563
-0.845148
-1.72938
-2.39796
-2.77676
-2.82662
-2.54821
-1.98244
-1.2088
-0.329542
0.577647
1.31266
1.82169
2.03242
1.91841
1.50368
0.861464
0.10123
-0.736302
-1.37506
-1.79594
-1.924
-1.7396
-1.28189
-0.641803
0.0651412
0.705645
1.15993
1.34977
1.24682
0.886357
0.359896
-0.203578
-0.734117
-1.02625
-1.0795
-0.886193
-0.509023
-0.0550671
0.348929
0.587802
31.5219
31.4791
31.3834
31.2217
31.0076
30.8089
30.9278
30.8785
2.57406
2.78511
2.98451
3.26531
3.59615
4.02147
4.41077
4.82716
5.24289
5.65459
6.05392
6.43534
6.79313
7.12224
7.41791
7.6758
7.89182
8.06219
8.18336
8.25216
8.26576
8.22153
8.11737
7.95172
7.72358
7.43256
7.07891
6.6636
6.18826
5.65538
5.06816
4.43054
3.74723
3.02371
2.26637
1.48221
0.679024
-0.134768
-0.950161
-1.75756
-2.54696
-3.30788
-4.02971
-4.70205
-5.31451
-5.85682
-6.31958
-6.69397
-6.97191
-7.14662
-7.21278
-7.16741
-7.00721
-6.73164
-6.34226
-5.84293
-5.23961
-4.54058
-3.75627
-2.89953
-1.98536
-1.03045
-0.0529254
0.926476
1.88715
2.80736
3.66552
4.44025
5.111
5.659
6.06743
6.32247
6.41342
6.33374
6.08146
5.65951
5.07604
4.3438
3.48116
2.51128
1.46171
0.363483
-0.749208
-1.83686
-2.86318
-3.79064
-4.58287
-5.20712
-5.63551
-5.84641
-5.82578
-5.5687
-5.0803
-4.37599
-3.48192
-2.43459
-1.27947
-0.0650461
1.14554
2.29422
3.32242
4.17363
4.79902
5.16013
5.23196
5.00508
4.48745
3.70538
2.7022
1.53709
0.277916
-0.99381
-2.19238
-3.24036
-4.06322
-4.60068
-4.81111
-4.67988
-4.21089
-3.43856
-2.4224
-1.24448
0.0160198
1.22915
2.30764
3.1563
3.69861
3.88632
3.70423
3.17096
2.34133
1.30312
0.160308
-0.963964
-1.94808
-2.68887
-3.10408
-3.15069
-2.8301
-2.18905
-1.31692
-0.329139
0.675466
1.49686
2.0626
2.29266
2.15866
1.68867
0.966618
0.125306
-0.831546
-1.53206
-1.99775
-2.13607
-1.92503
-1.40936
-0.691516
0.0972305
0.809467
1.31194
1.51767
1.39613
0.987719
0.395628
-0.237352
-0.818873
-1.14353
-1.19742
-0.975496
-0.548691
-0.037639
0.416014
0.683919
37.2812
37.2684
37.2492
37.2386
37.2826
37.4102
37.2187
37.1166
4.01123
4.15097
4.32012
4.54664
4.83546
5.17898
5.5351
5.9167
6.30607
6.69842
7.08451
7.45749
7.81048
8.13716
8.43165
8.68856
8.9028
9.06969
9.18489
9.24443
9.24477
9.18281
9.05607
8.86264
8.6013
8.27149
7.8734
7.40802
6.87711
6.28336
5.63028
4.92219
4.16425
3.36245
2.52385
1.65612
0.767821
-0.13178
-1.03277
-1.92458
-2.79617
-3.63599
-4.43233
-5.17373
-5.84873
-6.44603
-6.95532
-7.36692
-7.672
-7.86323
-7.93469
-7.88215
-7.70301
-7.39681
-6.96524
-6.41253
-5.7453
-4.97273
-4.1063
-3.16032
-2.15134
-1.09788
-0.0195688
1.06
2.11849
3.13191
4.07648
4.92861
5.6657
6.26704
6.71413
6.99184
7.08842
6.9961
6.71347
6.24385
5.59625
4.78499
3.83022
2.75758
1.59765
0.384693
-0.84349
-2.04364
-3.17558
-4.19788
-5.07056
-5.75732
-6.22747
-6.45721
-6.43105
-6.14358
-5.60056
-4.81923
-3.82864
-2.66929
-1.39142
-0.0491965
1.28801
2.55613
3.6902
4.62781
5.31516
5.71014
5.78485
5.52968
4.95336
4.08534
2.97401
1.68499
0.294622
-1.10864
-2.42987
-3.58333
-4.48705
-5.07488
-5.30189
-5.14947
-4.62534
-3.76738
-2.64173
-1.33901
0.0495369
1.38659
2.57279
3.50349
4.09481
4.29429
4.08491
3.48885
2.5671
1.4172
0.155456
-1.08335
-2.16539
-2.97665
-3.42692
-3.46953
-3.10668
-2.3909
-1.42134
-0.327177
0.774103
1.67978
2.30079
2.54922
2.39482
1.86962
1.06753
0.14265
-0.921738
-1.68626
-2.19653
-2.34464
-2.10691
-1.5338
-0.739102
0.130128
0.912557
1.46199
1.68278
1.5424
1.08632
0.429092
-0.272729
-0.90262
-1.25926
-1.31358
-1.06308
-0.587167
-0.0198038
0.482793
0.779247
42.417
42.4113
42.4023
42.3896
42.3768
42.3345
42.3205
42.2946
5.12012
5.22738
5.39608
5.59226
5.85307
6.16731
6.50518
6.8713
7.25005
7.63601
8.01956
8.39301
8.74857
9.07895
9.37738
9.6376
9.8538
10.0205
10.1326
10.1856
10.1752
10.0979
9.95077
9.73172
9.43931
9.07285
8.63247
8.11922
7.53499
6.88272
6.16621
5.39018
4.56022
3.68286
2.76574
1.81724
0.846662
-0.135927
-1.11972
-2.0932
-3.04433
-3.9605
-4.82891
-5.63707
-6.37247
-7.02285
-7.57696
-8.02432
-8.35535
-8.56216
-8.63837
-8.57853
-8.38067
-8.04439
-7.57154
-6.96665
-6.23703
-5.39272
-4.44624
-3.41327
-2.312
-1.16268
0.0137782
1.19066
2.34417
3.44813
4.47657
5.40382
6.20524
6.85827
7.34275
7.64223
7.7443
7.63922
7.32672
6.81053
6.1004
5.21206
4.16762
2.99498
1.72766
0.403278
-0.937182
-2.24662
-3.48112
-4.59549
-5.54625
-6.29359
-6.80415
-7.05201
-7.02022
-6.70285
-6.1064
-5.24991
-4.16517
-2.89653
-1.49883
-0.0325429
1.42794
2.81227
4.04923
5.07067
5.81798
6.24562
6.32269
6.0395
5.40566
4.45369
3.23675
1.82689
0.308709
-1.22226
-2.6626
-3.91839
-4.90035
-5.53658
-5.77899
-5.60562
-5.02729
-4.08556
-2.85312
-1.42908
0.0845388
1.5415
2.8321
3.84211
4.48039
4.69064
4.45413
3.79652
2.7847
1.52559
0.148544
-1.20151
-2.37847
-3.25776
-3.74146
-3.77951
-3.37492
-2.58598
-1.52122
-0.323571
0.871771
1.85903
2.53334
2.79909
2.62421
2.04461
1.16313
0.149469
-1.00185
-1.83569
-2.38998
-2.54734
-2.28326
-1.65397
-0.784189
0.163259
1.01356
1.60827
1.84324
1.68408
1.18126
0.460264
-0.308348
-0.984913
-1.37216
-1.4266
-1.14792
-0.624105
-0.00186332
0.548343
0.872548
46.9783
46.9746
46.9684
46.9575
46.9473
46.9307
46.9294
46.905
6.01313
6.1208
6.26672
6.45682
6.70629
7.00915
7.34128
7.70416
8.0833
8.47258
8.86203
9.24317
9.60734
9.94647
10.253
10.5202
10.7415
10.9109
11.0225
11.0713
11.0526
10.962
10.7967
10.5541
10.2328
9.832
9.35173
8.7931
8.15814
7.45009
6.67308
5.83218
4.93341
3.98378
2.99154
1.96576
0.916416
-0.145639
-1.20874
-2.26047
-3.28782
-4.27714
-5.2146
-6.08667
-6.87984
-7.58094
-8.17784
-8.65922
-9.01481
-9.23624
-9.317
-9.2495
-9.0334
-8.66798
-8.15515
-7.49984
-6.71001
-5.7965
-4.77284
-3.65602
-2.46582
-1.22419
0.0466001
1.3171
2.56196
3.75291
4.86192
5.8613
6.72447
7.42705
7.94731
8.26747
8.375
8.25705
7.91555
7.35439
6.58397
5.6213
4.49048
3.22157
1.85089
0.419383
-1.02904
-2.44354
-3.77655
-4.97938
-6.00513
-6.81063
-7.35985
-7.62502
-7.5876
-7.24117
-6.59303
-5.66401
-4.48843
-3.11419
-1.60099
-0.0154886
1.56379
3.05996
4.39585
5.49779
6.3025
6.76132
6.84029
6.52973
5.84016
4.80706
3.48821
1.96169
0.32041
-1.33322
-2.88808
-4.24208
-5.29896
-5.98126
-6.23805
-6.04398
-5.41307
-4.39042
-3.05477
-1.51399
0.120071
1.69204
3.08282
4.16874
4.85161
5.07168
4.80856
4.09123
2.99242
1.62797
0.139749
-1.31692
-2.58496
-3.52929
-4.04458
-4.07769
-3.63239
-2.77265
-1.61589
-0.31845
0.967004
2.03268
2.75788
3.03981
2.8447
2.21219
1.25307
0.146554
-1.07155
-1.97913
-2.57628
-2.74227
-2.45247
-1.76886
-0.826568
0.196143
1.11134
1.74934
1.99753
1.81991
1.2718
0.489199
-0.343608
-1.06488
-1.48112
-1.53542
-1.22934
-0.659238
0.0158687
0.611929
0.962809
51.0249
51.0221