/*--------------------------------*- C++ -*----------------------------------*\
  =========                 |
  \\      /  F ield         | OpenFOAM: The Open Source CFD Toolbox
   \\    /   O peration     | Website:  https://openfoam.org
    \\  /    A nd           | Version:  12
     \\/     M anipulation  |
\*---------------------------------------------------------------------------*/
FoamFile
{
    format      ascii;
    class       surfaceScalarField;
    location    "15";
    object      phi;
}
// * * * * * * * * * * * * * * * * * * * * * * * * * * * * * * * * * * * * * //

dimensions      [1 0 -1 0 0 0 0];

internalField   nonuniform List<scalar> 
7429
(
0.000153212
-0.000153212
0.000311106
-0.000157893
0.000471068
-0.000159962
0.000633085
-0.000162016
0.00079722
-0.000164135
0.000963466
-0.000166246
0.00113179
-0.000168321
0.00130213
-0.000170341
0.00147444
-0.000172309
0.00164865
-0.000174207
0.00182467
-0.000176025
0.00200241
-0.000177735
0.00218185
-0.00017944
0.00236285
-0.000181002
0.0025454
-0.000182548
0.00272938
-0.00018398
0.00291474
-0.000185358
0.00310137
-0.000186636
0.0032892
-0.000187825
0.00347806
-0.000188863
0.00366781
-0.000189751
0.00385821
-0.000190396
0.004049
-0.000190788
0.0042398
-0.000190798
0.00443019
-0.000190389
0.00461961
-0.000189423
0.00480746
-0.000187844
0.00499299
-0.00018553
0.00517537
-0.000182389
0.00535373
-0.000178351
0.00552705
-0.000173328
0.00569431
-0.000167252
0.00585434
-0.000160032
0.00600602
-0.000151686
0.00614815
-0.000142121
0.00627948
-0.00013133
0.00639881
-0.00011933
0.00650557
-0.000106764
0.00659863
-9.30613e-05
0.00667673
-7.80989e-05
0.00673807
-6.13391e-05
0.00678176
-4.36863e-05
0.00680562
-2.38658e-05
0.00680772
-2.10227e-06
0.00678567
2.20499e-05
0.0067385
4.71702e-05
0.00666506
7.34402e-05
0.00656435
0.000100709
0.00643564
0.000128718
0.00627834
0.0001573
0.00609221
0.00018613
0.00587717
0.000215034
0.00563365
0.000243524
0.00536202
0.000271626
0.00506344
0.000298577
0.00473858
0.000324865
0.00438928
0.000349299
0.00401659
0.000372684
0.00362308
0.000393516
0.00321036
0.000412719
0.00278156
0.000428794
0.00233939
0.000442178
0.00188752
0.000451866
0.0014295
0.00045802
0.00096953
0.00045997
0.000511964
0.000457566
6.13602e-05
0.000450604
-0.000377303
0.000438663
-0.000798984
0.00042168
-0.00119865
0.000399664
-0.00157139
0.000372738
-0.00191204
0.000340654
-0.00221574
0.000303703
-0.00247807
0.000262325
-0.00269497
0.000216905
-0.00286238
0.000167404
-0.00297767
0.000115287
-0.00303822
6.05571e-05
-0.00304167
3.44884e-06
-0.0029797
-6.1972e-05
-0.00285728
-0.000122419
-0.0026766
-0.000180677
-0.00244076
-0.000235841
-0.00215273
-0.000288036
-0.00181681
-0.000335921
-0.00143747
-0.000379341
-0.00102159
-0.000415879
-0.000575963
-0.000445623
-0.000109134
-0.00046683
0.000369689
-0.000478822
0.00085079
-0.000481102
0.00132381
-0.000473018
0.00177805
-0.000454241
0.00220292
-0.000424869
0.00258778
-0.000384862
0.00292272
-0.000334936
0.00319855
-0.000275837
0.00340721
-0.000208656
0.00354221
-0.000135005
0.00359893
-5.67116e-05
0.00356594
3.29904e-05
0.00344528
0.000120658
0.00324136
0.00020392
0.00295924
0.00028212
0.00260515
0.000354092
0.00218749
0.000417657
0.00171705
0.00047044
0.00120681
0.000510241
0.000672079
0.000534728
0.000129387
0.000542692
-0.000402964
0.000532351
-0.000907656
0.000504692
-0.00136664
0.000458979
-0.00176325
0.000396612
-0.00208203
0.000318785
-0.0023106
0.000228566
-0.00243936
0.000128765
-0.00246361
2.42468e-05
-0.00236887
-9.47433e-05
-0.00216738
-0.000201484
-0.00186889
-0.000298491
-0.00148565
-0.000383248
-0.00103394
-0.000451709
-0.000534068
-0.000499868
-9.60025e-06
-0.000524468
0.000512704
-0.000522304
0.00100605
-0.000493343
0.00144373
-0.000437685
0.00180119
-0.000357458
0.00205725
-0.000256055
0.0021954
-0.000138159
0.00220664
-1.12364e-05
0.00207331
0.000133335
0.00181204
0.000261262
0.00143735
0.000374694
0.000969192
0.000468157
0.000433938
0.000535254
-0.000134579
0.000568517
-0.000699998
0.000565419
-0.00122393
0.000523929
-0.00166973
0.000445806
-0.0020042
0.00033447
-0.0022017
0.000197501
-0.00224556
4.38598e-05
-0.00211469
-0.000130878
-0.00182544
-0.000289244
-0.00139891
-0.000426529
-0.000863659
-0.000535253
-0.000258822
-0.000604837
0.000369258
-0.00062808
0.000968221
-0.000598963
0.00148863
-0.000520405
0.00188473
-0.0003961
0.00212207
-0.000237342
0.00217801
-5.59468e-05
0.00203282
0.000145192
0.00170797
0.000324851
0.00123297
0.000474998
0.000649029
0.000583944
1.10377e-05
0.000637991
-0.00061813
0.000629168
-0.001178
0.000559869
-0.00161333
0.000435335
-0.00188246
0.000269131
-0.00196238
7.99158e-05
-0.00183921
-0.000123167
-0.00154144
-0.000297773
-0.00110813
-0.00043331
-0.00059353
-0.0005146
-6.16846e-05
-0.000531845
0.000417622
-0.000479307
0.000789102
-0.000371479
0.00101044
-0.000221343
0.00106272
-5.22744e-05
0.000941731
0.000120988
0.000684531
0.0002572
0.000338479
0.000346052
-3.48173e-05
0.000373296
-0.000368462
0.000333645
-0.000606338
0.000237876
-0.000709272
0.000102934
-0.000654169
-5.51037e-05
-0.000456558
-0.00019761
-0.000151665
-0.000304894
0.000209252
-0.000360917
0.000563438
-0.000354186
0.000853533
-0.000290095
0.00103588
-0.000182342
0.00108784
-5.19628e-05
0.00100519
8.26442e-05
0.000817052
0.000188142
0.000562281
0.00025477
0.000288235
0.000274046
4.00848e-05
0.00024815
-0.000148624
0.000188709
-0.000257469
0.000108845
-0.000282914
2.5445e-05
-0.000234724
-4.81909e-05
-0.000132143
-0.000102581
-0.000132143
0.000208707
-0.000361918
0.0004279
-0.000377086
0.000649438
-0.000381499
0.000873034
-0.000385612
0.00109848
-0.000389584
0.00132569
-0.000393454
0.00155448
-0.000397102
0.00178473
-0.000400598
0.00201634
-0.000403909
0.00224917
-0.000407042
0.00248311
-0.000409961
0.00271824
-0.00041287
0.00295476
-0.000415956
0.00319216
-0.000418407
0.00342958
-0.000419962
0.00366625
-0.000420648
0.00390154
-0.000420655
0.00413504
-0.000420134
0.00436632
-0.000419099
0.00459508
-0.000417623
0.00482098
-0.000415653
0.00504372
-0.000413131
0.00526285
-0.000409924
0.00547788
-0.000405827
0.00568807
-0.000400572
0.00589273
-0.000394092
0.00609074
-0.000385846
0.00628119
-0.00037598
0.00646273
-0.000363931
0.00663479
-0.000350409
0.00679726
-0.000335804
0.00695014
-0.000320125
0.00709306
-0.000302959
0.00722556
-0.000284181
0.00734701
-0.000263572
0.00745661
-0.000240931
0.00755327
-0.000215988
0.00763531
-0.0001888
0.00770148
-0.000159233
0.00775072
-0.000127341
0.0077826
-9.32155e-05
0.00779593
-5.70181e-05
0.00779183
-1.97641e-05
0.00775377
3.59517e-05
0.00768727
8.8554e-05
0.00759252
0.00014192
0.00746944
0.000196513
0.00731791
0.000252248
0.00713772
0.000308907
0.00692879
0.000366225
0.00669119
0.000423736
0.00642501
0.000481211
0.00613078
0.000537748
0.00580886
0.000593554
0.00546024
0.000647187
0.00508572
0.000699385
0.00468701
0.000748011
0.00426564
0.00079406
0.00382347
0.00083568
0.00336267
0.000873526
0.00288617
0.000905287
0.00239715
0.000931199
0.00189898
0.000950039
0.00139602
0.000960976
0.000892259
0.000963732
0.00039247
0.000957354
-9.83338e-05
0.000941408
-0.000574977
0.000915306
-0.00103206
0.000878765
-0.00146409
0.000831694
-0.00186595
0.0007746
-0.00223185
0.000706554
-0.00255703
0.000628875
-0.00283663
0.000541931
-0.00306603
0.0004463
-0.00324107
0.000342445
-0.00335895
0.000233168
-0.00341644
0.000118046
-0.003408
-4.98544e-06
-0.00333421
-0.000135769
-0.00319633
-0.0002603
-0.00299591
-0.000381097
-0.00273504
-0.00049671
-0.00241739
-0.000605678
-0.0020473
-0.000706021
-0.00163055
-0.000796088
-0.00117408
-0.000872342
-0.000686384
-0.000933324
-0.000176044
-0.000977169
0.000346963
-0.00100183
0.000871699
-0.00100584
0.00138676
-0.000988078
0.00188046
-0.000947941
0.00234126
-0.00088567
0.00275768
-0.000801281
0.00311897
-0.000696232
0.00341513
-0.000571993
0.00363732
-0.000430846
0.0037784
-0.000276082
0.00383291
-0.00011122
0.00379106
7.4835e-05
0.00365616
0.000255563
0.00343158
0.0004285
0.00312146
0.000592234
0.00273269
0.000742866
0.00227465
0.000875696
0.00175978
0.000985313
0.00120268
0.00106734
0.000620258
0.00111715
3.02114e-05
0.00113274
-0.000548189
0.00111075
-0.00109462
0.00105112
-0.00158964
0.000954
-0.00201475
0.000821724
-0.00235379
0.000657825
-0.00259284
0.000467621
-0.00272227
0.000258188
-0.0027356
3.75829e-05
-0.0026212
-0.000209147
-0.00239155
-0.000431136
-0.00205566
-0.00063438
-0.0016266
-0.000812306
-0.00112309
-0.000955224
-0.000567573
-0.00105538
1.26588e-05
-0.0011047
0.0005896
-0.00109924
0.00113328
-0.00103702
0.0016146
-0.000919006
0.00200604
-0.000748904
0.00228552
-0.000535534
0.00243406
-0.0002867
0.00243777
-1.49463e-05
0.00229057
0.000280537
0.00200359
0.000548244
0.00159101
0.000787271
0.00107513
0.000984042
0.000487066
0.00112332
-0.00013796
0.00119354
-0.000758454
0.00118591
-0.0013324
0.00109788
-0.00181927
0.000932671
-0.00218384
0.000699041
-0.00239755
0.000411212
-0.00244033
8.66394e-05
-0.00229759
-0.000273615
-0.00198397
-0.000602864
-0.00151993
-0.000890574
-0.000937373
-0.00111781
-0.000279265
-0.00126295
0.000401524
-0.00130887
0.00105009
-0.00124753
0.00161111
-0.00108142
0.00203655
-0.000821538
0.00228663
-0.000487426
0.00233931
-0.000108621
0.00217843
0.000306068
0.00182523
0.000678047
0.00130958
0.000990653
0.000679418
0.00121411
-7.08599e-06
0.0013245
-0.000680357
0.00130244
-0.00127458
0.00115409
-0.00173092
0.000891675
-0.00200499
0.000543194
-0.00207177
0.0001467
-0.00192419
-0.000270746
-0.0015901
-0.000631867
-0.00111269
-0.00091072
-0.000553036
-0.00107425
1.84877e-05
-0.00110337
0.000529497
-0.000990316
0.000917371
-0.000759353
0.00113837
-0.000442342
0.00117267
-8.65703e-05
0.0010228
0.000270856
0.000726277
0.00055372
0.000337343
0.000734986
-7.63326e-05
0.000786972
-0.000442228
0.00069954
-0.00069976
0.000495408
-0.000806984
0.000210159
-0.000743897
-0.000118191
-0.000528148
-0.000413359
-0.000198159
-0.000634882
0.000188986
-0.000748063
0.000564176
-0.000729376
0.000866489
-0.000592407
0.00105024
-0.000366089
0.00109314
-9.48711e-05
0.000996236
0.000179552
0.000790194
0.000394184
0.000519263
0.000525701
0.000234353
0.000558956
-1.75229e-05
0.000500026
-0.000201796
0.000372983
-0.000301075
0.000208124
-0.000314536
3.89055e-05
-0.000254465
-0.000108262
-0.000141381
-0.000215665
-0.000273523
0.000112392
-0.00047431
0.000227174
-0.000491866
0.000341379
-0.000495704
0.000454216
-0.000498448
0.000564707
-0.000500074
0.000672498
-0.000501244
0.000776906
-0.00050151
0.000879031
-0.000502722
0.000979613
-0.00050449
0.00107966
-0.000507088
0.00117723
-0.000507531
0.00127189
-0.000507531
0.00136285
-0.00050691
0.00145164
-0.000507199
0.00154038
-0.000508703
0.00163117
-0.000511431
0.0017256
-0.00051509
0.00182553
-0.000520058
0.00193205
-0.000525626
0.0020465
-0.000532071
0.00217006
-0.000539206
0.00230376
-0.000546837
0.00244817
-0.00055433
0.00260409
-0.000561741
0.0027714
-0.000567889
0.00295039
-0.000573081
0.00314027
-0.000575727
0.00334069
-0.0005764
0.00355013
-0.000573369
0.00376699
-0.000567267
0.00398827
-0.000557078
0.00421134
-0.000543198
0.00443348
-0.000525103
0.00465214
-0.000502838
0.00486437
-0.000475804
0.00507016
-0.000446717
0.0052694
-0.000415225
0.00546026
-0.000379663
0.00564137
-0.000340346
0.00580838
-0.000294351
0.00595709
-0.000241921
0.00608442
-0.000184351
0.00618546
-0.000120806
0.00627269
-5.12745e-05
0.00633379
2.74575e-05
0.00636535
0.00011036
0.00636451
0.000197351
0.00632907
0.000287692
0.00625735
0.00038062
0.00614794
0.000475635
0.00600017
0.000571508
0.00581379
0.000667586
0.00558823
0.000763316
0.00532407
0.000857711
0.0050215
0.000949758
0.00468183
0.00103906
0.00430614
0.0011237
0.00389643
0.00120377
0.00345517
0.00127693
0.00298597
0.00134273
0.00249212
0.00139914
0.00197812
0.00144519
0.00144861
0.00147956
0.00090896
0.00150062
0.000364438
0.00150825
-0.000178933
0.00150073
-0.000715265
0.00147774
-0.00123796
0.001438
-0.00174042
0.00138123
-0.00221592
0.00130719
-0.0026579
0.00121659
-0.00305969
0.00110834
-0.00341478
0.000983965
-0.00371761
0.000844756
-0.00396242
0.000691111
-0.00414463
0.000524651
-0.00425872
0.000347264
-0.00430493
0.000164254
-0.00427042
-3.94981e-05
-0.00416197
-0.000244217
-0.00397907
-0.000443203
-0.00372362
-0.000636548
-0.00339798
-0.000822347
-0.00300586
-0.000997798
-0.00255215
-0.00115973
-0.00204453
-0.00130371
-0.00149102
-0.00142585
-0.000901188
-0.00152316
-0.000285813
-0.00159254
0.000342923
-0.00163057
0.000971945
-0.00163486
0.00158813
-0.00160426
0.00217727
-0.00153708
0.00272546
-0.00143386
0.00321906
-0.00129488
0.00364556
-0.00112273
0.00399298
-0.000919411
0.0042508
-0.000688665
0.00441098
-0.000436259
0.00446411
-0.000164357
0.00440574
0.000133207
0.00423798
0.000423326
0.00396347
0.000703006
0.00358662
0.000969085
0.00311625
0.00121324
0.00256391
0.00142803
0.00194443
0.00160479
0.00127538
0.00173639
0.000577171
0.00181536
-0.000127445
0.00183736
-0.000815348
0.00179865
-0.00146284
0.00169861
-0.00204736
0.00153852
-0.00254607
0.00132044
-0.00294015
0.0010519
-0.00321182
0.000739296
-0.00334867
0.000395038
-0.00334041
2.93174e-05
-0.00318887
-0.000360685
-0.00289894
-0.00072107
-0.00248077
-0.00105254
-0.00195109
-0.00134198
-0.00133244
-0.00157387
-0.000652931
-0.00173489
5.56552e-05
-0.00181329
0.00075712
-0.00180071
0.00141601
-0.00169591
0.00199656
-0.00149955
0.00246713
-0.00121948
0.00279858
-0.000866983
0.00297237
-0.000460486
0.00296664
-9.21696e-06
0.00278462
0.000462552
0.00243425
0.000898618
0.00193277
0.00128875
0.00130718
0.00160963
0.000595201
0.0018353
-0.000159845
0.00194859
-0.00090751
0.00193358
-0.00159722
0.00178759
-0.00218108
0.00151653
-0.00261546
0.00113342
-0.00286708
0.000662827
-0.00291301
0.000132574
-0.00273975
-0.000446878
-0.00236333
-0.000979286
-0.00180637
-0.00144753
-0.00110949
-0.00181468
-0.000324782
-0.00204766
0.000486267
-0.00211992
0.0012543
-0.00201557
0.00191532
-0.00174244
0.0024117
-0.00131792
0.00269925
-0.000774983
0.00275067
-0.000160034
0.0025513
0.000505436
0.00212603
0.00110332
0.00151065
0.00160603
0.000763509
0.00196125
-4.43779e-05
0.00213238
-0.000830681
0.00208874
-0.00151753
0.00184094
-0.00203578
0.00140993
-0.00233435
0.000841756
-0.00238555
0.000197907
-0.00218727
-0.000469025
-0.00177128
-0.00104786
-0.00119173
-0.00149027
-0.00052224
-0.00174374
0.000150952
-0.00177656
0.000742848
-0.00158221
0.00118042
-0.00119692
0.00141357
-0.000675489
0.00142071
-9.3717e-05
0.00121307
0.0004785
0.000834544
0.000932245
0.000352529
0.001217
-0.00015086
0.00129036
-0.00058926
0.00113794
-0.000891786
0.000797935
-0.00101099
0.00032936
-0.000928734
-0.000200445
-0.000667297
-0.000674796
-0.000274559
-0.00102762
0.000179038
-0.00120166
0.000611454
-0.00116179
0.000951566
-0.000932519
0.00114826
-0.000562787
0.00117842
-0.000125031
0.00105077
0.000307203
0.000802444
0.000642515
0.000488312
0.000839832
0.000168073
0.000879195
-0.000104204
0.000772304
-0.000293186
0.000561964
-0.000383583
0.000298521
-0.000379265
3.45875e-05
-0.000297785
-0.000189741
-0.000162772
-0.000350679
-0.000436295
0.000218067
-0.000692376
0.00045046
-0.000724259
0.00068931
-0.000734552
0.000936253
-0.000745391
0.00119103
-0.000754847
0.00145535
-0.000765567
0.00172615
-0.000772308
0.00200389
-0.000780458
0.00228005
-0.000780651
0.00255149
-0.000778531
0.00281427
-0.000770304
0.00306905
-0.00076231
0.00331316
-0.000751021
0.00354566
-0.000739697
0.0037655
-0.000728544
0.00397398
-0.000719908
0.00417304
-0.000714149
0.00436485
-0.00071187
0.00455232
-0.000713097
0.00473969
-0.000719436
0.00492954
-0.000729057
0.00512469
-0.000741985
0.00532585
-0.000755489
0.00553541
-0.000771308
0.00575153
-0.000784006
0.00597525
-0.000796794
0.0062003
-0.00080078
0.00642668
-0.000802781
0.00664342
-0.000790105
0.00685216
-0.000776015
0.00705284
-0.000757748
0.00724914
-0.000739502
0.00744051
-0.000716474
0.00762679
-0.000689112
0.00780715
-0.000656171
0.00797771
-0.000617275
0.00813457
-0.000572086
0.00827524
-0.000520333
0.00839665
-0.000461759
0.00849858
-0.000396281
0.00857962
-0.000322955
0.0086382
-0.000242933
0.00867399
-0.000156594
0.00868945
-6.67393e-05
0.00865307
6.38383e-05
0.00857644
0.000186995
0.00846222
0.000311564
0.00831121
0.000438706
0.00812264
0.000569189
0.00789616
0.000702111
0.00763118
0.000836489
0.00732676
0.000972009
0.00698254
0.00110754
0.0065986
0.00124165
0.00617478
0.00137358
0.00571169
0.00150215
0.00521109
0.00162429
0.00467539
0.00173947
0.00410723
0.00184509
0.00350993
0.00194003
0.00288752
0.00202155
0.00224458
0.00208813
0.00158629
0.00213785
0.000918721
0.00216819
0.000248193
0.00217878
-0.00041831
0.00216723
-0.00107328
0.00213271
-0.0017098
0.00207451
-0.00231953
0.00199096
-0.0028945
0.00188216
-0.00342714
0.00174922
-0.00390923
0.00159043
-0.00433371
0.00140844
-0.00469351
0.00120456
-0.0049812
0.000978797
-0.00519125
0.000734705
-0.00531972
0.000475736
-0.00536066
0.00020519
-0.00530834
-9.18149e-05
-0.00516759
-0.000384967
-0.00493721
-0.000673584
-0.0046184
-0.000955355
-0.00421358
-0.00122718
-0.00372821
-0.00148317
-0.00316887
-0.00171907
-0.0025441
-0.00192847
-0.00186433
-0.00210562
-0.00114157
-0.00224592
-0.000390247
-0.00234387
0.000376686
-0.0023975
0.00114235
-0.00240053
0.00189101
-0.00235292
0.00260534
-0.00225141
0.00326826
-0.00209678
0.00386319
-0.00188981
0.00437479
-0.00163434
0.00478897
-0.00133359
0.00509197
-0.000991668
0.00527288
-0.00061717
0.00533012
-0.000221599
0.00524868
0.000214651
0.00503532
0.000636689
0.00469159
0.00104673
0.00422427
0.00143641
0.0036426
0.00179491
0.00296229
0.00210834
0.00220249
0.00236459
0.00138437
0.00255452
0.000533719
0.002666
-0.00032387
0.00269494
-0.00115961
0.0026344
-0.00194371
0.0024827
-0.0026464
0.00224121
-0.00324356
0.0019176
-0.00370796
0.0015163
-0.00402442
0.00105575
-0.004177
0.000547621
-0.00414422
-3.46362e-06
-0.00394103
-0.000563874
-0.00356876
-0.00109334
-0.00303967
-0.00158163
-0.00237444
-0.00200722
-0.00160248
-0.00234584
-0.000756429
-0.00258094
0.000120466
-0.00269018
0.000986829
-0.00266707
0.00179741
-0.00250649
0.00250958
-0.00221173
0.00308353
-0.00179343
0.00348539
-0.00126884
0.0036891
-0.000664194
0.00367339
6.49024e-06
0.00344318
0.000692765
0.00300589
0.0013359
0.00238286
0.00191178
0.00160852
0.00238397
0.000729487
0.00271433
-0.000199724
0.0028778
-0.001117
0.00285086
-0.00196119
0.00263178
-0.00267172
0.00222705
-0.0031969
0.0016586
-0.0034965
0.000962429
-0.00354709
0.000183163
-0.00333029
-0.000663677
-0.00286547
-0.0014441
-0.00218342
-0.00212958
-0.0013327
-0.0026654
-0.000378046
-0.00300231
0.000605196
-0.00310316
0.00153405
-0.00294443
0.0023299
-0.00253828
0.00292144
-0.00190946
0.00325544
-0.00110898
0.00330063
-0.000205224
0.00305005
0.000756018
0.00252566
0.00162771
0.00177546
0.00235623
0.000870982
0.00286573
-9.99739e-05
0.00310334
-0.0010381
0.00302686
-0.00184899
0.00265183
-0.00245026
0.0020112
-0.00278181
0.00117331
-0.00281265
0.000228741
-0.00254579
-0.000735877
-0.00201971
-0.00157394
-0.0013039
-0.00220608
-0.000489057
-0.00255858
0.000319932
-0.00258555
0.0010195
-0.00228178
0.00152311
-0.00170054
0.00177207
-0.000924446
0.00174599
-6.76376e-05
0.00146166
0.000762833
0.000975304
0.0014186
0.000370929
0.00182138
-0.000249907
0.0019112
-0.000783144
0.00167118
-0.00114307
0.00115786
-0.00127639
0.000462679
-0.00116579
-0.000311039
-0.000840638
-0.00099995
-0.000362753
-0.0015055
0.000180804
-0.00174522
0.000689935
-0.00167092
0.00108028
-0.00132286
0.00129382
-0.000776329
0.00130687
-0.000138078
0.00113701
0.000477064
0.000831586
0.000947934
0.000458991
0.00121243
9.12213e-05
0.00124696
-0.000208078
0.0010716
-0.000403729
0.000757615
-0.000483341
0.000378133
-0.000457151
8.39801e-06
-0.000349235
-0.000297658
-0.000187823
-0.00051209
-0.000624119
0.000253368
-0.000945744
0.000517517
-0.000988406
0.000777803
-0.000994837
0.00103137
-0.000998954
0.00127431
-0.000997786
0.0015155
-0.00100676
0.00171924
-0.000976045
0.00187827
-0.000939487
0.00194666
-0.000849034
0.00194508
-0.00077695
0.00188277
-0.000707999
0.00178118
-0.000660721
0.00165184
-0.000621681
0.00150909
-0.000596941
0.0013643
-0.00058376
0.00122849
-0.000584095
0.00111133
-0.000596987
0.0010206
-0.000621142
0.000961733
-0.000654227
0.000937356
-0.000695058
0.000948084
-0.000739784
0.00100018
-0.00079408
0.00109345
-0.000848756
0.00123343
-0.000911297
0.00141612
-0.000966688
0.00164811
-0.00102878
0.00191527
-0.00106795
0.00222331
-0.00111082
0.00254632
-0.00111311
0.00288771
-0.00111741
0.00324046
-0.0011105
0.00360167
-0.00110071
0.00396812
-0.00108293
0.00433773
-0.00105872
0.00470788
-0.00102632
0.00507546
-0.000984847
0.00543723
-0.00093386
0.00578959
-0.000872689
0.00612703
-0.000799202
0.0064435
-0.000712749
0.00673891
-0.000618362
0.00699948
-0.000503504
0.00722473
-0.000381847
0.00740054
-0.000242545
0.00755674
-9.23636e-05
0.00766974
7.39938e-05
0.00773375
0.000247549
0.00774506
0.000427401
0.00770099
0.000613254
0.00760013
0.000802977
0.0074399
0.00099672
0.00722051
0.0011914
0.00694082
0.00138723
0.00660139
0.00158108
0.00620343
0.00177154
0.00574909
0.0019565
0.0052409
0.00213248
0.00468128
0.00229908
0.00407527
0.00245111
0.00342701
0.00258829
0.00274263
0.00270593
0.00202852
0.00280223
0.00129181
0.00287455
0.000539652
0.00292036
-0.000219796
0.00293823
-0.000978342
0.00292577
-0.00172672
0.00288109
-0.00245545
0.00280325
-0.00315489
0.0026904
-0.0038148
0.00254207
-0.00442595
0.00236037
-0.00497767
0.00214216
-0.00546174
0.00189251
-0.00586756
0.00161038
-0.00619077
0.00130201
-0.00642301
0.00096694
-0.00655657
0.000609292
-0.00658461
0.00023324
-0.0065052
-0.000171232
-0.00631986
-0.000570305
-0.00602785
-0.000965592
-0.00563066
-0.00135255
-0.00513172
-0.00172612
-0.00453723
-0.00207765
-0.00385529
-0.00240101
-0.00309652
-0.00268724
-0.00227342
-0.00292872
-0.00140084
-0.0031185
-0.000493543
-0.00325116
0.000429581
-0.00332062
0.0013497
-0.00332065
0.00224755
-0.00325076
0.00310266
-0.00310652
0.00389443
-0.00288855
0.00460308
-0.00259846
0.00520939
-0.00224065
0.00569635
-0.00182055
0.00604952
-0.00134484
0.00625929
-0.000826937
0.00631416
-0.00027647
0.00620606
0.00032275
0.00593977
0.000902984
0.00551607
0.00147043
0.00494411
0.00200837
0.00423713
0.00250189
0.00341268
0.00293279
0.00249282
0.00328444
0.00150445
0.00354289
0.000477534
0.00369292
-0.00055299
0.00372547
-0.00155301
0.00363442
-0.00248771
0.0034174
-0.00332699
0.00308049
-0.00403104
0.00262165
-0.00457986
0.00206512
-0.00494275
0.00141864
-0.00510202
0.00070689
-0.0050476
-5.78816e-05
-0.00478598
-0.000825494
-0.00431852
-0.0015608
-0.00366208
-0.00223808
-0.00284297
-0.00282633
-0.00189486
-0.00329394
-0.000864334
-0.00361147
0.000204568
-0.00375908
0.00125699
-0.00371949
0.00223937
-0.00348887
0.00309871
-0.00307107
0.00378691
-0.00248163
0.00426491
-0.00174684
0.00449969
-0.000898975
0.00447153
3.46551e-05
0.00418357
0.000980725
0.00364633
0.00187314
0.00288373
0.00267438
0.00194146
0.00332624
0.000873148
0.00378264
-0.000251608
0.00400256
-0.00136089
0.00396014
-0.00237897
0.00364985
-0.00323322
0.0030813
-0.00386088
0.00228627
-0.00421291
0.00131446
-0.00426169
0.000231936
-0.00399437
-0.000930996
-0.00342927
-0.00200921
-0.00260112
-0.00295773
-0.00157377
-0.00369276
-0.000426249
-0.00414983
0.000751263
-0.00428067
0.00185785
-0.00405102
0.0027993
-0.00347973
0.00349624
-0.0026064
0.00388322
-0.00149596
0.00392071
-0.000242709
0.00360695
0.00106977
0.00296872
0.00226594
0.0020646
0.00326035
0.000981281
0.00394905
-0.00017384
0.00425846
-0.00128203
0.00413505
-0.00223093
0.00360073
-0.00292346
0.00270374
-0.00328932
0.00153916
-0.00329414
0.000233567
-0.00294759
-0.00108243
-0.00229563
-0.00222591
-0.00142397
-0.00307774
-0.000445466
-0.00353709
0.000515433
-0.00354645
0.00133424
-0.00310059
0.00190998
-0.00227627
0.00217675
-0.00119122
0.00210479
4.32441e-06
0.00173363
0.001134
0.00112442
0.00202781
0.000382487
0.00256331
-0.000369161
0.00266284
-0.0010055
0.00230751
-0.00142629
0.00157865
-0.00156944
0.000605825
-0.00142425
-0.000456226
-0.00102445
-0.00139976
-0.000449053
-0.0020809
0.000195129
-0.0023894
0.000788833
-0.00226463
0.00123364
-0.00176767
0.00146296
-0.00100565
0.00145403
-0.000129149
0.00123396
0.000697129
0.000863179
0.00131872
0.000425719
0.00164989
7.66468e-06
0.00166502
-0.000320491
0.00139976
-0.000521027
0.00095815
-0.000586507
0.000443613
-0.000535462
-4.26465e-05
-0.000399406
-0.000433714
-0.000211742
-0.000699755
-0.00083586
7.95818e-05
-0.00102533
0.000178491
-0.00108732
0.000322072
-0.00113842
0.000533848
-0.00121073
0.00082789
-0.00129183
0.0012245
-0.00140337
0.00169724
-0.00144879
0.00229204
-0.00153429
0.00283335
-0.00139035
0.00334788
-0.00129148
0.00376886
-0.00112898
0.00409731
-0.000989167
0.0043284
-0.000852776
0.00447214
-0.000740673
0.00454079
-0.000652415
0.00454755
-0.000590852
0.00450345
-0.000552888
0.00442415
-0.000541843
0.00432099
-0.00055106
0.00421721
-0.000591282
0.00413364
-0.000656214
0.00409407
-0.000754508
0.00411359
-0.000868273
0.00422047
-0.00101818
0.00440182
-0.00114804
0.00468415
-0.0013111
0.00499892
-0.00138272
0.00542094
-0.00153283
0.00579069
-0.00148286
0.00618076
-0.00150748
0.00654164
-0.00147138
0.00689771
-0.00145677
0.00723929
-0.00142451
0.00756927
-0.0013887
0.00788524
-0.00134229
0.00818544
-0.00128505
0.00846795
-0.00121637
0.00873018
-0.00113492
0.00897152
-0.00104054
0.00918806
-0.000929286
0.00937509
-0.000805391
0.00953528
-0.000663699
0.00965908
-0.00050564
0.00975088
-0.000334346
0.00980852
-0.00015
0.00980072
8.17888e-05
0.0097401
0.000308172
0.00962915
0.000538354
0.009467
0.000775401
0.0092506
0.00101938
0.00897771
0.0012696
0.00864594
0.00152317
0.00825438
0.00177879
0.00780195
0.00203351
0.00728958
0.00228391
0.00671761
0.00252847
0.00608894
0.00276115
0.00540623
0.0029818
0.00467478
0.00318255
0.00389792
0.00336516
0.00308323
0.00352062
0.00223625
0.00364922
0.00136514
0.00374565
0.000478595
0.0038069
-0.000414795
0.00383162
-0.001304
0.00381498
-0.00218012
0.00375721
-0.00303061
0.00365373
-0.00384477
0.00350456
-0.00461124
0.00330855
-0.00531925
0.00306837
-0.00595987
0.00278278
-0.00651772
0.00245036
-0.00698641
0.00207907
-0.0073534
0.001669
-0.00761375
0.0012273
-0.00775564
0.000751176
-0.0077814
0.000258999
-0.00767993
-0.000272697
-0.00745505
-0.000795183
-0.00710424
-0.0013164
-0.00663007
-0.00182671
-0.00603676
-0.00231943
-0.00533247
-0.00278194
-0.00452662
-0.00320685
-0.00363184
-0.00358203
-0.00266247
-0.00389809
-0.00163665
-0.00414432
-0.000571714
-0.0043161
0.000509897
-0.00440223
0.00158656
-0.00439731
0.00263572
-0.00429992
0.00363315
-0.00410395
0.00455505
-0.00381045
0.00537779
-0.0034212
0.00607984
-0.00294269
0.00664146
-0.00238218
0.00704719
-0.00175057
0.0072819
-0.00106165
0.00732634
-0.00032091
0.00719061
0.000458473
0.00686627
0.00122733
0.00636021
0.00197649
0.00567795
0.00269062
0.00483679
0.00334306
0.0038616
0.00390797
0.00277753
0.00436852
0.00161822
0.0047022
0.000415156
0.00489598
-0.000791599
0.00493222
-0.0019648
0.00480762
-0.00305873
0.00451134
-0.00403045
0.00405221
-0.00485006
0.00344126
-0.00547472
0.00268978
-0.0058833
0.00182722
-0.00605877
0.000882358
-0.00597863
-0.000138023
-0.00565116
-0.00115297
-0.00508327
-0.00212869
-0.00429277
-0.00302857
-0.00331387
-0.00380523
-0.00218943
-0.00441838
-0.00096467
-0.00483623
0.000302623
-0.00502638
0.00154611
-0.00496298
0.00270462
-0.00464739
0.00371462
-0.00408107
0.00452112
-0.00328813
0.00507434
-0.00230006
0.00533961
-0.00116425
0.00529791
7.63543e-05
0.00494825
0.00133039
0.0043014
0.00251999
0.00339285
0.00358294
0.00227474
0.00444436
0.00101212
0.00504525
-0.000317757
0.00533243
-0.00162314
0.00526553
-0.00281699
0.0048437
-0.00381829
0.0040826
-0.0045499
0.00301788
-0.00495235
0.00171691
-0.00499599
0.000275572
-0.00467436
-0.00125263
-0.00400183
-0.00268174
-0.00302647
-0.00393309
-0.0018163
-0.00490292
-0.0004674
-0.00549873
0.000906665
-0.00565474
0.00219657
-0.00534092
0.00329228
-0.00457544
0.00409141
-0.00340553
0.00452464
-0.00192919
0.00455386
-0.000271927
0.0041725
0.00145113
0.00341264
0.0030258
0.00234757
0.00432541
0.00108099
0.00521563
-0.000261732
0.00560118
-0.0015425
0.00541582
-0.00262996
0.00468819
-0.0034122
0.00348598
-0.0038088
0.00193576
-0.00378427
0.000209036
-0.00335095
-0.00151574
-0.00256709
-0.00300977
-0.00153563
-0.00410919
-0.000389529
-0.00468319
0.000725689
-0.00466167
0.00166346
-0.00403835
0.00230865
-0.00292147
0.00258627
-0.00146884
0.00247149
0.000119106
0.00200442
0.00160106
0.00126733
0.0027649
0.000384517
0.00344612
-0.000499629
0.00354699
-0.00123846
0.00304634
-0.00171866
0.00205886
-0.00187072
0.000757885
-0.00168354
-0.000643406
-0.00120352
-0.00187978
-0.000526571
-0.00275785
0.000220609
-0.00313658
0.000899075
-0.00294309
0.00139637
-0.00226496
0.00163759
-0.00124687
0.00160252
-9.40756e-05
0.00132783
0.000971814
0.000888708
0.00175784
0.000385989
0.00215261
-8.07331e-05
0.00213174
-0.000434577
0.0017536
-0.000635546
0.00115912
-0.000683433
0.0004915
-0.000605565
-0.000120514
-0.000442025
-0.000597254
-0.000231079
-0.000910701
-0.00106694
0.000503416
-0.00152874
0.00106276
-0.00164666
0.00173801
-0.00181366
0.00261033
-0.00208305
0.00378005
-0.00246155
0.00530045
-0.00292377
0.00694061
-0.00308894
0.00827793
-0.00287161
0.00817108
-0.0012835
0.00736577
-0.000486161
0.00619905
3.7737e-05
0.00501354
0.000196345
0.00385445
0.000306319
0.00274478
0.000368995
0.00169973
0.000392636
0.000738193
0.000370686
-0.000167233
0.000352538
-0.000952213
0.000243138
-0.00160667
0.000103394
-0.00206835
-0.000129597
-0.00235427
-0.000370297
-0.00245627
-0.000652509
-0.00242434
-0.000900202
-0.00223562
-0.0012069
-0.00191798
-0.00146567
-0.00137948
-0.00184961
-0.000664306
-0.00209789
0.000367656
-0.00256479
0.0012562
-0.0023714
0.00202671
-0.002278
0.00271344
-0.00215811
0.00334712
-0.00209045
0.00394766
-0.00202505
0.00452359
-0.00196462
0.00508383
-0.00190254
0.00563052
-0.00183174
0.00616334
-0.00174919
0.00667911
-0.00165069
0.00717561
-0.00153705
0.007642
-0.00139567
0.00807229
-0.00123568
0.00846218
-0.00105359
0.0088041
-0.000847557
0.00908869
-0.000618938
0.00930776
-0.00036907
0.00948632
-9.67721e-05
0.00959923
0.000195262
0.00963793
0.000499654
0.00959957
0.000813768
0.00948169
0.00113725
0.00928255
0.00146875