/*--------------------------------*- C++ -*----------------------------------*\
  =========                 |
  \\      /  F ield         | OpenFOAM: The Open Source CFD Toolbox
   \\    /   O peration     | Website:  https://openfoam.org
    \\  /    A nd           | Version:  12
     \\/     M anipulation  |
\*---------------------------------------------------------------------------*/
FoamFile
{
    format      ascii;
    class       volVectorField;
    location    "15";
    object      U;
}
// * * * * * * * * * * * * * * * * * * * * * * * * * * * * * * * * * * * * * //

dimensions      [0 1 -1 0 0 0 0];

internalField   nonuniform List<vector> 
3829
(
(6.48804e-06 -0.000483191 0)
(1.82048e-05 -0.000505089 0)
(3.14147e-05 -0.000504775 0)
(4.40316e-05 -0.000503576 0)
(5.71624e-05 -0.000501959 0)
(7.03152e-05 -0.000499897 0)
(8.36882e-05 -0.000497386 0)
(9.72054e-05 -0.000494421 0)
(0.00011091 -0.00049099 0)
(0.000124738 -0.00048709 0)
(0.000138728 -0.000482711 0)
(0.000152876 -0.000477841 0)
(0.000167123 -0.000472486 0)
(0.000181506 -0.000466627 0)
(0.000196016 -0.000460258 0)
(0.000210652 -0.000453379 0)
(0.000225398 -0.000445993 0)
(0.000240246 -0.000438105 0)
(0.000255189 -0.000429725 0)
(0.000270231 -0.000420855 0)
(0.000285334 -0.000411521 0)
(0.000300519 -0.000401722 0)
(0.000315732 -0.000391487 0)
(0.000330964 -0.000380824 0)
(0.000346173 -0.000369751 0)
(0.000361384 -0.000358294 0)
(0.000376465 -0.00034648 0)
(0.000391226 -0.000334325 0)
(0.000406041 -0.000321839 0)
(0.000420566 -0.000309128 0)
(0.000434478 -0.000296161 0)
(0.000448129 -0.000282992 0)
(0.000461132 -0.000269637 0)
(0.000473586 -0.000256119 0)
(0.000485393 -0.000242471 0)
(0.000496262 -0.000228676 0)
(0.000506266 -0.000214769 0)
(0.00051527 -0.000200763 0)
(0.000523255 -0.00018666 0)
(0.000530076 -0.000172501 0)
(0.000535649 -0.000158332 0)
(0.000539825 -0.000144173 0)
(0.000542512 -0.000130036 0)
(0.000543567 -0.00011594 0)
(0.000542768 -0.000102004 0)
(0.000540002 -8.82894e-05 0)
(0.000535132 -7.48576e-05 0)
(0.000528197 -6.17471e-05 0)
(0.000519049 -4.90294e-05 0)
(0.000507625 -3.67152e-05 0)
(0.000493825 -2.48803e-05 0)
(0.000477717 -1.35184e-05 0)
(0.000459414 -2.7269e-06 0)
(0.000438946 7.52568e-06 0)
(0.000416078 1.70827e-05 0)
(0.000390992 2.60631e-05 0)
(0.000364043 3.42578e-05 0)
(0.000335314 4.18305e-05 0)
(0.000304794 4.84525e-05 0)
(0.00027247 5.4391e-05 0)
(0.000238798 5.93826e-05 0)
(0.000203995 6.3547e-05 0)
(0.000168073 6.6732e-05 0)
(0.00013165 6.90558e-05 0)
(9.5044e-05 7.03709e-05 0)
(5.84145e-05 7.07217e-05 0)
(2.23199e-05 7.01113e-05 0)
(-1.31024e-05 6.85028e-05 0)
(-4.75469e-05 6.5943e-05 0)
(-8.04368e-05 6.24753e-05 0)
(-0.000111224 5.80872e-05 0)
(-0.000139735 5.28904e-05 0)
(-0.000165444 4.68837e-05 0)
(-0.000188137 4.01754e-05 0)
(-0.000207187 3.29098e-05 0)
(-0.000222453 2.50659e-05 0)
(-0.000233534 1.68794e-05 0)
(-0.000240727 8.30909e-06 0)
(-0.000243235 -2.78671e-07 0)
(-0.000240625 -8.98821e-06 0)
(-0.000233431 -1.74678e-05 0)
(-0.000221296 -2.56978e-05 0)
(-0.000204508 -3.34789e-05 0)
(-0.000183493 -4.07353e-05 0)
(-0.000158573 -4.72584e-05 0)
(-0.000129951 -5.29601e-05 0)
(-9.82234e-05 -5.76065e-05 0)
(-6.37037e-05 -6.12068e-05 0)
(-2.72804e-05 -6.35599e-05 0)
(1.04984e-05 -6.4602e-05 0)
(4.89149e-05 -6.43196e-05 0)
(8.70372e-05 -6.26652e-05 0)
(0.000124061 -5.96523e-05 0)
(0.000159166 -5.52988e-05 0)
(0.000191493 -4.96792e-05 0)
(0.000220206 -4.29008e-05 0)
(0.000244596 -3.50895e-05 0)
(0.000263894 -2.64265e-05 0)
(0.000277598 -1.70877e-05 0)
(0.000285192 -7.32972e-06 0)
(0.000286089 2.62556e-06 0)
(0.000279884 1.2473e-05 0)
(0.000266862 2.20168e-05 0)
(0.000247388 3.0945e-05 0)
(0.000221896 3.90223e-05 0)
(0.000191052 4.59492e-05 0)
(0.000155431 5.15072e-05 0)
(0.000116294 5.54965e-05 0)
(7.45403e-05 5.77446e-05 0)
(3.15758e-05 5.81654e-05 0)
(-1.15551e-05 5.65813e-05 0)
(-5.30669e-05 5.329e-05 0)
(-9.15571e-05 4.80325e-05 0)
(-0.000125773 4.1323e-05 0)
(-0.000154243 3.29769e-05 0)
(-0.000176058 2.37081e-05 0)
(-0.000190255 1.34661e-05 0)
(-0.000196299 2.99872e-06 0)
(-0.000193378 -7.6174e-06 0)
(-0.000181476 -1.75995e-05 0)
(-0.000161252 -2.6766e-05 0)
(-0.000133936 -3.46319e-05 0)
(-0.000100631 -4.07883e-05 0)
(-6.23612e-05 -4.49128e-05 0)
(-2.10931e-05 -4.69245e-05 0)
(2.09934e-05 -4.63427e-05 0)
(6.16801e-05 -4.35555e-05 0)
(9.88925e-05 -3.82959e-05 0)
(0.000130677 -3.11791e-05 0)
(0.000155089 -2.21982e-05 0)
(0.000170901 -1.2073e-05 0)
(0.000176587 -1.23036e-06 0)
(0.000171574 9.63453e-06 0)
(0.000155661 1.98623e-05 0)
(0.000130015 2.90463e-05 0)
(9.62461e-05 3.63381e-05 0)
(5.60542e-05 4.1515e-05 0)
(1.12829e-05 4.37639e-05 0)
(-3.46883e-05 4.3334e-05 0)
(-7.83572e-05 3.97766e-05 0)
(-0.000117076 3.37336e-05 0)
(-0.000148229 2.51166e-05 0)
(-0.00016937 1.49019e-05 0)
(-0.000178845 3.37813e-06 0)
(-0.000175147 -8.14468e-06 0)
(-0.000157995 -1.92897e-05 0)
(-0.000129292 -2.89278e-05 0)
(-9.05629e-05 -3.64002e-05 0)
(-4.48324e-05 -4.10014e-05 0)
(5.3867e-06 -4.2345e-05 0)
(5.534e-05 -4.01542e-05 0)
(0.000100061 -3.47174e-05 0)
(0.000136693 -2.62861e-05 0)
(0.000161885 -1.57781e-05 0)
(0.000173308 -3.90132e-06 0)
(0.000169399 8.11016e-06 0)
(0.000150221 1.93299e-05 0)
(0.000117812 2.86267e-05 0)
(7.51827e-05 3.52424e-05 0)
(2.57158e-05 3.83329e-05 0)
(-2.59099e-05 3.76406e-05 0)
(-7.38067e-05 3.33315e-05 0)
(-0.000113552 2.58492e-05 0)
(-0.000141548 1.60485e-05 0)
(-0.000155144 4.99989e-06 0)
(-0.000152876 -5.98195e-06 0)
(-0.000135433 -1.58387e-05 0)
(-0.000105594 -2.33254e-05 0)
(-6.71463e-05 -2.77325e-05 0)
(-2.48902e-05 -2.86052e-05 0)
(1.61098e-05 -2.5691e-05 0)
(5.04647e-05 -1.99172e-05 0)
(7.40277e-05 -1.19708e-05 0)
(8.45953e-05 -3.10358e-06 0)
(8.12617e-05 5.41125e-06 0)
(6.5503e-05 1.23745e-05 0)
(4.07844e-05 1.68406e-05 0)
(1.10417e-05 1.81844e-05 0)
(-1.80633e-05 1.62257e-05 0)
(-4.10258e-05 1.15691e-05 0)
(-5.45767e-05 5.05446e-06 0)
(-5.62463e-05 -2.12267e-06 0)
(-4.58153e-05 -8.74729e-06 0)
(-2.54531e-05 -1.3764e-05 0)
(2.69622e-06 -1.6303e-05 0)
(3.25857e-05 -1.5984e-05 0)
(5.82184e-05 -1.30677e-05 0)
(7.68299e-05 -8.25933e-06 0)
(8.57468e-05 -2.46236e-06 0)
(8.39634e-05 3.1803e-06 0)
(7.25108e-05 7.79591e-06 0)
(5.42869e-05 1.06663e-05 0)
(3.27967e-05 1.14835e-05 0)
(1.18051e-05 1.03938e-05 0)
(-5.55393e-06 7.91384e-06 0)
(-1.71506e-05 4.59931e-06 0)
(-2.216e-05 1.18584e-06 0)
(-2.09744e-05 -1.80907e-06 0)
(-1.47495e-05 -3.9826e-06 0)
(-5.28908e-06 -5.12169e-06 0)
(9.06928e-06 0.00019962 0)
(2.87148e-05 0.000215124 0)
(4.86113e-05 0.000215136 0)
(6.86933e-05 0.000214724 0)
(8.89449e-05 0.000214118 0)
(0.000109395 0.000213307 0)
(0.000129971 0.000212262 0)
(0.000150666 0.000210948 0)
(0.000171522 0.000209325 0)
(0.000192446 0.000207396 0)
(0.000213556 0.000205104 0)
(0.000234717 0.000202481 0)
(0.000255918 0.000199402 0)
(0.000277296 0.000195942 0)
(0.000298697 0.000191958 0)
(0.000320054 0.000187535 0)
(0.000341308 0.000182593 0)
(0.000362408 0.000177201 0)
(0.000383367 0.000171344 0)
(0.000404087 0.000165091 0)
(0.000424549 0.00015847 0)
(0.000444769 0.00015156 0)
(0.000464641 0.000144409 0)
(0.000484222 0.000137128 0)
(0.000503364 0.000129803 0)
(0.000522049 0.000122534 0)
(0.000540208 0.000115425 0)
(0.000557771 0.000108578 0)
(0.000574535 0.000102113 0)
(0.000590427 9.61495e-05 0)
(0.000605489 9.07812e-05 0)
(0.000619759 8.61038e-05 0)
(0.000633058 8.22152e-05 0)
(0.000645388 7.90973e-05 0)
(0.00065688 7.68441e-05 0)
(0.00066726 7.54131e-05 0)
(0.000676427 7.4918e-05 0)
(0.000684483 7.53516e-05 0)
(0.000691297 7.6788e-05 0)
(0.000696478 7.9273e-05 0)
(0.000700075 8.28295e-05 0)
(0.000702129 8.74592e-05 0)
(0.000702564 9.3088e-05 0)
(0.000700641 9.96616e-05 0)
(0.000695917 0.000107235 0)
(0.000688632 0.000115777 0)
(0.000678785 0.000125202 0)
(0.000666384 0.000135422 0)
(0.000651439 0.000146288 0)
(0.000633888 0.000157712 0)
(0.000613715 0.000169501 0)
(0.000590913 0.000181563 0)
(0.00056571 0.000193577 0)
(0.000537868 0.000205551 0)
(0.000507577 0.000217016 0)
(0.000474807 0.000228151 0)
(0.000440103 0.000238328 0)
(0.000403014 0.000247697 0)
(0.000364 0.000255656 0)
(0.000323403 0.000262381 0)
(0.000280961 0.00026739 0)
(0.000237446 0.000270761 0)
(0.000192843 0.000272085 0)
(0.000147811 0.000271472 0)
(0.000102326 0.00026854 0)
(5.72247e-05 0.000263388 0)
(1.27071e-05 0.000255793 0)
(-3.08952e-05 0.000245799 0)
(-7.29594e-05 0.000233363 0)
(-0.000113166 0.000218588 0)
(-0.000150679 0.000201492 0)
(-0.000185322 0.000182189 0)
(-0.000216588 0.00016086 0)
(-0.000243692 0.000137662 0)
(-0.000266558 0.000112932 0)
(-0.000284725 8.67642e-05 0)
(-0.000297875 5.96636e-05 0)
(-0.000305851 3.17307e-05 0)
(-0.000308133 3.77941e-06 0)
(-0.000304384 -2.42214e-05 0)
(-0.000294696 -5.14062e-05 0)
(-0.000279327 -7.77746e-05 0)
(-0.000258389 -0.000102572 0)
(-0.000232307 -0.000125609 0)
(-0.000201384 -0.000146135 0)
(-0.00016578 -0.000164096 0)
(-0.000126457 -0.000178702 0)
(-8.38676e-05 -0.000189883 0)
(-3.86651e-05 -0.000197182 0)
(7.94846e-06 -0.000200471 0)
(5.51951e-05 -0.000199503 0)
(0.000102058 -0.000194294 0)
(0.000147519 -0.0001848 0)
(0.000190574 -0.000171159 0)
(0.000230101 -0.000153567 0)
(0.000265126 -0.000132377 0)
(0.000294743 -0.000107984 0)
(0.000318067 -8.09392e-05 0)
(0.000334406 -5.18305e-05 0)
(0.000343163 -2.14015e-05 0)
(0.000343661 9.5591e-06 0)
(0.000335613 4.02265e-05 0)
(0.000319343 6.98707e-05 0)
(0.000295148 9.75877e-05 0)
(0.000263554 0.000122564 0)
(0.000225321 0.00014395 0)
(0.00018134 0.000161034 0)
(0.00013303 0.00017324 0)
(8.16248e-05 0.000179936 0)
(2.85398e-05 0.000180959 0)
(-2.41766e-05 0.000175909 0)
(-7.49443e-05 0.000165196 0)
(-0.000121842 0.000148817 0)
(-0.000163436 0.000127376 0)
(-0.000197814 0.000101494 0)
(-0.000223758 7.20961e-05 0)
(-0.00024031 4.02427e-05 0)
(-0.000246676 7.24916e-06 0)
(-0.000242041 -2.5493e-05 0)
(-0.000226195 -5.66975e-05 0)
(-0.000200578 -8.51696e-05 0)
(-0.000165951 -0.000109554 0)
(-0.000123847 -0.000128548 0)
(-7.60723e-05 -0.00014128 0)
(-2.4285e-05 -0.000146949 0)
(2.82934e-05 -0.000145228 0)
(7.89621e-05 -0.000135906 0)
(0.000125196 -0.00011965 0)
(0.000164504 -9.68411e-05 0)
(0.000194789 -6.89475e-05 0)
(0.000213977 -3.70774e-05 0)
(0.00022068 -3.24146e-06 0)
(0.000213931 3.06859e-05 0)
(0.000194197 6.27748e-05 0)
(0.000162355 9.11727e-05 0)
(0.000120443 0.000114011 0)
(7.03146e-05 0.000129609 0)
(1.47494e-05 0.000136894 0)
(-4.2135e-05 0.000134967 0)
(-9.61203e-05 0.000124162 0)
(-0.000143896 0.000104732 0)
(-0.000182299 7.80619e-05 0)
(-0.000208248 4.582e-05 0)
(-0.000219603 1.02159e-05 0)
(-0.000214778 -2.61316e-05 0)
(-0.000193922 -6.0543e-05 0)
(-0.00015854 -9.05464e-05 0)
(-0.000110978 -0.00011353 0)
(-5.47877e-05 -0.000127638 0)
(6.74804e-06 -0.000131547 0)
(6.77453e-05 -0.000124481 0)
(0.000122384 -0.000107255 0)
(0.000166848 -8.10713e-05 0)
(0.000197126 -4.82494e-05 0)
(0.000210495 -1.13504e-05 0)
(0.000205155 2.59611e-05 0)
(0.000181445 6.06913e-05 0)
(0.000141758 8.94204e-05 0)
(8.96356e-05 0.000109482 0)
(2.92661e-05 0.000118847 0)
(-3.31493e-05 0.000116255 0)
(-9.07147e-05 0.000102546 0)
(-0.000138066 7.90637e-05 0)
(-0.000170792 4.84579e-05 0)
(-0.0001857 1.41202e-05 0)
(-0.000181453 -2.00146e-05 0)
(-0.000158954 -5.0321e-05 0)
(-0.00012155 -7.33198e-05 0)
(-7.4165e-05 -8.64833e-05 0)
(-2.22475e-05 -8.86254e-05 0)
(2.7328e-05 -7.9276e-05 0)
(6.79942e-05 -6.08493e-05 0)
(9.52747e-05 -3.58832e-05 0)
(0.000106317 -8.16899e-06 0)
(0.000100389 1.82305e-05 0)
(7.94736e-05 3.9664e-05 0)
(4.7816e-05 5.31699e-05 0)
(1.03282e-05 5.69381e-05 0)
(-2.58491e-05 5.04915e-05 0)
(-5.40386e-05 3.57355e-05 0)
(-7.03515e-05 1.5342e-05 0)
(-7.1972e-05 -6.98642e-06 0)
(-5.89341e-05 -2.75136e-05 0)
(-3.38785e-05 -4.27957e-05 0)
(2.36723e-07 -5.04561e-05 0)
(3.60892e-05 -4.91107e-05 0)
(6.65122e-05 -3.98679e-05 0)
(8.80945e-05 -2.48163e-05 0)
(9.77645e-05 -6.89661e-06 0)
(9.46209e-05 1.04309e-05 0)
(8.0204e-05 2.43975e-05 0)
(5.80389e-05 3.28771e-05 0)
(3.25328e-05 3.50492e-05 0)
(8.27256e-06 3.14186e-05 0)
(-1.12291e-05 2.35573e-05 0)
(-2.36684e-05 1.33817e-05 0)
(-2.82992e-05 2.99544e-06 0)
(-2.58712e-05 -5.97674e-06 0)
(-1.78546e-05 -1.24411e-05 0)
(-6.3488e-06 -1.5804e-05 0)
(5.57722e-06 -0.000739386 0)
(1.71782e-05 -0.000769167 0)
(2.87824e-05 -0.000768668 0)
(4.02651e-05 -0.000766979 0)
(5.15933e-05 -0.000764504 0)
(6.26485e-05 -0.000761257 0)
(7.34641e-05 -0.000757013 0)
(8.39054e-05 -0.000751803 0)
(9.43082e-05 -0.00074548 0)
(0.000104468 -0.000738039 0)
(0.000114659 -0.000729489 0)
(0.000124389 -0.000720001 0)
(0.000133889 -0.000709585 0)
(0.000143097 -0.000698377 0)
(0.000152112 -0.000686486 0)
(0.00016137 -0.000674038 0)
(0.000170744 -0.000661143 0)
(0.000180673 -0.000647913 0)
(0.000191133 -0.000634345 0)
(0.000202399 -0.000620559 0)
(0.000214484 -0.000606515 0)
(0.000227508 -0.000592225 0)
(0.000241595 -0.000577572 0)
(0.000256961 -0.00056252 0)
(0.000273448 -0.000546812 0)
(0.000291141 -0.000530642 0)
(0.000309899 -0.000513475 0)
(0.000329615 -0.000495736 0)
(0.000350633 -0.000476813 0)
(0.000372483 -0.000457097 0)
(0.000394706 -0.000436359 0)
(0.000417615 -0.000414792 0)
(0.000440198 -0.000392161 0)
(0.000462508 -0.000368474 0)
(0.000484372 -0.000343632 0)
(0.000505576 -0.000317551 0)
(0.00052626 -0.000290141 0)
(0.000545996 -0.000261525 0)
(0.000564935 -0.000231741 0)
(0.000582611 -0.000200873 0)
(0.000598746 -0.000169021 0)
(0.000612766 -0.000136233 0)
(0.000624341 -0.00010261 0)
(0.000633935 -6.82452e-05 0)
(0.000641451 -3.30545e-05 0)
(0.000646145 2.56143e-06 0)
(0.000647629 3.83917e-05 0)
(0.000645697 7.42425e-05 0)
(0.000640258 0.000109882 0)
(0.000631087 0.000145196 0)
(0.000618112 0.000179857 0)
(0.000600886 0.00021374 0)
(0.000580012 0.000246496 0)
(0.000554935 0.000277999 0)
(0.000526224 0.000307821 0)
(0.000493467 0.000335793 0)
(0.000456903 0.000361476 0)
(0.00041681 0.000384636 0)
(0.000373324 0.000404992 0)
(0.000327092 0.000422186 0)
(0.000278071 0.000436014 0)
(0.000226947 0.000446087 0)
(0.000173843 0.000452328 0)
(0.000119557 0.000454325 0)
(6.43397e-05 0.000452075 0)
(9.09575e-06 0.00044535 0)
(-4.58879e-05 0.000434058 0)
(-9.97576e-05 0.000418196 0)
(-0.000151951 0.000397761 0)
(-0.000201712 0.000372901 0)
(-0.000248416 0.000343759 0)
(-0.000291363 0.00031044 0)
(-0.000329919 0.000273484 0)
(-0.000363253 0.000233059 0)
(-0.000391124 0.000189654 0)
(-0.000412864 0.000143761 0)
(-0.000428068 9.60522e-05 0)
(-0.00043606 4.71232e-05 0)
(-0.000436617 -2.25244e-06 0)
(-0.000429248 -5.14235e-05 0)
(-0.000414369 -9.95485e-05 0)
(-0.000392219 -0.000145995 0)
(-0.000362509 -0.000189786 0)
(-0.000325791 -0.000230217 0)
(-0.000282878 -0.000266405 0)
(-0.000233949 -0.00029761 0)
(-0.000179677 -0.000323165 0)
(-0.000121468 -0.000342377 0)
(-6.0048e-05 -0.000354856 0)
(3.2839e-06 -0.000360054 0)
(6.73616e-05 -0.000357707 0)
(0.000130649 -0.000347752 0)
(0.000191986 -0.000330137 0)
(0.000249868 -0.000305182 0)
(0.000302864 -0.000273209 0)
(0.000349641 -0.000234849 0)
(0.000389006 -0.000190839 0)
(0.000419758 -0.000142171 0)
(0.00044096 -8.99088e-05 0)
(0.000451718 -3.54315e-05 0)
(0.000451364 2.0026e-05 0)
(0.00043978 7.50014e-05 0)
(0.00041721 0.000127891 0)
(0.000383929 0.000177314 0)
(0.000340668 0.000221616 0)
(0.000288497 0.000259495 0)
(0.000228792 0.000289522 0)
(0.000163126 0.000310699 0)
(9.34943e-05 0.000322098 0)
(2.19016e-05 0.000323314 0)
(-4.91482e-05 0.000313785 0)
(-0.000116998 0.000293928 0)
(-0.000179802 0.000263947 0)
(-0.00023496 0.000224976 0)
(-0.000280344 0.000178248 0)
(-0.000314169 0.000125184 0)
(-0.000334814 6.80277e-05 0)
(-0.000341204 8.58481e-06 0)
(-0.000332767 -5.01051e-05 0)
(-0.000310051 -0.000106119 0)
(-0.000273862 -0.000156984 0)
(-0.000225339 -0.00020035 0)
(-0.000166756 -0.000233968 0)
(-0.00010037 -0.000256226 0)
(-2.92809e-05 -0.000265842 0)
(4.30096e-05 -0.00026192 0)
(0.000112317 -0.000244685 0)
(0.000175427 -0.000214708 0)
(0.000228921 -0.000173268 0)
(0.000269616 -0.000122619 0)
(0.000295394 -6.51266e-05 0)
(0.000303547 -4.14183e-06 0)
(0.000293841 5.70238e-05 0)
(0.000266436 0.000114726 0)
(0.000222792 0.000165643 0)
(0.000165092 0.000206271 0)
(9.66032e-05 0.000233901 0)
(2.07371e-05 0.000246387 0)
(-5.66123e-05 0.00024268 0)
(-0.000129934 0.000222495 0)
(-0.000194857 0.000187295 0)
(-0.000246529 0.000139073 0)
(-0.000281304 8.09746e-05 0)
(-0.000296215 1.71777e-05 0)
(-0.000289272 -4.79487e-05 0)
(-0.000260742 -0.000109673 0)
(-0.000212873 -0.000162881 0)
(-0.000148459 -0.000203755 0)
(-7.27066e-05 -0.000228488 0)
(1.00503e-05 -0.000234797 0)
(9.17495e-05 -0.000221773 0)
(0.000164507 -0.000190352 0)
(0.000223354 -0.000143241 0)
(0.000263139 -8.4078e-05 0)
(0.000279887 -1.83828e-05 0)
(0.000271708 4.82125e-05 0)
(0.000239341 0.000109667 0)
(0.000185593 0.000160314 0)
(0.00011565 0.000195167 0)
(3.50149e-05 0.000211027 0)
(-4.76384e-05 0.00020554 0)
(-0.000122977 0.000180208 0)
(-0.000184309 0.000137725 0)
(-0.00022558 8.28177e-05 0)
(-0.000242762 2.15564e-05 0)
(-0.000234425 -3.90678e-05 0)
(-0.000202159 -9.23663e-05 0)
(-0.000150397 -0.000132345 0)
(-8.59795e-05 -0.000154687 0)
(-1.63129e-05 -0.00015713 0)
(4.91601e-05 -0.000139521 0)
(0.000101579 -0.000105599 0)
(0.000135426 -6.04476e-05 0)
(0.000146982 -1.0786e-05 0)
(0.000135813 3.61689e-05 0)
(0.000104936 7.39033e-05 0)
(6.01133e-05 9.71268e-05 0)
(8.1878e-06 0.000102935 0)
(-4.10569e-05 9.05484e-05 0)
(-7.87811e-05 6.34167e-05 0)
(-9.99809e-05 2.66109e-05 0)
(-0.000101299 -1.34003e-05 0)
(-8.30648e-05 -4.97682e-05 0)
(-4.90815e-05 -7.64668e-05 0)
(-3.79022e-06 -8.93588e-05 0)
(4.31433e-05 -8.61971e-05 0)
(8.22709e-05 -6.91628e-05 0)
(0.00010914 -4.20676e-05 0)
(0.000119921 -1.03499e-05 0)
(0.000113984 1.99782e-05 0)
(9.38273e-05 4.39141e-05 0)
(6.43205e-05 5.79044e-05 0)
(3.14986e-05 6.07902e-05 0)
(1.32862e-06 5.35441e-05 0)
(-2.18507e-05 3.92384e-05 0)
(-3.55403e-05 2.13591e-05 0)
(-3.92901e-05 3.52148e-06 0)
(-3.44901e-05 -1.1613e-05 0)
(-2.32648e-05 -2.231e-05 0)
(-8.18152e-06 -2.77898e-05 0)
(1.17831e-05 -8.05568e-05 0)
(3.80773e-05 -7.15339e-05 0)
(6.48542e-05 -6.81105e-05 0)
(9.25857e-05 -6.34633e-05 0)
(0.000121081 -5.70803e-05 0)
(0.000150692 -4.97142e-05 0)
(0.000181196 -4.04936e-05 0)
(0.00021228 -3.13624e-05 0)
(0.000244404 -2.08301e-05 0)
(0.00027641 -1.1425e-05 0)
(0.000307454 -2.72944e-06 0)
(0.000337381 3.72518e-06 0)
(0.000366389 8.2439e-06 0)
(0.000393983 1.01216e-05 0)
(0.000420185 9.49998e-06 0)
(0.000444982 6.15389e-06 0)
(0.000468407 3.62432e-07 0)
(0.000491148 -8.09597e-06 0)
(0.000513032 -1.82759e-05 0)
(0.000534286 -3.03264e-05 0)
(0.000555694 -4.3929e-05 0)
(0.000577622 -5.88135e-05 0)
(0.000600207 -7.42477e-05 0)
(0.000624256 -9.03855e-05 0)
(0.000648302 -0.000106034 0)
(0.000673727 -0.000121489 0)
(0.000699252 -0.00013547 0)
(0.000725099 -0.000148235 0)
(0.000751245 -0.000158595 0)
(0.000775583 -0.000167145 0)
(0.000799039 -0.000172991 0)
(0.000821621 -0.000176459 0)
(0.000843994 -0.000177179 0)
(0.000865452 -0.000175266 0)
(0.00088644 -0.000170548 0)
(0.000906771 -0.00016287 0)
(0.000925585 -0.000152119 0)
(0.000942491 -0.000138215 0)
(0.000957628 -0.000121041 0)
(0.000970343 -0.000100521 0)
(0.000980758 -7.67176e-05 0)
(0.000988808 -4.9648e-05 0)
(0.000994186 -1.94725e-05 0)
(0.000997109 1.35654e-05 0)
(0.000995857 4.89974e-05 0)
(0.000989296 8.68268e-05 0)
(0.000978349 0.000126892 0)
(0.000962983 0.000168783 0)
(0.000943564 0.000212074 0)
(0.000919693 0.00025651 0)
(0.000891351 0.000301291 0)
(0.000858463 0.00034604 0)
(0.000821338 0.000390397 0)
(0.000779463 0.000433655 0)
(0.000732984 0.000475183 0)
(0.000681857 0.000514547 0)
(0.000626418 0.000551189 0)
(0.00056696 0.000584334 0)
(0.000503521 0.0006138 0)
(0.000436816 0.000638583 0)
(0.000366585 0.00065869 0)
(0.000294082 0.000673222 0)
(0.000219312 0.000682044 0)
(0.00014321 0.000684609 0)
(6.64904e-05 0.000680759 0)
(-1.03018e-05 0.000670174 0)
(-8.61608e-05 0.000652715 0)
(-0.000160399 0.000628362 0)
(-0.000231942 0.000597043 0)
(-0.000299934 0.000559029 0)
(-0.000363743 0.00051437 0)
(-0.00042196 0.000463558 0)
(-0.000473906 0.000406984 0)
(-0.00051899 0.000345242 0)
(-0.000556258 0.000278969 0)
(-0.000584802 0.00020904 0)
(-0.000604041 0.000136216 0)
(-0.000613617 6.16141e-05 0)
(-0.000613071 -1.37745e-05 0)
(-0.000601955 -8.86364e-05 0)
(-0.000580569 -0.000162121 0)
(-0.000548984 -0.000232666 0)
(-0.000507209 -0.00029926 0)
(-0.000456084 -0.000360499 0)
(-0.000396006 -0.000415313 0)
(-0.000327884 -0.000462307 0)
(-0.000252917 -0.000500672 0)
(-0.000172491 -0.000529316 0)
(-8.77245e-05 -0.000547456 0)
(-2.41002e-07 -0.000554596 0)
(8.78302e-05 -0.000550061 0)
(0.000174879 -0.000533859 0)
(0.000258908 -0.000506006 0)
(0.000337959 -0.000466878 0)
(0.000410212 -0.000417026 0)
(0.00047372 -0.000357444 0)
(0.000526822 -0.000289325 0)
(0.000567969 -0.000214137 0)
(0.000595687 -0.000133674 0)
(0.000609197 -4.96852e-05 0)
(0.000607848 3.56175e-05 0)
(0.000590729 0.00011997 0)
(0.000558583 0.000201098 0)
(0.00051181 0.000276645 0)
(0.000451371 0.000344186 0)
(0.000378771 0.000401782 0)
(0.00029577 0.000447217 0)
(0.000205026 0.000479023 0)
(0.00010923 0.000495649 0)
(1.07054e-05 0.000496252 0)
(-8.67513e-05 0.000480597 0)
(-0.000179877 0.000449057 0)
(-0.000265413 0.000402013 0)
(-0.000339883 0.000341367 0)
(-0.000400955 0.000268506 0)
(-0.000445586 0.000186432 0)
(-0.000472274 9.78232e-05 0)
(-0.000479022 6.46961e-06 0)
(-0.000465082 -8.41723e-05 0)
(-0.000431686 -0.000170491 0)
(-0.000379724 -0.0002485 0)
(-0.000310708 -0.000314704 0)
(-0.000227808 -0.00036585 0)
(-0.000134798 -0.00039943 0)
(-3.49136e-05 -0.000413218 0)
(6.59194e-05 -0.000406179 0)
(0.000162322 -0.000378448 0)
(0.000250001 -0.000331088 0)
(0.000323699 -0.000266413 0)
(0.000379634 -0.000187159 0)
(0.00041426 -9.80599e-05 0)
(0.000424824 -3.51583e-06 0)
(0.000410357 9.08384e-05 0)
(0.000371655 0.000179958 0)
(0.000310255 0.000258101 0)
(0.000229498 0.00032041 0)
(0.000133758 0.00036232 0)
(2.85794e-05 0.000381024 0)
(-7.88224e-05 0.000374354 0)
(-0.000180391 0.000342725 0)
(-0.000269498 0.000287729 0)
(-0.000340575 0.000212764 0)
(-0.000387684 0.00012289 0)
(-0.000407273 2.43868e-05 0)
(-0.000397347 -7.58878e-05 0)
(-0.000357484 -0.000170224 0)
(-0.000290966 -0.000251916 0)
(-0.000202336 -0.000313653 0)
(-9.76603e-05 -0.000350841 0)
(1.56416e-05 -0.000359943 0)
(0.000127192 -0.000338699 0)
(0.000226384 -0.000289829 0)
(0.000306064 -0.000216781 0)
(0.000358909 -0.000126055 0)
(0.000380012 -2.49449e-05 0)
(0.000367416 7.66994e-05 0)
(0.000321937 0.000170185 0)
(0.000247745 0.00024666 0)
(0.000151873 0.000298768 0)
(4.2007e-05 0.000321488 0)
(-6.98171e-05 0.000311565 0)
(-0.000170706 0.000271438 0)
(-0.000251745 0.000205292 0)
(-0.000304916 0.0001206 0)
(-0.000324881 2.67462e-05 0)
(-0.00031011 -6.54998e-05 0)
(-0.000263165 -0.000146023 0)
(-0.00019047 -0.000205561 0)
(-0.000101398 -0.000237724 0)
(-6.12186e-06 -0.000239268 0)
(8.20341e-05 -0.000210434 0)
(0.000151112 -0.000156897 0)
(0.000193883 -8.66359e-05 0)
(0.000205713 -1.00534e-05 0)
(0.000186573 6.15064e-05 0)
(0.000140866 0.000118237 0)
(7.6809e-05 0.000152419 0)
(4.01866e-06 0.000159627 0)
(-6.40841e-05 0.000139041 0)
(-0.00011531 9.61596e-05 0)
(-0.000143189 3.90152e-05 0)
(-0.00014362 -2.23036e-05 0)
(-0.000117472 -7.75035e-05 0)
(-7.027e-05 -0.000117325 0)
(-8.70727e-06 -0.000135753 0)
(5.40613e-05 -0.000129618 0)
(0.000105492 -0.00010259 0)
(0.000139521 -6.0725e-05 0)
(0.000151448 -1.25107e-05 0)
(0.00014108 3.28852e-05 0)
(0.000112356 6.79039e-05 0)
(7.22442e-05 8.74471e-05 0)
(2.90277e-05 9.01606e-05 0)
(-9.25758e-06 7.77623e-05 0)
(-3.71797e-05 5.54126e-05 0)
(-5.21778e-05 2.85376e-05 0)
(-5.43444e-05 2.39073e-06 0)
(-4.60634e-05 -1.92164e-05 0)
(-3.03734e-05 -3.41768e-05 0)
(-1.05585e-05 -4.17036e-05 0)
(1.56552e-05 -0.00104199 0)
(4.98542e-05 -0.00108561 0)
(8.35901e-05 -0.00109025 0)
(0.000117002 -0.00109606 0)
(0.000148279 -0.00110052 0)
(0.000180734 -0.00110686 0)
(0.000209116 -0.00110824 0)
(0.000233566 -0.00111045 0)
(0.000248869 -0.00110122 0)
(0.000251733 -0.00108568 0)
(0.000247585 -0.00105926 0)
(0.000235784 -0.00103027 0)
(0.000221083 -0.000996498 0)
(0.000202882 -0.000962364 0)
(0.000184112 -0.000927429 0)
(0.00016598 -0.00089391 0)
(0.000148829 -0.000862508 0)
(0.00013605 -0.000833628 0)
(0.000127826 -0.000808055 0)
(0.000122558 -0.000787634 0)
(0.000121303 -0.000770736 0)
(0.00012614 -0.000757883 0)
(0.000135126 -0.000746888 0)
(0.000150758 -0.00073993 0)
(0.000171719 -0.000732094 0)
(0.000198779 -0.00072717 0)
(0.000231363 -0.00071685 0)
(0.000269138 -0.000709368 0)
(0.000310181 -0.000692542 0)
(0.000353286 -0.000677259 0)
(0.000398739 -0.000654979 0)
(0.000445001 -0.000631395 0)
(0.000492095 -0.000603156 0)
(0.000539185 -0.000571709 0)
(0.000587136 -0.000536395 0)
(0.000635083 -0.000497586 0)
(0.000682278 -0.000455383 0)
(0.000728128 -0.000409854 0)
(0.000772793 -0.000361229 0)
(0.000815167 -0.000309602 0)
(0.00085478 -0.000255083 0)
(0.00089084 -0.000197956 0)
(0.000922223 -0.000138325 0)
(0.000948234 -7.65257e-05 0)
(0.000969695 -1.25909e-05 0)
(0.000987074 5.34242e-05 0)
(0.000998585 0.000120936 0)
(0.00100318 0.000189126 0)
(0.00100147 0.000258312 0)
(0.000991964 0.00032723 0)
(0.000974263 0.000396038 0)
(0.000949739 0.000463724 0)
(0.000917811 0.00053019 0)
(0.000877172 0.000594201 0)
(0.00082939 0.00065557 0)
(0.000774504 0.000713148 0)
(0.000711739 0.000766492 0)
(0.00064272 0.000814643 0)
(0.000566966 0.000857143 0)
(0.000485796 0.000893005 0)
(0.000399669 0.000921761 0)
(0.000308903 0.000942688 0)
(0.00021487 0.000955254 0)
(0.000118309 0.000959019 0)
(2.03179e-05 0.000953434 0)
(-7.81676e-05 0.000938325 0)
(-0.000175831 0.000913408 0)
(-0.000271649 0.000878614 0)
(-0.000364189 0.000834052 0)
(-0.000452334 0.000779876 0)
(-0.000534843 0.000716457 0)
(-0.000610111 0.000644347 0)
(-0.000677304 0.000563906 0)
(-0.000734953 0.000476306 0)
(-0.000782173 0.000382251 0)
(-0.000818143 0.000283139 0)
(-0.00084185 0.000179945 0)
(-0.00085225 7.44324e-05 0)
(-0.000848851 -3.23156e-05 0)
(-0.00083167 -0.000138241 0)
(-0.000800645 -0.00024207 0)
(-0.000755856 -0.000341759 0)
(-0.000697662 -0.000435637 0)
(-0.000626668 -0.000521854 0)
(-0.000543864 -0.000598719 0)
(-0.000450333 -0.000664609 0)
(-0.00034774 -0.000717968 0)
(-0.000237655 -0.000757564 0)
(-0.000122354 -0.000782006 0)
(-3.53274e-06 -0.000790991 0)
(0.000116331 -0.000783257 0)
(0.000234116 -0.000759061 0)
(0.000347753 -0.00071826 0)
(0.000454572 -0.000661504 0)
(0.000551872 -0.000589604 0)
(0.000636982 -0.000503986 0)
(0.000707845 -0.000406276 0)
(0.000762169 -0.000298688 0)
(0.000798568 -0.000183504 0)
(0.000815651 -6.34241e-05 0)
(0.000811984 5.79229e-05 0)
(0.00078751 0.000177814 0)
(0.000742682 0.000293054 0)
(0.000677793 0.000399932 0)
(0.000594729 0.000495456 0)
(0.000495306 0.000576339 0)
(0.00038206 0.000639809 0)
(0.000258164 0.000683898 0)
(0.000127012 0.000706011 0)
(-6.82591e-06 0.000705871 0)
(-0.000138454 0.000682204 0)
(-0.000264084 0.000635807 0)
(-0.000379106 0.000567524 0)
(-0.000479218 0.000479762 0)
(-0.0005606 0.000375055 0)
(-0.000619357 0.000257085 0)
(-0.000652959 0.000130466 0)
(-0.000659343 -4.26178e-07 0)
(-0.000638581 -0.000129999 0)
(-0.000590826 -0.000252997 0)
(-0.000517526 -0.000363968 0)
(-0.000421445 -0.000457819 0)
(-0.000306833 -0.000529775 0)
(-0.000178011 -0.000576462 0)
(-4.05844e-05 -0.000594637 0)
(9.79384e-05 -0.000583301 0)
(0.000230087 -0.000542089 0)
(0.00034939 -0.000473205 0)
(0.000449939 -0.000379156 0)
(0.000525296 -0.000265084 0)
(0.000571187 -0.000136546 0)
(0.000584076 -1.00971e-06 0)
(0.000563224 0.000134297 0)
(0.000509258 0.000261664 0)
(0.000424388 0.000372814 0)
(0.000313036 0.000461183 0)
(0.000181725 0.000520153 0)
(3.75948e-05 0.000546178 0)
(-0.000108926 0.000535132 0)
(-0.00024713 0.000489015 0)
(-0.000368705 0.000409542 0)
(-0.0004646 0.000301615 0)
(-0.000527701 0.000172699 0)
(-0.000553295 3.14372e-05 0)
(-0.000538199 -0.000111046 0)
(-0.000483366 -0.00024558 0)
(-0.000392278 -0.000360818 0)
(-0.000270945 -0.000447904 0)
(-0.000129506 -0.000499633 0)
(2.43524e-05 -0.000510873 0)
(0.000175039 -0.000479668 0)
(0.000307973 -0.000408782 0)
(0.000414037 -0.000304097 0)
(0.000484002 -0.000174248 0)
(0.000510712 -3.12129e-05 0)
(0.000491414 0.000113267 0)
(0.000428581 0.000245014 0)
(0.000327217 0.000352101 0)
(0.000197253 0.000423973 0)
(4.90468e-05 0.000453886 0)
(-0.000100559 0.00043768 0)
(-0.000234372 0.000378782 0)
(-0.000340744 0.000283462 0)
(-0.000408743 0.000162463 0)
(-0.000431588 2.93597e-05 0)
(-0.000407796 -0.000100874 0)
(-0.000341193 -0.00021336 0)
(-0.000240529 -0.000295467 0)
(-0.000118949 -0.00033837 0)
(9.50438e-06 -0.000337589 0)
(0.000126852 -0.000293933 0)
(0.000217194 -0.000215728 0)
(0.000271103 -0.000114659 0)
(0.000282393 -5.51235e-06 0)
(0.000251835 9.56502e-05 0)
(0.00018631 0.000174857 0)
(9.68728e-05 0.000221256 0)
(-3.25868e-06 0.000229091 0)
(-9.56224e-05 0.000197605 0)
(-0.000163957 0.000135132 0)
(-0.000199803 5.28351e-05 0)
(-0.000198436 -3.44714e-05 0)
(-0.000161453 -0.000112004 0)
(-9.66765e-05 -0.000167002 0)
(-1.38677e-05 -0.000191219 0)
(6.93686e-05 -0.000180592 0)
(0.000136345 -0.000140873 0)
(0.000179127 -8.08453e-05 0)
(0.000191891 -1.29464e-05 0)
(0.00017517 5.00154e-05 0)
(0.00013494 9.73427e-05 0)
(8.09919e-05 0.000122397 0)
(2.45225e-05 0.000123748 0)
(-2.37915e-05 0.000104333 0)
(-5.71211e-05 7.20235e-05 0)
(-7.3152e-05 3.46482e-05 0)
(-7.28179e-05 -6.97356e-07 0)
(-5.9901e-05 -2.90499e-05 0)
(-3.87324e-05 -4.81407e-05 0)
(-1.33204e-05 -5.75564e-05 0)
(4.11751e-06 -0.00052193 0)
(1.87618e-05 -0.000527582 0)
(3.24818e-05 -0.000509572 0)
(6.04224e-05 -0.00048199 0)
(9.23269e-05 -0.000437203 0)
(0.000147177 -0.000382415 0)
(0.000204821 -0.000290412 0)
(0.000287661 -0.000197128 0)
(0.00037623 -4.84127e-05 0)
(0.000448717 6.44373e-05 0)
(0.000522433 0.000158218 0)
(0.000574107 0.000217576 0)
(0.00061698 0.000259015 0)
(0.000641677 0.000279752 0)
(0.000658247 0.000283476 0)
(0.000661943 0.00027036 0)
(0.000659197 0.000242132 0)
(0.000652054 0.000199446 0)
(0.000639386 0.000145048 0)
(0.000625259 8.1123e-05 0)
(0.000609322 1.15912e-05 0)
(0.000601846 -6.75742e-05 0)
(0.00059879 -0.000146591 0)
(0.000610963 -0.000230997 0)