/*--------------------------------*- C++ -*----------------------------------*\
  =========                 |
  \\      /  F ield         | OpenFOAM: The Open Source CFD Toolbox
   \\    /   O peration     | Website:  https://openfoam.org
    \\  /    A nd           | Version:  12
     \\/     M anipulation  |
\*---------------------------------------------------------------------------*/
FoamFile
{
    format      ascii;
    class       volVectorField;
    location    "15";
    object      zeta;
}
// * * * * * * * * * * * * * * * * * * * * * * * * * * * * * * * * * * * * * //

dimensions      [0 1 0 0 0 0 0];

internalField   uniform (0 0 0);

boundaryField
{
    freeSurface
    {
        type            calculated;
        value           nonuniform List<vector> 
181
(
(0 0.0060438 0)
(0 0.00604351 0)
(0 0.00604288 0)
(0 0.00604184 0)
(0 0.00604108 0)
(0 0.00603971 0)
(0 0.00603972 0)
(0 0.00603787 0)
(0 0.000817542 0)
(0 0.000824981 0)
(0 0.000841752 0)
(0 0.000864443 0)
(0 0.000891839 0)
(0 0.000926048 0)
(0 0.0009636 0)
(0 0.00100528 0)
(0 0.00104895 0)
(0 0.00109471 0)
(0 0.00114068 0)
(0 0.00118615 0)
(0 0.00122944 0)
(0 0.00126966 0)
(0 0.00130578 0)
(0 0.00133726 0)
(0 0.00136332 0)
(0 0.00138314 0)
(0 0.00139593 0)
(0 0.00140088 0)
(0 0.00139734 0)
(0 0.00138474 0)
(0 0.00136278 0)
(0 0.00133118 0)
(0 0.00128982 0)
(0 0.00123849 0)
(0 0.00117721 0)
(0 0.0011061 0)
(0 0.00102544 0)
(0 0.000935698 0)
(0 0.000837433 0)
(0 0.000731278 0)
(0 0.000617892 0)
(0 0.000498227 0)
(0 0.000373301 0)
(0 0.000244284 0)
(0 0.000112373 0)
(0 -2.10797e-05 0)
(0 -0.000154587 0)
(0 -0.000286621 0)
(0 -0.00041558 0)
(0 -0.000539655 0)
(0 -0.000657109 0)
(0 -0.000766273 0)
(0 -0.0008654 0)
(0 -0.000952891 0)
(0 -0.00102722 0)
(0 -0.00108695 0)
(0 -0.00113081 0)
(0 -0.00115777 0)
(0 -0.001167 0)
(0 -0.0011578 0)
(0 -0.0011299 0)
(0 -0.00108328 0)
(0 -0.00101811 0)
(0 -0.000935087 0)
(0 -0.000835201 0)
(0 -0.000719882 0)
(0 -0.000590726 0)
(0 -0.000449958 0)
(0 -0.000300053 0)
(0 -0.00014381 0)
(0 1.56167e-05 0)
(0 0.000175145 0)
(0 0.000331219 0)
(0 0.000480396 0)
(0 0.000619124 0)
(0 0.000743963 0)
(0 0.000851598 0)
(0 0.000938974 0)
(0 0.0010033 0)
(0 0.00104233 0)
(0 0.00105441 0)
(0 0.00103861 0)
(0 0.00099443 0)
(0 0.000922805 0)
(0 0.00082488 0)
(0 0.000702949 0)
(0 0.000560004 0)
(0 0.000399822 0)
(0 0.000226999 0)
(0 4.67474e-05 0)
(0 -0.000135174 0)
(0 -0.000312955 0)
(0 -0.000480198 0)
(0 -0.000631058 0)
(0 -0.000759518 0)
(0 -0.000860152 0)
(0 -0.00092839 0)
(0 -0.00096083 0)
(0 -0.000955114 0)
(0 -0.000910459 0)
(0 -0.000827729 0)
(0 -0.00070975 0)
(0 -0.00056072 0)
(0 -0.000386536 0)
(0 -0.000195281 0)
(0 4.56935e-06 0)
(0 0.000203541 0)
(0 0.000391881 0)
(0 0.000559651 0)
(0 0.000697642 0)
(0 0.000797814 0)
(0 0.000854519 0)
(0 0.000862751 0)
(0 0.000822253 0)
(0 0.000733844 0)
(0 0.000602408 0)
(0 0.000435251 0)
(0 0.000242024 0)
(0 3.52186e-05 0)
(0 -0.000172207 0)
(0 -0.000367407 0)
(0 -0.000536662 0)
(0 -0.000668171 0)
(0 -0.000752146 0)
(0 -0.000782368 0)
(0 -0.000755992 0)
(0 -0.00067464 0)
(0 -0.000544375 0)
(0 -0.000374874 0)
(0 -0.000179952 0)
(0 2.41971e-05 0)
(0 0.000221414 0)
(0 0.000395168 0)
(0 0.00052988 0)
(0 0.000613397 0)
(0 0.000638525 0)
(0 0.000603013 0)
(0 0.000510552 0)
(0 0.000370532 0)
(0 0.000197524 0)
(0 1.01448e-05 0)
(0 -0.00017204 0)
(0 -0.000330386 0)
(0 -0.000447195 0)
(0 -0.000509505 0)
(0 -0.000510954 0)
(0 -0.000452266 0)
(0 -0.00034178 0)
(0 -0.000194226 0)
(0 -2.9602e-05 0)
(0 0.000129499 0)
(0 0.000263428 0)
(0 0.000353405 0)
(0 0.000387028 0)
(0 0.00036037 0)
(0 0.000278704 0)
(0 0.000155678 0)
(0 1.13695e-05 0)
(0 -0.000130077 0)
(0 -0.000247736 0)
(0 -0.000322344 0)
(0 -0.000341822 0)
(0 -0.000303847 0)
(0 -0.000216638 0)
(0 -9.72863e-05 0)
(0 3.11754e-05 0)
(0 0.000144848 0)
(0 0.000223612 0)
(0 0.000252897 0)
(0 0.000228671 0)
(0 0.000158157 0)
(0 5.85695e-05 0)
(0 -4.69511e-05 0)
(0 -0.000134502 0)
(0 -0.000186055 0)
(0 -0.00019135 0)
(0 -0.000151217 0)
(0 -7.82093e-05 0)
(0 7.55906e-06 0)
(0 8.29919e-05 0)
(0 0.000127291 0)
)
;
    }
    walls
    {
        type            calculated;
        value           uniform (0 0 0);
    }
    floatingObject
    {
        type            calculated;
        value           uniform (0 0 0);
    }
    frontAndBack
    {
        type            empty;
    }
}


// ************************************************************************* //
