#           v             n
     0.523599             0
     0.648652             0
     0.790112             0
     0.953116             0
      1.13449             0
      1.34047             0
      1.56672             0
      1.82069             0
      2.09677   1.64269e-05
      2.40376   0.000146039
      2.73462   0.000657841
      3.09966    0.00177891
      3.49026    0.00361992
      3.91837    0.00560232
      4.37366    0.00732108
      4.86986    0.00766345
       5.3948    0.00672252
      5.96412    0.00470227
      6.56366    0.00275145
      7.21112    0.00130533
      7.89023   0.000527127
      8.62085   0.000176738
      9.38447   5.14554e-05
      10.2033   1.27041e-05
      11.0564   2.77078e-06
      11.9684   5.21331e-07
      12.9159   8.78724e-08
      13.9262   1.29537e-08
      14.9731   4.11293e-09
