/*--------------------------------*- C++ -*----------------------------------*\
  =========                 |
  \\      /  F ield         | OpenFOAM: The Open Source CFD Toolbox
   \\    /   O peration     | Website:  https://openfoam.org
    \\  /    A nd           | Version:  12
     \\/     M anipulation  |
\*---------------------------------------------------------------------------*/
FoamFile
{
    format      ascii;
    class       surfaceScalarField;
    location    "15.1";
    object      phi;
}
// * * * * * * * * * * * * * * * * * * * * * * * * * * * * * * * * * * * * * //

dimensions      [1 0 -1 0 0 0 0];

internalField   nonuniform List<scalar> 
7429
(
2.77331e-05
-2.77333e-05
5.83132e-05
-3.05804e-05
8.84957e-05
-3.01828e-05
0.000117669
-2.9174e-05
0.000145109
-2.74396e-05
0.000169805
-2.46966e-05
0.000190738
-2.09336e-05
0.000206865
-1.61269e-05
0.000217063
-1.01986e-05
0.000219916
-2.85337e-06
0.000213851
6.06483e-06
0.000202445
1.14056e-05
0.000185912
1.65321e-05
0.00016441
2.15018e-05
0.000138039
2.63707e-05
0.000107245
3.07937e-05
7.25946e-05
3.46502e-05
3.49027e-05
3.76916e-05
-4.81582e-06
3.97182e-05
-4.54298e-05
4.06137e-05
-8.56624e-05
4.02323e-05
-0.000124181
3.85186e-05
-0.000159573
3.53918e-05
-0.000190484
3.09106e-05
-0.000215536
2.50515e-05
-0.00023375
1.82139e-05
-0.00024444
1.06894e-05
-0.000240993
-3.44671e-06
-0.000222226
-1.87672e-05
-0.000188741
-3.3485e-05
-0.000140623
-4.81178e-05
-7.80514e-05
-6.25722e-05
-1.27221e-06
-7.67793e-05
8.93487e-05
-9.06209e-05
0.000193265
-0.000103916
0.000309736
-0.000116471
0.000437681
-0.000127946
0.000576103
-0.000138422
0.000723714
-0.000147611
0.000879304
-0.00015559
0.00104133
-0.000162029
0.00120851
-0.000167182
0.00137861
-0.000170095
0.0015497
-0.00017109
0.00171928
-0.000169578
0.00188526
-0.000165979
0.00204462
-0.000159366
0.00219451
-0.000149888
0.00233244
-0.000137926
0.00245573
-0.000123296
0.00256181
-0.000106077
0.00264809
-8.62758e-05
0.0027128
-6.471e-05
0.00275288
-4.00775e-05
0.00276638
-1.35035e-05
0.00274638
2.00027e-05
0.00269492
5.14547e-05
0.00261115
8.37747e-05
0.00249541
0.000115735
0.0023475
0.000147917
0.00216832
0.00017918
0.00195844
0.000209873
0.00171925
0.000239196
0.00145191
0.000267337
0.0011585
0.000293407
0.000841425
0.000317079
0.000503682
0.000337743
0.000148833
0.000354849
-0.000218736
0.00036757
-0.000594844
0.000376108
-0.000974701
0.000379857
-0.00135289
0.00037819
-0.00172379
0.000370904
-0.00208182
0.000358022
-0.00242121
0.000339398
-0.00273566
0.000314445
-0.00301972
0.000284064
-0.00326731
0.000247589
-0.00347368
0.00020637
-0.00363335
0.000159673
-0.00374287
0.000109512
-0.00379846
5.55975e-05
-0.00379422
-4.24097e-06
-0.00372425
-6.99678e-05
-0.00359123
-0.000133024
-0.00339644
-0.00019479
-0.00314293
-0.000253507
-0.00283355
-0.000309381
-0.0024726
-0.000360957
-0.00206516
-0.000407437
-0.0016176
-0.000447553
-0.00113774
-0.000479864
-0.000634671
-0.00050307
-0.000118247
-0.000516425
0.000400389
-0.000518636
0.00090978
-0.000509391
0.00139805
-0.000488273
0.00185309
-0.00045504
0.00226342
-0.000410324
0.00261783
-0.000354414
0.00290616
-0.000288332
0.0031197
-0.000213541
0.00325187
-0.000132164
0.00329845
-4.65776e-05
0.00324617
5.22754e-05
0.00310052
0.000145647
0.00286695
0.000233576
0.00255162
0.000315329
0.00216281
0.000388808
0.00171105
0.000451761
0.0012104
0.000500651
0.000676366
0.000534034
0.000127143
0.000549222
-0.000418098
0.000545241
-0.000938936
0.000520838
-0.00141596
0.000477026
-0.00182983
0.000413871
-0.00216376
0.00033393
-0.00240295
0.000239187
-0.00253772
0.000134775
-0.00256086
2.31316e-05
-0.00245794
-0.000102919
-0.00224132
-0.000216619
-0.00192185
-0.000319464
-0.00151293
-0.000408926
-0.00103296
-0.000479971
-0.000504462
-0.000528495
4.61117e-05
-0.000550574
0.000589741
-0.000543629
0.00109713
-0.00050739
0.00153935
-0.000442215
0.00189094
-0.000351599
0.00212998
-0.00023904
0.00224142
-0.000111435
0.0022092
3.22234e-05
0.00203328
0.000175913
0.00172805
0.000305236
0.00131232
0.000415732
0.000809319
0.000502997
0.000251771
0.000557548
-0.000323603
0.000575374
-0.00087557
0.000551967
-0.00136487
0.000489304
-0.00175403
0.000389154
-0.00201334
0.000259312
-0.00212154
0.000108199
-0.00205741
-6.41245e-05
-0.00182796
-0.000229456
-0.00145406
-0.000373896
-0.00096316
-0.000490903
-0.000393744
-0.000569416
0.000207326
-0.00060107
0.00078645
-0.000579124
0.00129278
-0.000506328
0.00167876
-0.000385978
0.00190879
-0.000230029
0.001961
-5.22156e-05
0.00181368
0.000147318
0.00149148
0.000322205
0.00102597
0.000465511
0.000461368
0.000564599
-0.000145956
0.000607324
-0.000730628
0.000584672
-0.00123124
0.00050061
-0.00159433
0.000363093
-0.00178207
0.000187741
-0.0017724
-9.67418e-06
-0.00156684
-0.00020556
-0.00120001
-0.000366826
-0.000718603
-0.00048141
-0.000184733
-0.00053387
0.000331759
-0.000516492
0.00076271
-0.000430952
0.00105424
-0.000291525
0.0011729
-0.000118661
0.00110339
6.95023e-05
0.000870133
0.000233262
0.00051708
0.000353053
0.000105367
0.000411713
-0.000292905
0.000398271
-0.000608485
0.00031558
-0.00078785
0.000179365
-0.000801998
1.41475e-05
-0.00064112
-0.000160877
-0.00034089
-0.000300231
4.78213e-05
-0.000388711
0.00046001
-0.000412189
0.000821158
-0.000361148
0.00107109
-0.000249931
0.00117175
-0.00010066
0.00110934
6.24068e-05
0.000906931
0.000202411
0.000608438
0.000298492
0.000274605
0.000333833
-3.04106e-05
0.000305016
-0.000251612
0.000221201
-0.00035389
0.000102278
-0.000328716
-2.51733e-05
-0.000195931
-0.000132786
-0.000195931
0.000118438
-0.000146172
0.000244828
-0.000156971
0.000369809
-0.000155164
0.000491702
-0.000151068
0.00060907
-0.000144809
0.000720832
-0.000136459
0.000825919
-0.00012602
0.000923557
-0.000113766
0.0010133
-9.99387e-05
0.00109534
-8.48978e-05
0.00117044
-6.90393e-05
0.00123479
-5.29374e-05
0.00128793
-3.66076e-05
0.00132987
-2.04397e-05
0.00136176
-5.5234e-06
0.00138401
8.54441e-06
0.00139164
2.70158e-05
0.00138707
4.22697e-05
0.00137033
5.64522e-05
0.00134516
6.5787e-05
0.00131251
7.28835e-05
0.00127572
7.53085e-05
0.00123742
7.36862e-05
0.00120065
6.76781e-05
0.00116807
5.76365e-05
0.00114279
4.34943e-05
0.00112784
2.56342e-05
0.0011205
3.89993e-06
0.00111452
-1.2794e-05
0.00111525
-3.421e-05
0.00112661
-5.94819e-05
0.00115166
-8.76264e-05
0.00119226
-0.000117372
0.00124931
-0.000147676
0.00132299
-0.000177592
0.00141287
-0.000206348
0.00151811
-0.000233191
0.00163742
-0.000257733
0.00176925
-0.000279442
0.0019116
-0.000297937
0.00206233
-0.000312755
0.00221862
-0.000323481
0.00237827
-0.000329739
0.00253841
-0.000331233
0.00269645
-0.000327618
0.00284916
-0.000318682
0.00299425
-0.000304464
0.00312913
-0.000284764
0.00325074
-0.000259539
0.00335624
-0.000228792
0.00344309
-0.000192927
0.00350882
-0.000152009
0.00355077
-0.000106658
0.00356768
-5.69895e-05
0.00354805
6.13202e-06
0.00349518
7.28716e-05
0.00340852
0.000138114
0.0032884
0.000203893
0.00313481
0.000269327
0.00294814
0.000334591
0.00272886
0.000398455
0.0024778
0.000460932
0.00219576
0.000521239
0.00188452
0.000578577
0.00154577
0.000632162
0.00118225
0.000680598
0.000797209
0.00072278
0.000394609
0.00075745
-2.13518e-05
0.00078353
-0.000445428
0.000800185
-0.000872676
0.000807104
-0.00129697
0.000802481
-0.0017125
0.000786439
-0.00211314
0.000758658
-0.00249231
0.000718566
-0.00284342
0.000665565
-0.00316042
0.000601054
-0.00343715
0.000524319
-0.00366786
0.000437087
-0.00384725
0.000339059
-0.00397091
0.000233173
-0.00403476
0.000119445
-0.00403255
-6.44932e-06
-0.00396089
-0.000141624
-0.00382158
-0.000272337
-0.00361595
-0.000400414
-0.00334593
-0.000523533
-0.0030149
-0.000640413
-0.00262677
-0.000749083
-0.00218741
-0.000846795
-0.00170424
-0.000930727
-0.00118593
-0.000998169
-0.000642646
-0.00104636
-8.50413e-05
-0.00107403
0.000474556
-0.00107823
0.00102366
-0.0010585
0.00154932
-0.00101393
0.00203832
-0.000944038
0.00247817
-0.000850179
0.00285672
-0.000732961
0.00316249
-0.000594098
0.00338716
-0.000438215
0.00352126
-0.000266264
0.00356133
-8.66473e-05
0.00349649
0.000117119
0.00333229
0.000309843
0.00307303
0.00049284
0.00272474
0.000663621
0.00229648
0.000817066
0.00180008
0.000948157
0.00125055
0.00105018
0.000666006
0.00111858
6.59451e-05
0.00114928
-0.000527082
0.00113827
-0.00109287
0.00108663
-0.00160909
0.000993243
-0.00205586
0.00086064
-0.00241351
0.000691581
-0.0026671
0.000492775
-0.00280323
0.000270904
-0.00281785
3.77601e-05
-0.00269617
-0.000224604
-0.00245229
-0.000460495
-0.00209565
-0.00067611
-0.00164152
-0.00086305
-0.00110997
-0.00101153
-0.000525955
-0.00111251
8.07802e-05
-0.00115731
0.000677997
-0.00114085
0.00123415
-0.00106354
0.00171697
-0.000925041
0.00209849
-0.000733119
0.00235502
-0.000495567
0.00247131
-0.000227721
0.00242879
7.47408e-05
0.00223242
0.000372282
0.0018953
0.00064236
0.00143557
0.000875454
0.000881246
0.00105733
0.000267963
0.00117083
-0.000362945
0.00120628
-0.000967223
0.00115625
-0.00150068
0.00102276
-0.00192358
0.000812055
-0.00220293
0.000538661
-0.00231406
0.000219328
-0.00223988
-0.00013831
-0.00198817
-0.000481158
-0.00157796
-0.000784113
-0.00104065
-0.00102821
-0.000417943
-0.00119212
0.000236988
-0.001256
0.000866847
-0.00120898
0.00141419
-0.00105367
0.00182979
-0.000801578
0.00207284
-0.000473077
0.00212093
-0.000100306
0.00195737
0.000310873
0.00160583
0.000673748
0.00109824
0.000973099
0.000485428
0.00117741
-0.00017069
0.00126344
-0.000799008
0.00121299
-0.00133302
0.00103462
-0.00171527
0.000745342
-0.00190567
0.000378144
-0.00188042
-3.49246e-05
-0.00164866
-0.000437325
-0.00124321
-0.000772278
-0.000716621
-0.00100799
-0.000137542
-0.00111295
0.000416339
-0.00107037
0.000873014
-0.000887627
0.00117477
-0.00059328
0.00128641
-0.0002303
0.00119514
0.000160767
0.000927997
0.000500409
0.00053279
0.00074826
7.77584e-05
0.000866745
-0.000357107
0.000833137
-0.000698475
0.000656949
-0.000889026
0.000369916
-0.000899103
2.42242e-05
-0.000723037
-0.000336943
-0.000397637
-0.000625631
1.87739e-05
-0.000805121
0.00045856
-0.000851975
0.000838326
-0.000740914
0.00109596
-0.000507562
0.00119216
-0.000196858
0.00111622
0.000138346
0.00089322
0.000425407
0.0005722
0.000619512
0.000218996
0.000687037
-9.85782e-05
0.00062259
-0.000322638
0.000445261
-0.000417938
0.000197578
-0.000376992
-6.61197e-05
-0.000221859
-0.000287918
-0.00041779
0.000131526
-0.000277699
0.00026439
-0.000289835
0.000393255
-0.000284029
0.000515285
-0.000273098
0.000626857
-0.000256382
0.000723759
-0.000233362
0.00079981
-0.000202072
0.000849278
-0.000163234
0.000864785
-0.000115447
0.000840626
-6.0739e-05
0.000765347
6.23934e-06
0.000658706
5.37021e-05
0.000523246
9.88523e-05
0.000359361
0.000143445
0.000168192
0.000185645
-4.71179e-05
0.000223854
-0.000277156
0.000257053
-0.000518771
0.000283884
-0.000766163
0.000303844
-0.00101615
0.000315776
-0.00126237
0.000319105
-0.00150036
0.000313292
-0.00172528
0.000298605
-0.00193189
0.000274292
-0.00211613
0.000241878
-0.00227363
0.000200994
-0.00240185
0.000153847
-0.00249877
0.000100826
-0.00255707
4.54987e-05
-0.00255895
-3.23238e-05
-0.00250733
-0.000111105
-0.00241039
-0.000184569
-0.00227431
-0.000253444
-0.00210406
-0.000317934
-0.00190466
-0.000376988
-0.00167968
-0.000431326
-0.00142988
-0.000482993
-0.00115639
-0.000531223
-0.000860624
-0.000575209
-0.000546399
-0.000612161
-0.000217879
-0.000641275
0.000121276
-0.000662637
0.00046667
-0.000675132
0.000813978
-0.000678542
0.00115925
-0.00067289
0.00149667
-0.000656106
0.00182097
-0.000628759
0.00212817
-0.00059196
0.00241454
-0.000545916
0.00267684
-0.000491086
0.00290951
-0.000425596
0.00310567
-0.000348171
0.0032634
-0.000264384
0.00338301
-0.000176601
0.00346454
-7.53997e-05
0.00350269
3.47199e-05
0.003495
0.000145803
0.00344053
0.000258367
0.00333807
0.000371783
0.0031879
0.00048477
0.00298972
0.000596636
0.0027448
0.000705851
0.00245485
0.000811189
0.00212296
0.000910468
0.00175243
0.00100269
0.00134745
0.00108558
0.00091244
0.00115779
0.00045264
0.00121725
-2.62186e-05
0.00126239
-0.000517861
0.00129183
-0.00101559
0.00130483
-0.00151208
0.00129898
-0.00199967
0.00127402
-0.00247096
0.00122995
-0.00291784
0.00116545
-0.00333246
0.00108019
-0.00370678
0.000975371
-0.00403416
0.0008517
-0.00430649
0.000709414
-0.00451795
0.000550524
-0.00466171
0.000376932
-0.00473374
0.000191469
-0.00472793
-1.22547e-05
-0.00464169
-0.000227861
-0.00447593
-0.000438102
-0.00423215
-0.000644193
-0.00391183
-0.00084385
-0.00351838
-0.00103386
-0.00305687
-0.0012106
-0.0025345
-0.00136916
-0.00196037
-0.00150486
-0.00134481
-0.00161373
-0.000699874
-0.00169129
-3.90789e-05
-0.00173482
0.000623293
-0.0017406
0.00127228
-0.00170749
0.00189233
-0.00163398
0.00246755
-0.00151926
0.00298324
-0.00136587
0.0034238
-0.00117352
0.0037782
-0.000948501
0.00403358
-0.000693593
0.00418316
-0.000415848
0.00421451
-0.000117995
0.00412572
0.000205907
0.00392008
0.000515485
0.00360111
0.000811813
0.00317546
0.00108927
0.00265459
0.00133794
0.00205417
0.00154857
0.0013919
0.00171245
0.000689735
0.00182074
-2.90407e-05
0.00186806
-0.000739217
0.00184844
-0.00141378
0.00176119
-0.00202661
0.00160608
-0.00255284
0.00138687
-0.00297037
0.00110911
-0.00326037
0.000782774
-0.00341101
0.000421545
-0.00340711
3.38588e-05
-0.0032492
-0.000382515
-0.00294461
-0.000765079
-0.00250421
-0.00111651
-0.00194643
-0.00142083
-0.0012963
-0.00166166
-0.000586577
-0.00182223
0.000147954
-0.00189184
0.000869395
-0.00186229
0.00153728
-0.00173143
0.00211531
-0.00150307
0.00256872
-0.00118653
0.00287041
-0.000797252
0.00299852
-0.000355833
0.00293728
0.000135987
0.00269394
0.000615618
0.00228101
0.00105529
0.00172052
0.00143594
0.00104776
0.00173009
0.000304528
0.00191406
-0.000456088
0.0019669
-0.00118186
0.00188202
-0.00182027
0.00166117
-0.00232257
0.00131436
-0.00264971
0.000865795
-0.00277514
0.000344755
-0.00267763
-0.000235817
-0.0023706
-0.000788189
-0.00187413
-0.00128058
-0.00122532
-0.00167702
-0.000478475
-0.00193897
0.000304667
-0.00203914
0.00105414
-0.00195846
0.00170322
-0.00170275
0.00219112
-0.00128948
0.00247225
-0.000754208
0.00251529
-0.000143346
0.00231261
0.00051355
0.0018872
0.00109916
0.00127835
0.00158195
0.000548516
0.00190725
-0.000228119
0.00204008
-0.000966335
0.00195121
-0.00158735
0.00165564
-0.00202372
0.00118171
-0.00222962
0.000584043
-0.00217828
-8.6266e-05
-0.00188652
-0.000729092
-0.00139122
-0.00126757
-0.000757697
-0.00164152
-6.70058e-05
-0.00180364
0.000579758
-0.00171714
0.00110578
-0.00141365
0.00144193
-0.000929428
0.00154886
-0.000337234
0.00141621
0.000293418
0.00107661
0.000840011
0.00058915
0.00123572
3.49888e-05
0.00142091
-0.00048251
0.00135064
-0.000885002
0.00105944
-0.00110526
0.000590175
-0.00110663
2.55926e-05
-0.00089275
-0.000550823
-0.000504439
-0.00101394
-1.07248e-05
-0.00129884
0.000495277
-0.00135798
0.000927822
-0.00117346
0.00121317
-0.000792908
0.00130782
-0.000291514
0.00120428
0.000241891
0.000933747
0.00069594
0.000556302
0.000996957
0.000149513
0.00109383
-0.000207607
0.000979711
-0.000450676
0.000688329
-0.000541402
0.000288305
-0.000473956
-0.000133566
-0.000275192
-0.000486682
-0.000692982
0.000368799
-0.000646498
0.000746944
-0.000667981
0.00111939
-0.000656475
0.00148066
-0.000634365
0.00182403
-0.000599762
0.00214644
-0.000555768
0.00244235
-0.000497987
0.00271185
-0.000432728
0.00294867
-0.000352271
0.00315141
-0.000263479
0.00332278
-0.00016513
0.00344304
-6.65541e-05
0.0035129
2.89844e-05
0.00350093
0.000155421
0.00341529
0.000271282
0.00326449
0.000374654
0.0030561
0.000465446
0.00279943
0.00054055
0.00250459
0.000598683
0.00218305
0.000637316
0.00184573
0.00065642
0.00150427
0.000654753
0.00116907
0.000633809
0.000851059
0.000592299
0.000559087
0.00053385
0.000304803
0.000455277
9.1965e-05
0.000366686
-6.66966e-05
0.000259488
-0.00016988
0.000148682
-0.000224332
2.21279e-05
-0.00026248
-7.29578e-05
-0.000263145
-0.000183904
-0.000217893
-0.000298696
-0.00012251
-0.000413317
2.34411e-05
-0.000522939
0.000217392
-0.000625277
0.000453
-0.0007186
0.000723304
-0.000801527
0.00102107
-0.000872977
0.00134107
-0.000932161
0.00167782
-0.00097802
0.00202539
-0.00101021
0.00237816
-0.0010279
0.00273068
-0.00103106
0.00307653
-0.00101873
0.00341152
-0.000991103
0.00373073
-0.000947962
0.00402874
-0.000889977
0.00429988
-0.000817057
0.00454037
-0.000731575
0.00474574
-0.000630962
0.00491531
-0.000517742
0.00504084
-0.00038992
0.00512245
-0.000258206
0.0051593
-0.000112252
0.00513278
6.1239e-05
0.00505042
0.00022817
0.00491532
0.000393461
0.00472767
0.000559437
0.00448737
0.000725068
0.00419441
0.000889592
0.00384957
0.00105069
0.00345445
0.00120631
0.00301185
0.00135307
0.00252545
0.00148909
0.00199982
0.0016112
0.00144037
0.00171724
0.000852961
0.00180466
0.000244828
0.00187052
-0.000376443
0.0019131
-0.00100311
0.0019315
-0.00162632
0.00192218
-0.0022368
0.0018845
-0.00282562
0.00181877
-0.00338269
0.00172252
-0.00389856
0.00159606
-0.00436424
0.00144105
-0.00477049
0.00125795
-0.00510915
0.00104807
-0.00537271
0.00081409
-0.00555262
0.000556841
-0.00564304
0.000281881
-0.00563851
-1.67781e-05
-0.00553789
-0.000328487
-0.00534092
-0.000635067
-0.0050479
-0.000937212
-0.00466101
-0.00123075
-0.00418456
-0.0015103
-0.0036261
-0.00176906
-0.00299331
-0.00200194
-0.00229805
-0.00220012
-0.00155288
-0.00235891
-0.000772678
-0.00247149
2.63201e-05
-0.00253382
0.000826159
-0.00254044
0.00160863
-0.00248995
0.00235485
-0.0023802
0.00304513
-0.00220954
0.00366113
-0.00198187
0.00418686
-0.00169925
0.0046051
-0.00136675
0.0049004
-0.000988887
0.00506449
-0.000579939
0.00509362
-0.000147121
0.00497164
0.000327886
0.0047086
0.000778521
0.00430863
0.00121179
0.00377981
0.00161808
0.00313687
0.00198088
0.00239711
0.00228833
0.00158342
0.00252614
0.000723174
0.00268099
-0.00015416
0.00274539
-0.00101835
0.00271263
-0.00183583
0.00257868
-0.00257686
0.0023471
-0.00321079
0.0020208
-0.00371019
0.00160851
-0.00405318
0.00112577
-0.0042186
0.000586969
-0.0041922
7.45782e-06
-0.0039846
-0.000590123
-0.00359749
-0.00115218
-0.00304329
-0.00167071
-0.00234768
-0.00211644
-0.00154229
-0.00246706
-0.000664597
-0.00269992
0.000242224
-0.00279866
0.00112864
-0.00274871
0.00194725
-0.00255004
0.0026513
-0.00220712
0.0031997
-0.00173492
0.00355899
-0.00115655
0.0037013
-0.00049814
0.00361569
0.00022159
0.0033069
0.000924417
0.00278968
0.00157251
0.0020929
0.00213272
0.00126147
0.00256152
0.000347916
0.00282762
-0.000586754
0.00290157
-0.00147436
0.00276963
-0.00225169
0.0024385
-0.00286006
0.00192273
-0.00324901
0.00125475
-0.00339138
0.000487117
-0.0032634
-0.000363794
-0.00287971
-0.00117187
-0.00226529
-0.001895
-0.00146813
-0.00247418
-0.000554588
-0.00285251
0.000402337
-0.00299607
0.00131214
-0.00286825
0.00209397
-0.00248459
0.0026771
-0.0018726
0.00300445
-0.00108156
0.00304331
-0.000182206
0.00278636
0.000770495
0.0022601
0.00162543
0.00151558
0.00232646
0.000627157
0.00279567
-0.000310595
0.00297783
-0.00119567
0.00283628
-0.00193267
0.00239264
-0.00244111
0.00169015
-0.00266638
0.000809318
-0.00258195
-0.000170698
-0.00220902
-0.00110202
-0.00159419
-0.00188239
-0.000819187
-0.00241653
1.32801e-05
-0.00263611
0.000790927
-0.00249478
0.0014112
-0.00203392
0.00179513
-0.00131336
0.00189592
-0.000438022
0.0017089
0.000480439
0.00127361
0.0012753
0.000665568
0.00184376
-1.26943e-05
0.00209917
-0.000645954
0.00198389
-0.00113031
0.0015438
-0.00138748
0.000847347
-0.00137507
1.31803e-05
-0.00110918
-0.000816716
-0.000636571
-0.00148655
-4.49341e-05
-0.00189047
0.000556173
-0.00195908
0.0010606
-0.00167789
0.00138332
-0.00111562
0.00147586
-0.000384054
0.00133494
0.000382808
0.00100067
0.00103021
0.000548051
0.00144958
6.99265e-05
0.00157195
-0.000340228
0.00138987
-0.000609528
0.000957629
-0.000695969
0.000374746
-0.000595706
-0.000233829
-0.000342171
-0.000740217
-0.00103515
0.000799973
-0.00144647
0.00161044
-0.00147845
0.00240786
-0.0014539
0.00317822
-0.00140472
0.0038962
-0.00131774
0.00453438
-0.00119395
0.00504334
-0.00100695
0.00540192
-0.000791308
0.00554657
-0.00049692
0.00548187
-0.000198782
0.00521062
0.000106116
0.00480072
0.000343351
0.0042512
0.000578504
0.00360878
0.000797836
0.00288243
0.000997635
0.00208583
0.00117125
0.00123646
0.00131482
0.000351747
0.00142526
-0.000549992
0.00150042
-0.00145007
0.0015374
-0.00233026
0.00153661
-0.0031667
0.00149119
-0.00394142
0.00140853
-0.00463037
0.00128125
-0.00522177
0.00112526
-0.00569424
0.000927743
-0.00604747
0.000719914
-0.00626706
0.000479081
-0.00637696
0.000258576
-0.00638796
3.31306e-05
-0.00622017
-0.000240748
-0.00593756
-0.000466509
-0.00557627
-0.000659987
-0.00515585
-0.00083374
-0.00468177
-0.000997016
-0.00415677
-0.00115028
-0.00358618
-0.00128919
-0.00297723
-0.00141048
-0.00233795
-0.00151225
-0.001677
-0.00159311
-0.00100098
-0.00165404
-0.000321718
-0.00168948
0.000355231
-0.00170485
0.00101912
-0.00169495
0.00166384
-0.00166345
0.00228495
-0.00161221
0.00287097
-0.00153399
0.00341532
-0.00143433
0.0039132
-0.00131493
0.0043587
-0.00117708
0.00474896
-0.00102122
0.00507582
-0.000844601
0.00534367
-0.000657771
0.0055345
-0.000449043
0.00565402
-0.000231764
0.00571558
-3.19977e-07
0.00570691
0.000236831
0.00562273
0.000477644
0.00546232
0.000719846
0.00522584
0.000961553
0.0049157
0.00119973
0.00453505
0.00143135
0.00408807
0.00165329
0.00357904
0.0018621
0.00301333
0.0020548
0.00239687
0.00222766
0.00173667
0.00237744
0.00104063
0.0025007
0.000317323
0.00259383
-0.000423286
0.00265371
-0.0011717
0.00267992
-0.00191628
0.00266676
-0.00264648
0.0026147
-0.00335026
0.00252255
-0.00401748
0.00238974
-0.00463554
0.00221412
-0.00519291
0.00199843
-0.00567751
0.00174255
-0.00607948
0.00145004
-0.00639106
0.00112567
-0.00660589
0.000771673
-0.00671191
0.000387902
-0.00670306
-2.56348e-05
-0.00658009
-0.000451457
-0.00634165
-0.000873502
-0.00598803
-0.00129083
-0.00552182
-0.00169696
-0.00494887
-0.00208325
-0.00427649
-0.00244144
-0.00351652
-0.00276191
-0.00268198
-0.00303467
-0.00178841
-0.00325247
-0.000854266
-0.00340564
0.000101605
-0.00348969
0.0010574
-0.00349624
0.00199061
-0.00342316
0.00287869
-0.00326828
0.00369873
-0.00302958
0.00442993
-0.00271306
0.00505049
-0.00231982
0.00553783
-0.00185408
0.00588445
-0.00133551
0.00606662
-0.000762111
0.00607917
-0.000159671
0.00592351
0.000483549
0.00559691
0.00110511
0.00510386
0.00170484
0.00445619
0.00226576
0.00367118
0.00276589
0.00277338
0.00318613
0.00179065
0.00350887
0.000753847
0.00371779
-0.000304677
0.00380392
-0.00134145
0.00374941
-0.0023233
0.00356052
-0.00320793
0.00323173
-0.00395951
0.00277237
-0.00454551
0.00219451
-0.00493905
0.00151931
-0.00512575
0.000773676
-0.00507969
-3.86024e-05
-0.00481359
-0.000856227
-0.00432916
-0.00163661
-0.00364693
-0.00235294
-0.00279349
-0.00296988
-0.00180731
-0.00345323
-0.000737156
-0.00377007
0.000360714
-0.00389653
0.00143181
-0.0038198
0.00241866
-0.00353689
0.00326355
-0.003052
0.00391683
-0.00238821
0.00433572
-0.00157544
0.00449769
-0.000660113
0.00438149
0.000337789
0.00399711
0.0013088
0.00335916
0.00221046
0.00250697
0.00298491
0.0014934
0.00357509
0.000385445
0.00393557
-0.00074522
0.00403223
-0.00181521
0.00383962
-0.00274736
0.00337065
-0.00347268
0.00264805
-0.00393166
0.00171373
-0.00408757
0.000643031
-0.00392216
-0.000529207
-0.00344876
-0.00164528
-0.00269977
-0.00264399
-0.0017332
-0.00344075
-0.000627175
-0.00395854
0.000518892
-0.00414214
0.00160856
-0.00395793
0.0025412
-0.00341723
0.0032295
-0.00256089
0.00360523
-0.00145729
0.00363725
-0.000214227
0.00331612
0.00109163
0.00267293
0.00226862
0.001772
0.00322739
0.000706142
0.00386153
-0.00041382
0.00409779
-0.00146355
0.00388601
-0.00232939
0.00325848
-0.00291637
0.00227713
-0.00316027
0.00105322
-0.00303649
-0.000294483
-0.00256783
-0.00157068
-0.00181631
-0.00263391
-0.000881053
-0.00335178
0.000114074
-0.00363123
0.00103496
-0.00341567
0.00175896
-0.00275792
0.002193
-0.0017474
0.00228342
-0.000528442
0.00203258
0.000731278
0.00148785
0.00182002
0.00074341
0.0025882
-7.63387e-05
0.00291892
-0.000833391
0.00274095
-0.00140404
0.00211445
-0.00170005
0.00114336
-0.00167314
-1.3731e-05
-0.001344
-0.00114585
-0.000774685
-0.00205587
-7.21876e-05
-0.00259297
0.000634384
-0.00266566
0.00121772
-0.00226122
0.00158004
-0.00147795
0.00166771
-0.000471722
0.00148284
0.000567679
0.0010764
0.00143664
0.000540021
0.00198596
-1.64125e-05
0.00212838
-0.00048463
0.00185808
-0.000781663
0.00125466
-0.000862733
0.000455817
-0.000726631
-0.000369931
-0.000414121
-0.00105273
-0.00144927
0.00104476
-0.00249123
0.0020938
-0.00252749
0.00314222
-0.00250232
0.00418739
-0.00244989
0.00522542
-0.00235577
0.00627632
-0.00224485
0.00728196
-0.00201258
0.0082699
-0.00177925
0.00905192
-0.00127894
0.00965828
-0.000805143
0.0100331
-0.000268712
0.0101264
0.000250035
0.00990445
0.000800478
0.00940763
0.00129465
0.00867144
0.00173382
0.00773621
0.00210648
0.00664116
0.00240988
0.00543014
0.00263627
0.00414218
0.00278838
0.00282334
0.00285623
0.00151411
0.00284583
0.00025907
0.00274623
-0.000912294
0.0025799
-0.00195343
0.00232238
-0.00285568
0.0020275
-0.00355451
0.00162658
-0.00409201
0.00125742
-0.00435721
0.000744278
-0.00450704
0.000408402
-0.00445862
-1.52907e-05
-0.00439113
-0.000308234
-0.00422068
-0.000636957
-0.00394174
-0.000938931
-0.00355138
-0.0012241
-0.0030667
-0.0014817
-0.00250759
-0.0017094
-0.00189165
-0.00190513
-0.00123332
-0.00206881
-0.000545803
-0.00219977
0.000158929
-0.00229785
0.000868845
-0.00236395
0.00157771
-0.00239834
0.00227384
-0.00240098
0.00295212
-0.00237324
0.00360417
-0.00231551
0.00422075
-0.00222878
0.00480093
-0.00211417
0.00533684
-0.00197023
0.00582206
-0.00180015
0.00624741
-0.00160243
0.00661169
-0.0013855
0.00691341
-0.00114632
0.00714095
-0.000885317
0.00729496
-0.000603052
0.00738037
-0.000317174
0.00737445
5.60207e-06
0.00728683
0.000324453
0.0071199
0.00064457
0.00687334
0.000966405
0.00654555
0.00128934
0.00613846
0.00160683
0.00565343
0.00191637
0.00509435
0.00221237
0.0044661
0.00249036
0.00377407
0.00274683
0.00302589
0.00297583
0.00222874
0.00317459
0.00139258
0.00333687
0.00052725
0.00345916
-0.000356291
0.00353725
-0.00124689
0.00357052
-0.00213292
0.00355279
-0.00299915
0.00348093
-0.00383397
0.00335736
-0.0046225
0.00317828
-0.00535232
0.00294394
-0.0060082
0.00265431
-0.0065808
0.00231515
-0.00705781
0.00192705
-0.00742151
0.00148937
-0.00766989
0.00102005
-0.00779451
0.000512523
-0.00778328
-3.68642e-05
-0.00763935
-0.000595388
-0.00735923
-0.00115362
-0.00694349
-0.00170658
-0.0063953
-0.00224514
-0.00572243
-0.00275612
-0.00493359
-0.00323029
-0.00404302
-0.00365248
-0.00306565
-0.00401204
-0.00201984
-0.00429828
-0.000926747
-0.00449873
0.000189515
-0.00460595
0.00130453
-0.00461125
0.00239224
-0.00451087
0.00342593
-0.00430197
0.0043794
-0.00398305
0.00522658
-0.00356025
0.00593905
-0.00303228
0.0065022
-0.00241724
0.00688667
-0.00171998
0.00709211
-0.000967546
0.00709551
-0.000163073
0.00689673
0.00068233
0.0065
0.00150185
0.00591004
0.00229479
0.00514256
0.00303324
0.00421503
0.00369342
0.00315514
0.00424602
0.00199419
0.00466982
0.000771598
0.00494039
-0.00046826
0.00504378
-0.00168546
0.0049666
-0.00282931
0.00470438
-0.00385923
0.00426165
-0.00473334
0.00364648
-0.00541268
0.00287384
-0.00586519
0.00197182
-0.00605981
0.000968293
-0.00599163
-0.000106776
-0.00566275
-0.00118511
-0.00507945
-0.00221991
-0.00426017
-0.00317221
-0.00324055
-0.00398951
-0.00207404
-0.00461974
-0.000807826
-0.00503629
0.000492597
-0.00519696
0.00175643
-0.00508363
0.00291461
-0.00469507
0.00390295
-0.00404034
0.00466227
-0.00314753
0.00514506
-0.00205823
0.00532175
-0.000836807
0.00517134
0.000488197
0.00470434
0.0017758
0.00394089
0.00297391
0.00292517
0.00400063
0.0017208
0.00477945
0.000409149
0.00524722
-0.000921018
0.0053624
-0.00217708
0.00509568
-0.00326604
0.00445961
-0.00410857
0.00349058
-0.00463967
0.00224483
-0.00480425
0.000807607
-0.00460065
-0.000732805
-0.0040313
-0.00221462
-0.00313859
-0.0035367
-0.00199741
-0.00458193
-0.000695511
-0.00526044
0.000651739
-0.00548939
0.00192248
-0.00522867
0.00300492
-0.00449966
0.00379919
-0.00335516
0.00422967
-0.00188778
0.0042429
-0.000227455
0.00385258
0.00148195
0.00308722
0.00303397
0.0020245
0.00429011
0.000774487
0.00511155
-0.000530326
0.0054026
-0.00174684
0.00510252
-0.00274201
0.00425366
-0.00340681
0.00294193
-0.00366547
0.00131188
-0.00349817
-0.000461789
-0.00292925
-0.0021396
-0.0020351
-0.00352807
-0.000933276
-0.0044536
0.000228275
-0.00479279
0.0012932
-0.00448059
0.00212015
-0.00358487
0.00260119
-0.00222843
0.0026791
-0.000606355
0.00235902
0.00105136
0.00169967
0.00247937
0.000814826
0.00347305
-0.000149842
0.00388358
-0.001032
0.00362311
-0.00169012
0.00277257
-0.00201873
0.00147196
-0.00197368
-5.87764e-05
-0.00157659
-0.00154294
-0.000905942
-0.00272652
-8.89888e-05
-0.00340992
0.000723011
-0.00347766
0.00138377
-0.00292198
0.0017831
-0.00187727
0.00186277
-0.000551396
0.00163017
0.000800282
0.00114881
0.001918
0.000527373
0.0026074
-0.000106736
0.00276249
-0.000630698
0.00238205
-0.000953248
0.00157721
-0.00102724
0.000529813
-0.000854774
-0.000542402
-0.000484108
-0.00142339
-0.00193338
0.00243946
-0.00493069
0.00491635
-0.00500438
0.00745898
-0.00504495
0.0101145
-0.00510544
0.0129339
-0.00517515
0.0159118
-0.00522275
0.0187364
-0.00483721
0.0209098
-0.00395264
0.0212341
-0.00160327
0.0204382
-9.18084e-06
0.0190108
0.0011587
0.0171829
0.00207795
0.0150867
0.00289667
0.0127724
0.00360889
0.0102929
0.00421332
0.00770065
0.00469874
0.00504604
0.00506449
0.00237162
0.00531069
-0.000277288
0.00543729
-0.00286405
0.00544299
-0.00535288
0.00533467
-0.00766309
0.00505644
-0.00974845
0.00466525
-0.0115163
0.00409019
-0.0129174
0.00342866
-0.0138323
0.00254143
-0.0142578
0.0016829
-0.0140509
0.00053739
-0.0136001
-4.23796e-05
-0.0128959
-0.000719446
-0.0120245
-0.0011797
-0.0110677
-0.00159372
-0.0100439
-0.00196275
-0.00896697
-0.00230101
-0.00785114
-0.00259753
-0.00671127
-0.00284926
-0.00555696
-0.00305944
-0.00439856
-0.00322722
-0.00324486
-0.00335347
-0.00210515
-0.00343755
-0.000990596
-0.00347851
9.39115e-05
-0.00348285
0.00113923
-0.0034463
0.00213662
-0.00337063
0.00307926
-0.00325815
0.00395941
-0.00310893
0.00477128
-0.00292604
0.00551049
-0.00270944
0.00617275
-0.00246241
0.0067568