# I ()            
# Time            	min               	max               	average           
0                 	5.5901699437e-02	1.0000000000e+00	5.5901699437e-02
1                 	5.0000000000e-02	1.0000000000e+00	5.0164493005e-02
