/*--------------------------------*- C++ -*----------------------------------*\
  =========                 |
  \\      /  F ield         | OpenFOAM: The Open Source CFD Toolbox
   \\    /   O peration     | Website:  https://openfoam.org
    \\  /    A nd           | Version:  12
     \\/     M anipulation  |
\*---------------------------------------------------------------------------*/
FoamFile
{
    format      ascii;
    class       volVectorField;
    location    "6.64";
    object      zeta;
}
// * * * * * * * * * * * * * * * * * * * * * * * * * * * * * * * * * * * * * //

dimensions      [0 1 0 0 0 0 0];

internalField   uniform (0 0 0);

boundaryField
{
    freeSurface
    {
        type            calculated;
        value           nonuniform List<vector> 
181
(
(0 -0.00227501 0)
(0 -0.00227473 0)
(0 -0.00227379 0)
(0 -0.0022743 0)
(0 -0.00227282 0)
(0 -0.00227348 0)
(0 -0.00227247 0)
(0 -0.00227261 0)
(0 0.000236436 0)
(0 0.000226812 0)
(0 0.000214046 0)
(0 0.000199165 0)
(0 0.000174421 0)
(0 0.000146307 0)
(0 0.000112372 0)
(0 7.42071e-05 0)
(0 3.19877e-05 0)
(0 -1.36885e-05 0)
(0 -6.23636e-05 0)
(0 -0.000113499 0)
(0 -0.000166629 0)
(0 -0.000221038 0)
(0 -0.000276144 0)
(0 -0.000331224 0)
(0 -0.000385714 0)
(0 -0.000439002 0)
(0 -0.00049053 0)
(0 -0.000539768 0)
(0 -0.000586145 0)
(0 -0.000629119 0)
(0 -0.000668145 0)
(0 -0.000702696 0)
(0 -0.000732304 0)
(0 -0.000756523 0)
(0 -0.000774993 0)
(0 -0.000787344 0)
(0 -0.000793309 0)
(0 -0.000792546 0)
(0 -0.000784951 0)
(0 -0.000770409 0)
(0 -0.000748872 0)
(0 -0.000720402 0)
(0 -0.00068516 0)
(0 -0.000643389 0)
(0 -0.000595392 0)
(0 -0.000541591 0)
(0 -0.000482462 0)
(0 -0.000418667 0)
(0 -0.00035087 0)
(0 -0.000279875 0)
(0 -0.000206456 0)
(0 -0.000131552 0)
(0 -5.60895e-05 0)
(0 1.88539e-05 0)
(0 9.22371e-05 0)
(0 0.000163038 0)
(0 0.000230183 0)
(0 0.000292625 0)
(0 0.00034934 0)
(0 0.000399397 0)
(0 0.000441901 0)
(0 0.000476049 0)
(0 0.000501223 0)
(0 0.000516992 0)
(0 0.000522896 0)
(0 0.00051878 0)
(0 0.000504659 0)
(0 0.000480748 0)
(0 0.00044748 0)
(0 0.000405489 0)
(0 0.000355578 0)
(0 0.000298791 0)
(0 0.000236346 0)
(0 0.000169612 0)
(0 0.000100113 0)
(0 2.94719e-05 0)
(0 -4.0598e-05 0)
(0 -0.000108386 0)
(0 -0.000172167 0)
(0 -0.00023029 0)
(0 -0.000281224 0)
(0 -0.000323551 0)
(0 -0.000356191 0)
(0 -0.000378128 0)
(0 -0.000388756 0)
(0 -0.000387853 0)
(0 -0.000375391 0)
(0 -0.000351858 0)
(0 -0.000318068 0)
(0 -0.000275152 0)
(0 -0.000224633 0)
(0 -0.000168277 0)
(0 -0.000108162 0)
(0 -4.64763e-05 0)
(0 1.43972e-05 0)
(0 7.22057e-05 0)
(0 0.000124707 0)
(0 0.000169887 0)
(0 0.000205996 0)
(0 0.000231648 0)
(0 0.000245891 0)
(0 0.000248276 0)
(0 0.000238808 0)
(0 0.00021809 0)
(0 0.000187273 0)
(0 0.000148006 0)
(0 0.000102411 0)
(0 5.29978e-05 0)
(0 2.51171e-06 0)
(0 -4.62467e-05 0)
(0 -9.05926e-05 0)
(0 -0.000128056 0)
(0 -0.000156666 0)
(0 -0.000175008 0)
(0 -0.00018242 0)
(0 -0.000178954 0)
(0 -0.000165332 0)
(0 -0.000142996 0)
(0 -0.000113852 0)
(0 -8.01651e-05 0)
(0 -4.43665e-05 0)
(0 -8.87654e-06 0)
(0 2.408e-05 0)
(0 5.26433e-05 0)
(0 7.53639e-05 0)
(0 9.12973e-05 0)
(0 0.000100039 0)
(0 0.000101672 0)
(0 9.67312e-05 0)
(0 8.61116e-05 0)
(0 7.09655e-05 0)
(0 5.2616e-05 0)
(0 3.24443e-05 0)
(0 1.17829e-05 0)
(0 -8.14784e-06 0)
(0 -2.63038e-05 0)
(0 -4.18593e-05 0)
(0 -5.42396e-05 0)
(0 -6.31133e-05 0)
(0 -6.83812e-05 0)
(0 -7.01618e-05 0)
(0 -6.87391e-05 0)
(0 -6.45402e-05 0)
(0 -5.80901e-05 0)
(0 -4.99653e-05 0)
(0 -4.07678e-05 0)
(0 -3.10838e-05 0)
(0 -2.1457e-05 0)
(0 -1.23668e-05 0)
(0 -4.21078e-06 0)
(0 2.70387e-06 0)
(0 8.1631e-06 0)
(0 1.20482e-05 0)
(0 1.43321e-05 0)
(0 1.50696e-05 0)
(0 1.43834e-05 0)
(0 1.24559e-05 0)
(0 9.50931e-06 0)
(0 5.79306e-06 0)
(0 1.57279e-06 0)
(0 -2.88834e-06 0)
(0 -7.33579e-06 0)
(0 -1.15408e-05 0)
(0 -1.53018e-05 0)
(0 -1.84526e-05 0)
(0 -2.08677e-05 0)
(0 -2.2463e-05 0)
(0 -2.31957e-05 0)
(0 -2.30688e-05 0)
(0 -2.21254e-05 0)
(0 -2.04455e-05 0)
(0 -1.81422e-05 0)
(0 -1.53535e-05 0)
(0 -1.22368e-05 0)
(0 -8.96213e-06 0)
(0 -5.70442e-06 0)
(0 -2.63684e-06 0)
(0 7.33469e-08 0)
(0 2.27201e-06 0)
(0 3.82775e-06 0)
(0 4.63898e-06 0)
)
;
    }
    walls
    {
        type            calculated;
        value           uniform (0 0 0);
    }
    floatingObject
    {
        type            calculated;
        value           uniform (0 0 0);
    }
    frontAndBack
    {
        type            empty;
    }
}


// ************************************************************************* //
