/*--------------------------------*- C++ -*----------------------------------*\
  =========                 |
  \\      /  F ield         | OpenFOAM: The Open Source CFD Toolbox
   \\    /   O peration     | Website:  https://openfoam.org
    \\  /    A nd           | Version:  12
     \\/     M anipulation  |
\*---------------------------------------------------------------------------*/
FoamFile
{
    format      ascii;
    class       surfaceScalarField;
    location    "9.22";
    object      phi;
}
// * * * * * * * * * * * * * * * * * * * * * * * * * * * * * * * * * * * * * //

dimensions      [1 0 -1 0 0 0 0];

internalField   nonuniform List<scalar> 
7429
(
-0.000124117
0.000124117
-0.000249862
0.000125746
-0.000378849
0.000128987
-0.000512041
0.000133192
-0.000650403
0.000138362
-0.000794861
0.000144458
-0.0009463
0.000151439
-0.00110551
0.000159207
-0.00127319
0.00016768
-0.0014499
0.000176708
-0.00163601
0.000186112
-0.0018317
0.00019569
-0.00203699
0.000205296
-0.00225162
0.000214625
-0.00247506
0.000223436
-0.00270656
0.000231508
-0.0029451
0.000238531
-0.00318939
0.000244297
-0.00343792
0.000248531
-0.00368893
0.00025101
-0.00394045
0.000251512
-0.0041903
0.000249855
-0.00443619
0.000245888
-0.00467566
0.000239468
-0.0049062
0.000230546
-0.00512526
0.000219052
-0.00533029
0.000205031
-0.00551879
0.000188501
-0.0056884
0.000169615
-0.00583687
0.000148467
-0.00596217
0.000125299
-0.00606243
0.00010026
-0.0061362
7.37728e-05
-0.00618232
4.61177e-05
-0.00620022
1.79003e-05
-0.0061859
-1.43249e-05
-0.0061389
-4.69922e-05
-0.00606063
-7.82763e-05
-0.00595265
-0.000107974
-0.00581661
-0.000136045
-0.00565364
-0.000162971
-0.00546455
-0.000189087
-0.00525062
-0.000213928
-0.00501358
-0.000237044
-0.00475542
-0.000258155
-0.00447849
-0.000276935
-0.00418533
-0.000293156
-0.00387878
-0.000306549
-0.00356173
-0.000317047
-0.00323735
-0.000324383
-0.00290881
-0.000328537
-0.00257956
-0.000329257
-0.00225286
-0.0003267
-0.00193208
-0.000320782
-0.00162067
-0.000311406
-0.00132188
-0.000298786
-0.00103888
-0.000283004
-0.000774827
-0.000264053
-0.000533079
-0.000241748
-0.000315478
-0.000217601
-0.000125059
-0.000190418
3.65742e-05
-0.000161633
0.000167366
-0.000130792
0.000265506
-9.81394e-05
0.000330566
-6.50601e-05
0.000361587
-3.10217e-05
0.000355675
5.91284e-06
0.000315161
4.05138e-05
0.00024183
7.33308e-05
0.000136944
0.000104886
2.38557e-06
0.000134559
-0.000159504
0.00016189
-0.000346274
0.00018677
-0.000554575
0.000208301
-0.000780418
0.000225843
-0.00101945
0.00023903
-0.00126718
0.00024773
-0.00151856
0.000251379
-0.00176847
0.000249909
-0.00201145
0.000242984
-0.00224235
0.000230898
-0.00245568
0.000213332
-0.00264628
0.000190602
-0.00280921
0.000162928
-0.00293994
0.000130727
-0.00303452
9.45864e-05
-0.00308965
5.51299e-05
-0.00310268
1.30278e-05
-0.0030653
-3.73766e-05
-0.00297969
-8.5611e-05
-0.00284732
-0.000132377
-0.00267016
-0.000177155
-0.00245085
-0.000219307
-0.00219253
-0.000258328
-0.00189939
-0.000293135
-0.00157666
-0.000322726
-0.00123062
-0.000346045
-0.00086862
-0.000362
-0.000498502
-0.000370118
-0.000128867
-0.000369635
0.000231302
-0.000360169
0.00057315
-0.000341848
0.000887675
-0.000314525
0.00116659
-0.000278913
0.00140202
-0.000235436
0.00158754
-0.000185512
0.00171749
-0.000129957
0.00178851
-7.10203e-05
0.00179882
-1.031e-05
0.00174087
5.7955e-05
0.00162245
0.000118422
0.00144829
0.000174151
0.00122401
0.000224283
0.000957168
0.000266843
0.000657079
0.000300089
0.000334596
0.000322483
2.08197e-06
0.000332514
-0.000327602
0.000329684
-0.000641405
0.000313803
-0.000926764
0.000285359
-0.00117178
0.00024502
-0.00136618
0.000194398
-0.00150147
0.00013529
-0.00157228
7.08077e-05
-0.00157389
1.60696e-06
-0.00150262
-7.12622e-05
-0.00136639
-0.000136235
-0.0011717
-0.000194694
-0.0009276
-0.000244096
-0.000645553
-0.000282047
-0.000339649
-0.000305905
-2.50702e-05
-0.000314578
0.000282026
-0.000307096
0.000566198
-0.000284171
0.000813163
-0.000246966
0.00101067
-0.000197507
0.0011494
-0.000138729
0.00122391
-7.45139e-05
0.00123297
-9.06005e-06
0.00117424
5.8736e-05
0.00105905
0.000115187
0.000897444
0.000161605
0.000702491
0.000194953
0.000489594
0.000212897
0.000275322
0.000214272
7.56953e-05
0.000199626
-9.45649e-05
0.00017026
-0.000223721
0.000129156
-0.000303821
8.00993e-05
-0.000331436
2.76157e-05
-0.000304979
-2.64571e-05
-0.000233136
-7.18436e-05
-0.000125999
-0.000107137
3.06146e-06
-0.00012906
0.000140358
-0.000137296
0.000268812
-0.000128454
0.000374295
-0.000105483
0.000445311
-7.10161e-05
0.000474243
-2.8932e-05
0.000455662
1.85807e-05
0.000392845
6.28173e-05
0.000293171
9.96739e-05
0.000166743
0.000126428
2.66676e-05
0.000140075
-0.000112609
0.000139277
-0.000236968
0.000124359
-0.000334366
9.73977e-05
-0.000396092
6.1726e-05
-0.000417657
2.15647e-05
-0.000397355
-2.03022e-05
-0.000340822
-5.65329e-05
-0.000255946
-8.48758e-05
-0.000153307
-0.000102639
-4.48478e-05
-0.000108459
5.7379e-05
-0.000102227
0.000142681
-8.53025e-05
0.000203038
-6.03565e-05
0.000233771
-3.07328e-05
0.000233133
6.38247e-07
0.000204073
2.90598e-05
0.00015248
5.15932e-05
8.63683e-05
6.61113e-05
1.48538e-05
7.15145e-05
-5.21564e-05
6.70102e-05
-0.000106363
5.42062e-05
-0.000141145
3.47819e-05
-0.000152708
1.15633e-05
-0.000138831
-1.38765e-05
-0.000102549
-3.62823e-05
-4.86295e-05
-5.39196e-05
1.61076e-05
-6.47371e-05
8.33868e-05
-6.72792e-05
0.000144384
-6.0997e-05
0.000191032
-4.66486e-05
0.000217059
-2.60262e-05
0.000218383
-1.32416e-06
0.000193512
2.48712e-05
0.000144896
4.86151e-05
7.77634e-05
6.7133e-05
7.77634e-05
-4.23112e-05
0.000166428
-8.49029e-05
0.000168337
-0.000131763
0.000175846
-0.000184929
0.000186358
-0.000246441
0.000199873
-0.000318312
0.000216329
-0.000402515
0.000235641
-0.000500914
0.000257607
-0.000615194
0.00028196
-0.000746717
0.000308232
-0.000896558
0.000335953
-0.00106535
0.000364481
-0.00125331
0.000393259
-0.00146021
0.000421518
-0.00168535
0.000448581
-0.0019276
0.000473755
-0.00218531
0.000496242
-0.00245657
0.000515562
-0.00273888
0.000530839
-0.00302948
0.000541611
-0.00332525
0.000547281
-0.00362277
0.00054737
-0.00391843
0.000541551
-0.00420846
0.000529499
-0.0044893
0.000511388
-0.00475689
0.000486643
-0.00500779
0.000455924
-0.0052385
0.000419214
-0.00544577
0.000376884
-0.00562638
0.000329078
-0.00577742
0.000276342
-0.0058964
0.000219236
-0.0059812
0.000158577
-0.00602974
9.46549e-05
-0.00604005
2.82131e-05
-0.00602052
-3.38605e-05
-0.00596978
-9.77311e-05
-0.00588568
-0.00016237
-0.00576737
-0.000226286
-0.00561485
-0.000288567
-0.00542949
-0.000348333
-0.00521359
-0.00040499
-0.00496971
-0.0004578
-0.00470049
-0.000506273
-0.00440877
-0.000549866
-0.00409766
-0.000588051
-0.00377028
-0.000620537
-0.00343003
-0.000646797
-0.00308042
-0.00066666
-0.00272506
-0.000679739
-0.00236768
-0.000685921
-0.0020118
-0.000685132
-0.00166131
-0.000677187
-0.00131975
-0.000662345
-0.000990981
-0.000640175
-0.000678165
-0.000611602
-0.000384987
-0.000576183
-0.000114344
-0.000534696
0.000131129
-0.000487221
0.00034813
-0.000434602
0.000534412
-0.0003767
0.000686796
-0.000314018
0.000803907
-0.000247903
0.00088511
-0.000179342
0.000930032
-0.000109982
0.000936792
-3.77811e-05
0.000903353
3.93514e-05
0.000833512
0.000110355
0.000728063
0.00017878
0.00058855
0.000244399
0.000416934
0.000306175
0.000216062
0.000362761
-1.04412e-05
0.000413273
-0.000259324
0.000457184
-0.000526671
0.00049319
-0.000807108
0.000519467
-0.00109565
0.000536273
-0.0013869
0.000542628
-0.00167503
0.000538039
-0.00195416
0.000522118
-0.0022186
0.000495332
-0.00246231
0.000457042
-0.0026798
0.000408091
-0.00286544
0.000348567
-0.00301473
0.000280023
-0.00312322
0.000203079
-0.00318743
0.000119333
-0.00320476
3.03617e-05
-0.00316744
-7.46952e-05
-0.00307844
-0.000174613
-0.00293883
-0.000271986
-0.00275032
-0.000365669
-0.00251538
-0.000454245
-0.00223752
-0.000536187
-0.00192169
-0.000608966
-0.00157389
-0.000670523
-0.00120118
-0.000718757
-0.000811799
-0.000751383
-0.000414229
-0.000767688
-1.80864e-05
-0.000765777
0.00036682
-0.000745075
0.000730692
-0.000705721
0.00106373
-0.000647565
0.00135719
-0.000572371
0.0016029
-0.000481147
0.00179311
-0.000375722
0.00192322
-0.000260061
0.00198868
-0.000136482
0.00198333
-4.9634e-06
0.00191045
0.000130835
0.0017728
0.000256069
0.00157481
0.000372148
0.0013228
0.000476293
0.00102568
0.000563958
0.000693789
0.000631983
0.000339741
0.000676532
-2.35935e-05
0.000695848
-0.000381932
0.000688022
-0.000721152
0.000653023
-0.0010275
0.000591707
-0.00128854
0.000506063
-0.00149286
0.000398718
-0.00163238
0.00027481
-0.00170046
0.000138881
-0.0016913
-7.54784e-06
-0.00160748
-0.00015508
-0.00145358
-0.000290134
-0.00123708
-0.000411197
-0.000968249
-0.000512928
-0.0006602
-0.000590096
-0.00032872
-0.000637385
9.83384e-06
-0.000653132
0.000337871
-0.000635133
0.000638318
-0.000584619
0.00089618
-0.000504828
0.00109809
-0.000399417
0.00123508
-0.000275717
0.00130148
-0.00014091
0.00129288
-4.62274e-07
0.00121654
0.00013507
0.00107955
0.000252185
0.000893649
0.000347502
0.000673878
0.000414725
0.000437596
0.000449179
0.000203019
0.000448849
-1.21922e-05
0.000414837
-0.000192318
0.000350386
-0.000324818
0.000261656
-0.000401678
0.000156959
-0.000420015
4.59531e-05
-0.000379595
-6.68776e-05
-0.000290084
-0.000161354
-0.000162781
-0.00023444
-1.25541e-05
-0.000279288
0.000142503
-0.000292354
0.000286097
-0.000272047
0.000402646
-0.000222033
0.000479763
-0.000148133
0.00050974
-5.89082e-05
0.000487731
4.05889e-05
0.000418352
0.000132197
0.000309284
0.000208742
0.000172252
0.00026346
2.19298e-05
0.000290398
-0.000125552
0.000286758
-0.000255483
0.00025429
-0.000355383
0.000197298
-0.000416331
0.000122674
-0.000434143
3.93763e-05
-0.000408409
-4.6036e-05
-0.00034516
-0.000119782
-0.000253218
-0.000176818
-0.000144145
-0.000211713
-3.0664e-05
-0.00022194
7.42321e-05
-0.000207123
0.000160215
-0.000171286
0.000219179
-0.00011932
0.000246731
-5.82855e-05
0.000242061
5.3081e-06
0.000208738
6.23833e-05
0.000152894
0.000107437
8.28162e-05
0.000136189
8.11873e-06
0.000146212
-6.05091e-05
0.000135638
-0.000115452
0.00010915
-0.000150034
6.93639e-05
-0.0001606
2.21294e-05
-0.000145759
-2.87175e-05
-0.000108382
-7.36592e-05
-5.34333e-05
-0.000108869
1.20689e-05
-0.000130239
7.98223e-05
-0.000135033
0.00014098
-0.000122155
0.000187687
-9.33558e-05
0.000213661
-5.20001e-05
0.00021502
-2.68369e-06
0.000190614
4.9278e-05
0.000142745
9.64842e-05
7.66239e-05
0.000133254
0.000154387
7.34848e-05
9.29428e-05
0.000143133
9.86886e-05
0.000204403
0.000114576
0.00025224
0.000138521
0.000281511
0.000170602
0.000287164
0.000210676
0.000264285
0.00025852
0.000208588
0.000313304
0.000116535
0.000374012
-1.4412e-05
0.000439179
-0.000185989
0.00050753
-0.000399129
0.00057762
-0.000653914
0.000648045
-0.000949317
0.000716921
-0.00128354
0.000782804
-0.0016536
0.000843819
-0.00205577
0.000898412
-0.00248529
0.000945077
-0.00293681
0.000982355
-0.00340401
0.00100882
-0.00388017
0.00102344
-0.00435812
0.00102532
-0.00483051
0.00101394
-0.00528984
0.000988833
-0.00572856
0.000950103
-0.00613977
0.000897859
-0.00651707
0.000833218
-0.00685444
0.000756583
-0.00714719
0.000669635
-0.00739137
0.000573259
-0.00758441
0.000469387
-0.00772462
0.000359443
-0.00781129
0.000245245
-0.00784555
0.000128913
-0.00783144
1.41108e-05
-0.00774457
-0.000120731
-0.00760029
-0.000242011
-0.0074072
-0.000355458
-0.00717111
-0.000462376
-0.00689471
-0.000564973
-0.00658027
-0.000662769
-0.00623092
-0.000754345
-0.00585038
-0.000838334
-0.00544252
-0.000914135
-0.00501161
-0.000980777
-0.004562
-0.00103766
-0.00409846
-0.00108407
-0.00362547
-0.00111979
-0.00314743
-0.00114469
-0.00266885
-0.00115832
-0.00219411
-0.00116067
-0.00172813
-0.00115111
-0.00127523
-0.00113008
-0.000840683
-0.0010969
-0.000427337
-0.00105352
-3.83891e-05
-0.00100055
0.000320206
-0.000934778
0.000647247
-0.000861736
0.000936832
-0.000776806
0.00118806
-0.000685831
0.00139835
-0.00058699
0.00156577
-0.000481438
0.00168815
-0.000370281
0.00176264
-0.000253829
0.00179075
-0.000138096
0.00176888
-1.59087e-05
0.00170403
0.000104204
0.00159391
0.000220474
0.00143953
0.000333155
0.00124342
0.000440515
0.00100863
0.000540961
0.000738852
0.000632539
0.000438486
0.00071364
0.000112831
0.000782839
-0.000232332
0.000838353
-0.000592228
0.000879363
-0.000960209
0.000904253
-0.00132968
0.000912101
-0.00169342
0.000901774
-0.00204463
0.000873335
-0.00237607
0.000826774
-0.00268068
0.000761649
-0.0029516
0.000679011
-0.00318314
0.000580106
-0.00336898
0.000465866
-0.00350421
0.000338307
-0.0035845
0.000199618
-0.0036071
5.29671e-05
-0.00356492
-0.00011688
-0.00346135
-0.000278185
-0.00329738
-0.000435948
-0.0030747
-0.000588348
-0.00279622
-0.000732729
-0.00246645
-0.000865955
-0.00209177
-0.000983647
-0.00167964
-0.00108265
-0.00123881
-0.00115959
-0.000779303
-0.00121089
-0.000311695
-0.0012353
0.000152456
-0.00122993
0.000601478
-0.0011941
0.00102417
-0.00112841
0.00140892
-0.00103232
0.0017445
-0.000907953
0.00202154
-0.000758185
0.00223193
-0.000586113
0.00236903
-0.000397163
0.00242768
-0.000195132
0.0024024
2.03171e-05
0.00229942
0.000233821
0.00212041
0.000435077
0.00187021
0.000622344
0.00155717
0.000789336
0.00119235
0.00092878
0.000788749
0.00103558
0.000361011
0.00110427
-7.46664e-05
0.00113153
-0.000501315
0.00111467
-0.000902219
0.00105393
-0.00126091
0.000950402
-0.00156297
0.000808124
-0.00179539
0.000631131
-0.00194865
0.000428071
-0.00201522
0.000205453
-0.00198994
-3.28302e-05
-0.00187809
-0.000266923
-0.00168402
-0.000484211
-0.00141698
-0.000678233
-0.00108992
-0.000839986
-0.000719837
-0.000960182
-0.000324821
-0.0010324
7.36093e-05
-0.00105156
0.000455594
-0.00101712
0.000800793
-0.000929818
0.00109126
-0.00079529
0.00131277
-0.000620935
0.00145406
-0.000416998
0.00150945
-0.000196307
0.00147668
3.23073e-05
0.00136499
0.000246764
0.00118287
0.000434302
0.000945672
0.000584701
0.0006721
0.000688297
0.000383873
0.000737406
0.00010242
0.000730302
-0.000150579
0.000667837
-0.000356955
0.000556762
-0.000502438
0.000407139
-0.000578107
0.000232628
-0.000581826
4.96726e-05
-0.000516293
-0.000132411
-0.000392414
-0.000285233
-0.000225269
-0.000401584
-3.35251e-05
-0.000471032
0.000160858
-0.000486736
0.000337643
-0.000448833
0.000478506
-0.000362896
0.000569317
-0.000238944
0.000601314
-9.09053e-05
0.000571414
7.04883e-05
0.0004855
0.000218111
0.000353403
0.000340839
0.000190135
0.000426728
1.34243e-05
0.000467108
-0.000156383
0.000456565
-0.000303392
0.000401299
-0.000413118
0.000307024
-0.000476226
0.000185783
-0.000488905
5.20544e-05
-0.000452303
-8.26378e-05
-0.000374054
-0.000198031
-0.000264945
-0.000285926
-0.00013898
-0.000337678
-1.05128e-05
-0.000350407
0.000105238
-0.000322874
0.00019746
-0.000263507
0.000258069
-0.000179929
0.000282555
-8.27715e-05
0.000271292
1.65706e-05
0.000228763
0.000104912
0.00016244
0.000173761
8.20378e-05
0.000216591
-1.02736e-06
0.000229277
-7.72126e-05
0.000211823
-0.00013676
0.000168697
-0.000173097
0.000105701
-0.000182635
3.16675e-05
-0.000165125
-4.6228e-05
-0.000123479
-0.000115305
-6.32817e-05
-0.000169066
7.65757e-06
-0.000201179
8.04536e-05
-0.000207829
0.000145784
-0.000187485
0.000195466
-0.000143038
0.000222998
-7.95324e-05
0.000224482
-4.1671e-06
0.000199047
7.47129e-05
0.000149031
0.0001465
7.99516e-05
0.000202333
0.000234339
0.000353765
-0.000260823
0.000706129
-0.000253675
0.00104689
-0.000226183
0.00136823
-0.000182825
0.00166248
-0.000123644
0.00192396
-5.08095e-05
0.00214312
3.93673e-05
0.00229142
0.000164998
0.00236432
0.000301115
0.00235774
0.00044576
0.00226689
0.000598376
0.00209022
0.000754293
0.00182737
0.000910888
0.00148051
0.00106378
0.00105349
0.00120983
0.000552175
0.00134513
-1.57305e-05
0.00146632
-0.000640706
0.00157005
-0.00131237
0.00165401
-0.00201803
0.00171448
-0.00274472
0.00175013
-0.00347866
0.00175927
-0.00420623
0.0017415
-0.00491285
0.00169546
-0.00558586
0.00162311
-0.00621175
0.00152374
-0.0067806
0.00140207
-0.00728111
0.00125709
-0.0077079
0.00109643
-0.00805337
0.000918729
-0.00831552
0.000731533
-0.00849179
0.000535716
-0.00858156
0.000335018
-0.00858354
0.000130891
-0.00850963
-5.98025e-05
-0.00838532
-0.000245039
-0.008199
-0.000428336
-0.0079489
-0.000605556
-0.00763717
-0.000774108
-0.00726982
-0.000932325
-0.00685401
-0.00107858
-0.00639628
-0.00121207
-0.00590308
-0.00133154
-0.00538072
-0.0014365
-0.00483509
-0.0015264
-0.00427246
-0.0016003
-0.00369824
-0.00165829
-0.00311789
-0.00170015
-0.00253752
-0.00172506
-0.00196242
-0.00173342
-0.00139816
-0.00172492
-0.000850323
-0.00169895
-0.000322611
-0.00165779
0.000181605
-0.00160111
0.000654925
-0.00152684
0.00109371
-0.00143933
0.00149361
-0.00133468
0.00185137
-0.0012195
0.00216465
-0.00109008
0.0024275
-0.000948682
0.00263828
-0.000797769
0.00279643
-0.000639585
0.00289838
-0.000472232
0.00294493
-0.000300387
0.00293234
-0.000125501
0.00286272
5.37158e-05
0.00273908
0.000227838
0.00256116
0.000398391
0.00233121
0.000563113
0.00205234
0.000719377
0.0017281
0.000865203
0.00136336
0.000997284
0.000963735
0.00111326
0.000534778
0.0012118
8.29442e-05
0.00129019
-0.000382906
0.00134521
-0.000856225
0.00137757
-0.00132858
0.00138445
-0.00179146
0.00136465
-0.00223618
0.00131806
-0.00265457
0.00124516
-0.0030378
0.00114488
-0.00337772
0.00101893
-0.00366628
0.000868664
-0.00389695
0.000696537
-0.00406364
0.000505002
-0.00416173
0.000297703
-0.00418852
7.97595e-05
-0.00413767
-0.000167727
-0.00401206
-0.0004038
-0.00381239
-0.000635616
-0.00354063
-0.000860111
-0.00320106
-0.0010723
-0.00279941
-0.0012676
-0.00234396
-0.0014391
-0.00184404
-0.00158257
-0.00131049
-0.00169314
-0.000755783
-0.0017656
-0.000192701
-0.00179838
0.000364617
-0.00178725
0.000901551
-0.00173103
0.00140333
-0.00163019
0.00185623
-0.00148521
0.00224881
-0.00130054
0.00256764
-0.00107701
0.00280491
-0.000823377
0.00295111
-0.000543364
0.0030015
-0.00024552
0.00295241
6.94031e-05
0.0028093
0.000376936
0.00257389
0.000670487
0.00225369
0.00094254
0.00185911
0.00118392
0.00140408
0.00138381
0.000904959
0.00153471
0.000379748
0.00162948
-0.000151757
0.00166303
-0.000668739
0.00163165
-0.00115079
0.00153598
-0.00157848
0.00137809
-0.00193404
0.00116369
-0.00220305
0.000900136
-0.00237243
0.00059745
-0.00243736
0.00027038
-0.00239091
-7.92746e-05
-0.00224008
-0.000417755
-0.00199096
-0.000733334
-0.00165505
-0.00101414
-0.00124972
-0.00124531
-0.000795758
-0.00141414
-0.000316966
-0.00151119
0.000162716
-0.00153124
0.000616797
-0.0014712
0.0010219
-0.00133492
0.00135682
-0.00113021
0.00160356
-0.000867671
0.0017512
-0.000564637
0.00179419
-0.000239296
0.00173023
9.62605e-05
0.00157086
0.000406134
0.00132882
0.000676347
0.00102346
0.000890061
0.00067887
0.00103288
0.000321591
0.00109468
-2.15437e-05
0.00107344
-0.000324636
0.00097093
-0.000565702
0.000797827
-0.000728262
0.0005697
-0.000802647
0.000307013
-0.000785832
3.28582e-05
-0.000686265
-0.000231978
-0.000516598
-0.0004549
-0.000296691
-0.000621491
-5.1135e-05
-0.000716588
0.000194577
-0.000732449
0.000414323
-0.000668578
0.000585924
-0.000534497
0.000693051
-0.00034607
0.000726225
-0.000124079
0.000684359
0.000112354
0.000574761
0.000327709
0.000410939
0.00050466
0.000212307
0.000625361
1.11319e-06
0.000678302
-0.000199519
0.000657198
-0.000369365
0.000571145
-0.000492378
0.000430037
-0.000558133
0.000251537
-0.000563337
5.72591e-05
-0.000512247
-0.000133728
-0.0004136
-0.000296678
-0.000281931
-0.000417594
-0.000133358
-0.000486251
1.38473e-05
-0.000497613
0.000144831
-0.000453857
0.000246046
-0.000364723
0.000308567
-0.00024245
0.000329321
-0.000103525
0.000309672
3.62191e-05
0.000255297
0.000159287
0.000175485
0.000253573
8.20018e-05
0.000310074
-1.34185e-05
0.000324697
-9.87763e-05
0.000297181
-0.000164242
0.000234162
-0.00020299
0.000144449
-0.00021118
3.98582e-05
-0.000189933
-6.74754e-05
-0.000142238
-0.000163001
-7.4804e-05
-0.0002365
3.69873e-06
-0.000279681
8.35088e-05
-0.000287639
0.000154675
-0.000258651
0.000208486
-0.000196848
0.000238183
-0.00010923
0.000239699
-5.68314e-06
0.000212456
0.000101956
0.000159012
0.000199944
8.53085e-05
0.000276037
0.000319647
0.00094188
-0.0012027
0.00187393
-0.00118572
0.00276975
-0.001122
0.00360262
-0.0010157
0.00434306
-0.000864076
0.00496157
-0.000669327
0.00542788
-0.00042694
0.00573834
-0.00014546
0.00587267
0.000166783
0.00584283
0.000475602
0.00563768
0.000803518
0.0052582
0.00113377
0.00470934
0.00145975
0.00400162
0.0017715
0.00314891
0.00206253
0.00216804
0.00232601
0.00107883
0.00255553
-9.73127e-05
0.00274619
-0.00133549
0.00289219
-0.0026124
0.00299139
-0.00390194
0.00303967
-0.00517638
0.00303371
-0.006409
0.00297413
-0.00757278
0.00285923
-0.00864382
0.00269416
-0.00959819
0.00247811
-0.0104196
0.00222343
-0.0110937
0.00193127
-0.0116192
0.00162186
-0.0119945
0.00129408
-0.0122245
0.000961511
-0.0123172
0.000628421
-0.0122853
0.00030308
-0.0121367
-1.77131e-05
-0.0118541
-0.000342337
-0.011471
-0.000628164
-0.0110086
-0.000890781
-0.0104763
-0.00113781
-0.00988312
-0.00136729
-0.00923827
-0.00157717
-0.00855026
-0.00176659
-0.00782752
-0.00193481
-0.00707797
-0.00208108
-0.00630926
-0.00220521
-0.00552768
-0.00230799
-0.00474064
-0.00238734
-0.003956
-0.00244292
-0.00317964
-0.00247651
-0.00241672
-0.00248798
-0.00167185
-0.00247829
-0.000950944
-0.00244583
-0.000260202
-0.00238969
0.000396944
-0.00231494
0.00101252
-0.00221669
0.00158586
-0.00210017
0.00210839
-0.00196186
0.0025798
-0.00180609
0.0029956
-0.00163531
0.00335135
-0.00144583
0.00364441
-0.00124174
0.00387135
-0.00102471
0.00402988
-0.000798111
0.00412063
-0.000562989
0.00414326
-0.000323017
0.0040953
-7.75387e-05
0.0039806
0.000168414
0.00379815
0.000410288
0.00355006
0.000646479
0.00323978
0.000873393
0.00287152
0.00108764
0.00245007
0.00128666
0.00198145
0.0014659
0.0014725
0.00162222
0.000930519
0.00175378
0.000363939
0.00185677
-0.000218597
0.00192775
-0.000807527
0.0019665
-0.00139272
0.00196965
-0.00196412
0.00193605
-0.00251093
0.00186487
-0.00302313
0.00175736
-0.00349051
0.00161226
-0.00390403
0.00143245
-0.00425467
0.0012193
-0.00453419
0.000976057
-0.00473394
0.000704756
-0.00484826
0.000412019
-0.00487483
0.000106335
-0.00481033
-0.00023223
-0.00465563
-0.000558503
-0.00441134
-0.000879906
-0.00408031
-0.00119114
-0.0036679
-0.00148471
-0.00318194
-0.00175356
-0.00263247
-0.00198857
-0.00203117
-0.00218387
-0.00139147
-0.00233284
-0.000728443
-0.00242863
-5.78608e-05
-0.00246896
0.000602916
-0.00244802
0.0012368
-0.00236491
0.00182849
-0.00222189
0.00235997
-0.00201669
0.00281432
-0.00175488
0.00318134
-0.00144404
0.00344643
-0.00108847
0.00360108
-0.000698016
0.00364165
-0.000286085
0.00356456
0.000146486
0.00337387
0.000567627
0.00307342
0.000970935
0.00267266
0.0013433
0.00218493
0.00167164
0.00162736
0.00194138
0.00102035
0.00214172
0.000385558
0.00226427
-0.000253328
0.00230192
-0.000870993
0.00224932
-0.00144305
0.00210804
-0.00194654
0.00188158
-0.00235998
0.00157713
-0.002667
0.00120716
-0.00285306
0.000783504
-0.00291276
0.000330082
-0.00284012
-0.000151915
-0.00264315
-0.000614725
-0.0023287
-0.00104778
-0.00191362
-0.00142923
-0.0014188
-0.00174013
-0.000869638
-0.00196331
-0.000293708
-0.00208712
0.000275621
-0.00210057
0.000810471
-0.00200605
0.00128211
-0.00180656
0.00166429
-0.00151239
0.001939
-0.00114238
0.00209065
-0.000716292
0.00211399
-0.000262636
0.00201395
0.000196307
0.00179948
0.000620597
0.00148807
0.000987762
0.00110484
0.00127328
0.0006797
0.00145803
0.000245042
0.00152934
-0.000165994
0.00148447
-0.000523456
0.00132839
-0.000801361
0.00107573
-0.00098059
0.000748929
-0.00105102
0.000377442
-0.00100929
-8.86778e-06
-0.000869989
-0.000371282
-0.000647245
-0.000677645
-0.000366703
-0.000902032
-5.9343e-05
-0.00102395
0.000243256
-0.00103505
0.00050945
-0.000934772
0.000713639
-0.000738686
0.000836834
-0.000469265
0.000869321
-0.000156567
0.000811314
0.000170361
0.000672888
0.000466135
0.000471873
0.000705676
0.000232523
0.000864711
-1.77947e-05
0.000928619
-0.000252189
0.000891592
-0.000446387
0.000765343
-0.000582353
0.000566004
-0.000649619
0.000318802
-0.000646121
5.3761e-05
-0.000577379
-0.000202469
-0.000455391
-0.000418666
-0.000298243
-0.000574743
-0.000125235
-0.000659258
4.3361e-05
-0.000666209
0.000189824
-0.00060032
0.000299322
-0.000474221
0.000363667
-0.000306794
0.000379724
-0.000119582
0.000350325
6.56184e-05
0.000282782
0.000226829
0.00018809
0.000348266
7.97802e-05
0.000418384
-2.77945e-05
0.000432272
-0.000122542
0.000391928
-0.000193876
0.000305496
-0.000234575
0.000185149
-0.000241428
4.67113e-05
-0.000215625
-9.3279e-05
-0.000161256
-0.000217369
-8.5967e-05
-0.000311789
6.02896e-07
-0.000366251
8.78069e-05
-0.000374843
0.00016506
-0.000335904
0.000223083
-0.000254872
0.000254915
-0.000141062
0.000256356
-7.12328e-06
0.000227066
0.000131245
0.000169805
0.000257206
9.10403e-05
0.000354801
0.000410688
0.00158575
-0.00278846
0.00316129
-0.00276127
0.00469614
-0.00265685
0.00616065
-0.00248022
0.00752043
-0.00222386
0.0087507
-0.00189959
0.00979973
-0.00147597
0.0106707
-0.00101641
0.0112566
-0.000419107
0.0115531
0.000179116
0.0115144
0.000842209
0.0111618
0.00148633
0.0105072
0.00211433
0.00957202
0.00270671
0.00837895
0.00325559
0.00695652
0.00374845
0.0053381
0.00417394
0.00356181
0.00452249
0.00166804
0.00478596
-0.000296931
0.00495636
-0.00228634
0.00502907
-0.00425093
0.0049983
-0.00614543
0.00486863
-0.00791665
0.00463044
-0.00953024
0.00430775
-0.0109257
0.00387358
-0.012099
0.00339673
-0.0129749
0.00280721
-0.0136259
0.00227284
-0.0140149
0.00168311
-0.0141904
0.00113694
-0.0141561
0.000594132
-0.0139302
7.72361e-05
-0.0135918
-0.000356168
-0.0131577
-0.000776465
-0.0126172
-0.00116865
-0.011979
-0.00152893
-0.0112611
-0.00185578
-0.0104799
-0.00214843
-0.00964914
-0.00240795
-0.00878162
-0.00263411
-0.00788762
-0.00282881
-0.00697728
-0.00299142
-0.00605759
-0.0031249
-0.00513806
-0.00322752
-0.0042239
-0.0033015
-0.00331944
-0.00334739
-0.00243168
-0.00336427
-0.00156622
-0.00335345
-0.000730683
-0.00331382
7.07724e-05
-0.00324729
0.000837334
-0.00315625
0.00155728
-0.00303488
0.0022323
-0.00289171
0.00285243
-0.00272031
0.00341556
-0.00252499
0.00391664
-0.00230717
0.00435009
-0.00206875
0.0047141
-0.00180984
0.00500734
-0.00153498
0.00522534
-0.00124271
0.00536575
-0.000938523
0.00542657
-0.000623811
0.00540651
-0.000302956
0.00530686
2.21128e-05
0.00512952
0.000345756
0.00487464
0.000665168
0.00454523
0.000975885
0.00414506
0.00127357
0.00367905
0.00155364
0.00315288
0.00181283
0.00257391
0.00204487
0.00195024
0.00224588
0.00129013
0.00241389
0.000603447
0.00254345
-9.89158e-05
0.00263011
-0.000805597
0.00267318
-0.00150533
0.00266938
-0.00218629
0.00261701
-0.00283641
0.002515
-0.00344376
0.00236471
-0.00399535
0.00216384
-0.00448007
0.00191718
-0.00488795
0.00162718
-0.0052118
0.0012999
-0.00544443
0.000937385
-0.00557415
0.000541742
-0.00559534
0.000127529
-0.0055143
-0.000313268
-0.00532638
-0.000746432
-0.005033
-0.00117328
-0.00463803
-0.0015861
-0.00414855
-0.00197419
-0.00357377
-0.00232834
-0.00292563
-0.00263671
-0.0022186
-0.0028909
-0.00146848
-0.00308295
-0.000693186
-0.00320393
8.89735e-05
-0.00325112
0.000858657
-0.00321771
0.00159486
-0.00310112
0.0022752
-0.00290223
0.00288287
-0.00262436
0.00340082
-0.00227283
0.00381202
-0.00185524
0.0041025
-0.00137894
0.00426519
-0.000860708
0.00429412
-0.000315018
0.00418497
0.000255637
0.00394231
0.000810291
0.00357267
0.00134058
0.00308744
0.00182853
0.00250287
0.00225622
0.00183962
0.00260462
0.00112102
0.00286032
0.000373424
0.00301187
-0.000374895
0.00305024
-0.00109461
0.00296903
-0.00175701
0.00277044
-0.00233576
0.00246033
-0.00280647
0.00204784
-0.00314945
0.00155014
-0.00335045
0.000984503
-0.00339905
0.000378681
-0.00329715
-0.000253809
-0.0030487
-0.000863183
-0.00266502
-0.00143145
-0.00216622
-0.00192803
-0.00157753
-0.00232881
-0.000929249
-0.00261159
-0.000256694
-0.00275968
0.000405691
-0.00276296
0.00102238
-0.00262274
0.00155903
-0.0023432
0.00198837
-0.00194174
0.00228713
-0.00144114
0.0024416
-0.000870765
0.00244466
-0.000265697
0.0023027
0.000338274
0.0020285
0.000894795
0.00164407
0.00137219
0.0011799
0.00173746
0.000671436
0.0019665
0.000157801
0.00204298
-0.000323375
0.00196565
-0.000735201
0.00174022
-0.00104851
0.00138904
-0.00124194
0.000942361
-0.00130429
0.000439786
-0.00123699
-7.6166e-05
-0.00105267
-0.000555599
-0.000772567
-0.000957749
-0.000428613
-0.00124599
-5.62758e-05
-0.00139629
0.000303193
-0.00139452
0.000616045
-0.00124762
0.000851516
-0.000974157
0.000988654
-0.000606404
0.00101749
-0.000185399
0.000940358
0.000247491
0.000769959
0.000636534
0.000529119
0.000946515
0.000247577
0.00114625
-4.28275e-05
0.00121902
-0.000310276
0.00115904
-0.000527866
0.000982933
-0.000675684
0.000713822
-0.000742736
0.000385855
-0.000727512
3.85371e-05
-0.000639831
-0.00029015
-0.00049391
-0.000564587
-0.000310439
-0.000758214
-0.000113064
-0.000856634
7.58457e-05
-0.000855119
0.000236159
-0.000760633
0.000353173
-0.000591235
0.000418034
-0.000371655
0.000428299
-0.000129848
0.000388363
0.000105554
0.000307375
0.000307817
0.000198341
0.0004573
7.67681e-05
0.000539957
-4.30607e-05
0.000552101
-0.000146527
0.000495395
-0.00022284
0.00038181
-0.000264878
0.000227187
-0.000269926
5.17593e-05
-0.000239342
-0.000123863
-0.000178426
-0.000278285
-9.55762e-05
-0.000394639
-1.42814e-06
-0.000460399
9.24701e-05
-0.000468741
0.00017514
-0.000418574
0.000236879
-0.00031661
0.000270441
-0.000174625
0.000271724
-8.40543e-06
0.000240392
0.000162577
0.000179637
0.000317961
9.62646e-05
0.000438173
0.000506952
0.00330366
-0.00609211
0.00659119
-0.0060488
0.00979936
-0.00586502
0.0128602
-0.00554106
0.0156952
-0.0050588
0.0182329
-0.00443737
0.020325
-0.00356807
0.0219196
-0.00261103
0.0226875
-0.00118696
0.0227804
8.62069e-05
0.0220797
0.00154292
0.0207369
0.00282915
0.0188616
0.00398961
0.0165603
0.00500807
0.0139172
0.00589861
0.0110045
0.00666117
0.00788802
0.00729044
0.00463151
0.007779
0.00129675
0.00812071
-0.0020543
0.00830742
-0.00536308
0.00833785
-0.00855161
0.00818683
-0.0115503
0.00786733
-0.0142655
0.00734562
-0.0166202
0.00666251
-0.0185103
0.00576359
-0.0198837
0.00477017
-0.0206563
0.00357981
-0.0210011
0.00261768
-0.020952