/*--------------------------------*- C++ -*----------------------------------*\
  =========                 |
  \\      /  F ield         | OpenFOAM: The Open Source CFD Toolbox
   \\    /   O peration     | Website:  https://openfoam.org
    \\  /    A nd           | Version:  12
     \\/     M anipulation  |
\*---------------------------------------------------------------------------*/
FoamFile
{
    format      ascii;
    class       volVectorField;
    location    "9.22";
    object      zeta;
}
// * * * * * * * * * * * * * * * * * * * * * * * * * * * * * * * * * * * * * //

dimensions      [0 1 0 0 0 0 0];

internalField   uniform (0 0 0);

boundaryField
{
    freeSurface
    {
        type            calculated;
        value           nonuniform List<vector> 
181
(
(0 0.000641558 0)
(0 0.000640672 0)
(0 0.000640611 0)
(0 0.000640411 0)
(0 0.0006405 0)
(0 0.000640195 0)
(0 0.000640512 0)
(0 0.000639942 0)
(0 -0.000969213 0)
(0 -0.000955788 0)
(0 -0.000944966 0)
(0 -0.000923985 0)
(0 -0.000898443 0)
(0 -0.000865269 0)
(0 -0.000826145 0)
(0 -0.000779634 0)
(0 -0.00072763 0)
(0 -0.000669331 0)
(0 -0.000605937 0)
(0 -0.000537357 0)
(0 -0.000464002 0)
(0 -0.000386456 0)
(0 -0.000304945 0)
(0 -0.000220131 0)
(0 -0.000132779 0)
(0 -4.35052e-05 0)
(0 4.69247e-05 0)
(0 0.000137827 0)
(0 0.000228432 0)
(0 0.000317995 0)
(0 0.000405677 0)
(0 0.000490612 0)
(0 0.000571914 0)
(0 0.000648688 0)
(0 0.000720102 0)
(0 0.000785321 0)
(0 0.000843628 0)
(0 0.000894195 0)
(0 0.000936288 0)
(0 0.000969231 0)
(0 0.000992489 0)
(0 0.00100564 0)
(0 0.00100831 0)
(0 0.00100017 0)
(0 0.000981037 0)
(0 0.000950834 0)
(0 0.00090977 0)
(0 0.000857995 0)
(0 0.000795907 0)
(0 0.000724072 0)
(0 0.000643188 0)
(0 0.000554145 0)
(0 0.000457973 0)
(0 0.000355833 0)
(0 0.000249157 0)
(0 0.000139305 0)
(0 2.78688e-05 0)
(0 -8.34474e-05 0)
(0 -0.000192946 0)
(0 -0.000298909 0)
(0 -0.000399444 0)
(0 -0.000492893 0)
(0 -0.000577532 0)
(0 -0.000651685 0)
(0 -0.000713913 0)
(0 -0.000762752 0)
(0 -0.0007973 0)
(0 -0.000816325 0)
(0 -0.000819469 0)
(0 -0.000806239 0)
(0 -0.000776758 0)
(0 -0.000731346 0)
(0 -0.000670784 0)
(0 -0.00059617 0)
(0 -0.000508953 0)
(0 -0.000410948 0)
(0 -0.000304325 0)
(0 -0.000191444 0)
(0 -7.50862e-05 0)
(0 4.18906e-05 0)
(0 0.000156514 0)
(0 0.000265759 0)
(0 0.000366657 0)
(0 0.000456249 0)
(0 0.000532057 0)
(0 0.000591607 0)
(0 0.000633065 0)
(0 0.000654972 0)
(0 0.00065656 0)
(0 0.000637533 0)
(0 0.000598372 0)
(0 0.000540292 0)
(0 0.000465014 0)
(0 0.00037516 0)
(0 0.000273789 0)
(0 0.000164488 0)
(0 5.12413e-05 0)
(0 -6.15722e-05 0)
(0 -0.000169746 0)
(0 -0.000268944 0)
(0 -0.000355169 0)
(0 -0.000424821 0)
(0 -0.000475093 0)
(0 -0.000503703 0)
(0 -0.00050957 0)
(0 -0.000492402 0)
(0 -0.000453269 0)
(0 -0.00039406 0)
(0 -0.000317919 0)
(0 -0.000228764 0)
(0 -0.000131287 0)
(0 -3.07913e-05 0)
(0 6.73404e-05 0)
(0 0.000157828 0)
(0 0.000235597 0)
(0 0.000296312 0)
(0 0.000336624 0)
(0 0.000354454 0)
(0 0.000349088 0)
(0 0.000321323 0)
(0 0.000273479 0)
(0 0.000209283 0)
(0 0.000133553 0)
(0 5.18116e-05 0)
(0 -2.97512e-05 0)
(0 -0.000105342 0)
(0 -0.00016943 0)
(0 -0.00021738 0)
(0 -0.000245795 0)
(0 -0.000253013 0)
(0 -0.000239167 0)
(0 -0.000206271 0)
(0 -0.00015814 0)
(0 -0.000100003 0)
(0 -3.80543e-05 0)
(0 2.13832e-05 0)
(0 7.26722e-05 0)
(0 0.000110937 0)
(0 0.000133026 0)
(0 0.000137685 0)
(0 0.000125732 0)
(0 9.97793e-05 0)
(0 6.38526e-05 0)
(0 2.28735e-05 0)
(0 -1.79522e-05 0)
(0 -5.4051e-05 0)
(0 -8.16568e-05 0)
(0 -9.82758e-05 0)
(0 -0.000102942 0)
(0 -9.61313e-05 0)
(0 -7.96077e-05 0)
(0 -5.60626e-05 0)
(0 -2.86964e-05 0)
(0 -8.32504e-07 0)
(0 2.44893e-05 0)
(0 4.48515e-05 0)
(0 5.85391e-05 0)
(0 6.47091e-05 0)
(0 6.33497e-05 0)
(0 5.52183e-05 0)
(0 4.16814e-05 0)
(0 2.44888e-05 0)
(0 5.52179e-06 0)
(0 -1.33637e-05 0)
(0 -3.06079e-05 0)
(0 -4.49036e-05 0)
(0 -5.53812e-05 0)
(0 -6.15866e-05 0)
(0 -6.34856e-05 0)
(0 -6.13965e-05 0)
(0 -5.58559e-05 0)
(0 -4.76507e-05 0)
(0 -3.76984e-05 0)
(0 -2.67769e-05 0)
(0 -1.57085e-05 0)
(0 -5.17418e-06 0)
(0 4.28326e-06 0)
(0 1.22584e-05 0)
(0 1.8469e-05 0)
(0 2.27256e-05 0)
(0 2.49005e-05 0)
)
;
    }
    walls
    {
        type            calculated;
        value           uniform (0 0 0);
    }
    floatingObject
    {
        type            calculated;
        value           uniform (0 0 0);
    }
    frontAndBack
    {
        type            empty;
    }
}


// ************************************************************************* //
