/*--------------------------------*- C++ -*----------------------------------*\
  =========                 |
  \\      /  F ield         | OpenFOAM: The Open Source CFD Toolbox
   \\    /   O peration     | Website:  https://openfoam.org
    \\  /    A nd           | Version:  12
     \\/     M anipulation  |
\*---------------------------------------------------------------------------*/
FoamFile
{
    format      ascii;
    class       surfaceScalarField;
    location    "9.66";
    object      phi;
}
// * * * * * * * * * * * * * * * * * * * * * * * * * * * * * * * * * * * * * //

dimensions      [1 0 -1 0 0 0 0];

internalField   nonuniform List<scalar> 
7429
(
8.90015e-05
-8.90012e-05
0.000179676
-9.06742e-05
0.00027266
-9.29834e-05
0.000368649
-9.59892e-05
0.000468303
-9.9653e-05
0.000572232
-0.000103929
0.000680987
-0.000108754
0.000795157
-0.00011417
0.000915111
-0.000119953
0.00104113
-0.000126016
0.00117344
-0.000132312
0.00131201
-0.000138574
0.00145666
-0.000144645
0.00160715
-0.000150488
0.00176293
-0.000155785
0.00192325
-0.000160319
0.00208721
-0.000163955
0.00225371
-0.000166502
0.00242152
-0.00016781
0.00258923
-0.000167704
0.00275527
-0.000166046
0.00291792
-0.000162644
0.00307514
-0.000157223
0.00322539
-0.000150248
0.00336643
-0.000141042
0.00349627
-0.000129842
0.00361291
-0.000116634
0.00371434
-0.000101437
0.00379843
-8.40881e-05
0.00386336
-6.49276e-05
0.00390718
-4.38149e-05
0.00392826
-2.10888e-05
0.00392686
1.40124e-06
0.00390369
2.31711e-05
0.00385716
4.65364e-05
0.00378652
7.06402e-05
0.00369161
9.49027e-05
0.00357271
0.000118907
0.00343058
0.000142128
0.00326632
0.000164264
0.00308136
0.000184957
0.00287737
0.000203986
0.00265635
0.00022102
0.00242049
0.000235869
0.00217222
0.000248267
0.00191421
0.000258013
0.00164925
0.000264958
0.00138029
0.000268956
0.00111036
0.000269928
0.000842597
0.000267766
0.000580194
0.000262403
0.000326176
0.000254019
8.37758e-05
0.0002424
-0.00014401
0.000227786
-0.000354197
0.000210187
-0.000544112
0.000189915
-0.00071132
0.000167208
-0.000853519
0.000142198
-0.000968241
0.000114722
-0.00105468
8.6435e-05
-0.00111043
5.57528e-05
-0.00113598
2.55521e-05
-0.00112508
-1.08982e-05
-0.00108057
-4.45125e-05
-0.00100434
-7.62273e-05
-0.000897842
-0.000106501
-0.000762211
-0.000135631
-0.000599007
-0.000163204
-0.000410253
-0.000188754
-0.000198638
-0.000211614
3.26658e-05
-0.000231304
0.000280217
-0.000247551
0.000539852
-0.000259635
0.000807286
-0.000267434
0.0010778
-0.000270512
0.00134639
-0.000268588
0.00160796
-0.000261577
0.00185731
-0.00024935
0.00208924
-0.000231928
0.00229883
-0.000209588
0.00248108
-0.00018225
0.00263157
-0.000150495
0.00274637
-0.000114793
0.00282206
-7.56949e-05
0.00285614
-3.4074e-05
0.00284216
1.39792e-05
0.00277851
6.36506e-05
0.00266689
0.00011162
0.00250903
0.000157855
0.00230739
0.000201647
0.00206483
0.000242557
0.00178509
0.00027974
0.00147284
0.000312248
0.00113372
0.000339117
0.000774628
0.000359095
0.000403082
0.000371546
2.72122e-05
0.00037587
-0.000344009
0.000371221
-0.000701856
0.000357848
-0.00103706
0.000335207
-0.00134084
0.00030378
-0.001605
0.000264159
-0.00182197
0.000216971
-0.00198521
0.000163239
-0.00209007
0.000104855
-0.00213309
4.30214e-05
-0.00210656
-2.65297e-05
-0.00201319
-9.33654e-05
-0.00185727
-0.000155926
-0.00164356
-0.000213703
-0.00137791
-0.000265655
-0.0010682
-0.000309706
-0.000724105
-0.000344097
-0.000357207
-0.000366898
1.9827e-05
-0.000377034
0.000393878
-0.000374051
0.000751391
-0.000357513
0.001079
-0.000327605
0.0013641
-0.000285105
0.00159584
-0.000231737
0.00176516
-0.000169324
0.00186528
-0.000100117
0.00189358
-2.83042e-05
0.00184162
5.19674e-05
0.00171747
0.000124144
0.00152853
0.000188939
0.00128326
0.00024527
0.000993719
0.000289543
0.000673891
0.000319828
0.000339973
0.000333919
9.02209e-06
0.000330951
-0.000301709
0.000310731
-0.000576116
0.000274407
-0.000799808
0.000223693
-0.0009614
0.000161591
-0.00105279
9.13906e-05
-0.00107146
1.86722e-05
-0.001011
-6.04597e-05
-0.000882703
-0.0001283
-0.000696236
-0.000186467
-0.000464896
-0.000231339
-0.000205064
-0.000259832
6.52635e-05
-0.000270328
0.000326388
-0.000261124
0.000560072
-0.000233684
0.000750109
-0.000190037
0.000883779
-0.000133671
0.000952931
-6.91518e-05
0.000953535
-6.04117e-07
0.000886126
6.74088e-05
0.00076182
0.000124306
0.000592632
0.000169188
0.000394588
0.000198044
0.000185931
0.000208656
-1.47945e-05
0.000200726
-0.000189844
0.000175049
-0.000325073
0.000135229
-0.00041075
8.56768e-05
-0.000442857
3.21074e-05
-0.000420453
-2.24043e-05
-0.000352659
-6.77941e-05
-0.000250827
-0.000101832
-0.000129476
-0.00012135
-4.51409e-06
-0.000124962
0.000107535
-0.000112049
0.00019452
-8.69848e-05
0.000247405
-5.28858e-05
0.000262213
-1.48073e-05
0.000238262
2.39507e-05
0.000183802
5.446e-05
0.000109052
7.47501e-05
2.6907e-05
8.21451e-05
-4.87994e-05
7.57064e-05
-0.000105312
5.65128e-05
-0.000132958
2.76454e-05
-0.000124261
-8.69704e-06
-7.82861e-05
-4.59745e-05
-1.3775e-07
-7.81483e-05
0.000102834
-0.000102972
0.000219189
-0.000116355
0.000335125
-0.000115936
0.00043663
-0.000101505
0.000511006
-7.43766e-05
0.000548414
-3.7408e-05
0.000542016
6.39823e-06
0.000489986
5.20294e-05
0.000395874
9.41123e-05
0.000266775
0.000129099
0.000113437
0.000153338
-5.08084e-05
0.000164245
-0.000211231
0.000160423
-0.000353419
0.000142187
-0.000464379
0.00011096
-0.000533776
6.93971e-05
-0.00055494
2.1164e-05
-0.000525118
-2.98223e-05
-0.000446372
-7.87454e-05
-0.000325088
-0.000121285
-0.00017169
-0.000153398
-0.00017169
6.95461e-05
-0.000158547
0.000142612
-0.000163739
0.000219299
-0.000169671
0.000301036
-0.000177725
0.000389077
-0.000187693
0.000484929
-0.000199781
0.000589867
-0.000213691
0.000705002
-0.000229304
0.000831389
-0.000246339
0.000969845
-0.000264471
0.00112077
-0.000283241
0.00128447
-0.000302272
0.00146105
-0.00032122
0.0016499
-0.000339338
0.00185031
-0.000356199
0.00206128
-0.000371286
0.00228133
-0.000384006
0.00250865
-0.000393821
0.00274104
-0.000400195
0.00297593
-0.0004026
0.0032105
-0.00040061
0.00344168
-0.000393826
0.00366649
-0.000382028
0.00388111
-0.000364873
0.00408252
-0.000342449
0.00426737
-0.000314697
0.00443241
-0.000281666
0.00457485
-0.000243877
0.00469233
-0.000201572
0.00478264
-0.000155236
0.0048445
-0.000105673
0.00487746
-5.40509e-05
0.00487595
2.91085e-06
0.00483077
6.83553e-05
0.00474745
0.000129851
0.00462902
0.000189069
0.00447885
0.000245073
0.00430027
0.000297495
0.00409603
0.000346363
0.00386752
0.000392774
0.00361588
0.000436596
0.00334309
0.000476773
0.00305173
0.000512384
0.00274483
0.00054277
0.00242548
0.000567618
0.00209707
0.000586424
0.00176303
0.000598999
0.00142712
0.000604868
0.00109335
0.000603697
0.000765292
0.000595821
0.000446223
0.000581472
0.00013992
0.000560322
-0.000150214
0.000532534
-0.000420097
0.000497669
-0.000666861
0.000456951
-0.00088867
0.000411725
-0.00108164
0.000360177
-0.00124271
0.000303269
-0.00137205
0.000244057
-0.00146558
0.000179965
-0.00152286
0.00011304
-0.00154329
4.59836e-05
-0.00152549
-2.86986e-05
-0.00147153
-9.84718e-05
-0.0013815
-0.00016626
-0.00125602
-0.000231984
-0.00109662
-0.000295032
-0.000905589
-0.000354233
-0.000685848
-0.000408495
-0.000440766
-0.000456697
-0.000173881
-0.00049819
0.000110143
-0.000531575
0.000407061
-0.000556552
0.000711923
-0.000572296
0.00101939
-0.000577984
0.00132376
-0.000572958
0.00161956
-0.000557372
0.00190108
-0.000530866
0.00216247
-0.000493327
0.00239817
-0.000445284
0.00260296
-0.000387037
0.00277202
-0.000319554
0.00290072
-0.000243498
0.00298575
-0.000160725
0.00302335
-7.16706e-05
0.00300863
2.86948e-05
0.00294081
0.000131479
0.00282133
0.000231098
0.00265161
0.000327572
0.00243378
0.000419474
0.00217087
0.000505473
0.00186704
0.000583572
0.00152784
0.000651442
0.00115962
0.000707339
0.000770108
0.000748607
0.00036764
0.000774014
-3.8624e-05
0.000782134
-0.000439036
0.000771633
-0.000823976
0.000742787
-0.0011835
0.000694735
-0.00150804
0.000628313
-0.0017887
0.00054482
-0.00201688
0.00044515
-0.00218673
0.00033309
-0.00229133
0.000209454
-0.00232869
8.0384e-05
-0.00229127
-6.3953e-05
-0.00218345
-0.000201183
-0.00200837
-0.000331009
-0.0017707
-0.000451368
-0.0014771
-0.000559258
-0.00113679
-0.000650017
-0.000760535
-0.00072035
-0.000361148
-0.000766286
4.76872e-05
-0.000785868
0.000451463
-0.000777826
0.00083531
-0.000741361
0.00118471
-0.000677004
0.00148623
-0.000586627
0.00172854
-0.000474046
0.00190168
-0.000342462
0.00199913
-0.000197566
0.00201623
-4.54111e-05
0.00194909
0.000119115
0.00180534
0.000267895
0.00159147
0.000402802
0.00131783
0.000518911
0.000997669
0.000609706
0.000647032
0.000670465
0.00028324
0.000697711
-7.44631e-05
0.000688653
-0.000407746
0.000644014
-0.00069909
0.000565751
-0.00093338
0.000457983
-0.00109832
0.000326528
-0.00118592
0.000178991
-0.00119156
2.43119e-05
-0.00111525
-0.000136765
-0.000965846
-0.000277706
-0.000754502
-0.000397811
-0.000496146
-0.000489695
-0.000209
-0.000546978
8.59917e-05
-0.000565319
0.000368272
-0.000543405
0.000617839
-0.000483251
0.000817652
-0.000389849
0.000954013
-0.000270032
0.00101918
-0.000134321
0.00100775
1.08268e-05
0.000925956
0.000149205
0.000782892
0.00026737
0.000592837
0.000359242
0.000373913
0.000416969
0.000146627
0.000435942
-6.86696e-05
0.000416023
-0.000252974
0.000359354
-0.000391317
0.000273572
-0.000473915
0.000168275
-0.000497147
5.53394e-05
-0.000461876
-5.76755e-05
-0.00037821
-0.000151461
-0.000259473
-0.000220568
-0.000122218
-0.000258605
1.55639e-05
-0.000262745
0.000137466
-0.000233951
0.00022918
-0.000178699
0.000281736
-0.000105442
0.000291359
-2.44298e-05
0.000259491
5.58186e-05
0.000194686
0.000119265
0.000108423
0.000161013
1.4735e-05
0.000175833
-7.00203e-05
0.000160462
-0.000133468
0.00011996
-0.000165073
5.92511e-05
-0.000157907
-1.58637e-05
-0.000111804
-9.20769e-05
-3.13631e-05
-0.00015859
7.46037e-05
-0.000208939
0.000195003
-0.000236754
0.000314506
-0.00023544
0.000418897
-0.000205895
0.000495467
-0.000150947
0.000534408
-7.63495e-05
0.000529277
1.15293e-05
0.000478937
0.000102369
0.000386751
0.000186298
0.000260237
0.000255614
0.0001103
0.000303276
-4.98731e-05
0.000324418
-0.000205776
0.000316326
-0.000343418
0.000279829
-0.000450316
0.000217859
-0.000516729
0.000135811
-0.000536311
4.07461e-05
-0.000506912
-5.92222e-05
-0.000430412
-0.000155245
-0.000313217
-0.00023848
-0.000165283
-0.000301332
-0.000336973
-7.36912e-05
-8.48549e-05
-0.00014417
-9.32593e-05
-0.000208392
-0.000105448
-0.000262222
-0.000123894
-0.000301508
-0.000148406
-0.000322969
-0.00017832
-0.00032297
-0.000213689
-0.000298483
-0.000253791
-0.000247101
-0.00029772
-0.000166934
-0.000344638
-5.70157e-05
-0.000393158
8.30429e-05
-0.00044233
0.000252639
-0.000490815
0.000451128
-0.000537826
0.000678089
-0.000583158
0.000930032
-0.000623229
0.00120617
-0.000660143
0.00150217
-0.000689826
0.00181368
-0.000711704
0.0021366
-0.000725516
0.00246621
-0.000730215
0.00279782
-0.000725443
0.00312447
-0.000708676
0.00344128
-0.000681682
0.00374336
-0.00064452
0.00402415
-0.000595486
0.00427658
-0.0005341
0.00449633
-0.00046363
0.00467818
-0.00038342
0.00481695
-0.000294008
0.0049087
-0.000197422
0.00494894
-9.42916e-05
0.00494412
7.73291e-06
0.00490633
0.000106151
0.00482786
0.000208315
0.00470673
0.000310201
0.00454223
0.00040957
0.00433501
0.000504724
0.00408687
0.000594502
0.00380192
0.000677718
0.00348529
0.000753231
0.00314173
0.000820336
0.00277595
0.000878159
0.00239254
0.00092618
0.0019964
0.000963764
0.00159231
0.00099051
0.00118519
0.00100612
0.000779536
0.00101052
0.000379751
0.00100348
-9.28984e-06
0.000984862
-0.000382768
0.00095495
-0.000736724
0.000914278
-0.00106741
0.000863217
-0.00137139
0.000801648
-0.00164408
0.000729642
-0.00188294
0.000650587
-0.00208376
0.000561001
-0.0022476
0.000467102
-0.00236724
0.000363698
-0.00244453
0.000257261
-0.00248012
0.000148626
-0.00247026
3.61253e-05
-0.00241072
-8.8237e-05
-0.00230813
-0.000201067
-0.00216307
-0.000311313
-0.00197665
-0.000418412
-0.00175094
-0.00052074
-0.00148868
-0.00061649
-0.00119341
-0.000703765
-0.000869263
-0.000780845
-0.000520499
-0.000846954
-0.000152566
-0.000899507
0.000228416
-0.000937534
0.000617004
-0.000960885
0.00100654
-0.000967521
0.00139018
-0.000956596
0.00176143
-0.000928626
0.00211312
-0.000882552
0.00243853
-0.000818734
0.00273085
-0.000737609
0.0029843
-0.000640489
0.00319287
-0.000528126
0.00335177
-0.000402392
0.0034553
-0.000264255
0.00350102
-0.000117391
0.00348339
4.63215e-05
0.00340312
0.000211754
0.00326118
0.000373034
0.0030588
0.00052995
0.00279845
0.000679832
0.00248389
0.000820024
0.00212045
0.000947015
0.00171505
0.00105685
0.00127558
0.0011468
0.000811716
0.00121248
0.000333505
0.00125223
-0.000148212
0.00126385
-0.000621535
0.00124496
-0.00107496
0.00119621
-0.00149651
0.00111629
-0.0018744
0.0010062
-0.00219807
0.000868492
-0.00245921
0.00070629
-0.00264762
0.000521506
-0.00275998
0.000321808
-0.0027897
0.000110105
-0.00273207
-0.000121585
-0.00259211
-0.000341144
-0.00237306
-0.00055005
-0.00208017
-0.00074426
-0.00172196
-0.000917474
-0.00131043
-0.00106154
-0.00085797
-0.00117281
-0.000380766
-0.00124349
0.000104922
-0.00127156
0.000581594
-0.0012545
0.0010316
-0.00119137
0.00143768
-0.00108308
0.00178431
-0.000933262
0.00205765
-0.000747389
0.00224726
-0.000532069
0.00234509
-0.000295394
0.00234541
-4.57369e-05
0.00224921
0.000215314
0.00206285
0.000454259
0.00179434
0.000671316
0.00145694
0.000856312
0.00106692
0.000999726
0.000644015
0.00109337
0.000210085
0.00113164
-0.000213274
0.00111201
-0.000603395
0.00103413
-0.000939591
0.000901946
-0.00120437
0.000722764
-0.00138443
0.000506586
-0.00147069
0.000265255
-0.00145574
9.35328e-06
-0.0013485
-0.000243999
-0.00115518
-0.000471026
-0.00088972
-0.000663272
-0.000571159
-0.000808256
-0.000222663
-0.000895475
0.000131022
-0.000919004
0.000464931
-0.000877314
0.000755419
-0.00077374
0.00098257
-0.000617
0.00113147
-0.000418934
0.00119257
-0.000195417
0.00116269
4.07006e-05
0.00105048
0.000261422
0.000866971
0.000450875
0.000630541
0.000595672
0.000364013
0.000683497
9.22427e-05
0.000707713
-0.00015973
0.000667995
-0.000369888
0.000569512
-0.000521383
0.000425067
-0.000603484
0.000250376
-0.000613373
6.52278e-05
-0.000554671
-0.000116377
-0.000440027
-0.000266105
-0.000286443
-0.000374152
-0.000114991
-0.000430057
5.27059e-05
-0.000430441
0.000196554
-0.0003778
0.00030067
-0.000282815
0.00035503
-0.000159802
0.0003568
-2.61999e-05
0.000309279
0.000103339
0.000223212
0.000205332
0.000113412
0.000270812
-2.58164e-06
0.000291827
-0.000107441
0.000265321
-0.000185163
0.000197682
-0.00022443
9.85182e-05
-0.00021847
-2.18237e-05
-0.000167785
-0.000142762
-7.79239e-05
-0.00024845
4.018e-05
-0.000327043
0.00017479
-0.000371364
0.000307393
-0.000368043
0.000422689
-0.000321191
0.000507132
-0.00023539
0.00055046
-0.000119678
0.000546486
1.55034e-05
0.00049464
0.000154216
0.000398851
0.000282087
0.000267508
0.000386956
0.000112458
0.000458326
-5.2285e-05
0.00048916
-0.000211751
0.000475792
-0.000351665
0.000419742
-0.000459537
0.000325731
-0.000525747
0.00020202
-0.000544267
5.92664e-05
-0.000513319
-9.01705e-05
-0.000435126
-0.000233438
-0.000316282
-0.000357323
-0.000166843
-0.000450771
-0.000503816
-0.000242091
0.000157237
-0.000477392
0.000142042
-0.000700134
0.000117295
-0.000903187
7.91582e-05
-0.00108084
2.92473e-05
-0.0012234
-3.576e-05
-0.00131003
-0.000127057
-0.00133641
-0.000227414
-0.00130083
-0.000333291
-0.00120006
-0.000445415
-0.00103386
-0.00055935
-0.00080193
-0.000674263
-0.00050573
-0.000787015
-0.000148207
-0.000895348
0.000266919
-0.000998285
0.00073709
-0.0010934
0.00125506
-0.00117812
0.00181439
-0.00124915
0.00240606
-0.00130338
0.00301956
-0.00133902
0.00364242
-0.00135307
0.00426237
-0.00134539
0.00486759
-0.0013139
0.0054456
-0.0012597
0.00598218
-0.0011811
0.00646742
-0.00108073
0.00689153
-0.000958202
0.00724619
-0.000818292
0.00752322
-0.000660447
0.00772147
-0.000492265
0.00783778
-0.000313733
0.00787721
-0.000133713
0.00782101
6.39274e-05
0.0076692
0.000257967
0.00744095
0.000436565
0.00714947
0.000601675
0.00679872
0.000760327
0.00639306
0.000910385
0.00593888
0.00104868
0.0054429
0.0011737
0.00491227
0.00128386
0.00435397
0.00137863
0.003775
0.00145714
0.00318245
0.00151872
0.00258297
0.00156325
0.00198346
0.00159002
0.00138908
0.00160051
0.000808123
0.00159147
0.000245069
0.00156653
-0.000295947
0.00152588
-0.000807716
0.00146672
-0.00128555
0.00139211
-0.00172695
0.00130461
-0.00212422
0.00119892
-0.00247906
0.00108448
-0.0027815
0.000953033
-0.00303414
0.000813634
-0.00323291
0.000665872
-0.00337584
0.000506628
-0.00346063
0.000342053
-0.00348582
0.000173821
-0.00344865
-1.05351e-06
-0.00336336
-0.000173521
-0.00322107
-0.000343361
-0.00302285
-0.000509533
-0.0027718
-0.00066946
-0.00247139
-0.000821149
-0.00212605
-0.000961832
-0.00174044
-0.00108938
-0.00132017
-0.00120111
-0.000871193
-0.00129593
-0.00040012
-0.00137058
8.58907e-05
-0.00142354
0.000579167
-0.00145416
0.00107185
-0.0014602
0.00155542
-0.00144017
0.0020216
-0.00139481
0.00246193
-0.00132288
0.00286794
-0.00122475
0.0032312
-0.00110086
0.00354468
-0.000953974
0.00380108
-0.00078452
0.00399461
-0.000595925
0.00412114
-0.000390788
0.00417558
-0.000171834
0.00415083
7.108e-05
0.0040503
0.000312283
0.00387441
0.000548924
0.00362428
0.000780076
0.00330319
0.00100092
0.00291611
0.00120711
0.00247021
0.00139291
0.00197397
0.00155309
0.00143774
0.00168303
0.000873012
0.0017772
0.000292293
0.00183294
-0.00029065
0.00184679
-0.000861426
0.00181573
-0.00140584
0.00174063
-0.00190921
0.00161965
-0.00235862
0.00145561
-0.00274192
0.0012518
-0.00304473
0.0010091
-0.00326192
0.000738692
-0.00338127
0.00044116
-0.00339988
0.000128713
-0.0033165
-0.000204963
-0.00313336
-0.000524281
-0.00285427
-0.000829139
-0.0024868
-0.00111173
-0.00204186
-0.00136241
-0.00153397
-0.00156944
-0.000979856
-0.00172692
-0.00039864
-0.00182471
0.000189716
-0.00185991
0.000763585
-0.00182837
0.00130169
-0.00172947
0.00178319
-0.00156457
0.00218971
-0.00133978
0.00250465
-0.00106233
0.00271571
-0.000743134
0.00281429
-0.00039397
0.00279246
-2.39035e-05
0.00265728
0.000350486
0.0024131
0.000698448
0.00207114
0.00101327
0.00164806
0.0012794
0.00116501
0.00148277
0.000645941
0.00161243
0.00011629
0.00166129
-0.000393119
0.00162142
-0.000858407
0.00149942
-0.00125406
0.0012976
-0.00155922
0.00102792
-0.00175874
0.000706111
-0.00184149
0.000348003
-0.00180208
-3.00557e-05
-0.00165119
-0.000394895
-0.00139776
-0.000724449
-0.00105964
-0.00100139
-0.00066151
-0.00120639
-0.00023144
-0.00132554
0.000200158
-0.0013506
0.000602216
-0.00127937
0.000946267
-0.00111779
0.00120882
-0.000879552
0.00137268
-0.000582791
0.00142844
-0.00025118
0.00137394
9.52047e-05
0.00122005
0.000415303
0.000981958
0.000688971
0.000683402
0.000894229
0.000353381
0.00101352
2.18425e-05
0.00103925
-0.000278006
0.000967844
-0.000522463
0.00081397
-0.000691313
0.000593917
-0.000772359
0.000331423
-0.000764176
5.70447e-05
-0.000673924
-0.000206629
-0.000517784
-0.000422245
-0.000318255
-0.000573681
-0.00010189
-0.000646423
0.00010416
-0.000636492
0.000276377
-0.000550016
0.000395984
-0.000402421
0.000452247
-0.000216065
0.000442611
-1.65641e-05
0.000374429
0.000171521
0.000260496
0.000319266
0.00011992
0.000411389
-2.57468e-05
0.000437494
-0.000155285
0.000394859
-0.000250654
0.000293051
-0.000298761
0.000146625
-0.000292808
-2.77761e-05
-0.00023445
-0.00020112
-0.000130526
-0.000352374
5.74597e-06
-0.000463315
0.000158473
-0.000524091
0.000308344
-0.000517914
0.000438147
-0.000450994
0.000532767
-0.00033001
0.00058121
-0.00016812
0.000577839
1.88744e-05
0.000522522
0.000209532
0.000420132
0.000384477
0.000280383
0.000526706
0.000116378
0.000622331
-5.67658e-05
0.000662304
-0.000223222
0.000642249
-0.000368216
0.000564736
-0.000479014
0.000436529
-0.000545982
0.000268988
-0.000563568
7.68519e-05
-0.000530124
-0.000123614
-0.000448522
-0.000315039
-0.000325481
-0.000480365
-0.000171489
-0.000604763
-0.000675305
-0.000659846
0.000817083
-0.00130803
0.000790228
-0.00193012
0.000739381
-0.00250796
0.000656999
-0.00302365
0.000544943
-0.00346412
0.00040471
-0.00383637
0.000245188
-0.00410737
4.35889e-05
-0.0042652
-0.000175459
-0.00430781
-0.000402802
-0.00422828
-0.000638877
-0.00401972
-0.000882831
-0.00368111
-0.00112562
-0.00321462
-0.00136185
-0.00262819
-0.00158471
-0.00193308
-0.00178851
-0.00114356
-0.00196764
-0.000275673
-0.00211703
0.000653083
-0.00223213
0.00162198
-0.00230791
0.00260998
-0.00234108
0.00359505
-0.00233045
0.00455365
-0.0022725
0.00546339
-0.00216943
0.00630087
-0.00201858
0.00704772
-0.00182758
0.00768359
-0.00159407
0.00819989
-0.00133459
0.00858158
-0.00104213
0.00883268
-0.000743367
0.00894586
-0.00042692
0.00891629
-0.00010414
0.00879105
0.000189165
0.00857112
0.000477901
0.0082541
0.00075358
0.00784452
0.00101126
0.00735589
0.00124895
0.00680138
0.00146489
0.00619257
0.00165748
0.00553984
0.00182644
0.00485332
0.00197037
0.00414269
0.00208926
0.00341711
0.00218272
0.00268472
0.00225111
0.00195369
0.00229428
0.00123146
0.00231224
0.000525481
0.00230649
-0.000159084
0.00227603
-0.00081571
0.00222316
-0.00143579
0.00214596
-0.00201899
0.00204992
-0.00255699
0.00193011
-0.00304564
0.00179327
-0.00348149
0.00163477
-0.00386007
0.00146306
-0.00417941
0.00127238
-0.00443339
0.00106761
-0.00461997
0.000852447
-0.00474041
0.000627074
-0.004793
0.000394644
-0.0047785
0.000159317
-0.00469297
-8.65798e-05
-0.00454073
-0.000325765
-0.00432245
-0.000561643
-0.00404033
-0.000791648
-0.00369756
-0.00101223
-0.00329791
-0.0012208
-0.00284653
-0.00141321
-0.00234918
-0.00158672
-0.0018126
-0.0017377
-0.00124367
-0.00186486
-0.000650872
-0.00196338
-4.29064e-05
-0.00203151
0.000571091
-0.00206816
0.00118164
-0.00207075
0.00177831
-0.00203684
0.00235085
-0.00196735
0.00288952
-0.00186155
0.00338423
-0.00171945
0.00382591
-0.00154255
0.00420511
-0.00133317
0.00451359
-0.001093
0.00474462
-0.000826959
0.00489203
-0.000538201
0.00495205
-0.000231854
0.00491728
0.000105854
0.00479141
0.000438154
0.00457403
0.0007663
0.00426742
0.00108669
0.00387536
0.00139298
0.00340452
0.00167794
0.00286374
0.0019337
0.00226363
0.0021532
0.00161635
0.00233031
0.000936421
0.00245713
0.000239873
0.00252949
-0.00045732
0.00254399
-0.00113791
0.00249632
-0.00178529
0.00238801
-0.0023827
0.00221706
-0.00291253
0.00198544
-0.00335747
0.00169673
-0.0037093
0.00136094
-0.00395027
0.000979656
-0.00407774
0.000568636
-0.00408655
0.00013752
-0.00397011
-0.000321401
-0.00373518
-0.000759212
-0.00338604
-0.00117828
-0.00293242
-0.00156536
-0.00238869
-0.00190613
-0.00177192
-0.00218621
-0.00110243
-0.00239641
-0.000403996
-0.00252314
0.00029964
-0.00256355
0.000982563
-0.00251129
0.00161868
-0.00236559
0.00218391
-0.0021298
0.00265599
-0.00181187
0.00301574
-0.00142208
0.00324783
-0.000975226
0.00334484
-0.000490977
0.00329629
2.46449e-05
0.00311482
0.000531953
0.00280294
0.00101033
0.00237676
0.00143945
0.00185603
0.00180013
0.00126724
0.00207155
0.000639042
0.00224064
5.84824e-06
0.00229449
-0.000601342
0.00222861
-0.00115025
0.00204833
-0.0016108
0.00175815
-0.00195926
0.00137638
-0.00217731
0.000924163
-0.00225407
0.000424766
-0.00218664
-9.74929e-05
-0.00198464
-0.000596894
-0.00166096
-0.00104813
-0.00124002
-0.00142233
-0.000750602
-0.00169581
-0.000228092
-0.00184805
0.000290115
-0.00186881
0.000767213
-0.00175647
0.00116992
-0.0015205
0.001471
-0.00118063
0.00164875
-0.000760537
0.00169625
-0.000298677
0.00161192
0.000179529
0.00140839
0.000618839
0.00110719
0.00099017
0.000738038
0.00126338
0.000336181
0.00141537
-5.97481e-05
0.00143518
-0.000415159
0.00132325
-0.000697321
0.00109613
-0.000883519
0.000780114
-0.000961622
0.000409526
-0.000930912
2.63352e-05
-0.000803377
-0.000334164
-0.00059948
-0.000626142
-0.000347826
-0.000825335
-8.08302e-05
-0.000913418
0.000168175
-0.000885497
0.000370662
-0.000752503
0.000505952
-0.000537712
0.000562851
-0.000272963
0.000538447
7.84001e-06
0.000445583
0.000264384
0.000299799
0.00046505
0.000125151
0.000586037
-5.32205e-05
0.000615865
-0.000209495
0.000551134
-0.000323071
0.000406627
-0.000379188
0.000202742
-0.00037221
-3.47543e-05
-0.000304142
-0.000269188
-0.000183845
-0.000472672
-2.65588e-05
-0.000620601
0.000145398
-0.000696048
0.000313897
-0.000686413
0.000458856
-0.000595953
0.000563708
-0.000434862
0.000617169
-0.000221581
0.000613566
2.24775e-05
0.000553603
0.000269495
0.000443427
0.000494653
0.000294056
0.000676077
0.000120026
0.000796361
-6.24056e-05
0.000844735
-0.000236544
0.000816387
-0.000387036
0.000715229
-0.000500834
0.000550327
-0.000568654
0.000336808
-0.000585044
9.32416e-05
-0.00054888
-0.000159779
-0.000463381
-0.000400538
-0.000335763
-0.000607983
-0.000176775
-0.000763751
-0.00085208
-0.00141941
0.00223649
-0.00281692
0.00218774
-0.00415793
0.00208039
-0.00540206
0.00190112
-0.00651193
0.00165482
-0.00743552
0.0013283
-0.00815237
0.000962034
-0.00860089
0.000492114
-0.00884688
7.05302e-05
-0.00882629
-0.000423391
-0.00856443
-0.000900737
-0.00806413
-0.00138313
-0.0073429
-0.00184685
-0.00641427
-0.00229047
-0.00529721
-0.00270177
-0.00401044
-0.00307527
-0.00257912
-0.00339896
-0.00102841
-0.00366774
0.000610997
-0.00387154
0.00230654
-0.00400346
0.00401939
-0.00405392
0.00571279
-0.00402386
0.00734425
-0.00390395
0.0088757
-0.00370089
0.0102568
-0.00339964
0.0114695
-0.00304029
0.012443
-0.00256764
0.0132167
-0.00210823
0.013689
-0.0015145
0.0139141
-0.000968377
0.0138795
-0.000392322
0.0136558
0.000119548
0.0132441
0.00060083
0.0126728
0.00104925
0.0119679
0.00145841
0.0111544
0.00182479
0.0102566
0.00214679
0.0092962
0.00242526
0.00829223
0.00266146
0.00726177
0.00285689
0.00621865
0.00301349
0.00517407
0.00313384
0.00414011
0.00321669
0.0031237
0.00326752
0.00213494
0.00328304
0.0011809
0.00326629
0.0002657
0.00322169
-0.000608287
0.00315002
-0.00142865
0.00304352
-0.00219584
0.00291316
-0.00290212
0.0027562
-0.00354607
0.00257406
-0.00412098
0.00236818
-0.00462843
0.00214221
-0.00506076
0.00189539
-0.00541691
0.00162852
-0.00569517
0.00134587
-0.00589346
0.00105075
-0.00601012
0.00074373
-0.00604364
0.000428159
-0.00599229
0.000107975
-0.00586434
-0.000214537
-0.00565542
-0.000534685
-0.00536801
-0.000849048
-0.00500572
-0.00115394
-0.00457281
-0.00144515
-0.00407469
-0.00171892
-0.00351713
-0.00197077
-0.00290752
-0.00219634
-0.00225373
-0.00239149
-0.00156451
-0.00255409
-0.00084946
-0.00267843
-0.000118878
-0.00276209
0.000616195
-0.00280323
0.00134456
-0.00279911
0.00205371
-0.00274599
0.00273369
-0.00264733
0.00337172
-0.00249958
0.00395505
-0.00230278
0.00447303
-0.00206052
0.00491713
-0.00177727
0.00527765
-0.00145353
0.00554291
-0.00109221
0.00570607
-0.000701359
0.00576539
-0.000291173
0.0057179
0.000153335
0.00556292
0.000593139
0.00529992
0.0010293
0.004931
0.00145561
0.00446229
0.00186168
0.00390236
0.00223788
0.00326155
0.0025745
0.00255264
0.00286211
0.00179045
0.00309251
0.000991827
0.00325575
0.000174675
0.00334664
-0.000641407
0.00336007
-0.00143591
0.00329083
-0.00218876
0.00314086
-0.00287772
0.00290601
-0.00348471
0.00259244
-0.00399707
0.00220908
-0.00439088
0.00175475
-0.00466267
0.00125145
-0.00479661
0.00070257
-0.00478376
0.000124676
-0.00463417
-0.00047099
-0.00434373
-0.00104966
-0.00392003
-0.00160198
-0.00337605
-0.00210934
-0.00272908
-0.0025531
-0.00199873
-0.00291656
-0.00121093
-0.0031842
-0.000391755
-0.00334232
0.000430433
-0.00338574
0.00122325
-0.00330411
0.00195838
-0.00310072
0.00260699
-0.00277841
0.00314351
-0.00234838
0.00354635
-0.00182491
0.00379802
-0.0012269
0.00388755
-0.000580508
0.00381291
9.92892e-05
0.00357938
0.000765482
0.00319577
0.00139394
0.0026796
0.00195562
0.00205668
0.00242305
0.00135888
0.00276936
0.000620367
0.00297914
-0.000121608
0.00303646
-0.000826885
0.00293389
-0.00145907
0.00268052
-0.00198487
0.00228394
-0.00237495
0.00176647
-0.00260821
0.00115742
-0.00267606
0.000492617
-0.00257603
-0.00019752
-0.00231772
-0.000855211
-0.00191938
-0.00144647
-0.0014102
-0.0019315
-0.000827553
-0.00227846
-0.000210151
-0.00246546
0.000396687
-0.00247565
0.000949746
-0.00230953
0.0014109
-0.00198166
0.00174718
-0.00151691
0.00193762
-0.000950976
0.00197159
-0.000332648
0.00185342
0.000297701
0.00159649
0.000875766
0.00122786
0.0013588
0.000784271
0.00170697
0.00030829
0.00189135
-0.000155458
0.00189893
-0.000564661
0.00173246
-0.000882694
0.00141416
-0.0010843
0.000981722
-0.0011568
0.000482021
-0.00109913
-3.13293e-05
-0.000930702
-0.000502594
-0.000675639
-0.000881205
-0.000369264
-0.00113171
-5.00916e-05
-0.00123259
0.000240802
-0.00117639
0.000472924
-0.000984625
0.000622019
-0.000686807
0.000676272
-0.000327216
0.000636674
4.74377e-05
0.000516357
0.000384701
0.000337026
0.000644381
0.000126476
0.000796587
-8.42621e-05
0.000826603
-0.000266383
0.000733254
-0.000396819
0.000537063
-0.000459788
0.000265711
-0.000450263
-4.42796e-05
-0.00037123
-0.000348221
-0.000234266
-0.000609635
-5.79829e-05
-0.000796884
0.000134849
-0.000888879
0.000321506
-0.00087307
0.000480642
-0.000755089
0.000594696
-0.000548916
0.000651762
-0.000278647
0.000647174
2.70651e-05
0.000582134
0.000334535
0.000464095
0.000612693
0.000305511
0.000834661
0.00012215
0.000979721
-6.85611e-05
0.00103545
-0.000249262
0.000997088
-0.000404218
0.000870186
-0.000520342
0.000666451
-0.000588367
0.000404833
-0.000603279
0.000108154
-0.000564502
-0.000198555
-0.00047554
-0.0004895
-0.00034406
-0.000739463
-0.000180946
-0.000926864
-0.00103303
-0.00255369
0.00479019
-0.00506507
0.00469911
-0.00747023
0.00448555
-0.00969255
0.00412344
-0.0116524
0.00361469
-0.0132496
0.00292549
-0.0144734
0.00218579
-0.0151953
0.00121411
-0.0157704
0.000645558
-0.0160864
-0.000107413
-0.0159364
-0.00105072
-0.0153205
-0.00199904
-0.0142645
-0.00290285
-0.0128095
-0.00374538
-0.0110332
-0.00447814
-0.0089859
-0.00512254
-0.00670323
-0.00568164
-0.00423415
-0.00613682
-0.00163382
-0.00647186
0.00103961
-0.00667689
0.0037229
-0.00673721
0.00635916
-0.00666012
0.00887203
-0.00641682
0.0111979
-0.00602671
0.0132449
-0.00544669
0.0149553
-0.00475066
0.016217
-0.00382937
0.0170655
-0.00295669
0.0173783
-0.00182737
0.0172728
-0.000862822
0.016834
4.64549e-05
0.0161421
0.000811446
0.0152517
0.0014912
0.0142236