/*--------------------------------*- C++ -*----------------------------------*\
  =========                 |
  \\      /  F ield         | OpenFOAM: The Open Source CFD Toolbox
   \\    /   O peration     | Website:  https://openfoam.org
    \\  /    A nd           | Version:  12
     \\/     M anipulation  |
\*---------------------------------------------------------------------------*/
FoamFile
{
    format      ascii;
    class       volScalarField;
    location    "100";
    object      p;
}
// * * * * * * * * * * * * * * * * * * * * * * * * * * * * * * * * * * * * * //

dimensions      [0 2 -2 0 0 0 0];

internalField   nonuniform List<scalar> 
10720
(
-44.79
-115.594
-199.292
-282.012
-358.987
-437.787
-508.028
-567.534
-619.701
-661.021
-693.259
-717.674
-734.685
-745.403
-750.549
-749.712
-743.67
-731.092
-713.069
-688.274
-657.702
-620.587
-579.097
-534.129
-489.083
-448.88
-412.576
-376.738
-341.101
-305.888
-270.935
-236.118
-201.338
-166.388
-131.035
-94.2437
-55.7532
-10.0162
35.1079
25.9859
90.0931
158.019
221.006
274.225
313.508
335.345
341.825
337.525
322.581
300.508
276.223
251.98
228.78
207.298
187.203
168.496
150.718
133.6
116.612
99.708
82.555
65.2575
48.2323
33.4448
21.9809
12.7275
5.27699
-0.368518
-4.15965
-6.19744
-6.59101
-5.42742
-2.70926
1.56602
7.81017
16.5558
31.544
56.5628
52.5861
-1.20991
-61.5867
-125.917
-192.206
-260.253
-326.557
-389.028
-446.977
-498.634
-543.614
-581.75
-613.097
-637.822
-655.791
-666.698
-670.978
-668.243
-659.029
-642.743
-619.915
-590.282
-555.461
-516.563
-476.573
-439.655
-405.396
-371.133
-336.706
-302.434
-268.239
-234.034
-199.749
-165.191
-130.142
-93.5836
-55.2716
-9.6077
34.7406
100.888
146.855
192.51
236.295
274.514
304.518
323.367
330.723
327.769
315.858
298.05
277.386
255.679
234.011
213.123
193.157
174.195
156.043
138.501
121.219
104.095
86.9072
69.7459
53.0349
38.3001
26.4709
16.7787
8.87889
2.79084
-1.43437
-3.87138
-4.62575
-3.7853
-1.35267
2.68475
8.74253
17.3438
32.2464
56.2448
66.1299
18.0344
-36.184
-96.0502
-158.323
-222.379
-286.603
-348.4
-406.224
-459.033
-505.581
-545.488
-578.621
-604.785
-624.005
-636.477
-642.495
-641.837
-634.669
-620.761
-600.395
-573.626
-541.671
-505.782
-468.437
-433.053
-399.763
-366.506
-332.981
-299.462
-265.903
-232.218
-198.351
-164.127
-129.337
-92.9829
-54.8376
-9.34824
34.5402
109.41
151.282
192.693
231.719
265.146
291.35
308.414
316.184
315.209
306.409
291.928
273.94
254.137
233.73
213.562
194.018
175.254
157.216
139.755
122.611
105.645
88.7062
71.8616
55.4962
40.8179
28.7379
18.8154
10.7185
4.44477
0.0365919
-2.57373
-3.49074
-2.79999
-0.502727
3.42218
9.39142
17.9265
32.7078
55.7465
85.5621
45.0231
-1.30045
-52.3461
-106.072
-162.442
-219.822
-276.435
-330.99
-382.335
-429.328
-471.279
-507.688
-538.186
-562.499
-580.609
-592.392
-597.507
-595.862
-587.323
-572.043
-550.213
-522.811
-491.124
-457.292
-424.239
-392.55
-360.714
-328.376
-295.817
-263.052
-230.019
-196.68
-162.878
-128.42
-92.3343
-54.4171
-9.2197
34.2254
121.804
156.516
191.145
224.356
253.181
276.33
292.194
300.331
300.956
294.734
283.229
268.112
250.78
232.338
213.601
195.036
176.883
159.211
141.959
124.969
108.134
91.3691
74.7469
58.6272
43.9994
31.7224
21.5694
13.2334
6.70436
2.02938
-0.847414
-2.01763
-1.55742
0.537024
4.29441
10.1303
18.5547
33.1396
55.2282
90.9395
54.9418
13.6026
-32.2179
-80.5702
-131.868
-184.736
-237.595
-289.456
-339.164
-385.586
-427.921
-465.485
-497.723
-524.21
-544.71
-558.849
-566.485
-567.443
-561.694
-549.338
-530.641
-506.404
-477.847
-446.812
-415.741
-385.432
-354.826
-323.56
-291.905
-259.919
-227.554
-194.776
-161.442
-127.367
-91.6062
-53.9823
-9.17374
33.6712
123.194
153.921
184.675
214.207
239.899
260.85
275.811
284.217
286.104
282.022
273.095
260.603
245.652
229.193
211.994
194.551
177.179
160.038
143.155
126.46
109.888
93.4013
77.0838
61.2686
46.7739
34.3848
24.0443
15.5053
8.75888
3.85583
0.75428
-0.627733
-0.360343
1.56149
5.17201
10.885
19.1941
33.5539
54.6755
93.546
61.6077
24.7507
-16.0916
-59.1962
-105.268
-153.041
-201.252
-249.177
-295.772
-340.066
-381.294
-418.71
-451.665
-479.638
-502.214
-518.986
-529.733
-534.165
-532.112
-523.563
-508.728
-488.255
-463.252
-435.322
-406.529
-377.823
-348.57
-318.465
-287.773
-256.601
-224.926
-192.731
-159.888
-126.224
-90.829
-53.554
-9.23853
32.8859
122.173
149.347
176.741
203.236
226.419
245.628
259.841
268.402
271.246
268.862
262.084
251.905
239.194
224.741
209.222
193.116
176.76
160.37
144.041
127.779
111.569
95.4191
79.4298
63.917
49.5738
37.1133
26.6092
17.884
10.9303
5.80116
2.46928
0.863015
0.920386
2.65156
6.09773
11.6701
19.8432
33.9325
54.0706
92.7857
63.9725
30.6329
-6.33121
-45.2619
-87.0843
-130.667
-174.909
-219.325
-262.984
-305.051
-344.838
-381.585
-414.61
-443.327
-467.209
-485.774
-498.627
-505.43
-505.963
-500.197
-488.334
-470.919
-448.934
-423.76
-397.116
-369.994
-342.089
-313.162
-283.457
-253.12
-222.157
-190.566
-158.236
-125.011
-90.0152
-53.143
-9.42557
31.8833
118.642
143.114
167.92
192.025
213.209
231.011
244.575
253.183
256.745
255.697
250.683
242.486
231.793
219.24
205.404
190.709
175.486
159.983
144.34
128.624
112.871
97.1294
81.5183
66.3394
52.1924
39.7253
29.1055
20.2263
13.0879
7.74789
4.19502
2.37075
2.22177
3.76369
7.04389
12.4685
20.491
34.267
53.4198
90.483
64.31
33.9653
0.348984
-34.9574
-73.0012
-112.744
-153.225
-194.131
-234.666
-274.109
-311.885
-347.294
-379.669
-408.401
-432.916
-452.656
-467.18
-476.116
-479.167
-476.206
-467.352
-453.027
-434.066
-411.652
-387.23
-361.791
-335.297
-307.598
-278.927
-249.464
-219.246
-188.287
-156.494
-123.733
-89.1698
-52.7501
-9.7282
30.6762
114.008
136.228
158.88
181.002
200.525
217.157
230.13
238.7
242.794
242.785
239.197
232.671
223.751
212.947
200.736
187.474
173.466
158.961
144.126
129.068
113.865
98.6028
83.4183
68.6024
54.6892
42.2693
31.5753
22.5696
15.266
9.72852
5.96203
3.92247
3.56558
4.9136
8.02014
13.2848
21.1378
34.5565
52.7279
87.1159
63.1453
35.3223
4.5259
-27.7144
-62.5069
-98.9094
-136.057
-173.773
-211.363
-248.225
-283.891
-317.727
-349.113
-377.456
-402.158
-422.628
-438.372
-448.953
-454.014
-453.352
-447.042
-435.415
-419.173
-399.318
-377.046
-353.299
-328.233
-301.788
-274.185
-245.631
-216.191
-185.896
-154.669
-122.399
-88.2982
-52.3724
-10.1334
29.2874
108.695
129.049
149.906
170.36
188.479
204.112
216.537
225.013
229.485
230.28
227.842
222.706
215.318
206.084
195.392
183.531
170.764
157.323
143.38
129.069
114.498
99.7826
85.0745
70.6587
57.0204
44.7027
33.9817
24.883
17.4394
11.7225
7.75373
5.50477
4.94161
6.09374
9.02126
14.1149
21.7797
34.7997
51.9953
83.1751
61.0914
35.4413
7.08593
-22.5014
-54.4522
-87.8902
-122.034
-156.807
-191.599
-225.914
-259.378
-291.429
-321.526
-349.105
-373.57
-394.336
-410.871
-422.71
-429.469
-430.856
-426.878
-417.765
-404.089
-386.682
-366.53
-344.501
-320.891
-295.727
-269.226
-241.614
-212.986
-183.387
-152.759
-121.01
-87.4055
-52.0093
-10.6311
27.7486
103.092
121.856
141.179
160.204
177.114
191.868
203.787
212.125
216.854
218.269
216.754
212.766
206.684
198.836
189.535
179.007
167.469
155.123
142.132
128.638
114.771
100.663
86.4816
72.5043
59.1817
47.0188
36.3186
27.1618
19.6045
13.7275
9.5688
7.11719
6.34988
7.30402
10.0466
14.9574
22.4147
34.9964
51.224
78.9226
58.4702
34.7055
8.47058
-18.8062
-48.2686
-79.0918
-110.565
-142.667
-174.87
-206.767
-238.071
-268.286
-296.941
-323.526
-347.479
-368.223
-385.222
-397.969
-406.077
-409.175
-407.208
-400.327
-388.982
-373.854
-355.743
-335.427
-313.286
-289.422
-264.052
-237.414
-209.629
-180.758
-150.761
-119.567
-86.4956
-51.6647
-11.2156
26.0842
97.4012
114.797
132.791
150.574
166.43
180.401
191.838
200.011
204.905
206.794
206.014
202.974
197.998
191.359
183.31
174.024
163.671
152.418
140.409
127.783
114.675
101.231
87.6222
74.1216
61.1561
49.1987
38.5679
29.3906
21.7484
15.7332
11.3995
8.75397
7.78637
8.54151
11.0939
15.8101
23.0403
35.1469
50.4171
74.5428
55.5209
33.4132
9.0433
-16.2057
-43.4702
-71.9691
-101.046
-130.729
-160.548
-190.171
-219.379
-247.747
-274.877
-300.308
-323.524
-343.979
-361.144
-374.498
-383.648
-388.177
-387.962
-383.077
-373.862
-360.862
-344.714
-326.095
-305.429
-282.879
-258.665
-233.03
-206.117
-178.006
-148.674
-118.069
-85.5708
-51.3432
-11.8845
24.3112
91.7643
107.964
124.794
141.475
156.404
169.666
180.644
188.635
193.622
195.868
195.676
193.413
189.369
183.774
176.838
168.69
159.458
149.272
138.252
126.522
114.216
101.481
88.4875
75.502
62.9333
51.2299
40.7165
31.5578
23.8614
17.7316
13.2399
10.4107
9.24785
9.8037
12.1607
16.6705
23.6542
35.2523
49.5776
70.1564
52.3972
31.7591
9.04223
-14.4119
-39.7237
-66.1505
-93.0772
-120.572
-148.214
-175.722
-202.941
-229.505
-255.081
-279.269
-301.601
-321.569
-338.666
-352.37
-362.287
-367.979
-369.25
-366.114
-358.814
-347.772
-333.488
-316.531
-297.334
-276.106
-253.066
-228.461
-202.451
-175.132
-146.497
-116.517
-84.632
-51.0485
-12.6352
22.4389
86.262
101.411
117.202
132.903
147.004
159.62
170.159
177.952
182.977
185.49
185.765
184.139
180.876
176.179
170.223
163.104
154.914
145.751
135.706
124.883
113.405
101.412
89.0699
76.6359
64.5028
53.0987
42.7501
33.6501
25.9316
19.7132
15.0823
12.0816
10.73
11.0873
13.2445
17.5363
24.2542
35.3136
48.7091
65.8405
49.2071
29.8833
8.64401
-13.2089
-36.7751
-61.3462
-86.3385
-111.853
-137.506
-163.059
-188.405
-213.235
-237.268
-260.17
-281.521
-300.851
-317.687
-331.524
-341.961
-348.571
-351.087
-349.47
-343.881
-334.634
-322.106
-306.763
-289.021
-269.114
-247.262
-223.709
-198.629
-172.132
-144.228
-114.91
-83.679
-50.7834
-13.4642
20.475
80.9491
95.1585
110.023
124.839
138.194
150.212
160.334
167.919
172.941
175.648
176.294
175.188
172.58
168.65
163.55
157.351
150.118
141.92
132.82
122.898
112.258
101.03
89.3688
77.5183
65.8562
54.794
44.6556
35.6549
27.948
21.6682
16.9188
13.7605
12.228
12.3887
14.3421
18.4046
24.838
35.3329
47.8151
61.6447
46.0244
27.884
7.97509
-12.4411
-34.4392
-57.3373
-80.5864
-104.303
-128.137
-151.888
-175.486
-198.668
-221.207
-242.813
-263.122
-281.709
-298.138
-311.93
-322.681
-329.987
-333.523
-333.206
-329.126
-321.506
-310.617
-296.825
-280.51
-261.917
-241.26
-218.778
-194.654
-169.008
-141.869
-113.248
-82.7122
-50.5477
-14.3678
18.4279
75.8565
89.2207
103.246
117.262
129.934
141.399
151.123
158.493
163.48
166.323
167.26
166.58
164.519
161.244
156.888
151.508
145.145
137.844
129.644
120.6
110.797
100.347
89.3871
78.1463
66.9868
56.3059
46.4207
37.5598
29.8989
23.5865
18.7408
15.4407
13.7366
13.7036
15.45
19.2727
25.4034
35.3119
46.8998
57.6008
42.8997
25.8313
7.12823
-11.9917
-32.5705
-53.9547
-75.6251
-97.708
-119.88
-141.974
-163.948
-185.576
-206.676
-227.006
-246.246
-264.021
-279.931
-293.532
-304.421
-312.224
-316.578
-317.357
-314.594
-308.436
-299.063
-286.75
-271.826
-254.53
-235.07
-213.673
-190.526
-165.76
-139.417
-111.53
-81.7312
-50.3414
-15.3388
16.3065
71.0002
83.5994
96.8604
110.144
122.189
133.138
142.483
149.635
154.562
157.496
158.661
158.328
156.724
154.005
150.294
145.635
140.057
133.582
126.229
118.03
109.049
99.3755
89.13
78.52
67.8916
57.6267
48.0349
39.3528
31.7728
25.4574
20.5394
17.1146
15.2497
15.0273
16.5642
20.1372
25.9485
35.2534
45.9672
53.7295
39.8653
23.7741
6.17088
-11.7727
-31.061
-51.0712
-71.3053
-91.8991
-112.555
-133.125
-153.59
-173.762
-193.491
-212.58
-230.752
-247.673
-262.985
-276.277
-287.16
-295.285
-300.275
-301.963
-300.334
-295.476
-287.493
-276.575
-262.995
-246.972
-228.703
-208.4
-186.25
-162.389
-136.874
-109.757
-80.7364
-50.1632
-16.3704
14.1202
66.387
78.2899
90.85
103.46
114.927
125.391
134.373
141.306
146.153
149.143
150.484
150.432
149.21
146.965
143.811
139.787
134.909
129.187
122.622
115.228
107.043
98.1374
88.6091
78.6437
68.5684
58.7503
49.4885
41.0229
33.5585
27.2705
22.3052
18.7745
16.7609
16.3546
17.6806
20.9951
26.4714
35.1601
45.0218
50.0415
36.9435
21.7507
5.152
-11.7155
-29.8282
-48.5829
-67.508
-86.7411
-106.007
-125.175
-144.246
-163.058
-181.495
-199.389
-216.505
-232.554
-247.211
-260.104
-270.863
-279.16
-284.625
-287.049
-286.386
-282.672
-275.951
-266.339
-254.046
-239.265
-222.174
-202.969
-181.83
-158.898
-134.242
-107.931
-79.7267
-50.0117
-17.4542
11.8809
62.0174
73.2814
85.1947
97.183
108.113
118.121
126.756
133.47
138.224
141.24
142.716
142.894
141.99
140.147
137.473
134.004
129.75
124.71
118.872
112.232
104.811
96.6543
87.8386
78.5246
69.019
59.6732
50.7739
42.5601
35.2451
29.015
24.0284
20.4117
18.263
17.6798
18.7944
21.8428
26.9702
35.0352
44.0687
46.5409
34.1492
19.7827
4.11064
-11.7722
-28.8053
-46.4108
-64.136
-82.1244
-100.114
-117.993
-135.775
-153.321
-170.539
-187.294
-203.383
-218.557
-232.526
-244.953
-255.496
-263.838
-269.633
-272.642
-272.786
-270.067
-264.482
-256.079
-245.009
-231.431
-215.499
-197.391
-177.274
-155.291
-131.521
-106.05
-78.702
-49.8845
-18.5816
9.60019
57.8882
68.563
79.878
91.2897
101.717
111.295
119.597
126.094
130.744
133.764
135.34
135.704
135.067
133.566
131.306
128.321
124.619
120.192
115.019
109.082
102.384
94.9502
86.8339
78.1718
69.2477
60.3942
51.8853
43.9555
36.8224
30.6806
25.6991
22.0176
19.7485
18.9968
19.9007
22.6768
27.4437
34.8817
43.1129
43.2292
31.491
17.8887
3.0721
-11.9029
-27.9434
-44.491
-61.1159
-77.9605
-94.7777
-111.467
-128.057
-144.424
-160.499
-176.174
-191.273
-205.583
-218.848
-230.763
-241.013
-249.298
-255.299
-258.754
-259.563
-257.7
-253.126
-245.834
-235.917
-223.496
-208.698
-191.677
-172.589
-151.572
-128.714
-104.116
-77.6611
-49.7784
-19.7429
7.2901
53.9933
64.1228
74.8817
85.7561
95.7109
104.881
112.865
119.147
123.686
126.693
128.343
128.857
128.441
127.232
125.328
122.766
119.551
115.673
111.103
105.815
99.7954
93.0519
85.6156
77.5989
69.2605
60.914
52.8188
45.2017
38.2811
32.2571
27.3073
23.5829
21.2093
20.2989
20.9941
23.4935
27.8904
34.7032
42.159
40.1036
28.9724
16.0805
2.05737
-12.079
-27.2022
-42.7749
-58.3857
-74.1767
-89.9135
-105.508
-120.994
-136.268
-151.274
-165.926
-180.079
-193.544
-206.099
-217.47
-227.372
-235.516
-241.618
-245.398
-246.742
-245.606
-241.924
-235.643
-226.804
-215.486
-201.789
-185.843
-167.785
-147.748
-125.825
-102.13
-76.6026
-49.689
-20.9278
4.96384
50.3261
59.9477
70.1879
80.5587
90.0697
98.8539
106.532
112.604
117.027
120.005
121.706
122.342
122.112
121.149
119.553
117.358
114.573
111.183
107.159
102.465
97.0766
90.9863
84.2052
76.8204
69.0661
61.2357
53.5724
46.2931
39.6129
33.7349
28.8433
25.0985
22.6371
21.5791
22.069
24.2892
28.3092
34.5031
41.2123
37.1605
26.5951
14.3645
1.0804
-12.2779
-26.5513
-41.2212
-55.8959
-70.7124
-85.4527
-100.035
-114.501
-128.759
-142.767
-156.459
-169.708
-182.356
-194.207
-205.017
-214.528
-222.465
-228.578
-232.579
-234.343
-233.815
-230.91
-225.54
-217.7
-207.429
-194.797
-179.905
-162.874
-143.826
-122.858
-100.094
-75.5249
-49.6114
-22.1251
2.63543
46.8772
56.0247
65.7787
75.6768
84.7689
93.1873
100.572
106.438
110.741
113.68
115.416
116.147
116.072
115.32
113.988
112.114
109.706
106.751
103.217
99.0632
94.2584
88.7806
82.6239
75.8525
68.6758
61.3651
54.1466
47.2254
40.8107
35.1053
30.2975
26.5548
24.0234
22.8299
23.1196
25.0599
28.699
34.2846
40.2778
34.3946
24.3575
12.7458
0.151691
-12.4841
-25.9664
-39.7992
-53.6059
-67.5221
-81.3389
-94.9853
-108.506
-121.82
-134.897
-147.687
-160.08
-171.942
-183.103
-193.346
-202.436
-210.117
-216.164
-220.298
-222.381
-222.352
-220.117
-215.561
-208.64
-199.354
-187.743
-173.882
-157.868
-139.813
-119.816
-98.0082
-74.4259
-49.54
-23.3245
0.317824
43.6368
52.3417
61.6389
71.0909
79.7877
87.8582
94.961
100.625
104.806
107.698
109.453
110.262
110.316
109.744
108.641
107.045
104.968
102.397
99.3012
95.6378
91.3686
86.4612
80.8951
74.714
68.1024
61.3094
54.5438
47.9964
41.8687
36.3603
31.6607
27.9426
25.3595
24.0438
24.14
25.802
29.0592
34.051
39.3603
31.7995
22.2576
11.2258
-0.722159
-12.6835
-25.4289
-38.4826
-51.4836
-64.5637
-77.5266
-90.3056
-102.95
-115.386
-127.595
-139.538
-151.124
-162.236
-172.724
-182.399
-191.05
-198.438
-204.359
-208.549
-210.864
-211.237
-209.573
-205.739
-199.656
-191.291
-180.653
-167.791
-152.781
-135.721
-116.707
-95.875
-73.3036
-49.4679
-24.5138
-1.97452
40.5961
48.8848
57.7524
66.7839
75.1059
82.8442
89.6759
95.1429
99.2027
102.042
103.804
104.673
104.835
104.417
103.511
102.158
100.371
98.1405
95.4357
92.2141
88.4332
84.0534
79.042
73.424
67.3603
61.078
54.7676
48.6058
42.7828
37.4928
32.9246
29.253
26.6366
25.2129
25.1239
26.5116
29.389
33.8054
38.4641
29.3677
20.2918
9.80502
-1.53692
-12.8667
-24.924
-37.2505
-49.5012
-61.8049
-73.9743
-85.9484
-97.778
-109.399
-120.8
-131.95
-142.774
-153.172
-163.012
-172.128
-180.329
-187.398
-193.145
-197.328
-199.798
-200.488
-199.303
-196.102
-190.777
-183.267
-173.552
-161.654
-147.629
-131.559
-113.535
-93.6966
-72.1549
-49.3886
-25.6817
-4.228
37.7454
45.6427
54.1046
62.7375
70.7037
78.1254
84.697
89.9735
93.9118
96.6922
98.4534
99.3692
99.622
99.3348
98.5986
97.4574
95.9251
93.9949
91.6379
88.813
85.4756
81.5806
77.086
72.0015
66.4647
60.6817
54.8246
49.0547
43.5503
38.4976
34.0815
30.4773
27.8463
26.3294
26.0651
27.1848
29.6878
33.5503
37.5934
27.0926
18.4559
8.48206
-2.29009
-13.0278
-24.4405
-36.0873
-47.6381
-59.2184
-70.6494
-81.8759
-92.9484
-103.811
-114.458
-124.867
-134.974
-144.694
-153.913
-162.482
-170.231
-176.962
-182.5
-186.624
-189.184
-190.116
-189.33
-186.678
-182.033
-175.311
-166.464
-155.493
-142.429
-127.339
-110.308
-91.474
-70.9783
-49.2936
-26.8161
-6.42848
35.0752
42.6032
50.6813
58.9361
66.5642
73.6838
80.0049
85.0969
88.9148
91.6339
93.3861
94.3377
94.6661
94.4912
93.9025
92.9454
91.6363
89.9706
87.9227
85.4528
82.5163
79.0642
75.0484
70.4649
65.4316
60.1324
54.7222
49.3464
44.1702
39.37
35.1247
31.6076
28.9804
27.3857
26.9576
27.8179
29.9549
33.2883
36.7518
24.9671
16.7443
7.25523
-2.98038
-13.1615
-23.9694
-34.9796
-45.8762
-56.7812
-67.5238
-78.0545
-88.423
-98.58
-108.524
-118.24
-127.674
-136.752
-145.377
-153.415
-160.716
-167.099
-172.4
-176.424
-179.021
-180.129
-179.668
-177.49
-173.452
-167.449
-159.416
-149.329
-137.199
-123.074
-107.033
-89.2117
-69.7703
-49.1758
-27.907
-8.56211
32.576
39.7547
47.4693
55.3656
62.6714
69.5028
75.5829
80.4956
84.1951
86.8508
88.5883
89.5664
89.9575
89.879
89.4185
88.6221
87.5088
86.0763
84.3021
82.149
79.573
76.5241
72.9492
68.8342
64.2775
59.4433
54.4691
49.4855
44.6432
40.1072
36.0487
32.6367
30.0311
28.3742
27.7952
28.4071
30.1898
33.0211
35.9421
22.9837
15.1527
6.12104
-3.60731
-13.2651
-23.504
-33.9167
-44.2015
-54.4748
-64.5753
-74.4573
-84.1706
-93.6694
-102.959
-112.027
-120.828
-129.301
-137.36
-144.887
-151.747
-157.777
-162.823
-166.715
-169.303
-170.533
-170.333
-168.557
-165.056
-159.709
-152.433
-143.185
-131.955
-118.777
-103.718
-86.9107
-68.5288
-49.0279
-28.9422
-10.6166
30.2386
37.0868
44.4568
52.0118
59.0104
65.5664
71.4148
76.1537
79.7368
82.3279
84.0463
85.0437
85.4875
85.4915
85.1421
84.4862
83.5443
82.3172
80.7851
78.9138
76.6611
73.9776
70.807
67.1265
63.0182
58.6274
54.0755
49.4779
44.9712
40.7078
36.8495
33.5584
30.9911
29.2881
28.5723
28.9488
30.3917
32.7503
35.1665
21.1352
13.6751
5.07674
-4.17208
-13.3364
-23.0401
-32.8907
-42.6012
-52.2834
-61.784
-71.0597
-80.1619
-89.0481
-97.7254
-106.188
-114.397
-122.3
-129.822
-136.858
-143.288
-148.965
-153.745
-157.479
-160.024
-161.33
-161.334
-159.898
-156.868
-152.114
-145.539
-137.082
-126.718
-114.462
-100.373
-84.5751
-67.2512
-48.8401
-29.912
-12.5799
28.0546
34.5891
41.6319
48.8616
55.5672
61.8595
67.4854
72.056
75.5252
78.051
79.747
80.7574
81.245
81.3205
81.0674
80.5342
79.7428
78.6962
77.3781
75.7573
73.7942
71.44
68.6378
65.3584
61.6693
57.6983
53.5519
49.3311
45.1579
41.1718
37.5236
34.3676
31.8542
30.1208
29.2833
29.4395
30.56
32.4768
34.4265
19.4147
12.3063
4.11878
-4.67625
-13.3746
-22.5728
-31.8946
-41.0655
-50.1933
-59.1319
-67.8418
-76.373
-84.6874
-92.7941
-100.691
-108.345
-115.712
-122.725
-129.293
-135.307
-140.636
-145.144
-148.702
-151.174
-152.517
-152.677
-151.525
-148.907
-144.686
-138.756
-131.042
-121.504
-110.143
-97.0061
-82.2085
-65.9352
-48.6067
-30.8057
-14.4406
26.0154
32.2519
38.9834
45.9034
52.3289
58.3687
63.7808
68.1885
71.5466
74.0069
75.6777
76.6964
77.22
77.3572
77.1884
76.7626
76.1034
75.2155
74.086
72.6873
70.9823
68.9242
66.4565
63.5456
60.246
56.6698
52.9097
49.0531
45.208
41.5007
38.07
35.0603
32.6152
30.8665
29.9232
29.876
30.6938
32.2011
33.7226
17.8153
11.0408
3.24312
-5.12157
-13.3793
-22.1005
-30.9237
-39.587
-48.1942
-56.6065
-64.7866
-72.7842
-80.5647
-88.1383
-95.5065
-102.641
-109.504
-116.037
-122.159
-127.772
-132.76
-136.995
-140.365
-142.743
-144.091
-144.367
-143.449
-141.188
-137.444
-132.105
-125.085
-116.332
-105.835
-93.6272
-79.8144
-64.5795
-48.3199
-31.615
-16.1891
24.1129
30.0664
36.5012
43.1256
49.2834
55.0812
60.2873
64.5383
67.7881
70.1832
71.8265
72.8492
73.4031
73.5931
73.4979
73.1662
72.6231
71.8749
70.9118
69.7097
68.2343
66.4416
64.2762
61.7019
58.7623
55.5551
52.1602
48.6529
45.1276
41.6972
38.4879
35.634
33.2696
31.5205
30.4877
30.2552
30.7921
31.923
33.0545
16.3303
9.87316
2.44596
-5.51044
-13.3513
-21.6213
-29.974
-38.1597
-46.2776
-54.1956
-61.8798
-69.3781
-76.6594
-83.7347
-90.6087
-97.2568
-103.647
-109.727
-115.426
-120.657
-125.312
-129.277
-132.452
-134.719
-136.047
-136.404
-135.678
-133.724
-130.406
-125.606
-119.232
-111.221
-101.551
-90.2455
-77.3973
-63.1831
-47.9734
-32.3318
-17.8168
22.3395
28.0236
34.1756
40.5173
46.4191
51.9849
56.9932
61.0927
64.237
66.5677
68.1823
69.2058
69.7843
70.0198
69.9887
69.7398
69.2984
68.6734
67.857
66.8284
65.557
64.0012
62.1083
59.8403
57.2315
54.3669
51.3151
48.1399
44.9234
41.765
38.7789
36.0871
33.8144
32.0785
30.9729
30.5745
30.854
31.6422
32.4212
14.9532
8.79795
1.72324
-5.84538
-13.291
-21.134
-29.0421
-36.7771
-44.4347
-51.8885
-59.108
-66.1389
-72.9533
-79.5636
-85.9752
-92.1681
-98.1143
-103.769
-109.068
-113.933
-118.268
-121.968
-124.943
-127.089
-128.379
-128.787
-128.216
-126.527
-123.585
-119.275
-113.498
-106.187
-97.3063
-86.8711
-74.9621
-61.7445
-47.5622
-32.949
-19.3157
20.6877
26.1152
31.9973
38.0687
43.7255
49.069
53.887
57.84
60.8821
63.1493
64.7339
65.755
66.3537
66.6287
66.6536
66.4772
66.1255
65.6083
64.9213
64.0461
62.9553
61.6108
59.9624
57.9718
55.6655
53.1171
50.3854
47.5239
44.6029
41.7095
38.9449
36.4197
34.2477
32.5378
31.3758
30.8316
30.8784
31.3575
31.8209
13.6778
7.81011
1.07087
-6.12906
-13.1999
-20.6385
-28.1259
-35.4359
-42.6593
-49.677
-56.46
-63.053
-69.4304
-75.6057
-81.5855
-87.3526
-92.8832
-98.1382
-103.059
-107.577
-111.605
-115.047
-117.823
-119.84
-121.076
-121.515
-121.066
-119.602
-116.994
-113.127
-107.902
-101.244
-93.1134
-83.5138
-72.5136
-60.2651
-47.0809
-33.4607
-20.6801
19.1504
24.3333
29.9575
35.7706
41.1926
46.3227
50.9575
54.7694
57.7122
59.9168
61.4708
62.4873
63.102
63.4108
63.4848
63.372
63.0989
62.6771
62.1037
61.3638
60.4328
59.276
57.8463
56.106
54.0753
51.8175
49.3824
46.8148
44.1744
41.5363
38.9896
36.6328
34.5686
32.8963
31.6942
31.0245
30.8641
31.0677
31.2511
12.4982
6.90438
0.484845
-6.36439
-13.0793
-20.1346
-27.2241
-34.1324
-40.947
-47.554
-53.9272
-60.1098
-66.0782
-71.8462
-77.4219
-82.7907
-87.9321
-92.8115
-97.3771
-101.566
-105.301
-108.494
-111.074
-112.959
-114.13
-114.58
-114.228
-112.957
-110.643
-107.175
-102.456
-96.4086
-88.9856
-80.1834
-70.0575
-58.745
-46.5275
-33.863
-21.9049
17.7208
22.6702
28.0482
33.6137
38.8108
43.7361
48.1948
51.8705
54.717
56.86
58.3831
59.3927
60.0203
60.3583
60.475
60.4178
60.214
59.8758
59.4024
58.7815
57.9916
57.0013
55.7669
54.2515
52.4706
50.4781
48.3164
46.0224
43.6463
41.2522
38.9175
36.7289
34.7778
33.1533
31.9265
31.1518
30.8102
30.771
30.7087
11.4085
6.07601
-0.0389037
-6.55421
-12.9311
-19.6225
-26.335
-32.8638
-39.2928
-45.513
-51.5012
-57.2986
-62.8837
-68.271
-73.4689
-78.4653
-83.2422
-87.7695
-92.0009
-95.8801
-99.3366
-102.291
-104.68
-106.431
-107.531
-107.977
-107.701
-106.592
-104.537
-101.429
-97.1733
-91.6922
-84.9344
-76.8889
-67.5994
-57.1861
-45.8998
-34.1525
-22.9872
16.3925
21.119
26.2613
31.59
36.5715
41.3001
45.5891
49.1332
51.8866
53.9694
55.4611
56.4624
57.0998
57.4625
57.6164
57.6082
57.465
57.2001
56.8145
56.2984
55.6328
54.7898
53.7291
52.4156
50.8599
49.1088
47.1976
45.1566
43.0275
40.8646
38.7341
36.7115
34.8769
33.3092
32.0721
31.2126
30.7154
30.4655
30.1903
10.4033
5.32013
-0.504264
-6.70159
-12.757
-19.1032
-25.4585
-31.6284
-37.693
-43.5491
-49.1749
-54.6109
-59.8367
-64.8674
-69.712
-74.3603
-78.7965
-82.9942
-86.912
-90.4996
-93.6926
-96.4197
-98.6235
-100.243
-101.267
-101.699
-101.48
-100.509
-98.681
-95.8961
-92.0637
-87.1062
-80.9704
-73.6393
-65.145
-55.5911
-45.1967
-34.3279
-23.9248
15.1595
19.673
24.5898
29.6913
34.4661
39.0056
43.1314
46.5486
49.2116
51.2355
52.6956
53.6872
54.332
54.7157
54.9018
54.9363
54.8462
54.6456
54.337
53.9127
53.3566
52.6437
51.7372
50.6039
49.2509
47.7181
46.0352
44.2268
42.327
40.3813
38.4458
36.5851
34.8687
33.3654
32.1312
31.2063
30.5789
30.1491
29.692
9.47733
4.63228
-0.915033
-6.80918
-12.5591
-18.5771
-24.5939
-30.4241
-36.1444
-41.6573
-46.9425
-52.039
-56.9282
-61.625
-66.1392
-70.4617
-74.5796
-78.4692
-82.0932
-85.4065
-88.3516
-90.8632
-92.8902
-94.3804
-95.3266
-95.7372
-95.5605
-94.7063
-93.0779
-90.5828
-87.1351
-82.66
-77.1033
-70.4427
-62.7006
-53.9633
-44.4193
-34.3885
-24.7175
14.0157
18.3257
23.0264
27.9104
32.4868
36.8447
40.8132
44.1079
46.6832
48.6495
50.0779
51.0585
51.7083
52.1097
52.3238
52.3956
52.3519
52.2075
51.9662
51.6223
51.1624
50.5639
49.7939
48.8211
47.6498
46.3137
44.8379
43.2419
41.5537
39.8105
38.0595
36.3553
34.7571
33.3241
32.1048
31.1332
30.3998
29.8194
29.2096
8.62558
4.00776
-1.27483
-6.87999
-12.3393
-18.0454
-23.741
-29.2495
-34.6449
-39.834
-44.7987
-49.5762
-54.1496
-58.5341
-62.7392
-66.7575
-70.5779
-74.1795
-77.5289
-80.5853
-83.297
-85.6054
-87.4643
-88.8298
-89.6983
-90.0818
-89.9363
-89.181
-87.7279
-85.4922
-82.3936
-78.3614
-73.3411
-67.3069
-60.2721
-52.3065
-43.5695
-34.3361
-25.3664
12.9557
17.071
21.5649
26.24
30.6261
34.8093
38.6263
41.8026
44.293
46.203
47.5997
48.5683
49.221
49.6371
49.8753
49.9793
49.9763
49.8808
49.6984
49.4248
49.0488
48.5509
47.9014
47.0712
46.0619
44.9025
43.6136
42.2107
40.7162
39.1606
37.5829
36.0284
34.5471
33.1888
31.995
30.9937
30.1775
29.4742
28.7391
7.84325
3.44265
-1.58736
-6.91687
-12.0996
-17.5092
-22.8998
-28.1039
-33.1918
-38.0757
-42.7384
-47.2163
-51.4938
-55.5856
-59.5018
-63.2359
-66.7787
-70.1114
-73.2043
-76.0207
-78.5137
-80.6312
-82.3314
-83.5779
-84.37
-84.7229
-84.5997
-83.9284
-82.6294
-80.6258
-77.8435
-74.216
-69.6907
-64.2388
-57.8655
-50.6254
-42.6505
-34.1729
-25.8737
11.9742
15.9033
20.1989
24.6739
28.877
32.8923
36.5632
39.6252
42.0332
43.888
45.253
46.2087
46.8624
47.2906
47.5493
47.6814
47.7135
47.6607
47.5293
47.317
47.0143
46.6046
46.0611
45.3568
44.4918
43.4903
42.3693
41.141
39.823
38.44
37.0237
35.6114
34.2443
32.9637
31.8045
30.7891
29.9116
29.1112
28.2761
7.1258
2.93272
-1.85595
-6.92256
-11.8419
-16.9697
-22.0708
-26.9865
-31.7837
-36.3795
-40.7581
-44.9545
-48.9541
-52.772
-56.4179
-59.8866
-63.1704
-66.2525
-69.1063
-71.6986
-73.9877
-75.9263
-77.4775
-78.611
-79.3294
-79.6502
-79.5426
-78.9425
-77.7793
-75.983
-73.4866
-70.2283
-66.1577
-61.2443
-55.4866
-48.9252
-41.6664
-33.9031
-26.2431
11.0662
14.817
18.9229
23.2054
27.2329
31.0866
34.6166
37.5681
39.8962
41.697
43.0304
43.9723
44.6253
45.063
45.3392
45.4953
45.5578
45.5421
45.4551
45.2958
45.057
44.7241
44.2735
43.6805
42.9433
42.0823
41.1115
40.0402
38.8823
37.6571
36.3902
35.1117
33.855
32.654
31.5369
30.5213
29.6021
28.7283
27.8165
6.46888
2.47427
-2.08391
-6.89968
-11.5682
-16.428
-21.2541
-25.8967
-30.4191
-34.7429
-38.8539
-42.7855
-46.5248
-50.086
-53.4794
-56.7006
-59.7427
-62.5913
-65.2224
-67.6063
-69.7052
-71.4768
-72.889
-73.9165
-74.5646
-74.8528
-74.7557
-74.2165
-73.1729
-71.5621
-69.3236
-66.4009
-62.7465
-58.3288
-53.141
-47.2113
-40.6225
-33.5314
-26.4795
10.227
13.8071
17.7308
21.8289
25.6875
29.3856
32.7799
35.6245
37.8748
39.6228
40.9246
41.8518
42.5027
42.9477
43.2384
43.4151
43.5039
43.52
43.4713
43.358
43.1745
42.9084
42.539
42.0436
41.4194
40.6829
39.8459
38.9153
37.9016
36.8199
35.6904
34.537
33.3863
32.2652
31.1962
30.1926
29.2494
28.3238
27.3563
5.86846
2.06347
-2.27431
-6.85087
-11.2803
-15.8853
-20.4506
-24.8341
-29.0964
-33.1635
-37.0224
-40.7054
-44.2002
-47.5213
-50.6787
-53.6688
-56.486
-59.1174
-61.5414
-63.7315
-65.6536
-67.2704
-68.553
-69.4816
-70.0633
-70.3192
-70.2291
-69.7425
-68.8044
-67.3594
-65.3535
-62.7352
-59.46
-55.4969
-50.8342
-45.4892
-39.5245
-33.0641
-26.5887
9.45208
12.8688
16.6178
20.5388
24.2351
27.7833
31.0465
33.7875
35.9624
37.6585
38.9289
39.8406
40.4879
40.9382
41.2409
41.435
41.5461
41.5896
41.5738
41.5002
41.3645
41.1562
40.8574
40.4475
39.9225
39.2961
38.5777
37.7725
36.8881
35.9362
34.9324
33.8951
32.8452
31.8035
30.7873
29.806
28.8544
27.8962
26.8922
5.32061
1.69702
-2.43025
-6.77843
-10.9804
-15.3428
-19.6602
-23.7982
-27.8147
-31.6395
-35.261
-38.71
-41.9758
-45.0721
-48.0089
-50.7834
-53.3912
-55.8206
-58.0525
-60.0627
-61.8211
-63.2943
-64.457
-65.2939
-65.8137
-66.0387
-65.9527
-65.5118
-64.6673
-63.3707
-61.5739
-59.2309
-56.3003
-52.7521
-48.571
-43.7651
-38.3789
-32.5079
-26.5774
8.73718
11.9973
15.5789
19.3296
22.8698
26.2737
29.4103
32.0512
34.1525
35.7977
37.0367
37.9322
38.5746
39.0283
39.3405
39.5492
39.6793
39.7461
39.7585
39.7189
39.6242
39.4659
39.2284
38.893
38.4549
37.9252
37.3116
36.6175
35.8487
35.0136
34.124
33.194
32.2392
31.2754
30.3153
29.3648
28.4182
27.4443
26.4206
4.82165
1.37153
-2.55455
-6.68476
-10.67
-14.8016
-18.8837
-22.7891
-26.5729
-30.169
-33.5668
-36.796
-39.8469
-42.7328
-45.4639
-48.0375
-50.4504
-52.6921
-54.7456
-56.5894
-58.1965
-59.537
-60.5891
-61.3413
-61.8038
-61.9997
-61.9162
-61.5152
-60.754
-59.5899
-57.9813
-55.8865
-53.2683
-50.0973
-46.356
-42.0447
-37.1929
-31.8704
-26.4531
8.07831
11.1884
14.6093
18.1965
21.5866
24.8515
27.8657
30.4095
32.4393
34.0346
35.242
36.1207
36.7568
37.2121
37.5316
37.7524
37.8985
37.9849
38.0213
38.0107
37.9512
37.8359
37.6512
37.3804
37.0182
36.5732
36.0516
35.4558
34.7896
34.0591
33.2728
32.4413
31.5758
30.6877
29.7857
28.8728
27.9425
26.9677
25.9391