/*--------------------------------*- C++ -*----------------------------------*\
  =========                 |
  \\      /  F ield         | OpenFOAM: The Open Source CFD Toolbox
   \\    /   O peration     | Website:  https://openfoam.org
    \\  /    A nd           | Version:  12
     \\/     M anipulation  |
\*---------------------------------------------------------------------------*/
FoamFile
{
    format      ascii;
    class       surfaceScalarField;
    location    "100";
    object      phi;
}
// * * * * * * * * * * * * * * * * * * * * * * * * * * * * * * * * * * * * * //

dimensions      [0 3 -1 0 0 0 0];

internalField   nonuniform List<scalar> 
21254
(
-0.227745
0.24741
-0.0196652
0.269468
-0.0220578
0.288594
-0.0191257
0.305754
-0.0171606
0.322045
-0.0162906
0.335212
-0.0131674
0.345748
-0.0105355
0.354421
-0.00867256
0.360327
-0.00590647
0.3645
-0.00417234
0.367174
-0.00267467
0.36826
-0.00108508
0.36817
8.96379e-05
0.366723
0.0014466
0.36379
0.00293376
0.359637
0.00415256
0.354096
0.00554146
0.347277
0.0068185
0.339068
0.00820963
0.329729
0.00933929
0.318978
0.0107507
0.307413
0.0115658
0.295325
0.0120881
0.284017
0.0113077
0.274675
0.00934177
0.266629
0.0080461
0.258768
0.00786193
0.250772
0.00799574
0.242307
0.0084651
0.233279
0.00902805
0.223657
0.00962281
0.213426
0.0102312
0.202516
0.0109104
0.190684
0.0118329
0.177398
0.0132877
0.161609
0.0157904
0.141015
0.020598
0.110512
0.0305112
0.0941442
0.0164859
-0.204703
-0.0230424
-0.180794
-0.0239088
-0.151521
-0.0292726
-0.119465
-0.0320559
-0.0857094
-0.0337556
-0.0508773
-0.0348321
-0.0166238
-0.0342534
0.0151502
-0.0317738
0.0441319
-0.0289816
0.069597
-0.0254649
0.0912846
-0.0216875
0.109587
-0.0183024
0.124908
-0.0153212
0.137654
-0.0127454
0.148553
-0.0108991
0.157921
-0.00936767
0.166237
-0.00831592
0.173731
-0.00749413
0.180713
-0.00698196
0.187301
-0.00658748
0.193662
-0.00636128
0.199782
-0.00612016
0.205587
-0.00580541
0.210436
-0.00484938
0.214139
-0.00370364
0.21698
-0.00284147
0.218955
-0.00197523
0.220188
-0.00123235
0.220668
-0.000480365
0.220336
0.000331816
0.219136
0.00120025
0.21721
0.00192535
0.21468
0.00252982
0.211603
0.00307632
0.207839
0.00376314
0.202972
0.00486716
0.19587
0.00710085
0.181304
0.0145605
0.160199
0.0211069
-0.207853
0.229304
-0.0411163
0.251262
-0.0440155
0.274225
-0.0420886
0.295675
-0.0386111
0.316619
-0.0372344
0.336065
-0.0326133
0.353598
-0.0280688
0.36947
-0.0245442
0.383281
-0.0197168
0.39508
-0.0159722
0.404899
-0.0124927
0.412761
-0.00894769
0.418947
-0.00609637
0.423782
-0.00338821
0.427222
-0.000506055
0.428948
0.00242657
0.428868
0.00562228
0.427073
0.00861276
0.423047
0.0122361
0.417045
0.0153415
0.408649
0.0191476
0.398122
0.0220929
0.385443
0.0247673
0.371231
0.0255198
0.356732
0.0238409
0.342395
0.0223833
0.32833
0.0219269
0.31477
0.021556
0.301551
0.0216841
0.288539
0.0220401
0.275535
0.0226286
0.262379
0.0233869
0.248823
0.0244665
0.23465
0.0260071
0.219457
0.028483
0.202242
0.033007
0.181728
0.041117
0.149119
0.0631276
0.107964
0.0577186
-0.185945
-0.0449498
-0.162458
-0.047396
-0.134962
-0.0567687
-0.105901
-0.061117
-0.0750615
-0.0645949
-0.0428684
-0.0670252
-0.0107923
-0.0663295
0.0197275
-0.0622934
0.0474767
-0.0567306
0.0722357
-0.0502239
0.0938243
-0.043276
0.112558
-0.0370358
0.128841
-0.0316042
0.142894
-0.0267983
0.155171
-0.0231758
0.165972
-0.0201685
0.175587
-0.0179312
0.184327
-0.016234
0.192445
-0.0150999
0.20005
-0.0141926
0.207302
-0.0136125
0.214267
-0.0130857
0.220869
-0.0124076
0.226637
-0.0106184
0.231294
-0.00836035
0.235046
-0.00659405
0.237891
-0.00482063
0.239878
-0.00321954
0.241078
-0.00167987
0.24164
-0.000230424
0.241629
0.00121094
0.240985
0.00256951
0.239588
0.0039265
0.237406
0.00525775
0.234393
0.00677468
0.230309
0.00895018
0.22518
0.0122284
0.214343
0.025392
0.194207
0.0412449
-0.201883
0.22361
-0.0628433
0.245532
-0.065937
0.269201
-0.0657584
0.290878
-0.0602872
0.311537
-0.0578933
0.331342
-0.0524184
0.349011
-0.0457372
0.364945
-0.0404784
0.378706
-0.0334777
0.39056
-0.027826
0.400533
-0.022466
0.408804
-0.0172184
0.415174
-0.0124666
0.420089
-0.00830251
0.423278
-0.00369577
0.42546
0.000244512
0.426357
0.00472549
0.426336
0.00863459
0.425091
0.0134806
0.422585
0.0178473
0.418721
0.0230126
0.413341
0.0274727
0.406422
0.0316865
0.398048
0.0338932
0.388714
0.0331744
0.378464
0.032634
0.367171
0.0332193
0.354967
0.0337607
0.34201
0.0346414
0.32839
0.0356599
0.314251
0.0367681
0.299623
0.0380154
0.284449
0.0396406
0.268556
0.0419002
0.251554
0.0454869
0.232452
0.0521091
0.210079
0.0634929
0.176936
0.0962735
0.129334
0.105372
-0.180035
-0.0667985
-0.156149
-0.071282
-0.127597
-0.0853196
-0.0979127
-0.0908019
-0.0669245
-0.0955831
-0.0348069
-0.0991427
-0.00309898
-0.0980373
0.0264991
-0.0918914
0.0535688
-0.0838002
0.0780778
-0.0747327
0.0996964
-0.0648945
0.118606
-0.0559455
0.135166
-0.0481638
0.149647
-0.0412794
0.162366
-0.035895
0.173669
-0.0314708
0.183821
-0.0280833
0.193091
-0.0255039
0.201687
-0.0236956
0.209771
-0.0222773
0.21753
-0.0213707
0.224971
-0.0205273
0.231999
-0.0194352
0.238304
-0.016924
0.243596
-0.0136523
0.247979
-0.0109772
0.251511
-0.00835318
0.254224
-0.00593315
0.256185
-0.00364049
0.257387
-0.00143333
0.257905
0.000693386
0.257728
0.00274607
0.25688
0.00477383
0.255291
0.00684711
0.252861
0.00920353
0.249214
0.0125971
0.243958
0.0174833
0.233391
0.035956
0.213935
0.0607015
-0.194987
0.217674
-0.0855309
0.24045
-0.0887127
0.265505
-0.0908129
0.288382
-0.083165
0.310578
-0.0800891
0.331872
-0.0737119
0.35143
-0.065295
0.369084
-0.0581328
0.385035
-0.0494278
0.399056
-0.0418471
0.411263
-0.0346733
0.421654
-0.0276093
0.430248
-0.02106
0.437075
-0.0151296
0.442456
-0.00907715
0.446059
-0.00335849
0.448004
0.0027813
0.448045
0.00859349
0.446488
0.0150378
0.443205
0.0211306
0.438336
0.0278812
0.432133
0.0336767
0.424731
0.0390885
0.416644
0.0419801
0.408311
0.0415076
0.399794
0.0411509
0.39073
0.0422836
0.380969
0.0435227
0.370324
0.0452859
0.35861
0.0473743
0.345807
0.0495728
0.331886
0.0519363
0.316836
0.0546913
0.300522
0.0582146
0.282684
0.0633274
0.262381
0.0724142
0.238367
0.0875118
0.204049
0.130598
0.155179
0.154288
-0.172569
-0.0892164
-0.148547
-0.0953032
-0.119412
-0.114455
-0.0895231
-0.120691
-0.0583869
-0.126719
-0.0260546
-0.131475
0.00562275
-0.129715
0.0348896
-0.121158
0.0615894
-0.1105
0.0857786
-0.0989218
0.107137
-0.0862531
0.125928
-0.0747362
0.142562
-0.0647973
0.157275
-0.0559921
0.170389
-0.0490092
0.18213
-0.0432122
0.192798
-0.0387506
0.202569
-0.0352748
0.211676
-0.0328029
0.220258
-0.0308593
0.228427
-0.0295391
0.236246
-0.0283464
0.243652
-0.0268416
0.25032
-0.0235922
0.256005
-0.019338
0.26077
-0.0157426
0.26466
-0.0122432
0.267724
-0.00899717
0.269995
-0.00591142
0.271531
-0.00296968
0.272361
-0.000136988
0.272511
0.00259587
0.27198
0.00530427
0.270755
0.00807122
0.26872
0.0112373
0.265502
0.0158138
0.260537
0.0224473
0.250522
0.0459651
0.231298
0.0799272
-0.191277
0.214803
-0.109056
0.238481
-0.112391
0.264958
-0.117289
0.288617
-0.106824
0.311838
-0.103309
0.334231
-0.0961056
0.354688
-0.0857519
0.373324
-0.0767686
0.390424
-0.0665274
0.405343
-0.0567664
0.418467
-0.0477968
0.429732
-0.0388742
0.439405
-0.0307329
0.447157
-0.0228818
0.453166
-0.0150862
0.457428
-0.00761999
0.460078
0.000131114
0.46116
0.00751183
0.460431
0.0157663
0.45815
0.023412
0.45417
0.0318607
0.448628
0.039219
0.441755
0.0459616
0.433947
0.0497884
0.425777
0.0496775
0.417454
0.0494732
0.408841
0.0508968
0.39988
0.052484
0.390436
0.0547297
0.380347
0.0574636
0.369366
0.0605542
0.357259
0.0640431
0.343801
0.0681502
0.328686
0.0733295
0.311485
0.0805288
0.291313
0.0925864
0.266728
0.112099
0.231721
0.165607
0.182644
0.203396
-0.167818
-0.112675
-0.143088
-0.120033
-0.112715
-0.144828
-0.0819859
-0.15142
-0.0501229
-0.158582
-0.0171399
-0.164458
0.0149866
-0.161841
0.0443527
-0.150524
0.0709447
-0.137092
0.0949554
-0.122932
0.116095
-0.107392
0.134725
-0.0933664
0.151338
-0.0814099
0.166141
-0.0707952
0.179453
-0.0623212
0.19154
-0.0552991
0.202581
-0.049791
0.212761
-0.0454546
0.222277
-0.0423192
0.231269
-0.0398513
0.23983
-0.0380997
0.247999
-0.0365153
0.255738
-0.0345815
0.26277
-0.0306236
0.268829
-0.0253978
0.273951
-0.0208645
0.278168
-0.0164605
0.281533
-0.0123624
0.284075
-0.00845326
0.285826
-0.00472147
0.286829
-0.00114007
0.287139
0.00228577
0.28675
0.00569274
0.285628
0.00919379
0.283724
0.0131409
0.280655
0.0188821
0.275837
0.027265
0.266401
0.055399
0.247773
0.0985557
-0.188356
0.212898
-0.133599
0.237885
-0.137378
0.265731
-0.145136
0.290579
-0.131672
0.314802
-0.127532
0.338536
-0.11984
0.359934
-0.10715
0.37981
-0.0966446
0.397859
-0.084576
0.413959
-0.0728667
0.428341
-0.0621787
0.440818
-0.051351
0.451603
-0.0415188
0.460673
-0.0319513
0.467888
-0.0223009
0.473551
-0.0132826
0.477299
-0.00361698
0.479218
0.00559258
0.479415
0.0155702
0.477709
0.0251176
0.474147
0.0354233
0.468944
0.044422
0.462249
0.0526574
0.454475
0.057562
0.446133
0.0580193
0.437484
0.0581233
0.428482
0.059899
0.419144
0.0618218
0.409478
0.0643963
0.399416
0.0675255
0.388893
0.0710789
0.377679
0.0752573
0.365507
0.0803233
0.351943
0.086894
0.336364
0.09611
0.317578
0.111375
0.293938
0.135743
0.259481
0.200069
0.210852
0.252058
-0.163924
-0.137106
-0.138366
-0.145591
-0.106669
-0.176525
-0.0747862
-0.183303
-0.0419072
-0.191461
-0.00797577
-0.198389
0.0249071
-0.194724
0.0546676
-0.180284
0.0813934
-0.163817
0.105382
-0.146921
0.126399
-0.12841
0.144862
-0.111829
0.161368
-0.0979155
0.176173
-0.0856009
0.189584
-0.0757316
0.201859
-0.0675741
0.213162
-0.061094
0.22369
-0.0559826
0.23357
-0.0521991
0.242933
-0.0492137
0.25187
-0.0470366
0.260402
-0.0450473
0.268473
-0.0426532
0.275897
-0.0380478
0.282342
-0.031843
0.287801
-0.0263237
0.292359
-0.0210195
0.296013
-0.0160163
0.29881
-0.0112507
0.300781
-0.00669292
0.301966
-0.00232465
0.302391
0.00185998
0.302065
0.0060182
0.301007
0.0102509
0.299072
0.0150749
0.295978
0.0219752
0.291051
0.0321906
0.281916
0.0645297
0.263942
0.11653
-0.186638
0.212506
-0.159467
0.238538
-0.163409
0.267951
-0.174548
0.294068
-0.157789
0.319539
-0.153002
0.344344
-0.144644
0.366898
-0.129704
0.387614
-0.117361
0.406694
-0.103655
0.423716
-0.0898892
0.438914
-0.0773768
0.452423
-0.0648601
0.464111
-0.0532062
0.474038
-0.0418783
0.482262
-0.0305253
0.488608
-0.019628
0.493225
-0.0082342
0.496006
0.0028114
0.496975
0.0146016
0.496064
0.026028
0.493312
0.0381756
0.48878
0.0489546
0.482787
0.0586503
0.475516
0.0648326
0.467471
0.0660641
0.458884
0.0667099
0.449759
0.0690235
0.440129
0.0714527
0.430073
0.0744518
0.419561
0.078038
0.408599
0.0820408
0.397146
0.0867108
0.385072
0.0923978
0.372043
0.0999223
0.357547
0.110607
0.340381
0.128541
0.318681
0.157444
0.286361
0.232391
0.239227
0.299212
-0.160999
-0.162745
-0.134335
-0.172255
-0.101182
-0.209678
-0.0679811
-0.216504
-0.0338868
-0.225556
0.0013002
-0.233576
0.0351835
-0.228607
0.0656318
-0.210733
0.0927363
-0.190922
0.116913
-0.171097
0.137905
-0.149401
0.156261
-0.130185
0.17266
-0.114314
0.187398
-0.100339
0.20081
-0.0891442
0.213181
-0.0799452
0.224686
-0.0725981
0.235465
-0.0667616
0.245654
-0.0623884
0.255347
-0.0589072
0.264618
-0.0563071
0.273479
-0.0539082
0.281906
-0.0510807
0.289652
-0.0457938
0.296488
-0.038679
0.302336
-0.0321719
0.307217
-0.0259013
0.311183
-0.0199823
0.314235
-0.0143027
0.316436
-0.00889417
0.317787
-0.00367556
0.318347
0.00129925
0.318126
0.00623957
0.317073
0.0113036
0.31514
0.0170072
0.311957
0.0251584
0.30685
0.0372974
0.2978
0.0735795
0.280412
0.133917
-0.185612
0.212815
-0.186671
0.240275
-0.190869
0.271365
-0.205639
0.298681
-0.185105
0.325433
-0.179754
0.351479
-0.17069
0.375041
-0.153266
0.396949
-0.139268
0.416829
-0.123535
0.434764
-0.107824
0.450985
-0.0935984
0.465332
-0.079207
0.477877
-0.0657506
0.488734
-0.0527351
0.497835
-0.0396264
0.505135
-0.0269282
0.510659
-0.0137577
0.514333
-0.000862401
0.516069
0.0128656
0.515868
0.0262296
0.513808
0.0402351
0.509891
0.0528725
0.504351
0.0641902
0.497539
0.071645
0.489777
0.0738268
0.481318
0.0751683
0.472219
0.0781235
0.462479
0.0811927
0.452141
0.0847895
0.441266
0.0889142
0.429801
0.0935065
0.41779
0.0987219
0.405141
0.105048
0.39175
0.113314
0.377221
0.125138
0.360702
0.145062
0.340643
0.177508
0.311326
0.261714
0.266905
0.343658
-0.15874
-0.189617
-0.130911
-0.200083
-0.0960397
-0.24455
-0.061311
-0.251233
-0.0257707
-0.261096
0.0107959
-0.270143
0.0459104
-0.263721
0.0772563
-0.242078
0.104927
-0.218592
0.129431
-0.1956
0.150535
-0.170505
0.168848
-0.148499
0.185156
-0.130621
0.199802
-0.114985
0.213164
-0.102506
0.225589
-0.0923697
0.237191
-0.0842004
0.248155
-0.077725
0.258578
-0.072811
0.268554
-0.0688838
0.278116
-0.0658683
0.287307
-0.0630993
0.296062
-0.0598364
0.304176
-0.0539073
0.31138
-0.045883
0.317592
-0.038385
0.322826
-0.0311357
0.327111
-0.0242671
0.330439
-0.0176315
0.332856
-0.0113115
0.334409
-0.00522825
0.335101
0.00060628
0.334966
0.00637359
0.333963
0.0123063
0.331983
0.0189859
0.328711
0.0284297
0.323437
0.0425701
0.314384
0.0826293
0.29758
0.150721
-0.185384
0.213957
-0.215244
0.242862
-0.219774
0.275651
-0.238428
0.304354
-0.213808
0.332568
-0.207967
0.359964
-0.198086
0.384737
-0.178038
0.407524
-0.162055
0.428502
-0.144514
0.447258
-0.126581
0.464176
-0.110516
0.479323
-0.0943546
0.492714
-0.0791409
0.504358
-0.064379
0.514255
-0.0495238
0.522426
-0.0350989
0.528737
-0.0200682
0.533141
-0.00526687
0.535621
0.0103861
0.536128
0.0257228
0.534737
0.0416256
0.531486
0.0561232
0.52654
0.0691362
0.520209
0.0779759
0.512822
0.0812142
0.50458
0.0834095
0.495536
0.0871675
0.48576
0.0909687
0.47531
0.0952395
0.464175
0.100049
0.452363
0.105319
0.43987
0.111214
0.42664
0.118279
0.41255
0.127403
0.397375
0.140314
0.380471
0.161965
0.360906
0.197074
0.334255
0.288365
0.292995
0.384933
-0.157024
-0.217976
-0.127841
-0.229267
-0.0911886
-0.281202
-0.0548887
-0.287532
-0.0176926
-0.298292
0.0204682
-0.308304
0.0570652
-0.300318
0.0894775
-0.274491
0.117891
-0.247006
0.142888
-0.220597
0.164221
-0.191838
0.182591
-0.166869
0.198856
-0.146885
0.213419
-0.129548
0.226713
-0.1158
0.239096
-0.104753
0.250759
-0.0958635
0.261832
-0.0887986
0.272427
-0.0834055
0.282634
-0.0790904
0.292488
-0.0757226
0.301954
-0.0725653
0.311018
-0.0689009
0.319484
-0.062373
0.327077
-0.0534763
0.333641
-0.0449496
0.339231
-0.0367253
0.343815
-0.0288518
0.347443
-0.0212593
0.350112
-0.0139801
0.351851
-0.00696809
0.352701
-0.000243323
0.352651
0.00642346
0.351691
0.0132661
0.349711
0.0209658
0.346365
0.0317752
0.340905
0.0480303
0.331867
0.0916673
0.315643
0.166945
-0.185574
0.215758
-0.245428
0.246211
-0.250227
0.28089
-0.273107
0.31105
-0.243967
0.340552
-0.237469
0.369415
-0.226949
0.395353
-0.203976
0.41927
-0.185973
0.441224
-0.166468
0.460848
-0.146205
0.478607
-0.128275
0.494614
-0.110362
0.508696
-0.0932227
0.521042
-0.0767254
0.531783
-0.0602649
0.540644
-0.0439593
0.547715
-0.027139
0.552858
-0.0104096
0.55612
0.0071241
0.557401
0.0244418
0.556617
0.0424104
0.55401
0.0587306
0.549639
0.0735072
0.543809
0.0838058
0.536774
0.0882494
0.528704
0.0914796
0.51977
0.0961025
0.510014
0.100725
0.499429
0.105824
0.488121
0.111358
0.476038
0.117403
0.463152
0.124101
0.44942
0.132012
0.434716
0.142109
0.418809
0.156222
0.40108
0.179696
0.380978
0.217181
0.355809
0.31354
0.317338
0.423423
-0.155838
-0.247712
-0.125188
-0.259917
-0.086572
-0.319818
-0.0484104
-0.325694
-0.00952151
-0.337181
0.0304853
-0.34831
0.0686314
-0.338464
0.102296
-0.308155
0.131622
-0.276332
0.157276
-0.246251
0.178956
-0.213518
0.197453
-0.185366
0.213738
-0.16317
0.228238
-0.144048
0.241451
-0.129012
0.253786
-0.117088
0.265437
-0.107514
0.276561
-0.0999228
0.287299
-0.0941432
0.297685
-0.0894766
0.307732
-0.0857692
0.317482
-0.0823156
0.326855
-0.078274
0.335652
-0.0711703
0.343594
-0.0614183
0.350542
-0.0518981
0.356463
-0.042646
0.36139
-0.0337793
0.3653
-0.0251692
0.368219
-0.0168996
0.370183
-0.00893273
0.371173
-0.00123452
0.371242
0.00635397
0.370338
0.0141694
0.368339
0.0229645
0.364905
0.0352075
0.359325
0.0536089
0.350322
0.100668
0.334653
0.182614
-0.186356
0.218113
-0.277185
0.250146
-0.28226
0.286754
-0.309714
0.318589
-0.275802
0.349703
-0.268583
0.380035
-0.257281
0.407117
-0.231058
0.432255
-0.211111
0.455237
-0.189449
0.475792
-0.166761
0.494333
-0.146815
0.510965
-0.126994
0.52583
-0.108088
0.539004
-0.0898986
0.550322
-0.0715827
0.559941
-0.0535789
0.567717
-0.0349146
0.573632
-0.0163245
0.577541
0.00321475
0.579481
0.0225021
0.579403
0.0424883
0.577366
0.0607683
0.573567
0.0773063
0.568241
0.089131
0.561604
0.0948871
0.553837
0.0992458
0.545024
0.104915
0.535242
0.110507
0.524614
0.116452
0.513095
0.122877
0.500746
0.129752
0.487537
0.13731
0.473381
0.146168
0.458139
0.157351
0.441548
0.172814
0.423031
0.198212
0.401935
0.238278
0.377146
0.33833
0.340593
0.459987
-0.154948
-0.27912
-0.122786
-0.292079
-0.0820927
-0.360512
-0.0419951
-0.365792
-0.00113738
-0.378038
0.0407502
-0.390198
0.0806701
-0.378384
0.115738
-0.343222
0.146142
-0.306737
0.172532
-0.272641
0.194696
-0.235681
0.213425
-0.204095
0.229801
-0.179546
0.244272
-0.158519
0.257414
-0.142155
0.269674
-0.129347
0.281284
-0.119125
0.292433
-0.111072
0.303218
-0.104928
0.313732
-0.0999903
0.323995
-0.0960326
0.333977
-0.0922969
0.343611
-0.0879079
0.35274
-0.0803
0.361034
-0.0697125
0.368335
-0.0591989
0.374623
-0.0489339
0.379871
-0.0390281
0.384095
-0.0293933
0.387274
-0.0200787
0.389436
-0.0110948
0.39062
-0.00241826
0.390794
0.0061794
0.389954
0.01501
0.387943
0.0249747
0.38446
0.0386912
0.378743
0.0593264
0.369789
0.109621
0.354736
0.197667
-0.187442
0.220997
-0.31074
0.254789
-0.316052
0.293435
-0.34836
0.326873
-0.30924
0.359597
-0.301307
0.39151
-0.289194
0.420091
-0.259639
0.446361
-0.237381
0.47041
-0.213498
0.491862
-0.188213
0.51129
-0.166243
0.528774
-0.144477
0.544246
-0.12356
0.558029
-0.103682
0.570103
-0.0836569
0.580394
-0.0638697
0.588814
-0.0433342
0.595347
-0.022857
0.599923
-0.00136146
0.602539
0.0198867
0.603124
0.0419031
0.601739
0.062154
0.598514
0.0805312
0.593681
0.0939647
0.587428
0.10114
0.579936
0.106738
0.571276
0.113575
0.56157
0.120213
0.550852
0.127171
0.539191
0.134537
0.526588
0.142356
0.51303
0.15087
0.49848
0.160718
0.482734
0.173098
0.46554
0.19001
0.446329
0.217425
0.42424
0.26037
0.399103
0.363472
0.363754
0.495351
-0.154394
-0.312168
-0.120504
-0.325969
-0.0776713
-0.403345
-0.0354749
-0.407988
0.00742979
-0.420943
0.0513711
-0.434139
0.093245
-0.420258
0.129823
-0.3798
0.161413
-0.338327
0.188718
-0.299945
0.211472
-0.258435
0.230531
-0.223155
0.247032
-0.196047
0.261531
-0.173018
0.274621
-0.155245
0.286811
-0.141537
0.298349
-0.130662
0.309469
-0.122191
0.3203
-0.115759
0.330892
-0.110583
0.341289
-0.106429
0.351461
-0.102469
0.361376
-0.0978232
0.370809
-0.0897336
0.379445
-0.0783482
0.3871
-0.0668538
0.393726
-0.0555607
0.399322
-0.0446239
0.403828
-0.0339
0.407289
-0.0235399
0.409685
-0.0134914
0.411035
-0.00376862
0.411352
0.00586137
0.410561
0.0158002
0.408566
0.0269694
0.405019
0.0422363
0.399193
0.0651516
0.390354
0.118458
0.375935
0.212084
-0.189008
0.224277
-0.346008
0.259928
-0.351703
0.300731
-0.389163
0.336021
-0.344529
0.370495
-0.335781
0.404047
-0.322746
0.434045
-0.289637
0.461645
-0.264981
0.486752
-0.238606
0.509184
-0.210644
0.52944
-0.186499
0.547653
-0.162691
0.563932
-0.139839
0.578409
-0.118158
0.591087
-0.0963351
0.60196
-0.0747428
0.611036
-0.0524098
0.618241
-0.0300617
0.623464
-0.0065845
0.626637
0.0167135
0.627839
0.0407013
0.627025
0.062968
0.624355
0.0832009
0.620062
0.0982582
0.614296
0.106906
0.607099
0.113936
0.598644
0.122029
0.588994
0.129864
0.578236
0.137929
0.566443
0.14633
0.553618
0.15518
0.539736
0.164752
0.52475
0.175705
0.508501
0.189346
0.490724
0.207787
0.47087
0.237277
0.447981
0.283259
0.42224
0.389214
0.387639
0.529959
-0.154044
-0.347132
-0.118488
-0.361525
-0.0732875
-0.448545
-0.0288963
-0.452379
0.0162575
-0.466097
0.0624702
-0.480352
0.106319
-0.464107
0.144608
-0.418088
0.177508
-0.371228
0.20583
-0.328267
0.22927
-0.281874
0.248744
-0.242629
0.265485
-0.212788
0.280061
-0.187593
0.293127
-0.16831
0.30525
-0.153661
0.316715
-0.142127
0.327779
-0.133255
0.338588
-0.126569
0.349234
-0.121228
0.359729
-0.116923
0.370079
-0.112819
0.380211
-0.107955
0.389943
-0.0994653
0.398897
-0.0873027
0.406893
-0.0748496
0.413864
-0.0625316
0.419768
-0.0505282
0.424598
-0.0387303
0.428336
-0.0272773
0.430976
-0.0161317
0.43253
-0.00532255
0.432975
0.00541582
0.432273
0.0165027
0.43028
0.0289625
0.426711
0.0458051
0.420803
0.0710604
0.412039
0.127222
0.398307
0.225816
-0.190807
0.228021
-0.383222
0.265636
-0.389318
0.308737
-0.432264
0.345916
-0.381707
0.382172
-0.372037
0.417481
-0.358055
0.449023
-0.321179
0.477935
-0.293892
0.50427
-0.264942
0.527694
-0.234068
0.54891
-0.207714
0.567901
-0.181683
0.584883
-0.156821
0.600024
-0.133298
0.613236
-0.109547
0.624777
-0.0862838
0.63446
-0.0620931
0.642243
-0.0378447
0.648102
-0.0124431
0.651925
0.0128906
0.653696
0.0389311
0.653481
0.0631827
0.651377
0.0853054
0.647581
0.102054
0.64223
0.112258
0.635358
0.120808
0.627138
0.130249
0.617611
0.13939
0.606846
0.148695
0.594932
0.158243
0.581878
0.168235
0.567691
0.178939
0.552276
0.19112
0.535546
0.206077
0.517184
0.22615
0.4967
0.257763
0.473064
0.306898
0.446765
0.415517
0.412727
0.564007
-0.154058
-0.383881
-0.116461
-0.399122
-0.0688764
-0.49613
-0.0221079
-0.499148
0.0253666
-0.513571
0.0739188
-0.528904
0.120036
-0.510224
0.16012
-0.458172
0.194499
-0.405607
0.223938
-0.357707
0.248171
-0.306107
0.268133
-0.26259
0.285167
-0.229823
0.299863
-0.202289
0.312934
-0.181381
0.325018
-0.165745
0.336416
-0.153524
0.347391
-0.144231
0.358163
-0.13734
0.368824
-0.131889
0.379389
-0.127489
0.389862
-0.123292
0.400206
-0.1183
0.410197
-0.109456
0.419453
-0.0965581
0.427772
-0.0831696
0.435077
-0.0698366
0.441323
-0.0567747
0.446466
-0.0438733
0.450486
-0.0312978
0.453368
-0.0190137
0.455111
-0.00706655
0.455712
0.00481416
0.455098
0.017116
0.453133
0.0309264
0.449536
0.0494014
0.443579
0.0770162
0.434977
0.135823
0.421915
0.238876
-0.192908
0.232227
-0.422541
0.271867
-0.428957
0.31738
-0.477776
0.356514
-0.420841
0.394701
-0.410225
0.431961
-0.395315
0.46503
-0.354248
0.495383
-0.324245
0.523072
-0.29263
0.547594
-0.25859
0.569693
-0.229814
0.589528
-0.201517
0.607136
-0.174429
0.622945
-0.149107
0.636898
-0.1235
0.648996
-0.0983812
0.659269
-0.0723661
0.66761
-0.046186
0.673945
-0.0187776
0.678325
0.00851054
0.680696
0.0365602
0.680993
0.0628863
0.679434
0.0868647
0.676153
0.105334
0.671264
0.117147
0.664793
0.127279
0.656783
0.138259
0.647395
0.148778
0.636689
0.1594
0.624687
0.170245
0.611448
0.181474
0.596947
0.19344
0.581169
0.206897
0.563935
0.22331
0.544967
0.245118
0.523846
0.278883
0.499573
0.331171
0.472727
0.442362
0.439252
0.597486
-0.154156
-0.422634
-0.114676
-0.438601
-0.0644296
-0.546376
-0.0151735
-0.548404
0.034796
-0.563541
0.0859207
-0.580029
0.134336
-0.55864
0.176407
-0.500242
0.212319
-0.441519
0.24303
-0.388418
0.268131
-0.331207
0.288705
-0.283164
0.306105
-0.247223
0.320988
-0.217172
0.334122
-0.194514
0.346166
-0.177789
0.357485
-0.164843
0.368401
-0.155146
0.379108
-0.148047
0.389737
-0.142519
0.400336
-0.138087
0.410925
-0.133881
0.421442
-0.128817
0.431666
-0.11968
0.441221
-0.106113
0.449846
-0.0917948
0.457472
-0.0774627
0.464029
-0.0633311
0.469483
-0.0493277
0.473777
-0.0355922
0.47692
-0.022156
0.47889
-0.0090367
0.479632
0.00407177
0.479134
0.0176146
0.477215
0.0328451
0.473606
0.0530104
0.467629
0.0829939
0.459158
0.144294
0.446822
0.251213
-0.195365
0.236844
-0.46402
0.278613
-0.470726
0.326641
-0.525803
0.367842
-0.462042
0.408145
-0.450528
0.447359
-0.434528
0.482131
-0.389021
0.51404
-0.356154
0.543022
-0.321612
0.568638
-0.284206
0.591728
-0.252903
0.612434
-0.222223
0.630907
-0.192902
0.64734
-0.16554
0.661873
-0.138033
0.674544
-0.111052
0.685356
-0.0831784
0.694242
-0.0550719
0.70121
-0.0257453
0.706097
0.00362384
0.708952
0.0337055
0.709822
0.0620164
0.708751
0.0879359
0.705959
0.108127
0.701501
0.121606
0.695396
0.133383
0.687691
0.145965
0.678471
0.157998
0.667807
0.170064
0.65575
0.182302
0.642356
0.194869
0.6276
0.208197
0.611419
0.223079
0.593702
0.241028
0.574173
0.264649
0.552438
0.300619
0.527513
0.356098
0.500188
0.469691
0.467281
0.6304
-0.154449
-0.46355
-0.112822
-0.480228
-0.0598698
-0.599328
-0.00798166
-0.600292
0.0446373
-0.61616
0.0984545
-0.633846
0.149375
-0.60956
0.193525
-0.544392
0.231145
-0.479139
0.263188
-0.420461
0.28929
-0.357309
0.310518
-0.304391
0.328345
-0.26505
0.343475
-0.232302
0.356703
-0.207742
0.368757
-0.189843
0.380015
-0.176101
0.390845
-0.165977
0.40148
-0.158682
0.412072
-0.153111
0.422671
-0.148687
0.433318
-0.144528
0.443986
-0.139484
0.454449
-0.130144
0.464255
-0.115919
0.473163
-0.100703
0.481094
-0.085394
0.487963
-0.0702005
0.493725
-0.0550898
0.49832
-0.0401874
0.501719
-0.0255553
0.503886
-0.0112045
0.504821
0.00313595
0.504427
0.0180085
0.50257
0.0347011
0.498974
0.056605
0.492994
0.0889728
0.484717
0.152569
0.473136
0.262793
-0.198029
0.24173
-0.50772
0.285828
-0.514825
0.336535
-0.57651
0.379971
-0.505477
0.422434
-0.492991
0.463681
-0.475775
0.500307
-0.425647
0.533824
-0.389671
0.564186
-0.351974
0.591031
-0.311052
0.615249
-0.277122
0.636808
-0.243782
0.656041
-0.212135
0.673197
-0.182696
0.688321
-0.153157
0.701582
-0.124313
0.712924
-0.0945199
0.722362
-0.0645099
0.729785
-0.0331682
0.735217
-0.00180802
0.738565
0.0303577
0.739892
0.0606892
0.739342
0.0884864
0.737016
0.110452
0.73303
0.125592
0.72729
0.139123
0.719871
0.153385
0.710846
0.167022
0.700256
0.180654
0.688193
0.194365
0.67466
0.208402
0.659662
0.223194
0.643135
0.239606
0.624957
0.259206
0.604889
0.284716
0.582502
0.323005
0.556994
0.381606
0.529235
0.497449
0.496864
0.662774
-0.154889
-0.506691
-0.111049
-0.524067
-0.0552269
-0.65515
-0.000502895
-0.655016
0.0548954
-0.671558
0.111526
-0.690476
0.165156
-0.66319
0.2115
-0.590736
0.250959
-0.518598
0.284451
-0.453953
0.311609
-0.384467
0.333582
-0.326364
0.351931
-0.283399
0.367357
-0.247728
0.380727
-0.221112
0.392829
-0.201945
0.404055
-0.187326
0.414813
-0.176736
0.425366
-0.169234
0.435887
-0.163632
0.446478
-0.159278
0.457165
-0.155214
0.467952
-0.150271
0.478592
-0.140784
0.488631
-0.125958
0.497822
-0.109894
0.506039
-0.093611
0.513221
-0.0773822
0.519271
-0.0611394
0.524153
-0.0450701
0.527811
-0.0292134
0.530224
-0.0136167
0.531324
0.00203523
0.531049
0.0182839
0.529276
0.0364743
0.525704
0.0601773
0.519784
0.0948931
0.511691
0.160662
0.500845
0.27364
-0.20101
0.247112
-0.553822
0.29365
-0.561362
0.347047
-0.629907
0.392943
-0.551374
0.437577
-0.537625
0.481091
-0.519289
0.519565
-0.464121
0.554795
-0.424902
0.586695
-0.383874
0.614845
-0.339202
0.640046
-0.302323
0.662636
-0.266371
0.68263
-0.232129
0.700496
-0.200563
0.716344
-0.169005
0.730137
-0.138105
0.742045
-0.106428
0.751975
-0.0744396
0.759937
-0.0411296
0.765811
-0.0076823
0.769619
0.0265502
0.771457
0.0588518
0.771313
0.0886302
0.769442
0.112324
0.765861
0.129172
0.760498
0.144487
0.753398
0.160485
0.744593
0.175827
0.734157
0.191091
0.722087
0.206436
0.708448
0.222041
0.693224
0.238418
0.676366
0.256464
0.657768
0.277805
0.637132
0.305353
0.61418
0.345958
0.588088
0.4077
0.55988
0.52566
0.528069
0.694589
-0.155527
-0.552174
-0.109305
-0.570289
-0.0503974
-0.714058
0.00723658
-0.71265
0.0656279
-0.729949
0.125275
-0.750124
0.181653
-0.719567
0.230427
-0.63951
0.271801
-0.559972
0.306889
-0.489041
0.335215
-0.412792
0.358021
-0.34917
0.376937
-0.302315
0.392717
-0.263508
0.406285
-0.23468
0.418442
-0.214103
0.429675
-0.198559
0.440359
-0.18742
0.450829
-0.179704
0.461277
-0.17408
0.471827
-0.169828
0.482533
-0.16592
0.493419
-0.161157
0.504229
-0.151594
0.514487
-0.136217
0.523912
-0.119319
0.532393
-0.102092
0.539846
-0.0848353
0.546199
-0.0674928
0.551354
-0.0502246
0.555286
-0.0331466
0.557912
-0.016243
0.559217
0.00073011
0.559102
0.0183982
0.557391
0.0381842
0.553908
0.063659
0.548042
0.100759
0.54021
0.168493
0.530112
0.283736
-0.204218
0.25285
-0.602454
0.30186
-0.610373
0.35832
-0.686366
0.406531
-0.599585
0.453682
-0.584775
0.499462
-0.565069
0.54004
-0.504699
0.577
-0.461862
0.61048
-0.417353
0.63996
-0.368682
0.666435
-0.328798
0.689951
-0.289887
0.710879
-0.253057
0.729494
-0.219178
0.745966
-0.185477
0.76037
-0.152509
0.772787
-0.118845
0.78319
-0.0848424
0.791573
-0.0495131
0.797919
-0.0140282
0.802209
0.0222603
0.804409
0.0566523
0.804703
0.0883361
0.803275
0.113752
0.800103
0.132345
0.795153
0.149437
0.788366
0.167273
0.779782
0.18441
0.769461
0.201412
0.757451
0.218446
0.74374
0.235752
0.728325
0.253832
0.711169
0.273619
0.692155
0.296818
0.671038
0.32647
0.647512
0.369482
0.620878
0.434334
0.59227
0.554268
0.560979
0.725881
-0.156266
-0.600126
-0.10754
-0.619015
-0.0454146
-0.776184
0.0152908
-0.773356
0.0768246
-0.791483
0.139664
-0.812962
0.199051
-0.778954
0.250307
-0.690766
0.293758
-0.603423
0.330508
-0.525791
0.360105
-0.442389
0.383829
-0.372894
0.403381
-0.321867
0.41959
-0.279717
0.433399
-0.248488
0.445675
-0.226379
0.456912
-0.209796
0.467557
-0.198065
0.477946
-0.190093
0.488338
-0.184472
0.498819
-0.18031
0.509536
-0.176637
0.520485
-0.172106
0.531439
-0.162548
0.54189
-0.146668
0.551522
-0.128951
0.560268
-0.110839
0.567987
-0.0925542
0.574593
-0.0740996
0.58005
-0.0556812
0.584232
-0.0373284
0.587102
-0.0191137
0.588581
-0.000748851
0.588618
0.018362
0.587044
0.0397581
0.583625
0.0670782
0.577891
0.106494
0.570295
0.176089
0.560964
0.293068
-0.207712
0.258963
-0.653704
0.310646
-0.662056
0.370158
-0.745878
0.421088
-0.650514
0.470682
-0.63437
0.518988
-0.613375
0.561583
-0.547294
0.600493
-0.500773
0.635668
-0.452528
0.666628
-0.399642
0.694276
-0.356446
0.718939
-0.31455
0.740744
-0.274862
0.760149
-0.238583
0.777258
-0.202585
0.792294
-0.167545
0.805213
-0.131764
0.816093
-0.0957221
0.824971
-0.0583914
0.831716
-0.0207725
0.836382
0.0175949
0.838998
0.0540358
0.839683
0.0876515
0.838644
0.114791
0.835879
0.13511
0.831274
0.154042
0.8248
0.173747
0.816504
0.192707
0.806354
0.211563
0.794384
0.230416
0.78062
0.249517
0.765066
0.269387
0.747649
0.291036
0.728252
0.316214
0.706666
0.348056
0.682607
0.393542
0.655467
0.461474
0.626478
0.58326
0.595663