/*--------------------------------*- C++ -*----------------------------------*\
  =========                 |
  \\      /  F ield         | OpenFOAM: The Open Source CFD Toolbox
   \\    /   O peration     | Website:  https://openfoam.org
    \\  /    A nd           | Version:  12
     \\/     M anipulation  |
\*---------------------------------------------------------------------------*/
FoamFile
{
    format      ascii;
    class       volVectorField;
    location    "100";
    object      U;
}
// * * * * * * * * * * * * * * * * * * * * * * * * * * * * * * * * * * * * * //

dimensions      [0 1 -1 0 0 0 0];

internalField   nonuniform List<vector> 
10720
(
(0.581591 26.9539 1.12391e-17)
(2.30204 29.2283 -1.03782e-17)
(4.46113 31.4256 0)
(6.94714 33.1406 -3.65229e-16)
(9.70081 34.4592 4.094e-16)
(12.6575 35.3349 3.03194e-16)
(15.6641 35.6646 4.23607e-16)
(18.6281 35.486 0)
(21.4716 34.858 0)
(24.1162 33.8171 0)
(26.5327 32.4446 1.13059e-16)
(28.7056 30.8177 0)
(30.6236 28.9909 2.2834e-15)
(32.2617 26.9791 0)
(33.6038 24.8068 0)
(34.6599 22.5176 0)
(35.4168 20.1282 -3.87042e-15)
(35.8775 17.6885 -5.7981e-15)
(36.0235 15.2228 5.16671e-15)
(35.8659 12.7919 0)
(35.3884 10.4339 4.26176e-15)
(34.6281 8.2238 -8.36552e-15)
(33.6333 6.21554 4.17338e-15)
(32.5131 4.47441 -1.25288e-16)
(31.4638 3.04986 0)
(30.5701 1.89165 1.66185e-15)
(29.7382 0.913522 2.57379e-17)
(28.8707 0.0744647 -7.29552e-16)
(27.9305 -0.648343 -2.66537e-15)
(26.913 -1.26983 -9.68228e-15)
(25.821 -1.7969 4.31737e-15)
(24.6573 -2.23313 7.87362e-15)
(23.4193 -2.57963 6.7911e-15)
(22.0978 -2.83691 2.31957e-14)
(20.6455 -3.0005 -9.36723e-15)
(19.0253 -3.06828 -6.62616e-17)
(16.9388 -2.98852 2.08806e-17)
(14.4994 -2.74739 3.3408e-15)
(9.08909 -2.22481 1.42442e-14)
(-0.773506 24.5279 -2.01136e-18)
(-1.85795 21.7973 -1.55025e-17)
(-2.60266 18.7258 6.155e-17)
(-2.87759 15.1762 -1.71184e-16)
(-2.52951 11.5086 -5.75243e-16)
(-1.52766 7.87688 1.00646e-15)
(0.0213917 4.5845 5.22916e-15)
(1.87404 1.85348 2.61864e-15)
(3.8867 -0.520784 0)
(6.13159 -2.5072 0)
(8.38203 -3.93584 1.82794e-15)
(10.4537 -4.83847 6.76959e-16)
(12.2952 -5.34286 -1.14106e-15)
(13.9067 -5.56604 9.43979e-16)
(15.3095 -5.60574 1.56292e-15)
(16.5387 -5.52622 1.00943e-15)
(17.6263 -5.37468 1.28414e-15)
(18.6046 -5.17905 8.50779e-16)
(19.5041 -4.9585 0)
(20.3473 -4.71531 0)
(21.1519 -4.4504 -1.15455e-15)
(21.9291 -4.15275 -5.19194e-17)
(22.6803 -3.80635 7.55531e-16)
(23.3744 -3.37958 -5.06218e-16)
(23.944 -2.86693 2.41723e-17)
(24.3706 -2.30633 0)
(24.6805 -1.72424 6.26447e-17)
(24.89 -1.13643 0)
(25.0069 -0.554494 0)
(25.0228 0.0107892 -1.33749e-17)
(24.9223 0.551506 0)
(24.7208 1.06056 1.22975e-16)
(24.4372 1.53176 1.66598e-16)
(24.0857 1.9597 4.39573e-16)
(23.6608 2.34081 1.51723e-16)
(23.153 2.67628 -1.25147e-18)
(22.438 2.95928 0)
(21.4592 3.15321 4.39735e-15)
(18.6687 3.31125 8.3267e-15)
(6.92821 23.4164 -8.70183e-18)
(8.7533 25.157 1.02454e-18)
(10.9868 26.7467 0)
(13.5639 28.0802 0)
(16.3464 29.0949 -1.20092e-16)
(19.3373 29.7308 -2.90161e-16)
(22.4219 29.9418 0)
(25.4692 29.7465 0)
(28.4229 29.1544 6.33527e-16)
(31.1956 28.2138 0)
(33.7312 26.9815 2.36213e-15)
(36.0038 25.5084 0)
(37.9869 23.843 8.54526e-16)
(39.6978 22.07 -8.41607e-16)
(41.1491 20.2153 1.70315e-15)
(42.3152 18.305 -3.41715e-15)
(43.1902 16.3526 3.66351e-15)
(43.7615 14.3827 3.35575e-15)
(44.0278 12.4028 3.28906e-15)
(43.9689 10.4421 2.00069e-16)
(43.583 8.52507 -3.43734e-15)
(42.8589 6.70448 3.26497e-15)
(41.8193 5.02035 -1.84076e-16)
(40.4977 3.52899 0)
(39.0001 2.28122 0)
(37.472 1.22531 0)
(35.9716 0.286115 1.3895e-16)
(34.4921 -0.545396 -3.10521e-17)
(33.0359 -1.27097 1.95386e-15)
(31.5991 -1.8964 3.69125e-17)
(30.1668 -2.4239 -2.91913e-17)
(28.7218 -2.85561 -8.54092e-17)
(27.2453 -3.1935 4.6671e-15)
(25.7216 -3.4396 -7.82052e-15)
(24.1103 -3.59339 -4.22539e-17)
(22.3914 -3.65546 -8.97807e-15)
(20.3072 -3.58472 0)
(18.0759 -3.38243 -9.58111e-16)
(12.7335 -2.6292 7.56025e-15)
(5.39648 21.5673 1.15353e-17)
(4.07785 19.5175 -4.88565e-17)
(2.94019 17.123 -5.79973e-16)
(2.09914 14.4123 7.16927e-16)
(1.73153 11.483 0)
(1.92238 8.47455 -1.47796e-15)
(2.67733 5.591 -1.06568e-15)
(3.88633 3.00906 -7.47113e-15)
(5.41801 0.756125 2.11694e-15)
(7.19635 -1.0632 -1.61498e-15)
(9.07494 -2.37035 2.05737e-15)
(10.9079 -3.23046 -5.89056e-16)
(12.6214 -3.75224 0)
(14.1834 -4.02728 -3.91874e-16)
(15.5846 -4.13862 5.48098e-17)
(16.8388 -4.13883 -8.70343e-16)
(17.964 -4.07099 0)
(18.9839 -3.95859 0)
(19.9228 -3.81844 -8.93573e-17)
(20.8035 -3.64681 8.59931e-17)
(21.6415 -3.44101 -1.00595e-15)
(22.4489 -3.1835 -1.07167e-16)
(23.2275 -2.85361 4.66968e-17)
(23.9532 -2.4137 5.00136e-16)
(24.5709 -1.87693 -3.31576e-16)
(25.0559 -1.31145 -2.33818e-16)
(25.4244 -0.746294 0)
(25.6899 -0.19243 0)
(25.8546 0.343654 0)
(25.9303 0.85317 8.68694e-18)
(25.9398 1.32894 0)
(25.8782 1.76821 0)
(25.736 2.17 -2.41942e-16)
(25.5081 2.53354 -1.21705e-16)
(25.1874 2.86086 -1.22033e-16)
(24.784 3.15774 5.0953e-16)
(24.1955 3.4227 -1.91526e-15)
(23.62 3.65214 -3.39255e-15)
(21.5182 3.70294 -5.64819e-15)
(8.38933 21.5809 -1.92846e-18)
(9.71752 23.1046 2.66339e-18)
(11.3368 24.5899 -3.39394e-18)
(13.2038 25.9598 -3.22878e-17)
(15.2679 27.0999 -1.54237e-16)
(17.5296 27.9858 5.45924e-16)
(19.9161 28.5755 -3.84901e-16)
(22.3537 28.8317 -4.62291e-16)
(24.7881 28.7517 6.21763e-18)
(27.1614 28.3457 -6.10772e-16)
(29.4216 27.6333 5.73683e-16)
(31.5365 26.6445 -1.49561e-15)
(33.4774 25.4115 -7.1943e-16)
(35.2287 23.96 0)
(36.7717 22.3231 -1.73055e-15)
(38.1135 20.5284 3.49885e-15)
(39.2657 18.5913 0)
(40.2109 16.5549 -6.65498e-15)
(40.9401 14.4489 -3.3334e-15)
(41.4275 12.3256 3.89628e-16)
(41.6617 10.2232 -3.8603e-16)
(41.6224 8.20948 -1.75391e-16)
(41.3111 6.33373 -2.49332e-15)
(40.7349 4.65805 1.25336e-15)
(39.9423 3.22711 0)
(39.0075 1.98611 1.09598e-15)
(37.9496 0.867634 -1.29466e-16)
(36.7613 -0.128279 0)
(35.4588 -0.998181 1.72166e-15)
(34.0682 -1.7459 3.19507e-15)
(32.6094 -2.37386 -5.63127e-15)
(31.096 -2.88562 -4.8439e-15)
(29.5304 -3.28584 -1.03661e-16)
(27.9087 -3.57882 -6.86319e-15)
(26.1963 -3.7664 -5.48547e-15)
(24.3746 -3.84782 7.81988e-15)
(22.2038 -3.78967 0)
(19.9061 -3.55041 -7.41183e-16)
(15.0131 -2.88563 -1.14415e-14)
(7.30722 19.9784 -1.6055e-17)
(6.36324 18.2306 -5.77316e-17)
(5.58197 16.1776 2.32464e-16)
(4.96691 13.8798 0)
(4.66255 11.4184 4.23294e-16)
(4.71838 8.86455 0)
(5.15968 6.35355 3.01199e-15)
(5.95945 4.02627 1.66902e-15)
(7.079 1.95983 1.43352e-15)
(8.44931 0.222499 0)
(9.94605 -1.14667 -2.10429e-15)
(11.4623 -2.16916 -4.49477e-16)
(12.9321 -2.89793 2.03981e-15)
(14.3167 -3.38866 0)
(15.597 -3.69458 -9.44416e-16)
(16.7722 -3.86011 -2.85336e-16)
(17.8501 -3.9231 1.17172e-15)
(18.8449 -3.90951 6.05277e-16)
(19.7734 -3.8378 1.6507e-16)
(20.6528 -3.71311 -9.02177e-17)
(21.4956 -3.53769 9.18406e-16)
(22.3104 -3.30268 0)
(23.0974 -2.99425 0)
(23.8363 -2.58998 2.41367e-17)
(24.4828 -2.10338 0)
(25.0131 -1.58361 4.90836e-16)
(25.4378 -1.05009 -6.21455e-18)
(25.7686 -0.510465 -2.44602e-17)
(26.009 0.0276083 0)
(26.1611 0.554229 2.89644e-18)
(26.2302 1.06226 -1.37859e-17)
(26.2216 1.54492 0)
(26.1375 1.99628 1.01025e-16)
(25.9781 2.41126 0)
(25.7317 2.78833 0)
(25.3985 3.12859 3.94402e-17)
(24.8665 3.4323 -5.60526e-17)
(24.2658 3.65919 3.39096e-15)
(22.3908 3.71751 1.09529e-14)
(10.8537 19.8024 -1.2822e-17)
(12.0755 21.1033 -1.13561e-17)
(13.5459 22.3759 2.46957e-18)
(15.2413 23.5444 -4.17366e-18)
(17.1163 24.5198 0)
(19.1777 25.2847 0)
(21.3699 25.7944 -6.4771e-16)
(23.6329 26.0136 7.84153e-16)
(25.9205 25.935 0)
(28.178 25.5599 -9.71556e-16)
(30.3538 24.9015 -1.24031e-15)
(32.4098 23.9822 -1.17739e-15)
(34.3119 22.8301 1.41e-15)
(36.0327 21.4758 1.33401e-15)
(37.5506 19.9531 0)
(38.8531 18.2943 2.13242e-15)
(39.9121 16.5424 7.40971e-16)
(40.7142 14.7324 5.99171e-15)
(41.2549 12.8908 3.63753e-16)
(41.5384 11.0457 -3.60529e-16)
(41.5718 9.22829 3.05402e-15)
(41.37 7.4823 -5.00473e-16)
(40.9611 5.8481 2.72835e-15)
(40.3816 4.36973 1.14015e-15)
(39.6881 3.07853 -6.75587e-17)
(38.9376 1.93827 -9.90921e-16)
(38.1335 0.895664 7.32088e-18)
(37.2433 -0.0536701 -7.3472e-18)
(36.2477 -0.9062 -1.65021e-15)
(35.1396 -1.66228 -4.36741e-17)
(33.9149 -2.31806 2.75406e-15)
(32.5753 -2.86906 -4.68336e-15)
(31.1237 -3.31223 -3.77662e-15)
(29.5638 -3.64567 -2.77187e-18)
(27.8731 -3.86702 4.98804e-15)
(26.0419 -3.97025 0)
(23.8528 -3.92545 4.00671e-15)
(21.4907 -3.64564 6.39049e-16)
(16.8737 -3.02908 4.75302e-15)
(9.8321 18.4432 -2.79824e-17)
(8.92161 16.9725 7.79053e-17)
(8.13325 15.2416 3.3182e-16)
(7.48454 13.2898 0)
(7.09835 11.192 -3.74531e-16)
(7.01083 8.99535 0)
(7.24496 6.80004 -2.28797e-15)
(7.77954 4.72009 -9.55913e-17)
(8.591 2.82887 1.06677e-15)
(9.63473 1.1858 9.42282e-16)
(10.8243 -0.167297 3.212e-17)
(12.0808 -1.22656 1.59327e-15)
(13.3472 -2.02104 -1.0257e-15)
(14.5817 -2.58986 3.26473e-16)
(15.7575 -2.97324 1.10877e-15)
(16.863 -3.21084 1.21632e-15)
(17.8967 -3.33661 -1.08569e-15)
(18.8634 -3.37701 6.74234e-18)
(19.7732 -3.35117 0)
(20.638 -3.26778 1.11449e-15)
(21.4675 -3.12945 5.37899e-17)
(22.268 -2.93001 -8.22476e-16)
(23.0388 -2.65786 0)
(23.7631 -2.29556 2.30035e-17)
(24.4039 -1.85031 0)
(24.938 -1.36122 -2.33602e-16)
(25.3715 -0.851223 0)
(25.7147 -0.332031 2.29598e-17)
(25.9715 0.186314 -5.61691e-19)
(26.1447 0.693386 2.62309e-19)
(26.2384 1.18011 1.26067e-17)
(26.2583 1.63916 3.22098e-19)
(26.2074 2.06676 0)
(26.088 2.46058 2.8393e-17)
(25.8905 2.82097 1.01673e-18)
(25.6148 3.14818 -5.27931e-16)
(25.155 3.44417 3.94136e-15)
(24.6071 3.64066 1.00048e-17)
(22.9214 3.69342 0)
(12.4472 18.4374 -1.77655e-17)
(13.4865 19.5885 -4.5852e-18)
(14.7427 20.7349 4.46083e-18)
(16.1832 21.8113 1.00825e-16)
(17.7693 22.7368 -4.0412e-17)
(19.5222 23.5063 -1.66656e-16)
(21.3963 24.0786 2.76438e-16)
(23.3454 24.4177 0)
(25.3397 24.5127 1.11262e-15)
(27.3336 24.3551 5.25176e-16)
(29.2865 23.945 0)
(31.1647 23.2917 1.12924e-15)
(32.9346 22.4109 -5.9851e-16)
(34.5676 21.3212 1.66558e-15)
(36.0406 20.0452 0)
(37.3327 18.6066 -2.78635e-15)
(38.429 17.0248 2.66619e-15)
(39.3212 15.317 -1.63744e-16)
(39.9942 13.5137 0)
(40.4322 11.6585 2.89583e-15)
(40.625 9.79669 -2.92508e-15)
(40.5709 7.98597 -1.49468e-16)
(40.2865 6.27934 -2.27736e-15)
(39.8065 4.72866 -2.092e-15)
(39.1906 3.36993 0)
(38.5051 2.17716 0)
(37.7752 1.10002 -2.26676e-16)
(36.9904 0.125614 -2.53956e-17)
(36.1422 -0.747591 1.5669e-15)
(35.2247 -1.52401 -4.15876e-17)
(34.225 -2.204 4.15398e-17)
(33.1262 -2.7852 4.37951e-15)
(31.909 -3.26425 0)
(30.557 -3.63666 1.21561e-14)
(29.0356 -3.89621 -4.18019e-17)
(27.3303 -4.0304 0)
(25.2398 -4.00941 -2.97225e-17)
(22.9206 -3.71027 0)
(18.5311 -3.10907 -4.04275e-15)
(11.5716 17.241 2.83919e-17)
(10.788 15.9586 -1.76115e-16)
(10.0888 14.4483 1.913e-16)
(9.48612 12.746 2.97403e-16)
(9.08855 10.9213 -1.19024e-15)
(8.92374 9.0013 -1.52459e-15)
(9.01872 7.0593 1.7803e-15)
(9.36834 5.19317 -1.84741e-15)
(9.95863 3.47231 -8.28105e-16)
(10.7581 1.94365 -7.34673e-16)
(11.7054 0.64304 1.41749e-15)
(12.7407 -0.417557 -1.35707e-15)
(13.818 -1.25412 -5.92289e-16)
(14.8998 -1.89201 5.77125e-16)
(15.9578 -2.35721 -1.2464e-15)
(16.9763 -2.67983 2.2979e-16)
(17.9477 -2.88625 0)
(18.8709 -2.99853 -8.58996e-16)
(19.75 -3.03336 3.02958e-16)
(20.592 -3.00048 -1.16849e-15)
(21.4034 -2.90337 0)
(22.1879 -2.73869 7.1338e-16)
(22.9435 -2.49819 5.55567e-16)
(23.6551 -2.17037 -4.09929e-16)
(24.2915 -1.76112 0)
(24.8298 -1.30294 -2.56919e-16)
(25.2716 -0.819709 0)
(25.6251 -0.323327 0)
(25.8936 0.176641 0)
(26.0796 0.669952 1.67591e-17)
(26.1869 1.1477 0)
(26.2208 1.60326 0)
(26.1847 2.03154 -7.07189e-18)
(26.0814 2.42839 -2.74464e-17)
(25.9031 2.79241 0)
(25.6514 3.12157 -5.78164e-16)
(25.2291 3.41741 6.46729e-17)
(24.7282 3.59744 0)
(23.2386 3.63956 -4.77197e-15)
(13.9203 17.2462 2.19733e-17)
(14.8598 18.2661 -1.57108e-17)
(15.9916 19.2886 0)
(17.2843 20.2528 8.96839e-18)
(18.7003 21.0869 -9.70029e-17)
(20.2693 21.7921 1.56812e-16)
(21.9515 22.3293 4.40549e-17)
(23.7095 22.6665 -6.95908e-16)
(25.5228 22.7905 -8.71903e-17)
(27.3537 22.6897 1.0704e-15)
(29.1671 22.3592 -3.82703e-16)
(30.9334 21.8021 8.70526e-16)
(32.6192 21.0272 4.36402e-16)
(34.1954 20.0476 3.17264e-16)
(35.636 18.8812 0)
(36.9167 17.5489 -6.05009e-16)
(38.0172 16.0745 -1.33932e-15)
(38.9131 14.4947 -4.97313e-15)
(39.5859 12.8438 1.46884e-15)
(40.0255 11.1534 -1.86598e-15)
(40.2265 9.45789 -2.923e-16)
(40.1923 7.79824 0)
(39.9381 6.21726 2.03671e-15)
(39.4944 4.75727 1.2976e-16)
(38.9112 3.45079 -5.80008e-17)
(38.2453 2.28565 -8.08383e-16)
(37.5246 1.22535 1.86498e-16)
(36.7492 0.259749 3.90427e-16)
(35.9198 -0.609805 -1.46145e-15)
(35.0418 -1.38592 -7.8071e-17)
(34.1146 -2.06999 2.48934e-15)
(33.1307 -2.66118 4.04213e-15)
(32.0731 -3.15763 0)
(30.9178 -3.55534 -1.73513e-17)
(29.6151 -3.84682 -4.5216e-15)
(28.1312 -4.0145 0)
(26.2563 -4.02609 -7.06012e-15)
(24.1225 -3.7289 0)
(20.0203 -3.15118 3.65321e-15)
(13.1207 16.1896 -2.83738e-17)
(12.4013 15.0643 7.15261e-17)
(11.7455 13.7356 0)
(11.1656 12.2346 0)
(10.7576 10.627 5.09171e-16)
(10.5411 8.92916 2.5169e-15)
(10.5409 7.19542 0)
(10.7595 5.51252 -1.36262e-15)
(11.1878 3.94619 -1.30442e-15)
(11.8016 2.53149 1.30765e-15)
(12.5568 1.29853 -5.20012e-17)
(13.408 0.263378 5.6815e-16)
(14.32 -0.582062 3.03334e-17)
(15.2611 -1.25373 1.49008e-15)
(16.2051 -1.76763 1.33099e-15)
(17.1349 -2.14551 -1.24576e-15)
(18.0399 -2.40753 1.74435e-16)
(18.9143 -2.57192 -3.23816e-16)
(19.7577 -2.65329 1.49595e-16)
(20.5725 -2.66133 8.63812e-16)
(21.3619 -2.60037 1.11306e-16)
(22.1271 -2.46913 -7.91823e-17)
(22.8648 -2.26159 -4.72859e-16)
(23.5614 -1.96992 0)
(24.1899 -1.59886 1.86126e-17)
(24.7283 -1.17471 4.81817e-16)
(25.1748 -0.720329 -2.34608e-18)
(25.5351 -0.248048 2.32739e-18)
(25.8119 0.232066 0)
(26.0072 0.709156 -1.57474e-17)
(26.1243 1.17366 0)
(26.168 1.6178 0)
(26.1416 2.03585 5.94796e-18)
(26.0478 2.42354 7.98664e-17)
(25.8793 2.77928 0)
(25.6376 3.09945 5.38676e-16)
(25.2325 3.38521 -3.72753e-15)
(24.751 3.54243 1.82116e-17)
(23.4173 3.5623 4.37052e-15)
(15.13 16.2321 5.97179e-19)
(15.9763 17.147 -1.48458e-17)
(16.9951 18.0714 8.25286e-18)
(18.1536 18.9481 -8.0363e-18)
(19.4145 19.7133 6.72962e-17)
(20.8126 20.3733 0)
(22.3119 20.8939 -3.08076e-16)
(23.881 21.2456 4.64532e-18)
(25.5077 21.4168 -3.19771e-16)
(27.1601 21.3947 -6.49006e-16)
(28.8101 21.1712 0)
(30.4337 20.7446 -1.58155e-15)
(32.0008 20.1179 -1.36288e-15)
(33.484 19.2978 -3.32154e-15)
(34.8581 18.2963 0)
(36.0976 17.129 -2.05275e-15)
(37.1794 15.8163 -2.15523e-15)
(38.084 14.378 2.34659e-15)
(38.7947 12.8371 -2.30961e-15)
(39.2954 11.2268 2.14029e-15)
(39.5753 9.58568 2.63016e-16)
(39.6305 7.96102 -2.26433e-15)
(39.4699 6.40059 0)
(39.1169 4.94902 -1.9425e-15)
(38.6126 3.63866 1.13899e-16)
(38.0061 2.46372 8.45551e-16)
(37.3262 1.39479 0)
(36.5779 0.421333 -2.8931e-17)
(35.7651 -0.455564 6.20771e-17)
(34.8967 -1.23806 2.38643e-15)
(33.9795 -1.9278 -2.21134e-15)
(33.0162 -2.52474 -3.83961e-15)
(32.0035 -3.02834 3.25065e-15)
(30.9322 -3.43673 -5.90116e-17)
(29.7641 -3.74451 4.322e-15)
(28.4709 -3.93435 5.99813e-15)
(26.843 -3.97455 3.4183e-15)
(25.0026 -3.69045 -9.76666e-18)
(21.3028 -3.15308 -4.14737e-18)
(14.404 15.2863 1.14438e-17)
(13.7476 14.2849 1.37671e-16)
(13.1372 13.1003 1.84129e-16)
(12.5847 11.7605 -3.50691e-16)
(12.1763 10.3283 -1.37634e-15)
(11.9277 8.81087 4.49338e-16)
(11.8618 7.25002 1.11868e-15)
(11.9858 5.72493 2.81442e-15)
(12.2935 4.29688 1.13051e-15)
(12.7657 2.99111 -1.05935e-15)
(13.3693 1.83301 -3.36242e-17)
(14.0694 0.839223 -5.08281e-16)
(14.839 0.00507201 0)
(15.6527 -0.6795 -2.3667e-17)
(16.4877 -1.22389 -8.22948e-16)
(17.3282 -1.64325 3.5802e-16)
(18.1623 -1.9521 -3.51238e-16)
(18.9817 -2.16403 0)
(19.7827 -2.29057 5.27905e-16)
(20.5644 -2.34013 -9.14941e-16)
(21.327 -2.31671 0)
(22.0694 -2.22006 6.62468e-16)
(22.7872 -2.0461 0)
(23.4675 -1.78978 -2.42076e-17)
(24.0867 -1.4554 2.39666e-17)
(24.6236 -1.06448 -2.37746e-16)
(25.0736 -0.638412 -4.39054e-18)
(25.44 -0.190131 -2.43936e-18)
(25.7247 0.269831 5.13947e-19)
(25.929 0.730369 -2.75657e-17)
(26.0558 1.18147 -3.12849e-17)
(26.1091 1.61516 3.74055e-17)
(26.0919 2.02523 8.59862e-19)
(26.0067 2.40664 2.6475e-17)
(25.8462 2.75688 0)
(25.6119 3.07024 1.14107e-17)
(25.2188 3.3468 1.73015e-15)
(24.7478 3.48282 -1.04162e-17)
(23.531 3.47643 4.00349e-15)
(16.1845 15.3405 4.35452e-18)
(16.96 16.1659 2.24779e-17)
(17.8919 17.0036 0)
(18.9476 17.7998 -2.41336e-17)
(20.0895 18.4969 2.02453e-17)
(21.3552 19.1051 0)
(22.712 19.5928 -1.14953e-16)
(24.1324 19.934 9.06012e-16)
(25.6097 20.1184 -1.26692e-15)
(27.1175 20.1329 4.03693e-16)
(28.6326 19.9681 5.54303e-16)
(30.1358 19.6195 2.01281e-15)
(31.6008 19.0861 1.44461e-15)
(33.0026 18.3702 1.72463e-15)
(34.3167 17.479 4.56716e-16)
(35.5175 16.424 1.50918e-15)
(36.5811 15.221 2.0689e-15)
(37.4853 13.8905 2.00786e-15)
(38.2079 12.4614 -1.47845e-15)
(38.7318 10.9645 -4.52485e-15)
(39.0461 9.43368 0)
(39.1476 7.90809 8.30391e-17)
(39.0437 6.42934 1.76334e-15)
(38.7547 5.03704 1.84804e-15)
(38.3147 3.76137 -1.0492e-16)
(37.7645 2.60358 -7.62877e-16)
(37.131 1.54364 5.46736e-18)
(36.4215 0.573573 -3.87267e-16)
(35.6398 -0.30425 4.07437e-17)
(34.7939 -1.09005 -4.47005e-15)
(33.8907 -1.78433 -7.61406e-18)
(32.9351 -2.38619 -6.0276e-17)
(31.9285 -2.89446 -3.11926e-15)
(30.8718 -3.30728 -5.87063e-17)
(29.7431 -3.62043 -4.03051e-15)
(28.5377 -3.81779 -1.14457e-14)
(27.0772 -3.87271 3.23232e-15)
(25.5258 -3.59864 5.45871e-16)
(22.3208 -3.1095 2.9288e-15)
(15.5145 14.4888 -5.0471e-17)
(14.9068 13.5906 -1.87047e-16)
(14.3328 12.526 -1.34164e-16)
(13.8042 11.3199 -3.4062e-16)
(13.3994 10.0329 7.68685e-16)
(13.1301 8.66496 -5.48664e-17)
(13.0184 7.24987 -2.78797e-15)
(13.0732 5.86153 -9.6946e-16)
(13.2898 4.55582 1.62751e-17)
(13.653 3.35081 0)
(14.1366 2.26845 -9.06593e-16)
(14.7129 1.32439 8.44891e-16)
(15.3614 0.515176 -8.12856e-16)
(16.0622 -0.165963 -4.15756e-16)
(16.7965 -0.724102 3.46389e-16)
(17.5506 -1.16966 3.44333e-16)
(18.3129 -1.51225 1.23155e-15)
(19.0742 -1.76131 -2.91134e-16)
(19.8289 -1.92538 -4.9378e-16)
(20.5735 -2.0112 0)
(21.3057 -2.02214 -7.45445e-16)
(22.0226 -1.95844 -5.5065e-16)
(22.7184 -1.81722 -1.1687e-17)
(23.3809 -1.59547 -5.85692e-17)
(23.9888 -1.29716 -1.85431e-17)
(24.5219 -0.939714 2.80764e-16)
(24.9733 -0.542836 -5.11294e-18)
(25.3442 -0.119753 4.04094e-17)
(25.6355 0.318744 6.64062e-18)
(25.8479 0.761444 2.517e-17)
(25.9836 1.198 -1.04887e-17)
(26.046 1.61991 -9.29405e-17)
(26.0377 2.02037 -9.38123e-17)
(25.961 2.39369 -9.55326e-17)
(25.8085 2.73659 -5.75225e-18)
(25.5815 3.04156 3.48523e-18)
(25.2002 3.3073 -1.76189e-15)
(24.7404 3.42311 -2.64363e-15)
(23.6205 3.39066 -3.68291e-15)
(17.0978 14.5515 -1.33798e-17)
(17.8128 15.3007 -8.58158e-18)
(18.6708 16.0636 -2.34197e-17)
(19.6389 16.7904 1.94448e-17)
(20.6799 17.4277 4.09874e-17)
(21.8323 17.989 -1.27586e-16)
(23.0657 18.4456 4.29022e-16)
(24.3557 18.7742 0)
(25.6996 18.9667 3.8615e-16)
(27.0746 19.0106 1.23893e-17)
(28.4621 18.8963 -4.75488e-16)
(29.8474 18.6179 -1.85604e-15)
(31.2077 18.172 -7.55996e-16)
(32.5209 17.5579 0)
(33.7647 16.7787 0)
(34.9145 15.8422 0)
(35.9463 14.7604 0)
(36.8373 13.5506 -1.93877e-15)
(37.567 12.2328 1.93459e-15)
(38.1167 10.8339 1.8941e-15)
(38.4728 9.38649 -1.52446e-15)
(38.6287 7.92951 1.33707e-15)
(38.588 6.50439 -1.37838e-15)
(38.3666 5.15064 -1.00827e-16)
(37.9925 3.89779 -4.59227e-17)
(37.5004 2.75102 7.71972e-16)
(36.9161 1.69676 1.66116e-16)
(36.2497 0.728823 0)
(35.506 -0.150093 0)
(34.6925 -0.938991 3.72731e-17)
(33.8154 -1.63771 0)
(32.8788 -2.24467 3.32134e-15)
(31.8841 -2.75796 -2.94705e-15)
(30.8333 -3.17479 -4.74514e-15)
(29.7103 -3.4905 7.51197e-15)
(28.5246 -3.68791 5.44578e-15)
(27.1304 -3.74525 -3.08314e-15)
(25.7603 -3.4684 -1.05986e-15)
(23.0494 -3.0191 -2.79869e-15)
(16.4763 13.7792 0)
(15.9106 12.9676 5.25192e-17)
(15.3691 12.0037 2.56207e-16)
(14.8633 10.9099 -1.10076e-15)
(14.4654 9.74498 9.63781e-16)
(14.1834 8.50326 -7.60798e-16)
(14.0395 7.21255 9.82974e-18)
(14.0431 5.94306 7.4419e-16)
(14.1904 4.74548 7.86212e-16)
(14.4689 3.63298 0)
(14.857 2.62422 3.76472e-16)
(15.3323 1.73361 -1.1496e-15)
(15.8787 0.957778 1.81755e-15)
(16.4809 0.291567 3.30192e-16)
(17.1236 -0.267894 -6.70892e-16)
(17.7959 -0.727536 -6.23258e-16)
(18.4875 -1.0934 -5.71395e-16)
(19.1892 -1.37146 0)
(19.8946 -1.56732 0)
(20.5987 -1.68567 0)
(21.2973 -1.72891 7.0132e-16)
(21.9857 -1.69713 0)
(22.6576 -1.58816 -4.46812e-16)
(23.3007 -1.4003 -5.6719e-17)
(23.8955 -1.13711 -3.34689e-16)
(24.4227 -0.812863 -2.48974e-16)
(24.8738 -0.445368 0)
(25.2479 -0.0478794 -3.36352e-17)
(25.5448 0.368663 -7.07479e-18)
(25.7646 0.792963 1.29762e-18)
(25.9087 1.21438 8.71804e-17)
(25.9799 1.624 -1.79543e-17)
(25.9804 2.01452 9.0745e-17)
(25.9121 2.37954 -1.405e-16)
(25.7677 2.71496 0)
(25.5483 3.01145 -1.11854e-17)
(25.1792 3.26613 -3.88755e-17)
(24.7325 3.36355 2.51553e-15)
(23.7016 3.30675 -2.17441e-17)
(17.9004 13.8444 1.54411e-17)
(18.5646 14.5273 0)
(19.3605 15.2245 6.21664e-17)
(20.2551 15.8892 -2.93751e-17)
(21.2119 16.4721 -2.65829e-17)
(22.2694 16.9885 1.19644e-16)
(23.399 17.4121 -1.89198e-16)
(24.5784 17.7227 -2.32348e-16)
(25.8078 17.9136 0)
(27.0674 17.9732 -4.11315e-16)
(28.3422 17.8924 -4.4252e-16)
(29.6211 17.6648 4.38888e-16)
(30.8844 17.2854 1.64506e-15)
(32.1137 16.7511 6.6134e-16)
(33.2887 16.0623 -2.0023e-15)
(34.3861 15.2233 -1.44446e-15)
(35.3829 14.2429 1.1379e-15)
(36.2566 13.1346 8.40444e-16)
(36.9856 11.9173 -4.22921e-16)
(37.5497 10.6165 4.22388e-16)
(37.934 9.26162 1.07192e-15)
(38.1307 7.88744 1.99411e-16)
(38.141 6.53152 -1.87545e-16)
(37.9772 5.23049 -1.24749e-15)
(37.662 4.01244 0)
(37.224 2.88566 -6.54014e-16)
(36.687 1.84302 -3.12199e-16)
(36.0627 0.881282 -2.87942e-16)
(35.3572 0.00412364 -1.06472e-15)
(34.578 -0.786011 3.98379e-15)
(33.7314 -1.48794 1.63923e-15)
(32.8212 -2.09943 4.13769e-18)
(31.848 -2.61771 3.75978e-17)
(30.8127 -3.03896 0)
(29.6991 -3.35755 -3.5427e-15)
(28.5191 -3.554 0)
(27.1431 -3.60957 0)
(25.836 -3.32079 5.11681e-16)
(23.5259 -2.89143 5.34625e-18)
(17.3199 13.1407 -5.17996e-17)
(16.7902 12.4031 1.74675e-16)
(16.2772 11.5255 1.19753e-17)
(15.7925 10.5279 2.45826e-16)
(15.4032 9.46687 -8.7819e-16)
(15.1144 8.33305 6.36902e-16)
(14.9474 7.1499 3.12606e-17)
(14.9129 5.98454 -6.22374e-16)
(15.007 4.88274 -6.0985e-16)
(15.2191 3.85425 -6.49445e-16)
(15.531 2.91532 -1.28612e-15)
(15.9236 2.07893 0)
(16.3844 1.34115 -6.58424e-16)
(16.9012 0.697434 -2.31042e-17)
(17.462 0.146236 0)
(18.0584 -0.31747 -5.52094e-16)
(18.6818 -0.697031 -2.62966e-16)
(19.3242 -0.99584 -2.47038e-16)
(19.9788 -1.21704 8.50285e-16)
(20.64 -1.36326 7.57269e-16)
(21.3024 -1.43552 -7.81316e-17)
(21.9601 -1.43358 5.81889e-16)
(22.6061 -1.35557 1.13581e-16)
(23.2282 -1.20034 -5.47849e-17)
(23.8083 -0.971167 2.99044e-16)
(24.3277 -0.679747 1.81512e-17)
(24.7766 -0.341839 0)
(25.1524 0.0295609 0)
(25.4538 0.423432 -1.41823e-18)
(25.6802 0.828506 3.39772e-18)
(25.832 1.23394 -1.05028e-16)
(25.9117 1.63041 -1.75362e-17)
(25.9208 2.01017 1.50414e-16)
(25.8608 2.3661 1.34388e-16)
(25.7248 2.69329 7.69141e-18)
(25.5132 2.98074 3.68236e-18)
(25.1571 3.2239 3.30689e-15)
(24.7249 3.30431 -2.41153e-15)
(23.7786 3.22559 2.03067e-17)
(18.6095 13.2055 5.93992e-18)
(19.2297 13.8305 0)
(19.9719 14.4697 -3.62335e-17)
(20.8033 15.079 0)
(21.6875 15.6131 -6.55589e-17)
(22.6632 16.0881 6.34765e-17)
(23.7029 16.4802 1.43865e-16)
(24.7863 16.7715 2.19021e-16)
(25.915 16.9565 0)
(27.0718 17.0252 -2.71647e-16)
(28.2446 16.9693 4.53051e-16)
(29.4253 16.7821 -9.30891e-16)
(30.5971 16.4581 -5.21479e-16)
(31.7445 15.9928 -5.31185e-16)
(32.8495 15.3846 1.27639e-15)
(33.8911 14.6352 1.38077e-15)
(34.8477 13.7504 -1.47888e-15)
(35.6971 12.7408 -1.46996e-15)
(36.4182 11.6218 0)
(36.991 10.4143 3.87913e-16)
(37.399 9.14523 -7.50979e-16)
(37.6326 7.84676 1.84816e-16)
(37.6902 6.55447 3.96157e-18)
(37.5804 5.30328 2.94989e-15)
(37.3211 4.1201 -1.6131e-16)
(36.9358 3.0151 9.77503e-17)
(36.4457 1.98603 2.89792e-16)
(35.8633 1.03237 3.06737e-16)
(35.1958 0.158683 9.19813e-16)
(34.4509 -0.63125 -1.8411e-15)
(33.6352 -1.33523 -1.50869e-15)
(32.7531 -1.95033 -5.91181e-15)
(31.8052 -2.47307 5.08448e-15)
(30.7919 -2.89861 -7.19421e-17)
(29.6968 -3.22047 3.30936e-15)
(28.5298 -3.41663 -1.02723e-16)
(27.1704 -3.4707 5.70157e-17)
(25.8649 -3.1695 4.87886e-18)
(23.8307 -2.73953 -2.16661e-15)
(18.0648 12.5616 2.56343e-17)
(17.5667 11.8879 -9.00646e-17)
(17.0794 11.085 1.76896e-16)
(16.6143 10.1708 0)
(16.2348 9.19962 5.12873e-16)
(15.9433 8.15904 0)
(15.7602 7.07014 0)
(15.697 5.99651 0)
(15.75 4.97987 1.13541e-15)
(15.9097 4.02753 -5.59623e-16)
(16.1603 3.15392 6.32082e-16)
(16.4853 2.37073 0)
(16.8743 1.67328 0)
(17.3176 1.05695 -5.68197e-16)
(17.8059 0.520804 0)
(18.3329 0.0609856 5.14976e-16)
(18.892 -0.324477 1.15881e-17)
(19.4764 -0.636878 0)
(20.0799 -0.877311 -6.08734e-16)
(20.6967 -1.04667 -8.99218e-16)
(21.3209 -1.14475 -6.24119e-16)
(21.9459 -1.17053 -5.39896e-16)
(22.5642 -1.12195 9.19861e-16)
(23.164 -0.998088 0)
(23.7276 -0.80179 3.03374e-16)
(24.2373 -0.542513 2.77371e-16)
(24.6823 -0.234114 1.02263e-16)
(25.0583 0.110922 0)
(25.3631 0.481628 -7.34544e-18)
(25.5951 0.866823 -4.31327e-17)
(25.7542 1.25558 1.17664e-16)
(25.8419 1.63823 -1.7062e-17)
(25.8595 2.0066 -1.37515e-16)
(25.8079 2.35289 1.68891e-16)
(25.6802 2.67135 -2.13558e-18)
(25.4769 2.94942 7.68569e-18)
(25.1345 3.18072 -3.24071e-15)
(24.7177 3.24577 2.25992e-15)
(23.8524 3.14788 5.74946e-15)
(19.2404 12.624 2.83421e-18)
(19.8221 13.1978 -1.75551e-17)
(20.5173 13.7853 0)
(21.2936 14.3449 -1.74337e-17)
(22.1151 14.8347 0)
(23.0198 15.2711 0)
(23.9815 15.633 1.91233e-17)
(24.9811 15.9039 1.91466e-16)
(26.0215 16.0799 4.44269e-16)
(27.0873 16.152 1.14086e-15)
(28.1688 16.1129 6.48201e-16)
(29.2601 15.9565 7.50394e-16)
(30.3472 15.6767 0)
(31.417 15.2684 1.46628e-15)
(32.4541 14.7284 -5.19308e-16)
(33.4397 14.0566 0)
(34.3537 13.2562 1.23438e-15)
(35.175 12.3351 1.40773e-15)
(35.8833 11.3059 0)
(36.4584 10.1868 1.37816e-15)
(36.8828 9.00209 -1.34734e-15)
(37.1457 7.78069 0)
(37.2434 6.55501 -1.59704e-16)
(37.1816 5.35758 3.08206e-17)
(36.9737 4.21389 7.60511e-17)
(36.6385 3.1353 1.13968e-15)
(36.1943 2.12348 -3.89365e-18)
(35.6535 1.18075 -3.03402e-17)
(35.0241 0.312865 -2.55214e-17)
(34.3136 -0.475163 5.58334e-17)
(33.529 -1.17987 1.51981e-15)
(32.6751 -1.79756 5.34848e-15)
(31.753 -2.32397 4.22209e-17)
(30.7637 -2.75332 -3.86871e-15)
(29.6914 -3.07835 -3.00573e-15)
(28.5446 -3.27478 -4.42077e-15)
(27.2131 -3.32795 -2.54451e-15)
(25.902 -3.01988 1.89169e-17)
(24.0449 -2.57691 2.01693e-15)
(18.7272 12.0327 -5.8225e-17)
(18.2571 11.415 -2.15449e-16)
(17.7932 10.6774 4.26483e-16)
(17.3467 9.83652 0)
(16.9771 8.94349 8.20655e-16)
(16.686 7.98463 0)
(16.492 6.97899 -4.4719e-16)
(16.407 5.98669 1.7949e-15)
(16.4281 5.04602 -1.38698e-15)
(16.5462 4.16288 0)
(16.7473 3.34988 1.02555e-15)
(17.0167 2.61763 9.90337e-16)
(17.3456 1.96089 0)
(17.726 1.37488 -9.74481e-16)
(18.1506 0.85864 2.35433e-16)
(18.615 0.408613 -2.3554e-16)
(19.1142 0.0237757 2.28949e-16)
(19.643 -0.295875 4.0157e-16)
(20.196 -0.549941 -1.50652e-17)
(20.7679 -0.737808 4.84462e-16)
(21.3525 -0.858033 1.42297e-16)
(21.9433 -0.908807 -1.36603e-16)
(22.5325 -0.887731 -4.37569e-16)
(23.1084 -0.793658 3.74431e-16)
(23.6541 -0.628812 -2.69546e-16)
(24.1523 -0.400863 -2.817e-16)
(24.5915 -0.121762 -9.73221e-17)
(24.9663 0.196722 -1.07135e-18)
(25.2732 0.543802 8.08821e-18)
(25.51 0.908508 4.1264e-17)
(25.6757 1.27989 9.12514e-18)
(25.7711 1.648 -1.65501e-17)
(25.7969 2.00429 1.9443e-16)
(25.7536 2.34028 -1.73132e-16)
(25.6346 2.64941 8.19821e-18)
(25.4399 2.91767 -6.12593e-16)
(25.1119 3.13694 1.57942e-15)
(24.7115 3.1881 0)
(23.9234 3.0734 -5.51475e-15)
(19.8046 12.0914 9.77631e-18)
(20.3522 12.6196 0)
(21.0057 13.1608 0)
(21.7334 13.6756 1.18834e-17)
(22.4998 14.1252 -1.97412e-17)
(23.3421 14.5263 0)
(24.2352 14.8594 0)
(25.1609 15.11 -6.24816e-16)
(26.1231 15.2752 -3.15598e-17)
(27.108 15.3472 -3.86642e-17)
(28.1073 15.3197 -1.50064e-15)
(29.1171 15.1868 -3.93878e-16)
(30.1257 14.9429 7.51432e-16)
(31.1222 14.5824 -6.43051e-17)
(32.0937 14.1014 0)
(33.0232 13.4981 0)
(33.8929 12.774 -3.3862e-15)
(34.6829 11.9343 -6.2252e-16)
(35.3735 10.9895 6.36788e-16)
(35.9455 9.95414 -1.33674e-15)
(36.381 8.84977 2.53904e-15)
(36.6676 7.7025 1.20247e-15)
(36.8001 6.54202 -1.16355e-15)
(36.781 5.39867 -1.31264e-15)
(36.6205 4.29647 2.07896e-16)
(36.3328 3.24723 -1.12264e-15)
(35.9334 2.25547 -1.26617e-16)
(35.4341 1.32612 2.82151e-17)
(34.8429 0.466129 -2.81683e-17)
(34.1674 -0.318221 9.45569e-17)
(33.4144 -1.02228 -3.90654e-17)
(32.5891 -1.64148 -2.64124e-15)
(31.6932 -2.1707 -9.96676e-17)
(30.728 -2.60325 1.1798e-16)
(29.6798 -2.93103 0)
(28.556 -3.12799 4.10787e-15)
(27.2595 -3.1801 2.38093e-15)
(25.958 -2.8714 0)
(24.2233 -2.41196 0)
(19.3196 11.5469 0)
(18.8745 10.9786 1.92744e-16)
(18.4321 10.2988 -6.37876e-16)
(18.0032 9.5227 -3.07594e-16)
(17.644 8.6987 -7.45361e-16)
(17.3552 7.81199 0)
(17.154 6.88041 0)
(17.0529 5.9607 -8.04213e-16)
(17.049 5.08828 8.39562e-16)
(17.1339 4.26787 0)
(17.2947 3.51075 -4.34655e-16)
(17.5184 2.82675 -4.67981e-16)
(17.7968 2.21022 4.42231e-16)
(18.1235 1.65586 4.57871e-16)
(18.4924 1.16245 -8.49836e-16)
(18.9007 0.726618 0)
(19.345 0.347608 -1.91515e-16)
(19.8211 0.0261536 1.20917e-17)
(20.3251 -0.236417 8.47768e-16)
(20.8523 -0.438337 -1.56135e-16)
(21.3969 -0.577048 1.49629e-16)
(21.9524 -0.649966 -1.14059e-16)
(22.5111 -0.654198 1.61206e-16)
(23.0619 -0.588182 -7.62573e-16)
(23.5881 -0.453324 -2.69307e-16)
(24.0731 -0.255658 2.31208e-16)
(24.5049 -0.00542345 -1.40689e-17)
(24.8769 0.286506 0)
(25.1847 0.609685 -7.91327e-18)
(25.4252 0.953399 4.62293e-17)
(25.5969 1.30678 -6.45162e-17)
(25.6995 1.65968 1.07156e-16)
(25.7333 2.00322 -4.02789e-16)
(25.6984 2.3283 4.33672e-16)
(25.5881 2.62753 -6.67564e-18)
(25.4026 2.88566 5.80738e-16)
(25.0896 3.09267 2.99097e-17)
(24.7065 3.13154 -6.59924e-17)
(23.9917 3.00265 -4.94509e-15)
(20.3115 11.6012 -9.27098e-18)
(20.8285 12.0885 0)
(21.4449 12.5878 0)
(22.1292 13.0619 3.52575e-18)
(22.8467 13.475 1.91294e-17)
(23.6337 13.8436 -7.76745e-17)