/*--------------------------------*- C++ -*----------------------------------*\
  =========                 |
  \\      /  F ield         | OpenFOAM: The Open Source CFD Toolbox
   \\    /   O peration     | Website:  https://openfoam.org
    \\  /    A nd           | Version:  12
     \\/     M anipulation  |
\*---------------------------------------------------------------------------*/
FoamFile
{
    format      ascii;
    class       volScalarField;
    location    "8.1";
    object      p_rgh;
}
// * * * * * * * * * * * * * * * * * * * * * * * * * * * * * * * * * * * * * //

dimensions      [1 -1 -2 0 0 0 0];

internalField   nonuniform List<scalar> 
3829
(
-3.79378
-3.79261
-3.79024
-3.78662
-3.78171
-3.77548
-3.76788
-3.75887
-3.7483
-3.73606
-3.72197
-3.70588
-3.68756
-3.66674
-3.64305
-3.61585
-3.58534
-3.55197
-3.51603
-3.47758
-3.43658
-3.393
-3.34676
-3.29779
-3.24582
-3.18993
-3.13
-3.06661
-3.00009
-2.93064
-2.85849
-2.78381
-2.70681
-2.6277
-2.54668
-2.46399
-2.3799
-2.29462
-2.20843
-2.12157
-2.03436
-1.94709
-1.86007
-1.77364
-1.68811
-1.60382
-1.5211
-1.44026
-1.36162
-1.28548
-1.21213
-1.14184
-1.07485
-1.01139
-0.951646
-0.89709
-0.84712
-0.801711
-0.760868
-0.724572
-0.692781
-0.665435
-0.642441
-0.62368
-0.608996
-0.598187
-0.590989
-0.587099
-0.586174
-0.587809
-0.591591
-0.597072
-0.603654
-0.610885
-0.618252
-0.625226
-0.631282
-0.635902
-0.638589
-0.638879
-0.636351
-0.630644
-0.621471
-0.608644
-0.591506
-0.570213
-0.544889
-0.515708
-0.482889
-0.446722
-0.407594
-0.365995
-0.322512
-0.277804
-0.232604
-0.187707
-0.143924
-0.102094
-0.0630345
-0.0275336
0.00367043
0.0299422
0.0507553
0.0657307
0.0746683
0.07584
0.0706968
0.059566
0.0428348
0.0210466
-0.00506718
-0.0346063
-0.066536
-0.0997227
-0.132973
-0.165083
-0.194882
-0.221269
-0.243286
-0.260168
-0.271385
-0.276712
-0.274055
-0.265468
-0.251393
-0.232448
-0.209519
-0.183727
-0.156347
-0.12865
-0.102133
-0.07801
-0.0574203
-0.0412771
-0.0302044
-0.0245015
-0.0244174
-0.0293227
-0.0385557
-0.05115
-0.0658968
-0.0814915
-0.0964612
-0.109557
-0.119619
-0.125756
-0.127424
-0.124482
-0.117056
-0.105871
-0.0918515
-0.0761908
-0.0602115
-0.0451794
-0.0328421
-0.0241245
-0.0197853
-0.0202352
-0.0255795
-0.0353543
-0.0491096
-0.0655339
-0.0832214
-0.100861
-0.117203
-0.131065
-0.14152
-0.147965
-0.150031
-0.147928
-0.142091
-0.133278
-0.122477
-0.110678
-0.0992985
-0.0892722
-0.0815351
-0.0767784
-0.075403
-0.0775022
-0.0828761
-0.090995
-0.101118
-0.112323
-0.12359
-0.13388
-0.142265
-0.14784
-0.150047
-0.148533
-0.143235
-0.134399
-0.122558
-0.108504
-0.0932305
-0.0778662
-0.0635984
-0.0515862
-0.0428558
-0.0382265
-3.89994
-3.89862
-3.8959
-3.89172
-3.88596
-3.8785
-3.86919
-3.85789
-3.84455
-3.82913
-3.81163
-3.79215
-3.77085
-3.74808
-3.72433
-3.70066
-3.6755
-3.64696
-3.61431
-3.57746
-3.53632
-3.49079
-3.44082
-3.38641
-3.32778
-3.2658
-3.20078
-3.13414
-3.06447
-2.99113
-2.91404
-2.8334
-2.74951
-2.66266
-2.57318
-2.48141
-2.38771
-2.29248
-2.19614
-2.0991
-2.00176
-1.90456
-1.8079
-1.7122
-1.61787
-1.52531
-1.43492
-1.34711
-1.26224
-1.18068
-1.10275
-1.02879
-0.959086
-0.893884
-0.8334
-0.778194
-0.728722
-0.684788
-0.646319
-0.613253
-0.585532
-0.563078
-0.54577
-0.533446
-0.52589
-0.522808
-0.523848
-0.528623
-0.536678
-0.547499
-0.560571
-0.575297
-0.591046
-0.607207
-0.623143
-0.638198
-0.651728
-0.663106
-0.671731
-0.67704
-0.67853
-0.675767
-0.668401
-0.656184
-0.638651
-0.6159
-0.588041
-0.555247
-0.517786
-0.476048
-0.43056
-0.38196
-0.331006
-0.278534
-0.225465
-0.17279
-0.121521
-0.0726971
-0.027325
0.0136146
0.0492076
0.0786657
0.101308
0.116584
0.124128
0.124066
0.116252
0.101048
0.0789847
0.050841
0.0175883
-0.0196148
-0.0594663
-0.100553
-0.141394
-0.180504
-0.216447
-0.247881
-0.273622
-0.292703
-0.304396
-0.308211
-0.304744
-0.293642
-0.275574
-0.25152
-0.222727
-0.190663
-0.156932
-0.123204
-0.091231
-0.0625472
-0.0385225
-0.0202459
-0.00844708
-0.00348015
-0.00521351
-0.013124
-0.0262943
-0.0434384
-0.0630035
-0.0833737
-0.102637
-0.119281
-0.131903
-0.139456
-0.14131
-0.137278
-0.127818
-0.113713
-0.0962213
-0.0769209
-0.0575784
-0.0382813
-0.023645
-0.013274
-0.00819644
-0.00891768
-0.0153649
-0.0270575
-0.0432599
-0.062811
-0.0834113
-0.103717
-0.122316
-0.137869
-0.149334
-0.156032
-0.157733
-0.154631
-0.14731
-0.136696
-0.123935
-0.110157
-0.097058
-0.0856635
-0.0769817
-0.0717517
-0.0703822
-0.0729415
-0.0791262
-0.0883571
-0.0997717
-0.112331
-0.124901
-0.136334
-0.145667
-0.151847
-0.154329
-0.152743
-0.147046
-0.137515
-0.124746
-0.109604
-0.0931621
-0.0766367
-0.0613061
-0.0484067
-0.0390372
-0.0340704
-4.12421
-4.12428
-4.12441
-4.12462
-4.12489
-4.12519
-4.12535
-4.12504
-4.12368
-4.12048
-4.11453
-4.10467
-4.08887
-4.07036
-4.04825
-4.02124
-3.99004
-3.95542
-3.9172
-3.87482
-3.82796
-3.77639
-3.71994
-3.65855
-3.59227
-3.52139
-3.44609
-3.36453
-3.27856
-3.18399
-3.08384
-2.97924
-2.87101
-2.75992
-2.64665
-2.53162
-2.41514
-2.29753
-2.17947
-2.06134
-1.94361
-1.8268
-1.71142
-1.59798
-1.48701
-1.37903
-1.27455
-1.17403
-1.07794
-0.986742
-0.900853
-0.820696
-0.746672
-0.679164
-0.618556
-0.563023
-0.514726
-0.473491
-0.439344
-0.41227
-0.392229
-0.379116
-0.372715
-0.372699
-0.378683
-0.39022
-0.406791
-0.427819
-0.45267
-0.480646
-0.511025
-0.542968
-0.575663
-0.608269
-0.639924
-0.669747
-0.696883
-0.720501
-0.739813
-0.754081
-0.762662
-0.764994
-0.760597
-0.749097
-0.730291
-0.704228
-0.671009
-0.630875
-0.58422
-0.531644
-0.473911
-0.411937
-0.346783
-0.279611
-0.211692
-0.144389
-0.07908
-0.0171806
0.0399491
0.0910124
0.134796
0.170245
0.196492
0.212914
0.218977
0.215148
0.201213
0.177577
0.145017
0.104644
0.0578229
0.00616231
-0.0485485
-0.104386
-0.15933
-0.211416
-0.258716
-0.299463
-0.332135
-0.355511
-0.368727
-0.371282
-0.364032
-0.346752
-0.320323
-0.286172
-0.246073
-0.202071
-0.156385
-0.111399
-0.0693341
-0.0322943
-0.00207986
0.0199037
0.0327706
0.036187
0.030581
0.0166665
-0.00413586
-0.0299567
-0.0586298
-0.0880862
-0.115293
-0.13842
-0.155652
-0.165667
-0.167688
-0.161412
-0.147796
-0.128013
-0.103837
-0.077369
-0.0508185
-0.0265026
-0.00679679
0.00679034
0.0131871
0.011883
0.00321251
-0.0120568
-0.0327705
-0.0585226
-0.0842445
-0.109289
-0.131904
-0.150413
-0.163582
-0.170655
-0.171535
-0.166513
-0.156448
-0.142585
-0.126367
-0.10884
-0.0927863
-0.0790368
-0.0687467
-0.0627365
-0.0614363
-0.0648453
-0.0725366
-0.0837687
-0.0974833
-0.112435
-0.127291
-0.140724
-0.151657
-0.158882
-0.161824
-0.160095
-0.153681
-0.142929
-0.128533
-0.111496
-0.0930222
-0.0744899
-0.0573207
-0.0428879
-0.0324149
-0.0268684
-4.28678
-4.28776
-4.28968
-4.29242
-4.29573
-4.29936
-4.30308
-4.30678
-4.31053
-4.31451
-4.31903
-4.32454
-4.33278
-4.33705
-4.33488
-4.32624
-4.31097
-4.28876
-4.2592
-4.22188
-4.17643
-4.12253
-4.05992
-3.98833
-3.90766
-3.81797
-3.71909
-3.61081
-3.49293
-3.37116
-3.24823
-3.12158
-2.99051
-2.85497
-2.71525
-2.57213
-2.42664
-2.27956
-2.13207
-1.98508
-1.83928
-1.69545
-1.55432
-1.41663
-1.28306
-1.15425
-1.03082
-0.913386
-0.802486
-0.69866
-0.602406
-0.514149
-0.434207
-0.362784
-0.300026
-0.246371
-0.202907
-0.168714
-0.143698
-0.12782
-0.120987
-0.123002
-0.133545
-0.15218
-0.178361
-0.211464
-0.250768
-0.295469
-0.34467
-0.397395
-0.452649
-0.509272
-0.566147
-0.622119
-0.67602
-0.726658
-0.772881
-0.81359
-0.847723
-0.8743
-0.892479
-0.901498
-0.90071
-0.889462
-0.868018
-0.836299
-0.794453
-0.742873
-0.682197
-0.613322
-0.537353
-0.455596
-0.369546
-0.280835
-0.191221
-0.102658
-0.0170183
0.0637739
0.137844
0.20342
0.258862
0.302764
0.333986
0.351722
0.3554
0.345637
0.322236
0.28584
0.237645
0.179238
0.112554
0.0398518
-0.0363919
-0.113517
-0.188701
-0.259256
-0.322624
-0.376451
-0.418721
-0.447879
-0.462858
-0.463174
-0.449735
-0.422706
-0.383526
-0.334261
-0.277439
-0.215953
-0.152907
-0.0916587
-0.0352079
0.0135856
0.0523743
0.0793381
0.0933458
0.0939318
0.0820341
0.0588742
0.0266048
-0.0120025
-0.0537279
-0.0971034
-0.135392
-0.167602
-0.19115
-0.204383
-0.206732
-0.196427
-0.176391
-0.148174
-0.11426
-0.077565
-0.0409852
-0.00833447
0.0179398
0.0357692
0.0437972
0.0412682
0.0290625
0.00857613
-0.0178164
-0.0540349
-0.0860803
-0.117625
-0.145743
-0.168233
-0.183572
-0.190991
-0.190484
-0.182611
-0.168618
-0.150227
-0.129537
-0.106297
-0.0865663
-0.0697184
-0.0573301
-0.0503674
-0.0492589
-0.0539046
-0.0637187
-0.0777018
-0.0945377
-0.11271
-0.130625
-0.14674
-0.159684
-0.168293
-0.171815
-0.16986
-0.162463
-0.150071
-0.133511
-0.113961
-0.0928119
-0.0716371
-0.0520538
-0.0356155
-0.0236989
-0.0173926
-4.50068
-4.50694
-4.51958
-4.53857
-4.56356
-4.5938
-4.62816
-4.6653
-4.70364
-4.7413
-4.77607
-4.80371
-4.82716
-4.84604
-4.86068
-4.86895
-4.86899
-4.85927
-4.83846
-4.80546
-4.75942
-4.69973
-4.62608
-4.53837
-4.4369
-4.32219
-4.19517
-4.05714
-3.91
-3.75646
-3.58516
-3.40336
-3.2156
-3.02492
-2.8326
-2.6394
-2.44625
-2.25404
-2.06369
-1.87607
-1.69201
-1.51236
-1.3379
-1.16939
-1.00758
-0.853232
-0.707036
-0.569636
-0.441629
-0.32358
-0.216016
-0.11944
-0.0343121
0.0389834
0.0999514
0.148681
0.186494
0.212302
0.225827
0.227122
0.21647
0.194329
0.161252
0.117905
0.0650597
0.00360348
-0.0654647
-0.141031
-0.221864
-0.306623
-0.394029
-0.482399
-0.570288
-0.656132
-0.738366
-0.815386
-0.885675
-0.947773
-1.0003
-1.04203
-1.07184
-1.08872
-1.09178
-1.07989
-1.05372
-1.01337
-0.959146
-0.891647
-0.811826
-0.720933
-0.620512
-0.512386
-0.398643
-0.281549
-0.163189
-0.0468126
0.065329
0.1706
0.266504
0.350675
0.420957
0.4755
0.512772
0.531762
0.531875
0.513661
0.477205
0.423576
0.354484
0.272162
0.179302
0.0790109
-0.0253354
-0.130275
-0.231608
-0.325873
-0.40966
-0.479881
-0.533934
-0.56984
-0.586343
-0.583021
-0.560623
-0.520081
-0.463567
-0.394026
-0.314982
-0.23046
-0.144624
-0.0622548
0.0126543
0.076318
0.125638
0.15842
0.173454
0.169388
0.148484
0.112605
0.0647563
0.00878395
-0.0510053
-0.110219
-0.163658
-0.207674
-0.239014
-0.255423
-0.255683
-0.241476
-0.213106
-0.173647
-0.126901
-0.0771824
-0.0269004
0.0161699
0.050557
0.0734163
0.0831862
0.0785166
0.0612271
0.0331476
-0.00320647
-0.0459347
-0.0884857
-0.128757
-0.163779
-0.191038
-0.208842
-0.21638
-0.213841
-0.20217
-0.183081
-0.158806
-0.131826
-0.103554
-0.078651
-0.0579569
-0.0431058
-0.0351237
-0.0343935
-0.0406743
-0.0531506
-0.0705284
-0.0911672
-0.113225
-0.134794
-0.154063
-0.169418
-0.179602
-0.183754
-0.181478
-0.172874
-0.158504
-0.139368
-0.116831
-0.0925242
-0.0682394
-0.0458219
-0.0270329
-0.0134278
-0.00623102
-4.37663
-4.38969
-4.4159
-4.455
-4.50651
-4.56976
-4.6439
-4.72751
-4.81898
-4.91612
-5.01697
-5.12163
-5.21798
-5.30447
-5.37908
-5.43962
-5.4839
-5.5099
-5.5158
-5.50001
-5.46135
-5.39897
-5.31239
-5.20176
-5.0676
-4.91072
-4.73241
-4.53425
-4.31808
-4.08434
-3.85453
-3.62174
-3.38448
-3.14276
-2.89824
-2.65292
-2.40855
-2.16668
-1.92871
-1.69591
-1.46943
-1.25023
-1.03923
-0.837302
-0.645232
-0.463774
-0.29366
-0.135568
0.00984663
0.141907
0.260103
0.364039
0.453156
0.527097
0.585615
0.628665
0.656189
0.66827
0.664903
0.646284
0.612787
0.564968
0.503529
0.429348
0.343447
0.247006
0.141356
0.0279765
-0.091495
-0.215293
-0.341591
-0.468412
-0.593704
-0.715441
-0.831584
-0.940033
-1.03881
-1.12604
-1.19996
-1.25902
-1.30201
-1.32826
-1.33795
-1.32094
-1.28693
-1.23473
-1.16428
-1.07635
-0.972182
-0.853477
-0.722331
-0.581202
-0.432898
-0.280461
-0.127137
0.0236109
0.168347
0.303605
0.426079
0.532672
0.620572
0.687489
0.731539
0.751308
0.746352
0.717023
0.663838
0.588418
0.493115
0.38098
0.25568
0.121455
-0.0169775
-0.156977
-0.289648
-0.412428
-0.520671
-0.6103
-0.677988
-0.721291
-0.738686
-0.729648
-0.695263
-0.63727
-0.558716
-0.46365
-0.35692
-0.24402
-0.129768
-0.02183
0.0753126
0.156658
0.218121
0.256872
0.271441
0.26161
0.229112
0.176937
0.109366
0.0316923
-0.0501994
-0.129895
-0.201428
-0.259514
-0.299975
-0.320047
-0.318582
-0.297326
-0.257714
-0.203853
-0.140822
-0.074196
-0.00948498
0.0468929
0.0908972
0.119336
0.13095
0.122903
0.0991782
0.0618956
0.0145824
-0.0389698
-0.0927923
-0.143063
-0.185975
-0.218547
-0.23886
-0.246185
-0.240924
-0.224527
-0.199274
-0.168034
-0.133871
-0.0995364
-0.0689076
-0.0439339
-0.0264198
-0.0174459
-0.0173236
-0.0256241
-0.041248
-0.0625671
-0.0875661
-0.114028
-0.139702
-0.162475
-0.180506
-0.192386
-0.197174
-0.194479
-0.184476
-0.167865
-0.145835
-0.119972
-0.0921551
-0.0644289
-0.0388833
-0.0175039
-0.00203977
0.00613565
-4.08323
-4.11197
-4.16992
-4.25679
-4.3715
-4.512
-4.67554
-4.85806
-5.05503
-5.26017
-5.46733
-5.67015
-5.86643
-6.04952
-6.21358
-6.35343
-6.46463
-6.54341
-6.58669
-6.59209
-6.55792
-6.48329
-6.368
-6.21282
-6.01969
-5.79172
-5.53349
-5.25055
-4.95065
-4.64238
-4.31148
-3.97347
-3.63536
-3.3
-2.96985
-2.64668
-2.3318
-2.02616
-1.73054
-1.44557
-1.17189
-0.910463
-0.660892
-0.42431
-0.201366
0.00728286
0.200981
0.379078
0.54092
0.68594
0.813588
0.923208
1.01438
1.08662
1.1397
1.17317
1.18843
1.18417
1.16058
1.11811
1.05729
0.978873
0.883789
0.773172
0.64835
0.510843
0.362368
0.204831
0.0403483
-0.128811
-0.300292
-0.471602
-0.640095
-0.803168
-0.958186
-1.1025
-1.23354
-1.34888
-1.44629
-1.5236
-1.57893
-1.61048
-1.61612
-1.60257
-1.56259
-1.49715
-1.40737
-1.29476
-1.16118
-1.00898
-0.841008
-0.660509
-0.471142
-0.276873
-0.0819872
0.1091
0.291941
0.462107
0.615389
0.747858
0.855961
0.936704
0.987883
1.00789
0.996059
0.952787
0.879188
0.777467
0.650751
0.503064
0.339194
0.164615
-0.0147911
-0.192951
-0.362992
-0.519024
-0.655386
-0.767005
-0.849747
-0.900644
-0.917997
-0.901111
-0.851646
-0.772242
-0.666993
-0.541241
-0.401383
-0.254532
-0.107943
0.0301931
0.153164
0.254673
0.329664
0.374533
0.387373
0.369906
0.322893
0.250758
0.159323
0.0556509
-0.0524688
-0.156549
-0.249085
-0.323275
-0.373883
-0.397598
-0.393428
-0.36301
-0.309439
-0.238078
-0.155624
-0.0693866
0.0128623
0.0841432
0.138792
0.172667
0.183033
0.173287
0.142109
0.0939883
0.0339686
-0.0327243
-0.0992244
-0.160595
-0.212124
-0.250313
-0.273049
-0.279708
-0.271027
-0.249025
-0.216671
-0.177558
-0.135474
-0.0941558
-0.0574163
-0.0279093
-0.00765985
0.00220579
0.00147094
-0.00920225
-0.0283956
-0.0541
-0.0838916
-0.115146
-0.145246
-0.171766
-0.192626
-0.206261
-0.211663
-0.208453
-0.196893
-0.177843
-0.152694
-0.123268
-0.0917073
-0.0603231
-0.0314585
-0.00733813
0.0100915
0.0192991
-3.0983
-3.15309
-3.26406
-3.43178
-3.65618
-3.93496
-4.26586
-4.64101
-5.05746
-5.48177
-5.89385
-6.28944
-6.65866
-6.99325
-7.28683
-7.5342
-7.73139
-7.87536
-7.96312
-7.99154
-7.95801
-7.86055
-7.69854
-7.47135
-7.18093
-6.83079
-6.42933
-5.98442
-5.51756
-5.05522
-4.605
-4.16418
-3.73327
-3.31413
-2.90796
-2.51542
-2.13717
-1.77379
-1.42578
-1.09367
-0.778965
-0.479012
-0.194852
0.0727979
0.323378
0.556279
0.770914
0.966661
1.1429
1.29893
1.43397
1.54744
1.63875
1.7074
1.75299
1.77528
1.77428
1.74995
1.70248
1.63229
1.54004
1.42663
1.29322
1.14121
0.972291
0.788349
0.591543
0.384258
0.169142
-0.0509602
-0.273113
-0.494193
-0.710894
-0.91999
-1.1182
-1.3022
-1.46887
-1.6152
-1.73837
-1.83583
-1.90542
-1.94517
-1.95372
-1.93403
-1.88238
-1.79921
-1.68572
-1.54375
-1.37571
-1.18461
-0.974068
-0.74826
-0.511861
-0.269852
-0.0276267
0.209263
0.435225
0.644709
0.832474
0.993658
1.12393
1.21968
1.27812
1.29775
1.27692
1.21697
1.11945
0.987192
0.82423
0.635726
0.427791
0.207386
-0.0180336
-0.24052
-0.452106
-0.645154
-0.812608
-0.948234
-1.04699
-1.1053
-1.12132
-1.09453
-1.02706
-0.922465
-0.786106
-0.624912
-0.44704
-0.261519
-0.078012
0.0940528
0.245848
0.369607
0.459173
0.510349
0.521263
0.493048
0.428319
0.332593
0.213398
0.0797395
-0.0586048
-0.190396
-0.306526
-0.398507
-0.459942
-0.486988
-0.478746
-0.437249
-0.367137
-0.275406
-0.170667
-0.0621986
0.0400332
0.127727
0.193899
0.233805
0.245244
0.229816
0.189245
0.128554
0.0541517
-0.0274182
-0.107846
-0.181199
-0.24185
-0.285777
-0.310718
-0.316203
-0.303419
-0.275026
-0.234763
-0.187033
-0.13642
-0.0875155
-0.0443809
-0.0102126
0.0127521
0.0233571
0.0215192
0.00816157
-0.0149441
-0.0453748
-0.0802707
-0.116583
-0.151312
-0.181716
-0.205476
-0.220875
-0.226847
-0.223034
-0.209799
-0.188168
-0.159756
-0.126625
-0.0911859
-0.0560256
-0.0237418
0.00319952
0.0226462
0.0329127
-1.44477
-1.53436
-1.71627
-1.99169
-2.36104
-2.82187
-3.3707
-3.99955
-4.71362
-5.4489
-6.1852
-6.88885
-7.54466
-8.13961
-8.66345
-9.10753
-9.46446
-9.72784
-9.8927
-9.95565
-9.91525
-9.77051
-9.52186
-9.17083
-8.72154
-8.18052
-7.55937
-6.8712
-6.20813
-5.5512
-4.92092
-4.32385
-3.76162
-3.23352
-2.73722
-2.27021
-1.82981
-1.41361
-1.0195
-0.645888
-0.305581
0.0282586
0.342193
0.636274
0.910443
1.16431
1.39723
1.60847
1.79717
1.96246
2.10348
2.21932
2.30925
2.37261
2.40885
2.4176
2.39869
2.35213
2.27817
2.17732
2.05036
1.8984
1.72283
1.52538
1.30809
1.07327
0.823574
0.561906
0.291504
0.0158441
-0.261493
-0.536699
-0.805744
-1.06468
-1.30955
-1.53634
-1.74124
-1.92067
-2.07122
-2.18993
-2.27424
-2.32211
-2.33223
-2.30496
-2.239
-2.13485
-1.99393
-1.81847
-1.61145
-1.37664
-1.11851
-0.842216
-0.553545
-0.258667
0.0358
0.32307
0.596316
0.848779
1.07409
1.26635
1.42027
1.5316
1.597
1.61433
1.58358
1.50472
1.38014
1.21354
1.01004
0.776106
0.519329
0.248308
-0.027761
-0.299058
-0.55596
-0.789156
-0.99008
-1.15123
-1.26658
-1.3319
-1.34484
-1.30649
-1.21825
-1.08498
-0.913563
-0.712697
-0.492543
-0.264282
-0.0399636
0.169158
0.352199
0.499782
0.604578
0.661745
0.669325
0.628472
0.543269
0.420729
0.270237
0.103076
-0.0689211
-0.231275
-0.373118
-0.484181
-0.556847
-0.586722
-0.573022
-0.518576
-0.429558
-0.314904
-0.185367
-0.052256
0.0717829
0.177051
0.255296
0.301175
0.312561
0.290828
0.239466
0.164701
0.0744388
-0.0232387
-0.118599
-0.204567
-0.274619
-0.324249
-0.351086
-0.354887
-0.337373
-0.301914
-0.253092
-0.196189
-0.136608
-0.0797458
-0.0300652
0.0087826
0.0343732
0.0455435
0.0423644
0.0260689
-0.00120774
-0.0366017
-0.0767993
-0.11832
-0.157776
-0.192112
-0.218776
-0.235909
-0.242391
-0.237901
-0.222906
-0.198612
-0.166865
-0.129968
-0.0906017
-0.0516257
-0.0158984
0.0138789
0.0353517
0.0466816
1.20529
1.06907
0.788154
0.350865
-0.261992
-1.06821
-2.12034
-3.38145
-5.28757
-6.67721
-7.91539
-8.98672
-9.90353
-10.6794
-11.3253
-11.8483
-12.2534
-12.5427
-12.7164
-12.7727
-12.707
-12.5113
-12.1757
-11.6858
-11.0246
-10.1721
-9.14508
-7.59524
-6.55509
-5.62502
-4.83102
-4.12422
-3.48818
-2.90401
-2.36274
-1.85804
-1.38545
-0.941032
-0.521808
-0.126792
0.246441
0.600358
0.934695
1.24873
1.54189
1.81331
2.062
2.28684
2.48662
2.66011
2.8061
2.92343
3.01106
3.06808
3.09376
3.08758
3.04925
2.97875
2.87633
2.74259
2.57844
2.3852
2.16453
1.91849
1.64951
1.36038
1.05425
0.734597
0.405309
0.0705295
-0.265463
-0.598115
-0.92262
-1.23429
-1.52842
-1.80024
-2.04523
-2.25917
-2.4381
-2.57852
-2.67751
-2.73276
-2.74265
-2.70675
-2.62458
-2.49692
-2.32553
-2.11316
-1.86343
-1.58091
-1.27104
-0.940065
-0.594928
-0.243048
0.10762
0.44893
0.772727
1.07096
1.33607
1.56107
1.73975
1.86709
1.93928
1.954
1.91099
1.81081
1.65633
1.45214
1.20453
0.921366
0.611837
0.286321
-0.044134
-0.367674
-0.672827
-0.948546
-1.18468
-1.37237
-1.50461
-1.5766
-1.58598
-1.53335
-1.42163
-1.25662
-1.04678
-0.80271
-0.536771
-0.262471
0.00569257
0.254312
0.470402
0.642898
0.763224
0.825863
0.828756
0.773498
0.665427
0.513303
0.328618
0.125069
-0.0835108
-0.278634
-0.44777
-0.57881
-0.662861
-0.694953
-0.67451
-0.605353
-0.495348
-0.355602
-0.199196
-0.0395494
0.107656
0.23128
0.32185
0.373404
0.383843
0.354971
0.291657
0.201606
0.0943174
-0.0203411
-0.131327
-0.23027
-0.309799
-0.364964
-0.393334
-0.39497
-0.372187
-0.32913
-0.271275
-0.204825
-0.136022
-0.0710205
-0.0147685
0.0286887
0.0567643
0.068314
0.0635884
0.0441614
0.0125411
-0.0279521
-0.0735442
-0.12032
-0.164512
-0.202754
-0.232272
-0.251077
-0.258005
-0.252775
-0.235973
-0.208984
-0.173892
-0.133237
-0.0899654
-0.0472048
-0.00807015
0.024508
0.0479809
0.0603594
4.99341
4.82955
4.488
3.94244
3.1528
2.06243
0.591632
-1.3635
-4.28055
-6.19278
-7.93799
-9.47597
-10.8082
-11.9467
-12.9009
-13.6775
-14.2812
-14.7147
-14.9787
-15.0725
-14.9918
-14.7293
-14.2758
-13.6172
-12.735
-11.6129
-10.292
-8.08219
-6.65161
-5.46539
-4.49913
-3.6903
-2.99191
-2.37675
-1.82264
-1.31375
-0.837856
-0.388572
0.0379531
0.443999
0.831977
1.20166
1.5524
1.88335
2.19329
2.48084
2.74441
2.98234
3.19293
3.37449
3.52538
3.64406
3.72916
3.77949
3.79408
3.77232
3.71374
3.61825
3.48611
3.31801
3.115
2.87863
2.61082
2.31401
1.99104
1.64519
1.28014
0.900003
0.509322
0.11296
-0.284076
-0.676444
-1.05852
-1.42484
-1.76991
-2.08816
-2.37437
-2.62363
-2.83138
-2.99356
-3.10686
-3.1686
-3.17701
-3.13123
-3.03122
-2.87801
-2.67377
-2.42181
-2.12647
-1.79321
-1.42847
-1.03962
-0.634891
-0.22299
0.186716
0.584665
0.961315
1.30726
1.61368
1.87248
2.07649
2.21993
2.29851
2.30972
2.25297
2.12954
1.94291
1.69858
1.40409
1.0688
0.703615
0.320761
-0.0668412
-0.445025
-0.80046
-1.12028
-1.39269
-1.60746
-1.75654
-1.83455
-1.839
-1.77062
-1.6333
-1.43413
-1.18321
-0.893248
-0.578898
-0.256093
0.0580813
0.347887
0.598196
0.796203
0.932055
0.999568
0.996588
0.925337
0.792424
0.608481
0.387399
0.14536
-0.10226
-0.331605
-0.529065
-0.680605
-0.775958
-0.809607
-0.78125
-0.695862
-0.563154
-0.396603
-0.211847
-0.0241761
0.147025
0.289409
0.392288
0.449098
0.457843
0.420996
0.344773
0.238525
0.113469
-0.0188489
-0.145785
-0.257806
-0.346709
-0.407137
-0.436658
-0.435701
-0.407215
-0.356183
-0.288999
-0.21281
-0.134694
-0.0615381
0.00119772
0.0491219
0.0795062
0.0912568
0.0848177
0.0621282
0.0260739
-0.0195621
-0.0705474
-0.122539
-0.171397
-0.213458
-0.245739
-0.26613
-0.273437
-0.267425
-0.248801
-0.219128
-0.180734
-0.136387
-0.0892897
-0.0428321
-0.000374843
0.03493
0.0603476
0.073745
9.76862
9.70819
9.58921
9.41616
9.21241
8.96994
8.86623
8.54129
-3.88352
-3.49603
-3.28663
-2.90194
-2.49085
-2.04665
-1.59375
-1.13767
-0.686783
-0.242216
0.192509
0.615579
1.02624
1.42354
1.80586
2.17152
2.51867
2.84525
3.14906
3.42786
3.67934
3.90125
4.09136
4.2476
4.368
4.45081
4.49453
4.49795
4.46052
4.38137
4.26039
4.0979
3.89464
3.65184
3.37127
3.05516
2.70631
2.32801
1.92403
1.49864
1.05657
0.603061
0.143717
-0.315694
-0.769019
-1.2098
-1.63174
-2.02856
-2.39388
-2.72173
-3.00652
-3.24305
-3.42673
-3.55379
-3.62124
-3.62708
-3.57032
-3.45113
-3.27081
-3.03196
-2.73852
-2.39558
-2.0095
-1.58779
-1.139
-0.672653
-0.198802
0.2717
0.727848
1.15868
1.5534
1.90191
2.19497
2.42444
2.58378
2.66818
2.6749
2.60336
2.45529
2.23486
1.94859
1.60532
1.21598
0.793263
0.351294
-0.0952599
-0.529478
-0.936307
-1.30103
-1.61016
-1.85207
-2.01768
-2.101
-2.09941
-2.01398
-1.84947
-1.61437
-1.32053
-0.982878
-0.618385
-0.245349
0.116059
0.447987
0.733082
0.956752
1.10788
1.17961
1.16974
1.08121
0.921954
0.704553
0.445534
0.163826
-0.124855
-0.389077
-0.615401
-0.787616
-0.894004
-0.928528
-0.891249
-0.788419
-0.631724
-0.437156
-0.22314
-0.00635324
0.189136
0.350346
0.465304
0.526885
0.533264
0.487728
0.397903
0.274824
0.13162
-0.0187485
-0.161657
-0.286638
-0.384665
-0.450017
-0.480311
-0.476398
-0.4419
-0.382663
-0.306023
-0.220066
-0.132697
-0.0515093
0.0175319
0.0697235
0.102225
0.11401
0.105737
0.0797116
0.0392073
-0.011534
-0.0678299
-0.124923
-0.178317
-0.224062
-0.258984
-0.280863
-0.288485
-0.281664
-0.261229
-0.22892
-0.187313
-0.139385
-0.0885895
-0.0385631
0.00709295
0.0450198
0.0723054
0.086681
14.2956
14.262
14.196
14.1009
13.9827
13.8394
13.7457
13.518
-2.93706
-2.61379
-2.39514
-2.07021
-1.71225
-1.33049
-0.931251
-0.517558
-0.0975311
0.327384
0.7515
1.17293
1.58866
1.99595
2.39189
2.77361
3.13814
3.48255
3.80383
4.099
4.36513
4.59935
4.79893
4.9613
5.08409
5.16519
5.20272
5.19495
5.14234
5.04273
4.89623
4.70324
4.46464
4.18179
3.8567
3.49191
3.09063
2.65655
2.19399
1.70779
1.20333
0.686566
0.163845
-0.358284
-0.87284
-1.37251
-1.8502
-2.29879
-2.71109
-3.08039
-3.4004
-3.66528
-3.86991
-4.01009
-4.08248
-4.08488
-4.01626
-3.8769
-3.66842
-3.39388
-3.05783
-2.66614
-2.22612
-1.74636
-1.2366
-0.707688
-0.171028
0.360994
0.87592
1.36135
1.8051
2.1958
2.52304
2.77769
2.95249
3.04213
3.0436
2.95643
2.78277
2.52753
2.19827
1.80517
1.36079
0.879661
0.377861
-0.128572
-0.619221
-1.0777
-1.4874
-1.83314
-2.10186
-2.28347
-2.37138
-2.36285
-2.25936
-2.06663
-1.79448
-1.45669
-1.07028
-0.65478
-0.230863
0.178305
0.552612
0.872508
1.1216
1.28755
1.36281
1.34525
1.23849
1.05188
0.800025
0.502084
0.181203
-0.151559
-0.449791
-0.705101
-0.897861
-1.01488
-1.04963
-1.00262
-0.881452
-0.699915
-0.476636
-0.233037
0.0136121
0.233166
0.412986
0.539632
0.605453
0.608889
0.554109
0.450232
0.310022
0.148441
-0.0198303
-0.178583
-0.31623
-0.423018
-0.492912
-0.523631
-0.51647
-0.47577
-0.408247
-0.322177
-0.226562
-0.130134
-0.0411436
0.0339537
0.0901753
0.124593
0.13627
0.126156
0.0967063
0.0518005
-0.00393867
-0.0653971
-0.12742
-0.18517
-0.234431
-0.271849
-0.295111
-0.302987
-0.295345
-0.273139
-0.238267
-0.193573
-0.14221
-0.0878766
-0.0344436
0.0142603
0.0546822
0.0837436
0.0990488
18.4481
18.4303
18.3959
18.3464
18.2889
18.2187
18.1904
18.09
-1.94685
-1.74939
-1.60023
-1.35587
-1.06424
-0.731134
-0.370103
0.0176915
0.420083
0.838204
1.26074
1.68702
2.11271
2.53385
2.94649
3.34678
3.73086
4.09496
4.43532
4.7483
5.03033
5.27798
5.488
5.65737
5.78334
5.86348
5.89579
5.8789
5.80998
5.68988
5.51812
5.29496
5.02134
4.69877
4.3295
3.91638
3.463
2.97352
2.45277
1.90618
1.33978
0.760234
0.174649
-0.409652
-0.984853
-1.5428
-2.07556
-2.57523
-3.0338
-3.44381
-3.79829
-4.09076
-4.3156
-4.46815
-4.54477
-4.54302
-4.46189
-4.30178
-4.06461
-3.75389
-3.37483
-2.93408
-2.43987
-1.9019
-1.33112
-0.739702
-0.140343
0.452972
1.02636
1.566
2.05832
2.49069
2.85154
3.13079
3.32045
3.4147
3.41035
3.307
3.10726
2.81679
2.4442
2.00103
1.50147
0.961963
0.400748
-0.165966
-0.712387
-1.22203
-1.67617
-2.05791
-2.35276
-2.54966
-2.64147
-2.6253
-2.50314
-2.2816
-1.97198
-1.58984
-1.1545
-0.687962
-0.213202
0.243474
0.659789
1.01401
1.28795
1.46809
1.54625
1.52037
1.39481
1.18032
0.893557
0.556157
0.193731
-0.178003
-0.512271
-0.796532
-1.00946
-1.13658
-1.17099
-1.11363
-0.973568
-0.766739
-0.514476
-0.241937
0.0356505
0.278266
0.476272
0.614093
0.683621
0.683614
0.619243
0.501089
0.343712
0.163906
-0.0220081
-0.196207
-0.346077
-0.461178
-0.535213
-0.566039
-0.555428
-0.508447
-0.432686
-0.337343
-0.232303
-0.127121
-0.0306377
0.050215
0.110205
0.146338
0.15778
0.145718
0.112948
0.0637509
0.00317832
-0.0632423
-0.129977
-0.191869
-0.244452
-0.284209
-0.308745
-0.316822
-0.308362
-0.28444
-0.247106
-0.199476
-0.14485
-0.0871618
-0.0305085
0.0210734
0.0638484
0.0945832
0.110764
22.1994
22.1897
22.1712
22.1446
22.1144
22.0797
22.064
22.0183
-1.29555
-1.15383
-1.02096
-0.814887
-0.554408
-0.246591
0.0936025
0.470098
0.867016
1.28416
1.71334
2.15076
2.59138
3.0304
3.46304
3.88459
4.29044
4.67609
5.0371
5.36921
5.66828
5.93033
6.15165
6.32877
6.45856
6.53828
6.56561
6.53866
6.45559
6.31602
6.11975
5.86716
5.55929
5.19783
4.78527
4.32477
3.82031
3.2765
2.69869
2.09289
1.46576
0.824704
0.177543
-0.467616
-1.10213
-1.71701
-2.30353
-2.85298
-3.35658
-3.80611
-4.19393
-4.51298
-4.75709
-4.92123
-5.00142
-4.99501
-4.90097
-4.71988
-4.45395
-4.10716
-3.68533
-3.19592
-2.64808
-2.05258
-1.42161
-0.768624
-0.107443
0.54607
1.17682
1.76957
2.30939
2.7824
3.17591
3.4789
3.68267
3.78096
3.77036
3.65057
3.42467
3.09908
2.68348
2.19072
1.63661
1.03946
0.420165
-0.206403
-0.807133
-1.36686
-1.86439
-2.28109
-2.60115
-2.81252
-2.90756
-2.88327
-2.74213
-2.49173
-2.1447
-1.71858
-1.23481
-0.71787
-0.193031
0.31026
0.767682
1.15532
1.45329
1.64688
1.72737
1.69273
1.54812
1.3057
0.984087
0.607421
0.203381
-0.205342
-0.575536
-0.888228
-1.12069
-1.25732
-1.29089
-1.22277
-1.0636
-0.831423
-0.550164
-0.247342
0.0567552
0.323576
0.539252
0.687641
0.760347
0.756527
0.682371
0.549965
0.375604
0.17804
-0.0251721
-0.214186
-0.375722
-0.498634
-0.576408
-0.607069
-0.592881
-0.539643
-0.455805
-0.351453
-0.237327
-0.123773
-0.0201663
0.0661051
0.129588
0.167246
0.178351
0.164327
0.128325
0.0749918
0.0097929
-0.0613506
-0.132547
-0.198343
-0.25404
-0.295972
-0.321672
-0.329903
-0.32064
-0.295076
-0.255395
-0.205001
-0.147297
-0.0864567
-0.0267825
0.0274959
0.0724729
0.104772
0.121771
25.5476
25.5418
25.5311
25.5156
25.4985
25.4788
25.4707
25.4449
-0.851034
-0.732989
-0.608782
-0.418539
-0.171284
0.134567
0.46297
0.843549
1.24323
1.66788
2.10972
2.56346
3.02331
3.48373
3.93919
4.38429
4.81374
5.22241
5.60528
5.95751
6.27445
6.55162
6.78486
6.97029
7.10445
7.1843
7.20723
7.17117
7.07436
6.9161
6.69624
6.41523
6.07423
5.67512
5.22062
4.71419
4.16021
3.56373
2.93059
2.26738
1.58141
0.880747
0.173945
-0.530118
-1.22199
-1.89189
-2.53031
-3.12777
-3.67471
-4.16221
-4.58197
-4.92636
-5.18872
-5.36364
-5.44682
-5.43535
-5.32827
-5.1263
-4.83196
-4.44968
-3.98592
-3.44886
-2.8486
-2.19698
-1.50735
-0.794479
-0.0730871
0.638846
1.32522
1.9694
2.55514
3.06737
3.49227
3.81792
4.03501
4.13679
4.11965
3.98342
3.73166
3.37156
2.9138
2.37255
1.76517
1.11168
0.434299
-0.246769
-0.901721
-1.51007
-2.04949
-2.4998
-2.84391
-3.06887
-3.16653
-3.13382
-2.97373
-2.69479
-2.31102
-1.84174
-1.31065
-0.744626
-0.171028
0.377462
0.874654
1.29449
1.61542
1.82167
1.90394
1.8603
1.69672
1.42671
1.07087
0.655668
0.211368
-0.233951
-0.638702
-0.978888
-1.23007
-1.37556
-1.40789
-1.32879
-1.15058
-0.893372
-0.583637
-0.251206
0.0783446
0.368519
0.601104
0.759387
0.834779
0.826871
0.742912
0.596454
0.40554
0.190709
-0.0290051
-0.232204
-0.404773
-0.534964
-0.616084
-0.646375
-0.628538
-0.569155
-0.47749
-0.364484
-0.241698
-0.120186
-0.00987859
0.0814529
0.148152
0.187156
0.197847
0.181886
0.142766
0.0854848
0.0158985
-0.0597017
-0.135091
-0.204536
-0.263132
-0.307072
-0.333832
-0.342177
-0.332135
-0.305014
-0.263112
-0.210136
-0.149552
-0.0857702
-0.0232811
0.033506
0.0805302
0.114283
0.132042
28.5266
28.5229
28.5162
28.5065
28.4962
28.4838
28.4799
28.464
-0.539043
-0.433318
-0.311887
-0.13142
0.104931
0.436031
0.763734
1.14444
1.55529
1.99419
2.45371
2.92785
3.41024
3.89473
4.37513
4.84541
5.2997
5.73232
6.13776
6.51069
6.84596
7.13865
7.38416
7.57826
7.71718
7.79761
7.81669
7.77229
7.66241
7.48633
7.24394
6.93573
6.56301
6.12779
5.63305
5.08256
4.48104
3.83402
3.14778
2.42947
1.68703
0.929196
0.165199