/*--------------------------------*- C++ -*----------------------------------*\
  =========                 |
  \\      /  F ield         | OpenFOAM: The Open Source CFD Toolbox
   \\    /   O peration     | Website:  https://openfoam.org
    \\  /    A nd           | Version:  12
     \\/     M anipulation  |
\*---------------------------------------------------------------------------*/
FoamFile
{
    format      ascii;
    class       volScalarField;
    location    "313";
    object      p;
}
// * * * * * * * * * * * * * * * * * * * * * * * * * * * * * * * * * * * * * //

dimensions      [0 2 -2 0 0 0 0];

internalField   nonuniform List<scalar> 
10720
(
-90.3013
-164.356
-251.758
-337.216
-415.63
-495.568
-565.969
-624.686
-675.599
-715.102
-745.18
-767.136
-781.773
-790.297
-793.152
-789.876
-781.395
-766.368
-745.94
-718.733
-685.78
-646.275
-602.45
-555.211
-508.061
-466.085
-428.27
-391.027
-354.075
-317.639
-281.536
-245.627
-209.807
-173.848
-137.496
-99.6449
-59.9309
-12.3773
35.4239
-15.3386
52.768
126.271
195.395
254.944
300.939
329.714
340.803
340.176
329.284
309.538
286.466
263.015
240.209
218.736
198.471
179.507
161.437
144.009
126.731
109.557
92.1684
74.6591
57.4266
42.3637
30.5384
20.9015
13.0666
7.03666
2.8689
0.46642
-0.27662
0.56043
2.9811
6.99699
13.0257
21.6215
36.5082
61.5969
23.3158
-33.0607
-96.0143
-162.672
-230.958
-300.696
-368.212
-431.403
-489.648
-541.168
-585.645
-623.077
-653.528
-677.065
-693.609
-702.878
-705.475
-700.97
-689.91
-671.679
-646.835
-615.105
-578.171
-537.178
-495.215
-456.597
-420.867
-385.231
-349.517
-314.045
-278.722
-243.445
-208.135
-172.584
-136.547
-98.938
-59.4099
-11.9465
35.0995
74.1467
122.786
171.535
218.922
261.059
295.339
318.768
330.074
330.62
321.663
305.773
286.337
265.486
244.334
223.642
203.678
184.608
166.283
148.527
131.021
113.677
96.2843
78.9281
62.0158
47.021
34.8585
24.809
16.5474
10.0966
5.51148
2.72201
1.63076
2.15596
4.30018
8.0848
13.9313
22.3845
37.182
61.2569
39.8012
-10.6585
-67.2489
-129.538
-193.933
-259.751
-325.402
-388.183
-446.52
-499.425
-545.661
-584.925
-617.028
-641.914
-659.781
-670.831
-675.294
-672.983
-664.09
-648.384
-626.164
-597.486
-563.607
-525.811
-486.652
-449.667
-414.969
-380.395
-345.626
-310.941
-276.278
-241.541
-206.666
-171.46
-135.692
-98.2947
-58.9398
-11.6686
34.8476
85.4418
130.013
174.54
217.004
254.021
283.981
304.839
315.9
317.874
311.609
298.998
282.329
263.45
243.637
223.768
204.308
185.492
167.317
149.666
132.311
115.13
97.9839
80.9383
64.365
49.4329
37.0366
26.77
18.3218
11.6941
6.93249
3.97656
2.72907
3.11012
5.12355
8.79906
14.5593
22.9462
37.6208
60.7106
64.804
22.3487
-25.9858
-79.0462
-134.628
-192.656
-251.459
-309.207
-364.567
-416.398
-463.564
-505.393
-541.406
-571.312
-594.894
-612.147
-622.831
-626.676
-623.627
-613.565
-596.663
-573.131
-543.984
-510.553
-475.043
-440.477
-407.439
-374.342
-340.807
-307.12
-273.285
-239.227
-204.902
-170.136
-134.713
-97.5952
-58.4783
-11.5261
34.4493
102.897
139.638
176.613
212.507
244.199
270.451
289.429
300.367
303.556
299.524
289.724
275.865
259.436
241.608
223.23
204.821
186.687
168.943
151.559
134.403
117.387
100.44
83.633
67.3169
52.452
39.8815
29.4042
20.7342
13.8667
8.85248
5.64347
4.15388
4.31312
6.13056
9.64348
15.2735
23.5501
38.0262
60.1349
73.0295
35.2999
-7.86709
-55.5708
-105.685
-158.611
-212.947
-267.046
-319.877
-370.283
-417.115
-459.577
-497.001
-528.856
-554.76
-574.475
-587.637
-594.134
-593.831
-586.715
-572.896
-552.656
-526.829
-496.671
-464.084
-431.586
-399.987
-368.173
-335.757
-303.013
-269.991
-236.629
-202.889
-168.611
-133.587
-96.8078
-57.9975
-11.4703
33.8143
106.974
139.539
172.397
204.291
232.471
256.103
273.703
284.533
288.66
286.485
279.112
267.819
253.762
237.943
221.156
203.938
186.649
169.492
152.522
135.696
118.968
102.313
85.8184
69.8111
55.089
42.4234
31.7751
22.9164
15.8446
10.6141
7.18999
5.49695
5.47025
7.1209
10.4914
16.0014
24.163
38.411
59.5234
78.3265
44.8834
6.41005
-36.0943
-80.7742
-128.337
-177.481
-226.89
-275.809
-323.179
-368.015
-409.55
-447.041
-479.853
-507.489
-529.546
-545.655
-555.564
-558.999
-555.815
-546.011
-529.823
-507.928
-481.475
-452.118
-421.986
-392.05
-361.64
-330.429
-298.683
-266.505
-233.861
-200.728
-166.96
-132.365
-95.966
-57.52
-11.5298
32.9495
108.412
137.157
166.356
194.894
220.236
241.772
258.271
268.957
273.765
273.071
267.701
258.644
246.797
232.983
217.907
202.071
185.849
169.492
153.121
136.764
120.427
104.13
87.9793
72.2861
57.7301
45.0129
34.2203
25.1921
17.9277
12.4844
8.84163
6.93466
6.70662
8.1736
11.3849
16.7575
24.7833
38.7577
58.8585
79.5425
49.3726
14.5669
-23.9151
-64.2902
-107.505
-152.394
-197.808
-243.238
-287.735
-330.445
-370.673
-407.656
-440.713
-469.273
-492.819
-510.872
-523.039
-528.987
-528.528
-521.652
-508.578
-489.878
-466.571
-440.083
-412.184
-383.894
-354.882
-324.892
-294.17
-262.857
-230.951
-198.444
-165.208
-131.067
-95.0835
-57.058
-11.7149
31.8676
106.713
132.586
158.999
184.917
208.017
227.865
243.442
253.938
259.233
259.695
255.959
248.804
238.937
227.017
213.641
199.252
184.207
168.781
153.138
137.364
121.512
105.645
89.8878
74.5405
60.1941
47.4884
36.598
27.4317
19.997
14.3559
10.5037
8.38867
7.96264
9.24706
12.2974
17.5254
25.4005
39.0579
58.1463
78.8962
51.5047
19.8326
-15.1575
-51.7746
-91.098
-132.054
-173.641
-215.527
-256.901
-297.021
-335.304
-371.045
-403.574
-432.284
-456.608
-475.99
-490.006
-498.274
-500.511
-496.61
-486.705
-471.243
-451.094
-427.482
-401.895
-375.352
-347.805
-319.09
-289.439
-259.032
-227.898
-196.044
-163.364
-129.702
-94.1665
-56.6123
-12.0177
30.582
103.601
127.071
151.159
174.905
196.15
214.591
229.358
239.626
245.255
246.603
244.179
238.617
230.479
220.291
208.545
195.612
181.817
167.426
152.628
137.546
122.274
106.909
91.5952
76.6253
62.528
49.8879
38.9422
29.6661
22.0814
16.2566
12.2028
9.88306
9.25815
10.3558
13.2378
18.3093
26.0145
39.3109
57.3919
76.8785
51.7996
22.7639
-9.28892
-42.7289
-78.7023
-116.237
-154.427
-193.086
-231.504
-269.06
-305.279
-339.519
-371.152
-399.584
-424.217
-444.463
-459.833
-469.886
-474.265
-472.793
-465.562
-452.921
-435.608
-414.658
-391.306
-366.519
-340.453
-313.036
-284.492
-255.026
-224.697
-193.53
-161.436
-128.28
-93.222
-56.1802
-12.4229
29.1168
99.5303
121.015
143.17
165.095
184.768
202.022
216.063
226.072
231.92
233.942
232.566
228.321
221.668
213.028
202.799
191.281
178.752
165.457
151.584
137.279
122.668
107.873
93.0545
78.5005
64.6939
52.1742
41.22
31.8678
24.1583
18.1681
13.9243
11.4058
10.5838
11.4929
14.2013
19.1052
26.6217
39.5155
56.5963
74.0713
50.9756
24.2142
-5.29246
-35.9788
-69.0182
-103.505
-138.624
-174.29
-209.88
-244.882
-278.915
-311.408
-341.811
-369.556
-394.046
-414.692
-430.965
-442.405
-448.613
-449.322
-444.553
-434.552
-419.92
-401.522
-380.375
-357.372
-332.816
-306.728
-279.324
-250.833
-221.343
-190.896
-159.42
-126.802
-92.2565
-55.7625
-12.9199
27.5041
94.9681
114.76
135.265
155.63
173.955
190.176
203.558
213.286
219.262
221.791
221.248
218.084
212.691
205.411
196.564
186.385
175.102
162.927
150.033
136.575
122.693
108.53
94.2576
80.1591
66.6851
54.3384
43.4237
34.0306
26.223
20.0868
15.6659
12.9557
11.9393
12.6579
15.1871
19.9116
27.22
39.6715
55.7614
70.7765
49.3946
24.606
-2.68858
-30.976
-61.4443
-93.2414
-125.624
-158.569
-191.534
-224.102
-255.977
-286.655
-315.657
-342.466
-366.518
-387.228
-404.062
-416.517
-424.188
-426.72
-424.073
-416.415
-404.218
-388.194
-369.169
-347.945
-324.912
-300.17
-273.936
-246.452
-217.833
-188.138
-157.313
-125.268
-91.2729
-55.3635
-13.5029
25.7684
90.1561
108.492
127.569
146.581
163.731
179.04
191.813
201.251
207.283
210.189
210.302
208.023
203.692
197.591
189.983
181.047
170.96
159.896
148.009
135.443
122.345
108.868
95.1891
81.5854
68.4857
56.3628
45.5361
36.1398
28.2632
22.0033
17.4203
14.5274
13.3206
13.848
16.1928
20.7262
27.8069
39.7792
54.8905
67.2161
47.3365
24.2822
-1.06627
-27.247
-55.4424
-84.8448
-114.769
-145.243
-175.785
-206.052
-235.821
-264.659
-292.159
-317.854
-341.221
-361.71
-378.789
-391.939
-400.755
-404.819
-404.029
-398.471
-388.504
-374.698
-357.716
-338.253
-316.75
-293.369
-268.33
-241.883
-214.166
-185.255
-155.115
-123.677
-90.2728
-54.9873
-14.1702
23.925
85.2696
102.334
120.161
137.981
154.096
168.585
180.79
189.937
195.966
199.146
199.776
198.218
194.776
189.69
183.179
175.375
166.414
156.432
145.551
133.904
121.631
108.884
95.8405
82.7703
70.0854
58.2346
47.5439
38.1836
30.2688
23.9091
19.1813
16.1164
14.7244
15.0605
17.216
21.5465
28.3801
39.8397
53.9866
63.5359
44.9823
23.466
-0.157441
-24.4732
-50.6482
-77.9143
-105.63
-133.865
-162.19
-190.313
-218.076
-245.107
-271.064
-295.542
-318.065
-338.12
-355.195
-368.769
-378.439
-383.756
-384.544
-380.828
-372.868
-361.106
-346.062
-328.326
-308.346
-286.333
-262.509
-237.125
-210.34
-182.245
-152.824
-122.029
-89.2567
-54.637
-14.9185
21.9827
80.413
96.3614
113.076
129.833
145.026
158.773
170.445
179.3
185.285
188.658
189.693
188.721
186.02
181.803
176.252
169.469
161.551
152.6
142.709
131.988
120.562
108.578
96.2051
83.7052
71.4738
59.9406
49.4329
40.149
32.2283
25.7948
20.9412
17.7166
16.1462
16.2921
18.2539
22.3701
28.9372
39.8539
53.0534
59.8338
42.4617
22.3209
0.239459
-22.4121
-46.7804
-72.1322
-97.859
-124.066
-150.361
-176.497
-202.366
-227.652
-252.069
-275.275
-296.845
-316.302
-333.168
-346.934
-357.2
-363.515
-365.631
-363.519
-357.353
-347.466
-334.251
-318.191
-299.719
-279.074
-256.478
-232.18
-206.355
-179.107
-150.439
-120.324
-88.2251
-54.3157
-15.7435
19.9495
75.6602
90.612
106.335
122.134
136.498
149.565
160.735
169.301
175.21
178.714
180.063
179.565
177.48
174.002
169.288
163.414
156.451
148.469
139.533
129.726
119.157
107.956
96.2833
84.3852
72.6429
61.4698
51.1904
42.0233
34.1305
27.6507
22.6922
19.3221
17.5812
17.539
19.3033
23.1939
29.4759
39.824
52.0945
56.1748
39.8658
20.9631
0.269923
-20.8887
-43.6334
-67.2584
-91.192
-115.556
-139.993
-164.294
-188.391
-212.015
-234.933
-256.85
-277.396
-296.14
-312.639
-326.41
-337.051
-344.131
-347.341
-346.606
-342.025
-333.839
-322.33
-307.883
-290.891
-271.605
-250.245
-227.053
-202.212
-175.842
-147.96
-118.561
-87.1782
-54.0234
-16.6413
17.8347
71.0567
85.1124
99.9383
114.872
128.482
140.92
151.617
159.898
165.708
169.291
170.881
170.766
169.195
166.344
162.354
157.286
151.187
144.103
136.074
127.157
117.439
107.032
96.0788
84.8084
73.5865
62.8124
52.8043
43.7943
35.9639
29.4666
24.4257
20.9259
19.024
18.7969
20.3606
24.0152
29.9941
39.7516
51.1141
52.6033
37.2585
19.4771
0.0418314
-19.7697
-41.0449
-63.1068
-85.4156
-108.104
-130.84
-153.453
-175.901
-197.953
-219.423
-240.065
-259.553
-277.505
-293.516
-307.135
-317.963
-325.603
-329.696
-330.124
-326.931
-320.274
-310.346
-297.436
-281.886
-263.942
-243.819
-221.747
-197.914
-172.448
-145.386
-116.741
-86.1159
-53.7605
-17.6052
15.6472
66.6299
79.8749
93.8849
108.028
120.948
132.802
143.054
151.054
156.746
160.369
162.144
162.337
161.191
158.871
155.505
151.145
145.822
139.562
132.384
124.321
115.436
105.821
95.5981
84.9756
74.3021
63.9614
54.2641
45.4502
37.717
31.2319
26.1326
22.5205
20.4686
20.0611
21.4218
24.8306
30.4896
39.6397
50.1163
49.1501
34.6826
17.9231
-0.365073
-18.9546
-38.8932
-59.5364
-80.3664
-101.526
-122.71
-143.769
-164.682
-185.259
-205.347
-224.743
-243.167
-260.278
-275.714
-289.058
-299.919
-307.934
-312.719
-314.116
-312.119
-306.825
-298.347
-286.888
-272.731
-256.106
-237.213
-216.27
-193.463
-168.929
-142.718
-114.864
-85.0384
-53.5255
-18.6283
13.3966
62.396
74.9035
88.1662
101.582
113.868
125.177
135.006
142.731
148.293
151.926
153.836
154.277
153.482
151.612
148.783
145.043
140.412
134.901
128.512
121.258
113.18
104.345
94.8538
84.8918
74.788
64.9109
55.5607
46.9802
39.3787
32.9361
27.8036
24.0979
21.9083
21.3262
22.4826
25.6368
30.9607
39.4908
49.1056
45.8339
32.1693
16.3489
-0.892009
-18.3636
-37.0851
-56.4316
-75.9136
-95.6758
-115.437
-135.063
-154.557
-173.754
-192.535
-210.73
-228.098
-244.346
-259.144
-272.113
-282.882
-291.114
-296.421
-298.608
-297.633
-293.539
-286.38
-276.278
-263.457
-248.117
-230.441
-210.63
-188.866
-165.287
-139.957
-112.93
-83.9447
-53.3169
-19.7024
11.095
58.363
70.1948
82.7701
95.515
107.212
118.012
127.439
134.895
140.318
143.937
145.945
146.583
146.08
144.589
142.222
139.021
135.003
130.169
124.505
118.01
110.702
102.627
93.8609
84.565
75.0466
65.6579
56.6867
48.3744
40.9383
34.5688
29.4288
25.6498
23.3359
22.5864
23.5381
26.4303
31.4054
39.3083
48.0873
42.6655
29.7406
14.7837
-1.49157
-17.9406
-35.5443
-53.704
-71.9502
-90.4339
-108.888
-127.196
-145.377
-163.288
-180.834
-197.88
-214.218
-229.594
-243.715
-256.238
-266.816
-275.128
-280.809
-283.626
-283.508
-280.461
-274.488
-265.645
-254.094
-239.999
-223.521
-204.84
-184.128
-161.525
-137.106
-110.941
-82.8347
-53.1323
-20.8184
8.75406
54.5341
65.7432
77.6824
89.8057
100.953
111.275
120.32
127.514
132.792
136.377
138.452
139.248
138.986
137.815
135.844
133.114
129.637
125.408
120.407
114.615
108.035
100.691
92.6359
84.0052
75.0829
66.2019
57.6367
49.6244
42.3858
36.1194
30.9985
27.1673
24.7439
23.8356
24.5834
27.2076
31.8225
39.0954
47.0661
39.6516
27.4109
13.2521
-2.13187
-17.6384
-34.2147
-51.2819
-68.3947
-85.7033
-102.955
-120.048
-137.012
-153.724
-170.112
-186.066
-201.409
-215.921
-229.345
-241.369
-251.675
-259.958
-265.881
-269.185
-269.775
-267.63
-262.716
-255.03
-244.675
-231.778
-216.47
-198.912
-179.259
-157.649
-134.166
-108.896
-81.7072
-52.9684
-21.9669
6.38609
50.9077
61.5411
72.8895
84.4343
95.0665
104.937
113.62
120.557
125.688
129.225
131.344
132.264
132.2
131.3
129.668
127.346
124.346
120.658
116.256
111.112
105.214
98.5664
91.2004
83.2269
74.9037
66.5439
58.4074
50.7231
43.7121
37.5781
32.5027
28.6412
26.1242
25.0669
25.613
27.9648
32.2104
38.8555
46.047
36.7941
25.1885
11.7715
-2.78622
-17.4225
-33.0492
-49.1098
-65.1782
-81.4042
-97.5485
-113.521
-129.359
-144.958
-160.26
-175.18
-189.569
-203.234
-215.951
-227.442
-237.415
-245.579
-251.633
-255.298
-256.461
-255.084
-251.103
-244.471
-235.235
-223.481
-209.311
-192.86
-174.267
-153.664
-131.141
-106.798
-80.5607
-52.8206
-23.1374
4.00466
47.4818
57.5792
68.3766
79.3807
89.5299
98.9738
107.311
114.001
118.981
122.459
124.602
125.619
125.72
125.048
123.706
121.738
119.156
115.949
112.087
107.535
102.269
96.2799
89.5766
82.2452
74.5183
66.6878
58.9972
51.6651
44.9092
38.9355
33.9318
30.0623
27.4685
26.2733
26.6212
28.6983
32.5681
38.5923
45.035
34.0931
23.0792
10.3524
-3.43601
-17.2649
-32.0124
-47.141
-62.2452
-77.4698
-92.5923
-107.529
-122.327
-136.89
-151.178
-165.125
-178.601
-191.446
-203.459
-214.394
-223.988
-231.963
-238.053
-241.968
-243.584
-242.852
-239.687
-234.005
-225.808
-215.136
-202.066
-186.702
-169.166
-149.579
-128.036
-104.648
-79.394
-52.6843
-24.3187
1.62399
44.2501
53.8477
64.1292
74.6262
84.3207
93.3617
101.369
107.818
112.647
116.058
118.211
119.301
119.537
119.058
117.966
116.306
114.089
111.308
107.93
103.916
99.2333
93.8593
87.7864
81.0773
73.9385
66.6399
59.4072
52.4468
45.9703
40.1831
35.2763
31.4212
28.7683
27.4473
27.6023
29.4042
32.8945
38.309
44.0353
31.5465
21.0849
9.00369
-4.06675
-17.1464
-31.0752
-45.3398
-59.5501
-73.8496
-88.0251
-102.004
-115.836
-129.437
-142.78
-155.811
-168.423
-180.475
-191.797
-202.167
-211.348
-219.08
-225.125
-229.198
-231.162
-230.961
-228.5
-223.669
-216.426
-206.775
-194.759
-180.457
-163.967
-145.401
-124.854
-102.446
-78.2048
-52.5537
-25.5005
-0.742604
41.2061
50.3373
60.1345
70.1537
79.4198
88.0786
95.7703
101.987
106.665
110.003
112.152
113.299
113.646
113.331
112.453
111.058
109.162
106.756
103.81
100.282
96.1336
91.3316
85.854
79.7424
73.178
66.408
59.6401
53.0663
46.8901
41.313
36.5273
32.7088
30.015
28.5812
28.5501
30.0786
33.1889
38.0089
43.0524
29.1507
19.2064
7.72997
-4.66843
-17.0487
-30.2155
-43.6759
-57.0565
-70.4969
-83.7966
-96.8882
-109.824
-122.531
-134.99
-147.162
-158.955
-170.251
-180.898
-190.702
-199.449
-206.897
-212.833
-216.982
-219.202
-219.431
-217.572
-213.495
-207.123
-198.426
-187.416
-174.144
-158.686
-141.142
-121.603
-100.196
-76.9915
-52.4219
-26.6706
-3.08045
38.3434
47.0363
56.3785
65.9478
74.8085
83.1037
90.4933
96.4839
101.014
104.276
106.411
107.599
108.038
107.861
107.166
106.002
104.386
102.311
99.7492
96.6585
92.9964
88.7224
83.8026
78.26
72.2517
66.0019
59.7002
53.5239
47.6648
42.3186
37.6766
33.9163
31.1998
29.6673
29.4585
30.7178
33.4507
37.6952
42.0909
26.9005
17.4428
6.53439
-5.2339
-16.9596
-29.4148
-42.1248
-54.733
-67.3756
-79.8615
-92.1291
-104.233
-116.108
-127.744
-139.112
-150.133
-160.707
-170.701
-179.945
-188.244
-195.38
-201.155
-205.314
-207.711
-208.28
-206.928
-203.513
-197.93
-190.119
-180.062
-167.783
-153.34
-136.811
-118.287
-97.8991
-75.7507
-52.2823
-27.8176
-5.37555
35.6543
43.9355
52.8482
61.9917
70.4684
78.4176
85.5187
91.2919
95.6766
98.8575
100.971
102.189
102.703
102.643
102.106
101.142
99.7708
97.9875
95.7661
93.0667
89.8451
86.0552
81.6544
76.6497
71.1752
65.4331
59.5944
53.821
48.292
43.195
38.7168
35.0353
32.3144
30.6978
30.3214
31.3178
33.6791
37.3706
41.1548
24.7913
15.792
5.41798
-5.75821
-16.8704
-28.6594
-40.6681
-52.5558
-64.4551
-76.1837
-87.686
-99.016
-110.117
-120.986
-131.6
-141.894
-151.782
-161.15
-169.844
-177.693
-184.496
-190.07
-194.185
-196.69
-197.521
-196.591
-193.752
-188.877
-181.883
-172.723
-161.399
-147.943
-132.421
-114.916
-95.5569
-74.4812
-52.1265
-28.9294
-7.61381
33.1315
41.0243
49.531
58.2709
66.3833
74.0034
80.8275
86.3914
90.6332
93.7323
95.819
97.0566
97.6314
97.6711
97.2699
96.4794
95.3214
93.7942
91.8747
89.5248
86.7004
83.3518
79.4306
74.9304
69.9648
64.7138
59.3307
53.9612
48.7711
43.9378
39.6417
36.058
33.3509
31.6654
31.1326
31.8751
33.8736
37.0376
40.2475
22.8178
14.2503
4.38106
-6.23777
-16.7735
-27.9374
-39.2896
-50.5038
-61.7094
-72.732
-83.5219
-94.1324
-104.514
-114.666
-124.576
-134.186
-143.425
-152.192
-160.353
-167.753
-174.21
-179.554
-183.581
-186.136
-187.162
-186.578
-184.235
-179.993
-173.745
-165.425
-155.012
-142.516
-127.985
-111.495
-93.174
-73.1795
-51.9471
-29.996
-9.78195
30.767
38.2929
46.4152
54.7726
62.5385
69.8452
76.4037
81.7651
85.8675
88.8843
90.9393
92.1885
92.8127
92.9367
92.6528
92.0131
91.0418
89.7396
88.0867
86.0478
83.5797
80.6321
77.1517
73.1221
68.6375
63.8575
58.9181
53.9497
49.1032
44.5445
40.4457
36.9774
34.3015
32.5625
31.8863
32.3859
34.0337
36.698
39.3718
20.974
12.815
3.4219
-6.67024
-16.6641
-27.2402
-37.9761
-48.5608
-59.1175
-69.4816
-79.6073
-89.548
-99.2579
-108.743
-117.993
-126.961
-135.587
-143.782
-151.427
-158.385
-164.49
-169.584
-173.487
-176.046
-177.208
-176.903
-174.983
-171.301
-165.732
-158.195
-148.646
-137.076
-123.517
-108.033
-90.7519
-71.8438
-51.7371
-31.0052
-11.8671
28.5529
35.732
43.4901
51.4837
58.9199
65.9277
72.2314
77.3976
81.364
84.2984
86.3186
87.5731
88.2376
88.4329
88.25
87.7414
86.933
85.8284
84.4107
82.6478
80.4985
77.9135
74.8363
71.2424
67.2094
62.8778
58.3671
53.7926
49.2906
45.014
41.1252
37.7876
35.1593
33.3825
32.5769
32.8468
34.1588
36.3536
38.53
19.2539
11.4816
2.53925
-7.05515
-16.5384
-26.5615
-36.718
-46.7119
-56.6613
-66.4102
-75.9152
-85.2312
-94.3158
-103.177
-111.811
-120.178
-128.225
-135.876
-143.026
-149.551
-155.303
-160.134
-163.886
-166.411
-167.661
-167.575
-166.014
-162.823
-157.87
-151.057
-142.323
-131.643
-119.03
-104.542
-88.2946
-70.4715
-51.4865
-31.9475
-13.8562
26.4821
33.3321
40.7444
48.3916
55.5138
62.2362
68.2959
73.2735
77.1078
79.9605
81.9434
83.198
83.8947
84.1511
84.0549
83.6605
82.9945
82.0631
80.8528
79.3345
77.4701
75.2111
72.5006
69.3081
65.6964
61.7885
57.6887
53.4978
49.3373
45.3467
41.6772
38.4838
35.9182
34.1191
33.199
33.2544
34.2485
36.0053
37.7234
17.6518
10.2458
1.73093
-7.39265
-16.3936
-25.8949
-35.5064
-44.945
-54.3252
-63.4978
-72.4235
-81.1557
-89.6566
-97.9364
-105.994
-113.797
-121.3
-128.436
-135.112
-141.219
-146.621
-151.181
-154.762
-157.223
-158.52
-158.603
-157.342
-154.58
-150.18
-144.034
-136.066
-126.235
-114.541
-101.028
-85.8064
-69.0605
-51.1895
-32.8118
-15.7381
24.547
31.0844
38.1682
45.4857
52.3081
58.7576
64.5834
69.3792
73.0854
75.8571
77.801
79.0518
79.7736
80.082
80.0612
79.7661
79.2248
78.4451
77.4171
76.1154
74.5042
72.5377
70.1595
67.3349
64.1139
60.6037
56.8946
53.0736
49.2482
45.5442
42.1006
39.0622
36.5732
34.7665
33.7478
33.6056
34.3018
35.6537
36.9524
16.1617
9.10359
0.994013
-7.6832
-16.2285
-25.2372
-34.3349
-43.2516
-52.0971
-60.7301
-69.1135
-77.3001
-85.2558
-92.992
-100.511
-107.785
-114.777
-121.427
-127.652
-133.354
-138.413
-142.7
-146.097
-148.469
-149.78
-149.99
-148.977
-146.588
-142.683
-137.148
-129.895
-120.871
-110.062
-97.5023
-83.2906
-67.6095
-50.8385
-33.5901
-17.5034
22.7404
28.981
35.7518
42.7551
49.2911
55.4797
61.0806
65.702
69.2838
71.976
73.8795
75.1228
75.8648
76.2169
76.2614
76.0528
75.6205
74.974
74.1064
72.9957
71.6096
69.9044
67.826
65.3368
62.4762
59.3369
55.9964
52.5294
49.0298
45.6097
42.3951
39.5204
37.12
35.3202
34.2191
33.8976
34.3182
35.2989
36.217
14.7779
8.05019
0.325746
-7.9281
-16.0422
-24.5853
-33.1982
-41.6237
-49.967
-58.0933
-65.969
-73.6451
-81.091
-88.319
-95.3349
-102.114
-108.625
-114.816
-120.613
-125.928
-130.652
-134.669
-137.872
-140.138
-141.436
-141.736
-140.926
-138.86
-135.396
-130.417
-123.83
-115.569
-105.61
-93.9752
-80.7522
-66.1179
-50.4271
-34.274
-19.1436
21.0554
27.0137
33.4863
40.1892
46.4519
52.3907
57.7758
62.2292
65.6905
68.3047
70.1673
71.4008
72.1581
72.547
72.648
72.5149
72.1778
71.6482
70.9215
69.9792
68.7923
67.3202
65.5113
63.3268
60.7966
58.001
55.006
51.875
48.6891
45.5472
42.5625
39.8573
37.5559
35.7763
34.6093
34.1279
34.2967
34.9405
35.516
13.4946
7.08116
-0.277013
-8.12887
-15.8345
-23.9368
-32.0918
-40.0539
-47.9246
-55.5751
-62.975
-70.1733
-77.1425
-83.8961
-90.4408
-96.7571
-102.817
-108.575
-113.967
-118.912
-123.314
-127.064
-130.069
-132.217
-133.482
-133.841
-133.196
-131.406
-128.334
-123.861
-117.89
-110.347
-101.199
-90.4564
-78.1964
-64.5842
-49.9503
-34.8566
-20.6506
19.4853
25.1747
31.3629
37.779
43.7802
49.4798
54.658
58.9492
62.2941
64.8321
66.6534
67.8745
68.6431
69.0636
69.2132
69.146
68.8923
68.4647
67.862
67.0679
66.0571
64.7924
63.2248
61.3156
59.0871
56.6081
53.9349
51.1204
48.2341
45.3623
42.6052
40.073
37.8791
36.1322
34.9155
34.2943
34.2364
34.5774
34.8475
12.3063
6.19206
-0.817544
-8.28732
-15.6054
-23.2906
-31.0123
-38.5375
-45.9626
-53.166
-60.1192
-66.8699
-73.3927
-79.7025
-85.8073
-91.6901
-97.3274
-102.68
-107.688
-112.282
-116.373
-119.863
-122.669
-124.691
-125.907
-126.303
-125.789
-124.235
-121.509
-117.495
-112.091
-105.221
-96.8419
-86.9562
-75.6281
-63.0099
-49.403
-35.3321
-22.019
18.0237
23.4568
29.3736
35.5156
41.2664
46.7369
51.716
55.8512
59.0836
61.5469
63.3269
64.534
65.3104
65.7573
65.9492
65.9394
65.7583
65.4206
64.9262
64.2626
63.4071
62.3262
60.9741
59.3128
57.3586
55.1699
52.7942
50.2758
47.6733
45.0611
42.527
40.1691
38.0892
36.386
35.1356
34.3951
34.1363
34.2086
34.2093
11.2077
5.37841
-1.29915
-8.40556
-15.3559
-22.6456
-29.9576
-37.0699
-44.0753
-50.8578
-57.3916
-63.7226
-69.8279
-75.7222
-81.4151
-86.8924
-92.1337
-97.1044
-101.752
-106.013
-109.808
-113.047
-115.656
-117.547
-118.702
-119.114
-118.704
-117.352
-114.932
-111.33
-106.448
-100.205
-92.5525
-83.4846
-73.0532
-61.3954
-48.783
-35.6966
-23.2439
16.6643
21.8529
27.5104
33.3901
38.9013
44.152
48.94
52.925
56.0485
58.4388
60.1778
61.3693
62.1509
62.62
62.8484
62.8883
62.771
62.5117
62.1122
61.563
60.8442
59.9259
58.7658
57.3268
55.6207
53.6967
51.5947
49.3512
47.0155
44.6506
42.333
40.1482
38.187
36.5375
35.2683
34.4291
33.9955
33.8323
33.598
10.1934
4.63597
-1.72525
-8.48576
-15.0868
-22.0012
-28.925
-35.6473
-42.257
-48.6431
-54.7828
-60.72
-66.4338
-71.9397
-77.2475
-82.3455
-87.2159
-91.8288
-96.1369
-100.083
-103.596
-106.595
-109.012
-110.77
-111.857
-112.269
-111.941
-110.759
-108.608
-105.378
-100.973
-95.3123
-88.3428
-80.0511
-70.4777
-59.7426
-48.0883
-35.9467
-24.3224
15.4012
20.3565
25.766
31.3948
36.6766
41.7163
46.3205
50.1605
53.1789
55.4984
57.1964
58.3713
59.1554
59.6428
59.9026
59.9859
59.9242
59.7332
59.417
58.968
58.3693
57.5943
56.6045
55.3647
53.8818
52.198
50.3463
48.3566
46.2697
44.1387
42.0288
40.0144
38.1745
36.5871
35.3133
34.3954
33.8129
33.4466
33.0103
9.25862
3.96048
-2.09915
-8.53033
-14.7994
-21.3577
-27.9137
-34.2672
-40.503
-46.5159
-52.2847
-57.8525
-63.1993
-68.3413
-73.289
-78.0324
-82.5561
-86.8337
-90.8232
-94.4737
-97.7196
-100.488
-102.719
-104.346
-105.359
-105.761
-105.495
-104.458
-102.542
-99.6462
-95.6768
-90.5546
-84.2237
-76.6649
-67.9074
-58.0544
-47.3178
-36.0813
-25.2528
14.2289
18.9612
24.1335
29.522
34.5838
39.421
43.8485
47.549
50.4656
52.7159
54.3734
55.5308
56.3154
56.8177
57.1042
57.2252
57.2118
57.0807
56.837
56.4755
55.9822
55.3334
54.4943
53.4318
52.1493
50.6823
49.0584
47.3015
45.4451
43.5333
41.6212
39.7724
38.0551
36.5367
35.2711
34.2938
33.5878
33.0494
32.4422
8.39845
3.34788
-2.42411
-8.54139
-14.4948
-20.7149
-26.9224
-32.9267
-38.8092
-44.4705
-49.8907
-55.1113
-60.1143
-64.9157
-69.5265
-73.938
-78.1377
-82.1018
-85.7927
-89.1647
-92.1591
-94.7093
-96.7615
-98.2597
-99.1957
-99.5795
-99.3602
-98.4461
-96.738
-94.1413
-90.5681
-85.9416
-80.2052
-73.3344
-65.3488
-56.3343
-46.4728
-36.0998
-26.0347
13.1416
17.661
22.6061
27.7644
32.6154
37.2582
41.5155
45.0816
47.8997
50.0827
51.6998
52.8388
53.622
54.1363
54.4457
54.5993
54.6279
54.5487
54.3683
54.0832
53.6821
53.144
52.4378
51.5327
50.4294
49.1574
47.7395
46.1948
44.5505
42.8428
41.1175
39.4282
37.8327
36.3889
35.1431
34.1248
33.3195
32.6385
31.8896
7.60831
2.79398
-2.70331
-8.5214
-14.1748
-20.0732
-25.9501
-31.624
-37.173
-42.5025
-47.5946
-52.4891
-57.1695
-61.6522
-65.9478
-70.0493
-73.9461
-77.6171
-81.0288
-84.1398
-86.8973
-89.2414
-91.1238
-92.4971
-93.3563
-93.7154
-93.5309
-92.7211
-91.1951
-88.8663
-85.6526
-81.4814
-76.2958
-70.0678
-62.8081
-54.586
-45.5552
-36.0039
-26.6698
12.1344
16.45
21.1778
26.1153
30.764
35.22
39.3136
42.7499
45.4728
47.5903
49.1675
50.2875
51.0674
51.5911
51.9197
52.1013
52.1664
52.1322
52.0067
51.7882
51.4673
51.0262
50.4371
49.6713
48.7274
47.6299
46.3975
45.0453
43.5949
42.0757
40.5254
38.9883
37.5128
36.1476
34.9317
33.8891
33.0076
32.2116
31.3481
6.88373
2.29515
-2.94001
-8.47277
-13.8404
-19.4333
-24.9964
-30.3574
-35.591
-40.6077
-45.3907
-49.9789
-54.357
-58.541
-62.5419
-66.3538
-69.9678
-73.3652
-76.5159
-79.3829
-81.9183
-84.0688
-85.7906
-87.0442
-87.8277
-88.158
-87.9992
-87.2777
-85.912
-83.823
-80.9351
-77.1799
-72.5025
-66.8722
-60.2915
-52.8147
-44.5683
-35.7961
-27.1603
11.2022
15.3231
19.8426
24.5684
29.0229
33.2995
37.2354
40.5463
43.1771
45.2305
46.7683
47.8687
48.6438
49.1744
49.519
49.7246
49.821
49.8259
49.7479
49.5872
49.3361
48.9796
48.4932
47.8501
47.0477
46.1057
45.0396
43.8609
42.5868
41.2406
39.8529
38.4599
37.1013
35.8171
34.6399
33.5884
32.6519
31.7667
30.8138
6.22049
1.84761
-3.13718
-8.39783
-13.4936
-18.796
-24.0611
-29.1259
-34.0612
-38.7826
-43.2749
-47.5752
-51.6694
-55.5738
-59.299
-62.8405
-66.1906
-69.3328
-72.2402
-74.8793
-77.2075
-79.1763
-80.7472
-81.887
-82.5972
-82.8969
-82.7563
-82.11
-80.8855
-79.0108
-76.4174
-73.0417
-68.8313
-63.7537
-57.8051
-51.0254
-43.5164
-35.4804
-27.51
10.3404
14.2747
18.5949
23.1175
27.3856
31.4895
35.2734
38.4635
41.005
42.996
44.4947
45.5749
46.3438
46.8791
47.237
47.4627
47.586
47.6244
47.5876
47.4767
47.2862
47.0033
46.6064
46.0714
45.3939
44.5899
43.672
42.6491
41.5343
40.346
39.1084
37.8506
36.6047
35.403
34.2716
33.2248
32.2528
31.3018
30.2823
5.61448
1.44785
-3.29778
-8.29885
-13.1357
-18.1618
-23.144
-27.9281
-32.5815
-37.0242
-41.2426
-45.2722
-49.1004
-52.7427
-56.2104
-59.4994
-62.6032
-65.5077
-68.1885
-70.6155
-72.7503
-74.5495
-75.9794
-77.0123
-77.6524
-77.9207
-77.7928
-77.2109
-76.1107
-74.4277
-72.1001
-69.0695
-65.2865
-60.718
-55.3546
-49.224
-42.4049
-35.0621
-27.7242
9.54443
13.3003
17.4291
21.757
25.8459
29.7837
33.4213
36.4945
38.9493
40.8794
42.3395
43.3989
44.1604
44.6984
45.0667
45.3094
45.4555
45.5227
45.5211
45.4531
45.3149
45.0957
44.7768
44.3364
43.7689
43.0869
42.3007
41.4168
40.4451
39.3999
38.3001
37.1685
36.0303
34.911
33.8311
32.8008
31.8107
30.8153
29.7499
5.06195
1.0924
-3.42459
-8.17809
-12.7681
-17.5316
-22.2454
-26.7634
-31.15
-35.3296
-39.2899
-43.0652
-46.6437
-50.0409
-53.2677
-56.3211
-59.1957
-61.8789
-64.3488
-66.5786
-68.5335
-70.1752
-71.4736
-72.4067
-72.9805
-73.2176
-73.0985
-72.5722
-71.5817
-70.0702
-67.9822
-65.2647
-61.8714
-57.7697
-52.9458
-47.4162
-41.2397
-34.5472
-27.8088
8.81001
12.395
16.3403
20.4813
24.3982
28.1761
31.6725
34.6326
37.0033
38.8739
40.2957
41.3338
42.0868
42.6256
43.002
43.2586
43.424
43.5156
43.5441
43.5129
43.4196
43.2554
43.0042
42.6462
42.1751
41.6006
40.9306
40.1702
39.3266
38.4105
37.4362
36.4214
35.3853
34.3475
33.3235
32.3197
31.3267
30.3059
29.2133
4.55916
0.778121
-3.52044
-8.0376
-12.3927
-16.9062
-21.365
-25.6308
-29.7651
-33.6965
-37.4138
-40.9498
-44.2943
-47.4619
-50.4637
-53.2972
-55.9583
-58.4356
-60.7098
-62.7565
-64.5447
-66.0404
-67.2171
-68.0575
-68.5693
-68.7762
-68.6629
-68.185
-67.2919
-65.9337
-64.0613
-61.627
-58.588
-54.9125
-50.5835
-45.6082
-40.0276
-33.9429
-27.7707
8.13315
11.5543
15.3239
19.2851
23.0366
26.6606
30.0207
32.8716
35.1607
36.973
38.3569
39.3733
40.1165
40.6545
41.0367
41.3047
41.486
41.5981
41.6521
41.6522
41.5973
41.4804
41.2877
41.0014
40.6144
40.134
39.5664
38.9153
38.1857
37.3853
36.5248
35.6174
34.6775
33.7194
32.7542
31.785
30.8023
29.7726
28.6691
4.10264
0.501911
-3.58793
-7.8795
-12.0109
-16.2864
-20.5031
-24.5299
-28.4255
-32.1225
-35.6109
-38.9221
-42.0469
-44.9997
-47.7915
-50.42
-52.8825
-55.1686
-57.261
-59.1381
-60.7723
-62.133
-63.1973
-63.952
-64.4063
-64.5848
-64.4755
-64.0397
-63.2333
-62.0123
-60.3338
-58.1551
-55.4372
-52.1494
-48.2725
-43.8059
-38.7757
-33.2569
-27.6177
7.50997
10.7743
14.3751
18.1638
21.7563
25.2321
28.4606
31.2057
33.4155
35.1708
36.517
37.5112
38.2435
38.7791
39.1652
39.4421
39.6365
39.7656
39.841
39.8676
39.8454
39.7688
39.6263
39.402
39.0881
38.6899
38.2121
37.6572
37.0285
36.3314
35.5736
34.7646
33.9146
33.0336
32.1288
31.2008
30.2393