/*--------------------------------*- C++ -*----------------------------------*\
  =========                 |
  \\      /  F ield         | OpenFOAM: The Open Source CFD Toolbox
   \\    /   O peration     | Website:  https://openfoam.org
    \\  /    A nd           | Version:  12
     \\/     M anipulation  |
\*---------------------------------------------------------------------------*/
FoamFile
{
    format      ascii;
    class       surfaceScalarField;
    location    "313";
    object      phi;
}
// * * * * * * * * * * * * * * * * * * * * * * * * * * * * * * * * * * * * * //

dimensions      [0 3 -1 0 0 0 0];

internalField   nonuniform List<scalar> 
21254
(
-0.241962
0.261473
-0.019511
0.283436
-0.0219629
0.302232
-0.0187958
0.318974
-0.016742
0.334806
-0.0158324
0.347402
-0.0125957
0.357311
-0.00990928
0.365343
-0.0080318
0.370576
-0.00523316
0.374086
-0.0035094
0.376125
-0.00203888
0.376521
-0.000396175
0.375634
0.000886446
0.37343
0.00220416
0.36985
0.00358069
0.365185
0.0046651
0.359258
0.00592695
0.352176
0.00708114
0.343806
0.0083705
0.334388
0.00941794
0.323606
0.0107816
0.312043
0.0115636
0.29997
0.0120728
0.288698
0.0112717
0.279428
0.0092706
0.271472
0.00795598
0.263701
0.00777042
0.2558
0.00790095
0.247435
0.00836528
0.238518
0.00891674
0.229025
0.00949363
0.218946
0.0100787
0.208217
0.0107287
0.1966
0.0116171
0.183568
0.0130325
0.168061
0.0155063
0.147725
0.0203364
0.117126
0.0305993
0.0951975
0.0219292
-0.218863
-0.0230996
-0.19497
-0.0238929
-0.165517
-0.0294526
-0.133133
-0.0323843
-0.0989323
-0.0342007
-0.0635113
-0.035421
-0.0284469
-0.0350644
0.00413706
-0.032584
0.0336492
-0.0295122
0.0598173
-0.0261681
0.0822013
-0.022384
0.101222
-0.0190202
0.117228
-0.0160063
0.130585
-0.0133572
0.142012
-0.0114271
0.151844
-0.00983175
0.160562
-0.0087182
0.168405
-0.00784287
0.175686
-0.00728101
0.182531
-0.00684522
0.189113
-0.00658185
0.195424
-0.00631094
0.201397
-0.00597268
0.206406
-0.0050093
0.210265
-0.00385918
0.213252
-0.00298691
0.215364
-0.00211187
0.216717
-0.00135355
0.217327
-0.00060924
0.217134
0.000192207
0.216044
0.00109003
0.214192
0.00185264
0.211701
0.00249026
0.208636
0.00306513
0.204856
0.00378078
0.199933
0.00492224
0.192687
0.00724584
0.177775
0.0149128
0.155039
0.022736
-0.220821
0.242396
-0.0410865
0.264453
-0.0440202
0.28747
-0.0418128
0.308931
-0.0382028
0.329859
-0.0367599
0.349235
-0.0319718
0.366661
-0.0273351
0.382398
-0.023769
0.39604
-0.0188747
0.407646
-0.0151162
0.417239
-0.0116311
0.424958
-0.00811585
0.431118
-0.005273
0.435867
-0.00254519
0.439088
0.000359812
0.440463
0.00329027
0.439916
0.00647416
0.437572
0.00942424
0.432933
0.0130095
0.426295
0.0160567
0.41726
0.0198164
0.406128
0.022695
0.3929
0.0253016
0.378218
0.0259535
0.363354
0.0241347
0.348754
0.0225559
0.334515
0.0220098
0.320857
0.0215587
0.307601
0.0216214
0.294601
0.0219163
0.281651
0.0224437
0.268592
0.0231383
0.255174
0.0241466
0.241186
0.0256049
0.226234
0.0279848
0.209322
0.0324176
0.189181
0.0404779
0.156927
0.0628534
0.113455
0.0654012
-0.198761
-0.0451591
-0.175124
-0.0475296
-0.147446
-0.0571315
-0.118155
-0.061675
-0.0870351
-0.0653205
-0.0545199
-0.0679361
-0.0221386
-0.0674457
0.00886678
-0.0635894
0.0373676
-0.0580129
0.062741
-0.0515415
0.0848959
-0.0445389
0.104133
-0.0382575
0.120895
-0.0327683
0.135408
-0.0278703
0.148111
-0.0241295
0.159303
-0.0210244
0.169278
-0.0186925
0.178342
-0.0169071
0.186751
-0.0156897
0.194617
-0.0147119
0.202102
-0.0140666
0.209276
-0.0134848
0.216066
-0.0127629
0.222014
-0.0109577
0.226846
-0.008691
0.230765
-0.00690603
0.233768
-0.00511463
0.235906
-0.00349133
0.237225
-0.00192871
0.237875
-0.000456993
0.237955
0.0010098
0.237407
0.00240074
0.236101
0.0037962
0.233993
0.00517329
0.231025
0.00674822
0.226954
0.00899352
0.221759
0.0124405
0.210832
0.02584
0.189724
0.0438445
-0.21426
0.236003
-0.0628289
0.257897
-0.0659149
0.28152
-0.0654358
0.303116
-0.0597984
0.323643
-0.0572867
0.343288
-0.0516164
0.360757
-0.0448044
0.376463
-0.0394757
0.389964
-0.0323749
0.401545
-0.026698
0.411239
-0.0213248
0.419208
-0.0160849
0.425283
-0.0113477
0.429943
-0.00720532
0.432938
-0.00263488
0.435008
0.00121986
0.435841
0.00564122
0.435784
0.0094811
0.434506
0.0142879
0.431945
0.0186179
0.427984
0.0237769
0.422453
0.0282261
0.415324
0.0324301
0.406695
0.0345831
0.397085
0.0337442
0.386559
0.0330818
0.375008
0.0335609
0.362579
0.033988
0.349445
0.0347556
0.335703
0.0356577
0.321502
0.0366447
0.306874
0.037767
0.291761
0.0392598
0.27599
0.0413755
0.259174
0.0448006
0.240319
0.0512728
0.218247
0.0625496
0.185279
0.0958213
0.137702
0.112979
-0.192375
-0.067044
-0.168379
-0.0715265
-0.139659
-0.0858507
-0.109761
-0.0915737
-0.0785042
-0.0965771
-0.0460407
-0.1004
-0.0139874
-0.0994991
0.0159861
-0.0935629
0.0435508
-0.0855776
0.0685316
-0.0765223
0.0906302
-0.0666375
0.110004
-0.0576315
0.127011
-0.0497746
0.141923
-0.042783
0.155053
-0.0372595
0.166736
-0.0327075
0.177238
-0.0291945
0.186826
-0.0264946
0.195707
-0.0245712
0.204048
-0.0230521
0.212032
-0.0220507
0.219674
-0.0211269
0.226883
-0.0199717
0.233358
-0.0174325
0.238812
-0.0141455
0.243348
-0.0114422
0.247024
-0.00879024
0.249871
-0.0063381
0.251953
-0.00401091
0.253264
-0.00176817
0.253875
0.000398395
0.253781
0.00249518
0.253003
0.00457393
0.251469
0.006707
0.249075
0.00914249
0.245435
0.0126333
0.24012
0.0177556
0.229433
0.0365277
0.209404
0.0638729
-0.206656
0.22941
-0.0855832
0.25222
-0.0887245
0.277293
-0.090509
0.300171
-0.0826765
0.322335
-0.0794499
0.343566
-0.0728479
0.363048
-0.0642862
0.380593
-0.0570207
0.396417
-0.0481988
0.410295
-0.0405768
0.422346
-0.0333752
0.432566
-0.0263045
0.440987
-0.0197692
0.447648
-0.0138659
0.452868
-0.00785519
0.456276
-0.00218812
0.458018
0.00389899
0.457851
0.00964784
0.456103
0.0160364
0.45265
0.0220704
0.447641
0.0287859
0.441325
0.034542
0.433831
0.0399246
0.425663
0.0427507
0.417253
0.0421541
0.408657
0.0416785
0.399501
0.0427166
0.389636
0.0438525
0.378883
0.0455088
0.367064
0.0474772
0.354174
0.0495345
0.340203
0.0517376
0.325154
0.0543088
0.308905
0.0576251
0.291202
0.0625035
0.271101
0.071374
0.247349
0.0863014
0.213072
0.130098
0.164865
0.161186
-0.184184
-0.0895162
-0.160075
-0.0956351
-0.130822
-0.115104
-0.100781
-0.121614
-0.0694523
-0.127906
-0.0368791
-0.132973
-0.00490314
-0.131475
0.0246961
-0.123162
0.05175
-0.112631
0.0763287
-0.101101
0.0980925
-0.0884013
0.117279
-0.0768183
0.134298
-0.0667936
0.149389
-0.0578735
0.162867
-0.0507377
0.174958
-0.044798
0.18595
-0.0401865
0.196022
-0.0365668
0.205405
-0.0339541
0.214237
-0.0318847
0.222632
-0.0304452
0.230654
-0.0291495
0.238245
-0.0275628
0.245087
-0.0242739
0.250937
-0.0199959
0.255857
-0.0163618
0.25989
-0.0128235
0.263085
-0.00953356
0.265475
-0.00640097
0.267117
-0.00340966
0.268038
-0.000522608
0.268264
0.00226947
0.267792
0.00504507
0.266609
0.00789038
0.264593
0.0111584
0.261365
0.0158615
0.25633
0.0227902
0.246141
0.0467166
0.226471
0.083543
-0.202537
0.226108
-0.109154
0.249803
-0.112419
0.276295
-0.117001
0.299944
-0.106326
0.323137
-0.102643
0.345477
-0.0951885
0.365866
-0.084675
0.384405
-0.0755594
0.401395
-0.0651889
0.416178
-0.0553601
0.429148
-0.0463454
0.440242
-0.0373987
0.449739
-0.0292656
0.457304
-0.0214311
0.463118
-0.0136689
0.467182
-0.00625215
0.469654
0.00142692
0.470573
0.00872857
0.469694
0.016916
0.467279
0.024485
0.463184
0.0328815
0.457546
0.0401794
0.450604
0.0468671
0.442753
0.0506011
0.43457
0.0503373
0.426261
0.0499874
0.41768
0.0512976
0.408763
0.0527698
0.399367
0.0549052
0.389322
0.0575213
0.378382
0.0604749
0.366317
0.0638026
0.352913
0.0677131
0.337881
0.0726566
0.320813
0.0795713
0.300831
0.091356
0.276504
0.110628
0.241514
0.165089
0.193222
0.209479
-0.179023
-0.113031
-0.154209
-0.120449
-0.123715
-0.145598
-0.0928477
-0.152482
-0.0608128
-0.159941
-0.0276267
-0.166159
0.00476999
-0.163872
0.0344215
-0.152814
0.0612933
-0.139503
0.0856161
-0.125424
0.10709
-0.109875
0.126051
-0.0957796
0.142994
-0.0837362
0.158128
-0.0730074
0.171765
-0.0643756
0.184168
-0.0572011
0.195512
-0.0515304
0.20598
-0.0470345
0.215765
-0.0437385
0.225004
-0.0411238
0.233791
-0.0392324
0.242166
-0.0375249
0.250095
-0.0354917
0.257303
-0.0314821
0.263531
-0.0262232
0.268809
-0.0216399
0.27317
-0.0171849
0.276667
-0.0130305
0.279328
-0.00906134
0.281184
-0.0052661
0.282277
-0.00161535
0.282659
0.00188698
0.282325
0.00537929
0.281236
0.00897954
0.279339
0.0130553
0.276243
0.0189577
0.271341
0.027692
0.261696
0.0563611
0.242695
0.102544
-0.199213
0.223801
-0.133743
0.248826
-0.137444
0.276699
-0.144874
0.30156
-0.131187
0.325774
-0.126857
0.349492
-0.118906
0.370852
-0.106035
0.390678
-0.0953849
0.408657
-0.0831676
0.424673
-0.0713765
0.438956
-0.0606286
0.451316
-0.0497588
0.461976
-0.0399255
0.470912
-0.0303673
0.477984
-0.0207401
0.483506
-0.0117749
0.487099
-0.00216621
0.488858
0.00697044
0.48889
0.0168831
0.487022
0.0263536
0.483304
0.0365995
0.477961
0.0455226
0.471146
0.053682
0.463281
0.0584657
0.454883
0.0587352
0.446216
0.0586546
0.437234
0.0602792
0.427953
0.0620515
0.418375
0.0644829
0.408429
0.0674671
0.398043
0.0708612
0.386984
0.0748615
0.374982
0.0797153
0.361606
0.0860323
0.346242
0.0949352
0.327704
0.109894
0.304375
0.133958
0.270019
0.199445
0.222241
0.257256
-0.174731
-0.137512
-0.149101
-0.146079
-0.117299
-0.1774
-0.0852927
-0.184488
-0.052261
-0.192973
-0.0181481
-0.200272
0.0149542
-0.196974
0.044945
-0.182804
0.0719117
-0.16647
0.0961599
-0.149672
0.117452
-0.131167
0.136194
-0.114521
0.152981
-0.100524
0.16807
-0.0880965
0.181766
-0.0780713
0.194325
-0.0697599
0.205907
-0.0631123
0.216702
-0.0578303
0.226838
-0.0538739
0.23644
-0.050726
0.245599
-0.0483919
0.254338
-0.046263
0.262601
-0.0437549
0.270204
-0.0390851
0.276819
-0.0328383
0.282437
-0.0272581
0.287143
-0.0218905
0.290931
-0.0168186
0.293848
-0.0119793
0.295926
-0.00734351
0.297201
-0.00289037
0.297699
0.00138856
0.297427
0.00565136
0.2964
0.0100068
0.294468
0.0149875
0.291337
0.0220884
0.286316
0.0327126
0.276957
0.0657202
0.258663
0.120838
-0.197194
0.223113
-0.159662
0.249175
-0.163506
0.27862
-0.174318
0.304761
-0.157328
0.330236
-0.152332
0.355033
-0.143703
0.377571
-0.128573
0.398251
-0.116065
0.417285
-0.102202
0.434247
-0.0883381
0.449367
-0.0757485
0.462786
-0.0631776
0.474368
-0.0515076
0.484176
-0.0401761
0.492274
-0.028838
0.498481
-0.0179813
0.50295
-0.00663575
0.505586
0.00433472
0.506412
0.0160576
0.505363
0.0274021
0.502481
0.0394816
0.497828
0.0501753
0.49173
0.0597799
0.484371
0.0658247
0.476261
0.0668451
0.467639
0.0672771
0.45851
0.0694076
0.44891
0.0716517
0.438924
0.0744693
0.428519
0.0778719
0.417704
0.0816762
0.406436
0.0861292
0.394585
0.0915661
0.381818
0.0987994
0.367628
0.109125
0.350808
0.126715
0.329526
0.155239
0.297493
0.231478
0.251258
0.303491
-0.171504
-0.163203
-0.144769
-0.172814
-0.11152
-0.210649
-0.0782062
-0.217802
-0.0439759
-0.227203
-0.00862306
-0.235625
0.0254473
-0.231044
0.0560925
-0.21345
0.0834047
-0.193782
0.107805
-0.174072
0.129023
-0.152385
0.147611
-0.133109
0.164246
-0.117159
0.179225
-0.103075
0.192885
-0.0917305
0.205508
-0.0823834
0.217263
-0.0748671
0.228289
-0.0688567
0.238719
-0.0643037
0.248644
-0.0606504
0.258132
-0.0578806
0.267199
-0.0553295
0.275819
-0.052375
0.283747
-0.0470136
0.290755
-0.0398462
0.296765
-0.0332673
0.301795
-0.0269214
0.305898
-0.0209207
0.309072
-0.0151542
0.311382
-0.00965255
0.312824
-0.00433337
0.313459
0.000754464
0.313291
0.00581937
0.312267
0.0110299
0.310334
0.0169205
0.307109
0.0253135
0.301902
0.0379196
0.292623
0.075
0.274953
0.138508
-0.195905
0.22316
-0.186917
0.250658
-0.191003
0.281788
-0.205448
0.309131
-0.184671
0.335899
-0.1791
0.36195
-0.169755
0.38551
-0.152132
0.407407
-0.137962
0.427259
-0.122053
0.445159
-0.106239
0.461334
-0.0919236
0.475619
-0.0774618
0.488086
-0.0639755
0.498856
-0.0509452
0.507858
-0.0378402
0.515048
-0.0251713
0.520454
-0.0120414
0.524003
0.000784763
0.52561
0.014451
0.525278
0.0277346
0.523092
0.0416675
0.519054
0.0542127
0.513407
0.065427
0.506505
0.0727272
0.498672
0.0746779
0.490169
0.0757806
0.481051
0.0785247
0.471324
0.081379
0.461033
0.0847608
0.45024
0.088664
0.438899
0.0930178
0.427057
0.0979714
0.414623
0.104
0.401499
0.111923
0.387295
0.123329
0.371166
0.142844
0.351602
0.174803
0.322796
0.260284
0.279314
0.346973
-0.168985
-0.190123
-0.141092
-0.200706
-0.106129
-0.245612
-0.0712956
-0.252635
-0.0356413
-0.262857
0.00108127
-0.272347
0.0363727
-0.266336
0.067884
-0.244961
0.0957317
-0.22163
0.120423
-0.198763
0.141718
-0.173681
0.160224
-0.151615
0.176729
-0.133664
0.191578
-0.117925
0.205153
-0.105305
0.217796
-0.0950261
0.229622
-0.0866931
0.24081
-0.080045
0.251457
-0.0749504
0.261652
-0.0708459
0.271425
-0.0676537
0.280818
-0.0647225
0.289767
-0.0613233
0.298063
-0.0553103
0.305441
-0.0472239
0.311817
-0.0396435
0.317203
-0.0323071
0.321626
-0.025344
0.32508
-0.0186081
0.327608
-0.0121801
0.329254
-0.00597991
0.330022
-1.3297e-05
0.329942
0.00589951
0.328967
0.0120042
0.326986
0.0189019
0.323668
0.0286311
0.318289
0.0432985
0.309007
0.0842819
0.29195
0.155566
-0.195466
0.224088
-0.215539
0.253035
-0.21995
0.285865
-0.238278
0.3146
-0.213407
0.342842
-0.207342
0.370255
-0.197167
0.395039
-0.176917
0.417823
-0.160747
0.438794
-0.143024
0.457533
-0.124977
0.47442
-0.10881
0.489526
-0.0925676
0.502863
-0.0773126
0.514439
-0.0625219
0.524257
-0.047658
0.532338
-0.0332521
0.538547
-0.0182501
0.542839
-0.00350714
0.545203
0.0120872
0.545592
0.0273451
0.544088
0.0431718
0.54073
0.0575705
0.535687
0.0704696
0.529274
0.0791406
0.521821
0.0821307
0.513536
0.0840658
0.504472
0.0875888
0.494702
0.0911484
0.484289
0.095174
0.473224
0.0997293
0.461517
0.104724
0.449172
0.110316
0.436135
0.117037
0.422291
0.125767
0.40742
0.1382
0.390884
0.15938
0.371799
0.193888
0.345807
0.286276
0.305523
0.387257
-0.167054
-0.218535
-0.137808
-0.229953
-0.101069
-0.282351
-0.0646772
-0.289027
-0.0273689
-0.300166
0.0109285
-0.310644
0.0476827
-0.30309
0.0802438
-0.277522
0.108813
-0.250199
0.133972
-0.223922
0.155465
-0.195173
0.173996
-0.170147
0.190425
-0.150093
0.205157
-0.132656
0.218628
-0.118777
0.2312
-0.107597
0.243056
-0.0985498
0.254333
-0.0913212
0.265133
-0.0857505
0.275545
-0.0812578
0.285601
-0.0777097
0.295265
-0.0743864
0.30452
-0.0705785
0.313169
-0.0639595
0.320937
-0.0549916
0.327666
-0.046373
0.333409
-0.0380498
0.338135
-0.0300699
0.34189
-0.0223635
0.344672
-0.0149615
0.346508
-0.00781623
0.347435
-0.000940223
0.347441
0.00589354
0.346511
0.0129344
0.344528
0.0208847
0.341135
0.0320242
0.335568
0.0488657
0.326303
0.0935463
0.309849
0.17202
-0.195471
0.225709
-0.245776
0.256205
-0.250446
0.290931
-0.273004
0.321126
-0.243602
0.350656
-0.236873
0.379546
-0.226058
0.405505
-0.202875
0.429434
-0.184676
0.451394
-0.164985
0.471016
-0.144599
0.488762
-0.126557
0.504749
-0.108555
0.518797
-0.0913598
0.531095
-0.0748207
0.541781
-0.0583434
0.55057
-0.0420417
0.55756
-0.0252399
0.562609
-0.00855595
0.565774
0.00892251
0.566953
0.0261661
0.566064
0.0440608
0.563358
0.0602765
0.558896
0.0749312
0.552988
0.0850487
0.545889
0.0892295
0.537774
0.0921811
0.528818
0.0965451
0.519065
0.100901
0.508513
0.105727
0.497268
0.110974
0.485282
0.11671
0.47253
0.123068
0.458976
0.130591
0.444498
0.140246
0.428871
0.153827
0.411477
0.176774
0.391782
0.213583
0.367287
0.310771
0.329773
0.424771
-0.16569
-0.248317
-0.134977
-0.260665
-0.0962775
-0.321051
-0.0580255
-0.327279
-0.0190362
-0.339155
0.0210971
-0.350778
0.0593804
-0.341373
0.0931819
-0.311324
0.122644
-0.279662
0.148442
-0.24972
0.170256
-0.216988
0.188885
-0.188775
0.205306
-0.166514
0.219947
-0.147297
0.233307
-0.132136
0.245799
-0.120089
0.257619
-0.110369
0.26892
-0.102623
0.279843
-0.0966736
0.29042
-0.0918342
0.300658
-0.0879485
0.310599
-0.0843265
0.320159
-0.0801388
0.329139
-0.0729392
0.337255
-0.0631077
0.344368
-0.0534864
0.350444
-0.0441252
0.355514
-0.03514
0.359553
-0.0264032
0.362588
-0.017996
0.364651
-0.00987916
0.365722
-0.00201149
0.365849
0.00576716
0.364975
0.0138077
0.362973
0.0228867
0.359492
0.0355058
0.353803
0.054554
0.344579
0.10277
0.328703
0.187897
-0.196103
0.22791
-0.277583
0.259985
-0.282522
0.296642
-0.309661
0.328521
-0.27548
0.359671
-0.268023
0.390036
-0.256423
0.417142
-0.229981
0.442304
-0.209838
0.465304
-0.187984
0.485871
-0.165166
0.504412
-0.145098
0.521036
-0.125179
0.535886
-0.10621
0.549033
-0.0879676
0.56031
-0.0696204
0.569878
-0.0516099
0.57759
-0.0329518
0.583429
-0.0143953
0.587256
0.00509624
0.589106
0.0243159
0.588937
0.0442296
0.586811
0.062403
0.58293
0.0788121
0.577533
0.0904456
0.570835
0.095927
0.563026
0.0999909
0.554189
0.105381
0.544408
0.110682
0.533808
0.116327
0.522347
0.122435
0.51009
0.128968
0.497008
0.136149
0.483021
0.144579
0.467992
0.155275
0.451663
0.170157
0.433461
0.194976
0.412706
0.234338
0.388524
0.334954
0.352838
0.460457
-0.164644
-0.279776
-0.132425
-0.292885
-0.0916497
-0.361826
-0.0514666
-0.367462
-0.0105125
-0.380109
0.0314865
-0.392777
0.0715333
-0.38142
0.106725
-0.346516
0.137254
-0.31019
0.163764
-0.27623
0.186043
-0.239267
0.204883
-0.207615
0.221372
-0.183003
0.235955
-0.16188
0.249217
-0.145398
0.261608
-0.13248
0.27336
-0.122122
0.284664
-0.113926
0.295614
-0.107623
0.306301
-0.102521
0.316742
-0.0983901
0.326905
-0.094489
0.336722
-0.0899557
0.34603
-0.082248
0.354498
-0.071575
0.361963
-0.060952
0.368406
-0.0505682
0.373799
-0.040533
0.378155
-0.030759
0.381452
-0.0212929
0.383715
-0.0121426
0.384982
-0.0032777
0.385216
0.00553276
0.384408
0.0146159
0.382396
0.0248982
0.378864
0.0390378
0.37304
0.0603786
0.363874
0.111936
0.348635
0.203135
-0.197054
0.230663
-0.311192
0.264499
-0.316358
0.303196
-0.348357
0.336677
-0.308962
0.369442
-0.300787
0.401394
-0.288375
0.430011
-0.258598
0.45631
-0.236138
0.480387
-0.21206
0.50186
-0.186639
0.521303
-0.164541
0.538795
-0.142671
0.554264
-0.121678
0.568035
-0.101739
0.580088
-0.0816731
0.590345
-0.0618669
0.598718
-0.0413248
0.605192
-0.0208692
0.6097
0.000587969
0.612241
0.0217744
0.612749
0.0437215
0.611287
0.0638655
0.60799
0.0821095
0.603091
0.0953441
0.596782
0.102236
0.589248
0.107525
0.580565
0.114065
0.570857
0.12039
0.560163
0.127021
0.548556
0.134042
0.536038
0.141486
0.5226
0.149587
0.508211
0.158967
0.49267
0.170816
0.475725
0.187102
0.456818
0.213883
0.435036
0.25612
0.410419
0.359571
0.375822
0.495054
-0.163958
-0.312871
-0.130009
-0.326834
-0.0871012
-0.404734
-0.0448269
-0.409736
-0.00182925
-0.423107
0.0422195
-0.436825
0.0842078
-0.423408
0.120897
-0.383204
0.152597
-0.34189
0.180009
-0.303642
0.202863
-0.262121
0.222014
-0.226767
0.238603
-0.199592
0.253194
-0.176471
0.26638
-0.158584
0.278675
-0.144776
0.290331
-0.133778
0.301582
-0.125177
0.312557
-0.118599
0.323305
-0.113269
0.333865
-0.108951
0.344208
-0.104832
0.354299
-0.100046
0.363908
-0.0918568
0.372713
-0.0803807
0.380531
-0.0687701
0.387313
-0.0573497
0.393053
-0.0462731
0.397693
-0.0353987
0.401273
-0.0248732
0.403773
-0.0146423
0.405208
-0.00471268
0.405587
0.00515336
0.404831
0.0153722
0.402836
0.0268937
0.399242
0.0426309
0.393311
0.0663102
0.384269
0.120978
0.369687
0.217717
-0.198509
0.233826
-0.34651
0.269524
-0.352055
0.310381
-0.389214
0.345719
-0.3443
0.380238
-0.335307
0.413833
-0.321969
0.443872
-0.288638
0.47151
-0.263776
0.496651
-0.2372
0.519113
-0.209102
0.539395
-0.184822
0.557627
-0.160904
0.573919
-0.13797
0.588398
-0.116218
0.601069
-0.0943439
0.611923
-0.0727209
0.620969
-0.0503707
0.628133
-0.028033
0.633302
-0.0045813
0.636415
0.0186614
0.637553
0.0425832
0.636674
0.0647449
0.633941
0.0848418
0.629591
0.0996941
0.623776
0.108051
0.616539
0.114762
0.608061
0.122542
0.598407
0.130044
0.587669
0.137759
0.575924
0.145787
0.563179
0.154231
0.549411
0.163354
0.534577
0.173801
0.518523
0.18687
0.500984
0.20464
0.481423
0.233444
0.458829
0.278715
0.433542
0.384857
0.399595
0.529002
-0.163492
-0.347888
-0.127884
-0.362442
-0.0826086
-0.450009
-0.0381447
-0.4542
0.00709866
-0.46835
0.053413
-0.48314
0.097364
-0.467359
0.135755
-0.421596
0.168754
-0.374889
0.197171
-0.332059
0.220694
-0.285645
0.240244
-0.246316
0.257058
-0.216407
0.271704
-0.191117
0.284846
-0.171726
0.297054
-0.156984
0.308613
-0.145337
0.319784
-0.136348
0.330717
-0.129531
0.3415
-0.124052
0.352143
-0.119594
0.362653
-0.115342
0.372951
-0.110344
0.382852
-0.101757
0.391973
-0.0895016
0.400129
-0.0769264
0.407253
-0.0644741
0.413302
-0.052322
0.418266
-0.0403627
0.422124
-0.0287312
0.42487
-0.0173879
0.426511
-0.00635354
0.427021
0.00464344
0.426355
0.016038
0.424364
0.0288844
0.420751
0.0462446
0.414741
0.0723199
0.405788
0.12993
0.391915
0.231591
-0.200207
0.237471
-0.383773
0.275135
-0.389719
0.318292
-0.432371
0.355521
-0.38153
0.391825
-0.37161
0.427181
-0.357326
0.458771
-0.320228
0.487725
-0.29273
0.514102
-0.263577
0.537564
-0.232564
0.558815
-0.206074
0.577836
-0.179925
0.594842
-0.154976
0.609998
-0.131374
0.623215
-0.10756
0.634753
-0.0842591
0.644422
-0.0600396
0.652179
-0.0357905
0.658001
-0.0104032
0.661779
0.0148832
0.6635
0.040863
0.663232
0.0650122
0.661076
0.0869979
0.657233
0.103538
0.651837
0.113446
0.644929
0.121671
0.636687
0.130784
0.627156
0.139575
0.616408
0.148508
0.604538
0.157657
0.591556
0.167213
0.577476
0.177435
0.562205
0.189073
0.54566
0.203414
0.527524
0.222776
0.507318
0.253651
0.483969
0.302064
0.458087
0.410739
0.424633
0.562456
-0.163411
-0.384684
-0.125757
-0.400097
-0.0781028
-0.497663
-0.0312617
-0.501041
0.0162924
-0.515904
0.0649369
-0.531784
0.111153
-0.513575
0.151328
-0.461771
0.185797
-0.409358
0.215319
-0.361581
0.239625
-0.309951
0.259648
-0.266339
0.27674
-0.233499
0.29149
-0.205867
0.304616
-0.184852
0.316764
-0.169131
0.328235
-0.156809
0.339298
-0.147411
0.350172
-0.140405
0.360951
-0.134831
0.37165
-0.130293
0.382268
-0.125961
0.392769
-0.120846
0.402922
-0.11191
0.412338
-0.0989177
0.420815
-0.0854029
0.428271
-0.0719298
0.43466
-0.0587113
0.439936
-0.0456387
0.444077
-0.0328727
0.447065
-0.020376
0.448898
-0.00818597
0.449565
0.00397604
0.44899
0.0166132
0.44703
0.0308447
0.44339
0.0498843
0.437336
0.0783735
0.42856
0.138707
0.415379
0.244771
-0.202221
0.241593
-0.423145
0.28128
-0.429407
0.326852
-0.477943
0.366038
-0.420716
0.404275
-0.409848
0.441589
-0.394639
0.474708
-0.353346
0.50511
-0.323133
0.532849
-0.291316
0.557416
-0.257132
0.579558
-0.228215
0.599431
-0.199798
0.617071
-0.172616
0.632907
-0.147211
0.64688
-0.121533
0.658987
-0.0963661
0.66926
-0.0703127
0.67759
-0.0441208
0.683902
-0.0167147
0.688252
0.0105335
0.690587
0.0385278
0.690842
0.0647564
0.689243
0.0885972
0.685925
0.106856
0.680999
0.118372
0.674498
0.128172
0.666467
0.138815
0.657074
0.148968
0.646384
0.159198
0.634422
0.169619
0.621249
0.180385
0.606847
0.191837
0.591205
0.204715
0.574145
0.220474
0.55539
0.241532
0.534529
0.274511
0.510534
0.326059
0.484078
0.437195
0.451149
0.595385
-0.163422
-0.423483
-0.123891
-0.439627
-0.0735748
-0.547979
-0.0242501
-0.550366
0.0257945
-0.565949
0.0770063
-0.582996
0.125511
-0.56208
0.167668
-0.503927
0.203658
-0.445348
0.234443
-0.392366
0.259605
-0.335112
0.280229
-0.286964
0.297675
-0.250944
0.312596
-0.220788
0.325771
-0.198026
0.33786
-0.18122
0.349233
-0.168183
0.360217
-0.158395
0.371008
-0.151196
0.381737
-0.14556
0.392452
-0.141007
0.403171
-0.13668
0.413833
-0.131508
0.424211
-0.122288
0.43392
-0.108626
0.442696
-0.0941795
0.450469
-0.079703
0.457167
-0.0654085
0.462753
-0.0512253
0.467169
-0.0372884
0.470418
-0.0236255
0.472479
-0.0102461
0.473289
0.00316532
0.472832
0.0170708
0.47092
0.0327562
0.467273
0.0535317
0.461205
0.0844414
0.452576
0.147336
0.440144
0.257204
-0.204605
0.246136
-0.464676
0.287953
-0.471223
0.336039
-0.526029
0.377294
-0.461971
0.417653
-0.450207
0.456924
-0.43391
0.491751
-0.388173
0.523714
-0.355096
0.55275
-0.320352
0.578417
-0.282799
0.601555
-0.251353
0.622308
-0.220552
0.640825
-0.191132
0.657294
-0.16368
0.671857
-0.136096
0.684549
-0.109058
0.695374
-0.0811381
0.704263
-0.0530095
0.711224
-0.0236755
0.716095
0.00566277
0.718926
0.0356965
0.719769
0.0639131
0.71867
0.0896969
0.715849
0.109676
0.711364
0.122858
0.705234
0.134301
0.697512
0.146537
0.688288
0.158191
0.677638
0.169848
0.665617
0.181641
0.652285
0.193717
0.637621
0.206501
0.621565
0.220771
0.604011
0.238028
0.584682
0.260861
0.563191
0.296002
0.538529
0.350722
0.511571
0.464153
0.479189
0.627767
-0.16364
-0.464448
-0.121962
-0.481305
-0.0689443
-0.600997
-0.0169902
-0.60232
0.0356988
-0.618638
0.0895973
-0.636895
0.1406
-0.613083
0.184828
-0.548156
0.222519
-0.483039
0.254628
-0.424475
0.280781
-0.361266
0.30205
-0.308232
0.319908
-0.268803
0.335066
-0.235947
0.348318
-0.211278
0.360403
-0.193305
0.371697
-0.179476
0.382578
-0.169276
0.393277
-0.161894
0.40395
-0.156234
0.41465
-0.151707
0.425413
-0.147443
0.436212
-0.142307
0.446818
-0.132893
0.45677
-0.118578
0.465823
-0.103233
0.473897
-0.0877763
0.480903
-0.0724151
0.486795
-0.057117
0.49151
-0.0420033
0.495016
-0.0271314
0.497274
-0.0125045
0.498279
0.0021607
0.497927
0.0174222
0.49608
0.0346035
0.492449
0.0571622
0.486385
0.0905053
0.477967
0.155754
0.466312
0.268859
-0.207202
0.250953
-0.508427
0.295101
-0.515371
0.34587
-0.576799
0.389361
-0.505461
0.431883
-0.492729
0.473189
-0.475216
0.509875
-0.424859
0.543451
-0.388672
0.57387
-0.350771
0.600773
-0.309701
0.625049
-0.275629
0.64666
-0.242163
0.665943
-0.210416
0.683145
-0.180881
0.698308
-0.151259
0.711602
-0.122352
0.722969
-0.0925043
0.732423
-0.062464
0.739852
-0.0311049
0.745282
0.000233552
0.74862
0.0323584
0.749933
0.0625999
0.749366
0.0902633
0.747024
0.112019
0.743019
0.126862
0.737261
0.14006
0.729829
0.15397
0.720802
0.167217
0.710225
0.180425
0.698195
0.193671
0.684719
0.207193
0.669807
0.221413
0.653397
0.237181
0.635371
0.256055
0.615489
0.280742
0.593328
0.318163
0.568065
0.375984
0.540649
0.491569
0.508784
0.659633
-0.164014
-0.507636
-0.120126
-0.525193
-0.0642401
-0.656883
-0.00945195
-0.657108
0.0460103
-0.6741
0.102716
-0.6936
0.156425
-0.666792
0.202837
-0.594568
0.24236
-0.522563
0.275908
-0.458022
0.303109
-0.388467
0.325113
-0.330236
0.343486
-0.287176
0.358927
-0.251388
0.372311
-0.224662
0.384428
-0.205422
0.395677
-0.190725
0.406468
-0.180067
0.417068
-0.172494
0.427653
-0.166819
0.438326
-0.16238
0.449114
-0.158231
0.460019
-0.153212
0.470792
-0.143666
0.480967
-0.128754
0.490295
-0.112561
0.498648
-0.0961294
0.505962
-0.0797294
0.512139
-0.0632935
0.51714
-0.0470041
0.520904
-0.0308958
0.523407
-0.0150078
0.524579
0.000989535
0.524348
0.0176525
0.522587
0.0363645
0.518985
0.0607644
0.512989
0.0965014
0.504774
0.163969
0.493877
0.279756
-0.210126
0.256279
-0.55458
0.302868
-0.561961
0.356324
-0.630255
0.402282
-0.551419
0.446973
-0.53742
0.490552
-0.518795
0.529088
-0.463395
0.564382
-0.423966
0.596345
-0.382733
0.624558
-0.337914
0.649819
-0.30089
0.672469
-0.264813
0.692519
-0.230466
0.710439
-0.198801
0.726337
-0.167158
0.740172
-0.136187
0.752117
-0.10445
0.762075
-0.0724222
0.770058
-0.0390873
0.775942
-0.00565005
0.779753
0.0285469
0.78159
0.0607627
0.781442
0.0904116
0.779564
0.113897
0.775974
0.130452
0.7706
0.145434
0.763492
0.161077
0.754688
0.176021
0.744266
0.190847
0.732227
0.20571
0.718641
0.22078
0.703496
0.236558
0.686747
0.25393
0.66829
0.274512
0.647825
0.301207
0.625082
0.340906
0.599217
0.401849
0.571325
0.519462
0.54
0.690958
-0.164597
-0.553165
-0.118327
-0.571463
-0.059359
-0.715851
-0.00166386
-0.714803
0.0567918
-0.732556
0.116506
-0.753315
0.172954
-0.723239
0.221793
-0.643407
0.263222
-0.563992
0.298359
-0.493159
0.32672
-0.416828
0.34955
-0.353066
0.36848
-0.306107
0.384267
-0.267175
0.397837
-0.238232
0.409998
-0.217583
0.42124
-0.201967
0.431941
-0.190768
0.442441
-0.182995
0.452937
-0.177315
0.463553
-0.172995
0.474343
-0.169022
0.485334
-0.164203
0.496263
-0.154595
0.506647
-0.139138
0.516201
-0.122114
0.524811
-0.104739
0.532391
-0.0873094
0.538866
-0.069769
0.544136
-0.0522736
0.548173
-0.0349331
0.550889
-0.0177243
0.552265
-0.000385849
0.552196
0.0177209
0.550501
0.0380601
0.546992
0.0642728
0.541058
0.102436
0.533122
0.171905
0.522997
0.289881
-0.213283
0.261965
-0.603261
0.311025
-0.611021
0.36755
-0.68678
0.415819
-0.599688
0.463034
-0.584635
0.50888
-0.564641
0.549526
-0.504042
0.586552
-0.460992
0.620099
-0.416281
0.649646
-0.367461
0.676187
-0.327432
0.699768
-0.288393
0.720761
-0.251458
0.739436
-0.217477
0.755965
-0.183687
0.770422
-0.150644
0.782885
-0.116913
0.793327
-0.0828643
0.801743
-0.0475032
0.808113
-0.0120196
0.81242
0.0242397
0.814631
0.0585516
0.814933
0.0901096
0.81351
0.11532
0.810338
0.133624
0.805385
0.150387
0.798596
0.167866
0.790017
0.184601
0.77971
0.201154
0.767729
0.21769
0.754068
0.234441
0.738726
0.251899
0.72167
0.270986
0.702786
0.293396
0.681827
0.322165
0.658493
0.36424
0.632068
0.428274
0.603747
0.547783
0.572922
0.721782
-0.165286
-0.601162
-0.116513
-0.620236
-0.0543286
-0.778035
0.00643254
-0.775564
0.0680271
-0.79415
0.130929
-0.816217
0.19038
-0.78269
0.241693
-0.69472
0.285193
-0.607492
0.321984
-0.529949
0.351609
-0.446454
0.37535
-0.376806
0.394908
-0.325665
0.411116
-0.283382
0.424919
-0.252035
0.437188
-0.229852
0.448421
-0.2132
0.459071
-0.201417
0.469476
-0.1934
0.479898
-0.187737
0.49043
-0.183527
0.501216
-0.179808
0.512255
-0.175241
0.523314
-0.165654
0.533879
-0.149703
0.543629
-0.131864
0.552496
-0.113606
0.560335
-0.0951483
0.567059
-0.0764932
0.572626
-0.0578412
0.57691
-0.0392169
0.57987
-0.020684
0.581421
-0.00193655
0.581504
0.0176372
0.579948
0.0396166
0.576509
0.0677119
0.570716
0.108229
0.563035
0.179586
0.553699
0.299217
-0.216733
0.268032
-0.65456
0.319765
-0.662754
0.379343
-0.746357
0.430335
-0.65068
0.479993
-0.634293
0.528371
-0.613018
0.571034
-0.546705
0.610015
-0.499972
0.64526
-0.451527
0.676293
-0.398493
0.704011
-0.355151
0.728746
-0.313127
0.75062
-0.273332
0.770092
-0.236949
0.787265
-0.200859
0.802362
-0.165741
0.815337
-0.129888
0.826266
-0.093794
0.835189
-0.0564261
0.84197
-0.0188001
0.846664
0.0195449
0.849306
0.0559105
0.85001
0.0894049
0.848987
0.116343
0.846233
0.136379
0.841633
0.154987
0.835164
0.174336
0.826877
0.192888
0.816743
0.211288
0.804803
0.22963
0.791085
0.248159
0.775598
0.267386
0.758272
0.288312
0.738995
0.312674
0.717553
0.343607
0.693668
0.388126
0.66672
0.455221
0.63799
0.576514
0.607618