/*--------------------------------*- C++ -*----------------------------------*\
  =========                 |
  \\      /  F ield         | OpenFOAM: The Open Source CFD Toolbox
   \\    /   O peration     | Website:  https://openfoam.org
    \\  /    A nd           | Version:  12
     \\/     M anipulation  |
\*---------------------------------------------------------------------------*/
FoamFile
{
    format      ascii;
    class       volVectorField;
    location    "313";
    object      U;
}
// * * * * * * * * * * * * * * * * * * * * * * * * * * * * * * * * * * * * * //

dimensions      [0 1 -1 0 0 0 0];

internalField   nonuniform List<vector> 
10720
(
(0.350175 28.568 1.70026e-17)
(2.17507 30.8427 -1.57706e-17)
(4.44468 33.0278 0)
(7.0397 34.7026 -4.12594e-16)
(9.89641 35.9626 4.62208e-16)
(12.9477 36.7653 3.33368e-16)
(16.036 37.0072 4.56305e-16)
(19.0679 36.7307 0)
(21.9654 35.9995 0)
(24.6508 34.853 0)
(27.0957 33.3731 1.17538e-16)
(29.2885 31.651 0)
(31.1996 29.7065 2.37394e-15)
(32.8246 27.5773 0)
(34.1526 25.2938 0)
(35.1961 22.9028 0)
(35.943 20.424 -4.0019e-15)
(36.3971 17.9096 -5.98256e-15)
(36.5397 15.3836 5.32264e-15)
(36.3817 12.906 0)
(35.9055 10.513 4.3763e-15)
(35.1475 8.27774 -8.57454e-15)
(34.1551 6.25164 4.2702e-15)
(33.038 4.49798 -1.28066e-16)
(31.9949 3.06454 0)
(31.111 1.8987 1.69362e-15)
(30.2901 0.912217 2.62066e-17)
(29.4333 0.063576 -7.42055e-16)
(28.5037 -0.670014 -2.70904e-15)
(27.4976 -1.30329 -9.83503e-15)
(26.4183 -1.84289 4.38363e-15)
(25.2694 -2.29216 7.99286e-15)
(24.0488 -2.65214 6.89535e-15)
(22.7481 -2.92338 2.35696e-14)
(21.3203 -3.10164 -9.53683e-15)
(19.7285 -3.18508 -6.74668e-17)
(17.6714 -3.12172 2.20835e-17)
(15.2492 -2.89803 3.96665e-15)
(9.82991 -2.32954 1.36703e-14)
(-1.10595 26.1284 1.11802e-18)
(-2.29646 23.3687 -8.49862e-18)
(-3.15267 20.2536 4.56532e-17)
(-3.53856 16.629 -1.36697e-16)
(-3.29899 12.8755 -4.69898e-16)
(-2.38766 9.1248 8.40493e-16)
(-0.864787 5.65382 4.18888e-15)
(1.03154 2.75735 2.56764e-15)
(3.01383 0.384864 0)
(5.21748 -1.68951 0)
(7.49967 -3.25675 2.08542e-15)
(9.62325 -4.27847 7.61424e-16)
(11.5099 -4.87496 -1.26772e-15)
(13.164 -5.17332 1.04405e-15)
(14.6101 -5.27532 1.72274e-15)
(15.8802 -5.24681 1.1104e-15)
(17.0049 -5.13704 1.41739e-15)
(18.0162 -4.97603 9.41005e-16)
(18.9451 -4.78445 0)
(19.814 -4.56584 0)
(20.6411 -4.32207 -1.29982e-15)
(21.4377 -4.04308 -5.99036e-17)
(22.2058 -3.71367 8.82019e-16)
(22.9155 -3.3031 -6.14816e-16)
(23.5007 -2.80608 2.36266e-17)
(23.943 -2.25996 0)
(24.268 -1.69099 1.0465e-16)
(24.4918 -1.11511 0)
(24.6206 -0.543582 0)
(24.6535 0.0121365 1.99199e-17)
(24.5677 0.54385 0)
(24.3768 1.04465 5.13146e-18)
(24.0997 1.50856 -4.93116e-17)
(23.7515 1.93012 -5.89718e-16)
(23.3268 2.30546 5.45458e-16)
(22.8157 2.63523 -2.76199e-18)
(22.0926 2.91169 0)
(21.0888 3.09641 5.1745e-15)
(18.2551 3.23107 9.24146e-15)
(7.07955 24.8195 -5.48772e-18)
(9.0112 26.5581 -2.75499e-18)
(11.3597 28.1287 0)
(14.056 29.4274 0)
(16.9507 30.3941 -1.35678e-16)
(20.0481 30.9686 -3.19528e-16)
(23.2299 31.1066 0)
(26.3606 30.8312 0)
(29.3843 30.1542 6.74221e-16)
(32.2122 29.1269 0)
(34.7902 27.8104 2.47316e-15)
(37.0881 26.2526 0)
(39.1007 24.5361 8.82908e-16)
(40.835 22.7138 -8.69842e-16)
(42.2961 20.8052 1.74946e-15)
(43.4529 18.8391 -3.49793e-15)
(44.3047 16.8279 3.74312e-15)
(44.8412 14.7968 3.42525e-15)
(45.0629 12.7544 3.35437e-15)
(44.9525 10.7319 2.03838e-16)
(44.5109 8.75544 -3.50233e-15)
(43.7299 6.87997 3.32572e-15)
(42.6353 5.14716 -1.87632e-16)
(41.2634 3.61477 0)
(39.7234 2.33444 0)
(38.1634 1.25247 0)
(36.641 0.291268 1.41313e-16)
(35.1475 -0.559154 -3.15694e-17)
(33.684 -1.30137 1.98567e-15)
(32.2454 -1.94195 3.76491e-17)
(30.8159 -2.48364 -2.98239e-17)
(29.3778 -2.92898 -8.7178e-17)
(27.9123 -3.28032 4.74702e-15)
(26.4042 -3.54005 -7.96743e-15)
(24.8135 -3.70814 -4.33007e-17)
(23.1215 -3.78565 -9.22717e-15)
(21.0698 -3.7322 0)
(18.878 -3.54737 -1.14769e-15)
(13.5895 -2.7874 7.24527e-15)
(5.44197 22.9647 6.96674e-18)
(4.01582 20.899 -3.9163e-17)
(2.75496 18.4777 -4.93646e-16)
(1.7873 15.7238 6.07511e-16)
(1.28901 12.7322 0)
(1.34656 9.63555 -1.31247e-15)
(1.98927 6.62845 -9.4019e-16)
(3.14449 3.93671 -7.34439e-15)
(4.63412 1.59135 2.3706e-15)
(6.37132 -0.363766 -1.79185e-15)
(8.2458 -1.80171 2.25169e-15)
(10.0949 -2.763 -6.40678e-16)
(11.8296 -3.36552 0)
(13.4171 -3.70911 -4.27841e-16)
(14.8491 -3.87664 5.24799e-17)
(16.136 -3.92159 -9.54339e-16)
(17.2933 -3.88914 0)
(18.3438 -3.80507 0)
(19.3114 -3.68773 -9.87614e-17)
(20.2184 -3.53503 9.4864e-17)
(21.0803 -3.34538 -1.12264e-15)
(21.9093 -3.10245 -1.21289e-16)
(22.7071 -2.78649 5.3282e-17)
(23.4507 -2.36092 5.9384e-16)
(24.0862 -1.8386 -4.21101e-16)
(24.5888 -1.28631 -3.1035e-16)
(24.9745 -0.732849 0)
(25.256 -0.189337 0)
(25.4369 0.337813 0)
(25.5221 0.839761 8.55029e-18)
(25.5412 1.30889 0)
(25.4903 1.7422 0)
(25.3589 2.13859 1.22687e-16)
(25.1406 2.49708 2.18701e-16)
(24.827 2.8194 -4.42205e-16)
(24.427 3.11094 8.13376e-16)
(23.8392 3.36961 -2.50018e-15)
(23.2493 3.58912 -3.96379e-15)
(21.1553 3.62534 -6.22284e-15)
(8.36055 22.8475 -9.75216e-19)
(9.7656 24.3709 1.99031e-17)
(11.4682 25.8471 -1.62661e-17)
(13.4209 27.2014 -4.377e-17)
(15.5683 28.3153 -1.78226e-16)
(17.9109 29.1642 6.15667e-16)
(20.3736 29.7082 -4.30458e-16)
(22.88 29.9107 -5.0241e-16)
(25.3752 29.7704 4.39497e-18)
(27.801 29.2993 -6.5191e-16)
(30.1057 28.5192 6.04236e-16)
(32.2575 27.4596 -1.56842e-15)
(34.2293 26.1519 -7.4841e-16)
(36.0072 24.6249 0)
(37.5747 22.9142 -1.79031e-15)
(38.9462 21.0448 3.59636e-15)
(40.1265 19.0372 0)
(41.096 16.9352 -6.80844e-15)
(41.8449 14.7685 -3.40369e-15)
(42.3454 12.5894 3.96821e-16)
(42.5851 10.4358 -3.9324e-16)
(42.5425 8.37562 -1.78254e-16)
(42.219 6.45813 -2.53317e-15)
(41.6226 4.74595 1.27274e-15)
(40.8046 3.28413 0)
(39.8425 2.01662 1.11181e-15)
(38.7578 0.874472 -1.31322e-16)
(37.5447 -0.142457 0)
(36.2211 -1.03104 1.74589e-15)
(34.8143 -1.79565 3.24082e-15)
(33.3451 -2.43915 -5.71364e-15)
(31.8272 -2.96555 -4.91816e-15)
(30.2632 -3.37998 -1.05671e-16)
(28.649 -3.68718 -6.98977e-15)
(26.9501 -3.88949 -5.60619e-15)
(25.1484 -3.98656 8.04689e-15)
(23.002 -3.94538 0)
(20.7342 -3.72223 -8.98671e-16)
(15.8599 -3.03331 -1.10356e-14)
(7.20562 21.2389 -1.24607e-17)
(6.18785 19.4757 -5.00983e-17)
(5.32692 17.3958 1.94564e-16)
(4.62691 15.0609 0)
(4.23697 12.5504 3.80307e-16)
(4.20693 9.92987 0)
(4.567 7.32606 2.69986e-15)
(5.30344 4.90473 1.63495e-15)
(6.36699 2.74757 1.54211e-15)
(7.69961 0.909378 0)
(9.1858 -0.555094 -2.26312e-15)
(10.7084 -1.65885 -4.85072e-16)
(12.1918 -2.45819 2.19458e-15)
(13.5951 -3.01139 0)
(14.8988 -3.37107 -1.02186e-15)
(16.1 -3.58202 -3.08535e-16)
(17.2043 -3.68341 1.27324e-15)
(18.2244 -3.70254 6.59907e-16)
(19.1768 -3.65883 1.81564e-16)
(20.0783 -3.55847 -9.84285e-17)
(20.941 -3.40457 1.02321e-15)
(21.7738 -3.18914 0)
(22.5769 -2.89908 0)
(23.3307 -2.51268 2.32878e-17)
(23.9919 -2.04323 0)
(24.5367 -1.539 6.42291e-16)
(24.9756 -1.01944 -8.451e-18)
(25.3198 -0.492427 -4.05428e-17)
(25.5731 0.0342566 0)
(25.7369 0.550505 -2.53611e-17)
(25.8164 1.04886 3.86946e-17)
(25.8172 1.52289 0)
(25.7413 1.96661 -8.14117e-17)
(25.5889 2.37479 0)
(25.348 2.74556 0)
(25.0175 3.07961 3.87658e-17)
(24.4859 3.37599 -5.22252e-17)
(23.8738 3.59326 3.96143e-15)
(21.9993 3.62997 1.20405e-14)
(10.9047 20.9352 -9.9812e-18)
(12.2017 22.2352 -6.28329e-18)
(13.7521 23.4978 -7.1298e-18)
(15.5308 24.649 -1.19025e-17)
(17.4881 25.598 0)
(19.6303 26.3263 0)
(21.8998 26.791 -7.18411e-16)
(24.2342 26.9577 8.58622e-16)
(26.5862 26.8201 0)
(28.9001 26.3814 -1.03538e-15)
(31.124 25.6566 -1.30962e-15)
(33.2198 24.6692 -1.23658e-15)
(35.1532 23.4498 1.47231e-15)
(36.8972 22.0319 1.38774e-15)
(38.433 20.4489 0)
(39.7453 18.735 2.2e-15)
(40.8061 16.9324 7.61559e-16)
(41.606 15.0736 6.13836e-15)
(42.1428 13.1846 3.71791e-16)
(42.4217 11.2941 -3.68674e-16)
(42.4507 9.43345 3.11568e-15)
(42.245 7.64701 -5.10199e-16)
(41.8325 5.97556 2.77748e-15)
(41.2491 4.46359 1.15928e-15)
(40.5507 3.14284 -6.86197e-17)
(39.7943 1.97603 -1.00585e-15)
(38.9829 0.908546 7.42496e-18)
(38.0835 -0.0640022 -7.44889e-18)
(37.077 -0.937982 -1.67261e-15)
(35.9571 -1.71382 -4.42795e-17)
(34.7216 -2.38771 2.79278e-15)
(33.3735 -2.95535 -4.75216e-15)
(31.9174 -3.41408 -3.83771e-15)
(30.3585 -3.76252 -1.89212e-18)
(28.6751 -3.99903 5.09955e-15)
(26.858 -4.11797 0)
(24.6879 -4.08992 4.19212e-15)
(22.3511 -3.82467 7.78388e-16)
(17.7267 -3.17725 4.60265e-15)
(9.80981 19.5726 -2.52381e-17)
(8.82362 18.0915 6.4891e-17)
(7.95246 16.3425 2.92503e-16)
(7.21631 14.3633 0)
(6.74273 12.2259 -3.39543e-16)
(6.5704 9.97351 0)
(6.72545 7.7042 -2.17159e-15)
(7.19616 5.55067 -1.014e-16)
(7.95273 3.5832 1.12576e-15)
(8.95737 1.85378 1.00292e-15)
(10.1262 0.415523 3.61194e-17)
(11.3763 -0.721308 1.69212e-15)
(12.6456 -1.58529 -1.10034e-15)
(13.8896 -2.21639 3.48717e-16)
(15.0805 -2.65449 1.19005e-15)
(16.2052 -2.93918 1.31015e-15)
(17.2598 -3.10497 -1.17434e-15)
(18.2479 -3.17928 5.3274e-18)
(19.1788 -3.18215 0)
(20.0637 -3.12326 1.2214e-15)
(20.912 -3.00617 5.98315e-17)
(21.7298 -2.82566 -9.18551e-16)
(22.5164 -2.57098 0)
(23.2554 -2.22549 2.20578e-17)
(23.9106 -1.79643 0)
(24.4588 -1.32224 -3.01778e-16)
(24.9059 -0.82576 0)
(25.2619 -0.318802 3.8044e-17)
(25.5307 0.188507 -1.2067e-18)
(25.7147 0.685677 6.81778e-19)
(25.8182 1.1637 -3.50644e-17)
(25.8465 1.61502 -1.14867e-18)
(25.8027 2.03555 0)
(25.6887 2.42273 1.87256e-16)
(25.4949 2.77662 3.46131e-18)
(25.2204 3.09719 -8.20477e-16)
(24.7591 3.385 5.0782e-15)
(24.2009 3.57139 1.21143e-17)
(22.5051 3.59727 0)
(12.4705 19.4726 -1.43133e-17)
(13.5719 20.6237 -3.326e-19)
(14.8952 21.7636 -1.19202e-17)
(16.4055 22.8289 1.67456e-16)
(18.0604 23.7364 -5.65095e-17)
(19.8815 24.4804 -1.96754e-16)
(21.8215 25.0208 3.09991e-16)
(23.832 25.322 0)
(25.8828 25.3732 1.20133e-15)
(27.9272 25.1674 5.57834e-16)
(29.9242 24.7056 0)
(31.84 23.9981 1.18849e-15)
(33.6409 23.0617 -6.2553e-16)
(35.2991 21.9157 1.73931e-15)
(36.7925 20.5828 0)
(38.1002 19.0865 -2.88596e-15)
(39.2102 17.4442 2.74069e-15)
(40.1127 15.6771 -1.68114e-16)
(40.7925 13.8176 0)
(41.2342 11.9101 2.96371e-15)
(41.4281 10.0004 -2.99102e-15)
(41.3734 8.1465 -1.52577e-16)
(41.0879 6.40159 -2.32348e-15)
(40.6071 4.81749 -2.13271e-15)
(39.9913 3.42998 0)
(39.3073 2.21182 0)
(38.5805 1.11118 -2.3041e-16)
(37.7996 0.1147 -2.5798e-17)
(36.9553 -0.779363 1.5908e-15)
(36.0411 -1.57564 -4.22259e-17)
(35.0439 -2.27453 4.216e-17)
(33.947 -2.87364 4.44929e-15)
(32.7319 -3.36974 0)
(31.3835 -3.7585 1.23979e-14)
(29.8692 -4.0342 -4.26943e-17)
(28.176 -4.18469 0)
(26.102 -4.18083 -3.21993e-17)
(23.8079 -3.89479 0)
(19.4037 -3.26622 -3.91202e-15)
(11.5351 18.2724 2.38263e-17)
(10.69 16.9804 -1.55661e-16)
(9.92285 15.454 1.72104e-16)
(9.24643 13.7285 2.76897e-16)
(8.77369 11.8708 -1.09218e-15)
(8.53388 9.90367 -1.41615e-15)
(8.55822 7.90211 1.74165e-15)
(8.84567 5.97511 -1.93006e-15)
(9.38173 4.18747 -8.70509e-16)
(10.1415 2.5855 -7.74713e-16)
(11.0632 1.21226 1.49415e-15)
(12.0854 0.0837555 -1.43659e-15)
(13.1592 -0.81504 -6.30125e-16)
(14.2444 -1.50962 6.13008e-16)
(15.3117 -2.02563 -1.33357e-15)
(16.3439 -2.39296 2.4404e-16)
(17.3317 -2.63824 0)
(18.2725 -2.7842 -9.2974e-16)
(19.1697 -2.84826 3.29019e-16)
(20.0294 -2.8409 -1.27783e-15)
(20.8578 -2.76638 0)
(21.6581 -2.6221 7.96012e-16)
(22.4284 -2.40053 6.26405e-16)
(23.1539 -2.09079 -4.76722e-16)
(23.8037 -1.6988 0)
(24.3552 -1.25653 -3.18731e-16)
(24.8098 -0.787699 0)
(25.1752 -0.304334 0)
(25.4549 0.183874 0)
(25.6511 0.666612 4.07428e-17)
(25.7676 1.13479 0)
(25.8093 1.58162 0)
(25.7795 2.00191 -1.65835e-16)
(25.6809 2.39135 -1.77747e-16)
(25.5053 2.74822 0)
(25.2535 3.07014 -8.51491e-16)
(24.8281 3.35706 6.27168e-17)
(24.3172 3.52606 0)
(22.8122 3.5392 -5.2285e-15)
(13.9559 18.1922 1.70489e-17)
(14.9533 19.2119 -1.21356e-17)
(16.1471 20.2282 0)
(17.5045 21.182 8.05969e-18)
(18.9845 22 -1.35741e-16)
(20.6175 22.6821 1.85534e-16)
(22.362 23.1904 4.55035e-17)
(24.1791 23.4929 -7.72558e-16)
(26.0477 23.5766 -9.34304e-17)
(27.9291 23.4308 1.14582e-15)
(29.7875 23.0516 -4.08412e-16)
(31.5932 22.4426 9.18511e-16)
(33.3125 21.6139 4.59316e-16)
(34.9165 20.5794 3.32873e-16)
(36.3794 19.3578 0)
(37.6777 17.9707 -6.26205e-16)
(38.7902 16.4441 -1.38077e-15)
(39.6924 14.8153 -5.10546e-15)
(40.3673 13.1182 1.5052e-15)
(40.8058 11.3838 -1.91046e-15)
(41.0034 9.6468 -2.99258e-16)
(40.9641 7.94865 0)
(40.7043 6.33253 2.08047e-15)
(40.2553 4.84116 1.32524e-16)
(39.668 3.50716 -5.91598e-17)
(39.0002 2.31762 -8.24206e-16)
(38.2805 1.23479 1.90044e-16)
(37.5086 0.248069 3.97631e-16)
(36.6851 -0.64144 -1.48798e-15)
(35.8151 -1.43668 -7.9479e-17)
(34.8978 -2.13923 2.53362e-15)
(33.9249 -2.74838 4.11536e-15)
(32.8794 -3.26242 0)
(31.7373 -3.67744 -1.86495e-17)
(30.4492 -3.98632 -4.64267e-15)
(28.9825 -4.17136 0)
(27.127 -4.20104 -7.42227e-15)
(25.0223 -3.91614 0)
(20.9138 -3.31848 3.54766e-15)
(13.1004 17.1329 -2.40477e-17)
(12.3238 15.9999 6.35883e-17)
(11.6047 14.6582 0)
(10.9567 13.1381 0)
(10.4797 11.5026 4.69582e-16)
(10.1937 9.76464 2.34887e-15)
(10.128 7.98191 0)
(10.2875 6.24771 -1.41226e-15)
(10.664 4.62339 -1.35676e-15)
(11.2384 3.14616 1.36505e-15)
(11.9655 1.85047 -5.51229e-17)
(12.799 0.755093 5.96014e-16)
(13.7021 -0.146992 2.93181e-17)
(14.6414 -0.871318 1.57747e-15)
(15.5893 -1.43342 1.41643e-15)
(16.5278 -1.85469 -1.33001e-15)
(17.4447 -2.15527 1.87455e-16)
(18.333 -2.35369 -3.4859e-16)
(19.1913 -2.46497 1.61371e-16)
(20.0214 -2.49935 9.38831e-16)
(20.8259 -2.46174 1.21548e-16)
(21.6056 -2.35152 -8.83388e-17)
(22.3571 -2.16333 -5.33997e-16)
(23.0669 -1.88991 0)
(23.7082 -1.53611 2.2347e-17)
(24.2593 -1.12789 5.93023e-16)
(24.718 -0.687949 -3.16752e-18)
(25.0898 -0.228747 3.14142e-18)
(25.3774 0.239527 0)
(25.5825 0.705939 -3.82644e-17)
(25.7084 1.16079 0)
(25.7596 1.59622 0)
(25.7392 2.00632 1.52637e-16)
(25.6498 2.3866 2.21563e-16)
(25.4835 2.73508 0)
(25.2414 3.04781 7.92596e-16)
(24.8323 3.32426 -4.71035e-15)
(24.3411 3.46973 2.17945e-17)
(22.9906 3.45995 4.7824e-15)
(15.1634 17.1038 -3.0854e-19)
(16.0613 18.0187 -1.18993e-17)
(17.1357 18.9381 -3.27055e-18)
(18.3522 19.8066 3.18814e-18)
(19.67 20.5587 9.13866e-17)
(21.1255 21.2 0)
(22.681 21.6971 -3.50036e-16)
(24.3035 22.0205 9.38229e-18)
(25.9806 22.1587 -3.45377e-16)
(27.6795 22.0995 -6.97159e-16)
(29.3715 21.8354 0)
(31.0324 21.3652 -1.67129e-15)
(32.6317 20.6927 -1.43051e-15)
(34.1422 19.8254 -3.47164e-15)
(35.5388 18.7757 0)
(36.7963 17.5601 -2.1307e-15)
(37.8915 16.1989 -2.23049e-15)
(38.8061 14.7115 2.40943e-15)
(39.5233 13.1224 -2.36846e-15)
(40.0275 11.4658 2.19253e-15)
(40.3082 9.78106 2.69024e-16)
(40.3621 8.11619 -2.31597e-15)
(40.1985 6.51936 0)
(39.8417 5.03541 -1.98432e-15)
(39.3337 3.69671 1.16357e-16)
(38.7244 2.49675 8.63231e-16)
(38.0436 1.40503 0)
(37.2965 0.41046 -2.95582e-17)
(36.4872 -0.486152 6.33478e-17)
(35.6252 -1.28735 2.43484e-15)
(34.7171 -1.99508 -2.25696e-15)
(33.7659 -2.60952 -3.92032e-15)
(32.7681 -3.13035 3.32386e-15)
(31.7144 -3.55599 -6.13885e-17)
(30.5669 -3.8815 4.45147e-15)
(29.2979 -4.08939 6.22294e-15)
(27.6962 -4.14878 3.60627e-15)
(25.893 -3.87687 -1.14679e-17)
(22.2071 -3.32822 -3.56034e-18)
(14.3875 16.1554 9.76859e-18)
(13.6801 15.1474 1.25182e-16)
(13.0128 13.9517 1.72548e-16)
(12.3985 12.5955 -3.22692e-16)
(11.9277 11.1389 -1.29054e-15)
(11.6154 9.58731 4.25038e-16)
(11.4883 7.98542 1.11004e-15)
(11.5566 6.416 2.90073e-15)
(11.8156 4.93743 1.17285e-15)
(12.249 3.57775 -1.10025e-15)
(12.8233 2.36521 -3.81415e-17)
(13.5029 1.31834 -5.34215e-16)
(14.2601 0.433383 0)
(15.068 -0.299156 -2.59776e-17)
(15.9028 -0.888159 -8.72909e-16)
(16.7477 -1.34846 3.81784e-16)
(17.5899 -1.69436 -3.74322e-16)
(18.4198 -1.93954 0)
(19.2329 -2.09577 5.68857e-16)
(20.0276 -2.17183 -9.93832e-16)
(20.8034 -2.17216 0)
(21.5589 -2.09705 7.30071e-16)
(22.2895 -1.94296 0)
(22.9821 -1.70533 -2.78766e-17)
(23.6134 -1.38858 2.75864e-17)
(24.1622 -1.01397 -2.8983e-16)
(24.6238 -0.602724 -5.23709e-18)
(25.0012 -0.167892 -3.19983e-18)
(25.2963 0.279879 8.54096e-19)
(25.51 0.729407 -4.88812e-17)
(25.6452 1.17056 -7.09793e-17)
(25.7057 1.5952 1.10144e-16)
(25.6943 1.997 3.10399e-18)
(25.6132 2.37067 2.58871e-17)
(25.4548 2.71333 0)
(25.2198 3.0189 1.50875e-17)
(24.8226 3.28574 2.17781e-15)
(24.3422 3.40933 -1.04575e-17)
(23.1087 3.37314 4.37482e-15)
(16.2202 16.1463 3.66347e-18)
(17.0432 16.9716 1.77634e-17)
(18.0264 17.8047 0)
(19.1355 18.5935 -2.54139e-17)
(20.3299 19.2791 3.88641e-17)
(21.6485 19.8708 0)
(23.0574 20.3377 -1.30218e-16)
(24.5277 20.654 1.00623e-15)
(26.0524 20.809 -1.38338e-15)
(27.6045 20.7903 4.41412e-16)
(29.1602 20.5889 5.9396e-16)
(30.7 20.2006 2.13019e-15)
(32.1975 19.6249 1.51972e-15)
(33.6273 18.8647 1.80522e-15)
(34.965 17.9279 4.75262e-16)
(36.1852 16.8265 1.56699e-15)
(37.264 15.5767 2.14285e-15)
(38.179 14.2001 2.06555e-15)
(38.9082 12.727 -1.51702e-15)
(39.4354 11.1881 -4.63702e-15)
(39.7503 9.61772 0)
(39.8502 8.05532 8.49865e-17)
(39.7433 6.54281 1.80301e-15)
(39.4505 5.12008 1.88878e-15)
(39.0067 3.81732 -1.07241e-16)
(38.4532 2.63532 -7.79281e-16)
(37.8179 1.55322 5.58429e-18)
(37.1083 0.562588 -3.95627e-16)
(36.3284 -0.334427 4.16289e-17)
(35.4865 -1.13836 -4.56887e-15)
(34.59 -1.85002 -7.73316e-18)
(33.644 -2.46872 -6.16535e-17)
(32.6504 -2.99363 -3.19696e-15)
(31.6102 -3.42314 -6.10856e-17)
(30.5018 -3.75347 -4.15768e-15)
(29.3216 -3.96846 -1.18988e-14)
(27.8901 -4.04275 3.41607e-15)
(26.3821 -3.78067 6.59586e-16)
(23.2169 -3.28845 2.84802e-15)
(15.5042 15.2925 -4.51766e-17)
(14.8496 14.3887 -1.70814e-16)
(14.2231 13.3146 -1.25304e-16)
(13.6375 12.0944 -3.20129e-16)
(13.1751 10.7856 7.21646e-16)
(12.8473 9.38865 -5.23015e-17)
(12.6783 7.93864 -2.85024e-15)
(12.6806 6.51116 -1.00042e-15)
(12.8516 5.16136 1.37119e-17)
(13.1772 3.90962 0)
(13.6312 2.77975 -9.42739e-16)
(14.1856 1.78884 8.82084e-16)
(14.8192 0.934163 -8.5193e-16)
(15.5112 0.209474 -4.37183e-16)
(16.2419 -0.389808 3.66551e-16)
(16.9969 -0.8738 3.64144e-16)
(17.7638 -1.25184 1.31124e-15)
(18.5325 -1.53326 -3.10658e-16)
(19.2965 -1.72669 -5.31422e-16)
(20.0518 -1.83907 0)
(20.7954 -1.87406 -8.1107e-16)
(21.5238 -1.8323 -6.05993e-16)
(22.2313 -1.71135 -1.19549e-17)
(22.9053 -1.50858 -6.5623e-17)
(23.5245 -1.22811 -2.17539e-17)
(24.0688 -0.887144 3.33282e-16)
(24.5313 -0.505282 -6.54733e-18)
(24.9127 -0.0958299 5.28762e-17)
(25.214 0.330302 9.5723e-18)
(25.4355 0.76182 4.48017e-17)
(25.5793 1.18825 -1.02007e-17)
(25.6487 1.60096 -2.38207e-16)
(25.6461 1.993 -2.22204e-16)
(25.5733 2.35842 -2.20229e-16)
(25.4227 2.69358 -9.42685e-18)
(25.195 2.99054 5.24439e-18)
(24.8095 3.24628 -2.18472e-15)
(24.3409 3.34907 -3.03186e-15)
(23.2051 3.28703 -4.02184e-15)
(17.134 15.2994 -1.11878e-17)
(17.8926 16.0484 -6.22422e-18)
(18.7978 16.8072 -7.52361e-18)
(19.815 17.5275 -4.48498e-17)
(20.904 18.1548 7.19381e-17)
(22.1049 18.7017 -1.58381e-16)
(23.3863 19.1403 4.95619e-16)
(24.7222 19.4472 0)
(26.1101 19.6143 4.22249e-16)
(27.5264 19.6294 1.06729e-17)
(28.9521 19.4832 -5.10243e-16)
(30.3723 19.17 -1.96436e-15)
(31.7638 18.6868 -7.93993e-16)
(33.1045 18.0332 0)
(34.3717 17.2132 0)
(35.5411 16.2347 0)
(36.5885 15.1106 0)
(37.4914 13.8583 -2.00158e-15)
(38.2294 12.4983 1.98502e-15)
(38.7842 11.0584 1.94151e-15)
(39.1427 9.57175 -1.5615e-15)
(39.2989 8.07794 1.36845e-15)
(39.2567 6.61896 -1.40992e-15)
(39.0328 5.23462 -1.03148e-16)
(38.6558 3.95451 -4.69293e-17)
(38.161 2.78337 7.89018e-16)
(37.575 1.70692 1.69771e-16)
(36.9081 0.718497 0)
(36.1655 -0.179459 0)
(35.3549 -0.986236 3.83223e-17)
(34.4829 -1.70197 0)
(33.554 -2.32532 3.40465e-15)
(32.5699 -2.8547 -3.026e-15)
(31.533 -3.28757 -4.88451e-15)
(30.4275 -3.61982 7.76281e-15)
(29.264 -3.83403 5.66992e-15)
(27.8957 -3.91003 -3.26373e-15)
(26.5656 -3.644 -1.28225e-15)
(23.9161 -3.19732 -2.7311e-15)
(16.4701 14.5253 0)
(15.8613 13.7088 4.77426e-17)
(15.2715 12.7366 2.38911e-16)
(14.713 11.6305 -1.03468e-15)
(14.2618 10.4461 9.11977e-16)
(13.9257 9.1793 -7.46932e-16)
(13.7281 7.85842 6.76195e-18)
(13.6823 6.55412 7.5886e-16)
(13.7868 5.31797 8.08033e-16)
(14.0291 4.16459 0)
(14.388 3.1141 3.91261e-16)
(14.8406 2.18208 -1.19653e-15)
(15.3707 1.36565 1.90124e-15)
(15.9618 0.660106 3.47191e-16)
(16.5983 0.0629961 -7.07359e-16)
(17.2687 -0.432352 -6.59766e-16)
(17.962 -0.831694 -6.07399e-16)
(18.6683 -1.14082 0)
(19.3805 -1.36529 0)
(20.0931 -1.50988 0)
(20.8011 -1.57715 7.62368e-16)
(21.4997 -1.56747 0)
(22.182 -1.479 -4.93506e-16)
(22.8356 -1.31034 -6.32237e-17)
(23.441 -1.06517 -3.82947e-16)
(23.9788 -0.757598 -2.95628e-16)
(24.4403 -0.405334 0)
(24.8244 -0.0216997 -4.41278e-17)
(25.1309 0.382255 -1.01654e-17)
(25.3594 0.795148 1.90007e-18)
(25.5114 1.20623 1.58525e-16)
(25.5894 1.60642 -1.74959e-17)
(25.5955 1.98831 2.15822e-16)
(25.531 2.34523 -2.56561e-16)
(25.3885 2.67268 0)
(25.1684 2.96091 -1.44511e-17)
(24.7952 3.2053 -3.34642e-17)
(24.3404 3.28919 2.88269e-15)
(23.2945 3.20322 -2.41728e-17)
(17.9374 14.5404 1.36988e-17)
(18.642 15.223 0)
(19.4817 15.9165 3.65188e-17)
(20.4218 16.5752 -1.89757e-18)
(21.423 17.1491 -4.09403e-17)
(22.5254 17.6526 1.48715e-16)
(23.6995 18.0602 -2.19155e-16)
(24.9216 18.3516 -2.60058e-16)
(26.192 18.5198 0)
(27.4904 18.5537 -4.41715e-16)
(28.8014 18.4444 -4.70775e-16)
(30.1137 18.1854 4.67272e-16)
(31.4073 17.7723 1.73556e-15)
(32.6636 17.202 6.92048e-16)
(33.8621 16.4754 -2.09238e-15)
(34.9795 15.5975 -1.503e-15)
(35.9928 14.5772 1.18091e-15)
(36.8793 13.4286 8.69539e-16)
(37.6176 12.1714 -4.34559e-16)
(38.1876 10.8319 4.32744e-16)
(38.5751 9.44015 1.09798e-15)
(38.7727 8.03119 2.04312e-16)
(38.7822 6.64307 -1.91825e-16)
(38.6164 5.31271 -1.27593e-15)
(38.2987 4.06822 0)
(37.8582 2.9176 -6.68705e-16)
(37.3195 1.85315 -3.19226e-16)
(36.6945 0.871251 -2.94472e-16)
(35.9898 -0.0246566 -1.08929e-15)
(35.2129 -0.832379 4.07847e-15)
(34.3705 -1.55101 1.67969e-15)
(33.4667 -2.17852 3.89554e-18)
(32.5025 -2.71244 3.8971e-17)
(31.4791 -3.14918 0)
(30.3805 -3.48368 -3.66828e-15)
(29.2193 -3.6961 0)
(27.8654 -3.76949 0)
(26.5879 -3.49 6.19079e-16)
(24.3477 -3.06546 4.36068e-18)
(17.3175 13.8352 -4.64046e-17)
(16.7479 13.0933 1.60532e-16)
(16.19 12.2084 1.0637e-17)
(15.6564 11.2001 2.30161e-16)
(15.2175 10.1217 -8.37287e-16)
(14.8782 8.96595 6.29463e-16)
(14.6611 7.75627 3.62626e-17)
(14.5802 6.5599 -6.33486e-16)
(14.6339 5.42406 -6.24344e-16)
(14.8115 4.35955 -6.67539e-16)
(15.0946 3.38377 -1.33112e-15)
(15.4645 2.51067 0)
(15.908 1.73664 -6.87146e-16)
(16.4122 1.05748 -2.45596e-17)
(16.9649 0.471987 0)
(17.5571 -0.0246877 -5.82524e-16)
(18.1798 -0.435623 -2.77875e-16)
(18.8243 -0.764001 -2.62306e-16)
(19.4834 -1.01286 9.08755e-16)
(20.151 -1.18479 8.13703e-16)
(20.821 -1.28088 -8.48974e-17)
(21.4874 -1.30105 6.33564e-16)
(22.1425 -1.24366 1.27023e-16)
(22.7743 -1.10778 -6.07789e-17)
(23.364 -0.896754 3.4181e-16)
(23.8933 -0.622147 2.09034e-17)
(24.352 -0.299636 0)
(24.7373 0.0577338 0)
(25.0478 0.43884 -1.988e-18)
(25.2826 0.832327 5.05195e-18)
(25.4421 1.22724 -1.73798e-16)
(25.5285 1.61411 -1.704e-17)
(25.543 1.98508 2.72931e-16)
(25.4868 2.33272 2.45727e-16)
(25.3526 2.65176 1.09624e-17)
(25.1405 2.93073 3.62224e-18)
(24.7805 3.16335 4.05666e-15)
(24.3409 3.22979 -2.75279e-15)
(23.3808 3.12248 2.2559e-17)
(18.6469 13.8549 5.22882e-18)
(19.3047 14.4795 0)
(20.0876 15.1151 -2.47726e-17)
(20.9612 15.719 0)
(21.8867 16.2449 -8.91682e-17)
(22.904 16.7082 8.64149e-17)
(23.985 17.086 1.67192e-16)
(25.1081 17.3601 2.4539e-16)
(26.275 17.525 0)
(27.4681 17.5708 -2.95618e-16)
(28.675 17.4894 4.82786e-16)
(29.8873 17.2742 -9.88001e-16)
(31.0882 16.9199 -5.51515e-16)
(32.2617 16.4222 -5.58821e-16)
(33.3898 15.7798 1.33383e-15)
(34.4514 14.9947 1.43773e-15)
(35.4247 14.0732 -1.53511e-15)
(36.2875 13.0263 -1.52166e-15)
(37.0187 11.8699 0)
(37.5985 10.6258 3.97555e-16)
(38.0108 9.32115 -7.69712e-16)
(38.2464 7.98892 1.89665e-16)
(38.3042 6.66516 4.24958e-18)
(38.1933 5.38514 3.01857e-15)
(37.9322 4.17584 -1.65032e-16)
(37.5448 3.04718 1.00031e-16)
(37.0531 1.99647 2.96442e-16)
(36.4699 1.02283 3.13852e-16)
(35.8028 0.130577 9.4155e-16)
(35.0598 -0.676727 -1.88591e-15)
(34.2477 -1.39714 -1.54693e-15)
(33.3711 -2.02798 -6.07005e-15)
(32.431 -2.56601 5.23133e-15)
(31.4282 -3.00662 -7.41345e-17)
(30.3464 -3.34387 3.43097e-15)
(29.1957 -3.55526 -1.07472e-16)
(27.8559 -3.62632 5.99286e-17)
(26.5703 -3.33347 3.84329e-18)
(24.6022 -2.90783 -2.10525e-15)
(18.0655 13.2098 2.25111e-17)
(17.5303 12.5323 -8.34563e-17)
(17.0012 11.723 1.65747e-16)
(16.4905 10.7992 0)
(16.0647 9.81252 4.89909e-16)
(15.7258 8.75265 0)
(15.4959 7.64009 0)
(15.3891 6.53869 0)
(15.4039 5.49182 1.16292e-15)
(15.5306 4.50754 -5.77029e-16)
(15.7534 3.60121 6.51764e-16)
(16.0559 2.78538 0)
(16.4271 2.05555 0)
(16.857 1.40732 -5.94238e-16)
(17.3357 0.840038 0)
(17.8567 0.349951 5.42747e-16)
(18.4131 -0.0647069 1.27262e-17)
(18.9975 -0.405016 0)
(19.6034 -0.671927 -6.49645e-16)
(20.2247 -0.866247 -9.64659e-16)
(20.8548 -0.987731 -6.73133e-16)
(21.487 -1.03545 -5.88101e-16)
(22.1132 -1.00747 1.01067e-15)
(22.7215 -0.902995 0)
(23.294 -0.724903 3.42195e-16)
(23.8128 -0.48253 3.19708e-16)
(24.2669 -0.189658 1.21338e-16)
(24.6519 0.141193 0)
(24.9653 0.498967 -9.52879e-18)
(25.2054 0.872398 -5.98342e-17)
(25.3719 1.25046 1.81878e-16)
(25.4662 1.62332 -1.65554e-17)
(25.489 1.98271 -2.50122e-16)
(25.4412 2.32052 2.69628e-16)
(25.3155 2.63063 -2.04353e-18)
(25.1118 2.89999 1.06913e-17)
(24.7658 3.12052 -3.95063e-15)
(24.3424 3.17123 2.57848e-15)
(23.4646 3.04544 6.27622e-15)
(19.278 13.2311 2.1237e-18)
(19.8949 13.8044 -1.51932e-17)
(20.6281 14.3885 0)
(21.4439 14.9431 1.19546e-18)
(22.3037 15.4252 0)
(23.2473 15.8511 0)
(24.2475 16.1999 1.84426e-17)
(25.284 16.4554 2.11775e-16)
(26.3601 16.6131 4.87212e-16)
(27.46 16.6646 1.23352e-15)
(28.5735 16.6027 6.93538e-16)
(29.6948 16.421 7.9665e-16)
(30.8096 16.1138 0)
(31.9047 15.6759 1.5383e-15)
(32.9645 15.1046 -5.44087e-16)
(33.9698 14.3999 0)
(34.9007 13.5655 1.28197e-15)
(35.7359 12.6096 1.45811e-15)
(36.455 11.5452 0)
(37.0378 10.3915 1.41397e-15)
(37.4674 9.17303 -1.38126e-15)
(37.7331 7.91942 0)
(37.8319 6.66354 -1.63463e-16)
(37.7697 5.43823 3.16585e-17)
(37.5605 4.26908 7.78609e-17)
(37.2236 3.16727 1.16622e-15)
(36.7778 2.13412 -3.98819e-18)
(36.2363 1.17164 -3.10564e-17)
(35.607 0.285411 -2.61429e-17)
(34.8979 -0.519769 5.72083e-17)
(34.1163 -1.24068 1.55901e-15)
(33.2671 -1.87383 5.49457e-15)
(32.3519 -2.41522 4.31447e-17)
(31.3718 -2.85929 -3.99463e-15)
(30.3114 -3.19925 -3.11897e-15)
(29.179 -3.41032 -4.62365e-15)
(27.8657 -3.4796 -2.70527e-15)
(26.5689 -3.17963 2.17725e-17)
(24.7685 -2.73942 1.96329e-15)
(18.7306 12.6388 -5.2857e-17)
(18.2258 12.0179 -2.00827e-16)
(17.7227 11.2746 4.01057e-16)
(17.2335 10.425 0)
(16.8208 9.51823 8.0175e-16)
(16.485 8.54227 0)
(16.247 7.51524 -4.54514e-16)
(16.1212 6.49799 1.82841e-15)
(16.1062 5.53033 -1.41843e-15)
(16.1928 4.61869 0)
(16.3671 3.77651 1.05837e-15)
(16.6144 3.01512 1.02628e-15)
(16.9255 2.3294 0)
(17.2918 1.71471 -1.01726e-15)
(17.7059 1.17026 2.47133e-16)
(18.1629 0.692554 -2.4725e-16)
(18.6578 0.280704 2.41493e-16)
(19.1848 -0.065107 4.25643e-16)
(19.7385 -0.34433 -1.50866e-17)
(20.313 -0.556225 5.18575e-16)
(20.902 -0.699265 1.54847e-16)
(21.4985 -0.771635 -1.47554e-16)
(22.0944 -0.771002 -4.79722e-16)
(22.6777 -0.696278 4.14005e-16)
(23.2314 -0.549639 -3.03865e-16)
(23.7378 -0.338638 -3.24102e-16)
(24.1855 -0.0751553 -1.15424e-16)
(24.5687 0.229018 -1.33526e-18)
(24.8838 0.563023 1.04344e-17)
(25.1283 0.915806 5.72222e-17)
(25.3012 1.27633 8.81589e-18)
(25.4029 1.63448 -1.60332e-17)
(25.4339 1.9816 3.0486e-16)
(25.3944 2.30894 -2.7656e-16)
(25.2774 2.60953 1.11778e-17)
(25.0826 2.86886 -7.95713e-16)
(24.7513 3.07714 1.91861e-15)
(24.3452 3.11366 0)
(23.5461 2.97183 -6.01741e-15)
(19.8423 12.66 8.67398e-18)
(20.4228 13.1876 0)
(21.112 13.7255 0)
(21.8766 14.2355 -2.26261e-17)
(22.6789 14.6781 -1.95217e-17)
(23.5575 15.0695 0)
(24.4865 15.3906 0)
(25.4467 15.6271 -7.00472e-16)
(26.4423 15.7758 -3.49844e-17)
(27.4591 15.8292 -4.21576e-17)
(28.4885 15.7809 -1.60494e-15)
(29.5267 15.6252 -4.17245e-16)
(30.5616 15.3564 7.93131e-16)
(31.5824 14.9692 -6.77565e-17)
(32.5758 14.4596 0)
(33.5248 13.8262 0)
(34.4114 13.0707 -3.51855e-15)
(35.2154 12.1987 -6.44422e-16)
(35.9174 11.221 6.58451e-16)
(36.4979 10.153 -1.37194e-15)
(36.9392 9.01652 2.60382e-15)
(37.2295 7.83841 1.23238e-15)
(37.3638 6.64877 -1.19191e-15)
(37.3452 5.47835 -1.34406e-15)
(37.1839 4.35127 2.12871e-16)
(36.895 3.27919 -1.14922e-15)
(36.4942 2.26636 -1.29624e-16)
(35.9941 1.3175 2.88924e-17)
(35.4028 0.439353 -2.8858e-17)
(34.7283 -0.361954 9.69682e-17)
(33.9777 -1.082 -4.01096e-17)
(33.1564 -1.71642 -2.71479e-15)
(32.2665 -2.26034 -1.02939e-16)
(31.3094 -2.70728 1.22277e-16)
(30.2718 -3.04959 0)
(29.1606 -3.26071 4.30037e-15)
(27.881 -3.32798 2.53405e-15)
(26.5915 -3.02741 0)
(24.9046 -2.56915 0)
(19.3252 12.1147 0)
(18.8475 11.5436 1.80203e-16)
(18.3684 10.8588 -6.02271e-16)
(17.8993 10.0746 -2.94106e-16)
(17.4997 9.23841 -7.31339e-16)
(17.1689 8.33645 0)
(16.9263 7.38544 0)
(16.7867 6.44324 -8.18235e-16)
(16.7487 5.54659 8.58276e-16)
(16.8036 4.7006 0)
(16.9387 3.91733 -4.49007e-16)
(17.1409 3.20723 -4.85283e-16)
(17.4016 2.56471 4.60251e-16)
(17.714 1.98453 4.78393e-16)
(18.0718 1.4656 -8.89219e-16)
(18.4718 1.00453 0)
(18.9104 0.600648 -2.02256e-16)
(19.3834 0.254823 1.19879e-17)
(19.8865 -0.0314788 9.00286e-16)
(20.4147 -0.256356 -1.68055e-16)
(20.9621 -0.417131 1.61205e-16)
(21.5219 -0.51116 -1.23859e-16)
(22.0862 -0.535552 1.75543e-16)
(22.6433 -0.488737 -8.40891e-16)
(23.1766 -0.372015 -3.00246e-16)
(23.6689 -0.191284 2.63215e-16)
(24.1085 0.043286 -1.62005e-17)
(24.4883 0.320815 0)
(24.8038 0.630798 -9.84361e-18)
(25.0517 0.962447 6.01914e-17)
(25.2302 1.30481 -9.258e-17)
(25.339 1.64758 1.63003e-16)
(25.3778 1.98176 -6.14838e-16)
(25.3467 2.29802 6.3317e-16)
(25.2386 2.58851 -9.60403e-18)
(25.0531 2.83748 7.53655e-16)
(24.7373 3.03332 3.49004e-17)
(24.3494 3.05731 -7.48714e-17)
(23.625 2.90213 -5.39864e-15)
(20.3491 12.1344 -8.41502e-18)
(20.8971 12.6211 0)
(21.5469 13.1172 0)
(22.266 13.5868 1.8161e-17)
(23.017 13.9932 2.02596e-17)