/*--------------------------------*- C++ -*----------------------------------*\
  =========                 |
  \\      /  F ield         | OpenFOAM: The Open Source CFD Toolbox
   \\    /   O peration     | Website:  https://openfoam.org
    \\  /    A nd           | Version:  12
     \\/     M anipulation  |
\*---------------------------------------------------------------------------*/
FoamFile
{
    format      ascii;
    class       volVectorField;
    location    "4.54";
    object      U;
}
// * * * * * * * * * * * * * * * * * * * * * * * * * * * * * * * * * * * * * //

dimensions      [0 1 -1 0 0 0 0];

internalField   nonuniform List<vector> 
3829
(
(-1.99836e-06 1.20667e-05 0)
(-6.03094e-06 1.20433e-05 0)
(-1.00976e-05 1.20093e-05 0)
(-1.41925e-05 1.19568e-05 0)
(-1.83011e-05 1.18826e-05 0)
(-2.24225e-05 1.17867e-05 0)
(-2.65669e-05 1.16673e-05 0)
(-3.06961e-05 1.15206e-05 0)
(-3.48081e-05 1.13562e-05 0)
(-3.89145e-05 1.11601e-05 0)
(-4.29719e-05 1.09441e-05 0)
(-4.70519e-05 1.07017e-05 0)
(-5.11189e-05 1.04506e-05 0)
(-5.51409e-05 1.0188e-05 0)
(-5.91646e-05 9.93333e-06 0)
(-6.3173e-05 9.68089e-06 0)
(-6.71922e-05 9.44191e-06 0)
(-7.12283e-05 9.23583e-06 0)
(-7.52717e-05 9.06951e-06 0)
(-7.9318e-05 8.9502e-06 0)
(-8.33637e-05 8.88344e-06 0)
(-8.7409e-05 8.87136e-06 0)
(-9.14633e-05 8.91369e-06 0)
(-9.553e-05 9.00782e-06 0)
(-9.96138e-05 9.14853e-06 0)
(-0.000103722 9.32869e-06 0)
(-0.000107878 9.53932e-06 0)
(-0.000112042 9.76733e-06 0)
(-0.000116225 1.00046e-05 0)
(-0.000120417 1.0234e-05 0)
(-0.000124639 1.04367e-05 0)
(-0.000128893 1.06054e-05 0)
(-0.000133092 1.07196e-05 0)
(-0.000137296 1.07619e-05 0)
(-0.000141429 1.07259e-05 0)
(-0.000145495 1.0597e-05 0)
(-0.000149568 1.03816e-05 0)
(-0.000153539 1.00766e-05 0)
(-0.000157357 9.66584e-06 0)
(-0.000161027 9.13887e-06 0)
(-0.000164536 8.49973e-06 0)
(-0.000167784 7.73522e-06 0)
(-0.000170762 6.84468e-06 0)
(-0.000173429 5.83319e-06 0)
(-0.000175697 4.69749e-06 0)
(-0.000177552 3.44449e-06 0)
(-0.000178936 2.07929e-06 0)
(-0.00017981 6.14428e-07 0)
(-0.000180059 -9.333e-07 0)
(-0.00017958 -2.56927e-06 0)
(-0.00017835 -4.2714e-06 0)
(-0.000176358 -6.02351e-06 0)
(-0.0001736 -7.80904e-06 0)
(-0.000170053 -9.59539e-06 0)
(-0.000165709 -1.1391e-05 0)
(-0.000160594 -1.31598e-05 0)
(-0.000154691 -1.48794e-05 0)
(-0.000148043 -1.65366e-05 0)
(-0.000140797 -1.80999e-05 0)
(-0.000132872 -1.95259e-05 0)
(-0.000124282 -2.08204e-05 0)
(-0.000115141 -2.19239e-05 0)
(-0.000105466 -2.28796e-05 0)
(-9.52453e-05 -2.3595e-05 0)
(-8.48016e-05 -2.41325e-05 0)
(-7.40846e-05 -2.43937e-05 0)
(-6.3092e-05 -2.4439e-05 0)
(-5.21484e-05 -2.42142e-05 0)
(-4.12437e-05 -2.37475e-05 0)
(-3.04958e-05 -2.30108e-05 0)
(-2.00929e-05 -2.20475e-05 0)
(-1.00958e-05 -2.08064e-05 0)
(-6.0158e-07 -1.9359e-05 0)
(8.25697e-06 -1.76837e-05 0)
(1.63002e-05 -1.58362e-05 0)
(2.34166e-05 -1.38189e-05 0)
(2.9565e-05 -1.1674e-05 0)
(3.46116e-05 -9.41654e-06 0)
(3.85711e-05 -7.07134e-06 0)
(4.1328e-05 -4.71882e-06 0)
(4.28637e-05 -2.34432e-06 0)
(4.31329e-05 -2.04738e-08 0)
(4.21699e-05 2.23136e-06 0)
(4.00023e-05 4.33993e-06 0)
(3.66493e-05 6.28643e-06 0)
(3.22415e-05 8.04275e-06 0)
(2.69038e-05 9.58322e-06 0)
(2.0788e-05 1.08452e-05 0)
(1.40133e-05 1.18235e-05 0)
(6.67667e-06 1.24727e-05 0)
(-1.0375e-06 1.28095e-05 0)
(-8.85439e-06 1.28198e-05 0)
(-1.66083e-05 1.24952e-05 0)
(-2.41314e-05 1.18479e-05 0)
(-3.12062e-05 1.08935e-05 0)
(-3.76416e-05 9.65714e-06 0)
(-4.32594e-05 8.16599e-06 0)
(-4.78933e-05 6.46433e-06 0)
(-5.14066e-05 4.59012e-06 0)
(-5.36847e-05 2.5967e-06 0)
(-5.46555e-05 5.42202e-07 0)
(-5.41766e-05 -1.51164e-06 0)
(-5.22139e-05 -3.52508e-06 0)
(-4.88988e-05 -5.44151e-06 0)
(-4.42778e-05 -7.20436e-06 0)
(-3.84788e-05 -8.76848e-06 0)
(-3.16434e-05 -1.00803e-05 0)
(-2.39058e-05 -1.11082e-05 0)
(-1.55047e-05 -1.1819e-05 0)
(-6.63065e-06 -1.21937e-05 0)
(2.48374e-06 -1.22286e-05 0)
(1.15541e-05 -1.19268e-05 0)
(2.03245e-05 -1.12999e-05 0)
(2.85629e-05 -1.03672e-05 0)
(3.60384e-05 -9.17016e-06 0)
(4.25452e-05 -7.74074e-06 0)
(4.78989e-05 -6.13326e-06 0)
(5.19691e-05 -4.39708e-06 0)
(5.46501e-05 -2.59544e-06 0)
(5.58792e-05 -7.76702e-07 0)
(5.56061e-05 9.84994e-07 0)
(5.3861e-05 2.66383e-06 0)
(5.07593e-05 4.19324e-06 0)
(4.64149e-05 5.54752e-06 0)
(4.09842e-05 6.67548e-06 0)
(3.46337e-05 7.56139e-06 0)
(2.75864e-05 8.18337e-06 0)
(2.00479e-05 8.53264e-06 0)
(1.22644e-05 8.61915e-06 0)
(4.46953e-06 8.44212e-06 0)
(-3.11801e-06 8.02884e-06 0)
(-1.02722e-05 7.40182e-06 0)
(-1.6809e-05 6.58418e-06 0)
(-2.25556e-05 5.6256e-06 0)
(-2.7368e-05 4.54927e-06 0)
(-3.11444e-05 3.40263e-06 0)
(-3.38082e-05 2.22022e-06 0)
(-3.5325e-05 1.03907e-06 0)
(-3.56864e-05 -1.01269e-07 0)
(-3.49216e-05 -1.17715e-06 0)
(-3.30989e-05 -2.15865e-06 0)
(-3.03033e-05 -3.02597e-06 0)
(-2.66526e-05 -3.75833e-06 0)
(-2.22696e-05 -4.34345e-06 0)
(-1.72985e-05 -4.77792e-06 0)
(-1.19014e-05 -5.05892e-06 0)
(-6.23056e-06 -5.18736e-06 0)
(-4.43074e-07 -5.16988e-06 0)
(5.29747e-06 -5.02438e-06 0)
(1.08564e-05 -4.74849e-06 0)
(1.60941e-05 -4.3772e-06 0)
(2.08942e-05 -3.90786e-06 0)
(2.5153e-05 -3.37959e-06 0)
(2.87893e-05 -2.78876e-06 0)
(3.1743e-05 -2.17783e-06 0)
(3.39619e-05 -1.54302e-06 0)
(3.54344e-05 -9.16112e-07 0)
(3.61482e-05 -3.08502e-07 0)
(3.61193e-05 2.69339e-07 0)
(3.53904e-05 8.0715e-07 0)
(3.40042e-05 1.28574e-06 0)
(3.20063e-05 1.70477e-06 0)
(2.94883e-05 2.06118e-06 0)
(2.65252e-05 2.34271e-06 0)
(2.31916e-05 2.55682e-06 0)
(1.9585e-05 2.69572e-06 0)
(1.5793e-05 2.76767e-06 0)
(1.19055e-05 2.7784e-06 0)
(8.00896e-06 2.72618e-06 0)
(4.1818e-06 2.62272e-06 0)
(5.02047e-07 2.47084e-06 0)
(-2.96524e-06 2.28047e-06 0)
(-6.16909e-06 2.05928e-06 0)
(-9.0562e-06 1.81349e-06 0)
(-1.1589e-05 1.55226e-06 0)
(-1.37422e-05 1.28114e-06 0)
(-1.55006e-05 1.00859e-06 0)
(-1.68528e-05 7.41201e-07 0)
(-1.7806e-05 4.84886e-07 0)
(-1.83727e-05 2.45151e-07 0)
(-1.85713e-05 2.60595e-08 0)
(-1.84359e-05 -1.69687e-07 0)
(-1.79967e-05 -3.39191e-07 0)
(-1.72943e-05 -4.79459e-07 0)
(-1.63695e-05 -5.92529e-07 0)
(-1.52678e-05 -6.7476e-07 0)
(-1.40331e-05 -7.29868e-07 0)
(-1.27134e-05 -7.60675e-07 0)
(-1.1348e-05 -7.66811e-07 0)
(-9.97296e-06 -7.51001e-07 0)
(-8.625e-06 -7.20649e-07 0)
(-7.33463e-06 -6.75044e-07 0)
(-6.13011e-06 -6.23055e-07 0)
(-5.01795e-06 -5.62823e-07 0)
(-4.00679e-06 -5.01781e-07 0)
(-3.09753e-06 -4.43369e-07 0)
(-2.29125e-06 -3.92666e-07 0)
(-1.57237e-06 -3.49756e-07 0)
(-9.15706e-07 -3.19194e-07 0)
(-3.01655e-07 -3.03308e-07 0)
(-2.16463e-06 6.99498e-05 0)
(-6.49852e-06 6.99875e-05 0)
(-1.08789e-05 6.96531e-05 0)
(-1.53271e-05 6.91475e-05 0)
(-1.98068e-05 6.84858e-05 0)
(-2.43055e-05 6.76659e-05 0)
(-2.88655e-05 6.67124e-05 0)
(-3.33539e-05 6.56361e-05 0)
(-3.78516e-05 6.44547e-05 0)
(-4.23526e-05 6.31902e-05 0)
(-4.67524e-05 6.18603e-05 0)
(-5.10762e-05 6.04849e-05 0)
(-5.52594e-05 5.90949e-05 0)
(-5.92635e-05 5.76996e-05 0)
(-6.31599e-05 5.63244e-05 0)
(-6.70013e-05 5.50001e-05 0)
(-7.0621e-05 5.37223e-05 0)
(-7.40662e-05 5.24892e-05 0)
(-7.74258e-05 5.13503e-05 0)
(-8.07085e-05 5.02832e-05 0)
(-8.39515e-05 4.93275e-05 0)
(-8.71989e-05 4.8481e-05 0)
(-9.04939e-05 4.77508e-05 0)
(-9.38743e-05 4.7137e-05 0)
(-9.73742e-05 4.66294e-05 0)
(-0.000101023 4.62265e-05 0)
(-0.000104883 4.59047e-05 0)
(-0.000108901 4.56553e-05 0)
(-0.000113111 4.54602e-05 0)
(-0.000117566 4.5284e-05 0)
(-0.000122218 4.51112e-05 0)
(-0.000127071 4.49248e-05 0)
(-0.000132098 4.46647e-05 0)
(-0.000137262 4.42896e-05 0)
(-0.000142463 4.37589e-05 0)
(-0.000147625 4.29934e-05 0)
(-0.000152747 4.19654e-05 0)
(-0.000157859 4.06112e-05 0)
(-0.00016295 3.89286e-05 0)
(-0.0001679 3.68695e-05 0)
(-0.000172713 3.4427e-05 0)
(-0.000177314 3.15945e-05 0)
(-0.000181587 2.83545e-05 0)
(-0.000185508 2.47227e-05 0)
(-0.000188979 2.07011e-05 0)
(-0.000191943 1.63114e-05 0)
(-0.000194312 1.15776e-05 0)
(-0.00019599 6.54092e-06 0)
(-0.00019696 1.22988e-06 0)
(-0.000197097 -4.3231e-06 0)
(-0.000196269 -1.00585e-05 0)
(-0.000194499 -1.59233e-05 0)
(-0.000191707 -2.18573e-05 0)
(-0.000188001 -2.77715e-05 0)
(-0.000183365 -3.3652e-05 0)
(-0.000177675 -3.93934e-05 0)
(-0.000171037 -4.49631e-05 0)
(-0.000163455 -5.02435e-05 0)
(-0.00015494 -5.52411e-05 0)
(-0.000145594 -5.97918e-05 0)
(-0.000135369 -6.38923e-05 0)
(-0.000124552 -6.74478e-05 0)
(-0.00011302 -7.03923e-05 0)
(-0.000100844 -7.26655e-05 0)
(-8.83353e-05 -7.4278e-05 0)
(-7.54298e-05 -7.50784e-05 0)
(-6.23284e-05 -7.51485e-05 0)
(-4.9211e-05 -7.44113e-05 0)
(-3.61847e-05 -7.28805e-05 0)
(-2.34261e-05 -7.05463e-05 0)
(-1.10304e-05 -6.74517e-05 0)
(8.33482e-07 -6.35764e-05 0)
(1.19493e-05 -5.90093e-05 0)
(2.22534e-05 -5.37621e-05 0)
(3.14779e-05 -4.79547e-05 0)
(3.9577e-05 -4.16144e-05 0)
(4.64618e-05 -3.48503e-05 0)
(5.20734e-05 -2.77639e-05 0)
(5.61914e-05 -2.04629e-05 0)
(5.88547e-05 -1.30643e-05 0)
(6.00839e-05 -5.68976e-06 0)
(5.97108e-05 1.54234e-06 0)
(5.77883e-05 8.47806e-06 0)
(5.43608e-05 1.50076e-05 0)
(4.96095e-05 2.10248e-05 0)
(4.36476e-05 2.64127e-05 0)
(3.64902e-05 3.10757e-05 0)
(2.83644e-05 3.48903e-05 0)
(1.94554e-05 3.77852e-05 0)
(9.93695e-06 3.97027e-05 0)
(9.97151e-08 4.06161e-05 0)
(-9.86468e-06 4.04981e-05 0)
(-1.97049e-05 3.93423e-05 0)
(-2.91784e-05 3.71915e-05 0)
(-3.80319e-05 3.40868e-05 0)
(-4.60432e-05 3.01173e-05 0)
(-5.29825e-05 2.53726e-05 0)
(-5.86587e-05 1.99833e-05 0)
(-6.29163e-05 1.40845e-05 0)
(-6.55929e-05 7.84317e-06 0)
(-6.66038e-05 1.39714e-06 0)
(-6.58699e-05 -5.00741e-06 0)
(-6.33831e-05 -1.12606e-05 0)
(-5.92359e-05 -1.71844e-05 0)
(-5.35181e-05 -2.26116e-05 0)
(-4.63761e-05 -2.73905e-05 0)
(-3.79954e-05 -3.13754e-05 0)
(-2.8573e-05 -3.4457e-05 0)
(-1.83869e-05 -3.65568e-05 0)
(-7.70856e-06 -3.76081e-05 0)
(3.17092e-06 -3.76099e-05 0)
(1.39282e-05 -3.65638e-05 0)
(2.4268e-05 -3.45211e-05 0)
(3.38885e-05 -3.15511e-05 0)
(4.2532e-05 -2.77711e-05 0)
(4.99675e-05 -2.33055e-05 0)
(5.59772e-05 -1.83114e-05 0)
(6.04195e-05 -1.29509e-05 0)
(6.31992e-05 -7.4116e-06 0)
(6.4237e-05 -1.85536e-06 0)
(6.35449e-05 3.51533e-06 0)
(6.11798e-05 8.59025e-06 0)
(5.72623e-05 1.31985e-05 0)
(5.19486e-05 1.72319e-05 0)
(4.54226e-05 2.05747e-05 0)
(3.79195e-05 2.31597e-05 0)
(2.96792e-05 2.49383e-05 0)
(2.09769e-05 2.58871e-05 0)
(1.20758e-05 2.60322e-05 0)
(3.24365e-06 2.54022e-05 0)
(-5.25496e-06 2.40565e-05 0)
(-1.32063e-05 2.20779e-05 0)
(-2.03757e-05 1.95627e-05 0)
(-2.65949e-05 1.66116e-05 0)
(-3.173e-05 1.33456e-05 0)
(-3.56623e-05 9.87708e-06 0)
(-3.83407e-05 6.32579e-06 0)
(-3.97258e-05 2.79726e-06 0)
(-3.98393e-05 -6.00915e-07 0)
(-3.87328e-05 -3.78954e-06 0)
(-3.64846e-05 -6.68267e-06 0)
(-3.31991e-05 -9.2192e-06 0)
(-2.90101e-05 -1.13512e-05 0)
(-2.40733e-05 -1.30434e-05 0)
(-1.85499e-05 -1.4281e-05 0)
(-1.26094e-05 -1.50617e-05 0)
(-6.42051e-06 -1.53926e-05 0)
(-1.68142e-07 -1.53002e-05 0)
(6.00048e-06 -1.48145e-05 0)
(1.19241e-05 -1.39759e-05 0)
(1.7465e-05 -1.28357e-05 0)
(2.25027e-05 -1.14373e-05 0)
(2.69364e-05 -9.84532e-06 0)
(3.06827e-05 -8.10553e-06 0)
(3.36829e-05 -6.27988e-06 0)
(3.59043e-05 -4.4231e-06 0)
(3.73131e-05 -2.57223e-06 0)
(3.79314e-05 -7.8499e-07 0)
(3.77782e-05 9.0195e-07 0)
(3.68845e-05 2.46211e-06 0)
(3.53085e-05 3.8592e-06 0)
(3.312e-05 5.07439e-06 0)
(3.03941e-05 6.09358e-06 0)
(2.72209e-05 6.90721e-06 0)
(2.36814e-05 7.50994e-06 0)
(1.98742e-05 7.9094e-06 0)
(1.59051e-05 8.10857e-06 0)
(1.18501e-05 8.11821e-06 0)
(7.80283e-06 7.9571e-06 0)
(3.84761e-06 7.63898e-06 0)
(5.92185e-08 7.18837e-06 0)
(-3.49162e-06 6.62317e-06 0)
(-6.75944e-06 5.96918e-06 0)
(-9.68977e-06 5.2478e-06 0)
(-1.22465e-05 4.47959e-06 0)
(-1.4406e-05 3.68838e-06 0)
(-1.61522e-05 2.89299e-06 0)
(-1.74774e-05 2.1163e-06 0)
(-1.83907e-05 1.37029e-06 0)
(-1.89072e-05 6.75168e-07 0)
(-1.90488e-05 3.7146e-08 0)
(-1.88514e-05 -5.28732e-07 0)
(-1.83449e-05 -1.01822e-06 0)
(-1.75755e-05 -1.42243e-06 0)
(-1.65836e-05 -1.74408e-06 0)
(-1.54163e-05 -1.98185e-06 0)
(-1.41245e-05 -2.13835e-06 0)
(-1.27517e-05 -2.21931e-06 0)
(-1.13368e-05 -2.23318e-06 0)
(-9.924e-06 -2.18767e-06 0)
(-8.54606e-06 -2.09022e-06 0)
(-7.23464e-06 -1.95793e-06 0)
(-6.01667e-06 -1.79971e-06 0)
(-4.89688e-06 -1.62407e-06 0)
(-3.88898e-06 -1.44284e-06 0)
(-2.99118e-06 -1.27081e-06 0)
(-2.2011e-06 -1.12161e-06 0)
(-1.50245e-06 -9.96534e-07 0)
(-8.7204e-07 -9.092e-07 0)
(-2.869e-07 -8.62484e-07 0)
(-3.3912e-06 8.54429e-05 0)
(-1.01473e-05 8.50549e-05 0)
(-1.69093e-05 8.42838e-05 0)
(-2.3559e-05 8.31405e-05 0)
(-3.00623e-05 8.16287e-05 0)
(-3.635e-05 7.97775e-05 0)
(-4.23432e-05 7.76121e-05 0)
(-4.8058e-05 7.51841e-05 0)
(-5.34226e-05 7.25134e-05 0)
(-5.84595e-05 6.96493e-05 0)
(-6.31461e-05 6.66236e-05 0)
(-6.74616e-05 6.34722e-05 0)
(-7.14541e-05 6.0285e-05 0)
(-7.5143e-05 5.71332e-05 0)
(-7.84347e-05 5.41056e-05 0)
(-8.15374e-05 5.12982e-05 0)
(-8.46854e-05 4.88286e-05 0)
(-8.75258e-05 4.67448e-05 0)
(-9.02037e-05 4.5148e-05 0)
(-9.27919e-05 4.40795e-05 0)
(-9.51597e-05 4.35589e-05 0)
(-9.75314e-05 4.36314e-05 0)
(-9.99057e-05 4.42805e-05 0)
(-0.000102399 4.54808e-05 0)
(-0.000105026 4.71694e-05 0)
(-0.000107877 4.92951e-05 0)
(-0.000111018 5.17243e-05 0)
(-0.000114365 5.44247e-05 0)
(-0.000118085 5.72002e-05 0)
(-0.000122151 5.99549e-05 0)
(-0.000126458 6.26058e-05 0)
(-0.000131253 6.495e-05 0)
(-0.000136583 6.6938e-05 0)
(-0.000142368 6.84978e-05 0)
(-0.000148719 6.94989e-05 0)
(-0.000155544 6.99923e-05 0)
(-0.000162802 6.97992e-05 0)
(-0.000170249 6.89057e-05 0)
(-0.000177744 6.72391e-05 0)
(-0.000185296 6.4738e-05 0)
(-0.000192673 6.13765e-05 0)
(-0.000199827 5.71479e-05 0)
(-0.000206626 5.2044e-05 0)
(-0.000212931 4.60878e-05 0)
(-0.000218631 3.93091e-05 0)
(-0.000223605 3.17479e-05 0)
(-0.000227704 2.34624e-05 0)
(-0.000230877 1.45362e-05 0)
(-0.00023307 5.04584e-06 0)
(-0.000234048 -4.89579e-06 0)
(-0.000233695 -1.52343e-05 0)
(-0.00023202 -2.5837e-05 0)
(-0.000228866 -3.65837e-05 0)
(-0.000224451 -4.73962e-05 0)
(-0.000218716 -5.80901e-05 0)
(-0.000211602 -6.8537e-05 0)
(-0.00020308 -7.86413e-05 0)
(-0.000193368 -8.82719e-05 0)
(-0.000182424 -9.72592e-05 0)
(-0.000170159 -0.000105498 0)
(-0.000156898 -0.000112825 0)
(-0.000142531 -0.000119173 0)
(-0.000127216 -0.000124371 0)
(-0.000111267 -0.000128349 0)
(-9.46589e-05 -0.000131063 0)
(-7.76233e-05 -0.000132403 0)
(-6.04823e-05 -0.000132337 0)
(-4.32773e-05 -0.000130862 0)
(-2.62694e-05 -0.000127913 0)
(-9.68931e-06 -0.000123553 0)
(6.32622e-06 -0.000117769 0)
(2.15539e-05 -0.000110654 0)
(3.57743e-05 -0.000102261 0)
(4.8762e-05 -9.27087e-05 0)
(6.02956e-05 -8.21114e-05 0)
(7.03349e-05 -7.05968e-05 0)
(7.85863e-05 -5.83637e-05 0)
(8.49597e-05 -4.55499e-05 0)
(8.94237e-05 -3.24219e-05 0)
(9.18542e-05 -1.91097e-05 0)
(9.22558e-05 -5.90033e-06 0)
(9.05001e-05 6.94634e-06 0)
(8.66798e-05 1.92426e-05 0)
(8.09995e-05 3.08181e-05 0)
(7.34948e-05 4.13979e-05 0)
(6.43522e-05 5.08208e-05 0)
(5.36906e-05 5.88502e-05 0)
(4.17578e-05 6.53741e-05 0)
(2.88932e-05 7.02237e-05 0)
(1.5346e-05 7.33266e-05 0)
(1.40731e-06 7.45867e-05 0)
(-1.25972e-05 7.39883e-05 0)
(-2.6293e-05 7.15532e-05 0)
(-3.93752e-05 6.73365e-05 0)
(-5.15081e-05 6.14378e-05 0)
(-6.23773e-05 5.4018e-05 0)
(-7.1706e-05 4.52499e-05 0)
(-7.92253e-05 3.53663e-05 0)
(-8.47235e-05 2.46217e-05 0)
(-8.81064e-05 1.33232e-05 0)
(-8.9127e-05 1.75255e-06 0)
(-8.77485e-05 -9.74221e-06 0)
(-8.41478e-05 -2.08951e-05 0)
(-7.8331e-05 -3.13787e-05 0)
(-7.0445e-05 -4.09182e-05 0)
(-6.07004e-05 -4.92272e-05 0)
(-4.93656e-05 -5.60818e-05 0)
(-3.6762e-05 -6.1281e-05 0)
(-2.32481e-05 -6.47161e-05 0)
(-9.2124e-06 -6.6264e-05 0)
(4.94472e-06 -6.5954e-05 0)
(1.88184e-05 -6.37788e-05 0)
(3.20019e-05 -5.9881e-05 0)
(4.4122e-05 -5.43863e-05 0)
(5.48376e-05 -4.75053e-05 0)
(6.38723e-05 -3.94897e-05 0)
(7.09816e-05 -3.05982e-05 0)
(7.59969e-05 -2.11476e-05 0)
(7.88366e-05 -1.14425e-05 0)
(7.9429e-05 -1.80046e-06 0)
(7.7865e-05 7.47562e-06 0)
(7.4266e-05 1.61443e-05 0)
(6.8767e-05 2.39447e-05 0)
(6.16154e-05 3.06734e-05 0)
(5.30663e-05 3.61746e-05 0)
(4.34345e-05 4.03265e-05 0)
(3.3034e-05 4.30752e-05 0)
(2.22232e-05 4.44041e-05 0)
(1.13466e-05 4.43541e-05 0)
(6.97132e-07 4.29918e-05 0)
(-9.40917e-06 4.04564e-05 0)
(-1.86906e-05 3.68654e-05 0)
(-2.69374e-05 3.2415e-05 0)
(-3.39474e-05 2.7274e-05 0)
(-3.95709e-05 2.16561e-05 0)
(-4.37219e-05 1.57401e-05 0)
(-4.63519e-05 9.74157e-06 0)
(-4.7459e-05 3.82668e-06 0)
(-4.70944e-05 -1.82996e-06 0)
(-4.53371e-05 -7.08485e-06 0)
(-4.22942e-05 -1.18152e-05 0)
(-3.81212e-05 -1.59209e-05 0)
(-3.29849e-05 -1.93374e-05 0)
(-2.70682e-05 -2.2009e-05 0)
(-2.05701e-05 -2.39205e-05 0)
(-1.36869e-05 -2.50685e-05 0)
(-6.61594e-06 -2.54854e-05 0)
(4.50296e-07 -2.52052e-05 0)
(7.33328e-06 -2.42896e-05 0)
(1.38683e-05 -2.28126e-05 0)
(1.99163e-05 -2.08436e-05 0)
(2.5347e-05 -1.84881e-05 0)
(3.00588e-05 -1.58168e-05 0)
(3.39799e-05 -1.29372e-05 0)
(3.70435e-05 -9.93058e-06 0)
(3.9239e-05 -6.8826e-06 0)
(4.05526e-05 -3.87018e-06 0)
(4.09807e-05 -9.72788e-07 0)
(4.05856e-05 1.7558e-06 0)
(3.94115e-05 4.25855e-06 0)
(3.75156e-05 6.49204e-06 0)
(3.49766e-05 8.42689e-06 0)
(3.18973e-05 1.00333e-05 0)
(2.83662e-05 1.13073e-05 0)
(2.44799e-05 1.22404e-05 0)
(2.03461e-05 1.28441e-05 0)
(1.60574e-05 1.31263e-05 0)
(1.17203e-05 1.31027e-05 0)
(7.42404e-06 1.28081e-05 0)
(3.25292e-06 1.22648e-05 0)
(-7.12248e-07 1.15102e-05 0)
(-4.40622e-06 1.05792e-05 0)
(-7.77645e-06 9.50616e-06 0)
(-1.07773e-05 8.33029e-06 0)
(-1.33703e-05 7.08386e-06 0)
(-1.55341e-05 5.80687e-06 0)
(-1.72559e-05 4.52734e-06 0)
(-1.85334e-05 3.28047e-06 0)
(-1.93783e-05 2.08507e-06 0)
(-1.98103e-05 9.7267e-07 0)
(-1.98547e-05 -4.30411e-08 0)
(-1.95481e-05 -9.40963e-07 0)
(-1.89277e-05 -1.71396e-06 0)
(-1.80418e-05 -2.35097e-06 0)
(-1.69388e-05 -2.8537e-06 0)
(-1.56642e-05 -3.21945e-06 0)
(-1.42691e-05 -3.45938e-06 0)
(-1.28064e-05 -3.57734e-06 0)
(-1.13166e-05 -3.58599e-06 0)
(-9.83518e-06 -3.50129e-06 0)
(-8.40636e-06 -3.33761e-06 0)
(-7.06136e-06 -3.11518e-06 0)
(-5.81982e-06 -2.8492e-06 0)
(-4.69002e-06 -2.56134e-06 0)
(-3.68599e-06 -2.26812e-06 0)
(-2.80911e-06 -1.98779e-06 0)
(-2.04781e-06 -1.74386e-06 0)
(-1.38586e-06 -1.53902e-06 0)
(-7.99287e-07 -1.39709e-06 0)
(-2.61456e-07 -1.32051e-06 0)
(-5.07603e-06 0.000189753 0)
(-1.51502e-05 0.000188988 0)
(-2.51207e-05 0.000187135 0)
(-3.48669e-05 0.000184366 0)
(-4.42695e-05 0.000180693 0)
(-5.31828e-05 0.000176177 0)
(-6.15007e-05 0.000170869 0)
(-6.91586e-05 0.000164826 0)
(-7.62529e-05 0.000158185 0)
(-8.27202e-05 0.00015095 0)
(-8.85713e-05 0.000143291 0)
(-9.34725e-05 0.000135288 0)
(-9.71741e-05 0.000127156 0)
(-9.96874e-05 0.00011905 0)
(-0.000100947 0.000111162 0)
(-0.000100889 0.000103706 0)
(-9.97212e-05 9.68707e-05 0)
(-9.75793e-05 9.09227e-05 0)
(-9.46248e-05 8.60061e-05 0)
(-9.13773e-05 8.23068e-05 0)
(-8.78425e-05 7.98897e-05 0)
(-8.42995e-05 7.88017e-05 0)
(-8.11883e-05 7.89801e-05 0)
(-7.88023e-05 8.038e-05 0)
(-7.72976e-05 8.25947e-05 0)
(-7.7067e-05 8.57192e-05 0)
(-7.80417e-05 8.93022e-05 0)
(-8.04557e-05 9.32163e-05 0)
(-8.46559e-05 9.75295e-05 0)
(-9.00468e-05 0.00010191 0)
(-9.70811e-05 0.000106475 0)
(-0.000105581 0.000110788 0)
(-0.000114826 0.000114714 0)
(-0.000125149 0.000118056 0)
(-0.000135851 0.000120474 0)
(-0.000147065 0.000121832 0)
(-0.000159085 0.000121966 0)
(-0.000171373 0.000120855 0)
(-0.000184117 0.000118304 0)
(-0.000196973 0.000114286 0)
(-0.000209659 0.000108803 0)
(-0.000222022 0.000101828 0)
(-0.000233812 9.33841e-05 0)
(-0.000244829 8.35287e-05 0)
(-0.000254911 7.231e-05 0)
(-0.000263885 5.98451e-05 0)
(-0.000271487 4.62699e-05 0)
(-0.000277571 3.16766e-05 0)
(-0.000282022 1.6206e-05 0)
(-0.000284817 4.37078e-08 0)
(-0.000285776 -1.6733e-05 0)
(-0.000284684 -3.38724e-05 0)
(-0.000281699 -5.11732e-05 0)
(-0.000276723 -6.83918e-05 0)
(-0.000269568 -8.54648e-05 0)
(-0.000260508 -0.000102078 0)
(-0.000249654 -0.000118031 0)
(-0.00023678 -0.000133198 0)
(-0.00022202 -0.000147234 0)
(-0.000205519 -0.000160048 0)
(-0.000187433 -0.000171387 0)
(-0.000168014 -0.000181071 0)
(-0.000147181 -0.000188987 0)
(-0.000125503 -0.000195027 0)
(-0.000103129 -0.000198938 0)
(-8.00777e-05 -0.000200791 0)
(-5.69432e-05 -0.000200397 0)
(-3.37822e-05 -0.000197772 0)
(-1.09317e-05 -0.000192867 0)
(1.1248e-05 -0.00018576 0)
(3.2571e-05 -0.00017645 0)
(5.26715e-05 -0.000165099 0)
(7.12707e-05 -0.000151776 0)
(8.81025e-05 -0.00013672 0)
(0.000102917 -0.000120052 0)
(0.000115448 -0.000102069 0)
(0.00012557 -8.30122e-05 0)
(0.000133066 -6.31604e-05 0)
(0.00013781 -4.28434e-05 0)
(0.000139796 -2.23801e-05 0)
(0.000138704 -2.14402e-06 0)
(0.000134718 1.75087e-05 0)
(0.00012819 3.62918e-05 0)
(0.000118972 5.38227e-05 0)
(0.000107285 6.97853e-05 0)
(9.3405e-05 8.38537e-05 0)
(7.75276e-05 9.57445e-05 0)
(6.00876e-05 0.000105236 0)
(4.14097e-05 0.000112127 0)
(2.18883e-05 0.00011626 0)
(1.96961e-06 0.000117562 0)
(-1.78345e-05 0.000115995 0)
(-3.7086e-05 0.00011162 0)
(-5.53519e-05 0.000104511 0)
(-7.21302e-05 9.48749e-05 0)
(-8.70345e-05 8.29202e-05 0)
(-9.96901e-05 6.90067e-05 0)
(-0.000109739 5.34359e-05 0)
(-0.000116881 3.66459e-05 0)
(-0.000120957 1.90435e-05 0)
(-0.000121817 1.1971e-06 0)
(-0.000119464 -1.65029e-05 0)
(-0.000114013 -3.35323e-05 0)
(-0.000105566 -4.9441e-05 0)
(-9.43567e-05 -6.37763e-05 0)
(-8.06918e-05 -7.61247e-05 0)
(-6.49799e-05 -8.61559e-05 0)
(-4.77028e-05 -9.36081e-05 0)
(-2.93325e-05 -9.82984e-05 0)
(-1.04492e-05 -0.000100115 0)
(8.40211e-06 -9.90712e-05 0)
(2.66681e-05 -9.52394e-05 0)
(4.37869e-05 -8.88114e-05 0)
(5.93397e-05 -8.00373e-05 0)
(7.28371e-05 -6.9256e-05 0)
(8.39801e-05 -5.68521e-05 0)
(9.2465e-05 -4.32844e-05 0)
(9.81038e-05 -2.89911e-05 0)
(0.000100838 -1.44679e-05 0)
(0.000100627 -1.75212e-07 0)
(9.76763e-05 1.34963e-05 0)
(9.21598e-05 2.60916e-05 0)
(8.42927e-05 3.72946e-05 0)
(7.44523e-05 4.68042e-05 0)
(6.29961e-05 5.44325e-05 0)
(5.03553e-05 6.00169e-05 0)
(3.69638e-05 6.35162e-05 0)
(2.32678e-05 6.4936e-05 0)
(9.67374e-06 6.4337e-05 0)
(-3.39548e-06 6.18814e-05 0)
(-1.56007e-05 5.77662e-05 0)
(-2.66455e-05 5.2193e-05 0)
(-3.62344e-05 4.54504e-05 0)
(-4.41906e-05 3.78039e-05 0)
(-5.03829e-05 2.95696e-05 0)
(-5.47172e-05 2.09945e-05 0)
(-5.71823e-05 1.23808e-05 0)
(-5.78222e-05 3.97997e-06 0)
(-5.67133e-05 -3.98724e-06 0)
(-5.4003e-05 -1.1315e-05 0)
(-4.98474e-05 -1.78446e-05 0)
(-4.44488e-05 -2.34413e-05 0)
(-3.80158e-05 -2.80386e-05 0)
(-3.07808e-05 -3.15631e-05 0)
(-2.29832e-05 -3.40164e-05 0)
(-1.486e-05 -3.53801e-05 0)
(-6.63164e-06 -3.5739e-05 0)
(1.48168e-06 -3.51426e-05 0)
(9.2816e-06 -3.36742e-05 0)
(1.66033e-05 -3.14595e-05 0)
(2.32757e-05 -2.85878e-05 0)
(2.91834e-05 -2.5202e-05 0)
(3.42318e-05 -2.14149e-05 0)
(3.83333e-05 -1.73646e-05 0)
(4.14634e-05 -1.3168e-05 0)
(4.36045e-05 -8.93919e-06 0)
(4.47389e-05 -4.80185e-06 0)
(4.49195e-05 -8.33088e-07 0)
(4.42025e-05 2.88427e-06 0)
(4.26359e-05 6.2712e-06 0)
(4.03134e-05 9.27533e-06 0)
(3.73239e-05 1.1858e-05 0)
(3.37758e-05 1.39936e-05 0)
(2.97837e-05 1.56587e-05 0)
(2.54471e-05 1.68657e-05 0)
(2.0883e-05 1.76135e-05 0)
(1.61992e-05 1.79287e-05 0)
(1.15024e-05 1.78384e-05 0)
(6.89047e-06 1.73764e-05 0)
(2.44785e-06 1.6589e-05 0)
(-1.73926e-06 1.55208e-05 0)
(-5.60651e-06 1.42202e-05 0)
(-9.10599e-06 1.27329e-05 0)
(-1.21889e-05 1.11131e-05 0)
(-1.48208e-05 9.40878e-06 0)
(-1.69845e-05 7.66728e-06 0)
(-1.86714e-05 5.93251e-06 0)
(-1.98849e-05 4.24287e-06 0)
(-2.06398e-05 2.63374e-06 0)
(-2.09577e-05 1.13479e-06 0)
(-2.0872e-05 -2.22529e-07 0)
(-2.04253e-05 -1.42278e-06 0)
(-1.96581e-05 -2.44727e-06 0)
(-1.8625e-05 -3.28827e-06 0)
(-1.73747e-05 -3.94611e-06 0)
(-1.59622e-05 -4.41931e-06 0)
(-1.44436e-05 -4.72036e-06 0)
(-1.2864e-05 -4.8607e-06 0)
(-1.12723e-05 -4.85045e-06 0)
(-9.71185e-06 -4.71775e-06 0)
(-8.21938e-06 -4.48156e-06 0)
(-6.8262e-06 -4.16435e-06 0)
(-5.55842e-06 -3.79305e-06 0)
(-4.42123e-06 -3.39138e-06 0)
(-3.42469e-06 -2.98898e-06 0)
(-2.57174e-06 -2.60549e-06 0)
(-1.84627e-06 -2.26409e-06 0)
(-1.23135e-06 -1.9841e-06 0)
(-7.03029e-07 -1.78595e-06 0)
(-2.28071e-07 -1.68168e-06 0)
(-9.49917e-06 0.000236563 0)
(-2.83004e-05 0.000233505 0)
(-4.68513e-05 0.000228839 0)
(-6.48318e-05 0.000221869 0)
(-8.19319e-05 0.000212695 0)
(-9.78611e-05 0.000201432 0)
(-0.000112593 0.00018837 0)
(-0.000125666 0.000173665 0)
(-0.000137351 0.000157916 0)
(-0.000147498 0.000141388 0)
(-0.000155702 0.000124757 0)
(-0.000161719 0.000108396 0)
(-0.000165198 9.28695e-05 0)
(-0.000166359 7.84151e-05 0)
(-0.000164848 6.52785e-05 0)
(-0.000160938 5.35624e-05 0)
(-0.000154662 4.33258e-05 0)
(-0.000146027 3.49417e-05 0)
(-0.000135683 2.84997e-05 0)
(-0.000124212 2.41956e-05 0)
(-0.000112235 2.21164e-05 0)
(-0.000100644 2.23696e-05 0)
(-8.99441e-05 2.50252e-05 0)
(-8.19239e-05 3.00523e-05 0)
(-7.58839e-05 3.74823e-05 0)
(-7.20817e-05 4.70834e-05 0)
(-7.15717e-05 5.87872e-05 0)
(-7.17875e-05 7.23759e-05 0)
(-7.38233e-05 8.76219e-05 0)
(-7.73494e-05 0.000103029 0)
(-8.27423e-05 0.00011837 0)
(-9.12902e-05 0.00013295 0)
(-0.000101807 0.000146266 0)
(-0.000115094 0.000157959 0)
(-0.000130837 0.000167653 0)
(-0.000148139 0.000174819 0)
(-0.000166475 0.000179473 0)
(-0.000185673 0.000181283 0)
(-0.000205636 0.000180247 0)
(-0.000225489 0.000176389 0)
(-0.000244993 0.000169731 0)
(-0.000264013 0.000160374 0)
(-0.000282069 0.000148451 0)
(-0.000298934 0.000134093 0)
(-0.000314276 0.000117518 0)
(-0.000327663 9.89955e-05 0)
(-0.000339061 7.85683e-05 0)
(-0.000348423 5.65623e-05 0)
(-0.000355378 3.32792e-05 0)
(-0.000359988 8.94878e-06 0)
(-0.000361931 -1.59495e-05 0)
(-0.00036079 -4.13964e-05 0)
(-0.00035653 -6.70139e-05 0)
(-0.00034986 -9.25252e-05 0)
(-0.000340508 -0.000117652 0)
(-0.000328032 -0.0001421 0)
(-0.000313112 -0.000165384 0)
(-0.000295469 -0.000187382 0)
(-0.000275239 -0.000207703 0)
(-0.000252711 -0.000226087 0)
(-0.000227944 -0.000242319 0)
(-0.000201363 -0.00025601 0)
(-0.000173341 -0.000267143 0)
(-0.000143816 -0.000275386 0)
(-0.000113354 -0.000280656 0)
(-8.2378e-05 -0.000282796 0)
(-5.10868e-05 -0.000281751 0)
(-1.99485e-05 -0.000277391 0)
(1.05983e-05 -0.000269841 0)
(4.01653e-05 -0.000259064 0)
(6.83773e-05 -0.000245201 0)
(9.48369e-05 -0.000228394 0)
(0.000119125 -0.000208853 0)
(0.000140873 -0.000186823 0)
(0.000159767 -0.000162597 0)
(0.000175463 -0.000136532 0)
(0.000187768 -0.000109005 0)
(0.000196398 -8.04756e-05 0)
(0.000201282 -5.13514e-05 0)
(0.00020224 -2.21691e-05 0)
(0.000199198 6.57864e-06 0)
(0.000192363 3.4486e-05 0)
(0.000181848 6.1e-05 0)
(0.000167789 8.55897e-05 0)
(0.000150436 0.000107843 0)
(0.000130119 0.000127282 0)
(0.00010727 0.000143562 0)
(8.23805e-05 0.000156308 0)
(5.59624e-05 0.000165301 0)
(2.86048e-05 0.000170284 0)
(9.04908e-07 0.000171225 0)
(-2.64927e-05 0.000168059 0)
(-5.29619e-05 0.000160888 0)
(-7.78776e-05 0.000149875 0)
(-0.000100623 0.000135302 0)
(-0.000120583 0.000117509 0)
(-0.000137316 9.6963e-05 0)
(-0.000150435 7.42321e-05 0)
(-0.000159543 4.99048e-05 0)
(-0.000164353 2.46059e-05 0)
(-0.000164727 -9.50938e-07 0)
(-0.000160784 -2.6132e-05 0)
(-0.00015264 -5.0202e-05 0)
(-0.000140517 -7.25099e-05 0)
(-0.000124703 -9.23988e-05 0)
(-0.000105712 -0.000109341 0)
(-8.4155e-05 -0.000122889 0)
(-6.06815e-05 -0.000132671 0)
(-3.5968e-05 -0.00013846 0)
(-1.07936e-05 -0.000140192 0)
(1.40891e-05 -0.00013783 0)
(3.79487e-05 -0.000131637 0)
(6.00703e-05 -0.00012181 0)
(7.98524e-05 -0.00010883 0)
(9.67405e-05 -9.31667e-05 0)
(0.000110294 -7.54182e-05 0)
(0.000120228 -5.62075e-05 0)
(0.000126372 -3.61974e-05 0)
(0.000128655 -1.60659e-05 0)
(0.000127231 3.56693e-06 0)
(0.000122267 2.20996e-05 0)
(0.000114055 3.90077e-05 0)
(0.000103018 5.38027e-05 0)
(8.96479e-05 6.61755e-05 0)
(7.4452e-05 7.584e-05 0)
(5.7994e-05 8.26737e-05 0)
(4.08614e-05 8.66294e-05 0)
(2.35735e-05 8.77628e-05 0)
(6.70457e-06 8.62158e-05 0)
(-9.25347e-06 8.22321e-05 0)
(-2.39469e-05 7.60856e-05 0)
(-3.69838e-05 6.8105e-05 0)
(-4.80803e-05 5.86748e-05 0)
(-5.70282e-05 4.81719e-05 0)
(-6.37322e-05 3.70008e-05 0)
(-6.81543e-05 2.55349e-05 0)
(-7.02698e-05 1.41275e-05 0)
(-7.02123e-05 3.12597e-06 0)
(-6.81176e-05 -7.19597e-06 0)
(-6.4173e-05 -1.66054e-05 0)
(-5.85963e-05 -2.48874e-05 0)
(-5.1675e-05 -3.1921e-05 0)
(-4.36663e-05 -3.7564e-05 0)
(-3.48478e-05 -4.18168e-05 0)
(-2.54915e-05 -4.46511e-05 0)
(-1.5897e-05 -4.61185e-05 0)
(-6.34246e-06 -4.6249e-05 0)
(2.98537e-06 -4.51939e-05 0)
(1.18234e-05 -4.3056e-05 0)
(2.0009e-05 -3.99686e-05 0)
(2.73898e-05 -3.61007e-05 0)
(3.38196e-05 -3.16125e-05 0)
(3.92144e-05 -2.66554e-05 0)
(4.35054e-05 -2.14098e-05 0)
(4.66666e-05 -1.60102e-05 0)
(4.86886e-05 -1.06228e-05 0)
(4.96041e-05 -5.36498e-06 0)
(4.94666e-05 -3.5541e-07 0)
(4.83417e-05 4.30163e-06 0)
(4.631e-05 8.51518e-06 0)
(4.34784e-05 1.22363e-05 0)
(3.99563e-05 1.54003e-05 0)
(3.58641e-05 1.80032e-05 0)
(3.13317e-05 1.99943e-05 0)
(2.64775e-05 2.14162e-05 0)
(2.14227e-05 2.22589e-05 0)
(1.62875e-05 2.25641e-05 0)
(1.11831e-05 2.23663e-05 0)
(6.21481e-06 2.1709e-05 0)
(1.47402e-06 2.06505e-05 0)
(-2.95886e-06 1.92599e-05 0)
(-7.02085e-06 1.7583e-05 0)
(-1.06582e-05 1.56835e-05 0)
(-1.38258e-05 1.36295e-05 0)
(-1.64947e-05 1.14809e-05 0)
(-1.86506e-05 9.2934e-06 0)
(-2.02912e-05 7.12439e-06 0)
(-2.14241e-05 5.01995e-06 0)
(-2.20711e-05 3.02498e-06 0)
(-2.22569e-05 1.17476e-06 0)
(-2.20205e-05 -5.00394e-07 0)
(-2.14108e-05 -1.97328e-06 0)
(-2.04723e-05 -3.22178e-06 0)
(-1.9269e-05 -4.24284e-06 0)
(-1.78545e-05 -5.02985e-06 0)
(-1.62844e-05 -5.59264e-06 0)
(-1.46197e-05 -5.93493e-06 0)
(-1.29098e-05 -6.07926e-06 0)
(-1.12077e-05 -6.04238e-06 0)
(-9.55526e-06 -5.85352e-06 0)
(-7.99048e-06 -5.53191e-06 0)
(-6.54913e-06 -5.1219e-06 0)
(-5.25118e-06 -4.64223e-06 0)
(-4.10519e-06 -4.12685e-06 0)
(-3.12072e-06 -3.61367e-06 0)
(-2.29372e-06 -3.12678e-06 0)
(-1.61097e-06 -2.69183e-06 0)
(-1.05337e-06 -2.34085e-06 0)
(-5.91244e-07 -2.08994e-06 0)
(-1.90177e-07 -1.95841e-06 0)
(-1.8743e-05 0.000416494 0)
(-5.56907e-05 0.00041019 0)
(-9.19144e-05 0.000399729 0)
(-0.000126577 0.000384026 0)
(-0.000159094 0.000363364 0)
(-0.000188383 0.000337884 0)
(-0.000214215 0.000308179 0)
(-0.000234984 0.000274524 0)
(-0.000250426 0.000238807 0)
(-0.000260129 0.000200861 0)
(-0.000263603 0.000162225 0)
(-0.000261292 0.00012361 0)
(-0.000253742 8.5967e-05 0)
(-0.000242702 5.06215e-05 0)
(-0.000228824 1.87381e-05 0)