/*--------------------------------*- C++ -*----------------------------------*\
  =========                 |
  \\      /  F ield         | OpenFOAM: The Open Source CFD Toolbox
   \\    /   O peration     | Website:  https://openfoam.org
    \\  /    A nd           | Version:  12
     \\/     M anipulation  |
\*---------------------------------------------------------------------------*/
FoamFile
{
    format      ascii;
    class       volScalarField;
    location    "8.94";
    object      p;
}
// * * * * * * * * * * * * * * * * * * * * * * * * * * * * * * * * * * * * * //

dimensions      [1 -1 -2 0 0 0 0];

internalField   nonuniform List<scalar> 
3829
(
-616.435
-616.434
-616.433
-616.43
-616.428
-616.424
-616.419
-616.414
-616.407
-616.399
-616.391
-616.381
-616.369
-616.357
-616.343
-616.327
-616.31
-616.291
-616.271
-616.248
-616.224
-616.198
-616.17
-616.14
-616.109
-616.075
-616.04
-616.003
-615.964
-615.924
-615.882
-615.839
-615.795
-615.75
-615.705
-615.659
-615.613
-615.567
-615.521
-615.476
-615.432
-615.389
-615.347
-615.307
-615.269
-615.233
-615.199
-615.168
-615.139
-615.113
-615.09
-615.07
-615.052
-615.037
-615.026
-615.016
-615.01
-615.006
-615.004
-615.004
-615.005
-615.009
-615.013
-615.018
-615.023
-615.028
-615.032
-615.036
-615.038
-615.038
-615.036
-615.031
-615.024
-615.013
-614.998
-614.98
-614.958
-614.932
-614.901
-614.867
-614.828
-614.787
-614.742
-614.694
-614.644
-614.592
-614.54
-614.487
-614.434
-614.383
-614.333
-614.287
-614.244
-614.205
-614.172
-614.144
-614.122
-614.107
-614.099
-614.099
-614.105
-614.118
-614.137
-614.162
-614.192
-614.225
-614.261
-614.299
-614.337
-614.374
-614.409
-614.441
-614.467
-614.488
-614.503
-614.51
-614.51
-614.502
-614.486
-614.464
-614.435
-614.402
-614.364
-614.325
-614.285
-614.247
-614.211
-614.18
-614.155
-614.137
-614.127
-614.124
-614.13
-614.144
-614.165
-614.191
-614.221
-614.253
-614.286
-614.317
-614.345
-614.368
-614.386
-614.398
-614.401
-614.398
-614.39
-614.378
-614.363
-614.346
-614.331
-614.319
-614.31
-614.306
-614.307
-614.313
-614.323
-614.337
-614.352
-614.367
-614.381
-614.391
-614.397
-614.398
-614.394
-614.384
-614.371
-614.35
-614.332
-614.314
-614.298
-614.285
-614.276
-614.272
-614.274
-614.28
-614.29
-614.303
-614.318
-614.333
-614.346
-614.357
-614.365
-614.37
-614.371
-614.369
-614.365
-614.359
-614.353
-614.347
-614.342
-614.339
-614.338
-614.339
-614.342
-614.347
-614.352
-614.357
-614.361
-614.363
-1774.87
-1774.87
-1774.87
-1774.86
-1774.86
-1774.86
-1774.86
-1774.85
-1774.85
-1774.84
-1774.84
-1774.83
-1774.82
-1774.81
-1774.8
-1774.78
-1774.77
-1774.75
-1774.73
-1774.71
-1774.68
-1774.65
-1774.62
-1774.59
-1774.55
-1774.51
-1774.47
-1774.43
-1774.38
-1774.33
-1774.28
-1774.23
-1774.18
-1774.13
-1774.07
-1774.01
-1773.96
-1773.9
-1773.85
-1773.8
-1773.74
-1773.69
-1773.65
-1773.6
-1773.56
-1773.52
-1773.48
-1773.45
-1773.42
-1773.39
-1773.37
-1773.35
-1773.34
-1773.33
-1773.32
-1773.32
-1773.32
-1773.32
-1773.33
-1773.33
-1773.34
-1773.35
-1773.37
-1773.38
-1773.39
-1773.41
-1773.42
-1773.43
-1773.44
-1773.45
-1773.45
-1773.45
-1773.45
-1773.44
-1773.42
-1773.41
-1773.38
-1773.36
-1773.32
-1773.28
-1773.24
-1773.19
-1773.14
-1773.09
-1773.03
-1772.97
-1772.91
-1772.85
-1772.78
-1772.72
-1772.67
-1772.61
-1772.56
-1772.52
-1772.48
-1772.45
-1772.43
-1772.41
-1772.41
-1772.41
-1772.42
-1772.44
-1772.46
-1772.49
-1772.53
-1772.57
-1772.62
-1772.67
-1772.72
-1772.76
-1772.8
-1772.84
-1772.88
-1772.9
-1772.92
-1772.93
-1772.93
-1772.91
-1772.89
-1772.87
-1772.83
-1772.79
-1772.74
-1772.7
-1772.65
-1772.6
-1772.56
-1772.52
-1772.49
-1772.47
-1772.46
-1772.46
-1772.47
-1772.49
-1772.51
-1772.55
-1772.58
-1772.62
-1772.66
-1772.7
-1772.73
-1772.76
-1772.78
-1772.79
-1772.79
-1772.78
-1772.77
-1772.76
-1772.74
-1772.71
-1772.69
-1772.68
-1772.67
-1772.66
-1772.66
-1772.67
-1772.69
-1772.7
-1772.72
-1772.74
-1772.76
-1772.77
-1772.78
-1772.78
-1772.77
-1772.76
-1772.74
-1772.72
-1772.7
-1772.68
-1772.66
-1772.65
-1772.64
-1772.63
-1772.64
-1772.64
-1772.66
-1772.67
-1772.69
-1772.7
-1772.72
-1772.73
-1772.74
-1772.74
-1772.75
-1772.74
-1772.74
-1772.73
-1772.72
-1772.71
-1772.71
-1772.71
-1772.71
-1772.71
-1772.71
-1772.72
-1772.72
-1772.73
-1772.73
-1772.73
-2801.12
-2801.12
-2801.12
-2801.12
-2801.12
-2801.12
-2801.13
-2801.13
-2801.13
-2801.13
-2801.14
-2801.13
-2801.13
-2801.13
-2801.12
-2801.11
-2801.1
-2801.09
-2801.07
-2801.05
-2801.02
-2800.99
-2800.95
-2800.91
-2800.87
-2800.82
-2800.76
-2800.71
-2800.65
-2800.58
-2800.51
-2800.44
-2800.37
-2800.3
-2800.23
-2800.15
-2800.08
-2800.01
-2799.93
-2799.86
-2799.8
-2799.74
-2799.68
-2799.62
-2799.57
-2799.52
-2799.48
-2799.44
-2799.41
-2799.39
-2799.37
-2799.35
-2799.35
-2799.34
-2799.34
-2799.35
-2799.36
-2799.38
-2799.4
-2799.42
-2799.45
-2799.47
-2799.5
-2799.53
-2799.56
-2799.59
-2799.62
-2799.64
-2799.66
-2799.68
-2799.7
-2799.7
-2799.71
-2799.7
-2799.69
-2799.68
-2799.65
-2799.62
-2799.58
-2799.54
-2799.48
-2799.43
-2799.36
-2799.29
-2799.22
-2799.14
-2799.06
-2798.99
-2798.91
-2798.83
-2798.76
-2798.69
-2798.63
-2798.58
-2798.53
-2798.49
-2798.47
-2798.45
-2798.45
-2798.45
-2798.47
-2798.5
-2798.54
-2798.59
-2798.64
-2798.7
-2798.76
-2798.83
-2798.89
-2798.96
-2799.02
-2799.07
-2799.11
-2799.14
-2799.17
-2799.17
-2799.17
-2799.16
-2799.13
-2799.09
-2799.04
-2798.98
-2798.92
-2798.86
-2798.79
-2798.73
-2798.68
-2798.63
-2798.59
-2798.57
-2798.55
-2798.56
-2798.57
-2798.6
-2798.63
-2798.68
-2798.73
-2798.78
-2798.83
-2798.88
-2798.92
-2798.96
-2798.98
-2798.99
-2798.99
-2798.98
-2798.96
-2798.93
-2798.9
-2798.87
-2798.84
-2798.82
-2798.8
-2798.8
-2798.8
-2798.81
-2798.83
-2798.86
-2798.88
-2798.91
-2798.93
-2798.95
-2798.96
-2798.96
-2798.95
-2798.94
-2798.91
-2798.89
-2798.86
-2798.83
-2798.81
-2798.79
-2798.78
-2798.78
-2798.78
-2798.79
-2798.81
-2798.83
-2798.85
-2798.87
-2798.89
-2798.9
-2798.91
-2798.91
-2798.91
-2798.91
-2798.9
-2798.89
-2798.88
-2798.87
-2798.87
-2798.86
-2798.86
-2798.86
-2798.87
-2798.88
-2798.88
-2798.89
-2798.9
-2798.9
-3710.21
-3710.21
-3710.22
-3710.23
-3710.24
-3710.25
-3710.27
-3710.29
-3710.31
-3710.33
-3710.35
-3710.37
-3710.38
-3710.4
-3710.41
-3710.41
-3710.41
-3710.41
-3710.4
-3710.38
-3710.35
-3710.31
-3710.27
-3710.22
-3710.16
-3710.09
-3710.02
-3709.94
-3709.85
-3709.76
-3709.66
-3709.56
-3709.45
-3709.35
-3709.24
-3709.14
-3709.03
-3708.93
-3708.83
-3708.73
-3708.65
-3708.56
-3708.49
-3708.42
-3708.36
-3708.31
-3708.26
-3708.22
-3708.19
-3708.17
-3708.16
-3708.15
-3708.15
-3708.16
-3708.18
-3708.21
-3708.24
-3708.27
-3708.32
-3708.36
-3708.41
-3708.46
-3708.52
-3708.57
-3708.62
-3708.67
-3708.72
-3708.77
-3708.81
-3708.84
-3708.87
-3708.89
-3708.9
-3708.9
-3708.9
-3708.88
-3708.85
-3708.82
-3708.77
-3708.71
-3708.64
-3708.57
-3708.49
-3708.4
-3708.3
-3708.2
-3708.1
-3707.99
-3707.89
-3707.79
-3707.7
-3707.61
-3707.53
-3707.46
-3707.41
-3707.36
-3707.33
-3707.32
-3707.32
-3707.33
-3707.36
-3707.4
-3707.46
-3707.53
-3707.61
-3707.69
-3707.78
-3707.87
-3707.96
-3708.05
-3708.13
-3708.2
-3708.26
-3708.3
-3708.33
-3708.34
-3708.33
-3708.31
-3708.27
-3708.21
-3708.15
-3708.07
-3707.98
-3707.89
-3707.81
-3707.72
-3707.65
-3707.59
-3707.54
-3707.51
-3707.5
-3707.5
-3707.53
-3707.56
-3707.62
-3707.68
-3707.75
-3707.82
-3707.89
-3707.96
-3708.01
-3708.05
-3708.08
-3708.09
-3708.08
-3708.06
-3708.03
-3707.99
-3707.94
-3707.9
-3707.86
-3707.83
-3707.81
-3707.8
-3707.81
-3707.82
-3707.85
-3707.88
-3707.92
-3707.96
-3707.99
-3708.01
-3708.02
-3708.03
-3708.02
-3708
-3707.97
-3707.93
-3707.9
-3707.86
-3707.83
-3707.81
-3707.8
-3707.8
-3707.8
-3707.82
-3707.84
-3707.86
-3707.89
-3707.91
-3707.93
-3707.95
-3707.96
-3707.96
-3707.96
-3707.95
-3707.94
-3707.93
-3707.92
-3707.91
-3707.9
-3707.9
-3707.89
-3707.9
-3707.9
-3707.91
-3707.92
-3707.93
-3707.94
-3707.94
-4515.45
-4515.45
-4515.47
-4515.49
-4515.53
-4515.57
-4515.61
-4515.67
-4515.72
-4515.78
-4515.84
-4515.9
-4515.95
-4516.01
-4516.05
-4516.09
-4516.11
-4516.13
-4516.13
-4516.12
-4516.09
-4516.06
-4516
-4515.93
-4515.85
-4515.75
-4515.64
-4515.52
-4515.39
-4515.25
-4515.1
-4514.95
-4514.8
-4514.64
-4514.49
-4514.34
-4514.19
-4514.05
-4513.92
-4513.8
-4513.68
-4513.57
-4513.47
-4513.39
-4513.31
-4513.25
-4513.19
-4513.16
-4513.13
-4513.11
-4513.11
-4513.12
-4513.14
-4513.17
-4513.21
-4513.26
-4513.32
-4513.38
-4513.45
-4513.53
-4513.61
-4513.7
-4513.78
-4513.87
-4513.95
-4514.03
-4514.11
-4514.18
-4514.24
-4514.3
-4514.34
-4514.38
-4514.4
-4514.41
-4514.41
-4514.39
-4514.36
-4514.32
-4514.26
-4514.18
-4514.1
-4514
-4513.89
-4513.77
-4513.65
-4513.51
-4513.38
-4513.24
-4513.11
-4512.98
-4512.86
-4512.75
-4512.64
-4512.56
-4512.48
-4512.43
-4512.39
-4512.38
-4512.38
-4512.41
-4512.46
-4512.52
-4512.6
-4512.7
-4512.81
-4512.92
-4513.05
-4513.17
-4513.3
-4513.41
-4513.52
-4513.61
-4513.69
-4513.75
-4513.78
-4513.8
-4513.78
-4513.75
-4513.69
-4513.61
-4513.52
-4513.41
-4513.3
-4513.18
-4513.06
-4512.95
-4512.85
-4512.77
-4512.71
-4512.67
-4512.66
-4512.67
-4512.71
-4512.76
-4512.84
-4512.93
-4513.02
-4513.12
-4513.21
-4513.3
-4513.37
-4513.42
-4513.44
-4513.45
-4513.44
-4513.4
-4513.36
-4513.3
-4513.23
-4513.17
-4513.12
-4513.08
-4513.05
-4513.04
-4513.05
-4513.07
-4513.11
-4513.16
-4513.21
-4513.26
-4513.3
-4513.33
-4513.35
-4513.35
-4513.34
-4513.31
-4513.27
-4513.23
-4513.18
-4513.14
-4513.1
-4513.08
-4513.06
-4513.06
-4513.07
-4513.09
-4513.11
-4513.15
-4513.18
-4513.21
-4513.23
-4513.25
-4513.26
-4513.26
-4513.26
-4513.25
-4513.24
-4513.22
-4513.2
-4513.19
-4513.18
-4513.18
-4513.18
-4513.18
-4513.19
-4513.2
-4513.21
-4513.22
-4513.23
-4513.24
-5228.45
-5228.47
-5228.51
-5228.57
-5228.66
-5228.76
-5228.87
-5228.99
-5229.12
-5229.25
-5229.39
-5229.52
-5229.66
-5229.78
-5229.9
-5230
-5230.08
-5230.14
-5230.18
-5230.19
-5230.17
-5230.13
-5230.06
-5229.96
-5229.83
-5229.68
-5229.51
-5229.31
-5229.11
-5228.89
-5228.67
-5228.44
-5228.21
-5227.99
-5227.77
-5227.55
-5227.35
-5227.15
-5226.97
-5226.8
-5226.66
-5226.53
-5226.41
-5226.31
-5226.22
-5226.16
-5226.1
-5226.07
-5226.05
-5226.05
-5226.07
-5226.1
-5226.14
-5226.2
-5226.27
-5226.35
-5226.45
-5226.55
-5226.66
-5226.78
-5226.9
-5227.02
-5227.15
-5227.27
-5227.39
-5227.51
-5227.62
-5227.72
-5227.82
-5227.9
-5227.96
-5228.02
-5228.05
-5228.07
-5228.07
-5228.06
-5228.02
-5227.96
-5227.88
-5227.79
-5227.68
-5227.55
-5227.41
-5227.26
-5227.09
-5226.92
-5226.75
-5226.57
-5226.4
-5226.24
-5226.08
-5225.93
-5225.8
-5225.69
-5225.6
-5225.54
-5225.5
-5225.48
-5225.5
-5225.53
-5225.6
-5225.69
-5225.8
-5225.93
-5226.08
-5226.24
-5226.4
-5226.57
-5226.74
-5226.89
-5227.03
-5227.15
-5227.25
-5227.32
-5227.37
-5227.38
-5227.36
-5227.31
-5227.23
-5227.12
-5227
-5226.85
-5226.7
-5226.54
-5226.39
-5226.25
-5226.12
-5226.02
-5225.94
-5225.9
-5225.89
-5225.91
-5225.96
-5226.04
-5226.14
-5226.26
-5226.38
-5226.51
-5226.63
-5226.74
-5226.83
-5226.89
-5226.92
-5226.93
-5226.9
-5226.85
-5226.78
-5226.7
-5226.61
-5226.53
-5226.46
-5226.4
-5226.37
-5226.36
-5226.37
-5226.41
-5226.46
-5226.53
-5226.59
-5226.66
-5226.71
-5226.75
-5226.77
-5226.77
-5226.75
-5226.72
-5226.67
-5226.61
-5226.55
-5226.5
-5226.46
-5226.43
-5226.41
-5226.41
-5226.42
-5226.45
-5226.48
-5226.52
-5226.56
-5226.59
-5226.62
-5226.64
-5226.66
-5226.66
-5226.65
-5226.64
-5226.62
-5226.6
-5226.58
-5226.56
-5226.55
-5226.55
-5226.55
-5226.55
-5226.56
-5226.58
-5226.59
-5226.6
-5226.61
-5226.62
-5859.95
-5859.99
-5860.06
-5860.17
-5860.31
-5860.49
-5860.69
-5860.93
-5861.19
-5861.46
-5861.74
-5862.02
-5862.28
-5862.53
-5862.75
-5862.94
-5863.09
-5863.2
-5863.27
-5863.29
-5863.26
-5863.19
-5863.07
-5862.9
-5862.68
-5862.43
-5862.14
-5861.83
-5861.5
-5861.16
-5860.82
-5860.48
-5860.15
-5859.83
-5859.53
-5859.24
-5858.97
-5858.72
-5858.5
-5858.3
-5858.11
-5857.95
-5857.81
-5857.69
-5857.6
-5857.54
-5857.49
-5857.47
-5857.47
-5857.49
-5857.53
-5857.58
-5857.66
-5857.76
-5857.87
-5857.99
-5858.13
-5858.28
-5858.43
-5858.6
-5858.77
-5858.94
-5859.11
-5859.28
-5859.45
-5859.61
-5859.76
-5859.9
-5860.02
-5860.13
-5860.22
-5860.29
-5860.34
-5860.37
-5860.37
-5860.35
-5860.31
-5860.24
-5860.14
-5860.02
-5859.88
-5859.72
-5859.54
-5859.34
-5859.14
-5858.92
-5858.7
-5858.48
-5858.26
-5858.05
-5857.85
-5857.67
-5857.51
-5857.37
-5857.26
-5857.18
-5857.13
-5857.12
-5857.14
-5857.2
-5857.29
-5857.41
-5857.56
-5857.73
-5857.93
-5858.13
-5858.35
-5858.56
-5858.77
-5858.97
-5859.15
-5859.3
-5859.43
-5859.52
-5859.57
-5859.57
-5859.55
-5859.48
-5859.37
-5859.24
-5859.07
-5858.88
-5858.69
-5858.48
-5858.29
-5858.11
-5857.95
-5857.82
-5857.73
-5857.68
-5857.67
-5857.7
-5857.77
-5857.88
-5858.01
-5858.16
-5858.33
-5858.5
-5858.65
-5858.78
-5858.89
-5858.96
-5859
-5859
-5858.96
-5858.89
-5858.8
-5858.69
-5858.57
-5858.46
-5858.37
-5858.3
-5858.25
-5858.24
-5858.27
-5858.32
-5858.39
-5858.47
-5858.56
-5858.64
-5858.71
-5858.76
-5858.79
-5858.79
-5858.76
-5858.71
-5858.65
-5858.58
-5858.51
-5858.44
-5858.39
-5858.35
-5858.33
-5858.33
-5858.35
-5858.38
-5858.43
-5858.48
-5858.52
-5858.56
-5858.6
-5858.62
-5858.63
-5858.64
-5858.63
-5858.61
-5858.59
-5858.56
-5858.54
-5858.52
-5858.5
-5858.5
-5858.5
-5858.5
-5858.52
-5858.53
-5858.55
-5858.57
-5858.58
-5858.59
-6418.24
-6418.3
-6418.43
-6418.62
-6418.88
-6419.21
-6419.61
-6420.08
-6420.57
-6421.07
-6421.57
-6422.05
-6422.51
-6422.93
-6423.31
-6423.64
-6423.91
-6424.12
-6424.27
-6424.34
-6424.34
-6424.26
-6424.1
-6423.86
-6423.55
-6423.18
-6422.74
-6422.26
-6421.76
-6421.25
-6420.76
-6420.28
-6419.83
-6419.4
-6418.99
-6418.62
-6418.28
-6417.97
-6417.7
-6417.46
-6417.26
-6417.08
-6416.93
-6416.82
-6416.73
-6416.67
-6416.64
-6416.64
-6416.67
-6416.71
-6416.79
-6416.88
-6417
-6417.14
-6417.3
-6417.47
-6417.66
-6417.86
-6418.07
-6418.29
-6418.51
-6418.74
-6418.97
-6419.19
-6419.41
-6419.61
-6419.81
-6419.99
-6420.15
-6420.29
-6420.41
-6420.5
-6420.56
-6420.6
-6420.61
-6420.58
-6420.52
-6420.43
-6420.31
-6420.17
-6419.99
-6419.79
-6419.56
-6419.32
-6419.06
-6418.79
-6418.52
-6418.24
-6417.97
-6417.71
-6417.47
-6417.24
-6417.04
-6416.88
-6416.75
-6416.65
-6416.6
-6416.59
-6416.63
-6416.7
-6416.82
-6416.98
-6417.17
-6417.39
-6417.63
-6417.89
-6418.16
-6418.44
-6418.7
-6418.95
-6419.17
-6419.36
-6419.51
-6419.62
-6419.67
-6419.68
-6419.64
-6419.55
-6419.41
-6419.24
-6419.03
-6418.79
-6418.54
-6418.29
-6418.05
-6417.82
-6417.63
-6417.47
-6417.36
-6417.3
-6417.3
-6417.34
-6417.44
-6417.57
-6417.75
-6417.94
-6418.15
-6418.36
-6418.55
-6418.71
-6418.84
-6418.93
-6418.97
-6418.96
-6418.9
-6418.81
-6418.69
-6418.54
-6418.4
-6418.26
-6418.14
-6418.05
-6418
-6417.99
-6418.02
-6418.09
-6418.18
-6418.29
-6418.4
-6418.51
-6418.59
-6418.65
-6418.68
-6418.68
-6418.64
-6418.58
-6418.5
-6418.42
-6418.33
-6418.25
-6418.19
-6418.15
-6418.13
-6418.13
-6418.15
-6418.19
-6418.25
-6418.3
-6418.36
-6418.41
-6418.45
-6418.47
-6418.49
-6418.49
-6418.47
-6418.45
-6418.42
-6418.39
-6418.37
-6418.34
-6418.33
-6418.32
-6418.32
-6418.33
-6418.35
-6418.37
-6418.39
-6418.41
-6418.42
-6418.43
-6912.13
-6912.24
-6912.48
-6912.84
-6913.33
-6913.93
-6914.66
-6915.49
-6916.4
-6917.34
-6918.27
-6919.16
-6919.99
-6920.73
-6921.38
-6921.93
-6922.36
-6922.68
-6922.88
-6922.95
-6922.89
-6922.71
-6922.4
-6921.95
-6921.39
-6920.7
-6919.91
-6919.06
-6918.21
-6917.41
-6916.66
-6915.99
-6915.37
-6914.82
-6914.31
-6913.85
-6913.47
-6913.15
-6912.85
-6912.59
-6912.37
-6912.19
-6912.05
-6911.94
-6911.87
-6911.83
-6911.82
-6911.85
-6911.9
-6911.99
-6912.1
-6912.24
-6912.41
-6912.6
-6912.81
-6913.03
-6913.28
-6913.54
-6913.81
-6914.09
-6914.37
-6914.66
-6914.94
-6915.22
-6915.5
-6915.75
-6916
-6916.22
-6916.42
-6916.6
-6916.74
-6916.86
-6916.94
-6916.98
-6916.99
-6916.96
-6916.88
-6916.78
-6916.63
-6916.45
-6916.23
-6915.98
-6915.71
-6915.41
-6915.09
-6914.77
-6914.43
-6914.1
-6913.77
-6913.45
-6913.16
-6912.89
-6912.65
-6912.46
-6912.3
-6912.19
-6912.13
-6912.13
-6912.18
-6912.28
-6912.43
-6912.62
-6912.86
-6913.14
-6913.44
-6913.76
-6914.09
-6914.42
-6914.74
-6915.04
-6915.31
-6915.54
-6915.72
-6915.85
-6915.91
-6915.92
-6915.86
-6915.75
-6915.57
-6915.35
-6915.09
-6914.81
-6914.5
-6914.19
-6913.9
-6913.63
-6913.39
-6913.21
-6913.08
-6913.01
-6913.01
-6913.07
-6913.19
-6913.37
-6913.58
-6913.82
-6914.08
-6914.33
-6914.56
-6914.76
-6914.91
-6915.01
-6915.05
-6915.03
-6914.96
-6914.84
-6914.68
-6914.5
-6914.32
-6914.15
-6914
-6913.9
-6913.84
-6913.84
-6913.88
-6913.96
-6914.08
-6914.21
-6914.35
-6914.48
-6914.58
-6914.65
-6914.68
-6914.67
-6914.63
-6914.56
-6914.46
-6914.36
-6914.25
-6914.16
-6914.09
-6914.04
-6914.02
-6914.03
-6914.06
-6914.11
-6914.17
-6914.24
-6914.3
-6914.36
-6914.4
-6914.43
-6914.44
-6914.44
-6914.42
-6914.4
-6914.36
-6914.33
-6914.29
-6914.27
-6914.25
-6914.24
-6914.24
-6914.26
-6914.27
-6914.3
-6914.32
-6914.34
-6914.36
-6914.37
-7347.84
-7348
-7348.33
-7348.84
-7349.54
-7350.45
-7351.63
-7353.24
-7355.3
-7357.05
-7358.52
-7359.77
-7360.86
-7361.81
-7362.65
-7363.36
-7363.93
-7364.34
-7364.61
-7364.72
-7364.66
-7364.43
-7364.02
-7363.44
-7362.69
-7361.74
-7360.46
-7358.8
-7357.49
-7356.38
-7355.46
-7354.68
-7353.99
-7353.39
-7352.86
-7352.39
-7351.94
-7351.56
-7351.24
-7350.98
-7350.76
-7350.59
-7350.47
-7350.38
-7350.33
-7350.32
-7350.35
-7350.41
-7350.5
-7350.63
-7350.79
-7350.98
-7351.19
-7351.44
-7351.7
-7351.99
-7352.3
-7352.62
-7352.96
-7353.3
-7353.65
-7354
-7354.35
-7354.69
-7355.02
-7355.33
-7355.62
-7355.89
-7356.14
-7356.35
-7356.52
-7356.66
-7356.75
-7356.8
-7356.81
-7356.77
-7356.68
-7356.55
-7356.37
-7356.15
-7355.89
-7355.6
-7355.27
-7354.91
-7354.53
-7354.14
-7353.74
-7353.35
-7352.96
-7352.58
-7352.23
-7351.92
-7351.64
-7351.41
-7351.23
-7351.1
-7351.04
-7351.04
-7351.1
-7351.23
-7351.41
-7351.65
-7351.94
-7352.28
-7352.64
-7353.03
-7353.42
-7353.82
-7354.2
-7354.56
-7354.88
-7355.15
-7355.36
-7355.5
-7355.58
-7355.58
-7355.51
-7355.36
-7355.15
-7354.88
-7354.57
-7354.22
-7353.86
-7353.48
-7353.13
-7352.81
-7352.54
-7352.32
-7352.17
-7352.1
-7352.11
-7352.19
-7352.34
-7352.55
-7352.81
-7353.1
-7353.41
-7353.71
-7353.98
-7354.22
-7354.4
-7354.51
-7354.55
-7354.52
-7354.42
-7354.27
-7354.08
-7353.86
-7353.64
-7353.43
-7353.26
-7353.14
-7353.07
-7353.07
-7353.12
-7353.23
-7353.37
-7353.53
-7353.7
-7353.85
-7353.97
-7354.05
-7354.09
-7354.08
-7354.02
-7353.93
-7353.82
-7353.69
-7353.57
-7353.47
-7353.38
-7353.33
-7353.31
-7353.32
-7353.36
-7353.42
-7353.49
-7353.57
-7353.64
-7353.71
-7353.76
-7353.79
-7353.8
-7353.79
-7353.77
-7353.74
-7353.7
-7353.66
-7353.63
-7353.6
-7353.58
-7353.57
-7353.57
-7353.58
-7353.61
-7353.63
-7353.66
-7353.69
-7353.71
-7353.72
-7732.12
-7732.32
-7732.73
-7733.39
-7734.36
-7735.72
-7737.59
-7739.94
-7743.13
-7745.9
-7748.32
-7750.47
-7752.32
-7753.88
-7755.13
-7756.12
-7756.87
-7757.41
-7757.73
-7757.83
-7757.71
-7757.35
-7756.74
-7755.83
-7754.57
-7752.98
-7750.96
-7748.14
-7746.34
-7744.89
-7743.67
-7742.72
-7741.95
-7741.3
-7740.77
-7740.33
-7739.95
-7739.62
-7739.34
-7739.11
-7738.93
-7738.78
-7738.68
-7738.63
-7738.61
-7738.63
-7738.69
-7738.79
-7738.93
-7739.1
-7739.31
-7739.55
-7739.82
-7740.12
-7740.45
-7740.8
-7741.17
-7741.56
-7741.96
-7742.37
-7742.79
-7743.21
-7743.62
-7744.02
-7744.41
-7744.78
-7745.13
-7745.45
-7745.73
-7745.98
-7746.18
-7746.34
-7746.45
-7746.51
-7746.51
-7746.47
-7746.36
-7746.2
-7745.99
-7745.73
-7745.43
-7745.08
-7744.69
-7744.27
-7743.83
-7743.37
-7742.9
-7742.44
-7741.98
-7741.55
-7741.14
-7740.78
-7740.45
-7740.19
-7739.98
-7739.84
-7739.78
-7739.78
-7739.86
-7740.02
-7740.24
-7740.53
-7740.87
-7741.26
-7741.69
-7742.15
-7742.61
-7743.08
-7743.52
-7743.94
-7744.31
-7744.62
-7744.86
-7745.03
-7745.11
-7745.11
-7745.01
-7744.84
-7744.59
-7744.27
-7743.9
-7743.49
-7743.06
-7742.63
-7742.22
-7741.84
-7741.53
-7741.28
-7741.11
-7741.03
-7741.04
-7741.15
-7741.33
-7741.59
-7741.89
-7742.24
-7742.6
-7742.95
-7743.27
-7743.54
-7743.74
-7743.87
-7743.91
-7743.87
-7743.75
-7743.56
-7743.33
-7743.07
-7742.8
-7742.56
-7742.37
-7742.22
-7742.15
-7742.15
-7742.22
-7742.34
-7742.51
-7742.71
-7742.9
-7743.08
-7743.22
-7743.31
-7743.35
-7743.33
-7743.27
-7743.16
-7743.03
-7742.88
-7742.75
-7742.63
-7742.53
-7742.47
-7742.45
-7742.47
-7742.51
-7742.58
-7742.67
-7742.76
-7742.84
-7742.91
-7742.96
-7743
-7743.01
-7743
-7742.98
-7742.94
-7742.89
-7742.85
-7742.81
-7742.77
-7742.75
-7742.74
-7742.75
-7742.76
-7742.79
-7742.82
-7742.85
-7742.88
-7742.9
-7742.91
-8071.22
-8071.33
-8071.55
-8071.87
-8072.27
-8072.73
-8073.04
-8073.46
-8087.24
-8086.68
-8086.5
-8086.15
-8085.74
-8085.29
-8084.83
-8084.37
-8083.95
-8083.55
-8083.24
-8082.99
-8082.79
-8082.64
-8082.53
-8082.46
-8082.44
-8082.45
-8082.51
-8082.61
-8082.75
-8082.93
-8083.15
-8083.41
-8083.7
-8084.03
-8084.39
-8084.78
-8085.19
-8085.63
-8086.09
-8086.56
-8087.04
-8087.52
-8088.01
-8088.49
-8088.96
-8089.41
-8089.83
-8090.23
-8090.6
-8090.93
-8091.21
-8091.44
-8091.63
-8091.75
-8091.82
-8091.82
-8091.76
-8091.64
-8091.45
-8091.21
-8090.9
-8090.55
-8090.14
-8089.7
-8089.21
-8088.7
-8088.18
-8087.64
-8087.1
-8086.58
-8086.09
-8085.62
-8085.2
-8084.84
-8084.54
-8084.31
-8084.15
-8084.08
-8084.09
-8084.19
-8084.38
-8084.64
-8084.97
-8085.37
-8085.83
-8086.33
-8086.85
-8087.39
-8087.92
-8088.44
-8088.91
-8089.33
-8089.69
-8089.96
-8090.15
-8090.24
-8090.22
-8090.11
-8089.9
-8089.61
-8089.24
-8088.81
-8088.33
-8087.84
-8087.34
-8086.87
-8086.45
-8086.09
-8085.8
-8085.62
-8085.53
-8085.56
-8085.68
-8085.9
-8086.2
-8086.56
-8086.96
-8087.37
-8087.77
-8088.14
-8088.45
-8088.67
-8088.81
-8088.85
-8088.79
-8088.65
-8088.43
-8088.16
-8087.86
-8087.54
-8087.27
-8087.04
-8086.88
-8086.8
-8086.81
-8086.89
-8087.04
-8087.24
-8087.46
-8087.69
-8087.89
-8088.05
-8088.15
-8088.19
-8088.17
-8088.09
-8087.97
-8087.82
-8087.65
-8087.5
-8087.36
-8087.26
-8087.2
-8087.18
-8087.2
-8087.25
-8087.33
-8087.42
-8087.52
-8087.62
-8087.69
-8087.75
-8087.79
-8087.8
-8087.79
-8087.76
-8087.72
-8087.67
-8087.62
-8087.57
-8087.53
-8087.51
-8087.5
-8087.5
-8087.52
-8087.55
-8087.58
-8087.62
-8087.65
-8087.68
-8087.69
-8370.67
-8370.71
-8370.79
-8370.9
-8371.03
-8371.16
-8371.28
-8371.42
-8390.23
-8389.82
-8389.53
-8389.23
-8388.89
-8388.56
-8388.28
-8388.03
-8387.82
-8387.64
-8387.45
-8387.28
-8387.13
-8387.02
-8386.94
-8386.91
-8386.92
-8386.97
-8387.06
-8387.2
-8387.38
-8387.6
-8387.87
-8388.18
-8388.53
-8388.91
-8389.33
-8389.78
-8390.26
-8390.76
-8391.29
-8391.83
-8392.37
-8392.93
-8393.48
-8394.03
-8394.56
-8395.07
-8395.56
-8396.01
-8396.43
-8396.8
-8397.12
-8397.38
-8397.58
-8397.72
-8397.79
-8397.79
-8397.72
-8397.58
-8397.36
-8397.08
-8396.74
-8396.33
-8395.87
-8395.36
-8394.81
-8394.23
-8393.64
-8393.03
-8392.42
-8391.84
-8391.27
-8390.75
-8390.28
-8389.87
-8389.54
-8389.28
-8389.11
-8389.04
-8389.06
-8389.18
-8389.39
-8389.69
-8390.08
-8390.53
-8391.05
-8391.62
-8392.22
-8392.83
-8393.43
-8394.01
-8394.55
-8395.02
-8395.42
-8395.72
-8395.93
-8396.02
-8396
-8395.87
-8395.63
-8395.29
-8394.86
-8394.37
-8393.83
-8393.27
-8392.71
-8392.18
-8391.7
-8391.3
-8390.98
-8390.78
-8390.69
-8390.72
-8390.87
-8391.12
-8391.47
-8391.88
-8392.33
-8392.81
-8393.26
-8393.67
-8394.01
-8394.27
-8394.42
-8394.46
-8394.38
-8394.21
-8393.96
-8393.64
-8393.3
-8392.94
-8392.63
-8392.37
-8392.2
-8392.11
-8392.12
-8392.22
-8392.39
-8392.62
-8392.88
-8393.14
-8393.36
-8393.54
-8393.65
-8393.7
-8393.67
-8393.57
-8393.43
-8393.26
-8393.08
-8392.9
-8392.75
-8392.64
-8392.58
-8392.56
-8392.58
-8392.64
-8392.73
-8392.84
-8392.95
-8393.05
-8393.13
-8393.2
-8393.23
-8393.24
-8393.23
-8393.2
-8393.15
-8393.09
-8393.04
-8392.99
-8392.95
-8392.92
-8392.91
-8392.92
-8392.94
-8392.97
-8393.01
-8393.05
-8393.08
-8393.11
-8393.12
-8635.89
-8635.92
-8635.97
-8636.05
-8636.16
-8636.28
-8636.38
-8636.54
-8658.94
-8658.79
-8658.62
-8658.4
-8658.16
-8657.91
-8657.67
-8657.44
-8657.24
-8657.07
-8656.91
-8656.77
-8656.66
-8656.58
-8656.53
-8656.53
-8656.57
-8656.65
-8656.78
-8656.95
-8657.17
-8657.44
-8657.75
-8658.11
-8658.51
-8658.95
-8659.42
-8659.94
-8660.48
-8661.05
-8661.64
-8662.25
-8662.86
-8663.49
-8664.11
-8664.72
-8665.31
-8665.89
-8666.43
-8666.94
-8667.4
-8667.81
-8668.16
-8668.46
-8668.68
-8668.83
-8668.91
-8668.9
-8668.82
-8668.66
-8668.42
-8668.1
-8667.71
-8667.25
-8666.73
-8666.16
-8665.55
-8664.9
-8664.23
-8663.56
-8662.88
-8662.23
-8661.6
-8661.02
-8660.5
-8660.05
-8659.68
-8659.4
-8659.21
-8659.14
-8659.17
-8659.3
-8659.55
-8659.89
-8660.32
-8660.84
-8661.42
-8662.06
-8662.73
-8663.41
-8664.08
-8664.73
-8665.32
-8665.85
-8666.29
-8666.63
-8666.85
-8666.95
-8666.92
-8666.76
-8666.49
-8666.1
-8665.62
-8665.07
-8664.47
-8663.84
-8663.22
-8662.63
-8662.09
-8661.65
-8661.3
-8661.08
-8660.99
-8661.03
-8661.2
-8661.49
-8661.88
-8662.35
-8662.86
-8663.38
-8663.89
-8664.35
-8664.72
-8665
-8665.16
-8665.2
-8665.11
-8664.91
-8664.62
-8664.27
-8663.88
-8663.48
-8663.13
-8662.84
-8662.65
-8662.56
-8662.57
-8662.69
-8662.89
-8663.15
-8663.43
-8663.72
-8663.97
-8664.17
-8664.29
-8664.34
-8664.3
-8664.19
-8664.04
-8663.84
-8663.64
-8663.45
-8663.29
-8663.17
-8663.1
-8663.08
-8663.11
-8663.18
-8663.28
-8663.39
-8663.51
-8663.62
-8663.72
-8663.78
-8663.82
-8663.83
-8663.81
-8663.78
-8663.72
-8663.66
-8663.6
-8663.55
-8663.5
-8663.48
-8663.47
-8663.47
-8663.5
-8663.53
-8663.57
-8663.61
-8663.65
-8663.68
-8663.69
-8870.75
-8870.77
-8870.8
-8870.84
-8870.9
-8870.96
-8871
-8871.05
-8897.13
-8897.06
-8896.93
-8896.78
-8896.61
-8896.42
-8896.23
-8896.04
-8895.87
-8895.71
-8895.57
-8895.46
-8895.37
-8895.31
-8895.29
-8895.31
-8895.38
-8895.49
-8895.65
-8895.85
-8896.11
-8896.42
-8896.78
-8897.18
-8897.63
-8898.12
-8898.66
-8899.23
-8899.83
-8900.47
-8901.12
-8901.8
-8902.48
-8903.17
-8903.86
-8904.53
-8905.19
-8905.82
-8906.42
-8906.98
-8907.49
-8907.94
-8908.33
-8908.65
-8908.89
-8909.05
-8909.13
-8909.13
-8909.03
-8908.85
-8908.58
-8908.22
-8907.79
-8907.28
-8906.71
-8906.08
-8905.4
-8904.68
-8903.95
-8903.2
-8902.46
-8901.73
-8901.05
-8900.41
-8899.84
-8899.34
-8898.94
-8898.64
-8898.44
-8898.36
-8898.4
-8898.56
-8898.83
-8899.21
-8899.7
-8900.27
-8900.92
-8901.62
-8902.36
-8903.11
-8903.85
-8904.56
-8905.22
-8905.8
-8906.28
-8906.64
-8906.88
-8906.98
-8906.95
-8906.77
-8906.46
-8906.03
-8905.5
-8904.88
-8904.22
-8903.52
-8902.84
-8902.19
-8901.6
-8901.11
-8900.74
-8900.5
-8900.41
-8900.46
-8900.66
-8900.98
-8901.42
-8901.93
-8902.5
-8903.08
-8903.64
-8904.14
-8904.55
-8904.85
-8905.03
-8905.06
-8904.95
-8904.73
-8904.4
-8904
-8903.57
-8903.13
-8902.75
-8902.43
-8902.22
-8902.12
-8902.14
-8902.28
-8902.5
-8902.79
-8903.11
-8903.43
-8903.71
-8903.92
-8904.05
-8904.1
-8904.05
-8903.93
-8903.76
-8903.54
-8903.32
-8903.11
-8902.94
-8902.81
-8902.74
-8902.72
-8902.75
-8902.83
-8902.94
-8903.07
-8903.2
-8903.32
-8903.41
-8903.49
-8903.52
-8903.53
-8903.51
-8903.47
-8903.41
-8903.35
-8903.28
-8903.22
-8903.18
-8903.15
-8903.14
-8903.15
-8903.17
-8903.21
-8903.25
-8903.3
-8903.34
-8903.37
-8903.39
-9078.76
-9078.77
-9078.78
-9078.81
-9078.84
-9078.87
-9078.89
-9078.92
-9108.31
-9108.26
-9108.16
-9108.03
-9107.89
-9107.72
-9107.56
-9107.39
-9107.23
-9107.09
-9106.97
-9106.86
-9106.79
-9106.75
-9106.75
-9106.79
-9106.88
-9107.02
-9107.2
-9107.44
-9107.73
-9108.08
-9108.48
-9108.93
-9109.43
-9109.97
-9110.56
-9111.19
-9111.85
-9112.55
-9113.27
-9114.01
-9114.76
-9115.51
-9116.26
-9117
-9117.72
-9118.41
-9119.06
-9119.67
-9120.22
-9120.71
-9121.13
-9121.47
-9121.74
-9121.91
-9121.99
-9121.98
-9121.87
-9121.67
-9121.37
-9120.98
-9120.51
-9119.95
-9119.32
-9118.63
-9117.89
-9117.11
-9116.3
-9115.49
-9114.68
-9113.89
-9113.14
-9112.45
-9111.83
-9111.3
-9110.86
-9110.53
-9110.32
-9110.24
-9110.29
-9110.47
-9110.77
-9111.19
-9111.73
-9112.36
-9113.06
-9113.83
-9114.64
-9115.46
-9116.27
-9117.04
-9117.76
-9118.38
-9118.9
-9119.3
-9119.55
-9119.66
-9119.61
-9119.41
-9119.07
-9118.59
-9118.01
-9117.34
-9116.61
-9115.85
-9115.1
-9114.4
-9113.76
-9113.23
-9112.83
-9112.58
-9112.48
-9112.54
-9112.76
-9113.12
-9113.6
-9114.17
-9114.79
-9115.42
-9116.03
-9116.58
-9117.02
-9117.35
-9117.53
-9117.56
-9117.44
-9117.18
-9116.82
-9116.38
-9115.91
-9115.43
-9115.01
-9114.67
-9114.44
-9114.33
-9114.36
-9114.51
-9114.76
-9115.08
-9115.43
-9115.78
-9116.08
-9116.31
-9116.45
-9116.5
-9116.44
-9116.31
-9116.12
-9115.89
-9115.65
-9115.42
-9115.23
-9115.1
-9115.02
-9115.01
-9115.05
-9115.13
-9115.25
-9115.39
-9115.53
-9115.65
-9115.76
-9115.83
-9115.87
-9115.88
-9115.86
-9115.81
-9115.75
-9115.68
-9115.61
-9115.54
-9115.5
-9115.47
-9115.46
-9115.47
-9115.49
-9115.53
-9115.58
-9115.63
-9115.67
-9115.7
-9115.72
-9263
-9263
-9263.01
-9263.03
-9263.05
-9263.07
-9263.08
-9263.1
-9295.43
-9295.39
-9295.3
-9295.2
-9295.06
-9294.92
-9294.76
-9294.61
-9294.46
-9294.32
-9294.21
-9294.11
-9294.05
-9294.02
-9294.04
-9294.09
-9294.2
-9294.36
-9294.57
-9294.84
-9295.16
-9295.54
-9295.98
-9296.47
-9297.02
-9297.61
-9298.25
-9298.94
-9299.66
-9300.41
-9301.19
-9301.99
-9302.8
-9303.62
-9304.43
-9305.23
-9306
-9306.75
-9307.45
-9308.11
-9308.7
-9309.23
-9309.68
-9310.05
-9310.33
-9310.51
-9310.6
-9310.58
-9310.46
-9310.24
-9309.91
-9309.49
-9308.97
-9308.37
-9307.68
-9306.94
-9306.13
-9305.29
-9304.42
-9303.54
-9302.66
-9301.82
-9301.01
-9300.27
-9299.6
-9299.03
-9298.56
-9298.21
-9297.99
-9297.91
-9297.96
-9298.16
-9298.49
-9298.95
-9299.53
-9300.22
-9300.99
-9301.82
-9302.69
-9303.58
-9304.45
-9305.28
-9306.05
-9306.72
-9307.28
-9307.7
-9307.97
-9308.08
-9308.02
-9307.8
-9307.43
-9306.91
-9306.28
-9305.55
-9304.76
-9303.94
-9303.13
-9302.37
-9301.69
-9301.12
-9300.69
-9300.42
-9300.32
-9300.4
-9300.64
-9301.04
-9301.56
-9302.18
-9302.85
-9303.53
-9304.19
-9304.78
-9305.26
-9305.6
-9305.79
-9305.81
-9305.68
-9305.4
-9305
-9304.52
-9304.01
-9303.49
-9303.03
-9302.67
-9302.42
-9302.32
-9302.35
-9302.52
-9302.79
-9303.14
-9303.52
-9303.9
-9304.22
-9304.46
-9304.61
-9304.66
-9304.6
-9304.45
-9304.24
-9303.99
-9303.74
-9303.5
-9303.3
-9303.15
-9303.07
-9303.06
-9303.11
-9303.2
-9303.33
-9303.47
-9303.62
-9303.75
-9303.86
-9303.94
-9303.98
-9303.99
-9303.96
-9303.91
-9303.85
-9303.77
-9303.7
-9303.63
-9303.58
-9303.55
-9303.54
-9303.55
-9303.58
-9303.62
-9303.67
-9303.72
-9303.77
-9303.8
-9303.82
-9426.2
-9426.2
-9426.21
-9426.22
-9426.23
-9426.25
-9426.25
-9426.27
-9461.23
-9461.2
-9461.11
-9461.01
-9460.89
-9460.75
-9460.6