/*--------------------------------*- C++ -*----------------------------------*\
  =========                 |
  \\      /  F ield         | OpenFOAM: The Open Source CFD Toolbox
   \\    /   O peration     | Website:  https://openfoam.org
    \\  /    A nd           | Version:  12
     \\/     M anipulation  |
\*---------------------------------------------------------------------------*/
FoamFile
{
    format      ascii;
    class       volScalarField;
    location    "5.06";
    object      p_rgh;
}
// * * * * * * * * * * * * * * * * * * * * * * * * * * * * * * * * * * * * * //

dimensions      [1 -1 -2 0 0 0 0];

internalField   nonuniform List<scalar> 
3829
(
-2.41799
-2.41726
-2.41579
-2.41354
-2.41047
-2.40654
-2.40171
-2.39591
-2.3891
-2.38122
-2.3722
-2.36198
-2.35048
-2.33762
-2.32331
-2.30749
-2.29007
-2.27097
-2.25012
-2.22746
-2.20293
-2.17648
-2.14809
-2.11773
-2.08539
-2.05108
-2.01484
-1.97668
-1.93668
-1.89491
-1.85144
-1.80639
-1.75987
-1.71202
-1.66297
-1.61286
-1.56186
-1.51012
-1.45781
-1.40512
-1.35222
-1.29933
-1.24661
-1.19428
-1.14252
-1.09152
-1.04148
-0.992579
-0.944984
-0.898863
-0.85437
-0.811653
-0.771429
-0.733531
-0.697989
-0.664837
-0.634104
-0.605798
-0.579915
-0.556431
-0.535314
-0.516525
-0.5
-0.48565
-0.473355
-0.462976
-0.454349
-0.447291
-0.4416
-0.437058
-0.433432
-0.430482
-0.427961
-0.425619
-0.423211
-0.420493
-0.417228
-0.413204
-0.408225
-0.402118
-0.394744
-0.386001
-0.375839
-0.363925
-0.350474
-0.33559
-0.31938
-0.30197
-0.283519
-0.264235
-0.244369
-0.224198
-0.203969
-0.184137
-0.164979
-0.146834
-0.13003
-0.114885
-0.101682
-0.0906706
-0.0820536
-0.0759721
-0.0725147
-0.071832
-0.0737615
-0.0781372
-0.0847625
-0.09337
-0.103623
-0.115127
-0.127444
-0.140114
-0.152613
-0.164475
-0.175225
-0.184425
-0.191688
-0.196697
-0.199221
-0.199125
-0.196177
-0.190563
-0.182441
-0.172032
-0.159658
-0.145722
-0.130671
-0.114996
-0.0992901
-0.0840391
-0.0697627
-0.0569381
-0.0459852
-0.0372558
-0.0310133
-0.0274303
-0.0265843
-0.028469
-0.0329511
-0.0398295
-0.0488186
-0.0595639
-0.0716619
-0.0846708
-0.0981268
-0.111568
-0.124539
-0.136621
-0.147431
-0.15664
-0.163982
-0.169258
-0.172345
-0.1732
-0.171737
-0.168142
-0.16255
-0.155158
-0.14621
-0.135989
-0.124804
-0.112981
-0.100852
-0.0887418
-0.0769617
-0.0658001
-0.0555144
-0.0463284
-0.0384237
-0.0319371
-0.0269607
-0.0235467
-0.0216912
-0.021355
-0.0224591
-0.0248899
-0.0285043
-0.0331364
-0.0386042
-0.0447616
-0.0513177
-0.0581321
-0.0650179
-0.0718025
-0.0783325
-0.0844763
-0.090127
-0.0952052
-0.0996596
-0.103465
-0.106624
-0.109163
-0.111129
-0.112586
-0.113612
-0.114288
-0.1147
-0.114928
-0.115037
-0.115078
-2.48691
-2.48635
-2.48521
-2.48346
-2.48105
-2.47794
-2.47407
-2.46938
-2.46379
-2.45721
-2.44953
-2.44062
-2.43039
-2.4187
-2.40542
-2.3904
-2.37352
-2.35465
-2.33366
-2.31045
-2.28491
-2.25698
-2.22659
-2.19371
-2.15834
-2.12049
-2.08019
-2.03751
-1.99254
-1.94541
-1.89626
-1.84526
-1.79256
-1.73833
-1.68272
-1.62594
-1.5682
-1.50973
-1.45077
-1.39153
-1.33227
-1.27323
-1.21465
-1.15676
-1.09982
-1.04403
-0.989626
-0.9368
-0.885747
-0.836645
-0.789632
-0.744786
-0.703726
-0.665462
-0.630006
-0.597392
-0.567655
-0.540805
-0.516839
-0.495738
-0.477458
-0.461934
-0.44906
-0.438695
-0.430669
-0.424792
-0.420843
-0.418578
-0.417734
-0.418032
-0.41918
-0.420874
-0.422826
-0.424676
-0.426144
-0.426934
-0.426768
-0.425383
-0.422541
-0.418039
-0.411708
-0.403422
-0.39311
-0.380745
-0.366345
-0.350003
-0.33185
-0.31207
-0.290899
-0.268626
-0.245584
-0.222141
-0.198392
-0.175334
-0.153085
-0.132075
-0.112716
-0.0953981
-0.0804685
-0.0682372
-0.0589577
-0.0528301
-0.050017
-0.0504997
-0.0541096
-0.0606639
-0.0699004
-0.0814675
-0.0949357
-0.109811
-0.125548
-0.141604
-0.157296
-0.172082
-0.185391
-0.196704
-0.205568
-0.211609
-0.214563
-0.214274
-0.210703
-0.203949
-0.194203
-0.181781
-0.167099
-0.150661
-0.133027
-0.114792
-0.0966387
-0.0791454
-0.0629071
-0.0484617
-0.0362712
-0.0267127
-0.0200645
-0.0164901
-0.0160756
-0.0187125
-0.0242515
-0.0324246
-0.0428817
-0.055204
-0.0689235
-0.083537
-0.0985255
-0.113379
-0.1276
-0.140739
-0.152393
-0.162219
-0.169944
-0.175375
-0.178389
-0.178933
-0.177149
-0.173047
-0.16682
-0.158705
-0.148981
-0.137961
-0.125985
-0.113401
-0.100561
-0.0878089
-0.0754686
-0.0638387
-0.0531817
-0.0437236
-0.035646
-0.0290819
-0.0241183
-0.0207886
-0.0190892
-0.018968
-0.0203331
-0.0230586
-0.0269892
-0.0319471
-0.0377388
-0.0442029
-0.0510514
-0.0581309
-0.0652486
-0.0722279
-0.0789133
-0.0851722
-0.0908984
-0.0960145
-0.100472
-0.104249
-0.107354
-0.109818
-0.111695
-0.113055
-0.113981
-0.114563
-0.11489
-0.115048
-0.115108
-0.115124
-2.59598
-2.59588
-2.59566
-2.59529
-2.59472
-2.5939
-2.59275
-2.5912
-2.58917
-2.58663
-2.58355
-2.57978
-2.57495
-2.56866
-2.56055
-2.55026
-2.53744
-2.52172
-2.50268
-2.47991
-2.45308
-2.42202
-2.38677
-2.34754
-2.30463
-2.25835
-2.2089
-2.15642
-2.10108
-2.04302
-1.98241
-1.91945
-1.85436
-1.7874
-1.71882
-1.64894
-1.57809
-1.50661
-1.43483
-1.36311
-1.2918
-1.22123
-1.15175
-1.08369
-1.01737
-0.953099
-0.891178
-0.831884
-0.775509
-0.722313
-0.67257
-0.626595
-0.582666
-0.542793
-0.506898
-0.474966
-0.446989
-0.422937
-0.402776
-0.386434
-0.373799
-0.364706
-0.358948
-0.356286
-0.356455
-0.359161
-0.364078
-0.370851
-0.379099
-0.388427
-0.398428
-0.40872
-0.41881
-0.428321
-0.436845
-0.443988
-0.449385
-0.452703
-0.453645
-0.451958
-0.447435
-0.43987
-0.429084
-0.415262
-0.398488
-0.378885
-0.356642
-0.332051
-0.305469
-0.277311
-0.248051
-0.218205
-0.188324
-0.159019
-0.13087
-0.104456
-0.0803294
-0.0590113
-0.0409411
-0.0264644
-0.015843
-0.00917432
-0.00821851
-0.0111991
-0.0181521
-0.0289095
-0.04311
-0.0602656
-0.0797804
-0.10097
-0.123089
-0.145361
-0.166947
-0.187085
-0.205031
-0.220122
-0.231785
-0.239569
-0.24317
-0.242442
-0.237479
-0.228381
-0.215455
-0.199183
-0.180162
-0.159084
-0.136702
-0.113812
-0.0912397
-0.0697407
-0.0500426
-0.0327848
-0.018502
-0.00760479
-0.000366053
0.00305911
0.0025993
-0.00152346
-0.00904803
-0.0196028
-0.0327247
-0.04788
-0.0644858
-0.0819319
-0.0996028
-0.116905
-0.133276
-0.148212
-0.16128
-0.17212
-0.18046
-0.186119
-0.189006
-0.189121
-0.186564
-0.181482
-0.174099
-0.1647
-0.153617
-0.141213
-0.127869
-0.113979
-0.0999278
-0.0860864
-0.072802
-0.0603868
-0.0491131
-0.0392103
-0.0308561
-0.0241765
-0.0192461
-0.0160842
-0.014668
-0.0149262
-0.0167466
-0.0199819
-0.0244563
-0.0299715
-0.0363162
-0.0433017
-0.050646
-0.0581727
-0.0656799
-0.0729852
-0.0799292
-0.0863782
-0.0922269
-0.097401
-0.101858
-0.105583
-0.108591
-0.110925
-0.112647
-0.113839
-0.114593
-0.115011
-0.115193
-0.115233
-0.115208
-0.11518
-2.69788
-2.69874
-2.70044
-2.70288
-2.70591
-2.70931
-2.71277
-2.71593
-2.71837
-2.7196
-2.71911
-2.71657
-2.71186
-2.70501
-2.69603
-2.68477
-2.6714
-2.65707
-2.64101
-2.62161
-2.59753
-2.56837
-2.53408
-2.49546
-2.45396
-2.41058
-2.36257
-2.30762
-2.24529
-2.17627
-2.10158
-2.02214
-1.93886
-1.85258
-1.76409
-1.67406
-1.58311
-1.49183
-1.40079
-1.31051
-1.2215
-1.13424
-1.04919
-0.96677
-0.887392
-0.811409
-0.739188
-0.671064
-0.60731
-0.548149
-0.493756
-0.444263
-0.3992
-0.360007
-0.326121
-0.297452
-0.273985
-0.255683
-0.242477
-0.234227
-0.230722
-0.231705
-0.236865
-0.245846
-0.258256
-0.27366
-0.291586
-0.311529
-0.332951
-0.355294
-0.377991
-0.400461
-0.422116
-0.442391
-0.460738
-0.476628
-0.489585
-0.499196
-0.505107
-0.507073
-0.504988
-0.498975
-0.485948
-0.469087
-0.448166
-0.423237
-0.394566
-0.362566
-0.327751
-0.290728
-0.252185
-0.212872
-0.173595
-0.135177
-0.0984515
-0.0642369
-0.0333048
-0.00637896
0.0159
0.0329999
0.0445217
0.050176
0.0499839
0.0439874
0.0323663
0.0155332
-0.00591248
-0.0312306
-0.0595509
-0.0898941
-0.121213
-0.152399
-0.182363
-0.210043
-0.234448
-0.254718
-0.270132
-0.280142
-0.28439
-0.282734
-0.275406
-0.262619
-0.244903
-0.222963
-0.197648
-0.169924
-0.140817
-0.111399
-0.0827126
-0.0557452
-0.0313981
-0.0104453
0.00650014
0.0189993
0.0268052
0.0299074
0.0279144
0.0215609
0.0111739
-0.00274576
-0.0195799
-0.0386323
-0.0591659
-0.080425
-0.101669
-0.122193
-0.14136
-0.158604
-0.173454
-0.185535
-0.194581
-0.200435
-0.203047
-0.202467
-0.198851
-0.192418
-0.183463
-0.172341
-0.15945
-0.145219
-0.130087
-0.114498
-0.0988861
-0.0836493
-0.0691642
-0.0557605
-0.0437202
-0.0332743
-0.0245948
-0.017797
-0.0129392
-0.0100206
-0.0089932
-0.00976103
-0.0121845
-0.0160892
-0.0212719
-0.027509
-0.0345667
-0.0422266
-0.0502031
-0.0582979
-0.066298
-0.0740134
-0.0812804
-0.0879636
-0.0939599
-0.0991995
-0.103646
-0.107295
-0.110173
-0.112332
-0.11385
-0.114821
-0.115352
-0.115557
-0.11555
-0.115435
-0.115301
-0.115216
-2.79907
-2.8038
-2.81337
-2.82785
-2.84725
-2.87136
-2.89968
-2.93143
-2.96556
-3.00079
-3.03558
-3.06807
-3.09591
-3.11433
-3.13082
-3.1431
-3.14908
-3.14611
-3.13392
-3.11344
-3.08537
-3.04958
-3.00553
-2.9519
-2.88778
-2.81274
-2.73176
-2.63398
-2.52686
-2.41387
-2.29776
-2.18008
-2.06107
-1.93967
-1.8188
-1.6979
-1.57752
-1.45831
-1.3409
-1.22588
-1.11383
-1.0053
-0.900784
-0.800779
-0.705693
-0.615983
-0.532016
-0.454097
-0.382474
-0.317412
-0.259131
-0.207826
-0.16378
-0.126331
-0.0956956
-0.0720106
-0.0552849
-0.0454205
-0.0422095
-0.0453589
-0.0545286
-0.0693222
-0.089294
-0.11393
-0.142663
-0.174881
-0.209929
-0.247105
-0.285666
-0.324846
-0.363867
-0.401948
-0.43829
-0.472132
-0.502739
-0.5294
-0.551466
-0.568346
-0.57954
-0.584575
-0.583056
-0.574458
-0.561603
-0.541907
-0.515761
-0.483643
-0.44615
-0.403977
-0.357912
-0.308849
-0.257776
-0.205756
-0.153913
-0.103389
-0.0553365
-0.0108913
0.0288935
0.0630441
0.0907112
0.111171
0.123851
0.128371
0.125858
0.115298
0.0971032
0.0719629
0.0407605
0.00455983
-0.0354047
-0.0777658
-0.121077
-0.163811
-0.204507
-0.241742
-0.274218
-0.300825
-0.320674
-0.333121
-0.337802
-0.334474
-0.323614
-0.305689
-0.281492
-0.252029
-0.218486
-0.182187
-0.144512
-0.106866
-0.0705924
-0.0369368
-0.00700834
0.0182733
0.0382056
0.0523041
0.0603016
0.0620978
0.058487
0.0493048
0.0352371
0.0170404
-0.00444235
-0.0283103
-0.0536354
-0.0794939
-0.104994
-0.129296
-0.151708
-0.171585
-0.18842
-0.201832
-0.211569
-0.217511
-0.219662
-0.218144
-0.213178
-0.205071
-0.194202
-0.181008
-0.165967
-0.149581
-0.132358
-0.114798
-0.0973923
-0.0805615
-0.0647168
-0.0502061
-0.0373197
-0.0262883
-0.0172759
-0.0103825
-0.00564557
-0.0030411
-0.00249234
-0.00387257
-0.00701115
-0.0117018
-0.0177102
-0.0247836
-0.0326608
-0.0410974
-0.0497938
-0.0585329
-0.0670889
-0.0752634
-0.0828885
-0.0898282
-0.0959813
-0.101284
-0.105707
-0.109259
-0.111977
-0.113929
-0.115206
-0.115918
-0.116187
-0.116145
-0.115917
-0.115623
-0.115363
-0.115211
-2.67706
-2.68632
-2.7049
-2.73255
-2.7687
-2.81265
-2.86358
-2.92053
-2.98248
-3.04818
-3.11654
-3.18666
-3.25846
-3.33572
-3.40025
-3.45251
-3.49196
-3.51766
-3.52855
-3.52382
-3.50284
-3.46503
-3.40985
-3.33674
-3.24613
-3.1367
-3.00683
-2.8722
-2.74006
-2.60463
-2.46317
-2.31514
-2.16212
-2.00609
-1.84884
-1.6916
-1.5364
-1.38407
-1.23553
-1.0916
-0.953035
-0.820459
-0.694452
-0.575465
-0.463936
-0.360207
-0.264596
-0.177381
-0.0988672
-0.0292915
0.0311714
0.0825279
0.124824
0.158208
0.182664
0.198167
0.204823
0.202875
0.192643
0.174523
0.148977
0.116551
0.0778574
0.0336003
-0.0154608
-0.0685033
-0.124641
-0.182937
-0.242407
-0.302019
-0.36077
-0.417618
-0.471515
-0.521471
-0.566539
-0.6058
-0.638432
-0.663713
-0.681002
-0.689857
-0.689909
-0.680997
-0.663748
-0.637801
-0.603435
-0.561206
-0.511874
-0.456373
-0.395782
-0.331329
-0.264366
-0.19634
-0.128771
-0.0631851
-0.00111836
0.0559296
0.10656
0.149502
0.18367
0.208171
0.222333
0.225778
0.219197
0.202178
0.175285
0.139445
0.0958619
0.0459962
-0.00847043
-0.0656851
-0.123702
-0.180499
-0.234138
-0.282764
-0.324713
-0.358579
-0.383278
-0.398084
-0.402712
-0.396778
-0.381142
-0.356553
-0.324134
-0.285286
-0.24163
-0.19493
-0.146992
-0.0996127
-0.0544922
-0.0131651
0.0230414
0.0530583
0.0761076
0.0917156
0.0997102
0.100221
0.0937417
0.0807855
0.0621537
0.0388172
0.0118539
-0.0176089
-0.0484271
-0.0794864
-0.109728
-0.138212
-0.164144
-0.186826
-0.20572
-0.220446
-0.230782
-0.236656
-0.238138
-0.235446
-0.228872
-0.218817
-0.205757
-0.190222
-0.172776
-0.154005
-0.134487
-0.114784
-0.0954323
-0.0768959
-0.0596081
-0.0439365
-0.0301773
-0.0185581
-0.00923242
-0.00228108
0.00228279
0.00450855
0.00450506
0.00243324
-0.00150215
-0.00706055
-0.0139738
-0.0219579
-0.0307219
-0.0399951
-0.0494632
-0.0588883
-0.0680324
-0.0766897
-0.0846876
-0.0918896
-0.0981978
-0.103555
-0.107941
-0.111375
-0.113912
-0.115632
-0.116641
-0.117066
-0.117049
-0.116735
-0.116267
-0.115778
-0.11538
-0.115156
-2.42712
-2.44807
-2.49027
-2.55348
-2.63694
-2.73929
-2.85865
-2.99232
-3.13696
-3.28819
-3.44147
-3.59138
-3.73484
-3.86499
-3.98427
-4.08782
-4.17191
-4.23354
-4.27041
-4.28071
-4.26246
-4.21652
-4.14234
-4.04076
-3.91393
-3.76505
-3.5995
-3.42586
-3.21476
-2.98869
-2.75743
-2.52732
-2.30037
-2.07822
-1.86215
-1.65304
-1.45159
-1.25836
-1.07354
-0.897544
-0.73073
-0.573428
-0.425914
-0.288504
-0.161462
-0.0450272
0.0605792
0.155144
0.238525
0.31062
0.371298
0.420375
0.457902
0.485042
0.500846
0.50545
0.499156
0.482335
0.455423
0.418947
0.373521
0.319868
0.258793
0.191207
0.1181
0.0405408
-0.0403275
-0.123296
-0.207083
-0.290385
-0.371904
-0.45031
-0.524271
-0.592533
-0.65389
-0.707196
-0.751441
-0.78575
-0.80937
-0.821713
-0.822413
-0.811344
-0.788739
-0.75474
-0.709866
-0.654881
-0.590801
-0.518872
-0.440525
-0.357391
-0.271252
-0.18401
-0.0976588
-0.0141957
0.0643981
0.136201
0.199431
0.252474
0.293972
0.322849
0.338338
0.340032
0.328246
0.303132
0.265516
0.216636
0.158104
0.0918653
0.0201427
-0.0546316
-0.129936
-0.203116
-0.271696
-0.333319
-0.3859
-0.427711
-0.457435
-0.474206
-0.477607
-0.468457
-0.446828
-0.414017
-0.371641
-0.321608
-0.266062
-0.20729
-0.147589
-0.0892067
-0.0342245
0.0155097
0.0584462
0.0933788
0.11948
0.136307
0.143808
0.142301
0.1324
0.114933
0.0909683
0.0617426
0.0285982
-0.00708106
-0.0439321
-0.0806397
-0.115916
-0.148824
-0.178423
-0.203961
-0.224887
-0.24084
-0.251634
-0.257261
-0.257859
-0.253779
-0.24537
-0.233144
-0.217683
-0.199612
-0.17959
-0.158283
-0.136345
-0.114403
-0.0930348
-0.0727419
-0.0539847
-0.037146
-0.0225245
-0.0103427
-0.000740096
0.00622424
0.0105626
0.0123545
0.0117425
0.00892193
0.00413408
-0.00234427
-0.0102098
-0.0191464
-0.0288342
-0.0389724
-0.0492344
-0.0593612
-0.0691035
-0.0782482
-0.0866187
-0.0940782
-0.100533
-0.105932
-0.110267
-0.113568
-0.115906
-0.117376
-0.1181
-0.118223
-0.117902
-0.117302
-0.116582
-0.115889
-0.115346
-0.115048
-1.68142
-1.72081
-1.80051
-1.92099
-2.08204
-2.28191
-2.51841
-2.78549
-3.07909
-3.37804
-3.66908
-3.95389
-4.21985
-4.4616
-4.67503
-4.85701
-5.0048
-5.11553
-5.18605
-5.21346
-5.19561
-5.13115
-5.02037
-4.86335
-4.6619
-4.41835
-4.13611
-3.81796
-3.51272
-3.20961
-2.90975
-2.6138
-2.32574
-2.04729
-1.77969
-1.52373
-1.28017
-1.05099
-0.833235
-0.628454
-0.436747
-0.258072
-0.0924656
0.0600158
0.199347
0.325437
0.438218
0.537582
0.623405
0.695569
0.754044
0.798794
0.829839
0.847428
0.851561
0.842447
0.820392
0.785823
0.739276
0.68141
0.612992
0.53493
0.448236
0.354056
0.253634
0.148311
0.03952
-0.0712299
-0.182221
-0.29203
-0.398916
-0.501237
-0.597339
-0.685673
-0.764766
-0.833212
-0.889778
-0.933396
-0.963202
-0.978568
-0.979174
-0.964279
-0.934711
-0.890763
-0.833146
-0.762874
-0.681281
-0.589997
-0.490878
-0.386013
-0.277677
-0.168295
-0.0603931
0.0435056
0.140892
0.22936
0.3067
0.370921
0.420359
0.453702
0.470104
0.469188
0.451082
0.416336
0.366072
0.301938
0.22604
0.140894
0.0493668
-0.0454228
-0.140367
-0.231964
-0.317206
-0.393165
-0.457289
-0.507513
-0.54231
-0.560776
-0.562698
-0.548599
-0.519417
-0.476759
-0.422749
-0.359865
-0.290839
-0.218546
-0.145839
-0.0754434
-0.00984954
0.0487779
0.0986723
0.138509
0.167437
0.185075
0.191513
0.187379
0.173423
0.150776
0.120816
0.0850856
0.045213
0.00285358
-0.0404074
-0.0830851
-0.12347
-0.160952
-0.194245
-0.222595
-0.245454
-0.262492
-0.273578
-0.278778
-0.278318
-0.272643
-0.26221
-0.247645
-0.229634
-0.208901
-0.186201
-0.162276
-0.137861
-0.113653
-0.0902515
-0.0682026
-0.0479916
-0.0300124
-0.0145647
-0.0018623
0.00797107
0.0149017
0.0189682
0.0202824
0.0190208
0.0154149
0.00974213
0.00231661
-0.00652319
-0.0164282
-0.02705
-0.0380584
-0.0491146
-0.0599395
-0.0702738
-0.0798972
-0.0886297
-0.0963347
-0.102923
-0.108351
-0.112621
-0.115776
-0.117906
-0.119114
-0.119544
-0.119355
-0.118724
-0.117831
-0.116854
-0.115953
-0.115264
-0.114889
-0.440768
-0.506633
-0.640005
-0.841918
-1.11129
-1.44613
-1.84346
-2.29925
-2.80536
-3.32974
-3.86395
-4.3727
-4.8477
-5.27907
-5.65938
-5.98183
-6.24088
-6.43245
-6.55386
-6.60311
-6.57864
-6.4796
-6.30643
-6.06012
-5.74321
-5.36159
-4.92482
-4.44618
-3.97227
-3.51388
-3.07743
-2.66732
-2.28484
-1.92965
-1.60029
-1.29486
-1.01113
-0.756173
-0.511463
-0.284578
-0.0745104
0.119423
0.29763
0.460391
0.607864
0.740059
0.856902
0.958272
1.04403
1.11401
1.1681
1.20625
1.22844
1.23477
1.22537
1.20049
1.16049
1.10588
1.03731
0.955576
0.861598
0.756494
0.641506
0.518033
0.387597
0.251844
0.11253
-0.028498
-0.169256
-0.307795
-0.442115
-0.570212
-0.690076
-0.799836
-0.897712
-0.982015
-1.05127
-1.10422
-1.13981
-1.15726
-1.15604
-1.13673
-1.09889
-1.04325
-0.970814
-0.882937
-0.781325
-0.668043
-0.545429
-0.416102
-0.282912
-0.148846
-0.01702
0.109457
0.227513
0.334207
0.426857
0.503067
0.560858
0.598695
0.615573
0.611144
0.585563
0.539687
0.474991
0.39358
0.29814
0.191836
0.0782485
-0.0387541
-0.15517
-0.26695
-0.370266
-0.461597
-0.537898
-0.596752
-0.636438
-0.656022
-0.655422
-0.635365
-0.597284
-0.543316
-0.476169
-0.398971
-0.315128
-0.228147
-0.141473
-0.0583356
0.0183554
0.0861256
0.143004
0.187576
0.218999
0.236973
0.24171
0.234447
0.215847
0.187432
0.15094
0.108236
0.0612485
0.0119092
-0.0379553
-0.0866334
-0.132435
-0.174373
-0.211267
-0.242311
-0.266958
-0.284912
-0.296114
-0.300715
-0.29907
-0.291606
-0.27901
-0.261995
-0.241345
-0.217888
-0.192465
-0.165903
-0.139003
-0.112564
-0.087153
-0.0633842
-0.0417658
-0.0226971
-0.00647577
0.00669559
0.0167116
0.023564
0.0273205
0.028125
0.0261884
0.0217784
0.0152088
0.00682925
-0.00298537
-0.0138538
-0.025398
-0.0372681
-0.0491005
-0.0606056
-0.0715138
-0.0815976
-0.0906747
-0.0986092
-0.105316
-0.11076
-0.114956
-0.117956
-0.11987
-0.120812
-0.120944
-0.120442
-0.119499
-0.118314
-0.117079
-0.115971
-0.115137
-0.114686
1.54142
1.44387
1.24261
0.929819
0.491038
-0.0824797
-0.828265
-1.73282
-3.04137
-4.04191
-4.932
-5.70521
-6.37292
-6.94249
-7.42044
-7.8102
-8.11411
-8.33322
-8.46744
-8.51538
-8.47664
-8.34161
-8.10538
-7.758
-7.28849
-6.68381
-5.95736
-4.90374
-4.16167
-3.51163
-2.95443
-2.46353
-2.02673
-1.63186
-1.27256
-0.944325
-0.643914
-0.368478
-0.112517
0.124379
0.343342
0.544986
0.729882
0.898221
1.05003
1.18519
1.30349
1.40467
1.48843
1.55451
1.60264
1.63266
1.64449
1.63815
1.61375
1.57155
1.51197
1.43561
1.34321
1.23571
1.11422
0.980058
0.834709
0.679859
0.517326
0.349077
0.17722
0.00396925
-0.168335
-0.337324
-0.50063
-0.655867
-0.800648
-0.93276
-1.0501
-1.15068
-1.23279
-1.29495
-1.33598
-1.35504
-1.35171
-1.32601
-1.27821
-1.20911
-1.11995
-1.0124
-0.888616
-0.751106
-0.602737
-0.446698
-0.286444
-0.125598
0.0320739
0.182835
0.32302
0.449127
0.557968
0.646713
0.713053
0.755228
0.772114
0.763334
0.729206
0.670856
0.590153
0.489731
0.372901
0.24355
0.106054
-0.0348857
-0.17441
-0.307684
-0.430116
-0.537529
-0.626364
-0.693843
-0.73807
-0.758115
-0.754061
-0.726978
-0.678779
-0.612218
-0.530675
-0.437976
-0.338252
-0.2357
-0.134429
-0.0380944
0.0499324
0.126878
0.190596
0.239605
0.273132
0.290989
0.293293
0.282576
0.258795
0.22414
0.180713
0.130714
0.0763801
0.0199024
-0.0366423
-0.0913403
-0.142452
-0.18877
-0.229131
-0.2627
-0.288958
-0.307653
-0.318797
-0.322637
-0.319622
-0.310304
-0.295466
-0.275942
-0.252623
-0.226431
-0.198298
-0.169125
-0.139769
-0.11119
-0.0838156
-0.0583917
-0.0354333
-0.0153415
0.00159166
0.0151763
0.0253283
0.0320633
0.0354806
0.0357551
0.0331328
0.027916
0.0204535
0.0111305
0.000357209
-0.0114537
-0.0238955
-0.0366009
-0.0491812
-0.0613387
-0.0727944
-0.0833148
-0.0927152
-0.100861
-0.10767
-0.11312
-0.117233
-0.120083
-0.121768
-0.122445
-0.122282
-0.12147
-0.12022
-0.118747
-0.11726
-0.115949
-0.114972
-0.114448
4.31528
4.20235
3.96715
3.59133
3.04707
2.28732
1.25765
-0.0945719
-2.08658
-3.58573
-4.92077
-6.08138
-7.07966
-7.9272
-8.63428
-9.20791
-9.65329
-9.97335
-10.1692
-10.24
-10.1827
-9.9916
-9.65868
-9.17214
-8.51558
-7.66916
-6.63932
-5.10373
-4.0906
-3.26025
-2.59257
-2.04397
-1.57715
-1.17141
-0.811352
-0.488041
-0.192759
0.0815501
0.336527
0.573711
0.793952
0.997702
1.18499
1.35568
1.5094
1.64569
1.76403
1.86386
1.94467
2.00595
2.04729
2.06837
2.06902
2.04915
2.00884
1.94834
1.86812
1.76885
1.65138
1.51682
1.36645
1.20183
1.02468
0.836995
0.640906
0.438735
0.232959
0.0261782
-0.178899
-0.379469
-0.572768
-0.756009
-0.926411
-1.0814
-1.21854
-1.33553
-1.43041
-1.5015
-1.54747
-1.56741
-1.56086
-1.52783
-1.46881
-1.38481
-1.27736
-1.14851
-1.0008
-0.837291
-0.661395
-0.476915
-0.287939
-0.0987655
0.0861664
0.262458
0.42581
0.572127
0.697708
0.799279
0.874194
0.920455
0.936835
0.922976
0.879355
0.807395
0.709399
0.588568
0.44889
0.295031
0.132216
-0.0339696
-0.19776
-0.353459
-0.495682
-0.619581
-0.721056
-0.79698
-0.845289
-0.865095
-0.856735
-0.821647
-0.762292
-0.682086
-0.585147
-0.476073
-0.359728
-0.240996
-0.124846
-0.0150912
0.0842815
0.170245
0.240513
0.293591
0.328801
0.34624
0.347024
0.331014
0.30149
0.260244
0.209631
0.152162
0.0903873
0.0267532
-0.0364346
-0.0970364
-0.153296
-0.203835
-0.247477
-0.283379
-0.311057
-0.330317
-0.341248
-0.344196
-0.339709
-0.328467
-0.31135
-0.289305
-0.26333
-0.234441
-0.203654
-0.171939
-0.140173
-0.1096
-0.0803156
-0.0533227
-0.0291066
-0.00806627
0.00951283
0.0234558
0.0337001
0.0402858
0.0433434
0.0430793
0.0397728
0.0337599
0.0254221
0.0151802
0.00347736
-0.00924321
-0.0225452
-0.0360519
-0.049342
-0.0621178
-0.0740896
-0.0850189
-0.0947189
-0.103056
-0.109954
-0.115398
-0.119421
-0.12211
-0.123579
-0.123996
-0.123544
-0.122432
-0.120883
-0.119131
-0.1174
-0.115893
-0.114779
-0.114183
7.73569
7.68822
7.59511
7.45845
7.29409
7.09995
6.99249
6.74267
-2.17294
-1.8993
-1.71858
-1.44074
-1.14943
-0.846725
-0.547661
-0.254106
0.0279127
0.299134
0.557619
0.803261
1.03537
1.25345
1.45687
1.64496
1.81688
1.97175
2.10866
2.22669
2.32494
2.40259
2.4589
2.49323
2.50513
2.49432
2.46054
2.40387
2.32458
2.22315
2.10033
1.95711
1.79473
1.61469
1.41878
1.209
0.987624
0.757136
0.520209
0.279705
0.0387462
-0.19978
-0.432535
-0.656325
-0.867955
-1.06424
-1.24224
-1.39919
-1.53247
-1.63985
-1.71946
-1.76983
-1.78994
-1.77934
-1.73808
-1.66682
-1.56681
-1.43989
-1.28849
-1.11561
-0.924841
-0.720181
-0.506067
-0.287256
-0.0687384
0.144347
0.346925
0.534039
0.700992
0.843554
0.958009
1.04137
1.09141
1.10679
1.08723
1.03335
0.946897
0.830648
0.688387
0.524826
0.345436
0.15634
-0.0359421
-0.224721
-0.403376
-0.565727
-0.706221
-0.820224
-0.904266
-0.956136
-0.975009
-0.961594
-0.917673
-0.846331
-0.751686
-0.638653
-0.512629
-0.379248
-0.244138
-0.112848
0.0102067
0.120716
0.2154
0.291834
0.348544
0.38497
0.4014
0.398936
0.37861
0.343221
0.295212
0.237304
0.172339
0.103155
0.0324615
-0.0372449
-0.103518
-0.164724
-0.219273
-0.265976
-0.304001
-0.33291
-0.35257
-0.363157
-0.365111
-0.359089
-0.34589
-0.326496
-0.30196
-0.273382
-0.241868
-0.208518
-0.174369
-0.140389
-0.107719
-0.0767204
-0.0482644
-0.0228813
-0.000970941
0.0171887
0.0314379
0.0417354
0.0481474
0.0508337
0.0500323
0.046054
0.0392659
0.030082
0.018956
0.00636221
-0.00722654
-0.021352
-0.035602
-0.0495669
-0.0629229
-0.0753765
-0.0866852
-0.0966605
-0.10517
-0.112143
-0.117572
-0.121502
-0.12403
-0.125288
-0.125454
-0.124724
-0.123322
-0.121487
-0.119467
-0.117503
-0.11581
-0.114565
-0.113901
11.0264
11.0005
10.9502
10.8782
10.7897
10.688
10.6117
10.4667
-1.28536
-1.08327
-0.928294
-0.716179
-0.481142
-0.234917
0.0175526
0.274952
0.528736
0.77891
1.02318
1.25976
1.48696
1.70308
1.90656
2.09585
2.26947
2.426
2.56401
2.68218
2.77926
2.85411
2.90571
2.93322
2.93598
2.91384
2.86625
2.79322
2.69502
2.57222
2.42567
2.25647
2.06602
1.85604
1.62855
1.38583
1.13049
0.865329
0.593364
0.317776
0.0427749
-0.229476
-0.494512
-0.748813
-0.988783
-1.21083
-1.41166
-1.58814
-1.73736
-1.85683
-1.94448
-1.99867
-2.01834
-2.003
-1.95279
-1.86855
-1.75174
-1.60456
-1.4298
-1.23097
-1.01219
-0.77806
-0.533659
-0.284433
-0.0360706
0.205571
0.434737
0.6458
0.833465
0.992971
1.12016
1.21171
1.26518
1.27913
1.25336
1.18866
1.08711
0.951977
0.787654
0.599595
0.394096
0.178206
-0.040594
-0.254658
-0.456436
-0.638928
-0.79587
-0.922107
-1.01384
-1.06872
-1.08599
-1.06691
-1.01352
-0.929572
-0.819965
-0.690428
-0.547175
-0.396634
-0.245154
-0.0988559
0.0372443
0.158533
0.26152
0.343675
0.403565
0.440771
0.455789
0.449915
0.424866
0.383484
0.328658
0.263469
0.19109
0.114644
0.0370862
-0.038942
-0.110581
-0.176501
-0.234808
-0.284334
-0.324271
-0.354229
-0.374141
-0.384278
-0.385165
-0.377579
-0.362427
-0.340789
-0.313825
-0.282729
-0.248694
-0.212894
-0.176433
-0.140343
-0.105727
-0.0731062
-0.0432932
-0.0168349
0.00586671
0.0245434
0.0390505
0.0493695
0.0555896
0.0579013
0.0565721
0.0519427
0.0444092
0.034416
0.0224483
0.00900911
-0.00539963
-0.0202981
-0.035248
-0.0498407
-0.0637362
-0.0766362
-0.0882943
-0.0985204
-0.107184
-0.11422
-0.119627
-0.123463
-0.125834
-0.126888
-0.126813
-0.125819
-0.124141
-0.122034
-0.11976
-0.117575
-0.115705
-0.114337
-0.11361
14.0521
14.0385
14.0126
13.9753
13.9326
13.883
13.8566
13.7924
-0.472984
-0.351761
-0.2494
-0.0963718
0.0883322
0.295703
0.515593
0.747081
0.98271
1.22015
1.45632
1.68849
1.91413
2.13082
2.33629
2.5284
2.70509
2.86441
3.00452
3.12369
3.22035
3.29305
3.34053
3.36168
3.35539
3.32261
3.26147
3.17228
3.0554
2.91143
2.74132
2.54631
2.32798
2.08822
1.82934
1.55389
1.2648
0.965209
0.658539
0.348434
0.0389097
-0.266436
-0.563315
-0.847706
-1.11558
-1.36293
-1.58609
-1.78161
-1.94625
-2.07728
-2.17242
-2.22991
-2.24858
-2.22798
-2.16831
-2.07058
-1.93653
-1.76866
-1.57018
-1.34507
-1.09802
-0.834201
-0.559364
-0.279636
-0.00141025
0.268742
0.524378
0.75922
0.967367
1.14354
1.28313
1.38252
1.43907
1.45128
1.41887
1.34298
1.22601
1.07169
0.885045
0.672271
0.440509
0.19774
-0.0475984
-0.286867
-0.5116
-0.713958
-0.886991
-1.02502
-1.12394
-1.18131
-1.19635
-1.17116
-1.10782
-1.01089
-0.886063
-0.73989
-0.579407
-0.411835
-0.244222
-0.0832837
0.0654467
0.197048
0.307843
0.395238
0.457856
0.495455
0.508755
0.499294
0.469321
0.421903
0.360305
0.287954
0.208339
0.124874
0.0407248
-0.0412818
-0.118114
-0.188408
-0.250198
-0.302301
-0.343944
-0.37478
-0.394821
-0.404423
-0.404203
-0.395053
-0.377978
-0.354161
-0.324859
-0.291354
-0.25492
-0.216803
-0.178165
-0.140088
-0.10367
-0.0695354
-0.0384707
-0.0110293
0.0123878
0.031522
0.0462446
0.0565581
0.0625757
0.0645159
0.0626751
0.0574216
0.0491789
0.0384194
0.0256568
0.011423
-0.00375424
-0.0193735
-0.0349754
-0.0501492
-0.0645428
-0.0778533
-0.0898312
-0.100285
-0.109086
-0.116174
-0.121554
-0.125296
-0.127516
-0.128375
-0.128071
-0.126828
-0.12489
-0.122527
-0.120014
-0.117621
-0.115586
-0.114103
-0.113316
16.7892
16.7818
16.7681
16.7483
16.7258
16.7014
16.6866
16.6586
0.103498
0.192929
0.279409
0.397436
0.561241
0.745188
0.94544
1.16127
1.38652
1.61765
1.85092
2.08293
2.31049
2.53059
2.7404
2.93725
3.11859
3.28205
3.42539
3.54655
3.64362
3.71493
3.75903
3.77477
3.76153
3.717
3.64243
3.53748
3.40235
3.23769
3.04451
2.82421
2.57852
2.30955
2.01987
1.7123
1.39009
1.05675
0.716047
0.372019
0.0289648
-0.308851
-0.636838
-0.950565
-1.24559
-1.5175
-1.76228
-1.97614
-2.15554
-2.29751
-2.39959
-2.45988
-2.47712
-2.45087
-2.38142
-2.26997
-2.11852
-1.92989
-1.7077
-1.45641
-1.18123
-0.887968
-0.582994
-0.273117
0.0345705
0.33279
0.614425
0.872557
1.1007
1.29305
1.44459
1.5514
1.61065
1.62078
1.58155
1.49431
1.36184
1.18834
0.979463
0.742124
0.484325
0.214962
-0.0565669
-0.320632
-0.567855
-0.789575
-0.978159
-1.12743
-1.233
-1.29238
-1.30458
-1.27305
-1.19946
-1.08938
-0.949316
-0.786622
-0.609157
-0.424908
-0.241606
-0.0665497
0.0942643
0.235625
0.35369
0.445829
0.510749
0.548402
0.55976
0.546581
0.511613
0.458207
0.389971
0.310665
0.22408
0.133897
0.0434866
-0.0441351
-0.125908
-0.200244
-0.265236
-0.319675
-0.362825
-0.394389
-0.414455
-0.423463
-0.422119
-0.411432
-0.392488
-0.366579
-0.335047
-0.299262
-0.260567
-0.220274
-0.179601
-0.139672
-0.101591
-0.0660574
-0.0338446
-0.00550939
0.018551
0.0380883
0.052989
0.0632756
0.0690859
0.0706635
0.0683322
0.0624868
0.0535751
0.0420959
0.0285887
0.0136131
-0.00227924
-0.018566
-0.0347712
-0.0504795
-0.0653302
-0.0790164
-0.0912855
-0.101945
-0.110868
-0.117998
-0.123348
-0.126998
-0.129073
-0.129747
-0.12923
-0.127752
-0.125572
-0.122968
-0.120232
-0.117646
-0.115457
-0.113867
-0.113025
19.2331
19.2287
19.2207
19.2092
19.1965
19.1825
19.1749
19.159
0.527177
0.609941
0.686627
0.794149
0.941659
1.11503
1.30737
1.51731
1.73959
1.97033
2.20548
2.44122
2.67391
2.90005
3.11635
3.3197
3.50717
3.67601
3.82364
3.94768
4.04595
4.11655
4.15781
4.1684
4.14726
4.09312
4.00606
3.88603
3.73333
3.54868
3.33318
3.08836
2.81614
2.51884
2.19927
1.86055
1.50623
1.14015
0.76646
0.389562
0.0141108
-0.355115
-0.713153
-1.05517
-1.37634
-1.67186
-1.93735
-2.16871
-2.36211
-2.51434
-2.62279
-2.68544
-2.70096
-2.66877
-2.5894
-2.46424
-2.29551
-2.08636
-1.8408
-1.56377
-1.26101
-0.938912
-0.604479
-0.265177
0.0712145
0.396727
0.703591
0.984272
1.23171
1.43961
1.60253
1.71628
1.77789
1.78571
1.73955
1.64101
1.49319
1.30078
1.07004
0.808616
0.525327
0.229974
-0.0670922
-0.355262
-0.624271
-0.864654
-1.06812
-1.22799
-1.33966
-1.40068
-1.41129
-1.37157
-1.28752
-1.16436
-1.00925
-0.830365
-0.636363
-0.435977
-0.237596
-0.0490652
0.123195
0.273705
0.398479
0.494875
0.561705
0.599129
0.608396
0.591424
0.55149
0.492226
0.417565
0.331576
0.238348
0.141796
0.045488
-0.0473941
-0.133762
-0.211836
-0.279754
-0.3363
-0.380773
-0.412933
-0.432939
-0.441318
-0.438854
-0.426674
-0.405936
-0.378038
-0.344401
-0.306472
-0.265663
-0.223343
-0.180781