/*--------------------------------*- C++ -*----------------------------------*\
  =========                 |
  \\      /  F ield         | OpenFOAM: The Open Source CFD Toolbox
   \\    /   O peration     | Website:  https://openfoam.org
    \\  /    A nd           | Version:  12
     \\/     M anipulation  |
\*---------------------------------------------------------------------------*/
FoamFile
{
    format      ascii;
    class       volScalarField;
    location    "0.29";
    object      epsilon;
}
// * * * * * * * * * * * * * * * * * * * * * * * * * * * * * * * * * * * * * //

dimensions      [0 2 -3 0 0 0 0];

internalField   nonuniform List<scalar> 
12225
(
278.515
263.66
249.434
236.839
226.738
219.483
215.069
213.262
213.704
215.988
219.71
224.499
230.037
236.058
242.361
248.779
255.343
264.848
61.1159
86.6952
97.9911
107.207
118.464
132.555
149.408
168.606
189.57
211.672
234.321
257.008
279.325
300.977
321.868
341.834
362.384
380.908
25.2776
36.183
43.3817
48.6211
53.386
58.3356
63.7696
69.824
76.5237
83.8205
91.6241
99.8252
108.312
116.985
125.775
134.662
143.794
153.161
17.5217
21.2986
24.7144
27.6099
30.1618
32.5398
34.8663
37.2273
39.6762
42.2393
44.9242
47.7262
50.6343
53.6361
56.7226
59.9012
63.1899
66.6142
15.4878
16.7519
18.1858
19.5888
20.9094
22.1489
23.3262
24.465
25.586
26.7046
27.8305
28.9693
30.124
31.2958
32.4865
33.7008
34.9434
36.211
14.9084
15.2396
15.7463
16.334
16.9476
17.5589
18.1557
18.7355
19.3
19.8524
20.3958
20.933
21.4661
21.9968
22.5269
23.0586
23.5936
24.126
14.7451
14.7391
14.8342
15.0036
15.2215
15.4679
15.7285
15.9948
16.2619
16.5273
16.79
17.0496
17.3062
17.56
17.8115
18.0615
18.3104
18.554
14.7012
14.5825
14.5116
14.4858
14.4981
14.5403
14.6043
14.6837
14.7736
14.8707
14.9724
15.0771
15.1835
15.2911
15.3994
15.5081
15.617
15.7234
14.6901
14.5373
14.407
14.3009
14.2182
14.1571
14.1145
14.0875
14.0732
14.0692
14.0735
14.0844
14.1006
14.1211
14.1451
14.1721
14.2015
14.2316
14.6874
14.5252
14.3761
14.2411
14.1204
14.0137
13.9203
13.8391
13.7688
13.7083
13.6564
13.6119
13.574
13.5418
13.5147
13.4919
13.473
13.4572
14.6868
14.5221
14.3677
14.2236
14.0896
13.9656
13.8512
13.746
13.6495
13.5611
13.4801
13.4061
13.3383
13.2764
13.2197
13.1678
13.1203
13.0771
14.6866
14.5213
14.3656
14.219
14.0812
13.9518
13.8305
13.7169
13.6105
13.5111
13.4182
13.3314
13.2504
13.1747
13.104
13.038
12.9764
12.9194
14.6865
14.521
14.3648
14.2175
14.0785
13.9473
13.8234
13.7065
13.5963
13.4922
13.3941
13.3016
13.2143
13.1319
13.0543
12.9811
12.912
12.8476
14.6864
14.5208
14.3645
14.2169
14.0774
13.9456
13.8209
13.7029
13.5913
13.4855
13.3853
13.2904
13.2005
13.1153
13.0345
12.9579
12.8853
12.8172
14.6864
14.5207
14.3643
14.2165
14.0769
13.9449
13.8199
13.7016
13.5895
13.4832
13.3824
13.2868
13.196
13.1098
13.0279
12.9501
12.8762
12.8068
14.6863
14.5206
14.3641
14.2163
14.0766
13.9444
13.8194
13.7009
13.5886
13.4822
13.3812
13.2854
13.1943
13.1079
13.0257
12.9475
12.8732
12.8034
14.6863
14.5205
14.364
14.2161
14.0763
13.9441
13.8189
13.7004
13.5881
13.4815
13.3805
13.2845
13.1934
13.1068
13.0245
12.9462
12.8718
12.8018
14.6863
14.5204
14.3639
14.216
14.0761
13.9439
13.8186
13.7001
13.5877
13.4811
13.3799
13.2839
13.1927
13.1061
13.0237
12.9454
12.8709
12.8007
14.6863
14.5204
14.3639
14.2159
14.0761
13.9438
13.8185
13.6999
13.5875
13.4809
13.3797
13.2837
13.1924
13.1057
13.0233
12.9449
12.8704
12.8002
14.6863
14.5205
14.3639
14.216
14.0762
13.9439
13.8187
13.7001
13.5877
13.4811
13.38
13.284
13.1928
13.1061
13.0237
12.9453
12.8709
12.8007
14.6863
14.5205
14.364
14.2162
14.0764
13.9443
13.8192
13.7007
13.5885
13.4821
13.3812
13.2854
13.1945
13.1082
13.0262
12.9482
12.8742
12.8046
14.6863
14.5206
14.3643
14.2167
14.0773
13.9457
13.8214
13.7039
13.5928
13.4878
13.3886
13.2947
13.2059
13.1218
13.0423
12.9669
12.8956
12.8288
14.6865
14.5212
14.3659
14.2202
14.0837
13.956
13.8368
13.7255
13.6218
13.525
13.4348
13.3506
13.272
13.1986
13.13
13.0659
13.006
12.9505
14.6876
14.5264
14.3793
14.2467
14.1282
14.0231
13.9302
13.8484
13.7762
13.7126
13.6565
13.6068
13.5628
13.5237
13.489
13.4581
13.4306
13.4066
14.6976
14.5664
14.4707
14.4075
14.3715
14.3568
14.3585
14.372
14.3941
14.4224
14.4551
14.4908
14.5287
14.5681
14.6085
14.6497
14.6914
14.7334
14.7737
14.8187
14.9603
15.1591
15.3863
15.6233
15.8598
16.0905
16.3135
16.5285
16.7359
16.9366
17.1314
17.3211
17.5066
17.6884
17.867
18.0419
15.2587
16.1151
17.0712
17.9727
18.7879
19.5239
20.1945
20.8149
21.3989
21.9574
22.4988
23.0292
23.5529
24.0728
24.5906
25.1071
25.6226
26.1345
18.0414
22.0079
24.9885
27.1533
28.8884
30.405
31.8127
33.1787
34.5441
35.9315
37.3518
38.809
40.302
41.8271
43.3785
44.9499
46.5348
48.1201
34.024
45.6879
51.3769
54.9426
58.0812
61.2985
64.7517
68.4844
72.4809
76.698
81.0857
85.5942
90.1769
94.7921
99.404
103.984
108.516
112.973
163.308
157.417
151.704
146.261
141.3
136.947
133.25
130.206
127.781
125.919
124.559
123.638
123.094
122.871
122.918
123.188
123.643
124.244
0.186935
0.234222
0.389729
0.526186
0.663673
0.828542
1.02055
1.24579
1.51095
1.81699
2.14114
2.48444
2.84458
3.21841
3.6027
3.99441
4.39064
4.78869
5.186
5.58012
5.9686
6.34904
6.71897
7.07589
7.41726
7.74047
8.0429
8.32185
8.57438
8.79699
8.98482
9.13082
9.22659
9.26805
9.26432
9.23317
9.16569
40.0276
40.2125
40.2817
40.2542
40.4103
9.43787
40.6979
42.3605
45.2918
48.4674
51.83
55.3679
59.078
62.9591
67.0118
71.2376
75.6381
80.2154
84.9715
89.9087
95.0287
100.334
105.825
111.504
117.371
123.428
129.675
136.111
142.736
149.55
156.551
163.736
171.105
178.654
186.379
194.277
202.345
210.576
218.967
227.51
236.202
245.033
253.999
263.092
272.303
281.625
291.049
300.567
310.169
319.845
329.587
339.382
349.221
359.092
368.984
378.885
388.782
398.665
408.522
418.346
428.134
437.895
447.661
457.406
467.021
476.504
485.846
495.037
504.061
512.901
521.543
529.971
538.169
546.122
553.815
561.234
568.364
575.192
581.705
587.891
593.738
599.234
604.37
609.135
613.522
617.523
621.129
624.336
627.139
629.532
631.512
633.078
634.227
634.961
635.278
635.182
634.675
633.76
632.442
630.727
628.622
626.133
623.27
620.042
616.458
612.529
608.267
603.684
598.792
593.606
588.139
582.406
576.42
570.198
563.754
557.105
550.266
543.253
536.08
528.768
521.329
513.78
506.14
498.408
490.637
482.798
474.961
467.205
460.367
457.147
454.49
451.851
449.2
446.54
443.867
441.176
438.445
435.629
432.625
429.201
424.75
417.797
401.883
0.723595
0.454211
0.468477
0.537536
0.639616
0.770495
0.928274
1.11419
1.32816
1.5681
1.8299
2.11088
2.40875
2.7214
3.04692
3.38354
3.72967
4.08392
4.44509
4.81224
5.18469
5.5621
5.94452
6.33249
6.72718
7.13051
7.54542
7.97618
8.42909
8.91387
9.44645
10.0527
10.7695
11.6404
12.7094
14.0036
15.38
16.8554
18.044
19.1694
20.2708
21.7502
22.9708
25.3439
27.1557
28.79
30.4397
32.1402
33.8999
35.7208
37.6046
39.5525
41.5661
43.6462
45.794
48.0102
50.2956
52.6506
55.0756
57.5711
60.1372
62.7738
65.4809
68.2582
71.1055
74.022
77.0073
80.0604
83.1805
86.3664
89.6168
92.9304
96.3056
99.7407
103.234
106.783
110.386
114.041
117.746
121.497
125.292
129.129
133.003
136.914
140.856
144.827
148.823
152.841
156.876
160.925
164.984
169.049
173.114
177.178
181.235
185.284
189.323
193.356
197.39
201.443
205.527
209.574
213.574
217.52
221.409
225.234
228.988
232.666
236.262
239.769
243.183
246.496
249.704
252.801
255.781
258.64
261.372
263.973
266.438
268.763
270.944
272.978
274.86
276.589
278.161
279.573
280.824
281.913
282.836
283.595
284.187
284.613
284.873
284.968
284.897
284.664
284.268
283.713
283
282.132
281.112
279.944
278.631
277.178
275.587
273.865
272.016
270.044
267.955
265.754
263.448
261.041
258.54
255.95
253.277
250.528
247.709
244.826
241.886
238.895
235.849
232.78
229.652
226.53
223.457
220.615
218.444
216.471
214.538
212.616
210.701
208.793
206.892
204.996
203.103
201.205
199.278
197.311
195.177
193.927
1.45312
0.767611
0.710907
0.759686
0.84937
0.970408
1.12023
1.29771
1.50143
1.72921
1.97844
2.24669
2.53188
2.83228
3.14655
3.47363
3.81277
4.16346
4.52549
4.89895
5.28427
5.68228
6.09421
6.5218
6.96734
7.43369
7.9244
8.44373
8.99674
9.58968
10.2307
10.93
11.6983
12.5408
13.4531
14.4189
15.4097
16.4327
17.4882
18.5786
19.7294
20.9837
22.2769
23.639
24.9955
26.3544
27.7471
29.186
30.6752
32.2157
33.8081
35.4529
37.1506
38.9014
40.7058
42.5641
44.4765
46.4433
48.4646
50.5404
52.6708
54.8556
57.0948
59.388
61.735
64.1353
66.5883
69.0936
71.6503
74.2576
76.9147
79.6204
82.3738
85.1735
88.0181
90.9064
93.8366
96.8071
99.8162
102.862
105.942
109.055
112.199
115.371
118.568
121.789
125.03
128.29
131.566
134.854
138.152
141.458
144.77
148.085
151.402
154.719
158.039
161.36
164.686
168.017
171.335
174.623
177.874
181.084
184.246
187.356
190.41
193.401
196.326
199.179
201.955
204.651
207.261
209.78
212.205
214.531
216.754
218.871
220.877
222.769
224.545
226.2
227.733
229.14
230.42
231.571
232.59
233.477
234.231
234.85
235.334
235.683
235.897
235.976
235.921
235.734
235.415
234.966
234.389
233.686
232.86
231.913
230.848
229.669
228.379
226.981
225.479
223.878
222.182
220.394
218.52
216.564
214.53
212.425
210.251
208.013
205.72
203.372
200.975
198.54
196.048
193.551
191.027
188.501
186.002
183.607
181.443
179.39
177.378
175.387
173.41
171.449
169.505
167.581
165.685
163.826
162.023
160.337
158.857
158.377
2.33223
1.13303
0.991061
1.00743
1.0841
1.19914
1.34555
1.52025
1.72103
1.94569
2.19197
2.45774
2.74114
3.04072
3.35541
3.68452
4.0277
4.38491
4.7564
5.14274
5.54478
5.96367
6.40088
6.85818
7.33764
7.8416
8.37264
8.93352
9.52712
10.1564
10.8247
11.5354
12.2917
13.0949
13.9439
14.8361
15.7679
16.7381
17.7477
18.8003
19.9017
21.0559
22.254
23.4913
24.7605
26.0629
27.405
28.7916
30.225
31.7066
33.2372
34.8174
36.4476
38.1283
39.86
41.6429
43.4774
45.3638
47.3024
49.2935
51.3371
53.4333
55.5822
57.7839
60.038
62.3446
64.7032
67.1135
69.575
72.0872
74.6494
77.2608
79.9205
82.6274
85.3805
88.1784
91.0199
93.9033
96.8272
99.7897
102.789
105.823
108.89
111.988
115.114
118.266
121.442
124.639
127.855
131.088
134.334
137.592
140.859
144.133
147.414
150.698
153.985
157.274
160.561
163.838
167.092
170.316
173.503
176.649
179.748
182.795
185.785
188.713
191.574
194.363
197.075
199.706
202.25
204.704
207.062
209.322
211.478
213.526
215.464
217.288
218.994
220.58
222.043
223.381
224.591
225.672
226.622
227.44
228.125
228.676
229.092
229.375
229.523
229.538
229.421
229.172
228.794
228.287
227.654
226.898
226.02
225.024
223.913
222.69
221.359
219.923
218.386
216.753
215.028
213.214
211.318
209.343
207.292
205.174
202.991
200.744
198.448
196.098
193.702
191.278
188.817
186.34
183.844
181.344
178.86
176.432
174.11
171.859
169.646
167.457
165.291
163.146
161.028
158.943
156.901
154.921
153.037
151.324
149.896
149.22
3.21806
1.51274
1.26915
1.2524
1.31565
1.42466
1.56799
1.74061
1.93956
2.16249
2.40729
2.67205
2.95514
3.25531
3.57164
3.90363
4.25109
4.61417
4.99328
5.3891
5.80252
6.23467
6.68689
7.16068
7.65771
8.17976
8.72871
9.30648
9.91499
10.5561
11.2318
11.944
12.6945
13.4848
14.3158
15.1879
16.1013
17.0559
18.0521
19.0913
20.1751
21.304
22.4764
23.6909
24.9462
26.2433
27.5842
28.9711
30.4055
31.8888
33.4218
35.0055
36.6405
38.3275
40.0673
41.8604
43.7075
45.609
47.5657
49.5778
51.646
53.7706
55.9518
58.1901
60.4854
62.838
65.2477
67.7145
70.2382
72.8183
75.4544
78.1458
80.8918
83.6915
86.5439
89.4477
92.4016
95.4041
98.4535
101.548
104.686
107.865
111.083
114.338
117.627
120.948
124.298
127.675
131.076
134.497
137.938
141.393
144.862
148.341
151.828
155.32
158.815
162.309
165.793
169.259
172.697
176.102
179.468
182.788
186.058
189.272
192.423
195.507
198.518
201.45
204.299
207.059
209.725
212.293
214.756
217.112
219.355
221.482
223.488
225.37
227.125
228.749
230.24
231.596
232.814
233.892
234.83
235.625
236.276
236.785
237.149
237.37
237.447
237.382
237.176
236.831
236.347
235.728
234.975
234.092
233.081
231.946
230.69
229.318
227.831
226.236
224.536
222.737
220.842
218.856
216.786
214.635
212.405
210.109
207.749
205.317
202.845
200.326
197.765
195.173
192.55
189.907
187.248
184.584
181.93
179.31
176.747
174.234
171.756
169.306
166.884
164.492
162.134
159.821
157.566
155.391
153.336
151.474
149.899
148.873
4.05221
1.86088
1.52694
1.48001
1.53047
1.63327
1.77301
1.94297
2.13945
2.35989
2.60226
2.86481
3.14608
3.44497
3.7607
4.09283
4.44126
4.80617
5.18799
5.58739
6.00521
6.44249
6.90042
7.38031
7.88361
8.41182
8.96657
9.54947
10.1622
10.8064
11.4838
12.196
12.9449
13.7318
14.5583
15.4255
16.3343
17.2855
18.2797
19.3175
20.4
21.5274
22.7002
23.9182
25.1819
26.492
27.8498
29.2568
30.7142
32.2234
33.7854
35.4015
37.0727
38.8001
40.5845
42.4271
44.3288
46.2906
48.3133
50.3978
52.5449
54.7553
57.0299
59.369
61.7732
64.243
66.7786
69.38
72.0474
74.7805
77.5791
80.4427
83.3706
86.362
89.4158
92.5309
95.7058
98.939
102.229
105.573
108.969
112.416
115.91
119.449
123.03
126.651
130.308
133.998
137.718
141.465
145.235
149.025
152.832
156.652
160.481
164.317
168.154
171.987
175.803
179.593
183.352
187.073
190.75
194.375
197.943
201.448
204.882
208.24
211.515
214.702
217.794
220.786
223.672
226.446
229.103
231.639
234.048
236.326
238.468
240.471
242.331
244.045
245.611
247.024
248.284
249.388
250.336
251.125
251.756
252.227
252.539
252.693
252.688
252.527
252.211
251.742
251.122
250.354
249.44
248.384
247.19
245.861
244.402
242.817
241.11
239.285
237.35
235.31
233.166
230.924
228.597
226.185
223.686
221.122
218.495
215.806
213.067
210.283
207.458
204.599
201.713
198.806
195.885
192.958
190.038
187.139
184.279
181.456
178.666
175.909
173.185
170.498
167.856
165.269
162.752
160.332
158.046
155.961
154.142
152.735
4.77116
2.16993
1.7567
1.68238
1.72057
1.8168
1.95217
2.11843
2.31121
2.52773
2.76596
3.02428
3.30136
3.59624
3.90823
4.23696
4.58238
4.94466
5.32425
5.72178
6.13807
6.57412
7.03103
7.51007
8.01259
8.54005
9.09399
9.676
10.2877
10.9308
11.6069
12.3178
13.0651
13.8505
14.6754
15.5414
16.4497
17.4012
18.3971
19.4381
20.5252
21.6594
22.8413
24.0719
25.3521
26.6829
28.0657
29.5018
30.9927
32.5398
34.1446
35.8086
37.5332
39.3198
41.17
43.0851
45.0666
47.1158
49.2341
51.4228
53.6831
56.0162
58.4232
60.905
63.4626
66.0967
68.8078
71.5964
74.4628
77.4069
80.4287
83.5278
86.7037
89.9555
93.2821
96.6824
100.155
103.697
107.308
110.985
114.725
118.526
122.385
126.299
130.265
134.278
138.336
142.435
146.571
150.74
154.938
159.16
163.403
167.662
171.932
176.208
180.487
184.751
188.993
193.204
197.378
201.507
205.584
209.603
213.555
217.433
221.231
224.94
228.554
232.066
235.47
238.758
241.924
244.962
247.867
250.632
253.253
255.724
258.041
260.199
262.194
264.024
265.685
267.174
268.489
269.629
270.592
271.377
271.984
272.412
272.662
272.735
272.632
272.354
271.904
271.284
270.497
269.546
268.436
267.169
265.749
264.182
262.473
260.628
258.649
256.54
254.315
251.977
249.528
246.969
244.325
241.593
238.777
235.889
232.934
229.917
226.847
223.731
220.574
217.384
214.167
210.929
207.679
204.423
201.173
197.94
194.734
191.562
188.423
185.321
182.258
179.24
176.276
173.377
170.562
167.855
165.293
162.931
160.811
159.017
5.38569
2.4388
1.95515
1.8554
1.88143
1.97044
2.10042
2.26176
2.44944
2.66046
2.89275
3.14476
3.41531
3.70353
4.00884
4.33097
4.66987
5.02578
5.39915
5.79062
6.20101
6.63132
7.08265
7.55627
8.05354
8.57592
9.12495
9.70224
10.3095
10.9483
11.6205
12.3278
13.0719
13.8544
14.6771
15.5416
16.4493
17.4015
18.3996
19.4448
20.5384
21.6817
22.8759
24.1223
25.4225
26.7778
28.1898
29.6603
31.1909
32.7835
34.44
36.1622
37.9521
39.8116
41.7426
43.7472
45.8272
47.9846
50.2211
52.5387
54.9391
57.4238
59.9945
62.6526
65.3994
68.236
71.1634
74.1821
77.2929
80.496
83.7913
87.1786
90.6575
94.227
97.8861
101.633
105.467
109.385
113.384
117.463
121.619
125.847
130.145
134.509
138.935
143.419
147.957
152.543
157.175
161.845
166.551
171.286
176.044
180.822
185.612
190.408
195.204
199.975
204.717
209.422
214.082
218.689
223.235
227.712
232.11
236.422
240.64
244.754
248.758
252.643
256.403
260.028
263.513
266.851
270.034
273.058
275.915
278.601
281.111
283.439
285.581
287.534
289.296
290.862
292.232
293.403
294.374
295.145
295.715
296.084
296.254
296.225
295.999
295.578
294.965
294.164
293.177
292.01
290.666
289.15
287.464
285.617
283.617
281.468
279.173
276.732
274.171
271.488
268.69
265.78
262.772
259.673
256.487
253.224
249.89
246.494
243.043
239.544
236.004
232.431
228.831
225.213
221.583
217.95
214.322
210.709
207.122
203.566
200.047
196.567
193.134
189.754
186.437
183.197
180.05
177.023
174.148
171.469
169.011
166.824
5.89145
2.66479
2.12012
1.99695
2.01083
2.09188
2.21541
2.37056
2.55177
2.75578
2.98048
3.22439
3.48642
3.76582
4.06212
4.37512
4.70485
5.0516
5.41584
5.79826
6.1997
6.62118
7.06384
7.52895
8.01789
8.53216
9.07331
9.643
10.2429
10.8748
11.5405
12.2417
12.9803
13.758
14.5768
15.4383
16.3442
17.2963
18.2962
19.3456
20.4461
21.5994
22.8074
24.0717
25.3943
26.7771
28.2222
29.7317
31.3079
32.9529
34.6692
36.4593
38.3256
40.2706
42.2969
44.4071
46.6035
48.8888
51.2654
53.7357
56.302
58.9664
61.7311
64.5979
67.5686
70.6448
73.8276
77.1182
80.5173
84.0254
87.6426
91.3687
95.2032
99.1451
103.193
107.346
111.601
115.956
120.408
124.954
129.591
134.314
139.119
144.002
148.958
153.982
159.069
164.214
169.411
174.654
179.937
185.255
190.599
195.965
201.344
206.731
212.1
217.438
222.74
227.995
233.196
238.334
243.398
248.379
253.268
258.055
262.73
267.284
271.709
275.996
280.137
284.122
287.945
291.598
295.073
298.365
301.466
304.371
307.074
309.57
311.855
313.925
315.777
317.408
318.817
320.003
320.963
321.698
322.207
322.492
322.553
322.393
322.014
321.419
320.609
319.591
318.369
316.948
315.332
313.528
311.535
309.367
307.034
304.54
301.89
299.089
296.152
293.085
289.895
286.589
283.177
279.668
276.069
272.388
268.635
264.816
260.941
257.018
253.054
249.057
245.035
240.996
236.948
232.898
228.856
224.83
220.829
216.862
212.934
209.052
205.223
201.455
197.76
194.152
190.648
187.272
184.053
181.027
178.204
175.622
6.28816
2.84702
2.2511
2.1067
2.10852
2.18093
2.29697
2.44477
2.61826
2.81396
3.02973
3.26411
3.51613
3.78513
4.07074
4.37284
4.69157
5.02725
5.38041
5.75178
6.14224
6.55283
6.9847
7.43917
7.91764
8.42161
8.95271
9.5126
10.103
10.7258
11.3829
12.076
12.8073
13.5786
14.392
15.2494
16.1529
17.1046
18.1065
19.1607
20.2693
21.4345
22.6586
23.9438
25.2927
26.7078
28.1916
29.7468
31.3763
33.083
34.8699
36.7401
38.6966
40.7428
42.8817
45.1167
47.4509
49.8876
52.4298
55.0805
57.8427
60.719
63.7122
66.8245
70.0583
73.4153
76.8973
80.5056
84.2411
88.1044
92.0957
96.2148
100.461
104.833
109.33
113.949
118.687
123.543
128.512
133.59
138.773
144.057
149.435
154.904
160.456
166.086
171.789
177.557
183.384
189.263
195.187
201.149
207.141
213.155
219.183
225.208
231.199
237.151
243.055
248.902
254.682
260.385
265.999
271.513
276.917
282.2
287.351
292.36
297.218
301.915
306.441
310.788
314.948
318.912
322.672
326.223
329.556
332.666
335.547
338.192
340.597
342.76
344.677
346.346
347.765
348.934
349.851
350.517
350.931
351.095
351.011
350.682
350.112
349.302
348.257
346.98
345.481
343.766
341.839
339.706
337.374
334.851
332.147
329.27
326.226
323.024
319.674
316.185
312.565
308.824
304.971
301.015
296.966
292.832
288.622
284.347
280.014
275.632
271.211
266.758
262.282
257.792
253.294
248.798
244.313
239.846
235.408
231.006
226.649
222.343
218.098
213.923
209.829
205.832
201.949
198.203
194.617
191.222
188.016
185.035
6.57988
2.98656
2.34915
2.18586
2.17588
2.23909
2.34678
2.48622
2.65095
2.83732
3.04315
3.26701
3.508
3.76558
4.03945
4.32961
4.63623
4.95972
5.30066
5.65981
6.03808
6.43653
6.85637
7.29891
7.76559
8.25797
8.77769
9.32651
9.90624
10.5188
11.1662
11.8506
12.5739
13.3386
14.1467
15.0007
15.903
16.8559
17.8621
18.9241
20.0445
21.2262
22.4719
23.7847
25.1675
26.6236
28.1562
29.7688
31.4648
33.2479
35.1219
37.0906
39.1578
41.3277
43.6041
45.991
48.4925
51.1124
53.8546
56.7226
59.7201
62.8502
66.1161
69.5208
73.0667
76.7561
80.5909
84.5727
88.7024
92.9806
97.4074
101.982
106.704
111.572
116.584
121.736
127.026
132.45
138.003
143.682
149.48
155.391
161.41
167.529
173.742
180.041
186.42
192.871
199.387
205.959
212.58
219.24
225.932
232.644
239.367
246.055
252.7
259.293
265.826
272.285
278.661
284.942
291.116
297.17
303.092
308.869
314.49
319.945
325.223
330.314
335.209
339.896
344.369
348.617
352.633
356.411
359.943
363.223
366.244
368.998
371.484
373.698
375.637
377.299
378.684
379.791
380.619
381.169
381.441
381.437
381.161
380.616
379.807
378.738
377.413
375.838
374.022
371.97
369.69
367.189
364.475
361.557
358.444
355.146
351.671
348.029
344.23
340.284
336.201
331.991
327.664
323.23
318.7
314.083
309.389
304.629
299.811
294.945
290.04
285.107
280.153
275.187
270.218
265.255
260.305
255.379
250.486
245.633
240.831
236.087
231.412
226.815
222.308
217.908
213.631
209.497
205.528
201.748
198.149
194.768
6.77456
3.08613
2.41662
2.23689
2.21554
2.26922
2.36789
2.49822
2.65343
2.82978
3.02503
3.23781
3.46728
3.71297
3.97469
4.25249
4.54663
4.85756
5.1859
5.53246
5.89818
6.28417
6.69165
7.12199
7.57669
8.05735
8.56571
9.10362
9.67304
10.2761
10.9148
11.5917
12.3091
13.0694
13.8754
14.7298
15.6354
16.5951
17.6121
18.6895
19.8305
21.0387
22.3177
23.6709
25.1024
26.616
28.2159
29.9062
31.6913
33.5758
35.5642
37.6613
39.8718
42.2007
44.6527
47.2326
49.9453
52.7955
55.7876
58.9259
62.2145
65.657
69.2569
73.0175
76.9417
81.0318
85.2897
89.7171
94.3146
99.0827
104.021
109.128
114.404
119.844
125.448
131.21
137.127
143.194
149.407
155.758
162.241
168.85
175.574
182.407
189.341
196.367
203.478
210.664
217.918
225.23
232.592
239.992
247.423
254.872
262.286
269.652
276.959
284.198
291.357
298.424
305.386
312.23
318.946
325.518
331.93
338.17
344.227
350.089
355.746
361.187
366.402
371.38
376.113
380.591
384.808
388.755
392.426
395.818
398.919
401.722
404.225
406.427
408.326
409.919
411.207
412.19
412.867
413.241
413.312
413.084
412.561
411.747
410.648
409.267
407.613
405.69
403.508
401.075
398.398
395.485
392.347
388.993
385.433
381.677
377.736
373.619
369.338
364.904
360.328
355.621
350.793
345.856
340.821
335.698
330.497
325.231
319.908
314.54
309.135
303.704
298.256
292.8
287.346
281.902
276.477
271.08
265.721
260.409
255.154
249.964
244.85
239.823
234.897
230.084
225.404
220.874
216.512
212.339
208.343
204.562
6.88348
3.14972
2.45681
2.26311
2.23103
2.27511
2.36441
2.48521
2.63053
2.79655
2.98105
3.1827
3.40072
3.6347
3.88452
4.15031
4.43238
4.73123
5.04755
5.38218
5.73613
6.11055
6.50674
6.92615
7.37036
7.84111
8.34027
8.86986
9.43206
10.0292
10.6637
11.3383
12.0557
12.8188
13.6308
14.4949
15.4146
16.3934
17.435
18.5435
19.7229
20.9775
22.3117
23.7301
25.2375
26.8386
28.5386
30.3426
32.256
34.2843
36.4332
38.7082
41.1153
43.66
46.3482
49.1856
52.1777
55.3301
58.6479
62.1358
65.798
69.6381
73.6599
77.8667
82.2612
86.8458
91.622
96.591
101.753
107.107
112.653
118.389
124.311
130.417
136.703
143.163
149.792
156.584
163.533
170.631
177.871
185.244
192.737
200.341
208.048
215.848
223.733
231.693
239.718
247.8
255.927
264.089
272.278
280.428
288.521
296.545
304.49
312.343
320.091
327.722
335.221
342.577
349.777
356.811
363.648
370.281
376.7
382.894
388.851
394.561
400.013
405.198
410.106
414.728
419.056
423.084
426.806
430.215
433.305
436.07
438.508
440.616
442.392
443.838
444.951
445.733
446.186
446.311
446.112
445.592
444.756
443.609
442.157
440.407
438.365
436.041
433.441
430.576
427.455
424.087
420.483
416.652
412.607
408.359
403.918
399.296
394.506
389.558
384.464
379.237
373.889
368.43
362.872
357.228
351.508
345.723
339.885
334.004
328.091
322.155
316.207
310.255
304.311
298.382
292.478
286.609
280.783
275.011
269.302
263.666
258.114
252.657
247.309
242.084
236.998
232.069
227.313
222.746
218.355
214.18
6.92071
3.1823
2.47365
2.26845
2.22654
2.2613
2.34131
2.45262
2.58818
2.74418
2.91839
3.10956
3.31695
3.54023
3.77935
4.03449
4.30604
4.59459
4.90088
5.22584
5.57058
5.93636
6.32461
6.73694
7.1751
7.64105
8.1369
8.66498
9.22779
9.82802
10.4686
11.1526
11.8834
12.6646
13.4999
14.3932
15.3488
16.3711
17.4648
18.6347
19.8861
21.2243
22.655
24.1838
25.8166
27.5594
29.4181
31.3992
33.5092
35.7546
38.1423
40.6788
43.3709
46.2253
49.2483
52.4465
55.8261
59.3932
63.1534
67.1121
71.2724
75.6366
80.2083
84.9903
89.9851
95.1941
100.618
106.257
112.109
118.174
124.448
130.928
137.61
144.489
151.558
158.811
166.242
173.841
181.601
189.514
197.571
205.77
214.079
222.492
231.003
239.601
248.277
257.021
265.824
274.675
283.562
292.476
301.336
310.127
318.836
327.449
335.955
344.34
352.589
360.689
368.626
376.386
383.956
391.322
398.466
405.375
412.038
418.444
424.58
430.437
436.004
441.273
446.233
450.876
455.197
459.186
462.84
466.152
469.118
471.733
473.995
475.902
477.453
478.649
479.49
479.978
480.115
479.904
479.35
478.457
477.23
475.677
473.803
471.617
469.127
466.341
463.27
459.922
456.309
452.441
448.33
443.986
439.422
434.65
429.682
424.531
419.208
413.727
408.099
402.338
396.457
390.466
384.379
378.208
371.964
365.659
359.305
352.912
346.491
340.054
333.609
327.167
320.738
314.331
307.955
301.62
295.336
289.112
282.958
276.885
270.903
265.025
259.264
253.633
248.148
242.827
237.682
232.728
227.95
223.392
6.90265
3.1894
2.47146
2.25729
2.2068
2.23305
2.30448
2.40709
2.53387
2.68103
2.84643
3.02886
3.22769
3.44265
3.67379
3.92138
4.18592
4.46811
4.76886
5.08926
5.43061
5.79437
6.18225
6.59614
7.03814
7.51059
8.01604
8.55731
9.13746
9.75981
10.4279
11.1457
11.9174
12.7475
13.6407
14.602
15.6367
16.7503
17.9489
19.2387
20.6264
22.1187
23.7231
25.4468
27.2973
29.2811
31.4052
33.6774
36.1054
38.6971
41.4601
44.4018
47.5297
50.8507
54.3717
58.0992
62.0394
66.1982
70.582
75.1984
80.0455
85.1197
90.4257
95.9655
101.74
107.749
113.991
120.464
127.165
134.09
141.233
148.59
156.153
163.916
171.869
180.005
188.313
196.785
205.409
214.176
223.075
232.095
241.22
250.438
259.739
269.113
278.549
288.04
297.574
307.147
316.717
326.212
335.62
344.927
354.119
363.182
372.103
380.866
389.459
397.866
406.075
414.071
421.841
429.371
436.648
443.657
450.388
456.83
462.971
468.801
474.312
479.494
484.34
488.841
492.991
496.785
500.217
503.283
505.98
508.303
510.252
511.825
513.024
513.847
514.299
514.38
514.094
513.446
512.441
511.084
509.381
507.341
504.97
502.279
499.274
495.968
492.369
488.489
484.339
479.93
475.275
470.386
465.275
459.955
454.439
448.741
442.873
436.848
430.68
424.381
417.965
411.444
404.831
398.139
391.379
384.563
377.704
370.812
363.898
356.974
350.049
343.133
336.237
329.37
322.541
315.76
309.036
302.379
295.8
289.309
282.916
276.634
270.476
264.456
258.588
252.888
247.369
242.043
236.894
231.971
6.84499
3.17645
2.45445
2.23386
2.17653
2.19579
2.26023
2.35599
2.47618
2.61713
2.77681
2.95413
3.14859
3.36006
3.58875
3.83514
4.09995
4.38415
4.68895
5.01578
5.36635
5.74261
6.14676
6.5813
7.04899
7.55292
8.09647
8.68341
9.31782
10.0042
10.7471
11.552
12.4244
13.3706
14.3972
15.5108
16.7178
18.0256
19.4423
20.9761
22.6356
24.43
26.3685
28.4613
30.7206
33.1479
35.7514
38.5409
41.5253
44.713
48.1117
51.7287
55.5709
59.6444
63.9547
68.5069
73.3051
78.353
83.6534
89.2085
95.0171
101.077
107.387
113.945
120.749
127.795
135.078
142.592
150.332
158.29
166.459
174.829
183.392
192.138
201.056
210.135
219.364
228.732
238.228
247.838
257.552
267.357
277.241
287.193
297.201
307.257
317.351
327.479
337.621
347.696
357.67
367.53
377.262
386.852
396.288
405.554
414.637
423.524
432.202
440.656
448.875
456.845
464.554
471.989
479.138
485.99
492.533
498.758
504.655
510.214
515.429
520.29
524.791
528.925
532.688
536.074
539.08
541.701
543.936
545.783
547.241
548.31
548.992
549.288
549.201
548.734
547.893
546.681
545.106
543.173
540.89
538.265
535.308
532.027
528.432
524.534
520.344
515.874
511.135
506.139
500.9
495.43
489.743
483.85
477.767
471.506
465.081
458.506
451.793
444.956
438.008
430.963
423.833
416.63
409.368
402.057
394.71
387.338
379.952
372.563
365.181
357.816
350.477
343.175
335.918
328.717
321.579
314.516
307.537
300.653
293.874
287.212
280.681
274.294
268.064
262.007
256.133
250.455
244.958
239.691
6.77974
3.15322
2.43096
2.20763
2.14712
2.16334
2.22525
2.31926
2.43871
2.58012
2.7417
2.92258
3.12251
3.34171
3.58076
3.84058
4.12241
4.42781
4.7587
5.1173
5.50621
5.92839
6.38721
6.88641
7.43022
8.0233
8.67067
9.37803
10.1518
10.9988
11.9252
12.9388
14.0482
15.2629
16.5939
18.0515
19.6392
21.3689
23.2519
25.2991
27.5214
29.9295
32.5341
35.3459
38.3745
41.6271
45.1112
48.8344
52.8036
57.0248
61.503
66.2422
71.2455
76.5149
82.0515
87.8552
93.9254
100.26
106.857
113.712
120.82
128.176
135.772
143.602
151.658
159.933
168.418
177.103
185.98
195.038
204.267
213.656
223.194
232.87
242.673
252.59
262.611
272.723
282.916
293.179
303.5
313.87
324.276
334.716
345.173
355.651
366.13
376.53
386.801
396.942
406.938
416.776
426.443
435.928
445.216
454.297
463.157
471.786
480.17
488.298
496.159
503.741
511.035
518.028
524.711
531.073
537.106
542.801
548.149
553.143
557.776
562.042
565.934
569.448
572.579
575.325
577.681
579.646
581.219
582.399
583.187
583.583
583.589
583.208
582.444
581.302
579.786
577.902
575.657
573.058
570.114
566.833
563.225
559.299
555.066
550.537
545.723
540.637
535.291
529.697
523.868
517.818
511.559
505.105
498.47
491.667
484.709
477.611
470.385
463.046
455.605
448.076
440.472
432.805
425.088
417.331
409.547
401.746
393.94
386.139
378.352
370.59
362.863
355.179
347.547
339.977
332.477
325.058
317.729
310.5
303.382
296.386
289.525
282.812
276.261
269.885
263.695
257.703
251.892
246.318
6.72949
3.12839
2.40964
2.18891
2.13126
2.15137
2.21872
2.32015
2.44936
2.60329
2.78057
2.98086
3.20456
3.45261
3.72649
4.02817
4.36008
4.72518
5.12699
5.56957
6.05754
6.59624
7.19169
7.85029
8.57968
9.38835
10.2839
11.2762
12.377
13.6012
14.9516
16.4419
18.0858
19.8971
21.8893
24.0755
26.4667
29.0753
31.9134
34.9925
38.323
41.9144
45.7748
49.911
54.3282
59.0294
64.0166
69.2901
74.8494
80.6925
86.8162
93.2161
99.8868
106.822
114.014
121.456
129.138
137.053
145.191
153.541
162.095
170.841
179.77
188.87
198.132
207.545
217.099
226.783
236.587
246.501
256.514
266.617
276.799
287.051
297.364
307.726
318.13
328.568
339.03
349.507
359.997
370.489
380.97
391.468
401.927
412.275
422.47
432.517
442.401
452.113
461.643
470.979
480.111
489.029
497.721
506.178
514.389
522.345
530.034
537.448
544.576
551.409
557.939
564.156
570.051
575.616
580.844
585.727
590.258
594.432
598.242
601.682