/*--------------------------------*- C++ -*----------------------------------*\
  =========                 |
  \\      /  F ield         | OpenFOAM: The Open Source CFD Toolbox
   \\    /   O peration     | Website:  https://openfoam.org
    \\  /    A nd           | Version:  12
     \\/     M anipulation  |
\*---------------------------------------------------------------------------*/
FoamFile
{
    format      ascii;
    class       volScalarField;
    location    "0.29";
    object      k;
}
// * * * * * * * * * * * * * * * * * * * * * * * * * * * * * * * * * * * * * //

dimensions      [0 2 -2 0 0 0 0];

internalField   nonuniform List<scalar> 
12225
(
0.353921
0.335043
0.316966
0.300961
0.288125
0.278906
0.273297
0.271001
0.271563
0.274465
0.279194
0.28528
0.292317
0.299968
0.307979
0.316133
0.324475
0.336553
0.436864
0.448979
0.438084
0.43306
0.438785
0.453582
0.474794
0.499971
0.527124
0.554769
0.581877
0.607782
0.632107
0.654674
0.675587
0.694744
0.714204
0.729491
0.395187
0.410874
0.410631
0.405747
0.40201
0.400923
0.402613
0.406805
0.413078
0.420973
0.430056
0.439949
0.450339
0.460983
0.471739
0.482496
0.493534
0.504224
0.379641
0.38484
0.386546
0.38573
0.383905
0.382026
0.380567
0.379738
0.379605
0.380146
0.381298
0.382981
0.385112
0.387614
0.390435
0.39354
0.396945
0.400547
0.374976
0.3759
0.376239
0.375721
0.37457
0.373084
0.371496
0.369967
0.368593
0.367426
0.366484
0.365767
0.365266
0.364965
0.364852
0.364916
0.365154
0.365533
0.373488
0.372555
0.371759
0.370807
0.369631
0.368275
0.366809
0.3653
0.363804
0.362358
0.36099
0.359714
0.358537
0.357461
0.356487
0.355615
0.354843
0.354165
0.373012
0.371296
0.369813
0.368416
0.367025
0.36561
0.364169
0.362712
0.361258
0.359824
0.358426
0.357073
0.355774
0.354533
0.353354
0.35224
0.351191
0.350215
0.372865
0.370838
0.369004
0.367311
0.365711
0.364174
0.362679
0.361216
0.359783
0.358382
0.357015
0.355688
0.354402
0.353162
0.351968
0.350823
0.349729
0.348697
0.37282
0.37068
0.368691
0.366836
0.365095
0.363449
0.36188
0.360376
0.358928
0.357532
0.356183
0.35488
0.353622
0.35241
0.351242
0.350119
0.349042
0.348023
0.372806
0.370628
0.368578
0.366648
0.364829
0.36311
0.361482
0.359934
0.358457
0.357046
0.355694
0.354397
0.353153
0.351959
0.350812
0.349713
0.34866
0.347664
0.372801
0.370609
0.368537
0.366576
0.36472
0.362964
0.361299
0.359719
0.358216
0.356785
0.355421
0.354118
0.352874
0.351685
0.350547
0.34946
0.348421
0.34744
0.372799
0.370602
0.368522
0.36655
0.36468
0.362907
0.361225
0.359627
0.358109
0.356664
0.355289
0.353978
0.352729
0.351537
0.3504
0.349315
0.34828
0.347304
0.372797
0.370599
0.368514
0.366537
0.364661
0.36288
0.361188
0.359581
0.358053
0.3566
0.355216
0.353899
0.352644
0.351448
0.350308
0.349221
0.348185
0.34721
0.372796
0.370596
0.368509
0.366528
0.364649
0.362864
0.361168
0.359555
0.358022
0.356563
0.355174
0.353852
0.352592
0.351392
0.350248
0.349157
0.348119
0.347141
0.372795
0.370593
0.368505
0.366523
0.364641
0.362853
0.361154
0.359539
0.358003
0.35654
0.355148
0.353823
0.35256
0.351357
0.35021
0.349116
0.348075
0.347094
0.372794
0.370592
0.368502
0.366518
0.364634
0.362845
0.361145
0.359527
0.357989
0.356525
0.355131
0.353803
0.352538
0.351333
0.350184
0.349088
0.348044
0.347061
0.372794
0.37059
0.368499
0.366515
0.36463
0.362839
0.361137
0.359519
0.357979
0.356514
0.355118
0.353789
0.352523
0.351316
0.350165
0.349067
0.348021
0.347037
0.372794
0.370589
0.368498
0.366512
0.364627
0.362835
0.361132
0.359513
0.357972
0.356506
0.355109
0.353779
0.352511
0.351303
0.350151
0.349052
0.348005
0.347019
0.372793
0.370589
0.368497
0.366512
0.364626
0.362834
0.361131
0.359511
0.357969
0.356502
0.355105
0.353774
0.352506
0.351297
0.350144
0.349044
0.347996
0.34701
0.372794
0.37059
0.368498
0.366513
0.364628
0.362836
0.361133
0.359514
0.357973
0.356506
0.355109
0.353779
0.352511
0.351302
0.350149
0.349049
0.348001
0.347015
0.372794
0.370591
0.3685
0.366516
0.364632
0.362841
0.36114
0.359522
0.357982
0.356517
0.355122
0.353793
0.352526
0.351319
0.350167
0.349069
0.348022
0.347037
0.372795
0.370593
0.368504
0.366522
0.364641
0.362855
0.361158
0.359546
0.358012
0.356552
0.355163
0.353839
0.352578
0.351375
0.350228
0.349134
0.348091
0.347108
0.372796
0.370598
0.368518
0.366547
0.364681
0.362912
0.361235
0.359641
0.358127
0.356685
0.355311
0.354001
0.35275
0.351556
0.350415
0.349324
0.348281
0.347298
0.372804
0.370631
0.368592
0.366676
0.364872
0.363166
0.361548
0.360006
0.358532
0.35712
0.355767
0.354467
0.353219
0.352019
0.350867
0.349761
0.348701
0.347697
0.372856
0.370818
0.368973
0.367264
0.365645
0.364085
0.362567
0.361083
0.359631
0.358213
0.356832
0.355493
0.354196
0.352946
0.351743
0.35059
0.349486
0.348445
0.373166
0.37177
0.370579
0.369371
0.368049
0.366605
0.365072
0.363492
0.361905
0.360342
0.358826
0.357372
0.355991
0.354688
0.353468
0.352329
0.351272
0.350303
0.374797
0.375829
0.376175
0.375401
0.373834
0.371876
0.369792
0.36774
0.365814
0.364067
0.362524
0.361195
0.360076
0.359157
0.358425
0.357864
0.357457
0.35719
0.382729
0.39167
0.392375
0.388805
0.384384
0.380403
0.377247
0.374998
0.373621
0.373039
0.373154
0.373867
0.375085
0.376718
0.378687
0.380924
0.383367
0.385947
0.407499
0.414514
0.405423
0.395992
0.390555
0.389292
0.391457
0.396217
0.402839
0.410729
0.419438
0.428624
0.438034
0.44748
0.456825
0.465975
0.474884
0.483468
0.360554
0.347547
0.334933
0.322917
0.311965
0.302353
0.29419
0.287471
0.282116
0.278005
0.275002
0.272968
0.271768
0.271277
0.27138
0.271977
0.27298
0.274307
0.000651575
0.0037233
0.00619055
0.00835069
0.010522
0.0131236
0.0161499
0.0196959
0.023866
0.0286766
0.0337639
0.0391439
0.0447791
0.0506191
0.0566126
0.0627107
0.0688679
0.0750414
0.081191
0.0872778
0.0932641
0.0991121
0.104784
0.110241
0.115444
0.120354
0.124932
0.129135
0.132918
0.136225
0.138976
0.141068
0.142397
0.142945
0.142868
0.142397
0.141576
0.140771
0.141334
0.141844
0.142395
0.143696
0.146674
0.145761
0.150346
0.157153
0.16435
0.171795
0.179451
0.187301
0.195334
0.203541
0.211919
0.220462
0.229168
0.238033
0.247055
0.256232
0.265559
0.275035
0.284656
0.294418
0.304318
0.314351
0.324512
0.334796
0.345198
0.355713
0.366333
0.377053
0.387866
0.398764
0.409741
0.420787
0.431896
0.443059
0.454267
0.465513
0.476787
0.48808
0.499383
0.510687
0.521983
0.533261
0.544512
0.555727
0.566895
0.578008
0.589055
0.600026
0.610912
0.621702
0.632386
0.642953
0.653395
0.663703
0.673873
0.683905
0.693813
0.703631
0.713336
0.722817
0.732079
0.741116
0.749922
0.758486
0.766797
0.774843
0.782616
0.790103
0.797295
0.804182
0.810754
0.817004
0.822922
0.8285
0.833731
0.838608
0.843125
0.847276
0.851056
0.85446
0.857484
0.860126
0.862382
0.86425
0.86573
0.86682
0.86752
0.86783
0.867753
0.86729
0.866445
0.865219
0.863618
0.861645
0.859307
0.856609
0.853558
0.850161
0.846426
0.84236
0.837974
0.833276
0.828276
0.822985
0.817413
0.811572
0.805472
0.799127
0.792548
0.785747
0.778737
0.771532
0.764144
0.756585
0.748872
0.741015
0.73303
0.724931
0.716717
0.708437
0.700063
0.69166
0.683305
0.675817
0.671856
0.66844
0.665036
0.661616
0.65818
0.654727
0.65125
0.647729
0.644118
0.640316
0.636092
0.630845
0.623102
0.606352
0.00252278
0.0107349
0.0162296
0.0206033
0.0247243
0.028781
0.0329918
0.0375257
0.0424518
0.0477643
0.0534043
0.059321
0.0654664
0.0717951
0.0782658
0.0848404
0.0914841
0.0981649
0.104853
0.11152
0.11814
0.124688
0.131141
0.137478
0.143678
0.149727
0.155612
0.161326
0.166861
0.17221
0.177357
0.182288
0.187011
0.191651
0.196578
0.202326
0.209056
0.216126
0.223387
0.231454
0.240342
0.250081
0.260431
0.272461
0.28413
0.295863
0.307845
0.320237
0.33302
0.346166
0.359656
0.37348
0.38763
0.402102
0.416894
0.432002
0.447426
0.463162
0.47921
0.495566
0.512228
0.529193
0.546457
0.564015
0.581863
0.599996
0.618407
0.637089
0.656035
0.675236
0.694684
0.714369
0.734281
0.754408
0.77474
0.795264
0.815968
0.836839
0.857862
0.879024
0.900311
0.921708
0.9432
0.964772
0.986408
1.00809
1.02981
1.05154
1.07328
1.095
1.11668
1.13832
1.15988
1.18137
1.20275
1.22401
1.24513
1.26609
1.28686
1.30736
1.32742
1.34718
1.36665
1.38582
1.40467
1.42318
1.44132
1.45907
1.47642
1.49333
1.5098
1.52579
1.54129
1.55628
1.57074
1.58465
1.598
1.61076
1.62293
1.63448
1.6454
1.65569
1.66533
1.6743
1.6826
1.69022
1.69716
1.70339
1.70893
1.71376
1.71789
1.72131
1.72402
1.72602
1.72731
1.72791
1.7278
1.727
1.72552
1.72336
1.72054
1.71705
1.71293
1.70817
1.7028
1.69682
1.69026
1.68313
1.67545
1.66723
1.65851
1.64929
1.63961
1.62947
1.61891
1.60794
1.5966
1.5849
1.57288
1.56055
1.5479
1.53506
1.52191
1.50864
1.4953
1.48206
1.46938
1.45679
1.44416
1.43147
1.41876
1.40602
1.39328
1.38052
1.36774
1.35488
1.34182
1.3284
1.31339
1.29396
0.00506629
0.0178494
0.0253608
0.0311246
0.0362032
0.04112
0.0461345
0.0513907
0.0569556
0.0628402
0.069021
0.0754605
0.0821179
0.0889548
0.0959364
0.103032
0.110217
0.117466
0.124762
0.132086
0.139424
0.146767
0.154105
0.161436
0.168759
0.176082
0.183418
0.19079
0.198228
0.205768
0.213454
0.221342
0.22951
0.238071
0.247184
0.256984
0.267434
0.278417
0.289955
0.302141
0.315013
0.328659
0.342951
0.357786
0.372951
0.388439
0.40431
0.420617
0.437366
0.454548
0.472152
0.49017
0.508595
0.527422
0.546646
0.566264
0.586272
0.606667
0.627445
0.648603
0.670135
0.692038
0.714306
0.736933
0.759913
0.783239
0.806901
0.830892
0.855201
0.879818
0.904731
0.929929
0.955399
0.981126
1.0071
1.03329
1.0597
1.08631
1.11309
1.14004
1.16713
1.19434
1.22166
1.24907
1.27654
1.30406
1.33161
1.35916
1.38671
1.41422
1.44167
1.46906
1.49634
1.52352
1.55055
1.57744
1.60415
1.63067
1.65697
1.6829
1.70849
1.73372
1.75859
1.78308
1.80716
1.8308
1.85397
1.87664
1.89879
1.92039
1.94141
1.96182
1.98159
2.00071
2.01915
2.03689
2.05389
2.07015
2.08564
2.10034
2.11424
2.12731
2.13954
2.15093
2.16145
2.17109
2.17985
2.18772
2.19469
2.20075
2.2059
2.21015
2.21348
2.2159
2.21742
2.21804
2.21776
2.21659
2.21455
2.21163
2.20786
2.20325
2.19781
2.19157
2.18453
2.17672
2.16816
2.15887
2.14887
2.1382
2.12686
2.1149
2.10233
2.08919
2.0755
2.06128
2.04659
2.03144
2.01586
1.99991
1.98351
1.96691
1.95004
1.93296
1.91574
1.8985
1.88147
1.86448
1.84743
1.83034
1.81323
1.79611
1.77902
1.76198
1.745
1.72811
1.7113
1.69462
1.67753
1.65965
0.0081318
0.024656
0.0338717
0.0405914
0.0464587
0.0520548
0.0576657
0.0634485
0.0694837
0.0758
0.0823925
0.089238
0.0963057
0.103564
0.110986
0.118545
0.126223
0.134004
0.141876
0.149832
0.157868
0.165982
0.17418
0.182471
0.190867
0.199392
0.208072
0.216943
0.226047
0.235431
0.245148
0.25526
0.265834
0.276947
0.288676
0.301076
0.314139
0.327828
0.342132
0.357071
0.372657
0.388898
0.405739
0.42311
0.440945
0.459216
0.477929
0.4971
0.516737
0.536841
0.557411
0.578444
0.599936
0.621884
0.644286
0.667139
0.69044
0.714187
0.738375
0.763002
0.788064
0.813557
0.839474
0.86581
0.892558
0.919711
0.947259
0.975193
1.0035
1.03218
1.0612
1.09056
1.12025
1.15024
1.18052
1.21107
1.24188
1.27293
1.30419
1.33564
1.36727
1.39904
1.43095
1.46296
1.49506
1.52721
1.5594
1.5916
1.62379
1.65595
1.68805
1.72006
1.75196
1.78374
1.81536
1.8468
1.87805
1.90908
1.93981
1.97015
2.0001
2.02966
2.05879
2.08746
2.11564
2.14331
2.17041
2.19692
2.22281
2.24805
2.27259
2.29642
2.31949
2.34178
2.36326
2.38391
2.40369
2.42258
2.44056
2.45761
2.4737
2.48881
2.50293
2.51605
2.52814
2.53919
2.5492
2.55816
2.56605
2.57287
2.57862
2.5833
2.5869
2.58943
2.59089
2.5913
2.59064
2.58895
2.58622
2.58246
2.57771
2.57197
2.56526
2.5576
2.54901
2.53951
2.52914
2.51792
2.50587
2.49301
2.4794
2.46505
2.44999
2.43426
2.4179
2.40091
2.38338
2.3653
2.34672
2.32776
2.30837
2.28868
2.26867
2.24841
2.22797
2.20744
2.18696
2.16647
2.14593
2.12535
2.10477
2.08421
2.06372
2.04336
2.02317
2.00325
1.98368
1.96469
1.94608
1.92804
0.0112217
0.0309998
0.041527
0.0491512
0.0557221
0.0618947
0.0679892
0.0741837
0.0805764
0.087214
0.0941088
0.101252
0.108625
0.116205
0.123971
0.131903
0.139989
0.148218
0.156584
0.165088
0.173732
0.182524
0.191477
0.200608
0.20994
0.219502
0.229329
0.239461
0.249943
0.260823
0.272151
0.283981
0.296364
0.309351
0.322986
0.337296
0.352281
0.367923
0.384209
0.401131
0.418687
0.436867
0.455642
0.474977
0.494839
0.51521
0.536084
0.557463
0.579351
0.60175
0.624663
0.648088
0.672027
0.696479
0.721443
0.746918
0.772903
0.799398
0.826399
0.853905
0.881912
0.910417
0.939415
0.968901
0.998867
1.02931
1.06021
1.09157
1.12337
1.15561
1.18826
1.22131
1.25474
1.28855
1.3227
1.35719
1.39198
1.42706
1.4624
1.49797
1.53376
1.56974
1.60588
1.64215
1.67854
1.715
1.75151
1.78805
1.82458
1.86108
1.89752
1.93387
1.97011
2.00621
2.04213
2.07785
2.11335
2.1486
2.18345
2.21788
2.25188
2.28543
2.31848
2.35101
2.38298
2.41434
2.44506
2.47509
2.50441
2.53297
2.56073
2.58767
2.61373
2.6389
2.66314
2.68641
2.70869
2.72994
2.75015
2.76928
2.78731
2.80422
2.81999
2.83461
2.84805
2.86031
2.87137
2.88122
2.88985
2.89727
2.90345
2.90841
2.91215
2.91466
2.91596
2.91605
2.91493
2.91263
2.90916
2.90453
2.89875
2.89186
2.88387
2.8748
2.86468
2.85354
2.84141
2.82831
2.81428
2.79934
2.78355
2.76692
2.74949
2.73132
2.71244
2.69281
2.67263
2.65188
2.63059
2.60883
2.58663
2.56404
2.54111
2.5179
2.49446
2.47088
2.44725
2.42357
2.39984
2.37608
2.35234
2.32865
2.30509
2.28173
2.25866
2.23603
2.214
2.19287
2.1726
2.15339
0.0141317
0.0364828
0.0482642
0.05673
0.0639397
0.0706205
0.0771269
0.0836583
0.0903313
0.0972095
0.104322
0.111675
0.119261
0.127068
0.135083
0.143292
0.151688
0.160265
0.169024
0.17797
0.187111
0.196461
0.206038
0.215865
0.225971
0.236388
0.247154
0.25831
0.269899
0.281966
0.294554
0.307706
0.321462
0.335855
0.350912
0.36665
0.38307
0.400163
0.417918
0.436324
0.455373
0.475052
0.495347
0.516238
0.537708
0.559746
0.582346
0.605506
0.629229
0.653518
0.678375
0.703804
0.729807
0.756385
0.783541
0.811277
0.839592
0.868488
0.897964
0.92802
0.958653
0.989861
1.02164
1.05399
1.0869
1.12036
1.15436
1.1889
1.22396
1.25954
1.2956
1.33215
1.36915
1.4066
1.44446
1.48272
1.52135
1.56033
1.59962
1.63921
1.67906
1.71914
1.75942
1.79987
1.84046
1.88116
1.92192
1.96273
2.00354
2.04433
2.08507
2.12571
2.16622
2.20658
2.24675
2.28669
2.32638
2.36575
2.40466
2.44311
2.48107
2.51852
2.55541
2.59169
2.62734
2.6623
2.69653
2.72999
2.76262
2.7944
2.82527
2.8552
2.88415
2.91208
2.93896
2.96474
2.98939
3.01289
3.0352
3.0563
3.07616
3.09475
3.11205
3.12805
3.14273
3.15608
3.16808
3.17871
3.18799
3.19589
3.20241
3.20756
3.21134
3.21375
3.2148
3.2145
3.21286
3.20989
3.20561
3.20004
3.1932
3.18511
3.17581
3.16531
3.15364
3.14083
3.12693
3.11196
3.09595
3.07893
3.06099
3.04212
3.02233
3.00176
2.98043
2.95835
2.93561
2.91224
2.88829
2.86381
2.83885
2.81347
2.7877
2.76161
2.73526
2.70873
2.68208
2.65536
2.62858
2.60178
2.57501
2.54834
2.52185
2.49563
2.46982
2.44459
2.42016
2.39684
2.37464
2.35365
0.0166403
0.0412041
0.0540717
0.0632781
0.0710507
0.0781746
0.0850324
0.0918421
0.0987356
0.105792
0.113055
0.120545
0.128268
0.13622
0.144397
0.152793
0.161406
0.170235
0.179286
0.188567
0.198092
0.207879
0.21795
0.228331
0.239053
0.25015
0.261659
0.273619
0.28607
0.299052
0.312601
0.326751
0.341534
0.356974
0.373089
0.389891
0.407382
0.42556
0.444417
0.463947
0.48414
0.50499
0.526488
0.548623
0.571388
0.594777
0.618786
0.643416
0.66867
0.694552
0.721066
0.748218
0.776011
0.804452
0.833544
0.863291
0.893696
0.924763
0.956492
0.988885
1.02194
1.05566
1.09004
1.12508
1.16077
1.1971
1.23407
1.27167
1.30987
1.34868
1.38807
1.42802
1.46852
1.50954
1.55106
1.59305
1.63549
1.67834
1.72157
1.76516
1.80906
1.85324
1.89767
1.94231
1.98712
2.03206
2.0771
2.1222
2.16732
2.21242
2.25747
2.30242
2.34723
2.39188
2.43631
2.48049
2.52439
2.56784
2.61081
2.65327
2.69518
2.7365
2.7772
2.81722
2.85652
2.89504
2.93274
2.96957
3.00547
3.04041
3.07434
3.1072
3.13897
3.16959
3.19903
3.22724
3.2542
3.27986
3.3042
3.32718
3.34877
3.36895
3.3877
3.405
3.42082
3.43517
3.44801
3.45935
3.46918
3.47748
3.48426
3.48951
3.49325
3.49548
3.49621
3.49544
3.4932
3.4895
3.48436
3.4778
3.46984
3.46051
3.44985
3.43788
3.42463
3.41012
3.39442
3.37757
3.35958
3.34046
3.32035
3.29927
3.27723
3.25431
3.23056
3.20602
3.18075
3.1548
3.12822
3.10106
3.07338
3.04524
3.01668
2.98776
2.95855
2.92912
2.89954
2.86985
2.8401
2.81034
2.78063
2.75106
2.72171
2.69271
2.66421
2.63642
2.60957
2.58396
2.55958
2.53645
0.0187847
0.045179
0.0589484
0.068777
0.0770245
0.0845207
0.0916693
0.0987024
0.105764
0.112946
0.120305
0.127874
0.135668
0.143697
0.151963
0.160468
0.169214
0.178208
0.187458
0.196976
0.206781
0.216891
0.227332
0.238132
0.24932
0.260932
0.273001
0.285565
0.298659
0.312316
0.326569
0.341447
0.356975
0.373171
0.390052
0.407629
0.425905
0.444883
0.46456
0.484933
0.506
0.527756
0.550199
0.573326
0.597135
0.621624
0.646795
0.672651
0.699198
0.726441
0.754388
0.783045
0.812422
0.842524
0.873359
0.904934
0.937255
0.970327
1.00415
1.03874
1.07408
1.11019
1.14705
1.18468
1.22305
1.26217
1.30203
1.34261
1.38391
1.4259
1.46858
1.51192
1.55589
1.60048
1.64565
1.69138
1.73763
1.78437
1.83157
1.87918
1.92716
1.97548
2.0241
2.07296
2.12203
2.17127
2.22062
2.27005
2.31952
2.36897
2.41836
2.46765
2.51679
2.56575
2.61447
2.6629
2.71099
2.75855
2.80557
2.85203
2.89787
2.94306
2.98755
3.03127
3.07419
3.11623
3.15735
3.1975
3.23662
3.27465
3.31156
3.34729
3.3818
3.41503
3.44695
3.47751
3.50668
3.53442
3.56068
3.58545
3.60868
3.63036
3.65045
3.66894
3.68582
3.70107
3.71466
3.72661
3.73689
3.7455
3.75244
3.75772
3.76134
3.76331
3.76363
3.76233
3.75943
3.75493
3.74886
3.74125
3.73212
3.7215
3.70944
3.69597
3.6811
3.66485
3.64734
3.6286
3.60863
3.5875
3.56527
3.54198
3.51769
3.49244
3.4663
3.43931
3.41154
3.38304
3.35386
3.32406
3.2937
3.26284
3.23153
3.19983
3.16781
3.13553
3.10307
3.07049
3.03784
3.00519
2.97262
2.9402
2.90806
2.87633
2.84518
2.81483
2.78553
2.75753
2.73077
2.70528
0.0205497
0.048419
0.0629079
0.0732356
0.0818638
0.0896563
0.0970324
0.104234
0.111415
0.118675
0.126082
0.133679
0.141493
0.149541
0.157834
0.166381
0.175191
0.184272
0.193639
0.203306
0.213293
0.223622
0.234318
0.245409
0.256925
0.268898
0.28136
0.294345
0.307885
0.322009
0.336746
0.352121
0.368157
0.384872
0.40228
0.420394
0.439221
0.458766
0.479034
0.500026
0.521744
0.54419
0.567367
0.591276
0.615923
0.64131
0.667443
0.694331
0.72198
0.750401
0.779604
0.809599
0.840397
0.872008
0.904443
0.937711
0.971822
1.00678
1.0426
1.07928
1.11682
1.15524
1.19452
1.23466
1.27567
1.31754
1.36025
1.4038
1.44817
1.49335
1.53931
1.58603
1.6335
1.68167
1.73052
1.78001
1.83011
1.88077
1.93197
1.98364
2.03575
2.08825
2.14109
2.19421
2.24758
2.30114
2.35484
2.40862
2.46245
2.51626
2.57001
2.62366
2.67713
2.7304
2.78341
2.8361
2.8883
2.93993
2.99097
3.04137
3.0911
3.1401
3.1883
3.23566
3.28211
3.32759
3.37204
3.41541
3.45764
3.49867
3.53845
3.57692
3.61404
3.64977
3.68404
3.71683
3.74808
3.77777
3.80584
3.83226
3.857
3.88004
3.90135
3.92092
3.93872
3.95474
3.96898
3.98141
3.99204
4.00086
4.00786
4.01306
4.01646
4.01808
4.01792
4.01601
4.01236
4.007
3.99995
3.99124
3.98088
3.96893
3.95544
3.94043
3.92395
3.90602
3.88672
3.86609
3.84417
3.82102
3.79669
3.77124
3.74471
3.71717
3.68868
3.65929
3.62906
3.59805
3.56633
3.53394
3.50096
3.46744
3.43344
3.39902
3.36426
3.32921
3.29396
3.25857
3.22311
3.18765
3.15228
3.1171
3.08223
3.04783
3.01407
2.98117
2.94937
2.91891
2.88967
2.8617
0.0219344
0.0509529
0.0659866
0.0766915
0.0856047
0.0936154
0.101153
0.108467
0.115717
0.123011
0.130423
0.138005
0.145794
0.153814
0.162083
0.170616
0.179427
0.18853
0.19794
0.207676
0.217758
0.228209
0.239053
0.250318
0.262032
0.274226
0.286929
0.300173
0.313985
0.328394
0.343426
0.359105
0.375452
0.392487
0.410224
0.42868
0.447864
0.467787
0.488458
0.509884
0.532073
0.555033
0.57877
0.603295
0.628614
0.654739
0.681679
0.709447
0.738054
0.767515
0.797842
0.829051
0.861156
0.89417
0.928107
0.962981
0.998802
1.03558
1.07333
1.11205
1.15175
1.19244
1.23411
1.27677
1.3204
1.36501
1.41059
1.45711
1.50457
1.55295
1.60223
1.65237
1.70335
1.75514
1.8077
1.86099
1.91497
1.9696
2.02482
2.08059
2.13685
2.19355
2.25063
2.30803
2.3657
2.42357
2.48161
2.53973
2.5979
2.65605
2.71412
2.77207
2.82983
2.88736
2.94458
3.0014
3.05762
3.11323
3.16818
3.22242
3.27591
3.32858
3.38037
3.43122
3.48105
3.52981
3.57743
3.62385
3.66901
3.71285
3.75532
3.79636
3.83592
3.87394
3.91039
3.94521
3.97837
4.00981
4.03951
4.06741
4.09348
4.11771
4.14007
4.16054
4.17911
4.19576
4.21048
4.22327
4.2341
4.24299
4.24993
4.25494
4.25802
4.25918
4.25845
4.25584
4.25137
4.24508
4.237
4.22714
4.21555
4.20227
4.18735
4.17082
4.15273
4.13311
4.11204
4.08957
4.06573
4.04059
4.0142
3.98663
3.95793
3.92816
3.89738
3.86566
3.83305
3.79962
3.76543
3.73055
3.69503
3.65894
3.62235
3.58531
3.5479
3.51019
3.47225
3.43416
3.39599
3.35783
3.31977
3.28192
3.24441
3.20741
3.17109
3.13568
3.1014
3.06844
3.03667
3.00617
0.0229528
0.0528276
0.0682433
0.0792085
0.0883132
0.096464
0.104098
0.111467
0.118737
0.12602
0.133397
0.140926
0.14865
0.1566
0.164801
0.173272
0.182032
0.191098
0.200487
0.210219
0.220315
0.230799
0.241693
0.253026
0.264822
0.277112
0.289922
0.303281
0.317217
0.331757
0.346925
0.362747
0.379243
0.396435
0.414341
0.43298
0.452366
0.472516
0.493442
0.515159
0.537679
0.561017
0.585186
0.6102
0.636073
0.662821
0.690461
0.719007
0.748478
0.778892
0.810266
0.842619
0.87597
0.910337
0.945735
0.982182
1.01969
1.05828
1.09795
1.13872
1.1806
1.22358
1.26767
1.31286
1.35916
1.40656
1.45504
1.50459
1.55519
1.60682
1.65946
1.71306
1.76761
1.82306
1.87937
1.93649
1.99438
2.05299
2.11226
2.17212
2.23253
2.29342
2.35471
2.41636
2.47828
2.54042
2.60271
2.6651
2.72751
2.78989
2.85218
2.91432
2.97624
3.03788
3.09918
3.15988
3.21994
3.27932
3.33797
3.39584
3.45286
3.50898
3.56413
3.61822
3.6712
3.72298
3.77351
3.82272
3.87055
3.91693
3.96182
4.00515
4.04688
4.08694
4.12529
4.16188
4.19668
4.22964
4.26072
4.28985
4.31703
4.34222
4.3654
4.38657
4.40569
4.42277
4.43779
4.45076
4.46165
4.47045
4.47718
4.48185
4.48449
4.4851
4.4837
4.48032
4.47498
4.46772
4.45856
4.44754
4.4347
4.42008
4.40373
4.38569
4.36601
4.34475
4.32195
4.29767
4.27197
4.24491
4.21655
4.18694
4.15615
4.12425
4.09129
4.05734
4.02246
3.98672
3.95019
3.91293
3.87501
3.83649
3.79743
3.75791
3.718
3.67776
3.63727
3.59662
3.55589
3.51516
3.47454
3.43415
3.39412
3.35463
3.31584
3.27799
3.24126
3.20583
3.17155
3.13853
0.0236327
0.0541052
0.0697544
0.0808717
0.0900791
0.0982943
0.105958
0.113327
0.120568
0.127797
0.1351
0.142539
0.150163
0.158007
0.166101
0.174469
0.183131
0.192107
0.201417
0.211081
0.22112
0.231557
0.242416
0.25372
0.265498
0.277774
0.290577
0.303933
0.31787
0.332414
0.347591
0.363427
0.379946
0.397171
0.415125
0.433829
0.453305
0.473572
0.49465
0.51656
0.539321
0.562953
0.587475
0.612908
0.639273
0.666591
0.694883
0.724171
0.754478
0.785827
0.81824
0.85174
0.88635
0.92209
0.958982
0.997046
1.0363
1.07675
1.11842
1.16132
1.20545
1.25081
1.29741
1.34524
1.3943
1.44457
1.49605
1.54871
1.60254
1.6575
1.71357
1.7707
1.82887
1.88802
1.94811
2.00908
2.07089
2.13346
2.19674
2.26067
2.32517
2.39017
2.4556
2.52137
2.58742
2.65368
2.72008
2.78655
2.85302
2.91943
2.98572
3.05181
3.11766
3.18319
3.24813
3.31243
3.37602
3.43886
3.50089
3.56204
3.62226
3.68146
3.7396
3.7966
3.85234
3.90677
3.95983
4.01145
4.06157
4.11012
4.15706
4.20231
4.24583
4.28756
4.32746
4.36548
4.40158
4.43574
4.46788
4.49794
4.52591
4.55177
4.5755
4.59709
4.61652
4.63379
4.64889
4.66181
4.67254
4.68109
4.68747
4.69169
4.69376
4.69371
4.69156
4.68734
4.68107
4.67278
4.66252
4.65032
4.63622
4.62027
4.60251
4.583
4.56179
4.53892
4.51447
4.48848
4.46101
4.43213
4.40189
4.37037
4.33762
4.30371
4.26871
4.23268
4.1957
4.15782
4.11911
4.07964
4.03949
3.99871
3.95737
3.91555
3.87331
3.83073
3.78788
3.74486
3.70174
3.65863
3.61563
3.57286
3.53047
3.48861
3.44749
3.40729
3.36821
3.33039
3.29367
3.25821
0.0240135
0.054859
0.0706098
0.0817809
0.0910088
0.0992167
0.106848
0.114162
0.121325
0.128459
0.13565
0.142965
0.150456
0.158162
0.166115
0.174342
0.182866
0.191708
0.200888
0.210427
0.220347
0.230669
0.241417
0.252616
0.26429
0.276466
0.289171
0.302431
0.316276
0.330732
0.345827
0.361589
0.378046
0.395225
0.413152
0.431855
0.451359
0.471691
0.492878
0.514946
0.537922
0.561832
0.586703
0.612563
0.639439
0.667357
0.696344
0.726429
0.757638
0.790001
0.823544
0.858294
0.894277
0.931518
0.970041
1.00987
1.05101
1.0935
1.13734
1.18254
1.2291
1.27702
1.3263
1.37694
1.42892
1.48223
1.53684
1.59275
1.64992
1.70831
1.7679
1.82863
1.89045
1.95333
2.0172
2.082
2.14766
2.21413
2.28133
2.34919
2.41764
2.48661
2.55597
2.62566
2.69559
2.7657
2.83591
2.90616
2.97636
3.04646
3.11639
3.18608
3.25547
3.3243
3.39246
3.45989
3.52655
3.59237
3.65728
3.72122
3.78411
3.8459
3.90653
3.96593
4.02393
4.08049
4.13555
4.18907
4.24097
4.29119
4.33967
4.38636
4.4312
4.47414
4.51513
4.55412
4.59109
4.62598
4.65875
4.68935
4.71776
4.74395
4.76792
4.78964
4.80911
4.8263
4.84123
4.85389
4.86427
4.87238
4.87824
4.88185
4.88324
4.88242
4.87943
4.87428
4.86702
4.85768
4.8463
4.83291
4.81757
4.80031
4.7812
4.76028
4.7376
4.71322
4.68721
4.65962
4.63051
4.59995
4.568
4.53472
4.50018
4.46446
4.42761
4.3897
4.3508
4.31099
4.27032
4.22887
4.18671
4.1439
4.10051
4.05662
4.01229
3.9676
3.92262
3.87746
3.83219
3.78692
3.74175
3.69681
3.65225
3.60823
3.56494
3.52256
3.48126
3.44118
3.40216
3.36438
0.0241441
0.0551709
0.0709076
0.0820449
0.0912185
0.0993529
0.106893
0.114098
0.121139
0.128137
0.135181
0.142341
0.149669
0.157208
0.16499
0.173045
0.181396
0.190064
0.199073
0.208442
0.218192
0.228347
0.238929
0.249963
0.261475
0.273491
0.286039
0.299147
0.312846
0.327165
0.342135
0.357788
0.374156
0.39127
0.409163
0.427868
0.447417
0.467843
0.489181
0.511464
0.534727
0.559004
0.584332
0.610744
0.638273
0.666952
0.696813
0.727887
0.760209
0.793811
0.828724
0.864979
0.902603
0.941624
0.982065
1.02395
1.06729
1.11211
1.15843
1.20624
1.25554
1.30632
1.35855
1.41225
1.46739
1.52394
1.5819
1.64121
1.70186
1.76379
1.82696
1.89132
1.95681
2.02337
2.09094
2.15945
2.22883
2.299
2.36989
2.44142
2.51353
2.58618
2.65912
2.73232
2.80571
2.87922
2.95277
3.02629
3.09972
3.17297
3.24599
3.31872
3.39085
3.46232
3.53305
3.60297
3.67202
3.74014
3.80724
3.87327
3.93814
4.0018
4.06417
4.12518
4.18473
4.24274
4.29916
4.35392
4.40696
4.45823
4.50765
4.55518
4.60077
4.64435
4.68589
4.72535
4.76267
4.79783
4.83077
4.86148
4.88991
4.91605
4.93988
4.96139
4.98056
4.99739
5.01187
5.02402
5.03382
5.04129
5.04645
5.04929
5.04986
5.04817
5.04424
5.03812
5.02982
5.0194
5.0069
4.99234
4.97579
4.95729
4.93689
4.91465
4.89063
4.86487
4.83745
4.80841
4.77784
4.74578
4.71231
4.67749
4.64139
4.60408
4.56562
4.52608
4.48554
4.44406
4.4017
4.35854
4.31465
4.2701
4.22495
4.17927
4.13313
4.08662
4.03981
3.99279
3.94565
3.89849
3.85143
3.80458
3.7581
3.71215
3.6669
3.62254
3.57922
3.53708
3.49594
3.45602
0.0240818
0.0551273
0.0707498
0.0817761
0.0908281
0.0988283
0.106222
0.113271
0.120147
0.126973
0.133838
0.140815
0.147955
0.155301
0.162889
0.170746
0.178897
0.187366
0.196173
0.205341
0.214892
0.224848
0.235235
0.246078
0.257403
0.269241
0.28162
0.294572
0.308132
0.322331
0.337207
0.352795
0.369134
0.386262
0.40422
0.423045
0.442779
0.463461
0.485134
0.50784
0.531624
0.556531
0.582604
0.609887
0.638424
0.66824
0.699371
0.731855
0.765729
0.801029
0.837789
0.876037
0.915802
0.957107
0.999975
1.04442
1.09046
1.13811
1.18738
1.2383
1.29081
1.34485
1.40042
1.45751
1.5161
1.57615
1.63764
1.70051
1.76473
1.83024
1.89698
1.9649
2.03393
2.10399
2.17503
2.24696
2.3197
2.39317
2.4673
2.54199
2.61717
2.69275
2.76861
2.84466
2.92082
2.99701
3.07316
3.14921
3.22507
3.30072
3.37598
3.45064
3.52462
3.59784
3.67024
3.74175
3.81228
3.88178
3.95017
4.01738
4.08333
4.14797
4.21122
4.273
4.33324
4.39187
4.44882
4.50402
4.55743
4.60897
4.6586
4.70626
4.7519
4.79547
4.83693
4.87623
4.91333
4.9482
4.98081
5.01111
5.0391
5.06474
5.08802
5.10892
5.12745
5.14359
5.15734
5.16871
5.1777
5.18432
5.18859
5.19052
5.19014
5.18747
5.18254
5.17539
5.16604
5.15455
5.14094
5.12528
5.10759
5.08795
5.06638
5.04297
5.01775
4.99079
4.96214
4.93188
4.90007
4.86676
4.83203
4.79594
4.75855
4.71995
4.68018
4.63933
4.59746
4.55463
4.51092
4.46639
4.42112
4.37516
4.32859
4.28148
4.23389
4.18591
4.1376
4.08907
4.04039
3.99168
3.94303
3.89459
3.84649
3.79889
3.75196
3.70588
3.6608
3.61683
3.57381
3.532
0.0238805
0.0548055
0.0702222
0.0810644
0.089929
0.0977347
0.104928
0.111772
0.11844
0.125055
0.131711
0.138474
0.145401
0.152532
0.159903
0.167543
0.175476
0.183728
0.19232
0.201278
0.210624
0.220385
0.230587
0.241259
0.252433
0.264141
0.276418
0.289302
0.30283
0.317045
0.331988
0.347703
0.364238
0.381642
0.399968
0.419262
0.439566
0.46093
0.483409
0.507055
0.531923
0.558066
0.585542
0.614411
0.644748
0.676518
0.709756
0.744513
0.780828
0.818735
0.858263
0.899434
0.942267
0.986777
1.03297
1.08086
1.13043
1.18169
1.23463
1.28924
1.34547
1.40329
1.46265
1.52353
1.58588
1.64967
1.71484
1.78134
1.8491
1.91808
1.98821
2.05941
2.13161
2.20475
2.27874
2.3535
2.42895
2.50501
2.5816
2.65862
2.736
2.81365
2.89146
2.96935
3.04725
3.12508
3.20277
3.28026
3.35747
3.43417
3.51025
3.58563
3.66023
3.734
3.80685
3.87871
3.94951
4.01919
4.08767
4.15489
4.22077
4.28525
4.34826
4.40974
4.46961
4.5278
4.58427
4.63893
4.69174
4.74265
4.79159
4.83851
4.88338
4.92614
4.96675
5.00517
5.04136
5.0753
5.10694
5.13627
5.16326
5.18788
5.21013
5.23
5.24747
5.26255
5.27523
5.28552
5.29343
5.29897
5.30215
5.303
5.30153
5.29778
5.29178
5.28355
5.27314
5.26058
5.24592
5.22921
5.21049
5.18981
5.16722
5.14279
5.11656
5.0886
5.05896
5.02772
4.99492
4.96064
4.92494
4.88788
4.84953
4.80996
4.76923
4.72741
4.68457
4.64076
4.59607
4.55055
4.50427
4.45729
4.40969
4.36152
4.31287
4.26379
4.21438
4.1647
4.11486
4.06495
4.01509
3.96539
3.916
3.86707
3.81877
3.77126
3.72469
3.67917
3.63455
3.5911
0.0236554
0.0543471
0.0694878
0.0800874
0.0887128
0.0962785
0.103233
0.109842
0.116279
0.12267
0.129105
0.135652
0.142366
0.149289
0.156455
0.163895
0.171638
0.179709
0.188135
0.196945
0.206167
0.215831
0.225973
0.236627
0.247832
0.25963
0.272065
0.285183
0.299038
0.313682
0.329161
0.345532
0.362857
0.381207
0.400661
0.421287
0.443074
0.466104
0.490445
0.516161
0.543313
0.571957
0.602147
0.633934
0.66736
0.70244
0.739197
0.777656
0.817836
0.859753
0.903413
0.948819
0.995966
1.04485
1.09544
1.14774
1.20171
1.25733
1.31456
1.37336
1.43369
1.4955
1.55874