/*--------------------------------*- C++ -*----------------------------------*\
  =========                 |
  \\      /  F ield         | OpenFOAM: The Open Source CFD Toolbox
   \\    /   O peration     | Website:  https://openfoam.org
    \\  /    A nd           | Version:  12
     \\/     M anipulation  |
\*---------------------------------------------------------------------------*/
FoamFile
{
    format      ascii;
    class       volScalarField;
    location    "0.29";
    object      nut;
}
// * * * * * * * * * * * * * * * * * * * * * * * * * * * * * * * * * * * * * //

dimensions      [0 2 -1 0 0 0 0];

internalField   nonuniform List<scalar> 
12225
(
4.04768e-05
3.83178e-05
3.62504e-05
3.44199e-05
3.29519e-05
3.18976e-05
3.12561e-05
3.09935e-05
3.10578e-05
3.13897e-05
3.19305e-05
3.26265e-05
3.34313e-05
3.43064e-05
3.52225e-05
3.61551e-05
3.71092e-05
3.84905e-05
0.000281048
0.000209266
0.000176267
0.00015744
0.000146272
0.000139688
0.000135794
0.000133431
0.000131916
0.000130859
0.000130045
0.000129358
0.00012874
0.000128162
0.000127623
0.00012708
0.000126683
0.000125737
0.000556048
0.000419909
0.000349817
0.000304738
0.000272452
0.000247988
0.000228773
0.00021331
0.000200683
0.000190283
0.00018167
0.000174505
0.000168517
0.000163487
0.00015924
0.000155591
0.000152453
0.000149397
0.000740308
0.000625822
0.000544118
0.000485002
0.000439776
0.000403658
0.000373851
0.000348618
0.00032687
0.000307912
0.000291268
0.000276593
0.000263615
0.000252107
0.000241871
0.000232693
0.000224416
0.000216762
0.000817069
0.000759142
0.000700547
0.000648581
0.000603902
0.000565591
0.000532484
0.000503527
0.000477897
0.000454983
0.000434341
0.000415636
0.000398611
0.000383053
0.000368785
0.000355622
0.000343422
0.000332089
0.000842101
0.000819688
0.000789926
0.000757608
0.000725558
0.00069517
0.000666975
0.000641029
0.000617192
0.00059526
0.000575032
0.00055632
0.000538959
0.000522805
0.000507727
0.000493595
0.000480309
0.000467917
0.000849261
0.000841808
0.000829742
0.000814189
0.000796483
0.000777765
0.000758856
0.000740265
0.000722282
0.000705052
0.000688635
0.00067304
0.000658247
0.000644216
0.000630902
0.000618251
0.000606223
0.000594943
0.00085112
0.000848748
0.000844481
0.000838237
0.000830247
0.000820898
0.000810603
0.000799728
0.000788563
0.000777325
0.000766169
0.000755203
0.000744497
0.000734092
0.000724011
0.000714266
0.000704868
0.000695971
0.00085156
0.000850665
0.00084917
0.000846887
0.000843742
0.00083976
0.000835036
0.000829697
0.00082388
0.000817712
0.000811308
0.000804762
0.00079815
0.000791534
0.00078496
0.000778464
0.000772085
0.000765957
0.000851652
0.000851133
0.000850468
0.000849564
0.000848347
0.000846773
0.000844827
0.000842521
0.000839886
0.000836962
0.000833794
0.00083043
0.000826913
0.000823282
0.000819572
0.000815817
0.000812049
0.000808365
0.000851668
0.00085123
0.000850778
0.000850278
0.000849698
0.000849007
0.000848183
0.000847212
0.000846089
0.000844816
0.000843401
0.000841857
0.000840197
0.000838438
0.000836597
0.000834688
0.000832733
0.000830788
0.000851669
0.000851245
0.000850835
0.000850429
0.000850014
0.000849575
0.000849101
0.00084858
0.000848003
0.000847366
0.000846665
0.000845903
0.000845079
0.0008442
0.00084327
0.000842295
0.000841285
0.000840274
0.000851668
0.000851244
0.000850843
0.000850459
0.000850088
0.000849726
0.000849365
0.000849001
0.000848629
0.000848243
0.000847841
0.000847421
0.00084698
0.000846519
0.000846038
0.000845538
0.000845024
0.000844514
0.000851667
0.000851242
0.000850839
0.000850458
0.000850096
0.000849751
0.000849421
0.000849102
0.000848793
0.000848491
0.000848195
0.000847902
0.000847611
0.000847321
0.000847032
0.000846742
0.000846455
0.000846181
0.000851666
0.000851239
0.000850835
0.000850452
0.00085009
0.000849746
0.000849419
0.000849108
0.000848812
0.000848528
0.000848257
0.000847996
0.000847746
0.000847505
0.000847272
0.000847048
0.000846833
0.000846638
0.000851665
0.000851236
0.000850831
0.000850447
0.000850083
0.000849737
0.000849409
0.000849098
0.000848801
0.000848519
0.000848251
0.000847994
0.00084775
0.000847517
0.000847294
0.000847082
0.000846881
0.000846703
0.000851664
0.000851235
0.000850828
0.000850442
0.000850077
0.00084973
0.000849401
0.000849088
0.00084879
0.000848507
0.000848237
0.00084798
0.000847735
0.000847502
0.000847279
0.000847066
0.000846866
0.000846688
0.000851663
0.000851234
0.000850826
0.00085044
0.000850073
0.000849725
0.000849395
0.000849081
0.000848782
0.000848498
0.000848227
0.000847969
0.000847722
0.000847488
0.000847264
0.00084705
0.000846848
0.000846669
0.000851663
0.000851233
0.000850825
0.000850439
0.000850072
0.000849724
0.000849393
0.000849078
0.000848779
0.000848494
0.000848222
0.000847963
0.000847716
0.000847481
0.000847255
0.000847041
0.000846838
0.000846658
0.000851664
0.000851234
0.000850826
0.00085044
0.000850074
0.000849726
0.000849396
0.000849081
0.000848782
0.000848497
0.000848225
0.000847965
0.000847717
0.00084748
0.000847253
0.000847036
0.000846831
0.000846648
0.000851664
0.000851235
0.000850829
0.000850443
0.000850078
0.00084973
0.000849399
0.000849082
0.000848779
0.000848489
0.000848209
0.00084794
0.000847679
0.000847427
0.000847182
0.000846944
0.000846715
0.000846505
0.000851665
0.000851237
0.00085083
0.000850442
0.000850068
0.000849706
0.000849351
0.000848999
0.000848647
0.000848293
0.000847934
0.000847569
0.000847198
0.000846818
0.000846432
0.000846038
0.00084564
0.00084525
0.000851664
0.000851228
0.000850794
0.000850348
0.00084987
0.000849345
0.000848761
0.00084811
0.000847388
0.000846592
0.000845727
0.000844795
0.000843804
0.000842759
0.000841669
0.00084054
0.000839384
0.000838222
0.000851634
0.000851073
0.000850343
0.000849363
0.000848079
0.000846467
0.00084453
0.000842291
0.000839784
0.00083705
0.000834132
0.000831071
0.000827905
0.000824667
0.000821387
0.00081809
0.000814801
0.000811565
0.000851287
0.000849596
0.000846721
0.000842577
0.000837262
0.000830978
0.000823969
0.000816468
0.00080867
0.000800732
0.000792777
0.000784894
0.000777148
0.000769584
0.000762232
0.000755113
0.000748239
0.000741666
0.000848318
0.000839425
0.00082616
0.000810016
0.000792355
0.000774221
0.000756314
0.000739034
0.000722581
0.000707034
0.000692406
0.000678669
0.000665776
0.000653672
0.000642303
0.000631612
0.000621553
0.000612135
0.000828548
0.000788842
0.000746032
0.000705698
0.000669456
0.000637491
0.000609431
0.000584721
0.000562822
0.000543279
0.000525723
0.000509855
0.000495433
0.000482263
0.000470187
0.000459073
0.000448816
0.000439367
0.000730725
0.000627344
0.000554503
0.000501053
0.00046031
0.000428336
0.00040262
0.000381452
0.00036369
0.000348558
0.00033551
0.000324149
0.000314177
0.000305363
0.000297529
0.000290529
0.000284245
0.000278594
0.000439249
0.00033847
0.000287933
0.000256866
0.000236359
0.000222507
0.00021299
0.000206309
0.000201503
0.000197956
0.000195269
0.000193175
0.000191498
0.000190115
0.000188946
0.000187932
0.000187036
0.000186209
7.16431e-05
6.90587e-05
6.65522e-05
6.41646e-05
6.19883e-05
6.00784e-05
5.84565e-05
5.71213e-05
5.60572e-05
5.52404e-05
5.46438e-05
5.42396e-05
5.40012e-05
5.39035e-05
5.3924e-05
5.40426e-05
5.42419e-05
5.45056e-05
2.044e-07
5.32687e-06
8.84988e-06
1.19275e-05
1.50137e-05
1.87083e-05
2.3001e-05
2.80253e-05
3.39275e-05
4.07329e-05
4.79186e-05
5.55063e-05
6.34419e-05
7.16525e-05
8.00645e-05
8.86082e-05
9.72184e-05
0.000105835
0.0001144
0.000122859
0.000131159
0.000139248
0.000147071
0.000154577
0.000161712
0.000168422
0.000174652
0.000180347
0.000185442
0.000189854
0.00019347
0.000196151
0.00019779
0.000198423
0.000198289
0.000197649
0.000196816
4.45565e-05
4.47072e-05
4.49526e-05
4.53339e-05
4.59876e-05
0.000205151
4.69847e-05
4.80244e-05
4.90756e-05
5.01569e-05
5.12485e-05
5.2345e-05
5.34438e-05
5.45429e-05
5.56411e-05
5.67377e-05
5.78321e-05
5.89239e-05
6.00127e-05
6.10983e-05
6.21803e-05
6.32586e-05
6.43328e-05
6.54026e-05
6.64678e-05
6.75281e-05
6.8583e-05
6.96323e-05
7.06755e-05
7.17123e-05
7.27423e-05
7.3765e-05
7.478e-05
7.57869e-05
7.67853e-05
7.77747e-05
7.87545e-05
7.97245e-05
8.0684e-05
8.16328e-05
8.25702e-05
8.34959e-05
8.44095e-05
8.53105e-05
8.61984e-05
8.7073e-05
8.79337e-05
8.87802e-05
8.96122e-05
9.04291e-05
9.12306e-05
9.20165e-05
9.27862e-05
9.35394e-05
9.42757e-05
9.49948e-05
9.56963e-05
9.63799e-05
9.70455e-05
9.76929e-05
9.83228e-05
9.89365e-05
9.95366e-05
0.000100122
0.000100685
0.000101226
0.000101746
0.000102244
0.00010272
0.000103174
0.000103605
0.000104013
0.000104398
0.000104759
0.000105096
0.000105409
0.000105697
0.000105961
0.0001062
0.000106414
0.000106602
0.000106765
0.000106903
0.000107015
0.000107101
0.000107162
0.000107197
0.000107207
0.000107191
0.000107149
0.000107082
0.00010699
0.000106873
0.00010673
0.000106563
0.000106372
0.000106156
0.000105916
0.000105652
0.000105365
0.000105055
0.000104723
0.000104368
0.000103992
0.000103594
0.000103176
0.000102737
0.000102278
0.000101801
0.000101304
0.00010079
0.000100258
9.97092e-05
9.91443e-05
9.8564e-05
9.79688e-05
9.73595e-05
9.67367e-05
9.61011e-05
9.54537e-05
9.4795e-05
9.41258e-05
9.34469e-05
9.27583e-05
9.20629e-05
9.13589e-05
9.06504e-05
8.99424e-05
8.92888e-05
8.88666e-05
8.84796e-05
8.80924e-05
8.77031e-05
8.73117e-05
8.69182e-05
8.65221e-05
8.6122e-05
8.57149e-05
8.52941e-05
8.48441e-05
8.43246e-05
8.36365e-05
8.23365e-05
7.91597e-07
2.28339e-05
5.06023e-05
7.10733e-05
8.60146e-05
9.67575e-05
0.00010553
0.000113748
0.000122119
0.000130941
0.000140271
0.000150036
0.000160136
0.000170467
0.000180936
0.000191459
0.000201959
0.000212362
0.000222599
0.000232595
0.000242278
0.000251567
0.000260378
0.000268616
0.00027618
0.000282959
0.000288833
0.000293667
0.000297285
0.000299428
0.00029969
0.000297494
0.00029227
0.000283985
0.000273643
0.000263091
0.000255747
0.000249414
0.0002489
0.000251514
0.000256466
0.000258786
0.000265736
0.00026362
0.000267556
0.000273642
0.0002802
0.000287169
0.000294431
0.000301918
0.000309583
0.000317397
0.000325341
0.000333402
0.000341574
0.000349849
0.000358224
0.000366696
0.000375262
0.00038392
0.000392669
0.000401506
0.00041043
0.000419439
0.00042853
0.000437702
0.00044695
0.000456273
0.000465666
0.000475127
0.00048465
0.000494231
0.000503867
0.000513551
0.000523278
0.000533044
0.000542842
0.000552667
0.000562512
0.000572373
0.000582243
0.000592116
0.000601987
0.00061185
0.0006217
0.000631531
0.000641338
0.000651116
0.000660861
0.000670569
0.000680234
0.000689853
0.000699421
0.00070893
0.000718373
0.000727737
0.000736999
0.000746124
0.000755055
0.000763629
0.000771596
0.000779393
0.000787065
0.000794616
0.00080204
0.000809332
0.000816486
0.000823498
0.00083036
0.000837069
0.000843619
0.000850004
0.00085622
0.000862261
0.000868124
0.000873804
0.000879295
0.000884595
0.000889699
0.000894604
0.000899307
0.000903803
0.000908091
0.000912167
0.00091603
0.000919676
0.000923105
0.000926313
0.000929301
0.000932066
0.000934607
0.000936925
0.000939018
0.000940887
0.000942532
0.000943953
0.000945151
0.000946127
0.000946884
0.000947421
0.000947742
0.000947849
0.000947744
0.000947429
0.00094691
0.000946188
0.000945267
0.000944153
0.000942848
0.000941357
0.000939687
0.000937841
0.000935824
0.000933644
0.000931306
0.000928813
0.000926177
0.000923402
0.000920495
0.000917469
0.000914315
0.000911067
0.000907722
0.000904244
0.000900542
0.000896068
0.000889554
0.000882345
0.000874916
0.000867384
0.000859785
0.000852139
0.000844452
0.000836729
0.00082896
0.000821124
0.000813145
0.000804911
0.000795434
0.000777052
1.58972e-06
3.73552e-05
8.14246e-05
0.000114767
0.00013888
0.000156817
0.000170996
0.000183161
0.000194451
0.000205528
0.000216712
0.000228106
0.000239704
0.000251446
0.000263254
0.000275047
0.000286746
0.000298273
0.000309555
0.000320516
0.000331082
0.000341175
0.00035072
0.000359645
0.000367882
0.000375375
0.000382085
0.000387991
0.000393087
0.000397369
0.000400817
0.000403413
0.000405251
0.000406754
0.000408752
0.000412213
0.000417716
0.000424548
0.000432674
0.000442231
0.000452674
0.000463287
0.000475172
0.000487373
0.000500825
0.000515268
0.000530218
0.00054556
0.000561236
0.00057721
0.000593451
0.000609935
0.000626644
0.000643567
0.000660692
0.000678012
0.000695521
0.000713215
0.000731088
0.000749137
0.000767357
0.000785744
0.000804294
0.000823001
0.000841859
0.000860863
0.000880005
0.000899277
0.000918673
0.000938182
0.000957795
0.000977502
0.000997293
0.00101716
0.00103708
0.00105705
0.00107706
0.00109709
0.00111714
0.00113718
0.00115721
0.00117721
0.00119717
0.00121708
0.00123693
0.0012567
0.00127638
0.00129596
0.00131544
0.00133479
0.001354
0.00137306
0.00139196
0.00141067
0.00142918
0.00144745
0.00146544
0.00148312
0.00150044
0.00151708
0.00153327
0.00154917
0.0015648
0.00158018
0.00159529
0.00161011
0.00162465
0.00163888
0.0016528
0.00166639
0.00167965
0.00169256
0.00170512
0.00171731
0.00172912
0.00174055
0.00175158
0.00176222
0.00177244
0.00178224
0.00179162
0.00180057
0.00180909
0.00181716
0.00182478
0.00183196
0.00183867
0.00184493
0.00185073
0.00185607
0.00186093
0.00186534
0.00186927
0.00187274
0.00187574
0.00187827
0.00188034
0.00188195
0.0018831
0.0018838
0.00188405
0.00188385
0.00188321
0.00188213
0.00188063
0.0018787
0.00187637
0.00187363
0.00187049
0.00186697
0.00186307
0.00185881
0.00185419
0.00184924
0.00184395
0.00183834
0.00183244
0.00182625
0.00181978
0.00181307
0.00180612
0.00179895
0.00179157
0.00178391
0.00177581
0.00176676
0.0017559
0.00174405
0.00173172
0.00171913
0.00170636
0.00169346
0.00168044
0.00166731
0.00165405
0.0016406
0.00162673
0.00161196
0.00159434
0.00156524
2.55179e-06
4.82889e-05
0.000104188
0.000147196
0.000179187
0.000203374
0.000222422
0.000238325
0.000252476
0.000265771
0.00027873
0.000291613
0.000304519
0.000317458
0.000330392
0.000343264
0.000356011
0.000368568
0.000380876
0.000392879
0.000404524
0.00041577
0.000426581
0.000436937
0.000446838
0.000456303
0.00046538
0.000474146
0.000482701
0.000491167
0.000499673
0.000508365
0.000517429
0.000527147
0.000537873
0.000549888
0.000563264
0.000577868
0.000593593
0.00061036
0.000628016
0.000646457
0.000665775
0.00068587
0.000706726
0.000728204
0.000750134
0.00077244
0.000795088
0.000818059
0.000841336
0.000864906
0.000888757
0.000912881
0.000937267
0.000961911
0.000986805
0.00101194
0.00103732
0.00106293
0.00108877
0.00111482
0.00114109
0.00116757
0.00119423
0.00122109
0.00124811
0.00127531
0.00130265
0.00133012
0.00135772
0.00138543
0.00141323
0.0014411
0.00146903
0.001497
0.00152499
0.00155299
0.00158097
0.00160892
0.00163682
0.00166465
0.0016924
0.00172003
0.00174755
0.00177492
0.00180214
0.00182918
0.00185603
0.00188267
0.00190908
0.00193525
0.00196114
0.00198673
0.00201201
0.00203693
0.00206148
0.00208561
0.00210921
0.0021322
0.00215473
0.00217688
0.00219866
0.00222007
0.00224111
0.00226176
0.002282
0.00230182
0.0023212
0.00234013
0.0023586
0.00237658
0.00239408
0.00241106
0.00242753
0.00244347
0.00245886
0.0024737
0.00248798
0.00250168
0.00251479
0.00252731
0.00253924
0.00255055
0.00256124
0.00257132
0.00258077
0.00258959
0.00259777
0.00260531
0.0026122
0.00261846
0.00262407
0.00262903
0.00263335
0.00263703
0.00264006
0.00264245
0.00264421
0.00264534
0.00264584
0.00264572
0.00264499
0.00264366
0.00264172
0.0026392
0.00263611
0.00263245
0.00262823
0.00262347
0.00261818
0.00261238
0.00260608
0.0025993
0.00259205
0.00258435
0.00257622
0.00256769
0.00255878
0.0025495
0.00253988
0.00252992
0.00251962
0.00250894
0.00249774
0.00248568
0.00247229
0.00245796
0.00244304
0.00242773
0.00241214
0.00239634
0.00238037
0.00236423
0.00234791
0.00233131
0.00231415
0.00229574
0.00227392
0.00224206
3.52183e-06
5.71733e-05
0.00012229
0.000173607
0.000212401
0.000242012
0.000265326
0.00028455
0.00030127
0.000316564
0.000331112
0.000345309
0.000359357
0.000373339
0.000387271
0.000401132
0.000414887
0.000428497
0.000441929
0.000455153
0.000468151
0.000480917
0.000493459
0.000505806
0.000518004
0.000530125
0.000542261
0.00055453
0.000567062
0.000580001
0.000593492
0.000607677
0.000622699
0.000638705
0.000655833
0.000674164
0.00069368
0.000714305
0.000735952
0.000758542
0.000782
0.000806268
0.000831308
0.00085705
0.000883418
0.000910318
0.000937665
0.000965406
0.000993513
0.00102197
0.00105076
0.00107988
0.00110932
0.00113906
0.00116911
0.00119946
0.00123009
0.00126101
0.0012922
0.00132365
0.00135536
0.00138733
0.00141953
0.00145195
0.00148459
0.00151744
0.00155047
0.00158367
0.00161703
0.00165052
0.00168414
0.00171786
0.00175166
0.00178552
0.00181942
0.00185333
0.00188725
0.00192113
0.00195497
0.00198874
0.00202241
0.00205597
0.00208939
0.00212265
0.00215574
0.00218861
0.00222127
0.00225369
0.00228584
0.00231771
0.00234927
0.00238051
0.0024114
0.00244192
0.00247205
0.00250175
0.00253102
0.00255982
0.00258798
0.00261558
0.00264271
0.0026694
0.00269565
0.00272147
0.00274684
0.00277174
0.00279616
0.00282009
0.0028435
0.00286638
0.00288871
0.00291048
0.00293166
0.00295225
0.00297224
0.0029916
0.00301032
0.00302839
0.00304579
0.00306252
0.00307856
0.00309391
0.00310854
0.00312247
0.00313566
0.00314813
0.00315986
0.00317084
0.00318107
0.00319055
0.00319927
0.00320723
0.00321442
0.00322085
0.00322652
0.00323142
0.00323556
0.00323894
0.00324157
0.00324344
0.00324457
0.00324496
0.00324462
0.00324355
0.00324177
0.00323928
0.0032361
0.00323224
0.0032277
0.00322252
0.00321669
0.00321024
0.00320318
0.00319553
0.00318731
0.00317855
0.00316926
0.00315946
0.00314918
0.00313845
0.00312728
0.00311568
0.00310365
0.00309117
0.00307814
0.00306436
0.00304961
0.00303402
0.00301783
0.00300118
0.00298419
0.00296694
0.00294947
0.00293181
0.00291395
0.0028958
0.00287709
0.00285713
0.00283402
0.00280331
4.43544e-06
6.43725e-05
0.0001373
0.000195705
0.000240414
0.000274819
0.000301954
0.000324186
0.000343255
0.000360386
0.000376394
0.000391793
0.000406884
0.000421825
0.000436691
0.000451505
0.000466268
0.000480973
0.000495612
0.000510184
0.000524702
0.000539188
0.000553682
0.00056824
0.000582938
0.000597865
0.000613129
0.000628848
0.000645145
0.000662145
0.000679965
0.000698708
0.000718462
0.000739296
0.000761254
0.000784345
0.000808532
0.000833747
0.000859917
0.000886971
0.000914844
0.00094348
0.00097282
0.0010028
0.00103335
0.00106441
0.00109593
0.00112785
0.00116017
0.00119285
0.00122589
0.00125928
0.00129301
0.00132708
0.00136146
0.00139617
0.00143118
0.00146648
0.00150208
0.00153796
0.00157411
0.00161051
0.00164717
0.00168405
0.00172115
0.00175845
0.00179593
0.00183358
0.00187138
0.00190931
0.00194734
0.00198546
0.00202364
0.00206186
0.0021001
0.00213832
0.00217652
0.00221466
0.00225271
0.00229066
0.00232847
0.00236612
0.00240359
0.00244086
0.0024779
0.00251468
0.0025512
0.00258741
0.00262331
0.00265888
0.00269408
0.00272891
0.00276334
0.00279735
0.00283092
0.00286403
0.00289665
0.00292876
0.00296023
0.00299115
0.00302159
0.00305155
0.00308105
0.00311007
0.00313859
0.00316661
0.00319411
0.00322107
0.00324746
0.00327328
0.00329851
0.00332312
0.0033471
0.00337043
0.00339311
0.0034151
0.0034364
0.003457
0.00347687
0.003496
0.00351439
0.00353201
0.00354886
0.00356493
0.00358021
0.00359469
0.00360836
0.00362122
0.00363326
0.00364447
0.00365484
0.00366438
0.00367308
0.00368094
0.00368796
0.00369414
0.00369948
0.00370398
0.00370764
0.00371047
0.00371248
0.00371366
0.00371403
0.0037136
0.00371237
0.00371035
0.00370756
0.003704
0.00369969
0.00369465
0.00368888
0.00368241
0.00367526
0.00366744
0.00365896
0.00364987
0.00364017
0.00362988
0.00361905
0.00360768
0.0035958
0.00358342
0.00357055
0.00355718
0.00354324
0.00352865
0.00351327
0.00349718
0.00348049
0.00346334
0.00344581
0.00342798
0.00340992
0.00339166
0.00337322
0.00335453
0.00333538
0.00331518
0.00329244
0.00326429
5.22327e-06
7.04169e-05
0.000149791
0.000214203
0.000264062
0.000302738
0.000333345
0.000358354
0.000379622
0.00039849
0.000415889
0.000432436
0.000448523
0.000464384
0.000480153
0.000495902
0.000511669
0.000527476
0.000543345
0.000559297
0.000575367
0.000591598
0.000608046
0.000624781
0.000641884
0.000659449
0.000677576
0.000696367
0.000715926
0.000736347
0.000757712
0.000780088
0.000803522
0.000828039
0.000853643
0.000880314
0.000908008
0.000936665
0.00096622
0.00099661
0.00102777
0.00105965
0.00109219
0.00112533
0.00115902
0.00119321
0.00122786
0.00126292
0.0012984
0.00133425
0.00137047
0.00140706
0.00144399
0.00148126
0.00151886
0.00155679
0.00159503
0.00163357
0.0016724
0.00171151
0.00175089
0.00179052
0.0018304
0.0018705
0.0019108
0.00195131
0.00199198
0.00203281
0.00207378
0.00211485
0.00215602
0.00219726
0.00223854
0.00227985
0.00232114
0.00236241
0.00240362
0.00244475
0.00248577
0.00252665
0.00256737
0.0026079
0.00264822
0.0026883
0.00272812
0.00276765
0.00280687
0.00284576
0.0028843
0.00292247
0.00296024
0.00299761
0.00303455
0.00307104
0.00310707
0.00314262
0.00317767
0.00321212
0.003246
0.00327935
0.00331222
0.0033446
0.0033765
0.0034079
0.0034388
0.00346917
0.003499
0.00352827
0.00355696
0.00358505
0.00361252
0.00363936
0.00366554
0.00369105
0.00371587
0.00373998
0.00376337
0.00378602
0.00380791
0.00382903
0.00384937
0.00386891
0.00388764
0.00390555
0.00392263
0.00393887
0.00395426
0.00396879
0.00398246
0.00399525
0.00400717
0.0040182
0.00402834
0.0040376
0.00404596
0.00405344
0.00406002
0.00406571
0.00407051
0.00407442
0.00407747
0.00407963
0.00408092
0.00408135
0.00408092
0.00407967
0.00407757
0.00407464
0.00407092
0.00406641
0.0040611
0.00405503
0.00404822
0.00404068
0.00403243
0.0040235
0.00401391
0.00400368
0.00399284
0.0039814
0.0039694
0.00395684
0.00394374
0.00393011
0.0039159
0.00390108
0.00388559
0.00386946
0.00385277
0.00383561
0.00381806
0.0038002
0.0037821
0.00376382
0.00374539
0.00372679
0.00370787
0.00368817
0.00366659
0.00364126
5.8967e-06
7.53253e-05
0.000159958
0.000229452
0.0002838
0.000326292
0.000360067
0.000387661
0.000411011
0.000431549
0.000450299
0.000467969
0.000485032
0.000501792
0.000518441
0.000535097
0.000551837
0.000568711
0.000585765
0.00060304
0.000620584
0.00063845
0.000656702
0.000675412
0.000694658
0.000714523
0.000735092
0.000756451
0.000778675
0.000801833
0.000825978
0.000851148
0.000877364
0.000904628
0.000932925
0.000962225
0.000992481
0.00102364
0.00105564
0.00108844
0.00112196
0.00115616
0.00119098
0.00122639
0.00126232
0.00129874
0.00133562
0.00137292
0.00141063
0.00144873
0.0014872
0.00152602
0.0015652
0.00160471
0.00164455
0.00168471
0.00172518
0.00176594
0.00180699
0.00184831
0.0018899
0.00193172
0.00197378
0.00201606
0.00205853
0.00210119
0.00214401
0.00218698
0.00223007
0.00227326
0.00231654
0.00235987
0.00240324
0.00244662
0.00248999
0.00253331
0.00257657
0.00261973
0.00266278
0.00270567
0.00274839
0.00279091
0.0028332
0.00287524
0.00291699
0.00295844
0.00299956
0.00304034
0.00308074
0.00312076
0.00316036
0.00319955
0.00323829
0.00327658
0.00331439
0.00335171
0.00338852
0.00342475
0.00346045
0.00349565
0.00353038
0.00356463
0.0035984
0.00363168
0.00366445
0.00369669
0.00372839
0.00375953
0.00379008
0.00382002
0.00384934
0.00387801
0.00390602
0.00393335
0.00395998
0.00398589
0.00401106
0.00403548
0.00405912
0.00408198
0.00410403
0.00412526
0.00414566
0.00416522
0.00418392
0.00420176
0.00421873
0.00423482
0.00425001
0.00426429
0.00427767
0.00429013
0.00430168
0.0043123
0.00432201
0.0043308
0.00433865
0.00434558
0.00435158
0.00435666
0.00436084
0.0043641
0.00436644
0.00436788
0.00436843
0.00436813
0.00436692
0.00436484
0.00436192
0.00435816
0.00435358
0.00434819
0.00434202
0.00433508
0.00432739
0.00431897
0.00430984
0.00430003
0.00428956
0.00427846
0.00426673
0.00425441
0.00424151
0.00422804
0.00421399
0.00419934
0.00418409
0.00416824
0.00415186
0.004135
0.00411776
0.00410021
0.00408241
0.00406446
0.0040464
0.00402826
0.00400994
0.00399113
0.00397099
0.00394829
6.45107e-06
7.91792e-05
0.000167993
0.000241724
0.000299951
0.000345834
0.000382492
0.000412487
0.000437809
0.000459955
0.000480022
0.000498794
0.000516813
0.000534447
0.000551941
0.000569458
0.000587108
0.00060497
0.000623106
0.000641574
0.00066043
0.000679732
0.000699543
0.000719929
0.000740961
0.000762709
0.000785241
0.00080862
0.000832903
0.000858134
0.000884347
0.00091156
0.000939777
0.000968987
0.000999168
0.00103028
0.00106229
0.00109515
0.00112879
0.00116318
0.00119825
0.00123396
0.00127027
0.00130712
0.00134449
0.00138234
0.00142063
0.00145934
0.00149844
0.00153793
0.00157778
0.00161798
0.00165852
0.0016994
0.00174059
0.00178209
0.00182388
0.00186597
0.00190833
0.00195095
0.00199383
0.00203694
0.00208028
0.00212383
0.00216758
0.00221151
0.0022556
0.00229983
0.00234419
0.00238866
0.00243321
0.00247782
0.00252248
0.00256715
0.00261181
0.00265645
0.00270102
0.00274551
0.00278988
0.00283411
0.00287817
0.00292204
0.00296568
0.00300907
0.00305218
0.00309498
0.00313745
0.00317958
0.00322133
0.00326268
0.00330363
0.00334416
0.00338424
0.00342387
0.00346303
0.00350171
0.00353986
0.0035775
0.00361467
0.00365138
0.00368763
0.00372343
0.00375876
0.00379361
0.00382797
0.00386181
0.00389511
0.00392785
0.00396001
0.00399157
0.00402251
0.00405281
0.00408244
0.00411139
0.00413964
0.00416716
0.00419394
0.00421997
0.00424521
0.00426965
0.00429328
0.00431608
0.00433803
0.00435913
0.00437936
0.00439871
0.00441718
0.00443475
0.00445141
0.00446714
0.00448194
0.0044958
0.00450873
0.00452072
0.00453178
0.0045419
0.00455105
0.00455924
0.00456649
0.0045728
0.00457819
0.00458262
0.00458611
0.00458866
0.0045903
0.00459103
0.00459086
0.00458979
0.00458783
0.00458502
0.00458135
0.00457685
0.00457153
0.00456541
0.0045585
0.00455084
0.00454243
0.0045333
0.00452348
0.00451297
0.00450182
0.00449003
0.00447762
0.00446462
0.00445102
0.00443682
0.00442205
0.0044067
0.00439084
0.00437451
0.00435779
0.00434075
0.00432349
0.00430608
0.00428862
0.00427114
0.00425362
0.00423584
0.00421717
0.00419673
6.88604e-06
8.20709e-05
0.000174085
0.000251267
0.000312794
0.000361656
0.000400911
0.000433115
0.000460284
0.000483961
0.000505297
0.000525133
0.000544073
0.000562539
0.000580823
0.000599126
0.00061759
0.000636316
0.000655384
0.000674861
0.000694808
0.000715283
0.000736346
0.000758056
0.00078047
0.000803645
0.000827634
0.000852483
0.000878229
0.000904902
0.000932518
0.000961083
0.000990592
0.00102103
0.00105236
0.00108456
0.00111759
0.0011514
0.00118594
0.00122116
0.00125703
0.0012935
0.00133052
0.00136807
0.0014061
0.00144458
0.00148349
0.0015228
0.00156249
0.00160255
0.00164295
0.0016837
0.00172478
0.00176617
0.00180787
0.00184987
0.00189215
0.00193472
0.00197756
0.00202067
0.00206402
0.00210762
0.00215144
0.00219549
0.00223973
0.00228417
0.00232879
0.00237357
0.0024185
0.00246355
0.00250871
0.00255396
0.00259928
0.00264464
0.00269003
0.00273541
0.00278076
0.00282606
0.00287127
0.00291636
0.00296132
0.0030061
0.00305068
0.00309502
0.0031391
0.00318289
0.00322637
0.0032695
0.00331227
0.00335466
0.00339664
0.00343821
0.00347934
0.00352004
0.00356027
0.00360004
0.00363936
0.00367824
0.00371669
0.00375472
0.00379234
0.00382952
0.00386626
0.00390254
0.00393834
0.00397364
0.00400841
0.00404264
0.0040763
0.00410936
0.00414181
0.00417362
0.00420477
0.00423524
0.00426501
0.00429407
0.00432238
0.00434993
0.00437669
0.00440266
0.0044278
0.0044521
0.00447555
0.00449814
0.00451985
0.00454067
0.0045606
0.00457963
0.00459774
0.0046149
0.00463111
0.00464638
0.00466069
0.00467406
0.00468648
0.00469796
0.00470843
0.00471794
0.00472648
0.00473405
0.00474068
0.00474634
0.00475105
0.00475481
0.00475762
0.00475952
0.00476048
0.00476054
0.00475969
0.00475796
0.00475536
0.00475189
0.00474759
0.00474245
0.00473651
0.00472978
0.00472228
0.00471404
0.00470506
0.00469537
0.004685
0.00467396
0.00466227
0.00464996
0.00463703
0.0046235
0.00460939
0.00459472
0.00457954
0.00456389
0.00454784
0.00453148
0.0045149
0.00449819
0.00448144
0.00446475
0.00444812
0.00443139
0.0044141
0.00439556
7.20603e-06
8.40995e-05
0.000178423
0.000258324
0.000322596
0.000374025
0.000415578
0.000449779
0.000478646
0.000503747
0.000526272
0.000547109
0.000566906
0.000586131
0.000605117
0.000624097
0.00064324
0.000662667
0.00068247
0.000702724
0.000723492
0.00074483
0.000766793
0.00078943
0.000812787
0.00083691
0.000861835
0.000887594
0.000914212
0.000941706
0.00097008
0.000999333
0.00102945
0.00106042
0.0010922
0.00112478
0.0011581
0.00119213
0.00122682
0.00126215
0.00129805
0.00133451
0.00137148
0.00140893
0.00144683
0.00148515
0.00152386
0.00156296
0.00160242
0.00164222
0.00168236
0.00172283
0.00176361
0.0018047
0.0018461
0.00188779
0.00192977
0.00197204
0.00201459
0.00205742
0.00210052
0.00214387
0.00218749
0.00223135
0.00227545
0.00231977
0.00236431
0.00240906
0.002454
0.00249911
0.00254438
0.00258979
0.00263532
0.00268095
0.00272665
0.00277241
0.00281818
0.00286395
0.00290969
0.00295535
0.00300092
0.00304636
0.00309164
0.00313671
0.00318155
0.00322613
0.00327041
0.00331438
0.00335799
0.00340124
0.00344409
0.00348655
0.00352858
0.00357019
0.00361136
0.00365217
0.0036926
0.00373266
0.00377234
0.00381165
0.00385057
0.00388909
0.00392719
0.00396486
0.00400207
0.00403878
0.00407499
0.00411066
0.00414577
0.0041803
0.00421422
0.00424751
0.00428015
0.00431211
0.00434337
0.00437392
0.00440373
0.00443279
0.00446106
0.00448852
0.00451515
0.00454093
0.00456586
0.00458993
0.00461311
0.00463539
0.00465678
0.00467728
0.00469684
0.00471543
0.00473307
0.00474975
0.00476547
0.00478023
0.00479402
0.00480685
0.00481869
0.00482954
0.00483942
0.00484833
0.00485627
0.00486324
0.00486924
0.00487428
0.00487838
0.00488153
0.00488374
0.00488503
0.00488541
0.00488488
0.00488346
0.00488117
0.00487802
0.00487402
0.00486919
0.00486355
0.00485712
0.00484992
0.00484195
0.00483326
0.00482385
0.00481374
0.00480296
0.00479152
0.00477945
0.00476676
0.00475348
0.00473963
0.00472526
0.00471042
0.00469518
0.00467962
0.00466383
0.00464791
0.00463199
0.00461614
0.00460042
0.00458474
0.00456869
0.00455174
7.41974e-06
8.53703e-05
0.000181208
0.000263143
0.000329618
0.000383197
0.000426728
0.000462681
0.000493059
0.000519436
0.000543028
0.000564754
0.000585299
0.000605167
0.00062472
0.000644222
0.000663861
0.000683774
0.000704064
0.000724809
0.000746074
0.000767912
0.00079037
0.000813489
0.000837307
0.000861854
0.000887158
0.000913238
0.000940108
0.000967774
0.000996236
0.00102549
0.00105551
0.00108628
0.00111777
0.00114996
0.00118281
0.00121628
0.00125034
0.00128495
0.00132009
0.00135571
0.00139179
0.0014283
0.00146521
0.00150251
0.00154018
0.00157821
0.00161658