/*--------------------------------*- C++ -*----------------------------------*\
  =========                 |
  \\      /  F ield         | OpenFOAM: The Open Source CFD Toolbox
   \\    /   O peration     | Website:  https://openfoam.org
    \\  /    A nd           | Version:  12
     \\/     M anipulation  |
\*---------------------------------------------------------------------------*/
FoamFile
{
    format      ascii;
    class       volScalarField;
    location    "0.29";
    object      p;
}
// * * * * * * * * * * * * * * * * * * * * * * * * * * * * * * * * * * * * * //

dimensions      [0 2 -2 0 0 0 0];

internalField   nonuniform List<scalar> 
12225
(
-1.11146
-3.39448
-4.55701
-4.8653
-5.03371
-5.19361
-5.31841
-5.40708
-5.47699
-5.53836
-5.59299
-5.64072
-5.68187
-5.71577
-5.74133
-5.7483
-5.74637
-5.63993
-4.57896
-5.28109
-5.37139
-5.23644
-5.19652
-5.26399
-5.34497
-5.41109
-5.46842
-5.52219
-5.57219
-5.61728
-5.65718
-5.69102
-5.71841
-5.73237
-5.74569
-5.73151
-4.7837
-4.68077
-4.83762
-4.95985
-5.06738
-5.18988
-5.29841
-5.38136
-5.44889
-5.50913
-5.56374
-5.61251
-5.65559
-5.69275
-5.72441
-5.74752
-5.77629
-5.80963
-4.64641
-4.5683
-4.84444
-5.02328
-5.11789
-5.21522
-5.31058
-5.38842
-5.45335
-5.51196
-5.56572
-5.61428
-5.65779
-5.6964
-5.73115
-5.76211
-5.80093
-5.85386
-4.65337
-4.67065
-4.9108
-5.06082
-5.13701
-5.22192
-5.31178
-5.38814
-5.45246
-5.51059
-5.56423
-5.61318
-5.65771
-5.69838
-5.73667
-5.7743
-5.81982
-5.87997
-4.71505
-4.75754
-4.93539
-5.06624
-5.14439
-5.22712
-5.31368
-5.38883
-5.4528
-5.5107
-5.56435
-5.6138
-5.65942
-5.70208
-5.74347
-5.78587
-5.83537
-5.89733
-4.77478
-4.81432
-4.95079
-5.07312
-5.15566
-5.23558
-5.31751
-5.39067
-5.45409
-5.51169
-5.5653
-5.61518
-5.66182
-5.70622
-5.75008
-5.79566
-5.84715
-5.90804
-4.82791
-4.86283
-4.9732
-5.08594
-5.16865
-5.24475
-5.32194
-5.39291
-5.45566
-5.51291
-5.56645
-5.61671
-5.66424
-5.71006
-5.75574
-5.80319
-5.85518
-5.91357
-4.87769
-4.90944
-5.00029
-5.1012
-5.18142
-5.25408
-5.32707
-5.39571
-5.45756
-5.51435
-5.56772
-5.61823
-5.66644
-5.7133
-5.76013
-5.8084
-5.85984
-5.9152
-4.92503
-4.95367
-5.0289
-5.11791
-5.19443
-5.264
-5.33315
-5.39923
-5.4599
-5.51609
-5.56915
-5.61973
-5.66834
-5.7158
-5.76315
-5.81144
-5.86166
-5.91393
-4.96977
-4.99507
-5.05792
-5.13608
-5.2081
-5.27454
-5.34009
-5.40349
-5.46274
-5.51815
-5.57075
-5.62118
-5.66989
-5.71753
-5.76486
-5.81258
-5.86122
-5.91054
-5.00825
-5.0306
-5.08449
-5.15384
-5.22122
-5.28466
-5.34711
-5.40803
-5.46579
-5.52033
-5.57235
-5.62243
-5.67095
-5.7184
-5.76534
-5.81219
-5.85922
-5.90606
-5.04392
-5.06373
-5.1103
-5.17191
-5.23458
-5.29494
-5.35448
-5.41298
-5.46916
-5.52269
-5.57401
-5.62357
-5.67169
-5.71871
-5.76499
-5.81078
-5.85617
-5.90076
-5.0814
-5.09871
-5.13854
-5.1926
-5.25003
-5.30683
-5.36324
-5.41906
-5.47333
-5.52557
-5.57593
-5.6247
-5.6721
-5.71836
-5.76364
-5.80806
-5.8516
-5.8939
-5.11946
-5.13437
-5.16825
-5.21531
-5.26729
-5.32015
-5.37323
-5.4262
-5.47827
-5.52889
-5.57798
-5.62564
-5.67199
-5.71712
-5.76107
-5.80385
-5.84541
-5.88544
-5.15615
-5.16891
-5.19779
-5.23875
-5.28545
-5.33424
-5.38394
-5.43399
-5.48366
-5.53239
-5.5799
-5.62614
-5.6711
-5.71477
-5.75712
-5.79809
-5.83761
-5.87547
-5.18859
-5.1996
-5.22459
-5.26062
-5.30275
-5.34776
-5.39426
-5.44151
-5.48878
-5.53546
-5.58119
-5.62577
-5.66911
-5.7111
-5.75168
-5.79077
-5.82831
-5.86415
-5.21241
-5.22221
-5.2446
-5.27728
-5.31612
-5.35825
-5.40222
-5.44716
-5.49234
-5.53714
-5.58112
-5.62402
-5.66568
-5.70597
-5.7448
-5.7821
-5.8178
-5.85185
-5.22066
-5.23001
-5.25147
-5.28298
-5.32065
-5.36161
-5.40439
-5.44812
-5.49208
-5.53565
-5.57835
-5.61992
-5.66019
-5.69903
-5.73637
-5.77215
-5.80635
-5.83895
-5.20556
-5.21561
-5.23857
-5.27218
-5.31193
-5.35448
-5.39829
-5.44268
-5.48703
-5.53069
-5.57324
-5.61443
-5.65416
-5.69233
-5.72891
-5.76386
-5.79718
-5.82891
-5.17927
-5.19044
-5.21621
-5.2539
-5.2976
-5.34311
-5.38908
-5.43521
-5.48085
-5.52533
-5.5683
-5.60965
-5.64935
-5.68734
-5.72362
-5.75819
-5.79109
-5.82239
-5.14425
-5.15661
-5.18662
-5.23105
-5.28049
-5.32955
-5.37821
-5.42682
-5.47443
-5.52017
-5.56386
-5.60563
-5.64552
-5.68354
-5.71971
-5.75409
-5.78676
-5.81779
-5.10358
-5.11617
-5.1515
-5.20604
-5.2631
-5.31603
-5.36752
-5.41881
-5.46848
-5.51554
-5.5601
-5.60245
-5.64269
-5.68085
-5.71702
-5.75132
-5.78385
-5.81473
-5.0597
-5.07125
-5.1136
-5.18016
-5.24479
-5.30235
-5.35816
-5.41274
-5.46414
-5.51209
-5.5573
-5.60014
-5.64066
-5.67891
-5.71506
-5.74928
-5.7817
-5.81245
-5.01282
-5.02056
-5.08156
-5.1613
-5.22635
-5.28593
-5.34773
-5.4072
-5.46083
-5.50975
-5.55565
-5.59897
-5.63971
-5.67799
-5.71407
-5.74819
-5.7805
-5.81118
-4.96485
-4.94118
-5.05194
-5.16081
-5.2213
-5.2753
-5.33862
-5.40086
-5.456
-5.50586
-5.55257
-5.59649
-5.63755
-5.67598
-5.71212
-5.74623
-5.77851
-5.80913
-4.95552
-4.81117
-4.97016
-5.13629
-5.2207
-5.28161
-5.34629
-5.40731
-5.4609
-5.50988
-5.5561
-5.59958
-5.64019
-5.67818
-5.71389
-5.74761
-5.77959
-5.81
-5.10092
-4.8171
-4.85179
-4.98217
-5.10165
-5.20854
-5.30247
-5.37808
-5.44015
-5.49521
-5.54575
-5.59212
-5.63469
-5.67405
-5.71073
-5.74512
-5.77773
-5.80919
-5.03772
-5.53739
-5.54746
-5.38812
-5.30704
-5.33113
-5.38513
-5.43437
-5.4793
-5.52367
-5.56709
-5.6083
-5.64692
-5.68316
-5.71722
-5.74919
-5.77935
-5.80953
-1.69903
-3.56957
-4.6408
-4.93377
-5.0685
-5.20513
-5.31689
-5.39673
-5.4595
-5.51532
-5.56641
-5.61285
-5.65521
-5.69423
-5.73033
-5.76352
-5.79347
-5.8184
-6.71763
-6.71759
-6.71789
-6.7185
-6.71931
-6.72026
-6.72139
-6.72268
-6.72417
-6.72588
-6.72784
-6.73008
-6.73263
-6.73553
-6.73882
-6.74254
-6.74674
-6.75144
-6.7567
-6.76254
-6.76902
-6.77617
-6.78404
-6.79267
-6.80212
-6.81243
-6.82367
-6.83593
-6.84929
-6.86387
-6.87973
-6.89692
-6.9158
-6.93678
-6.95878
-6.98211
-7.00982
-7.02918
-7.04268
-7.06307
-7.0828
-7.1038
-7.14309
-7.17632
-7.19514
-7.22128
-7.24919
-7.27836
-7.30846
-7.33924
-7.37052
-7.40216
-7.43403
-7.46602
-7.49801
-7.52989
-7.56155
-7.59286
-7.62372
-7.654
-7.68357
-7.71231
-7.74007
-7.76672
-7.7921
-7.81607
-7.83847
-7.85913
-7.87789
-7.89457
-7.909
-7.921
-7.93039
-7.93697
-7.94057
-7.94099
-7.93805
-7.93154
-7.92129
-7.90711
-7.8888
-7.86619
-7.83908
-7.80731
-7.77069
-7.72906
-7.68224
-7.63008
-7.57243
-7.50913
-7.44003
-7.36501
-7.28395
-7.19671
-7.1032
-7.00331
-6.89703
-6.78436
-6.66528
-6.53955
-6.407
-6.26735
-6.12077
-5.96733
-5.80705
-5.63995
-5.46607
-5.28545
-5.09815
-4.90423
-4.7038
-4.49696
-4.28382
-4.06453
-3.83923
-3.60809
-3.3713
-3.12905
-2.88155
-2.62903
-2.37171
-2.10984
-1.84369
-1.57351
-1.2996
-1.02222
-0.741687
-0.458288
-0.172333
0.115869
0.406002
0.697748
0.990791
1.28481
1.57949
1.87451
2.16955
2.46432
2.7585
3.05179
3.34391
3.63456
3.92347
4.21037
4.49501
4.77715
5.05653
5.33295
5.60619
5.87604
6.14233
6.40488
6.66353
6.91812
7.16852
7.41461
7.65628
7.89341
8.12593
8.35374
8.57679
8.79501
9.00836
9.21682
9.42036
9.61895
9.81241
10.0006
10.1835
10.3612
10.5336
10.7008
10.8628
11.0196
11.1712
11.3181
11.4611
11.6015
11.7484
11.9023
-6.71669
-6.71686
-6.7172
-6.71772
-6.71825
-6.71878
-6.71932
-6.72
-6.7209
-6.72206
-6.72352
-6.72529
-6.72741
-6.72989
-6.73277
-6.73606
-6.73982
-6.74406
-6.74883
-6.75417
-6.7601
-6.76668
-6.77393
-6.7819
-6.79063
-6.80016
-6.81053
-6.82177
-6.83388
-6.84682
-6.86049
-6.87485
-6.88972
-6.90453
-6.91993
-6.93722
-6.95237
-6.97343
-7.00077
-7.02405
-7.04827
-7.07977
-7.10015
-7.12399
-7.16185
-7.19436
-7.22532
-7.25613
-7.28706
-7.31825
-7.34971
-7.38138
-7.41321
-7.44511
-7.47698
-7.50874
-7.54027
-7.57148
-7.60224
-7.63245
-7.66197
-7.69069
-7.71846
-7.74514
-7.7706
-7.79468
-7.81722
-7.83807
-7.85705
-7.87399
-7.88873
-7.90107
-7.91085
-7.91786
-7.92194
-7.92288
-7.9205
-7.9146
-7.90501
-7.89152
-7.87396
-7.85214
-7.82587
-7.79498
-7.7593
-7.71865
-7.67286
-7.62179
-7.56527
-7.50315
-7.43531
-7.36159
-7.28188
-7.19607
-7.10403
-7.00565
-6.90084
-6.78948
-6.67144
-6.54648
-6.41463
-6.27626
-6.13119
-5.97933
-5.82067
-5.65522
-5.483
-5.30404
-5.11841
-4.92616
-4.72739
-4.5222
-4.31071
-4.09305
-3.86937
-3.63983
-3.40461
-3.1639
-2.91791
-2.66686
-2.41098
-2.15051
-1.88572
-1.61685
-1.3442
-1.06804
-0.788664
-0.50637
-0.221463
0.0657488
0.354952
0.645831
0.938068
1.23135
1.52535
1.81975
2.11425
2.40853
2.7023
2.99524
3.28706
3.57748
3.86623
4.15303
4.43763
4.71977
4.99922
5.27576
5.54917
5.81924
6.0858
6.34866
6.60765
6.86263
7.11346
7.36
7.60214
7.83979
8.07283
8.3012
8.52483
8.74364
8.95761
9.16669
9.37086
9.57006
9.76415
9.953
10.1366
10.315
10.4881
10.656
10.8187
10.9764
11.1291
11.2772
11.4221
11.5645
11.7149
11.8628
-6.71372
-6.71455
-6.71545
-6.71629
-6.71691
-6.71737
-6.71779
-6.71831
-6.71902
-6.71998
-6.72123
-6.7228
-6.72472
-6.72701
-6.72971
-6.73284
-6.73644
-6.74053
-6.74515
-6.75034
-6.75613
-6.76256
-6.76967
-6.7775
-6.78607
-6.79542
-6.8056
-6.81664
-6.82856
-6.84135
-6.855
-6.86955
-6.88501
-6.90102
-6.91745
-6.93509
-6.95391
-6.97487
-6.99903
-7.02393
-7.04891
-7.07509
-7.09981
-7.12463
-7.15328
-7.18256
-7.21231
-7.24245
-7.2729
-7.30364
-7.33462
-7.36579
-7.3971
-7.42848
-7.45982
-7.49106
-7.5221
-7.55282
-7.58313
-7.61291
-7.64204
-7.6704
-7.69785
-7.72427
-7.74949
-7.77338
-7.79578
-7.81654
-7.83548
-7.85243
-7.86723
-7.87969
-7.88964
-7.89689
-7.90125
-7.90254
-7.90056
-7.89514
-7.88607
-7.87318
-7.85627
-7.83516
-7.80967
-7.77962
-7.74483
-7.70514
-7.66038
-7.61038
-7.555
-7.49409
-7.4275
-7.3551
-7.27675
-7.19234
-7.10176
-7.00488
-6.90161
-6.7918
-6.67531
-6.55224
-6.42236
-6.28582
-6.14256
-5.99255
-5.83577
-5.67221
-5.50191
-5.32488
-5.14119
-4.95089
-4.75407
-4.55082
-4.34127
-4.12554
-3.90377
-3.67612
-3.44278
-3.20392
-2.95974
-2.71048
-2.45634
-2.19758
-1.93444
-1.66719
-1.3961
-1.12144
-0.843515
-0.562608
-0.279024
0.00692952
0.294942
0.584701
0.875888
1.16819
1.46129
1.75486
2.04861
2.34222
2.63538
2.9278
3.21918
3.50923
3.79768
4.08425
4.3687
4.65076
4.9302
5.20678
5.48031
5.75056
6.01735
6.2805
6.53983
6.7952
7.04646
7.29349
7.53615
7.77434
8.00798
8.23696
8.46121
8.68067
8.89528
9.105
9.30978
9.50957
9.7043
9.89392
10.0783
10.2576
10.4316
10.6004
10.7641
10.9227
11.0767
11.2263
11.373
11.5172
11.6702
11.808
-6.709
-6.71049
-6.71224
-6.71378
-6.71486
-6.71563
-6.71627
-6.71693
-6.71772
-6.7187
-6.71995
-6.7215
-6.72339
-6.72565
-6.72831
-6.7314
-6.73496
-6.73901
-6.74358
-6.74872
-6.75446
-6.76083
-6.76786
-6.7756
-6.78408
-6.79332
-6.80337
-6.81426
-6.826
-6.83861
-6.85209
-6.86647
-6.88178
-6.89798
-6.91507
-6.93317
-6.95251
-6.9733
-6.9958
-7.01968
-7.0445
-7.06997
-7.09581
-7.1221
-7.14947
-7.17772
-7.20663
-7.23606
-7.2659
-7.29609
-7.32656
-7.35725
-7.38809
-7.419
-7.44991
-7.48073
-7.51137
-7.54172
-7.57169
-7.60116
-7.63002
-7.65813
-7.68538
-7.71162
-7.73671
-7.76051
-7.78286
-7.8036
-7.82257
-7.8396
-7.85451
-7.86713
-7.87728
-7.88478
-7.88943
-7.89105
-7.88945
-7.88445
-7.87585
-7.86347
-7.84712
-7.82662
-7.80178
-7.77242
-7.73837
-7.69946
-7.65552
-7.6064
-7.55193
-7.49197
-7.42637
-7.35499
-7.27771
-7.19439
-7.10491
-7.00917
-6.90705
-6.79844
-6.68323
-6.56143
-6.43298
-6.29786
-6.15603
-6.00746
-5.85214
-5.69006
-5.52124
-5.34571
-5.16352
-4.97473
-4.77941
-4.57768
-4.36963
-4.15539
-3.9351
-3.70893
-3.47703
-3.23961
-2.99685
-2.74897
-2.49619
-2.23876
-1.97691
-1.71092
-1.44104
-1.16756
-0.890769
-0.61095
-0.328406
-0.0434425
0.243632
0.532504
0.82286
1.11438
1.40676
1.69968
1.99282
2.28589
2.57856
2.87055
3.16156
3.4513
3.7395
4.02588
4.31019
4.59216
4.87157
5.14819
5.42178
5.69216
5.95912
6.22248
6.48207
6.73773
6.98933
7.23672
7.47978
7.7184
7.95248
8.18193
8.40667
8.62665
8.8418
9.05206
9.25736
9.45762
9.65281
9.84293
10.0279
10.2077
10.3823
10.5518
10.7162
10.8756
11.0303
11.1808
11.3285
11.4728
11.6248
11.7504
-6.70356
-6.70577
-6.70857
-6.71097
-6.71268
-6.71392
-6.71493
-6.71589
-6.71692
-6.71809
-6.7195
-6.72118
-6.72319
-6.72556
-6.72833
-6.73152
-6.73517
-6.73931
-6.74397
-6.7492
-6.75502
-6.76148
-6.7686
-6.77643
-6.78499
-6.79433
-6.80447
-6.81546
-6.82731
-6.84004
-6.85369
-6.86825
-6.88375
-6.90022
-6.91771
-6.9363
-6.95601
-6.9769
-6.99898
-7.02213
-7.04626
-7.07124
-7.09694
-7.12335
-7.15053
-7.17838
-7.20682
-7.23575
-7.26512
-7.29486
-7.32491
-7.3552
-7.38566
-7.41621
-7.44678
-7.47728
-7.50763
-7.53771
-7.56744
-7.59669
-7.62536
-7.65331
-7.68043
-7.70657
-7.7316
-7.75536
-7.7777
-7.79846
-7.81748
-7.8346
-7.84962
-7.86239
-7.87271
-7.88041
-7.8853
-7.88719
-7.88589
-7.88122
-7.87298
-7.86098
-7.84505
-7.82499
-7.80062
-7.77177
-7.73825
-7.69991
-7.65656
-7.60805
-7.55423
-7.49495
-7.43005
-7.3594
-7.28286
-7.20032
-7.11164
-7.01672
-6.91544
-6.80772
-6.69347
-6.57263
-6.44516
-6.31104
-6.1702
-6.02263
-5.86832
-5.70725
-5.53945
-5.36494
-5.18378
-4.99601
-4.80172
-4.60101
-4.39397
-4.18075
-3.96147
-3.73629
-3.50538
-3.26893
-3.02712
-2.78018
-2.52833
-2.27179
-2.01083
-1.74569
-1.47664
-1.20396
-0.927941
-0.648865
-0.367032
-0.0827468
0.203683
0.491946
0.781729
1.07272
1.3646
1.65705
1.94978
2.24246
2.53479
2.82648
3.11722
3.40674
3.69476
3.98099
4.26519
4.5471
4.82648
5.1031
5.37673
5.64718
5.91425
6.17775
6.43751
6.69337
6.94519
7.19282
7.43615
7.67506
7.90946
8.13925
8.36436
8.5847
8.80021
9.01083
9.21647
9.41704
9.61253
9.80295
9.98825
10.1684
10.3434
10.5132
10.678
10.8378
10.993
11.1438
11.2914
11.4346
11.5838
11.6978
-6.69838
-6.70132
-6.70508
-6.70835
-6.71075
-6.71255
-6.71404
-6.7154
-6.71677
-6.71825
-6.71993
-6.72187
-6.72412
-6.72671
-6.72969
-6.7331
-6.73696
-6.74132
-6.7462
-6.75165
-6.75769
-6.76437
-6.77172
-6.77979
-6.78859
-6.79818
-6.80859
-6.81984
-6.83197
-6.84501
-6.85896
-6.87385
-6.8897
-6.90651
-6.92432
-6.94317
-6.96306
-6.98401
-7.00599
-7.02891
-7.05271
-7.07733
-7.10269
-7.12878
-7.15557
-7.18302
-7.21104
-7.23958
-7.26857
-7.29795
-7.32766
-7.35763
-7.38779
-7.41807
-7.44839
-7.47867
-7.50881
-7.53871
-7.56828
-7.59741
-7.62597
-7.65384
-7.6809
-7.70701
-7.73202
-7.75579
-7.77817
-7.79899
-7.81809
-7.83531
-7.85046
-7.86336
-7.87385
-7.88173
-7.88682
-7.88893
-7.88787
-7.88346
-7.87549
-7.86379
-7.84817
-7.82843
-7.80441
-7.77592
-7.74279
-7.70484
-7.66191
-7.61384
-7.56047
-7.50165
-7.43724
-7.36709
-7.29108
-7.20908
-7.12096
-7.02662
-6.92595
-6.81886
-6.70527
-6.58511
-6.45832
-6.32486
-6.1847
-6.03781
-5.88416
-5.72377
-5.55664
-5.38281
-5.20232
-5.01523
-4.82161
-4.62157
-4.41521
-4.20265
-3.98404
-3.75952
-3.52926
-3.29345
-3.05228
-2.80596
-2.55472
-2.29879
-2.03841
-1.77385
-1.50536
-1.23323
-0.957731
-0.679162
-0.397816
-0.113997
0.171987
0.459826
0.749208
1.03982
1.33134
1.62347
1.91589
2.2083
2.50038
2.79184
3.08238
3.37173
3.65959
3.94571
4.22981
4.51165
4.79099
5.06759
5.34123
5.61171
5.87883
6.1424
6.40226
6.65824
6.91019
7.15798
7.40149
7.6406
7.87521
8.10522
8.33055
8.55113
8.76687
8.97771
9.18356
9.38435
9.58004
9.77065
9.95615
10.1365
10.3117
10.4818
10.6468
10.8069
10.9621
11.1129
11.2599
11.4014
11.5475
11.6511
-6.69443
-6.69792
-6.70249
-6.70653
-6.70958
-6.71193
-6.7139
-6.7157
-6.71746
-6.71931
-6.72132
-6.72358
-6.72613
-6.72903
-6.73231
-6.73601
-6.74016
-6.74481
-6.74999
-6.75574
-6.76209
-6.76908
-6.77674
-6.78512
-6.79426
-6.80417
-6.8149
-6.82648
-6.83894
-6.85228
-6.86655
-6.88174
-6.89787
-6.91496
-6.93299
-6.95199
-6.97197
-6.9929
-7.01477
-7.03754
-7.06115
-7.08555
-7.11068
-7.13652
-7.16304
-7.19018
-7.21791
-7.24616
-7.27487
-7.304
-7.33347
-7.36322
-7.39319
-7.4233
-7.45346
-7.48361
-7.51364
-7.54346
-7.57296
-7.60204
-7.63057
-7.65844
-7.68551
-7.71164
-7.7367
-7.76054
-7.78299
-7.80391
-7.82312
-7.84045
-7.85573
-7.86879
-7.87943
-7.88747
-7.89274
-7.89503
-7.89416
-7.88994
-7.88218
-7.87069
-7.85529
-7.83578
-7.812
-7.78375
-7.75087
-7.71318
-7.67052
-7.62273
-7.56966
-7.51114
-7.44704
-7.37723
-7.30156
-7.21991
-7.13216
-7.0382
-6.93792
-6.83124
-6.71808
-6.59834
-6.47199
-6.33895
-6.19921
-6.05273
-5.89951
-5.73953
-5.57281
-5.39939
-5.21932
-5.03264
-4.83945
-4.63982
-4.43388
-4.22173
-4.00353
-3.77943
-3.54958
-3.31418
-3.07342
-2.82751
-2.57667
-2.32113
-2.06114
-1.79695
-1.52884
-1.25707
-0.981935
-0.703714
-0.422705
-0.139213
0.146457
0.433994
0.723085
1.01342
1.30468
1.59656
1.88875
2.18093
2.47281
2.76409
3.05446
3.34366
3.63139
3.91739
4.20139
4.48315
4.76242
5.03897
5.31258
5.58304
5.85016
6.11375
6.37364
6.62968
6.8817
7.12958
7.37318
7.6124
7.84713
8.07727
8.30274
8.52346
8.73934
8.95032
9.1563
9.35723
9.55307
9.74382
9.92946
10.11
10.2853
10.4555
10.6207
10.7807
10.9359
11.0863
11.2325
11.372
11.5153
11.6098
-6.69213
-6.69604
-6.70123
-6.70589
-6.70949
-6.71235
-6.71478
-6.717
-6.71916
-6.72137
-6.72375
-6.72634
-6.72923
-6.73245
-6.73605
-6.74008
-6.74456
-6.74954
-6.75505
-6.76113
-6.76782
-6.77515
-6.78315
-6.79188
-6.80135
-6.8116
-6.82266
-6.83455
-6.84731
-6.86095
-6.87548
-6.89092
-6.90728
-6.92455
-6.94274
-6.96185
-6.98187
-7.00279
-7.02459
-7.04724
-7.0707
-7.09494
-7.11992
-7.14559
-7.17193
-7.19889
-7.22643
-7.2545
-7.28305
-7.31202
-7.34136
-7.371
-7.40087
-7.4309
-7.46101
-7.49112
-7.52113
-7.55095
-7.58047
-7.60958
-7.63816
-7.66609
-7.69323
-7.71946
-7.74461
-7.76856
-7.79112
-7.81216
-7.8315
-7.84896
-7.86438
-7.87757
-7.88835
-7.89653
-7.90193
-7.90436
-7.90363
-7.89955
-7.89193
-7.88058
-7.86531
-7.84595
-7.8223
-7.79419
-7.76145
-7.72391
-7.6814
-7.63376
-7.58083
-7.52248
-7.45855
-7.38891
-7.31342
-7.23197
-7.14442
-7.05067
-6.95062
-6.84418
-6.73124
-6.61173
-6.4856
-6.35279
-6.21326
-6.067
-5.91398
-5.75421
-5.58771
-5.4145
-5.23463
-5.04817
-4.8552
-4.65579
-4.45007
-4.23816
-4.02019
-3.79631
-3.5667
-3.33154
-3.09102
-2.84535
-2.59474
-2.33945
-2.0797
-1.81576
-1.54789
-1.27636
-1.00146
-0.723474
-0.442698
-0.159434
0.12601
0.413326
0.702202
0.992326
1.28338
1.57507
1.86707
2.15907
2.45078
2.74189
3.03211
3.32116
3.60876
3.89463
4.17852
4.46018
4.73935
5.01582
5.28936
5.55977
5.82685
6.09041
6.35029
6.60632
6.85835
7.10625
7.34989
7.58915
7.82393
8.05413
8.27967
8.50046
8.71642
8.92747
9.13354
9.33456
9.53049
9.72133
9.90706
10.0877
10.2631
10.4334
10.5985
10.7585
10.9134
11.0632
11.2084
11.3459
11.4866
11.5732
-6.69177
-6.69596
-6.70157
-6.70668
-6.71072
-6.71399
-6.71682
-6.71942
-6.72194
-6.7245
-6.7272
-6.73013
-6.73333
-6.73687
-6.74079
-6.74513
-6.74993
-6.75523
-6.76106
-6.76746
-6.77447
-6.78211
-6.79044
-6.79947
-6.80925
-6.8198
-6.83114
-6.84331
-6.85633
-6.8702
-6.88495
-6.90058
-6.91709
-6.9345
-6.95279
-6.97197
-6.99202
-7.01294
-7.0347
-7.05729
-7.08067
-7.10481
-7.12969
-7.15526
-7.1815
-7.20837
-7.23582
-7.26381
-7.29229
-7.32122
-7.35052
-7.38014
-7.41002
-7.44007
-7.47021
-7.50037
-7.53044
-7.56034
-7.58995
-7.61915
-7.64784
-7.67589
-7.70316
-7.72951
-7.7548
-7.77887
-7.80158
-7.82274
-7.84221
-7.8598
-7.87534
-7.88865
-7.89954
-7.90783
-7.91333
-7.91585
-7.9152
-7.9112
-7.90364
-7.89236
-7.87714
-7.85783
-7.83422
-7.80616
-7.77345
-7.73594
-7.69346
-7.64586
-7.59297
-7.53466
-7.47077
-7.40118
-7.32575
-7.24435
-7.15688
-7.0632
-6.96323
-6.85685
-6.74398
-6.62454
-6.49847
-6.36572
-6.22624
-6.08003
-5.92706
-5.76734
-5.60089
-5.42774
-5.24793
-5.06154
-4.86863
-4.6693
-4.46366
-4.25183
-4.03395
-3.81018
-3.58068
-3.34563
-3.10523
-2.85968
-2.60921
-2.35405
-2.09444
-1.83065
-1.56293
-1.29156
-1.01682
-0.738998
-0.458388
-0.175292
0.109983
0.397129
0.685834
0.975786
1.26667
1.55819
1.85002
2.14186
2.4334
2.72435
3.01442
3.30332
3.59077
3.8765
4.16026
4.44178
4.72084
4.9972
5.27064
5.54096
5.80796
6.07145
6.33126
6.58724
6.83923
7.08709
7.33071
7.56996
7.80474
8.03495
8.2605
8.4813
8.69729
8.90837
9.11448
9.31554
9.51153
9.70243
9.8882
10.0688
10.2443
10.4145
10.5796
10.7394
10.894
11.0431
11.1871
11.3226
11.461
11.5407
-6.69346
-6.69777
-6.7036
-6.70899
-6.71333
-6.71692
-6.72006
-6.72297
-6.72578
-6.72864
-6.73163
-6.73483
-6.73831
-6.74212
-6.74631
-6.75092
-6.75599
-6.76156
-6.76766
-6.77433
-6.7816
-6.78951
-6.7981
-6.80738
-6.81741
-6.82819
-6.83976
-6.85213
-6.86533
-6.87938
-6.89428
-6.91004
-6.92667
-6.94417
-6.96254
-6.98176
-7.00184
-7.02277
-7.04452
-7.06708
-7.09043
-7.11454
-7.13938
-7.16493
-7.19115
-7.218
-7.24545
-7.27345
-7.30196
-7.33093
-7.36028
-7.38997
-7.41993
-7.45008
-7.48033
-7.51061
-7.54081
-7.57084
-7.60059
-7.62995
-7.65879
-7.68699
-7.71441
-7.74091
-7.76634
-7.79056
-7.81339
-7.83468
-7.85426
-7.87196
-7.88759
-7.90098
-7.91194
-7.92028
-7.92582
-7.92837
-7.92774
-7.92374
-7.91617
-7.90486
-7.88962
-7.87026
-7.84661
-7.81849
-7.78573
-7.74815
-7.70561
-7.65793
-7.60498
-7.5466
-7.48265
-7.413
-7.33752
-7.25607
-7.16855
-7.07484
-6.97482
-6.86838
-6.75545
-6.63594
-6.50979
-6.37697
-6.23742
-6.09113
-5.93809
-5.7783
-5.61179
-5.43857
-5.25872
-5.07228
-4.87933
-4.67997
-4.47432
-4.26248
-4.04461
-3.82085
-3.59137
-3.35636
-3.116
-2.8705
-2.6201
-2.36501
-2.10549
-1.84179
-1.57417
-1.30291
-1.02829
-0.750593
-0.470116
-0.18716
0.0979693
0.384964
0.673513
0.963307
1.25403
1.54538
1.83703
2.1287
2.42007
2.71085
3.00074
3.28947
3.57675
3.86231
4.14591
4.42728
4.70619
4.9824
5.2557
5.52589
5.79276
6.05613
6.31583
6.57171
6.82361
7.07139
7.31494
7.55413
7.78886
8.01903
8.24455
8.46533
8.6813
8.89237
9.09848
9.29956
9.49557
9.68648
9.87227
10.0529
10.2283
10.3985
10.5634
10.723
10.8771
11.0254
11.1682
11.3017
11.4379
11.5119
-6.6971
-6.70141
-6.70729
-6.71278
-6.7173
-6.72109
-6.72445
-6.72757
-6.73061
-6.73368
-6.73688
-6.74029
-6.74397
-6.74798
-6.75237
-6.75717
-6.76243
-6.76819
-6.77449
-6.78135
-6.78881
-6.7969
-6.80567
-6.81513
-6.82531
-6.83625
-6.84797
-6.86048
-6.87381
-6.88797
-6.90296
-6.91881
-6.93551
-6.95307
-6.97148
-6.99075
-7.01086
-7.0318
-7.05357
-7.07615
-7.09951
-7.12365
-7.14852
-7.1741
-7.20037
-7.22728
-7.25481
-7.2829
-7.31151
-7.34058
-7.37006
-7.39989
-7.42999
-7.46029
-7.49071
-7.52115
-7.55153
-7.58173
-7.61166
-7.64118
-7.67019
-7.69855
-7.72612
-7.75276
-7.77832
-7.80265
-7.82558
-7.84696
-7.86661
-7.88436
-7.90003
-7.91344
-7.92439
-7.93272
-7.93823
-7.94073
-7.94003
-7.93594
-7.92828
-7.91686
-7.9015
-7.88201
-7.85822
-7.82996
-7.79704
-7.75931
-7.71661
-7.66878
-7.61567
-7.55714
-7.49304
-7.42324
-7.34762
-7.26605
-7.17839
-7.08453
-6.98435
-6.87775
-6.76465
-6.64497
-6.51865
-6.38566
-6.24594
-6.09949
-5.94629
-5.78635
-5.61969
-5.44635
-5.26636
-5.07981
-4.88676
-4.68732
-4.48159
-4.26969
-4.05177
-3.82797
-3.59848
-3.36345
-3.1231
-2.87763
-2.62726
-2.37223
-2.11277
-1.84914
-1.58161
-1.31045
-1.03594
-0.758363
-0.478022
-0.195213
0.0897602
0.376591
0.66497
0.954587
1.24513
1.53628
1.82775
2.11921
2.41038
2.70096
2.99065
3.27916
3.56624
3.8516
4.13499
4.41616
4.69487
4.97089
5.24401
5.51401
5.78071
6.04392
6.30347
6.5592
6.81096
7.05862
7.30205
7.54114
7.77577
8.00586
8.2313
8.45202
8.66794
8.87897
9.08505
9.28611
9.48212
9.67302
9.8588
10.0394
10.2148
10.3848
10.5495
10.7088
10.8624
11.0099
11.1514
11.283
11.4172
11.4863
-6.70251
-6.70672
-6.71249
-6.71795
-6.72251
-6.72639
-6.72986
-6.7331
-6.73626
-6.73945
-6.74276
-6.74628
-6.75007
-6.75419
-6.75867
-6.76358
-6.76894
-6.7748
-6.78118
-6.78814
-6.7957
-6.80389
-6.81274
-6.82229
-6.83256
-6.84358
-6.85536
-6.86794
-6.88133
-6.89554
-6.91059
-6.92648
-6.94322
-6.96082
-6.97927
-6.99857
-7.01871
-7.0397
-7.06151
-7.08413
-7.10756
-7.13175
-7.1567
-7.18238
-7.20875
-7.23578
-7.26344
-7.29167
-7.32043
-7.34967
-7.37932
-7.40932
-7.43961
-7.47009
-7.50069
-7.53132
-7.56187
-7.59225
-7.62233
-7.65201
-7.68116
-7.70964
-7.73732
-7.76405
-7.78969
-7.81407
-7.83704
-7.85843
-7.87808
-7.8958
-7.91142
-7.92475
-7.93562
-7.94384
-7.94921
-7.95156
-7.9507
-7.94644
-7.93859
-7.92697
-7.9114
-7.89169
-7.86767
-7.83918
-7.80603
-7.76807
-7.72514
-7.67708
-7.62374
-7.56499
-7.50068
-7.43068
-7.35486
-7.27308
-7.18521
-7.09111
-6.99069
-6.88384
-6.7705
-6.65057
-6.52402
-6.39079
-6.25085
-6.10418
-5.95078
-5.79064
-5.62379
-5.45028
-5.27014
-5.08344
-4.89027
-4.69071
-4.48488
-4.27291
-4.05493
-3.83109
-3.60157
-3.36654
-3.1262
-2.88076
-2.63044
-2.37547
-2.11609
-1.85256
-1.58513
-1.31409
-1.03972
-0.762295
-0.482119
-0.199487
0.0852985
0.371932
0.660104
0.949504
1.23982
1.53074
1.82197
2.11319
2.4041
2.69443
2.98386
3.27212
3.55894
3.84404
4.12718
4.40809
4.68655
4.96233
5.2352
5.50498
5.77145
6.03444
6.29378
6.54932
6.8009
7.04838
7.29165
7.53059
7.76509
7.99505
8.22039
8.44101
8.65684
8.86781
9.07383
9.27485
9.47082
9.6617
9.84743
10.028
10.2032
10.3732
10.5376
10.6965
10.8495
10.9961
11.1364
11.2662
11.3986
11.4636
-6.70947
-6.7135
-6.71904
-6.72435
-6.72884
-6.73268
-6.73614
-6.73938
-6.74254
-6.74573
-6.74905
-6.75256
-6.75635
-6.76045
-6.76493
-6.76983
-6.77518
-6.78103
-6.78741
-6.79436
-6.80192
-6.81011
-6.81896
-6.82851
-6.83878
-6.84981
-6.8616
-6.87418
-6.88758
-6.90179
-6.91685
-6.93275
-6.94951
-6.96712
-6.9856
-7.00493
-7.02512
-7.04615
-7.06803
-7.09073
-7.11423
-7.13853
-7.16359
-7.18939
-7.2159
-7.24308
-7.27089
-7.29929
-7.32822
-7.35763
-7.38746
-7.41764
-7.4481
-7.47875
-7.5095
-7.54028
-7.57096
-7.60146
-7.63165
-7.66141
-7.69062
-7.71914
-7.74684
-7.77357
-7.79918
-7.82351
-7.84641
-7.86771
-7.88723
-7.90481
-7.92026
-7.93341
-7.94407
-7.95207
-7.9572
-7.9593
-7.95817
-7.95363
-7.9455
-7.93359
-7.91772
-7.89771
-7.87339
-7.8446
-7.81116
-7.77291
-7.72969
-7.68135
-7.62775
-7.56874
-7.50418
-7.43394
-7.35788
-7.27583
-7.18767
-7.09328
-6.99256
-6.88543
-6.77179
-6.65159
-6.52477
-6.39128
-6.2511
-6.10419
-5.95057
-5.79024
-5.62321
-5.44952
-5.26924
-5.08241
-4.88913
-4.68948
-4.48358
-4.27156
-4.05354
-3.82969
-3.60018
-3.36518
-3.12489
-2.87952
-2.62929
-2.37443
-2.11517
-1.85178
-1.58452
-1.31365
-1.03947
-0.762252
-0.482298
-0.199902
0.084635
0.371007
0.658907
0.948025
1.23805
1.52867
1.81959
2.1105
2.4011
2.6911
2.98021
3.26815
3.55464
3.83942
4.12223
4.40283
4.68098
4.95645
5.22902
5.4985
5.76469
6.02741
6.2865
6.54178
6.79313
7.04039
7.28346
7.5222
7.75653
7.98633
8.21152
8.43202
8.64774
8.85861
9.06455
9.26551
9.46143
9.65226
9.83793
10.0184
10.1936
10.3633
10.5275
10.6859
10.8383
10.9841
11.1231
11.2512
11.3818
11.4435
-6.71773
-6.72154
-6.72679
-6.73184
-6.73613
-6.73982
-6.74313
-6.74624
-6.74926
-6.75232
-6.7555
-6.75888
-6.76253
-6.7665
-6.77085
-6.77562
-6.78085
-6.78658
-6.79286
-6.7997
-6.80716
-6.81526
-6.82403
-6.8335
-6.84371
-6.85466
-6.8664
-6.87893
-6.89228
-6.90646
-6.92149
-6.93737
-6.95412
-6.97174
-6.99022
-7.00958
-7.02981
-7.0509
-7.07283
-7.09561
-7.11921
-7.14361
-7.16878
-7.1947
-7.22134
-7.24866
-7.2766
-7.30514
-7.3342
-7.36375
-7.3937
-7.42399
-7.45454
-7.48527
-7.5161
-7.54691
-7.57763
-7.60812
-7.63829
-7.668
-7.69714
-7.72556
-7.75313
-7.77971
-7.80515
-7.82928
-7.85196
-7.87301
-7.89227
-7.90956
-7.92471
-7.93755
-7.94788
-7.95553
-7.96032
-7.96205
-7.96056
-7.95565
-7.94715
-7.93487
-7.91864
-7.89828
-7.87362
-7.84449
-7.81072
-7.77216
-7.72864
-7.68002
-7.62615
-7.56688
-7.50208
-7.43159
-7.35524
-7.27287
-7.18439
-7.08969
-6.98867
-6.88124
-6.76732
-6.64685
-6.51977
-6.38604
-6.24563
-6.09852
-5.94472
-5.78421
-5.61704
-5.44323
-5.26284
-5.07594
-4.88259
-4.68291
-4.477
-4.26498
-4.047
-3.8232
-3.59377
-3.35887
-3.1187
-2.87348
-2.62341
-2.36873
-2.10968
-1.84652
-1.5795
-1.30889
-1.03499
-0.758065
-0.478419
-0.196346
0.087855
0.373879
0.661419
0.950166
1.23981
1.53005
1.82058
2.11109
2.40128
2.69088
2.97958
3.26711
3.5532
3.83758
4.12
4.4002
4.67797
4.95306
5.22527
5.49439
5.76024
6.02262
6.28139
6.53637
6.78743
7.03443
7.27724
7.51576
7.74987
7.97948
8.20449
8.42483
8.64042
8.85117
9.05702
9.2579
9.45375
9.64451
9.83011
10.0105
10.1855
10.3551
10.519
10.677
10.8287
10.9735
11.1114
11.2379
11.3667
11.4259
-6.72714
-6.73071
-6.73562
-6.74034
-6.74432
-6.7477
-6.75071
-6.75352
-6.75624
-6.75899
-6.76187
-6.76497
-6.76833
-6.77204
-6.77613
-6.78065
-6.78565
-6.79116
-6.79722
-6.80387
-6.81114
-6.81907
-6.82768
-6.837
-6.84706
-6.85789
-6.86951
-6.88194
-6.89519
-6.90929
-6.92425
-6.94008
-6.95678
-6.97437
-6.99284
-7.01219
-7.03243
-7.05353
-7.0755
-7.09831
-7.12196
-7.14641
-7.17164
-7.19761
-7.2243
-7.25166
-7.27965
-7.30821
-7.33729
-7.36683
-7.39676
-7.42701
-7.4575
-7.48814
-7.51885
-7.54953
-7.58008
-7.61038
-7.64033
-7.66981
-7.69868
-7.72681
-7.75407
-7.78032
-7.8054
-7.82917
-7.85146
-7.87211
-7.89096
-7.90784
-7.92256
-7.93496
-7.94486
-7.95207
-7.95642
-7.95772
-7.9558
-7.95047
-7.94155
-7.92887
-7.91226
-7.89153
-7.86652
-7.83705
-7.80298
-7.76412
-7.72034
-7.67147
-7.61737
-7.55788
-7.49284
-7.42205
-7.34537
-7.2627
-7.17392
-7.07893
-6.97763
-6.86994
-6.75579
-6.6351
-6.50782
-6.37391
-6.23334
-6.0861
-5.93218
-5.77159
-5.60436
-5.43051
-5.2501
-5.06321
-4.8699
-4.67028
-4.46445
-4.25255
-4.0347
-3.81107
-3.58181
-3.34712
-3.10719
-2.86222
-2.61243
-2.35805
-2.09932
-1.83649
-1.56983
-1.2996
-1.02608
-0.749568
-0.470343
-0.188705
0.0950482
0.380612
0.667682
0.955951
1.24511
1.53486
1.82488
2.11489
2.40459
2.69368
2.98188
3.26892
3.55451
3.8384
4.12033
4.40006
4.67736
4.95199
5.22376
5.49246
5.75789
6.01989
6.27827
6.5329
6.78362
7.0303
7.27281
7.51106
7.74492
7.9743
8.19911
8.41927
8.6347
8.84532
9.05105
9.25184
9.44762
9.63831
9.82383
10.0041
10.179
10.3483
10.5119
10.6695
10.8206
10.9645
11.1012
11.2262
11.3532
11.4106
-6.738
-6.74136
-6.74592
-6.75021
-6.75373
-6.75661
-6.7591
-6.76137
-6.76357
-6.7658
-6.76819
-6.7708
-6.77372
-6.77699
-6.78068
-6.78482
-6.78946
-6.79464
-6.80039
-6.80674
-6.81373
-6.82139
-6.82974
-6.83883
-6.84867
-6.85928
-6.8707
-6.88294
-6.89602
-6.90996
-6.92476
-6.94045
-6.95702
-6.97449
-6.99285
-7.01209
-7.03222
-7.05323
-7.07509
-7.09781
-7.12134
-7.14568
-7.17079
-7.19664
-7.22318
-7.25039
-7.2782
-7.30656
-7.33543
-7.36473
-7.3944
-7.42436
-7.45454
-7.48484
-7.51519
-7.54548
-7.57562
-7.60549
-7.63499
-7.66399
-7.69237
-7.72
-7.74675
-7.77247
-7.79702
-7.82025
-7.842
-7.86211
-7.88041
-7.89675
-7.91094
-7.92281
-7.93219
-7.9389
-7.94276
-7.94359
-7.94121
-7.93544
-7.92611
-7.91305
-7.89607
-7.87501
-7.84969
-7.81995
-7.78563
-7.74656
-7.7026
-7.65357
-7.59931
-7.5396
-7.47429
-7.40321
-7.32627
-7.24335
-7.15434
-7.05914
-6.95766
-6.84981
-6.73551
-6.6147
-6.48733
-6.35336
-6.21275
-6.06549
-5.91158
-5.75103
-5.58386
-5.41011
-5.22983
-5.04308
-4.84995
-4.65053
-4.44493
-4.23328
-4.01572
-3.7924
-3.56348
-3.32915
-3.0896
-2.84504
-2.59568
-2.34175
-2.08349
-1.82115
-1.555
-1.2853
-1.01233
-0.736373
-0.45772
-0.176665
0.106493
0.391453
0.67791