/*--------------------------------*- C++ -*----------------------------------*\
  =========                 |
  \\      /  F ield         | OpenFOAM: The Open Source CFD Toolbox
   \\    /   O peration     | Website:  https://openfoam.org
    \\  /    A nd           | Version:  12
     \\/     M anipulation  |
\*---------------------------------------------------------------------------*/
FoamFile
{
    format      ascii;
    class       surfaceScalarField;
    location    "0.29";
    object      phi;
}
// * * * * * * * * * * * * * * * * * * * * * * * * * * * * * * * * * * * * * //

dimensions      [0 3 -1 0 0 0 0];

internalField   nonuniform List<scalar> 
24170
(
3.1336e-06
5.48061e-08
3.04827e-06
8.5326e-08
2.97315e-06
7.5123e-08
2.90432e-06
6.88352e-08
2.83949e-06
6.4828e-08
2.78227e-06
5.72202e-08
2.73337e-06
4.8898e-08
2.69185e-06
4.15223e-08
2.65641e-06
3.54369e-08
2.62589e-06
3.0519e-08
2.59932e-06
2.65693e-08
2.5759e-06
2.34237e-08
2.55494e-06
2.09629e-08
2.53576e-06
1.91732e-08
2.51774e-06
1.80227e-08
2.4991e-06
1.86388e-08
2.47859e-06
2.05121e-08
3.76217e-08
2.44097e-06
3.45361e-06
1.84442e-08
3.45616e-06
8.27724e-08
3.44962e-06
8.16671e-08
3.438e-06
8.04558e-08
3.42351e-06
7.93153e-08
3.40597e-06
7.47596e-08
3.38635e-06
6.85259e-08
3.36544e-06
6.2424e-08
3.34404e-06
5.68415e-08
3.32274e-06
5.18204e-08
3.30194e-06
4.73686e-08
3.28187e-06
4.34956e-08
3.26263e-06
4.01941e-08
3.24423e-06
3.75735e-08
3.22671e-06
3.55464e-08
3.20991e-06
3.54439e-08
3.19472e-06
3.57007e-08
4.58281e-08
3.18651e-06
3.66535e-06
1.56073e-08
3.67825e-06
6.98727e-08
3.68532e-06
7.46053e-08
3.6896e-06
7.61728e-08
3.69127e-06
7.76405e-08
3.69014e-06
7.58902e-08
3.68669e-06
7.19758e-08
3.6815e-06
6.76176e-08
3.67499e-06
6.33522e-08
3.66751e-06
5.92986e-08
3.65935e-06
5.55329e-08
3.65071e-06
5.21335e-08
3.64175e-06
4.9155e-08
3.63257e-06
4.6746e-08
3.62319e-06
4.49305e-08
3.61403e-06
4.46084e-08
3.60475e-06
4.49786e-08
4.95495e-08
3.60103e-06
3.92465e-06
1.63465e-08
3.9358e-06
5.87204e-08
3.94255e-06
6.78605e-08
3.94802e-06
7.06954e-08
3.95244e-06
7.32272e-08
3.95536e-06
7.29682e-08
3.95691e-06
7.04209e-08
3.9574e-06
6.71328e-08
3.957e-06
6.3749e-08
3.95587e-06
6.04287e-08
3.95414e-06
5.72656e-08
3.95191e-06
5.43601e-08
3.94927e-06
5.17949e-08
3.94631e-06
4.97125e-08
3.94305e-06
4.81899e-08
3.93993e-06
4.77271e-08
3.93695e-06
4.79521e-08
4.98096e-08
3.93669e-06
4.20777e-06
1.57059e-08
4.216e-06
5.04878e-08
4.22167e-06
6.21953e-08
4.2266e-06
6.57616e-08
4.2313e-06
6.85262e-08
4.23526e-06
6.9009e-08
4.23836e-06
6.73226e-08
4.24073e-06
6.47599e-08
4.24249e-06
6.19912e-08
4.24372e-06
5.92006e-08
4.24449e-06
5.6489e-08
4.24489e-06
5.39652e-08
4.24496e-06
5.17231e-08
4.24479e-06
4.98841e-08
4.24445e-06
4.85258e-08
4.24429e-06
4.78915e-08
4.24448e-06
4.77603e-08
4.81697e-08
4.24612e-06
4.51044e-06
1.43529e-08
4.51686e-06
4.40643e-08
4.52218e-06
5.68825e-08
4.52684e-06
6.11001e-08
4.53145e-06
6.39106e-08
4.53565e-06
6.48152e-08
4.53923e-06
6.37354e-08
4.54228e-06
6.17122e-08
4.54487e-06
5.94021e-08
4.54706e-06
5.70126e-08
4.5489e-06
5.46503e-08
4.55044e-06
5.24246e-08
4.55173e-06
5.04287e-08
4.55286e-06
4.87581e-08
4.55392e-06
4.74684e-08
4.55516e-06
4.66518e-08
4.55679e-06
4.613e-08
4.56669e-08
4.55929e-06
4.83412e-06
1.29516e-08
4.83958e-06
3.86041e-08
4.84483e-06
5.16291e-08
4.84943e-06
5.65077e-08
4.85394e-06
5.93983e-08
4.85817e-06
6.05834e-08
4.86194e-06
5.99668e-08
4.86528e-06
5.83737e-08
4.86825e-06
5.64278e-08
4.87091e-06
5.43583e-08
4.87328e-06
5.22773e-08
4.87541e-06
5.02896e-08
4.87736e-06
4.84815e-08
4.8792e-06
4.69233e-08
4.88102e-06
4.56448e-08
4.88302e-06
4.46542e-08
4.88536e-06
4.3792e-08
4.27938e-08
4.88823e-06
5.1809e-06
1.16314e-08
5.18571e-06
3.37983e-08
5.19084e-06
4.64932e-08
5.19542e-06
5.19266e-08
5.19989e-06
5.49321e-08
5.20415e-06
5.63203e-08
5.20804e-06
5.60798e-08
5.21156e-06
5.48548e-08
5.21477e-06
5.32196e-08
5.2177e-06
5.14208e-08
5.22041e-06
4.9576e-08
5.22291e-06
4.77837e-08
5.22527e-06
4.61206e-08
5.22756e-06
4.46368e-08
5.22986e-06
4.33406e-08
5.23232e-06
4.22e-08
5.23503e-06
4.10766e-08
3.97574e-08
5.23807e-06
5.5526e-06
1.03678e-08
5.55685e-06
2.95474e-08
5.56177e-06
4.1574e-08
5.56634e-06
4.73573e-08
5.5708e-06
5.04727e-08
5.57511e-06
5.20094e-08
5.57911e-06
5.20797e-08
5.58278e-06
5.11815e-08
5.58618e-06
4.98248e-08
5.58933e-06
4.82658e-08
5.59228e-06
4.66276e-08
5.59506e-06
4.50017e-08
5.59773e-06
4.34554e-08
5.60034e-06
4.20241e-08
5.60298e-06
4.07033e-08
5.60573e-06
3.94475e-08
5.60866e-06
3.81445e-08
3.66467e-08
5.61177e-06
5.95099e-06
9.15756e-09
5.95476e-06
2.57743e-08
5.95942e-06
3.69168e-08
5.96395e-06
4.28207e-08
5.96841e-06
4.60129e-08
5.97277e-06
4.76522e-08
5.97688e-06
4.79715e-08
5.9807e-06
4.73604e-08
5.98427e-06
4.62565e-08
5.98762e-06
4.49148e-08
5.99078e-06
4.34622e-08
5.9938e-06
4.19839e-08
5.99672e-06
4.05383e-08
5.99959e-06
3.9152e-08
6.00248e-06
3.78155e-08
6.00544e-06
3.64852e-08
6.00851e-06
3.50769e-08
3.35e-08
6.01166e-06
6.37796e-06
8.01418e-09
6.38133e-06
2.24017e-08
6.38571e-06
3.25305e-08
6.39019e-06
3.83418e-08
6.39465e-06
4.15583e-08
6.39904e-06
4.32587e-08
6.40325e-06
4.37653e-08
6.40721e-06
4.33972e-08
6.41095e-06
4.25198e-08
6.41449e-06
4.13755e-08
6.41786e-06
4.00922e-08
6.42109e-06
3.87488e-08
6.42423e-06
3.73971e-08
6.42733e-06
3.60589e-08
6.43042e-06
3.47258e-08
6.43354e-06
3.33636e-08
6.4367e-06
3.19141e-08
3.033e-08
6.43987e-06
5.74175e-06
7.09933e-09
5.74433e-06
1.98164e-08
5.74784e-06
2.90299e-08
5.75156e-06
3.4615e-08
5.75532e-06
3.78014e-08
5.75905e-06
3.95249e-08
5.76267e-06
4.0144e-08
5.76613e-06
3.99437e-08
5.76941e-06
3.92358e-08
5.77254e-06
3.82438e-08
5.77554e-06
3.70925e-08
5.77843e-06
3.58568e-08
5.78125e-06
3.45838e-08
5.78401e-06
3.32941e-08
5.78676e-06
3.19825e-08
5.78949e-06
3.0625e-08
5.79223e-06
2.91817e-08
2.76336e-08
5.79492e-06
6.99913e-06
6.12167e-09
7.00187e-06
1.7082e-08
7.00566e-06
2.5242e-08
7.00982e-06
3.04481e-08
7.0141e-06
3.35212e-08
7.0184e-06
3.52256e-08
7.02262e-06
3.59271e-08
7.02668e-06
3.58784e-08
7.03058e-06
3.53373e-08
7.03432e-06
3.45017e-08
7.03793e-06
3.34901e-08
7.04141e-06
3.23727e-08
7.0448e-06
3.11925e-08
7.04813e-06
2.99701e-08
7.0514e-06
2.87057e-08
7.05464e-06
2.73868e-08
7.05783e-06
2.59907e-08
2.45197e-08
7.06095e-06
8.53188e-06
5.09041e-09
8.53474e-06
1.4225e-08
8.53878e-06
2.11939e-08
8.54338e-06
2.58472e-08
8.54821e-06
2.8695e-08
8.55312e-06
3.03175e-08
8.55799e-06
3.10539e-08
8.56274e-06
3.11253e-08
8.56734e-06
3.07375e-08
8.57179e-06
3.00568e-08
8.57609e-06
2.91907e-08
8.58026e-06
2.82037e-08
8.58432e-06
2.71354e-08
8.58828e-06
2.6007e-08
8.59216e-06
2.48251e-08
8.59596e-06
2.35878e-08
8.59966e-06
2.22864e-08
2.09374e-08
8.60324e-06
1.04003e-05
4.01611e-09
1.04033e-05
1.1263e-08
1.04075e-05
1.69041e-08
1.04126e-05
2.08185e-08
1.0418e-05
2.33012e-08
1.04235e-05
2.4755e-08
1.04291e-05
2.54611e-08
1.04346e-05
2.56052e-08
1.044e-05
2.53448e-08
1.04453e-05
2.48109e-08
1.04504e-05
2.40945e-08
1.04553e-05
2.32525e-08
1.04601e-05
2.23209e-08
1.04648e-05
2.13213e-08
1.04694e-05
2.02654e-08
1.04738e-05
1.91593e-08
1.04781e-05
1.80042e-08
1.68241e-08
1.04822e-05
1.26779e-05
2.90441e-09
1.2681e-05
8.18779e-09
1.26855e-05
1.23644e-08
1.2691e-05
1.5351e-08
1.2697e-05
1.73054e-08
1.27033e-05
1.84783e-08
1.27096e-05
1.90725e-08
1.2716e-05
1.92285e-08
1.27223e-05
1.90591e-08
1.27285e-05
1.86581e-08
1.27345e-05
1.80949e-08
1.27403e-05
1.74159e-08
1.2746e-05
1.66514e-08
1.27515e-05
1.5822e-08
1.27568e-05
1.49414e-08
1.27619e-05
1.40201e-08
1.27669e-05
1.30642e-08
1.21001e-08
1.27716e-05
1.54543e-05
1.74426e-09
1.54576e-05
4.94852e-09
1.54624e-05
7.50762e-09
1.54684e-05
9.37473e-09
1.54751e-05
1.06241e-08
1.54822e-05
1.13854e-08
1.54895e-05
1.1774e-08
1.54968e-05
1.18749e-08
1.55041e-05
1.17554e-08
1.55113e-05
1.14721e-08
1.55184e-05
1.10683e-08
1.55252e-05
1.05751e-08
1.55318e-05
1.0014e-08
1.55383e-05
9.40121e-09
1.55444e-05
8.74887e-09
1.55504e-05
8.06759e-09
1.55561e-05
7.36432e-09
6.66319e-09
1.55615e-05
1.88389e-05
4.94309e-10
1.88424e-05
1.4144e-09
1.88478e-05
2.14824e-09
1.88545e-05
2.685e-09
1.8862e-05
3.04633e-09
1.88702e-05
3.26156e-09
1.88786e-05
3.35318e-09
1.88871e-05
3.33989e-09
1.88956e-05
3.23993e-09
1.8904e-05
3.06967e-09
1.89123e-05
2.84225e-09
1.89203e-05
2.56807e-09
1.8928e-05
2.25578e-09
1.89355e-05
1.91295e-09
1.89427e-05
1.5464e-09
1.89496e-05
1.16299e-09
1.89562e-05
7.67329e-10
3.78445e-10
1.89625e-05
2.29648e-05
-9.52276e-10
2.29689e-05
-2.71569e-09
2.29752e-05
-4.15035e-09
2.29831e-05
-5.21369e-09
2.29921e-05
-5.92257e-09
2.30017e-05
-6.36374e-09
2.30117e-05
-6.63052e-09
2.30218e-05
-6.78159e-09
2.30319e-05
-6.85369e-09
2.30419e-05
-6.87797e-09
2.30516e-05
-6.87956e-09
2.3061e-05
-6.87444e-09
2.30701e-05
-6.87127e-09
2.30789e-05
-6.87451e-09
2.30874e-05
-6.88607e-09
2.30954e-05
-6.90556e-09
2.31031e-05
-6.93278e-09
-6.95558e-09
2.31105e-05
1.68118e-05
-2.09682e-09
1.68151e-05
-5.94799e-09
1.682e-05
-9.07453e-09
1.68261e-05
-1.13325e-08
1.6833e-05
-1.27706e-08
1.68402e-05
-1.36232e-08
1.68477e-05
-1.40942e-08
1.68552e-05
-1.42918e-08
1.68626e-05
-1.42909e-08
1.68699e-05
-1.41621e-08
1.6877e-05
-1.39601e-08
1.68839e-05
-1.37191e-08
1.68904e-05
-1.34596e-08
1.68968e-05
-1.31948e-08
1.69028e-05
-1.29327e-08
1.69086e-05
-1.26774e-08
1.69141e-05
-1.24311e-08
-1.2186e-08
1.69193e-05
1.46357e-05
-3.20479e-09
1.46388e-05
-9.10475e-09
1.46437e-05
-1.38945e-08
1.46495e-05
-1.72087e-08
1.4656e-05
-1.91936e-08
1.46627e-05
-2.0324e-08
1.46695e-05
-2.0902e-08
1.46762e-05
-2.1062e-08
1.46829e-05
-2.09237e-08
1.46893e-05
-2.06034e-08
1.46955e-05
-2.01801e-08
1.47015e-05
-1.96992e-08
1.47072e-05
-1.91895e-08
1.47127e-05
-1.8671e-08
1.47179e-05
-1.81564e-08
1.47229e-05
-1.76524e-08
1.47276e-05
-1.71629e-08
-1.66827e-08
1.47321e-05
1.27412e-05
-4.25217e-09
1.27444e-05
-1.23127e-08
1.27493e-05
-1.88479e-08
1.27551e-05
-2.2997e-08
1.27612e-05
-2.52999e-08
1.27675e-05
-2.66017e-08
1.27738e-05
-2.72064e-08
1.278e-05
-2.72409e-08
1.2786e-05
-2.68969e-08
1.27917e-05
-2.63455e-08
1.27972e-05
-2.56818e-08
1.28025e-05
-2.49552e-08
1.28075e-05
-2.42e-08
1.28122e-05
-2.34409e-08
1.28168e-05
-2.26928e-08
1.28211e-05
-2.19631e-08
1.28252e-05
-2.1256e-08
-2.05674e-08
1.28291e-05
1.10918e-05
-5.12853e-09
1.10951e-05
-1.56321e-08
1.11004e-05
-2.4139e-08
1.11062e-05
-2.87725e-08
1.1112e-05
-3.11332e-08
1.11179e-05
-3.25109e-08
1.11238e-05
-3.30537e-08
1.11294e-05
-3.28806e-08
1.11348e-05
-3.22833e-08
1.11399e-05
-3.14782e-08
1.11448e-05
-3.05625e-08
1.11495e-05
-2.95874e-08
1.11538e-05
-2.85924e-08
1.1158e-05
-2.76051e-08
1.1162e-05
-2.66404e-08
1.11657e-05
-2.57051e-08
1.11692e-05
-2.48025e-08
-2.3929e-08
1.11726e-05
9.65583e-06
-5.74171e-09
9.65935e-06
-1.91535e-08
9.66495e-06
-2.97356e-08
9.67062e-06
-3.44494e-08
9.67625e-06
-3.67641e-08
9.68188e-06
-3.81367e-08
9.6873e-06
-3.84763e-08
9.69242e-06
-3.80024e-08
9.69726e-06
-3.71222e-08
9.70184e-06
-3.60583e-08
9.70617e-06
-3.48905e-08
9.71025e-06
-3.367e-08
9.7141e-06
-3.24418e-08
9.71773e-06
-3.12352e-08
9.72116e-06
-3.00643e-08
9.72439e-06
-2.8935e-08
9.72743e-06
-2.78487e-08
-2.68004e-08
9.7303e-06
8.40543e-06
-5.82085e-09
8.4098e-06
-2.35254e-08
8.4153e-06
-3.52342e-08
8.42049e-06
-3.96332e-08
8.42591e-06
-4.2186e-08
8.43137e-06
-4.35982e-08
8.43651e-06
-4.36153e-08
8.44125e-06
-4.27489e-08
8.44567e-06
-4.15353e-08
8.44978e-06
-4.01742e-08
8.45362e-06
-3.87231e-08
8.45718e-06
-3.72339e-08
8.46049e-06
-3.57545e-08
8.46357e-06
-3.43138e-08
8.46643e-06
-3.29255e-08
8.46909e-06
-3.15954e-08
8.47157e-06
-3.03244e-08
-2.91084e-08
8.47388e-06
7.31506e-06
-3.59279e-09
7.32194e-06
-3.04077e-08
7.32738e-06
-4.06796e-08
7.33215e-06
-4.43948e-08
7.33745e-06
-4.74899e-08
7.34281e-06
-4.89627e-08
7.34776e-06
-4.85658e-08
7.35223e-06
-4.72174e-08
7.35626e-06
-4.55645e-08
7.35987e-06
-4.37856e-08
7.36309e-06
-4.19397e-08
7.36595e-06
-4.00901e-08
7.36848e-06
-3.82864e-08
7.37072e-06
-3.65544e-08
7.3727e-06
-3.4906e-08
7.37445e-06
-3.33456e-08
7.376e-06
-3.18703e-08
-3.0474e-08
7.37736e-06
6.36222e-06
4.25357e-09
6.37294e-06
-4.11296e-08
6.38006e-06
-4.78017e-08
6.38624e-06
-5.05687e-08
6.3922e-06
-5.34508e-08
6.39748e-06
-5.42402e-08
6.40182e-06
-5.29129e-08
6.40539e-06
-5.07809e-08
6.40828e-06
-4.8458e-08
6.41055e-06
-4.60565e-08
6.41226e-06
-4.36441e-08
6.41346e-06
-4.12984e-08
6.41425e-06
-3.9068e-08
6.41466e-06
-3.69724e-08
6.41478e-06
-3.50183e-08
6.41464e-06
-3.32068e-08
6.4143e-06
-3.15297e-08
-2.99664e-08
6.41379e-06
5.53608e-06
1.36389e-08
5.54775e-06
-5.28011e-08
5.55743e-06
-5.74841e-08
5.566e-06
-5.91322e-08
5.57276e-06
-6.02104e-08
5.57717e-06
-5.86523e-08
5.5793e-06
-5.50491e-08
5.57973e-06
-5.12033e-08
5.57886e-06
-4.75894e-08
5.57698e-06
-4.41789e-08
5.57432e-06
-4.09794e-08
5.57105e-06
-3.80284e-08
5.56732e-06
-3.53395e-08
5.56325e-06
-3.29044e-08
5.55894e-06
-3.07086e-08
5.55448e-06
-2.87492e-08
5.54997e-06
-2.70171e-08
-2.54514e-08
5.54545e-06
4.85751e-06
-1.62615e-08
4.86091e-06
-5.62012e-08
4.8615e-06
-5.80743e-08
4.85883e-06
-5.64604e-08
4.85481e-06
-5.61985e-08
4.84811e-06
-5.19504e-08
4.83885e-06
-4.57879e-08
4.82759e-06
-3.9943e-08
4.81497e-06
-3.49696e-08
4.80158e-06
-3.07905e-08
4.78787e-06
-2.72698e-08
4.77415e-06
-2.43042e-08
4.76061e-06
-2.18031e-08
4.7474e-06
-1.96872e-08
4.73458e-06
-1.78937e-08
4.72224e-06
-1.64125e-08
4.7105e-06
-1.52703e-08
-1.49599e-08
4.70001e-06
4.18641e-06
4.13021e-06
4.07214e-06
4.01568e-06
3.95948e-06
3.90753e-06
3.86174e-06
3.8218e-06
3.78683e-06
3.75604e-06
3.72877e-06
3.70446e-06
3.68266e-06
3.66297e-06
3.64508e-06
3.62867e-06
3.6134e-06
3.59844e-06
9.09807e-09
-9.09807e-09
1.99069e-08
-1.08088e-08
2.79423e-08
-8.03538e-09
3.19584e-08
-4.01617e-09
3.16215e-08
3.36965e-10
2.74342e-08
4.18724e-09
2.00442e-08
7.39003e-09
1.01667e-08
9.87756e-09
-1.60215e-09
1.17688e-08
-1.48442e-08
1.3242e-08
-2.92973e-08
1.44531e-08
-4.4802e-08
1.55047e-08
-6.1266e-08
1.64639e-08
-7.86351e-08
1.73691e-08
-9.68755e-08
1.82404e-08
-1.15963e-07
1.90874e-08
-1.35877e-07
1.99137e-08
-1.56596e-07
2.07196e-08
-1.781e-07
2.15037e-08
-2.00364e-07
2.22635e-08
-2.2336e-07
2.29964e-08
-2.4706e-07
2.37004e-08
-2.71435e-07
2.43746e-08
-2.96454e-07
2.50186e-08
-3.22082e-07
2.56281e-08
-3.48271e-07
2.61893e-08
-3.74951e-07
2.66796e-08
-4.02035e-07
2.70844e-08
-4.29466e-07
2.74308e-08
-4.57275e-07
2.78094e-08
-4.85628e-07
2.83526e-08
-5.14808e-07
2.91802e-08
-5.45211e-07
3.04027e-08
-5.77479e-07
3.2268e-08
-6.11916e-07
3.44376e-08
-6.4525e-07
3.33335e-08
-6.75504e-07
3.02543e-08
-7.07137e-07
3.16328e-08
-7.42403e-07
3.52663e-08
-7.82616e-07
4.02128e-08
-8.29388e-07
4.67717e-08
-8.73929e-07
4.45411e-08
-9.17594e-07
4.36651e-08
-9.59294e-07
4.16998e-08
-9.97525e-07
3.82319e-08
-1.0388e-06
4.12776e-08
-1.08185e-06
4.30462e-08
-1.12586e-06
4.4012e-08
-1.17046e-06
4.46003e-08
-1.21537e-06
4.49129e-08
-1.26043e-06
4.50518e-08
-1.3055e-06
4.5073e-08
-1.35051e-06
4.50104e-08
-1.3954e-06
4.48858e-08
-1.44011e-06
4.47127e-08
-1.48461e-06
4.44994e-08
-1.52886e-06
4.42514e-08
-1.57283e-06
4.39714e-08
-1.61649e-06
4.36612e-08
-1.65981e-06
4.33212e-08
-1.70276e-06
4.29513e-08
-1.74531e-06
4.25507e-08
-1.78743e-06
4.21187e-08
-1.82909e-06
4.16542e-08
-1.87024e-06
4.11559e-08
-1.91087e-06
4.06228e-08
-1.95092e-06
4.00539e-08
-1.99037e-06
3.94481e-08
-2.02917e-06
3.88045e-08
-2.0673e-06
3.81225e-08
-2.1047e-06
3.74014e-08
-2.14134e-06
3.6641e-08
-2.17718e-06
3.58408e-08
-2.21218e-06
3.50008e-08
-2.2463e-06
3.41212e-08
-2.2795e-06
3.32021e-08
-2.31175e-06
3.2244e-08
-2.34299e-06
3.12472e-08
-2.37321e-06
3.02124e-08
-2.40235e-06
2.91402e-08
-2.43038e-06
2.80315e-08
-2.45726e-06
2.68869e-08
-2.48297e-06
2.57073e-08
-2.50747e-06
2.44934e-08
-2.53071e-06
2.32459e-08
-2.55268e-06
2.19653e-08
-2.57333e-06
2.06519e-08
-2.59263e-06
1.93057e-08
-2.61056e-06
1.79263e-08
-2.62707e-06
1.65129e-08
-2.64214e-06
1.50638e-08
-2.65571e-06
1.35762e-08
-2.66776e-06
1.20467e-08
-2.67823e-06
1.04686e-08
-2.68706e-06
8.83343e-09
-2.69419e-06
7.12929e-09
-2.69953e-06
5.33913e-09
-2.70298e-06
3.4519e-09
-2.70445e-06
1.47082e-09
-2.70392e-06
-5.33835e-10
-2.70172e-06
-2.19557e-09
-2.69794e-06
-3.78659e-09
-2.69259e-06
-5.3476e-09
-2.68569e-06
-6.9012e-09
-2.67723e-06
-8.45906e-09
-2.66721e-06
-1.00232e-08
-2.65561e-06
-1.15931e-08
-2.64245e-06
-1.31672e-08
-2.6277e-06
-1.47436e-08
-2.61138e-06
-1.63201e-08
-2.59349e-06
-1.78947e-08
-2.57402e-06
-1.94652e-08
-2.55299e-06
-2.10295e-08
-2.53041e-06
-2.25856e-08
-2.50628e-06
-2.41313e-08
-2.48061e-06
-2.56646e-08
-2.45343e-06
-2.71834e-08
-2.42474e-06
-2.86857e-08
-2.39457e-06
-3.01692e-08
-2.36294e-06
-3.16322e-08
-2.32987e-06
-3.30724e-08
-2.29538e-06
-3.4488e-08
-2.2595e-06
-3.5877e-08
-2.22227e-06
-3.72378e-08
-2.1837e-06
-3.85683e-08
-2.14383e-06
-3.9867e-08
-2.1027e-06
-4.11322e-08
-2.06034e-06
-4.23622e-08
-2.01678e-06
-4.35553e-08
-1.97207e-06
-4.47101e-08
-1.92625e-06
-4.5825e-08
-1.87935e-06
-4.68987e-08
-1.83142e-06
-4.79301e-08
-1.7825e-06
-4.89181e-08
-1.73264e-06
-4.98617e-08
-1.68188e-06
-5.07599e-08
-1.63027e-06
-5.16118e-08
-1.57785e-06
-5.24167e-08
-1.52467e-06
-5.31742e-08
-1.47079e-06
-5.38838e-08
-1.41625e-06
-5.45454e-08
-1.36109e-06
-5.51587e-08
-1.30536e-06
-5.57238e-08
-1.24912e-06
-5.62407e-08
-1.19241e-06
-5.671e-08
-1.13528e-06
-5.71321e-08
-1.07777e-06
-5.75078e-08
-1.01993e-06
-5.78375e-08
-9.61812e-07
-5.81226e-08
-9.03448e-07
-5.83641e-08
-8.44884e-07
-5.85635e-08
-7.86163e-07
-5.8722e-08
-7.27321e-07
-5.88414e-08
-6.68398e-07
-5.89235e-08
-6.09427e-07
-5.89702e-08
-5.50444e-07
-5.89833e-08
-4.91479e-07
-5.89649e-08
-4.32563e-07
-5.89167e-08
-3.73722e-07
-5.88401e-08
-3.14986e-07
-5.87359e-08
-2.56381e-07
-5.86051e-08
-1.97938e-07
-5.84435e-08
-1.39686e-07
-5.82514e-08
-8.1658e-08
-5.80284e-08
-2.38939e-08
-5.77641e-08
3.35703e-08
-5.74642e-08
9.0695e-08
-5.71247e-08
1.4748e-07
-5.6785e-08
2.03947e-07
-5.64668e-08
2.60112e-07
-5.61649e-08
3.15971e-07
-5.58595e-08
3.71496e-07
-5.55244e-08
4.26616e-07
-5.51205e-08
4.81197e-07
-5.45808e-08
5.34972e-07
-5.3775e-08
5.8741e-07
-5.24376e-08
6.373e-07
-4.98899e-08
6.81796e-07
-4.44964e-08
7.13366e-07
-3.15705e-08
8.32305e-09
7.05043e-07
7.05882e-09
-1.61569e-08
9.79904e-09
-1.3549e-08
8.65803e-09
-6.89437e-09
4.76789e-09
-1.26031e-10
-1.23714e-09
6.342e-09
-9.24259e-09
1.21927e-08
-1.91631e-08
1.73105e-08
-3.09403e-08
2.16548e-08
-4.44587e-08
2.52872e-08
-5.95528e-08
2.83362e-08
-7.60487e-08
3.0949e-08
-9.37977e-08
3.32537e-08
-1.12682e-07
3.53485e-08
-1.32616e-07
3.73027e-08
-1.53538e-07
3.91623e-08
-1.75407e-07
4.09564e-08
-1.98195e-07
4.27023e-08
-2.21886e-07
4.44105e-08
-2.46469e-07
4.60866e-08
-2.7194e-07
4.77344e-08
-2.983e-07
4.93567e-08
-3.25557e-07
5.09573e-08
-3.53724e-07
5.25413e-08
-3.82819e-07
5.41138e-08
-4.12869e-07
5.56785e-08
-4.43916e-07
5.72356e-08
-4.76023e-07
5.87873e-08
-5.09291e-07
6.03526e-08
-5.43846e-07
6.19858e-08
-5.79813e-07
6.37764e-08
-6.1727e-07
6.58088e-08
-6.56193e-07
6.81036e-08
-6.9642e-07
7.06297e-08
-7.3752e-07
7.3368e-08
-7.79028e-07
7.59456e-08
-8.22995e-07
7.73003e-08
-8.70621e-07
7.78811e-08
-9.18609e-07
7.96204e-08
-9.65276e-07
8.19333e-08
-1.00973e-06
8.46687e-08
-1.05055e-06
8.75928e-08
-1.09421e-06
8.8202e-08
-1.13814e-06
8.75939e-08
-1.18356e-06
8.71143e-08
-1.23137e-06
8.6045e-08
-1.27626e-06
8.61707e-08
-1.31962e-06
8.64001e-08
-1.36209e-06
8.64818e-08
-1.40391e-06
8.64247e-08
-1.44523e-06
8.62358e-08
-1.48612e-06
8.59348e-08
-1.52659e-06
8.55423e-08
-1.56665e-06
8.5074e-08
-1.60631e-06
8.45418e-08
-1.64555e-06
8.39536e-08
-1.68436e-06
8.33145e-08
-1.72274e-06
8.2627e-08
-1.76066e-06
8.18922e-08
-1.79811e-06
8.11097e-08
-1.83506e-06
8.02784e-08
-1.87151e-06
7.93966e-08
-1.90742e-06
7.84622e-08
-1.94278e-06
7.74729e-08
-1.97755e-06
7.64265e-08
-2.01171e-06
7.53206e-08
-2.04524e-06
7.41532e-08
-2.07811e-06
7.29224e-08
-2.11029e-06
7.16264e-08
-2.14175e-06
7.02637e-08
-2.17246e-06
6.88332e-08
-2.20239e-06
6.7334e-08
-2.23152e-06
6.57655e-08
-2.2598e-06
6.41274e-08
-2.28722e-06
6.24195e-08
-2.31374e-06
6.06421e-08
-2.33934e-06
5.87957e-08
-2.36397e-06
5.68808e-08
-2.38762e-06
5.48983e-08
-2.41026e-06
5.28493e-08
-2.43186e-06
5.07349e-08
-2.45238e-06
4.85563e-08
-2.47181e-06
4.63149e-08
-2.49011e-06
4.4012e-08
-2.50727e-06
4.16489e-08
-2.52325e-06
3.92267e-08
-2.53803e-06
3.67466e-08
-2.55159e-06
3.42095e-08
-2.5639e-06
3.16157e-08
-2.57494e-06
2.89659e-08
-2.58469e-06
2.62597e-08
-2.59312e-06
2.34969e-08
-2.60022e-06
2.06768e-08
-2.60597e-06
1.77986e-08
-2.61036e-06
1.48617e-08
-2.6134e-06
1.18667e-08
-2.61508e-06
8.81671e-09
-2.61547e-06
5.7201e-09
-2.61461e-06
2.59856e-09
-2.61266e-06
-4.85652e-10
-2.6096e-06
-3.5871e-09
-2.6052e-06
-6.59422e-09
-2.59937e-06
-9.62369e-09
-2.59204e-06
-1.26748e-08
-2.5832e-06
-1.57446e-08
-2.57282e-06
-1.88325e-08
-2.56091e-06
-2.19361e-08
-2.54745e-06
-2.50521e-08
-2.53244e-06
-2.81767e-08
-2.51588e-06
-3.13056e-08
-2.49776e-06
-3.44349e-08
-2.4781e-06
-3.756e-08
-2.45689e-06
-4.0677e-08
-2.43414e-06
-4.37815e-08
-2.40985e-06
-4.68695e-08
-2.38405e-06
-4.99367e-08
-2.35673e-06
-5.29791e-08
-2.32792e-06
-5.59925e-08
-2.29764e-06
-5.89728e-08
-2.26589e-06
-6.1916e-08
-2.2327e-06
-6.4818e-08
-2.1981e-06
-6.76748e-08
-2.16211e-06
-7.04824e-08
-2.12475e-06
-7.32371e-08
-2.08605e-06
-7.59353e-08
-2.04604e-06
-7.85735e-08
-2.00476e-06
-8.11481e-08
-1.96224e-06
-8.36559e-08
-1.91851e-06
-8.60935e-08
-1.8736e-06
-8.84578e-08
-1.82757e-06
-9.07456e-08
-1.78044e-06
-9.29541e-08
-1.73226e-06
-9.50805e-08
-1.68307e-06
-9.71225e-08
-1.63291e-06
-9.90779e-08
-1.58182e-06
-1.00945e-07
-1.52986e-06
-1.02722e-07
-1.47707e-06
-1.04406e-07
-1.42349e-06
-1.05997e-07
-1.36917e-06
-1.07493e-07
-1.31416e-06
-1.08894e-07
-1.2585e-06
-1.10199e-07
-1.20225e-06
-1.11408e-07
-1.14546e-06
-1.12521e-07
-1.08816e-06
-1.13539e-07
-1.03041e-06
-1.14461e-07
-9.72251e-07
-1.15289e-07
-9.13734e-07
-1.16025e-07
-8.54902e-07
-1.16669e-07
-7.958e-07
-1.17224e-07
-7.36471e-07
-1.17693e-07
-6.76957e-07
-1.18078e-07
-6.17298e-07
-1.18381e-07
-5.57532e-07
-1.18607e-07
-4.97697e-07
-1.18759e-07
-4.37827e-07
-1.1884e-07
-3.77956e-07
-1.18854e-07
-3.18115e-07
-1.18806e-07
-2.58333e-07
-1.18699e-07
-1.98636e-07
-1.18536e-07
-1.39053e-07
-1.1832e-07
-7.96063e-08
-1.18052e-07
-2.03206e-08
-1.17729e-07
3.87782e-08
-1.1735e-07
9.7664e-08
-1.16914e-07
1.56319e-07
-1.16419e-07
2.14732e-07
-1.15877e-07
2.72907e-07
-1.15299e-07
3.30838e-07
-1.14717e-07
3.88521e-07
-1.1415e-07
4.45946e-07
-1.13589e-07
5.03092e-07
-1.13006e-07
5.5992e-07
-1.12352e-07
6.16351e-07
-1.11552e-07
6.72241e-07
-1.10471e-07
7.27323e-07
-1.08857e-07
7.81104e-07
-1.06218e-07
8.32618e-07
-1.01404e-07
8.80259e-07
-9.21376e-08
9.20734e-07
-7.20457e-08
-2.51099e-08
9.54167e-07
4.57245e-10
-1.66141e-08
-3.97917e-09
-9.11264e-09
-1.09219e-08
4.83724e-11
-1.93718e-08
8.32387e-09
-2.90605e-08
1.60307e-08
-3.99355e-08
2.30677e-08
-5.20261e-08
2.9401e-08
-6.53917e-08
3.50204e-08
-8.00686e-08
3.99641e-08
-9.60481e-08
4.43157e-08
-1.13282e-07
4.81832e-08
-1.31705e-07
5.16765e-08
-1.51249e-07
5.48928e-08
-1.71857e-07
5.791e-08
-1.93481e-07
6.07869e-08
-2.16091e-07
6.35656e-08
-2.39664e-07
6.62757e-08
-2.64191e-07
6.89377e-08
-2.89671e-07
7.15663e-08
-3.16109e-07
7.41725e-08
-3.43518e-07
7.67659e-08
-3.71917e-07
7.93557e-08
-4.01327e-07
8.19513e-08
-4.31775e-07
8.45618e-08
-4.63291e-07
8.71952e-08
-4.95914e-07
8.98588e-08
-5.2969e-07
9.25625e-08
-5.64662e-07
9.5325e-08
-6.00854e-07
9.81771e-08
-6.38229e-07
1.01152e-07
-6.7668e-07
1.04259e-07
-7.16027e-07
1.07451e-07
-7.5603e-07
1.10632e-07
-7.96324e-07
1.13662e-07
-8.36673e-07
1.16295e-07
-8.77683e-07
1.1831e-07
-9.19707e-07
1.19906e-07
-9.61616e-07
1.21529e-07
-1.00282e-06
1.2314e-07
-1.0428e-06
1.24649e-07
-1.08106e-06
1.25854e-07
-1.11916e-06
1.26297e-07
-1.1576e-06
1.26032e-07
-1.19604e-06
1.25554e-07
-1.23492e-06
1.24928e-07
-1.27315e-06
1.24396e-07
-1.31068e-06
1.23935e-07
-1.34766e-06
1.23462e-07
-1.38418e-06
1.22944e-07
-1.42031e-06
1.22365e-07
-1.45609e-06
1.21721e-07
-1.49156e-06
1.21011e-07
-1.52673e-06
1.20239e-07
-1.56159e-06
1.19406e-07
-1.59615e-06
1.18513e-07
-1.6304e-06
1.17562e-07
-1.66432e-06
1.1655e-07
-1.6979e-06
1.15475e-07
-1.73113e-06
1.14336e-07
-1.76398e-06
1.13129e-07
-1.79643e-06
1.1185e-07
-1.82847e-06
1.10496e-07
-1.86006e-06
1.09062e-07
-1.89118e-06
1.07547e-07
-1.9218e-06
1.05946e-07
-1.9519e-06
1.04255e-07
-1.98146e-06
1.02473e-07
-2.01043e-06
1.00597e-07
-2.03879e-06
9.86242e-08
-2.06651e-06
9.65535e-08
-2.09356e-06
9.43835e-08
-2.1199e-06
9.21133e-08
-2.14552e-06
8.97423e-08
-2.17037e-06
8.72704e-08
-2.19443e-06
8.46979e-08
-2.21765e-06
8.20253e-08
-2.24003e-06
7.92534e-08
-2.26151e-06
7.63835e-08
-2.28208e-06
7.3417e-08
-2.3017e-06
7.03554e-08
-2.32035e-06
6.72007e-08
-2.33798e-06
6.39546e-08
-2.35459e-06
6.06193e-08
-2.37014e-06
5.71967e-08
-2.3846e-06
5.36888e-08
-2.39795e-06
5.00977e-08
-2.41017e-06
4.64251e-08
-2.42123e-06
4.26728e-08
-2.4311e-06
3.88423e-08
-2.43978e-06
3.49352e-08
-2.44723e-06
3.0953e-08
-2.45345e-06
2.68975e-08
-2.45843e-06
2.27712e-08
-2.46214e-06
1.85776e-08
-2.4646e-06
1.43222e-08
-2.46579e-06
1.0013e-08
-2.46574e-06
5.66234e-09
-2.46443e-06
1.28726e-09
-2.46182e-06
-3.09096e-09
-2.45792e-06
-7.48911e-09
-2.45261e-06
-1.19056e-08
-2.44587e-06
-1.63648e-08
-2.43768e-06
-2.08655e-08
-2.42802e-06
-2.54031e-08
-2.41688e-06
-2.99721e-08
-2.40425e-06
-3.45664e-08
-2.39012e-06
-3.91802e-08
-2.37449e-06
-4.3807e-08
-2.35735e-06
-4.84407e-08
-2.33871e-06
-5.30748e-08
-2.31857e-06
-5.77031e-08
-2.29693e-06
-6.23194e-08
-2.27379e-06
-6.69172e-08
-2.24917e-06
-7.14906e-08
-2.22307e-06
-7.60333e-08
-2.19551e-06
-8.05393e-08
-2.1665e-06
-8.50024e-08
-2.13606e-06
-8.94166e-08
-2.1042e-06
-9.37758e-08
-2.07094e-06
-9.80739e-08
-2.03631e-06
-1.02305e-07
-2.00033e-06
-1.06463e-07
-1.96303e-06
-1.10543e-07
-1.92442e-06
-1.14539e-07
-1.88455e-06
-1.18446e-07
-1.84344e-06
-1.22259e-07
-1.80112e-06
-1.25972e-07
-1.75764e-06
-1.29582e-07
-1.71301e-06
-1.33082e-07
-1.66729e-06
-1.36469e-07
-1.6205e-06
-1.39739e-07
-1.5727e-06
-1.42886e-07
-1.52391e-06
-1.45908e-07
-1.47419e-06
-1.48802e-07
-1.42357e-06
-1.51564e-07
-1.3721e-06
-1.54192e-07
-1.31982e-06
-1.56684e-07
-1.26678e-06
-1.59036e-07
-1.21302e-06
-1.61248e-07
-1.1586e-06
-1.63318e-07
-1.10355e-06
-1.65246e-07
-1.04793e-06
-1.67031e-07
-9.9178e-07
-1.68673e-07
-9.35145e-07
-1.70174e-07
-8.78073e-07
-1.71533e-07
-8.2061e-07
-1.72752e-07
-7.628e-07
-1.73834e-07
-7.04688e-07
-1.74781e-07
-6.46318e-07
-1.75595e-07
-5.8773e-07
-1.76281e-07
-5.28965e-07
-1.76842e-07
-4.70064e-07
-1.77283e-07
-4.11063e-07
-1.77608e-07
-3.51999e-07
-1.77823e-07
-2.92904e-07
-1.77934e-07
-2.33813e-07
-1.77946e-07
-1.74753e-07
-1.77865e-07
-1.15754e-07
-1.77698e-07
-5.68418e-08
-1.77449e-07
1.96124e-09
-1.77123e-07
6.06304e-08
-1.76721e-07
1.19144e-07
-1.76243e-07
1.77485e-07
-1.75691e-07
2.35637e-07
-1.75066e-07
2.93595e-07
-1.74378e-07
3.51366e-07
-1.73648e-07
4.08959e-07
-1.72892e-07
4.66363e-07
-1.7212e-07
5.23557e-07
-1.71344e-07
5.8052e-07
-1.70553e-07
6.37226e-07
-1.69712e-07
6.9363e-07
-1.68756e-07
7.49653e-07
-1.67574e-07
8.05157e-07
-1.65975e-07
8.59908e-07
-1.63608e-07
9.13504e-07
-1.59814e-07
9.65316e-07
-1.53215e-07
1.01444e-06
-1.41267e-07
1.06038e-06
-1.17983e-07
-7.20081e-08
1.10728e-06
-5.81187e-09
-1.08023e-08
-1.5461e-08
5.36514e-10
-2.62675e-08
1.08548e-08
-3.79757e-08
2.00321e-08
-5.03912e-08
2.84462e-08
-6.35329e-08
3.62093e-08
-7.74744e-08
4.33426e-08
-9.23076e-08
4.98536e-08
-1.08113e-07
5.57696e-08
-1.24943e-07
6.11454e-08
-1.42816e-07
6.60569e-08
-1.61729e-07
7.05891e-08
-1.81661e-07
7.48247e-08
-2.02587e-07
7.88364e-08
-2.24485e-07
8.26843e-08
-2.47334e-07
8.64151e-08
-2.71123e-07
9.00646e-08
-2.95844e-07
9.36591e-08
-3.21497e-07
9.72185e-08
-3.48082e-07
1.00758e-07
-3.75606e-07
1.0429e-07
-4.04073e-07
1.07823e-07
-4.33487e-07
1.11366e-07
-4.63849e-07
1.14923e-07
-4.95151e-07
1.18498e-07
-5.27383e-07
1.22091e-07
-5.60519e-07
1.25698e-07
-5.94513e-07
1.29319e-07
-6.29281e-07
1.32946e-07
-6.64692e-07
1.36563e-07
-7.00568e-07
1.40135e-07
-7.36708e-07
1.43591e-07
-7.72917e-07
1.46841e-07
-8.09028e-07
1.49772e-07
-8.44988e-07
1.52255e-07
-8.80905e-07
1.54226e-07
-9.16801e-07
1.55802e-07
-9.52409e-07
1.57138e-07
-9.87529e-07
1.5826e-07
-1.02202e-06
1.59144e-07
-1.05587e-06
1.59697e-07
-1.08936e-06
1.59794e-07
-1.12282e-06
1.5949e-07
-1.15622e-06
1.58952e-07
-1.18958e-06
1.58289e-07
-1.22278e-06
1.57596e-07
-1.25574e-06
1.56893e-07
-1.28845e-06
1.56171e-07
-1.32092e-06
1.55414e-07
-1.35317e-06
1.54613e-07
-1.3852e-06
1.53758e-07
-1.41704e-06
1.52847e-07
-1.44868e-06
1.51875e-07
-1.48011e-06
1.50839e-07
-1.51133e-06
1.49735e-07
-1.54233e-06
1.48561e-07
-1.57309e-06
1.47312e-07
-1.6036e-06
1.45983e-07
-1.63383e-06
1.44569e-07
-1.66377e-06
1.43066e-07
-1.69339e-06
1.41469e-07
-1.72267e-06
1.39772e-07
-1.75157e-06
1.3797e-07
-1.78009e-06
1.36058e-07
-1.80817e-06
1.34033e-07
-1.83581e-06
1.31891e-07
-1.86296e-06
1.29626e-07
-1.8896e-06
1.27237e-07
-1.9157e-06
1.24721e-07
-1.94122e-06
1.22076e-07
-1.96614e-06
1.193e-07
-1.99042e-06
1.16391e-07
-2.01402e-06
1.1335e-07
-2.03693e-06
1.10176e-07
-2.0591e-06
1.06869e-07
-2.08051e-06
1.03431e-07
-2.10111e-06
9.98614e-08
-2.12089e-06
9.6163e-08
-2.13981e-06
9.23374e-08
-2.15785e-06
8.83867e-08
-2.17496e-06
8.43134e-08
-2.19112e-06
8.012e-08
-2.20631e-06
7.58094e-08
-2.2205e-06
7.13844e-08
-2.23366e-06
6.68478e-08
-2.24577e-06
6.22029e-08
-2.25679e-06
5.74523e-08
-2.26672e-06
5.25991e-08
-2.27552e-06
4.7646e-08
-2.28318e-06
4.25961e-08
-2.28968e-06
3.74524e-08
-2.295e-06
3.22184e-08
-2.29913e-06
2.68983e-08
-2.30205e-06
2.14972e-08
-2.30375e-06
1.60215e-08
-2.30422e-06
1.04793e-08
-2.30343e-06
4.87998e-09
-2.30138e-06
-7.66822e-10
-2.29802e-06
-6.45441e-09
-2.29332e-06
-1.21883e-08
-2.28725e-06
-1.79762e-08
-2.27979e-06
-2.38251e-08
-2.27092e-06
-2.97309e-08
-2.26064e-06
-3.56871e-08
-2.24892e-06
-4.1686e-08
-2.23577e-06
-4.77193e-08
-2.22117e-06
-5.37785e-08
-2.20512e-06
-5.98553e-08
-2.18762e-06
-6.59414e-08
-2.16867e-06
-7.20282e-08
-2.14826e-06
-7.81076e-08
-2.12641e-06
-8.41712e-08
-2.10312e-06
-9.02109e-08
-2.07839e-06
-9.62184e-08
-2.05224e-06
-1.02186e-07
-2.02467e-06
-1.08105e-07
-1.99571e-06
-1.13968e-07
-1.96536e-06
-1.19766e-07