/*--------------------------------*- C++ -*----------------------------------*\
  =========                 |
  \\      /  F ield         | OpenFOAM: The Open Source CFD Toolbox
   \\    /   O peration     | Website:  https://openfoam.org
    \\  /    A nd           | Version:  12
     \\/     M anipulation  |
\*---------------------------------------------------------------------------*/
FoamFile
{
    format      ascii;
    class       volVectorField;
    location    "0.29";
    object      U;
}
// * * * * * * * * * * * * * * * * * * * * * * * * * * * * * * * * * * * * * //

dimensions      [0 1 -1 0 0 0 0];

internalField   nonuniform List<vector> 
12225
(
(9.86107 -0.874318 0)
(9.67248 -0.700192 0)
(9.45897 -0.387593 0)
(9.22467 -0.188479 0)
(9.0035 -0.0843949 0)
(8.81041 -0.0328775 0)
(8.64514 -0.00755291 0)
(8.50415 0.00502196 0)
(8.38398 0.0113331 0)
(8.28111 0.0144682 0)
(8.19216 0.0159623 0)
(8.11425 0.0166304 0)
(8.045 0.016915 0)
(7.98259 0.0171074 0)
(7.92411 0.0173997 0)
(7.87054 0.0184962 0)
(7.80133 0.0214565 0)
(7.77507 0.0298243 0)
(10.0547 0.263069 0)
(10.1201 0.36074 0)
(10.118 0.27382 0)
(10.0826 0.187085 0)
(10.0405 0.131159 0)
(9.99393 0.0969231 0)
(9.94013 0.0755524 0)
(9.88041 0.0617438 0)
(9.81785 0.0523366 0)
(9.75494 0.0455178 0)
(9.69312 0.040344 0)
(9.6332 0.0363542 0)
(9.57557 0.033292 0)
(9.52061 0.0311375 0)
(9.46754 0.0297241 0)
(9.41882 0.0308095 0)
(9.3675 0.0318713 0)
(9.34225 0.0521519 0)
(9.99919 0.0460863 0)
(10.0244 0.034208 0)
(10.0538 0.0149473 0)
(10.0708 0.0218067 0)
(10.0778 0.0366671 0)
(10.0783 0.0460018 0)
(10.0722 0.0499404 0)
(10.0603 0.0511292 0)
(10.0439 0.0510331 0)
(10.0246 0.0503133 0)
(10.0031 0.0493408 0)
(9.98005 0.0483614 0)
(9.95593 0.0475246 0)
(9.93116 0.0470629 0)
(9.90571 0.0470486 0)
(9.88061 0.0488085 0)
(9.8551 0.0515194 0)
(9.83522 0.0628071 0)
(9.9968 0.00642725 0)
(10.0085 0.0250162 0)
(10.0342 0.0389342 0)
(10.0528 0.0502967 0)
(10.0644 0.0570995 0)
(10.0731 0.059153 0)
(10.079 0.058838 0)
(10.0817 0.0579143 0)
(10.0816 0.0569036 0)
(10.0795 0.0558809 0)
(10.0758 0.0548988 0)
(10.0708 0.0540435 0)
(10.0645 0.0534047 0)
(10.0574 0.0531744 0)
(10.0494 0.0534852 0)
(10.0412 0.0552059 0)
(10.0333 0.0580017 0)
(10.0279 0.0643484 0)
(9.99922 0.0067365 0)
(10.0081 0.0335708 0)
(10.0271 0.0460378 0)
(10.0418 0.0508369 0)
(10.0524 0.0539023 0)
(10.0622 0.0554874 0)
(10.0708 0.05583 0)
(10.0775 0.0556413 0)
(10.0823 0.0552671 0)
(10.0858 0.0547984 0)
(10.0881 0.0543093 0)
(10.0895 0.0539037 0)
(10.09 0.0536904 0)
(10.0899 0.053842 0)
(10.0892 0.0545073 0)
(10.0885 0.0561718 0)
(10.0884 0.058647 0)
(10.09 0.0624111 0)
(10.0002 0.00907279 0)
(10.0078 0.0321208 0)
(10.0225 0.0419043 0)
(10.035 0.0456551 0)
(10.0448 0.049111 0)
(10.0542 0.0516432 0)
(10.063 0.0527774 0)
(10.0705 0.0531238 0)
(10.0767 0.0531576 0)
(10.0819 0.0530426 0)
(10.0864 0.05287 0)
(10.0901 0.0527471 0)
(10.0932 0.0527835 0)
(10.0959 0.053121 0)
(10.0983 0.0538808 0)
(10.1007 0.0553007 0)
(10.1038 0.0572212 0)
(10.1081 0.0594873 0)
(10.0003 0.00879893 0)
(10.0068 0.0275132 0)
(10.019 0.0370744 0)
(10.0303 0.0417283 0)
(10.0395 0.0456444 0)
(10.0482 0.0484642 0)
(10.0566 0.0498688 0)
(10.0641 0.0504558 0)
(10.0706 0.0507108 0)
(10.0764 0.0508058 0)
(10.0816 0.0508271 0)
(10.0862 0.0508737 0)
(10.0904 0.051046 0)
(10.0943 0.0514524 0)
(10.098 0.0521736 0)
(10.1019 0.0532998 0)
(10.1063 0.0546696 0)
(10.1116 0.0559636 0)
(10.0004 0.00783567 0)
(10.0057 0.0236894 0)
(10.016 0.0333593 0)
(10.0264 0.0385727 0)
(10.0351 0.0424624 0)
(10.0433 0.0452503 0)
(10.0512 0.0467979 0)
(10.0585 0.0475703 0)
(10.0649 0.0479923 0)
(10.0708 0.0482369 0)
(10.0763 0.0483909 0)
(10.0813 0.0485454 0)
(10.086 0.0487875 0)
(10.0904 0.0491953 0)
(10.0948 0.0498118 0)
(10.0993 0.0506439 0)
(10.1043 0.0515311 0)
(10.1098 0.0521656 0)
(10.0004 0.00694945 0)
(10.0049 0.0207017 0)
(10.0136 0.0300241 0)
(10.023 0.0353846 0)
(10.0312 0.0391631 0)
(10.0389 0.0419168 0)
(10.0464 0.0435995 0)
(10.0534 0.0445365 0)
(10.0598 0.045092 0)
(10.0657 0.045447 0)
(10.0711 0.045693 0)
(10.0763 0.0459119 0)
(10.0812 0.0461767 0)
(10.0859 0.0465405 0)
(10.0906 0.0470179 0)
(10.0954 0.0475746 0)
(10.1005 0.0480645 0)
(10.106 0.0482485 0)
(10.0004 0.00616248 0)
(10.0042 0.0181157 0)
(10.0116 0.0267857 0)
(10.0199 0.0321204 0)
(10.0277 0.0358224 0)
(10.035 0.0385446 0)
(10.0421 0.0403198 0)
(10.0488 0.0413813 0)
(10.055 0.0420385 0)
(10.0608 0.0424739 0)
(10.0663 0.0427812 0)
(10.0715 0.0430329 0)
(10.0764 0.0432879 0)
(10.0813 0.043581 0)
(10.0861 0.0439091 0)
(10.091 0.0442231 0)
(10.096 0.0444011 0)
(10.1013 0.0442782 0)
(10.0003 0.00542551 0)
(10.0036 0.0157925 0)
(10.0099 0.0236987 0)
(10.0173 0.0288897 0)
(10.0245 0.0324997 0)
(10.0314 0.0351548 0)
(10.0381 0.0369633 0)
(10.0446 0.0381053 0)
(10.0506 0.0388354 0)
(10.0563 0.0393265 0)
(10.0617 0.0396709 0)
(10.0669 0.0399321 0)
(10.0719 0.0401569 0)
(10.0768 0.0403676 0)
(10.0816 0.0405529 0)
(10.0865 0.0406644 0)
(10.0914 0.0406078 0)
(10.0964 0.0402799 0)
(10.0003 0.00477291 0)
(10.0031 0.0138469 0)
(10.0086 0.0210238 0)
(10.0152 0.0259814 0)
(10.0219 0.0294637 0)
(10.0285 0.0320236 0)
(10.0349 0.0338178 0)
(10.0411 0.0349962 0)
(10.0469 0.035767 0)
(10.0525 0.0362874 0)
(10.0579 0.0366459 0)
(10.063 0.0368989 0)
(10.0679 0.0370842 0)
(10.0728 0.0372172 0)
(10.0776 0.0372847 0)
(10.0823 0.0372462 0)
(10.0871 0.0370317 0)
(10.0919 0.0365824 0)
(10.0003 0.00416631 0)
(10.0028 0.0120794 0)
(10.0075 0.0185089 0)
(10.0134 0.0231427 0)
(10.0197 0.0264547 0)
(10.0258 0.0288957 0)
(10.0319 0.0306415 0)
(10.0378 0.0318244 0)
(10.0436 0.032613 0)
(10.049 0.033145 0)
(10.0543 0.033503 0)
(10.0593 0.0337375 0)
(10.0642 0.0338796 0)
(10.069 0.0339405 0)
(10.0737 0.0339091 0)
(10.0784 0.0337545 0)
(10.083 0.0334269 0)
(10.0875 0.0329001 0)
(10.0003 0.00353432 0)
(10.0024 0.0102408 0)
(10.0064 0.0158159 0)
(10.0117 0.0199948 0)
(10.0174 0.0230486 0)
(10.0232 0.0253122 0)
(10.0289 0.0269581 0)
(10.0346 0.0281036 0)
(10.0401 0.0288799 0)
(10.0454 0.0294008 0)
(10.0505 0.02974 0)
(10.0555 0.0299417 0)
(10.0603 0.0300314 0)
(10.065 0.0300186 0)
(10.0696 0.029896 0)
(10.0741 0.0296441 0)
(10.0785 0.0292319 0)
(10.0828 0.0286575 0)
(10.0002 0.00287533 0)
(10.002 0.00833003 0)
(10.0055 0.012955 0)
(10.0101 0.0165441 0)
(10.0153 0.0192305 0)
(10.0206 0.0212394 0)
(10.026 0.0227192 0)
(10.0314 0.0237702 0)
(10.0366 0.0244907 0)
(10.0418 0.0249684 0)
(10.0467 0.0252646 0)
(10.0516 0.025417 0)
(10.0563 0.0254466 0)
(10.0608 0.0253625 0)
(10.0653 0.0251627 0)
(10.0696 0.0248383 0)
(10.0738 0.0243738 0)
(10.0779 0.0237834 0)
(10.0002 0.00218967 0)
(10.0017 0.00634798 0)
(10.0047 0.00993136 0)
(10.0088 0.0127923 0)
(10.0134 0.0149834 0)
(10.0183 0.0166396 0)
(10.0233 0.0178709 0)
(10.0284 0.0187555 0)
(10.0334 0.0193627 0)
(10.0383 0.0197549 0)
(10.0431 0.0199785 0)
(10.0478 0.0200633 0)
(10.0523 0.0200266 0)
(10.0567 0.0198776 0)
(10.061 0.0196187 0)
(10.0651 0.0192493 0)
(10.0691 0.0187644 0)
(10.0729 0.0181869 0)
(10.0002 0.00147427 0)
(10.0015 0.00427818 0)
(10.0041 0.006723 0)
(10.0077 0.00871599 0)
(10.0119 0.0102715 0)
(10.0164 0.0114588 0)
(10.0211 0.0123445 0)
(10.0258 0.0129792 0)
(10.0306 0.0134059 0)
(10.0353 0.0136631 0)
(10.0399 0.0137809 0)
(10.0444 0.0137796 0)
(10.0487 0.0136722 0)
(10.053 0.0134668 0)
(10.0571 0.013168 0)
(10.061 0.0127798 0)
(10.0648 0.0123027 0)
(10.0684 0.0117618 0)
(10.0001 0.000711541 0)
(10.0013 0.00206496 0)
(10.0037 0.00325083 0)
(10.0069 0.00422757 0)
(10.0108 0.00499737 0)
(10.015 0.00558471 0)
(10.0194 0.00601443 0)
(10.0239 0.00630654 0)
(10.0285 0.00647872 0)
(10.033 0.00654682 0)
(10.0374 0.00652341 0)
(10.0417 0.00641745 0)
(10.0459 0.00623519 0)
(10.05 0.00598131 0)
(10.0539 0.0056597 0)
(10.0576 0.00527469 0)
(10.0612 0.00482832 0)
(10.0646 0.00434335 0)
(10.0001 -0.000145067 0)
(10.0013 -0.000423372 0)
(10.0035 -0.000673564 0)
(10.0066 -0.000883248 0)
(10.0104 -0.00104998 0)
(10.0145 -0.00118765 0)
(10.0188 -0.00131554 0)
(10.0232 -0.00144752 0)
(10.0276 -0.00159229 0)
(10.032 -0.00175703 0)
(10.0363 -0.00194823 0)
(10.0405 -0.00217084 0)
(10.0445 -0.00242802 0)
(10.0484 -0.00272143 0)
(10.0522 -0.00305147 0)
(10.0558 -0.00341688 0)
(10.0592 -0.00381748 0)
(10.0625 -0.00423628 0)
(10.0001 -0.000968451 0)
(10.0014 -0.00282186 0)
(10.0037 -0.00446231 0)
(10.0071 -0.0058079 0)
(10.011 -0.0068524 0)
(10.0153 -0.00765739 0)
(10.0197 -0.00828983 0)
(10.0242 -0.00879499 0)
(10.0286 -0.00920741 0)
(10.033 -0.00955908 0)
(10.0373 -0.00987649 0)
(10.0415 -0.0101782 0)
(10.0455 -0.0104766 0)
(10.0493 -0.0107803 0)
(10.053 -0.011095 0)
(10.0565 -0.0114237 0)
(10.0599 -0.0117689 0)
(10.0631 -0.0121195 0)
(10.0002 -0.00168171 0)
(10.0015 -0.00492321 0)
(10.0042 -0.00778185 0)
(10.0079 -0.0100544 0)
(10.0123 -0.0117565 0)
(10.0168 -0.0130447 0)
(10.0215 -0.0140369 0)
(10.0261 -0.0147923 0)
(10.0307 -0.0153653 0)
(10.0352 -0.0158147 0)
(10.0395 -0.0161876 0)
(10.0437 -0.016514 0)
(10.0477 -0.0168135 0)
(10.0515 -0.0170999 0)
(10.0552 -0.017383 0)
(10.0587 -0.0176685 0)
(10.062 -0.0179605 0)
(10.0651 -0.0182516 0)
(10.0002 -0.00236298 0)
(10.0017 -0.0070099 0)
(10.0048 -0.0111145 0)
(10.0092 -0.0142189 0)
(10.014 -0.0164171 0)
(10.019 -0.0180467 0)
(10.0239 -0.0192879 0)
(10.0288 -0.0202051 0)
(10.0336 -0.0208704 0)
(10.0382 -0.0213663 0)
(10.0426 -0.0217542 0)
(10.0469 -0.0220723 0)
(10.0509 -0.0223467 0)
(10.0547 -0.0225965 0)
(10.0584 -0.0228349 0)
(10.0619 -0.0230695 0)
(10.0652 -0.0233055 0)
(10.0683 -0.023538 0)
(10.0002 -0.00299794 0)
(10.0018 -0.0091169 0)
(10.0056 -0.0144931 0)
(10.0108 -0.0183414 0)
(10.0163 -0.0209645 0)
(10.0217 -0.0228626 0)
(10.0269 -0.0242303 0)
(10.0321 -0.0251734 0)
(10.0371 -0.0258296 0)
(10.0419 -0.0263102 0)
(10.0464 -0.0266754 0)
(10.0507 -0.0269601 0)
(10.0548 -0.027193 0)
(10.0586 -0.0273968 0)
(10.0623 -0.0275862 0)
(10.0657 -0.0277697 0)
(10.069 -0.0279523 0)
(10.0721 -0.028131 0)
(10.0001 -0.0035734 0)
(10.0019 -0.011546 0)
(10.0064 -0.0179435 0)
(10.0127 -0.0220737 0)
(10.0189 -0.0250599 0)
(10.0247 -0.0273631 0)
(10.0304 -0.0289081 0)
(10.0359 -0.029824 0)
(10.0411 -0.0303878 0)
(10.0459 -0.0307775 0)
(10.0506 -0.0310591 0)
(10.0549 -0.0312646 0)
(10.059 -0.0314235 0)
(10.0629 -0.0315592 0)
(10.0665 -0.0316853 0)
(10.07 -0.0318087 0)
(10.0732 -0.0319329 0)
(10.0763 -0.0320538 0)
(9.99997 -0.00369265 0)
(10.0018 -0.0151882 0)
(10.0076 -0.0226636 0)
(10.0148 -0.0259972 0)
(10.0214 -0.028563 0)
(10.0277 -0.0310279 0)
(10.034 -0.0328092 0)
(10.0399 -0.0338512 0)
(10.0454 -0.0344552 0)
(10.0505 -0.03483 0)
(10.0552 -0.0350589 0)
(10.0596 -0.0351907 0)
(10.0637 -0.0352677 0)
(10.0675 -0.0353193 0)
(10.071 -0.0353619 0)
(10.0743 -0.0354039 0)
(10.0773 -0.0354487 0)
(10.0802 -0.035494 0)
(9.99898 -0.00131128 0)
(9.99999 -0.0179803 0)
(10.0085 -0.0290796 0)
(10.0174 -0.0327073 0)
(10.0244 -0.0341332 0)
(10.0311 -0.0353614 0)
(10.0382 -0.0363101 0)
(10.0448 -0.0369545 0)
(10.0507 -0.037407 0)
(10.0558 -0.0377079 0)
(10.0605 -0.0378719 0)
(10.0646 -0.0379348 0)
(10.0683 -0.0379379 0)
(10.0716 -0.0379106 0)
(10.0744 -0.0378711 0)
(10.077 -0.0378308 0)
(10.0792 -0.037793 0)
(10.0812 -0.037757 0)
(9.99528 0.00386746 0)
(9.99333 -0.0103157 0)
(10.007 -0.0271096 0)
(10.0212 -0.0389346 0)
(10.0311 -0.0448745 0)
(10.0391 -0.0464828 0)
(10.0465 -0.0460009 0)
(10.0529 -0.0450457 0)
(10.058 -0.0441721 0)
(10.062 -0.0434014 0)
(10.0651 -0.04269 0)
(10.0673 -0.0420352 0)
(10.0689 -0.0414432 0)
(10.0698 -0.0409137 0)
(10.0702 -0.0404443 0)
(10.0702 -0.0400341 0)
(10.0698 -0.0396733 0)
(10.0691 -0.0393353 0)
(9.99144 -0.0172944 0)
(9.99188 0.000362791 0)
(10.01 0.017661 0)
(10.0295 0.0115817 0)
(10.0441 -0.00511808 0)
(10.0541 -0.0188364 0)
(10.0599 -0.0271849 0)
(10.0622 -0.0320642 0)
(10.0616 -0.034948 0)
(10.059 -0.0365558 0)
(10.0548 -0.0373351 0)
(10.0494 -0.0376111 0)
(10.043 -0.0375966 0)
(10.0359 -0.0374212 0)
(10.0284 -0.0371686 0)
(10.0204 -0.0368998 0)
(10.0123 -0.0366704 0)
(10.0041 -0.0364493 0)
(10.0236 -0.206008 0)
(10.0684 -0.312341 0)
(10.0788 -0.255596 0)
(10.0704 -0.184181 0)
(10.0605 -0.134907 0)
(10.0498 -0.102733 0)
(10.0342 -0.0811742 0)
(10.0129 -0.0666293 0)
(9.98772 -0.056639 0)
(9.96047 -0.0494847 0)
(9.93223 -0.0441289 0)
(9.90371 -0.039982 0)
(9.8754 -0.0366856 0)
(9.84762 -0.0340071 0)
(9.82062 -0.0317985 0)
(9.79452 -0.0299963 0)
(9.76956 -0.0285701 0)
(9.74576 -0.0278365 0)
(9.94226 0.671595 0)
(9.87995 0.567454 0)
(9.77443 0.338465 0)
(9.63235 0.183316 0)
(9.4876 0.094903 0)
(9.35646 0.0470795 0)
(9.24087 0.021294 0)
(9.13934 0.00707178 0)
(9.05037 -0.000988364 0)
(8.97235 -0.00563029 0)
(8.90355 -0.00832013 0)
(8.84244 -0.009883 0)
(8.78777 -0.0107891 0)
(8.73856 -0.0113073 0)
(8.69397 -0.0115983 0)
(8.6533 -0.0117869 0)
(8.61572 -0.0119669 0)
(8.58082 -0.0124991 0)
(0.00373807 -0.00894946 -3.50252e-20)
(0.0133186 -0.0142196 3.46317e-20)
(0.0218356 -0.0126774 0)
(0.0273673 -0.00800802 0)
(0.0291669 -0.00235803 0)
(0.0270093 0.00291487 -3.25628e-20)
(0.0217113 0.00706022 0)
(0.0139127 0.00998209 0)
(0.00417249 0.0119244 0)
(-0.00703189 0.0132348 0)
(-0.0193977 0.0141921 3.01093e-20)
(-0.0327735 0.014967 0)
(-0.0470477 0.0156565 0)
(-0.0621595 0.0163091 0)
(-0.0780743 0.016946 0)
(-0.0947695 0.0175747 2.68845e-20)
(-0.112227 0.0181956 0)
(-0.130431 0.0188059 0)
(-0.149363 0.0194011 0)
(-0.169006 0.0199757 0)
(-0.189336 0.0205238 0)
(-0.210331 0.0210407 0)
(-0.231964 0.0215243 0)
(-0.254211 0.0219743 2.28757e-20)
(-0.277045 0.022385 -2.24868e-20)
(-0.300431 0.0227328 2.21225e-20)
(-0.324319 0.0229736 2.17828e-20)
(-0.348635 0.0230744 0)
(-0.373306 0.0230883 0)
(-0.398319 0.0232197 -2.09123e-20)
(-0.423734 0.0237921 -2.06713e-20)
(-0.449666 0.0251448 0)
(-0.476608 0.0278166 0)
(-0.505566 0.0329618 -2.00923e-20)
(-0.53627 0.0393518 0)
(-0.56641 0.0363576 0)
(-0.595713 0.0283292 2.01845e-20)
(-0.623564 0.0293554 0)
(-0.653222 0.0352916 2.17315e-20)
(-0.688647 0.0467802 4.29621e-20)
(-0.728263 0.0618187 0)
(-0.770972 0.0515949 0)
(-0.812343 0.0525238 0)
(-0.849045 0.0457713 0)
(-0.886915 0.0282756 0)
(-0.92316 0.0316002 4.01074e-20)
(-0.962028 0.0334151 3.96539e-20)
(-1.00231 0.034195 3.92065e-20)
(-1.04323 0.0346613 0)
(-1.08464 0.0348245 -3.83414e-20)
(-1.12628 0.0348184 0)
(-1.16806 0.0347001 3.75232e-20)
(-1.20987 0.0345057 3.71317e-20)
(-1.25165 0.0342578 0)
(-1.29336 0.0339704 0)
(-1.33495 0.0336526 0)
(-1.37639 0.0333099 3.56702e-20)
(-1.41766 0.0329458 0)
(-1.45872 0.0325623 0)
(-1.49954 0.0321604 0)
(-1.54011 0.0317405 0)
(-1.58039 0.0313027 0)
(-1.62035 0.0308466 0)
(-1.65997 0.0303718 0)
(-1.69921 0.0298779 0)
(-1.73805 0.0293644 -3.28078e-20)
(-1.77645 0.0288309 0)
(-1.81437 0.0282771 0)
(-1.85178 0.0277027 3.1921e-20)
(-1.88865 0.0271077 3.16275e-20)
(-1.92494 0.026492 0)
(-1.96062 0.0258557 -3.10399e-20)
(-1.99563 0.0251993 3.07448e-20)
(-2.02996 0.0245229 0)
(-2.06356 0.023827 -3.01488e-20)
(-2.09639 0.0231123 0)
(-2.12842 0.0223794 0)
(-2.1596 0.021629 2.92325e-20)
(-2.1899 0.0208618 0)
(-2.21929 0.0200787 -2.86005e-20)
(-2.24773 0.0192803 0)
(-2.27518 0.0184676 2.79469e-20)
(-2.30161 0.0176412 2.76108e-20)
(-2.32698 0.0168016 2.72679e-20)
(-2.35126 0.0159493 5.38352e-20)
(-2.37442 0.0150845 -5.31193e-20)
(-2.39642 0.0142071 0)
(-2.41724 0.0133164 0)
(-2.43683 0.0124114 0)
(-2.45516 0.0114902 -5.00856e-20)
(-2.4722 0.0105499 -4.9281e-20)
(-2.48791 0.0095867 4.84565e-20)
(-2.50226 0.00859601 0)
(-2.51518 0.0075724 -4.67462e-20)
(-2.52664 0.00650922 -4.58593e-20)
(-2.53656 0.00540005 -4.49509e-20)
(-2.54488 0.00424441 0)
(-2.55151 0.00305956 0)
(-2.55635 0.00188878 0)
(-2.55926 0.000787281 -4.10977e-20)
(-2.56038 -0.000192559 0)
(-2.5601 -0.00104418 0)
(-2.55833 -0.00186427 3.79357e-20)
(-2.55511 -0.00266987 0)
(-2.55042 -0.00346883 0)
(-2.54425 -0.00426251 3.45384e-20)
(-2.5366 -0.005051 0)
(-2.52745 -0.00583371 0)
(-2.5168 -0.00660987 -3.09019e-20)
(-2.50464 -0.00737864 -2.96367e-20)
(-2.49096 -0.00813915 0)
(-2.47577 -0.00889055 2.70278e-20)
(-2.45906 -0.00963202 0)
(-2.44084 -0.0103627 -2.4316e-20)
(-2.42111 -0.0110819 0)
(-2.39987 -0.0117887 -2.15043e-20)
(-2.37713 -0.0124824 -2.00622e-20)
(-2.35291 -0.0131622 0)
(-2.32721 -0.0138274 0)
(-2.30005 -0.0144773 0)
(-2.27143 -0.0151112 0)
(-2.24139 -0.0157284 0)
(-2.20993 -0.0163285 0)
(-2.17709 -0.0169107 0)
(-2.14287 -0.0174745 -7.74272e-21)
(-2.10731 -0.0180195 6.11734e-21)
(-2.07043 -0.0185451 0)
(-2.03227 -0.0190509 0)
(-1.99284 -0.0195364 0)
(-1.95218 -0.0200011 0)
(-1.91032 -0.0204448 -4.44724e-21)
(-1.8673 -0.0208672 0)
(-1.82316 -0.0212679 1.12756e-20)
(-1.77792 -0.0216469 -1.4713e-20)
(-1.73162 -0.0220039 0)
(-1.68432 -0.0223388 0)
(-1.63603 -0.0226515 0)
(-1.58682 -0.0229419 2.85551e-20)
(-1.53671 -0.0232101 3.20249e-20)
(-1.48575 -0.0234562 0)
(-1.43398 -0.0236804 3.8956e-20)
(-1.38144 -0.0238828 4.24117e-20)
(-1.32819 -0.0240637 -4.58571e-20)
(-1.27425 -0.0242233 0)
(-1.21968 -0.024362 0)
(-1.16452 -0.0244804 -5.61037e-20)
(-1.10881 -0.0245789 0)
(-1.05259 -0.0246579 0)
(-0.995903 -0.0247181 0)
(-0.938791 -0.0247603 0)
(-0.881291 -0.0247851 7.27219e-20)
(-0.823443 -0.0247933 7.59537e-20)
(-0.765283 -0.0247857 0)
(-0.706846 -0.0247632 8.23065e-20)
(-0.648166 -0.0247267 0)
(-0.589274 -0.0246772 0)
(-0.530201 -0.0246155 9.15271e-20)
(-0.470975 -0.0245425 0)
(-0.411622 -0.0244588 9.74455e-20)
(-0.352168 -0.0243646 0)
(-0.292638 -0.02426 0)
(-0.233058 -0.0241427 1.05946e-19)
(-0.173456 -0.0240059 0)
(-0.113861 -0.0238452 1.11344e-19)
(-0.0542986 -0.023655 0)
(0.00520514 -0.0233895 0)
(0.0645045 -0.0230201 0)
(0.123696 -0.0226373 -1.18201e-19)
(0.182779 -0.0222782 0)
(0.241764 -0.0219375 1.19709e-19)
(0.300659 -0.0216049 0)
(0.359449 -0.0212693 0)
(0.418091 -0.0209164 0)
(0.47648 -0.0205225 0)
(0.534437 -0.020042 0)
(0.591463 -0.0193828 0)
(0.647138 -0.0182993 0)
(0.697395 -0.0161626 -2.46713e-19)
(0.746271 -0.0113637 0)
(0.748703 0.00623858 0)
(0.0038426 -0.0268956 1.04125e-19)
(0.00861888 -0.027427 -1.00206e-19)
(0.00873754 -0.0176355 0)
(0.00639583 -0.00669624 6.08475e-20)
(0.00200331 0.00383544 0)
(-0.00418271 0.0132117 2.87233e-20)
(-0.0121655 0.0210539 -5.6056e-20)
(-0.0218572 0.02733 -5.47906e-20)
(-0.033163 0.0322393 0)
(-0.0459506 0.0360927 -5.23482e-20)
(-0.0600692 0.0392096 -2.55836e-20)
(-0.0753752 0.0418379 0)
(-0.0917514 0.0441462 0)
(-0.10911 0.0462417 0)
(-0.127389 0.0481876 0)
(-0.146546 0.0500195 -2.277e-20)
(-0.166552 0.0517557 0)
(-0.18739 0.0534051 4.35381e-20)
(-0.209049 0.0549708 0)
(-0.231525 0.0564534 0)
(-0.254818 0.0578529 -4.09367e-20)
(-0.278933 0.0591709 0)
(-0.303881 0.0604108 3.94392e-20)
(-0.329678 0.061576 -1.94024e-20)
(-0.356344 0.0626642 1.90879e-20)
(-0.38391 0.063663 -1.87973e-20)
(-0.412425 0.0645569 -1.85308e-20)
(-0.441964 0.0653534 0)
(-0.472636 0.0661203 0)
(-0.504552 0.0669906 1.78782e-20)
(-0.537809 0.0681014 -1.76506e-20)
(-0.572508 0.0694918 0)
(-0.608616 0.0710787 0)
(-0.645424 0.0728158 1.74377e-20)
(-0.682479 0.0744707 0)
(-0.721569 0.0746574 0)
(-0.763831 0.0734752 -1.73339e-20)
(-0.80783 0.0754842 0)
(-0.85122 0.0787023 1.71029e-20)
(-0.892763 0.0814847 -3.40107e-20)
(-0.931268 0.0853657 0)
(-0.970106 0.087003 0)
(-1.00931 0.084468 -6.49349e-20)
(-1.05224 0.084657 -6.49517e-20)
(-1.0948 0.0864187 -6.43233e-20)
(-1.13738 0.0881467 3.16963e-20)
(-1.1781 0.0890492 -3.14901e-20)
(-1.21775 0.0892836 -9.32295e-20)
(-1.25678 0.0891005 6.14048e-20)
(-1.29537 0.0886319 3.04384e-20)
(-1.33359 0.087962 0)
(-1.37149 0.0871515 -2.97921e-20)
(-1.40907 0.0862392 2.93368e-20)
(-1.44633 0.0852511 0)
(-1.48328 0.0842042 0)
(-1.5199 0.0831095 0)
(-1.55619 0.0819738 -2.83301e-20)
(-1.59212 0.0808012 0)
(-1.62769 0.0795936 5.54388e-20)
(-1.66288 0.0783518 0)
(-1.69766 0.0770758 5.44068e-20)
(-1.73203 0.0757648 0)
(-1.76595 0.0744181 -5.34077e-20)
(-1.79941 0.0730346 0)
(-1.83238 0.0716133 5.24329e-20)
(-1.86484 0.0701533 -2.59048e-20)
(-1.89676 0.068654 0)
(-1.92811 0.0671149 -5.0999e-20)
(-1.95888 0.0655357 -2.53306e-20)
(-1.98902 0.0639164 -2.50923e-20)
(-2.01852 0.0622573 0)
(-2.04735 0.0605588 -2.44854e-20)
(-2.07547 0.0588218 -2.43729e-20)
(-2.10286 0.0570472 0)
(-2.12948 0.0552362 2.38851e-20)
(-2.15532 0.0533903 -4.71602e-20)
(-2.18034 0.0515108 0)
(-2.20451 0.0495995 -2.31325e-20)
(-2.2278 0.0476582 0)
(-2.2502 0.0456888 6.77396e-20)
(-2.27166 0.0436931 0)
(-2.29216 0.041673 -6.61337e-20)
(-2.31168 0.0396304 -2.17965e-20)
(-2.33019 0.037567 2.14374e-20)
(-2.34765 0.0354844 4.23087e-20)
(-2.36406 0.0333842 -4.17305e-20)
(-2.37938 0.0312674 0)
(-2.39358 0.0291351 0)
(-2.40665 0.0269876 0)
(-2.41856 0.0248251 1.1801e-19)
(-2.42928 0.0226468 3.8702e-20)
(-2.43879 0.0204516 -3.80251e-20)
(-2.44708 0.0182375 0)
(-2.45413 0.0160023 -3.66005e-20)
(-2.45992 0.0137427 3.58965e-20)
(-2.46446 0.0114546 3.51532e-20)
(-2.46778 0.00913431 0)
(-2.4699 0.00679102 0)
(-2.47094 0.00446569 0)
(-2.47099 0.00222263 3.19957e-20)
(-2.46999 8.251e-05 0)
(-2.4676 -0.00196137 -6.06776e-20)
(-2.46384 -0.00396625 -8.83542e-20)
(-2.45866 -0.00594563 5.71613e-20)
(-2.45203 -0.00790648 0)
(-2.44396 -0.00984932 2.68258e-20)
(-2.43441 -0.011773 0)
(-2.42339 -0.0136754 4.96914e-20)
(-2.41088 -0.0155544 -2.39669e-20)
(-2.39687 -0.0174077 -2.2978e-20)
(-2.38138 -0.0192329 0)
(-2.36438 -0.021028 -6.23488e-20)
(-2.34589 -0.0227906 3.95512e-20)
(-2.3259 -0.0245189 1.85715e-20)
(-2.30442 -0.0262108 0)
(-2.28145 -0.0278644 1.63781e-20)
(-2.257 -0.0294779 4.6097e-20)
(-2.23109 -0.0310496 0)
(-2.20371 -0.0325777 2.63007e-20)
(-2.17489 -0.0340607 2.39902e-20)
(-2.14464 -0.0354969 2.16535e-20)
(-2.11297 -0.036885 0)
(-2.07991 -0.0382237 0)
(-2.04548 -0.0395118 0)
(-2.0097 -0.0407483 -6.24877e-21)
(-1.97258 -0.0419321 -4.59483e-21)
(-1.93417 -0.0430624 0)
(-1.89449 -0.0441384 -4.68233e-21)
(-1.85356 -0.0451593 -2.18865e-21)
(-1.81141 -0.0461244 0)
(-1.76809 -0.0470332 3.31815e-21)
(-1.72361 -0.0478854 1.07183e-20)
(-1.67803 -0.0486809 -8.39115e-21)
(-1.63136 -0.0494194 -9.92164e-21)
(-1.58366 -0.0501012 0)
(-1.53496 -0.0507263 0)
(-1.4853 -0.0512949 0)
(-1.43471 -0.0518073 -2.11193e-20)
(-1.38325 -0.0522641 2.25908e-20)
(-1.33095 -0.052666 5.13041e-20)
(-1.27785 -0.053014 -2.87118e-20)
(-1.224 -0.0533088 3.01388e-20)
(-1.16944 -0.0535514 3.37237e-20)
(-1.11421 -0.0537431 0)
(-1.05836 -0.0538852 0)
(-1.00192 -0.0539794 -4.00359e-20)
(-0.94495 -0.0540269 0)
(-0.887477 -0.0540296 0)
(-0.829547 -0.0539892 9.56346e-20)
(-0.7712 -0.0539079 0)
(-0.712475 -0.0537876 5.19813e-20)
(-0.653409 -0.0536304 -5.53774e-20)
(-0.594038 -0.0534386 0)
(-0.534398 -0.0532146 5.88443e-20)
(-0.474521 -0.0529607 0)
(-0.41444 -0.0526792 0)
(-0.354182 -0.0523726 -6.64791e-20)
(-0.293776 -0.0520428 1.36161e-19)
(-0.233248 -0.0516915 -7.06843e-20)
(-0.172621 -0.0513198 0)
(-0.111919 -0.0509266 0)
(-0.0511648 -0.0505104 7.57125e-20)
(0.00961954 -0.0500675 0)
(0.0704099 -0.0495952 7.86473e-20)
(0.131189 -0.0490995 0)
(0.191941 -0.0485819 0)
(0.252647 -0.0480289 0)
(0.313338 -0.0474643 8.3596e-20)
(0.374001 -0.046914 0)
(0.434631 -0.0463775 -8.53454e-20)
(0.495217 -0.0458422 0)
(0.555732 -0.0452886 0)
(0.616122 -0.0446861 1.74372e-19)
(0.676277 -0.0439829 -1.75695e-19)
(0.736011 -0.0430788 0)
(0.794891 -0.0417799 0)
(0.852467 -0.0395876 0)
(0.90621 -0.0355507 5.42321e-19)
(0.958685 -0.026444 0)
(0.989286 -0.00435542 -3.68949e-19)
(0.00133802 -0.0337554 -3.94584e-23)
(-0.000887296 -0.0235988 1.30033e-19)
(-0.00638331 -0.0082746 0)
(-0.0131592 0.00614741 -1.12534e-19)
(-0.0211978 0.0193165 0)
(-0.0303416 0.0310974 0)
(-0.0405588 0.0413951 1.13567e-23)
(-0.0518913 0.050198 4.87235e-20)
(-0.064389 0.0576157 4.75308e-20)
(-0.0780674 0.0638529 4.64319e-20)
(-0.0929007 0.0691533 0)
(-0.108836 0.073748 0)
(-0.125815 0.0778285 -4.3321e-20)
(-0.14378 0.081539 -8.47097e-20)
(-0.162687 0.0849819 8.285e-20)
(-0.182503 0.0882262 0)
(-0.203205 0.0913175 7.93628e-20)
(-0.224784 0.0942854 -3.88843e-20)
(-0.247233 0.09715 0)
(-0.270559 0.0999261 7.47369e-20)
(-0.294771 0.102627 3.66939e-20)
(-0.319883 0.105265 -7.20573e-20)
(-0.345918 0.107856 -3.54341e-20)
(-0.372898 0.110415 0)
(-0.400849 0.112956 6.86246e-20)
(-0.429805 0.115493 6.76295e-20)
(-0.459805 0.118045 0)
(-0.490896 0.120658 6.58442e-20)
(-0.523117 0.123411 0)
(-0.556468 0.126402 6.43001e-20)
(-0.590879 0.129691 3.1824e-20)
(-0.626255 0.133249 0)
(-0.662436 0.136944 0)
(-0.698988 0.140519 0)
(-0.735495 0.143419 0)
(-0.772554 0.145205 0)
(-0.810659 0.146542 0)
(-0.84921 0.148198 5.9378e-20)
(-0.887438 0.150078 -8.79892e-20)
(-0.924733 0.152042 0)
(-0.960366 0.153303 0)
(-0.995215 0.152688 0)
(-1.03033 0.15105 1.70465e-23)
(-1.06601 0.149015 5.50993e-20)
(-1.10183 0.146698 1.08848e-19)
(-1.13751 0.145051 -1.0746e-19)
(-1.17256 0.143681 -5.30131e-20)
(-1.2071 0.142315 5.24194e-20)
(-1.24123 0.140879 -7.52554e-23)
(-1.27504 0.139348 5.10714e-20)
(-1.30857 0.137727 0)
(-1.34185 0.136026 4.98677e-20)
(-1.37489 0.134258 -8.37438e-23)
(-1.40772 0.132432 0)
(-1.44032 0.130556 0)
(-1.47269 0.128633 -4.76484e-20)
(-1.50483 0.126666 0)
(-1.53671 0.124657 0)
(-1.56833 0.122604 4.60256e-20)
(-1.59966 0.120505 9.12584e-20)
(-1.63069 0.118361 -4.5243e-20)
(-1.6614 0.116167 0)
(-1.69177 0.113923 4.4305e-20)
(-1.72177 0.111626 0)
(-1.75138 0.109274 4.32012e-20)
(-1.78058 0.106867 4.29402e-20)
(-1.80933 0.104403 -8.47996e-20)
(-1.83762 0.101881 -4.18639e-20)
(-1.86542 0.0993013 0)
(-1.89268 0.0966635 8.21508e-20)
(-1.9194 0.0939682 0)
(-1.94554 0.0912164 1.20677e-19)
(-1.97106 0.0884091 7.95136e-20)
(-1.99595 0.0855481 7.86304e-20)
(-2.02016 0.082635 -7.77429e-20)
(-2.04367 0.0796721 1.15352e-19)
(-2.06646 0.0766616 0)
(-2.08848 0.0736062 0)
(-2.10972 0.0705085 -7.41234e-20)
(-2.13013 0.0673713 -1.09858e-19)
(-2.1497 0.0641974 0)
(-2.1684 0.0609899 3.57089e-20)
(-2.18619 0.0577515 0)
(-2.20305 0.054485 -1.04079e-19)
(-2.21895 0.051193 -9.23931e-23)
(-2.23386 0.0478781 8.38648e-23)
(-2.24777 0.0445425 6.63055e-20)
(-2.26065 0.0411882 0)
(-2.27247 0.0378171 -6.41819e-20)
(-2.2832 0.0344306 -4.70804e-23)
(-2.29284 0.0310305 0)
(-2.30136 0.0276182 0)
(-2.30874 0.0241959 0)
(-2.31497 0.0207667 5.85114e-20)
(-2.32005 0.0173358 0)
(-2.32396 0.0139115 0)
(-2.32671 0.0105062 0)
(-2.3283 0.00713711 0)
(-2.32871 0.00382348 0)
(-2.32793 0.000576916 5.08829e-20)
(-2.32588 -0.00263115 0)
(-2.32248 -0.00582955 4.80338e-20)
(-2.31774 -0.00901015 4.66016e-20)
(-2.31161 -0.0121693 -4.5144e-20)
(-2.30408 -0.0153038 0)
(-2.29515 -0.0184098 -4.21525e-20)
(-2.28478 -0.0214836 0)
(-2.27299 -0.0245214 -3.90603e-20)
(-2.25975 -0.0275191 3.74772e-20)
(-2.24506 -0.030473 1.07963e-19)
(-2.22892 -0.0333794 0)
(-2.21133 -0.0362347 9.81523e-20)
(-2.19228 -0.0390354 3.13286e-20)
(-2.17177 -0.0417783 0)
(-2.14982 -0.0444602 5.54421e-20)
(-2.12642 -0.0470782 5.1982e-20)
(-2.10158 -0.0496293 -7.24693e-20)
(-2.07531 -0.0521108 0)
(-2.04762 -0.05452 -2.04105e-20)
(-2.01853 -0.0568542 -1.85961e-20)
(-1.98805 -0.0591112 -5.0884e-20)
(-1.95619 -0.0612887 0)
(-1.92298 -0.0633847 0)
(-1.88842 -0.0653973 0)
(-1.85256 -0.0673249 -9.96307e-21)
(-1.8154 -0.0691662 0)
(-1.77698 -0.0709196 0)
(-1.73731 -0.0725841 3.59726e-21)
(-1.69644 -0.0741585 1.67964e-21)
(-1.65438 -0.0756419 0)
(-1.61118 -0.0770336 0)
(-1.56685 -0.0783331 -8.19949e-21)
(-1.52145 -0.0795402 0)
(-1.47499 -0.0806551 1.59228e-20)
(-1.42752 -0.0816778 1.89962e-20)
(-1.37908 -0.0826088 0)
(-1.3297 -0.0834485 0)
(-1.27943 -0.0841976 -3.05057e-20)
(-1.2283 -0.084857 -8.14462e-22)
(-1.17635 -0.0854282 -8.19693e-22)
(-1.12363 -0.0859126 0)
(-1.07017 -0.0863118 -9.215e-20)
(-1.01603 -0.0866276 0)
(-0.961228 -0.0868619 0)
(-0.905821 -0.0870171 0)
(-0.849848 -0.0870959 6.12828e-20)
(-0.793349 -0.0871008 0)
(-0.736364 -0.0870345 -1.35311e-19)
(-0.678934 -0.0869001 -7.20368e-20)
(-0.621097 -0.086701 0)
(-0.56289 -0.0864406 -7.90112e-20)
(-0.504352 -0.0861223 0)
(-0.445516 -0.0857498 0)
(-0.386418 -0.0853271 -2.65794e-19)
(-0.327088 -0.0848579 1.83225e-19)
(-0.267556 -0.084346 0)
(-0.207853 -0.0837952 1.96067e-19)
(-0.148003 -0.0832089 -1.01958e-19)
(-0.088031 -0.0825896 0)
(-0.0279604 -0.0819403 0)
(0.0321882 -0.0812625 0)
(0.0923943 -0.0805559 -3.36338e-19)
(0.152641 -0.0798193 0)
(0.212911 -0.0790527 -1.16472e-19)
(0.273197 -0.0782619 0)
(0.333499 -0.0774598 0)
(0.393838 -0.0766568 0)
(0.454214 -0.0758592 0)
(0.51461 -0.0750735 0)
(0.575007 -0.0742951 0)
(0.635387 -0.0735079 -2.54806e-19)
(0.695716 -0.0726836 0)
(0.755937 -0.0717756 -1.30761e-19)
(0.815945 -0.0707038 3.94832e-19)
(0.875564 -0.0693199 0)
(0.934433 -0.0673421 0)
(0.992214 -0.0641569 -2.69932e-19)
(1.04721 -0.0585956 -2.7346e-19)
(1.10208 -0.0477362 2.75454e-19)
(1.14479 -0.0253254 2.80247e-19)
(-0.00220062 -0.0276934 -2.05465e-19)
(-0.00948319 -0.00977029 -1.90582e-19)
(-0.0184911 0.0086528 -1.14853e-19)
(-0.0283147 0.0250401 -5.29119e-20)
(-0.0390168 0.0398541 0)
(-0.0503915 0.0532183 9.54392e-20)
(-0.0624399 0.0651603 -4.60539e-20)
(-0.0752446 0.075712 0)
(-0.0888924 0.0849596 -4.35541e-20)
(-0.103447 0.0930488 0)
(-0.11894 0.100163 8.30047e-20)
(-0.135379 0.106492 0)
(-0.152752 0.11221 3.96716e-20)
(-0.171038 0.117463 7.76215e-20)
(-0.190219 0.122366 -7.59715e-20)
(-0.210274 0.127003 0)
(-0.231193 0.131439 -7.28859e-20)
(-0.252967 0.135717 0)
(-0.275595 0.139871 0)
(-0.299079 0.143926 -6.87891e-20)
(-0.323424 0.147905 0)
(-0.348637 0.151825 5.32863e-24)
(-0.374724 0.155704 0)
(-0.401688 0.159556 0)
(-0.429529 0.163392 -5.02372e-24)
(-0.458241 0.167223 -6.23437e-20)
(-0.487812 0.171057 -6.14536e-20)
(-0.518213 0.174908 -6.06144e-20)
(-0.549392 0.17879 0)
(-0.581254 0.182704 -1.1804e-19)
(-0.613656 0.186612 0)
(-0.64643 0.190412 -5.75197e-20)
(-0.679395 0.193956 0)
(-0.712359 0.197063 0)
(-0.745194 0.199476 5.53603e-20)
(-0.777993 0.200999 0)
(-0.810876 0.201892 -5.38922e-20)
(-0.843685 0.202532 7.73075e-24)
(-0.876174 0.202948 1.04788e-19)
(-0.90817 0.203138 -1.03302e-19)
(-0.939542 0.202883 0)
(-0.970457 0.201778 0)
(-1.0013 0.200004 -4.94997e-20)
(-1.03221 0.197849 0)
(-1.06313 0.195452 -4.81522e-20)
(-1.09399 0.193144 4.74913e-20)
(-1.12469 0.190914 4.68473e-20)
(-1.15521 0.188709 0)
(-1.18555 0.186492 -4.56142e-20)
(-1.21572 0.184241 -4.50245e-20)
(-1.24574 0.181947 8.88446e-20)
(-1.27562 0.179605 -4.38951e-20)
(-1.30537 0.177215 -4.33537e-20)
(-1.33498 0.174776 0)
(-1.36445 0.172288 0)