# vtk DataFile Version 2.0
tracks
ASCII
DATASET POLYDATA
POINTS 372 float
-0.0157577 0.00742367 -0.00794353 0.0873938 0.00742367 -0.00794353 0.190545 0.00742367 -0.00794353 0.293697 0.00742367
-0.00794353 0.396848 0.00742367 -0.00794353 0.5 0.00742367 -0.00794353 -0.0552566 -0.0275215 -0.0144988
0.0557947 -0.0275215 -0.0144988 0.166846 -0.0275215 -0.0144988 0.277897 -0.0275215 -0.0144988 0.388949
-0.0275215 -0.0144988 0.5 -0.0275215 -0.0144988 0.00262217 0.0612232 0.035695 0.102098 0.0612232
0.035695 0.201573 0.0612232 0.035695 0.301049 0.0612232 0.035695 0.400524 0.0612232 0.035695
0.5 0.0612232 0.035695 0.0513947 0.0448498 -0.0318308 0.141116 0.0448498 -0.0318308 0.230837
0.0448498 -0.0318308 0.320558 0.0448498 -0.0318308 0.410279 0.0448498 -0.0318308 0.5 0.0448498
-0.0318308 0.0520999 0.0260698 -0.0278573 0.14168 0.0260698 -0.0278573 0.23126 0.0260698 -0.0278573
0.32084 0.0260698 -0.0278573 0.41042 0.0260698 -0.0278573 0.5 0.0260698 -0.0278573 -0.0100354
-0.0585308 -0.0317273 0.0919717 -0.0585308 -0.0317273 0.193979 -0.0585308 -0.0317273 0.295986 -0.0585308
-0.0317273 0.397993 -0.0585308 -0.0317273 0.5 -0.0585308 -0.0317273 -0.0200621 0.0102702 -0.00588116
0.0839503 0.0102702 -0.00588116 0.187963 0.0102702 -0.00588116 0.291975 0.0102702 -0.00588116 0.395988
0.0102702 -0.00588116 0.5 0.0102702 -0.00588116 -0.0337029 0.0414896 0.027204 0.0730377 0.0414896
0.027204 0.179778 0.0414896 0.027204 0.286519 0.0414896 0.027204 0.393259 0.0414896 0.027204
0.5 0.0414896 0.027204 -0.0294496 -0.0470097 0.0311583 0.0764403 -0.0470097 0.0311583 0.18233
-0.0470097 0.0311583 0.28822 -0.0470097 0.0311583 0.39411 -0.0470097 0.0311583 0.5 -0.0470097
0.0311583 -0.0054676 -0.000702951 0.0254975 0.0956259 -0.000702951 0.0254975 0.196719 -0.000702951 0.0254975
0.297813 -0.000702951 0.0254975 0.398906 -0.000702951 0.0254975 0.5 -0.000702951 0.0254975 -0.0183089
-0.0152256 0.0132423 0.0853528 -0.0152256 0.0132423 0.189015 -0.0152256 0.0132423 0.292676 -0.0152256
0.0132423 0.396338 -0.0152256 0.0132423 0.5 -0.0152256 0.0132423 0.056405 -0.0630517 -0.0492329
0.145124 -0.0630517 -0.0492329 0.233843 -0.0630517 -0.0492329 0.322562 -0.0630517 -0.0492329 0.411281
-0.0630517 -0.0492329 0.5 -0.0630517 -0.0492329 0.0248037 -0.0026235 -0.0213605 0.119843 -0.0026235
-0.0213605 0.214882 -0.0026235 -0.0213605 0.309922 -0.0026235 -0.0213605 0.404961 -0.0026235 -0.0213605
0.5 -0.0026235 -0.0213605 0.0796609 0.00999389 -0.0391905 0.163729 0.00999389 -0.0391905 0.247797
0.00999389 -0.0391905 0.331864 0.00999389 -0.0391905 0.415932 0.00999389 -0.0391905 0.5 0.00999389
-0.0391905 0.0597657 0.0461435 0.0297865 0.147813 0.0461435 0.0297865 0.235859 0.0461435 0.0297865
0.323906 0.0461435 0.0297865 0.411953 0.0461435 0.0297865 0.5 0.0461435 0.0297865 0.0697717
0.015046 0.0136028 0.155817 0.015046 0.0136028 0.241863 0.015046 0.0136028 0.327909 0.015046
0.0136028 0.413954 0.015046 0.0136028 0.5 0.015046 0.0136028 -0.086583 0.0166464 -0.0185703
0.0307336 0.0166464 -0.0185703 0.14805 0.0166464 -0.0185703 0.265367 0.0166464 -0.0185703 0.382683
0.0166464 -0.0185703 0.5 0.0166464 -0.0185703 -0.0537611 -0.0658253 0.0387233 0.0569911 -0.0658253
0.0387233 0.167743 -0.0658253 0.0387233 0.278496 -0.0658253 0.0387233 0.389248 -0.0658253 0.0387233
0.5 -0.0658253 0.0387233 0.0711469 0.06534 -0.0228296 0.156918 0.06534 -0.0228296 0.242688
0.06534 -0.0228296 0.328459 0.06534 -0.0228296 0.414229 0.06534 -0.0228296 0.5 0.06534
-0.0228296 0.0540343 -0.0245593 -0.0280972 0.143227 -0.0245593 -0.0280972 0.232421 -0.0245593 -0.0280972
0.321614 -0.0245593 -0.0280972 0.410807 -0.0245593 -0.0280972 0.5 -0.0245593 -0.0280972 -0.0432524
0.00507651 0.0171201 0.0653981 0.00507651 0.0171201 0.174049 0.00507651 0.0171201 0.282699 0.00507651
0.0171201 0.39135 0.00507651 0.0171201 0.5 0.00507651 0.0171201 0.00443311 0.0161046 0.0320453
0.103546 0.0161046 0.0320453 0.20266 0.0161046 0.0320453 0.301773 0.0161046 0.0320453 0.400887
0.0161046 0.0320453 0.5 0.0161046 0.0320453 -0.009037 -0.00520419 -0.0474015 0.0927704 -0.00520419
-0.0474015 0.194578 -0.00520419 -0.0474015 0.296385 -0.00520419 -0.0474015 0.398193 -0.00520419 -0.0474015
0.5 -0.00520419 -0.0474015 0.0224571 0.0521111 0.0176072 0.117966 0.0521111 0.0176072 0.213474
0.0521111 0.0176072 0.308983 0.0521111 0.0176072 0.404491 0.0521111 0.0176072 0.5 0.0521111
0.0176072 -0.0716317 0.00459421 -0.045165 0.0426946 0.00459421 -0.045165 0.157021 0.00459421 -0.045165
0.271347 0.00459421 -0.045165 0.385674 0.00459421 -0.045165 0.5 0.00459421 -0.045165 0.059148
-0.0368654 -0.0241244 0.147318 -0.0368654 -0.0241244 0.235489 -0.0368654 -0.0241244 0.323659 -0.0368654
-0.0241244 0.41183 -0.0368654 -0.0241244 0.5 -0.0368654 -0.0241244 -0.0539486 -0.0644212 -0.0017235
0.0568411 -0.0644212 -0.0017235 0.167631 -0.0644212 -0.0017235 0.278421 -0.0644212 -0.0017235 0.38921
-0.0644212 -0.0017235 0.5 -0.0644212 -0.0017235 -0.0187397 -0.0184399 0.00112185 0.0850082 -0.0184399
0.00112185 0.188756 -0.0184399 0.00112185 0.292504 -0.0184399 0.00112185 0.396252 -0.0184399 0.00112185
0.5 -0.0184399 0.00112185 -0.00623503 0.0353682 -0.0301644 0.095012 0.0353682 -0.0301644 0.196259
0.0353682 -0.0301644 0.297506 0.0353682 -0.0301644 0.398753 0.0353682 -0.0301644 0.5 0.0353682
-0.0301644 0.0324871 -0.0881539 -0.0252286 0.12599 -0.0881539 -0.0252286 0.219492 -0.0881539 -0.0252286
0.312995 -0.0881539 -0.0252286 0.406497 -0.0881539 -0.0252286 0.5 -0.0881539 -0.0252286 -0.0587115
-0.0557811 -0.0469868 0.0530308 -0.0557811 -0.0469868 0.164773 -0.0557811 -0.0469868 0.276515 -0.0557811
-0.0469868 0.388258 -0.0557811 -0.0469868 0.5 -0.0557811 -0.0469868 0.0312259 -0.0263014 0.0451394
0.124981 -0.0263014 0.0451394 0.218736 -0.0263014 0.0451394 0.31249 -0.0263014 0.0451394 0.406245
-0.0263014 0.0451394 0.5 -0.0263014 0.0451394 0.0583112 -0.0412055 0.0332674 0.146649 -0.0412055
0.0332674 0.234987 -0.0412055 0.0332674 0.323324 -0.0412055 0.0332674 0.411662 -0.0412055 0.0332674
0.5 -0.0412055 0.0332674 0.0133102 -0.0869754 -0.0212048 0.110648 -0.0869754 -0.0212048 0.207986
-0.0869754 -0.0212048 0.305324 -0.0869754 -0.0212048 0.402662 -0.0869754 -0.0212048 0.5 -0.0869754
-0.0212048 -0.0112531 0.0653715 -0.00295841 0.0909975 0.0653715 -0.00295841 0.193248 0.0653715 -0.00295841
0.295499 0.0653715 -0.00295841 0.397749 0.0653715 -0.00295841 0.5 0.0653715 -0.00295841 -0.0502152
-0.0347983 -0.0202752 0.0598279 -0.0347983 -0.0202752 0.169871 -0.0347983 -0.0202752 0.279914 -0.0347983
-0.0202752 0.389957 -0.0347983 -0.0202752 0.5 -0.0347983 -0.0202752 -0.0279695 0.0828643 -0.00123982
0.0776244 0.0828643 -0.00123982 0.183218 0.0828643 -0.00123982 0.288812 0.0828643 -0.00123982 0.394406
0.0828643 -0.00123982 0.5 0.0828643 -0.00123982 0.0266412 -0.000109371 0.0317436 0.121313 -0.00010937
0.0317436 0.215985 -0.00010937 0.0317436 0.310656 -0.00010937 0.0317436 0.405328 -0.00010937 0.0317436
0.5 -0.00010937 0.0317436 -0.0527967 0.0687878 0.0288395 0.0577626 0.0687878 0.0288395 0.168322
0.0687878 0.0288395 0.278881 0.0687878 0.0288395 0.389441 0.0687878 0.0288395 0.5 0.0687878
0.0288395 -0.0835859 -0.0319151 0.00495022 0.0331313 -0.0319151 0.00495022 0.149848 -0.0319151 0.00495022
0.266566 -0.0319151 0.00495022 0.383283 -0.0319151 0.00495022 0.5 -0.0319151 0.00495022 -0.0707129
0.0181568 -0.0225462 0.0434297 0.0181568 -0.0225462 0.157572 0.0181568 -0.0225462 0.271715 0.0181568
-0.0225462 0.385857 0.0181568 -0.0225462 0.5 0.0181568 -0.0225462 0.00773185 0.00305197 -0.0272641
0.106185 0.00305197 -0.0272641 0.204639 0.00305197 -0.0272641 0.303093 0.00305197 -0.0272641 0.401546
0.00305197 -0.0272641 0.5 0.00305197 -0.0272641 0.0590406 -0.0264709 0.0461517 0.147233 -0.0264709
0.0461517 0.235424 -0.0264709 0.0461517 0.323616 -0.0264709 0.0461517 0.411808 -0.0264709 0.0461517
0.5 -0.0264709 0.0461517 0.0683836 -0.0317475 0.0204757 0.154707 -0.0317475 0.0204757 0.24103
-0.0317475 0.0204757 0.327353 -0.0317475 0.0204757 0.413677 -0.0317475 0.0204757 0.5 -0.0317475
0.0204757 -0.00485782 0.0720885 -0.00248508 0.0961137 0.0720885 -0.00248508 0.197085 0.0720885 -0.00248508
0.298057 0.0720885 -0.00248508 0.399028 0.0720885 -0.00248508 0.5 0.0720885 -0.00248508 0.0395853
-0.0446834 -0.0188915 0.131668 -0.0446834 -0.0188915 0.223751 -0.0446834 -0.0188915 0.315834 -0.0446834
-0.0188915 0.407917 -0.0446834 -0.0188915 0.5 -0.0446834 -0.0188915 0.0612194 0.0194136 -0.0487607
0.148976 0.0194136 -0.0487607 0.236732 0.0194136 -0.0487607 0.324488 0.0194136 -0.0487607 0.412244
0.0194136 -0.0487607 0.5 0.0194136 -0.0487607 -0.00328988 -0.0505838 -0.0427458 0.0973681 -0.0505838
-0.0427458 0.198026 -0.0505838 -0.0427458 0.298684 -0.0505838 -0.0427458 0.399342 -0.0505838 -0.0427458
0.5 -0.0505838 -0.0427458 0.0592316 -0.0348513 0.0287487 0.147385 -0.0348513 0.0287487 0.235539
-0.0348513 0.0287487 0.323693 -0.0348513 0.0287487 0.411846 -0.0348513 0.0287487 0.5 -0.0348513
0.0287487 -0.0165334 0.0833442 0.0182878 0.0867733 0.0833442 0.0182878 0.19008 0.0833442 0.0182878
0.293387 0.0833442 0.0182878 0.396693 0.0833442 0.0182878 0.5 0.0833442 0.0182878 0.0734117
-0.0375181 0.0183654 0.158729 -0.0375181 0.0183654 0.244047 -0.0375181 0.0183654 0.329365 -0.0375181
0.0183654 0.414682 -0.0375181 0.0183654 0.5 -0.0375181 0.0183654 -0.0201883 -0.0144292 0.00527532
0.0838493 -0.0144292 0.00527532 0.187887 -0.0144292 0.00527532 0.291925 -0.0144292 0.00527532 0.395962
-0.0144292 0.00527532 0.5 -0.0144292 0.00527532 -0.0663066 -0.0545197 -0.0308222 0.0469548 -0.0545197
-0.0308222 0.160216 -0.0545197 -0.0308222 0.273477 -0.0545197 -0.0308222 0.386739 -0.0545197 -0.0308222
0.5 -0.0545197 -0.0308222 -0.085493 -0.0282763 -0.0302959 0.0316056 -0.0282763 -0.0302959 0.148704
-0.0282763 -0.0302959 0.265803 -0.0282763 -0.0302959 0.382901 -0.0282763 -0.0302959 0.5 -0.0282763
-0.0302959 -0.0831036 -0.0148948 -0.0174146 0.0335171 -0.0148948 -0.0174146 0.150138 -0.0148948 -0.0174146
0.266759 -0.0148948 -0.0174146 0.383379 -0.0148948 -0.0174146 0.5 -0.0148948 -0.0174146 0.0215284
-0.0413852 0.0360464 0.117223 -0.0413852 0.0360464 0.212917 -0.0413852 0.0360464 0.308611 -0.0413852
0.0360464 0.404306 -0.0413852 0.0360464 0.5 -0.0413852 0.0360464 -0.0666363 0.00881849 -0.020819
0.046691 0.00881849 -0.020819 0.160018 0.00881849 -0.020819 0.273345 0.00881849 -0.020819 0.386673
0.00881849 -0.020819 0.5 0.00881849 -0.020819 0.0319405 -0.0520493 0.00149002 0.125552 -0.0520493
0.00149002 0.219164 -0.0520493 0.00149002 0.312776 -0.0520493 0.00149002 0.406388 -0.0520493 0.00149002
0.5 -0.0520493 0.00149002 -0.0101618 -0.0283151 -0.0445384 0.0918706 -0.0283151 -0.0445384 0.193903
-0.0283151 -0.0445384 0.295935 -0.0283151 -0.0445384 0.397968 -0.0283151 -0.0445384 0.5 -0.0283151
-0.0445384 0.0285723 0.0705399 0.00926397 0.122858 0.0705399 0.00926397 0.217143 0.0705399 0.00926397
0.311429 0.0705399 0.00926397 0.405714 0.0705399 0.00926397 0.5 0.0705399 0.00926397 -0.0604703
-0.0451746 0.00257515 0.0516238 -0.0451746 0.00257515 0.163718 -0.0451746 0.00257515 0.275812 -0.0451746
0.00257515 0.387906 -0.0451746 0.00257515 0.5 -0.0451746 0.00257515 -0.0599304 0.0720776 0.0136766
0.0520556 0.0720776 0.0136766 0.164042 0.0720776 0.0136766 0.276028 0.0720776 0.0136766 0.388014
0.0720776 0.0136766 0.5 0.0720776 0.0136766 
LINES 62 434
6 0 1 2 3 4 5 6 6 7 8
9 10 11 6 12 13 14 15 16 17
6 18 19 20 21 22 23 6 24 25
26 27 28 29 6 30 31 32 33 34
35 6 36 37 38 39 40 41 6 42
43 44 45 46 47 6 48 49 50 51
52 53 6 54 55 56 57 58 59 6
60 61 62 63 64 65 6 66 67 68
69 70 71 6 72 73 74 75 76 77
6 78 79 80 81 82 83 6 84 85
86 87 88 89 6 90 91 92 93 94
95 6 96 97 98 99 100 101 6 102
103 104 105 106 107 6 108 109 110 111
112 113 6 114 115 116 117 118 119 6
120 121 122 123 124 125 6 126 127 128
129 130 131 6 132 133 134 135 136 137
6 138 139 140 141 142 143 6 144 145
146 147 148 149 6 150 151 152 153 154
155 6 156 157 158 159 160 161 6 162
163 164 165 166 167 6 168 169 170 171
172 173 6 174 175 176 177 178 179 6
180 181 182 183 184 185 6 186 187 188
189 190 191 6 192 193 194 195 196 197
6 198 199 200 201 202 203 6 204 205
206 207 208 209 6 210 211 212 213 214
215 6 216 217 218 219 220 221 6 222
223 224 225 226 227 6 228 229 230 231
232 233 6 234 235 236 237 238 239 6
240 241 242 243 244 245 6 246 247 248
249 250 251 6 252 253 254 255 256 257
6 258 259 260 261 262 263 6 264 265
266 267 268 269 6 270 271 272 273 274
275 6 276 277 278 279 280 281 6 282
283 284 285 286 287 6 288 289 290 291
292 293 6 294 295 296 297 298 299 6
300 301 302 303 304 305 6 306 307 308
309 310 311 6 312 313 314 315 316 317
6 318 319 320 321 322 323 6 324 325
326 327 328 329 6 330 331 332 333 334
335 6 336 337 338 339 340 341 6 342
343 344 345 346 347 6 348 349 350 351
352 353 6 354 355 356 357 358 359 6
360 361 362 363 364 365 6 366 367 368
369 370 371 
POINT_DATA 372
FIELD attributes 3
age 1 372 float
0 0.0129848 0.026083 0.0408503 0.0577743 0.0775926 0 0.0150508 0.0301019 0.0455479 0.0633693
0.0844296 0 0.0179254 0.0358511 0.053777 0.0717031 0.0909324 0 0.0152514 0.030503
0.0457547 0.0610571 0.0786877 0 0.0143888 0.0287778 0.0431669 0.0584517 0.0760587 0
0.0173134 0.0346271 0.051941 0.0692551 0.0888908 0 0.0128063 0.0259641 0.0408073 0.0578311
0.0777863 0 0.0169912 0.0339827 0.0509743 0.068311 0.0886976 0 0.0178239 0.035648
0.0534724 0.071297 0.0915495 0 0.0157238 0.0314478 0.0471719 0.0638555 0.083345 0
0.0138459 0.027692 0.0425043 0.0594875 0.0793871 0 0.0202498 0.0404998 0.0607502 0.0810008
0.101252 0 0.0140046 0.0280094 0.0420371 0.0579967 0.0765054 0 0.0160198 0.0320398
0.04806 0.0640804 0.0807599 0 0.0145311 0.0290624 0.0435938 0.058685 0.0760359 0
0.011541 0.0233527 0.0365049 0.051341 0.0683553 0 0.0166948 0.0333899 0.0500852 0.0685909
0.0906136 0 0.0209434 0.0418872 0.0628313 0.0837757 0.10479 0 0.0128795 0.0257591
0.0388836 0.0536843 0.0706523 0 0.0143745 0.0287491 0.0431239 0.05836 0.0759025 0
0.0151912 0.0303825 0.0456264 0.0631793 0.0838655 0 0.016901 0.0338023 0.0507038 0.0676054
0.0867763 0 0.0224279 0.0448562 0.0672849 0.089714 0.112143 0 0.0134327 0.0268656
0.0409373 0.056954 0.0755394 0 0.0241585 0.0483175 0.072477 0.0966368 0.120797 0
0.0134657 0.0269316 0.0403976 0.0555045 0.072876 0 0.0137225 0.0274451 0.0428693 0.0606616
0.0816813 0 0.0122521 0.0253917 0.0402116 0.0572048 0.077118 0 0.0167999 0.0336
0.0504003 0.0672009 0.0867149 0 0.0144909 0.0289819 0.0434731 0.0592449 0.0775015 0
0.0244239 0.0488482 0.0732729 0.0976981 0.122124 0 0.0198026 0.0396055 0.0594087 0.0792122
0.099016 0 0.0153395 0.0306792 0.046019 0.061359 0.0787586 0 0.014315 0.0286301
0.0429454 0.0591829 0.0780663 0 0.0126777 0.025713 0.0404004 0.0572194 0.0768941 0
0.0159947 0.0319895 0.0479846 0.0656937 0.0865972 0 0.0133419 0.026684 0.0416654 0.0588711
0.0790769 0 0.0160723 0.0321449 0.0482176 0.0642905 0.082739 0 0.0180035 0.0360072
0.0540112 0.0720154 0.0929993 0 0.0147589 0.0289888 0.0448983 0.0633396 0.085271 0
0.0170769 0.034154 0.0512313 0.0693934 0.0909309 0 0.0156851 0.0313704 0.0470559 0.0634269
0.0824911 0 0.0189778 0.0379559 0.0569343 0.0759129 0.0948918 0 0.0125788 0.0251578
0.038338 0.0532096 0.0702708 0 0.0126098 0.0255548 0.0401278 0.056797 0.0762669 0
0.013156 0.0263121 0.0400588 0.0556556 0.0736781 0 0.0198455 0.0396912 0.0595373 0.0793836
0.0992303 0 0.0203718 0.040744 0.0611165 0.0814892 0.101862 0 0.0143368 0.0286738
0.043011 0.0581158 0.0754845 0 0.0146504 0.029301 0.044082 0.0610241 0.0808671 0
0.0121109 0.024222 0.0373006 0.0520431 0.0689345 0 0.0127275 0.0258871 0.0407325 0.0577591
0.0777184 0 0.018972 0.0379443 0.0569168 0.0758896 0.0972916 0 0.0194666 0.0389335
0.0584007 0.0778681 0.0998576 0 0.0163636 0.0327274 0.0490914 0.0675223 0.089439 0
0.0173388 0.0346779 0.0520171 0.0693566 0.0879724 0 0.0165851 0.0331704 0.0497559 0.0678287
0.0892409 0 0.0114436 0.0238491 0.0377419 0.0535272 0.0718017 0 0.0213173 0.042635
0.063953 0.0852713 0.10659 0 0.0120415 0.0244979 0.0384546 0.0543223 0.0727075 0
0.0138256 0.0275225 0.0430552 0.0609922 0.082214 0 0.015033 0.0300661 0.0455899 0.063515
0.0847201 
p 1 372 float
100000 100000 100000 100000 100000 100000 100000 100000 100000 100000 100000
100000 99999.8 99999.8 99999.8 99999.8 99999.8 99999.8 99999.9 99999.9 99999.9
99999.9 99999.9 99999.8 100000 100000 100000 100000 100000 99999.9 100000
100000 100000 100000 100000 100000 100000 100000 100000 100000 100000
100000 99999.9 99999.9 99999.9 99999.9 99999.9 99999.9 100000 100000 100000
100000 100000 100000 100000 100000 100000 100000 100000 100000 100000
100000 100000 100000 100000 100000 100000 100000 100000 100000 100000
100000 100000 100000 100000 100000 100000 100000 100000 100000 100000
100000 100000 100000 99999.9 99999.9 99999.9 99999.9 99999.9 99999.8 100000
100000 100000 100000 100000 100000 100000 100000 100000 100000 100000
100000 100001 100001 100001 100000 100000 100000 99999.8 99999.8 99999.8
99999.8 99999.7 99999.7 100000 100000 100000 100000 100000 100000 100000
100000 100000 100000 100000 100000 100000 100000 100000 100000 100000
100000 100000 100000 100000 100000 100000 100000 99999.9 99999.9 99999.9
99999.8 99999.8 99999.8 100000 100000 100000 100000 100000 100000 100000
100000 100000 100000 100000 100000 100001 100001 100001 100001 100000
100000 100000 100000 100000 100000 100000 100000 100000 100000 99999.9
99999.9 99999.9 99999.9 100001 100001 100001 100001 100001 100001 100000
100000 100000 100000 100000 100000 100000 100000 100000 100000 100000
100000 100000 100000 100000 100000 100000 100000 100001 100001 100001
100001 100001 100001 99999.8 99999.8 99999.8 99999.8 99999.7 99999.7 100000
100000 100000 100000 100000 100000 99999.7 99999.7 99999.7 99999.7 99999.6
99999.6 100000 100000 100000 100000 100000 100000 99999.8 99999.8 99999.8
99999.8 99999.7 99999.7 100000 100000 100000 100000 100000 100000 100000
100000 100000 100000 100000 100000 100000 100000 100000 100000 100000
100000 100000 100000 100000 100000 100000 100000 100000 100000 100000
100000 100000 100000 99999.8 99999.8 99999.7 99999.7 99999.7 99999.7 100000
100000 100000 100000 100000 100000 100000 100000 100000 100000 100000
100000 100000 100000 100000 100000 100000 100000 100000 100000 100000
100000 100000 100000 99999.7 99999.7 99999.7 99999.7 99999.6 99999.6 100000
100000 100000 100000 100000 100000 100000 100000 100000 100000 100000
100000 100000 100000 100000 100000 100000 100000 100000 100000 100000
100000 100000 100000 100000 100000 100000 100000 100000 100000 100000
100000 100000 100000 100000 100000 100000 100000 100000 100000 100000
100000 100000 100000 100000 100000 100000 100000 100000 100000 100000
100000 100000 100000 99999.8 99999.8 99999.8 99999.7 99999.7 99999.7 100000
100000 100000 100000 100000 100000 99999.8 99999.8 99999.8 99999.7 99999.7
99999.7 
U 3 372 float
7.94401 2.94233e-09 0 7.87527 3.07593e-09 0 6.98513 2.72826e-09 0 6.09499 2.38059e-09
0 5.20485 2.03292e-09 0 4.31471 1.68524e-09 0 7.37841 2.54435e-09 0
7.37833 2.7315e-09 0 7.18964 2.80814e-09 0 6.23133 2.43384e-09 0 5.27302
2.05954e-09 0 4.31471 1.68524e-09 0 5.54941 1.57026e-09 0 5.54934 1.7379e-09
0 5.54926 1.90554e-09 0 5.54919 2.07318e-09 0 5.17313 2.02053e-09 0
4.31471 1.68524e-09 0 5.88281 1.84782e-09 0 5.88274 1.99902e-09 0 5.88267
2.15023e-09 0 5.86319 2.29005e-09 0 5.08895 1.98765e-09 0 4.31471 1.68524e-09
0 6.22567 2.0499e-09 0 6.2256 2.20086e-09 0 6.22553 2.35183e-09 0
5.86076 2.2891e-09 0 5.08774 1.98717e-09 0 4.31471 1.68524e-09 0 5.89179
1.74953e-09 0 5.89171 1.92144e-09 0 5.89163 2.09334e-09 0 5.89156 2.26525e-09
0 5.19497 2.02906e-09 0 4.31471 1.68524e-09 0 8.12197 3.03934e-09 0
7.90498 3.08754e-09 0 7.00741 2.73696e-09 0 6.10985 2.38639e-09 0 5.21228
2.03582e-09 0 4.31471 1.68524e-09 0 6.2821 1.93833e-09 0 6.28202 2.11821e-09
0 6.28194 2.2981e-09 0 6.15693 2.40478e-09 0 5.23582 2.04501e-09 0
4.31471 1.68524e-09 0 5.9409 1.74558e-09 0 5.94082 1.92403e-09 0 5.94074
2.10248e-09 0 5.94066 2.28093e-09 0 5.22848 2.04215e-09 0 4.31471 1.68524e-09
0 6.42933 2.07219e-09 0 6.42926 2.24256e-09 0 6.42918 2.41292e-09 0
6.05947 2.36671e-09 0 5.18709 2.02598e-09 0 4.31471 1.68524e-09 0 7.48681
2.67014e-09 0 7.48673 2.84484e-09 0 6.99834 2.73342e-09 0 6.1038 2.38403e-09
0 5.20925 2.03464e-09 0 4.31471 1.68524e-09 0 4.38124 9.76463e-10 0
4.38117 1.12598e-09 0 4.38111 1.27549e-09 0 4.38104 1.425e-09 0 4.38097
1.57452e-09 0 4.31471 1.68524e-09 0 6.78628 2.33236e-09 0 6.78621 2.49253e-09
0 6.77511 2.64623e-09 0 5.95498 2.3259e-09 0 5.13485 2.00557e-09 0
4.31471 1.68524e-09 0 5.24774 1.52337e-09 0 5.24768 1.66504e-09 0 5.24762
1.80672e-09 0 5.24755 1.94839e-09 0 5.04017 1.96859e-09 0 4.31471 1.68524e-09
0 6.0592 1.96528e-09 0 6.05913 2.11366e-09 0 6.05907 2.26204e-09 0
5.8343 2.27877e-09 0 5.07451 1.98201e-09 0 4.31471 1.68524e-09 0 7.45563
2.80035e-09 0 7.28481 2.84531e-09 0 6.54229 2.55529e-09 0 5.79976 2.26528e-09
0 5.05724 1.97526e-09 0 4.31471 1.68524e-09 0 7.02712 2.28571e-09 0
7.02703 2.48342e-09 0 7.02694 2.68112e-09 0 6.33946 2.47607e-09 0 5.32709
2.08066e-09 0 4.31471 1.68524e-09 0 5.28816 1.32214e-09 0 5.28808 1.50879e-09
0 5.28799 1.69543e-09 0 5.28791 1.88208e-09 0 5.27044 2.05853e-09 0
4.31471 1.68524e-09 0 6.65948 2.33619e-09 0 6.65942 2.48073e-09 0 6.53516
2.55251e-09 0 5.79501 2.26342e-09 0 5.05486 1.97433e-09 0 4.31471 1.68524e-09
0 6.20497 2.04103e-09 0 6.2049 2.19134e-09 0 6.20483 2.34165e-09 0
5.85408 2.28649e-09 0 5.0844 1.98587e-09 0 4.31471 1.68524e-09 0 7.15222
2.43205e-09 0 7.15213 2.61515e-09 0 7.12748 2.78386e-09 0 6.18989 2.41765e-09
0 5.2523 2.05145e-09 0 4.31471 1.68524e-09 0 5.86434 1.75784e-09 0
5.86426 1.92487e-09 0 5.86419 2.0919e-09 0 5.86411 2.25893e-09 0 5.17
2.0193e-09 0 4.31471 1.68524e-09 0 4.53931 9.58768e-10 0 4.53924 1.13034e-09
0 4.53916 1.30191e-09 0 4.53908 1.47348e-09 0 4.53901 1.64505e-09 0
4.31471 1.68524e-09 0 7.11014 2.51816e-09 0 7.11007 2.67912e-09 0 6.78726
2.65098e-09 0 5.96308 2.32907e-09 0 5.1389 2.00716e-09 0 4.31471 1.68524e-09
0 4.73234 9.6635e-10 0 4.73225 1.15902e-09 0 4.73216 1.35169e-09 0
4.73208 1.54435e-09 0 4.73199 1.73702e-09 0 4.31471 1.68524e-09 0 6.54776
2.2505e-09 0 6.54769 2.39909e-09 0 6.54763 2.54768e-09 0 5.83643 2.2796e-09
0 5.07557 1.98242e-09 0 4.31471 1.68524e-09 0 8.07359 2.95388e-09 0
8.07351 3.14058e-09 0 7.18287 2.80549e-09 0 6.22681 2.43208e-09 0 5.27076
2.05866e-09 0 4.31471 1.68524e-09 0 8.46774 3.24416e-09 0 7.89585 3.08397e-09
0 7.00057 2.73429e-09 0 6.10528 2.38461e-09 0 5.21 2.03493e-09 0
4.31471 1.68524e-09 0 6.02664 1.83495e-09 0 6.02657 2.00558e-09 0 6.02649
2.1762e-09 0 6.02642 2.34683e-09 0 5.18842 2.0265e-09 0 4.31471 1.68524e-09
0 6.45251 2.14975e-09 0 6.45244 2.30732e-09 0 6.45237 2.4649e-09 0
5.92846 2.31554e-09 0 5.12159 2.00039e-09 0 4.31471 1.68524e-09 0 4.57513
8.96018e-10 0 4.57504 1.08433e-09 0 4.57496 1.27264e-09 0 4.57488 1.46096e-09
0 4.57479 1.64927e-09 0 4.31471 1.68524e-09 0 4.73447 1.14099e-09 0
4.7344 1.29899e-09 0 4.73433 1.45699e-09 0 4.73426 1.61498e-09 0 4.73419
1.77298e-09 0 4.31471 1.68524e-09 0 5.75884 1.78685e-09 0 5.75878 1.93572e-09
0 5.75871 2.08459e-09 0 5.75865 2.23346e-09 0 5.07702 1.98299e-09 0
4.31471 1.68524e-09 0 6.79972 2.32086e-09 0 6.79965 2.4849e-09 0 6.79958
2.64894e-09 0 5.99465 2.3414e-09 0 5.15468 2.01332e-09 0 4.31471 1.68524e-09
0 8.06536 3.02102e-09 0 7.84417 3.06378e-09 0 6.9618 2.71915e-09 0
6.07944 2.37451e-09 0 5.19708 2.02988e-09 0 4.31471 1.68524e-09 0 6.87998
2.26081e-09 0 6.8799 2.44626e-09 0 6.87982 2.6317e-09 0 6.21393 2.42704e-09
0 5.26432 2.05614e-09 0 4.31471 1.68524e-09 0 7.91444 2.90441e-09 0
7.91436 3.08237e-09 0 7.04836 2.75295e-09 0 6.13714 2.39705e-09 0 5.22593
2.04115e-09 0 4.31471 1.68524e-09 0 5.89035 1.81051e-09 0 5.89028 1.97006e-09
0 5.89021 2.1296e-09 0 5.89014 2.28915e-09 0 5.13167 2.00433e-09 0
4.31471 1.68524e-09 0 6.141 1.82347e-09 0 6.14091 2.00979e-09 0 6.14083
2.1961e-09 0 6.14075 2.38242e-09 0 5.26878 2.05788e-09 0 4.31471 1.68524e-09
0 7.90825 2.80704e-09 0 8.20226 3.17605e-09 0 7.33632 2.86543e-09 0
6.32912 2.47203e-09 0 5.32191 2.07864e-09 0 4.31471 1.68524e-09 0 6.68403
2.11144e-09 0 6.68395 2.3038e-09 0 6.68386 2.49616e-09 0 6.28468 2.45468e-09
0 5.2997 2.06996e-09 0 4.31471 1.68524e-09 0 6.27689 2.00512e-09 0
6.27681 2.17104e-09 0 6.27674 2.33696e-09 0 6.01391 2.34892e-09 0 5.16431
2.01708e-09 0 4.31471 1.68524e-09 0 4.6471 1.13668e-09 0 4.64703 1.28531e-09
0 4.64697 1.43393e-09 0 4.6469 1.58256e-09 0 4.64684 1.73118e-09 0
4.31471 1.68524e-09 0 6.86259 2.45053e-09 0 6.86252 2.59601e-09 0 6.54947
2.5581e-09 0 5.80455 2.26715e-09 0 5.05963 1.9762e-09 0 4.31471 1.68524e-09
0 8.0074 2.99784e-09 0 7.80002 3.04654e-09 0 6.92869 2.70622e-09 0
6.05736 2.36589e-09 0 5.18604 2.02557e-09 0 4.31471 1.68524e-09 0 6.99931
2.4821e-09 0 6.99924 2.63728e-09 0 6.69858 2.61634e-09 0 5.90396 2.30597e-09
0 5.10933 1.99561e-09 0 4.31471 1.68524e-09 0 4.42197 1.00845e-09 0
4.42191 1.15634e-09 0 4.42184 1.30423e-09 0 4.42178 1.45212e-09 0 4.42171
1.60001e-09 0 4.31471 1.68524e-09 0 4.94103 1.20383e-09 0 4.94096 1.37347e-09
0 4.94088 1.5431e-09 0 4.94081 1.71273e-09 0 4.94073 1.88237e-09 0
4.31471 1.68524e-09 0 6.14875 2.01685e-09 0 6.14868 2.16541e-09 0 6.14862
2.31397e-09 0 5.83614 2.27949e-09 0 5.07543 1.98237e-09 0 4.31471 1.68524e-09
0 7.05144 2.41804e-09 0 7.05136 2.59214e-09 0 6.98914 2.72983e-09 0
6.09767 2.38163e-09 0 5.20619 2.03344e-09 0 4.31471 1.68524e-09 0 7.04468
2.5657e-09 0 7.04461 2.70948e-09 0 6.52344 2.54793e-09 0 5.7872 2.26037e-09
0 5.05095 1.97281e-09 0 4.31471 1.68524e-09 0 8.17425 3.06976e-09 0
7.90585 3.08788e-09 0 7.00807 2.73722e-09 0 6.11028 2.38656e-09 0 5.2125
2.0359e-09 0 4.31471 1.68524e-09 0 5.96992 1.70046e-09 0 5.96984 1.89133e-09
0 5.96975 2.0822e-09 0 5.96967 2.27307e-09 0 5.29209 2.06699e-09 0
4.31471 1.68524e-09 0 6.01536 1.69473e-09 0 6.01527 1.89207e-09 0 6.01518
2.08941e-09 0 6.01509 2.28675e-09 0 5.32521 2.07992e-09 0 4.31471 1.68524e-09
0 7.12684 2.35e-09 0 7.12675 2.54654e-09 0 7.12666 2.74307e-09 0
6.32745 2.47138e-09 0 5.32108 2.07831e-09 0 4.31471 1.68524e-09 0 5.51908
1.58436e-09 0 5.51901 1.74563e-09 0 5.51894 1.9069e-09 0 5.51887 2.06817e-09
0 5.1405 2.00778e-09 0 4.31471 1.68524e-09 0 6.83307 2.20564e-09 0
6.83299 2.39662e-09 0 6.8329 2.58761e-09 0 6.27061 2.44918e-09 0 5.29266
2.06721e-09 0 4.31471 1.68524e-09 0 8.18028 3.16117e-09 0 7.54598 2.94732e-09
0 6.73816 2.6318e-09 0 5.93035 2.31628e-09 0 5.12253 2.00076e-09 0
4.31471 1.68524e-09 0 4.78636 1.10162e-09 0 4.78628 1.27357e-09 0 4.78621
1.44552e-09 0 4.78613 1.61747e-09 0 4.78605 1.78942e-09 0 4.31471 1.68524e-09
0 7.83004 2.95028e-09 0 7.56923 2.9564e-09 0 6.7556 2.63861e-09 0
5.94197 2.32082e-09 0 5.12834 2.00303e-09 0 4.31471 1.68524e-09 0 8.10769
2.96286e-09 0 8.18394 3.19649e-09 0 7.21663 2.81868e-09 0 6.24933 2.44087e-09
0 5.28202 2.06306e-09 0 4.31471 1.68524e-09 0 7.44936 2.57804e-09 0
7.44928 2.76676e-09 0 7.21384 2.81759e-09 0 6.24746 2.44014e-09 0 5.28109
2.06269e-09 0 4.31471 1.68524e-09 0 
