/*--------------------------------*- C++ -*----------------------------------*\
  =========                 |
  \\      /  F ield         | OpenFOAM: The Open Source CFD Toolbox
   \\    /   O peration     | Website:  https://openfoam.org
    \\  /    A nd           | Version:  12
     \\/     M anipulation  |
\*---------------------------------------------------------------------------*/
FoamFile
{
    format      ascii;
    class       volVectorField;
    location    "11.02";
    object      zeta;
}
// * * * * * * * * * * * * * * * * * * * * * * * * * * * * * * * * * * * * * //

dimensions      [0 1 0 0 0 0 0];

internalField   uniform (0 0 0);

boundaryField
{
    freeSurface
    {
        type            calculated;
        value           nonuniform List<vector> 
181
(
(0 0.00625148 0)
(0 0.006251 0)
(0 0.00625042 0)
(0 0.00624949 0)
(0 0.00624878 0)
(0 0.00624763 0)
(0 0.00624758 0)
(0 0.00624621 0)
(0 0.000609359 0)
(0 0.000617677 0)
(0 0.000635391 0)
(0 0.000657395 0)
(0 0.000688001 0)
(0 0.000723943 0)
(0 0.000765051 0)
(0 0.000810115 0)
(0 0.000858294 0)
(0 0.000908766 0)
(0 0.000960401 0)
(0 0.00101208 0)
(0 0.0010625 0)
(0 0.0011106 0)
(0 0.0011554 0)
(0 0.0011961 0)
(0 0.00123185 0)
(0 0.00126184 0)
(0 0.00128526 0)
(0 0.00130129 0)
(0 0.00130922 0)
(0 0.00130843 0)
(0 0.00129837 0)
(0 0.00127873 0)
(0 0.00124935 0)
(0 0.00120987 0)
(0 0.00116027 0)
(0 0.00110054 0)
(0 0.00103099 0)
(0 0.000951917 0)
(0 0.000863828 0)
(0 0.000767287 0)
(0 0.000662962 0)
(0 0.000551738 0)
(0 0.000434621 0)
(0 0.000312747 0)
(0 0.000187285 0)
(0 5.96561e-05 0)
(0 -6.86854e-05 0)
(0 -0.000196292 0)
(0 -0.000321395 0)
(0 -0.000442465 0)
(0 -0.000557676 0)
(0 -0.000665494 0)
(0 -0.000764208 0)
(0 -0.000852242 0)
(0 -0.000928164 0)
(0 -0.000990545 0)
(0 -0.00103817 0)
(0 -0.00107004 0)
(0 -0.00108536 0)
(0 -0.00108351 0)
(0 -0.00106414 0)
(0 -0.00102719 0)
(0 -0.00097296 0)
(0 -0.000902029 0)
(0 -0.000815433 0)
(0 -0.000714223 0)
(0 -0.000600302 0)
(0 -0.000475399 0)
(0 -0.000341904 0)
(0 -0.000202292 0)
(0 -5.93303e-05 0)
(0 8.40725e-05 0)
(0 0.000224915 0)
(0 0.000359966 0)
(0 0.000486132 0)
(0 0.000600397 0)
(0 0.000699931 0)
(0 0.00078208 0)
(0 0.000844514 0)
(0 0.000885235 0)
(0 0.000903015 0)
(0 0.000896949 0)
(0 0.000867054 0)
(0 0.000813541 0)
(0 0.000737816 0)
(0 0.000641751 0)
(0 0.000527801 0)
(0 0.00039934 0)
(0 0.000260039 0)
(0 0.000114285 0)
(0 -3.31366e-05 0)
(0 -0.000177552 0)
(0 -0.000313981 0)
(0 -0.000437685 0)
(0 -0.000543957 0)
(0 -0.000628932 0)
(0 -0.000689075 0)
(0 -0.000722056 0)
(0 -0.000726223 0)
(0 -0.000701242 0)
(0 -0.000647963 0)
(0 -0.00056827 0)
(0 -0.000465564 0)
(0 -0.00034429 0)
(0 -0.000209497 0)
(0 -6.76422e-05 0)
(0 7.47478e-05 0)
(0 0.000210972 0)
(0 0.000334234 0)
(0 0.00043829 0)
(0 0.000517697 0)
(0 0.000568214 0)
(0 0.000586945 0)
(0 0.000572735 0)
(0 0.000526551 0)
(0 0.000450879 0)
(0 0.000350084 0)
(0 0.000230488 0)
(0 9.92588e-05 0)
(0 -3.52186e-05 0)
(0 -0.000164574 0)
(0 -0.000280449 0)
(0 -0.000375226 0)
(0 -0.000442592 0)
(0 -0.000478177 0)
(0 -0.000479726 0)
(0 -0.00044761 0)
(0 -0.000384755 0)
(0 -0.000296489 0)
(0 -0.000190346 0)
(0 -7.51715e-05 0)
(0 3.91025e-05 0)
(0 0.000143394 0)
(0 0.000228821 0)
(0 0.000288376 0)
(0 0.000317563 0)
(0 0.000314658 0)
(0 0.000281157 0)
(0 0.00022148 0)
(0 0.000142687 0)
(0 5.37617e-05 0)
(0 -3.49652e-05 0)
(0 -0.000114325 0)
(0 -0.000175486 0)
(0 -0.000212053 0)
(0 -0.000220798 0)
(0 -0.000202153 0)
(0 -0.000160104 0)
(0 -0.00010163 0)
(0 -3.56951e-05 0)
(0 2.79735e-05 0)
(0 8.09347e-05 0)
(0 0.000116327 0)
(0 0.000130251 0)
(0 0.000122277 0)
(0 9.543e-05 0)
(0 5.54237e-05 0)
(0 9.45133e-06 0)
(0 -3.50232e-05 0)
(0 -7.18332e-05 0)
(0 -9.62611e-05 0)
(0 -0.000106008 0)
(0 -0.000101064 0)
(0 -8.36036e-05 0)
(0 -5.76165e-05 0)
(0 -2.80159e-05 0)
(0 1.06249e-06 0)
(0 2.56428e-05 0)
(0 4.30584e-05 0)
(0 5.20854e-05 0)
(0 5.29013e-05 0)
(0 4.67876e-05 0)
(0 3.5555e-05 0)
(0 2.18449e-05 0)
(0 7.58208e-06 0)
(0 -5.375e-06 0)
(0 -1.59581e-05 0)
(0 -2.37558e-05 0)
(0 -2.88915e-05 0)
(0 -3.18449e-05 0)
(0 -3.31457e-05 0)
)
;
    }
    walls
    {
        type            calculated;
        value           uniform (0 0 0);
    }
    floatingObject
    {
        type            calculated;
        value           uniform (0 0 0);
    }
    frontAndBack
    {
        type            empty;
    }
}


// ************************************************************************* //
