/*--------------------------------*- C++ -*----------------------------------*\
  =========                 |
  \\      /  F ield         | OpenFOAM: The Open Source CFD Toolbox
   \\    /   O peration     | Website:  https://openfoam.org
    \\  /    A nd           | Version:  12
     \\/     M anipulation  |
\*---------------------------------------------------------------------------*/
FoamFile
{
    format      ascii;
    class       volScalarField;
    location    "0.24";
    object      epsilon;
}
// * * * * * * * * * * * * * * * * * * * * * * * * * * * * * * * * * * * * * //

dimensions      [0 2 -3 0 0 0 0];

internalField   nonuniform List<scalar> 
12225
(
278.515
263.66
249.434
236.839
226.738
219.483
215.069
213.262
213.705
215.989
219.711
224.5
230.039
236.06
242.365
248.783
255.349
264.856
61.116
86.6952
97.9912
107.207
118.464
132.556
149.409
168.608
189.573
211.676
234.326
257.014
279.334
300.988
321.883
341.854
362.411
380.942
25.2776
36.183
43.3817
48.6212
53.3861
58.3358
63.7699
69.8245
76.5245
83.8217
91.6258
99.8275
108.315
116.989
125.78
134.67
143.804
153.175
17.5217
21.2986
24.7145
27.6099
30.1619
32.5399
34.8664
37.2275
39.6765
42.2397
44.9248
47.7271
50.6355
53.6377
56.7247
59.9041
63.1939
66.6199
15.4878
16.7519
18.1858
19.5889
20.9095
22.149
23.3263
24.465
25.5862
26.7048
27.8307
28.9697
30.1244
31.2965
32.4874
33.702
34.9451
36.2132
14.9084
15.2396
15.7463
16.334
16.9476
17.5589
18.1558
18.7355
19.3
19.8524
20.3959
20.9332
21.4663
21.9971
22.5273
23.0591
23.5943
24.127
14.7451
14.7391
14.8342
15.0036
15.2215
15.4679
15.7285
15.9948
16.2619
16.5274
16.7901
17.0497
17.3063
17.5601
17.8117
18.0618
18.3107
18.5544
14.7012
14.5825
14.5116
14.4858
14.4981
14.5403
14.6043
14.6837
14.7737
14.8707
14.9724
15.0771
15.1836
15.2912
15.3995
15.5082
15.6171
15.7236
14.6901
14.5373
14.407
14.3009
14.2182
14.1571
14.1145
14.0875
14.0732
14.0692
14.0735
14.0844
14.1006
14.1211
14.1452
14.1722
14.2016
14.2317
14.6874
14.5252
14.3761
14.2411
14.1204
14.0137
13.9203
13.8391
13.7688
13.7083
13.6564
13.6119
13.574
13.5418
13.5147
13.4919
13.473
13.4573
14.6868
14.5221
14.3677
14.2236
14.0896
13.9656
13.8512
13.746
13.6495
13.5611
13.4801
13.4061
13.3383
13.2763
13.2197
13.1678
13.1203
13.0772
14.6866
14.5213
14.3656
14.219
14.0812
13.9518
13.8305
13.7169
13.6105
13.5111
13.4182
13.3314
13.2504
13.1747
13.104
13.038
12.9764
12.9194
14.6865
14.521
14.3648
14.2175
14.0785
13.9473
13.8234
13.7065
13.5963
13.4922
13.3941
13.3016
13.2143
13.1319
13.0543
12.981
12.912
12.8476
14.6864
14.5208
14.3645
14.2169
14.0774
13.9456
13.8209
13.7029
13.5913
13.4855
13.3853
13.2904
13.2005
13.1153
13.0345
12.9579
12.8853
12.8172
14.6864
14.5207
14.3643
14.2165
14.0769
13.9449
13.8199
13.7016
13.5895
13.4832
13.3824
13.2868
13.196
13.1098
13.0279
12.9501
12.8762
12.8068
14.6863
14.5206
14.3641
14.2163
14.0766
13.9444
13.8194
13.7009
13.5886
13.4822
13.3812
13.2854
13.1943
13.1079
13.0257
12.9475
12.8732
12.8034
14.6863
14.5205
14.364
14.2161
14.0763
13.9441
13.8189
13.7004
13.5881
13.4815
13.3805
13.2845
13.1934
13.1068
13.0245
12.9462
12.8718
12.8018
14.6863
14.5204
14.3639
14.216
14.0761
13.9439
13.8186
13.7001
13.5877
13.4811
13.3799
13.2839
13.1927
13.1061
13.0237
12.9454
12.8709
12.8008
14.6863
14.5204
14.3639
14.2159
14.0761
13.9438
13.8186
13.6999
13.5875
13.4809
13.3797
13.2837
13.1924
13.1058
13.0233
12.9449
12.8704
12.8002
14.6863
14.5205
14.3639
14.216
14.0762
13.9439
13.8187
13.7001
13.5877
13.4811
13.38
13.284
13.1928
13.1061
13.0237
12.9454
12.8709
12.8007
14.6863
14.5205
14.364
14.2162
14.0764
13.9443
13.8192
13.7007
13.5885
13.4821
13.3812
13.2854
13.1945
13.1082
13.0262
12.9482
12.8742
12.8046
14.6863
14.5206
14.3643
14.2167
14.0773
13.9457
13.8214
13.7039
13.5928
13.4878
13.3886
13.2947
13.2059
13.1218
13.0423
12.9669
12.8956
12.8288
14.6865
14.5212
14.3659
14.2202
14.0837
13.956
13.8368
13.7256
13.6218
13.525
13.4348
13.3506
13.272
13.1986
13.13
13.0659
13.006
12.9505
14.6876
14.5264
14.3793
14.2467
14.1282
14.0231
13.9302
13.8484
13.7762
13.7126
13.6565
13.6068
13.5628
13.5237
13.489
13.4581
13.4306
13.4066
14.6976
14.5664
14.4707
14.4075
14.3715
14.3568
14.3585
14.372
14.3941
14.4224
14.4551
14.4908
14.5287
14.5681
14.6085
14.6497
14.6913
14.7333
14.7737
14.8187
14.9603
15.1591
15.3863
15.6233
15.8598
16.0904
16.3134
16.5284
16.7359
16.9365
17.1313
17.3211
17.5065
17.6883
17.8669
18.0418
15.2587
16.1151
17.0712
17.9727
18.7879
19.5238
20.1945
20.8149
21.3989
21.9573
22.4987
23.0291
23.5528
24.0726
24.5904
25.1069
25.6223
26.1342
18.0414
22.0079
24.9885
27.1532
28.8883
30.405
31.8126
33.1786
34.544
35.9313
37.3516
38.8087
40.3017
41.8267
43.378
44.9493
46.534
48.1193
34.024
45.6879
51.3769
54.9425
58.0811
61.2984
64.7514
68.4841
72.4804
76.6974
81.0849
85.5932
90.1756
94.7906
99.4022
103.982
108.514
112.97
163.308
157.417
151.704
146.261
141.3
136.947
133.25
130.206
127.781
125.919
124.559
123.637
123.094
122.871
122.918
123.188
123.642
124.243
0.207469
0.254031
0.420182
0.568059
0.722452
0.904306
1.1148
1.36019
1.64724
1.96327
2.2964
2.64651
3.0111
3.38719
3.77183
4.16224
4.55581
4.95006
5.34255
5.73089
6.11265
6.48542
6.84678
7.19433
7.52563
7.83821
8.12943
8.39641
8.63591
8.84437
9.01836
9.1552
9.25291
9.30596
9.29123
9.13785
9.1903
9.25563
9.31087
9.40202
40.0594
9.49211
40.3282
41.3219
42.7663
45.732
48.9066
52.2683
55.806
59.5165
63.3985
67.4523
71.6793
76.0812
80.6601
85.4181
90.3572
95.4794
100.786
106.28
111.961
117.832
123.891
130.141
136.58
143.209
150.025
157.029
164.218
171.589
179.141
186.869
194.771
202.841
211.075
219.468
228.015
236.708
245.543
254.511
263.605
272.819
282.143
291.569
301.088
310.692
320.37
330.112
339.909
349.749
359.621
369.514
379.416
389.314
399.197
409.055
418.879
428.667
438.43
448.197
457.941
467.554
477.036
486.378
495.567
504.588
513.427
522.067
530.492
538.687
546.637
554.327
561.741
568.868
575.692
582.2
588.381
594.222
599.713
604.842
609.601
613.981
617.974
621.573
624.771
627.565
629.948
631.918
633.473
634.611
635.333
635.638
635.528
635.007
634.077
632.744
631.014
628.892
626.386
623.506
620.259
616.656
612.708
608.427
603.824
598.913
593.707
588.22
582.466
576.46
570.218
563.754
557.085
550.226
543.194
536.001
528.671
521.213
513.646
505.988
498.239
490.451
482.593
474.742
466.977
460.243
457.085
454.421
451.77
449.108
446.436
443.751
441.047
438.303
435.474
432.456
429.017
424.552
417.581
401.662
0.788408
0.492853
0.508361
0.58474
0.697084
0.838924
1.00905
1.20774
1.43376
1.68355
1.9533
2.2404
2.54261
2.85796
3.1847
3.52126
3.86624
4.21842
4.57673
4.94031
5.30854
5.68109
6.05805
6.44006
6.82845
7.22552
7.6349
8.06197
8.51455
9.00373
9.54498
10.1595
10.8775
11.7517
12.8912
14.4306
15.4967
16.5492
17.7187
19.0474
20.8761
21.3691
23.8923
25.6359
27.3302
28.9552
30.6107
32.3139
34.076
35.8992
37.785
39.735
41.7505
43.8327
45.9825
48.2007
50.4881
52.8451
55.2722
57.7697
60.3377
62.9762
65.6853
68.4645
71.3136
74.2321
77.2191
80.274
83.3958
86.5834
89.8354
93.1506
96.5274
99.964
103.459
107.009
110.614
114.27
117.976
121.728
125.525
129.362
133.238
137.149
141.093
145.064
149.061
153.08
157.116
161.166
165.225
169.29
173.357
177.42
181.478
185.527
189.567
193.6
197.634
201.688
205.772
209.819
213.818
217.764
221.652
225.476
229.229
232.906
236.501
240.007
243.419
246.731
249.937
253.032
256.01
258.866
261.596
264.194
266.657
268.979
271.157
273.187
275.066
276.79
278.358
279.766
281.013
282.096
283.015
283.768
284.355
284.775
285.029
285.117
285.04
284.8
284.397
283.834
283.114
282.239
281.211
280.036
278.715
277.253
275.655
273.924
272.067
270.087
267.99
265.781
263.466
261.051
258.541
255.944
253.263
250.506
247.679
244.788
241.84
238.841
235.788
232.711
229.575
226.448
223.373
220.547
218.387
216.411
214.472
212.545
210.624
208.71
206.802
204.9
203.001
201.097
199.164
197.191
195.053
193.805
1.57521
0.828471
0.76688
0.817625
0.912958
1.04168
1.20037
1.3871
1.59965
1.83522
2.09092
2.36421
2.65303
2.95577
3.2712
3.59842
3.93682
4.28606
4.64603
5.01692
5.39925
5.79389
6.20217
6.62596
7.06775
7.53081
8.01933
8.53853
9.09479
9.69553
10.3488
11.0622
11.8412
12.6894
13.6097
14.5887
15.5584
16.5603
17.6154
18.7241
19.9041
21.0992
22.4501
23.793
25.1419
26.5018
27.8965
29.3368
30.8274
32.3694
33.9633
35.6096
37.3088
39.0611
40.867
42.7268
44.6408
46.609
48.6318
50.7091
52.8409
55.0273
57.2679
59.5625
61.9109
64.3126
66.767
69.2736
71.8317
74.4403
77.0987
79.8057
82.5603
85.3611
88.207
91.0963
94.0276
96.9992
100.009
103.056
106.137
109.251
112.396
115.568
118.766
121.988
125.23
128.491
131.766
135.055
138.354
141.661
144.972
148.288
151.605
154.923
158.242
161.564
164.89
168.222
171.539
174.827
178.078
181.287
184.448
187.558
190.61
193.601
196.524
199.376
202.151
204.845
207.453
209.971
212.394
214.718
216.939
219.053
221.057
222.947
224.719
226.372
227.901
229.305
230.582
231.729
232.744
233.627
234.376
234.991
235.47
235.815
236.023
236.098
236.038
235.845
235.52
235.066
234.483
233.774
232.942
231.988
230.917
229.732
228.435
227.031
225.523
223.915
222.212
220.418
218.537
216.575
214.534
212.422
210.242
207.998
205.698
203.343
200.941
198.498
196.001
193.498
190.968
188.438
185.936
183.543
181.381
179.326
177.31
175.314
173.332
171.366
169.416
167.488
165.587
163.723
161.915
160.225
158.741
158.261
2.50474
1.21592
1.0595
1.07438
1.15404
1.27431
1.42715
1.60875
1.81629
2.04711
2.29864
2.56859
2.85507
3.15669
3.47245
3.8018
4.1445
4.50065
4.87061
5.25504
5.6549
6.07145
6.50625
6.96122
7.43864
7.94114
8.47172
9.03369
9.6306
10.266
10.9432
11.6644
12.4304
13.24
14.0913
14.9812
15.9047
16.8679
17.8769
18.934
20.0414
21.1953
22.3986
23.635
24.9038
26.2078
27.5518
28.94
30.3749
31.858
33.39
34.9716
36.6031
38.2852
40.0181
41.8024
43.6382
45.526
47.466
49.4584
51.5033
53.6009
55.7512
57.9542
60.2097
62.5175
64.8775
67.2891
69.752
72.2654
74.8289
77.4415
80.1024
82.8105
85.5647
88.3637
91.2062
94.0907
97.0155
99.9789
102.979
106.014
109.082
112.18
115.307
118.46
121.637
124.834
128.051
131.284
134.53
137.788
141.056
144.331
147.611
150.896
154.183
157.472
160.759
164.035
167.289
170.513
173.7
176.845
179.943
182.989
185.978
188.905
191.765
194.553
197.263
199.892
202.435
204.887
207.244
209.501
211.655
213.701
215.637
217.458
219.161
220.744
222.204
223.539
224.746
225.823
226.769
227.583
228.264
228.81
229.223
229.501
229.644
229.654
229.532
229.278
228.894
228.382
227.744
226.981
226.098
225.096
223.979
222.75
221.412
219.97
218.427
216.788
215.056
213.236
211.333
209.352
207.295
205.17
202.981
200.728
198.426
196.069
193.667
191.237
188.771
186.288
183.787
181.282
178.795
176.365
174.042
171.788
169.571
167.378
165.207
163.057
160.935
158.845
156.798
154.814
152.925
151.208
149.778
149.1
3.42411
1.60794
1.3462
1.32588
1.39034
1.50282
1.65079
1.82859
2.03273
2.26051
2.50953
2.77772
3.06341
3.36533
3.68266
4.01496
4.36217
4.72453
5.10256
5.49704
5.90898
6.33963
6.79044
7.26306
7.7593
8.28116
8.83073
9.4102
10.0217
10.6675
11.3493
12.0685
12.826
13.622
14.4565
15.3294
16.2413
17.1942
18.1906
19.2317
20.3183
21.4493
22.6233
23.8382
25.0941
26.3924
27.7348
29.1233
30.5592
32.044
33.5784
35.1635
36.7999
38.4883
40.2295
42.0239
43.8724
45.7753
47.7334
49.747
51.8166
53.9426
56.1253
58.3649
60.6617
63.0157
65.4269
67.8951
70.4201
73.0016
75.639
78.3317
81.079
83.88
86.7335
89.6385
92.5935
95.597
98.6475
101.743
104.882
108.062
111.281
114.536
117.826
121.148
124.499
127.876
131.277
134.699
138.139
141.595
145.064
148.544
152.031
155.523
159.018
162.512
165.996
169.461
172.899
176.304
179.669
182.988
186.257
189.47
192.62
195.703
198.712
201.643
204.491
207.249
209.913
212.479
214.94
217.294
219.535
221.659
223.663
225.542
227.294
228.915
230.403
231.755
232.97
234.045
234.978
235.769
236.417
236.921
237.28
237.496
237.569
237.499
237.288
236.937
236.448
235.823
235.065
234.176
233.159
232.018
230.756
229.376
227.884
226.282
224.576
222.77
220.869
218.876
216.799
214.641
212.405
210.102
207.736
205.297
202.819
200.294
197.727
195.128
192.5
189.851
187.187
184.518
181.86
179.236
176.671
174.154
171.672
169.218
166.791
164.394
162.032
159.714
157.455
155.276
153.216
151.351
149.773
148.744
4.27845
1.9651
1.61
1.55783
1.60812
1.71304
1.85606
2.02985
2.23028
2.45449
2.7002
2.96552
3.24895
3.54935
3.866
4.19853
4.54692
4.91144
5.29264
5.69126
6.10829
6.54485
7.00226
7.48194
7.98545
8.51444
9.0706
9.65569
10.2714
10.9196
11.6017
12.3192
13.0733
13.8651
14.6955
15.5653
16.4757
17.4279
18.4232
19.4628
20.5472
21.6766
22.8509
24.0702
25.3351
26.6467
28.0061
29.4147
30.8738
32.3846
33.9483
35.566
37.2387
38.9676
40.7536
42.5978
44.5011
46.4644
48.4887
50.5748
52.7235
54.9356
57.2118
59.5525
61.9584
64.4298
66.9669
69.57
72.2389
74.9736
77.7737
80.6387
83.568
86.5608
89.6159
92.7323
95.9084
99.1427
102.433
105.779
109.176
112.623
116.118
119.658
123.24
126.861
130.519
134.209
137.93
141.677
145.448
149.238
153.045
156.865
160.695
164.53
168.367
172.2
176.015
179.805
183.564
187.284
190.96
194.584
198.151
201.654
205.087
208.444
211.718
214.903
217.994
220.983
223.867
226.639
229.295
231.828
234.234
236.51
238.649
240.65
242.507
244.218
245.779
247.19
248.446
249.546
250.49
251.275
251.901
252.368
252.675
252.824
252.814
252.648
252.326
251.851
251.225
250.451
249.532
248.47
247.269
245.934
244.468
242.876
241.162
239.33
237.388
235.341
233.19
230.941
228.607
226.188
223.681
221.111
218.478
215.781
213.036
210.245
207.413
204.549
201.656
198.743
195.816
192.884
189.959
187.056
184.192
181.364
178.571
175.809
173.08
170.389
167.742
165.151
162.63
160.206
157.916
155.827
154.005
152.596
5.00754
2.27996
1.84348
1.7626
1.79951
1.89676
2.03431
2.20333
2.39907
2.61847
2.8593
3.11983
3.39868
3.69486
4.00772
4.33696
4.68256
5.04482
5.42425
5.82158
6.23774
6.6738
7.13098
7.61063
8.11419
8.64316
9.19915
9.78376
10.3986
11.0454
11.7257
12.441
13.1928
13.9825
14.8114
15.6807
16.5916
17.5454
18.5433
19.5865
20.6758
21.8121
22.9961
24.2286
25.5106
26.8434
28.2281
29.6661
31.1589
32.7079
34.3146
35.9805
37.7069
39.4954
41.3475
43.2645
45.2478
47.2989
49.4191
51.6097
53.8719
56.2069
58.6158
61.0996
63.659
66.295
69.008
71.7984
74.6665
77.6125
80.636
83.7368
86.9142
90.1675
93.4957
96.8973
100.371
103.915
107.527
111.205
114.946
118.748
122.608
126.522
130.488
134.503
138.561
142.661
146.797
150.966
155.164
159.387
163.63
167.888
172.158
176.434
180.713
184.977
189.218
193.428
197.601
201.73
205.806
209.824
213.775
217.652
221.448
225.156
228.768
232.279
235.68
238.966
242.13
245.166
248.068
250.831
253.449
255.918
258.231
260.386
262.378
264.205
265.862
267.347
268.659
269.794
270.753
271.534
272.136
272.559
272.804
272.872
272.763
272.48
272.023
271.397
270.604
269.647
268.53
267.256
265.829
264.255
262.539
260.687
258.7
256.584
254.352
252.006
249.549
246.982
244.33
241.591
238.767
235.871
232.909
229.885
226.808
223.685
220.521
217.324
214.1
210.857
207.6
204.339
201.083
197.845
194.635
191.458
188.315
185.208
182.14
179.117
176.149
173.246
170.426
167.716
165.15
162.784
160.661
158.864
5.62619
2.55177
2.04356
1.93627
1.96012
2.04927
2.18057
2.34381
2.53364
2.74681
2.9811
3.23486
3.50687
3.79623
4.10241
4.42516
4.7645
5.12075
5.49442
5.88624
6.29711
6.7281
7.18039
7.65531
8.15425
8.67873
9.23028
9.81052
10.4211
11.0636
11.7398
12.4512
13.1995
13.9862
14.8128
15.6808
16.5917
17.5468
18.5477
19.5956
20.6918
21.8377
23.0345
24.2834
25.586
26.9437
28.3581
29.8309
31.3639
32.9588
34.6175
36.342
38.1342
39.9959
41.9292
43.9361
46.0183
48.1779
50.4168
52.7366
55.1393
57.6263
60.1993
62.8597
65.6087
68.4475
71.377
74.3979
77.5108
80.7159
84.0132
87.4024
90.8831
94.4543
98.1151
101.864
105.699
109.618
113.619
117.699
121.855
126.085
130.384
134.749
139.175
143.66
148.198
152.785
157.416
162.087
166.793
171.528
176.287
181.064
185.854
190.65
195.445
200.216
204.957
209.661
214.32
218.926
223.471
227.946
232.343
236.654
240.87
244.983
248.985
252.868
256.625
260.249
263.731
267.066
270.247
273.268
276.123
278.806
281.312
283.636
285.775
287.725
289.482
291.044
292.41
293.577
294.543
295.309
295.874
296.238
296.402
296.367
296.136
295.709
295.09
294.282
293.288
292.114
290.763
289.239
287.546
285.691
283.683
281.526
279.223
276.774
274.204
271.514
268.706
265.788
262.772
259.665
256.47
253.199
249.858
246.453
242.994
239.488
235.94
232.36
228.754
225.129
221.492
217.853
214.219
210.601
207.008
203.448
199.923
196.439
193.001
189.616
186.295
183.05
179.9
176.869
173.989
171.307
168.846
166.657
6.13064
2.77828
2.20839
2.07698
2.08799
2.16848
2.29263
2.449
2.63171
2.8373
3.06353
3.30884
3.57209
3.85254
4.14972
4.46348
4.7939
5.14133
5.5063
5.88956
6.29203
6.71476
7.15894
7.6259
8.11703
8.63384
9.17789
9.75081
10.3543
10.9899
11.6596
12.3649
13.1076
13.8894
14.7121
15.5774
16.487
17.4425
18.4457
19.4983
20.6019
21.7584
22.9694
24.2368
25.5623
26.9481
28.3961
29.9084
31.4874
33.1352
34.8543
36.6472
38.5162
40.464
42.493
44.6058
46.805
49.0931
51.4724
53.9455
56.5145
59.1816
61.949
64.8185
67.7919
70.8706
74.056
77.3491
80.7506
84.261
87.8805
91.6088
95.4453
99.3893
103.439
107.594
111.85
116.207
120.66
125.208
129.845
134.569
139.375
144.259
149.215
154.24
159.328
164.473
169.67
174.913
180.197
185.514
190.859
196.224
201.603
206.99
212.357
217.695
222.995
228.25
233.45
238.586
243.649
248.629
253.516
258.301
262.974
267.526
271.949
276.234
280.372
284.355
288.175
291.825
295.298
298.586
301.684
304.586
307.286
309.778
312.059
314.125
315.973
317.6
319.004
320.185
321.14
321.87
322.374
322.653
322.708
322.542
322.156
321.554
320.738
319.712
318.483
317.054
315.431
313.618
311.617
309.441
307.1
304.596
301.937
299.128
296.182
293.106
289.907
286.591
283.171
279.652
276.044
272.354
268.592
264.765
260.882
256.95
252.978
248.974
244.945
240.898
236.843
232.787
228.738
224.706
220.7
216.727
212.794
208.907
205.073
201.301
197.601
193.988
190.48
187.101
183.878
180.849
178.023
175.439
6.52157
2.95907
2.33782
2.18473
2.18316
2.25447
2.37058
2.51906
2.69354
2.89039
3.10733
3.34284
3.59592
3.8659
4.15244
4.45545
4.7751
5.11176
5.46603
5.83866
6.23058
6.64287
7.07673
7.53347
8.01452
8.52139
9.05566
9.61901
10.2131
10.8398
11.5009
12.1982
12.9337
13.7092
14.5267
15.3882
16.2957
17.2513
18.2569
19.3148
20.4271
21.5959
22.8236
24.1124
25.4649
26.8834
28.3706
29.9293
31.5622
33.2723
35.0625
36.9359
38.8958
40.9453
43.0875
45.3258
47.6634
50.1033
52.6488
55.3028
58.0682
60.9477
63.9441
67.0596
70.2964
73.6565
77.1415
80.7527
84.4909
88.3569
92.3508
96.4724
100.721
105.095
109.594
114.215
118.955
123.812
128.782
133.862
139.046
144.331
149.71
155.179
160.732
166.363
172.065
177.834
183.661
189.54
195.464
201.426
207.418
213.432
219.459
225.483
231.473
237.424
243.327
249.173
254.951
260.652
266.265
271.778
277.18
282.46
287.609
292.616
297.472
302.166
306.69
311.034
315.191
319.152
322.909
326.456
329.786
332.892
335.769
338.41
340.811
342.969
344.882
346.546
347.96
349.124
350.036
350.696
351.104
351.262
351.171
350.836
350.258
349.442
348.389
347.104
345.598
343.874
341.938
339.797
337.455
334.924
332.211
329.324
326.27
323.058
319.698
316.199
312.57
308.819
304.956
300.99
296.931
292.787
288.569
284.284
279.942
275.552
271.122
266.661
262.177
257.678
253.174
248.671
244.178
239.706
235.261
230.854
226.491
222.18
217.93
213.75
209.652
205.651
201.764
198.013
194.425
191.026
187.818
184.835
6.80392
3.0956
2.43325
2.26104
2.24731
2.30901
2.41633
2.55604
2.72139
2.90858
3.1153
3.34011
3.58205
3.84059
4.11545
4.40664
4.71439
5.03912
5.38145
5.74219
6.12226
6.52277
6.94493
7.39007
7.85963
8.35516
8.8783
9.43076
10.0144
10.631
11.2826
11.9712
12.6989
13.4679
14.2805
15.1388
16.0454
17.0027
18.0131
19.0792
20.2039
21.3897
22.6396
23.9565
25.3434
26.8036
28.3403
29.9568
31.6569
33.444
35.322
37.2946
39.3659
41.5397
43.82
46.2109
48.7164
51.3402
54.0862
56.9581
59.9594
63.0933
66.3629
69.7712
73.3207
77.0136
80.8518
84.8368
88.9697
93.2509
97.6806
102.258
106.983
111.853
116.867
122.021
127.313
132.738
138.293
143.973
149.772
155.685
161.704
167.824
174.037
180.336
186.716
193.167
199.682
206.255
212.875
219.535
226.226
232.938
239.66
246.347
252.991
259.583
266.114
272.572
278.946
285.225
291.397
297.45
303.369
309.143
314.762
320.215
325.49
330.579
335.47
340.155
344.623
348.868
352.881
356.655
360.183
363.459
366.476
369.226
371.707
373.916
375.85
377.507
378.887
379.987
380.809
381.353
381.619
381.608
381.325
380.773
379.957
378.88
377.547
375.964
374.138
372.078
369.789
367.279
364.555
361.627
358.504
355.196
351.71
348.057
344.248
340.291
336.198
331.977
327.639
323.195
318.654
314.027
309.323
304.552
299.724
294.849
289.936
284.993
280.031
275.057
270.08
265.109
260.153
255.22
250.32
245.462
240.654
235.905
231.224
226.622
222.112
217.707
213.426
209.289
205.317
201.534
197.933
194.549
6.98644
3.19094
2.49732
2.30864
2.28331
2.33519
2.43319
2.56348
2.71904
2.89596
3.09192
3.30551
3.53586
3.78251
4.04528
4.32422
4.61964
4.932
5.26197
5.61036
5.97814
6.36644
6.7765
7.20967
7.66747
8.15148
8.66343
9.20516
9.7786
10.3858
11.0289
11.7103
12.4322
13.1972
14.0079
14.8669
15.7772
16.7417
17.7633
18.8454
19.9912
21.2042
22.4879
23.8459
25.2821
26.8005
28.405
30.1001
31.8899
33.7791
35.7722
37.874
40.0892
42.4227
44.8794
47.4639
50.1813
53.036
56.0327
59.1755
62.4684
65.9153
69.5194
73.2842
77.2124
81.3064
85.5682
89.9991
94.6002
99.3715
104.313
109.423
114.701
120.145
125.75
131.515
137.434
143.503
149.716
156.069
162.553
169.163
175.888
182.721
189.655
196.682
203.792
210.979
218.232
225.544
232.905
240.305
247.735
255.184
262.596
269.96
277.266
284.504
291.661
298.726
305.686
312.528
319.242
325.812
332.221
338.459
344.513
350.372
356.026
361.464
366.675
371.65
376.379
380.854
385.066
389.009
392.676
396.063
399.16
401.958
404.456
406.652
408.545
410.133
411.415
412.391
413.062
413.429
413.494
413.259
412.728
411.907
410.799
409.41
407.747
405.815
403.624
401.181
398.494
395.572
392.423
389.058
385.487
381.72
377.767
373.639
369.347
364.902
360.314
355.595
350.756
345.808
340.761
335.627
330.416
325.139
319.806
314.427
309.013
303.573
298.116
292.652
287.189
281.737
276.305
270.901
265.536
260.218
254.956
249.761
244.642
239.611
234.68
229.864
225.179
220.646
216.281
212.105
208.107
204.325
7.08104
3.24937
2.53353
2.33106
2.29491
2.33701
2.42544
2.54599
2.69146
2.85789
3.04298
3.24535
3.46421
3.69916
3.95007
4.21709
4.50056
4.80099
5.11909
5.45573
5.81193
6.18884
6.58778
7.01019
7.45766
7.93192
8.43482
8.96839
9.53477
10.1363
10.7753
11.4546
12.1768
12.9448
13.7618
14.631
15.5558
16.5398
17.5867
18.7005
19.8852
21.1452
22.4848
23.9086
25.4214
27.028
28.7334
30.5429
32.4617
34.4955
36.6498
38.9304
41.3428
43.893
46.5866
49.4293
52.4268
55.5845
58.9074
62.4004
66.0676
69.9126
73.9391
78.1504
82.5494
87.1383
91.9186
96.8915
102.057
107.415
112.965
118.703
124.629
130.737
137.025
143.487
150.118
156.912
163.862
170.961
178.202
185.576
193.07
200.674
208.381
216.181
224.065
232.025
240.05
248.131
256.258
264.42
272.608
280.756
288.847
296.869
304.812
312.663
320.41
328.038
335.535
342.888
350.087
357.118
363.952
370.582
376.998
383.189
389.143
394.849
400.297
405.478
410.382
414.999
419.324
423.347
427.064
430.468
433.553
436.312
438.744
440.846
442.617
444.056
445.163
445.939
446.384
446.502
446.296
445.768
444.923
443.768
442.307
440.548
438.497
436.163
433.553
430.678
427.546
424.167
420.552
416.71
412.654
408.393
403.94
399.307
394.504
389.544
384.438
379.199
373.838
368.367
362.798
357.142
351.41
345.615
339.765
333.874
327.95
322.005
316.047
310.087
304.134
298.197
292.285
286.409
280.576
274.798
269.083
263.442
257.885
252.423
247.071
241.842
236.753
231.821
227.063
222.493
218.1
213.924
7.1023
3.27608
2.546
2.33238
2.28644
2.31915
2.39817
2.50912
2.64472
2.80102
2.97575
3.16759
3.37581
3.60007
3.84032
4.09677
4.36981
4.66004
4.96822
5.29532
5.64243
6.01083
6.40196
6.81742
7.25898
7.72858
8.22833
8.76054
9.3277
9.93251
10.5778
11.2668
12.0028
12.7892
13.6298
14.5287
15.4899
16.5179
17.6174
18.7932
20.0506
21.395
22.8317
24.3668
26.0058
27.7548
29.6197
31.607
33.7232
35.975
38.3689
40.9116
43.61
46.4704
49.4996
52.7039
56.0895
59.6625
63.4286
67.393
71.5585
75.9279
80.5046
85.2916
90.2911
95.5046
100.933
106.576
112.432
118.5
124.778
131.261
137.946
144.827
151.898
159.154
166.586
174.186
181.948
189.861
197.92
206.119
214.428
222.842
231.352
239.95
248.626
257.37
266.172
275.023
283.91
292.822
301.681
310.469
319.176
327.787
336.291
344.674
352.921
361.018
368.952
376.71
384.278
391.641
398.781
405.687
412.347
418.749
424.881
430.735
436.298
441.562
446.517
451.156
455.471
459.456
463.105
466.411
469.371
471.98
474.236
476.137
477.681
478.87
479.704
480.184
480.314
480.095
479.533
478.631
477.395
475.833
473.95
471.754
469.254
466.458
463.375
460.017
456.393
452.513
448.39
444.034
439.458
434.674
429.693
424.528
419.193
413.698
408.058
402.285
396.39
390.387
384.287
378.104
371.848
365.531
359.165
352.762
346.33
339.883
333.428
326.977
320.539
314.124
307.74
301.398
295.107
288.877
282.717
276.639
270.653
264.77
259.005
253.37
247.883
242.558
237.411
232.455
227.675
223.117
7.06703
3.27677
2.53919
2.31709
2.26274
2.28698
2.3574
2.4596
2.58637
2.7338
2.89968
3.08279
3.28245
3.49841
3.73073
3.97968
4.24578
4.52974
4.83249
5.15512
5.49893
5.86543
6.25631
6.67346
7.11899
7.59523
8.10475
8.65035
9.23507
9.86223
10.5354
11.2585
12.0357
12.8715
13.7705
14.7378
15.7787
16.8986
18.1036
19.4
20.7944
22.2937
23.9051
25.6359
27.4936
29.4842
31.6152
33.8944
36.3294
38.9281
41.698
44.6467
47.7814
51.1092
54.6369
58.371
62.3176
66.4829
70.873
75.4959
80.348
85.4273
90.7383
96.2831
102.062
108.076
114.322
120.799
127.504
134.432
141.579
148.938
156.504
164.269
172.224
180.362
188.672
197.145
205.77
214.538
223.438
232.458
241.583
250.801
260.102
269.476
278.912
288.403
297.936
307.509
317.077
326.57
335.976
345.281
354.471
363.532
372.45
381.211
389.801
398.206
406.412
414.405
422.172
429.7
436.973
443.979
450.706
457.143
463.28
469.107
474.613
479.79
484.631
489.127
493.272
497.06
500.486
503.546
506.236
508.553
510.495
512.061
513.252
514.068
514.512
514.585
514.291
513.634
512.62
511.253
509.541
507.491
505.11
502.408
499.393
496.075
492.465
488.573
484.411
479.99
475.322
470.42
465.296
459.964
454.435
448.723
442.841
436.803
430.621
424.309
417.88
411.346
404.72
398.014
391.242
384.414
377.543
370.64
363.715
356.78
349.845
342.921
336.016
329.14
322.303
315.514
308.784
302.121
295.536
289.04
282.643
276.357
270.195
264.172
258.301
252.599
247.078
241.75
236.601
231.677
6.9904
3.25667
2.51716
2.28935
2.22845
2.24585
2.30936
2.40476
2.52497
2.6662
2.82639
3.00441
3.19974
3.41227
3.6422
3.89003
4.15648
4.44254
4.74943
5.0786
5.43177
5.81089
6.21817
6.65613
7.12752
7.63545
8.1833
8.77483
9.41412
10.1056
10.8539
11.6645
12.5429
13.4955
14.5287
15.6487
16.8623
18.177
19.6007
21.1419
22.809
24.611
26.5575
28.6588
30.9268
33.3607
35.9714
38.7683
41.7602
44.9554
48.3614
51.9858
55.8351
59.9155
64.2327
68.7915
73.5961
78.6502
83.9568
89.5176
95.3315
101.397
107.711
114.274
121.082
128.132
135.419
142.937
150.681
158.642
166.813
175.187
183.752
192.5
201.42
210.5
219.731
229.101
238.597
248.208
257.923
267.729
277.613
287.565
297.574
307.63
317.724
327.852
337.994
348.067
358.039
367.897
377.627
387.215
396.648
405.912
414.993
423.878
432.553
441.005
449.221
457.188
464.893
472.325
479.47
486.318
492.858
499.078
504.97
510.525
515.735
520.591
525.086
529.215
532.972
536.352
539.351
541.965
544.193
546.033
547.483
548.545
549.219
549.506
549.41
548.935
548.084
546.863
545.278
543.335
541.041
538.406
535.438
532.145
528.539
524.629
520.427
515.944
511.192
506.184
500.931
495.448
489.747
483.841
477.744
471.469
465.03
458.44
451.713
444.863
437.901
430.842
423.699
416.483
409.208
401.885
394.526
387.142
379.745
372.345
364.953
357.579
350.231
342.92
335.656
328.447
321.303
314.234
307.25
300.361
293.578
286.913
280.378
273.988
267.756
261.697
255.822
250.144
244.646
239.379
6.90723
3.2266
2.48891
2.25913
2.19544
2.21005
2.27119
2.36496
2.48452
2.62632
2.78848
2.97014
3.17104
3.39139
3.63178
3.89315
4.17674
4.48413
4.81725
5.17835
5.57002
5.99525
6.4574
6.96024
7.508
8.1053
8.75724
9.46959
10.2487
11.1009
12.0329
13.0524
14.1684
15.3905
16.7301
18.193
19.7872
21.5241
23.4145
25.4693
27.6994
30.1155
32.7283
35.5483
38.585
41.8451
45.3365
49.067
53.0434
57.2717
61.7567
66.5027
71.5125
76.7882
82.3308
88.1404
94.2162
100.556
107.158
114.019
121.132
128.491
136.092
143.926
151.986
160.265
168.753
177.442
186.322
195.384
204.616
214.008
223.548
233.227
243.032
252.951
262.974
273.089
283.284
293.548
303.871
314.241
324.649
335.09
345.549
356.028
366.507
376.906
387.176
397.315
407.31
417.147
426.813
436.295
445.582
454.661
463.519
472.145
480.527
488.652
496.51
504.09
511.38
518.369
525.049
531.407
537.436
543.126
548.469
553.458
558.086
562.345
566.231
569.739
572.864
575.603
577.952
579.91
581.475
582.647
583.426
583.813
583.81
583.42
582.647
581.495
579.968
578.074
575.818
573.209
570.253
566.96
563.34
559.402
555.157
550.615
545.789
540.689
535.33
529.722
523.879
517.815
511.542
505.074
498.424
491.606
484.635
477.522
470.282
462.928
455.473
447.931
440.313
432.633
424.902
417.133
409.336
401.524
393.707
385.895
378.098
370.327
362.591
354.898
347.259
339.682
332.176
324.752
317.418
310.184
303.063
296.064
289.2
282.485
275.933
269.555
263.365
257.372
251.561
245.988
6.84065
3.19534
2.46317
2.23682
2.17649
2.19533
2.26218
2.36359
2.49311
2.64758
2.8256
3.02683
3.25165
3.50101
3.77639
4.07976
4.41358
4.78083
5.18503
5.63025
6.12115
6.66307
7.2619
7.9243
8.65792
9.47057
10.3705
11.368
12.4759
13.7034
15.058
16.5534
18.2031
20.0206
22.0193
24.2112
26.6082
29.2229
32.0672
35.1526
38.4895
42.0873
45.9542
50.0967
54.5201
59.2273
64.2202
69.4993
75.0641
80.9125
87.0414
93.4464
100.122
107.062
114.259
121.705
129.393
137.312
145.454
153.81
162.368
171.119
180.052
189.158
198.424
207.842
217.4
227.089
236.898
246.816
256.834
266.941
277.128
287.384
297.701
308.067
318.475
328.917
339.382
349.863
360.356
370.851
381.335
391.837
402.298
412.645
422.841
432.888
442.772
452.484
462.014
471.349
480.481
489.397
498.089
506.544
514.754
522.707
530.394
537.805
544.931
551.762
558.288
564.501
570.392
575.953
581.176
586.054
590.58
594.748
598.552
601.986
605.047
607.73
610.033
611.952