/*--------------------------------*- C++ -*----------------------------------*\
  =========                 |
  \\      /  F ield         | OpenFOAM: The Open Source CFD Toolbox
   \\    /   O peration     | Website:  https://openfoam.org
    \\  /    A nd           | Version:  12
     \\/     M anipulation  |
\*---------------------------------------------------------------------------*/
FoamFile
{
    format      ascii;
    class       volScalarField;
    location    "0.24";
    object      k;
}
// * * * * * * * * * * * * * * * * * * * * * * * * * * * * * * * * * * * * * //

dimensions      [0 2 -2 0 0 0 0];

internalField   nonuniform List<scalar> 
12225
(
0.353921
0.335043
0.316966
0.300961
0.288125
0.278906
0.273297
0.271001
0.271564
0.274466
0.279195
0.285282
0.29232
0.299972
0.307983
0.316139
0.324482
0.336563
0.436864
0.448979
0.438084
0.43306
0.438786
0.453583
0.474795
0.499973
0.527127
0.554774
0.581883
0.60779
0.632117
0.654687
0.675604
0.694764
0.714232
0.729523
0.395187
0.410874
0.410631
0.405747
0.40201
0.400924
0.402613
0.406806
0.413079
0.420974
0.430058
0.439952
0.450342
0.460988
0.471746
0.482505
0.493546
0.50424
0.379641
0.38484
0.386546
0.38573
0.383905
0.382026
0.380567
0.379738
0.379605
0.380146
0.381299
0.382982
0.385113
0.387616
0.390438
0.393543
0.39695
0.400554
0.374976
0.3759
0.376239
0.375721
0.37457
0.373084
0.371496
0.369967
0.368593
0.367426
0.366484
0.365767
0.365266
0.364966
0.364853
0.364917
0.365155
0.365535
0.373488
0.372555
0.371759
0.370807
0.369631
0.368275
0.366809
0.3653
0.363804
0.362358
0.36099
0.359714
0.358537
0.357461
0.356488
0.355615
0.354843
0.354166
0.373012
0.371296
0.369813
0.368416
0.367025
0.36561
0.364168
0.362712
0.361258
0.359824
0.358425
0.357073
0.355774
0.354533
0.353354
0.35224
0.351191
0.350215
0.372865
0.370838
0.369004
0.367311
0.365711
0.364174
0.362679
0.361216
0.359783
0.358381
0.357015
0.355688
0.354402
0.353161
0.351967
0.350822
0.349728
0.348696
0.37282
0.37068
0.368691
0.366836
0.365095
0.363449
0.36188
0.360376
0.358928
0.357531
0.356183
0.35488
0.353622
0.352409
0.351241
0.350118
0.349042
0.348023
0.372806
0.370628
0.368578
0.366648
0.364829
0.36311
0.361482
0.359934
0.358457
0.357046
0.355694
0.354397
0.353153
0.351958
0.350812
0.349712
0.34866
0.347664
0.372801
0.370609
0.368537
0.366576
0.36472
0.362964
0.361299
0.359719
0.358216
0.356785
0.355421
0.354118
0.352874
0.351685
0.350547
0.34946
0.348421
0.34744
0.372799
0.370602
0.368522
0.36655
0.36468
0.362907
0.361225
0.359627
0.358109
0.356664
0.355289
0.353978
0.352729
0.351537
0.3504
0.349314
0.348279
0.347304
0.372797
0.370599
0.368514
0.366537
0.364661
0.36288
0.361188
0.359581
0.358053
0.3566
0.355216
0.353899
0.352644
0.351448
0.350308
0.349221
0.348185
0.34721
0.372796
0.370596
0.368509
0.366528
0.364649
0.362864
0.361168
0.359555
0.358022
0.356563
0.355174
0.353851
0.352592
0.351391
0.350248
0.349157
0.348119
0.347141
0.372795
0.370593
0.368505
0.366523
0.364641
0.362853
0.361154
0.359539
0.358003
0.35654
0.355148
0.353823
0.35256
0.351356
0.350209
0.349116
0.348074
0.347094
0.372794
0.370592
0.368502
0.366518
0.364634
0.362845
0.361145
0.359527
0.357989
0.356525
0.355131
0.353803
0.352538
0.351333
0.350184
0.349088
0.348044
0.347061
0.372794
0.37059
0.368499
0.366515
0.36463
0.362839
0.361137
0.359519
0.357979
0.356514
0.355118
0.353789
0.352523
0.351316
0.350165
0.349067
0.348021
0.347037
0.372794
0.370589
0.368498
0.366512
0.364627
0.362835
0.361132
0.359513
0.357972
0.356506
0.355109
0.353779
0.352511
0.351303
0.350151
0.349052
0.348005
0.347019
0.372793
0.370589
0.368497
0.366512
0.364626
0.362834
0.361131
0.359511
0.357969
0.356502
0.355105
0.353774
0.352506
0.351297
0.350144
0.349045
0.347997
0.34701
0.372794
0.37059
0.368498
0.366513
0.364628
0.362836
0.361133
0.359514
0.357973
0.356506
0.355109
0.353779
0.352511
0.351302
0.350149
0.349049
0.348001
0.347015
0.372794
0.370591
0.3685
0.366516
0.364632
0.362841
0.36114
0.359522
0.357982
0.356517
0.355122
0.353793
0.352526
0.351319
0.350167
0.349069
0.348023
0.347037
0.372795
0.370593
0.368504
0.366522
0.364641
0.362855
0.361158
0.359546
0.358012
0.356552
0.355163
0.353839
0.352578
0.351375
0.350228
0.349134
0.348091
0.347108
0.372796
0.370598
0.368518
0.366547
0.364681
0.362912
0.361235
0.359642
0.358127
0.356685
0.355311
0.354001
0.35275
0.351556
0.350415
0.349324
0.348282
0.347298
0.372804
0.370631
0.368592
0.366676
0.364872
0.363166
0.361548
0.360006
0.358532
0.357121
0.355767
0.354467
0.353219
0.352019
0.350868
0.349761
0.348701
0.347697
0.372856
0.370818
0.368973
0.367264
0.365645
0.364085
0.362567
0.361083
0.359631
0.358213
0.356833
0.355493
0.354196
0.352946
0.351743
0.35059
0.349486
0.348445
0.373166
0.37177
0.370579
0.369371
0.368049
0.366605
0.365072
0.363492
0.361905
0.360342
0.358826
0.357372
0.355991
0.354688
0.353468
0.352329
0.351272
0.350303
0.374797
0.375829
0.376175
0.375401
0.373834
0.371876
0.369792
0.36774
0.365814
0.364067
0.362524
0.361195
0.360075
0.359157
0.358425
0.357864
0.357457
0.35719
0.382729
0.39167
0.392375
0.388805
0.384384
0.380403
0.377247
0.374998
0.373621
0.373038
0.373153
0.373867
0.375084
0.376717
0.378686
0.380923
0.383365
0.385946
0.407499
0.414514
0.405423
0.395992
0.390555
0.389292
0.391456
0.396217
0.402838
0.410728
0.419436
0.428622
0.438031
0.447476
0.456821
0.46597
0.474879
0.483462
0.360554
0.347547
0.334933
0.322917
0.311965
0.302353
0.29419
0.287471
0.282115
0.278005
0.275002
0.272968
0.271768
0.271276
0.271379
0.271976
0.272978
0.274305
0.000722948
0.00403708
0.00667224
0.0090124
0.0114507
0.01432
0.0176375
0.0215008
0.0260156
0.0309819
0.036209
0.0416941
0.0473972
0.0532704
0.0592669
0.0653423
0.0714554
0.0775667
0.0836379
0.0896313
0.0955092
0.101234
0.10677
0.112078
0.117122
0.121864
0.126264
0.130277
0.133854
0.136942
0.139494
0.141468
0.142817
0.143422
0.143011
0.141507
0.142247
0.143286
0.144239
0.145083
0.14374
0.145574
0.143989
0.146931
0.151317
0.158175
0.165342
0.172762
0.180395
0.188225
0.196239
0.20443
0.212791
0.221319
0.230011
0.238863
0.247873
0.257038
0.266355
0.27582
0.285432
0.295185
0.305076
0.3151
0.325253
0.33553
0.345926
0.356433
0.367047
0.377761
0.388567
0.39946
0.41043
0.421471
0.432574
0.443731
0.454934
0.466174
0.477443
0.48873
0.500028
0.511327
0.522618
0.533891
0.545137
0.556347
0.567511
0.578618
0.589661
0.600627
0.611508
0.622293
0.632973
0.643536
0.653973
0.664276
0.674441
0.684469
0.694373
0.704188
0.713888
0.723364
0.73262
0.741652
0.750453
0.759011
0.767317
0.775358
0.783125
0.790606
0.797792
0.804673
0.81124
0.817483
0.823394
0.828966
0.83419
0.839061
0.84357
0.847714
0.851486
0.854882
0.857899
0.860532
0.86278
0.864639
0.866109
0.867189
0.867879
0.868179
0.868091
0.867617
0.866759
0.865521
0.863907
0.861921
0.859569
0.856856
0.85379
0.850378
0.846627
0.842545
0.838142
0.833427
0.828409
0.823101
0.817511
0.811651
0.805534
0.79917
0.792572
0.785753
0.778725
0.771501
0.764095
0.756517
0.748786
0.740911
0.732908
0.724791
0.71656
0.708263
0.699869
0.691452
0.683087
0.675699
0.671798
0.668376
0.664961
0.661529
0.658082
0.654617
0.651128
0.647593
0.643969
0.640153
0.635915
0.630653
0.622892
0.606134
0.00274795
0.0114311
0.0172099
0.021833
0.0261702
0.0304291
0.0348643
0.0396251
0.044759
0.0502367
0.0560026
0.062008
0.0682076
0.07456
0.0810278
0.0875768
0.0941754
0.100794
0.107404
0.11398
0.120495
0.126926
0.133251
0.139451
0.145508
0.151406
0.15713
0.162666
0.168002
0.173133
0.178073
0.182865
0.187575
0.192278
0.197139
0.202641
0.208869
0.215616
0.223033
0.231281
0.240654
0.251612
0.261766
0.272818
0.285253
0.297519
0.309493
0.321845
0.3346
0.347725
0.361198
0.375007
0.389143
0.403603
0.418382
0.433479
0.448891
0.464617
0.480655
0.497002
0.513655
0.530611
0.547866
0.565417
0.583258
0.601383
0.619787
0.638462
0.657402
0.676596
0.696038
0.715716
0.735622
0.755743
0.776068
0.796586
0.817283
0.838147
0.859164
0.880319
0.9016
0.92299
0.944475
0.96604
0.987669
1.00935
1.03106
1.05278
1.07451
1.09622
1.1179
1.13953
1.16109
1.18256
1.20394
1.22519
1.2463
1.26725
1.28802
1.30851
1.32856
1.34831
1.36777
1.38693
1.40577
1.42427
1.4424
1.46014
1.47747
1.49438
1.51083
1.52681
1.5423
1.55728
1.57173
1.58562
1.59896
1.61171
1.62386
1.6354
1.64631
1.65658
1.6662
1.67515
1.68344
1.69104
1.69796
1.70417
1.70969
1.7145
1.71861
1.722
1.72469
1.72667
1.72794
1.7285
1.72837
1.72755
1.72604
1.72385
1.72099
1.71748
1.71332
1.70853
1.70313
1.69712
1.69052
1.68336
1.67565
1.6674
1.65864
1.64939
1.63967
1.6295
1.61891
1.60791
1.59653
1.5848
1.57274
1.56038
1.5477
1.53483
1.52164
1.50833
1.49497
1.48172
1.46903
1.45641
1.44374
1.43102
1.41827
1.40551
1.39273
1.37994
1.36713
1.35424
1.34113
1.32769
1.31266
1.2932
0.00549066
0.0189082
0.0267306
0.0327012
0.0379751
0.0430851
0.0482918
0.0537324
0.0594628
0.0654849
0.071771
0.0782834
0.0849836
0.0918359
0.0988092
0.105877
0.113014
0.120203
0.127423
0.134662
0.141905
0.149145
0.156375
0.163595
0.170807
0.17802
0.185247
0.192508
0.199831
0.207258
0.214851
0.222692
0.230871
0.239481
0.248618
0.258382
0.268719
0.279684
0.291356
0.303768
0.316907
0.330692
0.344928
0.359642
0.374911
0.390515
0.406409
0.422702
0.43943
0.45659
0.474173
0.49217
0.510576
0.529384
0.54859
0.568191
0.588183
0.608562
0.629325
0.650469
0.671988
0.693879
0.716135
0.738751
0.76172
0.785035
0.808688
0.832669
0.856968
0.881576
0.906481
0.93167
0.95713
0.982849
1.00881
1.035
1.0614
1.088
1.11477
1.14171
1.16879
1.196
1.22331
1.2507
1.27817
1.30568
1.33322
1.36076
1.3883
1.4158
1.44324
1.47062
1.49789
1.52506
1.55209
1.57896
1.60566
1.63217
1.65846
1.68438
1.70995
1.73517
1.76004
1.78451
1.80858
1.83221
1.85536
1.87802
1.90016
1.92174
1.94274
1.96313
1.9829
2.002
2.02042
2.03814
2.05513
2.07137
2.08684
2.10152
2.11539
2.12844
2.14066
2.15202
2.16251
2.17213
2.18087
2.18871
2.19565
2.20169
2.20681
2.21102
2.21433
2.21672
2.21821
2.21879
2.21847
2.21727
2.21519
2.21224
2.20843
2.20378
2.1983
2.19201
2.18493
2.17708
2.16848
2.15914
2.1491
2.13838
2.127
2.115
2.10238
2.0892
2.07546
2.0612
2.04647
2.03127
2.01565
1.99965
1.98321
1.96658
1.94966
1.93254
1.91528
1.89802
1.88095
1.86392
1.84683
1.8297
1.81254
1.79539
1.77825
1.76117
1.74415
1.72722
1.71037
1.69366
1.67654
1.65863
0.00873188
0.0259427
0.0354596
0.0424004
0.0484589
0.0542325
0.0600112
0.0659499
0.0721236
0.0785555
0.0852373
0.0921449
0.0992486
0.106519
0.113932
0.121464
0.129099
0.136825
0.144631
0.152513
0.160469
0.168501
0.176616
0.184826
0.193148
0.201604
0.210222
0.219039
0.228094
0.237441
0.24714
0.257259
0.267864
0.279016
0.290764
0.303147
0.316178
0.329873
0.34425
0.359312
0.375031
0.391348
0.408186
0.425522
0.443357
0.461644
0.48036
0.49952
0.519139
0.539223
0.55977
0.58078
0.60225
0.624177
0.646559
0.669392
0.692674
0.716403
0.740575
0.765186
0.790233
0.815712
0.841615
0.867939
0.894675
0.921816
0.949353
0.977276
1.00557
1.03424
1.06325
1.0926
1.12228
1.15226
1.18253
1.21308
1.24387
1.27491
1.30616
1.3376
1.36922
1.40098
1.43288
1.46488
1.49696
1.52911
1.56129
1.59348
1.62566
1.6578
1.68988
1.72188
1.75378
1.78554
1.81715
1.84859
1.87982
1.91083
1.94155
1.97188
2.00182
2.03136
2.06048
2.08913
2.1173
2.14495
2.17203
2.19853
2.2244
2.24962
2.27415
2.29795
2.321
2.34328
2.36474
2.38536
2.40512
2.42399
2.44195
2.45897
2.47503
2.49012
2.50422
2.51731
2.52937
2.5404
2.55038
2.5593
2.56716
2.57395
2.57966
2.58431
2.58787
2.59036
2.59179
2.59215
2.59145
2.58971
2.58694
2.58314
2.57834
2.57255
2.56579
2.55808
2.54945
2.5399
2.52948
2.5182
2.5061
2.4932
2.47953
2.46513
2.45001
2.43423
2.41782
2.40077
2.38319
2.36506
2.34643
2.32742
2.30798
2.28824
2.26818
2.24787
2.22739
2.20682
2.1863
2.16576
2.14517
2.12455
2.10392
2.08331
2.06278
2.04236
2.02213
2.00216
1.98255
1.96352
1.94488
1.92681
0.0119383
0.0323916
0.0432502
0.051106
0.0578659
0.0642046
0.0704494
0.0767792
0.0832905
0.0900268
0.0969983
0.104196
0.111601
0.119192
0.126951
0.134862
0.142912
0.151096
0.159409
0.167855
0.176438
0.18517
0.194066
0.203145
0.212434
0.221961
0.231763
0.241878
0.252352
0.263235
0.274578
0.286435
0.298855
0.31188
0.32554
0.339857
0.35484
0.370493
0.386814
0.403796
0.421415
0.439634
0.458413
0.477731
0.497579
0.517941
0.538802
0.560165
0.582033
0.60441
0.6273
0.650702
0.674619
0.699048
0.723991
0.749446
0.775412
0.801888
0.828871
0.856361
0.884353
0.912843
0.941827
0.971299
1.00125
1.03168
1.06257
1.09392
1.12571
1.15793
1.19057
1.22361
1.25704
1.29083
1.32498
1.35945
1.39423
1.42929
1.46462
1.50019
1.53597
1.57193
1.60806
1.64432
1.68069
1.71714
1.75363
1.79016
1.82668
1.86317
1.89959
1.93593
1.97216
2.00824
2.04415
2.07986
2.11534
2.15057
2.18541
2.21983
2.25381
2.28734
2.32038
2.35289
2.38483
2.41618
2.44688
2.47689
2.50619
2.53473
2.56247
2.58938
2.61543
2.64057
2.66479
2.68803
2.71029
2.73151
2.75169
2.7708
2.7888
2.80568
2.82142
2.83601
2.84942
2.86164
2.87267
2.88248
2.89108
2.89845
2.9046
2.90952
2.91321
2.91569
2.91694
2.91698
2.91582
2.91347
2.90995
2.90526
2.89943
2.89249
2.88444
2.87532
2.86514
2.85394
2.84175
2.82859
2.8145
2.7995
2.78365
2.76696
2.74946
2.73124
2.7123
2.6926
2.67237
2.65156
2.63021
2.60839
2.58613
2.56349
2.54051
2.51724
2.49374
2.47012
2.44644
2.42271
2.39893
2.37512
2.35132
2.32759
2.30397
2.28056
2.25744
2.23475
2.21268
2.1915
2.1712
2.15196
0.0149186
0.0379471
0.0500654
0.0587648
0.0661601
0.0729981
0.0796419
0.0862938
0.0930705
0.100035
0.107214
0.114615
0.122231
0.130051
0.138064
0.146258
0.154628
0.163173
0.171895
0.1808
0.1899
0.199212
0.208756
0.218557
0.228645
0.239054
0.24982
0.260985
0.272589
0.284678
0.297295
0.310482
0.324276
0.338705
0.353792
0.369548
0.38598
0.403085
0.42086
0.439294
0.458371
0.478069
0.498366
0.519247
0.540702
0.562724
0.585307
0.608448
0.632151
0.656418
0.681253
0.70666
0.73264
0.759198
0.786333
0.814049
0.842345
0.871223
0.900682
0.930721
0.961339
0.992533
1.0243
1.05663
1.08953
1.12297
1.15697
1.1915
1.22655
1.26211
1.29816
1.33469
1.37169
1.40912
1.44697
1.48522
1.52384
1.5628
1.60208
1.64166
1.68149
1.72156
1.76183
1.80226
1.84284
1.88352
1.92427
1.96506
2.00586
2.04663
2.08735
2.12797
2.16848
2.20882
2.24897
2.2889
2.32856
2.36792
2.40681
2.44525
2.48319
2.52062
2.55748
2.59375
2.62938
2.66432
2.69853
2.73196
2.76457
2.79633
2.82718
2.85708
2.88601
2.91391
2.94076
2.96651
2.99114
3.01461
3.03689
3.05795
3.07778
3.09633
3.1136
3.12957
3.14422
3.15752
3.16948
3.18008
3.18931
3.19717
3.20365
3.20875
3.21249
3.21485
3.21585
3.21549
3.2138
3.21077
3.20644
3.20081
3.19391
3.18577
3.1764
3.16583
3.1541
3.14123
3.12726
3.11222
3.09615
3.07906
3.06104
3.04211
3.02225
3.00161
2.98022
2.95806
2.93526
2.91182
2.88781
2.86327
2.83825
2.8128
2.78697
2.76082
2.73441
2.70782
2.68112
2.65434
2.6275
2.60065
2.57383
2.5471
2.52055
2.49428
2.46841
2.44313
2.41865
2.39529
2.37305
2.35203
0.0174621
0.0426992
0.0559024
0.0653404
0.0732938
0.0805674
0.0875527
0.0944718
0.101458
0.108591
0.115915
0.123449
0.131201
0.139169
0.14735
0.15574
0.164338
0.173148
0.182177
0.191436
0.20094
0.210709
0.220768
0.231144
0.241869
0.252976
0.264503
0.276488
0.288968
0.301983
0.315568
0.329757
0.344578
0.360052
0.376197
0.393022
0.410531
0.428723
0.447596
0.46714
0.487348
0.508207
0.529704
0.551832
0.574585
0.597959
0.621952
0.646564
0.671799
0.697661
0.724155
0.751286
0.77906
0.807481
0.836554
0.866282
0.89667
0.92772
0.959433
0.991811
1.02485
1.05856
1.09293
1.12795
1.16363
1.19995
1.2369
1.27449
1.31268
1.35148
1.39085
1.4308
1.47128
1.51229
1.5538
1.59577
1.6382
1.68103
1.72425
1.76782
1.81171
1.85587
1.90029
1.94491
1.9897
2.03463
2.07965
2.12473
2.16983
2.21492
2.25994
2.30488
2.34967
2.3943
2.43871
2.48288
2.52676
2.57019
2.61314
2.65557
2.69746
2.73877
2.77944
2.81944
2.85872
2.89722
2.93489
2.9717
3.00758
3.04249
3.07639
3.10923
3.14096
3.17155
3.20096
3.22915
3.25607
3.2817
3.306
3.32895
3.3505
3.37065
3.38936
3.40662
3.42241
3.43671
3.44951
3.46081
3.47058
3.47884
3.48557
3.49077
3.49446
3.49664
3.49731
3.49649
3.49419
3.49043
3.48522
3.4786
3.47057
3.46118
3.45045
3.4384
3.42508
3.4105
3.39473
3.3778
3.35973
3.34054
3.32036
3.2992
3.27708
3.25409
3.23026
3.20565
3.1803
3.15428
3.12763
3.1004
3.07265
3.04444
3.01581
2.98683
2.95756
2.92806
2.89841
2.86866
2.83885
2.80904
2.77927
2.74964
2.72023
2.69117
2.66262
2.63477
2.60788
2.58223
2.5578
2.53464
0.0196206
0.0466705
0.0607687
0.070824
0.0792466
0.0868857
0.0941541
0.101288
0.108436
0.115688
0.123103
0.130714
0.138539
0.146588
0.154864
0.163371
0.172116
0.181104
0.190347
0.19986
0.20966
0.219771
0.230218
0.241029
0.252236
0.263872
0.275972
0.288571
0.301702
0.315399
0.329693
0.344611
0.360177
0.376408
0.39332
0.410922
0.429219
0.448213
0.467904
0.488289
0.509366
0.531128
0.553572
0.576695
0.600495
0.624973
0.650131
0.675972
0.702503
0.72973
0.757659
0.7863
0.815659
0.845744
0.876563
0.908122
0.940428
0.973485
1.0073
1.04187
1.0772
1.11329
1.15015
1.18776
1.22612
1.26523
1.30507
1.34564
1.38693
1.42891
1.47158
1.5149
1.55886
1.60344
1.64859
1.69431
1.74054
1.78727
1.83445
1.88204
1.93001
1.97831
2.02691
2.07576
2.12481
2.17403
2.22336
2.27277
2.32221
2.37164
2.42101
2.47029
2.51941
2.56835
2.61704
2.66546
2.71352
2.76106
2.80806
2.85449
2.90032
2.94548
2.98994
3.03364
3.07653
3.11855
3.15965
3.19976
3.23885
3.27686
3.31374
3.34944
3.38391
3.41712
3.449
3.47953
3.50867
3.53637
3.5626
3.58732
3.61052
3.63215
3.6522
3.67066
3.68749
3.70269
3.71624
3.72814
3.73837
3.74693
3.75382
3.75904
3.7626
3.76451
3.76478
3.76341
3.76044
3.75587
3.74974
3.74206
3.73285
3.72216
3.71003
3.69648
3.68153
3.6652
3.64761
3.62878
3.60874
3.58752
3.5652
3.54184
3.51746
3.49213
3.46591
3.43884
3.41098
3.3824
3.35314
3.32327
3.29283
3.26189
3.23051
3.19874
3.16665
3.13431
3.10178
3.06914
3.03643
3.00371
2.97107
2.9386
2.9064
2.87461
2.84341
2.813
2.78364
2.7556
2.7288
2.70328
0.0213808
0.0498801
0.0646868
0.0752337
0.0840305
0.0919597
0.0994493
0.106746
0.114007
0.121333
0.128794
0.136434
0.144281
0.152353
0.160664
0.169223
0.178041
0.18713
0.196504
0.20618
0.216178
0.226522
0.237238
0.248354
0.2599
0.271908
0.284409
0.297436
0.311018
0.325187
0.339967
0.355385
0.37146
0.388211
0.405651
0.423792
0.442643
0.462207
0.482491
0.503496
0.525225
0.547678
0.570858
0.594768
0.619411
0.644791
0.670917
0.697794
0.725432
0.753841
0.783031
0.813013
0.843797
0.875395
0.907817
0.941073
0.975171
1.01012
1.04592
1.08259
1.12013
1.15853
1.1978
1.23793
1.27893
1.32079
1.36349
1.40703
1.45139
1.49655
1.5425
1.58921
1.63666
1.68482
1.73365
1.78313
1.83321
1.88386
1.93504
1.98669
2.03878
2.09126
2.14408
2.19718
2.25053
2.30407
2.35774
2.41151
2.46531
2.5191
2.57283
2.62645
2.67991
2.73315
2.78614
2.83881
2.89098
2.94258
2.9936
3.04398
3.09368
3.14265
3.19083
3.23816
3.28458
3.33004
3.37446
3.4178
3.45999
3.50099
3.54074
3.57918
3.61627
3.65196
3.6862
3.71895
3.75017
3.77981
3.80784
3.83422
3.85892
3.88192
3.90318
3.9227
3.94046
3.95643
3.97062
3.983
3.99357
4.00233
4.00928
4.01442
4.01776
4.01931
4.01909
4.01711
4.01339
4.00795
4.00083
3.99204
3.98161
3.96957
3.956
3.94091
3.92434
3.90633
3.88694
3.86622
3.84421
3.82097
3.79655
3.771
3.74439
3.71676
3.68818
3.6587
3.62838
3.59729
3.56548
3.53301
3.49994
3.46634
3.43226
3.39777
3.36293
3.32782
3.29249
3.25703
3.2215
3.18598
3.15055
3.11531
3.08038
3.04592
3.0121
2.97915
2.9473
2.91679
2.88751
2.8595
0.0227451
0.0523634
0.0677009
0.0786158
0.0876905
0.0958318
0.103478
0.110883
0.118209
0.125567
0.133033
0.140659
0.148484
0.156533
0.164827
0.173381
0.182211
0.191332
0.200761
0.210518
0.220623
0.2311
0.241975
0.253275
0.265028
0.277264
0.290012
0.303302
0.317161
0.331618
0.346696
0.362419
0.378807
0.39588
0.413652
0.432137
0.451348
0.471294
0.491985
0.513427
0.53563
0.558601
0.582346
0.606875
0.632197
0.658321
0.685258
0.713021
0.741623
0.771077
0.801397
0.832597
0.864693
0.897699
0.931628
0.966492
1.0023
1.03908
1.07682
1.11553
1.15522
1.1959
1.23756
1.28021
1.32384
1.36844
1.414
1.46052
1.50797
1.55633
1.6056
1.65572
1.70669
1.75847
1.81101
1.86429
1.91825
1.97286
2.02806
2.08381
2.14005
2.19672
2.25378
2.31116
2.36881
2.42666
2.48467
2.54277
2.60091
2.65903
2.71709
2.77501
2.83275
2.89025
2.94745
3.00424
3.06043
3.11601
3.17093
3.22515
3.27861
3.33125
3.38302
3.43383
3.48364
3.53237
3.57996
3.62635
3.67147
3.71528
3.75772
3.79872
3.83824
3.87623
3.91264
3.94742
3.98053
4.01194
4.04159
4.06944
4.09547
4.11966
4.14197
4.16239
4.1809
4.1975
4.21217
4.2249
4.23568
4.2445
4.25138
4.25632
4.25934
4.26044
4.25963
4.25695
4.25241
4.24604
4.23787
4.22794
4.21626
4.20289
4.18788
4.17126
4.15307
4.13337
4.1122
4.08963
4.0657
4.04046
4.01397
3.9863
3.9575
3.92764
3.89676
3.86494
3.83224
3.79872
3.76444
3.72946
3.69386
3.65768
3.62101
3.58389
3.5464
3.50861
3.4706
3.43244
3.3942
3.35597
3.31784
3.27993
3.24236
3.2053
3.16893
3.13347
3.09913
3.06613
3.03432
3.00378
0.0237307
0.0541728
0.0698764
0.0810415
0.0903003
0.0985759
0.106313
0.113771
0.121115
0.128461
0.135892
0.143467
0.151231
0.159216
0.167447
0.175947
0.184734
0.193827
0.203244
0.213007
0.223136
0.233655
0.244588
0.255962
0.267804
0.28014
0.292999
0.306408
0.320395
0.334984
0.3502
0.366068
0.382607
0.39984
0.417784
0.436457
0.455873
0.47605
0.497
0.518738
0.541277
0.564631
0.588812
0.613837
0.639718
0.666472
0.694115
0.722663
0.752135
0.782547
0.81392
0.846271
0.879619
0.913982
0.949376
0.985819
1.02333
1.06191
1.10158
1.14234
1.18421
1.22718
1.27127
1.31646
1.36275
1.41014
1.45861
1.50815
1.55874
1.61036
1.66298
1.71658
1.77111
1.82654
1.88284
1.93994
1.99782
2.0564
2.11565
2.17549
2.23588
2.29674
2.35801
2.41963
2.48152
2.54364
2.60591
2.66826
2.73065
2.79301
2.85527
2.91738
2.97927
3.04089
3.10216
3.16283
3.22286
3.28221
3.34084
3.39868
3.45567
3.51176
3.56687
3.62094
3.67388
3.72564
3.77613
3.8253
3.8731
3.91945
3.9643
4.0076
4.04928
4.0893
4.12761
4.16416
4.19891
4.23183
4.26286
4.29195
4.31907
4.34421
4.36735
4.38846
4.40753
4.42455
4.43951
4.45242
4.46324
4.47198
4.47864
4.48325
4.48582
4.48635
4.48488
4.48142
4.476
4.46865
4.45941
4.4483
4.43537
4.42066
4.40421
4.38608
4.3663
4.34493
4.32203
4.29766
4.27185
4.24469
4.21622
4.18651
4.15561
4.1236
4.09054
4.05648
4.02151
3.98567
3.94904
3.91169
3.87367
3.83506
3.79592
3.75631
3.71631
3.67599
3.63543
3.5947
3.5539
3.5131
3.47242
3.43196
3.39188
3.35232
3.31348
3.27557
3.23879
3.20332
3.169
3.13595
0.0243681
0.0553742
0.0712947
0.0826015
0.0919557
0.100291
0.108055
0.115509
0.122823
0.130116
0.137474
0.144962
0.152629
0.160512
0.168642
0.177044
0.18574
0.194751
0.204096
0.213797
0.223875
0.234354
0.245256
0.256607
0.268433
0.28076
0.293614
0.307022
0.321011
0.335606
0.350834
0.366718
0.383283
0.400551
0.418546
0.437288
0.456798
0.477097
0.498205
0.520141
0.542926
0.566579
0.591121
0.616571
0.64295
0.67028
0.698583
0.72788
0.758194
0.789548
0.821966
0.855469
0.890082
0.925825
0.962718
1.00078
1.04003
1.08049
1.12216
1.16505
1.20918
1.25454
1.30113
1.34896
1.39801
1.44828
1.49975
1.5524
1.60622
1.66117
1.71722
1.77435
1.8325
1.89163
1.95171
2.01266
2.07444
2.137
2.20026
2.26416
2.32863
2.39361
2.45901
2.52476
2.59078
2.65701
2.72338
2.78982
2.85627
2.92265
2.98891
3.05498
3.12079
3.18629
3.25121
3.31547
3.37904
3.44185
3.50384
3.56497
3.62515
3.68433
3.74244
3.7994
3.85511
3.90951
3.96253
4.01411
4.06419
4.11271
4.1596
4.20482
4.24829
4.28998
4.32984
4.36781
4.40386
4.43798
4.47007
4.50008
4.52799
4.5538
4.57748
4.59901
4.61838
4.63559
4.65062
4.66348
4.67415
4.68263
4.68893
4.69308
4.69508
4.69495
4.69272
4.68842
4.68206
4.67369
4.66333
4.65104
4.63684
4.62079
4.60294
4.58332
4.562
4.53903
4.51447
4.48837
4.46079
4.4318
4.40145
4.36981
4.33695
4.30294
4.26783
4.23169
4.19459
4.15661
4.1178
4.07823
4.03798
3.9971
3.95567
3.91376
3.87143
3.82877
3.78585
3.74274
3.69955
3.65637
3.6133
3.57047
3.52802
3.48611
3.44493
3.40468
3.36555
3.32769
3.29093
3.25544
0.0246988
0.0560443
0.0720497
0.0834002
0.0927682
0.101091
0.108821
0.116218
0.123455
0.130652
0.1379
0.145266
0.152803
0.160552
0.168545
0.176811
0.185373
0.194254
0.203473
0.213054
0.223017
0.233384
0.244179
0.255427
0.267151
0.279379
0.292136
0.30545
0.319348
0.333856
0.349003
0.364816
0.381321
0.398546
0.416518
0.435262
0.454806
0.475175
0.496396
0.518496
0.541502
0.56544
0.590337
0.616221
0.643118
0.671055
0.70006
0.73016
0.761383
0.793758
0.827312
0.862072
0.898065
0.935314
0.973844
1.01367
1.05483
1.09732
1.14116
1.18636
1.23292
1.28084
1.33012
1.38075
1.43273
1.48603
1.54064
1.59654
1.6537
1.71208
1.77166
1.83237
1.89418
1.95704
2.02089
2.08567
2.15132
2.21776
2.28494
2.35278
2.4212
2.49014
2.55947
2.62913
2.69903
2.76911
2.8393
2.90951
2.97969
3.04976
3.11965
3.18931
3.25868
3.32747
3.3956
3.46301
3.52964
3.59542
3.6603
3.72421
3.78707
3.84882
3.90942
3.96879
4.02675
4.08328
4.13831
4.19178
4.24364
4.29383
4.34227
4.38892
4.43371
4.47661
4.51755
4.5565
4.59341
4.62825
4.66097
4.69151
4.71987
4.74601
4.76991
4.79157
4.81098
4.82811
4.84297
4.85556
4.86587
4.87391
4.87969
4.88322
4.88453
4.88363
4.88055
4.87532
4.86797
4.85854
4.84706
4.83357
4.81813
4.80077
4.78155
4.76052
4.73773
4.71324
4.68712
4.65941
4.63018
4.5995
4.56743
4.53404
4.49938
4.46354
4.42657
4.38855
4.34954
4.30961
4.26884
4.22728
4.18502
4.14211
4.09862
4.05464
4.01022
3.96544
3.92039
3.87514
3.8298
3.78446
3.73922
3.69422
3.6496
3.60553
3.56218
3.51975
3.47841
3.43829
3.39923
3.36142
0.0247737
0.0562671
0.0722424
0.0835498
0.0928576
0.101104
0.10874
0.116028
0.123142
0.130205
0.137308
0.14452
0.151897
0.15948
0.167306
0.175402
0.183793
0.192503
0.201554
0.210965
0.22076
0.230961
0.241591
0.252675
0.264237
0.276305
0.288905
0.302067
0.315819
0.330192
0.345215
0.36092
0.377338
0.394501
0.412442
0.431193
0.450785
0.471254
0.492631
0.514952
0.538252
0.562564
0.587924
0.614367
0.641925
0.67063
0.700514
0.731611
0.763953
0.797574
0.832505
0.868776
0.906415
0.945449
0.985901
1.02779
1.07115
1.11598
1.1623
1.21012
1.25942
1.31019
1.36243
1.41613
1.47126
1.52781
1.58576
1.64506
1.7057
1.76762
1.83078
1.89512
1.96059
2.02714
2.09469
2.16318
2.23254
2.30269
2.37355
2.44506
2.51715
2.58976
2.66267
2.73584
2.8092
2.88268
2.9562
3.0297
3.10309
3.17632
3.24931
3.322
3.3941
3.46554
3.53623
3.60613
3.67515
3.74323
3.8103
3.8763
3.94114
4.00477
4.06711
4.12808
4.18759
4.24557
4.30195
4.35667
4.40968
4.4609
4.51028
4.55777
4.60331
4.64684
4.68834
4.72774
4.76501
4.80011
4.83301
4.86365
4.89203
4.91811
4.94187
4.96331
4.98242
4.99918
5.0136
5.02567
5.0354
5.04279
5.04786
5.05063
5.05111
5.04933
5.04532
5.0391
5.03071
5.02019
5.00758
4.99293
4.97627
4.95766
4.93715
4.9148
4.89066
4.86478
4.83724
4.80809
4.77739
4.74521
4.71161
4.67667
4.64045
4.60301
4.56443
4.52478
4.48411
4.44251
4.40004
4.35678
4.31278
4.26812
4.22287
4.17709
4.13087
4.08427
4.03738
3.99027
3.94306
3.89583
3.8487
3.80179
3.75525
3.70924
3.66394
3.61954
3.57618
3.534
3.49283
3.45288
0.0246514
0.0561306
0.0719767
0.0831648
0.0923464
0.100456
0.107945
0.115077
0.122027
0.128919
0.135844
0.142874
0.150064
0.157456
0.165088
0.172987
0.18118
0.18969
0.198539
0.207749
0.217344
0.227346
0.237779
0.24867
0.260045
0.271933
0.284364
0.297369
0.310981
0.325234
0.340163
0.355804
0.372196
0.389376
0.407385
0.426259
0.44604
0.466768
0.488486
0.511237
0.535063
0.560011
0.586124
0.613447
0.642019
0.671866
0.703026
0.735537
0.769437
0.804762
0.841544
0.879813
0.919597
0.96092
1.0038
1.04826
1.09432
1.14198
1.19126
1.24219
1.29469
1.34873
1.4043
1.46139
1.51998
1.58003
1.6415
1.70437
1.76858
1.83408
1.90081
1.96871
2.03772
2.10777
2.17879
2.25069
2.32341
2.39686
2.47097
2.54563
2.62079
2.69634
2.77217
2.84819
2.92432
3.00048
3.07661
3.15262
3.22846
3.30407
3.37931
3.45393
3.52788
3.60107
3.67344
3.74492
3.81542
3.88489
3.95325
4.02043
4.08635
4.15096
4.21417
4.27592
4.33613
4.39471
4.45162
4.50679
4.56016
4.61166
4.66125
4.70886
4.75445
4.79797
4.83938
4.87862
4.91567
4.95049
4.98304
5.01328
5.0412
5.06678
5.08999
5.11083
5.12928
5.14535
5.15903
5.17032
5.17923
5.18577
5.18995
5.1918
5.19133
5.18856
5.18354
5.17629
5.16685
5.15525
5.14154
5.12577
5.10797
5.08821
5.06654
5.043
5.01766
4.99058
4.96181
4.93142
4.89948
4.86605
4.83119
4.79497
4.75746
4.71872
4.67883
4.63785
4.59586
4.55291
4.50908
4.46444
4.41905
4.37299
4.32632
4.2791
4.23142
4.18335
4.13496
4.08635
4.0376
3.98881
3.9401
3.8916
3.84344
3.79579
3.74882
3.70269
3.65757
3.61357
3.57052
3.52868
0.0243838
0.0557094
0.0713356
0.0823326
0.0913239
0.099238
0.106526
0.113454
0.120198
0.12688
0.133596
0.140414
0.14739
0.154567
0.161981
0.169662
0.177635
0.185926
0.194559
0.203557
0.212944
0.222747
0.232993
0.243711
0.254931
0.266687
0.279014
0.291948
0.305529
0.319795
0.334791
0.350559
0.367149
0.384609
0.40299
0.422334
0.442686
0.464099
0.486626
0.51032
0.535236
0.561427
0.58895
0.617867
0.648254
0.680049
0.713316
0.748102
0.784446
0.822381
0.861934
0.903129
0.945983
0.990512
1.03672
1.08462
1.13421
1.18548
1.23843
1.29304
1.34928
1.40709
1.46646
1.52733
1.58968
1.65346
1.71863
1.78512
1.85287
1.92184
1.99195
2.06314
2.13533
2.20845
2.28242
2.35717
2.4326
2.50864
2.58521
2.66221
2.73956
2.81718
2.89497
2.97284
3.05071
3.12851
3.20617
3.28364
3.36083
3.4375
3.51354
3.58889
3.66347
3.73721
3.81003
3.88186
3.95264
4.02229
4.09074
4.15793
4.22378
4.28823
4.35121
4.41265
4.47249
4.53065
4.58707
4.6417
4.69447
4.74533
4.79423
4.84111
4.88592
4.92863
4.96919
5.00755
5.04369
5.07757
5.10915
5.13842
5.16534
5.18989
5.21207
5.23187
5.24926
5.26426
5.27687
5.28708
5.2949
5.30035
5.30344
5.3042
5.30264
5.2988
5.29269
5.28436
5.27385
5.26118
5.24642
5.22959
5.21075
5.18995
5.16725
5.14269
5.11634
5.08825
5.05849
5.02711
4.99418
4.95977
4.92394
4.88675
4.84827
4.80856
4.7677
4.72576
4.68278
4.63886
4.59404
4.5484
4.50201
4.45492
4.40721
4.35895
4.3102
4.26103
4.21153
4.16178
4.11186
4.06188
4.01196
3.9622
3.91276
3.86378
3.81543
3.76789
3.72128
3.67574
3.63109
3.58761
0.0240962
0.0551577
0.0704955
0.081245
0.0899956
0.0976701
0.104721
0.111415
0.117928
0.124386
0.130881
0.137482
0.144244
0.15121
0.158417
0.165895
0.173674
0.181781
0.190243
0.199089
0.208347
0.21805
0.228231
0.238926
0.250174
0.262016
0.274497
0.287664
0.301569
0.316261
0.331788
0.348209
0.365589
0.383999
0.403526
0.424183
0.446012
0.469088
0.493477
0.519241
0.54644
0.575131
0.605367
0.637198
0.670666
0.70578
0.742568
0.781056
0.821264
0.863206
0.906889
0.952316
0.999482
1.04838
1.09899
1.1513
1.20528
1.2609
1.31814
1.37695
1.43728
1.4991
1.56233
1.62694
1.69286
1.76005