/*--------------------------------*- C++ -*----------------------------------*\
  =========                 |
  \\      /  F ield         | OpenFOAM: The Open Source CFD Toolbox
   \\    /   O peration     | Website:  https://openfoam.org
    \\  /    A nd           | Version:  12
     \\/     M anipulation  |
\*---------------------------------------------------------------------------*/
FoamFile
{
    format      ascii;
    class       volScalarField;
    location    "0.24";
    object      nut;
}
// * * * * * * * * * * * * * * * * * * * * * * * * * * * * * * * * * * * * * //

dimensions      [0 2 -1 0 0 0 0];

internalField   nonuniform List<scalar> 
12225
(
4.04768e-05
3.83178e-05
3.62504e-05
3.44199e-05
3.29519e-05
3.18976e-05
3.12561e-05
3.09936e-05
3.10579e-05
3.13898e-05
3.19307e-05
3.26268e-05
3.34316e-05
3.43068e-05
3.5223e-05
3.61558e-05
3.711e-05
3.84916e-05
0.000281048
0.000209266
0.000176267
0.00015744
0.000146272
0.000139688
0.000135794
0.000133431
0.000131916
0.000130859
0.000130045
0.000129358
0.00012874
0.000128162
0.000127623
0.00012708
0.000126683
0.000125737
0.000556048
0.000419908
0.000349816
0.000304738
0.000272451
0.000247988
0.000228772
0.000213309
0.000200682
0.000190282
0.000181668
0.000174503
0.000168515
0.000163485
0.000159237
0.000155588
0.00015245
0.000149392
0.000740308
0.000625822
0.000544118
0.000485002
0.000439775
0.000403657
0.00037385
0.000348616
0.000326868
0.000307909
0.000291265
0.000276589
0.000263611
0.000252102
0.000241865
0.000232686
0.000224408
0.000216751
0.000817069
0.000759142
0.000700547
0.00064858
0.000603901
0.00056559
0.000532483
0.000503525
0.000477894
0.00045498
0.000434338
0.000415632
0.000398605
0.000383046
0.000368776
0.000355612
0.000343409
0.000332073
0.0008421
0.000819688
0.000789925
0.000757608
0.000725557
0.000695169
0.000666973
0.000641028
0.000617189
0.000595257
0.000575028
0.000556315
0.000538954
0.000522798
0.000507718
0.000493584
0.000480296
0.0004679
0.000849261
0.000841808
0.000829742
0.000814189
0.000796483
0.000777765
0.000758855
0.000740264
0.00072228
0.000705049
0.000688632
0.000673036
0.000658242
0.00064421
0.000630895
0.000618242
0.000606211
0.000594929
0.00085112
0.000848748
0.000844481
0.000838237
0.000830247
0.000820897
0.000810602
0.000799727
0.000788562
0.000777323
0.000766167
0.000755201
0.000744493
0.000734087
0.000724006
0.000714259
0.000704859
0.00069596
0.00085156
0.000850665
0.00084917
0.000846887
0.000843742
0.00083976
0.000835036
0.000829697
0.000823879
0.000817711
0.000811307
0.00080476
0.000798148
0.000791531
0.000784956
0.000778459
0.000772079
0.000765949
0.000851652
0.000851133
0.000850468
0.000849564
0.000848347
0.000846773
0.000844827
0.000842521
0.000839886
0.000836961
0.000833794
0.000830429
0.000826911
0.00082328
0.00081957
0.000815814
0.000812045
0.00080836
0.000851668
0.00085123
0.000850778
0.000850278
0.000849698
0.000849007
0.000848183
0.000847212
0.000846089
0.000844815
0.000843401
0.000841856
0.000840196
0.000838437
0.000836595
0.000834687
0.000832731
0.000830785
0.000851669
0.000851245
0.000850835
0.000850429
0.000850014
0.000849575
0.000849101
0.00084858
0.000848003
0.000847365
0.000846665
0.000845902
0.000845079
0.0008442
0.000843269
0.000842294
0.000841284
0.000840273
0.000851668
0.000851244
0.000850843
0.000850459
0.000850088
0.000849726
0.000849365
0.000849001
0.000848629
0.000848243
0.000847841
0.00084742
0.00084698
0.000846519
0.000846038
0.000845538
0.000845023
0.000844513
0.000851667
0.000851242
0.000850839
0.000850458
0.000850096
0.000849751
0.000849421
0.000849102
0.000848793
0.000848491
0.000848195
0.000847902
0.000847611
0.000847321
0.000847032
0.000846742
0.000846454
0.00084618
0.000851666
0.000851239
0.000850835
0.000850452
0.00085009
0.000849746
0.000849419
0.000849108
0.000848812
0.000848528
0.000848257
0.000847996
0.000847746
0.000847505
0.000847272
0.000847047
0.000846832
0.000846638
0.000851665
0.000851236
0.000850831
0.000850447
0.000850083
0.000849737
0.000849409
0.000849098
0.000848801
0.000848519
0.000848251
0.000847994
0.00084775
0.000847517
0.000847294
0.000847082
0.000846881
0.000846703
0.000851664
0.000851235
0.000850828
0.000850442
0.000850077
0.00084973
0.000849401
0.000849088
0.00084879
0.000848507
0.000848237
0.00084798
0.000847735
0.000847502
0.000847279
0.000847066
0.000846866
0.000846688
0.000851663
0.000851234
0.000850826
0.00085044
0.000850073
0.000849725
0.000849395
0.000849081
0.000848782
0.000848498
0.000848227
0.000847969
0.000847723
0.000847488
0.000847264
0.00084705
0.000846848
0.000846669
0.000851663
0.000851233
0.000850825
0.000850439
0.000850072
0.000849724
0.000849393
0.000849078
0.000848779
0.000848494
0.000848222
0.000847963
0.000847716
0.000847481
0.000847256
0.000847041
0.000846838
0.000846658
0.000851664
0.000851234
0.000850826
0.00085044
0.000850074
0.000849726
0.000849396
0.000849081
0.000848782
0.000848497
0.000848225
0.000847965
0.000847717
0.00084748
0.000847253
0.000847037
0.000846831
0.000846649
0.000851664
0.000851235
0.000850829
0.000850443
0.000850078
0.00084973
0.000849399
0.000849082
0.000848779
0.000848489
0.000848209
0.00084794
0.000847679
0.000847427
0.000847182
0.000846944
0.000846715
0.000846506
0.000851665
0.000851237
0.00085083
0.000850442
0.000850068
0.000849706
0.000849351
0.000848999
0.000848647
0.000848293
0.000847934
0.000847569
0.000847198
0.000846819
0.000846432
0.000846038
0.00084564
0.000845251
0.000851664
0.000851228
0.000850794
0.000850348
0.00084987
0.000849345
0.000848761
0.00084811
0.000847388
0.000846592
0.000845727
0.000844795
0.000843804
0.00084276
0.000841669
0.000840541
0.000839384
0.000838223
0.000851634
0.000851073
0.000850343
0.000849363
0.000848079
0.000846467
0.00084453
0.000842291
0.000839784
0.00083705
0.000834133
0.000831072
0.000827906
0.000824668
0.000821388
0.000818092
0.000814802
0.000811567
0.000851287
0.000849596
0.000846721
0.000842577
0.000837262
0.000830978
0.00082397
0.000816468
0.00080867
0.000800733
0.000792778
0.000784895
0.000777149
0.000769585
0.000762234
0.000755115
0.000748242
0.000741669
0.000848318
0.000839425
0.00082616
0.000810016
0.000792356
0.000774222
0.000756314
0.000739034
0.000722582
0.000707036
0.000692408
0.00067867
0.000665778
0.000653675
0.000642306
0.000631615
0.000621556
0.000612139
0.000828548
0.000788842
0.000746032
0.000705698
0.000669457
0.000637491
0.000609432
0.000584722
0.000562823
0.000543281
0.000525725
0.000509857
0.000495435
0.000482266
0.00047019
0.000459076
0.000448819
0.000439371
0.000730725
0.000627344
0.000554503
0.000501054
0.00046031
0.000428337
0.00040262
0.000381453
0.000363691
0.000348559
0.000335512
0.000324151
0.000314178
0.000305365
0.000297531
0.000290531
0.000284248
0.000278597
0.000439249
0.00033847
0.000287933
0.000256867
0.000236359
0.000222508
0.00021299
0.000206309
0.000201503
0.000197957
0.000195269
0.000193176
0.000191498
0.000190115
0.000188946
0.000187932
0.000187036
0.000186209
7.16431e-05
6.90587e-05
6.65522e-05
6.41646e-05
6.19883e-05
6.00784e-05
5.84565e-05
5.71213e-05
5.60572e-05
5.52403e-05
5.46437e-05
5.42396e-05
5.40011e-05
5.39033e-05
5.39238e-05
5.40424e-05
5.42416e-05
5.45053e-05
2.26726e-07
5.77419e-06
9.53563e-06
1.28685e-05
1.63342e-05
2.04086e-05
2.51142e-05
3.05882e-05
3.69787e-05
4.40025e-05
5.13838e-05
5.91177e-05
6.71463e-05
7.54007e-05
8.38136e-05
9.23219e-05
0.000100866
0.000109391
0.000117842
0.000126165
0.000134309
0.00014222
0.000149848
0.000157141
0.00016405
0.00017052
0.000176498
0.00018192
0.000186721
0.000190832
0.00019419
0.000196738
0.000198391
0.000198937
0.000198112
0.000197221
0.000198152
0.000199639
0.000201102
0.000201491
4.64187e-05
0.00020093
4.62692e-05
4.70205e-05
4.81852e-05
4.9238e-05
5.03087e-05
5.13924e-05
5.2482e-05
5.35746e-05
5.46682e-05
5.57614e-05
5.68533e-05
5.79433e-05
5.9031e-05
6.01161e-05
6.11981e-05
6.22768e-05
6.3352e-05
6.44233e-05
6.54904e-05
6.6553e-05
6.76108e-05
6.86635e-05
6.97106e-05
7.07517e-05
7.17866e-05
7.28147e-05
7.38356e-05
7.4849e-05
7.58543e-05
7.68511e-05
7.78389e-05
7.88173e-05
7.97859e-05
8.07441e-05
8.16916e-05
8.26278e-05
8.35523e-05
8.44647e-05
8.53645e-05
8.62514e-05
8.71249e-05
8.79846e-05
8.88302e-05
8.96611e-05
9.04772e-05
9.12778e-05
9.20628e-05
9.28317e-05
9.35841e-05
9.43196e-05
9.5038e-05
9.57387e-05
9.64216e-05
9.70865e-05
9.77333e-05
9.83626e-05
9.89756e-05
9.95751e-05
0.00010016
0.000100722
0.000101263
0.000101782
0.000102279
0.000102755
0.000103208
0.000103638
0.000104046
0.00010443
0.000104791
0.000105127
0.00010544
0.000105728
0.000105991
0.000106229
0.000106442
0.00010663
0.000106793
0.00010693
0.000107041
0.000107127
0.000107188
0.000107222
0.000107231
0.000107215
0.000107172
0.000107105
0.000107012
0.000106894
0.000106751
0.000106583
0.000106391
0.000106174
0.000105934
0.000105669
0.000105382
0.000105071
0.000104738
0.000104382
0.000104005
0.000103606
0.000103187
0.000102747
0.000102287
0.000101809
0.000101311
0.000100796
0.000100263
9.97129e-05
9.91469e-05
9.85654e-05
9.79691e-05
9.73586e-05
9.67347e-05
9.60979e-05
9.54493e-05
9.47894e-05
9.4119e-05
9.3439e-05
9.27492e-05
9.20526e-05
9.13473e-05
9.06378e-05
8.9929e-05
8.92817e-05
8.88634e-05
8.84759e-05
8.8088e-05
8.7698e-05
8.73058e-05
8.69116e-05
8.65147e-05
8.61137e-05
8.57058e-05
8.52841e-05
8.48331e-05
8.43126e-05
8.36232e-05
8.23226e-05
8.62006e-07
2.38616e-05
5.24357e-05
7.33676e-05
8.84245e-05
9.93339e-05
0.000108415
0.000117007
0.000125755
0.000134915
0.000144507
0.000154459
0.000164675
0.000175065
0.000185542
0.00019603
0.000206456
0.000216751
0.000226845
0.00023667
0.000246152
0.000255217
0.000263785
0.000271765
0.000279056
0.000285534
0.000291043
0.000295391
0.000298339
0.000299625
0.000298994
0.000296233
0.000291114
0.00028314
0.000271328
0.000256102
0.000253367
0.000252829
0.000252668
0.000252747
0.000249678
0.000266636
0.000258114
0.000261301
0.000267954
0.000275134
0.000281625
0.000288501
0.000295695
0.00030313
0.000310752
0.000318528
0.000326437
0.000334466
0.000342607
0.000350853
0.0003592
0.000367645
0.000376186
0.000384821
0.000393547
0.000402363
0.000411267
0.000420257
0.00042933
0.000438484
0.000447716
0.000457023
0.000466401
0.000475847
0.000485356
0.000494924
0.000504546
0.000514217
0.000523933
0.000533686
0.000543472
0.000553285
0.00056312
0.00057297
0.000582829
0.000592692
0.000602552
0.000612405
0.000622244
0.000632065
0.000641863
0.000651632
0.000661368
0.000671067
0.000680724
0.000690334
0.000699894
0.000709395
0.000718831
0.000728186
0.000737441
0.000746557
0.00075548
0.000764038
0.000771998
0.000779787
0.000787453
0.000794997
0.000802415
0.0008097
0.000816849
0.000823854
0.00083071
0.000837413
0.000843957
0.000850336
0.000856546
0.000862582
0.000868439
0.000874112
0.000879598
0.000884893
0.000889992
0.000894891
0.000899588
0.000904079
0.000908362
0.000912433
0.00091629
0.000919932
0.000923355
0.000926559
0.000929541
0.000932301
0.000934837
0.000937149
0.000939237
0.0009411
0.000942739
0.000944154
0.000945346
0.000946317
0.000947066
0.000947597
0.000947911
0.00094801
0.000947897
0.000947575
0.000947047
0.000946317
0.000945388
0.000944265
0.000942951
0.000941452
0.000939772
0.000937917
0.000935891
0.000933702
0.000931354
0.000928852
0.000926208
0.000923423
0.000920508
0.000917473
0.00091431
0.000911054
0.0009077
0.000904211
0.000900487
0.000895934
0.000889357
0.000882123
0.000874677
0.000867129
0.000859516
0.000851855
0.000844154
0.000836415
0.000828632
0.000820781
0.000812787
0.000804539
0.000795046
0.000776625
1.72247e-06
3.88388e-05
8.38556e-05
0.000117711
0.000142164
0.000160384
0.000174853
0.00018733
0.000198934
0.000210299
0.000221719
0.00023329
0.000245002
0.000256801
0.000268615
0.000280369
0.000291988
0.000303398
0.000314528
0.000325306
0.000335664
0.000345532
0.000354841
0.000363524
0.000371513
0.000378738
0.000385129
0.00039062
0.000395161
0.000398744
0.000401448
0.000403469
0.00040512
0.000406765
0.000408749
0.00041186
0.000417708
0.00042512
0.000433707
0.000443532
0.000454113
0.000466469
0.000476958
0.000489255
0.000503152
0.000517896
0.000532868
0.000548148
0.000563748
0.000579644
0.000595807
0.000612218
0.000628857
0.000645712
0.000662774
0.000680033
0.000697486
0.000715125
0.000732947
0.000750947
0.000769122
0.000787466
0.000805974
0.000824642
0.000843463
0.000862432
0.00088154
0.00090078
0.000920145
0.000939624
0.000959208
0.000978887
0.000998651
0.00101849
0.00103839
0.00105833
0.00107832
0.00109832
0.00111835
0.00113836
0.00115837
0.00117835
0.00119829
0.00121818
0.00123801
0.00125776
0.00127742
0.00129699
0.00131644
0.00133577
0.00135497
0.00137402
0.0013929
0.00141159
0.00143008
0.00144833
0.00146631
0.00148398
0.00150127
0.0015179
0.00153408
0.00154996
0.00156558
0.00158095
0.00159604
0.00161085
0.00162538
0.0016396
0.0016535
0.00166708
0.00168033
0.00169323
0.00170577
0.00171795
0.00172975
0.00174117
0.00175219
0.00176281
0.00177303
0.00178282
0.00179219
0.00180113
0.00180963
0.00181769
0.0018253
0.00183247
0.00183917
0.00184542
0.00185121
0.00185653
0.00186139
0.00186577
0.0018697
0.00187315
0.00187614
0.00187866
0.00188071
0.00188231
0.00188344
0.00188412
0.00188435
0.00188413
0.00188347
0.00188238
0.00188086
0.00187891
0.00187656
0.00187379
0.00187064
0.00186709
0.00186318
0.00185889
0.00185425
0.00184927
0.00184397
0.00183834
0.00183241
0.0018262
0.00181971
0.00181298
0.00180601
0.00179882
0.00179142
0.00178373
0.00177559
0.00176646
0.00175552
0.00174363
0.00173127
0.00171865
0.00170585
0.00169291
0.00167987
0.00166671
0.00165343
0.00163994
0.00162605
0.00161125
0.00159359
0.00156447
2.73965e-06
4.98156e-05
0.000106809
0.0001506
0.000183134
0.000207725
0.000227111
0.000243323
0.000257758
0.000271303
0.000284466
0.000297502
0.000310509
0.000323496
0.00033643
0.000349259
0.000361925
0.000374367
0.000386531
0.000398365
0.000409826
0.000420876
0.000431491
0.000441654
0.000451365
0.000460634
0.000469493
0.000477989
0.000486204
0.000494257
0.000502325
0.000510644
0.0005195
0.000529189
0.000539971
0.000552083
0.000565695
0.000580597
0.000596623
0.000613682
0.000631612
0.000650321
0.000669481
0.000689496
0.000710367
0.000731859
0.000753749
0.00077598
0.000798537
0.000821411
0.00084459
0.000868064
0.000891823
0.000915857
0.000940159
0.000964722
0.00098954
0.00101461
0.00103991
0.00106546
0.00109123
0.00111723
0.00114345
0.00116987
0.00119648
0.00122329
0.00125027
0.00127742
0.00130471
0.00133215
0.00135971
0.00138738
0.00141514
0.00144297
0.00147087
0.0014988
0.00152676
0.00155472
0.00158268
0.00161059
0.00163846
0.00166626
0.00169398
0.00172159
0.00174907
0.00177642
0.00180361
0.00183063
0.00185745
0.00188407
0.00191045
0.00193659
0.00196246
0.00198803
0.00201329
0.00203819
0.00206271
0.00208682
0.0021104
0.00213337
0.00215588
0.00217801
0.00219977
0.00222117
0.00224219
0.00226282
0.00228304
0.00230284
0.00232221
0.00234112
0.00235957
0.00237754
0.00239501
0.00241198
0.00242844
0.00244436
0.00245974
0.00247456
0.00248882
0.0025025
0.0025156
0.0025281
0.00254001
0.0025513
0.00256198
0.00257204
0.00258147
0.00259027
0.00259843
0.00260595
0.00261283
0.00261907
0.00262465
0.0026296
0.00263389
0.00263755
0.00264055
0.00264292
0.00264466
0.00264576
0.00264623
0.00264608
0.00264532
0.00264396
0.002642
0.00263945
0.00263632
0.00263262
0.00262837
0.00262358
0.00261826
0.00261243
0.00260609
0.00259928
0.00259199
0.00258426
0.00257611
0.00256754
0.00255859
0.00254928
0.00253964
0.00252964
0.00251932
0.0025086
0.00249735
0.00248521
0.00247176
0.00245737
0.0024424
0.00242704
0.00241142
0.00239558
0.00237957
0.00236339
0.00234703
0.00233039
0.00231319
0.00229475
0.0022729
0.00224101
3.74613e-06
5.87272e-05
0.000125057
0.000177289
0.000216753
0.00024687
0.000270586
0.000290145
0.000307152
0.000322686
0.000337426
0.000351766
0.000365908
0.000379937
0.000393872
0.000407698
0.000421385
0.000434898
0.00044821
0.000461297
0.000474149
0.000486766
0.000499163
0.000511371
0.000523439
0.000535433
0.000547435
0.000559548
0.000571892
0.000584611
0.000597868
0.000611842
0.000626716
0.000642651
0.000659767
0.000678128
0.000697732
0.000718488
0.00074029
0.000763041
0.000786638
0.000810983
0.000835987
0.000861662
0.000887965
0.000914794
0.000942054
0.000969692
0.000997688
0.00102603
0.00105471
0.00108372
0.00111304
0.00114269
0.00117264
0.00120289
0.00123343
0.00126426
0.00129537
0.00132675
0.00135839
0.00139028
0.00142241
0.00145478
0.00148736
0.00152014
0.00155312
0.00158626
0.00161957
0.00165301
0.00168658
0.00172025
0.00175401
0.00178782
0.00182168
0.00185555
0.00188943
0.00192327
0.00195707
0.0019908
0.00202444
0.00205796
0.00209134
0.00212457
0.00215762
0.00219046
0.00222309
0.00225547
0.00228759
0.00231943
0.00235096
0.00238218
0.00241304
0.00244353
0.00247363
0.00250331
0.00253255
0.00256133
0.00258946
0.00261704
0.00264415
0.00267081
0.00269704
0.00272284
0.00274819
0.00277307
0.00279747
0.00282137
0.00284476
0.00286762
0.00288993
0.00291167
0.00293284
0.00295341
0.00297337
0.00299271
0.00301141
0.00302945
0.00304684
0.00306354
0.00307956
0.00309489
0.0031095
0.0031234
0.00313657
0.00314902
0.00316072
0.00317168
0.00318189
0.00319134
0.00320003
0.00320796
0.00321512
0.00322153
0.00322716
0.00323204
0.00323615
0.00323949
0.00324208
0.00324392
0.00324502
0.00324537
0.00324499
0.00324388
0.00324206
0.00323953
0.00323631
0.0032324
0.00322783
0.0032226
0.00321672
0.00321023
0.00320313
0.00319543
0.00318717
0.00317837
0.00316903
0.0031592
0.00314888
0.00313811
0.0031269
0.00311525
0.00310319
0.00309066
0.00307758
0.00306373
0.00304891
0.00303326
0.00301701
0.00300031
0.00298328
0.00296598
0.00294847
0.00293076
0.00291286
0.00289466
0.0028759
0.0028559
0.00283275
0.00280202
4.68179e-06
6.595e-05
0.000140118
0.000199506
0.000244971
0.000279962
0.000307562
0.00033017
0.000349548
0.000366929
0.000383134
0.00039868
0.000413871
0.000428868
0.000443751
0.000458548
0.000473265
0.0004879
0.000502452
0.000516926
0.00053134
0.000545724
0.000560121
0.00057459
0.000589207
0.000604058
0.000619245
0.000634876
0.000651071
0.000667953
0.000685644
0.000704263
0.000723911
0.000744667
0.000766574
0.000789636
0.00081382
0.00083906
0.000865274
0.000892378
0.000920289
0.000948926
0.000978217
0.00100812
0.00103857
0.00106952
0.00110092
0.00113273
0.00116491
0.00119747
0.00123039
0.00126366
0.00129727
0.00133122
0.00136549
0.00140009
0.001435
0.00147021
0.00150572
0.00154151
0.00157758
0.00161391
0.00165048
0.00168729
0.00172432
0.00176155
0.00179897
0.00183656
0.0018743
0.00191217
0.00195015
0.00198821
0.00202634
0.00206451
0.0021027
0.00214088
0.00217903
0.00221712
0.00225513
0.00229303
0.0023308
0.00236841
0.00240584
0.00244307
0.00248007
0.00251682
0.00255329
0.00258947
0.00262534
0.00266087
0.00269604
0.00273084
0.00276524
0.00279922
0.00283276
0.00286584
0.00289843
0.00293051
0.00296195
0.00299285
0.00302326
0.0030532
0.00308267
0.00311166
0.00314016
0.00316816
0.00319563
0.00322257
0.00324894
0.00327473
0.00329993
0.00332451
0.00334847
0.00337178
0.00339443
0.0034164
0.00343767
0.00345824
0.00347808
0.00349719
0.00351555
0.00353314
0.00354996
0.00356601
0.00358126
0.00359571
0.00360935
0.00362218
0.00363418
0.00364536
0.0036557
0.0036652
0.00367387
0.0036817
0.00368868
0.00369482
0.00370012
0.00370458
0.0037082
0.00371099
0.00371295
0.00371409
0.00371441
0.00371393
0.00371265
0.00371059
0.00370774
0.00370413
0.00369977
0.00369468
0.00368886
0.00368234
0.00367514
0.00366726
0.00365874
0.00364959
0.00363984
0.00362951
0.00361862
0.0036072
0.00359527
0.00358285
0.00356993
0.0035565
0.00354251
0.00352785
0.00351241
0.00349626
0.00347951
0.0034623
0.00344472
0.00342684
0.00340872
0.00339041
0.00337192
0.00335319
0.00333398
0.00331374
0.00329095
0.00326278
5.48038e-06
7.19706e-05
0.000152569
0.000217997
0.000268672
0.000307999
0.000339128
0.000364558
0.000386167
0.000405308
0.000422922
0.000439631
0.000455834
0.00047177
0.000487577
0.000503333
0.000519081
0.000534851
0.000550668
0.000566561
0.000582568
0.000598736
0.000615127
0.00063181
0.000648868
0.00066639
0.000684473
0.000703215
0.000722714
0.000743064
0.000764348
0.000786638
0.000809987
0.000834426
0.000859959
0.000886568
0.000914212
0.000942832
0.000972359
0.00100272
0.00103385
0.00106568
0.00109813
0.00113117
0.00116474
0.0011988
0.00123332
0.00126825
0.00130358
0.0013393
0.00137539
0.00141184
0.00144865
0.0014858
0.00152328
0.0015611
0.00159923
0.00163767
0.0016764
0.00171542
0.0017547
0.00179425
0.00183405
0.00187407
0.0019143
0.00195473
0.00199533
0.0020361
0.002077
0.00211801
0.00215912
0.0022003
0.00224152
0.00228277
0.00232402
0.00236523
0.00240639
0.00244747
0.00248844
0.00252927
0.00256995
0.00261044
0.00265071
0.00269075
0.00273052
0.00277001
0.00280919
0.00284805
0.00288655
0.00292468
0.00296242
0.00299975
0.00303666
0.00307312
0.00310911
0.00314463
0.00317966
0.00321407
0.00324792
0.00328125
0.00331408
0.00334644
0.00337831
0.00340969
0.00344056
0.0034709
0.00350071
0.00352995
0.00355861
0.00358667
0.00361411
0.00364092
0.00366707
0.00369255
0.00371734
0.00374142
0.00376478
0.0037874
0.00380926
0.00383035
0.00385066
0.00387016
0.00388886
0.00390674
0.00392378
0.00393999
0.00395534
0.00396984
0.00398347
0.00399623
0.0040081
0.00401909
0.00402919
0.00403841
0.00404673
0.00405416
0.0040607
0.00406634
0.00407109
0.00407496
0.00407795
0.00408006
0.0040813
0.00408167
0.00408119
0.00407988
0.00407772
0.00407474
0.00407095
0.00406639
0.00406102
0.00405489
0.00404801
0.00404041
0.00403211
0.00402312
0.00401347
0.00400318
0.00399228
0.00398079
0.00396873
0.00395612
0.00394297
0.00392927
0.00391501
0.00390012
0.00388457
0.00386838
0.00385163
0.00383441
0.0038168
0.00379888
0.00378073
0.00376239
0.00374391
0.00372525
0.00370628
0.00368654
0.00366491
0.00363956
6.15817e-06
7.68221e-05
0.000162636
0.000233151
0.000288351
0.000331543
0.00036589
0.00039395
0.000417678
0.000438521
0.000457512
0.000475369
0.00049257
0.000509429
0.000526141
0.000542833
0.000559584
0.000576453
0.000593488
0.000610737
0.000628251
0.000646087
0.000664312
0.000682996
0.000702219
0.000722061
0.000742605
0.000763932
0.000786114
0.00080922
0.000833302
0.0008584
0.000884539
0.000911721
0.000939936
0.000969153
0.00099933
0.00103041
0.00106235
0.00109506
0.0011285
0.00116261
0.00119733
0.00123261
0.00126841
0.00130469
0.00134142
0.00137858
0.00141615
0.0014541
0.00149243
0.00153112
0.00157017
0.00160955
0.00164927
0.00168931
0.00172967
0.00177032
0.00181127
0.00185249
0.00189398
0.00193571
0.00197769
0.00201988
0.00206227
0.00210485
0.0021476
0.00219049
0.00223352
0.00227664
0.00231986
0.00236313
0.00240644
0.00244976
0.00249307
0.00253634
0.00257954
0.00262266
0.00266565
0.00270849
0.00275117
0.00279364
0.00283588
0.00287787
0.00291958
0.00296099
0.00300207
0.0030428
0.00308317
0.00312314
0.00316271
0.00320186
0.00324057
0.00327882
0.0033166
0.00335389
0.00339067
0.00342686
0.00346253
0.00349771
0.0035324
0.00356662
0.00360037
0.00363362
0.00366636
0.00369857
0.00373024
0.00376134
0.00379186
0.00382178
0.00385106
0.00387971
0.00390769
0.00393498
0.00396158
0.00398745
0.00401259
0.00403697
0.00406058
0.0040834
0.00410541
0.00412661
0.00414697
0.00416649
0.00418516
0.00420296
0.00421989
0.00423593
0.00425108
0.00426532
0.00427865
0.00429107
0.00430257
0.00431315
0.00432281
0.00433155
0.00433935
0.00434622
0.00435217
0.00435719
0.00436132
0.00436452
0.0043668
0.00436818
0.00436867
0.0043683
0.00436703
0.00436489
0.0043619
0.00435808
0.00435343
0.00434797
0.00434173
0.00433472
0.00432696
0.00431848
0.00430929
0.00429942
0.00428888
0.00427771
0.00426593
0.00425355
0.00424059
0.00422705
0.00421294
0.00419822
0.0041829
0.00416699
0.00415054
0.00413363
0.00411633
0.00409871
0.00408086
0.00406285
0.00404474
0.00402655
0.00400818
0.00398932
0.00396914
0.0039464
6.71096e-06
8.05972e-05
0.000170529
0.000245265
0.000304361
0.000350979
0.000388251
0.000418754
0.000444493
0.000466978
0.000487318
0.000506306
0.000524491
0.000542251
0.000559837
0.000577417
0.000595108
0.000612992
0.00063114
0.000649609
0.000668461
0.000687757
0.00070756
0.000727938
0.00074896
0.000770694
0.000793207
0.00081656
0.000840806
0.00086599
0.000892144
0.000919287
0.000947424
0.000976548
0.00100664
0.00103766
0.00106957
0.00110232
0.00113586
0.00117014
0.00120511
0.0012407
0.00127688
0.0013136
0.00135083
0.00138852
0.00142666
0.00146522
0.00150418
0.00154352
0.00158323
0.00162329
0.0016637
0.00170444
0.00174551
0.00178689
0.00182857
0.00187054
0.00191279
0.00195532
0.0019981
0.00204112
0.00208437
0.00212783
0.0021715
0.00221535
0.00225936
0.00230352
0.00234781
0.00239221
0.00243669
0.00248124
0.00252584
0.00257045
0.00261506
0.00265963
0.00270415
0.00274858
0.0027929
0.00283708
0.0028811
0.00292492
0.00296851
0.00301185
0.00305491
0.00309767
0.0031401
0.00318218
0.00322389
0.00326521
0.00330612
0.00334661
0.00338665
0.00342625
0.00346537
0.00350402
0.00354213
0.00357975
0.00361688
0.00365356
0.00368978
0.00372555
0.00376085
0.00379567
0.00383
0.0038638
0.00389707
0.00392979
0.00396192
0.00399344
0.00402435
0.00405461
0.00408421
0.00411312
0.00414133
0.00416882
0.00419557
0.00422155
0.00424675
0.00427116
0.00429475
0.0043175
0.00433941
0.00436047
0.00438066
0.00439997
0.00441839
0.00443591
0.00445252
0.00446821
0.00448296
0.00449677
0.00450965
0.00452159
0.0045326
0.00454266
0.00455175
0.00455989
0.00456708
0.00457332
0.00457865
0.00458302
0.00458644
0.00458893
0.0045905
0.00459116
0.00459092
0.00458977
0.00458775
0.00458486
0.00458112
0.00457655
0.00457115
0.00456496
0.00455798
0.00455024
0.00454176
0.00453256
0.00452267
0.00451209
0.00450087
0.00448901
0.00447654
0.00446347
0.0044498
0.00443554
0.0044207
0.00440529
0.00438936
0.00437297
0.00435619
0.00433909
0.00432177
0.00430431
0.00428678
0.00426926
0.00425169
0.00423386
0.00421514
0.00419467
7.13948e-06
8.33957e-05
0.000176449
0.000254604
0.000317002
0.000366621
0.000406523
0.000439273
0.000466898
0.00049095
0.000512592
0.000532676
0.000551813
0.000570433
0.000588836
0.000607229
0.000625759
0.000644534
0.000663636
0.000683135
0.000703097
0.000723582
0.000744649
0.000766358
0.000788767
0.000811931
0.0008359
0.000860721
0.000886428
0.00091305
0.000940604
0.000969095
0.00099852
0.00102886
0.0010601
0.00109219
0.0011251
0.00115879
0.00119321
0.00122832
0.00126406
0.00130039
0.00133728
0.00137468
0.00141256
0.00145089
0.00148964
0.0015288
0.00156835
0.00160826
0.00164852
0.00168913
0.00173007
0.00177133
0.00181291
0.00185479
0.00189696
0.00193942
0.00198215
0.00202515
0.00206841
0.00211191
0.00215564
0.0021996
0.00224377
0.00228813
0.00233267
0.00237738
0.00242223
0.00246722
0.00251231
0.0025575
0.00260276
0.00264806
0.00269339
0.00273871
0.00278401
0.00282925
0.00287441
0.00291945
0.00296436
0.00300909
0.00305362
0.00309791
0.00314195
0.00318569
0.00322913
0.00327222
0.00331494
0.00335729
0.00339924
0.00344076
0.00348186
0.00352252
0.00356272
0.00360245
0.00364174
0.00368058
0.003719
0.00375701
0.00379459
0.00383174
0.00386845
0.0039047
0.00394047
0.00397573
0.00401047
0.00404467
0.00407829
0.00411132
0.00414373
0.00417551
0.00420662
0.00423706
0.00426679
0.0042958
0.00432407
0.00435158
0.00437831
0.00440423
0.00442932
0.00445358
0.00447699
0.00449953
0.00452119
0.00454197
0.00456185
0.00458083
0.00459889
0.004616
0.00463216
0.00464737
0.00466163
0.00467494
0.0046873
0.00469872
0.00470913
0.00471858
0.00472705
0.00473456
0.00474112
0.00474671
0.00475135
0.00475503
0.00475778
0.0047596
0.00476049
0.00476046
0.00475954
0.00475773
0.00475504
0.0047515
0.00474712
0.0047419
0.00473588
0.00472907
0.0047215
0.00471317
0.00470412
0.00469435
0.00468391
0.0046728
0.00466104
0.00464866
0.00463566
0.00462206
0.00460788
0.00459315
0.00457789
0.00456218
0.00454608
0.00452966
0.00451301
0.00449624
0.00447945
0.0044627
0.00444602
0.00442925
0.00441191
0.00439334
7.44913e-06
8.53219e-05
0.000180599
0.000261426
0.000326556
0.000378754
0.00042098
0.00045576
0.000485118
0.00051063
0.000533496
0.000554611
0.000574635
0.000594042
0.000613171
0.000632265
0.000651496
0.000670991
0.000690845
0.000711136
0.00073193
0.000753286
0.000775257
0.000797895
0.000821246
0.000845353
0.000870253
0.000895977
0.00092255
0.000949985
0.000978289
0.00100746
0.00103749
0.00106835
0.00110003
0.00113248
0.00116568
0.00119958
0.00123415
0.00126934
0.00130511
0.00134143
0.00137825
0.00141555
0.0014533
0.00149147
0.00153003
0.00156898
0.00160829
0.00164796
0.00168796
0.00172828
0.00176894
0.0018099
0.00185117
0.00189275
0.00193462
0.00197678
0.00201923
0.00206195
0.00210495
0.00214822
0.00219175
0.00223553
0.00227954
0.00232379
0.00236826
0.00241294
0.0024578
0.00250285
0.00254806
0.0025934
0.00263887
0.00268444
0.00273009
0.00277579
0.00282151
0.00286723
0.00291291
0.00295853
0.00300405
0.00304943
0.00309466
0.00313969
0.00318448
0.00322901
0.00327325
0.00331717
0.00336074
0.00340395
0.00344676
0.00348918
0.00353118
0.00357275
0.00361388
0.00365465
0.00369505
0.00373508
0.00377473
0.00381401
0.0038529
0.00389139
0.00392946
0.00396709
0.00400426
0.00404095
0.00407712
0.00411276
0.00414783
0.00418232
0.00421621
0.00424946
0.00428206
0.00431398
0.00434521
0.00437571
0.00440548
0.00443449
0.00446272
0.00449013
0.00451672
0.00454246
0.00456734
0.00459136
0.00461449
0.00463672
0.00465806
0.0046785
0.00469801
0.00471655
0.00473413
0.00475075
0.00476641
0.0047811
0.00479484
0.0048076
0.00481937
0.00483016
0.00483998
0.00484881
0.00485668
0.00486357
0.0048695
0.00487447
0.00487848
0.00488155
0.00488369
0.00488489
0.00488518
0.00488457
0.00488307
0.00488069
0.00487745
0.00487337
0.00486846
0.00486273
0.00485622
0.00484893
0.00484088
0.0048321
0.00482261
0.00481243
0.00480157
0.00479006
0.00477792
0.00476515
0.0047518
0.00473789
0.00472345
0.00470855
0.00469325
0.00467762
0.00466177
0.0046458
0.00462982
0.00461393
0.00459816
0.00458243
0.00456634
0.00454936
7.64946e-06
8.64847e-05
0.000183183
0.000265989
0.0003333
0.00038765
0.000431872
0.000468431
0.000499331
0.000526153
0.000550117
0.000572152
0.000592951
0.000613024
0.000632743
0.000652377
0.00067212
0.000692114
0.000712465
0.000733255
0.00075455
0.000776406
0.000798871
0.000821986
0.00084579
0.000870313
0.000895582
0.000921616
0.000948429
0.000976027
0.00100441
0.00103357
0.00106349
0.00109415
0.00112553
0.00115759
0.00119031
0.00122365
0.00125758
0.00129205
0.00132704
0.00136252
0.00139845
0.00143481
0.00147158
0.00150874
0.00154626
0.00158414
0.00162237
0.00166093
0.00169982