/*--------------------------------*- C++ -*----------------------------------*\
  =========                 |
  \\      /  F ield         | OpenFOAM: The Open Source CFD Toolbox
   \\    /   O peration     | Website:  https://openfoam.org
    \\  /    A nd           | Version:  12
     \\/     M anipulation  |
\*---------------------------------------------------------------------------*/
FoamFile
{
    format      ascii;
    class       volScalarField;
    location    "0.24";
    object      p;
}
// * * * * * * * * * * * * * * * * * * * * * * * * * * * * * * * * * * * * * //

dimensions      [0 2 -2 0 0 0 0];

internalField   nonuniform List<scalar> 
12225
(
-1.11476
-3.39778
-4.5603
-4.86856
-5.03694
-5.19681
-5.32157
-5.4102
-5.48005
-5.54135
-5.5959
-5.64353
-5.68457
-5.71832
-5.74371
-5.75046
-5.74824
-5.64138
-4.58226
-5.28439
-5.37467
-5.23971
-5.19976
-5.2672
-5.34813
-5.41421
-5.47148
-5.52518
-5.5751
-5.6201
-5.65988
-5.69359
-5.7208
-5.73455
-5.74762
-5.73308
-4.78701
-4.68407
-4.8409
-4.96312
-5.07062
-5.19309
-5.30158
-5.38447
-5.45195
-5.51212
-5.56666
-5.61533
-5.6583
-5.69532
-5.72682
-5.74973
-5.77828
-5.81134
-4.64971
-4.5716
-4.84773
-5.02655
-5.12113
-5.21843
-5.31375
-5.39154
-5.45642
-5.51496
-5.56865
-5.61711
-5.66051
-5.69899
-5.73359
-5.76437
-5.803
-5.85572
-4.65668
-4.67395
-4.91409
-5.06409
-5.14026
-5.22513
-5.31495
-5.39127
-5.45553
-5.5136
-5.56716
-5.61602
-5.66045
-5.701
-5.73916
-5.77663
-5.82198
-5.88196
-4.71836
-4.76084
-4.93868
-5.06951
-5.14763
-5.23034
-5.31686
-5.39196
-5.45588
-5.51371
-5.5673
-5.61666
-5.66218
-5.70473
-5.746
-5.78827
-5.83763
-5.89946
-4.77809
-4.81763
-4.95409
-5.07639
-5.15891
-5.23881
-5.3207
-5.39381
-5.45718
-5.51472
-5.56826
-5.61807
-5.66461
-5.70891
-5.75267
-5.79813
-5.84951
-5.91029
-4.83123
-4.86614
-4.9765
-5.08922
-5.17191
-5.24798
-5.32514
-5.39607
-5.45877
-5.51596
-5.56943
-5.61962
-5.66707
-5.71281
-5.75839
-5.80575
-5.85765
-5.91596
-4.88101
-4.91276
-5.0036
-5.10449
-5.18469
-5.25732
-5.33028
-5.39887
-5.46068
-5.51742
-5.57073
-5.62118
-5.66932
-5.7161
-5.76285
-5.81105
-5.86242
-5.91772
-4.92835
-4.95699
-5.03221
-5.1212
-5.1977
-5.26725
-5.33636
-5.40241
-5.46304
-5.51918
-5.57219
-5.62271
-5.67127
-5.71866
-5.76595
-5.81418
-5.86435
-5.91658
-4.9731
-4.9984
-5.06124
-5.13939
-5.21138
-5.27781
-5.34333
-5.40669
-5.46591
-5.52127
-5.57383
-5.62421
-5.67287
-5.72045
-5.76774
-5.81542
-5.86402
-5.91331
-5.01159
-5.03394
-5.08782
-5.15716
-5.22452
-5.28793
-5.35036
-5.41125
-5.46898
-5.52348
-5.57547
-5.6255
-5.67398
-5.7214
-5.76829
-5.81512
-5.86213
-5.90895
-5.04727
-5.06707
-5.11364
-5.17523
-5.23789
-5.29823
-5.35775
-5.41623
-5.47237
-5.52587
-5.57717
-5.62669
-5.67478
-5.72177
-5.76802
-5.81379
-5.85918
-5.90377
-5.08476
-5.10207
-5.14189
-5.19594
-5.25336
-5.31014
-5.36653
-5.42234
-5.47658
-5.5288
-5.57913
-5.62788
-5.67526
-5.72149
-5.76677
-5.81118
-5.85472
-5.89703
-5.12284
-5.13775
-5.17162
-5.21867
-5.27064
-5.32348
-5.37655
-5.42951
-5.48156
-5.53217
-5.58124
-5.62889
-5.67523
-5.72035
-5.7643
-5.80709
-5.84866
-5.88871
-5.15955
-5.1723
-5.20119
-5.24213
-5.28883
-5.33761
-5.38731
-5.43734
-5.48701
-5.53573
-5.58323
-5.62947
-5.67443
-5.71811
-5.76047
-5.80145
-5.841
-5.87889
-5.19202
-5.20302
-5.22801
-5.26404
-5.30616
-5.35117
-5.39768
-5.44492
-5.49219
-5.53888
-5.58461
-5.6292
-5.67254
-5.71455
-5.75515
-5.79427
-5.83184
-5.86772
-5.21587
-5.22567
-5.24806
-5.28074
-5.31958
-5.36171
-5.40569
-5.45064
-5.49583
-5.54063
-5.58463
-5.62755
-5.66923
-5.70954
-5.7484
-5.78573
-5.82147
-5.85556
-5.22416
-5.23351
-5.25497
-5.28649
-5.32416
-5.36514
-5.40793
-5.45167
-5.49565
-5.53923
-5.58196
-5.62355
-5.66385
-5.70272
-5.7401
-5.77592
-5.81015
-5.8428
-5.2091
-5.21915
-5.24212
-5.27573
-5.3155
-5.35806
-5.40188
-5.44629
-5.49066
-5.53435
-5.57692
-5.61814
-5.6579
-5.69611
-5.73272
-5.76771
-5.80108
-5.83286
-5.18283
-5.19401
-5.21978
-5.25748
-5.3012
-5.34672
-5.39271
-5.43886
-5.48453
-5.52903
-5.57203
-5.61341
-5.65314
-5.69118
-5.72749
-5.76211
-5.79506
-5.8264
-5.14783
-5.1602
-5.19021
-5.23465
-5.28411
-5.33319
-5.38186
-5.4305
-5.47813
-5.5239
-5.56762
-5.60943
-5.64936
-5.68742
-5.72363
-5.75806
-5.79076
-5.82184
-5.10717
-5.11976
-5.15511
-5.20966
-5.26674
-5.31968
-5.37119
-5.42251
-5.47221
-5.5193
-5.56389
-5.60628
-5.64655
-5.68475
-5.72096
-5.75531
-5.78789
-5.81881
-5.0633
-5.07486
-5.11722
-5.18379
-5.24844
-5.30601
-5.36185
-5.41645
-5.46788
-5.51586
-5.5611
-5.60399
-5.64454
-5.68283
-5.71902
-5.75329
-5.78576
-5.81655
-5.01643
-5.02417
-5.08519
-5.16493
-5.23001
-5.2896
-5.35143
-5.41092
-5.46459
-5.51354
-5.55947
-5.60283
-5.6436
-5.68192
-5.71805
-5.75221
-5.78457
-5.8153
-4.96846
-4.9448
-5.05556
-5.16445
-5.22496
-5.27898
-5.34232
-5.40459
-5.45976
-5.50966
-5.5564
-5.60036
-5.64146
-5.67993
-5.71611
-5.75026
-5.78259
-5.81326
-4.95914
-4.8148
-4.97379
-5.13994
-5.22436
-5.2853
-5.34999
-5.41104
-5.46467
-5.51367
-5.55994
-5.60346
-5.6441
-5.68213
-5.71789
-5.75165
-5.78367
-5.81413
-5.10454
-4.82073
-4.85543
-4.98582
-5.10532
-5.21223
-5.30618
-5.38182
-5.44392
-5.49901
-5.54958
-5.596
-5.6386
-5.678
-5.71472
-5.74916
-5.78181
-5.81332
-5.04134
-5.54101
-5.55109
-5.39177
-5.3107
-5.33481
-5.38884
-5.43811
-5.48307
-5.52747
-5.57093
-5.61218
-5.65084
-5.68712
-5.72122
-5.75324
-5.78343
-5.81367
-1.70265
-3.5732
-4.64443
-4.93741
-5.07217
-5.20881
-5.3206
-5.40046
-5.46327
-5.51912
-5.57024
-5.61672
-5.65912
-5.69818
-5.73433
-5.76756
-5.79756
-5.82253
-6.71901
-6.71899
-6.71932
-6.71997
-6.72082
-6.72184
-6.72305
-6.72446
-6.72608
-6.72794
-6.73006
-6.73248
-6.73522
-6.73834
-6.74186
-6.74583
-6.75027
-6.75524
-6.76076
-6.76688
-6.77363
-6.78105
-6.78919
-6.79809
-6.80779
-6.81834
-6.82978
-6.84218
-6.8556
-6.87008
-6.8857
-6.90252
-6.92091
-6.94108
-6.96118
-6.98073
-7.00218
-7.0261
-7.05335
-7.08446
-7.11758
-7.14049
-7.15803
-7.17895
-7.20119
-7.22899
-7.25823
-7.28747
-7.31752
-7.34817
-7.3793
-7.4108
-7.44252
-7.47436
-7.50621
-7.53794
-7.56945
-7.60062
-7.63133
-7.66146
-7.69089
-7.71949
-7.7471
-7.77361
-7.79885
-7.82267
-7.84493
-7.86544
-7.88406
-7.90059
-7.91487
-7.92672
-7.93596
-7.94239
-7.94584
-7.94611
-7.943
-7.93635
-7.92594
-7.9116
-7.89314
-7.87036
-7.8431
-7.81117
-7.7744
-7.73261
-7.68564
-7.63333
-7.57552
-7.51206
-7.44282
-7.36765
-7.28643
-7.19904
-7.10538
-7.00535
-6.89891
-6.7861
-6.66687
-6.541
-6.40829
-6.26848
-6.12176
-5.96817
-5.80774
-5.6405
-5.46647
-5.2857
-5.09825
-4.9042
-4.70362
-4.49663
-4.28335
-4.06391
-3.83846
-3.60718
-3.37024
-3.12784
-2.88019
-2.62751
-2.37003
-2.108
-1.84169
-1.57134
-1.29725
-1.01969
-0.738969
-0.455374
-0.169214
0.119201
0.409557
0.701536
0.994821
1.28909
1.58403
1.87933
2.17466
2.46972
2.7642
3.0578
3.35023
3.64121
3.93045
4.21769
4.50266
4.78513
5.06486
5.34161
5.61518
5.88536
6.15198
6.41484
6.6738
6.92869
7.17939
7.42576
7.66769
7.90508
8.13784
8.36589
8.58915
8.80757
9.02112
9.22976
9.43346
9.6322
9.82579
10.0141
10.1971
10.3749
10.5474
10.7146
10.8767
11.0335
11.1852
11.3321
11.475
11.6155
11.7624
11.9164
-6.71791
-6.71814
-6.71853
-6.71908
-6.71962
-6.72016
-6.72076
-6.72153
-6.72255
-6.72387
-6.72549
-6.72746
-6.72978
-6.73248
-6.73559
-6.73913
-6.74314
-6.74765
-6.75269
-6.75829
-6.7645
-6.77135
-6.77887
-6.78711
-6.7961
-6.80589
-6.81649
-6.82794
-6.84024
-6.85337
-6.86731
-6.88208
-6.89757
-6.91304
-6.92951
-6.94882
-6.96981
-6.9911
-7.01186
-7.03126
-7.04778
-7.07326
-7.1051
-7.13539
-7.17068
-7.20422
-7.23455
-7.2651
-7.29594
-7.32704
-7.35839
-7.38994
-7.42163
-7.45339
-7.48513
-7.51674
-7.54813
-7.57919
-7.60982
-7.63988
-7.66926
-7.69783
-7.72546
-7.75201
-7.77733
-7.80126
-7.82366
-7.84437
-7.8632
-7.88
-7.89459
-7.90679
-7.91642
-7.92328
-7.92721
-7.92799
-7.92546
-7.91941
-7.90966
-7.89602
-7.8783
-7.85632
-7.8299
-7.79886
-7.76302
-7.72221
-7.67627
-7.62504
-7.56837
-7.5061
-7.43811
-7.36424
-7.28438
-7.19842
-7.10623
-7.0077
-6.90274
-6.79123
-6.67303
-6.54792
-6.41593
-6.27742
-6.13219
-5.98019
-5.82138
-5.65578
-5.48341
-5.30431
-5.11853
-4.92614
-4.72723
-4.52189
-4.31026
-4.09245
-3.86862
-3.63893
-3.40357
-3.16271
-2.91657
-2.66536
-2.40933
-2.1487
-1.88374
-1.61471
-1.34188
-1.06554
-0.785979
-0.503491
-0.218382
0.0690409
0.358464
0.649573
0.94205
1.23558
1.52984
1.82451
2.11929
2.41387
2.70793
3.00117
3.29331
3.58406
3.87313
4.16027
4.4452
4.72767
5.00746
5.28434
5.55808
5.82848
6.09536
6.35853
6.61784
6.87312
7.12423
7.37106
7.61347
7.85137
8.08466
8.31326
8.53711
8.75613
8.97029
9.17955
9.38389
9.58324
9.77746
9.96643
10.1501
10.3286
10.5018
10.6698
10.8326
10.9902
11.143
11.2911
11.436
11.5785
11.7289
11.8769
-6.71468
-6.71563
-6.71662
-6.71753
-6.71818
-6.71868
-6.71916
-6.71978
-6.72061
-6.72172
-6.72314
-6.7249
-6.72703
-6.72955
-6.73249
-6.73587
-6.73973
-6.74409
-6.74899
-6.75446
-6.76054
-6.76725
-6.77465
-6.78275
-6.79161
-6.80124
-6.81169
-6.82298
-6.83514
-6.84818
-6.86214
-6.87709
-6.89307
-6.90986
-6.92749
-6.94677
-6.96757
-6.9892
-7.01119
-7.03306
-7.05528
-7.07988
-7.10656
-7.13364
-7.16256
-7.19211
-7.22152
-7.25139
-7.28168
-7.31228
-7.34314
-7.37419
-7.40538
-7.43662
-7.46784
-7.49895
-7.52985
-7.56044
-7.59062
-7.62026
-7.64926
-7.67749
-7.70481
-7.73108
-7.75618
-7.77993
-7.8022
-7.82281
-7.84161
-7.85842
-7.87308
-7.8854
-7.8952
-7.9023
-7.90651
-7.90765
-7.90553
-7.89995
-7.89073
-7.87768
-7.86062
-7.83935
-7.81371
-7.7835
-7.74856
-7.70872
-7.6638
-7.61366
-7.55813
-7.49706
-7.43032
-7.35777
-7.27927
-7.19471
-7.10398
-7.00696
-6.90354
-6.79357
-6.67694
-6.55371
-6.42369
-6.28699
-6.14359
-5.99343
-5.8365
-5.6728
-5.50235
-5.32518
-5.14134
-4.95089
-4.75393
-4.55054
-4.34084
-4.12496
-3.90305
-3.67526
-3.44176
-3.20275
-2.95843
-2.70901
-2.45472
-2.1958
-1.9325
-1.66509
-1.39382
-1.11899
-0.840875
-0.559777
-0.275994
0.0101676
0.298397
0.588382
0.879805
1.17235
1.46571
1.75955
2.05358
2.34747
2.64093
2.93365
3.22534
3.51571
3.80448
4.09139
4.37617
4.65856
4.93833
5.21526
5.48911
5.75969
6.0268
6.29027
6.54991
6.80559
7.05714
7.30444
7.54737
7.78583
8.01971
8.24892
8.4734
8.69306
8.90787
9.11777
9.32272
9.52266
9.71754
9.90727
10.0918
10.2711
10.4452
10.6141
10.7778
10.9365
11.0905
11.2401
11.3869
11.5311
11.6841
11.822
-6.7097
-6.71133
-6.71327
-6.71493
-6.71609
-6.71692
-6.71765
-6.71841
-6.71932
-6.72046
-6.72188
-6.72362
-6.72572
-6.72821
-6.73111
-6.73445
-6.73827
-6.74259
-6.74745
-6.75287
-6.75889
-6.76555
-6.77288
-6.78091
-6.78967
-6.79921
-6.80954
-6.8207
-6.83271
-6.8456
-6.8594
-6.87414
-6.88985
-6.90655
-6.92426
-6.94313
-6.96324
-6.98436
-7.00636
-7.02906
-7.05266
-7.07744
-7.10338
-7.13034
-7.15816
-7.18655
-7.21539
-7.24472
-7.27445
-7.30453
-7.33489
-7.36547
-7.39619
-7.42699
-7.45778
-7.48848
-7.519
-7.54923
-7.57908
-7.60843
-7.63716
-7.66515
-7.69227
-7.71838
-7.74335
-7.76702
-7.78924
-7.80985
-7.82868
-7.84557
-7.86035
-7.87283
-7.88283
-7.89018
-7.89469
-7.89616
-7.89442
-7.88926
-7.88051
-7.86798
-7.85148
-7.83082
-7.80582
-7.77631
-7.74211
-7.70305
-7.65896
-7.60969
-7.55507
-7.49495
-7.4292
-7.35768
-7.28024
-7.19677
-7.10715
-7.01126
-6.90899
-6.80023
-6.68488
-6.56293
-6.43432
-6.29906
-6.15708
-6.00837
-5.8529
-5.69067
-5.52171
-5.34603
-5.16369
-4.97476
-4.7793
-4.57742
-4.36922
-4.15484
-3.93441
-3.70809
-3.47605
-3.23848
-2.99557
-2.74754
-2.49461
-2.23701
-1.97501
-1.70885
-1.43881
-1.16515
-0.888175
-0.608167
-0.325427
-0.0402589
0.247029
0.536125
0.826714
1.11848
1.41111
1.70429
1.99771
2.29106
2.58403
2.87632
3.16764
3.4577
3.74622
4.03293
4.31757
4.59988
4.87962
5.15657
5.43049
5.7012
5.96848
6.23216
6.49206
6.74803
6.99991
7.24758
7.49092
7.7298
7.96412
8.19381
8.41878
8.63897
8.85431
9.06475
9.27022
9.47063
9.66597
9.85622
10.0413
10.2212
10.3959
10.5655
10.7299
10.8894
11.0441
11.1947
11.3423
11.4866
11.6386
11.7643
-6.70408
-6.70649
-6.7095
-6.71206
-6.7139
-6.71524
-6.71637
-6.71745
-6.71861
-6.71995
-6.72153
-6.72341
-6.72562
-6.72822
-6.73122
-6.73466
-6.73857
-6.74298
-6.74793
-6.75344
-6.75954
-6.76629
-6.7737
-6.78181
-6.79066
-6.80028
-6.81071
-6.82196
-6.83409
-6.8471
-6.86103
-6.87591
-6.89176
-6.90861
-6.9265
-6.94547
-6.96551
-6.98652
-7.00843
-7.03121
-7.05489
-7.0795
-7.10504
-7.13152
-7.15884
-7.18677
-7.21521
-7.2441
-7.27341
-7.30307
-7.33303
-7.36322
-7.39358
-7.42403
-7.4545
-7.4849
-7.51513
-7.54511
-7.57472
-7.60387
-7.63242
-7.66026
-7.68726
-7.71328
-7.73819
-7.76182
-7.78404
-7.80468
-7.82357
-7.84055
-7.85544
-7.86807
-7.87825
-7.88581
-7.89055
-7.8923
-7.89085
-7.88603
-7.87763
-7.86549
-7.8494
-7.82919
-7.80467
-7.77567
-7.742
-7.7035
-7.66001
-7.61135
-7.55738
-7.49794
-7.43289
-7.36209
-7.28541
-7.20272
-7.11389
-7.01882
-6.9174
-6.80953
-6.69513
-6.57414
-6.44653
-6.31225
-6.17127
-6.02356
-5.8691
-5.70789
-5.53994
-5.36528
-5.18397
-4.99606
-4.80163
-4.60077
-4.39359
-4.18022
-3.9608
-3.73548
-3.50442
-3.26782
-3.02587
-2.77878
-2.52677
-2.27008
-2.00896
-1.74366
-1.47444
-1.20159
-0.925392
-0.64613
-0.364103
-0.0796159
0.207025
0.495509
0.785522
1.07675
1.36888
1.6616
1.9546
2.24756
2.54018
2.83217
3.12323
3.41306
3.7014
3.98796
4.27249
4.55474
4.83445
5.1114
5.38537
5.65615
5.92354
6.18735
6.44742
6.70359
6.9557
7.20362
7.44722
7.6864
7.92104
8.15107
8.3764
8.59695
8.81266
9.02346
9.22927
9.43
9.62563
9.81617
10.0016
10.1818
10.3569
10.5268
10.6917
10.8516
11.0068
11.1576
11.3052
11.4484
11.5976
11.7116
-6.69891
-6.70203
-6.70604
-6.7095
-6.71206
-6.71399
-6.7156
-6.7171
-6.71862
-6.72027
-6.72213
-6.72426
-6.72672
-6.72954
-6.73275
-6.73641
-6.74053
-6.74514
-6.7503
-6.75601
-6.76233
-6.76929
-6.77692
-6.78526
-6.79434
-6.80421
-6.81488
-6.82639
-6.83878
-6.85206
-6.86627
-6.88143
-6.89755
-6.91465
-6.93274
-6.95184
-6.97192
-6.99292
-7.01481
-7.03756
-7.06116
-7.0856
-7.11086
-7.13693
-7.16374
-7.19119
-7.21919
-7.24769
-7.27662
-7.30594
-7.33557
-7.36546
-7.39554
-7.42574
-7.45597
-7.48615
-7.51619
-7.546
-7.57547
-7.60449
-7.63295
-7.66072
-7.68767
-7.71366
-7.73856
-7.76222
-7.78447
-7.80517
-7.82415
-7.84124
-7.85625
-7.86903
-7.87938
-7.88712
-7.89207
-7.89403
-7.89283
-7.88826
-7.88015
-7.8683
-7.85252
-7.83264
-7.80847
-7.77982
-7.74654
-7.70844
-7.66536
-7.61714
-7.56362
-7.50465
-7.44009
-7.3698
-7.29365
-7.2115
-7.12323
-7.02874
-6.92792
-6.82068
-6.70695
-6.58664
-6.4597
-6.3261
-6.18579
-6.03875
-5.88496
-5.72442
-5.55715
-5.38317
-5.20253
-5.0153
-4.82154
-4.62136
-4.41485
-4.20215
-3.98339
-3.75873
-3.52833
-3.29237
-3.05106
-2.80459
-2.5532
-2.29712
-2.03658
-1.77186
-1.5032
-1.2309
-0.955228
-0.676475
-0.394938
-0.110919
0.175274
0.463332
0.752942
1.04379
1.33557
1.62795
1.92065
2.21333
2.5057
2.79746
3.08831
3.37798
3.66617
3.95261
4.23704
4.51922
4.79889
5.07582
5.34979
5.6206
5.88805
6.15194
6.41211
6.66839
6.92064
7.16872
7.4125
7.65187
7.88673
8.11698
8.34254
8.56333
8.77927
8.99029
9.19632
9.39725
9.59309
9.78383
9.96945
10.1499
10.3252
10.4954
10.6605
10.8205
10.9759
11.1266
11.2737
11.4152
11.5613
11.6649
-6.6951
-6.69878
-6.70359
-6.70784
-6.71105
-6.71356
-6.71567
-6.71762
-6.71954
-6.72155
-6.72375
-6.7262
-6.72896
-6.73207
-6.73558
-6.73952
-6.74392
-6.74882
-6.75426
-6.76026
-6.76688
-6.77413
-6.78206
-6.7907
-6.80009
-6.81025
-6.82123
-6.83305
-6.84573
-6.85931
-6.87379
-6.88921
-6.90555
-6.92284
-6.94107
-6.96025
-6.98034
-7.00132
-7.02317
-7.04585
-7.06935
-7.09365
-7.11872
-7.14452
-7.17102
-7.19815
-7.22584
-7.25405
-7.28272
-7.31179
-7.3412
-7.37089
-7.40078
-7.43081
-7.4609
-7.49097
-7.52091
-7.55064
-7.58006
-7.60904
-7.63748
-7.66525
-7.69222
-7.71825
-7.7432
-7.76693
-7.78927
-7.81007
-7.82916
-7.84636
-7.86152
-7.87444
-7.88495
-7.89285
-7.89797
-7.90012
-7.89911
-7.89474
-7.88683
-7.87519
-7.85964
-7.83999
-7.81605
-7.78765
-7.75462
-7.71679
-7.67398
-7.62604
-7.57282
-7.51415
-7.44991
-7.37995
-7.30413
-7.22233
-7.13444
-7.04033
-6.93991
-6.83308
-6.71977
-6.59989
-6.47339
-6.34021
-6.20032
-6.05369
-5.90032
-5.74019
-5.57334
-5.39977
-5.21955
-5.03273
-4.83939
-4.63962
-4.43354
-4.22125
-4.00291
-3.77866
-3.54868
-3.31313
-3.07223
-2.82617
-2.57518
-2.31949
-2.05934
-1.795
-1.52673
-1.25479
-0.979479
-0.701076
-0.419879
-0.136189
0.149687
0.43744
0.726758
1.01733
1.30884
1.60098
1.89343
2.1859
2.47807
2.76964
3.06033
3.34984
3.63789
3.92422
4.20855
4.49064
4.77025
5.04713
5.32108
5.59187
5.85932
6.12323
6.38344
6.63977
6.89209
7.14026
7.38414
7.62362
7.8586
8.08899
8.31468
8.53561
8.75169
8.96285
9.16901
9.37009
9.56607
9.75696
9.94272
10.1233
10.2988
10.4691
10.6343
10.7944
10.9496
11.1
11.2462
11.3857
11.529
11.6236
-6.69307
-6.69717
-6.70259
-6.70745
-6.71123
-6.71424
-6.71682
-6.71919
-6.72151
-6.72389
-6.72644
-6.72923
-6.73232
-6.73575
-6.73957
-6.74382
-6.74854
-6.75376
-6.75951
-6.76583
-6.77276
-6.78034
-6.78858
-6.79754
-6.80725
-6.81772
-6.82901
-6.84112
-6.85408
-6.86791
-6.88264
-6.89826
-6.91478
-6.93221
-6.95054
-6.96977
-6.98988
-7.01084
-7.03264
-7.05526
-7.07867
-7.10285
-7.12778
-7.15342
-7.17973
-7.20667
-7.23418
-7.26221
-7.29072
-7.31965
-7.34893
-7.37852
-7.40833
-7.4383
-7.46834
-7.49838
-7.52831
-7.55805
-7.58749
-7.61652
-7.64501
-7.67285
-7.6999
-7.72603
-7.75108
-7.77492
-7.79738
-7.8183
-7.83752
-7.85486
-7.87015
-7.88321
-7.89386
-7.9019
-7.90717
-7.90945
-7.90858
-7.90435
-7.89658
-7.88508
-7.86967
-7.85015
-7.82635
-7.7981
-7.76521
-7.72752
-7.68486
-7.63707
-7.584
-7.5255
-7.46143
-7.39164
-7.31601
-7.23441
-7.14672
-7.05282
-6.95263
-6.84603
-6.73295
-6.6133
-6.48702
-6.35406
-6.21439
-6.06797
-5.91481
-5.7549
-5.58825
-5.41489
-5.23489
-5.04828
-4.85516
-4.65562
-4.44975
-4.2377
-4.01959
-3.79557
-3.56582
-3.33052
-3.08985
-2.84404
-2.59329
-2.33784
-2.07794
-1.81385
-1.54581
-1.27412
-0.999051
-0.720887
-0.439925
-0.156467
0.129182
0.416712
0.705812
0.99617
1.28748
1.57942
1.87168
2.16397
2.45596
2.74737
3.0379
3.32727
3.61519
3.90139
4.18562
4.4676
4.74712
5.02392
5.2978
5.56854
5.83595
6.09984
6.36003
6.61637
6.8687
7.11688
7.3608
7.60032
7.83536
8.0658
8.29157
8.51257
8.72873
8.93997
9.14621
9.34738
9.54346
9.73444
9.92028
10.101
10.2765
10.4469
10.612
10.7721
10.9271
11.0769
11.2221
11.3596
11.5003
11.5869
-6.69311
-6.69746
-6.70327
-6.70856
-6.71277
-6.71619
-6.71917
-6.72192
-6.72459
-6.72732
-6.7302
-6.7333
-6.7367
-6.74044
-6.74456
-6.74911
-6.75413
-6.75965
-6.76571
-6.77233
-6.77956
-6.78743
-6.79598
-6.80523
-6.81521
-6.82596
-6.83751
-6.84986
-6.86306
-6.8771
-6.89201
-6.90778
-6.92444
-6.94197
-6.96037
-6.97964
-6.99976
-7.02072
-7.0425
-7.06507
-7.08843
-7.11254
-7.13739
-7.16293
-7.18915
-7.21599
-7.24342
-7.27138
-7.29983
-7.32871
-7.35797
-7.38754
-7.41736
-7.44736
-7.47744
-7.50754
-7.53755
-7.56737
-7.59691
-7.62604
-7.65465
-7.68261
-7.70979
-7.73605
-7.76124
-7.78522
-7.80781
-7.82887
-7.84822
-7.8657
-7.88111
-7.89429
-7.90505
-7.9132
-7.91856
-7.92094
-7.92015
-7.916
-7.9083
-7.89686
-7.8815
-7.86203
-7.83828
-7.81006
-7.77721
-7.73955
-7.69693
-7.64918
-7.59615
-7.53769
-7.47366
-7.40392
-7.32835
-7.24681
-7.15919
-7.06537
-6.96525
-6.85873
-6.74571
-6.62612
-6.4999
-6.367
-6.22738
-6.08102
-5.92791
-5.76804
-5.60145
-5.42815
-5.2482
-5.06166
-4.86861
-4.66914
-4.46336
-4.25139
-4.03338
-3.80946
-3.57982
-3.34464
-3.10409
-2.8584
-2.60779
-2.35248
-2.09273
-1.82878
-1.5609
-1.28937
-1.01446
-0.736465
-0.455671
-0.172383
0.113094
0.400451
0.689379
0.979564
1.2707
1.56247
1.85457
2.14668
2.43852
2.72977
3.02014
3.30936
3.59713
3.88319
4.16728
4.44915
4.72854
5.00524
5.27902
5.54968
5.817
6.08082
6.34095
6.59723
6.84952
7.09768
7.34157
7.58109
7.81612
8.04657
8.27235
8.49338
8.70956
8.92083
9.12711
9.32833
9.52447
9.7155
9.90139
10.0821
10.2577
10.428
10.5931
10.753
10.9076
11.0568
11.2008
11.3363
11.4746
11.5544
-6.69525
-6.6997
-6.7057
-6.71124
-6.71573
-6.71946
-6.72274
-6.72579
-6.72876
-6.73177
-6.73492
-6.7383
-6.74195
-6.74595
-6.75033
-6.75514
-6.76041
-6.76618
-6.77248
-6.77936
-6.78683
-6.79495
-6.80373
-6.81321
-6.82342
-6.83438
-6.84612
-6.85866
-6.87202
-6.88621
-6.90125
-6.91714
-6.93388
-6.95148
-6.96994
-6.98924
-7.00938
-7.03034
-7.05211
-7.07468
-7.09802
-7.12212
-7.14695
-7.17247
-7.19867
-7.22551
-7.25293
-7.28091
-7.30939
-7.33832
-7.36764
-7.39729
-7.4272
-7.45729
-7.4875
-7.51772
-7.54786
-7.57783
-7.60751
-7.6368
-7.66557
-7.69369
-7.72102
-7.74743
-7.77278
-7.79689
-7.81963
-7.84081
-7.86028
-7.87786
-7.89337
-7.90662
-7.91745
-7.92566
-7.93106
-7.93347
-7.93269
-7.92854
-7.92083
-7.90937
-7.89398
-7.87447
-7.85067
-7.8224
-7.78949
-7.75177
-7.70908
-7.66126
-7.60816
-7.54964
-7.48555
-7.41576
-7.34013
-7.25854
-7.17088
-7.07702
-6.97685
-6.87027
-6.75719
-6.63754
-6.51125
-6.37827
-6.23858
-6.09214
-5.93896
-5.77902
-5.61236
-5.43901
-5.25901
-5.07242
-4.87934
-4.67984
-4.47404
-4.26207
-4.04406
-3.82016
-3.59054
-3.35539
-3.11489
-2.86926
-2.61871
-2.36348
-2.10382
-1.83996
-1.57219
-1.30077
-1.02598
-0.748115
-0.467457
-0.184311
0.101018
0.388222
0.676992
0.967016
1.25798
1.54958
1.84151
2.13345
2.42511
2.71619
3.00639
3.29543
3.58304
3.86894
4.15287
4.43458
4.71383
4.99038
5.26402
5.53454
5.80174
6.06544
6.32547
6.58166
6.83386
7.08193
7.32576
7.56522
7.80021
8.03062
8.25637
8.47736
8.69353
8.90479
9.11107
9.31231
9.50847
9.69952
9.88543
10.0662
10.2417
10.412
10.5769
10.7365
10.8907
11.0391
11.1818
11.3154
11.4515
11.5255
-6.69938
-6.7038
-6.7098
-6.71542
-6.72006
-6.72398
-6.72746
-6.73072
-6.73389
-6.7371
-6.74046
-6.74402
-6.74787
-6.75205
-6.75661
-6.76159
-6.76704
-6.77298
-6.77946
-6.78651
-6.79415
-6.80243
-6.81137
-6.82101
-6.83136
-6.84246
-6.85433
-6.86699
-6.88046
-6.89474
-6.90986
-6.92581
-6.94262
-6.96026
-6.97875
-6.99808
-7.01825
-7.03923
-7.06103
-7.08362
-7.10699
-7.13112
-7.15598
-7.18156
-7.20781
-7.23471
-7.26222
-7.29029
-7.31887
-7.34792
-7.37736
-7.40715
-7.43721
-7.46747
-7.49784
-7.52823
-7.55855
-7.5887
-7.61856
-7.64802
-7.67695
-7.70523
-7.73273
-7.75928
-7.78476
-7.80899
-7.83183
-7.8531
-7.87264
-7.89027
-7.90582
-7.9191
-7.92992
-7.93811
-7.94348
-7.94583
-7.94498
-7.94075
-7.93294
-7.92137
-7.90586
-7.88623
-7.86229
-7.83387
-7.80081
-7.76294
-7.72009
-7.67212
-7.61887
-7.56019
-7.49595
-7.42602
-7.35025
-7.26853
-7.18074
-7.08673
-6.98641
-6.87966
-6.76641
-6.64659
-6.52012
-6.38698
-6.24712
-6.10052
-5.94718
-5.78709
-5.62029
-5.4468
-5.26667
-5.07998
-4.88679
-4.68721
-4.48134
-4.2693
-4.05124
-3.82731
-3.59768
-3.36252
-3.12203
-2.87643
-2.62592
-2.37074
-2.11114
-1.84736
-1.57968
-1.30836
-1.03368
-0.755941
-0.475422
-0.192426
0.092744
0.379782
0.66838
0.958226
1.24901
1.54042
1.83215
2.12389
2.41535
2.70623
2.99622
3.28506
3.57246
3.85816
4.14189
4.4234
4.70245
4.97881
5.25227
5.52261
5.78965
6.05318
6.31305
6.5691
6.82116
7.06912
7.31283
7.55219
7.78708
8.01741
8.24309
8.46402
8.68014
8.89136
9.09761
9.29884
9.49499
9.68603
9.87193
10.0526
10.2281
10.3983
10.563
10.7223
10.8759
11.0235
11.165
11.2966
11.4308
11.4999
-6.70528
-6.70956
-6.71541
-6.72097
-6.72562
-6.7296
-6.73318
-6.73653
-6.73981
-6.74313
-6.74658
-6.75024
-6.75418
-6.75845
-6.7631
-6.76817
-6.7737
-6.77972
-6.78628
-6.79341
-6.80113
-6.80949
-6.8185
-6.82821
-6.83863
-6.8498
-6.86172
-6.87444
-6.88795
-6.90228
-6.91743
-6.93342
-6.95025
-6.96793
-6.98645
-7.00581
-7.02601
-7.04703
-7.06888
-7.09153
-7.11496
-7.13917
-7.16412
-7.18979
-7.21616
-7.24318
-7.27082
-7.29903
-7.32777
-7.35698
-7.3866
-7.41657
-7.44681
-7.47725
-7.50781
-7.53838
-7.56889
-7.5992
-7.62923
-7.65885
-7.68793
-7.71634
-7.74394
-7.77059
-7.79614
-7.82043
-7.84331
-7.8646
-7.88413
-7.90173
-7.91723
-7.93043
-7.94117
-7.94924
-7.95448
-7.95668
-7.95567
-7.95126
-7.94326
-7.93149
-7.91577
-7.89591
-7.87174
-7.8431
-7.80981
-7.7717
-7.72863
-7.68043
-7.62695
-7.56806
-7.50361
-7.43347
-7.35751
-7.27559
-7.18757
-7.09333
-6.99277
-6.88578
-6.77228
-6.65221
-6.52551
-6.39214
-6.25205
-6.10524
-5.95168
-5.7914
-5.62441
-5.45075
-5.27047
-5.08363
-4.89032
-4.69062
-4.48466
-4.27255
-4.05443
-3.83046
-3.6008
-3.36564
-3.12517
-2.87959
-2.62913
-2.37402
-2.1145
-1.85082
-1.58325
-1.31206
-1.03752
-0.759932
-0.47958
-0.196764
0.0882164
0.375055
0.663443
0.953071
1.24363
1.5348
1.82629
2.11779
2.409
2.69962
2.98936
3.27795
3.56509
3.85053
4.134
4.41526
4.69407
4.97019
5.24341
5.51352
5.78033
6.04365
6.30332
6.55917
6.81105
7.05883
7.30239
7.5416
7.77636
8.00657
8.23214
8.45298
8.66901
8.88016
9.08636
9.28755
9.48367
9.67468
9.86054
10.0412
10.2166
10.3866
10.5511
10.71
10.863
11.0097
11.15
11.2798
11.4121
11.4771
-6.71268
-6.71675
-6.72234
-6.7277
-6.73225
-6.73617
-6.73972
-6.74305
-6.74632
-6.74962
-6.75306
-6.7567
-6.76062
-6.76487
-6.76949
-6.77454
-6.78004
-6.78605
-6.79259
-6.7997
-6.80741
-6.81575
-6.82476
-6.83446
-6.84487
-6.85603
-6.86796
-6.88066
-6.89417
-6.9085
-6.92366
-6.93966
-6.9565
-6.97419
-6.99274
-7.01213
-7.03237
-7.05346
-7.07537
-7.09809
-7.12162
-7.14593
-7.17101
-7.19681
-7.22331
-7.25049
-7.27828
-7.30666
-7.33557
-7.36496
-7.39476
-7.4249
-7.45532
-7.48592
-7.51664
-7.54736
-7.57799
-7.60844
-7.63857
-7.66827
-7.69741
-7.72587
-7.75349
-7.78014
-7.80567
-7.82991
-7.85271
-7.8739
-7.89332
-7.91077
-7.9261
-7.93912
-7.94965
-7.9575
-7.9625
-7.96444
-7.96316
-7.95847
-7.95019
-7.93812
-7.9221
-7.90194
-7.87748
-7.84854
-7.81495
-7.77656
-7.7332
-7.68473
-7.63098
-7.57183
-7.50714
-7.43676
-7.36056
-7.27837
-7.19006
-7.09553
-6.99467
-6.88738
-6.7736
-6.65326
-6.52629
-6.39265
-6.25232
-6.10527
-5.9515
-5.79102
-5.62385
-5.45002
-5.26959
-5.08263
-4.8892
-4.68942
-4.48338
-4.27122
-4.05307
-3.82909
-3.59944
-3.36431
-3.12389
-2.87839
-2.62802
-2.37302
-2.11363
-1.8501
-1.58269
-1.31167
-1.03733
-0.759948
-0.479821
-0.197243
0.0874859
0.374061
0.662176
0.95152
1.24178
1.53266
1.82384
2.11503
2.40592
2.69622
2.98564
3.2739
3.56072
3.84584
4.12899
4.40993
4.68843
4.96424
5.23717
5.50699
5.77352
6.03657
6.29598
6.55159
6.80324
7.0508
7.29415
7.53317
7.76776
7.99781
8.22323
8.44395
8.65987
8.87093
9.07705
9.27818
9.47425
9.66521
9.85101
10.0316
10.2068
10.3767
10.5409
10.6994
10.8518
10.9976
11.1366
11.2648
11.3952
11.457
-6.72134
-6.72515
-6.7304
-6.73546
-6.73979
-6.74353
-6.74691
-6.75009
-6.7532
-6.75635
-6.75964
-6.76313
-6.7669
-6.771
-6.77549
-6.78039
-6.78577
-6.79165
-6.79807
-6.80507
-6.81268
-6.82093
-6.82985
-6.83946
-6.8498
-6.86089
-6.87276
-6.88541
-6.89888
-6.91317
-6.9283
-6.94427
-6.96111
-6.97881
-6.99737
-7.01679
-7.03708
-7.05821
-7.0802
-7.10301
-7.12663
-7.15105
-7.17624
-7.20217
-7.22881
-7.25612
-7.28405
-7.31257
-7.34161
-7.37112
-7.40104
-7.43129
-7.4618
-7.49249
-7.52327
-7.55403
-7.58469
-7.61514
-7.64524
-7.6749
-7.70397
-7.73233
-7.75983
-7.78633
-7.81168
-7.83573
-7.85831
-7.87926
-7.8984
-7.91558
-7.9306
-7.9433
-7.9535
-7.96101
-7.96564
-7.96723
-7.96558
-7.96052
-7.95186
-7.93943
-7.92304
-7.90253
-7.87772
-7.84845
-7.81454
-7.77583
-7.73218
-7.68342
-7.62941
-7.57001
-7.50507
-7.43444
-7.35794
-7.27544
-7.18681
-7.09196
-6.9908
-6.88322
-6.76916
-6.64854
-6.52131
-6.38744
-6.24688
-6.09963
-5.94567
-5.78502
-5.61771
-5.44375
-5.26322
-5.07618
-4.88269
-4.68287
-4.47683
-4.26467
-4.04656
-3.82263
-3.59306
-3.35803
-3.11774
-2.87238
-2.62218
-2.36737
-2.10819
-1.84488
-1.57772
-1.30697
-1.03291
-0.755821
-0.476005
-0.193752
0.0906386
0.376863
0.664616
0.953589
1.24347
1.53396
1.82475
2.11554
2.40603
2.69593
2.98494
3.2728
3.55921
3.84393
4.12669
4.40724
4.68535
4.96079
5.23335
5.50282
5.76901
6.03173
6.29082
6.54613
6.7975
7.04479
7.28789
7.52668
7.76105
7.99091
8.21616
8.43672
8.65251
8.86346
9.06948
9.27053
9.46653
9.65743
9.84316
10.0236
10.1988
10.3684
10.5324
10.6904
10.8422
10.9871
11.1249
11.2514
11.3801
11.4393
-6.73106
-6.7346
-6.73947
-6.74416
-6.74814
-6.75155
-6.7546
-6.75746
-6.76025
-6.76309
-6.76607
-6.76926
-6.77274
-6.77656
-6.78078
-6.78543
-6.79057
-6.79623
-6.80244
-6.80924
-6.81666
-6.82474
-6.83349
-6.84296
-6.85317
-6.86413
-6.87588
-6.88843
-6.90181
-6.91602
-6.93109
-6.94701
-6.96381
-6.98148
-7.00003
-7.01946
-7.03975
-7.06092
-7.08293
-7.10579
-7.12947
-7.15394
-7.17919
-7.20518
-7.23187
-7.25922
-7.28719
-7.31573
-7.34478
-7.37429
-7.40418
-7.43439
-7.46483
-7.49542
-7.52608
-7.55671
-7.5872
-7.61745
-7.64735
-7.67676
-7.70557
-7.73364
-7.76083
-7.787
-7.81201
-7.83569
-7.85788
-7.87843
-7.89717
-7.91392
-7.92852
-7.94078
-7.95053
-7.9576
-7.96179
-7.96294
-7.96086
-7.95537
-7.9463
-7.93346
-7.91669
-7.89581
-7.87065
-7.84104
-7.80682
-7.76783
-7.7239
-7.6749
-7.62066
-7.56104
-7.49585
-7.42493
-7.34811
-7.26529
-7.17637
-7.08124
-6.97979
-6.87196
-6.75766
-6.63682
-6.50939
-6.37533
-6.23462
-6.08723
-5.93316
-5.77243
-5.60505
-5.43106
-5.25051
-5.06347
-4.87003
-4.67027
-4.46431
-4.25227
-4.03429
-3.81053
-3.58114
-3.34632
-3.10626
-2.86116
-2.61124
-2.35673
-2.09787
-1.8349
-1.5681
-1.29772
-1.02406
-0.747383
-0.467991
-0.186175
0.0977651
0.383528
0.670809
0.959302
1.2487
1.5387
1.82899
2.11927
2.40926
2.69866
2.98717
3.27453
3.56045
3.84468
4.12695
4.40703
4.68468
4.95967
5.23179
5.50083
5.76661
6.02894
6.28766
6.54261
6.79364
7.04062
7.28342
7.52194
7.75606
7.98569
8.21074
8.43112
8.64676
8.85757
9.06349
9.26444
9.46037
9.6512
9.83685
10.0172
10.1922
10.3616
10.5253
10.6829
10.834
10.978
11.1146
11.2397
11.3666
11.4239
-6.74215
-6.74544
-6.74991
-6.75414
-6.75762
-6.76051
-6.76302
-6.76533
-6.76757
-6.76988
-6.77234
-6.77505
-6.77807
-6.78146
-6.78527
-6.78955
-6.79433
-6.79966
-6.80556
-6.81207
-6.81921
-6.82703
-6.83555
-6.84479
-6.85478
-6.86554
-6.8771
-6.88948
-6.90268
-6.91674
-6.93166
-6.94746
-6.96413
-6.98169
-7.00013
-7.01946
-7.03966
-7.06073
-7.08265
-7.10542
-7.129
-7.15336
-7.17849
-7.20435
-7.2309
-7.25809
-7.28588
-7.31422
-7.34305
-7.37231
-7.40193
-7.43184
-7.46196
-7.49221
-7.52251
-7.55274
-7.58282
-7.61264
-7.64208
-7.67102
-7.69934
-7.72691
-7.75359
-7.77924
-7.80371
-7.82685
-7.84851
-7.86851
-7.8867
-7.90291
-7.91697
-7.92871
-7.93794
-7.94449
-7.94819
-7.94886
-7.94632
-7.94039
-7.9309
-7.91768
-7.90054
-7.87933
-7.85386
-7.82397
-7.78951
-7.7503
-7.7062
-7.65704
-7.60264
-7.5428
-7.47734
-7.40613
-7.32905
-7.24598
-7.15683
-7.06149
-6.95986
-6.85186
-6.73742
-6.61646
-6.48894
-6.35481
-6.21406
-6.06665
-5.9126
-5.7519
-5.58458
-5.41069
-5.23026
-5.04337
-4.85011
-4.65055
-4.44482
-4.23304
-4.01534
-3.79189
-3.56285
-3.32839
-3.08871
-2.84402
-2.59453
-2.34047
-2.08209
-1.81962
-1.55332
-1.28348
-1.01036
-0.734247