/*--------------------------------*- C++ -*----------------------------------*\
  =========                 |
  \\      /  F ield         | OpenFOAM: The Open Source CFD Toolbox
   \\    /   O peration     | Website:  https://openfoam.org
    \\  /    A nd           | Version:  12
     \\/     M anipulation  |
\*---------------------------------------------------------------------------*/
FoamFile
{
    format      ascii;
    class       volVectorField;
    location    "0.24";
    object      U;
}
// * * * * * * * * * * * * * * * * * * * * * * * * * * * * * * * * * * * * * //

dimensions      [0 1 -1 0 0 0 0];

internalField   nonuniform List<vector> 
12225
(
(9.86107 -0.874318 0)
(9.67248 -0.700192 0)
(9.45897 -0.387592 0)
(9.22466 -0.188478 0)
(9.00349 -0.0843941 0)
(8.81039 -0.0328765 0)
(8.64511 -0.0075516 0)
(8.50412 0.00502362 0)
(8.38394 0.0113351 0)
(8.28106 0.0144708 0)
(8.1921 0.0159655 0)
(8.11417 0.0166344 0)
(8.0449 0.0169202 0)
(7.98246 0.0171141 0)
(7.92395 0.0174085 0)
(7.87035 0.0185097 0)
(7.80107 0.0214731 0)
(7.77477 0.0298736 0)
(10.0547 0.263069 0)
(10.1201 0.36074 0)
(10.118 0.27382 0)
(10.0826 0.187086 0)
(10.0405 0.13116 0)
(9.99392 0.096925 0)
(9.94012 0.0755548 0)
(9.88039 0.0617468 0)
(9.81783 0.0523404 0)
(9.75491 0.0455225 0)
(9.69308 0.0403499 0)
(9.63315 0.0363616 0)
(9.57551 0.0333015 0)
(9.52053 0.0311499 0)
(9.46745 0.0297405 0)
(9.41871 0.0308334 0)
(9.36735 0.0319046 0)
(9.3421 0.0522175 0)
(9.99919 0.0460865 0)
(10.0244 0.0342086 0)
(10.0538 0.0149483 0)
(10.0708 0.0218083 0)
(10.0778 0.0366693 0)
(10.0783 0.0460047 0)
(10.0722 0.049944 0)
(10.0603 0.0511337 0)
(10.0439 0.0510388 0)
(10.0246 0.0503204 0)
(10.0031 0.0493497 0)
(9.98001 0.0483725 0)
(9.95587 0.0475386 0)
(9.93109 0.047081 0)
(9.90562 0.0470722 0)
(9.8805 0.0488414 0)
(9.85496 0.0515646 0)
(9.83506 0.0628797 0)
(9.9968 0.0064275 0)
(10.0085 0.025017 0)
(10.0342 0.0389355 0)
(10.0528 0.0502987 0)
(10.0644 0.0571024 0)
(10.0731 0.0591568 0)
(10.079 0.0588428 0)
(10.0816 0.0579205 0)
(10.0816 0.0569112 0)
(10.0795 0.0558905 0)
(10.0758 0.0549108 0)
(10.0707 0.0540585 0)
(10.0645 0.0534235 0)
(10.0573 0.0531986 0)
(10.0493 0.0535166 0)
(10.0411 0.0552481 0)
(10.0332 0.0580586 0)
(10.0277 0.0644303 0)
(9.99922 0.00673684 0)
(10.0081 0.0335718 0)
(10.0271 0.0460397 0)
(10.0418 0.0508396 0)
(10.0524 0.053906 0)
(10.0622 0.0554923 0)
(10.0708 0.0558362 0)
(10.0775 0.0556491 0)
(10.0823 0.0552768 0)
(10.0857 0.0548105 0)
(10.0881 0.0543242 0)
(10.0894 0.0539223 0)
(10.09 0.0537138 0)
(10.0898 0.0538717 0)
(10.0891 0.0545454 0)
(10.0884 0.0562217 0)
(10.0883 0.0587127 0)
(10.0899 0.0624992 0)
(10.0002 0.00907323 0)
(10.0078 0.0321221 0)
(10.0225 0.0419066 0)
(10.035 0.0456585 0)
(10.0448 0.0491156 0)
(10.0542 0.0516492 0)
(10.063 0.052785 0)
(10.0705 0.0531333 0)
(10.0767 0.0531694 0)
(10.0819 0.0530572 0)
(10.0863 0.0528881 0)
(10.0901 0.0527695 0)
(10.0932 0.0528115 0)
(10.0958 0.053156 0)
(10.0982 0.0539252 0)
(10.1006 0.0553575 0)
(10.1037 0.057294 0)
(10.108 0.059581 0)
(10.0003 0.00879948 0)
(10.0068 0.0275148 0)
(10.019 0.0370772 0)
(10.0303 0.0417324 0)
(10.0395 0.0456499 0)
(10.0482 0.0484713 0)
(10.0566 0.0498778 0)
(10.0641 0.0504671 0)
(10.0706 0.0507248 0)
(10.0763 0.0508231 0)
(10.0815 0.0508483 0)
(10.0862 0.0508999 0)
(10.0904 0.0510784 0)
(10.0942 0.0514926 0)
(10.098 0.0522238 0)
(10.1018 0.0533628 0)
(10.1062 0.0547484 0)
(10.1115 0.0560621 0)
(10.0004 0.00783633 0)
(10.0057 0.0236914 0)
(10.016 0.0333626 0)
(10.0264 0.0385775 0)
(10.0351 0.0424689 0)
(10.0433 0.0452587 0)
(10.0512 0.0468084 0)
(10.0584 0.0475835 0)
(10.0649 0.0480086 0)
(10.0708 0.0482569 0)
(10.0762 0.0484154 0)
(10.0812 0.0485753 0)
(10.0859 0.0488242 0)
(10.0904 0.0492404 0)
(10.0947 0.0498673 0)
(10.0993 0.0507122 0)
(10.1042 0.051615 0)
(10.1097 0.0522681 0)
(10.0004 0.00695021 0)
(10.0049 0.020704 0)
(10.0136 0.030028 0)
(10.023 0.0353901 0)
(10.0312 0.0391706 0)
(10.0389 0.0419264 0)
(10.0464 0.0436117 0)
(10.0534 0.0445516 0)
(10.0598 0.0451106 0)
(10.0656 0.0454697 0)
(10.0711 0.0457206 0)
(10.0762 0.0459455 0)
(10.0811 0.0462176 0)
(10.0859 0.0465902 0)
(10.0905 0.0470782 0)
(10.0954 0.0476477 0)
(10.1004 0.0481526 0)
(10.1059 0.0483541 0)
(10.0004 0.00616335 0)
(10.0042 0.0181183 0)
(10.0116 0.0267901 0)
(10.0199 0.0321267 0)
(10.0277 0.0358309 0)
(10.035 0.0385556 0)
(10.0421 0.0403336 0)
(10.0488 0.0413983 0)
(10.055 0.0420593 0)
(10.0608 0.0424992 0)
(10.0663 0.0428119 0)
(10.0714 0.04307 0)
(10.0764 0.0433326 0)
(10.0812 0.0436347 0)
(10.0861 0.0439735 0)
(10.0909 0.0443001 0)
(10.096 0.0444925 0)
(10.1012 0.0443859 0)
(10.0003 0.00542649 0)
(10.0036 0.0157955 0)
(10.0099 0.0237037 0)
(10.0173 0.0288968 0)
(10.0245 0.0325092 0)
(10.0314 0.035167 0)
(10.0381 0.0369786 0)
(10.0446 0.0381241 0)
(10.0506 0.0388584 0)
(10.0563 0.0393544 0)
(10.0617 0.0397045 0)
(10.0669 0.0399723 0)
(10.0719 0.040205 0)
(10.0767 0.0404249 0)
(10.0815 0.0406208 0)
(10.0864 0.0407445 0)
(10.0913 0.0407016 0)
(10.0963 0.0403888 0)
(10.0003 0.00477399 0)
(10.0031 0.0138502 0)
(10.0086 0.0210292 0)
(10.0152 0.0259892 0)
(10.0219 0.0294741 0)
(10.0285 0.032037 0)
(10.0349 0.0338344 0)
(10.041 0.0350167 0)
(10.0469 0.0357919 0)
(10.0525 0.0363174 0)
(10.0578 0.0366819 0)
(10.0629 0.0369417 0)
(10.0679 0.037135 0)
(10.0727 0.0372771 0)
(10.0775 0.0373551 0)
(10.0823 0.0373283 0)
(10.087 0.0371268 0)
(10.0918 0.0366915 0)
(10.0003 0.00416749 0)
(10.0028 0.0120829 0)
(10.0075 0.0185148 0)
(10.0134 0.0231512 0)
(10.0197 0.0264659 0)
(10.0258 0.0289101 0)
(10.0319 0.0306595 0)
(10.0378 0.0318465 0)
(10.0435 0.0326397 0)
(10.049 0.0331769 0)
(10.0542 0.0335411 0)
(10.0593 0.0337826 0)
(10.0642 0.0339326 0)
(10.069 0.0340026 0)
(10.0737 0.0339813 0)
(10.0783 0.0338379 0)
(10.0829 0.0335225 0)
(10.0875 0.0330086 0)
(10.0003 0.0035356 0)
(10.0024 0.0102446 0)
(10.0064 0.0158223 0)
(10.0117 0.020004 0)
(10.0174 0.0230608 0)
(10.0232 0.0253278 0)
(10.0289 0.0269775 0)
(10.0346 0.0281272 0)
(10.0401 0.0289083 0)
(10.0454 0.0294347 0)
(10.0505 0.0297801 0)
(10.0554 0.0299888 0)
(10.0603 0.0300864 0)
(10.065 0.0300824 0)
(10.0696 0.0299694 0)
(10.0741 0.029728 0)
(10.0784 0.0293271 0)
(10.0828 0.0287645 0)
(10.0002 0.00287672 0)
(10.002 0.00833415 0)
(10.0055 0.0129619 0)
(10.0101 0.016554 0)
(10.0153 0.0192436 0)
(10.0206 0.021256 0)
(10.026 0.0227398 0)
(10.0314 0.0237952 0)
(10.0366 0.0245207 0)
(10.0417 0.0250039 0)
(10.0467 0.0253064 0)
(10.0515 0.0254656 0)
(10.0562 0.0255029 0)
(10.0608 0.0254271 0)
(10.0653 0.0252363 0)
(10.0696 0.0249215 0)
(10.0738 0.0244672 0)
(10.0778 0.0238872 0)
(10.0002 0.00219115 0)
(10.0017 0.00635239 0)
(10.0047 0.00993874 0)
(10.0088 0.0128028 0)
(10.0134 0.0149973 0)
(10.0183 0.0166571 0)
(10.0233 0.0178925 0)
(10.0284 0.0187816 0)
(10.0334 0.0193938 0)
(10.0383 0.0197916 0)
(10.0431 0.0200212 0)
(10.0478 0.0201126 0)
(10.0523 0.0200831 0)
(10.0567 0.0199418 0)
(10.061 0.019691 0)
(10.0651 0.0193302 0)
(10.0691 0.0188543 0)
(10.0729 0.0182858 0)
(10.0002 0.00147581 0)
(10.0015 0.00428279 0)
(10.0041 0.00673069 0)
(10.0077 0.00872693 0)
(10.0119 0.0102859 0)
(10.0164 0.0114769 0)
(10.0211 0.0123667 0)
(10.0258 0.0130058 0)
(10.0306 0.0134374 0)
(10.0353 0.0136999 0)
(10.0399 0.0138234 0)
(10.0444 0.0138282 0)
(10.0487 0.0137274 0)
(10.053 0.0135288 0)
(10.0571 0.0132372 0)
(10.061 0.0128564 0)
(10.0648 0.0123869 0)
(10.0684 0.0118536 0)
(10.0001 0.000713097 0)
(10.0013 0.0020696 0)
(10.0037 0.00325857 0)
(10.0069 0.00423855 0)
(10.0108 0.00501176 0)
(10.015 0.00560275 0)
(10.0194 0.00603639 0)
(10.0239 0.00633271 0)
(10.0285 0.00650941 0)
(10.033 0.00658234 0)
(10.0374 0.00656408 0)
(10.0417 0.00646354 0)
(10.0459 0.00628695 0)
(10.05 0.00603896 0)
(10.0539 0.00572337 0)
(10.0576 0.00534448 0)
(10.0612 0.00490422 0)
(10.0647 0.00442534 0)
(10.0001 -0.000143589 0)
(10.0013 -0.000418979 0)
(10.0035 -0.000666246 0)
(10.0066 -0.000872906 0)
(10.0104 -0.00103647 0)
(10.0145 -0.00117081 0)
(10.0188 -0.00129516 0)
(10.0232 -0.0014234 0)
(10.0276 -0.00156421 0)
(10.032 -0.00172479 0)
(10.0363 -0.00191163 0)
(10.0405 -0.00212973 0)
(10.0445 -0.00238227 0)
(10.0484 -0.00267094 0)
(10.0522 -0.0029962 0)
(10.0558 -0.00335684 0)
(10.0592 -0.00375272 0)
(10.0625 -0.0041669 0)
(10.0001 -0.000967121 0)
(10.0014 -0.00281792 0)
(10.0037 -0.00445577 0)
(10.0071 -0.00579869 0)
(10.0111 -0.00684042 0)
(10.0153 -0.00764251 0)
(10.0197 -0.00827192 0)
(10.0242 -0.00877391 0)
(10.0287 -0.00918301 0)
(10.0331 -0.00953123 0)
(10.0373 -0.00984508 0)
(10.0415 -0.0101431 0)
(10.0455 -0.0104378 0)
(10.0493 -0.0107378 0)
(10.053 -0.0110488 0)
(10.0565 -0.0113737 0)
(10.0599 -0.0117153 0)
(10.0631 -0.0120624 0)
(10.0002 -0.00168055 0)
(10.0015 -0.00491978 0)
(10.0042 -0.00777615 0)
(10.0079 -0.0100464 0)
(10.0123 -0.0117461 0)
(10.0168 -0.0130318 0)
(10.0215 -0.0140214 0)
(10.0261 -0.0147742 0)
(10.0307 -0.0153444 0)
(10.0352 -0.0157909 0)
(10.0395 -0.0161608 0)
(10.0437 -0.0164842 0)
(10.0477 -0.0167807 0)
(10.0516 -0.0170641 0)
(10.0552 -0.0173442 0)
(10.0587 -0.0176267 0)
(10.062 -0.0179158 0)
(10.0652 -0.0182042 0)
(10.0002 -0.00236199 0)
(10.0017 -0.00700698 0)
(10.0048 -0.0111097 0)
(10.0092 -0.0142121 0)
(10.0141 -0.0164083 0)
(10.019 -0.0180358 0)
(10.0239 -0.0192748 0)
(10.0288 -0.0201898 0)
(10.0336 -0.0208528 0)
(10.0382 -0.0213463 0)
(10.0427 -0.0217318 0)
(10.0469 -0.0220474 0)
(10.0509 -0.0223193 0)
(10.0548 -0.0225667 0)
(10.0584 -0.0228026 0)
(10.0619 -0.0230349 0)
(10.0652 -0.0232686 0)
(10.0683 -0.0234989 0)
(10.0002 -0.00299711 0)
(10.0018 -0.00911448 0)
(10.0056 -0.0144891 0)
(10.0108 -0.0183357 0)
(10.0163 -0.0209571 0)
(10.0217 -0.0228535 0)
(10.027 -0.0242195 0)
(10.0321 -0.0251608 0)
(10.0371 -0.025815 0)
(10.0419 -0.0262937 0)
(10.0464 -0.0266569 0)
(10.0507 -0.0269396 0)
(10.0548 -0.0271705 0)
(10.0586 -0.0273723 0)
(10.0623 -0.0275598 0)
(10.0658 -0.0277414 0)
(10.0691 -0.0279221 0)
(10.0722 -0.0280991 0)
(10.0001 -0.00357273 0)
(10.0019 -0.011544 0)
(10.0064 -0.0179402 0)
(10.0127 -0.0220692 0)
(10.0189 -0.0250539 0)
(10.0247 -0.0273558 0)
(10.0304 -0.0288993 0)
(10.0359 -0.0298137 0)
(10.0411 -0.0303759 0)
(10.046 -0.0307641 0)
(10.0506 -0.0310441 0)
(10.0549 -0.031248 0)
(10.059 -0.0314054 0)
(10.0629 -0.0315394 0)
(10.0666 -0.031664 0)
(10.07 -0.0317859 0)
(10.0733 -0.0319086 0)
(10.0763 -0.0320281 0)
(9.99997 -0.00369213 0)
(10.0018 -0.0151866 0)
(10.0076 -0.022661 0)
(10.0148 -0.0259935 0)
(10.0214 -0.0285583 0)
(10.0277 -0.0310221 0)
(10.034 -0.0328022 0)
(10.0399 -0.0338431 0)
(10.0454 -0.0344458 0)
(10.0505 -0.0348194 0)
(10.0552 -0.035047 0)
(10.0596 -0.0351776 0)
(10.0637 -0.0352533 0)
(10.0675 -0.0353036 0)
(10.071 -0.035345 0)
(10.0743 -0.0353858 0)
(10.0774 -0.0354295 0)
(10.0802 -0.0354737 0)
(9.99898 -0.00131089 0)
(9.99999 -0.0179791 0)
(10.0085 -0.0290776 0)
(10.0174 -0.0327044 0)
(10.0244 -0.0341296 0)
(10.0311 -0.0353569 0)
(10.0382 -0.0363047 0)
(10.0448 -0.0369482 0)
(10.0507 -0.0373998 0)
(10.0559 -0.0376997 0)
(10.0605 -0.0378627 0)
(10.0647 -0.0379246 0)
(10.0683 -0.0379267 0)
(10.0716 -0.0378985 0)
(10.0745 -0.0378581 0)
(10.077 -0.0378168 0)
(10.0793 -0.0377781 0)
(10.0813 -0.0377413 0)
(9.99528 0.00386774 0)
(9.99333 -0.0103149 0)
(10.007 -0.0271084 0)
(10.0212 -0.0389328 0)
(10.0311 -0.044872 0)
(10.0391 -0.0464796 0)
(10.0465 -0.045997 0)
(10.0529 -0.0450411 0)
(10.058 -0.0441668 0)
(10.062 -0.0433953 0)
(10.0651 -0.0426832 0)
(10.0674 -0.0420276 0)
(10.0689 -0.0414349 0)
(10.0698 -0.0409047 0)
(10.0702 -0.0404346 0)
(10.0702 -0.0400236 0)
(10.0698 -0.0396622 0)
(10.0692 -0.0393235 0)
(9.99144 -0.0172942 0)
(9.99188 0.00036333 0)
(10.01 0.0176619 0)
(10.0295 0.011583 0)
(10.0441 -0.00511619 0)
(10.0541 -0.018834 0)
(10.0599 -0.027182 0)
(10.0622 -0.0320609 0)
(10.0616 -0.0349442 0)
(10.059 -0.0365514 0)
(10.0548 -0.0373303 0)
(10.0494 -0.0376058 0)
(10.0431 -0.0375908 0)
(10.036 -0.0374148 0)
(10.0284 -0.0371617 0)
(10.0205 -0.0368925 0)
(10.0123 -0.0366626 0)
(10.0042 -0.0364411 0)
(10.0236 -0.206008 0)
(10.0684 -0.31234 0)
(10.0788 -0.255595 0)
(10.0704 -0.18418 0)
(10.0605 -0.134906 0)
(10.0498 -0.102732 0)
(10.0342 -0.0811724 0)
(10.0129 -0.0666271 0)
(9.98773 -0.0566366 0)
(9.96049 -0.049482 0)
(9.93225 -0.0441259 0)
(9.90374 -0.0399786 0)
(9.87542 -0.036682 0)
(9.84765 -0.0340032 0)
(9.82066 -0.0317944 0)
(9.79456 -0.0299918 0)
(9.76961 -0.0285654 0)
(9.74581 -0.0278316 0)
(9.94226 0.671595 0)
(9.87995 0.567454 0)
(9.77443 0.338465 0)
(9.63235 0.183317 0)
(9.4876 0.0949036 0)
(9.35647 0.0470803 0)
(9.24088 0.0212949 0)
(9.13936 0.00707288 0)
(9.05039 -0.000987079 0)
(8.97238 -0.00562884 0)
(8.90359 -0.00831851 0)
(8.84248 -0.00988122 0)
(8.78782 -0.0107872 0)
(8.73861 -0.0113052 0)
(8.69403 -0.0115961 0)
(8.65337 -0.0117846 0)
(8.61579 -0.0119644 0)
(8.5809 -0.0124965 0)
(0.00407415 -0.0098302 -3.5017e-20)
(0.0139571 -0.0147996 3.4602e-20)
(0.0222784 -0.012459 0)
(0.0272812 -0.00707992 0)
(0.0282082 -0.00103332 0)
(0.0251277 0.00428443 -3.24923e-20)
(0.0189231 0.00827305 0)
(0.0102922 0.0109749 0)
(-0.000166101 0.0127267 0)
(-0.0119917 0.0139024 0)
(-0.0249223 0.0147684 2.98919e-20)
(-0.0388029 0.0154796 0)
(-0.0535336 0.0161209 0)
(-0.0690604 0.0167336 0)
(-0.0853521 0.0173348 0)
(-0.102388 0.0179296 2.66931e-20)
(-0.120152 0.0185179 0)
(-0.138629 0.0190976 0)
(-0.157804 0.0196664 0)
(-0.177663 0.0202215 0)
(-0.198186 0.0207593 0)
(-0.219356 0.0212748 0)
(-0.24115 0.0217615 0)
(-0.263544 0.0222116 2.27681e-20)
(-0.28651 0.0226149 -2.23889e-20)
(-0.310014 0.0229595 2.20339e-20)
(-0.334019 0.0232362 2.1703e-20)
(-0.358486 0.0234507 0)
(-0.383382 0.0236356 0)
(-0.408689 0.0238434 -2.08556e-20)
(-0.434386 0.0241154 -2.06214e-20)
(-0.460426 0.0244833 0)
(-0.486887 0.0251954 0)
(-0.514194 0.0282218 -2.00669e-20)
(-0.542363 0.0355358 0)
(-0.571814 0.0344286 0)
(-0.602742 0.0309093 1.96657e-20)
(-0.633572 0.0359584 0)
(-0.667361 0.0407142 1.92986e-20)
(-0.703301 0.0468886 3.82052e-20)
(-0.739721 0.0543123 0)
(-0.777303 0.0480108 0)
(-0.815599 0.0480631 0)
(-0.853515 0.0580651 0)
(-0.89408 0.040861 0)
(-0.932434 0.0278299 4.00715e-20)
(-0.968899 0.0326195 3.9632e-20)
(-1.0087 0.0336534 3.91918e-20)
(-1.0491 0.0342295 0)
(-1.09008 0.034472 -3.8336e-20)
(-1.13137 0.0345135 0)
(-1.17283 0.0344277 3.75234e-20)
(-1.21435 0.0342581 3.7134e-20)
(-1.25587 0.034031 0)
(-1.29733 0.033762 0)
(-1.33869 0.0334607 0)
(-1.37993 0.0331333 3.56783e-20)
(-1.421 0.0327832 0)
(-1.46187 0.0324125 0)
(-1.50253 0.0320224 0)
(-1.54294 0.0316133 0)
(-1.58307 0.0311852 0)
(-1.6229 0.0307379 0)
(-1.66239 0.0302711 0)
(-1.70152 0.0297844 0)
(-1.74024 0.0292774 -3.28201e-20)
(-1.77853 0.0287498 0)
(-1.81635 0.0282012 0)
(-1.85367 0.0276316 3.19333e-20)
(-1.89045 0.0270409 3.16397e-20)
(-1.92666 0.0264292 0)
(-1.96225 0.0257966 -3.10519e-20)
(-1.99719 0.0251434 3.07565e-20)
(-2.03145 0.0244701 0)
(-2.06498 0.0237772 -3.01601e-20)
(-2.09774 0.0230651 0)
(-2.1297 0.0223347 0)
(-2.16082 0.0215867 2.9243e-20)
(-2.19107 0.0208217 0)
(-2.2204 0.0200407 -2.86104e-20)
(-2.24879 0.0192445 0)
(-2.27618 0.0184337 2.79561e-20)
(-2.30256 0.0176091 2.76197e-20)
(-2.32789 0.0167713 2.72764e-20)
(-2.35213 0.0159207 5.38515e-20)
(-2.37525 0.0150574 -5.31349e-20)
(-2.39721 0.0141815 0)
(-2.41798 0.0132922 0)
(-2.43754 0.0123885 0)
(-2.45584 0.0114684 -5.00983e-20)
(-2.47285 0.0105291 -4.92929e-20)
(-2.48853 0.00956681 4.84678e-20)
(-2.50284 0.00857683 0)
(-2.51573 0.00755375 -4.67559e-20)
(-2.52716 0.00649091 -4.58684e-20)
(-2.53706 0.00538191 -4.49592e-20)
(-2.54535 0.00422642 0)
(-2.55195 0.00304196 0)
(-2.55676 0.00187234 0)
(-2.55965 0.000773664 -4.1103e-20)
(-2.56075 -0.000202473 0)
(-2.56046 -0.00105292 0)
(-2.55867 -0.00187227 3.79388e-20)
(-2.55543 -0.00267735 0)
(-2.55073 -0.00347584 0)
(-2.54455 -0.00426909 3.45393e-20)
(-2.53688 -0.00505717 0)
(-2.52772 -0.0058395 0)
(-2.51706 -0.00661529 -3.09005e-20)
(-2.50489 -0.0073837 -2.96346e-20)
(-2.4912 -0.00814389 0)
(-2.476 -0.008895 2.70242e-20)
(-2.45928 -0.0096362 0)
(-2.44105 -0.0103667 -2.4311e-20)
(-2.42131 -0.0110856 0)
(-2.40007 -0.0117923 -2.14978e-20)
(-2.37732 -0.0124859 -2.00549e-20)
(-2.35309 -0.0131657 0)
(-2.32738 -0.0138309 0)
(-2.30021 -0.0144809 0)
(-2.27159 -0.0151149 0)
(-2.24154 -0.0157325 0)
(-2.21008 -0.0163328 0)
(-2.17722 -0.0169154 0)
(-2.143 -0.0174798 -7.72873e-21)
(-2.10743 -0.0180253 6.10238e-21)
(-2.07054 -0.0185517 0)
(-2.03235 -0.0190582 0)
(-1.99291 -0.0195446 0)
(-1.95223 -0.0200104 0)
(-1.91036 -0.0204552 -4.48842e-21)
(-1.86732 -0.0208787 0)
(-1.82315 -0.0212807 1.13222e-20)
(-1.77788 -0.0216611 -1.47625e-20)
(-1.73156 -0.0220195 0)
(-1.68422 -0.0223558 0)
(-1.6359 -0.02267 0)
(-1.58664 -0.022962 2.86179e-20)
(-1.53649 -0.0232317 3.20914e-20)
(-1.48548 -0.0234794 0)
(-1.43367 -0.0237051 3.90306e-20)
(-1.38108 -0.023909 4.24905e-20)
(-1.32777 -0.0240913 -4.59403e-20)
(-1.27377 -0.0242523 0)
(-1.21914 -0.0243924 0)
(-1.16391 -0.0245121 -5.62007e-20)
(-1.10813 -0.0246118 0)
(-1.05184 -0.0246919 0)
(-0.995078 -0.0247532 0)
(-0.937889 -0.0247963 0)
(-0.88031 -0.0248219 7.28436e-20)
(-0.82238 -0.0248308 7.60804e-20)
(-0.764137 -0.0248239 0)
(-0.705615 -0.024802 8.24433e-20)
(-0.646849 -0.024766 0)
(-0.587871 -0.0247169 0)
(-0.528709 -0.0246556 9.16788e-20)
(-0.469394 -0.0245828 0)
(-0.409951 -0.0244992 9.76069e-20)
(-0.350406 -0.0244051 0)
(-0.290786 -0.0243004 0)
(-0.231115 -0.0241827 1.06121e-19)
(-0.171423 -0.0240451 0)
(-0.11174 -0.0238833 1.11528e-19)
(-0.0520886 -0.0236914 0)
(0.00749783 -0.0234208 0)
(0.0668804 -0.0230477 0)
(0.126156 -0.0226647 -1.18331e-19)
(0.185323 -0.0223055 0)
(0.244391 -0.0219644 1.19837e-19)
(0.303368 -0.0216309 0)
(0.36224 -0.0212943 0)
(0.42096 -0.02094 0)
(0.479424 -0.0205444 0)
(0.537453 -0.0200619 0)
(0.594544 -0.0194003 0)
(0.650277 -0.0183134 0)
(0.700575 -0.0161718 -2.46944e-19)
(0.749483 -0.0113585 0)
(0.751838 0.00626294 0)
(0.00378785 -0.0280483 1.04081e-19)
(0.00806476 -0.0270627 -1.00066e-19)
(0.00756896 -0.0161996 0)
(0.00462904 -0.00457322 6.06662e-20)
(-0.000351037 0.00633172 0)
(-0.00716298 0.0158051 2.85643e-20)
(-0.0157923 0.0235458 -5.57159e-20)
(-0.0261454 0.0296095 -5.44267e-20)
(-0.038104 0.0342726 0)
(-0.051513 0.0378971 -5.19492e-20)
(-0.0662067 0.0408146 -2.53816e-20)
(-0.0820365 0.0432699 0)
(-0.0988855 0.0454265 0)
(-0.116668 0.0473857 0)
(-0.135326 0.0492072 0)
(-0.15482 0.050924 -2.25954e-20)
(-0.175124 0.0525537 0)
(-0.196225 0.0541052 4.32276e-20)
(-0.218115 0.0555829 0)
(-0.240791 0.056988 0)
(-0.264255 0.0583207 -4.06881e-20)
(-0.288513 0.0595802 0)
(-0.313575 0.0607657 3.92308e-20)
(-0.339457 0.0618767 -1.93079e-20)
(-0.36618 0.0629136 1.90027e-20)
(-0.393777 0.0638786 -1.87213e-20)
(-0.422293 0.06478 -1.84641e-20)
(-0.451788 0.065637 0)
(-0.482337 0.0664795 0)
(-0.51403 0.0673324 1.785e-20)
(-0.546962 0.0681912 -1.76419e-20)
(-0.581292 0.0690111 0)
(-0.617187 0.0697563 0)
(-0.654328 0.0706584 1.74414e-20)
(-0.692113 0.0723363 0)
(-0.731707 0.0743447 0)
(-0.772486 0.0762344 -1.73978e-20)
(-0.813911 0.0784315 0)
(-0.855075 0.0798685 1.69757e-20)
(-0.895694 0.0806713 -3.37981e-20)
(-0.936121 0.0808166 0)
(-0.977714 0.0806429 0)
(-1.01867 0.0818698 -6.55999e-20)
(-1.05861 0.084784 -6.49705e-20)
(-1.09903 0.0861735 -6.43084e-20)
(-1.14059 0.0867509 3.17072e-20)
(-1.18201 0.0878362 -3.14821e-20)
(-1.22174 0.0883218 -9.32034e-20)
(-1.26064 0.0882817 6.13896e-20)
(-1.29905 0.0879126 3.0433e-20)
(-1.33707 0.0873182 0)
(-1.37476 0.0865679 -2.97899e-20)
(-1.41215 0.0857065 2.93352e-20)
(-1.44924 0.0847631 0)
(-1.48602 0.0837563 0)
(-1.52249 0.082698 0)
(-1.55863 0.0815955 -2.83332e-20)
(-1.59443 0.080453 0)
(-1.62988 0.079273 5.5447e-20)
(-1.66495 0.0780562 0)
(-1.69963 0.0768029 5.44168e-20)
(-1.7339 0.0755124 0)
(-1.76773 0.0741843 -5.34189e-20)
(-1.8011 0.0728175 0)
(-1.83399 0.0714113 5.24449e-20)
(-1.86637 0.069965 -2.59109e-20)
(-1.89822 0.068478 0)
(-1.92951 0.06695 -5.10115e-20)
(-1.96021 0.0653809 -2.53369e-20)
(-1.99029 0.0637707 -2.50986e-20)
(-2.01973 0.06212 0)
(-2.0485 0.0604292 -2.44915e-20)
(-2.07657 0.0586992 -2.4379e-20)
(-2.1039 0.0569312 0)
(-2.13048 0.0551263 2.38909e-20)
(-2.15627 0.053286 -4.71716e-20)
(-2.18124 0.051412 0)
(-2.20537 0.0495058 -2.31379e-20)
(-2.22862 0.0475694 0)
(-2.25098 0.0456045 6.77547e-20)
(-2.2724 0.0436132 0)
(-2.29286 0.0415973 -6.61476e-20)
(-2.31235 0.0395587 -2.18009e-20)
(-2.33082 0.0374992 2.14417e-20)
(-2.34826 0.0354203 4.23169e-20)
(-2.36463 0.0333235 -4.17382e-20)
(-2.37992 0.03121 0)
(-2.3941 0.0290808 0)
(-2.40714 0.0269362 0)
(-2.41902 0.0247764 1.18028e-19)
(-2.42971 0.0226007 3.87073e-20)
(-2.43921 0.0204078 -3.803e-20)
(-2.44747 0.0181958 0)
(-2.4545 0.0159625 -3.66047e-20)
(-2.46027 0.0137048 3.59001e-20)
(-2.46479 0.0114183 3.51563e-20)
(-2.46809 0.00909969 0)
(-2.4702 0.00675844 0)
(-2.47122 0.00443553 0)
(-2.47126 0.00219454 3.19969e-20)
(-2.47024 5.74031e-05 0)
(-2.46784 -0.00198465 -6.06784e-20)
(-2.46406 -0.00398803 -8.83539e-20)
(-2.45886 -0.00596615 5.71603e-20)
(-2.45223 -0.00792582 0)
(-2.44413 -0.00986755 2.68245e-20)
(-2.43457 -0.0117901 0)
(-2.42354 -0.0136916 4.96869e-20)
(-2.41102 -0.0155696 -2.39642e-20)
(-2.397 -0.017422 -2.29749e-20)
(-2.38149 -0.0192464 0)
(-2.36449 -0.0210406 -6.23365e-20)
(-2.34599 -0.0228025 3.95421e-20)
(-2.32599 -0.0245302 1.85665e-20)
(-2.3045 -0.0262215 0)
(-2.28152 -0.0278747 1.63721e-20)
(-2.25706 -0.029488 4.60778e-20)
(-2.23114 -0.0310595 0)
(-2.20375 -0.0325875 2.6286e-20)
(-2.17492 -0.0340706 2.39745e-20)
(-2.14466 -0.035507 2.16367e-20)
(-2.11298 -0.0368956 0)
(-2.07991 -0.0382349 0)
(-2.04547 -0.0395238 0)
(-2.00967 -0.0407612 -6.23824e-21)
(-1.97255 -0.0419463 -4.58338e-21)
(-1.93412 -0.043078 0)
(-1.89442 -0.0441556 -4.65694e-21)
(-1.85347 -0.0451783 -2.16175e-21)
(-1.81131 -0.0461455 0)
(-1.76796 -0.0470566 3.34873e-21)
(-1.72347 -0.0479112 1.07822e-20)
(-1.67785 -0.0487093 -8.42546e-21)
(-1.63116 -0.0494506 -9.95701e-21)
(-1.58343 -0.0501353 0)
(-1.53469 -0.0507634 0)
(-1.48499 -0.0513351 0)
(-1.43436 -0.0518506 -2.11649e-20)
(-1.38286 -0.0523105 2.26378e-20)
(-1.33051 -0.0527156 5.14048e-20)
(-1.27736 -0.0530666 -2.87657e-20)
(-1.22345 -0.0533644 3.01941e-20)
(-1.16883 -0.0536099 3.37836e-20)
(-1.11355 -0.0538043 0)
(-1.05763 -0.053949 0)
(-1.00113 -0.0540456 -4.01038e-20)
(-0.944083 -0.0540954 0)
(-0.886537 -0.0541 0)
(-0.828532 -0.0540615 9.57925e-20)
(-0.770107 -0.0539817 0)
(-0.711301 -0.0538628 5.20664e-20)
(-0.652153 -0.0537067 -5.54678e-20)
(-0.592698 -0.0535159 0)
(-0.532973 -0.0532927 5.89399e-20)
(-0.473009 -0.0530393 0)
(-0.412839 -0.0527582 0)
(-0.352492 -0.0524518 -6.65867e-20)
(-0.291996 -0.052122 1.36381e-19)
(-0.231377 -0.0517705 -7.07986e-20)
(-0.170659 -0.0513983 0)
(-0.109866 -0.0510044 0)
(-0.0490211 -0.0505871 7.58345e-20)
(0.011854 -0.0501427 0)
(0.0727344 -0.0496686 7.87437e-20)
(0.133603 -0.0491715 0)
(0.194444 -0.0486513 0)
(0.255238 -0.0480959 0)
(0.316017 -0.04753 8.36978e-20)
(0.376768 -0.0469788 0)
(0.437483 -0.0464411 -8.54473e-20)
(0.498153 -0.0459042 0)
(0.55875 -0.0453484 0)
(0.61922 -0.0447431 1.74574e-19)
(0.679452 -0.0440365 -1.75896e-19)
(0.739258 -0.0431283 0)
(0.798204 -0.0418242 0)
(0.855841 -0.0396244 0)
(0.909631 -0.0355761 5.42919e-19)
(0.962141 -0.026443 0)
(0.992751 -0.00429958 -3.69356e-19)
(0.000976842 -0.0335196 -4.21341e-23)
(-0.0020471 -0.0215877 1.29728e-19)
(-0.00819992 -0.00543402 0)
(-0.0155425 0.00948183 -1.11877e-19)
(-0.0241282 0.0229327 0)
(-0.0337951 0.0348064 0)
(-0.0445255 0.0450329 1.14933e-23)
(-0.0563756 0.0536466 4.83671e-20)
(-0.0693938 0.0608088 4.71683e-20)
(-0.0835837 0.0667668 4.60664e-20)
(-0.0989059 0.0717903 0)
(-0.115299 0.0761226 0)
(-0.132697 0.0799589 -4.29706e-20)
(-0.151043 0.0834436 -8.40332e-20)
(-0.170291 0.0866773 8.22023e-20)
(-0.190409 0.0897279 0)
(-0.211376 0.09264 7.87813e-20)
(-0.233183 0.0954432 -3.86112e-20)
(-0.255828 0.0981574 0)
(-0.279313 0.100797 7.42635e-20)
(-0.303651 0.103373 3.6475e-20)
(-0.328855 0.105895 -7.16554e-20)
(-0.354946 0.108374 -3.52499e-20)
(-0.381947 0.110823 0)
(-0.409885 0.113257 6.83208e-20)
(-0.438793 0.115697 6.73562e-20)
(-0.468704 0.118169 0)
(-0.499648 0.120712 6.56367e-20)
(-0.531647 0.123365 0)
(-0.564705 0.12616 6.41815e-20)
(-0.598802 0.129104 3.1789e-20)
(-0.633903 0.132182 0)
(-0.669943 0.135392 0)
(-0.706665 0.138752 0)
(-0.743651 0.142092 0)
(-0.780854 0.144897 0)
(-0.818206 0.146992 0)
(-0.855505 0.148808 5.93632e-20)
(-0.892376 0.150129 -8.79762e-20)
(-0.928632 0.150835 0)
(-0.964494 0.15078 0)
(-1.00047 0.150114 0)
(-1.03619 0.149538 6.71384e-24)
(-1.07105 0.148451 5.50545e-20)
(-1.10569 0.146254 1.08746e-19)
(-1.14082 0.144142 -1.07383e-19)
(-1.17584 0.142666 -5.29749e-20)
(-1.21026 0.141283 5.23856e-20)
(-1.24425 0.13988 -7.62709e-23)
(-1.27792 0.138408 5.10444e-20)
(-1.3113 0.136853 0)
(-1.34444 0.135219 4.98477e-20)
(-1.37736 0.133514 -8.46904e-23)
(-1.41007 0.131748 0)
(-1.44255 0.129927 0)
(-1.47482 0.128055 -4.76387e-20)
(-1.50685 0.126134 0)
(-1.53864 0.124167 0)
(-1.57016 0.122152 4.60205e-20)
(-1.60141 0.120088 9.12517e-20)
(-1.63237 0.117975 -4.52412e-20)
(-1.663 0.11581 0)
(-1.6933 0.113591 4.4305e-20)
(-1.72323 0.111317 0)
(-1.75278 0.108986 4.32021e-20)
(-1.78192 0.106598 4.29421e-20)
(-1.81061 0.104151 -8.48039e-20)
(-1.83885 0.101644 -4.18664e-20)
(-1.86659 0.0990781 0)
(-1.8938 0.096453 8.21573e-20)
(-1.92047 0.0937693 0)
(-1.94656 0.0910281 1.20688e-19)
(-1.97204 0.0882308 7.95211e-20)
(-1.99688 0.0853789 7.86381e-20)
(-2.02105 0.0824744 -7.77506e-20)
(-2.04452 0.0795195 1.15364e-19)
(-2.06726 0.0765167 0)
(-2.08925 0.0734685 0)
(-2.11044 0.0703777 -7.41308e-20)
(-2.13082 0.067247 -1.09868e-19)
(-2.15036 0.0640795 0)
(-2.16902 0.060878 3.57121e-20)
(-2.18677 0.0576454 0)
(-2.2036 0.0543844 -1.04088e-19)
(-2.21947 0.0510978 -9.22565e-23)
(-2.23436 0.0477879 8.37244e-23)
(-2.24824 0.044457 6.63104e-20)
(-2.26109 0.0411072 0)
(-2.27288 0.0377403 -6.41859e-20)
(-2.28359 0.0343579 -4.6928e-23)
(-2.29321 0.0309614 0)
(-2.3017 0.0275527 0)
(-2.30906 0.0241337 0)
(-2.31527 0.0207077 5.85129e-20)
(-2.32033 0.0172798 0)
(-2.32422 0.0138584 0)
(-2.32695 0.0104562 0)
(-2.32853 0.00709038 0)
(-2.32892 0.00378019 0)
(-2.32812 0.000536085 5.08813e-20)
(-2.32605 -0.00267027 0)
(-2.32264 -0.00586677 4.80311e-20)
(-2.31788 -0.00904549 4.65983e-20)
(-2.31174 -0.0122028 -4.51402e-20)
(-2.3042 -0.0153355 0)
(-2.29524 -0.0184398 -4.21476e-20)
(-2.28487 -0.021512 0)
(-2.27306 -0.0245482 -3.90544e-20)
(-2.25981 -0.0275444 3.74707e-20)
(-2.24511 -0.0304969 1.07942e-19)
(-2.22896 -0.033402 0)
(-2.21135 -0.036256 9.81281e-20)
(-2.19229 -0.0390557 3.13202e-20)
(-2.17177 -0.0417976 0)
(-2.14981 -0.0444788 5.54226e-20)
(-2.1264 -0.0470961 5.19614e-20)
(-2.10155 -0.0496468 -7.24364e-20)
(-2.07527 -0.052128 0)
(-2.04757 -0.0545371 -2.03981e-20)
(-2.01847 -0.0568716 -1.85831e-20)
(-1.98798 -0.059129 -5.08432e-20)
(-1.95611 -0.0613072 0)
(-1.92288 -0.0634042 0)
(-1.88832 -0.0654181 0)
(-1.85244 -0.0673474 -9.94671e-21)
(-1.81527 -0.0691906 0)
(-1.77683 -0.0709463 0)
(-1.73715 -0.0726134 3.57762e-21)
(-1.69625 -0.0741908 1.65894e-21)
(-1.65418 -0.0756774 0)
(-1.61095 -0.0770727 0)
(-1.5666 -0.078376 -8.24811e-21)
(-1.52116 -0.0795873 0)
(-1.47468 -0.0807065 1.5977e-20)
(-1.42718 -0.0817338 1.90526e-20)
(-1.3787 -0.0826695 0)
(-1.32928 -0.083514 0)
(-1.27897 -0.0842679 -3.05723e-20)
(-1.22779 -0.0849323 -8.15497e-22)
(-1.1758 -0.0855083 -8.20766e-22)
(-1.12302 -0.0859975 0)
(-1.06951 -0.0864013 -9.23166e-20)
(-1.01531 -0.0867215 0)
(-0.960448 -0.08696 0)
(-0.904978 -0.0871192 0)
(-0.848937 -0.0872017 6.13853e-20)
(-0.792368 -0.0872099 0)
(-0.735311 -0.0871467 -1.35534e-19)
(-0.677805 -0.087015 -7.21544e-20)
(-0.619891 -0.0868183 0)
(-0.561605 -0.0865599 -7.91391e-20)
(-0.502986 -0.0862432 0)
(-0.444067 -0.0858722 0)
(-0.384884 -0.0854505 -2.66221e-19)
(-0.325467 -0.084982 1.83519e-19)
(-0.265849 -0.0844705 0)
(-0.206057 -0.0839199 1.96382e-19)
(-0.146118 -0.0833333 -1.02121e-19)
(-0.0860573 -0.0827137 0)
(-0.0258967 -0.0820635 0)
(0.034342 -0.0813846 0)
(0.0946383 -0.0806764 -3.36781e-19)
(0.154975 -0.0799377 0)
(0.215335 -0.0791688 -1.16623e-19)
(0.27571 -0.0783759 0)
(0.336101 -0.0775717 0)
(0.39653 -0.0767668 0)
(0.456994 -0.0759673 0)
(0.517477 -0.0751797 0)
(0.57796 -0.0743991 0)
(0.638422 -0.073609 -2.55131e-19)
(0.698833 -0.0727812 0)
(0.759132 -0.0718688 -1.30926e-19)
(0.819214 -0.0707917 3.95326e-19)
(0.878905 -0.0694013 0)
(0.937839 -0.0674152 0)
(0.995679 -0.0642189 -2.70264e-19)
(1.05072 -0.0586409 -2.73794e-19)
(1.10563 -0.0477505 2.75791e-19)
(1.14837 -0.0252782 2.80592e-19)
(-0.00271676 -0.0257485 -2.05374e-19)
(-0.0107152 -0.00621777 -1.89974e-19)
(-0.020359 0.0128424 -1.14228e-19)
(-0.0307798 0.0295706 -5.25714e-20)
(-0.0420118 0.0445493 0)
(-0.0538698 0.0579328 9.47384e-20)
(-0.0663742 0.0697679 -4.57038e-20)
(-0.0796213 0.0801128 0)
(-0.0937032 0.0890856 -4.32056e-20)
(-0.108681 0.0968622 0)
(-0.124581 0.103649 8.23261e-20)
(-0.141403 0.109653 0)
(-0.15913 0.115056 3.93506e-20)
(-0.177739 0.120008 7.70045e-20)
(-0.197207 0.124626 -7.53825e-20)
(-0.217515 0.128996 0)
(-0.238651 0.133179 -7.23585e-20)
(-0.260606 0.137222 0)
(-0.283379 0.141156 0)
(-0.306971 0.145007 -6.83588e-20)
(-0.331388 0.148792 0)
(-0.356636 0.152528 4.7172e-24)
(-0.38272 0.156228 0)
(-0.409645 0.159905 0)
(-0.437411 0.16357 -4.4019e-24)
(-0.466012 0.167234 -6.20836e-20)
(-0.495431 0.170908 -6.1219e-20)
(-0.525634 0.174596 -6.04051e-20)
(-0.556569 0.178295 0)
(-0.588155 0.181981 -1.17741e-19)
(-0.620287 0.185605 0)
(-0.652841 0.189091 -5.7431e-20)
(-0.685667 0.192359 0)
(-0.718585 0.195326 0)
(-0.751404 0.197845 5.53033e-20)
(-0.784021 0.199712 0)
(-0.816416 0.200913 -5.38353e-20)
(-0.848549 0.201585 -1.0177e-23)
(-0.880366 0.20175 1.04688e-19)
(-0.911859 0.201404 -1.03191e-19)
(-0.943116 0.200575 0)
(-0.974251 0.19939 0)
(-1.00518 0.198041 -4.9437e-20)
(-1.03582 0.196352 0)
(-1.06636 0.194147 -4.80981e-20)
(-1.09696 0.191817 4.74437e-20)
(-1.12749 0.189612 4.68034e-20)
(-1.15786 0.187453 0)
(-1.18807 0.185299 -4.55783e-20)
(-1.21812 0.183122 -4.49924e-20)
(-1.24804 0.180904 8.87853e-20)
(-1.27782 0.178639 -4.38698e-20)
(-1.30747 0.176321 -4.33314e-20)
(-1.33699 0.173951 0)
(-1.36637 0.171527 0)