/*--------------------------------*- C++ -*----------------------------------*\
  =========                 |
  \\      /  F ield         | OpenFOAM: The Open Source CFD Toolbox
   \\    /   O peration     | Website:  https://openfoam.org
    \\  /    A nd           | Version:  12
     \\/     M anipulation  |
\*---------------------------------------------------------------------------*/
FoamFile
{
    format      ascii;
    class       volVectorField;
    location    "2.72";
    object      U;
}
// * * * * * * * * * * * * * * * * * * * * * * * * * * * * * * * * * * * * * //

dimensions      [0 1 -1 0 0 0 0];

internalField   nonuniform List<vector> 
3829
(
(8.62639e-07 -1.0534e-05 0)
(2.59071e-06 -1.0529e-05 0)
(4.36168e-06 -1.06821e-05 0)
(6.20292e-06 -1.09115e-05 0)
(8.14927e-06 -1.12148e-05 0)
(1.02224e-05 -1.15891e-05 0)
(1.24486e-05 -1.20271e-05 0)
(1.48435e-05 -1.25257e-05 0)
(1.74108e-05 -1.30624e-05 0)
(2.01878e-05 -1.3641e-05 0)
(2.31783e-05 -1.42374e-05 0)
(2.63811e-05 -1.48405e-05 0)
(2.98236e-05 -1.54357e-05 0)
(3.35015e-05 -1.60051e-05 0)
(3.73881e-05 -1.65281e-05 0)
(4.14905e-05 -1.69907e-05 0)
(4.5798e-05 -1.73746e-05 0)
(5.02661e-05 -1.766e-05 0)
(5.4883e-05 -1.78317e-05 0)
(5.96135e-05 -1.78766e-05 0)
(6.44115e-05 -1.7781e-05 0)
(6.9237e-05 -1.75325e-05 0)
(7.40415e-05 -1.71245e-05 0)
(7.87725e-05 -1.6551e-05 0)
(8.33784e-05 -1.58102e-05 0)
(8.78022e-05 -1.49025e-05 0)
(9.19859e-05 -1.38323e-05 0)
(9.58778e-05 -1.26112e-05 0)
(9.94226e-05 -1.12418e-05 0)
(0.000102565 -9.74153e-06 0)
(0.000105261 -8.12617e-06 0)
(0.000107463 -6.41443e-06 0)
(0.000109136 -4.62576e-06 0)
(0.000110235 -2.7816e-06 0)
(0.000110735 -9.0538e-07 0)
(0.000110632 9.78965e-07 0)
(0.000109934 2.85029e-06 0)
(0.000108593 4.68488e-06 0)
(0.00010662 6.46872e-06 0)
(0.000104071 8.17031e-06 0)
(0.00010092 9.77579e-06 0)
(9.72282e-05 1.12661e-05 0)
(9.29937e-05 1.26213e-05 0)
(8.82561e-05 1.38349e-05 0)
(8.31026e-05 1.48887e-05 0)
(7.75475e-05 1.5773e-05 0)
(7.16585e-05 1.648e-05 0)
(6.54943e-05 1.70042e-05 0)
(5.9119e-05 1.73413e-05 0)
(5.25989e-05 1.74903e-05 0)
(4.60014e-05 1.7451e-05 0)
(3.93984e-05 1.72274e-05 0)
(3.28595e-05 1.68201e-05 0)
(2.64555e-05 1.62444e-05 0)
(2.02632e-05 1.54994e-05 0)
(1.43329e-05 1.46023e-05 0)
(8.7324e-06 1.3566e-05 0)
(3.54776e-06 1.24021e-05 0)
(-1.18359e-06 1.11253e-05 0)
(-5.40871e-06 9.7521e-06 0)
(-9.07039e-06 8.30853e-06 0)
(-1.20984e-05 6.80044e-06 0)
(-1.45451e-05 5.24089e-06 0)
(-1.63805e-05 3.66905e-06 0)
(-1.75002e-05 2.09678e-06 0)
(-1.78734e-05 5.57179e-07 0)
(-1.76079e-05 -9.78025e-07 0)
(-1.66499e-05 -2.43052e-06 0)
(-1.50374e-05 -3.83454e-06 0)
(-1.28207e-05 -5.12448e-06 0)
(-9.99256e-06 -6.33244e-06 0)
(-6.62664e-06 -7.39488e-06 0)
(-2.78563e-06 -8.33889e-06 0)
(1.51109e-06 -9.12624e-06 0)
(6.2803e-06 -9.77694e-06 0)
(1.13197e-05 -1.0258e-05 0)
(1.65778e-05 -1.05694e-05 0)
(2.19963e-05 -1.07108e-05 0)
(2.74954e-05 -1.0685e-05 0)
(3.29671e-05 -1.0494e-05 0)
(3.83421e-05 -1.01438e-05 0)
(4.35325e-05 -9.64149e-06 0)
(4.84737e-05 -8.99606e-06 0)
(5.30614e-05 -8.22709e-06 0)
(5.72131e-05 -7.33863e-06 0)
(6.09181e-05 -6.35307e-06 0)
(6.4072e-05 -5.28844e-06 0)
(6.66302e-05 -4.15461e-06 0)
(6.85699e-05 -2.98233e-06 0)
(6.98549e-05 -1.78555e-06 0)
(7.04594e-05 -5.86373e-07 0)
(7.0343e-05 5.94844e-07 0)
(6.95013e-05 1.7442e-06 0)
(6.79696e-05 2.84704e-06 0)
(6.57801e-05 3.88841e-06 0)
(6.29648e-05 4.85313e-06 0)
(5.9557e-05 5.72622e-06 0)
(5.56104e-05 6.50034e-06 0)
(5.11717e-05 7.16383e-06 0)
(4.63101e-05 7.71272e-06 0)
(4.1093e-05 8.14155e-06 0)
(3.55854e-05 8.45145e-06 0)
(2.98501e-05 8.63983e-06 0)
(2.39918e-05 8.71749e-06 0)
(1.80822e-05 8.67003e-06 0)
(1.21568e-05 8.52328e-06 0)
(6.32958e-06 8.27951e-06 0)
(6.6341e-07 7.94087e-06 0)
(-4.79472e-06 7.52307e-06 0)
(-9.9817e-06 7.03608e-06 0)
(-1.48506e-05 6.48476e-06 0)
(-1.93469e-05 5.8881e-06 0)
(-2.34328e-05 5.2521e-06 0)
(-2.70637e-05 4.59263e-06 0)
(-3.02373e-05 3.91033e-06 0)
(-3.29319e-05 3.22961e-06 0)
(-3.5112e-05 2.55101e-06 0)
(-3.67887e-05 1.88417e-06 0)
(-3.79719e-05 1.23593e-06 0)
(-3.86675e-05 6.23799e-07 0)
(-3.88832e-05 3.67096e-08 0)
(-3.8639e-05 -5.01912e-07 0)
(-3.79667e-05 -1.00723e-06 0)
(-3.68914e-05 -1.46119e-06 0)
(-3.54396e-05 -1.86806e-06 0)
(-3.36487e-05 -2.22062e-06 0)
(-3.15521e-05 -2.52588e-06 0)
(-2.91933e-05 -2.77869e-06 0)
(-2.65979e-05 -2.98176e-06 0)
(-2.38275e-05 -3.13927e-06 0)
(-2.09166e-05 -3.24398e-06 0)
(-1.78826e-05 -3.3051e-06 0)
(-1.47847e-05 -3.3271e-06 0)
(-1.16522e-05 -3.30399e-06 0)
(-8.52349e-06 -3.25202e-06 0)
(-5.43817e-06 -3.16157e-06 0)
(-2.4097e-06 -3.04417e-06 0)
(5.19582e-07 -2.90309e-06 0)
(3.3223e-06 -2.73883e-06 0)
(5.98992e-06 -2.55578e-06 0)
(8.49435e-06 -2.36007e-06 0)
(1.08163e-05 -2.15219e-06 0)
(1.29438e-05 -1.93574e-06 0)
(1.48637e-05 -1.7142e-06 0)
(1.65679e-05 -1.49084e-06 0)
(1.80491e-05 -1.26901e-06 0)
(1.93048e-05 -1.04871e-06 0)
(2.03366e-05 -8.33159e-07 0)
(2.11436e-05 -6.25595e-07 0)
(2.17236e-05 -4.27771e-07 0)
(2.20921e-05 -2.38012e-07 0)
(2.22552e-05 -6.0908e-08 0)
(2.22171e-05 1.03656e-07 0)
(2.19954e-05 2.56041e-07 0)
(2.15965e-05 3.93329e-07 0)
(2.10364e-05 5.17137e-07 0)
(2.03288e-05 6.25303e-07 0)
(1.94859e-05 7.19516e-07 0)
(1.85268e-05 7.98504e-07 0)
(1.74624e-05 8.63838e-07 0)
(1.63117e-05 9.1584e-07 0)
(1.5092e-05 9.53903e-07 0)
(1.38143e-05 9.80035e-07 0)
(1.24949e-05 9.94237e-07 0)
(1.11491e-05 9.97323e-07 0)
(9.79128e-06 9.9008e-07 0)
(8.43444e-06 9.73294e-07 0)
(7.09103e-06 9.48212e-07 0)
(5.77218e-06 9.15714e-07 0)
(4.4883e-06 8.76162e-07 0)
(3.25466e-06 8.30847e-07 0)
(2.07772e-06 7.79957e-07 0)
(9.58857e-07 7.25437e-07 0)
(-8.10983e-08 6.6801e-07 0)
(-1.03971e-06 6.07906e-07 0)
(-1.92235e-06 5.45884e-07 0)
(-2.71895e-06 4.83232e-07 0)
(-3.4267e-06 4.20638e-07 0)
(-4.04409e-06 3.59024e-07 0)
(-4.57066e-06 2.98944e-07 0)
(-5.00713e-06 2.40817e-07 0)
(-5.35523e-06 1.85336e-07 0)
(-5.61739e-06 1.32755e-07 0)
(-5.79669e-06 8.32807e-08 0)
(-5.89644e-06 3.6977e-08 0)
(-5.92048e-06 -6.53258e-09 0)
(-5.87235e-06 -4.70464e-08 0)
(-5.75509e-06 -8.47184e-08 0)
(-5.57188e-06 -1.19702e-07 0)
(-5.32596e-06 -1.52051e-07 0)
(-5.02069e-06 -1.81745e-07 0)
(-4.65964e-06 -2.08668e-07 0)
(-4.24688e-06 -2.32679e-07 0)
(-3.78687e-06 -2.53662e-07 0)
(-3.28429e-06 -2.71522e-07 0)
(-2.74434e-06 -2.86198e-07 0)
(-2.1725e-06 -2.97742e-07 0)
(-1.57432e-06 -3.06257e-07 0)
(-9.55129e-07 -3.11807e-07 0)
(-3.20471e-07 -3.145e-07 0)
(1.70378e-07 -2.29022e-05 0)
(5.00522e-07 -2.29907e-05 0)
(9.04888e-07 -2.36604e-05 0)
(1.44298e-06 -2.46645e-05 0)
(2.16511e-06 -2.59964e-05 0)
(3.13097e-06 -2.76453e-05 0)
(4.36567e-06 -2.95734e-05 0)
(6.01046e-06 -3.17654e-05 0)
(8.00491e-06 -3.41686e-05 0)
(1.0391e-05 -3.67342e-05 0)
(1.3292e-05 -3.94106e-05 0)
(1.66172e-05 -4.21189e-05 0)
(2.04422e-05 -4.48112e-05 0)
(2.48024e-05 -4.74074e-05 0)
(2.96283e-05 -4.98313e-05 0)
(3.49002e-05 -5.2028e-05 0)
(4.06443e-05 -5.39089e-05 0)
(4.67827e-05 -5.54128e-05 0)
(5.32456e-05 -5.64767e-05 0)
(5.99792e-05 -5.70482e-05 0)
(6.69248e-05 -5.70808e-05 0)
(7.39871e-05 -5.65391e-05 0)
(8.10674e-05 -5.53973e-05 0)
(8.80764e-05 -5.36412e-05 0)
(9.49171e-05 -5.12741e-05 0)
(0.000101489 -4.82969e-05 0)
(0.000107661 -4.47386e-05 0)
(0.000113398 -4.06364e-05 0)
(0.000118609 -3.60355e-05 0)
(0.000123158 -3.09926e-05 0)
(0.000126999 -2.55505e-05 0)
(0.000130072 -1.98235e-05 0)
(0.000132331 -1.38589e-05 0)
(0.000133717 -7.74144e-06 0)
(0.000134198 -1.54874e-06 0)
(0.000133795 4.63751e-06 0)
(0.000132528 1.07548e-05 0)
(0.000130401 1.66928e-05 0)
(0.000127385 2.24047e-05 0)
(0.000123548 2.78219e-05 0)
(0.000118943 3.28826e-05 0)
(0.000113605 3.75347e-05 0)
(0.000107607 4.17255e-05 0)
(0.000101007 4.54216e-05 0)
(9.38767e-05 4.8583e-05 0)
(8.62926e-05 5.11839e-05 0)
(7.83469e-05 5.32048e-05 0)
(7.01198e-05 5.4631e-05 0)
(6.16996e-05 5.54581e-05 0)
(5.3175e-05 5.56833e-05 0)
(4.46386e-05 5.53187e-05 0)
(3.61644e-05 5.43719e-05 0)
(2.78777e-05 5.28709e-05 0)
(1.98394e-05 5.08365e-05 0)
(1.21321e-05 4.8296e-05 0)
(4.86907e-06 4.52936e-05 0)
(-1.91474e-06 4.18664e-05 0)
(-8.12761e-06 3.80783e-05 0)
(-1.37142e-05 3.39489e-05 0)
(-1.85745e-05 2.95383e-05 0)
(-2.27073e-05 2.49131e-05 0)
(-2.61082e-05 2.01199e-05 0)
(-2.86828e-05 1.52078e-05 0)
(-3.04135e-05 1.02722e-05 0)
(-3.12304e-05 5.34989e-06 0)
(-3.12826e-05 5.13467e-07 0)
(-3.0488e-05 -4.19471e-06 0)
(-2.88213e-05 -8.72413e-06 0)
(-2.63868e-05 -1.30081e-05 0)
(-2.32229e-05 -1.69809e-05 0)
(-1.93395e-05 -2.06229e-05 0)
(-1.47918e-05 -2.38605e-05 0)
(-9.75212e-06 -2.66844e-05 0)
(-4.20843e-06 -2.9019e-05 0)
(1.82966e-06 -3.08838e-05 0)
(8.23785e-06 -3.22452e-05 0)
(1.48358e-05 -3.3078e-05 0)
(2.15541e-05 -3.33854e-05 0)
(2.83053e-05 -3.31787e-05 0)
(3.49709e-05 -3.2462e-05 0)
(4.14636e-05 -3.12632e-05 0)
(4.7688e-05 -2.96003e-05 0)
(5.35371e-05 -2.75152e-05 0)
(5.89273e-05 -2.50485e-05 0)
(6.37695e-05 -2.22385e-05 0)
(6.80083e-05 -1.9142e-05 0)
(7.15883e-05 -1.58125e-05 0)
(7.44248e-05 -1.23105e-05 0)
(7.64851e-05 -8.69094e-06 0)
(7.77678e-05 -5.01944e-06 0)
(7.82304e-05 -1.34872e-06 0)
(7.78641e-05 2.24264e-06 0)
(7.66862e-05 5.72503e-06 0)
(7.47311e-05 9.05013e-06 0)
(7.20335e-05 1.21671e-05 0)
(6.8628e-05 1.50359e-05 0)
(6.45746e-05 1.76182e-05 0)
(5.99394e-05 1.98845e-05 0)
(5.47802e-05 2.18075e-05 0)
(4.91866e-05 2.33832e-05 0)
(4.32414e-05 2.45925e-05 0)
(3.70179e-05 2.54373e-05 0)
(3.06059e-05 2.5919e-05 0)
(2.40766e-05 2.60572e-05 0)
(1.75425e-05 2.58528e-05 0)
(1.10844e-05 2.53348e-05 0)
(4.74879e-06 2.45279e-05 0)
(-1.36615e-06 2.34575e-05 0)
(-7.19433e-06 2.21527e-05 0)
(-1.27035e-05 2.06452e-05 0)
(-1.78255e-05 1.89679e-05 0)
(-2.25044e-05 1.71589e-05 0)
(-2.67131e-05 1.52452e-05 0)
(-3.04222e-05 1.32639e-05 0)
(-3.36102e-05 1.12419e-05 0)
(-3.62565e-05 9.22122e-06 0)
(-3.83646e-05 7.21411e-06 0)
(-3.99316e-05 5.25286e-06 0)
(-4.09498e-05 3.35825e-06 0)
(-4.14679e-05 1.55276e-06 0)
(-4.1482e-05 -1.48625e-07 0)
(-4.10212e-05 -1.7293e-06 0)
(-4.01307e-05 -3.18665e-06 0)
(-3.88108e-05 -4.49681e-06 0)
(-3.71136e-05 -5.66518e-06 0)
(-3.5082e-05 -6.68267e-06 0)
(-3.27542e-05 -7.55083e-06 0)
(-3.0164e-05 -8.26755e-06 0)
(-2.73568e-05 -8.8344e-06 0)
(-2.43732e-05 -9.26268e-06 0)
(-2.12577e-05 -9.55116e-06 0)
(-1.80516e-05 -9.71143e-06 0)
(-1.47827e-05 -9.74904e-06 0)
(-1.15032e-05 -9.67283e-06 0)
(-8.24409e-06 -9.49609e-06 0)
(-5.03492e-06 -9.22031e-06 0)
(-1.91397e-06 -8.86356e-06 0)
(1.09842e-06 -8.43987e-06 0)
(3.97315e-06 -7.95158e-06 0)
(6.69157e-06 -7.4118e-06 0)
(9.23337e-06 -6.83175e-06 0)
(1.15843e-05 -6.21926e-06 0)
(1.37274e-05 -5.58569e-06 0)
(1.56505e-05 -4.93937e-06 0)
(1.73461e-05 -4.2874e-06 0)
(1.88131e-05 -3.63912e-06 0)
(2.00492e-05 -2.99743e-06 0)
(2.10509e-05 -2.37263e-06 0)
(2.182e-05 -1.7702e-06 0)
(2.23628e-05 -1.1933e-06 0)
(2.26901e-05 -6.46526e-07 0)
(2.28056e-05 -1.34337e-07 0)
(2.27216e-05 3.4222e-07 0)
(2.24511e-05 7.79498e-07 0)
(2.20024e-05 1.17614e-06 0)
(2.13928e-05 1.52929e-06 0)
(2.06359e-05 1.84187e-06 0)
(1.97456e-05 2.10927e-06 0)
(1.87405e-05 2.3375e-06 0)
(1.76338e-05 2.52326e-06 0)
(1.64415e-05 2.66983e-06 0)
(1.51831e-05 2.77893e-06 0)
(1.38705e-05 2.8516e-06 0)
(1.2518e-05 2.89029e-06 0)
(1.11421e-05 2.8961e-06 0)
(9.75709e-06 2.87306e-06 0)
(8.37643e-06 2.82272e-06 0)
(7.01259e-06 2.74774e-06 0)
(5.67544e-06 2.65195e-06 0)
(4.37587e-06 2.53663e-06 0)
(3.12883e-06 2.40473e-06 0)
(1.94153e-06 2.25523e-06 0)
(8.15955e-07 2.09593e-06 0)
(-2.29343e-07 1.93058e-06 0)
(-1.19193e-06 1.75474e-06 0)
(-2.07594e-06 1.57455e-06 0)
(-2.87146e-06 1.39268e-06 0)
(-3.5762e-06 1.21145e-06 0)
(-4.18888e-06 1.0325e-06 0)
(-4.7097e-06 8.584e-07 0)
(-5.13925e-06 6.90564e-07 0)
(-5.47948e-06 5.3029e-07 0)
(-5.73341e-06 3.78484e-07 0)
(-5.90434e-06 2.35709e-07 0)
(-5.99625e-06 1.01843e-07 0)
(-6.0128e-06 -2.32016e-08 0)
(-5.95729e-06 -1.39673e-07 0)
(-5.83312e-06 -2.48033e-07 0)
(-5.64338e-06 -3.4876e-07 0)
(-5.3911e-06 -4.4199e-07 0)
(-5.07946e-06 -5.27649e-07 0)
(-4.71192e-06 -6.05354e-07 0)
(-4.29255e-06 -6.7465e-07 0)
(-3.82587e-06 -7.35176e-07 0)
(-3.31662e-06 -7.86624e-07 0)
(-2.77013e-06 -8.28851e-07 0)
(-2.19204e-06 -8.61995e-07 0)
(-1.5879e-06 -8.864e-07 0)
(-9.63117e-07 -9.02207e-07 0)
(-3.23107e-07 -9.09859e-07 0)
(-1.92209e-06 -1.66918e-05 0)
(-5.75762e-06 -1.72205e-05 0)
(-9.42847e-06 -1.90943e-05 0)
(-1.28239e-05 -2.18976e-05 0)
(-1.58494e-05 -2.56169e-05 0)
(-1.82458e-05 -3.01857e-05 0)
(-1.99666e-05 -3.55488e-05 0)
(-2.08885e-05 -4.16046e-05 0)
(-2.07784e-05 -4.82665e-05 0)
(-1.96374e-05 -5.53981e-05 0)
(-1.72579e-05 -6.28272e-05 0)
(-1.37056e-05 -7.04074e-05 0)
(-8.97421e-06 -7.79171e-05 0)
(-2.89579e-06 -8.51988e-05 0)
(4.28618e-06 -9.2061e-05 0)
(1.26289e-05 -9.83259e-05 0)
(2.21386e-05 -0.000103799 0)
(3.25591e-05 -0.00010836 0)
(4.37868e-05 -0.000111849 0)
(5.56521e-05 -0.000114131 0)
(6.79766e-05 -0.000115105 0)
(8.05656e-05 -0.000114696 0)
(9.32192e-05 -0.000112855 0)
(0.000105693 -0.000109567 0)
(0.000117836 -0.000104841 0)
(0.000129433 -9.87033e-05 0)
(0.000140208 -9.12712e-05 0)
(0.000150028 -8.2629e-05 0)
(0.000158739 -7.29449e-05 0)
(0.000166315 -6.22751e-05 0)
(0.0001724 -5.09009e-05 0)
(0.00017695 -3.89603e-05 0)
(0.000180133 -2.65896e-05 0)
(0.000181757 -1.40499e-05 0)
(0.000181845 -1.53397e-06 0)
(0.00018051 1.08123e-05 0)
(0.000177637 2.28355e-05 0)
(0.000173295 3.43952e-05 0)
(0.00016774 4.53675e-05 0)
(0.000160972 5.56084e-05 0)
(0.000153081 6.50247e-05 0)
(0.000144191 7.353e-05 0)
(0.000134419 8.10475e-05 0)
(0.000123885 8.75198e-05 0)
(0.000112719 9.29022e-05 0)
(0.000101054 9.71654e-05 0)
(8.90199e-05 0.00010029 0)
(7.67508e-05 0.000102275 0)
(6.43711e-05 0.000103125 0)
(5.20261e-05 0.000102867 0)
(3.983e-05 0.000101518 0)
(2.79207e-05 9.91377e-05 0)
(1.64268e-05 9.57848e-05 0)
(5.40503e-06 9.1487e-05 0)
(-4.97365e-06 8.63331e-05 0)
(-1.4622e-05 8.03808e-05 0)
(-2.34072e-05 7.37234e-05 0)
(-3.13305e-05 6.64305e-05 0)
(-3.83821e-05 5.86069e-05 0)
(-4.43198e-05 5.03402e-05 0)
(-4.91698e-05 4.17524e-05 0)
(-5.29584e-05 3.29352e-05 0)
(-5.55409e-05 2.39913e-05 0)
(-5.69554e-05 1.50508e-05 0)
(-5.72068e-05 6.19623e-06 0)
(-5.62768e-05 -2.48865e-06 0)
(-5.43525e-05 -1.08362e-05 0)
(-5.13066e-05 -1.88234e-05 0)
(-4.71453e-05 -2.62992e-05 0)
(-4.21003e-05 -3.3201e-05 0)
(-3.61474e-05 -3.94319e-05 0)
(-2.94113e-05 -4.49378e-05 0)
(-2.19693e-05 -4.96365e-05 0)
(-1.3939e-05 -5.34741e-05 0)
(-5.46678e-06 -5.64191e-05 0)
(3.40726e-06 -5.8457e-05 0)
(1.24896e-05 -5.95728e-05 0)
(2.15962e-05 -5.97619e-05 0)
(3.06457e-05 -5.90357e-05 0)
(3.94782e-05 -5.74359e-05 0)
(4.79806e-05 -5.49832e-05 0)
(5.60276e-05 -5.17541e-05 0)
(6.34858e-05 -4.78005e-05 0)
(7.0274e-05 -4.32105e-05 0)
(7.62669e-05 -3.80642e-05 0)
(8.14136e-05 -3.24524e-05 0)
(8.56204e-05 -2.64848e-05 0)
(8.8843e-05 -2.02633e-05 0)
(9.10533e-05 -1.38867e-05 0)
(9.22395e-05 -7.46847e-06 0)
(9.23493e-05 -1.1166e-06 0)
(9.14253e-05 5.08297e-06 0)
(8.95612e-05 1.10404e-05 0)
(8.67389e-05 1.66708e-05 0)
(8.3025e-05 2.18982e-05 0)
(7.84938e-05 2.66603e-05 0)
(7.32161e-05 3.08918e-05 0)
(6.72825e-05 3.45575e-05 0)
(6.08115e-05 3.76204e-05 0)
(5.38998e-05 4.00686e-05 0)
(4.66333e-05 4.18828e-05 0)
(3.91305e-05 4.30785e-05 0)
(3.15e-05 4.36612e-05 0)
(2.38397e-05 4.3657e-05 0)
(1.62462e-05 4.31017e-05 0)
(8.81496e-06 4.20263e-05 0)
(1.63864e-06 4.04831e-05 0)
(-5.21006e-06 3.85273e-05 0)
(-1.16724e-05 3.61994e-05 0)
(-1.7685e-05 3.35638e-05 0)
(-2.31901e-05 3.06664e-05 0)
(-2.81519e-05 2.75754e-05 0)
(-3.25412e-05 2.43373e-05 0)
(-3.63212e-05 2.10069e-05 0)
(-3.94816e-05 1.76417e-05 0)
(-4.20358e-05 1.42873e-05 0)
(-4.39798e-05 1.09873e-05 0)
(-4.5309e-05 7.77996e-06 0)
(-4.60543e-05 4.70518e-06 0)
(-4.62406e-05 1.78426e-06 0)
(-4.58903e-05 -9.49851e-07 0)
(-4.50514e-05 -3.48312e-06 0)
(-4.37434e-05 -5.79037e-06 0)
(-4.20057e-05 -7.86539e-06 0)
(-3.98985e-05 -9.69822e-06 0)
(-3.74519e-05 -1.12822e-05 0)
(-3.47134e-05 -1.26222e-05 0)
(-3.17254e-05 -1.37188e-05 0)
(-2.85402e-05 -1.45747e-05 0)
(-2.52114e-05 -1.51964e-05 0)
(-2.17738e-05 -1.56043e-05 0)
(-1.82592e-05 -1.58047e-05 0)
(-1.47168e-05 -1.58121e-05 0)
(-1.11912e-05 -1.56414e-05 0)
(-7.70578e-06 -1.53063e-05 0)
(-4.30586e-06 -1.48334e-05 0)
(-1.02789e-06 -1.42206e-05 0)
(2.1165e-06 -1.35089e-05 0)
(5.10257e-06 -1.26964e-05 0)
(7.90701e-06 -1.18063e-05 0)
(1.05126e-05 -1.08548e-05 0)
(1.29014e-05 -9.85548e-06 0)
(1.50613e-05 -8.82807e-06 0)
(1.69872e-05 -7.78124e-06 0)
(1.86701e-05 -6.73026e-06 0)
(2.01107e-05 -5.68562e-06 0)
(2.13059e-05 -4.65974e-06 0)
(2.22536e-05 -3.66144e-06 0)
(2.29643e-05 -2.70229e-06 0)
(2.34386e-05 -1.784e-06 0)
(2.369e-05 -9.14019e-07 0)
(2.37297e-05 -1.02054e-07 0)
(2.35643e-05 6.50031e-07 0)
(2.32106e-05 1.33993e-06 0)
(2.26766e-05 1.96297e-06 0)
(2.19843e-05 2.51923e-06 0)
(2.1145e-05 3.00687e-06 0)
(2.01753e-05 3.4266e-06 0)
(1.90958e-05 3.77993e-06 0)
(1.79139e-05 4.06785e-06 0)
(1.66547e-05 4.29138e-06 0)
(1.53328e-05 4.45728e-06 0)
(1.39599e-05 4.56502e-06 0)
(1.2552e-05 4.61954e-06 0)
(1.11262e-05 4.62336e-06 0)
(9.69727e-06 4.58088e-06 0)
(8.27637e-06 4.49628e-06 0)
(6.87837e-06 4.3731e-06 0)
(5.5124e-06 4.21579e-06 0)
(4.18769e-06 4.02833e-06 0)
(2.91664e-06 3.81428e-06 0)
(1.71113e-06 3.5761e-06 0)
(5.77763e-07 3.31971e-06 0)
(-4.76897e-07 3.05367e-06 0)
(-1.44789e-06 2.77231e-06 0)
(-2.33273e-06 2.48495e-06 0)
(-3.12581e-06 2.19483e-06 0)
(-3.82562e-06 1.90565e-06 0)
(-4.43063e-06 1.62108e-06 0)
(-4.9408e-06 1.34422e-06 0)
(-5.35827e-06 1.07804e-06 0)
(-5.6854e-06 8.24282e-07 0)
(-5.92551e-06 5.84346e-07 0)
(-6.08273e-06 3.58888e-07 0)
(-6.16111e-06 1.48155e-07 0)
(-6.16458e-06 -4.81456e-08 0)
(-6.09699e-06 -2.30964e-07 0)
(-5.9616e-06 -4.01146e-07 0)
(-5.76125e-06 -5.59619e-07 0)
(-5.49863e-06 -7.0656e-07 0)
(-5.17657e-06 -8.41804e-07 0)
(-4.79831e-06 -9.64567e-07 0)
(-4.36797e-06 -1.07402e-06 0)
(-3.89016e-06 -1.16949e-06 0)
(-3.36976e-06 -1.25052e-06 0)
(-2.81237e-06 -1.31687e-06 0)
(-2.22391e-06 -1.36871e-06 0)
(-1.60989e-06 -1.40672e-06 0)
(-9.75949e-07 -1.43105e-06 0)
(-3.27363e-07 -1.44282e-06 0)
(-6.76226e-06 3.60377e-05 0)
(-2.02837e-05 3.42446e-05 0)
(-3.34235e-05 2.94361e-05 0)
(-4.58944e-05 2.22267e-05 0)
(-5.73115e-05 1.26835e-05 0)
(-6.73308e-05 9.4362e-07 0)
(-7.57239e-05 -1.28068e-05 0)
(-8.21807e-05 -2.83194e-05 0)
(-8.6543e-05 -4.5266e-05 0)
(-8.82704e-05 -6.33673e-05 0)
(-8.72411e-05 -8.21018e-05 0)
(-8.32975e-05 -0.000101108 0)
(-7.63775e-05 -0.000119908 0)
(-6.67093e-05 -0.000138044 0)
(-5.43277e-05 -0.000155141 0)
(-3.93046e-05 -0.000170661 0)
(-2.20344e-05 -0.000184276 0)
(-2.88221e-06 -0.000195612 0)
(1.81053e-05 -0.00020435 0)
(4.04633e-05 -0.000210248 0)
(6.37359e-05 -0.000213096 0)
(8.74905e-05 -0.000212768 0)
(0.000111266 -0.000209212 0)
(0.000134617 -0.000202458 0)
(0.000157215 -0.000192624 0)
(0.000178386 -0.000179887 0)
(0.000197697 -0.000164587 0)
(0.000214872 -0.000146961 0)
(0.000230009 -0.000127506 0)
(0.000242453 -0.000106549 0)
(0.000251758 -8.45516e-05 0)
(0.000258679 -6.19521e-05 0)
(0.000262639 -3.91369e-05 0)
(0.000263342 -1.64097e-05 0)
(0.000261405 5.80541e-06 0)
(0.000257113 2.7284e-05 0)
(0.000250547 4.77092e-05 0)
(0.000241902 6.69465e-05 0)
(0.000231207 8.47478e-05 0)
(0.000218702 0.000100989 0)
(0.00020475 0.000115548 0)
(0.00018949 0.00012834 0)
(0.000173153 0.0001393 0)
(0.000155962 0.000148392 0)
(0.000138132 0.000155594 0)
(0.000119861 0.00016091 0)
(0.000101372 0.000164359 0)
(8.28485e-05 0.000165972 0)
(6.44934e-05 0.000165808 0)
(4.64489e-05 0.000163906 0)
(2.89293e-05 0.00016038 0)
(1.21735e-05 0.000155285 0)
(-3.83905e-06 0.000148752 0)
(-1.89505e-05 0.000140847 0)
(-3.29645e-05 0.000131727 0)
(-4.57811e-05 0.000121499 0)
(-5.73307e-05 0.000110289 0)
(-6.7511e-05 9.82649e-05 0)
(-7.62269e-05 8.55508e-05 0)
(-8.3324e-05 7.228e-05 0)
(-8.88233e-05 5.86056e-05 0)
(-9.28206e-05 4.47098e-05 0)
(-9.51053e-05 3.07483e-05 0)
(-9.57644e-05 1.6849e-05 0)
(-9.49177e-05 3.24038e-06 0)
(-9.24256e-05 -9.99371e-06 0)
(-8.84673e-05 -2.26822e-05 0)
(-8.30939e-05 -3.46388e-05 0)
(-7.6286e-05 -4.57489e-05 0)
(-6.82978e-05 -5.59085e-05 0)
(-5.91743e-05 -6.49572e-05 0)
(-4.90524e-05 -7.28361e-05 0)
(-3.81032e-05 -7.94253e-05 0)
(-2.64937e-05 -8.46973e-05 0)
(-1.43842e-05 -8.85528e-05 0)
(-1.94374e-06 -9.10087e-05 0)
(1.06181e-05 -9.20464e-05 0)
(2.314e-05 -9.16865e-05 0)
(3.54027e-05 -8.99464e-05 0)
(4.72617e-05 -8.6904e-05 0)
(5.85355e-05 -8.2621e-05 0)
(6.90483e-05 -7.72151e-05 0)
(7.86737e-05 -7.07645e-05 0)
(8.72637e-05 -6.34211e-05 0)
(9.47323e-05 -5.53127e-05 0)
(0.000100964 -4.65938e-05 0)
(0.000105894 -3.74185e-05 0)
(0.000109487 -2.79513e-05 0)
(0.000111696 -1.83503e-05 0)
(0.000112519 -8.77688e-06 0)
(0.000112 6.25752e-07 0)
(0.000110203 9.71653e-06 0)
(0.00010717 1.8374e-05 0)
(0.000102975 2.64575e-05 0)
(9.77299e-05 3.38787e-05 0)
(9.1508e-05 4.05341e-05 0)
(8.44448e-05 4.63789e-05 0)
(7.66843e-05 5.13394e-05 0)
(6.83478e-05 5.54019e-05 0)
(5.95725e-05 5.85424e-05 0)
(5.05052e-05 6.0756e-05 0)
(4.12784e-05 6.20647e-05 0)
(3.2005e-05 6.24941e-05 0)
(2.2823e-05 6.20937e-05 0)
(1.38476e-05 6.09291e-05 0)
(5.1904e-06 5.90523e-05 0)
(-3.05162e-06 5.65492e-05 0)
(-1.08166e-05 5.34945e-05 0)
(-1.80284e-05 4.99426e-05 0)
(-2.46474e-05 4.60051e-05 0)
(-3.06088e-05 4.17406e-05 0)
(-3.58654e-05 3.72405e-05 0)
(-4.04242e-05 3.25931e-05 0)
(-4.42422e-05 2.7858e-05 0)
(-4.73234e-05 2.31098e-05 0)
(-4.96835e-05 1.84103e-05 0)
(-5.13468e-05 1.38298e-05 0)
(-5.23237e-05 9.40771e-06 0)
(-5.26454e-05 5.18775e-06 0)
(-5.23735e-05 1.21415e-06 0)
(-5.15247e-05 -2.48417e-06 0)
(-5.01478e-05 -5.88706e-06 0)
(-4.82992e-05 -8.96173e-06 0)
(-4.60125e-05 -1.1711e-05 0)
(-4.33411e-05 -1.41201e-05 0)
(-4.0352e-05 -1.61832e-05 0)
(-3.70964e-05 -1.7903e-05 0)
(-3.36051e-05 -1.9284e-05 0)
(-2.99332e-05 -2.03453e-05 0)
(-2.61509e-05 -2.10956e-05 0)
(-2.22998e-05 -2.15452e-05 0)
(-1.84086e-05 -2.17245e-05 0)
(-1.45196e-05 -2.16465e-05 0)
(-1.06813e-05 -2.13367e-05 0)
(-6.93981e-06 -2.08026e-05 0)
(-3.30051e-06 -2.00928e-05 0)
(1.79113e-07 -1.9211e-05 0)
(3.48077e-06 -1.81903e-05 0)
(6.60449e-06 -1.70456e-05 0)
(9.50607e-06 -1.58051e-05 0)
(1.21815e-05 -1.44891e-05 0)
(1.46125e-05 -1.31171e-05 0)
(1.6791e-05 -1.1706e-05 0)
(1.87139e-05 -1.02794e-05 0)
(2.03717e-05 -8.8527e-06 0)
(2.17685e-05 -7.43762e-06 0)
(2.29056e-05 -6.05589e-06 0)
(2.37817e-05 -4.71333e-06 0)
(2.44095e-05 -3.42248e-06 0)
(2.48009e-05 -2.19546e-06 0)
(2.49569e-05 -1.03974e-06 0)
(2.48898e-05 4.2994e-08 0)
(2.46212e-05 1.04336e-06 0)
(2.4161e-05 1.95474e-06 0)
(2.35205e-05 2.77765e-06 0)
(2.27215e-05 3.5119e-06 0)
(2.17776e-05 4.14858e-06 0)
(2.07073e-05 4.69962e-06 0)
(1.95294e-05 5.1558e-06 0)
(1.82559e-05 5.52667e-06 0)
(1.691e-05 5.81539e-06 0)
(1.55088e-05 6.02052e-06 0)
(1.40617e-05 6.15244e-06 0)
(1.25864e-05 6.2135e-06 0)
(1.10985e-05 6.20976e-06 0)
(9.61379e-06 6.14483e-06 0)
(8.14426e-06 6.02367e-06 0)
(6.7026e-06 5.85216e-06 0)
(5.29873e-06 5.63416e-06 0)
(3.94211e-06 5.37675e-06 0)
(2.64557e-06 5.08332e-06 0)
(1.41895e-06 4.76335e-06 0)
(2.7049e-07 4.41635e-06 0)
(-7.94367e-07 4.0542e-06 0)
(-1.77246e-06 3.67628e-06 0)
(-2.65865e-06 3.29006e-06 0)
(-3.44927e-06 2.90055e-06 0)
(-4.14193e-06 2.51273e-06 0)
(-4.73616e-06 2.13224e-06 0)
(-5.23299e-06 1.76245e-06 0)
(-5.63455e-06 1.40749e-06 0)
(-5.94441e-06 1.07017e-06 0)
(-6.1667e-06 7.52048e-07 0)
(-6.30582e-06 4.53677e-07 0)
(-6.36661e-06 1.76001e-07 0)
(-6.35379e-06 -8.23901e-08 0)
(-6.27114e-06 -3.22887e-07 0)
(-6.12195e-06 -5.46841e-07 0)
(-5.90868e-06 -7.5592e-07 0)
(-5.63341e-06 -9.50235e-07 0)
(-5.29847e-06 -1.12956e-06 0)
(-4.90678e-06 -1.29246e-06 0)
(-4.46257e-06 -1.43765e-06 0)
(-3.97065e-06 -1.56405e-06 0)
(-3.43615e-06 -1.67103e-06 0)
(-2.86493e-06 -1.75839e-06 0)
(-2.26334e-06 -1.8262e-06 0)
(-1.63685e-06 -1.87554e-06 0)
(-9.91524e-07 -1.90666e-06 0)
(-3.32521e-07 -1.92159e-06 0)
(-1.77305e-05 0.000176515 0)
(-5.30675e-05 0.000171899 0)
(-8.76039e-05 0.000161063 0)
(-0.000120579 0.000144799 0)
(-0.000151184 0.000123286 0)
(-0.000178485 9.68192e-05 0)
(-0.00020183 6.58728e-05 0)
(-0.00022033 3.1078e-05 0)
(-0.000233696 -6.71486e-06 0)
(-0.000240887 -4.65807e-05 0)
(-0.000241403 -8.7573e-05 0)
(-0.000235705 -0.000128694 0)
(-0.000223405 -0.000168974 0)
(-0.000205131 -0.000207544 0)
(-0.000180821 -0.000243474 0)
(-0.000150853 -0.000275998 0)
(-0.000116303 -0.000304357 0)
(-7.76015e-05 -0.000327883 0)
(-3.5655e-05 -0.000346064 0)
(8.67925e-06 -0.000358437 0)
(5.45367e-05 -0.000364654 0)
(0.000100842 -0.000364518 0)
(0.000146575 -0.000357973 0)
(0.000190638 -0.000345143 0)
(0.000232183 -0.00032639 0)
(0.000269945 -0.000302083 0)
(0.00030342 -0.000272974 0)
(0.000331841 -0.000239756 0)
(0.000354781 -0.000203416 0)
(0.000372445 -0.000164977 0)
(0.000384102 -0.000125394 0)
(0.000390275 -8.56562e-05 0)
(0.000391775 -4.64929e-05 0)
(0.000388347 -8.66807e-06 0)
(0.000380519 2.75174e-05 0)
(0.000368997 6.16037e-05 0)
(0.000354139 9.33217e-05 0)
(0.00033638 0.000122306 0)
(0.000316042 0.000148401 0)
(0.000293723 0.000171555 0)
(0.000269731 0.000191657 0)
(0.000244437 0.000208672 0)
(0.000218188 0.00022264 0)
(0.000191289 0.000233584 0)
(0.000164034 0.00024159 0)
(0.000136721 0.00024672 0)
(0.000109581 0.000249113 0)
(8.28895e-05 0.000248795 0)
(5.67907e-05 0.000245989 0)
(3.16182e-05 0.000240779 0)
(7.5306e-06 0.000233416 0)
(-1.52974e-05 0.000223969 0)
(-3.67334e-05 0.00021262 0)
(-5.66506e-05 0.000199512 0)
(-7.47545e-05 0.000184823 0)
(-9.11132e-05 0.000168737 0)
(-0.000105427 0.000151453 0)
(-0.000117714 0.000133166 0)
(-0.000128108 0.000114089 0)
(-0.000136312 9.4448e-05 0)
(-0.000142237 7.44215e-05 0)
(-0.000145945 5.42548e-05 0)
(-0.000147492 3.41675e-05 0)
(-0.00014673 1.43432e-05 0)
(-0.000143837 -4.98131e-06 0)
(-0.000138993 -2.35188e-05 0)
(-0.000132102 -4.11964e-05 0)
(-0.000123265 -5.76791e-05 0)
(-0.000112762 -7.28872e-05 0)
(-0.000100704 -8.65909e-05 0)
(-8.72218e-05 -9.86677e-05 0)
(-7.25907e-05 -0.000108973 0)
(-5.69943e-05 -0.000117415 0)
(-4.06189e-05 -0.000123914 0)
(-2.37473e-05 -0.000128417 0)
(-6.66125e-06 -0.000130909 0)
(1.04422e-05 -0.000131404 0)
(2.72881e-05 -0.000129941 0)
(4.36379e-05 -0.000126582 0)
(5.92291e-05 -0.000121423 0)
(7.38539e-05 -0.000114585 0)
(8.73595e-05 -0.000106215 0)
(9.95498e-05 -9.65012e-05 0)
(0.000110232 -8.56351e-05 0)
(0.000119302 -7.38254e-05 0)
(0.000126668 -6.12844e-05 0)
(0.000132246 -4.82341e-05 0)
(0.000136006 -3.49203e-05 0)
(0.000137949 -2.15443e-05 0)
(0.000138126 -8.36074e-06 0)
(0.000136568 4.49832e-06 0)
(0.000133392 1.67782e-05 0)
(0.000128705 2.83298e-05 0)
(0.000122588 3.90079e-05 0)
(0.000115216 4.86426e-05 0)
(0.000106765 5.71965e-05 0)
(9.73882e-05 6.45657e-05 0)
(8.72529e-05 7.06863e-05 0)
(7.65846e-05 7.55378e-05 0)
(6.55071e-05 7.9124e-05 0)
(5.42062e-05 8.1479e-05 0)
(4.28587e-05 8.26149e-05 0)
(3.16238e-05 8.26057e-05 0)
(2.06758e-05 8.15083e-05 0)
(1.01092e-05 7.94403e-05 0)
(5.02772e-08 7.65067e-05 0)
(-9.37427e-06 7.27756e-05 0)
(-1.81627e-05 6.8371e-05 0)
(-2.61971e-05 6.33851e-05 0)
(-3.34184e-05 5.79451e-05 0)
(-3.98175e-05 5.2166e-05 0)
(-4.53141e-05 4.6138e-05 0)
(-4.99495e-05 3.99745e-05 0)
(-5.37208e-05 3.3768e-05 0)
(-5.66224e-05 2.76062e-05 0)
(-5.86818e-05 2.15599e-05 0)
(-5.99458e-05 1.56933e-05 0)
(-6.04635e-05 1.00864e-05 0)
(-6.02603e-05 4.77364e-06 0)
(-5.93926e-05 -1.93627e-07 0)
(-5.79266e-05 -4.78977e-06 0)
(-5.59073e-05 -8.96986e-06 0)
(-5.33949e-05 -1.27433e-05 0)
(-5.04579e-05 -1.60588e-05 0)
(-4.71438e-05 -1.89513e-05 0)
(-4.35131e-05 -2.14025e-05 0)
(-3.96288e-05 -2.34158e-05 0)
(-3.55558e-05 -2.50035e-05 0)
(-3.13511e-05 -2.6182e-05 0)
(-2.70556e-05 -2.69861e-05 0)
(-2.27348e-05 -2.74203e-05 0)
(-1.84216e-05 -2.75093e-05 0)
(-1.41549e-05 -2.72936e-05 0)
(-9.97045e-06 -2.67923e-05 0)
(-5.92324e-06 -2.60345e-05 0)
(-2.04646e-06 -2.50443e-05 0)
(1.64465e-06 -2.38762e-05 0)
(5.12433e-06 -2.25323e-05 0)
(8.37969e-06 -2.10476e-05 0)
(1.13801e-05 -1.94525e-05 0)
(1.41235e-05 -1.77704e-05 0)
(1.65975e-05 -1.60328e-05 0)
(1.8787e-05 -1.42568e-05 0)
(2.06915e-05 -1.24656e-05 0)
(2.23174e-05 -1.06812e-05 0)
(2.36592e-05 -8.92406e-06 0)
(2.47231e-05 -7.20614e-06 0)
(2.55189e-05 -5.54649e-06 0)
(2.60506e-05 -3.95398e-06 0)
(2.6327e-05 -2.44156e-06 0)
(2.63726e-05 -1.02242e-06 0)
(2.61967e-05 2.99429e-07 0)
(2.58029e-05 1.51922e-06 0)
(2.52185e-05 2.62839e-06 0)
(2.44587e-05 3.62662e-06 0)
(2.35357e-05 4.50947e-06 0)
(2.24737e-05 5.27913e-06 0)
(2.12894e-05 5.93345e-06 0)
(2.00004e-05 6.47995e-06 0)
(1.86271e-05 6.91509e-06 0)
(1.7183e-05 7.25271e-06 0)
(1.56897e-05 7.49002e-06 0)
(1.41623e-05 7.63392e-06 0)
(1.26121e-05 7.69401e-06 0)
(1.10571e-05 7.67465e-06 0)
(9.51067e-06 7.58198e-06 0)
(7.98582e-06 7.42162e-06 0)
(6.49579e-06 7.20006e-06 0)
(5.05056e-06 6.92304e-06 0)
(3.6586e-06 6.59686e-06 0)
(2.33409e-06 6.23145e-06 0)
(1.08488e-06 5.82939e-06 0)
(-8.05226e-08 5.39948e-06 0)
(-1.15603e-06 4.94807e-06 0)
(-2.14114e-06 4.4797e-06 0)
(-3.02847e-06 4.00149e-06 0)
(-3.81506e-06 3.52027e-06 0)
(-4.49906e-06 3.04222e-06 0)
(-5.08073e-06 2.57345e-06 0)
(-5.56165e-06 2.11928e-06 0)
(-5.94452e-06 1.68447e-06 0)
(-6.23414e-06 1.27203e-06 0)
(-6.43577e-06 8.84629e-07 0)
(-6.55407e-06 5.23172e-07 0)
(-6.59472e-06 1.86722e-07 0)
(-6.56348e-06 -1.25372e-07 0)
(-6.4641e-06 -4.15678e-07 0)
(-6.29991e-06 -6.86074e-07 0)
(-6.07275e-06 -9.39427e-07 0)
(-5.78383e-06 -1.1756e-06 0)
(-5.4348e-06 -1.39434e-06 0)
(-5.02812e-06 -1.59317e-06 0)
(-4.56826e-06 -1.77029e-06 0)
(-4.06034e-06 -1.924e-06 0)
(-3.50989e-06 -2.05372e-06 0)
(-2.92302e-06 -2.15935e-06 0)
(-2.30655e-06 -2.2406e-06 0)
(-1.66608e-06 -2.29905e-06 0)
(-1.00818e-06 -2.33542e-06 0)
(-3.37991e-07 -2.35241e-06 0)
(-3.84857e-05 0.000458705 0)
(-0.000115151 0.000447996 0)
(-0.000190255 0.00042437 0)
(-0.00026208 0.000388912 0)
(-0.00032879 0.000342004 0)
(-0.000388504 0.000284349 0)
(-0.000439326 0.000217007 0)
(-0.000479131 0.000141466 0)
(-0.000506483 5.95167e-05 0)
(-0.000520632 -2.67858e-05 0)
(-0.000521413 -0.000115748 0)
(-0.00050895 -0.000205026 0)
(-0.0004841 -0.00029186 0)
(-0.000447667 -0.000373765 0)
(-0.000400458 -0.00044855 0)
(-0.000343675 -0.000514504 0)
(-0.000278503 -0.000570227 0)
(-0.000206679 -0.000614613 0)
(-0.000129476 -0.000646965 0)
(-4.82877e-05 -0.000666583 0)