/*--------------------------------*- C++ -*----------------------------------*\
  =========                 |
  \\      /  F ield         | OpenFOAM: The Open Source CFD Toolbox
   \\    /   O peration     | Website:  https://openfoam.org
    \\  /    A nd           | Version:  12
     \\/     M anipulation  |
\*---------------------------------------------------------------------------*/
FoamFile
{
    format      ascii;
    class       volVectorField;
    location    "2.72";
    object      zeta;
}
// * * * * * * * * * * * * * * * * * * * * * * * * * * * * * * * * * * * * * //

dimensions      [0 1 0 0 0 0 0];

internalField   uniform (0 0 0);

boundaryField
{
    freeSurface
    {
        type            calculated;
        value           nonuniform List<vector> 
181
(
(0 0.000240539 0)
(0 0.000240818 0)
(0 0.000240829 0)
(0 0.00024085 0)
(0 0.000240834 0)
(0 0.000240841 0)
(0 0.000240832 0)
(0 0.000240918 0)
(0 0.000182161 0)
(0 0.000177676 0)
(0 0.000173636 0)
(0 0.000167743 0)
(0 0.000158671 0)
(0 0.000148104 0)
(0 0.000135416 0)
(0 0.00012084 0)
(0 0.000104565 0)
(0 8.67489e-05 0)
(0 6.75324e-05 0)
(0 4.71165e-05 0)
(0 2.56702e-05 0)
(0 3.36166e-06 0)
(0 -1.95774e-05 0)
(0 -4.29249e-05 0)
(0 -6.64466e-05 0)
(0 -8.99015e-05 0)
(0 -0.000113071 0)
(0 -0.00013572 0)
(0 -0.000157627 0)
(0 -0.000178559 0)
(0 -0.000198294 0)
(0 -0.000216614 0)
(0 -0.000233305 0)
(0 -0.000248175 0)
(0 -0.000261061 0)
(0 -0.000271778 0)
(0 -0.000280174 0)
(0 -0.000286152 0)
(0 -0.000289585 0)
(0 -0.000290397 0)
(0 -0.000288567 0)
(0 -0.000284072 0)
(0 -0.000276933 0)
(0 -0.000267222 0)
(0 -0.000255039 0)
(0 -0.000240504 0)
(0 -0.000223772 0)
(0 -0.000205051 0)
(0 -0.00018455 0)
(0 -0.000162527 0)
(0 -0.000139292 0)
(0 -0.000115146 0)
(0 -9.04219e-05 0)
(0 -6.55073e-05 0)
(0 -4.07538e-05 0)
(0 -1.65459e-05 0)
(0 6.72116e-06 0)
(0 2.86864e-05 0)
(0 4.90132e-05 0)
(0 6.74033e-05 0)
(0 8.35953e-05 0)
(0 9.74167e-05 0)
(0 0.000108709 0)
(0 0.000117397 0)
(0 0.000123487 0)
(0 0.000127028 0)
(0 0.00012814 0)
(0 0.000126967 0)
(0 0.000123712 0)
(0 0.000118595 0)
(0 0.000111865 0)
(0 0.000103787 0)
(0 9.46225e-05 0)
(0 8.46311e-05 0)
(0 7.4062e-05 0)
(0 6.31555e-05 0)
(0 5.21323e-05 0)
(0 4.1199e-05 0)
(0 3.05187e-05 0)
(0 2.02138e-05 0)
(0 1.04196e-05 0)
(0 1.24431e-06 0)
(0 -7.23947e-06 0)
(0 -1.49752e-05 0)
(0 -2.19281e-05 0)
(0 -2.8082e-05 0)
(0 -3.3441e-05 0)
(0 -3.8009e-05 0)
(0 -4.18179e-05 0)
(0 -4.4892e-05 0)
(0 -4.7271e-05 0)
(0 -4.89904e-05 0)
(0 -5.00933e-05 0)
(0 -5.06332e-05 0)
(0 -5.06584e-05 0)
(0 -5.02185e-05 0)
(0 -4.93722e-05 0)
(0 -4.81703e-05 0)
(0 -4.66612e-05 0)
(0 -4.48896e-05 0)
(0 -4.28977e-05 0)
(0 -4.07232e-05 0)
(0 -3.8408e-05 0)
(0 -3.5989e-05 0)
(0 -3.34993e-05 0)
(0 -3.09658e-05 0)
(0 -2.84174e-05 0)
(0 -2.58773e-05 0)
(0 -2.33692e-05 0)
(0 -2.09181e-05 0)
(0 -1.85388e-05 0)
(0 -1.62527e-05 0)
(0 -1.4074e-05 0)
(0 -1.20132e-05 0)
(0 -1.0081e-05 0)
(0 -8.28586e-06 0)
(0 -6.63276e-06 0)
(0 -5.12408e-06 0)
(0 -3.76135e-06 0)
(0 -2.54545e-06 0)
(0 -1.47961e-06 0)
(0 -5.65495e-07 0)
(0 1.99973e-07 0)
(0 8.22502e-07 0)
(0 1.3112e-06 0)
(0 1.67413e-06 0)
(0 1.9173e-06 0)
(0 2.04556e-06 0)
(0 2.06419e-06 0)
(0 1.97907e-06 0)
(0 1.79872e-06 0)
(0 1.53033e-06 0)
(0 1.18217e-06 0)
(0 7.62679e-07 0)
(0 2.80814e-07 0)
(0 -2.53422e-07 0)
(0 -8.3204e-07 0)
(0 -1.44719e-06 0)
(0 -2.0906e-06 0)
(0 -2.75346e-06 0)
(0 -3.42772e-06 0)
(0 -4.10689e-06 0)
(0 -4.78635e-06 0)
(0 -5.46344e-06 0)
(0 -6.13518e-06 0)
(0 -6.79693e-06 0)
(0 -7.44063e-06 0)
(0 -8.05869e-06 0)
(0 -8.6449e-06 0)
(0 -9.19568e-06 0)
(0 -9.70973e-06 0)
(0 -1.01856e-05 0)
(0 -1.06237e-05 0)
(0 -1.10263e-05 0)
(0 -1.13959e-05 0)
(0 -1.17373e-05 0)
(0 -1.20526e-05 0)
(0 -1.2342e-05 0)
(0 -1.26025e-05 0)
(0 -1.28321e-05 0)
(0 -1.30308e-05 0)
(0 -1.32032e-05 0)
(0 -1.33538e-05 0)
(0 -1.34857e-05 0)
(0 -1.35979e-05 0)
(0 -1.36844e-05 0)
(0 -1.37391e-05 0)
(0 -1.37614e-05 0)
(0 -1.37566e-05 0)
(0 -1.37356e-05 0)
(0 -1.37087e-05 0)
(0 -1.36848e-05 0)
(0 -1.3665e-05 0)
(0 -1.36447e-05 0)
(0 -1.36175e-05 0)
(0 -1.35828e-05 0)
(0 -1.3547e-05 0)
(0 -1.35203e-05 0)
(0 -1.35065e-05 0)
(0 -1.35018e-05 0)
(0 -1.35005e-05 0)
)
;
    }
    walls
    {
        type            calculated;
        value           uniform (0 0 0);
    }
    floatingObject
    {
        type            calculated;
        value           uniform (0 0 0);
    }
    frontAndBack
    {
        type            empty;
    }
}


// ************************************************************************* //
