/*--------------------------------*- C++ -*----------------------------------*\
  =========                 |
  \\      /  F ield         | OpenFOAM: The Open Source CFD Toolbox
   \\    /   O peration     | Website:  https://openfoam.org
    \\  /    A nd           | Version:  12
     \\/     M anipulation  |
\*---------------------------------------------------------------------------*/
FoamFile
{
    format      ascii;
    class       volScalarField;
    location    "2600";
    object      epsilon;
}
// * * * * * * * * * * * * * * * * * * * * * * * * * * * * * * * * * * * * * //

dimensions      [0 2 -3 0 0 0 0];

internalField   nonuniform List<scalar> 
80
(
336.754
131.955
75.1911
51.164
38.2469
30.2505
24.8268
20.9068
17.9389
15.6109
13.7332
12.1842
10.8827
9.77218
8.81214
7.97302
7.23269
6.57426
5.98474
5.45395
4.97389
4.53819
4.14178
3.78061
3.45142
3.15159
2.879
2.63194
2.40898
2.20895
2.03081
1.87365
1.73661
1.61889
1.51972
1.43839
1.37423
1.32667
1.29523
1.2796
1.2796
1.29523
1.32667
1.37423
1.43839
1.51972
1.61889
1.73661
1.87365
2.03082
2.20895
2.40899
2.63194
2.879
3.15159
3.45142
3.78062
4.14178
4.53819
4.97389
5.45395
5.98474
6.57426
7.23269
7.97303
8.81214
9.77218
10.8827
12.1842
13.7332
15.6109
17.9389
20.9068
24.8268
30.2505
38.2468
51.164
75.1911
131.955
336.754
)
;

boundaryField
{
    lowerWall
    {
        type            epsilonWallFunction;
        value           uniform 336.754;
    }
    upperWall
    {
        type            epsilonWallFunction;
        value           uniform 336.754;
    }
    front
    {
        type            cyclic;
    }
    back
    {
        type            cyclic;
    }
    defaultFaces
    {
        type            empty;
    }
}


// ************************************************************************* //
