/*--------------------------------*- C++ -*----------------------------------*\
  =========                 |
  \\      /  F ield         | OpenFOAM: The Open Source CFD Toolbox
   \\    /   O peration     | Website:  https://openfoam.org
    \\  /    A nd           | Version:  12
     \\/     M anipulation  |
\*---------------------------------------------------------------------------*/
FoamFile
{
    format      ascii;
    class       volSymmTensorField;
    location    "2600";
    object      R;
}
// * * * * * * * * * * * * * * * * * * * * * * * * * * * * * * * * * * * * * //

dimensions      [0 2 -2 0 0 0 0];

internalField   nonuniform List<symmTensor> 
80
(
(0.433954 -0.598628 -0 0.433954 -0 0.433954)
(0.432683 -0.200034 -0 0.432683 -0 0.432683)
(0.412054 -0.186503 -0 0.412054 -0 0.412054)
(0.39603 -0.179662 -0 0.39603 -0 0.39603)
(0.382366 -0.174049 -0 0.382366 -0 0.382366)
(0.369984 -0.168922 -0 0.369984 -0 0.369984)
(0.358375 -0.164017 -0 0.358375 -0 0.358375)
(0.347278 -0.159229 -0 0.347278 -0 0.347278)
(0.336545 -0.154505 -0 0.336545 -0 0.336545)
(0.326087 -0.14982 -0 0.326087 -0 0.326087)
(0.315846 -0.145159 -0 0.315846 -0 0.315846)
(0.305786 -0.14051 -0 0.305786 -0 0.305786)
(0.29588 -0.135867 -0 0.29588 -0 0.29588)
(0.286112 -0.131224 -0 0.286112 -0 0.286112)
(0.276472 -0.126576 -0 0.276472 -0 0.276472)
(0.266956 -0.121919 -0 0.266956 -0 0.266956)
(0.257561 -0.11725 -0 0.257561 -0 0.257561)
(0.248293 -0.112564 -0 0.248293 -0 0.248293)
(0.239157 -0.10786 -0 0.239157 -0 0.239157)
(0.230165 -0.103134 -0 0.230165 -0 0.230165)
(0.221331 -0.0983847 -0 0.221331 -0 0.221331)
(0.212673 -0.0936092 -0 0.212673 -0 0.212673)
(0.204213 -0.0888059 -0 0.204213 -0 0.204213)
(0.195976 -0.0839735 -0 0.195976 -0 0.195976)
(0.18799 -0.0791108 -0 0.18799 -0 0.18799)
(0.180287 -0.0742169 -0 0.180287 -0 0.180287)
(0.172901 -0.0692913 -0 0.172901 -0 0.172901)
(0.165869 -0.0643335 -0 0.165869 -0 0.165869)
(0.159227 -0.0593437 -0 0.159227 -0 0.159227)
(0.153012 -0.054322 -0 0.153012 -0 0.153012)
(0.147261 -0.049269 -0 0.147261 -0 0.147261)
(0.142006 -0.0441852 -0 0.142006 -0 0.142006)
(0.137278 -0.0390718 -0 0.137278 -0 0.137278)
(0.133102 -0.0339301 -0 0.133102 -0 0.133102)
(0.129496 -0.0287619 -0 0.129496 -0 0.129496)
(0.126477 -0.0235695 -0 0.126477 -0 0.126477)
(0.124054 -0.0183558 -0 0.124054 -0 0.124054)
(0.122234 -0.0131245 -0 0.122234 -0 0.122234)
(0.121019 -0.00788015 -0 0.121019 -0 0.121019)
(0.120411 -0.00262759 -0 0.120411 -0 0.120411)
(0.120411 0.00262772 -0 0.120411 -0 0.120411)
(0.121019 0.00788027 -0 0.121019 -0 0.121019)
(0.122234 0.0131247 -0 0.122234 -0 0.122234)
(0.124054 0.0183559 -0 0.124054 -0 0.124054)
(0.126477 0.0235696 -0 0.126477 -0 0.126477)
(0.129496 0.028762 -0 0.129496 -0 0.129496)
(0.133102 0.0339302 -0 0.133102 -0 0.133102)
(0.137278 0.0390719 -0 0.137278 -0 0.137278)
(0.142006 0.0441853 -0 0.142006 -0 0.142006)
(0.147261 0.049269 -0 0.147261 -0 0.147261)
(0.153012 0.0543221 -0 0.153012 -0 0.153012)
(0.159227 0.0593438 -0 0.159227 -0 0.159227)
(0.165869 0.0643336 -0 0.165869 -0 0.165869)
(0.172901 0.0692913 -0 0.172901 -0 0.172901)
(0.180287 0.074217 -0 0.180287 -0 0.180287)
(0.18799 0.0791108 -0 0.18799 -0 0.18799)
(0.195976 0.0839735 -0 0.195976 -0 0.195976)
(0.204213 0.0888059 -0 0.204213 -0 0.204213)
(0.212673 0.0936092 -0 0.212673 -0 0.212673)
(0.221331 0.0983847 -0 0.221331 -0 0.221331)
(0.230165 0.103134 -0 0.230165 -0 0.230165)
(0.239157 0.10786 -0 0.239157 -0 0.239157)
(0.248293 0.112564 -0 0.248293 -0 0.248293)
(0.257561 0.11725 -0 0.257561 -0 0.257561)
(0.266956 0.121919 -0 0.266956 -0 0.266956)
(0.276472 0.126576 -0 0.276472 -0 0.276472)
(0.286112 0.131224 -0 0.286112 -0 0.286112)
(0.29588 0.135867 -0 0.29588 -0 0.29588)
(0.305786 0.14051 -0 0.305786 -0 0.305786)
(0.315846 0.145159 -0 0.315846 -0 0.315846)
(0.326087 0.14982 -0 0.326087 -0 0.326087)
(0.336545 0.154505 -0 0.336545 -0 0.336545)
(0.347278 0.159229 -0 0.347278 -0 0.347278)
(0.358375 0.164017 -0 0.358375 -0 0.358375)
(0.369984 0.168922 -0 0.369984 -0 0.369984)
(0.382366 0.174049 -0 0.382366 -0 0.382366)
(0.39603 0.179662 -0 0.39603 -0 0.39603)
(0.412054 0.186503 -0 0.412054 -0 0.412054)
(0.432684 0.200034 -0 0.432684 -0 0.432684)
(0.433955 0.598628 -0 0.433955 -0 0.433955)
)
;

boundaryField
{
    lowerWall
    {
        type            calculated;
        value           uniform (0.433954 -0.0987683 -0 0.433954 -0 0.433954);
    }
    upperWall
    {
        type            calculated;
        value           uniform (0.433955 0.0987684 -0 0.433955 -0 0.433955);
    }
    front
    {
        type            cyclic;
    }
    back
    {
        type            cyclic;
    }
    defaultFaces
    {
        type            empty;
    }
}


// ************************************************************************* //
