/*--------------------------------*- C++ -*----------------------------------*\
  =========                 |
  \\      /  F ield         | OpenFOAM: The Open Source CFD Toolbox
   \\    /   O peration     | Website:  https://openfoam.org
    \\  /    A nd           | Version:  12
     \\/     M anipulation  |
\*---------------------------------------------------------------------------*/
FoamFile
{
    format      ascii;
    class       volVectorField;
    location    "2600";
    object      U;
}
// * * * * * * * * * * * * * * * * * * * * * * * * * * * * * * * * * * * * * //

dimensions      [0 1 -1 0 0 0 0];

internalField   nonuniform List<vector> 
80
(
(6.0414 0 0)
(7.17449 0 0)
(7.78202 0 0)
(8.19416 0 0)
(8.50559 0 0)
(8.75627 0 0)
(8.96645 0 0)
(9.1477 0 0)
(9.30723 0 0)
(9.44981 0 0)
(9.57877 0 0)
(9.69652 0 0)
(9.80482 0 0)
(9.90503 0 0)
(9.99821 0 0)
(10.0852 0 0)
(10.1666 0 0)
(10.243 0 0)
(10.3148 0 0)
(10.3823 0 0)
(10.4459 0 0)
(10.5057 0 0)
(10.5618 0 0)
(10.6146 0 0)
(10.6639 0 0)
(10.7099 0 0)
(10.7527 0 0)
(10.7923 0 0)
(10.8287 0 0)
(10.8619 0 0)
(10.892 0 0)
(10.9189 0 0)
(10.9427 0 0)
(10.9633 0 0)
(10.981 0 0)
(10.9955 0 0)
(11.0071 0 0)
(11.0158 0 0)
(11.0215 0 0)
(11.0244 0 0)
(11.0244 0 0)
(11.0215 0 0)
(11.0158 0 0)
(11.0071 0 0)
(10.9955 0 0)
(10.981 0 0)
(10.9633 0 0)
(10.9427 0 0)
(10.9189 0 0)
(10.892 0 0)
(10.8619 0 0)
(10.8287 0 0)
(10.7923 0 0)
(10.7527 0 0)
(10.7099 0 0)
(10.6639 0 0)
(10.6146 0 0)
(10.5618 0 0)
(10.5057 0 0)
(10.4459 0 0)
(10.3823 0 0)
(10.3148 0 0)
(10.243 0 0)
(10.1666 0 0)
(10.0852 0 0)
(9.99821 0 0)
(9.90503 0 0)
(9.80481 0 0)
(9.69652 0 0)
(9.57877 0 0)
(9.44981 0 0)
(9.30723 0 0)
(9.1477 0 0)
(8.96645 0 0)
(8.75627 0 0)
(8.50559 0 0)
(8.19416 0 0)
(7.78202 0 0)
(7.17449 0 0)
(6.0414 0 0)
)
;

boundaryField
{
    lowerWall
    {
        type            noSlip;
    }
    upperWall
    {
        type            noSlip;
    }
    front
    {
        type            cyclic;
    }
    back
    {
        type            cyclic;
    }
    defaultFaces
    {
        type            empty;
    }
}


// ************************************************************************* //
