/*--------------------------------*- C++ -*----------------------------------*\
  =========                 |
  \\      /  F ield         | OpenFOAM: The Open Source CFD Toolbox
   \\    /   O peration     | Website:  https://openfoam.org
    \\  /    A nd           | Version:  12
     \\/     M anipulation  |
\*---------------------------------------------------------------------------*/
FoamFile
{
    format      ascii;
    class       volScalarField;
    location    "1.84";
    object      p;
}
// * * * * * * * * * * * * * * * * * * * * * * * * * * * * * * * * * * * * * //

dimensions      [1 -1 -2 0 0 0 0];

internalField   nonuniform List<scalar> 
3829
(
-613.548
-613.548
-613.549
-613.55
-613.551
-613.553
-613.555
-613.558
-613.56
-613.564
-613.567
-613.571
-613.576
-613.581
-613.586
-613.592
-613.598
-613.604
-613.611
-613.618
-613.626
-613.634
-613.643
-613.651
-613.661
-613.67
-613.68
-613.69
-613.701
-613.712
-613.724
-613.735
-613.748
-613.76
-613.773
-613.786
-613.8
-613.814
-613.828
-613.843
-613.858
-613.874
-613.89
-613.906
-613.922
-613.939
-613.956
-613.974
-613.991
-614.009
-614.027
-614.045
-614.064
-614.082
-614.1
-614.119
-614.137
-614.155
-614.173
-614.19
-614.207
-614.224
-614.24
-614.256
-614.271
-614.286
-614.299
-614.313
-614.325
-614.336
-614.347
-614.356
-614.365
-614.372
-614.379
-614.385
-614.389
-614.393
-614.396
-614.397
-614.398
-614.398
-614.397
-614.395
-614.393
-614.39
-614.386
-614.381
-614.376
-614.371
-614.365
-614.359
-614.352
-614.346
-614.339
-614.332
-614.325
-614.318
-614.312
-614.305
-614.299
-614.293
-614.287
-614.282
-614.277
-614.272
-614.268
-614.264
-614.261
-614.258
-614.255
-614.253
-614.252
-614.251
-614.25
-614.25
-614.25
-614.251
-614.252
-614.254
-614.256
-614.258
-614.26
-614.263
-614.266
-614.269
-614.273
-614.276
-614.28
-614.284
-614.288
-614.292
-614.296
-614.3
-614.304
-614.308
-614.312
-614.316
-614.32
-614.323
-614.327
-614.33
-614.334
-614.337
-614.34
-614.342
-614.345
-614.347
-614.35
-614.352
-614.354
-614.355
-614.357
-614.358
-614.359
-614.36
-614.361
-614.361
-614.362
-614.362
-614.362
-614.362
-614.362
-614.362
-614.362
-614.362
-614.361
-614.361
-614.36
-614.359
-614.359
-614.358
-614.357
-614.356
-614.356
-614.355
-614.354
-614.353
-614.352
-614.351
-614.351
-614.35
-614.349
-614.348
-614.347
-614.347
-614.346
-614.345
-614.345
-614.344
-614.344
-614.343
-614.343
-614.342
-614.342
-614.342
-614.342
-614.342
-614.341
-614.341
-1771.89
-1771.89
-1771.89
-1771.89
-1771.89
-1771.89
-1771.9
-1771.9
-1771.9
-1771.91
-1771.91
-1771.92
-1771.92
-1771.93
-1771.93
-1771.94
-1771.95
-1771.95
-1771.96
-1771.97
-1771.98
-1771.99
-1772
-1772.01
-1772.02
-1772.03
-1772.04
-1772.05
-1772.06
-1772.07
-1772.08
-1772.09
-1772.11
-1772.12
-1772.13
-1772.15
-1772.16
-1772.18
-1772.19
-1772.21
-1772.22
-1772.24
-1772.25
-1772.27
-1772.29
-1772.31
-1772.32
-1772.34
-1772.36
-1772.38
-1772.4
-1772.42
-1772.44
-1772.46
-1772.48
-1772.5
-1772.52
-1772.53
-1772.55
-1772.57
-1772.59
-1772.61
-1772.63
-1772.64
-1772.66
-1772.67
-1772.69
-1772.7
-1772.71
-1772.72
-1772.73
-1772.74
-1772.75
-1772.76
-1772.77
-1772.77
-1772.78
-1772.78
-1772.78
-1772.78
-1772.78
-1772.78
-1772.78
-1772.78
-1772.77
-1772.77
-1772.76
-1772.76
-1772.75
-1772.74
-1772.74
-1772.73
-1772.72
-1772.72
-1772.71
-1772.7
-1772.69
-1772.69
-1772.68
-1772.67
-1772.67
-1772.66
-1772.65
-1772.65
-1772.64
-1772.64
-1772.63
-1772.63
-1772.63
-1772.62
-1772.62
-1772.62
-1772.62
-1772.62
-1772.62
-1772.62
-1772.62
-1772.62
-1772.62
-1772.62
-1772.62
-1772.63
-1772.63
-1772.63
-1772.63
-1772.64
-1772.64
-1772.65
-1772.65
-1772.65
-1772.66
-1772.66
-1772.67
-1772.67
-1772.67
-1772.68
-1772.68
-1772.69
-1772.69
-1772.69
-1772.7
-1772.7
-1772.7
-1772.71
-1772.71
-1772.71
-1772.72
-1772.72
-1772.72
-1772.72
-1772.72
-1772.73
-1772.73
-1772.73
-1772.73
-1772.73
-1772.73
-1772.73
-1772.73
-1772.73
-1772.73
-1772.73
-1772.73
-1772.73
-1772.73
-1772.73
-1772.73
-1772.73
-1772.73
-1772.73
-1772.73
-1772.73
-1772.73
-1772.73
-1772.73
-1772.72
-1772.72
-1772.72
-1772.72
-1772.72
-1772.72
-1772.72
-1772.72
-1772.72
-1772.72
-1772.72
-1772.72
-1772.72
-1772.71
-1772.71
-1772.71
-1772.71
-1772.71
-1772.71
-1772.71
-1772.71
-1772.71
-1772.71
-1772.71
-1772.71
-2798
-2798
-2798
-2798
-2798
-2798
-2798.01
-2798.01
-2798.02
-2798.02
-2798.03
-2798.04
-2798.04
-2798.05
-2798.06
-2798.07
-2798.07
-2798.08
-2798.09
-2798.1
-2798.11
-2798.12
-2798.13
-2798.14
-2798.16
-2798.17
-2798.18
-2798.19
-2798.2
-2798.21
-2798.23
-2798.24
-2798.25
-2798.26
-2798.28
-2798.29
-2798.31
-2798.32
-2798.34
-2798.35
-2798.37
-2798.39
-2798.4
-2798.42
-2798.44
-2798.46
-2798.48
-2798.5
-2798.52
-2798.54
-2798.56
-2798.58
-2798.6
-2798.63
-2798.65
-2798.67
-2798.69
-2798.71
-2798.73
-2798.75
-2798.77
-2798.79
-2798.81
-2798.83
-2798.85
-2798.86
-2798.88
-2798.89
-2798.91
-2798.92
-2798.93
-2798.94
-2798.94
-2798.95
-2798.96
-2798.96
-2798.96
-2798.97
-2798.97
-2798.97
-2798.96
-2798.96
-2798.96
-2798.95
-2798.95
-2798.94
-2798.93
-2798.93
-2798.92
-2798.91
-2798.9
-2798.89
-2798.89
-2798.88
-2798.87
-2798.86
-2798.85
-2798.84
-2798.84
-2798.83
-2798.82
-2798.81
-2798.81
-2798.8
-2798.8
-2798.79
-2798.79
-2798.78
-2798.78
-2798.78
-2798.78
-2798.77
-2798.77
-2798.77
-2798.77
-2798.77
-2798.77
-2798.77
-2798.78
-2798.78
-2798.78
-2798.78
-2798.79
-2798.79
-2798.79
-2798.8
-2798.8
-2798.81
-2798.81
-2798.81
-2798.82
-2798.82
-2798.83
-2798.83
-2798.83
-2798.84
-2798.84
-2798.85
-2798.85
-2798.85
-2798.86
-2798.86
-2798.87
-2798.87
-2798.87
-2798.87
-2798.88
-2798.88
-2798.88
-2798.88
-2798.89
-2798.89
-2798.89
-2798.89
-2798.89
-2798.89
-2798.89
-2798.89
-2798.89
-2798.89
-2798.89
-2798.89
-2798.89
-2798.89
-2798.89
-2798.89
-2798.89
-2798.89
-2798.89
-2798.89
-2798.89
-2798.89
-2798.89
-2798.89
-2798.89
-2798.88
-2798.88
-2798.88
-2798.88
-2798.88
-2798.88
-2798.88
-2798.88
-2798.88
-2798.88
-2798.88
-2798.88
-2798.88
-2798.87
-2798.87
-2798.87
-2798.87
-2798.87
-2798.87
-2798.87
-2798.87
-2798.87
-2798.87
-2798.87
-2798.87
-3706.96
-3706.96
-3706.96
-3706.96
-3706.97
-3706.97
-3706.98
-3706.98
-3706.99
-3707
-3707.01
-3707.02
-3707.03
-3707.04
-3707.05
-3707.06
-3707.07
-3707.09
-3707.1
-3707.11
-3707.12
-3707.14
-3707.15
-3707.16
-3707.17
-3707.19
-3707.2
-3707.21
-3707.22
-3707.23
-3707.25
-3707.26
-3707.27
-3707.28
-3707.3
-3707.31
-3707.32
-3707.34
-3707.36
-3707.37
-3707.39
-3707.41
-3707.43
-3707.44
-3707.47
-3707.49
-3707.51
-3707.53
-3707.55
-3707.58
-3707.6
-3707.63
-3707.65
-3707.68
-3707.7
-3707.73
-3707.75
-3707.78
-3707.8
-3707.82
-3707.85
-3707.87
-3707.89
-3707.91
-3707.93
-3707.94
-3707.96
-3707.98
-3707.99
-3708
-3708.01
-3708.02
-3708.03
-3708.03
-3708.04
-3708.04
-3708.04
-3708.04
-3708.04
-3708.03
-3708.03
-3708.03
-3708.02
-3708.01
-3708
-3708
-3707.99
-3707.98
-3707.97
-3707.96
-3707.95
-3707.94
-3707.93
-3707.92
-3707.91
-3707.9
-3707.89
-3707.88
-3707.87
-3707.86
-3707.85
-3707.85
-3707.84
-3707.83
-3707.83
-3707.82
-3707.82
-3707.81
-3707.81
-3707.81
-3707.81
-3707.81
-3707.8
-3707.8
-3707.8
-3707.81
-3707.81
-3707.81
-3707.81
-3707.81
-3707.82
-3707.82
-3707.82
-3707.83
-3707.83
-3707.83
-3707.84
-3707.84
-3707.85
-3707.85
-3707.86
-3707.86
-3707.87
-3707.87
-3707.87
-3707.88
-3707.88
-3707.89
-3707.89
-3707.9
-3707.9
-3707.9
-3707.91
-3707.91
-3707.91
-3707.91
-3707.92
-3707.92
-3707.92
-3707.92
-3707.93
-3707.93
-3707.93
-3707.93
-3707.93
-3707.93
-3707.93
-3707.93
-3707.93
-3707.93
-3707.93
-3707.93
-3707.93
-3707.93
-3707.93
-3707.93
-3707.93
-3707.93
-3707.93
-3707.93
-3707.93
-3707.93
-3707.93
-3707.93
-3707.92
-3707.92
-3707.92
-3707.92
-3707.92
-3707.92
-3707.92
-3707.92
-3707.92
-3707.92
-3707.92
-3707.92
-3707.91
-3707.91
-3707.91
-3707.91
-3707.91
-3707.91
-3707.91
-3707.91
-3707.91
-3707.91
-3707.91
-3707.91
-3707.91
-3707.91
-4512.13
-4512.13
-4512.14
-4512.14
-4512.15
-4512.16
-4512.17
-4512.18
-4512.19
-4512.21
-4512.22
-4512.24
-4512.26
-4512.27
-4512.29
-4512.31
-4512.33
-4512.34
-4512.36
-4512.38
-4512.39
-4512.41
-4512.42
-4512.44
-4512.45
-4512.46
-4512.47
-4512.48
-4512.5
-4512.51
-4512.52
-4512.53
-4512.54
-4512.55
-4512.56
-4512.57
-4512.59
-4512.6
-4512.62
-4512.63
-4512.65
-4512.67
-4512.69
-4512.71
-4512.73
-4512.76
-4512.78
-4512.81
-4512.83
-4512.86
-4512.89
-4512.92
-4512.95
-4512.98
-4513.01
-4513.04
-4513.07
-4513.09
-4513.12
-4513.15
-4513.17
-4513.2
-4513.22
-4513.25
-4513.27
-4513.29
-4513.3
-4513.32
-4513.33
-4513.34
-4513.35
-4513.36
-4513.37
-4513.37
-4513.37
-4513.37
-4513.37
-4513.37
-4513.36
-4513.36
-4513.35
-4513.34
-4513.33
-4513.32
-4513.31
-4513.3
-4513.29
-4513.28
-4513.26
-4513.25
-4513.24
-4513.23
-4513.21
-4513.2
-4513.19
-4513.18
-4513.17
-4513.16
-4513.15
-4513.14
-4513.13
-4513.12
-4513.12
-4513.11
-4513.1
-4513.1
-4513.1
-4513.09
-4513.09
-4513.09
-4513.09
-4513.09
-4513.08
-4513.09
-4513.09
-4513.09
-4513.09
-4513.09
-4513.09
-4513.1
-4513.1
-4513.1
-4513.11
-4513.11
-4513.12
-4513.12
-4513.13
-4513.13
-4513.14
-4513.14
-4513.14
-4513.15
-4513.15
-4513.16
-4513.16
-4513.17
-4513.17
-4513.18
-4513.18
-4513.18
-4513.19
-4513.19
-4513.2
-4513.2
-4513.2
-4513.2
-4513.21
-4513.21
-4513.21
-4513.21
-4513.21
-4513.22
-4513.22
-4513.22
-4513.22
-4513.22
-4513.22
-4513.22
-4513.22
-4513.22
-4513.22
-4513.22
-4513.22
-4513.22
-4513.22
-4513.22
-4513.22
-4513.22
-4513.22
-4513.22
-4513.22
-4513.22
-4513.21
-4513.21
-4513.21
-4513.21
-4513.21
-4513.21
-4513.21
-4513.21
-4513.21
-4513.21
-4513.21
-4513.2
-4513.2
-4513.2
-4513.2
-4513.2
-4513.2
-4513.2
-4513.2
-4513.2
-4513.2
-4513.2
-4513.2
-4513.2
-4513.2
-4513.2
-4513.2
-4513.2
-5225.36
-5225.36
-5225.37
-5225.38
-5225.39
-5225.4
-5225.42
-5225.44
-5225.46
-5225.49
-5225.52
-5225.54
-5225.57
-5225.6
-5225.63
-5225.66
-5225.68
-5225.71
-5225.73
-5225.75
-5225.77
-5225.79
-5225.81
-5225.82
-5225.84
-5225.85
-5225.85
-5225.86
-5225.87
-5225.87
-5225.88
-5225.89
-5225.89
-5225.9
-5225.91
-5225.92
-5225.93
-5225.94
-5225.96
-5225.97
-5225.99
-5226.01
-5226.03
-5226.06
-5226.08
-5226.11
-5226.14
-5226.17
-5226.2
-5226.23
-5226.27
-5226.3
-5226.34
-5226.37
-5226.41
-5226.44
-5226.47
-5226.51
-5226.54
-5226.57
-5226.6
-5226.63
-5226.66
-5226.68
-5226.7
-5226.72
-5226.74
-5226.76
-5226.77
-5226.78
-5226.79
-5226.8
-5226.8
-5226.8
-5226.8
-5226.8
-5226.8
-5226.79
-5226.78
-5226.77
-5226.76
-5226.75
-5226.74
-5226.72
-5226.71
-5226.7
-5226.68
-5226.67
-5226.65
-5226.63
-5226.62
-5226.6
-5226.59
-5226.58
-5226.56
-5226.55
-5226.54
-5226.53
-5226.52
-5226.51
-5226.5
-5226.49
-5226.48
-5226.48
-5226.47
-5226.47
-5226.46
-5226.46
-5226.46
-5226.46
-5226.45
-5226.45
-5226.45
-5226.46
-5226.46
-5226.46
-5226.46
-5226.46
-5226.47
-5226.47
-5226.47
-5226.48
-5226.48
-5226.49
-5226.49
-5226.5
-5226.5
-5226.51
-5226.51
-5226.52
-5226.52
-5226.53
-5226.53
-5226.54
-5226.54
-5226.55
-5226.55
-5226.56
-5226.56
-5226.56
-5226.57
-5226.57
-5226.58
-5226.58
-5226.58
-5226.58
-5226.59
-5226.59
-5226.59
-5226.59
-5226.59
-5226.6
-5226.6
-5226.6
-5226.6
-5226.6
-5226.6
-5226.6
-5226.6
-5226.6
-5226.6
-5226.6
-5226.6
-5226.6
-5226.6
-5226.6
-5226.6
-5226.6
-5226.6
-5226.6
-5226.59
-5226.59
-5226.59
-5226.59
-5226.59
-5226.59
-5226.59
-5226.59
-5226.59
-5226.59
-5226.59
-5226.58
-5226.58
-5226.58
-5226.58
-5226.58
-5226.58
-5226.58
-5226.58
-5226.58
-5226.58
-5226.58
-5226.58
-5226.58
-5226.58
-5226.58
-5226.58
-5226.58
-5226.58
-5226.58
-5857.11
-5857.11
-5857.12
-5857.14
-5857.16
-5857.19
-5857.22
-5857.26
-5857.3
-5857.34
-5857.39
-5857.43
-5857.48
-5857.53
-5857.57
-5857.61
-5857.65
-5857.69
-5857.72
-5857.75
-5857.78
-5857.8
-5857.81
-5857.82
-5857.83
-5857.83
-5857.84
-5857.83
-5857.83
-5857.83
-5857.83
-5857.82
-5857.82
-5857.82
-5857.83
-5857.83
-5857.84
-5857.85
-5857.86
-5857.88
-5857.9
-5857.92
-5857.95
-5857.97
-5858
-5858.03
-5858.07
-5858.11
-5858.14
-5858.18
-5858.22
-5858.26
-5858.3
-5858.35
-5858.39
-5858.43
-5858.47
-5858.51
-5858.55
-5858.58
-5858.62
-5858.65
-5858.68
-5858.71
-5858.73
-5858.75
-5858.77
-5858.79
-5858.8
-5858.81
-5858.82
-5858.83
-5858.83
-5858.83
-5858.82
-5858.82
-5858.81
-5858.8
-5858.79
-5858.77
-5858.76
-5858.74
-5858.73
-5858.71
-5858.69
-5858.67
-5858.65
-5858.63
-5858.62
-5858.6
-5858.58
-5858.56
-5858.55
-5858.53
-5858.52
-5858.5
-5858.49
-5858.48
-5858.47
-5858.46
-5858.45
-5858.44
-5858.43
-5858.42
-5858.42
-5858.41
-5858.41
-5858.41
-5858.41
-5858.41
-5858.4
-5858.41
-5858.41
-5858.41
-5858.41
-5858.41
-5858.42
-5858.42
-5858.42
-5858.43
-5858.43
-5858.44
-5858.44
-5858.45
-5858.45
-5858.46
-5858.46
-5858.47
-5858.47
-5858.48
-5858.48
-5858.49
-5858.49
-5858.5
-5858.5
-5858.51
-5858.51
-5858.52
-5858.52
-5858.53
-5858.53
-5858.53
-5858.54
-5858.54
-5858.54
-5858.55
-5858.55
-5858.55
-5858.55
-5858.55
-5858.56
-5858.56
-5858.56
-5858.56
-5858.56
-5858.56
-5858.56
-5858.56
-5858.56
-5858.56
-5858.56
-5858.56
-5858.56
-5858.56
-5858.56
-5858.56
-5858.56
-5858.56
-5858.56
-5858.56
-5858.55
-5858.55
-5858.55
-5858.55
-5858.55
-5858.55
-5858.55
-5858.55
-5858.55
-5858.55
-5858.55
-5858.54
-5858.54
-5858.54
-5858.54
-5858.54
-5858.54
-5858.54
-5858.54
-5858.54
-5858.54
-5858.54
-5858.54
-5858.54
-5858.54
-5858.54
-5858.54
-5858.54
-5858.54
-5858.54
-6416.63
-6416.64
-6416.66
-6416.69
-6416.72
-6416.77
-6416.82
-6416.89
-6416.96
-6417.03
-6417.11
-6417.19
-6417.26
-6417.34
-6417.41
-6417.47
-6417.53
-6417.59
-6417.63
-6417.67
-6417.7
-6417.72
-6417.73
-6417.73
-6417.73
-6417.72
-6417.71
-6417.69
-6417.67
-6417.66
-6417.64
-6417.62
-6417.61
-6417.6
-6417.6
-6417.6
-6417.6
-6417.61
-6417.62
-6417.64
-6417.66
-6417.69
-6417.72
-6417.75
-6417.79
-6417.82
-6417.86
-6417.91
-6417.95
-6418
-6418.05
-6418.1
-6418.15
-6418.2
-6418.25
-6418.29
-6418.34
-6418.39
-6418.43
-6418.47
-6418.51
-6418.55
-6418.58
-6418.61
-6418.64
-6418.66
-6418.68
-6418.7
-6418.71
-6418.72
-6418.73
-6418.73
-6418.73
-6418.72
-6418.71
-6418.7
-6418.69
-6418.68
-6418.66
-6418.64
-6418.62
-6418.6
-6418.58
-6418.56
-6418.54
-6418.52
-6418.49
-6418.47
-6418.45
-6418.43
-6418.41
-6418.39
-6418.37
-6418.36
-6418.34
-6418.32
-6418.31
-6418.3
-6418.29
-6418.28
-6418.27
-6418.26
-6418.25
-6418.24
-6418.24
-6418.23
-6418.23
-6418.23
-6418.23
-6418.23
-6418.23
-6418.23
-6418.23
-6418.23
-6418.23
-6418.24
-6418.24
-6418.25
-6418.25
-6418.25
-6418.26
-6418.26
-6418.27
-6418.28
-6418.28
-6418.29
-6418.29
-6418.3
-6418.3
-6418.31
-6418.32
-6418.32
-6418.33
-6418.33
-6418.34
-6418.34
-6418.35
-6418.35
-6418.36
-6418.36
-6418.36
-6418.37
-6418.37
-6418.37
-6418.38
-6418.38
-6418.38
-6418.38
-6418.39
-6418.39
-6418.39
-6418.39
-6418.39
-6418.39
-6418.39
-6418.39
-6418.39
-6418.39
-6418.39
-6418.39
-6418.39
-6418.39
-6418.39
-6418.39
-6418.39
-6418.39
-6418.39
-6418.39
-6418.39
-6418.39
-6418.39
-6418.39
-6418.39
-6418.38
-6418.38
-6418.38
-6418.38
-6418.38
-6418.38
-6418.38
-6418.38
-6418.38
-6418.38
-6418.38
-6418.37
-6418.37
-6418.37
-6418.37
-6418.37
-6418.37
-6418.37
-6418.37
-6418.37
-6418.37
-6418.37
-6418.37
-6418.37
-6418.37
-6418.37
-6418.37
-6912.15
-6912.16
-6912.2
-6912.25
-6912.32
-6912.4
-6912.51
-6912.62
-6912.74
-6912.87
-6913.01
-6913.14
-6913.26
-6913.38
-6913.48
-6913.58
-6913.66
-6913.73
-6913.78
-6913.83
-6913.85
-6913.87
-6913.87
-6913.86
-6913.83
-6913.79
-6913.74
-6913.68
-6913.62
-6913.58
-6913.53
-6913.5
-6913.48
-6913.46
-6913.45
-6913.44
-6913.44
-6913.45
-6913.47
-6913.49
-6913.51
-6913.54
-6913.58
-6913.62
-6913.66
-6913.71
-6913.76
-6913.81
-6913.86
-6913.92
-6913.98
-6914.04
-6914.09
-6914.15
-6914.21
-6914.27
-6914.32
-6914.37
-6914.42
-6914.47
-6914.52
-6914.56
-6914.59
-6914.63
-6914.66
-6914.68
-6914.7
-6914.72
-6914.73
-6914.73
-6914.74
-6914.73
-6914.73
-6914.72
-6914.71
-6914.7
-6914.68
-6914.66
-6914.64
-6914.62
-6914.59
-6914.57
-6914.54
-6914.51
-6914.49
-6914.46
-6914.44
-6914.41
-6914.39
-6914.36
-6914.34
-6914.32
-6914.3
-6914.28
-6914.26
-6914.25
-6914.23
-6914.22
-6914.21
-6914.2
-6914.19
-6914.18
-6914.17
-6914.17
-6914.16
-6914.16
-6914.15
-6914.15
-6914.15
-6914.15
-6914.15
-6914.15
-6914.16
-6914.16
-6914.16
-6914.17
-6914.17
-6914.17
-6914.18
-6914.19
-6914.19
-6914.2
-6914.2
-6914.21
-6914.21
-6914.22
-6914.23
-6914.23
-6914.24
-6914.25
-6914.25
-6914.26
-6914.26
-6914.27
-6914.27
-6914.28
-6914.28
-6914.29
-6914.29
-6914.3
-6914.3
-6914.3
-6914.31
-6914.31
-6914.31
-6914.32
-6914.32
-6914.32
-6914.32
-6914.32
-6914.33
-6914.33
-6914.33
-6914.33
-6914.33
-6914.33
-6914.33
-6914.33
-6914.33
-6914.33
-6914.33
-6914.33
-6914.33
-6914.33
-6914.33
-6914.33
-6914.33
-6914.32
-6914.32
-6914.32
-6914.32
-6914.32
-6914.32
-6914.32
-6914.32
-6914.32
-6914.32
-6914.32
-6914.31
-6914.31
-6914.31
-6914.31
-6914.31
-6914.31
-6914.31
-6914.31
-6914.31
-6914.31
-6914.31
-6914.31
-6914.3
-6914.3
-6914.3
-6914.3
-6914.3
-6914.3
-6914.3
-6914.3
-6914.3
-6914.3
-7350.9
-7350.92
-7350.97
-7351.04
-7351.13
-7351.26
-7351.42
-7351.61
-7351.83
-7352.06
-7352.26
-7352.45
-7352.62
-7352.77
-7352.91
-7353.03
-7353.13
-7353.22
-7353.28
-7353.33
-7353.36
-7353.37
-7353.36
-7353.33
-7353.28
-7353.22
-7353.12
-7353.04
-7352.94
-7352.86
-7352.8
-7352.75
-7352.71
-7352.68
-7352.67
-7352.66
-7352.66
-7352.68
-7352.69
-7352.72
-7352.75
-7352.79
-7352.83
-7352.88
-7352.93
-7352.99
-7353.05
-7353.11
-7353.17
-7353.24
-7353.31
-7353.37
-7353.44
-7353.51
-7353.58
-7353.64
-7353.71
-7353.77
-7353.82
-7353.88
-7353.93
-7353.97
-7354.01
-7354.05
-7354.08
-7354.1
-7354.12
-7354.14
-7354.15
-7354.15
-7354.15
-7354.14
-7354.13
-7354.12
-7354.11
-7354.09
-7354.06
-7354.04
-7354.01
-7353.99
-7353.96
-7353.93
-7353.9
-7353.87
-7353.84
-7353.81
-7353.78
-7353.75
-7353.72
-7353.7
-7353.67
-7353.65
-7353.63
-7353.61
-7353.59
-7353.57
-7353.56
-7353.54
-7353.53
-7353.52
-7353.51
-7353.5
-7353.49
-7353.49
-7353.48
-7353.48
-7353.48
-7353.48
-7353.48
-7353.48
-7353.48
-7353.48
-7353.48
-7353.49
-7353.49
-7353.5
-7353.5
-7353.51
-7353.51
-7353.52
-7353.52
-7353.53
-7353.54
-7353.54
-7353.55
-7353.56
-7353.56
-7353.57
-7353.58
-7353.58
-7353.59
-7353.59
-7353.6
-7353.61
-7353.61
-7353.62
-7353.62
-7353.63
-7353.63
-7353.63
-7353.64
-7353.64
-7353.65
-7353.65
-7353.65
-7353.65
-7353.66
-7353.66
-7353.66
-7353.66
-7353.66
-7353.66
-7353.67
-7353.67
-7353.67
-7353.67
-7353.67
-7353.67
-7353.67
-7353.67
-7353.67
-7353.67
-7353.66
-7353.66
-7353.66
-7353.66
-7353.66
-7353.66
-7353.66
-7353.66
-7353.66
-7353.66
-7353.66
-7353.65
-7353.65
-7353.65
-7353.65
-7353.65
-7353.65
-7353.65
-7353.65
-7353.65
-7353.65
-7353.65
-7353.64
-7353.64
-7353.64
-7353.64
-7353.64
-7353.64
-7353.64
-7353.64
-7353.64
-7353.64
-7353.64
-7353.64
-7353.64
-7353.64
-7353.64
-7353.64
-7739.31
-7739.33
-7739.38
-7739.47
-7739.59
-7739.76
-7739.99
-7740.34
-7740.81
-7741.23
-7741.56
-7741.85
-7742.1
-7742.31
-7742.49
-7742.64
-7742.76
-7742.86
-7742.93
-7742.98
-7743.01
-7743.01
-7742.98
-7742.92
-7742.82
-7742.68
-7742.47
-7742.2
-7742.01
-7741.89
-7741.81
-7741.76
-7741.72
-7741.71
-7741.7
-7741.7
-7741.71
-7741.73
-7741.76
-7741.79
-7741.83
-7741.88
-7741.93
-7741.99
-7742.05
-7742.12
-7742.19
-7742.26
-7742.33
-7742.41
-7742.49
-7742.57
-7742.65
-7742.72
-7742.8
-7742.87
-7742.95
-7743.01
-7743.08
-7743.14
-7743.19
-7743.24
-7743.28
-7743.32
-7743.35
-7743.38
-7743.4
-7743.41
-7743.42
-7743.42
-7743.41
-7743.4
-7743.39
-7743.37
-7743.35
-7743.33
-7743.3
-7743.27
-7743.24
-7743.2
-7743.17
-7743.14
-7743.1
-7743.07
-7743.03
-7743
-7742.97
-7742.94
-7742.91
-7742.88
-7742.85
-7742.83
-7742.81
-7742.78
-7742.76
-7742.75
-7742.73
-7742.72
-7742.7
-7742.69
-7742.68
-7742.67
-7742.67
-7742.66
-7742.66
-7742.66
-7742.65
-7742.65
-7742.65
-7742.66
-7742.66
-7742.66
-7742.66
-7742.67
-7742.67
-7742.68
-7742.68
-7742.69
-7742.69
-7742.7
-7742.71
-7742.71
-7742.72
-7742.73
-7742.74
-7742.74
-7742.75
-7742.76
-7742.76
-7742.77
-7742.78
-7742.78
-7742.79
-7742.79
-7742.8
-7742.8
-7742.81
-7742.81
-7742.82
-7742.82
-7742.83
-7742.83
-7742.83
-7742.84
-7742.84
-7742.84
-7742.85
-7742.85
-7742.85
-7742.85
-7742.85
-7742.85
-7742.85
-7742.85
-7742.85
-7742.85
-7742.86
-7742.85
-7742.85
-7742.85
-7742.85
-7742.85
-7742.85
-7742.85
-7742.85
-7742.85
-7742.85
-7742.85
-7742.85
-7742.85
-7742.85
-7742.84
-7742.84
-7742.84
-7742.84
-7742.84
-7742.84
-7742.84
-7742.84
-7742.84
-7742.84
-7742.83
-7742.83
-7742.83
-7742.83
-7742.83
-7742.83
-7742.83
-7742.83
-7742.83
-7742.83
-7742.83
-7742.83
-7742.83
-7742.83
-7742.83
-7742.83
-7742.83
-7742.83
-7742.83
-8083.25
-8083.27
-8083.3
-8083.35
-8083.41
-8083.47
-8083.54
-8083.66
-8086.52
-8086.48
-8086.43
-8086.39
-8086.35
-8086.32
-8086.31
-8086.31
-8086.31
-8086.33
-8086.36
-8086.39
-8086.44
-8086.49
-8086.54
-8086.6
-8086.67
-8086.74
-8086.82
-8086.9
-8086.99
-8087.07
-8087.16
-8087.25
-8087.34
-8087.43
-8087.52
-8087.61
-8087.69
-8087.77
-8087.85
-8087.92
-8087.98
-8088.04
-8088.09
-8088.14
-8088.18
-8088.21
-8088.24
-8088.25
-8088.26
-8088.27
-8088.27
-8088.26
-8088.24
-8088.23
-8088.2
-8088.18
-8088.15
-8088.11
-8088.08
-8088.04
-8088
-8087.96
-8087.92
-8087.88
-8087.85
-8087.81
-8087.77
-8087.74
-8087.7
-8087.67
-8087.64
-8087.61
-8087.59
-8087.56
-8087.54
-8087.52
-8087.5
-8087.48
-8087.47
-8087.46
-8087.45
-8087.44
-8087.43
-8087.42
-8087.42
-8087.41
-8087.41
-8087.41
-8087.41
-8087.41
-8087.41
-8087.42
-8087.42
-8087.42
-8087.43
-8087.43
-8087.44
-8087.45
-8087.45
-8087.46
-8087.47
-8087.47
-8087.48
-8087.49
-8087.49
-8087.5
-8087.51
-8087.52
-8087.52
-8087.53
-8087.54
-8087.54
-8087.55
-8087.56
-8087.56
-8087.57
-8087.57
-8087.58
-8087.58
-8087.59
-8087.59
-8087.6
-8087.6
-8087.6
-8087.61
-8087.61
-8087.61
-8087.61
-8087.62
-8087.62
-8087.62
-8087.62
-8087.62
-8087.62
-8087.62
-8087.62
-8087.62
-8087.62
-8087.62
-8087.62
-8087.62
-8087.62
-8087.62
-8087.62
-8087.62
-8087.62
-8087.62
-8087.62
-8087.62
-8087.61
-8087.61
-8087.61
-8087.61
-8087.61
-8087.61
-8087.61
-8087.61
-8087.61
-8087.61
-8087.6
-8087.6
-8087.6
-8087.6
-8087.6
-8087.6
-8087.6
-8087.6
-8087.6
-8087.6
-8087.6
-8087.6
-8087.6
-8087.59
-8087.59
-8087.59
-8087.59
-8087.59
-8087.59
-8087.59
-8087.59
-8087.59
-8387.82
-8387.82
-8387.83
-8387.85
-8387.87
-8387.89
-8387.92
-8387.94
-8391.55
-8391.56
-8391.54
-8391.54
-8391.53
-8391.53
-8391.54
-8391.55
-8391.57
-8391.6
-8391.64
-8391.68
-8391.73
-8391.79
-8391.86
-8391.93
-8392.01
-8392.1
-8392.19
-8392.28
-8392.38
-8392.47
-8392.57
-8392.68
-8392.78
-8392.88
-8392.98
-8393.07
-8393.16
-8393.25
-8393.34
-8393.41
-8393.48
-8393.55
-8393.6
-8393.65
-8393.69
-8393.73
-8393.75
-8393.77
-8393.78
-8393.78
-8393.77
-8393.76
-8393.74
-8393.72
-8393.69
-8393.65
-8393.62
-8393.58
-8393.54
-8393.5
-8393.45
-8393.41
-8393.36
-8393.32
-8393.28
-8393.24
-8393.2
-8393.16
-8393.12
-8393.09
-8393.06
-8393.03
-8393
-8392.98
-8392.95
-8392.93
-8392.91
-8392.9
-8392.88
-8392.87
-8392.86
-8392.85
-8392.84
-8392.84
-8392.83
-8392.83
-8392.83
-8392.83
-8392.83
-8392.83
-8392.83
-8392.83
-8392.84
-8392.84
-8392.85
-8392.85
-8392.86
-8392.87
-8392.87
-8392.88
-8392.89
-8392.89
-8392.9
-8392.91
-8392.92
-8392.93
-8392.93
-8392.94
-8392.95
-8392.96
-8392.96
-8392.97
-8392.98
-8392.98
-8392.99
-8392.99
-8393
-8393
-8393.01
-8393.01
-8393.02
-8393.02
-8393.03
-8393.03
-8393.03
-8393.04
-8393.04
-8393.04
-8393.04
-8393.04
-8393.05
-8393.05
-8393.05
-8393.05
-8393.05
-8393.05
-8393.05
-8393.05
-8393.05
-8393.05
-8393.05
-8393.05
-8393.05
-8393.05
-8393.04
-8393.04
-8393.04
-8393.04
-8393.04
-8393.04
-8393.04
-8393.04
-8393.04
-8393.04
-8393.03
-8393.03
-8393.03
-8393.03
-8393.03
-8393.03
-8393.03
-8393.03
-8393.03
-8393.03
-8393.02
-8393.02
-8393.02
-8393.02
-8393.02
-8393.02
-8393.02
-8393.02
-8393.02
-8393.02
-8393.02
-8393.02
-8393.02
-8393.02
-8393.02
-8393.02
-8393.02
-8657.59
-8657.6
-8657.6
-8657.61
-8657.63
-8657.64
-8657.66
-8657.67
-8661.9
-8661.91
-8661.89
-8661.89
-8661.89
-8661.9
-8661.92
-8661.94
-8661.97
-8662.01
-8662.06
-8662.11
-8662.17
-8662.24
-8662.32
-8662.41
-8662.5
-8662.59
-8662.69
-8662.8
-8662.9
-8663.02
-8663.13
-8663.24
-8663.35
-8663.46
-8663.57
-8663.68
-8663.78
-8663.88
-8663.97
-8664.05
-8664.13
-8664.2
-8664.26
-8664.31
-8664.35
-8664.38
-8664.4
-8664.42
-8664.42
-8664.42
-8664.41
-8664.39
-8664.37
-8664.34
-8664.31
-8664.27
-8664.23
-8664.18
-8664.14
-8664.09
-8664.04
-8663.99
-8663.94
-8663.9
-8663.85
-8663.81
-8663.76
-8663.72
-8663.68
-8663.65
-8663.61
-8663.58
-8663.56
-8663.53
-8663.51
-8663.48
-8663.46
-8663.45
-8663.43
-8663.42
-8663.41
-8663.4
-8663.39
-8663.39
-8663.38
-8663.38
-8663.38
-8663.38
-8663.38
-8663.38
-8663.39
-8663.39
-8663.4
-8663.4
-8663.41
-8663.41
-8663.42
-8663.43
-8663.43
-8663.44
-8663.45
-8663.46
-8663.47
-8663.47
-8663.48
-8663.49
-8663.5
-8663.51
-8663.51
-8663.52
-8663.53
-8663.53
-8663.54
-8663.55
-8663.55
-8663.56
-8663.57
-8663.57
-8663.58
-8663.58
-8663.58
-8663.59
-8663.59
-8663.6
-8663.6
-8663.6
-8663.6
-8663.61
-8663.61
-8663.61
-8663.61
-8663.61
-8663.61
-8663.61
-8663.61
-8663.61
-8663.61
-8663.61
-8663.61
-8663.61
-8663.61
-8663.61
-8663.61
-8663.61
-8663.61
-8663.61
-8663.61
-8663.61
-8663.61
-8663.6
-8663.6
-8663.6
-8663.6
-8663.6
-8663.6
-8663.6
-8663.6
-8663.6
-8663.59
-8663.59
-8663.59
-8663.59
-8663.59
-8663.59
-8663.59
-8663.59
-8663.59
-8663.59
-8663.59
-8663.59
-8663.58
-8663.58
-8663.58
-8663.58
-8663.58
-8663.58
-8663.58
-8663.58
-8663.58
-8663.58
-8663.58
-8896.57
-8896.57
-8896.57
-8896.58
-8896.59
-8896.59
-8896.6
-8896.6
-8901.35
-8901.37
-8901.36
-8901.37
-8901.38
-8901.4
-8901.42
-8901.46
-8901.5
-8901.54
-8901.6
-8901.66
-8901.73
-8901.82
-8901.9
-8902
-8902.1
-8902.21
-8902.32
-8902.44
-8902.56
-8902.68
-8902.8
-8902.93
-8903.05
-8903.17
-8903.29
-8903.41
-8903.52
-8903.62
-8903.72
-8903.81
-8903.89
-8903.96
-8904.03
-8904.08
-8904.12
-8904.15
-8904.17
-8904.19
-8904.19
-8904.18
-8904.17
-8904.15
-8904.12
-8904.08
-8904.04
-8904
-8903.95
-8903.9
-8903.85
-8903.8
-8903.74
-8903.69
-8903.64
-8903.59
-8903.54
-8903.49
-8903.44
-8903.4
-8903.36
-8903.32
-8903.29
-8903.26
-8903.23
-8903.2
-8903.18
-8903.15
-8903.14
-8903.12
-8903.1
-8903.09
-8903.08
-8903.07
-8903.07
-8903.06
-8903.06
-8903.06
-8903.05
-8903.05
-8903.06
-8903.06
-8903.06
-8903.07
-8903.07
-8903.08
-8903.08
-8903.09
-8903.1
-8903.11
-8903.11
-8903.12
-8903.13
-8903.14
-8903.15
-8903.16
-8903.16
-8903.17
-8903.18
-8903.19
-8903.2
-8903.2
-8903.21
-8903.22
-8903.22
-8903.23
-8903.24
-8903.24
-8903.25
-8903.25
-8903.26
-8903.26
-8903.27
-8903.27
-8903.28
-8903.28
-8903.28
-8903.29
-8903.29
-8903.29
-8903.29
-8903.29
-8903.29
-8903.3
-8903.3
-8903.3
-8903.3
-8903.3
-8903.3
-8903.3
-8903.3
-8903.3
-8903.3
-8903.3
-8903.29
-8903.29
-8903.29
-8903.29
-8903.29
-8903.29
-8903.29
-8903.29
-8903.29
-8903.28
-8903.28
-8903.28
-8903.28
-8903.28
-8903.28
-8903.28
-8903.28
-8903.28
-8903.28
-8903.27
-8903.27
-8903.27
-8903.27
-8903.27
-8903.27
-8903.27
-8903.27
-8903.27
-8903.27
-8903.27
-8903.27
-8903.27
-8903.27
-8903.27
-8903.27
-8903.27
-8903.27
-8903.27
-8903.27
-9108.26
-9108.26
-9108.26
-9108.27
-9108.27
-9108.27
-9108.28
-9108.28
-9113.48
-9113.5
-9113.5
-9113.51
-9113.53
-9113.55
-9113.58
-9113.62
-9113.67
-9113.73
-9113.79
-9113.86
-9113.95
-9114.04
-9114.13
-9114.24
-9114.35
-9114.47
-9114.59
-9114.72
-9114.85
-9114.99
-9115.12
-9115.26
-9115.39
-9115.52
-9115.65
-9115.78
-9115.9
-9116.01
-9116.11
-9116.21
-9116.3
-9116.37
-9116.44
-9116.49
-9116.53
-9116.57
-9116.59
-9116.6
-9116.59
-9116.58
-9116.56
-9116.54
-9116.5
-9116.46
-9116.42
-9116.37
-9116.31
-9116.26
-9116.2
-9116.14
-9116.09
-9116.03
-9115.97
-9115.92
-9115.87
-9115.82
-9115.77
-9115.72
-9115.68
-9115.64
-9115.61
-9115.57
-9115.54
-9115.52
-9115.49
-9115.47
-9115.45
-9115.43
-9115.42
-9115.41
-9115.4
-9115.39
-9115.38
-9115.38
-9115.38
-9115.37
-9115.37
-9115.37
-9115.38
-9115.38
-9115.38
-9115.39
-9115.39
-9115.4
-9115.41
-9115.41
-9115.42
-9115.43
-9115.44
-9115.45
-9115.46
-9115.46
-9115.47
-9115.48
-9115.49
-9115.5
-9115.51
-9115.52
-9115.52
-9115.53
-9115.54
-9115.55
-9115.55
-9115.56
-9115.57
-9115.57
-9115.58
-9115.58
-9115.59
-9115.59
-9115.6
-9115.6
-9115.61
-9115.61
-9115.61
-9115.61
-9115.62
-9115.62
-9115.62
-9115.62
-9115.62
-9115.62
-9115.62
-9115.63
-9115.63
-9115.63
-9115.63
-9115.63
-9115.63
-9115.62
-9115.62
-9115.62
-9115.62
-9115.62
-9115.62
-9115.62
-9115.62
-9115.62
-9115.62
-9115.61
-9115.61
-9115.61
-9115.61
-9115.61
-9115.61
-9115.61
-9115.61
-9115.61
-9115.61
-9115.6
-9115.6
-9115.6
-9115.6
-9115.6
-9115.6
-9115.6
-9115.6
-9115.6
-9115.6
-9115.6
-9115.59
-9115.59
-9115.59
-9115.59
-9115.59
-9115.59
-9115.59
-9115.59
-9115.59
-9115.59
-9115.59
-9295.79
-9295.79
-9295.79
-9295.79
-9295.79
-9295.8
-9295.8
-9295.8
-9301.39
-9301.41
-9301.42
-9301.43
-9301.45
-9301.48
-9301.52
-9301.57
-9301.62
-9301.68
-9301.76
-9301.84
-9301.93
-9302.03
-9302.13
-9302.25
-9302.37
-9302.5
-9302.64
-9302.77
-9302.92
-9303.06
-9303.21
-9303.36
-9303.5
-9303.64
-9303.78
-9303.92
-9304.04
-9304.16
-9304.27
-9304.37
-9304.46
-9304.54
-9304.61
-9304.67
-9304.71
-9304.74
-9304.76
-9304.76
-9304.76
-9304.75
-9304.72
-9304.69
-9304.65
-9304.6
-9304.55
-9304.5
-9304.44
-9304.38
-9304.32
-9304.26
-9304.19
-9304.13
-9304.07
-9304.02
-9303.96
-9303.91
-9303.86
-9303.81
-9303.77
-9303.73
-9303.69
-9303.66
-9303.63
-9303.6
-9303.57
-9303.55
-9303.53
-9303.52
-9303.5
-9303.49
-9303.48
-9303.47
-9303.47
-9303.46
-9303.46
-9303.46
-9303.46
-9303.46
-9303.46
-9303.47
-9303.47
-9303.48
-9303.48
-9303.49
-9303.5
-9303.5
-9303.51
-9303.52
-9303.53
-9303.54
-9303.55
-9303.56
-9303.56
-9303.57
-9303.58
-9303.59
-9303.6
-9303.61
-9303.62
-9303.62
-9303.63
-9303.64
-9303.65
-9303.65
-9303.66
-9303.67
-9303.67
-9303.68
-9303.68
-9303.69
-9303.69
-9303.69
-9303.7
-9303.7
-9303.7
-9303.71
-9303.71
-9303.71
-9303.71
-9303.72
-9303.72
-9303.72
-9303.72
-9303.72
-9303.72
-9303.72
-9303.72
-9303.72
-9303.72
-9303.72
-9303.72
-9303.72
-9303.71
-9303.71
-9303.71
-9303.71
-9303.71
-9303.71
-9303.71
-9303.71
-9303.71
-9303.7
-9303.7
-9303.7
-9303.7
-9303.7
-9303.7
-9303.7
-9303.7
-9303.7
-9303.7
-9303.69
-9303.69
-9303.69
-9303.69
-9303.69
-9303.69
-9303.69
-9303.69
-9303.69
-9303.69
-9303.69
-9303.69
-9303.69
-9303.69
-9303.69
-9303.69
-9303.69
-9303.68
-9303.68
-9303.68
-9461.91
-9461.91
-9461.91
-9461.91
-9461.91
-9461.91
-9461.91
-9461.91
-9467.85
-9467.87
-9467.88
-9467.9
-9467.92
-9467.96
-9468
-9468.05
-9468.11