/*--------------------------------*- C++ -*----------------------------------*\
  =========                 |
  \\      /  F ield         | OpenFOAM: The Open Source CFD Toolbox
   \\    /   O peration     | Website:  https://openfoam.org
    \\  /    A nd           | Version:  12
     \\/     M anipulation  |
\*---------------------------------------------------------------------------*/
FoamFile
{
    format      ascii;
    class       volScalarField;
    location    "0.02";
    object      epsilon;
}
// * * * * * * * * * * * * * * * * * * * * * * * * * * * * * * * * * * * * * //

dimensions      [0 2 -3 0 0 0 0];

internalField   nonuniform List<scalar> 
12225
(
278.485
263.583
249.33
236.734
226.671
219.506
215.249
213.686
214.475
217.222
221.541
227.079
233.54
240.69
248.381
256.533
265.355
278.994
61.067
86.6305
98.0162
107.428
119.028
133.668
151.341
171.697
194.218
218.34
243.543
269.408
295.658
322.2
349.282
377.362
409.032
446.173
25.2708
36.1703
43.3854
48.6795
53.549
58.6661
64.3524
70.7701
77.9751
85.9552
94.6635
104.045
114.063
124.726
136.137
148.569
162.738
179.925
17.5202
21.2988
24.7256
27.6445
30.2372
32.6783
35.0976
37.5909
40.2229
43.0353
46.0548
49.3027
52.8036
56.5975
60.7559
65.4183
70.8362
77.4379
15.4879
16.7538
18.1934
19.6075
20.9468
22.2149
23.4336
24.6302
25.8302
27.0549
28.3221
29.6485
31.0522
32.5569
34.198
36.0332
38.153
40.6751
14.9087
15.2408
15.7502
16.3434
16.9664
17.5923
18.21
18.8187
19.4221
20.0264
20.6384
21.2655
21.917
22.6045
23.344
24.1594
25.0841
26.1474
14.7453
14.7397
14.8357
15.0077
15.2304
15.4843
15.7559
16.0375
16.3254
16.6186
16.9178
17.2252
17.5442
17.88
18.2399
18.6338
19.0749
19.5687
14.7015
14.5828
14.5121
14.4871
14.5015
14.5472
14.6167
14.7041
14.8054
14.9177
15.0397
15.1712
15.3128
15.4665
15.6352
15.8233
16.0359
16.2724
14.6904
14.5375
14.4071
14.3009
14.2188
14.1589
14.1187
14.0955
14.0869
14.091
14.1065
14.1326
14.1691
14.2164
14.2758
14.3489
14.4378
14.5407
14.6877
14.5254
14.3761
14.2408
14.1198
14.0132
13.9204
13.8406
13.7728
13.7162
13.6701
13.6341
13.6077
13.5913
13.5852
13.5901
13.6067
13.6339
14.687
14.5224
14.3678
14.2233
14.0888
13.9644
13.8498
13.7447
13.649
13.5622
13.4841
13.4145
13.3533
13.3006
13.2566
13.2217
13.1961
13.1794
14.6868
14.5216
14.3658
14.2189
14.0806
13.9507
13.8289
13.715
13.6087
13.5099
13.4185
13.3342
13.2572
13.1875
13.1252
13.0705
13.0237
12.9845
14.6867
14.5214
14.3652
14.2176
14.0782
13.9465
13.8222
13.7049
13.5945
13.4907
13.3933
13.3024
13.2178
13.1395
13.0677
13.0024
12.9438
12.892
14.6867
14.5212
14.3649
14.2172
14.0775
13.9453
13.8203
13.7021
13.5903
13.4847
13.3852
13.2915
13.2037
13.1217
13.0454
12.9748
12.9101
12.8514
14.6866
14.5211
14.3648
14.217
14.0773
13.9451
13.8201
13.7017
13.5897
13.4838
13.3837
13.2894
13.2006
13.1173
13.0393
12.9666
12.8991
12.8372
14.6866
14.521
14.3647
14.2169
14.0773
13.9452
13.8202
13.7019
13.5901
13.4843
13.3843
13.2899
13.201
13.1173
13.0388
12.9652
12.8964
12.833
14.6865
14.5209
14.3645
14.2168
14.0772
13.9452
13.8204
13.7023
13.5907
13.4851
13.3853
13.2911
13.2022
13.1185
13.0397
12.9656
12.8962
12.8317
14.6864
14.5208
14.3644
14.2167
14.0772
13.9453
13.8207
13.7028
13.5914
13.4861
13.3865
13.2925
13.2037
13.1199
13.0409
12.9665
12.8965
12.8314
14.6864
14.5207
14.3643
14.2166
14.0772
13.9455
13.8211
13.7034
13.5923
13.4872
13.3879
13.294
13.2053
13.1216
13.0425
12.9678
12.8974
12.8317
14.6863
14.5206
14.3642
14.2167
14.0774
13.9459
13.8216
13.7042
13.5933
13.4884
13.3893
13.2956
13.2071
13.1234
13.0442
12.9695
12.8988
12.8327
14.6863
14.5206
14.3643
14.2168
14.0777
13.9464
13.8224
13.7053
13.5947
13.4902
13.3914
13.298
13.2098
13.1264
13.0475
12.973
12.9026
12.8366
14.6863
14.5206
14.3645
14.2174
14.0788
13.9481
13.8249
13.7088
13.5994
13.4962
13.399
13.3074
13.221
13.1396
13.0628
12.9904
12.9221
12.8584
14.6864
14.5212
14.3662
14.221
14.0851
13.9583
13.8401
13.73
13.6274
13.5318
13.4429
13.36
13.2829
13.2109
13.1438
13.0812
13.0227
12.9687
14.6875
14.5263
14.3795
14.2472
14.129
14.0241
13.9314
13.8495
13.7771
13.713
13.656
13.6053
13.5598
13.519
13.4825
13.4496
13.42
13.3938
14.6975
14.5661
14.4702
14.4066
14.3695
14.3533
14.3528
14.3634
14.382
14.4061
14.4338
14.464
14.4955
14.5279
14.5605
14.593
14.6253
14.6575
14.7734
14.8173
14.9571
15.1533
15.3765
15.6082
15.8379
16.0603
16.2734
16.4769
16.6712
16.8571
17.0354
17.2071
17.373
17.5336
17.6895
17.8408
15.2581
16.1112
17.0606
17.9528
18.7567
19.479
20.133
20.7334
21.2935
21.8241
22.3332
22.8268
23.3092
23.7832
24.2507
24.7129
25.1701
25.6205
18.0384
21.9946
24.959
27.1037
28.8135
30.2966
31.6615
32.9739
34.2736
35.5823
36.9104
38.2612
39.634
41.0252
42.4297
43.8421
45.257
46.6633
33.9888
45.5994
51.2457
54.7641
57.8348
60.9538
64.2711
67.8256
71.5985
75.5455
79.6167
83.7641
87.944
92.1185
96.2563
100.334
104.34
108.257
163.298
157.39
151.663
146.211
141.24
136.873
133.156
130.083
127.616
125.699
124.269
123.263
122.62
122.284
122.203
122.334
122.639
123.081
68.8379
104.936
121.46
132.558
139.89
144.677
147.742
149.613
150.572
150.688
149.965
149.333
151.347
155.855
163.091
173.403
186.906
203.066
220.147
235.391
246.712
253.696
260.134
279.474
322.88
378.616
443.828
515.25
589.865
665.146
739.148
810.472
878.182
941.708
1000.75
1055.22
1105.15
1150.67
1191.98
1229.3
1262.89
1293.02
1319.98
1344.05
1365.54
1384.74
1401.99
1417.62
1431.99
1445.47
1458.09
1469.32
1479.37
1488.47
1496.76
1504.4
1511.5
1518.16
1524.45
1530.44
1536.13
1541.5
1546.48
1550.96
1554.74
1557.57
1559.12
1558.96
1556.58
1551.39
1542.71
1529.82
1511.99
1488.54
1458.87
1422.59
1379.55
1329.9
1274.14
1213.07
1147.8
1079.65
1010.13
941.006
874.702
815.271
769.356
734.24
701.6
670.462
640.686
612.255
585.159
559.368
534.835
511.5
489.297
468.157
448.013
428.8
410.458
392.933
376.178
360.151
344.818
330.149
316.123
302.721
289.933
277.753
266.177
255.209
244.853
235.116
226.006
217.531
209.695
202.502
195.948
190.024
184.703
179.942
175.674
171.832
168.366
165.244
162.437
159.919
157.665
155.649
153.847
152.237
150.798
149.511
148.36
147.332
146.412
145.592
144.862
144.214
143.64
143.136
142.694
142.311
141.981
141.701
141.466
141.272
141.117
140.996
140.907
140.848
140.814
140.805
140.816
140.847
140.894
140.956
141.031
141.115
141.207
141.305
141.405
141.504
141.599
141.686
141.759
141.811
141.833
141.814
141.738
141.586
141.327
140.922
140.313
139.407
138.079
136.052
133.17
127.752
121.602
111.389
106.479
103.521
102.399
103.191
105.927
110.672
117.587
127.022
139.739
157.737
181.427
212.068
251.797
303.425
369.932
453.896
555.557
650.541
731.351
791.097
826.107
838.057
831.834
813.106
787.332
758.475
729.236
701.308
675.631
652.631
632.391
614.794
599.612
586.571
575.39
565.808
557.594
550.562
544.563
539.496
535.301
531.957
529.481
527.927
527.381
527.961
529.799
533.015
537.805
542.711
547.658
552.663
557.748
562.935
568.246
573.699
579.312
585.094
591.05
597.172
603.441
609.82
616.254
622.658
628.918
634.881
640.347
645.065
648.729
650.979
651.412
649.6
645.122
637.604
626.766
612.469
594.751
573.843
550.161
524.285
496.911
468.818
440.827
413.734
388.5
366.543
346.003
326.586
308.243
290.95
274.677
259.379
245.003
231.489
218.776
206.806
195.523
184.873
174.808
165.286
156.267
147.717
139.605
131.906
124.597
117.659
111.074
104.829
98.9133
93.3163
88.0305
83.0491
78.3665
73.9775
69.8775
66.0618
62.5256
59.2645
56.2761
53.5644
51.1547
49.1249
47.4123
45.9404
44.6584
43.5241
42.5151
41.6195
40.8261
40.1247
39.5062
38.962
38.4849
38.0678
37.7048
37.3903
37.1193
36.8872
36.6902
36.5244
36.3865
36.2735
36.1827
36.1117
36.0582
36.0205
35.9967
35.9854
35.9853
35.9952
36.0141
36.0412
36.0758
36.1172
36.165
36.2188
36.2784
36.3437
36.4149
36.492
36.5758
36.667
36.7667
36.8765
36.9988
37.1367
37.2946
37.4784
37.6967
37.962
38.2927
38.7172
39.2802
40.0568
41.1775
42.8867
45.6414
50.7333
154.751
138.389
131.463
128.885
129.888
134.261
142.144
154.029
170.906
194.694
227.4
268.41
320.955
385.072
459.117
540.905
624.248
700.149
758.72
791.801
798.345
782.065
749.471
707.746
663.013
619.578
580.023
545.567
516.541
492.737
473.64
458.59
446.882
437.841
430.866
425.462
421.247
417.952
415.4
413.491
412.172
411.421
411.231
411.594
412.5
413.932
415.864
418.262
421.085
424.277
427.555
430.76
433.88
436.938
439.968
443.019
446.149
449.419
452.896
456.647
460.736
465.224
470.163
475.591
481.529
487.976
494.894
502.206
509.778
517.411
524.826
531.662
537.47
541.736
543.902
543.421
539.808
532.716
521.982
507.674
490.085
469.708
447.175
423.189
398.432
373.448
349.92
328.29
307.904
288.667
270.573
253.609
237.745
222.931
209.106
196.204
184.156
172.896
162.359
152.488
143.227
134.527
126.345
118.64
111.377
104.526
98.0585
91.9503
86.1801
80.7293
75.5814
70.7217
66.1377
61.8178
57.752
53.9312
50.347
46.9916
43.8578
40.9388
38.2285
35.7211
33.4115
31.2951
29.3629
27.6038
26.0084
24.5758
23.2955
22.1511
21.1276
20.213
19.3986
18.6763
18.0381
17.4768
16.9851
16.5565
16.1846
15.8637
15.5883
15.3534
15.1543
14.9868
14.8471
14.7317
14.6376
14.5619
14.5023
14.4565
14.4226
14.3991
14.3845
14.3775
14.377
14.3823
14.3924
14.4068
14.4251
14.4466
14.4713
14.499
14.5296
14.5631
14.5999
14.6403
14.685
14.735
14.7917
14.857
14.9337
15.026
15.1402
15.286
15.4793
15.7467
16.1381
16.7466
17.7918
19.7071
176.484
184.628
174.179
172.259
176.868
187.193
203.492
226.866
259.143
298.895
344.75
397.223
455.317
516.268
575.702
627.959
666.96
687.96
689.132
672.21
641.938
604.125
564.107
525.89
491.937
463.379
440.399
422.614
409.362
399.888
393.446
389.358
387.038
386.006
385.892
386.427
387.434
388.806
390.485
392.438
394.645
397.083
399.719
402.509
405.396
408.312
411.184
413.938
416.506
418.822
420.678
422.032
422.895
423.304
423.321
423.028
422.528
421.94
421.398
421.043
421.023
421.485
422.574
424.42
427.138
430.82
435.523
441.257
447.973
455.542
463.739
472.227
480.544
488.11
494.25
498.244
499.397
497.129
491.058
481.065
467.315
450.228
430.415
408.582
385.443
361.838
339.669
318.539
298.418
279.363
261.418
244.591
228.862
214.188
200.509
187.762
175.878
164.791
154.437
144.757
135.695
127.201
119.231
111.743
104.701
98.0719
91.8271
85.9404
80.3888
75.1517
70.2106
65.5494
61.1533
57.0094
53.1059
49.4325
45.9795
42.7384
39.7013
36.8607
34.2099
31.742
29.4506
27.3293
25.3713
23.5696
21.9174
20.4081
19.0347
17.79
16.6681
15.6617
14.761
13.9568
13.2415
12.6077
12.0484
11.5567
11.1262
10.7509
10.425
10.1433
9.90088
9.69316
9.51606
9.36582
9.23906
9.13276
9.04422
8.97104
8.91111
8.86258
8.82384
8.79349
8.77032
8.75328
8.74149
8.7342
8.73077
8.7307
8.73356
8.73902
8.74686
8.75692
8.76917
8.78364
8.80052
8.82012
8.84296
8.86982
8.90184
8.94074
8.98911
9.05094
9.13267
9.24507
9.40746
9.65579
10.0661
10.7795
770.381
299.439
239.333
232.389
239.935
255.803
279.061
309.209
343.408
381.334
422.189
464.052
504.141
539.103
565.505
580.514
582.649
572.326
551.833
524.719
494.864
465.597
439.25
417.106
399.591
386.556
377.532
371.92
369.106
368.512
369.625
372.007
375.303
379.241
383.628
388.335
393.286
398.429
403.728
409.142
414.616
420.083
425.457
430.639
435.519
439.985
443.929
447.248
449.855
451.618
452.381
452.095
450.752
448.382
445.043
440.831
435.877
430.345
424.428
418.35
412.353
406.694
401.635
397.434
394.336
392.562
392.297
393.68
396.781
401.585
407.969
415.67
424.27
433.18
441.65
448.816
453.776
455.697
453.939
448.151
438.324
424.776
408.072
388.923
368.122
347.444
327.231
307.598
288.72
270.733
253.717
237.705
222.69
208.643
195.517
183.256
171.802
161.094
151.078
141.698
132.905
124.654
116.902
109.614
102.753
96.2904
90.1981
84.4512
79.0274
73.9066
69.0708
64.5037
60.1907
56.1186
52.2756
48.6512
45.2358
42.0209
38.9986
36.1619
33.5042
31.0194
28.7015
26.5449
24.544
22.6931
20.9866
19.4186
17.9833
16.6744
15.4858
14.4111
13.444
12.5777
11.8044
11.1167
10.5077
9.97049
9.4985
9.08552
8.72562
8.41326
8.14327
7.91084
7.71158
7.54146
7.39685
7.27445
7.17132
7.08487
7.01277
6.953
6.90379
6.86358
6.83106
6.80506
6.78461
6.76887
6.75713
6.74881
6.7434
6.74051
6.73982
6.74109
6.74416
6.74893
6.75539
6.76362
6.77381
6.78628
6.80157
6.82048
6.84424
6.87478
6.91518
6.97048
7.04941
7.16771
7.35461
7.66032
861.63
361.464
300.711
296.198
306.572
324.585
346.524
370.493
396.351
422.935
448.523
471.069
488.5
499.077
501.748
496.422
484.053
466.478
446.025
425.037
405.46
388.616
375.192
365.365
358.969
355.654
354.988
356.527
359.849
364.571
370.366
376.966
384.164
391.814
399.812
408.087
416.585
425.249
434.018
442.811
451.529
460.057
468.26
475.995
483.111
489.455
494.877
499.239
502.416
504.183
504.438
503.111
500.162
495.584
489.403
481.691
472.565
462.19
450.781
438.605
425.974
413.241
400.788
389.018
378.333
369.123
361.744
356.501
353.626
353.257
355.41
359.947
366.545
374.671
383.568
392.287
399.758
404.911
406.835
404.912
398.923
389.039
375.752
359.763
342.7
325.171
307.568
290.226
273.397
257.251
241.89
227.359
213.668
200.798
188.715
177.377
166.736
156.745
147.359
138.533
130.228
122.405
115.03
108.073
101.504
95.2987
89.4323
83.8839
78.6338
73.6644
68.9596
64.5047
60.2863
56.2926
52.5125
48.9363
45.5552
42.3614
39.3478
36.5081
33.8365
31.3278
28.9772
26.7802
24.7321
22.8288
21.0657
19.4382
17.9414
16.5703
15.3194
14.1831
13.1554
12.2301
11.4011
10.6617
10.0049
9.42397
8.91242
8.46384
8.07215
7.73159
7.43671
7.18244
6.9641
6.77739
6.61836
6.48347
6.36953
6.27368
6.19341
6.12648
6.07096
6.02514
5.98756
5.95695
5.93223
5.91249
5.89694
5.88493
5.8759
5.8694
5.86506
5.8626
5.86177
5.86242
5.86445
5.86783
5.8726
5.87891
5.887
5.89729
5.91047
5.92756
5.95025
5.98125
6.02506
6.08946
6.18745
6.33893
826.978
403.74
354.864
352.925
362.627
375.72
390.445
405.669
420.314
433.209
443.166
449.139
450.417
446.796
438.644
426.868
412.76
397.771
383.273
370.379
359.842
352.054
347.112
344.907
345.203
347.702
352.082
358.028
365.252
373.502
382.568
392.29
402.547
413.249
424.327
435.717
447.354
459.155
471.024
482.84
494.467
505.747
516.509
526.575
535.759
543.875
550.741
556.183
560.045
562.068
562.201
560.367
556.496
550.545
542.497
532.381
520.266
506.277
490.596
473.472
455.218
436.218
416.918
397.821
379.465
362.409
347.197
334.33
324.235
317.232
313.501
313.048
315.674
320.945
328.167
336.391
344.465
351.164
355.359
356.18
353.187
346.411
336.248
324.04
310.428
296.015
281.289
266.625
252.286
238.446
225.207
212.618
200.692
189.418
178.771
168.719
159.228
150.261
141.785
133.767
126.177
118.988
112.175
105.714
99.5833
93.7645
88.2391
82.9907
78.0042
73.2653
68.7611
64.4798
60.4103
56.5426
52.8676
49.3769
46.0631
42.9196
39.9406
37.1208
34.4556
31.941
29.5735
27.3497
25.2666
23.3211
21.5101
19.8304
18.2785
16.8503
15.5416
14.3477
13.2634
12.2832
11.4014
10.612
9.90865
9.28498
8.73446
8.25073
7.82761
7.45915
7.13973
6.86401
6.62706
6.42428
6.25148
6.10483
5.98089
5.87657
5.78912
5.71611
5.65543
5.60521
5.56385
5.52997
5.50239
5.48008
5.46221
5.44804
5.43698
5.42852
5.42226
5.41785
5.41502
5.41358
5.41337
5.41431
5.41637
5.41958
5.42406
5.43005
5.43793
5.44833
5.46225
5.48132
5.50811
5.54694
5.60441
5.68928
896.171
442.46
391.6
387.589
394.07
403.062
411.874
419.157
424.096
426.174
425.113
420.889
413.764
404.284
393.223
381.485
369.978
359.513
350.727
344.048
339.705
337.755
338.125
340.653
345.124
351.298
358.93
367.793
377.685
388.437
399.916
412.02
424.669
437.796
451.335
465.214
479.342
493.613
507.894
522.034
535.86
549.186
561.813
573.535
584.144
593.433
601.202
607.257
611.419
613.501
613.485
611.298
606.861
600.113
591.011
579.547
565.749
549.689
531.495
511.358
489.537
466.372
442.286
417.787
393.463
369.963
347.972
328.17
311.183
297.53
287.574
281.465
279.116
280.189
284.079
289.906
296.544
302.73
307.25
309.06
307.559
302.799
295.364
285.897
275.028
263.33
251.269
239.196
227.353
215.891
204.897
194.406
184.425
174.942
165.934
157.375
149.238
141.495
134.122
127.096
120.397
114.007
107.908
102.085
96.5256
91.2158
86.144
81.299
76.6706
72.2489
68.0249
63.9898
60.1357
56.455
52.9408
49.5868
46.3873
43.3373
40.4323
37.6685
35.0426
32.5521
30.1946
27.9683
25.8716
23.9029
22.0607
20.3432
18.7483
17.2734
15.9156
14.6714
13.5366
12.5067
11.5766
10.7409
9.99387
9.32953
8.74165
8.22397
7.7703
7.37463
7.03117
6.73442
6.47919
6.26065
6.07436
5.91625
5.78261
5.67013
5.57584
5.49713
5.43168
5.37749
5.33281
5.29613
5.26618
5.24184
5.22219
5.20646
5.19397
5.18419
5.17667
5.17103
5.16697
5.16426
5.16272
5.16222
5.16268
5.16409
5.16649
5.17
5.17486
5.18147
5.19047
5.20291
5.2204
5.24557
5.28216
5.33451
935.687
455.862
401.609
396.844
402.234
408.956
414.047
416.275
415.259
411.135
404.354
395.553
385.469
374.862
364.463
354.912
346.727
340.29
335.846
333.518
333.33
335.219
339.061
344.687
351.907
360.519
370.334
381.181
392.916
405.422
418.611
432.409
446.757
461.591
476.842
492.422
508.222
524.11
539.93
555.505
570.639
585.122
598.735
611.259
622.47
632.154
640.104
646.128
650.01
651.735
651.292
648.624
643.663
636.351
626.644
614.519
599.981
583.068
563.863
542.498
519.167
494.135
467.747
440.437
412.739
385.286
358.794
334.031
311.768
292.702
277.395
266.153
258.968
255.556
255.373
257.632
261.309
265.215
268.221
269.249
267.796
263.863
257.732
249.876
240.833
231.108
221.114
211.152
201.425
192.048
183.077
174.528
166.389
158.639
151.25
144.194
137.444
130.977
124.774
118.817
113.093
107.589
102.295
97.2025
92.303
87.5896
83.0559
78.6955
74.5027
70.4719
66.5977
62.8747
59.2981
55.863
52.5649
49.3996
46.3632
43.4524
40.6643
37.9966
35.4474
33.0153
30.6997
28.4999
26.4159
24.4477
22.5952
20.8583
19.2365
17.7288
16.3337
15.0491
13.8722
12.7995
11.827
10.9499
10.1631
9.46135
8.83864
8.28901
7.80637
7.38472
7.0182
6.70117
6.42828
6.19449
5.99513
5.8259
5.68287
5.56252
5.46166
5.37748
5.30752
5.24959
5.20182
5.16259
5.13051
5.10439
5.08323
5.06618
5.05254
5.04173
5.03324
5.02669
5.02174
5.01813
5.01567
5.01418
5.01358
5.0138
5.01483
5.01674
5.01967
5.02388
5.02981
5.03817
5.05006
5.06718
5.09188
5.12657
937.905
447.115
391.011
385.9
391.181
397.413
401.382
401.9
398.84
392.718
384.391
374.818
364.914
355.454
347.043
340.116
334.958
331.734
330.513
331.291
334.005
338.545
344.769
352.51
361.593
371.848
383.119
395.272
408.199
421.815
436.053
450.858
466.175
481.945
498.092
514.52
531.109
547.712
564.159
580.259
595.803
610.569
624.329
636.851
647.907
657.276
664.747
670.13
673.258
674.223
673.036
669.671
664.089
656.255
646.137
633.721
619.008
602.023
582.822
561.495
538.186
513.094
486.477
458.666
430.084
401.265
372.855
345.596
320.287
297.718
278.628
263.516
252.403
245.024
240.844
239.15
239.092
239.648
239.866
238.975
236.468
232.178
226.241
219.004
210.904
202.361
193.723
185.239
177.062
169.272
161.892
154.911
148.301
142.024
136.043
130.323
124.834
119.552
114.456
109.531
104.765
100.148
95.6726
91.3338
87.1269
83.0485
79.0956
75.2656
71.5559
67.9644
64.4885
61.1261
57.8747
54.7319
51.6954
48.763
45.9327
43.2025
40.5712
38.0376
35.6013
33.2621
31.0205
28.8773
26.8338
24.8914
23.0515
21.3157
19.6851
18.1603
16.7416
15.4283
14.2191
13.1119
12.1038
11.191
10.3693
9.63393
8.97951
8.40042
7.89081
7.44478
7.05648
6.72022
6.4305
6.18213
5.97026
5.79038
5.63836
5.51045
5.40331
5.31392
5.23966
5.1782
5.12754
5.08592
5.05187
5.02412
5.0016
4.98339
4.96875
4.95704
4.94775
4.94044
4.93477
4.93045
4.92725
4.92502
4.9236
4.92293
4.92297
4.92372
4.92529
4.92784
4.93167
4.93731
4.94553
4.95752
4.97488
4.99911
903.283
422.582
366.265
361.058
366.83
373.877
378.758
380.194
378.064
372.959
365.841
357.764
349.684
342.358
336.323
331.921
329.34
328.659
329.879
332.944
337.758
344.19
352.089
361.292
371.635
382.965
395.145
408.062
421.627
435.77
450.436
465.578
481.148
497.087
513.322
529.755
546.266
562.706
578.906
594.671
609.793
624.048
637.208
649.04
659.313
667.802
674.289
678.569
680.595
680.493
678.312
674.068
667.761
659.388
648.946
636.438
621.879
605.292
586.721
566.229
543.919
519.968
494.566
467.94
440.397
412.341
384.293
356.887
330.847
306.898
285.828
268.435
254.638
244.163
236.48
230.937
226.877
223.656
220.639
217.228
212.959
207.604
201.19
193.941
186.186
178.256
170.426
162.889
155.754
149.065
142.818
136.982
131.512
126.361
121.48
116.83
112.375
108.085
103.939
99.9179
96.0088
92.2014
88.4884
84.8644
81.3259
77.8704
74.4963
71.2028
67.9891
64.8548
61.7995
58.8229
55.9244
53.1036
50.3596
47.692
45.0999
42.583
40.1409
37.7737
35.4818
33.2663
31.1284
29.0701
27.0938
25.2021
23.398
21.6843
20.0637
18.5386
17.1109
15.7815
14.5508
13.4181
12.3819
11.4397
10.5882
9.82345
9.14073
8.53493
8.00056
7.53192
7.12327
6.7689
6.46328
6.20109
5.97732
5.78729
5.62669
5.49159
5.37845
5.28412
5.20578
5.14097
5.08757
5.04372
5.00783
4.97857
4.95478
4.9355
4.91994
4.90743
4.89741
4.88943
4.88311
4.87817
4.87435
4.87146
4.86937
4.86797
4.8672
4.86704
4.86755
4.86884
4.87114
4.87482
4.88047
4.88897
4.90148
4.91904
840.439
389.038
334.057
328.89
335.294
343.72
350.595
354.469
355.041
352.746
348.432
343.09
337.644
332.842
329.215
327.096
326.668
327.997
331.073
335.831
342.164
349.937
358.997
369.181
380.332
392.295
404.944
418.171
431.894
446.048
460.582
475.453
490.617
506.019
521.594
537.251
552.879
568.342
583.479
598.109
612.034
625.043
636.919
647.44
656.383
663.529
668.654
671.533
672.229
670.886
667.588
662.393
655.341
646.466
635.797
623.365
609.201
593.342
575.825
556.688
535.951
513.871
490.601
466.261
441.059
415.284
389.324
363.677
338.948
315.804
294.901
276.711
261.342
248.549
237.846
228.727
220.815
213.832
207.474
201.354
195.082
188.397
181.231
173.698
166.014
158.417
151.103
144.205
137.788
131.865
126.411
121.38
116.72
112.377
108.299
104.442
100.769
97.2476
93.8523
90.5626
87.3625
84.2396
81.1844
78.1899
75.2514
72.3653
69.5298
66.7436
64.0065
61.3183
58.6795
56.0904
53.5516
51.0634
48.6263
46.2404
43.9061
41.6237
39.3937
37.2168
35.0941
33.0271
31.018
29.0694
27.1843
25.3665
23.6199
21.9487
20.3568
18.8483
17.4264
16.0941
14.8531
13.7045
12.6483
11.6832
10.8073
10.0176
9.31012
8.68045
8.12357
7.63411
7.20652
6.83518
6.51455
6.23926
6.00417
5.80447
5.63568
5.49372
5.37486
5.27579
5.19356
5.12558
5.06957
5.02359
4.98596
4.95526
4.93027
4.90999
4.89356
4.88028
4.86957
4.86095
4.85403
4.8485
4.84409
4.84061
4.83789
4.83584
4.83435
4.83342
4.83304
4.83331
4.83439
4.83657
4.84031
4.84628
4.8554
4.86844
776.329
354.241
299.917
294.527
301.36
311.139
320.264
327.114
331.137
332.486
331.76
329.769
327.346
325.211
323.917
323.837
325.194
328.091
332.543
338.501
345.869
354.519
364.302
375.066
386.664
398.895
411.625
424.762
438.221
451.937
465.855
479.931
494.123
508.383
522.651
536.853
550.892
564.651
577.992
590.757
602.772
613.852
623.802
632.426
639.528
644.908
648.365
649.675
648.967
646.377
642.011
635.957
628.291
619.08
608.383
596.258
582.756
567.931
551.833
534.519
516.055
496.541
476.074
454.76
432.739
410.203
387.417
364.734
342.6
321.525
301.992
284.317
268.506
254.253
241.12
228.823
217.362
206.879
197.402
188.738
180.562
172.584
164.662
156.81
149.144
141.805
134.911
128.532
122.688
117.362
112.51
108.079
104.012
100.254
96.7556
93.4739
90.3719
87.4186
84.5879
81.8582
79.2117
76.634
74.1136
71.6413
69.2101
66.8149
64.452
62.1192
59.8149
57.5386
55.2903
53.0702
50.8788
48.7168
46.5848
44.4834
42.4132
40.3749
38.3693
36.3973
34.4603
32.56
30.6988
28.8796
27.106
25.3821
23.7127
22.1026
20.5571
19.0814
17.6803
16.3581
15.1184
13.9638
12.8958
11.9148
11.0202
10.2101
9.48148
8.83081
8.25365
7.74511
7.29993
6.91266
6.57783
6.29007
6.04416
5.83517
5.65851
5.50993
5.38556
5.28192
5.19594
5.12488
5.06636
5.01833
4.97901
4.94692
4.92077
4.89949
4.88221
4.86817
4.85678
4.84752
4.84
4.83387
4.82888
4.82481
4.82149
4.8188
4.81665
4.81499
4.81382
4.81319
4.81324
4.8142
4.81644
4.8205
4.82712
4.83693
780.782
324.635
266.388
260.936
268.106
278.966
290.081
299.768
307.26
312.409
315.507
317.114
317.9
318.521
319.535
321.353
324.254
328.396
333.841
340.577
348.535
357.605
367.653
378.527
390.068
402.112
414.521
427.179
439.994
452.885
465.792
478.662
491.45
504.111
516.593
528.834
540.757
552.269
563.26
573.604
583.161
591.78
599.306
605.58
610.446
613.75
615.337
615.04
612.995
609.312
604.099
597.459
589.489
580.278
569.909
558.456
545.987
532.564
518.245
503.088
487.148
470.487
453.169
435.264
416.86
398.076
379.074
360.081
341.382
323.294
306.076
289.794
274.234
258.979
243.705
228.493
213.831
200.291
188.168
177.384
167.634
158.601
150.083
142.018
134.437
127.394
120.933
115.06
109.753
104.964
100.635
96.7054
93.117
89.8182
86.7638
83.9152
81.2394
78.7086
76.2989
73.9897
71.7638
69.606
67.504
65.447
63.4265
61.4357
59.4691
57.5229
55.5941
53.681
51.7825
49.898
48.0276
46.1714
44.3297
42.503
40.6917
38.8962
37.1173
35.3557
33.6127
31.8898
30.1893
28.5139
26.8672
25.2534
23.6776
22.1452
20.6622
19.2345
17.8684
16.5693
15.3424
14.1918
13.1206
12.131
11.2236
10.3977
9.65177
8.98301
8.3878
7.86185
7.40032
6.99804
6.64969
6.34994
6.09356
5.87556
5.69123
5.53617
5.40639
5.29828
5.20861
5.13452
5.07352
5.02346
4.98248
4.94899
4.92168
4.89941
4.88126
4.86646
4.85435
4.84444
4.83629
4.82955
4.82396
4.81928
4.81534
4.81201
4.8092
4.80684
4.80493
4.80349
4.80263
4.80254
4.80354
4.80609
4.81078
4.81819
176.368
259.345
232.09
229.826
237.534
249.107
261.697
273.682
284.161
292.765
299.508
304.679
308.734
312.187
315.532
319.183
323.462
328.585
334.677
341.783
349.882
358.905
368.742
379.261
390.315
401.754
413.439
425.243
437.058
448.794
460.374
471.738
482.832
493.611
504.026
514.026
523.554
532.541
540.905
548.556
555.392
561.303
566.178
569.904
572.373
573.483
573.143
571.271
567.996
563.405
557.6
550.681
542.751
533.907
524.238
513.826
502.744
491.057
478.821
466.089
452.906
439.315
425.356
411.072
396.51
381.73
366.814
351.867
337.008
322.321
307.763
293.061
277.726
261.302
243.77
225.766
208.321
192.342
178.239
165.932
155.089
145.362
136.514
128.432
121.076
114.429
108.465
103.136
98.3781
94.12
90.2905
86.8244
83.6652
80.7649
78.084
75.5894
73.2538
71.0537
68.9692
66.9827
65.0786
63.2432
61.4644
59.7316
58.0355
56.3682
54.7235
53.0959
51.4815
49.8772
48.2807
46.6905
45.1058
43.5258
41.9502
40.379
38.8119
37.2491
35.6907
34.137
32.5888
31.047
29.5134
27.9904
26.481
24.9894
23.5202
22.0791
20.6724
19.3066
17.9885
16.7249
15.5221
14.3856
13.3201
12.3293
11.4152
10.5787
9.81936
9.13552
8.52454
7.98284
7.50613
7.08964
6.7283
6.41691
6.15028
5.92338
5.73142
5.56991
5.43473
5.32212
5.22874
5.1516
5.0881
5.03598
4.9933
4.95841
4.9299
4.90662
4.88757
4.87196
4.85913
4.84852
4.83971
4.83233
4.8261
4.82079
4.81622
4.81225
4.80877
4.80572
4.80309
4.80088
4.79919
4.79818
4.79813
4.79943
4.80261
4.80815
172.175
213.169
201.728
202.16
210.191
221.965
235.278
248.758
261.521
273.039
283.084
291.672
299.001
305.386
311.191
316.776
322.458
328.493
335.061
342.273
350.173
358.746
367.934
377.642
387.755
398.141
408.67
419.217
429.666
439.917
449.881
459.486
468.672
477.385
485.58
493.214
500.242
506.617
512.286
517.191
521.268
524.451
526.673
527.869
527.982
526.97
524.816
521.563
517.312
512.129
506.095
499.298
491.829
483.779
475.233
466.268
456.954
447.351
437.51
427.474
417.278
406.952
396.518
385.994
375.39
364.712
353.954
343.088
332.024
320.543
308.214
294.387
278.399
260.026
239.862
219.232
199.605
181.984
166.691
153.541
142.149
132.153
123.305
115.457
108.514
102.396
97.0179
92.2856
88.1047
84.3862
81.0514
78.0343
75.2814
72.75
70.4064
68.2237
66.18
64.2569
62.4389
60.7119
59.0634
57.482
55.957
54.4789
53.0389
51.6293
50.2433
48.8751
47.5199
46.1738
44.8335
43.4967
42.1615
40.8264
39.4904
38.1524
36.8118
35.4678
34.1198
32.7676
31.411
30.0504
28.6866
27.3212
25.9567
24.5965
23.2448
21.9069
20.5889
19.2977
18.0403
16.8243
15.6569
14.5448
13.4941
12.5099
11.5957
10.7537
9.98498
9.28915
8.66462
8.10869
7.61779
7.18767
6.81361
6.49064
6.21369
5.97774
5.77796
5.6098
5.46901
5.35173
5.25447
5.17414
5.10802
5.05374
5.00928
4.9729
4.94314
4.91877
4.89879
4.88233
4.86873
4.8574
4.8479
4.83985
4.83297
4.82701
4.82178
4.81715
4.81301
4.80929
4.80596
4.80303
4.80059
4.79876
4.79781
4.79808
4.80002
4.8041
175.682
180.636
177.437
180.785
189.326
201.036
214.47
228.592
242.633
256.034
268.428
279.636
289.64
298.556
306.589
313.991
321.026
327.937
334.926
342.148
349.699
357.625
365.921
374.546
383.425
392.463
401.552
410.582
419.444
428.036
436.267
444.058
451.34
458.058
464.163
469.615
474.378
478.418
481.702
484.198
485.873
486.695
486.635
485.671
483.788
480.994
477.327
472.972
467.995
462.457
456.427
449.982
443.202
436.165
428.948
421.618
414.237
406.856
399.518
392.258
385.101
378.062
371.146
364.34
357.61
350.887
344.04
336.838
328.884
319.545
307.948
293.19
274.812
253.307
230.172
207.335
186.364
168.032
152.397
139.12
127.78
118.024
109.602
102.336
96.0803
90.6966
86.0517
82.0188
78.4841
75.3507
72.5399
69.9899
67.6532
65.4942
63.4858
61.6073
59.8424
58.1778
56.6023
55.1057
53.6787
52.3126
50.9992
49.7305
48.4993
47.2985
46.122
44.9643
43.8204
42.6861
41.5579
40.4329
39.3085
38.1829
37.0541
35.9206
34.781
33.6339
32.4779
31.3121
30.1353
28.9472
27.7477
26.5375
25.318
24.0917
22.8622
21.634
20.4129
19.2053
18.0185
16.8603
15.7383
14.6603
13.6334
12.6637
11.7562
10.9147
10.1415
9.43766
8.80262
8.23474
7.73126
7.28859
6.90249
6.56831
6.28117
6.03617
5.82849
5.65353
5.50697
5.38483
5.28353
5.19986
5.13099
5.07444
5.02811
4.99017
4.95911
4.93363
4.91267
4.89536
4.88097
4.86892
4.85873
4.85003
4.8425
4.8359
4.83005
4.82479
4.82003
4.81567
4.8117
4.80813
4.80501
4.80249
4.80078
4.8002
4.80117
4.80409
173.654
162.151
160.883
165.667
174.453
185.935
199.155
213.361
227.927
242.329
256.154
269.112
281.041
291.899
301.744
310.709
318.972
326.728
334.163
341.442
348.693
356.002
363.416
370.94
378.548
386.186
393.782
401.252
408.506
415.454
422.012
428.104
433.661
438.627
442.955
446.606
449.55
451.764
453.228
453.93
453.858
453.007
451.379
448.98
445.83
441.967
437.461
432.554
427.306
421.784
416.059
410.204
404.294
398.401
392.591
386.926
381.459
376.236
371.291
366.65
362.326
358.316
354.595
351.104
347.73
344.271
340.392
335.55
328.932
319.466
306.029
287.953
265.608
240.574
215.105
191.231
170.142
152.153
137.021
124.306
113.587
104.534
96.8957
90.4625
85.0461
80.4706
76.5754
73.2202
70.2879
67.6856
65.3416
63.2022
61.2285
59.3919
57.6719
56.0534
54.5249
53.0773
51.7029
50.3947
49.1462
47.9512
46.8035
45.6971
44.6259
43.5844
42.5673
41.5696
40.5868