/*--------------------------------*- C++ -*----------------------------------*\
  =========                 |
  \\      /  F ield         | OpenFOAM: The Open Source CFD Toolbox
   \\    /   O peration     | Website:  https://openfoam.org
    \\  /    A nd           | Version:  12
     \\/     M anipulation  |
\*---------------------------------------------------------------------------*/
FoamFile
{
    format      ascii;
    class       volScalarField;
    location    "0.02";
    object      k;
}
// * * * * * * * * * * * * * * * * * * * * * * * * * * * * * * * * * * * * * //

dimensions      [0 2 -2 0 0 0 0];

internalField   nonuniform List<scalar> 
12225
(
0.353883
0.334946
0.316834
0.300829
0.288042
0.278938
0.273533
0.271551
0.27256
0.276061
0.281561
0.288614
0.296842
0.30595
0.315746
0.326129
0.337345
0.354844
0.436651
0.448605
0.437824
0.433121
0.439388
0.455011
0.477369
0.504045
0.533077
0.563008
0.59285
0.622005
0.650203
0.677453
0.704163
0.730815
0.760278
0.793068
0.395152
0.410728
0.410418
0.405567
0.401948
0.401073
0.403088
0.407745
0.414656
0.423395
0.433573
0.444865
0.457039
0.469971
0.483712
0.49848
0.515188
0.534662
0.379625
0.384794
0.386485
0.385669
0.383862
0.382029
0.380652
0.379957
0.380024
0.380851
0.382401
0.38463
0.387507
0.391032
0.395273
0.400388
0.406731
0.414683
0.374974
0.375889
0.376214
0.375681
0.374521
0.373034
0.371461
0.369967
0.368656
0.367588
0.366795
0.366297
0.366111
0.366263
0.366805
0.367823
0.369463
0.371849
0.37349
0.37255
0.37174
0.370772
0.369582
0.368213
0.36674
0.365232
0.363749
0.362335
0.361025
0.359842
0.358812
0.35796
0.357322
0.356945
0.356894
0.357209
0.373015
0.371294
0.369798
0.368387
0.36698
0.365549
0.364091
0.362623
0.361164
0.359735
0.358358
0.357049
0.355829
0.354717
0.35374
0.352926
0.35231
0.351908
0.372868
0.370839
0.368994
0.367286
0.365671
0.364117
0.362604
0.361125
0.35968
0.358273
0.356914
0.35561
0.354375
0.353223
0.352171
0.35124
0.350449
0.34981
0.372824
0.370683
0.368685
0.366817
0.365061
0.363398
0.361811
0.36029
0.358829
0.357424
0.356077
0.354791
0.353573
0.352431
0.351378
0.350427
0.34959
0.348878
0.37281
0.370632
0.368575
0.366634
0.364802
0.363068
0.361423
0.359858
0.358369
0.356949
0.355599
0.354317
0.353108
0.351977
0.350932
0.349981
0.349133
0.348396
0.372805
0.370615
0.368537
0.366568
0.364701
0.362931
0.361251
0.359657
0.358143
0.356706
0.355344
0.354057
0.352847
0.351717
0.350672
0.349718
0.348861
0.348106
0.372803
0.370609
0.368525
0.366546
0.364668
0.362883
0.361189
0.35958
0.358052
0.356604
0.355233
0.35394
0.352725
0.35159
0.350539
0.349576
0.348705
0.347932
0.372802
0.370606
0.36852
0.366538
0.364655
0.362865
0.361165
0.359549
0.358015
0.356561
0.355184
0.353886
0.352665
0.351524
0.350466
0.349491
0.348604
0.347809
0.372801
0.370603
0.368516
0.366534
0.36465
0.362859
0.361157
0.35954
0.358004
0.356548
0.35517
0.353869
0.352644
0.351498
0.350431
0.349443
0.348538
0.34772
0.3728
0.370601
0.368514
0.366532
0.364648
0.362858
0.361157
0.359542
0.358008
0.356553
0.355176
0.353875
0.352649
0.351499
0.350424
0.349425
0.348501
0.347661
0.372799
0.370599
0.368512
0.36653
0.364647
0.362859
0.361161
0.359548
0.358017
0.356565
0.355191
0.353892
0.352666
0.351514
0.350434
0.349424
0.348486
0.347625
0.372798
0.370597
0.36851
0.366528
0.364647
0.362861
0.361165
0.359555
0.358028
0.35658
0.355209
0.353913
0.352689
0.351535
0.350451
0.349433
0.348482
0.347604
0.372796
0.370595
0.368507
0.366526
0.364646
0.362862
0.361169
0.359564
0.358041
0.356597
0.35523
0.353936
0.352714
0.35156
0.350471
0.349447
0.348485
0.347592
0.372795
0.370593
0.368505
0.366525
0.364646
0.362865
0.361176
0.359574
0.358055
0.356616
0.355253
0.353963
0.352742
0.351587
0.350497
0.349467
0.348496
0.347592
0.372794
0.370592
0.368504
0.366525
0.364649
0.362871
0.361185
0.359587
0.358073
0.356638
0.355278
0.35399
0.352771
0.351617
0.350525
0.349492
0.348516
0.347604
0.372794
0.370592
0.368505
0.366528
0.364655
0.36288
0.361198
0.359604
0.358094
0.356663
0.355307
0.354022
0.352806
0.351653
0.350561
0.349527
0.348549
0.347634
0.372794
0.370593
0.368508
0.366535
0.364667
0.362899
0.361223
0.359637
0.358134
0.35671
0.355361
0.354083
0.352871
0.351723
0.350634
0.349601
0.348623
0.347708
0.372795
0.370598
0.368522
0.366562
0.36471
0.36296
0.361305
0.359739
0.358256
0.35685
0.355516
0.354251
0.353049
0.351907
0.350821
0.349789
0.348809
0.347888
0.372803
0.37063
0.368597
0.366693
0.364902
0.363215
0.361619
0.360104
0.358661
0.357284
0.355969
0.354711
0.353508
0.352358
0.351258
0.350206
0.349202
0.348255
0.372853
0.370817
0.368978
0.36728
0.365674
0.364131
0.362632
0.361172
0.359747
0.35836
0.357013
0.355709
0.35445
0.35324
0.352079
0.350967
0.349907
0.348908
0.373164
0.371764
0.370575
0.369376
0.368067
0.366637
0.36512
0.363557
0.361988
0.360443
0.358945
0.357508
0.356144
0.354857
0.353651
0.352524
0.351477
0.350517
0.374797
0.375824
0.376154
0.375364
0.37379
0.371831
0.369747
0.367692
0.365758
0.363996
0.362432
0.361072
0.359914
0.358948
0.358159
0.357534
0.357055
0.35671
0.382733
0.391671
0.392354
0.388764
0.384316
0.380292
0.377073
0.374735
0.373245
0.372519
0.372462
0.372974
0.373962
0.375338
0.377025
0.378959
0.381079
0.383323
0.407343
0.414177
0.405018
0.395526
0.389965
0.388489
0.390334
0.394667
0.400752
0.408007
0.415988
0.424368
0.432905
0.441424
0.449802
0.457957
0.465855
0.473427
0.360531
0.347488
0.334844
0.322805
0.311831
0.302189
0.293981
0.287195
0.281746
0.277511
0.274352
0.272127
0.270702
0.269953
0.269769
0.270051
0.270715
0.271684
0.243638
0.283336
0.31241
0.33103
0.34283
0.350175
0.354559
0.356916
0.357756
0.357239
0.35538
0.353511
0.355699
0.361664
0.371695
0.386261
0.405482
0.428549
0.453186
0.475343
0.491874
0.501672
0.508331
0.526277
0.575922
0.639672
0.711605
0.787017
0.862409
0.93538
1.00443
1.06874
1.12793
1.18196
1.23095
1.27515
1.31486
1.35041
1.38213
1.41034
1.43537
1.4575
1.47702
1.49422
1.50935
1.52269
1.53449
1.54502
1.55455
1.56334
1.57162
1.57887
1.58527
1.59096
1.59609
1.60076
1.60507
1.60908
1.61287
1.61647
1.61991
1.62318
1.62624
1.62903
1.63144
1.6333
1.6344
1.63449
1.63322
1.63019
1.62496
1.61702
1.60581
1.59081
1.57148
1.54738
1.51821
1.48382
1.44427
1.39985
1.35108
1.29868
1.24357
1.18688
1.13021
1.07631
1.03018
0.996226
0.965872
0.93668
0.908373
0.880943
0.854416
0.828804
0.804097
0.780274
0.757299
0.73513
0.713723
0.693031
0.673012
0.653625
0.634834
0.616608
0.598921
0.581753
0.565089
0.548923
0.533253
0.518082
0.503422
0.489289
0.475705
0.462696
0.450293
0.438527
0.427431
0.417035
0.407364
0.398436
0.390254
0.382793
0.375997
0.36979
0.364106
0.358903
0.35415
0.34982
0.345885
0.342314
0.339076
0.336139
0.333476
0.331058
0.328861
0.326862
0.325042
0.323383
0.32187
0.320491
0.319233
0.318085
0.31704
0.316087
0.31522
0.314431
0.313713
0.313061
0.312468
0.31193
0.31144
0.310995
0.310589
0.31022
0.309881
0.30957
0.309284
0.309017
0.308768
0.308532
0.308305
0.308085
0.307865
0.307643
0.307412
0.307166
0.306897
0.306594
0.306246
0.305836
0.305341
0.304733
0.30397
0.302994
0.301722
0.300021
0.297709
0.294385
0.289812
0.281501
0.427605
0.519116
0.576615
0.6144
0.641086
0.662475
0.682358
0.703368
0.727469
0.756391
0.792222
0.838753
0.891621
0.955273
1.03433
1.13245
1.2505
1.38541
1.52908
1.64841
1.7369
1.79123
1.81235
1.80661
1.78289
1.74912
1.71207
1.67643
1.64543
1.62113
1.60464
1.59634
1.59602
1.60305
1.61656
1.63551
1.65881
1.68541
1.71431
1.74465
1.77567
1.80678
1.83751
1.8675
1.89653
1.92448
1.9513
1.97704
2.00183
2.02586
2.04848
2.07051
2.0922
2.11375
2.13537
2.15731
2.17977
2.20299
2.22718
2.25252
2.27919
2.30732
2.33697
2.36818
2.40087
2.4349
2.46998
2.50571
2.54149
2.57655
2.60991
2.64034
2.66645
2.68669
2.69943
2.70309
2.69627
2.67792
2.64746
2.60486
2.55068
2.48601
2.41238
2.33164
2.24571
2.15638
2.0663
1.98268
1.90183
1.82333
1.74736
1.67412
1.6037
1.53612
1.47133
1.40925
1.34975
1.29268
1.2379
1.18527
1.13464
1.08589
1.0389
0.993556
0.949763
0.907438
0.866506
0.826908
0.788591
0.751515
0.71565
0.680975
0.647476
0.615149
0.583998
0.554032
0.525266
0.49772
0.471415
0.446378
0.42264
0.400234
0.379184
0.359503
0.341217
0.324331
0.308836
0.294723
0.281934
0.270386
0.26
0.250697
0.242398
0.235024
0.228502
0.222758
0.217721
0.213325
0.209505
0.206203
0.20336
0.200926
0.198851
0.19709
0.195605
0.194359
0.193319
0.192456
0.191745
0.191164
0.190693
0.190316
0.190018
0.189785
0.189608
0.189478
0.189386
0.189326
0.189294
0.189285
0.189295
0.189324
0.189369
0.18943
0.189508
0.189604
0.189723
0.189867
0.190046
0.190269
0.19055
0.190913
0.191388
0.192028
0.19291
0.194176
0.19605
0.199072
0.20377
0.214455
0.540166
0.650826
0.739008
0.802751
0.851269
0.892326
0.932046
0.975535
1.0275
1.09314
1.17507
1.26685
1.37312
1.49279
1.62174
1.7545
1.87956
1.98266
2.05082
2.07646
2.06297
2.02012
1.96038
1.89582
1.83602
1.78732
1.75326
1.73525
1.73318
1.74587
1.77138
1.80727
1.85083
1.89936
1.95036
2.0017
2.05174
2.09934
2.14384
2.18494
2.22264
2.25712
2.28865
2.31751
2.34399
2.36835
2.3908
2.41153
2.4307
2.44844
2.46446
2.47899
2.49227
2.50458
2.51626
2.5277
2.53934
2.55163
2.56504
2.58004
2.59705
2.6165
2.63872
2.66399
2.69252
2.72437
2.75946
2.79755
2.83816
2.88053
2.92362
2.96602
3.006
3.04152
3.07033
3.09012
3.09868
3.09418
3.07532
3.04153
2.99299
2.93065
2.85608
2.77124
2.67825
2.57891
2.47954
2.38341
2.28922
2.1972
2.10776
2.02121
1.93777
1.85749
1.78036
1.70631
1.6352
1.56689
1.50122
1.43803
1.37716
1.31847
1.26182
1.20709
1.15416
1.10295
1.05336
1.00532
0.958766
0.91365
0.869931
0.827576
0.786566
0.746888
0.708538
0.671518
0.635838
0.601514
0.568563
0.53701
0.506878
0.478188
0.450946
0.425146
0.40079
0.377883
0.356422
0.336378
0.317743
0.300516
0.284689
0.270228
0.257071
0.245152
0.234403
0.224749
0.216118
0.208434
0.201623
0.195611
0.190328
0.185706
0.181678
0.178183
0.175163
0.172565
0.170338
0.168438
0.166822
0.165454
0.1643
0.16333
0.162517
0.161839
0.161275
0.160806
0.160419
0.160098
0.159834
0.159616
0.159437
0.159289
0.159166
0.159065
0.158981
0.158911
0.158854
0.158807
0.15877
0.158743
0.158727
0.158725
0.158743
0.158793
0.158895
0.159091
0.159452
0.160185
0.161533
0.164915
0.609997
0.786436
0.925419
1.01974
1.08962
1.14886
1.20739
1.2734
1.35376
1.44403
1.53956
1.64108
1.74604
1.84902
1.94248
2.01755
2.06578
2.08206
2.06687
2.0266
1.97189
1.91425
1.86352
1.82666
1.80755
1.80742
1.82552
1.85974
1.9072
1.96464
2.02878
2.09655
2.1653
2.23286
2.29763
2.35855
2.41506
2.46698
2.51439
2.55754
2.59676
2.63235
2.66454
2.69351
2.71934
2.74202
2.76151
2.77774
2.79063
2.80002
2.80563
2.80758
2.8061
2.80155
2.79437
2.78514
2.77452
2.76327
2.7522
2.74216
2.73402
2.72863
2.72682
2.72931
2.73677
2.74968
2.76841
2.79308
2.82354
2.85934
2.89961
2.94306
2.9879
3.03187
3.07234
3.10639
3.13112
3.14386
3.14248
3.12564
3.0929
3.04471
2.98233
2.90754
2.82241
2.72969
2.6369
2.54397
2.45149
2.36021
2.27076
2.18361
2.09905
2.01723
1.93818
1.86188
1.78826
1.71719
1.64857
1.58225
1.51812
1.45604
1.3959
1.33761
1.28106
1.22616
1.17285
1.12106
1.07074
1.02183
0.974319
0.928163
0.88335
0.839872
0.797726
0.756919
0.717466
0.679385
0.642702
0.607444
0.573641
0.541322
0.510511
0.481229
0.45349
0.427306
0.402683
0.379615
0.358087
0.338077
0.319541
0.30244
0.286751
0.272437
0.259428
0.247653
0.237036
0.227502
0.218972
0.211371
0.204622
0.198651
0.193388
0.188765
0.184718
0.181187
0.178116
0.175452
0.173149
0.171162
0.169452
0.167983
0.166723
0.165645
0.164721
0.163931
0.163255
0.162676
0.162178
0.16175
0.16138
0.161058
0.160778
0.160532
0.160314
0.16012
0.159945
0.159787
0.159642
0.159509
0.159385
0.159272
0.159169
0.159081
0.159014
0.158987
0.159027
0.15922
0.159625
0.160653
0.606053
0.941976
1.14703
1.2706
1.35769
1.42887
1.49683
1.56805
1.63839
1.70981
1.78224
1.85243
1.91543
1.96576
1.99853
2.01063
2.00185
1.97563
1.93858
1.89912
1.86554
1.84446
1.83997
1.85366
1.88502
1.93212
1.99215
2.06202
2.1386
2.21905
2.30083
2.38189
2.46062
2.53589
2.60702
2.67371
2.73592
2.7938
2.84755
2.89737
2.94337
2.98556
3.02385
3.05804
3.08785
3.11295
3.133
3.1477
3.15676
3.15961
3.15597
3.14577
3.12913
3.1063
3.07771
3.04395
3.00582
2.96427
2.92042
2.87554
2.831
2.78824
2.74873
2.71391
2.68514
2.66364
2.65044
2.64634
2.65178
2.66684
2.69109
2.72359
2.76272
2.80624
2.85131
2.89458
2.93251
2.96161
2.97884
2.98196
2.96969
2.94182
2.89903
2.84274
2.77489
2.70125
2.62418
2.54484
2.46438
2.38378
2.30378
2.22495
2.14764
2.07208
1.99839
1.92661
1.85675
1.78876
1.72258
1.65816
1.59542
1.53429
1.4747
1.4166
1.35993
1.30464
1.25068
1.19803
1.14664
1.0965
1.04758
0.999876
0.953384
0.908104
0.864047
0.821229
0.779671
0.739405
0.700464
0.662887
0.626715
0.59199
0.558753
0.527043
0.496894
0.468333
0.44138
0.416048
0.392335
0.370232
0.349713
0.330742
0.31327
0.297245
0.282632
0.269364
0.257367
0.24656
0.236863
0.228194
0.220472
0.213619
0.207557
0.202213
0.197516
0.193401
0.189807
0.186675
0.183953
0.181593
0.17955
0.177785
0.176262
0.174949
0.173818
0.172842
0.172001
0.171274
0.170645
0.170099
0.169624
0.169208
0.168842
0.168518
0.168229
0.167969
0.167734
0.167519
0.16732
0.167134
0.166959
0.166793
0.166635
0.166486
0.166348
0.166232
0.166152
0.166152
0.166256
0.166633
0.668878
1.12561
1.37854
1.5265
1.62502
1.69823
1.75412
1.79793
1.837
1.87332
1.90578
1.93168
1.94807
1.95292
1.9459
1.92879
1.90547
1.88127
1.86209
1.85323
1.85852
1.87991
1.91752
1.97007
2.03539
2.11086
2.19381
2.2817
2.37225
2.46349
2.55382
2.64204
2.72731
2.80914
2.8873
2.96176
3.03259
3.09987
3.16363
3.2238
3.28019
3.33249
3.38028
3.42305
3.46022
3.4912
3.51538
3.53221
3.54119
3.54126
3.53218
3.51371
3.48576
3.44835
3.40171
3.34625
3.28266
3.21183
3.13496
3.05348
2.96911
2.88377
2.79957
2.71874
2.64354
2.57618
2.51867
2.4728
2.43992
2.42092
2.4161
2.42502
2.44651
2.47852
2.51822
2.56203
2.60591
2.64569
2.67748
2.69811
2.70544
2.69841
2.67708
2.64234
2.59804
2.54686
2.49057
2.43067
2.36835
2.30461
2.24017
2.17559
2.11125
2.04743
1.98429
1.92194
1.86045
1.79987
1.74021
1.68148
1.62369
1.56684
1.51091
1.45592
1.40186
1.34872
1.29652
1.24524
1.19489
1.14549
1.09703
1.04952
1.00299
0.957454
0.912934
0.869463
0.827077
0.785817
0.74573
0.706868
0.669287
0.633044
0.598197
0.564804
0.532917
0.502586
0.473851
0.446742
0.421279
0.397468
0.375301
0.354758
0.335802
0.318386
0.302449
0.287946
0.274808
0.262957
0.252309
0.242779
0.234282
0.226735
0.220053
0.214159
0.208975
0.204431
0.200459
0.196996
0.193985
0.191372
0.189109
0.187153
0.185463
0.184006
0.182748
0.181664
0.180728
0.179919
0.179219
0.178611
0.178081
0.177617
0.177209
0.176848
0.176526
0.176237
0.175974
0.175734
0.175513
0.175305
0.175109
0.174921
0.174741
0.174566
0.1744
0.174246
0.174115
0.174032
0.174014
0.174155
0.670025
1.3009
1.58416
1.75048
1.85189
1.90996
1.94188
1.95823
1.96533
1.96626
1.96198
1.9525
1.93801
1.91957
1.89944
1.88092
1.86789
1.86413
1.87271
1.89556
1.93326
1.98519
2.04989
2.12534
2.20933
2.29966
2.39428
2.49134
2.58926
2.68677
2.78289
2.87696
2.96857
3.05752
3.14373
3.22719
3.30788
3.3857
3.46047
3.53184
3.59938
3.6625
3.72054
3.77276
3.81835
3.85651
3.88643
3.90735
3.91857
3.91878
3.90785
3.88543
3.85123
3.80504
3.74682
3.67671
3.59508
3.50259
3.40017
3.28912
3.17109
3.0481
2.92256
2.7972
2.67503
2.55919
2.45283
2.35894
2.28008
2.21826
2.17474
2.14985
2.14293
2.15233
2.17538
2.20854
2.24759
2.28796
2.32521
2.35542
2.37574
2.38429
2.38067
2.36638
2.34355
2.31394
2.27903
2.24004
2.19797
2.1536
2.10754
2.06021
2.01196
1.96302
1.91356
1.86373
1.81363
1.76338
1.71304
1.66271
1.61244
1.56231
1.51239
1.46272
1.41337
1.36439
1.31582
1.26771
1.22011
1.17304
1.12656
1.08069
1.03548
0.990975
0.947209
0.904232
0.862095
0.820854
0.78057
0.741309
0.703141
0.666139
0.63038
0.59594
0.562893
0.531309
0.501251
0.472773
0.445916
0.420708
0.397162
0.375275
0.35503
0.336391
0.319309
0.303723
0.289583
0.276812
0.265328
0.255043
0.245871
0.237722
0.230509
0.224148
0.218558
0.213659
0.209381
0.205655
0.202419
0.199613
0.197187
0.195092
0.193286
0.191731
0.190392
0.189239
0.188246
0.187389
0.186649
0.186009
0.185452
0.184966
0.18454
0.184163
0.183829
0.18353
0.183259
0.183012
0.182784
0.182571
0.18237
0.182177
0.181992
0.181811
0.181637
0.181472
0.181324
0.18121
0.181146
0.181193
0.708717
1.41049
1.72102
1.89569
1.99493
2.0455
2.06379
2.06093
2.04483
2.02103
1.99331
1.96446
1.93696
1.91341
1.89657
1.88918
1.89358
1.91139
1.94336
1.9893
2.04825
2.11874
2.19896
2.28703
2.38109
2.47938
2.58036
2.68267
2.78522
2.88718
2.98797
3.0872
3.18468
3.2803
3.37401
3.46572
3.55529
3.64244
3.72678
3.80778
3.8848
3.95707
4.02375
4.08391
4.13661
4.18091
4.21584
4.24048
4.25398
4.25527
4.24424
4.22053
4.18373
4.13349
4.06956
3.99183
3.90041
3.79561
3.67805
3.54867
3.40878
3.26014
3.10496
2.94597
2.78636
2.62979
2.48019
2.3416
2.21784
2.11225
2.02726
1.96418
1.92295
1.9023
1.89986
1.91229
1.93554
1.9651
1.99641
2.02515
2.04832
2.06325
2.06978
2.06884
2.06148
2.04878
2.03172
2.0111
1.98755
1.96154
1.93339
1.90336
1.87161
1.83827
1.80346
1.7673
1.72989
1.69135
1.6518
1.61136
1.57014
1.52827
1.48586
1.44301
1.39984
1.35644
1.3129
1.2693
1.22573
1.18226
1.13896
1.0959
1.05313
1.01071
0.968724
0.927217
0.886259
0.845921
0.806275
0.767402
0.729384
0.692311
0.656275
0.621371
0.587693
0.555333
0.524378
0.494905
0.466982
0.44066
0.415978
0.392953
0.371589
0.351869
0.333758
0.317209
0.302161
0.288553
0.276306
0.265333
0.255544
0.24685
0.239157
0.232377
0.226424
0.221215
0.216671
0.212719
0.209293
0.206329
0.203772
0.201569
0.199674
0.198047
0.19665
0.195451
0.194422
0.193537
0.192776
0.19212
0.191551
0.191058
0.190626
0.190248
0.189913
0.189614
0.189345
0.1891
0.188875
0.188666
0.188469
0.188281
0.188099
0.187923
0.187753
0.187591
0.187444
0.187326
0.187251
0.187266
0.727928
1.44589
1.76833
1.95258
2.0579
2.11017
2.12545
2.11542
2.08942
2.05508
2.01849
1.9844
1.95658
1.93803
1.93109
1.9374
1.95784
1.99252
2.04087
2.10177
2.17377
2.25521
2.34438
2.43962
2.53936
2.64218
2.74686
2.85238
2.95797
3.06304
3.16724
3.27035
3.37224
3.47284
3.57206
3.66974
3.76562
3.8593
3.95025
4.03782
4.12121
4.19953
4.27183
4.33709
4.39426
4.44229
4.48016
4.50688
4.52125
4.52301
4.51201
4.4879
4.45024
4.39863
4.33271
4.25226
4.15717
4.04752
3.92365
3.78615
3.63597
3.47446
3.30341
3.12513
2.94253
2.75913
2.57901
2.4067
2.24687
2.104
1.98189
1.88296
1.80779
1.75547
1.72386
1.70989
1.71001
1.72014
1.7362
1.7538
1.76957
1.78192
1.79015
1.7943
1.79477
1.79211
1.78682
1.77927
1.7697
1.7582
1.7448
1.72948
1.71218
1.69289
1.67161
1.64836
1.62319
1.5962
1.56749
1.53719
1.50542
1.47234
1.43807
1.40275
1.36653
1.32952
1.29185
1.25364
1.21498
1.17599
1.13674
1.09734
1.05787
1.01839
0.978998
0.939763
0.900764
0.862082
0.823801
0.78601
0.748805
0.712286
0.676559
0.641735
0.607926
0.575245
0.543801
0.513696
0.485024
0.457863
0.432276
0.40831
0.38599
0.365321
0.346288
0.328859
0.312981
0.2986
0.285643
0.274026
0.263661
0.254455
0.246313
0.239143
0.232854
0.227358
0.222572
0.218418
0.214823
0.21172
0.20905
0.206756
0.204789
0.203105
0.201665
0.200433
0.19938
0.198479
0.197707
0.197044
0.196473
0.195979
0.195551
0.195176
0.194846
0.194554
0.194292
0.194055
0.193838
0.193637
0.193448
0.193269
0.193097
0.192931
0.192771
0.192619
0.192483
0.192373
0.192305
0.192316
0.73014
1.42283
1.74613
1.93692
2.0511
2.11207
2.13436
2.12915
2.1062
2.07417
2.04045
2.01092
1.98999
1.98071
1.98493
2.0035
2.03645
2.08312
2.14239
2.21286
2.29295
2.38105
2.47559
2.57506
2.6781
2.7835
2.89024
2.99751
3.10471
3.21142
3.31739
3.42247
3.52657
3.62963
3.73151
3.83201
3.93081
4.02744
4.12132
4.21169
4.29772
4.37846
4.45289
4.51993
4.57848
4.62742
4.66567
4.69216
4.70579
4.70679
4.69506
4.67032
4.63219
4.58029
4.51427
4.43383
4.33878
4.22906
4.1048
3.96635
3.81435
3.64982
3.47413
3.28907
3.09702
2.90098
2.70468
2.51249
2.32923
2.15991
2.00944
1.88169
1.77767
1.6968
1.63712
1.59583
1.57015
1.5571
1.55261
1.55344
1.5569
1.56107
1.56484
1.56772
1.56968
1.57081
1.57125
1.571
1.56996
1.56794
1.56469
1.55994
1.55346
1.54504
1.53454
1.5219
1.50707
1.49009
1.47102
1.44994
1.42698
1.40225
1.37589
1.34803
1.31883
1.2884
1.25689
1.22442
1.1911
1.15706
1.12239
1.08721
1.0516
1.01566
0.979466
0.943115
0.906688
0.870273
0.833961
0.797847
0.762032
0.726625
0.691742
0.657503
0.624036
0.59147
0.559934
0.529554
0.500448
0.472721
0.446466
0.421755
0.398641
0.377155
0.357304
0.339075
0.322433
0.30733
0.293703
0.281474
0.270557
0.260861
0.252288
0.244744
0.238133
0.232364
0.227348
0.223002
0.21925
0.21602
0.213247
0.210872
0.208842
0.20711
0.205634
0.204377
0.203306
0.202394
0.201616
0.200952
0.200382
0.199892
0.199469
0.199102
0.19878
0.198496
0.198243
0.198016
0.197809
0.197618
0.19744
0.197271
0.19711
0.196956
0.196808
0.19667
0.196548
0.196452
0.196397
0.196417
0.712886
1.35811
1.67275
1.86637
1.99014
2.06416
2.10069
2.10942
2.09939
2.07916
2.05639
2.03743
2.02699
2.0282
2.04278
2.07129
2.11344
2.16838
2.23485
2.31143
2.39657
2.48874
2.58646
2.68834
2.79313
2.89973
3.00723
3.11493
3.22232
3.32903
3.43486
3.53971
3.64348
3.74612
3.84748
3.94736
4.04541
4.14118
4.23407
4.32333
4.40812
4.48751
4.56046
4.62591
4.68272
4.72974
4.76582
4.78979
4.80101
4.79982
4.78626
4.76015
4.72123
4.66921
4.60378
4.52467
4.43165
4.3246
4.2035
4.06849
3.91999
3.75891
3.58628
3.40343
3.21217
3.01492
2.8148
2.61567
2.42197
2.23829
2.06977
1.92252
1.7971
1.69319
1.60924
1.54305
1.4925
1.45551
1.42982
1.41302
1.40268
1.39672
1.39362
1.39244
1.39266
1.394
1.39625
1.39913
1.4023
1.40538
1.40793
1.40954
1.40985
1.40855
1.40541
1.40027
1.39303
1.38365
1.37213
1.35851
1.34287
1.32529
1.30588
1.28474
1.262
1.23777
1.21217
1.18533
1.15735
1.12835
1.09843
1.0677
1.03625
1.00417
0.97156
0.938501
0.905081
0.87139
0.837516
0.803558
0.769616
0.735801
0.702233
0.669037
0.636351
0.604314
0.573072
0.542769
0.513545
0.485532
0.45885
0.433599
0.409861
0.387694
0.367133
0.348188
0.330843
0.315066
0.300803
0.287987
0.276536
0.266361
0.257367
0.249455
0.242528
0.23649
0.231248
0.226715
0.22281
0.219456
0.216584
0.214132
0.212042
0.210265
0.208756
0.207476
0.20639
0.205469
0.204687
0.204023
0.203456
0.202971
0.202554
0.202194
0.20188
0.201605
0.201361
0.201143
0.200945
0.200764
0.200595
0.200437
0.200286
0.200143
0.200008
0.199883
0.199774
0.199693
0.199655
0.199685
0.680239
1.26708
1.56696
1.76027
1.89272
1.98128
2.03567
2.0636
2.07256
2.07007
2.06326
2.05832
2.06009
2.07186
2.09552
2.13178
2.18048
2.24086
2.31181
2.39197
2.47993
2.57424
2.67348
2.77634
2.8816
2.98818
3.0952
3.202
3.30808
3.4131
3.51686
3.61923
3.72014
3.81953
3.91727
4.01316
4.10692
4.19811
4.2862
4.3705
4.45024
4.52453
4.59243
4.6529
4.70487
4.74722
4.77873
4.79814
4.80529
4.80056
4.78407
4.7558
4.7156
4.6633
4.59866
4.52148
4.43156
4.32874
4.21293
4.08408
3.94208
3.78828
3.62359
3.4488
3.26527
3.07491
2.88026
2.68456
2.49176
2.30631
2.13283
1.97523
1.83551
1.71394
1.60954
1.52108
1.44777
1.38909
1.34416
1.31136
1.2885
1.27331
1.26383
1.25864
1.25672
1.25738
1.26003
1.26415
1.2692
1.27467
1.28003
1.28483
1.28867
1.29123
1.29225
1.29157
1.28904
1.28461
1.27824
1.26993
1.2597
1.24761
1.23371
1.21808
1.20079
1.18193
1.1616
1.13987
1.11686
1.09264
1.06732
1.04098
1.01371
0.985592
0.956714
0.927156
0.896998
0.866324
0.835217
0.803768
0.772075
0.740243
0.708387
0.676635
0.645124
0.614
0.583417
0.553534
0.524508
0.496494
0.469635
0.44406
0.41988
0.397182
0.37603
0.35646
0.33848
0.322078
0.307214
0.293833
0.281861
0.271215
0.261801
0.253521
0.246276
0.239967
0.234498
0.229776
0.225715
0.222235
0.219264
0.216733
0.214583
0.21276
0.211218
0.209914
0.208812
0.207882
0.207095
0.206428
0.205863
0.205381
0.204969
0.204614
0.204307
0.204038
0.203801
0.20359
0.2034
0.203226
0.203065
0.202914
0.202772
0.202638
0.202512
0.202398
0.202302
0.202234
0.202208
0.202248
0.639715
1.16153
1.44417
1.63493
1.77433
1.87668
1.9495
1.99846
2.02913
2.04744
2.05937
2.07049
2.08546
2.10773
2.13951
2.18188
2.23506
2.29864
2.37177
2.45332
2.54205
2.63661
2.73569
2.83805
2.94258
3.04785
3.15296
3.25735
3.36052
3.46211
3.56188
3.65967
3.75539
3.84897
3.9403
4.02922
4.11549
4.19877
4.2786
4.35441
4.42553
4.49121
4.55062
4.60285
4.64695
4.6819
4.70657
4.71968
4.72142
4.71211
4.69195
4.661
4.61925
4.5666
4.50294
4.42813
4.34201
4.24447
4.13543
4.0149
3.88304
3.74033
3.58735
3.42484
3.25385
3.07584
2.89281
2.70736
2.52272
2.34262
2.1709
2.01073
1.86394
1.73085
1.61107
1.50464
1.41253
1.33601
1.27549
1.23002
1.19752
1.17549
1.16158
1.15388
1.15089
1.15149
1.15472
1.1598
1.16601
1.17271
1.17936
1.18551
1.1908
1.19497
1.1978
1.19918
1.199
1.19721
1.19378
1.1887
1.18197
1.17361
1.16365
1.15211
1.13903
1.12447
1.10847
1.0911
1.07241
1.05246
1.03133
1.00909
0.985793
0.961517
0.936328
0.910294
0.883482
0.855962
0.827808
0.799098
0.769916
0.740359
0.710533
0.680556
0.650561
0.620692
0.591107
0.561971
0.533452
0.505721
0.478943
0.453273
0.428847
0.405783
0.384173
0.364082
0.345548
0.328577
0.313151
0.299229
0.28675
0.275638
0.265804
0.257153
0.249584
0.242997
0.237293
0.232374
0.228152
0.224541
0.221464
0.218849
0.216635
0.214762
0.213183
0.211852
0.210731
0.209788
0.208993
0.208322
0.207754
0.207272
0.206861
0.206509
0.206205
0.20594
0.205706
0.205499
0.205313
0.205143
0.204986
0.20484
0.204703
0.204574
0.204454
0.204348
0.20426
0.204201
0.204184
0.204231
0.63452
1.0438
1.31467
1.5025
1.64688
1.76099
1.85074
1.92002
1.97256
2.01254
2.04448
2.07293
2.10208
2.13542
2.1754
2.22323
2.27969
2.34484
2.41823
2.49907
2.58633
2.67887
2.77549
2.87497
2.97616
3.07789
3.17925
3.27952
3.37812
3.47461
3.56868
3.66011
3.74877
3.83454
3.91733
3.997
4.07338
4.14619
4.21511
4.27969
4.33942
4.39369
4.44186
4.4832
4.51694
4.54226
4.55826
4.56387
4.55938
4.54505
4.52106
4.48754
4.44455
4.39209
4.33011
4.25853
4.17725
4.08615
3.98516
3.87427
3.75358
3.62332
3.48386
3.33576
3.17982
3.01716
2.84932
2.67831
2.50668
2.33731
2.1731
2.01625
1.86783
1.72803
1.59722
1.47717
1.37096
1.28155
1.21032
1.15663
1.11831
1.09259
1.07677
1.06854
1.066
1.06763
1.07216
1.07855
1.08592
1.09355
1.10089
1.10753
1.11318
1.11767
1.12088
1.12277
1.1233
1.12247
1.1203
1.11679
1.11195
1.10578
1.09829
1.0895
1.0794
1.06801
1.05534
1.04142
1.02628
1.00994
0.992444
0.973829
0.954138
0.933416
0.91171
0.889068
0.865538
0.841172
0.816026
0.79016
0.763645
0.736557
0.708988
0.681044
0.652844
0.624525
0.596239
0.568149
0.540431
0.513264
0.486829
0.461299
0.436836
0.413586
0.391668
0.371179
0.352185
0.334715
0.318775
0.304343
0.291374
0.279803
0.269549
0.260521
0.25262
0.245745
0.239794
0.234669
0.230275
0.226523
0.223332
0.220626
0.21834
0.216412
0.214789
0.213426
0.212281
0.211319
0.210511
0.209831
0.209258
0.208772
0.208358
0.208004
0.207699
0.207433
0.207199
0.206992
0.206805
0.206636
0.206479
0.206334
0.206198
0.206071
0.205954
0.20585
0.205767
0.205712
0.2057
0.205749
0.624396
0.951866
1.19367
1.37361
1.51999
1.64294
1.74692
1.83419
1.9069
1.96771
2.01969
2.06616
2.11041
2.15543
2.20359
2.25659
2.31554
2.38097
2.4529
2.53097
2.61451
2.70265
2.79438
2.88863
2.98433
3.08042
3.17597
3.2702
3.36243
3.45214
3.53892
3.62248
3.70261
3.77915
3.85198
3.92098
3.98602
4.0469
4.10339
4.15521
4.20197
4.24328
4.27865
4.30759
4.32955
4.34395
4.35018
4.34752
4.33632
4.31676
4.28901
4.25321
4.20944
4.15776
4.09815
4.03054
3.95485
3.87096
3.77877
3.67822
3.56934
3.45222
3.32711
3.1944
3.05471
2.90888
2.75807
2.60381
2.44792
2.29238
2.13886
1.98832
1.84094
1.69698
1.55824
1.42878
1.31376
1.21733
1.14114
1.08436
1.04449
1.01851
1.00343
0.996675
0.996051
0.999742
1.00623
1.01429
1.02292
1.03138
1.03914
1.04586
1.05134
1.0555
1.05832
1.05985
1.06014
1.05926
1.05725
1.05418
1.05006
1.04492
1.03877
1.0316
1.0234
1.01416
1.00388
0.992549
0.980159
0.966712
0.952217
0.936683
0.920127
0.902568
0.884027
0.864529
0.844101
0.822773
0.80058
0.77756
0.753762
0.729244
0.704076
0.678344
0.652151
0.625619
0.598886
0.57211
0.545462
0.519126
0.493289
0.46814
0.44386
0.420616
0.398558
0.37781
0.358466
0.340582
0.324189
0.309289
0.295855
0.283837
0.273166
0.263756
0.255514
0.248339
0.242129
0.236783
0.232204
0.228299
0.224983
0.222176
0.219809
0.217816
0.216144
0.214741
0.213565
0.21258
0.211754
0.21106
0.210475
0.20998
0.20956
0.209199
0.208889
0.208618
0.20838
0.208169
0.207978
0.207805
0.207645
0.207497
0.207358
0.207229
0.207111
0.207007
0.206923
0.206869
0.206857
0.206904
0.614872
0.862841
1.07901
1.25042
1.3965
1.52512
1.63961
1.74152
1.83193
1.91207
1.98354
2.04827
2.10846
2.16631
2.22386
2.28284
2.34459
2.41001
2.47962
2.55352
2.63148
2.71303
2.79747
2.88398
2.97167
3.0596
3.14692
3.2328
3.31655
3.39756
3.47533
3.54949
3.61974
3.68585
3.74767
3.80507
3.85791
3.90609
3.94944
3.98779
4.02094
4.04864
4.0706
4.08656
4.09619
4.09921
4.09536
4.08446
4.06682
4.04253
4.0117
3.97444
3.93082
3.88086
3.82454
3.7618
3.69252
3.61656
3.5338
3.44411
3.34744
3.24384
3.13343
3.01649
2.89347
2.76498
2.63186
2.49507
2.35568
2.21451
2.07183
1.9273
1.78061
1.63308
1.48892
1.35469
1.237
1.14011
1.06509
1.01043
0.973263
0.950314
0.938469
0.93497
0.937449
0.943905
0.952681
0.962457
0.972229
0.981287
0.989175
0.99564
1.00059
1.00403
1.00605
1.00677
1.00631
1.0048
1.00234
0.999013
0.994891
0.990009
0.984385
0.978022
0.970909
0.963027
0.954352
0.944858
0.934521
0.923319
0.911233
0.89825
0.884359
0.869556
0.853837
0.837204
0.819659
0.80121
0.781867
0.761646
0.740571
0.718676
0.696007
0.672627
0.648616
0.624074
0.599124
0.573907
0.548587
0.52334
0.498357
0.473832
0.449961
0.426931
0.404913
0.384062
0.364489
0.346286
0.329511
0.31419
0.300321
0.28787
0.276783
0.266985
0.258389
0.250899
0.244412
0.238828
0.234047
0.229972
0.226515
0.223594
0.221133
0.219066
0.217333
0.215882
0.214669
0.213653
0.212803
0.212089
0.211488
0.210979
0.210547
0.210176
0.209856
0.209577
0.20933
0.209111
0.208913
0.208732
0.208565
0.20841
0.208266
0.208131
0.208008
0.207901
0.207814
0.207756
0.207741
0.207782
0.614453
0.808819
0.993278
1.15307
1.29559
1.42582
1.54612
1.65748
1.76031
1.85492
1.9418
2.02178
2.096
2.16582
2.2327
2.29808
2.36325
2.42928
2.49693
2.56669
2.63874
2.71298
2.78908
2.86654
2.94472
3.02291
3.10036
3.17634
3.25017
3.32123
3.38898
3.45298
3.51287
3.56835
3.61923
3.66533
3.70652
3.74271
3.77379
3.79968
3.82026
3.83544
3.8451
3.84912
3.84742
3.83992
3.82665
3.80813
3.78451
3.75586
3.72226
3.68377
3.64044
3.59226
3.53917
3.48109
3.41786
3.34933
3.27532
3.19569
3.11034
3.01924
2.92248
2.82022
2.71276
2.60047
2.48374
2.36288
2.23788
2.10817
1.97256
1.82999
1.68108