/*--------------------------------*- C++ -*----------------------------------*\
  =========                 |
  \\      /  F ield         | OpenFOAM: The Open Source CFD Toolbox
   \\    /   O peration     | Website:  https://openfoam.org
    \\  /    A nd           | Version:  12
     \\/     M anipulation  |
\*---------------------------------------------------------------------------*/
FoamFile
{
    format      ascii;
    class       volScalarField;
    location    "0.02";
    object      nut;
}
// * * * * * * * * * * * * * * * * * * * * * * * * * * * * * * * * * * * * * //

dimensions      [0 2 -1 0 0 0 0];

internalField   nonuniform List<scalar> 
12225
(
4.04724e-05
3.83067e-05
3.62352e-05
3.44049e-05
3.29426e-05
3.19016e-05
3.12838e-05
3.10577e-05
3.11739e-05
3.15754e-05
3.22058e-05
3.30141e-05
3.39572e-05
3.50013e-05
3.61244e-05
3.73145e-05
3.85979e-05
4.06184e-05
0.000280999
0.000209074
0.000176013
0.000157161
0.000145979
0.000139398
0.000135517
0.000133174
0.000131684
0.000130659
0.000129884
0.000129247
0.000128692
0.000128196
0.000127765
0.000127379
0.000127183
0.00012687
0.000556098
0.000419757
0.000349423
0.000304103
0.000271538
0.000246775
0.000227236
0.000211432
0.000198455
0.000187699
0.000178724
0.000171189
0.000164818
0.000159378
0.000154682
0.000150526
0.000146787
0.000142991
0.000740307
0.000625667
0.000543703
0.000484243
0.000438583
0.000401953
0.000371553
0.000345645
0.00032314
0.000303338
0.000285763
0.000270059
0.000255939
0.000243148
0.000231446
0.000220549
0.000210185
0.000199858
0.000817058
0.00075901
0.000700163
0.000647828
0.000602666
0.000563761
0.000529944
0.000500151
0.000473541
0.00044949
0.000427528
0.000407292
0.000388485
0.000370839
0.000354089
0.000337923
0.000322
0.000305948
0.000842094
0.000819605
0.000789655
0.000757034
0.000724557
0.000693616
0.000664735
0.000637958
0.000613125
0.000590011
0.000568383
0.000548012
0.000528682
0.000510173
0.00049225
0.000474634
0.000457007
0.000439196
0.00084926
0.000841766
0.000829589
0.000813835
0.000795823
0.00077668
0.000757216
0.000737931
0.000719095
0.000700833
0.000683175
0.000666094
0.000649518
0.000633343
0.000617432
0.000601601
0.000585639
0.00056956
0.000851122
0.000848731
0.000844405
0.000838049
0.000829874
0.000820249
0.000809577
0.00079821
0.00078642
0.000774409
0.000762307
0.000750193
0.000738099
0.00072602
0.000713914
0.000701702
0.000689286
0.000676793
0.000851564
0.000850662
0.000849137
0.000846796
0.000843551
0.000839416
0.000834471
0.000828833
0.000822623
0.000815957
0.000808929
0.000801617
0.000794071
0.000786323
0.000778379
0.000770224
0.000761834
0.00075336
0.000851657
0.000851136
0.000850456
0.000849522
0.000848255
0.000846603
0.000844542
0.000842077
0.000839229
0.000836028
0.00083251
0.000828709
0.000824655
0.000820372
0.000815874
0.000811167
0.000806253
0.000801252
0.000851674
0.000851236
0.000850776
0.00085026
0.000849654
0.000848924
0.000848045
0.000846998
0.000845773
0.00084437
0.000842789
0.000841039
0.000839128
0.000837066
0.000834861
0.000832517
0.000830042
0.000827507
0.000851675
0.000851252
0.000850839
0.000850423
0.000849992
0.000849532
0.000849029
0.000848471
0.000847848
0.000847153
0.000846384
0.00084554
0.000844622
0.000843634
0.000842578
0.00084146
0.000840282
0.000839085
0.000851674
0.000851253
0.00085085
0.00085046
0.00085008
0.000849705
0.00084933
0.000848949
0.000848558
0.000848155
0.000847736
0.000847303
0.000846856
0.000846397
0.000845929
0.000845454
0.000844976
0.000844514
0.000851673
0.000851251
0.00085085
0.000850466
0.000850099
0.000849747
0.000849409
0.000849084
0.000848772
0.000848472
0.000848185
0.000847913
0.000847657
0.000847421
0.000847208
0.000847021
0.000846863
0.000846742
0.000851671
0.000851249
0.000850847
0.000850465
0.000850101
0.000849755
0.000849427
0.000849117
0.000848825
0.000848554
0.000848304
0.000848078
0.000847878
0.000847709
0.000847572
0.000847471
0.000847409
0.000847392
0.00085167
0.000851246
0.000850844
0.000850462
0.0008501
0.000849757
0.000849433
0.000849129
0.000848844
0.000848581
0.000848341
0.000848125
0.000847938
0.000847779
0.000847653
0.000847561
0.000847506
0.000847494
0.000851669
0.000851244
0.000850841
0.00085046
0.0008501
0.000849759
0.000849439
0.000849138
0.000848859
0.0008486
0.000848365
0.000848153
0.000847967
0.000847808
0.000847677
0.000847575
0.000847505
0.000847473
0.000851667
0.000851241
0.000850838
0.000850458
0.000850099
0.000849761
0.000849444
0.000849148
0.000848873
0.00084862
0.000848388
0.000848179
0.000847993
0.000847832
0.000847694
0.000847581
0.000847495
0.000847441
0.000851665
0.000851239
0.000850835
0.000850455
0.000850098
0.000849764
0.000849451
0.00084916
0.00084889
0.000848641
0.000848413
0.000848207
0.000848022
0.000847858
0.000847715
0.000847592
0.000847492
0.000847421
0.000851664
0.000851237
0.000850834
0.000850456
0.000850101
0.00084977
0.000849461
0.000849175
0.000848909
0.000848664
0.00084844
0.000848235
0.00084805
0.000847884
0.000847736
0.000847606
0.000847495
0.00084741
0.000851664
0.000851236
0.000850835
0.000850459
0.000850107
0.000849779
0.000849473
0.000849187
0.000848922
0.000848676
0.000848448
0.000848237
0.000848042
0.000847862
0.000847697
0.000847546
0.00084741
0.000847297
0.000851664
0.000851237
0.000850836
0.000850459
0.000850103
0.000849764
0.000849439
0.000849124
0.000848818
0.000848518
0.000848222
0.000847929
0.000847638
0.000847349
0.00084706
0.000846774
0.000846491
0.000846222
0.000851663
0.000851228
0.000850802
0.000850371
0.000849917
0.000849426
0.000848889
0.000848299
0.000847652
0.00084695
0.000846194
0.000845388
0.000844539
0.000843653
0.000842737
0.000841798
0.000840843
0.000839894
0.000851633
0.000851075
0.00085036
0.00084941
0.000848173
0.000846632
0.000844794
0.000842682
0.000840335
0.000837795
0.000835106
0.000832311
0.000829446
0.000826541
0.000823614
0.00082069
0.000817791
0.000814956
0.000851286
0.000849607
0.000846773
0.000842705
0.000837507
0.000831388
0.000824595
0.000817358
0.000809873
0.000802296
0.000794745
0.000787307
0.000780044
0.000772998
0.000766206
0.00075968
0.000753429
0.00074749
0.000848323
0.000839474
0.000826318
0.000810352
0.000792935
0.000775105
0.000757557
0.000740687
0.000724691
0.000709645
0.000695555
0.000682391
0.000670102
0.00065863
0.000647915
0.000637896
0.000628522
0.000619791
0.000828579
0.000789011
0.000746412
0.000706341
0.00067041
0.000638803
0.000611143
0.000586867
0.000565434
0.000546388
0.000529353
0.000514028
0.000500166
0.000487567
0.000476069
0.000465537
0.000455857
0.000446976
0.000730863
0.000627724
0.0005551
0.000501865
0.000461343
0.000429617
0.000404167
0.000383285
0.000365822
0.000350999
0.000338266
0.000327221
0.000317562
0.000309055
0.000301519
0.000294805
0.000288793
0.000283399
0.000439367
0.000338575
0.000288093
0.000257097
0.000236649
0.000222843
0.000213354
0.000206685
0.000201879
0.000198321
0.000195614
0.000193495
0.000191788
0.000190374
0.000189171
0.000188124
0.000187194
0.000186334
7.16387e-05
6.90469e-05
6.65344e-05
6.41423e-05
6.19616e-05
6.00457e-05
5.84146e-05
5.7066e-05
5.59829e-05
5.51409e-05
5.45123e-05
5.40694e-05
5.37853e-05
5.36354e-05
5.35975e-05
5.3652e-05
5.37823e-05
5.3973e-05
7.76078e-05
6.88528e-05
7.232e-05
7.44001e-05
7.56161e-05
7.62804e-05
7.658e-05
7.6631e-05
7.65018e-05
7.6222e-05
7.57949e-05
7.53172e-05
7.52374e-05
7.5532e-05
7.62405e-05
7.74369e-05
7.91706e-05
8.13966e-05
8.3962e-05
8.63906e-05
8.82592e-05
8.92832e-05
8.94003e-05
8.91927e-05
9.24545e-05
9.72654e-05
0.000102685
0.000108191
0.000113479
0.000118386
0.000122843
0.000126837
0.000130383
0.000133515
0.000136269
0.000138683
0.000140794
0.000142634
0.000144236
0.000145625
0.000146826
0.00014786
0.000148747
0.000149504
0.000150148
0.000150694
0.000151156
0.000151548
0.000151884
0.000152175
0.000152459
0.000152694
0.000152887
0.000153047
0.000153181
0.000153297
0.000153399
0.000153491
0.000153577
0.00015366
0.000153743
0.000153827
0.00015391
0.000153993
0.000154072
0.000154143
0.000154199
0.000154231
0.000154226
0.00015417
0.000154044
0.000153827
0.000153491
0.000153009
0.000152349
0.000151481
0.000150373
0.000149
0.000147341
0.000145385
0.000143133
0.000140593
0.000137786
0.000134731
0.000131432
0.000127883
0.00012415
0.000121652
0.000119672
0.000117774
0.000115911
0.000114079
0.000112281
0.000110522
0.000108803
0.000107125
0.000105488
0.000103891
0.000102332
0.000100808
9.93162e-05
9.78547e-05
9.64206e-05
9.50114e-05
9.36249e-05
9.2259e-05
9.0912e-05
8.95825e-05
8.82695e-05
8.69724e-05
8.56911e-05
8.44261e-05
8.31786e-05
8.19505e-05
8.07444e-05
7.95637e-05
7.84127e-05
7.72962e-05
7.62195e-05
7.51888e-05
7.42101e-05
7.32888e-05
7.24274e-05
7.16225e-05
7.08667e-05
7.01568e-05
6.94915e-05
6.88703e-05
6.82921e-05
6.77555e-05
6.72582e-05
6.67976e-05
6.63707e-05
6.59748e-05
6.56069e-05
6.52644e-05
6.49447e-05
6.46456e-05
6.43651e-05
6.41014e-05
6.38529e-05
6.36183e-05
6.33962e-05
6.31856e-05
6.29853e-05
6.27944e-05
6.2612e-05
6.24373e-05
6.22697e-05
6.21082e-05
6.19524e-05
6.18016e-05
6.16551e-05
6.15126e-05
6.13734e-05
6.1237e-05
6.11031e-05
6.09711e-05
6.08407e-05
6.07113e-05
6.05827e-05
6.04542e-05
6.03255e-05
6.0196e-05
6.00652e-05
5.99323e-05
5.97966e-05
5.96571e-05
5.95124e-05
5.9361e-05
5.92007e-05
5.90286e-05
5.88408e-05
5.86315e-05
5.83927e-05
5.81114e-05
5.77697e-05
5.73283e-05
5.67631e-05
5.58256e-05
0.000135328
0.000217736
0.00028103
0.000328184
0.000361228
0.000382773
0.000395605
0.000402317
0.000405052
0.000405375
0.000404221
0.000401401
0.000394368
0.000387278
0.00038239
0.000380392
0.000380444
0.000380578
0.000378767
0.00037592
0.000371248
0.000365017
0.000357841
0.000350507
0.000343917
0.000338637
0.000335065
0.000333482
0.000334142
0.000337262
0.000342997
0.000351421
0.000362521
0.000376191
0.000392243
0.000410419
0.000430403
0.00045184
0.000474355
0.000497567
0.000521098
0.000544584
0.000567677
0.000590047
0.000611381
0.000631384
0.000649778
0.000666306
0.000680749
0.000692983
0.000702234
0.000710936
0.000719348
0.000727592
0.000735787
0.000744059
0.000752536
0.000761348
0.000770618
0.000780467
0.000791007
0.000802338
0.000814545
0.000827692
0.000841822
0.000856947
0.000873043
0.000890043
0.00090783
0.000926228
0.000944994
0.000963819
0.000982325
0.00100008
0.00101659
0.00103136
0.00104391
0.00105379
0.00106064
0.00106419
0.0010643
0.00106091
0.00105404
0.00104366
0.00102963
0.00101151
0.000989091
0.00096521
0.000940814
0.000916167
0.000891491
0.000866954
0.000842682
0.000818758
0.000795232
0.000772129
0.000749457
0.000727209
0.000705369
0.000683916
0.000662825
0.000642068
0.000621618
0.000601447
0.000581529
0.000561837
0.000542347
0.000523038
0.000503888
0.000484882
0.000466004
0.000447246
0.000428604
0.00041008
0.000391684
0.000373433
0.000355356
0.00033749
0.000319883
0.000302589
0.000285667
0.00026915
0.000252964
0.000236781
0.00022101
0.000206075
0.000192218
0.000179615
0.000168265
0.000158094
0.000149023
0.000140971
0.000133855
0.000127593
0.000122105
0.000117314
0.000113148
0.000109538
0.000106423
0.000103742
0.000101444
9.9479e-05
9.7804e-05
9.63795e-05
9.51706e-05
9.41463e-05
9.32793e-05
9.25454e-05
9.19239e-05
9.13964e-05
9.09472e-05
9.05627e-05
9.02313e-05
8.9943e-05
8.96894e-05
8.94631e-05
8.92583e-05
8.90697e-05
8.8893e-05
8.87246e-05
8.85613e-05
8.84006e-05
8.824e-05
8.80775e-05
8.79109e-05
8.77383e-05
8.75573e-05
8.73655e-05
8.71596e-05
8.69355e-05
8.66881e-05
8.64099e-05
8.60909e-05
8.57169e-05
8.52669e-05
8.47147e-05
8.40071e-05
8.31647e-05
8.18772e-05
8.15868e-05
0.000169692
0.000275467
0.000373884
0.00044999
0.00050212
0.000533752
0.000550034
0.000556065
0.000555967
0.000552381
0.000546489
0.00053814
0.000528708
0.000520831
0.00051556
0.000512186
0.00050933
0.0005053
0.000498902
0.000490089
0.000479776
0.000469627
0.000461495
0.000457046
0.000457591
0.000464036
0.000476971
0.00049673
0.00052339
0.00055674
0.000596237
0.000641009
0.000689897
0.000741554
0.000794567
0.00084758
0.000899395
0.000949036
0.00099577
0.00103909
0.00107871
0.00111446
0.00114634
0.0011744
0.00119876
0.00121957
0.00123702
0.00125136
0.00126281
0.00127166
0.00127848
0.00128398
0.00128844
0.00129209
0.00129518
0.00129799
0.00130078
0.00130384
0.00130747
0.00131194
0.0013175
0.0013244
0.00133284
0.001343
0.00135499
0.00136891
0.00138477
0.00140255
0.00142212
0.00144329
0.00146578
0.00148921
0.00151309
0.00153687
0.00155988
0.00158145
0.00160087
0.00161748
0.00163068
0.00163999
0.00164506
0.00164567
0.00164175
0.00163327
0.00162028
0.00160282
0.0015813
0.00155733
0.00153181
0.00150517
0.00147775
0.00144978
0.00142146
0.00139291
0.00136425
0.00133552
0.00130677
0.00127801
0.00124926
0.00122051
0.00119175
0.00116298
0.00113417
0.00110532
0.00107642
0.00104744
0.00101838
0.000989229
0.000959976
0.000930617
0.00090115
0.000871577
0.000841908
0.000812158
0.000782351
0.00075252
0.000722708
0.000692969
0.000663367
0.000633975
0.00060487
0.000576123
0.000547767
0.000519806
0.000492353
0.000465575
0.000439601
0.000414371
0.000390052
0.00036693
0.00034525
0.000325142
0.000306604
0.000289617
0.000274142
0.000260122
0.000247489
0.000236162
0.000226057
0.000217082
0.000209146
0.000202157
0.000196025
0.000190663
0.000185989
0.000181926
0.000178401
0.000175349
0.000172709
0.000170426
0.000168451
0.000166739
0.000165252
0.000163956
0.000162819
0.000161816
0.000160923
0.000160121
0.000159391
0.00015872
0.000158092
0.000157498
0.000156925
0.000156364
0.000155806
0.00015524
0.000154655
0.000154039
0.000153377
0.000152651
0.000151836
0.0001509
0.000149796
0.000148461
0.000146796
0.000144659
0.000141791
0.000137898
0.000131991
0.000124206
0.000189755
0.000301489
0.000442511
0.000543303
0.000604145
0.000634586
0.000644749
0.000643281
0.000636482
0.000627882
0.000618776
0.000610193
0.000602608
0.000596004
0.000589869
0.000583388
0.000575851
0.00056711
0.000557914
0.000549887
0.000545149
0.000545898
0.000554049
0.000571034
0.000597742
0.000634492
0.000681034
0.000736553
0.0007997
0.0008687
0.000941513
0.00101603
0.00109025
0.00116244
0.00123122
0.00129559
0.00135488
0.00140877
0.00145714
0.00150009
0.0015378
0.00157054
0.00159857
0.0016222
0.00164168
0.00165726
0.00166917
0.00167761
0.00168278
0.00168475
0.00168404
0.00168097
0.00167578
0.00166873
0.00166013
0.00165032
0.0016397
0.00162869
0.00161774
0.00160731
0.00159786
0.00158983
0.00158362
0.00157962
0.00157815
0.00157947
0.00158377
0.00159117
0.00160169
0.00161527
0.00163173
0.00165078
0.00167202
0.00169491
0.00171883
0.00174306
0.00176684
0.00178937
0.00180991
0.00182775
0.00184232
0.00185312
0.0018598
0.00186215
0.00186003
0.00185334
0.00184236
0.00182854
0.0018125
0.00179462
0.00177521
0.0017545
0.00173267
0.00170985
0.00168615
0.00166165
0.00163641
0.00161045
0.00158381
0.00155652
0.00152858
0.00150002
0.00147084
0.00144105
0.00141068
0.00137973
0.00134821
0.00131614
0.00128355
0.00125045
0.00121686
0.00118283
0.00114839
0.00111358
0.00107847
0.00104311
0.00100758
0.000971977
0.00093639
0.000900929
0.000865708
0.000830845
0.000796451
0.000762635
0.000729516
0.000697218
0.000665856
0.000635515
0.000606281
0.000578226
0.000551327
0.000525631
0.000501347
0.000478617
0.000457444
0.000437815
0.000419704
0.000403069
0.00038786
0.000374015
0.000361467
0.000350142
0.00033996
0.000330842
0.000322705
0.000315466
0.000309044
0.00030336
0.000298339
0.000293909
0.000290003
0.000286558
0.000283516
0.000280825
0.000278437
0.000276309
0.000274404
0.000272687
0.000271128
0.0002697
0.000268379
0.000267145
0.000265977
0.000264858
0.000263772
0.000262699
0.000261624
0.000260526
0.000259382
0.000258165
0.000256838
0.000255357
0.000253655
0.000251642
0.000249181
0.000246068
0.000241944
0.000236292
0.000227814
0.000215487
4.29099e-05
0.000266695
0.000494754
0.000625237
0.000691435
0.000718329
0.000722581
0.000715663
0.000703506
0.000689977
0.000677124
0.000665515
0.00065497
0.000645107
0.000635666
0.000626747
0.000619013
0.000613777
0.00061292
0.000618612
0.000632944
0.000657611
0.000693668
0.000741404
0.000800312
0.000869153
0.000946096
0.00102891
0.0011152
0.00120261
0.001289
0.00137257
0.00145194
0.00152612
0.00159449
0.00165678
0.00171294
0.00176312
0.00180758
0.00184662
0.00188055
0.00190967
0.00193423
0.00195441
0.00197037
0.0019822
0.00198999
0.00199379
0.00199367
0.00198947
0.00198154
0.00197001
0.00195503
0.00193679
0.00191556
0.00189167
0.00186554
0.00183764
0.00180854
0.00177886
0.00174925
0.00172042
0.00169307
0.00166789
0.00164554
0.00162662
0.00161163
0.00160099
0.00159502
0.00159389
0.00159762
0.00160611
0.00161909
0.00163615
0.00165673
0.00168014
0.00170562
0.0017323
0.0017593
0.00178575
0.0018108
0.00183364
0.00185359
0.00187005
0.00188254
0.00189011
0.00189398
0.00189487
0.00189313
0.001889
0.00188268
0.00187432
0.00186407
0.00185204
0.0018383
0.00182294
0.00180601
0.00178758
0.00176768
0.00174635
0.00172365
0.00169961
0.00167428
0.00164768
0.00161987
0.00159089
0.00156078
0.00152958
0.00149734
0.00146411
0.00142995
0.00139492
0.00135909
0.00132254
0.00128534
0.0012476
0.00120944
0.00117096
0.00113231
0.00109363
0.00105507
0.00101681
0.00097899
0.00094179
0.000905366
0.000869875
0.000835461
0.000802251
0.000770351
0.000739843
0.000710773
0.000683162
0.000656982
0.000632225
0.000609034
0.000587416
0.000567335
0.000548746
0.000531596
0.000515824
0.000501366
0.000488155
0.000476122
0.000465196
0.000455307
0.000446381
0.000438348
0.000431136
0.000424676
0.000418898
0.000413737
0.000409131
0.000405018
0.000401344
0.000398055
0.000395104
0.000392446
0.000390042
0.000387855
0.000385853
0.000384006
0.000382288
0.000380674
0.000379143
0.000377672
0.000376242
0.00037483
0.000373413
0.000371966
0.000370459
0.000368853
0.0003671
0.000365132
0.000362859
0.000360143
0.000356786
0.000352453
0.000346635
0.000338249
0.000326226
4.67322e-05
0.000315466
0.000568765
0.000708032
0.000775222
0.000799664
0.000799148
0.000785248
0.00076627
0.000746783
0.000728795
0.000712899
0.000699175
0.000687768
0.000679197
0.000674471
0.000675075
0.000682834
0.00069966
0.000727236
0.000766707
0.000818456
0.000882001
0.000956052
0.00103867
0.00112754
0.00122019
0.00131422
0.00140748
0.00149817
0.00158487
0.00166656
0.00174259
0.00181263
0.00187659
0.00193459
0.00198686
0.0020337
0.00207542
0.00211232
0.00214464
0.00217255
0.00219615
0.00221547
0.0022305
0.00224119
0.00224745
0.0022492
0.00224635
0.00223857
0.00222597
0.00220857
0.00218638
0.00215948
0.00212799
0.00209214
0.00205225
0.00200876
0.00196218
0.0019132
0.00186257
0.00181118
0.00175999
0.00171005
0.00166242
0.00161816
0.00157828
0.00154368
0.00151513
0.00149318
0.00147823
0.0014704
0.00146963
0.00147563
0.00148794
0.00150593
0.00152885
0.00155582
0.00158591
0.00161808
0.00165132
0.00168448
0.00171658
0.00174664
0.00177264
0.00179531
0.00181509
0.00183213
0.00184647
0.00185814
0.00186719
0.00187363
0.00187752
0.00187888
0.00187778
0.00187424
0.00186832
0.00186008
0.00184957
0.00183685
0.001822
0.00180506
0.00178612
0.00176523
0.00174248
0.00171792
0.00169163
0.00166368
0.00163415
0.00160312
0.00157066
0.00153686
0.00150182
0.00146564
0.00142843
0.00139032
0.00135144
0.00131194
0.00127199
0.00123177
0.00119147
0.00115128
0.00111141
0.00107207
0.00103348
0.000995819
0.000959291
0.00092406
0.000890276
0.000858055
0.000827483
0.00079861
0.000771447
0.000745967
0.000722102
0.000699904
0.000679345
0.000660355
0.000642853
0.000626755
0.000611973
0.000598425
0.000586026
0.000574701
0.000564374
0.000554976
0.000546441
0.000538704
0.000531704
0.000525383
0.000519681
0.000514544
0.000509918
0.000505751
0.000501996
0.000498605
0.000495537
0.000492751
0.000490211
0.000487884
0.000485738
0.000483746
0.000481882
0.000480122
0.000478443
0.000476824
0.000475242
0.000473673
0.000472094
0.000470473
0.000468775
0.000466955
0.000464952
0.000462687
0.000460042
0.000456851
0.000452848
0.000447633
0.000440455
0.000430626
4.88574e-05
0.00037725
0.000636475
0.000781404
0.000851166
0.00087383
0.000869213
0.000850745
0.000827065
0.000803203
0.000781741
0.000763917
0.000750482
0.000742236
0.000740257
0.000745919
0.00076076
0.000786251
0.000823526
0.000873114
0.00093478
0.00100749
0.00108951
0.00117868
0.00127259
0.00136887
0.00146537
0.00156023
0.00165196
0.00173944
0.00182191
0.00189891
0.00197025
0.00203596
0.00209619
0.00215123
0.00220136
0.00224688
0.00228807
0.0023251
0.00235809
0.00238707
0.002412
0.00243276
0.0024492
0.00246112
0.0024683
0.00247052
0.0024676
0.00245899
0.0024447
0.00242464
0.00239871
0.00236684
0.002329
0.00228527
0.00223581
0.00218088
0.00212089
0.0020564
0.0019881
0.00191689
0.00184382
0.00177012
0.00169717
0.00162647
0.00155956
0.00149796
0.00144305
0.00139602
0.00135775
0.00132876
0.00130925
0.00129906
0.00129783
0.00130499
0.00131987
0.00134162
0.0013693
0.00140187
0.00143825
0.00147696
0.00151698
0.0015553
0.00159232
0.00162793
0.00166184
0.00169376
0.00172342
0.00175058
0.00177505
0.00179666
0.00181531
0.00183092
0.00184344
0.00185286
0.00185919
0.00186246
0.00186273
0.00186005
0.00185451
0.00184618
0.00183516
0.00182153
0.00180539
0.00178683
0.00176594
0.00174283
0.00171759
0.00169033
0.00166114
0.00163013
0.00159741
0.00156312
0.00152737
0.00149032
0.00145211
0.00141292
0.00137294
0.00133237
0.00129142
0.00125033
0.00120933
0.00116868
0.00112862
0.0010894
0.00105126
0.00101441
0.000979058
0.000945357
0.000913442
0.000883406
0.000855297
0.00082912
0.000804832
0.000782354
0.000761684
0.000742732
0.000725389
0.000709541
0.000695067
0.000681853
0.000669789
0.000658772
0.000648714
0.000639532
0.000631155
0.000623518
0.000616563
0.000610236
0.000604488
0.00059927
0.000594538
0.000590247
0.000586357
0.000582826
0.000579617
0.000576693
0.00057402
0.000571568
0.000569307
0.00056721
0.000565251
0.000563408
0.000561657
0.000559978
0.000558349
0.000556748
0.000555151
0.00055353
0.000551854
0.000550083
0.000548166
0.000546036
0.000543599
0.000540725
0.000537217
0.000532788
0.000526952
0.00051936
5.04426e-05
0.000404677
0.000680721
0.000834464
0.000908922
0.000934266
0.0009307
0.000911995
0.00088735
0.000862586
0.000841179
0.000825205
0.000816079
0.000815026
0.000823269
0.000842
0.000872232
0.000914591
0.000969124
0.00103519
0.00111149
0.00119618
0.00128707
0.0013819
0.00147849
0.00157491
0.00166952
0.00176105
0.00184855
0.00193139
0.00200921
0.00208187
0.00214943
0.00221207
0.00227005
0.00232369
0.00237326
0.00241902
0.00246114
0.0024997
0.00253472
0.00256609
0.00259365
0.00261719
0.00263641
0.00265101
0.00266066
0.00266502
0.00266376
0.00265632
0.00264264
0.00262255
0.00259586
0.00256238
0.00252198
0.00247456
0.00242013
0.00235879
0.00229075
0.0022164
0.00213626
0.00205107
0.00196178
0.00186957
0.00177588
0.00168239
0.001591
0.00150373
0.00142262
0.00134959
0.00128622
0.00123362
0.00119232
0.00116238
0.00114352
0.00113525
0.001137
0.00114803
0.00116748
0.0011943
0.00122775
0.00126529
0.00130538
0.00134737
0.00139067
0.00143461
0.00147853
0.00152179
0.00156379
0.00160398
0.00164191
0.00167717
0.00170943
0.00173847
0.00176409
0.00178618
0.00180468
0.00181958
0.00183088
0.00183863
0.00184291
0.0018438
0.00184138
0.00183577
0.00182707
0.0018154
0.00180085
0.00178356
0.00176362
0.00174116
0.0017163
0.00168916
0.00165986
0.00162854
0.00159533
0.00156041
0.00152393
0.00148607
0.00144704
0.00140705
0.00136634
0.00132516
0.00128377
0.00124245
0.00120149
0.00116118
0.00112179
0.0010836
0.00104684
0.00101175
0.000978496
0.000947226
0.000918033
0.000890965
0.000866014
0.000843125
0.000822215
0.00080322
0.000786012
0.000770447
0.000756375
0.000743647
0.000732117
0.000721655
0.000712143
0.000703478
0.000695572
0.000688352
0.000681755
0.000675728
0.000670224
0.000665201
0.00066062
0.000656444
0.000652639
0.00064917
0.000646006
0.000643114
0.000640466
0.000638033
0.000635789
0.000633709
0.000631769
0.000629948
0.000628224
0.000626577
0.000624987
0.000623434
0.000621897
0.00062035
0.000618766
0.000617112
0.000615345
0.000613411
0.000611237
0.000608726
0.000605735
0.000602068
0.00059742
0.000591651
5.09671e-05
0.000412745
0.000700757
0.000864648
0.000947573
0.000979943
0.000981965
0.000967506
0.000946179
0.000924522
0.000906849
0.000895978
0.000893818
0.000901762
0.000920861
0.000951833
0.000994966
0.00105002
0.00111617
0.00119205
0.00127583
0.00136548
0.00145889
0.00155404
0.00164916
0.00174277
0.00183367
0.001921
0.00200415
0.00208277
0.00215673
0.00222605
0.00229091
0.00235155
0.00240828
0.00246137
0.00251109
0.00255763
0.00260109
0.00264148
0.00267874
0.00271268
0.00274306
0.00276958
0.00279187
0.00280953
0.00282214
0.00282928
0.00283035
0.00282505
0.00281324
0.0027947
0.00276918
0.0027364
0.00269613
0.00264817
0.00259239
0.00252873
0.00245725
0.00237816
0.0022918
0.00219873
0.00209969
0.0019957
0.00188803
0.00177829
0.00166841
0.00156062
0.00145737
0.00136116
0.00127439
0.00119892
0.00113578
0.00108529
0.0010473
0.00102136
0.00100713
0.00100409
0.00101146
0.00102813
0.00105238
0.00108303
0.00111906
0.0011596
0.00120377
0.00125071
0.00129954
0.00134937
0.00139935
0.00144867
0.00149658
0.00154244
0.00158569
0.00162589
0.00166271
0.00169589
0.00172527
0.00175074
0.00177226
0.00178985
0.00180353
0.00181338
0.00181947
0.00182191
0.00182081
0.00181627
0.00180842
0.00179737
0.00178324
0.00176616
0.00174626
0.00172366
0.00169849
0.00167089
0.00164101
0.001609
0.00157504
0.00153931
0.00150201
0.00146337
0.00142363
0.00138304
0.0013419
0.0013005
0.00125915
0.00121818
0.00117789
0.00113861
0.00110063
0.00106423
0.00102963
0.000997042
0.000966607
0.000938422
0.000912524
0.000888896
0.000867462
0.000848145
0.000830815
0.000815313
0.000801467
0.000789095
0.000778023
0.000768084
0.00075913
0.000751031
0.000743677
0.000736978
0.000730861
0.000725265
0.000720143
0.000715452
0.000711158
0.000707229
0.000703636
0.000700349
0.000697343
0.00069459
0.000692065
0.000689744
0.000687603
0.00068562
0.000683774
0.000682044
0.000680412
0.000678858
0.000677365
0.000675914
0.000674485
0.000673059
0.00067161
0.000670111
0.000668528
0.000666818
0.000664926
0.000662781
0.000660283
0.0006573
0.000653648
0.000649299
5.11559e-05
0.0004075
0.000701785
0.000874962
0.000967921
0.00101022
0.00102145
0.00101517
0.00100102
0.000985939
0.00097481
0.000970982
0.000976685
0.000993345
0.00102176
0.00106218
0.00111429
0.00117728
0.00124983
0.00133027
0.0014167
0.00150717
0.00159982
0.00169295
0.00178515
0.00187525
0.00196235
0.00204582
0.00212526
0.00220047
0.00227142
0.0023382
0.00240104
0.00246019
0.00251595
0.00256859
0.00261832
0.00266532
0.00270965
0.00275127
0.00279008
0.00282586
0.00285833
0.00288714
0.00291187
0.00293206
0.00294723
0.00295685
0.00296024
0.00295725
0.00294773
0.0029314
0.00290796
0.00287711
0.00283852
0.00279191
0.00273704
0.00267373
0.0026019
0.00252161
0.00243305
0.00233662
0.00223291
0.00212272
0.00200714
0.00188756
0.00176577
0.00164392
0.00152451
0.00141029
0.00130427
0.00120929
0.00112681
0.00105754
0.00100154
0.000958395
0.000928028
0.000910551
0.000904479
0.000908825
0.000922553
0.000944644
0.000974114
0.00101002
0.00105143
0.0010974
0.00114697
0.00119912
0.00125283
0.00130712
0.00136105
0.00141376
0.00146453
0.00151272
0.00155784
0.00159952
0.00163748
0.00167152
0.00170153
0.00172745
0.00174928
0.00176706
0.00178082
0.00179066
0.00179666
0.00179892
0.00179756
0.00179268
0.00178441
0.00177285
0.00175813
0.00174037
0.00171971
0.00169627
0.0016702
0.00164165
0.00161078
0.00157777
0.00154282
0.00150615
0.00146799
0.00142861
0.00138829
0.00134735
0.00130611
0.00126491
0.0012241
0.00118403
0.00114505
0.00110746
0.00107158
0.00103764
0.00100585
0.000976373
0.000949285
0.00092462
0.000902339
0.000882365
0.000864581
0.000848825
0.00083491
0.000822636
0.000811798
0.000802202
0.000793667
0.000786034
0.000779168
0.000772956
0.000767309
0.000762156
0.000757442
0.000753122
0.000749162
0.000745531
0.000742203
0.000739154
0.00073636
0.000733799
0.00073145
0.00072929
0.000727299
0.000725458
0.000723747
0.000722148
0.000720644
0.000719217
0.000717852
0.000716532
0.00071524
0.000713957
0.000712665
0.000711339
0.000709953
0.000708474
0.000706861
0.000705064
0.000703015
0.000700631
0.000697801
0.000694553
5.06359e-05
0.000392827
0.000687554
0.000868282
0.000971724
0.00102566
0.00104858
0.00105333
0.00104922
0.00104317
0.00104031
0.00104426
0.00105747
0.0010814
0.00111668
0.00116329
0.00122062
0.00128756
0.00136266
0.00144421
0.00153044
0.00161958
0.00171002
0.00180033
0.00188933
0.00197605
0.00205978
0.00214
0.00221641
0.00228887
0.00235737
0.00242206
0.00248312
0.00254081
0.00259541
0.00264716
0.00269628
0.0027429
0.00278708
0.0028288
0.00286792
0.00290426
0.00293751
0.00296732
0.00299327
0.00301488
0.0030316
0.00304286
0.00304802
0.00304698
0.00303952
0.00302538
0.00300422
0.0029757
0.00293944
0.00289508
0.00284229
0.0027808
0.00271039
0.00263098
0.00254261
0.00244562
0.00234048
0.00222784
0.0021086
0.00198398
0.00185556
0.00172535
0.00159571
0.0014692
0.00134891
0.00123921
0.00114146
0.00105676
0.000985578
0.000927921
0.000883651
0.000852492
0.000833919
0.000827226
0.000831503
0.000845718
0.000868814
0.000899754
0.00093753
0.000981128
0.00102951
0.00108159
0.00113628
0.00119249
0.00124917
0.00130538
0.00136026
0.00141311
0.00146334
0.00151047
0.00155416
0.00159414
0.00163025
0.00166237
0.00169044
0.00171447
0.00173445
0.00175045
0.00176251
0.00177072
0.00177516
0.00177592
0.0017731
0.0017668
0.00175713
0.00174419
0.00172809
0.00170897
0.00168694
0.00166214
0.00163472
0.00160484
0.00157269
0.00153846
0.0015024
0.00146474
0.00142577
0.00138579
0.00134513
0.00130416
0.00126323
0.00122272
0.00118301
0.00114446
0.00110742
0.00107219
0.00103903
0.00100816
0.00097972
0.000953791
0.000930386
0.000909453
0.000890894
0.000874557
0.000860253
0.000847772
0.00083689
0.000827387
0.000819055
0.000811706
0.000805178
0.000799336
0.00079407
0.000789294
0.000784942
0.000780965
0.000777322
0.000773982
0.000770921
0.000768116
0.000765545
0.000763189
0.000761029
0.000759045
0.00075722
0.000755536
0.000753975
0.000752522
0.000751159
0.000749873
0.000748647
0.000747468
0.00074632
0.000745188
0.000744055
0.000742903
0.000741711
0.000740453
0.000739102
0.000737622
0.00073597
0.000734095
0.000731937
0.000729546
4.95518e-05
0.000371416
0.000661513
0.000847911
0.000961589
0.00102785
0.00106377
0.00108122
0.00108888
0.00109333
0.00109959
0.00111138
0.00113124
0.00116071
0.00120046
0.00125041
0.00130991
0.00137786
0.00145285
0.00153332
0.00161766
0.00170431
0.00179187
0.00187909
0.00196493