/*--------------------------------*- C++ -*----------------------------------*\
  =========                 |
  \\      /  F ield         | OpenFOAM: The Open Source CFD Toolbox
   \\    /   O peration     | Website:  https://openfoam.org
    \\  /    A nd           | Version:  12
     \\/     M anipulation  |
\*---------------------------------------------------------------------------*/
FoamFile
{
    format      ascii;
    class       volScalarField;
    location    "0.02";
    object      p;
}
// * * * * * * * * * * * * * * * * * * * * * * * * * * * * * * * * * * * * * //

dimensions      [0 2 -2 0 0 0 0];

internalField   nonuniform List<scalar> 
12225
(
-1.52819
-3.8062
-4.94524
-5.21496
-5.33497
-5.43223
-5.48118
-5.47925
-5.44169
-5.3763
-5.28177
-5.15393
-4.9877
-4.77518
-4.50532
-4.15352
-3.70156
-3.0782
-5.00869
-5.69706
-5.75998
-5.58533
-5.49624
-5.50257
-5.50829
-5.48404
-5.43416
-5.36156
-5.26309
-5.13371
-4.96804
-4.75848
-4.49555
-4.1593
-3.74112
-3.20466
-5.20763
-5.09159
-5.22505
-5.31178
-5.36972
-5.43119
-5.46485
-5.45801
-5.41932
-5.35466
-5.26288
-5.14014
-4.98197
-4.78227
-4.53393
-4.22397
-3.85458
-3.43131
-5.07138
-4.98281
-5.23532
-5.37752
-5.42269
-5.4595
-5.48102
-5.47044
-5.43096
-5.36712
-5.27784
-5.1596
-5.00864
-4.82046
-4.59061
-4.31333
-3.99741
-3.66352
-5.0818
-5.08918
-5.30534
-5.41861
-5.44624
-5.4714
-5.48861
-5.47817
-5.44026
-5.37895
-5.29373
-5.18175
-5.04027
-4.86653
-4.65882
-4.41688
-4.15223
-3.88677
-5.14788
-5.18065
-5.3347
-5.42937
-5.46005
-5.48416
-5.49967
-5.49018
-5.45482
-5.3972
-5.31733
-5.21324
-5.08322
-4.92624
-4.74293
-4.53666
-4.31973
-4.11268
-5.21336
-5.24346
-5.35674
-5.44382
-5.48024
-5.50315
-5.51619
-5.5076
-5.47548
-5.42257
-5.34938
-5.25479
-5.13815
-4.99993
-4.84256
-4.67156
-4.49901
-4.34293
-5.27393
-5.29979
-5.38784
-5.46656
-5.50486
-5.52611
-5.53725
-5.53016
-5.50214
-5.4551
-5.38998
-5.30652
-5.20503
-5.08717
-4.95662
-4.81991
-4.68824
-4.5765
-5.33311
-5.35625
-5.42584
-5.49428
-5.5322
-5.55276
-5.56322
-5.55833
-5.53522
-5.49516
-5.43942
-5.36855
-5.28365
-5.18722
-5.08367
-4.97974
-4.88531
-4.81233
-5.3921
-5.41262
-5.46784
-5.52624
-5.56301
-5.58378
-5.59464
-5.59259
-5.57511
-5.54305
-5.49788
-5.44078
-5.37347
-5.299
-5.22201
-5.14896
-5.08825
-5.04927
-5.451
-5.46874
-5.51303
-5.5628
-5.59806
-5.61957
-5.63176
-5.63325
-5.62213
-5.59897
-5.56536
-5.5229
-5.47379
-5.42128
-5.36996
-5.32564
-5.29529
-5.28616
-5.50502
-5.52042
-5.55726
-5.60057
-5.63435
-5.65692
-5.67116
-5.67661
-5.67195
-5.65767
-5.63534
-5.60685
-5.5746
-5.54187
-5.51293
-5.49291
-5.48752
-5.50243
-5.55852
-5.572
-5.60321
-5.64139
-5.67394
-5.6979
-5.71485
-5.72482
-5.72707
-5.72207
-5.71135
-5.69693
-5.68127
-5.66754
-5.65961
-5.66184
-5.67886
-5.71501
-5.61967
-5.63144
-5.65805
-5.692
-5.72373
-5.74977
-5.7706
-5.7865
-5.79721
-5.80326
-5.8061
-5.80773
-5.81056
-5.81746
-5.83172
-5.85689
-5.89648
-5.95363
-5.68905
-5.69944
-5.72278
-5.75393
-5.78576
-5.81486
-5.84101
-5.86449
-5.88539
-5.9043
-5.92253
-5.94194
-5.96467
-5.99315
-6.03002
-6.07792
-6.13933
-6.21634
-5.76686
-5.77644
-5.7981
-5.82832
-5.86169
-5.89524
-5.92836
-5.96121
-5.99405
-6.02745
-6.06255
-6.10085
-6.14412
-6.19423
-6.25307
-6.32246
-6.40396
-6.49877
-5.8525
-5.862
-5.88375
-5.91523
-5.95216
-5.99193
-6.0338
-6.07778
-6.12408
-6.17318
-6.22589
-6.28333
-6.34673
-6.41735
-6.49638
-6.58487
-6.68365
-6.79321
-5.94331
-5.9536
-5.97735
-6.01255
-6.05537
-6.10339
-6.15577
-6.21233
-6.27312
-6.33835
-6.40847
-6.48413
-6.56603
-6.65483
-6.75112
-6.85533
-6.9677
-7.08828
-6.03215
-6.04435
-6.07231
-6.114
-6.16541
-6.22389
-6.2884
-6.35858
-6.4342
-6.51514
-6.60143
-6.69325
-6.79082
-6.89432
-7.00382
-7.11933
-7.24069
-7.36763
-6.08698
-6.10159
-6.13492
-6.18448
-6.24524
-6.3138
-6.38891
-6.47016
-6.55716
-6.6495
-6.74691
-6.84933
-6.95669
-7.0689
-7.1858
-7.30715
-7.43265
-7.56188
-6.10965
-6.12637
-6.16493
-6.22229
-6.29168
-6.36861
-6.45189
-6.54133
-6.63637
-6.73633
-6.84085
-6.94979
-7.06298
-7.18018
-7.3011
-7.42542
-7.55274
-7.68263
-6.11139
-6.12997
-6.1745
-6.24124
-6.31967
-6.40396
-6.49412
-6.5905
-6.69206
-6.79782
-6.90745
-7.02089
-7.13794
-7.2583
-7.3816
-7.50749
-7.63555
-7.76532
-6.09757
-6.11685
-6.16803
-6.24678
-6.33512
-6.42591
-6.52181
-6.62394
-6.73069
-6.84084
-6.95427
-7.07098
-7.19074
-7.3132
-7.43801
-7.5648
-7.69318
-7.82267
-6.07292
-6.09141
-6.15054
-6.24272
-6.34032
-6.43761
-6.5398
-6.64728
-6.75786
-6.87096
-6.98698
-7.10595
-7.22751
-7.35128
-7.47697
-7.60422
-7.73263
-7.86171
-6.0395
-6.05451
-6.13263
-6.23871
-6.33804
-6.43887
-6.54847
-6.66221
-6.77639
-6.89179
-7.00972
-7.13026
-7.25296
-7.37749
-7.50356
-7.6309
-7.75915
-7.88785
-6.00012
-5.98509
-6.11333
-6.24827
-6.3433
-6.43945
-6.55156
-6.66899
-6.78556
-6.90272
-7.02221
-7.14398
-7.26751
-7.39253
-7.51886
-7.64622
-7.77429
-7.90261
-5.99548
-5.86087
-6.03949
-6.23266
-6.35105
-6.45386
-6.56735
-6.68379
-6.7991
-6.91568
-7.03498
-7.15655
-7.2798
-7.40448
-7.53038
-7.65725
-7.7848
-7.91257
-6.14402
-5.86432
-5.91813
-6.07861
-6.23405
-6.38371
-6.52696
-6.65848
-6.78266
-6.90561
-7.02946
-7.15414
-7.2795
-7.40565
-7.53255
-7.66005
-7.78815
-7.91681
-6.09058
-6.59408
-6.6198
-6.48795
-6.44308
-6.50838
-6.61123
-6.71641
-6.82356
-6.93596
-7.05284
-7.17247
-7.29402
-7.41715
-7.54152
-7.66667
-7.79237
-7.91997
-2.74141
-4.6243
-5.71496
-6.03529
-6.20489
-6.38343
-6.54403
-6.67953
-6.80423
-6.92777
-7.05198
-7.17652
-7.30144
-7.42698
-7.553
-7.67896
-7.80397
-7.9256
-8.69682
-8.69909
-8.77606
-8.92478
-9.12311
-9.35089
-9.5923
-9.83431
-10.0663
-10.2798
-10.4682
-10.6275
-10.7641
-10.8806
-10.9825
-11.0755
-11.1666
-11.2625
-11.3694
-11.4927
-11.6363
-11.8026
-11.9937
-12.2135
-12.4714
-12.7829
-13.1665
-13.642
-14.2264
-14.9311
-15.7585
-16.7012
-17.7432
-18.8608
-20.0261
-21.2094
-22.3812
-23.5147
-24.5866
-25.5775
-26.4723
-27.2598
-27.9322
-28.4846
-28.9143
-29.2215
-29.4097
-29.4843
-29.447
-29.2916
-29.0116
-28.605
-28.0854
-27.4614
-26.7397
-25.9252
-25.0224
-24.0349
-22.9655
-21.8166
-20.5897
-19.2856
-17.9045
-16.4463
-14.9101
-13.2954
-11.6021
-9.83089
-7.9843
-6.06714
-4.08728
-2.05622
0.0105491
2.09353
4.16968
6.21332
8.19754
10.0958
11.8839
13.5412
15.0521
16.4066
17.6005
18.6346
19.515
20.2525
20.8626
21.3578
21.7433
22.0324
22.2384
22.3736
22.449
22.4744
22.4584
22.4085
22.3309
22.2313
22.1142
21.9837
21.8431
21.6954
21.5428
21.3874
21.231
21.0749
20.9203
20.7682
20.6194
20.4743
20.3336
20.1977
20.0667
19.9408
19.8203
19.7051
19.5952
19.4907
19.3914
19.2975
19.2088
19.1259
19.0494
18.9733
18.8997
18.8291
18.7622
18.699
18.6396
18.5837
18.5315
18.4825
18.4369
18.3942
18.3545
18.3175
18.283
18.2509
18.221
18.1931
18.1671
18.1429
18.1202
18.099
18.079
18.0603
18.0427
18.0261
18.0104
17.9954
17.9813
17.9678
17.9549
17.9426
17.9308
17.9195
17.9087
17.8984
17.8885
17.8792
17.8704
17.8623
17.8549
17.8484
17.843
17.8389
17.8365
17.8362
17.8387
17.8447
17.8552
17.8719
17.8966
17.9322
17.983
18.0546
18.157
18.301
18.5199
18.7791
-8.93814
-8.94383
-9.04393
-9.20782
-9.40274
-9.61348
-9.8301
-10.044
-10.2484
-10.4388
-10.6123
-10.7637
-10.8783
-10.9577
-11.0095
-11.0454
-11.0774
-11.1159
-11.1675
-11.2386
-11.3365
-11.4692
-11.6457
-11.8734
-12.1551
-12.5035
-12.9432
-13.4991
-14.1896
-15.0226
-15.9925
-17.0815
-18.262
-19.5008
-20.7634
-22.017
-23.2326
-24.386
-25.4579
-26.4336
-27.3026
-28.0572
-28.6923
-29.2046
-29.5921
-29.8541
-29.9897
-29.9993
-29.8871
-29.6584
-29.3275
-28.9033
-28.3811
-27.7618
-27.0485
-26.2451
-25.3554
-24.383
-23.3309
-22.2016
-20.997
-19.7181
-18.3652
-16.938
-15.4359
-13.8578
-12.203
-10.4716
-8.66497
-6.78667
-4.84309
-2.8442
-0.803981
1.2594
3.32392
5.36453
7.35446
9.2669
11.0769
12.7629
14.3083
15.7021
16.9389
18.0188
18.9464
19.7299
20.3773
20.9006
21.3145
21.6321
21.8662
22.0286
22.1301
22.1802
22.1873
22.159
22.1016
22.0207
21.9209
21.8064
21.6805
21.5463
21.4062
21.2623
21.1164
20.9701
20.8245
20.6806
20.5393
20.4013
20.2671
20.1371
20.0116
19.8909
19.7751
19.6642
19.5584
19.4576
19.3618
19.2708
19.1847
19.1027
19.023
18.9488
18.8781
18.811
18.7474
18.6874
18.6304
18.5766
18.5259
18.4783
18.4337
18.3919
18.3529
18.3164
18.2824
18.2506
18.221
18.1933
18.1675
18.1433
18.1207
18.0995
18.0795
18.0608
18.0432
18.0265
18.0108
17.9958
17.9816
17.968
17.9551
17.9427
17.9309
17.9196
17.9087
17.8983
17.8884
17.879
17.8701
17.8619
17.8544
17.8478
17.8422
17.8379
17.8353
17.8347
17.8367
17.8422
17.852
17.8676
17.8909
17.9243
17.9717
18.038
18.1316
18.2596
18.4482
18.66
-9.05159
-9.09069
-9.19781
-9.34781
-9.5216
-9.70795
-9.89836
-10.0858
-10.2644
-10.43
-10.5785
-10.706
-10.8083
-10.8844
-10.9369
-10.9721
-11.0001
-11.0332
-11.0854
-11.1702
-11.3029
-11.501
-11.7841
-12.1694
-12.6664
-13.2779
-14.0023
-14.8336
-15.7608
-16.7691
-17.8398
-18.953
-20.0882
-21.226
-22.3486
-23.44
-24.4863
-25.475
-26.3951
-27.237
-27.9923
-28.6539
-29.2158
-29.6732
-30.0225
-30.2613
-30.3874
-30.3981
-30.2917
-30.0753
-29.7497
-29.3214
-28.7939
-28.1706
-27.4554
-26.6524
-25.7656
-24.7988
-23.7554
-22.6383
-21.4495
-20.1905
-18.8616
-17.4625
-15.9921
-14.4489
-12.8313
-11.1382
-9.36927
-7.52648
-5.61434
-3.64105
-1.61907
0.434469
2.49797
4.54613
6.55129
8.48528
10.3215
12.037
13.6137
15.0395
16.3085
17.4202
18.3787
19.1925
19.8715
20.4273
20.873
21.2215
21.485
21.6753
21.803
21.8777
21.9079
21.9011
21.8637
21.8013
21.7188
21.6202
21.5091
21.3885
21.261
21.1288
20.9937
20.8573
20.7209
20.5856
20.4522
20.3214
20.194
20.0702
19.9504
19.835
19.724
19.6176
19.5158
19.4187
19.3262
19.2382
19.1545
19.075
18.9992
18.9276
18.8593
18.7941
18.7321
18.6731
18.6174
18.5649
18.5154
18.469
18.4254
18.3846
18.3465
18.3108
18.2775
18.2464
18.2173
18.1902
18.1648
18.141
18.1187
18.0978
18.0782
18.0597
18.0423
18.0258
18.0101
17.9953
17.9812
17.9677
17.9548
17.9425
17.9307
17.9194
17.9085
17.8981
17.8882
17.8787
17.8698
17.8615
17.8539
17.8471
17.8414
17.8369
17.834
17.833
17.8346
17.8393
17.8483
17.8626
17.8841
17.9149
17.9583
18.0181
18.1005
18.2092
18.3567
18.4986
-8.90492
-8.9785
-9.09454
-9.23776
-9.39864
-9.56882
-9.74275
-9.9149
-10.081
-10.2376
-10.381
-10.508
-10.6177
-10.7113
-10.7938
-10.8741
-10.9652
-11.0837
-11.2487
-11.4794
-11.7928
-12.2016
-12.7122
-13.3248
-14.0328
-14.8252
-15.6887
-16.6097
-17.5757
-18.5751
-19.5978
-20.6342
-21.6747
-22.7095
-23.7284
-24.7207
-25.6753
-26.5812
-27.4278
-28.2049
-28.9032
-29.5144
-30.0312
-30.4478
-30.7596
-30.9636
-31.0577
-31.041
-30.9138
-30.6785
-30.3378
-29.895
-29.3536
-28.7177
-27.9917
-27.18
-26.2873
-25.3177
-24.2753
-23.1632
-21.984
-20.7392
-19.4294
-18.054
-16.6114
-15.099
-13.514
-11.8531
-10.1141
-8.29642
-6.40201
-4.43688
-2.41192
-0.343573
1.74609
3.8301
5.87818
7.85894
9.74255
11.5031
13.1206
14.5819
15.8803
17.0159
17.9943
18.8257
19.5214
20.0932
20.5544
20.918
21.1965
21.4015
21.5439
21.633
21.6772
21.6841
21.6598
21.6101
21.5396
21.4526
21.3524
21.2422
21.1245
21.0016
20.8752
20.7471
20.6184
20.4903
20.3637
20.2393
20.1178
19.9996
19.885
19.7744
19.668
19.5658
19.468
19.3745
19.2853
19.2004
19.1196
19.0427
18.9694
18.8996
18.8333
18.7703
18.7105
18.6538
18.6003
18.5498
18.5022
18.4574
18.4154
18.376
18.339
18.3044
18.272
18.2418
18.2134
18.1869
18.162
18.1387
18.1169
18.0963
18.077
18.0587
18.0415
18.0252
18.0097
17.995
17.9809
17.9675
17.9547
17.9424
17.9306
17.9193
17.9084
17.8979
17.8879
17.8784
17.8694
17.861
17.8532
17.8463
17.8403
17.8355
17.8321
17.8306
17.8315
17.8353
17.843
17.8556
17.8747
17.902
17.9401
17.9918
18.0609
18.148
18.2552
18.3405
-8.41762
-8.54036
-8.68507
-8.84177
-9.00009
-9.16007
-9.32212
-9.48492
-9.6468
-9.80502
-9.95836
-10.1071
-10.2537
-10.4035
-10.5652
-10.7514
-10.9773
-11.259
-11.6114
-12.0456
-12.5671
-13.1752
-13.8635
-14.6221
-15.4398
-16.3057
-17.2103
-18.1459
-19.1058
-20.084
-21.0746
-22.071
-23.0662
-24.0521
-25.0199
-25.9601
-26.8628
-27.7181
-28.5159
-29.2468
-29.9016
-30.4724
-30.9519
-31.3341
-31.6142
-31.7885
-31.8549
-31.8121
-31.6606
-31.4021
-31.0392
-30.5752
-30.0138
-29.3594
-28.6168
-27.791
-26.8869
-25.9096
-24.8634
-23.7523
-22.5794
-21.3466
-20.0546
-18.7028
-17.2891
-15.8099
-14.2606
-12.6357
-10.9301
-9.13979
-7.26325
-5.3033
-3.2684
-1.17395
0.957362
3.09611
5.20799
7.25673
9.20747
11.03
12.7014
14.2068
15.5394
16.7007
17.6987
18.5445
19.2506
19.8311
20.3001
20.6714
20.958
21.1716
21.3229
21.4214
21.4753
21.492
21.4775
21.4375
21.3766
21.2988
21.2077
21.1061
20.9968
20.8818
20.7631
20.6422
20.5204
20.3988
20.2784
20.1599
20.0439
19.9308
19.8212
19.7152
19.613
19.5149
19.4208
19.3308
19.2449
19.163
19.085
19.0106
18.9398
18.8724
18.8084
18.7476
18.6899
18.6351
18.5834
18.5345
18.4885
18.4451
18.4044
18.3661
18.3303
18.2967
18.2653
18.2358
18.2082
18.1824
18.1581
18.1354
18.114
18.0939
18.0749
18.057
18.04
18.024
18.0087
17.9941
17.9802
17.9669
17.9542
17.942
17.9302
17.9189
17.908
17.8975
17.8875
17.8779
17.8688
17.8602
17.8523
17.8451
17.8388
17.8336
17.8297
17.8276
17.8276
17.8303
17.8365
17.8471
17.8632
17.8865
17.9186
17.9614
18.0166
18.0822
18.1544
18.1974
-7.66567
-7.84163
-8.03404
-8.21137
-8.37133
-8.52528
-8.68086
-8.84073
-9.00654
-9.18055
-9.36561
-9.5658
-9.78711
-10.0377
-10.3276
-10.6678
-11.0687
-11.5386
-12.0818
-12.6985
-13.3845
-14.1328
-14.9347
-15.7811
-16.664
-17.5762
-18.5122
-19.4669
-20.4361
-21.4152
-22.3995
-23.3835
-24.3609
-25.3247
-26.267
-27.179
-28.0518
-28.8759
-29.6419
-30.3408
-30.9638
-31.5031
-31.9518
-32.3039
-32.5547
-32.7007
-32.7396
-32.6703
-32.4934
-32.2105
-31.8242
-31.3378
-30.7553
-30.0814
-29.3213
-28.4803
-27.5639
-26.5776
-25.5265
-24.4152
-23.2474
-22.0257
-20.7512
-19.4236
-18.0405
-16.5976
-15.0888
-13.5064
-11.8418
-10.0869
-8.23573
-6.28642
-4.24366
-2.12062
0.0599182
2.26584
4.4578
6.59293
8.62943
10.5309
12.2701
13.8299
15.2044
16.3973
17.4178
18.2786
18.9951
19.5833
20.0587
20.4361
20.7291
20.9496
21.1085
21.215
21.2774
21.3027
21.2972
21.2661
21.214
21.145
21.0623
20.9691
20.8678
20.7605
20.6492
20.5353
20.4203
20.3051
20.1908
20.0781
19.9676
19.8598
19.7551
19.6537
19.556
19.462
19.3717
19.2854
19.2028
19.1241
19.049
18.9774
18.9092
18.8443
18.7826
18.724
18.6684
18.6156
18.5657
18.5186
18.4741
18.4322
18.3928
18.3558
18.3211
18.2885
18.258
18.2294
18.2025
18.1774
18.1538
18.1316
18.1107
18.091
18.0724
18.0549
18.0382
18.0224
18.0074
17.993
17.9793
17.9661
17.9535
17.9413
17.9296
17.9183
17.9074
17.8969
17.8868
17.8772
17.8679
17.8592
17.8511
17.8436
17.8369
17.8313
17.8269
17.824
17.823
17.8244
17.8288
17.8371
17.85
17.8687
17.8944
17.9279
17.9693
18.0149
18.0579
18.0685
-6.82238
-7.03908
-7.29759
-7.49611
-7.65564
-7.80628
-7.96066
-8.12662
-8.31086
-8.51982
-8.75997
-9.03809
-9.36143
-9.73733
-10.1725
-10.6719
-11.2382
-11.8708
-12.5661
-13.3182
-14.1201
-14.9642
-15.8435
-16.7518
-17.6839
-18.6355
-19.6029
-20.5825
-21.571
-22.5643
-23.5582
-24.5475
-25.526
-26.4868
-27.4223
-28.3242
-29.1835
-29.9914
-30.7389
-31.4172
-32.0181
-32.5342
-32.9588
-33.2864
-33.5125
-33.6339
-33.6483
-33.555
-33.355
-33.0498
-32.6421
-32.1354
-31.534
-30.8428
-30.0673
-29.2132
-28.2866
-27.2933
-26.239
-25.1289
-23.9672
-22.7573
-21.5009
-20.198
-18.8465
-17.442
-15.9775
-14.4432
-12.8279
-11.1192
-9.30557
-7.37926
-5.3393
-3.1947
-0.966752
1.31048
3.59209
5.82709
7.9647
9.95981
11.7799
13.406
14.833
16.0648
17.1126
17.9924
18.7223
19.3204
19.8039
20.1887
20.489
20.7173
20.8842
20.9992
21.0705
21.1049
21.1086
21.0867
21.0438
20.9837
20.9098
20.8251
20.732
20.6327
20.529
20.4225
20.3144
20.2059
20.098
19.9913
19.8866
19.7842
19.6847
19.5882
19.495
19.4054
19.3192
19.2367
19.1578
19.0824
19.0105
18.9419
18.8766
18.8144
18.7552
18.699
18.6456
18.5949
18.547
18.5016
18.4588
18.4185
18.3805
18.3447
18.3112
18.2797
18.2501
18.2224
18.1964
18.1719
18.1489
18.1273
18.107
18.0878
18.0696
18.0524
18.0361
18.0206
18.0058
17.9916
17.9781
17.9651
17.9525
17.9405
17.9288
17.9176
17.9067
17.8962
17.886
17.8763
17.8669
17.858
17.8496
17.8418
17.8348
17.8286
17.8235
17.8198
17.8177
17.8176
17.8201
17.8258
17.8352
17.8492
17.8682
17.8924
17.9206
17.9482
17.967
17.9523
-6.0565
-6.32505
-6.61432
-6.82858
-6.99524
-7.15192
-7.31726
-7.5031
-7.72002
-7.97775
-8.28489
-8.64881
-9.07532
-9.56831
-10.1293
-10.7572
-11.4484
-12.1972
-12.9966
-13.8395
-14.7187
-15.6283
-16.5631
-17.5189
-18.4924
-19.4807
-20.4809
-21.4903
-22.5054
-23.5224
-24.5367
-25.5427
-26.5342
-27.5041
-28.4447
-29.3478
-30.2046
-31.0066
-31.7452
-32.412
-32.9993
-33.5
-33.9078
-34.2175
-34.4251
-34.5274
-34.5227
-34.4104
-34.1918
-33.8686
-33.4437
-32.9209
-32.3045
-31.5998
-30.8127
-29.9492
-29.0157
-28.0185
-26.9637
-25.857
-24.7033
-23.5064
-22.2686
-20.9905
-19.6706
-18.3044
-16.8849
-15.4015
-13.8407
-12.1868
-10.423
-8.53493
-6.51429
-4.36366
-2.10039
0.241316
2.61135
4.94957
7.19472
9.29188
11.2034
12.9073
14.3953
15.6733
16.7553
17.6601
18.4085
19.021
19.5166
19.9124
20.2231
20.4616
20.639
20.7645
20.8463
20.8913
20.9054
20.8938
20.861
20.8107
20.7464
20.6709
20.5866
20.4958
20.4003
20.3015
20.2009
20.0995
19.9983
19.8981
19.7995
19.7029
19.6088
19.5176
19.4293
19.3443
19.2626
19.1842
19.1092
19.0375
18.969
18.9037
18.8415
18.7822
18.7257
18.6721
18.6211
18.5727
18.5268
18.4834
18.4424
18.4037
18.3672
18.3328
18.3005
18.2701
18.2416
18.2148
18.1896
18.1659
18.1436
18.1227
18.1029
18.0842
18.0665
18.0497
18.0337
18.0185
18.0039
17.99
17.9767
17.9638
17.9514
17.9395
17.9279
17.9167
17.9058
17.8953
17.8851
17.8752
17.8657
17.8566
17.848
17.8399
17.8324
17.8256
17.8198
17.8151
17.8118
17.8102
17.8106
17.8135
17.8193
17.8284
17.8408
17.8558
17.8717
17.8834
17.8822
17.8479
-5.50907
-5.78757
-6.09195
-6.31874
-6.4973
-6.66839
-6.85356
-7.06723
-7.32214
-7.62951
-7.99835
-8.43502
-8.94295
-9.5225
-10.1712
-10.8841
-11.6545
-12.4751
-13.3383
-14.2372
-15.1661
-16.1201
-17.0954
-18.0891
-19.0984
-20.1209
-21.154
-22.1947
-23.2394
-24.2838
-25.3228
-26.3505
-27.3605
-28.3454
-29.2974
-30.2083
-31.0697
-31.873
-32.61
-33.2727
-33.8537
-34.3462
-34.7443
-35.0433
-35.2391
-35.3292
-35.3119
-35.1871
-34.9561
-34.6209
-34.1845
-33.651
-33.0249
-32.3119
-31.5179
-30.6493
-29.7129
-28.7154
-27.6631
-26.5623
-25.4181
-24.2349
-23.0157
-21.7615
-20.4712
-19.1412
-17.7645
-16.3303
-14.8243
-13.2284
-11.5217
-9.68355
-7.69787
-5.55934
-3.27927
-0.889932
1.55484
3.98638
6.33362
8.53387
10.5395
12.3236
13.8773
15.2067
16.3284
17.264
18.0369
18.6697
19.183
19.5948
19.9205
20.1735
20.3647
20.5038
20.5988
20.6566
20.6832
20.6836
20.6623
20.6232
20.5695
20.5042
20.4297
20.3483
20.2616
20.1713
20.0788
19.985
19.8911
19.7978
19.7057
19.6153
19.5272
19.4415
19.3585
19.2785
19.2015
19.1276
19.0567
18.989
18.9243
18.8625
18.8035
18.7474
18.6939
18.643
18.5946
18.5487
18.5051
18.4638
18.4247
18.3877
18.3528
18.3199
18.289
18.2598
18.2324
18.2066
18.1823
18.1594
18.1379
18.1175
18.0983
18.0802
18.0629
18.0466
18.031
18.0161
18.0019
17.9882
17.9751
17.9624
17.9502
17.9383
17.9268
17.9156
17.9048
17.8942
17.884
17.874
17.8644
17.8551
17.8461
17.8377
17.8297
17.8223
17.8158
17.8101
17.8055
17.8022
17.8005
17.8006
17.8026
17.8068
17.8126
17.8191
17.8237
17.8214
17.8036
17.754
-5.22828
-5.49533
-5.78787
-6.01386
-6.20029
-6.38526
-6.59009
-6.82957
-7.11668
-7.46249
-7.87529
-8.36011
-8.91848
-9.54865
-10.2462
-11.0046
-11.8167
-12.6749
-13.5723
-14.5028
-15.4617
-16.4448
-17.4491
-18.4718
-19.5105
-20.5624
-21.6249
-22.6943
-23.7668
-24.8375
-25.9009
-26.951
-27.9808
-28.9828
-29.9491
-30.8716
-31.7418
-32.5514
-33.2924
-33.9569
-34.5379
-35.0289
-35.4243
-35.7194
-35.9108
-35.9958
-35.9732
-35.8432
-35.607
-35.2668
-34.8258
-34.2882
-33.6589
-32.9436
-32.1486
-31.2806
-30.3464
-29.3529
-28.307
-27.2149
-26.0823
-24.914
-23.7132
-22.4815
-21.2185
-19.921
-18.5825
-17.1926
-15.7367
-14.1952
-12.5447
-10.7595
-8.81709
-6.70429
-4.42573
-2.01074
0.48644
2.99298
5.42806
7.71919
9.81051
11.6694
13.2854
14.6659
15.8291
16.7991
17.6013
18.2598
18.7962
19.2295
19.5754
19.8473
20.0567
20.213
20.3244
20.3978
20.4392
20.4537
20.4458
20.4194
20.3778
20.324
20.2604
20.1892
20.1123
20.0313
19.9475
19.8621
19.776
19.6902
19.6051
19.5214
19.4396
19.3598
19.2825
19.2078
19.1359
19.0667
19.0004
18.9369
18.8762
18.8182
18.7628
18.71
18.6597
18.6118
18.5662
18.5228
18.4817
18.4426
18.4056
18.3705
18.3374
18.3061
18.2765
18.2487
18.2224
18.1977
18.1744
18.1524
18.1316
18.112
18.0934
18.0758
18.0591
18.0432
18.028
18.0135
17.9996
17.9862
17.9733
17.9608
17.9487
17.937
17.9256
17.9145
17.9037
17.8931
17.8828
17.8727
17.8629
17.8534
17.8442
17.8353
17.8268
17.8189
17.8114
17.8047
17.7988
17.7938
17.7898
17.7871
17.7854
17.7847
17.7843
17.7827
17.7772
17.7626
17.7313
17.6696
-5.17929
-5.41445
-5.67319
-5.88482
-6.07102
-6.26349
-6.48107
-6.73736
-7.04431
-7.41191
-7.84745
-8.35496
-8.93508
-9.58536
-10.301
-11.0757
-11.9024
-12.7745
-13.6857
-14.6307
-15.6052
-16.6056
-17.6287
-18.6719
-19.7323
-20.807
-21.8928
-22.9857
-24.0814
-25.1746
-26.2596
-27.3297
-28.3779
-29.3966
-30.3778
-31.3132
-32.1945
-33.0135
-33.7622
-34.4331
-35.0192
-35.5143
-35.9131
-36.211
-36.4048
-36.4921
-36.4717
-36.344
-36.1102
-35.7726
-35.3345
-34.8003
-34.1751
-33.4648
-32.6757
-31.8148
-30.8889
-29.9053
-28.8706
-27.7915
-26.6738
-25.5225
-24.3411
-23.1317
-21.8941
-20.6258
-19.3206
-17.9687
-16.5553
-15.0604
-13.4593
-11.7234
-9.82516
-7.74495
-5.48055
-3.05609
-0.524804
2.0362
4.53837
6.89964
9.0576
10.9759
12.6433
14.0677
15.2692
16.2733
17.1066
17.7941
18.3579
18.817
19.1874
19.4827
19.714
19.8911
20.022
20.1138
20.1724
20.2032
20.2106
20.1986
20.1707
20.1296
20.0781
20.0183
19.9521
19.8813
19.807
19.7306
19.6531
19.5752
19.4977
19.4212
19.3461
19.2727
19.2015
19.1325
19.0659
19.0018
18.9402
18.8812
18.8248
18.7708
18.7193
18.6701
18.6231
18.5784
18.5357
18.4952
18.4566
18.4199
18.3851
18.3521
18.3208
18.2912
18.2632
18.2367
18.2117
18.1881
18.1659
18.1448
18.1249
18.106
18.0881
18.0712
18.055
18.0396
18.0248
18.0107
17.9971
17.984
17.9713
17.9591
17.9472
17.9356
17.9243
17.9132
17.9024
17.8918
17.8815
17.8713
17.8613
17.8516
17.8421
17.8328
17.8238
17.8152
17.8069
17.7991
17.7918
17.7851
17.7789
17.7733
17.768
17.7626
17.7563
17.7472
17.7325
17.7075
17.6648
17.5935
-5.28046
-5.46057
-5.67121
-5.85906
-6.03723
-6.22923
-6.45058
-6.71297
-7.0267
-7.40047
-7.84063
-8.35072
-8.93127
-9.58012
-10.293
-11.0644
-11.8882
-12.7585
-13.6698
-14.6171
-15.5965
-16.6044
-17.6374
-18.6927
-19.767
-20.857
-21.9591
-23.0691
-24.182
-25.2923
-26.3939
-27.4801
-28.5436
-29.5766
-30.571
-31.5187
-32.4115
-33.241
-33.9995
-34.6797
-35.2746
-35.7783
-36.1854
-36.4919
-36.6942
-36.7904
-36.7792
-36.6611
-36.4372
-36.1099
-35.6827
-35.1599
-34.5467
-33.8492
-33.0738
-32.2274
-31.317
-30.3499
-29.3328
-28.2723
-27.1744
-26.044
-24.8848
-23.699
-22.4868
-21.2459
-19.9706
-18.6514
-17.2738
-15.8174
-14.2564
-12.5607
-10.699
-8.64686
-6.39676
-3.96913
-1.41725
1.17771
3.72141
6.12592
8.32491
10.2806
11.9819
13.438
14.6699
15.7039
16.5669
17.2839
17.8768
18.3642
18.762
19.0834
19.3395
19.54
19.693
19.8055
19.8836
19.9326
19.9571
19.9612
19.9482
19.9213
19.8831
19.8357
19.7813
19.7214
19.6575
19.5908
19.5224
19.4532
19.3838
19.3149
19.247
19.1804
19.1155
19.0525
18.9916
18.9329
18.8764
18.8222
18.7703
18.7206
18.6731
18.6276
18.5843
18.5429
18.5034
18.4657
18.4299
18.3957
18.3633
18.3324
18.3031
18.2753
18.249
18.224
18.2004
18.178
18.1568
18.1367
18.1177
18.0996
18.0825
18.0661
18.0506
18.0356
18.0214
18.0076
17.9944
17.9816
17.9692
17.9572
17.9455
17.934
17.9228
17.9119
17.9011
17.8905
17.8801
17.8698
17.8597
17.8497
17.8399
17.8302
17.8207
17.8114
17.8023
17.7934
17.7848
17.7763
17.7679
17.7595
17.7507
17.7408
17.7289
17.7129
17.6902
17.656
17.6039
17.5249
-5.45279
-5.51364
-5.683
-5.85209
-6.01969
-6.20598
-6.42409
-6.68394
-6.99433
-7.36281
-7.7951
-8.2946
-8.86216
-9.49633
-10.1938
-10.95
-11.76
-12.6185
-13.5205
-14.4617
-15.4378
-16.4453
-17.4806
-18.5405
-19.6214
-20.7197
-21.8312
-22.9513
-24.0749
-25.1961
-26.3088
-27.4058
-28.48
-29.5235
-30.5283
-31.4862
-32.3889
-33.2286
-33.9974
-34.688
-35.2939
-35.809
-36.2283
-36.5476
-36.7636
-36.8743
-36.8786
-36.777
-36.5703
-36.261
-35.8524
-35.3492
-34.7564
-34.08
-33.3265
-32.5028
-31.6159
-30.6727
-29.6802
-28.6448
-27.5721
-26.467
-25.3333
-24.1733
-22.9872
-21.7727
-20.5245
-19.2332
-17.8843
-16.4575
-14.926
-13.2581
-11.4199
-9.38429
-7.14144
-4.71128
-2.14901
0.460484
3.01931
5.43737
7.6483
9.61563
11.3302
12.8024
14.0539
15.111
15.9998
16.7444
17.3658
17.8819
18.3079
18.6567
18.9391
19.1645
19.3411
19.4759
19.575
19.6437
19.6868
19.7082
19.7115
19.6999
19.676
19.6421
19.6002
19.5521
19.4993
19.4431
19.3844
19.3244
19.2636
19.2028
19.1425
19.0831
19.025
18.9684
18.9134
18.8604
18.8092
18.7601
18.7129
18.6676
18.6243
18.5829
18.5433
18.5054
18.4692
18.4346
18.4017
18.3702
18.3402
18.3116
18.2844
18.2585
18.2339
18.2105
18.1883
18.1672
18.1472
18.1282
18.1101
18.0929
18.0765
18.0608
18.0459
18.0315
18.0177
18.0044
17.9915
17.9791
17.967
17.9552
17.9437
17.9324
17.9213
17.9104
17.8997
17.8891
17.8786
17.8683
17.858
17.8478
17.8376
17.8276
17.8175
17.8076
17.7976
17.7877
17.7776
17.7674
17.7569
17.7458
17.7336
17.7195
17.7024
17.6803
17.6503
17.6082
17.5483
17.463
-5.51408
-5.56956
-5.68348
-5.81675
-5.96567
-6.13951
-6.34806
-6.59891
-6.89918
-7.25535
-7.67259
-8.15425
-8.70171
-9.31435
-9.98991
-10.725
-11.5154
-12.3565
-13.2439
-14.1732
-15.1404
-16.1417
-17.1732
-18.2313
-19.3123
-20.4119
-21.5258
-22.6491
-23.7765
-24.9019
-26.0191
-27.1211
-28.2004
-29.2495
-30.2603
-31.2247
-32.1348
-32.9825
-33.7605
-34.4614
-35.0788
-35.6069
-36.0405
-36.3757
-36.6092
-36.7391
-36.7641
-36.6846
-36.5014
-36.2168
-35.8342
-35.3581
-34.7934
-34.1461
-33.4224
-32.6292
-31.7732
-30.8613
-29.9002
-28.8959
-27.8541
-26.7795
-25.6755
-24.5442
-23.3858
-22.1978
-20.9749
-19.7073
-18.3805
-16.9736
-15.459
-13.8037
-11.973
-9.93917
-7.69379
-5.2598
-2.69655
-0.0922365
2.45446
4.85556
7.04868
9.00163
10.7084
12.1808
13.4406
14.5127
15.422
16.1906
16.8383
17.3818
17.8353
18.2111
18.5198
18.7706
18.9714
19.1291
19.25
19.3394
19.4018
19.4416
19.4621
19.4667
19.4579
19.4383
19.4098
19.3742
19.3332
19.2879
19.2396
19.1892
19.1375
19.0853
19.033
18.9811
18.9301
18.8802
18.8315
18.7844
18.7389
18.6949
18.6527
18.6122
18.5733
18.536
18.5003
18.4661
18.4333
18.402
18.372
18.3433
18.3159
18.2897
18.2647
18.2409
18.2181
18.1964
18.1757
18.156
18.1372
18.1192
18.1022
18.0858
18.0702
18.0553
18.0409
18.0271
18.0138
18.001
17.9885
17.9764
17.9646
17.9531
17.9418
17.9306
17.9197
17.9089
17.8982
17.8876
17.8771
17.8667
17.8562
17.8458
17.8354
17.8249
17.8144
17.8037
17.7929
17.7819
17.7706
17.7587
17.7461
17.7324
17.7169
17.6989
17.677
17.6493
17.613
17.5641
17.4976
17.4072
-5.49727
-5.52008
-5.6027
-5.70486
-5.83225
-5.99158
-6.1881
-6.42715
-6.71451
-7.05571
-7.45542
-7.917
-8.44222
-9.03126
-9.68281
-10.3943
-11.1623
-11.983
-12.8522
-13.7657
-14.7195
-15.7095
-16.7319
-17.7826
-18.8575
-19.9523
-21.0622
-22.1822
-23.3067
-24.4299
-25.5452
-26.6458
-27.7244
-28.7735
-29.7852
-30.7517
-31.6652
-32.518
-33.3026
-34.0122
-34.6403
-35.1812
-35.63
-35.9827
-36.2361
-36.3881
-36.4377
-36.3849
-36.2304
-35.9764
-35.6262
-35.1839
-34.6545
-34.0436
-33.3573
-32.6019
-31.7842
-30.9106
-29.9875
-29.0206
-28.0152
-26.9757
-25.9051
-24.8051
-23.6756
-22.5137
-21.3134
-20.0647
-18.752
-17.3537
-15.8415
-14.1818
-12.3407
-10.2934
-8.03655
-5.59973
-3.04788
-0.471161
2.03466
4.38828
6.53515
8.44957
10.1293
11.5875
12.8447
13.9239
14.8476
15.6359
16.3064
16.8744
17.3534
17.7549
18.0889
18.3643
18.589
18.7697
18.9125
19.0227
19.1051
19.1636
19.2019
19.2232
19.2303
19.2255
19.2109
19.1885
19.1597
19.126
19.0885
19.0482
19.006
18.9627
18.9188
18.8748
18.8312
18.7882
18.7462
18.7052
18.6655
18.6271
18.59
18.5543
18.52
18.487
18.4554
18.425
18.3958
18.3678
18.341
18.3152
18.2905
18.2668
18.2441
18.2224
18.2015
18.1816
18.1625
18.1442
18.1267
18.1099
18.0939
18.0785
18.0637
18.0495
18.0358
18.0226
18.0098
17.9974
17.9854
17.9736
17.9621
17.9509
17.9398
17.9288
17.918
17.9073
17.8967
17.8861
17.8756
17.865
17.8545
17.8438
17.8331
17.8222
17.8112
17.7999
17.7883
17.7763
17.7636
17.7502
17.7356
17.7194
17.7009
17.6793
17.6531
17.6203
17.5783
17.5236
17.4515
17.357
-5.40088
-5.34847
-5.39635
-5.48061
-5.59437
-5.74208
-5.92741
-6.1548
-6.42916
-6.75536
-7.13775
-7.57971
-8.08333
-8.64937
-9.2772
-9.96501
-10.7101
-11.509
-12.358
-13.2531
-14.1902
-15.1653
-16.1741
-17.2125
-18.276
-19.36
-20.4598
-21.5701
-22.6852
-23.7993
-24.906
-25.9986
-27.0699
-28.1127
-29.1194
-30.0825
-30.9944
-31.8476
-32.6352
-33.3504
-33.9869
-34.5392
-35.0026
-35.373
-35.6473
-35.8234
-35.9
-35.8773
-35.7559
-35.5377
-35.2257
-34.8238
-34.3365
-33.7692
-33.1275
-32.4175
-31.6454
-30.8172
-29.9388
-29.0156
-28.0522
-27.0525
-26.0192
-24.9531
-23.8536
-22.7169
-21.5364
-20.3006
-18.993
-17.5906
-16.0639
-14.38
-12.5079
-10.4297
-8.15206
-5.7152
-3.19072
-0.668196
1.76452
4.03802
6.1094
7.96124
9.5953
11.0249
12.2688
13.347
14.2788
15.0814
15.7706
16.36
16.8619
17.2869
17.6448
17.9439
18.1917
18.3951
18.5598
18.6911
18.7936
18.8714
18.9281
18.9668
18.9903
19.001
19.0011
18.9924
18.9765
18.9549
18.9288
18.8993
18.8672
18.8333
18.7982
18.7626
18.7268
18.6912
18.6561
18.6217
18.5881
18.5555
18.5239
18.4933
18.4638
18.4354
18.408
18.3817
18.3562
18.3318
18.3082
18.2855
18.2637
18.2426
18.2224
18.2028
18.184
18.166
18.1485
18.1318
18.1156
18.1001
18.0851
18.0707
18.0568
18.0434
18.0304
18.0178
18.0056
17.9937
17.9821
17.9707
17.9595
17.9485
17.9377
17.927
17.9163
17.9057
17.8952
17.8846
17.874
17.8634
17.8527
17.8418
17.8308
17.8196
17.8081
17.7962
17.7838
17.7707
17.7569
17.7419
17.7254
17.7069
17.6857
17.6607
17.6305
17.5933
17.5464
17.4866
17.4099
17.3119
-5.14147
-5.08916
-5.10807
-5.17136
-5.26929
-5.40354
-5.57744
-5.79409
-6.05734
-6.37139
-6.74013
-7.16674
-7.65336
-8.20098
-8.80936
-9.47717
-10.2021
-10.9813
-11.8111
-12.6878
-13.6073
-14.5655
-15.558
-16.5805
-17.6285
-18.6971
-19.7815
-20.8763
-21.9761
-23.075
-24.1667
-25.2447
-26.3023
-27.3324
-28.3278
-29.2814
-30.1859
-31.0343
-31.8198
-32.536
-33.177
-33.7375
-34.2127
-34.5988
-34.8928
-35.0924
-35.1965
-35.2049
-35.1181
-34.9377
-34.6665
-34.3079
-33.8661
-33.3459
-32.7525
-32.0916
-31.3686
-30.5892
-29.7586
-28.8815
-27.962
-27.0033
-26.0071
-24.9738
-23.9013
-22.7853
-21.6173