/*--------------------------------*- C++ -*----------------------------------*\
  =========                 |
  \\      /  F ield         | OpenFOAM: The Open Source CFD Toolbox
   \\    /   O peration     | Website:  https://openfoam.org
    \\  /    A nd           | Version:  12
     \\/     M anipulation  |
\*---------------------------------------------------------------------------*/
FoamFile
{
    format      ascii;
    class       surfaceScalarField;
    location    "0.02";
    object      phi;
}
// * * * * * * * * * * * * * * * * * * * * * * * * * * * * * * * * * * * * * //

dimensions      [0 3 -1 0 0 0 0];

internalField   nonuniform List<scalar> 
24170
(
3.13339e-06
5.50135e-08
3.04693e-06
8.64602e-08
2.97007e-06
7.68658e-08
2.89894e-06
7.11229e-08
2.83109e-06
6.78578e-08
2.77026e-06
6.0826e-08
2.71705e-06
5.32073e-08
2.67044e-06
4.66118e-08
2.62901e-06
4.14326e-08
2.59141e-06
3.75992e-08
2.55644e-06
3.49731e-08
2.52295e-06
3.34851e-08
2.48979e-06
3.31584e-08
2.45559e-06
3.4202e-08
2.4186e-06
3.69883e-08
2.37542e-06
4.31857e-08
2.32147e-06
5.39422e-08
7.80211e-08
2.24345e-06
3.45345e-06
1.88125e-08
3.4556e-06
8.43136e-08
3.44826e-06
8.42002e-08
3.43549e-06
8.38995e-08
3.41935e-06
8.39958e-08
3.3996e-06
8.05728e-08
3.37718e-06
7.56285e-08
3.35283e-06
7.09597e-08
3.32726e-06
6.70072e-08
3.30097e-06
6.38891e-08
3.27423e-06
6.17065e-08
3.24711e-06
6.06057e-08
3.21949e-06
6.07794e-08
3.19105e-06
6.26478e-08
3.1614e-06
6.66375e-08
3.12969e-06
7.48889e-08
3.096e-06
8.76368e-08
1.17364e-07
3.05666e-06
3.66507e-06
1.62604e-08
3.6774e-06
7.19798e-08
3.68349e-06
7.81089e-08
3.68635e-06
8.10395e-08
3.68623e-06
8.41167e-08
3.68281e-06
8.39983e-08
3.67654e-06
8.18976e-08
3.66792e-06
7.95767e-08
3.65729e-06
7.76371e-08
3.64489e-06
7.6293e-08
3.63085e-06
7.57442e-08
3.61521e-06
7.62439e-08
3.59789e-06
7.80982e-08
3.5787e-06
8.18411e-08
3.55725e-06
8.80906e-08
3.5334e-06
9.87384e-08
3.50644e-06
1.1459e-07
1.41946e-07
3.48186e-06
3.92438e-06
1.72723e-08
3.93482e-06
6.1534e-08
3.94042e-06
7.25153e-08
3.94428e-06
7.71725e-08
3.94668e-06
8.17206e-08
3.94709e-06
8.35852e-08
3.94562e-06
8.33716e-08
3.94249e-06
8.27052e-08
3.93781e-06
8.23131e-08
3.93164e-06
8.24676e-08
3.92397e-06
8.34116e-08
3.91476e-06
8.54513e-08
3.9039e-06
8.89591e-08
3.89124e-06
9.4505e-08
3.87653e-06
1.02799e-07
3.85996e-06
1.15307e-07
3.8416e-06
1.32953e-07
1.58773e-07
3.82477e-06
4.20748e-06
1.69191e-08
4.21493e-06
5.40881e-08
4.21933e-06
6.81131e-08
4.22252e-06
7.39795e-08
4.22503e-06
7.92106e-08
4.2263e-06
8.23203e-08
4.22616e-06
8.35054e-08
4.22471e-06
8.41563e-08
4.22198e-06
8.50421e-08
4.21798e-06
8.64748e-08
4.21266e-06
8.87228e-08
4.206e-06
9.21198e-08
4.19789e-06
9.70671e-08
4.18827e-06
1.04118e-07
4.17712e-06
1.13954e-07
4.16478e-06
1.27645e-07
4.1518e-06
1.45938e-07
1.70293e-07
4.14028e-06
4.51013e-06
1.5875e-08
4.51571e-06
4.85121e-08
4.51967e-06
6.41503e-08
4.52248e-06
7.11697e-08
4.52476e-06
7.69307e-08
4.5261e-06
8.09813e-08
4.52628e-06
8.33283e-08
4.52531e-06
8.51218e-08
4.52322e-06
8.71313e-08
4.51999e-06
8.97032e-08
4.51559e-06
9.31222e-08
4.50998e-06
9.77295e-08
4.50313e-06
1.03923e-07
4.49504e-06
1.12203e-07
4.48585e-06
1.23151e-07
4.47598e-06
1.37508e-07
4.46617e-06
1.55747e-07
1.78447e-07
4.45802e-06
4.8338e-06
1.47987e-08
4.83836e-06
4.39486e-08
4.84219e-06
6.03221e-08
4.84483e-06
6.8526e-08
4.84688e-06
7.48775e-08
4.84812e-06
7.9743e-08
4.84833e-06
8.31211e-08
4.8475e-06
8.59539e-08
4.84564e-06
8.89887e-08
4.84274e-06
9.26004e-08
4.83878e-06
9.70814e-08
4.83375e-06
1.02763e-07
4.82766e-06
1.10016e-07
4.8206e-06
1.19264e-07
4.81279e-06
1.3096e-07
4.80472e-06
1.45573e-07
4.79715e-06
1.63316e-07
1.84287e-07
4.79131e-06
5.18057e-06
1.38134e-08
5.18444e-06
4.00774e-08
5.18809e-06
5.66726e-08
5.19064e-06
6.59721e-08
5.19255e-06
7.29687e-08
5.19371e-06
7.85832e-08
5.19392e-06
8.29111e-08
5.19315e-06
8.67191e-08
5.19143e-06
9.07111e-08
5.18875e-06
9.52809e-08
5.18511e-06
1.00721e-07
5.18053e-06
1.0734e-07
5.17509e-06
1.15463e-07
5.16893e-06
1.25427e-07
5.16233e-06
1.3755e-07
5.15582e-06
1.52088e-07
5.15008e-06
1.69051e-07
1.88293e-07
5.14608e-06
5.55226e-06
1.28904e-08
5.55555e-06
3.67874e-08
5.55894e-06
5.32822e-08
5.56143e-06
6.34831e-08
5.56327e-06
7.11317e-08
5.5644e-06
7.74452e-08
5.56466e-06
8.26542e-08
5.564e-06
8.73824e-08
5.56244e-06
9.22708e-08
5.56e-06
9.77187e-08
5.55671e-06
1.04011e-07
5.55263e-06
1.11422e-07
5.54787e-06
1.20223e-07
5.54263e-06
1.30662e-07
5.53725e-06
1.42932e-07
5.53221e-06
1.57128e-07
5.52814e-06
1.73126e-07
1.90662e-07
5.52577e-06
5.95064e-06
1.20226e-08
5.95344e-06
3.39881e-08
5.95655e-06
5.01742e-08
5.95898e-06
6.10493e-08
5.9608e-06
6.93176e-08
5.96197e-06
7.62783e-08
5.96233e-06
8.22907e-08
5.96184e-06
8.78712e-08
5.96053e-06
9.35851e-08
5.95842e-06
9.98205e-08
5.95559e-06
1.06846e-07
5.95212e-06
1.14897e-07
5.94816e-06
1.24182e-07
5.94395e-06
1.34867e-07
5.93984e-06
1.47041e-07
5.93629e-06
1.60685e-07
5.93382e-06
1.75592e-07
1.91462e-07
5.93302e-06
6.37762e-06
1.12196e-08
6.38002e-06
3.15866e-08
6.38286e-06
4.73317e-08
6.38525e-06
5.86602e-08
6.38708e-06
6.74838e-08
6.38833e-06
7.50304e-08
6.38887e-06
8.17535e-08
6.38864e-06
8.80969e-08
6.38768e-06
9.4546e-08
6.38604e-06
1.01461e-07
6.3838e-06
1.09086e-07
6.38108e-06
1.17612e-07
6.37808e-06
1.27189e-07
6.37504e-06
1.37908e-07
6.3723e-06
1.49779e-07
6.37028e-06
1.62705e-07
6.36943e-06
1.76442e-07
1.90697e-07
6.37019e-06
5.74146e-06
1.0589e-08
5.74325e-06
2.98043e-08
5.74547e-06
4.51084e-08
5.74747e-06
5.66574e-08
5.74908e-06
6.58792e-08
5.75024e-06
7.38651e-08
5.75089e-06
8.11065e-08
5.75098e-06
8.80083e-08
5.75053e-06
9.49927e-08
5.74961e-06
1.02385e-07
5.74829e-06
1.10402e-07
5.74671e-06
1.19198e-07
5.74502e-06
1.28876e-07
5.74345e-06
1.39475e-07
5.74228e-06
1.50954e-07
5.74181e-06
1.63176e-07
5.74236e-06
1.7589e-07
1.88826e-07
5.74423e-06
6.99882e-06
9.92306e-09
7.00067e-06
2.79574e-08
7.00305e-06
4.27259e-08
7.00533e-06
5.43784e-08
7.00727e-06
6.39437e-08
7.00879e-06
7.23447e-08
7.00981e-06
8.00782e-08
7.01031e-06
8.75096e-08
7.01031e-06
9.4993e-08
7.00989e-06
1.02807e-07
7.00916e-06
1.11134e-07
7.00827e-06
1.20087e-07
7.00742e-06
1.29722e-07
7.00687e-06
1.40029e-07
7.0069e-06
1.50928e-07
7.00781e-06
1.6226e-07
7.00992e-06
1.73779e-07
1.85256e-07
7.01349e-06
8.53155e-06
9.22161e-09
8.53347e-06
2.60376e-08
8.53604e-06
4.01545e-08
8.53867e-06
5.17479e-08
8.54107e-06
6.15447e-08
8.54313e-06
7.02833e-08
8.54478e-06
7.84279e-08
8.54599e-06
8.63008e-08
8.5468e-06
9.41856e-08
8.5473e-06
1.02305e-07
8.54764e-06
1.10798e-07
8.54799e-06
1.19735e-07
8.54858e-06
1.29129e-07
8.54968e-06
1.38932e-07
8.55157e-06
1.49038e-07
8.55454e-06
1.59285e-07
8.55887e-06
1.69448e-07
1.79348e-07
8.56478e-06
1.04e-05
8.47373e-09
1.0402e-05
2.39919e-08
1.04049e-05
3.72989e-08
1.0408e-05
4.86135e-08
1.04111e-05
5.84532e-08
1.0414e-05
6.73751e-08
1.04167e-05
7.57743e-08
1.0419e-05
8.39216e-08
1.04212e-05
9.2031e-08
1.04232e-05
1.00262e-07
1.04253e-05
1.08708e-07
1.04277e-05
1.17398e-07
1.04305e-05
1.26309e-07
1.0434e-05
1.3537e-07
1.04386e-05
1.44465e-07
1.04445e-05
1.53445e-07
1.04518e-05
1.62119e-07
1.70364e-07
1.04608e-05
1.26776e-05
7.6441e-09
1.26799e-05
2.16894e-08
1.26833e-05
3.39524e-08
1.26872e-05
4.46921e-08
1.26914e-05
5.42874e-08
1.26956e-05
6.3135e-08
1.26998e-05
7.1536e-08
1.27041e-05
7.9697e-08
1.27083e-05
8.77644e-08
1.27128e-05
9.58361e-08
1.27175e-05
1.03957e-07
1.27228e-05
1.12123e-07
1.27288e-05
1.20286e-07
1.27358e-05
1.28367e-07
1.2744e-05
1.36256e-07
1.27536e-05
1.43827e-07
1.27648e-05
1.50933e-07
1.57501e-07
1.27777e-05
1.54542e-05
6.65377e-09
1.5457e-05
1.88838e-08
1.54612e-05
2.97344e-08
1.54664e-05
3.94896e-08
1.54723e-05
4.84331e-08
1.54786e-05
5.68271e-08
1.54852e-05
6.48672e-08
1.54922e-05
7.26847e-08
1.54996e-05
8.03607e-08
1.55075e-05
8.79363e-08
1.55161e-05
9.54148e-08
1.55254e-05
1.02765e-07
1.55358e-05
1.0993e-07
1.55473e-05
1.16831e-07
1.55602e-05
1.23378e-07
1.55746e-05
1.29474e-07
1.55905e-05
1.35016e-07
1.39974e-07
1.5608e-05
1.88389e-05
5.3554e-09
1.88427e-05
1.51592e-08
1.88484e-05
2.40118e-08
1.88557e-05
3.22048e-08
1.88642e-05
3.9948e-08
1.88736e-05
4.73847e-08
1.88839e-05
5.45994e-08
1.88949e-05
6.16399e-08
1.89067e-05
6.85244e-08
1.89194e-05
7.52444e-08
1.89331e-05
8.17687e-08
1.89478e-05
8.8049e-08
1.89637e-05
9.40252e-08
1.89809e-05
9.96305e-08
1.89995e-05
1.04796e-07
1.90195e-05
1.09457e-07
1.9041e-05
1.13547e-07
1.17069e-07
1.90639e-05
2.29652e-05
3.47096e-09
2.29706e-05
9.82379e-09
2.29788e-05
1.57582e-08
2.29894e-05
2.15795e-08
2.3002e-05
2.74282e-08
2.3016e-05
3.33094e-08
2.30315e-05
3.91758e-08
2.30481e-05
4.49862e-08
2.30659e-05
5.0698e-08
2.30849e-05
5.62553e-08
2.31051e-05
6.15956e-08
2.31265e-05
6.66572e-08
2.31491e-05
7.13816e-08
2.3173e-05
7.57147e-08
2.31982e-05
7.96075e-08
2.32247e-05
8.30201e-08
2.32523e-05
8.59164e-08
8.83149e-08
2.32811e-05
1.68124e-05
1.80714e-09
1.6817e-05
5.1694e-09
1.68242e-05
8.56707e-09
1.68334e-05
1.23705e-08
1.68442e-05
1.66643e-08
1.68562e-05
2.12904e-08
1.68693e-05
2.60817e-08
1.68833e-05
3.09429e-08
1.68982e-05
3.5792e-08
1.6914e-05
4.05372e-08
1.69305e-05
4.50934e-08
1.69477e-05
4.9391e-08
1.69657e-05
5.33727e-08
1.69845e-05
5.69903e-08
1.70039e-05
6.02047e-08
1.70239e-05
6.29875e-08
1.70445e-05
6.53161e-08
6.72119e-08
1.70656e-05
1.46362e-05
1.5159e-10
1.46409e-05
4.75405e-10
1.46482e-05
1.30577e-09
1.46574e-05
3.1926e-09
1.46679e-05
6.10204e-09
1.46796e-05
9.62252e-09
1.46922e-05
1.34812e-08
1.47056e-05
1.75527e-08
1.47197e-05
2.17108e-08
1.47344e-05
2.5822e-08
1.47497e-05
2.97832e-08
1.47656e-05
3.3522e-08
1.47819e-05
3.69824e-08
1.47988e-05
4.01194e-08
1.48161e-05
4.28996e-08
1.48338e-05
4.53013e-08
1.48518e-05
4.73093e-08
4.89441e-08
1.48701e-05
1.27417e-05
-1.43177e-09
1.27464e-05
-4.25305e-09
1.27538e-05
-6.06064e-09
1.27628e-05
-5.8443e-09
1.2773e-05
-4.05369e-09
1.27841e-05
-1.47804e-09
1.2796e-05
1.60177e-09
1.28085e-05
5.06235e-09
1.28215e-05
8.70621e-09
1.2835e-05
1.23485e-08
1.28489e-05
1.58755e-08
1.28632e-05
1.9217e-08
1.28778e-05
2.23183e-08
1.28928e-05
2.5137e-08
1.29081e-05
2.7644e-08
1.29235e-05
2.98225e-08
1.29392e-05
3.16622e-08
3.3182e-08
1.2955e-05
1.10923e-05
-2.81194e-09
1.10971e-05
-9.01724e-09
1.11046e-05
-1.36286e-08
1.11135e-05
-1.46744e-08
1.11231e-05
-1.36806e-08
1.11335e-05
-1.18838e-08
1.11445e-05
-9.41441e-09
1.1156e-05
-6.39314e-09
1.11678e-05
-3.11752e-09
1.118e-05
1.85689e-10
1.11924e-05
3.40428e-09
1.12052e-05
6.47091e-09
1.12182e-05
9.33056e-09
1.12314e-05
1.19423e-08
1.12447e-05
1.42826e-08
1.12582e-05
1.63371e-08
1.12718e-05
1.80998e-08
1.9587e-08
1.12854e-05
9.65628e-06
-3.88168e-09
9.66114e-06
-1.38717e-08
9.66883e-06
-2.13182e-08
9.67731e-06
-2.31525e-08
9.6864e-06
-2.27743e-08
9.69611e-06
-2.15948e-08
9.70621e-06
-1.95135e-08
9.71657e-06
-1.67551e-08
9.72719e-06
-1.37308e-08
9.73804e-06
-1.06714e-08
9.74912e-06
-7.66924e-09
9.76038e-06
-4.78834e-09
9.77179e-06
-2.08526e-09
9.78334e-06
3.97754e-10
9.79497e-06
2.64729e-09
9.80666e-06
4.64533e-09
9.81837e-06
6.39221e-09
7.90312e-09
9.83005e-06
8.40586e-06
-4.38625e-09
8.41141e-06
-1.9426e-08
8.41879e-06
-2.86949e-08
8.4265e-06
-3.08618e-08
8.43503e-06
-3.13034e-08
8.44413e-06
-3.06983e-08
8.45342e-06
-2.88051e-08
8.46281e-06
-2.61408e-08
8.47232e-06
-2.32409e-08
8.48196e-06
-2.03127e-08
8.49171e-06
-1.74237e-08
8.50156e-06
-1.46355e-08
8.51148e-06
-1.20053e-08
8.52145e-06
-9.56983e-09
8.53144e-06
-7.3463e-09
8.54143e-06
-5.34538e-09
8.55139e-06
-3.56808e-09
-2.00133e-09
8.5613e-06
7.3155e-06
-2.60282e-09
7.3234e-06
-2.73288e-08
7.33046e-06
-3.57543e-08
7.33743e-06
-3.78299e-08
7.34547e-06
-3.93378e-08
7.35402e-06
-3.92518e-08
7.3626e-06
-3.73885e-08
7.37112e-06
-3.46617e-08
7.3796e-06
-3.17163e-08
7.38802e-06
-2.87383e-08
7.3964e-06
-2.57947e-08
7.40472e-06
-2.29555e-08
7.41299e-06
-2.02768e-08
7.42121e-06
-1.77902e-08
7.42937e-06
-1.55107e-08
7.43747e-06
-1.34451e-08
7.44549e-06
-1.15915e-08
-9.93644e-09
7.45343e-06
6.36262e-06
4.83995e-09
6.37427e-06
-3.89734e-08
6.38276e-06
-4.42466e-08
6.39077e-06
-4.58404e-08
6.39906e-06
-4.76236e-08
6.40705e-06
-4.72498e-08
6.41452e-06
-4.48536e-08
6.42157e-06
-4.17132e-08
6.4283e-06
-3.84439e-08
6.43473e-06
-3.51676e-08
6.44089e-06
-3.19576e-08
6.44683e-06
-2.88962e-08
6.45259e-06
-2.6036e-08
6.4582e-06
-2.34002e-08
6.46369e-06
-2.09978e-08
6.46907e-06
-1.88303e-08
6.47437e-06
-1.68894e-08
-1.51493e-08
6.47958e-06
5.53617e-06
1.41349e-08
5.54864e-06
-5.14443e-08
5.55954e-06
-5.51455e-08
5.56964e-06
-5.59382e-08
5.57833e-06
-5.63121e-08
5.58499e-06
-5.39129e-08
5.58972e-06
-4.95885e-08
5.59308e-06
-4.50668e-08
5.59546e-06
-4.0828e-08
5.59714e-06
-3.68482e-08
5.59832e-06
-3.3137e-08
5.59916e-06
-2.97334e-08
5.59977e-06
-2.66521e-08
5.60026e-06
-2.38866e-08
5.60069e-06
-2.14234e-08
5.60111e-06
-1.92585e-08
5.60161e-06
-1.73814e-08
-1.57102e-08
5.60217e-06
4.85736e-06
-1.56204e-08
4.86115e-06
-5.52298e-08
4.86256e-06
-5.65534e-08
4.86108e-06
-5.44668e-08
4.85853e-06
-5.37544e-08
4.85369e-06
-4.90772e-08
4.84662e-06
-4.2517e-08
4.83788e-06
-3.63299e-08
4.82811e-06
-3.1052e-08
4.81786e-06
-2.66055e-08
4.80758e-06
-2.28543e-08
4.79754e-06
-1.96942e-08
4.78792e-06
-1.70329e-08
4.77883e-06
-1.47917e-08
4.77031e-06
-1.29077e-08
4.76242e-06
-1.13706e-08
4.75525e-06
-1.02103e-08
-9.93409e-09
4.74948e-06
4.18706e-06
4.13183e-06
4.07527e-06
4.02081e-06
3.96705e-06
3.91797e-06
3.87546e-06
3.83913e-06
3.80808e-06
3.78147e-06
3.75862e-06
3.73892e-06
3.72189e-06
3.7071e-06
3.69419e-06
3.68282e-06
3.67261e-06
3.66267e-06
1.80054e-07
-1.80054e-07
4.29001e-07
-2.48947e-07
6.75135e-07
-2.46134e-07
8.97562e-07
-2.22427e-07
1.09015e-06
-1.92588e-07
1.2517e-06
-1.61549e-07
1.3829e-06
-1.31203e-07
1.48514e-06
-1.02241e-07
1.55975e-06
-7.46123e-08
1.60753e-06
-4.77783e-08
1.6287e-06
-2.11671e-08
1.6231e-06
5.59624e-09
1.58644e-06
3.66666e-08
1.52424e-06
6.21987e-08
1.44183e-06
8.24129e-08
1.34493e-06
9.68953e-08
1.23793e-06
1.07005e-07
1.12284e-06
1.15081e-07
9.98298e-07
1.24546e-07
8.58857e-07
1.3944e-07
6.96446e-07
1.62411e-07
5.01294e-07
1.95153e-07
2.63735e-07
2.37558e-07
-2.44656e-08
2.88201e-07
-3.69801e-07
3.45336e-07
-7.72643e-07
4.02842e-07
-1.22714e-06
4.54492e-07
-1.72398e-06
4.96846e-07
-2.25165e-06
5.27665e-07
-2.79762e-06
5.45976e-07
-3.34953e-06
5.51912e-07
-3.89599e-06
5.46454e-07
-4.42713e-06
5.31146e-07
-4.93497e-06
5.07832e-07
-5.41338e-06
4.78416e-07
-5.85807e-06
4.44692e-07
-6.26635e-06
4.08278e-07
-6.63687e-06
3.70517e-07
-6.96933e-06
3.32457e-07
-7.2642e-06
2.94874e-07
-7.5225e-06
2.58297e-07
-7.74555e-06
2.23054e-07
-7.93487e-06
1.89323e-07
-8.09205e-06
1.57179e-07
-8.21868e-06
1.2663e-07
-8.31632e-06
9.76347e-08
-8.38646e-06
7.01394e-08
-8.43068e-06
4.42201e-08
-8.45088e-06
2.01994e-08
-8.44957e-06
-1.30352e-09
-8.43102e-06
-1.85542e-08
-8.39737e-06
-3.36435e-08
-8.3502e-06
-4.71707e-08
-8.29052e-06
-5.96869e-08
-8.21903e-06
-7.14914e-08
-8.13626e-06
-8.2769e-08
-8.0426e-06
-9.36563e-08
-7.93832e-06
-1.04278e-07
-7.82356e-06
-1.14761e-07
-7.69832e-06
-1.2524e-07
-7.56246e-06
-1.35863e-07
-7.41567e-06
-1.46784e-07
-7.25751e-06
-1.58165e-07
-7.08734e-06
-1.70166e-07
-6.90441e-06
-1.82935e-07
-6.70781e-06
-1.96598e-07
-6.49656e-06
-2.11245e-07
-6.26966e-06
-2.26906e-07
-6.02612e-06
-2.43543e-07
-5.76509e-06
-2.61022e-07
-5.48599e-06
-2.79108e-07
-5.18853e-06
-2.97452e-07
-4.87294e-06
-3.15595e-07
-4.53995e-06
-3.32986e-07
-4.19094e-06
-3.49012e-07
-3.8279e-06
-3.63043e-07
-3.45341e-06
-3.74484e-07
-3.07058e-06
-3.82833e-07
-2.68285e-06
-3.87732e-07
-2.29385e-06
-3.88995e-07
-1.90723e-06
-3.86619e-07
-1.52646e-06
-3.8077e-07
-1.15474e-06
-3.71726e-07
-7.94943e-07
-3.59795e-07
-4.49686e-07
-3.45258e-07
-1.20519e-07
-3.29167e-07
1.92922e-07
-3.13441e-07
4.9043e-07
-2.97508e-07
7.71487e-07
-2.81058e-07
1.03622e-06
-2.64734e-07
1.28504e-06
-2.48823e-07
1.51855e-06
-2.3351e-07
1.73746e-06
-2.18907e-07
1.94254e-06
-2.05073e-07
2.13456e-06
-1.92029e-07
2.31433e-06
-1.7977e-07
2.48261e-06
-1.68272e-07
2.64011e-06
-1.575e-07
2.78752e-06
-1.47413e-07
2.92548e-06
-1.37964e-07
3.05459e-06
-1.29108e-07
3.17539e-06
-1.20799e-07
3.28838e-06
-1.12991e-07
3.39402e-06
-1.05641e-07
3.49273e-06
-9.87078e-08
3.58488e-06
-9.21514e-08
3.67081e-06
-8.59325e-08
3.75083e-06
-8.00136e-08
3.82519e-06
-7.43579e-08
3.89412e-06
-6.89297e-08
3.95781e-06
-6.36942e-08
4.01643e-06
-5.8618e-08
4.0701e-06
-5.36693e-08
4.11892e-06
-4.88187e-08
4.16296e-06
-4.40407e-08
4.20227e-06
-3.93116e-08
4.23687e-06
-3.46049e-08
4.26677e-06
-2.99013e-08
4.29199e-06
-2.52205e-08
4.31257e-06
-2.05773e-08
4.32825e-06
-1.56769e-08
4.33793e-06
-9.67977e-09
4.34045e-06
-2.51662e-09
4.33528e-06
5.16931e-09
4.32438e-06
1.08925e-08
4.30924e-06
1.51478e-08
4.29105e-06
1.81899e-08
4.27079e-06
2.02589e-08
4.24917e-06
2.16125e-08
4.22678e-06
2.23956e-08
4.20404e-06
2.27391e-08
4.18129e-06
2.27448e-08
4.1588e-06
2.24935e-08
4.13675e-06
2.20505e-08
4.11528e-06
2.14683e-08
4.09449e-06
2.07896e-08
4.07444e-06
2.00486e-08
4.05517e-06
1.92735e-08
4.03668e-06
1.84861e-08
4.01898e-06
1.77038e-08
4.00204e-06
1.69399e-08
3.98584e-06
1.62041e-08
3.97033e-06
1.55034e-08
3.95549e-06
1.48423e-08
3.94127e-06
1.42237e-08
3.92762e-06
1.36489e-08
3.9145e-06
1.31185e-08
3.90187e-06
1.26323e-08
3.88968e-06
1.21899e-08
3.87789e-06
1.17904e-08
3.86645e-06
1.14329e-08
3.85534e-06
1.11167e-08
3.8445e-06
1.08411e-08
3.83389e-06
1.06055e-08
3.82348e-06
1.04097e-08
3.81323e-06
1.02541e-08
3.80309e-06
1.01395e-08
3.79302e-06
1.00675e-08
3.78298e-06
1.00408e-08
3.77292e-06
1.00633e-08
3.76278e-06
1.01408e-08
3.75249e-06
1.02813e-08
3.742e-06
1.04958e-08
3.7312e-06
1.07991e-08
3.71999e-06
1.12118e-08
3.70823e-06
1.17614e-08
3.69574e-06
1.24856e-08
3.6823e-06
1.34366e-08
3.66762e-06
1.46869e-08
3.65128e-06
1.63399e-08
3.63273e-06
1.85449e-08
3.61121e-06
2.15243e-08
3.58559e-06
2.56184e-08
3.55422e-06
3.13649e-08
3.51456e-06
3.96676e-08
3.46256e-06
5.1996e-08
3.39102e-06
7.15426e-08
3.28943e-06
1.0159e-07
3.12642e-06
1.63007e-07
2.32334e-07
2.89409e-06
2.31281e-07
-4.11334e-07
4.28507e-07
-4.46174e-07
5.84661e-07
-4.02288e-07
7.10487e-07
-3.48252e-07
8.11324e-07
-2.93425e-07
8.89841e-07
-2.40066e-07
9.47487e-07
-1.88848e-07
9.84942e-07
-1.39696e-07
1.00239e-06
-9.2065e-08
9.99767e-07
-4.515e-08
9.76541e-07
2.05885e-09
9.31543e-07
5.05936e-08
8.66774e-07
1.01435e-07
7.75589e-07
1.53384e-07
6.52967e-07
2.05036e-07
4.93786e-07
2.56076e-07
2.92661e-07
3.0813e-07
4.34121e-08
3.6433e-07
-2.60252e-07
4.2821e-07
-6.2315e-07
5.02339e-07
-1.04705e-06
5.86308e-07
-1.52868e-06
6.76789e-07
-2.05942e-06
7.68295e-07
-2.62578e-06
8.5456e-07
-3.21026e-06
9.29816e-07
-3.79646e-06
9.89039e-07
-4.37037e-06
1.02841e-06
-4.9196e-06
1.04607e-06
-5.43408e-06
1.04215e-06
-5.90649e-06
1.01838e-06
-6.33228e-06
9.77702e-07
-6.70954e-06
9.23715e-07
-7.03863e-06
8.60232e-07
-7.32167e-06
7.90872e-07
-7.56204e-06
7.18787e-07
-7.76386e-06
6.46514e-07
-7.93153e-06
5.75942e-07
-8.06936e-06
5.08349e-07
-8.18139e-06
4.44493e-07
-8.27125e-06
3.84727e-07
-8.34206e-06
3.29106e-07
-8.3965e-06
2.77494e-07
-8.43682e-06
2.29644e-07
-8.4649e-06
1.85266e-07
-8.48234e-06
1.44066e-07
-8.49048e-06
1.05776e-07
-8.49054e-06
7.01941e-08
-8.48346e-06
3.71421e-08
-8.47002e-06
6.75541e-09
-8.44886e-06
-2.24566e-08
-8.41755e-06
-4.98689e-08
-8.37491e-06
-7.62845e-08
-8.32055e-06
-1.01525e-07
-8.25461e-06
-1.25625e-07
-8.1774e-06
-1.48703e-07
-8.08926e-06
-1.70913e-07
-7.99048e-06
-1.9243e-07
-7.88131e-06
-2.13453e-07
-7.76186e-06
-2.34207e-07
-7.63216e-06
-2.54945e-07
-7.49207e-06
-2.75947e-07
-7.34134e-06
-2.97517e-07
-7.17953e-06
-3.19975e-07
-7.00606e-06
-3.43639e-07
-6.82018e-06
-3.68815e-07
-6.62101e-06
-3.95762e-07
-6.40759e-06
-4.24672e-07
-6.17887e-06
-4.55625e-07
-5.93385e-06
-4.88558e-07
-5.67165e-06
-5.23224e-07
-5.3916e-06
-5.59163e-07
-5.09337e-06
-5.95681e-07
-4.7771e-06
-6.31862e-07
-4.4435e-06
-6.6659e-07
-4.09389e-06
-6.98621e-07
-3.73026e-06
-7.26671e-07
-3.35521e-06
-7.49528e-07
-2.97187e-06
-7.66178e-07
-2.5837e-06
-7.75901e-07
-2.19435e-06
-7.78345e-07
-1.80742e-06
-7.73549e-07
-1.42628e-06
-7.61912e-07
-1.05389e-06
-7.44119e-07
-6.92629e-07
-7.21052e-07
-3.44123e-07
-6.93764e-07
-9.6835e-09
-6.63606e-07
3.08707e-07
-6.31831e-07
6.10309e-07
-5.99111e-07
8.9537e-07
-5.66119e-07
1.16416e-06
-5.33522e-07
1.41714e-06
-5.01809e-07
1.65494e-06
-4.71305e-07
1.87825e-06
-4.42214e-07
2.08782e-06
-4.14647e-07
2.28444e-06
-3.88648e-07
2.46887e-06
-3.64205e-07
2.64188e-06
-3.41276e-07
2.80417e-06
-3.19793e-07
2.95643e-06
-2.99676e-07
3.09931e-06
-2.80841e-07
3.2334e-06
-2.63198e-07
3.35926e-06
-2.46662e-07
3.47742e-06
-2.31148e-07
3.58835e-06
-2.16575e-07
3.69251e-06
-2.02867e-07
3.79031e-06
-1.8995e-07
3.88213e-06
-1.77753e-07
3.96833e-06
-1.66209e-07
4.04922e-06
-1.55251e-07
4.12511e-06
-1.44817e-07
4.19626e-06
-1.34844e-07
4.26291e-06
-1.25272e-07
4.32529e-06
-1.16046e-07
4.38358e-06
-1.0711e-07
4.43796e-06
-9.84157e-08
4.48856e-06
-8.99149e-08
4.53552e-06
-8.1564e-08
4.57894e-06
-7.33249e-08
4.61889e-06
-6.51705e-08
4.65538e-06
-5.70635e-08
4.68863e-06
-4.89242e-08
4.71967e-06
-4.07198e-08
4.74969e-06
-3.25425e-08
4.77913e-06
-2.42736e-08
4.80651e-06
-1.64801e-08
4.83096e-06
-9.30142e-09
4.8519e-06
-2.75207e-09
4.86914e-06
3.01684e-09
4.88264e-06
8.11645e-09
4.89251e-06
1.25212e-08
4.89895e-06
1.6299e-08
4.9022e-06
1.94973e-08
4.90252e-06
2.21698e-08
4.90021e-06
2.43652e-08
4.89555e-06
2.61289e-08
4.88883e-06
2.75037e-08
4.88035e-06
2.85306e-08
4.87038e-06
2.92483e-08
4.85917e-06
2.96942e-08
4.84697e-06
2.99043e-08
4.83399e-06
2.99126e-08
4.82045e-06
2.97515e-08
4.8065e-06
2.94514e-08
4.7923e-06
2.90403e-08
4.77798e-06
2.8544e-08
4.76364e-06
2.79857e-08
4.74938e-06
2.73865e-08
4.73524e-06
2.67645e-08
4.7213e-06
2.61361e-08
4.70757e-06
2.55152e-08
4.69409e-06
2.49137e-08
4.68087e-06
2.43418e-08
4.6679e-06
2.38079e-08
4.65519e-06
2.33196e-08
4.64271e-06
2.28829e-08
4.63046e-06
2.25037e-08
4.61842e-06
2.2187e-08
4.60654e-06
2.19384e-08
4.59482e-06
2.17639e-08
4.58321e-06
2.16706e-08
4.57169e-06
2.16676e-08
4.5602e-06
2.17667e-08
4.54871e-06
2.19835e-08
4.53717e-06
2.23388e-08
4.52553e-06
2.28609e-08
4.5137e-06
2.35878e-08
4.50161e-06
2.45714e-08
4.48917e-06
2.58832e-08
4.47623e-06
2.7622e-08
4.46264e-06
2.99278e-08
4.44819e-06
3.30014e-08
4.43258e-06
3.71369e-08
4.41541e-06
4.27835e-08
4.39615e-06
5.06268e-08
4.37397e-06
6.18473e-08
4.34778e-06
7.81869e-08
4.31544e-06
1.03884e-07
4.27436e-06
1.42668e-07
4.21794e-06
2.19423e-07
3.26955e-07
4.12332e-06
1.592e-07
-5.70534e-07
2.63332e-07
-5.50306e-07
3.35159e-07
-4.74116e-07
3.85231e-07
-3.98324e-07
4.17436e-07
-3.25631e-07
4.32786e-07
-2.55416e-07
4.30615e-07
-1.86677e-07
4.09283e-07
-1.18364e-07
3.66551e-07
-4.93327e-08
2.99572e-07
2.18285e-08
2.05258e-07
9.63732e-08
8.04331e-08
1.75418e-07
-7.76827e-08
2.59551e-07
-2.7309e-07
3.48791e-07
-5.10946e-07
4.42892e-07
-7.96921e-07
5.42052e-07
-1.13563e-06
6.46844e-07
-1.52874e-06
7.57431e-07
-1.97308e-06
8.72557e-07
-2.45967e-06
9.88928e-07
-2.97463e-06
1.10127e-06
-3.50107e-06
1.20323e-06
-4.02145e-06
1.28867e-06
-4.51958e-06
1.35269e-06
-4.98205e-06
1.39228e-06
-5.39941e-06
1.4064e-06
-5.76687e-06
1.39586e-06
-6.08387e-06
1.36308e-06
-6.35332e-06
1.3116e-06
-6.58054e-06
1.2456e-06
-6.77221e-06
1.16938e-06
-6.9354e-06
1.0869e-06
-7.07671e-06
1.00155e-06
-7.2018e-06
9.15961e-07
-7.31506e-06
8.32051e-07
-7.41961e-06
7.51059e-07
-7.51736e-06
6.73689e-07
-7.60924e-06
6.00238e-07
-7.69548e-06
5.30724e-07
-7.77574e-06
4.64991e-07
-7.84942e-06
4.02787e-07
-7.91575e-06
3.43826e-07
-7.97393e-06
2.87823e-07
-8.02319e-06
2.34518e-07
-8.0628e-06
1.8368e-07
-8.09214e-06
1.35116e-07
-8.11061e-06
8.86628e-08
-8.11765e-06
4.41833e-08
-8.11242e-06
1.53138e-09
-8.09533e-06
-3.95518e-08
-8.0661e-06
-7.90987e-08
-8.02527e-06
-1.17119e-07
-7.97316e-06
-1.53628e-07
-7.9101e-06
-1.88685e-07
-7.8364e-06
-2.22402e-07
-7.75237e-06
-2.54946e-07
-7.65827e-06
-2.86528e-07
-7.55432e-06
-3.17408e-07
-7.44063e-06
-3.47898e-07
-7.31721e-06
-3.7836e-07
-7.18396e-06
-4.09203e-07
-7.04059e-06
-4.40881e-07
-6.88669e-06
-4.73875e-07
-6.72166e-06
-5.08678e-07
-6.5447e-06
-5.45768e-07
-6.35489e-06
-5.85571e-07
-6.15116e-06
-6.28409e-07
-5.93233e-06
-6.74453e-07
-5.69723e-06
-7.23653e-07
-5.44478e-06
-7.7568e-07
-5.17407e-06
-8.29867e-07
-4.88457e-06
-8.85179e-07
-4.57623e-06
-9.4021e-07
-4.24959e-06
-9.93227e-07
-3.90594e-06
-1.04227e-06
-3.5473e-06
-1.08531e-06
-3.1764e-06
-1.12042e-06
-2.79659e-06
-1.14599e-06
-2.41159e-06
-1.1609e-06
-2.02533e-06
-1.16461e-06
-1.64161e-06
-1.15726e-06
-1.26397e-06
-1.13955e-06
-8.9544e-07
-1.11265e-06
-5.38405e-07
-1.07809e-06
-1.94594e-07
-1.03758e-06
1.34455e-07
-9.92655e-07
4.47492e-07
-9.44867e-07
7.44092e-07
-8.95711e-07
1.02431e-06
-8.46336e-07
1.28845e-06
-7.97659e-07
1.53699e-06
-7.50358e-07
1.77059e-06
-7.04898e-07
1.98994e-06
-6.61569e-07
2.19582e-06
-6.20526e-07
2.389e-06
-5.81823e-07
2.57023e-06
-5.45441e-07
2.74027e-06
-5.11311e-07
2.89981e-06
-4.79334e-07
3.04952e-06
-4.49391e-07
3.19004e-06
-4.21358e-07
3.32195e-06
-3.95106e-07
3.4458e-06
-3.70512e-07
3.5621e-06
-3.47455e-07
3.67135e-06
-3.25819e-07
3.77398e-06
-3.05496e-07
3.87041e-06
-2.86382e-07
3.96104e-06
-2.68379e-07
4.04622e-06
-2.5139e-07
4.12629e-06
-2.35326e-07
4.20157e-06
-2.20097e-07
4.27235e-06
-2.0562e-07
4.33889e-06
-1.91811e-07
4.40143e-06
-1.78592e-07
4.46021e-06
-1.65886e-07
4.51541e-06
-1.53623e-07
4.56723e-06
-1.41734e-07
4.61583e-06
-1.30159e-07
4.66135e-06
-1.18843e-07
4.70391e-06
-1.07735e-07
4.74363e-06
-9.67807e-08
4.78065e-06
-8.59451e-08
4.81521e-06
-7.52835e-08
4.84755e-06
-6.48836e-08
4.878e-06
-5.47158e-08
4.90642e-06
-4.49079e-08
4.9327e-06
-3.55745e-08
4.95673e-06
-2.6786e-08
4.97837e-06
-1.86219e-08
4.99755e-06
-1.10653e-08
5.01421e-06
-4.14132e-09
5.02834e-06
2.16958e-09
5.03998e-06
7.85524e-09
5.04921e-06
1.2941e-08
5.05613e-06
1.74481e-08
5.06086e-06
2.14016e-08
5.06353e-06
2.48279e-08
5.06431e-06
2.77556e-08
5.06334e-06
3.02151e-08
5.0608e-06
3.22389e-08
5.05684e-06
3.38615e-08
5.05163e-06
3.51187e-08
5.04534e-06
3.60474e-08
5.0381e-06
3.66848e-08
5.03008e-06
3.70681e-08
5.02139e-06
3.72338e-08
5.01216e-06
3.7217e-08
5.00249e-06
3.70513e-08
4.99249e-06
3.67684e-08
4.98223e-06
3.63971e-08
4.97178e-06
3.59642e-08
4.9612e-06
3.54936e-08
4.95053e-06
3.50069e-08
4.93982e-06
3.45232e-08
4.92908e-06
3.40592e-08
4.91833e-06
3.36298e-08
4.90759e-06
3.32485e-08
4.89684e-06
3.29275e-08
4.8861e-06
3.26784e-08
4.87536e-06
3.25132e-08
4.86458e-06
3.24446e-08
4.85376e-06
3.24872e-08
4.84287e-06
3.26589e-08
4.83187e-06
3.2982e-08
4.82072e-06
3.34853e-08
4.80938e-06
3.42068e-08
4.79777e-06
3.5197e-08
4.78582e-06
3.65243e-08
4.77342e-06
3.82812e-08
4.76045e-06
4.05954e-08
4.74673e-06
4.36453e-08
4.73204e-06
4.76847e-08
4.7161e-06
5.30803e-08
4.6985e-06
6.03813e-08
4.67872e-06
7.04133e-08
4.65602e-06
8.45409e-08
4.62942e-06
1.04787e-07
4.59787e-06
1.3544e-07
4.55929e-06
1.81243e-07
4.51799e-06
2.60729e-07
3.75719e-07
4.46922e-06
5.63647e-08
-6.26899e-07
6.2285e-08
-5.56226e-07
5.09459e-08
-4.62777e-07
2.70818e-08
-3.7446e-07
-9.34256e-09
-2.89206e-07
-6.02452e-08
-2.04513e-07
-1.2853e-07
-1.18393e-07
-2.17935e-07
-2.89591e-08
-3.3224e-07
6.49723e-08
-4.75467e-07
1.65056e-07
-6.51229e-07
2.72136e-07
-8.62524e-07
3.86713e-07
-1.11175e-06
5.08781e-07
-1.40069e-06
6.37725e-07
-1.73014e-06
7.72343e-07
-2.09885e-06
9.1076e-07
-2.50218e-06
1.05017e-06
-2.93132e-06
1.18657e-06
-3.37353e-06
1.31477e-06
-3.81356e-06
1.42896e-06
-4.23586e-06
1.52357e-06
-4.62689e-06
1.59426e-06
-4.97679e-06
1.63857e-06
-5.28021e-06
1.65611e-06
-5.53631e-06
1.64838e-06
-5.74821e-06
1.6183e-06
-5.92199e-06
1.56965e-06
-6.06551e-06
1.50659e-06
-6.18708e-06
1.43317e-06
-6.29446e-06
1.35298e-06
-6.39407e-06
1.26899e-06
-6.49064e-06
1.18348e-06
-6.58717e-06
1.09807e-06
-6.68505e-06
1.01384e-06
-6.78445e-06
9.31446e-07
-6.88459e-06
8.51206e-07
-6.98415e-06
7.73249e-07
-7.08149e-06
6.97572e-07
-7.17486e-06
6.241e-07
-7.26261e-06
5.52734e-07
-7.3432e-06
4.83375e-07
-7.41531e-06
4.15939e-07
-7.47785e-06
3.50368e-07
-7.52996e-06
2.86628e-07
-7.571e-06
2.24713e-07
-7.60051e-06
1.64633e-07
-7.61827e-06
1.06416e-07
-7.62417e-06
5.00864e-08
-7.61827e-06
-4.36642e-09
-7.60087e-06
-5.69505e-08
-7.57231e-06
-1.07656e-07
-7.53297e-06
-1.56467e-07
-7.4832e-06
-2.03395e-07
-7.42338e-06
-2.48504e-07
-7.35387e-06
-2.91917e-07
-7.27499e-06
-3.3382e-07
-7.18706e-06
-3.74466e-07
-7.09028e-06
-4.14179e-07
-6.98482e-06
-4.53358e-07
-6.87071e-06
-4.92477e-07
-6.74783e-06
-5.32082e-07
-6.61592e-06
-5.72786e-07
-6.47454e-06
-6.15256e-07
-6.32304e-06
-6.60186e-07
-6.16054e-06
-7.08267e-07
-5.98597e-06
-7.60136e-07
-5.79807e-06
-8.16312e-07
-5.5954e-06
-8.77118e-07
-5.37647e-06
-9.42588e-07
-5.13978e-06
-1.01237e-06
-4.88403e-06
-1.08562e-06
-4.60825e-06
-1.16096e-06
-4.31199e-06
-1.23646e-06
-3.99557e-06
-1.30965e-06
-3.66013e-06
-1.37771e-06
-3.30777e-06
-1.43767e-06
-2.9415e-06
-1.48669e-06
-2.56509e-06
-1.5224e-06
-2.1828e-06
-1.54318e-06
-1.7991e-06
-1.54832e-06
-1.41828e-06
-1.53808e-06
-1.04425e-06
-1.51358e-06
-6.80248e-07
-1.47666e-06
-3.28782e-07
-1.42955e-06
8.20534e-09
-1.37456e-06
3.2941e-07
-1.31386e-06
6.34188e-07
-1.24965e-06
9.22343e-07
-1.18387e-06
1.19405e-06
-1.11804e-06
1.44973e-06
-1.05335e-06
1.69002e-06
-9.90647e-07
1.91564e-06
-9.30511e-07
2.12735e-06
-8.73284e-07
2.32597e-06
-8.19141e-07
2.51227e-06
-7.68125e-07
2.68702e-06
-7.20192e-07
2.85095e-06
-6.75239e-07
3.00474e-06
-6.33126e-07
3.14905e-06
-5.93695e-07
3.28447e-06
-5.56779e-07
3.41157e-06
-5.22212e-07
3.53089e-06
-4.89832e-07
3.64292e-06
-4.59485e-07
3.74813e-06
-4.31024e-07
3.84694e-06
-4.04311e-07
3.93977e-06
-3.79214e-07
4.027e-06
-3.55609e-07
4.10899e-06
-3.33377e-07
4.18607e-06
-3.12404e-07
4.25855e-06
-2.92579e-07
4.32673e-06
-2.73797e-07
4.39087e-06
-2.55955e-07
4.45123e-06
-2.38951e-07
4.50804e-06
-2.22692e-07
4.5615e-06
-2.07085e-07
4.61181e-06
-1.92045e-07
4.65914e-06
-1.77492e-07
4.70365e-06
-1.63352e-07
4.74548e-06
-1.49562e-07
4.78476e-06
-1.3606e-07
4.82163e-06
-1.22819e-07
4.85622e-06
-1.0987e-07
4.8886e-06
-9.72679e-08
4.9189e-06
-8.50103e-08
4.94714e-06
-7.31471e-08
4.97331e-06
-6.17507e-08
4.99741e-06
-5.08798e-08
5.01937e-06
-4.05878e-08
5.0392e-06
-3.08941e-08
5.05688e-06