/*--------------------------------*- C++ -*----------------------------------*\
  =========                 |
  \\      /  F ield         | OpenFOAM: The Open Source CFD Toolbox
   \\    /   O peration     | Website:  https://openfoam.org
    \\  /    A nd           | Version:  12
     \\/     M anipulation  |
\*---------------------------------------------------------------------------*/
FoamFile
{
    format      ascii;
    class       volVectorField;
    location    "0.02";
    object      U;
}
// * * * * * * * * * * * * * * * * * * * * * * * * * * * * * * * * * * * * * //

dimensions      [0 1 -1 0 0 0 0];

internalField   nonuniform List<vector> 
12225
(
(9.86113 -0.872776 0)
(9.67055 -0.697441 0)
(9.45262 -0.384754 0)
(9.21197 -0.185806 0)
(8.9824 -0.0820351 0)
(8.77898 -0.0304692 0)
(8.60133 -0.00482163 0)
(8.4457 0.00825148 0)
(8.30827 0.0152182 0)
(8.18506 0.0191893 0)
(8.07203 0.0217566 0)
(7.96546 0.0238181 0)
(7.86172 0.025943 0)
(7.75722 0.0286208 0)
(7.64642 0.0324101 0)
(7.52581 0.0385317 0)
(7.3719 0.0495257 0)
(7.20163 0.0665315 0)
(10.0545 0.263924 0)
(10.1193 0.361828 0)
(10.1155 0.274977 0)
(10.0772 0.188966 0)
(10.0311 0.133658 0)
(9.97893 0.10028 0)
(9.91787 0.0799563 0)
(9.84907 0.0673433 0)
(9.77543 0.05933 0)
(9.6992 0.0541916 0)
(9.62149 0.0511071 0)
(9.54271 0.0497787 0)
(9.46266 0.0501915 0)
(9.38096 0.0527033 0)
(9.29574 0.0578061 0)
(9.20798 0.0681974 0)
(9.10881 0.0838603 0)
(9.01954 0.122697 0)
(9.99898 0.045984 0)
(10.0231 0.0346902 0)
(10.0505 0.0165038 0)
(10.0642 0.0247897 0)
(10.0668 0.0409282 0)
(10.0617 0.0515344 0)
(10.0488 0.0569137 0)
(10.0284 0.0597996 0)
(10.0018 0.061749 0)
(9.97017 0.0635368 0)
(9.93403 0.0656825 0)
(9.89356 0.0686435 0)
(9.84863 0.0728847 0)
(9.799 0.079135 0)
(9.74368 0.0882513 0)
(9.68258 0.1029 0)
(9.61362 0.124561 0)
(9.541 0.165478 0)
(9.99666 0.00680651 0)
(10.0072 0.0265847 0)
(10.0306 0.0417381 0)
(10.0456 0.0543433 0)
(10.0526 0.0626157 0)
(10.0556 0.0663581 0)
(10.0545 0.0680325 0)
(10.0487 0.069473 0)
(10.0387 0.0712999 0)
(10.0248 0.073729 0)
(10.0072 0.0770052 0)
(9.98577 0.0814887 0)
(9.96031 0.0876655 0)
(9.9305 0.0963286 0)
(9.89582 0.10853 0)
(9.85621 0.126631 0)
(9.81195 0.152622 0)
(9.76497 0.193306 0)
(9.99909 0.00741011 0)
(10.0068 0.0357195 0)
(10.0234 0.0496989 0)
(10.0345 0.0560973 0)
(10.0404 0.0610413 0)
(10.0444 0.0647698 0)
(10.0461 0.0676061 0)
(10.0444 0.0703675 0)
(10.0394 0.0735258 0)
(10.0313 0.0773408 0)
(10.0203 0.0821148 0)
(10.0061 0.0882688 0)
(9.98864 0.0963589 0)
(9.96767 0.107211 0)
(9.94306 0.121934 0)
(9.91514 0.142449 0)
(9.88486 0.170531 0)
(9.85449 0.209642 0)
(10.0001 0.0099449 0)
(10.0065 0.0347811 0)
(10.0188 0.0464241 0)
(10.0277 0.052179 0)
(10.0329 0.0579245 0)
(10.0365 0.0630634 0)
(10.0384 0.0672185 0)
(10.0377 0.0711259 0)
(10.0343 0.0754074 0)
(10.0284 0.0804176 0)
(10.02 0.0865021 0)
(10.009 0.0941125 0)
(9.99518 0.103831 0)
(9.97865 0.11646 0)
(9.95947 0.13304 0)
(9.93821 0.155062 0)
(9.91606 0.183879 0)
(9.89529 0.221364 0)
(10.0002 0.00986752 0)
(10.0055 0.030737 0)
(10.0153 0.0425426 0)
(10.0231 0.0496135 0)
(10.0277 0.056245 0)
(10.0309 0.0621522 0)
(10.0325 0.0671251 0)
(10.032 0.0719004 0)
(10.0292 0.077128 0)
(10.0243 0.0831879 0)
(10.0172 0.0904374 0)
(10.008 0.0993333 0)
(9.99647 0.11045 0)
(9.98285 0.124525 0)
(9.96739 0.142462 0)
(9.95079 0.165378 0)
(9.93425 0.194213 0)
(9.91978 0.229944 0)
(10.0002 0.00911107 0)
(10.0045 0.0275183 0)
(10.0125 0.0398337 0)
(10.0194 0.047887 0)
(10.0237 0.0549379 0)
(10.0264 0.06131 0)
(10.0278 0.0669857 0)
(10.0274 0.0725806 0)
(10.025 0.0786973 0)
(10.0208 0.0857286 0)
(10.0147 0.0940402 0)
(10.0068 0.104079 0)
(9.9971 0.116385 0)
(9.98584 0.131607 0)
(9.97342 0.150484 0)
(9.96057 0.173816 0)
(9.94841 0.202187 0)
(9.93858 0.23603 0)
(10.0002 0.00843796 0)
(10.0037 0.0251575 0)
(10.0102 0.0375377 0)
(10.0163 0.0461723 0)
(10.0203 0.0535739 0)
(10.0228 0.0604194 0)
(10.0241 0.0667954 0)
(10.0238 0.0731865 0)
(10.0218 0.0801441 0)
(10.0182 0.088074 0)
(10.0131 0.0973442 0)
(10.0064 0.108377 0)
(9.99843 0.12166 0)
(9.98936 0.137737 0)
(9.97967 0.157181 0)
(9.97009 0.180529 0)
(9.96158 0.20809 0)
(9.95548 0.239983 0)
(10.0003 0.00786614 0)
(10.0031 0.0232093 0)
(10.0083 0.0353573 0)
(10.0136 0.0444066 0)
(10.0174 0.0521999 0)
(10.0198 0.0595229 0)
(10.0211 0.066551 0)
(10.021 0.0736828 0)
(10.0195 0.0814185 0)
(10.0167 0.0901635 0)
(10.0125 0.100276 0)
(10.0072 0.112141 0)
(10.0009 0.126179 0)
(9.99394 0.142828 0)
(9.98682 0.162501 0)
(9.9802 0.185533 0)
(9.9749 0.212033 0)
(9.97194 0.241946 0)
(10.0002 0.0073432 0)
(10.0026 0.0215251 0)
(10.0069 0.0333314 0)
(10.0114 0.0426758 0)
(10.0149 0.0508412 0)
(10.0173 0.0585956 0)
(10.0187 0.0661973 0)
(10.019 0.0739939 0)
(10.0181 0.0824288 0)
(10.016 0.0918882 0)
(10.013 0.102708 0)
(10.0091 0.115228 0)
(10.0045 0.129793 0)
(9.99969 0.146738 0)
(9.99503 0.166342 0)
(9.99114 0.18878 0)
(9.98869 0.21403 0)
(9.98847 0.241947 0)
(10.0002 0.00688932 0)
(10.0022 0.0201636 0)
(10.0058 0.0316225 0)
(10.0098 0.041127 0)
(10.0132 0.049577 0)
(10.0156 0.0576732 0)
(10.0171 0.0657255 0)
(10.0178 0.0740502 0)
(10.0175 0.0830368 0)
(10.0163 0.0930415 0)
(10.0143 0.104371 0)
(10.0118 0.117316 0)
(10.0088 0.132155 0)
(10.0059 0.149132 0)
(10.0034 0.168422 0)
(10.0018 0.190096 0)
(10.0018 0.214052 0)
(10.0038 0.240115 0)
(10.0002 0.00647289 0)
(10.0019 0.0189604 0)
(10.005 0.0300391 0)
(10.0086 0.0395944 0)
(10.0118 0.0482619 0)
(10.0143 0.0566438 0)
(10.0161 0.0650693 0)
(10.0172 0.0738324 0)
(10.0175 0.0832719 0)
(10.0172 0.0937056 0)
(10.0164 0.105405 0)
(10.0152 0.118612 0)
(10.0139 0.133539 0)
(10.0128 0.150355 0)
(10.0123 0.169152 0)
(10.0129 0.189922 0)
(10.0149 0.212517 0)
(10.0189 0.236748 0)
(10.0002 0.00604207 0)
(10.0016 0.0177261 0)
(10.0043 0.0283442 0)
(10.0075 0.0378405 0)
(10.0106 0.0466536 0)
(10.0133 0.0552702 0)
(10.0155 0.0640122 0)
(10.0171 0.0731489 0)
(10.0183 0.082965 0)
(10.0191 0.0937287 0)
(10.0195 0.105666 0)
(10.0199 0.118962 0)
(10.0204 0.133764 0)
(10.0213 0.150165 0)
(10.023 0.168186 0)
(10.0257 0.18776 0)
(10.0299 0.208709 0)
(10.0359 0.230852 0)
(10.0002 0.00558627 0)
(10.0014 0.0164297 0)
(10.0038 0.0264952 0)
(10.0068 0.0357933 0)
(10.0099 0.044628 0)
(10.0128 0.0533727 0)
(10.0155 0.0623157 0)
(10.018 0.0716935 0)
(10.0201 0.0817347 0)
(10.0221 0.0926489 0)
(10.0241 0.104607 0)
(10.0262 0.117735 0)
(10.0286 0.132116 0)
(10.0316 0.147777 0)
(10.0354 0.164682 0)
(10.0404 0.182726 0)
(10.0466 0.201723 0)
(10.0544 0.221514 0)
(10.0001 0.00508696 0)
(10.0013 0.015011 0)
(10.0035 0.0243934 0)
(10.0065 0.0333045 0)
(10.0098 0.041966 0)
(10.0131 0.0506527 0)
(10.0165 0.0595986 0)
(10.0198 0.0689958 0)
(10.0232 0.079015 0)
(10.0266 0.0898032 0)
(10.0302 0.101471 0)
(10.0341 0.114088 0)
(10.0385 0.127678 0)
(10.0436 0.142217 0)
(10.0495 0.157634 0)
(10.0565 0.173805 0)
(10.0647 0.190551 0)
(10.0741 0.207747 0)
(10.0001 0.00450645 0)
(10.0013 0.0133494 0)
(10.0035 0.0218424 0)
(10.0066 0.0301029 0)
(10.0103 0.0383048 0)
(10.0143 0.0466429 0)
(10.0185 0.055286 0)
(10.0229 0.064372 0)
(10.0276 0.0740127 0)
(10.0325 0.0842935 0)
(10.0378 0.0952677 0)
(10.0436 0.106953 0)
(10.0499 0.119329 0)
(10.057 0.13234 0)
(10.0648 0.145893 0)
(10.0736 0.159869 0)
(10.0834 0.174107 0)
(10.0942 0.188518 0)
(10.0002 0.00377243 0)
(10.0014 0.0112289 0)
(10.0039 0.0185022 0)
(10.0074 0.0257412 0)
(10.0116 0.0330877 0)
(10.0164 0.0406704 0)
(10.0217 0.0485914 0)
(10.0273 0.0569287 0)
(10.0334 0.0657369 0)
(10.0399 0.075046 0)
(10.0469 0.0848596 0)
(10.0544 0.0951545 0)
(10.0625 0.105881 0)
(10.0712 0.116967 0)
(10.0807 0.128318 0)
(10.091 0.139825 0)
(10.1019 0.151358 0)
(10.1137 0.162858 0)
(10.0002 0.00276322 0)
(10.0017 0.0082842 0)
(10.0046 0.0137907 0)
(10.0087 0.0194574 0)
(10.0138 0.0253995 0)
(10.0197 0.0316822 0)
(10.0261 0.0383375 0)
(10.0331 0.0453839 0)
(10.0406 0.0528245 0)
(10.0486 0.0606439 0)
(10.0571 0.0688084 0)
(10.0662 0.0772683 0)
(10.0758 0.08596 0)
(10.0859 0.0948083 0)
(10.0966 0.103728 0)
(10.1078 0.11263 0)
(10.1196 0.121415 0)
(10.1319 0.130045 0)
(10.0002 0.00164983 0)
(10.002 0.00499972 0)
(10.0054 0.00849214 0)
(10.0104 0.012348 0)
(10.0164 0.016665 0)
(10.0233 0.0214404 0)
(10.0307 0.0266411 0)
(10.0388 0.0322386 0)
(10.0474 0.0381978 0)
(10.0565 0.0444699 0)
(10.0661 0.0509972 0)
(10.0762 0.0577178 0)
(10.0867 0.0645655 0)
(10.0976 0.0714703 0)
(10.1089 0.0783597 0)
(10.1207 0.0851621 0)
(10.1327 0.0918022 0)
(10.1452 0.0982562 0)
(10.0002 0.000610138 0)
(10.0023 0.00191459 0)
(10.0063 0.0035262 0)
(10.012 0.00576525 0)
(10.0189 0.00869091 0)
(10.0265 0.0121926 0)
(10.0348 0.0161766 0)
(10.0437 0.0205918 0)
(10.0531 0.0253779 0)
(10.063 0.0304571 0)
(10.0732 0.0357523 0)
(10.0839 0.0411945 0)
(10.0949 0.0467178 0)
(10.1063 0.0522572 0)
(10.118 0.057749 0)
(10.1299 0.0631335 0)
(10.1421 0.0683502 0)
(10.1545 0.073381 0)
(10.0003 -0.000409951 0)
(10.0026 -0.00118696 0)
(10.0072 -0.00148847 0)
(10.0138 -0.000762519 0)
(10.0215 0.000953852 0)
(10.0299 0.00335901 0)
(10.039 0.00629074 0)
(10.0485 0.009689 0)
(10.0585 0.0134735 0)
(10.069 0.0175431 0)
(10.0797 0.0218095 0)
(10.0908 0.0262005 0)
(10.1021 0.0306515 0)
(10.1138 0.0351014 0)
(10.1257 0.0394938 0)
(10.1377 0.0437784 0)
(10.1499 0.0479062 0)
(10.1623 0.051863 0)
(10.0003 -0.001372 0)
(10.0028 -0.00427645 0)
(10.0082 -0.00649345 0)
(10.0158 -0.0071601 0)
(10.0244 -0.00653476 0)
(10.0335 -0.00509213 0)
(10.0431 -0.00301627 0)
(10.0533 -0.000411767 0)
(10.0638 0.00257676 0)
(10.0746 0.00582235 0)
(10.0857 0.00924199 0)
(10.0971 0.0127724 0)
(10.1087 0.016353 0)
(10.1205 0.0199273 0)
(10.1325 0.0234464 0)
(10.1446 0.0268679 0)
(10.1568 0.0301524 0)
(10.1691 0.0332882 0)
(10.0002 -0.00225203 0)
(10.0029 -0.00760358 0)
(10.0092 -0.0114377 0)
(10.0179 -0.0130018 0)
(10.0274 -0.0133614 0)
(10.0372 -0.0129503 0)
(10.0474 -0.0116958 0)
(10.058 -0.00973529 0)
(10.0689 -0.00735267 0)
(10.08 -0.00473808 0)
(10.0914 -0.00197593 0)
(10.1029 0.000878936 0)
(10.1147 0.00377157 0)
(10.1266 0.00665188 0)
(10.1386 0.00947735 0)
(10.1507 0.0122152 0)
(10.1628 0.0148358 0)
(10.1749 0.0173314 0)
(10.0001 -0.00267961 0)
(10.0028 -0.0120737 0)
(10.0104 -0.0174778 0)
(10.0202 -0.0187879 0)
(10.0302 -0.01931 0)
(10.0405 -0.019646 0)
(10.0514 -0.0192139 0)
(10.0626 -0.0179735 0)
(10.0739 -0.0162373 0)
(10.0853 -0.0142272 0)
(10.0968 -0.0120426 0)
(10.1085 -0.00975137 0)
(10.1202 -0.00741603 0)
(10.1321 -0.00508748 0)
(10.1439 -0.00280472 0)
(10.1558 -0.000596465 0)
(10.1677 0.00151359 0)
(10.1795 0.00351871 0)
(9.99911 -0.000596354 0)
(10.0011 -0.0157126 0)
(10.0114 -0.0251526 0)
(10.0229 -0.0271015 0)
(10.0333 -0.0268988 0)
(10.0441 -0.0264814 0)
(10.0558 -0.0257381 0)
(10.0677 -0.0246361 0)
(10.0793 -0.0232927 0)
(10.0908 -0.02176 0)
(10.1023 -0.0200666 0)
(10.1137 -0.0182643 0)
(10.125 -0.0164109 0)
(10.1363 -0.0145536 0)
(10.1475 -0.0127265 0)
(10.1586 -0.0109581 0)
(10.1696 -0.00926817 0)
(10.1806 -0.00766332 0)
(9.99543 0.00443798 0)
(9.99447 -0.00896394 0)
(10.01 -0.0248902 0)
(10.0267 -0.035493 0)
(10.0398 -0.0400601 0)
(10.0518 -0.0402798 0)
(10.0638 -0.0384208 0)
(10.0754 -0.0360803 0)
(10.0862 -0.0338067 0)
(10.0965 -0.0316251 0)
(10.1063 -0.029498 0)
(10.1158 -0.0274304 0)
(10.125 -0.0254386 0)
(10.1339 -0.0235341 0)
(10.1426 -0.0217262 0)
(10.1512 -0.0200257 0)
(10.1595 -0.0184344 0)
(10.1678 -0.0169302 0)
(9.99144 -0.016495 0)
(9.99256 0.00212175 0)
(10.0124 0.0199597 0)
(10.0345 0.014475 0)
(10.0523 -0.00133506 0)
(10.0659 -0.0141797 0)
(10.0762 -0.0216635 0)
(10.0834 -0.0256447 0)
(10.0884 -0.0275962 0)
(10.0919 -0.0282512 0)
(10.0944 -0.0280687 0)
(10.0962 -0.0273827 0)
(10.0975 -0.0264147 0)
(10.0984 -0.0253027 0)
(10.0992 -0.0241392 0)
(10.1 -0.0229929 0)
(10.1007 -0.0219273 0)
(10.1017 -0.0209036 0)
(10.0233 -0.206204 0)
(10.0683 -0.311813 0)
(10.0799 -0.254103 0)
(10.0736 -0.182001 0)
(10.0665 -0.132174 0)
(10.0593 -0.0994907 0)
(10.0478 -0.0774312 0)
(10.0314 -0.0623725 0)
(10.0118 -0.0518531 0)
(9.99073 -0.0441618 0)
(9.9693 -0.0382685 0)
(9.94815 -0.0335899 0)
(9.92772 -0.0297743 0)
(9.90828 -0.0265943 0)
(9.89001 -0.0239066 0)
(9.87298 -0.0216518 0)
(9.85737 -0.0198083 0)
(9.84319 -0.0186908 0)
(9.94278 0.670641 0)
(9.88231 0.56606 0)
(9.77976 0.33761 0)
(9.64185 0.183192 0)
(9.5024 0.0952817 0)
(9.37759 0.0479725 0)
(9.26932 0.0226781 0)
(9.176 0.00889795 0)
(9.09601 0.00123383 0)
(9.02764 -0.00304906 0)
(8.96909 -0.00540895 0)
(8.91873 -0.00666527 0)
(8.87524 -0.00728634 0)
(8.83754 -0.00753984 0)
(8.80472 -0.00758594 0)
(8.776 -0.00755044 0)
(8.75046 -0.00752906 0)
(8.7276 -0.00790291 0)
(0.0897913 -0.183801 -3.91562e-20)
(0.268229 -0.29964 3.43157e-20)
(0.487312 -0.326674 0)
(0.699039 -0.31168 0)
(0.886025 -0.279371 0)
(1.04458 -0.241263 -2.88035e-20)
(1.17535 -0.202457 0)
(1.27969 -0.165129 0)
(1.35894 -0.129905 0)
(1.41402 -0.0963703 0)
(1.44601 -0.0631187 2.89156e-20)
(1.45546 -0.0284616 0)
(1.43643 0.0059498 0)
(1.39196 0.0371139 0)
(1.32693 0.0618594 0)
(1.2465 0.0781306 3.0955e-20)
(1.15529 0.0854638 0)
(1.05652 0.08472 0)
(0.950641 0.0778884 0)
(0.834522 0.0684786 0)
(0.702023 0.0619448 0)
(0.545209 0.065407 0)
(0.354991 0.0850794 0)
(0.12223 0.12272 4.21356e-20)
(-0.161493 0.17708 -4.11474e-20)
(-0.498651 0.242446 3.78847e-20)
(-0.886079 0.310945 3.50722e-20)
(-1.3168 0.375282 0)
(-1.78108 0.429789 0)
(-2.26781 0.470913 -2.97821e-20)
(-2.7656 0.497111 -2.8955e-20)
(-3.26365 0.508487 0)
(-3.75234 0.506337 0)
(-4.22365 0.492686 -2.82739e-20)
(-4.67124 0.469889 0)
(-5.09047 0.440308 0)
(-5.47823 0.406098 2.89243e-20)
(-5.83273 0.369096 0)
(-6.15326 0.330778 2.95201e-20)
(-6.4399 0.292271 5.95896e-20)
(-6.69333 0.254387 0)
(-6.91458 0.217689 0)
(-7.10491 0.18256 0)
(-7.26568 0.149264 0)
(-7.39825 0.118 0)
(-7.50403 0.0889572 6.10301e-20)
(-7.58447 0.0624245 6.08902e-20)
(-7.64099 0.0388617 6.06371e-20)
(-7.67481 0.0187209 0)
(-7.68738 0.0021397 -5.97419e-20)
(-7.68179 -0.0111186 0)
(-7.66276 -0.0219788 5.81484e-20)
(-7.63076 -0.0315718 5.71371e-20)
(-7.58694 -0.040377 0)
(-7.53205 -0.0486384 0)
(-7.46661 -0.0565091 0)
(-7.39103 -0.0641022 5.16435e-20)
(-7.30558 -0.0715186 0)
(-7.21043 -0.0788582 0)
(-7.10563 -0.0862239 0)
(-6.99108 -0.0937232 0)
(-6.86658 -0.101466 0)
(-6.73174 -0.109563 0)
(-6.58604 -0.11812 0)
(-6.42881 -0.127231 0)
(-6.25924 -0.136971 -3.02575e-20)
(-6.07642 -0.147388 0)
(-5.87939 -0.158489 0)
(-5.66717 -0.170232 1.94877e-20)
(-5.43885 -0.182518 1.53469e-20)
(-5.19371 -0.195179 0)
(-4.93129 -0.207979 -6.12639e-21)
(-4.6515 -0.220619 1.01859e-21)
(-4.35475 -0.232747 0)
(-4.04197 -0.243981 1.02239e-20)
(-3.71472 -0.253933 0)
(-3.37511 -0.262244 0)
(-3.02579 -0.268616 -2.95525e-20)
(-2.66981 -0.272833 0)
(-2.31049 -0.274775 4.38577e-20)
(-1.95125 -0.274408 0)
(-1.59544 -0.271757 -5.90404e-20)
(-1.24622 -0.266854 -6.68889e-20)
(-0.906458 -0.259655 -7.48743e-20)
(-0.578612 -0.24995 -1.6595e-19)
(-0.264365 -0.237436 1.81788e-19)
(0.0355 -0.222172 0)
(0.321178 -0.205808 0)
(0.592858 -0.190114 0)
(0.84956 -0.175385 1.71836e-19)
(1.09146 -0.161669 1.66997e-19)
(1.31905 -0.148969 -1.62325e-19)
(1.53293 -0.137259 0)
(1.73379 -0.126492 1.53537e-19)
(1.92234 -0.116609 1.49434e-19)
(2.0993 -0.107547 1.45526e-19)
(2.2654 -0.0992406 0)
(2.4213 -0.0916231 0)
(2.56767 -0.0846319 0)
(2.70509 -0.0782076 1.31777e-19)
(2.83414 -0.0722947 0)
(2.95533 -0.066842 0)
(3.06914 -0.0618025 -1.23274e-19)
(3.17601 -0.0571326 0)
(3.27634 -0.0527923 0)
(3.37049 -0.0487447 -1.16119e-19)
(3.45878 -0.0449552 0)
(3.54151 -0.0413915 0)
(3.61891 -0.0380234 1.10138e-19)
(3.69122 -0.0348225 1.08378e-19)
(3.75862 -0.0317623 0)
(3.82126 -0.0288179 -1.05178e-19)
(3.87928 -0.0259668 0)
(3.93275 -0.023189 1.02375e-19)
(3.98176 -0.0204687 0)
(4.02634 -0.0177919 9.99364e-20)
(4.06652 -0.0151401 9.88443e-20)
(4.10228 -0.0125047 0)
(4.13363 -0.00992833 0)
(4.16058 -0.00746184 0)
(4.18315 -0.00485829 0)
(4.20093 -0.00135962 0)
(4.21213 0.00327832 0)
(4.21543 0.00772477 0)
(4.2124 0.0112506 9.28158e-20)
(4.20459 0.0136674 -9.23476e-20)
(4.19331 0.0150524 0)
(4.1796 0.0155939 0)
(4.16427 0.0155149 0)
(4.14794 0.0150008 0)
(4.13108 0.014194 -1.80914e-19)
(4.11406 0.0132033 0)
(4.09719 0.0121125 1.79607e-19)
(4.08066 0.0109838 -1.78972e-19)
(4.06465 0.00986279 0)
(4.04928 0.00878159 0)
(4.03461 0.00776228 0)
(4.0207 0.00681885 1.76492e-19)
(4.00757 0.0059591 1.75879e-19)
(3.99523 0.00518605 0)
(3.98367 0.00449911 1.74655e-19)
(3.97288 0.00389502 1.74043e-19)
(3.96281 0.00336868 -1.7343e-19)
(3.95343 0.0029138 0)
(3.94472 0.00252347 0)
(3.93662 0.00219062 -1.71592e-19)
(3.92909 0.00190838 0)
(3.9221 0.00167029 0)
(3.9156 0.00147051 0)
(3.90955 0.00130383 0)
(3.9039 0.00116574 1.68531e-19)
(3.89863 0.00105243 1.67921e-19)
(3.89369 0.000960717 0)
(3.88904 0.000888025 1.66705e-19)
(3.88464 0.000832362 0)
(3.88045 0.000792286 0)
(3.87644 0.000766896 1.64898e-19)
(3.87256 0.000755849 0)
(3.86876 0.000759395 1.63711e-19)
(3.86501 0.000778393 0)
(3.86124 0.000814409 0)
(3.85741 0.000869861 1.61975e-19)
(3.85343 0.00094822 0)
(3.84923 0.0010543 1.60864e-19)
(3.8447 0.00119467 0)
(3.83971 0.00137825 0)
(3.83411 0.00161716 0)
(3.82769 0.00192801 -1.58859e-19)
(3.82018 0.00233385 0)
(3.8112 0.0028672 1.58058e-19)
(3.80027 0.00357481 0)
(3.78671 0.00452588 0)
(3.76953 0.00582535 0)
(3.74731 0.00763927 0)
(3.71797 0.0102417 0)
(3.67788 0.0140806 0)
(3.62277 0.0201432 0)
(3.53829 0.0292458 -3.21285e-19)
(3.43067 0.0487533 0)
(3.16933 0.0662732 0)
(0.138055 -0.594264 1.01207e-19)
(0.298624 -0.703205 -8.13455e-20)
(0.451145 -0.652639 0)
(0.578332 -0.570117 4.70327e-20)
(0.679554 -0.482524 0)
(0.759259 -0.397308 2.2266e-20)
(0.820019 -0.316988 -4.55245e-20)
(0.862743 -0.242114 -4.60586e-20)
(0.887691 -0.171992 0)
(0.894779 -0.105071 -4.78513e-20)
(0.883188 -0.0393736 -2.4359e-20)
(0.852723 0.0263294 0)
(0.806715 0.0905846 0)
(0.739241 0.150215 0)
(0.645525 0.202482 0)
(0.521144 0.246947 -2.71384e-20)
(0.361607 0.286456 0)
(0.161835 0.326922 5.76862e-20)
(-0.0838348 0.376948 0)
(-0.381206 0.446041 0)
(-0.733371 0.538143 -4.96634e-20)
(-1.14043 0.651107 0)
(-1.59723 0.777237 4.35478e-20)
(-2.09292 0.905507 -2.06078e-20)
(-2.61289 1.02475 1.94557e-20)
(-3.14239 1.12577 -1.85411e-20)
(-3.66767 1.20165 -1.78807e-20)
(-4.17658 1.24852 0)
(-4.6588 1.26551 0)
(-5.10634 1.2543 1.74071e-20)
(-5.51376 1.21846 -2.00148e-20)
(-5.87816 1.16263 0)
(-6.19889 1.09189 0)
(-6.47715 1.01116 1.94449e-20)
(-6.71551 0.924819 0)
(-6.91744 0.836489 0)
(-7.08683 0.748962 -2.17399e-20)
(-7.22764 0.664231 0)
(-7.34365 0.583588 2.48393e-20)
(-7.43829 0.507754 -4.75743e-20)
(-7.51457 0.437021 0)
(-7.57508 0.371374 0)
(-7.62201 0.310603 -1.02997e-19)
(-7.65719 0.254389 -1.03983e-19)
(-7.68215 0.202374 -1.0465e-19)
(-7.6982 0.154208 5.34069e-20)
(-7.7064 0.109644 -5.16625e-20)
(-7.70773 0.0686371 -1.56307e-19)
(-7.70313 0.0314328 1.04124e-19)
(-7.6927 -0.00177928 5.08209e-20)
(-7.67485 -0.0313208 0)
(-7.64616 -0.0578113 -4.93123e-20)
(-7.6069 -0.0820379 4.95762e-20)
(-7.55699 -0.104483 0)
(-7.49664 -0.125475 0)
(-7.42612 -0.145269 0)
(-7.34572 -0.164095 -4.33137e-20)
(-7.25566 -0.182177 0)
(-7.15609 -0.199751 8.14644e-20)
(-7.04706 -0.217066 0)
(-6.92849 -0.234387 7.40546e-20)
(-6.80019 -0.25199 0)
(-6.66181 -0.270155 -6.56273e-20)
(-6.51287 -0.289153 0)
(-6.35271 -0.30923 5.60996e-20)
(-6.18057 -0.330587 -2.6481e-20)
(-5.99554 -0.353356 0)
(-5.79665 -0.37757 -3.94889e-20)
(-5.58291 -0.403141 -1.5357e-20)
(-5.35338 -0.429828 -1.19819e-20)
(-5.10728 -0.457222 0)
(-4.8441 -0.484737 -7.71361e-21)
(-4.56368 -0.511623 -7.69795e-22)
(-4.26637 -0.536996 0)
(-3.95306 -0.559895 -7.53471e-21)
(-3.62526 -0.579355 2.03563e-20)
(-3.2851 -0.594497 0)
(-2.93521 -0.604615 2.08965e-20)
(-2.57868 -0.609249 0)
(-2.21883 -0.608231 -8.69453e-20)
(-1.85904 -0.601691 0)
(-1.50257 -0.590023 1.14875e-19)
(-1.15241 -0.573818 4.40268e-20)
(-0.811064 -0.553765 -4.53991e-20)
(-0.480497 -0.530555 -1.00119e-19)
(-0.161934 -0.504756 1.07888e-19)
(0.143116 -0.476829 0)
(0.433361 -0.447818 0)
(0.708511 -0.419089 0)
(0.968703 -0.391256 -3.43977e-19)
(1.21429 -0.364652 -1.15233e-19)
(1.44575 -0.339466 1.14181e-19)
(1.66367 -0.31579 0)
(1.86872 -0.293647 1.08712e-19)
(2.06158 -0.273015 -1.10336e-19)
(2.24298 -0.253839 -1.08932e-19)
(2.41359 -0.236044 0)
(2.5741 -0.219543 0)
(2.72513 -0.204246 0)
(2.8673 -0.19006 -1.03277e-19)
(3.00118 -0.176897 0)
(3.12728 -0.164671 1.99765e-19)
(3.2461 -0.153302 2.96655e-19)
(3.35811 -0.142714 -1.94992e-19)
(3.46372 -0.132839 0)
(3.56333 -0.12361 -9.47981e-20)
(3.65731 -0.114965 0)
(3.74598 -0.106846 -1.86585e-19)
(3.82966 -0.0991987 9.19932e-20)
(3.90862 -0.0919718 9.11559e-20)
(3.98313 -0.0851166 0)
(4.05342 -0.0785877 2.70027e-19)
(4.1197 -0.0723428 -1.78394e-19)
(4.18215 -0.0663435 -8.87656e-20)
(4.24093 -0.0605556 0)
(4.29619 -0.0549482 -8.75304e-20)
(4.34804 -0.0494918 -2.60594e-19)
(4.39659 -0.044163 0)
(4.44193 -0.0389531 -1.71735e-19)
(4.48407 -0.0338401 -1.70909e-19)
(4.52302 -0.0286552 -1.70153e-19)
(4.5591 -0.0230154 0)
(4.59387 -0.0168991 0)
(4.62868 -0.0111801 0)
(4.66222 -0.00626146 8.35882e-20)
(4.69336 -0.00218029 8.34248e-20)
(4.72142 0.00115953 0)
(4.746 0.0038912 1.6537e-19)
(4.76701 0.00607272 1.64714e-19)
(4.78449 0.00777422 0)
(4.7986 0.00907058 1.63557e-19)
(4.80953 0.0100193 3.2582e-19)
(4.81752 0.0106719 -1.62405e-19)
(4.82285 0.0110733 -1.61776e-19)
(4.82579 0.0112625 0)
(4.82661 0.0112739 0)
(4.82561 0.0111384 0)
(4.82304 0.0108836 -1.59832e-19)
(4.81917 0.0105343 1.59319e-19)
(4.81425 0.0101125 3.17725e-19)
(4.80849 0.00963771 -1.58404e-19)
(4.8021 0.0091267 1.57918e-19)
(4.79527 0.00859396 1.57467e-19)
(4.78816 0.0080517 0)
(4.7809 0.00751009 0)
(4.77361 0.00697748 -1.56054e-19)
(4.76638 0.00646059 0)
(4.75929 0.00596476 0)
(4.75241 0.00549414 3.09265e-19)
(4.74576 0.00505184 0)
(4.73939 0.00464017 1.53669e-19)
(4.73332 0.00426075 -1.53185e-19)
(4.72754 0.00391468 0)
(4.72206 0.00360269 1.52207e-19)
(4.71688 0.00332529 0)
(4.71198 0.00308295 0)
(4.70734 0.00287622 -1.50733e-19)
(4.70293 0.00270593 3.0048e-19)
(4.69874 0.0025734 -1.4975e-19)
(4.69473 0.00248066 0)
(4.69087 0.00243069 0)
(4.68712 0.00242784 1.48285e-19)
(4.68345 0.0024782 0)
(4.67979 0.00259027 1.47333e-19)
(4.67611 0.00277572 0)
(4.67233 0.00305055 0)
(4.66838 0.00343669 0)
(4.66416 0.00396434 1.45581e-19)
(4.65956 0.00467556 0)
(4.65442 0.00562973 -1.44827e-19)
(4.64854 0.00691232 0)
(4.64167 0.0086489 0)
(4.63344 0.011031 2.87965e-19)
(4.62335 0.0143536 -2.87697e-19)
(4.61078 0.0191218 0)
(4.59438 0.0260903 0)
(4.57384 0.0370943 0)
(4.54249 0.0535268 8.69008e-19)
(4.51123 0.0870669 0)
(4.43055 0.12754 -5.84701e-19)
(0.0938208 -0.987028 -1.1559e-22)
(0.191961 -0.992283 1.00783e-19)
(0.26812 -0.861099 0)
(0.322476 -0.727575 -8.66577e-20)
(0.359155 -0.601606 0)
(0.380609 -0.483109 0)
(0.387013 -0.371051 1.9029e-22)
(0.377252 -0.264013 4.41493e-20)
(0.349534 -0.160186 4.53144e-20)
(0.301535 -0.0575314 4.72947e-20)
(0.23053 0.0461351 0)
(0.133763 0.153041 0)
(0.00895479 0.264419 -4.97795e-20)
(-0.147268 0.379599 -9.66654e-20)
(-0.33905 0.497571 9.27974e-20)
(-0.571575 0.619206 0)
(-0.849898 0.747852 8.38e-20)
(-1.17735 0.887696 -3.96672e-20)
(-1.55356 1.04105 0)
(-1.97309 1.206 7.10779e-20)
(-2.42551 1.37575 3.32542e-20)
(-2.89674 1.54019 -6.53259e-20)
(-3.37094 1.68827 -3.03967e-20)
(-3.83246 1.8101 0)
(-4.26756 1.89833 6.22753e-20)
(-4.66584 1.9484 6.26444e-20)
(-5.0209 1.95886 0)
(-5.33043 1.93145 6.49995e-20)
(-5.59562 1.87045 0)
(-5.82032 1.7819 6.88797e-20)
(-6.01011 1.67266 3.2149e-20)
(-6.17135 1.54963 0)
(-6.31029 1.41914 0)
(-6.43253 1.28648 0)
(-6.5426 1.15579 0)
(-6.64387 1.03001 0)
(-6.73855 0.91102 0)
(-6.82785 0.799832 8.64884e-20)
(-6.91224 0.696786 -1.30583e-19)
(-6.99159 0.601763 0)
(-7.06545 0.514355 0)
(-7.13315 0.434007 0)
(-7.19395 0.360108 -2.0956e-21)
(-7.2471 0.292048 9.14313e-20)
(-7.29194 0.229246 1.85756e-19)
(-7.32783 0.171155 -1.86257e-19)
(-7.35422 0.117235 -9.39629e-20)
(-7.37046 0.0668994 9.21345e-20)
(-7.37594 0.0195449 1.5636e-21)
(-7.3705 -0.025346 9.21603e-20)
(-7.3541 -0.0681531 0)
(-7.32689 -0.108844 8.94304e-20)
(-7.28927 -0.147265 1.46774e-21)
(-7.2415 -0.183483 0)
(-7.18387 -0.217679 0)
(-7.11663 -0.250086 -8.15007e-20)
(-7.04003 -0.28098 0)
(-6.95429 -0.31067 0)
(-6.85953 -0.339502 7.48161e-20)
(-6.7558 -0.36786 1.40479e-19)
(-6.64303 -0.396156 -6.53676e-20)
(-6.52104 -0.424828 0)
(-6.38947 -0.454324 5.78506e-20)
(-6.24785 -0.485081 0)
(-6.09549 -0.517504 5.30071e-20)
(-5.93159 -0.551925 4.46486e-20)
(-5.75517 -0.588569 -8.35576e-20)
(-5.56517 -0.627504 -3.88713e-20)
(-5.36044 -0.668596 0)
(-5.13988 -0.711458 5.11232e-20)
(-4.9025 -0.755426 0)
(-4.64757 -0.799535 3.71653e-20)
(-4.37476 -0.842537 1.33628e-20)
(-4.08422 -0.882958 -3.04713e-22)
(-3.77677 -0.919184 1.44122e-20)
(-3.45389 -0.949598 -4.59483e-20)
(-3.11778 -0.972728 0)
(-2.77126 -0.987402 0)
(-2.41764 -0.99288 7.32517e-20)
(-2.06047 -0.988926 1.34369e-19)
(-1.7034 -0.975825 0)
(-1.34986 -0.954326 -6.06631e-20)
(-1.00293 -0.925543 0)
(-0.665196 -0.890842 2.19029e-19)
(-0.338591 -0.851722 4.13563e-21)
(-0.0244688 -0.809595 -3.9752e-21)
(0.275711 -0.765779 -1.70823e-19)
(0.561224 -0.721414 0)
(0.831798 -0.677422 1.74415e-19)
(1.0876 -0.634521 2.97031e-21)
(1.32898 -0.593233 0)
(1.55645 -0.553901 0)
(1.7706 -0.516723 0)
(1.97212 -0.481785 -1.76785e-19)
(2.16171 -0.449092 0)
(2.34005 -0.418592 0)
(2.50783 -0.390193 0)
(2.66572 -0.363782 0)
(2.81433 -0.339235 0)
(2.95426 -0.316423 -1.68009e-19)
(3.08606 -0.295218 0)
(3.21026 -0.275499 -1.66688e-19)
(3.32733 -0.257147 -1.65382e-19)
(3.43773 -0.240054 1.64119e-19)
(3.54189 -0.224115 0)
(3.6402 -0.209233 1.61759e-19)
(3.73303 -0.195318 0)
(3.82072 -0.182281 1.59659e-19)
(3.9036 -0.170042 -1.58716e-19)
(3.98196 -0.158523 -4.72284e-19)
(4.05607 -0.147651 0)
(4.1262 -0.137355 -4.67937e-19)
(4.19257 -0.12757 -1.54707e-19)
(4.25541 -0.118235 0)
(4.3149 -0.109293 -3.08422e-19)
(4.37122 -0.100691 -3.07638e-19)
(4.42452 -0.0923825 4.6083e-19)
(4.47495 -0.0843261 0)
(4.52263 -0.0764809 1.53317e-19)
(4.56766 -0.0687988 1.53136e-19)
(4.61014 -0.06126 4.5849e-19)
(4.65022 -0.0539712 0)
(4.68818 -0.0470478 0)
(4.72433 -0.0403439 0)
(4.75876 -0.0339148 1.52439e-19)
(4.79129 -0.027845 0)
(4.82179 -0.0222013 0)
(4.85016 -0.0170227 -1.5271e-19)
(4.87627 -0.0123659 -1.52637e-19)
(4.90005 -0.00823562 0)
(4.92145 -0.00461447 0)
(4.94048 -0.00147497 -3.04446e-19)
(4.95719 0.00121271 0)
(4.97167 0.0034803 3.03649e-19)
(4.98402 0.00536083 3.03088e-19)
(4.99435 0.0068869 0)
(5.00282 0.00809053 0)
(5.00955 0.00900321 -3.01599e-19)
(5.01472 0.00965586 -6.26845e-23)
(5.01847 0.0100788 -5.317e-23)
(5.02096 0.0103014 0)
(5.02235 0.0103521 -5.98345e-19)
(5.0228 0.010258 0)
(5.02244 0.0100446 0)
(5.02142 0.00973569 0)
(5.01985 0.00935293 2.96276e-19)
(5.01784 0.00891601 0)
(5.01551 0.00844243 -5.89351e-19)
(5.01293 0.00794759 -2.93864e-19)
(5.01018 0.0074448 0)
(5.00733 0.00694546 -2.92174e-19)
(5.00442 0.00645916 0)
(5.00149 0.00599392 0)
(4.99859 0.00555637 -8.68642e-19)
(4.99572 0.00515202 5.77309e-19)
(4.9929 0.0047855 0)
(4.99014 0.00446084 5.73707e-19)
(4.98745 0.00418179 -2.85951e-19)
(4.9848 0.00395216 0)
(4.98219 0.0037762 0)
(4.97961 0.00365903 0)
(4.97702 0.00360719 -8.47023e-19)
(4.9744 0.00362928 0)
(4.97171 0.00373679 -2.80586e-19)
(4.9689 0.00394518 0)
(4.96591 0.00427538 0)
(4.96267 0.00475586 0)
(4.95908 0.00542562 0)
(4.95503 0.0063386 0)
(4.95035 0.00757035 0)
(4.94485 0.00922871 -5.50486e-19)
(4.93825 0.0114702 0)
(4.9302 0.0145308 -2.74434e-19)
(4.9202 0.0187659 8.22308e-19)
(4.90763 0.0247769 0)
(4.89145 0.0334392 0)
(4.87108 0.0467607 -5.49061e-19)
(4.84345 0.0667072 -5.52124e-19)
(4.81373 0.103142 5.51835e-19)
(4.77085 0.156173 5.56652e-19)
(0.0386859 -1.18318 -1.76615e-19)
(0.0528623 -1.08048 -1.44869e-19)
(0.0516599 -0.909578 -8.67037e-20)
(0.0366513 -0.748087 -3.98344e-20)
(0.0102899 -0.595818 0)
(-0.0279412 -0.44958 7.9683e-20)
(-0.0800875 -0.306336 -3.90246e-20)
(-0.149239 -0.163306 0)
(-0.239064 -0.017829 -4.23343e-20)
(-0.352864 0.132727 0)
(-0.494132 0.290428 8.00338e-20)
(-0.665981 0.456747 0)
(-0.870824 0.63256 3.88297e-20)
(-1.11059 0.817865 7.45745e-20)
(-1.38669 1.01215 -7.12269e-20)
(-1.69931 1.21447 0)
(-2.04616 1.42286 -6.44645e-20)
(-2.42139 1.63321 0)
(-2.81521 1.83863 0)
(-3.21468 2.02979 -5.65313e-20)
(-3.60544 2.19636 0)
(-3.97398 2.32891 -3.8043e-21)
(-4.30949 2.42063 0)
(-4.60502 2.46819 0)
(-4.85778 2.47183 5.63225e-21)
(-5.06895 2.43479 -5.53355e-20)
(-5.24287 2.36255 -6.29562e-20)
(-5.38606 2.26202 -5.85815e-20)
(-5.50604 2.14062 0)
(-5.61018 2.00551 -1.31156e-19)
(-5.70498 1.86301 0)
(-5.79547 1.71824 -7.2244e-20)
(-5.8851 1.57503 0)
(-5.97576 1.43599 0)
(-6.06809 1.3027 7.74651e-20)
(-6.16172 1.17593 0)
(-6.25566 1.05588 -8.06059e-20)
(-6.3485 0.942425 3.38947e-21)
(-6.43867 0.835194 1.63622e-19)
(-6.52462 0.733744 -1.69244e-19)
(-6.60487 0.637613 0)
(-6.67812 0.546367 0)
(-6.74327 0.45963 -8.99936e-20)
(-6.79942 0.377091 0)
(-6.84588 0.298509 -8.63684e-20)
(-6.88214 0.223709 8.67636e-20)
(-6.90787 0.152572 8.69623e-20)
(-6.92291 0.0850136 0)
(-6.92721 0.0208819 -8.66338e-20)
(-6.92094 -0.0400338 -8.57669e-20)
(-6.90439 -0.0977994 1.73062e-19)
(-6.87786 -0.152536 -8.34736e-20)
(-6.84167 -0.204325 -8.20484e-20)
(-6.79614 -0.253304 0)
(-6.74159 -0.299675 0)
(-6.67831 -0.343705 7.66361e-20)
(-6.60659 -0.385728 0)
(-6.52664 -0.426139 0)
(-6.43863 -0.465395 -1.38882e-19)
(-6.34263 -0.504017 -1.33239e-19)
(-6.23859 -0.542576 0)
(-6.12632 -0.581691 0)
(-6.00548 -0.622004 0)
(-5.87556 -0.664157 0)
(-5.73582 -0.708756 -9.7908e-20)
(-5.58535 -0.756324 9.33877e-20)
(-5.42304 -0.807239 8.00748e-20)
(-5.24759 -0.861667 1.45161e-19)
(-5.0576 -0.919485 0)
(-4.85163 -0.980208 4.99127e-21)
(-4.6283 -1.04293 0)
(-4.38649 -1.10627 -2.53246e-20)
(-4.12545 -1.16843 5.21081e-21)
(-3.84507 -1.22722 2.89717e-22)
(-3.54594 -1.28021 -1.36659e-20)
(-3.22954 -1.32493 4.72463e-21)
(-2.89822 -1.35914 0)
(-2.55514 -1.38106 -5.07149e-20)
(-2.20405 -1.38954 -6.85174e-20)
(-1.84905 -1.38427 -1.60469e-19)
(-1.49425 -1.36571 0)
(-1.1435 -1.33505 1.0491e-19)
(-0.800167 -1.29402 0)
(-0.466977 -1.24472 -2.6165e-19)
(-0.145925 -1.18931 1.42043e-19)
(0.161467 -1.12976 -1.47586e-19)