#           v             n
     0.523599             0
     0.648652             0
     0.790112             0
     0.953116             0
      1.13449             0
      1.34047             0
      1.56672             0
      1.82069             0
      2.09677   5.12548e-08
      2.40376   1.01583e-06
      2.73462   1.04055e-05
      3.09966    5.8629e-05
      3.49026   0.000241154
      3.91837   0.000694804
      4.37366     0.0016225
      4.86986    0.00292714
       5.3948    0.00447195
      5.96412    0.00550371
      6.56366     0.0058281
      7.21112    0.00507727
      7.89023    0.00384414
      8.62085    0.00243504
      9.38447    0.00135526
      10.2033   0.000641077
      11.0564   0.000269499
      11.9684   9.76648e-05
      12.9159   3.17939e-05
      13.9262   9.03311e-06
      14.9731   6.39786e-06
