/*--------------------------------*- C++ -*----------------------------------*\
  =========                 |
  \\      /  F ield         | OpenFOAM: The Open Source CFD Toolbox
   \\    /   O peration     | Website:  https://openfoam.org
    \\  /    A nd           | Version:  12
     \\/     M anipulation  |
\*---------------------------------------------------------------------------*/
FoamFile
{
    format      ascii;
    class       volScalarField;
    location    "9.48";
    object      p;
}
// * * * * * * * * * * * * * * * * * * * * * * * * * * * * * * * * * * * * * //

dimensions      [1 -1 -2 0 0 0 0];

internalField   nonuniform List<scalar> 
3829
(
-611.245
-611.246
-611.248
-611.251
-611.255
-611.261
-611.267
-611.276
-611.285
-611.296
-611.309
-611.324
-611.34
-611.359
-611.379
-611.402
-611.427
-611.455
-611.485
-611.518
-611.553
-611.591
-611.632
-611.676
-611.722
-611.771
-611.823
-611.877
-611.934
-611.994
-612.055
-612.119
-612.184
-612.251
-612.319
-612.388
-612.457
-612.527
-612.598
-612.668
-612.737
-612.805
-612.872
-612.938
-613.001
-613.062
-613.119
-613.174
-613.226
-613.274
-613.318
-613.359
-613.396
-613.43
-613.46
-613.486
-613.508
-613.526
-613.541
-613.553
-613.562
-613.568
-613.571
-613.573
-613.572
-613.571
-613.568
-613.565
-613.563
-613.56
-613.56
-613.56
-613.563
-613.568
-613.577
-613.589
-613.604
-613.623
-613.646
-613.674
-613.707
-613.743
-613.784
-613.828
-613.875
-613.925
-613.978
-614.032
-614.087
-614.141
-614.196
-614.248
-614.298
-614.344
-614.386
-614.423
-614.454
-614.479
-614.496
-614.507
-614.509
-614.504
-614.491
-614.472
-614.446
-614.415
-614.379
-614.34
-614.299
-614.257
-614.216
-614.177
-614.142
-614.112
-614.088
-614.071
-614.063
-614.062
-614.071
-614.089
-614.114
-614.146
-614.185
-614.227
-614.272
-614.318
-614.362
-614.404
-614.44
-614.47
-614.492
-614.504
-614.508
-614.502
-614.488
-614.465
-614.437
-614.403
-614.368
-614.332
-614.298
-614.268
-614.244
-614.227
-614.218
-614.218
-614.225
-614.239
-614.258
-614.279
-614.302
-614.324
-614.342
-614.356
-614.363
-614.364
-614.359
-614.347
-614.332
-614.314
-614.296
-614.279
-614.266
-614.257
-614.254
-614.257
-614.265
-614.278
-614.293
-614.309
-614.325
-614.338
-614.348
-614.353
-614.354
-614.351
-614.345
-614.336
-614.328
-614.321
-614.318
-614.317
-614.321
-614.328
-614.339
-614.352
-614.366
-614.379
-614.389
-614.396
-614.398
-614.395
-614.386
-614.373
-614.357
-614.339
-614.321
-614.305
-614.293
-614.287
-1769.51
-1769.51
-1769.51
-1769.51
-1769.51
-1769.52
-1769.52
-1769.53
-1769.54
-1769.55
-1769.56
-1769.57
-1769.58
-1769.6
-1769.62
-1769.64
-1769.66
-1769.69
-1769.72
-1769.75
-1769.79
-1769.83
-1769.88
-1769.93
-1769.98
-1770.03
-1770.09
-1770.16
-1770.22
-1770.29
-1770.37
-1770.44
-1770.52
-1770.6
-1770.68
-1770.76
-1770.84
-1770.92
-1771
-1771.08
-1771.16
-1771.24
-1771.32
-1771.39
-1771.46
-1771.53
-1771.59
-1771.65
-1771.7
-1771.75
-1771.8
-1771.84
-1771.88
-1771.91
-1771.93
-1771.96
-1771.97
-1771.99
-1771.99
-1772
-1772
-1771.99
-1771.99
-1771.98
-1771.97
-1771.96
-1771.95
-1771.93
-1771.92
-1771.91
-1771.9
-1771.9
-1771.89
-1771.89
-1771.9
-1771.91
-1771.92
-1771.94
-1771.96
-1771.99
-1772.03
-1772.07
-1772.11
-1772.16
-1772.22
-1772.27
-1772.33
-1772.4
-1772.46
-1772.53
-1772.59
-1772.65
-1772.71
-1772.76
-1772.81
-1772.85
-1772.89
-1772.92
-1772.93
-1772.94
-1772.94
-1772.94
-1772.92
-1772.89
-1772.86
-1772.82
-1772.77
-1772.72
-1772.67
-1772.62
-1772.57
-1772.52
-1772.48
-1772.44
-1772.41
-1772.39
-1772.38
-1772.38
-1772.39
-1772.42
-1772.45
-1772.49
-1772.53
-1772.58
-1772.64
-1772.7
-1772.75
-1772.8
-1772.84
-1772.88
-1772.9
-1772.91
-1772.92
-1772.91
-1772.89
-1772.86
-1772.82
-1772.78
-1772.74
-1772.69
-1772.65
-1772.62
-1772.59
-1772.57
-1772.56
-1772.56
-1772.58
-1772.59
-1772.62
-1772.65
-1772.68
-1772.7
-1772.72
-1772.74
-1772.75
-1772.75
-1772.74
-1772.73
-1772.71
-1772.69
-1772.66
-1772.64
-1772.63
-1772.62
-1772.61
-1772.62
-1772.63
-1772.64
-1772.66
-1772.68
-1772.7
-1772.71
-1772.72
-1772.73
-1772.73
-1772.72
-1772.72
-1772.71
-1772.7
-1772.69
-1772.68
-1772.68
-1772.69
-1772.69
-1772.71
-1772.72
-1772.74
-1772.75
-1772.76
-1772.77
-1772.77
-1772.77
-1772.76
-1772.75
-1772.73
-1772.71
-1772.69
-1772.67
-1772.66
-1772.65
-2795.55
-2795.54
-2795.54
-2795.54
-2795.54
-2795.54
-2795.54
-2795.54
-2795.54
-2795.54
-2795.54
-2795.54
-2795.55
-2795.56
-2795.57
-2795.58
-2795.6
-2795.63
-2795.66
-2795.69
-2795.73
-2795.77
-2795.82
-2795.88
-2795.94
-2796.01
-2796.08
-2796.16
-2796.25
-2796.34
-2796.43
-2796.52
-2796.62
-2796.73
-2796.83
-2796.93
-2797.04
-2797.14
-2797.25
-2797.35
-2797.45
-2797.54
-2797.64
-2797.73
-2797.81
-2797.89
-2797.96
-2798.02
-2798.08
-2798.13
-2798.18
-2798.22
-2798.25
-2798.27
-2798.29
-2798.3
-2798.31
-2798.31
-2798.3
-2798.29
-2798.28
-2798.26
-2798.23
-2798.21
-2798.18
-2798.15
-2798.12
-2798.09
-2798.06
-2798.03
-2798.01
-2797.99
-2797.97
-2797.96
-2797.96
-2797.96
-2797.97
-2797.99
-2798.01
-2798.05
-2798.09
-2798.13
-2798.19
-2798.25
-2798.32
-2798.39
-2798.47
-2798.55
-2798.63
-2798.71
-2798.79
-2798.87
-2798.95
-2799.01
-2799.07
-2799.13
-2799.17
-2799.2
-2799.22
-2799.23
-2799.23
-2799.21
-2799.18
-2799.14
-2799.1
-2799.04
-2798.98
-2798.91
-2798.84
-2798.76
-2798.69
-2798.63
-2798.57
-2798.52
-2798.48
-2798.46
-2798.45
-2798.45
-2798.46
-2798.49
-2798.54
-2798.59
-2798.65
-2798.72
-2798.8
-2798.87
-2798.94
-2799.01
-2799.06
-2799.1
-2799.13
-2799.15
-2799.15
-2799.13
-2799.1
-2799.06
-2799.01
-2798.96
-2798.9
-2798.84
-2798.79
-2798.74
-2798.71
-2798.68
-2798.68
-2798.68
-2798.7
-2798.73
-2798.76
-2798.8
-2798.84
-2798.88
-2798.91
-2798.93
-2798.94
-2798.94
-2798.93
-2798.91
-2798.88
-2798.85
-2798.81
-2798.79
-2798.77
-2798.75
-2798.75
-2798.76
-2798.77
-2798.79
-2798.82
-2798.84
-2798.87
-2798.89
-2798.9
-2798.9
-2798.9
-2798.89
-2798.88
-2798.87
-2798.85
-2798.84
-2798.83
-2798.83
-2798.84
-2798.85
-2798.86
-2798.88
-2798.9
-2798.92
-2798.93
-2798.94
-2798.94
-2798.94
-2798.93
-2798.91
-2798.89
-2798.87
-2798.84
-2798.82
-2798.81
-2798.8
-3704.43
-3704.43
-3704.43
-3704.42
-3704.4
-3704.39
-3704.37
-3704.36
-3704.34
-3704.32
-3704.3
-3704.28
-3704.27
-3704.25
-3704.25
-3704.25
-3704.25
-3704.26
-3704.29
-3704.32
-3704.36
-3704.41
-3704.47
-3704.54
-3704.62
-3704.71
-3704.81
-3704.92
-3705.04
-3705.17
-3705.3
-3705.43
-3705.57
-3705.71
-3705.85
-3705.99
-3706.14
-3706.27
-3706.41
-3706.54
-3706.67
-3706.79
-3706.91
-3707.01
-3707.12
-3707.21
-3707.29
-3707.37
-3707.43
-3707.49
-3707.53
-3707.57
-3707.59
-3707.61
-3707.62
-3707.61
-3707.6
-3707.58
-3707.55
-3707.52
-3707.48
-3707.43
-3707.38
-3707.32
-3707.27
-3707.21
-3707.15
-3707.1
-3707.05
-3707
-3706.95
-3706.91
-3706.88
-3706.86
-3706.84
-3706.84
-3706.84
-3706.86
-3706.89
-3706.93
-3706.97
-3707.04
-3707.11
-3707.19
-3707.27
-3707.37
-3707.47
-3707.58
-3707.68
-3707.79
-3707.9
-3708
-3708.1
-3708.18
-3708.26
-3708.33
-3708.38
-3708.42
-3708.44
-3708.45
-3708.44
-3708.41
-3708.37
-3708.31
-3708.24
-3708.16
-3708.07
-3707.97
-3707.87
-3707.78
-3707.68
-3707.59
-3707.51
-3707.44
-3707.39
-3707.36
-3707.35
-3707.35
-3707.37
-3707.42
-3707.48
-3707.55
-3707.64
-3707.74
-3707.84
-3707.93
-3708.03
-3708.11
-3708.19
-3708.24
-3708.28
-3708.3
-3708.29
-3708.27
-3708.22
-3708.16
-3708.09
-3708.01
-3707.93
-3707.85
-3707.78
-3707.72
-3707.68
-3707.65
-3707.65
-3707.66
-3707.69
-3707.73
-3707.78
-3707.84
-3707.89
-3707.94
-3707.99
-3708.01
-3708.02
-3708.02
-3708
-3707.97
-3707.93
-3707.89
-3707.84
-3707.81
-3707.78
-3707.76
-3707.76
-3707.77
-3707.79
-3707.82
-3707.85
-3707.89
-3707.92
-3707.94
-3707.96
-3707.96
-3707.96
-3707.94
-3707.93
-3707.91
-3707.89
-3707.87
-3707.86
-3707.86
-3707.86
-3707.88
-3707.89
-3707.92
-3707.94
-3707.96
-3707.98
-3707.99
-3708
-3707.99
-3707.98
-3707.96
-3707.93
-3707.91
-3707.88
-3707.85
-3707.84
-3707.83
-4509.77
-4509.76
-4509.74
-4509.71
-4509.68
-4509.63
-4509.58
-4509.52
-4509.46
-4509.4
-4509.33
-4509.27
-4509.21
-4509.16
-4509.11
-4509.08
-4509.05
-4509.04
-4509.05
-4509.07
-4509.11
-4509.16
-4509.23
-4509.33
-4509.43
-4509.56
-4509.7
-4509.85
-4510.02
-4510.2
-4510.38
-4510.57
-4510.77
-4510.97
-4511.16
-4511.36
-4511.55
-4511.74
-4511.92
-4512.1
-4512.26
-4512.42
-4512.56
-4512.7
-4512.82
-4512.92
-4513.02
-4513.09
-4513.16
-4513.21
-4513.25
-4513.28
-4513.29
-4513.29
-4513.27
-4513.25
-4513.21
-4513.16
-4513.1
-4513.03
-4512.96
-4512.88
-4512.79
-4512.7
-4512.61
-4512.52
-4512.42
-4512.34
-4512.25
-4512.17
-4512.1
-4512.04
-4511.98
-4511.94
-4511.92
-4511.9
-4511.9
-4511.92
-4511.95
-4512
-4512.06
-4512.14
-4512.23
-4512.33
-4512.45
-4512.57
-4512.71
-4512.85
-4512.99
-4513.13
-4513.27
-4513.4
-4513.53
-4513.64
-4513.75
-4513.83
-4513.9
-4513.94
-4513.97
-4513.97
-4513.95
-4513.91
-4513.85
-4513.77
-4513.67
-4513.56
-4513.43
-4513.3
-4513.16
-4513.02
-4512.89
-4512.77
-4512.67
-4512.58
-4512.51
-4512.47
-4512.45
-4512.46
-4512.5
-4512.56
-4512.64
-4512.74
-4512.86
-4512.99
-4513.13
-4513.26
-4513.38
-4513.49
-4513.59
-4513.66
-4513.7
-4513.72
-4513.71
-4513.67
-4513.61
-4513.53
-4513.43
-4513.32
-4513.21
-4513.1
-4513.01
-4512.93
-4512.88
-4512.85
-4512.85
-4512.87
-4512.91
-4512.97
-4513.04
-4513.12
-4513.2
-4513.27
-4513.32
-4513.36
-4513.37
-4513.36
-4513.33
-4513.29
-4513.23
-4513.17
-4513.12
-4513.07
-4513.03
-4513.01
-4513.01
-4513.02
-4513.05
-4513.09
-4513.14
-4513.18
-4513.22
-4513.25
-4513.27
-4513.27
-4513.26
-4513.25
-4513.22
-4513.19
-4513.17
-4513.15
-4513.13
-4513.13
-4513.14
-4513.15
-4513.17
-4513.2
-4513.23
-4513.26
-4513.28
-4513.3
-4513.3
-4513.3
-4513.28
-4513.26
-4513.23
-4513.19
-4513.16
-4513.13
-4513.11
-4513.1
-5223.5
-5223.48
-5223.44
-5223.37
-5223.27
-5223.15
-5223.02
-5222.88
-5222.73
-5222.57
-5222.41
-5222.26
-5222.11
-5221.97
-5221.85
-5221.74
-5221.66
-5221.6
-5221.57
-5221.56
-5221.6
-5221.66
-5221.75
-5221.88
-5222.04
-5222.23
-5222.45
-5222.68
-5222.94
-5223.2
-5223.48
-5223.76
-5224.04
-5224.32
-5224.6
-5224.87
-5225.13
-5225.38
-5225.62
-5225.84
-5226.05
-5226.24
-5226.41
-5226.56
-5226.7
-5226.83
-5226.93
-5227.02
-5227.08
-5227.13
-5227.16
-5227.17
-5227.16
-5227.14
-5227.09
-5227.04
-5226.96
-5226.88
-5226.78
-5226.67
-5226.56
-5226.43
-5226.3
-5226.17
-5226.03
-5225.89
-5225.76
-5225.63
-5225.51
-5225.39
-5225.29
-5225.2
-5225.12
-5225.06
-5225.02
-5224.99
-5224.99
-5225.01
-5225.04
-5225.1
-5225.18
-5225.28
-5225.4
-5225.53
-5225.69
-5225.85
-5226.02
-5226.2
-5226.39
-5226.57
-5226.75
-5226.92
-5227.09
-5227.23
-5227.36
-5227.47
-5227.55
-5227.61
-5227.64
-5227.64
-5227.61
-5227.55
-5227.46
-5227.35
-5227.21
-5227.06
-5226.89
-5226.71
-5226.53
-5226.35
-5226.18
-5226.02
-5225.88
-5225.76
-5225.68
-5225.62
-5225.6
-5225.62
-5225.67
-5225.75
-5225.87
-5226.01
-5226.17
-5226.34
-5226.51
-5226.68
-5226.85
-5226.99
-5227.11
-5227.2
-5227.25
-5227.27
-5227.25
-5227.19
-5227.11
-5226.99
-5226.86
-5226.71
-5226.57
-5226.43
-5226.31
-5226.21
-5226.15
-5226.11
-5226.11
-5226.15
-5226.21
-5226.3
-5226.4
-5226.5
-5226.61
-5226.7
-5226.77
-5226.81
-5226.82
-5226.81
-5226.77
-5226.71
-5226.63
-5226.55
-5226.47
-5226.41
-5226.36
-5226.34
-5226.34
-5226.36
-5226.4
-5226.45
-5226.52
-5226.57
-5226.62
-5226.66
-5226.68
-5226.68
-5226.67
-5226.64
-5226.61
-5226.57
-5226.54
-5226.51
-5226.49
-5226.49
-5226.49
-5226.51
-5226.54
-5226.58
-5226.61
-5226.65
-5226.68
-5226.69
-5226.7
-5226.69
-5226.67
-5226.64
-5226.61
-5226.57
-5226.53
-5226.5
-5226.47
-5226.46
-5855.96
-5855.92
-5855.83
-5855.69
-5855.52
-5855.32
-5855.08
-5854.8
-5854.51
-5854.19
-5853.88
-5853.56
-5853.26
-5852.99
-5852.74
-5852.53
-5852.36
-5852.24
-5852.17
-5852.16
-5852.2
-5852.29
-5852.45
-5852.66
-5852.92
-5853.23
-5853.58
-5853.96
-5854.36
-5854.77
-5855.18
-5855.59
-5855.99
-5856.38
-5856.75
-5857.11
-5857.45
-5857.76
-5858.06
-5858.33
-5858.58
-5858.81
-5859.01
-5859.19
-5859.34
-5859.47
-5859.57
-5859.65
-5859.71
-5859.74
-5859.75
-5859.73
-5859.7
-5859.64
-5859.56
-5859.47
-5859.35
-5859.22
-5859.08
-5858.92
-5858.75
-5858.58
-5858.39
-5858.21
-5858.02
-5857.83
-5857.65
-5857.47
-5857.3
-5857.15
-5857.01
-5856.88
-5856.78
-5856.7
-5856.64
-5856.6
-5856.6
-5856.62
-5856.66
-5856.73
-5856.84
-5856.96
-5857.11
-5857.28
-5857.48
-5857.69
-5857.91
-5858.14
-5858.37
-5858.61
-5858.83
-5859.05
-5859.26
-5859.44
-5859.61
-5859.74
-5859.84
-5859.91
-5859.94
-5859.93
-5859.89
-5859.81
-5859.69
-5859.54
-5859.36
-5859.16
-5858.94
-5858.71
-5858.47
-5858.24
-5858.02
-5857.82
-5857.64
-5857.49
-5857.39
-5857.32
-5857.3
-5857.32
-5857.39
-5857.51
-5857.65
-5857.84
-5858.04
-5858.26
-5858.49
-5858.71
-5858.91
-5859.09
-5859.24
-5859.35
-5859.41
-5859.43
-5859.4
-5859.32
-5859.2
-5859.05
-5858.88
-5858.69
-5858.5
-5858.33
-5858.18
-5858.05
-5857.97
-5857.94
-5857.94
-5857.99
-5858.08
-5858.19
-5858.33
-5858.47
-5858.6
-5858.72
-5858.81
-5858.86
-5858.87
-5858.85
-5858.79
-5858.71
-5858.61
-5858.5
-5858.4
-5858.32
-5858.27
-5858.24
-5858.24
-5858.27
-5858.33
-5858.4
-5858.48
-5858.55
-5858.61
-5858.65
-5858.67
-5858.67
-5858.65
-5858.62
-5858.58
-5858.53
-5858.48
-5858.45
-5858.43
-5858.42
-5858.43
-5858.46
-5858.49
-5858.54
-5858.58
-5858.62
-5858.65
-5858.67
-5858.68
-5858.67
-5858.65
-5858.62
-5858.57
-5858.53
-5858.48
-5858.44
-5858.41
-5858.4
-6417.45
-6417.37
-6417.22
-6416.98
-6416.67
-6416.28
-6415.81
-6415.28
-6414.71
-6414.13
-6413.56
-6413.01
-6412.5
-6412.03
-6411.62
-6411.27
-6410.98
-6410.76
-6410.62
-6410.55
-6410.57
-6410.67
-6410.86
-6411.14
-6411.51
-6411.95
-6412.48
-6413.05
-6413.65
-6414.24
-6414.82
-6415.38
-6415.92
-6416.44
-6416.92
-6417.38
-6417.8
-6418.18
-6418.53
-6418.85
-6419.14
-6419.39
-6419.61
-6419.8
-6419.95
-6420.08
-6420.18
-6420.25
-6420.29
-6420.31
-6420.29
-6420.24
-6420.17
-6420.08
-6419.96
-6419.82
-6419.65
-6419.47
-6419.27
-6419.06
-6418.83
-6418.6
-6418.35
-6418.11
-6417.86
-6417.61
-6417.38
-6417.15
-6416.93
-6416.73
-6416.55
-6416.39
-6416.25
-6416.15
-6416.07
-6416.03
-6416.01
-6416.04
-6416.1
-6416.19
-6416.31
-6416.47
-6416.66
-6416.88
-6417.12
-6417.38
-6417.65
-6417.94
-6418.23
-6418.53
-6418.81
-6419.08
-6419.33
-6419.56
-6419.76
-6419.92
-6420.04
-6420.12
-6420.16
-6420.14
-6420.08
-6419.97
-6419.82
-6419.63
-6419.4
-6419.14
-6418.86
-6418.57
-6418.28
-6417.99
-6417.71
-6417.46
-6417.24
-6417.06
-6416.93
-6416.86
-6416.83
-6416.87
-6416.96
-6417.1
-6417.29
-6417.52
-6417.78
-6418.06
-6418.34
-6418.61
-6418.87
-6419.09
-6419.27
-6419.4
-6419.47
-6419.49
-6419.44
-6419.34
-6419.18
-6418.99
-6418.77
-6418.54
-6418.3
-6418.08
-6417.9
-6417.75
-6417.65
-6417.61
-6417.63
-6417.7
-6417.81
-6417.96
-6418.13
-6418.31
-6418.48
-6418.62
-6418.73
-6418.79
-6418.81
-6418.77
-6418.7
-6418.59
-6418.46
-6418.33
-6418.2
-6418.1
-6418.03
-6418
-6418.01
-6418.05
-6418.12
-6418.21
-6418.31
-6418.4
-6418.47
-6418.52
-6418.54
-6418.54
-6418.52
-6418.47
-6418.42
-6418.36
-6418.3
-6418.26
-6418.24
-6418.23
-6418.24
-6418.27
-6418.31
-6418.37
-6418.42
-6418.46
-6418.5
-6418.53
-6418.53
-6418.53
-6418.5
-6418.46
-6418.41
-6418.36
-6418.31
-6418.26
-6418.23
-6418.21
-6915.61
-6915.48
-6915.22
-6914.82
-6914.28
-6913.6
-6912.8
-6911.82
-6910.81
-6909.75
-6908.69
-6907.67
-6906.74
-6905.9
-6905.18
-6904.56
-6904.08
-6903.72
-6903.5
-6903.42
-6903.49
-6903.71
-6904.08
-6904.6
-6905.26
-6906.05
-6906.99
-6907.99
-6908.99
-6909.89
-6910.74
-6911.53
-6912.24
-6912.89
-6913.48
-6914.01
-6914.49
-6914.92
-6915.31
-6915.66
-6915.96
-6916.22
-6916.45
-6916.64
-6916.8
-6916.91
-6917
-6917.04
-6917.06
-6917.04
-6916.99
-6916.91
-6916.8
-6916.66
-6916.49
-6916.3
-6916.08
-6915.84
-6915.58
-6915.3
-6915.01
-6914.71
-6914.4
-6914.09
-6913.78
-6913.47
-6913.17
-6912.89
-6912.62
-6912.37
-6912.14
-6911.94
-6911.78
-6911.65
-6911.55
-6911.5
-6911.49
-6911.51
-6911.59
-6911.7
-6911.85
-6912.05
-6912.28
-6912.55
-6912.84
-6913.16
-6913.5
-6913.85
-6914.2
-6914.56
-6914.9
-6915.23
-6915.54
-6915.81
-6916.05
-6916.24
-6916.39
-6916.48
-6916.51
-6916.49
-6916.41
-6916.27
-6916.08
-6915.84
-6915.56
-6915.24
-6914.9
-6914.54
-6914.18
-6913.82
-6913.49
-6913.18
-6912.92
-6912.71
-6912.55
-6912.46
-6912.44
-6912.49
-6912.6
-6912.78
-6913.02
-6913.3
-6913.62
-6913.96
-6914.3
-6914.64
-6914.94
-6915.21
-6915.43
-6915.58
-6915.66
-6915.67
-6915.61
-6915.47
-6915.28
-6915.04
-6914.77
-6914.48
-6914.19
-6913.93
-6913.7
-6913.53
-6913.42
-6913.37
-6913.4
-6913.49
-6913.64
-6913.83
-6914.04
-6914.26
-6914.46
-6914.64
-6914.77
-6914.84
-6914.85
-6914.81
-6914.71
-6914.57
-6914.41
-6914.25
-6914.1
-6913.98
-6913.9
-6913.86
-6913.88
-6913.93
-6914.02
-6914.13
-6914.25
-6914.35
-6914.44
-6914.5
-6914.52
-6914.52
-6914.48
-6914.43
-6914.36
-6914.29
-6914.22
-6914.17
-6914.14
-6914.14
-6914.15
-6914.19
-6914.24
-6914.3
-6914.36
-6914.41
-6914.46
-6914.48
-6914.49
-6914.48
-6914.45
-6914.41
-6914.35
-6914.29
-6914.23
-6914.18
-6914.14
-6914.12
-7358.83
-7358.64
-7358.26
-7357.68
-7356.9
-7355.75
-7354.63
-7352.68
-7350.26
-7348.02
-7346.36
-7344.89
-7343.64
-7342.59
-7341.74
-7341.06
-7340.53
-7340.14
-7339.89
-7339.78
-7339.82
-7340.01
-7340.39
-7340.99
-7341.87
-7342.96
-7344.67
-7346.82
-7348.56
-7349.47
-7350.59
-7351.51
-7352.33
-7353.06
-7353.71
-7354.28
-7354.79
-7355.25
-7355.64
-7355.99
-7356.3
-7356.56
-7356.78
-7356.96
-7357.09
-7357.2
-7357.26
-7357.29
-7357.27
-7357.22
-7357.14
-7357.01
-7356.86
-7356.67
-7356.45
-7356.2
-7355.92
-7355.62
-7355.29
-7354.95
-7354.59
-7354.22
-7353.84
-7353.46
-7353.08
-7352.71
-7352.35
-7352
-7351.67
-7351.37
-7351.1
-7350.86
-7350.66
-7350.51
-7350.39
-7350.33
-7350.31
-7350.35
-7350.44
-7350.58
-7350.76
-7351
-7351.28
-7351.6
-7351.95
-7352.33
-7352.74
-7353.16
-7353.58
-7354
-7354.42
-7354.81
-7355.17
-7355.49
-7355.77
-7356
-7356.16
-7356.26
-7356.3
-7356.27
-7356.16
-7355.99
-7355.76
-7355.47
-7355.13
-7354.74
-7354.33
-7353.9
-7353.47
-7353.05
-7352.65
-7352.29
-7351.97
-7351.72
-7351.54
-7351.44
-7351.42
-7351.49
-7351.63
-7351.85
-7352.14
-7352.48
-7352.86
-7353.26
-7353.68
-7354.07
-7354.44
-7354.75
-7355
-7355.18
-7355.27
-7355.27
-7355.19
-7355.02
-7354.79
-7354.49
-7354.17
-7353.82
-7353.48
-7353.17
-7352.9
-7352.7
-7352.57
-7352.52
-7352.56
-7352.68
-7352.86
-7353.09
-7353.35
-7353.61
-7353.86
-7354.07
-7354.22
-7354.3
-7354.31
-7354.25
-7354.12
-7353.96
-7353.77
-7353.57
-7353.39
-7353.25
-7353.16
-7353.12
-7353.14
-7353.21
-7353.32
-7353.45
-7353.59
-7353.71
-7353.81
-7353.88
-7353.9
-7353.89
-7353.85
-7353.78
-7353.7
-7353.62
-7353.54
-7353.48
-7353.45
-7353.44
-7353.46
-7353.5
-7353.56
-7353.63
-7353.7
-7353.76
-7353.81
-7353.84
-7353.85
-7353.84
-7353.81
-7353.76
-7353.69
-7353.63
-7353.56
-7353.5
-7353.46
-7353.44
-7753.76
-7753.49
-7752.9
-7751.98
-7750.7
-7749.51
-7747.49
-7745.05
-7741.59
-7738.63
-7736.11
-7733.75
-7731.75
-7729.99
-7728.49
-7727.25
-7726.28
-7725.6
-7725.2
-7725.09
-7725.27
-7725.75
-7726.54
-7727.61
-7729.08
-7730.32
-7732.33
-7736.21
-7737.39
-7739.27
-7740.69
-7741.82
-7742.72
-7743.47
-7744.1
-7744.65
-7745.14
-7745.57
-7745.95
-7746.28
-7746.57
-7746.81
-7747.01
-7747.17
-7747.3
-7747.37
-7747.41
-7747.41
-7747.36
-7747.28
-7747.15
-7746.98
-7746.78
-7746.54
-7746.26
-7745.95
-7745.61
-7745.25
-7744.85
-7744.44
-7744.01
-7743.57
-7743.12
-7742.66
-7742.21
-7741.77
-7741.34
-7740.93
-7740.55
-7740.19
-7739.88
-7739.6
-7739.36
-7739.18
-7739.05
-7738.98
-7738.96
-7739.01
-7739.12
-7739.28
-7739.5
-7739.78
-7740.11
-7740.49
-7740.9
-7741.35
-7741.83
-7742.32
-7742.82
-7743.31
-7743.79
-7744.24
-7744.67
-7745.04
-7745.36
-7745.62
-7745.81
-7745.93
-7745.96
-7745.92
-7745.79
-7745.58
-7745.3
-7744.96
-7744.55
-7744.1
-7743.62
-7743.11
-7742.61
-7742.11
-7741.64
-7741.22
-7740.86
-7740.57
-7740.37
-7740.26
-7740.24
-7740.32
-7740.49
-7740.76
-7741.09
-7741.5
-7741.94
-7742.42
-7742.91
-7743.37
-7743.79
-7744.16
-7744.44
-7744.64
-7744.74
-7744.74
-7744.63
-7744.43
-7744.15
-7743.8
-7743.41
-7743.01
-7742.61
-7742.24
-7741.94
-7741.7
-7741.56
-7741.52
-7741.57
-7741.71
-7741.93
-7742.21
-7742.51
-7742.83
-7743.11
-7743.35
-7743.53
-7743.62
-7743.62
-7743.54
-7743.4
-7743.2
-7742.97
-7742.73
-7742.53
-7742.37
-7742.26
-7742.22
-7742.25
-7742.34
-7742.47
-7742.62
-7742.78
-7742.92
-7743.04
-7743.11
-7743.14
-7743.13
-7743.07
-7742.99
-7742.9
-7742.8
-7742.71
-7742.65
-7742.61
-7742.6
-7742.62
-7742.67
-7742.74
-7742.82
-7742.89
-7742.96
-7743.02
-7743.05
-7743.06
-7743.05
-7743.01
-7742.96
-7742.89
-7742.81
-7742.74
-7742.68
-7742.63
-7742.6
-8105.72
-8105.67
-8105.59
-8105.52
-8105.33
-8105.17
-8104.91
-8104.51
-8087.58
-8087.71
-8087.86
-8088.2
-8088.73
-8089.24
-8089.76
-8090.26
-8090.72
-8091.14
-8091.53
-8091.87
-8092.17
-8092.44
-8092.66
-8092.84
-8092.98
-8093.08
-8093.13
-8093.15
-8093.11
-8093.03
-8092.91
-8092.75
-8092.54
-8092.28
-8091.99
-8091.66
-8091.29
-8090.88
-8090.45
-8089.99
-8089.5
-8089
-8088.48
-8087.96
-8087.43
-8086.91
-8086.4
-8085.9
-8085.43
-8084.98
-8084.57
-8084.21
-8083.89
-8083.62
-8083.41
-8083.27
-8083.19
-8083.17
-8083.23
-8083.35
-8083.55
-8083.81
-8084.13
-8084.51
-8084.95
-8085.43
-8085.95
-8086.5
-8087.06
-8087.63
-8088.2
-8088.75
-8089.27
-8089.76
-8090.18
-8090.55
-8090.84
-8091.06
-8091.18
-8091.22
-8091.16
-8091.01
-8090.77
-8090.44
-8090.03
-8089.57
-8089.04
-8088.48
-8087.9
-8087.32
-8086.75
-8086.21
-8085.73
-8085.32
-8084.99
-8084.76
-8084.64
-8084.62
-8084.72
-8084.93
-8085.24
-8085.63
-8086.1
-8086.62
-8087.16
-8087.72
-8088.25
-8088.73
-8089.15
-8089.47
-8089.7
-8089.8
-8089.79
-8089.66
-8089.42
-8089.09
-8088.69
-8088.24
-8087.77
-8087.31
-8086.89
-8086.54
-8086.28
-8086.13
-8086.08
-8086.15
-8086.32
-8086.58
-8086.9
-8087.26
-8087.62
-8087.95
-8088.23
-8088.42
-8088.52
-8088.52
-8088.43
-8088.25
-8088.02
-8087.75
-8087.48
-8087.24
-8087.06
-8086.94
-8086.91
-8086.94
-8087.05
-8087.2
-8087.37
-8087.56
-8087.72
-8087.85
-8087.93
-8087.96
-8087.94
-8087.87
-8087.78
-8087.67
-8087.56
-8087.46
-8087.39
-8087.35
-8087.34
-8087.37
-8087.42
-8087.49
-8087.58
-8087.67
-8087.75
-8087.81
-8087.84
-8087.85
-8087.84
-8087.8
-8087.74
-8087.66
-8087.58
-8087.5
-8087.43
-8087.38
-8087.35
-8418.24
-8418.21
-8418.15
-8418.06
-8417.92
-8417.8
-8417.62
-8417.49
-8394.35
-8394.69
-8395.08
-8395.42
-8395.82
-8396.23
-8396.64
-8397.04
-8397.42
-8397.79
-8398.13
-8398.43
-8398.71
-8398.95
-8399.15
-8399.31
-8399.43
-8399.51
-8399.54
-8399.52
-8399.46
-8399.35
-8399.19
-8398.99
-8398.73
-8398.43
-8398.08
-8397.69
-8397.26
-8396.8
-8396.3
-8395.76
-8395.21
-8394.63
-8394.04
-8393.44
-8392.84
-8392.25
-8391.66
-8391.1
-8390.56
-8390.06
-8389.6
-8389.18
-8388.82
-8388.53
-8388.29
-8388.13
-8388.04
-8388.03
-8388.1
-8388.24
-8388.46
-8388.76
-8389.13
-8389.57
-8390.07
-8390.61
-8391.2
-8391.82
-8392.47
-8393.11
-8393.76
-8394.38
-8394.97
-8395.51
-8395.99
-8396.4
-8396.73
-8396.97
-8397.1
-8397.14
-8397.06
-8396.89
-8396.61
-8396.23
-8395.77
-8395.23
-8394.64
-8394
-8393.34
-8392.68
-8392.04
-8391.43
-8390.89
-8390.43
-8390.06
-8389.81
-8389.67
-8389.66
-8389.78
-8390.02
-8390.37
-8390.83
-8391.36
-8391.95
-8392.57
-8393.19
-8393.79
-8394.34
-8394.8
-8395.17
-8395.41
-8395.53
-8395.51
-8395.35
-8395.07
-8394.69
-8394.23
-8393.72
-8393.19
-8392.67
-8392.2
-8391.81
-8391.52
-8391.35
-8391.3
-8391.39
-8391.59
-8391.89
-8392.26
-8392.66
-8393.08
-8393.45
-8393.76
-8393.98
-8394.08
-8394.08
-8393.96
-8393.76
-8393.49
-8393.19
-8392.88
-8392.61
-8392.41
-8392.28
-8392.24
-8392.29
-8392.41
-8392.58
-8392.79
-8392.99
-8393.17
-8393.31
-8393.4
-8393.43
-8393.41
-8393.33
-8393.23
-8393.1
-8392.97
-8392.87
-8392.79
-8392.74
-8392.73
-8392.76
-8392.82
-8392.91
-8393
-8393.1
-8393.18
-8393.25
-8393.29
-8393.3
-8393.28
-8393.24
-8393.17
-8393.09
-8393
-8392.91
-8392.84
-8392.78
-8392.75
-8694.86
-8694.84
-8694.79
-8694.73
-8694.63
-8694.56
-8694.45
-8694.4
-8666.88
-8667.02
-8667.27
-8667.5
-8667.82
-8668.15
-8668.49
-8668.83
-8669.17
-8669.49
-8669.8
-8670.08
-8670.34
-8670.56
-8670.74
-8670.89
-8670.99
-8671.04
-8671.05
-8671.01
-8670.93
-8670.78
-8670.59
-8670.34
-8670.05
-8669.7
-8669.3
-8668.85
-8668.36
-8667.83
-8667.27
-8666.67
-8666.04
-8665.39
-8664.73
-8664.05
-8663.38
-8662.71
-8662.06
-8661.43
-8660.83
-8660.27
-8659.75
-8659.29
-8658.89
-8658.56
-8658.31
-8658.13
-8658.03
-8658.02
-8658.1
-8658.27
-8658.52
-8658.86
-8659.28
-8659.77
-8660.32
-8660.94
-8661.6
-8662.3
-8663.01
-8663.74
-8664.45
-8665.15
-8665.8
-8666.4
-8666.94
-8667.39
-8667.75
-8668.01
-8668.16
-8668.19
-8668.11
-8667.9
-8667.58
-8667.16
-8666.64
-8666.04
-8665.37
-8664.66
-8663.92
-8663.18
-8662.46
-8661.79
-8661.19
-8660.68
-8660.27
-8659.99
-8659.85
-8659.84
-8659.98
-8660.25
-8660.65
-8661.16
-8661.76
-8662.42
-8663.12
-8663.81
-8664.48
-8665.09
-8665.6
-8666
-8666.27
-8666.39
-8666.36
-8666.18
-8665.86
-8665.43
-8664.91
-8664.34
-8663.74
-8663.16
-8662.64
-8662.21
-8661.89
-8661.7
-8661.66
-8661.77
-8662
-8662.34
-8662.75
-8663.21
-8663.68
-8664.09
-8664.44
-8664.67
-8664.79
-8664.78
-8664.64
-8664.41
-8664.1
-8663.76
-8663.42
-8663.12
-8662.89
-8662.76
-8662.72
-8662.78
-8662.92
-8663.11
-8663.34
-8663.57
-8663.77
-8663.92
-8664.02
-8664.05
-8664.01
-8663.93
-8663.81
-8663.67
-8663.53
-8663.41
-8663.33
-8663.28
-8663.27
-8663.3
-8663.37
-8663.46
-8663.57
-8663.67
-8663.76
-8663.83
-8663.88
-8663.89
-8663.87
-8663.82
-8663.75
-8663.66
-8663.56
-8663.47
-8663.39
-8663.33
-8663.3
-8939.98
-8939.97
-8939.94
-8939.91
-8939.86
-8939.82
-8939.77
-8939.75
-8908.07
-8908.14
-8908.32
-8908.5
-8908.75
-8909.03
-8909.32
-8909.62
-8909.93
-8910.23
-8910.51
-8910.78
-8911.02
-8911.22
-8911.39
-8911.53
-8911.61
-8911.65
-8911.65
-8911.58
-8911.47
-8911.3
-8911.07
-8910.79
-8910.45
-8910.06
-8909.61
-8909.11
-8908.56
-8907.97
-8907.34
-8906.67
-8905.97
-8905.25
-8904.52
-8903.77
-8903.03
-8902.29
-8901.57
-8900.87
-8900.21
-8899.59
-8899.03
-8898.52
-8898.08
-8897.72
-8897.44
-8897.25
-8897.15
-8897.14
-8897.23
-8897.42
-8897.7
-8898.08
-8898.55
-8899.09
-8899.71
-8900.39
-8901.12
-8901.89
-8902.68
-8903.48
-8904.27
-8905.03
-8905.75
-8906.41
-8907
-8907.5
-8907.89
-8908.17
-8908.33
-8908.36
-8908.26
-8908.03
-8907.67
-8907.2
-8906.62
-8905.95
-8905.21
-8904.42
-8903.61
-8902.79
-8902
-8901.27
-8900.6
-8900.04
-8899.6
-8899.3
-8899.15
-8899.15
-8899.3
-8899.61
-8900.06
-8900.62
-8901.29
-8902.02
-8902.78
-8903.55
-8904.29
-8904.95
-8905.51
-8905.95
-8906.24
-8906.36
-8906.32
-8906.12
-8905.76
-8905.28
-8904.71
-8904.07
-8903.41
-8902.77
-8902.2
-8901.73
-8901.38
-8901.18
-8901.15
-8901.27
-8901.53
-8901.91
-8902.37
-8902.88
-8903.4
-8903.85
-8904.23
-8904.49
-8904.61
-8904.59
-8904.44
-8904.17
-8903.83
-8903.45
-8903.07
-8902.75
-8902.5
-8902.35
-8902.32
-8902.38
-8902.54
-8902.76
-8903.01
-8903.26
-8903.48
-8903.65
-8903.75
-8903.78
-8903.74
-8903.64
-8903.51
-8903.36
-8903.2
-8903.08
-8902.98
-8902.93
-8902.92
-8902.96
-8903.04
-8903.14
-8903.25
-8903.36
-8903.46
-8903.53
-8903.58
-8903.59
-8903.57
-8903.52
-8903.44
-8903.35
-8903.24
-8903.15
-8903.06
-8903
-8902.96
-9157.17
-9157.16
-9157.15
-9157.13
-9157.1
-9157.08
-9157.05
-9157.04
-9121.55
-9121.61
-9121.76
-9121.92
-9122.14
-9122.39
-9122.66
-9122.94
-9123.23
-9123.51
-9123.78
-9124.04
-9124.27
-9124.47
-9124.63
-9124.75
-9124.83
-9124.86
-9124.84
-9124.75
-9124.62
-9124.42
-9124.16
-9123.84
-9123.46
-9123.03
-9122.53
-9121.98
-9121.38
-9120.72
-9120.03
-9119.3
-9118.53
-9117.74
-9116.94
-9116.12
-9115.31
-9114.51
-9113.72
-9112.96
-9112.24
-9111.57
-9110.95
-9110.4
-9109.93
-9109.54
-9109.23
-9109.03
-9108.92
-9108.92
-9109.02
-9109.23
-9109.55
-9109.96
-9110.47
-9111.07
-9111.75
-9112.49
-9113.29
-9114.13
-9114.99
-9115.87
-9116.73
-9117.56
-9118.34
-9119.06
-9119.7
-9120.24
-9120.66
-9120.96
-9121.13
-9121.16
-9121.04
-9120.78
-9120.39
-9119.87
-9119.23
-9118.5
-9117.69
-9116.83
-9115.94
-9115.05
-9114.19
-9113.39
-9112.67
-9112.06
-9111.59
-9111.26
-9111.1
-9111.11
-9111.29
-9111.63
-9112.12
-9112.74
-9113.47
-9114.26
-9115.1
-9115.94
-9116.74
-9117.46
-9118.07
-9118.54
-9118.85
-9118.98
-9118.92
-9118.69
-9118.3
-9117.77
-9117.14
-9116.44
-9115.72
-9115.03
-9114.41
-9113.89
-9113.52
-9113.31
-9113.28
-9113.42
-9113.71
-9114.13
-9114.64
-9115.19
-9115.76
-9116.26
-9116.66
-9116.94
-9117.07
-9117.05
-9116.87
-9116.58
-9116.2
-9115.79
-9115.38
-9115.02
-9114.75
-9114.6
-9114.56
-9114.64
-9114.81
-9115.06
-9115.33
-9115.6
-9115.84
-9116.02
-9116.12
-9116.15
-9116.11
-9116
-9115.85
-9115.69
-9115.52
-9115.39
-9115.29
-9115.23
-9115.23
-9115.27
-9115.35
-9115.45
-9115.57
-9115.69
-9115.8
-9115.88
-9115.93
-9115.94
-9115.92
-9115.86
-9115.78
-9115.68
-9115.57
-9115.47
-9115.38
-9115.31
-9115.27
-9349.59
-9349.58
-9349.57
-9349.56
-9349.54
-9349.53
-9349.51
-9349.51
-9310.6
-9310.65
-9310.79
-9310.94
-9311.14
-9311.37
-9311.63
-9311.9
-9312.18
-9312.46
-9312.73
-9312.99
-9313.21
-9313.41
-9313.57
-9313.69
-9313.76
-9313.77
-9313.74
-9313.64
-9313.48
-9313.26
-9312.97
-9312.62
-9312.21
-9311.73
-9311.18
-9310.58
-9309.93
-9309.22
-9308.46
-9307.67
-9306.84
-9305.99
-9305.12
-9304.23
-9303.35
-9302.48
-9301.64
-9300.82
-9300.04
-9299.32
-9298.65
-9298.06
-9297.55
-9297.13
-9296.81
-9296.59
-9296.48
-9296.48
-9296.6
-9296.83
-9297.17
-9297.62
-9298.18
-9298.83
-9299.56
-9300.37
-9301.23
-9302.14
-9303.08
-9304.02
-9304.95
-9305.84
-9306.69
-9307.46
-9308.15
-9308.72
-9309.18
-9309.5
-9309.67
-9309.7
-9309.57
-9309.29
-9308.86
-9308.29
-9307.6
-9306.81
-9305.93
-9305
-9304.04
-9303.08
-9302.15
-9301.28
-9300.51
-9299.86
-9299.35
-9299
-9298.83
-9298.85
-9299.04
-9299.42
-9299.95
-9300.63
-9301.42
-9302.28
-9303.19
-9304.09
-9304.95
-9305.72
-9306.38
-9306.88
-9307.21
-9307.34
-9307.28
-9307.02
-9306.59
-9306.02
-9305.33
-9304.57
-9303.8
-9303.05
-9302.38
-9301.83
-9301.43
-9301.21
-9301.18
-9301.34
-9301.66
-9302.12
-9302.68
-9303.27
-9303.89
-9304.43
-9304.86
-9305.16
-9305.29
-9305.26
-9305.07
-9304.75
-9304.33
-9303.88
-9303.44
-9303.06
-9302.77
-9302.61
-9302.57
-9302.66
-9302.85
-9303.12
-9303.41
-9303.71
-9303.96
-9304.15
-9304.26
-9304.29
-9304.24
-9304.12
-9303.96
-9303.79
-9303.61
-9303.46
-9303.35
-9303.3
-9303.29
-9303.34
-9303.42
-9303.54
-9303.66
-9303.79
-9303.9
-9303.99
-9304.04
-9304.05
-9304.03
-9303.97
-9303.88
-9303.77
-9303.66
-9303.55
-9303.46
-9303.39
-9303.35
-9520.05
-9520.05
-9520.04
-9520.03
-9520.02
-9520.01
-9520
-9519.99
-9478.02
-9478.06
-9478.19