/*--------------------------------*- C++ -*----------------------------------*\
  =========                 |
  \\      /  F ield         | OpenFOAM: The Open Source CFD Toolbox
   \\    /   O peration     | Website:  https://openfoam.org
    \\  /    A nd           | Version:  12
     \\/     M anipulation  |
\*---------------------------------------------------------------------------*/
FoamFile
{
    format      ascii;
    class       volVectorField;
    location    "6.24";
    object      zeta;
}
// * * * * * * * * * * * * * * * * * * * * * * * * * * * * * * * * * * * * * //

dimensions      [0 1 0 0 0 0 0];

internalField   uniform (0 0 0);

boundaryField
{
    freeSurface
    {
        type            calculated;
        value           nonuniform List<vector> 
181
(
(0 -0.000126057 0)
(0 -0.000126691 0)
(0 -0.000126805 0)
(0 -0.000126945 0)
(0 -0.000127065 0)
(0 -0.000127225 0)
(0 -0.000127063 0)
(0 -0.000127504 0)
(0 -0.00073953 0)
(0 -0.000731067 0)
(0 -0.000724378 0)
(0 -0.00071104 0)
(0 -0.000694738 0)
(0 -0.000674175 0)
(0 -0.000649256 0)
(0 -0.000620004 0)
(0 -0.000586788 0)
(0 -0.000549548 0)
(0 -0.000508645 0)
(0 -0.000464288 0)
(0 -0.000416519 0)
(0 -0.000365718 0)
(0 -0.000312045 0)
(0 -0.000256001 0)
(0 -0.000197842 0)
(0 -0.000138044 0)
(0 -7.70753e-05 0)
(0 -1.53587e-05 0)
(0 4.66045e-05 0)
(0 0.00010829 0)
(0 0.000169134 0)
(0 0.000228606 0)
(0 0.000286154 0)
(0 0.000341216 0)
(0 0.00039316 0)
(0 0.000441501 0)
(0 0.000485647 0)
(0 0.000525094 0)
(0 0.000559373 0)
(0 0.000588028 0)
(0 0.000610629 0)
(0 0.000626841 0)
(0 0.000636385 0)
(0 0.00063904 0)
(0 0.000634602 0)
(0 0.000623075 0)
(0 0.000604449 0)
(0 0.00057878 0)
(0 0.000546334 0)
(0 0.00050737 0)
(0 0.000462311 0)
(0 0.000411678 0)
(0 0.000356095 0)
(0 0.000296256 0)
(0 0.000232946 0)
(0 0.000167051 0)
(0 9.95343e-05 0)
(0 3.14071e-05 0)
(0 -3.62564e-05 0)
(0 -0.000102404 0)
(0 -0.000165957 0)
(0 -0.000225843 0)
(0 -0.000280913 0)
(0 -0.000330249 0)
(0 -0.000372857 0)
(0 -0.000407952 0)
(0 -0.000434819 0)
(0 -0.000452876 0)
(0 -0.000461719 0)
(0 -0.000461135 0)
(0 -0.00045108 0)
(0 -0.000431765 0)
(0 -0.000403603 0)
(0 -0.000367189 0)
(0 -0.000323353 0)
(0 -0.000273136 0)
(0 -0.000217745 0)
(0 -0.000158557 0)
(0 -9.70723e-05 0)
(0 -3.48966e-05 0)
(0 2.62697e-05 0)
(0 8.47894e-05 0)
(0 0.000139001 0)
(0 0.000187363 0)
(0 0.000228445 0)
(0 0.000261064 0)
(0 0.000284231 0)
(0 0.000297245 0)
(0 0.000299757 0)
(0 0.000291722 0)
(0 0.000273533 0)
(0 0.000245914 0)
(0 0.000209963 0)
(0 0.000167047 0)
(0 0.000118887 0)
(0 6.73703e-05 0)
(0 1.45576e-05 0)
(0 -3.74333e-05 0)
(0 -8.64819e-05 0)
(0 -0.000130507 0)
(0 -0.000167661 0)
(0 -0.000196332 0)
(0 -0.000215263 0)
(0 -0.000223727 0)
(0 -0.000221454 0)
(0 -0.000208766 0)
(0 -0.000186576 0)
(0 -0.0001563 0)
(0 -0.000119828 0)
(0 -7.9367e-05 0)
(0 -3.73014e-05 0)
(0 3.9638e-06 0)
(0 4.21634e-05 0)
(0 7.53237e-05 0)
(0 0.000101849 0)
(0 0.000120656 0)
(0 0.000131219 0)
(0 0.000133491 0)
(0 0.000127976 0)
(0 0.000115602 0)
(0 9.76235e-05 0)
(0 7.55199e-05 0)
(0 5.08826e-05 0)
(0 2.52984e-05 0)
(0 2.60835e-07 0)
(0 -2.2919e-05 0)
(0 -4.31716e-05 0)
(0 -5.96953e-05 0)
(0 -7.19789e-05 0)
(0 -7.98003e-05 0)
(0 -8.32058e-05 0)
(0 -8.24671e-05 0)
(0 -7.80493e-05 0)
(0 -7.05572e-05 0)
(0 -6.06833e-05 0)
(0 -4.9155e-05 0)
(0 -3.67055e-05 0)
(0 -2.40304e-05 0)
(0 -1.1748e-05 0)
(0 -3.94424e-07 0)
(0 9.59228e-06 0)
(0 1.78871e-05 0)
(0 2.42806e-05 0)
(0 2.86654e-05 0)
(0 3.10399e-05 0)
(0 3.14844e-05 0)
(0 3.01555e-05 0)
(0 2.72661e-05 0)
(0 2.30713e-05 0)
(0 1.78557e-05 0)
(0 1.19154e-05 0)
(0 5.54973e-06 0)
(0 -9.5872e-07 0)
(0 -7.34859e-06 0)
(0 -1.33896e-05 0)
(0 -1.88849e-05 0)
(0 -2.36794e-05 0)
(0 -2.76606e-05 0)
(0 -3.0754e-05 0)
(0 -3.29277e-05 0)
(0 -3.41819e-05 0)
(0 -3.45492e-05 0)
(0 -3.40883e-05 0)
(0 -3.28787e-05 0)
(0 -3.10184e-05 0)
(0 -2.86177e-05 0)
(0 -2.5795e-05 0)
(0 -2.26685e-05 0)
(0 -1.93509e-05 0)
(0 -1.59494e-05 0)
(0 -1.25631e-05 0)
(0 -9.27731e-06 0)
(0 -6.16483e-06 0)
(0 -3.28573e-06 0)
(0 -6.88269e-07 0)
(0 1.58977e-06 0)
(0 3.52095e-06 0)
(0 5.08752e-06 0)
(0 6.27916e-06 0)
(0 7.08577e-06 0)
(0 7.49623e-06 0)
)
;
    }
    walls
    {
        type            calculated;
        value           uniform (0 0 0);
    }
    floatingObject
    {
        type            calculated;
        value           uniform (0 0 0);
    }
    frontAndBack
    {
        type            empty;
    }
}


// ************************************************************************* //
