# Selection : faceZone(f0)
# Faces  :    8
# Area   :    1.063860e-02
# Time        	areaAverage(zeta)
0             	(0.000000e+00 0.000000e+00 0.000000e+00)
0.00117647    	(0.000000e+00 -1.253997e-05 0.000000e+00)
0.00252101    	(0.000000e+00 -1.254023e-05 0.000000e+00)
0.00411001    	(0.000000e+00 -1.254043e-05 0.000000e+00)
0.00587556    	(0.000000e+00 -1.254104e-05 0.000000e+00)
0.00789334    	(0.000000e+00 -1.254233e-05 0.000000e+00)
0.0103147     	(0.000000e+00 -1.254500e-05 0.000000e+00)
0.012736      	(0.000000e+00 -1.254913e-05 0.000000e+00)
0.0151573     	(0.000000e+00 -1.255506e-05 0.000000e+00)
0.0175787     	(0.000000e+00 -1.256311e-05 0.000000e+00)
0.02          	(0.000000e+00 -1.257361e-05 0.000000e+00)
0.0228571     	(0.000000e+00 -1.258992e-05 0.000000e+00)
0.0262857     	(0.000000e+00 -1.261596e-05 0.000000e+00)
0.0297143     	(0.000000e+00 -1.264940e-05 0.000000e+00)
0.0331429     	(0.000000e+00 -1.269114e-05 0.000000e+00)
0.0365714     	(0.000000e+00 -1.274209e-05 0.000000e+00)
0.04          	(0.000000e+00 -1.280312e-05 0.000000e+00)
0.044         	(0.000000e+00 -1.288933e-05 0.000000e+00)
0.048         	(0.000000e+00 -1.299179e-05 0.000000e+00)
0.052         	(0.000000e+00 -1.311195e-05 0.000000e+00)
0.056         	(0.000000e+00 -1.325113e-05 0.000000e+00)
0.06          	(0.000000e+00 -1.341059e-05 0.000000e+00)
0.064         	(0.000000e+00 -1.359158e-05 0.000000e+00)
0.068         	(0.000000e+00 -1.379529e-05 0.000000e+00)
0.072         	(0.000000e+00 -1.402291e-05 0.000000e+00)
0.076         	(0.000000e+00 -1.427555e-05 0.000000e+00)
0.08          	(0.000000e+00 -1.455407e-05 0.000000e+00)
0.084         	(0.000000e+00 -1.485977e-05 0.000000e+00)
0.088         	(0.000000e+00 -1.519365e-05 0.000000e+00)
0.092         	(0.000000e+00 -1.555667e-05 0.000000e+00)
0.096         	(0.000000e+00 -1.594974e-05 0.000000e+00)
0.1           	(0.000000e+00 -1.637372e-05 0.000000e+00)
0.104         	(0.000000e+00 -1.682945e-05 0.000000e+00)
0.108         	(0.000000e+00 -1.731766e-05 0.000000e+00)
0.112         	(0.000000e+00 -1.783908e-05 0.000000e+00)
0.116         	(0.000000e+00 -1.839436e-05 0.000000e+00)
0.12          	(0.000000e+00 -1.898410e-05 0.000000e+00)
0.124         	(0.000000e+00 -1.960884e-05 0.000000e+00)
0.128         	(0.000000e+00 -2.026906e-05 0.000000e+00)
0.132         	(0.000000e+00 -2.096519e-05 0.000000e+00)
0.136         	(0.000000e+00 -2.169757e-05 0.000000e+00)
0.14          	(0.000000e+00 -2.246652e-05 0.000000e+00)
0.144         	(0.000000e+00 -2.327227e-05 0.000000e+00)
0.148         	(0.000000e+00 -2.411498e-05 0.000000e+00)
0.152         	(0.000000e+00 -2.499477e-05 0.000000e+00)
0.156         	(0.000000e+00 -2.591167e-05 0.000000e+00)
0.16          	(0.000000e+00 -2.686566e-05 0.000000e+00)
0.164         	(0.000000e+00 -2.785664e-05 0.000000e+00)
0.168         	(0.000000e+00 -2.888446e-05 0.000000e+00)
0.172         	(0.000000e+00 -2.994887e-05 0.000000e+00)
0.176         	(0.000000e+00 -3.104960e-05 0.000000e+00)
0.18          	(0.000000e+00 -3.218626e-05 0.000000e+00)
0.184         	(0.000000e+00 -3.335842e-05 0.000000e+00)
0.188         	(0.000000e+00 -3.456557e-05 0.000000e+00)
0.192         	(0.000000e+00 -3.580715e-05 0.000000e+00)
0.196         	(0.000000e+00 -3.708251e-05 0.000000e+00)
0.2           	(0.000000e+00 -3.839093e-05 0.000000e+00)
0.204         	(0.000000e+00 -3.973163e-05 0.000000e+00)
0.208         	(0.000000e+00 -4.110376e-05 0.000000e+00)
0.212         	(0.000000e+00 -4.250640e-05 0.000000e+00)
0.216         	(0.000000e+00 -4.393857e-05 0.000000e+00)
0.22          	(0.000000e+00 -4.539921e-05 0.000000e+00)
0.224         	(0.000000e+00 -4.688720e-05 0.000000e+00)
0.228         	(0.000000e+00 -4.840136e-05 0.000000e+00)
0.232         	(0.000000e+00 -4.994043e-05 0.000000e+00)
0.236         	(0.000000e+00 -5.150309e-05 0.000000e+00)
0.24          	(0.000000e+00 -5.308797e-05 0.000000e+00)
0.244         	(0.000000e+00 -5.469361e-05 0.000000e+00)
0.248         	(0.000000e+00 -5.631851e-05 0.000000e+00)
0.252         	(0.000000e+00 -5.796111e-05 0.000000e+00)
0.256         	(0.000000e+00 -5.961977e-05 0.000000e+00)
0.26          	(0.000000e+00 -6.129281e-05 0.000000e+00)
0.264         	(0.000000e+00 -6.297848e-05 0.000000e+00)
0.268         	(0.000000e+00 -6.467499e-05 0.000000e+00)
0.272         	(0.000000e+00 -6.638048e-05 0.000000e+00)
0.276         	(0.000000e+00 -6.809305e-05 0.000000e+00)
0.28          	(0.000000e+00 -6.981073e-05 0.000000e+00)
0.284         	(0.000000e+00 -7.153153e-05 0.000000e+00)
0.288         	(0.000000e+00 -7.325338e-05 0.000000e+00)
0.292         	(0.000000e+00 -7.497419e-05 0.000000e+00)
0.296         	(0.000000e+00 -7.669180e-05 0.000000e+00)
0.3           	(0.000000e+00 -7.840404e-05 0.000000e+00)
0.304         	(0.000000e+00 -8.010868e-05 0.000000e+00)
0.308         	(0.000000e+00 -8.180345e-05 0.000000e+00)
0.312         	(0.000000e+00 -8.348604e-05 0.000000e+00)
0.316         	(0.000000e+00 -8.515413e-05 0.000000e+00)
0.32          	(0.000000e+00 -8.680535e-05 0.000000e+00)
0.324         	(0.000000e+00 -8.843730e-05 0.000000e+00)
0.328         	(0.000000e+00 -9.004755e-05 0.000000e+00)
0.332         	(0.000000e+00 -9.163367e-05 0.000000e+00)
0.336         	(0.000000e+00 -9.319316e-05 0.000000e+00)
0.34          	(0.000000e+00 -9.472353e-05 0.000000e+00)
0.344         	(0.000000e+00 -9.622225e-05 0.000000e+00)
0.348         	(0.000000e+00 -9.768686e-05 0.000000e+00)
0.352         	(0.000000e+00 -9.911480e-05 0.000000e+00)
0.356         	(0.000000e+00 -1.005035e-04 0.000000e+00)
0.36          	(0.000000e+00 -1.018504e-04 0.000000e+00)
0.364         	(0.000000e+00 -1.031529e-04 0.000000e+00)
0.368         	(0.000000e+00 -1.044084e-04 0.000000e+00)
0.372         	(0.000000e+00 -1.056145e-04 0.000000e+00)
0.376         	(0.000000e+00 -1.067683e-04 0.000000e+00)
0.38          	(0.000000e+00 -1.078674e-04 0.000000e+00)
0.384         	(0.000000e+00 -1.089094e-04 0.000000e+00)
0.388         	(0.000000e+00 -1.098916e-04 0.000000e+00)
0.392         	(0.000000e+00 -1.108116e-04 0.000000e+00)
0.396         	(0.000000e+00 -1.116669e-04 0.000000e+00)
0.4           	(0.000000e+00 -1.124551e-04 0.000000e+00)
0.404         	(0.000000e+00 -1.131738e-04 0.000000e+00)
0.408         	(0.000000e+00 -1.138206e-04 0.000000e+00)
0.412         	(0.000000e+00 -1.143932e-04 0.000000e+00)
0.416         	(0.000000e+00 -1.148894e-04 0.000000e+00)
0.42          	(0.000000e+00 -1.153070e-04 0.000000e+00)
0.424         	(0.000000e+00 -1.156435e-04 0.000000e+00)
0.428         	(0.000000e+00 -1.158967e-04 0.000000e+00)
0.432         	(0.000000e+00 -1.160652e-04 0.000000e+00)
0.436         	(0.000000e+00 -1.161475e-04 0.000000e+00)
0.44          	(0.000000e+00 -1.161429e-04 0.000000e+00)
0.444         	(0.000000e+00 -1.160477e-04 0.000000e+00)
0.448         	(0.000000e+00 -1.158597e-04 0.000000e+00)
0.452         	(0.000000e+00 -1.155762e-04 0.000000e+00)
0.456         	(0.000000e+00 -1.151942e-04 0.000000e+00)
0.46          	(0.000000e+00 -1.147129e-04 0.000000e+00)
0.464         	(0.000000e+00 -1.141296e-04 0.000000e+00)
0.468         	(0.000000e+00 -1.134426e-04 0.000000e+00)
0.472         	(0.000000e+00 -1.126511e-04 0.000000e+00)
0.476         	(0.000000e+00 -1.117532e-04 0.000000e+00)
0.48          	(0.000000e+00 -1.107476e-04 0.000000e+00)
0.484         	(0.000000e+00 -1.096331e-04 0.000000e+00)
0.488         	(0.000000e+00 -1.084078e-04 0.000000e+00)
0.492         	(0.000000e+00 -1.070708e-04 0.000000e+00)
0.496         	(0.000000e+00 -1.056210e-04 0.000000e+00)
0.5           	(0.000000e+00 -1.040578e-04 0.000000e+00)
0.504         	(0.000000e+00 -1.023807e-04 0.000000e+00)
0.508         	(0.000000e+00 -1.005896e-04 0.000000e+00)
0.512         	(0.000000e+00 -9.868369e-05 0.000000e+00)
0.516         	(0.000000e+00 -9.666139e-05 0.000000e+00)
0.52          	(0.000000e+00 -9.452197e-05 0.000000e+00)
0.524         	(0.000000e+00 -9.226555e-05 0.000000e+00)
0.528         	(0.000000e+00 -8.989115e-05 0.000000e+00)
0.532         	(0.000000e+00 -8.739832e-05 0.000000e+00)
0.536         	(0.000000e+00 -8.478672e-05 0.000000e+00)
0.54          	(0.000000e+00 -8.205639e-05 0.000000e+00)
0.544         	(0.000000e+00 -7.920740e-05 0.000000e+00)
0.548         	(0.000000e+00 -7.623992e-05 0.000000e+00)
0.552         	(0.000000e+00 -7.315416e-05 0.000000e+00)
0.556         	(0.000000e+00 -6.995052e-05 0.000000e+00)
0.56          	(0.000000e+00 -6.662937e-05 0.000000e+00)
0.564         	(0.000000e+00 -6.319145e-05 0.000000e+00)
0.568         	(0.000000e+00 -5.963745e-05 0.000000e+00)
0.572         	(0.000000e+00 -5.596801e-05 0.000000e+00)
0.576         	(0.000000e+00 -5.218411e-05 0.000000e+00)
0.58          	(0.000000e+00 -4.828678e-05 0.000000e+00)
0.584         	(0.000000e+00 -4.427726e-05 0.000000e+00)
0.588         	(0.000000e+00 -4.015685e-05 0.000000e+00)
0.592         	(0.000000e+00 -3.592700e-05 0.000000e+00)
0.596         	(0.000000e+00 -3.158906e-05 0.000000e+00)
0.6           	(0.000000e+00 -2.714479e-05 0.000000e+00)
0.604         	(0.000000e+00 -2.259595e-05 0.000000e+00)
0.608         	(0.000000e+00 -1.794457e-05 0.000000e+00)
0.612         	(0.000000e+00 -1.319261e-05 0.000000e+00)
0.616         	(0.000000e+00 -8.342170e-06 0.000000e+00)
0.62          	(0.000000e+00 -3.395465e-06 0.000000e+00)
0.624         	(0.000000e+00 1.645172e-06 0.000000e+00)
0.628         	(0.000000e+00 6.777194e-06 0.000000e+00)
0.632         	(0.000000e+00 1.199799e-05 0.000000e+00)
0.636         	(0.000000e+00 1.730487e-05 0.000000e+00)
0.64          	(0.000000e+00 2.269508e-05 0.000000e+00)
0.644         	(0.000000e+00 2.816570e-05 0.000000e+00)
0.648         	(0.000000e+00 3.371369e-05 0.000000e+00)
0.652         	(0.000000e+00 3.933589e-05 0.000000e+00)
0.656         	(0.000000e+00 4.502909e-05 0.000000e+00)
0.66          	(0.000000e+00 5.078994e-05 0.000000e+00)
0.664         	(0.000000e+00 5.661502e-05 0.000000e+00)
0.668         	(0.000000e+00 6.250074e-05 0.000000e+00)
0.672         	(0.000000e+00 6.844343e-05 0.000000e+00)
0.676         	(0.000000e+00 7.443935e-05 0.000000e+00)
0.68          	(0.000000e+00 8.048468e-05 0.000000e+00)
0.684         	(0.000000e+00 8.657548e-05 0.000000e+00)
0.688         	(0.000000e+00 9.270766e-05 0.000000e+00)
0.692         	(0.000000e+00 9.887708e-05 0.000000e+00)
0.696         	(0.000000e+00 1.050796e-04 0.000000e+00)
0.7           	(0.000000e+00 1.113108e-04 0.000000e+00)
0.704         	(0.000000e+00 1.175664e-04 0.000000e+00)
0.708         	(0.000000e+00 1.238419e-04 0.000000e+00)
0.712         	(0.000000e+00 1.301326e-04 0.000000e+00)
0.716         	(0.000000e+00 1.364341e-04 0.000000e+00)
0.72          	(0.000000e+00 1.427416e-04 0.000000e+00)
0.724         	(0.000000e+00 1.490504e-04 0.000000e+00)
0.728         	(0.000000e+00 1.553555e-04 0.000000e+00)
0.732         	(0.000000e+00 1.616522e-04 0.000000e+00)
0.736         	(0.000000e+00 1.679355e-04 0.000000e+00)
0.74          	(0.000000e+00 1.742003e-04 0.000000e+00)
0.744         	(0.000000e+00 1.804417e-04 0.000000e+00)
0.748         	(0.000000e+00 1.866545e-04 0.000000e+00)
0.752         	(0.000000e+00 1.928337e-04 0.000000e+00)
0.756         	(0.000000e+00 1.989739e-04 0.000000e+00)
0.76          	(0.000000e+00 2.050701e-04 0.000000e+00)
0.764         	(0.000000e+00 2.111169e-04 0.000000e+00)
0.768         	(0.000000e+00 2.171091e-04 0.000000e+00)
0.772         	(0.000000e+00 2.230414e-04 0.000000e+00)
0.776         	(0.000000e+00 2.289084e-04 0.000000e+00)
0.78          	(0.000000e+00 2.347047e-04 0.000000e+00)
0.784         	(0.000000e+00 2.404251e-04 0.000000e+00)
0.788         	(0.000000e+00 2.460642e-04 0.000000e+00)
0.792         	(0.000000e+00 2.516166e-04 0.000000e+00)
0.796         	(0.000000e+00 2.570768e-04 0.000000e+00)
0.8           	(0.000000e+00 2.624396e-04 0.000000e+00)
0.804         	(0.000000e+00 2.676996e-04 0.000000e+00)
0.808         	(0.000000e+00 2.728514e-04 0.000000e+00)
0.812         	(0.000000e+00 2.778896e-04 0.000000e+00)
0.816         	(0.000000e+00 2.828090e-04 0.000000e+00)
0.82          	(0.000000e+00 2.876041e-04 0.000000e+00)
0.824         	(0.000000e+00 2.922697e-04 0.000000e+00)
0.828         	(0.000000e+00 2.968006e-04 0.000000e+00)
0.832         	(0.000000e+00 3.011914e-04 0.000000e+00)
0.836         	(0.000000e+00 3.054368e-04 0.000000e+00)
0.84          	(0.000000e+00 3.095318e-04 0.000000e+00)
0.844         	(0.000000e+00 3.134714e-04 0.000000e+00)
0.848         	(0.000000e+00 3.172505e-04 0.000000e+00)
0.852         	(0.000000e+00 3.208640e-04 0.000000e+00)
0.856         	(0.000000e+00 3.243070e-04 0.000000e+00)
0.86          	(0.000000e+00 3.275750e-04 0.000000e+00)
0.864         	(0.000000e+00 3.306631e-04 0.000000e+00)
0.868         	(0.000000e+00 3.335665e-04 0.000000e+00)
0.872         	(0.000000e+00 3.362812e-04 0.000000e+00)
0.876         	(0.000000e+00 3.388024e-04 0.000000e+00)
0.88          	(0.000000e+00 3.411260e-04 0.000000e+00)
0.884         	(0.000000e+00 3.432489e-04 0.000000e+00)
0.888         	(0.000000e+00 3.451666e-04 0.000000e+00)
0.892         	(0.000000e+00 3.468752e-04 0.000000e+00)
0.896         	(0.000000e+00 3.483712e-04 0.000000e+00)
0.9           	(0.000000e+00 3.496508e-04 0.000000e+00)
0.904         	(0.000000e+00 3.507107e-04 0.000000e+00)
0.908         	(0.000000e+00 3.515473e-04 0.000000e+00)
0.912         	(0.000000e+00 3.521565e-04 0.000000e+00)
0.916         	(0.000000e+00 3.525367e-04 0.000000e+00)
0.92          	(0.000000e+00 3.526874e-04 0.000000e+00)
0.924         	(0.000000e+00 3.526081e-04 0.000000e+00)
0.928         	(0.000000e+00 3.522894e-04 0.000000e+00)
0.932         	(0.000000e+00 3.517293e-04 0.000000e+00)
0.936         	(0.000000e+00 3.509219e-04 0.000000e+00)
0.94          	(0.000000e+00 3.498639e-04 0.000000e+00)
0.944         	(0.000000e+00 3.485554e-04 0.000000e+00)
0.948         	(0.000000e+00 3.469927e-04 0.000000e+00)
0.952         	(0.000000e+00 3.451724e-04 0.000000e+00)
0.956         	(0.000000e+00 3.430949e-04 0.000000e+00)
0.96          	(0.000000e+00 3.407583e-04 0.000000e+00)
0.964         	(0.000000e+00 3.381610e-04 0.000000e+00)
0.968         	(0.000000e+00 3.353013e-04 0.000000e+00)
0.972         	(0.000000e+00 3.321791e-04 0.000000e+00)
0.976         	(0.000000e+00 3.287926e-04 0.000000e+00)
0.98          	(0.000000e+00 3.251404e-04 0.000000e+00)
0.984         	(0.000000e+00 3.212220e-04 0.000000e+00)
0.988         	(0.000000e+00 3.170376e-04 0.000000e+00)
0.992         	(0.000000e+00 3.125865e-04 0.000000e+00)
0.996         	(0.000000e+00 3.078686e-04 0.000000e+00)
1             	(0.000000e+00 3.028853e-04 0.000000e+00)
1.004         	(0.000000e+00 2.976380e-04 0.000000e+00)
1.008         	(0.000000e+00 2.921263e-04 0.000000e+00)
1.012         	(0.000000e+00 2.863515e-04 0.000000e+00)
1.016         	(0.000000e+00 2.803160e-04 0.000000e+00)
1.02          	(0.000000e+00 2.740185e-04 0.000000e+00)
1.024         	(0.000000e+00 2.674598e-04 0.000000e+00)
1.028         	(0.000000e+00 2.606418e-04 0.000000e+00)
1.032         	(0.000000e+00 2.535671e-04 0.000000e+00)
1.036         	(0.000000e+00 2.462370e-04 0.000000e+00)
1.04          	(0.000000e+00 2.386532e-04 0.000000e+00)
1.044         	(0.000000e+00 2.308177e-04 0.000000e+00)
1.048         	(0.000000e+00 2.227328e-04 0.000000e+00)
1.052         	(0.000000e+00 2.144013e-04 0.000000e+00)
1.056         	(0.000000e+00 2.058256e-04 0.000000e+00)
1.06          	(0.000000e+00 1.970095e-04 0.000000e+00)
1.064         	(0.000000e+00 1.879559e-04 0.000000e+00)
1.068         	(0.000000e+00 1.786686e-04 0.000000e+00)
1.072         	(0.000000e+00 1.691512e-04 0.000000e+00)
1.076         	(0.000000e+00 1.594075e-04 0.000000e+00)
1.08          	(0.000000e+00 1.494419e-04 0.000000e+00)
1.084         	(0.000000e+00 1.392587e-04 0.000000e+00)
1.088         	(0.000000e+00 1.288623e-04 0.000000e+00)
1.092         	(0.000000e+00 1.182573e-04 0.000000e+00)
1.096         	(0.000000e+00 1.074485e-04 0.000000e+00)
1.1           	(0.000000e+00 9.644124e-05 0.000000e+00)
1.104         	(0.000000e+00 8.524063e-05 0.000000e+00)
1.108         	(0.000000e+00 7.385228e-05 0.000000e+00)
1.112         	(0.000000e+00 6.228197e-05 0.000000e+00)
1.116         	(0.000000e+00 5.053547e-05 0.000000e+00)
1.12          	(0.000000e+00 3.861850e-05 0.000000e+00)
1.124         	(0.000000e+00 2.653735e-05 0.000000e+00)
1.128         	(0.000000e+00 1.429843e-05 0.000000e+00)
1.132         	(0.000000e+00 1.908305e-06 0.000000e+00)
1.136         	(0.000000e+00 -1.062627e-05 0.000000e+00)
1.14          	(0.000000e+00 -2.329848e-05 0.000000e+00)
1.144         	(0.000000e+00 -3.610117e-05 0.000000e+00)
1.148         	(0.000000e+00 -4.902714e-05 0.000000e+00)
1.152         	(0.000000e+00 -6.206906e-05 0.000000e+00)
1.156         	(0.000000e+00 -7.521937e-05 0.000000e+00)
1.16          	(0.000000e+00 -8.847028e-05 0.000000e+00)
1.164         	(0.000000e+00 -1.018143e-04 0.000000e+00)
1.168         	(0.000000e+00 -1.152434e-04 0.000000e+00)
1.172         	(0.000000e+00 -1.287496e-04 0.000000e+00)
1.176         	(0.000000e+00 -1.423245e-04 0.000000e+00)
1.18          	(0.000000e+00 -1.559598e-04 0.000000e+00)
1.184         	(0.000000e+00 -1.696471e-04 0.000000e+00)
1.188         	(0.000000e+00 -1.833777e-04 0.000000e+00)
1.192         	(0.000000e+00 -1.971429e-04 0.000000e+00)
1.196         	(0.000000e+00 -2.109339e-04 0.000000e+00)
1.2           	(0.000000e+00 -2.247418e-04 0.000000e+00)
1.204         	(0.000000e+00 -2.385578e-04 0.000000e+00)
1.208         	(0.000000e+00 -2.523727e-04 0.000000e+00)
1.212         	(0.000000e+00 -2.661775e-04 0.000000e+00)
1.216         	(0.000000e+00 -2.799630e-04 0.000000e+00)
1.22          	(0.000000e+00 -2.937197e-04 0.000000e+00)
1.224         	(0.000000e+00 -3.074384e-04 0.000000e+00)
1.228         	(0.000000e+00 -3.211095e-04 0.000000e+00)
1.232         	(0.000000e+00 -3.347237e-04 0.000000e+00)
1.236         	(0.000000e+00 -3.482715e-04 0.000000e+00)
1.24          	(0.000000e+00 -3.617433e-04 0.000000e+00)
1.244         	(0.000000e+00 -3.751297e-04 0.000000e+00)
1.248         	(0.000000e+00 -3.884209e-04 0.000000e+00)
1.252         	(0.000000e+00 -4.016072e-04 0.000000e+00)
1.256         	(0.000000e+00 -4.146792e-04 0.000000e+00)
1.26          	(0.000000e+00 -4.276271e-04 0.000000e+00)
1.264         	(0.000000e+00 -4.404413e-04 0.000000e+00)
1.268         	(0.000000e+00 -4.531121e-04 0.000000e+00)
1.272         	(0.000000e+00 -4.656298e-04 0.000000e+00)
1.276         	(0.000000e+00 -4.779849e-04 0.000000e+00)
1.28          	(0.000000e+00 -4.901678e-04 0.000000e+00)
1.284         	(0.000000e+00 -5.021687e-04 0.000000e+00)
1.288         	(0.000000e+00 -5.139783e-04 0.000000e+00)
1.292         	(0.000000e+00 -5.255873e-04 0.000000e+00)
1.296         	(0.000000e+00 -5.369860e-04 0.000000e+00)
1.3           	(0.000000e+00 -5.481651e-04 0.000000e+00)
1.304         	(0.000000e+00 -5.591153e-04 0.000000e+00)
1.308         	(0.000000e+00 -5.698274e-04 0.000000e+00)
1.312         	(0.000000e+00 -5.802921e-04 0.000000e+00)
1.316         	(0.000000e+00 -5.905003e-04 0.000000e+00)
1.32          	(0.000000e+00 -6.004430e-04 0.000000e+00)
1.324         	(0.000000e+00 -6.101114e-04 0.000000e+00)
1.328         	(0.000000e+00 -6.194966e-04 0.000000e+00)
1.332         	(0.000000e+00 -6.285900e-04 0.000000e+00)
1.336         	(0.000000e+00 -6.373829e-04 0.000000e+00)
1.34          	(0.000000e+00 -6.458669e-04 0.000000e+00)
1.344         	(0.000000e+00 -6.540339e-04 0.000000e+00)
1.348         	(0.000000e+00 -6.618756e-04 0.000000e+00)
1.352         	(0.000000e+00 -6.693838e-04 0.000000e+00)
1.356         	(0.000000e+00 -6.765514e-04 0.000000e+00)
1.36          	(0.000000e+00 -6.833704e-04 0.000000e+00)
1.364         	(0.000000e+00 -6.898339e-04 0.000000e+00)
1.368         	(0.000000e+00 -6.959350e-04 0.000000e+00)
1.372         	(0.000000e+00 -7.016665e-04 0.000000e+00)
1.376         	(0.000000e+00 -7.070218e-04 0.000000e+00)
1.38          	(0.000000e+00 -7.119949e-04 0.000000e+00)
1.384         	(0.000000e+00 -7.165791e-04 0.000000e+00)
1.388         	(0.000000e+00 -7.207682e-04 0.000000e+00)
1.392         	(0.000000e+00 -7.245567e-04 0.000000e+00)
1.396         	(0.000000e+00 -7.279390e-04 0.000000e+00)
1.4           	(0.000000e+00 -7.309095e-04 0.000000e+00)
1.404         	(0.000000e+00 -7.334656e-04 0.000000e+00)
1.408         	(0.000000e+00 -7.356017e-04 0.000000e+00)
1.412         	(0.000000e+00 -7.373132e-04 0.000000e+00)
1.416         	(0.000000e+00 -7.385965e-04 0.000000e+00)
1.42          	(0.000000e+00 -7.394455e-04 0.000000e+00)
1.424         	(0.000000e+00 -7.398577e-04 0.000000e+00)
1.428         	(0.000000e+00 -7.398370e-04 0.000000e+00)
1.432         	(0.000000e+00 -7.393727e-04 0.000000e+00)
1.436         	(0.000000e+00 -7.384605e-04 0.000000e+00)
1.44          	(0.000000e+00 -7.370953e-04 0.000000e+00)
1.444         	(0.000000e+00 -7.352684e-04 0.000000e+00)
1.448         	(0.000000e+00 -7.329766e-04 0.000000e+00)
1.452         	(0.000000e+00 -7.302186e-04 0.000000e+00)
1.456         	(0.000000e+00 -7.269952e-04 0.000000e+00)
1.46          	(0.000000e+00 -7.233041e-04 0.000000e+00)
1.464         	(0.000000e+00 -7.191447e-04 0.000000e+00)
1.468         	(0.000000e+00 -7.145153e-04 0.000000e+00)
1.472         	(0.000000e+00 -7.094161e-04 0.000000e+00)
1.476         	(0.000000e+00 -7.038455e-04 0.000000e+00)
1.48          	(0.000000e+00 -6.978044e-04 0.000000e+00)
1.484         	(0.000000e+00 -6.912909e-04 0.000000e+00)
1.488         	(0.000000e+00 -6.843068e-04 0.000000e+00)
1.492         	(0.000000e+00 -6.768530e-04 0.000000e+00)
1.496         	(0.000000e+00 -6.689303e-04 0.000000e+00)
1.5           	(0.000000e+00 -6.605384e-04 0.000000e+00)
1.504         	(0.000000e+00 -6.516824e-04 0.000000e+00)
1.508         	(0.000000e+00 -6.423644e-04 0.000000e+00)
1.512         	(0.000000e+00 -6.325877e-04 0.000000e+00)
1.516         	(0.000000e+00 -6.223559e-04 0.000000e+00)
1.52          	(0.000000e+00 -6.116719e-04 0.000000e+00)
1.524         	(0.000000e+00 -6.005359e-04 0.000000e+00)
1.528         	(0.000000e+00 -5.889515e-04 0.000000e+00)
1.532         	(0.000000e+00 -5.769230e-04 0.000000e+00)
1.536         	(0.000000e+00 -5.644554e-04 0.000000e+00)
1.54          	(0.000000e+00 -5.515537e-04 0.000000e+00)
1.544         	(0.000000e+00 -5.382214e-04 0.000000e+00)
1.548         	(0.000000e+00 -5.244644e-04 0.000000e+00)
1.552         	(0.000000e+00 -5.102864e-04 0.000000e+00)
1.556         	(0.000000e+00 -4.956939e-04 0.000000e+00)
1.56          	(0.000000e+00 -4.806927e-04 0.000000e+00)
1.564         	(0.000000e+00 -4.652886e-04 0.000000e+00)
1.568         	(0.000000e+00 -4.494895e-04 0.000000e+00)
1.572         	(0.000000e+00 -4.333021e-04 0.000000e+00)
1.576         	(0.000000e+00 -4.167335e-04 0.000000e+00)
1.58          	(0.000000e+00 -3.997916e-04 0.000000e+00)
1.584         	(0.000000e+00 -3.824845e-04 0.000000e+00)
1.588         	(0.000000e+00 -3.648201e-04 0.000000e+00)
1.592         	(0.000000e+00 -3.468068e-04 0.000000e+00)
1.596         	(0.000000e+00 -3.284538e-04 0.000000e+00)
1.6           	(0.000000e+00 -3.097704e-04 0.000000e+00)
1.604         	(0.000000e+00 -2.907658e-04 0.000000e+00)
1.608         	(0.000000e+00 -2.714497e-04 0.000000e+00)
1.612         	(0.000000e+00 -2.518321e-04 0.000000e+00)
1.616         	(0.000000e+00 -2.319228e-04 0.000000e+00)
1.62          	(0.000000e+00 -2.117323e-04 0.000000e+00)
1.624         	(0.000000e+00 -1.912715e-04 0.000000e+00)
1.628         	(0.000000e+00 -1.705513e-04 0.000000e+00)
1.632         	(0.000000e+00 -1.495828e-04 0.000000e+00)
1.636         	(0.000000e+00 -1.283774e-04 0.000000e+00)
1.64          	(0.000000e+00 -1.069469e-04 0.000000e+00)
1.644         	(0.000000e+00 -8.530301e-05 0.000000e+00)
1.648         	(0.000000e+00 -6.345818e-05 0.000000e+00)
1.652         	(0.000000e+00 -4.142463e-05 0.000000e+00)
1.656         	(0.000000e+00 -1.921460e-05 0.000000e+00)
1.66          	(0.000000e+00 3.159017e-06 0.000000e+00)
1.664         	(0.000000e+00 2.568337e-05 0.000000e+00)
1.668         	(0.000000e+00 4.834541e-05 0.000000e+00)
1.672         	(0.000000e+00 7.113184e-05 0.000000e+00)
1.676         	(0.000000e+00 9.402920e-05 0.000000e+00)
1.68          	(0.000000e+00 1.170238e-04 0.000000e+00)
1.684         	(0.000000e+00 1.401020e-04 0.000000e+00)
1.688         	(0.000000e+00 1.632499e-04 0.000000e+00)
1.692         	(0.000000e+00 1.864535e-04 0.000000e+00)
1.696         	(0.000000e+00 2.096986e-04 0.000000e+00)
1.7           	(0.000000e+00 2.329708e-04 0.000000e+00)
1.704         	(0.000000e+00 2.562559e-04 0.000000e+00)
1.708         	(0.000000e+00 2.795393e-04 0.000000e+00)
1.712         	(0.000000e+00 3.028065e-04 0.000000e+00)
1.716         	(0.000000e+00 3.260428e-04 0.000000e+00)
1.72          	(0.000000e+00 3.492338e-04 0.000000e+00)
1.724         	(0.000000e+00 3.723644e-04 0.000000e+00)
1.728         	(0.000000e+00 3.954198e-04 0.000000e+00)
1.732         	(0.000000e+00 4.183853e-04 0.000000e+00)
1.736         	(0.000000e+00 4.412459e-04 0.000000e+00)
1.74          	(0.000000e+00 4.639865e-04 0.000000e+00)
1.744         	(0.000000e+00 4.865923e-04 0.000000e+00)
1.748         	(0.000000e+00 5.090483e-04 0.000000e+00)
1.752         	(0.000000e+00 5.313393e-04 0.000000e+00)
1.756         	(0.000000e+00 5.534504e-04 0.000000e+00)
1.76          	(0.000000e+00 5.753665e-04 0.000000e+00)
1.764         	(0.000000e+00 5.970727e-04 0.000000e+00)
1.768         	(0.000000e+00 6.185542e-04 0.000000e+00)
1.772         	(0.000000e+00 6.397962e-04 0.000000e+00)
1.776         	(0.000000e+00 6.607839e-04 0.000000e+00)
1.78          	(0.000000e+00 6.815026e-04 0.000000e+00)
1.784         	(0.000000e+00 7.019378e-04 0.000000e+00)
1.788         	(0.000000e+00 7.220749e-04 0.000000e+00)
1.792         	(0.000000e+00 7.418993e-04 0.000000e+00)
1.796         	(0.000000e+00 7.613968e-04 0.000000e+00)
1.8           	(0.000000e+00 7.805531e-04 0.000000e+00)
1.804         	(0.000000e+00 7.993544e-04 0.000000e+00)
1.808         	(0.000000e+00 8.177866e-04 0.000000e+00)
1.812         	(0.000000e+00 8.358360e-04 0.000000e+00)
1.816         	(0.000000e+00 8.534888e-04 0.000000e+00)
1.82          	(0.000000e+00 8.707314e-04 0.000000e+00)
1.824         	(0.000000e+00 8.875507e-04 0.000000e+00)
1.828         	(0.000000e+00 9.039333e-04 0.000000e+00)
1.832         	(0.000000e+00 9.198664e-04 0.000000e+00)
1.836         	(0.000000e+00 9.353371e-04 0.000000e+00)
1.84          	(0.000000e+00 9.503330e-04 0.000000e+00)
1.844         	(0.000000e+00 9.648417e-04 0.000000e+00)
1.848         	(0.000000e+00 9.788514e-04 0.000000e+00)
1.852         	(0.000000e+00 9.923504e-04 0.000000e+00)
1.856         	(0.000000e+00 1.005327e-03 0.000000e+00)
1.86          	(0.000000e+00 1.017770e-03 0.000000e+00)
1.864         	(0.000000e+00 1.029670e-03 0.000000e+00)
1.868         	(0.000000e+00 1.041014e-03 0.000000e+00)
1.872         	(0.000000e+00 1.051795e-03 0.000000e+00)
1.876         	(0.000000e+00 1.062001e-03 0.000000e+00)
1.88          	(0.000000e+00 1.071623e-03 0.000000e+00)
1.884         	(0.000000e+00 1.080651e-03 0.000000e+00)
1.888         	(0.000000e+00 1.089078e-03 0.000000e+00)
1.892         	(0.000000e+00 1.096894e-03 0.000000e+00)
1.896         	(0.000000e+00 1.104091e-03 0.000000e+00)
1.9           	(0.000000e+00 1.110662e-03 0.000000e+00)
1.904         	(0.000000e+00 1.116601e-03 0.000000e+00)
1.908         	(0.000000e+00 1.121900e-03 0.000000e+00)
1.912         	(0.000000e+00 1.126551e-03 0.000000e+00)
1.916         	(0.000000e+00 1.130551e-03 0.000000e+00)
1.92          	(0.000000e+00 1.133891e-03 0.000000e+00)
1.924         	(0.000000e+00 1.136566e-03 0.000000e+00)
1.928         	(0.000000e+00 1.138577e-03 0.000000e+00)
1.932         	(0.000000e+00 1.139921e-03 0.000000e+00)
1.936         	(0.000000e+00 1.140592e-03 0.000000e+00)
1.94          	(0.000000e+00 1.140577e-03 0.000000e+00)
1.944         	(0.000000e+00 1.139874e-03 0.000000e+00)
1.948         	(0.000000e+00 1.138488e-03 0.000000e+00)
1.952         	(0.000000e+00 1.136405e-03 0.000000e+00)
1.956         	(0.000000e+00 1.133611e-03 0.000000e+00)
1.96          	(0.000000e+00 1.130109e-03 0.000000e+00)
1.964         	(0.000000e+00 1.125901e-03 0.000000e+00)
1.968         	(0.000000e+00 1.120984e-03 0.000000e+00)
1.972         	(0.000000e+00 1.115360e-03 0.000000e+00)
1.976         	(0.000000e+00 1.109028e-03 0.000000e+00)
1.98          	(0.000000e+00 1.101988e-03 0.000000e+00)
1.984         	(0.000000e+00 1.094236e-03 0.000000e+00)
1.988         	(0.000000e+00 1.085774e-03 0.000000e+00)
1.992         	(0.000000e+00 1.076606e-03 0.000000e+00)
1.996         	(0.000000e+00 1.066733e-03 0.000000e+00)
2             	(0.000000e+00 1.056156e-03 0.000000e+00)
2.004         	(0.000000e+00 1.044881e-03 0.000000e+00)
2.008         	(0.000000e+00 1.032912e-03 0.000000e+00)
2.012         	(0.000000e+00 1.020250e-03 0.000000e+00)
2.016         	(0.000000e+00 1.006903e-03 0.000000e+00)
2.02          	(0.000000e+00 9.928741e-04 0.000000e+00)
2.024         	(0.000000e+00 9.781662e-04 0.000000e+00)
2.028         	(0.000000e+00 9.627832e-04 0.000000e+00)
2.032         	(0.000000e+00 9.467317e-04 0.000000e+00)
2.036         	(0.000000e+00 9.300183e-04 0.000000e+00)
2.04          	(0.000000e+00 9.126508e-04 0.000000e+00)
2.044         	(0.000000e+00 8.946359e-04 0.000000e+00)
2.048         	(0.000000e+00 8.759800e-04 0.000000e+00)
2.052         	(0.000000e+00 8.566896e-04 0.000000e+00)
2.056         	(0.000000e+00 8.367737e-04 0.000000e+00)
2.06          	(0.000000e+00 8.162413e-04 0.000000e+00)
2.064         	(0.000000e+00 7.951005e-04 0.000000e+00)
2.068         	(0.000000e+00 7.733621e-04 0.000000e+00)
2.072         	(0.000000e+00 7.510362e-04 0.000000e+00)
2.076         	(0.000000e+00 7.281333e-04 0.000000e+00)
2.08          	(0.000000e+00 7.046642e-04 0.000000e+00)
2.084         	(0.000000e+00 6.806405e-04 0.000000e+00)