/*--------------------------------*- C++ -*----------------------------------*\
  =========                 |
  \\      /  F ield         | OpenFOAM: The Open Source CFD Toolbox
   \\    /   O peration     | Website:  https://openfoam.org
    \\  /    A nd           | Version:  12
     \\/     M anipulation  |
\*---------------------------------------------------------------------------*/
FoamFile
{
    format      ascii;
    class       volScalarField;
    location    "6.86";
    object      p_rgh;
}
// * * * * * * * * * * * * * * * * * * * * * * * * * * * * * * * * * * * * * //

dimensions      [1 -1 -2 0 0 0 0];

internalField   nonuniform List<scalar> 
3829
(
0.130161
0.130107
0.129995
0.129828
0.129608
0.12934
0.129031
0.12869
0.128329
0.127958
0.127594
0.12725
0.126944
0.126691
0.126507
0.126408
0.126408
0.126518
0.126747
0.127102
0.127585
0.128194
0.128921
0.129752
0.130665
0.131633
0.13262
0.133583
0.134469
0.13522
0.135766
0.136034
0.13594
0.135397
0.134311
0.132582
0.130109
0.126781
0.122496
0.117172
0.110732
0.103108
0.094237
0.0840701
0.0725666
0.0596999
0.0454578
0.0298445
0.0128828
-0.00538515
-0.024896
-0.0455646
-0.0672835
-0.0899237
-0.113333
-0.137339
-0.161745
-0.18634
-0.210892
-0.235159
-0.258884
-0.281793
-0.303615
-0.324068
-0.342874
-0.359761
-0.374461
-0.386714
-0.396363
-0.403189
-0.406955
-0.407628
-0.405091
-0.39927
-0.390151
-0.377798
-0.362216
-0.343639
-0.322263
-0.298326
-0.272117
-0.241357
-0.211594
-0.180811
-0.149438
-0.117961
-0.0868965
-0.0567744
-0.0281151
-0.00142684
0.0228099
0.0441569
0.0622298
0.0767124
0.0873709
0.0927237
0.0937188
0.0905292
0.0833411
0.0723765
0.0579356
0.0404224
0.0203426
-0.00170838
-0.0250761
-0.0490526
-0.0729028
-0.0958817
-0.117279
-0.13642
-0.152703
-0.165622
-0.174793
-0.179982
-0.18113
-0.178059
-0.171186
-0.160883
-0.147662
-0.132171
-0.115164
-0.0974759
-0.0799784
-0.0634937
-0.0489062
-0.036902
-0.0280664
-0.0228068
-0.0213318
-0.0239953
-0.0303306
-0.0399268
-0.0522338
-0.0665486
-0.082012
-0.0975788
-0.112373
-0.125496
-0.136155
-0.143729
-0.147819
-0.147697
-0.143862
-0.13664
-0.126518
-0.114196
-0.100505
-0.0859851
-0.0725116
-0.0605524
-0.0509668
-0.0444544
-0.0414939
-0.0423039
-0.0475273
-0.0563353
-0.0683485
-0.0829624
-0.0993894
-0.116743
-0.134084
-0.150458
-0.165013
-0.176985
-0.185769
-0.190949
-0.192301
-0.189796
-0.183627
-0.174147
-0.161867
-0.147401
-0.130981
-0.114326
-0.0976779
-0.0817406
-0.0671475
-0.0544268
-0.0439917
-0.0361372
-0.0309711
-0.0284922
-0.0285748
-0.030979
-0.0353712
-0.0414383
-0.0486733
-0.0567082
-0.0651272
-0.0735457
-0.081637
-0.0891406
-0.0958648
-0.101691
-0.106567
-0.110495
-0.113516
-0.115699
-0.11711
-0.117806
0.135294
0.135102
0.134716
0.134137
0.133373
0.132437
0.131347
0.130127
0.128806
0.12742
0.126007
0.124612
0.123281
0.122062
0.121006
0.120163
0.119582
0.119308
0.119381
0.119834
0.120692
0.12197
0.123672
0.125789
0.1283
0.131169
0.134345
0.137762
0.141342
0.144989
0.148596
0.152045
0.155207
0.157947
0.160123
0.161596
0.162236
0.161936
0.159546
0.155728
0.150404
0.143503
0.134956
0.124693
0.112654
0.0987915
0.0830777
0.0655067
0.0460988
0.0249049
0.00200796
-0.0224785
-0.0484097
-0.075613
-0.103885
-0.133
-0.162699
-0.192706
-0.222721
-0.252434
-0.281513
-0.309617
-0.336401
-0.361518
-0.384635
-0.405429
-0.423594
-0.437164
-0.449025
-0.457354
-0.461954
-0.462664
-0.459374
-0.452021
-0.440623
-0.425138
-0.405855
-0.382898
-0.356534
-0.327085
-0.294936
-0.260538
-0.222466
-0.185266
-0.147444
-0.109616
-0.0724367
-0.0365658
-0.00264466
0.0287038
0.0568991
0.0814193
0.101819
0.117764
0.128964
0.133696
0.133348
0.128
0.117793
0.102987
0.0839974
0.0613638
0.0357423
0.00788546
-0.0213807
-0.0511683
-0.0805493
-0.108641
-0.13455
-0.157462
-0.176659
-0.191534
-0.201649
-0.206709
-0.206631
-0.201569
-0.191815
-0.177861
-0.16041
-0.140307
-0.118519
-0.0960954
-0.0741189
-0.0536635
-0.0357264
-0.0211849
-0.0107431
-0.00488297
-0.00385691
-0.00770948
-0.0160983
-0.028522
-0.0442044
-0.0622479
-0.0815915
-0.100824
-0.118932
-0.134813
-0.147509
-0.156271
-0.160611
-0.160122
-0.155116
-0.145976
-0.133368
-0.118191
-0.101487
-0.0841498
-0.0679568
-0.0537004
-0.042379
-0.0347951
-0.0315187
-0.0328732
-0.0385699
-0.048571
-0.0622857
-0.0789189
-0.0975236
-0.11706
-0.136458
-0.154645
-0.170683
-0.183746
-0.193191
-0.198593
-0.199738
-0.196683
-0.189645
-0.179061
-0.165528
-0.149735
-0.131982
-0.11408
-0.0963044
-0.0794142
-0.0640736
-0.0508232
-0.0400621
-0.0321614
-0.0271258
-0.0249363
-0.0254385
-0.0283555
-0.0333182
-0.0399635
-0.0477694
-0.0563287
-0.0652032
-0.0739944
-0.0823677
-0.0900604
-0.0968887
-0.102744
-0.107591
-0.111449
-0.114383
-0.116477
-0.117818
-0.118474
0.152985
0.152321
0.150985
0.148993
0.146379
0.143192
0.139499
0.135378
0.130921
0.12623
0.121419
0.116612
0.111942
0.107546
0.103563
0.100134
0.097394
0.0954695
0.0944753
0.0945095
0.0956498
0.0979498
0.101436
0.106105
0.11192
0.118816
0.126689
0.135407
0.144803
0.154684
0.164828
0.174986
0.184893
0.194264
0.202795
0.210162
0.216026
0.220037
0.223096
0.2241
0.222798
0.218972
0.212438
0.203059
0.19074
0.17543
0.15712
0.135842
0.111671
0.0847201
0.0551425
0.0231305
-0.0110836
-0.0472302
-0.0849977
-0.124043
-0.163985
-0.204417
-0.244903
-0.284993
-0.324216
-0.36208
-0.398095
-0.431811
-0.462627
-0.490224
-0.514148
-0.533956
-0.549356
-0.560009
-0.565639
-0.566048
-0.561062
-0.550585
-0.534557
-0.513147
-0.486639
-0.455276
-0.419447
-0.379618
-0.336311
-0.290138
-0.241762
-0.192039
-0.141923
-0.0921275
-0.0435228
0.00301081
0.0466234
0.086491
0.121836
0.151944
0.176216
0.194176
0.20549
0.209593
0.206832
0.197281
0.18117
0.158931
0.131216
0.0988202
0.0626853
0.0238748
-0.0164608
-0.0570968
-0.0967858
-0.134311
-0.168489
-0.198244
-0.22265
-0.240957
-0.252588
-0.257237
-0.254672
-0.245413
-0.229867
-0.208803
-0.183235
-0.154363
-0.123546
-0.0922415
-0.0618991
-0.0340475
-0.00997143
0.00915951
0.0224347
0.0292458
0.0293072
0.0228822
0.0102983
-0.007657
-0.0298378
-0.0549325
-0.0815727
-0.107659
-0.1319
-0.152821
-0.169183
-0.180049
-0.184793
-0.183352
-0.175902
-0.163015
-0.145688
-0.125175
-0.102894
-0.0802884
-0.0591785
-0.0408027
-0.0263963
-0.0169079
-0.0129618
-0.0148405
-0.0221139
-0.0346301
-0.0515801
-0.0719303
-0.0944708
-0.117908
-0.140944
-0.162309
-0.180908
-0.195808
-0.206326
-0.212034
-0.21277
-0.208652
-0.200031
-0.187469
-0.1717
-0.153556
-0.13354
-0.113462
-0.0937461
-0.0752353
-0.0586448
-0.0445365
-0.0332838
-0.0253191
-0.0205268
-0.0188614
-0.0201105
-0.0239295
-0.0298822
-0.0375416
-0.0463232
-0.0557769
-0.0654235
-0.0748406
-0.083679
-0.0916784
-0.0986652
-0.104552
-0.109331
-0.113055
-0.115824
-0.117756
-0.11897
-0.119554
0.202966
0.201102
0.197367
0.191832
0.184598
0.1758
0.165609
0.154233
0.141905
0.12891
0.115463
0.101925
0.0886709
0.0760537
0.0644197
0.0541212
0.0455001
0.0388784
0.0345397
0.0327226
0.03361
0.0373242
0.0439202
0.0533835
0.065628
0.0804963
0.0977578
0.117111
0.138187
0.160569
0.183796
0.207375
0.230794
0.253534
0.275098
0.295048
0.313048
0.326538
0.336792
0.343617
0.346748
0.345915
0.340879
0.331449
0.317492
0.298938
0.275782
0.248082
0.215972
0.179646
0.139362
0.0954374
0.0482451
-0.00178678
-0.0541805
-0.108424
-0.163938
-0.220134
-0.276379
-0.33202
-0.38639
-0.438821
-0.48796
-0.534365
-0.576777
-0.614567
-0.647142
-0.673968
-0.694562
-0.708523
-0.715562
-0.715445
-0.708134
-0.69378
-0.669794
-0.639136
-0.601762
-0.557989
-0.508319
-0.453391
-0.39396
-0.330902
-0.265208
-0.197944
-0.130292
-0.0633894
0.00154836
0.0633091
0.120719
0.172646
0.218045
0.255983
0.285577
0.306127
0.317154
0.319937
0.313076
0.296779
0.271504
0.237988
0.197212
0.150342
0.0987342
0.0439027
-0.0125279
-0.0688554
-0.123349
-0.174321
-0.220183
-0.259492
-0.291015
-0.313802
-0.327304
-0.331378
-0.324282
-0.308316
-0.283928
-0.252205
-0.214591
-0.172807
-0.128771
-0.0845265
-0.0421908
-0.00373459
0.0290265
0.0545534
0.0716428
0.0795142
0.0778605
0.0672015
0.0480794
0.0217597
-0.010095
-0.0455633
-0.0827707
-0.11875
-0.151764
-0.179817
-0.201253
-0.214869
-0.219978
-0.216792
-0.205453
-0.186918
-0.162649
-0.134433
-0.1042
-0.0740581
-0.0461104
-0.0220932
-0.00354243
0.00841814
0.0131113
0.0103544
0.000588551
-0.0156387
-0.037219
-0.0627884
-0.0907795
-0.119551
-0.147496
-0.173088
-0.195036
-0.21229
-0.224108
-0.23008
-0.23013
-0.224474
-0.213638
-0.198356
-0.179554
-0.15825
-0.135285
-0.112324
-0.0900785
-0.0694847
-0.0513186
-0.0361879
-0.0245433
-0.0163803
-0.011933
-0.0110009
-0.0132684
-0.0182983
-0.0255664
-0.0345558
-0.0446105
-0.0552198
-0.0658543
-0.0760612
-0.0854781
-0.0938459
-0.101007
-0.106904
-0.111566
-0.115091
-0.117624
-0.11933
-0.120366
-0.120852
0.324185
0.319312
0.308528
0.294159
0.276087
0.25443
0.229516
0.201838
0.171879
0.1403
0.107782
0.0750557
0.0429041
0.012163
-0.0163178
-0.0417011
-0.0633107
-0.0803543
-0.0922219
-0.0984285
-0.0986258
-0.0926128
-0.0803471
-0.0619484
-0.0377057
-0.00806413
0.0263719
0.064868
0.106587
0.150608
0.195957
0.241642
0.286635
0.329882
0.370373
0.407191
0.439449
0.468791
0.49288
0.511009
0.522679
0.527531
0.52533
0.515946
0.499347
0.475586
0.44481
0.407245
0.363187
0.313005
0.257149
0.19614
0.130565
0.0610636
-0.0116482
-0.0868151
-0.16361
-0.241175
-0.318636
-0.395084
-0.469331
-0.540861
-0.608535
-0.671473
-0.728771
-0.779569
-0.823079
-0.85857
-0.885386
-0.902967
-0.910833
-0.908608
-0.895958
-0.872449
-0.841252
-0.799774
-0.748722
-0.688837
-0.62098
-0.546141
-0.465428
-0.38009
-0.291515
-0.20117
-0.110627
-0.0214739
0.0646353
0.146059
0.221215
0.288585
0.346767
0.394526
0.430851
0.454893
0.465961
0.465305
0.451754
0.425571
0.387471
0.33852
0.280107
0.213875
0.141723
0.0657573
-0.011791
-0.0885638
-0.162221
-0.230486
-0.291206
-0.342457
-0.382615
-0.41036
-0.424818
-0.425331
-0.413754
-0.389162
-0.352957
-0.306925
-0.253215
-0.194278
-0.132797
-0.0715596
-0.0135977
0.0384855
0.082265
0.11572
0.13733
0.146146
0.141681
0.124854
0.0966686
0.0589814
0.014149
-0.0351057
-0.086067
-0.134934
-0.17922
-0.216286
-0.244001
-0.260843
-0.266056
-0.260038
-0.243187
-0.216993
-0.183526
-0.145248
-0.104803
-0.0650533
-0.0285555
0.00237913
0.0258768
0.0406309
0.0459312
0.0417228
0.0285647
0.00747996
-0.020039
-0.0521797
-0.0869346
-0.122245
-0.156111
-0.186741
-0.212606
-0.232529
-0.245726
-0.251824
-0.250853
-0.243197
-0.229571
-0.210943
-0.188465
-0.163381
-0.136882
-0.110536
-0.0853565
-0.0623736
-0.0424262
-0.0261419
-0.01393
-0.00582326
-0.0019028
-0.00190842
-0.00542579
-0.0119122
-0.0207396
-0.0313022
-0.0428366
-0.0547777
-0.0665394
-0.0776356
-0.0876895
-0.0964463
-0.103771
-0.10964
-0.11413
-0.117392
-0.119625
-0.121047
-0.121861
-0.122226
0.531694
0.524019
0.509644
0.485947
0.453164
0.41126
0.359753
0.30232
0.2388
0.170687
0.0997155
0.0278723
-0.0428426
-0.110384
-0.172766
-0.228117
-0.274752
-0.311245
-0.336606
-0.349986
-0.350926
-0.339255
-0.315104
-0.278908
-0.231444
-0.17381
-0.10746
-0.0340621
0.0445355
0.126467
0.209774
0.292525
0.372841
0.449044
0.519846
0.584193
0.640415
0.6883
0.727081
0.756189
0.775206
0.783855
0.781997
0.769616
0.746811
0.713801
0.670912
0.618573
0.557301
0.487706
0.410496
0.326442
0.236402
0.141311
0.0421625
-0.059995
-0.164036
-0.268794
-0.37306
-0.475481
-0.575041
-0.670408
-0.760361
-0.84367
-0.919173
-0.985764
-1.04242
-1.08822
-1.12233
-1.14408
-1.15299
-1.14878
-1.13151
-1.09933
-1.05453
-0.997138
-0.92767
-0.846917
-0.755956
-0.656092
-0.548802
-0.435762
-0.318831
-0.199982
-0.0813025
0.0350806
0.146974
0.252212
0.348743
0.434621
0.508057
0.567417
0.611351
0.638897
0.649481
0.643758
0.621038
0.581819
0.527165
0.458546
0.377863
0.28736
0.189613
0.0874512
-0.0161251
-0.11799
-0.215018
-0.304206
-0.382745
-0.448133
-0.498289
-0.531663
-0.547167
-0.544547
-0.52464
-0.487956
-0.436251
-0.371915
-0.29788
-0.217503
-0.134491
-0.0520286
0.0249349
0.0934944
0.150406
0.19305
0.219554
0.228937
0.220299
0.195234
0.155341
0.103179
0.0419925
-0.0244692
-0.0922973
-0.156947
-0.214836
-0.262565
-0.297473
-0.317761
-0.322583
-0.312464
-0.288378
-0.252457
-0.207537
-0.156935
-0.10416
-0.0529121
-0.00639368
0.0324936
0.0615064
0.079152
0.0847386
0.0783804
0.0609251
0.0338737
-0.000785506
-0.0407067
-0.0833525
-0.126183
-0.166784
-0.203038
-0.233189
-0.255934
-0.270464
-0.27647
-0.27413
-0.264024
-0.247104
-0.224602
-0.197934
-0.168601
-0.138104
-0.108038
-0.0796622
-0.0541109
-0.0322835
-0.014818
-0.00208239
0.00585745
0.009095
0.00797345
0.00301609
-0.00511895
-0.0156899
-0.0279811
-0.0411402
-0.0545258
-0.0674962
-0.0795304
-0.0902405
-0.0993791
-0.106837
-0.112634
-0.116895
-0.119833
-0.121708
-0.122796
-0.123353
-0.123576
0.968972
0.949686
0.910796
0.85226
0.77464
0.679543
0.570087
0.446138
0.313269
0.172193
0.028063
-0.114443
-0.251132
-0.378189
-0.492361
-0.590921
-0.671699
-0.733021
-0.773597
-0.7924
-0.788809
-0.762502
-0.713607
-0.642821
-0.551668
-0.442455
-0.318524
-0.184105
-0.0433216
0.100155
0.242598
0.380237
0.510107
0.630229
0.739827
0.836374
0.920291
0.990283
1.04561
1.08588
1.11093
1.12082
1.11573
1.09598
1.06201
1.01435
0.953636
0.88059
0.796038
0.70088
0.596096
0.48278
0.362092
0.235276
0.103658
-0.0313699
-0.168345
-0.305761
-0.441951
-0.575549
-0.704897
-0.828371
-0.9444
-1.05144
-1.14801
-1.23274
-1.30432
-1.36161
-1.40355
-1.4293
-1.43818
-1.42966
-1.40331
-1.36141
-1.30211
-1.22627
-1.13486
-1.0291
-0.910449
-0.78067
-0.641725
-0.495817
-0.345366
-0.192942
-0.0412407
0.106993
0.248951
0.381882
0.503138
0.610205
0.700805
0.77302
0.825247
0.856235
0.865179
0.852649
0.818283
0.762935
0.688057
0.595621
0.488158
0.368639
0.240442
0.107273
-0.0269595
-0.158207
-0.282454
-0.395846
-0.494807
-0.576199
-0.637454
-0.676608
-0.692578
-0.68499
-0.654668
-0.602965
-0.532242
-0.445681
-0.347172
-0.241112
-0.13228
-0.0256175
0.0738213
0.161531
0.233459
0.286291
0.317695
0.326409
0.312648
0.277373
0.223107
0.153363
0.0725454
-0.0144257
-0.102211
-0.185268
-0.258828
-0.318614
-0.361365
-0.384993
-0.388718
-0.373168
-0.340097
-0.292399
-0.233861
-0.168825
-0.101804
-0.0374149
0.0203429
0.0679655
0.10283
0.123285
0.128701
0.119451
0.0967826
0.0627147
0.0198373
-0.0288993
-0.0803642
-0.131487
-0.179416
-0.221686
-0.25632
-0.281906
-0.297631
-0.303272
-0.299225
-0.286262
-0.265621
-0.238817
-0.207566
-0.173639
-0.138829
-0.104831
-0.073114
-0.0449159
-0.021191
-0.00258414
0.0105712
0.0182519
0.0206726
0.0182883
0.0117433
0.00181993
-0.0106215
-0.02474
-0.0396115
-0.0545012
-0.0687154
-0.0817003
-0.0930579
-0.102552
-0.110105
-0.115779
-0.11976
-0.122322
-0.12379
-0.124503
-0.124773
-0.12484
1.77431
1.74177
1.67664
1.5795
1.45136
1.29304
1.10405
0.886712
0.643396
0.390899
0.134992
-0.117778
-0.361639
-0.590847
-0.800233
-0.984942
-1.14046
-1.26267
-1.34803
-1.39215
-1.39602
-1.35759
-1.27739
-1.15726
-1.00054
-0.811964
-0.598326
-0.370309
-0.134672
0.0995524
0.325355
0.537256
0.732357
0.90853
1.06335
1.19726
1.30909
1.39873
1.46644
1.51263
1.53785
1.54272
1.52795
1.4943
1.44261
1.37378
1.28878
1.18864
1.07448
0.947522
0.809068
0.660497
0.503311
0.339073
0.169446
-0.00383672
-0.178933
-0.353779
-0.526783
-0.695843
-0.858986
-1.01422
-1.15959
-1.2932
-1.41325
-1.51803
-1.60597
-1.67566
-1.72587
-1.75559
-1.76411
-1.75093
-1.71598
-1.65956
-1.58197
-1.484
-1.36683
-1.23196
-1.08131
-0.917108
-0.741849
-0.55834
-0.36966
-0.179055
0.0100878
0.194327
0.370135
0.534032
0.682759
0.813262
0.922754
1.0088
1.06944
1.10331
1.10967
1.0885
1.04008
0.965623
0.867036
0.746886
0.608444
0.455522
0.292432
0.123885
-0.0452027
-0.209681
-0.364542
-0.504982
-0.62657
-0.725437
-0.798439
-0.843288
-0.858724
-0.844524
-0.801622
-0.732074
-0.639
-0.526545
-0.399724
-0.26417
-0.125947
0.00855111
0.133217
0.242313
0.330804
0.394617
0.430939
0.438272
0.417702
0.370017
0.298679
0.208375
0.104782
-0.0057018
-0.116205
-0.219993
-0.310976
-0.383922
-0.434918
-0.461603
-0.463311
-0.440985
-0.397194
-0.335798
-0.261671
-0.180312
-0.0973657
-0.0185125
0.0514116
0.108293
0.149133
0.172166
0.176872
0.163993
0.135233
0.0932115
0.0411919
-0.0172015
-0.0782032
-0.138178
-0.193818
-0.24232
-0.281491
-0.309835
-0.326565
-0.331584
-0.325481
-0.309307
-0.284591
-0.25317
-0.217055
-0.178317
-0.139001
-0.100968
-0.0658595
-0.035014
-0.00943291
0.0102376
0.0237091
0.0310247
0.0325124
0.02875
0.0205121
0.00870949
-0.00567256
-0.0216845
-0.038301
-0.0547119
-0.0701701
-0.0840909
-0.0960686
-0.105882
-0.113485
-0.118991
-0.122645
-0.124788
-0.125811
-0.126119
-0.12608
-0.125979
3.00733
2.94522
2.81923
2.62716
2.36743
2.04079
1.65051
1.20714
0.734266
0.243883
-0.246045
-0.71589
-1.15163
-1.54291
-1.88306
-2.16728
-2.39234
-2.55592
-2.65612
-2.69115
-2.65939
-2.55954
-2.39122
-2.15431
-1.85159
-1.48863
-1.07657
-0.641933
-0.217614
0.175599
0.532461
0.843137
1.11073
1.33878
1.53171
1.69246
1.822
1.92128
1.99157
2.03423
2.05059
2.04192
2.00946
1.95441
1.87796
1.78133
1.66575
1.53254
1.38308
1.21885
1.04142
0.852489
0.653857
0.447412
0.235173
0.019232
-0.198117
-0.414709
-0.628201
-0.836213
-1.03637
-1.22625
-1.40354
-1.56593
-1.71127
-1.8375
-1.94277
-2.02539
-2.08392
-2.1172
-2.12441
-2.10503
-2.05896
-1.98648
-1.88818
-1.76517
-1.61894
-1.4514
-1.26493
-1.06232
-0.846684
-0.621485
-0.390538
-0.157825
0.0724975
0.296189
0.508943
0.706563
0.885081
1.04076
1.17026
1.27074
1.33988
1.37609
1.37844
1.34695
1.28226
1.18597
1.06053
0.909184
0.736045
0.545868
0.344016
0.136305
-0.0711711
-0.272137
-0.460442
-0.630246
-0.776182
-0.893599
-0.978754
-1.02899
-1.04289
-1.02041
-0.9628
-0.872768
-0.754322
-0.612687
-0.454168
-0.285789
-0.114989
0.050266
0.202543
0.334852
0.441097
0.516443
0.557618
0.563155
0.533729
0.471441
0.380534
0.266928
0.137834
0.00112151
-0.134462
-0.260899
-0.370686
-0.457566
-0.51697
-0.546269
-0.544958
-0.514527
-0.458404
-0.381579
-0.290153
-0.190911
-0.0906576
0.00364208
0.0863651
0.152776
0.199537
0.224802
0.228204
0.211015
0.175377
0.124613
0.0627161
-0.00596758
-0.0770035
-0.146181
-0.209734
-0.264526
-0.308172
-0.339114
-0.356621
-0.360772
-0.352301
-0.332627
-0.303585
-0.267329
-0.226189
-0.182515
-0.138619
-0.0965364
-0.0580626
-0.024628
0.0027263
0.023363
0.0370444
0.0438942
0.0443557
0.0391321
0.0291359
0.0154068
-0.000944335
-0.0188713
-0.0372274
-0.0551449
-0.0718211
-0.0866439
-0.0992024
-0.109292
-0.116904
-0.122201
-0.125491
-0.127181
-0.127733
-0.127615
-0.127253
-0.126976
4.88751
4.80271
4.6309
4.36723
4.00522
3.53688
2.95215
2.25504
1.37524
0.506212
-0.268746
-0.971885
-1.59775
-2.14314
-2.60978
-2.99735
-3.30535
-3.53235
-3.67636
-3.73443
-3.70331
-3.5793
-3.35879
-3.03503
-2.60561
-2.06882
-1.38155
-0.666934
-0.0453834
0.47526
0.920372
1.30713
1.63668
1.91436
2.14163
2.3207
2.45509
2.55023
2.60999
2.63725
2.63427
2.60295
2.54486
2.46142
2.35396
2.22386
2.07249
1.90135
1.712
1.50614
1.2856
1.05231
0.808392
0.556055
0.297655
0.0356525
-0.227287
-0.48857
-0.745413
-0.995021
-1.23459
-1.46128
-1.67236
-1.8651
-2.03696
-2.18556
-2.3087
-2.40444
-2.47111
-2.50738
-2.51232
-2.48539
-2.4265
-2.33604
-2.21483
-2.06424
-1.88617
-1.68296
-1.45752
-1.21325
-0.95391
-0.683711
-0.407235
-0.12928
0.145165
0.411025
0.663163
0.896566
1.10652
1.28864
1.43897
1.55415
1.63154
1.66932
1.66654
1.62317
1.54022
1.41972
1.26472
1.07925
0.868314
0.637713
0.393946
0.144032
-0.104668
-0.344671
-0.568599
-0.769501
-0.941021
-1.07768
-1.17512
-1.2303
-1.24169
-1.2094
-1.13512
-1.02228
-0.875858
-0.70228
-0.509252
-0.305297
-0.0993304
0.098948
0.280694
0.437594
0.56243
0.649556
0.695239
0.697906
0.65835
0.579605
0.466972
0.327761
0.170787
0.00571213
-0.156869
-0.307445
-0.437026
-0.538299
-0.606033
-0.637392
-0.632092
-0.5923
-0.522423
-0.428687
-0.318581
-0.200263
-0.0816756
0.0287211
0.124584
0.200583
0.253063
0.280151
0.281655
0.259554
0.216372
0.156247
0.0839391
0.00454664
-0.0768135
-0.155354
-0.226854
-0.287866
-0.335837
-0.369164
-0.387202
-0.390203
-0.379159
-0.355785
-0.322249
-0.281043
-0.234809
-0.186185
-0.137723
-0.0916481
-0.0498926
-0.0139703
0.0150484
0.036543
0.050332
0.0566295
0.0559949
0.0492612
0.0374764
0.0218098
0.00349032
-0.0163192
-0.0363886
-0.055773
-0.0736228
-0.089301
-0.102394
-0.112717
-0.120298
-0.125353
-0.128251
-0.129468
-0.129533
-0.128977
-0.128283
-0.127827
7.44759
7.34885
7.14275
6.80948
6.31802
5.62181
4.63216
3.1763
1.41823
-0.118761
-1.37672
-2.44252
-3.34336
-4.09748
-4.71826
-5.21478
-5.59346
-5.85824
-6.01058
-6.04925
-5.96941
-5.76436
-5.42447
-4.93359
-4.26965
-3.41071
-2.24251
-0.755947
0.406984
1.17358
1.74578
2.17701
2.50564
2.75729
2.9489
3.09229
3.19582
3.26274
3.29535
3.29538
3.26425
3.20329
3.11375
2.9969
2.85403
2.6865
2.49575
2.28335
2.05101
1.80059
1.53412
1.2538
0.962011
0.661289
0.354346
0.0440074
-0.266705
-0.574699
-0.876783
-1.16973
-1.45028
-1.71517
-1.96118
-2.18521
-2.3843
-2.5557
-2.69691
-2.80568
-2.88012
-2.91874
-2.9205
-2.88484
-2.81173
-2.70167
-2.5557
-2.37552
-2.16342
-1.92221
-1.65538
-1.36696
-1.06144
-0.743766
-0.41936
-0.093922
0.226775
0.536722
0.829908
1.10049
1.34297
1.55225
1.72379
1.85371
1.93901
1.97765
1.96861
1.912
1.8091
1.66246
1.47576
1.25386
1.00274
0.729318
0.441277
0.146923
-0.14507
-0.425913
-0.686961
-0.920099
-1.11794
-1.27416
-1.38379
-1.44338
-1.45132
-1.40788
-1.31528
-1.17773
-1.00125
-0.793575
-0.563877
-0.322276
-0.0792057
0.153709
0.366206
0.548591
0.692497
0.791418
0.841144
0.840006
0.789139
0.692406
0.556284
0.389615
0.202972
0.00788233
-0.18309
-0.358817
-0.508796
-0.624623
-0.700431
-0.733225
-0.723031
-0.672774
-0.58796
-0.476158
-0.346344
-0.208172
-0.0705134
0.0562662
0.165352
0.250805
0.308688
0.337186
0.336611
0.308714
0.257454
0.187532
0.104487
0.0141734
-0.0776097
-0.165499
-0.244843
-0.311903
-0.363978
-0.399452
-0.417786
-0.419419
-0.405625
-0.378422
-0.340316
-0.294129
-0.242821
-0.18931
-0.136373
-0.0864234
-0.0415147
-0.00323468
0.0273239
0.0495652
0.0633695
0.0690457
0.06727
0.059007
0.0454345
0.0278517
0.00760624
-0.0140467
-0.03577
-0.0565624
-0.0755282
-0.0920073
-0.105586
-0.116101
-0.123617
-0.128405
-0.130894
-0.131626
-0.131197
-0.1302
-0.129174
-0.128538
10.2104
10.1354
9.98924
9.75956
9.46535
9.0884
8.71337
8.16682
2.00913
2.3552
2.6343
2.92313
3.19287
3.43205
3.63
3.78638
3.89898
3.97261
4.00921
4.01086
3.97925
3.91571
3.82128
3.69703
3.54398
3.36327
3.15616
2.92408
2.66862
2.39159
2.09499
1.78105
1.45221
1.11112
0.760632
0.403815
0.0438856
-0.315761
-0.671558
-1.01988
-1.35706
-1.67939
-1.9831
-2.26457
-2.52024
-2.74676
-2.94101
-3.10015
-3.22166
-3.30341
-3.34372
-3.34149
-3.29613
-3.20767
-3.07676
-2.90466
-2.69342
-2.44573
-2.16492
-1.85504
-1.52083
-1.16747
-0.800751
-0.42692
-0.0525332
0.315671
0.670813
1.00598
1.31446
1.58998
1.82671
2.01947
2.16392
2.25666
2.29544
2.27923
2.20825
2.08413
1.90989
1.68996
1.43001
1.13708
0.819214
0.485362
0.145139
-0.191415
-0.51416
-0.813156
-1.0791
-1.30355
-1.47933
-1.60083
-1.66425
-1.66788
-1.61219
-1.49999
-1.3363
-1.12826
-0.884976
-0.617154
-0.336544
-0.0550861
0.213417
0.457382
0.665692
0.828805
0.939343
0.992619
0.986893
0.923704
0.807766
0.646859
0.451394
0.23384
0.00762138
-0.212605
-0.414037
-0.584648
-0.714931
-0.79842
-0.831997
-0.816104
-0.754484
-0.653832
-0.523149
-0.372956
-0.214667
-0.0572749
0.0857291
0.207903
0.302522
0.36541
0.394839
0.391429
0.357614
0.297955
0.217996
0.124079
0.022818
-0.0793128
-0.176394
-0.263365
-0.33622
-0.392136
-0.429508
-0.447916
-0.448011
-0.43135
-0.400258
-0.357581
-0.306466
-0.25018
-0.191908
-0.134646
-0.0809822
-0.0330799
0.00740831
0.0393759
0.0622555
0.0759961
0.0810004
0.0780628
0.0682756
0.0529444
0.0334932
0.0113829
-0.012042
-0.0353475
-0.0574768
-0.0774923
-0.0947138
-0.10873
-0.119398
-0.126822
-0.131324
-0.133396
-0.133642
-0.132721
-0.131288
-0.129934
-0.12912
13.2512
13.2216
13.1714
13.0918
12.9932
12.9057
12.8191
12.7341
3.97695
4.04477
4.18201
4.29156
4.41122
4.52067
4.61477
4.6911
4.7448
4.77092
4.76699
4.73205
4.66562
4.56767
4.4385
4.27855
4.08852
3.8693
3.62203
3.34808
3.04906
2.72687
2.38363
2.02177
1.64397
1.25316
0.852536
0.445492
0.0356107
-0.373239
-0.777084
-1.17184
-1.5534
-1.91756
-2.26012
-2.57698
-2.86414
-3.11787
-3.33467
-3.51136
-3.64514
-3.73364
-3.77503
-3.76808
-3.7123
-3.60768
-3.45505
-3.25594
-3.01274
-2.72856
-2.40723
-2.05343
-1.67256
-1.27057
-0.854042
-0.43011
-0.00620637
0.40999
0.810693
1.18808
1.53458
1.84312
2.10714
2.32086
2.47941
2.57905
2.6173
2.5932
2.50704
2.36079
2.15805
1.90393
1.60501
1.26937
0.906229
0.525819
0.139085
-0.242546
-0.607559
-0.944709
-1.24349
-1.49442
-1.68946
-1.82239
-1.88903
-1.88762
-1.81887
-1.68617
-1.4954
-1.25487
-0.975089
-0.668365
-0.34829
-0.0274498
0.276807
0.55243
0.786696
0.968862
1.09068
1.147
1.13604
1.05976
0.923796
0.737219
0.512159
0.262955
0.00509401
-0.244775
-0.472053
-0.663188
-0.807615
-0.898287
-0.932025
-0.909751
-0.836099
-0.719009
-0.568948
-0.398015
-0.21891
-0.0431052
0.116483
0.251471
0.354855
0.422304
0.452226
0.445609
0.405574
0.337339
0.247272
0.142518
0.0304492
-0.0818098
-0.187806
-0.282096
-0.360439
-0.419908
-0.458931
-0.477221
-0.475651
-0.456061
-0.421089
-0.373907
-0.31798
-0.256869
-0.194019
-0.132624
-0.0754372
-0.0247214
0.0178156
0.0510605
0.0744787
0.0880886
0.09239
0.0882895
0.0770062
0.0599673
0.0387162
0.0148186
-0.0102881
-0.0350937
-0.0584806
-0.0794747
-0.0973785
-0.111784
-0.122571
-0.129883
-0.13409
-0.135743
-0.135509
-0.134107
-0.132247
-0.130573
-0.129586
16.0629
16.0449
16.0207
15.9732
15.9106
15.8488
15.7887
15.7095
5.02679
5.08776
5.19104
5.28105
5.37097
5.44904
5.50609
5.54263
5.55617
5.54433
5.50464
5.43547
5.33559
5.20425
5.04113
4.84622
4.6199
4.3628
4.07596
3.76068
3.41861
3.05172
2.66231
2.25298
1.82666
1.38658
0.936247
0.479416
0.0200581
-0.437522
-0.888926
-1.32962
-1.75502
-2.16049
-2.54133
-2.89302
-3.21112
-3.49148
-3.73023
-3.92388
-4.06934
-4.16403
-4.20595
-4.19383
-4.127
-4.00569
-3.8309
-3.60436
-3.32883
-3.00786
-2.64578
-2.24788
-1.82025
-1.36958
-0.903279
-0.429349
0.0438913
0.507833
0.953784
1.37302
1.75711
2.09818
2.38898
2.6231
2.79521
2.90117
2.93828
2.90579
2.80391
2.63505
2.40337
2.11471
1.77652
1.39798
0.989462
0.562475
0.129308
-0.297224
-0.704239
-1.07919
-1.41039
-1.68731
-1.90107
-2.04486
-2.11414
-2.10711
-2.02474
-1.87102
-1.65272
-1.37933
-1.06275
-0.716921
-0.357049
0.00238867
0.342521
0.649591
0.909487
1.11029
1.24293
1.30181
1.28511
1.19524
1.03876
0.826115
0.571126
0.290115
0.000480492
-0.278911
-0.531785
-0.743057
-0.901135
-0.998434
-1.03176
-1.00258
-0.91645
-0.782607
-0.613014
-0.421363
-0.221751
-0.0275897
0.148017
0.295343
0.407
0.478549
0.508572
0.498465
0.452033
0.37518
0.275085
0.159688
0.0370878
-0.0849627
-0.199505
-0.300744
-0.384229
-0.446954
-0.487393
-0.505406
-0.502085
-0.479558
-0.440768
-0.389203
-0.328635
-0.262902
-0.195692
-0.130387
-0.0698894
-0.0165517
0.0278714
0.0622652
0.086132
0.0995585
0.103142
0.0978963
0.0851625
0.066485
0.0435184
0.0179305
-0.00877224
-0.0349803
-0.0595407
-0.0814405
-0.0999675
-0.114719
-0.125595
-0.132779
-0.136688
-0.137929
-0.137228
-0.135359
-0.133088
-0.131106
-0.129953
18.607
18.5912
18.5843
18.5541
18.5216
18.4873
18.4575
18.4248
6.14308
6.14072
6.19209
6.23167
6.27478
6.31094
6.3326
6.33641
6.31841
6.2758
6.2059
6.10673
5.97666
5.81456
5.61967
5.39168
5.1307
4.83723
4.51218
4.15686
3.77296
3.36256
2.92812
2.47246
1.99875
1.51053
1.01161
0.506097
-0.00161893
-0.50682
-1.00468
-1.49022
-1.95841
-2.40414
-2.82226
-3.20781
-3.55591
-3.86203
-4.12193
-4.33179
-4.48826
-4.58855
-4.63053
-4.61278
-4.53461
-4.39643
-4.19937
-3.94545
-3.63774
-3.28023
-2.87776
-2.43622
-1.96237
-1.46367
-0.948309
-0.425166
0.0965681
0.607378
1.09768
1.55786
1.97864
2.35139
2.66814
2.92191
3.1069
3.21865
3.25401
3.21288
3.09502
2.90343
2.64284
2.31979
1.94265
1.52162
1.06826
0.595332
0.116441
-0.354211
-0.802415
-1.21434
-1.57713
-1.87925
-2.11102
-2.26501
-2.3364
-2.32333
-2.22704
-2.05215
-1.80631
-1.50019
-1.14708
-0.762491
-0.363184
0.0338456
0.409359
0.747233
1.03211
1.25094
1.39387
1.45486
1.43204
1.32832
1.15121
0.91248
0.627692
0.315111
-0.00585885
-0.314308
-0.592204
-0.822995
-0.994099
-1.09744
-1.12986
-1.09339
-0.994554
-0.843923
-0.654949
-0.442874
-0.223285
-0.0111468
0.179809
0.338873
0.458254
0.533448
0.563232
0.54944
0.496548
0.411164
0.301255
0.17553
0.0427874
-0.0886261
-0.211278
-0.319056
-0.407317
-0.473002
-0.514639
-0.532246
-0.527131
-0.501706
-0.459207
-0.403427
-0.338427
-0.268308
-0.196983
-0.12801
-0.0644249
-0.00866141
0.0374867
0.0729082
0.0971437
0.110348
0.113211
0.106854
0.0927295
0.0724949
0.0479071
0.0207284
-0.00746323
-0.0349799
-0.060628
-0.083361
-0.102454
-0.11751
-0.128451
-0.135497
-0.139109
-0.139951
-0.138799
-0.136485
-0.133822
-0.131546
-0.130234
20.8878
20.8813
20.873
20.8563
20.8389
20.8199
20.8047
20.7898
7.03911
7.02499
7.05668
7.07336
7.08875
7.09725
7.09221
7.07013
7.0268
6.95902
6.86381
6.73883
6.58213
6.3923
6.16832
5.90963
5.61615
5.28826
4.92685
4.53325
4.10924
3.65701
3.17921
2.67887
2.15943
1.62471
1.07885
0.526294
-0.0281433
-0.579347
-1.12208
-1.65092
-2.16039
-2.64495
-3.09898
-3.51708
-3.89398
-4.22476
-4.50483
-4.73004
-4.89681
-5.00214
-5.04376
-5.02009
-4.9305
-4.7755
-4.55643
-4.27553
-3.93621
-3.5429
-3.10092
-2.61674
-2.09779
-1.55226
-0.989142
-0.418143
0.150694
0.706967
1.24023
1.74001
2.19622
2.59946
2.94111
3.21361
3.41073
3.52781
3.56217
3.51111
3.37715
3.16306
2.87399
2.51719
2.10188
1.63932
1.1422
0.624518
0.101145
-0.412348
-0.900471
-1.34815
-1.74139
-2.06768
-2.31659
-2.48012
-2.55313
-2.53376
-2.42348
-2.22756
-1.95456
-1.61628
-1.22738
-0.804932
-0.367279
0.0664864
0.476236
0.843921
1.15288
1.38896
1.54157
1.60425
1.5751
1.45753
1.25993
0.995483
0.681419
0.337916
-0.0136143
-0.350301
-0.652382
-0.901889
-1.08529
-1.19409
-1.22522
-1.1812
-1.06964
-0.902423
-0.694464
-0.46252
-0.223651
0.00582805
0.211379
0.381502
0.508031
0.586433
0.615694
0.598103
0.538794
0.445078
0.325677
0.190039
0.0476248
-0.0926598
-0.222942
-0.33682
-0.429487
-0.497845
-0.540485
-0.557588
-0.550671
-0.522422
-0.476361
-0.416566
-0.347373
-0.273126
-0.197948
-0.125558
-0.0591143
-0.00111992
0.0465976
0.0829338
0.107469
0.120424
0.122579
0.115153
0.099708
0.0780064
0.0518985
0.0232339
-0.00633824
-0.0350677
-0.0617182
-0.0852135
-0.104818
-0.120142
-0.131128
-0.138029
-0.141353
-0.14181
-0.140231
-0.137495
-0.13446
-0.131907
-0.130445
22.9222
22.9183