/*--------------------------------*- C++ -*----------------------------------*\
  =========                 |
  \\      /  F ield         | OpenFOAM: The Open Source CFD Toolbox
   \\    /   O peration     | Website:  https://openfoam.org
    \\  /    A nd           | Version:  12
     \\/     M anipulation  |
\*---------------------------------------------------------------------------*/
FoamFile
{
    format      ascii;
    class       volScalarField;
    location    "7.08";
    object      p;
}
// * * * * * * * * * * * * * * * * * * * * * * * * * * * * * * * * * * * * * //

dimensions      [1 -1 -2 0 0 0 0];

internalField   nonuniform List<scalar> 
3829
(
-617.667
-617.666
-617.664
-617.66
-617.656
-617.65
-617.642
-617.633
-617.623
-617.611
-617.597
-617.581
-617.564
-617.544
-617.522
-617.498
-617.471
-617.442
-617.411
-617.376
-617.339
-617.299
-617.256
-617.21
-617.162
-617.11
-617.056
-616.998
-616.939
-616.876
-616.811
-616.744
-616.675
-616.604
-616.532
-616.457
-616.382
-616.306
-616.228
-616.151
-616.073
-615.995
-615.918
-615.841
-615.765
-615.69
-615.617
-615.546
-615.477
-615.41
-615.345
-615.284
-615.225
-615.171
-615.12
-615.073
-615.031
-614.992
-614.957
-614.925
-614.898
-614.875
-614.855
-614.839
-614.826
-614.816
-614.809
-614.805
-614.804
-614.804
-614.806
-614.809
-614.813
-614.817
-614.821
-614.825
-614.827
-614.829
-614.828
-614.825
-614.82
-614.812
-614.801
-614.787
-614.77
-614.749
-614.725
-614.698
-614.668
-614.636
-614.602
-614.565
-614.528
-614.49
-614.452
-614.414
-614.378
-614.343
-614.311
-614.282
-614.257
-614.236
-614.219
-614.207
-614.2
-614.198
-614.2
-614.207
-614.219
-614.234
-614.252
-614.272
-614.293
-614.316
-614.338
-614.358
-614.377
-614.393
-614.405
-614.414
-614.419
-614.419
-614.415
-614.408
-614.397
-614.383
-614.368
-614.352
-614.336
-614.32
-614.307
-614.296
-614.289
-614.286
-614.286
-614.291
-614.299
-614.311
-614.325
-614.341
-614.358
-614.373
-614.388
-614.4
-614.409
-614.415
-614.416
-614.412
-614.405
-614.395
-614.382
-614.367
-614.352
-614.338
-614.324
-614.313
-614.305
-614.301
-614.3
-614.303
-614.309
-614.319
-614.331
-614.345
-614.359
-614.372
-614.385
-614.395
-614.403
-614.407
-614.407
-614.404
-614.396
-614.386
-614.372
-614.357
-614.339
-614.322
-614.304
-614.287
-614.272
-614.26
-614.25
-614.244
-614.241
-614.242
-614.246
-614.254
-614.265
-614.278
-614.293
-614.31
-614.326
-614.343
-614.359
-614.374
-614.387
-614.397
-614.404
-614.407
-1776.14
-1776.14
-1776.14
-1776.14
-1776.13
-1776.13
-1776.12
-1776.11
-1776.1
-1776.09
-1776.08
-1776.06
-1776.05
-1776.03
-1776.01
-1775.98
-1775.95
-1775.92
-1775.89
-1775.85
-1775.81
-1775.77
-1775.73
-1775.68
-1775.63
-1775.57
-1775.51
-1775.45
-1775.38
-1775.31
-1775.24
-1775.17
-1775.09
-1775.01
-1774.93
-1774.84
-1774.76
-1774.67
-1774.58
-1774.5
-1774.41
-1774.32
-1774.24
-1774.15
-1774.07
-1773.99
-1773.91
-1773.83
-1773.76
-1773.68
-1773.62
-1773.55
-1773.49
-1773.43
-1773.38
-1773.34
-1773.3
-1773.26
-1773.23
-1773.2
-1773.18
-1773.16
-1773.14
-1773.13
-1773.13
-1773.12
-1773.12
-1773.13
-1773.13
-1773.14
-1773.15
-1773.16
-1773.18
-1773.19
-1773.2
-1773.21
-1773.22
-1773.22
-1773.23
-1773.23
-1773.23
-1773.22
-1773.21
-1773.2
-1773.18
-1773.15
-1773.13
-1773.1
-1773.06
-1773.03
-1772.99
-1772.94
-1772.9
-1772.86
-1772.81
-1772.77
-1772.73
-1772.69
-1772.65
-1772.62
-1772.59
-1772.57
-1772.55
-1772.54
-1772.53
-1772.53
-1772.54
-1772.55
-1772.56
-1772.58
-1772.61
-1772.63
-1772.66
-1772.69
-1772.72
-1772.74
-1772.76
-1772.78
-1772.8
-1772.81
-1772.81
-1772.81
-1772.8
-1772.79
-1772.78
-1772.76
-1772.74
-1772.72
-1772.7
-1772.68
-1772.66
-1772.65
-1772.64
-1772.64
-1772.64
-1772.65
-1772.66
-1772.67
-1772.69
-1772.71
-1772.73
-1772.75
-1772.77
-1772.78
-1772.79
-1772.8
-1772.8
-1772.79
-1772.78
-1772.77
-1772.76
-1772.74
-1772.72
-1772.7
-1772.69
-1772.68
-1772.67
-1772.66
-1772.66
-1772.66
-1772.67
-1772.68
-1772.7
-1772.71
-1772.73
-1772.74
-1772.76
-1772.77
-1772.78
-1772.78
-1772.78
-1772.78
-1772.77
-1772.76
-1772.75
-1772.73
-1772.71
-1772.69
-1772.67
-1772.65
-1772.64
-1772.63
-1772.62
-1772.61
-1772.61
-1772.61
-1772.61
-1772.62
-1772.63
-1772.65
-1772.66
-1772.68
-1772.7
-1772.71
-1772.73
-1772.75
-1772.76
-1772.77
-1772.78
-1772.78
-2802.48
-2802.48
-2802.48
-2802.48
-2802.47
-2802.47
-2802.47
-2802.47
-2802.47
-2802.47
-2802.46
-2802.46
-2802.45
-2802.44
-2802.42
-2802.4
-2802.38
-2802.34
-2802.3
-2802.27
-2802.22
-2802.18
-2802.13
-2802.07
-2802.02
-2801.95
-2801.88
-2801.8
-2801.71
-2801.62
-2801.53
-2801.44
-2801.34
-2801.24
-2801.14
-2801.03
-2800.93
-2800.82
-2800.72
-2800.61
-2800.51
-2800.4
-2800.3
-2800.2
-2800.1
-2800.01
-2799.92
-2799.83
-2799.75
-2799.67
-2799.6
-2799.53
-2799.47
-2799.41
-2799.35
-2799.31
-2799.27
-2799.23
-2799.21
-2799.19
-2799.17
-2799.16
-2799.16
-2799.16
-2799.17
-2799.18
-2799.19
-2799.21
-2799.23
-2799.25
-2799.28
-2799.3
-2799.33
-2799.35
-2799.38
-2799.4
-2799.42
-2799.44
-2799.45
-2799.46
-2799.46
-2799.46
-2799.45
-2799.43
-2799.41
-2799.39
-2799.35
-2799.32
-2799.27
-2799.23
-2799.18
-2799.12
-2799.07
-2799.01
-2798.95
-2798.9
-2798.85
-2798.8
-2798.75
-2798.71
-2798.68
-2798.65
-2798.63
-2798.62
-2798.62
-2798.62
-2798.63
-2798.65
-2798.68
-2798.71
-2798.74
-2798.78
-2798.82
-2798.86
-2798.89
-2798.93
-2798.96
-2798.98
-2799
-2799.01
-2799.01
-2799.01
-2799
-2798.98
-2798.96
-2798.94
-2798.91
-2798.88
-2798.85
-2798.82
-2798.8
-2798.78
-2798.77
-2798.77
-2798.77
-2798.78
-2798.8
-2798.82
-2798.84
-2798.87
-2798.89
-2798.92
-2798.94
-2798.96
-2798.97
-2798.98
-2798.98
-2798.97
-2798.96
-2798.94
-2798.92
-2798.9
-2798.88
-2798.86
-2798.84
-2798.82
-2798.81
-2798.81
-2798.81
-2798.81
-2798.82
-2798.84
-2798.85
-2798.87
-2798.89
-2798.91
-2798.93
-2798.94
-2798.95
-2798.96
-2798.96
-2798.95
-2798.94
-2798.93
-2798.91
-2798.89
-2798.87
-2798.85
-2798.83
-2798.81
-2798.79
-2798.78
-2798.77
-2798.76
-2798.76
-2798.76
-2798.77
-2798.77
-2798.79
-2798.8
-2798.82
-2798.84
-2798.86
-2798.88
-2798.89
-2798.91
-2798.92
-2798.93
-2798.94
-2798.95
-3711.67
-3711.67
-3711.67
-3711.67
-3711.67
-3711.68
-3711.68
-3711.68
-3711.68
-3711.68
-3711.68
-3711.67
-3711.67
-3711.66
-3711.65
-3711.65
-3711.64
-3711.63
-3711.6
-3711.57
-3711.53
-3711.48
-3711.43
-3711.36
-3711.28
-3711.19
-3711.11
-3711.01
-3710.92
-3710.81
-3710.71
-3710.59
-3710.47
-3710.35
-3710.22
-3710.09
-3709.96
-3709.83
-3709.7
-3709.57
-3709.44
-3709.31
-3709.18
-3709.06
-3708.95
-3708.83
-3708.73
-3708.63
-3708.53
-3708.44
-3708.36
-3708.29
-3708.22
-3708.16
-3708.11
-3708.07
-3708.04
-3708.01
-3707.99
-3707.98
-3707.98
-3707.99
-3708
-3708.02
-3708.04
-3708.07
-3708.11
-3708.15
-3708.19
-3708.23
-3708.28
-3708.32
-3708.37
-3708.41
-3708.46
-3708.5
-3708.53
-3708.56
-3708.58
-3708.6
-3708.61
-3708.61
-3708.6
-3708.59
-3708.56
-3708.53
-3708.49
-3708.44
-3708.38
-3708.32
-3708.26
-3708.19
-3708.11
-3708.04
-3707.97
-3707.9
-3707.83
-3707.76
-3707.71
-3707.66
-3707.61
-3707.58
-3707.56
-3707.55
-3707.55
-3707.56
-3707.58
-3707.61
-3707.65
-3707.7
-3707.75
-3707.8
-3707.85
-3707.91
-3707.96
-3708.01
-3708.05
-3708.08
-3708.1
-3708.11
-3708.12
-3708.11
-3708.09
-3708.07
-3708.03
-3708
-3707.96
-3707.91
-3707.87
-3707.84
-3707.81
-3707.78
-3707.77
-3707.76
-3707.77
-3707.78
-3707.8
-3707.83
-3707.87
-3707.9
-3707.94
-3707.97
-3708
-3708.03
-3708.04
-3708.05
-3708.05
-3708.04
-3708.02
-3708
-3707.97
-3707.94
-3707.91
-3707.88
-3707.86
-3707.84
-3707.83
-3707.82
-3707.82
-3707.83
-3707.84
-3707.86
-3707.88
-3707.91
-3707.93
-3707.96
-3707.98
-3707.99
-3708
-3708.01
-3708.01
-3708
-3707.99
-3707.98
-3707.96
-3707.94
-3707.91
-3707.89
-3707.86
-3707.84
-3707.82
-3707.81
-3707.8
-3707.79
-3707.79
-3707.79
-3707.8
-3707.81
-3707.82
-3707.84
-3707.86
-3707.88
-3707.9
-3707.92
-3707.94
-3707.95
-3707.97
-3707.98
-3707.99
-3707.99
-4517.14
-4517.15
-4517.16
-4517.17
-4517.2
-4517.23
-4517.26
-4517.3
-4517.34
-4517.37
-4517.41
-4517.44
-4517.46
-4517.48
-4517.49
-4517.49
-4517.49
-4517.47
-4517.45
-4517.42
-4517.38
-4517.32
-4517.25
-4517.17
-4517.07
-4516.97
-4516.85
-4516.73
-4516.59
-4516.44
-4516.28
-4516.11
-4515.94
-4515.77
-4515.59
-4515.42
-4515.25
-4515.07
-4514.9
-4514.73
-4514.57
-4514.41
-4514.26
-4514.11
-4513.97
-4513.84
-4513.71
-4513.59
-4513.49
-4513.39
-4513.3
-4513.22
-4513.15
-4513.09
-4513.04
-4513.01
-4512.98
-4512.97
-4512.96
-4512.97
-4512.98
-4513.01
-4513.04
-4513.08
-4513.13
-4513.19
-4513.25
-4513.32
-4513.39
-4513.46
-4513.53
-4513.61
-4513.68
-4513.75
-4513.81
-4513.87
-4513.92
-4513.97
-4514
-4514.03
-4514.04
-4514.05
-4514.04
-4514.02
-4513.99
-4513.95
-4513.9
-4513.84
-4513.77
-4513.69
-4513.6
-4513.51
-4513.41
-4513.31
-4513.22
-4513.13
-4513.04
-4512.96
-4512.88
-4512.82
-4512.77
-4512.73
-4512.71
-4512.7
-4512.71
-4512.73
-4512.76
-4512.8
-4512.86
-4512.92
-4513
-4513.07
-4513.15
-4513.22
-4513.29
-4513.35
-4513.4
-4513.45
-4513.47
-4513.49
-4513.49
-4513.48
-4513.45
-4513.41
-4513.36
-4513.31
-4513.25
-4513.19
-4513.14
-4513.09
-4513.05
-4513.01
-4513
-4512.99
-4513
-4513.02
-4513.05
-4513.09
-4513.14
-4513.19
-4513.24
-4513.28
-4513.32
-4513.35
-4513.37
-4513.38
-4513.38
-4513.36
-4513.34
-4513.31
-4513.27
-4513.23
-4513.19
-4513.16
-4513.13
-4513.1
-4513.09
-4513.08
-4513.08
-4513.1
-4513.11
-4513.14
-4513.17
-4513.2
-4513.23
-4513.25
-4513.28
-4513.3
-4513.31
-4513.32
-4513.32
-4513.31
-4513.3
-4513.28
-4513.25
-4513.23
-4513.2
-4513.17
-4513.15
-4513.12
-4513.1
-4513.08
-4513.07
-4513.06
-4513.06
-4513.07
-4513.07
-4513.09
-4513.1
-4513.12
-4513.14
-4513.16
-4513.19
-4513.21
-4513.23
-4513.25
-4513.26
-4513.28
-4513.28
-4513.29
-5230.41
-5230.42
-5230.44
-5230.48
-5230.52
-5230.58
-5230.65
-5230.72
-5230.8
-5230.89
-5230.97
-5231.07
-5231.16
-5231.24
-5231.31
-5231.37
-5231.41
-5231.43
-5231.44
-5231.42
-5231.38
-5231.32
-5231.24
-5231.14
-5231.01
-5230.86
-5230.69
-5230.5
-5230.3
-5230.09
-5229.88
-5229.67
-5229.45
-5229.23
-5229.01
-5228.79
-5228.56
-5228.35
-5228.13
-5227.92
-5227.72
-5227.53
-5227.34
-5227.17
-5227
-5226.85
-5226.7
-5226.57
-5226.45
-5226.34
-5226.24
-5226.16
-5226.09
-5226.04
-5226
-5225.97
-5225.96
-5225.95
-5225.97
-5225.99
-5226.03
-5226.08
-5226.14
-5226.21
-5226.29
-5226.38
-5226.47
-5226.57
-5226.68
-5226.78
-5226.89
-5226.99
-5227.09
-5227.19
-5227.28
-5227.37
-5227.44
-5227.51
-5227.56
-5227.6
-5227.62
-5227.63
-5227.62
-5227.6
-5227.56
-5227.5
-5227.44
-5227.35
-5227.26
-5227.16
-5227.04
-5226.92
-5226.8
-5226.67
-5226.55
-5226.43
-5226.32
-5226.21
-5226.12
-5226.04
-5225.98
-5225.94
-5225.92
-5225.91
-5225.92
-5225.95
-5226
-5226.07
-5226.15
-5226.23
-5226.33
-5226.43
-5226.53
-5226.63
-5226.72
-5226.8
-5226.87
-5226.92
-5226.96
-5226.97
-5226.97
-5226.95
-5226.91
-5226.86
-5226.79
-5226.72
-5226.64
-5226.56
-5226.49
-5226.42
-5226.36
-5226.32
-5226.3
-5226.29
-5226.31
-5226.34
-5226.38
-5226.44
-5226.5
-5226.56
-5226.63
-5226.69
-5226.74
-5226.78
-5226.8
-5226.81
-5226.81
-5226.79
-5226.75
-5226.71
-5226.66
-5226.61
-5226.56
-5226.52
-5226.48
-5226.45
-5226.43
-5226.43
-5226.43
-5226.45
-5226.47
-5226.5
-5226.54
-5226.57
-5226.61
-5226.64
-5226.67
-5226.69
-5226.71
-5226.72
-5226.72
-5226.71
-5226.69
-5226.67
-5226.64
-5226.61
-5226.58
-5226.55
-5226.52
-5226.49
-5226.47
-5226.45
-5226.44
-5226.43
-5226.43
-5226.43
-5226.44
-5226.46
-5226.47
-5226.49
-5226.52
-5226.54
-5226.57
-5226.59
-5226.61
-5226.63
-5226.65
-5226.66
-5226.67
-5226.68
-5862.1
-5862.13
-5862.18
-5862.26
-5862.37
-5862.5
-5862.65
-5862.82
-5863
-5863.19
-5863.39
-5863.57
-5863.75
-5863.92
-5864.07
-5864.19
-5864.29
-5864.36
-5864.4
-5864.4
-5864.37
-5864.29
-5864.18
-5864.03
-5863.85
-5863.64
-5863.39
-5863.13
-5862.86
-5862.56
-5862.24
-5861.93
-5861.61
-5861.3
-5861
-5860.7
-5860.42
-5860.14
-5859.88
-5859.62
-5859.38
-5859.15
-5858.93
-5858.72
-5858.53
-5858.36
-5858.2
-5858.05
-5857.92
-5857.8
-5857.7
-5857.62
-5857.56
-5857.51
-5857.47
-5857.46
-5857.46
-5857.47
-5857.51
-5857.56
-5857.62
-5857.7
-5857.79
-5857.9
-5858.01
-5858.14
-5858.27
-5858.41
-5858.55
-5858.69
-5858.84
-5858.98
-5859.12
-5859.25
-5859.37
-5859.48
-5859.58
-5859.67
-5859.74
-5859.79
-5859.82
-5859.83
-5859.82
-5859.79
-5859.74
-5859.67
-5859.58
-5859.48
-5859.36
-5859.22
-5859.08
-5858.92
-5858.77
-5858.61
-5858.45
-5858.3
-5858.16
-5858.03
-5857.92
-5857.82
-5857.75
-5857.7
-5857.67
-5857.67
-5857.69
-5857.74
-5857.81
-5857.9
-5858
-5858.12
-5858.25
-5858.38
-5858.51
-5858.64
-5858.75
-5858.86
-5858.94
-5859.01
-5859.05
-5859.06
-5859.06
-5859.02
-5858.97
-5858.9
-5858.81
-5858.71
-5858.61
-5858.5
-5858.4
-5858.32
-5858.25
-5858.2
-5858.17
-5858.17
-5858.19
-5858.23
-5858.28
-5858.36
-5858.44
-5858.53
-5858.61
-5858.68
-5858.75
-5858.79
-5858.82
-5858.83
-5858.82
-5858.79
-5858.75
-5858.7
-5858.64
-5858.57
-5858.51
-5858.46
-5858.41
-5858.38
-5858.36
-5858.35
-5858.36
-5858.38
-5858.41
-5858.44
-5858.49
-5858.53
-5858.58
-5858.62
-5858.65
-5858.68
-5858.69
-5858.7
-5858.7
-5858.69
-5858.67
-5858.64
-5858.61
-5858.58
-5858.54
-5858.51
-5858.47
-5858.44
-5858.42
-5858.4
-5858.38
-5858.37
-5858.37
-5858.38
-5858.39
-5858.41
-5858.43
-5858.45
-5858.47
-5858.5
-5858.53
-5858.55
-5858.58
-5858.6
-5858.62
-5858.63
-5858.64
-5858.65
-6421.02
-6421.07
-6421.17
-6421.33
-6421.54
-6421.79
-6422.1
-6422.45
-6422.83
-6423.22
-6423.6
-6423.96
-6424.3
-6424.61
-6424.88
-6425.11
-6425.29
-6425.42
-6425.5
-6425.52
-6425.49
-6425.39
-6425.23
-6425.01
-6424.73
-6424.39
-6424.01
-6423.58
-6423.14
-6422.72
-6422.3
-6421.89
-6421.49
-6421.11
-6420.73
-6420.37
-6420.03
-6419.7
-6419.39
-6419.09
-6418.81
-6418.55
-6418.3
-6418.07
-6417.86
-6417.67
-6417.49
-6417.33
-6417.19
-6417.07
-6416.97
-6416.89
-6416.83
-6416.79
-6416.77
-6416.76
-6416.78
-6416.82
-6416.88
-6416.96
-6417.05
-6417.17
-6417.3
-6417.44
-6417.6
-6417.76
-6417.94
-6418.12
-6418.31
-6418.49
-6418.68
-6418.86
-6419.04
-6419.21
-6419.37
-6419.51
-6419.63
-6419.74
-6419.83
-6419.89
-6419.93
-6419.94
-6419.93
-6419.89
-6419.83
-6419.74
-6419.63
-6419.49
-6419.34
-6419.17
-6418.99
-6418.8
-6418.6
-6418.41
-6418.21
-6418.03
-6417.85
-6417.7
-6417.56
-6417.45
-6417.36
-6417.3
-6417.28
-6417.28
-6417.31
-6417.38
-6417.47
-6417.58
-6417.72
-6417.87
-6418.03
-6418.2
-6418.37
-6418.53
-6418.67
-6418.8
-6418.9
-6418.98
-6419.03
-6419.04
-6419.03
-6418.98
-6418.91
-6418.81
-6418.7
-6418.57
-6418.44
-6418.31
-6418.19
-6418.08
-6417.99
-6417.93
-6417.9
-6417.9
-6417.93
-6417.98
-6418.06
-6418.15
-6418.25
-6418.36
-6418.46
-6418.56
-6418.63
-6418.69
-6418.72
-6418.73
-6418.72
-6418.68
-6418.63
-6418.56
-6418.48
-6418.4
-6418.33
-6418.26
-6418.21
-6418.17
-6418.15
-6418.14
-6418.15
-6418.18
-6418.21
-6418.26
-6418.31
-6418.36
-6418.42
-6418.46
-6418.5
-6418.53
-6418.55
-6418.56
-6418.56
-6418.54
-6418.52
-6418.49
-6418.45
-6418.42
-6418.37
-6418.34
-6418.3
-6418.26
-6418.24
-6418.21
-6418.2
-6418.19
-6418.19
-6418.2
-6418.21
-6418.23
-6418.25
-6418.28
-6418.3
-6418.33
-6418.36
-6418.39
-6418.41
-6418.44
-6418.46
-6418.47
-6418.48
-6418.49
-6915.41
-6915.49
-6915.66
-6915.92
-6916.27
-6916.7
-6917.22
-6917.81
-6918.47
-6919.16
-6919.84
-6920.5
-6921.11
-6921.66
-6922.14
-6922.55
-6922.88
-6923.12
-6923.26
-6923.31
-6923.27
-6923.12
-6922.88
-6922.54
-6922.11
-6921.59
-6921
-6920.35
-6919.71
-6919.08
-6918.49
-6917.93
-6917.4
-6916.91
-6916.45
-6916.02
-6915.62
-6915.25
-6914.9
-6914.57
-6914.26
-6913.97
-6913.71
-6913.46
-6913.23
-6913.02
-6912.83
-6912.66
-6912.52
-6912.39
-6912.29
-6912.22
-6912.16
-6912.13
-6912.12
-6912.14
-6912.18
-6912.24
-6912.33
-6912.44
-6912.57
-6912.72
-6912.89
-6913.08
-6913.28
-6913.49
-6913.71
-6913.94
-6914.17
-6914.41
-6914.64
-6914.87
-6915.09
-6915.3
-6915.49
-6915.67
-6915.82
-6915.95
-6916.05
-6916.13
-6916.18
-6916.19
-6916.17
-6916.13
-6916.05
-6915.94
-6915.8
-6915.63
-6915.44
-6915.24
-6915.01
-6914.78
-6914.54
-6914.3
-6914.07
-6913.84
-6913.63
-6913.45
-6913.28
-6913.15
-6913.05
-6912.99
-6912.96
-6912.97
-6913.02
-6913.1
-6913.22
-6913.36
-6913.54
-6913.72
-6913.93
-6914.13
-6914.34
-6914.53
-6914.71
-6914.86
-6914.98
-6915.07
-6915.13
-6915.14
-6915.12
-6915.06
-6914.96
-6914.84
-6914.7
-6914.54
-6914.38
-6914.21
-6914.06
-6913.93
-6913.83
-6913.76
-6913.72
-6913.72
-6913.76
-6913.83
-6913.92
-6914.04
-6914.17
-6914.3
-6914.43
-6914.54
-6914.63
-6914.7
-6914.73
-6914.74
-6914.72
-6914.67
-6914.6
-6914.52
-6914.43
-6914.33
-6914.25
-6914.17
-6914.11
-6914.06
-6914.04
-6914.03
-6914.05
-6914.08
-6914.12
-6914.18
-6914.24
-6914.3
-6914.36
-6914.41
-6914.46
-6914.49
-6914.51
-6914.52
-6914.51
-6914.5
-6914.47
-6914.44
-6914.4
-6914.35
-6914.31
-6914.27
-6914.22
-6914.19
-6914.16
-6914.14
-6914.12
-6914.11
-6914.11
-6914.12
-6914.13
-6914.15
-6914.18
-6914.21
-6914.24
-6914.27
-6914.3
-6914.33
-6914.35
-6914.38
-6914.4
-6914.41
-6914.42
-6914.43
-7352.25
-7352.38
-7352.64
-7353.05
-7353.62
-7354.36
-7355.34
-7356.51
-7358.25
-7359.54
-7360.7
-7361.7
-7362.56
-7363.29
-7363.89
-7364.38
-7364.76
-7365.03
-7365.19
-7365.24
-7365.17
-7364.98
-7364.65
-7364.18
-7363.54
-7362.73
-7361.75
-7360.31
-7359.32
-7358.44
-7357.68
-7357.02
-7356.42
-7355.87
-7355.37
-7354.91
-7354.48
-7354.09
-7353.72
-7353.37
-7353.05
-7352.74
-7352.46
-7352.2
-7351.95
-7351.73
-7351.54
-7351.36
-7351.21
-7351.09
-7350.99
-7350.92
-7350.87
-7350.85
-7350.86
-7350.9
-7350.96
-7351.05
-7351.17
-7351.31
-7351.48
-7351.67
-7351.88
-7352.11
-7352.36
-7352.62
-7352.89
-7353.17
-7353.46
-7353.74
-7354.02
-7354.3
-7354.56
-7354.81
-7355.04
-7355.25
-7355.44
-7355.59
-7355.71
-7355.8
-7355.85
-7355.87
-7355.85
-7355.79
-7355.69
-7355.55
-7355.38
-7355.18
-7354.96
-7354.71
-7354.44
-7354.16
-7353.88
-7353.59
-7353.31
-7353.05
-7352.8
-7352.58
-7352.39
-7352.24
-7352.12
-7352.05
-7352.02
-7352.04
-7352.11
-7352.21
-7352.36
-7352.54
-7352.75
-7352.98
-7353.22
-7353.47
-7353.71
-7353.94
-7354.15
-7354.34
-7354.48
-7354.58
-7354.64
-7354.66
-7354.62
-7354.54
-7354.43
-7354.28
-7354.1
-7353.91
-7353.71
-7353.51
-7353.34
-7353.18
-7353.06
-7352.98
-7352.94
-7352.94
-7352.99
-7353.07
-7353.19
-7353.33
-7353.49
-7353.65
-7353.8
-7353.93
-7354.04
-7354.11
-7354.15
-7354.16
-7354.13
-7354.07
-7353.98
-7353.88
-7353.78
-7353.67
-7353.56
-7353.47
-7353.4
-7353.35
-7353.33
-7353.32
-7353.34
-7353.38
-7353.43
-7353.5
-7353.57
-7353.64
-7353.7
-7353.76
-7353.81
-7353.85
-7353.87
-7353.88
-7353.88
-7353.86
-7353.83
-7353.79
-7353.74
-7353.7
-7353.65
-7353.6
-7353.55
-7353.51
-7353.48
-7353.46
-7353.44
-7353.43
-7353.43
-7353.44
-7353.46
-7353.48
-7353.51
-7353.54
-7353.57
-7353.6
-7353.63
-7353.67
-7353.69
-7353.72
-7353.74
-7353.76
-7353.77
-7353.77
-7737.89
-7738.04
-7738.35
-7738.85
-7739.58
-7740.58
-7741.94
-7743.72
-7746.38
-7748.25
-7749.93
-7751.4
-7752.67
-7753.75
-7754.65
-7755.38
-7755.95
-7756.35
-7756.58
-7756.66
-7756.57
-7756.31
-7755.86
-7755.21
-7754.34
-7753.24
-7751.92
-7749.84
-7748.48
-7747.36
-7746.45
-7745.7
-7745.05
-7744.49
-7743.98
-7743.52
-7743.09
-7742.71
-7742.33
-7741.97
-7741.64
-7741.33
-7741.03
-7740.76
-7740.51
-7740.28
-7740.08
-7739.9
-7739.75
-7739.62
-7739.52
-7739.46
-7739.42
-7739.41
-7739.43
-7739.49
-7739.58
-7739.7
-7739.84
-7740.02
-7740.23
-7740.46
-7740.72
-7740.99
-7741.29
-7741.6
-7741.93
-7742.26
-7742.6
-7742.94
-7743.27
-7743.6
-7743.91
-7744.2
-7744.47
-7744.71
-7744.93
-7745.11
-7745.25
-7745.35
-7745.41
-7745.42
-7745.39
-7745.31
-7745.19
-7745.03
-7744.83
-7744.6
-7744.33
-7744.04
-7743.72
-7743.39
-7743.06
-7742.73
-7742.4
-7742.09
-7741.81
-7741.55
-7741.33
-7741.16
-7741.03
-7740.95
-7740.93
-7740.96
-7741.04
-7741.17
-7741.34
-7741.56
-7741.81
-7742.08
-7742.37
-7742.66
-7742.95
-7743.22
-7743.46
-7743.67
-7743.84
-7743.96
-7744.02
-7744.03
-7743.99
-7743.89
-7743.75
-7743.56
-7743.35
-7743.12
-7742.89
-7742.66
-7742.45
-7742.27
-7742.13
-7742.03
-7741.99
-7742
-7742.06
-7742.16
-7742.31
-7742.47
-7742.66
-7742.85
-7743.02
-7743.17
-7743.3
-7743.38
-7743.42
-7743.43
-7743.39
-7743.32
-7743.22
-7743.1
-7742.97
-7742.85
-7742.73
-7742.63
-7742.55
-7742.49
-7742.47
-7742.46
-7742.49
-7742.53
-7742.6
-7742.67
-7742.75
-7742.83
-7742.9
-7742.97
-7743.02
-7743.06
-7743.09
-7743.09
-7743.09
-7743.07
-7743.03
-7742.99
-7742.94
-7742.89
-7742.83
-7742.78
-7742.73
-7742.69
-7742.66
-7742.63
-7742.61
-7742.61
-7742.61
-7742.62
-7742.64
-7742.66
-7742.69
-7742.72
-7742.75
-7742.79
-7742.82
-7742.86
-7742.89
-7742.91
-7742.94
-7742.95
-7742.96
-7742.97
-8078.23
-8078.29
-8078.4
-8078.57
-8078.77
-8079.01
-8079.13
-8079.44
-8090.64
-8090.27
-8090.05
-8089.68
-8089.29
-8088.87
-8088.45
-8088.04
-8087.63
-8087.24
-8086.86
-8086.49
-8086.14
-8085.81
-8085.49
-8085.19
-8084.91
-8084.65
-8084.41
-8084.2
-8084.01
-8083.86
-8083.73
-8083.64
-8083.57
-8083.54
-8083.55
-8083.59
-8083.67
-8083.78
-8083.92
-8084.1
-8084.32
-8084.56
-8084.84
-8085.14
-8085.47
-8085.81
-8086.18
-8086.56
-8086.94
-8087.34
-8087.73
-8088.11
-8088.49
-8088.84
-8089.18
-8089.49
-8089.77
-8090.01
-8090.22
-8090.38
-8090.49
-8090.55
-8090.56
-8090.53
-8090.43
-8090.29
-8090.1
-8089.87
-8089.59
-8089.28
-8088.94
-8088.58
-8088.2
-8087.82
-8087.44
-8087.06
-8086.71
-8086.38
-8086.09
-8085.85
-8085.65
-8085.51
-8085.43
-8085.4
-8085.44
-8085.54
-8085.7
-8085.91
-8086.16
-8086.45
-8086.77
-8087.1
-8087.44
-8087.77
-8088.08
-8088.36
-8088.6
-8088.79
-8088.92
-8088.99
-8088.99
-8088.93
-8088.82
-8088.65
-8088.43
-8088.19
-8087.92
-8087.65
-8087.38
-8087.14
-8086.93
-8086.77
-8086.67
-8086.62
-8086.64
-8086.71
-8086.84
-8087
-8087.2
-8087.41
-8087.63
-8087.83
-8088
-8088.14
-8088.23
-8088.28
-8088.28
-8088.23
-8088.14
-8088.03
-8087.89
-8087.75
-8087.6
-8087.47
-8087.36
-8087.27
-8087.21
-8087.18
-8087.19
-8087.22
-8087.27
-8087.34
-8087.42
-8087.51
-8087.6
-8087.68
-8087.75
-8087.81
-8087.86
-8087.88
-8087.89
-8087.88
-8087.85
-8087.82
-8087.77
-8087.72
-8087.66
-8087.6
-8087.54
-8087.49
-8087.45
-8087.41
-8087.38
-8087.37
-8087.36
-8087.36
-8087.37
-8087.39
-8087.42
-8087.45
-8087.48
-8087.52
-8087.56
-8087.59
-8087.63
-8087.66
-8087.69
-8087.71
-8087.73
-8087.74
-8087.75
-8379.42
-8379.45
-8379.51
-8379.6
-8379.72
-8379.85
-8379.94
-8380.14
-8395
-8394.72
-8394.51
-8394.21
-8393.89
-8393.54
-8393.18
-8392.8
-8392.43
-8392.06
-8391.69
-8391.34
-8390.98
-8390.65
-8390.32
-8390.01
-8389.72
-8389.45
-8389.21
-8388.99
-8388.8
-8388.63
-8388.51
-8388.41
-8388.35
-8388.33
-8388.35
-8388.41
-8388.5
-8388.64
-8388.82
-8389.03
-8389.28
-8389.56
-8389.88
-8390.23
-8390.61
-8391
-8391.42
-8391.85
-8392.29
-8392.74
-8393.18
-8393.62
-8394.05
-8394.45
-8394.83
-8395.18
-8395.5
-8395.77
-8396
-8396.17
-8396.3
-8396.36
-8396.37
-8396.32
-8396.22
-8396.05
-8395.83
-8395.57
-8395.25
-8394.9
-8394.51
-8394.1
-8393.67
-8393.23
-8392.8
-8392.38
-8391.98
-8391.61
-8391.29
-8391.01
-8390.8
-8390.64
-8390.55
-8390.53
-8390.58
-8390.7
-8390.89
-8391.13
-8391.42
-8391.75
-8392.12
-8392.5
-8392.88
-8393.26
-8393.61
-8393.92
-8394.19
-8394.4
-8394.54
-8394.61
-8394.61
-8394.54
-8394.4
-8394.21
-8393.96
-8393.68
-8393.37
-8393.06
-8392.76
-8392.49
-8392.25
-8392.07
-8391.96
-8391.91
-8391.93
-8392.02
-8392.16
-8392.36
-8392.58
-8392.82
-8393.07
-8393.29
-8393.49
-8393.64
-8393.74
-8393.79
-8393.79
-8393.73
-8393.63
-8393.5
-8393.34
-8393.18
-8393.02
-8392.87
-8392.75
-8392.65
-8392.59
-8392.56
-8392.57
-8392.6
-8392.66
-8392.74
-8392.83
-8392.93
-8393.03
-8393.12
-8393.2
-8393.26
-8393.3
-8393.33
-8393.34
-8393.33
-8393.3
-8393.26
-8393.21
-8393.15
-8393.09
-8393.02
-8392.96
-8392.91
-8392.86
-8392.82
-8392.8
-8392.78
-8392.77
-8392.78
-8392.79
-8392.81
-8392.84
-8392.87
-8392.9
-8392.94
-8392.98
-8393.02
-8393.05
-8393.09
-8393.12
-8393.14
-8393.16
-8393.17
-8393.18
-8646.1
-8646.11
-8646.14
-8646.19
-8646.25
-8646.31
-8646.34
-8646.43
-8664.55
-8664.38
-8664.23
-8664.01
-8663.75
-8663.46
-8663.15
-8662.77
-8662.43
-8662.08
-8661.72
-8661.36
-8661
-8660.66
-8660.32
-8660
-8659.7
-8659.42
-8659.16
-8658.94
-8658.74
-8658.57
-8658.44
-8658.35
-8658.29
-8658.28
-8658.31
-8658.38
-8658.5
-8658.66
-8658.86
-8659.11
-8659.39
-8659.72
-8660.08
-8660.47
-8660.89
-8661.34
-8661.81
-8662.3
-8662.79
-8663.29
-8663.79
-8664.28
-8664.75
-8665.2
-8665.63
-8666.02
-8666.37
-8666.67
-8666.92
-8667.11
-8667.25
-8667.32
-8667.32
-8667.26
-8667.14
-8666.95
-8666.7
-8666.4
-8666.04
-8665.65
-8665.21
-8664.75
-8664.27
-8663.78
-8663.3
-8662.83
-8662.39
-8661.98
-8661.62
-8661.32
-8661.08
-8660.91
-8660.82
-8660.8
-8660.87
-8661.01
-8661.22
-8661.49
-8661.82
-8662.2
-8662.61
-8663.04
-8663.47
-8663.88
-8664.28
-8664.63
-8664.92
-8665.15
-8665.31
-8665.38
-8665.38
-8665.29
-8665.13
-8664.9
-8664.62
-8664.3
-8663.96
-8663.61
-8663.27
-8662.97
-8662.71
-8662.51
-8662.38
-8662.33
-8662.36
-8662.46
-8662.63
-8662.85
-8663.11
-8663.38
-8663.65
-8663.9
-8664.12
-8664.29
-8664.4
-8664.44
-8664.43
-8664.37
-8664.25
-8664.1
-8663.93
-8663.75
-8663.57
-8663.41
-8663.28
-8663.17
-8663.11
-8663.08
-8663.09
-8663.13
-8663.2
-8663.28
-8663.38
-8663.49
-8663.6
-8663.69
-8663.78
-8663.84
-8663.89
-8663.92
-8663.93
-8663.91
-8663.88
-8663.84
-8663.78
-8663.72
-8663.65
-8663.59
-8663.52
-8663.47
-8663.42
-8663.38
-8663.35
-8663.33
-8663.32
-8663.33
-8663.34
-8663.36
-8663.39
-8663.43
-8663.47
-8663.51
-8663.55
-8663.59
-8663.62
-8663.66
-8663.69
-8663.71
-8663.73
-8663.74
-8663.75
-8882.26
-8882.27
-8882.29
-8882.31
-8882.34
-8882.38
-8882.39
-8882.43
-8903.53
-8903.4
-8903.28
-8903.1
-8902.87
-8902.6
-8902.3
-8901.97
-8901.63
-8901.27
-8900.91
-8900.55
-8900.19
-8899.83
-8899.48
-8899.15
-8898.83
-8898.54
-8898.27
-8898.03
-8897.82
-8897.65
-8897.52
-8897.42
-8897.37
-8897.37
-8897.41
-8897.49
-8897.63
-8897.81
-8898.04
-8898.32
-8898.64
-8899
-8899.41
-8899.84
-8900.32
-8900.81
-8901.33
-8901.87
-8902.42
-8902.97
-8903.52
-8904.06
-8904.58
-8905.08
-8905.55
-8905.97
-8906.35
-8906.68
-8906.96
-8907.17
-8907.31
-8907.38
-8907.39
-8907.32
-8907.17
-8906.96
-8906.69
-8906.35
-8905.95
-8905.51
-8905.02
-8904.51
-8903.98
-8903.44
-8902.91
-8902.4
-8901.91
-8901.47
-8901.07
-8900.74
-8900.49
-8900.31
-8900.21
-8900.2
-8900.27
-8900.43
-8900.67
-8900.98
-8901.35
-8901.77
-8902.22
-8902.7
-8903.17
-8903.63
-8904.06
-8904.45
-8904.77
-8905.02
-8905.19
-8905.26
-8905.25
-8905.15
-8904.97
-8904.72
-8904.4
-8904.05
-8903.66
-8903.28
-8902.9
-8902.57
-8902.28
-8902.07
-8901.93
-8901.88
-8901.92
-8902.03
-8902.22
-8902.47
-8902.75
-8903.05
-8903.35
-8903.63
-8903.87
-8904.05
-8904.16
-8904.21
-8904.2
-8904.12
-8903.99
-8903.82
-8903.63
-8903.44
-8903.24
-8903.07
-8902.92
-8902.81
-8902.74
-8902.72
-8902.73
-8902.77
-8902.85
-8902.95
-8903.06
-8903.17
-8903.28
-8903.39
-8903.48
-8903.55
-8903.6
-8903.63
-8903.63
-8903.62
-8903.58
-8903.53
-8903.48
-8903.41
-8903.34
-8903.27
-8903.2
-8903.14
-8903.09
-8903.05
-8903.02
-8903
-8903
-8903
-8903.02
-8903.04
-8903.07
-8903.11
-8903.15
-8903.19
-8903.23
-8903.27
-8903.31
-8903.34
-8903.37
-8903.4
-8903.42
-8903.43
-8903.44
-9091.45
-9091.46
-9091.47
-9091.48
-9091.5
-9091.52
-9091.53
-9091.55
-9115.35
-9115.24
-9115.13
-9114.97
-9114.75
-9114.49
-9114.2
-9113.88
-9113.53
-9113.18
-9112.81
-9112.43
-9112.06
-9111.68
-9111.32
-9110.97
-9110.64
-9110.33
-9110.05
-9109.8
-9109.58
-9109.4
-9109.26
-9109.17
-9109.12
-9109.12
-9109.17
-9109.28
-9109.43
-9109.63
-9109.89
-9110.2
-9110.55
-9110.95
-9111.4
-9111.88
-9112.4
-9112.94
-9113.51
-9114.1
-9114.7
-9115.3
-9115.9
-9116.49
-9117.06
-9117.6
-9118.1
-9118.57
-9118.98
-9119.34
-9119.63
-9119.86
-9120.01
-9120.09
-9120.08
-9120
-9119.84
-9119.61
-9119.3
-9118.93
-9118.49
-9118.01
-9117.48
-9116.92
-9116.34
-9115.75
-9115.17
-9114.61
-9114.08
-9113.6
-9113.18
-9112.82
-9112.54
-9112.35
-9112.25
-9112.25
-9112.33
-9112.51
-9112.78
-9113.12
-9113.53
-9113.99
-9114.48
-9115
-9115.52
-9116.03
-9116.5
-9116.91
-9117.26
-9117.53
-9117.71
-9117.79
-9117.77
-9117.66
-9117.45
-9117.17
-9116.82
-9116.43
-9116.01
-9115.59
-9115.18
-9114.81
-9114.5
-9114.27
-9114.13
-9114.07
-9114.12
-9114.25
-9114.46
-9114.73
-9115.04
-9115.37
-9115.7
-9116
-9116.26
-9116.45
-9116.58
-9116.63
-9116.6
-9116.51
-9116.37
-9116.19
-9115.98
-9115.77
-9115.56
-9115.37
-9115.22
-9115.1
-9115.03
-9115
-9115.01
-9115.07
-9115.15
-9115.25
-9115.37
-9115.5
-9115.62
-9115.73
-9115.82
-9115.9
-9115.95
-9115.98
-9115.98
-9115.96
-9115.93
-9115.88
-9115.81
-9115.74
-9115.67
-9115.59
-9115.53
-9115.46
-9115.41
-9115.37
-9115.34
-9115.32
-9115.31
-9115.32
-9115.34
-9115.36
-9115.39
-9115.43
-9115.47
-9115.51
-9115.56
-9115.6
-9115.64
-9115.67
-9115.71
-9115.73
-9115.75
-9115.76
-9115.77
-9276.75
-9276.76
-9276.76
-9276.77
-9276.78
-9276.79
-9276.8
-9276.81
-9303.07
-9302.97
-9302.86
-9302.7
-9302.49
-9302.23
-9301.94
-9301.62
-9301.27
-9300.9
-9300.52
-9300.13
-9299.74
-9299.35
-9298.97
-9298.6
-9298.25
-9297.93
-9297.63
-9297.37
-9297.14
-9296.95
-9296.81
-9296.71
-9296.67
-9296.67
-9296.73
-9296.85
-9297.02
-9297.25
-9297.53
-9297.87
-9298.25
-9298.69
-9299.17
-9299.69
-9300.26
-9300.85
-9301.47
-9302.1
-9302.75
-9303.4
-9304.05
-9304.68
-9305.3
-9305.88
-9306.42
-9306.92
-9307.37
-9307.75
-9308.06
-9308.3
-9308.46
-9308.54
-9308.53
-9308.44
-9308.26
-9308.01
-9307.67
-9307.26
-9306.79
-9306.26
-9305.69
-9305.08
-9304.46
-9303.82
-9303.2
-9302.59
-9302.02
-9301.51
-9301.05
-9300.67
-9300.38
-9300.17
-9300.07
-9300.07
-9300.17
-9300.37
-9300.66
-9301.03
-9301.48
-9301.98
-9302.52
-9303.08
-9303.64
-9304.18
-9304.69
-9305.14
-9305.51
-9305.8
-9305.98
-9306.07
-9306.04
-9305.92
-9305.69
-9305.38
-9305
-9304.57
-9304.12
-9303.66
-9303.22
-9302.82
-9302.49
-9302.24
-9302.09
-9302.04
-9302.09
-9302.23
-9302.46
-9302.76
-9303.1
-9303.46
-9303.81
-9304.14
-9304.41
-9304.62
-9304.75
-9304.8
-9304.77
-9304.67
-9304.51
-9304.32
-9304.09
-9303.86
-9303.64
-9303.44
-9303.27
-9303.15
-9303.08
-9303.05
-9303.07
-9303.13
-9303.22
-9303.33
-9303.45
-9303.59
-9303.71
-9303.83
-9303.93
-9304.01
-9304.06
-9304.09
-9304.09
-9304.07
-9304.03
-9303.98
-9303.91
-9303.84
-9303.76
-9303.69
-9303.61
-9303.55
-9303.49
-9303.45
-9303.42
-9303.4
-9303.4
-9303.4
-9303.42
-9303.45
-9303.48
-9303.52
-9303.56
-9303.6
-9303.65
-9303.69
-9303.73
-9303.77
-9303.8
-9303.83
-9303.85
-9303.86
-9303.87
-9440.89
-9440.9
-9440.9
-9440.91
-9440.92
-9440.92
-9440.93
-9440.94
-9469.42
-9469.31
-9469.21
-9469.05
-9468.84
-9468.58
-9468.28
-9467.95
-9467.59
-9467.2