/*--------------------------------*- C++ -*----------------------------------*\
  =========                 |
  \\      /  F ield         | OpenFOAM: The Open Source CFD Toolbox
   \\    /   O peration     | Website:  https://openfoam.org
    \\  /    A nd           | Version:  12
     \\/     M anipulation  |
\*---------------------------------------------------------------------------*/
FoamFile
{
    format      ascii;
    class       volScalarField;
    location    "15.64";
    object      p_rgh;
}
// * * * * * * * * * * * * * * * * * * * * * * * * * * * * * * * * * * * * * //

dimensions      [1 -1 -2 0 0 0 0];

internalField   nonuniform List<scalar> 
3829
(
3.75791
3.7566
3.75391
3.7498
3.74421
3.73705
3.72826
3.71776
3.70545
3.69123
3.67501
3.65668
3.63614
3.61326
3.58795
3.56007
3.52954
3.49623
3.46004
3.42087
3.37863
3.33325
3.28464
3.23275
3.17754
3.11898
3.05707
2.9918
2.92321
2.85135
2.77628
2.69807
2.61727
2.53392
2.44817
2.36018
2.27017
2.17838
2.08511
1.99065
1.89533
1.79951
1.70355
1.60783
1.51274
1.4187
1.3261
1.23536
1.14689
1.0611
0.978389
0.899167
0.823935
0.752842
0.686273
0.624511
0.567817
0.516413
0.470497
0.430111
0.397181
0.370664
0.350267
0.335771
0.326965
0.323571
0.325372
0.33213
0.343379
0.358621
0.377342
0.39895
0.422777
0.448119
0.474229
0.500313
0.525561
0.549161
0.570293
0.58817
0.602057
0.611274
0.615231
0.613462
0.602935
0.585258
0.56039
0.528392
0.489441
0.443837
0.392004
0.334513
0.272135
0.205811
0.136655
0.0659393
-0.0049638
-0.0745772
-0.141382
-0.203844
-0.260438
-0.309736
-0.350445
-0.381452
-0.401909
-0.411208
-0.407483
-0.391821
-0.364862
-0.327414
-0.280529
-0.225665
-0.164625
-0.0995433
-0.0327285
0.0331458
0.0955624
0.151925
0.199792
0.237008
0.261807
0.272931
0.269669
0.250982
0.218162
0.172671
0.116415
0.0519693
-0.0174848
-0.0884419
-0.156907
-0.219131
-0.271478
-0.310743
-0.334439
-0.341027
-0.326952
-0.295024
-0.247267
-0.186382
-0.116038
-0.0397242
0.0351671
0.104199
0.162264
0.204709
0.227965
0.229733
0.208359
0.165901
0.105322
0.0310328
-0.051837
-0.135387
-0.213122
-0.278479
-0.325731
-0.350922
-0.349756
-0.324697
-0.278768
-0.216949
-0.144632
-0.0720369
-0.00607114
0.0458613
0.07793
0.0867871
0.0712044
0.0344668
-0.0184138
-0.0803487
-0.144137
-0.198317
-0.237211
-0.256195
-0.253652
-0.231653
-0.195094
-0.150654
-0.107093
-0.0723085
-0.0519963
-0.0493821
-0.0642433
-0.0921046
-0.127227
-0.161138
-0.186082
-0.196755
-0.190346
-0.167622
-0.132916
-0.0922021
-0.051948
-0.0182512
0.00614685
0.0210078
0.0283196
0.0309264
3.88507
3.88402
3.88186
3.87855
3.87402
3.86817
3.86091
3.85213
3.84171
3.82952
3.81539
3.79917
3.78069
3.75978
3.73624
3.70989
3.68055
3.64802
3.61212
3.5727
3.52959
3.48266
3.43179
3.3769
3.31793
3.25485
3.18767
3.11644
3.04125
2.96224
2.87967
2.79411
2.70387
2.60967
2.51203
2.41146
2.30843
2.20344
2.09696
1.98942
1.88124
1.77278
1.66448
1.55676
1.4501
1.34496
1.24182
1.14118
1.0435
0.949279
0.858963
0.77303
0.691944
0.616691
0.546541
0.482415
0.424704
0.373759
0.329883
0.293505
0.26298
0.239887
0.224053
0.215356
0.213617
0.218566
0.229828
0.246972
0.269542
0.296729
0.3279
0.362317
0.399148
0.437517
0.476492
0.515086
0.552297
0.587113
0.618519
0.645528
0.66721
0.682727
0.691349
0.69252
0.68424
0.667088
0.640932
0.605775
0.561778
0.509281
0.448815
0.381142
0.307267
0.22839
0.145913
0.0614198
-0.0233635
-0.106611
-0.186439
-0.260945
-0.328236
-0.386557
-0.4343
-0.470046
-0.492698
-0.501516
-0.495257
-0.474584
-0.440065
-0.392616
-0.333591
-0.264848
-0.188647
-0.107587
-0.0244016
0.057192
0.134307
0.203761
0.262551
0.308023
0.337953
0.350731
0.345548
0.321861
0.280786
0.223946
0.153777
0.0735503
-0.0128313
-0.101013
-0.185778
-0.262556
-0.326856
-0.374731
-0.40307
-0.409728
-0.392447
-0.353205
-0.294111
-0.218579
-0.131303
-0.0372272
0.0554028
0.140704
0.212317
0.264504
0.292874
0.294574
0.268524
0.216606
0.142376
0.0515259
-0.049514
-0.151
-0.244938
-0.323256
-0.378947
-0.407106
-0.403999
-0.371701
-0.313789
-0.236685
-0.147492
-0.0584021
0.0218663
0.0842732
0.121774
0.130389
0.109683
0.0631533
-0.00233269
-0.0771957
-0.159031
-0.222716
-0.268182
-0.289046
-0.283151
-0.253461
-0.206326
-0.150183
-0.0961352
-0.0535205
-0.0295011
-0.027857
-0.0476152
-0.0834866
-0.127997
-0.170543
-0.201762
-0.215133
-0.20749
-0.180475
-0.139445
-0.0920128
-0.0466742
-0.00985742
0.0150508
0.0284739
0.0336248
0.0346876
4.06378
4.06361
4.06325
4.06264
4.06165
4.06017
4.05801
4.05494
4.05069
4.04499
4.03752
4.02795
4.01594
4.00116
3.9833
3.96198
3.93684
3.9075
3.87362
3.83487
3.79098
3.74168
3.6868
3.62619
3.55974
3.48739
3.40913
3.32495
3.23489
3.13904
3.03743
2.92978
2.81935
2.70565
2.58868
2.4686
2.34572
2.22039
2.09305
1.96419
1.83445
1.70447
1.57489
1.44637
1.31952
1.19501
1.07346
0.955534
0.841838
0.732991
0.629547
0.532067
0.441118
0.357201
0.280743
0.212123
0.151677
0.0995421
0.0557316
0.020006
-0.000548376
-0.0122638
-0.0152887
-0.00972507
0.00428897
0.0265053
0.0565377
0.0938497
0.137765
0.187526
0.242182
0.300629
0.36178
0.424466
0.487433
0.549335
0.608809
0.664485
0.714976
0.758907
0.794972
0.821883
0.838398
0.843263
0.840348
0.82432
0.7954
0.753751
0.699664
0.633653
0.556506
0.469351
0.373614
0.270962
0.163335
0.0528962
-0.057968
-0.166791
-0.271002
-0.368013
-0.455278
-0.530416
-0.591199
-0.635824
-0.662706
-0.67066
-0.659301
-0.628762
-0.579626
-0.513099
-0.43112
-0.33625
-0.231605
-0.120751
-0.00659171
0.104262
0.208736
0.302481
0.381457
0.442089
0.481426
0.497381
0.488427
0.454875
0.397749
0.319212
0.222751
0.112885
-0.00514576
-0.12646
-0.241577
-0.345461
-0.432091
-0.496055
-0.533084
-0.540226
-0.516275
-0.462505
-0.381577
-0.278266
-0.159189
-0.0314821
0.0943855
0.210015
0.306769
0.376926
0.414519
0.41601
0.380672
0.310497
0.210434
0.0884453
-0.04672
-0.181684
-0.305712
-0.40793
-0.479074
-0.512553
-0.505177
-0.458618
-0.377868
-0.271972
-0.150999
-0.0311893
0.0755176
0.157063
0.204256
0.211952
0.180719
0.115021
0.0244612
-0.0787953
-0.182489
-0.267839
-0.326358
-0.350611
-0.337923
-0.293317
-0.226088
-0.147974
-0.0743566
-0.017313
0.0133025
0.012791
-0.016722
-0.0679114
-0.130125
-0.188751
-0.231461
-0.249533
-0.239268
-0.20368
-0.150566
-0.0906472
-0.0357876
0.00626513
0.0314372
0.0414777
0.0420023
0.0398551
4.26077
4.26256
4.2661
4.27131
4.27804
4.2861
4.29671
4.30649
4.31626
4.32554
4.33367
4.34004
4.34397
4.34477
4.34173
4.33412
4.32124
4.3024
4.27691
4.24417
4.20358
4.15464
4.09694
4.03022
3.95436
3.86935
3.77536
3.67269
3.56179
3.44323
3.31775
3.18628
3.04613
2.89928
2.74713
2.59096
2.4318
2.27034
2.1073
1.94341
1.77941
1.6161
1.45424
1.29464
1.13805
0.985282
0.837132
0.694353
0.557736
0.429371
0.307449
0.193996
0.0897069
-0.00475814
-0.0888197
-0.16188
-0.223427
-0.272895
-0.309752
-0.333413
-0.347732
-0.350026
-0.339834
-0.317268
-0.282756
-0.236945
-0.180614
-0.114646
-0.0400709
0.0419452
0.130351
0.223287
0.319367
0.416967
0.514375
0.609747
0.701224
0.786936
0.864997
0.933597
0.99103
1.03565
1.06604
1.08118
1.08043
1.06242
1.02698
0.974061
0.903911
0.817206
0.715059
0.59903
0.471099
0.333593
0.1892
0.0408988
-0.107947
-0.253947
-0.393568
-0.523253
-0.63946
-0.738869
-0.818549
-0.875781
-0.908611
-0.915689
-0.896506
-0.851074
-0.78017
-0.685549
-0.569956
-0.436996
-0.291029
-0.137079
0.0219567
0.174994
0.318938
0.447788
0.55591
0.638336
0.690941
0.710729
0.696251
0.647838
0.566781
0.456266
0.321315
0.168468
0.00551273
-0.166742
-0.324838
-0.467745
-0.586615
-0.673746
-0.723151
-0.731131
-0.696954
-0.621417
-0.508236
-0.364314
-0.198851
-0.021747
0.15229
0.311744
0.444697
0.540556
0.591272
0.592097
0.542518
0.445198
0.307308
0.139943
-0.0447806
-0.228075
-0.395361
-0.531836
-0.624842
-0.665599
-0.651126
-0.582997
-0.468659
-0.320756
-0.153363
0.0107409
0.155239
0.263761
0.324073
0.329868
0.282339
0.188231
0.06125
-0.0817401
-0.220491
-0.335215
-0.411711
-0.44073
-0.416559
-0.34954
-0.252833
-0.142672
-0.0407829
0.0366995
0.0763196
0.0721563
0.027698
-0.0461784
-0.134249
-0.216037
-0.275021
-0.299307
-0.28462
-0.235896
-0.16489
-0.0869039
-0.0185137
0.0302839
0.054767
0.0587537
0.0516292
0.0442803
4.37227
4.37815
4.38989
4.40732
4.43118
4.46071
4.49502
4.53304
4.5736
4.61574
4.65823
4.69976
4.73874
4.77355
4.80254
4.82416
4.83688
4.83942
4.83043
4.80884
4.77385
4.72483
4.66132
4.58311
4.4902
4.38283
4.26146
4.12682
3.97971
3.82109
3.65178
3.47248
3.28778
3.09761
2.90247
2.70299
2.50002
2.29472
2.08818
1.88148
1.67564
1.47165
1.2705
1.07315
0.880596
0.693869
0.514067
0.341838
0.178247
0.0243105
-0.119163
-0.251225
-0.371017
-0.477716
-0.570491
-0.648658
-0.71167
-0.758996
-0.79016
-0.80493
-0.805297
-0.789211
-0.757016
-0.709055
-0.645836
-0.568095
-0.476784
-0.373058
-0.258292
-0.134053
-0.00204531
0.135962
0.277395
0.420285
0.562315
0.700984
0.833765
0.958158
1.07166
1.17184
1.25639
1.32314
1.37032
1.39628
1.39905
1.37864
1.33443
1.26624
1.17446
1.06003
0.924564
0.770197
0.599652
0.416123
0.223285
0.0251996
-0.173523
-0.368272
-0.554232
-0.726561
-0.880421
-1.01142
-1.11551
-1.18928
-1.22981
-1.23501
-1.20519
-1.13979
-1.03992
-0.908131
-0.748186
-0.56503
-0.364528
-0.153389
0.0614779
0.270328
0.466068
0.640612
0.786437
0.896994
0.966836
0.991739
0.969058
0.900208
0.786984
0.633878
0.447739
0.237371
0.0128095
-0.2181
-0.434907
-0.629699
-0.790868
-0.90828
-0.974102
-0.982828
-0.934453
-0.829524
-0.673518
-0.475962
-0.249482
-0.0069236
0.230042
0.446561
0.626459
0.755445
0.822697
0.821918
0.752933
0.619424
0.431615
0.204558
-0.0452479
-0.291547
-0.514914
-0.69535
-0.815971
-0.865321
-0.840681
-0.74355
-0.584649
-0.381346
-0.15273
0.0689913
0.262147
0.404909
0.481235
0.483421
0.413368
0.281345
0.106398
-0.088285
-0.273764
-0.425599
-0.524058
-0.560416
-0.517782
-0.420864
-0.285231
-0.133037
0.00571096
0.109454
0.159988
0.150184
0.0852257
-0.0189767
-0.141158
-0.253035
-0.332727
-0.3643
-0.342899
-0.276095
-0.181155
-0.0795008
0.00610243
0.0626163
0.084741
0.0792986
0.0609015
0.0460169
4.27655
4.2909
4.3199
4.36348
4.41988
4.48847
4.56772
4.6582
4.7571
4.86157
4.96812
5.07405
5.17631
5.27186
5.3577
5.4314
5.48999
5.53124
5.55322
5.55434
5.53327
5.48901
5.42096
5.32896
5.21322
5.07455
4.9141
4.7338
4.5354
4.32117
4.09324
3.85758
3.61301
3.36163
3.10517
2.84523
2.58328
2.32065
2.05859
1.79829
1.54088
1.28748
1.03915
0.796985
0.562058
0.335469
0.118483
-0.08805
-0.282999
-0.46521
-0.63358
-0.787057
-0.92451
-1.04496
-1.1475
-1.23125
-1.29537
-1.33925
-1.3624
-1.36442
-1.34803
-1.31058
-1.25212
-1.17325
-1.07478
-0.957759
-0.823456
-0.673395
-0.509396
-0.333538
-0.148081
0.04469
0.241382
0.439402
0.635689
0.826912
1.00981
1.18111
1.33739
1.4755
1.59244
1.68537
1.75179
1.78934
1.79673
1.77296
1.71726
1.62953
1.51036
1.36114
1.18406
0.981978
0.758525
0.517948
0.265141
0.00540376
-0.254832
-0.509626
-0.752559
-0.977195
-1.17728
-1.34698
-1.48079
-1.57424
-1.62386
-1.6269
-1.58336
-1.49275
-1.35674
-1.17878
-0.963907
-0.718721
-0.451127
-0.169976
0.114913
0.391828
0.650748
0.881124
1.07303
1.21774
1.30806
1.33855
1.30546
1.21056
1.05692
0.850757
0.601114
0.319597
0.0195529
-0.285253
-0.573591
-0.831972
-1.0451
-1.19962
-1.28489
-1.29421
-1.2275
-1.08555
-0.87614
-0.61198
-0.309978
0.0137805
0.328093
0.614526
0.851639
1.02072
1.1076
1.10412
1.0102
0.831476
0.581768
0.281015
-0.0494664
-0.372951
-0.664637
-0.898144
-1.05172
-1.11106
-1.0724
-0.938557
-0.724165
-0.45223
-0.147463
0.144699
0.396687
0.580226
0.675075
0.671398
0.572306
0.392715
0.15834
-0.100222
-0.343192
-0.539416
-0.66137
-0.690345
-0.638565
-0.50606
-0.322133
-0.117901
0.0659631
0.201351
0.264379
0.246447
0.155181
0.0129126
-0.151513
-0.300219
-0.404763
-0.444249
-0.413375
-0.323248
-0.198197
-0.0674066
0.0387909
0.103549
0.12107
0.102247
0.0684912
0.0434844
3.87231
3.90129
3.9597
4.04735
4.16306
4.30528
4.47047
4.65588
4.85632
5.07229
5.29627
5.52114
5.73951
5.94536
6.13272
6.29628
6.43141
6.5351
6.60439
6.63684
6.63042
6.58412
6.49727
6.37048
6.20486
6.00323
5.76852
5.50604
5.22081
4.91837
4.6035
4.27826
3.94763
3.61438
3.28056
2.9477
2.61705
2.28962
1.96633
1.64804
1.33563
1.03003
0.732189
0.443112
0.164033
-0.104049
-0.359922
-0.602467
-0.830399
-1.04231
-1.23692
-1.4129
-1.56892
-1.70375
-1.81621
-1.90522
-1.96985
-2.00943
-2.02315
-2.01092
-1.97253
-1.90807
-1.81772
-1.70206
-1.56201
-1.39882
-1.21408
-1.00973
-0.788095
-0.551833
-0.303851
-0.0473242
0.213946
0.476295
0.735809
0.988271
1.22943
1.45504
1.66092
1.84285
1.99705
2.11989
2.20813
2.2589
2.27063
2.242
2.17192
2.06035
1.9082
1.71736
1.49066
1.23184
0.945618
0.637468
0.31372
-0.018695
-0.351567
-0.677071
-0.986984
-1.2731
-1.52741
-1.74222
-1.91087
-2.02733
-2.08697
-2.08704
-2.0267
-1.90576
-1.72662
-1.49384
-1.21397
-0.895552
-0.548779
-0.185203
0.182218
0.539061
0.872133
1.16764
1.41298
1.59725
1.71184
1.7508
1.70198
1.57513
1.37333
1.10418
0.779309
0.413695
0.0247928
-0.368114
-0.740517
-1.07366
-1.34771
-1.54525
-1.65294
-1.66255
-1.57315
-1.38675
-1.11367
-0.770371
-0.378742
0.0405177
0.446094
0.814579
1.11836
1.33371
1.44287
1.43533
1.31114
1.07848
0.755424
0.368077
-0.05893
-0.472439
-0.843634
-1.13872
-1.33012
-1.39993
-1.34329
-1.16526
-0.88502
-0.532127
-0.135928
0.238394
0.55838
0.788445
0.903279
0.891345
0.756871
0.520217
0.215215
-0.118581
-0.429159
-0.677115
-0.827456
-0.860066
-0.782128
-0.604416
-0.362526
-0.0966448
0.140186
0.312006
0.388607
0.359888
0.236543
0.048617
-0.165883
-0.357671
-0.49069
-0.538349
-0.495
-0.376292
-0.215046
-0.0498831
0.0799657
0.153077
0.163357
0.12684
0.0733808
0.035509
2.87988
2.93497
3.04731
3.21784
3.44648
3.73197
4.06758
4.45747
4.8921
5.33594
5.77001
6.18742
6.57689
6.93294
7.24962
7.52242
7.74716
7.91934
8.03573
8.09439
8.09322
8.03086
7.90607
7.71908
7.47006
7.16336
6.80178
6.3995
5.97332
5.53559
5.10172
4.67108
4.24513
3.82459
3.40987
3.0015
2.60003
2.20602
1.82
1.44251
1.07411
0.715465
0.367381
0.0307558
-0.293563
-0.604355
-0.900447
-1.18043
-1.44279
-1.68591
-1.90814
-2.10788
-2.28353
-2.43352
-2.55639
-2.6508
-2.7155
-2.74938
-2.7519
-2.72233
-2.6606
-2.56658
-2.44069
-2.28372
-2.09683
-1.88159
-1.63997
-1.3744
-1.08778
-0.783447
-0.465016
-0.136499
0.19745
0.532217
0.86285
1.18408
1.49064
1.77723
2.03856
2.26947
2.46517
2.62118
2.7335
2.79877
2.81441
2.77922
2.69186
2.55239
2.36204
2.12323
1.83955
1.51575
1.1578
0.772579
0.368
-0.0476905
-0.463078
-0.868872
-1.2548
-1.61061
-1.92609
-2.19184
-2.39944
-2.54164
-2.61265
-2.60844
-2.52835
-2.37244
-2.14385
-1.84837
-1.49424
-1.0923
-0.655436
-0.198047
0.263146
0.710585
1.12747
1.49659
1.80198
2.02994
2.17003
2.21839
2.15061
1.98787
1.73127
1.39021
0.979352
0.517919
0.0277205
-0.465935
-0.933998
-1.35191
-1.69461
-1.9406
-2.07347
-2.08259
-1.96633
-1.72856
-1.38241
-0.948563
-0.454003
0.0731401
0.583232
1.04457
1.42334
1.69028
1.82341
1.81047
1.65109
1.35639
0.949279
0.462489
-0.0730681
-0.589237
-1.05013
-1.41404
-1.64704
-1.72722
-1.64888
-1.41979
-1.06432
-0.618417
-0.118014
0.349678
0.745463
1.02683
1.16282
1.13986
0.963902
0.661493
0.27566
-0.144134
-0.531179
-0.837113
-1.01885
-1.05345
-0.944853
-0.713958
-0.405154
-0.0689246
0.227843
0.440311
0.531173
0.488812
0.327834
0.0871675
-0.184482
-0.425041
-0.589643
-0.64538
-0.586453
-0.434042
-0.230864
-0.0265386
0.129568
0.210811
0.211012
0.152393
0.0748729
0.0214297
1.15015
1.23657
1.41294
1.6784
2.02868
2.45592
2.99926
3.57147
4.22963
4.96541
5.70843
6.4451
7.14635
7.77512
8.32821
8.80211
9.19303
9.49725
9.71113
9.83096
9.85244
9.77697
9.60115
9.32751
8.9572
8.49997
7.96432
7.36308
6.75884
6.15922
5.56885
4.99971
4.45389
3.93085
3.42882
2.94528
2.47803
2.02492
1.58453
1.15593
0.738767
0.333055
-0.0606258
-0.439773
-0.807228
-1.15969
-1.49555
-1.81304
-2.1103
-2.38536
-2.63617
-2.86068
-3.05682
-3.22263
-3.35629
-3.45604
-3.52033
-3.54787
-3.53767
-3.4888
-3.40118
-3.27479
-3.11005
-2.9079
-2.66975
-2.39751
-2.09358
-1.76093
-1.4031
-1.02415
-0.628534
-0.221154
0.192313
0.606249
1.01468
1.41111
1.78907
2.14219
2.46392
2.74804
2.9887
3.18051
3.31857
3.39892
3.41825
3.37501
3.26779
3.09679
2.86365
2.57134
2.22429
1.82837
1.39094
0.92044
0.42652
-0.0816679
-0.588078
-1.08231
-1.55186
-1.98419
-2.36683
-2.68843
-2.93849
-3.10832
-3.19104
-3.18195
-3.07965
-2.88467
-2.60104
-2.23594
-1.79959
-1.30528
-0.768722
-0.208055
0.356641
0.903909
1.41289
1.86262
2.23341
2.50801
2.67159
2.71034
2.64039
2.4415
2.12478
1.704
1.19784
0.630039
0.0277946
-0.577484
-1.15105
-1.66217
-2.08031
-2.37926
-2.53885
-2.54669
-2.40004
-2.10492
-1.67772
-1.14384
-0.535755
0.113473
0.738297
1.30117
1.76172
2.08453
2.24306
2.22316
2.02404
1.66018
1.1599
0.562391
-0.0923586
-0.722011
-1.28087
-1.71941
-1.99681
-2.08728
-1.98357
-1.69732
-1.25905
-0.711818
-0.0909189
0.47752
0.954904
1.29124
1.44916
1.41254
1.18958
0.813677
0.338157
-0.176906
-0.647909
-1.01682
-1.23183
-1.26618
-1.12317
-0.832345
-0.448892
-0.0347939
0.327806
0.584326
0.68977
0.630998
0.427292
0.127579
-0.207361
-0.501496
-0.700162
-0.763604
-0.686111
-0.495272
-0.245013
0.00262233
0.187094
0.275982
0.263244
0.178305
0.0726054
0.00105031
-1.67981
-1.55008
-1.27613
-0.842095
-0.224261
0.605644
1.60235
2.91396
4.83765
6.30999
7.61008
8.72314
9.65601
10.4622
11.1417
11.7008
12.143
12.4706
12.6847
12.7843
12.7681
12.6319
12.3639
11.9569
11.3852
10.6344
9.69957
8.2583
7.26532
6.42144
5.68051
5.02276
4.41679
3.84595
3.29817
2.77063
2.26103
1.76661
1.28544
0.816067
0.35797
-0.0888557
-0.521887
-0.944377
-1.35329
-1.74654
-2.1221
-2.47771
-2.81094
-3.1192
-3.39995
-3.65058
-3.86855
-4.05136
-4.19662
-4.30224
-4.36627
-4.38709
-4.36339
-4.29451
-4.17968
-4.01898
-3.81295
-3.56271
-3.26992
-2.93687
-2.56644
-2.16216
-1.72828
-1.26967
-0.791639
-0.300052
0.198384
0.69691
1.1883
1.66486
2.11892
2.54281
2.92877
3.2694
3.55765
3.78716
3.95214
4.04792
4.07049
4.01786
3.88862
3.68311
3.40334
3.05295
2.63728
2.16344
1.64026
1.078
0.488097
-0.120676
-0.724693
-1.31373
-1.87295
-2.38722
-2.84176
-3.22295
-3.51833
-3.71737
-3.81201
-3.79716
-3.67044
-3.43299
-3.08975
-2.64941
-2.12431
-1.53044
-0.886776
-0.214643
0.461147
1.11549
1.72334
2.25943
2.70038
3.02565
3.21812
3.26487
3.17261
2.93018
2.54721
2.03973
1.43048
0.748006
0.0246862
-0.700779
-1.3877
-1.99895
-2.49792
-2.85325
-3.04078
-3.04625
-2.86619
-2.50868
-1.99399
-1.35282
-0.623128
0.162171
0.909017
1.5798
2.12733
2.50938
2.6944
2.66573
2.42295
1.9841
1.38365
0.668072
-0.119248
-0.869016
-1.53164
-2.04909
-2.373
-2.47305
-2.34088
-1.99218
-1.46557
-0.812683
-0.052562
0.619776
1.18264
1.57669
1.75688
1.70422
1.4296
0.973826
0.40146
-0.216682
-0.777352
-1.2129
-1.4623
-1.49452
-1.31352
-0.957153
-0.492788
0.00539084
0.43839
0.741437
0.861425
0.78377
0.53298
0.168898
-0.234247
-0.585807
-0.820322
-0.89089
-0.792131
-0.558771
-0.257057
0.037213
0.25165
0.347504
0.319127
0.204054
0.0665191
-0.0253989
-5.64798
-5.48055
-5.13289
-4.59405
-3.84894
-2.87594
-1.67701
-0.0936545
2.66302
4.80114
6.72486
8.38496
9.81205
11.0274
12.0457
12.8811
13.5429
14.0372
14.3668
14.5304
14.5276
14.3552
13.9979
13.4467
12.6792
11.6762
10.4856
8.62681
7.53094
6.54733
5.68895
4.92518
4.23915
3.61231
3.03371
2.48555
1.95788
1.44302
0.937765
0.440079
-0.0500046
-0.529386
-1.00243
-1.46491
-1.91453
-2.34871
-2.76466
-3.15943
-3.52988
-3.8728
-4.18497
-4.46315
-4.70419
-4.90505
-5.06287
-5.17504
-5.23921
-5.25343
-5.21613
-5.12624
-4.98311
-4.78672
-4.53766
-4.23725
-3.88743
-3.49085
-3.05091
-2.57176
-2.05837
-1.51646
-0.952245
-0.372612
0.214595
0.801448
1.37951
1.93978
2.47325
2.97092
3.42376
3.82308
4.16073
4.42921
4.62178
4.73295
4.75837
4.69528
4.5423
4.29995
3.9706
3.55865
3.07041
2.51425
1.90068
1.24197
0.55208
-0.164923
-0.870507
-1.55887
-2.21206
-2.81227
-3.34211
-3.78554
-4.1281
-4.35758
-4.46442
-4.44271
-4.28979
-4.00725
-3.60092
-3.08109
-2.46234
-1.76355
-1.00724
-0.217985
0.57456
1.34127
2.05276
2.67947
3.19404
3.57258
3.79566
3.84999
3.73396
3.4443
2.99048
2.39121
1.67276
0.869149
0.0187252
-0.833406
-1.63964
-2.35601
-2.93963
-3.35361
-3.57001
-3.5721
-3.35603
-2.93217
-2.32496
-1.57157
-0.71693
0.220809
1.09235
1.87504
2.51324
2.9569
3.16885
3.12992
2.84024
2.32187
1.61641
0.778046
-0.153767
-1.02761
-1.79773
-2.39697
-2.76866
-2.87737
-2.71396
-2.2985
-1.67927
-0.9227
-0.000141027
0.77309
1.42398
1.87774
2.08019
2.00949
1.67939
1.13892
0.464731
-0.262991
-0.917024
-1.42156
-1.70586
-1.7343
-1.51232
-1.08596
-0.535731
0.0506936
0.557477
0.908686
1.0429
0.944236
0.642874
0.210312
-0.264734
-0.676465
-0.947927
-1.0249
-0.902572
-0.623394
-0.266782
0.076597
0.32205
0.424071
0.377667
0.229224
0.0567967
-0.0573335
-11.0997
-11.0789
-11.038
-11.0267
-11.0021
-11.0715
-11.2765
-11.3516
4.97351
4.59272
4.54702
4.28904
3.94038
3.54446
3.09221
2.61805
2.12325
1.6171
1.10226
0.584086
0.0642735
-0.452488
-0.968164
-1.47871
-1.98109
-2.47211
-2.94833
-3.40607
-3.84156
-4.2509
-4.63012
-4.97527
-5.28247
-5.54793
-5.76804
-5.93941
-6.05893
-6.12383
-6.13177
-6.08091
-5.96993
-5.79808
-5.56534
-5.27235
-4.92061
-4.51237
-4.05068
-3.53946
-2.98351
-2.38855
-1.76118
-1.10856
-0.438609
0.239639
0.91707
1.58399
2.23
2.84477
3.41796
3.9392
4.39847
4.78644
5.09447
5.31487
5.44133
5.46904
5.39462
5.21667
4.93585
4.55495
4.07906
3.51559
2.8742
2.16707
1.40853
0.615623
-0.212102
-1.0222
-1.81302
-2.56307
-3.25168
-3.85885
-4.36615
-4.75693
-5.01729
-5.13639
-5.10711
-4.92674
-4.59723
-4.12543
-3.52332
-2.80783
-2.00077
-1.128
-0.218344
0.694541
1.57693
2.395
3.11479
3.7049
4.13803
4.39208
4.45209
4.31276
3.97395
3.44648
2.75203
1.9207
0.991754
0.00972484
-0.973017
-1.90223
-2.72679
-3.39735
-3.87137
-4.11688
-4.11467
-3.86068
-3.36748
-2.66417
-1.79528
-0.813928
0.286652
1.28407
2.18106
2.91226
3.41889
3.65788
3.60735
3.26831
2.66716
1.85378
0.892504
-0.197123
-1.19456
-2.07402
-2.75675
-3.17665
-3.29305
-3.09611
-2.61038
-1.89461
-1.03605
0.0611338
0.932788
1.67397
2.18877
2.41332
2.32289
1.93453
1.30606
0.526893
-0.314765
-1.06416
-1.63885
-1.95799
-1.9813
-1.71599
-1.21653
-0.577207
0.100304
0.682777
1.08293
1.23083
1.10946
0.754998
0.25105
-0.298161
-0.771789
-1.08065
-1.16323
-1.01551
-0.688093
-0.274141
0.119931
0.396932
0.504268
0.437853
0.253486
0.0438087
-0.093947
-15.8752
-15.8595
-15.8245
-15.7819
-15.6922
-15.6234
-15.5798
-15.3729
4.90652
4.40181
4.2553
3.93819
3.5695
3.18981
2.75824
2.30494
1.82141
1.31787
0.790367
0.256495
-0.286554
-0.834727
-1.3856
-1.93515
-2.47924
-3.01355
-3.53363
-4.03493
-4.5128
-4.96256
-5.3795
-5.75896
-6.09637
-6.38733
-6.62765
-6.81339
-6.94096
-7.00716
-7.00928
-6.94514
-6.81326
-6.61274
-6.34354
-6.0064
-5.603
-5.13588
-4.60853
-4.02541
-3.39195
-2.71468
-2.00107
-1.25924
-0.498196
0.271886
1.04066
1.79715
2.52959
3.22627
3.87553
4.4656
4.98511
5.42356
5.77117
6.01927
6.16075
6.19018
6.1038
5.90007
5.57986
5.14635
4.60531
3.96524
3.23717
2.43482
1.57422
0.673271
-0.257028
-1.17652
-2.07183
-2.92004
-3.69805
-4.38331
-4.95496
-5.3943
-5.68551
-5.81651
-5.77922
-5.57068
-5.1932
-4.65472
-3.96895
-3.15521
-2.23834
-1.24746
-0.215918
0.818735
1.81816
2.74395
3.55775
4.22405
4.71205
4.99688
5.0616
4.89892
4.50997
3.90758
3.11601
2.17009
1.11412
-0.001945
-1.11707
-2.17082
-3.10488
-3.8632
-4.39768
-4.67209
-4.66483
-4.3716
-3.80717
-3.00553
-2.01921
-0.9129
0.35849
1.4798
2.49215
3.3174
3.88743
4.15322
4.09004
3.70002
3.01401
2.09106
1.00918
-0.247763
-1.36602
-2.35541
-3.1222
-3.59014
-3.71323
-3.48111
-2.92251
-2.10646
-1.13942
0.118274
1.09424
1.928
2.50447
2.75065
2.63922
2.1909
1.47264
0.587812
-0.371527
-1.21595
-1.86084
-2.21435
-2.23137
-1.9212
-1.34682
-0.616487
0.152968
0.811961
1.26105
1.42194
1.27664
0.867541
0.290539
-0.333851
-0.87006
-1.21618
-1.30354
-1.12912
-0.751957
-0.279223
0.166281
0.47487
0.586665
0.49871
0.276595
0.028044
-0.134298
-20.1555
-20.145
-20.124
-20.1003
-20.0564
-20.0408
-20.0158
-19.9761
4.22918
3.96862
3.82689
3.61991
3.28378
2.94523
2.52512
2.08153
1.59586
1.09361
0.518342
-0.0293909
-0.598829
-1.18112
-1.77073
-2.36227
-2.9505
-3.53015
-4.09587
-4.64225
-5.16386
-5.65524
-6.11096
-6.52566
-6.89412
-7.21132
-7.47252
-7.67326
-7.80949
-7.87755
-7.87437
-7.79745
-7.64511
-7.41636
-7.11113
-6.73025
-6.27558
-5.74999
-5.15737
-4.50276
-3.79224
-3.03311
-2.23375
-1.40325
-0.551646
0.309702
1.16925
2.01472
2.833
3.61104
4.33578
4.99411
5.57334
6.06173
6.44839
6.7237
6.87972
6.91041
6.81169
6.58184
6.22196
5.73561
5.12931
4.41257
3.59775
2.70024
1.73785
0.730507
-0.305179
-1.33223
-2.33151
-3.27749
-4.14449
-4.9074
-5.54297
-6.03044
-6.3521
-6.49456
-6.44895
-6.21194
-5.78628
-5.18096
-4.41148
-3.49957
-2.4729
-1.36444
-0.210899
0.944971
2.0609
3.09393
4.00123
4.74321
5.28555
5.60066
5.6695
5.48335
5.04414
4.3667
3.47781
2.41714
1.2341
-0.0154383
-1.26297
-2.441
-3.48424
-4.32987
-4.92431
-5.22707
-5.21415
-4.88101
-4.24459
-3.34362
-2.23907
-1.01109
0.433507
1.67525
2.80309
3.72233
4.35533
4.64733
4.57075
4.12894
3.35713
2.32383
1.12418
-0.302254
-1.53811
-2.63719
-3.4876
-4.00283
-4.1317
-3.86335
-3.23057
-2.31161
-1.22984
0.168425
1.25434
2.18205
2.81995
3.08702
2.95377
2.44473
1.63622
0.646757
-0.431893
-1.3696
-2.08387
-2.4709
-2.48071
-2.12492
-1.47507
-0.653555
0.207917
0.942793
1.44012
1.61319
1.44321
0.978884
0.328361
-0.371126
-0.969609
-1.35235
-1.44369
-1.24177
-0.814213
-0.282221
0.214679
0.554457
0.669888
0.559342
0.298384
0.0100552
-0.177385
-23.9839
-23.9784
-23.9667
-23.9559
-23.9332
-23.9288
-23.9082
-23.8958
3.9756
3.77147
3.592
3.49077
3.1227
2.80964
2.37707
1.93364
1.42336
0.897744
0.327057
-0.259033
-0.865676
-1.48768
-2.11979
-2.7561
-3.3906
-4.01723
-4.62985
-5.22231
-5.78845
-6.32208
-6.81708
-7.26742
-7.66727
-8.01104
-8.29345
-8.50955
-8.65484
-8.72525
-8.71735
-8.62823
-8.45609
-8.19985
-7.85945
-7.43577
-6.93087
-6.34793
-5.69128
-4.9665
-4.18032
-3.34084
-2.45733
-1.53981
-0.599356
0.351515
1.30007
2.2328
3.13525
3.99303
4.79175
5.51694
6.15461
6.69181
7.11653
7.41824
7.58818
7.61976
7.50853
7.25265
6.85339
6.31477
5.64402
4.8516
3.95124
2.95995
1.89742
0.785797
-0.35477
-1.48718
-2.58852
-3.63054
-4.58491
-5.42397
-6.12222
-6.65674
-7.00811
-7.16159
-7.10743
-6.84208
-6.36869
-5.69732
-4.84524
-3.83648
-2.70164
-1.47749
-0.203974
1.07111
2.30152
3.43988
4.43895
5.25512
5.85063
6.19519
6.26777
6.05819
5.56934
4.81771
3.83282
2.65865
1.35027
-0.030339
-1.40842
-2.70883
-3.85946
-4.79084
-5.44398
-5.77423
-5.75522
-5.38212
-4.67396
-3.67399
-2.45107
-1.10114
0.504199
1.86656
3.10941
4.12152
4.81629
5.13358
5.04317
4.54955
3.69215
2.54849
1.23356
-0.356902
-1.70742
-2.91529
-3.84795
-4.40917
-4.54299
-4.23803
-3.531
-2.50811
-1.30726
0.211257
1.41102
2.43272
3.13097
3.41795
3.26245
2.69282
1.79483
0.704536
-0.495935
-1.52256
-2.30469
-2.72405
-2.72599
-2.32454
-1.59976
-0.687954
0.263845
1.07323
1.61753
1.80191
1.60691
1.08764
0.364181
-0.409264
-1.0689
-1.48719
-1.58177
-1.35205
-0.874241
-0.28339
0.264199
0.63438
0.75269
0.618963
0.318751
-0.00958731
-0.222222
-27.3913
-27.3884
-27.3817
-27.3761
-27.362
-27.3607
-27.3457
-27.3409
3.89162
3.72571
3.54906
3.46523
2.99879
2.79773
2.2838
1.84262
1.31847
0.768303
0.174925
-0.44599
-1.09181
-1.75618
-2.43314
-3.11602
-3.79807
-4.47254
-5.13259
-5.77142
-6.38221
-6.9581
-7.49231
-7.97816
-8.40925
-8.77947
-9.08305
-9.3146
-9.46918
-9.54235
-9.53035
-9.42961
-9.23847
-8.95578
-8.58142
-8.11632
-7.56275
-6.92419
-6.2054
-5.41253
-4.55292
-3.63547
-2.67032
-1.66841
-0.641779
0.395888
1.43073
2.44803
3.43206
4.36712
5.23753
6.02747
6.7217
7.30608
7.76752
8.09456
8.2777
8.30989
8.18619
7.90468
7.46687
6.87721
6.14357
5.27742
4.29372
3.21114
2.05124
0.838373
-0.404698
-1.63932
-2.83973
-3.97497
-5.01412
-5.92699
-6.68599
-7.26599
-7.64601
-7.81002
-7.74719
-7.45403
-6.93397
-6.19815
-5.26558
-4.16237
-2.92226
-1.58561
-0.195602
1.19532
2.53692
3.7775
4.8656
5.75367
6.40059
6.77355
6.84956
6.61688
6.07961
5.25549
4.17713
2.89226
1.46149
-0.0463228
-1.55147
-2.97094
-4.22592
-5.24056
-5.95052
-6.30716
-6.28181
-5.86926
-5.09059
-3.99324
-2.65276
-1.17835
0.565634
2.05103
3.40755
4.51033
5.26499
5.60642
5.50202
4.95728
4.01562
2.76235
1.33078
-0.405186
-1.87127
-3.18637
-4.19907
-4.80455
-4.94249
-4.60119
-3.82097
-2.69486
-1.37073
0.245447
1.5629
2.67717
3.43392
3.73969
3.56185
2.9326
1.94672
0.760783
-0.562416
-1.67251
-2.52051
-2.9708
-2.96438
-2.5179
-1.71974
-0.719525
0.319746
1.20148
1.79103
1.98582
1.76589
1.1927
0.397805
-0.447636
-1.16659
-1.61904
-1.71618
-1.45878
-0.931555
-0.283007
0.313971
0.713475
0.833985
0.676907
0.337647
-0.0303328
-0.26789
-30.4178
-30.4161
-30.4116
-30.409
-30.3993
-30.3997
-30.3892
-30.3881
3.91474
3.76858
3.58559
3.49901
3.02195
2.76891
2.28752
1.81308
1.26895
0.688685
0.0636798
-0.594522
-1.28139
-1.98978
-2.71284
-3.44311
-4.17311
-4.89543
-5.60266
-6.28744
-6.94235
-7.55992
-8.13272
-8.65345
-9.11516
-9.51133
-9.83574
-10.0826
-10.2465
-10.3227
-10.3074
-10.1954
-9.98621
-9.67829
-9.27145
-8.76667
-8.16641
-7.47444
-6.69596
-5.83765
-4.90749
-3.91517
-2.87163
-1.78872
-0.67936
0.441595
1.55923
2.65766
3.71995
4.72913
5.66829
6.52034
7.26878
7.8983
8.39481
8.74593
8.94141
8.97407
8.8381
8.53167
8.05656
7.41761
6.62329
5.68608
4.62208
3.45158
2.19796
0.887781
-0.454154
-1.78695
-3.08256
-4.30736
-5.4279
-6.41157
-7.22886
-7.85241
-8.25973
-8.43381
-8.36236
-8.0421
-7.47694
-6.67892
-5.66864
-4.47452
-3.13306
-1.68796
-0.186162
1.3161
2.76455
4.10334
5.2769
6.23392
6.93007
7.33014
7.40932
7.15413
6.57014
5.67597
4.50752
3.11606
1.56726
-0.0632735
-1.69051
-3.22456
-4.57987
-5.67449
-6.43895
-6.82064
-6.78886
-6.33784
-5.49076
-4.29883
-2.84298
-1.24347
0.618286
2.2271
3.69474
4.88501
5.6971
6.06137
5.94303
5.34853
4.32492
2.96387
1.41242
-0.443465
-2.02795
-3.44784
-4.53754
-5.18518
-5.32655
-4.94967
-4.09828
-2.87139
-1.42507
0.275279
1.70911
2.91313
3.72588
4.04919
3.84927
3.16201
2.09049
0.812176
-0.627165
-1.81749
-2.72909
-3.20868
-3.19364
-2.70327
-1.83407
-0.748729
0.375231
1.32607
1.95878
2.16308
1.91866
1.29316
0.429174
-0.485728
-1.26153
-1.74651
-1.84562
-1.56105
-0.985804
-0.281389
0.363265
0.790742
0.912864
0.732638
0.355066
-0.051676
-0.313566
-33.1012
-33.1002
-33.0967
-33.0957
-33.0889
-33.0901
-33.0832
-33.0832
4.00958
3.87294
3.67683
3.57982
3.11254
2.80819
2.33171
1.83032
1.25986
0.647252
-0.0128328
-0.709984
-1.43903
-2.19218
-2.96173
-3.73936
-4.51686
-5.28625
-6.03967
-6.7693
-7.46723
-8.12538
-8.73567
-9.29021
-9.78153
-10.2028