/*--------------------------------*- C++ -*----------------------------------*\
  =========                 |
  \\      /  F ield         | OpenFOAM: The Open Source CFD Toolbox
   \\    /   O peration     | Website:  https://openfoam.org
    \\  /    A nd           | Version:  12
     \\/     M anipulation  |
\*---------------------------------------------------------------------------*/
FoamFile
{
    format      ascii;
    class       volScalarField;
    location    "14";
    object      p;
}
// * * * * * * * * * * * * * * * * * * * * * * * * * * * * * * * * * * * * * //

dimensions      [1 -1 -2 0 0 0 0];

internalField   nonuniform List<scalar> 
3829
(
-618.172
-618.17
-618.168
-618.163
-618.157
-618.15
-618.141
-618.13
-618.117
-618.102
-618.085
-618.066
-618.045
-618.02
-617.994
-617.964
-617.932
-617.896
-617.858
-617.816
-617.771
-617.722
-617.67
-617.615
-617.556
-617.494
-617.429
-617.36
-617.289
-617.214
-617.137
-617.057
-616.975
-616.892
-616.806
-616.72
-616.633
-616.545
-616.457
-616.369
-616.281
-616.195
-616.11
-616.028
-615.947
-615.869
-615.795
-615.724
-615.657
-615.594
-615.536
-615.482
-615.433
-615.389
-615.349
-615.314
-615.285
-615.259
-615.239
-615.223
-615.211
-615.203
-615.199
-615.197
-615.199
-615.203
-615.208
-615.214
-615.221
-615.228
-615.233
-615.238
-615.24
-615.239
-615.235
-615.227
-615.214
-615.197
-615.174
-615.146
-615.112
-615.072
-615.026
-614.975
-614.919
-614.859
-614.794
-614.727
-614.657
-614.586
-614.514
-614.444
-614.376
-614.311
-614.25
-614.196
-614.148
-614.109
-614.078
-614.057
-614.046
-614.045
-614.056
-614.076
-614.105
-614.142
-614.187
-614.237
-614.291
-614.347
-614.403
-614.456
-614.505
-614.548
-614.581
-614.605
-614.618
-614.619
-614.606
-614.58
-614.543
-614.495
-614.439
-614.377
-614.311
-614.244
-614.181
-614.123
-614.075
-614.039
-614.017
-614.012
-614.024
-614.053
-614.098
-614.157
-614.226
-614.302
-614.381
-614.457
-614.527
-614.585
-614.628
-614.653
-614.658
-614.641
-614.605
-614.552
-614.486
-614.411
-614.332
-614.257
-614.19
-614.137
-614.101
-614.085
-614.091
-614.115
-614.155
-614.206
-614.263
-614.319
-614.367
-614.404
-614.426
-614.427
-614.412
-614.382
-614.343
-614.3
-614.26
-614.229
-614.211
-614.209
-614.224
-614.254
-614.294
-614.338
-614.38
-614.413
-614.433
-614.437
-614.425
-614.402
-614.371
-614.339
-614.312
-614.294
-614.29
-614.297
-614.313
-614.334
-614.361
-614.376
-614.382
-614.379
-614.367
-614.352
-614.337
-614.328
-1776.66
-1776.66
-1776.66
-1776.66
-1776.65
-1776.65
-1776.64
-1776.63
-1776.62
-1776.61
-1776.6
-1776.58
-1776.56
-1776.54
-1776.51
-1776.48
-1776.45
-1776.41
-1776.38
-1776.33
-1776.28
-1776.23
-1776.17
-1776.11
-1776.05
-1775.98
-1775.9
-1775.83
-1775.74
-1775.66
-1775.57
-1775.48
-1775.38
-1775.28
-1775.19
-1775.08
-1774.98
-1774.88
-1774.78
-1774.68
-1774.58
-1774.48
-1774.38
-1774.29
-1774.2
-1774.11
-1774.03
-1773.96
-1773.89
-1773.82
-1773.76
-1773.71
-1773.66
-1773.62
-1773.58
-1773.55
-1773.53
-1773.51
-1773.5
-1773.49
-1773.49
-1773.49
-1773.5
-1773.51
-1773.52
-1773.54
-1773.56
-1773.57
-1773.59
-1773.61
-1773.63
-1773.64
-1773.65
-1773.66
-1773.66
-1773.66
-1773.65
-1773.64
-1773.62
-1773.59
-1773.55
-1773.51
-1773.46
-1773.4
-1773.34
-1773.27
-1773.19
-1773.12
-1773.03
-1772.95
-1772.87
-1772.78
-1772.7
-1772.63
-1772.56
-1772.49
-1772.44
-1772.39
-1772.36
-1772.33
-1772.32
-1772.33
-1772.34
-1772.37
-1772.41
-1772.46
-1772.52
-1772.58
-1772.65
-1772.72
-1772.79
-1772.86
-1772.92
-1772.97
-1773.02
-1773.05
-1773.06
-1773.06
-1773.05
-1773.01
-1772.97
-1772.91
-1772.84
-1772.76
-1772.68
-1772.6
-1772.52
-1772.45
-1772.39
-1772.34
-1772.32
-1772.31
-1772.32
-1772.36
-1772.41
-1772.49
-1772.57
-1772.66
-1772.76
-1772.85
-1772.94
-1773.01
-1773.06
-1773.09
-1773.09
-1773.07
-1773.03
-1772.96
-1772.88
-1772.79
-1772.69
-1772.6
-1772.52
-1772.46
-1772.42
-1772.41
-1772.41
-1772.45
-1772.5
-1772.56
-1772.63
-1772.7
-1772.76
-1772.81
-1772.83
-1772.83
-1772.81
-1772.77
-1772.72
-1772.67
-1772.62
-1772.58
-1772.55
-1772.55
-1772.57
-1772.61
-1772.66
-1772.71
-1772.76
-1772.8
-1772.82
-1772.83
-1772.81
-1772.78
-1772.74
-1772.7
-1772.67
-1772.65
-1772.65
-1772.66
-1772.68
-1772.71
-1772.73
-1772.75
-1772.76
-1772.76
-1772.74
-1772.72
-1772.7
-1772.69
-2803.02
-2803.02
-2803.02
-2803.02
-2803.02
-2803.02
-2803.02
-2803.02
-2803.02
-2803.02
-2803.01
-2803
-2802.99
-2802.98
-2802.96
-2802.94
-2802.91
-2802.88
-2802.84
-2802.8
-2802.74
-2802.69
-2802.62
-2802.55
-2802.47
-2802.39
-2802.29
-2802.19
-2802.09
-2801.98
-2801.86
-2801.75
-2801.62
-2801.5
-2801.37
-2801.24
-2801.12
-2800.99
-2800.86
-2800.73
-2800.61
-2800.49
-2800.38
-2800.27
-2800.16
-2800.06
-2799.97
-2799.88
-2799.8
-2799.73
-2799.67
-2799.61
-2799.56
-2799.53
-2799.5
-2799.47
-2799.46
-2799.46
-2799.46
-2799.47
-2799.49
-2799.51
-2799.54
-2799.57
-2799.6
-2799.64
-2799.68
-2799.72
-2799.77
-2799.8
-2799.84
-2799.88
-2799.9
-2799.93
-2799.94
-2799.95
-2799.95
-2799.94
-2799.92
-2799.89
-2799.85
-2799.8
-2799.74
-2799.67
-2799.59
-2799.51
-2799.41
-2799.31
-2799.21
-2799.1
-2798.99
-2798.89
-2798.79
-2798.69
-2798.6
-2798.52
-2798.45
-2798.39
-2798.35
-2798.32
-2798.32
-2798.33
-2798.35
-2798.39
-2798.45
-2798.52
-2798.6
-2798.7
-2798.79
-2798.89
-2798.99
-2799.08
-2799.17
-2799.24
-2799.3
-2799.34
-2799.36
-2799.36
-2799.34
-2799.3
-2799.23
-2799.15
-2799.06
-2798.95
-2798.84
-2798.73
-2798.62
-2798.52
-2798.44
-2798.38
-2798.34
-2798.33
-2798.35
-2798.4
-2798.48
-2798.57
-2798.69
-2798.81
-2798.94
-2799.06
-2799.17
-2799.27
-2799.33
-2799.37
-2799.37
-2799.34
-2799.28
-2799.19
-2799.08
-2798.96
-2798.83
-2798.72
-2798.61
-2798.54
-2798.49
-2798.47
-2798.49
-2798.54
-2798.61
-2798.7
-2798.8
-2798.89
-2798.97
-2799.03
-2799.05
-2799.05
-2799.02
-2798.96
-2798.89
-2798.82
-2798.75
-2798.69
-2798.67
-2798.66
-2798.69
-2798.74
-2798.81
-2798.88
-2798.94
-2799
-2799.02
-2799.02
-2799
-2798.96
-2798.91
-2798.85
-2798.81
-2798.78
-2798.78
-2798.8
-2798.83
-2798.87
-2798.91
-2798.93
-2798.94
-2798.93
-2798.91
-2798.88
-2798.85
-2798.84
-3712.23
-3712.23
-3712.24
-3712.25
-3712.26
-3712.28
-3712.29
-3712.31
-3712.33
-3712.35
-3712.37
-3712.38
-3712.39
-3712.4
-3712.4
-3712.39
-3712.38
-3712.36
-3712.33
-3712.28
-3712.23
-3712.16
-3712.09
-3712
-3711.9
-3711.79
-3711.67
-3711.53
-3711.39
-3711.24
-3711.09
-3710.93
-3710.76
-3710.59
-3710.42
-3710.25
-3710.08
-3709.91
-3709.74
-3709.58
-3709.42
-3709.27
-3709.12
-3708.98
-3708.85
-3708.73
-3708.62
-3708.53
-3708.44
-3708.37
-3708.31
-3708.26
-3708.22
-3708.19
-3708.17
-3708.17
-3708.17
-3708.19
-3708.22
-3708.25
-3708.3
-3708.35
-3708.41
-3708.47
-3708.54
-3708.61
-3708.69
-3708.76
-3708.84
-3708.91
-3708.97
-3709.03
-3709.09
-3709.13
-3709.16
-3709.19
-3709.2
-3709.2
-3709.18
-3709.15
-3709.1
-3709.04
-3708.97
-3708.88
-3708.78
-3708.66
-3708.54
-3708.41
-3708.27
-3708.13
-3707.99
-3707.85
-3707.71
-3707.58
-3707.46
-3707.36
-3707.27
-3707.2
-3707.15
-3707.11
-3707.11
-3707.13
-3707.17
-3707.24
-3707.32
-3707.42
-3707.54
-3707.67
-3707.81
-3707.95
-3708.08
-3708.22
-3708.33
-3708.44
-3708.52
-3708.57
-3708.6
-3708.6
-3708.57
-3708.51
-3708.42
-3708.31
-3708.18
-3708.03
-3707.88
-3707.72
-3707.57
-3707.44
-3707.33
-3707.25
-3707.2
-3707.18
-3707.21
-3707.28
-3707.38
-3707.51
-3707.66
-3707.83
-3708.01
-3708.18
-3708.32
-3708.45
-3708.53
-3708.58
-3708.58
-3708.54
-3708.45
-3708.33
-3708.18
-3708.02
-3707.84
-3707.69
-3707.55
-3707.45
-3707.39
-3707.38
-3707.41
-3707.48
-3707.59
-3707.71
-3707.85
-3707.98
-3708.08
-3708.15
-3708.19
-3708.18
-3708.13
-3708.05
-3707.95
-3707.84
-3707.74
-3707.67
-3707.63
-3707.63
-3707.67
-3707.74
-3707.83
-3707.93
-3708.02
-3708.08
-3708.12
-3708.12
-3708.08
-3708.02
-3707.95
-3707.87
-3707.82
-3707.78
-3707.78
-3707.81
-3707.86
-3707.91
-3707.96
-3707.99
-3708
-3707.99
-3707.96
-3707.92
-3707.88
-3707.85
-4517.6
-4517.61
-4517.63
-4517.66
-4517.7
-4517.74
-4517.79
-4517.85
-4517.91
-4517.98
-4518.05
-4518.11
-4518.18
-4518.23
-4518.28
-4518.31
-4518.33
-4518.33
-4518.31
-4518.28
-4518.22
-4518.14
-4518.04
-4517.93
-4517.79
-4517.63
-4517.46
-4517.27
-4517.07
-4516.86
-4516.64
-4516.41
-4516.18
-4515.95
-4515.71
-4515.48
-4515.25
-4515.02
-4514.81
-4514.59
-4514.39
-4514.2
-4514.02
-4513.86
-4513.71
-4513.57
-4513.44
-4513.33
-4513.23
-4513.15
-4513.09
-4513.04
-4513.01
-4513
-4513
-4513.01
-4513.05
-4513.09
-4513.15
-4513.22
-4513.31
-4513.4
-4513.5
-4513.61
-4513.72
-4513.83
-4513.95
-4514.07
-4514.18
-4514.29
-4514.4
-4514.49
-4514.58
-4514.65
-4514.71
-4514.75
-4514.77
-4514.78
-4514.77
-4514.73
-4514.67
-4514.6
-4514.5
-4514.39
-4514.26
-4514.11
-4513.95
-4513.77
-4513.59
-4513.41
-4513.22
-4513.03
-4512.85
-4512.69
-4512.53
-4512.39
-4512.28
-4512.19
-4512.12
-4512.08
-4512.09
-4512.12
-4512.18
-4512.27
-4512.39
-4512.54
-4512.7
-4512.88
-4513.07
-4513.26
-4513.45
-4513.63
-4513.8
-4513.94
-4514.05
-4514.12
-4514.16
-4514.16
-4514.12
-4514.03
-4513.91
-4513.75
-4513.57
-4513.37
-4513.16
-4512.95
-4512.75
-4512.57
-4512.42
-4512.31
-4512.24
-4512.23
-4512.27
-4512.35
-4512.49
-4512.66
-4512.87
-4513.09
-4513.34
-4513.56
-4513.76
-4513.92
-4514.04
-4514.09
-4514.09
-4514.03
-4513.91
-4513.74
-4513.54
-4513.32
-4513.09
-4512.88
-4512.71
-4512.58
-4512.5
-4512.49
-4512.54
-4512.65
-4512.8
-4512.97
-4513.16
-4513.33
-4513.47
-4513.56
-4513.6
-4513.58
-4513.51
-4513.4
-4513.25
-4513.11
-4512.97
-4512.88
-4512.82
-4512.82
-4512.88
-4512.97
-4513.1
-4513.23
-4513.35
-4513.44
-4513.48
-4513.48
-4513.42
-4513.34
-4513.23
-4513.14
-4513.06
-4513.02
-4513.02
-4513.06
-4513.13
-4513.2
-4513.27
-4513.32
-4513.33
-4513.31
-4513.26
-4513.2
-4513.15
-4513.11
-5230.68
-5230.7
-5230.75
-5230.81
-5230.89
-5230.98
-5231.09
-5231.22
-5231.34
-5231.48
-5231.61
-5231.73
-5231.86
-5231.97
-5232.08
-5232.17
-5232.25
-5232.32
-5232.37
-5232.39
-5232.38
-5232.33
-5232.24
-5232.12
-5231.95
-5231.75
-5231.51
-5231.24
-5230.95
-5230.64
-5230.32
-5230
-5229.67
-5229.35
-5229.03
-5228.71
-5228.4
-5228.11
-5227.82
-5227.56
-5227.3
-5227.07
-5226.85
-5226.65
-5226.46
-5226.29
-5226.16
-5226.04
-5225.95
-5225.88
-5225.82
-5225.79
-5225.78
-5225.78
-5225.81
-5225.86
-5225.93
-5226.01
-5226.11
-5226.23
-5226.36
-5226.5
-5226.65
-5226.81
-5226.98
-5227.15
-5227.32
-5227.49
-5227.66
-5227.81
-5227.96
-5228.1
-5228.22
-5228.33
-5228.41
-5228.47
-5228.51
-5228.53
-5228.51
-5228.47
-5228.41
-5228.31
-5228.19
-5228.05
-5227.88
-5227.68
-5227.48
-5227.25
-5227.01
-5226.77
-5226.53
-5226.29
-5226.05
-5225.84
-5225.64
-5225.46
-5225.31
-5225.2
-5225.12
-5225.08
-5225.09
-5225.13
-5225.22
-5225.34
-5225.51
-5225.7
-5225.92
-5226.17
-5226.42
-5226.68
-5226.93
-5227.17
-5227.39
-5227.58
-5227.72
-5227.82
-5227.87
-5227.87
-5227.81
-5227.7
-5227.53
-5227.32
-5227.08
-5226.81
-5226.53
-5226.25
-5225.98
-5225.74
-5225.54
-5225.4
-5225.32
-5225.3
-5225.35
-5225.47
-5225.65
-5225.88
-5226.16
-5226.45
-5226.77
-5227.06
-5227.32
-5227.53
-5227.68
-5227.75
-5227.74
-5227.65
-5227.49
-5227.27
-5227
-5226.71
-5226.42
-5226.14
-5225.92
-5225.75
-5225.67
-5225.66
-5225.74
-5225.88
-5226.08
-5226.32
-5226.56
-5226.79
-5226.97
-5227.09
-5227.13
-5227.1
-5227
-5226.84
-5226.65
-5226.45
-5226.28
-5226.15
-5226.08
-5226.09
-5226.16
-5226.29
-5226.46
-5226.63
-5226.79
-5226.9
-5226.95
-5226.94
-5226.87
-5226.75
-5226.61
-5226.48
-5226.38
-5226.34
-5226.34
-5226.4
-5226.49
-5226.59
-5226.68
-5226.74
-5226.75
-5226.72
-5226.65
-5226.57
-5226.5
-5226.46
-5862.02
-5862.07
-5862.17
-5862.32
-5862.51
-5862.76
-5863.04
-5863.36
-5863.71
-5864.07
-5864.45
-5864.81
-5865.16
-5865.5
-5865.83
-5866.12
-5866.37
-5866.55
-5866.61
-5866.56
-5866.43
-5866.23
-5865.97
-5865.66
-5865.31
-5864.92
-5864.5
-5864.03
-5863.57
-5863.1
-5862.63
-5862.16
-5861.7
-5861.25
-5860.82
-5860.41
-5860.01
-5859.64
-5859.29
-5858.96
-5858.65
-5858.37
-5858.12
-5857.9
-5857.7
-5857.54
-5857.38
-5857.25
-5857.15
-5857.08
-5857.04
-5857.02
-5857.03
-5857.07
-5857.13
-5857.21
-5857.32
-5857.45
-5857.6
-5857.77
-5857.96
-5858.16
-5858.38
-5858.6
-5858.83
-5859.06
-5859.29
-5859.53
-5859.75
-5859.96
-5860.17
-5860.35
-5860.52
-5860.66
-5860.77
-5860.86
-5860.92
-5860.94
-5860.93
-5860.88
-5860.8
-5860.68
-5860.53
-5860.34
-5860.12
-5859.88
-5859.61
-5859.33
-5859.03
-5858.72
-5858.41
-5858.1
-5857.8
-5857.53
-5857.27
-5857.05
-5856.87
-5856.73
-5856.64
-5856.59
-5856.6
-5856.66
-5856.78
-5856.95
-5857.16
-5857.42
-5857.71
-5858.02
-5858.35
-5858.69
-5859.02
-5859.33
-5859.61
-5859.85
-5860.04
-5860.17
-5860.23
-5860.22
-5860.14
-5859.99
-5859.78
-5859.51
-5859.19
-5858.84
-5858.48
-5858.11
-5857.77
-5857.46
-5857.21
-5857.02
-5856.92
-5856.9
-5856.96
-5857.12
-5857.35
-5857.65
-5858.01
-5858.39
-5858.79
-5859.16
-5859.49
-5859.76
-5859.95
-5860.03
-5860.02
-5859.9
-5859.69
-5859.4
-5859.06
-5858.68
-5858.31
-5857.96
-5857.68
-5857.47
-5857.37
-5857.37
-5857.48
-5857.68
-5857.94
-5858.25
-5858.56
-5858.85
-5859.08
-5859.23
-5859.28
-5859.23
-5859.09
-5858.88
-5858.63
-5858.38
-5858.15
-5857.98
-5857.9
-5857.91
-5858.01
-5858.18
-5858.39
-5858.62
-5858.82
-5858.96
-5859.02
-5859
-5858.9
-5858.75
-5858.57
-5858.4
-5858.28
-5858.22
-5858.23
-5858.31
-5858.43
-5858.56
-5858.68
-5858.75
-5858.76
-5858.72
-5858.63
-5858.52
-5858.43
-5858.38
-6420.04
-6420.13
-6420.33
-6420.64
-6421.01
-6421.44
-6421.93
-6422.47
-6423.05
-6423.64
-6424.22
-6424.79
-6425.32
-6425.78
-6426.15
-6426.43
-6426.61
-6426.69
-6426.72
-6426.73
-6426.74
-6426.74
-6426.65
-6426.46
-6426.15
-6425.72
-6425.19
-6424.58
-6423.95
-6423.3
-6422.66
-6422.03
-6421.42
-6420.84
-6420.29
-6419.77
-6419.29
-6418.84
-6418.42
-6418.04
-6417.69
-6417.38
-6417.1
-6416.85
-6416.63
-6416.45
-6416.29
-6416.18
-6416.09
-6416.04
-6416.02
-6416.03
-6416.07
-6416.14
-6416.24
-6416.38
-6416.53
-6416.72
-6416.93
-6417.16
-6417.41
-6417.68
-6417.96
-6418.26
-6418.56
-6418.86
-6419.16
-6419.46
-6419.75
-6420.03
-6420.29
-6420.53
-6420.74
-6420.93
-6421.08
-6421.19
-6421.26
-6421.29
-6421.28
-6421.23
-6421.12
-6420.98
-6420.79
-6420.56
-6420.29
-6419.98
-6419.65
-6419.29
-6418.92
-6418.53
-6418.15
-6417.76
-6417.4
-6417.05
-6416.74
-6416.47
-6416.24
-6416.07
-6415.96
-6415.92
-6415.93
-6416.01
-6416.16
-6416.37
-6416.65
-6416.97
-6417.34
-6417.74
-6418.16
-6418.58
-6419
-6419.39
-6419.75
-6420.05
-6420.28
-6420.44
-6420.52
-6420.5
-6420.4
-6420.21
-6419.94
-6419.59
-6419.19
-6418.75
-6418.29
-6417.83
-6417.4
-6417.02
-6416.7
-6416.47
-6416.33
-6416.31
-6416.4
-6416.6
-6416.9
-6417.28
-6417.72
-6418.2
-6418.7
-6419.16
-6419.57
-6419.9
-6420.13
-6420.23
-6420.21
-6420.06
-6419.79
-6419.42
-6418.99
-6418.52
-6418.05
-6417.63
-6417.28
-6417.03
-6416.91
-6416.93
-6417.07
-6417.32
-6417.66
-6418.05
-6418.44
-6418.8
-6419.09
-6419.26
-6419.32
-6419.25
-6419.07
-6418.8
-6418.49
-6418.16
-6417.88
-6417.67
-6417.57
-6417.59
-6417.72
-6417.93
-6418.2
-6418.49
-6418.74
-6418.91
-6418.98
-6418.95
-6418.82
-6418.62
-6418.39
-6418.18
-6418.03
-6417.96
-6417.99
-6418.09
-6418.24
-6418.41
-6418.55
-6418.64
-6418.65
-6418.59
-6418.48
-6418.35
-6418.23
-6418.16
-6914.04
-6914.16
-6914.41
-6914.76
-6915.3
-6916
-6916.86
-6917.86
-6918.91
-6919.97
-6921.03
-6922.05
-6923
-6923.87
-6924.64
-6925.3
-6925.85
-6926.32
-6926.68
-6926.92
-6926.96
-6926.75
-6926.29
-6925.66
-6924.87
-6923.95
-6922.92
-6921.78
-6920.69
-6919.67
-6918.72
-6917.84
-6917.03
-6916.29
-6915.62
-6915
-6914.44
-6913.94
-6913.47
-6913.06
-6912.68
-6912.34
-6912.05
-6911.79
-6911.57
-6911.39
-6911.25
-6911.14
-6911.07
-6911.03
-6911.03
-6911.07
-6911.15
-6911.27
-6911.41
-6911.6
-6911.81
-6912.06
-6912.33
-6912.63
-6912.95
-6913.29
-6913.65
-6914.02
-6914.4
-6914.78
-6915.16
-6915.53
-6915.9
-6916.24
-6916.57
-6916.86
-6917.13
-6917.36
-6917.54
-6917.68
-6917.78
-6917.82
-6917.8
-6917.74
-6917.61
-6917.43
-6917.2
-6916.92
-6916.59
-6916.22
-6915.81
-6915.38
-6914.92
-6914.45
-6913.98
-6913.51
-6913.06
-6912.65
-6912.27
-6911.94
-6911.67
-6911.46
-6911.33
-6911.28
-6911.3
-6911.41
-6911.59
-6911.86
-6912.2
-6912.6
-6913.06
-6913.55
-6914.07
-6914.59
-6915.1
-6915.59
-6916.02
-6916.39
-6916.67
-6916.87
-6916.96
-6916.94
-6916.81
-6916.57
-6916.23
-6915.81
-6915.31
-6914.77
-6914.2
-6913.64
-6913.11
-6912.64
-6912.25
-6911.97
-6911.81
-6911.79
-6911.9
-6912.15
-6912.51
-6912.98
-6913.53
-6914.12
-6914.72
-6915.28
-6915.78
-6916.18
-6916.45
-6916.57
-6916.53
-6916.34
-6916.01
-6915.56
-6915.03
-6914.46
-6913.89
-6913.38
-6912.96
-6912.67
-6912.53
-6912.55
-6912.74
-6913.06
-6913.48
-6913.95
-6914.44
-6914.87
-6915.22
-6915.43
-6915.49
-6915.4
-6915.17
-6914.83
-6914.44
-6914.04
-6913.7
-6913.45
-6913.33
-6913.35
-6913.51
-6913.78
-6914.12
-6914.47
-6914.76
-6914.97
-6915.05
-6915
-6914.84
-6914.59
-6914.32
-6914.06
-6913.88
-6913.8
-6913.83
-6913.96
-6914.15
-6914.36
-6914.54
-6914.64
-6914.65
-6914.58
-6914.44
-6914.27
-6914.12
-6914.04
-7349.02
-7349.21
-7349.6
-7350.21
-7351.06
-7352.3
-7353.85
-7355.84
-7358.85
-7360.92
-7362.6
-7364.07
-7365.35
-7366.44
-7367.36
-7368.12
-7368.72
-7369.22
-7369.59
-7369.84
-7369.87
-7369.67
-7369.2
-7368.43
-7367.37
-7366.01
-7364.43
-7361.6
-7360.08
-7358.66
-7357.49
-7356.46
-7355.55
-7354.74
-7354.01
-7353.36
-7352.77
-7352.24
-7351.76
-7351.33
-7350.94
-7350.6
-7350.3
-7350.04
-7349.83
-7349.65
-7349.52
-7349.43
-7349.38
-7349.37
-7349.4
-7349.48
-7349.6
-7349.75
-7349.95
-7350.19
-7350.46
-7350.77
-7351.12
-7351.49
-7351.89
-7352.31
-7352.74
-7353.2
-7353.66
-7354.12
-7354.58
-7355.04
-7355.48
-7355.89
-7356.29
-7356.64
-7356.96
-7357.24
-7357.46
-7357.63
-7357.74
-7357.79
-7357.78
-7357.7
-7357.55
-7357.33
-7357.06
-7356.72
-7356.32
-7355.88
-7355.39
-7354.87
-7354.32
-7353.76
-7353.2
-7352.65
-7352.11
-7351.62
-7351.16
-7350.77
-7350.45
-7350.21
-7350.06
-7350
-7350.03
-7350.16
-7350.39
-7350.72
-7351.13
-7351.62
-7352.17
-7352.76
-7353.38
-7354.01
-7354.63
-7355.21
-7355.72
-7356.16
-7356.5
-7356.73
-7356.84
-7356.81
-7356.65
-7356.36
-7355.95
-7355.44
-7354.84
-7354.19
-7353.51
-7352.84
-7352.21
-7351.64
-7351.18
-7350.85
-7350.66
-7350.63
-7350.77
-7351.07
-7351.51
-7352.08
-7352.73
-7353.44
-7354.15
-7354.82
-7355.42
-7355.89
-7356.2
-7356.34
-7356.29
-7356.05
-7355.65
-7355.11
-7354.47
-7353.79
-7353.12
-7352.51
-7352.01
-7351.68
-7351.52
-7351.56
-7351.79
-7352.18
-7352.69
-7353.27
-7353.84
-7354.36
-7354.77
-7355.01
-7355.08
-7354.96
-7354.67
-7354.27
-7353.79
-7353.32
-7352.9
-7352.61
-7352.47
-7352.5
-7352.7
-7353.03
-7353.43
-7353.85
-7354.2
-7354.44
-7354.54
-7354.47
-7354.27
-7353.97
-7353.64
-7353.34
-7353.12
-7353.03
-7353.08
-7353.24
-7353.47
-7353.71
-7353.93
-7354.05
-7354.06
-7353.96
-7353.79
-7353.59
-7353.42
-7353.32
-7732.34
-7732.59
-7733.1
-7733.95
-7735.19
-7736.77
-7738.6
-7741.16
-7745.32
-7748.53
-7751.39
-7753.85
-7755.94
-7757.71
-7759.15
-7760.3
-7761.16
-7761.65
-7761.79
-7761.58
-7761.08
-7760.36
-7759.51
-7758.45
-7757.09
-7755.38
-7753.39
-7750.4
-7748.44
-7746.73
-7745.57
-7744.45
-7743.5
-7742.68
-7741.97
-7741.33
-7740.76
-7740.25
-7739.78
-7739.36
-7738.98
-7738.65
-7738.36
-7738.11
-7737.9
-7737.74
-7737.62
-7737.55
-7737.52
-7737.54
-7737.6
-7737.71
-7737.87
-7738.08
-7738.33
-7738.62
-7738.96
-7739.34
-7739.75
-7740.2
-7740.67
-7741.17
-7741.7
-7742.23
-7742.78
-7743.33
-7743.88
-7744.41
-7744.93
-7745.43
-7745.89
-7746.31
-7746.69
-7747.01
-7747.27
-7747.47
-7747.6
-7747.66
-7747.64
-7747.54
-7747.37
-7747.12
-7746.79
-7746.39
-7745.93
-7745.41
-7744.84
-7744.22
-7743.58
-7742.93
-7742.27
-7741.62
-7741
-7740.41
-7739.89
-7739.43
-7739.06
-7738.78
-7738.6
-7738.53
-7738.58
-7738.74
-7739.02
-7739.41
-7739.89
-7740.47
-7741.12
-7741.82
-7742.55
-7743.29
-7744.02
-7744.69
-7745.3
-7745.82
-7746.22
-7746.48
-7746.6
-7746.56
-7746.37
-7746.03
-7745.54
-7744.94
-7744.23
-7743.47
-7742.67
-7741.88
-7741.13
-7740.48
-7739.94
-7739.55
-7739.33
-7739.31
-7739.47
-7739.83
-7740.35
-7741.01
-7741.78
-7742.61
-7743.44
-7744.23
-7744.92
-7745.46
-7745.83
-7745.98
-7745.91
-7745.63
-7745.15
-7744.52
-7743.77
-7742.97
-7742.18
-7741.48
-7740.9
-7740.52
-7740.35
-7740.41
-7740.69
-7741.15
-7741.75
-7742.43
-7743.11
-7743.71
-7744.18
-7744.46
-7744.53
-7744.38
-7744.04
-7743.56
-7743
-7742.43
-7741.95
-7741.61
-7741.45
-7741.5
-7741.74
-7742.12
-7742.6
-7743.09
-7743.5
-7743.78
-7743.88
-7743.8
-7743.55
-7743.2
-7742.81
-7742.45
-7742.21
-7742.11
-7742.17
-7742.36
-7742.63
-7742.92
-7743.18
-7743.31
-7743.32
-7743.2
-7743
-7742.77
-7742.56
-7742.44
-8070.09
-8070.2
-8070.4
-8070.69
-8070.99
-8071.31
-8071.61
-8072
-8089.04
-8088.53
-8088.16
-8087.65
-8087.08
-8086.47
-8085.89
-8085.31
-8084.77
-8084.26
-8083.79
-8083.35
-8082.95
-8082.59
-8082.27
-8081.99
-8081.75
-8081.55
-8081.4
-8081.3
-8081.24
-8081.24
-8081.28
-8081.38
-8081.53
-8081.73
-8081.98
-8082.28
-8082.64
-8083.03
-8083.48
-8083.97
-8084.49
-8085.05
-8085.63
-8086.24
-8086.86
-8087.5
-8088.14
-8088.77
-8089.39
-8089.99
-8090.56
-8091.09
-8091.58
-8092.01
-8092.39
-8092.69
-8092.92
-8093.07
-8093.13
-8093.11
-8093
-8092.79
-8092.5
-8092.12
-8091.66
-8091.13
-8090.53
-8089.87
-8089.16
-8088.42
-8087.67
-8086.91
-8086.16
-8085.45
-8084.78
-8084.18
-8083.66
-8083.23
-8082.91
-8082.71
-8082.63
-8082.69
-8082.88
-8083.21
-8083.66
-8084.23
-8084.9
-8085.65
-8086.46
-8087.31
-8088.16
-8088.99
-8089.78
-8090.48
-8091.07
-8091.53
-8091.83
-8091.96
-8091.92
-8091.69
-8091.29
-8090.72
-8090.02
-8089.21
-8088.32
-8087.4
-8086.49
-8085.63
-8084.88
-8084.26
-8083.81
-8083.57
-8083.54
-8083.74
-8084.15
-8084.76
-8085.52
-8086.41
-8087.36
-8088.32
-8089.22
-8090.01
-8090.63
-8091.04
-8091.21
-8091.13
-8090.8
-8090.24
-8089.51
-8088.64
-8087.72
-8086.82
-8086.02
-8085.37
-8084.93
-8084.75
-8084.82
-8085.15
-8085.7
-8086.4
-8087.18
-8087.96
-8088.65
-8089.19
-8089.5
-8089.57
-8089.39
-8088.99
-8088.43
-8087.78
-8087.13
-8086.57
-8086.18
-8086.01
-8086.07
-8086.35
-8086.8
-8087.34
-8087.91
-8088.38
-8088.7
-8088.81
-8088.71
-8088.42
-8088.01
-8087.56
-8087.15
-8086.87
-8086.76
-8086.84
-8087.06
-8087.38
-8087.71
-8088.01
-8088.16
-8088.16
-8088.03
-8087.79
-8087.52
-8087.28
-8087.14
-8368.12
-8368.14
-8368.16
-8368.18
-8368.17
-8368.13
-8368.62
-8368.99
-8392.3
-8391.93
-8391.63
-8391.24
-8390.8
-8390.32
-8389.85
-8389.36
-8388.9
-8388.44
-8388.01
-8387.6
-8387.22
-8386.88
-8386.56
-8386.29
-8386.06
-8385.88
-8385.74
-8385.65
-8385.61
-8385.62
-8385.69
-8385.82
-8386.01
-8386.25
-8386.55
-8386.9
-8387.32
-8387.78
-8388.29
-8388.85
-8389.45
-8390.09
-8390.76
-8391.45
-8392.16
-8392.89
-8393.61
-8394.33
-8395.04
-8395.72
-8396.37
-8396.97
-8397.52
-8398.01
-8398.44
-8398.78
-8399.04
-8399.2
-8399.28
-8399.25
-8399.12
-8398.89
-8398.55
-8398.12
-8397.6
-8396.99
-8396.31
-8395.56
-8394.76
-8393.92
-8393.06
-8392.21
-8391.36
-8390.55
-8389.8
-8389.12
-8388.53
-8388.05
-8387.69
-8387.46
-8387.38
-8387.45
-8387.68
-8388.05
-8388.57
-8389.21
-8389.98
-8390.83
-8391.75
-8392.72
-8393.69
-8394.64
-8395.52
-8396.32
-8396.99
-8397.5
-8397.84
-8397.99
-8397.93
-8397.67
-8397.21
-8396.57
-8395.77
-8394.84
-8393.84
-8392.79
-8391.75
-8390.78
-8389.93
-8389.23
-8388.72
-8388.45
-8388.43
-8388.66
-8389.13
-8389.82
-8390.69
-8391.7
-8392.77
-8393.86
-8394.88
-8395.77
-8396.47
-8396.93
-8397.11
-8397.01
-8396.63
-8395.99
-8395.15
-8394.17
-8393.13
-8392.12
-8391.21
-8390.48
-8389.99
-8389.79
-8389.89
-8390.28
-8390.9
-8391.7
-8392.59
-8393.47
-8394.25
-8394.85
-8395.2
-8395.27
-8395.06
-8394.6
-8393.95
-8393.21
-8392.48
-8391.85
-8391.41
-8391.22
-8391.29
-8391.62
-8392.13
-8392.75
-8393.4
-8393.93
-8394.28
-8394.4
-8394.27
-8393.94
-8393.48
-8392.97
-8392.5
-8392.19
-8392.07
-8392.16
-8392.43
-8392.79
-8393.16
-8393.49
-8393.66
-8393.66
-8393.51
-8393.24
-8392.93
-8392.66
-8392.5
-8632.47
-8632.51
-8632.61
-8632.78
-8633.04
-8633.41
-8633.11
-8633.1
-8660.96
-8660.75
-8660.55
-8660.27
-8659.93
-8659.53
-8659.12
-8658.7
-8658.28
-8657.86
-8657.45
-8657.06
-8656.69
-8656.36
-8656.05
-8655.78
-8655.56
-8655.38
-8655.25
-8655.17
-8655.15
-8655.18
-8655.28
-8655.43
-8655.65
-8655.94
-8656.28
-8656.69
-8657.16
-8657.68
-8658.26
-8658.89
-8659.57
-8660.29
-8661.04
-8661.82
-8662.62
-8663.43
-8664.24
-8665.05
-8665.84
-8666.6
-8667.32
-8668
-8668.61
-8669.16
-8669.63
-8670.01
-8670.3
-8670.48
-8670.56
-8670.53
-8670.38
-8670.12
-8669.74
-8669.26
-8668.67
-8667.99
-8667.23
-8666.39
-8665.49
-8664.56
-8663.6
-8662.64
-8661.7
-8660.8
-8659.96
-8659.2
-8658.54
-8658
-8657.61
-8657.36
-8657.28
-8657.36
-8657.61
-8658.03
-8658.61
-8659.34
-8660.2
-8661.16
-8662.19
-8663.27
-8664.36
-8665.42
-8666.41
-8667.3
-8668.05
-8668.62
-8669
-8669.16
-8669.09
-8668.79
-8668.27
-8667.55
-8666.65
-8665.62
-8664.49
-8663.31
-8662.16
-8661.07
-8660.11
-8659.34
-8658.78
-8658.48
-8658.46
-8658.72
-8659.25
-8660.02
-8661
-8662.13
-8663.33
-8664.54
-8665.68
-8666.66
-8667.44
-8667.95
-8668.15
-8668.03
-8667.59
-8666.88
-8665.93
-8664.84
-8663.68
-8662.55
-8661.53
-8660.73
-8660.2
-8659.98
-8660.11
-8660.54
-8661.25
-8662.15
-8663.14
-8664.13
-8665
-8665.66
-8666.05
-8666.11
-8665.87
-8665.34
-8664.61
-8663.78
-8662.96
-8662.26
-8661.78
-8661.57
-8661.66
-8662.03
-8662.6
-8663.29
-8664.03
-8664.61
-8665
-8665.12
-8664.98
-8664.61
-8664.08
-8663.52
-8662.98
-8662.65
-8662.52
-8662.63
-8662.93
-8663.34
-8663.76
-8664.12
-8664.31
-8664.31
-8664.13
-8663.82
-8663.48
-8663.17
-8663
-8866.49
-8866.5
-8866.53
-8866.55
-8866.51
-8866.36
-8866.44
-8866.6
-8899.2
-8899.06
-8898.88
-8898.69
-8898.39
-8898.04
-8897.68
-8897.29
-8896.89
-8896.49
-8896.1
-8895.72
-8895.36
-8895.02
-8894.72
-8894.45
-8894.23
-8894.05
-8893.92
-8893.85
-8893.84
-8893.9
-8894.01
-8894.2
-8894.45
-8894.77
-8895.16
-8895.62
-8896.14
-8896.73
-8897.37
-8898.07
-8898.82
-8899.62
-8900.45
-8901.31
-8902.2
-8903.09
-8903.99
-8904.88
-8905.75
-8906.6
-8907.39
-8908.14
-8908.82
-8909.42
-8909.94
-8910.36
-8910.67
-8910.87
-8910.96
-8910.92
-8910.75
-8910.46
-8910.04
-8909.51
-8908.86
-8908.1
-8907.26
-8906.33
-8905.34
-8904.31
-8903.25
-8902.2
-8901.16
-8900.16
-8899.24
-8898.4
-8897.68
-8897.09
-8896.66
-8896.39
-8896.3
-8896.39
-8896.68
-8897.15
-8897.79
-8898.6
-8899.55
-8900.61
-8901.76
-8902.95
-8904.15
-8905.32
-8906.42
-8907.4
-8908.22
-8908.85
-8909.27
-8909.44
-8909.36
-8909.03
-8908.45
-8907.64
-8906.65
-8905.5
-8904.25
-8902.95
-8901.68
-8900.48
-8899.43
-8898.57
-8897.96
-8897.63
-8897.61
-8897.9
-8898.49
-8899.35
-8900.44
-8901.68
-8903.01
-8904.34
-8905.59
-8906.68
-8907.53
-8908.08
-8908.29
-8908.15
-8907.67
-8906.87
-8905.83
-8904.62
-8903.34
-8902.09
-8900.98
-8900.1
-8899.52
-8899.3
-8899.44
-8899.94
-8900.72
-8901.72
-8902.82
-8903.91
-8904.86
-8905.59
-8906
-8906.07
-8905.79
-8905.2
-8904.39
-8903.47
-8902.57
-8901.8
-8901.26
-8901.04
-8901.15
-8901.56
-8902.2
-8902.95
-8903.78
-8904.41
-8904.83
-8904.97
-8904.8
-8904.38
-8903.8
-8903.17
-8902.59
-8902.22
-8902.09
-8902.21
-8902.55
-8903
-8903.47
-8903.86
-8904.07
-8904.07
-8903.87
-8903.53
-8903.14
-8902.81
-8902.62
-9073.76
-9073.77
-9073.78
-9073.8
-9073.82
-9073.87
-9074
-9073.96
-9110.42
-9110.31
-9110.15
-9109.96
-9109.7
-9109.38
-9109.03
-9108.66
-9108.28
-9107.88
-9107.49
-9107.11
-9106.75
-9106.41
-9106.1
-9105.83
-9105.6
-9105.42
-9105.3
-9105.24
-9105.24
-9105.3
-9105.44
-9105.65
-9105.93
-9106.29
-9106.72
-9107.23
-9107.8
-9108.45
-9109.15
-9109.92
-9110.74
-9111.61
-9112.53
-9113.47
-9114.44
-9115.41
-9116.4
-9117.37
-9118.32
-9119.24
-9120.11
-9120.92
-9121.66
-9122.31
-9122.87
-9123.33
-9123.67
-9123.89
-9123.98
-9123.93
-9123.75
-9123.43
-9122.97
-9122.38
-9121.67
-9120.85
-9119.92
-9118.91
-9117.83
-9116.71
-9115.55
-9114.4
-9113.27
-9112.18
-9111.17
-9110.26
-9109.48
-9108.84
-9108.37
-9108.08
-9107.98
-9108.09
-9108.4
-9108.92
-9109.63
-9110.51
-9111.55
-9112.71
-9113.97
-9115.28
-9116.59
-9117.87
-9119.06
-9120.13
-9121.03
-9121.72
-9122.16
-9122.35
-9122.26
-9121.89
-9121.25
-9120.37
-9119.28
-9118.02
-9116.66
-9115.24
-9113.85
-9112.54
-9111.39
-9110.46
-9109.8
-9109.44
-9109.43
-9109.75
-9110.4
-9111.34
-9112.53
-9113.88
-9115.33
-9116.79
-9118.14
-9119.33
-9120.25
-9120.84
-9121.07
-9120.91
-9120.37
-9119.5
-9118.36
-9117.04
-9115.64
-9114.29
-9113.08
-9112.13
-9111.51
-9111.27
-9111.44
-9111.98
-9112.85
-9113.94
-9115.14
-9116.33
-9117.37
-9118.15
-9118.6
-9118.66
-9118.35
-9117.7
-9116.81
-9115.81
-9114.81
-9113.98
-9113.4
-9113.16
-9113.28
-9113.74
-9114.44
-9115.26
-9116.17
-9116.85
-9117.31
-9117.45
-9117.27
-9116.8
-9116.16
-9115.47
-9114.85
-9114.45
-9114.31
-9114.45
-9114.82
-9115.32
-9115.83
-9116.25
-9116.47
-9116.47
-9116.25
-9115.88
-9115.45
-9115.09
-9114.88
-9257.35
-9257.36
-9257.37
-9257.38
-9257.4
-9257.44
-9257.47
-9257.48
-9297.62
-9297.52
-9297.37
-9297.18
-9296.93
-9296.63
-9296.29
-9295.92
-9295.53
-9295.14
-9294.74
-9294.35
-9293.98
-9293.63
-9293.31
-9293.04
-9292.8
-9292.62
-9292.5
-9292.44
-9292.44
-9292.53
-9292.68
-9292.92
-9293.23
-9293.62
-9294.09
-9294.64
-9295.26
-9295.96
-9296.73
-9297.56
-9298.45
-9299.4
-9300.38
-9301.4
-9302.45
-9303.51
-9304.57
-9305.62
-9306.64
-9307.63
-9308.57
-9309.45
-9310.24
-9310.95
-9311.56
-9312.05
-9312.41
-9312.65
-9312.74
-9312.69
-9312.49
-9312.14
-9311.64
-9311.01
-9310.24
-9309.34
-9308.34
-9307.25
-9306.08
-9304.86
-9303.62
-9302.37
-9301.15
-9299.98
-9298.89
-9297.91
-9297.06
-9296.37
-9295.86
-9295.55
-9295.45
-9295.57
-9295.92
-9296.48
-9297.25
-9298.21
-9299.33
-9300.59
-9301.95
-9303.37
-9304.79
-9306.17
-9307.46
-9308.61
-9309.58
-9310.32
-9310.8
-9311
-9310.9
-9310.5
-9309.8
-9308.85
-9307.66
-9306.3
-9304.82
-9303.29
-9301.79
-9300.38
-9299.14
-9298.13
-9297.42
-9297.04
-9297.03
-9297.38
-9298.08
-9299.11
-9300.39
-9301.86
-9303.42
-9304.99
-9306.46
-9307.73
-9308.72
-9309.35
-9309.59
-9309.41
-9308.83
-9307.88
-9306.64
-9305.22
-9303.71
-9302.25
-9300.95
-9299.93
-9299.26
-9299.02
-9299.21
-9299.8
-9300.75
-9301.93
-9303.23
-9304.51
-9305.63
-9306.47
-9306.95
-9307.01
-9306.66
-9305.95
-9304.99
-9303.9
-9302.83
-9301.93
-9301.31
-9301.05
-9301.19
-9301.69
-9302.46
-9303.35
-9304.32
-9305.06
-9305.55
-9305.69
-9305.49
-9304.98
-9304.28
-9303.54
-9302.87
-9302.44
-9302.29
-9302.45
-9302.85
-9303.4
-9303.95
-9304.4
-9304.64
-9304.63
-9304.39
-9303.99
-9303.53
-9303.14
-9302.91
-9419.98
-9419.99
-9419.99
-9420.01
-9420.02
-9420.04
-9420.06
-9420.08
-9463.51
-9463.43
-9463.28
-9463.09
-9462.84
-9462.53
-9462.19