/*--------------------------------*- C++ -*----------------------------------*\
  =========                 |
  \\      /  F ield         | OpenFOAM: The Open Source CFD Toolbox
   \\    /   O peration     | Website:  https://openfoam.org
    \\  /    A nd           | Version:  12
     \\/     M anipulation  |
\*---------------------------------------------------------------------------*/
FoamFile
{
    format      ascii;
    class       volScalarField;
    location    "14";
    object      p_rgh;
}
// * * * * * * * * * * * * * * * * * * * * * * * * * * * * * * * * * * * * * //

dimensions      [1 -1 -2 0 0 0 0];

internalField   nonuniform List<scalar> 
3829
(
-3.93327
-3.93189
-3.9291
-3.92483
-3.91901
-3.91158
-3.90244
-3.89151
-3.87868
-3.86385
-3.84689
-3.82768
-3.8061
-3.78201
-3.75527
-3.72576
-3.69334
-3.6579
-3.61932
-3.5775
-3.53238
-3.48388
-3.43196
-3.37662
-3.31787
-3.25575
-3.19035
-3.12176
-3.05012
-2.97561
-2.89843
-2.81881
-2.73701
-2.65333
-2.56806
-2.48155
-2.39414
-2.30621
-2.21811
-2.13024
-2.04298
-1.95676
-1.87198
-1.78908
-1.70848
-1.63088
-1.55651
-1.48572
-1.4188
-1.35601
-1.2976
-1.24374
-1.19457
-1.15019
-1.11065
-1.07596
-1.04609
-1.02095
-1.00043
-0.984363
-0.972505
-0.964565
-0.96019
-0.958974
-0.960458
-0.964135
-0.969454
-0.975827
-0.982638
-0.98922
-0.994934
-0.99913
-1.00116
-1.00039
-0.996222
-0.988107
-0.975554
-0.958136
-0.935546
-0.907618
-0.87345
-0.833404
-0.787736
-0.736748
-0.680808
-0.620351
-0.555976
-0.488438
-0.418592
-0.347411
-0.276006
-0.205524
-0.137185
-0.072224
-0.0118855
0.0426168
0.0901527
0.129687
0.160356
0.1815
0.192667
0.192942
0.182781
0.162742
0.133514
0.0960072
0.0514246
0.00127759
-0.0527322
-0.108678
-0.16439
-0.217786
-0.266708
-0.309082
-0.343024
-0.366915
-0.379526
-0.38012
-0.367218
-0.34167
-0.304464
-0.256885
-0.200709
-0.138277
-0.0722723
-0.00560284
0.0579319
0.115372
0.163537
0.199577
0.221114
0.226439
0.214649
0.185353
0.140315
0.0817482
0.0125853
-0.0634818
-0.142473
-0.218885
-0.288391
-0.34655
-0.389527
-0.41443
-0.419579
-0.402967
-0.366939
-0.313928
-0.247461
-0.172319
-0.0937108
-0.0184075
0.0483203
0.101412
0.137087
0.153116
0.147867
0.12377
0.0838586
0.0327168
-0.024411
-0.0801202
-0.12896
-0.165843
-0.187326
-0.188459
-0.17311
-0.143994
-0.105027
-0.061486
-0.0216777
0.00961976
0.0275938
0.0294159
0.0140309
-0.0156626
-0.0554088
-0.0995995
-0.141134
-0.17421
-0.194069
-0.198236
-0.187021
-0.163462
-0.132491
-0.100444
-0.0734107
-0.0559778
-0.0513975
-0.0584852
-0.0747974
-0.0954013
-0.122897
-0.137504
-0.143899
-0.140508
-0.129005
-0.113375
-0.0986553
-0.0897043
-4.05684
-4.05585
-4.05383
-4.0507
-4.04637
-4.04073
-4.03365
-4.02496
-4.0145
-4.00206
-3.98746
-3.97048
-3.95092
-3.92856
-3.90321
-3.87463
-3.84258
-3.80685
-3.76723
-3.72354
-3.67562
-3.62337
-3.56669
-3.50557
-3.44002
-3.37012
-3.29598
-3.21777
-3.13568
-3.04993
-2.96079
-2.86856
-2.7736
-2.67633
-2.57718
-2.47662
-2.37512
-2.2732
-2.17137
-2.07013
-1.96998
-1.87136
-1.77468
-1.68023
-1.59032
-1.50497
-1.42434
-1.34867
-1.2782
-1.21313
-1.15367
-1.09998
-1.05217
-1.01032
-0.97447
-0.9446
-0.920651
-0.90249
-0.889932
-0.882738
-0.880601
-0.883119
-0.889828
-0.900202
-0.913639
-0.929489
-0.947052
-0.965586
-0.984308
-1.00242
-1.0191
-1.03355
-1.04494
-1.05251
-1.05551
-1.05325
-1.04514
-1.03065
-1.00937
-0.981024
-0.945177
-0.901957
-0.851562
-0.794289
-0.730571
-0.660997
-0.586357
-0.507618
-0.425868
-0.342323
-0.258362
-0.175417
-0.0950018
-0.0186452
0.0521191
0.115786
0.17096
0.216368
0.250922
0.273709
0.283519
0.280415
0.264756
0.237061
0.198113
0.14908
0.0915084
0.0272601
-0.0415421
-0.112489
-0.182913
-0.250221
-0.311748
-0.364945
-0.407483
-0.437374
-0.453078
-0.453498
-0.437647
-0.406231
-0.36023
-0.301258
-0.231606
-0.154168
-0.0722928
0.0102233
0.0889183
0.160114
0.219966
0.265048
0.292554
0.300329
0.284721
0.248412
0.193185
0.121554
0.0371269
-0.0556135
-0.152229
-0.24491
-0.328896
-0.398782
-0.449944
-0.478835
-0.483298
-0.462366
-0.417887
-0.352837
-0.271818
-0.180558
-0.0845975
0.00560861
0.0846363
0.146553
0.186787
0.202556
0.19329
0.16105
0.1098
0.0453108
-0.0265551
-0.0948853
-0.153747
-0.196994
-0.220285
-0.220401
-0.19974
-0.161909
-0.112157
-0.0570954
-0.00720026
0.0317342
0.0537992
0.0555949
0.0366252
-6.63739e-05
-0.0488851
-0.102786
-0.152932
-0.192309
-0.215132
-0.218578
-0.20322
-0.17301
-0.134277
-0.0948551
-0.0622569
-0.0421578
-0.0377218
-0.0481997
-0.0701126
-0.0977385
-0.126432
-0.145566
-0.153108
-0.148034
-0.132818
-0.112597
-0.093761
-0.0823707
-4.25469
-4.25487
-4.2552
-4.2556
-4.25594
-4.25604
-4.25566
-4.25451
-4.25226
-4.24857
-4.24307
-4.23528
-4.2247
-4.21076
-4.19293
-4.17067
-4.14348
-4.11085
-4.07238
-4.02766
-3.9764
-3.91834
-3.85335
-3.78135
-3.70237
-3.61655
-3.52411
-3.42538
-3.32079
-3.21085
-3.09619
-2.97745
-2.85531
-2.73049
-2.6037
-2.47564
-2.34707
-2.21875
-2.09143
-1.9659
-1.84295
-1.72341
-1.60817
-1.49826
-1.39242
-1.29199
-1.19805
-1.11115
-1.03175
-0.960197
-0.896751
-0.841609
-0.794903
-0.75669
-0.726973
-0.705677
-0.692658
-0.687659
-0.690317
-0.700163
-0.716655
-0.739164
-0.766979
-0.799313
-0.835324
-0.874092
-0.914635
-0.955925
-0.996885
-1.03642
-1.07341
-1.10677
-1.13539
-1.15824
-1.17433
-1.18275
-1.18269
-1.1734
-1.15435
-1.12504
-1.0853
-1.03526
-0.975139
-0.905326
-0.826425
-0.739295
-0.645045
-0.545011
-0.440695
-0.33379
-0.226169
-0.119788
-0.0167123
0.0809828
0.171207
0.251941
0.321326
0.377656
0.419454
0.445447
0.452653
0.442941
0.41662
0.374252
0.316892
0.246163
0.164165
0.0734372
-0.0231146
-0.122152
-0.220074
-0.313374
-0.398421
-0.471749
-0.530182
-0.571052
-0.592251
-0.592188
-0.570437
-0.527499
-0.464585
-0.383902
-0.288682
-0.18299
-0.0714453
0.040669
0.14762
0.244203
0.32533
0.386716
0.425155
0.43927
0.414384
0.364573
0.290332
0.194475
0.0816511
-0.0423089
-0.171668
-0.294829
-0.40564
-0.497131
-0.563177
-0.599144
-0.602336
-0.572516
-0.511508
-0.42358
-0.3155
-0.195844
-0.0637601
0.0522671
0.153612
0.231525
0.279808
0.295047
0.277334
0.229196
0.156624
0.0680242
-0.0340152
-0.124747
-0.201952
-0.256994
-0.28403
-0.280922
-0.249384
-0.194697
-0.124434
-0.0478058
0.020917
0.0739606
0.103405
0.104907
0.078646
0.028522
-0.0374783
-0.109602
-0.175743
-0.226643
-0.254667
-0.256349
-0.232921
-0.190044
-0.1367
-0.0835334
-0.0406782
-0.0157732
-0.0122418
-0.0290388
-0.0609162
-0.099598
-0.136795
-0.161962
-0.170838
-0.162226
-0.139842
-0.110891
-0.084278
-0.0682712
-4.4246
-4.42769
-4.43386
-4.44305
-4.45504
-4.46954
-4.48611
-4.50419
-4.52303
-4.54165
-4.55892
-4.57368
-4.58481
-4.59122
-4.59192
-4.58591
-4.57221
-4.54985
-4.51794
-4.47569
-4.42242
-4.35765
-4.28106
-4.19257
-4.09234
-3.98077
-3.85852
-3.72646
-3.58559
-3.43693
-3.2814
-3.12009
-2.95423
-2.78506
-2.61385
-2.44189
-2.27041
-2.10061
-1.9336
-1.77041
-1.61196
-1.45905
-1.31228
-1.17193
-1.03815
-0.92014
-0.813937
-0.718754
-0.634496
-0.561266
-0.499211
-0.448488
-0.409198
-0.381378
-0.364993
-0.359879
-0.365748
-0.382208
-0.408748
-0.444713
-0.489335
-0.541705
-0.600809
-0.665528
-0.734655
-0.806895
-0.880875
-0.955161
-1.02826
-1.09864
-1.16479
-1.22521
-1.27839
-1.32294
-1.35753
-1.38095
-1.39213
-1.39013
-1.37414
-1.34208
-1.29573
-1.23495
-1.15992
-1.07117
-0.969595
-0.856423
-0.733214
-0.601849
-0.464441
-0.32334
-0.181163
-0.0406386
0.0953582
0.223948
0.342279
0.447603
0.537404
0.609409
0.661703
0.692709
0.695592
0.675968
0.633909
0.570079
0.485898
0.383614
0.266132
0.136997
0.00019685
-0.139609
-0.277373
-0.408238
-0.527233
-0.629561
-0.710812
-0.767245
-0.795883
-0.795151
-0.764397
-0.704111
-0.616033
-0.503406
-0.370778
-0.223876
-0.0690625
0.0860856
0.233742
0.366674
0.477587
0.560227
0.609765
0.62325
0.5943
0.528685
0.428361
0.298148
0.145165
-0.0220731
-0.20396
-0.36909
-0.517669
-0.639778
-0.726933
-0.772778
-0.773608
-0.730094
-0.644244
-0.522252
-0.373342
-0.208352
-0.037259
0.120002
0.25451
0.355406
0.414832
0.428449
0.397265
0.324994
0.220501
0.0955414
-0.0461183
-0.170182
-0.274134
-0.346034
-0.378191
-0.369282
-0.32093
-0.241064
-0.140631
-0.0327371
0.0631784
0.13636
0.176121
0.17673
0.139139
0.0690495
-0.0221282
-0.120764
-0.209899
-0.277075
-0.312073
-0.310649
-0.274962
-0.213418
-0.138778
-0.0658256
-0.00851956
0.0230686
0.0246483
-0.00174374
-0.048052
-0.102645
-0.15332
-0.186796
-0.197038
-0.182877
-0.149791
-0.108001
-0.0700142
-0.0473133
-4.50927
-4.51837
-4.53669
-4.56406
-4.60024
-4.64482
-4.69708
-4.75568
-4.81913
-4.88554
-4.95293
-5.01893
-5.08103
-5.13638
-5.1821
-5.2154
-5.23376
-5.23504
-5.21778
-5.18097
-5.124
-5.04658
-4.94875
-4.83079
-4.69337
-4.53755
-4.36489
-4.17723
-3.9767
-3.76528
-3.54496
-3.31786
-3.08616
-2.85198
-2.61734
-2.38412
-2.15413
-1.92899
-1.71029
-1.49948
-1.29797
-1.10716
-0.928482
-0.763547
-0.614018
-0.471071
-0.343978
-0.23213
-0.136131
-0.0562942
0.007185
0.0542558
0.0849544
0.0994316
0.0979829
0.08105
0.0492343
0.0033041
-0.0558565
-0.127236
-0.209701
-0.301966
-0.402619
-0.510106
-0.622771
-0.738846
-0.856455
-0.973639
-1.08836
-1.19855
-1.30219
-1.39722
-1.48162
-1.55352
-1.61117
-1.65292
-1.67754
-1.68413
-1.67213
-1.63522
-1.5792
-1.5034
-1.40798
-1.29364
-1.16166
-1.01372
-0.851984
-0.679047
-0.497819
-0.311555
-0.123848
0.0615404
0.240677
0.409642
0.564536
0.701631
0.817534
0.909265
0.974547
1.01205
1.00899
0.976604
0.914171
0.822368
0.7031
0.55943
0.395408
0.215879
0.0262546
-0.166876
-0.356762
-0.536785
-0.700017
-0.839919
-0.950634
-1.02711
-1.06553
-1.0631
-1.01978
-0.935995
-0.814236
-0.659162
-0.477096
-0.275811
-0.064029
0.147541
0.348532
0.528813
0.678501
0.78871
0.85195
0.86192
0.829004
0.742324
0.607158
0.431295
0.225126
0.0014464
-0.247288
-0.466693
-0.664514
-0.826315
-0.940483
-0.998591
-0.995968
-0.933437
-0.814314
-0.647365
-0.445235
-0.222758
0.00346646
0.212175
0.388608
0.518403
0.591258
0.601702
0.551502
0.446498
0.298971
0.124386
-0.0636504
-0.232713
-0.371596
-0.465048
-0.503215
-0.485246
-0.413658
-0.299964
-0.159524
-0.0107478
0.120636
0.219698
0.272184
0.270941
0.217599
0.120739
-0.00370492
-0.137149
-0.25607
-0.343985
-0.387355
-0.381057
-0.328597
-0.24218
-0.139567
-0.0409136
0.0348574
0.0745137
0.0728366
0.0334423
-0.0322089
-0.107762
-0.176305
-0.220306
-0.231798
-0.209873
-0.162433
-0.103654
-0.0506811
-0.0191759
-4.20648
-4.2278
-4.27172
-4.33293
-4.41305
-4.50957
-4.62015
-4.74135
-4.86981
-5.00146
-5.13269
-5.26004
-5.38164
-5.49606
-5.60189
-5.69735
-5.78041
-5.84789
-5.89413
-5.91388
-5.90244
-5.85564
-5.76994
-5.64348
-5.4766
-5.27182
-5.03328
-4.76566
-4.47577
-4.1691
-3.85128
-3.5269
-3.1999
-2.87374
-2.55144
-2.2357
-1.92893
-1.63319
-1.35023
-1.08162
-0.828619
-0.59214
-0.37299
-0.171379
0.0133835
0.182996
0.317578
0.431128
0.524859
0.598613
0.652027
0.684894
0.697164
0.688991
0.660749
0.612984
0.546449
0.46212
0.361146
0.24486
0.114785
-0.0273623
-0.1797
-0.340152
-0.506521
-0.67648
-0.847542
-1.01714
-1.18261
-1.34119
-1.4902
-1.62693
-1.74877
-1.85322
-1.93787
-2.00063
-2.03936
-2.05236
-2.03778
-1.99993
-1.93392
-1.8401
-1.71929
-1.57286
-1.4027
-1.21119
-1.0013
-0.776517
-0.54075
-0.298404
-0.0542774
0.186624
0.419032
0.637694
0.837392
1.01308
1.16012
1.27438
1.35253
1.39215
1.38717
1.34149
1.25498
1.12906
0.966605
0.771862
0.550274
0.308381
0.0535989
-0.205287
-0.459488
-0.699892
-0.917506
-1.10357
-1.25024
-1.35095
-1.40056
-1.39532
-1.33567
-1.22206
-1.0581
-0.85004
-0.606384
-0.337655
-0.0554725
0.22583
0.492691
0.731422
0.928982
1.07395
1.15697
1.17188
1.12355
1.00641
0.826015
0.592116
0.318129
0.0194117
-0.294823
-0.586204
-0.845755
-1.05619
-1.20288
-1.27514
-1.26724
-1.1803
-1.01947
-0.796733
-0.529044
-0.236106
0.0585887
0.329613
0.5564
0.720246
0.807975
0.813363
0.738309
0.591938
0.39081
0.155667
-0.0910971
-0.314334
-0.495268
-0.614181
-0.658816
-0.628098
-0.526596
-0.370271
-0.179952
0.0191177
0.193879
0.324151
0.391407
0.386993
0.313274
0.182755
0.0169228
-0.159482
-0.314739
-0.427437
-0.48013
-0.466868
-0.392966
-0.275475
-0.138297
-0.0080894
0.0897301
0.13851
0.131963
0.0758086
-0.0140223
-0.115485
-0.206172
-0.262686
-0.275101
-0.243055
-0.177555
-0.097649
-0.0261447
0.0162351
-3.58173
-3.63186
-3.73259
-3.88306
-4.08082
-4.32291
-4.60639
-4.92553
-5.27373
-5.64083
-6.01698
-6.37839
-6.72491
-7.06425
-7.39113
-7.6893
-7.93369
-8.11218
-8.17761
-8.13071
-7.9971
-7.79469
-7.53661
-7.22987
-6.88043
-6.49091
-6.06806
-5.59606
-5.13181
-4.66189
-4.19115
-3.72405
-3.2652
-2.81837
-2.38661
-1.9723
-1.57733
-1.20327
-0.851453
-0.523045
-0.219052
0.0594984
0.311797
0.536696
0.732428
0.896266
1.05262
1.1817
1.28217
1.35419
1.39826
1.41487
1.40463
1.36826
1.30659
1.22059
1.11141
0.980363
0.828968
0.658945
0.472238
0.271059
0.0577998
-0.164886
-0.394195
-0.627155
-0.860593
-1.09124
-1.31562
-1.53028
-1.73179
-1.91674
-2.08167
-2.22345
-2.33917
-2.42599
-2.48153
-2.50376
-2.49114
-2.44504
-2.36309
-2.24537
-2.09285
-1.90725
-1.691
-1.44721
-1.17974
-0.893163
-0.592556
-0.283571
0.0274293
0.334036
0.629421
0.906752
1.15923
1.38026
1.56375
1.7042
1.79707
1.83914
1.83112
1.76941
1.65414
1.48757
1.27371
1.01824
0.728357
0.412643
0.0808536
-0.25583
-0.585763
-0.897313
-1.17859
-1.41857
-1.60706
-1.73556
-1.7975
-1.78883
-1.70907
-1.55945
-1.34492
-1.0737
-0.756978
-0.408179
-0.042566
0.321077
0.665474
0.973085
1.22702
1.41275
1.51881
1.5375
1.47114
1.31684
1.08193
0.77903
0.425326
0.0405745
-0.356978
-0.72992
-1.06083
-1.32749
-1.51137
-1.5992
-1.58418
-1.46735
-1.25652
-0.967513
-0.622378
-0.24661
0.128484
0.47191
0.756826
0.959348
1.06312
1.06077
0.955064
0.758845
0.493878
0.187419
-0.129226
-0.415436
-0.644925
-0.792625
-0.843518
-0.796118
-0.658025
-0.450486
-0.200874
0.0573549
0.282863
0.449149
0.53291
0.523606
0.424867
0.253943
0.0389633
-0.188228
-0.385908
-0.526998
-0.589559
-0.5665
-0.467008
-0.312407
-0.134365
0.0329189
0.155926
0.214565
0.201308
0.124607
0.00587842
-0.12613
-0.243015
-0.313722
-0.326568
-0.282038
-0.194856
-0.0898696
0.00351331
0.0586884
-1.77123
-1.86499
-2.05953
-2.3747
-2.74347
-3.17174
-3.66629
-4.20526
-4.78463
-5.37235
-5.95352
-6.52328
-7.05623
-7.51662
-7.88698
-8.16258
-8.34468
-8.42154
-8.45876
-8.4668
-8.47424
-8.46898
-8.38574
-8.19219
-7.88427
-7.45349
-6.92778
-6.31822
-5.68323
-5.03213
-4.39001
-3.76229
-3.15698
-2.57757
-2.02721
-1.50832
-1.02287
-0.571635
-0.15505
0.227076
0.575164
0.889329
1.1702
1.41829
1.63396
1.81818
1.97287
2.08872
2.17336
2.22663
2.24826
2.23822
2.19677
2.12444
2.02203
1.89061
1.73153
1.54636
1.33693
1.10537
0.85408
0.585777
0.303421
0.010295
-0.29013
-0.594113
-0.897766
-1.19696
-1.48746
-1.76495
-2.02515
-2.26381
-2.47673
-2.65999
-2.80992
-2.92314
-2.99678
-3.0282
-3.01605
-2.96005
-2.85889
-2.71279
-2.52303
-2.2918
-2.02215
-1.71803
-1.38433
-1.0268
-0.651896
-0.266714
0.120739
0.502371
0.869579
1.21377
1.52639
1.79913
2.0243
2.1948
2.30433
2.34684
2.33673
2.25604
2.10698
1.89324
1.62011
1.29487
0.926714
0.526625
0.106907
-0.318397
-0.734604
-1.12694
-1.48059
-1.7814
-2.01682
-2.17621
-2.25151
-2.23814
-2.13469
-1.94329
-1.67045
-1.32666
-0.926001
-0.485855
-0.0249824
0.432445
0.86498
1.25058
1.56826
1.79986
1.93114
1.95298
1.86552
1.6682
1.37066
0.988878
0.544157
0.06214
-0.431474
-0.896326
-1.30738
-1.63693
-1.86198
-1.96612
-1.94163
-1.78977
-1.52124
-1.15629
-0.722826
-0.25325
0.21289
0.637744
0.987371
1.23236
1.35279
1.34001
1.1981
0.944079
0.605869
0.218042
-0.178291
-0.535388
-0.818944
-0.998004
-1.05463
-0.986639
-0.805623
-0.538879
-0.221246
0.104135
0.386941
0.593352
0.694704
0.678677
0.55051
0.332868
0.0616156
-0.223498
-0.468982
-0.641474
-0.7143
-0.679693
-0.549488
-0.352062
-0.127441
0.0818148
0.232899
0.301692
0.279768
0.178857
0.0268797
-0.139702
-0.286738
-0.372791
-0.385423
-0.32617
-0.213974
-0.0803007
0.0379721
0.107667
0.163295
0.0373997
-0.210576
-0.563081
-1.09899
-1.79713
-2.66353
-3.65436
-4.70617
-5.76784
-6.82668
-7.84554
-8.80089
-9.67019
-10.4393
-11.0971
-11.6498
-12.116
-12.4769
-12.7152
-12.7625
-12.5524
-12.0934
-11.4557
-10.6704
-9.74558
-8.7157
-7.57741
-6.49404
-5.46834
-4.51699
-3.63566
-2.8266
-2.08785
-1.41482
-0.801884
-0.24347
0.264883
0.726844
1.14494
1.52094
1.85651
2.15246
2.40924
2.62736
2.80679
2.94713
3.05995
3.13391
3.1692
3.16634
3.12595
3.04864
2.93524
2.78675
2.60439
2.3897
2.14454
1.87106
1.57179
1.24957
0.907689
0.549699
0.179572
-0.198512
-0.580033
-0.96024
-1.33416
-1.69663
-2.04238
-2.36626
-2.66312
-2.92786
-3.15576
-3.34235
-3.48347
-3.57582
-3.6165
-3.60313
-3.53535
-3.41204
-3.23367
-3.00189
-2.7194
-2.38998
-2.01852
-1.61105
-1.17463
-0.717214
-0.247541
0.224581
0.689235
1.13588
1.55398
1.93311
2.26316
2.53483
2.73965
2.8705
2.92157
2.90014
2.79455
2.60624
2.33917
1.99973
1.59684
1.14184
0.648222
0.130782
-0.392518
-0.904012
-1.38543
-1.81873
-2.18651
-2.47336
-2.66636
-2.75585
-2.73599
-2.60539
-2.36701
-2.02898
-1.60428
-1.11037
-0.568616
-0.00279039
0.558401
1.08821
1.5595
1.94684
2.22823
2.38653
2.411
2.29937
2.05394
1.68675
1.21727
0.672265
0.0827306
-0.517657
-1.08315
-1.58176
-1.97949
-2.24859
-2.36959
-2.3334
-2.14182
-1.80876
-1.35937
-0.828347
-0.255126
0.310874
0.824693
1.24449
1.53482
1.67187
1.64611
1.46297
1.144
0.724351
0.246351
-0.23788
-0.672505
-1.01459
-1.2269
-1.28828
-1.19619
-0.966546
-0.633522
-0.240372
0.159058
0.504674
0.754526
0.874171
0.849471
0.687823
0.417951
0.0842157
-0.2651
-0.562834
-0.769056
-0.85216
-0.803616
-0.638706
-0.393488
-0.1174
0.138103
0.319454
0.398422
0.365878
0.23741
0.0483812
-0.155925
-0.337002
-0.43893
-0.450629
-0.374617
-0.234494
-0.0690438
0.0766882
0.162354
4.52081
4.32909
3.93716
3.33092
2.47622
1.24112
-0.309255
-2.30133
-5.31338
-7.38014
-9.05923
-10.5302
-11.8103
-12.9031
-13.8254
-14.583
-15.1854
-15.6829
-16.0549
-16.3013
-16.3307
-16.1308
-15.6584
-14.8888
-13.8349
-12.4732
-10.8964
-8.05954
-6.54082
-5.12614
-3.95775
-2.9271
-2.01621
-1.20416
-0.47563
0.179259
0.769374
1.30125
1.78028
2.21061
2.59529
2.9364
3.23505
3.49201
3.70778
3.88275
4.01753
4.10816
4.15811
4.16662
4.1332
4.05778
3.94062
3.78236
3.58394
3.34667
3.07226
2.76281
2.42081
2.04918
1.65125
1.23087
0.792244
0.340054
-0.120749
-0.584799
-1.04645
-1.49981
-1.93869
-2.35688
-2.74825
-3.10667
-3.42607
-3.70086
-3.92578
-4.09598
-4.20729
-4.2564
-4.24102
-4.15964
-4.01165
-3.79775
-3.51995
-3.18156
-2.78715
-2.34261
-1.8552
-1.33344
-0.786862
-0.225989
0.337441
0.891545
1.4237
1.92134
2.37201
2.76371
3.08539
3.32719
3.48097
3.54035
3.50672
3.37352
3.14207
2.81687
2.4054
1.91841
1.36948
0.774661
0.151899
-0.477
-1.09101
-1.66829
-2.18694
-2.62641
-2.96818
-3.19687
-3.30086
-3.2732
-3.11247
-2.82266
-2.41364
-1.90121
-1.3066
-0.655342
0.024456
0.697029
1.33116
1.89432
2.35608
2.6903
2.87671
2.90262
2.7645
2.4667
2.02384
1.45959
0.806437
0.101384
-0.613815
-1.287
-1.87886
-2.34894
-2.66441
-2.80235
-2.7522
-2.51684
-2.1135
-1.57273
-0.936484
-0.252229
0.420788
1.02939
1.52349
1.86126
2.0148
1.97342
1.74455
1.35473
0.846663
0.271707
-0.306992
-0.824354
-1.22836
-1.47509
-1.54006
-1.42077
-1.1376
-0.732362
-0.2577
0.221315
0.634035
0.929762
1.06802
1.0328
0.834142
0.507459
0.106459
-0.312678
-0.665882
-0.90744
-1.00057
-0.935952
-0.732893
-0.435786
-0.104506
0.201092
0.414051
0.502938
0.457976
0.299046
0.0697596
-0.174131
-0.393366
-0.510836
-0.520917
-0.426406
-0.255987
-0.0562822
0.118936
0.221716
10.3874
10.1376
9.61924
8.77612
7.53354
5.95438
4.12887
1.56701
-2.59657
-5.80394
-8.6618
-11.1221
-13.2206
-14.9834
-16.4302
-17.5804
-18.4338
-18.9263
-19.0708
-18.8532
-18.3572
-17.6393
-16.788
-15.724
-14.3643
-12.6575
-10.6682
-7.6799
-5.71697
-4.01041
-2.84646
-1.73051
-0.771692
0.0418554
0.757796
1.39204
1.96234
2.47717
2.94302
3.36319
3.73979
4.07373
4.36535
4.61451
4.82079
4.98336
5.10131
5.17615
5.20501
5.18715
5.12229
5.01035
4.85156
4.64646
4.396
4.10155
3.76497
3.38861
2.9753
2.52836
2.05162
1.54954
1.02698
0.489376
-0.0575772
-0.607515
-1.1539
-1.68986
-2.20819
-2.70162
-3.16301
-3.58521
-3.96114
-4.28428
-4.54852
-4.74822
-4.87863
-4.93592
-4.91707
-4.82055
-4.64584
-4.39381
-4.06691
-3.66906
-3.20568
-2.68372
-2.11174
-1.49986
-0.859238
-0.202129
0.457475
1.10572
1.7278
2.30903
2.83481
3.29116
3.66522
3.94554
4.12263
4.18946
4.14357
3.98127
3.70407
3.3172
2.82946
2.25348
1.60523
0.903684
0.170014
-0.570148
-1.29211
-1.9701
-2.57839
-3.09293
-3.49186
-3.75737
-3.8759
-3.83943
-3.64634
-3.30165
-2.81723
-2.21191
-1.51064
-0.743999
0.0559319
0.845631
1.58935
2.24879
2.7883
3.17738
3.39241
3.4188
3.2522
2.89866
2.37554
1.71132
0.943892
0.117669
-0.718104
-1.50411
-2.19329
-2.73853
-3.10165
-3.25618
-3.19028
-2.90794
-2.42984
-1.79244
-1.04548
-0.244254
0.540613
1.24802
1.81916
2.20549
2.37502
2.31584
2.03761
1.57226
0.970688
0.293472
-0.384306
-0.988035
-1.45616
-1.73784
-1.80518
-1.65608
-1.3155
-0.83354
-0.27283
0.289777
0.772616
1.11578
1.27258
1.22519
0.986648
0.599676
0.128158
-0.365675
-0.776188
-1.05399
-1.15673
-1.07423
-0.830238
-0.478134
-0.0892085
0.269804
0.514861
0.613235
0.554289
0.362543
0.090416
-0.193373
-0.455366
-0.586937
-0.594899
-0.480581
-0.27803
-0.04226
0.163888
0.284588
17.3985
17.2942
17.0916
16.8054
16.5015
16.1792
15.8854
15.4905
-1.55088
-1.03374
-0.673456
-0.155768
0.416402
1.01908
1.60219
2.18269
2.72249
3.23184
3.705
4.14197
4.54136
4.9027
5.22476
5.50621
5.74559
5.94133
6.09177
6.19534
6.25076
6.2565
6.21141
6.11467
5.96585
5.76495
5.51239
5.20911
4.85653
4.45669
4.01218
3.52616
3.00241
2.44525
1.85977
1.2515
0.62667
-0.00834691
-0.646012
-1.27894
-1.89923
-2.49866
-3.06884
-3.6016
-4.08871
-4.52206
-4.89421
-5.19816
-5.42747
-5.57668
-5.64138
-5.61825
-5.50543
-5.30247
-5.01048
-4.63234
-4.17258
-3.63755
-3.03529
-2.37575
-1.67063
-0.932796
-0.176231
0.582607
1.32793
2.04268
2.70998
3.31305
3.83583
4.2636
4.58318
4.78367
4.85705
4.79886
4.60654
4.28192
3.8311
3.26432
2.59615
1.8451
1.03324
0.184986
-0.670073
-1.50345
-2.28525
-2.98586
-3.57743
-4.03494
-4.3378
-4.47063
-4.42444
-4.1973
-3.79532
-3.23248
-2.53062
-1.71883
-0.832717
0.0907732
1.00145
1.85802
2.61638
3.23554
3.6805
3.92426
3.95029
3.7537
3.34192
2.73555
1.96782
1.08264
0.131092
-0.82876
-1.73052
-2.51934
-3.1412
-3.55245
-3.72307
-3.6399
-3.30816
-2.75221
-2.0146
-1.15314
-0.232139
0.667899
1.47643
2.12599
2.56123
2.74603
2.66723
2.33702
1.79283
1.09411
0.311704
-0.468182
-1.16037
-1.69368
-2.01027
-2.07882
-1.89785
-1.49708
-0.935174
-0.285663
0.363098
0.917792
1.30913
1.48408
1.42313
1.14256
0.692915
0.14911
-0.423202
-0.891613
-1.20595
-1.31779
-1.21598
-0.929028
-0.51979
-0.071986
0.343031
0.619918
0.727259
0.653085
0.426781
0.109718
-0.218519
-0.516562
-0.665516
-0.671186
-0.536138
-0.300234
-0.0272633
0.210683
0.349769
24.7924
24.7748
24.7528
24.7387
24.7502
24.7872
24.2974
23.9262
0.618059
0.983716
1.28478
1.67534
2.11475
2.59419
3.06885
3.55182
4.02046
4.47403
4.90652
5.31444
5.69355
6.0403
6.35138
6.62381
6.85462
7.04102
7.18032
7.27012
7.30821
7.29251
7.22139
7.0937
6.90877
6.66638
6.36686
6.01111
5.60062
5.13762
4.62495
4.06614
3.46539
2.82756
2.15836
1.46405
0.751659
0.0280091
-0.697754
-1.41762
-2.12266
-2.80354
-3.45077
-4.05511
-4.60726
-5.09807
-5.51914
-5.86259
-6.12117
-6.28875
-6.36028
-6.33211
-6.20211
-5.96991
-5.63686
-5.20626
-4.68328
-4.0752
-3.3912
-2.64259
-1.84268
-1.00614
-0.148772
0.710702
1.55438
2.36297
3.11734
3.79854
4.3884
4.87029
5.22925
5.45305
5.53244
5.46175
5.23884
4.86593
4.35002
3.70279
2.94086
2.08533
1.16137
0.19693
-0.774793
-1.72114
-2.6081
-3.40213
-4.07148
-4.58803
-4.92834
-5.07515
-5.01834
-4.75603
-4.29535
-3.65235
-2.85205
-1.92795
-0.919993
0.128227
1.16171
2.1325
2.99074
3.69012
4.19114
4.46336
4.48827
4.26057
3.78913
3.09802
2.22475
1.22025
0.141773
-0.943658
-1.96224
-2.85139
-3.55009
-4.00924
-4.19526
-4.09366
-3.71103
-3.07555
-2.23601
-1.2585
-0.215813
0.800212
1.71049
2.4386
2.92236
3.12158
3.02176
2.63788
2.01298
1.21545
0.326211
-0.556855
-1.33812
-1.93665
-2.28763
-2.3563
-2.14204
-1.67942
-1.03583
-0.29605
0.439843
1.06693
1.50639
1.69889
1.62328
1.29926
0.785615
0.169544
-0.484563
-1.00997
-1.36067
-1.48102
-1.35888
-1.02769
-0.5601
-0.0537376
0.419843
0.727256
0.843035
0.752753
0.490776
0.127525
-0.247883
-0.576946
-0.745263
-0.748476
-0.592085
-0.322254
-0.0115938
0.258474
0.416101
31.0104
30.969
30.8739
30.704
30.4446
30.0703
30.3727
30.3836
2.51703
2.73015
2.9305
3.20954
3.54774
3.9551
4.35605
4.7804
5.20416
5.62371
6.03107
6.42075
6.78708
7.12498
7.42971
7.69689
7.92239
8.10239
8.23328
8.31172
8.33465
8.29937
8.20391
8.04685
7.82724
7.54471
7.19947
6.79241
6.32511
5.79999
5.22016
4.58952
3.9127
3.19511
2.44309
1.66359
0.864462
0.0531888
-0.759885
-1.56591
-2.35491
-3.11645
-3.83995
-4.5151
-5.13152
-5.67903
-6.14828
-6.53052
-6.81771
-7.00307
-7.08096
-7.04706
-6.89931
-6.63742
-6.26292
-5.77953
-5.19307
-4.51174
-3.74584
-2.90807
-2.01335
-1.0782
-0.120183
0.839728
1.7815
2.68362
3.52474
4.28371
4.94029
5.4759
5.87388
6.12061
6.2056
6.12229
5.86862
5.44732
4.8662
4.1384
3.28262
2.32255
1.28644
0.206049
-0.882327
-1.94147
-2.93333
-3.82043
-4.56718
-5.14232
-5.51963
-5.67992
-5.61192
-5.3139
-4.79401
-4.07037
-3.17141
-2.13496
-1.00543
0.168074
1.3238
2.40832
3.36594
4.14497
4.7014
5.00143
5.02457
4.76514
4.23366
3.45755
2.47852
1.3546
0.149892
-1.06068
-2.19549
-3.18421
-3.95888
-4.46504
-4.66564
-4.54486
-4.11074
-3.39528
-2.45357
-1.36005
-0.196264
0.935101
1.9463
2.75198
3.28324
3.4959
3.37414
2.93587
2.22976
1.33304
0.337314
-0.648526
-1.51818
-2.18106
-2.56545
-2.63334
-2.38498
-1.85984
-1.13412
-0.30414
0.518555
1.21752
1.70439
1.91364
1.82258
1.45444
0.87636
0.190241
-0.54953
-1.12913
-1.51564
-1.64393
-1.50082
-1.12485
-0.598499
-0.0353215
0.499264
0.834971
0.958736
0.851978
0.553677
0.143919
-0.27829
-0.638059
-0.825067
-0.825583
-0.647615
-0.3438
0.00445105
0.306475
0.482512
36.6755
36.6607
36.6369
36.6177
36.6508
36.7987
36.72
36.5635
3.96144
4.10415
4.27931
4.47718
4.77543
5.1215
5.48416
5.87265
6.26938
6.66935
7.06342
7.44471
7.80634
8.142
8.44579
8.7123
8.93643
9.11349
9.23908
9.30908
9.31956
9.26687
9.14901
8.96445
8.71204
8.3912
8.00204
7.54545
7.02311
6.43765
5.79247
5.09182
4.3408
3.54535
2.71241
1.84963
0.965579
0.0689294
-0.829656
-1.72
-2.59114
-3.43159
-4.22967
-4.97399
-5.65315
-6.25593
-6.77207
-7.19196
-7.50681
-7.70925
-7.79304
-7.75289
-7.58713
-7.29556
-6.87988
-6.34416
-5.6949
-4.94116
-4.09435
-3.16861
-2.18038
-1.14806
-0.0909164
0.967827
2.00609
3.00017
3.92654
4.7619
5.48395
6.0722
6.50837
6.77741
6.86767
6.77174
6.4876
6.01842
5.37289
4.56556
3.61714
2.55396
1.40737
0.212365
-0.990835
-2.16105
-3.25615
-4.23472
-5.0575
-5.68997
-6.10338
-6.27662
-6.19707
-5.8633
-5.28454
-4.4811
-3.48462
-2.33714
-1.08821
0.209606
1.48525
2.68151
3.73669
4.59376
5.20432
5.53123
5.55197
5.26077
4.66976
3.80945
2.72613
1.48421
0.155622
-1.17801
-2.42688
-3.51311
-4.36199
-4.91372
-5.128
-4.98762
-4.50219
-3.70745
-2.66472
-1.45662
-0.174616
1.07032
2.18034
3.06169
3.63888
3.86405
3.71976
3.22727
2.4406
1.4457
0.345395
-0.741499
-1.69773
-2.42331
-2.83983
-2.90613
-2.62344
-2.03614
-1.22894
-0.310097
0.597853
1.36728
1.9003
2.12535
2.01838
1.60609
0.963871
0.211165
-0.617005
-1.2471
-1.66868
-1.80431
-1.63998
-1.21938
-0.634494
-0.0103527
0.573258
0.941327
1.07276
0.949303
0.614771
0.158924
-0.308932
-0.699191
-0.903877
-0.901469
-0.702019
-0.364632
0.020612
0.353975
0.548048
41.7339
41.7261
41.713
41.6938
41.673
41.6216
41.4925
41.531
5.07217
5.18252
5.33629
5.53235
5.7961
6.11358
6.457
6.82917
7.2149
7.60824
7.99971
8.38152
8.74583
9.08536
9.39333
9.66347
9.88995
10.0673
10.1907
10.2552
10.2562
10.1879
10.0495
9.83948
9.55638
9.19938
8.76847
8.26455
7.68944
7.04596
6.33786
5.56974
4.74714
3.87649
2.96538
2.02212
1.05602
0.0766736
-0.904571
-1.87649
-2.8271
-3.74389
-4.61409
-5.42526
-6.16499
-6.82108
-7.38236
-7.83839
-8.17968
-8.39839
-8.48799
-8.44093
-8.25717
-7.93641
-7.48038
-6.89348
-6.18286
-5.35846
-4.43273
-3.42125
-2.34198
-1.21496
-0.0614281
1.09339
2.22541
3.30883
4.31799
5.22749
6.01299
6.65227
7.12541
7.41597
7.51121
7.40278
7.08883
6.57283
5.86452
4.97961
3.9409
2.77724
1.52314
0.216211
-1.09862
-2.37691
-3.57243
-4.63982
-5.5364
-6.22435
-6.67257
-6.85814
-6.76687
-6.39785
-5.76137
-4.87991
-3.78822
-2.53228
-1.16716
0.2516
1.64382
2.94862
4.09848
5.03114
5.694
6.04659
6.06448
5.7419
5.09261
4.14996
2.96504
1.60823
0.158964
-1.29401
-2.65348
-3.8341
-4.75464
-5.35014
-5.57713
-5.41705
-4.88117
-4.00889
-2.8676
-1.54808
-0.15104
1.20392
2.40959
3.36393
3.9851
4.22192
4.05483
3.509
2.6435
1.55281
0.350609
-0.83424
-1.87432
-2.66033
-3.10743
-3.1715
-2.85477
-2.20648
-1.31946
-0.314148
0.676494
1.51423
2.09167
2.33153
2.20848
1.75263
1.04708
0.228013
-0.681728
-1.36209
-1.81794
-1.96032
-1.77486
-1.31038
-0.668034
0.0169512
0.644455
1.04512
1.18378
1.04346
0.67348
0.172607
-0.339381
-0.759467
-0.980763
-0.975258
-0.754701
-0.384566
0.0366257
0.400385
0.611918
46.2315
46.226
46.2161
46.199
46.179
46.1459
46.1134
46.0986
5.96373
6.06505
6.20873
6.39914
6.65094
6.95714
7.29445
7.66313
8.04905
8.44561
8.84295
9.2325
9.60556
9.95402
10.2704
10.5477
10.7796
10.9601
11.0837
11.1456
11.1411
11.0576
10.9003
10.667
10.3555
9.96466
9.4944
8.94565
8.32035
7.62161
6.85348
6.02094
5.12993
4.18739
3.2015
2.18121
1.1366
0.0780144
-0.982386
-2.03244
-3.0592
-4.04913
-4.9884
-5.86357
-6.6612
-7.36819
-7.97253
-8.46294
-8.82923
-9.06322
-9.15918
-9.10405
-8.90264
-8.55358
-8.05852
-7.42215
-6.65224
-5.75963
-4.75776
-3.66363
-2.4966
-1.27841
-0.0321669
1.2151
2.43723
3.60652
4.69522
5.6759
6.52227
7.21053
7.71908
8.03018
8.13021
8.00946
7.66668
7.10549
6.33657
5.37685
4.25108
2.99055
1.63274
0.218078
-1.20423
-2.58661
-3.87873
-5.0315
-5.99895
-6.74007
-7.2215
-7.41878
-7.31574
-6.91238
-6.21999
-5.2631
-4.07939
-2.71874
-1.24153
0.293177
1.79767
3.20686
4.44764
5.45278
6.16564
6.54258
6.55726
6.20408
5.49831
4.47618
3.19317
1.72584
0.160227
-1.4072
-2.87285
-4.14395
-5.13299
-5.77011
-6.00888
-5.82928
-5.24439
-4.29715
-3.06082
-1.63394
-0.126122
1.33424
2.63155
3.65563
4.31847
4.56598
4.37627
3.77868
2.83696
1.65368
0.353369
-0.925403
-2.04591
-2.88957
-3.36554
-3.42688
-3.07685
-2.36942
-1.40522
-0.316408
0.753409
1.65674
2.27654
2.53015
2.39111
1.89283
1.12535
0.236477
-0.738507
-1.47283
-1.96194
-2.11048
-1.90425
-1.39716
-0.699142
0.0444789
0.713589
1.14536
1.29071
1.13377
0.72938
0.185001