/*--------------------------------*- C++ -*----------------------------------*\
  =========                 |
  \\      /  F ield         | OpenFOAM: The Open Source CFD Toolbox
   \\    /   O peration     | Website:  https://openfoam.org
    \\  /    A nd           | Version:  12
     \\/     M anipulation  |
\*---------------------------------------------------------------------------*/
FoamFile
{
    format      ascii;
    class       surfaceScalarField;
    location    "14";
    object      phi;
}
// * * * * * * * * * * * * * * * * * * * * * * * * * * * * * * * * * * * * * //

dimensions      [1 0 -1 0 0 0 0];

internalField   nonuniform List<scalar> 
7429
(
0.000146025
-0.000146025
0.000296227
-0.000150203
0.000448511
-0.000152284
0.000602933
-0.000154423
0.000759608
-0.000156676
0.000918603
-0.000158995
0.00107997
-0.000161367
0.00124374
-0.000163766
0.00140993
-0.000166196
0.00157857
-0.000168642
0.00174965
-0.000171081
0.00192314
-0.000173492
0.0020991
-0.00017596
0.00227745
-0.000178348
0.00245821
-0.000180762
0.00264134
-0.000183131
0.00282682
-0.000185481
0.0030146
-0.000187775
0.0032046
-0.000190003
0.00339671
-0.000192108
0.00359077
-0.000194066
0.00378658
-0.000195804
0.00398385
-0.000197271
0.00418221
-0.000198364
0.00438124
-0.00019903
0.00458036
-0.000199118
0.00477894
-0.000198583
0.00497624
-0.000197302
0.00517141
-0.00019517
0.00536353
-0.000192117
0.0055516
-0.000188068
0.00573452
-0.00018292
0.00591118
-0.00017667
0.00608033
-0.000169143
0.0062407
-0.000160367
0.00639095
-0.000150256
0.00652992
-0.000138965
0.00665663
-0.000126717
0.00677013
-0.000113496
0.00686919
-9.90629e-05
0.00695225
-8.30579e-05
0.00701736
-6.51099e-05
0.00706335
-4.5992e-05
0.00708932
-2.59705e-05
0.00709146
-2.13984e-06
0.00706795
2.351e-05
0.00701792
5.00368e-05
0.00694021
7.77037e-05
0.00683401
0.0001062
0.0066986
0.000135408
0.00653361
0.000164992
0.00633882
0.000194796
0.00611463
0.000224189
0.00586121
0.000253416
0.00557965
0.000281568
0.00527054
0.000309107
0.00493566
0.000334879
0.00457599
0.000359669
0.00419373
0.000382265
0.00379044
0.000403283
0.00336921
0.000421237
0.00293262
0.000436592
0.00248418
0.000448434
0.00202742
0.00045676
0.00156636
0.000461059
0.00110517
0.000461199
0.000648412
0.000456753
0.000200725
0.000447687
-0.000232731
0.000433456
-0.000647055
0.000414324
-0.00103737
0.000390316
-0.00139859
0.000361218
-0.00172587
0.000327277
-0.00201475
0.000288889
-0.00226114
0.000246384
-0.00246085
0.000199716
-0.0026112
0.000150349
-0.00270938
9.81775e-05
-0.00275458
4.52009e-05
-0.00274007
-1.45091e-05
-0.00266595
-7.41178e-05
-0.00253508
-0.000130874
-0.00235086
-0.000184225
-0.00211622
-0.000234633
-0.00183557
-0.000280656
-0.00151309
-0.000322479
-0.00115513
-0.000357957
-0.000768378
-0.000386753
-0.000360876
-0.000407502
5.88322e-05
-0.000419709
0.000481246
-0.000422414
0.000896405
-0.000415159
0.00129413
-0.000397723
0.00166434
-0.000370209
0.00199691
-0.00033257
0.00228235
-0.000285439
0.00251201
-0.000229668
0.00267846
-0.00016645
0.00277582
-9.73594e-05
0.00279989
-2.40715e-05
0.00273766
6.22345e-05
0.00259493
0.000142726
0.00237555
0.000219384
0.00208475
0.000290802
0.00172881
0.00035594
0.00131647
0.000412339
0.000858463
0.000458005
0.000367973
0.000490491
-0.000139662
0.000507635
-0.000648355
0.000508693
-0.00114044
0.000492089
-0.00159862
0.000458171
-0.00200573
0.00040711
-0.00234552
0.00033979
-0.00260404
0.000258527
-0.00276991
0.000165872
-0.0028353
6.5384e-05
-0.00278595
-4.93527e-05
-0.00262434
-0.000161605
-0.00235871
-0.000265628
-0.00199884
-0.00035987
-0.00155724
-0.000441599
-0.00105069
-0.000506551
-0.000500415
-0.000550278
6.90651e-05
-0.00056948
0.000632156
-0.000563091
0.00116131
-0.000529151
0.00163071
-0.000469401
0.00201576
-0.000385056
0.00229596
-0.000280193
0.00245534
-0.000159385
0.00248526
-2.99141e-05
0.00236815
0.000117108
0.0021199
0.000248244
0.00175423
0.000365676
0.00129053
0.000463699
0.00075425
0.000536279
0.000176969
0.000577282
-0.00040594
0.000582909
-0.000957903
0.000551963
-0.00144299
0.000485089
-0.00182921
0.000386218
-0.00209058
0.00026137
-0.00220989
0.000119312
-0.00217067
-3.92225e-05
-0.00197846
-0.000192206
-0.00165303
-0.000325439
-0.00121887
-0.00043416
-0.000708625
-0.000510242
-0.000164113
-0.000544513
0.000370595
-0.000534708
0.000850387
-0.000479792
0.00123498
-0.000384596
0.00149267
-0.000257689
0.00160311
-0.000110436
0.00155055
5.25594e-05
0.00134776
0.000202787
0.00102054
0.000327218
0.00060398
0.000416563
0.000142467
0.000461513
-0.00031205
0.000454517
-0.000708439
0.00039639
-0.00100156
0.000293118
-0.00115857
0.000157017
-0.00116008
1.50568e-06
-0.000999252
-0.000160828
-0.000703545
-0.000295707
-0.000308196
-0.000395349
0.000138125
-0.000446321
0.000577137
-0.000439012
0.000951872
-0.000374735
0.00121343
-0.000261555
0.00132716
-0.000113735
0.00127163
5.55281e-05
0.00105714
0.000214495
0.000713139
0.000343999
0.000283839
0.000429299
-0.000174393
0.000458232
-0.000600698
0.000426305
-0.000942061
0.000341363
-0.00115975
0.000217686
-0.0012357
7.59575e-05
-0.00117021
-6.5497e-05
-0.00099088
-0.000179327
-0.000737418
-0.000253462
-0.000458158
-0.00027926
-0.000201096
-0.000257062
-3.47694e-06
-0.000197619
0.000112625
-0.000116102
0.000142054
-2.9429e-05
9.61019e-05
4.59522e-05
5.01721e-07
9.56001e-05
-0.00011634
0.000116841
-0.000222746
0.000106406
-0.000296388
7.36413e-05
-0.000322898
2.65104e-05
-0.000297668
-2.52306e-05
-0.000227427
-7.02408e-05
-0.000123163
-0.000104264
-0.000123163
0.000190695
-0.000336721
0.000390272
-0.000349781
0.000592087
-0.0003541
0.000795999
-0.000358335
0.00100192
-0.000362602
0.00120989
-0.000366967
0.00141985
-0.000371324
0.00163185
-0.000375771
0.00184591
-0.000380254
0.00206209
-0.000384818
0.0022804
-0.000389394
0.00250106
-0.000394153
0.00272436
-0.000399262
0.00294988
-0.000403871
0.00317689
-0.000407768
0.00340472
-0.000410966
0.00363285
-0.000413613
0.00386089
-0.000415814
0.00408844
-0.000417552
0.00431523
-0.000418896
0.00454093
-0.000419766
0.00476519
-0.00042007
0.00498755
-0.000419629
0.00520747
-0.000418285
0.00542418
-0.000415744
0.00563694
-0.00041188
0.00584456
-0.000406193
0.00604599
-0.000398739
0.00624007
-0.000389253
0.00642641
-0.000378459
0.00660482
-0.000366469
0.00677508
-0.000353183
0.0069367
-0.000338295
0.00708915
-0.000321593
0.0072317
-0.000302917
0.00736354
-0.000282094
0.00748333
-0.000258754
0.00758965
-0.000233043
0.00768089
-0.000204731
0.00775563
-0.000173806
0.00781288
-0.000140306
0.00785198
-0.000104206
0.00787181
-6.58282e-05
0.007872
-2.61553e-05
0.00783851
3.13517e-05
0.00777516
8.68588e-05
0.00768234
0.000142858
0.00756016
0.000199877
0.00740848
0.00025788
0.0072272
0.000316695
0.00701629
0.000375899
0.00677599
0.000435091
0.00650643
0.000493757
0.00620823
0.000551613
0.00588187
0.000607924
0.00552863
0.000662349
0.00514938
0.000714134
0.0047457
0.000763344
0.0043196
0.000808364
0.00387302
0.000849862
0.00340849
0.000885771
0.00292913
0.000915949
0.00243839
0.000939173
0.00194031
0.000954847
0.0014389
0.000962463
0.000939012
0.000961091
0.000445216
0.000950549
-3.7178e-05
0.000930081
-0.000502834
0.000899112
-0.000946395
0.000857885
-0.00136273
0.000806652
-0.00174621
0.000744695
-0.00209186
0.000672932
-0.00239475
0.000591775
-0.0026504
0.000502034
-0.00285484
0.00040416
-0.00300507
0.000300581
-0.0030979
0.000191007
-0.00313206
7.93572e-05
-0.0031
-4.65635e-05
-0.00300601
-0.000168116
-0.00285185
-0.000285035
-0.00263982
-0.000396254
-0.00237309
-0.000501357
-0.00205569
-0.000598061
-0.0016931
-0.000685062
-0.00129202
-0.000759041
-0.000860183
-0.00081859
-0.000405979
-0.000861705
6.05183e-05
-0.000886206
0.000528962
-0.000890858
0.000988599
-0.000874796
0.00142826
-0.000837383
0.00183689
-0.000778843
0.00220324
-0.000698917
0.00251706
-0.000599256
0.002769
-0.000481611
0.00295075
-0.000348205
0.00305543
-0.000202034
0.00307743
-4.60681e-05
0.00300879
0.000130867
0.00285329
0.000298229
0.00261422
0.000458455
0.00229607
0.00060895
0.0019059
0.000746115
0.0014532
0.000865036
0.000950877
0.000960329
0.000413481
0.00102789
-0.000142472
0.00106359
-0.000698841
0.00106506
-0.00123657
0.00102982
-0.00173671
0.000958312
-0.00218028
0.000850681
-0.00254955
0.000709057
-0.00282947
0.000538455
-0.00300699
0.000343388
-0.00307323
0.000131619
-0.00301528
-0.000107301
-0.00283795
-0.000338927
-0.00254754
-0.000556039
-0.00215336
-0.000754058
-0.00166978
-0.000925174
-0.0011168
-0.00105953
-0.000516402
-0.00115068
0.000104792
-0.00119067
0.000717008
-0.00117531
0.00129147
-0.00110361
0.00179883
-0.000976764
0.00221242
-0.00079865
0.00251099
-0.000578761
0.00267662
-0.000325011
0.0026981
-5.13957e-05
0.00256543
0.000249777
0.00229128
0.000522392
0.00188933
0.000767627
0.00138121
0.000971815
0.000796037
0.00112146
0.000168302
0.00120502
-0.000464914
0.00121613
-0.00106125
0.0011483
-0.00158233
0.00100617
-0.00199363
0.000797521
-0.00226705
0.000534787
-0.00238321
0.000235474
-0.00232836
-9.40664e-05
-0.00211127
-0.000409298
-0.00174948
-0.000687234
-0.00127021
-0.000913429
-0.000711262
-0.00106919
-0.000116277
-0.0011395
0.000461973
-0.00111296
0.000977158
-0.000994978
0.00138598
-0.000793413
0.00165336
-0.000525071
0.0017576
-0.000214683
0.00168593
0.000124231
0.00145344
0.000435282
0.00108559
0.000695067
0.000621784
0.000880367
0.000111923
0.000971375
-0.00038576
0.000952199
-0.000816775
0.000827405
-0.00113293
0.000609276
-0.00129845
0.000322536
-0.00129104
-5.90414e-06
-0.00111225
-0.000339622
-0.000786467
-0.000621488
-0.000353602
-0.000828214
0.000132589
-0.000932512
0.000608274
-0.000914698
0.00101192
-0.000778378
0.00129107
-0.000540711
0.00140927
-0.000231935
0.00134609
0.000118707
0.00111449
0.000446097
0.000745533
0.000712958
0.000289108
0.000885724
-0.000193573
0.000940913
-0.000636801
0.000869532
-0.000984776
0.000689338
-0.00119752
0.000430429
-0.00125736
0.000135799
-0.00116916
-0.000153698
-0.000963271
-0.000385216
-0.000684664
-0.000532069
-0.000386137
-0.000577787
-0.000118161
-0.000525038
8.06114e-05
-0.000396392
0.000186955
-0.000222446
0.000200104
-4.25788e-05
0.000135076
0.000110981
2.01146e-05
0.000210561
-0.000110242
0.000247198
-0.000225762
0.000221927
-0.000303319
0.000151198
-0.00032969
5.28819e-05
-0.000302844
-5.20767e-05
-0.000230318
-0.000142767
-0.000124297
-0.000210285
-0.000247459
9.71761e-05
-0.000433898
0.000196174
-0.000448779
0.00029486
-0.000452788
0.000392682
-0.000456158
0.000488986
-0.000458907
0.000583675
-0.000461656
0.00067647
-0.00046412
0.000768644
-0.000467946
0.000861401
-0.000473013
0.000955131
-0.000478549
0.00104816
-0.000482425
0.00114008
-0.000486071
0.00123039
-0.000489576
0.00132016
-0.000493642
0.00141158
-0.000499189
0.00150651
-0.000505892
0.00160662
-0.000513726
0.00171332
-0.000522517
0.00182788
-0.000532115
0.00195148
-0.000542489
0.00208513
-0.000553423
0.0022298
-0.000564739
0.002386
-0.000575834
0.00255441
-0.000586695
0.00273487
-0.000596202
0.00292758
-0.000604585
0.00313185
-0.000610467
0.00334728
-0.000614171
0.00357229
-0.000614264
0.00380495
-0.000611116
0.00404249
-0.000604007
0.00428238
-0.000593073
0.00452203
-0.000577946
0.00475882
-0.000558388
0.00499003
-0.000534127
0.00521503
-0.000507097
0.00543432
-0.000478038
0.00564592
-0.000444639
0.0058466
-0.00040542
0.00603496
-0.000362162
0.00620671
-0.000312054
0.00635728
-0.000254775
0.0064853
-0.000193853
0.0065848
-0.000125651
0.00666516
-4.9006e-05
0.00671737
3.46456e-05
0.00673762
0.000122605
0.00672324
0.00021426
0.00667218
0.000308942
0.00658288
0.000405987
0.0064546
0.000504181
0.00628665
0.000603043
0.00607875
0.000701655
0.00583116
0.000799212
0.00554424
0.00089484
0.00521865
0.000987942
0.00485564
0.00107714
0.00445726
0.00116172
0.00402595
0.00123967
0.00356502
0.00131079
0.0030779
0.00137289
0.00256891
0.00142494
0.0020424
0.00146568
0.00150355
0.0014937
0.000957503
0.00150851
0.000410127
0.00150847
-0.000132491
0.00149317
-0.000663821
0.00146141
-0.00117756
0.00141285
-0.00166682
0.00134715
-0.00212523
0.00126506
-0.00254633
0.00116579
-0.00292333
0.00104993
-0.00325113
0.000919576
-0.00352387
0.000774775
-0.00373669
0.000616977
-0.00388494
0.000448837
-0.00396613
0.000272195
-0.00397668
8.99031e-05
-0.00390952
-0.000113725
-0.00377055
-0.000307085
-0.00356188
-0.000493705
-0.00328494
-0.00067319
-0.00294384
-0.000842454
-0.00254259
-0.000999317
-0.00208865
-0.001139
-0.00158987
-0.00125782
-0.00105571
-0.00135275
-0.00049733
-0.00142008
7.44285e-05
-0.00145796
0.000647086
-0.00146352
0.00120771
-0.00143542
0.00174252
-0.00137219
0.00223797
-0.0012743
0.00268114
-0.00114208
0.00305982
-0.00097794
0.00336272
-0.000784513
0.00357948
-0.000564968
0.00370221
-0.000324758
0.00372465
-6.85137e-05
0.00363969
0.000215834
0.00345115
0.000486764
0.00316193
0.000747677
0.00277664
0.000994242
0.00230466
0.00121809
0.00175828
0.00141142
0.00115228
0.00156632
0.000504096
0.00167607
-0.000165158
0.00173284
-0.000833749
0.00173365
-0.00147993
0.001676
-0.00207845
0.00155683
-0.00260789
0.00138012
-0.00304797
0.00114914
-0.00337859
0.000869082
-0.00358593
0.000550722
-0.00365603
0.000201717
-0.00358075
-0.000182574
-0.00336409
-0.000555592
-0.00301203
-0.0009081
-0.00253582
-0.00123026
-0.00195284
-0.00150815
-0.00128696
-0.00172542
-0.000565807
-0.00187183
0.000176641
-0.00193312
0.000906477
-0.00190514
0.00158829
-0.00178542
0.00218822
-0.0015767
0.00267507
-0.0012855
0.00301977
-0.000923459
0.00320282
-0.000508064
0.00321709
-6.56691e-05
0.00304721
0.000419658
0.00271021
0.000859389
0.00222145
0.0012564
0.00160806
0.0015852
0.000903966
0.00182555
0.000151358
0.00195762
-0.000599457
0.00196694
-0.00130324
0.00185208
-0.00191362
0.00161654
-0.00238922
0.00127312
-0.00269789
0.000843459
-0.00281801
0.000355592
-0.00273372
-0.000178358
-0.00245923
-0.000683781
-0.00201329
-0.00113317
-0.00143019
-0.00149653
-0.000755978
-0.0017434
-4.55491e-05
-0.00184993
0.000639608
-0.00179812
0.00124442
-0.00159979
0.00171644
-0.00126544
0.00201642
-0.000825051
0.00211871
-0.000316968
0.00201099
0.000231949
0.00171316
0.000733115
0.00125553
0.00115269
0.000686544
0.00144936
6.74102e-05
0.00159051
-0.000530087
0.0015497
-0.00104352
0.00134084
-0.00141504
0.000980791
-0.00160262
0.000510123
-0.00158118
-2.7343e-05
-0.00135928
-0.000561524
-0.000962739
-0.00101803
-0.000441125
-0.00134983
0.000140208
-0.00151384
0.000704361
-0.00147885
0.00117877
-0.00125278
0.00150192
-0.000863865
0.00163285
-0.000362869
0.00155189
0.00019967
0.00127501
0.000722976
0.000841129
0.00114684
0.000310653
0.0014162
-0.000242473
0.00149404
-0.000741723
0.00136878
-0.00112208
0.00106969
-0.0013396
0.000647949
-0.00137774
0.000173935
-0.00124703
-0.000284407
-0.000985794
-0.000646447
-0.000649634
-0.00086823
-0.000301702
-0.000925719
-7.79707e-07
-0.000825961
0.000209617
-0.000606789
0.000307964
-0.000320792
0.000296355
-3.097e-05
0.000197899
0.000209436
4.81989e-05
0.000360262
-0.000112554
0.000407951
-0.000248907
0.000358279
-0.000335928
0.00023822
-0.000362647
7.96011e-05
-0.000330183
-8.4541e-05
-0.000248886
-0.000224064
-0.000133433
-0.000325739
-0.000380892
0.000183113
-0.000617012
0.000378073
-0.00064374
0.000578813
-0.000653529
0.000786826
-0.000664172
0.00100219
-0.000674275
0.00122638
-0.000685845
0.00145672
-0.000694455
0.0016939
-0.000705135
0.00193045
-0.000709564
0.00216531
-0.000713405
0.00239592
-0.000713036
0.00262271
-0.00071286
0.00284302
-0.00070989
0.00305595
-0.000706572
0.00326073
-0.000703977
0.00345849
-0.000703651
0.00365081
-0.000706048
0.00383994
-0.000711649
0.00402836
-0.000720532
0.00421968
-0.000733814
0.00441621
-0.000749954
0.0046204
-0.000768925
0.00483281
-0.000788241
0.00505536
-0.000809253
0.00528609
-0.000826934
0.00552553
-0.000844026
0.00576752
-0.00085245
0.00601166
-0.000858314
0.00624736
-0.000849968
0.00647743
-0.000841187
0.00670166
-0.000828233
0.00692341
-0.000814822
0.00714184
-0.000796375
0.00735668
-0.000773234
0.0075668
-0.000744241
0.00776862
-0.000708921
0.00795768
-0.000667103
0.00813127
-0.000618223
0.00828788
-0.000562034
0.00842418
-0.000498465
0.00853937
-0.000427244
0.0086328
-0.000348199
0.0087008
-0.000261855
0.00874129
-0.000166145
0.00876181
-6.95193e-05
0.00872686
6.9596e-05
0.0086496
0.000199865
0.00853321
0.000330646
0.00837765
0.000464507
0.00818323
0.000600406
0.00794901
0.000738402
0.00767443
0.000877617
0.00735887
0.00101722
0.00700148
0.0011566
0.00660326
0.00129307
0.00616444
0.00142676
0.00568693
0.00155465
0.00517186
0.0016768
0.00462193
0.0017896
0.00404019
0.00189254
0.00343133
0.00198174
0.00279942
0.00205685
0.00214996
0.00211515
0.00148881
0.00215485
0.000822139
0.00217518
0.000156792
0.00217381
-0.000500295
0.00215025
-0.00114169
0.00210281
-0.00175943
0.00203059
-0.00234526
0.00193298
-0.00289221
0.00181201
-0.00339178
0.00166536
-0.00383613
0.00149429
-0.00421934
0.00130279
-0.00453403
0.00108946
-0.00477356
0.000856509
-0.00493338
0.00060865
-0.0050094
0.000348217
-0.0049976
7.81066e-05
-0.00489779
-0.000213536
-0.0047116
-0.000493279
-0.00443955
-0.000765751
-0.00408404
-0.0010287
-0.0036497
-0.00127679
-0.00314381
-0.0015052
-0.00257372
-0.00170909
-0.00195031
-0.00188123
-0.00128519
-0.00201788
-0.000590598
-0.00211467
0.000118785
-0.00216735
0.000827589
-0.00217232
0.00151931
-0.00212714
0.0021773
-0.00203018
0.00278631
-0.00188331
0.00332984
-0.00168561
0.00379289
-0.00144098
0.0041613
-0.00115293
0.00442278
-0.000826448
0.00456788
-0.000469855
0.00459151
-9.2143e-05
0.00448352
0.000323822
0.00424886
0.000721424
0.00389032
0.00110622
0.00341458
0.00146998
0.00283222
0.00180045
0.00215857
0.00208508
0.00141299
0.0023119
0.000616652
0.00247241
-0.000204906
0.0025544
-0.00102523
0.00255398
-0.00181413
0.0024649
-0.00254533
0.00228803
-0.00319044
0.00202522
-0.00372175
0.00168045
-0.00411792
0.00126525
-0.00436028
0.000793079
-0.00444168
0.000283125
-0.00434137
-0.000282885
-0.00407015
-0.000826815
-0.00363328
-0.00134497
-0.00304503
-0.00181852
-0.00232884
-0.00222434
-0.00151166
-0.0025426
-0.000631586
-0.0027519
0.000274005
-0.00283871
0.00116159
-0.00279273
0.00198836
-0.00261219
0.00271021
-0.00229855
0.00329145
-0.00186673
0.00369996
-0.00133197
0.00391197
-0.000720075
0.00390666
-6.03548e-05
0.0036882
0.000638111
0.00326585
0.00128174
0.00265967
0.00186258
0.00190254
0.00234232
0.00104127
0.00268683
0.000127757
0.00287113
-0.000783729
0.00287843
-0.0016322
0.00270055
-0.00236193
0.00234628
-0.00292369
0.00183488
-0.00327818
0.00119794
-0.00339928
0.00047669
-0.00327829
-0.000299342
-0.00292619
-0.00103588
-0.00236747
-0.0016919
-0.00164555
-0.00221845
-0.000818543
-0.00257041
4.55097e-05
-0.00271398
0.000875951
-0.00262856
0.00160068
-0.00232452
0.00215755
-0.0018223
0.00249902
-0.00116652
0.0025975
-0.000415452
0.00244268
0.000386776
0.00205744
0.00111835
0.00147999
0.00173014
0.000772791
0.00215656
1.06311e-05
0.00235267
-0.000721092
0.00228142
-0.00134312
0.00196286
-0.0017864
0.00142407
-0.00200275
0.000726472
-0.00196318
-6.69114e-05
-0.00168055
-0.000844154
-0.00118812
-0.00151047
-0.000547738
-0.00199021
0.000159914
-0.0022215
0.000841256
-0.00216019
0.00140906
-0.00182058
0.00179037
-0.00124518
0.00193639
-0.000508894
0.00182925
0.000306816
0.00148938
0.00106284
0.000966153
0.00167006
0.000334657
0.0020477
-0.000314445
0.00214314
-0.000889437
0.00194377
-0.0013151
0.00149536
-0.00154143
0.000874273
-0.00155134
0.00018385
-0.00136452
-0.000471229
-0.00103014
-0.000980832
-0.000617938
-0.00128043
-0.000204879
-0.00133878
0.000139296
-0.00117014
0.000365681
-0.000833173
0.000453401
-0.000408513
0.000410086
1.2345e-05
0.000268426
0.000351096
7.37403e-05
0.000554947
-0.000124679
0.00060637
-0.000285733
0.000519334
-0.000383407
0.000335893
-0.00040858
0.000104774
-0.000367458
-0.000125662
-0.000273874
-0.000317648
-0.000145662
-0.000453951
-0.000526555
0.000200891
-0.000817903
0.00040926
-0.00085211
0.000613783
-0.000858053
0.000812212
-0.000862602
0.00100163
-0.000863691
0.00118878
-0.000873001
0.00134461
-0.000850284
0.00146342
-0.000823947
0.00150909
-0.000755235
0.00149858
-0.000702896
0.00143802
-0.00065247
0.00134528
-0.000620121
0.00123056
-0.000595172
0.00110745
-0.000583466
0.000986094
-0.000582619
0.000876763
-0.00059432
0.00078759
-0.000616876
0.000725863
-0.000649922
0.000695871
-0.000690542
0.000699445
-0.000737388
0.000737232
-0.000787742
0.000814572
-0.000846265
0.00093153
-0.0009052
0.00109266
-0.000970385
0.001295
-0.00102927
0.00154372
-0.00109275
0.00182646
-0.0011352
0.0021479
-0.00117975
0.00248551
-0.00118758
0.00284161
-0.00119728
0.00320981
-0.00119643
0.00358812
-0.00119314
0.00397369
-0.00118194
0.00436407
-0.00116362
0.00475692
-0.00113709
0.00514885
-0.00110085
0.00553612
-0.00105437
0.00591381
-0.00099591
0.0062778
-0.000926022
0.00662257
-0.000843243
0.00694244
-0.00074711
0.00723144
-0.000637202
0.00748684
-0.00051725
0.00769949
-0.000378802
0.0078631
-0.00023313
0.00800151
-6.8805e-05
0.00809046
0.000110908
0.00812683
0.000294282
0.00810737
0.000483966
0.00802961
0.000678167
0.00789241
0.000875595
0.00769419
0.00107584
0.00743535
0.00127606
0.00711593
0.00147602
0.00673609
0.00167291
0.00629776
0.00186509
0.00580408
0.00204833
0.00525845
0.00222243
0.00466513
0.00238291
0.00402783
0.00252984
0.00335286
0.00265671
0.00264566
0.00276405
0.00191313
0.00284768
0.00116289
0.00290509
0.000402872
0.0029352
-0.000357876
0.00293456
-0.00111088
0.00290326
-0.00184644
0.00283837
-0.0025555
0.00273965
-0.00322814
0.00260561
-0.0038547
0.00243858
-0.00442516
0.00223582
-0.00493035
0.00199948
-0.00536254
0.00173498
-0.00571167
0.00143859
-0.00597408
0.00111892
-0.006143
0.000777564
-0.00621018
0.000415402
-0.00617019
3.81151e-05
-0.00602626
-0.000357468
-0.0057792
-0.000740333
-0.00542955
-0.0011154
-0.00498107
-0.00147718
-0.00443884
-0.00181903
-0.00381106
-0.00213298
-0.00310869
-0.00241146
-0.00234334
-0.00264657
-0.00152891
-0.00283232
-0.000680687
-0.00296289
0.000183328
-0.00303136
0.00104463
-0.00303362
0.00188352
-0.00296603
0.00268103
-0.00282769
0.00341747
-0.00261975
0.00407338
-0.00234152
0.00462977
-0.00199738
0.00507043
-0.00159358
0.00538056
-0.00113658
0.00554932
-0.000638614
0.00557333
-0.000116153
0.00543699
0.000460163
0.00514739
0.00101102
0.00470781
0.00154579
0.0041265
0.0020513
0.00341785
0.0025091
0.00260036
0.00290257
0.00169459
0.00321767
0.000731477
0.00343552
-0.000261317
0.00354719
-0.00125007
0.00354273
-0.00220192
0.00341675
-0.00307935
0.00316547
-0.00385288
0.00279875
-0.00448883
0.00231639
-0.00496236
0.00173878
-0.00524932
0.00108004
-0.00533274
0.000366542
-0.0052046
-0.00041102
-0.00486939
-0.00116203
-0.00433466
-0.00187969
-0.00361768
-0.00253551
-0.00274712
-0.0030949
-0.00176097
-0.00352874
-0.000697119
-0.00381575
0.000393476
-0.00392931
0.00145792
-0.00385717
0.00244665
-0.00360091
0.00330829
-0.0031602
0.00399575
-0.00255418
0.00447217
-0.0018084
0.00470834
-0.000956246
0.00468098
-3.29885e-05
0.00440592
0.000913166
0.00388409
0.00180357
0.00314395
0.00260272
0.00222849
0.00325778
0.00118891
0.00372641
8.56105e-05
0.00397444
-0.00100282
0.00396686
-0.00201206
0.00370979
-0.00287516
0.00320938
-0.00353208
0.00249181
-0.00393794
0.00160381
-0.00406131
0.000600052
-0.00389245
-0.000468198
-0.00344795
-0.00148038
-0.00275851
-0.00238135
-0.00187845
-0.00309851
-0.000877761
-0.0035711
0.00016077
-0.00375251
0.00115051
-0.00361829
0.00200773
-0.00318174
0.00265927
-0.00247385
0.00304593
-0.00155318
0.0031351
-0.000504616
0.0029256
0.000596272
0.00243948
0.00160446
0.00172587
0.00244376
0.00086191
0.00302052
-6.16386e-05
0.00327622
-0.00094263
0.00316241
-0.00168556
0.00270579
-0.00220736
0.00194587
-0.00245042
0.000969541
-0.00238875
-0.000128584
-0.00203566
-0.00119725
-0.00143332
-0.0021128
-0.000657389
-0.00276614
0.000192748
-0.00307163
0.00100492
-0.00297236
0.00167548
-0.00249115
0.00211853
-0.00168822
0.0022773
-0.000667673
0.00213767
0.000446448
0.00172352
0.001477
0.00109762
0.00229597
0.000352531
0.00279278
-0.000404516
0.00290019
-0.00106412
0.00260337
-0.00153792
0.00196916
-0.00177092
0.00110728
-0.00174673
0.000159655
-0.00149553
-0.000722426
-0.00107842
-0.00139794
-0.000581048
-0.00177781
-9.61684e-05
-0.00182366
0.000293526
-0.00155983
0.000534599
-0.00107425
0.00060751
-0.000481424
0.000527209
9.2646e-05
0.000336322
0.000541982
9.23267e-05
0.000798943
-0.000146006
0.000844702
-0.000331796
0.000705124
-0.000438278
0.000442376
-0.000459393
0.000125888
-0.000406641
-0.000178415
-0.000299096
-0.000425193
-0.000157676
-0.000595371
-0.000684231
3.70927e-05
-0.000854997
9.06273e-05
-0.000905645
0.000181989
-0.000949416
0.00033082
-0.00101143
0.000548149
-0.00108102
0.000852265
-0.00117712
0.00122304
-0.00122106
0.00171464
-0.00131555
0.00216481
-0.0012054
0.00259933
-0.00113742
0.00296103
-0.00101417
0.0032508
-0.000909893
0.00346213
-0.000806508
0.00359993
-0.000721265
0.00367147
-0.000654156
0.00368633
-0.000609189
0.00365616
-0.000586702
0.0035936
-0.000587359
0.00351408
-0.000611028
0.0034397
-0.000663003
0.00339035
-0.000738399
0.00338893
-0.000844843
0.00344795
-0.000964218
0.00359266
-0.0011151
0.00380837
-0.00124499
0.00411912
-0.00140349
0.00445853
-0.00147461
0.00489509
-0.00161631
0.00528621
-0.00157869
0.00570237
-0.00161345
0.00609531
-0.00158938
0.00648676
-0.00158458
0.00686652
-0.00156171
0.00723679
-0.00153388
0.00759461
-0.00149491
0.00793773
-0.00144398
0.00826373
-0.00138037
0.00857135
-0.00130353
0.00885591
-0.00121058
0.00911537
-0.00110271
0.00934832
-0.000980059
0.00954866
-0.000837544
0.00971332
-0.000681907
0.00984646
-0.000511941
0.00993789
-0.000324558
0.00999345
-0.000124362
0.00997099
0.000133366
0.00989461
0.000370657
0.00976632
0.000612259
0.00958294
0.000861549
0.00934167
0.00111687
0.00904125
0.00137625
0.00867854
0.00163877
0.00825425
0.00190031
0.00776807
0.00215909
0.00722083
0.00241233
0.00661477
0.00265439
0.00595216
0.00288503
0.00523811
0.00309697
0.00447734
0.0032906
0.00367561
0.00345845
0.00283952
0.00360015
0.00197718
0.00371001
0.00109703
0.00378524
0.000207931
0.00382429
-0.000680886
0.00382338
-0.00155862
0.00378099
-0.00241547
0.00369522
-0.00323818
0.00356237
-0.00401605
0.00338348
-0.00473856
0.00316108
-0.00539579
0.00289305
-0.00597598
0.00257966
-0.00646631
0.0022253
-0.00686427
0.00183656
-0.00715259
0.00140724
-0.00733186
0.000956836
-0.00739222
0.000475759
-0.0073251
-2.90008e-05
-0.00714311
-0.000539456
-0.00683862
-0.00104483
-0.00641297
-0.00154105
-0.00587116
-0.00201899
-0.00522047
-0.00246972
-0.00446994
-0.00288351
-0.00363187
-0.00324953
-0.00272119
-0.00355726
-0.00175363
-0.00379988
-0.000748026
-0.00396849
0.000272852
-0.00405224
0.00128929
-0.00405006
0.0022788
-0.00395554
0.00321783
-0.00376673
0.00408344
-0.00348536
0.00485248
-0.00311056
0.00550317
-0.00264807
0.00601638
-0.00210679
0.0063756
-0.0014958
0.00656906
-0.000832079
0.00658464
-0.000131731
0.00641887
0.000625932
0.00607245
0.00135744
0.00554886
0.00206939
0.00485843
0.00274173
0.0040162
0.00335134
0.00304589
0.00387287
0.00197867
0.0042849
0.000841841
0.00457235
-0.000330332
0.00471937
-0.00149565
0.00470805
-0.00261348
0.00453457
-0.00364654
0.00419853
-0.00455028
0.00370249
-0.00529102
0.00305713
-0.00583757
0.00228534
-0.00616366
0.00140612
-0.00624607
0.000448961
-0.00608862
-0.000568471
-0.00568545
-0.0015652
-0.00504695
-0.0025182
-0.00419716
-0.00338529
-0.00316957
-0.00412249
-0.00200155
-0.00469676
-0.000751399
-0.00506591
0.000527173
-0.00520788
0.00177523
-0.00510523
0.00292662
-0.0047523
0.00392712
-0.0041607
0.0047225
-0.00334956
0.00526527
-0.00235118
0.00552808
-0.00121906
0.00548234
1.27572e-05
0.00514173
0.00125377
0.004514
0.0024313
0.00363405
0.00348268
0.00254769
0.00434414
0.00132069
0.00495341
3.26721e-05
0.00526245
-0.0012427
0.00524223
-0.00241694
0.00488403
-0.0034143
0.00420674
-0.00416517
0.00324267
-0.00461611
0.00205475
-0.00473616
0.000720098
-0.00451936
-0.000684995
-0.00397682
-0.00202293
-0.00315127
-0.00320689
-0.0021065
-0.00414328
-0.000927592
-0.00475
0.00029076
-0.00497086
0.00144441
-0.00477194
0.00243506
-0.0041724
0.00317802
-0.00321681
0.00360955
-0.00198471
0.00368929
-0.000584361
0.00341858
0.00086698
0.00282367
0.00219937
0.00196782
0.00329961
0.00094185
0.00404649
-0.000148268
0.00436633
-0.00118041
0.00419455
-0.00204284
0.00356823
-0.00264215
0.00254518
-0.00291197
0.00123937
-0.00282336
-0.000217196
-0.00239271
-0.0016279
-0.00167439
-0.00283112
-0.000759795
-0.00368074
0.000235744
-0.00406717
0.00118019
-0.00391681
0.0019531
-0.00326406
0.002455
-0.00219012
0.00262584
-0.00083852
0.00244822
0.00062407
0.00195458
0.00197064
0.00122189
0.00302866
0.000359756
0.00365491
-0.000506356
0.0037663
-0.00124937
0.00334639
-0.00176992
0.00248971
-0.0020057
0.00134306
-0.00194383
9.7779e-05
-0.00162302
-0.00104324
-0.00111949
-0.00190147
-0.000536274
-0.00236102
1.90146e-05
-0.00237895
0.000453028
-0.00199384
0.000705494
-0.00132671
0.000759192
-0.000535121
0.000637768
0.00021407
0.000395308
0.000784441
0.000101602
0.00109265
-0.000174755
0.00112106
-0.000382515
0.000912884
-0.000494477
0.000554337
-0.000508622
0.000140033
-0.000442374
-0.000244663
-0.000320435
-0.000547131
-0.000167089
-0.000748717
-0.00085132
0.000440366
-0.00129536
0.000926108
-0.00139139
0.00150136
-0.00152466
0.00222159
-0.00173167
0.00316121
-0.00202064
0.00436
-0.00237591
0.00562543
-0.00248649
0.00666088
-0.002351
0.00654293
-0.00108745
0.00588612
-0.000480612
0.0049128
-4.0843e-05
0.00386079
0.000142112
0.00282749
0.000226791
0.00182753
0.000278697
0.000872902
0.00030047
-2.42425e-05
0.000287955
-0.000817906
0.000206961
-0.00149717
9.19077e-05
-0.00200645
-0.000101751
-0.00233243
-0.000337024
-0.0025212
-0.000549631
-0.00256264
-0.000803406
-0.0024929
-0.00103395
-0.00228428
-0.00132372
-0.00195923
-0.00157004
-0.00143103
-0.0019317
-0.000745534
-0.0021601
0.00023371
-0.00259556
0.00108069
-0.00242567
0.00182738
-0.00236014
0.00251199
-0.00227399
0.00316001
-0.00223261
0.00378604
-0.00218774
0.00439455
-0.00214239
0.00499234
-0.00209269
0.00557872
-0.00203036
0.0061533
-0.00195495
0.00671189
-0.00186212
0.00724801
-0.0017467
0.0077556
-0.00161031
0.00822658
-0.00145104
0.00865759
-0.00126855
0.00903669
-0.00106101
0.0093551
-0.000830354
0.00960849
-0.000577945
0.00978794
-0.000303808
0.00993094