/*--------------------------------*- C++ -*----------------------------------*\
  =========                 |
  \\      /  F ield         | OpenFOAM: The Open Source CFD Toolbox
   \\    /   O peration     | Website:  https://openfoam.org
    \\  /    A nd           | Version:  12
     \\/     M anipulation  |
\*---------------------------------------------------------------------------*/
FoamFile
{
    format      ascii;
    class       volVectorField;
    location    "14";
    object      U;
}
// * * * * * * * * * * * * * * * * * * * * * * * * * * * * * * * * * * * * * //

dimensions      [0 1 -1 0 0 0 0];

internalField   nonuniform List<vector> 
3829
(
(6.13706e-06 -0.000430428 0)
(1.73974e-05 -0.000447532 0)
(2.98751e-05 -0.00044721 0)
(4.19586e-05 -0.000446205 0)
(5.44548e-05 -0.000444852 0)
(6.70245e-05 -0.000443122 0)
(7.9839e-05 -0.000441019 0)
(9.28175e-05 -0.000438534 0)
(0.000106 -0.000435655 0)
(0.000119353 -0.000432381 0)
(0.000132926 -0.000428698 0)
(0.000146715 -0.000424602 0)
(0.000160651 -0.000420085 0)
(0.000174786 -0.000415132 0)
(0.00018912 -0.000409734 0)
(0.000203651 -0.000403887 0)
(0.000218367 -0.000397593 0)
(0.000233264 -0.000390851 0)
(0.000248342 -0.000383668 0)
(0.0002636 -0.000376042 0)
(0.000279032 -0.000367995 0)
(0.0002946 -0.000359526 0)
(0.000310249 -0.000350649 0)
(0.000326041 -0.00034137 0)
(0.00034191 -0.000331712 0)
(0.000357843 -0.00032169 0)
(0.000373729 -0.000311325 0)
(0.000389499 -0.000300632 0)
(0.000405225 -0.000289642 0)
(0.000420738 -0.000278402 0)
(0.000435886 -0.000266924 0)
(0.000450814 -0.000255236 0)
(0.000465073 -0.000243369 0)
(0.000478822 -0.000231315 0)
(0.000492013 -0.000219117 0)
(0.000504359 -0.000206739 0)
(0.000515963 -0.000194252 0)
(0.000526548 -0.000181612 0)
(0.000536145 -0.000168874 0)
(0.000544606 -0.000156035 0)
(0.000551885 -0.000143148 0)
(0.000557809 -0.000130245 0)
(0.000562234 -0.000117327 0)
(0.000565101 -0.000104425 0)
(0.000566224 -9.156e-05 0)
(0.000565363 -7.88333e-05 0)
(0.000562359 -6.63143e-05 0)
(0.000557283 -5.4043e-05 0)
(0.000549974 -4.21029e-05 0)
(0.000540293 -3.04999e-05 0)
(0.000528171 -1.93134e-05 0)
(0.000513873 -8.5264e-06 0)
(0.000497103 1.72674e-06 0)
(0.000478015 1.15244e-05 0)
(0.000456686 2.06943e-05 0)
(0.000432918 2.93606e-05 0)
(0.000407307 3.72589e-05 0)
(0.000379528 4.45744e-05 0)
(0.000349761 5.11079e-05 0)
(0.000318379 5.69505e-05 0)
(0.000285399 6.18723e-05 0)
(0.000251168 6.60322e-05 0)
(0.000215766 6.92917e-05 0)
(0.000179566 7.16491e-05 0)
(0.000142774 7.30952e-05 0)
(0.000105933 7.36423e-05 0)
(6.92396e-05 7.32146e-05 0)
(3.31922e-05 7.19012e-05 0)
(-1.89108e-06 6.96071e-05 0)
(-3.58319e-05 6.64394e-05 0)
(-6.78978e-05 6.23823e-05 0)
(-9.79838e-05 5.75096e-05 0)
(-0.000125309 5.18597e-05 0)
(-0.000150018 4.54944e-05 0)
(-0.000171221 3.85758e-05 0)
(-0.000189152 3.1057e-05 0)
(-0.000203086 2.32366e-05 0)
(-0.000212893 1.4995e-05 0)
(-0.000218628 6.71314e-06 0)
(-0.000219668 -1.6869e-06 0)
(-0.000216162 -9.90501e-06 0)
(-0.00020784 -1.79178e-05 0)
(-0.000195232 -2.55179e-05 0)
(-0.000178569 -3.26114e-05 0)
(-0.00015795 -3.89713e-05 0)
(-0.000133665 -4.45659e-05 0)
(-0.000106462 -4.91617e-05 0)
(-7.67022e-05 -5.27313e-05 0)
(-4.49452e-05 -5.51176e-05 0)
(-1.1861e-05 -5.62949e-05 0)
(2.17559e-05 -5.61606e-05 0)
(5.52391e-05 -5.47261e-05 0)
(8.76867e-05 -5.19821e-05 0)
(0.000118363 -4.79647e-05 0)
(0.000146422 -4.27349e-05 0)
(0.000171066 -3.64052e-05 0)
(0.000191646 -2.91047e-05 0)
(0.000207418 -2.1007e-05 0)
(0.000217941 -1.22835e-05 0)
(0.000222733 -3.19769e-06 0)
(0.000221173 6.02292e-06 0)
(0.000212923 1.51065e-05 0)
(0.00019842 2.38732e-05 0)
(0.000177981 3.20054e-05 0)
(0.000152116 3.92712e-05 0)
(0.000121407 4.53614e-05 0)
(8.65809e-05 5.01412e-05 0)
(4.88936e-05 5.33346e-05 0)
(8.73958e-06 5.47983e-05 0)
(-3.20786e-05 5.44805e-05 0)
(-7.2054e-05 5.22751e-05 0)
(-0.000110067 4.83094e-05 0)
(-0.000144512 4.25917e-05 0)
(-0.000174387 3.5361e-05 0)
(-0.000198262 2.6746e-05 0)
(-0.000215085 1.7187e-05 0)
(-0.00022434 6.86447e-06 0)
(-0.000224822 -3.62384e-06 0)
(-0.000216258 -1.40821e-05 0)
(-0.000199147 -2.39115e-05 0)
(-0.000174029 -3.27717e-05 0)
(-0.000141835 -4.02984e-05 0)
(-0.000103915 -4.60934e-05 0)
(-6.17667e-05 -4.97678e-05 0)
(-1.6573e-05 -5.11624e-05 0)
(2.89993e-05 -5.02289e-05 0)
(7.26873e-05 -4.6874e-05 0)
(0.000112618 -4.12799e-05 0)
(0.000146713 -3.36971e-05 0)
(0.000173215 -2.44209e-05 0)
(0.00019069 -1.39892e-05 0)
(0.000198083 -2.84153e-06 0)
(0.000194524 8.30211e-06 0)
(0.000179652 1.88066e-05 0)
(0.000154877 2.83285e-05 0)
(0.000121676 3.60001e-05 0)
(8.15756e-05 4.16367e-05 0)
(3.68823e-05 4.45061e-05 0)
(-1.00241e-05 4.47705e-05 0)
(-5.57938e-05 4.20466e-05 0)
(-9.72142e-05 3.6818e-05 0)
(-0.000132035 2.91725e-05 0)
(-0.00015778 1.9751e-05 0)
(-0.000172864 9.14116e-06 0)
(-0.000175819 -1.81011e-06 0)
(-0.000166252 -1.24053e-05 0)
(-0.000145389 -2.17915e-05 0)
(-0.000114584 -2.93438e-05 0)
(-7.66527e-05 -3.44814e-05 0)
(-3.43017e-05 -3.66482e-05 0)
(9.42805e-06 -3.58297e-05 0)
(5.04451e-05 -3.19851e-05 0)
(8.49623e-05 -2.55729e-05 0)
(0.000110492 -1.71468e-05 0)
(0.000125007 -7.50796e-06 0)
(0.000126976 2.38354e-06 0)
(0.000116371 1.16587e-05 0)
(9.48176e-05 1.94332e-05 0)
(6.47713e-05 2.48814e-05 0)
(2.94035e-05 2.75299e-05 0)
(-8.05172e-06 2.70168e-05 0)
(-4.2719e-05 2.34817e-05 0)
(-7.02563e-05 1.73271e-05 0)
(-8.8156e-05 9.34903e-06 0)
(-9.41965e-05 4.20591e-07 0)
(-8.74179e-05 -8.285e-06 0)
(-6.87913e-05 -1.58592e-05 0)
(-4.09715e-05 -2.13429e-05 0)
(-6.22127e-06 -2.40647e-05 0)
(3.03347e-05 -2.35722e-05 0)
(6.30459e-05 -2.00438e-05 0)
(8.84654e-05 -1.3974e-05 0)
(0.000103307 -6.12947e-06 0)
(0.000105299 2.35859e-06 0)
(9.40132e-05 1.04372e-05 0)
(7.11915e-05 1.70038e-05 0)
(3.98462e-05 2.12255e-05 0)
(3.55898e-06 2.25921e-05 0)
(-3.24894e-05 2.09378e-05 0)
(-6.31603e-05 1.6751e-05 0)
(-8.53477e-05 1.0754e-05 0)
(-9.67197e-05 3.93131e-06 0)
(-9.66002e-05 -2.60857e-06 0)
(-8.62064e-05 -7.95586e-06 0)
(-6.83018e-05 -1.13743e-05 0)
(-4.6713e-05 -1.25603e-05 0)
(-2.48701e-05 -1.1555e-05 0)
(-6.4642e-06 -8.93759e-06 0)
(5.90816e-06 -5.3162e-06 0)
(1.14113e-05 -1.51518e-06 0)
(1.04333e-05 1.73582e-06 0)
(4.34923e-06 3.88182e-06 0)
(-4.87004e-06 4.81525e-06 0)
(-1.40143e-05 4.38e-06 0)
(-2.10533e-05 3.04453e-06 0)
(-2.49445e-05 1.0985e-06 0)
(-2.48522e-05 -9.33323e-07 0)
(-2.09487e-05 -2.7839e-06 0)
(-1.39325e-05 -4.12277e-06 0)
(-4.88139e-06 -4.84308e-06 0)
(8.32795e-06 0.000164801 0)
(2.62118e-05 0.000176667 0)
(4.43249e-05 0.000176504 0)
(6.26288e-05 0.000175944 0)
(8.11298e-05 0.00017515 0)
(9.98152e-05 0.000174112 0)
(0.000118654 0.000172796 0)
(0.0001377 0.000171182 0)
(0.000156933 0.000169238 0)
(0.000176318 0.000166967 0)
(0.000195938 0.000164329 0)
(0.000215736 0.000161356 0)
(0.000235723 0.00015794 0)
(0.000255963 0.000154151 0)
(0.000276369 0.000149879 0)
(0.000296866 0.000145179 0)
(0.000317397 0.000139994 0)
(0.000337931 0.000134399 0)
(0.00035848 0.00012838 0)
(0.000378941 0.000122011 0)
(0.000399296 0.000115326 0)
(0.000419578 0.000108394 0)
(0.000439689 0.000101291 0)
(0.000459626 9.40974e-05 0)
(0.000479265 8.69134e-05 0)
(0.000498623 7.98432e-05 0)
(0.000517595 7.29804e-05 0)
(0.000536056 6.64147e-05 0)
(0.000553862 6.0309e-05 0)
(0.000570989 5.47288e-05 0)
(0.000587426 4.97902e-05 0)
(0.000603188 4.55963e-05 0)
(0.000618071 4.21709e-05 0)
(0.000632158 3.96372e-05 0)
(0.000645562 3.80092e-05 0)
(0.000657852 3.72726e-05 0)
(0.000669167 3.7538e-05 0)
(0.000679373 3.87758e-05 0)
(0.000688299 4.10729e-05 0)
(0.000695804 4.44691e-05 0)
(0.000701669 4.89871e-05 0)
(0.000706016 5.4644e-05 0)
(0.000708705 6.13548e-05 0)
(0.000709584 6.91255e-05 0)
(0.000708071 7.78207e-05 0)
(0.000703685 8.74864e-05 0)
(0.000696627 9.80556e-05 0)
(0.000686915 0.000109475 0)
(0.000674581 0.000121547 0)
(0.000659534 0.000134214 0)
(0.000641822 0.000147285 0)
(0.000621459 0.000160667 0)
(0.000598454 0.000173973 0)
(0.0005728 0.00018734 0)
(0.000544787 0.00020021 0)
(0.000513812 0.000212721 0)
(0.000480751 0.000224323 0)
(0.000445625 0.000235129 0)
(0.000408144 0.000244635 0)
(0.00036858 0.000252917 0)
(0.000327256 0.000259485 0)
(0.000284971 0.000264381 0)
(0.000241055 0.000267263 0)
(0.000196485 0.000268223 0)
(0.000151523 0.000266856 0)
(0.000106416 0.000263295 0)
(6.17004e-05 0.000257293 0)
(1.78034e-05 0.000248965 0)
(-2.49086e-05 0.000238122 0)
(-6.59243e-05 0.000224951 0)
(-0.000104648 0.000209411 0)
(-0.000140794 0.000191679 0)
(-0.000173632 0.000171884 0)
(-0.000202824 0.000150164 0)
(-0.000227946 0.000126838 0)
(-0.000248736 0.000102013 0)
(-0.000264755 7.62859e-05 0)
(-0.000275604 4.96256e-05 0)
(-0.000281214 2.28339e-05 0)
(-0.000281306 -4.15036e-06 0)
(-0.000275668 -3.03346e-05 0)
(-0.000264425 -5.58699e-05 0)
(-0.000247879 -7.98313e-05 0)
(-0.000226226 -0.000102229 0)
(-0.00019981 -0.000122202 0)
(-0.000168945 -0.000139722 0)
(-0.000134415 -0.000154102 0)
(-9.68697e-05 -0.000165204 0)
(-5.68869e-05 -0.00017259 0)
(-1.53428e-05 -0.000176141 0)
(2.68399e-05 -0.000175611 0)
(6.86866e-05 -0.000170979 0)
(0.00010922 -0.000162265 0)
(0.000147487 -0.000149569 0)
(0.00018242 -0.000133121 0)
(0.000213034 -0.000113247 0)
(0.00023852 -9.03482e-05 0)
(0.000258041 -6.49707e-05 0)
(0.000270922 -3.76823e-05 0)
(0.000276569 -9.25372e-06 0)
(0.00027439 1.96003e-05 0)
(0.000264225 4.80705e-05 0)
(0.000246435 7.5461e-05 0)
(0.000221229 0.000100757 0)
(0.000189202 0.000123316 0)
(0.000151246 0.000142237 0)
(0.000108223 0.000156891 0)
(6.13942e-05 0.000166629 0)
(1.17891e-05 0.000170985 0)
(-3.86767e-05 0.000169817 0)
(-8.80279e-05 0.000162769 0)
(-0.00013485 0.000150218 0)
(-0.000177278 0.000132278 0)
(-0.000214028 0.000109471 0)
(-0.000243213 8.2681e-05 0)
(-0.000263691 5.26432e-05 0)
(-0.000274638 2.05139e-05 0)
(-0.00027487 -1.23465e-05 0)
(-0.000264185 -4.47855e-05 0)
(-0.000242793 -7.54353e-05 0)
(-0.000211862 -0.000102998 0)
(-0.00017225 -0.000126243 0)
(-0.0001253 -0.000143925 0)
(-7.30995e-05 -0.000155237 0)
(-1.76249e-05 -0.000159418 0)
(3.83005e-05 -0.000156256 0)
(9.19163e-05 -0.000145489 0)
(0.000140626 -0.000127975 0)
(0.000182146 -0.000104012 0)
(0.000214169 -7.50564e-05 0)
(0.000235026 -4.23212e-05 0)
(0.000243364 -7.78007e-06 0)
(0.000237999 2.69364e-05 0)
(0.00021941 5.98155e-05 0)
(0.000188626 8.91005e-05 0)
(0.000147503 0.000112988 0)
(9.79074e-05 0.000129848 0)
(4.28418e-05 0.000138808 0)
(-1.4608e-05 0.000139038 0)
(-7.05025e-05 0.000130549 0)
(-0.000120765 0.00011366 0)
(-0.000162907 8.97477e-05 0)
(-0.000193604 6.0209e-05 0)
(-0.00021099 2.72204e-05 0)
(-0.000213489 -6.99879e-06 0)
(-0.000200789 -3.98345e-05 0)
(-0.000174337 -6.89917e-05 0)
(-0.000136032 -9.21917e-05 0)
(-8.88717e-05 -0.000107744 0)
(-3.65545e-05 -0.000114271 0)
(1.70035e-05 -0.000111106 0)
(6.69541e-05 -9.88656e-05 0)
(0.000108586 -7.85957e-05 0)
(0.000138933 -5.22122e-05 0)
(0.000155411 -2.21041e-05 0)
(0.000156477 8.82304e-06 0)
(0.000142319 3.76383e-05 0)
(0.000114719 6.16536e-05 0)
(7.68276e-05 7.83641e-05 0)
(3.25645e-05 8.62841e-05 0)
(-1.39098e-05 8.42672e-05 0)
(-5.66124e-05 7.29212e-05 0)
(-9.03017e-05 5.35695e-05 0)
(-0.00011187 2.85278e-05 0)
(-0.000118656 7.00937e-07 0)
(-0.000109745 -2.64193e-05 0)
(-8.65018e-05 -4.98866e-05 0)
(-5.19841e-05 -6.67711e-05 0)
(-9.19784e-06 -7.49692e-05 0)
(3.55742e-05 -7.31979e-05 0)
(7.54446e-05 -6.19937e-05 0)
(0.000106247 -4.29632e-05 0)
(0.000123949 -1.86016e-05 0)
(0.000126003 7.74743e-06 0)
(0.000112112 3.26149e-05 0)
(8.43786e-05 5.27191e-05 0)
(4.66088e-05 6.54637e-05 0)
(3.23412e-06 6.93165e-05 0)
(-3.93631e-05 6.38823e-05 0)
(-7.50224e-05 5.06355e-05 0)
(-0.000100117 3.19281e-05 0)
(-0.000111944 1.08826e-05 0)
(-0.000109994 -9.18358e-06 0)
(-9.59758e-05 -2.53726e-05 0)
(-7.33817e-05 -3.55571e-05 0)
(-4.69227e-05 -3.876e-05 0)
(-2.0985e-05 -3.5288e-05 0)
(1.59691e-07 -2.68158e-05 0)
(1.37038e-05 -1.54601e-05 0)
(1.87369e-05 -3.71915e-06 0)
(1.5979e-05 6.17924e-06 0)
(7.47984e-06 1.26246e-05 0)
(-4.36348e-06 1.51186e-05 0)
(-1.57653e-05 1.36396e-05 0)
(-2.42663e-05 9.31821e-06 0)
(-2.87977e-05 3.32747e-06 0)
(-2.85709e-05 -2.91873e-06 0)
(-2.39704e-05 -8.45227e-06 0)
(-1.58625e-05 -1.24605e-05 0)
(-5.5515e-06 -1.45559e-05 0)
(4.82243e-06 -0.000670054 0)
(1.48482e-05 -0.000693919 0)
(2.48702e-05 -0.000693618 0)
(3.47959e-05 -0.000692483 0)
(4.46845e-05 -0.000690781 0)
(5.43414e-05 -0.000688542 0)
(6.38935e-05 -0.000685546 0)
(7.32969e-05 -0.000681864 0)
(8.27595e-05 -0.000677328 0)
(9.21763e-05 -0.000671976 0)
(0.000101822 -0.000665773 0)
(0.000111198 -0.000658836 0)
(0.00012051 -0.000651185 0)
(0.000129806 -0.000642901 0)
(0.000139004 -0.000634084 0)
(0.000148485 -0.000624809 0)
(0.000158349 -0.000615166 0)
(0.000168896 -0.000605224 0)
(0.000180112 -0.000594951 0)
(0.00019227 -0.000584474 0)
(0.000205321 -0.000573729 0)
(0.000219491 -0.00056269 0)
(0.000234748 -0.000551219 0)
(0.000251289 -0.000539314 0)
(0.000269148 -0.000526707 0)
(0.000288229 -0.000513533 0)
(0.000308305 -0.000499304 0)
(0.000329683 -0.000484301 0)
(0.000352215 -0.00046817 0)
(0.00037545 -0.00045113 0)
(0.000399436 -0.000433002 0)
(0.000423751 -0.000413905 0)
(0.000448073 -0.000393624 0)
(0.000472488 -0.000372196 0)
(0.000496209 -0.000349499 0)
(0.000519452 -0.000325504 0)
(0.000542162 -0.000300017 0)
(0.000563865 -0.000273231 0)
(0.000584853 -0.000245117 0)
(0.000604623 -0.00021575 0)
(0.000622999 -0.000185244 0)
(0.00063933 -0.000153624 0)
(0.000653449 -0.000121001 0)
(0.000665069 -8.74793e-05 0)
(0.00067419 -5.31723e-05 0)
(0.000680913 -1.80275e-05 0)
(0.000684644 1.75836e-05 0)
(0.00068487 5.33628e-05 0)
(0.000681464 8.91356e-05 0)
(0.000674377 0.00012475 0)
(0.000663418 0.000159857 0)
(0.000648018 0.000194319 0)
(0.000628975 0.00022784 0)
(0.000605759 0.000260193 0)
(0.000578482 0.000291069 0)
(0.000547063 0.000320093 0)
(0.000512022 0.000347209 0)
(0.000473382 0.000371838 0)
(0.000431114 0.000393802 0)
(0.000385751 0.000412699 0)
(0.000337202 0.000428365 0)
(0.000286584 0.000440352 0)
(0.000234079 0.000448557 0)
(0.000179941 0.000452709 0)
(0.000124552 0.000452606 0)
(6.90806e-05 0.000448095 0)
(1.36888e-05 0.000439115 0)
(-4.08936e-05 0.00042557 0)
(-9.4096e-05 0.000407487 0)
(-0.000145153 0.000385005 0)
(-0.000193382 0.000358181 0)
(-0.000238105 0.000327272 0)
(-0.00027873 0.000292587 0)
(-0.000314669 0.000254394 0)
(-0.000345291 0.00021324 0)
(-0.000369907 0.000169519 0)
(-0.000388311 0.00012392 0)
(-0.000399768 7.69589e-05 0)
(-0.000404507 2.94129e-05 0)
(-0.000401416 -1.81074e-05 0)
(-0.000390936 -6.45581e-05 0)
(-0.000373232 -0.00010952 0)
(-0.000348399 -0.000152026 0)
(-0.000316986 -0.000191352 0)
(-0.000279054 -0.000226703 0)
(-0.000235545 -0.000257311 0)
(-0.000186948 -0.000282479 0)
(-0.000134478 -0.000301609 0)
(-7.87979e-05 -0.000314158 0)
(-2.12169e-05 -0.000319793 0)
(3.71442e-05 -0.000318144 0)
(9.48088e-05 -0.000309156 0)
(0.000150532 -0.000292897 0)
(0.000202982 -0.00026952 0)
(0.00025072 -0.000239465 0)
(0.000292508 -0.000203314 0)
(0.000327165 -0.000161796 0)
(0.000353589 -0.000115891 0)
(0.000370807 -6.66589e-05 0)
(0.000378096 -1.54195e-05 0)
(0.000374875 3.65773e-05 0)
(0.000360992 8.78721e-05 0)
(0.000336503 0.00013697 0)
(0.000301979 0.000182405 0)
(0.00025837 0.000222701 0)
(0.000206453 0.000256515 0)
(0.000147694 0.000282447 0)
(8.38298e-05 0.000299637 0)
(1.65972e-05 0.000307146 0)
(-5.18767e-05 0.000304542 0)
(-0.000118824 0.000291582 0)
(-0.000182032 0.00026868 0)
(-0.000239594 0.000236024 0)
(-0.000288835 0.000194869 0)
(-0.000327905 0.000146481 0)
(-0.000355278 9.24392e-05 0)
(-0.000369228 3.49198e-05 0)
(-0.000368758 -2.41013e-05 0)
(-0.000353762 -8.22757e-05 0)
(-0.000324567 -0.000137041 0)
(-0.000282276 -0.000186262 0)
(-0.000228096 -0.000227497 0)
(-0.000164368 -0.000258606 0)
(-9.37565e-05 -0.000278443 0)
(-1.87894e-05 -0.000285391 0)
(5.6818e-05 -0.000278925 0)
(0.000128708 -0.000259354 0)
(0.000193904 -0.000227184 0)
(0.000249279 -0.000183994 0)
(0.000291444 -0.000131861 0)
(0.000318196 -7.30553e-05 0)
(0.000327873 -1.10959e-05 0)
(0.000319736 5.1004e-05 0)
(0.000293522 0.000109559 0)
(0.000251186 0.000161641 0)
(0.000194685 0.000203596 0)
(0.000127351 0.000233243 0)
(5.30542e-05 0.00024835 0)
(-2.41919e-05 0.000247942 0)
(-9.90474e-05 0.000231717 0)
(-0.000166025 0.000200961 0)
(-0.000221209 0.000157469 0)
(-0.00026093 0.000104351 0)
(-0.000282493 4.50613e-05 0)
(-0.000283974 -1.59076e-05 0)
(-0.000265121 -7.44939e-05 0)
(-0.000227968 -0.000126139 0)
(-0.000175064 -0.000166971 0)
(-0.000110775 -0.000193852 0)
(-3.95619e-05 -0.000204648 0)
(3.24643e-05 -0.000197856 0)
(9.86774e-05 -0.000175007 0)
(0.000153452 -0.00013799 0)
(0.00019252 -9.0173e-05 0)
(0.000212643 -3.60297e-05 0)
(0.000211803 1.93601e-05 0)
(0.00019056 7.07375e-05 0)
(0.000151389 0.0001132 0)
(9.86404e-05 0.000142502 0)
(3.75152e-05 0.000155814 0)
(-2.5852e-05 0.000151188 0)
(-8.32954e-05 0.000130083 0)
(-0.000128322 9.48834e-05 0)
(-0.000156554 4.96941e-05 0)
(-0.000164503 -2.48929e-07 0)
(-0.000151427 -4.88299e-05 0)
(-0.000119298 -9.05458e-05 0)
(-7.20537e-05 -0.000120155 0)
(-1.41695e-05 -0.000134217 0)
(4.59115e-05 -0.000130434 0)
(9.90588e-05 -0.000109961 0)
(0.000139617 -7.56556e-05 0)
(0.000162437 -3.2073e-05 0)
(0.000164365 1.47249e-05 0)
(0.000145316 5.86103e-05 0)
(0.000108271 9.3721e-05 0)
(5.84165e-05 0.00011548 0)
(1.90402e-06 0.000121409 0)
(-5.27466e-05 0.000110868 0)
(-9.74848e-05 8.67584e-05 0)
(-0.000127603 5.32151e-05 0)
(-0.000139951 1.59124e-05 0)
(-0.000134318 -1.92149e-05 0)
(-0.000113362 -4.70639e-05 0)
(-8.19698e-05 -6.39626e-05 0)
(-4.65149e-05 -6.84339e-05 0)
(-1.30786e-05 -6.12386e-05 0)
(1.29423e-05 -4.54073e-05 0)
(2.82886e-05 -2.48023e-05 0)
(3.21625e-05 -4.04293e-06 0)
(2.59456e-05 1.3094e-05 0)
(1.27613e-05 2.38766e-05 0)
(-3.89119e-06 2.74329e-05 0)
(-1.92948e-05 2.42199e-05 0)
(-3.03651e-05 1.62101e-05 0)
(-3.58849e-05 5.55879e-06 0)
(-3.52732e-05 -5.26186e-06 0)
(-2.93023e-05 -1.46226e-05 0)
(-1.92212e-05 -2.12929e-05 0)
(-6.68468e-06 -2.47396e-05 0)
(9.91704e-06 -8.08428e-05 0)
(3.19368e-05 -7.38172e-05 0)
(5.43643e-05 -7.12331e-05 0)
(7.77156e-05 -6.77489e-05 0)
(0.000101721 -6.30089e-05 0)
(0.00012679 -5.76399e-05 0)
(0.000152636 -5.09486e-05 0)
(0.000179096 -4.44501e-05 0)
(0.000206528 -3.70188e-05 0)
(0.00023397 -3.07117e-05 0)
(0.000261151 -2.52605e-05 0)
(0.000287629 -2.18629e-05 0)
(0.00031365 -2.04087e-05 0)
(0.000338769 -2.13559e-05 0)
(0.000362973 -2.46649e-05 0)
(0.000386313 -3.04023e-05 0)
(0.000408774 -3.85133e-05 0)
(0.000431105 -4.86744e-05 0)
(0.000452875 -6.06164e-05 0)
(0.000474272 -7.41504e-05 0)
(0.000496278 -8.89671e-05 0)
(0.000519281 -0.000104871 0)
(0.000543004 -0.000121204 0)
(0.000568137 -0.00013804 0)
(0.000593772 -0.000154247 0)
(0.000621003 -0.000170216 0)
(0.000648947 -0.000184676 0)
(0.000676717 -0.000197903 0)
(0.000704438 -0.000208754 0)
(0.000731139 -0.000217745 0)
(0.000757289 -0.000224109 0)
(0.000782943 -0.000227968 0)
(0.000808296 -0.000229183 0)
(0.000832934 -0.000227599 0)
(0.000857107 -0.000223106 0)
(0.000880892 -0.000215519 0)
(0.000903476 -0.000204837 0)
(0.000924051 -0.000190695 0)
(0.000943107 -0.000173168 0)
(0.000959834 -0.000152144 0)
(0.000974193 -0.000127673 0)
(0.000986219 -9.98625e-05 0)
(0.000995432 -6.87954e-05 0)
(0.00100165 -3.47506e-05 0)
(0.00100509 2.12393e-06 0)
(0.00100423 4.11905e-05 0)
(0.000997719 8.26142e-05 0)
(0.00098644 0.000125974 0)
(0.000971078 0.000170885 0)
(0.000950898 0.000217006 0)
(0.000926029 0.000263617 0)
(0.0008967 0.000310416 0)
(0.000862722 0.000356856 0)
(0.00082403 0.000402281 0)
(0.000780402 0.000446212 0)
(0.000732339 0.00048806 0)
(0.000679988 0.000527263 0)
(0.000622942 0.000563092 0)
(0.000561712 0.000595199 0)
(0.000496699 0.000622794 0)
(0.00042811 0.000645791 0)
(0.000357036 0.000663326 0)
(0.000283614 0.000675251 0)
(0.000208405 0.000680959 0)
(0.000132149 0.000680343 0)
(5.57028e-05 0.000673031 0)
(-2.02181e-05 0.000658866 0)
(-9.48533e-05 0.000637848 0)
(-0.000167072 0.000609884 0)
(-0.000236225 0.000575229 0)
(-0.000301366 0.000533923 0)
(-0.000361437 0.000486448 0)
(-0.000415748 0.000433176 0)
(-0.000463213 0.000374675 0)
(-0.000503143 0.000311589 0)
(-0.000534928 0.000244728 0)
(-0.000557841 0.000174888 0)
(-0.000571337 0.000103044 0)
(-0.000575279 3.01987e-05 0)
(-0.000568628 -4.21668e-05 0)
(-0.000551919 -0.000113403 0)
(-0.000525709 -0.00018185 0)
(-0.000489538 -0.000246687 0)
(-0.000444266 -0.000306354 0)
(-0.000390206 -0.000359962 0)
(-0.000328165 -0.000406128 0)
(-0.000259505 -0.000443916 0)
(-0.000185433 -0.000472364 0)
(-0.000107304 -0.000490621 0)
(-2.65836e-05 -0.000498297 0)
(5.50273e-05 -0.00049464 0)
(0.000135376 -0.000479919 0)
(0.000212932 -0.000453841 0)
(0.00028582 -0.000416947 0)
(0.000351957 -0.000369799 0)
(0.000409714 -0.000313292 0)
(0.000457427 -0.000248631 0)
(0.000493581 -0.000177243 0)
(0.000516828 -0.000100988 0)
(0.000526363 -2.1606e-05 0)
(0.000521482 5.88168e-05 0)
(0.000501665 0.000138054 0)
(0.000467462 0.000213726 0)
(0.000419377 0.000283797 0)
(0.00035855 0.000345555 0)
(0.000286234 0.000397218 0)
(0.000204553 0.000436788 0)
(0.000115958 0.000462915 0)
(2.25686e-05 0.000473837 0)
(-7.21559e-05 0.000469161 0)
(-0.000164415 0.000448845 0)
(-0.000251846 0.000412695 0)
(-0.000330983 0.000361965 0)
(-0.000398384 0.000298346 0)
(-0.000451711 0.000223104 0)
(-0.000488213 0.000139822 0)
(-0.00050649 5.0606e-05 0)
(-0.000505369 -4.0352e-05 0)
(-0.000483815 -0.000129792 0)
(-0.000442734 -0.000214047 0)
(-0.000383833 -0.000289214 0)
(-0.000308284 -0.00035203 0)
(-0.000220082 -0.000399515 0)
(-0.000122496 -0.000428926 0)
(-1.87884e-05 -0.000438674 0)
(8.47187e-05 -0.000427834 0)
(0.000183337 -0.000396683 0)
(0.000272382 -0.000346497 0)
(0.000347006 -0.000279211 0)
(0.000403874 -0.000198344 0)
(0.000439219 -0.000107669 0)
(0.000450754 -1.21584e-05 0)
(0.000437466 8.29012e-05 0)
(0.000400237 0.00017245 0)
(0.000340618 0.000251633 0)
(0.000261944 0.000315244 0)
(0.000168699 0.000359673 0)
(6.59669e-05 0.000381638 0)
(-4.00562e-05 0.000379569 0)
(-0.00014195 0.000353527 0)
(-0.000232527 0.000305093 0)
(-0.000306708 0.000237486 0)
(-0.000359053 0.00015512 0)
(-0.000386038 6.36977e-05 0)
(-0.000385573 -3.00599e-05 0)
(-0.000357669 -0.000119553 0)
(-0.000304511 -0.000198198 0)
(-0.000230331 -0.000259656 0)
(-0.00014086 -0.000299509 0)
(-4.22341e-05 -0.000314397 0)
(5.65575e-05 -0.000302292 0)
(0.000146175 -0.000265896 0)
(0.000219684 -0.000207574 0)
(0.000271007 -0.000133257 0)
(0.000295741 -4.92919e-05 0)
(0.000291753 3.55963e-05 0)
(0.000259902 0.000114232 0)
(0.000203668 0.000178595 0)
(0.000129123 0.000222461 0)
(4.32535e-05 0.000241492 0)
(-4.45041e-05 0.00023285 0)
(-0.000123014 0.000199219 0)
(-0.000184117 0.000144023 0)
(-0.000221685 7.38606e-05 0)
(-0.000231131 -3.0559e-06 0)
(-0.00021169 -7.75627e-05 0)
(-0.000166171 -0.0001411 0)
(-0.000100282 -0.000185789 0)
(-2.05595e-05 -0.000206368 0)
(6.15621e-05 -0.000199487 0)
(0.000133668 -0.000167168 0)
(0.000188165 -0.000113989 0)
(0.000217981 -4.70445e-05 0)
(0.000219321 2.42024e-05 0)
(0.000192523 9.0607e-05 0)
(0.00014167 0.000142945 0)
(7.42664e-05 0.000174755 0)
(-1.14977e-06 0.000182131 0)
(-7.28892e-05 0.000164663 0)
(-0.000130283 0.000126722 0)
(-0.000167305 7.5116e-05 0)
(-0.000179901 1.84609e-05 0)
(-0.00016846 -3.41648e-05 0)
(-0.000137105 -7.49817e-05 0)
(-9.28772e-05 -9.87876e-05 0)
(-4.46097e-05 -0.000103574 0)
(-6.9802e-07 -9.07806e-05 0)
(3.19817e-05 -6.52748e-05 0)
(4.94666e-05 -3.33039e-05 0)
(5.11679e-05 -1.85537e-06 0)
(3.96363e-05 2.3441e-05 0)
(1.95332e-05 3.8656e-05 0)
(-4.00926e-06 4.27678e-05 0)
(-2.48787e-05 3.68309e-05 0)
(-3.93033e-05 2.40099e-05 0)
(-4.59302e-05 7.79896e-06 0)
(-4.45088e-05 -8.20693e-06 0)
(-3.64994e-05 -2.16572e-05 0)
(-2.36887e-05 -3.10211e-05 0)
(-8.19706e-06 -3.58195e-05 0)
(1.24348e-05 -0.000926384 0)
(3.94891e-05 -0.000961813 0)
(6.61291e-05 -0.000966401 0)
(9.23164e-05 -0.000972363 0)
(0.0001166 -0.000977673 0)
(0.000141739 -0.000984911 0)
(0.000163606 -0.000988004 0)
(0.000182339 -0.000992395 0)
(0.000193699 -0.000986889 0)
(0.000194723 -0.000976813 0)
(0.000190157 -0.000957973 0)
(0.000179001 -0.000936907 0)
(0.000165564 -0.000911913 0)
(0.000149746 -0.000886386 0)
(0.000133811 -0.000860228 0)
(0.000118212 -0.000835418 0)
(0.000105581 -0.000812343 0)
(9.69583e-05 -0.000791792 0)
(9.13402e-05 -0.000774249 0)
(9.00676e-05 -0.000761221 0)
(9.25006e-05 -0.000751385 0)
(0.000100496 -0.000745131 0)
(0.000112648 -0.000740454 0)
(0.000131462 -0.000739156 0)
(0.000155064 -0.000736709 0)
(0.000184192 -0.000736415 0)
(0.000218757 -0.000730884 0)
(0.000258397 -0.000727626 0)
(0.000301363 -0.000715225 0)
(0.000346047 -0.0007039 0)
(0.000393778 -0.000685521 0)
(0.000441797 -0.000665661 0)
(0.00049096 -0.000640863 0)
(0.000541259 -0.000612601 0)
(0.000591954 -0.000580231 0)
(0.000642458 -0.000544045 0)
(0.000693026 -0.000504205 0)
(0.000742653 -0.000460734 0)
(0.000790607 -0.000413792 0)
(0.000836561 -0.000363554 0)
(0.000879582 -0.000310104 0)
(0.000919068 -0.000253656 0)
(0.000954223 -0.000194301 0)
(0.00098458 -0.00013247 0)
(0.0010089 -6.81445e-05 0)
(0.0010284 -1.88876e-06 0)
(0.00104328 6.65753e-05 0)
(0.0010512 0.000135997 0)
(0.00105252 0.000206597 0)
(0.001046 0.000277271 0)
(0.00103173 0.000347801 0)
(0.00101005 0.000417805 0)
(0.000980422 0.00048646 0)
(0.000942799 0.000553137 0)
(0.000897578 0.00061714 0)
(0.000844626 0.000677857 0)
(0.000784083 0.000734254 0)
(0.000716736 0.000785755 0)
(0.000642554 0.000831713 0)
(0.000562986 0.00087118 0)
(0.000477897 0.000903749 0)
(0.00038822 0.000928566 0)
(0.000295113 0.000945152 0)
(0.000198983 0.000953013 0)
(0.000101075 0.000951655 0)
(2.39675e-06 0.000940871 0)
(-9.5667e-05 0.000920329 0)
(-0.000192208 0.000889992 0)
(-0.000285861 0.000849826 0)
(-0.000375512 0.000800054 0)
(-0.000459811 0.000741062 0)
(-0.000537225 0.000673237 0)
(-0.000606999 0.000597209 0)
(-0.000667749 0.000513834 0)
(-0.00071839 0.000423931 0)
(-0.000758021 0.00032868 0)
(-0.000785992 0.000229325 0)
(-0.000801248 0.000127319 0)
(-0.000802913 2.3966e-05 0)
(-0.000790936 -7.85732e-05 0)
(-0.0007655 -0.000179401 0)
(-0.000726626 -0.000276473 0)
(-0.000674812 -0.000367979 0)
(-0.000610634 -0.000452216 0)
(-0.000534817 -0.000527427 0)
(-0.000448351 -0.000592102 0)
(-0.000353047 -0.000644777 0)
(-0.000250421 -0.000684029 0)
(-0.000142663 -0.00070873 0)
(-3.14406e-05 -0.000718292 0)
(8.05163e-05 -0.000711858 0)
(0.000190599 -0.000689316 0)
(0.000296943 -0.000650821 0)
(0.000396314 -0.000596941 0)
(0.000486557 -0.000528399 0)
(0.00056512 -0.000446686 0)
(0.000629821 -0.000353394 0)
(0.000678346 -0.000250754 0)
(0.000709232 -0.000141082 0)
(0.000721621 -2.71274e-05 0)
(0.000714206 8.80159e-05 0)
(0.000686468 0.000201311 0)
(0.000639231 0.000309436 0)
(0.000572705 0.000409103 0)
(0.000488658 0.000497156 0)
(0.000389591 0.000570462 0)
(0.000278072 0.000626425 0)
(0.000156569 0.00066267 0)
(2.87924e-05 0.000677563 0)
(-9.97154e-05 0.000670337 0)
(-0.0002257 0.00063989 0)
(-0.000344651 0.00058754 0)
(-0.000451246 0.000514137 0)
(-0.000542904 0.000422093 0)
(-0.000614675 0.000314408 0)
(-0.000663696 0.000194607 0)
(-0.000687683 6.73019e-05 0)
(-0.000684081 -6.25787e-05 0)
(-0.000653933 -0.000190002 0)
(-0.00059696 -0.000309716 0)
(-0.00051543 -0.000416388 0)
(-0.000412405 -0.000505074 0)
(-0.000291537 -0.000571422 0)
(-0.000157999 -0.000612371 0)
(-1.74102e-05 -0.000624827 0)
(0.000123281 -0.00060818 0)
(0.000256389 -0.000562288 0)
(0.000376385 -0.000489543 0)
(0.000476846 -0.000392824 0)
(0.000552036 -0.000276655 0)
(0.000597901 -0.000147218 0)
(0.000610974 -1.09601e-05 0)
(0.000590868 0.000124402 0)
(0.000538563 0.000251805 0)
(0.000456226 0.000363572 0)
(0.000348123 0.00045291 0)
(0.000220675 0.000514209 0)
(8.08627e-05 0.000543881 0)
(-6.24976e-05 0.000538578 0)
(-0.000199723 0.000499625 0)
(-0.000321213 0.000428927 0)
(-0.000419583 0.000331116 0)
(-0.00048822 0.000212921 0)
(-0.000521977 8.23298e-05 0)
(-0.000518325 -5.07894e-05 0)
(-0.000477756 -0.000177668 0)
(-0.000403211 -0.000288233 0)
(-0.000300471 -0.000374218 0)
(-0.000177926 -0.000428783 0)
(-4.32787e-05 -0.000447481 0)
(8.99971e-05 -0.000428401 0)
(0.000210054 -0.000374054 0)
(0.000307792 -0.00028974 0)
(0.000374691 -0.000182296 0)
(0.000404845 -6.25043e-05 0)
(0.000395895 5.90008e-05 0)
(0.000349768 0.000170143 0)
(0.000270596 0.000260747 0)
(0.000167243 0.000321388 0)
(4.89251e-05 0.000346537 0)
(-7.05382e-05 0.00033231 0)
(-0.000176379 0.000282396 0)
(-0.000258301 0.000202415 0)
(-0.000307412 0.000101517 0)
(-0.000318125 -8.38346e-06 0)
(-0.000289934 -0.000114353 0)
(-0.000226711 -0.000203789 0)
(-0.000136195 -0.000266038 0)
(-2.76668e-05 -0.000293697 0)
(8.32191e-05 -0.000282351 0)
(0.000179787 -0.000235122 0)
(0.000251874 -0.000158753 0)
(0.000290193 -6.37428e-05 0)
(0.000290235 3.70787e-05 0)
(0.000252734 0.000129938 0)
(0.000183608 0.000202339 0)
(9.32208e-05 0.00024517 0)
(-6.70018e-06 0.000253363 0)
(-0.000100381 0.000226601 0)
(-0.000173742 0.000171454 0)
(-0.000218845 9.77631e-05 0)
(-0.000231072 1.80373e-05 0)
(-0.000211421 -5.49527e-05 0)
(-0.000166158 -0.000110397 0)
(-0.000105171 -0.000141258 0)
(-4.0322e-05 -0.000145103 0)
(1.69026e-05 -0.000124446 0)
(5.75496e-05 -8.64986e-05 0)
(7.70211e-05 -4.06063e-05 0)
(7.53209e-05 3.48691e-06 0)
(5.64584e-05 3.78987e-05 0)
(2.72118e-05 5.75866e-05 0)
(-5.13797e-06 6.1397e-05 0)
(-3.28342e-05 5.15587e-05 0)
(-5.11524e-05 3.26455e-05 0)
(-5.87301e-05 9.84815e-06 0)
(-5.59475e-05 -1.20169e-05 0)
(-4.51529e-05 -2.9755e-05 0)
(-2.8961e-05 -4.17802e-05 0)
(-9.96041e-06 -4.77504e-05 0)
(1.43391e-06 -0.000424822 0)
(9.09895e-06 -0.00042764 0)
(1.65537e-05 -0.000411644 0)
(3.62605e-05 -0.000387302 0)
(5.81626e-05 -0.000348648 0)
(0.000100348 -0.000301497 0)
(0.00014368 -0.000224621 0)
(0.000210681 -0.000148204 0)
(0.000285048 -2.86592e-05 0)
(0.00034453 6.07704e-05 0)
(0.000407983 0.000136045 0)
(0.00045334 0.000182943 0)
(0.00049195 0.000214002 0)
(0.000515523 0.000226081 0)
(0.00053058 0.000222564 0)
(0.00053538 0.000203163 0)
(0.000534289 0.000169418 0)
(0.000528868 0.000122175 0)
(0.000519634 6.43308e-05 0)
(0.00050943 -7.17852e-07 0)
(0.000498333 -6.97685e-05 0)
(0.000496238 -0.00014635 0)