/*--------------------------------*- C++ -*----------------------------------*\
  =========                 |
  \\      /  F ield         | OpenFOAM: The Open Source CFD Toolbox
   \\    /   O peration     | Website:  https://openfoam.org
    \\  /    A nd           | Version:  12
     \\/     M anipulation  |
\*---------------------------------------------------------------------------*/
FoamFile
{
    format      ascii;
    class       volVectorField;
    location    "14";
    object      zeta;
}
// * * * * * * * * * * * * * * * * * * * * * * * * * * * * * * * * * * * * * //

dimensions      [0 1 0 0 0 0 0];

internalField   uniform (0 0 0);

boundaryField
{
    freeSurface
    {
        type            calculated;
        value           nonuniform List<vector> 
181
(
(0 0.00595199 0)
(0 0.00595172 0)
(0 0.00595113 0)
(0 0.0059501 0)
(0 0.00594938 0)
(0 0.005948 0)
(0 0.00594804 0)
(0 0.00594623 0)
(0 0.000810862 0)
(0 0.000818345 0)
(0 0.000835334 0)
(0 0.000857895 0)
(0 0.000885944 0)
(0 0.000920525 0)
(0 0.000958773 0)
(0 0.00100105 0)
(0 0.00104546 0)
(0 0.00109194 0)
(0 0.00113872 0)
(0 0.00118509 0)
(0 0.00122935 0)
(0 0.00127057 0)
(0 0.00130779 0)
(0 0.00134041 0)
(0 0.00136758 0)
(0 0.00138856 0)
(0 0.00140251 0)
(0 0.00140864 0)
(0 0.00140631 0)
(0 0.00139497 0)
(0 0.00137424 0)
(0 0.00134393 0)
(0 0.00130384 0)
(0 0.00125374 0)
(0 0.00119368 0)
(0 0.00112376 0)
(0 0.00104427 0)
(0 0.000955647 0)
(0 0.000858443 0)
(0 0.000753251 0)
(0 0.000640829 0)
(0 0.000522013 0)
(0 0.000397834 0)
(0 0.000269425 0)
(0 0.000138058 0)
(0 5.05247e-06 0)
(0 -0.000128142 0)
(0 -0.000260017 0)
(0 -0.000388804 0)
(0 -0.000512997 0)
(0 -0.000630615 0)
(0 -0.000740102 0)
(0 -0.000839721 0)
(0 -0.000927826 0)
(0 -0.001003 0)
(0 -0.00106376 0)
(0 -0.00110881 0)
(0 -0.00113713 0)
(0 -0.00114787 0)
(0 -0.00114035 0)
(0 -0.00111429 0)
(0 -0.00106962 0)
(0 -0.00100657 0)
(0 -0.000925777 0)
(0 -0.000828193 0)
(0 -0.00071528 0)
(0 -0.00058863 0)
(0 -0.000450568 0)
(0 -0.000303424 0)
(0 -0.000150048 0)
(0 6.66031e-06 0)
(0 0.000163384 0)
(0 0.000316663 0)
(0 0.000463278 0)
(0 0.000599625 0)
(0 0.000722279 0)
(0 0.000827882 0)
(0 0.000913618 0)
(0 0.000976695 0)
(0 0.00101491 0)
(0 0.00102625 0)
(0 0.00101017 0)
(0 0.000965912 0)
(0 0.000894227 0)
(0 0.000796386 0)
(0 0.000674496 0)
(0 0.000531807 0)
(0 0.00037217 0)
(0 0.000200333 0)
(0 2.18768e-05 0)
(0 -0.000157563 0)
(0 -0.000331897 0)
(0 -0.000494471 0)
(0 -0.000639236 0)
(0 -0.000760427 0)
(0 -0.000852874 0)
(0 -0.000912376 0)
(0 -0.000935892 0)
(0 -0.000921628 0)
(0 -0.000869345 0)
(0 -0.000780672 0)
(0 -0.000658833 0)
(0 -0.000508409 0)
(0 -0.000336075 0)
(0 -0.000149117 0)
(0 4.36553e-05 0)
(0 0.000233184 0)
(0 0.000410218 0)
(0 0.000565679 0)
(0 0.000691144 0)
(0 0.000779624 0)
(0 0.000825613 0)
(0 0.000825755 0)
(0 0.000779767 0)
(0 0.000689524 0)
(0 0.000559862 0)
(0 0.000397366 0)
(0 0.00021242 0)
(0 1.56185e-05 0)
(0 -0.000180452 0)
(0 -0.000363779 0)
(0 -0.000522077 0)
(0 -0.000644541 0)
(0 -0.000722513 0)
(0 -0.000750227 0)
(0 -0.000725505 0)
(0 -0.000649987 0)
(0 -0.00052925 0)
(0 -0.000372618 0)
(0 -0.000192579 0)
(0 -3.7962e-06 0)
(0 0.000178666 0)
(0 0.000340042 0)
(0 0.00046644 0)
(0 0.000546952 0)
(0 0.000574933 0)
(0 0.000548326 0)
(0 0.000470638 0)
(0 0.000350024 0)
(0 0.00019953 0)
(0 3.55854e-05 0)
(0 -0.000124515 0)
(0 -0.00026438 0)
(0 -0.000368542 0)
(0 -0.000425966 0)
(0 -0.000431005 0)
(0 -0.000384377 0)
(0 -0.000293129 0)
(0 -0.000169888 0)
(0 -3.19488e-05 0)
(0 0.000102027 0)
(0 0.00021511 0)
(0 0.000291602 0)
(0 0.000321554 0)
(0 0.000301978 0)
(0 0.00023736 0)
(0 0.000138888 0)
(0 2.29539e-05 0)
(0 -9.08814e-05 0)
(0 -0.000185749 0)
(0 -0.000246297 0)
(0 -0.000263188 0)
(0 -0.000235278 0)
(0 -0.00016975 0)
(0 -8.06301e-05 0)
(0 1.39815e-05 0)
(0 9.5316e-05 0)
(0 0.000149094 0)
(0 0.000165846 0)
(0 0.000144291 0)
(0 9.18894e-05 0)
(0 2.24031e-05 0)
(0 -4.76192e-05 0)
(0 -0.000102471 0)
(0 -0.00013138 0)
(0 -0.000129335 0)
(0 -9.8107e-05 0)
(0 -4.70119e-05 0)
(0 1.04798e-05 0)
(0 5.98106e-05 0)
(0 8.83931e-05 0)
)
;
    }
    walls
    {
        type            calculated;
        value           uniform (0 0 0);
    }
    floatingObject
    {
        type            calculated;
        value           uniform (0 0 0);
    }
    frontAndBack
    {
        type            empty;
    }
}


// ************************************************************************* //
