# Probe 0 (0 0 0)
# Time            0                
0                 0                
0.0025            6614.381393      
0.005             6573.208952      
0.0075            6394.988787      
0.01              6343.49808       
0.0125            6336.841476      
0.015             6349.790043      
0.0175            6372.760902      
0.02              6401.10501       
0.0225            6432.265276      
0.025             6464.731772      
0.0275            6497.575014      
0.03              6530.209965      
0.0325            6562.26597       
0.035             6593.510422      
0.0375            6623.801794      
0.04              6653.059654      
0.0425            6681.244982      
0.045             6708.346938      
0.0475            6734.373822      
0.05              6759.346802      
0.0525            6783.295525      
0.055             6806.25502       
0.0575            6828.263501      
0.06              6849.360818      
0.0625            6869.587352      
0.065             6888.983249      
0.0675            6907.587882      
0.07              6925.439491      
0.0725            6942.574947      
0.075             6959.029607      
0.0775            6974.837232      
0.08              6990.029959      
0.0825            7004.638304      
0.085             7018.691188      
0.0875            7032.215979      
0.09              7045.238554      
0.0925            7057.783353      
0.095             7069.873454      
0.0975            7081.530633      
0.1               7092.775439      
0.1025            7103.627261      
0.105             7114.10439       
0.1075            7124.224089      
0.11              7134.002647      
0.1125            7143.455445      
0.115             7152.597007      
0.1175            7161.44105       
0.12              7170.000542      
0.1225            7178.287739      
0.125             7186.314235      
0.1275            7194.091001      
0.13              7201.628422      
0.1325            7208.936336      
0.135             7216.024064      
0.1375            7222.900448      
0.14              7229.57387       
0.1425            7236.05229       
0.145             7242.343265      
0.1475            7248.453976      
0.15              7254.391249      
0.1525            7260.161578      
0.155             7265.77114       
0.1575            7271.225819      
0.16              7276.53122       
0.1625            7281.692683      
0.165             7286.715305      
0.1675            7291.603944      
0.17              7296.363242      
0.1725            7300.997628      
0.175             7305.511339      
0.1775            7309.908422      
0.18              7314.19275       
0.1825            7318.368028      
0.185             7322.437804      
0.1875            7326.405477      
0.19              7330.274302      
0.1925            7334.047402      
0.195             7337.727772      
0.1975            7341.318286      
0.2               7344.821701      
0.2025            7348.240667      
0.205             7351.577731      
0.2075            7354.835338      
0.21              7358.015842      
0.2125            7361.121507      
0.215             7364.15451       
0.2175            7367.116948      
0.22              7370.010841      
0.2225            7372.838135      
0.225             7375.600705      
0.2275            7378.30036       
0.23              7380.938843      
0.2325            7383.517837      
0.235             7386.038966      
0.2375            7388.503797      
0.24              7390.913845      
0.2425            7393.270572      
0.245             7395.575393      
0.2475            7397.829673      
0.25              7400.034735      
0.2525            7402.191856      
0.255             7404.302273      
0.2575            7406.367183      
0.26              7408.387744      
0.2625            7410.36508       
0.265             7412.300275      
0.2675            7414.194385      
0.27              7416.048428      
0.2725            7417.863395      
0.275             7419.640244      
0.2775            7421.379905      
0.28              7423.083282      
0.2825            7424.751249      
0.285             7426.384657      
0.2875            7427.984331      
0.29              7429.551071      
0.2925            7431.085655      
0.295             7432.588839      
0.2975            7434.061357      
0.3               7435.503923      
0.3025            7436.91723       
0.305             7438.301952      
0.3075            7439.658744      
0.31              7440.988245      
0.3125            7442.291074      
0.315             7443.567835      
0.3175            7444.819115      
0.32              7446.045484      
0.3225            7447.247499      
0.325             7448.425702      
0.3275            7449.58062       
0.33              7450.712765      
0.3325            7451.822638      
0.335             7452.910727      
0.3375            7453.977506      
0.34              7455.023438      
0.3425            7456.048974      
0.345             7457.054553      
0.3475            7458.040604      
0.35              7459.007544      
0.3525            7459.955781      
0.355             7460.885713      
0.3575            7461.797726      
0.36              7462.6922        
0.3625            7463.569502      
0.365             7464.429994      
0.3675            7465.274025      
0.37              7466.10194       
0.3725            7466.914073      
0.375             7467.710751      
0.3775            7468.492292      
0.38              7469.259009      
0.3825            7470.011205      
0.385             7470.749179      
0.3875            7471.47322       
0.39              7472.183612      
0.3925            7472.880631      
0.395             7473.56455       
0.3975            7474.235632      
0.4               7474.894135      
0.4025            7475.540314      
0.405             7476.174414      
0.4075            7476.796677      
0.41              7477.40734       
0.4125            7478.006633      
0.415             7478.594781      
0.4175            7479.172007      
0.42              7479.738524      
0.4225            7480.294546      
0.425             7480.840278      
0.4275            7481.375921      
0.43              7481.901675      
0.4325            7482.417733      
0.435             7482.924283      
0.4375            7483.42151       
0.44              7483.909597      
0.4425            7484.388719      
0.445             7484.859052      
0.4475            7485.320764      
0.45              7485.774023      
0.4525            7486.21899       
0.455             7486.655826      
0.4575            7487.084685      
0.46              7487.505722      
0.4625            7487.919086      
0.465             7488.324922      
0.4675            7488.723375      
0.47              7489.114595      
0.4725            7489.49871       
0.475             7489.875854      
0.4775            7490.246159      
0.48              7490.609754      
0.4825            7490.966767      
0.485             7491.317321      
0.4875            7491.661539      
0.49              7491.999538      
0.4925            7492.331437      
0.495             7492.657349      
0.4975            7492.977387      
0.5               7493.29166       
