# Probe 0 (0 0 0)
# Time            0                
0                 0                
0.0025            -0.0008478457509 
0.005             -0.0008293254956 
0.0075            -0.0008033395135 
0.01              -0.0007966324706 
0.0125            -0.0007964346353 
0.015             -0.000798968322  
0.0175            -0.0008028108302 
0.02              -0.0008072876736 
0.0225            -0.0008120398717 
0.025             -0.0008168641319 
0.0275            -0.0008216417267 
0.03              -0.0008263028587 
0.0325            -0.0008308072821 
0.035             -0.0008351331213 
0.0375            -0.0008392701276 
0.04              -0.000843215474  
0.0425            -0.0008469710653 
0.045             -0.000850541784  
0.0475            -0.0008539343307 
0.05              -0.0008571564507 
0.0525            -0.0008602164163 
0.055             -0.0008631226805 
0.0575            -0.0008658836465 
0.06              -0.0008685075181 
0.0625            -0.0008710022045 
0.065             -0.0008733752626 
0.0675            -0.0008756338665 
0.07              -0.0008777847943 
0.0725            -0.0008798344275 
0.075             -0.0008817887584 
0.0775            -0.0008836534032 
0.08              -0.0008854336184 
0.0825            -0.0008871343187 
0.085             -0.0008887600966 
0.0875            -0.0008903152415 
0.09              -0.0008918037591 
0.0925            -0.0008932293898 
0.095             -0.0008945956271 
0.0975            -0.0008959057341 
0.1               -0.0008971627596 
0.1025            -0.0008983695538 
0.105             -0.0008995287815 
0.1075            -0.000900642936  
0.11              -0.0009017143513 
0.1125            -0.000902745213  
0.115             -0.0009037375694 
0.1175            -0.0009046933409 
0.12              -0.0009056143294 
0.1225            -0.0009065022264 
0.125             -0.0009073586209 
0.1275            -0.0009081850066 
0.13              -0.0009089827884 
0.1325            -0.0009097532885 
0.135             -0.0009104977522 
0.1375            -0.0009112173531 
0.14              -0.0009119131981 
0.1425            -0.0009125863314 
0.145             -0.0009132377392 
0.1475            -0.0009138683532 
0.15              -0.0009144790543 
0.1525            -0.0009150706758 
0.155             -0.0009156440067 
0.1575            -0.000916199794  
0.16              -0.0009167387461 
0.1625            -0.0009172615345 
0.165             -0.0009177687966 
0.1675            -0.0009182611376 
0.17              -0.0009187391323 
0.1725            -0.0009192033273 
0.175             -0.0009196542423 
0.1775            -0.0009200923721 
0.18              -0.0009205181875 
0.1825            -0.0009209321374 
0.185             -0.0009213346495 
0.1875            -0.0009217261318 
0.19              -0.0009221069736 
0.1925            -0.0009224775464 
0.195             -0.0009228382053 
0.1975            -0.0009231892896 
0.2               -0.0009235311236 
0.2025            -0.0009238640176 
0.205             -0.0009241882685 
0.2075            -0.0009245041607 
0.21              -0.0009248119666 
0.2125            -0.0009251119471 
0.215             -0.0009254043527 
0.2175            -0.0009256894232 
0.22              -0.0009259673891 
0.2225            -0.0009262384715 
0.225             -0.0009265028827 
0.2275            -0.0009267608269 
0.23              -0.0009270125001 
0.2325            -0.0009272580909 
0.235             -0.0009274977808 
0.2375            -0.0009277317442 
0.24              -0.0009279601493 
0.2425            -0.0009281831577 
0.245             -0.0009284009253 
0.2475            -0.0009286136024 
0.25              -0.0009288213336 
0.2525            -0.0009290242588 
0.255             -0.0009292225123 
0.2575            -0.0009294162243 
0.26              -0.0009296055202 
0.2625            -0.000929790521  
0.265             -0.0009299713436 
0.2675            -0.0009301481012 
0.27              -0.0009303209028 
0.2725            -0.000930489854  
0.275             -0.0009306550569 
0.2775            -0.0009308166102 
0.28              -0.0009309746094 
0.2825            -0.0009311291468 
0.285             -0.0009312803121 
0.2875            -0.0009314281917 
0.29              -0.0009315728695 
0.2925            -0.0009317144269 
0.295             -0.0009318529425 
0.2975            -0.0009319884926 
0.3               -0.0009321211513 
0.3025            -0.0009322509902 
0.305             -0.0009323780789 
0.3075            -0.0009325024848 
0.31              -0.0009326242735 
0.3125            -0.0009327435085 
0.315             -0.0009328602514 
0.3175            -0.0009329745622 
0.32              -0.0009330864989 
0.3225            -0.000933196118  
0.325             -0.0009333034745 
0.3275            -0.0009334086215 
0.33              -0.0009335116127 
0.3325            -0.0009336124966 
0.335             -0.0009337113221 
0.3375            -0.0009338081368 
0.34              -0.0009339029871 
0.3425            -0.0009339959179 
0.345             -0.000934086973  
0.3475            -0.0009341761951 
0.35              -0.0009342636257 
0.3525            -0.0009343493051 
0.355             -0.0009344332726 
0.3575            -0.0009345155665 
0.36              -0.000934596224  
0.3625            -0.0009346752815 
0.365             -0.0009347527742 
0.3675            -0.0009348287366 
0.37              -0.0009349032023 
0.3725            -0.0009349762039 
0.375             -0.0009350477734 
0.3775            -0.0009351179417 
0.38              -0.0009351867391 
0.3825            -0.0009352541953 
0.385             -0.0009353203389 
0.3875            -0.0009353851981 
0.39              -0.0009354488001 
0.3925            -0.0009355111718 
0.395             -0.0009355723392 
0.3975            -0.0009356323277 
0.4               -0.0009356911622 
0.4025            -0.0009357488667 
0.405             -0.0009358054651 
0.4075            -0.0009358609804 
0.41              -0.000935915435  
0.4125            -0.0009359688509 
0.415             -0.0009360212498 
0.4175            -0.0009360726524 
0.42              -0.0009361230794 
0.4225            -0.0009361725506 
0.425             -0.0009362210857 
0.4275            -0.0009362687038 
0.43              -0.0009363154234 
0.4325            -0.0009363612629 
0.435             -0.00093640624   
0.4375            -0.0009364503722 
0.44              -0.0009364936765 
0.4425            -0.0009365361694 
0.445             -0.0009365778674 
0.4475            -0.0009366187861 
0.45              -0.0009366589413 
0.4525            -0.0009366983481 
0.455             -0.0009367370214 
0.4575            -0.0009367749757 
0.46              -0.0009368122252 
0.4625            -0.0009368487838 
0.465             -0.0009368846651 
0.4675            -0.0009369198825 
0.47              -0.00093695445   
0.4725            -0.0009369883792 
0.475             -0.0009370216827 
0.4775            -0.0009370543726 
0.48              -0.0009370864608 
0.4825            -0.0009371179591 
0.485             -0.0009371488789 
0.4875            -0.0009371792313 
0.49              -0.0009372090274 
0.4925            -0.0009372382778 
0.495             -0.0009372669931 
0.4975            -0.0009372951836 
0.5               -0.0009373228592 
