/*--------------------------------*- C++ -*----------------------------------*\
  =========                 |
  \\      /  F ield         | OpenFOAM: The Open Source CFD Toolbox
   \\    /   O peration     | Website:  https://openfoam.org
    \\  /    A nd           | Version:  12
     \\/     M anipulation  |
\*---------------------------------------------------------------------------*/
FoamFile
{
    format      ascii;
    class       volVectorField;
    location    "17.1";
    object      U;
}
// * * * * * * * * * * * * * * * * * * * * * * * * * * * * * * * * * * * * * //

dimensions      [0 1 -1 0 0 0 0];

internalField   nonuniform List<vector> 
3829
(
(1.95222e-06 -0.000532495 0)
(4.02379e-06 -0.000566176 0)
(8.05675e-06 -0.000565855 0)
(1.07882e-05 -0.000564044 0)
(1.40378e-05 -0.00056162 0)
(1.68219e-05 -0.000558556 0)
(1.94144e-05 -0.000554865 0)
(2.15969e-05 -0.000550552 0)
(2.33893e-05 -0.000545621 0)
(2.4626e-05 -0.000540083 0)
(2.52745e-05 -0.000533948 0)
(2.51843e-05 -0.000527215 0)
(2.4428e-05 -0.000519878 0)
(2.32502e-05 -0.000511963 0)
(2.16313e-05 -0.000503515 0)
(1.96287e-05 -0.000494575 0)
(1.72585e-05 -0.000485185 0)
(1.45753e-05 -0.000475372 0)
(1.16601e-05 -0.0004652 0)
(8.59651e-06 -0.00045473 0)
(5.46562e-06 -0.000444033 0)
(2.41234e-06 -0.000433148 0)
(-4.87275e-07 -0.000422126 0)
(-3.09331e-06 -0.000411011 0)
(-5.30287e-06 -0.000399814 0)
(-7.05623e-06 -0.000388566 0)
(-8.20828e-06 -0.000377252 0)
(-8.54819e-06 -0.000365897 0)
(-7.61017e-06 -0.000354467 0)
(-5.37883e-06 -0.000343128 0)
(-2.1197e-06 -0.000331889 0)
(2.4294e-06 -0.000320777 0)
(7.89094e-06 -0.000309814 0)
(1.46437e-05 -0.00029893 0)
(2.26628e-05 -0.000288154 0)
(3.14878e-05 -0.000277409 0)
(4.13891e-05 -0.000266677 0)
(5.21435e-05 -0.000255931 0)
(6.37002e-05 -0.000245119 0)
(7.5968e-05 -0.000234223 0)
(8.88617e-05 -0.000223235 0)
(0.000102246 -0.000212142 0)
(0.000115986 -0.000200921 0)
(0.000129915 -0.000189585 0)
(0.000143864 -0.000178139 0)
(0.000157633 -0.000166588 0)
(0.000170982 -0.000154951 0)
(0.000183783 -0.000143232 0)
(0.000195769 -0.000131478 0)
(0.000206719 -0.000119678 0)
(0.0002164 -0.000107902 0)
(0.000224523 -9.61203e-05 0)
(0.000231025 -8.44003e-05 0)
(0.000235941 -7.27898e-05 0)
(0.000238739 -6.13581e-05 0)
(0.000238969 -5.00725e-05 0)
(0.000236823 -3.91182e-05 0)
(0.000232183 -2.84962e-05 0)
(0.000224686 -1.82888e-05 0)
(0.000214829 -8.4271e-06 0)
(0.00020261 8.53861e-07 0)
(0.000187616 9.5672e-06 0)
(0.000170395 1.77133e-05 0)
(0.000150923 2.51444e-05 0)
(0.000129076 3.18857e-05 0)
(0.00010538 3.78576e-05 0)
(7.98598e-05 4.29766e-05 0)
(5.28526e-05 4.72613e-05 0)
(2.50008e-05 5.05841e-05 0)
(-4.36805e-06 5.29286e-05 0)
(-3.44871e-05 5.42968e-05 0)
(-6.44101e-05 5.46764e-05 0)
(-9.40441e-05 5.40456e-05 0)
(-0.00012286 5.23935e-05 0)
(-0.000150428 4.9764e-05 0)
(-0.000176598 4.61713e-05 0)
(-0.000200345 4.16871e-05 0)
(-0.000221753 3.62904e-05 0)
(-0.000240225 3.02303e-05 0)
(-0.000255098 2.34718e-05 0)
(-0.0002666 1.61112e-05 0)
(-0.000273718 8.44109e-06 0)
(-0.000276588 4.01543e-07 0)
(-0.000274896 -7.74218e-06 0)
(-0.000268004 -1.58571e-05 0)
(-0.000256225 -2.38613e-05 0)
(-0.000239905 -3.14632e-05 0)
(-0.000219092 -3.85968e-05 0)
(-0.000194216 -4.50578e-05 0)
(-0.000165604 -5.06829e-05 0)
(-0.000133667 -5.5326e-05 0)
(-9.90233e-05 -5.88391e-05 0)
(-6.23109e-05 -6.11178e-05 0)
(-2.42665e-05 -6.20588e-05 0)
(1.42946e-05 -6.16092e-05 0)
(5.24284e-05 -5.97298e-05 0)
(8.92556e-05 -5.64324e-05 0)
(0.000123842 -5.1755e-05 0)
(0.000155313 -4.57849e-05 0)
(0.000182706 -3.86122e-05 0)
(0.000205268 -3.0415e-05 0)
(0.000222283 -2.14079e-05 0)
(0.000233145 -1.17741e-05 0)
(0.000237441 -1.80452e-06 0)
(0.00023444 8.16845e-06 0)
(0.000223999 1.7886e-05 0)
(0.000206545 2.71036e-05 0)
(0.000182759 3.55508e-05 0)
(0.000153148 4.28372e-05 0)
(0.000118424 4.87296e-05 0)
(7.96088e-05 5.29617e-05 0)
(3.80282e-05 5.54356e-05 0)
(-5.12802e-06 5.58581e-05 0)
(-4.81252e-05 5.4353e-05 0)
(-8.93246e-05 5.06857e-05 0)
(-0.000127197 4.52244e-05 0)
(-0.000160236 3.78123e-05 0)
(-0.000186936 2.90584e-05 0)
(-0.000206085 1.88351e-05 0)
(-0.000216892 7.97153e-06 0)
(-0.000217981 -3.39269e-06 0)
(-0.000209113 -1.46764e-05 0)
(-0.000190538 -2.53002e-05 0)
(-0.000162922 -3.49573e-05 0)
(-0.000127356 -4.30782e-05 0)
(-8.53469e-05 -4.93214e-05 0)
(-3.84502e-05 -5.31867e-05 0)
(1.14582e-05 -5.45372e-05 0)
(6.15171e-05 -5.31637e-05 0)
(0.000109098 -4.90718e-05 0)
(0.000151938 -4.24715e-05 0)
(0.000187839 -3.3569e-05 0)
(0.000214485 -2.29405e-05 0)
(0.000230358 -1.09911e-05 0)
(0.000234147 1.54124e-06 0)
(0.000224859 1.39348e-05 0)
(0.000203227 2.5525e-05 0)
(0.000170515 3.55236e-05 0)
(0.000128499 4.34572e-05 0)
(7.97233e-05 4.83922e-05 0)
(2.66022e-05 5.03785e-05 0)
(-2.72265e-05 4.87772e-05 0)
(-7.75413e-05 4.40763e-05 0)
(-0.00012106 3.62021e-05 0)
(-0.000154868 2.60568e-05 0)
(-0.000176535 1.39873e-05 0)
(-0.000184226 1.20478e-06 0)
(-0.000176909 -1.14352e-05 0)
(-0.000155191 -2.28059e-05 0)
(-0.000121152 -3.22063e-05 0)
(-7.7908e-05 -3.86362e-05 0)
(-2.88078e-05 -4.15997e-05 0)
(2.22635e-05 -4.04762e-05 0)
(6.98225e-05 -3.5697e-05 0)
(0.000108949 -2.76267e-05 0)
(0.000136364 -1.68744e-05 0)
(0.000149362 -4.63079e-06 0)
(0.000145781 7.98117e-06 0)
(0.000125946 1.9674e-05 0)
(9.21663e-05 2.91995e-05 0)
(4.78151e-05 3.55317e-05 0)
(-3.63853e-06 3.78999e-05 0)
(-5.54549e-05 3.58393e-05 0)
(-0.000100544 2.9702e-05 0)
(-0.00013491 2.01342e-05 0)
(-0.000154274 8.23822e-06 0)
(-0.000155568 -4.546e-06 0)
(-0.000138274 -1.67237e-05 0)
(-0.000104717 -2.67893e-05 0)
(-5.88005e-05 -3.34901e-05 0)
(-4.92034e-06 -3.59093e-05 0)
(4.89711e-05 -3.35504e-05 0)
(9.49071e-05 -2.6891e-05 0)
(0.000128084 -1.68697e-05 0)
(0.000144081 -4.89146e-06 0)
(0.000140471 7.31352e-06 0)
(0.000118073 1.80398e-05 0)
(8.09359e-05 2.56812e-05 0)
(3.46673e-05 2.91257e-05 0)
(-1.39104e-05 2.77748e-05 0)
(-5.61976e-05 2.19892e-05 0)
(-8.51841e-05 1.27844e-05 0)
(-9.68261e-05 1.82336e-06 0)
(-8.90786e-05 -9.1129e-06 0)
(-6.37649e-05 -1.81155e-05 0)
(-2.5511e-05 -2.37206e-05 0)
(2.0002e-05 -2.48911e-05 0)
(6.32084e-05 -2.13929e-05 0)
(9.54183e-05 -1.40393e-05 0)
(0.000111813 -4.26687e-06 0)
(0.000108949 6.03951e-06 0)
(8.76865e-05 1.49939e-05 0)
(5.20653e-05 2.0795e-05 0)
(9.07959e-06 2.24891e-05 0)
(-3.27003e-05 1.94666e-05 0)
(-6.47387e-05 1.27498e-05 0)
(-8.06717e-05 3.50514e-06 0)
(-7.74553e-05 -6.17777e-06 0)
(-5.55619e-05 -1.42256e-05 0)
(-2.0207e-05 -1.88366e-05 0)
(6.02792e-06 0.000423415 0)
(2.00834e-05 0.00044821 0)
(3.41107e-05 0.000449955 0)
(4.79649e-05 0.000451787 0)
(6.14881e-05 0.000454159 0)
(7.45679e-05 0.000457055 0)
(8.70657e-05 0.000460408 0)
(9.88549e-05 0.000464103 0)
(0.000109911 0.000467988 0)
(0.000120022 0.000471863 0)
(0.000129275 0.000475489 0)
(0.000137664 0.00047858 0)
(0.000145027 0.000480834 0)
(0.000151214 0.000482088 0)
(0.00015613 0.000482143 0)
(0.000159887 0.000480806 0)
(0.000162625 0.000477904 0)
(0.000164248 0.00047328 0)
(0.000164615 0.000466817 0)
(0.000163795 0.000458474 0)
(0.00016205 0.000448209 0)
(0.000159707 0.00043603 0)
(0.000156822 0.000421929 0)
(0.000153844 0.000406025 0)
(0.000150979 0.000388388 0)
(0.000148456 0.000369145 0)
(0.000146472 0.00034847 0)
(0.000145359 0.000326554 0)
(0.000144645 0.000303516 0)
(0.00014406 0.000279628 0)
(0.000144285 0.000255249 0)
(0.000145493 0.000230717 0)
(0.00014792 0.000206422 0)
(0.000151876 0.000182508 0)
(0.000157337 0.000159235 0)
(0.000164154 0.000136767 0)
(0.000172285 0.000115274 0)
(0.000181748 9.49132e-05 0)
(0.000192488 7.58892e-05 0)
(0.000204161 5.84092e-05 0)
(0.000216629 4.26419e-05 0)
(0.00022982 2.87633e-05 0)
(0.000243439 1.68644e-05 0)
(0.000257159 7.08442e-06 0)
(0.000270837 -5.28333e-07 0)
(0.000284204 -5.93527e-06 0)
(0.00029703 -9.1002e-06 0)
(0.000309043 -1.00802e-05 0)
(0.000320046 -8.93059e-06 0)
(0.000329724 -5.69092e-06 0)
(0.000337925 -4.80559e-07 0)
(0.000344404 6.60468e-06 0)
(0.000348698 1.5237e-05 0)
(0.000350862 2.55536e-05 0)
(0.000350756 3.69546e-05 0)
(0.000347411 4.96252e-05 0)
(0.000340843 6.30669e-05 0)
(0.00033148 7.7387e-05 0)
(0.000319272 9.19683e-05 0)
(0.000304033 0.000106976 0)
(0.000285506 0.0001217 0)
(0.000264405 0.000136229 0)
(0.000240542 0.000149969 0)
(0.00021402 0.00016285 0)
(0.000185032 0.00017443 0)
(0.000153628 0.000184586 0)
(0.000120289 0.000192916 0)
(8.51908e-05 0.000199329 0)
(4.88153e-05 0.000203498 0)
(1.10413e-05 0.000205296 0)
(-2.73265e-05 0.000204601 0)
(-6.5459e-05 0.00020132 0)
(-0.000103246 0.00019537 0)
(-0.000139895 0.000186661 0)
(-0.000174888 0.000175344 0)
(-0.000207979 0.000161318 0)
(-0.000238289 0.000144863 0)
(-0.00026524 0.000126006 0)
(-0.000288322 0.000105121 0)
(-0.000307467 8.23264e-05 0)
(-0.00032171 5.81312e-05 0)
(-0.000330651 3.2708e-05 0)
(-0.00033457 6.60606e-06 0)
(-0.000332484 -1.98305e-05 0)
(-0.000324437 -4.59305e-05 0)
(-0.000310237 -7.14845e-05 0)
(-0.000290323 -9.57659e-05 0)
(-0.000265081 -0.000118442 0)
(-0.000234639 -0.000138859 0)
(-0.000199559 -0.000156659 0)
(-0.00016034 -0.000171274 0)
(-0.000117762 -0.000182392 0)
(-7.26324e-05 -0.000189501 0)
(-2.58674e-05 -0.000192485 0)
(2.15026e-05 -0.000191074 0)
(6.83277e-05 -0.000185183 0)
(0.000113496 -0.00017487 0)
(0.000155853 -0.000160249 0)
(0.00019438 -0.000141567 0)
(0.000227879 -0.000119212 0)
(0.000255262 -9.3631e-05 0)
(0.000275833 -6.54987e-05 0)
(0.00028882 -3.54897e-05 0)
(0.000293431 -4.4778e-06 0)
(0.000289089 2.66163e-05 0)
(0.000275952 5.70179e-05 0)
(0.000254459 8.56995e-05 0)
(0.000224948 0.000111849 0)
(0.000188081 0.000134418 0)
(0.000144956 0.000152648 0)
(9.6981e-05 0.000165758 0)
(4.54517e-05 0.00017318 0)
(-7.86401e-06 0.000174498 0)
(-6.10586e-05 0.0001694 0)
(-0.000111899 0.000158034 0)
(-0.000158663 0.000140573 0)
(-0.000199303 0.000117629 0)
(-0.000232269 8.98544e-05 0)
(-0.000255891 5.83307e-05 0)
(-0.000268787 2.42e-05 0)
(-0.000270252 -1.11274e-05 0)
(-0.000259104 -4.61193e-05 0)
(-0.000236291 -7.93924e-05 0)
(-0.000202574 -0.000109411 0)
(-0.000159037 -0.000134628 0)
(-0.000107402 -0.000153783 0)
(-4.97208e-05 -0.000165639 0)
(1.14627e-05 -0.000169787 0)
(7.29685e-05 -0.000165179 0)
(0.000131287 -0.000152408 0)
(0.000183763 -0.000131575 0)
(0.000227489 -0.000103878 0)
(0.000259802 -7.05518e-05 0)
(0.000278941 -3.32737e-05 0)
(0.000283048 5.64241e-06 0)
(0.000271376 4.42783e-05 0)
(0.000244628 8.01437e-05 0)
(0.000204513 0.00011131 0)
(0.00015263 0.000135376 0)
(9.25617e-05 0.000150952 0)
(2.73334e-05 0.000156431 0)
(-3.8609e-05 0.000151547 0)
(-0.000100012 0.000136351 0)
(-0.000152909 0.000112038 0)
(-0.000193688 7.98462e-05 0)
(-0.000219474 4.25119e-05 0)
(-0.000227653 2.5193e-06 0)
(-0.000217463 -3.66941e-05 0)
(-0.000189878 -7.22543e-05 0)
(-0.000147299 -0.000101237 0)
(-9.32626e-05 -0.000121034 0)
(-3.18157e-05 -0.00012991 0)
(3.16312e-05 -0.000126202 0)
(9.00269e-05 -0.000111145 0)
(0.000138226 -8.55792e-05 0)
(0.000171738 -5.2052e-05 0)
(0.000187167 -1.36211e-05 0)
(0.000182332 2.56673e-05 0)
(0.0001575 6.20139e-05 0)
(0.000115488 9.15384e-05 0)
(6.04793e-05 0.000110973 0)
(-3.16583e-06 0.000118111 0)
(-6.70612e-05 0.000111384 0)
(-0.000122554 9.21062e-05 0)
(-0.000164662 6.21446e-05 0)
(-0.000188102 2.50815e-05 0)
(-0.000189398 -1.47524e-05 0)
(-0.000168086 -5.25615e-05 0)
(-0.000126942 -8.37462e-05 0)
(-7.07692e-05 -0.000104283 0)
(-5.03362e-06 -0.000111444 0)
(6.04728e-05 -0.000103741 0)
(0.00011597 -8.27423e-05 0)
(0.00015556 -5.14256e-05 0)
(0.00017395 -1.41175e-05 0)
(0.000168479 2.37188e-05 0)
(0.000140261 5.68389e-05 0)
(9.4188e-05 8.02988e-05 0)
(3.71654e-05 9.06477e-05 0)
(-2.22039e-05 8.60151e-05 0)
(-7.34524e-05 6.76707e-05 0)
(-0.000108146 3.90575e-05 0)
(-0.000121485 4.86272e-06 0)
(-0.000111286 -2.88593e-05 0)
(-7.98586e-05 -5.66649e-05 0)
(-3.2907e-05 -7.36737e-05 0)
(2.24769e-05 -7.70761e-05 0)
(7.47182e-05 -6.59154e-05 0)
(0.000113395 -4.30604e-05 0)
(0.000132661 -1.27941e-05 0)
(0.000128728 1.90644e-05 0)
(0.000102677 4.65368e-05 0)
(5.96063e-05 6.42855e-05 0)
(7.78994e-06 6.91737e-05 0)
(-4.22237e-05 5.98298e-05 0)
(-8.01867e-05 3.88899e-05 0)
(-9.87937e-05 1.04466e-05 0)
(-9.42472e-05 -1.93466e-05 0)
(-6.7425e-05 -4.41358e-05 0)
(-2.44963e-05 -5.82925e-05 0)
(7.00827e-06 -0.000675638 0)
(2.18423e-05 -0.00071856 0)
(3.63997e-05 -0.000714741 0)
(5.02903e-05 -0.000707355 0)
(6.32645e-05 -0.000697291 0)
(7.47975e-05 -0.000684735 0)
(8.44832e-05 -0.000669515 0)
(9.15077e-05 -0.000651964 0)
(9.53165e-05 -0.000631874 0)
(9.51838e-05 -0.00060964 0)
(9.05846e-05 -0.000585336 0)
(8.10342e-05 -0.000559379 0)
(6.76011e-05 -0.000532003 0)
(5.12779e-05 -0.000503723 0)
(3.19663e-05 -0.000475108 0)
(1.00287e-05 -0.000446865 0)
(-1.41758e-05 -0.000419637 0)
(-4.01475e-05 -0.00039403 0)
(-6.70029e-05 -0.000370471 0)
(-9.41397e-05 -0.000349404 0)
(-0.000121118 -0.000331037 0)
(-0.000147541 -0.000315691 0)
(-0.000172619 -0.000303388 0)
(-0.000195716 -0.000294235 0)
(-0.000216716 -0.000288 0)
(-0.00023494 -0.000284763 0)
(-0.000249915 -0.000283941 0)
(-0.00026179 -0.000285635 0)
(-0.000269834 -0.000289035 0)
(-0.000272708 -0.000293879 0)
(-0.000270289 -0.000299484 0)
(-0.000262275 -0.000306046 0)
(-0.000250188 -0.000313105 0)
(-0.000234472 -0.000320295 0)
(-0.000215051 -0.000327207 0)
(-0.000192959 -0.000333378 0)
(-0.000168207 -0.000338235 0)
(-0.000141003 -0.000341553 0)
(-0.000111335 -0.000342994 0)
(-7.95843e-05 -0.000342382 0)
(-4.60345e-05 -0.000339527 0)
(-1.11905e-05 -0.000334237 0)
(2.46127e-05 -0.000326422 0)
(6.09733e-05 -0.000316 0)
(9.72339e-05 -0.000302915 0)
(0.000133135 -0.000287151 0)
(0.000167981 -0.000268751 0)
(0.000201221 -0.000247746 0)
(0.000232702 -0.000224238 0)
(0.000261927 -0.000198362 0)
(0.000288433 -0.000170331 0)
(0.000311078 -0.000140323 0)
(0.00033081 -0.000108626 0)
(0.000346567 -7.53584e-05 0)
(0.000358065 -4.10205e-05 0)
(0.0003654 -5.66861e-06 0)
(0.000368369 3.00862e-05 0)
(0.00036656 6.60045e-05 0)
(0.00035987 0.000101545 0)
(0.00034849 0.000136308 0)
(0.000332078 0.000170016 0)
(0.000310977 0.000202273 0)
(0.00028503 0.000232485 0)
(0.000254961 0.000260352 0)
(0.00022051 0.000285382 0)
(0.000182389 0.00030716 0)
(0.000140838 0.000325317 0)
(9.65279e-05 0.000339473 0)
(5.00168e-05 0.000349348 0)
(1.47988e-06 0.000354553 0)
(-4.81533e-05 0.000355125 0)
(-9.77901e-05 0.000350591 0)
(-0.000147314 0.000341174 0)
(-0.000195318 0.000326663 0)
(-0.000241422 0.000307151 0)
(-0.000285058 0.000282804 0)
(-0.000324776 0.000253873 0)
(-0.000360327 0.000220723 0)
(-0.000390884 0.000183655 0)
(-0.000415471 0.000143156 0)
(-0.000434036 0.000100124 0)
(-0.00044564 5.47856e-05 0)
(-0.00044996 8.27935e-06 0)
(-0.00044632 -3.86881e-05 0)
(-0.000434664 -8.52897e-05 0)
(-0.000415195 -0.000130752 0)
(-0.000388011 -0.000174096 0)
(-0.000353505 -0.000214368 0)
(-0.00031208 -0.000250728 0)
(-0.000264457 -0.000282202 0)
(-0.000211281 -0.00030802 0)
(-0.000153426 -0.000327508 0)
(-9.21704e-05 -0.000339912 0)
(-2.90067e-05 -0.000344877 0)
(3.51163e-05 -0.000341937 0)
(9.83101e-05 -0.000331056 0)
(0.00015914 -0.000312188 0)
(0.000216168 -0.000285705 0)
(0.000267811 -0.000251876 0)
(0.000312642 -0.000211576 0)
(0.000349218 -0.00016555 0)
(0.000376335 -0.000114951 0)
(0.000393001 -6.12041e-05 0)
(0.000398276 -5.55331e-06 0)
(0.000391853 5.02165e-05 0)
(0.000373522 0.000104676 0)
(0.000343749 0.000156037 0)
(0.000303285 0.000202667 0)
(0.000252926 0.00024283 0)
(0.000194188 0.000275239 0)
(0.000128701 0.000298332 0)
(5.87004e-05 0.000311369 0)
(-1.39107e-05 0.000313334 0)
(-8.60887e-05 0.000303867 0)
(-0.000155057 0.000283116 0)
(-0.000218294 0.000251479 0)
(-0.000273274 0.000210062 0)
(-0.000317616 0.000160014 0)
(-0.000349149 0.000103408 0)
(-0.000366485 4.20368e-05 0)
(-0.000367738 -2.11071e-05 0)
(-0.000352829 -8.39509e-05 0)
(-0.000322265 -0.000143496 0)
(-0.000276605 -0.000197033 0)
(-0.000217686 -0.000241793 0)
(-0.000147821 -0.000275791 0)
(-7.03886e-05 -0.000296725 0)
(1.21822e-05 -0.000303431 0)
(9.50707e-05 -0.000294906 0)
(0.000173391 -0.000271491 0)
(0.00024381 -0.000234079 0)
(0.000302091 -0.000184258 0)
(0.000345181 -0.000124409 0)
(0.000369836 -5.76541e-05 0)
(0.000374494 1.20891e-05 0)
(0.000358167 8.12179e-05 0)
(0.000321815 0.000145297 0)
(0.000267161 0.000200535 0)
(0.000197088 0.000243137 0)
(0.000115788 0.000270275 0)
(2.77091e-05 0.000279698 0)
(-6.06554e-05 0.000270141 0)
(-0.00014266 0.000242444 0)
(-0.000213167 0.000198111 0)
(-0.000266939 0.000140276 0)
(-0.000299793 7.29989e-05 0)
(-0.00030905 1.26465e-06 0)
(-0.000293425 -6.89714e-05 0)
(-0.000254647 -0.000132702 0)
(-0.000195521 -0.00018404 0)
(-0.000121195 -0.000218958 0)
(-3.66561e-05 -0.000233954 0)
(4.97056e-05 -0.000226894 0)
(0.000128701 -0.000198891 0)
(0.000193709 -0.000152442 0)
(0.000238449 -9.1748e-05 0)
(0.00025839 -2.2592e-05 0)
(0.000250711 4.79621e-05 0)
(0.000216321 0.000112987 0)
(0.000158614 0.000165555 0)
(8.35254e-05 0.000199846 0)
(-2.97706e-06 0.000212024 0)
(-8.93994e-05 0.00019942 0)
(-0.00016419 0.000164283 0)
(-0.000220611 0.000110307 0)
(-0.000251508 4.37407e-05 0)
(-0.000252653 -2.74656e-05 0)
(-0.000223599 -9.49018e-05 0)
(-0.000168002 -0.000150105 0)
(-9.23773e-05 -0.000186156 0)
(-4.41632e-06 -0.000198195 0)
(8.27062e-05 -0.000183603 0)
(0.000155824 -0.000145703 0)
(0.000207141 -8.9358e-05 0)
(0.000229707 -2.26913e-05 0)
(0.000220443 4.47042e-05 0)
(0.000181156 0.000103282 0)
(0.000118255 0.000144397 0)
(4.10072e-05 0.00016219 0)
(-3.85118e-05 0.000152542 0)
(-0.000106049 0.000119454 0)
(-0.000151158 6.7946e-05 0)
(-0.000167397 7.05113e-06 0)
(-0.000152321 -5.29087e-05 0)
(-0.000109345 -0.000101801 0)
(-4.60977e-05 -0.000131425 0)
(2.75929e-05 -0.000136665 0)
(9.64806e-05 -0.000116344 0)
(0.000146863 -7.53119e-05 0)
(0.000171332 -2.1624e-05 0)
(0.00016518 3.46685e-05 0)
(0.000130094 8.28156e-05 0)
(7.31036e-05 0.000113709 0)
(5.09059e-06 0.000121666 0)
(-6.00213e-05 0.000104878 0)
(-0.000108845 6.76279e-05 0)
(-0.000132137 1.74873e-05 0)
(-0.000125166 -3.49686e-05 0)
(-8.92492e-05 -7.83912e-05 0)
(-3.23624e-05 -0.000103151 0)
(2.27033e-05 0.000124849 0)
(7.1743e-05 0.000142641 0)
(0.000120315 0.000157956 0)
(0.000168372 0.000180338 0)
(0.000214569 0.00021072 0)
(0.000258986 0.000247771 0)
(0.000300356 0.000292358 0)
(0.000339093 0.000340997 0)
(0.000375089 0.000394811 0)
(0.000406369 0.000449165 0)
(0.000433174 0.000503488 0)
(0.000454466 0.000554439 0)
(0.000469685 0.000601529 0)
(0.000476799 0.000642883 0)
(0.000474769 0.000677873 0)
(0.000463637 0.000705376 0)
(0.000444377 0.000725275 0)
(0.000418406 0.000736084 0)
(0.000386696 0.000738849 0)
(0.000350759 0.000732227 0)
(0.000311799 0.000716549 0)
(0.000271358 0.000691489 0)
(0.000230773 0.00065795 0)
(0.000191882 0.000615847 0)
(0.000154998 0.000566764 0)
(0.000122111 0.000510999 0)
(9.33612e-05 0.000450651 0)
(6.99785e-05 0.000385917 0)
(5.33555e-05 0.000319582 0)
(4.26183e-05 0.000251511 0)
(3.56688e-05 0.000183633 0)
(3.13585e-05 0.000116805 0)
(3.24371e-05 5.27553e-05 0)
(3.8795e-05 -8.24019e-06 0)
(5.06352e-05 -6.56139e-05 0)
(6.85269e-05 -0.000119038 0)
(9.15262e-05 -0.000167843 0)
(0.000118635 -0.000211608 0)
(0.000149518 -0.000249774 0)
(0.000183083 -0.000281942 0)
(0.000219056 -0.000307827 0)
(0.000256718 -0.000327236 0)
(0.000295222 -0.000340044 0)
(0.000334023 -0.000346245 0)
(0.000372602 -0.000345849 0)
(0.000410231 -0.000339112 0)
(0.000446446 -0.000326068 0)
(0.000480716 -0.000307046 0)
(0.000512411 -0.000282458 0)
(0.000540812 -0.000252672 0)
(0.000565594 -0.000217975 0)
(0.000586171 -0.000178959 0)
(0.00060254 -0.000136133 0)
(0.000613871 -9.01513e-05 0)
(0.000620315 -4.14247e-05 0)
(0.000620709 9.15695e-06 0)
(0.00061442 6.11988e-05 0)
(0.000602155 0.000113976 0)
(0.000583359 0.000167062 0)
(0.000558949 0.00021927 0)
(0.000528819 0.00027033 0)
(0.000492558 0.000319029 0)
(0.000450454 0.000364919 0)
(0.000403126 0.000407134 0)
(0.000350399 0.000445086 0)
(0.00029292 0.000478073 0)
(0.000231356 0.000505473 0)
(0.000166332 0.000526817 0)
(9.83589e-05 0.000541443 0)
(2.84424e-05 0.00054908 0)
(-4.28282e-05 0.000549339 0)
(-0.000113984 0.000542021 0)
(-0.000184052 0.000526849 0)
(-0.000252582 0.00050409 0)
(-0.000317923 0.000473531 0)
(-0.000379366 0.000435676 0)
(-0.000435389 0.000390763 0)
(-0.000485379 0.000339217 0)
(-0.000528551 0.000281871 0)
(-0.000563066 0.000219395 0)
(-0.000588906 0.000152694 0)
(-0.000605116 8.28569e-05 0)
(-0.000610682 1.09356e-05 0)
(-0.000605677 -6.14824e-05 0)
(-0.00059009 -0.000133417 0)
(-0.000563534 -0.000203354 0)
(-0.000526115 -0.000270023 0)
(-0.000478733 -0.000331897 0)
(-0.000421638 -0.000387558 0)
(-0.000355764 -0.000435702 0)
(-0.000282539 -0.000475047 0)
(-0.000202918 -0.000504486 0)
(-0.000118667 -0.000523183 0)
(-3.15647e-05 -0.000530208 0)
(5.65413e-05 -0.000525207 0)
(0.000143362 -0.000507951 0)
(0.0002268 -0.000478526 0)
(0.000304942 -0.000437165 0)
(0.000375595 -0.000384783 0)
(0.00043657 -0.000322279 0)
(0.000486243 -0.000251262 0)
(0.000522469 -0.000173279 0)
(0.000544454 -9.0459e-05 0)
(0.000550811 -4.7292e-06 0)
(0.00054083 8.12016e-05 0)
(0.000514879 0.000164892 0)
(0.000473177 0.000243799 0)
(0.000416467 0.000315344 0)
(0.000346392 0.000376941 0)
(0.000264664 0.00042632 0)
(0.000174002 0.000461445 0)
(7.70846e-05 0.000480733 0)
(-2.34733e-05 0.000483109 0)
(-0.000123268 0.000467954 0)
(-0.000218528 0.000435514 0)
(-0.000305654 0.000386438 0)
(-0.000381236 0.000322124 0)
(-0.000442013 0.000244917 0)
(-0.000485246 0.000157381 0)
(-0.00050813 6.28716e-05 0)
(-0.000509623 -3.43597e-05 0)
(-0.000489025 -0.000131047 0)
(-0.000446368 -0.000222305 0)
(-0.00038314 -0.000304191 0)
(-0.000302113 -0.000372726 0)
(-0.000206137 -0.000424354 0)
(-9.90236e-05 -0.00045634 0)
(1.43252e-05 -0.000465561 0)
(0.00012796 -0.000452126 0)
(0.000235094 -0.000415397 0)
(0.000331097 -0.000357418 0)
(0.000410664 -0.000280351 0)
(0.000468915 -0.000188167 0)
(0.000501837 -8.57254e-05 0)
(0.000507243 2.18015e-05 0)
(0.000484001 0.000127476 0)
(0.000432971 0.000225835 0)
(0.000357217 0.000310008 0)
(0.000260292 0.000374685 0)
(0.000148423 0.000415309 0)
(2.72662e-05 0.000428719 0)
(-9.39488e-05 0.000413178 0)
(-0.000205918 0.00036935 0)
(-0.000301514 0.000300609 0)
(-0.000373651 0.000210858 0)
(-0.000417143 0.000107072 0)
(-0.000427291 -3.33427e-06 0)
(-0.000403729 -0.000111396 0)
(-0.000348117 -0.000209002 0)
(-0.000264644 -0.000287306 0)
(-0.000160527 -0.000340183 0)
(-4.26203e-05 -0.000361972 0)
(7.73342e-05 -0.000350078 0)
(0.000186283 -0.000305901 0)
(0.000275317 -0.000233303 0)
(0.000336076 -0.000138993 0)
(0.000362036 -3.20988e-05 0)
(0.000350129 7.67688e-05 0)
(0.000301434 0.000176757 0)
(0.000220654 0.000257042 0)
(0.000116189 0.000309047 0)
(-3.49553e-06 0.000326683 0)
(-0.000122667 0.000306456 0)
(-0.000225324 0.000251495 0)
(-0.000302183 0.000168028 0)
(-0.000343544 6.55073e-05 0)
(-0.000344091 -4.40546e-05 0)
(-0.000303434 -0.000147173 0)
(-0.000226587 -0.000231149 0)
(-0.000122793 -0.000285177 0)
(-2.54779e-06 -0.000302342 0)
(0.000115537 -0.000279107 0)
(0.000213891 -0.000219716 0)
(0.000282001 -0.000132787 0)
(0.000310248 -3.05462e-05 0)
(0.000295156 7.23037e-05 0)
(0.000239443 0.000161124 0)
(0.000152206 0.000222771 0)
(4.5277e-05 0.000248478 0)
(-6.30502e-05 0.000232315 0)
(-0.000153588 0.000180592 0)
(-0.000213496 0.000101322 0)
(-0.000233536 7.84779e-06 0)
(-0.000211118 -8.32016e-05 0)
(-0.000151123 -0.000157015 0)
(-6.42953e-05 -0.000200997 0)
(3.56552e-05 -0.000207822 0)
(0.000128264 -0.000175787 0)
(0.000195234 -0.000112867 0)
(0.000226683 -3.09758e-05 0)
(0.000217054 5.41444e-05 0)
(0.000168819 0.000126408 0)
(9.18266e-05 0.000172368 0)
(7.19952e-07 0.000183419 0)
(-8.57257e-05 0.000157402 0)
(-0.000149841 0.000100585 0)
(-0.000179692 2.48093e-05 0)
(-0.00016904 -5.41206e-05 0)
(-0.000120063 -0.000119447 0)
(-4.34687e-05 -0.000156692 0)
(5.48374e-05 -0.00131373 0)
(0.000169255 -0.00136772 0)
(0.000282487 -0.0013529 0)
(0.000394306 -0.00132816 0)
(0.000499928 -0.00129165 0)
(0.000600037 -0.00124866 0)
(0.000683835 -0.00119071 0)
(0.00075017 -0.0011262 0)
(0.0007882 -0.00104209 0)
(0.00079093 -0.00094397 0)
(0.000765174 -0.000826476 0)
(0.000712686 -0.000702902 0)
(0.000642575 -0.000573808 0)
(0.000555887 -0.000447667 0)
(0.000456755 -0.000326626 0)
(0.000348671 -0.000215502 0)
(0.000231022 -0.000116612 0)
(0.000110522 -3.17843e-05 0)
(-1.27196e-05 3.76712e-05 0)
(-0.000137952 8.81105e-05 0)
(-0.000260887 0.000121484 0)
(-0.000378675 0.000137306 0)
(-0.000489177 0.00013825 0)
(-0.000588225 0.000121371 0)
(-0.000674391 9.32847e-05 0)
(-0.000744293 4.91962e-05 0)
(-0.000798909 7.10868e-07 0)
(-0.000834845 -6.08673e-05 0)
(-0.000854248 -0.000119036 0)
(-0.000859099 -0.000185739 0)
(-0.000846055 -0.00024781 0)
(-0.000815508 -0.000312093 0)
(-0.000771492 -0.000373595 0)
(-0.000719661 -0.000432365 0)
(-0.00066012 -0.000485912 0)
(-0.000593951 -0.000533622 0)
(-0.000521609 -0.000574716 0)
(-0.00044422 -0.000608512 0)
(-0.000362031 -0.000634798 0)
(-0.000276549 -0.000653259 0)
(-0.000188786 -0.000663762 0)
(-9.98183e-05 -0.000666282 0)
(-1.06876e-05 -0.000660776 0)
(7.76629e-05 -0.000647396 0)
(0.000163704 -0.000626394 0)
(0.000247052 -0.000597728 0)
(0.000326838 -0.000561933 0)
(0.000401239 -0.000519381 0)
(0.000469946 -0.000470179 0)
(0.000533049 -0.000415279 0)
(0.000589379 -0.000354889 0)
(0.000637244 -0.000289746 0)
(0.000677316 -0.000220353 0)
(0.000709128 -0.000147548 0)
(0.00073172 -7.18661e-05 0)
(0.000745279 5.6367e-06 0)
(0.000750314 8.4341e-05 0)
(0.000746484 0.000163135 0)
(0.0007323 0.000241326 0)
(0.00070864 0.000317931 0)
(0.000675388 0.000392057 0)
(0.000632309 0.000462565 0)
(0.000580637 0.000528685 0)
(0.000520709 0.000589272 0)
(0.000452944 0.000643399 0)
(0.000378053 0.00069029 0)
(0.000297162 0.000729043 0)
(0.000210937 0.000758889 0)
(0.0001206 0.000779131 0)
(2.72664e-05 0.000789299 0)
(-6.78969e-05 0.00078886 0)
(-0.00016341 0.000777694 0)
(-0.000257735 0.000755333 0)
(-0.000349377 0.000721888 0)
(-0.000437218 0.000677589 0)
(-0.000519517 0.000622685 0)
(-0.000595063 0.00055782 0)
(-0.000662102 0.000483625 0)
(-0.00071933 0.000401117 0)
(-0.000765603 0.00031148 0)
(-0.00079992 0.000215767 0)
(-0.000821212 0.000115896 0)
(-0.000828036 1.32136e-05 0)
(-0.000820168 -9.03396e-05 0)
(-0.000797949 -0.000193186 0)
(-0.000761032 -0.000292921 0)
(-0.000709774 -0.000387887 0)
(-0.000644457 -0.000475903 0)
(-0.000566181 -0.000554922 0)
(-0.000476248 -0.000623255 0)
(-0.000376031 -0.000678775 0)
(-0.000267576 -0.000720214 0)
(-0.000152766 -0.000746067 0)
(-3.42616e-05 -0.000755504 0)
(8.52689e-05 -0.000747727 0)
(0.000202927 -0.000722376 0)
(0.000316244 -0.000679613 0)
(0.000422033 -0.000619963 0)
(0.000517329 -0.000544631 0)
(0.000599406 -0.00045502 0)
(0.000665665 -0.000353134 0)
(0.000713975 -0.000241748 0)
(0.000742886 -0.000123169 0)
(0.000750561 -9.35651e-07 0)
(0.000735967 0.000121522 0)
(0.000699646 0.000240942 0)
(0.000642071 0.000353078 0)
(0.000564246 0.000454687 0)
(0.000467961 0.000541839 0)
(0.000356036 0.000611471 0)
(0.000231743 0.000660823 0)
(9.92665e-05 0.000687464 0)
(-3.758e-05 0.000689883 0)
(-0.000173206 0.000667624 0)
(-0.000302552 0.000620597 0)
(-0.000421072 0.000550081 0)
(-0.000523451 0.000457813 0)
(-0.00060554 0.000347233 0)
(-0.00066371 0.000222073 0)
(-0.000693995 8.74094e-05 0)
(-0.00069521 -5.14166e-05 0)
(-0.000666657 -0.000189145 0)
(-0.000608114 -0.000318894 0)
(-0.000522144 -0.000435417 0)
(-0.00041171 -0.000532491 0)
(-0.000281444 -0.000605516 0)
(-0.000135723 -0.000649505 0)
(1.82693e-05 -0.000662369 0)
(0.000171779 -0.000641888 0)
(0.000316954 -0.000589208 0)
(0.000446385 -0.000505634 0)
(0.00055323 -0.000395097 0)
(0.000630767 -0.000263356 0)
(0.00067446 -0.000117122 0)
(0.000680328 3.53465e-05 0)
(0.000647555 0.000185997 0)
(0.000577771 0.000325065 0)
(0.000473576 0.000444347 0)
(0.000341488 0.000535332 0)
(0.000189147 0.000592275 0)
(2.50308e-05 0.000610004 0)
(-0.000139058 0.000586298 0)
(-0.000289799 0.000522596 0)
(-0.000418042 0.000423051 0)
(-0.000514306 0.000294086 0)
(-0.000570516 0.000145518 0)
(-0.00058205 -1.21314e-05 0)
(-0.000547579 -0.000166475 0)
(-0.000469626 -0.00030474 0)
(-0.00035412 -0.000415754 0)
(-0.000210629 -0.000489569 0)
(-4.87356e-05 -0.000519197 0)
(0.000114672 -0.00050015 0)
(0.000262866 -0.00043557 0)
(0.000383454 -0.000330478 0)
(0.000464709 -0.000194833 0)
(0.000498318 -4.15995e-05 0)
(0.000480379 0.00011413 0)
(0.00041238 0.000256258 0)
(0.000300934 0.000369994 0)
(0.000157714 0.00044292 0)
(-5.46021e-06 0.00046651 0)
(-0.000167233 0.000436329 0)
(-0.000306067 0.000356819 0)
(-0.000409176 0.000236823 0)
(-0.000464128 9.0142e-05 0)
(-0.000463509 -6.55767e-05 0)
(-0.000407078 -0.000211709 0)
(-0.000301921 -0.000329952 0)
(-0.00016086 -0.000405318 0)
(1.01085e-06 -0.000428137 0)
(0.000159692 -0.000392799 0)
(0.000290869 -0.000307422 0)
(0.000379912 -0.000182986 0)
(0.000414985 -3.75541e-05 0)
(0.000391717 0.00010813 0)
(0.000314178 0.000232753 0)
(0.000194736 0.000318409 0)
(4.9497e-05 0.000352601 0)
(-9.61819e-05 0.000328153 0)
(-0.000216305 0.00025293 0)
(-0.00029502 0.000139472 0)
(-0.000319421 7.13805e-06 0)
(-0.000286698 -0.000121289 0)
(-0.000204361 -0.000224332 0)
(-8.67633e-05 -0.000284853 0)
(4.71783e-05 -0.000292623 0)
(0.000170119 -0.000245963 0)
(0.000258049 -0.000156283 0)
(0.000298195 -4.07907e-05 0)
(0.000283459 7.84617e-05 0)
(0.000218008 0.000178961 0)
(0.000115127 0.000242112 0)
(-5.58092e-06 0.000256214 0)
(-0.000119272 0.000218744 0)
(-0.000202752 0.000138576 0)
(-0.000240547 3.24753e-05 0)
(-0.000225159 -7.76157e-05 0)
(-0.000159596 -0.000168502 0)
(-5.77155e-05 -0.000220043 0)
(7.64054e-05 -0.0012143 0)
(0.000236227 -0.00120668 0)
(0.000391061 -0.00114005 0)
(0.000557147 -0.00103915 0)
(0.000716166 -0.000892651 0)
(0.000895648 -0.000710948 0)
(0.00106645 -0.000454256 0)
(0.00124673 -0.00017116 0)
(0.00140307 0.000209967 0)
(0.0015193 0.000550654 0)
(0.0016143 0.000866115 0)
(0.00165525 0.00112881 0)
(0.00165249 0.0013607 0)
(0.00159526 0.00155591 0)
(0.00149894 0.00171704 0)
(0.00136476 0.00184178 0)
(0.00120548 0.00192891 0)
(0.00102586 0.00197932 0)
(0.000830413 0.00199278 0)
(0.000628338 0.00196979 0)
(0.000423044 0.00191307 0)
(0.000226711 0.00181356 0)