/*--------------------------------*- C++ -*----------------------------------*\
  =========                 |
  \\      /  F ield         | OpenFOAM: The Open Source CFD Toolbox
   \\    /   O peration     | Website:  https://openfoam.org
    \\  /    A nd           | Version:  12
     \\/     M anipulation  |
\*---------------------------------------------------------------------------*/
FoamFile
{
    format      ascii;
    class       volScalarField;
    location    "500";
    object      epsilon;
}
// * * * * * * * * * * * * * * * * * * * * * * * * * * * * * * * * * * * * * //

dimensions      [0 2 -3 0 0 0 0];

internalField   nonuniform List<scalar> 
80
(
54.1863
324.679
820.053
948.066
823.926
666.368
534.363
432.5
354.66
294.497
247.206
209.391
178.674
153.374
132.283
114.518
99.4215
86.4959
75.358
65.7088
57.3116
49.9764
43.549
37.9025
32.9312
28.5464
24.6726
21.2453
18.2085
15.514
13.1196
10.989
9.0914
7.40172
5.90214
4.58452
3.45451
2.53579
1.86923
1.5043
1.50853
1.88148
2.55477
3.47856
4.61217
5.93237
7.43388
9.1251
11.024
13.1555
15.5506
18.2455
21.2821
24.7088
28.5813
32.9641
37.9324
43.5748
49.9968
57.3249
65.7132
75.3514
86.4757
99.3847
114.461
132.201
153.262
178.527
209.2
246.962
294.188
354.269
432.008
533.74
665.574
822.901
946.746
818.611
324.037
54.0861
)
;

boundaryField
{
    lowerWall
    {
        type            fixedValue;
        value           uniform 1e-08;
    }
    upperWall
    {
        type            fixedValue;
        value           uniform 1e-08;
    }
    front
    {
        type            cyclic;
    }
    back
    {
        type            cyclic;
    }
    defaultFaces
    {
        type            empty;
    }
}


// ************************************************************************* //
