/*--------------------------------*- C++ -*----------------------------------*\
  =========                 |
  \\      /  F ield         | OpenFOAM: The Open Source CFD Toolbox
   \\    /   O peration     | Website:  https://openfoam.org
    \\  /    A nd           | Version:  12
     \\/     M anipulation  |
\*---------------------------------------------------------------------------*/
FoamFile
{
    format      ascii;
    class       volSymmTensorField;
    location    "500";
    object      R;
}
// * * * * * * * * * * * * * * * * * * * * * * * * * * * * * * * * * * * * * //

dimensions      [0 2 -2 0 0 0 0];

internalField   nonuniform List<symmTensor> 
80
(
(0.00535113 -8.06147e-05 -0 0.00535113 -0 0.00535113)
(0.102348 -0.00957238 -0 0.102348 -0 0.102348)
(0.315277 -0.0828098 -0 0.315277 -0 0.315277)
(0.438738 -0.143081 -0 0.438738 -0 0.438738)
(0.48667 -0.173716 -0 0.48667 -0 0.48667)
(0.503915 -0.190904 -0 0.503915 -0 0.503915)
(0.509139 -0.20087 -0 0.509139 -0 0.509139)
(0.509637 -0.207146 -0 0.509637 -0 0.509637)
(0.508252 -0.211412 -0 0.508252 -0 0.508252)
(0.506105 -0.214474 -0 0.506105 -0 0.506105)
(0.50362 -0.216725 -0 0.50362 -0 0.50362)
(0.500933 -0.218361 -0 0.500933 -0 0.500933)
(0.49805 -0.219481 -0 0.49805 -0 0.49805)
(0.494927 -0.220134 -0 0.494927 -0 0.494927)
(0.491496 -0.220341 -0 0.491496 -0 0.491496)
(0.487681 -0.220108 -0 0.487681 -0 0.487681)
(0.483406 -0.219436 -0 0.483406 -0 0.483406)
(0.478599 -0.218318 -0 0.478599 -0 0.478599)
(0.473189 -0.216746 -0 0.473189 -0 0.473189)
(0.46711 -0.214709 -0 0.46711 -0 0.46711)
(0.460297 -0.212197 -0 0.460297 -0 0.460297)
(0.452686 -0.209196 -0 0.452686 -0 0.452686)
(0.444215 -0.205691 -0 0.444215 -0 0.444215)
(0.434815 -0.20166 -0 0.434815 -0 0.434815)
(0.424418 -0.197081 -0 0.424418 -0 0.424418)
(0.412946 -0.191923 -0 0.412946 -0 0.412946)
(0.400317 -0.186148 -0 0.400317 -0 0.400317)
(0.386436 -0.179709 -0 0.386436 -0 0.386436)
(0.3712 -0.172547 -0 0.3712 -0 0.3712)
(0.354496 -0.164591 -0 0.354496 -0 0.354496)
(0.336205 -0.155753 -0 0.336205 -0 0.336205)
(0.316209 -0.145928 -0 0.316209 -0 0.316209)
(0.294411 -0.134991 -0 0.294411 -0 0.294411)
(0.270772 -0.122793 -0 0.270772 -0 0.270772)
(0.245386 -0.109161 -0 0.245386 -0 0.245386)
(0.218625 -0.0938996 -0 0.218625 -0 0.218625)
(0.191397 -0.0768172 -0 0.191397 -0 0.191397)
(0.165529 -0.05777 -0 0.165529 -0 0.165529)
(0.144071 -0.0365763 -0 0.144071 -0 0.144071)
(0.131111 -0.0125894 -0 0.131111 -0 0.131111)
(0.131316 0.0132055 -0 0.131316 -0 0.131316)
(0.144637 0.0371792 -0 0.144637 -0 0.144637)
(0.166345 0.0583665 -0 0.166345 -0 0.166345)
(0.192356 0.0774026 -0 0.192356 -0 0.192356)
(0.219645 0.094467 -0 0.219645 -0 0.219645)
(0.24642 0.109707 -0 0.24642 -0 0.24642)
(0.271793 0.123318 -0 0.271793 -0 0.271793)
(0.295403 0.135493 -0 0.295403 -0 0.295403)
(0.317163 0.146407 -0 0.317163 -0 0.317163)
(0.337116 0.156208 -0 0.337116 -0 0.337116)
(0.355361 0.165023 -0 0.355361 -0 0.355361)
(0.372016 0.172955 -0 0.372016 -0 0.372016)
(0.387202 0.180092 -0 0.387202 -0 0.387202)
(0.401032 0.186506 -0 0.401032 -0 0.401032)
(0.413609 0.192256 -0 0.413609 -0 0.413609)
(0.425027 0.197387 -0 0.425027 -0 0.425027)
(0.43537 0.20194 -0 0.43537 -0 0.43537)
(0.444715 0.205943 -0 0.444715 -0 0.444715)
(0.453131 0.209422 -0 0.453131 -0 0.453131)
(0.460687 0.212395 -0 0.460687 -0 0.460687)
(0.467445 0.21488 -0 0.467445 -0 0.467445)
(0.473469 0.216888 -0 0.473469 -0 0.473469)
(0.478824 0.218433 -0 0.478824 -0 0.478824)
(0.483578 0.219524 -0 0.483578 -0 0.483578)
(0.487799 0.22017 -0 0.487799 -0 0.487799)
(0.491563 0.220376 -0 0.491563 -0 0.491563)
(0.494943 0.220144 -0 0.494943 -0 0.494943)
(0.498017 0.219468 -0 0.498017 -0 0.498017)
(0.500851 0.218325 -0 0.500851 -0 0.500851)
(0.503493 0.216668 -0 0.503493 -0 0.503493)
(0.505933 0.214398 -0 0.505933 -0 0.505933)
(0.508038 0.211319 -0 0.508038 -0 0.508038)
(0.509383 0.207039 -0 0.509383 -0 0.509383)
(0.508849 0.200751 -0 0.508849 -0 0.508849)
(0.503592 0.190776 -0 0.503592 -0 0.503592)
(0.486317 0.17358 -0 0.486317 -0 0.486317)
(0.438363 0.142945 -0 0.438363 -0 0.438363)
(0.314918 0.0826886 -0 0.314918 -0 0.314918)
(0.102195 0.00955042 -0 0.102195 -0 0.102195)
(0.00534304 8.04607e-05 -0 0.00534304 -0 0.00534304)
)
;

boundaryField
{
    lowerWall
    {
        type            calculated;
        value           uniform (6.66667e-11 -0 -0 6.66667e-11 -0 6.66667e-11);
    }
    upperWall
    {
        type            calculated;
        value           uniform (6.66667e-11 0 -0 6.66667e-11 -0 6.66667e-11);
    }
    front
    {
        type            cyclic;
    }
    back
    {
        type            cyclic;
    }
    defaultFaces
    {
        type            empty;
    }
}


// ************************************************************************* //
