/*--------------------------------*- C++ -*----------------------------------*\
  =========                 |
  \\      /  F ield         | OpenFOAM: The Open Source CFD Toolbox
   \\    /   O peration     | Website:  https://openfoam.org
    \\  /    A nd           | Version:  12
     \\/     M anipulation  |
\*---------------------------------------------------------------------------*/
FoamFile
{
    format      ascii;
    class       volVectorField;
    location    "500";
    object      U;
}
// * * * * * * * * * * * * * * * * * * * * * * * * * * * * * * * * * * * * * //

dimensions      [0 1 -1 0 0 0 0];

internalField   nonuniform List<vector> 
80
(
(0.631429 0 0)
(1.94195 0 0)
(3.09849 0 0)
(3.91526 0 0)
(4.49481 0 0)
(4.93336 0 0)
(5.28554 0 0)
(5.5829 0 0)
(5.84404 0 0)
(6.0803 0 0)
(6.29894 0 0)
(6.50478 0 0)
(6.70114 0 0)
(6.89042 0 0)
(7.07433 0 0)
(7.2542 0 0)
(7.43102 0 0)
(7.60558 0 0)
(7.77848 0 0)
(7.95024 0 0)
(8.12125 0 0)
(8.29183 0 0)
(8.46227 0 0)
(8.63278 0 0)
(8.80355 0 0)
(8.97473 0 0)
(9.14642 0 0)
(9.31869 0 0)
(9.49154 0 0)
(9.6649 0 0)
(9.8386 0 0)
(10.0123 0 0)
(10.1853 0 0)
(10.3566 0 0)
(10.5244 0 0)
(10.6857 0 0)
(10.8358 0 0)
(10.9671 0 0)
(11.0687 0 0)
(11.1272 0 0)
(11.1264 0 0)
(11.0665 0 0)
(10.9638 0 0)
(10.8318 0 0)
(10.6812 0 0)
(10.5195 0 0)
(10.3515 0 0)
(10.18 0 0)
(10.0069 0 0)
(9.83322 0 0)
(9.6595 0 0)
(9.48612 0 0)
(9.31328 0 0)
(9.14104 0 0)
(8.96939 0 0)
(8.79827 0 0)
(8.62756 0 0)
(8.45712 0 0)
(8.28676 0 0)
(8.11627 0 0)
(7.94536 0 0)
(7.77371 0 0)
(7.60092 0 0)
(7.42649 0 0)
(7.2498 0 0)
(7.07007 0 0)
(6.88631 0 0)
(6.69719 0 0)
(6.50098 0 0)
(6.29532 0 0)
(6.07686 0 0)
(5.84079 0 0)
(5.57985 0 0)
(5.28269 0 0)
(4.93072 0 0)
(4.49237 0 0)
(3.91305 0 0)
(3.09656 0 0)
(1.94057 0 0)
(0.630962 0 0)
)
;

boundaryField
{
    lowerWall
    {
        type            noSlip;
    }
    upperWall
    {
        type            noSlip;
    }
    front
    {
        type            cyclic;
    }
    back
    {
        type            cyclic;
    }
    defaultFaces
    {
        type            empty;
    }
}


// ************************************************************************* //
