#           v             n
     0.523599     0.0014072
     0.648652   0.000334876
     0.790112   0.000410066
     0.953116   0.000523382
      1.13449   0.000659283
      1.34047   0.000860577
      1.56672    0.00110207
      1.82069    0.00145118
      2.09677    0.00185921
      2.40376    0.00242536
      2.73462    0.00304505
      3.09966    0.00384579
      3.49026    0.00460956
      3.91837    0.00547479
      4.37366    0.00605995
      4.86986    0.00652101
       5.3948    0.00638313
      5.96412    0.00592124
      6.56366    0.00482401
      7.21112    0.00357937
      7.89023    0.00218803
      8.62085    0.00111475
      9.38447   0.000389545
      10.2033     7.777e-05
      11.0564             0
      11.9684             0
      12.9159             0
      13.9262             0
      14.9731             0
