/*--------------------------------*- C++ -*----------------------------------*\
  =========                 |
  \\      /  F ield         | OpenFOAM: The Open Source CFD Toolbox
   \\    /   O peration     | Website:  https://openfoam.org
    \\  /    A nd           | Version:  12
     \\/     M anipulation  |
\*---------------------------------------------------------------------------*/
FoamFile
{
    format      ascii;
    class       volScalarField;
    location    "1800";
    object      epsilon;
}
// * * * * * * * * * * * * * * * * * * * * * * * * * * * * * * * * * * * * * //

dimensions      [0 2 -3 0 0 0 0];

internalField   nonuniform List<scalar> 
80
(
348.646
136.818
77.7041
52.5467
38.9115
30.3809
24.5238
20.2366
16.9519
14.3505
12.2398
10.4973
9.04147
7.81564
6.77899
5.9008
5.15699
4.52793
3.9971
3.55022
3.17485
2.86009
2.59643
2.37566
2.19078
2.03586
1.90594
1.79688
1.70531
1.62842
1.56394
1.51001
1.46514
1.42809
1.39791
1.37382
1.35521
1.34163
1.33276
1.32837
1.32837
1.33276
1.34163
1.35521
1.37382
1.39792
1.4281
1.46514
1.51002
1.56394
1.62842
1.70531
1.79689
1.90594
2.03587
2.19079
2.37567
2.59643
2.8601
3.17486
3.55023
3.9971
4.52794
5.15699
5.9008
6.77899
7.81564
9.04146
10.4973
12.2398
14.3505
16.9519
20.2365
24.5237
30.3809
38.9115
52.5466
77.704
136.818
348.645
)
;

boundaryField
{
    lowerWall
    {
        type            epsilonWallFunction;
        value           uniform 348.646;
    }
    upperWall
    {
        type            epsilonWallFunction;
        value           uniform 348.645;
    }
    front
    {
        type            cyclic;
    }
    back
    {
        type            cyclic;
    }
    defaultFaces
    {
        type            empty;
    }
}


// ************************************************************************* //
