/*--------------------------------*- C++ -*----------------------------------*\
  =========                 |
  \\      /  F ield         | OpenFOAM: The Open Source CFD Toolbox
   \\    /   O peration     | Website:  https://openfoam.org
    \\  /    A nd           | Version:  12
     \\/     M anipulation  |
\*---------------------------------------------------------------------------*/
FoamFile
{
    format      ascii;
    class       volSymmTensorField;
    location    "1800";
    object      R;
}
// * * * * * * * * * * * * * * * * * * * * * * * * * * * * * * * * * * * * * //

dimensions      [0 2 -2 0 0 0 0];

internalField   nonuniform List<symmTensor> 
80
(
(0.444043 -0.615154 -0 0.444043 -0 0.444043)
(0.439004 -0.203363 -0 0.439004 -0 0.439004)
(0.413398 -0.187706 -0 0.413398 -0 0.413398)
(0.392424 -0.178846 -0 0.392424 -0 0.392424)
(0.373726 -0.171031 -0 0.373726 -0 0.373726)
(0.356233 -0.163508 -0 0.356233 -0 0.356233)
(0.339491 -0.156033 -0 0.339491 -0 0.339491)
(0.323319 -0.148528 -0 0.323319 -0 0.323319)
(0.307663 -0.140979 -0 0.307663 -0 0.307663)
(0.292537 -0.133402 -0 0.292537 -0 0.292537)
(0.277993 -0.125823 -0 0.277993 -0 0.277993)
(0.264105 -0.11828 -0 0.264105 -0 0.264105)
(0.250957 -0.110812 -0 0.250957 -0 0.250957)
(0.238632 -0.10346 -0 0.238632 -0 0.238632)
(0.227208 -0.0962625 -0 0.227208 -0 0.227208)
(0.216749 -0.089259 -0 0.216749 -0 0.216749)
(0.207298 -0.0824838 -0 0.207298 -0 0.207298)
(0.198873 -0.0759673 -0 0.198873 -0 0.198873)
(0.191468 -0.0697347 -0 0.191468 -0 0.191468)
(0.185049 -0.0638056 -0 0.185049 -0 0.185049)
(0.17956 -0.0581938 -0 0.17956 -0 0.17956)
(0.174929 -0.0529075 -0 0.174929 -0 0.174929)
(0.171071 -0.0479496 -0 0.171071 -0 0.171071)
(0.167898 -0.0433179 -0 0.167898 -0 0.167898)
(0.165319 -0.039006 -0 0.165319 -0 0.165319)
(0.16325 -0.0350031 -0 0.16325 -0 0.16325)
(0.16161 -0.0312953 -0 0.16161 -0 0.16161)
(0.160328 -0.0278658 -0 0.160328 -0 0.160328)
(0.15934 -0.0246957 -0 0.15934 -0 0.15934)
(0.158591 -0.0217647 -0 0.158591 -0 0.158591)
(0.158035 -0.0190512 -0 0.158035 -0 0.158035)
(0.15763 -0.0165335 -0 0.15763 -0 0.15763)
(0.157343 -0.0141894 -0 0.157343 -0 0.157343)
(0.157146 -0.0119971 -0 0.157146 -0 0.157146)
(0.157016 -0.0099351 -0 0.157016 -0 0.157016)
(0.156934 -0.00798213 -0 0.156934 -0 0.156934)
(0.156886 -0.00611758 -0 0.156886 -0 0.156886)
(0.156859 -0.00432124 -0 0.156859 -0 0.156859)
(0.156845 -0.00257331 -0 0.156845 -0 0.156845)
(0.15684 -0.000854293 -0 0.15684 -0 0.15684)
(0.15684 0.000855106 -0 0.15684 -0 0.15684)
(0.156845 0.00257412 -0 0.156845 -0 0.156845)
(0.156859 0.00432204 -0 0.156859 -0 0.156859)
(0.156886 0.00611837 -0 0.156886 -0 0.156886)
(0.156934 0.00798291 -0 0.156934 -0 0.156934)
(0.157016 0.00993586 -0 0.157016 -0 0.157016)
(0.157146 0.0119979 -0 0.157146 -0 0.157146)
(0.157343 0.0141901 -0 0.157343 -0 0.157343)
(0.15763 0.0165341 -0 0.15763 -0 0.15763)
(0.158035 0.0190519 -0 0.158035 -0 0.158035)
(0.158591 0.0217653 -0 0.158591 -0 0.158591)
(0.15934 0.0246963 -0 0.15934 -0 0.15934)
(0.160328 0.0278664 -0 0.160328 -0 0.160328)
(0.16161 0.0312959 -0 0.16161 -0 0.16161)
(0.16325 0.0350036 -0 0.16325 -0 0.16325)
(0.16532 0.0390065 -0 0.16532 -0 0.16532)
(0.167898 0.0433184 -0 0.167898 -0 0.167898)
(0.171071 0.04795 -0 0.171071 -0 0.171071)
(0.174929 0.0529079 -0 0.174929 -0 0.174929)
(0.17956 0.0581941 -0 0.17956 -0 0.17956)
(0.185049 0.0638059 -0 0.185049 -0 0.185049)
(0.191468 0.069735 -0 0.191468 -0 0.191468)
(0.198873 0.0759675 -0 0.198873 -0 0.198873)
(0.207298 0.082484 -0 0.207298 -0 0.207298)
(0.216749 0.0892591 -0 0.216749 -0 0.216749)
(0.227208 0.0962627 -0 0.227208 -0 0.227208)
(0.238632 0.10346 -0 0.238632 -0 0.238632)
(0.250957 0.110812 -0 0.250957 -0 0.250957)
(0.264105 0.11828 -0 0.264105 -0 0.264105)
(0.277993 0.125823 -0 0.277993 -0 0.277993)
(0.292537 0.133402 -0 0.292537 -0 0.292537)
(0.307663 0.140979 -0 0.307663 -0 0.307663)
(0.323319 0.148528 -0 0.323319 -0 0.323319)
(0.339491 0.156033 -0 0.339491 -0 0.339491)
(0.356232 0.163508 -0 0.356232 -0 0.356232)
(0.373726 0.171031 -0 0.373726 -0 0.373726)
(0.392424 0.178846 -0 0.392424 -0 0.392424)
(0.413398 0.187706 -0 0.413398 -0 0.413398)
(0.439003 0.203363 -0 0.439003 -0 0.439003)
(0.444042 0.615154 -0 0.444042 -0 0.444042)
)
;

boundaryField
{
    lowerWall
    {
        type            calculated;
        value           uniform (0.444043 -0.102198 -0 0.444043 -0 0.444043);
    }
    upperWall
    {
        type            calculated;
        value           uniform (0.444042 0.102198 -0 0.444042 -0 0.444042);
    }
    front
    {
        type            cyclic;
    }
    back
    {
        type            cyclic;
    }
    defaultFaces
    {
        type            empty;
    }
}


// ************************************************************************* //
