/*--------------------------------*- C++ -*----------------------------------*\
  =========                 |
  \\      /  F ield         | OpenFOAM: The Open Source CFD Toolbox
   \\    /   O peration     | Website:  https://openfoam.org
    \\  /    A nd           | Version:  12
     \\/     M anipulation  |
\*---------------------------------------------------------------------------*/
FoamFile
{
    format      ascii;
    class       volScalarField;
    location    "16.9";
    object      p_rgh;
}
// * * * * * * * * * * * * * * * * * * * * * * * * * * * * * * * * * * * * * //

dimensions      [1 -1 -2 0 0 0 0];

internalField   nonuniform List<scalar> 
3829
(
-1.58822
-1.58763
-1.58645
-1.58463
-1.58216
-1.57899
-1.57508
-1.57039
-1.56487
-1.55848
-1.55115
-1.54283
-1.53346
-1.52298
-1.51134
-1.49848
-1.48436
-1.46893
-1.45214
-1.43399
-1.41444
-1.39349
-1.37114
-1.34743
-1.32237
-1.29602
-1.26846
-1.23977
-1.21006
-1.17946
-1.14812
-1.11621
-1.08391
-1.05144
-1.01901
-0.986849
-0.955199
-0.924306
-0.894418
-0.865792
-0.838665
-0.813269
-0.789817
-0.768505
-0.749509
-0.732978
-0.719035
-0.707774
-0.699262
-0.693531
-0.690584
-0.690388
-0.692868
-0.697906
-0.705342
-0.714975
-0.726557
-0.739797
-0.754366
-0.769897
-0.785984
-0.802189
-0.818053
-0.833087
-0.846797
-0.858676
-0.868218
-0.874923
-0.878307
-0.877916
-0.873335
-0.864193
-0.850187
-0.831085
-0.80672
-0.777059
-0.74169
-0.700974
-0.655249
-0.604864
-0.550237
-0.491881
-0.42963
-0.365809
-0.300576
-0.234815
-0.169547
-0.105848
-0.0448192
0.0124159
0.0647465
0.111112
0.150521
0.182092
0.205117
0.218966
0.222283
0.21532
0.198358
0.171811
0.136265
0.092495
0.0415465
-0.0152587
-0.0763668
-0.140041
-0.204187
-0.266859
-0.325957
-0.379404
-0.425221
-0.461613
-0.487052
-0.500345
-0.500728
-0.487011
-0.459856
-0.420148
-0.36908
-0.308326
-0.240076
-0.166829
-0.0919105
-0.0184396
0.0503607
0.111226
0.16118
0.197653
0.218696
0.223194
0.209174
0.178302
0.132268
0.0733132
0.00464022
-0.0698137
-0.145661
-0.217855
-0.281797
-0.333164
-0.36827
-0.384493
-0.380534
-0.354872
-0.31037
-0.250163
-0.178528
-0.100682
-0.0221103
0.0486914
0.106876
0.147187
0.165929
0.161362
0.132884
0.0838988
0.0190331
-0.0558385
-0.133398
-0.203185
-0.258723
-0.293523
-0.30316
-0.282786
-0.236715
-0.169698
-0.0882155
0.00586073
0.0867063
0.152212
0.194306
0.207572
0.188038
0.140399
0.070854
-0.0121331
-0.0970075
-0.170634
-0.224332
-0.25115
-0.244018
-0.209867
-0.15554
-0.090511
-0.0284704
0.0185178
0.0419426
0.0369935
0.00353162
-0.0506286
-0.11468
-0.174651
-0.217194
-0.233709
-0.207956
-0.150699
-0.0758956
0.00232847
0.0665434
0.103183
-1.63984
-1.63949
-1.63877
-1.63765
-1.63608
-1.63402
-1.63139
-1.62811
-1.6241
-1.61926
-1.61347
-1.60662
-1.5986
-1.58928
-1.57854
-1.56626
-1.55232
-1.53662
-1.51907
-1.49957
-1.47807
-1.45451
-1.42888
-1.40118
-1.37144
-1.33973
-1.30614
-1.27082
-1.2339
-1.1956
-1.15614
-1.11578
-1.0748
-1.03352
-0.992258
-0.95136
-0.911172
-0.872022
-0.834145
-0.798585
-0.765499
-0.735123
-0.707683
-0.683373
-0.662359
-0.644787
-0.63077
-0.620403
-0.613748
-0.610828
-0.611626
-0.616078
-0.624075
-0.635461
-0.650021
-0.66748
-0.687504
-0.709706
-0.733645
-0.758836
-0.784754
-0.81083
-0.836464
-0.861025
-0.883877
-0.904382
-0.921897
-0.935783
-0.945456
-0.950335
-0.949901
-0.943677
-0.931268
-0.91236
-0.886724
-0.854207
-0.814818
-0.768763
-0.716324
-0.657904
-0.594032
-0.525352
-0.452615
-0.376785
-0.299244
-0.220961
-0.143185
-0.0672553
0.00546263
0.0735823
0.135738
0.190607
0.236933
0.27366
0.299805
0.314661
0.316985
0.306964
0.284806
0.250906
0.205925
0.150836
0.0869792
0.0160069
-0.0601555
-0.139441
-0.219105
-0.296814
-0.369982
-0.436055
-0.492596
-0.53741
-0.568666
-0.584876
-0.584819
-0.567887
-0.534551
-0.485687
-0.422786
-0.347957
-0.263988
-0.174043
-0.0820316
0.00799203
0.0921051
0.166287
0.226857
0.270681
0.295352
0.299273
0.281185
0.242456
0.184892
0.111397
0.0260165
-0.0663486
-0.160329
-0.249478
-0.328246
-0.39126
-0.433962
-0.453045
-0.446822
-0.414785
-0.359431
-0.284519
-0.195571
-0.0991587
-0.00241457
0.0848361
0.156238
0.20531
0.227453
0.22026
0.184101
0.122486
0.0412479
-0.0521729
-0.148571
-0.235215
-0.303988
-0.346809
-0.358192
-0.334128
-0.278403
-0.196662
-0.0972413
0.0164042
0.114575
0.193764
0.243991
0.258479
0.234396
0.175925
0.0909074
-0.0100431
-0.112171
-0.200066
-0.262666
-0.291108
-0.281102
-0.237325
-0.168754
-0.0873866
-0.0106742
0.0470886
0.0752678
0.0679718
0.0268225
-0.0399485
-0.118865
-0.193366
-0.244734
-0.261442
-0.236974
-0.167546
-0.0791652
0.0137433
0.0903617
0.134218
-1.71689
-1.71734
-1.71822
-1.71949
-1.72106
-1.72281
-1.72461
-1.72628
-1.72762
-1.7284
-1.72834
-1.72716
-1.72455
-1.72021
-1.71386
-1.7052
-1.69392
-1.67975
-1.66243
-1.64173
-1.61747
-1.58954
-1.55787
-1.52245
-1.48336
-1.44073
-1.39475
-1.34569
-1.29386
-1.23964
-1.18347
-1.12585
-1.0673
-1.00842
-0.949791
-0.892026
-0.835783
-0.781753
-0.730785
-0.682522
-0.637674
-0.59674
-0.560173
-0.528382
-0.501723
-0.480491
-0.464913
-0.455143
-0.451261
-0.453273
-0.461101
-0.474589
-0.493494
-0.51749
-0.546179
-0.579101
-0.61572
-0.655438
-0.697598
-0.741484
-0.786326
-0.831302
-0.87557
-0.91824
-0.958332
-0.995097
-1.02759
-1.05494
-1.0763
-1.09091
-1.09807
-1.09717
-1.08776
-1.06946
-1.04216
-1.00338
-0.955596
-0.898797
-0.833227
-0.759367
-0.677922
-0.589818
-0.496165
-0.398193
-0.297459
-0.195646
-0.0944019
0.00446672
0.0991098
0.187628
0.268142
0.338876
0.398179
0.444469
0.476505
0.493379
0.493699
0.477686
0.445483
0.397523
0.334685
0.258318
0.170239
0.0726868
-0.0317373
-0.140177
-0.248893
-0.354651
-0.454
-0.543507
-0.619921
-0.680237
-0.721938
-0.743129
-0.742473
-0.719278
-0.673935
-0.607565
-0.522217
-0.420891
-0.307371
-0.185934
-0.062062
0.0588708
0.171526
0.270496
0.350797
0.408157
0.439324
0.442058
0.415948
0.36198
0.282501
0.181591
0.0647665
-0.0612266
-0.189379
-0.310225
-0.416587
-0.501138
-0.557748
-0.582113
-0.571667
-0.527083
-0.450827
-0.348041
-0.226423
-0.0950349
0.0357677
0.153761
0.24973
0.314889
0.343028
0.330856
0.27982
0.194121
0.081945
-0.0463977
-0.178078
-0.296259
-0.389756
-0.447528
-0.462249
-0.43052
-0.356018
-0.246367
-0.11315
0.0367776
0.167291
0.271826
0.337003
0.353994
0.320528
0.241188
0.127
-0.00753568
-0.141849
-0.256243
-0.335501
-0.367961
-0.350851
-0.288216
-0.192607
-0.0804231
0.0236305
0.101191
0.137951
0.126488
0.0701975
-0.0201756
-0.126229
-0.230028
-0.298015
-0.319432
-0.292813
-0.198105
-0.0858321
0.0347803
0.134606
0.191969
-1.75752
-1.76021
-1.76557
-1.77354
-1.78394
-1.79649
-1.81082
-1.82644
-1.84281
-1.85937
-1.87551
-1.89056
-1.90379
-1.91446
-1.92177
-1.92497
-1.92334
-1.91624
-1.90308
-1.88338
-1.85678
-1.82304
-1.78205
-1.73385
-1.67863
-1.6167
-1.54851
-1.4746
-1.39565
-1.31244
-1.22589
-1.13696
-1.04665
-0.955991
-0.865971
-0.7775
-0.691338
-0.607946
-0.534468
-0.466986
-0.405917
-0.35176
-0.304958
-0.26591
-0.234967
-0.212423
-0.198489
-0.193288
-0.196851
-0.20909
-0.229823
-0.258771
-0.295548
-0.339656
-0.390489
-0.44734
-0.509398
-0.575765
-0.645472
-0.717476
-0.790651
-0.863817
-0.935761
-1.0052
-1.0709
-1.1316
-1.18604
-1.233
-1.27132
-1.2999
-1.31773
-1.32395
-1.31775
-1.29846
-1.26556
-1.22045
-1.16191
-1.09014
-1.00568
-0.909386
-0.802329
-0.685869
-0.5616
-0.43133
-0.296284
-0.160328
-0.0249751
0.10722
0.233668
0.351771
0.458963
0.552709
0.630657
0.690872
0.731556
0.751124
0.74846
0.723589
0.676581
0.608003
0.519113
0.411847
0.288732
0.152874
0.00771675
-0.144355
-0.294818
-0.440865
-0.577827
-0.701009
-0.805984
-0.888569
-0.945302
-0.973444
-0.971502
-0.938739
-0.875438
-0.783175
-0.664962
-0.524977
-0.368438
-0.201467
-0.03136
0.134356
0.288307
0.422972
0.531623
0.608303
0.648567
0.649772
0.611389
0.534648
0.4229
0.281914
0.119446
-0.0553895
-0.233778
-0.400479
-0.54654
-0.662081
-0.73867
-0.770212
-0.753675
-0.690118
-0.582793
-0.439154
-0.269915
-0.0874428
0.0929577
0.255415
0.386764
0.474836
0.511064
0.491747
0.418436
0.297191
0.139816
-0.0393538
-0.222209
-0.386061
-0.515254
-0.594529
-0.613786
-0.570392
-0.467925
-0.317429
-0.135024
0.0671683
0.244381
0.385419
0.471946
0.492017
0.444143
0.333956
0.177237
-0.00597515
-0.186689
-0.33915
-0.442156
-0.48039
-0.451716
-0.361092
-0.226025
-0.0683986
0.0749605
0.1806
0.229145
0.211474
0.132429
0.00784843
-0.134539
-0.287008
-0.375112
-0.405255
-0.372324
-0.243877
-0.0970043
0.0644316
0.197866
0.274788
-1.69295
-1.70045
-1.71562
-1.73841
-1.76853
-1.80517
-1.84761
-1.89482
-1.94556
-1.99831
-2.05145
-2.10326
-2.15203
-2.19607
-2.23375
-2.26354
-2.28412
-2.29418
-2.29256
-2.27837
-2.25092
-2.20974
-2.1547
-2.08597
-2.00405
-1.90977
-1.80423
-1.68883
-1.5652
-1.43514
-1.30052
-1.16332
-1.02554
-0.889146
-0.756048
-0.628035
-0.506864
-0.394603
-0.286577
-0.188083
-0.100162
-0.0236734
0.0406664
0.092301
0.130837
0.156033
0.167794
0.166173
0.151375
0.123733
0.0837239
0.0319501
-0.0308558
-0.103836
-0.18602
-0.276342
-0.373611
-0.476536
-0.583731
-0.693726
-0.80496
-0.915727
-1.02449
-1.12943
-1.22881
-1.32093
-1.40409
-1.47664
-1.537
-1.58369
-1.61544
-1.63104
-1.6295
-1.60992
-1.57154
-1.51493
-1.43996
-1.34696
-1.23664
-1.11012
-0.968862
-0.81466
-0.649692
-0.47642
-0.2975
-0.116327
0.0639913
0.240043
0.408323
0.565225
0.70722
0.830996
0.933445
1.01174
1.06334
1.08623
1.07961
1.04298
0.976339
0.880518
0.757341
0.609523
0.440638
0.255135
0.0582829
-0.155012
-0.358406
-0.556388
-0.742106
-0.909053
-1.05101
-1.16249
-1.2386
-1.27573
-1.27148
-1.2255
-1.13809
-1.01146
-0.849826
-0.658912
-0.445902
-0.219248
0.011339
0.235521
0.443222
0.624356
0.769609
0.871221
0.923206
0.921505
0.866489
0.759305
0.60483
0.411128
0.189099
-0.0480231
-0.296804
-0.521355
-0.718731
-0.874465
-0.976852
-1.01763
-0.992481
-0.903283
-0.754579
-0.556765
-0.324674
-0.0753967
0.170129
0.39067
0.567975
0.685713
0.732555
0.702798
0.599399
0.430983
0.213917
-0.0319773
-0.281812
-0.505316
-0.680899
-0.788008
-0.812815
-0.753268
-0.613395
-0.408926
-0.161926
0.108167
0.346012
0.534255
0.648044
0.671761
0.603941
0.452775
0.24016
-0.00664389
-0.247621
-0.449187
-0.582535
-0.627771
-0.582696
-0.455049
-0.268326
-0.0497565
0.144239
0.28543
0.348614
0.322144
0.212681
0.0416533
-0.159088
-0.349157
-0.47326
-0.514856
-0.465117
-0.313398
-0.113491
0.102092
0.279199
0.381566
-1.381
-1.397
-1.42976
-1.48002
-1.5559
-1.64361
-1.74274
-1.85184
-1.96895
-2.09154
-2.21692
-2.34187
-2.46304
-2.57688
-2.68037
-2.76887
-2.83947
-2.88906
-2.91502
-2.91538
-2.88899
-2.83545
-2.75509
-2.6489
-2.51849
-2.36602
-2.19439
-2.00681
-1.80695
-1.59834
-1.38475
-1.16984
-0.957146
-0.749626
-0.549766
-0.359551
-0.180687
-0.020584
0.124632
0.253514
0.365407
0.459708
0.53591
0.593634
0.632667
0.652978
0.654709
0.638158
0.603782
0.55218
0.484105
0.40046
0.302313
0.190872
0.0674966
-0.0663287
-0.208957
-0.358625
-0.513449
-0.671441
-0.830492
-0.988462
-1.14309
-1.2921
-1.4332
-1.56409
-1.68254
-1.78642
-1.87363
-1.94228
-1.99069
-2.01745
-2.02152
-2.00273
-1.95467
-1.88331
-1.78774
-1.66816
-1.52551
-1.36127
-1.17738
-0.976255
-0.760795
-0.53432
-0.300534
-0.0635306
0.172352
0.402523
0.622271
0.826896
1.01182
1.17256
1.30487
1.40493
1.46965
1.49676
1.48511
1.43368
1.34248
1.21274
1.04699
0.848793
0.622832
0.374808
0.111137
-0.165868
-0.43737
-0.700433
-0.946571
-1.16726
-1.35443
-1.50092
-1.60052
-1.64811
-1.6406
-1.57771
-1.46004
-1.29067
-1.07524
-0.821292
-0.538525
-0.238215
0.0667973
0.362714
0.636294
0.874166
1.0642
1.19595
1.26143
1.25611
1.17981
1.03435
0.826487
0.566979
0.270001
-0.0477383
-0.371482
-0.671188
-0.9327
-1.13783
-1.2715
-1.323
-1.28698
-1.16536
-0.964887
-0.699841
-0.389947
-0.0577469
0.267961
0.559845
0.793504
0.94732
1.00634
0.962983
0.821599
0.594442
0.303273
-0.0253054
-0.35754
-0.654336
-0.886608
-1.02727
-1.05853
-0.977987
-0.791207
-0.519776
-0.193048
0.160242
0.472336
0.717764
0.864186
0.891794
0.798246
0.59593
0.314369
-0.0108474
-0.325321
-0.586244
-0.755739
-0.808757
-0.742231
-0.568946
-0.319588
-0.022377
0.231946
0.415222
0.49531
0.457424
0.3106
0.0832638
-0.186982
-0.429784
-0.593856
-0.649094
-0.582493
-0.393461
-0.133162
0.145728
0.377555
0.511076
-0.888034
-0.92472
-0.998415
-1.10852
-1.24472
-1.40781
-1.60741
-1.83592
-2.08589
-2.34617
-2.61
-2.86814
-3.11296
-3.337
-3.53415
-3.69898
-3.8272
-3.91538
-3.96102
-3.9623
-3.91809
-3.82782
-3.69203
-3.51206
-3.291
-3.03314
-2.74502
-2.43454
-2.11032
-1.77908
-1.44806
-1.12344
-0.810028
-0.511522
-0.23066
0.0315085
0.259776
0.470648
0.659468
0.824182
0.963542
1.07688
1.16395
1.22484
1.25982
1.26938
1.25413
1.21481
1.15233
1.06772
0.962166
0.837003
0.693735
0.533986
0.359574
0.172441
-0.025288
-0.231316
-0.443242
-0.658501
-0.874422
-1.0882
-1.297
-1.49786
-1.68783
-1.86402
-2.02359
-2.16371
-2.2817
-2.37514
-2.44182
-2.47973
-2.48707
-2.46186
-2.40822
-2.3214
-2.20201
-2.051
-1.86989
-1.66074
-1.42613
-1.16925
-0.893881
-0.60435
-0.305413
-0.00238837
0.299099
0.593064
0.873532
1.13448
1.36986
1.57384
1.74103
1.86674
1.94697
1.97875
1.96078
1.89141
1.77086
1.60081
1.38457
1.12682
0.833567
0.512139
0.170995
-0.184055
-0.534411
-0.873522
-1.19029
-1.47372
-1.71368
-1.90078
-2.02735
-2.08711
-2.07506
-1.99155
-1.83759
-1.6174
-1.33817
-1.00979
-0.644773
-0.257461
0.135129
0.515452
0.866435
1.17071
1.41276
1.57936
1.66051
1.65026
1.54796
1.35663
1.08522
0.747723
0.362396
-0.0492012
-0.464059
-0.850866
-1.18745
-1.45044
-1.62047
-1.68383
-1.63421
-1.47342
-1.2113
-0.866391
-0.464109
-0.0341002
0.386256
0.762166
1.06183
1.25725
1.32893
1.26945
1.08264
0.785432
0.406419
-0.02002
-0.44938
-0.832336
-1.13095
-1.31036
-1.3488
-1.24205
-0.999122
-0.648127
-0.227471
0.223426
0.622454
0.934536
1.11845
1.14932
1.02436
0.76114
0.397973
-0.0192166
-0.419559
-0.749383
-0.960118
-1.02095
-0.927764
-0.700734
-0.38128
0.0170103
0.337525
0.568589
0.667413
0.615416
0.424936
0.133143
-0.220854
-0.526474
-0.735694
-0.806284
-0.721357
-0.484074
-0.15526
0.193967
0.491827
0.661572
0.518621
0.460499
0.344015
0.167985
-0.0708236
-0.392104
-0.762963
-1.1774
-1.62328
-2.08243
-2.54248
-2.99143
-3.42103
-3.82087
-4.18177
-4.4953
-4.75391
-4.95079
-5.08016
-5.13664
-5.11659
-5.01776
-4.83984
-4.58431
-4.25599
-3.86182
-3.41342
-2.92789
-2.4241
-1.92056
-1.42973
-0.959949
-0.517299
-0.105808
0.262487
0.592096
0.896313
1.16286
1.39154
1.58302
1.73827
1.85816
1.94358
1.99549
2.01485
2.00264
1.95995
1.88789
1.78771
1.6608
1.50866
1.33297
1.13559
0.918566
0.684156
0.434791
0.173142
-0.0979714
-0.375537
-0.656425
-0.937335
-1.21473
-1.48506
-1.74468
-1.98998
-2.21734
-2.42317
-2.60408
-2.75676
-2.87811
-2.96542
-3.01629
-3.0287
-3.00126
-2.93471
-2.82718
-2.67892
-2.491
-2.26529
-2.00436
-1.71147
-1.39064
-1.04668
-0.685069
-0.311754
0.066553
0.442737
0.809372
1.15896
1.4838
1.77631
2.02932
2.23615
2.39091
2.48863
2.52531
2.49961
2.40937
2.25501
2.03882
1.7649
1.43917
1.06928
0.664464
0.23526
-0.20868
-0.648553
-1.07372
-1.47026
-1.82459
-2.124
-2.35669
-2.51313
-2.58588
-2.56814
-2.46076
-2.26507
-1.98654
-1.63432
-1.22101
-0.76235
-0.276109
0.216061
0.692053
1.13048
1.50988
1.81069
2.01637
2.11459
2.09776
1.96521
1.7212
1.37708
0.950498
0.464769
-0.0533954
-0.57344
-1.0587
-1.48007
-1.80817
-2.01888
-2.09522
-2.02914
-1.8231
-1.4901
-1.05348
-0.54606
-0.00400351
0.523983
0.995271
1.36938
1.6114
1.69761
1.6181
1.37861
1.00091
0.52137
-0.0167469
-0.556478
-1.0371
-1.41059
-1.63347
-1.67892
-1.54133
-1.23367
-0.791758
-0.263982
0.297376
0.794485
1.18142
1.40673
1.44031
1.27859
0.945386
0.489294
-0.0322805
-0.529528
-0.936498
-1.19267
-1.26065
-1.13566
-0.846714
-0.454868
0.0712143
0.458584
0.743075
0.862386
0.793474
0.553473
0.192341
-0.263165
-0.636826
-0.896196
-0.983529
-0.877737
-0.585136
-0.178898
0.25424
0.620847
0.830658
2.62569
2.50781
2.27078
1.91202
1.43262
0.839154
0.0894139
-0.819142
-1.71462
-2.5826
-3.44622
-4.28041
-5.07908
-5.78416
-6.39096
-6.89189
-7.28099
-7.55366
-7.70629
-7.73593
-7.64
-7.41613
-7.06583
-6.58762
-5.98847
-5.27652
-4.46651
-3.59648
-2.73642
-1.93342
-1.20246
-0.535082
0.0508882
0.562608
1.01757
1.41522
1.76122
2.05714
2.30449
2.50526
2.66125
2.77426
2.84598
2.87784
2.87129
2.82769
2.74838
2.6348
2.48848
2.31104
2.10433
1.87035
1.61131
1.3296
1.02793
0.709162
0.376502
0.0333224
-0.316771
-0.669981
-1.02231
-1.36952
-1.70732
-2.03128
-2.33702
-2.62017
-2.87641
-3.1016
-3.29173
-3.44311
-3.55248
-3.61696
-3.63423
-3.60279
-3.52183
-3.39067
-3.20975
-2.98035
-2.70472
-2.38602
-2.02826
-1.63639
-1.21634
-0.774797
-0.319133
0.142411
0.601187
1.04807
1.47385
1.86904
2.22451
2.53152
2.78189
2.96847
3.08512
3.1271
3.09227
2.97851
2.78648
2.51901
2.18122
1.78029
1.32566
0.828844
0.302671
-0.239789
-0.778084
-1.29785
-1.7821
-2.21427
-2.57865
-2.86101
-3.04944
-3.13499
-3.11121
-2.97715
-2.73499
-2.39166
-1.95851
-1.45112
-0.888978
-0.293493
0.3084
0.889674
1.42435
1.88607
2.25106
2.49919
2.61534
2.59084
2.42433
2.12162
1.69684
1.17171
0.574801
-0.0611353
-0.697569
-1.29116
-1.80584
-2.20544
-2.46036
-2.55002
-2.46509
-2.20842
-1.79631
-1.25783
-0.633308
0.0318938
0.679038
1.25539
1.71125
2.00418
2.10589
2.00296
1.70424
1.2368
0.645581
-0.0157124
-0.677239
-1.26533
-1.72081
-1.99099
-2.04322
-1.87057
-1.49057
-0.9478
-0.301707
0.381106
0.985743
1.45423
1.72413
1.75947
1.55628
1.14518
0.586533
-0.050534
-0.653698
-1.14449
-1.44932
-1.52344
-1.36173
-1.00117
-0.511633
0.11265
0.590599
0.935483
1.0765
0.988284
0.692665
0.254507
-0.308529
-0.757703
-1.07212
-1.17746
-1.04852
-0.695007
-0.204116
0.320341
0.761906
1.01524
5.98989
5.83427
5.52195
5.04012
4.37365
3.50999
2.45551
0.891513
-0.962103
-2.60053
-3.99553
-5.22989
-6.31485
-7.27515
-8.09682
-8.7747
-9.30652
-9.6895
-9.91979
-9.99271
-9.90185
-9.63456
-9.18802
-8.54499
-7.70697
-6.68501
-5.39306
-3.83942
-2.5438
-1.46415
-0.568916
0.213655
0.903055
1.50602
2.0289
2.47349
2.84265
3.14536
3.38852
3.57702
3.71465
3.80425
3.84801
3.84768
3.80473
3.72059
3.59667
3.4344
3.23533
3.00123
2.73407
2.43605
2.10968
1.75771
1.38322
0.989538
0.58041
0.159785
-0.268147
-0.698877
-1.12766
-1.5495
-1.95934
-2.35194
-2.7221
-3.06462
-3.3744
-3.6465
-3.87619
-4.05916
-4.19156
-4.26995
-4.29162
-4.25449
-4.15767
-4.00064
-3.78402
-3.5094
-3.17948
-2.79813
-2.37015
-1.90148
-1.39924
-0.871454
-0.327025
0.224207
0.771893
1.30508
1.81267
2.28344
2.70647
3.07132
3.36823
3.58867
3.72533
3.7726
3.72761
3.5882
3.35535
3.03243
2.6257
2.14377
1.59791
1.00199
0.371682
-0.27705
-0.920891
-1.54206
-2.12028
-2.63568
-3.06939
-3.4046
-3.62695
-3.72567
-3.6947
-3.53136
-3.23867
-2.82517
-2.30464
-1.69587
-1.02217
-0.309173
0.410385
1.1048
1.74269
2.2925
2.72585
3.0189
3.15379
3.12044
2.91681
2.55047
2.03839
1.40675
0.690043
-0.0724451
-0.834019
-1.54412
-2.15879
-2.63483
-2.93677
-3.04029
-2.93418
-2.62224
-2.12422
-1.47574
-0.724825
0.07376
0.848856
1.53793
2.0813
2.42837
2.54508
2.41663
2.05342
1.48872
0.776814
-0.0172648
-0.809738
-1.51306
-2.05613
-2.37624
-2.43488
-2.22356
-1.76493
-1.1131
-0.339775
0.473241
1.19292
1.74817
2.06495
2.10093
1.8522
1.35656
0.6875
-0.0735824
-0.7898
-1.36962
-1.72537
-1.80458
-1.60191
-1.16245
-0.566469
0.15658
0.732641
1.14254
1.30662
1.19621
0.839059
0.308934
-0.347012
-0.886129
-1.26021
-1.38447
-1.2303
-0.81176
-0.230665
0.390455
0.912161
1.21179
10.4612
10.2634
9.85081
9.18123
8.19146
6.77391
4.74868
2.22377
-0.826597
-3.47889
-5.75919
-7.70287
-9.32125
-10.6692
-11.776
-12.6587
-13.3272
-13.787
-14.0398
-14.0834
-13.9106
-13.5046
-12.8546
-11.9236
-10.6726
-9.04117
-6.8943
-4.13671
-2.19835
-0.587209
0.653507
1.58865
2.32444
2.91382
3.39374
3.78752
4.11255
4.37627
4.58381
4.7385
4.84254
4.89748
4.90459
4.865
4.77978
4.65002
4.47683
4.26154
4.00569
3.71105
3.3797
3.01401
2.61672
2.19092
1.74006
1.26794
0.778823
0.277231
-0.231972
-0.743597
-1.25215
-1.75183
-2.23676
-2.70085
-3.13804
-3.54228
-3.90765
-4.22837
-4.49896
-4.71437
-4.87012
-4.9623
-4.98774
-4.94402
-4.82994
-4.64516
-4.39047
-4.06778
-3.68031
-3.2326
-2.73035
-2.18057
-1.59162
-0.972941
-0.334989
0.310667
0.951879
1.57577
2.16931
2.71944
3.21332
3.63871
3.98426
4.23998
4.39733
4.44987
4.3938
4.22712
3.95101
3.56953
3.08999
2.52272
1.8809
1.18075
0.440832
-0.319747
-1.07433
-1.80185
-2.47846
-3.08085
-3.58708
-3.97741
-4.23518
-4.34761
-4.30801
-4.11311
-3.76674
-3.279
-2.66625
-1.95066
-1.15938
-0.322995
0.520281
1.33342
2.07943
2.72143
3.22628
3.56599
3.72003
3.6766
3.43341
2.99963
2.39532
1.65157
0.808564
-0.0871327
-0.980361
-1.81283
-2.53232
-3.08832
-3.43933
-3.55685
-3.42773
-3.05681
-2.46782
-1.7028
-0.818984
0.12068
1.03016
1.83765
2.47272
2.87595
3.00728
2.85149
2.41978
1.75193
0.912522
-0.0215706
-0.951603
-1.77575
-2.41031
-2.78204
-2.84646
-2.59369
-2.05153
-1.28428
-0.377492
0.572139
1.41213
2.0578
2.42284
2.45837
2.16082
1.57557
0.789878
-0.100649
-0.935279
-1.60765
-2.01569
-2.09889
-1.85198
-1.32854
-0.622318
0.206148
0.883018
1.36058
1.54822
1.41345
0.990593
0.364422
-0.387722
-1.02045
-1.45704
-1.60071
-1.41951
-0.933348
-0.258148
0.463289
1.06872
1.4166
15.4994
15.3574
15.0734
14.6488
14.1118
13.4875
12.9844
12.4905
1.7493
2.30231
2.56073
3.0313
3.52837
4.0175
4.45566
4.84722
5.17639
5.44789
5.66435
5.82838
5.94139
6.00454
6.01854
5.98386
5.90087
5.77001
5.59183
5.36709
5.09681
4.78235
4.42543
4.02815
3.59303
3.12305
2.62159
2.0925
1.54004
0.969023
0.384547
-0.207835
-0.802231
-1.39238
-1.97168
-2.53339
-3.07054
-3.5762
-4.04344
-4.46546
-4.83566
-5.14775
-5.39593
-5.57512
-5.68086
-5.70955
-5.65834
-5.52593
-5.31203
-5.01762
-4.64491
-4.19768
-3.6812
-3.10204
-2.46834
-1.78975
-1.07719
-0.342683
0.400403
1.13804
1.85539
2.53748
3.16926
3.73597
4.22352
4.61891
4.91064
5.089
5.1466
5.07886
4.8838
4.56282
4.12068
3.56588
2.91043
2.16957
1.36199
0.509027
-0.366837
-1.23541
-2.07227
-2.84999
-3.54169
-4.12227
-4.56908
-4.86311
-4.98958
-4.94015
-4.71191
-4.30969
-3.74503
-3.03691
-2.21089
-1.29824
-0.334864
0.635928
1.57124
2.42846
3.16506
3.74313
4.13051
4.30369
4.24922
3.96479
3.46108
2.76138
1.9015
0.928517
-0.104895
-1.13383
-2.09223
-2.91961
-3.55771
-3.95889
-4.09018
-3.93679
-3.50432
-2.82097
-1.93493
-0.913273
0.170854
1.21949
2.14902
2.87831
3.33891
3.48518
3.29987
2.79669
2.02163
1.05019
-0.0284318
-1.1002
-2.04858
-2.77691
-3.20115
-3.27058
-2.97429
-2.34525
-1.45844
-0.414045
0.675964
1.63936
2.37748
2.79134
2.82542
2.47667
1.79839
0.89267
-0.131826
-1.08741
-1.8542
-2.31503
-2.40123
-2.1077
-1.49697
-0.678288
0.260385
1.0393
1.58571
1.79675
1.63619
1.14493
0.421023
-0.430963
-1.15864
-1.65914
-1.82235
-1.6127
-1.05767
-0.286101
0.537652
1.22881
1.62603
21.091
21.0476
20.9663
20.8512
20.7298
20.6141
20.5292
20.4461
4.56577
4.92888
5.24339
5.42487
5.66061
5.90603
6.14971
6.38879
6.60914
6.80127
6.95554
7.06797
7.1356
7.15649
7.12923
7.05293
6.92685
6.75064
6.52428
6.24814
5.92296
5.54994
5.13073
4.66747
4.16281
3.61995
3.04258
2.43496
1.80183
1.14854
0.480782
-0.195196
-0.872793
-1.54497
-2.20429
-2.84317
-3.45374
-4.02817
-4.55865
-5.0375
-5.45725
-5.8108
-6.09162
-6.29397
-6.41289
-6.44464
-6.38491
-6.23341
-5.98956
-5.65446
-5.23068
-4.72255
-4.13607
-3.47873
-2.75976
-1.99014
-1.1823
-0.349875
0.491985
1.32732
2.13931
2.911
3.62535
4.26562
4.81592
5.26151
5.58945
5.78879
5.85122
5.7714
5.54734
5.18064
4.67682
4.04556
3.30058
2.45925
1.54282
0.575351
-0.417211
-1.40111
-2.34854
-3.22838
-4.01025
-4.66579
-5.16947
-5.49998
-5.64041
-5.58038
-5.31778
-4.85843
-4.21555
-3.41055
-2.47228
-1.43664
-0.344805
0.755144
1.81404
2.78366
3.61577
4.26753
4.70277
4.89486
4.82873
4.5021
3.92713
3.13034
2.1526
1.04751
-0.124841
-1.29149
-2.37738
-3.31391
-4.03489
-4.48653
-4.63136
-4.45275
-3.95734
-3.17776
-2.16863
-1.00676
0.223901
1.41353
2.46659
3.29102
3.80934
3.96949
3.7542
3.17777
2.29335
1.18756
-0.0375728
-1.25283
-2.32681
-3.14965
-3.62643
-3.70013
-3.359
-2.64127
-1.63278
-0.448906
0.782787
1.87068
2.70178
3.16428
3.19603
2.79466
2.02142
0.993915
-0.165919
-1.24339
-2.10502
-2.61836
-2.70663
-2.36503
-1.66517
-0.733274
0.317792
1.19885
1.81415
2.04813
1.86082
1.29975
0.477722
-0.475903
-1.29853
-1.86317
-2.0458
-1.80684
-1.18256
-0.314075
0.6124
1.3898
1.83665
26.2009
26.1749
26.1235
26.042
25.9377
25.8087
25.6927
25.5265
6.42562
6.52055
6.57233
6.7811
7.07368
7.34477
7.57392
7.77402
7.94507
8.08659
8.19392
8.26327
8.29058
8.27272
8.20699
8.09138
7.92431
7.70471
7.43202
7.10617
6.72765
6.29748
5.81726
5.2892
4.71608
4.10136
3.44905
2.76384
2.05094
1.31626
0.566072
-0.192663
-0.952641
-1.70606
-2.44463
-3.15994
-3.84323
-4.48576
-5.07884
-5.61389
-6.0826
-6.47703
-6.78991
-7.01483
-7.14612
-7.17889
-7.11174
-6.94103
-6.66691
-6.29085
-5.81579
-5.24661
-4.59005
-3.85448
-3.05024
-2.18964
-1.28663
-0.356422
0.584039
1.51682
2.42317
3.28415
4.08071
4.79419
5.40685
5.90227
6.26609
6.48612
6.5531
6.46104
6.20773
5.7952
5.22967
4.52195
3.68741
2.74577
1.72073
0.639041
-0.469767
-1.56861
-2.62615
-3.60761
-4.47913
-5.20909
-5.76915
-6.13584
-6.29042
-6.21886
-5.92145
-5.40473
-4.68351
-3.7816
-2.73115
-1.57274
-0.352842
0.875827
2.05788
3.13937
4.06649
4.79133
5.27386
5.48444
5.40632
5.03717
4.3907
3.49677
2.40142
1.1641
-0.146685
-1.45066
-2.66367
-3.70893
-4.51234
-5.014
-5.17211
-4.96771
-4.40902
-3.5328
-2.40055
-1.09849
0.279008
1.60905
2.78522
3.70433
4.27995
4.45455
4.2076
3.55726
2.56298
1.32244
-0.0483952
-1.40688
-2.60597
-3.52267
-4.05127
-4.12856
-3.74208
-2.93519
-1.80476
-0.481695
0.890718
2.10243
3.02571
3.536
3.56468
3.1101
2.24157
1.09179
-0.20165
-1.40059
-2.35612
-2.92101
-3.01053
-2.62029
-1.8309
-0.786232
0.376911
1.35909
2.04237
2.29855
2.08405
1.45286
0.533517
-0.521579
-1.43806
-2.06612
-2.26778
-1.99953
-1.30575
-0.341685
0.686472
1.54938
2.04539
30.8086
30.7923
30.7606
30.7108
30.6556
30.5913
30.5472
30.4948
8.12727
8.20363
8.30638
8.458
8.57688
8.73733
8.89849
9.04849
9.17979
9.28267
9.35431
9.3901
9.38482
9.33428
9.23503
9.08433
8.87992
8.62016
8.30401
7.9311
7.50166
7.01662
6.47757
5.8868
5.24726
4.56265
3.83736
3.07649
2.28575
1.47162
0.640926
-0.198666
-1.03916
-1.87199
-2.68807
-3.47812
-4.23251
-4.94164
-5.59591
-6.18587
-6.70236
-7.13662
-7.48064
-7.72743
-7.87082
-7.90581
-7.82932
-7.63897
-7.33463
-6.91792
-6.39212
-5.76262
-5.03687
-4.22413
-3.33581
-2.38552
-1.38876
-0.362244
0.675291
1.70396
2.70312
3.65187
4.5292
5.31456
5.98838
6.53261
6.93152
7.17171
7.24298
7.13864
6.85635
6.39849
5.772
4.98887
4.06605
3.02559
1.89363
0.699655
-0.523552
-1.73535
-2.90107
-3.98235
-4.94181
-5.74466
-6.35983
-6.76188
-6.93101
-6.84684
-6.51477
-5.94136
-5.14281
-4.14527
-2.98439
-1.70517
-0.358988
0.996127
2.29923
3.49059
4.51094
5.30739
5.83601
6.06443
5.97421
5.5629
4.84576
3.85599
2.64473
1.27732
-0.170088
-1.60894
-2.94696
-4.09908
-4.98345
-5.53404
-5.7051
-5.4747
-4.85333
-3.88141
-2.62766
-1.18743
0.335074
1.80309
3.10035
4.11242
4.74415
4.93234
4.65381
3.9301
2.82711
1.45328
-0.0606285
-1.56006
-2.88209
-3.89079
-4.46989
-4.55015
-4.11847
-3.22327
-1.9722
-0.512095
0.998002
2.33133
3.34484
3.90155
3.92654
3.41901
2.45618
1.18677
-0.239682
-1.55666
-2.60401
-3.2189
-3.30897
-2.87027
-1.99219
-0.836469
0.43642
1.51772
2.26725
2.54469
2.303
1.60239
0.587539
-0.567101
-1.57536
-2.26532
-2.48544
-2.18808
-1.42592
-0.368643
0.758937
1.70552
2.24963
34.9353
34.9251
34.906
34.8763
34.8467
34.8111
34.7902
34.7627
9.48249
9.51995
9.61476
9.72122
9.83311
9.9584
10.0814
10.2043
10.3137
10.3845
10.4297
10.4406
10.4098
10.3324
10.2047
10.0234
9.7856
9.4893
9.13303
8.71614
8.23871
7.70162
7.10651
6.45573
5.75246
5.00066
4.20506
3.37124
2.50541
1.6146
0.706165
-0.211537
-1.12984
-2.03944
-2.93044
-3.79277
-4.61592
-5.38945
-6.10289
-6.74592
-7.30853
-7.78118
-8.15516
-8.42289
-8.57773
-8.61441
-8.52864
-8.31877
-7.98471
-7.52821
-6.95285
-6.2645
-5.47131
-4.58339
-3.61318
-2.57558
-1.48755
-0.367302
0.764616
1.8865
2.97587
4.00988
4.96561
5.82071
6.55382
7.14532
7.57815
7.83777
7.91309
7.7966
7.48593
6.98383
6.29785
5.44126
4.4325
3.29581
2.05983
0.756806
-0.577605
-1.89909
-3.16988
-4.34804
-5.39275
-6.26617
-6.93455
-7.37058
-7.55507
-7.45684
-7.0909
-6.4623
-5.58835
-4.49768
-3.22935
-1.8326
-0.363542
1.11441
2.53505
3.8331
4.94382
5.80964
6.38274
6.62813
6.52594
6.07335
5.28727
4.20416
2.87983
1.38605
-0.194399
-1.7642
-3.22373
-4.47967
-5.44259
-6.04047
-6.22413
-5.96786
-5.28523
-4.21978
-2.8474
-1.27238
0.39073
1.99309
3.4081
4.51038
5.19638
5.39736
5.08765
4.29209
3.08295
1.57908
-0.0742209
-1.71033
-3.15178
-4.24962
-4.87737
-4.96007
-4.48395
-3.50242
-2.13344
-0.539872
1.10308
2.55462
3.65546
4.25677
4.27759
3.71806
2.66306
1.27766
-0.278831
-1.7095
-2.84569
-3.50859
-3.59861
-3.11233
-2.14746
-0.883466
0.495183
1.67276
2.48616
2.78374
2.51527
1.7468
0.639133
-0.61171
-1.70887
-2.45856
-2.69639
-2.37037
-1.54192
-0.394724
0.829034
1.85657
2.44719
38.6129
38.6061
38.5938
38.5739
38.5557
38.5318
38.5198
38.5002
10.6587
10.6765
10.7581
10.8409
10.9367
11.0438
11.1475
11.2451
11.3199
11.3873
11.4173
11.4121
11.362
11.2631
11.1115
10.9038
10.6367
10.3075
9.91459
9.45696
8.93467
8.34865
7.70059
6.99298
6.22912
5.41329
4.5506
3.64711
2.70953
1.74544
0.762699
-0.229695
-1.22243
-2.20551
-3.16824
-4.09977
-4.98875
-5.82395
-6.59407
-7.28791
-7.89463
-8.40392
-8.80642
-9.09399
-9.25957
-9.29785
-9.20256
-8.9736
-8.61069
-8.11569
-7.49249
-6.74738
-5.88914
-4.9288
-3.87973
-2.758
-1.58208
-0.371591
0.851119
2.06266
3.23874
4.3547
5.38577
6.30781
7.09779
7.73456
8.19986
8.47801
8.5572
8.42878
8.09062
7.5458
6.80247
5.8751
4.78357
3.55411
2.21802
0.810208
-0.631093
-2.05799
-3.42977
-4.701
-5.82751
-6.76855
-7.48769
-7.95574
-8.15863
-8.04272
-7.64444
-6.96269
-6.01608
-4.8357
-3.46393
-1.95404
-0.3667
1.22931
2.76288
4.16347
5.36085
6.29318
6.90881
7.17015
7.05631
6.56377
5.7112
4.5381
3.1047
1.48917
-0.218857
-1.91466
-3.49112
-4.84685
-5.88522
-6.52833
-6.72425
-6.44245
-5.70058
-4.54486
-3.05781
-1.35255
0.445052
2.17695
3.70527
4.89419
5.63213
5.84512
5.50494
4.63987
3.32829
1.69876
-0.0888381
-1.85598
-3.41229
-4.5956
-5.26977
-5.35444
-4.83511
-3.77016
-2.28715
-0.564938
1.20465
2.77006
3.95456
4.59832
4.61464
4.00467
2.86045
1.36372
-0.318228
-1.85737
-3.07875
-3.78732
-3.87679
-3.34436
-2.2956
-0.926825
0.552263
1.8226
2.69697
3.01348
2.71895
1.88494
0.687778
-0.654792
-1.83733
-2.64407
-2.89874
-2.54479
-1.6528
-0.419758
0.896163
2.00124
2.63637
41.8827
41.8777
41.8685
41.8529
41.839