/*--------------------------------*- C++ -*----------------------------------*\
  =========                 |
  \\      /  F ield         | OpenFOAM: The Open Source CFD Toolbox
   \\    /   O peration     | Website:  https://openfoam.org
    \\  /    A nd           | Version:  12
     \\/     M anipulation  |
\*---------------------------------------------------------------------------*/
FoamFile
{
    format      ascii;
    class       volSymmTensorField;
    location    "400";
    object      R;
}
// * * * * * * * * * * * * * * * * * * * * * * * * * * * * * * * * * * * * * //

dimensions      [0 2 -2 0 0 0 0];

internalField   nonuniform List<symmTensor> 
80
(
(0.0050321 -7.46858e-05 -0 0.0050321 -0 0.0050321)
(0.0963845 -0.0087086 -0 0.0963845 -0 0.0963845)
(0.301931 -0.0781229 -0 0.301931 -0 0.301931)
(0.425117 -0.1379 -0 0.425117 -0 0.425117)
(0.473239 -0.168185 -0 0.473239 -0 0.473239)
(0.490226 -0.185096 -0 0.490226 -0 0.490226)
(0.494629 -0.194755 -0 0.494629 -0 0.494629)
(0.493751 -0.200629 -0 0.493751 -0 0.493751)
(0.490453 -0.204319 -0 0.490453 -0 0.490453)
(0.485872 -0.20657 -0 0.485872 -0 0.485872)
(0.480455 -0.207728 -0 0.480455 -0 0.480455)
(0.474364 -0.207966 -0 0.474364 -0 0.474364)
(0.467649 -0.207383 -0 0.467649 -0 0.467649)
(0.460319 -0.206048 -0 0.460319 -0 0.460319)
(0.452374 -0.204023 -0 0.452374 -0 0.452374)
(0.443822 -0.201369 -0 0.443822 -0 0.443822)
(0.434678 -0.198149 -0 0.434678 -0 0.434678)
(0.42497 -0.194431 -0 0.42497 -0 0.42497)
(0.414732 -0.190278 -0 0.414732 -0 0.414732)
(0.404 -0.18575 -0 0.404 -0 0.404)
(0.392813 -0.180902 -0 0.392813 -0 0.392813)
(0.381201 -0.17578 -0 0.381201 -0 0.381201)
(0.36919 -0.170417 -0 0.36919 -0 0.36919)
(0.35679 -0.164838 -0 0.35679 -0 0.35679)
(0.344001 -0.159053 -0 0.344001 -0 0.344001)
(0.330803 -0.153058 -0 0.330803 -0 0.330803)
(0.317161 -0.146837 -0 0.317161 -0 0.317161)
(0.30302 -0.140359 -0 0.30302 -0 0.30302)
(0.288308 -0.133579 -0 0.288308 -0 0.288308)
(0.272934 -0.126438 -0 0.272934 -0 0.272934)
(0.256791 -0.118859 -0 0.256791 -0 0.256791)
(0.239762 -0.110748 -0 0.239762 -0 0.239762)
(0.221734 -0.101995 -0 0.221734 -0 0.221734)
(0.202618 -0.0924646 -0 0.202618 -0 0.202618)
(0.182407 -0.0819992 -0 0.182407 -0 0.182407)
(0.161279 -0.0704178 -0 0.161279 -0 0.161279)
(0.139808 -0.0575345 -0 0.139808 -0 0.139808)
(0.119303 -0.0432084 -0 0.119303 -0 0.119303)
(0.102157 -0.0273141 -0 0.102157 -0 0.102157)
(0.0917548 -0.00935092 -0 0.0917548 -0 0.0917548)
(0.0919835 0.00999684 -0 0.0919835 -0 0.0919835)
(0.102779 0.0279458 -0 0.102779 -0 0.102779)
(0.120187 0.0438331 -0 0.120187 -0 0.120187)
(0.140828 0.0581447 -0 0.140828 -0 0.140828)
(0.162352 0.0710059 -0 0.162352 -0 0.162352)
(0.183484 0.0825632 -0 0.183484 -0 0.183484)
(0.203675 0.0930045 -0 0.203675 -0 0.203675)
(0.222758 0.102511 -0 0.222758 -0 0.222758)
(0.240746 0.111241 -0 0.240746 -0 0.240746)
(0.25773 0.119328 -0 0.25773 -0 0.25773)
(0.273826 0.126884 -0 0.273826 -0 0.273826)
(0.28915 0.134001 -0 0.28915 -0 0.28915)
(0.30381 0.140756 -0 0.30381 -0 0.30381)
(0.317896 0.147208 -0 0.317896 -0 0.317896)
(0.331482 0.153403 -0 0.331482 -0 0.331482)
(0.344622 0.159371 -0 0.344622 -0 0.344622)
(0.357351 0.165128 -0 0.357351 -0 0.357351)
(0.369689 0.170678 -0 0.369689 -0 0.369689)
(0.381636 0.17601 -0 0.381636 -0 0.381636)
(0.393182 0.181101 -0 0.393182 -0 0.393182)
(0.404303 0.185917 -0 0.404303 -0 0.404303)
(0.414968 0.190412 -0 0.414968 -0 0.414968)
(0.425139 0.194532 -0 0.425139 -0 0.425139)
(0.43478 0.198217 -0 0.43478 -0 0.43478)
(0.443857 0.201403 -0 0.443857 -0 0.443857)
(0.452345 0.204025 -0 0.452345 -0 0.452345)
(0.460227 0.206019 -0 0.460227 -0 0.460227)
(0.467497 0.207325 -0 0.467497 -0 0.467497)
(0.474155 0.207881 -0 0.474155 -0 0.474155)
(0.480193 0.207618 -0 0.480193 -0 0.480193)
(0.48556 0.206439 -0 0.48556 -0 0.48556)
(0.490094 0.20417 -0 0.490094 -0 0.490094)
(0.493349 0.200463 -0 0.493349 -0 0.493349)
(0.494187 0.194577 -0 0.494187 -0 0.494187)
(0.489747 0.184907 -0 0.489747 -0 0.489747)
(0.472723 0.167987 -0 0.472723 -0 0.472723)
(0.424571 0.137702 -0 0.424571 -0 0.424571)
(0.301405 0.0779459 -0 0.301405 -0 0.301405)
(0.0961614 0.00867766 -0 0.0961614 -0 0.0961614)
(0.00502028 7.44645e-05 -0 0.00502028 -0 0.00502028)
)
;

boundaryField
{
    lowerWall
    {
        type            calculated;
        value           uniform (6.66667e-11 -0 -0 6.66667e-11 -0 6.66667e-11);
    }
    upperWall
    {
        type            calculated;
        value           uniform (6.66667e-11 0 -0 6.66667e-11 -0 6.66667e-11);
    }
    front
    {
        type            cyclic;
    }
    back
    {
        type            cyclic;
    }
    defaultFaces
    {
        type            empty;
    }
}


// ************************************************************************* //
