/*--------------------------------*- C++ -*----------------------------------*\
  =========                 |
  \\      /  F ield         | OpenFOAM: The Open Source CFD Toolbox
   \\    /   O peration     | Website:  https://openfoam.org
    \\  /    A nd           | Version:  12
     \\/     M anipulation  |
\*---------------------------------------------------------------------------*/
FoamFile
{
    format      ascii;
    class       volVectorField;
    location    "400";
    object      U;
}
// * * * * * * * * * * * * * * * * * * * * * * * * * * * * * * * * * * * * * //

dimensions      [0 1 -1 0 0 0 0];

internalField   nonuniform List<vector> 
80
(
(0.61662 0 0)
(1.89868 0 0)
(3.04181 0 0)
(3.85588 0 0)
(4.43592 0 0)
(4.87726 0 0)
(5.23405 0 0)
(5.53755 0 0)
(5.8061 0 0)
(6.05082 0 0)
(6.27876 0 0)
(6.49453 0 0)
(6.70121 0 0)
(6.90097 0 0)
(7.0953 0 0)
(7.28527 0 0)
(7.47167 0 0)
(7.65504 0 0)
(7.83581 0 0)
(8.01429 0 0)
(8.19073 0 0)
(8.36533 0 0)
(8.53826 0 0)
(8.70967 0 0)
(8.8797 0 0)
(9.04847 0 0)
(9.2161 0 0)
(9.38271 0 0)
(9.54836 0 0)
(9.71309 0 0)
(9.87687 0 0)
(10.0395 0 0)
(10.2007 0 0)
(10.3596 0 0)
(10.5149 0 0)
(10.6644 0 0)
(10.8038 0 0)
(10.9265 0 0)
(11.022 0 0)
(11.0771 0 0)
(11.0761 0 0)
(11.0192 0 0)
(10.9223 0 0)
(10.7987 0 0)
(10.6586 0 0)
(10.5088 0 0)
(10.3531 0 0)
(10.1941 0 0)
(10.0328 0 0)
(9.87009 0 0)
(9.70628 0 0)
(9.54153 0 0)
(9.37588 0 0)
(9.2093 0 0)
(9.04171 0 0)
(8.87299 0 0)
(8.70303 0 0)
(8.53171 0 0)
(8.35887 0 0)
(8.18438 0 0)
(8.00805 0 0)
(7.8297 0 0)
(7.64907 0 0)
(7.46585 0 0)
(7.27963 0 0)
(7.08982 0 0)
(6.89567 0 0)
(6.69611 0 0)
(6.48961 0 0)
(6.27405 0 0)
(6.04632 0 0)
(5.80181 0 0)
(5.53349 0 0)
(5.23021 0 0)
(4.87365 0 0)
(4.43255 0 0)
(3.85278 0 0)
(3.03907 0 0)
(1.8967 0 0)
(0.61595 0 0)
)
;

boundaryField
{
    lowerWall
    {
        type            noSlip;
    }
    upperWall
    {
        type            noSlip;
    }
    front
    {
        type            cyclic;
    }
    back
    {
        type            cyclic;
    }
    defaultFaces
    {
        type            empty;
    }
}


// ************************************************************************* //
