# y+ ()           
# Time            	patch             	min               	max               	average           
0                 	walls	9.4452961463e+03	9.4452961463e+03	9.4452961463e+03
1                 	walls	9.1422891528e+03	9.1433283327e+03	9.1428087428e+03
