/*--------------------------------*- C++ -*----------------------------------*\
  =========                 |
  \\      /  F ield         | OpenFOAM: The Open Source CFD Toolbox
   \\    /   O peration     | Website:  https://openfoam.org
    \\  /    A nd           | Version:  12
     \\/     M anipulation  |
\*---------------------------------------------------------------------------*/
FoamFile
{
    format      ascii;
    class       surfaceScalarField;
    location    "3.2";
    object      phi;
}
// * * * * * * * * * * * * * * * * * * * * * * * * * * * * * * * * * * * * * //

dimensions      [1 0 -1 0 0 0 0];

internalField   nonuniform List<scalar> 
7429
(
-5.16467e-06
5.16464e-06
-1.05317e-05
5.36699e-06
-1.67779e-05
6.24618e-06
-2.41158e-05
7.33782e-06
-3.29584e-05
8.84259e-06
-4.36456e-05
1.06872e-05
-5.65914e-05
1.29457e-05
-7.21066e-05
1.55152e-05
-9.05386e-05
1.84319e-05
-0.00011225
2.17115e-05
-0.000137474
2.52235e-05
-0.000166293
2.88194e-05
-0.000198765
3.24722e-05
-0.000234963
3.61979e-05
-0.000274855
3.98918e-05
-0.000318297
4.34415e-05
-0.000365032
4.67356e-05
-0.000414725
4.96926e-05
-0.000466963
5.22378e-05
-0.000521309
5.43462e-05
-0.000577226
5.59174e-05
-0.000634063
5.68373e-05
-0.000691185
5.71215e-05
-0.000747842
5.6657e-05
-0.000803314
5.54724e-05
-0.000856835
5.35201e-05
-0.000907638
5.08036e-05
-0.000954961
4.73233e-05
-0.000998076
4.31144e-05
-0.00103631
3.82333e-05
-0.00106903
3.27184e-05
-0.00109566
2.6635e-05
-0.0011157
2.00417e-05
-0.00112874
1.30319e-05
-0.0011344
5.66365e-06
-0.00113257
-1.82862e-06
-0.00112318
-9.39251e-06
-0.00110622
-1.69635e-05
-0.00108177
-2.44416e-05
-0.00105005
-3.1726e-05
-0.00101135
-3.86953e-05
-0.000966083
-4.52693e-05
-0.000914728
-5.13553e-05
-0.000857869
-5.68582e-05
-0.00079616
-6.17095e-05
-0.000730328
-6.58314e-05
-0.000661146
-6.91827e-05
-0.000589465
-7.16802e-05
-0.000516141
-7.33244e-05
-0.000442105
-7.40356e-05
-0.000368294
-7.38117e-05
-0.000295593
-7.27009e-05
-0.000225017
-7.05759e-05
-0.000157391
-6.76262e-05
-9.36767e-05
-6.37139e-05
-3.45929e-05
-5.90838e-05
1.90098e-05
-5.36026e-05
6.63634e-05
-4.73536e-05
0.000106672
-4.03083e-05
0.000139457
-3.27853e-05
0.00016427
-2.48126e-05
0.000180979
-1.67095e-05
0.000189029
-8.04994e-06
0.000187229
1.80068e-06
0.000176393
1.08357e-05
0.000156939
1.94543e-05
0.000129173
2.77654e-05
9.33119e-05
3.58614e-05
4.987e-05
4.34419e-05
-6.42047e-07
5.0512e-05
-5.7442e-05
5.68e-05
-0.000119732
6.229e-05
-0.000186518
6.67862e-05
-0.000256861
7.03433e-05
-0.000329563
7.2702e-05
-0.000403421
7.38572e-05
-0.000477219
7.37984e-05
-0.000549649
7.24301e-05
-0.000619434
6.97846e-05
-0.000685279
6.58455e-05
-0.000745958
6.06788e-05
-0.000800321
5.43636e-05
-0.000847257
4.69355e-05
-0.000885829
3.85718e-05
-0.000915166
2.93378e-05
-0.00093462
1.94535e-05
-0.000943674
9.05453e-06
-0.000941217
-2.45782e-06
-0.000926912
-1.4305e-05
-0.000901294
-2.5618e-05
-0.000864828
-3.64651e-05
-0.000818011
-4.6817e-05
-0.000761428
-5.65832e-05
-0.000695797
-6.56315e-05
-0.000622073
-7.37236e-05
-0.000541357
-8.07161e-05
-0.000454866
-8.64907e-05
-0.000364007
-9.08591e-05
-0.000270128
-9.38796e-05
-0.000174764
-9.53639e-05
-7.94129e-05
-9.53509e-05
1.44584e-05
-9.38713e-05
0.000105388
-9.09299e-05
0.000192002
-8.66133e-05
0.000273033
-8.10317e-05
0.000347296
-7.42629e-05
0.000413759
-6.64633e-05
0.000471599
-5.7839e-05
0.000520124
-4.85259e-05
0.000558823
-3.86985e-05
0.000587419
-2.85963e-05
0.000605697
-1.82776e-05
0.000613766
-8.06918e-06
0.000611827
1.9387e-06
0.000600312
1.15158e-05
0.000579726
2.05855e-05
0.000550759
2.89669e-05
0.000514204
3.65553e-05
0.000470961
4.32434e-05
0.000421945
4.90157e-05
0.000368244
5.37012e-05
0.000310829
5.74147e-05
0.000250837
5.99924e-05
0.000189236
6.16005e-05
0.000127137
6.20993e-05
6.54999e-05
6.16369e-05
5.24582e-06
6.02541e-05
-5.27463e-05
5.79922e-05
-0.000107718
5.49721e-05
-0.000158942
5.12234e-05
-0.000205832
4.68899e-05
-0.000247869
4.20372e-05
-0.000284631
3.67617e-05
-0.000315856
3.1225e-05
-0.0003413
2.54447e-05
-0.000360879
1.9579e-05
-0.000374559
1.36801e-05
-0.000382407
7.84755e-06
-0.000384579
2.17195e-06
-0.000381342
-3.2371e-06
-0.000372951
-8.39127e-06
-0.000359742
-1.32082e-05
-0.000342118
-1.76241e-05
-0.000320509
-2.16092e-05
-0.000295397
-2.51124e-05
-0.000267258
-2.81385e-05
-0.000236611
-3.06474e-05
-0.000203962
-3.26483e-05
-0.000169823
-3.41394e-05
-0.000134699
-3.51239e-05
-9.90812e-05
-3.56179e-05
-6.34246e-05
-3.56566e-05
-2.81891e-05
-3.52355e-05
6.20841e-06
-3.43975e-05
3.94016e-05
-3.31932e-05
7.10462e-05
-3.16446e-05
0.000100841
-2.97945e-05
0.000128512
-2.76717e-05
0.000153841
-2.53287e-05
0.000176658
-2.28167e-05
0.000196814
-2.01563e-05
0.000214227
-1.74129e-05
0.000228846
-1.46189e-05
0.000240649
-1.18034e-05
0.00024969
-9.04065e-06
0.000255998
-6.30814e-06
0.000259694
-3.69568e-06
0.000260872
-1.17807e-06
0.000259711
1.16105e-06
0.000256348
3.36239e-06
0.000250956
5.3924e-06
0.000243739
7.2166e-06
0.000234892
8.84735e-06
0.000224622
1.02697e-05
0.000213154
1.14688e-05
0.000200704
1.24494e-05
0.000187486
1.32179e-05
0.000173708
1.37784e-05
0.000159587
1.41209e-05
0.00014532
1.42667e-05
0.000131115
1.42057e-05
0.000117144
1.39706e-05
0.000103582
1.35622e-05
9.05776e-05
1.30043e-05
7.82711e-05
1.23065e-05
6.67655e-05
1.15056e-05
5.61508e-05
1.06147e-05
4.64845e-05
9.66626e-06
3.78263e-05
8.65828e-06
3.0176e-05
7.65029e-06
2.35231e-05
6.65293e-06
1.78758e-05
5.64724e-06
1.31724e-05
4.70341e-06
9.37565e-06
3.79675e-06
6.39239e-06
2.98326e-06
4.1503e-06
2.24209e-06
2.53124e-06
1.61906e-06
1.39937e-06
1.13187e-06
6.07725e-07
7.91644e-07
6.07725e-07
1.54863e-05
-1.03217e-05
3.07331e-05
-9.87987e-06
4.49925e-05
-8.01327e-06
5.74631e-05
-5.1328e-06
6.76591e-05
-1.35349e-06
7.57756e-05
2.57065e-06
7.94229e-05
9.29846e-06
7.7935e-05
1.7003e-05
7.04434e-05
2.59235e-05
5.70735e-05
3.50814e-05
3.7063e-05
4.52339e-05
1.04922e-05
5.53901e-05
-2.29732e-05
6.59376e-05
-6.3151e-05
7.63756e-05
-0.000109585
8.63254e-05
-0.000162707
9.65635e-05
-0.000221429
0.000105458
-0.000285564
0.000113827
-0.000354537
0.000121212
-0.000427433
0.000127242
-0.000503199
0.000131683
-0.000580923
0.000134561
-0.000659533
0.000135732
-0.00073757
0.000134694
-0.000814009
0.000131911
-0.000887635
0.000127146
-0.000957168
0.000120337
-0.0010214
0.000111557
-0.00107948
0.000101191
-0.00113027
8.90296e-05
-0.00117302
7.54628e-05
-0.00120682
6.04347e-05
-0.00123127
4.44962e-05
-0.00124601
2.77726e-05
-0.00125056
1.02055e-05
-0.00124528
-7.10524e-06
-0.0012302
-2.44743e-05
-0.00120538
-4.1785e-05
-0.00117114
-5.8673e-05
-0.00112793
-7.49444e-05
-0.0010763
-9.03242e-05
-0.00101694
-0.000104628
-0.000950624
-0.000117669
-0.000878203
-0.00012928
-0.000800589
-0.000139323
-0.00071876
-0.000147661
-0.000633788
-0.000154154
-0.000546651
-0.000158817
-0.000458541
-0.000161435
-0.00037039
-0.000162186
-0.000283463
-0.000160739
-0.000198679
-0.000157484
-0.000117203
-0.000152052
-3.99009e-05
-0.000144928
3.22608e-05
-0.000135876
9.81097e-05
-0.000124933
0.000156818
-0.000112311
0.000207798
-9.83337e-05
0.000250463
-8.29737e-05
0.000284208
-6.65296e-05
0.000308759
-4.93638e-05
0.000323587
-3.15376e-05
0.000327867
-1.23299e-05
0.000322142
7.52607e-06
0.00030669
2.62874e-05
0.00028162
4.45239e-05
0.000247067
6.23186e-05
0.000203566
7.93624e-05
0.000151699
9.53088e-05
9.228e-05
0.000109931
2.60863e-05
0.000122994
-4.57452e-05
0.000134122
-0.00012221
0.000143251
-0.000202076
0.00015021
-0.00028408
0.000154705
-0.000366836
0.000156614
-0.000448992
0.000155954
-0.000529169
0.000152608
-0.000605935
0.000146551
-0.000677922
0.000137833
-0.00074387
0.000126626
-0.0008025
0.000112994
-0.000852707
9.71425e-05
-0.000893485
7.93497e-05
-0.00092405
5.9902e-05
-0.00094372
3.91245e-05
-0.000952119
1.74527e-05
-0.000947896
-6.68008e-06
-0.000931634
-3.05671e-05
-0.000903754
-5.34983e-05
-0.000864556
-7.56628e-05
-0.000814549
-9.68243e-05
-0.000754457
-0.000116676
-0.000685192
-0.000134896
-0.000607891
-0.000151025
-0.000523827
-0.000164779
-0.000434363
-0.000175955
-0.000340963
-0.000184259
-0.000245151
-0.000189691
-0.000148543
-0.000191972
-5.2655e-05
-0.000191239
4.10263e-05
-0.000187553
0.000130998
-0.000180902
0.000215954
-0.000171569
0.000294626
-0.000159704
0.000365942
-0.000145579
0.000428945
-0.000129466
0.000482879
-0.000111774
0.000527211
-9.28576e-05
0.000561495
-7.29826e-05
0.00058561
-5.2711e-05
0.000599495
-3.21623e-05
0.000603353
-1.19279e-05
0.000597546
7.74548e-06
0.000582546
2.6516e-05
0.000558995
4.41373e-05
0.000527618
6.0343e-05
0.000489267
7.49071e-05
0.000444867
8.76427e-05
0.000395405
9.84776e-05
0.000341893
0.000107214
0.000285382
0.000113925
0.000226858
0.000118517
0.000167375
0.000121083
0.000107858
0.000121617
4.92534e-05
0.000120242
-7.61372e-06
0.000117121
-6.19298e-05
0.000112308
-0.000113036
0.000106078
-0.000160314
9.85009e-05
-0.000203237
8.98134e-05
-0.000241393
8.01933e-05
-0.000274427
6.97958e-05
-0.00030212
5.89175e-05
-0.000324351
4.76762e-05
-0.000341026
3.62534e-05
-0.000352209
2.48627e-05
-0.000357978
1.36171e-05
-0.000358527
2.72095e-06
-0.000354136
-7.62806e-06
-0.000345065
-1.74624e-05
-0.000331663
-2.66099e-05
-0.000314308
-3.49799e-05
-0.000293433
-4.24832e-05
-0.000269476
-4.90694e-05
-0.000242893
-5.47217e-05
-0.000214143
-5.93981e-05
-0.0001837
-6.30912e-05
-0.000152048
-6.57908e-05
-0.00011963
-6.75423e-05
-8.68931e-05
-6.83546e-05
-5.42443e-05
-6.83055e-05
-2.21082e-05
-6.73716e-05
9.15541e-06
-6.56611e-05
3.92272e-05
-6.3265e-05
6.7783e-05
-6.02003e-05
9.4587e-05
-5.65985e-05
0.00011941
-5.24948e-05
0.000142017
-4.79358e-05
0.000162318
-4.31174e-05
0.000180151
-3.79893e-05
0.000195493
-3.27552e-05
0.000208252
-2.73776e-05
0.000218495
-2.20468e-05
0.000226204
-1.67493e-05
0.000231483
-1.15875e-05
0.000234396
-6.60859e-06
0.000235057
-1.83919e-06
0.000233632
2.58644e-06
0.000230243
6.75129e-06
0.000225057
1.05779e-05
0.000218264
1.40104e-05
0.000210034
1.70766e-05
0.000200543
1.97614e-05
0.000190019
2.19931e-05
0.000178645
2.38225e-05
0.000166632
2.52317e-05
0.000154123
2.6287e-05
0.000141349
2.68949e-05
0.000128447
2.71689e-05
0.000115649
2.70032e-05
0.000103084
2.65357e-05
9.09129e-05
2.57334e-05
7.92959e-05
2.46213e-05
6.82681e-05
2.33342e-05
5.80187e-05
2.17551e-05
4.85817e-05
2.00517e-05
4.0028e-05
1.822e-05
3.23536e-05
1.63327e-05
2.56085e-05
1.43954e-05
1.98036e-05
1.24578e-05
1.48696e-05
1.05812e-05
1.07958e-05
8.77722e-06
7.51763e-06
7.07491e-06
4.99408e-06
5.50681e-06
3.11608e-06
4.12009e-06
1.79953e-06
2.93561e-06
9.35256e-07
1.99615e-06
3.88867e-07
1.33803e-06
9.96592e-07
6.76649e-05
-7.79866e-05
0.000134822
-7.70373e-05
0.000199666
-7.28566e-05
0.000260542
-6.60098e-05
0.000315733
-5.65437e-05
0.000362851
-4.45476e-05
0.000402069
-2.99204e-05
0.000430995
-1.19223e-05
0.000444592
1.23259e-05
0.000445996
3.36773e-05
0.00043435
5.68802e-05
0.00040794
8.17999e-05
0.000367047
0.000106831
0.000311345
0.000132077
0.000241095
0.000156575
0.000157776
0.000179882
6.18032e-05
0.000201431
-4.50905e-05
0.000220721
-0.000161137
0.000237258
-0.000284498
0.000250603
-0.000413171
0.000260356
-0.000544795
0.000266185
-0.00067695
0.000267886
-0.000807533
0.000265277
-0.000933944
0.000258322
-0.00105393
0.000247133
-0.00116537
0.000231775
-0.00126648
0.000212665
-0.0013554
0.000190119
-0.00143081
0.000164436
-0.00149174
0.000136392
-0.00153745
0.000106148
-0.00156728
7.43241e-05
-0.00158126
4.17516e-05
-0.00157948
8.42344e-06
-0.00156227
-2.431e-05
-0.00153018
-5.65709e-05
-0.00148414
-8.78179e-05
-0.00142511
-0.000117711
-0.00135416
-0.000145888
-0.00127246
-0.000172025
-0.00118124
-0.000195851
-0.00108184
-0.000217072
-0.000975608
-0.000235508
-0.000864021
-0.000250909
-0.000748465
-0.000263217
-0.000630345
-0.000272274
-0.000511301
-0.000277861
-0.000392473
-0.000280263
-0.000275742
-0.000278917
-0.000161922
-0.000274559
-5.25659e-05
-0.000266841
5.08946e-05
-0.000255512
0.000147485
-0.000241519
0.000236254
-0.000224645
0.00031624
-0.000204919
0.000386485
-0.000182555
0.000446166
-0.000158015
0.000494048
-0.000130856
0.000529999
-0.00010248
0.000554122
-7.3487e-05
0.000564623
-4.20384e-05
0.000563942
-1.16496e-05
0.000550275
2.11935e-05
0.000524578
5.19848e-05
0.000486955
8.21468e-05
0.000437921
0.000111352
0.000378258
0.000139026
0.000308786
0.000164781
0.000230629
0.000188088
0.000144843
0.000208779
5.28234e-05
0.000226141
-4.39547e-05
0.000240029
-0.000144071
0.000250326
-0.000245969
0.000256603
-0.000347918
0.000258564
-0.000448321
0.000256357
-0.00054548
0.000249766
-0.000637736
0.000238807
-0.000723478
0.000223574
-0.000801301
0.00020445
-0.000869702
0.000181396
-0.000927545
0.000154985
-0.000973729
0.000125534
-0.00100733
9.35034e-05
-0.00102764
5.94368e-05
-0.00103454
2.43532e-05
-0.0010268
-1.44206e-05
-0.00100561
-5.17594e-05
-0.000971137
-8.7971e-05
-0.000923849
-0.000122951
-0.000864458
-0.000156215
-0.000794078
-0.000187055
-0.000713916
-0.000215059
-0.000625462
-0.000239478
-0.000530213
-0.000260029
-0.000429903
-0.000276265
-0.000326307
-0.000287855
-0.000221192
-0.000294806
-0.000116212
-0.000296952
-1.32217e-05
-0.000294228
8.61956e-05
-0.00028697
0.000180461
-0.000275167
0.000268222
-0.000259331
0.000348202
-0.000239684
0.000419349
-0.000216725
0.000480878
-0.000190995
0.000532148
-0.000163044
0.000572714
-0.000133424
0.000602336
-0.000102604
0.000621067
-7.14428e-05
0.000629099
-4.01941e-05
0.000626729
-9.55815e-06
0.000614649
1.98261e-05
0.000593429
4.77355e-05
0.000563885
7.3682e-05
0.000526896
9.73319e-05
0.00048342
0.000118383
0.000434528
0.000136535
0.000381315
0.000151691
0.000324751
0.000163778
0.000265998
0.000172678
0.000206006
0.000178508
0.00014582
0.000181268
8.63649e-05
0.000181072
2.85879e-05
0.000178019
-2.69037e-05
0.000172613
-7.93612e-05
0.000164766
-0.000128072
0.000154789
-0.000172659
0.000143089
-0.000212566
0.00012972
-0.000247516
0.000115143
-0.000277333
9.96122e-05
-0.000301756
8.33409e-05
-0.00032075
6.66707e-05
-0.000334387
4.98901e-05
-0.000342754
3.32299e-05
-0.000345992
1.68548e-05
-0.000344374
1.10305e-06
-0.000338132
-1.387e-05
-0.000327609
-2.79854e-05
-0.000313148
-4.10711e-05
-0.00029514
-5.29882e-05
-0.000273997
-6.36263e-05
-0.000250148
-7.29184e-05
-0.000224043
-8.08262e-05
-0.000196155
-8.72862e-05
-0.000166919
-9.23277e-05
-0.000136766
-9.59438e-05
-0.000106127
-9.81808e-05
-7.53744e-05
-9.91071e-05
-4.49074e-05
-9.87726e-05
-1.51183e-05
-9.71607e-05
1.376e-05
-9.45394e-05
4.13713e-05
-9.08763e-05
6.74481e-05
-8.62772e-05
9.17955e-05
-8.09459e-05
0.000114183
-7.48821e-05
0.000134476
-6.82287e-05
0.000152554
-6.11958e-05
0.000168316
-5.37516e-05
0.000181743
-4.61817e-05
0.000192797
-3.84319e-05
0.000201508
-3.07577e-05
0.000207906
-2.31474e-05
0.000212076
-1.57568e-05
0.000214105
-8.63775e-06
0.000214115
-1.84993e-06
0.000212243
4.4591e-06
0.000208629
1.03654e-05
0.00020344
1.57666e-05
0.000196802
2.06488e-05
0.000188918
2.49601e-05
0.000179981
2.86986e-05
0.000170124
3.185e-05
0.000159531
3.44151e-05
0.000148373
3.63899e-05
0.000136866
3.7794e-05
0.000125133
3.86279e-05
0.000113391
3.89113e-05
0.000101718
3.86762e-05
9.03117e-05
3.79419e-05
7.92954e-05
3.67496e-05
6.87665e-05
3.51503e-05
5.89134e-05
3.31873e-05
4.97202e-05
3.09483e-05
4.1326e-05
2.84458e-05
3.37423e-05
2.58037e-05
2.69889e-05
2.30861e-05
2.10873e-05
2.02969e-05
1.59879e-05
1.75572e-05
1.17426e-05
1.48266e-05
8.25463e-06
1.22652e-05
5.48918e-06
9.84037e-06
3.40787e-06
7.58812e-06
1.92085e-06
5.60712e-06
9.55659e-07
3.9008e-06
3.93553e-07
2.55825e-06
1.1869e-07
1.6129e-06
1.11528e-06
0.000161719
-0.000239706
0.000322126
-0.000237444
0.000477496
-0.000228226
0.000624189
-0.000212703
0.000758498
-0.000190853
0.000876769
-0.000162818
0.000975801
-0.000128953
0.00105381
-8.99362e-05
0.00111301
-4.68734e-05
0.00114917
-2.48228e-06
0.00115676
4.9292e-05
0.00113249
0.000106075
0.00107694
0.000162381
0.000991612
0.000217402
0.000877793
0.000270394
0.000737521
0.000320154
0.000573666
0.000365286
0.000389161
0.000405226
0.000187862
0.000438557
-2.66128e-05
0.000465078
-0.00024976
0.000483503
-0.000477381
0.000493805
-0.00070418
0.000494685
-0.00092639
0.000487487
-0.00113876
0.00047069
-0.00133739
0.000445767
-0.00151841
0.00041279
-0.00167845
0.000372703
-0.00181502
0.000326692
-0.00192638
0.000275797
-0.00201088
0.000220888
-0.00206798
0.000163251
-0.00209779
0.000104135
-0.0021001
4.406e-05
-0.00207831
-1.33609e-05
-0.002035
-6.76201e-05
-0.00197099
-0.000120584
-0.00188771
-0.000171099
-0.00178701
-0.000218412
-0.00167093
-0.000261967
-0.00154164
-0.000301317
-0.00140131
-0.000336185
-0.00125215
-0.000366224
-0.00109635
-0.000391313
-0.000935994
-0.000411264
-0.000773217
-0.000425994
-0.000609843
-0.000435648
-0.000447921
-0.000439783
-0.000289211
-0.000438972
-0.000134846
-0.000433282
1.31189e-05
-0.000422524
0.000152664
-0.000406386
0.000283162
-0.00038601
0.000403049
-0.000361406
0.000510927
-0.000332522
0.000605823
-0.000299815
0.000687005
-0.000263737
0.000754458
-0.000225468
0.000806493
-0.000182891
0.000843697
-0.000139684
0.000863854
-9.3644e-05
0.000869321
-4.75056e-05
0.000857592
7.95644e-08
0.000831954
4.68314e-05
0.000791049
9.28902e-05
0.00073547
0.000137726
0.000666206
0.000180616
0.000584253
0.000220978
0.000490901
0.000258134
0.000387525
0.000291465
0.000275639
0.000320665
0.00015692
0.00034486
3.31996e-05
0.00036375
-9.36112e-05
0.000377137
-0.000221556
0.000384548
-0.00034853
0.000385537
-0.000472559
0.000380386
-0.000591589
0.000368796
-0.000703615
0.000350833
-0.000806807
0.000326766
-0.000899378
0.000297021
-0.000979749
0.000261766
-0.00104662
0.000221858
-0.00109864
0.000177553
-0.00113512
0.000129984
-0.00115532
7.96364e-05
-0.00115902
2.80509e-05
-0.00114575
-2.76877e-05
-0.00111672
-8.07947e-05
-0.00107209
-0.000132602
-0.00101268
-0.000182353
-0.000939682
-0.000229218
-0.00085452
-0.000272217
-0.000758916
-0.000310662
-0.00065472
-0.000343675
-0.000543905
-0.000370844
-0.000428496
-0.000391674
-0.000310652
-0.000405699
-0.000192356
-0.000413103
-7.57393e-05
-0.000413569
3.72052e-05
-0.000407173
0.000144761
-0.000394526
0.000245241
-0.000375647
0.000337268
-0.000351358
0.000419599
-0.000322015
0.000491223
-0.000288349
0.000551444
-0.000251216
0.000599845
-0.000211445
0.000636005
-0.000169583
0.00066024
-0.000126839
0.000672511
-8.37143e-05
0.000673339
-4.10214e-05
0.000663534
2.46721e-07
0.000643728
3.96313e-05
0.000614791
7.66733e-05
0.000577704
0.000110768
0.000533579
0.000141458
0.000483593
0.000168368
0.000428847
0.000191281
0.000370533
0.000210004
0.000309747
0.000224564
0.000247588
0.000234837
0.00018514
0.000240957
0.000123372
0.000243037
6.32083e-05
0.000241236
5.29261e-06
0.000235934
-4.95308e-05
0.000227436
-0.000100639
0.000215874
-0.000147487
0.000201636
-0.000189711
0.000185313
-0.000226876
0.000166886
-0.000258939
0.000147206
-0.000285589
0.000126262
-0.000306782
0.000104534
-0.000322723
8.26113e-05
-0.00033334
6.05072e-05
-0.000338768
3.86578e-05
-0.000339258
1.73449e-05
-0.000335262
-2.8927e-06
-0.00032691
-2.22217e-05
-0.00031463
-4.02659e-05
-0.00029878
-5.69212e-05
-0.000279756
-7.20121e-05
-0.000257993
-8.53886e-05
-0.000233923
-9.69884e-05
-0.000207958
-0.000106791
-0.000180537
-0.000114707
-0.000152099
-0.000120766
-0.000123033
-0.000125009
-9.37061e-05
-0.000127508
-6.45541e-05
-0.000128259
-3.588e-05
-0.000127447
-7.95839e-06
-0.000125082
1.88697e-05
-0.000121367
4.43708e-05
-0.000116377
6.83319e-05
-0.000110238
9.05162e-05
-0.00010313
0.000110775
-9.51413e-05
0.000129016
-8.64691e-05
0.000145104
-7.72843e-05
0.000159004
-6.76512e-05
0.000170666
-5.78436e-05
0.000180145
-4.79112e-05
0.000187414
-3.80269e-05
0.000192581
-2.8314e-05
0.000195685
-1.88613e-05
0.000196864
-9.81647e-06
0.000196212
-1.19778e-06
0.000193875
6.79559e-06
0.000189987
1.42536e-05
0.000184695
2.10592e-05
0.000178144
2.71996e-05
0.000170512
3.25922e-05
0.000161956
3.72543e-05
0.000152607
4.11991e-05
0.000142676
4.43463e-05
0.000132262
4.68035e-05
0.000121571
4.84848e-05
0.000110739
4.94606e-05
9.99185e-05
4.97313e-05
8.92118e-05
4.93829e-05
7.87909e-05
4.83628e-05
6.87791e-05
4.67614e-05
5.92595e-05
4.467e-05
5.03518e-05
4.2095e-05
4.21299e-05
3.91702e-05
3.46443e-05
3.59313e-05
2.79318e-05
3.25162e-05
2.19809e-05
2.9037e-05
1.68182e-05
2.54596e-05
1.24502e-05
2.19252e-05
8.75715e-06
1.85196e-05
5.82426e-06
1.51981e-05
3.57439e-06
1.20902e-05
1.8978e-06
9.26471e-06
7.82501e-07
6.72241e-06
1.08164e-07
4.57513e-06
-1.65092e-07
2.83151e-06
-1.6174e-07
1.60955e-06
9.53541e-07
0.000349925
-0.000589631
0.000697083
-0.000584602
0.00103418
-0.000565327
0.00135394
-0.000532458
0.00164931
-0.000486229
0.00191458
-0.000428084
0.00214507
-0.00035944
0.00233014
-0.000275011
0.00245778
-0.000174515
0.00251697
-6.16667e-05
0.00250662
5.96423e-05
0.00244217
0.000170517
0.00232231
0.000282248
0.00214832
0.000391394
0.00192361
0.000495101
0.00165294
0.000590819
0.0013419
0.00067633
0.000997307
0.000749818
0.000626402
0.000809462
0.000237633
0.000853846
-0.000160616
0.000881752
-0.000559119
0.000892308
-0.000949274
0.00088484
-0.0013213
0.000859513
-0.00166762
0.000817015
-0.00198018
0.000758319
-0.00225237
0.000684985
-0.00247994
0.000600271
-0.0026601
0.000506854
-0.00279198
0.000407675
-0.00287692
0.000305831
-0.00291725
0.000203582
-0.00291603
0.000102909
-0.0028779
5.93004e-06
-0.00280463
-8.66317e-05
-0.00269953
-0.000172716
-0.00256761
-0.000252499
-0.00241295
-0.000325765
-0.00223941
-0.000391947
-0.00205049
-0.000450887
-0.0018495
-0.000502312
-0.00163949
-0.000546193
-0.00142324
-0.000582472
-0.00120332
-0.00061124
-0.000982211
-0.000632368
-0.000762679
-0.000645527
-0.000546497
-0.000651829
-0.000335554
-0.000650726
-0.000132012
-0.000642515
6.16118e-05
-0.000626906
0.00024423
-0.000605142
0.00041485
-0.000577006
0.000571682
-0.000542842
0.000713367
-0.000503091
0.000839521
-0.000458676
0.00094911
-0.000409404
0.00103969
-0.00035432
0.00111194
-0.000297716
0.00116502
-0.00023597
0.00119818
-0.000172844
0.00121266
-0.00010812
0.00120735
-4.22026e-05
0.0011833
2.41285e-05
0.00114044
8.9698e-05
0.0010795
0.000153826
0.00100146
0.000215765
0.000907446
0.000274633
0.000798858
0.000329565
0.000677278
0.000379714
0.000544472
0.00042427
0.000402336
0.000462802
0.000253049
0.000494147
9.8854e-05
0.000517945
-5.79815e-05
0.000533973
-0.000214958
0.000541525
-0.000369595
0.000540174
-0.000519486
0.000530277
-0.000662189
0.0005115
-0.000795413
0.000484056
-0.000916961
0.000448315
-0.00102479
0.000404853
-0.00111715
0.000354125
-0.00119247
0.000297172
-0.00124942
0.000234504
-0.00128719
0.000167757
-0.00130573
9.81772e-05
-0.0013041
2.64237e-05
-0.00128313
-4.86597e-05
-0.00124346
-0.000120466
-0.00118576
-0.000190305
-0.00111124
-0.000256872
-0.00102168
-0.000318771
-0.000918999
-0.000374903
-0.00080525
-0.000424411
-0.000682908
-0.000466017
-0.00055433
-0.000499422
-0.000421929
-0.000524074
-0.000288337
-0.000539291
-0.000155757
-0.000545684
-2.6738e-05
-0.000542587
9.67482e-05
-0.000530659
0.000212676
-0.000510453
0.000319301
-0.000482272
0.000415083
-0.00044714
0.000499146
-0.000406078
0.000570542
-0.000359745
0.000628439
-0.000309113
0.000673012
-0.000256018
0.000703754
-0.000200325
0.000721525
-0.000144611
0.000726534
-8.8723e-05
0.000719422
-3.39093e-05
0.00070131
1.83592e-05
0.000673105
6.78357e-05
0.000635906
0.000113873
0.000590901
0.000155773
0.000539371
0.000192988
0.000482592
0.000225148
0.000421855
0.000252017
0.000358259
0.0002736
0.000293212
0.000289611
0.000227778
0.000300272
0.000162967
0.000305767
9.95409e-05
0.000306463
3.86441e-05
0.000302132
-1.90784e-05
0.000293657
-7.30609e-05
0.000281419
-0.000122741
0.000265554
-0.000167639
0.000246534
-0.00020747
0.000225144
-0.000242011
0.000201427
-0.0002711
0.000176295
-0.000294592
0.000149753
-0.00031284
0.000122782
-0.000325602
9.53733e-05
-0.000333157
6.80629e-05
-0.00033572
4.12204e-05
-0.00033377
1.53949e-05
-0.000327432
-9.23097e-06
-0.000317104
-3.25499e-05
-0.000303069
-5.43004e-05
-0.000285837
-7.41536e-05
-0.000265833
-9.20156e-05
-0.000243444
-0.000107777
-0.000219092
-0.000121341
-0.000193208
-0.000132675
-0.000166184
-0.000141732
-0.000138472
-0.000148477
-0.000110354
-0.000153127
-8.22599e-05
-0.000155603
-5.44963e-05
-0.000156023
-2.73992e-05
-0.000154544
-1.1962e-06
-0.000151285
2.38149e-05
-0.000146379
4.74253e-05
-0.000139988
6.94259e-05
-0.000132239
8.96522e-05
-0.000123357
0.000108009
-0.000113498
0.000124372
-0.000102832
0.000138651
-9.1563e-05
0.000150878
-7.98785e-05
0.000160946
-6.79115e-05
0.000168974
-5.59398e-05
0.000174937
-4.39894e-05
0.000178977
-3.23545e-05
0.000181123
-2.10068e-05
0.000181523
-1.02163e-05
0.000180311
1.37033e-08
0.000177551
9.5554e-06
0.000173425
1.83799e-05
0.000168018
2.64661e-05
0.000161549
3.36689e-05
0.000154116
4.00253e-05
0.000145882
4.54883e-05
0.000137009
5.00713e-05
0.000127642
5.37141e-05
0.000117928
5.65171e-05
0.000107969
5.84438e-05
9.79432e-05
5.94865e-05
8.79179e-05
5.97566e-05
7.80887e-05
5.92122e-05
6.85411e-05
5.79103e-05
5.93992e-05
5.59033e-05
5.07907e-05
5.32784e-05
4.27708e-05
5.01149e-05
3.54305e-05
4.65105e-05
2.87646e-05
4.25972e-05
2.2792e-05
3.84889e-05
1.76018e-05
3.42273e-05
1.30931e-05
2.99684e-05
9.26837e-06
2.57499e-05
6.17521e-06
2.16127e-05
3.70255e-06
1.76707e-05
1.83615e-06
1.39566e-05
5.46454e-07
1.05544e-05
-2.77451e-07
7.54632e-06
-6.47432e-07
4.94511e-06
-6.59336e-07
2.84341e-06
-4.01649e-07
1.35186e-06
5.51893e-07
0.000637084
-0.00122671
0.00126925
-0.00121677
0.00188325
-0.00117932
0.00246504
-0.00111426
0.00299968
-0.00102086
0.0034709
-0.000899305
0.00386095
-0.000749489
0.0041609
-0.000574962
0.00436204
-0.000375659
0.00446417
-0.00016379
0.00447043
5.33754e-05
0.00437171
0.000269236
0.00417218
0.000481777
0.00388038
0.000683195
0.00350402
0.000871468
0.00305237
0.00104246
0.00253582
0.00119288
0.00196593
0.00131971
0.00135521
0.00142018
0.000717787
0.00149127
6.88949e-05
0.00153064
-0.000576003
0.00153721
-0.00120131
0.00151015
-0.00179082
0.00144902
-0.00233033
0.00135652
-0.00280517
0.00123316
-0.00320485
0.00108466
-0.00351737
0.000912793
-0.00374473
0.000734212
-0.00388696
0.00054991
-0.00395084
0.000369704
-0.0039427
0.000195442
-0.00386707
2.72774e-05
-0.00374861
-0.000112526
-0.00359081
-0.000244436
-0.00339813
-0.00036539
-0.00317613
-0.000474498
-0.00293067
-0.000571228
-0.00266716
-0.000655456
-0.00239057
-0.000727478
-0.00210543
-0.000787451
-0.0018155
-0.000836124
-0.00152446
-0.000873511
-0.00123588
-0.000899819
-0.000951753
-0.000916498
-0.000674342
-0.000922938
-0.000406507
-0.000919665
-0.000150328
-0.000906905
9.32912e-05
-0.000886134
0.00032278
-0.000856395
0.000536587
-0.000818949
0.000733138
-0.000773558
0.000911639
-0.000721343
0.00107135
-0.000662804
0.00120904
-0.000596367
0.00132609
-0.000526452
0.00142128
-0.00044951
0.00149299
-0.000369426
0.00154321
-0.000286185
0.00156995
-0.000199587
0.00157346
-0.000111632
0.00155411
-2.28545e-05
0.00151269
6.55494e-05
0.00144962
0.000152766
0.00136582
0.000237633
0.00126265
0.000318932
0.00114137
0.000395909
0.00100375
0.000467193
0.000851796
0.000531665
0.000687811
0.000588255
0.000513868
0.000636745
0.000332656
0.000675358
0.000146965
0.000703636
-4.06591e-05
0.000721597
-0.000227189
0.000728054
-0.000409682
0.000722667
-0.000585367
0.000705962
-0.000751396
0.000677528
-0.000905082
0.000637743
-0.00104385
0.000587084
-0.00116567
0.000526674
-0.00126856
0.000457011
-0.00135072
0.000379336
-0.0014111
0.000294878
-0.0014486
0.000205258
-0.0014626
0.00011218
-0.00145356
1.73828e-05
-0.00142273
-7.94902e-05
-0.00137014
-0.000173061
-0.00129729
-0.000263154
-0.00120598
-0.000348177
-0.00109833
-0.000426425
-0.000976851
-0.000496379
-0.000844043
-0.000557218
-0.000702592
-0.000607468
-0.000555689
-0.000646325
-0.000406274
-0.000673489
-0.000257066
-0.0006885
-0.000110822
-0.000691927
2.98525e-05
-0.000683262
0.000162593
-0.0006634
0.000285487
-0.000633347
0.000396782
-0.000593567
0.000495248
-0.000545606
0.000579285
-0.000490114
0.000648903
-0.000429363
0.000703357
-0.000363567
0.000742853
-0.000295515
0.000767383
-0.000224855
0.000777838
-0.000155065
0.000774843
-8.57287e-05
0.000759463
-1.85288e-05
0.000732916
4.49055e-05
0.000696244
0.000104508
0.000650894
0.000159222
0.000598251
0.000208416
0.000539741
0.000251498
0.000476764
0.000288125
0.000410656
0.000318125
0.000342566
0.00034169
0.00027384
0.000358337
0.000205786
0.000368326
0.000139236
0.000372317
7.51241e-05
0.000370575
1.41542e-05
0.000363102
-4.29752e-05
0.000350786
-9.57204e-05
0.000334164
-0.000143593
0.000313427
-0.000186293
0.000289234
-0.000223523
0.000262375
-0.000255248
0.000233152
-0.000281269
0.000202316
-0.000301855
0.000170339
-0.000316943
0.00013787
-0.000326713
0.000105143
-0.00033147
7.28194e-05
-0.000331609
4.1359e-05
-0.000327198
1.09847e-05
-0.000318731
-1.76984e-05
-0.000306591
-4.46899e-05
-0.000291201
-6.96904e-05
-0.000272861
-9.24933e-05
-0.000252022
-0.000112855
-0.00022921
-0.000130589
-0.000204768
-0.000145783
-0.000179075
-0.000158368
-0.000152558
-0.000168249
-0.000125561
-0.000175474
-9.84522e-05
-0.000180236
-7.15939e-05
-0.000182461
-4.52277e-05
-0.000182389
-1.96794e-05
-0.000180092
4.86082e-06
-0.000175826
2.81289e-05
-0.000169647
4.99442e-05
-0.000161803
7.01339e-05
-0.000152429
8.85826e-05
-0.000141805
0.000105173
-0.000130089
0.000119823
-0.000117482
0.000132489
-0.000104229
0.000143151
-9.05407e-05
0.000151847
-7.66071e-05
0.000158544
-6.2637e-05
0.000163393
-4.88387e-05
0.000166407
-3.53685e-05
0.000167758
-2.23574e-05
0.000167487
-9.9454e-06
0.00016576
1.74039e-06
0.00016268
1.26356e-05
0.000158324
2.27359e-05
0.000152907
3.18835e-05
0.000146528
4.00472e-05
0.000139323
4.72305e-05
0.000131467
5.33445e-05
0.000123066
5.84722e-05
0.000114222
6.25579e-05
0.000105106
6.56336e-05
9.58769e-05
6.76727e-05
8.65302e-05
6.88332e-05
7.73014e-05
6.89854e-05
6.82646e-05
6.8249e-05
5.95278e-05
6.66471e-05
5.11844e-05
6.42467e-05
4.33432e-05
6.11196e-05
3.61116e-05
5.73465e-05
2.95103e-05
5.31118e-05
2.35887e-05
4.85188e-05
1.83353e-05
4.37423e-05
1.3761e-05
3.88016e-05
9.84117e-06
3.38881e-05
6.58458e-06
2.90065e-05
3.92841e-06
2.42689e-05
1.88835e-06
1.97108e-05
4.12251e-07
1.54327e-05
-6.00224e-07
1.15669e-05
-1.13398e-06
8.08008e-06
-1.26972e-06
5.08085e-06