# Probe 0 (0 0 0)
# Time            0                
0                 0                
0.0025            1.58181609e-06   
0.005             -2.443912949e-06 
0.0075            -5.956225398e-06 
0.01              -9.031753208e-06 
0.0125            -1.173424452e-05 
0.015             -1.411662053e-05 
0.0175            -1.622311223e-05 
0.02              -1.809090807e-05 
0.0225            -1.975144607e-05 
0.025             -2.123142762e-05 
0.0275            -2.255363099e-05 
0.03              -2.373756511e-05 
0.0325            -2.480000003e-05 
0.035             -2.575540015e-05 
0.0375            -2.661628054e-05 
0.04              -2.739350159e-05 
0.0425            -2.809651368e-05 
0.045             -2.873356168e-05 
0.0475            -2.931185648e-05 
0.05              -2.983771932e-05 
0.0525            -3.03167039e-05  
0.055             -3.075369993e-05 
0.0575            -3.115302126e-05 
0.06              -3.15184811e-05  
0.0625            -3.185345645e-05 
0.065             -3.216094339e-05 
0.0675            -3.244360468e-05 
0.07              -3.270381084e-05 
0.0725            -3.294367568e-05 
0.075             -3.316508704e-05 
0.0775            -3.336973362e-05 
0.08              -3.355912819e-05 
0.0825            -3.373462795e-05 
0.085             -3.389745222e-05 
0.0875            -3.404869802e-05 
0.09              -3.418935365e-05 
0.0925            -3.432031067e-05 
0.095             -3.444237444e-05 
0.0975            -3.455627335e-05 
0.1               -3.466266705e-05 
0.1025            -3.476215365e-05 
0.105             -3.485527614e-05 
0.1075            -3.494252805e-05 
0.11              -3.502435848e-05 
0.1125            -3.51011766e-05  
0.115             -3.517335561e-05 
0.1175            -3.524123629e-05 
0.12              -3.530513015e-05 
0.1225            -3.536532229e-05 
0.125             -3.542207389e-05 
0.1275            -3.547562449e-05 
0.13              -3.552619402e-05 
0.1325            -3.55739846e-05  
0.135             -3.561918217e-05 
0.1375            -3.5661958e-05   
0.14              -3.570246993e-05 
0.1425            -3.574086366e-05 
0.145             -3.577727375e-05 
0.1475            -3.581182458e-05 
0.15              -3.584463132e-05 
0.1525            -3.58758006e-05  
0.155             -3.590543132e-05 
0.1575            -3.593361524e-05 
0.16              -3.596043759e-05 
0.1625            -3.598597763e-05 
0.165             -3.601030909e-05 
0.1675            -3.603350066e-05 
0.17              -3.605561634e-05 
0.1725            -3.607671585e-05 
0.175             -3.609685494e-05 
0.1775            -3.611608571e-05 
0.18              -3.613445687e-05 
0.1825            -3.615201403e-05 
0.185             -3.616879989e-05 
0.1875            -3.618485448e-05 
0.19              -3.620021534e-05 
0.1925            -3.621491774e-05 
0.195             -3.622899479e-05 
0.1975            -3.62424776e-05  
0.2               -3.625539548e-05 
0.2025            -3.626777598e-05 
0.205             -3.627964507e-05 
0.2075            -3.629102724e-05 
0.21              -3.630194558e-05 
0.2125            -3.631242187e-05 
0.215             -3.632247671e-05 
0.2175            -3.633212953e-05 
0.22              -3.634139873e-05 
0.2225            -3.635030171e-05 
0.225             -3.635885495e-05 
0.2275            -3.636707405e-05 
0.23              -3.637497379e-05 
0.2325            -3.638256819e-05 
0.235             -3.638987056e-05 
0.2375            -3.639689352e-05 
0.24              -3.640364907e-05 
0.2425            -3.641014859e-05 
0.245             -3.641640293e-05 
0.2475            -3.642242238e-05 
0.25              -3.642821673e-05 
0.2525            -3.643379532e-05 
0.255             -3.643916703e-05 
0.2575            -3.644434033e-05 
0.26              -3.644932329e-05 
0.2625            -3.64541236e-05  
0.265             -3.645874859e-05 
0.2675            -3.646320528e-05 
0.27              -3.646750034e-05 
0.2725            -3.647164017e-05 
0.275             -3.647563085e-05 
0.2775            -3.647947823e-05 
0.28              -3.648318786e-05 
0.2825            -3.648676508e-05 
0.285             -3.6490215e-05   
0.2875            -3.649354247e-05 
0.29              -3.649675218e-05 
0.2925            -3.649984863e-05 
0.295             -3.650283606e-05 
0.2975            -3.650571858e-05 
0.3               -3.650850013e-05 
0.3025            -3.651118446e-05 
0.305             -3.651377519e-05 
0.3075            -3.651627579e-05 
0.31              -3.651868959e-05 
0.3125            -3.652101977e-05 
0.315             -3.65232694e-05  
0.3175            -3.652544141e-05 
0.32              -3.652753863e-05 
0.3225            -3.652956377e-05 
0.325             -3.653151944e-05 
0.3275            -3.653340813e-05 
0.33              -3.653523225e-05 
0.3325            -3.653699411e-05 
0.335             -3.653869594e-05 
0.3375            -3.654033987e-05 
0.34              -3.654192797e-05 
0.3425            -3.65434622e-05  
0.345             -3.654494446e-05 
0.3475            -3.654637659e-05 
0.35              -3.654776035e-05 
0.3525            -3.654909743e-05 
0.355             -3.655038947e-05 
0.3575            -3.655163803e-05 
0.36              -3.655284464e-05 
0.3625            -3.655401075e-05 
0.365             -3.655513776e-05 
0.3675            -3.655622702e-05 
0.37              -3.655727985e-05 
0.3725            -3.655829749e-05 
0.375             -3.655928115e-05 
0.3775            -3.656023201e-05 
0.38              -3.656115118e-05 
0.3825            -3.656203975e-05 
0.385             -3.656289877e-05 
0.3875            -3.656372925e-05 
0.39              -3.656453214e-05 
0.3925            -3.65653084e-05  
0.395             -3.656605893e-05 
0.3975            -3.656678459e-05 
0.4               -3.656748624e-05 
0.4025            -3.656816468e-05 
0.405             -3.65688207e-05  
0.4075            -3.656945505e-05 
0.41              -3.657006846e-05 
0.4125            -3.657066164e-05 
0.415             -3.657123526e-05 
0.4175            -3.657178999e-05 
0.42              -3.657232645e-05 
0.4225            -3.657284526e-05 
0.425             -3.657334702e-05 
0.4275            -3.657383227e-05 
0.43              -3.657430159e-05 
0.4325            -3.657475549e-05 
0.435             -3.65751945e-05  
0.4375            -3.657561911e-05 
0.44              -3.657602979e-05 
0.4425            -3.657642702e-05 
0.445             -3.657681123e-05 
0.4475            -3.657718286e-05 
0.45              -3.657754233e-05 
0.4525            -3.657789004e-05 
0.455             -3.657822637e-05 
0.4575            -3.657855171e-05 
0.46              -3.657886642e-05 
0.4625            -3.657917084e-05 
0.465             -3.657946533e-05 
0.4675            -3.65797502e-05  
0.47              -3.658002577e-05 
0.4725            -3.658029235e-05 
0.475             -3.658055024e-05 
0.4775            -3.658079971e-05 
0.48              -3.658104107e-05 
0.4825            -3.658127455e-05 
0.485             -3.658150042e-05 
0.4875            -3.658171894e-05 
0.49              -3.658193034e-05 
0.4925            -3.658213487e-05 
0.495             -3.658233273e-05 
0.4975            -3.658252415e-05 
0.5               -3.658270936e-05 
