# Probe 0 (0 0 0)
# Time            0                
0                 100000           
0.0025            102216.5244      
0.005             104235.8448      
0.0075            106077.2672      
0.01              107758.6963      
0.0125            109295.8593      
0.015             110702.6287      
0.0175            111991.2887      
0.02              113172.7556      
0.0225            114256.7623      
0.025             115252.0123      
0.0275            116166.3104      
0.03              117006.6733      
0.0325            117779.4238      
0.035             118490.2723      
0.0375            119144.3862      
0.04              119746.4506      
0.0425            120300.7204      
0.045             120811.0665      
0.0475            121281.0154      
0.05              121713.7849      
0.0525            122112.3143      
0.055             122479.2923      
0.0575            122817.1811      
0.06              123128.2379      
0.0625            123414.5337      
0.065             123677.9712      
0.0675            123920.2991      
0.07              124143.1266      
0.0725            124347.9353      
0.075             124536.0904      
0.0775            124708.8506      
0.08              124867.3771      
0.0825            125012.7422      
0.085             125145.9358      
0.0875            125267.8731      
0.09              125379.4001      
0.0925            125481.2991      
0.095             125574.2941      
0.0975            125659.0554      
0.1               125736.2032      
0.1025            125806.3125      
0.105             125869.9156      
0.1075            125927.506       
0.11              125979.541       
0.1125            126026.4446      
0.115             126068.6099      
0.1175            126106.4016      
0.12              126140.1578      
0.1225            126170.1922      
0.125             126196.7958      
0.1275            126220.2386      
0.13              126240.7709      
0.1325            126258.6251      
0.135             126274.0167      
0.1375            126287.1458      
0.14              126298.1977      
0.1425            126307.3446      
0.145             126314.746       
0.1475            126320.5498      
0.15              126324.8933      
0.1525            126327.9036      
0.155             126329.6985      
0.1575            126330.3874      
0.16              126330.0714      
0.1625            126328.8441      
0.165             126326.7924      
0.1675            126323.9963      
0.17              126320.5303      
0.1725            126316.463       
0.175             126311.8578      
0.1775            126306.7734      
0.18              126301.2638      
0.1825            126295.3791      
0.185             126289.1652      
0.1875            126282.6647      
0.19              126275.9166      
0.1925            126268.9568      
0.195             126261.8184      
0.1975            126254.5318      
0.2               126247.1248      
0.2025            126239.6229      
0.205             126232.0495      
0.2075            126224.426       
0.21              126216.7717      
0.2125            126209.1046      
0.215             126201.4407      
0.2175            126193.7947      
0.22              126186.1799      
0.2225            126178.6083      
0.225             126171.0907      
0.2275            126163.6368      
0.23              126156.2555      
0.2325            126148.9544      
0.235             126141.7405      
0.2375            126134.6198      
0.24              126127.5978      
0.2425            126120.6792      
0.245             126113.8679      
0.2475            126107.1675      
0.25              126100.581       
0.2525            126094.1108      
0.255             126087.7588      
0.2575            126081.5268      
0.26              126075.4159      
0.2625            126069.427       
0.265             126063.5606      
0.2675            126057.8171      
0.27              126052.1964      
0.2725            126046.6983      
0.275             126041.3224      
0.2775            126036.068       
0.28              126030.9342      
0.2825            126025.9202      
0.285             126021.0247      
0.2875            126016.2466      
0.29              126011.5844      
0.2925            126007.0367      
0.295             126002.602       
0.2975            125998.2785      
0.3               125994.0647      
0.3025            125989.9587      
0.305             125985.9588      
0.3075            125982.063       
0.31              125978.2696      
0.3125            125974.5766      
0.315             125970.982       
0.3175            125967.484       
0.32              125964.0805      
0.3225            125960.7696      
0.325             125957.5493      
0.3275            125954.4177      
0.33              125951.3729      
0.3325            125948.4128      
0.335             125945.5355      
0.3375            125942.7391      
0.34              125940.0218      
0.3425            125937.3816      
0.345             125934.8166      
0.3475            125932.3251      
0.35              125929.9051      
0.3525            125927.555       
0.355             125925.273       
0.3575            125923.0572      
0.36              125920.9061      
0.3625            125918.8179      
0.365             125916.7911      
0.3675            125914.8239      
0.37              125912.9147      
0.3725            125911.0622      
0.375             125909.2646      
0.3775            125907.5205      
0.38              125905.8285      
0.3825            125904.1872      
0.385             125902.595       
0.3875            125901.0507      
0.39              125899.553       
0.3925            125898.1004      
0.395             125896.6919      
0.3975            125895.326       
0.4               125894.0016      
0.4025            125892.7175      
0.405             125891.4725      
0.4075            125890.2656      
0.41              125889.0956      
0.4125            125887.9614      
0.415             125886.8621      
0.4175            125885.7965      
0.42              125884.7637      
0.4225            125883.7628      
0.425             125882.7927      
0.4275            125881.8527      
0.43              125880.9417      
0.4325            125880.0589      
0.435             125879.2036      
0.4375            125878.3748      
0.44              125877.5717      
0.4425            125876.7937      
0.445             125876.0399      
0.4475            125875.3097      
0.45              125874.6022      
0.4525            125873.9169      
0.455             125873.2529      
0.4575            125872.6098      
0.46              125871.9869      
0.4625            125871.3834      
0.465             125870.799       
0.4675            125870.2328      
0.47              125869.6845      
0.4725            125869.1535      
0.475             125868.6391      
0.4775            125868.141       
0.48              125867.6586      
0.4825            125867.1914      
0.485             125866.739       
0.4875            125866.3008      
0.49              125865.8765      
0.4925            125865.4657      
0.495             125865.0678      
0.4975            125864.6826      
0.5               125864.3095      
