# Selection       : all 
# Volume          : 1.0000000000e-01
# Time            	volIntegrate(rho)
1                 	1.1586251860e-01
