/*--------------------------------*- C++ -*----------------------------------*\
  =========                 |
  \\      /  F ield         | OpenFOAM: The Open Source CFD Toolbox
   \\    /   O peration     | Website:  https://openfoam.org
    \\  /    A nd           | Version:  12
     \\/     M anipulation  |
\*---------------------------------------------------------------------------*/
FoamFile
{
    format      ascii;
    class       surfaceScalarField;
    location    "0.2";
    object      phi;
}
// * * * * * * * * * * * * * * * * * * * * * * * * * * * * * * * * * * * * * //

dimensions      [1 0 -1 0 0 0 0];

internalField   nonuniform List<scalar> 
7429
(
-1.86223e-05
1.86223e-05
-3.74553e-05
1.88329e-05
-5.64836e-05
1.90283e-05
-7.56958e-05
1.92122e-05
-9.50794e-05
1.93836e-05
-0.00011462
1.95409e-05
-0.000134302
1.96822e-05
-0.000154108
1.9805e-05
-0.000174016
1.99083e-05
-0.000194006
1.99899e-05
-0.000214049
2.00431e-05
-0.000234116
2.00674e-05
-0.000254178
2.00622e-05
-0.000274197
2.00184e-05
-0.000294133
1.99363e-05
-0.000313944
1.98108e-05
-0.000333581
1.9637e-05
-0.000352995
1.94137e-05
-0.000372131
1.91362e-05
-0.000390933
1.88017e-05
-0.00040934
1.84075e-05
-0.000427292
1.79516e-05
-0.000444726
1.74338e-05
-0.000461577
1.68512e-05
-0.000477784
1.62072e-05
-0.000493283
1.54989e-05
-0.000508015
1.47321e-05
-0.000521922
1.39072e-05
-0.000534953
1.30308e-05
-0.000547059
1.21056e-05
-0.000558199
1.11403e-05
-0.000568341
1.01425e-05
-0.000577444
9.10219e-06
-0.000585463
8.01948e-06
-0.000592368
6.90532e-06
-0.000598135
5.76689e-06
-0.000602748
4.61317e-06
-0.000606201
3.45215e-06
-0.00060849
2.28939e-06
-0.000609617
1.12702e-06
-0.000609557
-5.95409e-08
-0.000608511
-1.04659e-06
-0.000606464
-2.04677e-06
-0.000603442
-3.02236e-06
-0.000599478
-3.96405e-06
-0.000594612
-4.86577e-06
-0.000588888
-5.72424e-06
-0.000582352
-6.53534e-06
-0.000575055
-7.29777e-06
-0.000567046
-8.00844e-06
-0.000558379
-8.66746e-06
-0.000549106
-9.27258e-06
-0.000539281
-9.82461e-06
-0.000528958
-1.03237e-05
-0.000518189
-1.07691e-05
-0.000507023
-1.11651e-05
-0.000495519
-1.15046e-05
-0.000483718
-1.18011e-05
-0.000471674
-1.20434e-05
-0.000459427
-1.22477e-05
-0.000447025
-1.24014e-05
-0.000434509
-1.25163e-05
-0.000421919
-1.25898e-05
-0.000409295
-1.2624e-05
-0.000396669
-1.26262e-05
-0.000384075
-1.25937e-05
-0.000371542
-1.25336e-05
-0.000359098
-1.24435e-05
-0.000346772
-1.23257e-05
-0.00033459
-1.21827e-05
-0.000322565
-1.2025e-05
-0.000310723
-1.1842e-05
-0.000299083
-1.16401e-05
-0.000287654
-1.14291e-05
-0.000276451
-1.12027e-05
-0.000265492
-1.09591e-05
-0.000254781
-1.07108e-05
-0.000244329
-1.04521e-05
-0.000234144
-1.01847e-05
-0.000224234
-9.91026e-06
-0.000214598
-9.63604e-06
-0.000205244
-9.35408e-06
-0.000196172
-9.07153e-06
-0.000187386
-8.78655e-06
-0.000178883
-8.50274e-06
-0.000170662
-8.2207e-06
-0.000162726
-7.93653e-06
-0.00015507
-7.65584e-06
-0.000147691
-7.37909e-06
-0.000140586
-7.10475e-06
-0.000133751
-6.83543e-06
-0.000127181
-6.5697e-06
-0.000120873
-6.30821e-06
-0.000114818
-6.05469e-06
-0.000109014
-5.80451e-06
-0.000103452
-5.5613e-06
-9.81271e-05
-5.32514e-06
-9.30335e-05
-5.09356e-06
-8.81616e-05
-4.87189e-06
-8.35066e-05
-4.65504e-06
-7.90621e-05
-4.44453e-06
-7.48196e-05
-4.24247e-06
-7.0774e-05
-4.04564e-06
-6.6917e-05
-3.85699e-06
-6.32425e-05
-3.67444e-06
-5.97446e-05
-3.49797e-06
-5.64162e-05
-3.32831e-06
-5.32511e-05
-3.1652e-06
-5.02433e-05
-3.00775e-06
-4.73868e-05
-2.85651e-06
-4.46755e-05
-2.71124e-06
-4.21049e-05
-2.57065e-06
-3.96681e-05
-2.43679e-06
-3.73612e-05
-2.30686e-06
-3.51785e-05
-2.18279e-06
-3.31146e-05
-2.06388e-06
-3.11646e-05
-1.95e-06
-2.93243e-05
-1.84031e-06
-2.75887e-05
-1.73559e-06
-2.59526e-05
-1.63607e-06
-2.44116e-05
-1.541e-06
-2.29612e-05
-1.45042e-06
-2.15966e-05
-1.36454e-06
-2.03131e-05
-1.28349e-06
-1.91067e-05
-1.20642e-06
-1.7973e-05
-1.13367e-06
-1.69078e-05
-1.06522e-06
-1.59076e-05
-1.00027e-06
-1.49684e-05
-9.39147e-07
-1.4087e-05
-8.81423e-07
-1.32604e-05
-8.26592e-07
-1.24855e-05
-7.74922e-07
-1.17594e-05
-7.26097e-07
-1.10795e-05
-6.79913e-07
-1.04429e-05
-6.3657e-07
-9.84702e-06
-5.95876e-07
-9.28908e-06
-5.57933e-07
-8.76607e-06
-5.23011e-07
-8.27501e-06
-4.91063e-07
-7.81302e-06
-4.61986e-07
-7.37733e-06
-4.35693e-07
-6.96548e-06
-4.11844e-07
-6.57549e-06
-3.89989e-07
-6.20616e-06
-3.69339e-07
-5.85678e-06
-3.49375e-07
-5.52716e-06
-3.29615e-07
-5.21776e-06
-3.09401e-07
-4.92921e-06
-2.88552e-07
-4.66218e-06
-2.67034e-07
-4.4173e-06
-2.44881e-07
-4.19495e-06
-2.22347e-07
-3.99523e-06
-1.99715e-07
-3.81808e-06
-1.77157e-07
-3.66321e-06
-1.54868e-07
-3.53028e-06
-1.32924e-07
-3.41899e-06
-1.11293e-07
-3.32886e-06
-9.01306e-08
-3.25945e-06
-6.94082e-08
-3.21019e-06
-4.92622e-08
-3.18018e-06
-3.00134e-08
-3.16798e-06
-1.22005e-08
-3.17066e-06
2.6795e-09
-3.18506e-06
1.44015e-08
-3.2076e-06
2.25418e-08
-3.23437e-06
2.677e-08
-3.26171e-06
2.73427e-08
-3.28664e-06
2.49253e-08
-3.30702e-06
2.03833e-08
-3.32154e-06
1.45198e-08
-3.32946e-06
7.92314e-09
-3.33041e-06
9.47068e-10
-3.32426e-06
-6.15359e-09
-3.31158e-06
-1.26805e-08
-3.29361e-06
-1.79653e-08
-3.27257e-06
-2.10379e-08
-3.25145e-06
-2.11205e-08
-3.2334e-06
-1.80535e-08
-3.22087e-06
-1.25244e-08
-3.21484e-06
-6.02983e-09
-3.21469e-06
-1.51203e-10
-3.21747e-06
2.77836e-09
-3.21954e-06
2.06972e-09
-3.21718e-06
-2.36449e-09
-3.20791e-06
-9.26705e-09
-3.19226e-06
-1.56527e-08
-3.17404e-06
-1.8218e-08
-3.15986e-06
-1.41768e-08
-3.15701e-06
-2.85605e-09
-3.17049e-06
1.34883e-08
-3.19877e-06
2.82798e-08
-3.23187e-06
3.30978e-08
-3.25102e-06
1.91473e-08
-3.23078e-06
-2.02431e-08
-3.13852e-06
-9.22558e-08
-2.94462e-06
-1.93901e-07
-2.62398e-06
-3.20641e-07
-2.16063e-06
-4.6335e-07
-1.55231e-06
-6.0832e-07
-8.16903e-07
-7.35406e-07
-8.16903e-07
-1.74973e-05
3.61196e-05
-3.51979e-05
3.65335e-05
-5.31011e-05
3.69315e-05
-7.12061e-05
3.73172e-05
-8.95114e-05
3.76889e-05
-0.000108014
3.80436e-05
-0.000126709
3.83769e-05
-0.000145587
3.86833e-05
-0.000164639
3.89596e-05
-0.000183849
3.91999e-05
-0.000203195
3.93891e-05
-0.000222651
3.95241e-05
-0.00024219
3.9601e-05
-0.000261771
3.9599e-05
-0.00028135
3.95157e-05
-0.000300877
3.93379e-05
-0.000320293
3.90528e-05
-0.000339535
3.86556e-05
-0.000358534
3.81345e-05
-0.000377213
3.74813e-05
-0.000395495
3.66894e-05
-0.000413297
3.57538e-05
-0.000430537
3.46734e-05
-0.000447129
3.34432e-05
-0.000462993
3.20707e-05
-0.000478046
3.05522e-05
-0.000492216
2.89018e-05
-0.000505432
2.71235e-05
-0.000517635
2.52338e-05
-0.000528773
2.32432e-05
-0.000538806
2.11739e-05
-0.000547694
1.90301e-05
-0.000555388
1.67962e-05
-0.00056186
1.44914e-05
-0.000567095
1.21406e-05
-0.000571089
9.76072e-06
-0.000573847
7.37138e-06
-0.000575385
4.98962e-06
-0.000575714
2.61915e-06
-0.00057479
2.031e-07
-0.000573011
-1.83882e-06
-0.00057019
-3.86818e-06
-0.000566398
-5.83888e-06
-0.000561688
-7.73222e-06
-0.000556115
-9.53719e-06
-0.000549735
-1.12451e-05
-0.000542607
-1.28524e-05
-0.000534789
-1.4353e-05
-0.00052634
-1.57468e-05
-0.000517319
-1.70294e-05
-0.000507783
-1.82035e-05
-0.00049779
-1.92662e-05
-0.000487393
-2.02212e-05
-0.000476646
-2.10704e-05
-0.000465602
-2.18136e-05
-0.000454306
-2.24612e-05
-0.000442811
-2.29999e-05
-0.000431154
-2.34578e-05
-0.000419384
-2.38135e-05
-0.000407531
-2.40999e-05
-0.00039564
-2.4293e-05
-0.00038374
-2.44162e-05
-0.000371865
-2.44648e-05
-0.000360045
-2.44437e-05
-0.000348305
-2.43667e-05
-0.000336669
-2.42291e-05
-0.000325159
-2.40445e-05
-0.000313794
-2.38083e-05
-0.000302594
-2.35251e-05
-0.000291578
-2.31993e-05
-0.000280752
-2.28508e-05
-0.000270135
-2.24592e-05
-0.000259738
-2.20367e-05
-0.000249566
-2.16014e-05
-0.000239627
-2.1141e-05
-0.000229934
-2.0652e-05
-0.000220487
-2.01582e-05
-0.000211291
-1.96483e-05
-0.00020235
-1.91251e-05
-0.000193669
-1.85915e-05
-0.000185244
-1.80608e-05
-0.000177081
-1.75178e-05
-0.000169177
-1.69757e-05
-0.000161532
-1.64308e-05
-0.000154146
-1.58896e-05
-0.000147013
-1.53532e-05
-0.000140136
-1.4814e-05
-0.000133509
-1.42825e-05
-0.000127129
-1.37593e-05
-0.000120992
-1.32417e-05
-0.000115093
-1.27342e-05
-0.000109428
-1.22343e-05
-0.000103994
-1.17431e-05
-9.87807e-05
-1.12675e-05
-9.37864e-05
-1.07988e-05
-8.90039e-05
-1.03438e-05
-8.44267e-05
-9.90242e-06
-8.00501e-05
-9.47015e-06
-7.58652e-05
-9.05679e-06
-7.18674e-05
-8.65283e-06
-6.80509e-05
-8.261e-06
-6.44082e-05
-7.88518e-06
-6.09345e-05
-7.51937e-06
-5.76225e-05
-7.16892e-06
-5.44671e-05
-6.8299e-06
-5.14628e-05
-6.50227e-06
-4.86038e-05
-6.18731e-06
-4.58844e-05
-5.88454e-06
-4.32999e-05
-5.59229e-06
-4.08449e-05
-5.31155e-06
-3.85142e-05
-5.04186e-06
-3.63041e-05
-4.78076e-06
-3.42088e-05
-4.53211e-06
-3.22251e-05
-4.29061e-06
-3.03479e-05
-4.0599e-06
-2.85732e-05
-3.83866e-06
-2.68965e-05
-3.62665e-06
-2.53145e-05
-3.42234e-06
-2.38228e-05
-3.22724e-06
-2.24171e-05
-3.04179e-06
-2.10934e-05
-2.8647e-06
-1.98478e-05
-2.69603e-06
-1.86761e-05
-2.53627e-06
-1.75739e-05
-2.38566e-06
-1.65377e-05
-2.24259e-06
-1.55637e-05
-2.10769e-06
-1.46481e-05
-1.98087e-06
-1.37878e-05
-1.86059e-06
-1.29795e-05
-1.74742e-06
-1.22204e-05
-1.64048e-06
-1.15082e-05
-1.5388e-06
-1.08403e-05
-1.44281e-06
-1.02145e-05
-1.35192e-06
-9.62869e-06
-1.26573e-06
-9.08061e-06
-1.18465e-06
-8.56807e-06
-1.10842e-06
-8.08866e-06
-1.03734e-06
-7.63961e-06
-9.72063e-07
-7.21803e-06
-9.12642e-07
-6.82101e-06
-8.58999e-07
-6.4457e-06
-8.11007e-07
-6.08957e-06
-7.6797e-07
-5.75067e-06
-7.28892e-07
-5.42795e-06
-6.92062e-07
-5.12106e-06
-6.5626e-07
-4.83031e-06
-6.20371e-07
-4.55669e-06
-5.83013e-07
-4.3014e-06
-5.43849e-07
-4.06547e-06
-5.02958e-07
-3.84974e-06
-4.60612e-07
-3.65458e-06
-4.17507e-07
-3.47994e-06
-3.74353e-07
-3.32555e-06
-3.31553e-07
-3.19099e-06
-2.8943e-07
-3.07585e-06
-2.48058e-07
-2.97986e-06
-2.07286e-07
-2.90275e-06
-1.67241e-07
-2.84433e-06
-1.27825e-07
-2.80437e-06
-8.92256e-08
-2.78237e-06
-5.20151e-08
-2.77726e-06
-1.73076e-08
-2.78623e-06
1.16474e-08
-2.80641e-06
3.45882e-08
-2.83381e-06
4.9937e-08
-2.86416e-06
5.71202e-08
-2.89362e-06
5.68011e-08
-2.9193e-06
5.06053e-08
-2.93948e-06
4.05619e-08
-2.95337e-06
2.84144e-08
-2.96064e-06
1.51888e-08
-2.96109e-06
1.39618e-09
-2.95455e-06
-1.26947e-08
-2.94112e-06
-2.61058e-08
-2.92185e-06
-3.72342e-08
-2.89909e-06
-4.37993e-08
-2.87631e-06
-4.38981e-08
-2.85735e-06
-3.70166e-08
-2.84523e-06
-2.46418e-08
-2.8413e-06
-9.96509e-09
-2.84434e-06
2.88893e-09
-2.85113e-06
9.57572e-09
-2.85698e-06
7.91478e-09
-2.85716e-06
-2.18196e-09
-2.84804e-06
-1.83929e-08
-2.82986e-06
-3.38273e-08
-2.80696e-06
-4.11221e-08
-2.78751e-06
-3.36218e-08
-2.78118e-06
-9.18533e-09
-2.7956e-06
2.7909e-08
-2.83122e-06
6.38935e-08
-2.87884e-06
8.07236e-08
-2.91909e-06
5.93898e-08
-2.92702e-06
-1.23113e-08
-2.86973e-06
-1.49545e-07
-2.71731e-06
-3.46315e-07
-2.44373e-06
-5.94229e-07
-2.03042e-06
-8.76654e-07
-1.47132e-06
-1.16742e-06
-7.80385e-07
-1.42634e-06
-1.59729e-06
-1.64417e-05
5.25613e-05
-3.30999e-05
5.31917e-05
-5.00067e-05
5.38382e-05
-6.71892e-05
5.44997e-05
-8.46716e-05
5.51712e-05
-0.000102479
5.58511e-05
-0.000120634
5.6532e-05
-0.000139154
5.72034e-05
-0.000158052
5.78569e-05
-0.000177331
5.84789e-05
-0.000196982
5.90401e-05
-0.000216986
5.95283e-05
-0.000237314
5.99289e-05
-0.000257916
6.0201e-05
-0.000278732
6.03317e-05
-0.000299686
6.02918e-05
-0.000320686
6.00527e-05
-0.00034163
5.95992e-05
-0.000362401
5.8906e-05
-0.000382875
5.7955e-05
-0.000402917
5.67318e-05
-0.00042239
5.52261e-05
-0.000441152
5.34362e-05
-0.000459065
5.13561e-05
-0.000475996
4.90015e-05
-0.000491817
4.63737e-05
-0.000506419
4.35034e-05
-0.000519704
4.04081e-05
-0.000531596
3.71265e-05
-0.000542044
3.36906e-05
-0.000551009
3.0139e-05
-0.000558417
2.6438e-05
-0.000564247
2.26261e-05
-0.000568503
1.87476e-05
-0.000571211
1.48483e-05
-0.000572411
1.09613e-05
-0.000572156
7.11653e-06
-0.000570483
3.31607e-06
-0.000567432
-4.31903e-07
-0.000563577
-3.65133e-06
-0.00055859
-6.82593e-06
-0.000552588
-9.87073e-06
-0.000545665
-1.27612e-05
-0.000537912
-1.54859e-05
-0.000529412
-1.80367e-05
-0.000520251
-2.04066e-05
-0.000510506
-2.2597e-05
-0.000500256
-2.46034e-05
-0.000489571
-2.64314e-05
-0.000478522
-2.80789e-05
-0.000467171
-2.95545e-05
-0.000455579
-3.0858e-05
-0.000443801
-3.19986e-05
-0.000431889
-3.29828e-05
-0.00041989
-3.38129e-05
-0.000407843
-3.45074e-05
-0.000395795
-3.50479e-05
-0.000383774
-3.54792e-05
-0.000371817
-3.57702e-05
-0.000359946
-3.59714e-05
-0.000348191
-3.60477e-05
-0.000336572
-3.60349e-05
-0.000325111
-3.59262e-05
-0.000313825
-3.57292e-05
-0.000302728
-3.54642e-05
-0.000291832
-3.51244e-05
-0.000281148
-3.47292e-05
-0.000270685
-3.42716e-05
-0.000260452
-3.37579e-05
-0.000250457
-3.31942e-05
-0.000240699
-3.26085e-05
-0.000231187
-3.19711e-05
-0.000221925
-3.12987e-05
-0.00021291
-3.06163e-05
-0.000204145
-2.99064e-05
-0.000195633
-2.91637e-05
-0.000187371
-2.84209e-05
-0.000179357
-2.76615e-05
-0.000171594
-2.68889e-05
-0.000164079
-2.61065e-05
-0.000156807
-2.53326e-05
-0.000149779
-2.45453e-05
-0.000142992
-2.37628e-05
-0.000136444
-2.29794e-05
-0.000130129
-2.22039e-05
-0.000124045
-2.14375e-05
-0.00011819
-2.06694e-05
-0.000112558
-1.99139e-05
-0.000107145
-1.9172e-05
-0.000101948
-1.84394e-05
-9.69591e-05
-1.77227e-05
-9.21755e-05
-1.7018e-05
-8.75917e-05
-1.63269e-05
-8.32004e-05
-1.56588e-05
-7.89974e-05
-1.50018e-05
-7.49761e-05
-1.4365e-05
-7.11301e-05
-1.37485e-05
-6.74547e-05
-1.31456e-05
-6.39416e-05
-1.25699e-05
-6.05864e-05
-1.20081e-05
-5.73836e-05
-1.14637e-05
-5.43266e-05
-1.09422e-05
-5.14111e-05
-1.04349e-05
-4.86309e-05
-9.94914e-06
-4.59813e-05
-9.47947e-06
-4.34579e-05
-9.02571e-06
-4.10557e-05
-8.58954e-06
-3.87699e-05
-8.17029e-06
-3.65966e-05
-7.76558e-06
-3.45314e-05
-7.37675e-06
-3.25701e-05
-7.00312e-06
-3.07096e-05
-6.64126e-06
-2.89453e-05
-6.29645e-06
-2.72746e-05
-5.96131e-06
-2.56936e-05
-5.64085e-06
-2.41991e-05
-5.33324e-06
-2.27875e-05
-5.03817e-06
-2.14563e-05
-4.75358e-06
-2.02019e-05
-4.48165e-06
-1.90205e-05
-4.22315e-06
-1.79088e-05
-3.97639e-06
-1.68633e-05
-3.74161e-06
-1.588e-05
-3.51957e-06
-1.4955e-05
-3.31063e-06
-1.4085e-05
-3.11254e-06
-1.32666e-05
-2.9261e-06
-1.24964e-05
-2.75109e-06
-1.17718e-05
-2.58522e-06
-1.109e-05
-2.42919e-06
-1.04489e-05
-2.28163e-06
-9.8466e-06
-2.14106e-06
-9.28142e-06
-2.00799e-06
-8.75184e-06
-1.8815e-06
-8.25654e-06
-1.76103e-06
-7.79396e-06
-1.64723e-06
-7.36246e-06
-1.53991e-06
-6.96001e-06
-1.43979e-06
-6.58395e-06
-1.34812e-06
-6.23123e-06
-1.26536e-06
-5.89855e-06
-1.19168e-06
-5.58255e-06
-1.12701e-06
-5.28027e-06
-1.07025e-06
-4.98954e-06
-1.01962e-06
-4.70947e-06
-9.72137e-07
-4.44024e-06
-9.25486e-07
-4.18306e-06
-8.77551e-07
-3.94003e-06
-8.26045e-07
-3.71334e-06
-7.70536e-07
-3.50477e-06
-7.11533e-07
-3.31539e-06
-6.49995e-07
-3.14545e-06
-5.87445e-07
-2.99452e-06
-5.25279e-07
-2.86189e-06
-4.6419e-07
-2.74678e-06
-4.04536e-07
-2.64863e-06
-3.46204e-07
-2.56724e-06
-2.88679e-07
-2.50257e-06
-2.31916e-07
-2.45484e-06
-1.75556e-07
-2.42438e-06
-1.19681e-07
-2.41149e-06
-6.49081e-08
-2.41556e-06
-1.32372e-08
-2.43421e-06
3.03029e-08
-2.46422e-06
6.45916e-08
-2.50061e-06
8.63325e-08
-2.53811e-06
9.46211e-08
-2.57218e-06
9.08689e-08
-2.59994e-06
7.83625e-08
-2.62039e-06
6.10091e-08
-2.6337e-06
4.17282e-08
-2.64032e-06
2.18116e-08
-2.64029e-06
1.36284e-09
-2.63301e-06
-1.99751e-08
-2.61781e-06
-4.13059e-08
-2.59526e-06
-5.9785e-08
-2.568e-06
-7.1056e-08
-2.54066e-06
-7.12403e-08
-2.5186e-06
-5.90711e-08
-2.50612e-06
-3.71255e-08
-2.50505e-06
-1.10357e-08
-2.51363e-06
1.14655e-08
-2.52752e-06
2.34648e-08
-2.54021e-06
2.06048e-08
-2.54466e-06
2.27349e-09
-2.53561e-06
-2.74447e-08
-2.51211e-06
-5.7323e-08
-2.47955e-06
-7.36815e-08
-2.44924e-06
-6.39406e-08
-2.43543e-06
-2.29886e-08
-2.45053e-06
4.30027e-08
-2.498e-06
1.1137e-07
-2.56927e-06
1.51993e-07
-2.64319e-06
1.33308e-07
-2.6897e-06
3.42005e-08
-2.67831e-06
-1.60939e-07
-2.57443e-06
-4.50192e-07
-2.34985e-06
-8.18812e-07
-1.98194e-06
-1.24456e-06
-1.4573e-06
-1.69206e-06
-7.8397e-07
-2.09967e-06
-2.38126e-06
-1.39826e-05
6.65439e-05
-2.82326e-05
6.74416e-05
-4.28602e-05
6.84658e-05
-5.79755e-05
6.96151e-05
-7.36832e-05
7.08788e-05
-9.00699e-05
7.22378e-05
-0.000107201
7.36628e-05
-0.000125112
7.51146e-05
-0.00014386
7.66051e-05
-0.000163496
7.81153e-05
-0.000184042
7.95859e-05
-0.00020549
8.09765e-05
-0.000227805
8.22434e-05
-0.00025091
8.33063e-05
-0.000274703
8.41245e-05
-0.000299047
8.46358e-05
-0.000323775
8.47809e-05
-0.000348697
8.4521e-05
-0.000373598
8.38063e-05
-0.000398242
8.25992e-05
-0.000422381
8.08709e-05
-0.000445758
7.86029e-05
-0.000468114
7.57929e-05
-0.000489197
7.24385e-05
-0.00050877
6.85744e-05
-0.000526617
6.42217e-05
-0.000542564
5.94501e-05
-0.000556474
5.4318e-05
-0.000568267
4.89198e-05
-0.000577913
4.33357e-05
-0.000585297
3.75233e-05
-0.000590413
3.15538e-05
-0.000593316
2.55291e-05
-0.000594099
1.95304e-05
-0.000592886
1.36362e-05
-0.000589796
7.8707e-06
-0.000584887
2.20769e-06
-0.000578679
-2.89228e-06
-0.000571521
-7.58926e-06
-0.000563099
-1.20734e-05
-0.000553634
-1.6291e-05
-0.000543277
-2.02276e-05
-0.000532167
-2.38719e-05
-0.000520428
-2.72247e-05
-0.000508177
-3.02873e-05
-0.000495523
-3.30614e-05
-0.000482559
-3.55601e-05
-0.000469377
-3.77863e-05
-0.000456051
-3.9757e-05
-0.000442653
-4.14764e-05
-0.000429244
-4.29639e-05
-0.000415878
-4.42242e-05
-0.000402601
-4.52757e-05
-0.000389452
-4.61311e-05
-0.000376468
-4.67972e-05
-0.000363673
-4.73021e-05
-0.000351099
-4.76227e-05
-0.000338756
-4.78215e-05
-0.000326669
-4.78576e-05
-0.000314841
-4.77995e-05
-0.000303288
-4.76004e-05
-0.000292015
-4.73082e-05
-0.000281027
-4.69138e-05
-0.00027033
-4.64266e-05
-0.000259922
-4.58727e-05
-0.000249804
-4.52425e-05
-0.000239973
-4.45601e-05
-0.000230428
-4.3816e-05
-0.000221169
-4.30173e-05
-0.000212192
-4.21708e-05
-0.00020349
-4.13111e-05
-0.000195061
-4.03995e-05
-0.000186903
-3.94567e-05
-0.000179006
-3.85134e-05
-0.000171366
-3.75462e-05
-0.000163982
-3.65478e-05
-0.000156845
-3.55581e-05
-0.000149951
-3.45558e-05
-0.000143295
-3.35443e-05
-0.000136875
-3.25269e-05
-0.000130682
-3.15259e-05
-0.000124714
-3.05131e-05
-0.000118966
-2.95106e-05
-0.000113434
-2.85108e-05
-0.000108114
-2.75242e-05
-0.000103
-2.65517e-05
-9.80895e-05
-2.55798e-05
-9.33774e-05
-2.46261e-05
-8.88581e-05
-2.36913e-05
-8.45272e-05
-2.27703e-05
-8.03788e-05
-2.18711e-05
-7.64079e-05
-2.09888e-05
-7.26093e-05
-2.01255e-05
-6.89755e-05
-1.92927e-05
-6.55018e-05
-1.84755e-05
-6.21817e-05
-1.76852e-05
-5.90086e-05
-1.69215e-05
-5.59779e-05
-1.61763e-05
-5.30818e-05
-1.54659e-05
-5.0316e-05
-1.47738e-05
-4.76756e-05
-1.41042e-05
-4.51546e-05
-1.34632e-05
-4.27493e-05
-1.28402e-05
-4.04544e-05
-1.2244e-05
-3.82662e-05
-1.16677e-05
-3.6181e-05
-1.11109e-05
-3.41948e-05
-1.05758e-05
-3.23037e-05
-1.00614e-05
-3.05045e-05
-9.56472e-06
-2.87938e-05
-9.08748e-06
-2.71682e-05
-8.62876e-06
-2.56252e-05
-8.18426e-06
-2.41612e-05
-7.7604e-06
-2.27745e-05
-7.348e-06
-2.14622e-05
-6.95314e-06
-2.02219e-05
-6.57354e-06
-1.90513e-05
-6.20883e-06
-1.79482e-05
-5.85662e-06
-1.69101e-05
-5.51975e-06
-1.59339e-05
-5.19943e-06
-1.50164e-05
-4.89388e-06
-1.41543e-05
-4.60366e-06
-1.3344e-05
-4.32985e-06
-1.25817e-05
-4.07296e-06
-1.18641e-05
-3.83015e-06
-1.1188e-05
-3.60223e-06
-1.05504e-05
-3.3887e-06
-9.94904e-06
-3.18654e-06
-9.38185e-06
-2.99637e-06
-8.84713e-06
-2.81635e-06
-8.34379e-06
-2.64441e-06
-7.8708e-06
-2.48098e-06
-7.42756e-06
-2.32473e-06
-7.01367e-06
-2.17493e-06
-6.62846e-06
-2.03244e-06
-6.27102e-06
-1.89736e-06
-5.93971e-06
-1.77109e-06
-5.63192e-06
-1.65592e-06
-5.34417e-06
-1.55311e-06
-5.07238e-06
-1.46347e-06
-4.81222e-06
-1.38717e-06
-4.55982e-06
-1.32264e-06
-4.31248e-06
-1.26696e-06
-4.06938e-06
-1.21524e-06
-3.83148e-06
-1.16339e-06
-3.60141e-06
-1.10762e-06
-3.38296e-06
-1.04449e-06
-3.17986e-06
-9.73632e-07
-2.99483e-06
-8.96562e-07
-2.82916e-06
-8.15672e-07
-2.68262e-06
-7.33982e-07
-2.55399e-06
-6.53908e-07
-2.44178e-06
-5.76396e-07
-2.34473e-06
-5.01588e-07
-2.26206e-06
-4.28877e-07
-2.19358e-06
-3.57157e-07
-2.13957e-06
-2.85929e-07
-2.10084e-06
-2.14281e-07
-2.07855e-06
-1.41974e-07
-2.07398e-06
-6.94763e-08
-2.08713e-06
-8.8661e-11
-2.11696e-06
6.01355e-08
-2.15895e-06
1.06579e-07
-2.20666e-06
1.34044e-07
-2.25312e-06
1.41079e-07
-2.29257e-06
1.30318e-07
-2.32208e-06
1.07876e-07
-2.34187e-06
8.07929e-08
-2.35372e-06
5.35796e-08
-2.35947e-06
2.7559e-08
-2.35944e-06
1.34043e-09
-2.35206e-06
-2.73578e-08
-2.33514e-06
-5.8228e-08
-2.30827e-06
-8.66497e-08
-2.27455e-06
-1.04781e-07
-2.2403e-06
-1.05487e-07
-2.21338e-06
-8.59928e-08
-2.19979e-06
-5.07172e-08
-2.20224e-06
-8.58727e-09
-2.21811e-06
2.73403e-08
-2.24154e-06
4.6888e-08
-2.26363e-06
4.27005e-08
-2.27451e-06
1.31466e-08
-2.26576e-06
-3.61853e-08
-2.23513e-06
-8.79552e-08
-2.18909e-06
-1.19723e-07
-2.14299e-06
-1.10043e-07
-2.11759e-06
-4.83827e-08
-2.13099e-06
5.63962e-08
-2.1915e-06
1.71883e-07
-2.29006e-06
2.5055e-07
-2.40206e-06
2.45315e-07
-2.49329e-06
1.2543e-07
-2.53086e-06
-1.23369e-07
-2.47683e-06
-5.04222e-07
-2.30155e-06
-9.94097e-07
-1.97794e-06
-1.56817e-06
-1.48218e-06
-2.18782e-06
-8.13329e-07
-2.76853e-06
-3.19459e-06
-8.42004e-06
7.49639e-05
-1.71905e-05
7.62121e-05
-2.65799e-05
7.78551e-05
-3.68586e-05
7.98937e-05
-4.8293e-05
8.23132e-05
-6.11301e-05
8.50748e-05
-7.55977e-05
8.81303e-05
-9.18502e-05
9.13671e-05
-0.000109936
9.46905e-05
-0.000129935
9.81145e-05
-0.000151934
0.000101585
-0.000175937
0.000104979
-0.000201883
0.00010819
-0.000229618
0.000111041
-0.000258935
0.000113442
-0.00028957
0.000115271
-0.000321204
0.000116415
-0.000353477
0.000116794
-0.000385984
0.000116313
-0.000418287
0.000114903
-0.000449924
0.000112507
-0.000480412
0.000109092
-0.000509272
0.000104653
-0.00053603
9.91963e-05
-0.000560251
9.27954e-05
-0.000581553
8.55236e-05
-0.000599649
7.75457e-05
-0.000614372
6.90409e-05
-0.000625702
6.02499e-05
-0.000633469
5.11034e-05
-0.000637715
4.17689e-05
-0.000638631
3.24699e-05
-0.00063649
2.33876e-05
-0.000631573
1.46139e-05
-0.000624117
6.18002e-06
-0.000614505
-1.74145e-06
-0.000603771
-8.52605e-06
-0.000591706
-1.49576e-05
-0.00057838
-2.0915e-05
-0.000564074
-2.63798e-05
-0.000549016
-3.13483e-05
-0.000533405
-3.58389e-05
-0.000517414
-3.98624e-05
-0.000501194
-4.34448e-05
-0.000484874
-4.66074e-05
-0.000468566
-4.93696e-05
-0.000452361
-5.17652e-05
-0.000436338
-5.38094e-05
-0.000420559
-5.5536e-05
-0.000405076
-5.69589e-05
-0.000389929
-5.81107e-05
-0.000375151
-5.90031e-05
-0.000360762
-5.96643e-05
-0.000346779
-6.01138e-05
-0.000333214
-6.03625e-05
-0.000320069
-6.04476e-05
-0.000307351
-6.03404e-05
-0.000295052
-6.01205e-05
-0.000283174
-5.97357e-05
-0.000271702
-5.92711e-05
-0.000260635
-5.86673e-05
-0.000249961
-5.79826e-05
-0.00023967
-5.72045e-05
-0.000229753
-5.63432e-05
-0.000220197
-5.5429e-05
-0.000210991
-5.44486e-05
-0.000202121
-5.34296e-05
-0.000193579
-5.23589e-05
-0.000185352
-5.12438e-05
-0.000177432
-5.00911e-05
-0.000169802
-4.89408e-05
-0.000162456
-4.77453e-05
-0.000155385
-4.65281e-05
-0.000148574
-4.5324e-05
-0.000142016
-4.41042e-05
-0.000135705
-4.28593e-05
-0.000129628
-4.16349e-05
-0.000123779
-4.04046e-05
-0.000118152
-3.91718e-05
-0.000112739
-3.79392e-05
-0.000107534
-3.67317e-05
-0.000102531
-3.55159e-05
-9.77251e-05
-3.43164e-05
-9.31119e-05
-3.3124e-05
-8.86858e-05
-3.19503e-05
-8.44418e-05
-3.07957e-05
-8.03772e-05
-2.96445e-05
-7.64866e-05
-2.85167e-05
-7.27645e-05
-2.74134e-05
-6.92065e-05
-2.63283e-05
-6.58065e-05
-2.52711e-05
-6.25593e-05
-2.42361e-05
-5.9459e-05
-2.32258e-05
-5.64981e-05
-2.22535e-05
-5.36717e-05
-2.13019e-05
-5.0973e-05
-2.03839e-05
-4.83954e-05
-1.9499e-05
-4.59342e-05
-1.86375e-05
-4.35822e-05
-1.7818e-05
-4.13351e-05
-1.70209e-05
-3.91885e-05
-1.62508e-05
-3.71374e-05
-1.55143e-05
-3.51786e-05
-1.47989e-05
-3.33082e-05
-1.41145e-05
-3.1523e-05
-1.34528e-05
-2.98204e-05
-1.28135e-05
-2.81973e-05
-1.21989e-05
-2.66506e-05
-1.1608e-05
-2.5178e-05
-1.10374e-05
-2.37764e-05
-1.0489e-05
-2.24433e-05
-9.96185e-06
-2.11768e-05
-9.45076e-06
-1.99742e-05
-8.963e-06
-1.88345e-05
-8.48778e-06
-1.77556e-05
-8.03196e-06
-1.67364e-05
-7.59278e-06
-1.57754e-05
-7.16984e-06
-1.48715e-05
-6.76052e-06
-1.40228e-05
-6.36847e-06
-1.32267e-05
-5.99553e-06
-1.24804e-05
-5.64018e-06
-1.17805e-05
-5.30352e-06
-1.11232e-05
-4.98713e-06
-1.05046e-05
-4.69162e-06
-9.92122e-06
-4.4135e-06
-9.37007e-06
-4.15338e-06
-8.84851e-06
-3.91026e-06
-8.35471e-06
-3.68034e-06
-7.88703e-06
-3.46406e-06
-7.44434e-06
-3.25904e-06
-7.02613e-06
-3.06262e-06
-6.63216e-06
-2.87494e-06
-6.26278e-06
-2.69411e-06
-5.91869e-06
-2.51902e-06
-5.60037e-06
-2.35076e-06
-5.30785e-06
-2.18988e-06
-5.04001e-06
-2.03893e-06
-4.7942e-06
-1.90173e-06
-4.56629e-06
-1.78102e-06
-4.35098e-06
-1.67878e-06
-4.14243e-06
-1.59571e-06
-3.9353e-06
-1.52978e-06
-3.7259e-06
-1.47636e-06
-3.51338e-06
-1.42777e-06
-3.29976e-06
-1.37701e-06
-3.08976e-06
-1.31761e-06
-2.88961e-06
-1.24465e-06
-2.70518e-06
-1.15807e-06
-2.54034e-06
-1.0614e-06
-2.39633e-06
-9.59683e-07
-2.27187e-06
-8.58447e-07
-2.16436e-06
-7.61414e-07
-2.07123e-06
-6.69528e-07
-1.9906e-06
-5.82218e-07
-1.92154e-06
-4.97937e-07
-1.86393e-06
-4.14766e-07
-1.8183e-06
-3.3156e-07
-1.78607e-06
-2.46515e-07
-1.76948e-06
-1.58564e-07
-1.77113e-06
-6.78276e-08
-1.79272e-06
2.14998e-08
-1.83391e-06
1.01327e-07
-1.88913e-06
1.61803e-07
-1.94968e-06
1.94594e-07
-2.00599e-06
1.97389e-07
-2.0505e-06
1.7483e-07
-2.08027e-06
1.37643e-07
-2.09739e-06
9.79108e-08
-2.10632e-06
6.25107e-08
-2.11098e-06
3.22235e-08
-2.11193e-06
2.2905e-09
-2.10592e-06
-3.3366e-08
-2.08811e-06
-7.60462e-08
-2.05655e-06
-1.18204e-07
-2.01482e-06
-1.46515e-07
-1.97158e-06
-1.48727e-07
-1.9383e-06
-1.19272e-07
-1.92308e-06
-6.5933e-08
-1.92942e-06
-2.24998e-09
-1.9539e-06
5.18182e-08
-1.98874e-06
8.17312e-08
-2.02242e-06
7.63815e-08
-2.0416e-06
3.23285e-08
-2.03422e-06
-4.35668e-08
-1.99545e-06
-1.26732e-07
-1.93302e-06
-1.82146e-07
-1.86667e-06
-1.76395e-07
-1.82581e-06
-8.92492e-08
-1.83462e-06
6.52133e-08
-1.90758e-06
2.44839e-07
-2.03422e-06
3.77188e-07
-2.18558e-06
3.96683e-07
-2.32191e-06
2.6176e-07
-2.40519e-06
-4.00954e-08
-2.39956e-06
-5.09846e-07
-2.27277e-06
-1.12089e-06
-1.99467e-06
-1.84626e-06
-1.52824e-06
-2.65426e-06
-8.5975e-07
-3.43702e-06
-4.05434e-06
2.48368e-06
7.24802e-05
4.47865e-06
7.42171e-05
5.41545e-06
7.69183e-05
4.71942e-06
8.05898e-05
1.81838e-06
8.52142e-05
-3.8468e-06
9.074e-05
-1.27578e-05
9.70413e-05
-2.5335e-05
0.000103944
-4.17832e-05
0.000111139
-6.21425e-05
0.000118474
-8.65856e-05
0.000126028
-0.000115055
0.000133448
-0.000147368
0.000140503
-0.000183151
0.000146824
-0.000221982
0.000152273
-0.000263345
0.000156634
-0.000306654
0.000159724
-0.000351264
0.000161404
-0.000396472
0.00016152
-0.000441516
0.000159947
-0.00048559
0.000156581
-0.000527843
0.000151345
-0.000567402
0.000144211
-0.000603384
0.000135178
-0.000634948
0.00012436
-0.00066135
0.000111925
-0.000682065
9.82609e-05
-0.00069701
8.39861e-05
-0.000705903
6.91429e-05
-0.000708877
5.40772e-05
-0.000706532
3.94238e-05
-0.000699553
2.54914e-05
-0.00068855
1.23845e-05
-0.000673723
-2.13448e-07
-0.000657547
-9.99565e-06
-0.000640019
-1.92695e-05
-0.000620892
-2.76536e-05
-0.000600708
-3.51414e-05
-0.000579858
-4.17651e-05
-0.000558651
-4.75865e-05
-0.000537346
-5.26534e-05
-0.000516147
-5.7038e-05
-0.000495221
-6.07889e-05
-0.000474694
-6.3971e-05
-0.000454667
-6.66349e-05
-0.000435213
-6.88238e-05
-0.000416382
-7.05963e-05
-0.000398209
-7.19817e-05
-0.000380714
-7.30317e-05
-0.000363904
-7.37682e-05
-0.000347779
-7.42361e-05
-0.000332331
-7.44511e-05
-0.000317546
-7.44491e-05
-0.000303406
-7.42533e-05
-0.000289893
-7.38756e-05
-0.000276981
-7.33597e-05
-0.000264653
-7.26685e-05
-0.000252878
-7.18958e-05
-0.000241637
-7.09761e-05
-0.0002309
-7.00083e-05
-0.000220648
-6.89193e-05
-0.000210855
-6.77755e-05
-0.000201501
-6.65593e-05
-0.000192563
-6.52805e-05
-0.00018402
-6.39719e-05
-0.000175853
-6.26158e-05
-0.000168041
-6.12421e-05
-0.000160566
-5.98336e-05
-0.000153413
-5.83969e-05
-0.000146566
-5.69381e-05
-0.000140006
-5.55007e-05
-0.000133722
-5.40295e-05
-0.0001277
-5.25495e-05
-0.000121926
-5.10987e-05
-0.000116387
-4.96433e-05
-0.000111075
-4.81712e-05
-0.000105977
-4.67329e-05
-0.000101084
-4.52973e-05
-9.63888e-05
-4.38669e-05
-9.18841e-05
-4.24439e-05
-8.7561e-05
-4.10548e-05
-8.34155e-05
-3.96613e-05
-7.94419e-05
-3.829e-05
-7.56362e-05
-3.69297e-05
-7.19936e-05
-3.55928e-05
-6.85098e-05
-3.42795e-05
-6.51824e-05
-3.29719e-05
-6.20068e-05
-3.16924e-05
-5.89779e-05
-3.04422e-05
-5.60914e-05
-2.92149e-05
-5.33413e-05
-2.80212e-05
-5.07218e-05
-2.68555e-05
-4.82269e-05
-2.57207e-05
-4.58489e-05
-2.46315e-05
-4.3582e-05
-2.35688e-05
-4.14195e-05
-2.25464e-05
-3.93547e-05
-2.15638e-05
-3.73827e-05
-2.06096e-05
-3.54967e-05
-1.97039e-05
-3.36929e-05
-1.88247e-05
-3.19673e-05
-1.79764e-05
-3.03158e-05
-1.71658e-05
-2.87362e-05
-1.63785e-05
-2.72256e-05
-1.56251e-05
-2.57821e-05
-1.48964e-05
-2.44038e-05
-1.41918e-05
-2.30887e-05
-1.35141e-05
-2.18344e-05
-1.28622e-05
-2.06389e-05
-1.22329e-05
-1.94998e-05
-1.16281e-05
-1.84149e-05
-1.10468e-05
-1.73826e-05
-1.0483e-05
-1.6401e-05
-9.9446e-06
-1.54697e-05
-9.41912e-06
-1.45878e-05
-8.91387e-06
-1.3755e-05
-8.42556e-06
-1.29711e-05
-7.9537e-06
-1.22361e-05
-7.49561e-06
-1.15487e-05
-7.05583e-06
-1.0907e-05
-6.63723e-06
-1.03081e-05
-6.23902e-06
-9.74839e-06
-5.86327e-06
-9.22336e-06
-5.51217e-06
-8.7286e-06
-5.18637e-06
-8.26051e-06
-4.88159e-06
-7.81612e-06
-4.59776e-06
-7.39324e-06
-4.33315e-06
-6.99052e-06
-4.08305e-06
-6.60685e-06
-3.84773e-06
-6.24151e-06
-3.62437e-06
-5.8944e-06
-3.40973e-06
-5.56594e-06
-3.2034e-06
-5.25746e-06
-3.0026e-06
-4.97096e-06
-2.80553e-06
-4.70841e-06
-2.61331e-06
-4.47106e-06
-2.42722e-06
-4.25853e-06
-2.25147e-06
-4.06807e-06
-2.09218e-06
-3.89468e-06
-1.95442e-06
-3.73141e-06
-1.84205e-06
-3.57037e-06
-1.75676e-06
-3.40404e-06
-1.6961e-06
-3.22725e-06
-1.65316e-06
-3.03889e-06
-1.61612e-06
-2.84241e-06
-1.57349e-06
-2.64543e-06
-1.5146e-06
-2.45745e-06
-1.43263e-06
-2.28725e-06
-1.32826e-06
-2.14006e-06
-1.20859e-06
-2.0165e-06
-1.08324e-06
-1.91338e-06
-9.61566e-07