/*--------------------------------*- C++ -*----------------------------------*\
  =========                 |
  \\      /  F ield         | OpenFOAM: The Open Source CFD Toolbox
   \\    /   O peration     | Website:  https://openfoam.org
    \\  /    A nd           | Version:  12
     \\/     M anipulation  |
\*---------------------------------------------------------------------------*/
FoamFile
{
    format      ascii;
    class       volScalarField;
    location    "8.72";
    object      p_rgh;
}
// * * * * * * * * * * * * * * * * * * * * * * * * * * * * * * * * * * * * * //

dimensions      [1 -1 -2 0 0 0 0];

internalField   nonuniform List<scalar> 
3829
(
3.19251
3.19134
3.18894
3.18529
3.18032
3.174
3.16626
3.15706
3.14633
3.13402
3.12006
3.10439
3.08695
3.06767
3.04649
3.02333
2.99814
2.97085
2.9414
2.90974
2.87581
2.83955
2.80093
2.7599
2.71643
2.6705
2.62209
2.57121
2.51785
2.46205
2.40381
2.34319
2.28024
2.21502
2.14762
2.07813
2.00677
1.93365
1.8589
1.78269
1.70518
1.62659
1.54711
1.46698
1.38645
1.30576
1.2252
1.14504
1.0656
0.987158
0.910044
0.834574
0.761073
0.689863
0.621268
0.555603
0.493189
0.434319
0.379287
0.328354
0.281766
0.239585
0.201994
0.1692
0.144499
0.121764
0.103887
0.0915957
0.0840373
0.0809015
0.0822727
0.0878856
0.097304
0.110139
0.125949
0.144237
0.164467
0.186067
0.208419
0.230879
0.252802
0.273529
0.292411
0.308826
0.322194
0.33199
0.337764
0.339151
0.33535
0.326219
0.311814
0.292257
0.267755
0.238584
0.205117
0.167863
0.127458
0.0846647
0.0403411
-0.00457141
-0.0490584
-0.092072
-0.132583
-0.169567
-0.202062
-0.229182
-0.250178
-0.264443
-0.271581
-0.271423
-0.263639
-0.248766
-0.227354
-0.200108
-0.167959
-0.132032
-0.093617
-0.054061
-0.0150168
0.0221408
0.0559752
0.0851618
0.108559
0.125253
0.134562
0.136108
0.129823
0.116391
0.0965591
0.0713899
0.0422184
0.0105745
-0.0219
-0.0534323
-0.0824508
-0.107489
-0.127364
-0.14126
-0.148793
-0.148887
-0.143013
-0.131941
-0.116823
-0.0991336
-0.0805319
-0.062701
-0.0473282
-0.0357517
-0.0290313
-0.0277686
-0.0320647
-0.0416176
-0.0555238
-0.0725781
-0.09128
-0.11007
-0.127086
-0.141021
-0.150774
-0.155674
-0.155411
-0.150486
-0.141451
-0.129087
-0.115815
-0.102856
-0.0914844
-0.0829374
-0.0781092
-0.0774375
-0.0809521
-0.0881537
-0.0981639
-0.109779
-0.121771
-0.132461
-0.14072
-0.145469
-0.145994
-0.142001
-0.133635
-0.121492
-0.106525
-0.0899678
-0.0732554
-0.0578711
-0.0452268
-0.0365137
-0.032662
-0.0341904
-0.0412139
-0.0533999
-0.0699836
-0.089816
-0.111459
-0.133291
-0.153591
-0.170704
-0.183146
-0.189743
3.30112
3.30001
3.29774
3.29428
3.28955
3.28353
3.27614
3.26732
3.25701
3.24511
3.23156
3.21626
3.19913
3.18008
3.15901
3.13583
3.11043
3.08273
3.05263
3.02003
2.98487
2.94707
2.90655
2.86328
2.81719
2.76826
2.71646
2.6618
2.60428
2.54393
2.48079
2.41492
2.3464
2.27534
2.20188
2.12625
2.04807
1.96764
1.88526
1.80121
1.71575
1.62911
1.54151
1.45323
1.36454
1.27575
1.18717
1.09914
1.012
0.926107
0.841833
0.759552
0.679646
0.602486
0.528443
0.457883
0.391182
0.328662
0.270615
0.217357
0.17307
0.130441
0.0934954
0.0624582
0.0374353
0.0183891
0.00539073
-0.00229712
-0.00432367
-0.000864928
0.00778013
0.0212981
0.0396514
0.0615696
0.0868098
0.114779
0.144804
0.176173
0.208131
0.239888
0.270648
0.299605
0.325961
0.348955
0.367867
0.38205
0.390927
0.394004
0.391249
0.381829
0.365823
0.343355
0.314652
0.28006
0.240087
0.195421
0.146884
0.0954462
0.0421836
-0.0117322
-0.0650426
-0.116464
-0.164722
-0.208577
-0.246875
-0.278573
-0.302761
-0.318739
-0.32592
-0.323719
-0.312485
-0.292762
-0.265197
-0.230709
-0.190489
-0.145932
-0.0986326
-0.0501866
-0.00273977
0.0421002
0.0826078
0.117217
0.144611
0.163852
0.174415
0.173729
0.164178
0.146181
0.120619
0.0888131
0.052453
0.013462
-0.0261818
-0.0641978
-0.0986993
-0.127913
-0.150401
-0.165167
-0.171664
-0.170188
-0.161146
-0.145671
-0.125361
-0.10214
-0.0781224
-0.0553284
-0.0359533
-0.0215479
-0.0133669
-0.0121007
-0.0178431
-0.0299628
-0.0473751
-0.0684592
-0.0913067
-0.114322
-0.134575
-0.150894
-0.16194
-0.166973
-0.165878
-0.159176
-0.147681
-0.131569
-0.115377
-0.0997248
-0.0861173
-0.0760165
-0.070469
-0.0700296
-0.0745414
-0.0833875
-0.0954795
-0.10938
-0.123641
-0.136296
-0.146043
-0.151689
-0.152465
-0.148084
-0.138754
-0.125178
-0.108461
-0.0900125
-0.0714325
-0.0543693
-0.0403712
-0.0307278
-0.0264436
-0.0280489
-0.0356392
-0.0488212
-0.0667472
-0.0881637
-0.111509
-0.135016
-0.156855
-0.175252
-0.188616
-0.195695
3.4743
3.47343
3.47166
3.46893
3.46516
3.46028
3.45419
3.44682
3.43847
3.42802
3.4159
3.40199
3.38616
3.36826
3.34813
3.32562
3.30054
3.27275
3.24207
3.20836
3.17149
3.13134
3.0878
3.04078
2.99023
2.93608
2.87834
2.81702
2.75211
2.68364
2.61166
2.5362
2.45734
2.37514
2.28966
2.20146
2.11095
2.01815
1.92316
1.8261
1.72721
1.62679
1.52516
1.42269
1.31973
1.21668
1.11394
1.01194
0.911139
0.811987
0.714959
0.620538
0.529219
0.441496
0.35788
0.278841
0.20505
0.136715
0.0742679
0.0181378
-0.0312664
-0.0738064
-0.109223
-0.137336
-0.15812
-0.171649
-0.176085
-0.173563
-0.164037
-0.14772
-0.12496
-0.0962104
-0.0620481
-0.0231433
0.0198581
0.0659032
0.114141
0.163645
0.213393
0.262326
0.309379
0.35348
0.39357
0.428633
0.457738
0.480026
0.494739
0.501266
0.49949
0.48866
0.46886
0.440215
0.403021
0.357779
0.305249
0.246415
0.182436
0.114667
0.0445974
-0.0261699
-0.0959221
-0.162941
-0.22551
-0.281974
-0.330805
-0.370696
-0.400609
-0.419958
-0.428756
-0.420732
-0.402245
-0.373092
-0.33386
-0.285755
-0.230393
-0.169689
-0.105826
-0.0409264
0.0220422
0.0809715
0.133557
0.177728
0.211766
0.234428
0.24504
0.241789
0.226654
0.200216
0.16387
0.119572
0.0697197
0.0169672
-0.0360509
-0.086053
-0.13065
-0.1675
-0.194739
-0.21114
-0.216172
-0.210562
-0.194814
-0.170637
-0.140325
-0.106584
-0.0723425
-0.0405231
-0.0137618
0.00573667
0.0164259
0.017487
0.00876896
-0.0085029
-0.0327058
-0.0615394
-0.0924179
-0.122474
-0.148923
-0.169616
-0.182926
-0.188003
-0.185039
-0.174875
-0.159377
-0.135064
-0.114163
-0.0936294
-0.0759587
-0.063089
-0.0562994
-0.0564524
-0.0629422
-0.0748596
-0.0907444
-0.10879
-0.12726
-0.143396
-0.155736
-0.162912
-0.164065
-0.158925
-0.147826
-0.131663
-0.11182
-0.0900175
-0.0681485
-0.0481464
-0.0317907
-0.0205681
-0.0155508
-0.0173219
-0.025929
-0.040875
-0.0611528
-0.0853233
-0.111618
-0.138036
-0.162536
-0.183139
-0.198088
-0.206006
3.6759
3.6759
3.67597
3.67678
3.67665
3.67563
3.67371
3.67079
3.66671
3.66126
3.6542
3.64527
3.63421
3.62075
3.60473
3.5856
3.56328
3.53753
3.50809
3.47473
3.43723
3.39541
3.34909
3.29815
3.24247
3.18198
3.11665
3.04646
2.97145
2.89173
2.80742
2.7187
2.6258
2.52895
2.42851
2.32356
2.21507
2.10347
1.98904
1.8721
1.753
1.6321
1.50981
1.38657
1.26284
1.1391
1.0159
0.89377
0.773299
0.655089
0.539775
0.427993
0.32037
0.217558
0.120419
0.0292589
-0.0551949
-0.132308
-0.201518
-0.262312
-0.314242
-0.356913
-0.389976
-0.413138
-0.426211
-0.428895
-0.423304
-0.407795
-0.38268
-0.348497
-0.305853
-0.255458
-0.19817
-0.134929
-0.0667507
0.00518444
0.0794745
0.154879
0.229995
0.303365
0.373536
0.43906
0.498509
0.550544
0.593886
0.627382
0.650019
0.661018
0.659849
0.646262
0.620218
0.581865
0.53166
0.470388
0.399167
0.319407
0.23275
0.141094
0.0465222
-0.0487241
-0.142266
-0.231718
-0.314709
-0.388973
-0.452389
-0.503064
-0.53936
-0.55994
-0.56359
-0.553954
-0.527641
-0.485782
-0.429949
-0.362146
-0.284797
-0.200657
-0.112789
-0.0244986
0.0607824
0.139802
0.209456
0.266933
0.309885
0.336494
0.345493
0.33909
0.315566
0.276457
0.224087
0.161366
0.0917308
0.0189073
-0.053064
-0.120309
-0.179228
-0.226717
-0.260404
-0.278753
-0.281208
-0.268839
-0.24272
-0.205445
-0.160308
-0.111163
-0.0620699
-0.0172005
0.0199328
0.0463688
0.0601895
0.0606881
0.0470894
0.0219711
-0.0123126
-0.0525004
-0.0949765
-0.135465
-0.170535
-0.197196
-0.213409
-0.21818
-0.211929
-0.195858
-0.172115
-0.142472
-0.112549
-0.0845463
-0.0611225
-0.0444901
-0.0359202
-0.0373658
-0.0468429
-0.0631665
-0.0843603
-0.108078
-0.132747
-0.153505
-0.169272
-0.178435
-0.179995
-0.17371
-0.160109
-0.140375
-0.116262
-0.0899071
-0.0636239
-0.0397067
-0.0202399
-0.00695058
-0.00102201
-0.00306429
-0.0130639
-0.0303882
-0.0538055
-0.0816278
-0.111809
-0.142059
-0.170043
-0.193537
-0.210564
-0.219571
3.90312
3.90382
3.90512
3.90613
3.90854
3.91199
3.91613
3.92055
3.92463
3.92797
3.93011
3.93063
3.92902
3.9247
3.91712
3.90574
3.89008
3.86968
3.84405
3.81277
3.7756
3.73226
3.6825
3.62619
3.5632
3.49353
3.41722
3.33441
3.24527
3.15003
3.04894
2.94216
2.82982
2.7121
2.58987
2.4638
2.33366
2.19962
2.06206
1.92137
1.77795
1.63227
1.48482
1.33614
1.18681
1.03749
0.888838
0.741586
0.596514
0.454426
0.316153
0.182613
0.0546531
-0.0671065
-0.181727
-0.288347
-0.386104
-0.47421
-0.551903
-0.618499
-0.673391
-0.716096
-0.746203
-0.763452
-0.7676
-0.758626
-0.73699
-0.702713
-0.656218
-0.598118
-0.529189
-0.450383
-0.362861
-0.267908
-0.166945
-0.0615409
0.0464235
0.155242
0.263004
0.367749
0.467522
0.560363
0.644365
0.717728
0.778801
0.826092
0.858275
0.874236
0.873146
0.855096
0.819971
0.768036
0.700014
0.617087
0.520818
0.413181
0.296472
0.17332
0.0465801
-0.0807011
-0.205276
-0.323917
-0.4334
-0.530669
-0.612939
-0.677667
-0.722814
-0.746838
-0.74876
-0.73069
-0.690973
-0.63081
-0.552288
-0.458127
-0.351678
-0.236751
-0.117551
0.00134859
0.115436
0.22026
0.31168
0.38601
0.440235
0.472151
0.480531
0.466804
0.430503
0.37373
0.29968
0.212387
0.116612
0.0175072
-0.0792986
-0.168673
-0.245777
-0.306532
-0.347877
-0.367976
-0.366356
-0.344265
-0.30388
-0.248899
-0.18401
-0.114555
-0.0458719
0.0158336
0.0660942
0.100993
0.117961
0.115849
0.0964113
0.0608672
0.0131204
-0.042137
-0.099881
-0.153956
-0.199921
-0.233897
-0.25334
-0.257261
-0.246315
-0.222498
-0.189016
-0.149342
-0.109036
-0.071869
-0.0414685
-0.020582
-0.0103369
-0.0134818
-0.0268074
-0.0488314
-0.0767442
-0.106935
-0.140667
-0.166408
-0.186252
-0.197739
-0.199656
-0.191825
-0.175038
-0.150853
-0.121497
-0.0896095
-0.0580106
-0.029424
-0.00627489
0.00941815
0.0163587
0.0139169
0.00219063
-0.0180018
-0.0451718
-0.0773354
-0.112106
-0.146862
-0.178933
-0.205815
-0.225266
-0.235553
4.05279
4.05635
4.06355
4.07431
4.08845
4.10564
4.12528
4.14681
4.16971
4.19248
4.21383
4.23286
4.24873
4.26066
4.26792
4.26982
4.26563
4.25472
4.23653
4.21056
4.17642
4.13371
4.08207
4.02125
3.95106
3.87156
3.78286
3.6854
3.57952
3.46563
3.34413
3.21551
3.08015
2.93995
2.79374
2.64206
2.48528
2.32378
2.15797
1.9883
1.81527
1.63943
1.46139
1.28182
1.10147
0.921133
0.741658
0.563939
0.388949
0.217664
0.0511133
-0.106403
-0.259805
-0.404988
-0.54079
-0.666138
-0.779932
-0.881188
-0.968973
-1.04242
-1.10075
-1.14326
-1.16946
-1.179
-1.17169
-1.14771
-1.10702
-1.05004
-0.977408
-0.889969
-0.788778
-0.675125
-0.550564
-0.416812
-0.275776
-0.129598
0.0193853
0.168809
0.316143
0.458805
0.594238
0.719865
0.833179
0.931828
1.01369
1.07691
1.1199
1.1413
1.13909
1.11443
1.06708
0.997463
0.906683
0.796366
0.668654
0.526202
0.372097
0.209871
0.0433557
-0.123369
-0.28599
-0.440267
-0.581996
-0.707139
-0.812079
-0.893597
-0.949157
-0.976863
-0.97566
-0.946572
-0.889364
-0.805793
-0.698629
-0.571501
-0.428906
-0.27595
-0.118227
0.0381378
0.187252
0.323258
0.440743
0.534994
0.602232
0.639778
0.646228
0.622595
0.569565
0.490158
0.38874
0.270748
0.142552
0.0109855
-0.116174
-0.232324
-0.331157
-0.407427
-0.457305
-0.47861
-0.470846
-0.435893
-0.37717
-0.299789
-0.210154
-0.115568
-0.0225909
0.0594553
0.125419
0.17018
0.190568
0.185555
0.15698
0.107718
0.0429341
-0.031046
-0.108005
-0.178504
-0.237364
-0.279752
-0.302597
-0.304842
-0.287632
-0.254012
-0.20847
-0.155995
-0.103244
-0.0553026
-0.0169006
0.00834852
0.0179194
0.0145876
-0.00330742
-0.0323612
-0.0686929
-0.108107
-0.148483
-0.181512
-0.206261
-0.220337
-0.222493
-0.212695
-0.192096
-0.162696
-0.127276
-0.0890625
-0.0514307
-0.0176164
0.00963757
0.0279394
0.0359251
0.0329442
0.0192075
-0.00425736
-0.0356399
-0.0726498
-0.112522
-0.152256
-0.188848
-0.219452
-0.241573
-0.253261
4.12998
4.13675
4.15051
4.17121
4.19856
4.2322
4.27144
4.31582
4.3645
4.41772
4.47196
4.52565
4.57692
4.62385
4.66428
4.69573
4.71628
4.725
4.72162
4.70594
4.67763
4.63626
4.58142
4.51297
4.43078
4.33514
4.22636
4.10542
3.97371
3.83263
3.683
3.52575
3.3629
3.19295
3.01698
2.83534
2.64828
2.45608
2.259
2.05742
1.85181
1.64274
1.43087
1.21699
1.00198
0.78684
0.572676
0.360656
0.151974
-0.0520183
-0.249617
-0.439922
-0.621605
-0.7931
-0.952921
-1.0996
-1.23175
-1.34809
-1.44736
-1.52846
-1.59043
-1.63241
-1.65376
-1.65402
-1.63299
-1.5907
-1.5274
-1.4436
-1.34015
-1.21816
-1.07903
-0.924444
-0.75643
-0.577218
-0.389292
-0.195451
0.00133395
0.198012
0.391307
0.577895
0.75447
0.917755
1.06461
1.19212
1.29748
1.37828
1.43266
1.45918
1.45482
1.42135
1.35861
1.26729
1.14888
1.00555
0.840138
0.656156
0.457636
0.249167
0.0357082
-0.17742
-0.384716
-0.580656
-0.759851
-0.917238
-1.04815
-1.14865
-1.21558
-1.24662
-1.24047
-1.19785
-1.1194
-1.00759
-0.866086
-0.699688
-0.514232
-0.316393
-0.113368
0.0868429
0.2767
0.448742
0.596108
0.712837
0.794289
0.837302
0.840232
0.803952
0.730321
0.623459
0.489165
0.334619
0.168045
-0.00197122
-0.164663
-0.311709
-0.435296
-0.528882
-0.587731
-0.609353
-0.593329
-0.54234
-0.461187
-0.356731
-0.237384
-0.11256
0.00778432
0.113898
0.197918
0.253587
0.277172
0.267839
0.227711
0.161525
0.0762646
-0.019716
-0.120189
-0.20944
-0.282869
-0.334488
-0.360544
-0.360169
-0.33508
-0.289571
-0.229686
-0.161986
-0.0948967
-0.0347345
0.0126101
0.0429159
0.053942
0.0472484
0.0232876
-0.0141327
-0.0601792
-0.109692
-0.15821
-0.198922
-0.228966
-0.245727
-0.247941
-0.235737
-0.210787
-0.175524
-0.133373
-0.0882099
-0.0440154
-0.0045392
0.0270056
0.0480652
0.0570789
0.0534214
0.0374421
0.0103992
-0.0255353
-0.0677422
-0.113064
-0.158086
-0.199468
-0.234016
-0.258946
-0.272114
4.06673
4.0833
4.1175
4.16988
4.2406
4.32985
4.43716
4.56133
4.6912
4.81093
4.92092
5.01917
5.10348
5.17364
5.22973
5.2728
5.30344
5.32119
5.32493
5.31377
5.28697
5.2435
5.18204
5.10164
5.00088
4.87989
4.73734
4.57476
4.40366
4.22553
4.03991
3.85161
3.65852
3.46023
3.256
3.04525
2.82782
2.60381
2.37357
2.13757
1.89641
1.65081
1.40161
1.14977
0.896364
0.64258
0.389723
0.13924
-0.107289
-0.34752
-0.581296
-0.80613
-1.02016
-1.22159
-1.40862
-1.57944
-1.73231
-1.8656
-1.97776
-2.06742
-2.13334
-2.17449
-2.19008
-2.17957
-2.14272
-2.07955
-1.99043
-1.87606
-1.7375
-1.57622
-1.39399
-1.19295
-0.975693
-0.745048
-0.504134
-0.256475
-0.00580985
0.244019
0.488903
0.724669
0.947207
1.15248
1.3365
1.49553
1.62636
1.72605
1.79204
1.82274
1.81531
1.77102
1.68992
1.57309
1.42249
1.24092
1.03202
0.800279
0.55085
0.289558
0.0226629
-0.243114
-0.500885
-0.743784
-0.965061
-1.15839
-1.3181
-1.4393
-1.51806
-1.55173
-1.53902
-1.48025
-1.37698
-1.2324
-1.0513
-0.839826
-0.605412
-0.356455
-0.101981
0.14776
0.383373
0.595612
0.776021
0.917304
1.01376
1.06165
1.0594
1.00775
0.909759
0.770861
0.598602
0.402271
0.192286
-0.0227144
-0.224987
-0.406414
-0.557319
-0.669595
-0.737556
-0.758586
-0.731872
-0.661725
-0.554262
-0.41835
-0.264803
-0.105607
0.0462227
0.179157
0.28307
0.350352
0.376674
0.361296
0.307233
0.220994
0.112037
-0.00754469
-0.13807
-0.246618
-0.335976
-0.397407
-0.426428
-0.422308
-0.387668
-0.32826
-0.251878
-0.166982
-0.0838836
-0.0103156
0.0466302
0.0821519
0.0940765
0.0834314
0.0523232
0.00537499
-0.0514551
-0.111846
-0.169679
-0.218405
-0.253939
-0.273359
-0.275416
-0.260563
-0.230639
-0.188973
-0.139584
-0.0870283
-0.0359191
0.00946231
0.0454601
0.0692985
0.079281
0.0748163
0.0564145
0.0256393
-0.0151259
-0.0627603
-0.113725
-0.164216
-0.210523
-0.24911
-0.276934
-0.291614
3.713
3.73341
3.77588
3.84026
3.92561
4.02999
4.14678
4.27729
4.44335
4.6238
4.80167
4.9722
5.13329
5.28316
5.4183
5.53564
5.63234
5.70614
5.75521
5.77833
5.77508
5.74565
5.68915
5.60718
5.49992
5.37031
5.2186
5.03166
4.8361
4.6267
4.4127
4.192
3.96648
3.73567
3.49911
3.25634
3.00699
2.75071
2.48737
2.21708
1.94026
1.65758
1.36997
1.07852
0.784537
0.489534
0.195198
-0.0965264
-0.383447
-0.664727
-0.937654
-1.19995
-1.44934
-1.68359
-1.90045
-2.09773
-2.27327
-2.42508
-2.55126
-2.65014
-2.7202
-2.76022
-2.76922
-2.74658
-2.69203
-2.60563
-2.48786
-2.3396
-2.16222
-1.95753
-1.72773
-1.4755
-1.20402
-0.916792
-0.617656
-0.310974
-0.00128915
0.306667
0.607877
0.897213
1.16971
1.42037
1.64441
1.83737
1.99514
2.11433
2.19206
2.22647
2.21433
2.1572
2.05504
1.90923
1.72231
1.49782
1.24033
0.955423
0.649482
0.329712
0.00379858
-0.320006
-0.633255
-0.927518
-1.19465
-1.42697
-1.61762
-1.76067
-1.85152
-1.88711
-1.86611
-1.78874
-1.65727
-1.47587
-1.25052
-0.988903
-0.700269
-0.394841
-0.0835571
0.220481
0.505988
0.761813
0.977756
1.14506
1.25697
1.30909
1.29982
1.2302
1.10438
0.92928
0.714466
0.471822
0.215876
-0.053056
-0.296518
-0.515123
-0.695421
-0.827411
-0.904225
-0.92238
-0.883889
-0.791761
-0.654455
-0.483253
-0.291605
-0.0941837
0.0923997
0.254493
0.379715
0.458998
0.487359
0.464303
0.393971
0.284716
0.148366
-0.00165166
-0.155179
-0.288816
-0.395858
-0.467526
-0.499046
-0.490062
-0.444296
-0.369137
-0.274425
-0.170674
-0.0702352
0.0176029
0.084536
0.125184
0.13737
0.122219
0.0830791
0.0256797
-0.0427934
-0.114726
-0.182611
-0.239594
-0.28068
-0.302653
-0.304293
-0.286332
-0.251165
-0.202718
-0.145744
-0.0855175
-0.0272941
0.0241032
0.0645968
0.0911789
0.102047
0.0966569
0.0756961
0.0410201
-0.00465842
-0.0578167
-0.114495
-0.170512
-0.221774
-0.264414
-0.29514
-0.311338
3.07625
3.11352
3.19521
3.32755
3.52038
3.78626
4.13766
4.625
5.29394
5.69496
6.04322
6.32411
6.54433
6.71723
6.8495
6.94805
7.01747
7.06102
7.08061
7.07726
7.05109
6.99954
6.91658
6.7982
6.63103
6.40356
6.15649
5.59794
5.25752
4.96142
4.69799
4.4562
4.2172
3.9754
3.72423
3.46108
3.18698
2.9025
2.6081
2.30424
1.99156
1.67098
1.34355
1.01064
0.67381
0.334848
-0.00424004
-0.338023
-0.670202
-0.995111
-1.31021
-1.61283
-1.90029
-2.16986
-2.41883
-2.64457
-2.84447
-3.01613
-3.15731
-3.26599
-3.34037
-3.379
-3.38074
-3.34486
-3.27108
-3.1595
-3.01074
-2.8259
-2.60664
-2.35518
-2.07421
-1.76694
-1.43725
-1.08934
-0.727843
-0.357988
0.0147718
0.384765
0.745972
1.09229
1.41777
1.71649
1.98273
2.2112
2.39707
2.53606
2.62451
2.6591
2.64379
2.57263
2.44705
2.26923
2.04244
1.77109
1.46077
1.11824
0.751218
0.368373
-0.0210581
-0.407104
-0.779688
-1.12879
-1.44466
-1.71823
-1.94132
-2.10704
-2.21003
-2.24678
-2.21577
-2.11753
-1.95498
-1.73329
-1.45981
-1.14393
-0.796809
-0.430703
-0.0580177
0.30396
0.642486
0.944441
1.19772
1.39202
1.51945
1.57504
1.55705
1.46709
1.31039
1.09553
0.834126
0.540322
0.229784
-0.0843865
-0.376835
-0.635801
-0.84717
-0.99954
-1.08508
-1.10035
-1.0469
-0.929987
-0.759775
-0.549993
-0.317032
-0.0782804
0.145627
0.33866
0.486161
0.577561
0.6072
0.574961
0.486217
0.351483
0.185182
0.0035192
-0.177211
-0.336215
-0.461648
-0.543622
-0.577053
-0.562102
-0.503781
-0.411326
-0.296807
-0.172833
-0.0541359
0.0485144
0.125585
0.171131
0.183007
0.162772
0.11487
0.0463028
-0.0344255
-0.118369
-0.196726
-0.26207
-0.308662
-0.333026
-0.334003
-0.312653
-0.271953
-0.216476
-0.151725
-0.0836962
-0.0183009
0.0391101
0.0840514
0.113293
0.124949
0.118536
0.0949319
0.0562909
0.0056748
-0.0529963
-0.115357
-0.17686
-0.233015
-0.279655
-0.313239
-0.330931
2.01646
2.06072
2.15397
2.29414
2.47574
2.68606
2.85873
2.97214
3.84573
4.34222
4.83492
5.26141
5.63281
5.95473
6.22836
6.45589
6.63787
6.77457
6.86623
6.91306
6.91783
6.88048
6.79775
6.67214
6.5028
6.29006
6.11356
5.62936
5.55721
5.34421
5.08651
4.81367
4.53361
4.24843
3.9605
3.66853
3.36866
3.05788
2.73491
2.39945
2.05194
1.69338
1.32526
0.949415
0.567947
0.18322
-0.201415
-0.584421
-0.962754
-1.33322
-1.69263
-2.03775
-2.36533
-2.67213
-2.95493
-3.21062
-3.43613
-3.62864
-3.7855
-3.90436
-3.98315
-4.02016
-4.01408
-3.96411
-3.8699
-3.73164
-3.5501
-3.32661
-3.06318
-2.76245
-2.4276
-2.06247
-1.67163
-1.26004
-0.83317
-0.397167
0.0415653
0.476362
0.900156
1.30582
1.68639
2.03493
2.34481
2.60986
2.8245
2.98387
3.0839
3.12158
3.09809
3.01006
2.85861
2.64619
2.3767
2.05542
1.68899
1.28546
0.853942
0.404663
-0.0515796
-0.502932
-0.937624
-1.34393
-1.71051
-2.02676
-2.28326
-2.47201
-2.58691
-2.62395
-2.58154
-2.46055
-2.26455
-1.99985
-1.67523
-1.30191
-0.893279
-0.463954
-0.0253286
0.396618
0.790213
1.13998
1.43172
1.65351
1.79628
1.85448
1.82629
1.71398
1.52395
1.26652
0.955577
0.6078
0.241611
-0.123891
-0.46569
-0.766393
-1.00974
-1.18268
-1.27646
-1.28746
-1.21756
-1.07372
-0.868175
-0.61736
-0.34064
-0.0580519
0.204926
0.430052
0.600396
0.703782
0.733931
0.691137
0.582213
0.420019
0.221813
0.00716467
-0.203193
-0.388095
-0.532188
-0.624273
-0.65897
-0.637041
-0.564953
-0.453966
-0.318523
-0.173445
-0.0359001
0.0818121
0.168964
0.219088
0.230149
0.20429
0.147073
0.0668308
-0.026538
-0.12273
-0.211734
-0.285402
-0.337366
-0.363921
-0.364007
-0.339059
-0.29264
-0.230011
-0.157426
-0.0816046
-0.00909992
0.0542331
0.1035
0.13528
0.147622
0.14011
0.113828
0.0712261
0.0157312
-0.0483675
-0.116303
-0.183154
-0.244074
-0.294609
-0.330964
-0.350104
0.176594
0.145039
0.0787248
-0.053505
-0.264564
-0.588448
-1.0794
-1.78638
4.49953
4.64987
4.7753
4.76375
4.6843
4.54732
4.35139
4.1156
3.84504
3.54581
3.22142
2.87517
2.50953
2.12682
1.72915
1.31881
0.89831
0.470344
0.0379155
-0.395892
-0.827914
-1.25473
-1.67275
-2.07827
-2.46754
-2.83675
-3.18214
-3.49997
-3.78662
-4.03858
-4.25257
-4.42556
-4.55484
-4.63804
-4.6732
-4.65886
-4.59416
-4.4787
-4.31274
-4.09722
-3.83371
-3.52458
-3.17294
-2.7825
-2.3577
-1.90386
-1.42672
-0.932622
-0.428654
0.0777928
0.579026
1.06691
1.53324
1.97002
2.36931
2.7235
3.02556
3.26915
3.44884
3.56015
3.59999
3.56737
3.461
3.28197
3.03308
2.7189
2.34556
1.92083
1.45406
0.955833
0.437959
-0.0871809
-0.605704
-1.10412
-1.569
-1.98733
-2.34699
-2.63723
-2.84897
-2.97534
-3.01189
-2.95694
-2.81172
-2.58054
-2.27086
-1.89301
-1.4601
-0.987919
-0.494966
0.0144379
0.496328
0.946192
1.34468
1.67537
1.92467
2.08238
2.14233
2.10271
1.96648
1.74131
1.43936
1.07687
0.673279
0.250142
-0.169445
-0.561354
-0.904429
-1.18003
-1.37337
-1.47476
-1.48039
-1.39274
-1.22035
-0.977718
-0.68424
-0.362229
-0.0338613
0.269083
0.526874
0.720226
0.835295
0.865174
0.810702
0.680231
0.489061
0.257638
0.00896664
-0.232345
-0.443452
-0.606169
-0.707989
-0.743275
-0.713513
-0.626711
-0.496304
-0.339187
-0.172594
-0.0159204
0.116839
0.213843
0.268173
0.277963
0.246041
0.179131
0.086923
-0.0192518
-0.12772
-0.227343
-0.309176
-0.366302
-0.39483
-0.393831
-0.365139
-0.312922
-0.243133
-0.162781
-0.0792893
0.000162205
0.069243
0.122662
0.156837
0.169762
0.161101
0.132148
0.0856489
0.0253878
-0.0439783
-0.117307
-0.189311
-0.254814
-0.30909
-0.348104
-0.36863
-1.09841
-1.11354
-1.13478
-1.17229
-1.21258
-1.23591
-1.31063
-1.30753
5.57475
5.42365
5.37464
5.22858
5.05961
4.8618
4.63319
4.3746
4.08355
3.76261
3.41325
3.03789
2.6388
2.21852
1.77976
1.32538
0.858465
0.382307
-0.0995708
-0.583532
-1.06576
-1.54231
-2.00905
-2.46175
-2.8961
-3.30778
-3.69247
-4.04594
-4.36407
-4.64286
-4.87861
-5.06789
-5.20764
-5.29519
-5.32834
-5.30547
-5.22563
-5.08841
-4.89417
-4.64401
-4.33978
-3.98422
-3.58088
-3.13402
-2.64874
-2.1311
-1.58764
-1.02556
-0.452929
0.121865
0.690087
1.24252
1.76987
2.26309
2.71323
3.1117
3.45061
3.72286
3.9224
4.04427
4.08505
4.04296
3.91742
3.70978
3.42331
3.06326
2.63668
2.15248
1.62135
1.05537
0.468001
-0.12714
-0.713473
-1.27616
-1.8
-2.27029
-2.67338
-2.99718
-3.23155
-3.36883
-3.40414
-3.33576
-3.16531
-2.89788
-2.54208
-2.10982
-1.61611
-1.07867
-0.516916
0.0536007
0.60027
1.10739
1.55482
1.92435
2.20078
2.37283
2.4337
2.38172
2.22047
1.95901
1.61139
1.1963
0.736016
0.255077
-0.219586
-0.66184
-1.04731
-1.35493
-1.56822
-1.67652
-1.67588
-1.56947
-1.36746
-1.08669
-0.749597
-0.381759
-0.00627311
0.33675
0.627256
0.843445
0.96976
0.998659
0.93164
0.778618
0.55755
0.292174
0.00883448
-0.263938
-0.501215
-0.682247
-0.793298
-0.82853
-0.790234
-0.688074
-0.537733
-0.358643
-0.170297
0.00537452
0.152933
0.259432
0.31756
0.32568
0.287379
0.210572
0.106309
-0.0126232
-0.133234
-0.243271
-0.333008
-0.395035
-0.425312
-0.423069
-0.390555
-0.33255
-0.255701
-0.167749
-0.0768042
0.00935079
0.0839483
0.141307
0.177717
0.19113
0.181293
0.14971
0.0994257
0.0345673
-0.0398602
-0.118346
-0.195265
-0.265133
-0.322958
-0.3645
-0.386341
-2.14146
-2.14955
-2.1551
-2.17562
-2.19136
-2.21346
-2.25241
-2.26795
5.7808
5.69903
5.66287
5.55044
5.38993
5.19025
4.94851
4.67127
4.35762
4.0105
3.6312
3.2224
2.78643
2.32606
1.84427
1.34428
0.829658
0.304153
-0.227957
-0.762654
-1.29562
-1.82235
-2.3382
-2.83839
-3.31808
-3.77238
-4.1965
-4.58565
-4.93527
-5.24087
-5.49832
-5.7038
-5.8539
-5.94567
-5.97669
-5.94518
-5.84999
-5.69085
-5.46819
-5.18328
-4.83824
-4.43619
-3.98116
-3.47795
-2.93229
-2.351
-1.74143
-1.11165
-0.470686
0.172075
0.806854
1.42334
2.01119
2.56028
3.06065
3.50277
3.87787
4.1781
4.39677
4.52845
4.56934
4.51736
4.37216
4.13542
3.81092
3.40462
2.9245
2.38062
1.78502
1.15131
0.494671
-0.170524
-0.824234
-1.45078
-2.03312
-2.55482
-3.00074
-3.35747
-3.61381
-3.76135
-3.79483
-3.7124
-3.51615
-3.21201
-2.80972
-2.32279
-1.76813
-1.16549
-0.536498
0.0976176
0.707271
1.27109
1.76688
2.17459
2.47744
2.66308
2.72418
2.65912
2.47223
2.17396
1.7803
1.31237
0.795333
0.256743
-0.272985
-0.765179
-1.19249
-1.53148
-1.76403
-1.87852
-1.8709
-1.7451
-1.5129
-1.19359
-0.812585
-0.399348
0.0241153
0.406545
0.729374
0.967958
1.10497
1.13233
1.05208
0.875958
0.624553
0.324913
0.00697133
-0.297249
-0.560323
-0.759137
-0.878826
-0.913423
-0.866088
-0.748204
-0.577715
-0.376595
-0.166876
0.0275374
0.189466
0.305
0.366506
0.37263
0.327762
0.24101
0.124786
-0.00667345
-0.139144
-0.259257
-0.356554
-0.423186
-0.454993
-0.451387
-0.415037
-0.351335
-0.267612
-0.172311
-0.0742046
0.018375
0.0981647
0.159251
0.197728
0.211541
0.200523
0.166382
0.112463
0.0432111
-0.036023
-0.1194
-0.200965
-0.274955
-0.336108
-0.380041
-0.403117
-3.0459
-3.05241
-3.05231
-3.07096
-3.07753
-3.09732
-3.11313
-3.11991
6.20337
6.11109
6.05213
5.92849
5.75727
5.54512
5.28774
4.9902
4.65225
4.27697
3.86585
3.42182
2.94742
2.44571
1.91995
1.37363
0.810544
0.235423
-0.346955
-0.932284
-1.51579
-2.09245
-2.65709
-3.20439
-3.72898
-4.22547
-4.68854
-5.11294
-5.4936
-5.8256
-6.1044
-6.32576
-6.48597
-6.58177
-6.61054
-6.5703
-6.45988
-6.27897
-6.02814
-5.70884
-5.32348
-4.87554
-4.36952
-3.81077
-3.20566
-2.56173
-1.88714
-1.19082
-0.482735
0.226733
0.926781
1.60604
2.25308
2.85679
3.40618
3.89079
4.30099
4.62822
4.86515
5.0059
5.04632
4.9841
4.81906
4.5532
4.19081
3.73858
3.20541
2.60249
1.9432
1.24267
0.517928
-0.216257
-0.936045
-1.62525
-2.26487
-2.83682
-3.32445
-3.7131
-3.99053
-4.14763
-4.17875
-4.08195
-3.85981
-3.51903
-3.07058
-2.52955
-1.91464
-1.24783
-0.553073
0.144544
0.815543
1.43474
1.97769
2.42245
2.75074
2.94918
3.00993
2.9313
2.71859
2.38356
1.94417
1.42394
0.85081
0.255478
-0.328418
-0.869531
-1.33764
-1.70701
-1.95795
-2.07792
-2.06281
-1.91734
-1.65488
-1.2971
-0.872612
-0.415851
0.0573719
0.477124
0.83156
1.09186
1.23896
1.26437
1.17042
0.970998
0.689287
0.355663
0.00355589
-0.331599
-0.619783
-0.835673
-0.963357
-0.996814
-0.940126
-0.806401
-0.615904
-0.393116
-0.162364
0.0501486
0.225864
0.349906
0.414379
0.418253
0.366745
0.270147
0.142218
-0.00141584
-0.145299
-0.275067
-0.379527
-0.450446
-0.483574
-0.478523
-0.43838
-0.369142
-0.278797
-0.176466
-0.0715445
0.0271111
0.111794
0.176354
0.216729
0.230865
0.218677
0.182078
0.124698
0.0512893
-0.032481
-0.120451
-0.206372
-0.284217
-0.348487
-0.39466
-0.418866
-3.83789
-3.84217
-3.84166
-3.85478
-3.85538
-3.86973
-3.87435
-3.87705
6.63524
6.54322
6.46808
6.33303
6.14824
5.91987
5.64326
5.32303
4.95897
4.55411
4.11012
3.63008
3.11676
2.57345
2.00372
1.41125
0.799239
0.175164
-0.456746
-1.0919
-1.72507
-2.35075
-2.96322
-3.55666
-4.12517
-4.66286
-5.16393
-5.62267
-6.03357
-6.39126
-6.69078
-6.92753
-7.09747
-7.1971
-7.22356
-7.17468
-7.04923
-6.84698
-6.56857
-6.21567
-5.79094
-5.29823
-4.74253
-4.12971
-3.46674
-2.7619
-2.02412
-1.26316
-0.489925
0.284256
1.04758
1.78763
2.49197
3.14845
3.74516
4.27068
4.7146
5.0676
5.32183
5.4709
5.51041
5.43777
5.25299
4.9584
4.55879
4.06154
3.47647
2.81588
2.09447
1.32876
0.537106
-0.262557
-1.04714
-1.79717
-2.49226
-3.11274
-3.64056
-4.05982
-4.35733
-4.52326
-4.55163
-4.44034
-4.19255
-3.81576
-3.3221
-2.72813
-2.0545
-1.32522
-0.566699
0.193052
0.923359
1.59606
2.18448
2.66481
3.01737
3.22771
3.28772
3.19521
2.9569
2.58569
2.10147
1.53012
0.902268
0.251799
-0.384778
-0.97326
-1.48071
-1.87921
-2.14754
-2.27232
-2.24937
-2.08426
-1.79193
-1.39634
-0.929014
-0.429545
0.0909347
0.547164
0.932348
1.21352
1.37002
1.39295
1.28528
1.06277
0.751194
0.384225
-0.00114714
-0.366358
-0.678714
-0.910838
-1.04585
-1.07776
-1.01156
-0.862146
-0.651995
-0.408167
-0.157024
0.0728167
0.261631
0.393612
0.460665
0.462104
0.403986
0.297772
0.158525
0.0031771
-0.151576
-0.290504
-0.401691
-0.476571
-0.51083
-0.504289
-0.460439
-0.38588
-0.289222
-0.180223
-0.0688708
0.0354855
0.124742
0.192518
0.234625
0.249016
0.235689
0.196778
0.136099
0.058787
-0.0292239
-0.121484
-0.211465
-0.292892
-0.360054
-0.408307
-0.433553
-4.53395
-4.53743
-4.53563
-4.54552
-4.5433
-4.55387
-4.55418
-4.55657
7.07082
6.97732
6.89084
6.74548
6.54681
6.30138
6.00467
5.66084
5.26998
4.83501
4.3579
3.84188
3.28984
2.70546
2.09268
1.4555
0.793345
0.122206
-0.55769
-1.24126
-1.92268
-2.59592
-3.25475
-3.89283
-4.50379
-5.08124
-5.61895
-6.11078
-6.55081
-6.93322
-7.25266
-7.50415
-7.68336
-7.78657
-7.81076
-7.7534
-7.61328
-7.39032
-7.08522
-6.69982
-6.23706
-5.70117
-5.09757
-4.43266
-3.71399
-2.95054
-2.15199
-1.32892
-0.493082
0.343232
1.16726
1.96562
2.72483
3.43184
4.07375
4.63829
5.11429
5.49169
5.76217
5.91882
5.95713
5.87402
5.66986
5.34727
4.91154
4.37069
3.73543
3.01915
2.23781
1.40931
0.553436
-0.309531
-1.15615
-1.96453
-2.71277
-3.3797
-3.94583
-4.39418
-4.71062
-4.88464
-4.91002
-4.78432
-4.51147
-4.09972
-3.56223
-2.91711
-2.18685
-1.39739
-0.577589
0.242066
1.02922
1.75312
2.38496
2.89913
3.27459
3.49594
3.55476
3.44846
3.18511
2.7787
2.25106
1.63032
0.94974
0.246055
-0.441082
-1.07496
-1.61998
-2.04613
-2.33078
-2.45976
-2.42882
-2.24439
-1.92291
-1.49057
-0.981472
-0.436991
0.120555
0.615617