/*--------------------------------*- C++ -*----------------------------------*\
  =========                 |
  \\      /  F ield         | OpenFOAM: The Open Source CFD Toolbox
   \\    /   O peration     | Website:  https://openfoam.org
    \\  /    A nd           | Version:  12
     \\/     M anipulation  |
\*---------------------------------------------------------------------------*/
FoamFile
{
    format      ascii;
    class       volScalarField;
    location    "3";
    object      p;
}
// * * * * * * * * * * * * * * * * * * * * * * * * * * * * * * * * * * * * * //

dimensions      [0 2 -2 0 0 0 0];

internalField   nonuniform List<scalar> 
400
(
3.92304e-08
1.18792e-06
2.16147e-06
2.44666e-06
2.35488e-05
0.000210315
-0.000293301
-0.00156057
-0.00288293
-0.00376133
-0.00417362
-0.00414271
-0.00378583
-0.00312065
-0.00200814
-0.000334312
0.00207169
0.00512881
0.00783137
0.00874919
5.32806e-06
6.0516e-06
1.66587e-05
3.38382e-05
-4.10246e-05
-0.000373119
-0.00122367
-0.00251023
-0.00367685
-0.00446981
-0.00478789
-0.00465814
-0.00425661
-0.00365776
-0.00276252
-0.00149908
0.000392224
0.00307252
0.00601154
0.00745332
-7.70413e-06
-6.91213e-06
-1.42069e-05
-0.000151485
-0.000560948
-0.0014039
-0.00260028
-0.00393166
-0.00503604
-0.0056649
-0.00580083
-0.00547596
-0.00484016
-0.00416669
-0.00341702
-0.00256086
-0.00143616
0.000487728
0.00315528
0.00486887
-8.80396e-05
-0.000107679
-0.000167298
-0.000541342
-0.00135881
-0.00260463
-0.00401749
-0.00531258
-0.00630401
-0.00673046
-0.00662629
-0.00615532
-0.00541706
-0.00463091
-0.00390018
-0.0032373
-0.00264612
-0.00146384
0.000393488
0.00210079
-0.000278266
-0.000333101
-0.000489778
-0.00109291
-0.00225096
-0.00375838
-0.00528569
-0.00660789
-0.00764633
-0.00807578
-0.00787787
-0.00722526
-0.00626551
-0.00528599
-0.0044491
-0.00380676
-0.00342989
-0.00273618
-0.00164059
-0.000202456
-0.000580654
-0.000667755
-0.000932241
-0.00172478
-0.00310622
-0.00481314
-0.00646889
-0.00788853
-0.00904511
-0.00954597
-0.00929875
-0.00848371
-0.0072921
-0.0060755
-0.00507831
-0.00436126
-0.00402467
-0.00357022
-0.0029949
-0.00186728
-0.000969556
-0.00108289
-0.00140004
-0.00233382
-0.003837
-0.00568455
-0.00748766
-0.0089697
-0.010171
-0.010747
-0.0104922
-0.00954508
-0.00814734
-0.00672343
-0.00560349
-0.00480598
-0.00447231
-0.00409483
-0.00381359
-0.00296867
-0.00138173
-0.00151913
-0.0018181
-0.00279829
-0.00433761
-0.00619679
-0.00807964
-0.00958068
-0.0107567
-0.0113457
-0.0110933
-0.0100805
-0.0085717
-0.00704779
-0.0058896
-0.00504807
-0.00474606
-0.00434598
-0.00429439
-0.00358996
-0.00174396
-0.0018944
-0.00216269
-0.00305591
-0.00451554
-0.0062715
-0.00813694
-0.00960455
-0.0107067
-0.0112475
-0.0109914
-0.00997694
-0.00848119
-0.00698964
-0.00588052
-0.00506014
-0.00484611
-0.00435604
-0.00453323
-0.00387115
-0.00202593
-0.00215675
-0.0024313
-0.00312973
-0.00438065
-0.00593248
-0.00763625
-0.00903721
-0.0100214
-0.0104527
-0.0101786
-0.00923524
-0.00788691
-0.00656716
-0.00559075
-0.00490118
-0.00474801
-0.0042012
-0.00460799
-0.00389763
-0.00221582
-0.00231958
-0.00256981
-0.00305088
-0.00400193
-0.00523088
-0.00660956
-0.00782404
-0.0086538
-0.00898124
-0.00873814
-0.00797539
-0.00692922
-0.00589799
-0.00513317
-0.00460672
-0.00452887
-0.00393929
-0.00453628
-0.00376781
-0.00231918
-0.00239651
-0.00257948
-0.00288306
-0.00348746
-0.00432957
-0.00531689
-0.00624048
-0.00689376
-0.00717369
-0.0070574
-0.00657666
-0.00587252
-0.00515946
-0.0046303
-0.0042591
-0.00426533
-0.00360992
-0.00441884
-0.00352489
-0.00237274
-0.00241638
-0.00252611
-0.00270246
-0.0030275
-0.00353111
-0.00416713
-0.00480846
-0.00532786
-0.00561395
-0.00561726
-0.00535413
-0.00494144
-0.00450832
-0.0041747
-0.00392398
-0.00401877
-0.00327675
-0.00432106
-0.00316722
-0.00239935
-0.00240503
-0.00244844
-0.00253751
-0.00270559
-0.00299127
-0.00338401
-0.00383368
-0.00423053
-0.00445166
-0.00451034
-0.00442858
-0.00424103
-0.00400436
-0.00380279
-0.00363745
-0.00380929
-0.00296764
-0.00427227
-0.00267947
-0.00241278
-0.00238394
-0.00236667
-0.00239353
-0.00248663
-0.00266316
-0.00292399
-0.0032398
-0.00352583
-0.00373801
-0.00385695
-0.00385914
-0.00378156
-0.0036503
-0.00352627
-0.00341085
-0.00362183
-0.00272913
-0.00420583
-0.00207506
-0.00242092
-0.00234879
-0.00227581
-0.00225863
-0.00231166
-0.00243828
-0.00263711
-0.00288691
-0.00312937
-0.00333206
-0.00346678
-0.00351453
-0.00349095
-0.00342191
-0.00334261
-0.0032489
-0.00344654
-0.00260795
-0.00407761
-0.00134453
-0.00243712
-0.00230978
-0.00218028
-0.00212685
-0.00215751
-0.00226453
-0.0024382
-0.00265858
-0.00288191
-0.00308275
-0.00323182
-0.00331212
-0.00333408
-0.00330469
-0.00326206
-0.00321685
-0.00338058
-0.00262313
-0.00384232
-0.000361304
-0.00249445
-0.00224361
-0.00207238
-0.00199502
-0.00201646
-0.00212497
-0.00229961
-0.002518
-0.00273753
-0.00294027
-0.00309761
-0.00319604
-0.0032359
-0.00322142
-0.00317778
-0.00311053
-0.00312964
-0.0026064
-0.00317266
0.00218556
-0.00275701
-0.00228975
-0.00204555
-0.00191459
-0.00192661
-0.00204391
-0.00222533
-0.00245575
-0.00268227
-0.0028956
-0.00305595
-0.00316689
-0.00322107
-0.00323942
-0.00323063
-0.0032545
-0.0034093
-0.0026566
0.000153595
0.0121762
-0.00377843
-0.00166477
-0.00142597
-0.00151045
-0.00161824
-0.00175829
-0.0019643
-0.00221091
-0.00247818
-0.0027245
-0.00293449
-0.00307716
-0.00317529
-0.00320902
-0.00317565
-0.00289186
-0.00194805
0.00163283
0.0129407
0.0349092
)
;

boundaryField
{
    movingWall
    {
        type            zeroGradient;
    }
    fixedWalls
    {
        type            zeroGradient;
    }
    frontAndBack
    {
        type            empty;
    }
}


// ************************************************************************* //
