/*--------------------------------*- C++ -*----------------------------------*\
  =========                 |
  \\      /  F ield         | OpenFOAM: The Open Source CFD Toolbox
   \\    /   O peration     | Website:  https://openfoam.org
    \\  /    A nd           | Version:  12
     \\/     M anipulation  |
\*---------------------------------------------------------------------------*/
FoamFile
{
    format      ascii;
    class       surfaceScalarField;
    location    "3";
    object      phi;
}
// * * * * * * * * * * * * * * * * * * * * * * * * * * * * * * * * * * * * * //

dimensions      [0 3 -1 0 0 0 0];

internalField   nonuniform List<scalar> 
760
(
-1.80499e-10
1.76627e-10
-1.8973e-08
1.87923e-08
-8.36926e-08
6.47194e-08
-3.05805e-07
2.22112e-07
-9.60354e-07
6.54549e-07
-2.31687e-06
1.35651e-06
-3.93194e-06
1.61507e-06
-5.10504e-06
1.1731e-06
-5.95056e-06
8.45518e-07
-6.52078e-06
5.70224e-07
-6.80443e-06
2.83647e-07
-6.9262e-06
1.21772e-07
-6.87563e-06
-5.05738e-08
-6.7386e-06
-1.37028e-07
-6.45349e-06
-2.8511e-07
-5.97126e-06
-4.82229e-07
-5.1117e-06
-8.59557e-07
-3.62555e-06
-1.48616e-06
-1.61026e-06
-2.01528e-06
-1.61026e-06
-8.83243e-08
8.85009e-08
-2.53108e-07
1.83576e-07
-6.22129e-07
4.33741e-07
-1.4902e-06
1.09019e-06
-2.96105e-06
2.1254e-06
-4.37599e-06
2.77145e-06
-5.20012e-06
2.43919e-06
-5.88958e-06
1.86256e-06
-6.44884e-06
1.40478e-06
-6.72562e-06
8.47008e-07
-6.86131e-06
4.1934e-07
-6.7871e-06
4.75598e-08
-6.60519e-06
-2.32481e-07
-6.34552e-06
-3.96699e-07
-5.99846e-06
-6.32177e-07
-5.59559e-06
-8.85095e-07
-4.98207e-06
-1.47308e-06
-3.88737e-06
-2.58085e-06
-2.11252e-06
-3.79013e-06
-3.72279e-06
-2.29834e-07
3.18335e-07
-6.29081e-07
5.82822e-07
-1.37192e-06
1.17658e-06
-2.59157e-06
2.30983e-06
-3.79393e-06
3.32775e-06
-4.56245e-06
3.53997e-06
-5.05547e-06
2.93221e-06
-5.38769e-06
2.19478e-06
-5.5169e-06
1.53399e-06
-5.42609e-06
7.56191e-07
-5.22685e-06
2.20104e-07
-4.92678e-06
-2.52513e-07
-4.54931e-06
-6.09945e-07
-4.22289e-06
-7.23123e-07
-3.93216e-06
-9.22905e-07
-3.69025e-06
-1.127e-06
-3.43977e-06
-1.72356e-06
-2.92809e-06
-3.09254e-06
-1.80871e-06
-4.90951e-06
-5.53149e-06
-3.52545e-07
6.7088e-07
-9.0088e-07
1.13116e-06
-1.73986e-06
2.01556e-06
-2.79852e-06
3.3685e-06
-3.57694e-06
4.10618e-06
-4.05698e-06
4.02001e-06
-4.3437e-06
3.21893e-06
-4.58264e-06
2.43371e-06
-4.74492e-06
1.69628e-06
-4.75423e-06
7.65503e-07
-4.50802e-06
-2.61051e-08
-4.08e-06
-6.80533e-07
-3.5469e-06
-1.14305e-06
-2.98179e-06
-1.28823e-06
-2.50919e-06
-1.3955e-06
-2.19212e-06
-1.44407e-06
-2.11811e-06
-1.79758e-06
-2.07823e-06
-3.13241e-06
-1.35068e-06
-5.63706e-06
-6.88218e-06
-4.10945e-07
1.08183e-06
-9.84789e-07
1.705e-06
-1.73971e-06
2.77048e-06
-2.50812e-06
4.1369e-06
-3.02858e-06
4.62664e-06
-3.42411e-06
4.41555e-06
-3.75683e-06
3.55165e-06
-4.07473e-06
2.75161e-06
-4.30373e-06
1.92528e-06
-4.35034e-06
8.1212e-07
-4.16186e-06
-2.14591e-07
-3.74059e-06
-1.1018e-06
-3.16684e-06
-1.7168e-06
-2.51124e-06
-1.94384e-06
-1.91089e-06
-1.99584e-06
-1.41028e-06
-1.94469e-06
-1.18719e-06
-2.02066e-06
-1.22435e-06
-3.09524e-06
-1.02384e-06
-5.83758e-06
-7.90602e-06
-3.99018e-07
1.48084e-06
-9.11993e-07
2.21798e-06
-1.50031e-06
3.3588e-06
-2.02224e-06
4.65883e-06
-2.39853e-06
5.00293e-06
-2.71748e-06
4.7345e-06
-3.04383e-06
3.878e-06
-3.32748e-06
3.03525e-06
-3.48637e-06
2.08417e-06
-3.51655e-06
8.42299e-07
-3.3698e-06
-3.61345e-07
-3.02666e-06
-1.44494e-06
-2.53883e-06
-2.20462e-06
-1.9773e-06
-2.50537e-06
-1.4531e-06
-2.52005e-06
-1.0098e-06
-2.38799e-06
-7.46551e-07
-2.28391e-06
-7.23065e-07
-3.11873e-06
-6.76913e-07
-5.88373e-06
-8.58293e-06
-3.18848e-07
1.79969e-06
-7.10489e-07
2.60962e-06
-1.07093e-06
3.71924e-06
-1.34613e-06
4.93403e-06
-1.57751e-06
5.23431e-06
-1.80721e-06
4.9642e-06
-2.04027e-06
4.11106e-06
-2.22315e-06
3.21814e-06
-2.31448e-06
2.1755e-06
-2.32769e-06
8.5551e-07
-2.23195e-06
-4.57085e-07
-2.00053e-06
-1.67637e-06
-1.64928e-06
-2.55587e-06
-1.24178e-06
-2.91287e-06
-8.70406e-07
-2.89142e-06
-5.68119e-07
-2.69028e-06
-4.0731e-07
-2.44472e-06
-4.2596e-07
-3.10008e-06
-5.23486e-07
-5.7862e-06
-9.10642e-06
-2.05658e-07
2.00535e-06
-4.28309e-07
2.83227e-06
-5.50233e-07
3.84117e-06
-6.14278e-07
4.99808e-06
-6.68343e-07
5.28837e-06
-7.6371e-07
5.05956e-06
-8.91469e-07
4.23882e-06
-9.46199e-07
3.27287e-06
-9.64927e-07
2.19423e-06
-9.59664e-07
8.50247e-07
-8.83613e-07
-5.33136e-07
-7.46717e-07
-1.81326e-06
-5.83674e-07
-2.71892e-06
-4.33546e-07
-3.063e-06
-2.93734e-07
-3.03123e-06
-2.05815e-07
-2.7782e-06
-1.63314e-07
-2.48722e-06
-2.38484e-07
-3.02491e-06
-3.48731e-07
-5.67596e-06
-9.45515e-06
-7.06076e-08
2.07596e-06
-1.44506e-07
2.90617e-06
-2.94515e-08
3.72611e-06
1.01431e-07
4.86719e-06
1.98043e-07
5.19176e-06
2.64763e-07
4.99284e-06
2.4499e-07
4.2586e-06
2.76616e-07
3.24124e-06
3.44367e-07
2.12648e-06
3.88248e-07
8.06367e-07
4.42799e-07
-5.87687e-07
4.73289e-07
-1.84375e-06
4.20456e-07
-2.66608e-06
3.49906e-07
-2.99245e-06
2.61216e-07
-2.94254e-06
1.42635e-07
-2.65961e-06
7.44359e-08
-2.41902e-06
-9.93003e-08
-2.85117e-06
-2.96013e-07
-5.47924e-06
-9.75116e-06
6.60887e-08
2.00987e-06
9.49141e-08
2.87734e-06
3.5885e-07
3.46218e-06
8.0936e-07
4.41668e-06
1.08211e-06
4.91902e-06
1.31558e-06
4.75937e-06
1.42867e-06
4.1455e-06
1.52153e-06
3.14838e-06
1.6364e-06
2.01161e-06
1.69636e-06
7.46414e-07
1.66593e-06
-5.57263e-07
1.53468e-06
-1.7125e-06
1.29196e-06
-2.42337e-06
9.91345e-07
-2.69183e-06
6.85098e-07
-2.6363e-06
4.25434e-07
-2.39995e-06
2.03488e-07
-2.19708e-06
-3.12651e-08
-2.61642e-06
-2.11816e-07
-5.29869e-06
-9.96298e-06
1.60551e-07
1.84932e-06
2.76932e-07
2.76096e-06
5.83292e-07
3.15582e-06
1.19353e-06
3.80644e-06
1.7517e-06
4.36085e-06
2.18593e-06
4.32514e-06
2.47137e-06
3.86006e-06
2.64176e-06
2.978e-06
2.74905e-06
1.90431e-06
2.77988e-06
7.15588e-07
2.6597e-06
-4.37088e-07
2.35629e-06
-1.40909e-06
1.93501e-06
-2.00209e-06
1.47474e-06
-2.23156e-06
1.03016e-06
-2.19171e-06
6.54815e-07
-2.02461e-06
3.26866e-07
-1.86913e-06
4.48173e-08
-2.33437e-06
-1.92349e-07
-5.06153e-06
-1.01553e-05
2.20453e-07
1.62886e-06
3.94199e-07
2.58722e-06
6.66563e-07
2.88345e-06
1.2381e-06
3.23491e-06
1.94871e-06
3.65025e-06
2.56323e-06
3.71061e-06
3.02318e-06
3.40011e-06
3.29545e-06
2.70573e-06
3.41227e-06
1.78749e-06
3.36757e-06
7.6029e-07
3.14259e-06
-2.12111e-07
2.73797e-06
-1.00446e-06
2.21753e-06
-1.48165e-06
1.66751e-06
-1.68153e-06
1.16216e-06
-1.68636e-06
7.59216e-07
-1.62167e-06
4.05792e-07
-1.5157e-06
8.41871e-08
-2.01277e-06
-1.53554e-07
-4.82379e-06
-1.03089e-05
2.33642e-07
1.39522e-06
4.41797e-07
2.37906e-06
6.8471e-07
2.64054e-06
1.12345e-06
2.79616e-06
1.76371e-06
3.00999e-06
2.42006e-06
3.05427e-06
2.96959e-06
2.85058e-06
3.32915e-06
2.34616e-06
3.46382e-06
1.65282e-06
3.41648e-06
8.07632e-07
3.18382e-06
2.05436e-08
2.75767e-06
-5.78306e-07
2.22292e-06
-9.46905e-07
1.68484e-06
-1.14345e-06
1.19845e-06
-1.19997e-06
7.9526e-07
-1.21848e-06
4.49485e-07
-1.16993e-06
9.33728e-08
-1.65665e-06
-1.79259e-07
-4.55115e-06
-1.04881e-05
1.99236e-07
1.19599e-06
4.13315e-07
2.16498e-06
6.39097e-07
2.41476e-06
9.69163e-07
2.4661e-06
1.45994e-06
2.51922e-06
2.02572e-06
2.48849e-06
2.54981e-06
2.32648e-06
2.94855e-06
1.94742e-06
3.1405e-06
1.46088e-06
3.10445e-06
8.43676e-07
2.86741e-06
2.57588e-07
2.49022e-06
-2.01121e-07
2.04305e-06
-4.99733e-07
1.58875e-06
-6.89149e-07
1.17158e-06
-7.82806e-07
7.92277e-07
-8.39171e-07
4.72733e-07
-8.50384e-07
7.4812e-08
-1.25873e-06
-1.3535e-07
-4.34099e-06
-1.06235e-05
1.42721e-07
1.05327e-06
3.43342e-07
1.96436e-06
5.78396e-07
2.17971e-06
8.6036e-07
2.18413e-06
1.23382e-06
2.14575e-06
1.66641e-06
2.0559e-06
2.09047e-06
1.90242e-06
2.41927e-06
1.61862e-06
2.60315e-06
1.277e-06
2.61136e-06
8.35466e-07
2.44944e-06
4.19506e-07
2.17045e-06
7.78755e-08
1.8386e-06
-1.67884e-07
1.47679e-06
-3.2734e-07
1.11488e-06
-4.209e-07
7.45921e-07
-4.70208e-07
4.66352e-07
-5.70815e-07
8.35353e-08
-8.75917e-07
-3.98485e-08
-4.21761e-06
-1.06633e-05
3.86679e-08
1.0146e-06
1.97926e-07
1.8051e-06
4.19374e-07
1.95826e-06
6.94413e-07
1.90909e-06
1.01926e-06
1.82091e-06
1.36927e-06
1.70589e-06
1.71403e-06
1.55766e-06
1.99353e-06
1.33912e-06
2.16789e-06
1.10265e-06
2.20736e-06
7.9599e-07
2.11504e-06
5.11826e-07
1.925e-06
2.67917e-07
1.67055e-06
8.65671e-08
1.37382e-06
-3.06103e-08
1.05769e-06
-1.04775e-07
7.26576e-07
-1.39089e-07
4.81374e-07
-3.25613e-07
1.70525e-07
-5.65067e-07
1.47559e-07
-4.19464e-06
-1.05158e-05
-9.13116e-08
1.10591e-06
6.83291e-08
1.64546e-06
3.20792e-07
1.7058e-06
5.98316e-07
1.63157e-06
8.99553e-07
1.51967e-06
1.19983e-06
1.40561e-06
1.48501e-06
1.27248e-06
1.71402e-06
1.11011e-06
1.87095e-06
9.45718e-07
1.92202e-06
7.44914e-07
1.86917e-06
5.64679e-07
1.73218e-06
4.04905e-07
1.54092e-06
2.77827e-07
1.30851e-06
2.01807e-07
1.07799e-06
1.25744e-07
8.17114e-07
1.21784e-07
5.22992e-07
-3.14908e-08
3.45579e-07
-3.87653e-07
4.34968e-07
-4.28403e-06
-1.00808e-05
-3.95876e-07
1.50179e-06
-2.77338e-07
1.52692e-06
1.0895e-08
1.41756e-06
3.3231e-07
1.31015e-06
6.56845e-07
1.19513e-06
9.63732e-07
1.09872e-06
1.25127e-06
9.84944e-07
1.48301e-06
8.78365e-07
1.65558e-06
7.73148e-07
1.73728e-06
6.63222e-07
1.74139e-06
5.60562e-07
1.66927e-06
4.77026e-07
1.54146e-06
4.0564e-07
1.35917e-06
3.84096e-07
1.13485e-06
3.50067e-07
8.84991e-07
3.71642e-07
6.98161e-07
1.5534e-07
8.76379e-07
-5.65871e-07
9.81435e-07
-4.38909e-06
-9.09937e-06
-6.81036e-07
2.18282e-06
-3.97918e-07
1.24381e-06
4.35086e-08
9.76135e-07
4.55515e-07
8.98149e-07
8.46173e-07
8.04476e-07
1.1914e-06
7.53496e-07
1.51667e-06
6.59675e-07
1.76855e-06
6.26484e-07
1.99358e-06
5.48124e-07
2.12907e-06
5.2773e-07
2.23461e-06
4.55019e-07
2.25369e-06
4.57942e-07
2.26288e-06
3.96454e-07
2.21575e-06
4.3123e-07
2.20478e-06
3.61032e-07
2.24507e-06
3.3135e-07
2.36365e-06
3.67603e-08
2.72636e-06
-9.28581e-07
2.17778e-06
-3.84051e-06
-6.92159e-06
2.18282e-06
3.42663e-06
4.40276e-06
5.30091e-06
6.10539e-06
6.85888e-06
7.51856e-06
8.14504e-06
8.69317e-06
9.2209e-06
9.67592e-06
1.01339e-05
1.05303e-05
1.09615e-05
1.13226e-05
1.16539e-05
1.16907e-05
1.07621e-05
6.92159e-06
)
;

boundaryField
{
    movingWall
    {
        type            calculated;
        value           uniform 0;
    }
    fixedWalls
    {
        type            calculated;
        value           uniform 0;
    }
    frontAndBack
    {
        type            empty;
    }
}


// ************************************************************************* //
