/*--------------------------------*- C++ -*----------------------------------*\
  =========                 |
  \\      /  F ield         | OpenFOAM: The Open Source CFD Toolbox
   \\    /   O peration     | Website:  https://openfoam.org
    \\  /    A nd           | Version:  12
     \\/     M anipulation  |
\*---------------------------------------------------------------------------*/
FoamFile
{
    format      ascii;
    class       volScalarField;
    location    "2.32";
    object      p;
}
// * * * * * * * * * * * * * * * * * * * * * * * * * * * * * * * * * * * * * //

dimensions      [1 -1 -2 0 0 0 0];

internalField   nonuniform List<scalar> 
3829
(
-615.342
-615.341
-615.34
-615.339
-615.337
-615.334
-615.331
-615.328
-615.324
-615.319
-615.313
-615.307
-615.301
-615.294
-615.286
-615.278
-615.269
-615.259
-615.249
-615.238
-615.227
-615.215
-615.203
-615.19
-615.176
-615.162
-615.148
-615.132
-615.117
-615.1
-615.084
-615.066
-615.049
-615.03
-615.012
-614.993
-614.973
-614.953
-614.933
-614.912
-614.891
-614.869
-614.847
-614.825
-614.803
-614.78
-614.758
-614.735
-614.712
-614.689
-614.666
-614.643
-614.62
-614.598
-614.576
-614.554
-614.533
-614.512
-614.492
-614.473
-614.454
-614.436
-614.419
-614.403
-614.388
-614.375
-614.362
-614.351
-614.341
-614.332
-614.325
-614.319
-614.314
-614.31
-614.308
-614.307
-614.308
-614.309
-614.312
-614.315
-614.32
-614.325
-614.331
-614.338
-614.345
-614.352
-614.36
-614.368
-614.377
-614.385
-614.392
-614.4
-614.407
-614.414
-614.42
-614.426
-614.431
-614.435
-614.439
-614.441
-614.443
-614.444
-614.444
-614.443
-614.441
-614.439
-614.435
-614.431
-614.427
-614.421
-614.416
-614.409
-614.402
-614.395
-614.388
-614.38
-614.372
-614.364
-614.356
-614.348
-614.341
-614.333
-614.326
-614.319
-614.312
-614.306
-614.3
-614.295
-614.29
-614.285
-614.281
-614.278
-614.275
-614.272
-614.27
-614.269
-614.268
-614.268
-614.268
-614.269
-614.27
-614.271
-614.273
-614.275
-614.278
-614.281
-614.284
-614.287
-614.29
-614.294
-614.297
-614.301
-614.305
-614.309
-614.313
-614.317
-614.32
-614.324
-614.328
-614.331
-614.334
-614.338
-614.341
-614.343
-614.346
-614.348
-614.351
-614.353
-614.355
-614.356
-614.358
-614.359
-614.36
-614.361
-614.361
-614.362
-614.362
-614.362
-614.363
-614.362
-614.362
-614.362
-614.362
-614.361
-614.361
-614.36
-614.36
-614.359
-614.359
-614.358
-614.358
-614.357
-614.357
-614.356
-614.356
-614.355
-614.355
-614.355
-614.355
-614.355
-1773.75
-1773.75
-1773.75
-1773.75
-1773.75
-1773.74
-1773.74
-1773.74
-1773.73
-1773.73
-1773.72
-1773.71
-1773.71
-1773.7
-1773.69
-1773.68
-1773.67
-1773.66
-1773.65
-1773.63
-1773.62
-1773.61
-1773.6
-1773.58
-1773.57
-1773.55
-1773.54
-1773.52
-1773.5
-1773.48
-1773.47
-1773.45
-1773.43
-1773.41
-1773.39
-1773.37
-1773.35
-1773.33
-1773.31
-1773.29
-1773.26
-1773.24
-1773.22
-1773.2
-1773.17
-1773.15
-1773.12
-1773.1
-1773.07
-1773.05
-1773.03
-1773
-1772.98
-1772.95
-1772.93
-1772.91
-1772.88
-1772.86
-1772.84
-1772.82
-1772.8
-1772.78
-1772.76
-1772.75
-1772.73
-1772.72
-1772.71
-1772.69
-1772.68
-1772.68
-1772.67
-1772.66
-1772.66
-1772.66
-1772.66
-1772.66
-1772.66
-1772.66
-1772.67
-1772.67
-1772.68
-1772.68
-1772.69
-1772.7
-1772.71
-1772.72
-1772.73
-1772.74
-1772.75
-1772.76
-1772.77
-1772.77
-1772.78
-1772.79
-1772.8
-1772.8
-1772.81
-1772.81
-1772.82
-1772.82
-1772.82
-1772.82
-1772.82
-1772.82
-1772.82
-1772.81
-1772.81
-1772.81
-1772.8
-1772.79
-1772.79
-1772.78
-1772.77
-1772.77
-1772.76
-1772.75
-1772.74
-1772.73
-1772.73
-1772.72
-1772.71
-1772.7
-1772.69
-1772.69
-1772.68
-1772.67
-1772.67
-1772.66
-1772.66
-1772.65
-1772.65
-1772.64
-1772.64
-1772.64
-1772.64
-1772.64
-1772.64
-1772.64
-1772.64
-1772.64
-1772.64
-1772.64
-1772.64
-1772.64
-1772.65
-1772.65
-1772.65
-1772.66
-1772.66
-1772.66
-1772.67
-1772.67
-1772.67
-1772.68
-1772.68
-1772.69
-1772.69
-1772.69
-1772.7
-1772.7
-1772.7
-1772.71
-1772.71
-1772.71
-1772.72
-1772.72
-1772.72
-1772.72
-1772.72
-1772.73
-1772.73
-1772.73
-1772.73
-1772.73
-1772.73
-1772.73
-1772.73
-1772.73
-1772.73
-1772.73
-1772.73
-1772.73
-1772.73
-1772.73
-1772.73
-1772.73
-1772.73
-1772.73
-1772.73
-1772.73
-1772.73
-1772.73
-1772.73
-1772.73
-1772.73
-1772.72
-1772.72
-1772.72
-1772.72
-1772.72
-2799.99
-2799.99
-2799.99
-2799.99
-2799.98
-2799.98
-2799.97
-2799.97
-2799.96
-2799.95
-2799.95
-2799.94
-2799.93
-2799.92
-2799.9
-2799.89
-2799.88
-2799.87
-2799.85
-2799.84
-2799.82
-2799.81
-2799.79
-2799.78
-2799.76
-2799.74
-2799.72
-2799.71
-2799.69
-2799.67
-2799.65
-2799.63
-2799.61
-2799.59
-2799.57
-2799.55
-2799.52
-2799.5
-2799.48
-2799.46
-2799.43
-2799.41
-2799.38
-2799.36
-2799.33
-2799.3
-2799.28
-2799.25
-2799.22
-2799.2
-2799.17
-2799.14
-2799.12
-2799.09
-2799.06
-2799.04
-2799.01
-2798.99
-2798.96
-2798.94
-2798.92
-2798.9
-2798.88
-2798.86
-2798.85
-2798.83
-2798.82
-2798.81
-2798.8
-2798.79
-2798.79
-2798.78
-2798.78
-2798.78
-2798.78
-2798.78
-2798.79
-2798.79
-2798.8
-2798.81
-2798.82
-2798.83
-2798.84
-2798.85
-2798.86
-2798.88
-2798.89
-2798.9
-2798.91
-2798.92
-2798.93
-2798.94
-2798.95
-2798.96
-2798.97
-2798.98
-2798.98
-2798.99
-2798.99
-2798.99
-2798.99
-2798.99
-2798.99
-2798.99
-2798.99
-2798.98
-2798.98
-2798.97
-2798.97
-2798.96
-2798.95
-2798.95
-2798.94
-2798.93
-2798.92
-2798.91
-2798.9
-2798.89
-2798.88
-2798.88
-2798.87
-2798.86
-2798.85
-2798.84
-2798.84
-2798.83
-2798.82
-2798.82
-2798.81
-2798.81
-2798.8
-2798.8
-2798.8
-2798.8
-2798.79
-2798.79
-2798.79
-2798.79
-2798.79
-2798.79
-2798.8
-2798.8
-2798.8
-2798.8
-2798.81
-2798.81
-2798.81
-2798.82
-2798.82
-2798.82
-2798.83
-2798.83
-2798.84
-2798.84
-2798.84
-2798.85
-2798.85
-2798.86
-2798.86
-2798.86
-2798.87
-2798.87
-2798.87
-2798.87
-2798.88
-2798.88
-2798.88
-2798.88
-2798.89
-2798.89
-2798.89
-2798.89
-2798.89
-2798.89
-2798.89
-2798.89
-2798.89
-2798.89
-2798.89
-2798.89
-2798.89
-2798.89
-2798.89
-2798.89
-2798.89
-2798.89
-2798.89
-2798.89
-2798.89
-2798.89
-2798.89
-2798.89
-2798.89
-2798.89
-2798.89
-2798.89
-2798.88
-2798.88
-2798.88
-2798.88
-3709.14
-3709.14
-3709.14
-3709.13
-3709.13
-3709.12
-3709.12
-3709.11
-3709.1
-3709.09
-3709.07
-3709.06
-3709.05
-3709.03
-3709.01
-3709
-3708.98
-3708.96
-3708.95
-3708.93
-3708.91
-3708.89
-3708.87
-3708.85
-3708.83
-3708.81
-3708.79
-3708.77
-3708.75
-3708.73
-3708.71
-3708.69
-3708.67
-3708.65
-3708.63
-3708.6
-3708.58
-3708.56
-3708.53
-3708.51
-3708.48
-3708.45
-3708.43
-3708.4
-3708.37
-3708.34
-3708.31
-3708.28
-3708.25
-3708.22
-3708.19
-3708.16
-3708.12
-3708.09
-3708.06
-3708.03
-3708
-3707.98
-3707.95
-3707.92
-3707.9
-3707.88
-3707.86
-3707.84
-3707.82
-3707.81
-3707.79
-3707.78
-3707.77
-3707.77
-3707.76
-3707.76
-3707.76
-3707.77
-3707.77
-3707.78
-3707.79
-3707.8
-3707.81
-3707.82
-3707.83
-3707.85
-3707.86
-3707.88
-3707.9
-3707.91
-3707.93
-3707.94
-3707.96
-3707.97
-3707.98
-3708
-3708.01
-3708.02
-3708.03
-3708.03
-3708.04
-3708.05
-3708.05
-3708.05
-3708.05
-3708.05
-3708.05
-3708.05
-3708.04
-3708.04
-3708.03
-3708.02
-3708.02
-3708.01
-3708
-3707.99
-3707.98
-3707.97
-3707.96
-3707.95
-3707.94
-3707.93
-3707.92
-3707.91
-3707.9
-3707.89
-3707.88
-3707.88
-3707.87
-3707.86
-3707.86
-3707.85
-3707.85
-3707.84
-3707.84
-3707.83
-3707.83
-3707.83
-3707.83
-3707.83
-3707.83
-3707.83
-3707.83
-3707.83
-3707.83
-3707.83
-3707.84
-3707.84
-3707.84
-3707.85
-3707.85
-3707.85
-3707.86
-3707.86
-3707.87
-3707.87
-3707.87
-3707.88
-3707.88
-3707.89
-3707.89
-3707.89
-3707.9
-3707.9
-3707.91
-3707.91
-3707.91
-3707.91
-3707.92
-3707.92
-3707.92
-3707.92
-3707.93
-3707.93
-3707.93
-3707.93
-3707.93
-3707.93
-3707.93
-3707.93
-3707.93
-3707.93
-3707.93
-3707.93
-3707.93
-3707.93
-3707.93
-3707.93
-3707.93
-3707.93
-3707.93
-3707.93
-3707.93
-3707.93
-3707.93
-3707.93
-3707.93
-3707.92
-3707.92
-3707.92
-3707.92
-3707.92
-3707.92
-3707.92
-4514.58
-4514.58
-4514.58
-4514.57
-4514.56
-4514.55
-4514.54
-4514.52
-4514.51
-4514.49
-4514.47
-4514.45
-4514.43
-4514.41
-4514.38
-4514.36
-4514.34
-4514.31
-4514.29
-4514.26
-4514.24
-4514.22
-4514.19
-4514.17
-4514.15
-4514.13
-4514.11
-4514.09
-4514.07
-4514.05
-4514.02
-4514
-4513.98
-4513.96
-4513.94
-4513.92
-4513.89
-4513.87
-4513.84
-4513.82
-4513.79
-4513.76
-4513.73
-4513.7
-4513.66
-4513.63
-4513.6
-4513.56
-4513.52
-4513.49
-4513.45
-4513.41
-4513.38
-4513.34
-4513.31
-4513.27
-4513.24
-4513.2
-4513.17
-4513.14
-4513.12
-4513.09
-4513.07
-4513.05
-4513.03
-4513.01
-4513
-4512.99
-4512.98
-4512.98
-4512.98
-4512.98
-4512.99
-4512.99
-4513
-4513.01
-4513.03
-4513.04
-4513.06
-4513.08
-4513.1
-4513.12
-4513.14
-4513.16
-4513.18
-4513.2
-4513.22
-4513.24
-4513.26
-4513.27
-4513.29
-4513.3
-4513.32
-4513.33
-4513.34
-4513.35
-4513.35
-4513.36
-4513.36
-4513.36
-4513.36
-4513.36
-4513.36
-4513.35
-4513.35
-4513.34
-4513.33
-4513.32
-4513.31
-4513.3
-4513.29
-4513.28
-4513.27
-4513.26
-4513.25
-4513.24
-4513.23
-4513.22
-4513.21
-4513.2
-4513.19
-4513.18
-4513.17
-4513.16
-4513.15
-4513.14
-4513.14
-4513.13
-4513.13
-4513.12
-4513.12
-4513.12
-4513.11
-4513.11
-4513.11
-4513.11
-4513.11
-4513.11
-4513.11
-4513.11
-4513.12
-4513.12
-4513.12
-4513.13
-4513.13
-4513.13
-4513.14
-4513.14
-4513.15
-4513.15
-4513.15
-4513.16
-4513.16
-4513.17
-4513.17
-4513.18
-4513.18
-4513.18
-4513.19
-4513.19
-4513.19
-4513.2
-4513.2
-4513.2
-4513.21
-4513.21
-4513.21
-4513.21
-4513.21
-4513.22
-4513.22
-4513.22
-4513.22
-4513.22
-4513.22
-4513.22
-4513.22
-4513.22
-4513.22
-4513.22
-4513.22
-4513.22
-4513.22
-4513.22
-4513.22
-4513.22
-4513.22
-4513.22
-4513.22
-4513.22
-4513.21
-4513.21
-4513.21
-4513.21
-4513.21
-4513.21
-4513.21
-4513.21
-4513.21
-4513.21
-5228.16
-5228.16
-5228.15
-5228.14
-5228.13
-5228.11
-5228.09
-5228.06
-5228.04
-5228.01
-5227.98
-5227.94
-5227.91
-5227.87
-5227.84
-5227.8
-5227.77
-5227.73
-5227.7
-5227.67
-5227.64
-5227.61
-5227.58
-5227.56
-5227.54
-5227.52
-5227.5
-5227.48
-5227.46
-5227.44
-5227.42
-5227.41
-5227.39
-5227.37
-5227.35
-5227.33
-5227.3
-5227.28
-5227.25
-5227.22
-5227.19
-5227.16
-5227.13
-5227.09
-5227.05
-5227.01
-5226.97
-5226.93
-5226.89
-5226.85
-5226.8
-5226.76
-5226.72
-5226.67
-5226.63
-5226.59
-5226.55
-5226.51
-5226.48
-5226.44
-5226.41
-5226.38
-5226.36
-5226.33
-5226.32
-5226.3
-5226.29
-5226.28
-5226.27
-5226.27
-5226.27
-5226.28
-5226.29
-5226.3
-5226.32
-5226.33
-5226.35
-5226.37
-5226.4
-5226.42
-5226.45
-5226.48
-5226.5
-5226.53
-5226.56
-5226.58
-5226.61
-5226.63
-5226.65
-5226.67
-5226.69
-5226.71
-5226.72
-5226.73
-5226.74
-5226.75
-5226.76
-5226.76
-5226.77
-5226.77
-5226.76
-5226.76
-5226.76
-5226.75
-5226.74
-5226.73
-5226.72
-5226.71
-5226.7
-5226.69
-5226.68
-5226.67
-5226.65
-5226.64
-5226.63
-5226.62
-5226.6
-5226.59
-5226.58
-5226.57
-5226.56
-5226.55
-5226.54
-5226.53
-5226.52
-5226.52
-5226.51
-5226.5
-5226.5
-5226.49
-5226.49
-5226.49
-5226.49
-5226.48
-5226.48
-5226.48
-5226.48
-5226.49
-5226.49
-5226.49
-5226.49
-5226.49
-5226.5
-5226.5
-5226.51
-5226.51
-5226.51
-5226.52
-5226.52
-5226.53
-5226.53
-5226.54
-5226.54
-5226.55
-5226.55
-5226.55
-5226.56
-5226.56
-5226.57
-5226.57
-5226.57
-5226.58
-5226.58
-5226.58
-5226.59
-5226.59
-5226.59
-5226.59
-5226.59
-5226.6
-5226.6
-5226.6
-5226.6
-5226.6
-5226.6
-5226.6
-5226.6
-5226.6
-5226.6
-5226.6
-5226.6
-5226.6
-5226.6
-5226.6
-5226.6
-5226.6
-5226.6
-5226.59
-5226.59
-5226.59
-5226.59
-5226.59
-5226.59
-5226.59
-5226.59
-5226.59
-5226.59
-5226.59
-5226.59
-5226.59
-5860.4
-5860.39
-5860.38
-5860.36
-5860.33
-5860.3
-5860.26
-5860.22
-5860.17
-5860.12
-5860.07
-5860.02
-5859.96
-5859.91
-5859.85
-5859.8
-5859.75
-5859.7
-5859.66
-5859.62
-5859.58
-5859.55
-5859.52
-5859.5
-5859.48
-5859.46
-5859.45
-5859.43
-5859.42
-5859.41
-5859.4
-5859.39
-5859.38
-5859.37
-5859.35
-5859.33
-5859.31
-5859.28
-5859.26
-5859.23
-5859.19
-5859.16
-5859.12
-5859.08
-5859.03
-5858.99
-5858.94
-5858.89
-5858.84
-5858.79
-5858.74
-5858.69
-5858.64
-5858.58
-5858.53
-5858.49
-5858.44
-5858.39
-5858.35
-5858.31
-5858.28
-5858.24
-5858.22
-5858.19
-5858.17
-5858.15
-5858.14
-5858.14
-5858.13
-5858.14
-5858.14
-5858.15
-5858.17
-5858.19
-5858.21
-5858.23
-5858.26
-5858.29
-5858.32
-5858.35
-5858.38
-5858.42
-5858.45
-5858.49
-5858.52
-5858.55
-5858.58
-5858.61
-5858.63
-5858.66
-5858.68
-5858.7
-5858.71
-5858.73
-5858.74
-5858.74
-5858.75
-5858.75
-5858.75
-5858.75
-5858.75
-5858.75
-5858.74
-5858.73
-5858.72
-5858.71
-5858.7
-5858.69
-5858.67
-5858.66
-5858.64
-5858.63
-5858.62
-5858.6
-5858.59
-5858.57
-5858.56
-5858.55
-5858.54
-5858.52
-5858.51
-5858.5
-5858.49
-5858.48
-5858.48
-5858.47
-5858.46
-5858.46
-5858.45
-5858.45
-5858.44
-5858.44
-5858.44
-5858.44
-5858.44
-5858.44
-5858.44
-5858.44
-5858.44
-5858.45
-5858.45
-5858.45
-5858.46
-5858.46
-5858.46
-5858.47
-5858.47
-5858.48
-5858.48
-5858.49
-5858.49
-5858.5
-5858.5
-5858.51
-5858.51
-5858.52
-5858.52
-5858.52
-5858.53
-5858.53
-5858.54
-5858.54
-5858.54
-5858.54
-5858.55
-5858.55
-5858.55
-5858.55
-5858.56
-5858.56
-5858.56
-5858.56
-5858.56
-5858.56
-5858.56
-5858.56
-5858.56
-5858.56
-5858.56
-5858.56
-5858.56
-5858.56
-5858.56
-5858.56
-5858.56
-5858.56
-5858.56
-5858.55
-5858.55
-5858.55
-5858.55
-5858.55
-5858.55
-5858.55
-5858.55
-5858.55
-5858.55
-5858.55
-5858.55
-5858.55
-6420.61
-6420.6
-6420.57
-6420.54
-6420.5
-6420.45
-6420.39
-6420.32
-6420.24
-6420.16
-6420.07
-6419.98
-6419.9
-6419.81
-6419.73
-6419.65
-6419.57
-6419.51
-6419.45
-6419.4
-6419.35
-6419.32
-6419.29
-6419.27
-6419.26
-6419.25
-6419.25
-6419.25
-6419.25
-6419.25
-6419.26
-6419.26
-6419.25
-6419.25
-6419.24
-6419.22
-6419.2
-6419.18
-6419.15
-6419.12
-6419.08
-6419.04
-6419
-6418.95
-6418.9
-6418.84
-6418.79
-6418.73
-6418.67
-6418.61
-6418.55
-6418.49
-6418.42
-6418.36
-6418.3
-6418.25
-6418.19
-6418.14
-6418.09
-6418.04
-6418
-6417.97
-6417.94
-6417.91
-6417.89
-6417.87
-6417.86
-6417.86
-6417.86
-6417.86
-6417.88
-6417.89
-6417.91
-6417.94
-6417.97
-6418
-6418.04
-6418.07
-6418.11
-6418.15
-6418.2
-6418.24
-6418.28
-6418.32
-6418.36
-6418.39
-6418.43
-6418.46
-6418.49
-6418.52
-6418.54
-6418.56
-6418.58
-6418.59
-6418.6
-6418.61
-6418.62
-6418.62
-6418.62
-6418.61
-6418.61
-6418.6
-6418.59
-6418.58
-6418.57
-6418.56
-6418.54
-6418.53
-6418.51
-6418.5
-6418.48
-6418.47
-6418.45
-6418.43
-6418.42
-6418.4
-6418.39
-6418.38
-6418.36
-6418.35
-6418.34
-6418.33
-6418.32
-6418.31
-6418.3
-6418.29
-6418.29
-6418.28
-6418.28
-6418.27
-6418.27
-6418.27
-6418.27
-6418.26
-6418.26
-6418.27
-6418.27
-6418.27
-6418.27
-6418.27
-6418.28
-6418.28
-6418.29
-6418.29
-6418.29
-6418.3
-6418.3
-6418.31
-6418.31
-6418.32
-6418.32
-6418.33
-6418.33
-6418.34
-6418.34
-6418.35
-6418.35
-6418.36
-6418.36
-6418.37
-6418.37
-6418.37
-6418.38
-6418.38
-6418.38
-6418.38
-6418.38
-6418.39
-6418.39
-6418.39
-6418.39
-6418.39
-6418.39
-6418.39
-6418.39
-6418.39
-6418.39
-6418.39
-6418.39
-6418.39
-6418.39
-6418.39
-6418.39
-6418.39
-6418.39
-6418.39
-6418.39
-6418.39
-6418.39
-6418.39
-6418.38
-6418.38
-6418.38
-6418.38
-6418.38
-6418.38
-6418.38
-6418.38
-6418.38
-6418.38
-6917.05
-6917.03
-6916.99
-6916.94
-6916.86
-6916.77
-6916.65
-6916.53
-6916.39
-6916.24
-6916.09
-6915.94
-6915.8
-6915.66
-6915.54
-6915.43
-6915.33
-6915.25
-6915.17
-6915.11
-6915.07
-6915.04
-6915.02
-6915.02
-6915.03
-6915.06
-6915.09
-6915.13
-6915.17
-6915.21
-6915.23
-6915.25
-6915.26
-6915.26
-6915.26
-6915.25
-6915.23
-6915.2
-6915.17
-6915.13
-6915.09
-6915.04
-6914.99
-6914.93
-6914.87
-6914.81
-6914.74
-6914.67
-6914.6
-6914.53
-6914.46
-6914.38
-6914.31
-6914.24
-6914.17
-6914.1
-6914.04
-6913.98
-6913.92
-6913.87
-6913.82
-6913.78
-6913.75
-6913.72
-6913.7
-6913.68
-6913.67
-6913.67
-6913.68
-6913.69
-6913.71
-6913.73
-6913.76
-6913.79
-6913.83
-6913.87
-6913.92
-6913.96
-6914.01
-6914.06
-6914.11
-6914.16
-6914.21
-6914.26
-6914.3
-6914.34
-6914.38
-6914.42
-6914.45
-6914.48
-6914.51
-6914.53
-6914.55
-6914.56
-6914.57
-6914.58
-6914.59
-6914.59
-6914.58
-6914.58
-6914.57
-6914.56
-6914.55
-6914.54
-6914.52
-6914.51
-6914.49
-6914.48
-6914.46
-6914.44
-6914.42
-6914.4
-6914.39
-6914.37
-6914.35
-6914.34
-6914.32
-6914.31
-6914.29
-6914.28
-6914.27
-6914.25
-6914.24
-6914.24
-6914.23
-6914.22
-6914.21
-6914.21
-6914.2
-6914.2
-6914.2
-6914.19
-6914.19
-6914.19
-6914.19
-6914.2
-6914.2
-6914.2
-6914.2
-6914.21
-6914.21
-6914.21
-6914.22
-6914.22
-6914.23
-6914.23
-6914.24
-6914.24
-6914.25
-6914.25
-6914.26
-6914.26
-6914.27
-6914.27
-6914.28
-6914.28
-6914.29
-6914.29
-6914.3
-6914.3
-6914.3
-6914.31
-6914.31
-6914.31
-6914.32
-6914.32
-6914.32
-6914.32
-6914.32
-6914.33
-6914.33
-6914.33
-6914.33
-6914.33
-6914.33
-6914.33
-6914.33
-6914.33
-6914.33
-6914.33
-6914.33
-6914.33
-6914.33
-6914.32
-6914.32
-6914.32
-6914.32
-6914.32
-6914.32
-6914.32
-6914.32
-6914.32
-6914.32
-6914.32
-6914.32
-6914.32
-6914.32
-6914.32
-6914.32
-6914.32
-7357.07
-7357.05
-7357
-7356.92
-7356.81
-7356.67
-7356.5
-7356.27
-7356.07
-7355.81
-7355.59
-7355.38
-7355.19
-7355.01
-7354.86
-7354.72
-7354.6
-7354.49
-7354.41
-7354.34
-7354.29
-7354.27
-7354.25
-7354.26
-7354.29
-7354.33
-7354.41
-7354.45
-7354.54
-7354.6
-7354.64
-7354.68
-7354.7
-7354.71
-7354.71
-7354.7
-7354.68
-7354.65
-7354.61
-7354.56
-7354.51
-7354.46
-7354.4
-7354.33
-7354.26
-7354.18
-7354.1
-7354.02
-7353.94
-7353.85
-7353.77
-7353.68
-7353.6
-7353.51
-7353.43
-7353.36
-7353.28
-7353.21
-7353.15
-7353.09
-7353.04
-7352.99
-7352.96
-7352.93
-7352.9
-7352.89
-7352.88
-7352.89
-7352.9
-7352.91
-7352.94
-7352.97
-7353
-7353.05
-7353.09
-7353.15
-7353.2
-7353.26
-7353.32
-7353.37
-7353.43
-7353.49
-7353.55
-7353.6
-7353.65
-7353.7
-7353.75
-7353.79
-7353.82
-7353.85
-7353.88
-7353.91
-7353.92
-7353.94
-7353.95
-7353.95
-7353.96
-7353.96
-7353.95
-7353.94
-7353.93
-7353.92
-7353.91
-7353.89
-7353.88
-7353.86
-7353.84
-7353.82
-7353.8
-7353.78
-7353.76
-7353.74
-7353.72
-7353.7
-7353.69
-7353.67
-7353.65
-7353.64
-7353.62
-7353.61
-7353.6
-7353.58
-7353.57
-7353.56
-7353.56
-7353.55
-7353.54
-7353.54
-7353.53
-7353.53
-7353.53
-7353.52
-7353.52
-7353.52
-7353.52
-7353.53
-7353.53
-7353.53
-7353.53
-7353.54
-7353.54
-7353.55
-7353.55
-7353.56
-7353.56
-7353.57
-7353.57
-7353.58
-7353.58
-7353.59
-7353.6
-7353.6
-7353.61
-7353.61
-7353.62
-7353.62
-7353.63
-7353.63
-7353.63
-7353.64
-7353.64
-7353.65
-7353.65
-7353.65
-7353.65
-7353.66
-7353.66
-7353.66
-7353.66
-7353.66
-7353.66
-7353.66
-7353.66
-7353.67
-7353.67
-7353.67
-7353.66
-7353.66
-7353.66
-7353.66
-7353.66
-7353.66
-7353.66
-7353.66
-7353.66
-7353.66
-7353.66
-7353.66
-7353.66
-7353.66
-7353.66
-7353.65
-7353.65
-7353.65
-7353.65
-7353.65
-7353.65
-7353.65
-7353.65
-7353.65
-7747.16
-7747.13
-7747.08
-7746.99
-7746.87
-7746.69
-7746.44
-7746.08
-7745.58
-7745.09
-7744.7
-7744.38
-7744.09
-7743.85
-7743.64
-7743.47
-7743.32
-7743.2
-7743.1
-7743.03
-7742.99
-7742.97
-7742.98
-7743.03
-7743.12
-7743.25
-7743.46
-7743.69
-7743.85
-7743.95
-7744.01
-7744.04
-7744.06
-7744.06
-7744.05
-7744.03
-7744
-7743.96
-7743.92
-7743.86
-7743.8
-7743.73
-7743.66
-7743.58
-7743.5
-7743.41
-7743.32
-7743.22
-7743.13
-7743.03
-7742.93
-7742.83
-7742.73
-7742.64
-7742.55
-7742.46
-7742.37
-7742.3
-7742.22
-7742.16
-7742.1
-7742.05
-7742.01
-7741.98
-7741.96
-7741.94
-7741.94
-7741.95
-7741.96
-7741.98
-7742.02
-7742.06
-7742.1
-7742.15
-7742.21
-7742.27
-7742.34
-7742.41
-7742.47
-7742.54
-7742.61
-7742.68
-7742.74
-7742.8
-7742.86
-7742.91
-7742.96
-7743.01
-7743.05
-7743.08
-7743.11
-7743.13
-7743.15
-7743.16
-7743.17
-7743.18
-7743.18
-7743.18
-7743.17
-7743.16
-7743.15
-7743.13
-7743.12
-7743.1
-7743.08
-7743.06
-7743.04
-7743.02
-7743
-7742.97
-7742.95
-7742.93
-7742.91
-7742.89
-7742.87
-7742.85
-7742.84
-7742.82
-7742.8
-7742.79
-7742.78
-7742.76
-7742.75
-7742.74
-7742.73
-7742.73
-7742.72
-7742.72
-7742.71
-7742.71
-7742.71
-7742.71
-7742.71
-7742.71
-7742.71
-7742.71
-7742.71
-7742.71
-7742.72
-7742.72
-7742.73
-7742.73
-7742.74
-7742.74
-7742.75
-7742.75
-7742.76
-7742.76
-7742.77
-7742.78
-7742.78
-7742.79
-7742.79
-7742.8
-7742.8
-7742.81
-7742.81
-7742.82
-7742.82
-7742.83
-7742.83
-7742.83
-7742.84
-7742.84
-7742.84
-7742.84
-7742.85
-7742.85
-7742.85
-7742.85
-7742.85
-7742.85
-7742.85
-7742.85
-7742.85
-7742.85
-7742.85
-7742.85
-7742.85
-7742.85
-7742.85
-7742.85
-7742.85
-7742.85
-7742.85
-7742.85
-7742.85
-7742.84
-7742.84
-7742.84
-7742.84
-7742.84
-7742.84
-7742.84
-7742.84
-7742.84
-7742.84
-7742.84
-7742.84
-7742.84
-8092.86
-8092.84
-8092.81
-8092.76
-8092.69
-8092.62
-8092.53
-8092.48
-8088.85
-8088.87
-8088.92
-8088.95
-8088.97
-8088.99
-8088.99
-8088.97
-8088.95
-8088.91
-8088.87
-8088.81
-8088.75
-8088.68
-8088.6
-8088.51
-8088.42
-8088.32
-8088.22
-8088.11
-8088.01
-8087.89
-8087.78
-8087.67
-8087.56
-8087.45
-8087.34
-8087.24
-8087.14
-8087.04
-8086.95
-8086.87
-8086.8
-8086.74
-8086.69
-8086.64
-8086.61
-8086.59
-8086.58
-8086.58
-8086.59
-8086.61
-8086.64
-8086.68
-8086.73
-8086.78
-8086.84
-8086.91
-8086.99
-8087.06
-8087.14
-8087.22
-8087.3
-8087.37
-8087.45
-8087.52
-8087.59
-8087.65
-8087.71
-8087.76
-8087.81
-8087.85
-8087.89
-8087.92
-8087.94
-8087.96
-8087.97
-8087.98
-8087.98
-8087.98
-8087.97
-8087.97
-8087.95
-8087.94
-8087.92
-8087.9
-8087.88
-8087.86
-8087.84
-8087.82
-8087.79
-8087.77
-8087.75
-8087.72
-8087.7
-8087.68
-8087.66
-8087.64
-8087.62
-8087.6
-8087.58
-8087.56
-8087.55
-8087.54
-8087.52
-8087.51
-8087.5
-8087.5
-8087.49
-8087.48
-8087.48
-8087.47
-8087.47
-8087.47
-8087.47
-8087.47
-8087.47
-8087.47
-8087.47
-8087.47
-8087.48
-8087.48
-8087.49
-8087.49
-8087.5
-8087.5
-8087.51
-8087.51
-8087.52
-8087.53
-8087.53
-8087.54
-8087.54
-8087.55
-8087.56
-8087.56
-8087.57
-8087.57
-8087.58
-8087.58
-8087.59
-8087.59
-8087.59
-8087.6
-8087.6
-8087.61
-8087.61
-8087.61
-8087.61
-8087.61
-8087.62
-8087.62
-8087.62
-8087.62
-8087.62
-8087.62
-8087.62
-8087.62
-8087.62
-8087.62
-8087.62
-8087.62
-8087.62
-8087.62
-8087.62
-8087.62
-8087.62
-8087.61
-8087.61
-8087.61
-8087.61
-8087.61
-8087.61
-8087.61
-8087.61
-8087.61
-8087.61
-8087.61
-8087.61
-8087.61
-8087.61
-8087.61
-8087.61
-8399.26
-8399.25
-8399.24
-8399.22
-8399.2
-8399.18
-8399.15
-8399.14
-8394.67
-8394.65
-8394.66
-8394.66
-8394.65
-8394.63
-8394.61
-8394.58
-8394.54
-8394.5
-8394.44
-8394.37
-8394.3
-8394.21
-8394.12
-8394.02
-8393.92
-8393.81
-8393.69
-8393.57
-8393.45
-8393.32
-8393.19
-8393.07
-8392.94
-8392.82
-8392.7
-8392.58
-8392.47
-8392.37
-8392.27
-8392.18
-8392.1
-8392.03
-8391.98
-8391.93
-8391.9
-8391.88
-8391.87
-8391.87
-8391.89
-8391.91
-8391.95
-8392
-8392.06
-8392.12
-8392.19
-8392.27
-8392.36
-8392.44
-8392.53
-8392.62
-8392.71
-8392.8
-8392.88
-8392.96
-8393.03
-8393.1
-8393.16
-8393.22
-8393.27
-8393.31
-8393.35
-8393.38
-8393.4
-8393.42
-8393.43
-8393.44
-8393.44
-8393.44
-8393.43
-8393.42
-8393.4
-8393.39
-8393.37
-8393.35
-8393.32
-8393.3
-8393.27
-8393.25
-8393.22
-8393.2
-8393.17
-8393.15
-8393.12
-8393.1
-8393.08
-8393.06
-8393.04
-8393.02
-8393
-8392.98
-8392.97
-8392.95
-8392.94
-8392.93
-8392.92
-8392.91
-8392.91
-8392.9
-8392.89
-8392.89
-8392.89
-8392.89
-8392.89
-8392.89
-8392.89
-8392.89
-8392.89
-8392.9
-8392.9
-8392.9
-8392.91
-8392.91
-8392.92
-8392.93
-8392.93
-8392.94
-8392.94
-8392.95
-8392.96
-8392.96
-8392.97
-8392.97
-8392.98
-8392.99
-8392.99
-8393
-8393
-8393.01
-8393.01
-8393.02
-8393.02
-8393.02
-8393.03
-8393.03
-8393.03
-8393.04
-8393.04
-8393.04
-8393.04
-8393.04
-8393.04
-8393.04
-8393.05
-8393.05
-8393.05
-8393.05
-8393.05
-8393.05
-8393.04
-8393.04
-8393.04
-8393.04
-8393.04
-8393.04
-8393.04
-8393.04
-8393.04
-8393.04
-8393.04
-8393.04
-8393.04
-8393.03
-8393.03
-8393.03
-8393.03
-8393.03
-8393.03
-8393.03
-8393.03
-8393.03
-8393.03
-8670.71
-8670.71
-8670.7
-8670.69
-8670.68
-8670.67
-8670.65
-8670.64
-8665.45
-8665.43
-8665.44
-8665.43
-8665.42
-8665.4
-8665.37
-8665.33
-8665.28
-8665.22
-8665.15
-8665.07
-8664.99
-8664.89
-8664.78
-8664.67
-8664.55
-8664.43
-8664.3
-8664.16
-8664.03
-8663.88
-8663.74
-8663.6
-8663.46
-8663.33
-8663.19
-8663.06
-8662.94
-8662.83
-8662.72
-8662.63
-8662.54
-8662.47
-8662.41
-8662.36
-8662.33
-8662.31
-8662.3
-8662.31
-8662.33
-8662.36
-8662.41
-8662.46
-8662.53
-8662.61
-8662.69
-8662.78
-8662.87
-8662.97
-8663.07
-8663.17
-8663.27
-8663.36
-8663.45
-8663.54
-8663.62
-8663.69
-8663.76
-8663.82
-8663.87
-8663.92
-8663.95
-8663.99
-8664.01
-8664.02
-8664.04
-8664.04
-8664.04
-8664.03
-8664.02
-8664.01
-8663.99
-8663.97
-8663.95
-8663.93
-8663.9
-8663.88
-8663.85
-8663.82
-8663.79
-8663.77
-8663.74
-8663.71
-8663.69
-8663.66
-8663.64
-8663.62
-8663.6
-8663.58
-8663.56
-8663.54
-8663.53
-8663.51
-8663.5
-8663.49
-8663.48
-8663.47
-8663.46
-8663.46
-8663.45
-8663.45
-8663.45
-8663.45
-8663.45
-8663.45
-8663.45
-8663.45
-8663.45
-8663.46
-8663.46
-8663.47
-8663.47
-8663.48
-8663.48
-8663.49
-8663.49
-8663.5
-8663.51
-8663.51
-8663.52
-8663.53
-8663.53
-8663.54
-8663.55
-8663.55
-8663.56
-8663.56
-8663.57
-8663.57
-8663.58
-8663.58
-8663.59
-8663.59
-8663.59
-8663.6
-8663.6
-8663.6
-8663.6
-8663.61
-8663.61
-8663.61
-8663.61
-8663.61
-8663.61
-8663.61
-8663.61
-8663.61
-8663.61
-8663.61
-8663.61
-8663.61
-8663.61
-8663.61
-8663.61
-8663.61
-8663.6
-8663.6
-8663.6
-8663.6
-8663.6
-8663.6
-8663.6
-8663.6
-8663.6
-8663.6
-8663.6
-8663.6
-8663.6
-8663.6
-8663.6
-8663.59
-8663.59
-8911.19
-8911.19
-8911.19
-8911.18
-8911.18
-8911.17
-8911.16
-8911.16
-8905.37
-8905.35
-8905.34
-8905.33
-8905.31
-8905.28
-8905.24
-8905.19
-8905.13
-8905.06
-8904.98
-8904.89
-8904.79
-8904.68
-8904.57
-8904.44
-8904.31
-8904.17
-8904.02
-8903.87
-8903.72
-8903.57
-8903.41
-8903.26
-8903.1
-8902.95
-8902.81
-8902.67
-8902.53
-8902.41
-8902.3
-8902.19
-8902.1
-8902.02
-8901.96
-8901.91
-8901.88
-8901.86
-8901.85
-8901.86
-8901.89
-8901.93
-8901.98
-8902.05
-8902.13
-8902.21
-8902.31
-8902.41
-8902.51
-8902.62
-8902.73
-8902.84
-8902.95
-8903.05
-8903.15
-8903.24
-8903.33
-8903.4
-8903.48
-8903.54
-8903.59
-8903.64
-8903.68
-8903.71
-8903.73
-8903.74
-8903.75
-8903.76
-8903.75
-8903.75
-8903.73
-8903.72
-8903.7
-8903.68
-8903.65
-8903.63
-8903.6
-8903.57
-8903.54
-8903.51
-8903.48
-8903.45
-8903.43
-8903.4
-8903.37
-8903.35
-8903.32
-8903.3
-8903.28
-8903.26
-8903.24
-8903.22
-8903.2
-8903.19
-8903.18
-8903.17
-8903.16
-8903.15
-8903.14
-8903.14
-8903.13
-8903.13
-8903.13
-8903.12
-8903.12
-8903.13
-8903.13
-8903.13
-8903.13
-8903.14
-8903.14
-8903.15
-8903.15
-8903.16
-8903.16
-8903.17
-8903.18
-8903.18
-8903.19
-8903.2
-8903.2
-8903.21
-8903.22
-8903.22
-8903.23
-8903.24
-8903.24
-8903.25
-8903.25
-8903.26
-8903.26
-8903.27
-8903.27
-8903.27
-8903.28
-8903.28
-8903.28
-8903.29
-8903.29
-8903.29
-8903.29
-8903.29
-8903.29
-8903.29
-8903.29
-8903.29
-8903.29
-8903.29
-8903.29
-8903.29
-8903.29
-8903.29
-8903.29
-8903.29
-8903.29
-8903.29
-8903.29
-8903.29
-8903.29
-8903.29
-8903.28
-8903.28
-8903.28
-8903.28
-8903.28
-8903.28
-8903.28
-8903.28
-8903.28
-8903.28
-8903.28
-8903.28
-8903.28
-9124.24
-9124.24
-9124.23
-9124.23
-9124.23
-9124.23
-9124.22
-9124.22
-9117.9
-9117.88
-9117.88
-9117.86
-9117.83
-9117.79
-9117.74
-9117.68
-9117.62
-9117.54
-9117.45
-9117.35
-9117.24
-9117.12
-9116.99
-9116.85
-9116.7
-9116.55
-9116.39
-9116.23
-9116.06
-9115.89
-9115.72
-9115.56
-9115.39
-9115.23
-9115.07
-9114.92
-9114.77
-9114.64
-9114.52
-9114.41
-9114.31
-9114.23
-9114.16
-9114.11
-9114.07
-9114.06
-9114.05
-9114.07
-9114.1
-9114.15
-9114.21
-9114.28
-9114.37
-9114.47
-9114.57
-9114.68
-9114.8
-9114.92
-9115.04
-9115.16
-9115.27
-9115.38
-9115.49
-9115.59
-9115.68
-9115.76
-9115.84
-9115.9
-9115.96
-9116
-9116.04
-9116.07
-9116.09
-9116.11
-9116.12
-9116.12
-9116.11
-9116.1
-9116.09
-9116.07
-9116.05
-9116.02
-9116
-9115.97
-9115.94
-9115.91
-9115.88
-9115.84
-9115.81
-9115.78
-9115.75
-9115.73
-9115.7
-9115.67
-9115.65
-9115.62
-9115.6
-9115.58
-9115.56
-9115.54
-9115.53
-9115.51
-9115.5
-9115.49
-9115.48
-9115.47
-9115.46
-9115.46
-9115.45
-9115.45
-9115.45
-9115.45
-9115.45
-9115.45
-9115.45
-9115.45
-9115.46
-9115.46
-9115.47
-9115.47
-9115.48
-9115.48
-9115.49
-9115.5
-9115.5
-9115.51
-9115.52
-9115.52
-9115.53
-9115.54
-9115.54
-9115.55
-9115.56
-9115.56
-9115.57
-9115.57
-9115.58
-9115.58
-9115.59
-9115.59
-9115.6
-9115.6
-9115.61
-9115.61
-9115.61
-9115.61
-9115.62
-9115.62
-9115.62
-9115.62
-9115.62
-9115.62
-9115.62
-9115.62
-9115.62
-9115.62
-9115.62
-9115.62
-9115.62
-9115.62
-9115.62
-9115.62
-9115.62
-9115.62
-9115.62
-9115.61
-9115.61
-9115.61
-9115.61
-9115.61
-9115.61
-9115.61
-9115.61
-9115.61
-9115.61
-9115.61
-9115.61
-9115.61
-9115.61
-9115.61
-9115.6
-9312.97
-9312.97
-9312.96
-9312.96
-9312.96
-9312.96
-9312.96
-9312.96
-9306.19
-9306.17
-9306.16
-9306.13
-9306.1
-9306.06
-9306
-9305.94
-9305.86
-9305.77
-9305.67
-9305.56
-9305.44
-9305.31
-9305.17
-9305.02
-9304.86
-9304.7
-9304.52
-9304.35
-9304.17
-9303.98
-9303.8
-9303.62
-9303.44
-9303.26
-9303.09
-9302.93
-9302.78
-9302.64
-9302.51
-9302.39
-9302.29
-9302.2
-9302.13
-9302.08
-9302.04
-9302.03
-9302.03
-9302.05
-9302.08
-9302.14
-9302.21
-9302.29
-9302.39
-9302.49
-9302.61
-9302.73
-9302.86
-9302.99
-9303.11
-9303.24
-9303.36
-9303.48
-9303.59
-9303.7
-9303.8
-9303.88
-9303.96
-9304.03
-9304.08
-9304.13
-9304.17
-9304.2
-9304.22
-9304.23
-9304.24
-9304.24
-9304.23
-9304.22
-9304.2
-9304.18
-9304.16
-9304.13
-9304.1
-9304.07
-9304.04
-9304.01
-9303.97
-9303.94
-9303.91
-9303.88
-9303.85
-9303.82
-9303.79
-9303.76
-9303.74
-9303.71
-9303.69
-9303.67
-9303.65
-9303.63
-9303.61
-9303.6
-9303.59
-9303.58
-9303.57
-9303.56
-9303.55
-9303.54
-9303.54
-9303.54
-9303.54
-9303.54
-9303.54
-9303.54
-9303.54
-9303.54
-9303.55
-9303.55
-9303.56
-9303.56
-9303.57
-9303.57
-9303.58
-9303.59
-9303.59
-9303.6
-9303.61
-9303.62
-9303.62
-9303.63
-9303.64
-9303.64
-9303.65
-9303.66
-9303.66
-9303.67
-9303.67
-9303.68
-9303.68
-9303.69
-9303.69
-9303.69
-9303.7
-9303.7
-9303.7
-9303.71
-9303.71
-9303.71
-9303.71
-9303.71
-9303.71
-9303.71
-9303.71
-9303.72
-9303.72
-9303.72
-9303.71
-9303.71
-9303.71
-9303.71
-9303.71
-9303.71
-9303.71
-9303.71
-9303.71
-9303.71
-9303.71
-9303.7
-9303.7
-9303.7
-9303.7
-9303.7
-9303.7
-9303.7
-9303.7
-9303.7
-9303.7
-9303.7
-9303.7
-9303.7
-9303.7
-9480.16
-9480.15
-9480.15
-9480.15
-9480.15
-9480.15
-9480.15
-9480.15
-9472.99
-9472.97
-9472.96
-9472.93
-9472.89