/*--------------------------------*- C++ -*----------------------------------*\
  =========                 |
  \\      /  F ield         | OpenFOAM: The Open Source CFD Toolbox
   \\    /   O peration     | Website:  https://openfoam.org
    \\  /    A nd           | Version:  12
     \\/     M anipulation  |
\*---------------------------------------------------------------------------*/
FoamFile
{
    format      ascii;
    class       volVectorField;
    location    "2.32";
    object      U;
}
// * * * * * * * * * * * * * * * * * * * * * * * * * * * * * * * * * * * * * //

dimensions      [0 1 -1 0 0 0 0];

internalField   nonuniform List<vector> 
3829
(
(-3.60192e-06 3.62747e-05 0)
(-1.08327e-05 3.62284e-05 0)
(-1.81586e-05 3.62591e-05 0)
(-2.55936e-05 3.63045e-05 0)
(-3.31403e-05 3.63588e-05 0)
(-4.08059e-05 3.64232e-05 0)
(-4.85976e-05 3.64838e-05 0)
(-5.65213e-05 3.65386e-05 0)
(-6.458e-05 3.65815e-05 0)
(-7.27685e-05 3.65935e-05 0)
(-8.10959e-05 3.65759e-05 0)
(-8.95584e-05 3.65108e-05 0)
(-9.81338e-05 3.6389e-05 0)
(-0.000106809 3.61965e-05 0)
(-0.000115577 3.59258e-05 0)
(-0.000124411 3.55569e-05 0)
(-0.000133273 3.50819e-05 0)
(-0.00014214 3.449e-05 0)
(-0.000150972 3.37708e-05 0)
(-0.000159727 3.29145e-05 0)
(-0.000168361 3.19137e-05 0)
(-0.000176823 3.07638e-05 0)
(-0.000185064 2.94605e-05 0)
(-0.000193028 2.80028e-05 0)
(-0.00020066 2.63925e-05 0)
(-0.000207904 2.4633e-05 0)
(-0.000214706 2.27307e-05 0)
(-0.000221005 2.06889e-05 0)
(-0.000226745 1.85282e-05 0)
(-0.000231885 1.62574e-05 0)
(-0.000236373 1.38903e-05 0)
(-0.00024017 1.14437e-05 0)
(-0.000243231 8.93567e-06 0)
(-0.000245532 6.38609e-06 0)
(-0.000247031 3.81851e-06 0)
(-0.000247699 1.24855e-06 0)
(-0.000247536 -1.30386e-06 0)
(-0.000246561 -3.8189e-06 0)
(-0.000244764 -6.27611e-06 0)
(-0.000242125 -8.66191e-06 0)
(-0.00023869 -1.09551e-05 0)
(-0.00023444 -1.31414e-05 0)
(-0.000229442 -1.52088e-05 0)
(-0.000223722 -1.71354e-05 0)
(-0.000217272 -1.89165e-05 0)
(-0.000210174 -2.0538e-05 0)
(-0.000202463 -2.19915e-05 0)
(-0.00019419 -2.32691e-05 0)
(-0.000185411 -2.43646e-05 0)
(-0.000176184 -2.52732e-05 0)
(-0.000166571 -2.5992e-05 0)
(-0.000156638 -2.65187e-05 0)
(-0.00014645 -2.68573e-05 0)
(-0.000136077 -2.70006e-05 0)
(-0.000125582 -2.69574e-05 0)
(-0.000115058 -2.67338e-05 0)
(-0.000104574 -2.63281e-05 0)
(-9.41689e-05 -2.57509e-05 0)
(-8.39442e-05 -2.50141e-05 0)
(-7.39628e-05 -2.41243e-05 0)
(-6.42705e-05 -2.30833e-05 0)
(-5.49074e-05 -2.19177e-05 0)
(-4.60328e-05 -2.06446e-05 0)
(-3.76898e-05 -1.92539e-05 0)
(-2.98299e-05 -1.77757e-05 0)
(-2.25036e-05 -1.62077e-05 0)
(-1.58754e-05 -1.46152e-05 0)
(-9.89094e-06 -1.29617e-05 0)
(-4.59103e-06 -1.13137e-05 0)
(-1.12789e-07 -9.62986e-06 0)
(3.69559e-06 -7.95528e-06 0)
(6.79435e-06 -6.30028e-06 0)
(9.15373e-06 -4.68708e-06 0)
(1.07828e-05 -3.12675e-06 0)
(1.17053e-05 -1.63156e-06 0)
(1.19538e-05 -2.25599e-07 0)
(1.15541e-05 1.09069e-06 0)
(1.05419e-05 2.30325e-06 0)
(8.95392e-06 3.39958e-06 0)
(6.81026e-06 4.37352e-06 0)
(4.18139e-06 5.21928e-06 0)
(1.11297e-06 5.93451e-06 0)
(-2.32165e-06 6.52142e-06 0)
(-6.03358e-06 6.97154e-06 0)
(-9.97934e-06 7.28905e-06 0)
(-1.4082e-05 7.47486e-06 0)
(-1.8285e-05 7.53625e-06 0)
(-2.25181e-05 7.47775e-06 0)
(-2.67182e-05 7.30735e-06 0)
(-3.08225e-05 7.03351e-06 0)
(-3.47765e-05 6.66526e-06 0)
(-3.85241e-05 6.21457e-06 0)
(-4.20123e-05 5.6908e-06 0)
(-4.52016e-05 5.10629e-06 0)
(-4.80512e-05 4.47233e-06 0)
(-5.05274e-05 3.80145e-06 0)
(-5.26067e-05 3.10293e-06 0)
(-5.4263e-05 2.39168e-06 0)
(-5.54912e-05 1.67504e-06 0)
(-5.62732e-05 9.66911e-07 0)
(-5.66069e-05 2.7271e-07 0)
(-5.65003e-05 -3.95026e-07 0)
(-5.59595e-05 -1.03363e-06 0)
(-5.50015e-05 -1.63413e-06 0)
(-5.36435e-05 -2.19415e-06 0)
(-5.19125e-05 -2.70456e-06 0)
(-4.98278e-05 -3.16349e-06 0)
(-4.74273e-05 -3.57038e-06 0)
(-4.47356e-05 -3.9187e-06 0)
(-4.1784e-05 -4.20906e-06 0)
(-3.86199e-05 -4.448e-06 0)
(-3.52718e-05 -4.62776e-06 0)
(-3.17754e-05 -4.75484e-06 0)
(-2.81556e-05 -4.82718e-06 0)
(-2.44772e-05 -4.85759e-06 0)
(-2.07683e-05 -4.83362e-06 0)
(-1.70355e-05 -4.76862e-06 0)
(-1.33279e-05 -4.66492e-06 0)
(-9.68793e-06 -4.5276e-06 0)
(-6.14036e-06 -4.34974e-06 0)
(-2.70015e-06 -4.15241e-06 0)
(6.01082e-07 -3.92805e-06 0)
(3.74468e-06 -3.68505e-06 0)
(6.71553e-06 -3.42421e-06 0)
(9.49136e-06 -3.15235e-06 0)
(1.20626e-05 -2.86898e-06 0)
(1.442e-05 -2.58462e-06 0)
(1.65467e-05 -2.29518e-06 0)
(1.84429e-05 -2.00687e-06 0)
(2.01022e-05 -1.72187e-06 0)
(2.15245e-05 -1.44252e-06 0)
(2.27108e-05 -1.1713e-06 0)
(2.36633e-05 -9.10355e-07 0)
(2.43808e-05 -6.62213e-07 0)
(2.48791e-05 -4.23073e-07 0)
(2.5161e-05 -2.01353e-07 0)
(2.52385e-05 9.16385e-09 0)
(2.51263e-05 1.99949e-07 0)
(2.48232e-05 3.76993e-07 0)
(2.43529e-05 5.38007e-07 0)
(2.37251e-05 6.79499e-07 0)
(2.29495e-05 8.05017e-07 0)
(2.20434e-05 9.14733e-07 0)
(2.10203e-05 1.00793e-06 0)
(1.98948e-05 1.08511e-06 0)
(1.86803e-05 1.1459e-06 0)
(1.73927e-05 1.1942e-06 0)
(1.60485e-05 1.2287e-06 0)
(1.46583e-05 1.24915e-06 0)
(1.32302e-05 1.25699e-06 0)
(1.17876e-05 1.25551e-06 0)
(1.03401e-05 1.24206e-06 0)
(8.8923e-06 1.21872e-06 0)
(7.46203e-06 1.18841e-06 0)
(6.05516e-06 1.14983e-06 0)
(4.68397e-06 1.10561e-06 0)
(3.35623e-06 1.05504e-06 0)
(2.07687e-06 1.00039e-06 0)
(8.56592e-07 9.41488e-07 0)
(-2.99889e-07 8.80553e-07 0)
(-1.39009e-06 8.17068e-07 0)
(-2.41103e-06 7.5221e-07 0)
(-3.35805e-06 6.86702e-07 0)
(-4.22863e-06 6.21216e-07 0)
(-5.0211e-06 5.56381e-07 0)
(-5.73472e-06 4.92577e-07 0)
(-6.36985e-06 4.30352e-07 0)
(-6.9273e-06 3.705e-07 0)
(-7.40819e-06 3.13273e-07 0)
(-7.81446e-06 2.58725e-07 0)
(-8.1488e-06 2.07083e-07 0)
(-8.41416e-06 1.58763e-07 0)
(-8.6137e-06 1.13819e-07 0)
(-8.75071e-06 7.21471e-08 0)
(-8.82843e-06 3.36113e-08 0)
(-8.85056e-06 -2.13165e-09 0)
(-8.82052e-06 -3.49699e-08 0)
(-8.74107e-06 -6.50848e-08 0)
(-8.61502e-06 -9.26865e-08 0)
(-8.44517e-06 -1.17949e-07 0)
(-8.23415e-06 -1.40993e-07 0)
(-7.98459e-06 -1.61875e-07 0)
(-7.69921e-06 -1.80593e-07 0)
(-7.3809e-06 -1.97103e-07 0)
(-7.03274e-06 -2.11328e-07 0)
(-6.65809e-06 -2.23188e-07 0)
(-6.26056e-06 -2.32644e-07 0)
(-5.84388e-06 -2.39712e-07 0)
(-5.4118e-06 -2.44515e-07 0)
(-4.96792e-06 -2.4728e-07 0)
(-4.51541e-06 -2.4838e-07 0)
(-4.05674e-06 -2.48254e-07 0)
(-3.59372e-06 -2.47378e-07 0)
(-3.12731e-06 -2.462e-07 0)
(-2.6576e-06 -2.45032e-07 0)
(-2.1844e-06 -2.44054e-07 0)
(-1.70731e-06 -2.4339e-07 0)
(-1.22582e-06 -2.43055e-07 0)
(-7.39235e-07 -2.42908e-07 0)
(-2.47299e-07 -2.42825e-07 0)
(-3.46121e-06 0.000104043 0)
(-1.04091e-05 0.000103965 0)
(-1.74745e-05 0.000104203 0)
(-2.47064e-05 0.000104554 0)
(-3.20946e-05 0.00010501 0)
(-3.97169e-05 0.00010555 0)
(-4.76045e-05 0.000106167 0)
(-5.56901e-05 0.000106811 0)
(-6.41174e-05 0.000107464 0)
(-7.2816e-05 0.000108086 0)
(-8.17772e-05 0.000108625 0)
(-9.10796e-05 0.000109054 0)
(-0.000100662 0.0001093 0)
(-0.000110492 0.000109321 0)
(-0.000120605 0.000109071 0)
(-0.000130969 0.000108492 0)
(-0.00014147 0.000107539 0)
(-0.000152097 0.000106164 0)
(-0.0001628 0.000104332 0)
(-0.000173508 0.000102003 0)
(-0.000184138 9.91516e-05 0)
(-0.000194614 9.57584e-05 0)
(-0.000204856 9.18134e-05 0)
(-0.000214769 8.73147e-05 0)
(-0.000224266 8.22653e-05 0)
(-0.00023326 7.66949e-05 0)
(-0.000241704 7.06246e-05 0)
(-0.000249441 6.40962e-05 0)
(-0.000256387 5.71518e-05 0)
(-0.00026255 4.98465e-05 0)
(-0.000267835 4.22411e-05 0)
(-0.000272181 3.43903e-05 0)
(-0.000275533 2.63754e-05 0)
(-0.000277839 1.82544e-05 0)
(-0.000279094 1.01026e-05 0)
(-0.000279299 1.98142e-06 0)
(-0.000278439 -6.04977e-06 0)
(-0.000276535 -1.39224e-05 0)
(-0.000273623 -2.15753e-05 0)
(-0.000269687 -2.89525e-05 0)
(-0.000264774 -3.6004e-05 0)
(-0.000258924 -4.26789e-05 0)
(-0.000252167 -4.89408e-05 0)
(-0.000244575 -5.47431e-05 0)
(-0.00023619 -6.00591e-05 0)
(-0.000227075 -6.48575e-05 0)
(-0.000217301 -6.9115e-05 0)
(-0.000206936 -7.28121e-05 0)
(-0.000196052 -7.59346e-05 0)
(-0.000184726 -7.84717e-05 0)
(-0.000173034 -8.04179e-05 0)
(-0.000161077 -8.17729e-05 0)
(-0.000148896 -8.25352e-05 0)
(-0.000136582 -8.27116e-05 0)
(-0.000124264 -8.23263e-05 0)
(-0.000111981 -8.13832e-05 0)
(-9.98208e-05 -7.99068e-05 0)
(-8.78861e-05 -7.79053e-05 0)
(-7.62557e-05 -7.54314e-05 0)
(-6.49421e-05 -7.25087e-05 0)
(-5.40793e-05 -6.91576e-05 0)
(-4.37732e-05 -6.54285e-05 0)
(-3.40101e-05 -6.13694e-05 0)
(-2.48891e-05 -5.69975e-05 0)
(-1.6394e-05 -5.23855e-05 0)
(-8.72289e-06 -4.75818e-05 0)
(-1.88685e-06 -4.26107e-05 0)
(4.17434e-06 -3.75303e-05 0)
(9.43977e-06 -3.23961e-05 0)
(1.38687e-05 -2.72566e-05 0)
(1.73968e-05 -2.21474e-05 0)
(2.00893e-05 -1.71329e-05 0)
(2.19164e-05 -1.22671e-05 0)
(2.29283e-05 -7.57879e-06 0)
(2.31042e-05 -3.12461e-06 0)
(2.25275e-05 1.07906e-06 0)
(2.12635e-05 4.97744e-06 0)
(1.93044e-05 8.54571e-06 0)
(1.6721e-05 1.17501e-05 0)
(1.35592e-05 1.45782e-05 0)
(9.90397e-06 1.70078e-05 0)
(5.83166e-06 1.90383e-05 0)
(1.39357e-06 2.066e-05 0)
(-3.31495e-06 2.18763e-05 0)
(-8.21716e-06 2.26903e-05 0)
(-1.32264e-05 2.31135e-05 0)
(-1.82748e-05 2.31645e-05 0)
(-2.32917e-05 2.28578e-05 0)
(-2.82025e-05 2.22215e-05 0)
(-3.29434e-05 2.1283e-05 0)
(-3.74505e-05 2.00736e-05 0)
(-4.16694e-05 1.86224e-05 0)
(-4.55486e-05 1.6966e-05 0)
(-4.90447e-05 1.51404e-05 0)
(-5.21195e-05 1.31778e-05 0)
(-5.47481e-05 1.1119e-05 0)
(-5.6902e-05 8.99525e-06 0)
(-5.85637e-05 6.84101e-06 0)
(-5.97328e-05 4.68651e-06 0)
(-6.03999e-05 2.56388e-06 0)
(-6.0569e-05 4.95941e-07 0)
(-6.02569e-05 -1.49097e-06 0)
(-5.94819e-05 -3.37775e-06 0)
(-5.82624e-05 -5.14348e-06 0)
(-5.66167e-05 -6.77651e-06 0)
(-5.45742e-05 -8.25969e-06 0)
(-5.2178e-05 -9.58735e-06 0)
(-4.94537e-05 -1.07515e-05 0)
(-4.64297e-05 -1.17462e-05 0)
(-4.31717e-05 -1.25737e-05 0)
(-3.97051e-05 -1.32357e-05 0)
(-3.6058e-05 -1.37292e-05 0)
(-3.22805e-05 -1.40662e-05 0)
(-2.84129e-05 -1.42504e-05 0)
(-2.44934e-05 -1.4296e-05 0)
(-2.05509e-05 -1.41974e-05 0)
(-1.66278e-05 -1.39795e-05 0)
(-1.2752e-05 -1.36466e-05 0)
(-8.9436e-06 -1.32142e-05 0)
(-5.26427e-06 -1.26874e-05 0)
(-1.72696e-06 -1.20824e-05 0)
(1.66739e-06 -1.14111e-05 0)
(4.88097e-06 -1.06876e-05 0)
(7.90308e-06 -9.91528e-06 0)
(1.07148e-05 -9.1136e-06 0)
(1.32993e-05 -8.28285e-06 0)
(1.56555e-05 -7.44072e-06 0)
(1.77764e-05 -6.59368e-06 0)
(1.9649e-05 -5.75098e-06 0)
(2.12758e-05 -4.91989e-06 0)
(2.26562e-05 -4.10665e-06 0)
(2.37921e-05 -3.31997e-06 0)
(2.46858e-05 -2.56176e-06 0)
(2.53481e-05 -1.83862e-06 0)
(2.57834e-05 -1.15079e-06 0)
(2.59992e-05 -5.07427e-07 0)
(2.60078e-05 9.4786e-08 0)
(2.58231e-05 6.47607e-07 0)
(2.54561e-05 1.1545e-06 0)
(2.49127e-05 1.61409e-06 0)
(2.42134e-05 2.02322e-06 0)
(2.33746e-05 2.38356e-06 0)
(2.24056e-05 2.69494e-06 0)
(2.13207e-05 2.95985e-06 0)
(2.0135e-05 3.17877e-06 0)
(1.88678e-05 3.35325e-06 0)
(1.75331e-05 3.48772e-06 0)
(1.61402e-05 3.58192e-06 0)
(1.47043e-05 3.63734e-06 0)
(1.32395e-05 3.65775e-06 0)
(1.1762e-05 3.64685e-06 0)
(1.02795e-05 3.60545e-06 0)
(8.80544e-06 3.53706e-06 0)
(7.35214e-06 3.44498e-06 0)
(5.92481e-06 3.33194e-06 0)
(4.53664e-06 3.19928e-06 0)
(3.19468e-06 3.05287e-06 0)
(1.90464e-06 2.89075e-06 0)
(6.76965e-07 2.72082e-06 0)
(-4.84193e-07 2.54287e-06 0)
(-1.57799e-06 2.35814e-06 0)
(-2.59968e-06 2.16956e-06 0)
(-3.54542e-06 1.97915e-06 0)
(-4.41291e-06 1.78887e-06 0)
(-5.20092e-06 1.60055e-06 0)
(-5.90888e-06 1.41577e-06 0)
(-6.53664e-06 1.23599e-06 0)
(-7.08548e-06 1.06263e-06 0)
(-7.55751e-06 8.9683e-07 0)
(-7.95473e-06 7.3937e-07 0)
(-8.27938e-06 5.90845e-07 0)
(-8.53466e-06 4.51703e-07 0)
(-8.72438e-06 3.22062e-07 0)
(-8.85208e-06 2.01926e-07 0)
(-8.92128e-06 9.09708e-08 0)
(-8.93535e-06 -1.14021e-08 0)
(-8.89751e-06 -1.05514e-07 0)
(-8.81089e-06 -1.91893e-07 0)
(-8.67828e-06 -2.71124e-07 0)
(-8.50235e-06 -3.4371e-07 0)
(-8.28558e-06 -4.09996e-07 0)
(-8.03046e-06 -4.70135e-07 0)
(-7.7396e-06 -5.24093e-07 0)
(-7.41578e-06 -5.71711e-07 0)
(-7.06206e-06 -6.12743e-07 0)
(-6.68185e-06 -6.46916e-07 0)
(-6.27886e-06 -6.74082e-07 0)
(-5.857e-06 -6.94248e-07 0)
(-5.42021e-06 -7.07765e-07 0)
(-4.97236e-06 -7.15289e-07 0)
(-4.51679e-06 -7.17947e-07 0)
(-4.05607e-06 -7.17078e-07 0)
(-3.59198e-06 -7.14122e-07 0)
(-3.12527e-06 -7.10415e-07 0)
(-2.65576e-06 -7.06849e-07 0)
(-2.18304e-06 -7.03955e-07 0)
(-1.70656e-06 -7.02057e-07 0)
(-1.22554e-06 -7.01202e-07 0)
(-7.39226e-07 -7.00851e-07 0)
(-2.47337e-07 -7.00699e-07 0)
(-2.62402e-06 0.00015811 0)
(-7.90195e-06 0.000158215 0)
(-1.33774e-05 0.000159142 0)
(-1.91163e-05 0.000160533 0)
(-2.52391e-05 0.00016235 0)
(-3.17495e-05 0.000164551 0)
(-3.88578e-05 0.000167079 0)
(-4.66313e-05 0.00016986 0)
(-5.50044e-05 0.0001728 0)
(-6.4204e-05 0.000175798 0)
(-7.41146e-05 0.000178737 0)
(-8.48612e-05 0.000181469 0)
(-9.65138e-05 0.000183903 0)
(-0.000108836 0.000185877 0)
(-0.000121916 0.000187266 0)
(-0.000135701 0.000187954 0)
(-0.000150048 0.000187844 0)
(-0.000164852 0.00018679 0)
(-0.000179998 0.000184718 0)
(-0.000195355 0.000181545 0)
(-0.00021074 0.000177213 0)
(-0.000225996 0.000171681 0)
(-0.000240945 0.000164932 0)
(-0.000255449 0.000156966 0)
(-0.000269257 0.000147817 0)
(-0.000282208 0.000137537 0)
(-0.000294188 0.000126206 0)
(-0.000305013 0.00011392 0)
(-0.000314567 0.000100758 0)
(-0.000322726 8.69179e-05 0)
(-0.000329461 7.25097e-05 0)
(-0.000334638 5.7671e-05 0)
(-0.000338218 4.25872e-05 0)
(-0.000340238 2.74097e-05 0)
(-0.000340664 1.2328e-05 0)
(-0.000339586 -2.5664e-06 0)
(-0.000336987 -1.71567e-05 0)
(-0.0003329 -3.13168e-05 0)
(-0.000327408 -4.4949e-05 0)
(-0.000320571 -5.79543e-05 0)
(-0.00031248 -7.02513e-05 0)
(-0.000303208 -8.17613e-05 0)
(-0.000292853 -9.24232e-05 0)
(-0.000281507 -0.00010218 0)
(-0.000269255 -0.000110987 0)
(-0.000256202 -0.000118809 0)
(-0.000242449 -0.000125616 0)
(-0.000228099 -0.000131391 0)
(-0.000213252 -0.000136118 0)
(-0.000198012 -0.000139795 0)
(-0.000182491 -0.000142426 0)
(-0.000166776 -0.000144016 0)
(-0.000150958 -0.00014457 0)
(-0.000135221 -0.000144141 0)
(-0.000119619 -0.000142735 0)
(-0.000104229 -0.00014039 0)
(-8.91362e-05 -0.000137139 0)
(-7.44997e-05 -0.000133043 0)
(-6.04743e-05 -0.000128141 0)
(-4.69705e-05 -0.000122511 0)
(-3.41429e-05 -0.000116186 0)
(-2.21405e-05 -0.000109284 0)
(-1.09549e-05 -0.000101839 0)
(-7.21204e-07 -9.39269e-05 0)
(8.4918e-06 -8.56347e-05 0)
(1.68201e-05 -7.70484e-05 0)
(2.40924e-05 -6.82323e-05 0)
(3.02594e-05 -5.93003e-05 0)
(3.53365e-05 -5.02975e-05 0)
(3.92785e-05 -4.13649e-05 0)
(4.2163e-05 -3.25633e-05 0)
(4.39165e-05 -2.39711e-05 0)
(4.46472e-05 -1.56758e-05 0)
(4.43626e-05 -7.75693e-06 0)
(4.31411e-05 -2.75351e-07 0)
(4.10398e-05 6.71418e-06 0)
(3.80594e-05 1.3138e-05 0)
(3.4313e-05 1.89541e-05 0)
(2.98916e-05 2.41237e-05 0)
(2.48572e-05 2.86048e-05 0)
(1.93213e-05 3.24007e-05 0)
(1.33788e-05 3.54771e-05 0)
(7.1122e-06 3.78489e-05 0)
(6.4991e-07 3.95173e-05 0)
(-5.93779e-06 4.05041e-05 0)
(-1.2527e-05 4.08367e-05 0)
(-1.90545e-05 4.05387e-05 0)
(-2.54265e-05 3.96549e-05 0)
(-3.1546e-05 3.82342e-05 0)
(-3.73465e-05 3.63261e-05 0)
(-4.27742e-05 3.39852e-05 0)
(-4.7766e-05 3.12748e-05 0)
(-5.22555e-05 2.82496e-05 0)
(-5.6222e-05 2.49756e-05 0)
(-5.96204e-05 2.1512e-05 0)
(-6.24266e-05 1.7925e-05 0)
(-6.46413e-05 1.42611e-05 0)
(-6.62483e-05 1.05832e-05 0)
(-6.72535e-05 6.93553e-06 0)
(-6.76671e-05 3.37244e-06 0)
(-6.75076e-05 -6.87405e-08 0)
(-6.67961e-05 -3.34944e-06 0)
(-6.55587e-05 -6.44e-06 0)
(-6.38334e-05 -9.30853e-06 0)
(-6.16502e-05 -1.19347e-05 0)
(-5.90534e-05 -1.43029e-05 0)
(-5.60878e-05 -1.63996e-05 0)
(-5.27903e-05 -1.8214e-05 0)
(-4.92108e-05 -1.97531e-05 0)
(-4.54025e-05 -2.10063e-05 0)
(-4.13976e-05 -2.19879e-05 0)
(-3.72473e-05 -2.26952e-05 0)
(-3.30035e-05 -2.31486e-05 0)
(-2.86959e-05 -2.33603e-05 0)
(-2.43646e-05 -2.33369e-05 0)
(-2.00593e-05 -2.31028e-05 0)
(-1.58109e-05 -2.26699e-05 0)
(-1.16435e-05 -2.20595e-05 0)
(-7.5972e-06 -2.12912e-05 0)
(-3.70068e-06 -2.03867e-05 0)
(1.91217e-08 -1.93631e-05 0)
(3.54074e-06 -1.82375e-05 0)
(6.86173e-06 -1.70263e-05 0)
(9.9585e-06 -1.57507e-05 0)
(1.28167e-05 -1.44279e-05 0)
(1.54311e-05 -1.30743e-05 0)
(1.77823e-05 -1.17035e-05 0)
(1.98724e-05 -1.03356e-05 0)
(2.16995e-05 -8.97717e-06 0)
(2.32649e-05 -7.63969e-06 0)
(2.45669e-05 -6.33648e-06 0)
(2.56149e-05 -5.07656e-06 0)
(2.64156e-05 -3.86873e-06 0)
(2.69726e-05 -2.71468e-06 0)
(2.72964e-05 -1.62795e-06 0)
(2.73969e-05 -6.11548e-07 0)
(2.72883e-05 3.38402e-07 0)
(2.69851e-05 1.20966e-06 0)
(2.64993e-05 2.00582e-06 0)
(2.58418e-05 2.72274e-06 0)
(2.50285e-05 3.3602e-06 0)
(2.40746e-05 3.92222e-06 0)
(2.29975e-05 4.40607e-06 0)
(2.18119e-05 4.81516e-06 0)
(2.05308e-05 5.15131e-06 0)
(1.91739e-05 5.4191e-06 0)
(1.7754e-05 5.61956e-06 0)
(1.6282e-05 5.7563e-06 0)
(1.47748e-05 5.83231e-06 0)
(1.32442e-05 5.8554e-06 0)
(1.17081e-05 5.82801e-06 0)
(1.01754e-05 5.75347e-06 0)
(8.65478e-06 5.63628e-06 0)
(7.16215e-06 5.48265e-06 0)
(5.70024e-06 5.29536e-06 0)
(4.28543e-06 5.0805e-06 0)
(2.92076e-06 4.841e-06 0)
(1.61358e-06 4.58165e-06 0)
(3.76694e-07 4.3068e-06 0)
(-7.94308e-07 4.02041e-06 0)
(-1.89317e-06 3.72446e-06 0)
(-2.9159e-06 3.42283e-06 0)
(-3.85935e-06 3.11866e-06 0)
(-4.72149e-06 2.81505e-06 0)
(-5.50128e-06 2.5149e-06 0)
(-6.19857e-06 2.22098e-06 0)
(-6.81405e-06 1.93574e-06 0)
(-7.34905e-06 1.66055e-06 0)
(-7.80563e-06 1.39769e-06 0)
(-8.18644e-06 1.14866e-06 0)
(-8.49457e-06 9.14593e-07 0)
(-8.73357e-06 6.95551e-07 0)
(-8.90716e-06 4.9153e-07 0)
(-9.01917e-06 3.0261e-07 0)
(-9.07349e-06 1.28417e-07 0)
(-9.07376e-06 -3.17412e-08 0)
(-9.02325e-06 -1.78855e-07 0)
(-8.92497e-06 -3.13921e-07 0)
(-8.78171e-06 -4.37921e-07 0)
(-8.59592e-06 -5.51703e-07 0)
(-8.36984e-06 -6.55818e-07 0)
(-8.10567e-06 -7.5048e-07 0)
(-7.80582e-06 -8.35568e-07 0)
(-7.47292e-06 -9.10744e-07 0)
(-7.10997e-06 -9.75525e-07 0)
(-6.72045e-06 -1.02937e-06 0)
(-6.30824e-06 -1.07197e-06 0)
(-5.87757e-06 -1.10319e-06 0)
(-5.43278e-06 -1.1236e-06 0)
(-4.9782e-06 -1.1342e-06 0)
(-4.51756e-06 -1.13693e-06 0)
(-4.05356e-06 -1.13409e-06 0)
(-3.5879e-06 -1.1282e-06 0)
(-3.12096e-06 -1.12147e-06 0)
(-2.65204e-06 -1.11536e-06 0)
(-2.18036e-06 -1.11063e-06 0)
(-1.7051e-06 -1.1077e-06 0)
(-1.22497e-06 -1.10665e-06 0)
(-7.39166e-07 -1.10632e-06 0)
(-2.47422e-07 -1.10635e-06 0)
(-2.87798e-08 0.000191138 0)
(-1.66969e-07 0.000191901 0)
(-5.96025e-07 0.000194599 0)
(-1.60946e-06 0.000198633 0)
(-3.49393e-06 0.000203955 0)
(-6.43787e-06 0.000210462 0)
(-1.06773e-05 0.000218008 0)
(-1.63735e-05 0.000226431 0)
(-2.38012e-05 0.000235509 0)
(-3.30132e-05 0.000244951 0)
(-4.42442e-05 0.000254515 0)
(-5.73549e-05 0.000263842 0)
(-7.23307e-05 0.000272647 0)
(-8.92903e-05 0.000280661 0)
(-0.000107919 0.000287436 0)
(-0.000127965 0.000292765 0)
(-0.00014945 0.000296316 0)
(-0.000172169 0.000297836 0)
(-0.000195651 0.000297112 0)
(-0.000219698 0.000293968 0)
(-0.000243951 0.000288299 0)
(-0.00026808 0.000280045 0)
(-0.000291755 0.000269194 0)
(-0.000314585 0.000255803 0)
(-0.000336206 0.000239971 0)
(-0.000356285 0.000221934 0)
(-0.000374561 0.000201821 0)
(-0.000390924 0.000180047 0)
(-0.000404775 0.000156841 0)
(-0.000416004 0.000132673 0)
(-0.000424896 0.000107783 0)
(-0.000431041 8.24914e-05 0)
(-0.000434376 5.71812e-05 0)
(-0.000434901 3.21078e-05 0)
(-0.000432951 7.46602e-06 0)
(-0.000428943 -1.6503e-05 0)
(-0.000422732 -3.95933e-05 0)
(-0.000414467 -6.16028e-05 0)
(-0.000404349 -8.2439e-05 0)
(-0.000392478 -0.000101972 0)
(-0.000379026 -0.000120112 0)
(-0.00036415 -0.000136787 0)
(-0.000348005 -0.000151946 0)
(-0.00033075 -0.000165545 0)
(-0.000312537 -0.000177557 0)
(-0.000293515 -0.00018797 0)
(-0.000273836 -0.000196766 0)
(-0.000253635 -0.000203958 0)
(-0.000233052 -0.000209548 0)
(-0.000212244 -0.000213562 0)
(-0.000191322 -0.000216006 0)
(-0.000170379 -0.000216952 0)
(-0.000149654 -0.000216387 0)
(-0.00012924 -0.000214417 0)
(-0.000109184 -0.000211041 0)
(-8.96258e-05 -0.000206336 0)
(-7.07259e-05 -0.000200382 0)
(-5.26061e-05 -0.000193216 0)
(-3.53966e-05 -0.000184945 0)
(-1.90653e-05 -0.000175705 0)
(-3.87164e-06 -0.000165534 0)
(1.00921e-05 -0.000154539 0)
(2.30098e-05 -0.000142834 0)
(3.46048e-05 -0.000130547 0)
(4.48642e-05 -0.000117764 0)
(5.37303e-05 -0.000104642 0)
(6.1098e-05 -9.13145e-05 0)
(6.71034e-05 -7.78767e-05 0)
(7.16678e-05 -6.44906e-05 0)
(7.47062e-05 -5.12762e-05 0)
(7.63918e-05 -3.83535e-05 0)
(7.67192e-05 -2.58453e-05 0)
(7.5683e-05 -1.38542e-05 0)
(7.3416e-05 -2.50035e-06 0)
(7.00125e-05 8.15998e-06 0)
(6.55294e-05 1.79722e-05 0)
(6.00637e-05 2.69029e-05 0)
(5.37395e-05 3.48688e-05 0)
(4.66429e-05 4.184e-05 0)
(3.89446e-05 4.77646e-05 0)
(3.07565e-05 5.26376e-05 0)
(2.21937e-05 5.6433e-05 0)
(1.3412e-05 5.91955e-05 0)
(4.52447e-06 6.09237e-05 0)
(-4.32416e-06 6.16657e-05 0)
(-1.30436e-05 6.14687e-05 0)
(-2.15272e-05 6.03869e-05 0)
(-2.96416e-05 5.84963e-05 0)
(-3.73065e-05 5.58654e-05 0)
(-4.44533e-05 5.2575e-05 0)
(-5.0995e-05 4.87281e-05 0)
(-5.68874e-05 4.43962e-05 0)
(-6.20813e-05 3.9686e-05 0)
(-6.65349e-05 3.46869e-05 0)
(-7.02219e-05 2.94738e-05 0)
(-7.31575e-05 2.41374e-05 0)
(-7.5335e-05 1.87674e-05 0)
(-7.67515e-05 1.34328e-05 0)
(-7.7434e-05 8.20632e-06 0)
(-7.74017e-05 3.15465e-06 0)
(-7.67041e-05 -1.68254e-06 0)
(-7.53793e-05 -6.2486e-06 0)
(-7.34677e-05 -1.05066e-05 0)
(-7.10138e-05 -1.44212e-05 0)
(-6.80771e-05 -1.79627e-05 0)
(-6.47063e-05 -2.11267e-05 0)
(-6.09556e-05 -2.3893e-05 0)
(-5.68962e-05 -2.62474e-05 0)
(-5.25601e-05 -2.82146e-05 0)
(-4.80256e-05 -2.97737e-05 0)
(-4.3335e-05 -3.09608e-05 0)
(-3.85295e-05 -3.17797e-05 0)
(-3.36874e-05 -3.22378e-05 0)
(-2.88179e-05 -3.23692e-05 0)
(-2.39815e-05 -3.21937e-05 0)
(-1.92175e-05 -3.17384e-05 0)
(-1.45584e-05 -3.10151e-05 0)
(-1.00431e-05 -3.00681e-05 0)
(-5.69168e-06 -2.89165e-05 0)
(-1.55549e-06 -2.75908e-05 0)
(2.36239e-06 -2.61168e-05 0)
(6.06259e-06 -2.45109e-05 0)
(9.50612e-06 -2.28032e-05 0)
(1.26813e-05 -2.10237e-05 0)
(1.5581e-05 -1.91882e-05 0)
(1.81981e-05 -1.73217e-05 0)
(2.05244e-05 -1.54413e-05 0)
(2.25681e-05 -1.35687e-05 0)
(2.43329e-05 -1.17191e-05 0)
(2.58114e-05 -9.90929e-06 0)
(2.70085e-05 -8.1484e-06 0)
(2.79349e-05 -6.45468e-06 0)
(2.86058e-05 -4.8328e-06 0)
(2.90247e-05 -3.29538e-06 0)
(2.9195e-05 -1.84549e-06 0)
(2.91522e-05 -4.94444e-07 0)
(2.88949e-05 7.63118e-07 0)
(2.84364e-05 1.91288e-06 0)
(2.78003e-05 2.961e-06 0)
(2.69876e-05 3.90034e-06 0)
(2.60302e-05 4.73327e-06 0)
(2.49402e-05 5.46288e-06 0)
(2.3727e-05 6.08965e-06 0)
(2.24114e-05 6.61533e-06 0)
(2.10091e-05 7.04414e-06 0)
(1.9538e-05 7.38174e-06 0)
(1.80106e-05 7.62842e-06 0)
(1.64386e-05 7.79262e-06 0)
(1.48425e-05 7.87833e-06 0)
(1.32347e-05 7.89247e-06 0)
(1.16256e-05 7.83801e-06 0)
(1.00254e-05 7.72347e-06 0)
(8.4498e-06 7.55501e-06 0)
(6.90924e-06 7.3357e-06 0)
(5.40795e-06 7.07499e-06 0)
(3.95931e-06 6.78041e-06 0)
(2.56795e-06 6.44942e-06 0)
(1.24107e-06 6.09889e-06 0)
(-1.19952e-08 5.72417e-06 0)
(-1.19107e-06 5.33612e-06 0)
(-2.29511e-06 4.93685e-06 0)
(-3.31836e-06 4.53076e-06 0)
(-4.25819e-06 4.12199e-06 0)
(-5.1129e-06 3.71472e-06 0)
(-5.88183e-06 3.31283e-06 0)
(-6.56507e-06 2.91994e-06 0)
(-7.16433e-06 2.53846e-06 0)
(-7.68125e-06 2.17172e-06 0)
(-8.11786e-06 1.82219e-06 0)
(-8.4775e-06 1.49187e-06 0)
(-8.76411e-06 1.18166e-06 0)
(-8.98208e-06 8.91825e-07 0)
(-9.1352e-06 6.229e-07 0)
(-9.22737e-06 3.74462e-07 0)
(-9.26289e-06 1.45787e-07 0)
(-9.24571e-06 -6.42129e-08 0)
(-9.17927e-06 -2.56825e-07 0)
(-9.06658e-06 -4.33652e-07 0)
(-8.91025e-06 -5.96145e-07 0)
(-8.71247e-06 -7.45566e-07 0)
(-8.47504e-06 -8.82669e-07 0)
(-8.19981e-06 -1.00769e-06 0)
(-7.88885e-06 -1.12033e-06 0)
(-7.54463e-06 -1.22e-06 0)
(-7.17003e-06 -1.30591e-06 0)
(-6.76865e-06 -1.37715e-06 0)
(-6.34457e-06 -1.43319e-06 0)
(-5.90247e-06 -1.47353e-06 0)
(-5.44727e-06 -1.49898e-06 0)
(-4.98395e-06 -1.51073e-06 0)
(-4.51685e-06 -1.51176e-06 0)
(-4.04888e-06 -1.50542e-06 0)
(-3.58162e-06 -1.49553e-06 0)
(-3.11483e-06 -1.48517e-06 0)
(-2.64705e-06 -1.47628e-06 0)
(-2.17697e-06 -1.46981e-06 0)
(-1.70347e-06 -1.46603e-06 0)
(-1.22453e-06 -1.46515e-06 0)
(-7.39331e-07 -1.46525e-06 0)
(-2.47652e-07 -1.46574e-06 0)
(6.2254e-06 0.000160294 0)
(1.85982e-05 0.00016271 0)
(3.03207e-05 0.000169404 0)
(4.09304e-05 0.000179428 0)
(4.98096e-05 0.000192666 0)
(5.63748e-05 0.000208876 0)
(6.01188e-05 0.000227706 0)
(6.05695e-05 0.000248719 0)
(5.70927e-05 0.000271337 0)
(4.94688e-05 0.000294874 0)
(3.74886e-05 0.000318653 0)
(2.0943e-05 0.000341916 0)
(3.97129e-07 0.000364019 0)
(-2.47528e-05 0.000384261 0)
(-5.40851e-05 0.000402105 0)
(-8.67615e-05 0.00041695 0)
(-0.000122825 0.000428343 0)
(-0.000161419 0.000435799 0)
(-0.000201913 0.000438874 0)
(-0.000243553 0.0004373 0)
(-0.000285493 0.000430896 0)
(-0.000327083 0.000419554 0)
(-0.000367532 0.000403297 0)
(-0.000406143 0.000382215 0)
(-0.000441825 0.000356556 0)
(-0.000474306 0.000326927 0)
(-0.000502689 0.00029356 0)
(-0.000526414 0.000257405 0)
(-0.000545165 0.000219086 0)
(-0.000558888 0.000179476 0)
(-0.000568391 0.000139318 0)
(-0.000572949 9.92557e-05 0)
(-0.000572929 5.99954e-05 0)
(-0.000569277 2.18661e-05 0)
(-0.000562131 -1.47757e-05 0)
(-0.000551641 -4.97015e-05 0)
(-0.000538008 -8.26438e-05 0)
(-0.000521801 -0.000113475 0)
(-0.00050346 -0.000142078 0)
(-0.000483082 -0.000168336 0)
(-0.00046104 -0.000192218 0)
(-0.000437579 -0.000213721 0)
(-0.00041293 -0.000232804 0)
(-0.000387301 -0.000249507 0)
(-0.000360904 -0.00026385 0)
(-0.000333888 -0.000275863 0)
(-0.000306449 -0.000285598 0)
(-0.000278767 -0.000293102 0)
(-0.000250991 -0.000298415 0)
(-0.000223232 -0.00030161 0)
(-0.000195759 -0.000302745 0)
(-0.00016858 -0.000301865 0)
(-0.000141913 -0.000299016 0)
(-0.000115957 -0.000294305 0)
(-9.06444e-05 -0.000287814 0)
(-6.63244e-05 -0.000279611 0)
(-4.29293e-05 -0.000269811 0)
(-2.06957e-05 -0.000258544 0)
(-7.95632e-08 -0.000245899 0)
(1.92558e-05 -0.000231941 0)
(3.72646e-05 -0.000216907 0)
(5.35817e-05 -0.000200804 0)
(6.81953e-05 -0.000183872 0)
(8.10678e-05 -0.000166279 0)
(9.20716e-05 -0.000148195 0)
(0.000101198 -0.000129755 0)
(0.0001085 -0.000111173 0)
(0.0001139 -9.25628e-05 0)
(0.00011736 -7.41869e-05 0)
(0.000118967 -5.61494e-05 0)
(0.000118821 -3.86446e-05 0)
(0.000116945 -2.1835e-05 0)
(0.000113459 -5.86358e-06 0)
(0.000108514 9.14365e-06 0)
(0.000102132 2.30366e-05 0)
(9.44508e-05 3.57128e-05 0)
(8.56768e-05 4.70667e-05 0)
(7.59459e-05 5.70298e-05 0)
(6.54458e-05 6.55555e-05 0)
(5.43136e-05 7.26156e-05 0)
(4.27282e-05 7.82063e-05 0)
(3.09155e-05 8.23416e-05 0)
(1.90257e-05 8.50403e-05 0)
(7.18454e-06 8.63483e-05 0)
(-4.41566e-06 8.63472e-05 0)
(-1.565e-05 8.51109e-05 0)
(-2.6393e-05 8.27468e-05 0)
(-3.65243e-05 7.93458e-05 0)
(-4.59504e-05 7.50296e-05 0)
(-5.45394e-05 6.99175e-05 0)
(-6.22696e-05 6.41481e-05 0)
(-6.90894e-05 5.7813e-05 0)
(-7.49074e-05 5.10665e-05 0)
(-7.97841e-05 4.40323e-05 0)
(-8.36903e-05 3.68125e-05 0)
(-8.65863e-05 2.9531e-05 0)
(-8.85304e-05 2.22915e-05 0)
(-8.95559e-05 1.5179e-05 0)
(-8.96834e-05 8.30791e-06 0)
(-8.90053e-05 1.71008e-06 0)
(-8.75717e-05 -4.5254e-06 0)
(-8.54143e-05 -1.03579e-05 0)
(-8.26107e-05 -1.57249e-05 0)
(-7.92174e-05 -2.06115e-05 0)
(-7.53315e-05 -2.49932e-05 0)
(-7.1019e-05 -2.88293e-05 0)
(-6.6307e-05 -3.21528e-05 0)
(-6.13211e-05 -3.49297e-05 0)
(-5.6097e-05 -3.71968e-05 0)
(-5.0709e-05 -3.89535e-05 0)
(-4.52353e-05 -4.02148e-05 0)
(-3.9671e-05 -4.10209e-05 0)
(-3.41225e-05 -4.13839e-05 0)
(-2.86368e-05 -4.13344e-05 0)
(-2.32394e-05 -4.09146e-05 0)
(-1.79631e-05 -4.01443e-05 0)
(-1.28646e-05 -3.90742e-05 0)
(-7.97806e-06 -3.7722e-05 0)
(-3.31481e-06 -3.61322e-05 0)
(1.08541e-06 -3.43492e-05 0)
(5.22503e-06 -3.23828e-05 0)
(9.08151e-06 -3.02767e-05 0)
(1.26284e-05 -2.80694e-05 0)
(1.5869e-05 -2.57748e-05 0)
(1.88012e-05 -2.34313e-05 0)
(2.14189e-05 -2.10585e-05 0)
(2.37111e-05 -1.86841e-05 0)
(2.56863e-05 -1.63268e-05 0)
(2.7351e-05 -1.40087e-05 0)
(2.87165e-05 -1.17557e-05 0)
(2.97818e-05 -9.57634e-06 0)
(3.0563e-05 -7.47891e-06 0)
(3.10768e-05 -5.48048e-06 0)
(3.13299e-05 -3.59097e-06 0)
(3.13344e-05 -1.81595e-06 0)
(3.11153e-05 -1.61707e-07 0)
(3.06812e-05 1.36248e-06 0)
(3.00473e-05 2.7557e-06 0)
(2.9237e-05 4.01792e-06 0)
(2.8255e-05 5.14594e-06 0)
(2.71321e-05 6.14587e-06 0)
(2.58803e-05 7.01342e-06 0)
(2.45144e-05 7.75466e-06 0)
(2.30542e-05 8.37272e-06 0)
(2.15172e-05 8.8723e-06 0)
(1.99178e-05 9.25712e-06 0)
(1.82716e-05 9.53386e-06 0)
(1.65936e-05 9.71055e-06 0)
(1.48987e-05 9.79402e-06 0)
(1.31972e-05 9.7872e-06 0)
(1.15074e-05 9.70078e-06 0)
(9.84141e-06 9.53971e-06 0)
(8.20209e-06 9.31473e-06 0)
(6.60787e-06 9.02978e-06 0)
(5.066e-06 8.69519e-06 0)
(3.57902e-06 8.31605e-06 0)
(2.15976e-06 7.90178e-06 0)
(8.12965e-07 7.45641e-06 0)
(-4.55897e-07 6.99303e-06 0)
(-1.64382e-06 6.50962e-06 0)
(-2.75227e-06 6.01355e-06 0)
(-3.77519e-06 5.51047e-06 0)
(-4.71005e-06 5.00529e-06 0)
(-5.55543e-06 4.50257e-06 0)
(-6.31107e-06 4.00697e-06 0)
(-6.97846e-06 3.52268e-06 0)
(-7.55897e-06 3.05386e-06 0)
(-8.05409e-06 2.60461e-06 0)
(-8.46721e-06 2.17756e-06 0)
(-8.80262e-06 1.77469e-06 0)
(-9.06519e-06 1.39663e-06 0)
(-9.25887e-06 1.04481e-06 0)
(-9.38803e-06 7.19436e-07 0)
(-9.45758e-06 4.19671e-07 0)
(-9.47197e-06 1.44368e-07 0)
(-9.4353e-06 -1.08068e-07 0)
(-9.3512e-06 -3.39294e-07 0)
(-9.2227e-06 -5.51602e-07 0)
(-9.05223e-06 -7.46919e-07 0)
(-8.84155e-06 -9.27025e-07 0)
(-8.59194e-06 -1.09286e-06 0)
(-8.30472e-06 -1.24463e-06 0)
(-7.98159e-06 -1.38178e-06 0)
(-7.6248e-06 -1.50334e-06 0)
(-7.23712e-06 -1.60816e-06 0)
(-6.82228e-06 -1.69485e-06 0)
(-6.38452e-06 -1.7627e-06 0)
(-5.92911e-06 -1.81045e-06 0)
(-5.46168e-06 -1.83924e-06 0)
(-4.98815e-06 -1.85021e-06 0)
(-4.51375e-06 -1.84768e-06 0)
(-4.04163e-06 -1.83619e-06 0)
(-3.57312e-06 -1.82123e-06 0)
(-3.10705e-06 -1.80666e-06 0)
(-2.64106e-06 -1.79483e-06 0)
(-2.17314e-06 -1.78677e-06 0)
(-1.70189e-06 -1.7823e-06 0)
(-1.2245e-06 -1.78191e-06 0)
(-7.39952e-07 -1.78317e-06 0)
(-2.48091e-07 -1.7844e-06 0)
(1.94584e-05 4.88212e-05 0)
(5.82662e-05 5.49825e-05 0)
(9.59015e-05 7.01545e-05 0)
(0.000131157 9.29096e-05 0)
(0.000162696 0.000122973 0)
(0.000189073 0.000159897 0)
(0.000209114 0.000202995 0)
(0.0002216 0.000251357 0)
(0.000225096 0.000304026 0)
(0.000219271 0.000359386 0)
(0.0002038 0.000415598 0)
(0.000179167 0.000470929 0)
(0.000145968 0.000523615 0)