/*--------------------------------*- C++ -*----------------------------------*\
  =========                 |
  \\      /  F ield         | OpenFOAM: The Open Source CFD Toolbox
   \\    /   O peration     | Website:  https://openfoam.org
    \\  /    A nd           | Version:  12
     \\/     M anipulation  |
\*---------------------------------------------------------------------------*/
FoamFile
{
    format      ascii;
    class       volScalarField;
    location    "8.28";
    object      p;
}
// * * * * * * * * * * * * * * * * * * * * * * * * * * * * * * * * * * * * * //

dimensions      [1 -1 -2 0 0 0 0];

internalField   nonuniform List<scalar> 
3829
(
-616.24
-616.239
-616.238
-616.235
-616.232
-616.229
-616.224
-616.219
-616.213
-616.206
-616.198
-616.189
-616.179
-616.168
-616.156
-616.143
-616.129
-616.114
-616.098
-616.08
-616.061
-616.041
-616.02
-615.998
-615.974
-615.948
-615.922
-615.894
-615.864
-615.833
-615.8
-615.766
-615.731
-615.694
-615.655
-615.615
-615.573
-615.529
-615.485
-615.438
-615.39
-615.341
-615.291
-615.24
-615.188
-615.134
-615.081
-615.026
-614.972
-614.917
-614.862
-614.808
-614.755
-614.702
-614.65
-614.6
-614.551
-614.505
-614.461
-614.42
-614.381
-614.346
-614.314
-614.286
-614.262
-614.242
-614.227
-614.215
-614.208
-614.206
-614.208
-614.214
-614.224
-614.239
-614.257
-614.279
-614.303
-614.331
-614.36
-614.39
-614.422
-614.453
-614.485
-614.515
-614.544
-614.57
-614.594
-614.614
-614.63
-614.642
-614.649
-614.649
-614.644
-614.634
-614.619
-614.598
-614.573
-614.543
-614.51
-614.474
-614.436
-614.396
-614.356
-614.317
-614.279
-614.244
-614.213
-614.187
-614.165
-614.15
-614.141
-614.139
-614.143
-614.154
-614.171
-614.193
-614.22
-614.25
-614.282
-614.316
-614.349
-614.38
-614.408
-614.432
-614.451
-614.463
-614.47
-614.469
-614.463
-614.45
-614.432
-614.41
-614.385
-614.358
-614.332
-614.307
-614.285
-614.266
-614.253
-614.244
-614.243
-614.246
-614.254
-614.266
-614.281
-614.296
-614.312
-614.325
-614.336
-614.343
-614.346
-614.344
-614.338
-614.329
-614.317
-614.304
-614.291
-614.28
-614.272
-614.268
-614.269
-614.275
-614.286
-614.3
-614.318
-614.34
-614.36
-614.38
-614.397
-614.41
-614.42
-614.424
-614.423
-614.417
-614.408
-614.395
-614.38
-614.364
-614.348
-614.334
-614.322
-614.312
-614.307
-614.304
-614.304
-614.307
-614.312
-614.319
-614.326
-614.332
-614.338
-614.343
-614.346
-614.348
-614.348
-614.347
-614.345
-614.344
-614.342
-614.341
-1774.67
-1774.67
-1774.67
-1774.66
-1774.66
-1774.66
-1774.65
-1774.65
-1774.64
-1774.63
-1774.62
-1774.61
-1774.6
-1774.59
-1774.58
-1774.57
-1774.55
-1774.54
-1774.52
-1774.5
-1774.48
-1774.46
-1774.44
-1774.42
-1774.4
-1774.37
-1774.34
-1774.31
-1774.28
-1774.25
-1774.22
-1774.18
-1774.15
-1774.11
-1774.07
-1774.02
-1773.98
-1773.93
-1773.89
-1773.84
-1773.78
-1773.73
-1773.68
-1773.62
-1773.56
-1773.51
-1773.45
-1773.39
-1773.33
-1773.27
-1773.21
-1773.15
-1773.09
-1773.03
-1772.97
-1772.91
-1772.86
-1772.81
-1772.76
-1772.71
-1772.67
-1772.63
-1772.6
-1772.57
-1772.54
-1772.52
-1772.51
-1772.5
-1772.49
-1772.49
-1772.5
-1772.51
-1772.53
-1772.55
-1772.57
-1772.6
-1772.64
-1772.67
-1772.71
-1772.75
-1772.79
-1772.83
-1772.87
-1772.91
-1772.94
-1772.98
-1773.01
-1773.03
-1773.05
-1773.07
-1773.07
-1773.08
-1773.07
-1773.06
-1773.04
-1773.01
-1772.98
-1772.95
-1772.9
-1772.86
-1772.81
-1772.77
-1772.72
-1772.67
-1772.62
-1772.58
-1772.55
-1772.52
-1772.49
-1772.47
-1772.46
-1772.46
-1772.47
-1772.49
-1772.51
-1772.54
-1772.57
-1772.61
-1772.65
-1772.69
-1772.73
-1772.77
-1772.8
-1772.83
-1772.85
-1772.86
-1772.87
-1772.87
-1772.86
-1772.84
-1772.82
-1772.79
-1772.76
-1772.73
-1772.7
-1772.67
-1772.64
-1772.62
-1772.6
-1772.6
-1772.59
-1772.6
-1772.61
-1772.63
-1772.65
-1772.67
-1772.69
-1772.7
-1772.72
-1772.72
-1772.73
-1772.72
-1772.72
-1772.7
-1772.69
-1772.67
-1772.66
-1772.64
-1772.63
-1772.63
-1772.63
-1772.63
-1772.65
-1772.66
-1772.68
-1772.71
-1772.73
-1772.75
-1772.77
-1772.79
-1772.8
-1772.8
-1772.8
-1772.79
-1772.78
-1772.77
-1772.75
-1772.73
-1772.72
-1772.7
-1772.69
-1772.68
-1772.67
-1772.67
-1772.67
-1772.67
-1772.68
-1772.69
-1772.7
-1772.7
-1772.71
-1772.71
-1772.72
-1772.72
-1772.72
-1772.72
-1772.72
-1772.71
-1772.71
-1772.71
-2800.94
-2800.94
-2800.94
-2800.94
-2800.93
-2800.93
-2800.93
-2800.92
-2800.91
-2800.9
-2800.89
-2800.88
-2800.87
-2800.86
-2800.85
-2800.83
-2800.82
-2800.8
-2800.78
-2800.76
-2800.74
-2800.72
-2800.7
-2800.68
-2800.65
-2800.63
-2800.6
-2800.57
-2800.54
-2800.51
-2800.47
-2800.43
-2800.4
-2800.35
-2800.31
-2800.27
-2800.22
-2800.17
-2800.11
-2800.06
-2800
-2799.94
-2799.88
-2799.81
-2799.75
-2799.68
-2799.61
-2799.54
-2799.47
-2799.39
-2799.32
-2799.25
-2799.18
-2799.11
-2799.04
-2798.97
-2798.91
-2798.85
-2798.79
-2798.74
-2798.69
-2798.64
-2798.6
-2798.57
-2798.54
-2798.52
-2798.51
-2798.5
-2798.5
-2798.51
-2798.52
-2798.54
-2798.57
-2798.6
-2798.64
-2798.69
-2798.73
-2798.79
-2798.84
-2798.9
-2798.95
-2799.01
-2799.06
-2799.12
-2799.17
-2799.21
-2799.25
-2799.29
-2799.31
-2799.33
-2799.34
-2799.34
-2799.33
-2799.32
-2799.29
-2799.26
-2799.21
-2799.16
-2799.11
-2799.05
-2798.99
-2798.92
-2798.86
-2798.8
-2798.74
-2798.69
-2798.64
-2798.6
-2798.57
-2798.55
-2798.54
-2798.54
-2798.55
-2798.58
-2798.61
-2798.65
-2798.7
-2798.75
-2798.8
-2798.86
-2798.91
-2798.96
-2799
-2799.04
-2799.07
-2799.09
-2799.09
-2799.09
-2799.07
-2799.05
-2799.01
-2798.97
-2798.93
-2798.89
-2798.84
-2798.8
-2798.77
-2798.74
-2798.73
-2798.72
-2798.72
-2798.73
-2798.75
-2798.77
-2798.8
-2798.83
-2798.86
-2798.88
-2798.9
-2798.91
-2798.91
-2798.91
-2798.89
-2798.88
-2798.85
-2798.83
-2798.81
-2798.79
-2798.78
-2798.77
-2798.77
-2798.78
-2798.79
-2798.81
-2798.84
-2798.87
-2798.9
-2798.92
-2798.95
-2798.96
-2798.97
-2798.98
-2798.97
-2798.97
-2798.95
-2798.93
-2798.91
-2798.89
-2798.87
-2798.85
-2798.84
-2798.83
-2798.82
-2798.82
-2798.83
-2798.83
-2798.84
-2798.85
-2798.86
-2798.86
-2798.87
-2798.88
-2798.88
-2798.88
-2798.88
-2798.88
-2798.88
-2798.87
-2798.87
-2798.87
-3710.1
-3710.1
-3710.1
-3710.1
-3710.09
-3710.09
-3710.08
-3710.08
-3710.07
-3710.06
-3710.05
-3710.04
-3710.02
-3710.01
-3710
-3709.98
-3709.96
-3709.95
-3709.93
-3709.91
-3709.89
-3709.87
-3709.85
-3709.83
-3709.8
-3709.78
-3709.75
-3709.72
-3709.69
-3709.66
-3709.63
-3709.59
-3709.55
-3709.51
-3709.46
-3709.41
-3709.36
-3709.31
-3709.25
-3709.18
-3709.12
-3709.05
-3708.98
-3708.9
-3708.82
-3708.74
-3708.66
-3708.57
-3708.48
-3708.39
-3708.3
-3708.21
-3708.13
-3708.04
-3707.95
-3707.87
-3707.79
-3707.72
-3707.64
-3707.58
-3707.52
-3707.47
-3707.42
-3707.38
-3707.35
-3707.33
-3707.32
-3707.32
-3707.33
-3707.34
-3707.37
-3707.4
-3707.44
-3707.5
-3707.55
-3707.62
-3707.69
-3707.76
-3707.84
-3707.92
-3708
-3708.08
-3708.16
-3708.23
-3708.3
-3708.36
-3708.42
-3708.46
-3708.5
-3708.52
-3708.53
-3708.53
-3708.52
-3708.5
-3708.46
-3708.41
-3708.35
-3708.29
-3708.21
-3708.13
-3708.04
-3707.96
-3707.87
-3707.79
-3707.71
-3707.64
-3707.58
-3707.52
-3707.49
-3707.46
-3707.45
-3707.46
-3707.48
-3707.51
-3707.56
-3707.62
-3707.69
-3707.76
-3707.83
-3707.91
-3707.98
-3708.05
-3708.11
-3708.16
-3708.19
-3708.21
-3708.22
-3708.2
-3708.18
-3708.14
-3708.09
-3708.04
-3707.98
-3707.92
-3707.86
-3707.81
-3707.76
-3707.73
-3707.71
-3707.7
-3707.71
-3707.73
-3707.76
-3707.79
-3707.83
-3707.87
-3707.91
-3707.94
-3707.97
-3707.98
-3707.98
-3707.97
-3707.96
-3707.93
-3707.9
-3707.87
-3707.84
-3707.81
-3707.79
-3707.78
-3707.78
-3707.79
-3707.81
-3707.84
-3707.87
-3707.91
-3707.94
-3707.97
-3708
-3708.02
-3708.03
-3708.04
-3708.03
-3708.02
-3708
-3707.98
-3707.95
-3707.93
-3707.91
-3707.89
-3707.87
-3707.86
-3707.85
-3707.85
-3707.86
-3707.86
-3707.87
-3707.88
-3707.9
-3707.91
-3707.91
-3707.92
-3707.92
-3707.92
-3707.92
-3707.92
-3707.92
-3707.91
-3707.91
-3707.91
-4515.6
-4515.6
-4515.6
-4515.59
-4515.58
-4515.57
-4515.56
-4515.55
-4515.53
-4515.52
-4515.5
-4515.48
-4515.47
-4515.45
-4515.43
-4515.41
-4515.39
-4515.37
-4515.35
-4515.33
-4515.31
-4515.29
-4515.27
-4515.25
-4515.23
-4515.21
-4515.18
-4515.16
-4515.13
-4515.11
-4515.07
-4515.04
-4515
-4514.96
-4514.92
-4514.87
-4514.81
-4514.75
-4514.68
-4514.61
-4514.53
-4514.45
-4514.36
-4514.27
-4514.17
-4514.07
-4513.97
-4513.86
-4513.75
-4513.64
-4513.53
-4513.42
-4513.3
-4513.19
-4513.09
-4512.98
-4512.88
-4512.79
-4512.7
-4512.62
-4512.55
-4512.48
-4512.43
-4512.38
-4512.35
-4512.33
-4512.32
-4512.32
-4512.34
-4512.37
-4512.41
-4512.46
-4512.52
-4512.6
-4512.68
-4512.77
-4512.87
-4512.98
-4513.08
-4513.2
-4513.31
-4513.42
-4513.52
-4513.62
-4513.72
-4513.8
-4513.87
-4513.93
-4513.98
-4514.01
-4514.03
-4514.02
-4514.01
-4513.97
-4513.92
-4513.85
-4513.77
-4513.68
-4513.58
-4513.47
-4513.35
-4513.24
-4513.12
-4513.01
-4512.9
-4512.81
-4512.73
-4512.67
-4512.62
-4512.59
-4512.58
-4512.59
-4512.63
-4512.68
-4512.74
-4512.82
-4512.92
-4513.02
-4513.12
-4513.22
-4513.32
-4513.41
-4513.49
-4513.55
-4513.59
-4513.61
-4513.61
-4513.6
-4513.56
-4513.51
-4513.44
-4513.36
-4513.28
-4513.19
-4513.12
-4513.05
-4512.99
-4512.95
-4512.92
-4512.92
-4512.93
-4512.96
-4513
-4513.06
-4513.11
-4513.17
-4513.22
-4513.27
-4513.3
-4513.31
-4513.32
-4513.3
-4513.27
-4513.24
-4513.19
-4513.15
-4513.11
-4513.07
-4513.05
-4513.03
-4513.03
-4513.05
-4513.07
-4513.11
-4513.15
-4513.19
-4513.24
-4513.28
-4513.31
-4513.33
-4513.35
-4513.35
-4513.34
-4513.33
-4513.3
-4513.27
-4513.24
-4513.21
-4513.19
-4513.16
-4513.15
-4513.13
-4513.13
-4513.13
-4513.14
-4513.15
-4513.16
-4513.17
-4513.19
-4513.2
-4513.21
-4513.21
-4513.22
-4513.22
-4513.21
-4513.21
-4513.2
-4513.2
-4513.19
-4513.19
-5229.15
-5229.14
-5229.14
-5229.13
-5229.12
-5229.11
-5229.09
-5229.08
-5229.06
-5229.03
-5229.01
-5228.99
-5228.96
-5228.93
-5228.91
-5228.88
-5228.86
-5228.83
-5228.81
-5228.79
-5228.77
-5228.76
-5228.74
-5228.73
-5228.72
-5228.71
-5228.69
-5228.68
-5228.67
-5228.65
-5228.63
-5228.6
-5228.57
-5228.53
-5228.48
-5228.44
-5228.38
-5228.31
-5228.24
-5228.16
-5228.07
-5227.98
-5227.87
-5227.76
-5227.64
-5227.52
-5227.39
-5227.26
-5227.12
-5226.98
-5226.84
-5226.7
-5226.56
-5226.42
-5226.28
-5226.15
-5226.03
-5225.91
-5225.8
-5225.7
-5225.61
-5225.53
-5225.46
-5225.41
-5225.38
-5225.36
-5225.35
-5225.36
-5225.39
-5225.43
-5225.49
-5225.57
-5225.66
-5225.76
-5225.87
-5226
-5226.13
-5226.27
-5226.42
-5226.57
-5226.72
-5226.86
-5227
-5227.14
-5227.26
-5227.37
-5227.47
-5227.54
-5227.6
-5227.64
-5227.66
-5227.65
-5227.63
-5227.58
-5227.51
-5227.42
-5227.31
-5227.19
-5227.05
-5226.9
-5226.75
-5226.6
-5226.44
-5226.3
-5226.16
-5226.04
-5225.94
-5225.86
-5225.8
-5225.77
-5225.76
-5225.78
-5225.83
-5225.9
-5225.99
-5226.1
-5226.23
-5226.36
-5226.5
-5226.63
-5226.76
-5226.88
-5226.98
-5227.05
-5227.11
-5227.13
-5227.13
-5227.1
-5227.05
-5226.97
-5226.88
-5226.78
-5226.67
-5226.55
-5226.45
-5226.36
-5226.29
-5226.24
-5226.21
-5226.21
-5226.23
-5226.28
-5226.34
-5226.41
-5226.49
-5226.56
-5226.63
-5226.69
-5226.73
-5226.75
-5226.75
-5226.73
-5226.69
-5226.64
-5226.58
-5226.52
-5226.46
-5226.42
-5226.38
-5226.37
-5226.37
-5226.39
-5226.42
-5226.46
-5226.52
-5226.57
-5226.63
-5226.67
-5226.71
-5226.74
-5226.76
-5226.76
-5226.75
-5226.73
-5226.7
-5226.66
-5226.62
-5226.59
-5226.56
-5226.53
-5226.51
-5226.5
-5226.49
-5226.49
-5226.5
-5226.52
-5226.53
-5226.55
-5226.57
-5226.58
-5226.59
-5226.6
-5226.6
-5226.6
-5226.6
-5226.59
-5226.58
-5226.58
-5226.57
-5226.57
-5861.42
-5861.41
-5861.4
-5861.38
-5861.35
-5861.32
-5861.29
-5861.25
-5861.21
-5861.16
-5861.12
-5861.08
-5861.03
-5861
-5860.96
-5860.92
-5860.89
-5860.86
-5860.84
-5860.81
-5860.8
-5860.79
-5860.79
-5860.79
-5860.79
-5860.8
-5860.8
-5860.81
-5860.82
-5860.82
-5860.81
-5860.8
-5860.79
-5860.76
-5860.72
-5860.67
-5860.61
-5860.54
-5860.45
-5860.36
-5860.25
-5860.14
-5860.01
-5859.87
-5859.73
-5859.58
-5859.42
-5859.25
-5859.08
-5858.9
-5858.73
-5858.55
-5858.37
-5858.2
-5858.03
-5857.87
-5857.72
-5857.57
-5857.43
-5857.31
-5857.2
-5857.11
-5857.03
-5856.97
-5856.93
-5856.91
-5856.91
-5856.93
-5856.97
-5857.03
-5857.11
-5857.21
-5857.33
-5857.47
-5857.62
-5857.79
-5857.96
-5858.15
-5858.34
-5858.53
-5858.72
-5858.91
-5859.09
-5859.26
-5859.42
-5859.56
-5859.68
-5859.78
-5859.85
-5859.9
-5859.92
-5859.91
-5859.87
-5859.81
-5859.71
-5859.59
-5859.45
-5859.29
-5859.11
-5858.92
-5858.73
-5858.53
-5858.34
-5858.15
-5857.98
-5857.83
-5857.7
-5857.6
-5857.53
-5857.49
-5857.49
-5857.52
-5857.59
-5857.68
-5857.81
-5857.95
-5858.11
-5858.29
-5858.46
-5858.64
-5858.8
-5858.95
-5859.07
-5859.17
-5859.23
-5859.26
-5859.25
-5859.21
-5859.13
-5859.03
-5858.91
-5858.77
-5858.63
-5858.49
-5858.36
-5858.24
-5858.15
-5858.09
-5858.06
-5858.07
-5858.1
-5858.16
-5858.24
-5858.34
-5858.44
-5858.54
-5858.63
-5858.71
-5858.76
-5858.78
-5858.78
-5858.75
-5858.69
-5858.63
-5858.55
-5858.47
-5858.4
-5858.34
-5858.3
-5858.28
-5858.28
-5858.3
-5858.34
-5858.4
-5858.46
-5858.53
-5858.6
-5858.66
-5858.7
-5858.74
-5858.75
-5858.75
-5858.74
-5858.71
-5858.67
-5858.63
-5858.59
-5858.54
-5858.51
-5858.47
-5858.45
-5858.44
-5858.44
-5858.44
-5858.45
-5858.47
-5858.49
-5858.51
-5858.53
-5858.54
-5858.56
-5858.56
-5858.57
-5858.56
-5858.56
-5858.55
-5858.54
-5858.53
-5858.53
-5858.52
-6421.64
-6421.63
-6421.61
-6421.58
-6421.54
-6421.5
-6421.45
-6421.4
-6421.35
-6421.28
-6421.21
-6421.13
-6421.05
-6420.97
-6420.89
-6420.82
-6420.75
-6420.7
-6420.66
-6420.63
-6420.62
-6420.62
-6420.64
-6420.66
-6420.69
-6420.73
-6420.77
-6420.81
-6420.85
-6420.88
-6420.91
-6420.92
-6420.92
-6420.9
-6420.88
-6420.83
-6420.77
-6420.69
-6420.6
-6420.49
-6420.36
-6420.22
-6420.07
-6419.9
-6419.72
-6419.53
-6419.34
-6419.13
-6418.92
-6418.7
-6418.49
-6418.27
-6418.05
-6417.84
-6417.63
-6417.43
-6417.24
-6417.07
-6416.9
-6416.75
-6416.62
-6416.51
-6416.42
-6416.35
-6416.3
-6416.28
-6416.29
-6416.32
-6416.38
-6416.46
-6416.57
-6416.7
-6416.85
-6417.03
-6417.22
-6417.43
-6417.66
-6417.89
-6418.13
-6418.37
-6418.62
-6418.85
-6419.08
-6419.29
-6419.49
-6419.66
-6419.81
-6419.93
-6420.02
-6420.07
-6420.09
-6420.08
-6420.03
-6419.94
-6419.82
-6419.67
-6419.49
-6419.28
-6419.06
-6418.82
-6418.58
-6418.33
-6418.09
-6417.86
-6417.65
-6417.46
-6417.3
-6417.18
-6417.1
-6417.06
-6417.06
-6417.11
-6417.19
-6417.32
-6417.48
-6417.66
-6417.87
-6418.09
-6418.31
-6418.53
-6418.73
-6418.91
-6419.06
-6419.18
-6419.25
-6419.28
-6419.26
-6419.21
-6419.11
-6418.98
-6418.82
-6418.65
-6418.46
-6418.29
-6418.12
-6417.98
-6417.87
-6417.8
-6417.77
-6417.78
-6417.83
-6417.91
-6418.02
-6418.14
-6418.28
-6418.4
-6418.52
-6418.61
-6418.67
-6418.69
-6418.68
-6418.64
-6418.57
-6418.49
-6418.39
-6418.29
-6418.2
-6418.13
-6418.08
-6418.05
-6418.06
-6418.09
-6418.14
-6418.21
-6418.29
-6418.37
-6418.45
-6418.51
-6418.57
-6418.6
-6418.62
-6418.62
-6418.6
-6418.56
-6418.52
-6418.47
-6418.42
-6418.37
-6418.33
-6418.29
-6418.27
-6418.25
-6418.25
-6418.26
-6418.27
-6418.3
-6418.32
-6418.34
-6418.36
-6418.38
-6418.4
-6418.4
-6418.41
-6418.4
-6418.4
-6418.39
-6418.37
-6418.36
-6418.36
-6418.35
-6918.13
-6918.11
-6918.06
-6917.99
-6917.9
-6917.78
-6917.62
-6917.45
-6917.3
-6917.15
-6917
-6916.84
-6916.69
-6916.56
-6916.45
-6916.35
-6916.28
-6916.23
-6916.2
-6916.19
-6916.2
-6916.24
-6916.3
-6916.39
-6916.49
-6916.62
-6916.76
-6916.89
-6917.02
-6917.12
-6917.2
-6917.25
-6917.27
-6917.27
-6917.24
-6917.19
-6917.12
-6917.03
-6916.91
-6916.78
-6916.63
-6916.46
-6916.27
-6916.06
-6915.85
-6915.62
-6915.38
-6915.13
-6914.87
-6914.61
-6914.35
-6914.08
-6913.82
-6913.57
-6913.32
-6913.08
-6912.85
-6912.63
-6912.44
-6912.26
-6912.1
-6911.97
-6911.87
-6911.79
-6911.74
-6911.72
-6911.73
-6911.77
-6911.85
-6911.96
-6912.09
-6912.26
-6912.45
-6912.67
-6912.91
-6913.17
-6913.45
-6913.74
-6914.03
-6914.33
-6914.62
-6914.91
-6915.19
-6915.45
-6915.69
-6915.9
-6916.08
-6916.22
-6916.32
-6916.39
-6916.41
-6916.38
-6916.32
-6916.21
-6916.05
-6915.87
-6915.64
-6915.39
-6915.11
-6914.82
-6914.52
-6914.22
-6913.93
-6913.65
-6913.39
-6913.17
-6912.98
-6912.84
-6912.74
-6912.7
-6912.71
-6912.77
-6912.88
-6913.04
-6913.24
-6913.47
-6913.72
-6913.99
-6914.26
-6914.53
-6914.78
-6914.99
-6915.17
-6915.31
-6915.39
-6915.42
-6915.4
-6915.32
-6915.2
-6915.03
-6914.83
-6914.62
-6914.4
-6914.18
-6913.98
-6913.81
-6913.68
-6913.6
-6913.57
-6913.58
-6913.65
-6913.75
-6913.89
-6914.05
-6914.21
-6914.37
-6914.51
-6914.62
-6914.69
-6914.72
-6914.7
-6914.65
-6914.56
-6914.45
-6914.33
-6914.21
-6914.1
-6914.01
-6913.95
-6913.93
-6913.93
-6913.97
-6914.03
-6914.12
-6914.21
-6914.31
-6914.4
-6914.48
-6914.54
-6914.58
-6914.59
-6914.59
-6914.56
-6914.52
-6914.47
-6914.41
-6914.35
-6914.3
-6914.25
-6914.21
-6914.18
-6914.17
-6914.17
-6914.18
-6914.2
-6914.22
-6914.25
-6914.28
-6914.3
-6914.32
-6914.34
-6914.35
-6914.35
-6914.34
-6914.33
-6914.32
-6914.31
-6914.3
-6914.29
-6914.28
-7358.32
-7358.3
-7358.24
-7358.16
-7358.06
-7357.94
-7357.81
-7357.6
-7357.66
-7357.33
-7357.06
-7356.83
-7356.61
-7356.41
-7356.22
-7356.07
-7355.93
-7355.83
-7355.76
-7355.72
-7355.72
-7355.76
-7355.83
-7355.93
-7356.07
-7356.24
-7356.5
-7356.5
-7356.72
-7356.84
-7356.95
-7357.03
-7357.09
-7357.1
-7357.08
-7357.03
-7356.94
-7356.83
-7356.69
-7356.52
-7356.34
-7356.13
-7355.9
-7355.66
-7355.4
-7355.12
-7354.83
-7354.54
-7354.23
-7353.92
-7353.61
-7353.29
-7352.98
-7352.68
-7352.38
-7352.1
-7351.83
-7351.58
-7351.34
-7351.14
-7350.96
-7350.8
-7350.68
-7350.59
-7350.54
-7350.52
-7350.54
-7350.6
-7350.69
-7350.83
-7350.99
-7351.2
-7351.43
-7351.7
-7351.99
-7352.3
-7352.64
-7352.98
-7353.34
-7353.69
-7354.05
-7354.39
-7354.72
-7355.03
-7355.31
-7355.56
-7355.77
-7355.94
-7356.06
-7356.13
-7356.15
-7356.12
-7356.03
-7355.9
-7355.71
-7355.48
-7355.21
-7354.9
-7354.57
-7354.22
-7353.86
-7353.5
-7353.15
-7352.82
-7352.52
-7352.26
-7352.04
-7351.87
-7351.77
-7351.72
-7351.74
-7351.82
-7351.96
-7352.15
-7352.39
-7352.67
-7352.98
-7353.3
-7353.63
-7353.94
-7354.24
-7354.49
-7354.7
-7354.86
-7354.95
-7354.98
-7354.95
-7354.85
-7354.69
-7354.49
-7354.25
-7353.99
-7353.72
-7353.47
-7353.23
-7353.03
-7352.88
-7352.79
-7352.75
-7352.78
-7352.86
-7352.99
-7353.16
-7353.36
-7353.56
-7353.74
-7353.91
-7354.04
-7354.12
-7354.15
-7354.13
-7354.06
-7353.95
-7353.82
-7353.67
-7353.53
-7353.4
-7353.3
-7353.23
-7353.2
-7353.21
-7353.25
-7353.33
-7353.42
-7353.53
-7353.65
-7353.75
-7353.84
-7353.91
-7353.95
-7353.97
-7353.96
-7353.93
-7353.88
-7353.82
-7353.75
-7353.69
-7353.62
-7353.57
-7353.53
-7353.5
-7353.49
-7353.49
-7353.5
-7353.52
-7353.55
-7353.58
-7353.61
-7353.64
-7353.66
-7353.68
-7353.69
-7353.69
-7353.68
-7353.67
-7353.66
-7353.64
-7353.63
-7353.62
-7353.61
-7748.6
-7748.58
-7748.54
-7748.49
-7748.4
-7748.29
-7748.13
-7747.99
-7747.86
-7746.72
-7746
-7745.44
-7744.99
-7744.63
-7744.34
-7744.12
-7743.96
-7743.85
-7743.79
-7743.78
-7743.82
-7743.92
-7744.09
-7744.33
-7744.66
-7745.11
-7745.88
-7746.26
-7746.6
-7746.8
-7746.92
-7746.98
-7746.99
-7746.96
-7746.89
-7746.8
-7746.68
-7746.53
-7746.36
-7746.16
-7745.93
-7745.68
-7745.41
-7745.12
-7744.82
-7744.49
-7744.15
-7743.8
-7743.44
-7743.08
-7742.71
-7742.35
-7741.99
-7741.63
-7741.29
-7740.96
-7740.64
-7740.35
-7740.08
-7739.84
-7739.64
-7739.46
-7739.32
-7739.23
-7739.17
-7739.15
-7739.18
-7739.25
-7739.37
-7739.53
-7739.73
-7739.98
-7740.26
-7740.57
-7740.91
-7741.29
-7741.68
-7742.09
-7742.5
-7742.92
-7743.34
-7743.74
-7744.12
-7744.48
-7744.81
-7745.1
-7745.34
-7745.53
-7745.67
-7745.75
-7745.77
-7745.72
-7745.62
-7745.45
-7745.23
-7744.96
-7744.64
-7744.28
-7743.89
-7743.47
-7743.05
-7742.63
-7742.22
-7741.84
-7741.49
-7741.18
-7740.93
-7740.74
-7740.62
-7740.58
-7740.6
-7740.7
-7740.87
-7741.1
-7741.39
-7741.72
-7742.08
-7742.46
-7742.85
-7743.22
-7743.56
-7743.85
-7744.1
-7744.27
-7744.38
-7744.41
-7744.36
-7744.24
-7744.05
-7743.81
-7743.52
-7743.21
-7742.9
-7742.6
-7742.32
-7742.09
-7741.92
-7741.81
-7741.78
-7741.82
-7741.92
-7742.08
-7742.29
-7742.52
-7742.75
-7742.98
-7743.17
-7743.31
-7743.41
-7743.44
-7743.41
-7743.32
-7743.19
-7743.04
-7742.86
-7742.69
-7742.54
-7742.43
-7742.35
-7742.32
-7742.33
-7742.38
-7742.47
-7742.59
-7742.71
-7742.84
-7742.96
-7743.06
-7743.14
-7743.18
-7743.2
-7743.19
-7743.15
-7743.09
-7743.02
-7742.95
-7742.87
-7742.8
-7742.74
-7742.7
-7742.67
-7742.66
-7742.66
-7742.68
-7742.7
-7742.73
-7742.77
-7742.8
-7742.83
-7742.86
-7742.88
-7742.88
-7742.88
-7742.88
-7742.86
-7742.85
-7742.83
-7742.82
-7742.8
-7742.8
-8094.31
-8094.28
-8094.22
-8094.13
-8094
-8093.89
-8093.66
-8093.62
-8091.94
-8091.97
-8092.17
-8092.24
-8092.31
-8092.34
-8092.32
-8092.26
-8092.16
-8092.01
-8091.84
-8091.63
-8091.39
-8091.13
-8090.84
-8090.52
-8090.18
-8089.82
-8089.45
-8089.06
-8088.65
-8088.24
-8087.82
-8087.4
-8086.98
-8086.56
-8086.16
-8085.76
-8085.38
-8085.03
-8084.69
-8084.39
-8084.12
-8083.88
-8083.69
-8083.53
-8083.42
-8083.36
-8083.35
-8083.39
-8083.48
-8083.62
-8083.8
-8084.04
-8084.33
-8084.65
-8085.02
-8085.42
-8085.85
-8086.3
-8086.77
-8087.25
-8087.74
-8088.21
-8088.68
-8089.12
-8089.53
-8089.9
-8090.23
-8090.5
-8090.72
-8090.87
-8090.96
-8090.98
-8090.92
-8090.79
-8090.6
-8090.34
-8090.02
-8089.65
-8089.23
-8088.78
-8088.3
-8087.82
-8087.33
-8086.86
-8086.42
-8086.02
-8085.68
-8085.39
-8085.18
-8085.05
-8085
-8085.04
-8085.16
-8085.36
-8085.63
-8085.97
-8086.35
-8086.77
-8087.21
-8087.65
-8088.08
-8088.47
-8088.81
-8089.08
-8089.28
-8089.39
-8089.42
-8089.35
-8089.21
-8088.99
-8088.7
-8088.37
-8088.01
-8087.65
-8087.3
-8086.99
-8086.73
-8086.53
-8086.42
-8086.38
-8086.43
-8086.56
-8086.75
-8086.99
-8087.26
-8087.53
-8087.79
-8088.01
-8088.18
-8088.28
-8088.31
-8088.27
-8088.17
-8088.02
-8087.83
-8087.63
-8087.44
-8087.27
-8087.13
-8087.05
-8087.01
-8087.03
-8087.1
-8087.2
-8087.33
-8087.47
-8087.62
-8087.75
-8087.86
-8087.94
-8087.99
-8088.01
-8087.99
-8087.95
-8087.88
-8087.8
-8087.72
-8087.63
-8087.56
-8087.5
-8087.45
-8087.42
-8087.41
-8087.41
-8087.43
-8087.46
-8087.5
-8087.53
-8087.57
-8087.61
-8087.63
-8087.65
-8087.66
-8087.66
-8087.65
-8087.64
-8087.62
-8087.6
-8087.58
-8087.57
-8087.56
-8400.89
-8400.88
-8400.86
-8400.84
-8400.82
-8400.82
-8400.75
-8400.83
-8398.79
-8398.68
-8398.73
-8398.69
-8398.64
-8398.57
-8398.48
-8398.36
-8398.22
-8398.04
-8397.82
-8397.58
-8397.3
-8396.99
-8396.65
-8396.29
-8395.9
-8395.49
-8395.07
-8394.62
-8394.16
-8393.69
-8393.22
-8392.74
-8392.26
-8391.79
-8391.33
-8390.89
-8390.46
-8390.06
-8389.69
-8389.35
-8389.04
-8388.78
-8388.56
-8388.39
-8388.27
-8388.21
-8388.2
-8388.25
-8388.35
-8388.52
-8388.73
-8389.01
-8389.33
-8389.71
-8390.12
-8390.58
-8391.07
-8391.59
-8392.12
-8392.67
-8393.21
-8393.75
-8394.28
-8394.77
-8395.24
-8395.66
-8396.02
-8396.33
-8396.57
-8396.74
-8396.83
-8396.85
-8396.78
-8396.63
-8396.41
-8396.11
-8395.74
-8395.31
-8394.84
-8394.32
-8393.78
-8393.23
-8392.69
-8392.16
-8391.66
-8391.21
-8390.82
-8390.51
-8390.27
-8390.13
-8390.08
-8390.13
-8390.27
-8390.5
-8390.82
-8391.2
-8391.64
-8392.12
-8392.62
-8393.12
-8393.6
-8394.04
-8394.42
-8394.73
-8394.94
-8395.07
-8395.09
-8395.01
-8394.84
-8394.58
-8394.25
-8393.88
-8393.47
-8393.05
-8392.66
-8392.31
-8392.01
-8391.8
-8391.67
-8391.64
-8391.71
-8391.86
-8392.08
-8392.35
-8392.66
-8392.98
-8393.27
-8393.51
-8393.7
-8393.81
-8393.84
-8393.79
-8393.67
-8393.5
-8393.29
-8393.06
-8392.84
-8392.65
-8392.5
-8392.4
-8392.37
-8392.39
-8392.47
-8392.58
-8392.73
-8392.89
-8393.05
-8393.2
-8393.32
-8393.41
-8393.46
-8393.47
-8393.45
-8393.4
-8393.33
-8393.24
-8393.15
-8393.06
-8392.97
-8392.91
-8392.85
-8392.82
-8392.81
-8392.82
-8392.84
-8392.87
-8392.91
-8392.96
-8393
-8393.03
-8393.06
-8393.08
-8393.09
-8393.09
-8393.08
-8393.06
-8393.04
-8393.02
-8393
-8392.99
-8392.98
-8672.52
-8672.51
-8672.51
-8672.5
-8672.48
-8672.48
-8672.44
-8672.48
-8670.1
-8670.02
-8670.06
-8670.02
-8669.96
-8669.87
-8669.75
-8669.6
-8669.42
-8669.2
-8668.95
-8668.66
-8668.34
-8667.99
-8667.61
-8667.2
-8666.76
-8666.3
-8665.82
-8665.32
-8664.81
-8664.28
-8663.75
-8663.22
-8662.69
-8662.16
-8661.65
-8661.16
-8660.68
-8660.24
-8659.82
-8659.44
-8659.11
-8658.82
-8658.58
-8658.39
-8658.27
-8658.2
-8658.19
-8658.25
-8658.37
-8658.56
-8658.81
-8659.12
-8659.49
-8659.91
-8660.38
-8660.89
-8661.44
-8662.02
-8662.62
-8663.22
-8663.84
-8664.44
-8665.02
-8665.58
-8666.09
-8666.56
-8666.96
-8667.3
-8667.57
-8667.75
-8667.85
-8667.86
-8667.78
-8667.61
-8667.35
-8667.01
-8666.6
-8666.12
-8665.58
-8665.01
-8664.4
-8663.79
-8663.18
-8662.59
-8662.04
-8661.54
-8661.11
-8660.76
-8660.5
-8660.35
-8660.3
-8660.36
-8660.53
-8660.79
-8661.15
-8661.58
-8662.08
-8662.61
-8663.17
-8663.73
-8664.26
-8664.75
-8665.17
-8665.51
-8665.75
-8665.88
-8665.9
-8665.81
-8665.61
-8665.31
-8664.94
-8664.52
-8664.06
-8663.6
-8663.16
-8662.76
-8662.44
-8662.2
-8662.07
-8662.04
-8662.12
-8662.29
-8662.54
-8662.86
-8663.2
-8663.56
-8663.88
-8664.16
-8664.37
-8664.49
-8664.52
-8664.46
-8664.32
-8664.12
-8663.88
-8663.62
-8663.38
-8663.17
-8663
-8662.9
-8662.86
-8662.89
-8662.98
-8663.11
-8663.27
-8663.45
-8663.63
-8663.78
-8663.91
-8664.01
-8664.06
-8664.07
-8664.05
-8663.99
-8663.91
-8663.82
-8663.71
-8663.62
-8663.53
-8663.46
-8663.4
-8663.37
-8663.36
-8663.37
-8663.39
-8663.43
-8663.47
-8663.52
-8663.57
-8663.6
-8663.63
-8663.65
-8663.66
-8663.66
-8663.65
-8663.63
-8663.61
-8663.59
-8663.57
-8663.55
-8663.54
-8913.16
-8913.16
-8913.16
-8913.15
-8913.15
-8913.15
-8913.13
-8913.15
-8910.6
-8910.52
-8910.52
-8910.46
-8910.37
-8910.26
-8910.11
-8909.93
-8909.71
-8909.46
-8909.18
-8908.85
-8908.49
-8908.1
-8907.67
-8907.22
-8906.73
-8906.22
-8905.69
-8905.14
-8904.57
-8903.99
-8903.4
-8902.82
-8902.23
-8901.65
-8901.09
-8900.54
-8900.02
-8899.53
-8899.08
-8898.67
-8898.3
-8897.98
-8897.72
-8897.53
-8897.39
-8897.32
-8897.32
-8897.39
-8897.52
-8897.73
-8898.01
-8898.36
-8898.77
-8899.24
-8899.76
-8900.33
-8900.93
-8901.57
-8902.23
-8902.91
-8903.58
-8904.24
-8904.89
-8905.49
-8906.06
-8906.57
-8907.02
-8907.39
-8907.67
-8907.87
-8907.97
-8907.98
-8907.88
-8907.69
-8907.4
-8907.02
-8906.56
-8906.03
-8905.44
-8904.8
-8904.14
-8903.46
-8902.78
-8902.13
-8901.53
-8900.98
-8900.51
-8900.13
-8899.86
-8899.69
-8899.65
-8899.72
-8899.91
-8900.21
-8900.6
-8901.09
-8901.64
-8902.23
-8902.85
-8903.46
-8904.05
-8904.59
-8905.05
-8905.41
-8905.67
-8905.81
-8905.82
-8905.71
-8905.49
-8905.16
-8904.75
-8904.27
-8903.77
-8903.25
-8902.77
-8902.34
-8901.98
-8901.73
-8901.59
-8901.56
-8901.65
-8901.85
-8902.13
-8902.48
-8902.86
-8903.26
-8903.62
-8903.92
-8904.15
-8904.28
-8904.31
-8904.23
-8904.08
-8903.85
-8903.59
-8903.3
-8903.04
-8902.8
-8902.62
-8902.51
-8902.48
-8902.51
-8902.61
-8902.76
-8902.93
-8903.13
-8903.32
-8903.49
-8903.63
-8903.73
-8903.78
-8903.79
-8903.76
-8903.7
-8903.61
-8903.51
-8903.4
-8903.29
-8903.2
-8903.12
-8903.07
-8903.04
-8903.03
-8903.04
-8903.07
-8903.11
-8903.15
-8903.2
-8903.25
-8903.29
-8903.32
-8903.34
-8903.35
-8903.35
-8903.34
-8903.32
-8903.29
-8903.27
-8903.25
-8903.23
-8903.22
-9126.35
-9126.35
-9126.35
-9126.35
-9126.35
-9126.35
-9126.33
-9126.35
-9123.68
-9123.6
-9123.58
-9123.5
-9123.39
-9123.26
-9123.09
-9122.88
-9122.63
-9122.35
-9122.03
-9121.67
-9121.27
-9120.84
-9120.37
-9119.87
-9119.34
-9118.78
-9118.2
-9117.59
-9116.97
-9116.34
-9115.7
-9115.06
-9114.42
-9113.79
-9113.18
-9112.59
-9112.02
-9111.49
-9110.99
-9110.55
-9110.15
-9109.81
-9109.53
-9109.32
-9109.17
-9109.1
-9109.1
-9109.18
-9109.34
-9109.57
-9109.88
-9110.26
-9110.71
-9111.22
-9111.79
-9112.42
-9113.08
-9113.78
-9114.5
-9115.24
-9115.97
-9116.69
-9117.39
-9118.06
-9118.67
-9119.22
-9119.7
-9120.1
-9120.41
-9120.62
-9120.73
-9120.73
-9120.62
-9120.41
-9120.09
-9119.67
-9119.17
-9118.58
-9117.93
-9117.24
-9116.51
-9115.77
-9115.03
-9114.33
-9113.67
-9113.08
-9112.57
-9112.16
-9111.86
-9111.69
-9111.64
-9111.73
-9111.94
-9112.27
-9112.71
-9113.24
-9113.84
-9114.5
-9115.17
-9115.84
-9116.48
-9117.06
-9117.56
-9117.96
-9118.23
-9118.38
-9118.39
-9118.26
-9118.01
-9117.64
-9117.19
-9116.67
-9116.12
-9115.55
-9115.03
-9114.56
-9114.18
-9113.9
-9113.75
-9113.73
-9113.83
-9114.05
-9114.37
-9114.75
-9115.17
-9115.61
-9116
-9116.33
-9116.57
-9116.71
-9116.74
-9116.65
-9116.48
-9116.23
-9115.94
-9115.63
-9115.34
-9115.08
-9114.89
-9114.78
-9114.74
-9114.78
-9114.89
-9115.05
-9115.24
-9115.45
-9115.66
-9115.84
-9115.99
-9116.09
-9116.15
-9116.16
-9116.12
-9116.05
-9115.96
-9115.85
-9115.73
-9115.62
-9115.52
-9115.44
-9115.38
-9115.35
-9115.34
-9115.35
-9115.38
-9115.43
-9115.48
-9115.53
-9115.58
-9115.62
-9115.66
-9115.68
-9115.69
-9115.68
-9115.67
-9115.65
-9115.62
-9115.6
-9115.57
-9115.55
-9115.54
-9315.21
-9315.21
-9315.21
-9315.21
-9315.21
-9315.21
-9315.2
-9315.21
-9312.47
-9312.38
-9312.35
-9312.26
-9312.14
-9311.98
-9311.79
-9311.56
-9311.29
-9310.98
-9310.62
-9310.23
-9309.8
-9309.33
-9308.82
-9308.27
-9307.7
-9307.09
-9306.46
-9305.81
-9305.14
-9304.45
-9303.76
-9303.07
-9302.38
-9301.7
-9301.04
-9300.4
-9299.79
-9299.22
-9298.69
-9298.21
-9297.78
-9297.42
-9297.12
-9296.89
-9296.74
-9296.67
-9296.67
-9296.76
-9296.93
-9297.19
-9297.53
-9297.94
-9298.43
-9298.99
-9299.61
-9300.28
-9301
-9301.76
-9302.54
-9303.33
-9304.13
-9304.91
-9305.66
-9306.37
-9307.03
-9307.63
-9308.15
-9308.57
-9308.9
-9309.13
-9309.24
-9309.23
-9309.11
-9308.87
-9308.52
-9308.07
-9307.52
-9306.89
-9306.18
-9305.43
-9304.64
-9303.84
-9303.05
-9302.29
-9301.58
-9300.94
-9300.4
-9299.96
-9299.65
-9299.46
-9299.42
-9299.52
-9299.75
-9300.11
-9300.59
-9301.17
-9301.82
-9302.53
-9303.26
-9303.98
-9304.67
-9305.3
-9305.83
-9306.26
-9306.55
-9306.7
-9306.71
-9306.56
-9306.28
-9305.88
-9305.39
-9304.82
-9304.23
-9303.62
-9303.05
-9302.55
-9302.14
-9301.84
-9301.69
-9301.67
-9301.79
-9302.03
-9302.38
-9302.8
-9303.25
-9303.73
-9304.15
-9304.5
-9304.76
-9304.91
-9304.93
-9304.84
-9304.64
-9304.37
-9304.05
-9303.72
-9303.4
-9303.13
-9302.93
-9302.81
-9302.77
-9302.82
-9302.93
-9303.11
-9303.32
-9303.54
-9303.76
-9303.95
-9304.11
-9304.22
-9304.27
-9304.28
-9304.24
-9304.17
-9304.07
-9303.95
-9303.82
-9303.71
-9303.6
-9303.52
-9303.46
-9303.42
-9303.42
-9303.43
-9303.46
-9303.51
-9303.56
-9303.62
-9303.67
-9303.72
-9303.75
-9303.78
-9303.78
-9303.78
-9303.77
-9303.74
-9303.72
-9303.69
-9303.66
-9303.64
-9303.63
-9482.52
-9482.52
-9482.52
-9482.52
-9482.51
-9482.52
-9482.51
-9482.52
-9479.73
-9479.65
-9479.6
-9479.5
-9479.37
-9479.2
-9478.99