# Probe 0 (-0.2 -0.2 0)
# Probe 1 (0 0 0)
# Probe 2 (0.2 0.2 0)
# Time            0                 1                 2                
1                 300.0000102       300.0000102       300.0000102      
