# Probe 0 (-0.2 -0.2 0)
# Probe 1 (0 0 0)
# Probe 2 (0.2 0.2 0)
# Time            0                 1                 2                
1                 (8.629423898 3.370488911e-09 0) (8.629423898 3.370488911e-09 0) (8.629423898 3.370488911e-09 0)
