/*--------------------------------*- C++ -*----------------------------------*\
  =========                 |
  \\      /  F ield         | OpenFOAM: The Open Source CFD Toolbox
   \\    /   O peration     | Website:  https://openfoam.org
    \\  /    A nd           | Version:  12
     \\/     M anipulation  |
\*---------------------------------------------------------------------------*/
FoamFile
{
    format      ascii;
    class       volScalarField;
    location    "7.5";
    object      p;
}
// * * * * * * * * * * * * * * * * * * * * * * * * * * * * * * * * * * * * * //

dimensions      [0 2 -2 0 0 0 0];

internalField   nonuniform List<scalar> 
400
(
7.92401e-08
-0.000103899
-0.000244445
-0.000158033
-0.000968225
-0.00276454
-0.00485586
-0.00674887
-0.00828751
-0.00936808
-0.00993542
-0.00993635
-0.00932698
-0.00788911
-0.00548956
-0.00210047
0.00214381
0.00666503
0.00990645
0.0112801
4.87393e-05
-4.1644e-05
-0.000217524
-0.00085473
-0.00216196
-0.00402423
-0.00591294
-0.0076832
-0.00909001
-0.0100955
-0.0106496
-0.0107186
-0.0102254
-0.00904283
-0.00702527
-0.004124
-0.000346953
0.00397376
0.00766828
0.00976346
0.000287494
-0.000124768
-0.000895705
-0.00224069
-0.00408786
-0.00602402
-0.00786441
-0.00947908
-0.0106511
-0.0114449
-0.0118723
-0.0118988
-0.0114287
-0.0104243
-0.00882009
-0.00657856
-0.00361446
7.79868e-05
0.00373118
0.00616819
0.000113253
-0.000651463
-0.00209414
-0.00412588
-0.00631442
-0.00828724
-0.00988282
-0.0110244
-0.0118169
-0.0123516
-0.0126341
-0.0126407
-0.0122986
-0.0115313
-0.01029
-0.00858851
-0.00639691
-0.00351914
-0.000398232
0.00189242
-0.000796644
-0.00184235
-0.00379288
-0.00615383
-0.00829945
-0.00997252
-0.0111676
-0.0120017
-0.0126006
-0.0130151
-0.0132529
-0.0132858
-0.0130531
-0.012492
-0.0115451
-0.0102201
-0.00860847
-0.00646469
-0.00414547
-0.00208233
-0.00241667
-0.00356684
-0.0056271
-0.00789032
-0.00975324
-0.0110337
-0.0119192
-0.0125898
-0.0131068
-0.013481
-0.0137142
-0.0137824
-0.0136454
-0.0132556
-0.0125711
-0.0115366
-0.0103391
-0.00875451
-0.00710282
-0.00538857
-0.0042671
-0.00535041
-0.00722843
-0.00922776
-0.0107413
-0.0117121
-0.012442
-0.013033
-0.0135056
-0.0138542
-0.014081
-0.0141684
-0.0140933
-0.0138169
-0.0133394
-0.0125391
-0.0116494
-0.0104723
-0.00932694
-0.00794909
-0.00589655
-0.00684818
-0.00845172
-0.0101599
-0.0113829
-0.0121734
-0.0128356
-0.0133967
-0.0138475
-0.0141776
-0.0143915
-0.0144833
-0.0144428
-0.0142346
-0.0138989
-0.0132622
-0.012605
-0.011683
-0.0108993
-0.00983192
-0.00706347
-0.0078842
-0.00925393
-0.010749
-0.0117842
-0.0124952
-0.0131477
-0.0137067
-0.0141522
-0.0144717
-0.0146695
-0.0147479
-0.0147197
-0.0145395
-0.014291
-0.0137318
-0.0132776
-0.0124378
-0.011989
-0.0111149
-0.00771122
-0.00842491
-0.00965517
-0.0110331
-0.0119987
-0.0126936
-0.0133666
-0.0139464
-0.0144085
-0.0147311
-0.0149199
-0.0149752
-0.0149361
-0.0147436
-0.0145385
-0.0139622
-0.0137101
-0.0127685
-0.0126672
-0.0118476
-0.00783921
-0.0084939
-0.00967919
-0.0110318
-0.0120173
-0.0127658
-0.0134684
-0.0140856
-0.0145866
-0.0149245
-0.015114
-0.015141
-0.0150743
-0.014833
-0.0146282
-0.0139869
-0.0138592
-0.0127153
-0.0129711
-0.0120074
-0.00749351
-0.00814887
-0.00934595
-0.0107456
-0.011813
-0.0126425
-0.0133991
-0.0140693
-0.0146129
-0.0149875
-0.0151889
-0.0152026
-0.0150833
-0.0148051
-0.014499
-0.0138489
-0.0135955
-0.0123246
-0.0128
-0.0115748
-0.00676959
-0.00746235
-0.00868706
-0.0101589
-0.0113487
-0.0122806
-0.0131091
-0.0138417
-0.0144432
-0.014864
-0.0150865
-0.0150867
-0.0149176
-0.0145765
-0.0141306
-0.0134515
-0.0129266
-0.0115943
-0.0121143
-0.010535
-0.00587924
-0.00659012
-0.00779215
-0.00925238
-0.0105751
-0.0116351
-0.0125599
-0.013371
-0.014043
-0.014513
-0.0147585
-0.0147512
-0.0145261
-0.0140966
-0.0135022
-0.0127174
-0.0118802
-0.0104997
-0.0109228
-0.00892403
-0.00500742
-0.00569538
-0.00676178
-0.0080657
-0.00945962
-0.0106765
-0.0117399
-0.0126568
-0.0134101
-0.013933
-0.014203
-0.0141941
-0.0139122
-0.0133728
-0.0126134
-0.0116422
-0.0105028
-0.00904922
-0.00929718
-0.0068028
-0.0045748
-0.00493595
-0.00561995
-0.00664363
-0.00800375
-0.00938604
-0.0106484
-0.0117214
-0.0125874
-0.0131874
-0.0134901
-0.0134665
-0.013126
-0.0124606
-0.0115098
-0.0102995
-0.00889384
-0.00731438
-0.00727967
-0.00420609
-0.00461381
-0.00447803
-0.00442172
-0.00502843
-0.00628155
-0.00778408
-0.00927667
-0.0105616
-0.011588
-0.0123074
-0.0126871
-0.0126875
-0.012285
-0.0114801
-0.0103189
-0.00883358
-0.00713167
-0.00537661
-0.00491473
-0.000998863
-0.00452846
-0.00389494
-0.00313241
-0.00332057
-0.0044518
-0.0060315
-0.00770451
-0.00918853
-0.0103966
-0.0112511
-0.0117114
-0.0117377
-0.0113148
-0.0104345
-0.00911567
-0.00738425
-0.00539664
-0.00329559
-0.00177514
0.0042767
-0.00396253
-0.00301632
-0.00193115
-0.00192882
-0.00295084
-0.00457378
-0.00637161
-0.00804773
-0.00941817
-0.0104134
-0.0109686
-0.0110646
-0.0106594
-0.0097433
-0.00832587
-0.00641053
-0.00401606
-0.000857038
0.00439186
0.0171921
-0.00521081
-0.00206096
-0.000849385
-0.000963829
-0.00191685
-0.00355987
-0.00544152
-0.00728826
-0.00880586
-0.00991947
-0.0105615
-0.0107274
-0.0103822
-0.00952078
-0.00808214
-0.0059702
-0.00238936
0.00462676
0.0187486
0.0416578
)
;

boundaryField
{
    movingWall
    {
        type            zeroGradient;
    }
    fixedWalls
    {
        type            zeroGradient;
    }
    frontAndBack
    {
        type            empty;
    }
}


// ************************************************************************* //
