/*--------------------------------*- C++ -*----------------------------------*\
  =========                 |
  \\      /  F ield         | OpenFOAM: The Open Source CFD Toolbox
   \\    /   O peration     | Website:  https://openfoam.org
    \\  /    A nd           | Version:  12
     \\/     M anipulation  |
\*---------------------------------------------------------------------------*/
FoamFile
{
    format      ascii;
    class       surfaceScalarField;
    location    "7.5";
    object      phi;
}
// * * * * * * * * * * * * * * * * * * * * * * * * * * * * * * * * * * * * * //

dimensions      [0 3 -1 0 0 0 0];

internalField   nonuniform List<scalar> 
760
(
2.75499e-07
-2.75507e-07
1.25213e-07
1.50286e-07
-6.6121e-07
7.86423e-07
-2.249e-06
1.58779e-06
-4.01375e-06
1.76476e-06
-5.48786e-06
1.47411e-06
-6.73233e-06
1.24447e-06
-7.61581e-06
8.83478e-07
-8.31314e-06
6.9733e-07
-8.76501e-06
4.51866e-07
-9.08186e-06
3.16856e-07
-9.17594e-06
9.4079e-08
-9.11094e-06
-6.50033e-08
-8.80869e-06
-3.02252e-07
-8.29763e-06
-5.11057e-07
-7.39351e-06
-9.04119e-07
-6.05187e-06
-1.34164e-06
-4.07695e-06
-1.97492e-06
-1.72492e-06
-2.35203e-06
-1.72492e-06
-3.33722e-07
5.82148e-08
-1.37128e-06
1.18784e-06
-3.0654e-06
2.48055e-06
-4.66366e-06
3.18605e-06
-5.81719e-06
2.91828e-06
-6.87623e-06
2.53315e-06
-7.62824e-06
1.99648e-06
-8.28696e-06
1.54219e-06
-8.70985e-06
1.12022e-06
-8.99471e-06
7.36731e-07
-9.08046e-06
4.02603e-07
-9.02399e-06
3.76083e-08
-8.83521e-06
-2.53781e-07
-8.52884e-06
-6.08623e-07
-7.99948e-06
-1.04041e-06
-7.27872e-06
-1.62489e-06
-6.1769e-06
-2.44347e-06
-4.58609e-06
-3.56573e-06
-2.36384e-06
-4.57428e-06
-4.08876e-06
-1.04528e-06
1.10349e-06
-2.59959e-06
2.74216e-06
-4.05427e-06
3.93522e-06
-5.125e-06
4.25678e-06
-5.95075e-06
3.74404e-06
-6.56723e-06
3.14962e-06
-6.90539e-06
2.33464e-06
-7.09441e-06
1.73121e-06
-7.06844e-06
1.09425e-06
-7.01408e-06
6.8237e-07
-6.90391e-06
2.92434e-07
-6.85645e-06
-9.84804e-09
-6.67695e-06
-4.33291e-07
-6.4205e-06
-8.65066e-07
-6.01541e-06
-1.44551e-06
-5.48798e-06
-2.15231e-06
-4.82956e-06
-3.1019e-06
-3.85346e-06
-4.54183e-06
-2.26998e-06
-6.15775e-06
-6.35874e-06
-1.36583e-06
2.46932e-06
-2.88369e-06
4.26002e-06
-4.03172e-06
5.08325e-06
-4.74033e-06
4.96538e-06
-5.13667e-06
4.14038e-06
-5.17481e-06
3.18777e-06
-5.05596e-06
2.21579e-06
-4.94691e-06
1.62217e-06
-4.92314e-06
1.07047e-06
-4.94491e-06
7.04147e-07
-4.95135e-06
2.98869e-07
-4.91279e-06
-4.84075e-08
-4.83165e-06
-5.14431e-07
-4.66963e-06
-1.02708e-06
-4.37741e-06
-1.73773e-06
-3.95415e-06
-2.57557e-06
-3.44663e-06
-3.60942e-06
-2.79114e-06
-5.19731e-06
-1.75397e-06
-7.19492e-06
-8.11271e-06
-1.35802e-06
3.82735e-06
-2.55894e-06
5.46094e-06
-3.31841e-06
5.84271e-06
-3.68344e-06
5.33041e-06
-3.68981e-06
4.14675e-06
-3.53877e-06
3.03673e-06
-3.43519e-06
2.11222e-06
-3.42065e-06
1.60763e-06
-3.45554e-06
1.10536e-06
-3.52028e-06
7.68886e-07
-3.56599e-06
3.44573e-07
-3.57712e-06
-3.72729e-08
-3.52099e-06
-5.70565e-07
-3.40395e-06
-1.14412e-06
-3.22795e-06
-1.91372e-06
-2.90296e-06
-2.90056e-06
-2.51539e-06
-3.99699e-06
-2.1189e-06
-5.5938e-06
-1.36628e-06
-7.94754e-06
-9.47899e-06
-1.08374e-06
4.91109e-06
-1.90695e-06
6.28415e-06
-2.41488e-06
6.35064e-06
-2.58232e-06
5.49786e-06
-2.51491e-06
4.07934e-06
-2.38903e-06
2.91085e-06
-2.39782e-06
2.12101e-06
-2.44843e-06
1.65823e-06
-2.51625e-06
1.17318e-06
-2.56342e-06
8.16054e-07
-2.58987e-06
3.71023e-07
-2.58019e-06
-4.69496e-08
-2.54047e-06
-6.10289e-07
-2.43736e-06
-1.24723e-06
-2.29081e-06
-2.06027e-06
-2.05011e-06
-3.14127e-06
-1.71402e-06
-4.33308e-06
-1.3817e-06
-5.92612e-06
-1.0313e-06
-8.29794e-06
-1.05103e-05
-7.34681e-07
5.64577e-06
-1.29123e-06
6.8407e-06
-1.62726e-06
6.68667e-06
-1.69521e-06
5.56581e-06
-1.64319e-06
4.02731e-06
-1.64535e-06
2.91301e-06
-1.74835e-06
2.22401e-06
-1.83355e-06
1.74343e-06
-1.89864e-06
1.23827e-06
-1.91177e-06
8.29183e-07
-1.89997e-06
3.59222e-07
-1.86157e-06
-8.53527e-08
-1.81957e-06
-6.52284e-07
-1.73605e-06
-1.33074e-06
-1.6186e-06
-2.17772e-06
-1.46218e-06
-3.29769e-06
-1.22889e-06
-4.56637e-06
-9.89259e-07
-6.16575e-06
-7.53065e-07
-8.53414e-06
-1.12634e-05
-4.10986e-07
6.05675e-06
-7.46158e-07
7.17587e-06
-9.43115e-07
6.88363e-06
-1.01857e-06
5.64127e-06
-1.0324e-06
4.04114e-06
-1.13047e-06
3.01109e-06
-1.28019e-06
2.37374e-06
-1.38346e-06
1.8467e-06
-1.44386e-06
1.29867e-06
-1.43744e-06
8.22763e-07
-1.39787e-06
3.19647e-07
-1.32612e-06
-1.57097e-07
-1.26838e-06
-7.10027e-07
-1.1888e-06
-1.41032e-06
-1.07597e-06
-2.29055e-06
-9.58319e-07
-3.41534e-06
-7.72813e-07
-4.75187e-06
-6.14602e-07
-6.32396e-06
-5.55499e-07
-8.59324e-06
-1.18189e-05
-1.4304e-07
6.19979e-06
-3.1452e-07
7.34735e-06
-4.22644e-07
6.99175e-06
-4.7727e-07
5.69589e-06
-5.49295e-07
4.11316e-06
-6.96632e-07
3.15843e-06
-8.60789e-07
2.53789e-06
-9.81532e-07
1.96745e-06
-1.05333e-06
1.37047e-06
-1.05462e-06
8.24052e-07
-1.01586e-06
2.80886e-07
-9.30326e-07
-2.42628e-07
-8.46494e-07
-7.9386e-07
-7.72492e-07
-1.48432e-06
-6.82266e-07
-2.38078e-06
-5.96962e-07
-3.50065e-06
-5.20247e-07
-4.82859e-06
-4.31975e-07
-6.41223e-06
-3.93053e-07
-8.63216e-06
-1.22119e-05
9.47589e-08
6.10503e-06
7.8476e-08
7.36364e-06
5.27792e-08
7.01745e-06
3.2234e-08
5.71644e-06
-8.91959e-08
4.23459e-06
-2.69052e-07
3.33828e-06
-4.28795e-07
2.69764e-06
-5.48732e-07
2.08738e-06
-6.30193e-07
1.45193e-06
-6.50753e-07
8.44611e-07
-6.25936e-07
2.56069e-07
-5.52472e-07
-3.16092e-07
-4.56719e-07
-8.89613e-07
-3.84979e-07
-1.55606e-06
-3.06891e-07
-2.45887e-06
-2.62402e-07
-3.54513e-06
-2.07743e-07
-4.88324e-06
-2.06388e-07
-6.41358e-06
-3.08753e-07
-8.5298e-06
-1.25207e-05
3.28205e-07
5.77683e-06
4.65292e-07
7.22655e-06
5.27575e-07
6.95517e-06
4.63945e-07
5.78007e-06
3.5004e-07
4.3485e-06
2.07358e-07
3.48096e-06
8.02535e-08
2.82474e-06
-2.51666e-08
2.1928e-06
-1.08503e-07
1.53527e-06
-1.60939e-07
8.97047e-07
-1.65854e-07
2.60984e-07
-1.37185e-07
-3.4476e-07
-5.40326e-08
-9.72765e-07
-2.4068e-08
-1.58602e-06
6.1209e-08
-2.54415e-06
-2.25555e-08
-3.46137e-06
3.7788e-08
-4.94359e-06
-1.00509e-07
-6.27529e-06
-2.13603e-07
-8.41671e-06
-1.27343e-05
5.22195e-07
5.25464e-06
8.49268e-07
6.89948e-06
1.02727e-06
6.77716e-06
9.64819e-07
5.84252e-06
8.56711e-07
4.4566e-06
7.62901e-07
3.57477e-06
6.8435e-07
2.90329e-06
6.11593e-07
2.26556e-06
5.35941e-07
1.61092e-06
4.74483e-07
9.58505e-07
4.37418e-07
2.98049e-07
4.23965e-07
-3.31308e-07
4.25686e-07
-9.74486e-07
4.60543e-07
-1.62088e-06
4.27939e-07
-2.51154e-06
3.77981e-07
-3.41141e-06
2.81776e-07
-4.84738e-06
4.45316e-08
-6.03804e-06
-1.42429e-07
-8.22974e-06
-1.28767e-05
7.67955e-07
4.48668e-06
1.20434e-06
6.46309e-06
1.47725e-06
6.50426e-06
1.48963e-06
5.83014e-06
1.41886e-06
4.52738e-06
1.38681e-06
3.60682e-06
1.37378e-06
2.91632e-06
1.35262e-06
2.28672e-06
1.31289e-06
1.65065e-06
1.25733e-06
1.01407e-06
1.18504e-06
3.70335e-07
1.11893e-06
-2.65191e-07
1.0444e-06
-8.99956e-07
1.00424e-06
-1.58073e-06
8.75494e-07
-2.38279e-06
7.65138e-07
-3.30106e-06
5.21865e-07
-4.60411e-06
2.11567e-07
-5.72775e-06
-8.05234e-10
-8.01737e-06
-1.28775e-05
9.83429e-07
3.50325e-06
1.60407e-06
5.84245e-06
1.97605e-06
6.13228e-06
2.11518e-06
5.69101e-06
2.05873e-06
4.58382e-06
2.06291e-06
3.60264e-06
2.10536e-06
2.87387e-06
2.14627e-06
2.24582e-06
2.15579e-06
1.64113e-06
2.12723e-06
1.04263e-06
2.04996e-06
4.4761e-07
1.94669e-06
-1.61928e-07
1.81494e-06
-7.68205e-07
1.6813e-06
-1.44709e-06
1.47562e-06
-2.1771e-06
1.27305e-06
-3.09849e-06
9.0393e-07
-4.23499e-06
4.79076e-07
-5.30289e-06
1.12606e-07
-7.6509e-06
-1.27649e-05
1.17015e-06
2.3331e-06
1.89099e-06
5.12161e-06
2.38659e-06
5.63668e-06
2.70289e-06
5.37471e-06
2.78793e-06
4.49878e-06
2.8501e-06
3.54048e-06
2.92906e-06
2.79491e-06
3.01178e-06
2.1631e-06
3.05536e-06
1.59754e-06
3.05747e-06
1.04052e-06
2.99657e-06
5.08508e-07
2.87423e-06
-3.95867e-08
2.69231e-06
-5.86293e-07
2.46652e-06
-1.2213e-06
2.17493e-06
-1.88551e-06
1.83569e-06
-2.75924e-06
1.30768e-06
-3.70699e-06
6.90628e-07
-4.68584e-06
2.62027e-07
-7.2223e-06
-1.25029e-05
1.25699e-06
1.07611e-06
2.05982e-06
4.31878e-06
2.68104e-06
5.01545e-06
3.22594e-06
4.82981e-06
3.51677e-06
4.20795e-06
3.67892e-06
3.37832e-06
3.81614e-06
2.65769e-06
3.93534e-06
2.0439e-06
4.00504e-06
1.52784e-06
4.02529e-06
1.02028e-06
3.96581e-06
5.67987e-07
3.85793e-06
6.82964e-08
3.64108e-06
-3.69443e-07
3.36348e-06
-9.43707e-07
2.98745e-06
-1.50948e-06
2.50584e-06
-2.27763e-06
1.83216e-06
-3.03331e-06
1.05612e-06
-3.9098e-06
4.98084e-07
-6.66426e-06
-1.20048e-05
7.78598e-07
2.97511e-07
1.81245e-06
3.28493e-06
2.77394e-06
4.05396e-06
3.58434e-06
4.01941e-06
4.17461e-06
3.61768e-06
4.56282e-06
2.99011e-06
4.82463e-06
2.39588e-06
5.01983e-06
1.84869e-06
5.13527e-06
1.41241e-06
5.19251e-06
9.63035e-07
5.15036e-06
6.10136e-07
5.01353e-06
2.05124e-07
4.77214e-06
-1.28053e-07
4.43827e-06
-6.09836e-07
3.93865e-06
-1.00987e-06
3.27477e-06
-1.61374e-06
2.37321e-06
-2.13175e-06
1.41197e-06
-2.94856e-06
8.18656e-07
-6.07095e-06
-1.11861e-05
-1.8186e-07
4.79372e-07
1.13321e-06
1.96987e-06
2.36373e-06
2.82344e-06
3.49971e-06
2.88343e-06
4.42712e-06
2.69027e-06
5.15201e-06
2.26523e-06
5.66146e-06
1.88643e-06
6.05169e-06
1.45847e-06
6.27845e-06
1.18564e-06
6.40363e-06
8.37854e-07
6.37785e-06
6.35914e-07
6.26543e-06
3.17546e-07
5.99322e-06
1.44162e-07
5.57426e-06
-1.90881e-07
4.94926e-06
-3.84867e-07
4.13084e-06
-7.95329e-07
3.01485e-06
-1.01576e-06
2.08243e-06
-2.01613e-06
1.37993e-06
-5.36845e-06
-9.80619e-06
-1.1432e-06
1.62258e-06
-1.34049e-07
9.60713e-07
1.38292e-06
1.30647e-06
2.84733e-06
1.41901e-06
4.09687e-06
1.44073e-06
5.1048e-06
1.2573e-06
5.86577e-06
1.12546e-06
6.42935e-06
8.9489e-07
6.82397e-06
7.91014e-07
7.04748e-06
6.14347e-07
7.13916e-06
5.44233e-07
7.06385e-06
3.92859e-07
6.85509e-06
3.52921e-07
6.45678e-06
2.07425e-07
5.91674e-06
1.55178e-07
5.18186e-06
-6.04474e-08
4.43574e-06
-2.69643e-07
3.79663e-06
-1.37702e-06
2.60054e-06
-4.17237e-06
-7.20566e-06
1.62258e-06
2.58329e-06
3.88976e-06
5.30878e-06
6.7495e-06
8.00681e-06
9.13226e-06
1.00272e-05
1.08182e-05
1.14325e-05
1.19767e-05
1.23696e-05
1.27225e-05
1.293e-05
1.30851e-05
1.30247e-05
1.2755e-05
1.1378e-05
7.20566e-06
)
;

boundaryField
{
    movingWall
    {
        type            calculated;
        value           uniform 0;
    }
    fixedWalls
    {
        type            calculated;
        value           uniform 0;
    }
    frontAndBack
    {
        type            empty;
    }
}


// ************************************************************************* //
