/*--------------------------------*- C++ -*----------------------------------*\
  =========                 |
  \\      /  F ield         | OpenFOAM: The Open Source CFD Toolbox
   \\    /   O peration     | Website:  https://openfoam.org
    \\  /    A nd           | Version:  12
     \\/     M anipulation  |
\*---------------------------------------------------------------------------*/
FoamFile
{
    format      ascii;
    class       volVectorField;
    location    "7.5";
    object      U;
}
// * * * * * * * * * * * * * * * * * * * * * * * * * * * * * * * * * * * * * //

dimensions      [0 1 -1 0 0 0 0];

internalField   nonuniform List<vector> 
400
(
(0.00283126 -0.00458531 0)
(0.00765592 -0.00205912 0)
(-0.00342267 0.00334735 0)
(-0.0193429 0.0134953 0)
(-0.0689436 0.0208257 0)
(-0.0982533 0.0146539 0)
(-0.127587 0.0147385 0)
(-0.14506 0.0107671 0)
(-0.161929 0.00984117 0)
(-0.171505 0.0068449 0)
(-0.179929 0.00597676 0)
(-0.183605 0.00344808 0)
(-0.185004 0.00214454 0)
(-0.181817 -0.00193964 0)
(-0.172105 -0.00388745 0)
(-0.156509 -0.00989571 0)
(-0.131524 -0.0142783 0)
(-0.0982689 -0.02097 0)
(-0.0587275 -0.0199286 0)
(-0.0140109 -0.00632228 0)
(-0.00187907 -0.00726486 0)
(-0.0116439 0.00881724 0)
(-0.0403114 0.0312757 0)
(-0.079251 0.0501033 0)
(-0.109736 0.0460613 0)
(-0.129889 0.0406611 0)
(-0.147747 0.0333423 0)
(-0.160741 0.023629 0)
(-0.171338 0.0174584 0)
(-0.177715 0.0104327 0)
(-0.182321 0.00572578 0)
(-0.183068 -0.0004212 0)
(-0.181512 -0.00555245 0)
(-0.176266 -0.0124549 0)
(-0.167409 -0.0200689 0)
(-0.152892 -0.0314678 0)
(-0.132518 -0.0458516 0)
(-0.103774 -0.0652274 0)
(-0.0710255 -0.0787823 0)
(-0.0190899 -0.0586515 0)
(-0.00937588 0.0104111 0)
(-0.0333763 0.0411654 0)
(-0.0676899 0.0654302 0)
(-0.0961563 0.0742273 0)
(-0.114477 0.0660588 0)
(-0.126849 0.0563118 0)
(-0.137746 0.0419037 0)
(-0.141266 0.0328938 0)
(-0.141344 0.0226689 0)
(-0.140624 0.0152871 0)
(-0.139727 0.00766841 0)
(-0.138662 0.00112648 0)
(-0.137105 -0.00635687 0)
(-0.132626 -0.0142765 0)
(-0.126283 -0.0248903 0)
(-0.116926 -0.0386311 0)
(-0.102883 -0.0593156 0)
(-0.0823886 -0.087125 0)
(-0.062818 -0.115243 0)
(-0.0209434 -0.114827 0)
(-0.0126158 0.0361648 0)
(-0.0433851 0.0714513 0)
(-0.0737091 0.0910425 0)
(-0.0925889 0.0911948 0)
(-0.10206 0.077947 0)
(-0.106211 0.0634057 0)
(-0.102569 0.046478 0)
(-0.0979119 0.0335762 0)
(-0.0979608 0.0216431 0)
(-0.0980299 0.0135326 0)
(-0.0992441 0.00535757 0)
(-0.09974 -0.00128377 0)
(-0.0988047 -0.00963446 0)
(-0.0964466 -0.0188734 0)
(-0.091162 -0.0312217 0)
(-0.0854479 -0.0458865 0)
(-0.0760651 -0.066477 0)
(-0.0568131 -0.0993848 0)
(-0.0481007 -0.13753 0)
(-0.0158056 -0.148566 0)
(-0.0127788 0.0618875 0)
(-0.0432623 0.0966216 0)
(-0.063292 0.107568 0)
(-0.0749877 0.101821 0)
(-0.0759622 0.0836644 0)
(-0.0722005 0.0643392 0)
(-0.0672541 0.0448214 0)
(-0.0679707 0.0336699 0)
(-0.0677694 0.0227228 0)
(-0.0697875 0.0155235 0)
(-0.0706692 0.00679211 0)
(-0.0724772 -0.000856631 0)
(-0.0718797 -0.0111429 0)
(-0.0708205 -0.0222944 0)
(-0.0659784 -0.0375353 0)
(-0.0614052 -0.0552349 0)
(-0.0580813 -0.0754806 0)
(-0.0387017 -0.107678 0)
(-0.0423782 -0.15503 0)
(-0.00585707 -0.180494 0)
(-0.0109162 0.086074 0)
(-0.0344194 0.116551 0)
(-0.046324 0.121474 0)
(-0.05499 0.109286 0)
(-0.0507542 0.0844279 0)
(-0.0472792 0.0606604 0)
(-0.0460218 0.0429377 0)
(-0.0489051 0.0331532 0)
(-0.0488297 0.0232171 0)
(-0.0512055 0.0163589 0)
(-0.0509903 0.00759993 0)
(-0.0525142 -0.000501204 0)
(-0.0515567 -0.011357 0)
(-0.0513408 -0.0234194 0)
(-0.047634 -0.0395057 0)
(-0.041454 -0.0603541 0)
(-0.0432952 -0.0825065 0)
(-0.0222074 -0.113412 0)
(-0.0327655 -0.16154 0)
(-0.00285926 -0.199997 0)
(-0.00795506 0.105105 0)
(-0.0233027 0.130155 0)
(-0.0322217 0.129707 0)
(-0.0369714 0.11065 0)
(-0.0315134 0.0811668 0)
(-0.0314267 0.0581918 0)
(-0.0333713 0.0433086 0)
(-0.0366174 0.0338477 0)
(-0.0368443 0.0240952 0)
(-0.038492 0.0165664 0)
(-0.0375286 0.00750627 0)
(-0.0382026 -0.00122563 0)
(-0.0367732 -0.0127868 0)
(-0.036285 -0.0260045 0)
(-0.0350497 -0.0425554 0)
(-0.0271915 -0.0648116 0)
(-0.0335087 -0.0891265 0)
(-0.0130325 -0.121534 0)
(-0.0284945 -0.168814 0)
(0.0029838 -0.218684 0)
(-0.00429661 0.116986 0)
(-0.013608 0.140148 0)
(-0.0189357 0.136113 0)
(-0.0219363 0.112942 0)
(-0.0177991 0.0816703 0)
(-0.0212206 0.0593469 0)
(-0.0243465 0.0457467 0)
(-0.0273768 0.0355825 0)
(-0.0280558 0.0251392 0)
(-0.0290947 0.0164408 0)
(-0.0278332 0.00694688 0)
(-0.0276539 -0.0020865 0)
(-0.025888 -0.0132596 0)
(-0.024123 -0.0271166 0)
(-0.0253369 -0.0441538 0)
(-0.0154103 -0.0669342 0)
(-0.024948 -0.0919313 0)
(-0.00360437 -0.123614 0)
(-0.0229812 -0.170188 0)
(0.00436899 -0.229815 0)
(-0.00115305 0.123797 0)
(-0.00542355 0.145581 0)
(-0.00873455 0.138686 0)
(-0.0103344 0.112407 0)
(-0.00760679 0.0798834 0)
(-0.0127836 0.0603779 0)
(-0.0158628 0.0482004 0)
(-0.019102 0.0374229 0)
(-0.0203 0.0261745 0)
(-0.0212915 0.0160534 0)
(-0.0203306 0.00569755 0)
(-0.0196842 -0.00426335 0)
(-0.0181472 -0.0152889 0)
(-0.0146585 -0.0293851 0)
(-0.0180876 -0.0471464 0)
(-0.00693423 -0.0698377 0)
(-0.0192661 -0.0967107 0)
(0.0011992 -0.128511 0)
(-0.020886 -0.172671 0)
(0.00813143 -0.241434 0)
(0.00199779 0.124061 0)
(0.00122782 0.14849 0)
(0.00117979 0.140724 0)
(0.000194917 0.114419 0)
(0.00136692 0.0838345 0)
(-0.00425304 0.0651193 0)
(-0.00713727 0.052327 0)
(-0.0104842 0.0402921 0)
(-0.0117929 0.0278053 0)
(-0.012984 0.0162719 0)
(-0.0126255 0.00519714 0)
(-0.0117153 -0.0057975 0)
(-0.011062 -0.0169484 0)
(-0.00613649 -0.0304267 0)
(-0.0108805 -0.048668 0)
(0.000627289 -0.0697522 0)
(-0.0133912 -0.0976383 0)
(0.00756936 -0.126964 0)
(-0.0182797 -0.172183 0)
(0.008849 -0.247632 0)
(0.00484978 0.12065 0)
(0.00754855 0.147199 0)
(0.00935903 0.140008 0)
(0.00953615 0.114129 0)
(0.010042 0.0841618 0)
(0.00498607 0.0668918 0)
(0.00292557 0.0542654 0)
(9.63207e-05 0.0419604 0)
(-0.00127734 0.0290846 0)
(-0.00286012 0.0166406 0)
(-0.00348339 0.00456861 0)
(-0.00266414 -0.00732615 0)
(-0.00327533 -0.019366 0)
(0.0015974 -0.0319217 0)
(-0.00304406 -0.0509636 0)
(0.00655417 -0.0706881 0)
(-0.00829315 -0.100608 0)
(0.0111408 -0.128032 0)
(-0.017439 -0.171164 0)
(0.0118836 -0.25385 0)
(0.00657479 0.111768 0)
(0.0133891 0.143349 0)
(0.0184873 0.138937 0)
(0.0196863 0.116913 0)
(0.0200874 0.0889318 0)
(0.0155992 0.0711335 0)
(0.0143095 0.0577635 0)
(0.0124112 0.044966 0)
(0.0114691 0.0316807 0)
(0.0102106 0.0185087 0)
(0.00892392 0.00542518 0)
(0.00925055 -0.00710575 0)
(0.00735209 -0.0201399 0)
(0.0106408 -0.0326898 0)
(0.00615214 -0.0510343 0)
(0.0134027 -0.0695653 0)
(-0.00148036 -0.0976851 0)
(0.0166448 -0.122923 0)
(-0.0166043 -0.167451 0)
(0.0137665 -0.256491 0)
(0.00952644 0.101756 0)
(0.0198172 0.135591 0)
(0.026229 0.133777 0)
(0.0295458 0.116515 0)
(0.0308568 0.0883205 0)
(0.0275649 0.0710463 0)
(0.0273772 0.0579006 0)
(0.0267347 0.0453151 0)
(0.0264574 0.032273 0)
(0.0262465 0.0192088 0)
(0.0242815 0.00606723 0)
(0.0242401 -0.00661987 0)
(0.0205353 -0.0195702 0)
(0.0222311 -0.0330766 0)
(0.0164224 -0.0498977 0)
(0.0210407 -0.0687213 0)
(0.00586503 -0.0956604 0)
(0.0201789 -0.119841 0)
(-0.0157617 -0.162288 0)
(0.0175511 -0.257557 0)
(0.0114395 0.0809872 0)
(0.0259999 0.126109 0)
(0.0358552 0.128064 0)
(0.0400162 0.117715 0)
(0.0431412 0.0922513 0)
(0.0408895 0.0727932 0)
(0.0412327 0.0589184 0)
(0.0420704 0.0465558 0)
(0.0425279 0.0340932 0)
(0.0438489 0.021606 0)
(0.0415166 0.00880674 0)
(0.0417424 -0.00392816 0)
(0.0366149 -0.0165327 0)
(0.0367641 -0.03044 0)
(0.0294246 -0.0460115 0)
(0.0313408 -0.0642166 0)
(0.0162445 -0.0876233 0)
(0.0262491 -0.109661 0)
(-0.0133384 -0.156418 0)
(0.0209722 -0.255719 0)
(0.0142754 0.0639393 0)
(0.0300351 0.111231 0)
(0.0436488 0.118007 0)
(0.0497723 0.110876 0)
(0.0553703 0.0910658 0)
(0.0560648 0.0706486 0)
(0.0570666 0.055762 0)
(0.0592144 0.043677 0)
(0.0597977 0.0323738 0)
(0.062501 0.0210264 0)
(0.0601069 0.00978604 0)
(0.0608044 -0.00214845 0)
(0.0547557 -0.0135607 0)
(0.053496 -0.0267466 0)
(0.0444116 -0.0405977 0)
(0.0433494 -0.0584995 0)
(0.0280588 -0.0795948 0)
(0.0312516 -0.100776 0)
(-0.0112893 -0.148489 0)
(0.0269451 -0.253737 0)
(0.0157586 0.0296427 0)
(0.0337928 0.0969796 0)
(0.0489235 0.109057 0)
(0.0584462 0.10529 0)
(0.066767 0.090698 0)
(0.0712902 0.0715426 0)
(0.0737754 0.0554301 0)
(0.0777986 0.0423521 0)
(0.0780613 0.0313577 0)
(0.0818554 0.0208077 0)
(0.0792509 0.0111933 0)
(0.0804751 0.000883283 0)
(0.0740421 -0.00884299 0)
(0.0722168 -0.0206303 0)
(0.0618776 -0.0329619 0)
(0.0588925 -0.0494407 0)
(0.0422577 -0.0667091 0)
(0.0385779 -0.0848393 0)
(-0.0058686 -0.139249 0)
(0.0334599 -0.24993 0)
(0.00426891 0.0100471 0)
(0.028517 0.0704554 0)
(0.0481847 0.0902647 0)
(0.0625726 0.0901566 0)
(0.0761005 0.0806239 0)
(0.086856 0.0664016 0)
(0.0919258 0.0525839 0)
(0.0992475 0.0399788 0)
(0.0999317 0.0293394 0)
(0.104762 0.019204 0)
(0.102398 0.0106614 0)
(0.103968 0.00146922 0)
(0.0972925 -0.0065923 0)
(0.0945917 -0.0166877 0)
(0.0830703 -0.0260318 0)
(0.0766565 -0.0393875 0)
(0.0571487 -0.0517009 0)
(0.0452707 -0.0700703 0)
(5.59544e-05 -0.132866 0)
(0.0434417 -0.246231 0)
(-0.019403 0.000485633 0)
(0.0134327 0.0583568 0)
(0.0365854 0.0748587 0)
(0.0582349 0.0755113 0)
(0.0768227 0.0689203 0)
(0.0958964 0.057707 0)
(0.10599 0.0474074 0)
(0.118101 0.037772 0)
(0.121659 0.0303501 0)
(0.128128 0.0219474 0)
(0.127061 0.0158819 0)
(0.128468 0.00805288 0)
(0.122206 0.00252138 0)
(0.118274 -0.00554266 0)
(0.105227 -0.0115933 0)
(0.0957119 -0.0215493 0)
(0.0723565 -0.0301262 0)
(0.0540576 -0.0505831 0)
(0.0152957 -0.124655 0)
(0.0566271 -0.234065 0)
(-0.0268376 0.0231513 0)
(-0.0151723 0.0228085 0)
(0.0115643 0.0386611 0)
(0.0431064 0.0414314 0)
(0.0672319 0.0404502 0)
(0.0926287 0.0346765 0)
(0.107997 0.0299543 0)
(0.123576 0.022323 0)
(0.131847 0.0187265 0)
(0.139399 0.0128359 0)
(0.142089 0.0105485 0)
(0.142939 0.00511715 0)
(0.139565 0.00360267 0)
(0.134903 -0.0014899 0)
(0.1233 -0.00290359 0)
(0.113459 -0.00954808 0)
(0.0896492 -0.0137733 0)
(0.0784768 -0.0397614 0)
(0.0543974 -0.111848 0)
(0.081461 -0.183897 0)
(0.0355995 0.0329227 0)
(0.0408036 0.0194735 0)
(0.058654 0.0179424 0)
(0.0925626 0.0185881 0)
(0.117639 0.0205445 0)
(0.14701 0.0188508 0)
(0.169154 0.0180819 0)
(0.191333 0.015797 0)
(0.207825 0.0146634 0)
(0.223039 0.0129321 0)
(0.234248 0.0119546 0)
(0.243969 0.0106538 0)
(0.251158 0.00981152 0)
(0.255987 0.00883791 0)
(0.260149 0.00821947 0)
(0.260106 0.00677938 0)
(0.25533 0.00564941 0)
(0.241742 -0.00147891 0)
(0.202031 -0.014126 0)
(0.150292 -0.0338688 0)
)
;

boundaryField
{
    movingWall
    {
        type            fixedValue;
        value           uniform (1 0 0);
    }
    fixedWalls
    {
        type            noSlip;
    }
    frontAndBack
    {
        type            empty;
    }
}


// ************************************************************************* //
