/*--------------------------------*- C++ -*----------------------------------*\
  =========                 |
  \\      /  F ield         | OpenFOAM: The Open Source CFD Toolbox
   \\    /   O peration     | Website:  https://openfoam.org
    \\  /    A nd           | Version:  12
     \\/     M anipulation  |
\*---------------------------------------------------------------------------*/
FoamFile
{
    format      ascii;
    class       volVectorField;
    location    "12.7";
    object      zeta;
}
// * * * * * * * * * * * * * * * * * * * * * * * * * * * * * * * * * * * * * //

dimensions      [0 1 0 0 0 0 0];

internalField   uniform (0 0 0);

boundaryField
{
    freeSurface
    {
        type            calculated;
        value           nonuniform List<vector> 
181
(
(0 -0.00211986 0)
(0 -0.00211937 0)
(0 -0.00211928 0)
(0 -0.00212006 0)
(0 -0.00211984 0)
(0 -0.00212122 0)
(0 -0.00212075 0)
(0 -0.00212241 0)
(0 0.000988502 0)
(0 0.000972597 0)
(0 0.000957449 0)
(0 0.000939922 0)
(0 0.000905059 0)
(0 0.000870798 0)
(0 0.000823886 0)
(0 0.000772683 0)
(0 0.000712205 0)
(0 0.000646753 0)
(0 0.000574395 0)
(0 0.00049681 0)
(0 0.000413556 0)
(0 0.000325362 0)
(0 0.000232602 0)
(0 0.000136142 0)
(0 3.68736e-05 0)
(0 -6.43395e-05 0)
(0 -0.000166679 0)
(0 -0.000269352 0)
(0 -0.000371588 0)
(0 -0.00047241 0)
(0 -0.00057089 0)
(0 -0.000665929 0)
(0 -0.000756597 0)
(0 -0.000841916 0)
(0 -0.000920965 0)
(0 -0.000992792 0)
(0 -0.0010565 0)
(0 -0.00111119 0)
(0 -0.00115592 0)
(0 -0.00118994 0)
(0 -0.00121252 0)
(0 -0.00122298 0)
(0 -0.00122088 0)
(0 -0.00120586 0)
(0 -0.00117761 0)
(0 -0.001136 0)
(0 -0.00108122 0)
(0 -0.00101352 0)
(0 -0.00093342 0)
(0 -0.000841657 0)
(0 -0.000738952 0)
(0 -0.000626493 0)
(0 -0.000505481 0)
(0 -0.000377326 0)
(0 -0.000243529 0)
(0 -0.000105947 0)
(0 3.34015e-05 0)
(0 0.000172552 0)
(0 0.000309392 0)
(0 0.000441548 0)
(0 0.000566621 0)
(0 0.000682289 0)
(0 0.000786199 0)
(0 0.000876249 0)
(0 0.000950276 0)
(0 0.00100642 0)
(0 0.00104299 0)
(0 0.00105885 0)
(0 0.00105303 0)
(0 0.00102509 0)
(0 0.000975079 0)
(0 0.000903447 0)
(0 0.000811204 0)
(0 0.000700002 0)
(0 0.000571984 0)
(0 0.000429772 0)
(0 0.000276819 0)
(0 0.000116519 0)
(0 -4.72033e-05 0)
(0 -0.000210101 0)
(0 -0.000367694 0)
(0 -0.000515675 0)
(0 -0.000649707 0)
(0 -0.000765605 0)
(0 -0.000859628 0)
(0 -0.000928598 0)
(0 -0.000969788 0)
(0 -0.000981377 0)
(0 -0.000962415 0)
(0 -0.000912977 0)
(0 -0.000834122 0)
(0 -0.000727964 0)
(0 -0.000597735 0)
(0 -0.000447501 0)
(0 -0.000282334 0)
(0 -0.000108095 0)
(0 6.89206e-05 0)
(0 0.000242041 0)
(0 0.000404388 0)
(0 0.000549449 0)
(0 0.000671008 0)
(0 0.000763534 0)
(0 0.000822659 0)
(0 0.000845556 0)
(0 0.000830949 0)
(0 0.000778579 0)
(0 0.00069088 0)
(0 0.000571552 0)
(0 0.000426162 0)
(0 0.000261668 0)
(0 8.62757e-05 0)
(0 -9.06481e-05 0)
(0 -0.000260138 0)
(0 -0.000413029 0)
(0 -0.000540576 0)
(0 -0.000635518 0)
(0 -0.000692127 0)
(0 -0.000707177 0)
(0 -0.000679478 0)
(0 -0.000610905 0)
(0 -0.000506042 0)
(0 -0.00037172 0)
(0 -0.000217396 0)
(0 -5.36784e-05 0)
(0 0.000107549 0)
(0 0.000255193 0)
(0 0.000378175 0)
(0 0.00046721 0)
(0 0.000515697 0)
(0 0.000520112 0)
(0 0.000480451 0)
(0 0.000400497 0)
(0 0.000287561 0)
(0 0.000152001 0)
(0 6.78811e-06 0)
(0 -0.000134922 0)
(0 -0.000260279 0)
(0 -0.000357108 0)
(0 -0.000416179 0)
(0 -0.000432102 0)
(0 -0.000403786 0)
(0 -0.000335128 0)
(0 -0.000234234 0)
(0 -0.000112883 0)
(0 1.4482e-05 0)
(0 0.000133412 0)
(0 0.000230721 0)
(0 0.00029511 0)
(0 0.000319437 0)
(0 0.000301954 0)
(0 0.000246224 0)
(0 0.000160965 0)
(0 5.87848e-05 0)
(0 -4.53624e-05 0)
(0 -0.000137268 0)
(0 -0.000204522 0)
(0 -0.000238381 0)
(0 -0.000235548 0)
(0 -0.000198589 0)
(0 -0.000135759 0)
(0 -5.93955e-05 0)
(0 1.66739e-05 0)
(0 8.06974e-05 0)
(0 0.000123057 0)
(0 0.000139254 0)
(0 0.000129943 0)
(0 9.98238e-05 0)
(0 5.73431e-05 0)
(0 1.23402e-05 0)
(0 -2.71689e-05 0)
(0 -5.49309e-05 0)
(0 -6.83414e-05 0)
(0 -6.82491e-05 0)
(0 -5.77646e-05 0)
(0 -4.13749e-05 0)
(0 -2.40289e-05 0)
(0 -9.31388e-06 0)
(0 9.03125e-07 0)
(0 6.55128e-06 0)
(0 8.82032e-06 0)
(0 9.35845e-06 0)
)
;
    }
    walls
    {
        type            calculated;
        value           uniform (0 0 0);
    }
    floatingObject
    {
        type            calculated;
        value           uniform (0 0 0);
    }
    frontAndBack
    {
        type            empty;
    }
}


// ************************************************************************* //
