/*--------------------------------*- C++ -*----------------------------------*\
  =========                 |
  \\      /  F ield         | OpenFOAM: The Open Source CFD Toolbox
   \\    /   O peration     | Website:  https://openfoam.org
    \\  /    A nd           | Version:  12
     \\/     M anipulation  |
\*---------------------------------------------------------------------------*/
FoamFile
{
    format      ascii;
    class       volScalarField;
    location    "150";
    object      epsilon;
}
// * * * * * * * * * * * * * * * * * * * * * * * * * * * * * * * * * * * * * //

dimensions      [0 2 -3 0 0 0 0];

internalField   nonuniform List<scalar> 
5000
(
0.124513
0.106954
0.0933428
0.0824168
0.073697
0.0663596
0.0604287
0.055315
0.0509456
0.0474577
0.0447045
0.0412528
0.0377551
0.0362664
0.0335542
0.0324169
0.0301626
0.0292337
0.0273444
0.0265198
0.0256273
0.0240695
0.0233168
0.0220132
0.0212793
0.124511
0.106966
0.0933233
0.0824678
0.0736173
0.0664587
0.0603299
0.0553309
0.0511958
0.0471289
0.0428979
0.0412442
0.0379332
0.0365994
0.0338876
0.0328072
0.0304917
0.0294306
0.028285
0.0264168
0.0255066
0.0239787
0.0232361
0.0219581
0.0212312
0.124513
0.106954
0.0933451
0.0824128
0.0736979
0.0663576
0.060416
0.0552858
0.051102
0.0478009
0.0445915
0.042148
0.038899
0.0357593
0.034308
0.0318087
0.0307345
0.0286782
0.0277934
0.0260626
0.0253262
0.0245163
0.0230931
0.0223982
0.0212139
0.124513
0.106953
0.0933431
0.082423
0.0736748
0.0663895
0.0604306
0.0552949
0.0514872
0.0480525
0.0442541
0.0425464
0.0389307
0.0373625
0.0346378
0.0319858
0.0307956
0.0287006
0.0277453
0.0260149
0.0252524
0.0238048
0.0231774
0.0224851
0.0213138
0.124494
0.106985
0.0933134
0.0824588
0.0736546
0.0663944
0.0604127
0.0552516
0.0509912
0.0475976
0.0440409
0.0402345
0.038627
0.0356487
0.0343662
0.0319137
0.0307496
0.029493
0.0275041
0.026564
0.0249456
0.0241934
0.0228389
0.022226
0.0210718
0.124509
0.10696
0.0933375
0.0824237
0.0736967
0.0663441
0.0604542
0.0552854
0.0509368
0.0475775
0.0446991
0.0412621
0.0378314
0.0363074
0.0335733
0.0324454
0.030205
0.0292654
0.0273675
0.0265573
0.0256667
0.0241157
0.0233667
0.0220577
0.0213329
0.124512
0.106955
0.0933422
0.0824191
0.0736858
0.0663867
0.0603875
0.0552935
0.0510119
0.0477111
0.045099
0.0420335
0.0397504
0.0366879
0.0337607
0.0324692
0.0301885
0.0291601
0.0272778
0.0264598
0.024887
0.0242077
0.0234798
0.0221652
0.0214228
0.124488
0.106995
0.0932962
0.0824787
0.073623
0.0664386
0.0603856
0.0552565
0.0508923
0.0471449
0.0429546
0.04118
0.0378761
0.0364816
0.0337909
0.032805
0.0310327
0.0288648
0.0278651
0.026114
0.025331
0.02387
0.0232643
0.0226138
0.0218105
0.124496
0.106992
0.0932933
0.0824999
0.0735822
0.0664812
0.0603209
0.055427
0.0512333
0.0471123
0.0447763
0.0413275
0.0378789
0.0364089
0.0336818
0.0325772
0.0303357
0.0293906
0.0274768
0.0266449
0.0257331
0.0241655
0.0234073
0.0221
0.0213754
0.124477
0.107011
0.0932842
0.0824953
0.0736143
0.0664475
0.0603859
0.0552695
0.0510493
0.0476613
0.0440845
0.0402717
0.0386428
0.0356436
0.0343824
0.0319388
0.0307846
0.0295274
0.0275369
0.0265831
0.0249629
0.0242077
0.022851
0.0222378
0.0210856
0.124513
0.106955
0.0933404
0.0824359
0.0736567
0.0664324
0.0604537
0.0558811
0.0505197
0.0471773
0.043094
0.0415077
0.0381543
0.0367787
0.0340305
0.0329971
0.0310535
0.0288584
0.0278294
0.0260605
0.0252461
0.0237732
0.0231162
0.0218749
0.0213182
0.124517
0.106947
0.093348
0.0824277
0.0736656
0.0664261
0.0604507
0.0558839
0.0505126
0.0471622
0.043108
0.0415272
0.0381891
0.0367895
0.0340329
0.0330017
0.0310469
0.0288548
0.0278271
0.0260627
0.025251
0.0237827
0.02313
0.0218861
0.0213281
0.124516
0.10695
0.0933503
0.0824097
0.0736978
0.0663769
0.0604018
0.0552928
0.0509871
0.0477149
0.0451102
0.042086
0.0397901
0.0367287
0.0338119
0.0325132
0.0302242
0.0291692
0.027281
0.0264377
0.024858
0.0241741
0.0234412
0.0221225
0.0213969
0.124516
0.106949
0.0933452
0.0824302
0.0736627
0.066428
0.0604469
0.0558789
0.0505238
0.0471623
0.0431003
0.0415351
0.0381987
0.0368182
0.0340569
0.0330251
0.0310839
0.028893
0.0278637
0.0260922
0.0252778
0.0238034
0.0231462
0.0219
0.0213396
0.12451
0.106961
0.093328
0.0824407
0.0736804
0.0663587
0.0605092
0.0552261
0.0506974
0.0469988
0.0428037
0.0411035
0.0378336
0.0364959
0.0337917
0.0327324
0.0304383
0.0293779
0.0282391
0.0263824
0.025459
0.0239357
0.0232046
0.0219344
0.0212189
0.124511
0.106958
0.0933344
0.0824306
0.0736946
0.0663351
0.0604893
0.0552624
0.0509141
0.0474971
0.0439339
0.04016
0.0385866
0.035617
0.0343548
0.0319011
0.030899
0.028814
0.0279049
0.0269029
0.0252097
0.0243762
0.0229724
0.0222818
0.0211542
0.124516
0.10695
0.0933482
0.0824115
0.0736894
0.0663685
0.0604654
0.0552682
0.0515939
0.0481021
0.0437563
0.0421027
0.0385868
0.0372194
0.0346236
0.0319975
0.0307927
0.0287047
0.0277742
0.0260522
0.0252914
0.0238334
0.0232081
0.0225018
0.0213472
0.124514
0.106953
0.0933442
0.0824162
0.0737015
0.0663406
0.0604564
0.055274
0.0509524
0.0475883
0.0447234
0.0413046
0.0378414
0.0363176
0.0336039
0.0324272
0.030172
0.0292233
0.0273327
0.0265248
0.0256402
0.0240927
0.0233555
0.0220528
0.0213338
0.124508
0.106962
0.0933363
0.0824252
0.0736825
0.0663679
0.0604185
0.0552786
0.051057
0.0476187
0.0452091
0.0420294
0.0397832
0.0367111
0.0338211
0.0325094
0.0302209
0.0292204
0.0273372
0.0265343
0.0249477
0.0242676
0.0235199
0.0221919
0.0214343
0.12451
0.106959
0.0933354
0.0824287
0.0736999
0.0663296
0.0604908
0.0553015
0.0508892
0.0474756
0.0439448
0.0401507
0.0385574
0.0355509
0.0343044
0.0318531
0.0308289
0.0287476
0.0278441
0.0268653
0.0251706
0.0243558
0.0229513
0.0222542
0.0211494
0.119808
0.09613
0.0788476
0.0659036
0.0559095
0.0481075
0.0419608
0.0369397
0.0330269
0.0292213
0.025912
0.0238171
0.0213209
0.0194171
0.0179249
0.0165784
0.0153549
0.0142781
0.0133138
0.0124525
0.011675
0.010966
0.0103206
0.00972926
0.00918866
0.1198
0.096148
0.0788222
0.0659389
0.0558692
0.0481462
0.041971
0.0369672
0.0329738
0.0294314
0.0257888
0.023773
0.021333
0.0194354
0.0179365
0.0165935
0.0153792
0.0143061
0.0133472
0.0124802
0.0116971
0.0109835
0.0103343
0.00974019
0.00919749
0.119803
0.0961379
0.0788374
0.0659136
0.0559048
0.0480962
0.0419293
0.0370629
0.032761
0.0295565
0.0263242
0.0230841
0.0215448
0.0196212
0.0180714
0.0166761
0.015448
0.0143503
0.0133711
0.0124887
0.0116962
0.0109816
0.0103284
0.00973609
0.00919328
0.119811
0.096127
0.0788492
0.0659142
0.0558951
0.04815
0.0419547
0.0370405
0.0327897
0.0294797
0.0265437
0.022907
0.0213403
0.0195545
0.0180214
0.016666
0.0154609
0.0143591
0.0133722
0.0124826
0.0116842
0.010962
0.0103104
0.00972111
0.00918081
0.119798
0.096147
0.0788353
0.0659168
0.0558952
0.0481146
0.0419854
0.0369789
0.0328579
0.0295145
0.0262065
0.0234167
0.021497
0.0196041
0.0180155
0.0166356
0.0154248
0.0143382
0.0133565
0.0124769
0.0116799
0.0109628
0.010309
0.00971823
0.00917706
0.119789
0.0961631
0.078807
0.0659533
0.0558686
0.0481388
0.0419605
0.0370473
0.0327595
0.0297444
0.0260177
0.0233918
0.021581
0.0196234
0.0180277
0.016647
0.0154192
0.0143284
0.0133484
0.0124738
0.0116866
0.0109716
0.0103232
0.00973083
0.00919049
0.119811
0.0961271
0.0788485
0.0659095
0.0559018
0.0481393
0.0419631
0.0370182
0.0327466
0.0298588
0.0260716
0.0231645
0.0215723
0.0196166
0.0180413
0.0166846
0.0154528
0.0143438
0.0133507
0.0124668
0.0116698
0.0109558
0.0103097
0.00972012
0.0091824
0.119805
0.0961379
0.0788498
0.0658975
0.055923
0.0480796
0.0419863
0.0369661
0.0328348
0.0296856
0.0260996
0.02377
0.0214557
0.0194858
0.0179578
0.016633
0.0154393
0.0143423
0.0133616
0.012478
0.0116845
0.0109662
0.0103179
0.00973133
0.00919654
0.1198
0.096143
0.078834
0.0659185
0.0559017
0.0480995
0.0419562
0.0370302
0.0327384
0.0298239
0.0258841
0.0233995
0.0215735
0.0196015
0.0180174
0.0166475
0.0154278
0.0143438
0.0133679
0.0124949
0.0117075
0.0109911
0.0103407
0.00974599
0.00920431
0.119789
0.0961615
0.0788203
0.0659357
0.0558858
0.0481197
0.0419763
0.0369947
0.0328222
0.0297419
0.0259273
0.0234372
0.0215933
0.0195018
0.0179404
0.0165838
0.0153851
0.0143059
0.0133328
0.012461
0.0116708
0.0109596
0.0103106
0.00972318
0.00918551
0.119802
0.0961432
0.0788452
0.065905
0.0559167
0.0480841
0.0419787
0.0369507
0.0328845
0.0295924
0.0261384
0.0237916
0.0214216
0.0195205
0.0179928
0.0166687
0.0154692
0.01437
0.0133866
0.0124996
0.011702
0.010979
0.0103249
0.00972928
0.00918847
0.119806
0.0961368
0.07885
0.0658991
0.0559196
0.0480814
0.0419753
0.0369503
0.0328861
0.0295822
0.0261364
0.0237931
0.0214211
0.0195218
0.017995
0.0166722
0.0154702
0.0143696
0.0133854
0.0124982
0.0117006
0.0109778
0.010324
0.00972856
0.00918782
0.119808
0.0961331
0.0788502
0.0659005
0.0559155
0.0481179
0.041998
0.0369712
0.0327969
0.0298479
0.0257971
0.0235352
0.0215602
0.0195656
0.0180101
0.0166657
0.0154321
0.0143249
0.0133344
0.0124531
0.0116582
0.010946
0.0103012
0.00971276
0.00917615
0.119806
0.0961343
0.0788468
0.0659027
0.0559147
0.0480869
0.0419742
0.0369539
0.0328848
0.0295813
0.0261303
0.0237967
0.0214314
0.019517
0.0179928
0.0166717
0.0154691
0.014369
0.0133853
0.0124984
0.011701
0.0109783
0.0103245
0.00972901
0.00918817
0.119796
0.0961535
0.078815
0.0659435
0.0558737
0.0481363
0.0420115
0.0369612
0.032878
0.0296343
0.0261567
0.0237553
0.0214817
0.0194633
0.0179448
0.0166197
0.0154189
0.014343
0.013376
0.0124998
0.0117087
0.010989
0.0103358
0.0097393
0.00919552
0.119796
0.0961546
0.078814
0.0659452
0.0558649
0.0481462
0.0419863
0.0370016
0.0328312
0.02965
0.0260629
0.0232891
0.0214963
0.019559
0.0179957
0.0166306
0.0154224
0.0143377
0.01337
0.0125017
0.0117121
0.0109989
0.010346
0.00975305
0.00920943
0.119804
0.0961369
0.0788399
0.0659101
0.0559029
0.0481016
0.0419418
0.0369637
0.033043
0.0289643
0.0264258
0.0236423
0.0212727
0.0195878
0.0181041
0.0167348
0.0154889
0.0143783
0.0133912
0.012505
0.0117109
0.0109921
0.0103428
0.00975395
0.00921414
0.119811
0.096126
0.0788517
0.0658955
0.0559178
0.0480955
0.0419678
0.0369243
0.0330707
0.0291007
0.0259708
0.0238625
0.0212321
0.019439
0.0179509
0.0165996
0.0153724
0.0142923
0.0133251
0.0124617
0.0116828
0.0109733
0.0103279
0.00973663
0.00919725
0.119799
0.0961465
0.0788374
0.0659132
0.0559043
0.0481023
0.0419636
0.0369781
0.0329299
0.0294461
0.0257774
0.0237742
0.0213662
0.0196216
0.0181032
0.016739
0.0154847
0.0143774
0.013387
0.0125052
0.0117087
0.0109938
0.0103456
0.00975291
0.00921273
0.119795
0.0961539
0.0788158
0.0659425
0.0558779
0.0481309
0.0419653
0.0369878
0.0328611
0.0296528
0.0258306
0.0237432
0.0215662
0.0194979
0.0179652
0.0166135
0.0153957
0.0143044
0.0133338
0.0124656
0.0116782
0.0109681
0.0103186
0.00972896
0.00918838
0.11979
0.0960511
0.0786199
0.0656112
0.0554671
0.0476259
0.0414465
0.0364606
0.0322681
0.0287927
0.0257896
0.0232945
0.0210586
0.0192082
0.0174987
0.0161113
0.0147583
0.0137095
0.0126034
0.0118124
0.0108733
0.0102913
0.00945406
0.00908898
0.00812087
0.11979
0.0960529
0.0786175
0.0656146
0.0554633
0.0476295
0.0414498
0.0364627
0.032271
0.0287947
0.0257917
0.023295
0.021059
0.0192087
0.0174987
0.016112
0.0147587
0.0137102
0.0126033
0.0118127
0.0108728
0.0102919
0.00945409
0.00908904
0.00812341
0.11979
0.0960521
0.0786185
0.0656124
0.0554668
0.047625
0.0414493
0.0364639
0.0322643
0.0288016
0.0257945
0.0232871
0.021059
0.0192127
0.0175011
0.0161136
0.0147591
0.0137095
0.012602
0.0118116
0.0108725
0.0102891
0.00946659
0.00902368
0.0082143
0.119791
0.0960509
0.0786198
0.065612
0.0554662
0.0476288
0.0414496
0.0364638
0.0322639
0.0288018
0.0257947
0.0232854
0.021057
0.0192107
0.0174994
0.0161132
0.0147596
0.0137097
0.0126018
0.0118111
0.0108716
0.010291
0.00945344
0.00908864
0.00812249
0.119789
0.096054
0.0786178
0.0656134
0.055465
0.0476278
0.0414509
0.0364613
0.0322679
0.0288002
0.0257915
0.0232908
0.0210599
0.0192119
0.0174986
0.0161134
0.0147592
0.013711
0.0126013
0.0118117
0.0108699
0.0102911
0.00945218
0.00908741
0.00812642
0.119788
0.0960555
0.0786146
0.065617
0.0554623
0.0476301
0.041451
0.0364636
0.0322669
0.0288032
0.0257909
0.0232894
0.0210606
0.0192122
0.017499
0.0161127
0.0147575
0.0137094
0.0126007
0.0118119
0.0108706
0.0102919
0.00945272
0.00908775
0.00812696
0.119791
0.0960511
0.0786195
0.0656119
0.0554663
0.0476281
0.0414497
0.0364623
0.0322657
0.0288035
0.0257878
0.0232869
0.0210588
0.0192108
0.0174994
0.0161136
0.014759
0.0137097
0.0126016
0.0118117
0.0108715
0.0102916
0.00945323
0.00908838
0.00812425
0.11979
0.0960524
0.0786198
0.0656109
0.0554681
0.0476241
0.0414505
0.0364602
0.0322683
0.0288008
0.0257897
0.0232895
0.0210592
0.01921
0.017499
0.0161139
0.0147604
0.0137107
0.0126023
0.0118113
0.0108717
0.0102881
0.00946575
0.00902289
0.00821381
0.119789
0.0960527
0.0786184
0.0656127
0.0554666
0.0476256
0.0414504
0.0364617
0.0322664
0.0288027
0.0257901
0.0232883
0.0210599
0.019211
0.0174994
0.0161126
0.014759
0.01371
0.0126029
0.0118125
0.0108734
0.0102896
0.0094673
0.00902376
0.00821558
0.119788
0.0960548
0.0786169
0.0656143
0.0554653
0.0476269
0.0414505
0.0364616
0.032269
0.0288009
0.0257895
0.0232904
0.0210605
0.0192098
0.0174978
0.0161118
0.0147587
0.0137092
0.0126013
0.0118105
0.0108715
0.0102883
0.00946698
0.00902347
0.00821602
0.119789
0.0960536
0.0786189
0.0656122
0.0554667
0.0476258
0.0414496
0.0364606
0.0322696
0.0287982
0.0257907
0.0232908
0.021058
0.0192103
0.0174998
0.0161161
0.0147618
0.0137127
0.0126027
0.0118125
0.0108707
0.0102915
0.00945256
0.00908778
0.0081264
0.11979
0.0960523
0.0786199
0.065611
0.0554676
0.0476249
0.0414494
0.0364603
0.0322696
0.0287975
0.0257909
0.0232905
0.0210583
0.0192096
0.0175003
0.0161155
0.0147624
0.0137119
0.0126034
0.0118116
0.0108717
0.0102905
0.00945336
0.00908849
0.00812128
0.11979
0.096052
0.07862
0.0656108
0.0554678
0.0476257
0.0414512
0.0364601
0.0322684
0.0288014
0.0257881
0.0232886
0.0210586
0.019209
0.0174988
0.0161127
0.0147588
0.0137086
0.0126014
0.0118104
0.0108714
0.0102903
0.00945329
0.00908851
0.00812108
0.11979
0.0960519
0.0786195
0.0656113
0.055467
0.0476255
0.0414494
0.0364605
0.0322695
0.0287974
0.0257908
0.0232905
0.0210581
0.0192095
0.0175002
0.0161155
0.0147621
0.0137117
0.0126032
0.0118116
0.0108717
0.0102906
0.00945347
0.00908862
0.00812145
0.119789
0.0960548
0.0786154
0.0656165
0.0554618
0.047631
0.041452
0.0364617
0.0322699
0.0288003
0.0257903
0.0232906
0.0210586
0.01921
0.0174985
0.0161137
0.014759
0.013711
0.0126017
0.0118125
0.0108708
0.010292
0.00945303
0.0090881
0.00812714
0.119789
0.0960546
0.0786156
0.0656161
0.0554621
0.0476304
0.0414515
0.0364624
0.0322686
0.0288011
0.0257905
0.023291
0.0210601
0.0192111
0.0174989
0.0161132
0.0147584
0.0137106
0.0126021
0.0118131
0.0108724
0.0102906
0.00946611
0.00902678
0.00821415
0.11979
0.0960523
0.0786187
0.0656122
0.0554663
0.047626
0.0414478
0.0364639
0.0322677
0.0287934
0.0257977
0.023291
0.0210575
0.0192114
0.0175032
0.0161162
0.0147611
0.0137105
0.0126027
0.0118118
0.0108735
0.0102897
0.00946878
0.00902395
0.00821816
0.11979
0.0960512
0.0786197
0.065611
0.0554671
0.0476258
0.0414487
0.0364622
0.0322693
0.0287929
0.0257919
0.0232953
0.0210579
0.0192091
0.0174993
0.0161124
0.0147586
0.0137101
0.0126031
0.0118125
0.0108734
0.0102891
0.00946739
0.00902264
0.00821631
0.119789
0.096054
0.0786179
0.0656132
0.055466
0.0476263
0.041449
0.0364635
0.0322681
0.0287972
0.0257917
0.0232906
0.021058
0.0192117
0.0175017
0.0161159
0.0147601
0.0137115
0.0126024
0.0118133
0.0108723
0.0102908
0.00946575
0.00902748
0.0082137
0.119789
0.0960536
0.0786167
0.0656148
0.0554642
0.0476282
0.0414433
0.0364566
0.0322658
0.0287957
0.0257874
0.0232907
0.0210593
0.0192088
0.0174981
0.0161114
0.0147577
0.0137088
0.012602
0.0118115
0.0108727
0.0102887
0.00946671
0.00902271
0.00821506
0.119788
0.0960536
0.0786105
0.0656081
0.0554495
0.0476155
0.0414292
0.0364431
0.032243
0.0287728
0.0257651
0.0232672
0.021033
0.019189
0.0174738
0.0160895
0.0147304
0.0136832
0.0125707
0.0117816
0.010838
0.0102579
0.00941806
0.00905365
0.00808063
0.119787
0.0960541
0.07861
0.0656088
0.0554487
0.0476164
0.0414313
0.036445
0.0322441
0.028774
0.0257657
0.023268
0.0210331
0.0191896
0.0174737
0.01609
0.0147302
0.0136836
0.0125702
0.0117821
0.0108374
0.0102584
0.00941771
0.00905331
0.00808278
0.119787
0.0960541
0.07861
0.0656087
0.0554489
0.0476162
0.0414314
0.0364451
0.0322441
0.0287742
0.0257657
0.023268
0.0210331
0.0191897
0.0174737
0.0160902
0.01473
0.0136838
0.01257
0.0117822
0.0108376
0.0102562
0.0094302
0.00898748
0.00817516
0.119787
0.096054
0.0786101
0.0656086
0.0554489
0.0476162
0.0414314
0.036445
0.0322441
0.0287742
0.0257657
0.0232679
0.0210331
0.0191897
0.0174737
0.0160901
0.0147301
0.0136838
0.01257
0.0117823
0.0108371
0.0102588
0.00941734
0.00905304
0.00808501
0.119787
0.0960547
0.0786095
0.0656093
0.0554481
0.0476171
0.0414314
0.0364454
0.032244
0.0287745
0.0257654
0.0232684
0.0210328
0.0191901
0.0174732
0.0160907
0.0147295
0.0136844
0.0125694
0.0117829
0.0108367
0.0102571
0.00942881
0.00899012
0.00817329
0.119787
0.0960545
0.0786096
0.0656092
0.0554484
0.0476167
0.0414315
0.0364452
0.0322442
0.0287743
0.0257656
0.023268
0.0210332
0.0191897
0.0174737
0.0160901
0.0147302
0.0136836
0.0125702
0.0117819
0.010838
0.0102556
0.00943114
0.0089855
0.00817726
0.119787
0.0960541
0.07861
0.0656088
0.0554487
0.0476164
0.0414314
0.0364451
0.0322441
0.0287742
0.0257656
0.023268
0.0210331
0.0191897
0.0174737
0.0160901
0.0147301
0.0136837
0.0125701
0.0117821
0.0108378
0.010256
0.00943063
0.00898659
0.00817616
0.119787
0.0960539
0.0786102
0.0656084
0.0554492
0.0476159
0.0414314
0.0364449
0.0322442
0.028774
0.0257657
0.0232679
0.0210333
0.0191895
0.0174738
0.01609
0.0147303
0.0136836
0.0125703
0.011782
0.0108374
0.0102583
0.00941746
0.00905321
0.00808328
0.119787
0.0960539
0.0786102
0.0656085
0.0554491
0.0476159
0.0414314
0.0364449
0.0322442
0.0287741
0.0257657
0.0232679
0.0210332
0.0191896
0.0174738
0.01609
0.0147302
0.0136836
0.0125702
0.0117821
0.0108374
0.0102585
0.00941753
0.00905323
0.00808382
0.119787
0.0960542
0.07861
0.0656087
0.0554489
0.0476161
0.0414313
0.036445
0.0322442
0.0287741
0.0257657
0.023268
0.0210332
0.0191897
0.0174737
0.0160901
0.0147301
0.0136838
0.01257
0.0117821
0.0108375
0.0102562
0.00943025
0.00898742
0.0081753
0.119787
0.0960546
0.0786096
0.0656092
0.0554482
0.047617
0.0414313
0.0364454
0.032244
0.0287744
0.0257654
0.0232684
0.0210328
0.01919
0.0174733
0.0160907
0.0147297
0.0136844
0.0125695
0.0117829
0.0108364
0.0102593
0.00941685
0.00905253
0.00808755
0.119787
0.0960541
0.0786101
0.0656087
0.0554489
0.0476163
0.0414314
0.036445
0.0322442
0.0287741
0.0257657
0.023268
0.0210332
0.0191895
0.0174738
0.01609
0.0147304
0.0136836
0.0125704
0.0117819
0.0108376
0.0102581
0.00941783
0.00905342
0.00808143
0.119787
0.0960539
0.0786103
0.0656084
0.0554491
0.0476159
0.0414314
0.0364449
0.0322442
0.028774
0.0257657
0.0232679
0.0210332
0.0191895
0.0174738
0.0160899
0.0147303
0.0136835
0.0125703
0.0117819
0.0108375
0.0102583
0.00941771
0.00905328
0.00808262
0.119787
0.0960539
0.0786102
0.0656085
0.0554491
0.047616
0.0414314
0.0364449
0.0322442
0.028774
0.0257657
0.0232679
0.0210332
0.0191895
0.0174738
0.01609
0.0147304
0.0136836
0.0125703
0.011782
0.0108374
0.0102583
0.0094177
0.00905328
0.00808263
0.119787
0.0960544
0.0786096
0.0656092
0.0554483
0.0476168
0.0414315
0.0364452
0.0322442
0.0287743
0.0257656
0.0232681
0.0210331
0.0191897
0.0174737
0.0160901
0.0147301
0.0136837
0.0125701
0.0117821
0.0108373
0.0102584
0.00941765
0.00905329
0.00808292
0.119787
0.0960544
0.0786097
0.0656091
0.0554484
0.0476167
0.0414315
0.0364452
0.0322442
0.0287743
0.0257656
0.0232681
0.0210332
0.0191897
0.0174738
0.01609
0.0147302
0.0136836
0.0125703
0.0117819
0.0108381
0.0102556
0.00943122
0.00898554
0.00817731
0.119787
0.0960542
0.0786099
0.0656089
0.0554487
0.0476164
0.0414313
0.0364452
0.0322441
0.0287741
0.0257658
0.023268
0.0210331
0.0191896
0.0174738
0.0160901
0.0147303
0.0136836
0.0125703
0.0117818
0.0108381
0.0102556
0.00943134
0.00898516
0.00817805
0.119787
0.0960542
0.0786099
0.0656089
0.0554486
0.0476165
0.0414313
0.0364452
0.032244
0.0287742
0.0257655
0.0232682
0.0210329
0.0191899
0.0174734
0.0160905
0.0147296
0.0136843
0.0125695
0.0117829
0.0108368
0.0102573
0.00942858
0.00899036
0.00817352
0.119787
0.0960543
0.0786099
0.0656088
0.0554488
0.0476163
0.0414313
0.036445
0.032244
0.0287741
0.0257656
0.023268
0.021033
0.0191896
0.0174737
0.0160902
0.0147301
0.0136838
0.01257
0.0117823
0.0108372
0.0102587
0.00941734
0.00905316
0.00808469
0.119787
0.0960541
0.07861
0.0656088
0.0554488
0.0476163
0.0414241
0.0364397
0.0322399
0.0287711
0.025763
0.0232664
0.0210315
0.0191889
0.0174726
0.0160898
0.0147293
0.0136838
0.0125695
0.0117826
0.0108368
0.0102592
0.00941724
0.00905293
0.00808633
0.119787
0.0960537
0.0786079
0.0656059
0.0554445
0.0476117
0.041424
0.0364381
0.0322373
0.0287676
0.0257593
0.0232618
0.0210272
0.0191839
0.0174683
0.0160847
0.0147251
0.0136785
0.0125655
0.0117771
0.0108329
0.0102536
0.00941327
0.00904897
0.00807781
0.119787
0.0960544
0.0786073
0.0656067
0.0554436
0.0476128
0.0414261
0.0364402
0.0322383
0.0287689
0.0257597
0.0232629
0.0210272
0.0191847
0.017468
0.0160855
0.0147245
0.0136794
0.0125646
0.0117781
0.0108318
0.0102546
0.00941256
0.00904819
0.00808212
0.119787
0.096054
0.0786077
0.0656062
0.0554442
0.0476121
0.0414262
0.0364399
0.0322385
0.0287687
0.02576
0.0232625
0.0210275
0.0191844
0.0174684
0.016085
0.014725
0.0136788
0.0125652
0.0117774
0.0108326
0.0102539
0.00941293
0.0090487
0.0080795
0.119787
0.0960538
0.0786079
0.065606
0.0554444
0.0476118
0.0414262
0.0364398
0.0322385
0.0287686
0.02576
0.0232625
0.0210276
0.0191843
0.0174684
0.016085
0.0147251
0.0136788
0.0125653
0.0117773
0.0108331
0.0102513
0.00942609
0.00898238
0.00817117
0.119787
0.0960542
0.0786074
0.0656065
0.0554438
0.0476125
0.0414261
0.0364401
0.0322384
0.0287689
0.0257598
0.0232628
0.0210272
0.0191848
0.0174679
0.0160856
0.0147244
0.0136796
0.0125644
0.0117784
0.0108314
0.0102552
0.00941197
0.00904781
0.00808556
0.119787
0.0960544
0.0786072
0.0656068
0.0554436
0.0476129
0.0414262
0.0364402
0.0322383
0.028769
0.0257597
0.0232629
0.0210272
0.0191848
0.017468
0.0160855
0.0147245
0.0136795
0.0125645
0.0117781
0.0108321
0.0102525
0.0094244
0.00898525
0.00816958
0.119787
0.0960542
0.0786074
0.0656065
0.0554438
0.0476125
0.0414262
0.0364401
0.0322384
0.0287689
0.0257598
0.0232628
0.0210273
0.0191847
0.0174681
0.0160854
0.0147246
0.0136793
0.0125647
0.011778
0.0108323
0.0102524
0.00942448
0.00898494
0.00817008
0.119787
0.0960538
0.0786079
0.065606
0.0554445
0.0476118
0.0414262
0.0364397
0.0322385
0.0287685
0.02576
0.0232624
0.0210276
0.0191843
0.0174685
0.0160849
0.0147251
0.0136787
0.0125653
0.0117773
0.0108326
0.0102538
0.00941299
0.00904872
0.0080792
0.119787
0.0960537
0.078608
0.0656058
0.0554446
0.0476116
0.0414262
0.0364396
0.0322386
0.0287684
0.0257601
0.0232623
0.0210277
0.0191841
0.0174686
0.0160848
0.0147253
0.0136785
0.0125656
0.011777
0.010833
0.0102534
0.00941338
0.00904899
0.0080769
0.119787
0.0960539
0.0786078
0.0656061
0.0554444
0.0476119
0.0414262
0.0364398
0.0322385
0.0287686
0.02576
0.0232625
0.0210276
0.0191844
0.0174684
0.0160851
0.014725
0.0136789
0.0125651
0.0117775
0.0108324
0.0102541
0.00941277
0.00904854
0.00808073
0.119787
0.0960544
0.0786073
0.0656067
0.0554436
0.0476128
0.0414261
0.0364402
0.0322383
0.028769
0.0257597
0.0232629
0.0210272
0.0191848
0.0174679
0.0160856
0.0147244
0.0136795
0.0125645
0.0117782
0.0108321
0.0102525
0.00942432
0.00898566
0.00816888
0.119787
0.0960541
0.0786076
0.0656064
0.055444
0.0476123
0.0414262
0.03644
0.0322384
0.0287688
0.0257598
0.0232628
0.0210273
0.0191847
0.017468
0.0160855
0.0147245
0.0136795
0.0125645
0.0117783
0.0108315
0.010255
0.00941218
0.0090479
0.00808456
0.119787
0.0960538
0.0786079
0.065606
0.0554444
0.0476118
0.0414262
0.0364398
0.0322385
0.0287686
0.02576
0.0232625
0.0210276
0.0191843
0.0174684
0.016085
0.014725
0.0136788
0.0125652
0.0117773
0.010833
0.0102514
0.00942603
0.00898246
0.00817109
0.119787
0.0960538
0.0786078
0.065606
0.0554444
0.0476119
0.0414262
0.0364398
0.0322385
0.0287686
0.02576
0.0232625
0.0210276
0.0191844
0.0174684
0.0160851
0.014725
0.0136789
0.0125652
0.0117774
0.0108329
0.0102516
0.00942565
0.00898301
0.00817072
0.119787
0.0960543
0.0786073
0.0656067
0.0554437
0.0476128
0.0414262
0.0364402
0.0322384
0.028769
0.0257597
0.0232629
0.0210272
0.0191848
0.017468
0.0160855
0.0147245
0.0136794
0.0125646
0.0117782
0.0108317
0.0102548
0.00941236
0.00904808
0.0080831
0.119787
0.0960543
0.0786074
0.0656066
0.0554438
0.0476126
0.0414262
0.0364401
0.0322384
0.0287689
0.0257598
0.0232628
0.0210273
0.0191847
0.017468
0.0160855
0.0147246
0.0136794
0.0125646
0.011778
0.0108322
0.0102524
0.0094244
0.00898532
0.00816948
0.119787
0.0960543
0.0786074
0.0656066
0.0554438
0.0476126
0.0414262
0.0364401
0.0322384
0.0287689
0.0257598
0.0232628
0.0210273
0.0191847
0.0174681
0.0160854
0.0147246
0.0136793
0.0125647
0.011778
0.0108323
0.0102523
0.00942453
0.00898485
0.00817019
0.119787
0.0960539
0.0786078
0.0656061
0.0554443
0.047612
0.0414262
0.0364398
0.0322385
0.0287686
0.02576
0.0232625
0.0210275
0.0191844
0.0174683
0.0160851
0.0147249
0.013679
0.012565
0.0117777
0.0108323
0.0102543
0.00941259
0.00904847
0.00808155
0.119787
0.0960541
0.0786076
0.0656063
0.0554441
0.0476123
0.0414261
0.0364399
0.0322383
0.0287687
0.0257597
0.0232627
0.0210272
0.0191847
0.0174679
0.0160855
0.0147244
0.0136795
0.0125644
0.0117783
0.0108319
0.0102529
0.00942382
0.00898683
0.00816771
0.119787
0.0960535
0.0786081
0.0656056
0.0554448
0.0476114
0.0414189
0.0364342
0.0322343
0.0287653
0.0257575
0.0232606
0.0210262
0.0191832
0.0174677
0.0160844
0.0147247
0.0136785
0.0125652
0.0117773
0.0108327
0.0102539
0.00941315
0.00904895
0.00807921
0.119787
0.0960538
0.0786067
0.0656048
0.055442
0.0476099
0.0414213
0.0364355
0.0322342
0.0287648
0.0257561
0.0232591
0.021024
0.0191813
0.0174651
0.0160824
0.0147219
0.0136765
0.0125623
0.0117753
0.0108302
0.0102497
0.00942309
0.00898178
0.00816877
0.119787
0.0960539
0.0786066
0.0656049
0.0554419
0.04761
0.0414234
0.0364371
0.0322354
0.0287658
0.0257567
0.0232597
0.0210243
0.0191818
0.0174651
0.0160827
0.0147218
0.0136769
0.012562
0.0117758
0.0108296
0.0102505
0.00942171
0.00898429
0.00816633
0.119787
0.0960537
0.0786068
0.0656046
0.0554422
0.0476096
0.0414235
0.036437
0.0322355
0.0287656
0.0257569
0.0232595
0.0210245
0.0191815
0.0174655
0.0160823
0.0147223
0.0136763
0.0125626
0.0117751
0.01083
0.0102519
0.0094106
0.00904642
0.00807872
0.119787
0.0960536
0.0786068
0.0656046
0.0554422
0.0476096
0.0414236
0.036437
0.0322356
0.0287656
0.025757
0.0232594
0.0210246
0.0191814
0.0174657
0.0160821
0.0147225
0.013676
0.0125629
0.0117746
0.010831
0.0102486
0.00942449
0.00897886
0.00817089
0.119787
0.0960536
0.0786069
0.0656045
0.0554423
0.0476095
0.0414235
0.0364369
0.0322356
0.0287656
0.025757
0.0232594
0.0210246
0.0191814
0.0174656
0.0160822
0.0147224
0.0136761
0.0125628
0.0117748
0.0108308
0.0102489
0.00942403
0.00897978
0.00816992
0.119787
0.0960541
0.0786064
0.0656052
0.0554415
0.0476104
0.0414235
0.0364374
0.0322354
0.028766
0.0257567
0.0232599
0.0210242
0.0191819
0.0174651
0.0160828
0.0147218
0.0136769
0.012562
0.0117758
0.0108293
0.0102526
0.00940998
0.00904586
0.00808211
0.119787
0.096054
0.0786064
0.0656051
0.0554417
0.0476103
0.0414235
0.0364373
0.0322354
0.0287659
0.0257567
0.0232598
0.0210243
0.0191818
0.0174652
0.0160827
0.0147218
0.0136768
0.0125621
0.0117756
0.0108298
0.0102502
0.00942222
0.00898319
0.00816748
0.119787
0.0960537
0.0786068
0.0656047
0.0554422
0.0476096
0.0414235
0.036437
0.0322355
0.0287656
0.0257569
0.0232595
0.0210245
0.0191815
0.0174655
0.0160823
0.0147223
0.0136763
0.0125626
0.011775
0.0108305
0.0102493
0.00942346
0.0089809
0.00816873
0.119787
0.0960535
0.078607
0.0656045
0.0554424
0.0476094
0.0414235
0.0364369
0.0322356
0.0287655
0.025757
0.0232594
0.0210247
0.0191813
0.0174656
0.0160822
0.0147225
0.0136761
0.0125628
0.0117749
0.0108303
0.0102516
0.00941081
0.00904658
0.00807729
0.119787
0.0960537
0.0786068
0.0656047
0.0554422
0.0476097
0.0414236
0.036437
0.0322356
0.0287656
0.025757
0.0232595
0.0210246
0.0191814
0.0174656
0.0160822
0.0147224
0.0136761
0.0125629
0.0117747
0.0108309
0.0102488
0.00942436
0.00897936
0.00817014
0.119787
0.0960536
0.0786069
0.0656046
0.0554423
0.0476095
0.0414236
0.0364369
0.0322356
0.0287655
0.025757
0.0232594
0.0210247
0.0191813
0.0174657
0.0160821
0.0147226
0.0136759
0.0125631
0.0117745
0.0108312
0.0102485
0.00942463
0.00897837
0.00817159
0.119787
0.0960536
0.0786069
0.0656045
0.0554424
0.0476094
0.0414235
0.0364369
0.0322356
0.0287656
0.025757
0.0232595
0.0210246
0.0191814
0.0174655
0.0160823
0.0147223
0.0136763
0.0125626
0.011775
0.0108306
0.0102493
0.00942349
0.00898084
0.00816881
0.119787
0.0960534
0.078607
0.0656044
0.0554425
0.0476093
0.0414236
0.0364368
0.0322356
0.0287655
0.025757
0.0232594
0.0210247
0.0191813
0.0174657
0.0160821
0.0147225
0.013676
0.0125629
0.0117748
0.0108304
0.0102515
0.00941081
0.00904665
0.0080769
0.119787
0.0960534
0.0786071
0.0656043
0.0554426
0.0476092
0.0414236
0.0364368
0.0322356
0.0287654
0.0257571
0.0232593
0.0210247
0.0191812
0.0174657
0.016082
0.0147226
0.0136759
0.012563
0.0117747
0.0108306
0.0102513
0.00941101
0.00904675
0.00807594
0.119787
0.0960536
0.0786069
0.0656045
0.0554423
0.0476094
0.0414236
0.0364369
0.0322356
0.0287655
0.025757
0.0232594
0.0210247
0.0191813
0.0174657
0.0160821
0.0147225
0.0136761
0.0125629
0.0117748
0.0108304
0.0102514
0.00941099
0.00904668
0.00807633
0.119787
0.0960536
0.0786069
0.0656046
0.0554423
0.0476095
0.0414235
0.036437
0.0322356
0.0287656
0.025757
0.0232595
0.0210246
0.0191814
0.0174655
0.0160823
0.0147223
0.0136763
0.0125626
0.0117751
0.01083
0.0102518
0.00941061
0.00904642
0.00807864
0.119787
0.0960536
0.0786068
0.0656046
0.0554422
0.0476096
0.0414235
0.036437
0.0322355
0.0287656
0.025757
0.0232595
0.0210246
0.0191814
0.0174656
0.0160822
0.0147224
0.0136762
0.0125628
0.0117748
0.0108308
0.010249
0.00942398
0.00897987
0.00816983
0.119787
0.0960536
0.0786068
0.0656046
0.0554422
0.0476096
0.0414235
0.036437
0.0322355
0.0287656
0.0257569
0.0232595
0.0210246
0.0191814
0.0174655
0.0160822
0.0147224
0.0136762
0.0125627
0.0117749
0.0108307
0.010249
0.00942397
0.00897988
0.00816984
0.119787
0.0960538
0.0786066
0.0656049
0.0554419