/*--------------------------------*- C++ -*----------------------------------*\
  =========                 |
  \\      /  F ield         | OpenFOAM: The Open Source CFD Toolbox
   \\    /   O peration     | Website:  https://openfoam.org
    \\  /    A nd           | Version:  12
     \\/     M anipulation  |
\*---------------------------------------------------------------------------*/
FoamFile
{
    format      ascii;
    class       volScalarField;
    location    "150";
    object      k;
}
// * * * * * * * * * * * * * * * * * * * * * * * * * * * * * * * * * * * * * //

dimensions      [0 2 -2 0 0 0 0];

internalField   nonuniform List<scalar> 
5000
(
1.44056
1.33512
1.24728
1.17198
1.10826
1.05166
1.00325
0.960165
0.921463
0.886221
0.845649
0.815143
0.772286
0.72918
0.710013
0.675234
0.659896
0.630017
0.617257
0.591455
0.580128
0.56776
0.54543
0.534298
0.515848
1.44052
1.3352
1.24708
1.17237
1.10763
1.05241
1.00275
0.960303
0.919032
0.886274
0.839819
0.791061
0.770175
0.729657
0.712668
0.6783
0.663811
0.633469
0.619838
0.60496
0.579139
0.566482
0.544436
0.533173
0.515472
1.44056
1.33512
1.2473
1.17197
1.10826
1.05165
1.00341
0.959499
0.922876
0.883114
0.855088
0.806571
0.78311
0.743572
0.704235
0.685335
0.652719
0.638025
0.610205
0.597894
0.573761
0.563376
0.551855
0.531055
0.519091
1.44056
1.33512
1.24728
1.17206
1.10809
1.05181
1.00358
0.958361
0.926347
0.871865
0.85088
0.802229
0.782245
0.740315
0.722577
0.689264
0.654981
0.639192
0.610904
0.597651
0.573397
0.562423
0.541496
0.532201
0.520321
1.44045
1.33531
1.24709
1.17227
1.10796
1.05185
1.00342
0.959614
0.921875
0.883615
0.849336
0.805005
0.759413
0.73907
0.701789
0.685224
0.652763
0.637984
0.621897
0.594653
0.581523
0.55844
0.54744
0.527461
0.516008
1.44054
1.33516
1.24725
1.17201
1.10828
1.05154
1.00349
0.959908
0.921383
0.88672
0.847812
0.815215
0.772722
0.730534
0.710555
0.675579
0.660341
0.630574
0.617691
0.591776
0.580635
0.568267
0.546056
0.53509
0.516052
1.44056
1.33513
1.24728
1.17203
1.10812
1.05188
1.00312
0.959978
0.92124
0.889232
0.844816
0.821614
0.778755
0.754406
0.716094
0.67887
0.661627
0.631217
0.617039
0.591092
0.57946
0.557114
0.547332
0.53633
0.518328
1.44041
1.33538
1.24697
1.17243
1.10772
1.05214
1.00321
0.959657
0.920981
0.884673
0.839915
0.790946
0.76964
0.729372
0.711871
0.677504
0.661223
0.643014
0.613892
0.599712
0.575109
0.563771
0.542635
0.533719
0.523729
1.44043
1.33536
1.24689
1.1726
1.10742
1.05258
1.00249
0.961136
0.916829
0.886118
0.832679
0.812118
0.771957
0.729865
0.711116
0.67643
0.661691
0.632053
0.619222
0.593184
0.581818
0.569228
0.546808
0.535673
0.516872
1.44035
1.33548
1.24689
1.17253
1.10766
1.05218
1.00321
0.959444
0.9224
0.883986
0.849798
0.805371
0.759811
0.73915
0.701647
0.685371
0.653114
0.63846
0.622332
0.5951
0.581802
0.558703
0.547661
0.527657
0.516178
1.44055
1.33513
1.24723
1.17215
1.10795
1.05197
1.00377
0.955208
0.917602
0.861025
0.838117
0.790926
0.771861
0.731425
0.714602
0.680021
0.664632
0.643902
0.614278
0.599506
0.574594
0.562708
0.541317
0.531508
0.512913
1.44058
1.33509
1.24728
1.17209
1.10799
1.05196
1.00375
0.955199
0.917538
0.861041
0.838004
0.791229
0.772169
0.731923
0.71477
0.680091
0.664795
0.643826
0.614215
0.599432
0.574579
0.562726
0.54141
0.531671
0.513066
1.44058
1.33509
1.24733
1.17196
1.1082
1.0518
1.00317
0.959972
0.921061
0.88898
0.844261
0.821828
0.77868
0.75467
0.716618
0.679473
0.662231
0.631773
0.617285
0.591255
0.579257
0.556785
0.546901
0.53599
0.517011
1.44057
1.3351
1.24726
1.17211
1.10798
1.05197
1.00372
0.955383
0.91764
0.86136
0.838096
0.791196
0.772327
0.732055
0.715122
0.680377
0.664965
0.644264
0.614687
0.599956
0.57502
0.56315
0.541751
0.531939
0.513314
1.44053
1.33517
1.24718
1.17213
1.10815
1.05146
1.00403
0.959393
0.919215
0.882721
0.838216
0.788936
0.768377
0.728397
0.711341
0.677144
0.66293
0.632921
0.619304
0.604462
0.578768
0.565867
0.543854
0.532742
0.514928
1.44054
1.33515
1.24723
1.17204
1.10826
1.05143
1.00378
0.959708
0.921178
0.88343
0.847997
0.803702
0.758526
0.738431
0.701208
0.684868
0.652942
0.639299
0.611453
0.599316
0.585791
0.561955
0.550141
0.529507
0.517799
1.44058
1.33509
1.24732
1.17197
1.10822
1.0516
1.00387
0.957913
0.927307
0.869177
0.846232
0.798373
0.778013
0.736476
0.720926
0.688882
0.654825
0.639024
0.610824
0.597939
0.573832
0.562953
0.541898
0.532645
0.520738
1.44056
1.33511
1.24729
1.17196
1.10831
1.05151
1.00353
0.959809
0.921524
0.886477
0.848556
0.815457
0.773044
0.730401
0.710872
0.676062
0.660225
0.630321
0.617239
0.591374
0.580221
0.567906
0.545723
0.534866
0.516129
1.44053
1.33517
1.24724
1.17205
1.10817
1.05173
1.00333
0.959849
0.920953
0.89081
0.837515
0.820614
0.773536
0.752692
0.715916
0.679204
0.66187
0.631479
0.617662
0.591738
0.580371
0.557871
0.54812
0.536972
0.518426
1.44054
1.33515
1.24723
1.17202
1.1083
1.05142
1.00366
0.960048
0.920953
0.882075
0.848176
0.804061
0.758431
0.738067
0.700397
0.684246
0.652259
0.638426
0.610582
0.598452
0.585172
0.561303
0.549763
0.52911
0.517496
1.41308
1.26576
1.14635
1.04804
0.96527
0.895428
0.834404
0.782762
0.734281
0.696806
0.652345
0.62974
0.592923
0.544583
0.527195
0.510782
0.477099
0.456189
0.439754
0.424568
0.410412
0.397096
0.38444
0.372484
0.361171
1.41302
1.26589
1.14615
1.04832
0.964963
0.895601
0.834652
0.781575
0.736032
0.694938
0.653052
0.629236
0.593631
0.547061
0.525642
0.507287
0.480215
0.460318
0.443055
0.427229
0.412478
0.398712
0.385722
0.373523
0.362037
1.41305
1.26582
1.14628
1.04809
0.96527
0.895302
0.834727
0.782173
0.735155
0.694427
0.661041
0.610819
0.585349
0.571361
0.53599
0.498213
0.475989
0.45853
0.442052
0.426599
0.412029
0.398414
0.385552
0.373441
0.362012
1.41309
1.26575
1.14632
1.04813
0.965053
0.895824
0.833825
0.783074
0.73478
0.693842
0.662017
0.612299
0.583584
0.570602
0.52929
0.498419
0.481085
0.462474
0.443805
0.427306
0.411994
0.397865
0.384723
0.372574
0.361239
1.41303
1.26586
1.14626
1.04814
0.965179
0.895494
0.834457
0.782223
0.735461
0.694333
0.659125
0.616723
0.591536
0.569748
0.526604
0.495419
0.477985
0.460299
0.443163
0.427026
0.411931
0.39788
0.384769
0.372569
0.361168
1.41296
1.26599
1.14606
1.04838
0.964958
0.895587
0.834517
0.782175
0.734747
0.695996
0.65613
0.613069
0.598499
0.568413
0.526969
0.493889
0.476423
0.45915
0.442682
0.427128
0.412531
0.398833
0.385893
0.373758
0.362303
1.41309
1.26575
1.14633
1.04809
0.965123
0.895724
0.833857
0.783371
0.733859
0.695898
0.659186
0.608253
0.59412
0.566587
0.52201
0.502131
0.485037
0.460473
0.442331
0.425853
0.410775
0.396916
0.3841
0.372166
0.360972
1.41306
1.26579
1.14637
1.04797
0.965427
0.895169
0.834778
0.782219
0.734891
0.696077
0.65568
0.613618
0.597992
0.562624
0.519472
0.499332
0.482348
0.462077
0.442891
0.426444
0.411307
0.397384
0.384441
0.372489
0.361326
1.41303
1.26585
1.14625
1.04813
0.965243
0.895309
0.834748
0.78218
0.734635
0.696465
0.655854
0.611493
0.59909
0.566414
0.524568
0.493975
0.476348
0.459317
0.443043
0.427616
0.413074
0.399368
0.386378
0.374172
0.362639
1.41297
1.26596
1.14615
1.04825
0.965107
0.895487
0.834542
0.782177
0.735154
0.695106
0.656537
0.619361
0.599908
0.563516
0.520646
0.4989
0.480841
0.462172
0.444619
0.428277
0.413091
0.399003
0.385883
0.37368
0.362272
1.41305
1.26582
1.14634
1.04802
0.965373
0.895199
0.83486
0.781888
0.735433
0.695643
0.652669
0.617082
0.597517
0.560012
0.516022
0.499015
0.482387
0.461467
0.442607
0.426102
0.410914
0.396949
0.383963
0.371928
0.36067
1.41307
1.26578
1.14637
1.04798
0.965398
0.895183
0.834874
0.781869
0.735488
0.695681
0.65241
0.61715
0.597511
0.559139
0.516279
0.499654
0.483271
0.461539
0.442564
0.426001
0.410781
0.396802
0.383816
0.371773
0.360538
1.41308
1.26576
1.14637
1.04802
0.965271
0.895525
0.834119
0.783122
0.733791
0.697237
0.653914
0.613284
0.599447
0.561342
0.517949
0.502589
0.486257
0.458298
0.440848
0.424824
0.41004
0.396373
0.383684
0.371837
0.360706
1.41307
1.26578
1.14635
1.04802
0.965356
0.895211
0.834872
0.781848
0.735462
0.69572
0.652523
0.617363
0.597653
0.558391
0.51704
0.500349
0.483699
0.461716
0.442882
0.426278
0.411025
0.397016
0.383999
0.371927
0.360663
1.413
1.26592
1.14611
1.04832
0.965002
0.895509
0.83471
0.781658
0.735501
0.695543
0.655162
0.61492
0.598355
0.561321
0.517156
0.499052
0.480379
0.462098
0.44497
0.42894
0.413877
0.39981
0.386577
0.374212
0.362588
1.41299
1.26593
1.1461
1.04836
0.964926
0.895676
0.834389
0.782121
0.735262
0.694683
0.658374
0.616389
0.598004
0.564889
0.522961
0.49948
0.480567
0.462284
0.445241
0.42944
0.414625
0.400725
0.38763
0.37531
0.36373
1.41306
1.26581
1.1463
1.04808
0.965254
0.895358
0.834664
0.782041
0.736104
0.692098
0.659982
0.627725
0.58293
0.543737
0.528354
0.513365
0.477114
0.456692
0.440104
0.424836
0.410633
0.397426
0.385002
0.373391
0.362392
1.4131
1.26573
1.14638
1.04798
0.965349
0.895316
0.834523
0.782626
0.73448
0.696428
0.653303
0.629606
0.590997
0.544411
0.531384
0.512688
0.476527
0.455821
0.439553
0.424492
0.410441
0.397229
0.384677
0.372835
0.361591
1.41303
1.26585
1.14628
1.04809
0.965266
0.89538
0.834494
0.7826
0.734244
0.69734
0.649596
0.627634
0.595927
0.548708
0.527433
0.512445
0.481253
0.457288
0.440374
0.424891
0.410567
0.397248
0.384793
0.373082
0.362007
1.41299
1.26592
1.14612
1.04831
0.965038
0.895474
0.834721
0.781861
0.735251
0.696109
0.652443
0.625004
0.599531
0.559625
0.516576
0.500795
0.480552
0.460248
0.442837
0.42687
0.412049
0.39825
0.385316
0.373192
0.361781
1.41298
1.26525
1.1447
1.04572
0.961482
0.890935
0.828552
0.775393
0.726847
0.685553
0.64659
0.61394
0.581754
0.554995
0.528132
0.506477
0.48293
0.465149
0.444508
0.430103
0.411395
0.399847
0.382628
0.372847
0.355017
1.41297
1.26526
1.14468
1.04574
0.961451
0.890956
0.828556
0.775328
0.726917
0.685482
0.646556
0.613951
0.581783
0.555004
0.528064
0.506404
0.48292
0.465192
0.444529
0.430144
0.411411
0.399902
0.382645
0.372941
0.355032
1.41297
1.26525
1.14469
1.04572
0.961481
0.890924
0.828573
0.775365
0.726837
0.685559
0.64666
0.613607
0.581758
0.555444
0.528238
0.506364
0.482882
0.465138
0.444458
0.430091
0.411359
0.399946
0.382322
0.374513
0.352789
1.41298
1.26525
1.14469
1.04572
0.961466
0.890962
0.82851
0.775422
0.726824
0.68553
0.646704
0.613635
0.581736
0.555389
0.528065
0.506371
0.483046
0.465284
0.444518
0.430101
0.41135
0.399867
0.382607
0.37291
0.354976
1.41297
1.26526
1.14468
1.04573
0.961465
0.890953
0.828538
0.775374
0.726868
0.685528
0.646598
0.613713
0.581834
0.555401
0.527983
0.506312
0.482968
0.4653
0.444488
0.430117
0.411278
0.399928
0.382282
0.37449
0.35293
1.41296
1.26528
1.14466
1.04576
0.961442
0.89096
0.828548
0.775359
0.726834
0.685582
0.646531
0.613676
0.581937
0.555381
0.528026
0.506307
0.482861
0.465187
0.444461
0.430151
0.411358
0.400005
0.38234
0.37453
0.35295
1.41298
1.26525
1.14469
1.04572
0.961469
0.890956
0.828515
0.775429
0.726794
0.685592
0.646597
0.613671
0.581886
0.555274
0.527972
0.506442
0.483066
0.465248
0.444472
0.430086
0.411328
0.399865
0.382574
0.372923
0.354925
1.41297
1.26525
1.1447
1.04571
0.961493
0.890918
0.82857
0.775364
0.72686
0.68557
0.646512
0.613749
0.581927
0.555234
0.527938
0.506424
0.483133
0.465334
0.444533
0.430093
0.411318
0.399896
0.382289
0.374494
0.352764
1.41297
1.26526
1.14469
1.04572
0.96148
0.890924
0.828579
0.775347
0.726853
0.685594
0.646536
0.613663
0.581949
0.555324
0.528012
0.50628
0.48289
0.465186
0.444519
0.430146
0.411406
0.399977
0.382363
0.37455
0.3528
1.41296
1.26527
1.14468
1.04573
0.961468
0.890939
0.828559
0.775359
0.726867
0.685523
0.646569
0.613758
0.581965
0.555243
0.527933
0.506337
0.483036
0.46527
0.444526
0.430104
0.411373
0.39997
0.382419
0.374631
0.352833
1.41297
1.26526
1.14469
1.04572
0.961481
0.890933
0.82856
0.775358
0.726894
0.685518
0.646509
0.613804
0.581881
0.555167
0.52787
0.506415
0.483074
0.465309
0.444456
0.430069
0.41124
0.399895
0.382265
0.374476
0.352885
1.41297
1.26525
1.1447
1.04571
0.961489
0.890926
0.828567
0.775351
0.726907
0.685509
0.646522
0.613796
0.581896
0.555132
0.527895
0.506409
0.483106
0.465275
0.444478
0.430023
0.411278
0.399785
0.38258
0.372843
0.354983
1.41298
1.26525
1.1447
1.04571
0.961487
0.890933
0.828547
0.775391
0.726841
0.685559
0.64656
0.613725
0.58192
0.555151
0.527969
0.506483
0.483124
0.465228
0.444467
0.430029
0.411312
0.399801
0.382587
0.372836
0.354997
1.41298
1.26525
1.14469
1.04572
0.961484
0.890929
0.828567
0.77535
0.726902
0.685517
0.646524
0.613803
0.581899
0.555131
0.527904
0.506429
0.483104
0.465276
0.44447
0.430029
0.411274
0.399798
0.382571
0.37286
0.354974
1.41296
1.26527
1.14466
1.04576
0.961438
0.890966
0.828546
0.775337
0.726877
0.685551
0.646502
0.613769
0.581931
0.555212
0.527922
0.506395
0.482967
0.465299
0.444513
0.430196
0.41135
0.400023
0.38234
0.374534
0.353029
1.41296
1.26527
1.14466
1.04575
0.96144
0.890967
0.828536
0.775363
0.726846
0.685557
0.646555
0.613733
0.581927
0.555292
0.527989
0.506384
0.482946
0.465314
0.444578
0.430302
0.411483
0.400107
0.382705
0.373238
0.355035
1.41297
1.26525
1.14469
1.04572
0.961478
0.890935
0.828552
0.775383
0.726862
0.685466
0.646709
0.613871
0.5816
0.555033
0.52821
0.506644
0.483004
0.465141
0.444421
0.430071
0.411386
0.400018
0.38245
0.374674
0.352901
1.41298
1.26525
1.1447
1.04571
0.961482
0.890934
0.828549
0.77539
0.72684
0.68554
0.646596
0.613929
0.581682
0.555038
0.528201
0.506568
0.482945
0.465178
0.44447
0.430113
0.411348
0.399934
0.382315
0.37452
0.352802
1.41297
1.26526
1.14468
1.04573
0.961475
0.890939
0.828546
0.775391
0.726834
0.685533
0.646547
0.613895
0.581783
0.555062
0.528087
0.506574
0.482966
0.465178
0.44441
0.430109
0.411337
0.399959
0.382626
0.373119
0.354992
1.41297
1.26526
1.14467
1.04574
0.961459
0.89094
0.828575
0.775344
0.72691
0.685557
0.64654
0.613889
0.581995
0.55517
0.527994
0.506392
0.482958
0.465197
0.444523
0.430138
0.411411
0.399966
0.382362
0.374557
0.352771
1.41296
1.26526
1.14463
1.04569
0.961331
0.890837
0.828299
0.775167
0.726484
0.685176
0.6461
0.613299
0.581093
0.554648
0.527475
0.505961
0.482496
0.464944
0.444229
0.429981
0.411253
0.39984
0.382654
0.372879
0.355114
1.41296
1.26527
1.14462
1.0457
0.961324
0.890846
0.828291
0.775168
0.726471
0.685175
0.64608
0.6133
0.581072
0.554651
0.527449
0.505965
0.482469
0.464953
0.444198
0.429992
0.411218
0.39986
0.382605
0.372947
0.355041
1.41296
1.26527
1.14463
1.04569
0.961326
0.890843
0.828292
0.775168
0.726469
0.685177
0.646081
0.613293
0.581073
0.554657
0.527452
0.505965
0.482468
0.46495
0.444191
0.429991
0.411201
0.399916
0.382302
0.374555
0.352822
1.41296
1.26527
1.14463
1.04569
0.961326
0.890844
0.828291
0.775169
0.726471
0.685175
0.646083
0.613292
0.581076
0.554653
0.527451
0.505961
0.482475
0.464949
0.444199
0.429983
0.411219
0.399852
0.382612
0.372934
0.355041
1.41296
1.26527
1.14462
1.0457
0.96132
0.890853
0.828282
0.775177
0.72646
0.685186
0.646066
0.613308
0.581057
0.554671
0.527425
0.505982
0.482447
0.464981
0.444166
0.43002
0.411173
0.399899
0.382537
0.373072
0.35493
1.41296
1.26527
1.14462
1.0457
0.961322
0.890848
0.828288
0.77517
0.726466
0.68518
0.646074
0.613297
0.581072
0.554656
0.527445
0.505964
0.482466
0.46495
0.444193
0.429989
0.411206
0.39991
0.382308
0.374562
0.352779
1.41296
1.26527
1.14462
1.0457
0.961325
0.890846
0.828288
0.775171
0.726467
0.685179
0.646078
0.613298
0.581073
0.554655
0.527444
0.505968
0.482469
0.464956
0.444192
0.429994
0.411201
0.399917
0.382301
0.374555
0.35282
1.41296
1.26527
1.14463
1.04569
0.961329
0.890841
0.828295
0.775165
0.726475
0.685172
0.646083
0.613292
0.581081
0.554646
0.527452
0.505959
0.482483
0.46495
0.444208
0.42998
0.411226
0.399841
0.382624
0.372913
0.355052
1.41296
1.26527
1.14463
1.04569
0.961328
0.890841
0.828295
0.775164
0.726475
0.685174
0.646083
0.613291
0.581081
0.554649
0.527453
0.505957
0.482475
0.464946
0.444202
0.429983
0.411223
0.399851
0.382616
0.372933
0.355046
1.41296
1.26527
1.14463
1.04569
0.961327
0.890843
0.828293
0.775167
0.726473
0.685173
0.646082
0.613293
0.581079
0.554649
0.527449
0.505959
0.482477
0.464951
0.4442
0.429984
0.411207
0.399908
0.382312
0.374567
0.35279
1.41296
1.26527
1.14462
1.0457
0.961321
0.890852
0.828282
0.775177
0.726461
0.685184
0.646066
0.61331
0.581058
0.554666
0.527425
0.505984
0.482451
0.464981
0.444167
0.430017
0.411166
0.39994
0.382282
0.374535
0.352942
1.41296
1.26527
1.14463
1.04569
0.961326
0.890845
0.82829
0.775169
0.726471
0.685174
0.646079
0.613297
0.581074
0.554649
0.527445
0.505964
0.482476
0.464954
0.444198
0.429982
0.411214
0.399846
0.382611
0.372924
0.355048
1.41296
1.26527
1.14463
1.04569
0.961328
0.890841
0.828294
0.775166
0.726475
0.685172
0.646084
0.613292
0.58108
0.554644
0.527453
0.50596
0.482481
0.464946
0.444204
0.429978
0.411223
0.399844
0.382615
0.372915
0.355062
1.41296
1.26527
1.14463
1.04569
0.961328
0.890842
0.828293
0.775166
0.726475
0.685171
0.646083
0.613294
0.581079
0.554645
0.527451
0.50596
0.482481
0.464949
0.444203
0.429977
0.411219
0.399843
0.382614
0.372916
0.355063
1.41296
1.26527
1.14462
1.0457
0.961321
0.890849
0.828287
0.775171
0.726467
0.685179
0.646073
0.613301
0.58107
0.554657
0.527441
0.505969
0.482466
0.464959
0.44419
0.429994
0.411208
0.399862
0.3826
0.372958
0.355023
1.41296
1.26527
1.14462
1.0457
0.961322
0.890849
0.828287
0.775171
0.726466
0.685179
0.646074
0.613299
0.581071
0.554656
0.527444
0.505966
0.482467
0.464956
0.444195
0.429997
0.411208
0.399921
0.38231
0.374566
0.352816
1.41296
1.26527
1.14462
1.0457
0.961324
0.890846
0.828288
0.775172
0.726466
0.685178
0.64608
0.613299
0.581066
0.554652
0.527448
0.505973
0.482469
0.464953
0.444189
0.42999
0.411203
0.399916
0.382314
0.374568
0.352798
1.41296
1.26527
1.14462
1.0457
0.961324
0.890847
0.828287
0.775172
0.726465
0.68518
0.646076
0.613304
0.581063
0.554658
0.527443
0.505977
0.482458
0.464966
0.444182
0.430008
0.411195
0.399883
0.382566
0.373032
0.354967
1.41296
1.26527
1.14462
1.0457
0.961325
0.890845
0.82829
0.77517
0.72647
0.685176
0.646082
0.613299
0.581073
0.554651
0.527453
0.505968
0.482476
0.464952
0.444202
0.429987
0.411226
0.399856
0.382623
0.372929
0.355072
1.41296
1.26527
1.14462
1.0457
0.961325
0.890844
0.828292
0.775188
0.726485
0.685209
0.646099
0.61334
0.581098
0.554698
0.52747
0.506016
0.482488
0.465006
0.44421
0.430051
0.411216
0.399975
0.382322
0.374574
0.35296
1.41296
1.26527
1.14461
1.04567
0.961288
0.890802
0.828236
0.775115
0.726408
0.685112
0.646011
0.613222
0.580995
0.554568
0.527366
0.505871
0.482386
0.464854
0.444115
0.429888
0.411142
0.399757
0.38255
0.372825
0.355009
1.41296
1.26527
1.14461
1.04568
0.96128
0.890813
0.828223
0.775122
0.726387
0.685119
0.645984
0.613231
0.580962
0.554581
0.527327
0.50589
0.48234
0.464881
0.44406
0.429928
0.411068
0.399861
0.382186
0.374446
0.352927
1.41296
1.26527
1.14461
1.04568
0.961286
0.890806
0.828232
0.775114
0.726398
0.685108
0.645998
0.613217
0.580979
0.554562
0.527348
0.505866
0.482366
0.464851
0.444093
0.429888
0.411118
0.39976
0.382522
0.37286
0.354948
1.41296
1.26527
1.14461
1.04567
0.961288
0.890803
0.828235
0.775111
0.726402
0.685104
0.646003
0.613212
0.580985
0.554557
0.527355
0.50586
0.482374
0.464844
0.444101
0.429881
0.411116
0.39981
0.38222
0.374478
0.352695
1.41296
1.26527
1.14461
1.04568
0.961282
0.89081
0.828227
0.775119
0.726392
0.685114
0.64599
0.613225
0.580969
0.554572
0.527335
0.505879
0.48235
0.464868
0.444072
0.429912
0.411081
0.399843
0.382198
0.374453
0.352848
1.41296
1.26527
1.1446
1.04568
0.96128
0.890813
0.828223
0.775122
0.726387
0.685118
0.645984
0.613229
0.580963
0.554578
0.527329
0.505885
0.482343
0.464875
0.444064
0.429917
0.411083
0.399801
0.38246
0.372974
0.354861
1.41296
1.26527
1.14461
1.04568
0.961282
0.89081
0.828227
0.775119
0.726392
0.685114
0.64599
0.613224
0.58097
0.554571
0.527336
0.505878
0.482352
0.464866
0.444075
0.429907
0.411095
0.399788
0.382477
0.372937
0.354905
1.41296
1.26527
1.14461
1.04567
0.961288
0.890803
0.828235
0.77511
0.726402
0.685104
0.646003
0.613212
0.580985
0.554557
0.527354
0.50586
0.482374
0.464844
0.444101
0.42988
0.411127
0.399753
0.382528
0.372835
0.354986
1.41296
1.26526
1.14461
1.04567
0.961289
0.890801
0.828238
0.775108
0.726405
0.685101
0.646006
0.613209
0.580989
0.554553
0.527359
0.505856
0.482379
0.464838
0.444108
0.429873
0.411136
0.399742
0.382545
0.372804
0.355019
1.41296
1.26527
1.14461
1.04567
0.961287
0.890804
0.828234
0.775112
0.726401
0.685105
0.646001
0.613214
0.580983
0.554559
0.527352
0.505863
0.482371
0.464847
0.444098
0.429884
0.411122
0.399757
0.382524
0.372851
0.354963
1.41296
1.26527
1.14461
1.04568
0.961281
0.890812
0.828224
0.775122
0.726388
0.685117
0.645985
0.613229
0.580963
0.554578
0.527328
0.505887
0.482342
0.464877
0.444062
0.429921
0.411078
0.399807
0.382449
0.372989
0.354851
1.41296
1.26527
1.14461
1.04568
0.961284
0.890808
0.828229
0.775117
0.726394
0.685112
0.645993
0.613222
0.580972
0.554569
0.527339
0.505876
0.482354
0.464865
0.444077
0.429908
0.411086
0.39984
0.382198
0.374454
0.352838
1.41296
1.26527
1.14461
1.04567
0.961288
0.890803
0.828235
0.775111
0.726401
0.685105
0.646002
0.613214
0.580983
0.554559
0.527353
0.505862
0.482371
0.464847
0.444098
0.429886
0.411112
0.399814
0.382219
0.374476
0.352709
1.41296
1.26527
1.14461
1.04567
0.961287
0.890804
0.828234
0.775111
0.726401
0.685105
0.646001
0.613214
0.580983
0.554559
0.527352
0.505863
0.482371
0.464847
0.444097
0.429886
0.411112
0.399814
0.382219
0.374475
0.35271
1.41296
1.26527
1.14461
1.04568
0.961281
0.890812
0.828224
0.775121
0.726388
0.685117
0.645985
0.613229
0.580964
0.554578
0.527329
0.505886
0.482342
0.464877
0.444062
0.429922
0.41107
0.399854
0.38219
0.374447
0.352896
1.41296
1.26527
1.14461
1.04568
0.961282
0.890811
0.828226
0.775119
0.726391
0.685114
0.645989
0.613225
0.580968
0.554573
0.527335
0.505879
0.48235
0.464868
0.444073
0.429909
0.411092
0.399791
0.382475
0.372948
0.354889
1.41296
1.26527
1.14461
1.04568
0.961282
0.890811
0.828226
0.77512
0.72639
0.685115
0.645988
0.613226
0.580967
0.554574
0.527333
0.505882
0.482347
0.464871
0.444069
0.429914
0.411087
0.399798
0.382463
0.372965
0.354876
1.41296
1.26527
1.14461
1.04567
0.961287
0.890804
0.828233
0.775112
0.7264
0.685106
0.646001
0.613214
0.580982
0.554559
0.527352
0.505862
0.482371
0.464846
0.444099
0.429882
0.411125
0.399755
0.382526
0.372839
0.354981
1.41296
1.26527
1.14461
1.04568
0.961284
0.890807
0.82823
0.775116
0.726396
0.685112
0.645995
0.613223
0.580976
0.554571
0.527343
0.505879
0.482359
0.464868
0.444082
0.429911
0.4111
0.399796
0.382476
0.372952
0.354908
1.41296
1.26526
1.14461
1.04567
0.961291
0.890799
0.82824
0.775127
0.726422
0.685132
0.64603
0.613247
0.581017
0.554595
0.527389
0.5059
0.482408
0.464885
0.444136
0.42992
0.411162
0.399791
0.382566
0.372874
0.355004
1.41296
1.26527
1.1446
1.04566
0.961266
0.890785
0.828202
0.775092
0.726364
0.685084
0.64596
0.613192
0.580937
0.554538
0.527302
0.505843
0.482316
0.46483
0.444038
0.429871
0.411058
0.399753
0.382438
0.372901
0.354868
1.41296
1.26527
1.1446
1.04567
0.961266
0.890786
0.828201
0.775086
0.726359
0.685075
0.645953
0.613181
0.58093
0.554526
0.527295
0.50583
0.482309
0.464817
0.444032
0.429858
0.411052
0.39974
0.382434
0.372888
0.354865
1.41296
1.26526
1.1446
1.04566
0.961268
0.890783
0.828205
0.775082
0.726364
0.68507
0.645959
0.613174
0.580937
0.554517
0.527304
0.505819
0.48232
0.464803
0.444046
0.42984
0.411069
0.399716
0.382465
0.372817
0.354908
1.41296
1.26526
1.1446
1.04566
0.961268
0.890782
0.828206
0.775082
0.726365
0.685069
0.64596
0.613173
0.580938
0.554516
0.527305
0.505817
0.482322
0.4648
0.444049
0.429838
0.411064
0.399765
0.382172
0.374429
0.352653
1.41296
1.26526
1.1446
1.04566
0.961269
0.890781
0.828207
0.77508
0.726367
0.685067
0.645963
0.61317
0.580942
0.554511
0.52731
0.505812
0.482329
0.464793
0.444057
0.429829
0.411074
0.399754
0.382183
0.374436
0.352592
1.41296
1.26527
1.1446
1.04567
0.961263
0.89079
0.828196
0.775091
0.726353
0.68508
0.645945
0.613188
0.58092
0.554533
0.527283
0.50584
0.482295
0.464829
0.444015
0.429874
0.411023
0.399805
0.382143
0.3744
0.352845
1.41296
1.26527
1.1446
1.04567
0.961264
0.890789
0.828198
0.775089
0.726355
0.685078
0.645948
0.613185
0.580923
0.55453
0.527287
0.505836
0.4823
0.464823
0.444021
0.429865
0.411039
0.399749
0.382416
0.372915
0.354834
1.41296
1.26526
1.1446
1.04566
0.961268
0.890783
0.828205
0.775082
0.726364
0.68507
0.645959
0.613174
0.580937
0.554517
0.527303
0.505819
0.48232
0.464803
0.444046
0.429841
0.41106
0.399771
0.382166
0.374425
0.352689
1.41296
1.26526
1.1446
1.04566
0.96127
0.89078
0.828208
0.77508
0.726367
0.685067
0.645963
0.613171
0.580941
0.554513
0.527308
0.505815
0.482325
0.464798
0.444052
0.429834
0.411077
0.399707
0.382479
0.372799
0.354921
1.41296
1.26526
1.1446
1.04566
0.961268
0.890783
0.828205
0.775082
0.726364
0.68507
0.645958
0.613175
0.580936
0.554517
0.527303
0.505819
0.48232
0.464803
0.444046
0.429841
0.41106
0.39977
0.382166
0.374426
0.352683
1.41296
1.26526
1.1446
1.04566
0.961269
0.890782
0.828207
0.77508
0.726366
0.685067
0.645962
0.613171
0.58094
0.554513
0.527308
0.505813
0.482327
0.464795
0.444054
0.429831
0.411071
0.399757
0.382178
0.374434
0.352613
1.41296
1.26526
1.1446
1.04566
0.96127
0.890781
0.828207
0.77508
0.726367
0.685067
0.645962
0.613171
0.580941
0.554513
0.527308
0.505814
0.482326
0.464797
0.444052
0.429835
0.411068
0.399761
0.382177
0.374431
0.352634
1.41296
1.26526
1.1446
1.04566
0.961271
0.890779
0.828209
0.775078
0.726369
0.685065
0.645964
0.613169
0.580943
0.554511
0.527311
0.505812
0.482329
0.464795
0.444056
0.42983
0.411082
0.3997
0.382491
0.372783
0.354931
1.41296
1.26526
1.1446
1.04566
0.961271
0.890779
0.82821
0.775077
0.72637
0.685064
0.645966
0.613168
0.580945
0.554509
0.527313
0.50581
0.482331
0.464792
0.444059
0.429827
0.411086
0.399697
0.382494
0.37277
0.354952
1.41296
1.26526
1.1446
1.04566
0.96127
0.890781
0.828207
0.77508
0.726367
0.685067
0.645963
0.613171
0.580941
0.554512
0.527309
0.505813
0.482328
0.464795
0.444055
0.429829
0.411083
0.399699
0.382492
0.372772
0.354951
1.41296
1.26526
1.1446
1.04566
0.961269
0.890781
0.828207
0.77508
0.726366
0.685067
0.645962
0.613172
0.58094
0.554513
0.527308
0.505815
0.482325
0.464797
0.444052
0.429833
0.411077
0.399706
0.382479
0.37279
0.354936
1.41296
1.26526
1.1446
1.04566
0.961268
0.890782
0.828205
0.775082
0.726364
0.685069
0.645959
0.613174
0.580937
0.554516
0.527304
0.505819
0.482321
0.464802
0.444046
0.429841
0.41106
0.39977
0.382167
0.374426
0.352686
1.41296
1.26526
1.1446
1.04566
0.961268
0.890782
0.828206
0.775082
0.726365
0.685069
0.64596
0.613174
0.580938
0.554516
0.527305
0.505818
0.482322
0.464801
0.444048
0.429839
0.411063
0.399767
0.382172
0.374429
0.35266
1.41296
1.26527
1.1446
1.04566
0.961266
0.890786
0.828201
0.775087
0.726359
0.685076
0.645953
0.613184
0.58093
0.554529
0.527294
0.505835
0.482308
0.464824
0.44403
0.429868
0.411039
0.3998
0.382156
0.374411
0.352807
1.41296
1.26526
1.14461
1.04566
0.961275
0.890774
0.828215
0.775093
0.726391
0.685091
0.645995
0.613201
0.580979
0.554546
0.52735
0.505848
0.482369
0.46483
0.444096
0.429866
0.411112
0.399792
0.382216
0.374472
0.352645
1.41296
1.26526
1.1446
1.04565
0.96126
0.890765
0.828191
0.775064
0.726349
0.685049
0.645943
0.613152
0.58092
0.554493
0.527288
0.505794
0.482305
0.464776
0.444032
0.429813
0.411048
0.399741
0.382154
0.374412
0.352619
1.41296
1.26526
1.1446
1.04566
0.961258
0.890767
0.828188
0.77506
0.726342
0.685043
0.645934
0.613144
0.58091
0.554485
0.527276
0.505786
0.482293
0.464769
0.444019
0.429805
0.411045
0.399678
0.382448
0.372771
0.35489
1.41296
1.26526
1.1446
1.04566
0.961257
0.890769
0.828186
0.775062
0.726339
0.685045
0.64593
0.613146
0.580905
0.554487
0.527271
0.505788
0.482287
0.464771
0.444013
0.42981
0.411028
0.399739
0.382135
0.374395
0.352653
1.41296
1.26527
1.1446
1.04566
0.961252
0.890775
0.828179
0.775069
0.72633
0.685054
0.645918
0.613158
0.58089
0.554502
0.527252
0.505807
0.482264
0.464796
0.443985
0.429838
0.411003
0.399723
0.38238
0.372899
0.35478
1.41296
1.26526
1.1446
1.04566
0.961257
0.890769
0.828187
0.775061
0.72634
0.685044
0.64593
0.613146
0.580905
0.554487
0.52727
0.505789
0.482286
0.464773
0.444011
0.429813
0.411025
0.399742
0.382135
0.374393
0.352667
1.41296
1.26526
1.1446
1.04566
0.961258
0.890768
0.828188
0.77506
0.726342
0.685042
0.645933
0.613143
0.580909
0.554483
0.527275
0.505783
0.482293
0.464765
0.44402
0.4298
0.411048
0.399669
0.382459
0.372751
0.354904
1.41296
1.26526
1.1446
1.04566
0.961257
0.890768
0.828187
0.775061
0.726341
0.685043
0.645932
0.613144
0.580908
0.554484
0.527274
0.505785
0.482291
0.464767
0.444018
0.429802
0.411045
0.399674
0.38245
0.372754
0.354912
1.41296
1.26526
1.1446
1.04566
0.961255
0.890772
0.828183
0.775065
0.726335
0.685049
0.645924
0.613153
0.580897
0.554496
0.527259
0.505801
0.482272
0.464789
0.443993
0.429833
0.411002
0.399765
0.382119
0.374374
0.352777
1.41296
1.26526
1.1446
1.04566
0.961258
0.890767
0.828189
0.775059
0.726343
0.685041
0.645934
0.613142
0.58091
0.554482
0.527277
0.505782
0.482295
0.464763
0.444023
0.429797
0.411051
0.399667
0.382461
0.37274
0.354921
1.41296
1.26527
1.1446
1.04566
0.961252
0.890775
0.828179
0.775069
0.726329
0.685054
0.645917
0.613159
0.580889
0.554503
0.527251
0.505809
0.482262
0.464798
0.443982
0.429841
0.410998
0.399729
0.38237
0.372913
0.354771
1.41296
1.26526
1.1446
1.04566
0.961256
0.89077
0.828185
0.775063
0.726338
0.685045
0.645929
0.613147
0.580904
0.554487
0.52727
0.505788
0.482287
0.464771
0.444014
0.429808
0.41103
0.399735
0.38214
0.374398
0.352624
1.41296
1.26527
1.1446
1.04566
0.961254
0.890772
0.828182
0.775066
0.726334
0.68505
0.645923
0.613153
0.580896
0.554496
0.527259
0.5058
0.482272
0.464788
0.443993
0.429831
0.411004
0.399761
0.382124
0.374377
0.35275
1.41296
1.26526
1.1446
1.04566
0.961258
0.890767
0.828189
0.77506
0.726342
0.685042
0.645933
0.613143
0.580909
0.554484
0.527275
0.505784
0.482291
0.464767
0.444018
0.429803
0.411044
0.399676
0.382447
0.372766
0.354894
1.41296
1.26526
1.1446
1.04565
0.96126
0.890765
0.828191
0.775057
0.726345
0.685039
0.645938
0.613139
0.580914
0.554478
0.527281
0.505777
0.4823
0.464759
0.444028
0.429793
0.411055
0.399664
0.382463
0.372731
0.354937
1.41296
1.26526
1.1446
1.04566
0.961255
0.890771
0.828184
0.775064
0.726336
0.685048
0.645926
0.613151
0.5809
0.554493
0.527263
0.505796
0.482277
0.464782