/*--------------------------------*- C++ -*----------------------------------*\
  =========                 |
  \\      /  F ield         | OpenFOAM: The Open Source CFD Toolbox
   \\    /   O peration     | Website:  https://openfoam.org
    \\  /    A nd           | Version:  12
     \\/     M anipulation  |
\*---------------------------------------------------------------------------*/
FoamFile
{
    format      ascii;
    class       volScalarField;
    location    "150";
    object      p;
}
// * * * * * * * * * * * * * * * * * * * * * * * * * * * * * * * * * * * * * //

dimensions      [0 2 -2 0 0 0 0];

internalField   nonuniform List<scalar> 
5000
(
0.587381
0.431964
0.343439
0.310105
0.286341
0.261555
0.238815
0.219125
0.201467
0.18509
0.169684
0.155159
0.141328
0.12799
0.115054
0.102433
0.0900691
0.0778991
0.0658465
0.0538601
0.0419627
0.0300861
0.018082
0.00575201
-0.0112051
0.58714
0.432164
0.343472
0.310046
0.286339
0.261583
0.238851
0.219187
0.201532
0.185168
0.169803
0.155272
0.141392
0.128012
0.115032
0.102373
0.089994
0.077801
0.0657368
0.0537782
0.0419096
0.0300536
0.0180629
0.00573449
-0.0111362
0.587114
0.432216
0.343468
0.310022
0.286336
0.261599
0.238863
0.219202
0.201601
0.185246
0.169816
0.15519
0.141277
0.127941
0.114974
0.102305
0.0899427
0.0777913
0.0657623
0.0538277
0.0419485
0.030076
0.0180677
0.00572544
-0.011133
0.587105
0.43222
0.343475
0.31002
0.286336
0.261602
0.238871
0.219231
0.201667
0.185355
0.169957
0.155324
0.141347
0.127924
0.114885
0.102196
0.0898534
0.0777124
0.065684
0.0537592
0.0419217
0.0300808
0.0180665
0.00571266
-0.0111567
0.587105
0.432223
0.343482
0.31002
0.286335
0.261603
0.238867
0.219203
0.201569
0.185199
0.169818
0.155272
0.141405
0.128046
0.115002
0.102272
0.0898765
0.0777075
0.0656644
0.0537269
0.0418807
0.0300418
0.0180607
0.00573363
-0.011143
0.587107
0.432225
0.343485
0.310023
0.286335
0.261606
0.238866
0.219194
0.201577
0.185224
0.169817
0.155252
0.141385
0.128024
0.114989
0.102272
0.0898878
0.0777252
0.0656895
0.0537311
0.0418633
0.0300081
0.0180186
0.0056933
-0.0111503
0.587109
0.432228
0.343488
0.310026
0.286339
0.261608
0.238873
0.219213
0.201613
0.185287
0.16989
0.15528
0.141356
0.127964
0.114925
0.102238
0.0898819
0.0777151
0.0656677
0.0537287
0.0418791
0.030012
0.0180069
0.00566775
-0.0111808
0.587111
0.43223
0.343493
0.31003
0.286347
0.261614
0.238881
0.219209
0.201525
0.185139
0.169781
0.155276
0.141449
0.128079
0.115007
0.102264
0.0898835
0.0777102
0.0656577
0.0537211
0.0418896
0.0300654
0.0180633
0.00569268
-0.0111945
0.587113
0.432233
0.343496
0.310035
0.286355
0.261621
0.238891
0.219231
0.201549
0.185133
0.169729
0.155204
0.141385
0.128035
0.114989
0.102257
0.0898586
0.0776856
0.0656426
0.053681
0.0418213
0.029986
0.0180131
0.00569316
-0.0111545
0.587115
0.432235
0.343499
0.310039
0.286359
0.261629
0.238895
0.219218
0.201518
0.185087
0.169693
0.155184
0.14136
0.127992
0.114927
0.102194
0.089793
0.0776215
0.0655896
0.0536719
0.0418518
0.0300442
0.0180913
0.0057724
-0.0111268
0.587116
0.432237
0.343501
0.310043
0.286363
0.261636
0.238912
0.219241
0.20159
0.185211
0.169797
0.155238
0.141364
0.127945
0.114842
0.102095
0.0897228
0.0775707
0.0655514
0.05365
0.0418469
0.030051
0.0181077
0.00578764
-0.0111347
0.587117
0.432238
0.343501
0.310045
0.286364
0.261639
0.238918
0.219256
0.201628
0.185265
0.169836
0.155239
0.14133
0.127887
0.114779
0.102043
0.0896884
0.0775482
0.0655388
0.0536496
0.0418573
0.0300678
0.0181262
0.00580497
-0.0111249
0.587117
0.432238
0.343501
0.310044
0.286361
0.261635
0.238905
0.219241
0.201633
0.185281
0.169834
0.155177
0.141222
0.127786
0.114729
0.102073
0.0897563
0.0776252
0.0656171
0.0537259
0.0419218
0.03009
0.0181095
0.00577078
-0.0111352
0.587116
0.432237
0.343499
0.310041
0.286357
0.261626
0.238894
0.219214
0.201574
0.185215
0.169806
0.155227
0.141332
0.127905
0.11482
0.10211
0.0897665
0.0776261
0.0656052
0.0536987
0.0418889
0.0300828
0.0181257
0.00579483
-0.0111312
0.587115
0.432235
0.343496
0.310036
0.28635
0.261615
0.238859
0.219143
0.201454
0.185078
0.169706
0.155178
0.14133
0.127952
0.114913
0.10223
0.0898797
0.0777152
0.0656707
0.0537391
0.0419065
0.0300843
0.0181121
0.00577926
-0.0111185
0.587113
0.432232
0.343492
0.310031
0.286342
0.261603
0.238843
0.21913
0.201459
0.185071
0.169688
0.155168
0.141323
0.127963
0.114956
0.102285
0.0899352
0.0777857
0.0657247
0.0537654
0.0419091
0.0300666
0.0180801
0.00574281
-0.0111167
0.587113
0.432228
0.343483
0.310027
0.286337
0.261594
0.238844
0.219176
0.201585
0.185243
0.169826
0.155245
0.141303
0.127865
0.114893
0.102273
0.0899218
0.0777624
0.0657231
0.0537817
0.0419323
0.0300825
0.0180643
0.00570796
-0.011148
0.587121
0.432222
0.343474
0.310024
0.286333
0.261586
0.238834
0.219156
0.201541
0.185183
0.169765
0.15521
0.141332
0.127955
0.115008
0.102385
0.0900161
0.0778396
0.0657801
0.0537921
0.0418976
0.0300209
0.0180132
0.00568181
-0.0111552
0.587146
0.432169
0.343475
0.310046
0.286331
0.261571
0.238823
0.219161
0.201571
0.185243
0.169836
0.155245
0.141318
0.127915
0.114953
0.102341
0.0899918
0.077822
0.0657693
0.053812
0.0419365
0.0300408
0.0180157
0.00567618
-0.0111649
0.587386
0.431967
0.343441
0.310103
0.286335
0.261542
0.23879
0.219093
0.201446
0.185084
0.169724
0.155234
0.141407
0.128046
0.115057
0.102416
0.090067
0.0778977
0.0657997
0.0537975
0.0418979
0.0300162
0.0180088
0.00568486
-0.0112169
0.440864
0.376423
0.327732
0.305652
0.285692
0.264256
0.244124
0.225934
0.209042
0.192964
0.177562
0.162812
0.148686
0.135043
0.121752
0.108913
0.0965052
0.0842179
0.071969
0.0598479
0.0478302
0.0359704
0.0242561
0.0131044
0.00113757
0.440987
0.376525
0.327717
0.305572
0.285655
0.264248
0.244124
0.225939
0.20904
0.192953
0.177585
0.162868
0.148721
0.135053
0.121755
0.108919
0.096511
0.0842275
0.0719389
0.059771
0.0477672
0.0359229
0.0242245
0.0130834
0.00114961
0.44101
0.376539
0.327699
0.305547
0.28565
0.264257
0.244139
0.225972
0.209108
0.193048
0.177664
0.162913
0.148697
0.134965
0.121647
0.108832
0.0964294
0.0841356
0.0718792
0.0597477
0.0477926
0.0359557
0.0242586
0.0131179
0.00116598
0.441015
0.376552
0.327707
0.305547
0.28565
0.26426
0.244148
0.225991
0.209148
0.193099
0.177723
0.16299
0.148784
0.135014
0.121642
0.108799
0.0963588
0.0840396
0.0717828
0.0596507
0.0476894
0.035898
0.0242564
0.0131236
0.00116704
0.441019
0.376557
0.327711
0.305547
0.285648
0.264258
0.24414
0.225968
0.209105
0.193041
0.177643
0.162926
0.148743
0.135
0.121682
0.108853
0.0964259
0.0840781
0.0717986
0.059655
0.047679
0.0358737
0.024211
0.013094
0.00115071
0.441021
0.37656
0.327715
0.305549
0.285649
0.264259
0.244141
0.225971
0.209114
0.193068
0.177676
0.16292
0.148725
0.134984
0.12167
0.108833
0.096392
0.0840686
0.0718105
0.059695
0.0477073
0.0358908
0.0242147
0.0130888
0.00116447
0.441023
0.376563
0.327718
0.305553
0.285654
0.264264
0.244148
0.225979
0.209122
0.193085
0.177716
0.162986
0.148763
0.134984
0.121671
0.108812
0.0963372
0.0840033
0.0717391
0.0596069
0.0476514
0.0358834
0.0242157
0.0130927
0.00116734
0.441026
0.376566
0.327722
0.305558
0.285659
0.26427
0.244145
0.22595
0.209047
0.192974
0.17763
0.162932
0.148761
0.135051
0.121761
0.108905
0.0963872
0.0840252
0.0717449
0.0596003
0.0476312
0.0358556
0.0242445
0.0131497
0.00119487
0.441028
0.376568
0.327725
0.305562
0.285665
0.264276
0.244153
0.22596
0.20905
0.192983
0.177607
0.162865
0.148694
0.134983
0.121686
0.108847
0.0963905
0.0840526
0.0717838
0.0596611
0.0476692
0.0358545
0.0241935
0.0130816
0.00115876
0.441029
0.376571
0.327728
0.305566
0.28567
0.264282
0.244157
0.225957
0.209046
0.192952
0.177547
0.162836
0.148672
0.13497
0.121677
0.108831
0.096378
0.0840179
0.0717365
0.0596012
0.0476427
0.0358585
0.024215
0.013116
0.00116415
0.441031
0.376572
0.32773
0.305569
0.285674
0.264288
0.244165
0.225953
0.209051
0.192969
0.177583
0.162852
0.148661
0.134954
0.121662
0.108801
0.0962902
0.0839491
0.0716952
0.0595789
0.047638
0.0358635
0.0242243
0.0131294
0.00119009
0.441031
0.376573
0.32773
0.30557
0.285676
0.264291
0.244171
0.225964
0.209068
0.192989
0.1776
0.162856
0.148646
0.134925
0.12163
0.108766
0.0962515
0.083921
0.071679
0.0595732
0.0476443
0.0358817
0.0242465
0.013152
0.00120896
0.441031
0.376573
0.32773
0.305569
0.285674
0.264288
0.244169
0.22598
0.209097
0.193027
0.177632
0.162878
0.148636
0.13487
0.121568
0.108707
0.0962371
0.0839342
0.0717045
0.0596046
0.0476852
0.035942
0.0242812
0.0131553
0.00119933
0.44103
0.376571
0.327728
0.305566
0.285669
0.264278
0.244149
0.225934
0.209031
0.192953
0.177574
0.162844
0.148649
0.134943
0.12166
0.10881
0.096318
0.0840034
0.0717547
0.0596308
0.0476813
0.0359003
0.0242489
0.0131427
0.00120079
0.441029
0.376569
0.327725
0.305561
0.285661
0.264264
0.24412
0.225898
0.208978
0.192878
0.177508
0.162804
0.148637
0.134951
0.121676
0.10885
0.0964302
0.084155
0.0718831
0.0597233
0.0477375
0.0359247
0.0242512
0.013118
0.00117339
0.441026
0.376566
0.32772
0.305556
0.285654
0.264254
0.244113
0.225906
0.209004
0.192907
0.177502
0.162803
0.148656
0.134972
0.121684
0.108863
0.0964546
0.0841719
0.0719366
0.059766
0.0477596
0.0359304
0.0242479
0.0131136
0.001161
0.441022
0.376559
0.327714
0.305553
0.285651
0.264252
0.244121
0.225943
0.209075
0.192997
0.177605
0.162873
0.148728
0.135036
0.121663
0.108797
0.0963838
0.0841003
0.0718574
0.059719
0.0477387
0.0359343
0.0242832
0.0131428
0.00117576
0.441016
0.376545
0.327705
0.305549
0.285647
0.264246
0.244114
0.225934
0.209068
0.193004
0.177603
0.16285
0.148706
0.135032
0.121711
0.108856
0.09644
0.0841477
0.0718988
0.0597703
0.0477584
0.0359172
0.0242217
0.0130837
0.00115662
0.440992
0.376529
0.327721
0.305572
0.285649
0.264237
0.244109
0.225936
0.209076
0.193035
0.177658
0.162915
0.148721
0.134997
0.12169
0.10884
0.0964238
0.0841356
0.0718838
0.0597369
0.0477557
0.0359553
0.0242524
0.0131066
0.00116645
0.440868
0.376426
0.327734
0.30565
0.285685
0.264242
0.244103
0.22591
0.209029
0.192958
0.177566
0.162867
0.148718
0.135048
0.121774
0.108937
0.0965143
0.0842192
0.0719746
0.0597846
0.0477583
0.0359117
0.024207
0.013078
0.00111967
0.379403
0.361634
0.332385
0.30614
0.283869
0.26313
0.24371
0.225576
0.208548
0.192349
0.176882
0.162071
0.147812
0.134014
0.120381
0.107417
0.0952453
0.0830346
0.0707645
0.0586594
0.0467787
0.0351528
0.0239101
0.0133532
0.00390698
0.379377
0.361589
0.332364
0.306129
0.283872
0.263146
0.243729
0.225598
0.20857
0.192371
0.176908
0.162099
0.147829
0.134015
0.120371
0.107408
0.0952386
0.0830278
0.0707503
0.0586367
0.0467587
0.0351375
0.0239
0.0133478
0.00390974
0.379375
0.361583
0.332364
0.306127
0.283876
0.263155
0.243743
0.225618
0.208598
0.192402
0.176931
0.16211
0.147819
0.13398
0.12033
0.107374
0.0952073
0.0829977
0.0707273
0.0586209
0.0467527
0.0351361
0.0239021
0.0133529
0.00391352
0.379376
0.361581
0.33236
0.306123
0.283875
0.263158
0.24375
0.22563
0.208618
0.192427
0.176956
0.162134
0.147835
0.133976
0.120316
0.107359
0.0951792
0.0829589
0.0706881
0.0585845
0.0467202
0.0351159
0.023896
0.0133515
0.00391224
0.379377
0.361582
0.33236
0.306123
0.283875
0.263159
0.24375
0.225629
0.208617
0.192423
0.176948
0.162127
0.14783
0.133973
0.120317
0.107361
0.0951836
0.0829535
0.0706736
0.0585663
0.0467008
0.0350984
0.0238803
0.0133424
0.00390829
0.379379
0.361583
0.332361
0.306125
0.283876
0.263161
0.243752
0.225631
0.208619
0.19243
0.176959
0.162135
0.147835
0.133981
0.120326
0.107359
0.0951731
0.0829429
0.0706624
0.0585561
0.0466878
0.0350848
0.0238667
0.013332
0.00390631
0.379381
0.361586
0.332363
0.306127
0.28388
0.263164
0.243754
0.225631
0.208616
0.192429
0.176963
0.162142
0.147836
0.133976
0.120326
0.107355
0.0951508
0.0829138
0.0706318
0.058524
0.0466616
0.0350678
0.0238547
0.0133238
0.00390231
0.379383
0.361588
0.332366
0.306131
0.283884
0.263168
0.243754
0.225622
0.208596
0.192401
0.17694
0.162126
0.147831
0.133979
0.120334
0.107371
0.0951593
0.082912
0.0706254
0.0585167
0.0466549
0.0350632
0.0238608
0.0133362
0.00390801
0.379385
0.36159
0.332369
0.306134
0.283888
0.263172
0.243758
0.225621
0.208589
0.192391
0.176921
0.162101
0.147808
0.133963
0.120312
0.107344
0.0951511
0.0829127
0.0706282
0.0585226
0.0466581
0.0350616
0.0238537
0.0133277
0.00390409
0.379387
0.361592
0.332372
0.306138
0.283892
0.263177
0.243762
0.225621
0.208584
0.192373
0.176892
0.162071
0.147777
0.133932
0.120284
0.107324
0.0951338
0.0828972
0.0706184
0.0585195
0.0466683
0.0350834
0.0238813
0.0133543
0.00391588
0.379388
0.361593
0.332373
0.30614
0.283896
0.263181
0.243766
0.225622
0.208581
0.192369
0.176888
0.162057
0.147752
0.1339
0.120259
0.107302
0.0951043
0.0828765
0.0706112
0.058523
0.0466809
0.0351007
0.0238981
0.0133667
0.00392329
0.379388
0.361594
0.332374
0.306141
0.283897
0.263183
0.243768
0.225624
0.208583
0.19237
0.176886
0.162048
0.147735
0.133879
0.120239
0.107283
0.0950872
0.082868
0.0706122
0.0585316
0.046696
0.0351204
0.0239182
0.013384
0.00393389
0.379388
0.361594
0.332374
0.30614
0.283895
0.26318
0.243765
0.225623
0.208583
0.19237
0.176882
0.162043
0.147726
0.13387
0.120233
0.107275
0.0950878
0.0828806
0.0706303
0.0585503
0.0467134
0.0351366
0.0239267
0.0133844
0.00393159
0.379387
0.361593
0.332372
0.306138
0.283891
0.263173
0.243752
0.225604
0.208559
0.192347
0.176869
0.16204
0.147737
0.133892
0.12026
0.107312
0.0951274
0.0829169
0.0706594
0.0585698
0.0467222
0.035135
0.0239228
0.0133815
0.00393104
0.379386
0.361591
0.33237
0.306134
0.283885
0.263163
0.243737
0.225587
0.20854
0.192325
0.176852
0.162037
0.147749
0.133918
0.120286
0.107343
0.0951786
0.0829759
0.0707101
0.0586054
0.0467411
0.0351389
0.0239172
0.0133707
0.00392328
0.379384
0.361589
0.332368
0.30613
0.28388
0.263155
0.24373
0.225584
0.208545
0.192332
0.176855
0.162044
0.147766
0.133943
0.120309
0.107362
0.0952003
0.0829958
0.0707316
0.05862
0.046745
0.0351334
0.023907
0.0133608
0.00391684
0.379382
0.361587
0.332366
0.306128
0.283875
0.26315
0.243728
0.225591
0.208562
0.192358
0.176882
0.162063
0.147791
0.133971
0.120324
0.107362
0.0951905
0.0829859
0.0707213
0.0586145
0.046742
0.035132
0.023908
0.0133609
0.00391611
0.37938
0.361588
0.332369
0.306128
0.283873
0.263145
0.243722
0.225588
0.208563
0.192365
0.176891
0.162072
0.147803
0.133992
0.120352
0.107384
0.0952087
0.0829979
0.0707261
0.0586149
0.0467334
0.0351147
0.0238827
0.0133379
0.00390683
0.379381
0.361593
0.332367
0.306129
0.283867
0.263135
0.243714
0.225582
0.208561
0.192372
0.176908
0.162093
0.147816
0.133997
0.120364
0.107398
0.0952177
0.083003
0.0707276
0.0586111
0.0467322
0.0351181
0.023884
0.0133379
0.00390566
0.379406
0.361637
0.332386
0.306138
0.283862
0.263118
0.243694
0.225561
0.208539
0.192346
0.176885
0.162086
0.14782
0.134014
0.120386
0.107423
0.0952423
0.0830199
0.0707403
0.0586134
0.0467246
0.0351019
0.0238667
0.0133251
0.00389474
0.343465
0.334464
0.313576
0.291563
0.273103
0.256201
0.239421
0.22306
0.207436
0.192424
0.177868
0.163693
0.149875
0.13639
0.123192
0.110389
0.0979136
0.0855245
0.0732512
0.0611819
0.0493434
0.0376578
0.0264267
0.0148397
0.00600103
0.34346
0.33448
0.313618
0.291584
0.273103
0.256198
0.239423
0.223063
0.207439
0.192428
0.177873
0.163698
0.149876
0.136385
0.123182
0.110378
0.097902
0.0855124
0.0732362
0.0611646
0.0493274
0.037646
0.0264177
0.0148421
0.00599444
0.343461
0.334487
0.313628
0.291584
0.273099
0.256198
0.239427
0.22307
0.207449
0.192439
0.177881
0.1637
0.149869
0.136368
0.123161
0.110358
0.0978852
0.0854979
0.0732236
0.0611553
0.049323
0.0376462
0.0264219
0.0148501
0.00599764
0.343462
0.334489
0.313632
0.291589
0.273103
0.256203
0.239433
0.223079
0.207459
0.19245
0.177891
0.163709
0.149873
0.136364
0.123152
0.110345
0.0978679
0.0854764
0.0731997
0.0611316
0.049302
0.0376315
0.0264143
0.0148478
0.00599753
0.343463
0.33449
0.313635
0.291593
0.273105
0.256205
0.239435
0.223081
0.207461
0.19245
0.177889
0.163706
0.14987
0.136361
0.12315
0.110343
0.097862
0.0854655
0.073185
0.0611149
0.049285
0.0376161
0.0264017
0.0148395
0.00599485
0.343465
0.334492
0.313637
0.291595
0.273108
0.256207
0.239438
0.223083
0.207463
0.192454
0.177893
0.163707
0.149869
0.136359
0.123146
0.110335
0.0978514
0.0854529
0.0731719
0.0611026
0.0492736
0.0376068
0.0263949
0.0148364
0.00599292
0.343466
0.334494
0.313639
0.291598
0.273111
0.25621
0.23944
0.223084
0.207462
0.192453
0.177893
0.163707
0.149867
0.136354
0.123139
0.110325
0.0978348
0.0854329
0.0731497
0.0610805
0.0492551
0.0375937
0.0263872
0.0148336
0.00599289
0.343468
0.334496
0.313642
0.291601
0.273114
0.256213
0.239441
0.223082
0.207456
0.192443
0.177882
0.163699
0.149863
0.136354
0.123141
0.110326
0.0978326
0.0854275
0.0731428
0.0610737
0.0492496
0.0375912
0.0263899
0.0148397
0.00599776
0.34347
0.334498
0.313644
0.291604
0.273118
0.256216
0.239443
0.223081
0.207451
0.192434
0.177869
0.163684
0.149847
0.13634
0.123128
0.110315
0.097827
0.0854249
0.0731426
0.0610747
0.0492497
0.0375891
0.026385
0.0148329
0.00599238
0.343471
0.3345
0.313646
0.291607
0.273121
0.25622
0.239445
0.22308
0.207446
0.192422
0.177854
0.163666
0.149829
0.136322
0.123113
0.110303
0.0978173
0.0854187
0.0731399
0.0610759
0.0492563
0.0376005
0.0263988
0.0148451
0.0060006
0.343472
0.334501
0.313647
0.291608
0.273123
0.256222
0.239447
0.223079
0.207443
0.192419
0.17785
0.163659
0.149818
0.136309
0.1231
0.110291
0.0978057
0.0854119
0.0731385
0.0610789
0.0492629
0.0376086
0.0264058
0.0148485
0.00600082
0.343472
0.334501
0.313648
0.291609
0.273124
0.256222
0.239447
0.223079
0.207441
0.192416
0.177845
0.163651
0.149807
0.136296
0.123088
0.110281
0.0977993
0.0854112
0.0731433
0.0610887
0.0492767
0.0376248
0.0264215
0.0148615
0.00600786
0.343472
0.334501
0.313647
0.291608
0.273122
0.25622
0.239443
0.223074
0.207435
0.192409
0.177837
0.163642
0.149797
0.136287
0.123082
0.11028
0.0978056
0.0854232
0.0731585
0.0611051
0.0492925
0.0376384
0.0264305
0.0148653
0.00600707
0.343472
0.3345
0.313646
0.291606
0.273118
0.256214
0.239435
0.223063
0.207424
0.192399
0.177831
0.163643
0.149804
0.136301
0.123099
0.1103
0.0978255
0.0854423
0.0731751
0.0611167
0.0492983
0.0376388
0.0264283
0.0148624
0.00600641
0.34347
0.334498
0.313644
0.291602
0.273113
0.256206
0.239425
0.223052
0.207413
0.192388
0.177824
0.163642
0.149812
0.136315
0.123118
0.110323
0.0978536
0.0854712
0.0732017
0.0611368
0.0493098
0.0376419
0.0264251
0.0148558
0.0060008
0.343468
0.334496
0.313641
0.291598
0.273107
0.256199
0.239418
0.223047
0.20741
0.192388
0.177825
0.163646
0.149822
0.136329
0.123132
0.110338
0.097869
0.085486
0.0732158
0.0611472
0.0493147
0.0376419
0.0264222
0.0148529
0.00599842
0.343467
0.334494
0.313637
0.291592
0.273102
0.256194
0.239414
0.223047
0.207416
0.192398
0.177838
0.163659
0.149836
0.136343
0.123142
0.110341
0.0978711
0.0854885
0.0732176
0.0611501
0.0493181
0.0376454
0.0264261
0.0148574
0.00600101
0.343465
0.334491
0.313631
0.291585
0.273095
0.256188
0.239409
0.223044
0.207416
0.192403
0.177844
0.163667
0.149847
0.136358
0.12316
0.110358
0.0978853
0.0854983
0.0732237
0.0611523
0.0493152
0.0376373
0.0264143
0.0148453
0.00599465
0.343463
0.334483
0.313619
0.291583
0.273098
0.256188
0.239407
0.223043
0.207419
0.192409
0.177855
0.163679
0.149857
0.136366
0.123168
0.110364
0.0978892
0.0855002
0.073224
0.0611516
0.0493151
0.037638
0.0264146
0.0148457
0.00599649
0.343467
0.334466
0.313576
0.291561
0.273097
0.25619
0.239406
0.223044
0.207421
0.192413
0.17786
0.163689
0.149871
0.136385
0.123188
0.110385
0.0979049
0.0855101
0.0732306
0.0611526
0.0493105
0.0376277
0.0264036
0.0148276
0.00599551
0.318908
0.313595
0.300487
0.284662
0.269509
0.254563
0.238989
0.223416
0.208276
0.193531
0.179064
0.164867
0.15097
0.13738
0.124075
0.111059
0.0983326
0.0858353
0.0735248
0.0613925
0.0494731
0.0376846
0.0263502
0.0145912
0.00603438
0.318908
0.313591
0.300488
0.284653
0.269494
0.254555
0.238991
0.223421
0.208282
0.193538
0.179073
0.164875
0.150977
0.137384
0.124077
0.111059
0.0983311
0.085832
0.07352
0.0613874
0.0494686
0.0376825
0.0263476
0.0145965
0.00602525
0.318909
0.313592
0.300489
0.28465
0.269489
0.254556
0.238997
0.223428
0.208289
0.193545
0.179079
0.16488
0.150977
0.13738
0.124071
0.111053
0.0983238
0.0858238
0.0735116
0.06138
0.0494634
0.0376799
0.0263472
0.0145981
0.00602404
0.31891
0.313593
0.30049
0.28465
0.269489
0.254556
0.238999
0.223432
0.208294
0.193551
0.179085
0.164884
0.15098
0.13738
0.124068
0.111047
0.0983154
0.0858123
0.0734982
0.0613664
0.0494513
0.0376711
0.0263417
0.0145958
0.00602309
0.318911
0.313594
0.300491
0.284651
0.269489
0.254556
0.239
0.223434
0.208297
0.193553
0.179086
0.164885
0.150979
0.137378
0.124065
0.111042
0.0983075
0.0858018
0.0734857
0.0613532
0.0494387
0.0376604
0.026334
0.0145915
0.00602173
0.318912
0.313596
0.300492
0.284653
0.269491
0.254558
0.239002
0.223436
0.208298
0.193554
0.179087
0.164884
0.150977
0.137374
0.12406
0.111035
0.0982981
0.0857909
0.0734744
0.0613424
0.0494293
0.0376534
0.0263299
0.0145906
0.00602205
0.318914
0.313598
0.300494
0.284655
0.269493
0.25456
0.239003
0.223436
0.208298
0.193553
0.179085
0.164882
0.150974
0.13737
0.124054
0.111027
0.098288
0.0857788
0.0734613
0.0613297
0.0494186
0.0376457
0.0263257
0.0145893
0.00602229
0.318915
0.313599
0.300496
0.284657
0.269495
0.254562
0.239005
0.223436
0.208295
0.193548
0.179079
0.164876
0.150969
0.137366
0.124051
0.111024
0.0982833
0.0857734
0.0734557
0.0613247
0.0494151
0.0376446
0.0263272
0.0145926
0.0060247
0.318917
0.313601
0.300498
0.284659
0.269498
0.254564
0.239006
0.223435
0.208291
0.193541
0.17907
0.164865
0.150957
0.137355
0.124041
0.111015
0.0982766
0.0857684
0.073452
0.0613221
0.0494131
0.037643
0.0263256
0.0145905
0.00602284
0.318918
0.313602
0.3005
0.284661
0.2695
0.254566
0.239006
0.223433
0.208287
0.193534
0.17906
0.164854
0.150946
0.137344
0.124031
0.111007
0.0982712
0.085765
0.0734509
0.0613235
0.0494174
0.0376494
0.0263327
0.0145963
0.00602585
0.318918
0.313603
0.300501
0.284662
0.269501
0.254567
0.239007
0.223432
0.208284
0.19353
0.179055
0.164847
0.150936
0.137334
0.124023
0.111001
0.0982666
0.0857633
0.073452
0.0613271
0.0494226
0.037655
0.0263371
0.0145979
0.00602525
0.318919
0.313603
0.300501
0.284663
0.269501
0.254567
0.239006
0.22343
0.208281
0.193526
0.179049
0.16484
0.150929
0.137327
0.124017
0.110998
0.0982665
0.0857667
0.0734589
0.0613368
0.0494341
0.037667
0.0263476
0.0146056
0.00602879
0.318919
0.313603
0.300501
0.284662
0.2695
0.254564
0.239002
0.223426
0.208275
0.193519
0.179043
0.164833
0.150923
0.137323
0.124015
0.110999
0.0982714
0.0857747
0.0734688
0.0613474
0.0494443
0.0376754
0.0263531
0.0146079
0.00602867
0.318918
0.313602
0.300499
0.28466
0.269497
0.25456
0.238997
0.223419
0.208268
0.193513
0.179038
0.164832
0.150925
0.137328
0.124022
0.111008
0.0982816
0.0857856
0.0734795
0.0613566
0.0494509
0.0376794
0.0263552
0.014609
0.00602935
0.318917
0.313601
0.300497
0.284657
0.269493
0.254555
0.23899
0.223412
0.208261
0.193507
0.179034
0.164832
0.150929
0.137335
0.124031
0.111019
0.0982942
0.0857991
0.0734923
0.0613667
0.0494574
0.0376821
0.0263551
0.0146075
0.00602828
0.318915
0.313599
0.300495
0.284654
0.269489
0.25455
0.238985
0.223407
0.208258
0.193506
0.179035
0.164835
0.150936
0.137344
0.124041
0.111028
0.0983044
0.0858091
0.0735013
0.0613734
0.049461
0.0376827
0.0263539
0.0146061
0.00602756
0.318913
0.313597
0.300493
0.284651
0.269486
0.254547
0.238982
0.223405
0.208258
0.193509
0.179041
0.164842
0.150945
0.137354
0.124051
0.111037
0.0983118
0.085816
0.0735073
0.0613783
0.0494641
0.037684
0.026354
0.0146061
0.00602765
0.318912
0.313595
0.300491
0.28465
0.269485
0.254546
0.23898
0.223404
0.208259
0.193512
0.179045
0.164849
0.150953
0.137364
0.124061
0.111046
0.0983194
0.0858214
0.0735101
0.0613781
0.0494606
0.0376775
0.026346
0.0145986
0.00602409
0.31891
0.313593
0.300489
0.284652
0.269488
0.254544
0.238975
0.2234
0.208259
0.193514
0.179049
0.164854
0.150959
0.13737
0.124066
0.11105
0.0983224
0.0858233
0.0735109
0.0613777
0.0494594
0.0376756
0.0263443
0.0145974
0.00602617
0.318909
0.313596
0.300487
0.284659
0.269503
0.254552
0.238974
0.223398
0.208257
0.193512
0.179048
0.164854
0.150959
0.137371
0.124068
0.111052
0.0983231
0.0858227
0.0735089
0.0613734
0.0494532
0.0376674
0.0263383
0.0145862
0.00603278
0.301762
0.298233
0.289003
0.276423
0.262989
0.249249
0.235058
0.220678
0.2064
0.192295
0.178355
0.164599
0.151061
0.137755
0.124676
0.111828
0.0992137
0.0867975
0.074545
0.0624421
0.0505324
0.0387187
0.0273358
0.015358
0.00657457
0.301763
0.298229
0.289007
0.27643
0.262994
0.249254
0.235064
0.220684
0.206404
0.192299
0.178358
0.164601
0.151061
0.137752
0.124672
0.111824
0.0992078
0.0867911
0.0745385
0.0624362
0.0505271
0.0387153
0.0273311
0.0153619
0.00656301
0.301763
0.298229
0.28901
0.276432
0.262995
0.249257
0.235067
0.220687
0.206407
0.192302
0.17836
0.164602
0.15106
0.137749
0.124668
0.111818
0.0992012
0.0867839
0.0745315
0.0624301
0.0505224
0.0387124
0.0273295
0.0153621
0.00656076
0.301764
0.29823
0.289011
0.276434
0.262998
0.249259
0.235071
0.220691
0.206412
0.192306
0.178364
0.164604
0.151061
0.137747
0.124664
0.111812
0.0991929
0.086774
0.0745209
0.0624198
0.0505136
0.0387059
0.0273252
0.0153601
0.00655965
0.301765
0.298231
0.289012
0.276436
0.262999
0.249261
0.235074
0.220694
0.206414
0.192308
0.178365
0.164605
0.15106
0.137745
0.12466
0.111806
0.0991852
0.0867646
0.0745105
0.0624094
0.0505043
0.0386987
0.0273206
0.0153582
0.00655936
0.301766
0.298232
0.289013
0.276437
0.263001
0.249263
0.235076
0.220696
0.206415
0.192309
0.178365
0.164604
0.151058
0.137742
0.124656
0.1118
0.0991781
0.0867564
0.0745019
0.0624013
0.0504975
0.038694
0.0273182
0.015358
0.0065598
0.301767
0.298234
0.289015
0.276439
0.263003
0.249265
0.235077
0.220697
0.206416
0.192308
0.178364
0.164602
0.151054
0.137738
0.12465
0.111794
0.09917
0.0867473
0.0744925
0.0623926
0.0504903
0.0386892
0.027316
0.0153578
0.00656025
0.301768
0.298235
0.289017
0.276441
0.263005
0.249267
0.235078
0.220697
0.206414
0.192305
0.17836
0.164597
0.15105
0.137733
0.124645
0.111789
0.0991645
0.0867417
0.0744871
0.0623881
0.0504874
0.0386881
0.0273167
0.0153597
0.00656163
0.30177
0.298236
0.289018
0.276442
0.263006
0.249268
0.235079
0.220696
0.206411
0.1923
0.178353
0.16459
0.151042
0.137726
0.124638
0.111782
0.0991589
0.0867368
0.0744832
0.0623851
0.0504853
0.0386868
0.0273158
0.0153586
0.00656059
0.30177
0.298237
0.289019
0.276444
0.263008
0.249269
0.235079
0.220694
0.206407
0.192295
0.178346
0.164581
0.151033
0.137717
0.124631
0.111776
0.0991539
0.0867335
0.0744817
0.0623857
0.050488
0.0386909
0.0273203
0.0153623
0.00656252
0.301771
0.298238
0.28902
0.276444
0.263008
0.249269
0.235078
0.220692
0.206404
0.19229
0.17834
0.164574
0.151026
0.13771
0.124624
0.111771
0.0991506
0.0867321
0.0744823
0.062388
0.0504913
0.0386944
0.0273228
0.015363
0.00656196
0.301771
0.298238
0.28902
0.276444
0.263008
0.249268
0.235076
0.220689
0.2064
0.192285
0.178335
0.164568
0.15102
0.137705
0.124621
0.111769
0.0991513
0.0867353
0.0744877
0.0623951
0.0504993
0.0387022
0.0273292
0.0153671
0.00656347
0.301771
0.298238
0.28902
0.276444
0.263007
0.249266
0.235073
0.220685
0.206395
0.19228
0.178329
0.164564
0.151016
0.137702
0.12462
0.111771
0.0991552
0.0867413
0.0744952
0.062403
0.0505067
0.038708
0.027333
0.0153686
0.00656333
0.30177
0.298237
0.289018
0.276442
0.263004
0.249263
0.235069
0.22068
0.20639
0.192275
0.178326
0.164562
0.151016
0.137704
0.124624
0.111776
0.0991622
0.0867493
0.0745034
0.0624107
0.050513
0.0387127
0.0273361
0.0153707
0.00656437
0.301769
0.298236
0.289017
0.276439
0.263001
0.249258
0.235064
0.220675
0.206385
0.192271
0.178323
0.164562
0.151019
0.137709
0.124631
0.111784
0.0991716
0.0867592
0.0745128
0.0624185
0.0505186
0.0387159
0.0273374
0.0153709
0.0065643
0.301768
0.298234
0.289015
0.276437
0.262997
0.249254
0.235059
0.22067
0.206382
0.192269
0.178323
0.164564
0.151023
0.137715
0.124638
0.111792
0.0991802
0.0867677
0.0745204
0.0624245
0.0505224
0.0387177
0.0273378
0.0153709
0.00656439
0.301766
0.298232
0.289013
0.276434
0.262994
0.24925
0.235055
0.220667
0.20638
0.19227
0.178326
0.164568
0.151029
0.137723
0.124646
0.1118
0.0991875
0.0867746
0.0745264
0.062429
0.0505252
0.0387188
0.0273378
0.0153707
0.00656439
0.301765
0.298231
0.28901
0.276431
0.26299
0.249246
0.235051
0.220664
0.206379
0.192271
0.178329
0.164573
0.151036
0.137731
0.124654
0.111808
0.0991943
0.0867797
0.0745295
0.0624298
0.0505236
0.0387152
0.0273336
0.0153669
0.00656298
0.301764
0.29823
0.289007
0.276427
0.262988
0.249243
0.235048
0.220663
0.20638
0.192273
0.178333
0.164579
0.151042
0.137737
0.12466
0.111814
0.0991992
0.0867834
0.0745318
0.0624305
0.0505231
0.0387139
0.0273324
0.0153656
0.00656496
0.301763
0.298233
0.289002
0.276419
0.262982
0.249238
0.235042
0.220659
0.206378
0.192274
0.178335
0.164582
0.151046
0.137742
0.124665
0.111819
0.0992037
0.0867867
0.0745335
0.0624304
0.050522
0.0387113
0.0273323
0.0153583
0.00657497
0.289604
0.286932
0.27984
0.269654
0.258126
0.245912
0.233055
0.219704
0.206127
0.192501
0.178899
0.16537
0.151963
0.138712
0.125638
0.112753
0.100059
0.0875459
0.0752012
0.0630105
0.0510076
0.0390829
0.027572
0.0154324
0.00656126
0.289604
0.286929
0.279842
0.269657
0.258125
0.245909
0.233053
0.219703
0.206126
0.192501
0.178899
0.165371
0.151963
0.138712
0.125637
0.112751
0.100058
0.087544
0.0751994
0.0630089
0.0510061
0.0390827
0.0275698
0.0154383
0.00655042
0.289605
0.286929
0.279843
0.269658
0.258124
0.245909
0.233054
0.219704
0.206128
0.192503
0.178901
0.165372
0.151962
0.13871
0.125635
0.112748
0.100054
0.0875397
0.075195
0.063005
0.0510028
0.0390806
0.0275681
0.0154383
0.0065479
0.289605
0.28693
0.279844
0.26966
0.258125
0.245909
0.233055
0.219706
0.20613
0.192504
0.178902
0.165372
0.151961
0.138708
0.125631
0.112743
0.100048
0.0875331
0.0751882
0.0629987
0.0509976
0.039077
0.027566
0.0154376
0.00654749
0.289606
0.286931
0.279846
0.269661
0.258126
0.245911
0.233056
0.219707
0.206131
0.192505
0.178902
0.165371
0.15196
0.138705
0.125628
0.112738
0.100042
0.087526
0.0751808
0.0629917
0.0509919
0.039073
0.0275638
0.015437
0.00654746
0.289607
0.286932
0.279847
0.269662
0.258128
0.245912
0.233057
0.219708
0.206131
0.192505
0.178902
0.16537
0.151958
0.138702
0.125624
0.112733
0.100035
0.087519
0.0751737
0.0629853
0.0509869
0.0390698
0.0275626
0.0154373
0.00654795
0.289608
0.286933
0.279848
0.269664
0.258129
0.245913
0.233058