/*--------------------------------*- C++ -*----------------------------------*\
  =========                 |
  \\      /  F ield         | OpenFOAM: The Open Source CFD Toolbox
   \\    /   O peration     | Website:  https://openfoam.org
    \\  /    A nd           | Version:  12
     \\/     M anipulation  |
\*---------------------------------------------------------------------------*/
FoamFile
{
    format      ascii;
    class       surfaceScalarField;
    location    "150";
    object      phi;
}
// * * * * * * * * * * * * * * * * * * * * * * * * * * * * * * * * * * * * * //

dimensions      [0 3 -1 0 0 0 0];

internalField   nonuniform List<scalar> 
14050
(
1958.43
0.0034154
1.5621
1956.2
-0.000609216
2.23262
1953.79
-0.000560368
2.40985
1951.36
0.000430159
2.42849
1948.93
0.000255702
2.43901
1946.5
-9.71761e-05
2.42438
1944.11
-0.000346888
2.3867
1941.78
-0.000892343
2.33767
1939.49
-0.000435573
2.28339
1937.27
-0.000566406
2.2254
1935.11
-0.00294519
2.16409
1933.01
-0.00402018
2.09994
1930.97
-0.00329526
2.04632
1928.98
-0.00294203
1.99533
1927.03
-0.00153332
1.94903
1925.12
0.00104238
1.90681
1923.26
0.00214442
1.8624
1921.44
0.00312753
1.81626
1919.66
0.00400471
1.77055
1917.93
0.00285129
1.73181
1916.24
0.00123365
1.68546
1914.6
-1.99022e-05
1.63875
1913.02
-0.000649562
1.58383
1911.49
-0.000247255
1.52951
-0.00154493
1.34414
1958.44
0.000700896
1.56707
1956.2
0.00049723
2.23533
1953.79
-0.000204481
2.41102
1951.36
-8.45815e-05
2.42852
1948.92
0.000147986
2.43882
1946.5
-5.89324e-05
2.42417
1944.11
-0.000356881
2.38621
1941.77
-0.000721548
2.33751
1939.49
-0.00301361
2.28298
1937.28
-0.00470206
2.21947
1935.12
-0.00365009
2.16112
1933.01
0.00073693
2.10483
1930.95
0.00493736
2.05223
1928.94
0.00498855
2.00156
1926.98
0.0048063
1.95451
1925.06
0.00702702
1.91029
1923.19
0.00714411
1.8627
1921.37
0.00389532
1.82016
1919.6
0.000283627
1.77132
1917.88
-0.00347601
1.72447
1916.21
-0.00514759
1.67869
1914.59
-0.00584347
1.63303
1913.01
-0.00558546
1.57911
1911.49
-0.00386184
1.52553
-0.00241253
1.34165
1958.43
0.000149205
1.56643
1956.2
0.000119989
2.23539
1953.79
-0.000219477
2.41147
1951.36
-0.000170382
2.42862
1948.92
-7.17751e-05
2.43883
1946.5
-8.30374e-05
2.42417
1944.11
-0.000162347
2.38646
1941.77
-0.00056826
2.3378
1939.48
-0.00134571
2.28507
1937.25
-0.00185848
2.22632
1935.09
-0.00242641
2.16724
1932.98
-0.00309213
2.10675
1930.95
-0.00188315
2.04387
1928.96
0.000596597
1.99317
1927.01
0.00355899
1.94664
1925.11
0.00625365
1.90168
1923.26
0.00581047
1.85635
1921.45
0.00393735
1.8109
1919.68
0.00247208
1.76729
1917.95
0.00163429
1.7244
1916.25
-0.000799519
1.68793
1914.61
-0.0037724
1.64258
1913.02
-0.00469328
1.58763
1911.49
-0.00437451
1.53396
-0.00283392
1.34426
1958.43
1.46013e-05
1.56626
1956.2
-4.9116e-06
2.23512
1953.79
-0.000127471
2.41124
1951.36
-0.000136528
2.42851
1948.92
-7.63393e-05
2.43876
1946.5
-8.10675e-05
2.42416
1944.11
0.000100204
2.38638
1941.77
0.000578146
2.33778
1939.48
0.00181239
2.28601
1937.25
0.00389157
2.22622
1935.07
0.00514625
2.16828
1932.96
0.00393828
2.109
1930.9
0.000335205
2.05238
1928.9
-0.00354573
2.00191
1926.97
-0.00495621
1.94553
1925.08
-0.00468184
1.8971
1923.24
-0.00286684
1.85058
1921.44
-0.00173501
1.80562
1919.68
-0.000782773
1.76273
1917.96
0.000166513
1.72145
1916.28
0.000832993
1.67993
1914.64
0.00136643
1.63677
1913.04
0.000224583
1.59013
1911.5
-0.00102672
1.53702
-0.00174275
1.34741
1958.43
-6.94282e-06
1.56623
1956.2
-4.51844e-05
2.23505
1953.79
-0.000109888
2.41123
1951.36
-0.000162718
2.42854
1948.92
-0.000120805
2.43876
1946.5
-0.000127656
2.42423
1944.11
-0.000207266
2.38631
1941.77
-0.00024456
2.33734
1939.49
-0.000543682
2.28451
1937.27
-0.00108603
2.22442
1935.12
0.000220843
2.15886
1933.02
0.00148219
2.10062
1930.97
0.00106267
2.04676
1928.97
0.000294664
1.99813
1927.01
0.000371387
1.95103
1925.11
-0.000438622
1.90343
1923.24
-0.00223837
1.86204
1921.43
-0.00314274
1.81339
1919.67
-0.003869
1.76779
1917.95
-0.00299396
1.72408
1916.27
-0.00191992
1.68089
1914.63
-0.000835566
1.63702
1913.05
0.00011371
1.58364
1911.52
0.00100455
1.53126
0.00127416
1.34225
1958.43
-7.87433e-06
1.56622
1956.2
-6.28505e-05
2.23502
1953.79
-0.000122346
2.41119
1951.36
-0.000156873
2.42854
1948.92
-0.000201843
2.43874
1946.5
-0.000132163
2.42419
1944.11
-0.000164768
2.38639
1941.77
-0.000487328
2.33748
1939.49
-0.00095871
2.28419
1937.26
-0.00232083
2.22601
1935.1
-0.004383
2.16407
1933.01
-0.00421843
2.09874
1930.97
-0.00171356
2.04464
1928.97
0.000527802
1.99612
1927.02
0.00281103
1.94924
1925.11
0.00292586
1.90329
1923.25
0.00173048
1.858
1921.43
0.00146436
1.81359
1919.66
0.00174328
1.7696
1917.92
3.91729e-05
1.73317
1916.24
-0.00276445
1.6884
1914.6
-0.00344334
1.64193
1913.01
-0.00317695
1.58659
1911.49
-0.00225309
1.53107
-0.000846514
1.34566
1958.43
-5.40393e-06
1.56622
1956.2
-5.66616e-05
2.23503
1953.79
-0.000142746
2.41119
1951.36
-0.000156403
2.42854
1948.92
-0.00023355
2.43877
1946.5
-0.000197498
2.42416
1944.11
5.8572e-05
2.38635
1941.77
0.000429432
2.33784
1939.48
0.00199767
2.28479
1937.25
0.00329185
2.22709
1935.08
0.0025317
2.1672
1932.96
-0.000897068
2.10887
1930.91
-0.00526639
2.05222
1928.93
-0.00728752
1.99405
1926.99
-0.00674412
1.94399
1925.1
-0.00393901
1.89688
1923.26
-0.00126517
1.85239
1921.45
0.000712799
1.80882
1919.68
0.00212881
1.76643
1917.95
0.0026273
1.72481
1916.27
0.00253346
1.68268
1914.62
9.03518e-05
1.64559
1913.02
-0.00148996
1.59109
1911.49
-0.00143036
1.53556
-0.000472115
1.34944
1958.43
-1.36758e-06
1.56622
1956.2
-5.39672e-05
2.23502
1953.79
-0.000134409
2.41121
1951.36
-0.000157145
2.42854
1948.92
-0.000237828
2.4388
1946.5
-0.000240527
2.42424
1944.11
-0.000266595
2.38624
1941.77
-0.00080332
2.33731
1939.49
-0.00144034
2.28318
1937.28
-0.00134875
2.21976
1935.12
-0.000158931
2.16053
1933.02
3.37519e-06
2.10306
1930.96
-0.00103562
2.05058
1928.96
-0.00208663
2.00156
1927
-0.00298558
1.953
1925.09
-0.00356624
1.90921
1923.23
-0.00180506
1.85768
1921.42
0.000382741
1.81156
1919.66
0.00154522
1.76728
1917.93
0.00358459
1.72445
1916.24
0.0058026
1.68245
1914.6
0.0078802
1.63878
1913
0.00781763
1.59183
1911.45
0.0049086
1.54236
0.00141412
1.35485
1958.43
7.12436e-06
1.56623
1956.2
-5.62298e-05
2.23502
1953.79
-9.32144e-05
2.41122
1951.36
-0.00016793
2.42853
1948.92
-0.000175807
2.43881
1946.5
-0.000215594
2.42425
1944.11
-0.000153165
2.38637
1941.77
0.000382864
2.33782
1939.49
0.000401287
2.28235
1937.26
0.000150354
2.22509
1935.1
-0.00122202
2.166
1933
-0.00315558
2.10102
1930.95
-0.00376307
2.04833
1928.95
-0.0023918
2.00026
1927
-0.000420583
1.95256
1925.09
0.00129884
1.90528
1923.22
0.0035938
1.85931
1921.4
0.00550432
1.81436
1919.63
0.00755202
1.76957
1917.89
0.00731795
1.73218
1916.2
0.00640637
1.687
1914.57
0.00534816
1.64118
1912.98
0.00346689
1.58638
1911.46
0.000889836
1.53105
-0.000476649
1.3456
1958.43
1.28358e-05
1.56623
1956.2
-4.21651e-05
2.23504
1953.79
-6.55243e-05
2.41123
1951.36
-0.000135664
2.42856
1948.92
-0.000183987
2.43882
1946.5
-0.000217028
2.42429
1944.11
-0.000538287
2.38655
1941.77
0.000364283
2.33784
1939.49
0.000539934
2.28467
1937.27
-0.00293732
2.22432
1935.11
-0.00536062
2.15876
1933.01
-0.00608401
2.10166
1930.97
-0.00561839
2.04952
1928.97
-0.00269399
2.00049
1927.01
0.00137587
1.95132
1925.11
0.00527898
1.90243
1923.24
0.00596834
1.86098
1921.43
0.00609325
1.81234
1919.67
0.00626429
1.76665
1917.94
0.00574137
1.72281
1916.27
0.0045889
1.67973
1914.63
0.00331273
1.63627
1913.05
0.00169892
1.58387
1911.52
9.81036e-05
1.53194
0.000874977
1.34254
1958.43
2.2403e-05
1.56623
1956.2
-8.72483e-06
2.23504
1953.79
-3.54523e-05
2.41121
1951.36
-8.88976e-05
2.42855
1948.92
-0.000119808
2.43884
1946.5
-0.000162636
2.42414
1944.11
-0.000237175
2.38685
1941.78
-0.000288349
2.33454
1939.49
-0.000705701
2.2817
1937.27
-0.00217279
2.22379
1935.1
-0.002882
2.16521
1932.99
-0.00233682
2.10861
1930.93
-0.00104315
2.05635
1928.92
0.00120962
2.00584
1926.96
0.00258426
1.95483
1925.06
0.00271619
1.90839
1923.21
0.00219198
1.85457
1921.41
0.00183528
1.80693
1919.65
0.00159074
1.76157
1917.94
0.00108793
1.71812
1916.26
0.000738989
1.67553
1914.63
0.000813666
1.63239
1913.05
0.00117296
1.58078
1911.52
0.00146258
1.52922
0.00170476
1.34649
1958.43
3.40327e-05
1.56623
1956.2
2.29759e-05
2.23504
1953.79
9.35415e-06
2.41121
1951.36
-3.53806e-05
2.42855
1948.92
-8.36465e-06
2.43885
1946.5
-5.63137e-05
2.42414
1944.11
0.000112972
2.38689
1941.77
-0.000645733
2.33474
1939.49
-0.00198699
2.28206
1937.27
-0.00220714
2.22473
1935.1
-0.00168296
2.16643
1932.99
0.000463494
2.10951
1930.93
0.00363215
2.05662
1928.92
0.00553848
2.00521
1926.96
0.00505363
1.95344
1925.06
0.00170168
1.90683
1923.21
-0.000679367
1.85372
1921.4
-0.00154208
1.80647
1919.65
-0.00192921
1.76133
1917.93
-0.00235357
1.71841
1916.26
-0.00288158
1.67635
1914.63
-0.00144093
1.63344
1913.04
0.000528549
1.582
1911.51
0.00228694
1.53038
0.00230797
1.34707
1958.43
4.48586e-05
1.56623
1956.2
5.45087e-05
2.23505
1953.79
3.90261e-05
2.4112
1951.36
5.35737e-05
2.42857
1948.92
1.8854e-05
2.43882
1946.5
5.69086e-05
2.42428
1944.11
4.16952e-05
2.38673
1941.77
0.00100934
2.33834
1939.48
0.00283483
2.28523
1937.25
0.00381061
2.22855
1935.07
0.00337952
2.16948
1932.96
0.000658344
2.11158
1930.91
-0.00316442
2.05529
1928.93
-0.00531918
1.9954
1926.99
-0.0058876
1.94298
1925.11
-0.00450582
1.89513
1923.26
-0.0028549
1.8507
1921.45
-0.00151137
1.80633
1919.69
3.29753e-05
1.76307
1917.96
0.00173417
1.72135
1916.27
0.00354642
1.67923
1914.63
0.00362853
1.64233
1913.03
0.0031553
1.58895
1911.5
0.00184882
1.53498
0.000962761
1.34914
1958.43
5.27006e-05
1.56623
1956.2
7.7767e-05
2.23504
1953.79
8.12647e-05
2.41121
1951.36
0.000104071
2.42855
1948.92
0.000139867
2.43884
1946.5
0.000106889
2.42414
1944.11
0.000752989
2.38674
1941.77
0.00106865
2.33438
1939.49
0.00208246
2.28167
1937.27
0.00447956
2.22423
1935.1
0.00510465
2.16601
1932.99
0.00391665
2.10928
1930.93
0.00168085
2.05655
1928.92
-0.00058325
2.00523
1926.96
-0.00292807
1.95373
1925.05
-0.00592706
1.90813
1923.2
-0.0067227
1.85524
1921.4
-0.00526778
1.8074
1919.64
-0.00317641
1.7617
1917.92
-0.00100376
1.71833
1916.25
0.000958728
1.67603
1914.62
0.00225314
1.63287
1913.04
0.00361718
1.5812
1911.51
0.00435716
1.52938
0.00274236
1.34647
1958.43
5.33547e-05
1.56623
1956.2
7.72884e-05
2.23504
1953.79
0.000122118
2.41123
1951.36
0.000135467
2.42856
1948.92
0.000151759
2.4388
1946.5
9.92399e-05
2.42438
1944.11
-0.000120681
2.38612
1941.78
-0.000611304
2.33629
1939.5
-0.00121857
2.28175
1937.28
0.000275337
2.21902
1935.13
0.0022148
2.16089
1933.02
0.0038639
2.10475
1930.96
0.00503828
2.05355
1928.95
0.00515689
2.00418
1926.99
0.00350157
1.95478
1925.08
0.000312929
1.90749
1923.21
-0.00157878
1.85992
1921.39
-0.00440552
1.81816
1919.63
-0.00507202
1.76946
1917.91
-0.00457242
1.72311
1916.23
-0.00356121
1.67798
1914.61
-0.00255488
1.63285
1913.03
-0.000663087
1.57938
1911.51
0.00140771
1.52614
0.00155689
1.34221
1958.43
3.17579e-05
1.56624
1956.2
4.81609e-05
2.23506
1953.79
0.000155161
2.41124
1951.36
0.000161662
2.42857
1948.92
9.02469e-05
2.43878
1946.5
7.48412e-05
2.42431
1944.11
-0.000350336
2.3863
1941.77
-0.00144507
2.33679
1939.49
-0.00297013
2.28338
1937.27
-0.00421723
2.22363
1935.12
-0.00308898
2.15887
1933.02
-0.000853188
2.10238
1930.97
0.00307676
2.04977
1928.97
0.00860509
1.99973
1927.01
0.00909472
1.95146
1925.1
0.00479357
1.90568
1923.24
0.00189804
1.86018
1921.42
0.000276809
1.81274
1919.65
-0.00221792
1.77297
1917.92
-0.00423962
1.72668
1916.24
-0.00545403
1.68121
1914.61
-0.00628134
1.63561
1913.03
-0.00445179
1.58085
1911.51
-0.00185899
1.52816
0.000535082
1.3401
1958.43
-0.000109529
1.56627
1956.2
-7.1964e-05
2.23513
1953.79
0.000256776
2.41126
1951.36
0.000199748
2.42853
1948.92
8.52278e-05
2.43877
1946.5
1.05905e-05
2.42416
1944.11
1.49914e-05
2.38637
1941.77
0.000120352
2.33757
1939.48
0.000344086
2.2856
1937.25
0.000710034
2.22448
1935.08
0.00280768
2.16615
1932.96
0.0051884
2.1095
1930.91
0.00519484
2.05369
1928.91
0.00319449
2.00091
1926.98
0.000913895
1.94466
1925.08
-0.00171754
1.89937
1923.23
-0.00331388
1.85403
1921.43
-0.00457614
1.80834
1919.67
-0.00606688
1.76401
1917.95
-0.00583109
1.72108
1916.27
-0.00429959
1.67872
1914.63
-0.0018752
1.63478
1913.04
-0.000661088
1.58769
1911.5
0.000210462
1.53442
0.00104768
1.34553
1958.43
-0.00066797
1.56643
1956.2
-0.000461004
2.2354
1953.79
0.000256882
2.41149
1951.36
8.77801e-05
2.42864
1948.92
-0.000107327
2.43881
1946.5
4.72493e-06
2.42419
1944.11
0.000154596
2.3864
1941.77
0.000102876
2.33756
1939.49
-6.34156e-05
2.28428
1937.26
-0.000734073
2.22687
1935.1
-0.00152353
2.16554
1933.01
-0.000914619
2.101
1930.97
0.000349099
2.04572
1928.98
0.000612625
1.99289
1927.03
0.00110513
1.94604
1925.12
0.000990379
1.90371
1923.26
-0.000135288
1.85972
1921.44
-0.000642429
1.81415
1919.67
-0.00021406
1.76856
1917.93
-0.00089875
1.73092
1916.24
-0.00181464
1.68568
1914.6
-0.000892125
1.63947
1913.02
0.000114479
1.58444
1911.49
0.000582176
1.52942
0.00119607
1.34492
1958.44
-0.00339186
1.56707
1956.2
0.000644789
2.23535
1953.79
0.000571329
2.41102
1951.36
-0.000400118
2.42857
1948.92
-0.000283734
2.43879
1946.5
5.19629e-05
2.42414
1944.11
0.000491341
2.38629
1941.77
0.00160971
2.33767
1939.48
0.00321076
2.28434
1937.25
0.00536253
2.22743
1935.07
0.00565909
2.16792
1932.96
0.00301426
2.11012
1930.91
-0.00134691
2.0534
1928.92
-0.00458462
1.99215
1926.99
-0.00484779
1.94281
1925.09
-0.003351
1.89955
1923.24
-0.00282731
1.85625
1921.43
-0.00303259
1.81174
1919.66
-0.0011823
1.76788
1917.93
0.000977066
1.72508
1916.24
0.00310272
1.68167
1914.6
0.00335419
1.64323
1913.01
0.00300607
1.5878
1911.47
0.0017621
1.5322
0.0012368
1.34682
1958.43
1.56211
1956.2
2.23262
1953.79
2.40986
1951.36
2.4285
1948.93
2.439
1946.5
2.42446
1944.11
2.38652
1941.78
2.33692
1939.5
2.28336
1937.28
2.22334
1935.13
2.15849
1933.03
2.10175
1930.98
2.04938
1928.97
1.99898
1927.02
1.95093
1925.11
1.90722
1923.24
1.86326
1921.42
1.81669
1919.64
1.77645
1917.92
1.72951
1916.24
1.68317
1914.6
1.63625
1913.03
1.58071
1911.5
1.52775
1.33924
1960.94
-0.0012168
0.622747
1961.7
-0.00271199
1.48044
1962.26
-0.00194818
1.84905
1962.64
-0.000799183
2.04963
1962.91
-0.000444958
2.16505
1963.12
-0.000379197
2.22135
1963.26
-0.000230648
2.23853
1963.37
-0.000187854
2.23459
1963.43
0.000108366
2.2193
1963.46
0.00123847
2.19373
1963.46
3.32755e-05
2.16189
1963.44
-0.00248831
2.12535
1963.4
-0.00219492
2.09019
1963.34
-0.000912893
2.05747
1963.26
-0.000166026
2.02776
1963.17
-0.00033276
1.99641
1963.07
0.000115608
1.96097
1962.96
-0.000372746
1.92642
1962.84
0.00117126
1.89302
1962.7
0.00378683
1.86215
1962.56
0.00296918
1.82802
1962.4
0.00171649
1.79264
1962.24
0.000415351
1.74896
1962.05
-0.000348684
1.71672
-0.000518102
1.58769
1960.94
-0.000122768
0.621917
1961.7
-0.00113796
1.47952
1962.26
-0.00123277
1.84827
1962.64
-0.000884078
2.04883
1962.91
-0.000519755
2.16451
1963.12
-0.000434871
2.22105
1963.27
-0.000540276
2.23834
1963.37
-0.000776896
2.23466
1963.43
-0.00150579
2.21933
1963.46
-0.00317315
2.19262
1963.47
-0.00365737
2.16224
1963.44
-0.00363218
2.12829
1963.4
-0.00144462
2.0933
1963.34
0.00195389
2.06008
1963.26
0.00474611
2.03018
1963.17
0.00441896
1.99851
1963.06
0.00417995
1.96191
1962.95
0.00640639
1.92744
1962.82
0.00602904
1.89282
1962.69
0.00469734
1.8594
1962.54
0.000566395
1.82536
1962.39
-0.00189245
1.79044
1962.23
-0.00399312
1.74735
1962.04
-0.00516833
1.71548
-0.00296025
1.58725
1960.94
-3.25852e-05
0.622183
1961.7
-0.000348277
1.47975
1962.26
-0.000511692
1.84862
1962.64
-0.000407995
2.04869
1962.91
-0.000276219
2.16433
1963.12
-0.000254618
2.22096
1963.27
-0.000337083
2.23841
1963.37
-0.000427632
2.2348
1963.43
-0.000779083
2.21986
1963.46
-0.000725509
2.19459
1963.46
-0.0004338
2.16386
1963.44
-0.000674881
2.12921
1963.39
-0.00250658
2.09233
1963.33
-0.00209091
2.05619
1963.26
0.000183287
2.02417
1963.17
0.000457311
1.99421
1963.07
0.00159945
1.95959
1962.96
0.00361655
1.92479
1962.83
0.00403756
1.8915
1962.7
0.00349478
1.85961
1962.56
0.00413328
1.82845
1962.4
0.00235233
1.79434
1962.23
-0.00131076
1.75152
1962.05
-0.00302724
1.71943
-0.00299222
1.58901
1960.94
-1.82733e-05
0.622225
1961.7
-0.000131921
1.47993
1962.26
-0.00024862
1.84874
1962.64
-0.000262398
2.04886
1962.91
-0.000218349
2.16446
1963.12
-0.000187036
2.22105
1963.27
-0.000100675
2.2385
1963.37
4.25923e-05
2.23491
1963.43
0.000264633
2.22024
1963.46
0.000597653
2.19511
1963.46
0.00277554
2.16461
1963.44
0.00299207
2.13059
1963.39
0.00273225
2.09517
1963.33
0.00239813
2.05846
1963.25
-0.000548346
2.02452
1963.15
-0.00193607
1.99378
1963.05
-0.00377527
1.9575
1962.94
-0.0029093
1.92135
1962.83
-0.00206869
1.88806
1962.7
-0.00193872
1.85663
1962.56
-0.00131196
1.82478
1962.4
-0.00113767
1.79195
1962.24
0.000648237
1.75197
1962.05
0.00062492
1.72086
-8.05226e-05
1.59054
1960.94
-1.12163e-05
0.622241
1961.7
-7.68833e-05
1.48
1962.26
-0.000148769
1.84881
1962.64
-0.000188375
2.04892
1962.91
-0.000178919
2.16447
1963.12
-0.000156974
2.22103
1963.27
-0.000150706
2.2384
1963.37
-0.000170107
2.23472
1963.43
-0.00021821
2.21997
1963.46
-0.000860205
2.19419
1963.47
-0.0018765
2.16149
1963.44
4.55508e-06
2.12739
1963.4
0.00100358
2.09254
1963.34
0.00115912
2.05669
1963.27
0.000113025
2.02578
1963.17
5.07565e-05
1.99631
1963.07
0.00179996
1.96154
1962.95
0.000743719
1.92441
1962.83
-0.000399551
1.89003
1962.7
-0.00312672
1.85783
1962.55
-0.00355077
1.8251
1962.4
-0.00357587
1.79173
1962.24
-0.0030993
1.75008
1962.05
-0.00226321
1.71902
-0.00226454
1.58972
1960.94
-6.77233e-06
0.622246
1961.7
-6.74776e-05
1.48002
1962.26
-0.000127743
1.84883
1962.64
-0.000170327
2.04896
1962.92
-0.000202431
2.16449
1963.12
-0.000194457
2.22104
1963.27
-0.000193798
2.23841
1963.37
-0.000175607
2.23472
1963.43
-0.000187891
2.21982
1963.46
-0.000430034
2.19483
1963.46
-0.00147789
2.16302
1963.44
-0.00357836
2.12724
1963.4
-0.00324521
2.09175
1963.34
-0.00144508
2.05584
1963.26
-0.00158836
2.02562
1963.17
-0.000658407
1.99631
1963.07
0.00174029
1.96092
1962.96
0.00261538
1.92529
1962.83
0.00269571
1.89193
1962.7
0.00417846
1.86161
1962.55
0.00327385
1.8286
1962.39
-0.000226996
1.79463
1962.23
-0.00241694
1.75188
1962.04
-0.00339063
1.71966
-0.00297976
1.58999
1960.94
-3.34094e-06
0.62225
1961.7
-6.2116e-05
1.48003
1962.26
-0.000125075
1.84884
1962.64
-0.000169341
2.04899
1962.92
-0.00020375
2.16453
1963.12
-0.000195728
2.22106
1963.27
-1.21186e-05
2.23843
1963.37
0.000289532
2.23473
1963.43
0.000912381
2.21987
1963.46
0.002336
2.19518
1963.46
0.00169502
2.16436
1963.43
0.00130839
2.13016
1963.39
0.000133254
2.09355
1963.33
-0.00309868
2.0554
1963.25
-0.00466954
2.02503
1963.16
-0.00592118
1.99474
1963.06
-0.00385036
1.95765
1962.95
-0.00194417
1.92191
1962.83
-0.00042437
1.8892
1962.7
0.000980653
1.85824
1962.56
0.00204882
1.82643
1962.41
0.00399011
1.79525
1962.24
0.00144599
1.75354
1962.05
-0.00104572
1.72191
-0.00110492
1.59202
1960.94
2.786e-06
0.622255
1961.7
-5.25422e-05
1.48004
1962.26
-0.000115123
1.84887
1962.64
-0.00016244
2.04901
1962.92
-0.000205678
2.16456
1963.12
-0.000223361
2.22109
1963.27
-0.000194615
2.23833
1963.37
-0.000215654
2.23447
1963.43
-0.000116604
2.2192
1963.46
-0.00155443
2.19281
1963.47
-0.00150264
2.16233
1963.44
0.000205539
2.12864
1963.4
-0.00042587
2.09334
1963.34
-0.00113946
2.05822
1963.26
-0.000625065
2.02919
1963.16
0.000575472
1.9999
1963.06
-0.00122299
1.96071
1962.95
-0.0014049
1.92328
1962.82
-0.000574467
1.88957
1962.69
-0.00120256
1.85805
1962.55
0.00014351
1.82591
1962.4
0.00186506
1.79339
1962.24
0.00438062
1.75389
1962.05
0.00624899
1.72438
0.00427037
1.59442
1960.94
7.96631e-06
0.622257
1961.7
-4.70521e-05
1.48005
1962.26
-9.8968e-05
1.84888
1962.64
-0.000150786
2.04902
1962.91
-0.000185633
2.16458
1963.12
-0.000187645
2.22112
1963.27
-0.000157453
2.23834
1963.37
-2.12323e-05
2.23446
1963.43
-0.000753952
2.21896
1963.46
-0.000613792
2.19434
1963.46
0.00056494
2.16351
1963.44
-0.001499
2.12813
1963.39
-0.00219685
2.09318
1963.34
-0.00252544
2.05813
1963.26
-0.00223967
2.02845
1963.17
-0.00103473
1.99895
1963.07
-0.000587916
1.96259
1962.95
0.00192943
1.92611
1962.83
0.00380721
1.89199
1962.69
0.00666572
1.86099
1962.54
0.00698477
1.82744
1962.39
0.00670245
1.79302
1962.22
0.0062142
1.75048
1962.03
0.00504683
1.71868
0.00353109
1.58953
1960.94
1.74134e-05
0.622262
1961.7
-2.26772e-05
1.48005
1962.26
-6.86057e-05
1.8489
1962.64
-0.000115464
2.04904
1962.91
-0.000150844
2.16459
1963.12
-0.000109432
2.22112
1963.27
2.46745e-05
2.23835
1963.37
0.00120139
2.23432
1963.43
0.000918364
2.21941
1963.46
-0.000233692
2.19397
1963.46
-0.00309658
2.16174
1963.44
-0.00430077
2.12806
1963.4
-0.00390847
2.09339
1963.34
-0.00364868
2.05865
1963.26
-0.00334099
2.02901
1963.17
-0.00228735
1.99868
1963.06
0.00360099
1.96193
1962.95
0.00553375
1.92376
1962.82
0.00624001
1.88888
1962.69
0.00671756
1.85634
1962.55
0.00636134
1.8236
1962.39
0.00567127
1.79058
1962.23
0.00487651
1.74934
1962.04
0.00344293
1.71906
0.000703325
1.59042
1960.94
2.50548e-05
0.622262
1961.7
3.76438e-07
1.48006
1962.26
-3.53169e-05
1.84889
1962.64
-7.565e-05
2.04905
1962.91
-0.000111421
2.1646
1963.12
-0.000149403
2.22108
1963.27
-0.000195724
2.23825
1963.37
-0.000223723
2.23323
1963.43
-0.000496899
2.21846
1963.47
-0.00131088
2.19376
1963.47
-0.00230124
2.16426
1963.44
-0.00251104
2.13149
1963.4
-0.00179696
2.0962
1963.34
-0.000628177
2.06113
1963.26
0.000358504
2.03136
1963.17
0.00168639
2.00023
1963.06
0.00292855
1.95914
1962.95
0.0031628
1.92048
1962.83
0.00305125
1.88583
1962.7
0.00279366
1.85332
1962.56
0.00220531
1.82082
1962.41
0.00130343
1.78804
1962.24
0.00104886
1.74694
1962.06
0.00102596
1.71687
0.00114067
1.58974
1960.94
3.43619e-05
0.622262
1961.7
2.54646e-05
1.48006
1962.26
5.05646e-06
1.84889
1962.64
-2.09611e-05
2.04906
1962.91
-4.58315e-05
2.16461
1963.12
-0.00011128
2.22111
1963.27
-0.000275634
2.23831
1963.37
-0.00128893
2.2333
1963.43
-0.00133241
2.2186
1963.47
-0.00167276
2.19421
1963.47
-0.0015598
2.16523
1963.44
-0.00145084
2.13264
1963.4
-0.000692468
2.097
1963.34
0.00194368
2.06136
1963.26
0.00301102
2.03118
1963.17
0.0043648
1.99954
1963.06
0.00257504
1.95799
1962.95
0.00106417
1.91942
1962.83
0.000182892
1.88492
1962.7
-0.000219048
1.85262
1962.56
-0.000482189
1.82044
1962.41
-0.00230167
1.78815
1962.24
-0.00187879
1.74732
1962.06
-0.000750653
1.71743
0.00058064
1.59039
1960.94
4.4173e-05
0.622262
1961.7
5.37326e-05
1.48006
1962.26
4.88956e-05
1.8489
1962.64
5.0896e-05
2.04906
1962.91
6.30217e-05
2.16462
1963.12
0.000128932
2.22114
1963.27
0.00034394
2.23845
1963.37
0.00138417
2.23431
1963.43
0.00191394
2.21942
1963.46
0.00292797
2.19547
1963.46
0.00303313
2.16597
1963.43
0.0028461
2.13286
1963.39
0.00181652
2.09622
1963.33
-0.000932828
2.05847
1963.25
-0.0021982
2.02781
1963.16
-0.0043003
1.99563
1963.06
-0.00431943
1.95638
1962.95
-0.00469515
1.91959
1962.83
-0.00420457
1.88605
1962.7
-0.00309081
1.8543
1962.56
-0.00162927
1.82236
1962.41
0.00152804
1.79139
1962.24
0.00288747
1.74993
1962.05
0.00354431
1.71891
0.00302048
1.59037
1960.94
5.15028e-05
0.62226
1961.7
8.07283e-05
1.48006
1962.26
9.75489e-05
1.84889
1962.64
0.000111963
2.04905
1962.92
0.00013613
2.16459
1963.12
0.000117296
2.22108
1963.27
0.000223051
2.23825
1963.37
-0.000335644
2.23332
1963.43
0.000554684
2.21848
1963.47
0.00274256
2.19378
1963.47
0.00383652
2.16475
1963.44
0.00390713
2.13223
1963.4
0.00286368
2.09673
1963.34
0.00167044
2.06123
1963.26
0.0013018
2.03111
1963.16
0.000462763
1.99964
1963.06
-0.00341806
1.95864
1962.95
-0.00758979
1.92056
1962.83
-0.00817293
1.88602
1962.7
-0.0069363
1.85339
1962.56
-0.00488807
1.82082
1962.41
-0.00249223
1.78815
1962.24
-0.000410046
1.74699
1962.06
0.00152446
1.71685
0.00271112
1.5898
1960.94
5.59081e-05
0.622256
1961.7
0.000109261
1.48004
1962.26
0.000159981
1.84888
1962.64
0.000175784
2.04902
1962.92
0.000157152
2.16455
1963.12
8.805e-05
2.22106
1963.27
-0.000154544
2.23815
1963.37
-0.000638287
2.23386
1963.43
-0.000963685
2.21839
1963.47
-0.00112775
2.19201
1963.47
0.00142168
2.16219
1963.44
0.00238901
2.12976
1963.4
0.00221502
2.09517
1963.34
0.00234894
2.06053
1963.27
0.00357053
2.03097
1963.17
0.00347911
2.00012
1963.06
0.00160032
1.96195
1962.95
0.000727866
1.92612
1962.82
-0.0033841
1.89113
1962.68
-0.00492602
1.8572
1962.54
-0.00523282
1.82308
1962.39
-0.00491242
1.78879
1962.22
-0.00430936
1.7465
1962.04
-0.00316701
1.71528
-0.000205738
1.58749
1960.94
5.85164e-05
0.622248
1961.7
0.000169407
1.48002
1962.26
0.000275931
1.84885
1962.64
0.000276106
2.04898
1962.92
0.000203066
2.16451
1963.12
9.00895e-05
2.22105
1963.27
-0.000162979
2.23826
1963.37
-0.000646729
2.23426
1963.43
-0.00128149
2.21914
1963.46
-0.00120471
2.19319
1963.46
-0.00206349
2.16115
1963.44
-0.000196258
2.12819
1963.4
0.000430824
2.0939
1963.34
-0.000654384
2.05906
1963.27
0.0026639
2.02877
1963.17
0.00539722
1.99858
1963.07
0.00559025
1.96195
1962.95
0.00400862
1.92568
1962.82
0.003186
1.8931
1962.68
0.000341083
1.85967
1962.54
-0.00175409
1.82538
1962.38
-0.00308659
1.79064
1962.21
-0.00536671
1.74798
1962.03
-0.00500079
1.71644
-0.00279474
1.58705
1960.94
6.7488e-05
0.622231
1961.7
0.00038937
1.47996
1962.26
0.000547839
1.84878
1962.64
0.000436764
2.04891
1962.92
0.000280501
2.1645
1963.12
0.000195525
2.22108
1963.27
0.000101718
2.23843
1963.37
-4.08616e-05
2.23472
1963.43
-0.000209581
2.22004
1963.46
-0.0013222
2.19442
1963.46
-0.000631868
2.16399
1963.44
0.00190991
2.12937
1963.4
0.00353517
2.09451
1963.33
0.00499001
2.06096
1963.25
0.0029796
2.02691
1963.16
0.00209542
1.99307
1963.06
0.000896315
1.95646
1962.95
-0.000513165
1.9217
1962.83
-0.00161223
1.88917
1962.7
-0.00442517
1.85786
1962.56
-0.00506357
1.8255
1962.4
-0.00487127
1.79235
1962.23
-0.00212059
1.7521
1962.04
-0.000565137
1.72077
-0.000651712
1.5902
1960.94
0.000150992
0.622186
1961.7
0.00117227
1.47977
1962.26
0.00126868
1.84865
1962.64
0.00090554
2.04873
1962.91
0.000518356
2.16436
1963.12
0.000370524
2.22099
1963.27
0.000298577
2.2384
1963.37
0.000232334
2.23472
1963.43
0.000334716
2.21998
1963.46
0.000118713
2.19502
1963.46
-0.000163072
2.16356
1963.44
-0.00147846
2.1273
1963.4
-0.000320883
2.09189
1963.33
0.00239708
2.05816
1963.26
0.00133801
2.02683
1963.17
0.000147274
1.99451
1963.07
-0.000409048
1.959
1962.96
-0.00123097
1.92453
1962.84
-0.00210705
1.89164
1962.7
-0.000526222
1.86116
1962.56
-0.000697584
1.8277
1962.4
-0.0023866
1.79323
1962.23
-0.00150928
1.7502
1962.05
-0.000645471
1.71774
0.000225077
1.58836
1960.94
0.0012374
0.621918
1961.7
0.00274379
1.47954
1962.26
0.00197235
1.84829
1962.64
0.00082533
2.04887
1962.91
0.000456419
2.16453
1963.12
0.000386651
2.22109
1963.27
0.00037278
2.23845
1963.37
0.000532775
2.23479
1963.43
0.000816897
2.22003
1963.46
0.00182314
2.19559
1963.46
0.00354978
2.16496
1963.44
0.00304143
2.13003
1963.39
0.00208407
2.09291
1963.33
-9.0247e-05
2.05622
1963.25
-0.00192533
2.02516
1963.16
-0.00364218
1.99312
1963.06
-0.0041252
1.95752
1962.96
-0.00397054
1.92359
1962.84
-0.00528088
1.89154
1962.7
-0.00366517
1.86035
1962.56
-0.00195499
1.8279
1962.4
0.00118357
1.79586
1962.23
0.00228921
1.75303
1962.04
0.00235383
1.72045
0.00298825
1.59008
1960.94
0.622747
1961.7
1.48046
1962.26
1.84907
1962.64
2.04965
1962.91
2.16507
1963.12
2.22137
1963.26
2.23849
1963.37
2.2345
1963.43
2.21949
1963.46
2.19367
1963.46
2.16121
1963.44
2.12719
1963.4
2.09161
1963.34
2.05696
1963.26
2.02768
1963.17
1.99737
1963.07
1.96122
1962.95
1.9258
1962.83
1.89418
1962.7
1.86117
1962.55
1.8269
1962.4
1.79205
1962.23
1.74849
1962.04
1.71646
1.58614
1960.26
0.000222913
0.361312
1960.72
0.00086588
1.02496
1961.18
0.000910723
1.38418
1961.64
0.000923391
1.58537
1962.08
0.000774605
1.72693
1962.48
0.00053803
1.82318
1962.85
0.000332584
1.8705
1963.19
0.000121283
1.89219
1963.51
-3.29163e-05
1.89802
1963.81
-3.9905e-05
1.89212
1964.09
-0.000456848
1.87796
1964.36
-0.00104966
1.8579
1964.62
-0.000989412
1.83488
1964.87
-0.000448126
1.81099
1965.11
-6.98728e-05
1.78265
1965.35
-0.000106069
1.75409
1965.58
-0.00019556
1.73076
1965.8
-0.000135376
1.70805
1966.01
0.000215219
1.68464
1966.21
0.000649603
1.66171
1966.4
0.000395816
1.63744
1966.58
-1.28518e-05
1.61409
1966.74
-0.000394338
1.58783
1966.88
-0.000630702
1.57885
-0.000619804
1.53748
1960.26
-2.10432e-05
0.360443
1960.72
0.000235806
1.02551
1961.18
0.000373665
1.38544
1961.64
0.000504001
1.58637
1962.08
0.000476186
1.72751
1962.48
0.000363217
1.82359
1962.84
0.000163979
1.87084
1963.19
-5.42462e-05
1.8925
1963.51
-0.000337435
1.89825
1963.81
-0.000749731
1.89217
1964.09
-0.000857544
1.87844
1964.36
-0.000907159
1.859
1964.62
-0.000442747
1.83601
1964.87
0.000834357
1.81184
1965.11
0.00161801
1.78317
1965.35
0.00108377
1.75452
1965.58
0.000771819
1.73093
1965.8
0.00119671
1.70792
1966.01
0.00122485
1.68396
1966.21
0.000857024
1.66027
1966.4
-0.000102896
1.63596
1966.58
-0.000903494
1.6128
1966.74
-0.00153281
1.58687
1966.88
-0.00184932
1.57813
-0.00136681
1.53719
1960.26
-1.6648e-05
0.360401
1960.72
1.0207e-05
1.02544
1961.18
7.67873e-05
1.38544
1961.64
0.000114994
1.58633
1962.08
0.000146224
1.72742
1962.48
0.000104664
1.82363
1962.84
2.15838e-05
1.87094
1963.19
-8.56963e-05
1.89265
1963.51
-0.000262982
1.89856
1963.81
-0.000376859
1.89278
1964.09
-0.000338199
1.87897
1964.36
-0.000414365
1.85927
1964.62
-0.000538101
1.83567
1964.87
1.76601e-05
1.81027
1965.11
0.000489621
1.78075
1965.35
0.000194632
1.7526
1965.58
0.000375133
1.72966
1965.8
0.00103671
1.70679
1966.01
0.00126058
1.68324
1966.21
0.00107431
1.66031
1966.4
0.000823336
1.63706
1966.58
0.000128718
1.61453
1966.74
-0.000830877
1.58896
1966.88
-0.00135633
1.58034
-0.00132819
1.53861
1960.26
-1.2806e-05
0.360396
1960.72
-4.37389e-05
1.02542
1961.18
-3.76992e-05
1.38539
1961.64
-1.7083e-05
1.58627
1962.08
1.36691e-05
1.7274
1962.48
2.28994e-05
1.82357
1962.84
2.58139e-05
1.87091
1963.19
1.74219e-05
1.89269
1963.51
-1.08529e-05
1.89873
1963.81
7.91879e-05
1.89308
1964.09
0.000467
1.87944
1964.36
0.000517014
1.86011
1964.62
0.000439547
1.83684
1964.87
0.000283254
1.81094
1965.11
-0.000170988
1.78079
1965.35
-0.000357049
1.75251
1965.58
-0.000678919
1.72902