/*--------------------------------*- C++ -*----------------------------------*\
  =========                 |
  \\      /  F ield         | OpenFOAM: The Open Source CFD Toolbox
   \\    /   O peration     | Website:  https://openfoam.org
    \\  /    A nd           | Version:  12
     \\/     M anipulation  |
\*---------------------------------------------------------------------------*/
FoamFile
{
    format      ascii;
    class       volVectorField;
    location    "6.42";
    object      U;
}
// * * * * * * * * * * * * * * * * * * * * * * * * * * * * * * * * * * * * * //

dimensions      [0 1 -1 0 0 0 0];

internalField   nonuniform List<vector> 
3829
(
(-6.21793e-06 2.9482e-05 0)
(-1.8802e-05 2.9071e-05 0)
(-3.15398e-05 2.92916e-05 0)
(-4.44832e-05 2.96289e-05 0)
(-5.76969e-05 3.0076e-05 0)
(-7.12008e-05 3.06303e-05 0)
(-8.49935e-05 3.12776e-05 0)
(-9.91214e-05 3.20117e-05 0)
(-0.000113576 3.28182e-05 0)
(-0.000128429 3.36717e-05 0)
(-0.00014369 3.45623e-05 0)
(-0.000159327 3.54733e-05 0)
(-0.000175337 3.63697e-05 0)
(-0.00019176 3.72245e-05 0)
(-0.000208561 3.80289e-05 0)
(-0.000225685 3.87392e-05 0)
(-0.000243131 3.93446e-05 0)
(-0.000260842 3.98065e-05 0)
(-0.000278761 4.01069e-05 0)
(-0.000296826 4.02227e-05 0)
(-0.000314963 4.01333e-05 0)
(-0.000333085 3.98208e-05 0)
(-0.000351107 3.92697e-05 0)
(-0.000368937 3.84688e-05 0)
(-0.000386519 3.74084e-05 0)
(-0.000403683 3.60892e-05 0)
(-0.000420244 3.45016e-05 0)
(-0.000436159 3.26354e-05 0)
(-0.000451388 3.05024e-05 0)
(-0.000465772 2.81119e-05 0)
(-0.000479245 2.54573e-05 0)
(-0.000491691 2.25672e-05 0)
(-0.000502954 1.94432e-05 0)
(-0.00051306 1.61194e-05 0)
(-0.00052186 1.26171e-05 0)
(-0.000529293 8.9373e-06 0)
(-0.000535347 5.15167e-06 0)
(-0.000539931 1.25998e-06 0)
(-0.000543 -2.70514e-06 0)
(-0.000544552 -6.73124e-06 0)
(-0.000544433 -1.07674e-05 0)
(-0.000542519 -1.48175e-05 0)
(-0.000538868 -1.88574e-05 0)
(-0.000533435 -2.28686e-05 0)
(-0.000526257 -2.68339e-05 0)
(-0.000517393 -3.07214e-05 0)
(-0.000506857 -3.45049e-05 0)
(-0.000494697 -3.81554e-05 0)
(-0.000480958 -4.16432e-05 0)
(-0.000465697 -4.49391e-05 0)
(-0.000449003 -4.80188e-05 0)
(-0.000430912 -5.08363e-05 0)
(-0.000411506 -5.33909e-05 0)
(-0.00039091 -5.56292e-05 0)
(-0.000369305 -5.75563e-05 0)
(-0.000346593 -5.91088e-05 0)
(-0.000323146 -6.03293e-05 0)
(-0.000298985 -6.11256e-05 0)
(-0.000274345 -6.15523e-05 0)
(-0.000249465 -6.15196e-05 0)
(-0.00022419 -6.10736e-05 0)
(-0.000198994 -6.01962e-05 0)
(-0.000173952 -5.88906e-05 0)
(-0.000149392 -5.71424e-05 0)
(-0.000125243 -5.49711e-05 0)
(-0.000101951 -5.24515e-05 0)
(-7.97225e-05 -4.95061e-05 0)
(-5.85775e-05 -4.6229e-05 0)
(-3.88388e-05 -4.26037e-05 0)
(-2.06047e-05 -3.87321e-05 0)
(-4.19653e-06 -3.45925e-05 0)
(1.03355e-05 -3.0241e-05 0)
(2.30821e-05 -2.5694e-05 0)
(3.37292e-05 -2.10799e-05 0)
(4.2139e-05 -1.63748e-05 0)
(4.84056e-05 -1.17035e-05 0)
(5.24079e-05 -7.09306e-06 0)
(5.41142e-05 -2.59364e-06 0)
(5.36785e-05 1.6856e-06 0)
(5.1004e-05 5.69079e-06 0)
(4.62107e-05 9.40871e-06 0)
(3.96878e-05 1.27449e-05 0)
(3.13745e-05 1.56645e-05 0)
(2.1646e-05 1.81213e-05 0)
(1.0609e-05 2.00605e-05 0)
(-1.55925e-06 2.14851e-05 0)
(-1.42981e-05 2.23588e-05 0)
(-2.74029e-05 2.26579e-05 0)
(-4.06174e-05 2.24057e-05 0)
(-5.3611e-05 2.15875e-05 0)
(-6.60765e-05 2.02532e-05 0)
(-7.76447e-05 1.84289e-05 0)
(-8.8058e-05 1.61532e-05 0)
(-9.70336e-05 1.34974e-05 0)
(-0.000104332 1.05227e-05 0)
(-0.000109736 7.31283e-06 0)
(-0.000113108 3.93657e-06 0)
(-0.000114321 5.08544e-07 0)
(-0.000113177 -2.85848e-06 0)
(-0.00010974 -6.12861e-06 0)
(-0.000104189 -9.18268e-06 0)
(-9.66755e-05 -1.19396e-05 0)
(-8.73879e-05 -1.43131e-05 0)
(-7.65594e-05 -1.62436e-05 0)
(-6.45145e-05 -1.76642e-05 0)
(-5.15736e-05 -1.85275e-05 0)
(-3.81501e-05 -1.88193e-05 0)
(-2.46807e-05 -1.85213e-05 0)
(-1.15492e-05 -1.76448e-05 0)
(8.29349e-07 -1.62278e-05 0)
(1.20506e-05 -1.43235e-05 0)
(2.17456e-05 -1.2e-05 0)
(2.96496e-05 -9.34088e-06 0)
(3.54482e-05 -6.46876e-06 0)
(3.9022e-05 -3.45424e-06 0)
(4.02559e-05 -4.53754e-07 0)
(3.90531e-05 2.41929e-06 0)
(3.55955e-05 5.05413e-06 0)
(3.00627e-05 7.36224e-06 0)
(2.2844e-05 9.2513e-06 0)
(1.42696e-05 1.06185e-05 0)
(4.62006e-06 1.1428e-05 0)
(-5.52675e-06 1.16682e-05 0)
(-1.55968e-05 1.13042e-05 0)
(-2.5114e-05 1.03843e-05 0)
(-3.36207e-05 8.95368e-06 0)
(-4.07248e-05 7.10123e-06 0)
(-4.60461e-05 4.92608e-06 0)
(-4.93079e-05 2.5571e-06 0)
(-5.03187e-05 1.01972e-07 0)
(-4.89721e-05 -2.2679e-06 0)
(-4.54106e-05 -4.47462e-06 0)
(-3.98597e-05 -6.3802e-06 0)
(-3.26733e-05 -7.89856e-06 0)
(-2.42032e-05 -8.92328e-06 0)
(-1.49239e-05 -9.43448e-06 0)
(-5.38762e-06 -9.39598e-06 0)
(3.92923e-06 -8.82981e-06 0)
(1.24476e-05 -7.78032e-06 0)
(1.96808e-05 -6.33581e-06 0)
(2.52666e-05 -4.55173e-06 0)
(2.89342e-05 -2.59117e-06 0)
(3.04411e-05 -5.26172e-07 0)
(2.97267e-05 1.47818e-06 0)
(2.68399e-05 3.33802e-06 0)
(2.19889e-05 4.9607e-06 0)
(1.5534e-05 6.24148e-06 0)
(7.84239e-06 7.12795e-06 0)
(-7.70766e-07 7.57866e-06 0)
(-9.70255e-06 7.59561e-06 0)
(-1.83457e-05 7.18258e-06 0)
(-2.63333e-05 6.39291e-06 0)
(-3.32338e-05 5.27341e-06 0)
(-3.86858e-05 3.90968e-06 0)
(-4.24148e-05 2.37678e-06 0)
(-4.42514e-05 7.76932e-07 0)
(-4.40892e-05 -8.04384e-07 0)
(-4.19571e-05 -2.29584e-06 0)
(-3.80236e-05 -3.62989e-06 0)
(-3.24986e-05 -4.73812e-06 0)
(-2.56681e-05 -5.58374e-06 0)
(-1.788e-05 -6.13661e-06 0)
(-9.50915e-06 -6.38777e-06 0)
(-8.96957e-07 -6.35126e-06 0)
(7.53992e-06 -6.03464e-06 0)
(1.54226e-05 -5.48404e-06 0)
(2.24704e-05 -4.73358e-06 0)
(2.84058e-05 -3.83942e-06 0)
(3.30669e-05 -2.84169e-06 0)
(3.63045e-05 -1.80979e-06 0)
(3.80699e-05 -7.79503e-07 0)
(3.83905e-05 1.96752e-07 0)
(3.73296e-05 1.08294e-06 0)
(3.50304e-05 1.84492e-06 0)
(3.16693e-05 2.46369e-06 0)
(2.74542e-05 2.91998e-06 0)
(2.2626e-05 3.21699e-06 0)
(1.74214e-05 3.34445e-06 0)
(1.2087e-05 3.32916e-06 0)
(6.84797e-06 3.17492e-06 0)
(1.9056e-06 2.9121e-06 0)
(-2.56602e-06 2.55824e-06 0)
(-6.44192e-06 2.14153e-06 0)
(-9.62452e-06 1.69044e-06 0)
(-1.20587e-05 1.22567e-06 0)
(-1.37272e-05 7.81272e-07 0)
(-1.46551e-05 3.61815e-07 0)
(-1.49185e-05 -2.68835e-09 0)
(-1.45836e-05 -3.05727e-07 0)
(-1.37557e-05 -5.42621e-07 0)
(-1.25698e-05 -7.15837e-07 0)
(-1.11261e-05 -8.12557e-07 0)
(-9.54605e-06 -8.5492e-07 0)
(-7.93324e-06 -8.43988e-07 0)
(-6.36832e-06 -7.95623e-07 0)
(-4.91057e-06 -7.2322e-07 0)
(-3.59855e-06 -6.43468e-07 0)
(-2.43698e-06 -5.66876e-07 0)
(-1.40422e-06 -5.08127e-07 0)
(-4.58655e-07 -4.75224e-07 0)
(-5.23911e-06 0.00021342 0)
(-1.57444e-05 0.000214276 0)
(-2.64789e-05 0.000214946 0)
(-3.74919e-05 0.000215945 0)
(-4.88725e-05 0.000217255 0)
(-6.07321e-05 0.000218862 0)
(-7.30961e-05 0.000220717 0)
(-8.60043e-05 0.000222777 0)
(-9.96026e-05 0.000224993 0)
(-0.000113917 0.000227271 0)
(-0.000128872 0.000229563 0)
(-0.000144632 0.000231757 0)
(-0.000161265 0.000233762 0)
(-0.000178582 0.000235489 0)
(-0.00019667 0.000236849 0)
(-0.000215479 0.000237714 0)
(-0.000234949 0.000238005 0)
(-0.000255069 0.000237625 0)
(-0.000275654 0.000236506 0)
(-0.000296648 0.000234542 0)
(-0.000317927 0.000231694 0)
(-0.000339363 0.000227897 0)
(-0.000360814 0.000223112 0)
(-0.000382141 0.000217329 0)
(-0.0004032 0.000210494 0)
(-0.000423822 0.000202669 0)
(-0.000443895 0.000193861 0)
(-0.000463228 0.000184073 0)
(-0.000481653 0.000173383 0)
(-0.000499136 0.000161852 0)
(-0.000515491 0.000149571 0)
(-0.000530553 0.000136568 0)
(-0.00054414 0.000122957 0)
(-0.000556162 0.00010879 0)
(-0.000566687 9.41621e-05 0)
(-0.000575354 7.91291e-05 0)
(-0.000582173 6.37787e-05 0)
(-0.000587304 4.81811e-05 0)
(-0.00059063 3.2414e-05 0)
(-0.000592055 1.65672e-05 0)
(-0.000591529 7.16672e-07 0)
(-0.000589095 -1.49984e-05 0)
(-0.000584686 -3.04801e-05 0)
(-0.000578306 -4.56376e-05 0)
(-0.000569923 -6.03993e-05 0)
(-0.000559559 -7.46822e-05 0)
(-0.000547251 -8.84184e-05 0)
(-0.000533039 -0.000101522 0)
(-0.000516978 -0.000113941 0)
(-0.000499161 -0.000125571 0)
(-0.000479603 -0.000136359 0)
(-0.000458467 -0.000146202 0)
(-0.000435811 -0.000155059 0)
(-0.000411791 -0.000162868 0)
(-0.000386553 -0.000169538 0)
(-0.000360182 -0.000174953 0)
(-0.000332922 -0.00017927 0)
(-0.00030485 -0.000182163 0)
(-0.000276226 -0.000183846 0)
(-0.000247245 -0.000184037 0)
(-0.000218094 -0.000182945 0)
(-0.000189042 -0.000180434 0)
(-0.000160184 -0.000176583 0)
(-0.000131916 -0.000171357 0)
(-0.000104564 -0.000164823 0)
(-7.81361e-05 -0.000157007 0)
(-5.29162e-05 -0.000148007 0)
(-2.9184e-05 -0.000137923 0)
(-7.2745e-06 -0.000126794 0)
(1.27379e-05 -0.000114778 0)
(3.07359e-05 -0.000101959 0)
(4.65262e-05 -8.84781e-05 0)
(5.99191e-05 -7.45048e-05 0)
(7.07664e-05 -6.02298e-05 0)
(7.89757e-05 -4.58018e-05 0)
(8.44541e-05 -3.1411e-05 0)
(8.73813e-05 -1.72585e-05 0)
(8.74284e-05 -3.56779e-06 0)
(8.47585e-05 9.50167e-06 0)
(7.96464e-05 2.1722e-05 0)
(7.20712e-05 3.30073e-05 0)
(6.23589e-05 4.31179e-05 0)
(5.06376e-05 5.18994e-05 0)
(3.72179e-05 5.92413e-05 0)
(2.23882e-05 6.49723e-05 0)
(6.39847e-06 6.90707e-05 0)
(-1.02794e-05 7.14567e-05 0)
(-2.72366e-05 7.20664e-05 0)
(-4.41862e-05 7.09406e-05 0)
(-6.07132e-05 6.8092e-05 0)
(-7.63819e-05 6.36285e-05 0)
(-9.08709e-05 5.76482e-05 0)
(-0.000103786 5.03127e-05 0)
(-0.000114785 4.18125e-05 0)
(-0.000123608 3.23474e-05 0)
(-0.000130029 2.21863e-05 0)
(-0.000133834 1.15839e-05 0)
(-0.000134783 8.196e-07 0)
(-0.000132932 -9.78383e-06 0)
(-0.000128349 -1.99774e-05 0)
(-0.000121093 -2.94698e-05 0)
(-0.00011143 -3.80069e-05 0)
(-9.96254e-05 -4.53302e-05 0)
(-8.59799e-05 -5.12002e-05 0)
(-7.08637e-05 -5.54644e-05 0)
(-5.47521e-05 -5.79804e-05 0)
(-3.81413e-05 -5.86828e-05 0)
(-2.15384e-05 -5.7552e-05 0)
(-5.47589e-06 -5.46364e-05 0)
(9.52658e-06 -5.00436e-05 0)
(2.29968e-05 -4.39448e-05 0)
(3.45e-05 -3.65583e-05 0)
(4.36472e-05 -2.81704e-05 0)
(5.01758e-05 -1.91036e-05 0)
(5.39001e-05 -9.69924e-06 0)
(5.46172e-05 -3.51337e-07 0)
(5.2366e-05 8.595e-06 0)
(4.74077e-05 1.67723e-05 0)
(3.99797e-05 2.38789e-05 0)
(3.04512e-05 2.96258e-05 0)
(1.92986e-05 3.37686e-05 0)
(7.02116e-06 3.61455e-05 0)
(-5.79839e-06 3.67185e-05 0)
(-1.84514e-05 3.54134e-05 0)
(-3.02864e-05 3.23799e-05 0)
(-4.07654e-05 2.77769e-05 0)
(-4.93908e-05 2.18866e-05 0)
(-5.57131e-05 1.50189e-05 0)
(-5.94533e-05 7.54396e-06 0)
(-6.03508e-05 -1.01661e-07 0)
(-5.83796e-05 -7.51744e-06 0)
(-5.37682e-05 -1.43355e-05 0)
(-4.67394e-05 -2.02018e-05 0)
(-3.77263e-05 -2.4793e-05 0)
(-2.72217e-05 -2.78681e-05 0)
(-1.58458e-05 -2.93285e-05 0)
(-4.23294e-06 -2.90882e-05 0)
(6.98715e-06 -2.72104e-05 0)
(1.71166e-05 -2.3873e-05 0)
(2.56571e-05 -1.92867e-05 0)
(3.21206e-05 -1.37599e-05 0)
(3.6218e-05 -7.64703e-06 0)
(3.77205e-05 -1.29878e-06 0)
(3.65606e-05 4.85434e-06 0)
(3.29289e-05 1.05236e-05 0)
(2.7008e-05 1.54125e-05 0)
(1.92382e-05 1.92562e-05 0)
(1.01031e-05 2.18589e-05 0)
(1.27122e-08 2.31417e-05 0)
(-1.0353e-05 2.30851e-05 0)
(-2.03045e-05 2.17502e-05 0)
(-2.94087e-05 1.92649e-05 0)
(-3.71891e-05 1.58185e-05 0)
(-4.32473e-05 1.16436e-05 0)
(-4.72922e-05 6.99928e-06 0)
(-4.91479e-05 2.15806e-06 0)
(-4.87648e-05 -2.602e-06 0)
(-4.62074e-05 -7.07062e-06 0)
(-4.16558e-05 -1.10261e-05 0)
(-3.53714e-05 -1.42983e-05 0)
(-2.77014e-05 -1.67655e-05 0)
(-1.90363e-05 -1.83485e-05 0)
(-9.81557e-06 -1.90418e-05 0)
(-4.03222e-07 -1.88475e-05 0)
(8.74129e-06 -1.78582e-05 0)
(1.7205e-05 -1.6165e-05 0)
(2.46981e-05 -1.39015e-05 0)
(3.09394e-05 -1.12084e-05 0)
(3.57542e-05 -8.24636e-06 0)
(3.90035e-05 -5.16809e-06 0)
(4.06661e-05 -2.12461e-06 0)
(4.07727e-05 7.53156e-07 0)
(3.94136e-05 3.34821e-06 0)
(3.67563e-05 5.577e-06 0)
(3.29977e-05 7.36765e-06 0)
(2.83744e-05 8.68546e-06 0)
(2.31387e-05 9.51594e-06 0)
(1.75554e-05 9.87314e-06 0)
(1.18874e-05 9.7904e-06 0)
(6.36191e-06 9.30859e-06 0)
(1.19511e-06 8.50677e-06 0)
(-3.44367e-06 7.44911e-06 0)
(-7.419e-06 6.2086e-06 0)
(-1.06438e-05 4.87361e-06 0)
(-1.30589e-05 3.51085e-06 0)
(-1.46664e-05 2.19635e-06 0)
(-1.54976e-05 9.78914e-07 0)
(-1.56275e-05 -8.64351e-08 0)
(-1.51502e-05 -9.63809e-07 0)
(-1.41808e-05 -1.65584e-06 0)
(-1.28461e-05 -2.13133e-06 0)
(-1.12663e-05 -2.41103e-06 0)
(-9.57669e-06 -2.51536e-06 0)
(-7.87353e-06 -2.4706e-06 0)
(-6.24907e-06 -2.31641e-06 0)
(-4.76231e-06 -2.09379e-06 0)
(-3.4481e-06 -1.84675e-06 0)
(-2.30826e-06 -1.61464e-06 0)
(-1.31805e-06 -1.43613e-06 0)
(-4.2803e-07 -1.33812e-06 0)
(-3.41375e-06 0.000207875 0)
(-1.03526e-05 0.000207995 0)
(-1.76147e-05 0.000210187 0)
(-2.54089e-05 0.000213503 0)
(-3.38662e-05 0.000217899 0)
(-4.32154e-05 0.000223329 0)
(-5.36823e-05 0.000229715 0)
(-6.52788e-05 0.000236933 0)
(-7.83699e-05 0.000244854 0)
(-9.29864e-05 0.000253298 0)
(-0.000109197 0.000262102 0)
(-0.000127288 0.000271019 0)
(-0.000147056 0.000279873 0)
(-0.000168431 0.000288424 0)
(-0.00019163 0.000296424 0)
(-0.000216493 0.000303643 0)
(-0.000242745 0.000309804 0)
(-0.000270219 0.000314731 0)
(-0.000298863 0.000318199 0)
(-0.000328398 0.000320062 0)
(-0.000358456 0.000320132 0)
(-0.000388912 0.00031832 0)
(-0.000419317 0.000314499 0)
(-0.000449654 0.000308655 0)
(-0.000479398 0.000300714 0)
(-0.000508022 0.000290721 0)
(-0.000535722 0.000278716 0)
(-0.000562013 0.000264814 0)
(-0.000586529 0.000249045 0)
(-0.000609086 0.000231605 0)
(-0.000629806 0.000212675 0)
(-0.000648481 0.000192281 0)
(-0.000664845 0.000170778 0)
(-0.00067905 0.000148216 0)
(-0.000690979 0.000124793 0)
(-0.000700607 0.000100776 0)
(-0.000707883 7.6173e-05 0)
(-0.000712822 5.12065e-05 0)
(-0.000715303 2.59876e-05 0)
(-0.000715352 6.68803e-07 0)
(-0.000712606 -2.4554e-05 0)
(-0.000706881 -4.96147e-05 0)
(-0.000698507 -7.43947e-05 0)
(-0.000687604 -9.87541e-05 0)
(-0.000674269 -0.000122557 0)
(-0.000658601 -0.000145659 0)
(-0.000640626 -0.000167927 0)
(-0.000620481 -0.000189194 0)
(-0.000598156 -0.000209361 0)
(-0.000573729 -0.000228225 0)
(-0.000547303 -0.000245723 0)
(-0.000519007 -0.000261675 0)
(-0.000489128 -0.00027595 0)
(-0.000457583 -0.000288448 0)
(-0.000424324 -0.000299008 0)
(-0.000390373 -0.000307553 0)
(-0.000355211 -0.000313973 0)
(-0.000319087 -0.000318128 0)
(-0.000282456 -0.000320018 0)
(-0.000245524 -0.000319637 0)
(-0.000208796 -0.000316872 0)
(-0.000172164 -0.000311735 0)
(-0.000136126 -0.000304174 0)
(-0.000100952 -0.000294354 0)
(-6.68516e-05 -0.000282224 0)
(-3.43165e-05 -0.000267958 0)
(-3.83781e-06 -0.000251588 0)
(2.47919e-05 -0.000233318 0)
(5.10783e-05 -0.000213267 0)
(7.47659e-05 -0.000191636 0)
(9.56362e-05 -0.000168679 0)
(0.000113377 -0.00014464 0)
(0.000127903 -0.000119823 0)
(0.000139009 -9.45071e-05 0)
(0.000146634 -6.90242e-05 0)
(0.000150721 -4.3681e-05 0)
(0.000151092 -1.88425e-05 0)
(0.000147875 5.09852e-06 0)
(0.000141274 2.78946e-05 0)
(0.000131499 4.9163e-05 0)
(0.00011865 6.86138e-05 0)
(0.00010293 8.59426e-05 0)
(8.47507e-05 0.000100851 0)
(6.44496e-05 0.000113145 0)
(4.24509e-05 0.000122551 0)
(1.92443e-05 0.000128996 0)
(-4.73924e-06 0.000132345 0)
(-2.89042e-05 0.000132568 0)
(-5.27644e-05 0.000129671 0)
(-7.57935e-05 0.000123772 0)
(-9.74366e-05 0.000115005 0)
(-0.000117205 0.000103591 0)
(-0.000134591 8.98118e-05 0)
(-0.000149233 7.39994e-05 0)
(-0.00016072 5.65722e-05 0)
(-0.000168726 3.79827e-05 0)
(-0.000173129 1.86853e-05 0)
(-0.000173657 -7.85344e-07 0)
(-0.000170271 -1.9931e-05 0)
(-0.00016318 -3.82144e-05 0)
(-0.000152583 -5.51595e-05 0)
(-0.000138769 -7.02638e-05 0)
(-0.000122019 -8.30948e-05 0)
(-0.000102876 -9.32608e-05 0)
(-8.19417e-05 -0.000100472 0)
(-5.97878e-05 -0.000104519 0)
(-3.71454e-05 -0.000105283 0)
(-1.47334e-05 -0.000102749 0)
(6.75417e-06 -9.70142e-05 0)
(2.66206e-05 -8.82959e-05 0)
(4.42266e-05 -7.69221e-05 0)
(5.89685e-05 -6.33135e-05 0)
(7.03741e-05 -4.79831e-05 0)
(7.80657e-05 -3.15174e-05 0)
(8.1808e-05 -1.45473e-05 0)
(8.15189e-05 2.26338e-06 0)
(7.72368e-05 1.82638e-05 0)
(6.92992e-05 3.28018e-05 0)
(5.80987e-05 4.53212e-05 0)
(4.41799e-05 5.52905e-05 0)
(2.81891e-05 6.23166e-05 0)
(1.08742e-05 6.61574e-05 0)
(-6.99916e-06 6.669e-05 0)
(-2.4469e-05 6.39039e-05 0)
(-4.05908e-05 5.80279e-05 0)
(-5.46655e-05 4.93913e-05 0)
(-6.60318e-05 3.85065e-05 0)
(-7.4179e-05 2.59547e-05 0)
(-7.86376e-05 1.24237e-05 0)
(-7.92057e-05 -1.33031e-06 0)
(-7.59673e-05 -1.45961e-05 0)
(-6.92032e-05 -2.6694e-05 0)
(-5.92618e-05 -3.69611e-05 0)
(-4.67464e-05 -4.48641e-05 0)
(-3.24474e-05 -5.0051e-05 0)
(-1.71418e-05 -5.22903e-05 0)
(-1.6734e-06 -5.15092e-05 0)
(1.30209e-05 -4.78652e-05 0)
(2.61194e-05 -4.16641e-05 0)
(3.69456e-05 -3.33256e-05 0)
(4.49202e-05 -2.34162e-05 0)
(4.97391e-05 -1.25488e-05 0)
(5.10824e-05 -1.42927e-06 0)
(4.9029e-05 9.3282e-06 0)
(4.38897e-05 1.91417e-05 0)
(3.59357e-05 2.74602e-05 0)
(2.57196e-05 3.39037e-05 0)
(1.3922e-05 3.81616e-05 0)
(1.14176e-06 4.00919e-05 0)
(-1.18007e-05 3.97301e-05 0)
(-2.40792e-05 3.71847e-05 0)
(-3.51472e-05 3.26979e-05 0)
(-4.44375e-05 2.66213e-05 0)
(-5.15082e-05 1.93645e-05 0)
(-5.60528e-05 1.13893e-05 0)
(-5.79014e-05 3.14634e-06 0)
(-5.70625e-05 -4.9089e-06 0)
(-5.36682e-05 -1.2397e-05 0)
(-4.79608e-05 -1.89512e-05 0)
(-4.0303e-05 -2.43167e-05 0)
(-3.11178e-05 -2.8284e-05 0)
(-2.09133e-05 -3.07678e-05 0)
(-1.01775e-05 -3.17355e-05 0)
(6.25162e-07 -3.12378e-05 0)
(1.0968e-05 -2.94404e-05 0)
(2.04271e-05 -2.64867e-05 0)
(2.86715e-05 -2.26253e-05 0)
(3.54037e-05 -1.80766e-05 0)
(4.0458e-05 -1.31322e-05 0)
(4.37105e-05 -8.02595e-06 0)
(4.51534e-05 -3.01525e-06 0)
(4.48641e-05 1.6911e-06 0)
(4.29715e-05 5.90693e-06 0)
(3.96791e-05 9.49688e-06 0)
(3.52247e-05 1.23537e-05 0)
(2.98854e-05 1.44206e-05 0)
(2.39567e-05 1.56898e-05 0)
(1.77288e-05 1.61879e-05 0)
(1.14762e-05 1.59582e-05 0)
(5.46822e-06 1.51018e-05 0)
(-7.26314e-08 1.37234e-05 0)
(-4.98449e-06 1.19454e-05 0)
(-9.12215e-06 9.88775e-06 0)
(-1.24008e-05 7.69084e-06 0)
(-1.47824e-05 5.46472e-06 0)
(-1.6274e-05 3.32437e-06 0)
(-1.69256e-05 1.36556e-06 0)
(-1.68287e-05 -3.49482e-07 0)
(-1.61089e-05 -1.75289e-06 0)
(-1.48784e-05 -2.83413e-06 0)
(-1.32881e-05 -3.56621e-06 0)
(-1.14871e-05 -3.98309e-06 0)
(-9.60224e-06 -4.1097e-06 0)
(-7.7513e-06 -3.99894e-06 0)
(-6.02705e-06 -3.71288e-06 0)
(-4.48997e-06 -3.31961e-06 0)
(-3.17425e-06 -2.8918e-06 0)
(-2.0773e-06 -2.49562e-06 0)
(-1.16446e-06 -2.19173e-06 0)
(-3.74263e-07 -2.02579e-06 0)
(2.79435e-06 0.000350343 0)
(8.43002e-06 0.000353433 0)
(1.35997e-05 0.000359003 0)
(1.78842e-05 0.000367369 0)
(2.08499e-05 0.000378476 0)
(2.21063e-05 0.000392148 0)
(2.11176e-05 0.00040821 0)
(1.75554e-05 0.000426298 0)
(1.0941e-05 0.000446095 0)
(1.1e-06 0.000467064 0)
(-1.22456e-05 0.000488675 0)
(-2.92678e-05 0.000510268 0)
(-4.98813e-05 0.000531267 0)
(-7.42489e-05 0.000551003 0)
(-0.000102312 0.000568915 0)
(-0.000134102 0.000584481 0)
(-0.000169097 0.000597233 0)
(-0.000206861 0.000606734 0)
(-0.000246984 0.000612547 0)
(-0.000289092 0.000614363 0)
(-0.000332649 0.000612032 0)
(-0.000377132 0.000605438 0)
(-0.000421905 0.000594486 0)
(-0.000466535 0.000579321 0)
(-0.000510511 0.000559938 0)
(-0.000552995 0.000536748 0)
(-0.000593565 0.000509974 0)
(-0.000632077 0.000479986 0)
(-0.000667949 0.000447338 0)
(-0.000700416 0.000412316 0)
(-0.000730244 0.00037542 0)
(-0.000756452 0.000336932 0)
(-0.000778789 0.000297316 0)
(-0.000798032 0.00025682 0)
(-0.000813232 0.000215592 0)
(-0.000825062 0.000173923 0)
(-0.000833792 0.000131998 0)
(-0.000839101 9.01451e-05 0)
(-0.000841256 4.84531e-05 0)
(-0.000839826 7.02712e-06 0)
(-0.00083518 -3.36481e-05 0)
(-0.000827726 -7.34604e-05 0)
(-0.000817144 -0.000112272 0)
(-0.000803408 -0.000149964 0)
(-0.000786531 -0.000186401 0)
(-0.000766591 -0.00022145 0)
(-0.000743562 -0.000254962 0)
(-0.000717686 -0.000286752 0)
(-0.000688898 -0.000316678 0)
(-0.000657467 -0.000344516 0)
(-0.000623551 -0.000370165 0)
(-0.000587069 -0.000393378 0)
(-0.000548454 -0.000414129 0)
(-0.000507748 -0.000431911 0)
(-0.000465192 -0.00044694 0)
(-0.0004212 -0.000458869 0)
(-0.000375707 -0.000467541 0)
(-0.000329252 -0.000472819 0)
(-0.000282623 -0.000474776 0)
(-0.000235597 -0.000473214 0)
(-0.000188471 -0.000468057 0)
(-0.000141694 -0.000459388 0)
(-9.59446e-05 -0.000447077 0)
(-5.15962e-05 -0.000431382 0)
(-8.95808e-06 -0.00041222 0)
(3.16229e-05 -0.000389871 0)
(6.97779e-05 -0.000364378 0)
(0.000105029 -0.000336014 0)
(0.000137088 -0.000305038 0)
(0.000165439 -0.000271807 0)
(0.00018986 -0.000236628 0)
(0.000210083 -0.000199941 0)
(0.00022586 -0.000162135 0)
(0.000236984 -0.00012373 0)
(0.000243386 -8.51175e-05 0)
(0.000244958 -4.69266e-05 0)
(0.000241612 -9.59147e-06 0)
(0.000233509 2.63489e-05 0)
(0.000220939 6.04018e-05 0)
(0.000204078 9.20305e-05 0)
(0.000183205 0.000120731 0)
(0.000158679 0.000146077 0)
(0.000131023 0.000167662 0)
(0.000100657 0.000185112 0)
(6.82512e-05 0.000198187 0)
(3.44936e-05 0.000206614 0)
(-1.95391e-08 0.0002103 0)
(-3.44773e-05 0.000209204 0)
(-6.81908e-05 0.000203359 0)
(-0.000100413 0.00019293 0)
(-0.000130455 0.000178152 0)
(-0.000157651 0.000159386 0)
(-0.000181362 0.000137118 0)
(-0.000200954 0.000111879 0)
(-0.000215937 8.42882e-05 0)
(-0.000226056 5.50013e-05 0)
(-0.000230991 2.48305e-05 0)
(-0.000230478 -5.41831e-06 0)
(-0.000224628 -3.4985e-05 0)
(-0.000213677 -6.31233e-05 0)
(-0.000197859 -8.90035e-05 0)
(-0.000177605 -0.000111885 0)
(-0.000153504 -0.000131108 0)
(-0.000126256 -0.000146136 0)
(-9.6703e-05 -0.000156508 0)
(-6.5735e-05 -0.000161911 0)
(-3.43042e-05 -0.000162223 0)
(-3.40158e-06 -0.000157432 0)
(2.5949e-05 -0.000147766 0)
(5.276e-05 -0.000133537 0)
(7.61731e-05 -0.000115291 0)
(9.5419e-05 -9.3691e-05 0)
(0.000109836 -6.95535e-05 0)
(0.000119002 -4.37972e-05 0)
(0.000122653 -1.74566e-05 0)
(0.000120642 8.46726e-06 0)
(0.000113129 3.29668e-05 0)
(0.000100649 5.50869e-05 0)
(8.37485e-05 7.39566e-05 0)
(6.31789e-05 8.87315e-05 0)
(4.00208e-05 9.8925e-05 0)
(1.53213e-05 0.000104058 0)
(-9.8899e-06 0.000104022 0)
(-3.42572e-05 9.8959e-05 0)
(-5.65257e-05 8.91743e-05 0)
(-7.56919e-05 7.52136e-05 0)
(-9.08652e-05 5.78958e-05 0)
(-0.000101366 3.81483e-05 0)
(-0.000106678 1.71099e-05 0)
(-0.000106593 -4.17309e-06 0)
(-0.000101307 -2.44953e-05 0)
(-9.12054e-05 -4.28364e-05 0)
(-7.68269e-05 -5.81863e-05 0)
(-5.91732e-05 -6.98199e-05 0)
(-3.92807e-05 -7.71724e-05 0)
(-1.82407e-05 -7.99703e-05 0)
(2.69205e-06 -7.81572e-05 0)
(2.22964e-05 -7.20491e-05 0)
(3.95017e-05 -6.21147e-05 0)
(5.34518e-05 -4.90956e-05 0)
(6.34219e-05 -3.38479e-05 0)
(6.8982e-05 -1.73298e-05 0)
(6.99565e-05 -6.08408e-07 0)
(6.65351e-05 1.54478e-05 0)
(5.90629e-05 2.98912e-05 0)
(4.80561e-05 4.19848e-05 0)
(3.4337e-05 5.11268e-05 0)
(1.87551e-05 5.69796e-05 0)
(2.21284e-06 5.935e-05 0)
(-1.42657e-05 5.83398e-05 0)
(-2.97201e-05 5.4168e-05 0)
(-4.34141e-05 4.72173e-05 0)
(-5.46797e-05 3.80443e-05 0)
(-6.30116e-05 2.72677e-05 0)
(-6.81051e-05 1.55617e-05 0)
(-6.98327e-05 3.60755e-06 0)
(-6.82721e-05 -7.97336e-06 0)
(-6.36362e-05 -1.86012e-05 0)
(-5.6288e-05 -2.7806e-05 0)
(-4.67053e-05 -3.52161e-05 0)
(-3.54543e-05 -4.05969e-05 0)
(-2.31494e-05 -4.38221e-05 0)
(-1.03899e-05 -4.48858e-05 0)
(2.23254e-06 -4.39043e-05 0)
(1.41588e-05 -4.1096e-05 0)
(2.48983e-05 -3.67075e-05 0)
(3.40901e-05 -3.10838e-05 0)
(4.14252e-05 -2.45788e-05 0)
(4.67335e-05 -1.75575e-05 0)
(4.99324e-05 -1.03928e-05 0)
(5.10455e-05 -3.40526e-06 0)
(5.01967e-05 3.1006e-06 0)
(4.75669e-05 8.88049e-06 0)
(4.34159e-05 1.37523e-05 0)
(3.80291e-05 1.75798e-05 0)
(3.17479e-05 2.03013e-05 0)
(2.49102e-05 2.19096e-05 0)
(1.78305e-05 2.24404e-05 0)
(1.08385e-05 2.19914e-05 0)
(4.21802e-06 2.06801e-05 0)
(-1.80197e-06 1.86791e-05 0)
(-7.04695e-06 1.61398e-05 0)
(-1.13724e-05 1.32508e-05 0)
(-1.47078e-05 1.0185e-05 0)
(-1.70263e-05 7.10599e-06 0)
(-1.83495e-05 4.16692e-06 0)
(-1.87614e-05 1.49313e-06 0)
(-1.83668e-05 -8.18728e-07 0)
(-1.73095e-05 -2.70294e-06 0)
(-1.57398e-05 -4.1191e-06 0)
(-1.38236e-05 -5.06968e-06 0)
(-1.17256e-05 -5.56968e-06 0)
(-9.59321e-06 -5.68068e-06 0)
(-7.55167e-06 -5.46527e-06 0)
(-5.70178e-06 -5.01401e-06 0)
(-4.10722e-06 -4.42468e-06 0)
(-2.79756e-06 -3.79385e-06 0)
(-1.76154e-06 -3.21891e-06 0)
(-9.5482e-07 -2.78109e-06 0)
(-3.00599e-07 -2.5417e-06 0)
(1.48957e-05 0.000117948 0)
(4.46424e-05 0.000121611 0)
(7.34437e-05 0.000133804 0)
(0.000100445 0.000152141 0)
(0.000124519 0.000176499 0)
(0.00014475 0.000206321 0)
(0.00015983 0.000241334 0)
(0.000168996 0.00028001 0)
(0.000171031 0.000322573 0)
(0.000164812 0.000367138 0)
(0.000149777 0.000413239 0)
(0.00012558 0.000459485 0)
(9.25752e-05 0.000505082 0)
(5.11672e-05 0.00054897 0)
(2.21215e-06 0.00059038 0)
(-5.34409e-05 0.000628348 0)
(-0.00011488 0.00066212 0)
(-0.000181605 0.000690779 0)
(-0.00025268 0.000713516 0)
(-0.000326206 0.000729739 0)
(-0.000400739 0.000738883 0)
(-0.000475795 0.000740653 0)
(-0.000549595 0.000734968 0)
(-0.000621636 0.000721636 0)
(-0.000690159 0.000701172 0)
(-0.000753606 0.000673522 0)
(-0.000812365 0.000639851 0)
(-0.000864606 0.000600136 0)
(-0.00091046 0.000556687 0)
(-0.000950075 0.000509107 0)
(-0.000983806 0.000459623 0)
(-0.00101162 0.000407721 0)
(-0.00103357 0.000354752 0)
(-0.00105132 0.000300898 0)
(-0.00106455 0.000246581 0)
(-0.00107324 0.00019194 0)
(-0.00107732 0.000137284 0)
(-0.00107722 8.27293e-05 0)
(-0.00107387 2.85937e-05 0)
(-0.00106564 -2.46024e-05 0)
(-0.0010523 -7.71121e-05 0)
(-0.00103519 -0.00012876 0)
(-0.00101457 -0.000179268 0)
(-0.000990601 -0.000228527 0)
(-0.000963332 -0.000276223 0)
(-0.000932838 -0.000322211 0)
(-0.000898986 -0.00036623 0)
(-0.000861983 -0.000408094 0)
(-0.000821702 -0.000447481 0)
(-0.000778431 -0.000484216 0)
(-0.000732244 -0.000517952 0)
(-0.000683537 -0.000548448 0)
(-0.000631746 -0.000575388 0)
(-0.000577663 -0.000598703 0)
(-0.000521889 -0.000617982 0)
(-0.000464101 -0.000633109 0)
(-0.000404587 -0.00064378 0)
(-0.000344415 -0.00064996 0)
(-0.000283888 -0.000651356 0)
(-0.000222676 -0.000647874 0)
(-0.000162186 -0.000639507 0)
(-0.000102199 -0.000626053 0)
(-4.37592e-05 -0.000607918 0)
(1.27084e-05 -0.000584732 0)
(6.6952e-05 -0.000556992 0)
(0.000118131 -0.000524548 0)
(0.000165835 -0.000487964 0)
(0.000209604 -0.000447339 0)
(0.000248801 -0.000403234 0)
(0.000283036 -0.000355998 0)
(0.000311914 -0.000306181 0)
(0.000335025 -0.000254311 0)
(0.000352103 -0.000201046 0)
(0.00036297 -0.00014702 0)
(0.000367423 -9.29226e-05 0)
(0.000365386 -3.9497e-05 0)
(0.000356982 1.25042e-05 0)
(0.000342296 6.24115e-05 0)
(0.000321666 0.00010948 0)
(0.00029533 0.000152937 0)
(0.000263765 0.000192165 0)
(0.00022754 0.000226475 0)
(0.00018727 0.000255352 0)
(0.000143762 0.000278266 0)
(9.77616e-05 0.000294897 0)
(5.0168e-05 0.000304893 0)
(2.00989e-06 0.000308141 0)
(-4.57988e-05 0.000304547 0)
(-9.22784e-05 0.000294258 0)
(-0.000136435 0.000277481 0)
(-0.000177294 0.000254678 0)
(-0.000213849 0.000226345 0)
(-0.000245262 0.000193159 0)
(-0.000270928 0.000155857 0)
(-0.000290264 0.000115398 0)
(-0.000302634 7.2814e-05 0)
(-0.000307682 2.923e-05 0)
(-0.000305368 -1.42343e-05 0)
(-0.000295891 -5.65563e-05 0)
(-0.000279454 -9.6555e-05 0)
(-0.000256376 -0.000133088 0)
(-0.000227396 -0.00016515 0)
(-0.000193332 -0.000191797 0)
(-0.000155205 -0.00021228 0)
(-0.000114138 -0.000225989 0)
(-7.14353e-05 -0.000232536 0)
(-2.84379e-05 -0.000231715 0)
(1.34546e-05 -0.000223627 0)
(5.29284e-05 -0.000208559 0)
(8.87147e-05 -0.000187056 0)
(0.000119585 -0.000159948 0)
(0.000144512 -0.000128204 0)
(0.000162647 -9.30717e-05 0)
(0.000173345 -5.58013e-05 0)
(0.000176336 -1.78788e-05 0)
(0.00017169 1.91365e-05 0)
(0.000159668 5.39308e-05 0)
(0.000140975 8.50856e-05 0)
(0.000116295 0.000111316 0)
(8.69042e-05 0.000131606 0)
(5.41662e-05 0.000145128 0)
(1.95077e-05 0.000151393 0)
(-1.52773e-05 0.000150179 0)
(-4.85486e-05 0.000141788 0)
(-7.87406e-05 0.000126731 0)
(-0.000104391 0.000105849 0)
(-0.000124313 8.03397e-05 0)
(-0.000137606 5.15676e-05 0)
(-0.00014372 2.11746e-05 0)
(-0.000142475 -9.23313e-06 0)
(-0.000134119 -3.80656e-05 0)
(-0.000119325 -6.37743e-05 0)
(-9.89702e-05 -8.50095e-05 0)
(-7.4402e-05 -0.000100759 0)
(-4.7111e-05 -0.000110292 0)
(-1.86323e-05 -0.000113282 0)
(9.34928e-06 -0.000109808 0)
(3.5187e-05 -0.00010033 0)
(5.75173e-05 -8.56023e-05 0)
(7.52042e-05 -6.67373e-05 0)
(8.74495e-05 -4.49802e-05 0)
(9.37486e-05 -2.1736e-05 0)
(9.3999e-05 1.58316e-06 0)
(8.85289e-05 2.37083e-05 0)
(7.78834e-05 4.33076e-05 0)
(6.2845e-05 5.94592e-05 0)
(4.45281e-05 7.14281e-05 0)
(2.4148e-05 7.87482e-05 0)
(2.86444e-06 8.12909e-05 0)
(-1.80042e-05 7.92144e-05 0)
(-3.73139e-05 7.28842e-05 0)
(-5.4144e-05 6.2931e-05 0)
(-6.76938e-05 5.01132e-05 0)
(-7.74321e-05 3.53135e-05 0)
(-8.3035e-05 1.94423e-05 0)
(-8.4446e-05 3.41152e-06 0)
(-8.18354e-05 -1.19412e-05 0)
(-7.55474e-05 -2.58674e-05 0)
(-6.60915e-05 -3.77705e-05 0)
(-5.41116e-05 -4.71996e-05 0)
(-4.03153e-05 -5.38688e-05 0)
(-2.54619e-05 -5.76788e-05 0)
(-1.02946e-05 -5.86387e-05 0)
(4.49439e-06 -5.69635e-05 0)
(1.82616e-05 -5.29225e-05 0)
(3.04717e-05 -4.69012e-05 0)
(4.071e-05 -3.93433e-05 0)
(4.86836e-05 -3.07386e-05 0)
(5.42314e-05 -2.15457e-05 0)
(5.72983e-05 -1.2255e-05 0)
(5.79644e-05 -3.27343e-06 0)
(5.63991e-05 5.01297e-06 0)
(5.28615e-05 1.2313e-05 0)
(4.7668e-05 1.83917e-05 0)
(4.11739e-05 2.3102e-05 0)
(3.37787e-05 2.63807e-05 0)
(2.58656e-05 2.82186e-05 0)
(1.78129e-05 2.86909e-05 0)
(9.96426e-06 2.79327e-05 0)
(2.64424e-06 2.60971e-05 0)
(-3.90486e-06 2.34083e-05 0)
(-9.51702e-06 2.007e-05 0)
(-1.40398e-05 1.63205e-05 0)
(-1.74191e-05 1.23739e-05 0)
(-1.96425e-05 8.45165e-06 0)
(-2.07559e-05 4.7307e-06 0)
(-2.08631e-05 1.37559e-06 0)
(-2.01062e-05 -1.501e-06 0)
(-1.86582e-05 -3.81747e-06 0)
(-1.66873e-05 -5.52862e-06 0)
(-1.43862e-05 -6.64278e-06 0)
(-1.1947e-05 -7.18786e-06 0)
(-9.52977e-06 -7.23495e-06 0)
(-7.27001e-06 -6.87976e-06 0)
(-5.28156e-06 -6.23242e-06 0)
(-3.62476e-06 -5.42017e-06 0)
(-2.32841e-06 -4.56769e-06 0)
(-1.37437e-06 -3.7957e-06 0)
(-6.99111e-07 -3.20971e-06 0)
(-2.1084e-07 -2.89222e-06 0)
(3.85909e-05 2.30588e-06 0)
(0.000115912 1.50405e-05 0)
(0.00019142 4.40581e-05 0)
(0.000263514 8.76516e-05 0)
(0.00032894 0.000145549 0)
(0.000386379 0.000216401 0)
(0.000430165 0.000300056 0)
(0.00046264 0.000393333 0)
(0.00048166 0.00049763 0)
(0.000484447 0.000606376 0)
(0.000473635 0.000717651 0)
(0.000447628 0.000826421 0)
(0.000408475 0.000930288 0)
(0.000356553 0.00102638 0)
(0.000292714 0.00111246 0)