/*--------------------------------*- C++ -*----------------------------------*\
  =========                 |
  \\      /  F ield         | OpenFOAM: The Open Source CFD Toolbox
   \\    /   O peration     | Website:  https://openfoam.org
    \\  /    A nd           | Version:  12
     \\/     M anipulation  |
\*---------------------------------------------------------------------------*/
FoamFile
{
    format      ascii;
    class       volScalarField;
    location    "5.5";
    object      p;
}
// * * * * * * * * * * * * * * * * * * * * * * * * * * * * * * * * * * * * * //

dimensions      [0 2 -2 0 0 0 0];

internalField   nonuniform List<scalar> 
400
(
3.90164e-08
-8.28329e-05
-0.000243624
-0.000125544
-0.000558134
-0.00185212
-0.00353736
-0.00511977
-0.00643475
-0.00737516
-0.00790246
-0.00796268
-0.00750186
-0.006357
-0.00437069
-0.0014858
0.00221754
0.00628794
0.00932504
0.0105928
4.6197e-05
-3.11402e-05
-0.000170756
-0.000597541
-0.00151845
-0.00293128
-0.00444124
-0.00591268
-0.00712277
-0.00800181
-0.00850736
-0.0086088
-0.00824882
-0.00732498
-0.00569958
-0.00328046
-5.05803e-05
0.00379435
0.007206
0.00915376
0.000238211
-5.38086e-05
-0.000625168
-0.00162523
-0.00304123
-0.00456889
-0.00605401
-0.00742213
-0.00846386
-0.0091935
-0.00959703
-0.00964542
-0.00926742
-0.00844856
-0.00714986
-0.00532887
-0.0028639
0.000294693
0.00359505
0.00584362
0.000166856
-0.000403499
-0.00150435
-0.00308452
-0.00482127
-0.0064168
-0.0077225
-0.00868878
-0.00940413
-0.00991974
-0.0102084
-0.0102295
-0.00992196
-0.00923772
-0.00818871
-0.00681698
-0.00510038
-0.00276044
-4.29427e-05
0.00205598
-0.000504742
-0.00128057
-0.00278728
-0.00468084
-0.00643227
-0.00779167
-0.00874887
-0.00943878
-0.0100076
-0.0104677
-0.010771
-0.0108378
-0.0106051
-0.0100397
-0.00915844
-0.00803144
-0.00678083
-0.00514801
-0.0032575
-0.00140053
-0.00175143
-0.0026005
-0.00422803
-0.00608822
-0.0076415
-0.00867146
-0.00934521
-0.00990893
-0.0104484
-0.01095
-0.0113401
-0.0114987
-0.0113646
-0.0109147
-0.0101791
-0.00920821
-0.00824517
-0.00706224
-0.00577894
-0.00428079
-0.00317745
-0.00400721
-0.00552649
-0.00719198
-0.00847197
-0.00921865
-0.00974233
-0.0102718
-0.0108413
-0.0114245
-0.0119211
-0.0121831
-0.0121426
-0.0117869
-0.0111679
-0.0102911
-0.00949897
-0.00858555
-0.00771121
-0.0065299
-0.0044586
-0.00520505
-0.00652032
-0.00796768
-0.00899355
-0.00955459
-0.0100237
-0.0105608
-0.0111867
-0.0118672
-0.0124717
-0.0128319
-0.0128721
-0.012577
-0.0120278
-0.0112028
-0.0105046
-0.00969469
-0.0090986
-0.00817139
-0.00539515
-0.0060478
-0.00717106
-0.0084271
-0.0092864
-0.00974504
-0.0102082
-0.0107696
-0.0114501
-0.0122056
-0.0128861
-0.0133131
-0.0134122
-0.0131479
-0.0126375
-0.0118247
-0.0112026
-0.0103465
-0.0100568
-0.00922059
-0.00593444
-0.00649505
-0.00747769
-0.00861199
-0.00938495
-0.00981
-0.0102827
-0.0108532
-0.0115647
-0.012354
-0.0130682
-0.0135145
-0.0136489
-0.0133909
-0.0129088
-0.0120453
-0.011537
-0.0105184
-0.0105825
-0.00971335
-0.00606644
-0.00656878
-0.00748117
-0.00855857
-0.00930804
-0.00975561
-0.0102273
-0.0107926
-0.0114907
-0.0122677
-0.0129726
-0.0134135
-0.0135432
-0.0132915
-0.0127702
-0.0119117
-0.0113902
-0.0102884
-0.0106646
-0.00966057
-0.005847
-0.00632924
-0.00721227
-0.00828955
-0.00907653
-0.00956112
-0.0100243
-0.0105639
-0.011218
-0.011941
-0.0126034
-0.0130092
-0.0131095
-0.0128351
-0.012263
-0.0114197
-0.01084
-0.00973871
-0.0102845
-0.00910031
-0.00536794
-0.00587643
-0.00674905
-0.00781117
-0.00868322
-0.00922531
-0.00968638
-0.0101867
-0.0107737
-0.0114043
-0.0119871
-0.0123258
-0.0123726
-0.012071
-0.0114628
-0.0106173
-0.00996023
-0.00890094
-0.00956754
-0.00811696
-0.00482059
-0.00531583
-0.0061412
-0.00712656
-0.00809009
-0.00873714
-0.00922948
-0.00969681
-0.010206
-0.0107289
-0.0112099
-0.011472
-0.0114541
-0.0111146
-0.0104802
-0.00962323
-0.00889423
-0.00787311
-0.0085733
-0.00677751
-0.00434883
-0.00476357
-0.00544763
-0.0062893
-0.00726642
-0.00806463
-0.00866058
-0.00913856
-0.00959339
-0.0100226
-0.0103949
-0.0105725
-0.0104856
-0.010099
-0.00943111
-0.0085539
-0.00775806
-0.00675591
-0.0074372
-0.00516591
-0.00415393
-0.00430009
-0.00466222
-0.00529255
-0.00622111
-0.00716986
-0.00794803
-0.00853264
-0.00900479
-0.00938682
-0.00966857
-0.00976289
-0.0096128
-0.00918229
-0.00848516
-0.00756701
-0.00667697
-0.00567749
-0.00616157
-0.00326176
-0.00420924
-0.00397625
-0.00380677
-0.00413917
-0.00499122
-0.00605604
-0.00704755
-0.00782547
-0.00840974
-0.00883145
-0.00909896
-0.0091643
-0.00896571
-0.008468
-0.00770275
-0.00670002
-0.00566416
-0.0045803
-0.0046759
-0.000891014
-0.00404373
-0.00346614
-0.00282862
-0.00288302
-0.00366322
-0.00481014
-0.0059916
-0.00697345
-0.00772443
-0.00824633
-0.00854125
-0.00859381
-0.00837514
-0.00786255
-0.00704223
-0.00594595
-0.00470736
-0.00337463
-0.00246805
0.00345684
-0.00360016
-0.00275223
-0.00189229
-0.00184347
-0.00257946
-0.00377107
-0.00508284
-0.00624295
-0.00714108
-0.00776454
-0.00811163
-0.00819567
-0.00799529
-0.00747934
-0.0066373
-0.00547649
-0.00400823
-0.00172221
0.0029587
0.0156688
-0.00485994
-0.0019159
-0.000947249
-0.00105669
-0.00178674
-0.00302248
-0.00440976
-0.00572665
-0.00674913
-0.00745893
-0.00785437
-0.007979
-0.0078064
-0.0073264
-0.00644491
-0.0050662
-0.00245999
0.00353864
0.0169875
0.0396229
)
;

boundaryField
{
    movingWall
    {
        type            zeroGradient;
    }
    fixedWalls
    {
        type            zeroGradient;
    }
    frontAndBack
    {
        type            empty;
    }
}


// ************************************************************************* //
