/*--------------------------------*- C++ -*----------------------------------*\
  =========                 |
  \\      /  F ield         | OpenFOAM: The Open Source CFD Toolbox
   \\    /   O peration     | Website:  https://openfoam.org
    \\  /    A nd           | Version:  12
     \\/     M anipulation  |
\*---------------------------------------------------------------------------*/
FoamFile
{
    format      ascii;
    class       surfaceScalarField;
    location    "5.5";
    object      phi;
}
// * * * * * * * * * * * * * * * * * * * * * * * * * * * * * * * * * * * * * //

dimensions      [0 3 -1 0 0 0 0];

internalField   nonuniform List<scalar> 
760
(
2.57719e-07
-2.57722e-07
1.85979e-07
7.17393e-08
-4.04592e-07
5.90571e-07
-1.73529e-06
1.3307e-06
-3.37932e-06
1.64403e-06
-4.78888e-06
1.40955e-06
-5.98505e-06
1.19617e-06
-6.86425e-06
8.79198e-07
-7.55472e-06
6.90474e-07
-8.02682e-06
4.72101e-07
-8.35029e-06
3.2347e-07
-8.48341e-06
1.33123e-07
-8.4527e-06
-3.07096e-08
-8.21767e-06
-2.35038e-07
-7.7825e-06
-4.3517e-07
-6.99398e-06
-7.8852e-07
-5.77196e-06
-1.22201e-06
-3.93648e-06
-1.83549e-06
-1.67977e-06
-2.2567e-06
-1.67977e-06
-2.59271e-07
1.54836e-09
-1.12223e-06
9.34699e-07
-2.59676e-06
2.0651e-06
-4.11305e-06
2.84698e-06
-5.18578e-06
2.71676e-06
-6.15376e-06
2.37753e-06
-6.87363e-06
1.91604e-06
-7.49481e-06
1.50038e-06
-7.9316e-06
1.12726e-06
-8.22648e-06
7.66985e-07
-8.35777e-06
4.54757e-07
-8.33384e-06
1.0919e-07
-8.18269e-06
-1.81854e-07
-7.90993e-06
-5.07801e-07
-7.45752e-06
-8.87575e-07
-6.82613e-06
-1.41991e-06
-5.85624e-06
-2.1919e-06
-4.38815e-06
-3.30358e-06
-2.28711e-06
-4.35774e-06
-3.96688e-06
-8.58505e-07
8.60054e-07
-2.20079e-06
2.27698e-06
-3.56387e-06
3.42818e-06
-4.57119e-06
3.8543e-06
-5.33911e-06
3.48469e-06
-5.91313e-06
2.95156e-06
-6.22601e-06
2.22891e-06
-6.39223e-06
1.6666e-06
-6.36202e-06
1.09705e-06
-6.30956e-06
7.14526e-07
-6.21912e-06
3.64319e-07
-6.16984e-06
5.9914e-08
-6.0224e-06
-3.29301e-07
-5.78893e-06
-7.41271e-07
-5.43651e-06
-1.23999e-06
-4.99464e-06
-1.86179e-06
-4.45815e-06
-2.72839e-06
-3.62014e-06
-4.14159e-06
-2.1504e-06
-5.82748e-06
-6.11728e-06
-1.18751e-06
2.04756e-06
-2.5391e-06
3.62858e-06
-3.60259e-06
4.49167e-06
-4.27492e-06
4.52664e-06
-4.64154e-06
3.85131e-06
-4.6605e-06
2.97051e-06
-4.50411e-06
2.07252e-06
-4.36136e-06
1.52386e-06
-4.33889e-06
1.07458e-06
-4.39185e-06
7.67488e-07
-4.4427e-06
4.15169e-07
-4.43416e-06
5.13703e-08
-4.33925e-06
-4.24209e-07
-4.1356e-06
-9.44921e-07
-3.81829e-06
-1.55731e-06
-3.43323e-06
-2.24684e-06
-3.05205e-06
-3.10958e-06
-2.55519e-06
-4.63845e-06
-1.64316e-06
-6.73951e-06
-7.76044e-06
-1.16352e-06
3.21108e-06
-2.27207e-06
4.73713e-06
-2.98948e-06
5.20908e-06
-3.35636e-06
4.89352e-06
-3.36013e-06
3.85508e-06
-3.17419e-06
2.78456e-06
-3.06196e-06
1.9603e-06
-3.0869e-06
1.5488e-06
-3.22251e-06
1.21019e-06
-3.40661e-06
9.51587e-07
-3.55854e-06
5.671e-07
-3.61164e-06
1.04475e-07
-3.54189e-06
-4.93961e-07
-3.33419e-06
-1.15262e-06
-2.99655e-06
-1.89494e-06
-2.54499e-06
-2.69841e-06
-2.14193e-06
-3.51263e-06
-1.88123e-06
-4.89916e-06
-1.26547e-06
-7.35527e-06
-9.02591e-06
-9.62273e-07
4.17335e-06
-1.73433e-06
5.50919e-06
-2.2063e-06
5.68104e-06
-2.36074e-06
5.04796e-06
-2.26019e-06
3.75452e-06
-2.09692e-06
2.6213e-06
-2.12128e-06
1.98466e-06
-2.27275e-06
1.70026e-06
-2.53091e-06
1.46836e-06
-2.79065e-06
1.21132e-06
-2.98938e-06
7.65836e-07
-3.05185e-06
1.66939e-07
-2.97299e-06
-5.72813e-07
-2.74565e-06
-1.37997e-06
-2.41222e-06
-2.22837e-06
-1.97891e-06
-3.13172e-06
-1.51012e-06
-3.98142e-06
-1.18508e-06
-5.22419e-06
-9.46381e-07
-7.59397e-06
-9.97229e-06
-6.64627e-07
4.83798e-06
-1.16847e-06
6.01302e-06
-1.4624e-06
5.97497e-06
-1.51226e-06
5.09783e-06
-1.40948e-06
3.65174e-06
-1.363e-06
2.57482e-06
-1.48474e-06
2.10641e-06
-1.72236e-06
1.93788e-06
-2.0097e-06
1.7557e-06
-2.26511e-06
1.46672e-06
-2.4405e-06
9.41228e-07
-2.48418e-06
2.10624e-07
-2.40168e-06
-6.55315e-07
-2.18916e-06
-1.59249e-06
-1.88388e-06
-2.53365e-06
-1.52574e-06
-3.48986e-06
-1.14537e-06
-4.36179e-06
-8.96744e-07
-5.47281e-06
-7.05001e-07
-7.78571e-06
-1.06773e-05
-3.59865e-07
5.19784e-06
-6.5793e-07
6.31109e-06
-8.29807e-07
6.14685e-06
-8.54692e-07
5.12271e-06
-7.84926e-07
3.58197e-06
-8.26761e-07
2.61665e-06
-9.8627e-07
2.26591e-06
-1.21683e-06
2.16845e-06
-1.46392e-06
2.00278e-06
-1.67238e-06
1.67518e-06
-1.80211e-06
1.07096e-06
-1.83345e-06
2.41968e-07
-1.77575e-06
-7.13019e-07
-1.61566e-06
-1.75257e-06
-1.36916e-06
-2.78016e-06
-1.0879e-06
-3.77112e-06
-7.59341e-07
-4.69034e-06
-5.52526e-07
-5.67963e-06
-5.25646e-07
-7.81259e-06
-1.12029e-05
-1.08084e-07
5.30593e-06
-2.43011e-07
6.44602e-06
-3.17072e-07
6.22091e-06
-3.26963e-07
5.1326e-06
-2.94957e-07
3.54997e-06
-3.61037e-07
2.68273e-06
-4.98829e-07
2.40371e-06
-6.64288e-07
2.33391e-06
-8.39315e-07
2.17781e-06
-9.78875e-07
1.81474e-06
-1.05758e-06
1.14966e-06
-1.07152e-06
2.55906e-07
-1.04068e-06
-7.43853e-07
-9.56702e-07
-1.83655e-06
-8.15289e-07
-2.92157e-06
-6.52272e-07
-3.93414e-06
-4.96124e-07
-4.84649e-06
-3.77251e-07
-5.7985e-06
-3.83815e-07
-7.80603e-06
-1.15868e-05
1.27627e-07
5.1783e-06
1.37267e-07
6.43638e-06
1.32402e-07
6.22578e-06
1.31073e-07
5.13393e-06
1.26643e-07
3.5544e-06
7.78058e-08
2.73157e-06
1.11541e-08
2.47036e-06
-7.86879e-08
2.42375e-06
-1.66675e-07
2.2658e-06
-2.26339e-07
1.87441e-06
-2.55664e-07
1.17899e-06
-2.65199e-07
2.65442e-07
-2.53549e-07
-7.55504e-07
-2.55339e-07
-1.83476e-06
-2.07961e-07
-2.96895e-06
-1.98813e-07
-3.94328e-06
-1.04722e-07
-4.94058e-06
-1.379e-07
-5.76532e-06
-2.87479e-07
-7.65645e-06
-1.18742e-05
3.26366e-07
4.85194e-06
4.77102e-07
6.28564e-06
5.76679e-07
6.1262e-06
5.35717e-07
5.1749e-06
4.92471e-07
3.59764e-06
4.89555e-07
2.73448e-06
5.04002e-07
2.45591e-06
5.32011e-07
2.39574e-06
5.57153e-07
2.24065e-06
5.72246e-07
1.85931e-06
5.71463e-07
1.17977e-06
5.39146e-07
2.97759e-07
5.08611e-07
-7.2497e-07
4.58203e-07
-1.78436e-06
3.89449e-07
-2.9002e-06
2.59673e-07
-3.81351e-06
1.56416e-07
-4.83733e-06
-5.73711e-08
-5.55153e-06
-2.06242e-07
-7.50758e-06
-1.20805e-05
5.08267e-07
4.34367e-06
8.05053e-07
5.98886e-06
9.78542e-07
5.95271e-06
9.54108e-07
5.19933e-06
8.82743e-07
3.66901e-06
8.92458e-07
2.72477e-06
9.82506e-07
2.36586e-06
1.11801e-06
2.26024e-06
1.25161e-06
2.10705e-06
1.35094e-06
1.75998e-06
1.39099e-06
1.13972e-06
1.36497e-06
3.23779e-07
1.28451e-06
-6.44501e-07
1.1825e-06
-1.68235e-06
9.7822e-07
-2.69592e-06
7.68133e-07
-3.60342e-06
4.70022e-07
-4.53922e-06
1.52531e-07
-5.23404e-06
-1.03464e-07
-7.25159e-06
-1.21839e-05
6.94326e-07
3.64934e-06
1.09383e-06
5.58935e-06
1.36558e-06
5.68096e-06
1.41445e-06
5.15045e-06
1.29555e-06
3.78791e-06
1.30719e-06
2.71314e-06
1.44827e-06
2.22478e-06
1.66151e-06
2.047e-06
1.87583e-06
1.89273e-06
2.04759e-06
1.58822e-06
2.13352e-06
1.05379e-06
2.12572e-06
3.31577e-07
2.00819e-06
-5.26963e-07
1.81385e-06
-1.48801e-06
1.51339e-06
-2.39546e-06
1.15831e-06
-3.24834e-06
6.97569e-07
-4.07847e-06
2.63205e-07
-4.79968e-06
-1.10669e-08
-6.97731e-06
-1.2195e-05
8.58872e-07
2.79047e-06
1.39425e-06
5.05397e-06
1.72049e-06
5.35473e-06
1.87277e-06
4.99817e-06
1.75185e-06
3.90882e-06
1.71657e-06
2.74842e-06
1.84686e-06
2.09449e-06
2.099e-06
1.79487e-06
2.38165e-06
1.61008e-06
2.61925e-06
1.35062e-06
2.74831e-06
9.24722e-07
2.76582e-06
3.1407e-07
2.63536e-06
-3.965e-07
2.386e-06
-1.23865e-06
2.00553e-06
-2.015e-06
1.55386e-06
-2.79667e-06
9.73708e-07
-3.49832e-06
4.39077e-07
-4.26505e-06
8.34981e-08
-6.62174e-06
-1.21115e-05
9.69647e-07
1.82082e-06
1.58141e-06
4.44221e-06
2.01478e-06
4.92136e-06
2.31627e-06
4.69668e-06
2.31655e-06
3.90855e-06
2.2625e-06
2.80247e-06
2.30997e-06
2.04702e-06
2.50399e-06
1.60084e-06
2.78063e-06
1.33344e-06
3.05434e-06
1.0769e-06
3.21909e-06
7.59972e-07
3.25924e-06
2.73925e-07
3.12466e-06
-2.61919e-07
2.83099e-06
-9.44991e-07
2.37606e-06
-1.56007e-06
1.82889e-06
-2.2495e-06
1.16926e-06
-2.83869e-06
5.38838e-07
-3.63463e-06
1.81086e-07
-6.26398e-06
-1.19304e-05
9.46467e-07
8.74357e-07
1.62255e-06
3.76613e-06
2.17156e-06
4.37235e-06
2.66307e-06
4.20517e-06
2.89901e-06
3.67261e-06
2.90995e-06
2.79152e-06
2.9218e-06
2.03517e-06
3.01061e-06
1.51204e-06
3.17247e-06
1.17158e-06
3.37373e-06
8.75646e-07
3.5071e-06
6.26601e-07
3.54166e-06
2.3936e-07
3.41986e-06
-1.40113e-07
3.1189e-06
-6.44028e-07
2.65627e-06
-1.09744e-06
2.11876e-06
-1.71198e-06
1.42592e-06
-2.14585e-06
7.38733e-07
-2.94745e-06
3.6704e-07
-5.89229e-06
-1.15634e-05
5.00777e-07
3.7358e-07
1.37753e-06
2.88937e-06
2.18926e-06
3.56062e-06
2.89668e-06
3.49776e-06
3.40441e-06
3.16488e-06
3.66182e-06
2.5341e-06
3.7637e-06
1.9333e-06
3.84783e-06
1.42791e-06
3.91597e-06
1.10343e-06
4.00119e-06
7.90428e-07
4.04287e-06
5.84919e-07
4.01159e-06
2.70638e-07
3.82657e-06
4.49119e-08
3.53928e-06
-3.56738e-07
3.06934e-06
-6.27498e-07
2.47243e-06
-1.11508e-06
1.73469e-06
-1.40811e-06
1.02785e-06
-2.2406e-06
6.83282e-07
-5.54772e-06
-1.08801e-05
-2.71824e-07
6.45404e-07
7.55969e-07
1.86158e-06
1.76863e-06
2.54795e-06
2.75053e-06
2.51586e-06
3.55779e-06
2.35762e-06
4.13869e-06
1.9532e-06
4.49376e-06
1.57823e-06
4.72803e-06
1.19364e-06
4.85477e-06
9.7669e-07
4.92001e-06
7.25187e-07
4.9058e-06
5.99136e-07
4.80196e-06
3.74471e-07
4.59576e-06
2.51114e-07
4.24275e-06
-3.7241e-09
3.75177e-06
-1.36522e-07
3.05216e-06
-4.15465e-07
2.27343e-06
-6.2938e-07
1.68096e-06
-1.64813e-06
1.23633e-06
-5.10309e-06
-9.64377e-06
-1.0829e-06
1.72831e-06
-2.48897e-07
1.02758e-06
1.05922e-06
1.23984e-06
2.30817e-06
1.26691e-06
3.38817e-06
1.27762e-06
4.22382e-06
1.11755e-06
4.81045e-06
9.91591e-07
5.21673e-06
7.87362e-07
5.48007e-06
7.13355e-07
5.63219e-06
5.73061e-07
5.69422e-06
5.37105e-07
5.65675e-06
4.11944e-07
5.5144e-06
3.93462e-07
5.23074e-06
2.79938e-07
4.8592e-06
2.35014e-07
4.37581e-06
6.79298e-08
3.93509e-06
-1.88657e-07
3.5485e-06
-1.26155e-06
2.49499e-06
-4.04958e-06
-7.14878e-06
1.72831e-06
2.75588e-06
3.99572e-06
5.26263e-06
6.54025e-06
7.6578e-06
8.64939e-06
9.43675e-06
1.01501e-05
1.07232e-05
1.12603e-05
1.16722e-05
1.20657e-05
1.23456e-05
1.25806e-05
1.26486e-05
1.24599e-05
1.11984e-05
7.14878e-06
)
;

boundaryField
{
    movingWall
    {
        type            calculated;
        value           uniform 0;
    }
    fixedWalls
    {
        type            calculated;
        value           uniform 0;
    }
    frontAndBack
    {
        type            empty;
    }
}


// ************************************************************************* //
