/*--------------------------------*- C++ -*----------------------------------*\
  =========                 |
  \\      /  F ield         | OpenFOAM: The Open Source CFD Toolbox
   \\    /   O peration     | Website:  https://openfoam.org
    \\  /    A nd           | Version:  12
     \\/     M anipulation  |
\*---------------------------------------------------------------------------*/
FoamFile
{
    format      ascii;
    class       volVectorField;
    location    "5.5";
    object      U;
}
// * * * * * * * * * * * * * * * * * * * * * * * * * * * * * * * * * * * * * //

dimensions      [0 1 -1 0 0 0 0];

internalField   nonuniform List<vector> 
400
(
(0.00243657 -0.00431296 0)
(0.00775731 -0.0024304 0)
(-0.00141143 0.00163434 0)
(-0.0123058 0.0101926 0)
(-0.0541547 0.0190108 0)
(-0.0858736 0.0143556 0)
(-0.111597 0.0135779 0)
(-0.131119 0.0108573 0)
(-0.145906 0.0092642 0)
(-0.157211 0.00720212 0)
(-0.165055 0.00564791 0)
(-0.169709 0.00388435 0)
(-0.171523 0.00231209 0)
(-0.169808 -0.000882156 0)
(-0.161565 -0.00326861 0)
(-0.147986 -0.00837616 0)
(-0.125233 -0.0134117 0)
(-0.0943103 -0.0195497 0)
(-0.0563034 -0.0196635 0)
(-0.014698 -0.0061538 0)
(-0.000803032 -0.00664184 0)
(-0.00981439 0.00570586 0)
(-0.0330881 0.0244712 0)
(-0.068061 0.0444321 0)
(-0.0965778 0.0434848 0)
(-0.116335 0.0384615 0)
(-0.132228 0.0324267 0)
(-0.145709 0.0233262 0)
(-0.155355 0.0177904 0)
(-0.162674 0.0110597 0)
(-0.166794 0.00654208 0)
(-0.168822 0.000715888 0)
(-0.167397 -0.00404972 0)
(-0.163852 -0.0104181 0)
(-0.15601 -0.0172914 0)
(-0.143849 -0.0279441 0)
(-0.125206 -0.0416744 0)
(-0.0991211 -0.0608202 0)
(-0.0676599 -0.0755604 0)
(-0.0195529 -0.057595 0)
(-0.0067412 0.00690617 0)
(-0.0278338 0.0336777 0)
(-0.0580701 0.0565179 0)
(-0.0849485 0.0671851 0)
(-0.10234 0.0615553 0)
(-0.114021 0.0531444 0)
(-0.123645 0.0403026 0)
(-0.127919 0.0320165 0)
(-0.127516 0.0228448 0)
(-0.127075 0.0158726 0)
(-0.125565 0.00879061 0)
(-0.124539 0.00229995 0)
(-0.12293 -0.00469914 0)
(-0.119644 -0.0120306 0)
(-0.114138 -0.0211525 0)
(-0.106534 -0.033463 0)
(-0.094928 -0.0526514 0)
(-0.0770028 -0.080535 0)
(-0.0590399 -0.109405 0)
(-0.0201883 -0.110848 0)
(-0.0110225 0.029735 0)
(-0.0372519 0.0600033 0)
(-0.0655099 0.079986 0)
(-0.0825823 0.0829312 0)
(-0.0925602 0.0729504 0)
(-0.095708 0.0594858 0)
(-0.0919263 0.044313 0)
(-0.0866308 0.0320925 0)
(-0.086297 0.0218751 0)
(-0.087558 0.0145683 0)
(-0.0887808 0.00748414 0)
(-0.0899168 0.000857862 0)
(-0.0885116 -0.00694798 0)
(-0.0855753 -0.0155175 0)
(-0.0800411 -0.0257738 0)
(-0.0741248 -0.0380477 0)
(-0.067083 -0.0559503 0)
(-0.0516625 -0.0887725 0)
(-0.0443678 -0.129032 0)
(-0.015243 -0.141821 0)
(-0.00978823 0.051295 0)
(-0.0375559 0.0833578 0)
(-0.056625 0.096138 0)
(-0.067772 0.0936393 0)
(-0.0698783 0.0775841 0)
(-0.0648009 0.0590643 0)
(-0.0598182 0.0410836 0)
(-0.0602616 0.031333 0)
(-0.0627937 0.0229324 0)
(-0.0672164 0.0173785 0)
(-0.070595 0.0097921 0)
(-0.0728956 0.00139681 0)
(-0.0721626 -0.00936562 0)
(-0.0690518 -0.0211008 0)
(-0.0629491 -0.0345442 0)
(-0.0551439 -0.0487143 0)
(-0.0499549 -0.064148 0)
(-0.0337793 -0.0930724 0)
(-0.0386281 -0.143713 0)
(-0.00576 -0.171799 0)
(-0.00867717 0.0728793 0)
(-0.0307509 0.101895 0)
(-0.0423127 0.108288 0)
(-0.0501982 0.0996775 0)
(-0.0469877 0.0774771 0)
(-0.0410603 0.054935 0)
(-0.0400445 0.04004 0)
(-0.0433838 0.0327228 0)
(-0.0481964 0.0269966 0)
(-0.054511 0.0216985 0)
(-0.0590515 0.0133699 0)
(-0.0616045 0.00277342 0)
(-0.0607568 -0.0107013 0)
(-0.0573422 -0.0256174 0)
(-0.0512244 -0.0418498 0)
(-0.0423301 -0.0589936 0)
(-0.0396074 -0.0748542 0)
(-0.0190513 -0.0999608 0)
(-0.0295907 -0.148322 0)
(-0.00298942 -0.189816 0)
(-0.00620375 0.0899758 0)
(-0.0215627 0.114614 0)
(-0.0283723 0.116193 0)
(-0.0337224 0.101789 0)
(-0.0285018 0.0746152 0)
(-0.0252067 0.0520013 0)
(-0.0271066 0.0408514 0)
(-0.0318787 0.0361429 0)
(-0.0378757 0.0320407 0)
(-0.0442191 0.0264328 0)
(-0.0484973 0.0166872 0)
(-0.0502654 0.00347638 0)
(-0.049067 -0.0129257 0)
(-0.0458427 -0.030719 0)
(-0.0411156 -0.0488221 0)
(-0.030967 -0.0676346 0)
(-0.0324155 -0.0847757 0)
(-0.0116354 -0.108436 0)
(-0.0263422 -0.154588 0)
(0.00237852 -0.207866 0)
(-0.00324219 0.100364 0)
(-0.0121925 0.123168 0)
(-0.0163779 0.121834 0)
(-0.0196858 0.103215 0)
(-0.0148009 0.0733142 0)
(-0.0143432 0.0523812 0)
(-0.0172953 0.0437841 0)
(-0.0220324 0.0409449 0)
(-0.0275143 0.0372992 0)
(-0.0328251 0.0309705 0)
(-0.0361693 0.0196501 0)
(-0.037157 0.00419861 0)
(-0.0361248 -0.014532 0)
(-0.0334562 -0.034844 0)
(-0.0313492 -0.0547235 0)
(-0.0202893 -0.0743411 0)
(-0.0253607 -0.0915534 0)
(-0.00295817 -0.112001 0)
(-0.0213023 -0.155429 0)
(0.00362214 -0.218365 0)
(-7.35393e-05 0.106294 0)
(-0.00485166 0.128293 0)
(-0.00610242 0.124277 0)
(-0.00835409 0.102838 0)
(-0.00458842 0.0705314 0)
(-0.00571467 0.0524306 0)
(-0.00804451 0.0461416 0)
(-0.0116903 0.0445459 0)
(-0.0156724 0.0412948 0)
(-0.0194414 0.0344332 0)
(-0.0214832 0.0217955 0)
(-0.021879 0.00473225 0)
(-0.0213503 -0.0151986 0)
(-0.0188309 -0.0370888 0)
(-0.0202264 -0.0585548 0)
(-0.00966141 -0.0790621 0)
(-0.0186673 -0.0976547 0)
(0.00154501 -0.116904 0)
(-0.019363 -0.157128 0)
(0.00707589 -0.229241 0)
(0.00260676 0.105868 0)
(0.00194923 0.130235 0)
(0.00271184 0.125469 0)
(0.00145122 0.103058 0)
(0.00398015 0.0716492 0)
(0.00205668 0.0543783 0)
(0.00123854 0.0489817 0)
(-0.000735474 0.0478005 0)
(-0.00280938 0.0445695 0)
(-0.00462894 0.0369374 0)
(-0.0054032 0.0231864 0)
(-0.00533197 0.00510775 0)
(-0.00591161 -0.0152729 0)
(-0.00328276 -0.0373392 0)
(-0.00781859 -0.0600177 0)
(0.00126836 -0.0792595 0)
(-0.0110697 -0.0989958 0)
(0.00871456 -0.114807 0)
(-0.0165607 -0.155422 0)
(0.00817612 -0.234792 0)
(0.0053335 0.102233 0)
(0.00707835 0.128782 0)
(0.0106136 0.124237 0)
(0.0102498 0.102634 0)
(0.0116833 0.0704587 0)
(0.00971556 0.0538528 0)
(0.0104858 0.0489153 0)
(0.0101834 0.0481282 0)
(0.0104407 0.0451728 0)
(0.0106978 0.0371972 0)
(0.010904 0.0234327 0)
(0.0114169 0.00528922 0)
(0.00946203 -0.0152669 0)
(0.0118056 -0.0366518 0)
(0.00586403 -0.0592919 0)
(0.0118887 -0.0778473 0)
(-0.00359325 -0.0991585 0)
(0.0123375 -0.113934 0)
(-0.0164369 -0.1527 0)
(0.0112649 -0.240053 0)
(0.00666525 0.093424 0)
(0.0129086 0.124531 0)
(0.0177579 0.122113 0)
(0.0186867 0.10409 0)
(0.0197718 0.0728182 0)
(0.0176274 0.055098 0)
(0.0191046 0.0489849 0)
(0.0207117 0.0474421 0)
(0.0230529 0.044338 0)
(0.0253825 0.0371644 0)
(0.0266541 0.0239213 0)
(0.0281449 0.00670182 0)
(0.0253546 -0.0134416 0)
(0.0272984 -0.034475 0)
(0.019813 -0.0554011 0)
(0.0223732 -0.0744251 0)
(0.00504325 -0.0928938 0)
(0.0181397 -0.106701 0)
(-0.015198 -0.146416 0)
(0.0134984 -0.242028 0)
(0.00925547 0.0833285 0)
(0.0172475 0.117357 0)
(0.0248225 0.116932 0)
(0.027084 0.103672 0)
(0.0281278 0.0728124 0)
(0.0260268 0.0533801 0)
(0.0277099 0.0458179 0)
(0.0306734 0.0435922 0)
(0.0345783 0.0408666 0)
(0.038753 0.0344411 0)
(0.0406262 0.0227856 0)
(0.0437577 0.00702427 0)
(0.0400718 -0.0112526 0)
(0.0415124 -0.0312414 0)
(0.0322997 -0.050446 0)
(0.0315679 -0.0677761 0)
(0.0113143 -0.0860635 0)
(0.0218381 -0.100989 0)
(-0.0157458 -0.14159 0)
(0.0170688 -0.243102 0)
(0.0107927 0.0651404 0)
(0.0220507 0.108839 0)
(0.0319443 0.111464 0)
(0.0350558 0.103216 0)
(0.037312 0.0778372 0)
(0.0348751 0.0545994 0)
(0.0355739 0.0437948 0)
(0.039097 0.0394924 0)
(0.0436863 0.0363828 0)
(0.0499642 0.0307242 0)
(0.0520625 0.0208341 0)
(0.0566255 0.00711615 0)
(0.0529617 -0.00872354 0)
(0.0536154 -0.0264948 0)
(0.0434976 -0.0433243 0)
(0.0401538 -0.0598652 0)
(0.0187331 -0.0748632 0)
(0.0261769 -0.0891301 0)
(-0.0145764 -0.134613 0)
(0.0205748 -0.242033 0)
(0.0127803 0.049328 0)
(0.0244915 0.095495 0)
(0.0372413 0.102676 0)
(0.0427944 0.0967859 0)
(0.0467543 0.0787436 0)
(0.0464528 0.0546986 0)
(0.0457383 0.0402333 0)
(0.0480732 0.0333829 0)
(0.0511451 0.0295268 0)
(0.0586271 0.0249343 0)
(0.0608886 0.017656 0)
(0.0663797 0.00636845 0)
(0.0629488 -0.00611093 0)
(0.0630973 -0.0211998 0)
(0.0519732 -0.0349092 0)
(0.046416 -0.0494027 0)
(0.0239796 -0.0626268 0)
(0.0291175 -0.0792161 0)
(-0.0144975 -0.128901 0)
(0.0260547 -0.241684 0)
(0.0124886 0.0228227 0)
(0.0263351 0.0836731 0)
(0.0395521 0.0947996 0)
(0.0481329 0.0913488 0)
(0.055113 0.0786437 0)
(0.0582331 0.0578183 0)
(0.0583809 0.0409922 0)
(0.05998 0.0302031 0)
(0.0599335 0.0241194 0)
(0.0657948 0.0189483 0)
(0.0668562 0.0138209 0)
(0.0719654 0.00542457 0)
(0.0688062 -0.00355945 0)
(0.0686764 -0.015209 0)
(0.057715 -0.0260259 0)
(0.0518291 -0.0390882 0)
(0.0311553 -0.0496995 0)
(0.0323203 -0.0661019 0)
(-0.0110589 -0.122776 0)
(0.0324397 -0.239859 0)
(0.000924782 0.009466 0)
(0.0207119 0.0626088 0)
(0.0375711 0.0785964 0)
(0.0504386 0.0780432 0)
(0.0618046 0.0701477 0)
(0.0705916 0.0555601 0)
(0.0735128 0.041195 0)
(0.0775685 0.0295543 0)
(0.0760358 0.0216074 0)
(0.079747 0.0148715 0)
(0.0783903 0.0100106 0)
(0.0815506 0.00323285 0)
(0.077796 -0.00269166 0)
(0.07647 -0.011483 0)
(0.0663329 -0.018365 0)
(0.0596673 -0.028871 0)
(0.0395538 -0.0360909 0)
(0.0359671 -0.05328 0)
(-0.00475998 -0.119059 0)
(0.0421425 -0.238722 0)
(-0.0164223 0.00496847 0)
(0.00714751 0.0532916 0)
(0.0262804 0.0665049 0)
(0.0449248 0.065768 0)
(0.0613741 0.0603353 0)
(0.0770561 0.0493322 0)
(0.0852889 0.0391299 0)
(0.0935922 0.030043 0)
(0.0947186 0.0243586 0)
(0.0985223 0.0180193 0)
(0.0968825 0.0144295 0)
(0.0978957 0.00843593 0)
(0.0935232 0.00486564 0)
(0.0905157 -0.00195634 0)
(0.0804411 -0.00552912 0)
(0.072309 -0.0139912 0)
(0.0511968 -0.0181148 0)
(0.0440071 -0.0395509 0)
(0.0102431 -0.117801 0)
(0.055341 -0.229982 0)
(-0.0236446 0.0255867 0)
(-0.0159868 0.0223699 0)
(0.00794483 0.0343838 0)
(0.0339305 0.0354923 0)
(0.0555173 0.0347438 0)
(0.0767395 0.029955 0)
(0.0890894 0.0251776 0)
(0.101521 0.0188994 0)
(0.10647 0.0157881 0)
(0.111985 0.0118235 0)
(0.112794 0.0100758 0)
(0.113885 0.00656924 0)
(0.11163 0.00491611 0)
(0.108745 0.00182825 0)
(0.101063 -0.000253349 0)
(0.0941449 -0.0038955 0)
(0.0760233 -0.0105465 0)
(0.0722949 -0.0357952 0)
(0.0512433 -0.107979 0)
(0.080012 -0.18122 0)
(0.0376968 0.0346993 0)
(0.0429905 0.0225231 0)
(0.062062 0.0194508 0)
(0.093501 0.0183318 0)
(0.114861 0.0193737 0)
(0.142379 0.0174873 0)
(0.160376 0.0170624 0)
(0.181936 0.0145449 0)
(0.195003 0.0142566 0)
(0.210257 0.0122008 0)
(0.219036 0.0122622 0)
(0.229971 0.0103649 0)
(0.236254 0.0106461 0)
(0.243639 0.00876397 0)
(0.247767 0.00933039 0)
(0.251514 0.00718183 0)
(0.248797 0.00559259 0)
(0.237272 -0.00143611 0)
(0.19981 -0.0138791 0)
(0.149754 -0.0348714 0)
)
;

boundaryField
{
    movingWall
    {
        type            fixedValue;
        value           uniform (1 0 0);
    }
    fixedWalls
    {
        type            noSlip;
    }
    frontAndBack
    {
        type            empty;
    }
}


// ************************************************************************* //
