/*--------------------------------*- C++ -*----------------------------------*\
  =========                 |
  \\      /  F ield         | OpenFOAM: The Open Source CFD Toolbox
   \\    /   O peration     | Website:  https://openfoam.org
    \\  /    A nd           | Version:  12
     \\/     M anipulation  |
\*---------------------------------------------------------------------------*/
FoamFile
{
    format      ascii;
    class       surfaceScalarField;
    location    "10.4";
    object      phi;
}
// * * * * * * * * * * * * * * * * * * * * * * * * * * * * * * * * * * * * * //

dimensions      [1 0 -1 0 0 0 0];

internalField   nonuniform List<scalar> 
7429
(
-0.000179497
0.000179497
-0.000361333
0.000181836
-0.000546875
0.000185541
-0.00073701
0.000190135
-0.000932629
0.000195619
-0.0011346
0.000201971
-0.00134377
0.000209172
-0.00156092
0.000217145
-0.00178674
0.00022582
-0.00202185
0.00023511
-0.00226667
0.000244822
-0.00252151
0.000254838
-0.00278651
0.000265002
-0.00306158
0.00027507
-0.00334641
0.000284829
-0.00364052
0.000294109
-0.00394313
0.000302609
-0.00425327
0.000310144
-0.00456972
0.000316445
-0.00489104
0.000321318
-0.00521557
0.000324535
-0.00554148
0.000325908
-0.00586676
0.000325279
-0.00618923
0.000322474
-0.00650666
0.00031743
-0.00681662
0.000309952
-0.00711679
0.000300179
-0.00740479
0.000287991
-0.00767829
0.000273502
-0.00793496
0.00025667
-0.00817261
0.000237653
-0.00838919
0.000216579
-0.00858274
0.000193546
-0.00875145
0.000168717
-0.00889371
0.000142258
-0.00900813
0.000114421
-0.00909348
8.53474e-05
-0.00914888
5.53982e-05
-0.00917388
2.49987e-05
-0.00916521
-8.66413e-06
-0.0091196
-4.56129e-05
-0.00903806
-8.15428e-05
-0.00892113
-0.000116928
-0.00876946
-0.000151669
-0.00858378
-0.000185683
-0.00836498
-0.000218797
-0.00811401
-0.000250967
-0.00783208
-0.000281933
-0.00752046
-0.000311619
-0.00718074
-0.000339724
-0.00681454
-0.000366197
-0.00642395
-0.00039059
-0.00601105
-0.000412899
-0.00557833
-0.000432718
-0.00512849
-0.000449842
-0.00466441
-0.000464083
-0.00418942
-0.000474987
-0.00370673
-0.000482688
-0.00322027
-0.000486464
-0.00273352
-0.000486745
-0.0022505
-0.00048302
-0.0017754
-0.000475106
-0.00131216
-0.000463235
-0.000865106
-0.000447056
-0.000438278
-0.000426827
-3.56969e-05
-0.000402581
0.000338804
-0.000374501
0.000681235
-0.00034243
0.000987991
-0.000306756
0.00125574
-0.000267748
0.00148198
-0.000226246
0.00166415
-0.000182161
0.00180025
-0.000136108
0.00188954
-8.92864e-05
0.00193131
-4.17714e-05
0.00192206
9.25525e-06
0.00186296
5.9101e-05
0.00175734
0.000105611
0.00160799
0.000149354
0.00141772
0.000190269
0.00118981
0.000227911
0.000929258
0.000260552
0.000640707
0.000288551
0.000330235
0.000310472
4.28787e-06
0.000325947
-0.000330137
0.000334425
-0.000665649
0.000335513
-0.000994648
0.000328999
-0.00130936
0.000314712
-0.00160219
0.000292835
-0.0018657
0.000263501
-0.00209292
0.000227224
-0.00227756
0.000184639
-0.00241413
0.000136568
-0.00249842
8.42933e-05
-0.00252651
2.8094e-05
-0.00249049
-3.60225e-05
-0.00239303
-9.74582e-05
-0.00223717
-0.000155867
-0.00202639
-0.000210774
-0.00176511
-0.000261284
-0.00145877
-0.00030634
-0.00111481
-0.000343956
-0.000741904
-0.00037291
-0.00035033
-0.000391574
4.88169e-05
-0.000399147
0.000443648
-0.000394831
0.000821983
-0.000378335
0.00117164
-0.000349655
0.00148092
-0.000309279
0.00173928
-0.000258363
0.0019372
-0.000197922
0.0020674
-0.000130202
0.00212502
-5.7619e-05
0.00210143
2.35933e-05
0.00199785
0.000103581
0.00182
0.000177847
0.00157462
0.000245379
0.00126986
0.000304769
0.000916985
0.000352871
0.000529145
0.00038784
0.000122435
0.00040671
-0.000286933
0.000409368
-0.000681005
0.000394071
-0.0010425
0.000361492
-0.0013551
0.000312599
-0.00160484
0.000249746
-0.00177986
0.000175021
-0.00187207
9.2204e-05
-0.00187701
4.94383e-06
-0.00178871
-8.83006e-05
-0.00161843
-0.000170281
-0.00137578
-0.000242654
-0.00107372
-0.000302058
-0.000728821
-0.000344896
-0.000360737
-0.000368084
8.89697e-06
-0.000369634
0.000358475
-0.000349578
0.000667438
-0.000308963
0.000917644
-0.000250206
0.00109454
-0.000176899
0.00118884
-9.42968e-05
0.00119713
-8.28709e-06
0.00111469
8.24396e-05
0.000956631
0.000158056
0.0007362
0.000220431
0.000471682
0.000264519
0.000184975
0.000286707
-0.000100566
0.000285541
-0.000361046
0.00026048
-0.000575253
0.000214206
-0.000726207
0.000150955
-0.000802546
7.63385e-05
-0.000797635
-4.91107e-06
-0.00071308
-8.45551e-05
-0.000561597
-0.000151483
-0.00035837
-0.000203227
-0.00012359
-0.00023478
0.000119549
-0.000243139
0.000347514
-0.000227965
0.000539104
-0.00019159
0.000677894
-0.00013879
0.000753536
-7.56417e-05
0.000763849
-1.03128e-05
0.000710134
5.37149e-05
0.000606471
0.000103663
0.000469165
0.000137307
0.000317
0.000152165
0.000170215
0.000146785
4.59916e-05
0.000124223
-4.23529e-05
8.83445e-05
-8.86715e-05
4.63186e-05
-9.2611e-05
3.93947e-06
-5.91453e-05
-3.34657e-05
-8.06779e-07
-5.83385e-05
6.94606e-05
-7.02674e-05
0.000134961
-6.55005e-05
0.000182614
-4.76534e-05
0.000202761
-2.01465e-05
0.000188864
1.38972e-05
0.000143472
4.53919e-05
7.38684e-05
6.96033e-05
-9.2496e-06
8.3118e-05
-9.16259e-05
8.23763e-05
-0.000158873
6.7247e-05
-0.000198538
3.96657e-05
-0.00020205
3.51173e-06
-0.00016307
-3.89804e-05
-8.54425e-05
-7.76273e-05
2.28273e-05
-0.00010827
0.000151506
-0.000128678
0.000282683
-0.000131177
0.000399518
-0.000116835
0.000485809
-8.62917e-05
0.000528008
-4.21985e-05
0.000517413
1.05945e-05
0.000451609
6.58038e-05
0.00033517
0.000116439
0.000179013
0.000156158
0.000179013
-8.83133e-05
0.00026781
-0.000176637
0.000270159
-0.000269149
0.000278053
-0.000367621
0.000288606
-0.000473863
0.00030186
-0.000589673
0.000317781
-0.000716835
0.000336333
-0.000857
0.00035731
-0.00101175
0.000380568
-0.00118241
0.000405767
-0.0013701
0.000432514
-0.0015756
0.000460339
-0.00179946
0.000488857
-0.00204178
0.000517396
-0.00230235
0.000545397
-0.00258054
0.000572295
-0.00287531
0.000597378
-0.00318533
0.000620166
-0.00350883
0.000639942
-0.00384362
0.000656115
-0.00418729
0.000668203
-0.00453715
0.000675767
-0.00489032
0.000678452
-0.00524373
0.00067588
-0.00559433
0.000668029
-0.00593886
0.000654486
-0.00627433
0.000635643
-0.00659746
0.000611123
-0.00690536
0.000581396
-0.00719516
0.000546473
-0.00746419
0.000506682
-0.00770976
0.000462152
-0.00792971
0.00041349
-0.00812171
0.000360724
-0.00828392
0.000304468
-0.00841463
0.000245124
-0.00851249
0.000183211
-0.00857733
0.000120239
-0.00860877
5.64404e-05
-0.00860756
-9.87765e-06
-0.00857382
-7.93538e-05
-0.00850528
-0.000150085
-0.00840109
-0.00022111
-0.00826097
-0.000291793
-0.00808505
-0.000361599
-0.00787388
-0.000429974
-0.00762828
-0.00049656
-0.00734941
-0.000560808
-0.00703866
-0.000622368
-0.00669767
-0.000680708
-0.00632842
-0.000735452
-0.00593295
-0.000786064
-0.00551384
-0.000832006
-0.00507374
-0.00087282
-0.00461563
-0.00090795
-0.00414249
-0.000937222
-0.00365807
-0.000959407
-0.00316577
-0.00097499
-0.00266976
-0.000982475
-0.00217362
-0.000982884
-0.00168197
-0.000974666
-0.00119872
-0.000958359
-0.000728751
-0.000933203
-0.000276351
-0.000899456
0.0001541
-0.000857279
0.000558087
-0.000806568
0.000931232
-0.000747646
0.00126958
-0.000680773
0.00156947
-0.000606647
0.00182724
-0.000525526
0.00204026
-0.000439264
0.0022058
-0.000347698
0.0023217
-0.000252008
0.00238741
-0.000154994
0.00240227
-5.66344e-05
0.00236048
5.10427e-05
0.00226829
0.000151296
0.00212697
0.000246929
0.001939
0.000337327
0.00170749
0.000421779
0.00143676
0.000498641
0.00113164
0.000565676
0.000798007
0.00062218
0.000442552
0.000665927
7.19342e-05
0.000696564
-0.00030613
0.000712489
-0.000683446
0.000712828
-0.00105161
0.000697159
-0.00140251
0.000665618
-0.00172765
0.000617971
-0.00201892
0.000554776
-0.00226905
0.000477353
-0.0024711
0.000386685
-0.00261884
0.000284312
-0.00270835
0.000173804
-0.00273511
5.48483e-05
-0.0026926
-7.85288e-05
-0.00258433
-0.000205723
-0.00241246
-0.000327738
-0.00218024
-0.000442993
-0.00189248
-0.000549051
-0.00155575
-0.00064307
-0.00117838
-0.000721326
-0.000770106
-0.000781181
-0.000342316
-0.000819363
9.25418e-05
-0.000834005
0.000521521
-0.000823811
0.000931283
-0.000788097
0.00130877
-0.000727144
0.00164119
-0.000641695
0.00191686
-0.000534038
0.00212586
-0.000406915
0.00226084
-0.000265189
0.00231474
-0.000111516
0.00228108
5.72504e-05
0.002163
0.000221663
0.0019651
0.000375753
0.00169374
0.000516732
0.00135848
0.000640032
0.000971658
0.000739692
0.00054895
0.000810548
0.000106436
0.000849224
-0.000335618
0.000851422
-0.000759469
0.000817922
-0.00114601
0.000748033
-0.00147807
0.000644656
-0.00173964
0.000511322
-0.00191951
0.000354887
-0.00200911
0.00018181
-0.00199969
-4.47921e-06
-0.00189505
-0.000192946
-0.00170242
-0.000362907
-0.00143169
-0.000513386
-0.0010979
-0.000635843
-0.000720145
-0.000722655
-0.000320061
-0.000768168
7.9105e-05
-0.0007688
0.000453539
-0.000724012
0.000781135
-0.000636559
0.0010424
-0.000511469
0.00122262
-0.00035712
0.00131209
-0.000183765
0.00130246
1.33699e-06
0.00120176
0.000183145
0.00101891
0.000340899
0.000769792
0.000469553
0.000474649
0.000559661
0.000158398
0.000602958
-0.00015273
0.000596669
-0.000433645
0.000541395
-0.000661699
0.000442261
-0.000818759
0.000308014
-0.000893231
0.000150811
-0.000877873
-2.02692e-05
-0.000779038
-0.000183391
-0.000608245
-0.000322275
-0.000383176
-0.000428296
-0.000126802
-0.000491154
0.000135537
-0.000505478
0.000377927
-0.000470354
0.000577813
-0.000391477
0.000717881
-0.000278857
0.000787981
-0.000145742
0.000786112
-8.44375e-06
0.000717341
0.000122486
0.000596323
0.000224681
0.000441561
0.000292069
0.000274761
0.000318965
0.000117298
0.000304249
-1.23111e-05
0.000253832
-0.000100744
0.000176777
-0.000141587
8.71617e-05
-0.000134086
-3.56116e-06
-8.81446e-05
-7.94071e-05
-1.563e-05
-0.000130853
6.63177e-05
-0.000152215
0.000141692
-0.000140875
0.000195805
-0.000101766
0.000218554
-4.28953e-05
0.000204243
2.8208e-05
0.000155791
9.38445e-05
8.07715e-05
0.000144623
-8.72765e-06
0.000172617
-9.75203e-05
0.000171169
-0.000170384
0.00014011
-0.000214364
8.3646e-05
-0.000220247
9.39519e-06
-0.000183028
-7.61998e-05
-0.000105756
-0.0001549
3.77204e-06
-0.000217798
0.000132334
-0.00025724
0.000264292
-0.000263135
0.000382193
-0.000234736
0.000469612
-0.000173711
0.000513304
-8.58909e-05
0.000504535
1.93635e-05
0.000441245
0.000129094
0.000327757
0.000229927
0.000175144
0.000308771
0.000354156
-6.1611e-06
0.000273971
-1.60043e-05
0.000280001
-3.36401e-05
0.000295689
-6.30788e-05
0.000318045
-0.000108355
0.000347135
-0.000173338
0.000382763
-0.000261829
0.000424824
-0.000377073
0.000472552
-0.000522169
0.000525664
-0.000699461
0.000583059
-0.000910819
0.000643871
-0.00115726
0.000706775
-0.00143916
0.000770762
-0.00175591
0.00083414
-0.00210632
0.000895814
-0.00248823
0.000954207
-0.00289889
0.00100803
-0.00333472
0.001056
-0.00379182
0.00109704
-0.00426535
0.00112965
-0.00475025
0.0011531
-0.00524107
0.00116658
-0.00573224
0.00116962
-0.00621797
0.00116161
-0.00669275
0.00114281
-0.00715119
0.00111292
-0.00758833
0.00107279
-0.00799963
0.00102242
-0.00838153
0.000963289
-0.00873065
0.000895595
-0.00904467
0.000820702
-0.00932153
0.000739012
-0.00955976
0.000651722
-0.00975846
0.000559419
-0.00991702
0.000463031
-0.0100351
0.000363227
-0.0101129
0.000261016
-0.01015
0.000157319
-0.0101475
5.39008e-05
-0.0100902
-6.71305e-05
-0.00998277
-0.000186799
-0.00983006
-0.000302795
-0.00963513
-0.000416036
-0.00940021
-0.00052672
-0.00912713
-0.000634677
-0.00881724
-0.000739859
-0.00847203
-0.000841773
-0.00809319
-0.000939646
-0.00768235
-0.00103321
-0.00724133
-0.00112172
-0.00677214
-0.00120465
-0.00627715
-0.00128105
-0.0057587
-0.00135045
-0.00521993
-0.0014116
-0.00466457
-0.00146331
-0.00409558
-0.00150621
-0.00351781
-0.00153717
-0.00293453
-0.00155827
-0.00235104
-0.00156596
-0.00177093
-0.001563
-0.00119967
-0.00154593
-0.000642038
-0.00151599
-0.000103266
-0.00147198
0.000411886
-0.00141461
0.000897938
-0.00134333
0.00135031
-0.00125894
0.00176416
-0.00116149
0.00213465
-0.00105126
0.00245737
-0.000929367
0.00272905
-0.000797206
0.00294644
-0.000656652
0.00310611
-0.000507371
0.00320633
-0.000352225
0.00324592
-0.000194587
0.00322424
-3.4956e-05
0.00313799
0.000137296
0.00299312
0.000296165
0.00279103
0.000449016
0.00253416
0.0005942
0.00222684
0.000729099
0.00187426
0.000851223
0.00148241
0.000957521
0.00105869
0.0010459
0.000610625
0.00111399
0.000147555
0.00115963
-0.000321916
0.00118196
-0.000787667
0.00117858
-0.00123961
0.0011491
-0.00166818
0.00109418
-0.00206322
0.00101301
-0.00241504
0.000906601
-0.00271512
0.000777429
-0.00295535
0.000626914
-0.00312798
0.000456944
-0.00322882
0.000274642
-0.00325561
8.16403e-05
-0.00319777
-0.000136368
-0.00306222
-0.000341269
-0.00285073
-0.00053923
-0.00256688
-0.000726849
-0.00221647
-0.000899462
-0.00180765
-0.00105189
-0.00135131
-0.00117766
-0.000859685
-0.00127281
-0.000346233
-0.00133282
0.000174086
-0.00135432
0.00068542
-0.00133514
0.00117193
-0.0012746
0.00161728
-0.0011725
0.0020071
-0.00103152
0.00232788
-0.000854819
0.0025673
-0.000646328
0.00271512
-0.000413009
0.0027679
-0.000164304
0.00271569
0.000109462
0.00256494
0.000372418
0.00231978
0.000620913
0.00198777
0.000848742
0.00158102
0.00104678
0.00111489
0.00120582
0.000608075
0.00131736
8.17321e-05
0.00137557
-0.000442215
0.00137537
-0.000940921
0.00131663
-0.00139204
0.00119915
-0.00177496
0.00102758
-0.00207253
0.00080889
-0.00227006
0.000552415
-0.00235853
0.000270278
-0.00232899
-3.40147e-05
-0.00218959
-0.000332351
-0.00194596
-0.000606534
-0.00161146
-0.00084789
-0.00120514
-0.00104216
-0.000750407
-0.00117738
-0.000273027
-0.00124555
0.000198529
-0.00124036
0.000636097
-0.00116158
0.00101362
-0.00101408
0.00130856
-0.000806409
0.0015037
-0.000552256
0.00158868
-0.000268752
0.00155579
3.42281e-05
0.00141649
0.000322442
0.00118091
0.000576482
0.000868827
0.000781637
0.00050704
0.000921448
0.000123531
0.000986467
-0.000248766
0.000968967
-0.000579937
0.000872565
-0.00084358
0.000705904
-0.00101888
0.000483312
-0.00109361
0.000225545
-0.00106091
-5.29704e-05
-0.00093054
-0.000313762
-0.000716354
-0.000536462
-0.000440968
-0.000703682
-0.000133174
-0.000798947
0.00017641
-0.000815063
0.000456924
-0.000750868
0.000682011
-0.000616564
0.000832473
-0.000429319
0.000897849
-0.000211118
0.000874522
1.48833e-05
0.000776952
0.000220056
0.000619885
0.000381748
0.000427393
0.00048456
0.000226137
0.000520221
4.16354e-05
0.00048875
-0.000103707
0.000399175
-0.000196107
0.000269177
-0.00022925
0.000120304
-0.000205256
-2.75549e-05
-0.000136056
-0.000148607
-3.79096e-05
-0.000229
6.87841e-05
-0.000258909
0.000164136
-0.000236227
0.000231549
-0.000169179
0.000259651
-7.09972e-05
0.000242746
4.51123e-05
0.000185352
0.000151239
9.65883e-05
0.000233386
-8.92022e-06
0.000278126
-0.000113275
0.000275524
-0.000199205
0.00022604
-0.00025202
0.000136461
-0.000261941
1.93167e-05
-0.00022423
-0.000113911
-0.000142213
-0.000236917
-2.46e-05
-0.00033541
0.000113787
-0.000395627
0.000256005
-0.000405353
0.000383224
-0.000361955
0.000477965
-0.000268451
0.000526393
-0.000134319
0.000519555
2.62008e-05
0.000455419
0.00019323
0.000338727
0.000346619
0.000181119
0.00046638
0.000535275
0.000258082
1.58879e-05
0.000517331
2.07518e-05
0.000766781
4.62384e-05
0.000999222
8.56031e-05
0.00120647
0.000139887
0.00138173
0.000207508
0.0015166
0.000289949
0.00160512
0.00038403
0.00163815
0.000492634
0.0016108
0.00061041
0.00151771
0.000736957
0.00135665
0.00086784
0.00112611
0.0010013
0.000826748
0.0011335
0.000460536
0.00126203
3.11467e-05
0.0013836
-0.000456328
0.00149551
-0.000995532
0.0015952
-0.00157862
0.00168012
-0.00219686
0.00174789
-0.00284131
0.00179755
-0.00350194
0.00182721
-0.0041691
0.00183678
-0.00483218
0.0018247
-0.00548236
0.00179299
-0.00610922
0.00173978
-0.00670635
0.00166992
-0.00726489
0.00158096
-0.00778188
0.00148028
-0.00825092
0.00136464
-0.00867096
0.00124074
-0.00903913
0.00110717
-0.00935435
0.000966944
-0.00961534
0.000820413
-0.0098217
0.000669393
-0.00997463
0.000516149
-0.0100769
0.000363322
-0.0101301
0.00021048
-0.0101292
5.30247e-05
-0.0100876
-0.00010872
-0.0100019
-0.00027253
-0.00986915
-0.000435547
-0.00968882
-0.00059636
-0.00946103
-0.000754512
-0.00918664
-0.000909065
-0.00886714
-0.00105936
-0.00850426
-0.00120465
-0.00809926
-0.00134465
-0.0076544
-0.00147808
-0.00717206
-0.00160406
-0.00665524
-0.00172148
-0.00610691
-0.00182938
-0.0055308
-0.00192656
-0.00493002
-0.00201238
-0.0043086
-0.00208473
-0.00367155
-0.00214326
-0.00302326
-0.00218546
-0.00236827
-0.00221327
-0.0017115
-0.00222273
-0.00105927
-0.00221523
-0.00041744
-0.00218776
0.000208156
-0.00214158
0.000811105
-0.00207492
0.00138538
-0.00198889
0.00192518
-0.00188312
0.00242367
-0.00175743
0.00287626
-0.00161408
0.00327704
-0.00145205
0.00362057
-0.00127289
0.00390213
-0.00107877
0.00411783
-0.000872356
0.00426496
-0.000654501
0.00434343
-0.000430697
0.00434658
-0.000197736
0.00426766
4.39682e-05
0.00412383
0.000281123
0.00390885
0.000511147
0.003625
0.000732867
0.00327643
0.000942772
0.00286877
0.00113676
0.00240818
0.00131181
0.00190245
0.00146325
0.00136084
0.00158751
0.000792696
0.00168213
0.000208562
0.00174377
-0.000380021
0.00177054
-0.000960977
0.00175954
-0.00152204
0.00171017
-0.00205117
0.00162331
-0.00253675
0.00149859
-0.00296687
0.00133671
-0.00333066
0.00114123
-0.00361979
0.000916039
-0.0038252
0.000662352
-0.00393849
0.000387934
-0.0039593
0.000102455
-0.00388094
-0.000214728
-0.00370721
-0.000515
-0.00344001
-0.000806432
-0.00308415
-0.00108271
-0.00264788
-0.00133573
-0.00214246
-0.00155731
-0.00158011
-0.00174001
-0.000976453
-0.00187646
-0.000347891
-0.00196138
0.000286622
-0.00198884
0.000907915
-0.00195644
0.00149645
-0.00186314
0.00203301
-0.00170905
0.00249846
-0.00149697
0.00287789
-0.00123425
0.00315516
-0.000923598
0.00332312
-0.000580966
0.00337161
-0.000212791
0.00329494
0.000186133
0.0030991
0.000568255
0.00278874
0.000931272
0.00237415
0.00126334
0.00187099
0.00154993
0.00129841
0.0017784
0.000679251
0.00193653
4.01904e-05
0.00201463
-0.000592444
0.002008
-0.00119054
0.00191473
-0.00172794
0.00173654
-0.00217873
0.00147837
-0.00252336
0.00115352
-0.00274373
0.000772785
-0.00282935
0.000355901
-0.00277468
-8.86898e-05
-0.00258745
-0.00051958
-0.00227552
-0.00091846
-0.00185562
-0.00126779
-0.00135192
-0.00154586
-0.0007931
-0.0017362
-0.000213287
-0.00182536
0.000355428
-0.00180907
0.000877197
-0.00168335
0.00132082
-0.0014577
0.00166044
-0.00114603
0.00187511
-0.000766926
0.00195383
-0.000347472
0.00189133
9.67341e-05
0.00169955
0.000514222
0.00139335
0.000882675
0.000997589
0.0011774
0.000545641
0.0013734
7.40832e-05
0.00145803
-0.000377963
0.00142101
-0.000774848
0.00126945
-0.00108471
0.00101577
-0.0012834
0.000681994
-0.00135704
0.000299187
-0.00130088
-0.000109128
-0.00112724
-0.000487406
-0.000854221
-0.000809477
-0.000511449
-0.00104645
-0.000134201
-0.0011762
0.000238361
-0.00118763
0.000569494
-0.001082
0.000828125
-0.000875195
0.00099198
-0.000593173
0.00104957
-0.000268706
0.00100166
6.27957e-05
0.000863943
0.000357768
0.000658578
0.000587113
0.000416088
0.00072705
0.00016949
0.000766819
-4.9693e-05
0.000707933
-0.000216369
0.000565851
-0.000313916
0.000366724
-0.000337044
0.000143432
-0.000291236
-7.33632e-05
-0.000191664
-0.000248179
-6.0352e-05
-0.000360311
7.80315e-05
-0.000397292
0.000198869
-0.000357064
0.000282143
-0.000252453
0.000315628
-0.000104482
0.000294644
6.60962e-05
0.000224375
0.000221509
0.000116929
0.000340832
-9.72524e-06
0.00040478
-0.000134378
0.000400176
-0.000236987
0.000328649
-0.000300878
0.000200352
-0.000314972
3.34098e-05
-0.000275375
-0.000153507
-0.000185628
-0.000326665
-5.62413e-05
-0.000464797
9.65114e-05
-0.00054838
0.000253229
-0.00056207
0.000393371
-0.000502098
0.000498086
-0.000373166
0.000552476
-0.000188708
0.000547447
3.12291e-05
0.000480789
0.000259889
0.000357975
0.000469433
0.000191506
0.000632849
0.00072678
0.000685153
-0.000669266
0.00136469
-0.00065879
0.00201462
-0.000603684
0.00261521
-0.000514991
0.00314491
-0.000389815
0.00358325
-0.00023083
0.00389733
-2.41346e-05
0.00411088
0.00017048
0.00419864
0.000404871
0.00415015
0.000658899
0.00395511
0.000931997
0.00361601
0.00120694
0.00313787
0.00147944
0.00253178
0.00173959
0.00181052
0.00198329
0.000988891
0.00220522
8.30765e-05
0.00240132
-0.000889968
0.00256825
-0.00191216
0.00270231
-0.0029665
0.00280224
-0.00403504
0.00286609
-0.00509773
0.0028899
-0.00613678
0.00287583
-0.00713245
0.00282037
-0.00806957
0.00273011
-0.00893022
0.00260043
-0.00970588
0.00244557
-0.010385
0.00226006
-0.0109732
0.00206847
-0.0114699
0.00186134
-0.0118804
0.0016513
-0.0122089
0.00143569
-0.0124612
0.00121915
-0.0126424
0.00100164
-0.0127583
0.000785368
-0.0128127
0.000570468
-0.0128078
0.000358485
-0.0127492
0.000151892
-0.0126155
-8.07254e-05
-0.0124134
-0.00031077
-0.0121577
-0.00052828
-0.0118544
-0.0007388
-0.0115067
-0.000944127
-0.0111167
-0.00114451
-0.010685
-0.00134078
-0.010212
-0.0015323
-0.00969896
-0.00171772
-0.00914792
-0.00189568
-0.0085606
-0.0020654
-0.00793861
-0.00222605
-0.00728309
-0.002377
-0.0065984
-0.00251407
-0.00588722
-0.00263773
-0.00515313
-0.00274647
-0.00440105
-0.00283681
-0.00363452
-0.00290979
-0.00285843
-0.00296155
-0.00207907
-0.00299262
-0.00130326
-0.00299854
-0.000536967
-0.00298152
0.000213379
-0.0029381
0.000941182
-0.00286939
0.00163961
-0.00277335
0.00230078
-0.00265006
0.00291848
-0.00250083
0.00348559
-0.00232455
0.00399485
-0.00212334
0.0044414
-0.0018986
0.00481777
-0.00164927
0.00511939
-0.00138038
0.00534158
-0.00109455
0.00548063
-0.000793555
0.00553451
-0.000484576
0.00550079
-0.000164008
0.00537715
0.000167604
0.00516906
0.000489215
0.00487645
0.000803759
0.00450285
0.00110646
0.00405319
0.00139243
0.00353467
0.00165528
0.00295468
0.0018918
0.00232316
0.00209478
0.00165042
0.00226025
0.000949388
0.00238316
0.000232495
0.00246066
-0.000486926
0.00248996
-0.0011946
0.0024672
-0.00187586
0.00239143
-0.00251511
0.00226257
-0.00309931
0.00208279
-0.0036148
0.0018522
-0.00404673
0.00157316
-0.00438637
0.00125568
-0.00462563
0.00090161
-0.00475349
0.000515793
-0.00476131
0.000110277
-0.00465651
-0.000319526
-0.00443594
-0.000735575
-0.0041027
-0.00113968
-0.00366391
-0.0015215
-0.00312962
-0.00187002
-0.00251159
-0.00217534
-0.00182762
-0.00242398
-0.00109513
-0.00260895
-0.000336628
-0.00271988
0.000425782
-0.00275125
0.00116944
-0.0027001
0.00187096
-0.00256465
0.00250796
-0.00234605
0.0030593
-0.00204831
0.00350194
-0.00167689
0.00382477
-0.00124643
0.00400905
-0.000765243
0.0040482
-0.000251943
0.0039429
0.000291437
0.00369355
0.000817598
0.00330741
0.00131742
0.00279854
0.00177221
0.00218616
0.00216231
0.00149286
0.0024717
0.000747549
0.00268184
-1.88541e-05
0.00278103
-0.000773626
0.00276278
-0.00148383
0.00262493
-0.0021157
0.00236842
-0.00264233
0.00200501
-0.00303687
0.00154805
-0.00328007
0.00101599
-0.00336177
0.000437601
-0.00327702
-0.000173441
-0.0030325
-0.000764093
-0.00264005
-0.00131091
-0.00212169
-0.00178615
-0.00150777
-0.00215978
-0.000832879
-0.0024111
-0.000133812
-0.00252443
0.000540709
-0.00248359
0.00115526
-0.0022979
0.00167166
-0.0019741
0.00205911
-0.00153348
0.00229352
-0.00100134
0.00236274
-0.000416694
0.00226477
0.000194706
0.00201165
0.000767343
0.00162403
0.00127029
0.00113374
0.00166769
0.000580568
0.00192657
1.05173e-05
0.00202808
-0.000531124
0.00196265
-0.00100054
0.00173887
-0.00135989
0.00137512
-0.00158241
0.000904512
-0.00165178
0.000368558
-0.00156742
-0.000193487
-0.00134163
-0.000713199
-0.00100027
-0.00115084
-0.000579824
-0.0014669
-0.000124392
-0.00163163
0.000318461
-0.00163048
0.000705655
-0.0014692
0.000999925
-0.00116946
0.00117622
-0.000769469
0.00122313
-0.000315618
0.00114501
0.00014092
0.00096052
0.000542256
0.000699599
0.000848034
0.00040027
0.00102638
0.000102888
0.0010642
-0.000154322
0.000965142
-0.000342314
0.000753843
-0.000443659
0.000468069
-0.000453716
0.000153489
-0.000381901
-0.000145178
-0.000247936
-0.000382144
-7.90352e-05
-0.000529212
9.39756e-05
-0.000570303
0.000241986
-0.000505075
0.000342187
-0.000352654
0.000380294
-0.000142589
0.000353129
9.32612e-05
0.000267496
0.000307141
0.000138713
0.000469615
-1.13648e-05
0.000554858
-0.00015801
0.000546821
-0.000278336
0.000448976
-0.000353605
0.000275621
-0.000371402
5.12065e-05
-0.000328888
-0.000196021
-0.000230106
-0.000425447
-8.74659e-05
-0.000607437
8.08164e-05
-0.000716662
0.000253161
-0.000734415
0.000407052
-0.000655989
0.000522106
-0.00048822
0.000582515
-0.000249117
0.000578878
3.48666e-05
0.000509123
0.000329643
0.000379294
0.000599262
0.000202937
0.000809207
0.000929717
0.00114093
-0.0018102
0.00228553
-0.00180338
0.0034148
-0.00173295
0.00451309
-0.00161328
0.00555829
-0.00143502
0.00653739
-0.00120994
0.00740372
-0.000890462
0.00811485
-0.000540648
0.00849708
2.26364e-05
0.00869153
0.000464444
0.00866313
0.000960396
0.00842103
0.00144904
0.00796993
0.00193054
0.00732289
0.00238663
0.00649191
0.00281427
0.00548944
0.00320769
0.00432937
0.00356139
0.00304158
0.00385604
0.00165627
0.00408761
0.000206792
0.00425171
-0.00127611
0.00434899
-0.00276004
0.00437383
-0.00421863
0.00433441
-0.00561424
0.00421598
-0.0069279
0.00404377
-0.00810937
0.0037819
-0.00916351
0.00349972
-0.0100147
0.00311126
-0.010757
0.00281072
-0.0113485
0.0024529
-0.0118357
0.00213852
-0.0122138
0.00181373
-0.0124978
0.00150314
-0.0126969
0.00120073
-0.0128267
0.000915251
-0.0128927
0.000636414
-0.0128926
0.000358434
-0.0128181
7.73609e-05
-0.0126963
-0.000202538
-0.0125288
-0.000478264
-0.0123088
-0.000748238
-0.0120345
-0.00101312
-0.0117063
-0.00127232
-0.0113241
-0.00152676
-0.0108905
-0.0017744
-0.0104067
-0.00201607
-0.00987416
-0.00225026
-0.00929406
-0.00247578
-0.00866764
-0.00269181
-0.00799819
-0.0028955
-0.00729012
-0.00308506
-0.00654442
-0.00325977
-0.00576637
-0.00341578
-0.00496005
-0.00355279
-0.00413034
-0.00366652
-0.00328337
-0.00375676
-0.00242538
-0.00381955
-0.00156265
-0.00385535
-0.000702144
-0.00385905
0.000150352
-0.00383402
0.000985018
-0.00377277
0.00179481
-0.00367918
0.00257015
-0.00354869
0.00330318
-0.0033831
0.00398547
-0.00318311
0.00460942
-0.0029485
0.00516685
-0.00268076
0.00564914
-0.00238089
0.00605108
-0.00205121
0.00636608
-0.00169537
0.00658892
-0.00131739
0.0067148
-0.000919441
0.00673753
-0.000507302
0.00666463
-9.11055e-05
0.00648743
0.0003448
0.00621087
0.00076578
0.00583677
0.00117786
0.00536896
0.00157427
0.00481436
0.00194703
0.0041807
0.00228895
0.00347769
0.00259481
0.00271732
0.00285515
0.00191157
0.003066
0.00107357
0.00322116
0.000219191
0.00331504
-0.000634113
0.00334327
-0.00146978
0.00330287
-0.00227238
0.00319403
-0.00302279
0.00301298
-0.00370446
0.00276446
-0.00430408
0.00245183
-0.00480443
0.00207351
-0.00519056
0.0016418
-0.00545583
0.00116688
-0.00559303
0.000652996
-0.00559691
0.00011416
-0.00545914
-0.000457297
-0.00518687
-0.00100785
-0.00478263
-0.00154392
-0.00425391
-0.00205022
-0.003614
-0.00250992
-0.00287972
-0.00290963
-0.0020699
-0.00323379
-0.00120704
-0.00347182
-0.000314817
-0.0036121
0.000581092
-0.00364716
0.00145273
-0.00357174
0.00227172
-0.00338365
0.00301018
-0.00308451
0.0036436
-0.00268174
0.00415238
-0.00218567
0.00451234
-0.0016064
0.00471239
-0.00096529
0.00474716
-0.000286713
0.00460664
0.000431956
0.00429955
0.00112468
0.00383339
0.00178358
0.003224
0.0023816
0.00249471
0.0028916
0.00167603
0.00329038
0.000799714
0.00355815
-9.81394e-05
0.00367888
-0.000976574
0.00364121
-0.00179871
0.00344706
-0.00252677
0.00309648
-0.00312659
0.00260483
-0.00356876
0.00199023
-0.00383428
0.0012815
-0.00390906
0.000512379
-0.0037892
-0.000293294
-0.00348323
-0.00107006
-0.00300619
-0.00178796
-0.00238513
-0.00240721
-0.0016554
-0.00288951
-0.000858727
-0.00320777
-4.39489e-05
-0.00333921
0.000742131
-0.00326967
0.00145095
-0.00300672
0.00204062
-0.00256377
0.00247368
-0.00196655
0.00272518
-0.00125284
0.00278128
-0.000472793
0.00264319
0.000332796
0.00232369
0.00108685
0.00185008
0.0017439
0.00126116
0.00225662
0.00060432
0.00258341
-6.75029e-05
0.0026999
-0.000699539
0.00259469
-0.00124109
0.00228042
-0.00164865
0.00178268
-0.00189212
0.00114799
-0.0019537
0.000430131
-0.00183611
-0.000311077
-0.00155419
-0.000995115
-0.00114024
-0.00156479
-0.000639695
-0.00196744
-0.00010282
-0.0021685
0.000411686
-0.00214498
0.000854602
-0.00191211
0.00118327
-0.00149813
0.00136972
-0.000955924
0.00140241
-0.000348299
0.00128966
0.000253664
0.00105462
0.000777302
0.000735194
0.00116746
0.00037707
0.0013845
2.81902e-05
0.00141308
-0.000265773
0.00125911
-0.000474069
0.000962139
-0.00057655
0.000570551
-0.000570921
0.00014786
-0.000470269
-0.00024583
-0.00029922
-0.000553194
-9.17628e-05
-0.00073667
0.000116084
-0.000778149
0.000290673
-0.000679664
0.00040596
-0.000467941
0.000447395
-0.000184024
0.000412712
0.000127945
0.0003105
0.000409353
0.000159847
0.000620268
-1.38559e-05
0.000728561
-0.000182148
0.000715113
-0.00031948
0.000586308
-0.000405047
0.000361189
-0.000426184
7.23433e-05
-0.000380004
-0.000242201
-0.000271911
-0.000533539
-0.000116104
-0.000763244
6.70629e-05
-0.000899829
0.000254035
-0.000921386
0.00042055
-0.000822504
0.000544939
-0.00061261
0.000610689
-0.000314867
0.000608034
3.75216e-05
0.000535167
0.00040251
0.00039882
0.000735609
0.000213417
0.000994609
0.00114313
0.00238709
-0.00419729
0.00477606
-0.00419235
0.00712027
-0.00407716
0.00937615
-0.00386916
0.0114882
-0.00354705
0.0134172
-0.00313896
0.0150789
-0.00255212
0.0164908
-0.00195261
0.0172726
-0.000759165
0.0174419
0.00029515
0.0169468
0.00145554
0.0159292
0.00246663
0.0144768
0.00338292
0.0126755
0.00418797
0.010604
0.00488573
0.00833708
0.00547462
0.00594386
0.00595461
0.00347397
0.00632593
0.000971327
0.00659025
-0.00152353
0.00674657
-0.00397472
0.00680018
-0.00632835
0.00672745
-0.00854767
0.00655374
-0.0105734
0.00624172
-0.0123657
0.00583603
-0.0138505
0.00526668
-0.0149922
0.00464142
-0.0156725
0.00379158
-0.0161434
0.00328164
-0.0164328
0.00274224
-0.0165777
0.00228345
-0.016605
0.00184106
-0.0165411
0.0014392
-0.0164052
0.00106489
-0.0162066
0.000716668
-0.0159631
0.000392837
-0.0156901
8.54754e-05
-0.0153306
-0.000282141
-0.0149377
-0.000595431