/*--------------------------------*- C++ -*----------------------------------*\
  =========                 |
  \\      /  F ield         | OpenFOAM: The Open Source CFD Toolbox
   \\    /   O peration     | Website:  https://openfoam.org
    \\  /    A nd           | Version:  12
     \\/     M anipulation  |
\*---------------------------------------------------------------------------*/
FoamFile
{
    format      ascii;
    class       volScalarField;
    location    "14.44";
    object      p;
}
// * * * * * * * * * * * * * * * * * * * * * * * * * * * * * * * * * * * * * //

dimensions      [1 -1 -2 0 0 0 0];

internalField   nonuniform List<scalar> 
3829
(
-611.779
-611.78
-611.782
-611.785
-611.789
-611.794
-611.8
-611.807
-611.816
-611.826
-611.838
-611.851
-611.865
-611.882
-611.9
-611.921
-611.943
-611.968
-611.994
-612.023
-612.054
-612.088
-612.123
-612.161
-612.201
-612.244
-612.289
-612.335
-612.384
-612.434
-612.486
-612.539
-612.593
-612.648
-612.704
-612.76
-612.816
-612.871
-612.926
-612.981
-613.034
-613.085
-613.134
-613.18
-613.224
-613.265
-613.302
-613.336
-613.367
-613.394
-613.418
-613.438
-613.454
-613.467
-613.476
-613.481
-613.484
-613.483
-613.479
-613.473
-613.464
-613.454
-613.443
-613.43
-613.418
-613.405
-613.394
-613.384
-613.375
-613.37
-613.367
-613.368
-613.373
-613.383
-613.398
-613.417
-613.443
-613.474
-613.511
-613.554
-613.602
-613.655
-613.713
-613.775
-613.841
-613.909
-613.979
-614.049
-614.12
-614.189
-614.255
-614.318
-614.376
-614.429
-614.474
-614.512
-614.541
-614.561
-614.568
-614.566
-614.553
-614.532
-614.502
-614.464
-614.419
-614.37
-614.317
-614.262
-614.207
-614.155
-614.107
-614.065
-614.031
-614.007
-613.994
-613.992
-614.006
-614.032
-614.07
-614.118
-614.175
-614.239
-614.307
-614.38
-614.448
-614.51
-614.564
-614.606
-614.636
-614.65
-614.647
-614.627
-614.591
-614.54
-614.477
-614.406
-614.329
-614.251
-614.178
-614.113
-614.062
-614.026
-614.009
-614.015
-614.041
-614.085
-614.145
-614.216
-614.294
-614.372
-614.445
-614.507
-614.552
-614.579
-614.584
-614.568
-614.533
-614.483
-614.422
-614.358
-614.297
-614.245
-614.207
-614.187
-614.187
-614.204
-614.236
-614.277
-614.321
-614.362
-614.392
-614.407
-614.404
-614.379
-614.34
-614.291
-614.238
-614.19
-614.155
-614.138
-614.141
-614.168
-614.212
-614.267
-614.325
-614.379
-614.421
-614.445
-614.452
-614.441
-614.419
-614.393
-614.369
-614.353
-614.35
-614.36
-614.379
-614.403
-614.424
-614.437
-1770.05
-1770.05
-1770.05
-1770.05
-1770.06
-1770.06
-1770.06
-1770.07
-1770.08
-1770.09
-1770.1
-1770.11
-1770.12
-1770.14
-1770.15
-1770.17
-1770.19
-1770.22
-1770.25
-1770.28
-1770.31
-1770.35
-1770.39
-1770.43
-1770.48
-1770.53
-1770.58
-1770.64
-1770.7
-1770.76
-1770.82
-1770.88
-1770.95
-1771.01
-1771.08
-1771.15
-1771.22
-1771.28
-1771.35
-1771.41
-1771.47
-1771.53
-1771.59
-1771.64
-1771.69
-1771.73
-1771.78
-1771.81
-1771.85
-1771.87
-1771.9
-1771.91
-1771.93
-1771.93
-1771.94
-1771.94
-1771.93
-1771.92
-1771.91
-1771.89
-1771.87
-1771.85
-1771.83
-1771.81
-1771.78
-1771.76
-1771.74
-1771.72
-1771.7
-1771.69
-1771.68
-1771.67
-1771.67
-1771.68
-1771.69
-1771.71
-1771.73
-1771.77
-1771.81
-1771.85
-1771.91
-1771.97
-1772.04
-1772.11
-1772.18
-1772.26
-1772.35
-1772.43
-1772.51
-1772.59
-1772.67
-1772.75
-1772.81
-1772.87
-1772.93
-1772.97
-1773
-1773.02
-1773.03
-1773.02
-1773
-1772.97
-1772.93
-1772.89
-1772.83
-1772.76
-1772.7
-1772.63
-1772.56
-1772.49
-1772.43
-1772.38
-1772.34
-1772.31
-1772.29
-1772.29
-1772.31
-1772.34
-1772.38
-1772.44
-1772.51
-1772.59
-1772.67
-1772.76
-1772.85
-1772.92
-1772.99
-1773.04
-1773.08
-1773.09
-1773.09
-1773.07
-1773.02
-1772.96
-1772.88
-1772.79
-1772.7
-1772.6
-1772.51
-1772.44
-1772.37
-1772.33
-1772.31
-1772.32
-1772.35
-1772.41
-1772.48
-1772.57
-1772.66
-1772.76
-1772.85
-1772.92
-1772.97
-1773
-1773.01
-1772.98
-1772.94
-1772.88
-1772.8
-1772.72
-1772.65
-1772.58
-1772.54
-1772.52
-1772.52
-1772.54
-1772.59
-1772.64
-1772.7
-1772.75
-1772.79
-1772.81
-1772.8
-1772.77
-1772.72
-1772.66
-1772.6
-1772.54
-1772.5
-1772.48
-1772.48
-1772.51
-1772.57
-1772.63
-1772.7
-1772.76
-1772.81
-1772.84
-1772.84
-1772.82
-1772.79
-1772.76
-1772.73
-1772.71
-1772.71
-1772.72
-1772.75
-1772.77
-1772.8
-1772.82
-2796.11
-2796.11
-2796.11
-2796.11
-2796.1
-2796.1
-2796.1
-2796.1
-2796.1
-2796.1
-2796.1
-2796.11
-2796.11
-2796.12
-2796.13
-2796.15
-2796.17
-2796.19
-2796.22
-2796.25
-2796.28
-2796.33
-2796.37
-2796.43
-2796.48
-2796.55
-2796.61
-2796.68
-2796.76
-2796.84
-2796.92
-2797.01
-2797.1
-2797.19
-2797.28
-2797.37
-2797.45
-2797.54
-2797.63
-2797.71
-2797.79
-2797.87
-2797.94
-2798
-2798.06
-2798.11
-2798.16
-2798.2
-2798.23
-2798.25
-2798.27
-2798.28
-2798.29
-2798.28
-2798.27
-2798.26
-2798.24
-2798.21
-2798.18
-2798.14
-2798.1
-2798.06
-2798.02
-2797.97
-2797.93
-2797.88
-2797.84
-2797.8
-2797.77
-2797.74
-2797.72
-2797.7
-2797.69
-2797.69
-2797.69
-2797.71
-2797.74
-2797.78
-2797.82
-2797.88
-2797.95
-2798.02
-2798.11
-2798.2
-2798.3
-2798.4
-2798.5
-2798.61
-2798.72
-2798.82
-2798.92
-2799.01
-2799.1
-2799.18
-2799.24
-2799.29
-2799.33
-2799.35
-2799.35
-2799.34
-2799.31
-2799.27
-2799.21
-2799.14
-2799.06
-2798.97
-2798.87
-2798.78
-2798.68
-2798.59
-2798.5
-2798.43
-2798.37
-2798.33
-2798.31
-2798.31
-2798.33
-2798.37
-2798.43
-2798.51
-2798.61
-2798.71
-2798.83
-2798.95
-2799.06
-2799.16
-2799.25
-2799.32
-2799.37
-2799.39
-2799.39
-2799.35
-2799.29
-2799.21
-2799.1
-2798.98
-2798.86
-2798.73
-2798.61
-2798.51
-2798.43
-2798.37
-2798.35
-2798.36
-2798.41
-2798.48
-2798.58
-2798.7
-2798.82
-2798.95
-2799.07
-2799.16
-2799.23
-2799.27
-2799.26
-2799.23
-2799.17
-2799.08
-2798.98
-2798.87
-2798.77
-2798.69
-2798.63
-2798.61
-2798.61
-2798.65
-2798.71
-2798.79
-2798.87
-2798.94
-2799
-2799.02
-2799.01
-2798.98
-2798.91
-2798.83
-2798.75
-2798.67
-2798.61
-2798.59
-2798.6
-2798.63
-2798.7
-2798.79
-2798.87
-2798.95
-2799.01
-2799.04
-2799.03
-2799.01
-2798.96
-2798.91
-2798.87
-2798.85
-2798.85
-2798.86
-2798.9
-2798.94
-2798.98
-2799
-3705
-3704.99
-3704.99
-3704.98
-3704.97
-3704.96
-3704.94
-3704.93
-3704.91
-3704.89
-3704.88
-3704.87
-3704.85
-3704.85
-3704.84
-3704.85
-3704.85
-3704.87
-3704.89
-3704.92
-3704.96
-3705.01
-3705.07
-3705.14
-3705.22
-3705.31
-3705.4
-3705.5
-3705.61
-3705.73
-3705.85
-3705.97
-3706.1
-3706.23
-3706.35
-3706.48
-3706.6
-3706.72
-3706.84
-3706.95
-3707.05
-3707.15
-3707.24
-3707.32
-3707.39
-3707.46
-3707.51
-3707.55
-3707.59
-3707.61
-3707.62
-3707.62
-3707.61
-3707.59
-3707.56
-3707.53
-3707.48
-3707.43
-3707.37
-3707.3
-3707.23
-3707.16
-3707.09
-3707.01
-3706.94
-3706.86
-3706.79
-3706.73
-3706.67
-3706.61
-3706.57
-3706.54
-3706.51
-3706.5
-3706.5
-3706.52
-3706.55
-3706.59
-3706.65
-3706.72
-3706.81
-3706.91
-3707.02
-3707.14
-3707.26
-3707.4
-3707.54
-3707.68
-3707.82
-3707.96
-3708.09
-3708.21
-3708.32
-3708.42
-3708.5
-3708.57
-3708.61
-3708.63
-3708.63
-3708.61
-3708.57
-3708.5
-3708.42
-3708.31
-3708.2
-3708.07
-3707.93
-3707.8
-3707.66
-3707.53
-3707.41
-3707.31
-3707.23
-3707.17
-3707.14
-3707.14
-3707.17
-3707.23
-3707.31
-3707.42
-3707.55
-3707.7
-3707.86
-3708.02
-3708.17
-3708.32
-3708.44
-3708.54
-3708.6
-3708.63
-3708.62
-3708.58
-3708.49
-3708.37
-3708.23
-3708.07
-3707.89
-3707.72
-3707.56
-3707.42
-3707.31
-3707.24
-3707.21
-3707.23
-3707.29
-3707.39
-3707.53
-3707.69
-3707.87
-3708.04
-3708.19
-3708.32
-3708.41
-3708.45
-3708.44
-3708.39
-3708.3
-3708.17
-3708.03
-3707.88
-3707.75
-3707.64
-3707.57
-3707.54
-3707.56
-3707.62
-3707.71
-3707.82
-3707.93
-3708.04
-3708.11
-3708.14
-3708.13
-3708.08
-3707.99
-3707.88
-3707.77
-3707.66
-3707.58
-3707.55
-3707.56
-3707.61
-3707.7
-3707.82
-3707.93
-3708.03
-3708.1
-3708.13
-3708.12
-3708.08
-3708.01
-3707.94
-3707.89
-3707.85
-3707.85
-3707.88
-3707.93
-3707.98
-3708.04
-3708.07
-4510.33
-4510.32
-4510.31
-4510.28
-4510.25
-4510.2
-4510.16
-4510.11
-4510.05
-4509.99
-4509.94
-4509.88
-4509.83
-4509.79
-4509.75
-4509.72
-4509.7
-4509.7
-4509.71
-4509.73
-4509.77
-4509.83
-4509.9
-4509.99
-4510.09
-4510.22
-4510.35
-4510.5
-4510.66
-4510.83
-4511.01
-4511.19
-4511.37
-4511.56
-4511.74
-4511.92
-4512.09
-4512.26
-4512.42
-4512.57
-4512.71
-4512.84
-4512.95
-4513.05
-4513.13
-4513.2
-4513.26
-4513.3
-4513.32
-4513.34
-4513.33
-4513.32
-4513.28
-4513.24
-4513.18
-4513.11
-4513.04
-4512.95
-4512.85
-4512.74
-4512.63
-4512.52
-4512.4
-4512.29
-4512.17
-4512.06
-4511.95
-4511.85
-4511.76
-4511.68
-4511.61
-4511.55
-4511.51
-4511.49
-4511.49
-4511.5
-4511.54
-4511.59
-4511.66
-4511.75
-4511.86
-4511.99
-4512.13
-4512.29
-4512.46
-4512.63
-4512.82
-4513
-4513.19
-4513.37
-4513.54
-4513.71
-4513.85
-4513.98
-4514.08
-4514.16
-4514.22
-4514.24
-4514.24
-4514.2
-4514.14
-4514.04
-4513.92
-4513.78
-4513.61
-4513.44
-4513.25
-4513.05
-4512.87
-4512.69
-4512.53
-4512.39
-4512.28
-4512.2
-4512.16
-4512.15
-4512.19
-4512.27
-4512.39
-4512.54
-4512.72
-4512.92
-4513.13
-4513.35
-4513.56
-4513.76
-4513.92
-4514.06
-4514.14
-4514.18
-4514.17
-4514.1
-4513.99
-4513.83
-4513.63
-4513.41
-4513.17
-4512.94
-4512.72
-4512.54
-4512.39
-4512.3
-4512.27
-4512.29
-4512.38
-4512.52
-4512.71
-4512.92
-4513.17
-4513.4
-4513.6
-4513.76
-4513.88
-4513.93
-4513.91
-4513.84
-4513.7
-4513.53
-4513.34
-4513.14
-4512.96
-4512.81
-4512.72
-4512.69
-4512.72
-4512.81
-4512.94
-4513.09
-4513.26
-4513.4
-4513.5
-4513.54
-4513.53
-4513.46
-4513.34
-4513.19
-4513.03
-4512.89
-4512.78
-4512.74
-4512.75
-4512.83
-4512.95
-4513.09
-4513.25
-4513.37
-4513.46
-4513.49
-4513.47
-4513.41
-4513.31
-4513.22
-4513.14
-4513.1
-4513.1
-4513.13
-4513.2
-4513.28
-4513.35
-4513.4
-5223.89
-5223.88
-5223.84
-5223.78
-5223.71
-5223.62
-5223.51
-5223.4
-5223.27
-5223.14
-5223
-5222.86
-5222.73
-5222.61
-5222.5
-5222.4
-5222.33
-5222.29
-5222.27
-5222.28
-5222.31
-5222.39
-5222.49
-5222.62
-5222.78
-5222.97
-5223.19
-5223.42
-5223.67
-5223.93
-5224.19
-5224.46
-5224.73
-5225
-5225.26
-5225.51
-5225.75
-5225.98
-5226.19
-5226.38
-5226.55
-5226.71
-5226.85
-5226.97
-5227.07
-5227.15
-5227.21
-5227.25
-5227.27
-5227.26
-5227.24
-5227.2
-5227.14
-5227.06
-5226.96
-5226.85
-5226.73
-5226.6
-5226.45
-5226.3
-5226.13
-5225.97
-5225.8
-5225.63
-5225.47
-5225.31
-5225.15
-5225.01
-5224.88
-5224.76
-5224.66
-5224.58
-5224.53
-5224.49
-5224.48
-5224.49
-5224.53
-5224.59
-5224.68
-5224.8
-5224.94
-5225.11
-5225.29
-5225.5
-5225.72
-5225.95
-5226.19
-5226.43
-5226.67
-5226.9
-5227.13
-5227.34
-5227.53
-5227.69
-5227.82
-5227.92
-5227.99
-5228.01
-5228
-5227.95
-5227.86
-5227.73
-5227.56
-5227.37
-5227.14
-5226.9
-5226.65
-5226.39
-5226.14
-5225.9
-5225.69
-5225.5
-5225.35
-5225.25
-5225.19
-5225.19
-5225.24
-5225.35
-5225.5
-5225.71
-5225.95
-5226.21
-5226.5
-5226.79
-5227.07
-5227.33
-5227.55
-5227.72
-5227.83
-5227.88
-5227.86
-5227.78
-5227.62
-5227.41
-5227.15
-5226.85
-5226.54
-5226.23
-5225.95
-5225.7
-5225.52
-5225.4
-5225.36
-5225.4
-5225.52
-5225.7
-5225.95
-5226.24
-5226.57
-5226.86
-5227.13
-5227.34
-5227.48
-5227.54
-5227.51
-5227.4
-5227.22
-5226.99
-5226.73
-5226.47
-5226.23
-5226.05
-5225.93
-5225.89
-5225.94
-5226.06
-5226.24
-5226.45
-5226.68
-5226.87
-5227
-5227.06
-5227.04
-5226.94
-5226.78
-5226.58
-5226.37
-5226.19
-5226.05
-5225.99
-5226.01
-5226.11
-5226.27
-5226.46
-5226.66
-5226.82
-5226.93
-5226.96
-5226.92
-5226.83
-5226.71
-5226.58
-5226.47
-5226.42
-5226.42
-5226.47
-5226.56
-5226.67
-5226.77
-5226.82
-5856.6
-5856.56
-5856.47
-5856.34
-5856.17
-5855.96
-5855.72
-5855.45
-5855.16
-5854.86
-5854.56
-5854.26
-5853.98
-5853.72
-5853.5
-5853.31
-5853.15
-5853.05
-5852.99
-5852.99
-5853.04
-5853.14
-5853.3
-5853.51
-5853.78
-5854.08
-5854.43
-5854.8
-5855.19
-5855.59
-5856
-5856.39
-5856.78
-5857.16
-5857.52
-5857.86
-5858.17
-5858.46
-5858.73
-5858.97
-5859.19
-5859.38
-5859.54
-5859.66
-5859.77
-5859.84
-5859.89
-5859.91
-5859.91
-5859.88
-5859.83
-5859.75
-5859.65
-5859.53
-5859.39
-5859.23
-5859.05
-5858.86
-5858.66
-5858.44
-5858.22
-5857.99
-5857.77
-5857.54
-5857.31
-5857.1
-5856.89
-5856.7
-5856.52
-5856.37
-5856.23
-5856.12
-5856.04
-5855.99
-5855.97
-5855.98
-5856.03
-5856.11
-5856.22
-5856.37
-5856.55
-5856.76
-5856.99
-5857.25
-5857.53
-5857.83
-5858.13
-5858.44
-5858.75
-5859.05
-5859.34
-5859.6
-5859.84
-5860.04
-5860.21
-5860.34
-5860.41
-5860.44
-5860.42
-5860.34
-5860.22
-5860.05
-5859.83
-5859.57
-5859.28
-5858.96
-5858.64
-5858.3
-5857.97
-5857.66
-5857.38
-5857.14
-5856.95
-5856.82
-5856.75
-5856.75
-5856.81
-5856.95
-5857.16
-5857.42
-5857.73
-5858.08
-5858.45
-5858.82
-5859.18
-5859.51
-5859.8
-5860.02
-5860.16
-5860.23
-5860.2
-5860.08
-5859.88
-5859.6
-5859.26
-5858.89
-5858.48
-5858.09
-5857.73
-5857.41
-5857.18
-5857.03
-5856.98
-5857.04
-5857.2
-5857.44
-5857.76
-5858.12
-5858.56
-5858.93
-5859.26
-5859.53
-5859.7
-5859.76
-5859.72
-5859.58
-5859.34
-5859.04
-5858.71
-5858.37
-5858.07
-5857.83
-5857.69
-5857.66
-5857.73
-5857.89
-5858.12
-5858.39
-5858.7
-5858.94
-5859.1
-5859.18
-5859.15
-5859.02
-5858.82
-5858.56
-5858.29
-5858.05
-5857.88
-5857.81
-5857.84
-5857.97
-5858.17
-5858.41
-5858.67
-5858.86
-5858.99
-5859.02
-5858.97
-5858.84
-5858.68
-5858.51
-5858.38
-5858.31
-5858.32
-5858.39
-5858.51
-5858.64
-5858.77
-5858.84
-6417.9
-6417.83
-6417.68
-6417.45
-6417.15
-6416.77
-6416.33
-6415.83
-6415.3
-6414.76
-6414.22
-6413.7
-6413.21
-6412.76
-6412.35
-6412.01
-6411.73
-6411.52
-6411.38
-6411.33
-6411.37
-6411.49
-6411.7
-6412
-6412.39
-6412.85
-6413.38
-6413.95
-6414.55
-6415.14
-6415.73
-6416.29
-6416.83
-6417.34
-6417.81
-6418.24
-6418.64
-6418.99
-6419.31
-6419.59
-6419.83
-6420.03
-6420.21
-6420.35
-6420.45
-6420.52
-6420.55
-6420.55
-6420.52
-6420.46
-6420.37
-6420.25
-6420.1
-6419.93
-6419.73
-6419.51
-6419.28
-6419.02
-6418.75
-6418.47
-6418.18
-6417.88
-6417.58
-6417.29
-6417
-6416.72
-6416.45
-6416.2
-6415.98
-6415.78
-6415.6
-6415.46
-6415.36
-6415.29
-6415.26
-6415.27
-6415.33
-6415.43
-6415.57
-6415.75
-6415.98
-6416.24
-6416.53
-6416.86
-6417.21
-6417.57
-6417.95
-6418.34
-6418.72
-6419.09
-6419.45
-6419.78
-6420.07
-6420.32
-6420.53
-6420.68
-6420.77
-6420.8
-6420.77
-6420.67
-6420.51
-6420.28
-6420
-6419.68
-6419.31
-6418.91
-6418.49
-6418.07
-6417.66
-6417.26
-6416.91
-6416.61
-6416.37
-6416.2
-6416.11
-6416.11
-6416.2
-6416.38
-6416.64
-6416.97
-6417.37
-6417.8
-6418.27
-6418.74
-6419.19
-6419.61
-6419.96
-6420.24
-6420.42
-6420.49
-6420.45
-6420.3
-6420.05
-6419.7
-6419.27
-6418.8
-6418.29
-6417.8
-6417.35
-6416.96
-6416.67
-6416.49
-6416.43
-6416.51
-6416.71
-6417.03
-6417.43
-6417.88
-6418.43
-6418.89
-6419.3
-6419.62
-6419.83
-6419.9
-6419.85
-6419.66
-6419.35
-6418.97
-6418.55
-6418.13
-6417.75
-6417.47
-6417.3
-6417.26
-6417.35
-6417.57
-6417.87
-6418.21
-6418.6
-6418.89
-6419.11
-6419.2
-6419.16
-6419
-6418.73
-6418.41
-6418.07
-6417.78
-6417.57
-6417.48
-6417.52
-6417.68
-6417.93
-6418.23
-6418.56
-6418.79
-6418.94
-6418.97
-6418.89
-6418.73
-6418.52
-6418.31
-6418.15
-6418.07
-6418.08
-6418.17
-6418.32
-6418.49
-6418.65
-6418.74
-6916.23
-6916.1
-6915.83
-6915.41
-6914.86
-6914.16
-6913.33
-6912.36
-6911.35
-6910.32
-6909.3
-6908.33
-6907.44
-6906.64
-6905.95
-6905.38
-6904.93
-6904.61
-6904.42
-6904.37
-6904.47
-6904.71
-6905.09
-6905.62
-6906.29
-6907.1
-6908.02
-6909.01
-6910.01
-6910.94
-6911.8
-6912.59
-6913.3
-6913.94
-6914.51
-6915.02
-6915.47
-6915.87
-6916.22
-6916.52
-6916.78
-6916.99
-6917.16
-6917.28
-6917.37
-6917.41
-6917.42
-6917.39
-6917.32
-6917.22
-6917.08
-6916.91
-6916.71
-6916.48
-6916.22
-6915.93
-6915.62
-6915.3
-6914.95
-6914.6
-6914.23
-6913.86
-6913.49
-6913.12
-6912.75
-6912.41
-6912.07
-6911.77
-6911.48
-6911.23
-6911.02
-6910.84
-6910.71
-6910.63
-6910.59
-6910.61
-6910.67
-6910.79
-6910.97
-6911.19
-6911.46
-6911.78
-6912.14
-6912.54
-6912.96
-6913.41
-6913.87
-6914.34
-6914.81
-6915.26
-6915.69
-6916.09
-6916.45
-6916.75
-6917
-6917.18
-6917.29
-6917.32
-6917.27
-6917.15
-6916.94
-6916.66
-6916.32
-6915.91
-6915.45
-6914.96
-6914.45
-6913.93
-6913.42
-6912.94
-6912.51
-6912.13
-6911.84
-6911.64
-6911.53
-6911.54
-6911.65
-6911.87
-6912.19
-6912.6
-6913.08
-6913.62
-6914.19
-6914.77
-6915.32
-6915.83
-6916.26
-6916.6
-6916.82
-6916.9
-6916.85
-6916.67
-6916.35
-6915.92
-6915.4
-6914.81
-6914.2
-6913.6
-6913.04
-6912.57
-6912.22
-6912.01
-6911.95
-6912.05
-6912.3
-6912.69
-6913.19
-6913.75
-6914.39
-6914.96
-6915.46
-6915.85
-6916.1
-6916.18
-6916.1
-6915.86
-6915.48
-6915.01
-6914.49
-6913.97
-6913.52
-6913.18
-6912.98
-6912.94
-6913.06
-6913.33
-6913.71
-6914.14
-6914.6
-6914.97
-6915.23
-6915.34
-6915.29
-6915.09
-6914.76
-6914.37
-6913.95
-6913.59
-6913.34
-6913.24
-6913.29
-6913.49
-6913.8
-6914.16
-6914.55
-6914.83
-6915
-6915.03
-6914.93
-6914.72
-6914.47
-6914.2
-6914.01
-6913.92
-6913.93
-6914.05
-6914.23
-6914.45
-6914.64
-6914.74
-7359.61
-7359.43
-7359.05
-7358.46
-7357.65
-7356.54
-7355.23
-7353.46
-7351.4
-7349.19
-7347.56
-7346.1
-7344.9
-7343.87
-7342.98
-7342.23
-7341.63
-7341.2
-7340.94
-7340.86
-7340.96
-7341.24
-7341.71
-7342.36
-7343.24
-7344.35
-7345.99
-7347.86
-7349.46
-7350.64
-7351.74
-7352.7
-7353.53
-7354.26
-7354.89
-7355.45
-7355.92
-7356.34
-7356.69
-7356.99
-7357.23
-7357.43
-7357.58
-7357.69
-7357.75
-7357.77
-7357.75
-7357.68
-7357.57
-7357.42
-7357.23
-7357.01
-7356.74
-7356.45
-7356.12
-7355.77
-7355.38
-7354.98
-7354.56
-7354.12
-7353.67
-7353.22
-7352.77
-7352.32
-7351.88
-7351.46
-7351.06
-7350.69
-7350.35
-7350.04
-7349.78
-7349.57
-7349.42
-7349.31
-7349.27
-7349.29
-7349.37
-7349.51
-7349.72
-7349.99
-7350.32
-7350.7
-7351.13
-7351.6
-7352.11
-7352.65
-7353.2
-7353.76
-7354.31
-7354.85
-7355.37
-7355.84
-7356.26
-7356.62
-7356.91
-7357.12
-7357.25
-7357.28
-7357.22
-7357.06
-7356.81
-7356.47
-7356.05
-7355.56
-7355.01
-7354.42
-7353.8
-7353.18
-7352.57
-7351.99
-7351.47
-7351.03
-7350.68
-7350.43
-7350.31
-7350.32
-7350.46
-7350.72
-7351.11
-7351.6
-7352.19
-7352.83
-7353.52
-7354.21
-7354.88
-7355.48
-7356
-7356.4
-7356.65
-7356.76
-7356.69
-7356.46
-7356.08
-7355.56
-7354.94
-7354.24
-7353.5
-7352.78
-7352.12
-7351.57
-7351.15
-7350.9
-7350.84
-7350.96
-7351.28
-7351.75
-7352.34
-7353.02
-7353.77
-7354.45
-7355.04
-7355.5
-7355.79
-7355.88
-7355.78
-7355.48
-7355.02
-7354.45
-7353.83
-7353.21
-7352.67
-7352.27
-7352.03
-7352
-7352.16
-7352.49
-7352.95
-7353.48
-7354.02
-7354.46
-7354.77
-7354.9
-7354.84
-7354.59
-7354.2
-7353.72
-7353.22
-7352.8
-7352.5
-7352.38
-7352.45
-7352.69
-7353.07
-7353.5
-7353.95
-7354.28
-7354.47
-7354.5
-7354.37
-7354.12
-7353.82
-7353.49
-7353.27
-7353.16
-7353.18
-7353.33
-7353.55
-7353.81
-7354.03
-7354.16
-7754.4
-7754.2
-7753.8
-7753.15
-7752.2
-7750.87
-7749
-7746.56
-7743.17
-7738.49
-7736.68
-7733.38
-7731.74
-7730.02
-7728.63
-7727.53
-7726.71
-7726.16
-7725.84
-7725.77
-7725.96
-7726.43
-7727.21
-7728.34
-7729.85
-7731.55
-7734
-7737.05
-7739.16
-7740.83
-7742.24
-7743.32
-7744.18
-7744.89
-7745.48
-7746
-7746.44
-7746.82
-7747.15
-7747.42
-7747.64
-7747.82
-7747.94
-7748.01
-7748.04
-7748.02
-7747.96
-7747.85
-7747.7
-7747.5
-7747.25
-7746.97
-7746.65
-7746.28
-7745.89
-7745.46
-7745
-7744.51
-7744.01
-7743.49
-7742.96
-7742.42
-7741.88
-7741.35
-7740.84
-7740.34
-7739.87
-7739.43
-7739.02
-7738.67
-7738.37
-7738.12
-7737.93
-7737.81
-7737.76
-7737.78
-7737.88
-7738.05
-7738.29
-7738.61
-7739
-7739.44
-7739.95
-7740.5
-7741.1
-7741.73
-7742.37
-7743.03
-7743.68
-7744.31
-7744.91
-7745.46
-7745.95
-7746.37
-7746.71
-7746.95
-7747.09
-7747.13
-7747.05
-7746.86
-7746.56
-7746.16
-7745.66
-7745.08
-7744.43
-7743.73
-7743.01
-7742.27
-7741.55
-7740.88
-7740.27
-7739.75
-7739.34
-7739.05
-7738.91
-7738.92
-7739.09
-7739.4
-7739.86
-7740.45
-7741.13
-7741.9
-7742.7
-7743.51
-7744.29
-7745
-7745.61
-7746.07
-7746.37
-7746.48
-7746.4
-7746.13
-7745.68
-7745.07
-7744.34
-7743.51
-7742.64
-7741.8
-7741.03
-7740.39
-7739.91
-7739.62
-7739.55
-7739.71
-7740.08
-7740.64
-7741.35
-7742.15
-7743.01
-7743.8
-7744.49
-7745.03
-7745.36
-7745.46
-7745.32
-7744.96
-7744.42
-7743.75
-7743.01
-7742.29
-7741.67
-7741.19
-7740.93
-7740.9
-7741.09
-7741.49
-7742.04
-7742.66
-7743.29
-7743.81
-7744.17
-7744.32
-7744.24
-7743.95
-7743.49
-7742.93
-7742.34
-7741.85
-7741.51
-7741.37
-7741.46
-7741.75
-7742.18
-7742.69
-7743.2
-7743.59
-7743.8
-7743.83
-7743.67
-7743.37
-7743.01
-7742.63
-7742.37
-7742.25
-7742.28
-7742.45
-7742.71
-7743.03
-7743.28
-7743.42
-8105.55
-8105.45
-8105.24
-8104.95
-8104.57
-8104.22
-8103.81
-8103.46
-8088.38
-8088.78
-8089.26
-8089.7
-8090.27
-8090.81
-8091.32
-8091.8
-8092.23
-8092.61
-8092.94
-8093.22
-8093.46
-8093.64
-8093.78
-8093.88
-8093.92
-8093.92
-8093.86
-8093.76
-8093.61
-8093.41
-8093.16
-8092.86
-8092.52
-8092.13
-8091.7
-8091.23
-8090.72
-8090.19
-8089.62
-8089.03
-8088.43
-8087.81
-8087.19
-8086.56
-8085.95
-8085.35
-8084.78
-8084.23
-8083.72
-8083.26
-8082.85
-8082.5
-8082.22
-8082
-8081.87
-8081.81
-8081.84
-8081.95
-8082.15
-8082.43
-8082.79
-8083.24
-8083.76
-8084.34
-8084.98
-8085.67
-8086.39
-8087.13
-8087.89
-8088.63
-8089.36
-8090.04
-8090.68
-8091.24
-8091.72
-8092.1
-8092.38
-8092.54
-8092.57
-8092.48
-8092.25
-8091.9
-8091.44
-8090.86
-8090.19
-8089.44
-8088.63
-8087.79
-8086.94
-8086.11
-8085.33
-8084.63
-8084.03
-8083.56
-8083.23
-8083.07
-8083.09
-8083.28
-8083.65
-8084.18
-8084.86
-8085.65
-8086.53
-8087.46
-8088.4
-8089.3
-8090.12
-8090.81
-8091.34
-8091.68
-8091.81
-8091.71
-8091.4
-8090.87
-8090.17
-8089.32
-8088.37
-8087.35
-8086.39
-8085.52
-8084.78
-8084.23
-8083.91
-8083.84
-8084.03
-8084.46
-8085.11
-8085.93
-8086.85
-8087.83
-8088.74
-8089.53
-8090.14
-8090.51
-8090.62
-8090.45
-8090.03
-8089.4
-8088.62
-8087.77
-8086.95
-8086.23
-8085.69
-8085.39
-8085.37
-8085.6
-8086.07
-8086.71
-8087.43
-8088.15
-8088.75
-8089.17
-8089.33
-8089.24
-8088.9
-8088.36
-8087.72
-8087.04
-8086.48
-8086.09
-8085.93
-8086.04
-8086.37
-8086.88
-8087.46
-8088.04
-8088.48
-8088.72
-8088.74
-8088.55
-8088.2
-8087.78
-8087.35
-8087.06
-8086.92
-8086.96
-8087.16
-8087.45
-8087.82
-8088.11
-8088.27
-8417.43
-8417.39
-8417.3
-8417.17
-8417.01
-8416.85
-8416.65
-8416.55
-8396.7
-8396.93
-8397.17
-8397.36
-8397.69
-8398.05
-8398.42
-8398.77
-8399.11
-8399.42
-8399.7
-8399.94
-8400.14
-8400.29
-8400.4
-8400.46
-8400.48
-8400.44
-8400.35
-8400.21
-8400.01
-8399.77
-8399.47
-8399.11
-8398.71
-8398.26
-8397.76
-8397.22
-8396.64
-8396.02
-8395.37
-8394.7
-8394.01
-8393.31
-8392.6
-8391.89
-8391.19
-8390.51
-8389.86
-8389.24
-8388.66
-8388.14
-8387.67
-8387.28
-8386.96
-8386.72
-8386.56
-8386.5
-8386.53
-8386.66
-8386.89
-8387.21
-8387.63
-8388.13
-8388.72
-8389.38
-8390.11
-8390.89
-8391.71
-8392.55
-8393.4
-8394.25
-8395.07
-8395.84
-8396.56
-8397.19
-8397.74
-8398.17
-8398.47
-8398.65
-8398.68
-8398.57
-8398.31
-8397.91
-8397.38
-8396.72
-8395.95
-8395.1
-8394.18
-8393.22
-8392.26
-8391.32
-8390.44
-8389.64
-8388.96
-8388.43
-8388.06
-8387.88
-8387.9
-8388.12
-8388.55
-8389.15
-8389.92
-8390.83
-8391.83
-8392.89
-8393.95
-8394.97
-8395.89
-8396.68
-8397.28
-8397.66
-8397.8
-8397.69
-8397.32
-8396.72
-8395.92
-8394.96
-8393.89
-8392.72
-8391.64
-8390.65
-8389.82
-8389.2
-8388.85
-8388.77
-8388.99
-8389.49
-8390.24
-8391.16
-8392.21
-8393.32
-8394.34
-8395.24
-8395.92
-8396.33
-8396.45
-8396.25
-8395.76
-8395.04
-8394.15
-8393.19
-8392.25
-8391.44
-8390.84
-8390.51
-8390.49
-8390.77
-8391.31
-8392.04
-8392.86
-8393.67
-8394.35
-8394.82
-8395.01
-8394.89
-8394.5
-8393.89
-8393.16
-8392.39
-8391.76
-8391.32
-8391.15
-8391.27
-8391.66
-8392.23
-8392.89
-8393.54
-8394.03
-8394.3
-8394.31
-8394.08
-8393.68
-8393.2
-8392.73
-8392.39
-8392.24
-8392.29
-8392.52
-8392.86
-8393.28
-8393.59
-8393.78
-8693.85
-8693.83
-8693.78
-8693.71
-8693.62
-8693.54
-8693.43
-8693.39
-8668.81
-8668.9
-8669.27
-8669.53
-8669.82
-8670.13
-8670.44
-8670.74
-8671.03
-8671.29
-8671.53
-8671.74
-8671.9
-8672.03
-8672.11
-8672.15
-8672.13
-8672.07
-8671.94
-8671.77
-8671.53
-8671.24
-8670.89
-8670.48
-8670.02
-8669.51
-8668.94
-8668.33
-8667.68
-8666.98
-8666.25
-8665.5
-8664.72
-8663.93
-8663.14
-8662.34
-8661.56
-8660.8
-8660.07
-8659.38
-8658.74
-8658.15
-8657.63
-8657.19
-8656.84
-8656.57
-8656.4
-8656.33
-8656.37
-8656.52
-8656.77
-8657.13
-8657.6
-8658.17
-8658.83
-8659.57
-8660.38
-8661.25
-8662.17
-8663.11
-8664.06
-8665.01
-8665.92
-8666.78
-8667.58
-8668.29
-8668.89
-8669.37
-8669.71
-8669.9
-8669.93
-8669.8
-8669.51
-8669.06
-8668.45
-8667.71
-8666.85
-8665.9
-8664.87
-8663.8
-8662.72
-8661.67
-8660.68
-8659.79
-8659.03
-8658.43
-8658.03
-8657.83
-8657.86
-8658.11
-8658.58
-8659.27
-8660.13
-8661.15
-8662.27
-8663.45
-8664.64
-8665.78
-8666.81
-8667.69
-8668.36
-8668.78
-8668.93
-8668.8
-8668.39
-8667.71
-8666.81
-8665.73
-8664.55
-8663.22
-8662.03
-8660.93
-8660
-8659.32
-8658.93
-8658.85
-8659.11
-8659.67
-8660.5
-8661.55
-8662.72
-8663.95
-8665.09
-8666.08
-8666.84
-8667.29
-8667.41
-8667.18
-8666.63
-8665.81
-8664.82
-8663.74
-8662.69
-8661.79
-8661.13
-8660.77
-8660.75
-8661.07
-8661.68
-8662.5
-8663.43
-8664.34
-8665.1
-8665.61
-8665.82
-8665.69
-8665.24
-8664.56
-8663.74
-8662.88
-8662.18
-8661.69
-8661.51
-8661.65
-8662.09
-8662.73
-8663.47
-8664.18
-8664.72
-8665.01
-8665.02
-8664.76
-8664.3
-8663.76
-8663.24
-8662.87
-8662.7
-8662.77
-8663.03
-8663.41
-8663.86
-8664.22
-8664.42
-8938.81
-8938.8
-8938.77
-8938.73
-8938.69
-8938.65
-8938.59
-8938.58
-8910.38
-8910.38
-8910.56
-8910.73
-8910.95
-8911.19
-8911.44
-8911.7
-8911.95
-8912.18
-8912.4
-8912.58
-8912.72
-8912.83
-8912.89
-8912.9
-8912.86
-8912.77
-8912.61
-8912.4
-8912.13
-8911.79
-8911.4
-8910.94
-8910.42
-8909.85
-8909.22
-8908.54
-8907.81
-8907.04
-8906.23
-8905.4
-8904.54
-8903.67
-8902.79
-8901.91
-8901.05
-8900.21
-8899.4
-8898.64
-8897.93
-8897.29
-8896.72
-8896.23
-8895.84
-8895.55
-8895.36
-8895.29
-8895.33
-8895.5
-8895.78
-8896.19
-8896.7
-8897.33
-8898.06
-8898.88
-8899.78
-8900.74
-8901.75
-8902.79
-8903.84
-8904.88
-8905.89
-8906.84
-8907.72
-8908.49
-8909.15
-8909.68
-8910.05
-8910.25
-8910.29
-8910.14
-8909.81
-8909.31
-8908.64
-8907.82
-8906.87
-8905.81
-8904.67
-8903.49
-8902.29
-8901.13
-8900.04
-8899.06
-8898.22
-8897.57
-8897.12
-8896.91
-8896.94
-8897.22
-8897.75
-8898.5
-8899.46
-8900.59
-8901.83
-8903.14
-8904.45
-8905.71
-8906.85
-8907.81
-8908.54
-8909.01
-8909.17
-8909.02
-8908.56
-8907.81
-8906.81
-8905.62
-8904.32
-8902.84
-8901.53
-8900.32
-8899.31
-8898.56
-8898.13
-8898.06
-8898.34
-8898.97
-8899.9
-8901.05
-8902.34
-8903.7
-8904.95
-8906.04
-8906.87
-8907.37
-8907.49
-8907.22
-8906.61
-8905.7
-8904.59
-8903.4
-8902.25
-8901.26
-8900.53
-8900.15
-8900.14
-8900.5
-8901.18
-8902.1
-8903.12
-8904.12
-8904.96
-8905.52
-8905.75
-8905.59
-8905.1
-8904.34
-8903.45
-8902.48
-8901.72
-8901.19
-8900.99
-8901.15
-8901.64
-8902.35
-8903.16
-8903.94
-8904.53
-8904.84
-8904.84
-8904.55
-8904.04
-8903.44
-8902.87
-8902.47
-8902.29
-8902.36
-8902.65
-8903.07
-8903.57
-8903.96
-8904.18
-9155.86
-9155.85
-9155.84
-9155.82
-9155.79
-9155.77
-9155.74
-9155.73
-9124.02
-9124.04
-9124.18
-9124.32
-9124.51
-9124.72
-9124.95
-9125.18
-9125.4
-9125.62
-9125.81
-9125.98
-9126.11
-9126.2
-9126.24
-9126.24
-9126.18
-9126.06
-9125.88
-9125.63
-9125.33
-9124.95
-9124.51
-9124.01
-9123.44
-9122.81
-9122.12
-9121.37
-9120.57
-9119.73
-9118.84
-9117.93
-9116.99
-9116.04
-9115.07
-9114.12
-9113.18
-9112.26
-9111.38
-9110.55
-9109.78
-9109.08
-9108.46
-9107.93
-9107.51
-9107.19
-9106.99
-9106.91
-9106.96
-9107.15
-9107.46
-9107.9
-9108.47
-9109.15
-9109.95
-9110.84
-9111.83
-9112.88
-9113.98
-9115.11
-9116.26
-9117.39
-9118.49
-9119.53
-9120.48
-9121.33
-9122.05
-9122.61
-9123.01
-9123.24
-9123.27
-9123.1
-9122.74
-9122.19
-9121.46
-9120.56
-9119.52
-9118.36
-9117.11
-9115.82
-9114.52
-9113.25
-9112.06
-9110.99
-9110.07
-9109.36
-9108.87
-9108.64
-9108.68
-9108.99
-9109.57
-9110.4
-9111.45
-9112.68
-9114.04
-9115.47
-9116.9
-9118.28
-9119.52
-9120.57
-9121.36
-9121.87
-9122.04
-9121.87
-9121.36
-9120.54
-9119.44
-9118.14
-9116.73
-9115.11
-9113.69
-9112.37
-9111.27
-9110.46
-9109.99
-9109.92
-9110.24
-9110.93
-9111.95
-9113.21
-9114.62
-9116.09
-9117.46
-9118.64
-9119.54
-9120.07
-9120.19
-9119.9
-9119.22
-9118.22
-9117.01
-9115.71
-9114.46
-9113.38
-9112.59
-9112.18
-9112.17
-9112.58
-9113.33
-9114.34
-9115.45
-9116.55
-9117.46
-9118.07
-9118.31
-9118.14
-9117.59
-9116.76
-9115.79
-9114.73
-9113.9
-9113.33
-9113.12
-9113.31
-9113.84
-9114.62
-9115.5
-9116.34
-9116.98
-9117.31
-9117.3
-9116.98
-9116.42
-9115.77
-9115.15
-9114.71
-9114.52
-9114.6
-9114.92
-9115.39
-9115.92
-9116.35
-9116.59
-9348.16
-9348.15
-9348.14
-9348.13
-9348.11
-9348.1
-9348.08
-9348.07
-9313.22
-9313.24
-9313.37
-9313.49
-9313.67
-9313.86
-9314.07
-9314.29
-9314.51
-9314.71
-9314.9
-9315.05
-9315.18
-9315.26
-9315.29
-9315.27
-9315.19
-9315.05
-9314.85
-9314.58
-9314.24
-9313.83
-9313.35
-9312.8
-9312.18
-9311.49
-9310.74
-9309.93
-9309.07
-9308.16
-9307.2
-9306.21
-9305.19
-9304.16
-9303.12
-9302.09
-9301.07
-9300.08
-9299.14
-9298.24
-9297.41
-9296.65
-9295.99
-9295.42
-9294.96
-9294.62
-9294.41
-9294.32
-9294.38
-9294.58
-9294.92
-9295.4
-9296.02
-9296.76
-9297.62
-9298.59
-9299.65
-9300.79
-9301.98
-9303.21
-9304.44
-9305.67
-9306.85
-9307.97
-9309
-9309.91
-9310.68
-9311.29
-9311.72
-9311.96
-9311.99
-9311.81
-9311.41
-9310.81
-9310.02
-9309.04
-9307.91
-9306.66
-9305.31
-9303.91
-9302.51
-9301.14
-9299.85
-9298.69
-9297.71
-9296.93
-9296.41
-9296.16
-9296.21
-9296.55
-9297.18
-9298.08
-9299.22
-9300.55
-9302.02
-9303.57
-9305.12
-9306.6
-9307.94
-9309.07
-9309.93
-9310.47
-9310.66
-9310.46
-9309.91
-9309.01
-9307.83
-9306.42
-9304.89
-9303.15
-9301.62
-9300.19
-9299
-9298.13
-9297.64
-9297.57
-9297.92
-9298.67
-9299.77
-9301.14
-9302.66
-9304.25
-9305.73
-9307
-9307.96
-9308.53
-9308.65
-9308.33
-9307.58
-9306.5
-9305.19
-9303.79
-9302.43
-9301.27
-9300.42
-9299.98
-9299.99
-9300.43
-9301.26
-9302.34
-9303.55
-9304.73
-9305.72
-9306.38
-9306.63
-9306.44
-9305.85
-9304.95
-9303.9
-9302.75
-9301.86
-9301.25
-9301.03
-9301.23
-9301.81
-9302.65
-9303.61
-9304.51
-9305.19
-9305.54
-9305.53
-9305.17
-9304.56
-9303.85
-9303.19
-9302.72
-9302.52
-9302.61
-9302.96
-9303.47
-9304.04
-9304.49
-9304.75
-9518.51
-9518.51
-9518.5
-9518.49
-9518.48
-9518.47
-9518.45
-9518.45
-9480.79
-9480.8
-9480.93
-9481.05
-9481.21
-9481.4
-9481.61
-9481.82