#           v             n
     0.523599   0.000166589
     0.648652   5.02922e-05
     0.790112    6.8006e-05
     0.953116   9.64487e-05
      1.13449   0.000136063
      1.34047   0.000199891
      1.56672   0.000290036
      1.82069   0.000434255
      2.09677   0.000636062
      2.40376   0.000950597
      2.73462    0.00137286
      3.09966    0.00199533
      3.49026    0.00275891
      3.91837    0.00377406
      4.37366    0.00481335
      4.86986    0.00594412
       5.3948    0.00666492
      5.96412    0.00703799
      6.56366    0.00650975
      7.21112    0.00545611
      7.89023    0.00377993
      8.62085    0.00219224
      9.38447   0.000886464
      10.2033   0.000205443
      11.0564             0
      11.9684             0
      12.9159             0
      13.9262             0
      14.9731             0
