/*--------------------------------*- C++ -*----------------------------------*\
  =========                 |
  \\      /  F ield         | OpenFOAM: The Open Source CFD Toolbox
   \\    /   O peration     | Website:  https://openfoam.org
    \\  /    A nd           | Version:  12
     \\/     M anipulation  |
\*---------------------------------------------------------------------------*/
FoamFile
{
    format      ascii;
    class       volScalarField;
    location    "17.96";
    object      p;
}
// * * * * * * * * * * * * * * * * * * * * * * * * * * * * * * * * * * * * * //

dimensions      [1 -1 -2 0 0 0 0];

internalField   nonuniform List<scalar> 
3829
(
-617.581
-617.58
-617.577
-617.574
-617.569
-617.562
-617.555
-617.545
-617.535
-617.522
-617.507
-617.491
-617.473
-617.452
-617.43
-617.405
-617.378
-617.348
-617.315
-617.28
-617.243
-617.202
-617.159
-617.113
-617.064
-617.013
-616.959
-616.902
-616.843
-616.782
-616.719
-616.654
-616.588
-616.52
-616.452
-616.382
-616.313
-616.243
-616.173
-616.105
-616.037
-615.971
-615.906
-615.844
-615.784
-615.727
-615.673
-615.622
-615.575
-615.531
-615.492
-615.456
-615.424
-615.397
-615.373
-615.353
-615.337
-615.324
-615.315
-615.309
-615.306
-615.306
-615.307
-615.31
-615.314
-615.319
-615.324
-615.328
-615.33
-615.331
-615.33
-615.326
-615.318
-615.306
-615.29
-615.269
-615.243
-615.212
-615.174
-615.132
-615.083
-615.03
-614.972
-614.91
-614.844
-614.774
-614.702
-614.629
-614.556
-614.484
-614.414
-614.347
-614.284
-614.227
-614.176
-614.133
-614.099
-614.073
-614.058
-614.053
-614.058
-614.073
-614.098
-614.132
-614.173
-614.22
-614.273
-614.328
-614.384
-614.439
-614.491
-614.537
-614.576
-614.606
-614.625
-614.632
-614.626
-614.607
-614.575
-614.53
-614.475
-614.412
-614.342
-614.269
-614.196
-614.127
-614.064
-614.011
-613.971
-613.946
-613.939
-613.953
-613.987
-614.037
-614.101
-614.178
-614.261
-614.349
-614.433
-614.511
-614.576
-614.624
-614.653
-614.659
-614.641
-614.601
-614.542
-614.468
-614.384
-614.298
-614.216
-614.146
-614.093
-614.062
-614.056
-614.079
-614.125
-614.19
-614.269
-614.352
-614.432
-614.498
-614.544
-614.565
-614.558
-614.523
-614.466
-614.392
-614.311
-614.237
-614.179
-614.144
-614.137
-614.162
-614.213
-614.283
-614.36
-614.432
-614.486
-614.513
-614.506
-614.46
-614.387
-614.298
-614.206
-614.113
-614.064
-614.05
-614.076
-614.138
-614.222
-614.313
-614.398
-614.446
-614.455
-614.425
-614.362
-614.286
-614.217
-614.175
-1776.06
-1776.05
-1776.05
-1776.05
-1776.05
-1776.04
-1776.04
-1776.03
-1776.02
-1776.01
-1776
-1775.98
-1775.97
-1775.95
-1775.92
-1775.9
-1775.87
-1775.84
-1775.81
-1775.77
-1775.73
-1775.69
-1775.64
-1775.59
-1775.53
-1775.47
-1775.41
-1775.35
-1775.28
-1775.21
-1775.13
-1775.06
-1774.98
-1774.9
-1774.82
-1774.73
-1774.65
-1774.57
-1774.49
-1774.41
-1774.33
-1774.25
-1774.18
-1774.11
-1774.04
-1773.98
-1773.92
-1773.87
-1773.82
-1773.78
-1773.74
-1773.71
-1773.68
-1773.65
-1773.63
-1773.62
-1773.61
-1773.61
-1773.61
-1773.61
-1773.62
-1773.63
-1773.64
-1773.66
-1773.67
-1773.69
-1773.7
-1773.72
-1773.73
-1773.74
-1773.75
-1773.75
-1773.75
-1773.74
-1773.73
-1773.71
-1773.69
-1773.66
-1773.62
-1773.57
-1773.52
-1773.46
-1773.39
-1773.32
-1773.24
-1773.16
-1773.08
-1772.99
-1772.91
-1772.82
-1772.74
-1772.66
-1772.59
-1772.52
-1772.46
-1772.42
-1772.38
-1772.35
-1772.33
-1772.33
-1772.34
-1772.36
-1772.4
-1772.44
-1772.49
-1772.56
-1772.62
-1772.69
-1772.76
-1772.83
-1772.9
-1772.96
-1773.01
-1773.05
-1773.07
-1773.08
-1773.07
-1773.05
-1773.01
-1772.96
-1772.89
-1772.81
-1772.73
-1772.64
-1772.55
-1772.46
-1772.38
-1772.32
-1772.27
-1772.24
-1772.23
-1772.25
-1772.29
-1772.35
-1772.43
-1772.52
-1772.62
-1772.73
-1772.83
-1772.93
-1773
-1773.06
-1773.1
-1773.1
-1773.08
-1773.03
-1772.96
-1772.86
-1772.76
-1772.65
-1772.55
-1772.47
-1772.4
-1772.37
-1772.36
-1772.39
-1772.45
-1772.53
-1772.63
-1772.73
-1772.83
-1772.91
-1772.97
-1772.99
-1772.98
-1772.94
-1772.86
-1772.77
-1772.67
-1772.58
-1772.51
-1772.47
-1772.46
-1772.49
-1772.55
-1772.64
-1772.74
-1772.83
-1772.89
-1772.93
-1772.92
-1772.87
-1772.78
-1772.67
-1772.56
-1772.45
-1772.39
-1772.37
-1772.41
-1772.48
-1772.58
-1772.69
-1772.8
-1772.86
-1772.86
-1772.82
-1772.74
-1772.65
-1772.56
-1772.51
-2802.38
-2802.38
-2802.38
-2802.38
-2802.38
-2802.38
-2802.38
-2802.38
-2802.38
-2802.38
-2802.37
-2802.37
-2802.36
-2802.35
-2802.33
-2802.31
-2802.29
-2802.26
-2802.23
-2802.19
-2802.14
-2802.09
-2802.04
-2801.97
-2801.91
-2801.83
-2801.75
-2801.67
-2801.58
-2801.49
-2801.39
-2801.29
-2801.19
-2801.08
-2800.97
-2800.87
-2800.76
-2800.66
-2800.55
-2800.45
-2800.36
-2800.26
-2800.17
-2800.09
-2800.01
-2799.94
-2799.87
-2799.81
-2799.76
-2799.71
-2799.67
-2799.64
-2799.62
-2799.6
-2799.6
-2799.59
-2799.6
-2799.61
-2799.63
-2799.65
-2799.68
-2799.71
-2799.74
-2799.78
-2799.82
-2799.85
-2799.89
-2799.92
-2799.95
-2799.98
-2800.01
-2800.02
-2800.03
-2800.04
-2800.03
-2800.02
-2799.99
-2799.96
-2799.92
-2799.86
-2799.8
-2799.73
-2799.65
-2799.56
-2799.46
-2799.36
-2799.25
-2799.15
-2799.04
-2798.93
-2798.82
-2798.72
-2798.63
-2798.55
-2798.47
-2798.41
-2798.37
-2798.33
-2798.32
-2798.32
-2798.34
-2798.37
-2798.42
-2798.49
-2798.57
-2798.65
-2798.75
-2798.85
-2798.95
-2799.05
-2799.14
-2799.22
-2799.29
-2799.34
-2799.38
-2799.39
-2799.38
-2799.35
-2799.3
-2799.23
-2799.13
-2799.03
-2798.91
-2798.79
-2798.67
-2798.56
-2798.45
-2798.36
-2798.3
-2798.26
-2798.24
-2798.27
-2798.32
-2798.4
-2798.5
-2798.63
-2798.77
-2798.91
-2799.05
-2799.17
-2799.27
-2799.35
-2799.39
-2799.4
-2799.37
-2799.3
-2799.2
-2799.07
-2798.93
-2798.79
-2798.65
-2798.54
-2798.45
-2798.41
-2798.41
-2798.44
-2798.52
-2798.64
-2798.77
-2798.91
-2799.04
-2799.15
-2799.23
-2799.26
-2799.24
-2799.18
-2799.08
-2798.95
-2798.81
-2798.69
-2798.59
-2798.54
-2798.53
-2798.57
-2798.66
-2798.78
-2798.91
-2799.04
-2799.13
-2799.17
-2799.16
-2799.09
-2798.98
-2798.83
-2798.68
-2798.55
-2798.47
-2798.45
-2798.5
-2798.6
-2798.74
-2798.88
-2799.02
-2799.09
-2799.1
-2799.04
-2798.93
-2798.79
-2798.67
-2798.6
-3711.56
-3711.56
-3711.57
-3711.58
-3711.59
-3711.6
-3711.62
-3711.63
-3711.65
-3711.67
-3711.69
-3711.7
-3711.71
-3711.72
-3711.72
-3711.71
-3711.7
-3711.68
-3711.66
-3711.62
-3711.57
-3711.51
-3711.44
-3711.37
-3711.28
-3711.18
-3711.07
-3710.95
-3710.83
-3710.7
-3710.56
-3710.42
-3710.28
-3710.13
-3709.98
-3709.84
-3709.69
-3709.55
-3709.41
-3709.27
-3709.14
-3709.02
-3708.91
-3708.81
-3708.72
-3708.63
-3708.56
-3708.5
-3708.44
-3708.4
-3708.37
-3708.35
-3708.33
-3708.33
-3708.34
-3708.36
-3708.39
-3708.43
-3708.47
-3708.52
-3708.58
-3708.64
-3708.7
-3708.77
-3708.84
-3708.91
-3708.97
-3709.04
-3709.1
-3709.15
-3709.2
-3709.23
-3709.26
-3709.28
-3709.28
-3709.27
-3709.25
-3709.22
-3709.17
-3709.1
-3709.02
-3708.93
-3708.83
-3708.71
-3708.59
-3708.46
-3708.32
-3708.17
-3708.03
-3707.89
-3707.75
-3707.62
-3707.5
-3707.39
-3707.29
-3707.22
-3707.16
-3707.12
-3707.11
-3707.12
-3707.15
-3707.2
-3707.27
-3707.37
-3707.48
-3707.6
-3707.74
-3707.88
-3708.02
-3708.16
-3708.29
-3708.4
-3708.5
-3708.58
-3708.62
-3708.64
-3708.63
-3708.59
-3708.52
-3708.42
-3708.29
-3708.15
-3707.99
-3707.82
-3707.66
-3707.5
-3707.35
-3707.24
-3707.15
-3707.09
-3707.08
-3707.11
-3707.18
-3707.28
-3707.43
-3707.59
-3707.78
-3707.98
-3708.16
-3708.33
-3708.47
-3708.57
-3708.63
-3708.63
-3708.59
-3708.49
-3708.35
-3708.18
-3707.99
-3707.78
-3707.6
-3707.45
-3707.33
-3707.27
-3707.27
-3707.33
-3707.44
-3707.6
-3707.78
-3707.98
-3708.16
-3708.31
-3708.41
-3708.45
-3708.43
-3708.33
-3708.19
-3708.02
-3707.82
-3707.65
-3707.52
-3707.44
-3707.43
-3707.5
-3707.62
-3707.79
-3707.98
-3708.15
-3708.28
-3708.34
-3708.32
-3708.23
-3708.08
-3707.88
-3707.67
-3707.5
-3707.39
-3707.37
-3707.43
-3707.57
-3707.76
-3707.96
-3708.14
-3708.23
-3708.24
-3708.15
-3708
-3707.81
-3707.64
-3707.54
-4516.89
-4516.9
-4516.91
-4516.94
-4516.97
-4517.01
-4517.06
-4517.12
-4517.18
-4517.24
-4517.3
-4517.36
-4517.42
-4517.47
-4517.51
-4517.54
-4517.55
-4517.55
-4517.54
-4517.51
-4517.46
-4517.39
-4517.3
-4517.2
-4517.07
-4516.93
-4516.78
-4516.61
-4516.43
-4516.24
-4516.04
-4515.84
-4515.64
-4515.43
-4515.22
-4515.02
-4514.82
-4514.63
-4514.45
-4514.27
-4514.11
-4513.96
-4513.82
-4513.69
-4513.57
-4513.47
-4513.39
-4513.32
-4513.27
-4513.23
-4513.2
-4513.19
-4513.2
-4513.22
-4513.26
-4513.3
-4513.36
-4513.43
-4513.51
-4513.6
-4513.7
-4513.8
-4513.91
-4514.02
-4514.13
-4514.24
-4514.34
-4514.44
-4514.54
-4514.62
-4514.7
-4514.76
-4514.81
-4514.84
-4514.86
-4514.85
-4514.83
-4514.79
-4514.73
-4514.66
-4514.56
-4514.44
-4514.31
-4514.16
-4514
-4513.82
-4513.64
-4513.45
-4513.26
-4513.08
-4512.89
-4512.72
-4512.56
-4512.42
-4512.3
-4512.2
-4512.13
-4512.08
-4512.07
-4512.09
-4512.13
-4512.21
-4512.32
-4512.45
-4512.61
-4512.78
-4512.97
-4513.16
-4513.36
-4513.55
-4513.73
-4513.89
-4514.02
-4514.12
-4514.19
-4514.22
-4514.2
-4514.15
-4514.05
-4513.91
-4513.74
-4513.54
-4513.33
-4513.1
-4512.87
-4512.66
-4512.46
-4512.3
-4512.18
-4512.11
-4512.1
-4512.13
-4512.22
-4512.37
-4512.56
-4512.79
-4513.04
-4513.31
-4513.56
-4513.79
-4513.97
-4514.11
-4514.18
-4514.18
-4514.11
-4513.98
-4513.79
-4513.56
-4513.3
-4513.01
-4512.77
-4512.56
-4512.41
-4512.33
-4512.33
-4512.41
-4512.57
-4512.78
-4513.04
-4513.31
-4513.56
-4513.76
-4513.9
-4513.95
-4513.9
-4513.78
-4513.58
-4513.34
-4513.07
-4512.84
-4512.66
-4512.55
-4512.55
-4512.64
-4512.81
-4513.04
-4513.29
-4513.53
-4513.71
-4513.79
-4513.78
-4513.65
-4513.44
-4513.18
-4512.9
-4512.67
-4512.53
-4512.5
-4512.59
-4512.78
-4513.03
-4513.31
-4513.53
-4513.66
-4513.66
-4513.54
-4513.33
-4513.07
-4512.84
-4512.7
-5229.97
-5229.99
-5230.03
-5230.09
-5230.17
-5230.27
-5230.38
-5230.5
-5230.64
-5230.78
-5230.92
-5231.06
-5231.2
-5231.32
-5231.44
-5231.54
-5231.62
-5231.67
-5231.7
-5231.7
-5231.67
-5231.6
-5231.5
-5231.36
-5231.19
-5230.98
-5230.75
-5230.5
-5230.23
-5229.94
-5229.65
-5229.35
-5229.06
-5228.76
-5228.47
-5228.19
-5227.92
-5227.67
-5227.42
-5227.19
-5226.98
-5226.79
-5226.62
-5226.48
-5226.35
-5226.24
-5226.16
-5226.09
-5226.04
-5226.02
-5226.01
-5226.02
-5226.06
-5226.11
-5226.18
-5226.26
-5226.36
-5226.48
-5226.6
-5226.74
-5226.89
-5227.04
-5227.2
-5227.36
-5227.52
-5227.68
-5227.84
-5227.98
-5228.12
-5228.24
-5228.35
-5228.45
-5228.52
-5228.57
-5228.6
-5228.61
-5228.59
-5228.54
-5228.47
-5228.37
-5228.25
-5228.1
-5227.93
-5227.73
-5227.52
-5227.3
-5227.06
-5226.82
-5226.58
-5226.33
-5226.1
-5225.87
-5225.67
-5225.49
-5225.33
-5225.2
-5225.11
-5225.06
-5225.05
-5225.08
-5225.14
-5225.25
-5225.4
-5225.58
-5225.79
-5226.03
-5226.28
-5226.54
-5226.81
-5227.06
-5227.3
-5227.51
-5227.69
-5227.82
-5227.91
-5227.95
-5227.93
-5227.85
-5227.72
-5227.54
-5227.32
-5227.05
-5226.76
-5226.46
-5226.16
-5225.88
-5225.62
-5225.41
-5225.25
-5225.16
-5225.14
-5225.18
-5225.31
-5225.5
-5225.75
-5226.05
-5226.37
-5226.75
-5227.07
-5227.37
-5227.61
-5227.78
-5227.87
-5227.87
-5227.78
-5227.6
-5227.35
-5227.04
-5226.69
-5226.32
-5226
-5225.72
-5225.53
-5225.43
-5225.43
-5225.54
-5225.75
-5226.03
-5226.37
-5226.75
-5227.07
-5227.34
-5227.51
-5227.58
-5227.51
-5227.34
-5227.08
-5226.75
-5226.4
-5226.09
-5225.85
-5225.72
-5225.71
-5225.83
-5226.06
-5226.37
-5226.71
-5227.02
-5227.26
-5227.38
-5227.35
-5227.19
-5226.92
-5226.57
-5226.2
-5225.9
-5225.72
-5225.68
-5225.8
-5226.05
-5226.39
-5226.76
-5227.05
-5227.21
-5227.21
-5227.04
-5226.76
-5226.42
-5226.11
-5225.91
-5861.26
-5861.31
-5861.41
-5861.55
-5861.74
-5861.97
-5862.24
-5862.54
-5862.87
-5863.2
-5863.54
-5863.88
-5864.22
-5864.51
-5864.75
-5864.95
-5865.1
-5865.19
-5865.23
-5865.21
-5865.13
-5865
-5864.81
-5864.56
-5864.27
-5863.92
-5863.54
-5863.13
-5862.71
-5862.27
-5861.84
-5861.41
-5860.99
-5860.58
-5860.19
-5859.82
-5859.47
-5859.15
-5858.85
-5858.57
-5858.33
-5858.1
-5857.91
-5857.73
-5857.59
-5857.47
-5857.39
-5857.32
-5857.29
-5857.28
-5857.3
-5857.34
-5857.41
-5857.5
-5857.61
-5857.74
-5857.89
-5858.06
-5858.24
-5858.44
-5858.65
-5858.86
-5859.08
-5859.3
-5859.52
-5859.74
-5859.95
-5860.15
-5860.34
-5860.51
-5860.66
-5860.79
-5860.89
-5860.97
-5861.01
-5861.02
-5861
-5860.95
-5860.86
-5860.74
-5860.58
-5860.39
-5860.18
-5859.93
-5859.67
-5859.38
-5859.08
-5858.77
-5858.46
-5858.15
-5857.85
-5857.57
-5857.31
-5857.08
-5856.88
-5856.72
-5856.61
-5856.55
-5856.54
-5856.58
-5856.67
-5856.82
-5857.02
-5857.25
-5857.53
-5857.84
-5858.17
-5858.51
-5858.85
-5859.18
-5859.49
-5859.76
-5859.99
-5860.17
-5860.28
-5860.33
-5860.3
-5860.2
-5860.03
-5859.8
-5859.5
-5859.17
-5858.79
-5858.4
-5858.02
-5857.65
-5857.32
-5857.04
-5856.84
-5856.72
-5856.69
-5856.76
-5856.92
-5857.17
-5857.49
-5857.87
-5858.29
-5858.78
-5859.19
-5859.56
-5859.87
-5860.09
-5860.21
-5860.2
-5860.08
-5859.85
-5859.52
-5859.11
-5858.67
-5858.2
-5857.78
-5857.43
-5857.18
-5857.05
-5857.06
-5857.21
-5857.48
-5857.85
-5858.27
-5858.79
-5859.2
-5859.53
-5859.75
-5859.82
-5859.74
-5859.51
-5859.17
-5858.75
-5858.29
-5857.89
-5857.59
-5857.42
-5857.42
-5857.57
-5857.88
-5858.28
-5858.72
-5859.12
-5859.43
-5859.58
-5859.55
-5859.34
-5858.99
-5858.55
-5858.06
-5857.69
-5857.46
-5857.41
-5857.57
-5857.89
-5858.32
-5858.8
-5859.17
-5859.37
-5859.36
-5859.15
-5858.78
-5858.34
-5857.93
-5857.67
-6419.5
-6419.57
-6419.72
-6419.96
-6420.3
-6420.7
-6421.17
-6421.7
-6422.25
-6422.82
-6423.37
-6423.89
-6424.33
-6424.73
-6425.11
-6425.45
-6425.75
-6425.98
-6426.14
-6426.22
-6426.22
-6426.12
-6425.93
-6425.65
-6425.27
-6424.8
-6424.25
-6423.65
-6423.03
-6422.4
-6421.78
-6421.19
-6420.62
-6420.09
-6419.58
-6419.11
-6418.68
-6418.28
-6417.92
-6417.6
-6417.31
-6417.07
-6416.86
-6416.68
-6416.54
-6416.43
-6416.36
-6416.31
-6416.3
-6416.32
-6416.37
-6416.45
-6416.56
-6416.7
-6416.86
-6417.05
-6417.26
-6417.49
-6417.73
-6417.99
-6418.27
-6418.55
-6418.84
-6419.13
-6419.42
-6419.7
-6419.98
-6420.24
-6420.48
-6420.7
-6420.9
-6421.07
-6421.2
-6421.3
-6421.36
-6421.38
-6421.36
-6421.3
-6421.19
-6421.04
-6420.84
-6420.61
-6420.34
-6420.04
-6419.71
-6419.35
-6418.98
-6418.59
-6418.2
-6417.82
-6417.45
-6417.1
-6416.78
-6416.49
-6416.25
-6416.06
-6415.92
-6415.85
-6415.84
-6415.9
-6416.02
-6416.21
-6416.46
-6416.76
-6417.11
-6417.5
-6417.92
-6418.35
-6418.78
-6419.2
-6419.58
-6419.93
-6420.22
-6420.44
-6420.58
-6420.64
-6420.6
-6420.48
-6420.26
-6419.97
-6419.6
-6419.17
-6418.7
-6418.21
-6417.73
-6417.26
-6416.85
-6416.51
-6416.25
-6416.1
-6416.07
-6416.15
-6416.35
-6416.67
-6417.08
-6417.56
-6418.08
-6418.68
-6419.2
-6419.67
-6420.05
-6420.33
-6420.47
-6420.46
-6420.3
-6420
-6419.58
-6419.08
-6418.51
-6417.94
-6417.41
-6416.97
-6416.66
-6416.5
-6416.52
-6416.71
-6417.06
-6417.52
-6418.05
-6418.71
-6419.21
-6419.63
-6419.89
-6419.97
-6419.88
-6419.59
-6419.16
-6418.63
-6418.05
-6417.55
-6417.17
-6416.96
-6416.96
-6417.16
-6417.54
-6418.05
-6418.61
-6419.12
-6419.5
-6419.69
-6419.65
-6419.39
-6418.95
-6418.4
-6417.78
-6417.32
-6417.04
-6416.99
-6417.19
-6417.59
-6418.12
-6418.74
-6419.19
-6419.43
-6419.41
-6419.14
-6418.68
-6418.14
-6417.6
-6417.29
-6913.07
-6913.21
-6913.49
-6913.91
-6914.46
-6915.16
-6916.03
-6917.36
-6918.4
-6919.43
-6920.47
-6921.44
-6922.36
-6923.24
-6924.01
-6924.7
-6925.17
-6925.49
-6925.66
-6925.68
-6925.56
-6925.28
-6924.86
-6924.29
-6923.59
-6922.75
-6921.64
-6920.57
-6919.53
-6918.56
-6917.66
-6916.83
-6916.09
-6915.41
-6914.8
-6914.24
-6913.75
-6913.31
-6912.92
-6912.58
-6912.29
-6912.03
-6911.81
-6911.63
-6911.5
-6911.4
-6911.34
-6911.32
-6911.34
-6911.39
-6911.48
-6911.61
-6911.76
-6911.95
-6912.17
-6912.42
-6912.7
-6912.99
-6913.31
-6913.65
-6914
-6914.35
-6914.72
-6915.09
-6915.45
-6915.8
-6916.15
-6916.47
-6916.78
-6917.05
-6917.3
-6917.51
-6917.68
-6917.8
-6917.88
-6917.91
-6917.88
-6917.81
-6917.68
-6917.49
-6917.26
-6916.98
-6916.65
-6916.28
-6915.87
-6915.44
-6914.98
-6914.52
-6914.04
-6913.58
-6913.13
-6912.7
-6912.31
-6911.96
-6911.67
-6911.44
-6911.28
-6911.2
-6911.19
-6911.27
-6911.42
-6911.66
-6911.97
-6912.34
-6912.78
-6913.26
-6913.77
-6914.3
-6914.83
-6915.34
-6915.82
-6916.24
-6916.59
-6916.86
-6917.03
-6917.1
-6917.06
-6916.9
-6916.64
-6916.27
-6915.82
-6915.29
-6914.72
-6914.12
-6913.52
-6912.96
-6912.45
-6912.03
-6911.72
-6911.54
-6911.5
-6911.6
-6911.86
-6912.24
-6912.74
-6913.33
-6913.98
-6914.69
-6915.33
-6915.9
-6916.37
-6916.7
-6916.87
-6916.86
-6916.66
-6916.29
-6915.78
-6915.15
-6914.46
-6913.76
-6913.12
-6912.58
-6912.2
-6912.02
-6912.05
-6912.29
-6912.72
-6913.29
-6913.96
-6914.72
-6915.35
-6915.86
-6916.18
-6916.28
-6916.15
-6915.79
-6915.26
-6914.61
-6913.9
-6913.29
-6912.82
-6912.57
-6912.57
-6912.82
-6913.3
-6913.92
-6914.61
-6915.23
-6915.69
-6915.92
-6915.87
-6915.56
-6915.02
-6914.37
-6913.58
-6913.04
-6912.7
-6912.65
-6912.89
-6913.39
-6914.02
-6914.81
-6915.33
-6915.61
-6915.58
-6915.25
-6914.69
-6914.02
-6913.35
-6912.99
-7348.21
-7348.41
-7348.81
-7349.45
-7350.33
-7351.52
-7353.02
-7354.98
-7357.48
-7359.6
-7361.37
-7362.83
-7364.03
-7364.99
-7365.75
-7366.33
-7366.9
-7367.33
-7367.6
-7367.71
-7367.63
-7367.36
-7366.92
-7366.27
-7365.39
-7364.24
-7362.66
-7360.41
-7358.79
-7357.46
-7356.3
-7355.37
-7354.54
-7353.81
-7353.13
-7352.53
-7352
-7351.54
-7351.13
-7350.78
-7350.47
-7350.23
-7350.03
-7349.88
-7349.76
-7349.69
-7349.66
-7349.67
-7349.72
-7349.82
-7349.95
-7350.12
-7350.33
-7350.58
-7350.86
-7351.18
-7351.52
-7351.89
-7352.29
-7352.7
-7353.13
-7353.57
-7354.01
-7354.46
-7354.9
-7355.34
-7355.75
-7356.15
-7356.52
-7356.85
-7357.15
-7357.4
-7357.6
-7357.76
-7357.85
-7357.89
-7357.86
-7357.77
-7357.61
-7357.39
-7357.11
-7356.78
-7356.38
-7355.94
-7355.46
-7354.94
-7354.4
-7353.84
-7353.28
-7352.72
-7352.18
-7351.68
-7351.21
-7350.8
-7350.46
-7350.19
-7350
-7349.9
-7349.9
-7350
-7350.19
-7350.47
-7350.85
-7351.3
-7351.82
-7352.4
-7353.02
-7353.66
-7354.29
-7354.9
-7355.47
-7355.98
-7356.4
-7356.72
-7356.93
-7357.01
-7356.95
-7356.76
-7356.44
-7356
-7355.46
-7354.83
-7354.14
-7353.42
-7352.71
-7352.03
-7351.43
-7350.93
-7350.56
-7350.34
-7350.29
-7350.42
-7350.73
-7351.19
-7351.79
-7352.5
-7353.28
-7354.11
-7354.87
-7355.56
-7356.12
-7356.51
-7356.71
-7356.69
-7356.45
-7356.01
-7355.39
-7354.64
-7353.81
-7352.97
-7352.2
-7351.57
-7351.12
-7350.9
-7350.94
-7351.23
-7351.75
-7352.45
-7353.26
-7354.15
-7354.91
-7355.52
-7355.9
-7356.02
-7355.85
-7355.42
-7354.77
-7353.99
-7353.15
-7352.41
-7351.86
-7351.56
-7351.56
-7351.87
-7352.44
-7353.18
-7354.02
-7354.76
-7355.31
-7355.58
-7355.52
-7355.14
-7354.5
-7353.72
-7352.79
-7352.14
-7351.74
-7351.69
-7351.98
-7352.57
-7353.32
-7354.27
-7354.88
-7355.21
-7355.18
-7354.78
-7354.11
-7353.29
-7352.51
-7352.08
-7731.68
-7731.91
-7732.4
-7733.19
-7734.34
-7735.95
-7738.2
-7740.72
-7744.3
-7747.32
-7749.97
-7752.37
-7754.53
-7756.44
-7758.04
-7759.3
-7760.23
-7760.87
-7761.25
-7761.35
-7761.19
-7760.74
-7759.96
-7758.81
-7757.32
-7755.53
-7753.4
-7749.23
-7747.29
-7745.75
-7744.51
-7743.28
-7742.31
-7741.51
-7740.9
-7740.36
-7739.88
-7739.46
-7739.09
-7738.78
-7738.52
-7738.28
-7738.08
-7737.94
-7737.85
-7737.8
-7737.8
-7737.84
-7737.93
-7738.07
-7738.25
-7738.47
-7738.74
-7739.05
-7739.4
-7739.78
-7740.2
-7740.64
-7741.12
-7741.61
-7742.12
-7742.65
-7743.18
-7743.71
-7744.23
-7744.74
-7745.24
-7745.7
-7746.14
-7746.53
-7746.88
-7747.18
-7747.42
-7747.6
-7747.71
-7747.76
-7747.72
-7747.62
-7747.44
-7747.18
-7746.85
-7746.45
-7745.99
-7745.48
-7744.91
-7744.3
-7743.67
-7743.02
-7742.36
-7741.71
-7741.08
-7740.49
-7739.95
-7739.47
-7739.07
-7738.75
-7738.54
-7738.43
-7738.43
-7738.55
-7738.78
-7739.12
-7739.56
-7740.1
-7740.71
-7741.39
-7742.12
-7742.87
-7743.62
-7744.33
-7745
-7745.6
-7746.09
-7746.46
-7746.7
-7746.79
-7746.73
-7746.5
-7746.13
-7745.61
-7744.97
-7744.23
-7743.42
-7742.58
-7741.74
-7740.95
-7740.24
-7739.65
-7739.22
-7738.97
-7738.91
-7739.07
-7739.43
-7739.97
-7740.68
-7741.51
-7742.42
-7743.38
-7744.28
-7745.09
-7745.74
-7746.2
-7746.42
-7746.4
-7746.11
-7745.59
-7744.86
-7743.98
-7743.01
-7742.02
-7741.13
-7740.38
-7739.86
-7739.61
-7739.66
-7740.01
-7740.63
-7741.46
-7742.41
-7743.44
-7744.33
-7745.05
-7745.5
-7745.63
-7745.43
-7744.91
-7744.15
-7743.23
-7742.23
-7741.37
-7740.72
-7740.37
-7740.38
-7740.75
-7741.42
-7742.3
-7743.28
-7744.15
-7744.79
-7745.11
-7745.04
-7744.59
-7743.83
-7742.91
-7741.86
-7741.09
-7740.63
-7740.56
-7740.92
-7741.61
-7742.5
-7743.57
-7744.29
-7744.68
-7744.63
-7744.16
-7743.38
-7742.39
-7741.51
-7741.01
-8069.82
-8069.94
-8070.18
-8070.52
-8070.9
-8071.26
-8071.31
-8071.81
-8087.83
-8087.33
-8086.93
-8086.31
-8085.81
-8085.26
-8084.75
-8084.22
-8083.74
-8083.31
-8082.93
-8082.59
-8082.3
-8082.05
-8081.84
-8081.68
-8081.56
-8081.5
-8081.48
-8081.51
-8081.59
-8081.72
-8081.9
-8082.12
-8082.4
-8082.73
-8083.1
-8083.51
-8083.96
-8084.45
-8084.98
-8085.53
-8086.11
-8086.71
-8087.32
-8087.93
-8088.55
-8089.16
-8089.75
-8090.32
-8090.86
-8091.36
-8091.82
-8092.23
-8092.57
-8092.85
-8093.06
-8093.18
-8093.23
-8093.19
-8093.07
-8092.86
-8092.57
-8092.19
-8091.73
-8091.2
-8090.6
-8089.95
-8089.25
-8088.52
-8087.77
-8087.01
-8086.26
-8085.54
-8084.86
-8084.24
-8083.7
-8083.24
-8082.88
-8082.64
-8082.52
-8082.52
-8082.66
-8082.93
-8083.33
-8083.84
-8084.46
-8085.17
-8085.96
-8086.8
-8087.67
-8088.53
-8089.36
-8090.13
-8090.81
-8091.38
-8091.81
-8092.08
-8092.18
-8092.1
-8091.84
-8091.41
-8090.81
-8090.06
-8089.21
-8088.28
-8087.31
-8086.34
-8085.43
-8084.61
-8083.94
-8083.44
-8083.15
-8083.1
-8083.28
-8083.69
-8084.32
-8085.14
-8086.1
-8087.15
-8088.25
-8089.28
-8090.2
-8090.96
-8091.48
-8091.74
-8091.7
-8091.37
-8090.76
-8089.92
-8088.9
-8087.79
-8086.65
-8085.62
-8084.77
-8084.17
-8083.89
-8083.95
-8084.36
-8085.08
-8086.04
-8087.14
-8088.32
-8089.35
-8090.17
-8090.68
-8090.83
-8090.59
-8089.99
-8089.1
-8088.04
-8086.9
-8085.91
-8085.16
-8084.76
-8084.78
-8085.2
-8085.98
-8086.99
-8088.13
-8089.12
-8089.87
-8090.23
-8090.14
-8089.62
-8088.75
-8087.68
-8086.5
-8085.62
-8085.08
-8085.01
-8085.42
-8086.23
-8087.26
-8088.45
-8089.29
-8089.74
-8089.68
-8089.13
-8088.24
-8087.07
-8086.08
-8085.51
-8368.26
-8368.29
-8368.35
-8368.42
-8368.5
-8368.59
-8368.7
-8368.98
-8390.8
-8390.45
-8390.16
-8389.8
-8389.36
-8388.96
-8388.55
-8388.14
-8387.75
-8387.39
-8387.05
-8386.75
-8386.49
-8386.27
-8386.09
-8385.95
-8385.86
-8385.82
-8385.83
-8385.89
-8386
-8386.17
-8386.39
-8386.67
-8387
-8387.38
-8387.81
-8388.29
-8388.82
-8389.38
-8389.98
-8390.62
-8391.28
-8391.96
-8392.66
-8393.36
-8394.06
-8394.75
-8395.43
-8396.08
-8396.69
-8397.26
-8397.78
-8398.24
-8398.63
-8398.95
-8399.18
-8399.33
-8399.38
-8399.33
-8399.19
-8398.95
-8398.62
-8398.19
-8397.67
-8397.07
-8396.39
-8395.65
-8394.86
-8394.03
-8393.18
-8392.32
-8391.48
-8390.66
-8389.89
-8389.19
-8388.58
-8388.06
-8387.66
-8387.39
-8387.25
-8387.27
-8387.43
-8387.73
-8388.19
-8388.77
-8389.48
-8390.29
-8391.18
-8392.13
-8393.13
-8394.1
-8395.04
-8395.91
-8396.68
-8397.33
-8397.81
-8398.12
-8398.24
-8398.14
-8397.85
-8397.35
-8396.66
-8395.82
-8394.85
-8393.8
-8392.69
-8391.6
-8390.57
-8389.64
-8388.88
-8388.32
-8387.99
-8387.93
-8388.14
-8388.61
-8389.33
-8390.26
-8391.35
-8392.53
-8393.78
-8394.94
-8395.99
-8396.83
-8397.43
-8397.71
-8397.67
-8397.29
-8396.6
-8395.64
-8394.48
-8393.22
-8391.94
-8390.77
-8389.8
-8389.13
-8388.81
-8388.89
-8389.37
-8390.19
-8391.28
-8392.53
-8393.86
-8395.02
-8395.95
-8396.54
-8396.7
-8396.42
-8395.73
-8394.72
-8393.51
-8392.22
-8391.09
-8390.25
-8389.8
-8389.82
-8390.31
-8391.19
-8392.33
-8393.64
-8394.76
-8395.6
-8396.01
-8395.91
-8395.31
-8394.32
-8393.11
-8391.79
-8390.79
-8390.19
-8390.11
-8390.58
-8391.5
-8392.67
-8394
-8394.95
-8395.45
-8395.38
-8394.76
-8393.76
-8392.4
-8391.31
-8390.67
-8632.69
-8632.72
-8632.77
-8632.87
-8633
-8633.16
-8633.28
-8633.45
-8659.32
-8659.13
-8658.94
-8658.69
-8658.38
-8658.04
-8657.7
-8657.35
-8657.01
-8656.69
-8656.39
-8656.12
-8655.88
-8655.68
-8655.52
-8655.41
-8655.34
-8655.32
-8655.35
-8655.44
-8655.59
-8655.79
-8656.06
-8656.38
-8656.76
-8657.19
-8657.69
-8658.23
-8658.82
-8659.46
-8660.14
-8660.86
-8661.6
-8662.37
-8663.15
-8663.94
-8664.72
-8665.5
-8666.25
-8666.98
-8667.67
-8668.31
-8668.89
-8669.4
-8669.84
-8670.19
-8670.45
-8670.61
-8670.67
-8670.62
-8670.46
-8670.19
-8669.81
-8669.33
-8668.75
-8668.07
-8667.32
-8666.49
-8665.61
-8664.68
-8663.73
-8662.77
-8661.83
-8660.92
-8660.06
-8659.28
-8658.6
-8658.02
-8657.58
-8657.28
-8657.13
-8657.15
-8657.33
-8657.68
-8658.19
-8658.85
-8659.64
-8660.55
-8661.55
-8662.61
-8663.73
-8664.82
-8665.87
-8666.84
-8667.7
-8668.42
-8668.96
-8669.3
-8669.43
-8669.32
-8668.99
-8668.43
-8667.66
-8666.72
-8665.63
-8664.45
-8663.22
-8662
-8660.84
-8659.81
-8658.96
-8658.33
-8657.97
-8657.9
-8658.14
-8658.67
-8659.48
-8660.52
-8661.73
-8663.06
-8664.44
-8665.75
-8666.91
-8667.85
-8668.51
-8668.83
-8668.78
-8668.35
-8667.57
-8666.5
-8665.2
-8663.79
-8662.36
-8661.05
-8659.97
-8659.22
-8658.88
-8658.97
-8659.51
-8660.44
-8661.66
-8663.06
-8664.54
-8665.84
-8666.88
-8667.53
-8667.71
-8667.39
-8666.61
-8665.47
-8664.11
-8662.67
-8661.42
-8660.47
-8659.98
-8660.01
-8660.56
-8661.55
-8662.82
-8664.3
-8665.54
-8666.48
-8666.93
-8666.81
-8666.14
-8665.03
-8663.68
-8662.23
-8661.11
-8660.44
-8660.36
-8660.89
-8661.92
-8663.23
-8664.68
-8665.75
-8666.31
-8666.22
-8665.52
-8664.4
-8662.88
-8661.68
-8660.97
-8866.85
-8866.86
-8866.89
-8866.94
-8866.98
-8867.01
-8866.99
-8866.97
-8897.39
-8897.27
-8897.12
-8896.93
-8896.68
-8896.4
-8896.11
-8895.81
-8895.51
-8895.21
-8894.94
-8894.69
-8894.47
-8894.28
-8894.13
-8894.03
-8893.98
-8893.98
-8894.04
-8894.15
-8894.33
-8894.57
-8894.87
-8895.24
-8895.66
-8896.15
-8896.71
-8897.31
-8897.97
-8898.68
-8899.44
-8900.23
-8901.06
-8901.9
-8902.77
-8903.64
-8904.51
-8905.37
-8906.2
-8907.01
-8907.77
-8908.47
-8909.11
-8909.68
-8910.16
-8910.54
-8910.83
-8911
-8911.06
-8911.01
-8910.83
-8910.53
-8910.11
-8909.58
-8908.94
-8908.19
-8907.36
-8906.44
-8905.47
-8904.44
-8903.39
-8902.34
-8901.3
-8900.3
-8899.36
-8898.5
-8897.74
-8897.11
-8896.63
-8896.3
-8896.14
-8896.16
-8896.37
-8896.76
-8897.32
-8898.06
-8898.93
-8899.94
-8901.04
-8902.21
-8903.46
-8904.66
-8905.81
-8906.88
-8907.83
-8908.62
-8909.22
-8909.6
-8909.73
-8909.61
-8909.24
-8908.62
-8907.77
-8906.73
-8905.53
-8904.22
-8902.86
-8901.51
-8900.24
-8899.1
-8898.16
-8897.48
-8897.08
-8897.01
-8897.27
-8897.86
-8898.75
-8899.9
-8901.24
-8902.71
-8904.23
-8905.66
-8906.94
-8907.98
-8908.71
-8909.05
-8908.99
-8908.52
-8907.65
-8906.46
-8905.04
-8903.47
-8901.9
-8900.46
-8899.27
-8898.45
-8898.07
-8898.18
-8898.78
-8899.81
-8901.16
-8902.71
-8904.34
-8905.78
-8906.92
-8907.63
-8907.82
-8907.46
-8906.6
-8905.33
-8903.83
-8902.25
-8900.86
-8899.82
-8899.28
-8899.32
-8899.93
-8901.03
-8902.42
-8904.07
-8905.43
-8906.46
-8906.96
-8906.83
-8906.09
-8904.86
-8903.36
-8901.78
-8900.55
-8899.81
-8899.72
-8900.31
-8901.45
-8902.91
-8904.48
-8905.66
-8906.27
-8906.18
-8905.39
-8904.15
-8902.49
-8901.18
-8900.39
-9074.24
-9074.25
-9074.27
-9074.29
-9074.31
-9074.32
-9074.32
-9074.33
-9108.44
-9108.36
-9108.23
-9108.06
-9107.84
-9107.59
-9107.33
-9107.05
-9106.76
-9106.49
-9106.22
-9105.98
-9105.77
-9105.59
-9105.46
-9105.37
-9105.33
-9105.34
-9105.42
-9105.56
-9105.76
-9106.03
-9106.37
-9106.78
-9107.25
-9107.79
-9108.4
-9109.07
-9109.8
-9110.57
-9111.4
-9112.27
-9113.17
-9114.1
-9115.04
-9116
-9116.95
-9117.88
-9118.8
-9119.67
-9120.5
-9121.27
-9121.97
-9122.58
-9123.11
-9123.53
-9123.83
-9124.02
-9124.09
-9124.03
-9123.83
-9123.5
-9123.04
-9122.46
-9121.76
-9120.94
-9120.03
-9119.03
-9117.97
-9116.85
-9115.71
-9114.56
-9113.42
-9112.33
-9111.3
-9110.37
-9109.55
-9108.87
-9108.34
-9107.98
-9107.81
-9107.84
-9108.07
-9108.5
-9109.12
-9109.92
-9110.88
-9111.98
-9113.19
-9114.46
-9115.83
-9117.13
-9118.39
-9119.56
-9120.6
-9121.46
-9122.11
-9122.52
-9122.66
-9122.53
-9122.12
-9121.44
-9120.51
-9119.37
-9118.06
-9116.63
-9115.15
-9113.68
-9112.29
-9111.05
-9110.03
-9109.28
-9108.85
-9108.77
-9109.06
-9109.7
-9110.68
-9111.94
-9113.4
-9115
-9116.66
-9118.22
-9119.62
-9120.75
-9121.53
-9121.91
-9121.84
-9121.31
-9120.37
-9119.07
-9117.51
-9115.8
-9114.08
-9112.52
-9111.22
-9110.33
-9109.92
-9110.05
-9110.7
-9111.83
-9113.32
-9115.01
-9116.78
-9118.35
-9119.6
-9120.37
-9120.58
-9120.18
-9119.22
-9117.84
-9116.2
-9114.47
-9112.96
-9111.83
-9111.23
-9111.28
-9111.96
-9113.16
-9114.67
-9116.49
-9117.96
-9119.09
-9119.63
-9119.48
-9118.67
-9117.33
-9115.69
-9113.99
-9112.64
-9111.84
-9111.74
-9112.39
-9113.64
-9115.23
-9116.93
-9118.21
-9118.88
-9118.77
-9117.91
-9116.53
-9114.75
-9113.32
-9112.47
-9257.95
-9257.95
-9257.96
-9257.98
-9257.99
-9258
-9258
-9258.01
-9295.47
-9295.41
-9295.29
-9295.13
-9294.94
-9294.7
-9294.44
-9294.17
-9293.9
-9293.63
-9293.37
-9293.13
-9292.92
-9292.75
-9292.62
-9292.53
-9292.5
-9292.53
-9292.62
-9292.78
-9293.01
-9293.31
-9293.68
-9294.13
-9294.64
-9295.23
-9295.89
-9296.62
-9297.41
-9298.25
-9299.15
-9300.09
-9301.07
-9302.07
-9303.09
-9304.12
-9305.15
-9306.16
-9307.15
-9308.09
-9308.99
-9309.82
-9310.57
-9311.24
-9311.8
-9312.25
-9312.58
-9312.79
-9312.86
-9312.78
-9312.57
-9312.21
-9311.72
-9311.09
-9310.32
-9309.44
-9308.46
-9307.38
-9306.22
-9305.02
-9303.78
-9302.54
-9301.32
-9300.14
-9299.03
-9298.02
-9297.14
-9296.4
-9295.84
-9295.45
-9295.28
-9295.31
-9295.56
-9296.03
-9296.7
-9297.57
-9298.61
-9299.8
-9301.1
-9302.48
-9303.96
-9305.37
-9306.73
-9307.99
-9309.11
-9310.04
-9310.74
-9311.18
-9311.34
-9311.19
-9310.74
-9310
-9309
-9307.77
-9306.35
-9304.81
-9303.2
-9301.61
-9300.11
-9298.78
-9297.67
-9296.86
-9296.4
-9296.32
-9296.64
-9297.33
-9298.39
-9299.75
-9301.34
-9303.06
-9304.85
-9306.53
-9308.04
-9309.26
-9310.1
-9310.51
-9310.43
-9309.86
-9308.84
-9307.43
-9305.74
-9303.9
-9302.04
-9300.35
-9298.95
-9297.99
-9297.55
-9297.69
-9298.41
-9299.63
-9301.25
-9303.08
-9304.98
-9306.68
-9308.03
-9308.86
-9309.08
-9308.64
-9307.6
-9306.1
-9304.32
-9302.46
-9300.83
-9299.6
-9298.97
-9299.02
-9299.76
-9301.07
-9302.71
-9304.66
-9306.25
-9307.46
-9308.05
-9307.89
-9307
-9305.55
-9303.78
-9301.96
-9300.51
-9299.64
-9299.54
-9300.25
-9301.6
-9303.32
-9305.13
-9306.51
-9307.24
-9307.12
-9306.18
-9304.67
-9302.79
-9301.24
-9300.32
-9420.68
-9420.68
-9420.69
-9420.7
-9420.71
-9420.72
-9420.72
-9420.74
-9461.22
-9461.17
-9461.04
-9460.89
-9460.7
-9460.47
-9460.21
-9459.94