/*--------------------------------*- C++ -*----------------------------------*\
  =========                 |
  \\      /  F ield         | OpenFOAM: The Open Source CFD Toolbox
   \\    /   O peration     | Website:  https://openfoam.org
    \\  /    A nd           | Version:  12
     \\/     M anipulation  |
\*---------------------------------------------------------------------------*/
FoamFile
{
    format      ascii;
    class       surfaceScalarField;
    location    "7.88";
    object      phi;
}
// * * * * * * * * * * * * * * * * * * * * * * * * * * * * * * * * * * * * * //

dimensions      [1 0 -1 0 0 0 0];

internalField   nonuniform List<scalar> 
7429
(
0.000215853
-0.000215853
0.000434943
-0.00021909
0.000657587
-0.000222644
0.000884328
-0.00022674
0.00111571
-0.000231382
0.00135226
-0.000236546
0.00159443
-0.000242168
0.00184263
-0.000248208
0.00209721
-0.000254571
0.00235839
-0.000261182
0.00262624
-0.000267856
0.00290074
-0.000274497
0.00318176
-0.000281013
0.00346888
-0.000287127
0.00376169
-0.000292805
0.00405944
-0.000297748
0.00436119
-0.00030175
0.00466597
-0.000304785
0.0049728
-0.000306829
0.00528036
-0.000307554
0.00558716
-0.000306805
0.00589165
-0.000304485
0.0061922
-0.00030055
0.00648693
-0.000294737
0.00677396
-0.000287022
0.00705127
-0.000277318
0.00731697
-0.000265691
0.00756907
-0.000252109
0.00780575
-0.000236671
0.00802491
-0.000219166
0.00822461
-0.000199701
0.00840305
-0.000178435
0.00855847
-0.000155427
0.0086893
-0.000130826
0.00879416
-0.000104861
0.0088719
-7.77347e-05
0.0089218
-4.9901e-05
0.00894382
-2.20197e-05
0.00893711
6.70401e-06
0.00890086
3.62593e-05
0.0088347
6.61558e-05
0.00873861
9.60912e-05
0.00861285
0.00012576
0.00845789
0.000154957
0.00827444
0.000183453
0.00806339
0.00021105
0.00782581
0.000237579
0.00756296
0.000262849
0.00727628
0.000286684
0.00696738
0.000308892
0.00663807
0.000329311
0.00629034
0.000347737
0.00592635
0.000363982
0.00554846
0.000377893
0.00515913
0.000389336
0.00476095
0.000398171
0.00435698
0.000403971
0.00394977
0.000407208
0.00354275
0.000407028
0.00313851
0.000404235
0.00274062
0.000397894
0.00235205
0.000388567
0.00197612
0.000375926
0.00161594
0.00036018
0.00127461
0.000341332
0.000955058
0.000319553
0.000660007
0.000295052
0.000392328
0.000267679
0.00015409
0.000238238
-5.24807e-05
0.000206571
-0.00022568
0.000173199
-0.000364065
0.000138385
-0.000466696
0.00010263
-0.00053292
6.62236e-05
-0.000563201
3.02815e-05
-0.000555359
-7.84245e-06
-0.00051167
-4.36884e-05
-0.00043436
-7.73097e-05
-0.000325655
-0.000108706
-0.000188212
-0.000137443
-2.49152e-05
-0.000163297
0.000160596
-0.000185512
0.000364544
-0.000203948
0.000581874
-0.00021733
0.000807786
-0.000225912
0.00103707
-0.000229288
0.00126425
-0.000227175
0.00148391
-0.00021966
0.00169059
-0.000206686
0.00187904
-0.00018845
0.00204423
-0.000165182
0.00218152
-0.000137293
0.00228672
-0.000105203
0.00235676
-7.00334e-05
0.00238901
-3.22501e-05
0.00237797
1.10326e-05
0.0023234
5.45716e-05
0.00222735
9.60498e-05
0.00209189
0.000135466
0.00191961
0.000172277
0.00171379
0.000205819
0.00147869
0.000235098
0.00121979
0.000258898
0.000943375
0.000276418
0.000656346
0.000287029
0.000366504
0.000289842
8.16167e-05
0.000284887
-0.000190449
0.000272066
-0.00044181
0.000251361
-0.00066523
0.00022342
-0.000854185
0.000188955
-0.00100312
0.000148931
-0.00110787
0.000104756
-0.00116594
5.80707e-05
-0.00117599
1.00454e-05
-0.00113469
-4.12991e-05
-0.00104822
-8.6466e-05
-0.000921058
-0.000127165
-0.000758745
-0.000162313
-0.000568488
-0.000190257
-0.000358622
-0.000209865
-0.000138612
-0.000220011
8.17198e-05
-0.000220332
0.000292467
-0.000210747
0.000484069
-0.000191603
0.000648006
-0.000163937
0.000777032
-0.000129026
0.00086575
-8.87176e-05
0.000910937
-4.51874e-05
0.000910505
4.32355e-07
0.000864472
4.60322e-05
0.000779266
8.52065e-05
0.000660531
0.000118735
0.000516196
0.000144335
0.000355415
0.000160781
0.000188595
0.000166821
2.62636e-05
0.000162331
-0.000121359
0.000147623
-0.000245364
0.000124005
-0.000338614
9.32502e-05
-0.000396218
5.76037e-05
-0.000416397
2.01784e-05
-0.000397118
-1.92788e-05
-0.000344211
-5.29065e-05
-0.000263839
-8.03724e-05
-0.000164209
-9.96294e-05
-5.47034e-05
-0.000109506
5.39867e-05
-0.00010869
0.000151645
-9.76587e-05
0.000229035
-7.73892e-05
0.000278754
-4.97193e-05
0.000296085
-1.73315e-05
0.000276348
1.97378e-05
0.000222023
5.43241e-05
0.000137598
8.44257e-05
2.90831e-05
0.000108515
-9.51852e-05
0.000124268
-0.000225715
0.00013053
-0.000352107
0.000126391
-0.000464885
0.000112779
-0.000555245
9.03601e-05
-0.000616761
6.1516e-05
-0.000645052
2.82903e-05
-0.000637461
-7.59068e-06
-0.000595683
-4.17777e-05
-0.000523621
-7.20626e-05
-0.000426843
-9.67775e-05
-0.000312699
-0.000114144
-0.000189454
-0.000123245
-6.56995e-05
-0.000123754
5.03806e-05
-0.00011608
0.000151574
-0.000101193
0.000232204
-8.06301e-05
0.000288488
-5.62843e-05
0.000318586
-3.00976e-05
0.000322858
-4.27204e-06
0.000303043
1.98151e-05
0.000263228
3.98149e-05
0.000208266
5.49616e-05
0.000143838
6.44286e-05
7.5881e-05
6.79565e-05
1.01551e-05
6.57258e-05
-4.81941e-05
5.83493e-05
-9.52314e-05
4.70372e-05
-0.000128069
3.28381e-05
-0.000145382
1.73125e-05
-0.000147021
1.63909e-06
-0.000134442
-1.25792e-05
-0.000110206
-2.42356e-05
-7.78043e-05
-3.24019e-05
-4.11304e-05
-3.66739e-05
-4.11651e-06
-3.70139e-05
2.88674e-05
-3.29839e-05
5.46957e-05
-2.58283e-05
7.08376e-05
-1.6142e-05
7.59181e-05
-5.08044e-06
6.95532e-05
6.36488e-06
5.3041e-05
1.65122e-05
2.87396e-05
2.43014e-05
2.87396e-05
0.000181024
-0.000396876
0.00036607
-0.000404136
0.000555328
-0.000411901
0.000749766
-0.000421177
0.000950565
-0.000432181
0.00115882
-0.000444799
0.00137564
-0.000458993
0.00160205
-0.000474613
0.00183889
-0.00049141
0.00208686
-0.000509151
0.00234639
-0.000527385
0.00261771
-0.000545825
0.00290087
-0.000564166
0.00319557
-0.000581826
0.00350127
-0.000598503
0.00381721
-0.000613695
0.00414231
-0.000626845
0.00447508
-0.000637555
0.00481361
-0.000645359
0.00515585
-0.000649795
0.00549954
-0.000650493
0.00584216
-0.000647101
0.00618098
-0.00063938
0.00651323
-0.000626985
0.00683613
-0.000609916
0.00714676
-0.000587954
0.0074423
-0.000561227
0.00771997
-0.000529783
0.00797722
-0.000493914
0.00821185
-0.000453799
0.00842188
-0.000409726
0.00860564
-0.000362193
0.0087617
-0.000311488
0.00888898
-0.000258107
0.00898673
-0.00020261
0.0090543
-0.000145304
0.0090915
-8.71077e-05
0.00909859
-2.91046e-05
0.00906853
3.67643e-05
0.00900248
0.000102312
0.00890263
0.000166005
0.0087706
0.000228123
0.00860776
0.000288599
0.00841528
0.000347429
0.0081943
0.000404437
0.00794604
0.000459312
0.00767173
0.000511893
0.00737285
0.000561729
0.00705096
0.000608571
0.00670789
0.000651956
0.00634553
0.000691675
0.00596602
0.000727251
0.00557162
0.000758375
0.0051648
0.000784714
0.00474814
0.000806
0.00432449
0.000821815
0.00389696
0.000831503
0.00346818
0.000835987
0.00304166
0.000833553
0.00262044
0.000825455
0.00220787
0.000810469
0.00180708
0.000789354
0.00142145
0.000761557
0.00105439
0.000727238
0.00070882
0.000686902
0.000387937
0.000640436
9.43238e-05
0.000588665
-0.000169365
0.000531367
-0.000400178
0.000469051
-0.000596222
0.000402615
-0.000755522
0.000332499
-0.000877078
0.000259941
-0.000959644
0.000185196
-0.00100315
0.000109734
-0.00100714
3.42715e-05
-0.000970931
-4.40562e-05
-0.000897796
-0.000116823
-0.000789191
-0.000185915
-0.000647433
-0.000250463
-0.00047526
-0.000309616
-0.000276311
-0.000362246
-5.48907e-05
-0.000406932
0.000184109
-0.000442947
0.000436259
-0.00046948
0.000696034
-0.000485687
0.00095783
-0.000491083
0.00121569
-0.000485037
0.00146366
-0.000467628
0.00169584
-0.000438871
0.00190639
-0.000398994
0.00209012
-0.000348918
0.00224204
-0.000289213
0.00235757
-0.000220728
0.00243361
-0.000146078
0.00246748
-6.61169e-05
0.0024537
2.48152e-05
0.00239375
0.000114517
0.00228923
0.00020057
0.00214178
0.000282915
0.00195408
0.000359983
0.00172999
0.000429908
0.00147459
0.000490498
0.00119415
0.000539336
0.000895611
0.000574957
0.000586939
0.000595702
0.000276359
0.000600422
-2.73945e-05
0.000588641
-0.000315657
0.000560329
-0.000580111
0.000515815
-0.000812939
0.000456249
-0.00100723
0.000383247
-0.0011572
0.0002989
-0.00125834
0.000205897
-0.0013083
0.000108029
-0.0013042
5.95011e-06
-0.00124779
-9.77092e-05
-0.0011432
-0.000191062
-0.000994971
-0.000275391
-0.000809725
-0.000347559
-0.000595456
-0.000404526
-0.000361971
-0.00044335
-0.000119386
-0.000462595
0.000121207
-0.000460924
0.000349156
-0.000438696
0.000554009
-0.000396455
0.000726698
-0.000336626
0.000859674
-0.000262002
0.000947369
-0.000176413
0.000987069
-8.4887e-05
0.000975148
1.23531e-05
0.000916342
0.000104838
0.000814953
0.000186595
0.000677978
0.00025571
0.000514325
0.000307988
0.000334771
0.000340335
0.00015063
0.000350961
-2.61548e-05
0.000339116
-0.000184834
0.000306302
-0.000315519
0.000254689
-0.000410762
0.000188493
-0.000465674
0.000112516
-0.000478557
3.30613e-05
-0.000448884
-4.89521e-05
-0.000382746
-0.000119044
-0.00028721
-0.000175908
-0.000171397
-0.000215443
-4.66172e-05
-0.000234286
7.60574e-05
-0.000231365
0.000185066
-0.000206668
0.000270662
-0.000162985
0.000325082
-0.000104139
0.000343341
-3.559e-05
0.000322151
4.09275e-05
0.000264276
0.000112199
0.000174147
0.000174555
5.89224e-05
0.000223739
-7.22381e-05
0.000255429
-0.000208918
0.00026721
-0.000340339
0.000257812
-0.000456292
0.000228732
-0.000548147
0.000182215
-0.000609281
0.00012265
-0.000635649
5.46582e-05
-0.000625414
-1.78253e-05
-0.000580794
-8.63972e-05
-0.00050582
-0.000147038
-0.000406698
-0.000195899
-0.000291133
-0.00022971
-0.000167703
-0.000246675
-4.51631e-05
-0.000246294
6.83322e-05
-0.000229575
0.000165886
-0.000198746
0.00024211
-0.000156855
0.000293516
-0.00010769
0.000318858
-5.54397e-05
0.000318559
-3.97291e-06
0.000295285
4.30891e-05
0.000252742
8.23582e-05
0.000196217
0.000111486
0.000131517
0.000129128
6.42615e-05
0.000135212
9.77219e-08
0.00012989
-5.62007e-05
0.000114648
-0.000100656
9.14926e-05
-0.000130964
6.31458e-05
-0.000145688
3.20363e-05
-0.000145209
1.16078e-06
-0.0001311
-2.66888e-05
-0.000105871
-4.94638e-05
-7.2995e-05
-6.52784e-05
-3.62458e-05
-7.34231e-05
-5.47821e-08
-7.32049e-05
3.22075e-05
-6.52461e-05
5.71591e-05
-5.07799e-05
7.24624e-05
-3.14452e-05
7.67297e-05
-9.34772e-06
6.99051e-05
1.31895e-05
5.31334e-05
3.32839e-05
2.87251e-05
4.87097e-05
5.74647e-05
7.39674e-05
-0.000470843
0.00015127
-0.000481439
0.000234843
-0.000495474
0.000327716
-0.00051405
0.000432606
-0.000537071
0.000552324
-0.000564516
0.000689479
-0.000596147
0.000846425
-0.000631558
0.00102518
-0.000670162
0.00122704
-0.000711012
0.00145297
-0.000753311
0.00170282
-0.000795677
0.00197682
-0.000838172
0.00227521
-0.00088021
0.00259677
-0.00092006
0.00294035
-0.00095728
0.00330393
-0.000990426
0.00368522
-0.00101884
0.00408124
-0.00104137
0.0044884
-0.00105695
0.00490275
-0.00106485
0.00532005
-0.0010644
0.00573587
-0.0010552
0.00614566
-0.00103677
0.00654467
-0.00100892
0.00692867
-0.000971962
0.00729386
-0.000926416
0.00763617
-0.000872093
0.00795235
-0.000810088
0.00823898
-0.000740426
0.00849366
-0.000664408
0.00871364
-0.000582178
0.00889615
-0.000493995
0.00903954
-0.000401499
0.00914314
-0.000306208
0.00920756
-0.000209725
0.00923396
-0.000113503
0.00922088
-1.60263e-05
0.00917346
8.41792e-05
0.00909168
0.000184095
0.00897449
0.000283197
0.00882186
0.000380756
0.00863436
0.000476097
0.00841305
0.000568737
0.0081593
0.000658183
0.00787469
0.000743923
0.00756108
0.000825502
0.00722036
0.000902451
0.00685458
0.000974349
0.00646596
0.00104057
0.0060569
0.00110074
0.00562988
0.00115427
0.00518784
0.00120042
0.0047333
0.00123925
0.00426962
0.00126968
0.00379946
0.00129198
0.00332662
0.00130434
0.00285425
0.00130835
0.002386
0.0013018
0.00192535
0.00128611
0.00147614
0.00125967
0.00104202
0.00122348
0.000626724
0.00117685
0.000234091
0.00111987
-0.00013231
0.0010533
-0.000469229
0.000977355
-0.000772817
0.000892253
-0.00104011
0.000798659
-0.00126889
0.000697833
-0.00145607
0.000589791
-0.00160096
0.000477395
-0.00170131
0.000360293
-0.00175669
0.000240575
-0.00176572
0.000118762
-0.00172651
-4.94504e-06
-0.00164453
-0.000126033
-0.00151992
-0.000241428
-0.00135466
-0.000351184
-0.00115161
-0.000453514
-0.000914705
-0.000546516
-0.000648209
-0.000628743
-0.000357111
-0.00069803
-4.6965e-05
-0.000753093
0.000275924
-0.000792369
0.000605267
-0.000815031
0.00093423
-0.000820046
0.00125564
-0.00080645
0.00156251
-0.000774491
0.00184803
-0.000724395
0.00210523
-0.000656192
0.00232808
-0.000571764
0.00251092
-0.000472061
0.00264843
-0.000358231
0.00273659
-0.000234241
0.00277324
-0.000102765
0.00275313
4.49247e-05
0.00267868
0.000188961
0.00255102
0.000328236
0.00237201
0.000461928
0.0021452
0.000586788
0.00187582
0.000699291
0.00157027
0.000796047
0.0012363
0.000873307
0.000882573
0.000928681
0.00051863
0.000959645
0.00015475
0.000964302
-0.000198891
0.000942281
-0.000531911
0.000893349
-0.000834329
0.000818232
-0.00109706
0.000718977
-0.0013121
0.000598291
-0.00147244
0.000459241
-0.00157463
0.000308081
-0.00161419
0.00014759
-0.00158796
-2.02799e-05
-0.00150326
-0.000182412
-0.00136165
-0.000332672
-0.00116935
-0.000467691
-0.000934977
-0.000581928
-0.000668812
-0.000670691
-0.000382484
-0.000729679
-8.92181e-05
-0.000755861
0.000198656
-0.000748798
0.000467816
-0.000707856
0.000706325
-0.000634965
0.000903485
-0.000533786
0.00105065
-0.000409163
0.00114183
-0.000267598
0.00117349
-0.000116544
0.00114367
4.21775e-05
0.00105872
0.000189782
0.000923689
0.000321628
0.000747904
0.000431494
0.000542529
0.000513363
0.000321257
0.000561607
9.80624e-05
0.000574156
-0.000113013
0.000550192
-0.000298794
0.000492084
-0.000448069
0.000403964
-0.000552079
0.000292504
-0.000605715
0.000166152
-0.000606763
3.41099e-05
-0.000557911
-9.78046e-05
-0.000465633
-0.000211321
-0.000339266
-0.000302276
-0.000190532
-0.000364177
-3.30179e-05
-0.0003918
0.00011853
-0.000382913
0.000251614
-0.000339751
0.000354632
-0.000266003
0.00041896
-0.000168467
0.000439066
-5.56963e-05
0.000412955
6.70388e-05
0.000344066
0.000181087
0.00023811
0.000280511
0.000104143
0.000357706
-4.66986e-05
0.000406271
-0.000202116
0.000422627
-0.000349645
0.000405341
-0.000477844
0.000356931
-0.000577425
0.000281797
-0.00064131
0.000186534
-0.000666083
7.94312e-05
-0.000650563
-3.33452e-05
-0.000597944
-0.000139016
-0.000513079
-0.000231902
-0.000403552
-0.000305426
-0.000278182
-0.00035508
-0.000146459
-0.000378399
-1.76129e-05
-0.00037514
9.94326e-05
-0.000346621
0.000197838
-0.000297151
0.000272414
-0.000231431
0.000320012
-0.000155288
0.000339745
-7.5173e-05
0.000332913
2.85886e-06
0.000302686
7.33166e-05
0.00025366
0.000131384
0.000191326
0.00017382
0.000121692
0.000198763
5.12295e-05
0.000205675
-1.48412e-05
0.00019596
-7.14634e-05
0.00017127
-0.000115109
0.000135139
-0.000143322
9.13582e-05
-0.000155424
4.41385e-05
-0.0001519
-2.36291e-06
-0.000134595
-4.39945e-05
-0.000106343
-7.77159e-05
-7.07333e-05
-0.000100888
-3.21077e-05
-0.000112049
5.93668e-06
-0.000111249
3.91512e-05
-9.84607e-05
6.44001e-05
-7.60288e-05
7.94176e-05
-4.64627e-05
8.28669e-05
-1.2797e-05
7.4879e-05
2.11773e-05
5.66194e-05
5.15435e-05
3.0528e-05
7.48011e-05
8.79927e-05
-7.40129e-05
-0.00039683
-0.000142532
-0.000412919
-0.000199916
-0.00043809
-0.000239499
-0.000474467
-0.000254408
-0.000522161
-0.000237638
-0.000581286
-0.000183392
-0.000650392
-8.58193e-05
-0.000729131
5.81603e-05
-0.000814141
0.000251932
-0.000904783
0.00049603
-0.000997409
0.000790828
-0.00109047
0.00113338
-0.00118072
0.00152156
-0.00126839
0.00195369
-0.00135219
0.0024277
-0.00143129
0.00293955
-0.00150227
0.0034838
-0.00156309
0.00405458
-0.00161216
0.00464487
-0.00164724
0.00524693
-0.00166691
0.00585284
-0.00167031
0.00645388
-0.00165624
0.00704153
-0.00162443
0.00760713
-0.00157451
0.00814239
-0.00150722
0.0086385
-0.00142253
0.00909029
-0.00132388
0.009491
-0.0012108
0.00983781
-0.00108724
0.0101281
-0.000954673
0.0103617
-0.000815772
0.01054
-0.000672323
0.0106648
-0.000526279
0.010738
-0.00037938
0.0107614
-0.000233176
0.010738
-9.00553e-05
0.0106566
6.53294e-05
0.0105222
0.000218596
0.0103416
0.000364728
0.0101192
0.000505539
0.00985839
0.000641573
0.0095616
0.000772893
0.00923119
0.000899141
0.00886906
0.00102032
0.00847742
0.00113556
0.00805799
0.00124493
0.0076132
0.00134724
0.00714513
0.00144242
0.0066565
0.0015292
0.00614934
0.00160791
0.00562624
0.00167737
0.00509069
0.00173597
0.0045453
0.00178463
0.00399313
0.00182185
0.00343806
0.00184705
0.00288344
0.00185897
0.00233285
0.00185894
0.00179109
0.00184356
0.00126141
0.00181579
0.00074839
0.00177269
0.000256028
0.00171584
-0.000211651
0.00164453
-0.000649697
0.00155792
-0.00105481
0.00145842
-0.00142204
0.00134458
-0.00174836
0.00121857
-0.00203056
0.00108086
-0.00226516
0.000932429
-0.00244985
0.000774488
-0.00258195
0.000609492
-0.00266015
0.000438491
-0.00268397
0.000264402
-0.00265406
8.88497e-05
-0.0025678
-9.12116e-05
-0.00243043
-0.000263401
-0.00224232
-0.000429537
-0.00200643
-0.00058707
-0.00172673
-0.000733213
-0.00140794
-0.000865308
-0.00105543
-0.000981249
-0.000675755
-0.00107771
-0.000275836
-0.00115301
0.000136825
-0.00120503
0.000554311
-0.00123252
0.000968521
-0.00123426
0.0013709
-0.00120882
0.00175283
-0.00115642
0.0021059
-0.00107747
0.00242192
-0.000972209
0.00269328
-0.000843125
0.00291413
-0.000692906
0.003079
-0.000523106
0.00318054
-0.000335785
0.00321774
-0.000139959
0.00318676
7.59013e-05
0.00309
0.000285721
0.00292846
0.000489775
0.00270468
0.000685713
0.00242344
0.000868023
0.00209157
0.00103117
0.00171716
0.00117045
0.00131013
0.00128034
0.000881341
0.00135747
0.000442534
0.00139845
6.36775e-06
0.00140047
-0.000414423
0.00136307
-0.000807554
0.00128648
-0.00116113
0.00117181
-0.0014639
0.00102175
-0.00170638
0.000840768
-0.00188172
0.000634579
-0.00198392
0.000410287
-0.0020098
0.00017347
-0.00195813
-7.195e-05
-0.00183474
-0.000305807
-0.0016435
-0.000523911
-0.00139274
-0.000718453
-0.00109322
-0.000881445
-0.00075808
-0.00100583
-0.000401949
-0.00108581
-4.03895e-05
-0.00111742
0.000309581
-0.00109877
0.00063316
-0.00103143
0.000915371
-0.000917176
0.00114393
-0.000762348
0.00130884
-0.000574071
0.00140309
-0.000361851
0.00142323
-0.000136678
0.00137045
9.49582e-05
0.00125015
0.000310074
0.00107002
0.000501758
0.000842162
0.000659357
0.000581666
0.000773858
0.000304683
0.000838591
2.90822e-05
0.000849757
-0.000227065
0.000806339
-0.000448339
0.000713358
-0.000621417
0.000577042
-0.000736096
0.000407182
-0.000786826
0.000216883
-0.000773346
2.06293e-05
-0.000698492
-0.000172658
-0.00057167
-0.000338143
-0.000404298
-0.000469648
-0.000212628
-0.000555847
-1.31663e-05
-0.000591261
0.000176252
-0.000572331
0.000340141
-0.00050364
0.000464956
-0.000390818
0.000540722
-0.000244234
0.000562224
-7.71976e-05
0.000527885
0.000101377
0.000442684
0.000266289
0.000314306
0.000408889
0.000154305
0.000517707
-2.32743e-05
0.00058385
-0.000203969
0.000603322
-0.000372983
0.000574355
-0.000517405
0.000501353
-0.000627066
0.000391458
-0.00069471
0.000254178
-0.000716735
0.000101456
-0.000693955
-5.61253e-05
-0.000629934
-0.000203037
-0.000531365
-0.000330471
-0.000407149
-0.000429642
-0.000267831
-0.000494398
-0.00012389
-0.000522339
1.40671e-05
-0.000513097
0.000137262
-0.000469816
0.000238193
-0.000398082
0.000311856
-0.000305094
0.000355623
-0.000199055
0.000369182
-8.87319e-05
0.00035469
1.73512e-05
0.000316036
0.00011197
0.000258693
0.000188727
0.000188546
0.000243967
0.000112505
0.000274804
3.68378e-05
0.000281342
-3.21396e-05
0.000264938
-9.00583e-05
0.000229189
-0.000133287
0.000178367
-0.000159821
0.000117892
-0.00016899
5.33074e-05
-0.00016192
-9.43252e-06
-0.000140671
-6.52431e-05
-0.000108483
-0.000109905
-6.92943e-05
-0.000140076
-2.71645e-05
-0.000154178
1.29419e-05
-0.000151356
4.76845e-05
-0.000133203
7.36643e-05
-0.000102009
8.85545e-05
-6.13528e-05
9.12106e-05
-1.54531e-05
8.17378e-05
3.06501e-05
6.15053e-05
7.17759e-05
3.30711e-05
0.000103235
0.000121064
-0.000350615
-4.62144e-05
-0.000697673
-6.58602e-05
-0.00103077
-0.000104996
-0.0013392
-0.000166037
-0.00161167
-0.000249682
-0.00183504
-0.00035792
-0.00199318
-0.000492257
-0.00207264
-0.000649662
-0.00207224
-0.000814541
-0.00198375
-0.000993279
-0.00180415
-0.001177
-0.00152925
-0.00136538
-0.00115748
-0.00155248
-0.000691877
-0.001734
-0.000138535
-0.00190553
0.000493303
-0.00206313
0.00119397
-0.00220295
0.00195285
-0.00232196
0.0027583
-0.00241761
0.00359694
-0.00248588
0.00445477
-0.00252473
0.00531642
-0.00253196
0.00616683
-0.00250665
0.00698992
-0.00244752
0.00777028
-0.00235487
0.00849427
-0.00223121
0.00914856
-0.00207682
0.00972574
-0.00190106
0.0102181
-0.00170318
0.0106268
-0.00149596
0.0109522
-0.00128005
0.011197
-0.00106055
0.0113637
-0.000839066
0.0114582
-0.000620689
0.011487
-0.000408218
0.0114561
-0.000202303
0.011363
3.04518e-06
0.0112192
0.000209103
0.0110331
0.000404781
0.0108037
0.000594071
0.0105323
0.000776936
0.0102209
0.000953017
0.00987126
0.00112251
0.00948569
0.00128471
0.00906643
0.00143958
0.00861559
0.0015864
0.00813547
0.00172505
0.00762867
0.00185404
0.00709697
0.00197411
0.00654294
0.00208324
0.00596929
0.00218156
0.00537979
0.00226686
0.00477556
0.0023402
0.00416209
0.00239811
0.00354183
0.00244211
0.00291924
0.00246963
0.00229847
0.00247973
0.00168353
0.00247388
0.0010786
0.00244849
0.000488529
0.00240586
-8.13296e-05
0.00234255
-0.000626186
0.00226069
-0.00114028
0.00215863
-0.00161991
0.00203754
-0.00205905
0.00189756
-0.00245409
0.00173962
-0.00280041
0.0015649
-0.00309457
0.00137502
-0.00333128
0.00116914
-0.00350936
0.000952567
-0.00362662
0.000726754
-0.00368106
0.000492931
-0.00366939
0.000252732
-0.00359075
1.02047e-05
-0.00345148
-0.000230476
-0.00325094
-0.000463943
-0.00299159
-0.000688882
-0.00267696
-0.000901709
-0.00231192
-0.00109825
-0.00190243
-0.0012748
-0.00145505
-0.00142863
-0.000977566
-0.0015552
-0.000478262
-0.00165232
3.37717e-05
-0.00171706
0.000548974
-0.00174772
0.00105695
-0.00174223
0.001547
-0.00169888
0.00200964
-0.00161906
0.00243562
-0.00150345
0.00281538
-0.00135197
0.00313857
-0.00116631
0.00339752
-0.000951864
0.00358733
-0.000712915
0.00370369
-0.000452139
0.00373717
-0.000173437
0.003692
0.000121069
0.00356746
0.000410257
0.00336454
0.000692698
0.00308718
0.000963069
0.00274196
0.00121325
0.00233738
0.00143574
0.00188371
0.00162412
0.001393
0.00177104
0.000878607
0.00187187
0.000354808
0.00192225
-0.000163131
0.00191841
-0.000659809
0.00185975
-0.00112025
0.00174692
-0.0015301
0.00158166
-0.0018768
0.00136845
-0.00214964
0.00111361
-0.00234001
0.000824951
-0.0024393
0.000509572
-0.00244983
0.000184006
-0.00236754
-0.000154244
-0.00219879
-0.000474558
-0.0019498
-0.000772902
-0.00163157
-0.00103668
-0.00125783
-0.00125518
-0.000844714
-0.00141895
-0.000410242
-0.00152028
2.6384e-05
-0.00155405
0.000445815
-0.0015182
0.000829349
-0.00141497
0.0011601
-0.00124793
0.00142244
-0.00102469
0.00160517
-0.000756799
0.00170096
-0.00045764
0.00170793
-0.000143649
0.00162593
0.000176958
0.00146315
0.000472859
0.00123035
0.000734557
0.000942607
0.000947099
0.000619069
0.0010974
0.000279517
0.00117814
-5.38254e-05
0.0011831
-0.000360673
0.00111319
-0.000621284
0.000973969
-0.000820137
0.000775895
-0.000946089
0.000533134
-0.000993378
0.000264172
-0.000958104
-1.46453e-05
-0.000853174
-0.000277588
-0.000685744
-0.000505574
-0.000471925
-0.000683466
-0.000231401
-0.000796372
1.48607e-05
-0.000837522
0.000246503
-0.000803973
0.00044392
-0.000701057
0.000591287
-0.000538185
0.000677651
-0.000330598
0.000697478
-9.70245e-05
0.00065235
0.000146506
0.00054718
0.000371458
0.00039229
0.000563779
0.00020279
0.000707206
-4.98528e-06
0.000791626
-0.000213369
0.000811705
-0.000405618
0.000766604
-0.000567169
0.000662904
-0.000686668
0.000510957
-0.000757063
0.000324573
-0.000775207
0.0001196
-0.000743278
-8.80543e-05
-0.000666003
-0.000280312
-0.00055179
-0.000444683
-0.000411381
-0.000570052
-0.000256596
-0.000649182
-9.96979e-05
-0.000679238
4.82554e-05
-0.00066105
0.000177691
-0.000599251
0.000281073
-0.000501465
0.000353585
-0.000377606
0.000393056
-0.000238526
0.000400017
-9.56932e-05
0.000377289
4.00795e-05
0.000329753
0.000159506
0.00026328
0.0002552
0.000185275
0.000321972
0.000102641
0.000357437
2.21292e-05
0.000361854
-5.01677e-05
0.000337235
-0.000109424
0.000288444
-0.000152203
0.000221146
-0.000176766
0.000142455
-0.000183003
5.9545e-05
-0.000172178
-2.02579e-05
-0.000146818
-9.06027e-05
-0.000110596
-0.000146127
-6.76759e-05
-0.000182996
-2.26213e-05
-0.000199233
2.01359e-05
-0.000194113
5.6506e-05
-0.000169573
8.32369e-05
-0.00012874
9.80287e-05
-7.61447e-05
9.97917e-05
-1.72161e-05
8.88122e-05
4.16297e-05
6.65271e-05
9.4061e-05
3.56805e-05
0.000134082
0.000156744
-0.00093782
0.000891606
-0.00186083
0.000857146
-0.00273927
0.000773446
-0.00354087
0.000635565
-0.00423157
0.000441018
-0.00476023
0.000170738
-0.00511633
-0.000136155
-0.00529965
-0.000466336
-0.00532487
-0.00078932
-0.00516584
-0.00115231
-0.00484731
-0.00149553
-0.00437531
-0.00183738
-0.00376554
-0.00216225
-0.00302838
-0.00247116
-0.0021747
-0.00275921
-0.0012141
-0.00302373
-0.000157585
-0.00325946
0.000982734
-0.00346228
0.00218982
-0.00362469
0.00344617
-0.00374223
0.00472998
-0.00380855
0.00601837
-0.00382035
0.0072839
-0.00377218
0.00850389
-0.00366751
0.00964419
-0.00349517
0.0106896
-0.00327664
0.0115907
-0.00297788
0.012368
-0.00267836
0.012964
-0.00229916
0.0134112
-0.00194324
0.0137009
-0.00156974
0.0138604
-0.00121998
0.0139082
-0.000886882
0.0138656
-0.000578114
0.0137458
-0.000288443
0.0135564
-1.2859e-05
0.0132858
0.000273635
0.0129644
0.00053047
0.0125976
0.000771572
0.0121921
0.000999568
0.0117525
0.0012166
0.011282
0.00142354
0.0107836
0.00162086
0.0102594
0.0018089
0.00971001
0.00198898
0.00913742
0.00215899
0.00854353
0.00231893
0.00792886
0.00246872
0.00729506
0.00260791
0.00664193
0.00273636
0.0059745
0.00284899
0.00529273
0.00294864
0.00460196
0.00303097
0.00390208
0.00309798
0.00319914
0.00314505
0.00249514
0.00317363
0.00179575
0.00317913
0.00110563
0.003164
0.000429676
0.00312445
-0.000227663
0.0030632
-0.000860056
0.00297495
-0.00146211
0.00286275
-0.00202849
0.00272501
-0.00255292
0.00256196
-0.00303084
0.00237549
-0.00345638
0.00216516
-0.00382495
0.00193347
-0.00413175
0.00168182
-0.00437316
0.00141055
-0.00454498
0.00112439
-0.00464457
0.000826344
-0.00467004
0.000518409
-0.00462229
0.000204978
-0.00450006
-0.000112021
-0.00430607
-0.000424466
-0.00404119
-0.000728829
-0.0037084
-0.00102167
-0.00331289
-0.00129722
-0.00286068
-0.00155046
-0.00235874
-0.00177673
-0.00181471
-0.00197265
-0.00123772
-0.00213219
-0.000637787
-0.00225225
-2.64006e-05
-0.00232845
0.000585441
-0.00235956
0.00118736
-0.00234414
0.00176693
-0.00227846
0.00231086
-0.00216298
0.00280761
-0.0020002
0.00324803
-0.00179239
0.00362281
-0.00154109
0.00391939
-0.00124845
0.00413054
-0.000924058
0.00425397
-0.00057557
0.00428648
-0.000205954
0.00422126
0.000186293
0.00406281
0.000568709
0.00381322
0.000942284
0.00347743
0.00129886
0.00306353
0.00162715
0.00258219
0.00191708
0.00204534
0.00216097
0.00146738
0.00234901
0.00086433
0.00247492
0.000253214
0.00253337
-0.000348009
0.00251963
-0.000921473
0.00243321
-0.00144977
0.00227522
-0.00191632
0.00204821
-0.00230647
0.00175859
-0.00260821
0.00141535
-0.00280985
0.0010266
-0.00290688
0.000606599
-0.00289561
0.000172736
-0.00277891
-0.000270942
-0.00256109
-0.000692379
-0.00225105
-0.00108294
-0.00186225
-0.00142548
-0.00141094
-0.00170649
-0.000916854
-0.00191304
-0.00040132
-0.00203581
0.000112427
-0.00206779
0.000602633
-0.00200841
0.0010461
-0.00185843
0.00142308
-0.00162491
0.00171767
-0.00131929
0.00191678
-0.000955906
0.00201216
-0.000553022
0.00199915
-0.000130633
0.00188535
0.000290754
0.0016768
0.000681416
0.00138746
0.00102389
0.00103672
0.00129784
0.000646145
0.00148797
0.000241716
0.00158257
-0.000151208
0.00157602
-0.000508334
0.00147031
-0.000807535
0.00127317
-0.00103035
0.000998705
-0.00116434
0.000667131
-0.00120297
0.000302795
-0.00114832
-6.92927e-05
-0.00100873
-0.000417181
-0.000797113
-0.000717186
-0.000534166
-0.000946413
-0.000242778
-0.00108776
5.20458e-05
-0.00113235
0.000325152
-0.00107708
0.000554737
-0.000930642
0.000722992
-0.00070644
0.000818607
-0.000426213
0.000835581
-0.000113999
0.000776382
0.000205705
0.000648584
0.000499256
0.000465513
0.000746851
0.00024496
0.000927759
6.60658e-06
0.00102998
-0.000229075
0.00104739
-0.000443373
0.000980902
-0.000620561
0.000840093
-0.00074842
0.000638815
-0.000819912
0.000396065
-0.000832867
0.000132555
-0.000790546
-0.000130376
-0.000699106
-0.000371752
-0.000569066
-0.000574723
-0.000412465
-0.000726653
-0.000243046
-0.000818601
-7.39587e-05
-0.000848325
8.29059e-05
-0.000817915
0.000217486
-0.000733831
0.000322306
-0.000606285
0.000392857
-0.000448158
0.000427513
-0.000273181
0.000427484
-9.56646e-05
0.000396667
7.08966e-05
0.000340508
0.000215665
0.000265846
0.000329862
0.00018039
0.000407428
9.16693e-05
0.000446158
6.96739e-06
0.000446555
-6.77768e-05
0.000411979
-0.000127693
0.00034836
-0.000169669
0.000263122
-0.000192164
0.00016495
-0.000195362
6.27432e-05
-0.000180901
-3.47191e-05
-0.000151739
-0.000119764
-0.000111799
-0.000186067
-6.53861e-05
-0.000229409
-1.779e-05
-0.000246829
2.70758e-05
-0.000238979
6.47601e-05
-0.000207258
9.19979e-05
-0.000155977
0.000106583
-9.07301e-05
0.000107507
-1.81396e-05
9.51068e-05
5.40297e-05
7.09988e-05
0.000118169
3.80089e-05
0.000167072
0.000194753
-0.00157037
0.00246198
-0.00311628
0.00240305
-0.00458936
0.00224653
-0.00594523
0.00199143
-0.00714867
0.00164446
-0.00817713
0.00119921
-0.00904258
0.000729296
-0.00966098
0.00015206
-0.010144
-0.00030633
-0.0103381
-0.000958169
-0.010233
-0.00160061
-0.00980435
-0.00226607
-0.00906422
-0.00290238
-0.00802978
-0.0035056
-0.00673253
-0.00405646
-0.00521178
-0.00454447
-0.00351217
-0.00495907
-0.0016797
-0.00529475
0.000241554
-0.00554595
0.00220976
-0.00571044
0.00418169
-0.00578047
0.00612477
-0.00576342
0.00799495
-0.00564236
0.00975603
-0.00542859
0.0113521
-0.00509127
0.0127492
-0.00467369
0.0138709
-0.00409962
0.0146943
-0.00350174
0.0151851
-0.00278995
0.0154308
-0.00218895