/*--------------------------------*- C++ -*----------------------------------*\
  =========                 |
  \\      /  F ield         | OpenFOAM: The Open Source CFD Toolbox
   \\    /   O peration     | Website:  https://openfoam.org
    \\  /    A nd           | Version:  12
     \\/     M anipulation  |
\*---------------------------------------------------------------------------*/
FoamFile
{
    format      ascii;
    class       volVectorField;
    location    "6.66";
    object      U;
}
// * * * * * * * * * * * * * * * * * * * * * * * * * * * * * * * * * * * * * //

dimensions      [0 1 -1 0 0 0 0];

internalField   nonuniform List<vector> 
3829
(
(2.39853e-06 -6.97809e-05 0)
(7.14845e-06 -7.04195e-05 0)
(1.20418e-05 -7.05758e-05 0)
(1.70889e-05 -7.07986e-05 0)
(2.23083e-05 -7.10887e-05 0)
(2.77435e-05 -7.14296e-05 0)
(3.34507e-05 -7.18154e-05 0)
(3.94443e-05 -7.2232e-05 0)
(4.57682e-05 -7.26461e-05 0)
(5.24331e-05 -7.30482e-05 0)
(5.94555e-05 -7.34065e-05 0)
(6.68324e-05 -7.36898e-05 0)
(7.45864e-05 -7.38701e-05 0)
(8.2661e-05 -7.39254e-05 0)
(9.10501e-05 -7.37978e-05 0)
(9.97492e-05 -7.34832e-05 0)
(0.000108673 -7.29183e-05 0)
(0.000117778 -7.20918e-05 0)
(0.000126995 -7.09654e-05 0)
(0.00013625 -6.95138e-05 0)
(0.00014546 -6.77147e-05 0)
(0.000154535 -6.55511e-05 0)
(0.000163376 -6.30129e-05 0)
(0.000171867 -6.00947e-05 0)
(0.000179861 -5.67995e-05 0)
(0.000187309 -5.31353e-05 0)
(0.000194156 -4.91242e-05 0)
(0.000200239 -4.48004e-05 0)
(0.000205413 -4.01867e-05 0)
(0.000209568 -3.53266e-05 0)
(0.000212559 -3.02639e-05 0)
(0.000214363 -2.50267e-05 0)
(0.000214982 -1.96442e-05 0)
(0.000214312 -1.42133e-05 0)
(0.000212381 -8.81795e-06 0)
(0.000209153 -3.56301e-06 0)
(0.000204526 1.53101e-06 0)
(0.000198551 6.4013e-06 0)
(0.000191292 1.10243e-05 0)
(0.000182823 1.53433e-05 0)
(0.000173125 1.93321e-05 0)
(0.000162259 2.29554e-05 0)
(0.00015041 2.61833e-05 0)
(0.000137682 2.89894e-05 0)
(0.000124193 3.13356e-05 0)
(0.00011007 3.32117e-05 0)
(9.54707e-05 3.46026e-05 0)
(8.05431e-05 3.54993e-05 0)
(6.54543e-05 3.58991e-05 0)
(5.03736e-05 3.58059e-05 0)
(3.54491e-05 3.5224e-05 0)
(2.0889e-05 3.4187e-05 0)
(6.87625e-06 3.26904e-05 0)
(-6.44109e-06 3.07847e-05 0)
(-1.89859e-05 2.84702e-05 0)
(-3.03909e-05 2.58198e-05 0)
(-4.07291e-05 2.28078e-05 0)
(-4.97407e-05 1.95477e-05 0)
(-5.73945e-05 1.60225e-05 0)
(-6.36684e-05 1.2354e-05 0)
(-6.81374e-05 8.5432e-06 0)
(-7.10316e-05 4.65162e-06 0)
(-7.21337e-05 7.51244e-07 0)
(-7.14579e-05 -3.09151e-06 0)
(-6.88159e-05 -6.8513e-06 0)
(-6.45482e-05 -1.05333e-05 0)
(-5.87211e-05 -1.3989e-05 0)
(-5.12508e-05 -1.72305e-05 0)
(-4.23616e-05 -2.01556e-05 0)
(-3.20805e-05 -2.27513e-05 0)
(-2.06884e-05 -2.49608e-05 0)
(-8.46628e-06 -2.67573e-05 0)
(5.0291e-06 -2.80377e-05 0)
(1.93508e-05 -2.89039e-05 0)
(3.37615e-05 -2.92344e-05 0)
(4.83846e-05 -2.90794e-05 0)
(6.2882e-05 -2.84078e-05 0)
(7.69432e-05 -2.722e-05 0)
(9.0496e-05 -2.55383e-05 0)
(0.000103148 -2.34118e-05 0)
(0.000114577 -2.08347e-05 0)
(0.000124769 -1.78852e-05 0)
(0.000133275 -1.45961e-05 0)
(0.000140073 -1.10282e-05 0)
(0.000144888 -7.26309e-06 0)
(0.000147566 -3.34258e-06 0)
(0.000148075 6.28312e-07 0)
(0.000146121 4.56447e-06 0)
(0.000141799 8.41575e-06 0)
(0.00013523 1.20798e-05 0)
(0.00012651 1.55098e-05 0)
(0.000115836 1.86012e-05 0)
(0.000103353 2.12833e-05 0)
(8.92959e-05 2.34975e-05 0)
(7.39366e-05 2.51822e-05 0)
(5.75998e-05 2.63018e-05 0)
(4.06289e-05 2.68073e-05 0)
(2.33779e-05 2.67123e-05 0)
(6.30193e-06 2.60028e-05 0)
(-1.02319e-05 2.46919e-05 0)
(-2.58513e-05 2.2828e-05 0)
(-4.01677e-05 2.04535e-05 0)
(-5.28325e-05 1.76394e-05 0)
(-6.35267e-05 1.44564e-05 0)
(-7.20186e-05 1.1003e-05 0)
(-7.80851e-05 7.38623e-06 0)
(-8.16341e-05 3.70292e-06 0)
(-8.25712e-05 8.73931e-08 0)
(-8.08564e-05 -3.34668e-06 0)
(-7.6685e-05 -6.4975e-06 0)
(-7.03057e-05 -9.28421e-06 0)
(-6.20126e-05 -1.15987e-05 0)
(-5.2116e-05 -1.33616e-05 0)
(-4.1083e-05 -1.45357e-05 0)
(-2.93281e-05 -1.50539e-05 0)
(-1.73478e-05 -1.49458e-05 0)
(-5.67075e-06 -1.41957e-05 0)
(5.26101e-06 -1.28718e-05 0)
(1.4903e-05 -1.10287e-05 0)
(2.29286e-05 -8.75265e-06 0)
(2.89834e-05 -6.16991e-06 0)
(3.27791e-05 -3.3882e-06 0)
(3.42276e-05 -5.43463e-07 0)
(3.31817e-05 2.18085e-06 0)
(2.97406e-05 4.70392e-06 0)
(2.4177e-05 6.90295e-06 0)
(1.68683e-05 8.66229e-06 0)
(8.17106e-06 9.88037e-06 0)
(-1.54934e-06 1.05461e-05 0)
(-1.15682e-05 1.05678e-05 0)
(-2.12755e-05 9.99955e-06 0)
(-3.02277e-05 8.85591e-06 0)
(-3.78749e-05 7.23322e-06 0)
(-4.38113e-05 5.21247e-06 0)
(-4.76629e-05 2.93987e-06 0)
(-4.92153e-05 5.30937e-07 0)
(-4.83072e-05 -1.84456e-06 0)
(-4.49391e-05 -4.08586e-06 0)
(-3.94302e-05 -6.02985e-06 0)
(-3.20936e-05 -7.60267e-06 0)
(-2.33689e-05 -8.67595e-06 0)
(-1.37241e-05 -9.24737e-06 0)
(-3.69074e-06 -9.24186e-06 0)
(6.13091e-06 -8.71933e-06 0)
(1.51055e-05 -7.71747e-06 0)
(2.27561e-05 -6.3018e-06 0)
(2.87207e-05 -4.58806e-06 0)
(3.26903e-05 -2.68251e-06 0)
(3.44562e-05 -7.21606e-07 0)
(3.3959e-05 1.17478e-06 0)
(3.13066e-05 2.9116e-06 0)
(2.67416e-05 4.38155e-06 0)
(2.06167e-05 5.508e-06 0)
(1.33694e-05 6.2438e-06 0)
(5.41502e-06 6.54378e-06 0)
(-2.74151e-06 6.45393e-06 0)
(-1.05222e-05 5.95449e-06 0)
(-1.74863e-05 5.11659e-06 0)
(-2.32508e-05 3.99763e-06 0)
(-2.74915e-05 2.68701e-06 0)
(-2.99839e-05 1.26674e-06 0)
(-3.05875e-05 -1.69238e-07 0)
(-2.92903e-05 -1.54895e-06 0)
(-2.62069e-05 -2.8072e-06 0)
(-2.15484e-05 -3.86404e-06 0)
(-1.556e-05 -4.6802e-06 0)
(-8.58719e-06 -5.22429e-06 0)
(-9.35373e-07 -5.48294e-06 0)
(6.97158e-06 -5.45109e-06 0)
(1.46142e-05 -5.15879e-06 0)
(2.17099e-05 -4.62143e-06 0)
(2.79369e-05 -3.88456e-06 0)
(3.30005e-05 -2.99358e-06 0)
(3.66946e-05 -2.00112e-06 0)
(3.88767e-05 -9.57791e-07 0)
(3.9468e-05 7.80085e-08 0)
(3.84802e-05 1.07326e-06 0)
(3.599e-05 1.97308e-06 0)
(3.21396e-05 2.75716e-06 0)
(2.7119e-05 3.38814e-06 0)
(2.11586e-05 3.85657e-06 0)
(1.45239e-05 4.14791e-06 0)
(7.49581e-06 4.26335e-06 0)
(3.32035e-07 4.21378e-06 0)
(-6.68714e-06 4.00402e-06 0)
(-1.32822e-05 3.66374e-06 0)
(-1.9239e-05 3.2013e-06 0)
(-2.43754e-05 2.65251e-06 0)
(-2.85209e-05 2.03849e-06 0)
(-3.15597e-05 1.38531e-06 0)
(-3.34335e-05 7.10781e-07 0)
(-3.40958e-05 5.16053e-08 0)
(-3.3559e-05 -5.85838e-07 0)
(-3.18643e-05 -1.17607e-06 0)
(-2.90833e-05 -1.70809e-06 0)
(-2.53159e-05 -2.16893e-06 0)
(-2.06903e-05 -2.55118e-06 0)
(-1.53506e-05 -2.84456e-06 0)
(-9.45997e-06 -3.04523e-06 0)
(-3.1998e-06 -3.147e-06 0)
(1.65139e-06 -2.19007e-05 0)
(5.06447e-06 -2.1664e-05 0)
(8.6497e-06 -2.28878e-05 0)
(1.24976e-05 -2.47227e-05 0)
(1.67223e-05 -2.71473e-05 0)
(2.13826e-05 -3.01137e-05 0)
(2.65065e-05 -3.35763e-05 0)
(3.23351e-05 -3.74596e-05 0)
(3.88604e-05 -4.167e-05 0)
(4.60661e-05 -4.61247e-05 0)
(5.41371e-05 -5.06894e-05 0)
(6.30214e-05 -5.52606e-05 0)
(7.26515e-05 -5.97211e-05 0)
(8.31949e-05 -6.39233e-05 0)
(9.44861e-05 -6.77258e-05 0)
(0.000106543 -7.10192e-05 0)
(0.000119324 -7.36683e-05 0)
(0.000132569 -7.5558e-05 0)
(0.000146311 -7.65621e-05 0)
(0.000160338 -7.66126e-05 0)
(0.000174497 -7.56016e-05 0)
(0.0001886 -7.34728e-05 0)
(0.000202461 -7.01878e-05 0)
(0.00021587 -6.57054e-05 0)
(0.000228586 -6.00768e-05 0)
(0.000240434 -5.32666e-05 0)
(0.000251189 -4.5363e-05 0)
(0.000260696 -3.64735e-05 0)
(0.000268765 -2.66533e-05 0)
(0.000275163 -1.60379e-05 0)
(0.000279867 -4.75255e-06 0)
(0.000282964 6.99176e-06 0)
(0.000284035 1.9047e-05 0)
(0.000282655 3.12048e-05 0)
(0.000278842 4.33926e-05 0)
(0.000272991 5.5454e-05 0)
(0.000265284 6.72245e-05 0)
(0.000255769 7.85286e-05 0)
(0.000244568 8.91848e-05 0)
(0.000231749 9.90635e-05 0)
(0.000217438 0.000107982 0)
(0.000201685 0.00011585 0)
(0.000184734 0.00012256 0)
(0.000166654 0.000128019 0)
(0.000147663 0.000132161 0)
(0.000128021 0.000134939 0)
(0.000107896 0.00013631 0)
(8.75041e-05 0.000136273 0)
(6.70816e-05 0.000134809 0)
(4.68315e-05 0.000131952 0)
(2.70515e-05 0.000127732 0)
(7.89927e-06 0.000122219 0)
(-1.03682e-05 0.000115448 0)
(-2.75841e-05 0.000107491 0)
(-4.35746e-05 9.84595e-05 0)
(-5.81096e-05 8.85362e-05 0)
(-7.10835e-05 7.76275e-05 0)
(-8.22013e-05 6.61328e-05 0)
(-9.1416e-05 5.3944e-05 0)
(-9.863e-05 4.14574e-05 0)
(-0.000103727 2.86146e-05 0)
(-0.000106622 1.57158e-05 0)
(-0.000107097 2.82666e-06 0)
(-0.000105394 -9.81252e-06 0)
(-0.000101653 -2.20983e-05 0)
(-9.56828e-05 -3.38461e-05 0)
(-8.7595e-05 -4.49203e-05 0)
(-7.75328e-05 -5.51608e-05 0)
(-6.56241e-05 -6.43877e-05 0)
(-5.20977e-05 -7.25004e-05 0)
(-3.71857e-05 -7.93385e-05 0)
(-2.09979e-05 -8.47958e-05 0)
(-3.61459e-06 -8.87383e-05 0)
(1.45804e-05 -9.12353e-05 0)
(3.30599e-05 -9.21362e-05 0)
(5.1583e-05 -9.14276e-05 0)
(7.00085e-05 -8.91132e-05 0)
(8.78206e-05 -8.52439e-05 0)
(0.000104772 -7.98207e-05 0)
(0.000120581 -7.30011e-05 0)
(0.000134826 -6.48048e-05 0)
(0.000147365 -5.54302e-05 0)
(0.000157829 -4.50378e-05 0)
(0.000166032 -3.37826e-05 0)
(0.000171781 -2.19329e-05 0)
(0.000174862 -9.64958e-06 0)
(0.000175113 2.78149e-06 0)
(0.000172446 1.50928e-05 0)
(0.000166913 2.70812e-05 0)
(0.000158664 3.84754e-05 0)
(0.000147805 4.9061e-05 0)
(0.000134473 5.85658e-05 0)
(0.000118979 6.67748e-05 0)
(0.000101598 7.34959e-05 0)
(8.26852e-05 7.85494e-05 0)
(6.26155e-05 8.18242e-05 0)
(4.18871e-05 8.32176e-05 0)
(2.09632e-05 8.26994e-05 0)
(2.96349e-07 8.02809e-05 0)
(-1.95649e-05 7.60084e-05 0)
(-3.81712e-05 7.00149e-05 0)
(-5.50785e-05 6.24442e-05 0)
(-6.98703e-05 5.35112e-05 0)
(-8.21651e-05 4.34855e-05 0)
(-9.16481e-05 3.2641e-05 0)
(-9.81223e-05 2.13283e-05 0)
(-0.000101439 9.8787e-06 0)
(-0.000101481 -1.35445e-06 0)
(-9.8318e-05 -1.20066e-05 0)
(-9.22497e-05 -2.175e-05 0)
(-8.35261e-05 -3.0288e-05 0)
(-7.24605e-05 -3.73181e-05 0)
(-5.95575e-05 -4.26237e-05 0)
(-4.53258e-05 -4.60358e-05 0)
(-3.03504e-05 -4.74494e-05 0)
(-1.52578e-05 -4.68719e-05 0)
(-6.66093e-07 -4.43221e-05 0)
(1.28202e-05 -3.99922e-05 0)
(2.46252e-05 -3.40616e-05 0)
(3.42664e-05 -2.6826e-05 0)
(4.13584e-05 -1.86367e-05 0)
(4.56117e-05 -9.88819e-06 0)
(4.67852e-05 -9.93924e-07 0)
(4.48781e-05 7.55741e-06 0)
(4.01469e-05 1.5432e-05 0)
(3.2802e-05 2.22223e-05 0)
(2.32834e-05 2.76121e-05 0)
(1.21853e-05 3.13071e-05 0)
(-9.64736e-08 3.31932e-05 0)
(-1.26983e-05 3.31416e-05 0)
(-2.47881e-05 3.12031e-05 0)
(-3.58431e-05 2.75268e-05 0)
(-4.5188e-05 2.23434e-05 0)
(-5.23318e-05 1.59755e-05 0)
(-5.68478e-05 8.82319e-06 0)
(-5.84959e-05 1.29794e-06 0)
(-5.7161e-05 -6.07569e-06 0)
(-5.28746e-05 -1.29493e-05 0)
(-4.60224e-05 -1.89332e-05 0)
(-3.69988e-05 -2.3676e-05 0)
(-2.63845e-05 -2.69233e-05 0)
(-1.47535e-05 -2.85039e-05 0)
(-2.75093e-06 -2.84076e-05 0)
(8.82206e-06 -2.66693e-05 0)
(1.93274e-05 -2.34691e-05 0)
(2.81601e-05 -1.90412e-05 0)
(3.49001e-05 -1.37093e-05 0)
(3.92172e-05 -7.8491e-06 0)
(4.08935e-05 -1.83455e-06 0)
(3.99533e-05 3.96183e-06 0)
(3.65373e-05 9.19857e-06 0)
(3.09288e-05 1.36291e-05 0)
(2.35862e-05 1.69745e-05 0)
(1.50034e-05 1.91154e-05 0)
(5.74425e-06 1.99558e-05 0)
(-3.64623e-06 1.95389e-05 0)
(-1.2555e-05 1.79565e-05 0)
(-2.04278e-05 1.53545e-05 0)
(-2.68617e-05 1.19449e-05 0)
(-3.15041e-05 7.96514e-06 0)
(-3.41331e-05 3.67486e-06 0)
(-3.4631e-05 -6.53465e-07 0)
(-3.30352e-05 -4.7982e-06 0)
(-2.94563e-05 -8.52284e-06 0)
(-2.41476e-05 -1.1656e-05 0)
(-1.74264e-05 -1.4054e-05 0)
(-9.67648e-06 -1.56303e-05 0)
(-1.24064e-06 -1.63369e-05 0)
(7.39961e-06 -1.62089e-05 0)
(1.56991e-05 -1.52835e-05 0)
(2.33579e-05 -1.36536e-05 0)
(3.00185e-05 -1.14366e-05 0)
(3.53815e-05 -8.77898e-06 0)
(3.92389e-05 -5.82614e-06 0)
(4.14455e-05 -2.7409e-06 0)
(4.19488e-05 3.28143e-07 0)
(4.07686e-05 3.24801e-06 0)
(3.8e-05 5.89896e-06 0)
(3.38095e-05 8.18357e-06 0)
(2.84018e-05 1.00186e-05 0)
(2.20353e-05 1.13683e-05 0)
(1.49884e-05 1.22006e-05 0)
(7.57093e-06 1.2516e-05 0)
(4.43084e-08 1.23418e-05 0)
(-7.29156e-06 1.17138e-05 0)
(-1.41545e-05 1.06908e-05 0)
(-2.03256e-05 9.33093e-06 0)
(-2.56106e-05 7.71226e-06 0)
(-2.98516e-05 5.91311e-06 0)
(-3.29379e-05 3.99027e-06 0)
(-3.48023e-05 2.03738e-06 0)
(-3.54111e-05 1.06724e-07 0)
(-3.47902e-05 -1.74286e-06 0)
(-3.29769e-05 -3.45893e-06 0)
(-3.00564e-05 -5.00226e-06 0)
(-2.61327e-05 -6.33845e-06 0)
(-2.13375e-05 -7.44159e-06 0)
(-1.58186e-05 -8.28975e-06 0)
(-9.74344e-06 -8.86841e-06 0)
(-3.29453e-06 -9.1631e-06 0)
(-2.65396e-06 -0.000125035 0)
(-7.90806e-06 -0.000127413 0)
(-1.28128e-05 -0.000130651 0)
(-1.71009e-05 -0.000135484 0)
(-2.04545e-05 -0.000141881 0)
(-2.26451e-05 -0.000149755 0)
(-2.34398e-05 -0.000158993 0)
(-2.24674e-05 -0.000169403 0)
(-1.96822e-05 -0.000180709 0)
(-1.48266e-05 -0.00019262 0)
(-7.77101e-06 -0.000204793 0)
(1.29125e-06 -0.000216917 0)
(1.26347e-05 -0.000228612 0)
(2.63323e-05 -0.000239523 0)
(4.20265e-05 -0.000249325 0)
(5.96125e-05 -0.000257658 0)
(7.89945e-05 -0.000264244 0)
(9.99877e-05 -0.000268665 0)
(0.000122173 -0.000270678 0)
(0.000145296 -0.000269996 0)
(0.000169156 -0.000266488 0)
(0.000193175 -0.000259994 0)
(0.00021713 -0.000250473 0)
(0.000240327 -0.000237886 0)
(0.000262571 -0.000222328 0)
(0.000283589 -0.000203923 0)
(0.000302455 -0.000182838 0)
(0.000319246 -0.000159344 0)
(0.000333689 -0.000133915 0)
(0.000345291 -0.000106852 0)
(0.000353545 -7.84879e-05 0)
(0.000358377 -4.93531e-05 0)
(0.000359829 -1.97298e-05 0)
(0.000358249 9.81785e-06 0)
(0.000354011 3.88484e-05 0)
(0.000346674 6.71048e-05 0)
(0.000336124 9.41242e-05 0)
(0.000322378 0.000119674 0)
(0.000305807 0.000143407 0)
(0.000286539 0.000165077 0)
(0.00026482 0.000184435 0)
(0.000241142 0.00020131 0)
(0.000215712 0.000215545 0)
(0.000188874 0.000227029 0)
(0.000161004 0.000235693 0)
(0.000132372 0.000241492 0)
(0.00010336 0.000244388 0)
(7.42448e-05 0.000244433 0)
(4.53638e-05 0.00024169 0)
(1.71153e-05 0.000236275 0)
(-1.01911e-05 0.000228228 0)
(-3.63523e-05 0.00021771 0)
(-6.11871e-05 0.000204869 0)
(-8.42271e-05 0.000189885 0)
(-0.000104928 0.00017299 0)
(-0.000123871 0.00015434 0)
(-0.000140225 0.000134234 0)
(-0.000153797 0.000112943 0)
(-0.000164639 9.06733e-05 0)
(-0.000172531 6.76951e-05 0)
(-0.000177555 4.43297e-05 0)
(-0.000179427 2.08338e-05 0)
(-0.000178228 -2.41912e-06 0)
(-0.000173885 -2.52949e-05 0)
(-0.000166506 -4.73843e-05 0)
(-0.000156283 -6.84096e-05 0)
(-0.000143424 -8.80934e-05 0)
(-0.00012775 -0.000106188 0)
(-0.000109741 -0.000122376 0)
(-8.95415e-05 -0.000136458 0)
(-6.74306e-05 -0.000148201 0)
(-4.38083e-05 -0.000157415 0)
(-1.89342e-05 -0.000163951 0)
(6.80208e-06 -0.000167752 0)
(3.29735e-05 -0.00016871 0)
(5.91129e-05 -0.000166775 0)
(8.46889e-05 -0.000161976 0)
(0.000109386 -0.000154372 0)
(0.000132778 -0.000144055 0)
(0.000154434 -0.000131213 0)
(0.000173914 -0.000116027 0)
(0.000190769 -9.87472e-05 0)
(0.000204743 -7.96971e-05 0)
(0.000215488 -5.91927e-05 0)
(0.000222763 -3.76726e-05 0)
(0.000226408 -1.54825e-05 0)
(0.00022611 6.90988e-06 0)
(0.000221895 2.90502e-05 0)
(0.000213885 5.04958e-05 0)
(0.000202224 7.08238e-05 0)
(0.000187058 8.95582e-05 0)
(0.000168622 0.000106298 0)
(0.000147349 0.000120635 0)
(0.000123614 0.000132232 0)
(9.79558e-05 0.000140807 0)
(7.09397e-05 0.000146148 0)
(4.31584e-05 0.000148112 0)
(1.52933e-05 0.000146635 0)
(-1.20002e-05 0.000141751 0)
(-3.803e-05 0.00013359 0)
(-6.21827e-05 0.000122348 0)
(-8.38817e-05 0.000108351 0)
(-0.00010249 9.19712e-05 0)
(-0.000117577 7.3698e-05 0)
(-0.000128754 5.40755e-05 0)
(-0.000135719 3.36563e-05 0)
(-0.000138419 1.31102e-05 0)
(-0.000136735 -6.89582e-06 0)
(-0.000130762 -2.57937e-05 0)
(-0.000120917 -4.29886e-05 0)
(-0.000107559 -5.78954e-05 0)
(-9.12095e-05 -7.00382e-05 0)
(-7.2537e-05 -7.9019e-05 0)
(-5.22894e-05 -8.45623e-05 0)
(-3.13025e-05 -8.65072e-05 0)
(-1.03617e-05 -8.48476e-05 0)
(9.60523e-06 -7.96979e-05 0)
(2.7817e-05 -7.13533e-05 0)
(4.35393e-05 -6.02015e-05 0)
(5.61056e-05 -4.68129e-05 0)
(6.50081e-05 -3.17958e-05 0)
(6.98891e-05 -1.58839e-05 0)
(7.05078e-05 1.8639e-07 0)
(6.69515e-05 1.56077e-05 0)
(5.95586e-05 2.96813e-05 0)
(4.8673e-05 4.16944e-05 0)
(3.49416e-05 5.11214e-05 0)
(1.9168e-05 5.7434e-05 0)
(2.05434e-06 6.03902e-05 0)
(-1.53436e-05 5.99069e-05 0)
(-3.18821e-05 5.60545e-05 0)
(-4.67993e-05 4.91034e-05 0)
(-5.92485e-05 3.95218e-05 0)
(-6.85527e-05 2.79052e-05 0)
(-7.42212e-05 1.49687e-05 0)
(-7.58766e-05 1.49083e-06 0)
(-7.3523e-05 -1.16546e-05 0)
(-6.74417e-05 -2.37956e-05 0)
(-5.7997e-05 -3.42325e-05 0)
(-4.57757e-05 -4.23681e-05 0)
(-3.15582e-05 -4.7795e-05 0)
(-1.62364e-05 -5.02373e-05 0)
(-6.91335e-07 -4.97475e-05 0)
(1.41607e-05 -4.63527e-05 0)
(2.73879e-05 -4.04327e-05 0)
(3.83025e-05 -3.24592e-05 0)
(4.63541e-05 -2.29823e-05 0)
(5.1193e-05 -1.26669e-05 0)
(5.26528e-05 -2.17278e-06 0)
(5.07704e-05 7.83693e-06 0)
(4.58743e-05 1.67969e-05 0)
(3.83306e-05 2.42616e-05 0)
(2.8708e-05 2.98021e-05 0)
(1.77247e-05 3.32422e-05 0)
(6.04535e-06 3.4442e-05 0)
(-5.56257e-06 3.34651e-05 0)
(-1.63865e-05 3.05402e-05 0)
(-2.58252e-05 2.59098e-05 0)
(-3.33899e-05 1.99591e-05 0)
(-3.87126e-05 1.30976e-05 0)
(-4.15472e-05 5.78848e-06 0)
(-4.18274e-05 -1.53582e-06 0)
(-3.96145e-05 -8.47896e-06 0)
(-3.5105e-05 -1.46642e-05 0)
(-2.86454e-05 -1.98199e-05 0)
(-2.06047e-05 -2.37061e-05 0)
(-1.14573e-05 -2.62099e-05 0)
(-1.66188e-06 -2.72467e-05 0)
(8.25119e-06 -2.69024e-05 0)
(1.76967e-05 -2.52413e-05 0)
(2.63038e-05 -2.24362e-05 0)
(3.36947e-05 -1.86864e-05 0)
(3.95539e-05 -1.42381e-05 0)
(4.36687e-05 -9.33709e-06 0)
(4.59047e-05 -4.24446e-06 0)
(4.62305e-05 7.94273e-07 0)
(4.46999e-05 5.56077e-06 0)
(4.14382e-05 9.86447e-06 0)
(3.66369e-05 1.35389e-05 0)
(3.05573e-05 1.6479e-05 0)
(2.34892e-05 1.86088e-05 0)
(1.5738e-05 1.98949e-05 0)
(7.64796e-06 2.03445e-05 0)
(-4.89315e-07 1.99974e-05 0)
(-8.36313e-06 1.89275e-05 0)
(-1.56757e-05 1.72212e-05 0)
(-2.21984e-05 1.49901e-05 0)
(-2.77329e-05 1.2342e-05 0)
(-3.21356e-05 9.414e-06 0)
(-3.52819e-05 6.31265e-06 0)
(-3.7121e-05 3.16471e-06 0)
(-3.76438e-05 6.12559e-08 0)
(-3.6868e-05 -2.89829e-06 0)
(-3.48546e-05 -5.63929e-06 0)
(-3.16951e-05 -8.09766e-06 0)
(-2.75034e-05 -1.02212e-05 0)
(-2.24205e-05 -1.19712e-05 0)
(-1.66017e-05 -1.33154e-05 0)
(-1.02176e-05 -1.42305e-05 0)
(-3.45351e-06 -1.46966e-05 0)
(-1.04493e-05 4.77571e-05 0)
(-3.10271e-05 4.449e-05 0)
(-5.09353e-05 3.58052e-05 0)
(-6.95928e-05 2.27925e-05 0)
(-8.64188e-05 5.62552e-06 0)
(-0.000100894 -1.54622e-05 0)
(-0.000112306 -4.0007e-05 0)
(-0.000119387 -6.77121e-05 0)
(-0.000121583 -9.79907e-05 0)
(-0.000118585 -0.000130175 0)
(-0.00011024 -0.000163494 0)
(-9.65021e-05 -0.000197217 0)
(-7.72731e-05 -0.000230412 0)
(-5.29188e-05 -0.000262265 0)
(-2.37351e-05 -0.000291842 0)
(9.86794e-06 -0.000318292 0)
(4.80384e-05 -0.000340789 0)
(9.01986e-05 -0.000358642 0)
(0.000135434 -0.00037125 0)
(0.000182769 -0.000378132 0)
(0.000231242 -0.000378824 0)
(0.000280061 -0.000373105 0)
(0.000328331 -0.000360929 0)
(0.000375033 -0.000342276 0)
(0.00041904 -0.00031757 0)
(0.000459848 -0.000287048 0)
(0.000496424 -0.000251425 0)
(0.000527098 -0.000211448 0)
(0.000551667 -0.000167852 0)
(0.000570729 -0.000121659 0)
(0.00058318 -7.36874e-05 0)
(0.000589481 -2.48635e-05 0)
(0.000589254 2.3864e-05 0)
(0.000581522 7.20649e-05 0)
(0.000567991 0.000118691 0)
(0.000549007 0.000163208 0)
(0.000524941 0.000204963 0)
(0.000496501 0.000243586 0)
(0.000463865 0.000278619 0)
(0.000427648 0.000309722 0)
(0.000388401 0.000336713 0)
(0.000346707 0.000359362 0)
(0.000303111 0.00037755 0)
(0.000258124 0.000391206 0)
(0.000212297 0.000400307 0)
(0.000166034 0.000404863 0)
(0.000119928 0.000404908 0)
(7.4635e-05 0.000400671 0)
(3.0635e-05 0.000392209 0)
(-1.19753e-05 0.000379752 0)
(-5.27501e-05 0.000363417 0)
(-9.11225e-05 0.000343569 0)
(-0.000126823 0.000320322 0)
(-0.000159379 0.000294242 0)
(-0.000188707 0.000265344 0)
(-0.000214495 0.000234126 0)
(-0.000236184 0.000200972 0)
(-0.000253904 0.000166333 0)
(-0.000267687 0.000130377 0)
(-0.000277059 9.36407e-05 0)
(-0.000282067 5.65761e-05 0)
(-0.000282495 1.95341e-05 0)
(-0.000278662 -1.68286e-05 0)
(-0.000270722 -5.23445e-05 0)
(-0.000258354 -8.63688e-05 0)
(-0.00024195 -0.000118633 0)
(-0.000221796 -0.000148575 0)
(-0.000197936 -0.000175877 0)
(-0.00017076 -0.000200113 0)
(-0.000140807 -0.000220977 0)
(-0.000108378 -0.00023813 0)
(-7.39444e-05 -0.000251351 0)
(-3.80542e-05 -0.000260377 0)
(-1.22322e-06 -0.000265117 0)
(3.59941e-05 -0.000265413 0)
(7.29026e-05 -0.000261313 0)
(0.000108988 -0.000252779 0)
(0.000143587 -0.000239944 0)
(0.000176089 -0.000222985 0)
(0.000205956 -0.000202179 0)
(0.000232623 -0.000177876 0)
(0.000255573 -0.000150476 0)
(0.000274325 -0.000120455 0)
(0.000288414 -8.83613e-05 0)
(0.000297624 -5.47378e-05 0)
(0.000301755 -2.0298e-05 0)
(0.000300433 1.43168e-05 0)
(0.000293717 4.8428e-05 0)
(0.000281822 8.13466e-05 0)
(0.000264899 0.000112378 0)
(0.000243192 0.000140811 0)
(0.000217105 0.000166023 0)
(0.000187176 0.000187433 0)
(0.000154064 0.000204536 0)
(0.000118508 0.000216918 0)
(8.12701e-05 0.000224227 0)
(4.32389e-05 0.000226322 0)
(5.32725e-06 0.000223092 0)
(-3.1537e-05 0.00021467 0)
(-6.64309e-05 0.000201208 0)
(-9.84787e-05 0.000183092 0)
(-0.000126869 0.000160812 0)
(-0.000150851 0.000135001 0)
(-0.000169727 0.000106419 0)
(-0.000183124 7.58524e-05 0)
(-0.000190653 4.43038e-05 0)
(-0.000192015 1.26477e-05 0)
(-0.000187402 -1.79806e-05 0)
(-0.000177134 -4.67709e-05 0)
(-0.000161568 -7.27427e-05 0)
(-0.00014129 -9.50506e-05 0)
(-0.000117087 -0.000112952 0)
(-8.99301e-05 -0.000125881 0)
(-6.08674e-05 -0.000133431 0)
(-3.10568e-05 -0.000135409 0)
(-1.67772e-06 -0.000131794 0)
(2.60576e-05 -0.000122875 0)
(5.10476e-05 -0.000109072 0)
(7.22348e-05 -9.10546e-05 0)
(8.87712e-05 -6.97132e-05 0)
(0.000100047 -4.59826e-05 0)
(0.000105624 -2.10962e-05 0)
(0.000105216 3.83188e-06 0)
(9.89919e-05 2.76332e-05 0)
(8.74797e-05 4.91819e-05 0)
(7.12776e-05 6.73812e-05 0)
(5.12311e-05 8.14029e-05 0)
(2.84906e-05 9.05457e-05 0)
(4.26253e-06 9.44651e-05 0)
(-2.00436e-05 9.29897e-05 0)
(-4.29948e-05 8.63918e-05 0)
(-6.34291e-05 7.5076e-05 0)
(-8.01832e-05 5.98332e-05 0)
(-9.2422e-05 4.1592e-05 0)
(-9.95008e-05 2.15175e-05 0)
(-0.000101008 7.9817e-07 0)
(-9.70868e-05 -1.93078e-05 0)
(-8.81349e-05 -3.76807e-05 0)
(-7.47152e-05 -5.32235e-05 0)
(-5.77347e-05 -6.51287e-05 0)
(-3.83058e-05 -7.28011e-05 0)
(-1.77204e-05 -7.59233e-05 0)
(2.91265e-06 -7.45346e-05 0)
(2.23359e-05 -6.88485e-05 0)
(3.9288e-05 -5.94582e-05 0)
(5.29653e-05 -4.70818e-05 0)
(6.2727e-05 -3.26454e-05 0)
(6.8152e-05 -1.71009e-05 0)
(6.90909e-05 -1.47993e-06 0)
(6.57527e-05 1.32796e-05 0)
(5.86321e-05 2.63535e-05 0)
(4.8238e-05 3.69959e-05 0)
(3.54147e-05 4.47906e-05 0)
(2.10645e-05 4.93628e-05 0)
(6.06607e-06 5.06774e-05 0)
(-8.56388e-06 4.88536e-05 0)
(-2.20003e-05 4.41969e-05 0)
(-3.35214e-05 3.71553e-05 0)
(-4.25465e-05 2.82805e-05 0)
(-4.86639e-05 1.821e-05 0)
(-5.16588e-05 7.58792e-06 0)
(-5.153e-05 -2.94365e-06 0)
(-4.84126e-05 -1.28203e-05 0)
(-4.25936e-05 -2.15362e-05 0)
(-3.45095e-05 -2.86947e-05 0)
(-2.46719e-05 -3.40088e-05 0)
(-1.36537e-05 -3.7312e-05 0)
(-2.02509e-06 -3.85736e-05 0)
(9.57255e-06 -3.78522e-05 0)
(2.05075e-05 -3.53191e-05 0)
(3.03436e-05 -3.12014e-05 0)
(3.86615e-05 -2.58101e-05 0)
(4.513e-05 -1.94844e-05 0)
(4.95434e-05 -1.2582e-05 0)
(5.17755e-05 -5.46476e-06 0)
(5.18345e-05 1.53335e-06 0)
(4.98111e-05 8.10811e-06 0)
(4.58655e-05 1.39936e-05 0)
(4.02578e-05 1.89914e-05 0)
(3.32904e-05 2.29434e-05 0)
(2.52948e-05 2.57704e-05 0)
(1.66298e-05 2.74264e-05 0)
(7.67434e-06 2.79385e-05 0)
(-1.25076e-06 2.73604e-05 0)
(-9.80786e-06 2.58037e-05 0)
(-1.76862e-05 2.33934e-05 0)
(-2.46539e-05 2.02816e-05 0)
(-3.05018e-05 1.66305e-05 0)
(-3.5082e-05 1.26097e-05 0)
(-3.82979e-05 8.38274e-06 0)
(-4.01029e-05 4.09793e-06 0)
(-4.04943e-05 -9.63764e-08 0)
(-3.95153e-05 -4.08986e-06 0)
(-3.7238e-05 -7.77247e-06 0)
(-3.37689e-05 -1.10651e-05 0)
(-2.92358e-05 -1.3903e-05 0)
(-2.37882e-05 -1.62341e-05 0)
(-1.75882e-05 -1.80233e-05 0)
(-1.08138e-05 -1.92401e-05 0)
(-3.65299e-06 -1.98583e-05 0)
(-3.11928e-05 0.000190911 0)
(-9.30482e-05 0.000178621 0)
(-0.000153317 0.00015733 0)
(-0.000210335 0.000125478 0)
(-0.000262614 8.35622e-05 0)
(-0.000308258 3.20918e-05 0)
(-0.000346752 -2.73796e-05 0)
(-0.000377064 -9.41596e-05 0)
(-0.000397073 -0.000165495 0)
(-0.000405748 -0.000240868 0)
(-0.000402937 -0.000317626 0)
(-0.000388195 -0.000394289 0)
(-0.000361126 -0.000468635 0)
(-0.000322051 -0.000539032 0)
(-0.000271401 -0.000603578 0)
(-0.000210217 -0.000660735 0)
(-0.000139782 -0.0007089 0)
(-6.17582e-05 -0.000746811 0)
(2.21091e-05 -0.000773364 0)
(0.00011059 -0.000787764 0)
(0.000201933 -0.000789031 0)
(0.000293338 -0.000776938 0)
(0.000383465 -0.000751347 0)
(0.000469294 -0.000712738 0)
(0.000549366 -0.000661469 0)
(0.000622107 -0.000598935 0)
(0.000684359 -0.000525958 0)
(0.000736107 -0.000445636 0)
(0.000776096 -0.000358134 0)
(0.000803874 -0.000267201 0)
(0.000819593 -0.000174089 0)
(0.000822968 -8.19502e-05 0)
(0.000816433 8.43325e-06 0)
(0.00080002 9.52497e-05 0)
(0.000773991 0.000177482 0)
(0.000739945 0.000254003 0)
(0.000698651 0.000324075 0)
(0.000651162 0.000386991 0)
(0.000598065 0.000442399 0)
(0.000540769 0.000490047 0)
(0.000480089 0.000529847 0)
(0.000416806 0.000561687 0)
(0.000351833 0.000585906 0)
(0.000285932 0.000602457 0)
(0.000219802 0.000611698 0)
(0.000153936 0.000613819 0)
(8.95457e-05 0.000609217 0)
(2.69941e-05 0.000598192 0)
(-3.34166e-05 0.000581088 0)
(-9.11446e-05 0.000558236 0)
(-0.000145447 0.000530152 0)
(-0.000196142 0.000497195 0)
(-0.00024243 0.000459902 0)
(-0.000284243 0.000418589 0)
(-0.000321422 0.000373868 0)
(-0.000353262 0.000326174 0)
(-0.000379239 0.00027608 0)
(-0.000399988 0.00022404 0)
(-0.000415365 0.000170776 0)
(-0.000424275 0.000116815 0)
(-0.000427518 6.27141e-05 0)
(-0.000424272 9.28773e-06 0)
(-0.000415311 -4.33367e-05 0)
(-0.000400735 -9.40395e-05 0)
(-0.000380342 -0.000142569 0)
(-0.0003547 -0.000188067 0)
(-0.000323961 -0.000230172 0)
(-0.000288482 -0.000268158 0)
(-0.000248836 -0.000301683 0)
(-0.000205515 -0.00033017 0)
(-0.000159091 -0.000353274 0)
(-0.000110258 -0.000370617 0)
(-5.97006e-05 -0.000381948 0)
(-8.1312e-06 -0.000387054 0)
(4.36119e-05 -0.000385849 0)
(9.47013e-05 -0.000378306 0)
(0.000144397 -0.000364488 0)
(0.000191798 -0.000344626 0)
(0.000236125 -0.000318968 0)
(0.000276526 -0.000287956 0)
(0.00031229 -0.000252011 0)
(0.000342735 -0.000211789 0)
(0.000367296 -0.000167938 0)
(0.000385526 -0.000121281 0)
(0.000396869 -7.26712e-05 0)
(0.000401048 -2.31134e-05 0)
(0.000397962 2.63999e-05 0)
(0.000387614 7.50082e-05 0)
(0.0003702 0.000121735 0)
(0.000345936 0.000165521 0)
(0.000315246 0.00020546 0)
(0.000278791 0.000240621 0)
(0.000237353 0.000270203 0)
(0.000191773 0.000293469 0)
(0.000143023 0.000309882 0)
(9.23156e-05 0.000319022 0)
(4.08198e-05 0.000320656 0)
(-1.01808e-05 0.000314724 0)
(-5.94576e-05 0.000301353 0)
(-0.000105807 0.000280879 0)
(-0.000147955 0.000253871 0)
(-0.000184865 0.000221034 0)
(-0.000215439 0.000183358 0)
(-0.000239013 0.000141882 0)
(-0.000254852 9.78363e-05 0)
(-0.000262597 5.25491e-05 0)
(-0.000262035 7.50735e-06 0)
(-0.000253328 -3.60217e-05 0)
(-0.000237018 -7.6609e-05 0)
(-0.000213555 -0.000112916 0)
(-0.000183867 -0.000143792 0)
(-0.000149101 -0.000168192 0)
(-0.000110617 -0.000185367 0)
(-6.99017e-05 -0.000194732 0)
(-2.8522e-05 -0.000196068 0)
(1.1873e-05 -0.00018945 0)
(4.96002e-05 -0.000175281 0)
(8.32664e-05 -0.000154244 0)
(0.000111393 -0.000127358 0)
(0.000132945 -9.5813e-05 0)
(0.000146973 -6.11995e-05 0)
(0.000152951 -2.50993e-05 0)
(0.000150854 1.07848e-05 0)
(0.000140885 4.47666e-05 0)
(0.000123645 7.52435e-05 0)
(0.000100067 0.000100696 0)
(7.15052e-05 0.000119955 0)
(3.95967e-05 0.000132119 0)
(5.92384e-06 0.000136767 0)
(-2.75078e-05 0.000133631 0)
(-5.87085e-05 0.000123162 0)
(-8.61778e-05 0.000106105 0)
(-0.000108363 8.35826e-05 0)
(-0.000124141 5.70503e-05 0)
(-0.00013275 2.81376e-05 0)
(-0.0001338 -1.36066e-06 0)
(-0.000127519 -2.98198e-05 0)
(-0.000114515 -5.5436e-05 0)
(-9.56825e-05 -7.68301e-05 0)
(-7.23786e-05 -9.28875e-05 0)
(-4.6101e-05 -0.000102837 0)
(-1.86206e-05 -0.000106328 0)
(8.48543e-06 -0.00010339 0)
(3.35991e-05 -9.46047e-05 0)
(5.51735e-05 -8.07821e-05 0)
(7.21654e-05 -6.30047e-05 0)
(8.38102e-05 -4.2575e-05 0)
(8.9705e-05 -2.0911e-05 0)
(8.97797e-05 5.82931e-07 0)
(8.44106e-05 2.07021e-05 0)
(7.42313e-05 3.82341e-05 0)
(6.01392e-05 5.22885e-05 0)
(4.3192e-05 6.22857e-05 0)
(2.45718e-05 6.78381e-05 0)
(5.51586e-06 6.89695e-05 0)
(-1.28214e-05 6.58841e-05 0)
(-2.93845e-05 5.90554e-05 0)
(-4.33315e-05 4.91372e-05 0)
(-5.40057e-05 3.69122e-05 0)
(-6.09824e-05 2.32408e-05 0)
(-6.40616e-05 8.99838e-06 0)
(-6.33082e-05 -5.00269e-06 0)
(-5.89691e-05 -1.79643e-05 0)
(-5.14509e-05 -2.92827e-05 0)
(-4.135e-05 -3.84478e-05 0)
(-2.92923e-05 -4.51116e-05 0)
(-1.60192e-05 -4.91078e-05 0)
(-2.21716e-06 -5.04209e-05 0)
(1.13879e-05 -4.91689e-05 0)
(2.40604e-05 -4.55908e-05 0)
(3.53106e-05 -4.00068e-05 0)
(4.46738e-05 -3.28386e-05 0)
(5.18125e-05 -2.4532e-05 0)
(5.65171e-05 -1.55633e-05 0)
(5.86963e-05 -6.38739e-06 0)
(5.83936e-05 2.57261e-06 0)
(5.57419e-05 1.09225e-05 0)
(5.09745e-05 1.83441e-05 0)
(4.43926e-05 2.4595e-05 0)
(3.63685e-05 2.94828e-05 0)
(2.72921e-05 3.29195e-05 0)
(1.7562e-05 3.48667e-05 0)
(7.60416e-06 3.53654e-05 0)
(-2.22389e-06 3.44924e-05 0)
(-1.15587e-05 3.24066e-05 0)
(-2.00774e-05 2.92618e-05 0)
(-2.75309e-05 2.5262e-05 0)
(-3.37153e-05 2.06135e-05 0)
(-3.84942e-05 1.55291e-05 0)
(-4.17706e-05 1.02136e-05 0)
(-4.35125e-05 4.85539e-06 0)
(-4.37455e-05 -3.72459e-07 0)
(-4.25238e-05 -5.3239e-06 0)
(-3.9936e-05 -9.87759e-06 0)
(-3.61105e-05 -1.39344e-05 0)
(-3.11845e-05 -1.74208e-05 0)
(-2.53218e-05 -2.02785e-05 0)
(-1.86947e-05 -2.24639e-05 0)
(-1.14817e-05 -2.39466e-05 0)
(-3.87613e-06 -2.47001e-05 0)
(-7.25389e-05 0.00078592 0)
(-0.000216364 0.000763265 0)
(-0.000356801 0.000718083 0)
(-0.00048971 0.000650382 0)
(-0.00061236 0.00056119 0)
(-0.000718869 0.000451248 0)
(-0.000808032 0.000324273 0)
(-0.000873034 0.000180861 0)
(-0.000914641 2.92272e-05 0)
(-0.000932862 -0.000132408 0)
(-0.000923337 -0.000298935 0)
(-0.000888836 -0.000466302 0)
(-0.000829151 -0.000628214 0)
(-0.000746914 -0.000780425 0)
(-0.000643508 -0.000918997 0)
(-0.000521433 -0.00104063 0)
(-0.000382527 -0.00114241 0)
(-0.00023007 -0.00122178 0)
(-6.76693e-05 -0.0012767 0)