/*--------------------------------*- C++ -*----------------------------------*\
  =========                 |
  \\      /  F ield         | OpenFOAM: The Open Source CFD Toolbox
   \\    /   O peration     | Website:  https://openfoam.org
    \\  /    A nd           | Version:  12
     \\/     M anipulation  |
\*---------------------------------------------------------------------------*/
FoamFile
{
    format      ascii;
    class       volScalarField;
    location    "100";
    object      epsilon;
}
// * * * * * * * * * * * * * * * * * * * * * * * * * * * * * * * * * * * * * //

dimensions      [0 2 -3 0 0 0 0];

internalField   nonuniform List<scalar> 
5000
(
0.124484
0.107007
0.0932771
0.0825062
0.0735881
0.0664697
0.0603523
0.055424
0.0512572
0.0472962
0.0449263
0.0414346
0.0379334
0.0363602
0.0336104
0.0324355
0.0301675
0.0292322
0.0273436
0.0265623
0.0249627
0.0242942
0.0235604
0.0222251
0.0214673
0.124512
0.106956
0.093343
0.0824184
0.0736875
0.0663849
0.0603895
0.0552881
0.051024
0.0476723
0.0451438
0.0419636
0.0397639
0.0367021
0.0337976
0.0324888
0.0301899
0.0291598
0.0272745
0.0264488
0.0248693
0.0241935
0.0234651
0.0221466
0.0214099
0.124511
0.106957
0.093338
0.0824397
0.0736528
0.0664402
0.0604492
0.0558959
0.0505225
0.0471936
0.0431795
0.0416776
0.0383449
0.0370396
0.034227
0.0331206
0.0311022
0.0288956
0.0278651
0.0260926
0.0252863
0.0238197
0.0231546
0.0219124
0.0213415
0.124479
0.107007
0.0932844
0.0824946
0.0736079
0.0664774
0.0604013
0.0558533
0.0506746
0.0471755
0.0430863
0.0414376
0.038125
0.0369793
0.0345057
0.0319018
0.0307633
0.0286748
0.0277525
0.0260191
0.0252829
0.0244771
0.0230559
0.0223691
0.0211902
0.124508
0.106962
0.0933386
0.0824205
0.073693
0.0663568
0.0604212
0.0552812
0.0511253
0.0478126
0.044543
0.0421475
0.0388845
0.0357259
0.0342803
0.0317679
0.0306864
0.0286255
0.0277434
0.0260174
0.0252904
0.0244939
0.0230691
0.0223776
0.0211943
0.124488
0.106999
0.0932883
0.0824943
0.0736026
0.0664587
0.0603278
0.0554583
0.0512196
0.0477772
0.0435476
0.0419913
0.0389161
0.0357464
0.0343494
0.0318352
0.0307598
0.0286971
0.0277966
0.0260709
0.0253325
0.024538
0.0231083
0.0224235
0.0212436
0.124511
0.106958
0.0933349
0.0824365
0.0736648
0.0664018
0.060503
0.0550581
0.0505567
0.0461194
0.0439327
0.0403012
0.0388672
0.0358492
0.0346544
0.0321634
0.0310708
0.0296533
0.0276338
0.0266437
0.0249984
0.0242221
0.0228491
0.0222222
0.0210632
0.124505
0.106976
0.0933113
0.0824792
0.0736034
0.0664695
0.0603602
0.0552786
0.0510814
0.0477255
0.0441591
0.0403192
0.0388006
0.0357875
0.0345725
0.032091
0.031081
0.0289706
0.0280084
0.0269652
0.0252414
0.0243918
0.0229725
0.0222782
0.0211685
0.124511
0.106957
0.0933388
0.0824355
0.0736744
0.0664437
0.0604416
0.0558909
0.0515279
0.0463721
0.0445298
0.0407475
0.0392588
0.0361757
0.0350207
0.0327924
0.0304148
0.0293083
0.0273902
0.0265064
0.0248997
0.0241758
0.0228256
0.0222437
0.0215028
0.124504
0.106979
0.0933068
0.0824893
0.0735893
0.0664894
0.0603308
0.0553674
0.0511689
0.0477903
0.0440622
0.0402406
0.0386939
0.0357095
0.0344832
0.032024
0.0310145
0.0289162
0.0279756
0.0269622
0.0252531
0.0244048
0.0229912
0.0222857
0.0211936
0.12451
0.106958
0.0933392
0.0824206
0.0736971
0.0663492
0.0604441
0.0553069
0.0509334
0.0474884
0.0447012
0.0412351
0.0377812
0.0363025
0.0335763
0.0324662
0.0302308
0.0293037
0.0274073
0.0265916
0.0256911
0.0241288
0.0233643
0.0220515
0.0213227
0.124511
0.106958
0.0933408
0.0824194
0.0737012
0.0663411
0.0604545
0.0552865
0.0509438
0.0474939
0.0447136
0.0412497
0.0378041
0.0362962
0.033572
0.0324245
0.0301782
0.0292345
0.0273408
0.0265351
0.0256505
0.0241001
0.0233487
0.0220442
0.0213222
0.124495
0.106982
0.0933121
0.0824573
0.0736399
0.0664287
0.0604077
0.0551682
0.0507935
0.0462287
0.044013
0.0403504
0.0388626
0.0358885
0.0348001
0.0326915
0.0303126
0.029247
0.0273408
0.0264848
0.024899
0.0241898
0.0228477
0.0222612
0.0215151
0.124509
0.106962
0.0933271
0.0824412
0.0736787
0.0663618
0.0605026
0.0552224
0.0507125
0.0469953
0.0428036
0.0411369
0.037862
0.0365476
0.0338397
0.032772
0.0304647
0.029392
0.0282335
0.0263702
0.0254543
0.0239299
0.0232104
0.0219409
0.0212345
0.124514
0.106953
0.0933415
0.0824343
0.0736604
0.0664268
0.0604344
0.0558665
0.0505344
0.0471731
0.0430986
0.0415217
0.038175
0.036804
0.0340618
0.0330156
0.0311089
0.0289073
0.0278844
0.0261154
0.0252853
0.0238097
0.0231383
0.021896
0.0213315
0.124486
0.106996
0.0932977
0.0824793
0.0736382
0.0664202
0.0604431
0.0552285
0.0512962
0.0479762
0.0443892
0.0422871
0.0390432
0.0358729
0.0344595
0.0319688
0.0308683
0.0287761
0.0278688
0.0268764
0.0251926
0.0243796
0.0229837
0.0223348
0.0211756
0.124486
0.106997
0.0932961
0.0824791
0.0736338
0.066419
0.0604129
0.0552721
0.0507766
0.0471111
0.0429367
0.0411687
0.0378582
0.0365052
0.0338342
0.0326102
0.0310951
0.028916
0.0278848
0.026128
0.0253217
0.0238543
0.0232004
0.0219589
0.0213996
0.124512
0.106954
0.0933416
0.0824276
0.0736814
0.0664254
0.0604647
0.0558676
0.051609
0.046347
0.0445311
0.0407992
0.0393074
0.0362208
0.0350978
0.0327845
0.0303896
0.0292752
0.0273475
0.0264628
0.0248629
0.0241504
0.0228077
0.0222336
0.0215029
0.124514
0.106955
0.0933362
0.0824366
0.0736625
0.0664069
0.0605054
0.0550522
0.0505375
0.0461151
0.043967
0.0403712
0.038949
0.0359455
0.0347631
0.0322472
0.0310961
0.0296498
0.0276163
0.0266121
0.024968
0.024192
0.0228291
0.022216
0.021064
0.124517
0.106947
0.0933493
0.0824175
0.0736802
0.0663856
0.0604495
0.055291
0.0515924
0.0481452
0.043741
0.0422365
0.0387291
0.0372774
0.034629
0.0319934
0.0307846
0.028681
0.0277199
0.0259813
0.0252082
0.0237524
0.0231338
0.0224464
0.0212869
0.119798
0.0961475
0.078837
0.065913
0.0559055
0.0480982
0.0419696
0.0369349
0.0330096
0.0294172
0.0259308
0.0236942
0.0212973
0.0194
0.0179057
0.0165693
0.0153484
0.0142708
0.0133049
0.0124431
0.0116621
0.0109595
0.0103207
0.0097354
0.00919973
0.119802
0.0961428
0.0788408
0.0659094
0.055905
0.0481055
0.0419678
0.0369677
0.0329317
0.0294789
0.0257492
0.0237307
0.0214584
0.0196103
0.0180906
0.0167388
0.0154851
0.0143763
0.013384
0.0125001
0.0117021
0.0109865
0.0103382
0.00974633
0.00920643
0.1198
0.0961432
0.0788359
0.0659214
0.0558898
0.0481442
0.0419128
0.0370782
0.0328009
0.0293402
0.0268285
0.0232288
0.0210054
0.0194291
0.0179465
0.0166378
0.0154615
0.014382
0.0134075
0.0125232
0.0117253
0.0110008
0.0103448
0.00974705
0.00920519
0.119788
0.0961632
0.0788086
0.0659493
0.0558628
0.0481478
0.0419586
0.0370583
0.0328201
0.0293574
0.026812
0.0233152
0.0209852
0.0194153
0.0179372
0.0165804
0.0153795
0.0143012
0.0133355
0.0124628
0.0116775
0.0109684
0.0103193
0.00973071
0.00918994
0.119792
0.0961557
0.0788217
0.0659334
0.0558939
0.0481071
0.041934
0.0370697
0.0327602
0.0295608
0.0263609
0.0230501
0.0215203
0.0196122
0.0180656
0.0166676
0.0154382
0.0143402
0.0133611
0.0124791
0.0116874
0.0109739
0.0103216
0.00973079
0.00918843
0.1198
0.0961428
0.0788323
0.0659256
0.055883
0.0481354
0.0419502
0.037043
0.0327489
0.0296853
0.0262555
0.0229552
0.0216182
0.0195831
0.0180443
0.0166559
0.0154321
0.0143382
0.0133623
0.0124827
0.0116926
0.0109803
0.0103287
0.00973834
0.00919625
0.119792
0.0961578
0.0788251
0.0659304
0.0559003
0.0481014
0.0419899
0.0369789
0.0328374
0.0296819
0.0259339
0.0232652
0.0214493
0.0195609
0.0180156
0.0166635
0.0154652
0.0143835
0.0134047
0.0125255
0.011727
0.0110073
0.0103499
0.00975508
0.00920981
0.119795
0.0961536
0.0788165
0.0659413
0.0558747
0.0481336
0.0419836
0.0369857
0.0328626
0.0296289
0.0259343
0.0233398
0.0214438
0.0195854
0.0180222
0.0166535
0.015445
0.014363
0.0133962
0.0125269
0.011735
0.0110187
0.0103621
0.00976562
0.00921883
0.119799
0.096146
0.0788349
0.0659175
0.0558962
0.0481343
0.0419367
0.0370638
0.0327273
0.0297935
0.026097
0.0231836
0.0214477
0.0195978
0.0180597
0.0167145
0.0154984
0.0143996
0.0134091
0.0125226
0.0117198
0.0109981
0.0103404
0.00974649
0.00920593
0.119796
0.0961534
0.0788154
0.0659415
0.0558729
0.048134
0.0419801
0.0370044
0.032848
0.0295345
0.0261504
0.0233952
0.0215302
0.0196162
0.0180404
0.0166683
0.0154572
0.0143704
0.0133994
0.012527
0.0117332
0.0110157
0.0103589
0.0097625
0.00921626
0.119794
0.0961524
0.0788213
0.0659349
0.0558941
0.0481071
0.0419591
0.0370411
0.032749
0.0298033
0.0259103
0.0234342
0.021563
0.0196064
0.0180209
0.0166488
0.0154247
0.0143356
0.0133563
0.0124816
0.0116937
0.0109776
0.0103277
0.00973398
0.00919225
0.119798
0.0961466
0.0788289
0.0659254
0.0559001
0.0481013
0.0419576
0.037035
0.0327539
0.0297986
0.0258916
0.0234786
0.0215806
0.0196047
0.0180212
0.0166508
0.0154253
0.0143326
0.0133505
0.0124738
0.011685
0.0109688
0.0103194
0.00972659
0.00918595
0.119798
0.0961474
0.0788365
0.0659141
0.0559059
0.0480958
0.0419543
0.0370208
0.0327884
0.0297123
0.0259025
0.0232897
0.0215187
0.0195662
0.0180456
0.0167142
0.0154887
0.0143826
0.0133896
0.0125037
0.0117036
0.0109855
0.0103317
0.00974179
0.00920382
0.1198
0.0961486
0.0788201
0.0659383
0.0558745
0.0481364
0.0420038
0.0369639
0.0328792
0.0296246
0.026148
0.0237701
0.0214878
0.0194686
0.0179561
0.0166322
0.0154315
0.0143568
0.01339
0.0125133
0.0117214
0.0110006
0.0103463
0.0097488
0.00920411
0.119805
0.0961353
0.0788433
0.0659062
0.0559107
0.0480903
0.0419733
0.0369581
0.0328813
0.0295796
0.0261336
0.0237891
0.0214191
0.0195189
0.0179939
0.0166715
0.015471
0.014373
0.0133908
0.0125045
0.0117072
0.010984
0.0103294
0.00973306
0.00919142
0.119786
0.0961686
0.0788009
0.065959
0.0558493
0.0481621
0.0420047
0.0370132
0.0327783
0.0298256
0.0261058
0.0231422
0.0216137
0.0196007
0.0180349
0.0166645
0.0154536
0.0143647
0.0133912
0.0125167
0.0117217
0.0110042
0.0103485
0.00975466
0.00921136
0.119795
0.0961565
0.0788141
0.0659517
0.0558477
0.0481708
0.0419911
0.0369481
0.0330739
0.0289774
0.0264457
0.0239149
0.0211149
0.0194578
0.0179665
0.0166102
0.0154021
0.014322
0.0133567
0.0124848
0.0116986
0.0109836
0.010335
0.00974237
0.00920412
0.119789
0.0961614
0.0788117
0.065947
0.055873
0.0481389
0.0419848
0.0369362
0.0330518
0.0292673
0.0262396
0.0237947
0.0211295
0.0194599
0.0180103
0.0166852
0.0154608
0.0143717
0.0133912
0.0125132
0.0117167
0.0109993
0.0103443
0.00975174
0.00921191
0.119801
0.0961473
0.0788228
0.0659411
0.0558611
0.0481558
0.0420028
0.0369306
0.0329893
0.0294876
0.0260114
0.0237735
0.0211892
0.0194713
0.0179904
0.0166518
0.0154456
0.0143665
0.0133916
0.0125157
0.0117193
0.0110004
0.0103429
0.00974713
0.00920162
0.119801
0.0961425
0.0788353
0.0659199
0.0558903
0.0481308
0.0419677
0.0369808
0.0328384
0.0296558
0.0259839
0.0235367
0.0214551
0.0195868
0.0180565
0.0167131
0.0154935
0.0143805
0.0133884
0.0124964
0.0116966
0.0109734
0.0103209
0.00973037
0.00918993
0.119789
0.0960534
0.0786189
0.0656119
0.0554676
0.0476245
0.0414466
0.0364605
0.0322693
0.0287932
0.0257888
0.0232933
0.0210586
0.0192079
0.017498
0.016111
0.0147576
0.0137082
0.0126018
0.011811
0.0108724
0.0102912
0.00945445
0.00908979
0.00812194
0.11979
0.0960526
0.0786193
0.0656114
0.0554672
0.0476256
0.041449
0.0364622
0.0322687
0.0287966
0.0257916
0.0232899
0.0210585
0.0192112
0.0175021
0.0161158
0.0147611
0.013711
0.0126031
0.0118122
0.0108724
0.0102916
0.00945419
0.00908942
0.00812407
0.119789
0.096053
0.0786186
0.0656126
0.055466
0.0476284
0.0414477
0.0364657
0.0322639
0.0287992
0.0257994
0.0232865
0.0210551
0.0192092
0.0174995
0.0161149
0.0147623
0.013713
0.0126047
0.0118135
0.0108737
0.0102899
0.00946724
0.00902432
0.00821509
0.119788
0.0960548
0.0786159
0.0656153
0.0554637
0.0476283
0.0414508
0.0364648
0.032265
0.0288003
0.025799
0.0232867
0.0210562
0.0192101
0.017499
0.0161117
0.0147575
0.0137081
0.0126008
0.0118105
0.0108713
0.0102908
0.00945333
0.00908848
0.00812279
0.119788
0.0960547
0.0786161
0.0656152
0.0554648
0.0476271
0.0414498
0.0364649
0.0322644
0.0288026
0.0257948
0.0232874
0.0210588
0.0192133
0.0175006
0.0161138
0.0147581
0.0137096
0.0126006
0.0118117
0.0108704
0.0102918
0.00945268
0.00908769
0.00812677
0.119789
0.096053
0.0786178
0.0656136
0.0554645
0.0476283
0.0414498
0.0364633
0.0322648
0.0288032
0.0257923
0.0232865
0.0210584
0.0192129
0.0175003
0.0161134
0.0147577
0.0137092
0.0126003
0.0118115
0.0108705
0.0102918
0.00945286
0.00908797
0.00812721
0.119788
0.0960552
0.0786165
0.0656149
0.0554653
0.047627
0.0414511
0.0364615
0.032269
0.0288003
0.0257906
0.0232898
0.0210588
0.0192104
0.0174995
0.0161148
0.0147617
0.0137127
0.012604
0.0118134
0.0108727
0.0102926
0.00945455
0.00908969
0.00812591
0.119789
0.0960538
0.0786167
0.0656148
0.055464
0.0476285
0.041451
0.0364617
0.0322693
0.0288001
0.02579
0.0232907
0.02106
0.0192107
0.0174997
0.0161132
0.0147596
0.013711
0.0126037
0.0118132
0.0108736
0.0102897
0.00946701
0.00902422
0.00821483
0.119789
0.0960536
0.0786184
0.0656125
0.0554663
0.047627
0.0414487
0.0364642
0.0322651
0.0288026
0.0257919
0.0232875
0.0210579
0.0192106
0.017501
0.0161158
0.0147622
0.0137121
0.0126037
0.0118124
0.0108728
0.0102889
0.00946666
0.0090232
0.00821525
0.119789
0.0960537
0.0786165
0.0656148
0.0554641
0.047628
0.0414512
0.0364622
0.032268
0.0288004
0.0257917
0.0232901
0.0210601
0.0192109
0.0175001
0.0161138
0.0147603
0.0137111
0.0126037
0.0118128
0.0108735
0.0102895
0.00946716
0.00902366
0.00821565
0.119789
0.0960542
0.0786163
0.0656151
0.055465
0.0476271
0.0414508
0.036463
0.0322669
0.0288031
0.0257902
0.0232892
0.0210604
0.019212
0.0174993
0.0161131
0.014758
0.0137098
0.0126013
0.0118123
0.0108712
0.0102921
0.0094529
0.00908791
0.00812652
0.119789
0.0960531
0.0786176
0.0656136
0.0554662
0.0476258
0.0414505
0.0364624
0.032267
0.0288024
0.0257902
0.023289
0.0210609
0.0192117
0.0174998
0.0161125
0.0147585
0.0137088
0.0126017
0.011811
0.0108718
0.0102907
0.00945346
0.00908847
0.00812129
0.119789
0.0960533
0.0786186
0.0656123
0.0554669
0.0476252
0.0414495
0.0364625
0.0322672
0.0288002
0.0257915
0.0232895
0.021059
0.0192104
0.0175009
0.0161157
0.0147621
0.0137117
0.0126038
0.0118125
0.0108731
0.0102921
0.00945512
0.00909035
0.00812314
0.119789
0.0960534
0.0786169
0.0656149
0.055463
0.0476297
0.0414515
0.0364612
0.03227
0.0287992
0.0257907
0.0232908
0.021059
0.0192096
0.0174994
0.0161135
0.0147601
0.0137107
0.0126031
0.011812
0.0108724
0.0102912
0.00945406
0.00908903
0.0081222
0.11979
0.0960524
0.0786186
0.0656124
0.0554659
0.0476266
0.0414494
0.0364611
0.0322692
0.0287979
0.0257908
0.0232909
0.0210576
0.0192102
0.0174997
0.0161162
0.0147617
0.0137127
0.0126024
0.0118125
0.0108704
0.0102914
0.00945249
0.00908766
0.00812664
0.119787
0.096056
0.0786145
0.0656171
0.0554615
0.0476307
0.0414524
0.0364628
0.0322674
0.0288042
0.0257894
0.0232876
0.0210591
0.0192123
0.0174996
0.0161143
0.0147596
0.0137111
0.0126016
0.0118119
0.0108712
0.0102897
0.00946605
0.00902682
0.00821468
0.119789
0.096054
0.0786165
0.0656157
0.055462
0.0476308
0.0414504
0.0364636
0.0322701
0.0287921
0.0257982
0.0232961
0.0210575
0.0192093
0.0174994
0.0161125
0.0147587
0.013709
0.0126017
0.0118108
0.0108725
0.0102888
0.00946801
0.00902315
0.00821747
0.119788
0.0960555
0.0786152
0.0656162
0.0554628
0.0476297
0.0414498
0.0364634
0.032271
0.0287933
0.0257937
0.0232926
0.0210567
0.0192099
0.0175017
0.0161159
0.0147614
0.0137113
0.0126031
0.0118121
0.0108732
0.0102894
0.00946818
0.00902352
0.00821751
0.119789
0.0960534
0.0786169
0.0656155
0.0554619
0.0476312
0.0414506
0.0364619
0.0322717
0.0287949
0.0257904
0.0232941
0.0210579
0.0192098
0.0174995
0.016114
0.0147595
0.0137116
0.0126025
0.0118131
0.010872
0.0102904
0.00946529
0.00902692
0.00821311
0.11979
0.0960522
0.078619
0.0656121
0.0554662
0.0476271
0.0414426
0.0364561
0.0322638
0.0287968
0.0257884
0.023286
0.0210567
0.0192096
0.0175003
0.0161152
0.0147614
0.0137112
0.0126029
0.0118115
0.0108723
0.0102882
0.00946667
0.00902267
0.00821538
0.119788
0.0960537
0.0786105
0.0656081
0.0554496
0.0476154
0.0414292
0.0364431
0.032243
0.0287728
0.0257651
0.0232672
0.021033
0.019189
0.0174738
0.0160895
0.0147304
0.0136831
0.0125706
0.0117815
0.0108379
0.0102579
0.00941805
0.00905367
0.00808068
0.119787
0.0960541
0.0786101
0.0656086
0.0554489
0.0476162
0.0414313
0.036445
0.0322441
0.028774
0.0257657
0.0232679
0.0210331
0.0191896
0.0174738
0.0160901
0.0147302
0.0136837
0.0125702
0.0117821
0.0108374
0.0102584
0.0094177
0.00905331
0.0080828
0.119787
0.0960541
0.0786101
0.0656087
0.0554489
0.0476163
0.0414313
0.0364451
0.0322441
0.0287741
0.0257657
0.023268
0.0210331
0.0191897
0.0174736
0.0160902
0.0147301
0.0136839
0.0125701
0.0117823
0.0108376
0.0102563
0.0094302
0.00898749
0.00817517
0.119787
0.0960542
0.0786099
0.0656088
0.0554488
0.0476162
0.0414314
0.0364451
0.0322441
0.0287742
0.0257657
0.023268
0.0210331
0.0191897
0.0174737
0.0160901
0.01473
0.0136837
0.0125699
0.0117823
0.0108371
0.0102587
0.00941731
0.00905302
0.00808501
0.119787
0.0960547
0.0786094
0.0656094
0.0554481
0.047617
0.0414314
0.0364455
0.0322439
0.0287746
0.0257654
0.0232684
0.0210328
0.0191902
0.0174733
0.0160907
0.0147295
0.0136844
0.0125693
0.0117829
0.0108367
0.0102572
0.00942884
0.00899015
0.00817329
0.119787
0.0960543
0.0786098
0.065609
0.0554485
0.0476166
0.0414314
0.0364451
0.0322441
0.0287743
0.0257656
0.023268
0.0210331
0.0191897
0.0174738
0.0160901
0.0147301
0.0136836
0.0125702
0.0117818
0.010838
0.0102556
0.00943113
0.00898549
0.00817726
0.119787
0.0960544
0.0786098
0.0656089
0.0554487
0.0476164
0.0414314
0.0364451
0.0322442
0.0287742
0.0257656
0.0232681
0.0210331
0.0191897
0.0174737
0.0160902
0.0147302
0.0136838
0.0125702
0.0117821
0.0108378
0.010256
0.00943066
0.00898663
0.00817623
0.119787
0.096054
0.0786101
0.0656086
0.055449
0.047616
0.0414314
0.0364449
0.0322442
0.028774
0.0257657
0.0232679
0.0210333
0.0191895
0.0174738
0.0160899
0.0147303
0.0136836
0.0125703
0.011782
0.0108375
0.0102584
0.00941752
0.00905327
0.00808335
0.119787
0.096054
0.0786102
0.0656085
0.0554491
0.0476159
0.0414313
0.0364449
0.0322441
0.028774
0.0257658
0.0232679
0.0210332
0.0191895
0.0174738
0.0160901
0.0147303
0.0136837
0.0125702
0.0117821
0.0108373
0.0102585
0.00941749
0.00905319
0.00808379
0.119787
0.0960541
0.07861
0.0656087
0.0554489
0.0476161
0.0414314
0.036445
0.0322442
0.0287741
0.0257657
0.023268
0.0210332
0.0191896
0.0174737
0.0160901
0.0147301
0.0136838
0.0125701
0.0117822
0.0108376
0.0102562
0.00943024
0.0089874
0.00817525
0.119787
0.0960546
0.0786095
0.0656094
0.0554482
0.047617
0.0414314
0.0364454
0.032244
0.0287745
0.0257654
0.0232684
0.0210329
0.0191901
0.0174733
0.0160906
0.0147296
0.0136843
0.0125694
0.0117829
0.0108364
0.0102594
0.00941688
0.00905254
0.00808755
0.119787
0.0960542
0.0786099
0.0656088
0.0554488
0.0476163
0.0414314
0.0364451
0.0322442
0.0287742
0.0257657
0.023268
0.0210332
0.0191896
0.0174738
0.01609
0.0147303
0.0136835
0.0125703
0.0117818
0.0108376
0.0102581
0.00941785
0.00905343
0.00808144
0.119787
0.096054
0.0786102
0.0656085
0.0554491
0.0476159
0.0414314
0.0364449
0.0322442
0.028774
0.0257658
0.0232679
0.0210332
0.0191895
0.0174739
0.01609
0.0147304
0.0136836
0.0125703
0.011782
0.0108375
0.0102583
0.00941778
0.00905335
0.00808273
0.119787
0.096054
0.0786101
0.0656086
0.0554488
0.0476162
0.0414314
0.0364449
0.0322442
0.028774
0.0257657
0.0232679
0.0210332
0.0191895
0.0174738
0.01609
0.0147303
0.0136836
0.0125703
0.011782
0.0108374
0.0102583
0.00941772
0.0090533
0.00808266
0.119787
0.0960543
0.0786098
0.0656089
0.0554486
0.0476166
0.0414313
0.0364452
0.0322441
0.0287742
0.0257656
0.0232681
0.0210331
0.0191897
0.0174737
0.0160902
0.0147302
0.0136838
0.0125702
0.0117821
0.0108373
0.0102583
0.00941761
0.00905325
0.00808288
0.119787
0.0960545
0.0786096
0.0656091
0.0554484
0.0476167
0.0414314
0.0364452
0.0322441
0.0287743
0.0257657
0.023268
0.0210332
0.0191897
0.0174738
0.0160901
0.0147303
0.0136836
0.0125703
0.0117818
0.010838
0.0102555
0.0094312
0.00898552
0.00817733
0.119787
0.0960543
0.0786098
0.065609
0.0554485
0.0476166
0.0414314
0.0364452
0.0322441
0.0287741
0.0257658
0.0232681
0.0210332
0.0191896
0.0174738
0.01609
0.0147302
0.0136835
0.0125703
0.0117817
0.0108381
0.0102555
0.00943131
0.00898513
0.00817802
0.119787
0.0960544
0.0786097
0.0656091
0.0554485
0.0476166
0.0414313
0.0364453
0.0322441
0.0287743
0.0257656
0.0232683
0.0210329
0.0191899
0.0174734
0.0160906
0.0147297
0.0136843
0.0125695
0.0117828
0.0108368
0.0102573
0.00942862
0.00899041
0.0081736
0.119787
0.0960542
0.0786099
0.0656089
0.0554486
0.0476165
0.0414313
0.0364451
0.0322441
0.028774
0.0257656
0.023268
0.021033
0.0191896
0.0174736
0.0160901
0.0147301
0.0136838
0.01257
0.0117822
0.0108372
0.0102587
0.00941735
0.00905317
0.00808468
0.119787
0.096054
0.0786101
0.0656086
0.0554489
0.0476162
0.041424
0.0364397
0.0322398
0.0287711
0.025763
0.0232663
0.0210315
0.0191888
0.0174727
0.0160899
0.0147294
0.0136839
0.0125696
0.0117826
0.0108367
0.0102591
0.00941722
0.00905293
0.00808634
0.119787
0.0960537
0.078608
0.0656059
0.0554446
0.0476117
0.041424
0.0364381
0.0322373
0.0287676
0.0257593
0.0232618
0.0210272
0.0191839
0.0174683
0.0160847
0.0147251
0.0136785
0.0125655
0.0117771
0.0108329
0.0102536
0.00941327
0.00904897
0.00807781
0.119787
0.0960543
0.0786073
0.0656067
0.0554436
0.0476128
0.0414261
0.0364402
0.0322383
0.0287689
0.0257597
0.0232629
0.0210272
0.0191847
0.017468
0.0160855
0.0147245
0.0136794
0.0125646
0.0117781
0.0108318
0.0102546
0.00941256
0.00904819
0.00808211
0.119787
0.096054
0.0786077
0.0656062
0.0554442
0.0476121
0.0414262
0.0364399
0.0322385
0.0287687
0.02576
0.0232625
0.0210275
0.0191844
0.0174684
0.016085
0.014725
0.0136788
0.0125652
0.0117774
0.0108326
0.0102539
0.00941293
0.0090487
0.0080795
0.119787
0.0960538
0.0786079
0.065606
0.0554444
0.0476118
0.0414262
0.0364397
0.0322385
0.0287686
0.02576
0.0232625
0.0210276
0.0191843
0.0174684
0.016085
0.0147251
0.0136788
0.0125653
0.0117773
0.0108331
0.0102513
0.00942609
0.00898238
0.00817117
0.119787
0.0960542
0.0786075
0.0656065
0.0554439
0.0476125
0.0414261
0.0364401
0.0322384
0.0287689
0.0257598
0.0232629
0.0210272
0.0191848
0.0174679
0.0160856
0.0147244
0.0136796
0.0125644
0.0117784
0.0108314
0.0102552
0.00941197
0.00904781
0.00808556
0.119787
0.0960544
0.0786073
0.0656068
0.0554436
0.0476129
0.0414262
0.0364402
0.0322383
0.028769
0.0257597
0.0232629
0.0210272
0.0191848
0.017468
0.0160856
0.0147245
0.0136795
0.0125645
0.0117781
0.0108321
0.0102525
0.0094244
0.00898525
0.00816958
0.119787
0.0960542
0.0786074
0.0656065
0.0554438
0.0476125
0.0414262
0.0364401
0.0322384
0.0287689
0.0257598
0.0232628
0.0210273
0.0191847
0.0174681
0.0160854
0.0147246
0.0136793
0.0125647
0.011778
0.0108323
0.0102524
0.00942448
0.00898495
0.00817008
0.119787
0.0960538
0.0786079
0.065606
0.0554445
0.0476118
0.0414262
0.0364397
0.0322385
0.0287685
0.02576
0.0232624
0.0210276
0.0191843
0.0174685
0.0160849
0.0147251
0.0136787
0.0125653
0.0117773
0.0108326
0.0102538
0.00941299
0.00904872
0.0080792
0.119787
0.0960537
0.078608
0.0656058
0.0554446
0.0476116
0.0414262
0.0364396
0.0322386
0.0287684
0.0257601
0.0232623
0.0210277
0.0191841
0.0174686
0.0160848
0.0147253
0.0136785
0.0125656
0.011777
0.010833
0.0102534
0.00941338
0.00904899
0.0080769
0.119787
0.0960539
0.0786078
0.0656061
0.0554444
0.0476119
0.0414262
0.0364398
0.0322385
0.0287686
0.02576
0.0232625
0.0210276
0.0191844
0.0174684
0.0160851
0.014725
0.0136789
0.0125651
0.0117776
0.0108324
0.0102541
0.00941277
0.00904854
0.00808073
0.119787
0.0960544
0.0786073
0.0656067
0.0554436
0.0476128
0.0414262
0.0364402
0.0322383
0.028769
0.0257597
0.0232629
0.0210272
0.0191848
0.0174679
0.0160856
0.0147244
0.0136795
0.0125645
0.0117782
0.0108321
0.0102525
0.00942433
0.00898566
0.00816888
0.119787
0.0960541
0.0786076
0.0656064
0.055444
0.0476123
0.0414262
0.03644
0.0322384
0.0287688
0.0257598
0.0232628
0.0210273
0.0191847
0.017468
0.0160855
0.0147245
0.0136795
0.0125645
0.0117783
0.0108315
0.010255
0.00941218
0.0090479
0.00808456
0.119787
0.0960538
0.0786079
0.065606
0.0554444
0.0476118
0.0414262
0.0364397
0.0322385
0.0287686
0.02576
0.0232625
0.0210276
0.0191843
0.0174684
0.016085
0.014725
0.0136788
0.0125652
0.0117773
0.010833
0.0102514
0.00942604
0.00898247
0.00817109
0.119787
0.0960538
0.0786079
0.065606
0.0554444
0.0476119
0.0414262
0.0364398
0.0322385
0.0287686
0.02576
0.0232625
0.0210276
0.0191844
0.0174684
0.0160851
0.014725
0.0136789
0.0125652
0.0117775
0.0108329
0.0102516
0.00942565
0.00898301
0.00817072
0.119787
0.0960543
0.0786073
0.0656067
0.0554437
0.0476127
0.0414262
0.0364402
0.0322384
0.028769
0.0257597
0.0232629
0.0210272
0.0191848
0.017468
0.0160855
0.0147245
0.0136794
0.0125646
0.0117782
0.0108317
0.0102548
0.00941236
0.00904808
0.0080831
0.119787
0.0960543
0.0786074
0.0656066
0.0554438
0.0476126
0.0414262
0.0364401
0.0322384
0.0287689
0.0257598
0.0232628
0.0210273
0.0191847
0.017468
0.0160855
0.0147246
0.0136794
0.0125646
0.011778
0.0108322
0.0102524
0.0094244
0.00898531
0.00816948
0.119787
0.0960543
0.0786074
0.0656066
0.0554438
0.0476126
0.0414262
0.0364401
0.0322384
0.0287689
0.0257598
0.0232628
0.0210273
0.0191847
0.0174681
0.0160854
0.0147246
0.0136793
0.0125647
0.011778
0.0108323
0.0102523
0.00942453
0.00898485
0.00817018
0.119787
0.0960539
0.0786078
0.0656061
0.0554443
0.0476119
0.0414262
0.0364398
0.0322385
0.0287686
0.02576
0.0232625
0.0210275
0.0191844
0.0174683
0.0160851
0.0147249
0.013679
0.012565
0.0117777
0.0108322
0.0102543
0.00941259
0.00904847
0.00808155
0.119787
0.096054
0.0786076
0.0656063
0.0554441
0.0476123
0.0414261
0.0364399
0.0322383
0.0287687
0.0257597
0.0232627
0.0210272
0.0191847
0.0174679
0.0160855
0.0147244
0.0136795
0.0125644
0.0117783
0.0108319
0.0102529
0.00942382
0.00898683
0.00816771
0.119787
0.0960535
0.0786081
0.0656056
0.0554448
0.0476114
0.0414189
0.0364342
0.0322343
0.0287653
0.0257575
0.0232606
0.0210262
0.0191832
0.0174677
0.0160844
0.0147247
0.0136785
0.0125652
0.0117773
0.0108327
0.0102539
0.00941315
0.00904895
0.00807921
0.119787
0.0960538
0.0786067
0.0656048
0.055442
0.0476099
0.0414213
0.0364355
0.0322342
0.0287648
0.0257561
0.0232591
0.021024
0.0191814
0.0174651
0.0160824
0.0147219
0.0136765
0.0125623
0.0117753
0.0108302
0.0102497
0.00942309
0.00898178
0.00816877
0.119787
0.0960539
0.0786066
0.0656049
0.0554419
0.04761
0.0414234
0.0364371
0.0322354
0.0287658
0.0257567
0.0232597
0.0210243
0.0191818
0.0174651
0.0160827
0.0147218
0.0136769
0.012562
0.0117758
0.0108296
0.0102505
0.00942171
0.00898429
0.00816633
0.119787
0.0960537
0.0786068
0.0656046
0.0554422
0.0476096
0.0414235
0.036437
0.0322355
0.0287656
0.0257569
0.0232595
0.0210245
0.0191815
0.0174655
0.0160823
0.0147223
0.0136763
0.0125626
0.0117751
0.01083
0.0102519
0.0094106
0.00904642
0.00807872
0.119787
0.0960536
0.0786068
0.0656046
0.0554422
0.0476096
0.0414236
0.036437
0.0322356
0.0287656
0.025757
0.0232594
0.0210246
0.0191814
0.0174657
0.0160821
0.0147225
0.013676
0.012563
0.0117746
0.010831
0.0102487
0.00942449
0.00897886
0.00817089
0.119787
0.0960536
0.0786069
0.0656045
0.0554423
0.0476095
0.0414235
0.0364369
0.0322356
0.0287655
0.025757
0.0232594
0.0210246
0.0191814
0.0174656
0.0160822
0.0147224
0.0136761
0.0125628
0.0117748
0.0108308
0.0102489
0.00942404
0.00897978
0.00816992
0.119787
0.0960541
0.0786064
0.0656052
0.0554416
0.0476104
0.0414235
0.0364374
0.0322354
0.028766
0.0257567
0.0232599
0.0210242
0.0191819
0.0174651
0.0160828
0.0147218
0.0136769
0.012562
0.0117758
0.0108293
0.0102526
0.00940999
0.00904586
0.00808211
0.119787
0.096054
0.0786064
0.0656051
0.0554417
0.0476103
0.0414235
0.0364373
0.0322354
0.0287659
0.0257567
0.0232598
0.0210243
0.0191818
0.0174652
0.0160827
0.0147218
0.0136768
0.0125621
0.0117756
0.0108298
0.0102502
0.00942223
0.00898319
0.00816748
0.119787
0.0960537
0.0786068
0.0656046
0.0554422
0.0476096
0.0414235
0.036437
0.0322355
0.0287656
0.0257569
0.0232595
0.0210245
0.0191815
0.0174655
0.0160823
0.0147223
0.0136763
0.0125626
0.0117751
0.0108305
0.0102493
0.00942346
0.0089809
0.00816873
0.119787
0.0960535
0.078607
0.0656045
0.0554424
0.0476094
0.0414235
0.0364369
0.0322356
0.0287655
0.025757
0.0232594
0.0210247
0.0191813
0.0174656
0.0160822
0.0147225
0.0136761
0.0125628
0.0117749
0.0108303
0.0102516
0.00941082
0.00904659
0.00807729
0.119787
0.0960537
0.0786068
0.0656047
0.0554422
0.0476097
0.0414236
0.036437
0.0322356
0.0287656
0.025757
0.0232595
0.0210246
0.0191814
0.0174656
0.0160822
0.0147224
0.0136761
0.0125629
0.0117747
0.0108309
0.0102488
0.00942437
0.00897936
0.00817014
0.119787
0.0960536
0.0786069
0.0656046
0.0554423
0.0476095
0.0414236
0.0364369
0.0322356
0.0287655
0.025757
0.0232594
0.0210247
0.0191813
0.0174657
0.0160821
0.0147226
0.0136759
0.0125631
0.0117745
0.0108312
0.0102485
0.00942463
0.00897838
0.00817159
0.119787
0.0960535
0.0786069
0.0656045
0.0554424
0.0476094
0.0414235
0.0364369
0.0322356
0.0287656
0.025757
0.0232595
0.0210246
0.0191814
0.0174655
0.0160823
0.0147223
0.0136763
0.0125627
0.011775
0.0108306
0.0102493
0.00942349
0.00898084
0.00816881
0.119787
0.0960534
0.078607
0.0656043
0.0554425
0.0476093
0.0414236
0.0364368
0.0322356
0.0287655
0.025757
0.0232594
0.0210247
0.0191813
0.0174657
0.0160821
0.0147225
0.013676
0.0125629
0.0117748
0.0108304
0.0102515
0.00941082
0.00904665
0.0080769
0.119787
0.0960534
0.0786071
0.0656043
0.0554426
0.0476092
0.0414235
0.0364368
0.0322356
0.0287654
0.0257571
0.0232593
0.0210247
0.0191812
0.0174657
0.016082
0.0147226
0.013676
0.012563
0.0117747
0.0108306
0.0102513
0.00941101
0.00904675
0.00807594
0.119787
0.0960536
0.0786069
0.0656045
0.0554424
0.0476094
0.0414236
0.0364369
0.0322356
0.0287655
0.025757
0.0232594
0.0210247
0.0191813
0.0174657
0.0160821
0.0147225
0.0136761
0.0125629
0.0117748
0.0108304
0.0102514
0.00941099
0.00904668
0.00807633
0.119787
0.0960536
0.0786069
0.0656045
0.0554423
0.0476095
0.0414235
0.036437
0.0322356
0.0287656
0.025757
0.0232595
0.0210246
0.0191814
0.0174655
0.0160823
0.0147223
0.0136763
0.0125626
0.0117751
0.01083
0.0102518
0.00941061
0.00904642
0.00807864
0.119787
0.0960536
0.0786068
0.0656046
0.0554422
0.0476096
0.0414235
0.036437
0.0322355
0.0287656
0.025757
0.0232595
0.0210246
0.0191814
0.0174656
0.0160822
0.0147224
0.0136762
0.0125628
0.0117748
0.0108308
0.010249
0.00942397
0.00897987
0.00816983
0.119787
0.0960536
0.0786068
0.0656046
0.0554422
0.0476096
0.0414235
0.036437
0.0322355
0.0287656
0.0257569
0.0232595
0.0210246
0.0191814
0.0174656
0.0160823
0.0147224
0.0136762
0.0125627
0.0117749
0.0108307
0.010249
0.00942397
0.00897988