/*--------------------------------*- C++ -*----------------------------------*\
  =========                 |
  \\      /  F ield         | OpenFOAM: The Open Source CFD Toolbox
   \\    /   O peration     | Website:  https://openfoam.org
    \\  /    A nd           | Version:  12
     \\/     M anipulation  |
\*---------------------------------------------------------------------------*/
FoamFile
{
    format      ascii;
    class       volScalarField;
    location    "100";
    object      k;
}
// * * * * * * * * * * * * * * * * * * * * * * * * * * * * * * * * * * * * * //

dimensions      [0 2 -2 0 0 0 0];

internalField   nonuniform List<scalar> 
5000
(
1.44037
1.33546
1.24683
1.17264
1.10746
1.05245
1.00266
0.961111
0.916167
0.887845
0.833855
0.813835
0.773184
0.730554
0.71092
0.675861
0.66019
0.63019
0.617316
0.591409
0.580398
0.557781
0.548262
0.537436
0.518731
1.44055
1.33513
1.24728
1.17202
1.10813
1.05186
1.00315
0.959931
0.921141
0.889636
0.841794
0.821386
0.774094
0.752802
0.715874
0.678986
0.661692
0.631198
0.61701
0.591018
0.579287
0.556831
0.547095
0.536258
0.5175
1.44054
1.33515
1.24721
1.17218
1.10791
1.05203
1.00374
0.9551
0.917629
0.861062
0.838648
0.792073
0.773573
0.733554
0.717268
0.682194
0.666731
0.644637
0.614769
0.599989
0.575028
0.563288
0.542004
0.532106
0.513517
1.44036
1.33546
1.24689
1.17254
1.10761
1.05231
1.00334
0.956218
0.919008
0.86185
0.838348
0.791063
0.77143
0.731736
0.716674
0.688124
0.65435
0.638719
0.610459
0.597605
0.573372
0.56293
0.551389
0.530571
0.518645
1.44053
1.33516
1.24725
1.17201
1.10824
1.05164
1.00345
0.959424
0.923086
0.881922
0.85521
0.804289
0.782184
0.743062
0.70355
0.684838
0.652109
0.637366
0.609476
0.597185
0.573098
0.562841
0.551509
0.530677
0.518762
1.4404
1.33541
1.2469
1.17255
1.10757
1.05239
1.00273
0.960139
0.923937
0.866077
0.843288
0.79581
0.778771
0.742314
0.702937
0.685154
0.652559
0.638146
0.610351
0.59792
0.573861
0.563429
0.552098
0.531198
0.519333
1.44054
1.33515
1.2472
1.17215
1.10804
1.05166
1.00418
0.957932
0.917939
0.876731
0.824173
0.801664
0.758536
0.740487
0.703052
0.687954
0.655444
0.640586
0.62402
0.596508
0.582785
0.559337
0.54801
0.527753
0.516219
1.44048
1.33527
1.24701
1.17246
1.10758
1.05237
1.003
0.959407
0.92269
0.885618
0.850274
0.806047
0.760195
0.740675
0.703005
0.687277
0.655199
0.64148
0.61343
0.600703
0.586736
0.562488
0.550458
0.529568
0.517911
1.44055
1.33515
1.24723
1.17215
1.10792
1.05233
1.00173
0.96515
0.902319
0.878899
0.828138
0.806787
0.762604
0.744722
0.706908
0.691662
0.666754
0.635091
0.619593
0.593111
0.580541
0.557638
0.547074
0.527198
0.518057
1.44048
1.33529
1.24696
1.17253
1.10746
1.05254
1.00275
0.959628
0.92348
0.876367
0.849535
0.804917
0.759303
0.739517
0.702143
0.686216
0.654369
0.640663
0.612715
0.600222
0.586618
0.562587
0.550604
0.5298
0.518114
1.44054
1.33515
1.24726
1.17199
1.10828
1.05158
1.00336
0.960095
0.921353
0.886501
0.84547
0.815058
0.77222
0.729714
0.710309
0.675456
0.660515
0.630812
0.618104
0.592237
0.581082
0.568653
0.546298
0.535134
0.516038
1.44055
1.33514
1.24727
1.17197
1.10831
1.05152
1.00348
0.959918
0.921446
0.886685
0.845214
0.81516
0.772408
0.730011
0.710311
0.675475
0.660093
0.630253
0.61731
0.591429
0.580334
0.568039
0.545828
0.534756
0.516041
1.44046
1.3353
1.24708
1.17229
1.10785
1.05204
1.00339
0.95889
0.920086
0.877769
0.824904
0.802352
0.759051
0.740715
0.703807
0.688847
0.665293
0.633623
0.618662
0.592326
0.580089
0.557485
0.547123
0.527399
0.518168
1.44053
1.33518
1.24718
1.17213
1.10814
1.05148
1.00402
0.959361
0.919352
0.882659
0.838105
0.788881
0.768726
0.728699
0.711969
0.677708
0.663527
0.63329
0.619527
0.604433
0.578627
0.565801
0.543761
0.532894
0.514738
1.44056
1.33512
1.24724
1.17214
1.10796
1.05199
1.00361
0.955889
0.917736
0.861358
0.838231
0.791038
0.772113
0.731708
0.71485
0.680301
0.664395
0.644413
0.614774
0.600218
0.575348
0.563305
0.541896
0.531897
0.513293
1.4404
1.33539
1.24698
1.1724
1.10784
1.05189
1.00369
0.958541
0.924628
0.877148
0.853639
0.80269
0.782808
0.744474
0.70496
0.686884
0.654379
0.639598
0.611526
0.599216
0.585581
0.561796
0.550154
0.52967
0.517918
1.4404
1.33539
1.24697
1.17241
1.1078
1.05198
1.00339
0.959793
0.919933
0.883927
0.839555
0.790599
0.769251
0.728948
0.712116
0.677608
0.661285
0.643537
0.614261
0.600016
0.57535
0.563681
0.542405
0.532672
0.514112
1.44055
1.33513
1.24726
1.17209
1.108
1.05218
1.00194
0.964949
0.90201
0.878775
0.827269
0.806995
0.763019
0.744998
0.707502
0.693062
0.66606
0.634422
0.619061
0.592488
0.579909
0.557082
0.546651
0.526877
0.517834
1.44056
1.33513
1.24721
1.17215
1.10802
1.05167
1.0042
0.957882
0.917666
0.87669
0.824003
0.80222
0.759208
0.741251
0.704249
0.689169
0.656495
0.641153
0.624133
0.596397
0.582396
0.558932
0.547564
0.527436
0.516026
1.44058
1.33508
1.24731
1.17202
1.10813
1.05174
1.00374
0.957996
0.927293
0.868626
0.845851
0.797776
0.779096
0.73772
0.721212
0.689276
0.655143
0.639071
0.610698
0.597336
0.572966
0.561828
0.540763
0.531568
0.519771
1.41303
1.26586
1.14628
1.04809
0.965276
0.895341
0.834589
0.782412
0.734709
0.696209
0.65139
0.628413
0.595485
0.54957
0.524663
0.508786
0.479744
0.457401
0.440395
0.424851
0.410487
0.39714
0.384671
0.372953
0.361878
1.41304
1.26583
1.1463
1.04808
0.965258
0.89541
0.834481
0.782511
0.734511
0.696967
0.650519
0.625109
0.598031
0.552013
0.52463
0.511147
0.482025
0.45592
0.439192
0.423828
0.409602
0.396381
0.384034
0.372439
0.361485
1.41304
1.26585
1.14626
1.04818
0.965053
0.89577
0.833961
0.782975
0.734781
0.693373
0.660572
0.622212
0.572924
0.561284
0.529028
0.497803
0.480694
0.462352
0.444838
0.428406
0.413031
0.398781
0.385499
0.3732
0.361724
1.41296
1.26599
1.14607
1.04838
0.964908
0.89575
0.834245
0.782231
0.73549
0.692965
0.660065
0.623367
0.573078
0.556592
0.535822
0.497549
0.474603
0.457523
0.441462
0.426357
0.412062
0.398659
0.385959
0.373962
0.362648
1.41299
1.26593
1.14617
1.04821
0.965176
0.895361
0.834695
0.782181
0.735061
0.694315
0.66127
0.610738
0.584791
0.571223
0.536259
0.49828
0.474933
0.457544
0.441226
0.425934
0.411515
0.398038
0.3853
0.373298
0.361966
1.41303
1.26585
1.14622
1.04822
0.965047
0.895688
0.834152
0.782756
0.734612
0.695001
0.660037
0.606969
0.586133
0.57064
0.534394
0.496252
0.474466
0.457169
0.440962
0.425797
0.411501
0.398131
0.385479
0.373543
0.362257
1.41299
1.26593
1.14619
1.04818
0.965231
0.895259
0.834906
0.781769
0.735308
0.695173
0.657117
0.612496
0.596274
0.563867
0.520655
0.499131
0.480957
0.462599
0.445253
0.429002
0.413824
0.399687
0.386481
0.374157
0.362654
1.413
1.26592
1.14613
1.04831
0.96501
0.895537
0.834617
0.781942
0.735131
0.695634
0.657406
0.613497
0.597681
0.563327
0.521087
0.497812
0.479123
0.461547
0.444957
0.429428
0.414745
0.400877
0.387749
0.37537
0.363692
1.41303
1.26586
1.14626
1.04815
0.965122
0.895678
0.833961
0.783387
0.733438
0.69588
0.659508
0.610623
0.589307
0.564976
0.519628
0.501
0.483152
0.462251
0.444176
0.427566
0.412274
0.398182
0.385108
0.372976
0.361676
1.413
1.26592
1.14612
1.04832
0.964994
0.895566
0.834533
0.782068
0.735033
0.695175
0.658687
0.613445
0.594953
0.566032
0.523414
0.49844
0.479839
0.461925
0.445067
0.429332
0.414514
0.400574
0.387427
0.375066
0.363427
1.413
1.26591
1.14616
1.04822
0.965178
0.89531
0.834819
0.782042
0.734721
0.696293
0.655679
0.613205
0.59938
0.567377
0.525732
0.494221
0.476513
0.459127
0.44261
0.427035
0.412426
0.398713
0.385749
0.373586
0.362099
1.41302
1.26587
1.14622
1.04816
0.96523
0.895289
0.834802
0.782081
0.734782
0.696282
0.655158
0.614366
0.599731
0.567476
0.525368
0.495059
0.477185
0.459297
0.442443
0.426653
0.411924
0.398161
0.385202
0.373066
0.361659
1.41303
1.26586
1.14627
1.04809
0.96528
0.895319
0.834641
0.782349
0.734652
0.695765
0.656916
0.61341
0.59887
0.561777
0.518421
0.50295
0.486943
0.459838
0.442103
0.425828
0.410859
0.397068
0.384271
0.37237
0.361301
1.41302
1.26589
1.14614
1.0483
0.965009
0.895519
0.834687
0.781668
0.735563
0.695533
0.654718
0.6164
0.598439
0.560667
0.516795
0.499294
0.480661
0.462597
0.445554
0.429549
0.414474
0.400372
0.387097
0.374676
0.363029
1.41306
1.26579
1.14632
1.04805
0.965321
0.895238
0.834849
0.78187
0.735435
0.695639
0.65285
0.617907
0.597483
0.559157
0.516913
0.499796
0.482846
0.461654
0.443113
0.426598
0.411386
0.397386
0.384352
0.37226
0.360942
1.41294
1.26602
1.14601
1.04847
0.964791
0.895896
0.834011
0.782632
0.734439
0.695254
0.659619
0.605855
0.591362
0.569684
0.527071
0.497353
0.479254
0.461631
0.444929
0.429268
0.41448
0.400564
0.387456
0.37515
0.363616
1.41299
1.26594
1.14607
1.04842
0.964777
0.895932
0.834085
0.782179
0.735664
0.694046
0.656914
0.628674
0.586844
0.54516
0.536271
0.508456
0.478617
0.460663
0.443924
0.428305
0.413617
0.399863
0.386885
0.374726
0.363268
1.41297
1.26597
1.14609
1.04834
0.964995
0.89554
0.834696
0.781524
0.736374
0.693479
0.651803
0.629745
0.589434
0.542479
0.52563
0.511554
0.48257
0.45985
0.442702
0.426921
0.412272
0.398626
0.385825
0.373832
0.362578
1.41302
1.26588
1.14614
1.04834
0.964893
0.895735
0.83442
0.781732
0.736031
0.694554
0.651868
0.629465
0.594142
0.548618
0.524133
0.50706
0.482724
0.463825
0.446287
0.42998
0.414752
0.40052
0.387171
0.374673
0.362984
1.41304
1.26584
1.14626
1.04817
0.965098
0.895645
0.834177
0.782771
0.734459
0.695881
0.658077
0.605138
0.596421
0.561806
0.51789
0.500967
0.484191
0.460542
0.441494
0.425019
0.409937
0.396118
0.383298
0.371467
0.36038
1.41297
1.26526
1.14469
1.04572
0.961489
0.890921
0.828567
0.775376
0.726872
0.685496
0.646605
0.613892
0.581829
0.555029
0.528057
0.506455
0.482931
0.465102
0.444418
0.430033
0.411359
0.399866
0.382689
0.372916
0.355117
1.41297
1.26525
1.14469
1.04572
0.961484
0.890932
0.828554
0.775377
0.726864
0.685513
0.646573
0.613841
0.581845
0.55507
0.528057
0.506562
0.483024
0.465162
0.444427
0.430047
0.411344
0.39988
0.382671
0.372975
0.355095
1.41297
1.26526
1.14469
1.04573
0.961468
0.890958
0.828517
0.775422
0.726823
0.685495
0.64673
0.613698
0.581584
0.555231
0.528019
0.506345
0.483056
0.465327
0.444579
0.430158
0.411393
0.399972
0.382369
0.374569
0.352843
1.41296
1.26527
1.14467
1.04575
0.961454
0.890953
0.828544
0.775368
0.726856
0.685477
0.646712
0.613715
0.581585
0.555215
0.528141
0.506311
0.482851
0.465145
0.444483
0.430149
0.411444
0.399988
0.382724
0.373039
0.355099
1.41296
1.26527
1.14467
1.04574
0.961464
0.890938
0.828559
0.775376
0.726815
0.685565
0.646649
0.613598
0.581731
0.555459
0.528217
0.506374
0.482838
0.46514
0.444403
0.430105
0.411317
0.399986
0.382315
0.374512
0.352959
1.41297
1.26526
1.14468
1.04573
0.96146
0.890958
0.828531
0.775394
0.726825
0.685576
0.64661
0.613611
0.581774
0.555454
0.528175
0.506312
0.482781
0.465087
0.444371
0.43007
0.411301
0.399958
0.382308
0.37451
0.352935
1.41296
1.26527
1.14467
1.04574
0.961469
0.890934
0.828572
0.775342
0.726869
0.68555
0.646552
0.613672
0.581894
0.555246
0.52792
0.506337
0.48302
0.465306
0.444555
0.430163
0.411399
0.399951
0.382686
0.373043
0.355064
1.41297
1.26527
1.14467
1.04574
0.961457
0.890947
0.828563
0.77534
0.726866
0.685568
0.646539
0.613704
0.581924
0.555234
0.527961
0.506263
0.482885
0.465232
0.444598
0.430256
0.411507
0.400081
0.382439
0.374619
0.35291
1.41297
1.26526
1.14469
1.04572
0.961474
0.890945
0.828531
0.775421
0.726785
0.685589
0.646609
0.61362
0.581816
0.555234
0.527955
0.506387
0.483047
0.465258
0.444507
0.430099
0.411353
0.399941
0.382353
0.374556
0.352798
1.41297
1.26527
1.14467
1.04574
0.961458
0.890942
0.828565
0.775341
0.726857
0.685563
0.646576
0.613664
0.581926
0.55528
0.528012
0.50633
0.482966
0.465258
0.444601
0.430223
0.41149
0.400052
0.382442
0.374621
0.352834
1.41297
1.26527
1.14467
1.04574
0.961466
0.890932
0.828576
0.775346
0.726837
0.685595
0.646522
0.613683
0.581944
0.555365
0.528013
0.506308
0.482851
0.465165
0.444442
0.430128
0.411336
0.399976
0.382306
0.374493
0.352916
1.41297
1.26526
1.14468
1.04573
0.961476
0.890923
0.828582
0.775342
0.726854
0.685577
0.646537
0.613686
0.581966
0.555351
0.528025
0.506291
0.482877
0.465126
0.444446
0.430057
0.411348
0.399845
0.382611
0.372877
0.355003
1.41297
1.26526
1.14469
1.04572
0.961482
0.890928
0.828562
0.775371
0.726846
0.68556
0.646563
0.613678
0.58193
0.555192
0.527976
0.506494
0.483155
0.465275
0.444495
0.430069
0.41136
0.399889
0.382704
0.372955
0.355133
1.41297
1.26526
1.14467
1.04574
0.961449
0.890955
0.828555
0.775327
0.726898
0.685531
0.646517
0.613783
0.581938
0.555177
0.527959
0.506382
0.483006
0.46529
0.444582
0.43019
0.411438
0.399951
0.382692
0.372987
0.355088
1.41297
1.26526
1.14469
1.04572
0.961474
0.890939
0.828556
0.77536
0.726884
0.685532
0.646512
0.613822
0.581876
0.555171
0.527884
0.506445
0.48307
0.465313
0.44444
0.430073
0.411219
0.399899
0.382242
0.374456
0.352939
1.41296
1.26528
1.14466
1.04576
0.961436
0.890975
0.828521
0.775385
0.726814
0.685566
0.646588
0.613627
0.581826
0.555403
0.528032
0.506388
0.482979
0.46532
0.444518
0.430198
0.411375
0.400025
0.382683
0.373224
0.355056
1.41297
1.26527
1.14467
1.04575
0.961438
0.890979
0.828518
0.77537
0.726882
0.685471
0.646634
0.613898
0.581649
0.555106
0.528257
0.506529
0.482999
0.465228
0.44452
0.430145
0.411423
0.400032
0.382449
0.374655
0.352897
1.41296
1.26528
1.14466
1.04575
0.961447
0.89096
0.828545
0.775348
0.726904
0.685432
0.646609
0.613936
0.581666
0.554977
0.528085
0.506586
0.483045
0.465228
0.444478
0.430119
0.411382
0.400018
0.382419
0.374631
0.35292
1.41297
1.26526
1.14467
1.04575
0.961438
0.890977
0.828526
0.775349
0.726911
0.685469
0.64655
0.613965
0.581787
0.555043
0.528056
0.506494
0.483025
0.465349
0.444596
0.430255
0.411433
0.400017
0.382645
0.373132
0.354985
1.41297
1.26525
1.14469
1.04572
0.961472
0.890946
0.828542
0.775398
0.726878
0.685572
0.646607
0.613691
0.581918
0.55523
0.527975
0.506456
0.483107
0.465256
0.444473
0.430034
0.411303
0.399877
0.382325
0.37455
0.352751
1.41296
1.26526
1.14463
1.04569
0.961332
0.890836
0.8283
0.775167
0.726485
0.685174
0.646101
0.613298
0.581094
0.554649
0.527474
0.505962
0.482498
0.464944
0.444224
0.429976
0.411249
0.399839
0.382656
0.372881
0.35512
1.41296
1.26527
1.14463
1.04569
0.961326
0.890844
0.828291
0.77517
0.726471
0.685175
0.646081
0.613298
0.581072
0.554651
0.527449
0.505969
0.482473
0.464954
0.444196
0.429989
0.411216
0.399859
0.382606
0.372948
0.355046
1.41296
1.26527
1.14463
1.04569
0.961326
0.890845
0.82829
0.77517
0.72647
0.685176
0.646082
0.613294
0.58107
0.554652
0.527446
0.505964
0.482472
0.464957
0.444197
0.429995
0.411204
0.399918
0.382305
0.374559
0.352826
1.41296
1.26527
1.14462
1.0457
0.961326
0.890844
0.828292
0.775167
0.726471
0.685174
0.646083
0.613292
0.581073
0.554651
0.527452
0.50596
0.482471
0.464946
0.444198
0.429985
0.411223
0.399857
0.382618
0.37294
0.355047
1.41296
1.26527
1.14462
1.0457
0.96132
0.890852
0.828283
0.775177
0.726457
0.685188
0.646067
0.613305
0.581056
0.554673
0.527431
0.505985
0.482444
0.464975
0.444162
0.430018
0.411175
0.399902
0.382539
0.373074
0.35493
1.41296
1.26527
1.14462
1.0457
0.961323
0.890848
0.828288
0.775171
0.726466
0.68518
0.646076
0.613296
0.58107
0.554659
0.527447
0.505964
0.482464
0.464947
0.44419
0.429985
0.411204
0.399907
0.382305
0.374559
0.352776
1.41296
1.26527
1.14462
1.0457
0.961324
0.890846
0.82829
0.775169
0.726469
0.685177
0.646076
0.613297
0.581072
0.554654
0.527442
0.505965
0.482469
0.464958
0.444193
0.429994
0.4112
0.399917
0.382304
0.37456
0.352827
1.41296
1.26527
1.14463
1.04569
0.961327
0.890842
0.828294
0.775164
0.726475
0.685173
0.646083
0.613291
0.581081
0.554647
0.527453
0.505955
0.482475
0.464944
0.444207
0.429983
0.411231
0.399848
0.382631
0.37292
0.35506
1.41296
1.26527
1.14463
1.04569
0.961328
0.890842
0.828294
0.775167
0.726473
0.685173
0.646084
0.61329
0.581078
0.554647
0.527452
0.50596
0.482479
0.464949
0.444202
0.429982
0.411222
0.39985
0.382616
0.372934
0.355047
1.41296
1.26527
1.14463
1.04569
0.961326
0.890843
0.828293
0.775165
0.726473
0.685175
0.646081
0.613292
0.581079
0.55465
0.527452
0.50596
0.482475
0.464949
0.444202
0.429989
0.411213
0.399913
0.382312
0.374566
0.352789
1.41296
1.26527
1.14462
1.0457
0.96132
0.890851
0.828284
0.775176
0.726459
0.685188
0.646065
0.613307
0.58106
0.55467
0.527429
0.505982
0.482445
0.464973
0.444165
0.430018
0.411171
0.399944
0.382283
0.374534
0.352942
1.41296
1.26527
1.14462
1.0457
0.961325
0.890844
0.828292
0.775168
0.726469
0.685177
0.646078
0.613295
0.581076
0.554654
0.527448
0.505962
0.482469
0.464947
0.444194
0.429983
0.411217
0.399849
0.382612
0.372925
0.355048
1.41296
1.26527
1.14463
1.04569
0.961328
0.890841
0.828294
0.775166
0.726474
0.685172
0.646084
0.61329
0.58108
0.554646
0.527453
0.505961
0.482483
0.464949
0.444205
0.42998
0.411224
0.399849
0.382622
0.372923
0.355072
1.41296
1.26527
1.14463
1.04569
0.961326
0.890843
0.828293
0.775165
0.726475
0.685172
0.646082
0.613293
0.581079
0.554647
0.527453
0.505959
0.482479
0.464949
0.444205
0.429982
0.411225
0.399849
0.382619
0.372921
0.355068
1.41296
1.26527
1.14462
1.0457
0.961323
0.890848
0.828287
0.775172
0.726467
0.685179
0.646074
0.613302
0.581068
0.554655
0.527439
0.50597
0.482469
0.464961
0.444189
0.42999
0.411203
0.399856
0.382596
0.372953
0.355019
1.41296
1.26527
1.14462
1.0457
0.961322
0.890848
0.828287
0.775172
0.726466
0.685179
0.646076
0.613297
0.58107
0.554658
0.527444
0.505967
0.482469
0.464958
0.444193
0.42999
0.4112
0.399913
0.382306
0.374565
0.352815
1.41296
1.26527
1.14462
1.0457
0.961323
0.890848
0.828287
0.775171
0.726467
0.685177
0.646078
0.613299
0.581067
0.554655
0.527448
0.50597
0.482469
0.464955
0.444191
0.429991
0.411202
0.399915
0.382312
0.374566
0.352796
1.41296
1.26527
1.14462
1.0457
0.961322
0.890848
0.828287
0.775172
0.726466
0.685178
0.646076
0.613304
0.581063
0.554656
0.52744
0.505978
0.482462
0.464966
0.444178
0.430004
0.411193
0.399886
0.382571
0.373038
0.354974
1.41296
1.26527
1.14462
1.0457
0.961324
0.890847
0.828289
0.775169
0.726472
0.685175
0.646081
0.613301
0.581074
0.554652
0.527453
0.505967
0.482478
0.464956
0.444206
0.429991
0.411227
0.399857
0.382624
0.37293
0.355072
1.41296
1.26527
1.14463
1.04569
0.961326
0.890845
0.828291
0.77519
0.726485
0.685209
0.6461
0.613338
0.581097
0.554699
0.527468
0.506018
0.482493
0.46501
0.444209
0.430048
0.411211
0.399971
0.38232
0.374575
0.352961
1.41296
1.26527
1.14461
1.04567
0.961289
0.890802
0.828237
0.775115
0.726408
0.685112
0.646011
0.613223
0.580995
0.554568
0.527366
0.505871
0.482386
0.464854
0.444114
0.429888
0.411142
0.399757
0.38255
0.372825
0.355009
1.41296
1.26527
1.14461
1.04568
0.961281
0.890812
0.828223
0.775122
0.726387
0.685119
0.645984
0.613232
0.580962
0.554581
0.527327
0.50589
0.48234
0.464881
0.44406
0.429928
0.411068
0.39986
0.382186
0.374445
0.352927
1.41296
1.26527
1.14461
1.04568
0.961286
0.890806
0.828232
0.775114
0.726398
0.685108
0.645998
0.613217
0.580979
0.554562
0.527348
0.505867
0.482366
0.464851
0.444093
0.429888
0.411118
0.39976
0.382521
0.37286
0.354948
1.41296
1.26527
1.14461
1.04567
0.961288
0.890803
0.828235
0.775111
0.726402
0.685104
0.646003
0.613212
0.580985
0.554557
0.527355
0.50586
0.482374
0.464844
0.444101
0.429882
0.411117
0.39981
0.38222
0.374477
0.352695
1.41296
1.26527
1.14461
1.04568
0.961283
0.89081
0.828227
0.775118
0.726392
0.685114
0.64599
0.613225
0.580969
0.554572
0.527336
0.505879
0.48235
0.464868
0.444072
0.429912
0.411081
0.399843
0.382198
0.374453
0.352847
1.41296
1.26527
1.14461
1.04568
0.96128
0.890813
0.828223
0.775122
0.726387
0.685118
0.645985
0.613229
0.580963
0.554578
0.527329
0.505886
0.482343
0.464875
0.444064
0.429917
0.411082
0.399801
0.38246
0.372973
0.35486
1.41296
1.26527
1.14461
1.04568
0.961283
0.89081
0.828227
0.775119
0.726392
0.685114
0.64599
0.613224
0.58097
0.554572
0.527336
0.505878
0.482352
0.464866
0.444075
0.429907
0.411095
0.399788
0.382477
0.372937
0.354905
1.41296
1.26527
1.14461
1.04567
0.961288
0.890803
0.828235
0.77511
0.726402
0.685104
0.646003
0.613213
0.580985
0.554557
0.527354
0.50586
0.482373
0.464844
0.444101
0.42988
0.411127
0.399753
0.382529
0.372835
0.354986
1.41296
1.26526
1.14461
1.04567
0.961289
0.890801
0.828238
0.775108
0.726405
0.685101
0.646006
0.613209
0.580989
0.554553
0.527359
0.505856
0.482379
0.464839
0.444108
0.429873
0.411136
0.399742
0.382545
0.372804
0.355019
1.41296
1.26527
1.14461
1.04567
0.961287
0.890804
0.828234
0.775112
0.726401
0.685105
0.646001
0.613214
0.580983
0.554559
0.527352
0.505863
0.482371
0.464847
0.444098
0.429884
0.411123
0.399757
0.382524
0.372851
0.354963
1.41296
1.26527
1.14461
1.04568
0.961281
0.890812
0.828224
0.775121
0.726388
0.685118
0.645985
0.613229
0.580963
0.554578
0.527328
0.505887
0.482342
0.464877
0.444062
0.429921
0.411079
0.399808
0.382449
0.372989
0.35485
1.41296
1.26527
1.14461
1.04568
0.961284
0.890808
0.828229
0.775117
0.726394
0.685112
0.645993
0.613222
0.580972
0.55457
0.527339
0.505876
0.482354
0.464864
0.444077
0.429908
0.411086
0.39984
0.382198
0.374454
0.352838
1.41296
1.26527
1.14461
1.04567
0.961288
0.890803
0.828235
0.775111
0.726401
0.685105
0.646002
0.613214
0.580983
0.554559
0.527353
0.505863
0.482371
0.464847
0.444098
0.429886
0.411112
0.399814
0.382219
0.374476
0.352709
1.41296
1.26527
1.14461
1.04567
0.961287
0.890803
0.828234
0.775111
0.726401
0.685105
0.646001
0.613214
0.580983
0.554559
0.527352
0.505863
0.482371
0.464847
0.444097
0.429886
0.411112
0.399814
0.382219
0.374475
0.35271
1.41296
1.26527
1.14461
1.04568
0.961281
0.890812
0.828224
0.775121
0.726388
0.685117
0.645985
0.613229
0.580963
0.554578
0.527329
0.505887
0.482342
0.464877
0.444062
0.429922
0.41107
0.399853
0.38219
0.374447
0.352895
1.41296
1.26527
1.14461
1.04568
0.961282
0.89081
0.828226
0.775119
0.726391
0.685114
0.645989
0.613225
0.580968
0.554573
0.527335
0.50588
0.48235
0.464868
0.444073
0.429909
0.411092
0.39979
0.382475
0.372948
0.354889
1.41296
1.26527
1.14461
1.04568
0.961282
0.89081
0.828226
0.775119
0.72639
0.685115
0.645988
0.613226
0.580967
0.554575
0.527333
0.505882
0.482347
0.464871
0.444069
0.429914
0.411087
0.399798
0.382463
0.372965
0.354876
1.41296
1.26527
1.14461
1.04567
0.961287
0.890804
0.828234
0.775112
0.7264
0.685106
0.646001
0.613214
0.580982
0.554559
0.527352
0.505862
0.482371
0.464846
0.444099
0.429882
0.411125
0.399755
0.382526
0.372839
0.354981
1.41296
1.26527
1.14461
1.04568
0.961285
0.890807
0.82823
0.775116
0.726396
0.685112
0.645995
0.613223
0.580976
0.554571
0.527343
0.505879
0.482359
0.464868
0.444082
0.429911
0.4111
0.399796
0.382476
0.372952
0.354908
1.41296
1.26526
1.14461
1.04567
0.961291
0.890799
0.82824
0.775127
0.726422
0.685132
0.64603
0.613247
0.581017
0.554596
0.527389
0.505901
0.482408
0.464885
0.444136
0.42992
0.411161
0.399791
0.382565
0.372874
0.355004
1.41296
1.26527
1.1446
1.04566
0.961266
0.890785
0.828202
0.775092
0.726364
0.685084
0.64596
0.613192
0.580937
0.554538
0.527302
0.505843
0.482316
0.46483
0.444038
0.429871
0.411057
0.399753
0.382438
0.372901
0.354867
1.41296
1.26527
1.1446
1.04566
0.961266
0.890786
0.828201
0.775086
0.726359
0.685075
0.645953
0.613181
0.58093
0.554526
0.527295
0.50583
0.482309
0.464817
0.444032
0.429858
0.411052
0.39974
0.382434
0.372888
0.354865
1.41296
1.26526
1.1446
1.04566
0.961268
0.890783
0.828205
0.775082
0.726364
0.68507
0.645959
0.613174
0.580937
0.554517
0.527304
0.505819
0.48232
0.464803
0.444046
0.42984
0.411069
0.399716
0.382465
0.372817
0.354908
1.41296
1.26526
1.1446
1.04566
0.961269
0.890782
0.828206
0.775082
0.726365
0.685069
0.64596
0.613174
0.580938
0.554516
0.527305
0.505817
0.482322
0.464801
0.444049
0.429838
0.411064
0.399765
0.382172
0.374429
0.352652
1.41296
1.26526
1.1446
1.04566
0.961269
0.890781
0.828207
0.77508
0.726367
0.685067
0.645963
0.61317
0.580942
0.554511
0.52731
0.505812
0.482329
0.464793
0.444057
0.429829
0.411074
0.399754
0.382183
0.374436
0.352592
1.41296
1.26527
1.1446
1.04567
0.961263
0.89079
0.828196
0.775091
0.726353
0.68508
0.645945
0.613188
0.58092
0.554534
0.527283
0.50584
0.482295
0.464829
0.444015
0.429874
0.411023
0.399805
0.382143
0.3744
0.352845
1.41296
1.26527
1.1446
1.04567
0.961264
0.890789
0.828198
0.775089
0.726355
0.685078
0.645948
0.613185
0.580923
0.55453
0.527287
0.505836
0.4823
0.464824
0.444021
0.429865
0.411039
0.399749
0.382416
0.372915
0.354834
1.41296
1.26526
1.1446
1.04566
0.961268
0.890783
0.828205
0.775082
0.726364
0.68507
0.645959
0.613174
0.580937
0.554517
0.527303
0.505819
0.48232
0.464803
0.444046
0.429842
0.41106
0.399771
0.382166
0.374425
0.352689
1.41296
1.26526
1.1446
1.04566
0.96127
0.89078
0.828208
0.77508
0.726367
0.685067
0.645963
0.613171
0.580941
0.554513
0.527308
0.505815
0.482325
0.464798
0.444052
0.429834
0.411077
0.399707
0.382479
0.372799
0.354921
1.41296
1.26526
1.1446
1.04566
0.961268
0.890783
0.828205
0.775082
0.726364
0.68507
0.645958
0.613175
0.580936
0.554517
0.527303
0.505819
0.48232
0.464803
0.444046
0.429841
0.41106
0.39977
0.382167
0.374426
0.352683
1.41296
1.26526
1.1446
1.04566
0.961269
0.890782
0.828207
0.775081
0.726366
0.685068
0.645962
0.613172
0.58094
0.554513
0.527308
0.505814
0.482327
0.464796
0.444054
0.429831
0.411071
0.399758
0.382178
0.374434
0.352613
1.41296
1.26526
1.1446
1.04566
0.96127
0.890781
0.828207
0.77508
0.726367
0.685067
0.645962
0.613171
0.580941
0.554513
0.527308
0.505814
0.482326
0.464797
0.444052
0.429835
0.411068
0.399762
0.382177
0.374431
0.352634
1.41296
1.26526
1.1446
1.04566
0.961271
0.890779
0.828209
0.775078
0.726369
0.685065
0.645964
0.61317
0.580943
0.554511
0.527311
0.505813
0.482329
0.464795
0.444056
0.42983
0.411082
0.3997
0.382491
0.372783
0.354931
1.41296
1.26526
1.1446
1.04566
0.961272
0.890778
0.82821
0.775077
0.72637
0.685064
0.645966
0.613168
0.580945
0.554509
0.527313
0.50581
0.482331
0.464792
0.444059
0.429827
0.411085
0.399697
0.382494
0.37277
0.354951
1.41296
1.26526
1.1446
1.04566
0.96127
0.890781
0.828207
0.77508
0.726367
0.685067
0.645963
0.613171
0.580941
0.554512
0.527309
0.505813
0.482328
0.464795
0.444055
0.429829
0.411083
0.399698
0.382492
0.372771
0.354951
1.41296
1.26526
1.1446
1.04566
0.961269
0.890781
0.828207
0.77508
0.726366
0.685067
0.645962
0.613172
0.58094
0.554513
0.527308
0.505815
0.482325
0.464798
0.444052
0.429833
0.411077
0.399706
0.382479
0.37279
0.354936
1.41296
1.26526
1.1446
1.04566
0.961268
0.890782
0.828206
0.775082
0.726365
0.685069
0.645959
0.613174
0.580937
0.554517
0.527304
0.505819
0.482321
0.464803
0.444046
0.429841
0.41106
0.39977
0.382166
0.374425
0.352685
1.41296
1.26526
1.1446
1.04566
0.961269
0.890782
0.828206
0.775082
0.726365
0.685069
0.64596
0.613174
0.580938
0.554516
0.527305
0.505818
0.482322
0.464801
0.444048
0.429839
0.411063
0.399767
0.382172
0.374429
0.35266
1.41296
1.26527
1.1446
1.04566
0.961266
0.890786
0.828201
0.775087
0.726359
0.685076
0.645953
0.613184
0.58093
0.554529
0.527294
0.505835
0.482308
0.464824
0.44403
0.429868
0.411039
0.3998
0.382156
0.374411
0.352807
1.41296
1.26526
1.14461
1.04566
0.961275
0.890774
0.828215
0.775093
0.726391
0.685091
0.645995
0.613201
0.580979
0.554546
0.527349
0.505848
0.482369
0.46483
0.444096
0.429866
0.411112
0.399792
0.382216
0.374472
0.352645
1.41296
1.26526
1.1446
1.04565
0.96126
0.890765
0.828191
0.775064
0.726349
0.685049
0.645943
0.613152
0.580921
0.554493
0.527288
0.505794
0.482305
0.464776
0.444032
0.429813
0.411048
0.399741
0.382154
0.374412
0.352619
1.41296
1.26526
1.1446
1.04566
0.961258
0.890767
0.828189
0.77506
0.726342
0.685043
0.645934
0.613144
0.58091
0.554485
0.527276
0.505786
0.482293
0.464769
0.444019
0.429805
0.411045
0.399678
0.382448
0.372771
0.35489
1.41296
1.26526
1.1446
1.04566
0.961257
0.890769
0.828186
0.775062
0.726339
0.685045
0.64593
0.613146
0.580905
0.554487
0.527271
0.505788
0.482287
0.464772
0.444013
0.42981
0.411028
0.399739
0.382135
0.374395
0.352653
1.41296
1.26527
1.1446
1.04566
0.961253
0.890775
0.828179
0.775069
0.72633
0.685054
0.645918
0.613158
0.58089
0.554502
0.527252
0.505807
0.482264
0.464796
0.443985
0.429838
0.411003
0.399723
0.38238
0.372899
0.354779
1.41296
1.26526
1.1446
1.04566
0.961257
0.890769
0.828187
0.775061
0.72634
0.685044
0.64593
0.613146
0.580905
0.554487
0.527271
0.505789
0.482286
0.464773
0.444011
0.429813
0.411025
0.399742
0.382135
0.374392
0.352667
1.41296
1.26526
1.1446
1.04566
0.961258
0.890767
0.828188
0.77506
0.726342
0.685042
0.645933
0.613143
0.580909
0.554483
0.527275
0.505783
0.482293
0.464765
0.44402
0.4298
0.411048
0.399669
0.382459
0.37275
0.354904
1.41296
1.26526
1.1446
1.04566
0.961258
0.890768
0.828187
0.775061
0.726341
0.685043
0.645932
0.613145
0.580908
0.554485
0.527274
0.505785
0.482291
0.464767
0.444018
0.429802
0.411045
0.399674
0.38245
0.372754
0.354912
1.41296
1.26526
1.1446
1.04566
0.961255
0.890772
0.828183
0.775065
0.726335
0.685049
0.645924
0.613153
0.580897
0.554496
0.527259
0.505801
0.482272
0.464789
0.443993
0.429833
0.411002
0.399765
0.382119
0.374374
0.352777
1.41296
1.26526
1.1446
1.04566
0.961258
0.890767
0.828189
0.775059
0.726343
0.685041
0.645934
0.613142
0.58091
0.554482
0.527277
0.505782
0.482295
0.464763
0.444023
0.429798
0.411051
0.399667
0.382461
0.37274
0.354921
1.41296
1.26527
1.1446
1.04566
0.961252
0.890775
0.828179
0.775069
0.726329
0.685054
0.645917
0.613159
0.580889
0.554503
0.527251
0.505809
0.482262
0.464798
0.443982
0.429842
0.410998
0.399729
0.382369
0.372913
0.354771
1.41296
1.26526
1.1446
1.04566
0.961256
0.89077
0.828185
0.775063
0.726338
0.685045
0.645929
0.613147
0.580904
0.554487
0.52727
0.505788
0.482287
0.464771
0.444014
0.429808
0.41103
0.399735
0.38214
0.374398
0.352624
1.41296
1.26527
1.1446
1.04566
0.961255
0.890772
0.828182
0.775066
0.726334
0.68505
0.645923
0.613153
0.580896
0.554496
0.527259
0.505801
0.482272
0.464788
0.443993
0.429831
0.411004
0.399761
0.382124
0.374377
0.35275
1.41296
1.26526
1.1446
1.04566
0.961259
0.890767
0.828189
0.77506
0.726342
0.685042
0.645933
0.613144
0.580909
0.554484
0.527275
0.505785
0.482291
0.464768
0.444018
0.429803
0.411044
0.399676
0.382447
0.372766
0.354894
1.41296
1.26526
1.1446
1.04565
0.96126
0.890765
0.828191
0.775057
0.726345
0.685039
0.645937
0.613139
0.580914
0.554478
0.527281
0.505778
0.482299
0.464759
0.444028
0.429793
0.411055
0.399664
0.382463
0.372731
0.354936
1.41296
1.26526
1.1446
1.04566
0.961255
0.890771
0.828184
0.775064
0.726336
0.685048
0.645926
0.613151
0.5809
0.554493
0.527263
0.505796