/*--------------------------------*- C++ -*----------------------------------*\
  =========                 |
  \\      /  F ield         | OpenFOAM: The Open Source CFD Toolbox
   \\    /   O peration     | Website:  https://openfoam.org
    \\  /    A nd           | Version:  12
     \\/     M anipulation  |
\*---------------------------------------------------------------------------*/
FoamFile
{
    format      ascii;
    class       volScalarField;
    location    "100";
    object      nut;
}
// * * * * * * * * * * * * * * * * * * * * * * * * * * * * * * * * * * * * * //

dimensions      [0 2 -1 0 0 0 0];

internalField   nonuniform List<scalar> 
5000
(
1.49995
1.5
1.49996
1.49997
1.5
1.49977
1.49919
1.5
1.47379
1.5
1.39291
1.43864
1.41836
1.32106
1.35335
1.26747
1.30029
1.22271
1.2543
1.18509
1.21451
1.15257
1.14825
1.16964
1.12811
1.5
1.49997
1.5
1.5
1.49979
1.5
1.49973
1.5
1.49665
1.49417
1.41272
1.44699
1.35625
1.38968
1.36468
1.27711
1.30524
1.22967
1.25623
1.18861
1.21441
1.15343
1.14801
1.16865
1.12577
1.49999
1.5
1.49991
1.5
1.4999
1.49923
1.5
1.46879
1.5
1.41393
1.46597
1.35478
1.40455
1.3075
1.35281
1.26462
1.28633
1.29432
1.22069
1.24169
1.17689
1.19886
1.14185
1.16291
1.11205
1.49999
1.5
1.5
1.49993
1.5
1.4992
1.5
1.47335
1.5
1.41706
1.46809
1.35916
1.40484
1.30314
1.33966
1.33586
1.25265
1.28045
1.20852
1.23532
1.17028
1.16518
1.1868
1.13261
1.14248
1.5
1.49997
1.5
1.49992
1.49998
1.5
1.49983
1.4986
1.5
1.46407
1.47777
1.38132
1.41607
1.39094
1.29954
1.32871
1.24721
1.27722
1.20502
1.23366
1.16881
1.16401
1.18664
1.13263
1.14277
1.49997
1.5
1.49996
1.49997
1.5
1.49984
1.5
1.49604
1.5
1.41298
1.4697
1.35738
1.4026
1.38734
1.29466
1.32712
1.24594
1.27716
1.20618
1.23416
1.16998
1.16435
1.18715
1.13254
1.14263
1.49998
1.5
1.49994
1.5
1.5
1.49903
1.5
1.5
1.5
1.5
1.39153
1.43519
1.33233
1.37657
1.28369
1.32434
1.2444
1.24545
1.26823
1.20193
1.22277
1.16246
1.18291
1.12802
1.13864
1.49994
1.5
1.49985
1.5
1.5
1.49954
1.5
1.49862
1.5
1.47905
1.47347
1.45028
1.34046
1.37964
1.28656
1.32472
1.24307
1.27836
1.20916
1.20437
1.22748
1.16741
1.18709
1.13294
1.14041
1.49999
1.5
1.49993
1.5
1.49948
1.5
1.4942
1.5
1.42207
1.49922
1.38611
1.43767
1.33322
1.3798
1.28423
1.31297
1.3155
1.23858
1.26142
1.19444
1.21819
1.15762
1.18008
1.12456
1.12332
1.49992
1.5
1.49981
1.5
1.49996
1.49958
1.5
1.49691
1.5
1.44636
1.47414
1.44904
1.341
1.37834
1.28672
1.3234
1.24258
1.2775
1.20776
1.20257
1.22642
1.1672
1.18675
1.13355
1.13996
1.5
1.49998
1.5
1.49987
1.5
1.5
1.499
1.5
1.5
1.48941
1.4392
1.44995
1.42052
1.32011
1.3524
1.26475
1.29885
1.22214
1.25458
1.18711
1.18286
1.20615
1.14961
1.16877
1.12399
1.5
1.49997
1.5
1.49985
1.5
1.5
1.49911
1.5
1.5
1.48985
1.43792
1.4498
1.42035
1.32142
1.35258
1.26645
1.29945
1.22286
1.25441
1.18639
1.18169
1.20498
1.1484
1.1675
1.12403
1.5
1.49999
1.5
1.49999
1.5
1.49953
1.5
1.5
1.5
1.5
1.39145
1.4359
1.3343
1.37591
1.28106
1.30633
1.31415
1.23545
1.2599
1.19225
1.21633
1.15632
1.17915
1.12454
1.12316
1.49998
1.5
1.5
1.49987
1.5
1.49944
1.49954
1.5
1.5
1.49202
1.47693
1.36155
1.4047
1.30761
1.34815
1.26132
1.30066
1.22806
1.22348
1.24688
1.1838
1.204
1.14651
1.16485
1.12298
1.49999
1.5
1.49991
1.5
1.49988
1.49943
1.5
1.47199
1.5
1.41552
1.46726
1.35632
1.40548
1.30925
1.35022
1.26161
1.27706
1.29289
1.21986
1.24155
1.17824
1.19943
1.1422
1.16287
1.11161
1.5
1.5
1.5
1.49985
1.5
1.49928
1.5
1.49727
1.5
1.44332
1.47745
1.37129
1.41256
1.39051
1.29796
1.32826
1.2485
1.27945
1.20768
1.20237
1.22502
1.16513
1.1852
1.1305
1.14006
1.5
1.5
1.5
1.49987
1.5
1.49956
1.49988
1.5
1.5
1.49263
1.47745
1.36643
1.40676
1.31003
1.34893
1.26721
1.26569
1.289
1.21781
1.24012
1.17656
1.19879
1.14129
1.16292
1.11161
1.5
1.5
1.49996
1.5
1.49956
1.5
1.49426
1.5
1.41886
1.4996
1.38316
1.43659
1.33302
1.3791
1.28357
1.31861
1.31384
1.23737
1.26122
1.19389
1.21733
1.15653
1.17918
1.1237
1.12235
1.49998
1.5
1.49993
1.5
1.5
1.49894
1.5
1.5
1.49968
1.5
1.38987
1.43469
1.33189
1.37571
1.28403
1.32557
1.24738
1.2478
1.2695
1.20291
1.22264
1.16222
1.18202
1.12698
1.13774
1.5
1.49999
1.49997
1.5
1.49994
1.49964
1.5
1.49388
1.5
1.41044
1.47211
1.35618
1.41055
1.31395
1.35185
1.3365
1.25482
1.28158
1.21089
1.236
1.17208
1.19603
1.13765
1.13296
1.14223
1.5
1.49994
1.5
1.49992
1.5
1.5
1.49367
1.49168
1.47174
1.48293
1.47268
1.5
1.49851
1.40116
1.38361
1.40608
1.34958
1.31944
1.31194
1.30554
1.30036
1.29521
1.29036
1.28587
1.28112
1.5
1.49994
1.5
1.49997
1.49996
1.5
1.49334
1.49074
1.47443
1.48305
1.4791
1.48199
1.5
1.39848
1.36929
1.40478
1.35042
1.30129
1.29708
1.29333
1.29033
1.28709
1.28391
1.28089
1.27742
1.5
1.49998
1.49997
1.5
1.49973
1.5
1.49344
1.48806
1.4814
1.47473
1.46382
1.5
1.40639
1.45933
1.40353
1.34048
1.34502
1.33773
1.32831
1.31898
1.30943
1.30103
1.29291
1.28604
1.27928
1.49999
1.5
1.5
1.49993
1.5
1.49982
1.49283
1.48603
1.48339
1.47214
1.46247
1.5
1.4085
1.43606
1.44055
1.34375
1.31814
1.31734
1.31528
1.31273
1.30863
1.30407
1.2992
1.29346
1.28795
1.5
1.49998
1.5
1.49981
1.5
1.49979
1.49531
1.48538
1.48437
1.46771
1.49293
1.4564
1.43019
1.49737
1.43264
1.34066
1.31495
1.31387
1.31136
1.30842
1.30406
1.29937
1.29447
1.28886
1.28332
1.49999
1.5
1.49995
1.5
1.49989
1.5
1.49279
1.48864
1.48307
1.46444
1.49334
1.44442
1.43026
1.49653
1.42438
1.3307
1.31288
1.3119
1.30968
1.30719
1.30338
1.29922
1.29478
1.28955
1.28429
1.5
1.49995
1.5
1.49979
1.5
1.49962
1.49408
1.48746
1.48188
1.46533
1.49851
1.45125
1.49184
1.46287
1.35423
1.34557
1.34617
1.33903
1.33107
1.32242
1.31428
1.30618
1.29886
1.29157
1.28522
1.49998
1.5
1.5
1.49992
1.5
1.49955
1.49327
1.48784
1.48003
1.4699
1.49981
1.45135
1.49927
1.45825
1.35599
1.33927
1.33767
1.33484
1.33014
1.32489
1.31923
1.31261
1.30585
1.29856
1.29132
1.5
1.49996
1.5
1.5
1.49977
1.5
1.49259
1.4902
1.47931
1.46282
1.5
1.44746
1.45729
1.46586
1.3456
1.35152
1.35557
1.33551
1.3242
1.31388
1.30526
1.29744
1.29083
1.28457
1.27884
1.49997
1.5
1.49999
1.49992
1.5
1.49963
1.49309
1.48757
1.48029
1.47266
1.49322
1.44766
1.47966
1.46998
1.36674
1.34146
1.34061
1.33634
1.33048
1.32428
1.31796
1.31097
1.3041
1.29687
1.2898
1.49999
1.5
1.5
1.4998
1.5
1.49962
1.49486
1.486
1.48351
1.46407
1.49332
1.44412
1.49947
1.47771
1.38036
1.32039
1.32488
1.32341
1.32008
1.31493
1.30914
1.30333
1.29672
1.29043
1.28373
1.5
1.49999
1.5
1.49984
1.5
1.49973
1.49485
1.48639
1.48353
1.46426
1.49202
1.44686
1.5
1.47835
1.37843
1.32471
1.32857
1.32466
1.31966
1.31339
1.30692
1.30077
1.29409
1.28782
1.2815
1.5
1.49995
1.5
1.4999
1.5
1.5
1.4944
1.48798
1.48144
1.46633
1.49941
1.45405
1.5
1.45166
1.34041
1.36209
1.3778
1.32317
1.31378
1.30518
1.2981
1.29168
1.2863
1.28101
1.27648
1.49997
1.5
1.49997
1.49994
1.5
1.4994
1.4928
1.48768
1.48102
1.46969
1.47541
1.43859
1.5
1.45318
1.33865
1.34898
1.34745
1.34149
1.33433
1.32707
1.31904
1.31145
1.30345
1.296
1.28868
1.5
1.49998
1.5
1.49995
1.5
1.4999
1.49446
1.48868
1.48041
1.47237
1.46781
1.44448
1.5
1.44163
1.33644
1.34851
1.35626
1.33453
1.31968
1.30982
1.30104
1.29392
1.28714
1.2814
1.27566
1.49998
1.5
1.5
1.49995
1.5
1.49987
1.49035
1.48936
1.48104
1.45861
1.5
1.4275
1.4562
1.49018
1.38633
1.33591
1.33766
1.33517
1.33047
1.32498
1.31904
1.31228
1.30559
1.29849
1.29183
1.49996
1.5
1.49991
1.5
1.5
1.49972
1.4911
1.49026
1.4727
1.4961
1.46861
1.48739
1.46791
1.37466
1.44061
1.4008
1.33856
1.33353
1.32788
1.32242
1.31615
1.31014
1.30346
1.2972
1.29037
1.49999
1.5
1.5
1.49987
1.5
1.4994
1.49351
1.48825
1.47654
1.47886
1.45719
1.5
1.47987
1.36103
1.38064
1.41154
1.3556
1.32424
1.31718
1.3109
1.30558
1.30019
1.29516
1.28977
1.28439
1.49996
1.5
1.49991
1.5
1.5
1.49952
1.49188
1.48926
1.47796
1.47236
1.47027
1.5
1.49937
1.39119
1.37431
1.38963
1.3578
1.34772
1.33857
1.32949
1.32104
1.31245
1.30438
1.2962
1.28871
1.5
1.49998
1.49999
1.5
1.49985
1.5
1.49226
1.4912
1.47841
1.46961
1.5
1.40025
1.49217
1.45028
1.33685
1.35146
1.36184
1.32742
1.31028
1.30099
1.29305
1.28692
1.28114
1.2763
1.2719
1.5
1.49999
1.5
1.49999
1.5
1.5
1.49076
1.48404
1.47357
1.4688
1.45911
1.45611
1.44678
1.44343
1.43422
1.43285
1.42231
1.42023
1.41057
1.40916
1.40075
1.39832
1.39411
1.37693
1.39742
1.5
1.49999
1.5
1.5
1.5
1.5
1.49063
1.48397
1.47356
1.4687
1.45881
1.45608
1.44687
1.44339
1.43388
1.43303
1.42254
1.4203
1.41048
1.40911
1.40064
1.39835
1.39402
1.37742
1.39688
1.5
1.49999
1.5
1.5
1.49998
1.5
1.49054
1.484
1.47361
1.46849
1.45908
1.45562
1.44581
1.44438
1.43389
1.43189
1.42261
1.42111
1.41126
1.40968
1.40081
1.39924
1.38991
1.39924
1.36393
1.5
1.5
1.5
1.49999
1.5
1.49999
1.49053
1.48383
1.4737
1.46835
1.45902
1.45569
1.44574
1.44423
1.43459
1.43198
1.42185
1.42051
1.41109
1.40998
1.40147
1.39923
1.39454
1.37803
1.39713
1.5
1.5
1.5
1.49998
1.5
1.49997
1.49062
1.48386
1.47356
1.46861
1.45897
1.45509
1.44628
1.44526
1.43488
1.43214
1.42172
1.42032
1.41061
1.40954
1.40071
1.39907
1.39165
1.38906
1.37966
1.5
1.5
1.5
1.5
1.49999
1.5
1.49052
1.48399
1.47358
1.46864
1.45894
1.45521
1.44652
1.44526
1.43467
1.43183
1.42143
1.42004
1.41043
1.40934
1.4006
1.39888
1.39157
1.389
1.3794
1.5
1.5
1.5
1.49998
1.5
1.49996
1.49062
1.48387
1.47357
1.46867
1.45878
1.45529
1.44709
1.44437
1.43335
1.43185
1.42245
1.42101
1.41119
1.40972
1.40098
1.39872
1.39407
1.37788
1.39631
1.5
1.5
1.5
1.5
1.5
1.49996
1.49059
1.48385
1.47354
1.46875
1.45875
1.45538
1.44716
1.44428
1.43356
1.43157
1.42186
1.42074
1.4115
1.41036
1.4016
1.40002
1.39045
1.39962
1.3645
1.5
1.49999
1.5
1.5
1.49999
1.5
1.49056
1.48406
1.4734
1.46872
1.45896
1.45518
1.44676
1.44429
1.43342
1.43204
1.42256
1.42078
1.41092
1.40942
1.40065
1.39916
1.38987
1.39932
1.36356
1.5
1.5
1.5
1.49999
1.5
1.49996
1.49059
1.48383
1.47356
1.46872
1.45882
1.45523
1.44716
1.44451
1.4338
1.43189
1.42226
1.42088
1.41151
1.41019
1.4015
1.39985
1.39044
1.39973
1.36377
1.5
1.5
1.5
1.49998
1.5
1.49995
1.49065
1.48382
1.47353
1.46872
1.45866
1.45538
1.44723
1.44486
1.43387
1.43184
1.4218
1.42045
1.41077
1.40962
1.40074
1.39896
1.39156
1.38888
1.37937
1.5
1.5
1.5
1.49998
1.5
1.49996
1.49068
1.48383
1.47359
1.46868
1.45873
1.4554
1.44731
1.44481
1.43389
1.43179
1.42192
1.42032
1.41075
1.40932
1.40074
1.39824
1.39369
1.37683
1.39663
1.5
1.49999
1.5
1.49999
1.5
1.5
1.49064
1.48393
1.47355
1.46872
1.45877
1.45534
1.44726
1.44408
1.43354
1.43266
1.4232
1.42092
1.41083
1.40922
1.40067
1.39835
1.39412
1.37713
1.39734
1.49999
1.5
1.49999
1.5
1.5
1.49995
1.49055
1.48382
1.47364
1.46865
1.45861
1.45575
1.4473
1.44407
1.43357
1.43222
1.42252
1.42112
1.41145
1.41006
1.40129
1.39891
1.39419
1.37756
1.39714
1.5
1.5
1.5
1.5
1.5
1.49999
1.49062
1.48395
1.47362
1.46871
1.45858
1.45593
1.44709
1.444
1.43314
1.43233
1.42274
1.42104
1.41064
1.40924
1.40005
1.39851
1.39114
1.38865
1.37953
1.5
1.5
1.5
1.5
1.5
1.49998
1.49039
1.48398
1.47342
1.46854
1.45901
1.45522
1.44674
1.44504
1.43395
1.43218
1.42241
1.42126
1.41122
1.41012
1.401
1.39963
1.39236
1.38883
1.38117
1.49999
1.5
1.49999
1.5
1.49999
1.49999
1.49045
1.48389
1.47357
1.46875
1.45871
1.45597
1.44597
1.44372
1.43519
1.43314
1.42261
1.42091
1.41123
1.40991
1.40117
1.39981
1.39037
1.40006
1.36395
1.5
1.5
1.5
1.49999
1.5
1.49997
1.49057
1.48381
1.47362
1.46852
1.45885
1.45636
1.44611
1.443
1.43407
1.43315
1.42262
1.42068
1.4108
1.4096
1.4008
1.39962
1.39013
1.39983
1.36413
1.49999
1.5
1.49999
1.5
1.5
1.49997
1.49048
1.48388
1.47361
1.4686
1.45877
1.45641
1.44662
1.44336
1.43409
1.4328
1.42269
1.42139
1.41161
1.41036
1.4013
1.39949
1.39219
1.38812
1.38088
1.5
1.5
1.5
1.5
1.49999
1.5
1.49082
1.4843
1.47384
1.46894
1.45915
1.45562
1.44736
1.44434
1.43358
1.43249
1.42299
1.42087
1.41079
1.4091
1.40037
1.3988
1.38966
1.39935
1.36317
1.5
1.5
1.5
1.5
1.5
1.5
1.49043
1.48394
1.4732
1.46846
1.45818
1.45493
1.44489
1.44287
1.43304
1.43198
1.42239
1.42187
1.41283
1.41231
1.40445
1.40267
1.39926
1.38216
1.40457
1.5
1.5
1.5
1.5
1.5
1.5
1.49032
1.48388
1.47309
1.4684
1.45806
1.45488
1.44477
1.44283
1.4329
1.43196
1.42226
1.42187
1.41269
1.41233
1.40429
1.40274
1.39895
1.38271
1.40362
1.5
1.5
1.5
1.5
1.5
1.5
1.49032
1.48388
1.47308
1.4684
1.45806
1.45486
1.44477
1.44284
1.43289
1.43192
1.42226
1.42187
1.41272
1.41234
1.40418
1.40345
1.39489
1.4049
1.37046
1.5
1.5
1.5
1.5
1.5
1.5
1.49032
1.48387
1.47309
1.46839
1.45806
1.45485
1.44478
1.44283
1.43292
1.43191
1.42227
1.42182
1.41274
1.41228
1.40438
1.40268
1.39909
1.3827
1.40325
1.5
1.5
1.5
1.5
1.5
1.5
1.49029
1.48389
1.47304
1.46843
1.45801
1.45489
1.44471
1.4429
1.43284
1.432
1.42216
1.42192
1.41258
1.41242
1.4041
1.40321
1.3968
1.39336
1.38717
1.5
1.5
1.5
1.5
1.5
1.5
1.49031
1.48388
1.47307
1.46841
1.45804
1.45487
1.44476
1.44286
1.43289
1.43194
1.42222
1.42184
1.41266
1.41233
1.40413
1.40346
1.39476
1.40521
1.36973
1.5
1.5
1.5
1.5
1.5
1.5
1.49031
1.48387
1.47308
1.4684
1.45804
1.45487
1.44477
1.44285
1.43287
1.43193
1.42224
1.42188
1.41268
1.41236
1.40413
1.40348
1.39482
1.40504
1.37029
1.5
1.5
1.5
1.5
1.5
1.5
1.49033
1.48386
1.4731
1.46839
1.45806
1.45485
1.4448
1.44282
1.43292
1.4319
1.42227
1.42182
1.41275
1.4123
1.40439
1.40266
1.39915
1.38251
1.40364
1.5
1.5
1.5
1.5
1.5
1.5
1.49033
1.48387
1.47309
1.46839
1.45807
1.45485
1.4448
1.44282
1.43291
1.43191
1.42229
1.42184
1.41274
1.41228
1.40434
1.40267
1.39905
1.38263
1.40346
1.5
1.5
1.5
1.5
1.5
1.5
1.49033
1.48386
1.47309
1.46839
1.45806
1.45485
1.4448
1.44282
1.43292
1.43191
1.42229
1.42183
1.41276
1.41231
1.40425
1.40342
1.39494
1.40496
1.37016
1.5
1.5
1.5
1.5
1.5
1.5
1.49029
1.48388
1.47304
1.46843
1.458
1.4549
1.44473
1.44289
1.43283
1.43199
1.42216
1.42192
1.41259
1.41242
1.40411
1.4032
1.39671
1.39462
1.38622
1.5
1.5
1.5
1.5
1.5
1.5
1.49032
1.48387
1.47308
1.4684
1.45804
1.45487
1.44478
1.44285
1.43289
1.43193
1.42223
1.42185
1.41267
1.41231
1.40427
1.40271
1.39897
1.38252
1.40387
1.5
1.5
1.5
1.5
1.5
1.5
1.49033
1.48387
1.4731
1.46839
1.45807
1.45485
1.4448
1.44282
1.43292
1.43192
1.4223
1.42184
1.41274
1.41228
1.40434
1.40268
1.39905
1.38252
1.40384
1.5
1.5
1.5
1.5
1.5
1.5
1.49032
1.48386
1.4731
1.46839
1.45806
1.45486
1.4448
1.44282
1.43292
1.43192
1.42229
1.42185
1.41275
1.4123
1.40434
1.40268
1.39904
1.38251
1.40382
1.5
1.5
1.5
1.5
1.5
1.5
1.4903
1.48388
1.47307
1.46841
1.45803
1.45489
1.44475
1.44285
1.43286
1.43196
1.42224
1.4219
1.41266
1.41233
1.40422
1.40273
1.39888
1.38276
1.40339
1.5
1.5
1.5
1.5
1.5
1.5
1.4903
1.48388
1.47306
1.46841
1.45804
1.45487
1.44476
1.44287
1.43288
1.43195
1.42224
1.4219
1.41267
1.41237
1.40411
1.40351
1.39475
1.40525
1.37002
1.5
1.5
1.5
1.5
1.5
1.5
1.4903
1.48387
1.47307
1.46841
1.45804
1.45488
1.44474
1.44285
1.4329
1.43198
1.42223
1.42189
1.41266
1.41238
1.40411
1.40353
1.39478
1.40532
1.36975
1.5
1.5
1.5
1.5
1.5
1.5
1.49031
1.48387
1.47307
1.4684
1.45804
1.45489
1.44474
1.44284
1.43288
1.43197
1.42224
1.42188
1.41267
1.41234
1.40422
1.40308
1.39707
1.39306
1.38747
1.5
1.5
1.5
1.5
1.5
1.5
1.49031
1.48387
1.47309
1.4684
1.45806
1.45489
1.44479
1.44284
1.43294
1.43195
1.42231
1.42187
1.41278
1.41232
1.4044
1.40269
1.39913
1.3826
1.4035
1.5
1.5
1.5
1.5
1.5
1.5
1.49058
1.48417
1.47334
1.4687
1.4583
1.45517
1.44501
1.44314
1.4331
1.43225
1.42245
1.42219
1.41286
1.41265
1.40435
1.40343
1.39693
1.39486
1.38658
1.5
1.5
1.5
1.5
1.5
1.5
1.49039
1.48395
1.47314
1.46846
1.4581
1.45491
1.44479
1.44283
1.4329
1.43189
1.42224
1.42179
1.41271
1.41226
1.40437
1.40268
1.3992
1.38246
1.4042
1.5
1.5
1.5
1.5
1.5
1.5
1.49026
1.48389
1.47301
1.46842
1.45796
1.45488
1.44463
1.44283
1.43272
1.43193
1.42203
1.42187
1.41246
1.4124
1.404
1.40327
1.39664
1.39463
1.38704
1.5
1.5
1.5
1.5
1.5
1.5
1.49029
1.48387
1.47305
1.46839
1.45801
1.45483
1.44469
1.44277
1.4328
1.43183
1.42213
1.42175
1.4126
1.41222
1.40425
1.40266
1.39904
1.38276
1.40342
1.5
1.5
1.5
1.5
1.5
1.5
1.4903
1.48387
1.47306
1.46838
1.45802
1.45482
1.44471
1.44274
1.43283
1.4318
1.42217
1.4217
1.41265
1.41219
1.40417
1.40336
1.39488
1.40508
1.37011
1.5
1.5
1.5
1.5
1.5
1.5
1.49028
1.48388
1.47303
1.4684
1.45798
1.45485
1.44466
1.44279
1.43277
1.43186
1.4221
1.42177
1.41257
1.41226
1.40415
1.40307
1.39681
1.39474
1.38582
1.5
1.5
1.5
1.5
1.5
1.5
1.49026
1.48389
1.47301
1.46841
1.45796
1.45487
1.44463
1.44281
1.43273
1.43189
1.42205
1.42182
1.4125
1.41233
1.40406
1.40314
1.39689
1.39337
1.38726
1.5
1.5
1.5
1.5
1.5
1.5
1.49028
1.48388
1.47303
1.4684
1.45798
1.45485
1.44466
1.44279
1.43276
1.43186
1.42209
1.42178
1.41255
1.41228
1.40413
1.40307
1.397
1.39315
1.38752
1.5
1.5
1.5
1.5
1.5
1.5
1.4903
1.48387
1.47306
1.46838
1.45802
1.45482
1.44471
1.44275
1.43282
1.43181
1.42217
1.42171
1.41264
1.41218
1.4043
1.40262
1.39908
1.38257
1.40377
1.5
1.5
1.5
1.5
1.5
1.5
1.49031
1.48386
1.47307
1.46837
1.45804
1.45481
1.44473
1.44274
1.43284
1.4318
1.42218
1.4217
1.41266
1.41217
1.40431
1.4026
1.39914
1.38231
1.40443
1.5
1.5
1.5
1.5
1.5
1.5
1.4903
1.48387
1.47306
1.46838
1.45802
1.45482
1.44471
1.44275
1.43282
1.43181
1.42216
1.42171
1.41264
1.41218
1.40431
1.40261
1.39908
1.38272
1.40332
1.5
1.5
1.5
1.5
1.5
1.5
1.49027
1.48389
1.47301
1.46841
1.45796
1.45487
1.44464
1.44282
1.43273
1.4319
1.42204
1.42183
1.41249
1.41235
1.40405
1.40318
1.39682
1.39343
1.3873
1.5
1.5
1.5
1.5
1.5
1.5
1.49028
1.48388
1.47304
1.46839
1.45799
1.45485
1.44468
1.44278
1.43278
1.43185
1.42211
1.42176
1.41258
1.41225
1.40416
1.40307
1.39679
1.39474
1.38591
1.5
1.5
1.5
1.5
1.5
1.5
1.4903
1.48387
1.47306
1.46838
1.45802
1.45482
1.44471
1.44275
1.43282
1.43181
1.42216
1.42172
1.41263
1.41222
1.40415
1.40338
1.39489
1.40506
1.37024
1.5
1.5
1.5
1.5
1.5
1.5
1.4903
1.48387
1.47306
1.46838
1.45802
1.45482
1.44471
1.44275
1.43282
1.43181
1.42216
1.42171
1.41264
1.41221
1.40417
1.40336
1.39494
1.40497
1.37031
1.5
1.5
1.5
1.5
1.5
1.5
1.49027
1.48389
1.47301
1.46841
1.45796
1.45487
1.44463
1.44282
1.43272
1.4319
1.42204
1.42184
1.41248
1.41236
1.40403
1.4032
1.3967
1.39465
1.38662
1.5
1.5
1.5
1.5
1.5
1.5
1.49027
1.48388
1.47302
1.4684
1.45798
1.45486
1.44465
1.44279
1.43275
1.43187
1.42208
1.42179
1.41254
1.41229
1.40412
1.40307
1.39699
1.39317
1.3875
1.5
1.5
1.5
1.5
1.5
1.5
1.49027
1.48388
1.47302
1.46841
1.45797
1.45486
1.44465
1.4428
1.43274
1.43189
1.42206
1.42181
1.41251
1.41232
1.40407
1.40314
1.39689
1.39337
1.38728
1.5
1.5
1.5
1.5
1.5
1.5
1.4903
1.48387
1.47306
1.46838
1.45802
1.45482
1.44471
1.44274
1.43282
1.4318
1.42217
1.4217
1.41266
1.41216
1.40433
1.40257
1.39912
1.38264
1.40333
1.5
1.5
1.5
1.5
1.5
1.5
1.49029
1.48388
1.47305
1.4684
1.45801
1.45485
1.4447
1.44279
1.43281
1.43186
1.42215
1.42178
1.41262
1.41227
1.40422
1.40306
1.39709
1.39297
1.38795
1.5
1.5
1.5
1.5
1.5
1.5
1.49058
1.48415
1.47334
1.46866
1.45829
1.4551
1.44497
1.44302
1.43308
1.43208
1.42241
1.42198
1.41288
1.41245
1.40453
1.40287
1.39933
1.38283
1.40391
1.5
1.5
1.5
1.5
1.5
1.5
1.49036
1.48396
1.47311
1.46848
1.45806
1.45493
1.44473
1.44287
1.43282
1.43194
1.42214
1.42186
1.41258
1.41237
1.40414
1.40319
1.39692
1.39337
1.38745
1.5
1.5
1.5
1.5
1.5
1.5
1.49028
1.48388
1.47303
1.46839
1.45799
1.45484
1.44467
1.44277
1.43277
1.43183
1.42211
1.42174
1.41258
1.41222
1.40418
1.40298
1.39709
1.39289
1.38785
1.5
1.5
1.5
1.5
1.5
1.5
1.49029
1.48387
1.47305
1.46838
1.458
1.45482
1.44469
1.44275
1.43279
1.43181
1.42213
1.42171
1.4126
1.41218
1.40425
1.40263
1.39897
1.38279
1.40323
1.5
1.5
1.5
1.5
1.5
1.5
1.49029
1.48387
1.47305
1.46838
1.458
1.45482
1.44468
1.44275
1.43279
1.43181
1.42212
1.42173
1.41258
1.41223
1.40408
1.40341
1.39477
1.40527
1.36983
1.5
1.5
1.5
1.5
1.5
1.5
1.4903
1.48386
1.47306
1.46837
1.45802
1.45481
1.4447
1.44273
1.43282
1.43178
1.42216
1.42167
1.41264
1.41215
1.40418
1.4033
1.39492
1.40518
1.36952
1.5
1.5
1.5
1.5
1.5
1.5
1.49026
1.48388
1.47301
1.46841
1.45795
1.45486
1.44462
1.4428
1.43271
1.43188
1.42203
1.42181
1.41247
1.41232
1.40403
1.40315
1.39671
1.39465
1.38639
1.5
1.5
1.5
1.5
1.5
1.5
1.49027
1.48388
1.47302
1.4684
1.45796
1.45485
1.44464
1.44279
1.43273
1.43187
1.42205
1.42179
1.4125
1.41229
1.40407
1.4031
1.39689
1.39325
1.38741
1.5
1.5
1.5
1.5
1.5
1.5
1.49029
1.48387
1.47305
1.46838
1.458
1.45482
1.44469
1.44275
1.43279
1.43181
1.42213
1.42171
1.4126
1.4122
1.40412
1.40336
1.39488
1.40492
1.37048
1.5
1.5
1.5
1.5
1.5
1.5
1.4903
1.48386
1.47306
1.46837
1.45801
1.45481
1.4447
1.44274
1.43281
1.4318
1.42214
1.4217
1.41261
1.41217
1.40426
1.40261
1.39904
1.38263
1.40359
1.5
1.5
1.5
1.5
1.5
1.5
1.49029
1.48387
1.47304
1.46838
1.458
1.45483
1.44468
1.44276
1.43278
1.43182
1.42211
1.42173
1.41257
1.41224
1.40407
1.40343
1.39475
1.40517
1.37019
1.5
1.5
1.5
1.5
1.5
1.5
1.4903
1.48386
1.47305
1.46837
1.45801
1.45482
1.44469
1.44274
1.4328
1.4318
1.42214
1.4217
1.4126
1.4122
1.40411
1.40338
1.39479
1.40538
1.36941
1.5
1.5
1.5
1.5
1.5
1.5
1.4903
1.48386
1.47306
1.46837
1.45802
1.45481
1.4447
1.44273
1.43281
1.43178
1.42216
1.42168
1.41263
1.41216
1.40417
1.4033
1.39496
1.40498
1.37004
1.5
1.5
1.5
1.5
1.5
1.5
1.49031
1.48386
1.47306
1.46837
1.45802
1.45481
1.44471
1.44273
1.43281
1.43179
1.42215
1.42169
1.41262
1.41216
1.40428
1.40257
1.39913
1.38251
1.40373
1.5
1.5
1.5
1.5
1.5
1.5
1.49031
1.48386
1.47307
1.46837
1.45803
1.4548
1.44471
1.44273
1.43282
1.43178
1.42216
1.42168
1.41263
1.41215
1.40429
1.40257
1.39912
1.3824
1.40406
1.5
1.5
1.5
1.5
1.5
1.5
1.4903
1.48386
1.47306
1.46837
1.45801
1.45481
1.4447
1.44273
1.43281
1.43179
1.42215
1.42169
1.41263
1.41215
1.40429
1.40257
1.39911
1.38242
1.404
1.5
1.5
1.5
1.5
1.5
1.5
1.4903
1.48386
1.47305
1.46837
1.45801
1.45481
1.4447
1.44273
1.43281
1.43179
1.42215
1.42168
1.41263
1.41214
1.4043
1.40256
1.39907
1.38259
1.40348
1.5
1.5
1.5
1.5
1.5
1.5
1.49029
1.48387
1.47305
1.46838
1.458
1.45482
1.44469
1.44275
1.43279
1.43181
1.42212
1.42172
1.41258
1.41222
1.40409
1.4034
1.39481
1.40509
1.37026
1.5
1.5
1.5
1.5
1.5
1.5
1.49029
1.48387
1.47305
1.46838
1.45801
1.45482
1.44469
1.44275
1.43279
1.43181
1.42213
1.42171
1.4126
1.41221
1.40411
1.40338
1.39484
1.40511
1.37007
1.5
1.5
1.5
1.5
1.5
1.5
1.49028
1.48388
1.47304
1.4684
1.45799
1.45485
1.44468
1.44279
1.43278
1.43186
1.42211
1.42177
1.41258
1.41226
1.40417
1.40308
1.39683
1.39475
1.38584
1.5
1.5
1.5
1.5
1.5
1.5
1.49059
1.48414
1.47335
1.46864
1.4583
1.45508
1.44499
1.44299
1.43309
1.43203
1.42244
1.42192
1.41291
1.4124
1.40443
1.40355
1.39513
1.4054
1.37
1.5
1.5
1.5
1.5
1.5
1.5
1.49038
1.48395
1.47313
1.46845
1.45809
1.45489
1.44477
1.44282
1.43287
1.43187
1.4222
1.42178
1.41266
1.41227
1.40417
1.40345
1.39484
1.40537
1.36978
1.5
1.5
1.5
1.5
1.5
1.5
1.4903
1.48387
1.47305
1.46838
1.45801
1.45482
1.44469
1.44274
1.4328
1.4318
1.42214
1.4217
1.41261
1.41217
1.40427
1.40259
1.39906
1.38266
1.40339
1.5
1.5
1.5
1.5
1.5
1.5
1.49029
1.48387
1.47304
1.46838
1.45799
1.45482
1.44467
1.44275
1.43277
1.43182
1.4221
1.42173
1.41256
1.41223
1.40405
1.40342
1.39474
1.40516
1.37018
1.5
1.5
1.5
1.5
1.5
1.5
1.49026
1.48388
1.47301
1.4684
1.45795
1.45486
1.44461
1.4428
1.4327
1.43189
1.422
1.42182
1.41244
1.41234
1.40398
1.40318
1.39675
1.39358
1.38691
1.5
1.5
1.5
1.5
1.5
1.5
1.49029
1.48387
1.47304
1.46838
1.45799
1.45482
1.44467
1.44275
1.43277
1.43181
1.4221
1.42172
1.41256
1.41222
1.40407
1.40338
1.39486
1.40496
1.37041
1.5
1.5
1.5
1.5
1.5
1.5
1.49029
1.48386
1.47305
1.46837
1.458
1.45481
1.44468
1.44274
1.43279
1.4318
1.42212
1.4217
1.41259
1.41217
1.40424
1.40259
1.39908
1.38247
1.40392
1.5
1.5
1.5
1.5
1.5
1.5
1.49029
1.48387
1.47304
1.46838
1.458
1.45482
1.44468
1.44274
1.43278
1.4318
1.42211
1.42171
1.41258
1.41218
1.40423
1.40262
1.39902
1.38249
1.40397
1.5
1.5
1.5
1.5
1.5
1.5
1.49028
1.48387
1.47302
1.46839
1.45797
1.45484
1.44465
1.44277
1.43274
1.43185
1.42206
1.42177
1.41251
1.41227
1.40407
1.4031
1.39672
1.39466
1.38623
1.5
1.5
1.5
1.5
1.5
1.5
1.4903
1.48386
1.47305
1.46837
1.45801
1.45481
1.44469
1.44273
1.4328
1.43178
1.42214
1.42168
1.41261
1.41214
1.40427
1.40256
1.3991
1.3824
1.40399
1.5
1.5
1.5
1.5
1.5
1.5
1.49026
1.48388
1.473
1.46841
1.45795
1.45486
1.44461
1.44281
1.43269
1.43189
1.422
1.42183
1.41243
1.41236
1.40396
1.40321
1.39668
1.39363
1.38695
1.5
1.5
1.5
1.5
1.5
1.5
1.49028
1.48387
1.47303
1.46838
1.45799
1.45482
1.44467
1.44275
1.43277
1.43181
1.4221
1.42172
1.41256
1.41222
1.40408
1.40338
1.39481
1.40517
1.36989
1.5
1.5
1.5
1.5
1.5
1.5
1.49027
1.48388
1.47302
1.46839
1.45797
1.45484
1.44464
1.44278
1.43273
1.43185
1.42206
1.42177
1.41251
1.41227
1.40407
1.40309
1.39676
1.39467
1.38607
1.5
1.5
1.5
1.5
1.5
1.5
1.49029
1.48386
1.47305
1.46837
1.458
1.45481
1.44469
1.44274
1.43279
1.4318
1.42212
1.4217
1.41259
1.41218
1.40423
1.40262
1.399
1.3826
1.40375
1.5
1.5
1.5
1.5
1.5
1.5
1.4903
1.48386
1.47306
1.46836
1.45802
1.45479
1.44471
1.44271
1.43282
1.43176
1.42217
1.42165
1.41266
1.4121
1.40433
1.40251
1.39914
1.38235
1.40389
1.5
1.5
1.5
1.5
1.5
1.5
1.49028
1.48387
1.47303
1.46839
1.45798
1.45483
1.44466
1.44276
1.43275
1.43183
1.42208
1.42174
1.41254
1.41223
1.40412
1.40303
1.39695
1.39303
1.38772
1.5
1.5
1.5
1.5
1.5
1.5
1.49028
1.48387
1.47303
1.46839
1.45798
1.45484
1.44465
1.44277
1.43275
1.43184
1.42207
1.42175
1.41252
1.41225
1.40409
1.40306
1.39691
1.39315
1.38755
1.5
1.5
1.5
1.5
1.5
1.5
1.4903
1.48386
1.47306
1.46836
1.45801
1.4548
1.4447
1.44272
1.43282
1.43176
1.42217
1.42165
1.41266
1.4121
1.40433
1.40249
1.39917
1.38249
1.40338
1.5
1.5
1.5
1.5
1.5
1.5
1.49028
1.48387
1.47303
1.46838
1.45798
1.45483
1.44466
1.44276
1.43276
1.43182
1.42209
1.42173
1.41255
1.41222
1.40413
1.40301
1.397
1.39303
1.38763
1.5
1.5
1.5
1.5
1.5
1.5
1.49027
1.48388
1.47303
1.4684
1.45798
1.45485
1.44466
1.44279
1.43276
1.43186
1.42209
1.42178
1.41255
1.41227
1.40413
1.40306
1.397
1.39312
1.38762
1.5
1.5
1.5
1.5
1.5
1.5
1.49057
1.48415
1.47332
1.46866
1.45826
1.4551
1.44494
1.44302
1.43303
1.43208
1.42236
1.42198
1.41282
1.41246
1.4044
1.40326
1.39705
1.39496
1.38592
1.5
1.5
1.5
1.5
1.5
1.5
1.49037
1.48395
1.47312
1.46846
1.45808
1.4549
1.44475
1.44282
1.43285
1.43188
1.42218
1.42179
1.41263
1.41229
1.40414
1.40347
1.39484
1.40535
1.36987
1.5
1.5
1.5
1.5
1.5
1.5
1.49028
1.48387
1.47304
1.46838
1.45799
1.45483
1.44467
1.44276
1.43277
1.43182
1.42209
1.42174
1.41255
1.41222
1.40419
1.40267
1.39893
1.38283
1.40333
1.5
1.5
1.5
1.5
1.5
1.5
1.49029
1.48386
1.47304
1.46837
1.45799
1.45481
1.44467
1.44274
1.43277
1.4318
1.42211
1.4217
1.41257
1.4122
1.40409
1.40336
1.39482
1.4051
1.37002
1.5
1.5
1.5
1.5
1.5
1.5
1.49027
1.48387
1.47302
1.46839
1.45797
1.45484
1.44464
1.44277
1.43274
1.43183
1.42206
1.42175
1.41252
1.41224
1.4041
1.40303
1.39696
1.3931
1.38749
1.5
1.5
1.5
1.5
1.5
1.5
1.4903
1.48386
1.47305
1.46836
1.45801
1.4548
1.4447
1.44272
1.4328
1.43177
1.42214
1.42167
1.41262
1.41214
1.40428
1.40254
1.39912
1.3824
1.40389
1.5
1.5
1.5
1.5
1.5
1.5
1.4903
1.48386
1.47305
1.46836
1.45801
1.4548
1.44469
1.44272
1.4328
1.43178
1.42213
1.42169
1.4126
1.41216
1.40425
1.4026
1.39901
1.38251
1.4039
1.5
1.5
1.5
1.5
1.5
1.5
1.49029
1.48386
1.47305
1.46837
1.458
1.45481
1.44468
1.44273
1.43278
1.43179
1.42212
1.4217
1.41258
1.41218
1.40422
1.40263
1.39893
1.38275
1.4034
1.5
1.5
1.5
1.5
1.5
1.5
1.49029
1.48386
1.47305
1.46837
1.458
1.45481
1.44469
1.44273
1.43279
1.43179
1.42213
1.42169
1.41259
1.41218
1.40411
1.40334
1.39484
1.40503
1.37016
1.5
1.5
1.5
1.5
1.5
1.5
1.4903
1.48386
1.47305
1.46837
1.45801
1.45481
1.44469
1.44273
1.43279
1.43179
1.42213
1.42169
1.4126
1.41216
1.40424
1.40259
1.39902
1.38261
1.40358
1.5
1.5
1.5
1.5
1.5
1.5
1.49028
1.48387
1.47302
1.46838
1.45797
1.45483
1.44465
1.44276
1.43274
1.43183
1.42207
1.42175
1.41252
1.41226
1.40401
1.40344
1.39475
1.40502
1.37056
1.5
1.5
1.5
1.5
1.5
1.5
1.49026
1.48388
1.47301
1.46839
1.45796
1.45484
1.44463
1.44278
1.43272
1.43185
1.42204
1.42177
1.41249
1.41227
1.40406
1.40307
1.39691
1.39325
1.38728
1.5
1.5
1.5
1.5
1.5
1.5
1.49027
1.48388
1.47302
1.46839
1.45796
1.45484
1.44464
1.44277
1.43273
1.43183
1.42206
1.42174
1.41252
1.41223
1.4041
1.40304
1.39675
1.39469
1.3859
1.5
1.5
1.5
1.5
1.5
1.5
1.49028
1.48387
1.47303
1.46838
1.45798
1.45482
1.44466
1.44275
1.43276
1.43182
1.42208
1.42173
1.41254
1.41223
1.40405
1.4034
1.3948
1.40498
1.37047
1.5
1.5
1.5
1.5
1.5
1.5
1.49026
1.48388
1.47301
1.4684
1.45795
1.45485
1.44462
1.44279
1.43271
1.43186
1.42202
1.42179
1.41246
1.4123
1.40401
1.40313
1.39679
1.39341
1.38719
1.5
1.5
1.5
1.5
1.5
1.5
1.49025
1.48388
1.473
1.4684
1.45794
1.45486
1.4446
1.4428
1.43269
1.43188
1.422
1.42181
1.41244
1.41232
1.40399
1.40315
1.39676
1.39343
1.38717
1.5
1.5
1.5
1.5
1.5
1.5
1.49028
1.48387
1.47303
1.46838
1.45797
1.45483
1.44465
1.44276
1.43275
1.43183
1.42207
1.42174
1.41252
1.41225
1.40402
1.40344
1.3947
1.40529
1.36991
1.5
1.5
1.5
1.5
1.5
1.5
1.49027
1.48387
1.47302
1.46839
1.45797
1.45483
1.44465
1.44276
1.43274
1.43183
1.42207
1.42174
1.41253
1.41223
1.40411
1.40302
1.39697
1.39306
1.38759
1.5
1.5
1.5
1.5
1.5
1.5
1.4903
1.48386
1.47306
1.46836
1.45802
1.4548
1.4447
1.44271
1.43281
1.43177
1.42215
1.42166
1.41263
1.41212
1.4043
1.40253
1.39915
1.38231
1.40406
1.5
1.5
1.5
1.5
1.5
1.5
1.4903
1.48386
1.47306
1.46837
1.45802
1.45481
1.44471
1.44274
1.43282
1.43179
1.42217
1.42169
1.41265
1.41215
1.40432
1.40258
1.39909
1.38261
1.40351
1.5
1.5
1.5
1.5
1.5
1.5
1.49059
1.48414
1.47334
1.46864
1.45829
1.45508
1.44497
1.44299
1.43307
1.43204
1.4224
1.42194
1.41286
1.41242
1.40437
1.40359
1.39508
1.40534
1.37029
1.5
1.5
1.5
1.5
1.5
1.5
1.49036
1.48396
1.47311
1.46848
1.45806
1.45493
1.44474
1.44286
1.43283
1.43193
1.42216
1.42185
1.41262
1.41234
1.4042
1.40313
1.39707
1.39322
1.38757
1.5
1.5
1.5
1.5
1.5
1.5
1.49026
1.48389
1.47301
1.46841
1.45796
1.45487
1.44463
1.44281
1.43273
1.43189
1.42205
1.42182
1.4125
1.41233
1.40406
1.40317
1.3967
1.39467
1.38649
1.5
1.5
1.5
1.5
1.5
1.5
1.49026
1.48388
1.47301
1.4684
1.45797
1.45485
1.44464
1.44279
1.43274
1.43186
1.42207
1.42178
1.41252
1.41228
1.4041
1.40309
1.39678
1.3947
1.38603
1.5
1.5
1.5
1.5
1.5
1.5
1.49027
1.48388
1.47302
1.4684
1.45797
1.45485
1.44464
1.44279
1.43274
1.43187
1.42206
1.42179
1.41251
1.4123
1.40408
1.40311
1.3969
1.39327
1.38741
1.5
1.5
1.5
1.5
1.5
1.5
1.4903
1.48386
1.47306
1.46837
1.45802
1.45481
1.4447
1.44274
1.43281
1.4318
1.42215
1.4217
1.41263
1.41217
1.40428
1.4026
1.39907
1.38255
1.40376
1.5
1.5
1.5
1.5
1.5
1.5
1.49029
1.48387
1.47305
1.46838
1.458
1.45483
1.44469
1.44276
1.43279
1.43182
1.42212
1.42174
1.41258
1.41225
1.40408
1.40345
1.39476
1.40519
1.37021
1.5
1.5
1.5
1.5
1.5
1.5
1.49029
1.48387
1.47305
1.46838
1.458
1.45483