/*--------------------------------*- C++ -*----------------------------------*\
  =========                 |
  \\      /  F ield         | OpenFOAM: The Open Source CFD Toolbox
   \\    /   O peration     | Website:  https://openfoam.org
    \\  /    A nd           | Version:  12
     \\/     M anipulation  |
\*---------------------------------------------------------------------------*/
FoamFile
{
    format      ascii;
    class       volScalarField;
    location    "100";
    object      p;
}
// * * * * * * * * * * * * * * * * * * * * * * * * * * * * * * * * * * * * * //

dimensions      [0 2 -2 0 0 0 0];

internalField   nonuniform List<scalar> 
5000
(
0.587478
0.432063
0.343549
0.310229
0.286496
0.261743
0.239064
0.219487
0.201885
0.185513
0.170094
0.155516
0.141606
0.128157
0.115088
0.102355
0.0898955
0.07765
0.0655731
0.0536411
0.041811
0.0299543
0.0179626
0.00565721
-0.0112349
0.587237
0.432264
0.34358
0.31017
0.286485
0.261764
0.239072
0.219464
0.201907
0.185597
0.170186
0.15555
0.141558
0.128072
0.114995
0.102279
0.0898538
0.0776345
0.0655744
0.0536517
0.0418248
0.0299724
0.0179839
0.00566634
-0.0111766
0.58721
0.432316
0.343577
0.310143
0.28648
0.261769
0.239074
0.219453
0.201879
0.185582
0.170231
0.155629
0.14162
0.128134
0.115003
0.102199
0.0897737
0.0775878
0.0655447
0.0536254
0.0418016
0.0299824
0.0180247
0.00571701
-0.0111556
0.587201
0.432319
0.343583
0.310139
0.286475
0.261762
0.239058
0.219423
0.201805
0.185466
0.170107
0.155528
0.141551
0.128094
0.115031
0.10228
0.0898566
0.0776724
0.0656382
0.0537141
0.0418475
0.0299893
0.018005
0.00568666
-0.0111476
0.587201
0.432322
0.343587
0.310136
0.286464
0.261749
0.239028
0.219372
0.201768
0.185428
0.170029
0.155418
0.141495
0.128129
0.115109
0.102365
0.0899349
0.0777406
0.0656961
0.0537593
0.0418748
0.0300008
0.0180058
0.00568398
-0.0111435
0.587201
0.432323
0.343588
0.310133
0.28646
0.261738
0.239017
0.219372
0.201738
0.185363
0.169962
0.155369
0.14148
0.128147
0.115144
0.102415
0.0899943
0.0778007
0.065749
0.0538007
0.0419037
0.0300178
0.0180111
0.00568024
-0.0111528
0.587202
0.432323
0.343588
0.310131
0.286454
0.26173
0.239004
0.219325
0.201655
0.185279
0.169908
0.155371
0.141522
0.128163
0.115122
0.102397
0.0899876
0.0778004
0.0657386
0.0537819
0.0419128
0.0300579
0.0180725
0.00574741
-0.0111187
0.587203
0.432323
0.343587
0.310128
0.28645
0.261721
0.238996
0.219343
0.201675
0.185247
0.16983
0.155299
0.141482
0.128148
0.115132
0.102429
0.0900454
0.0778711
0.0657867
0.0538005
0.0419157
0.0300553
0.0180656
0.005733
-0.0111168
0.587203
0.432324
0.343586
0.310126
0.286442
0.261712
0.238981
0.219334
0.201694
0.185279
0.16985
0.155283
0.141445
0.128099
0.115058
0.102374
0.0900324
0.0778787
0.0658183
0.0538477
0.0419714
0.0301154
0.0181184
0.00575343
-0.0111403
0.587204
0.432323
0.343585
0.310122
0.286437
0.261699
0.238964
0.219299
0.201622
0.185193
0.169787
0.155274
0.141485
0.128185
0.115186
0.10249
0.0901097
0.0779307
0.0658332
0.0538252
0.0419178
0.03004
0.0180404
0.00570522
-0.0111357
0.587204
0.432323
0.343584
0.31012
0.286428
0.261689
0.238932
0.219223
0.20156
0.185168
0.169751
0.155231
0.141453
0.128169
0.115182
0.102493
0.0901162
0.077947
0.0658799
0.0538683
0.0419469
0.0300547
0.018045
0.00570849
-0.0111317
0.587205
0.432324
0.343584
0.31012
0.286426
0.261683
0.238919
0.2192
0.201532
0.185153
0.169762
0.155267
0.141496
0.1282
0.115192
0.102488
0.090105
0.0779271
0.0658563
0.0538436
0.0419237
0.0300367
0.0180322
0.00569782
-0.011145
0.587207
0.432326
0.343587
0.310122
0.286431
0.261686
0.238929
0.219212
0.201515
0.185143
0.169798
0.155312
0.141508
0.128137
0.115068
0.102385
0.0900373
0.0778672
0.0658025
0.053836
0.0419637
0.0301123
0.0181197
0.00575138
-0.011148
0.587209
0.432329
0.34359
0.310127
0.286439
0.261698
0.238938
0.219213
0.201514
0.185144
0.1698
0.155306
0.141484
0.128114
0.115063
0.102361
0.0899864
0.0777978
0.0657328
0.0537825
0.0419324
0.0300974
0.0181208
0.0057817
-0.0111252
0.587211
0.432331
0.343593
0.310134
0.286449
0.261712
0.238969
0.21928
0.201619
0.185243
0.16984
0.155287
0.141419
0.128017
0.114941
0.102221
0.0898724
0.0777298
0.0657039
0.0537845
0.04196
0.0301423
0.0181731
0.00582487
-0.0111285
0.587213
0.432334
0.343597
0.31014
0.28646
0.261727
0.238983
0.219318
0.201671
0.185265
0.169826
0.155222
0.141336
0.127969
0.114931
0.102221
0.0898611
0.077727
0.0656959
0.0537726
0.041948
0.0301354
0.0181753
0.00583579
-0.0111235
0.587217
0.432334
0.343596
0.310147
0.286471
0.261738
0.238993
0.219304
0.20161
0.185212
0.169835
0.1553
0.141394
0.127963
0.11492
0.102193
0.0897919
0.0776362
0.0656288
0.053735
0.041935
0.0301393
0.0181835
0.00583341
-0.0111388
0.587228
0.432334
0.343593
0.310155
0.286479
0.261747
0.23901
0.219356
0.201732
0.185349
0.169935
0.155341
0.141365
0.127856
0.114769
0.102077
0.0897091
0.0775647
0.0655694
0.053694
0.0419148
0.0301368
0.0181845
0.00582091
-0.011134
0.587256
0.432284
0.343598
0.310184
0.286487
0.261746
0.239023
0.21936
0.201723
0.185364
0.169967
0.155366
0.141383
0.12787
0.114774
0.102063
0.0896735
0.0775237
0.065525
0.0536523
0.0418796
0.030106
0.0181605
0.00582679
-0.0111101
0.587498
0.432085
0.343567
0.310244
0.286496
0.261725
0.239012
0.219384
0.201804
0.185455
0.17
0.155332
0.141316
0.127779
0.114665
0.101988
0.0896686
0.0775476
0.0655577
0.0536898
0.0419219
0.0301429
0.0181599
0.00580814
-0.0111841
0.440961
0.376523
0.327841
0.305776
0.285842
0.264441
0.244359
0.22623
0.209382
0.193352
0.177965
0.163173
0.148954
0.135196
0.121808
0.108866
0.0963565
0.083994
0.0717011
0.059563
0.0476299
0.0358902
0.024226
0.0131092
0.00115455
0.441084
0.376625
0.327825
0.305694
0.2858
0.264424
0.244341
0.226209
0.209379
0.193361
0.177985
0.163209
0.148948
0.135139
0.121754
0.108821
0.0963164
0.0839678
0.0716911
0.0595635
0.0476343
0.035891
0.0242284
0.0131097
0.00117049
0.441107
0.376638
0.327806
0.305667
0.28579
0.264421
0.244329
0.226164
0.209318
0.193295
0.177929
0.163191
0.148981
0.135195
0.121815
0.108911
0.096364
0.0839835
0.0716959
0.0595594
0.0476144
0.0358346
0.0241874
0.0130975
0.00117473
0.441112
0.376651
0.327813
0.305665
0.285784
0.264411
0.244311
0.226132
0.209266
0.193233
0.177873
0.163153
0.148971
0.135195
0.121768
0.108879
0.0964058
0.0840564
0.071777
0.0596496
0.047717
0.0358976
0.0242166
0.0130984
0.00115764
0.441114
0.376655
0.327815
0.305661
0.285775
0.264399
0.244293
0.226126
0.209268
0.193231
0.177873
0.163136
0.148905
0.135135
0.121766
0.108901
0.0964461
0.0841009
0.071815
0.0596787
0.0477362
0.035904
0.0242155
0.0130946
0.00115683
0.441115
0.376657
0.327816
0.305659
0.28577
0.264391
0.244277
0.226092
0.209212
0.193155
0.177803
0.163098
0.148881
0.135133
0.121801
0.10896
0.0965226
0.0841801
0.0718867
0.0597327
0.0477699
0.0359232
0.0242228
0.0130915
0.00114802
0.441116
0.376657
0.327816
0.305657
0.285765
0.264379
0.244251
0.226043
0.209127
0.193056
0.17769
0.163003
0.148846
0.135155
0.121877
0.10905
0.0966124
0.0842415
0.07193
0.0597443
0.0477387
0.0359028
0.0242177
0.0130969
0.00115166
0.441117
0.376658
0.327815
0.305655
0.285761
0.264374
0.244254
0.226064
0.209145
0.193025
0.177606
0.162915
0.148785
0.135125
0.121873
0.109065
0.0966453
0.0843193
0.0720409
0.0598289
0.0477859
0.0359257
0.0242253
0.0130967
0.001152
0.441117
0.376658
0.327814
0.305652
0.285755
0.264366
0.244244
0.226057
0.209136
0.193028
0.17762
0.162924
0.148801
0.135147
0.121891
0.109031
0.0965835
0.0842564
0.0719747
0.0597899
0.0477687
0.0359284
0.0242535
0.0131527
0.00119417
0.441117
0.376657
0.327813
0.305648
0.285748
0.264353
0.244226
0.226028
0.209119
0.193011
0.177591
0.162905
0.148795
0.13515
0.121903
0.109091
0.0966629
0.0843395
0.0720621
0.0598463
0.0477877
0.0359141
0.0242063
0.0130779
0.00114601
0.441118
0.376657
0.327812
0.305646
0.285742
0.264342
0.244203
0.226001
0.209106
0.193032
0.177633
0.162904
0.148781
0.135123
0.121863
0.109047
0.0966146
0.0842903
0.072014
0.0598565
0.0478094
0.0359375
0.0242285
0.0130926
0.00116893
0.441118
0.376658
0.327813
0.305646
0.28574
0.264337
0.244192
0.225982
0.209083
0.193022
0.177644
0.162927
0.148805
0.135144
0.121877
0.109042
0.0965931
0.0842597
0.0719773
0.059825
0.0477835
0.0359171
0.0242138
0.0130822
0.00116148
0.44112
0.37666
0.327815
0.305649
0.285743
0.264339
0.244188
0.225956
0.209027
0.192967
0.177622
0.162952
0.14883
0.135176
0.121899
0.108997
0.0965205
0.0841926
0.0719136
0.0597547
0.0477548
0.0359298
0.0242624
0.0131604
0.00119807
0.441122
0.376662
0.327818
0.305653
0.28575
0.264348
0.244197
0.225963
0.209032
0.19294
0.177592
0.162911
0.14877
0.135105
0.121835
0.108996
0.0965558
0.0842536
0.0719529
0.0597709
0.0477648
0.0359338
0.0242509
0.0131189
0.0011723
0.441124
0.376665
0.327822
0.305659
0.285759
0.264363
0.244225
0.225999
0.209084
0.193
0.17763
0.162914
0.148737
0.135048
0.121768
0.108924
0.09644
0.0841234
0.0718686
0.0597283
0.0477569
0.0359526
0.0242859
0.0131621
0.00119956
0.441125
0.376666
0.327825
0.305665
0.285769
0.264376
0.244247
0.226048
0.209146
0.193057
0.177672
0.162935
0.148708
0.134978
0.121673
0.108846
0.096417
0.0841267
0.0719032
0.0597539
0.0477716
0.0359599
0.0242835
0.0131468
0.00116292
0.441126
0.376665
0.327825
0.305672
0.285779
0.264386
0.244252
0.226041
0.209117
0.193015
0.177647
0.162929
0.14876
0.135047
0.121695
0.108831
0.0963714
0.0840561
0.0718095
0.0596859
0.0477327
0.035944
0.0242884
0.0131711
0.00119881
0.441123
0.376655
0.327822
0.305677
0.285788
0.264398
0.244274
0.226088
0.209173
0.193082
0.177683
0.162923
0.148731
0.135016
0.121654
0.108728
0.0962828
0.083985
0.0717527
0.0596489
0.0477153
0.0359457
0.0243105
0.0132129
0.00121913
0.441101
0.376643
0.327842
0.305706
0.285799
0.264401
0.244277
0.22608
0.20917
0.193093
0.177692
0.162929
0.148716
0.134984
0.121632
0.108753
0.0963247
0.0839938
0.0717392
0.0596251
0.0476903
0.0359243
0.0242859
0.0131682
0.00118179
0.44098
0.376542
0.327858
0.305788
0.285842
0.26442
0.244311
0.226145
0.20927
0.193167
0.177744
0.162964
0.148706
0.134921
0.12153
0.108652
0.0962105
0.0839156
0.0716945
0.0596056
0.0476937
0.035957
0.0243549
0.0132252
0.00118635
0.3795
0.361734
0.332492
0.306262
0.284012
0.263303
0.24392
0.225826
0.208835
0.192665
0.177198
0.162352
0.148026
0.134145
0.120438
0.1074
0.0951564
0.0828908
0.0705892
0.0584788
0.0466322
0.0350607
0.0238608
0.0133357
0.00390248
0.379474
0.361688
0.332471
0.306249
0.284012
0.263312
0.243928
0.22583
0.208837
0.192664
0.177195
0.162349
0.148015
0.134126
0.120428
0.107401
0.0951587
0.0828991
0.0706041
0.0584969
0.04665
0.0350749
0.0238723
0.013344
0.00390982
0.379471
0.361682
0.33247
0.306244
0.284012
0.263312
0.243922
0.225812
0.208811
0.192636
0.177169
0.162336
0.148017
0.134124
0.120431
0.107431
0.0951899
0.0829209
0.0706217
0.0585111
0.0466584
0.0350729
0.0238686
0.0133438
0.00391182
0.379472
0.361679
0.332464
0.306238
0.284005
0.263304
0.243908
0.225793
0.208786
0.192605
0.177139
0.162313
0.148008
0.13413
0.12043
0.107432
0.0952186
0.0829665
0.07067
0.0585558
0.0466957
0.0350934
0.0238758
0.0133429
0.00390934
0.379472
0.361679
0.332462
0.306234
0.283999
0.263294
0.243895
0.225777
0.208765
0.192581
0.177116
0.162296
0.147991
0.134124
0.12044
0.107449
0.0952449
0.0829972
0.0706977
0.0585768
0.046709
0.0350982
0.0238753
0.0133408
0.00390931
0.379473
0.361679
0.332461
0.306231
0.283993
0.263285
0.243879
0.225751
0.20873
0.19254
0.177079
0.16227
0.147976
0.134125
0.12046
0.107483
0.0952899
0.0830451
0.0707415
0.0586115
0.0467324
0.0351121
0.0238813
0.0133403
0.00390628
0.379473
0.361679
0.332459
0.306229
0.283988
0.263275
0.243862
0.225723
0.208686
0.192486
0.177024
0.162225
0.147951
0.134121
0.120481
0.107525
0.0953349
0.0830825
0.070774
0.0586352
0.046745
0.0351227
0.023892
0.0133496
0.00391114
0.379473
0.361678
0.332458
0.306226
0.283983
0.263268
0.243853
0.225712
0.208669
0.192456
0.176984
0.162189
0.14793
0.134121
0.120499
0.10755
0.0953699
0.0831279
0.0708226
0.0586732
0.0467673
0.0351323
0.0238927
0.0133462
0.00390912
0.379473
0.361678
0.332457
0.306223
0.283977
0.263259
0.243842
0.225701
0.208655
0.192441
0.176967
0.162172
0.147917
0.134115
0.120503
0.107552
0.0953635
0.083122
0.0708193
0.0586746
0.0467708
0.0351372
0.0238999
0.0133568
0.00391627
0.379473
0.361678
0.332456
0.30622
0.283972
0.26325
0.24383
0.225686
0.208645
0.192435
0.176964
0.162175
0.147927
0.134129
0.120514
0.107567
0.0953839
0.0831415
0.0708346
0.0586804
0.0467648
0.0351211
0.0238768
0.0133317
0.00390353
0.379474
0.361678
0.332456
0.306218
0.283967
0.263242
0.243818
0.225674
0.208637
0.192436
0.176971
0.162176
0.147924
0.134123
0.120503
0.107547
0.0953595
0.0831184
0.0708154
0.0586748
0.0467653
0.0351243
0.0238811
0.0133354
0.00390807
0.379475
0.361679
0.332456
0.306218
0.283966
0.263239
0.243811
0.225663
0.208626
0.192429
0.17697
0.162176
0.147922
0.134117
0.120493
0.107531
0.0953377
0.0830965
0.0707957
0.0586612
0.0467581
0.0351221
0.0238815
0.0133356
0.00390746
0.379476
0.36168
0.332458
0.30622
0.283968
0.26324
0.24381
0.225655
0.20861
0.192411
0.176956
0.162164
0.147902
0.13409
0.120466
0.107498
0.0953011
0.0830673
0.070778
0.0586545
0.0467694
0.0351481
0.0239157
0.0133691
0.00392144
0.379478
0.361683
0.332461
0.306224
0.283973
0.263247
0.243817
0.22566
0.208609
0.1924
0.176941
0.162142
0.14787
0.13405
0.120421
0.107471
0.0952931
0.0830711
0.0707845
0.0586621
0.0467814
0.0351639
0.0239301
0.0133753
0.00392364
0.37948
0.361685
0.332465
0.30623
0.283981
0.263258
0.243831
0.225676
0.208627
0.192416
0.176945
0.162127
0.147837
0.134001
0.120371
0.107425
0.095242
0.0830248
0.0707574
0.0586541
0.04679
0.0351846
0.0239555
0.0133972
0.00393295
0.379482
0.361688
0.332469
0.306236
0.283989
0.263269
0.243846
0.225697
0.208652
0.192438
0.176955
0.162125
0.147818
0.133968
0.120322
0.107378
0.0952125
0.0830068
0.0707502
0.0586524
0.0467927
0.0351907
0.023962
0.0134003
0.00392935
0.379483
0.361691
0.332474
0.306242
0.283997
0.263277
0.243855
0.225707
0.208658
0.192437
0.176952
0.162116
0.147815
0.133963
0.120298
0.107338
0.0951691
0.082966
0.070714
0.0586289
0.0467821
0.0351896
0.0239667
0.0134088
0.00393653
0.379485
0.361696
0.332482
0.30625
0.284005
0.263287
0.243868
0.225724
0.208674
0.192452
0.176956
0.162104
0.147789
0.133932
0.120267
0.107296
0.0951265
0.0829306
0.0706873
0.0586127
0.046776
0.0351917
0.0239755
0.0134216
0.0039438
0.379489
0.361704
0.332485
0.306257
0.284007
0.263287
0.243871
0.22573
0.208682
0.192459
0.17696
0.162103
0.147779
0.133913
0.120248
0.107291
0.0951258
0.0829219
0.0706736
0.0585983
0.0467638
0.0351835
0.0239708
0.0134153
0.00393859
0.379516
0.36175
0.332507
0.30627
0.284008
0.263279
0.243867
0.225734
0.208693
0.192464
0.176954
0.16209
0.147753
0.133879
0.120216
0.10726
0.0950908
0.0828937
0.070655
0.0585887
0.0467619
0.03519
0.0239853
0.0134287
0.00393991
0.343561
0.334563
0.313682
0.291681
0.273241
0.256362
0.239611
0.22328
0.207683
0.192687
0.178125
0.16392
0.150052
0.136506
0.123247
0.110386
0.0978616
0.0854371
0.0731448
0.0610787
0.0492662
0.0376187
0.0264218
0.0148598
0.00601388
0.343556
0.334579
0.313723
0.291701
0.273237
0.256355
0.239604
0.22327
0.207669
0.192672
0.178112
0.163911
0.150046
0.1365
0.123245
0.110388
0.0978651
0.0854424
0.0731501
0.0610826
0.0492675
0.0376181
0.0264182
0.0148626
0.00600698
0.343556
0.334585
0.313732
0.291699
0.273229
0.256347
0.239595
0.223256
0.207651
0.192654
0.178098
0.163906
0.15005
0.136509
0.123257
0.110406
0.0978826
0.0854567
0.0731606
0.0610881
0.0492674
0.0376124
0.0264103
0.0148566
0.00600413
0.343557
0.334586
0.313734
0.291701
0.273228
0.256342
0.239586
0.223242
0.207631
0.19263
0.178074
0.163886
0.150037
0.136504
0.123258
0.110415
0.0979033
0.0854842
0.0731891
0.0611139
0.0492874
0.0376237
0.0264141
0.014856
0.00600183
0.343557
0.334586
0.313735
0.291701
0.273224
0.256334
0.239574
0.223225
0.207609
0.192604
0.178048
0.163864
0.150021
0.136499
0.123264
0.11043
0.0979268
0.0855107
0.073214
0.061134
0.0493011
0.0376308
0.0264164
0.0148559
0.00600218
0.343557
0.334586
0.313734
0.291699
0.273219
0.256326
0.239561
0.223206
0.207586
0.192578
0.178023
0.163845
0.150012
0.136502
0.12328
0.110458
0.0979611
0.0855461
0.0732456
0.0611583
0.0493164
0.0376377
0.0264163
0.0148508
0.0059981
0.343557
0.334586
0.313733
0.291696
0.273214
0.256317
0.239548
0.223187
0.207559
0.192547
0.177995
0.163825
0.150004
0.136508
0.123301
0.110487
0.0979907
0.0855719
0.0732669
0.0611718
0.0493214
0.0376371
0.0264126
0.0148448
0.0059958
0.343557
0.334585
0.313732
0.291694
0.27321
0.25631
0.239537
0.223173
0.207541
0.192525
0.177972
0.163808
0.149996
0.136512
0.123316
0.110511
0.0980181
0.0856005
0.0732938
0.0611915
0.0493313
0.0376381
0.0264072
0.0148359
0.00598858
0.343557
0.334585
0.313731
0.291691
0.273205
0.256302
0.239527
0.22316
0.207527
0.19251
0.177957
0.163794
0.149986
0.136506
0.123313
0.110508
0.0980168
0.0856016
0.0732959
0.0611946
0.0493344
0.037641
0.0264108
0.0148412
0.00599326
0.343557
0.334585
0.31373
0.291689
0.2732
0.256295
0.239517
0.22315
0.207516
0.1925
0.177948
0.163788
0.149984
0.136507
0.123317
0.110515
0.0980253
0.0856099
0.0733041
0.0611998
0.0493344
0.0376355
0.0264009
0.0148297
0.00598626
0.343557
0.334585
0.313729
0.291687
0.273197
0.256289
0.239509
0.22314
0.207507
0.192493
0.177941
0.163778
0.149971
0.136492
0.123299
0.110497
0.098009
0.0855983
0.0732982
0.0612016
0.0493414
0.0376452
0.0264114
0.0148397
0.00599233
0.343558
0.334586
0.31373
0.291687
0.273196
0.256287
0.239505
0.223133
0.207499
0.192486
0.177934
0.163771
0.149961
0.13648
0.123286
0.110482
0.0979948
0.0855867
0.0732899
0.0611978
0.0493419
0.0376486
0.0264156
0.0148422
0.0059934
0.343559
0.334587
0.313731
0.291689
0.273197
0.256288
0.239504
0.22313
0.207494
0.192478
0.177926
0.163761
0.149948
0.136462
0.123266
0.11046
0.0979746
0.0855727
0.0732824
0.061198
0.0493512
0.0376651
0.0264352
0.0148594
0.00600225
0.343561
0.334589
0.313734
0.291692
0.273201
0.256292
0.239508
0.223133
0.207493
0.192473
0.177918
0.163748
0.14993
0.136441
0.123245
0.110444
0.097964
0.0855674
0.0732819
0.0612011
0.0493578
0.0376733
0.0264414
0.0148593
0.00600082
0.343563
0.334591
0.313737
0.291695
0.273206
0.256299
0.239517
0.223141
0.207501
0.192477
0.177915
0.163734
0.149905
0.136408
0.123208
0.110409
0.0979324
0.0855443
0.0732698
0.0612004
0.049367
0.0376895
0.0264597
0.0148744
0.00600848
0.343565
0.334593
0.31374
0.291699
0.273212
0.256306
0.239525
0.223152
0.20751
0.192482
0.177911
0.16372
0.149883
0.136379
0.123176
0.11038
0.0979123
0.0855328
0.0732669
0.0612041
0.0493755
0.0377005
0.0264702
0.0148811
0.0060114
0.343566
0.334595
0.313741
0.291702
0.273217
0.256313
0.239534
0.22316
0.207517
0.192484
0.177907
0.163712
0.149871
0.136363
0.123153
0.110351
0.0978843
0.0855088
0.0732481
0.0611932
0.0493725
0.0377039
0.0264774
0.0148898
0.00601575
0.343567
0.334596
0.31374
0.291701
0.273219
0.256318
0.23954
0.223169
0.207525
0.192492
0.177912
0.163709
0.14986
0.136345
0.123131
0.110326
0.0978593
0.0854878
0.0732324
0.0611839
0.0493697
0.0377066
0.0264841
0.0148977
0.00601965
0.343568
0.334591
0.313733
0.291704
0.273228
0.256326
0.239547
0.223176
0.207534
0.192499
0.177916
0.163709
0.149854
0.136336
0.123121
0.110317
0.0978501
0.0854764
0.0732209
0.0611737
0.0493618
0.037701
0.0264805
0.0148937
0.00601843
0.343574
0.334576
0.313692
0.291685
0.273231
0.256333
0.239554
0.223185
0.207545
0.192509
0.177921
0.163708
0.149847
0.136323
0.123106
0.110303
0.0978374
0.0854671
0.0732159
0.061174
0.0493671
0.0377099
0.0264938
0.0148994
0.00602922
0.319004
0.313693
0.300591
0.284777
0.26964
0.254714
0.239163
0.223611
0.20849
0.193753
0.179282
0.165064
0.151133
0.1375
0.12415
0.111089
0.0983237
0.0857988
0.0734754
0.0613461
0.0494428
0.0376762
0.0263602
0.0146112
0.00604471
0.319003
0.313689
0.300591
0.284767
0.269623
0.254702
0.239158
0.223607
0.208485
0.193749
0.179281
0.165065
0.151136
0.137504
0.124156
0.111097
0.0983315
0.0858059
0.0734814
0.0613509
0.0494458
0.0376785
0.0263593
0.0146161
0.00603544
0.319003
0.313689
0.300591
0.284762
0.269614
0.254697
0.239154
0.223601
0.208475
0.19374
0.179274
0.165063
0.151138
0.137509
0.124163
0.111107
0.0983423
0.0858152
0.0734883
0.0613548
0.0494465
0.0376766
0.0263561
0.0146138
0.00603258
0.319004
0.313689
0.30059
0.284759
0.269608
0.254689
0.239144
0.223588
0.20846
0.193723
0.179258
0.165051
0.151132
0.13751
0.12417
0.111119
0.0983587
0.0858338
0.0735062
0.0613699
0.0494575
0.0376829
0.0263585
0.0146144
0.00603234
0.319004
0.313689
0.300589
0.284756
0.269603
0.25468
0.239134
0.223574
0.208443
0.193704
0.17924
0.165037
0.151124
0.13751
0.124178
0.111133
0.0983776
0.0858537
0.073524
0.0613837
0.0494662
0.0376869
0.026359
0.0146132
0.00603172
0.319004
0.313688
0.300588
0.284753
0.269598
0.254672
0.239122
0.223559
0.208425
0.193684
0.179222
0.165024
0.151118
0.137513
0.12419
0.111152
0.0984004
0.0858766
0.0735438
0.0613981
0.0494743
0.0376891
0.0263568
0.0146085
0.00602858
0.319003
0.313688
0.300587
0.284751
0.269593
0.254664
0.239111
0.223544
0.208406
0.193664
0.179203
0.16501
0.151112
0.137515
0.1242
0.111168
0.0984176
0.0858926
0.0735567
0.0614061
0.0494769
0.0376874
0.0263527
0.0146038
0.00602645
0.319003
0.313687
0.300585
0.284748
0.269588
0.254657
0.239101
0.223531
0.208391
0.193647
0.179187
0.164998
0.151107
0.137517
0.124208
0.111181
0.0984331
0.0859086
0.0735708
0.0614155
0.0494804
0.0376856
0.0263475
0.0145975
0.00602278
0.319003
0.313687
0.300584
0.284745
0.269583
0.25465
0.239092
0.22352
0.208378
0.193634
0.179175
0.164988
0.151099
0.137513
0.124207
0.111182
0.0984362
0.085913
0.0735755
0.0614195
0.0494829
0.0376865
0.0263477
0.0145981
0.00602381
0.319003
0.313686
0.300583
0.284743
0.26958
0.254645
0.239084
0.223511
0.208368
0.193624
0.179166
0.16498
0.151093
0.137509
0.124207
0.111184
0.09844
0.0859181
0.073581
0.0614239
0.049485
0.0376861
0.0263454
0.0145952
0.00602236
0.319003
0.313686
0.300583
0.284742
0.269577
0.25464
0.239078
0.223503
0.20836
0.193616
0.179156
0.16497
0.151082
0.137499
0.124196
0.111175
0.0984339
0.0859154
0.0735819
0.0614281
0.0494913
0.0376931
0.026352
0.0146006
0.00602537
0.319003
0.313687
0.300583
0.284741
0.269576
0.254638
0.239074
0.223498
0.208353
0.193608
0.179148
0.16496
0.151072
0.137488
0.124186
0.111166
0.0984271
0.0859116
0.0735812
0.0614303
0.0494955
0.0376981
0.0263561
0.0146024
0.00602553
0.319005
0.313688
0.300584
0.284743
0.269577
0.254638
0.239073
0.223495
0.208349
0.193602
0.17914
0.16495
0.15106
0.137474
0.124171
0.111153
0.0984163
0.0859054
0.0735799
0.0614341
0.0495037
0.0377086
0.0263662
0.0146089
0.00602765
0.319006
0.31369
0.300586
0.284745
0.26958
0.254641
0.239075
0.223496
0.208347
0.193598
0.179133
0.164939
0.151045
0.137456
0.124154
0.111137
0.0984053
0.0858991
0.0735783
0.0614366
0.0495093
0.0377154
0.0263713
0.01461
0.00602685
0.319007
0.313691
0.300588
0.284748
0.269584
0.254646
0.23908
0.2235
0.208349
0.193596
0.179126
0.164927
0.151027
0.137434
0.12413
0.111116
0.0983876
0.0858873
0.0735734
0.0614385
0.0495167
0.0377258
0.0263815
0.0146168
0.00602934
0.319009
0.313693
0.300591
0.284752
0.269589
0.254651
0.239086
0.223506
0.208353
0.193596
0.179121
0.164915
0.15101
0.137415
0.12411
0.111097
0.0983741
0.0858794
0.0735712
0.0614412
0.0495232
0.037734
0.026389
0.0146212
0.00603074
0.319011
0.313695
0.300593
0.284755
0.269594
0.254658
0.239092
0.223511
0.208356
0.193596
0.179116
0.164906
0.150998
0.137399
0.124092
0.111079
0.098358
0.0858671
0.0735635
0.0614386
0.049525
0.0377391
0.0263952
0.0146266
0.00603301
0.319012
0.313697
0.300596
0.284759
0.2696
0.254665
0.239098
0.223516
0.208361
0.193598
0.179115
0.1649
0.150986
0.137384
0.124075
0.111061
0.0983416
0.0858539
0.0735543
0.0614339
0.0495246
0.037742
0.0264002
0.0146314
0.00603584
0.319013
0.313698
0.300597
0.284765
0.269609
0.254668
0.239099
0.223518
0.208363
0.193599
0.179113
0.164895
0.150978
0.137374
0.124064
0.111051
0.0983327
0.0858462
0.0735483
0.0614298
0.0495226
0.0377416
0.0264012
0.0146319
0.00603814
0.319013
0.313702
0.300598
0.284776
0.269626
0.25468
0.239102
0.223519
0.208364
0.193598
0.179109
0.164888
0.150969
0.137362
0.124052
0.11104
0.0983229
0.0858388
0.0735436
0.0614276
0.0495226
0.0377426
0.0264053
0.0146295
0.00604879
0.301858
0.29833
0.289105
0.276535
0.263115
0.249391
0.235218
0.220855
0.20659
0.192491
0.178546
0.164774
0.15121
0.13787
0.124755
0.111873
0.0992297
0.0867941
0.0745337
0.0624341
0.0505353
0.0387345
0.0273602
0.0153828
0.00658563
0.301857
0.298326
0.289109
0.276541
0.263118
0.249393
0.23522
0.220854
0.206587
0.192487
0.178543
0.164772
0.151208
0.137869
0.124755
0.111874
0.0992308
0.0867951
0.0745344
0.0624341
0.0505341
0.0387333
0.0273563
0.0153867
0.00657421
0.301857
0.298325
0.28911
0.276541
0.263116
0.249391
0.235215
0.220848
0.206579
0.192479
0.178536
0.164768
0.151207
0.13787
0.124759
0.11188
0.099237
0.0868007
0.0745386
0.0624364
0.0505344
0.0387322
0.027354
0.0153855
0.0065715
0.301857
0.298325
0.28911
0.27654
0.263113
0.249387
0.23521
0.22084
0.206569
0.192469
0.178527
0.164761
0.151204
0.137871
0.124764
0.111888
0.0992476
0.0868118
0.0745485
0.0624439
0.0505389
0.0387336
0.027353
0.0153835
0.00656968
0.301857
0.298324
0.289109
0.276538
0.26311
0.249381
0.235202
0.22083
0.206556
0.192455
0.178514
0.164752
0.151199
0.137873
0.124771
0.111899
0.0992601
0.0868242
0.074559
0.0624513
0.0505426
0.0387341
0.0273512
0.0153811
0.00656831
0.301856
0.298324
0.289107
0.276536
0.263106
0.249375
0.235193
0.220819
0.206543
0.192441
0.178502
0.164743
0.151196
0.137875
0.124779
0.111911
0.0992744
0.0868381
0.0745704
0.0624587
0.0505455
0.038733
0.0273478
0.0153769
0.00656606
0.301856
0.298323
0.289106
0.276533
0.263101
0.249368
0.235184
0.220807
0.206529
0.192427
0.178489
0.164734
0.151192
0.137877
0.124786
0.111921
0.0992858
0.0868485
0.0745782
0.0624628
0.0505456
0.0387301
0.0273434
0.0153729
0.00656445
0.301855
0.298322
0.289105
0.27653
0.263097
0.249361
0.235175
0.220796
0.206517
0.192414
0.178477
0.164725
0.151188
0.137879
0.124792
0.11193
0.0992962
0.0868587
0.0745864
0.0624676
0.0505465
0.0387277
0.0273393
0.0153689
0.00656263
0.301855
0.298321
0.289103
0.276528
0.263093
0.249355
0.235167
0.220787
0.206506
0.192403
0.178467
0.164717
0.151182
0.137875
0.124792
0.111932
0.0992998
0.0868631
0.0745906
0.0624707
0.0505481
0.038728
0.027339
0.0153689
0.00656312
0.301855
0.298321
0.289102
0.276526
0.263089
0.24935
0.235161
0.220778
0.206497
0.192394
0.178458
0.164709
0.151177
0.137872
0.124791
0.111934
0.0993033
0.0868677
0.0745952
0.0624745
0.0505503
0.0387285
0.0273382
0.0153675
0.00656242
0.301855
0.298321
0.289102
0.276524
0.263087
0.249346
0.235155
0.220772
0.20649
0.192385
0.178449
0.1647
0.151168
0.137864
0.124785
0.11193
0.0993018
0.0868685
0.0745982
0.0624788
0.0505552
0.0387331
0.0273418
0.0153697
0.00656327
0.301855
0.298321
0.289102
0.276524
0.263085
0.249344
0.235151
0.220767
0.206483
0.192378
0.178441
0.164691
0.151158
0.137855
0.124776
0.111923
0.0992974
0.0868668
0.0745988
0.0624813
0.0505586
0.0387364
0.0273441
0.0153702
0.00656305
0.301856
0.298322
0.289102
0.276525
0.263086
0.249343
0.23515
0.220763
0.206478
0.192371
0.178433
0.164681
0.151147
0.137843
0.124765
0.111913
0.0992904
0.0868635
0.0745993
0.0624849
0.0505642
0.0387424
0.027349
0.0153725
0.00656345
0.301857
0.298323
0.289104
0.276526
0.263087
0.249345
0.23515
0.220762
0.206475
0.192366
0.178425
0.164671
0.151134
0.137829
0.124751
0.111902
0.0992823
0.0868591
0.0745986
0.0624873
0.0505685
0.0387469
0.0273519
0.0153728
0.00656292
0.301858
0.298325
0.289106
0.276528
0.26309
0.249347
0.235152
0.220763
0.206474
0.192362
0.178417
0.164659
0.15112
0.137813
0.124735
0.111888
0.0992714
0.0868529
0.0745973
0.0624904
0.0505748
0.0387544
0.0273583
0.0153766
0.00656421
0.30186
0.298326
0.289108
0.276531
0.263093
0.24935
0.235155
0.220765
0.206474
0.192359
0.178411
0.164649
0.151107
0.137798
0.12472
0.111875
0.0992618
0.0868475
0.0745962
0.0624931
0.0505801
0.0387607
0.0273637
0.0153796
0.00656528
0.301861
0.298328
0.28911
0.276533
0.263095
0.249353
0.235157
0.220766
0.206474
0.192357
0.178405
0.16464
0.151095
0.137785
0.124707
0.111862
0.0992519
0.0868408
0.0745932
0.0624937
0.0505837
0.0387661
0.0273692
0.0153835
0.00656679
0.301863
0.29833
0.289111
0.276535
0.263097
0.249355
0.235159
0.220767
0.206474
0.192355
0.178401
0.164633
0.151086
0.137774
0.124695
0.111852
0.0992432
0.0868349
0.0745903
0.0624939
0.0505866
0.0387706
0.0273744
0.0153877
0.00656922
0.301864
0.298331
0.289111
0.276535
0.263099
0.249356
0.235159
0.220769
0.206475
0.192355
0.178399
0.16463
0.151081
0.137768
0.124689
0.111846
0.0992386
0.0868316
0.0745885
0.0624934
0.0505873
0.038772
0.0273764
0.0153884
0.00657169
0.301864
0.298336
0.289107
0.276528
0.263095
0.249353
0.235156
0.220766
0.206474
0.192354
0.178398
0.164628
0.151078
0.137765
0.124686
0.111844
0.0992376
0.0868318
0.0745897
0.0624955
0.0505904
0.0387748
0.0273816
0.0153853
0.00658353
0.289698
0.287029
0.279941
0.269764
0.258247
0.246047
0.233204
0.219866
0.206299
0.192676
0.17907
0.165529
0.1521
0.138823
0.125721
0.112809
0.100094
0.0875664
0.0752159
0.0630267
0.0510299
0.0391117
0.027603
0.0154586
0.00657202
0.289698
0.287025
0.279942
0.269766
0.258244
0.246042
0.233199
0.219861
0.206294
0.192672
0.179067
0.165527
0.1521
0.138824
0.125723
0.112812
0.100098
0.0875699
0.0752189
0.0630291
0.0510311
0.0391131
0.0276014
0.0154645
0.00656133
0.289698
0.287024
0.279943
0.269765
0.258241
0.246037
0.233194
0.219856
0.206288
0.192666
0.179063
0.165524
0.152099
0.138826
0.125727
0.112817
0.100103
0.0875749
0.0752227
0.0630314
0.0510318
0.0391126
0.0275998
0.0154637
0.00655847
0.289698
0.287024
0.279942
0.269764
0.258238
0.246032
0.233188
0.219848
0.20628
0.192658
0.179055
0.165519
0.152097
0.138827
0.125732
0.112824
0.100111
0.0875824
0.075229
0.0630358
0.051034
0.0391127
0.0275985
0.0154622
0.0065572
0.289697
0.287023
0.279941
0.269762
0.258234
0.246027
0.233181
0.219839
0.20627
0.192648
0.179047
0.165513
0.152095
0.138829
0.125737
0.112832
0.100119
0.0875907
0.0752356
0.0630399
0.0510353
0.0391118
0.0275962
0.0154598
0.00655592
0.289696
0.287022
0.279939
0.269759
0.25823
0.246021
0.233173
0.21983
0.206259
0.192637
0.179038
0.165507
0.152093
0.138831
0.125743
0.11284
0.100129
0.0875998
0.0752428
0.0630441
0.0510364
0.0391103
0.0275934
0.0154571
0.00655474
0.289696
0.287021
0.279938
0.269757
0.258226