/*--------------------------------*- C++ -*----------------------------------*\
  =========                 |
  \\      /  F ield         | OpenFOAM: The Open Source CFD Toolbox
   \\    /   O peration     | Website:  https://openfoam.org
    \\  /    A nd           | Version:  12
     \\/     M anipulation  |
\*---------------------------------------------------------------------------*/
FoamFile
{
    format      ascii;
    class       surfaceScalarField;
    location    "100";
    object      phi;
}
// * * * * * * * * * * * * * * * * * * * * * * * * * * * * * * * * * * * * * //

dimensions      [0 3 -1 0 0 0 0];

internalField   nonuniform List<scalar> 
14050
(
1958.43
0.00344544
1.56211
1956.2
-0.000604525
2.23261
1953.79
-0.000519636
2.40989
1951.36
0.000438629
2.42849
1948.92
0.000356163
2.43909
1946.5
4.95454e-05
2.42457
1944.11
-0.000178709
2.38684
1941.77
0.000465229
2.33881
1939.49
0.000177959
2.2845
1937.26
-0.00171366
2.22796
1935.1
-0.0045083
2.16834
1933
-0.00532213
2.1025
1930.96
-0.00331536
2.04735
1928.96
-0.00119947
1.99488
1927.02
0.00118191
1.94629
1925.11
0.00389079
1.90283
1923.25
0.00494678
1.85928
1921.43
0.00509446
1.81488
1919.65
0.00481437
1.7716
1917.92
0.00449767
1.72979
1916.22
0.00407018
1.6868
1914.57
0.00289353
1.64754
1912.98
0.00117345
1.59132
1911.45
-6.59721e-05
1.53477
-0.00191834
1.34729
1958.44
0.000751971
1.56707
1956.2
0.000549973
2.23535
1953.79
-0.000214089
2.41102
1951.36
-1.18857e-05
2.42859
1948.92
0.000118074
2.43886
1946.5
3.19029e-05
2.42423
1944.11
-0.000146025
2.38663
1941.77
0.00123852
2.33836
1939.48
0.00267562
2.28542
1937.25
0.0019854
2.22858
1935.08
-0.000907418
2.16877
1932.96
-0.00420825
2.11086
1930.91
-0.00558604
2.05399
1928.93
-0.00689309
1.99283
1926.99
-0.00606044
1.94216
1925.1
0.000215339
1.89701
1923.25
0.00407835
1.85282
1921.44
0.00468604
1.80824
1919.67
0.00460292
1.76524
1917.95
0.00501852
1.7238
1916.27
0.0060567
1.68137
1914.62
0.0048299
1.64315
1913.03
0.00265868
1.58826
1911.5
0.000147392
1.53289
-0.00122714
1.34701
1958.43
0.000228052
1.56643
1956.2
0.000201593
2.2354
1953.79
-0.000203212
2.41151
1951.36
-0.000174748
2.42866
1948.92
-3.61968e-05
2.43894
1946.5
-6.00264e-05
2.42422
1944.11
8.65562e-05
2.38694
1941.77
0.000337529
2.33476
1939.49
0.000719141
2.28241
1937.27
0.00138449
2.22492
1935.1
0.0020485
2.1676
1932.98
0.00200731
2.11157
1930.92
0.0019634
2.05619
1928.9
0.00187116
2.00402
1926.94
-8.66129e-05
1.95417
1925.04
-0.00235861
1.90802
1923.19
-0.00227738
1.85379
1921.39
-0.00191691
1.80622
1919.64
-0.00217156
1.76168
1917.93
-0.00242456
1.71938
1916.26
-0.000583133
1.677
1914.63
0.00119716
1.63307
1913.05
0.00260822
1.58034
1911.51
0.00353985
1.5276
0.00145699
1.34457
1958.43
0.000115795
1.56627
1956.2
8.23015e-05
2.23512
1953.79
-7.59827e-05
2.41129
1951.36
-0.000177113
2.42857
1948.92
-0.000106898
2.43887
1946.5
-8.37123e-05
2.42425
1944.11
0.000131108
2.38695
1941.77
-0.000584078
2.33509
1939.49
-0.00184071
2.2824
1937.27
-0.00121185
2.22409
1935.11
0.00130611
2.16584
1933
0.00518231
2.1085
1930.94
0.00583427
2.0531
1928.93
0.00167504
2.00393
1926.99
-0.00198799
1.94893
1925.09
-0.00403377
1.90039
1923.24
-0.00468402
1.85279
1921.44
-0.00441157
1.80673
1919.67
-0.00374743
1.76339
1917.95
-0.00254214
1.72133
1916.27
-0.0009445
1.68483
1914.63
0.000545806
1.63941
1913.05
0.00152736
1.58494
1911.52
0.00176745
1.53162
0.000955956
1.34221
1958.43
0.00010742
1.56623
1956.2
7.16228e-05
2.23506
1953.79
-8.11605e-05
2.41124
1951.36
-0.000164307
2.4286
1948.92
-0.000246983
2.43885
1946.5
-0.000210668
2.42431
1944.11
-7.46053e-05
2.38673
1941.77
1.89325e-05
2.33805
1939.48
0.000727556
2.28543
1937.25
0.00116194
2.22693
1935.09
0.000252615
2.16826
1932.98
-0.000848302
2.10753
1930.95
-0.00248643
2.04391
1928.96
-0.00441097
1.9929
1927.02
-0.00511535
1.94634
1925.12
-0.00450041
1.90015
1923.26
-0.00346124
1.8536
1921.45
-0.00176663
1.80833
1919.68
0.000114808
1.76576
1917.96
0.00174597
1.72413
1916.26
0.00277821
1.68756
1914.62
0.00297029
1.64207
1913.03
0.00239364
1.58722
1911.5
0.00112054
1.53339
0.000239866
1.34375
1958.43
0.000113746
1.56623
1956.2
6.26119e-05
2.23504
1953.79
-4.14344e-05
2.41124
1951.36
-0.000180194
2.42858
1948.92
-0.00025749
2.43885
1946.5
-0.000208169
2.42434
1944.11
-6.56097e-05
2.38671
1941.77
0.000645611
2.33681
1939.49
0.00240852
2.2847
1937.26
0.0030442
2.22477
1935.09
0.000693986
2.1667
1932.98
-0.00335359
2.10986
1930.94
-0.00760248
2.04723
1928.95
-0.00913477
1.99694
1927
-0.00766483
1.95006
1925.1
-0.00554492
1.90318
1923.24
-0.00294513
1.85576
1921.43
3.20975e-05
1.80964
1919.66
0.00359738
1.76597
1917.93
0.00683192
1.72363
1916.24
0.00757976
1.68692
1914.6
0.0068148
1.64142
1913.01
0.00508076
1.58678
1911.47
0.00242989
1.53355
0.000342654
1.34451
1958.43
0.000120107
1.56623
1956.2
8.18083e-05
2.23504
1953.79
-4.81891e-05
2.41122
1951.36
-0.000166567
2.42858
1948.92
-0.000259861
2.43888
1946.5
-0.000280381
2.42435
1944.11
-0.000507201
2.38572
1941.78
-0.00146081
2.33619
1939.5
-0.00170169
2.27964
1937.28
0.00019941
2.22275
1935.12
0.00127845
2.16439
1933.01
0.000212897
2.1071
1930.94
-0.00128474
2.05439
1928.93
-0.00215994
2.00527
1926.97
-0.00223657
1.95652
1925.06
-0.00204495
1.90774
1923.19
-0.00289481
1.86401
1921.38
-0.002812
1.81243
1919.62
-0.000636141
1.76492
1917.91
0.0014198
1.7203
1916.24
0.00267681
1.67592
1914.61
0.00294588
1.63151
1913.04
0.00264303
1.57851
1911.51
0.00262641
1.52646
0.00154251
1.33868
1958.43
0.000126283
1.56623
1956.2
7.77249e-05
2.23504
1953.79
-2.94296e-05
2.41123
1951.36
-0.000170527
2.42856
1948.92
-0.000190018
2.43888
1946.5
-0.000281223
2.42437
1944.11
-0.000399908
2.38664
1941.77
-0.000840985
2.33835
1939.48
-0.000980683
2.28565
1937.26
-0.000990177
2.22603
1935.1
-0.00137912
2.16145
1933
-0.000738627
2.10456
1930.94
4.21485e-05
2.05302
1928.93
0.000510248
2.00479
1926.97
0.00228407
1.95637
1925.06
0.00274948
1.90872
1923.19
0.00135071
1.86095
1921.38
0.000590051
1.81266
1919.61
-0.0004285
1.77183
1917.88
-0.000945723
1.72463
1916.21
-0.00115741
1.67832
1914.58
-0.00153579
1.63249
1913.01
-0.00231293
1.57832
1911.49
-0.00153691
1.52606
0.000182918
1.33879
1958.43
0.000122783
1.56623
1956.2
8.98506e-05
2.23505
1953.79
-5.65631e-05
2.41121
1951.36
-0.000125841
2.42859
1948.92
-0.0001886
2.43885
1946.5
-0.00012774
2.42435
1944.11
-0.000166569
2.38655
1941.77
0.000180566
2.33856
1939.49
0.00061913
2.2823
1937.26
0.00227493
2.22477
1935.09
0.0044866
2.16644
1932.97
0.00488191
2.109
1930.91
0.00372689
2.05548
1928.9
0.00153566
2.00559
1926.95
-0.00223187
1.95785
1925.06
-0.00426461
1.90238
1923.21
-0.00484388
1.85422
1921.41
-0.00558803
1.80777
1919.65
-0.00503409
1.76226
1917.93
-0.00339191
1.71873
1916.26
-0.00142794
1.67581
1914.62
0.000611423
1.63256
1913.04
0.00250924
1.57996
1911.5
0.00260061
1.53295
0.000285429
1.34838
1958.43
0.000115626
1.56623
1956.2
5.96959e-05
2.23504
1953.79
-4.12141e-05
2.41123
1951.36
-0.000174044
2.42856
1948.92
-0.000100244
2.43887
1946.5
-0.000129447
2.42433
1944.11
-5.67548e-05
2.38663
1941.77
0.000592137
2.33758
1939.49
0.00050257
2.28526
1937.26
0.000152505
2.22562
1935.11
0.002052
2.15987
1933
0.00402007
2.10286
1930.95
0.00399933
2.05108
1928.95
0.00284382
2.00324
1926.99
0.00129908
1.95516
1925.08
-0.000126703
1.90813
1923.21
-0.00121533
1.86149
1921.39
-0.00191965
1.81383
1919.62
-0.00404984
1.77352
1917.89
-0.00405742
1.72625
1916.21
-0.00311757
1.6799
1914.58
-0.00193163
1.6339
1913.01
-0.000921319
1.57948
1911.48
-0.000480225
1.52697
3.02748e-05
1.33943
1958.43
9.89091e-05
1.56623
1956.2
3.54735e-05
2.23505
1953.79
-8.37881e-05
2.4112
1951.36
-0.000181567
2.42859
1948.92
-0.000207128
2.43881
1946.5
-0.000184158
2.42425
1944.11
-2.68293e-05
2.38653
1941.77
0.000361013
2.33759
1939.49
0.000605424
2.28378
1937.26
4.84395e-05
2.22525
1935.1
-0.000650822
2.16354
1933.01
-0.000917325
2.09899
1930.97
-0.00066756
2.04628
1928.97
0.000551039
1.99838
1927.02
0.00204811
1.95118
1925.11
0.00267418
1.90523
1923.25
0.00242719
1.86013
1921.43
0.00215647
1.81554
1919.65
0.00134273
1.77046
1917.91
0.000344169
1.7324
1916.22
-0.000749063
1.68643
1914.59
-0.00185577
1.63966
1913
-0.00248881
1.58436
1911.48
-0.00259916
1.52878
-0.00197488
1.34392
1958.43
7.88515e-05
1.56623
1956.2
3.04262e-06
2.23505
1953.79
-0.000127886
2.4112
1951.36
-0.000211007
2.42859
1948.92
-0.000350501
2.43879
1946.5
-0.000267668
2.42424
1944.11
-0.000110088
2.38649
1941.77
0.000556051
2.33743
1939.49
0.00173996
2.28358
1937.26
0.000391055
2.2253
1935.1
-0.00387776
2.16369
1933.01
-0.00638553
2.09942
1930.97
-0.00675292
2.047
1928.97
-0.00412761
1.99868
1927.02
0.000911681
1.9506
1925.12
0.00363214
1.90417
1923.26
0.00479063
1.85881
1921.44
0.00628046
1.81373
1919.66
0.00761653
1.76894
1917.93
0.00635675
1.7311
1916.24
0.00376309
1.68556
1914.59
0.000601146
1.63953
1913.01
-0.00264606
1.58505
1911.48
-0.00375938
1.53
-0.00280957
1.34518
1958.43
5.65132e-05
1.56623
1956.2
-2.9545e-05
2.23505
1953.79
-0.000153691
2.41122
1951.36
-0.000266099
2.42858
1948.92
-0.000390463
2.43886
1946.5
-0.00050752
2.42425
1944.11
-0.000215896
2.38587
1941.78
0.000110358
2.33616
1939.5
-0.000216384
2.27896
1937.28
-0.00102544
2.22173
1935.11
-0.00213035
2.163
1933.01
-0.00342823
2.10634
1930.95
-0.00375708
2.05409
1928.94
-0.00331952
2.00444
1926.99
-0.00303299
1.95706
1925.09
-0.0010673
1.90312
1923.24
0.00170203
1.85634
1921.43
0.0047545
1.81015
1919.66
0.0064949
1.76545
1917.94
0.00679198
1.72195
1916.26
0.00592717
1.67899
1914.62
0.00439939
1.63565
1913.03
0.00277042
1.5829
1911.49
-0.000235538
1.53552
-0.00244734
1.34988
1958.43
3.93084e-05
1.56623
1956.2
-5.39397e-05
2.23505
1953.79
-0.000156147
2.41123
1951.36
-0.000272254
2.42859
1948.92
-0.000452552
2.43883
1946.5
-0.000565041
2.42441
1944.11
-0.00119669
2.38623
1941.78
-0.00175959
2.33642
1939.5
-0.00286036
2.2819
1937.28
-0.00440516
2.21917
1935.12
-0.00413397
2.16133
1933.02
-0.00265329
2.10574
1930.96
-0.000948898
2.05521
1928.95
0.000254167
2.00605
1926.99
0.00129375
1.95589
1925.07
0.00394289
1.90805
1923.21
0.00543437
1.85975
1921.39
0.00492941
1.81726
1919.63
0.00428997
1.76813
1917.91
0.00347402
1.72162
1916.24
0.00256935
1.67668
1914.61
0.00104143
1.6322
1913.03
-0.000950155
1.57984
1911.51
-0.00343069
1.52706
-0.00342933
1.3432
1958.43
2.1981e-05
1.56624
1956.2
-6.13596e-05
2.23506
1953.79
-0.000146343
2.41125
1951.36
-0.000237342
2.42859
1948.92
-0.0003669
2.43889
1946.5
-0.000594548
2.4242
1944.11
-0.000524704
2.38676
1941.77
-0.00182369
2.33436
1939.49
-0.00366505
2.28163
1937.27
-0.00339018
2.22414
1935.1
-0.00202559
2.16565
1932.99
0.00118692
2.10894
1930.93
0.0043348
2.05656
1928.92
0.00477984
2.00568
1926.96
0.00324634
1.9549
1925.05
0.00184444
1.90925
1923.2
0.00179605
1.85595
1921.4
0.000908499
1.80777
1919.64
0.000623314
1.76189
1917.92
0.000313291
1.71823
1916.25
-5.91501e-05
1.67557
1914.62
-0.000750575
1.63255
1913.04
-0.00145892
1.58085
1911.51
-0.00175328
1.52929
-0.00248039
1.34659
1958.43
-1.13939e-05
1.56625
1956.2
-9.50346e-05
2.23509
1953.79
-9.03109e-05
2.4113
1951.36
-0.000185691
2.42862
1948.92
-0.000329608
2.4389
1946.5
-0.000432559
2.42445
1944.11
-0.000432095
2.38667
1941.77
-0.000104242
2.33796
1939.48
0.00133688
2.28574
1937.25
0.0018045
2.22695
1935.08
0.000464138
2.16875
1932.97
-0.00263508
2.1105
1930.93
-0.00314357
2.04877
1928.94
4.49572e-06
1.99793
1926.99
0.000850235
1.94886
1925.09
0.00104478
1.90088
1923.23
0.00283412
1.85418
1921.42
0.00507876
1.80745
1919.65
0.00460079
1.76896
1917.92
0.00299287
1.72427
1916.24
0.00129641
1.6803
1914.6
-0.00031599
1.63628
1913.02
-0.00162509
1.58396
1911.49
-0.00148023
1.53247
0.000403362
1.34305
1958.43
-0.000155271
1.5663
1956.2
-0.000216424
2.23516
1953.79
6.06735e-05
2.41133
1951.36
-9.32225e-05
2.4286
1948.92
-0.000313121
2.43889
1946.5
-0.000425206
2.42444
1944.11
-0.000657911
2.38638
1941.77
-0.00146169
2.33714
1939.49
-0.0020466
2.28326
1937.28
-0.00251647
2.22095
1935.12
-0.00394807
2.16262
1933.02
-0.00471657
2.10587
1930.97
-0.00442542
2.05218
1928.97
-0.000922984
2.00009
1927.01
0.0041018
1.9511
1925.1
0.00517315
1.90901
1923.24
0.00507336
1.85719
1921.43
0.00568946
1.80852
1919.67
0.00548834
1.76264
1917.95
0.00444655
1.71957
1916.27
0.00318739
1.67774
1914.63
0.00179034
1.63571
1913.04
0.000644453
1.58488
1911.5
0.00223451
1.53329
0.00261058
1.35003
1958.43
-0.000712158
1.56646
1956.2
-0.000563601
2.23544
1953.79
0.000107969
2.41155
1951.36
-0.000150886
2.42871
1948.92
-0.000412049
2.43897
1946.5
-0.000327088
2.42446
1944.11
-0.000264997
2.38651
1941.77
0.000595769
2.3383
1939.48
0.00103603
2.28208
1937.26
-4.46648e-05
2.22529
1935.09
-0.00111804
2.16706
1932.97
-0.00114347
2.11144
1930.91
-0.00127547
2.05746
1928.91
-0.000870273
2.00326
1926.96
-0.000281003
1.95451
1925.06
0.000351556
1.89999
1923.22
0.0015807
1.85128
1921.42
0.00215929
1.80371
1919.66
0.00234785
1.75853
1917.95
0.00218095
1.716
1916.27
0.00179544
1.67447
1914.64
0.00201399
1.6327
1913.05
0.00316729
1.58145
1911.52
0.00297173
1.53571
0.00168526
1.35043
1958.44
-0.00342382
1.5671
1956.2
0.000575404
2.23538
1953.79
0.000507625
2.41109
1951.36
-0.000557149
2.42863
1948.92
-0.00044762
2.43895
1946.5
-0.000112244
2.42437
1944.11
-0.000195655
2.38568
1941.78
-0.00121331
2.33629
1939.5
-0.00329056
2.28006
1937.28
-0.00383505
2.22358
1935.12
-0.00224085
2.16598
1933
0.000321304
2.11095
1930.94
0.00277994
2.05806
1928.93
0.00449412
2.00448
1926.97
0.00641166
1.95293
1925.06
0.00671156
1.90444
1923.2
0.00330593
1.86068
1921.39
0.000459741
1.80865
1919.64
-0.000948578
1.76111
1917.92
-0.00187284
1.71687
1916.25
-0.00272048
1.67434
1914.63
-0.00338132
1.6319
1913.05
-0.00143579
1.58021
1911.52
0.000636809
1.52885
0.0031043
1.34009
1958.43
1.56214
1956.2
2.23267
1953.79
2.40993
1951.36
2.42855
1948.92
2.43917
1946.5
2.4246
1944.11
2.38701
1941.77
2.33859
1939.48
2.2871
1937.25
2.22699
1935.08
2.16938
1932.97
2.11246
1930.91
2.05745
1928.91
2.00447
1926.98
1.94446
1925.09
1.89546
1923.24
1.84902
1921.44
1.80354
1919.68
1.75998
1917.96
1.71848
1916.28
1.67769
1914.64
1.63558
1913.05
1.58933
1911.51
1.53667
1.34632
1960.94
-0.00118278
0.622765
1961.7
-0.00269385
1.48047
1962.26
-0.00193375
1.84908
1962.64
-0.000790742
2.04967
1962.91
-0.00039756
2.16517
1963.11
-0.000239188
2.22157
1963.26
-2.96269e-05
2.23883
1963.37
0.000417424
2.23521
1963.43
0.000382925
2.22048
1963.46
0.000409514
2.19659
1963.46
-0.000348168
2.16576
1963.44
-0.00343106
2.12879
1963.4
-0.00385
2.09183
1963.34
-0.00182546
2.05674
1963.26
-0.000991656
2.02586
1963.17
-0.000547697
1.99357
1963.07
0.000991958
1.95771
1962.96
0.0024897
1.92361
1962.84
0.00362734
1.89134
1962.7
0.004229
1.86044
1962.56
0.00473063
1.8288
1962.4
0.0055205
1.79776
1962.23
0.00508815
1.75497
1962.04
0.00398989
1.72221
0.00182706
1.59055
1960.94
-6.00901e-05
0.621934
1961.7
-0.00109414
1.47955
1962.26
-0.00121116
1.8483
1962.64
-0.000865366
2.04889
1962.91
-0.000469065
2.16461
1963.12
-0.000194279
2.2212
1963.26
0.000177401
2.23862
1963.37
0.00171891
2.23495
1963.43
0.00219774
2.22046
1963.46
0.00230965
2.19658
1963.46
0.00155728
2.16648
1963.44
-1.4778e-06
2.13166
1963.39
-0.00285626
2.09408
1963.33
-0.00510662
2.05657
1963.25
-0.00412748
2.02518
1963.16
-0.00553498
1.99228
1963.07
-0.00354399
1.95521
1962.96
-0.000818432
1.92077
1962.84
0.00132512
1.88866
1962.7
0.00253795
1.85807
1962.56
0.00344553
1.82687
1962.41
0.00677351
1.79611
1962.24
0.00700326
1.7539
1962.05
0.00598781
1.72165
0.00345227
1.59113
1960.94
4.8935e-05
0.622197
1961.7
-0.000278459
1.47978
1962.26
-0.000479487
1.84866
1962.64
-0.000416778
2.04874
1962.91
-0.000269076
2.16442
1963.12
-0.000188821
2.22101
1963.27
-9.04796e-05
2.23834
1963.37
1.80111e-05
2.2336
1963.43
0.000373881
2.21912
1963.47
0.000775576
2.19511
1963.47
0.000854208
2.16554
1963.45
0.000836292
2.13227
1963.4
0.000152834
2.09791
1963.34
-0.00109001
2.06164
1963.26
0.00156512
2.02877
1963.16
0.00274138
1.99729
1963.06
-2.54121e-05
1.95789
1962.94
-0.00120701
1.92039
1962.82
-0.00148098
1.88647
1962.69
-0.00145077
1.85483
1962.55
-0.00299753
1.82327
1962.4
-0.00152595
1.79077
1962.24
-0.000295802
1.74912
1962.05
0.000497926
1.71816
0.00201162
1.5897
1960.94
8.02897e-05
0.622242
1961.7
-3.88432e-05
1.47996
1962.26
-0.000199932
1.84879
1962.64
-0.000271956
2.04893
1962.91
-0.000268022
2.16455
1963.12
-0.000318426
2.22109
1963.27
-0.000406157
2.23835
1963.37
-0.0013494
2.23361
1963.43
-0.00137272
2.21899
1963.47
-0.00103895
2.19459
1963.47
-0.00102173
2.16468
1963.45
-0.000617981
2.1308
1963.4
0.00274086
2.09651
1963.34
0.00460337
2.06125
1963.26
0.00235503
2.02595
1963.17
0.000707137
1.99355
1963.07
-0.000978802
1.95733
1962.95
-0.00185942
1.92186
1962.83
-0.00214164
1.88872
1962.69
-0.00187282
1.85753
1962.55
-0.00168848
1.8275
1962.39
-0.000797696
1.79402
1962.23
0.000102613
1.75127
1962.04
0.000819274
1.71933
0.000879555
1.58873
1960.94
9.61844e-05
0.622254
1961.7
3.41521e-05
1.48003
1962.26
-9.85684e-05
1.84884
1962.64
-0.00018746
2.049
1962.91
-0.000231814
2.16457
1963.12
-0.000212206
2.22113
1963.27
-8.04402e-05
2.23845
1963.37
0.000355831
2.23453
1963.43
0.000741488
2.21977
1963.46
0.00137543
2.19525
1963.46
0.00129072
2.16517
1963.44
-0.000196286
2.1309
1963.39
-0.000598105
2.09372
1963.33
-0.00119805
2.05706
1963.26
-0.00291596
2.0241
1963.17
-0.00435817
1.99308
1963.07
-0.00468812
1.95771
1962.96
-0.00386765
1.92249
1962.84
-0.00240108
1.88939
1962.7
-0.000492435
1.85815
1962.56
0.00148364
1.82813
1962.4
0.00261426
1.79444
1962.23
0.00317097
1.75155
1962.05
0.00288845
1.71958
0.00136799
1.58893
1960.94
0.000111768
0.622258
1961.7
6.1914e-05
1.48005
1962.26
-5.07695e-05
1.84888
1962.64
-0.000147469
2.04904
1962.91
-0.000206029
2.16461
1963.12
-0.000167276
2.22115
1963.27
0.000198743
2.23839
1963.37
0.000378766
2.23422
1963.43
0.00158888
2.21955
1963.46
0.0016491
2.19458
1963.46
0.00245764
2.16479
1963.44
0.0019518
2.13172
1963.39
-0.00122373
2.09467
1963.33
-0.00342003
2.05795
1963.26
-0.00609273
2.02559
1963.17
-0.00763229
1.99488
1963.07
-0.00824037
1.9596
1962.96
-0.00591726
1.92411
1962.84
-0.00344056
1.8907
1962.7
-0.00017724
1.85899
1962.56
0.00470086
1.82837
1962.4
0.00623228
1.79441
1962.23
0.00655594
1.75143
1962.04
0.0061261
1.71942
0.00372266
1.58891
1960.94
0.000119926
0.622256
1961.7
7.58919e-05
1.48006
1962.26
-3.51613e-05
1.84888
1962.64
-0.000137857
2.04907
1962.91
-0.000238521
2.16462
1963.12
-0.00037
2.22112
1963.27
-0.000777779
2.23808
1963.37
-0.00133241
2.23398
1963.44
-0.00188982
2.21811
1963.47
-0.000740392
2.19337
1963.47
0.0015454
2.16325
1963.45
0.00143887
2.13087
1963.4
6.97981e-05
2.09605
1963.34
-0.00113066
2.06066
1963.27
-0.00201974
2.03039
1963.17
-0.00195957
1.99976
1963.06
-0.000635423
1.96317
1962.95
-0.00171724
1.92466
1962.82
-0.00347035
1.88965
1962.69
-0.00200338
1.85636
1962.54
0.000216446
1.82306
1962.39
0.00149425
1.7891
1962.23
0.00192441
1.74693
1962.04
0.00159978
1.71595
0.000706802
1.58718
1960.94
0.00012372
0.622256
1961.7
7.75718e-05
1.48007
1962.26
-2.61399e-05
1.84889
1962.64
-0.000127157
2.04908
1962.91
-0.000204952
2.16465
1963.12
-0.000292029
2.22122
1963.27
-0.000411992
2.23848
1963.37
-0.000432946
2.23468
1963.43
0.00036245
2.21964
1963.46
0.000174033
2.19416
1963.46
-0.000412672
2.1622
1963.44
-0.000399949
2.12961
1963.4
-0.00083935
2.09557
1963.34
-0.0011711
2.06104
1963.27
-0.00190824
2.03128
1963.17
9.34136e-05
2.00086
1963.07
0.00154013
1.96409
1962.95
0.00152899
1.92701
1962.82
0.0024145
1.89375
1962.68
0.00178466
1.85964
1962.54
0.0013305
1.82475
1962.38
0.000912483
1.78945
1962.21
0.000350641
1.74627
1962.03
-0.00139646
1.71487
-0.00204139
1.58576
1960.94
0.000121822
0.622255
1961.7
7.84209e-05
1.48007
1962.26
-2.58896e-05
1.84889
1962.64
-0.000111228
2.04909
1962.91
-0.000172229
2.16466
1963.12
-0.000207195
2.22124
1963.27
-0.000254744
2.23857
1963.37
-0.00018202
2.23477
1963.43
-0.00105182
2.21891
1963.47
-0.000426804
2.19413
1963.47
0.00155868
2.16313
1963.44
0.00266514
2.13044
1963.4
0.00302362
2.09617
1963.34
0.00300447
2.06102
1963.26
0.0032709
2.03099
1963.16
0.00056191
1.99795
1963.06
-0.00127386
1.9596
1962.95
-0.00245596
1.92247
1962.83
-0.0045588
1.88883
1962.7
-0.00496365
1.85629
1962.56
-0.0041959
1.82317
1962.4
-0.00313233
1.7895
1962.24
-0.00184476
1.74782
1962.05
0.000690438
1.71865
0.00137231
1.58997
1960.94
0.000112899
0.622253
1961.7
5.83167e-05
1.48007
1962.26
-3.83519e-05
1.84889
1962.64
-0.00013222
2.04908
1962.92
-0.000160588
2.16464
1963.12
-0.000173881
2.22121
1963.27
-0.000169664
2.23854
1963.37
-0.000166804
2.23469
1963.43
-3.28134e-06
2.21987
1963.46
-0.000453457
2.19421
1963.47
-0.00143529
2.1615
1963.44
0.00126846
2.12834
1963.4
0.00244398
2.09455
1963.34
0.00280567
2.06012
1963.27
0.00282066
2.03056
1963.17
0.00214346
2.00062
1963.07
0.00162023
1.964
1962.95
0.000961136
1.92717
1962.82
0.00168369
1.89421
1962.69
-0.00166012
1.86046
1962.54
-0.0025479
1.82549
1962.38
-0.00255544
1.79004
1962.22
-0.00214227
1.74674
1962.03
-0.00101443
1.71528
-0.00138667
1.58632
1960.94
9.7995e-05
0.622252
1961.7
3.36048e-05
1.48007
1962.26
-7.21733e-05
1.84889
1962.64
-0.000164438
2.04908
1962.92
-0.000217924
2.16461
1963.12
-0.000207049
2.22114
1963.27
-7.32333e-05
2.23846
1963.37
0.000207383
2.23462
1963.43
0.000487471
2.21949
1963.46
0.00012558
2.19438
1963.46
-0.0007504
2.16253
1963.44
-0.00109652
2.12686
1963.39
-0.00109119
2.0922
1963.34
-0.00112142
2.05738
1963.27
-0.000803758
2.0277
1963.17
0.00058941
1.99831
1963.07
0.00204328
1.9626
1962.96
0.00315325
1.92672
1962.83
0.003725
1.89317
1962.7
0.00347984
1.86222
1962.55
0.00255698
1.82809
1962.4
0.00128774
1.79284
1962.23
-0.000125776
1.74942
1962.04
-0.00191515
1.71717
-0.0026053
1.58808
1960.94
7.89454e-05
0.622253
1961.7
2.38822e-06
1.48007
1962.26
-0.000111359
1.84889
1962.64
-0.000209686
2.04908
1962.92
-0.00029301
2.16459
1963.12
-0.000253794
2.22109
1963.27
0.000127867
2.23832
1963.37
0.000780405
2.23433
1963.43
0.0018515
2.21901
1963.46
0.00168943
2.19407
1963.46
-3.67192e-05
2.16267
1963.44
-0.00343546
2.1272
1963.39
-0.00423315
2.09259
1963.34
-0.00517117
2.0579
1963.27
-0.00616595
2.02828
1963.17
-0.00254562
1.99841
1963.07
0.000588676
1.96213
1962.96
0.00270775
1.92591
1962.84
0.00449908
1.89196
1962.7
0.00742023
1.86106
1962.56
0.00710547
1.82705
1962.4
0.0054668
1.79201
1962.23
0.00336607
1.74886
1962.05
-0.00086983
1.71705
-0.00232963
1.58848
1960.94
6.05162e-05
0.622256
1961.7
-2.01332e-05
1.48007
1962.26
-0.000135666
1.84891
1962.64
-0.000244648
2.04908
1962.92
-0.000344551
2.1646
1963.12
-0.000441917
2.22105
1963.27
-0.000515928
2.23799
1963.37
-0.000487994
2.23371
1963.44
-0.00111929
2.21751
1963.47
-0.000168348
2.19257
1963.47
-0.00125776
2.16249
1963.44
-0.00217457
2.12974
1963.4
-0.00199838
2.09529
1963.34
-0.00150625
2.06122
1963.26
-0.000399991
2.03219
1963.16
-0.00173594
1.99857
1963.06
-0.00137368
1.95944
1962.95
-0.00154941
1.92263
1962.83
0.000818147
1.88878
1962.7
0.00306643
1.85675
1962.56
0.00410006
1.824
1962.41
0.00399468
1.79062
1962.24
0.00356837
1.74909
1962.05
0.00374038
1.72004
0.00101308
1.5915
1960.94
4.36563e-05
0.622258
1961.7
-3.73823e-05
1.48008
1962.26
-0.000136952
1.84892
1962.64
-0.000245949
2.04909
1962.92
-0.000380388
2.16462
1963.12
-0.000497977
2.22109
1963.27
-0.000741074
2.23809
1963.37
-0.000384708
2.23368
1963.43
-0.00147119
2.21801
1963.46
-0.00312884
2.19176
1963.47
-0.00346953
2.16238
1963.44
-0.00301267
2.13029
1963.4
-0.00161384
2.09614
1963.34
-0.000325687
2.0622
1963.27
0.000556677
2.03292
1963.17
9.1341e-05
2.00146
1963.06
0.00251543
1.96277
1962.95
0.00530405
1.92648
1962.82
0.00485261
1.89086
1962.68
0.00418328
1.8566
1962.54
0.00330959
1.82229
1962.38
0.00235919
1.78795
1962.22
0.00173123
1.74586
1962.03
0.000417394
1.71531
-0.00133369
1.58818
1960.94
3.00681e-05
0.622261
1961.7
-2.95111e-05
1.48008
1962.26
-9.56086e-05
1.84893
1962.64
-0.000190764
2.0491
1962.92
-0.000326283
2.16464
1963.12
-0.000532177
2.22112
1963.27
-0.000873008
2.23825
1963.37
-0.00218629
2.23327
1963.43
-0.0027045
2.21838
1963.47
-0.00281592
2.1936
1963.47
-0.00272367
2.16458
1963.44
-0.0021277
2.13208
1963.4
-0.000172515
2.09674
1963.34
0.00135458
2.06176
1963.26
0.00378146
2.03179
1963.17
0.00534511
2.00039
1963.06
0.00364814
1.95941
1962.95
0.00298169
1.9212
1962.83
0.000669394
1.88675
1962.7
0.000149611
1.85389
1962.55
-0.000239352
1.82099
1962.4
-0.00082617
1.78795
1962.24
-0.00144046
1.74692
1962.05
-0.00231032
1.71705
-0.00147281
1.59021
1960.94
2.47493e-05
0.622264
1961.7
3.1791e-05
1.48007
1962.26
3.54935e-05
1.84893
1962.64
-5.46575e-05
2.04909
1962.91
-0.000188131
2.16465
1963.12
-0.000313019
2.22121
1963.27
-0.000355684
2.23848
1963.37
-0.000482087
2.23446
1963.43
8.01354e-05
2.2197
1963.46
0.00102948
2.19514
1963.46
0.000949701
2.16557
1963.43
0.000830293
2.13234
1963.39
-0.00169967
2.09564
1963.33
-0.00365754
2.05954
1963.26
-0.00212733
2.02843
1963.17
-7.08543e-05
1.99779
1963.06
0.00188437
1.96008
1962.95
0.00283937
1.92296
1962.82
0.00512068
1.89009
1962.68
0.00459886
1.85688
1962.54
0.00325159
1.82329
1962.38
0.00168612
1.78961
1962.22
-7.69536e-05
1.74809
1962.03
-0.00161249
1.71787
-0.00248896
1.5901
1960.94
3.31852e-05
0.622256
1961.7
0.000262811
1.48001
1962.26
0.000339852
1.84889
1962.64
0.000150305
2.04904
1962.91
-8.1667e-05
2.16466
1963.12
-0.000228008
2.22123
1963.27
-0.000334199
2.23844
1963.37
-0.000553782
2.23449
1963.43
-0.000101123
2.21925
1963.46
-0.00168656
2.19314
1963.47
-0.00200012
2.16363
1963.45
-0.00216797
2.13056
1963.4
-0.00212927
2.09665
1963.34
-0.00247573
2.06333
1963.26
-0.00246489
2.03114
1963.17
0.00228878
1.99817
1963.06
0.00345634
1.95895
1962.95
0.00411356
1.92144
1962.82
0.00491747
1.88699
1962.69
0.00463075
1.85438
1962.54
0.00381903
1.82185
1962.39
0.00271716
1.78918
1962.22
0.00135233
1.74844
1962.04
-0.00084512
1.71892
0.000287275
1.59181
1960.94
0.000119667
0.622217
1961.7
0.00107307
1.47984
1962.26
0.00111475
1.84877
1962.64
0.000697236
2.04887
1962.91
0.000255761
2.16455
1963.12
0.000101577
2.22117
1963.27
0.000178317
2.23843
1963.37
0.000268141
2.23458
1963.43
-0.000196271
2.21875
1963.46
-0.000882055
2.19467
1963.46
-0.00145206
2.16554
1963.44
-0.00195826
2.1324
1963.4
-0.00117786
2.09768
1963.34
0.000481027
2.06408
1963.26
0.00208602
2.03243
1963.16
0.000515228
1.99574
1963.06
-0.00107841
1.95603
1962.95
0.000372388
1.9188
1962.83
0.00146116
1.88457
1962.69
0.00186894
1.85239
1962.55
0.00159898
1.82035
1962.39
0.000804803
1.78809
1962.23
0.000175832
1.74777
1962.04
0.00199836
1.71969
0.00331622
1.59166
1960.94
0.00121528
0.621954
1961.7
0.00267667
1.47961
1962.26
0.00188447
1.84843
1962.64
0.000705845
2.04902
1962.91
0.000267452
2.16473
1963.12
4.32937e-05
2.22126
1963.27
-0.000612627
2.23829
1963.37
-0.00138325
2.23436
1963.43
-0.0028323
2.21862
1963.46
-0.00201031
2.19445
1963.47
-0.00224296
2.16557
1963.44
-0.00257708
2.13323
1963.4
-0.00154659
2.09867
1963.34
0.000793093
2.06474
1963.26
0.0040909
2.03294
1963.16
0.00421954
1.99823
1963.06
0.00600694
1.95968
1962.94
0.00516598
1.92084
1962.81
0.00359326
1.88525
1962.68
0.0020678
1.85195
1962.53
0.000586029
1.8191
1962.38
-0.000968357
1.78642
1962.22
-0.0037824
1.74596
1962.04
-0.00377202
1.71636
-0.00156822
1.58813
1960.94
0.622785
1961.7
1.48054
1962.26
1.84921
1962.64
2.04981
1962.91
2.16531
1963.11
2.22167
1963.26
2.23892
1963.36
2.23513
1963.43
2.22049
1963.46
2.19551
1963.46
2.16654
1963.43
2.13411
1963.39
2.09826
1963.34
2.0616
1963.26
2.0272
1963.16
1.99329
1963.07
1.95396
1962.96
1.91663
1962.84
1.88297
1962.71
1.85151
1962.56
1.82007
1962.41
1.78847
1962.25
1.75012
1962.06
1.72041
1.59003
1960.26
0.000254489
0.361335
1960.72
0.000896252
1.02499
1961.18
0.0009251
1.38422
1961.64
0.00091992
1.58544
1962.08
0.00079076
1.7271
1962.48
0.000622978
1.8234
1962.84
0.000530457
1.87085
1963.19
0.000527192
1.89281
1963.51
0.000433566
1.89915
1963.81
0.00030402
1.89406
1964.09
-8.38466e-05
1.88034
1964.36
-0.000857026
1.86003
1964.62
-0.00112615
1.836
1964.87
-0.000610961
1.81065
1965.11
-0.000377742
1.78142
1965.35
-0.000499375
1.75231
1965.58
-0.000186139
1.72861
1965.8
0.000291576
1.70597
1966.01
0.000661442
1.68293
1966.21
0.000883053
1.6607
1966.4
0.00101256
1.63811
1966.58
0.00114158
1.61692
1966.74
0.00100359
1.59171
1966.88
0.000693094
1.58294
0.000108159
1.5399
1960.26
3.76886e-05
0.360464
1960.72
0.000291768
1.02554
1961.18
0.000398169
1.38548
1961.64
0.00050686
1.58643
1962.08
0.000498014
1.72766
1962.48
0.000494833
1.82379
1962.84
0.000541405
1.87113
1963.19
0.000798905
1.89292
1963.51
0.000835613
1.89916
1963.81
0.000752964
1.89407
1964.09
0.000398303
1.88074
1964.36
-0.000358449
1.86098
1964.62
-0.00140881
1.83678
1964.87
-0.00152321
1.81063
1965.11
-0.000885941
1.78103
1965.36
-0.0014607
1.75177
1965.58
-0.00149093
1.72753
1965.8
-0.000637144
1.70453
1966.01
0.000208728
1.6814
1966.21
0.000798967
1.65917
1966.4
0.0011965
1.63668
1966.58
0.00185503
1.61558
1966.74
0.00191522
1.59064
1966.88
0.0015697
1.58216
0.00072197
1.53988
1960.26
6.17827e-05
0.36042
1960.72
8.57909e-05
1.02548
1961.18
0.000113208
1.38549
1961.64
0.000119589
1.5864
1962.08
0.000141874
1.72754
1962.48
0.000147132
1.82377
1962.84
0.000168384
1.87105
1963.19
0.000214604
1.89261
1963.51
0.0002954
1.89884
1963.81
0.00039402
1.89373
1964.09
0.000393891
1.8806
1964.36
0.000257071
1.86156
1964.62
-7.95127e-05
1.8386
1964.87
-0.000535746
1.81281
1965.11
-8.51102e-05
1.78261
1965.36
0.000195363
1.75364
1965.58
-0.000452538
1.72883
1965.8
-0.000859467
1.70452
1966.01
-0.000822552
1.68048
1966.21
-0.000619746
1.65756
1966.4
-0.000538754
1.6346
1966.58
5.93567e-05
1.61287
1966.74
0.000466335
1.58799
1966.88
0.000741874
1.58005
0.000688125
1.53906
1960.26
8.25413e-05
0.360414
1960.72
5.32428e-05
1.02545
1961.18
1.61835e-05
1.38544
1961.64
-1.44666e-05
1.58635
1962.08
-2.53457e-05
1.7275
1962.48
-3.82315e-05
1.82369
1962.84
-7.352e-05
1.87096
1963.19
-0.000212908
1.89251
1963.51
-0.000120904
1.89866
1963.81
3.3308e-05
1.89338
1964.09
5.94611e-05
1.88012
1964.36
-1.17673e-05
1.86096
1964.62
0.000389978
1.83801
1964.87
0.000443622
1.81235
1965.11
-0.000125242
1.78152
1965.36
-0.000488318
1.75233
1965.58
-0.00086845
1.72859
1965.8
-0.00103695
1.70524