/*--------------------------------*- C++ -*----------------------------------*\
  =========                 |
  \\      /  F ield         | OpenFOAM: The Open Source CFD Toolbox
   \\    /   O peration     | Website:  https://openfoam.org
    \\  /    A nd           | Version:  12
     \\/     M anipulation  |
\*---------------------------------------------------------------------------*/
FoamFile
{
    format      ascii;
    class       volVectorField;
    location    "100";
    object      U;
}
// * * * * * * * * * * * * * * * * * * * * * * * * * * * * * * * * * * * * * //

dimensions      [0 1 -1 0 0 0 0];

internalField   nonuniform List<vector> 
5000
(
(9.9911 9.31023e-06 0.0034243)
(9.98604 2.82542e-06 0.00850351)
(9.9756 -1.02762e-06 0.0102192)
(9.96256 8.29692e-07 0.0109537)
(9.94966 1.36754e-06 0.0113564)
(9.93722 4.84829e-07 0.0115442)
(9.92499 -5.64297e-07 0.0115691)
(9.91294 2.29998e-07 0.0114974)
(9.90111 -8.62381e-07 0.0113399)
(9.8896 -5.88754e-06 0.0111635)
(9.87836 -1.01148e-05 0.0109482)
(9.86751 -8.51184e-06 0.0106232)
(9.85697 -3.47088e-06 0.0103702)
(9.84664 2.69944e-06 0.0101257)
(9.83663 8.92693e-06 0.00989946)
(9.8268 1.38528e-05 0.00967936)
(9.81718 1.54593e-05 0.00945297)
(9.80778 1.4765e-05 0.00922463)
(9.79862 1.311e-05 0.00899711)
(9.78966 1.14152e-05 0.00876743)
(9.78093 9.38843e-06 0.00852218)
(9.77239 6.5858e-06 0.00836946)
(9.76409 2.51069e-06 0.00809752)
(9.75627 3.1536e-08 0.00777117)
(9.74677 -5.2297e-06 0.00715135)
(9.99108 1.17333e-05 0.00341351)
(9.986 2.22077e-06 0.0084841)
(9.97558 -2.53297e-06 0.0102065)
(9.96255 2.47874e-07 0.0109445)
(9.94964 1.04578e-06 0.0113498)
(9.9372 -2.79186e-07 0.0115395)
(9.92497 -1.77868e-06 0.0115671)
(9.91292 -5.68938e-07 0.0114974)
(9.90109 -2.02861e-06 0.0113546)
(9.88955 -1.25202e-05 0.0111638)
(9.87829 -2.80889e-05 0.0109274)
(9.86737 -3.36452e-05 0.0106996)
(9.85673 -3.27628e-05 0.0104552)
(9.84643 -2.44076e-05 0.0101202)
(9.83646 -4.45904e-06 0.00987622)
(9.82671 2.18895e-05 0.00964803)
(9.81716 3.39492e-05 0.00941705)
(9.80782 3.77565e-05 0.00918561)
(9.79872 3.88536e-05 0.00895785)
(9.78982 3.94545e-05 0.0087286)
(9.78113 3.63331e-05 0.00848683)
(9.77262 2.47675e-05 0.00833826)
(9.76434 1.02692e-05 0.00807305)
(9.75654 1.35778e-08 0.00775405)
(9.74703 -7.62817e-06 0.00714507)
(9.99108 1.50297e-06 0.00341178)
(9.986 -5.31247e-07 0.0084823)
(9.97557 -1.84389e-06 0.0102058)
(9.96255 -1.04814e-06 0.0109441)
(9.94964 -8.27681e-07 0.0113496)
(9.9372 -1.59195e-06 0.0115375)
(9.92497 -1.63e-06 0.0115654)
(9.91289 -1.09249e-06 0.0114555)
(9.90114 -1.11007e-06 0.0113296)
(9.88962 -2.5254e-06 0.0111319)
(9.87844 -7.02295e-06 0.0109059)
(9.86746 -1.15589e-05 0.0106688)
(9.85681 -1.16739e-05 0.0104322)
(9.84641 -1.19368e-05 0.0101987)
(9.83627 -9.21964e-06 0.00996673)
(9.8264 1.61148e-06 0.00977658)
(9.81685 9.9404e-06 0.0094578)
(9.80756 1.12941e-05 0.00919971)
(9.79849 1.11877e-05 0.00895538)
(9.78966 1.3513e-05 0.00872017)
(9.78103 1.69662e-05 0.00849157)
(9.77261 1.73387e-05 0.00825594)
(9.7644 1.60584e-05 0.00799406)
(9.75663 1.2099e-05 0.00768241)
(9.7471 4.59535e-06 0.00710175)
(9.99108 4.026e-07 0.00341155)
(9.986 1.03235e-07 0.00848078)
(9.97557 -9.33219e-07 0.0102046)
(9.96254 -1.50719e-06 0.010943)
(9.94964 -1.62202e-06 0.0113485)
(9.93719 -1.87923e-06 0.011537)
(9.92497 -1.41722e-06 0.0115653)
(9.91289 -2.1022e-07 0.0114605)
(9.90114 2.90351e-06 0.0113321)
(9.88963 1.08928e-05 0.011128)
(9.87847 2.37853e-05 0.0108978)
(9.86753 3.14276e-05 0.0106517)
(9.8569 3.23551e-05 0.0104193)
(9.84654 1.92744e-05 0.0102364)
(9.83647 1.43582e-06 0.00992456)
(9.82666 -1.29921e-05 0.00967572)
(9.8171 -1.92187e-05 0.00943091)
(9.80779 -2.2836e-05 0.00918964)
(9.7987 -2.52945e-05 0.00895031)
(9.78983 -2.12032e-05 0.00870558)
(9.78112 -1.18064e-05 0.0085635)
(9.77264 -1.76386e-06 0.00832052)
(9.7644 6.38709e-06 0.00805212)
(9.75661 1.03292e-05 0.00775207)
(9.74714 6.95674e-06 0.00708374)
(9.99108 1.11443e-07 0.00341146)
(9.986 -2.92283e-07 0.00848032)
(9.97557 -1.25068e-06 0.0102042)
(9.96255 -1.97658e-06 0.0109428)
(9.94964 -2.32237e-06 0.0113484)
(9.9372 -2.30824e-06 0.0115384)
(9.92497 -2.09061e-06 0.0115669)
(9.91292 -2.04475e-06 0.0114969)
(9.9011 -1.27479e-06 0.0113591)
(9.88956 2.82517e-06 0.0111512)
(9.87834 1.0015e-05 0.0109348)
(9.86742 1.41352e-05 0.0106904)
(9.85689 7.45816e-06 0.0103605)
(9.84667 -4.25573e-06 0.0101174)
(9.83662 -1.35953e-05 0.00988428)
(9.82682 -1.83103e-05 0.00965394)
(9.81724 -1.96925e-05 0.00942321)
(9.8079 -1.70343e-05 0.0091941)
(9.79877 -1.22278e-05 0.00896457)
(9.78986 -6.9241e-06 0.00872458)
(9.78112 -2.6426e-06 0.00858591)
(9.7726 6.27831e-07 0.00834386)
(9.76434 1.86266e-06 0.00807354)
(9.75654 1.05256e-06 0.00777025)
(9.74705 -1.40652e-06 0.00709792)
(9.99108 -2.06604e-10 0.00341148)
(9.986 -3.49396e-07 0.00848023)
(9.97557 -1.07243e-06 0.0102042)
(9.96254 -1.89793e-06 0.0109427)
(9.94964 -2.58327e-06 0.0113482)
(9.9372 -2.83445e-06 0.0115383)
(9.92497 -3.14337e-06 0.0115663)
(9.91291 -3.09574e-06 0.0114817)
(9.90111 -1.60427e-06 0.0113505)
(9.88957 -3.76278e-06 0.0111276)
(9.87839 -1.41848e-05 0.0109115)
(9.86743 -2.28641e-05 0.0107123)
(9.85688 -2.9415e-05 0.0103889)
(9.84662 -3.11855e-05 0.0101445)
(9.83655 -2.48882e-05 0.00990884)
(9.82673 -1.27328e-05 0.00967373)
(9.81713 3.65553e-07 0.00943888)
(9.80779 1.46656e-05 0.00920315)
(9.79866 2.58268e-05 0.00896721)
(9.78975 3.23102e-05 0.00872353)
(9.78101 3.31393e-05 0.00858286)
(9.77249 2.76765e-05 0.00834061)
(9.76422 1.75994e-05 0.00807211)
(9.75641 4.03536e-06 0.00777283)
(9.74691 -3.6447e-07 0.00710394)
(9.99108 4.95565e-09 0.00341145)
(9.986 -3.4833e-07 0.00848018)
(9.97557 -1.03822e-06 0.0102042)
(9.96255 -1.95526e-06 0.0109426)
(9.94964 -2.53628e-06 0.0113481)
(9.9372 -2.77448e-06 0.011538)
(9.92497 -3.58569e-06 0.0115538)
(9.91292 -3.64559e-06 0.0114761)
(9.90114 -1.19502e-06 0.0113079)
(9.8897 -1.63591e-07 0.0111275)
(9.87849 -9.63613e-06 0.0108928)
(9.8676 -2.31897e-05 0.0106553)
(9.85696 -3.09359e-05 0.0104201)
(9.84658 -3.27388e-05 0.0101868)
(9.83641 -3.08555e-05 0.00995057)
(9.82654 -2.45508e-05 0.00971021)
(9.8169 -1.45474e-05 0.00954225)
(9.80753 2.98895e-06 0.00925338)
(9.79843 2.40015e-05 0.0089903)
(9.78957 3.47994e-05 0.00874148)
(9.78094 3.8736e-05 0.00850072)
(9.77252 3.78683e-05 0.00826011)
(9.76433 3.33691e-05 0.00799878)
(9.75658 2.4763e-05 0.00769782)
(9.74711 1.25082e-05 0.00703299)
(9.99108 1.53216e-08 0.00341147)
(9.986 -3.12621e-07 0.00848015)
(9.97557 -1.05984e-06 0.0102042)
(9.96254 -1.87178e-06 0.0109425)
(9.94964 -2.30788e-06 0.0113482)
(9.93719 -2.50884e-06 0.0115388)
(9.92497 -2.49363e-06 0.011566)
(9.91291 -3.26886e-06 0.0114981)
(9.90109 -3.78562e-06 0.011368)
(9.88956 -2.81648e-06 0.0111675)
(9.87839 -1.26511e-06 0.0108693)
(9.86754 1.86915e-06 0.0106299)
(9.85694 5.87528e-06 0.0103996)
(9.84658 9.7928e-06 0.0101724)
(9.83642 1.21084e-05 0.0099432)
(9.82655 8.43613e-06 0.00971123)
(9.8169 -1.7921e-07 0.00947436)
(9.80753 -4.8791e-06 0.00921458)
(9.79836 -6.88748e-06 0.00904987)
(9.78944 -7.63179e-06 0.00879124)
(9.78079 -8.69357e-06 0.00853563)
(9.77237 -9.80523e-06 0.00828167)
(9.76419 -9.6185e-06 0.00800992)
(9.75645 -4.15576e-06 0.00771798)
(9.74701 -1.41256e-06 0.00705766)
(9.99108 2.13484e-08 0.00341146)
(9.986 -2.92667e-07 0.00848023)
(9.97557 -1.05264e-06 0.0102042)
(9.96255 -1.72034e-06 0.0109427)
(9.94964 -2.01012e-06 0.0113482)
(9.9372 -1.94573e-06 0.0115386)
(9.92497 -1.62495e-06 0.0115647)
(9.91292 -5.54738e-07 0.0114953)
(9.90108 2.35071e-06 0.0113213)
(9.88959 6.97471e-06 0.0111403)
(9.87835 1.07895e-05 0.0109059)
(9.86743 1.21634e-05 0.0106652)
(9.85679 1.10272e-05 0.0104271)
(9.84642 8.27285e-06 0.0101979)
(9.83627 4.53084e-06 0.0100099)
(9.82647 4.95019e-07 0.00969435)
(9.81694 -4.26364e-06 0.00943983)
(9.80762 -8.55036e-06 0.00919341)
(9.79855 -9.91239e-06 0.00895467)
(9.78968 -8.64356e-06 0.00872322)
(9.78104 -6.4432e-06 0.00849224)
(9.7726 -4.3685e-06 0.00825199)
(9.76437 -2.30426e-06 0.00798188)
(9.75655 -1.04523e-06 0.00775825)
(9.74703 -2.7698e-06 0.00715372)
(9.99108 1.62803e-08 0.00341148)
(9.986 -2.99941e-07 0.00848014)
(9.97557 -1.06534e-06 0.0102042)
(9.96254 -1.63991e-06 0.0109425)
(9.94964 -1.78733e-06 0.0113482)
(9.9372 -1.65441e-06 0.0115389)
(9.92497 -8.95201e-07 0.0115666)
(9.91292 2.68755e-06 0.0114891)
(9.9011 8.61209e-06 0.0113628)
(9.88957 1.80389e-05 0.0111695)
(9.87841 2.4412e-05 0.0108636)
(9.86757 2.61681e-05 0.0106203)
(9.85698 1.75423e-05 0.0103885)
(9.84664 1.78198e-06 0.0101626)
(9.8365 -1.56644e-05 0.00993496)
(9.82664 -2.55105e-05 0.00970691)
(9.81699 -3.02416e-05 0.00947279)
(9.80761 -3.26436e-05 0.00921502)
(9.79843 -3.19507e-05 0.00905462)
(9.7895 -2.27618e-05 0.0088009)
(9.78082 -1.04843e-05 0.00854719)
(9.77238 1.3897e-06 0.00829336)
(9.76419 8.85954e-06 0.00802011)
(9.75644 1.14787e-05 0.00772743)
(9.74699 6.84597e-06 0.00706714)
(9.99108 2.17984e-09 0.00341148)
(9.986 -3.74762e-07 0.00848021)
(9.97557 -1.0683e-06 0.0102042)
(9.96255 -1.72161e-06 0.0109427)
(9.94964 -1.84947e-06 0.0113482)
(9.9372 -1.91788e-06 0.0115383)
(9.92497 -1.24897e-06 0.0115667)
(9.91292 2.16265e-06 0.0114955)
(9.90112 5.0707e-06 0.0113512)
(9.8896 7.7895e-06 0.0111644)
(9.87839 1.30952e-05 0.0109264)
(9.86756 1.57117e-05 0.0106047)
(9.85704 1.5655e-05 0.0103627)
(9.84673 1.49157e-05 0.0101319)
(9.83665 1.33077e-05 0.00990721)
(9.82679 8.08409e-06 0.00968484)
(9.81718 9.07648e-07 0.00945998)
(9.80778 -6.98019e-06 0.00922912)
(9.79862 -1.29511e-05 0.00898118)
(9.78964 -1.49737e-05 0.00883395)
(9.7809 -1.52612e-05 0.00858856)
(9.77242 -1.47957e-05 0.00833265)
(9.76417 -1.29618e-05 0.0080579)
(9.75641 -1.01353e-05 0.00773411)
(9.74694 -8.07001e-06 0.00712099)
(9.99108 -1.82885e-08 0.00341148)
(9.986 -4.35425e-07 0.00848021)
(9.97557 -1.158e-06 0.0102041)
(9.96255 -1.7797e-06 0.0109427)
(9.94964 -2.365e-06 0.0113481)
(9.9372 -2.72507e-06 0.0115383)
(9.92497 -3.02943e-06 0.0115666)
(9.91293 -3.62575e-06 0.0114951)
(9.90112 -5.32533e-06 0.0113504)
(9.88959 -1.12222e-05 0.0111635)
(9.87839 -1.92864e-05 0.0109263)
(9.86755 -2.2057e-05 0.0106064)
(9.85704 -1.64995e-05 0.0103643)
(9.84673 -1.7565e-06 0.0101321)
(9.83666 1.50103e-05 0.00990514)
(9.82682 2.51338e-05 0.00967955)
(9.81723 3.01088e-05 0.00945204)
(9.80784 3.39593e-05 0.00921833)
(9.79868 3.06117e-05 0.00896999)
(9.78971 2.04051e-05 0.00882524)
(9.78096 7.13273e-06 0.00858362)
(9.77247 -5.79393e-06 0.00833218)
(9.76421 -1.42668e-05 0.00806164)
(9.75643 -1.81098e-05 0.00774155)
(9.74696 -1.53369e-05 0.00713143)
(9.99108 -4.50764e-08 0.0034115)
(9.986 -5.25574e-07 0.00848027)
(9.97557 -1.21857e-06 0.0102042)
(9.96255 -1.8596e-06 0.0109427)
(9.94964 -2.7523e-06 0.0113484)
(9.9372 -3.40218e-06 0.0115381)
(9.92497 -4.51215e-06 0.0115579)
(9.91292 -6.4528e-06 0.0114797)
(9.90113 -9.55412e-06 0.0113054)
(9.88969 -1.87607e-05 0.0111238)
(9.87848 -2.99649e-05 0.0108899)
(9.8676 -3.47333e-05 0.0106493)
(9.85697 -3.43428e-05 0.0104094)
(9.8466 -2.60119e-05 0.010183)
(9.83646 -1.10723e-05 0.0100055)
(9.82667 6.61806e-06 0.00970009)
(9.81711 2.50404e-05 0.00945035)
(9.80775 4.0336e-05 0.009208)
(9.79865 4.70256e-05 0.00897063)
(9.78974 4.60524e-05 0.00874113)
(9.78107 3.75852e-05 0.0085117)
(9.7726 2.42927e-05 0.00827237)
(9.76435 9.31725e-06 0.00800033)
(9.75652 -4.69455e-06 0.00777418)
(9.74699 -1.00631e-05 0.00716715)
(9.99108 -7.01712e-08 0.00341148)
(9.986 -5.91626e-07 0.00848022)
(9.97557 -1.18728e-06 0.0102042)
(9.96255 -1.86399e-06 0.0109427)
(9.94964 -2.83704e-06 0.011348)
(9.9372 -3.74522e-06 0.0115391)
(9.92497 -5.07671e-06 0.011564)
(9.91293 -8.05441e-06 0.0114884)
(9.90114 -1.39102e-05 0.0113452)
(9.88967 -1.96318e-05 0.0110974)
(9.87853 -2.31152e-05 0.0108743)
(9.86764 -2.36262e-05 0.0106383)
(9.85705 -2.00721e-05 0.0104092)
(9.84664 -1.41917e-05 0.0101775)
(9.83651 -3.80771e-06 0.00994645)
(9.82663 1.10775e-05 0.00971742)
(9.81701 2.45933e-05 0.0094627)
(9.8076 3.35962e-05 0.00929293)
(9.79845 3.77154e-05 0.00902426)
(9.78957 3.63068e-05 0.00876585)
(9.78092 3.25664e-05 0.00851796)
(9.7725 2.3183e-05 0.00827224)
(9.7643 9.45929e-06 0.00801081)
(9.75656 -4.54979e-06 0.00770164)
(9.74709 -1.02687e-05 0.00709746)
(9.99108 -8.08436e-08 0.00341147)
(9.986 -5.2592e-07 0.00848028)
(9.97557 -1.06589e-06 0.0102042)
(9.96255 -1.71746e-06 0.0109427)
(9.94964 -2.64235e-06 0.0113483)
(9.9372 -3.71392e-06 0.0115366)
(9.92497 -4.84433e-06 0.0115649)
(9.9129 -8.95539e-06 0.0114553)
(9.90115 -1.45761e-05 0.0113298)
(9.88963 -1.64268e-05 0.0111332)
(9.87844 -9.16006e-06 0.0109042)
(9.86751 3.73448e-06 0.0106662)
(9.8569 1.20469e-05 0.0104273)
(9.84648 1.52901e-05 0.0101845)
(9.83636 1.62337e-05 0.00995175)
(9.82649 1.76274e-05 0.00977452)
(9.81691 1.46584e-05 0.00946544)
(9.80759 9.70752e-06 0.00920712)
(9.79849 6.43967e-06 0.00896369)
(9.78964 3.16036e-06 0.00872798)
(9.78099 -4.76645e-07 0.00849789)
(9.77257 -6.9094e-06 0.00826258)
(9.76436 -1.41235e-05 0.00800191)
(9.75659 -2.01166e-05 0.00769159)
(9.74706 -1.92565e-05 0.00711041)
(9.99108 -1.47785e-07 0.00341153)
(9.986 -5.10416e-07 0.00848046)
(9.97557 -7.57407e-07 0.0102044)
(9.96254 -1.23899e-06 0.0109429)
(9.94964 -2.03292e-06 0.0113485)
(9.93719 -3.09555e-06 0.0115393)
(9.92496 -3.97348e-06 0.0115675)
(9.91291 -5.11792e-06 0.0114959)
(9.90109 -4.27917e-06 0.0113638)
(9.88953 -1.59353e-06 0.0111526)
(9.87831 -5.8676e-07 0.0109385)
(9.86737 -5.10504e-07 0.0107085)
(9.85682 2.73683e-06 0.0103799)
(9.84656 4.16622e-06 0.0101327)
(9.83647 5.15748e-07 0.00989468)
(9.82668 5.41924e-07 0.00966303)
(9.81709 6.68735e-06 0.00942442)
(9.80775 1.14053e-05 0.00917205)
(9.79859 1.11386e-05 0.00902419)
(9.78965 8.07518e-06 0.00878389)
(9.78096 3.94024e-06 0.00854441)
(9.77249 -7.24981e-07 0.00830271)
(9.76426 -4.99667e-06 0.00803791)
(9.75647 -7.59595e-06 0.00772848)
(9.74696 -6.65097e-06 0.00705478)
(9.99108 -4.54448e-07 0.00341159)
(9.986 -7.8027e-07 0.00848088)
(9.97557 -5.6466e-07 0.0102046)
(9.96254 -1.04532e-06 0.0109431)
(9.94964 -1.71563e-06 0.0113487)
(9.93719 -2.29142e-06 0.0115397)
(9.92496 -3.138e-06 0.0115656)
(9.91292 -3.50425e-06 0.0114914)
(9.90112 -4.44197e-06 0.0113493)
(9.88965 -9.78392e-06 0.0111045)
(9.87851 -1.89353e-05 0.0108787)
(9.86764 -2.47646e-05 0.0106348)
(9.85704 -1.67513e-05 0.0103914)
(9.8467 2.28124e-06 0.0101531)
(9.83665 1.67228e-05 0.00992295)
(9.82675 2.31107e-05 0.00976371)
(9.81712 2.86631e-05 0.00947704)
(9.80778 3.2844e-05 0.00921378)
(9.79866 2.89438e-05 0.00896841)
(9.78978 1.95945e-05 0.00873638)
(9.78109 1.03493e-05 0.00851176)
(9.77263 3.25394e-06 0.00828187)
(9.76438 -5.42716e-07 0.00802548)
(9.75658 7.66103e-06 0.00771705)
(9.74702 1.0511e-05 0.00713657)
(9.99108 -1.58207e-06 0.00341183)
(9.986 -1.00774e-08 0.00848244)
(9.97557 6.22195e-07 0.0102059)
(9.96254 -7.39965e-07 0.0109444)
(9.94964 -1.64698e-06 0.0113499)
(9.9372 -1.80438e-06 0.0115403)
(9.92496 -2.28666e-06 0.0115656)
(9.91291 -3.33576e-06 0.0114961)
(9.90106 -7.24363e-06 0.011322)
(9.88958 -1.5213e-05 0.01114)
(9.87835 -2.3767e-05 0.0109065)
(9.86745 -2.53611e-05 0.0106693)
(9.85677 -2.39921e-05 0.010427)
(9.84641 -1.34297e-05 0.0101906)
(9.83632 -1.49493e-06 0.0100021)
(9.82653 7.75638e-06 0.00968721)
(9.81698 1.57121e-05 0.0094305)
(9.80767 2.24305e-05 0.00917958)
(9.79861 2.57074e-05 0.00893857)
(9.78975 2.65103e-05 0.0087089)
(9.78112 2.56588e-05 0.00848312)
(9.77268 2.44146e-05 0.00824882)
(9.76446 2.33973e-05 0.0079836)
(9.75664 2.09579e-05 0.00776363)
(9.74711 1.60974e-05 0.00716012)
(9.99108 -1.18909e-05 0.00341355)
(9.986 -2.62352e-06 0.00848419)
(9.97557 1.93461e-06 0.0102067)
(9.96255 -1.32141e-06 0.0109447)
(9.94964 -2.52316e-06 0.01135)
(9.9372 -1.56257e-06 0.0115395)
(9.92497 -1.07345e-06 0.0115545)
(9.91292 -1.5497e-06 0.0114767)
(9.90113 -3.82206e-06 0.0113091)
(9.88969 -6.27066e-06 0.0111293)
(9.87849 -5.00716e-06 0.0108971)
(9.86761 5.53562e-07 0.0106631)
(9.85694 6.50146e-06 0.0104243)
(9.84655 9.65285e-06 0.0101837)
(9.83643 1.38962e-05 0.00994905)
(9.82657 1.51358e-05 0.00970792)
(9.81693 1.0301e-05 0.00953245)
(9.80757 4.97962e-06 0.00923909)
(9.79849 1.03122e-06 0.00897459)
(9.78963 -2.34219e-06 0.00872799)
(9.78101 -4.0484e-06 0.00849223)
(9.77259 -1.17761e-06 0.00825693)
(9.7644 5.34273e-06 0.00800175)
(9.75664 8.93064e-06 0.00770602)
(9.74716 1.3674e-05 0.00704187)
(9.9911 -9.25555e-06 0.0034243)
(9.98604 -3.01405e-06 0.00850367)
(9.97559 8.31131e-07 0.0102193)
(9.96256 -1.41757e-06 0.0109539)
(9.94966 -1.81589e-06 0.0113569)
(9.93722 -9.38936e-07 0.0115446)
(9.92498 -1.72823e-07 0.0115706)
(9.91293 -5.57163e-07 0.0114975)
(9.9011 -2.47175e-06 0.0113674)
(9.88954 -2.76384e-06 0.0111319)
(9.87834 2.99793e-06 0.0109107)
(9.86739 1.32881e-05 0.0106772)
(9.8568 2.01678e-05 0.0104416)
(9.84641 2.38981e-05 0.0102288)
(9.83638 2.74013e-05 0.00989692)
(9.82665 2.0467e-05 0.00964622)
(9.81712 6.48083e-06 0.0094061)
(9.80781 -5.39228e-06 0.00916929)
(9.79871 -1.20083e-05 0.00893985)
(9.78984 -1.64897e-05 0.00871521)
(9.78116 -1.94719e-05 0.00848746)
(9.7727 -1.77252e-05 0.00824396)
(9.76442 -8.31585e-06 0.00807331)
(9.7566 8.91348e-07 0.00777859)
(9.74709 8.23343e-06 0.0071091)
(10.0012 -2.6502e-06 0.00553072)
(10.0059 -9.36976e-06 0.0111432)
(10.011 -9.36918e-06 0.0131985)
(10.0128 -6.15533e-06 0.0135209)
(10.0142 -3.52631e-06 0.0135484)
(10.0154 -2.21207e-06 0.0134083)
(10.0163 -1.44086e-06 0.0131458)
(10.017 -5.19431e-07 0.012818)
(10.0174 -5.66722e-07 0.0124694)
(10.0176 -2.51787e-06 0.0120973)
(10.0177 -6.61811e-06 0.0117246)
(10.0176 -9.88401e-06 0.0113671)
(10.0175 -6.80553e-06 0.0110333)
(10.0172 -1.6236e-06 0.0107309)
(10.0169 1.87842e-06 0.0104668)
(10.0164 5.16597e-06 0.0102232)
(10.0159 9.09479e-06 0.00998142)
(10.0154 1.21324e-05 0.00974567)
(10.0148 1.38786e-05 0.00951949)
(10.0141 1.47581e-05 0.0093018)
(10.0134 1.51917e-05 0.0090821)
(10.0127 1.49535e-05 0.00885868)
(10.0118 1.30217e-05 0.00857099)
(10.011 1.03653e-05 0.00838252)
(10.0095 5.12365e-06 0.00735338)
(10.0012 -2.98736e-06 0.00552291)
(10.0059 -1.223e-05 0.0111423)
(10.011 -1.11585e-05 0.0132025)
(10.0128 -6.78747e-06 0.0135228)
(10.0142 -3.6167e-06 0.0135494)
(10.0154 -2.46234e-06 0.0134097)
(10.0164 -1.67665e-06 0.0131473)
(10.017 -5.16862e-08 0.0128183)
(10.0174 6.34805e-08 0.0124705)
(10.0176 -2.61805e-06 0.012101)
(10.0177 -9.97063e-06 0.0117341)
(10.0176 -1.91757e-05 0.0113758)
(10.0174 -2.3201e-05 0.0110342)
(10.0172 -2.21695e-05 0.0107251)
(10.0168 -1.63725e-05 0.0104584)
(10.0164 -1.0592e-05 0.01021)
(10.0159 2.24942e-06 0.0099625)
(10.0154 1.57496e-05 0.00972578)
(10.0148 2.69994e-05 0.0095009)
(10.0141 3.35814e-05 0.00928551)
(10.0135 3.95497e-05 0.00906904)
(10.0127 4.54119e-05 0.00885001)
(10.0118 4.05845e-05 0.00856751)
(10.011 2.97922e-05 0.00838279)
(10.0095 1.37079e-05 0.0073594)
(10.0012 -5.76262e-07 0.00552187)
(10.006 -2.39599e-06 0.0111428)
(10.011 -2.8664e-06 0.0132066)
(10.0129 -2.10442e-06 0.0135231)
(10.0142 -1.7021e-06 0.0135496)
(10.0154 -1.76551e-06 0.0134099)
(10.0164 -1.65505e-06 0.0131479)
(10.017 -2.97328e-07 0.0128187)
(10.0174 1.35504e-06 0.0124728)
(10.0176 2.2273e-06 0.0121044)
(10.0177 1.24797e-06 0.0117437)
(10.0177 -3.52213e-06 0.0113955)
(10.0175 -1.10259e-05 0.011067)
(10.0172 -1.17948e-05 0.0107494)
(10.0169 -5.68805e-06 0.0104642)
(10.0164 -4.76218e-06 0.0102141)
(10.0159 -4.87917e-06 0.00996205)
(10.0153 -1.18858e-06 0.009712)
(10.0147 1.95209e-06 0.00947803)
(10.0141 3.67073e-06 0.00925776)
(10.0134 7.26071e-06 0.00904041)
(10.0126 1.47083e-05 0.00882678)
(10.0118 1.74658e-05 0.0085527)
(10.0111 1.80346e-05 0.00837694)
(10.0096 1.37716e-05 0.00735855)
(10.0012 -4.98144e-08 0.00552154)
(10.006 -1.06718e-06 0.0111427)
(10.011 -2.1044e-06 0.0132061)
(10.0129 -2.62236e-06 0.0135236)
(10.0142 -2.73107e-06 0.0135502)
(10.0154 -2.76365e-06 0.0134107)
(10.0164 -2.37086e-06 0.0131486)
(10.017 -1.75141e-06 0.0128194)
(10.0174 9.99988e-08 0.0124726)
(10.0176 2.92688e-06 0.0121013)
(10.0177 7.27512e-06 0.011736)
(10.0177 1.31309e-05 0.0113824)
(10.0175 1.88677e-05 0.0110529)
(10.0172 2.0689e-05 0.010739)
(10.0168 1.90662e-05 0.0104542)
(10.0164 1.17838e-05 0.0102063)
(10.0159 2.31435e-07 0.0099643)
(10.0154 -8.20496e-06 0.00972473)
(10.0148 -1.47183e-05 0.00949654)
(10.0141 -1.82288e-05 0.0092775)
(10.0134 -2.13324e-05 0.00905625)
(10.0126 -1.685e-05 0.00883599)
(10.0118 -9.55655e-06 0.00855468)
(10.011 -5.7708e-07 0.008372)
(10.0095 5.62051e-06 0.00735331)
(10.0012 -5.26516e-08 0.00552146)
(10.006 -5.59549e-07 0.0111427)
(10.011 -1.36006e-06 0.013206)
(10.0129 -1.9479e-06 0.0135241)
(10.0142 -2.30316e-06 0.0135505)
(10.0154 -2.54619e-06 0.013411)
(10.0164 -2.43406e-06 0.0131485)
(10.017 -2.18414e-06 0.0128187)
(10.0174 -1.33196e-06 0.0124694)
(10.0176 1.73231e-07 0.0120972)
(10.0177 1.91098e-06 0.011726)
(10.0176 5.68728e-06 0.0113687)
(10.0174 1.13838e-05 0.0110388)
(10.0172 9.58077e-06 0.0107294)
(10.0168 6.628e-07 0.0104528)
(10.0164 -6.6734e-06 0.0102106)
(10.0159 -1.12434e-05 0.00997014)
(10.0154 -1.2375e-05 0.00973065)
(10.0148 -1.08359e-05 0.00950261)
(10.0142 -7.32102e-06 0.00928338)
(10.0134 -3.19968e-06 0.00906135)
(10.0127 5.24875e-07 0.00884007)
(10.0118 3.06156e-06 0.00855783)
(10.011 4.23742e-06 0.00837467)
(10.0095 1.24447e-06 0.00735587)
(10.0012 -1.11636e-08 0.00552147)
(10.006 -3.97162e-07 0.0111428)
(10.011 -1.11739e-06 0.0132061)
(10.0129 -1.80092e-06 0.0135243)
(10.0142 -2.39203e-06 0.0135508)
(10.0154 -2.72676e-06 0.0134113)
(10.0164 -2.63513e-06 0.0131489)
(10.017 -1.57773e-06 0.0128202)
(10.0174 6.5834e-07 0.0124731)
(10.0176 2.37302e-06 0.0120994)
(10.0177 1.74962e-06 0.0117301)
(10.0176 -3.36272e-06 0.0113747)
(10.0174 -9.33899e-06 0.0110459)
(10.0172 -1.58551e-05 0.0107373)
(10.0168 -2.28907e-05 0.0104615)
(10.0164 -2.85453e-05 0.0102188)
(10.0159 -2.43881e-05 0.00997616)
(10.0154 -1.46723e-05 0.00973442)
(10.0148 -1.86203e-06 0.009504)
(10.0141 1.2071e-05 0.0092829)
(10.0134 2.37077e-05 0.0090599)
(10.0127 2.80586e-05 0.00883862)
(10.0118 2.91441e-05 0.00855722)
(10.011 2.33173e-05 0.00837573)
(10.0095 1.03651e-05 0.00735799)
(10.0012 1.05548e-08 0.00552146)
(10.006 -3.35729e-07 0.0111429)
(10.011 -1.01543e-06 0.0132059)
(10.0129 -1.70645e-06 0.0135245)
(10.0142 -2.31299e-06 0.013551)
(10.0154 -2.71167e-06 0.0134116)
(10.0164 -3.05139e-06 0.0131495)
(10.017 -3.51439e-06 0.012822)
(10.0174 -2.08793e-06 0.0124712)
(10.0177 1.41026e-06 0.0120988)
(10.0177 4.93854e-06 0.0117349)
(10.0177 3.35915e-07 0.0113905)
(10.0175 -7.8191e-06 0.0110648)
(10.0172 -1.46564e-05 0.0107557)
(10.0169 -2.13105e-05 0.0104832)
(10.0165 -2.4843e-05 0.0102357)
(10.0159 -2.52488e-05 0.00997724)
(10.0153 -2.2657e-05 0.00972029)
(10.0147 -1.47442e-05 0.00947916)
(10.0141 1.75349e-06 0.0092514)
(10.0134 1.7458e-05 0.00902837)
(10.0126 2.55621e-05 0.00881171)
(10.0118 2.86751e-05 0.00853776)
(10.011 3.02068e-05 0.00836572)
(10.0095 2.13539e-05 0.00735465)
(10.0012 2.1261e-08 0.00552148)
(10.006 -3.15138e-07 0.0111429)
(10.011 -9.73413e-07 0.013206)
(10.0129 -1.62996e-06 0.0135246)
(10.0142 -2.17392e-06 0.0135512)
(10.0154 -2.60528e-06 0.0134117)
(10.0164 -3.1069e-06 0.0131496)
(10.017 -4.1358e-06 0.0128211)
(10.0174 -4.37902e-06 0.0124731)
(10.0176 -3.01446e-06 0.0121014)
(10.0177 -1.05141e-06 0.0117362)
(10.0177 -1.12338e-06 0.0113934)
(10.0175 -1.69427e-06 0.0110707)
(10.0172 -3.61696e-08 0.0107646)
(10.0169 3.94444e-06 0.010494)
(10.0165 8.66153e-06 0.0102478)
(10.0159 1.07109e-05 0.00999277)
(10.0154 6.51264e-06 0.00973737)
(10.0147 2.8693e-06 0.00949134)
(10.014 1.27114e-06 0.0092568)
(10.0133 1.22374e-07 0.00902789)
(10.0125 -2.78336e-06 0.00880617)
(10.0117 -6.61247e-06 0.00852747)
(10.0109 -9.41288e-06 0.00835137)
(10.0094 -8.30843e-06 0.00734266)
(10.0012 2.5619e-08 0.00552148)
(10.006 -3.01683e-07 0.0111429)
(10.011 -9.34733e-07 0.013206)
(10.0129 -1.52414e-06 0.0135247)
(10.0142 -1.93988e-06 0.0135512)
(10.0154 -2.07325e-06 0.0134117)
(10.0164 -1.81744e-06 0.0131495)
(10.017 -8.36655e-07 0.0128211)
(10.0174 6.67862e-07 0.0124716)
(10.0176 2.82534e-06 0.0121028)
(10.0177 5.42635e-06 0.0117379)
(10.0177 6.59872e-06 0.0113921)
(10.0175 5.90005e-06 0.0110637)
(10.0172 4.79927e-06 0.0107491)
(10.0169 3.41953e-06 0.0104723)
(10.0164 1.97509e-06 0.0102247)
(10.0159 5.75844e-07 0.00996953)
(10.0153 -1.6489e-06 0.00971633)
(10.0148 -3.84733e-06 0.00947777)
(10.0141 -5.07643e-06 0.00925247)
(10.0134 -4.86962e-06 0.0090337)
(10.0127 -4.32406e-06 0.00882135)
(10.0119 -3.84033e-06 0.00854881)
(10.0111 -3.09522e-06 0.0083741)
(10.0095 -3.08503e-06 0.00735935)
(10.0012 2.00202e-08 0.00552149)
(10.006 -3.1832e-07 0.0111429)
(10.011 -9.32422e-07 0.0132061)
(10.0129 -1.48932e-06 0.0135246)
(10.0142 -1.79037e-06 0.0135512)
(10.0154 -1.77637e-06 0.0134116)
(10.0164 -1.02574e-06 0.0131493)
(10.017 9.35858e-07 0.0128202)
(10.0174 3.28967e-06 0.012471)
(10.0176 7.25983e-06 0.0120951)
(10.0177 1.23437e-05 0.011727)
(10.0177 1.72615e-05 0.0113835)
(10.0175 1.87054e-05 0.0110622)
(10.0172 1.57211e-05 0.0107571)
(10.0169 8.85718e-06 0.010489)
(10.0165 -1.61038e-06 0.0102481)
(10.0159 -1.09597e-05 0.00999717)
(10.0154 -1.86001e-05 0.00974344)
(10.0147 -2.44609e-05 0.0094976)
(10.0141 -2.9583e-05 0.00926219)
(10.0133 -2.65108e-05 0.00903239)
(10.0126 -1.89054e-05 0.0088099)
(10.0117 -7.99397e-06 0.00853029)
(10.0109 4.03459e-06 0.00835331)
(10.0094 7.11912e-06 0.00734491)
(10.0012 3.02901e-09 0.00552149)
(10.006 -3.78927e-07 0.0111429)
(10.011 -9.86889e-07 0.0132061)
(10.0129 -1.57283e-06 0.0135247)
(10.0142 -1.92327e-06 0.0135511)
(10.0154 -2.05796e-06 0.0134115)
(10.0164 -1.48156e-06 0.0131487)
(10.017 3.29277e-08 0.0128177)
(10.0174 1.11815e-06 0.0124652)
(10.0176 7.76004e-07 0.0120883)
(10.0177 1.46375e-06 0.0117162)
(10.0176 5.41862e-06 0.0113672)
(10.0174 7.14119e-06 0.0110451)
(10.0172 8.01029e-06 0.0107414)
(10.0169 9.75144e-06 0.0104767)
(10.0164 1.18199e-05 0.0102418)
(10.016 1.42015e-05 0.00999841)
(10.0154 1.45312e-05 0.00975209)
(10.0148 1.10556e-05 0.00951343)
(10.0141 2.81557e-06 0.00928137)
(10.0134 -2.64121e-06 0.0090514)
(10.0126 -6.59134e-06 0.00882655)
(10.0118 -9.54097e-06 0.00854304)
(10.011 -1.19758e-05 0.00836105)
(10.0095 -1.15375e-05 0.00734743)
(10.0012 -2.03876e-08 0.0055215)
(10.006 -4.48124e-07 0.0111429)
(10.011 -1.07883e-06 0.0132061)
(10.0129 -1.70015e-06 0.0135247)
(10.0142 -2.28702e-06 0.0135511)
(10.0154 -2.67543e-06 0.0134114)
(10.0164 -2.83556e-06 0.0131485)
(10.017 -2.37968e-06 0.0128171)
(10.0174 -2.22562e-06 0.0124642)
(10.0176 -5.28731e-06 0.0120878)
(10.0177 -1.14758e-05 0.011716)
(10.0176 -1.74451e-05 0.0113675)
(10.0174 -1.93377e-05 0.0110457)
(10.0172 -1.88764e-05 0.0107411)
(10.0169 -1.29814e-05 0.010475)
(10.0164 1.45777e-06 0.0102385)
(10.016 1.49049e-05 0.00999314)
(10.0154 2.65151e-05 0.00974583)
(10.0148 3.31848e-05 0.00950755)
(10.0142 3.77383e-05 0.00927641)
(10.0134 3.18742e-05 0.00904805)
(10.0127 2.02156e-05 0.00882547)
(10.0118 5.64944e-06 0.00854427)
(10.011 -1.17e-05 0.00836445)
(10.0095 -1.79263e-05 0.0073518)
(10.0012 -4.11103e-08 0.00552151)
(10.006 -5.07146e-07 0.0111429)
(10.011 -1.14025e-06 0.0132062)
(10.0129 -1.79529e-06 0.0135247)
(10.0142 -2.5483e-06 0.0135512)
(10.0154 -3.28808e-06 0.0134115)
(10.0164 -3.9942e-06 0.013149)
(10.017 -4.59283e-06 0.0128199)
(10.0174 -5.31674e-06 0.0124669)
(10.0177 -7.98769e-06 0.0120921)
(10.0177 -1.54037e-05 0.0117272)
(10.0177 -2.1805e-05 0.0113828)
(10.0175 -2.25074e-05 0.0110561)
(10.0172 -2.23585e-05 0.0107469)
(10.0169 -1.98191e-05 0.0104757)
(10.0164 -1.25987e-05 0.0102272)
(10.0159 -2.98455e-06 0.00997068)
(10.0153 8.79371e-06 0.00972022)
(10.0148 2.43288e-05 0.00948488)
(10.0141 3.37753e-05 0.0092613)
(10.0134 3.69903e-05 0.00904323)
(10.0127 3.29676e-05 0.00883105)
(10.0119 2.5057e-05 0.00855841)
(10.0111 1.37032e-05 0.00838306)
(10.0095 9.93111e-08 0.00736626)
(10.0012 -5.92105e-08 0.00552151)
(10.006 -5.20571e-07 0.0111429)
(10.011 -1.11048e-06 0.0132063)
(10.0129 -1.76816e-06 0.0135247)
(10.0142 -2.57616e-06 0.0135513)
(10.0154 -3.64055e-06 0.0134118)
(10.0164 -5.12472e-06 0.0131494)
(10.017 -7.53668e-06 0.0128198)
(10.0174 -1.17758e-05 0.0124694)
(10.0176 -1.51088e-05 0.0120947)
(10.0177 -1.76339e-05 0.0117341)
(10.0176 -1.66285e-05 0.0113933)
(10.0175 -1.2244e-05 0.0110698)
(10.0172 -7.48145e-06 0.0107638)
(10.0169 -4.00363e-06 0.0104934)
(10.0164 -4.12945e-07 0.0102422)
(10.0159 8.57827e-06 0.00998247)
(10.0153 1.67594e-05 0.00972429)
(10.0147 2.31183e-05 0.0094786)
(10.0141 2.68185e-05 0.00924674)
(10.0133 2.67033e-05 0.00902224)
(10.0126 2.43018e-05 0.00880673)
(10.0117 2.27998e-05 0.00853473)
(10.011 1.47603e-05 0.00836532)
(10.0095 2.08086e-06 0.0073563)
(10.0012 -5.92832e-08 0.00552152)
(10.006 -4.64223e-07 0.011143)
(10.011 -9.46015e-07 0.0132063)
(10.0129 -1.54117e-06 0.0135247)
(10.0142 -2.33492e-06 0.0135513)
(10.0154 -3.35934e-06 0.0134119)
(10.0164 -5.05835e-06 0.0131497)
(10.017 -8.27346e-06 0.0128203)
(10.0174 -1.32462e-05 0.0124733)
(10.0176 -1.68445e-05 0.0121025)
(10.0177 -1.56777e-05 0.0117426)
(10.0176 -9.89484e-06 0.0113974)
(10.0175 -1.31729e-06 0.0110674)
(10.0172 7.07106e-06 0.0107549)
(10.0169 1.5587e-05 0.0104793)
(10.0164 1.98049e-05 0.0102248)
(10.0159 2.16521e-05 0.00996158)
(10.0153 2.02917e-05 0.00970481)
(10.0147 1.38404e-05 0.00946582)
(10.0141 8.63211e-06 0.00924129)
(10.0134 3.80661e-06 0.00902383)
(10.0127 -1.01297e-06 0.00881484)
(10.0118 -5.58706e-06 0.0085484)
(10.0111 -1.36882e-05 0.00838219)
(10.0096 -1.77942e-05 0.00736818)
(10.0012 -3.81624e-08 0.00552156)
(10.006 -2.25228e-07 0.0111429)
(10.011 -4.71914e-07 0.0132066)
(10.0129 -9.99088e-07 0.0135246)
(10.0142 -1.79017e-06 0.0135513)
(10.0154 -2.59297e-06 0.013412)
(10.0164 -3.51661e-06 0.0131499)
(10.017 -4.6362e-06 0.0128214)
(10.0174 -3.95206e-06 0.0124735)
(10.0176 -3.22709e-06 0.0121042)
(10.0177 -3.39113e-06 0.0117375)
(10.0176 -4.06962e-06 0.0113864)
(10.0174 -6.42946e-06 0.0110584)
(10.0172 -5.47849e-06 0.0107465)
(10.0168 2.24934e-06 0.0104711)
(10.0164 8.25563e-06 0.0102267)
(10.0159 8.61e-06 0.00997553)
(10.0154 9.51715e-06 0.00972352)
(10.0147 9.90616e-06 0.00948212)
(10.014 9.10959e-06 0.00925366)
(10.0133 6.16026e-06 0.00903238)
(10.0125 1.72283e-06 0.0088203)