/*--------------------------------*- C++ -*----------------------------------*\
  =========                 |
  \\      /  F ield         | OpenFOAM: The Open Source CFD Toolbox
   \\    /   O peration     | Website:  https://openfoam.org
    \\  /    A nd           | Version:  12
     \\/     M anipulation  |
\*---------------------------------------------------------------------------*/
FoamFile
{
    format      ascii;
    class       surfaceScalarField;
    location    "6.4";
    object      phi;
}
// * * * * * * * * * * * * * * * * * * * * * * * * * * * * * * * * * * * * * //

dimensions      [1 0 -1 0 0 0 0];

internalField   nonuniform List<scalar> 
7429
(
-0.000162666
0.000162666
-0.000327612
0.000164945
-0.000495257
0.000167645
-0.000666038
0.00017078
-0.000840382
0.000174344
-0.00101872
0.000178336
-0.00120143
0.000182716
-0.00138888
0.000187446
-0.00158137
0.000192493
-0.00177914
0.000197769
-0.00198232
0.00020318
-0.00219097
0.000208645
-0.00240505
0.000214076
-0.00262435
0.000219302
-0.0028486
0.000224256
-0.00307736
0.000228755
-0.00331003
0.000232668
-0.0035459
0.000235872
-0.00378413
0.000238233
-0.00402373
0.000239594
-0.00426358
0.000239853
-0.00450247
0.000238886
-0.00473908
0.000236611
-0.004972
0.000232927
-0.00519978
0.000227779
-0.00542091
0.000221126
-0.0056339
0.000212988
-0.00583719
0.000203296
-0.00602934
0.000192143
-0.00620888
0.000179547
-0.00637449
0.000165607
-0.00652486
0.000150365
-0.0066588
0.000133947
-0.00677524
0.000116436
-0.00687324
9.79976e-05
-0.00695194
7.87021e-05
-0.00701069
5.87543e-05
-0.00704901
3.83207e-05
-0.00706667
1.7653e-05
-0.00706196
-4.70759e-06
-0.00703295
-2.90078e-05
-0.00698046
-5.2491e-05
-0.00690493
-7.55316e-05
-0.00680677
-9.81537e-05
-0.00668644
-0.000120332
-0.00654447
-0.000141968
-0.00638147
-0.000163007
-0.00619818
-0.000183291
-0.00599542
-0.000202756
-0.00577421
-0.000221208
-0.00553563
-0.000238585
-0.00528097
-0.000254658
-0.0050116
-0.000269374
-0.00472903
-0.000282563
-0.00443499
-0.00029404
-0.00413133
-0.00030366
-0.00381994
-0.000311389
-0.00350296
-0.000316985
-0.00318255
-0.000320409
-0.002861
-0.000321554
-0.00254073
-0.000320262
-0.00222418
-0.000316557
-0.00191375
-0.000310424
-0.00161206
-0.000301692
-0.00132151
-0.000290556
-0.00104443
-0.000277078
-0.000783179
-0.000261249
-0.000539958
-0.000243221
-0.000317033
-0.000222925
-0.000116137
-0.000200896
6.11238e-05
-0.000177261
0.000213179
-0.000152055
0.000338748
-0.000125569
0.000437169
-9.84204e-05
0.000507926
-7.07568e-05
0.000550836
-4.29105e-05
0.000566338
-1.5502e-05
0.000553389
1.29496e-05
0.000514265
3.91233e-05
0.000450799
6.34667e-05
0.000364729
8.607e-05
0.000258458
0.000106271
0.000134599
0.000123859
-3.81369e-06
0.000138412
-0.000153506
0.000149692
-0.000310836
0.000157331
-0.000471968
0.000161131
-0.000632939
0.000160971
-0.000789834
0.000156895
-0.000938631
0.000148797
-0.00107557
0.000136943
-0.00119705
0.000121472
-0.00129975
0.000102703
-0.00138094
8.11915e-05
-0.00143829
5.73444e-05
-0.00146987
3.15829e-05
-0.00147516
5.29612e-06
-0.00144964
-2.55211e-05
-0.00139667
-5.29689e-05
-0.00131799
-7.86837e-05
-0.0012156
-0.000102392
-0.00109188
-0.000123719
-0.000950072
-0.000141808
-0.000794004
-0.000156069
-0.000628109
-0.000165895
-0.000457279
-0.000170829
-0.00028658
-0.000170699
-0.000121214
-0.000165366
3.36589e-05
-0.000154873
0.000173198
-0.000139539
0.000293027
-0.000119829
0.000389392
-9.63655e-05
0.00045945
-7.00573e-05
0.000501265
-4.1815e-05
0.00051415
-1.28853e-05
0.000495721
1.84286e-05
0.000449281
4.64398e-05
0.000378011
7.12702e-05
0.000285373
9.26382e-05
0.000175764
0.000109609
5.45946e-05
0.000121169
-7.20989e-05
0.000126694
-0.000198187
0.000126088
-0.000317451
0.000119264
-0.000423938
0.000106488
-0.000512293
8.83545e-05
-0.000578171
6.58784e-05
-0.000618335
4.01638e-05
-0.000631082
1.27467e-05
-0.000613347
-1.77345e-05
-0.000568045
-4.53023e-05
-0.000498235
-6.98097e-05
-0.000407665
-9.05701e-05
-0.000301263
-0.000106402
-0.000185033
-0.000116231
-6.535e-05
-0.000119683
5.09408e-05
-0.000116291
0.000157422
-0.000106482
0.000248204
-9.07813e-05
0.000318291
-7.00871e-05
0.000363994
-4.57031e-05
0.000383073
-1.90793e-05
0.000373355
9.71862e-06
0.000336668
3.6687e-05
0.000275806
6.08619e-05
0.000194231
8.15751e-05
9.6744e-05
9.74867e-05
-1.09974e-05
0.000107741
-0.000123026
0.000112029
-0.000232984
0.000109958
-0.000334847
0.000101862
-0.000423202
8.83554e-05
-0.000493441
7.02389e-05
-0.000542114
4.86725e-05
-0.000567045
2.49315e-05
-0.000566789
-2.56161e-07
-0.000541706
-2.50831e-05
-0.000493812
-4.78941e-05
-0.000425694
-6.81175e-05
-0.000340871
-8.48232e-05
-0.000243612
-9.72587e-05
-0.000138594
-0.000105019
-3.06751e-05
-0.000107919
7.54305e-05
-0.000106106
0.000175187
-9.97569e-05
0.000264701
-8.95137e-05
0.000340709
-7.60077e-05
0.000400728
-6.00192e-05
0.000443141
-4.24133e-05
0.000467258
-2.41169e-05
0.000473255
-5.9969e-06
0.000461955
1.13002e-05
0.000435092
2.68628e-05
0.000394862
4.02297e-05
0.000343911
5.09511e-05
0.000285184
5.87277e-05
0.000221693
6.34906e-05
0.000156525
6.51683e-05
9.24167e-05
6.41082e-05
3.20433e-05
6.03734e-05
-2.25467e-05
5.459e-05
-6.96115e-05
4.70648e-05
-0.000107942
3.83309e-05
-0.000136916
2.89739e-05
-0.000156349
1.94322e-05
-0.00016665
1.03012e-05
-0.000168499
1.84881e-06
-0.000163102
-5.39634e-06
-0.000151852
-1.12499e-05
-0.000136209
-1.56431e-05
-0.000117722
-1.84872e-05
-9.80369e-05
-1.96851e-05
-7.84509e-05
-1.95861e-05
-6.01693e-05
-1.82816e-05
-4.4045e-05
-1.61243e-05
-3.05722e-05
-1.34729e-05
-1.98424e-05
-1.07298e-05
-1.16234e-05
-8.21901e-06
-5.30086e-06
-6.32255e-06
-5.30086e-06
-0.000118738
0.000281404
-0.00023929
0.000285497
-0.000362985
0.00029134
-0.000490771
0.000298566
-0.00062359
0.000307162
-0.00076237
0.000317116
-0.000908001
0.000328346
-0.00106129
0.000340736
-0.00122297
0.000354172
-0.00139364
0.000368438
-0.00157373
0.000383272
-0.00176349
0.000398406
-0.00196305
0.000413631
-0.00217225
0.000428502
-0.00239076
0.000442771
-0.00261801
0.000456003
-0.00285316
0.000467811
-0.00309516
0.000477876
-0.00334278
0.000485853
-0.0035946
0.000491411
-0.00384897
0.000494223
-0.00410415
0.000494071
-0.00435817
0.00049063
-0.00460936
0.000484119
-0.00485571
0.000474126
-0.0050955
0.000460913
-0.00532668
0.000444166
-0.00554714
0.000423764
-0.00575561
0.000400611
-0.0059501
0.000374038
-0.00612877
0.000344268
-0.00629005
0.00031165
-0.00643251
0.000276401
-0.00655479
0.000238722
-0.00665569
0.000198896
-0.00673459
0.0001576
-0.00679142
0.000115592
-0.00682601
7.29066e-05
-0.00683767
2.93115e-05
-0.00682551
-1.68681e-05
-0.00679091
-6.36096e-05
-0.006733
-0.000110398
-0.00665156
-0.000156973
-0.00654668
-0.000203035
-0.0064187
-0.000248306
-0.00626819
-0.000292484
-0.00609582
-0.000335374
-0.00590249
-0.000376626
-0.00568912
-0.000416117
-0.00545691
-0.000453424
-0.00520703
-0.000488467
-0.00494089
-0.000520792
-0.00466005
-0.000550212
-0.00436614
-0.000576479
-0.00406103
-0.000599153
-0.00374661
-0.000618077
-0.00342518
-0.000632819
-0.00309879
-0.000643376
-0.00276996
-0.000649236
-0.0024408
-0.000650716
-0.00211402
-0.000647043
-0.00179201
-0.000638561
-0.00147752
-0.000624911
-0.00117312
-0.000606093
-0.000881303
-0.000582376
-0.000604831
-0.00055355
-0.000345883
-0.000520197
-0.000106911
-0.000482193
0.000110092
-0.000439928
0.00030283
-0.000393634
0.000469625
-0.000344055
0.000609056
-0.000291487
0.000719955
-0.000236468
0.000801609
-0.000180075
0.000853273
-0.000122421
0.000875572
-6.52095e-05
0.000868853
-8.78254e-06
0.000831622
5.01799e-05
0.000767451
0.000103294
0.000677946
0.000152972
0.000565101
0.000198915
0.000431396
0.000239976
0.000280049
0.000275207
0.000114341
0.000304119
-6.18229e-05
0.000325856
-0.00024473
0.000340238
-0.000429991
0.000346392
-0.000613355
0.000344336
-0.000790463
0.000334003
-0.000957109
0.000315443
-0.00110923
0.000289062
-0.00124305
0.000255291
-0.00135511
0.000214767
-0.00144218
0.000168256
-0.00150218
0.000117353
-0.00153361
6.30122e-05
-0.0015331
4.78241e-06
-0.00150156
-5.70597e-05
-0.00144029
-0.000114244
-0.00135085
-0.000168116
-0.00123533
-0.000217913
-0.00109667
-0.000262384
-0.000938704
-0.000299772
-0.000765944
-0.000328828
-0.000583409
-0.00034843
-0.000396554
-0.000357684
-0.000211029
-0.000356224
-3.25709e-05
-0.000343824
0.000133195
-0.000320639
0.000280961
-0.000287305
0.000406139
-0.000245007
0.000504594
-0.000194821
0.000573476
-0.000138939
0.000610892
-7.92309e-05
0.000616308
-1.83014e-05
0.000587741
4.69955e-05
0.000529378
0.000104803
0.00044411
0.000156538
0.000336032
0.000200716
0.000210436
0.000235205
7.32861e-05
0.000258319
-6.89661e-05
0.000268946
-0.000209153
0.000266275
-0.000340537
0.000250647
-0.000456642
0.000222593
-0.000551708
0.000183421
-0.000621136
0.000135306
-0.000661575
8.06033e-05
-0.000671391
2.25624e-05
-0.000648745
-4.03806e-05
-0.000596676
-9.73714e-05
-0.000518167
-0.000148319
-0.000417566
-0.000191171
-0.000300732
-0.000223236
-0.000174134
-0.000242829
-4.505e-05
-0.000248766
7.93381e-05
-0.000240679
0.000192074
-0.000219218
0.000286947
-0.000185654
0.000358989
-0.000142129
0.000404308
-9.10218e-05
0.000421253
-3.60252e-05
0.000408093
2.28792e-05
0.000367153
7.7627e-05
0.000301139
0.000126875
0.000214242
0.000168472
0.000111708
0.000200021
-2.78917e-07
0.000219728
-0.000115816
0.000227566
-0.000228027
0.000222169
-0.000330921
0.000204756
-0.000419147
0.000176581
-0.000488342
0.000139434
-0.0005352
9.55305e-05
-0.000557691
4.74228e-05
-0.000555009
-2.9381e-06
-0.000528182
-5.19107e-05
-0.000478891
-9.71848e-05
-0.000410105
-0.000136903
-0.000325526
-0.000169402
-0.000229558
-0.000193226
-0.000126822
-0.000207755
-2.20612e-05
-0.00021268
7.97603e-05
-0.000207927
0.000174767
-0.000194764
0.00025915
-0.000173897
0.000329985
-0.000146842
0.000384959
-0.000114993
0.00042285
-8.03039e-05
0.000443078
-4.43457e-05
0.000445989
-8.90767e-06
0.000432718
2.45716e-05
0.000404931
5.46498e-05
0.000364851
8.03097e-05
0.000315106
0.000100696
0.000258537
0.000115296
0.000198074
0.000123954
0.000136439
0.000126803
7.64454e-05
0.000124102
2.03676e-05
0.000116451
-2.98142e-05
0.000104772
-7.26298e-05
8.98804e-05
-0.000107028
7.27288e-05
-0.000132508
5.44546e-05
-0.000149042
3.59655e-05
-0.000156984
1.82435e-05
-0.00015715
2.01507e-06
-0.000150698
-1.18487e-05
-0.000138966
-2.29817e-05
-0.000123287
-3.13223e-05
-0.000105441
-3.63332e-05
-8.66234e-05
-3.85026e-05
-6.82399e-05
-3.79696e-05
-5.13181e-05
-3.52033e-05
-3.66369e-05
-3.08055e-05
-2.46456e-05
-2.54642e-05
-1.54266e-05
-1.99488e-05
-8.68788e-06
-1.49577e-05
-3.83695e-06
-1.11735e-05
-9.1378e-06
-6.09029e-05
0.000342306
-0.000124461
0.000349056
-0.000192767
0.000359645
-0.000267925
0.000373723
-0.000352062
0.000391299
-0.000447253
0.000412307
-0.000555548
0.00043664
-0.000678809
0.000463996
-0.000818731
0.000494094
-0.0009767
0.000526406
-0.00115369
0.000560267
-0.00135031
0.000595022
-0.00156673
0.000630051
-0.0018026
0.00066437
-0.00205709
0.000697257
-0.00232894
0.000727855
-0.00261645
0.000755321
-0.0029176
0.000779028
-0.0032299
0.000798151
-0.00355051
0.000812022
-0.00387638
0.000820096
-0.00420425
0.00082194
-0.0045308
0.00081718
-0.00485229
0.000805608
-0.00516529
0.000787126
-0.00546618
0.000761802
-0.00575198
0.00072996
-0.00602006
0.000691843
-0.00626755
0.000648105
-0.00649261
0.000599095
-0.00669392
0.000545581
-0.00687019
0.000487918
-0.00702078
0.000426992
-0.00714526
0.000363201
-0.00724347
0.000297106
-0.0073152
0.000229332
-0.0073599
0.000160285
-0.00737793
9.0941e-05
-0.00737161
2.29869e-05
-0.0073296
-5.8875e-05
-0.00725762
-0.000135584
-0.00715801
-0.000210009
-0.0070323
-0.000282682
-0.00688159
-0.000353749
-0.00670676
-0.000423133
-0.00650872
-0.000490531
-0.00628831
-0.000555777
-0.00604651
-0.000618429
-0.00578436
-0.000678265
-0.00550319
-0.000734596
-0.0052043
-0.000787361
-0.00488923
-0.000835856
-0.00455956
-0.000879887
-0.0042175
-0.000918536
-0.00386501
-0.000951647
-0.00350394
-0.000979144
-0.00313703
-0.000999727
-0.00276673
-0.00101368
-0.00239571
-0.00102025
-0.00202636
-0.00102007
-0.00166173
-0.00101167
-0.00130469
-0.000995601
-0.000958556
-0.000971043
-0.000625929
-0.00093872
-0.000309532
-0.000898773
-1.21817e-05
-0.0008509
0.000263155
-0.000795534
0.000513789
-0.000732826
0.000737158
-0.000663297
0.000931203
-0.00058768
0.00109431
-0.000507162
0.00122456
-0.00042174
0.001321
-0.000332902
0.00138316
-0.000242242
0.00141029
-0.000149543
0.00140257
-5.74896e-05
0.0013577
3.60852e-05
0.00128299
0.000124885
0.00117703
0.000209258
0.00104185
0.000288154
0.000880475
0.000360288
0.000696478
0.000423972
0.000493343
0.000478342
0.000275493
0.00052197
4.72793e-05
0.00055407
-0.000186249
0.000573766
-0.000420107
0.00058025
-0.000649274
0.000573502
-0.000868593
0.000553322
-0.001073
0.000519853
-0.00125764
0.000473699
-0.00141772
0.000415369
-0.00154966
0.00034671
-0.00165057
0.000269164
-0.0017171
0.000183887
-0.00174692
9.28307e-05
-0.00173802
-4.12206e-06
-0.00169314
-0.000101934
-0.00161265
-0.000194736
-0.00149817
-0.000282595
-0.00135258
-0.000363501
-0.00117998
-0.000434989
-0.000985374
-0.000494378
-0.000774242
-0.000539961
-0.000552933
-0.000569738
-0.000328211
-0.000582407
-0.000107082
-0.000577353
0.000103554
-0.00055446
0.000297051
-0.000514136
0.000467326
-0.000457579
0.000608623
-0.000386305
0.000716712
-0.000302909
0.000787746
-0.000209974
0.000819805
-0.00011129
0.000812055
-1.05513e-05
0.000765734
9.33164e-05
0.000684026
0.00018651
0.000570425
0.000270139
0.000430348
0.000340793
0.00027057
0.000394983
9.87708e-05
0.000430118
-7.67704e-05
0.000444487
-0.000247874
0.000437379
-0.000406315
0.000409088
-0.000544348
0.000360625
-0.000655374
0.000294447
-0.000734179
0.000214111
-0.000777058
0.000123482
-0.000782067
2.75716e-05
-0.000749139
-7.33086e-05
-0.000681508
-0.000165003
-0.000582795
-0.000247033
-0.00045913
-0.000314835
-0.000317646
-0.000364719
-0.000166461
-0.000394015
-1.40569e-05
-0.00040117
0.00013061
-0.000385346
0.000259784
-0.000348392
0.000366683
-0.000292553
0.000445448
-0.000220893
0.000492882
-0.000138456
0.000506542
-4.96852e-05
0.000486519
4.29018e-05
0.000435336
0.00012881
0.000356384
0.000205828
0.000255047
0.000269809
0.000137713
0.000317355
1.11755e-05
0.000346266
-0.000116495
0.000355237
-0.000239077
0.00034475
-0.000349897
0.000315576
-0.000443291
0.000269976
-0.000514865
0.000211008
-0.00056157
0.000142235
-0.000581686
6.75388e-05
-0.000575007
-9.61659e-06
-0.000543055
-8.38625e-05
-0.000488035
-0.000152206
-0.000413452
-0.000211486
-0.000323544
-0.000259311
-0.000223093
-0.000293677
-0.000117042
-0.000313806
-1.05381e-05
-0.000319184
9.19876e-05
-0.000310453
0.000186213
-0.00028899
0.000268605
-0.000256289
0.000336385
-0.000214622
0.00038762
-0.000166228
0.000421263
-0.000113947
0.000437168
-6.02504e-05
0.000435912
-7.65201e-06
0.000418885
4.15981e-05
0.00038798
8.55555e-05
0.000345592
0.000122697
0.000294415
0.000151874
0.000237373
0.000172338
0.000177262
0.000184064
0.00011694
0.000187126
5.89839e-05
0.000182058
5.47939e-06
0.000169956
-4.17279e-05
0.000151979
-8.12826e-05
0.000129435
-0.000112325
0.000103771
-0.000134532
7.66618e-05
-0.000147977
4.94111e-05
-0.000153127
2.33937e-05
-0.000151034
-7.83905e-08
-0.000142731
-2.01518e-05
-0.00012955
-3.61629e-05
-0.000113199
-4.76735e-05
-9.48942e-05
-5.46376e-05
-7.61903e-05
-5.72065e-05
-5.82836e-05
-5.58763e-05
-4.21822e-05
-5.13047e-05
-2.86356e-05
-4.43521e-05
-1.7992e-05
-3.61077e-05
-1.02803e-05
-2.76605e-05
-5.18586e-06
-2.00522e-05
-2.05998e-06
-1.42994e-05
-1.11978e-05
7.29405e-05
0.000269366
0.000143917
0.000278079
0.000207848
0.000295713
0.000260684
0.000320887
0.000297989
0.000353994
0.000315264
0.000395031
0.000307777
0.000444127
0.000271646
0.000500127
0.000202983
0.000562757
9.92534e-05
0.000630135
-4.16211e-05
0.000701141
-0.00022054
0.000773941
-0.000437706
0.000847217
-0.000692295
0.000918959
-0.000982875
0.000987836
-0.00130713
0.00105211
-0.00166205
0.00111025
-0.00204385
0.00116082
-0.00244786
0.00120216
-0.0028691
0.00123326
-0.00330198
0.00125298
-0.00374059
0.00126054
-0.00417891
0.0012555
-0.00461082
0.00123752
-0.00503057
0.00120688
-0.00543235
0.00116358
-0.00581145
0.00110906
-0.00616291
0.0010433
-0.00648396
0.000969155
-0.00677125
0.00088639
-0.00702361
0.000797938
-0.00723937
0.000703682
-0.00741794
0.000605563
-0.00755863
0.000503885
-0.00766191
0.000400391
-0.00773039
0.000297805
-0.00776641
0.000196306
-0.00776905
9.35829e-05
-0.00773376
-1.23053e-05
-0.00767318
-0.000119456
-0.00758345
-0.000225312
-0.00746378
-0.00032968
-0.0073145
-0.000431959
-0.0071363
-0.000531953
-0.00693027
-0.000629162
-0.00669752
-0.000723277
-0.00643927
-0.000814035
-0.00615682
-0.000900876
-0.00585162
-0.000983462
-0.00552505
-0.00106116
-0.00517898
-0.00113344
-0.0048154
-0.00119944
-0.00443636
-0.00125892
-0.00404362
-0.00131127
-0.00363985
-0.00135542
-0.00322786
-0.00139113
-0.00281022
-0.00141737
-0.00238974
-0.00143417
-0.00196935
-0.00144063
-0.00155241
-0.00143702
-0.00114266
-0.00142142
-0.000743373
-0.00139489
-0.000357185
-0.00135723
1.17884e-05
-0.00130769
0.000359832
-0.00124682
0.00068366
-0.00117473
0.000980239
-0.00109211
0.00124638
-0.000998966
0.00147962
-0.000896539
0.00167691
-0.000784972
0.00183678
-0.000667025
0.00195708
-0.000542041
0.00203711
-0.000412937
0.00207494
-0.000280073
0.00207188
-0.000146475
0.00202592
-1.15362e-05
0.00194046
0.000121543
0.00181686
0.000248486
0.00165695
0.000369172
0.00146381
0.000481298
0.00124087
0.000583224
0.000992364
0.000672477
0.000723166
0.000747541
0.00043853
0.000806605
0.000143933
0.000848667
-0.000154578
0.000872277
-0.000450665
0.000876337
-0.000737968
0.000860806
-0.00101034
0.000825696
-0.00126166
0.000771171
-0.00148661
0.000698653
-0.00168005
0.000608809
-0.00183705
0.000503709
-0.00195272
0.000384832
-0.00202512
0.000256289
-0.00205374
0.00012145
-0.00203331
-2.45517e-05
-0.00196864
-0.000166611
-0.00186021
-0.000303164
-0.00171046
-0.000432338
-0.00152358
-0.000550391
-0.0013047
-0.000653861
-0.00106034
-0.000738739
-0.000797523
-0.000802779
-0.000524326
-0.000842935
-0.000249004
-0.000857729
1.99432e-05
-0.0008463
0.000273941
-0.000808457
0.000504682
-0.000744877
0.000704333
-0.00065723
0.000867134
-0.000549106
0.00098682
-0.000422594
0.00106105
-0.000284202
0.00108743
-0.000137669
0.00106118
1.56923e-05
0.000991135
0.000163365
0.000877667
0.000299979
0.000726157
0.000421649
0.000543892
0.000523058
0.000339381
0.000599495
0.00012187
0.000647629
-9.77742e-05
0.000664131
-0.000309448
0.000649053
-0.000503135
0.000602775
-0.000669513
0.000527003
-0.000800772
0.000425706
-0.000890885
0.000304224
-0.000935764
0.000168361
-0.000933703
2.55113e-05
-0.000886196
-0.000120816
-0.000796654
-0.000254544
-0.00067054
-0.000373146
-0.000515493
-0.000469882
-0.00034078
-0.000539433
-0.000156725
-0.00057807
2.60022e-05
-0.000583897
0.000197589
-0.000556932
0.000348379
-0.000499182
0.000470551
-0.000414725
0.000557994
-0.000308336
0.000607131
-0.000187592
0.00061576
-5.83148e-05
0.00058608
7.25821e-05
0.00052047
0.000194419
0.000424119
0.000302179
0.000303448
0.00039048
0.000166335
0.000454468
2.11317e-05
0.000491469
-0.000123989
0.000500358
-0.000260834
0.000481596
-0.000382426
0.000437168
-0.000482897
0.000370446
-0.000557752
0.000285863
-0.000604212
0.000188695
-0.000621131
8.44586e-05
-0.000609204
-2.15444e-05
-0.00057012
-0.000122947
-0.000507006
-0.000215319
-0.000424063
-0.000294429
-0.000326188
-0.000357185
-0.000218714
-0.000401152
-0.000106973
-0.000425546
3.73879e-06
-0.000429895
0.000108731
-0.000415445
0.000203648
-0.000383906
0.00028517
-0.00033781
0.000350645
-0.000280097
0.000398526
-0.00021411
0.000427972
-0.000143393
0.000439256
-7.15347e-05
0.000433324
-1.71978e-06
0.000411809
6.31133e-05
0.000376876
0.000120488
0.00033117
0.000168403
0.000277543
0.000205501
0.000218862
0.000231019
0.000158182
0.000244744
9.82375e-05
0.00024707
4.12339e-05
0.000239062
-1.03835e-05
0.000221573
-5.51576e-05
0.000196753
-9.19e-05
0.000166177
-0.000119891
0.000131762
-0.000138973
9.57434e-05
-0.000149375
5.98137e-05
-0.000151745
2.5763e-05
-0.000147121
-4.70168e-06
-0.000136733
-3.054e-05
-0.000121991
-5.09052e-05
-0.00010437
-6.52941e-05
-8.53937e-05
-7.36141e-05
-6.6466e-05
-7.61343e-05
-4.87871e-05
-7.35553e-05
-3.33353e-05
-6.67565e-05
-2.07282e-05
-5.69592e-05
-1.13033e-05
-4.55326e-05
-5.06893e-06
-3.38948e-05
-1.60306e-06
-2.3518e-05
-2.36418e-07
-1.5666e-05
-1.14342e-05
0.000298416
-2.90505e-05
0.000587802
-1.13077e-05
0.000856732
2.67832e-05
0.0011065
7.11213e-05
0.00132594
0.00013455
0.00150457
0.000216398
0.00163164
0.000317059
0.00169847
0.000433301
0.0016943
0.000566926
0.00161304
0.000711391
0.00145078
0.000863407
0.00120803
0.00101668
0.000887729
0.00116752
0.000495086
0.0013116
3.68458e-05
0.00144608
-0.000479126
0.00156808
-0.00104392
0.00167504
-0.00164812
0.00176503
-0.00228197
0.00183601
-0.00293511
0.0018864
-0.00359641
0.00191427
-0.00425465
0.00191879
-0.00489863
0.00189948
-0.00551676
0.00185565
-0.00609885
0.00178897
-0.00663461
0.00169934
-0.00711673
0.00159117
-0.0075395
0.00146607
-0.00790239
0.00133205
-0.00820575
0.00118975
-0.00845202
0.00104421
-0.00864461
0.000896271
-0.00878741
0.00074837
-0.00888465
0.000601119
-0.00893997
0.000455718
-0.00895474
0.000312574
-0.00893108
0.00017264
-0.00887482
3.73261e-05
-0.00876618
-0.000120945
-0.00862149
-0.000264143
-0.00844594
-0.000400861
-0.00824209
-0.000533529
-0.00801138
-0.000662672
-0.00775489
-0.000788444
-0.00747301
-0.000911038
-0.00716636
-0.00102993
-0.00683569
-0.00114471
-0.006482
-0.00125457
-0.00610647
-0.00135899
-0.005711
-0.00145663
-0.00529668
-0.00154776
-0.00486491
-0.00163121
-0.00441805
-0.00170577
-0.0039589
-0.00177043
-0.00348906
-0.00182526
-0.0030119
-0.00186829
-0.00253038
-0.00189889
-0.00204729
-0.00191725
-0.00156733
-0.0019206
-0.00109324
-0.00191111
-0.00062876
-0.0018859
-0.000178033
-0.00184561
0.000254838
-0.0017901
0.000665602
-0.00171846
0.00105084
-0.00163205
0.0014063
-0.00153019
0.00172856
-0.00141437
0.00201384
-0.00128426
0.00225884
-0.00114154
0.00246139
-0.000987522
0.00261822
-0.000823851
0.00272798
-0.000651806
0.00278907
-0.000474021
0.00280143
-0.000292441
0.00276406
-0.000109099
0.00267736
7.51601e-05
0.00254509
0.000253815
0.00236766
0.000425915
0.00214819
0.000588643
0.00189059
0.000738897
0.00159925
0.000874561
0.00127957
0.000992161
0.000937225
0.00108988
0.000578814
0.00116502
0.000211399
0.00121608
-0.000158036
0.00124171
-0.000521848
0.00124015
-0.000872646
0.0012116
-0.00120325
0.0011563
-0.00150632
0.00107424
-0.00177461
0.000966951
-0.00200151
0.000835706
-0.00218194
0.00068414
-0.00231351
0.000516399
-0.00239137
0.000334147
-0.00241299
0.000143074
-0.00237754
-5.99989e-05
-0.00228819
-0.000255964
-0.00214578
-0.00044557
-0.00195407
-0.000624056
-0.00171845
-0.000786004
-0.00144572
-0.000926591
-0.00114377
-0.0010407
-0.000821532
-0.00112501
-0.000488641
-0.00117583
-0.000155798
-0.00119057
0.000166629
-0.00116873
0.000468406
-0.00111023
0.000739722
-0.00101619
0.000972464
-0.000889972
0.00115759
-0.000734232
0.00129076
-0.000555762
0.00136563
-0.000359075
0.0013807
-0.000152735
0.00133696
5.94324e-05
0.00123794
0.000262386
0.00108699
0.000450923
0.00089135
0.00061729
0.000660446
0.000753962
0.000404313
0.000855628
0.000135934
0.000916008
-0.000133267
0.000933332
-0.00039008
0.000905866
-0.000622628
0.000835323
-0.00081962
0.000723994
-0.000972144
0.00057823
-0.00107322
0.0004053
-0.00111866
0.000213804
-0.00110635
1.32009e-05
-0.00104073
-0.000186442
-0.000924787
-0.000370484
-0.000766236
-0.000531697
-0.000574958
-0.000661161
-0.000362512
-0.000751879
-0.000141268
-0.000799313
7.54819e-05
-0.000800647
0.000276059
-0.000757509
0.000449722
-0.000672846
0.00058739
-0.000552393
0.00068276
-0.000403706
0.000732156
-0.000236988
0.000734286
-6.04452e-05
0.00069211
0.000114758
0.000609249
0.00027728
0.000492431
0.000418997
0.00034993
0.000532982
0.000190853
0.000613545
2.50091e-05
0.000657313
-0.000138151
0.000663518
-0.000289753
0.000633198
-0.000422253
0.000569668
-0.000529472
0.000477665
-0.000607047
0.000363438
-0.000652538
0.000234186
-0.000665293
9.72134e-05
-0.000646799
-4.00383e-05
-0.000599414
-0.000170331
-0.000527129
-0.000287605
-0.000434935
-0.000386622
-0.000328325
-0.000463795
-0.000213152
-0.000516325
-9.52542e-05
-0.000543444
1.99327e-05
-0.000545082
0.000127548
-0.000523061
0.000223209
-0.000479568
0.000303861
-0.000418462
0.000367066
-0.000343302
0.000411394
-0.000258439
0.000436688
-0.000168686
0.00044327
-7.81165e-05
0.000432536
9.01415e-06
0.000406419
8.92308e-05
0.000367368
0.000159539
0.000318216
0.000217554
0.000261928
0.000261789
0.0002016
0.000291348
0.000140138
0.000306207
8.02579e-05
0.00030695
2.44694e-05
0.00029485
-2.56065e-05
0.000271649
-6.82062e-05
0.000239353
-0.000102296
0.000200267
-0.000127474
0.00015694
-0.000143575
0.000111845
-0.000151076
6.7315e-05
-0.000150736
2.54225e-05
-0.00014374
-1.16975e-05
-0.000131284
-4.29963e-05
-0.000114881
-6.73079e-05
-9.62167e-05
-8.39583e-05
-7.65882e-05
-9.32427e-05
-5.74056e-05
-9.53169e-05
-3.99347e-05
-9.10262e-05
-2.50255e-05
-8.16657e-05
-1.3295e-05
-6.86897e-05
-5.02488e-06
-5.38027e-05
-1.62483e-07
-3.87572e-05
1.77028e-06
-2.54508e-05
1.48349e-06
-1.53792e-05
-9.95071e-06
0.000632886
-0.000661936
0.00126785
-0.00064627
0.0018901
-0.000595468
0.00247366
-0.000512438
0.00300028
-0.000392073
0.00345063
-0.000233948
0.00377612
-8.43542e-06
0.00401167
0.000197752
0.00411506
0.000463532
0.00410064
0.000725816
0.0039616
0.00100244
0.00370646
0.00127182
0.00333951
0.00153447
0.00286751
0.0017836
0.00229696
0.00201663
0.0016346
0.00223044
0.000888504
0.00242113
7.13214e-05
0.00258221
-0.000799208
0.00270654
-0.00170529
0.00279248
-0.00262987
0.00283885
-0.00355454
0.00284346
-0.00446175
0.00280669
-0.00533146
0.00272536
-0.00614892
0.00260643
-0.00688793
0.00243836
-0.00754144
0.00224468
-0.00807508
0.00199971
-0.0085212
0.00177817
-0.00886783
0.00153637
-0.00913519
0.00131158
-0.00932621
0.00108728
-0.00944947
0.000871635
-0.00951527
0.000666921
-0.00953414
0.00047458
-0.00950973
0.000288172
-0.00944367
0.000106576
-0.00932582
-8.0523e-05
-0.00918777
-0.000258996
-0.0090195
-0.00043241
-0.00881988
-0.000600485
-0.00858924
-0.000764165
-0.00832895
-0.000922965
-0.00803925
-0.00107814
-0.00772171
-0.00122858
-0.0073775
-0.00137414
-0.00700745
-0.00151476
-0.00661301
-0.00164901
-0.0061947
-0.0017773
-0.00575291
-0.00189842
-0.00529021
-0.00201046
-0.00480936
-0.00211206
-0.00431135
-0.00220378
-0.0037995
-0.00228227
-0.00327619
-0.00234857
-0.00274506
-0.00239942
-0.00220988
-0.00243407
-0.00167357
-0.00245356
-0.00114036
-0.00245381
-0.000614421
-0.00243705
-0.000100584
-0.00239973
0.000397417
-0.00234362
0.00087378
-0.00226647
0.00132427
-0.00216895
0.00174407
-0.00205185
0.00212901
-0.00191513
0.00247451
-0.00175987
0.00277693
-0.00158668
0.00303234
-0.00139694
0.00323736
-0.00119254
0.00338974
-0.000976229
0.00348716
-0.00074923
0.00352793
-0.000514791
0.00351175
-0.000276265
0.00343866
-3.60041e-05
0.00331026
0.000203557
0.00312791
0.000436167
0.00289427
0.000659557
0.00261323
0.000869681
0.00228934
0.00106279
0.00192789
0.00123601
0.00153531
0.00138474
0.0011187
0.0015065
0.000685626
0.00159809
0.000244128
0.00165758
-0.000197257
0.0016831
-0.000629712
0.0016726
-0.00104428
0.00162617
-0.00143173
0.00154376
-0.00178361
0.00142612
-0.00209261
0.00127595
-0.00235281
0.0010959
-0.00255787
0.000889203
-0.0027011
0.000659634
-0.00277922
0.00041226
-0.00279011
0.00015397
-0.00273735
-0.00011276
-0.00261958
-0.000373736
-0.00243952
-0.000625631
-0.00220221
-0.000861362
-0.00191442
-0.0010738
-0.00158443
-0.00125658
-0.00122188
-0.00140324
-0.000837728
-0.00150917
-0.000443437
-0.00157012
-5.11837e-05
-0.00158283
0.000326345
-0.00154626
0.000677366
-0.00146126
0.000990433
-0.00132926
0.00125415
-0.00115369
0.00146126
-0.000941343
0.00160336
-0.00069786
0.0016787
-0.000434421
0.00168228
-0.000156311
0.00161694
0.000124775
0.00148563
0.000393698
0.00129426
0.000642289
0.00105182
0.000859735
0.000769487
0.00103629
0.000460013
0.0011651
0.000137962
0.00123806
-0.000182164
0.00125346
-0.000484739
0.00120844
-0.000756114
0.0011067
-0.000983036
0.000950917
-0.00115547
0.000750665
-0.00126564
0.000515469
-0.00130934
0.000257506
-0.00128483
-1.13095e-05
-0.00119763
-0.000273645
-0.00105234
-0.000515776
-0.000858743
-0.000725289
-0.000629263
-0.000890641
-0.000377857
-0.00100329
-0.000119296
-0.00105787
0.00013194
-0.00105188
0.000361153
-0.000986722
0.000556423
-0.000868116
0.000708118
-0.000704088
0.000809453
-0.000505041
0.000856966
-0.000284501
0.00085057
-5.4049e-05
0.000794003
0.000171325
0.000692603
0.00037868
0.000554491
0.000557109
0.000389619
0.000697853
0.000208622
0.000794542
2.26609e-05
0.000843274
-0.00015754
0.000843719
-0.000322632
0.000798289
-0.000464424
0.00071146
-0.000576849
0.00059009
-0.000655698
0.000442287
-0.000698984
0.000277471
-0.000706727
0.000104957
-0.000680928
-6.5837e-05
-0.000624945
-0.000226314
-0.000543541
-0.00036901
-0.000442293
-0.00048787
-0.000327408
-0.00057868
-0.000205268
-0.000638465
-8.18791e-05
-0.000666833
3.70041e-05
-0.000663965
0.00014642
-0.000632476
0.000242309
-0.000575457
0.000321519
-0.000497672
0.000381999
-0.000403782
0.000422765
-0.000299204
0.00044368
-0.000189601
0.000445654
-8.00902e-05
0.000430362
2.43052e-05
0.000399965
0.000119628
0.000357181
0.000202324
0.000305003
0.000269732
0.000246526
0.000320265
0.000184899
0.000352975
0.000123007
0.000368099
6.35359e-05
0.000366421
8.84085e-06
0.000349545
-3.94072e-05
0.000319897
-7.9747e-05
0.000279693
-0.000111301
0.00023182
-0.000133743
0.000179382
-0.000147106
0.000125209
-0.000151979
7.21875e-05
-0.000149227
2.26701e-05
-0.000140054
-2.08699e-05
-0.000125856
-5.71939e-05
-0.000108169
-8.49956e-05
-8.84194e-05
-0.000103708
-6.83333e-05
-0.000113329
-4.90868e-05
-0.000114563
-3.18323e-05
-0.000108281
-1.74873e-05
-9.60107e-05
-6.60205e-06
-7.95749e-05
5.81013e-07
-6.09858e-05
4.23113e-06
-4.24074e-05
4.7683e-06
-2.5988e-05
3.02108e-06
-1.3632e-05
-6.92962e-06
0.0013057
-0.00196764
0.00260415
-0.00194472
0.00386117
-0.00185248
0.00504243
-0.0016937
0.00610766
-0.00145731
0.00703264
-0.00115893
0.00781021