/*--------------------------------*- C++ -*----------------------------------*\
  =========                 |
  \\      /  F ield         | OpenFOAM: The Open Source CFD Toolbox
   \\    /   O peration     | Website:  https://openfoam.org
    \\  /    A nd           | Version:  12
     \\/     M anipulation  |
\*---------------------------------------------------------------------------*/
FoamFile
{
    format      ascii;
    class       volScalarField;
    location    "9";
    object      p;
}
// * * * * * * * * * * * * * * * * * * * * * * * * * * * * * * * * * * * * * //

dimensions      [1 -1 -2 0 0 0 0];

internalField   nonuniform List<scalar> 
3829
(
-617.99
-617.989
-617.986
-617.982
-617.977
-617.971
-617.962
-617.953
-617.941
-617.928
-617.913
-617.896
-617.877
-617.855
-617.831
-617.805
-617.776
-617.745
-617.711
-617.673
-617.633
-617.59
-617.544
-617.494
-617.442
-617.386
-617.328
-617.267
-617.202
-617.136
-617.066
-616.995
-616.921
-616.846
-616.769
-616.69
-616.611
-616.531
-616.451
-616.371
-616.291
-616.212
-616.134
-616.057
-615.982
-615.91
-615.84
-615.773
-615.709
-615.649
-615.592
-615.538
-615.489
-615.443
-615.401
-615.363
-615.329
-615.299
-615.272
-615.25
-615.23
-615.214
-615.201
-615.19
-615.182
-615.176
-615.171
-615.167
-615.163
-615.16
-615.156
-615.151
-615.145
-615.136
-615.126
-615.112
-615.096
-615.076
-615.052
-615.025
-614.993
-614.956
-614.916
-614.873
-614.826
-614.776
-614.723
-614.669
-614.612
-614.556
-614.499
-614.443
-614.389
-614.338
-614.29
-614.247
-614.208
-614.176
-614.15
-614.13
-614.118
-614.113
-614.116
-614.126
-614.143
-614.165
-614.193
-614.225
-614.26
-614.297
-614.337
-614.373
-614.408
-614.439
-614.466
-614.487
-614.501
-614.508
-614.507
-614.498
-614.482
-614.458
-614.429
-614.395
-614.358
-614.319
-614.28
-614.243
-614.209
-614.18
-614.157
-614.142
-614.136
-614.137
-614.147
-614.164
-614.187
-614.215
-614.247
-614.279
-614.311
-614.341
-614.366
-614.386
-614.4
-614.406
-614.406
-614.401
-614.39
-614.376
-614.357
-614.341
-614.328
-614.318
-614.312
-614.311
-614.315
-614.324
-614.335
-614.349
-614.363
-614.375
-614.384
-614.389
-614.389
-614.384
-614.373
-614.359
-614.341
-614.321
-614.303
-614.286
-614.273
-614.264
-614.261
-614.263
-614.271
-614.283
-614.298
-614.315
-614.333
-614.349
-614.364
-614.375
-614.383
-614.386
-614.386
-614.383
-614.378
-614.371
-614.364
-614.357
-614.35
-614.345
-614.342
-614.34
-614.339
-614.338
-614.339
-614.339
-1776.47
-1776.47
-1776.47
-1776.47
-1776.46
-1776.46
-1776.45
-1776.44
-1776.43
-1776.42
-1776.41
-1776.4
-1776.38
-1776.36
-1776.34
-1776.31
-1776.28
-1776.25
-1776.22
-1776.18
-1776.14
-1776.09
-1776.04
-1775.98
-1775.93
-1775.86
-1775.8
-1775.73
-1775.65
-1775.58
-1775.5
-1775.41
-1775.33
-1775.24
-1775.15
-1775.06
-1774.97
-1774.88
-1774.79
-1774.7
-1774.6
-1774.52
-1774.43
-1774.34
-1774.26
-1774.18
-1774.1
-1774.03
-1773.96
-1773.9
-1773.84
-1773.79
-1773.74
-1773.7
-1773.66
-1773.62
-1773.59
-1773.57
-1773.55
-1773.53
-1773.52
-1773.51
-1773.51
-1773.51
-1773.51
-1773.51
-1773.52
-1773.52
-1773.53
-1773.53
-1773.54
-1773.54
-1773.54
-1773.54
-1773.54
-1773.53
-1773.51
-1773.49
-1773.47
-1773.44
-1773.41
-1773.37
-1773.33
-1773.28
-1773.23
-1773.17
-1773.11
-1773.05
-1772.98
-1772.92
-1772.85
-1772.79
-1772.73
-1772.67
-1772.61
-1772.56
-1772.52
-1772.48
-1772.45
-1772.43
-1772.42
-1772.42
-1772.43
-1772.44
-1772.46
-1772.5
-1772.53
-1772.57
-1772.62
-1772.67
-1772.71
-1772.76
-1772.8
-1772.84
-1772.87
-1772.9
-1772.92
-1772.92
-1772.92
-1772.91
-1772.89
-1772.86
-1772.82
-1772.78
-1772.74
-1772.69
-1772.64
-1772.6
-1772.55
-1772.52
-1772.49
-1772.48
-1772.47
-1772.47
-1772.49
-1772.51
-1772.54
-1772.57
-1772.61
-1772.65
-1772.69
-1772.73
-1772.75
-1772.78
-1772.79
-1772.8
-1772.79
-1772.78
-1772.77
-1772.75
-1772.73
-1772.71
-1772.69
-1772.68
-1772.67
-1772.67
-1772.67
-1772.69
-1772.7
-1772.72
-1772.74
-1772.75
-1772.76
-1772.77
-1772.77
-1772.76
-1772.75
-1772.73
-1772.71
-1772.69
-1772.67
-1772.65
-1772.63
-1772.63
-1772.62
-1772.63
-1772.63
-1772.65
-1772.67
-1772.68
-1772.7
-1772.72
-1772.74
-1772.75
-1772.76
-1772.76
-1772.76
-1772.76
-1772.75
-1772.74
-1772.73
-1772.73
-1772.72
-1772.71
-1772.71
-1772.71
-1772.71
-1772.71
-1772.71
-1772.71
-2802.81
-2802.81
-2802.81
-2802.81
-2802.81
-2802.81
-2802.81
-2802.81
-2802.8
-2802.8
-2802.8
-2802.79
-2802.78
-2802.77
-2802.75
-2802.73
-2802.71
-2802.68
-2802.65
-2802.61
-2802.56
-2802.51
-2802.46
-2802.39
-2802.32
-2802.25
-2802.16
-2802.08
-2801.98
-2801.89
-2801.78
-2801.68
-2801.57
-2801.46
-2801.34
-2801.23
-2801.11
-2801
-2800.88
-2800.77
-2800.66
-2800.55
-2800.45
-2800.35
-2800.25
-2800.16
-2800.07
-2799.99
-2799.92
-2799.85
-2799.79
-2799.73
-2799.68
-2799.64
-2799.61
-2799.58
-2799.56
-2799.55
-2799.54
-2799.54
-2799.54
-2799.55
-2799.56
-2799.58
-2799.6
-2799.62
-2799.64
-2799.67
-2799.69
-2799.71
-2799.73
-2799.75
-2799.76
-2799.77
-2799.78
-2799.78
-2799.77
-2799.75
-2799.73
-2799.7
-2799.67
-2799.62
-2799.57
-2799.51
-2799.45
-2799.38
-2799.31
-2799.23
-2799.15
-2799.07
-2798.98
-2798.9
-2798.82
-2798.75
-2798.68
-2798.62
-2798.57
-2798.53
-2798.49
-2798.47
-2798.46
-2798.46
-2798.48
-2798.5
-2798.54
-2798.58
-2798.64
-2798.69
-2798.76
-2798.82
-2798.89
-2798.95
-2799.01
-2799.06
-2799.11
-2799.14
-2799.16
-2799.17
-2799.16
-2799.15
-2799.12
-2799.08
-2799.03
-2798.97
-2798.91
-2798.84
-2798.78
-2798.72
-2798.67
-2798.63
-2798.59
-2798.57
-2798.56
-2798.57
-2798.59
-2798.63
-2798.67
-2798.71
-2798.77
-2798.82
-2798.87
-2798.91
-2798.95
-2798.98
-2798.99
-2799
-2798.99
-2798.97
-2798.95
-2798.92
-2798.89
-2798.86
-2798.83
-2798.82
-2798.81
-2798.81
-2798.82
-2798.83
-2798.85
-2798.88
-2798.9
-2798.92
-2798.94
-2798.95
-2798.95
-2798.94
-2798.93
-2798.9
-2798.88
-2798.85
-2798.82
-2798.8
-2798.78
-2798.77
-2798.77
-2798.77
-2798.78
-2798.8
-2798.82
-2798.84
-2798.87
-2798.89
-2798.91
-2798.92
-2798.93
-2798.93
-2798.93
-2798.92
-2798.91
-2798.9
-2798.89
-2798.88
-2798.88
-2798.87
-2798.87
-2798.87
-2798.87
-2798.87
-2798.87
-2798.87
-3712
-3712
-3712.01
-3712.01
-3712.02
-3712.04
-3712.05
-3712.07
-3712.09
-3712.1
-3712.12
-3712.13
-3712.15
-3712.15
-3712.15
-3712.15
-3712.14
-3712.12
-3712.09
-3712.06
-3712.01
-3711.95
-3711.89
-3711.81
-3711.72
-3711.62
-3711.51
-3711.39
-3711.27
-3711.14
-3711
-3710.85
-3710.71
-3710.56
-3710.4
-3710.25
-3710.1
-3709.95
-3709.8
-3709.65
-3709.51
-3709.37
-3709.24
-3709.12
-3709
-3708.89
-3708.8
-3708.71
-3708.63
-3708.56
-3708.5
-3708.44
-3708.4
-3708.37
-3708.35
-3708.33
-3708.33
-3708.33
-3708.35
-3708.37
-3708.39
-3708.43
-3708.46
-3708.51
-3708.55
-3708.6
-3708.65
-3708.7
-3708.75
-3708.79
-3708.83
-3708.87
-3708.9
-3708.93
-3708.95
-3708.96
-3708.96
-3708.95
-3708.93
-3708.89
-3708.85
-3708.8
-3708.74
-3708.66
-3708.58
-3708.49
-3708.4
-3708.3
-3708.19
-3708.09
-3707.98
-3707.88
-3707.77
-3707.68
-3707.59
-3707.52
-3707.45
-3707.4
-3707.36
-3707.34
-3707.33
-3707.34
-3707.36
-3707.4
-3707.46
-3707.52
-3707.6
-3707.68
-3707.77
-3707.86
-3707.95
-3708.04
-3708.12
-3708.19
-3708.25
-3708.29
-3708.32
-3708.33
-3708.32
-3708.3
-3708.25
-3708.2
-3708.13
-3708.05
-3707.96
-3707.88
-3707.79
-3707.71
-3707.64
-3707.58
-3707.54
-3707.52
-3707.52
-3707.53
-3707.56
-3707.6
-3707.66
-3707.73
-3707.8
-3707.87
-3707.94
-3708
-3708.04
-3708.07
-3708.09
-3708.09
-3708.07
-3708.04
-3708.01
-3707.96
-3707.92
-3707.88
-3707.85
-3707.82
-3707.81
-3707.81
-3707.83
-3707.85
-3707.88
-3707.92
-3707.95
-3707.98
-3708
-3708.02
-3708.02
-3708.01
-3707.98
-3707.96
-3707.92
-3707.88
-3707.85
-3707.82
-3707.8
-3707.79
-3707.78
-3707.79
-3707.81
-3707.83
-3707.85
-3707.88
-3707.91
-3707.94
-3707.95
-3707.97
-3707.98
-3707.98
-3707.97
-3707.97
-3707.96
-3707.94
-3707.93
-3707.92
-3707.91
-3707.91
-3707.9
-3707.9
-3707.9
-3707.91
-3707.91
-3707.91
-4517.36
-4517.37
-4517.38
-4517.41
-4517.44
-4517.48
-4517.53
-4517.58
-4517.64
-4517.7
-4517.76
-4517.82
-4517.87
-4517.92
-4517.96
-4517.99
-4518.01
-4518.01
-4518
-4517.97
-4517.92
-4517.85
-4517.77
-4517.66
-4517.54
-4517.41
-4517.25
-4517.09
-4516.91
-4516.72
-4516.53
-4516.32
-4516.12
-4515.91
-4515.7
-4515.49
-4515.29
-4515.09
-4514.9
-4514.71
-4514.53
-4514.36
-4514.2
-4514.05
-4513.91
-4513.79
-4513.67
-4513.58
-4513.49
-4513.42
-4513.36
-4513.31
-4513.28
-4513.26
-4513.25
-4513.26
-4513.27
-4513.3
-4513.34
-4513.39
-4513.45
-4513.51
-4513.59
-4513.66
-4513.74
-4513.83
-4513.91
-4513.99
-4514.07
-4514.15
-4514.22
-4514.28
-4514.34
-4514.38
-4514.42
-4514.44
-4514.45
-4514.44
-4514.43
-4514.39
-4514.34
-4514.27
-4514.2
-4514.1
-4514
-4513.88
-4513.76
-4513.63
-4513.49
-4513.35
-4513.21
-4513.08
-4512.95
-4512.83
-4512.71
-4512.62
-4512.53
-4512.47
-4512.42
-4512.4
-4512.4
-4512.41
-4512.45
-4512.51
-4512.59
-4512.68
-4512.79
-4512.91
-4513.03
-4513.16
-4513.28
-4513.4
-4513.51
-4513.6
-4513.68
-4513.74
-4513.77
-4513.79
-4513.77
-4513.73
-4513.67
-4513.59
-4513.49
-4513.38
-4513.27
-4513.15
-4513.04
-4512.93
-4512.84
-4512.77
-4512.71
-4512.69
-4512.68
-4512.71
-4512.75
-4512.81
-4512.9
-4512.99
-4513.08
-4513.18
-4513.27
-4513.34
-4513.4
-4513.44
-4513.45
-4513.45
-4513.42
-4513.38
-4513.32
-4513.26
-4513.2
-4513.14
-4513.1
-4513.07
-4513.05
-4513.06
-4513.08
-4513.11
-4513.16
-4513.2
-4513.25
-4513.29
-4513.32
-4513.34
-4513.34
-4513.33
-4513.3
-4513.26
-4513.22
-4513.17
-4513.13
-4513.09
-4513.06
-4513.05
-4513.05
-4513.05
-4513.08
-4513.1
-4513.14
-4513.17
-4513.2
-4513.23
-4513.26
-4513.27
-4513.28
-4513.28
-4513.27
-4513.26
-4513.25
-4513.23
-4513.22
-4513.2
-4513.2
-4513.19
-4513.19
-4513.19
-4513.19
-4513.19
-4513.2
-4513.2
-5230.46
-5230.48
-5230.51
-5230.57
-5230.65
-5230.74
-5230.84
-5230.96
-5231.09
-5231.22
-5231.35
-5231.49
-5231.62
-5231.74
-5231.84
-5231.94
-5232.01
-5232.06
-5232.09
-5232.1
-5232.07
-5232.02
-5231.93
-5231.8
-5231.65
-5231.46
-5231.24
-5231
-5230.74
-5230.47
-5230.19
-5229.9
-5229.61
-5229.32
-5229.03
-5228.75
-5228.48
-5228.22
-5227.97
-5227.73
-5227.51
-5227.3
-5227.11
-5226.94
-5226.78
-5226.63
-5226.51
-5226.4
-5226.32
-5226.25
-5226.2
-5226.16
-5226.14
-5226.15
-5226.16
-5226.19
-5226.24
-5226.3
-5226.38
-5226.47
-5226.56
-5226.67
-5226.78
-5226.9
-5227.03
-5227.15
-5227.28
-5227.4
-5227.52
-5227.63
-5227.74
-5227.83
-5227.92
-5227.99
-5228.04
-5228.08
-5228.09
-5228.09
-5228.07
-5228.03
-5227.97
-5227.89
-5227.79
-5227.67
-5227.54
-5227.39
-5227.23
-5227.06
-5226.88
-5226.71
-5226.53
-5226.35
-5226.19
-5226.03
-5225.89
-5225.77
-5225.66
-5225.58
-5225.53
-5225.5
-5225.5
-5225.54
-5225.6
-5225.68
-5225.79
-5225.91
-5226.06
-5226.22
-5226.38
-5226.55
-5226.71
-5226.87
-5227.01
-5227.13
-5227.23
-5227.3
-5227.35
-5227.35
-5227.33
-5227.28
-5227.2
-5227.09
-5226.96
-5226.82
-5226.66
-5226.51
-5226.36
-5226.22
-5226.1
-5226.01
-5225.95
-5225.91
-5225.91
-5225.95
-5226.01
-5226.1
-5226.21
-5226.33
-5226.46
-5226.59
-5226.7
-5226.8
-5226.87
-5226.91
-5226.93
-5226.91
-5226.87
-5226.81
-5226.73
-5226.65
-5226.56
-5226.49
-5226.43
-5226.39
-5226.37
-5226.38
-5226.41
-5226.46
-5226.52
-5226.58
-5226.65
-5226.7
-5226.74
-5226.76
-5226.76
-5226.74
-5226.71
-5226.66
-5226.6
-5226.54
-5226.49
-5226.44
-5226.41
-5226.39
-5226.39
-5226.41
-5226.43
-5226.47
-5226.51
-5226.55
-5226.59
-5226.62
-5226.65
-5226.67
-5226.67
-5226.67
-5226.66
-5226.65
-5226.63
-5226.61
-5226.59
-5226.58
-5226.57
-5226.56
-5226.56
-5226.56
-5226.57
-5226.57
-5226.58
-5226.58
-5861.86
-5861.9
-5861.98
-5862.1
-5862.27
-5862.47
-5862.71
-5862.98
-5863.28
-5863.6
-5863.92
-5864.25
-5864.56
-5864.86
-5865.12
-5865.34
-5865.52
-5865.63
-5865.69
-5865.69
-5865.63
-5865.5
-5865.32
-5865.09
-5864.8
-5864.47
-5864.1
-5863.71
-5863.29
-5862.87
-5862.45
-5862.03
-5861.62
-5861.23
-5860.84
-5860.48
-5860.13
-5859.8
-5859.49
-5859.2
-5858.94
-5858.69
-5858.47
-5858.28
-5858.1
-5857.95
-5857.82
-5857.71
-5857.63
-5857.57
-5857.53
-5857.51
-5857.52
-5857.54
-5857.59
-5857.66
-5857.74
-5857.84
-5857.96
-5858.09
-5858.24
-5858.39
-5858.56
-5858.72
-5858.9
-5859.07
-5859.25
-5859.42
-5859.58
-5859.74
-5859.88
-5860.01
-5860.13
-5860.22
-5860.3
-5860.35
-5860.38
-5860.38
-5860.36
-5860.31
-5860.23
-5860.13
-5860.01
-5859.86
-5859.69
-5859.5
-5859.3
-5859.08
-5858.86
-5858.63
-5858.41
-5858.19
-5857.98
-5857.78
-5857.61
-5857.46
-5857.33
-5857.24
-5857.18
-5857.15
-5857.16
-5857.2
-5857.28
-5857.39
-5857.54
-5857.71
-5857.9
-5858.1
-5858.32
-5858.53
-5858.75
-5858.94
-5859.13
-5859.28
-5859.4
-5859.49
-5859.54
-5859.55
-5859.52
-5859.44
-5859.33
-5859.19
-5859.02
-5858.84
-5858.64
-5858.44
-5858.25
-5858.07
-5857.93
-5857.81
-5857.73
-5857.7
-5857.7
-5857.75
-5857.84
-5857.96
-5858.1
-5858.26
-5858.43
-5858.58
-5858.73
-5858.85
-5858.94
-5858.99
-5859
-5858.97
-5858.92
-5858.83
-5858.73
-5858.61
-5858.5
-5858.41
-5858.33
-5858.28
-5858.26
-5858.28
-5858.32
-5858.38
-5858.46
-5858.55
-5858.63
-5858.7
-5858.75
-5858.77
-5858.77
-5858.75
-5858.7
-5858.64
-5858.57
-5858.49
-5858.43
-5858.37
-5858.34
-5858.32
-5858.32
-5858.34
-5858.37
-5858.41
-5858.46
-5858.51
-5858.56
-5858.6
-5858.63
-5858.65
-5858.65
-5858.65
-5858.63
-5858.62
-5858.59
-5858.57
-5858.55
-5858.53
-5858.52
-5858.52
-5858.52
-5858.52
-5858.52
-5858.53
-5858.54
-5858.54
-6420.1
-6420.17
-6420.32
-6420.54
-6420.84
-6421.21
-6421.66
-6422.15
-6422.7
-6423.24
-6423.79
-6424.31
-6424.78
-6425.21
-6425.58
-6425.89
-6426.14
-6426.33
-6426.45
-6426.52
-6426.51
-6426.43
-6426.27
-6426.02
-6425.68
-6425.26
-6424.76
-6424.2
-6423.62
-6423.03
-6422.45
-6421.89
-6421.35
-6420.84
-6420.35
-6419.9
-6419.47
-6419.07
-6418.71
-6418.38
-6418.08
-6417.8
-6417.56
-6417.35
-6417.16
-6417
-6416.88
-6416.78
-6416.71
-6416.67
-6416.65
-6416.66
-6416.69
-6416.75
-6416.83
-6416.94
-6417.07
-6417.22
-6417.39
-6417.57
-6417.77
-6417.98
-6418.2
-6418.42
-6418.66
-6418.89
-6419.12
-6419.34
-6419.56
-6419.76
-6419.95
-6420.12
-6420.26
-6420.39
-6420.49
-6420.55
-6420.59
-6420.6
-6420.57
-6420.51
-6420.42
-6420.29
-6420.14
-6419.95
-6419.74
-6419.51
-6419.25
-6418.99
-6418.71
-6418.43
-6418.15
-6417.88
-6417.62
-6417.38
-6417.17
-6416.98
-6416.83
-6416.72
-6416.65
-6416.63
-6416.64
-6416.7
-6416.81
-6416.95
-6417.14
-6417.35
-6417.6
-6417.86
-6418.13
-6418.4
-6418.66
-6418.91
-6419.14
-6419.33
-6419.48
-6419.59
-6419.64
-6419.65
-6419.6
-6419.51
-6419.36
-6419.18
-6418.97
-6418.73
-6418.48
-6418.23
-6418
-6417.78
-6417.6
-6417.46
-6417.37
-6417.33
-6417.34
-6417.41
-6417.52
-6417.68
-6417.86
-6418.06
-6418.27
-6418.47
-6418.64
-6418.79
-6418.89
-6418.95
-6418.96
-6418.92
-6418.84
-6418.73
-6418.59
-6418.45
-6418.31
-6418.19
-6418.09
-6418.03
-6418.01
-6418.03
-6418.09
-6418.18
-6418.28
-6418.39
-6418.49
-6418.57
-6418.63
-6418.66
-6418.66
-6418.63
-6418.57
-6418.49
-6418.4
-6418.32
-6418.24
-6418.17
-6418.13
-6418.11
-6418.11
-6418.14
-6418.18
-6418.23
-6418.29
-6418.35
-6418.4
-6418.45
-6418.48
-6418.5
-6418.5
-6418.5
-6418.48
-6418.46
-6418.43
-6418.4
-6418.38
-6418.36
-6418.35
-6418.34
-6418.34
-6418.35
-6418.35
-6418.36
-6418.37
-6418.37
-6913.58
-6913.71
-6913.98
-6914.38
-6914.94
-6915.61
-6916.43
-6917.36
-6918.37
-6919.4
-6920.43
-6921.43
-6922.38
-6923.25
-6924.03
-6924.75
-6925.32
-6925.74
-6925.98
-6926.04
-6925.92
-6925.65
-6925.23
-6924.67
-6923.99
-6923.2
-6922.28
-6921.24
-6920.24
-6919.32
-6918.47
-6917.69
-6916.97
-6916.32
-6915.72
-6915.19
-6914.7
-6914.26
-6913.86
-6913.5
-6913.18
-6912.89
-6912.64
-6912.43
-6912.25
-6912.1
-6911.98
-6911.89
-6911.83
-6911.81
-6911.81
-6911.85
-6911.92
-6912.02
-6912.14
-6912.3
-6912.47
-6912.67
-6912.9
-6913.14
-6913.4
-6913.67
-6913.95
-6914.24
-6914.53
-6914.82
-6915.11
-6915.39
-6915.66
-6915.92
-6916.15
-6916.36
-6916.55
-6916.7
-6916.82
-6916.91
-6916.96
-6916.97
-6916.93
-6916.86
-6916.75
-6916.59
-6916.4
-6916.17
-6915.92
-6915.63
-6915.32
-6915
-6914.66
-6914.32
-6913.98
-6913.65
-6913.34
-6913.05
-6912.8
-6912.58
-6912.4
-6912.27
-6912.19
-6912.16
-6912.19
-6912.27
-6912.41
-6912.59
-6912.82
-6913.09
-6913.39
-6913.71
-6914.04
-6914.38
-6914.7
-6915
-6915.27
-6915.5
-6915.69
-6915.81
-6915.88
-6915.88
-6915.81
-6915.69
-6915.51
-6915.29
-6915.02
-6914.73
-6914.43
-6914.12
-6913.83
-6913.57
-6913.36
-6913.19
-6913.08
-6913.04
-6913.07
-6913.15
-6913.3
-6913.49
-6913.72
-6913.97
-6914.22
-6914.46
-6914.67
-6914.85
-6914.97
-6915.03
-6915.04
-6914.98
-6914.88
-6914.73
-6914.56
-6914.38
-6914.21
-6914.06
-6913.95
-6913.88
-6913.86
-6913.89
-6913.96
-6914.07
-6914.2
-6914.33
-6914.45
-6914.56
-6914.63
-6914.66
-6914.66
-6914.61
-6914.54
-6914.45
-6914.34
-6914.24
-6914.15
-6914.07
-6914.02
-6914
-6914.01
-6914.04
-6914.09
-6914.15
-6914.22
-6914.29
-6914.35
-6914.4
-6914.44
-6914.45
-6914.46
-6914.45
-6914.43
-6914.4
-6914.37
-6914.34
-6914.31
-6914.29
-6914.27
-6914.27
-6914.27
-6914.28
-6914.29
-6914.3
-6914.31
-6914.31
-7349.05
-7349.21
-7349.56
-7350.09
-7350.86
-7351.93
-7353.45
-7355.32
-7358.72
-7360.78
-7362.38
-7363.78
-7365
-7366.03
-7366.86
-7367.46
-7367.87
-7368.13
-7368.26
-7368.26
-7368.15
-7367.91
-7367.52
-7366.88
-7366
-7365.07
-7363.72
-7360.86
-7359.47
-7358.26
-7357.24
-7356.33
-7355.54
-7354.84
-7354.2
-7353.64
-7353.13
-7352.67
-7352.26
-7351.9
-7351.57
-7351.28
-7351.04
-7350.83
-7350.65
-7350.51
-7350.41
-7350.34
-7350.31
-7350.31
-7350.34
-7350.42
-7350.52
-7350.66
-7350.83
-7351.03
-7351.26
-7351.52
-7351.8
-7352.11
-7352.43
-7352.76
-7353.11
-7353.47
-7353.82
-7354.18
-7354.53
-7354.88
-7355.2
-7355.51
-7355.8
-7356.05
-7356.27
-7356.46
-7356.61
-7356.71
-7356.77
-7356.78
-7356.73
-7356.65
-7356.51
-7356.32
-7356.09
-7355.82
-7355.51
-7355.17
-7354.8
-7354.42
-7354.02
-7353.61
-7353.21
-7352.82
-7352.45
-7352.11
-7351.8
-7351.55
-7351.34
-7351.19
-7351.1
-7351.08
-7351.12
-7351.22
-7351.39
-7351.62
-7351.9
-7352.22
-7352.58
-7352.97
-7353.37
-7353.77
-7354.15
-7354.51
-7354.83
-7355.1
-7355.32
-7355.46
-7355.53
-7355.53
-7355.45
-7355.3
-7355.08
-7354.8
-7354.48
-7354.13
-7353.77
-7353.4
-7353.06
-7352.75
-7352.5
-7352.3
-7352.18
-7352.14
-7352.18
-7352.29
-7352.46
-7352.7
-7352.97
-7353.27
-7353.58
-7353.86
-7354.12
-7354.32
-7354.46
-7354.53
-7354.52
-7354.45
-7354.32
-7354.14
-7353.93
-7353.71
-7353.51
-7353.33
-7353.19
-7353.11
-7353.1
-7353.14
-7353.23
-7353.36
-7353.51
-7353.67
-7353.82
-7353.95
-7354.03
-7354.07
-7354.06
-7354.01
-7353.92
-7353.81
-7353.68
-7353.56
-7353.46
-7353.37
-7353.32
-7353.29
-7353.3
-7353.34
-7353.4
-7353.47
-7353.55
-7353.63
-7353.7
-7353.75
-7353.79
-7353.81
-7353.81
-7353.8
-7353.77
-7353.74
-7353.7
-7353.67
-7353.64
-7353.62
-7353.6
-7353.6
-7353.6
-7353.61
-7353.62
-7353.63
-7353.64
-7353.65
-7732.91
-7733.14
-7733.63
-7734.42
-7735.54
-7736.94
-7738.38
-7740.49
-7744.66
-7747.17
-7749.52
-7751.58
-7753.33
-7754.8
-7756.02
-7757.03
-7757.87
-7758.51
-7758.94
-7759.14
-7759.06
-7758.69
-7758.05
-7757.12
-7755.89
-7754.37
-7752.55
-7749.79
-7748.03
-7746.56
-7745.37
-7744.41
-7743.59
-7742.89
-7742.28
-7741.73
-7741.25
-7740.81
-7740.41
-7740.06
-7739.75
-7739.47
-7739.24
-7739.04
-7738.88
-7738.75
-7738.67
-7738.62
-7738.61
-7738.64
-7738.71
-7738.82
-7738.96
-7739.15
-7739.36
-7739.62
-7739.9
-7740.22
-7740.56
-7740.93
-7741.31
-7741.72
-7742.13
-7742.56
-7742.99
-7743.41
-7743.83
-7744.24
-7744.62
-7744.99
-7745.32
-7745.62
-7745.88
-7746.1
-7746.27
-7746.39
-7746.45
-7746.46
-7746.41
-7746.31
-7746.15
-7745.93
-7745.66
-7745.34
-7744.97
-7744.57
-7744.14
-7743.69
-7743.22
-7742.74
-7742.27
-7741.82
-7741.39
-7741
-7740.65
-7740.35
-7740.11
-7739.94
-7739.84
-7739.82
-7739.88
-7740.01
-7740.21
-7740.48
-7740.81
-7741.2
-7741.62
-7742.08
-7742.55
-7743.01
-7743.46
-7743.88
-7744.26
-7744.57
-7744.82
-7744.98
-7745.06
-7745.05
-7744.95
-7744.76
-7744.5
-7744.17
-7743.79
-7743.38
-7742.95
-7742.53
-7742.13
-7741.77
-7741.48
-7741.26
-7741.12
-7741.08
-7741.13
-7741.26
-7741.48
-7741.76
-7742.08
-7742.43
-7742.79
-7743.13
-7743.42
-7743.65
-7743.81
-7743.88
-7743.87
-7743.78
-7743.62
-7743.4
-7743.15
-7742.89
-7742.65
-7742.44
-7742.29
-7742.2
-7742.18
-7742.23
-7742.34
-7742.5
-7742.68
-7742.87
-7743.05
-7743.19
-7743.28
-7743.33
-7743.31
-7743.25
-7743.15
-7743.02
-7742.87
-7742.74
-7742.61
-7742.52
-7742.46
-7742.44
-7742.45
-7742.49
-7742.56
-7742.65
-7742.74
-7742.82
-7742.9
-7742.96
-7743
-7743.02
-7743.02
-7743
-7742.97
-7742.93
-7742.89
-7742.85
-7742.82
-7742.8
-7742.78
-7742.78
-7742.78
-7742.79
-7742.81
-7742.82
-7742.83
-7742.84
-8071.26
-8071.34
-8071.49
-8071.68
-8071.89
-8072.19
-8072.45
-8072.9
-8089.12
-8088.63
-8088.3
-8087.81
-8087.3
-8086.77
-8086.27
-8085.77
-8085.31
-8084.88
-8084.48
-8084.11
-8083.78
-8083.49
-8083.23
-8083.01
-8082.82
-8082.67
-8082.57
-8082.5
-8082.47
-8082.49
-8082.55
-8082.65
-8082.8
-8082.98
-8083.21
-8083.48
-8083.78
-8084.13
-8084.5
-8084.91
-8085.34
-8085.79
-8086.27
-8086.75
-8087.25
-8087.74
-8088.24
-8088.72
-8089.19
-8089.64
-8090.06
-8090.45
-8090.79
-8091.1
-8091.34
-8091.54
-8091.67
-8091.75
-8091.75
-8091.69
-8091.57
-8091.38
-8091.13
-8090.81
-8090.44
-8090.02
-8089.56
-8089.06
-8088.54
-8088
-8087.45
-8086.91
-8086.39
-8085.9
-8085.45
-8085.05
-8084.72
-8084.45
-8084.26
-8084.15
-8084.13
-8084.2
-8084.36
-8084.6
-8084.92
-8085.31
-8085.75
-8086.25
-8086.77
-8087.31
-8087.85
-8088.37
-8088.85
-8089.27
-8089.63
-8089.91
-8090.09
-8090.17
-8090.15
-8090.03
-8089.81
-8089.51
-8089.13
-8088.69
-8088.21
-8087.72
-8087.23
-8086.77
-8086.37
-8086.03
-8085.78
-8085.63
-8085.59
-8085.65
-8085.82
-8086.07
-8086.4
-8086.77
-8087.18
-8087.59
-8087.97
-8088.31
-8088.57
-8088.74
-8088.82
-8088.8
-8088.69
-8088.5
-8088.24
-8087.95
-8087.65
-8087.37
-8087.13
-8086.95
-8086.85
-8086.84
-8086.9
-8087.04
-8087.22
-8087.44
-8087.66
-8087.86
-8088.02
-8088.12
-8088.17
-8088.15
-8088.07
-8087.95
-8087.8
-8087.64
-8087.49
-8087.35
-8087.25
-8087.18
-8087.16
-8087.18
-8087.23
-8087.31
-8087.4
-8087.5
-8087.6
-8087.68
-8087.75
-8087.79
-8087.81
-8087.81
-8087.79
-8087.75
-8087.71
-8087.66
-8087.62
-8087.58
-8087.56
-8087.54
-8087.54
-8087.54
-8087.56
-8087.57
-8087.59
-8087.6
-8087.61
-8369.7
-8369.71
-8369.73
-8369.75
-8369.82
-8370.1
-8370.41
-8370.7
-8392.53
-8392.21
-8391.94
-8391.6
-8391.2
-8390.78
-8390.37
-8389.96
-8389.56
-8389.18
-8388.83
-8388.49
-8388.18
-8387.91
-8387.66
-8387.45
-8387.28
-8387.15
-8387.06
-8387.01
-8387
-8387.04
-8387.13
-8387.27
-8387.45
-8387.67
-8387.94
-8388.26
-8388.62
-8389.02
-8389.45
-8389.92
-8390.42
-8390.94
-8391.48
-8392.04
-8392.61
-8393.17
-8393.74
-8394.29
-8394.82
-8395.33
-8395.81
-8396.25
-8396.64
-8396.98
-8397.26
-8397.48
-8397.63
-8397.71
-8397.71
-8397.64
-8397.5
-8397.28
-8396.99
-8396.63
-8396.21
-8395.73
-8395.2
-8394.64
-8394.04
-8393.43
-8392.82
-8392.21
-8391.62
-8391.07
-8390.56
-8390.11
-8389.74
-8389.44
-8389.23
-8389.12
-8389.1
-8389.19
-8389.37
-8389.65
-8390.01
-8390.46
-8390.97
-8391.53
-8392.13
-8392.74
-8393.35
-8393.93
-8394.47
-8394.95
-8395.35
-8395.66
-8395.86
-8395.95
-8395.92
-8395.78
-8395.52
-8395.17
-8394.74
-8394.24
-8393.69
-8393.13
-8392.58
-8392.07
-8391.61
-8391.23
-8390.96
-8390.8
-8390.75
-8390.83
-8391.02
-8391.32
-8391.69
-8392.12
-8392.59
-8393.05
-8393.48
-8393.86
-8394.15
-8394.34
-8394.42
-8394.39
-8394.26
-8394.03
-8393.74
-8393.41
-8393.06
-8392.74
-8392.47
-8392.27
-8392.16
-8392.15
-8392.23
-8392.39
-8392.6
-8392.85
-8393.1
-8393.32
-8393.5
-8393.62
-8393.67
-8393.64
-8393.56
-8393.42
-8393.25
-8393.07
-8392.9
-8392.74
-8392.63
-8392.56
-8392.54
-8392.56
-8392.62
-8392.71
-8392.81
-8392.93
-8393.03
-8393.12
-8393.19
-8393.24
-8393.26
-8393.25
-8393.23
-8393.19
-8393.14
-8393.09
-8393.04
-8393
-8392.97
-8392.96
-8392.95
-8392.96
-8392.98
-8393
-8393.02
-8393.03
-8393.04
-8634.73
-8634.79
-8634.94
-8635.17
-8635.36
-8635.22
-8635.18
-8635.26
-8661.37
-8661.18
-8661
-8660.75
-8660.45
-8660.11
-8659.77
-8659.41
-8659.06
-8658.71
-8658.38
-8658.06
-8657.77
-8657.51
-8657.27
-8657.08
-8656.91
-8656.79
-8656.72
-8656.68
-8656.7
-8656.76
-8656.88
-8657.04
-8657.26
-8657.52
-8657.84
-8658.2
-8658.61
-8659.07
-8659.56
-8660.09
-8660.65
-8661.24
-8661.86
-8662.48
-8663.12
-8663.76
-8664.39
-8665.01
-8665.6
-8666.17
-8666.71
-8667.19
-8667.63
-8668.01
-8668.32
-8668.56
-8668.72
-8668.81
-8668.81
-8668.73
-8668.56
-8668.32
-8667.99
-8667.58
-8667.11
-8666.57
-8665.98
-8665.35
-8664.69
-8664.01
-8663.32
-8662.64
-8661.99
-8661.37
-8660.81
-8660.31
-8659.9
-8659.57
-8659.34
-8659.22
-8659.21
-8659.31
-8659.52
-8659.84
-8660.25
-8660.75
-8661.33
-8661.96
-8662.63
-8663.31
-8663.99
-8664.64
-8665.24
-8665.78
-8666.22
-8666.56
-8666.78
-8666.87
-8666.83
-8666.66
-8666.37
-8665.98
-8665.48
-8664.92
-8664.31
-8663.69
-8663.07
-8662.5
-8661.99
-8661.58
-8661.28
-8661.1
-8661.06
-8661.15
-8661.38
-8661.71
-8662.13
-8662.62
-8663.14
-8663.66
-8664.14
-8664.55
-8664.87
-8665.08
-8665.17
-8665.13
-8664.97
-8664.71
-8664.38
-8664
-8663.61
-8663.25
-8662.95
-8662.73
-8662.62
-8662.61
-8662.7
-8662.88
-8663.12
-8663.4
-8663.68
-8663.93
-8664.13
-8664.26
-8664.3
-8664.27
-8664.18
-8664.02
-8663.83
-8663.63
-8663.44
-8663.28
-8663.16
-8663.08
-8663.06
-8663.09
-8663.15
-8663.25
-8663.37
-8663.49
-8663.6
-8663.7
-8663.78
-8663.82
-8663.84
-8663.83
-8663.81
-8663.76
-8663.71
-8663.65
-8663.6
-8663.56
-8663.53
-8663.51
-8663.51
-8663.52
-8663.54
-8663.56
-8663.58
-8663.6
-8663.61
-8869.22
-8869.23
-8869.23
-8869.19
-8869.2
-8869.32
-8869.37
-8869.42
-8899.74
-8899.58
-8899.44
-8899.25
-8899.01
-8898.72
-8898.42
-8898.1
-8897.77
-8897.45
-8897.13
-8896.83
-8896.54
-8896.29
-8896.06
-8895.87
-8895.71
-8895.6
-8895.53
-8895.52
-8895.55
-8895.63
-8895.77
-8895.97
-8896.22
-8896.52
-8896.88
-8897.29
-8897.75
-8898.26
-8898.81
-8899.4
-8900.03
-8900.68
-8901.36
-8902.06
-8902.76
-8903.47
-8904.16
-8904.85
-8905.51
-8906.14
-8906.72
-8907.26
-8907.74
-8908.15
-8908.49
-8908.75
-8908.93
-8909.02
-8909.02
-8908.93
-8908.74
-8908.47
-8908.1
-8907.65
-8907.12
-8906.53
-8905.88
-8905.18
-8904.45
-8903.69
-8902.94
-8902.19
-8901.47
-8900.8
-8900.18
-8899.64
-8899.18
-8898.83
-8898.58
-8898.45
-8898.45
-8898.56
-8898.8
-8899.16
-8899.62
-8900.17
-8900.81
-8901.51
-8902.25
-8903
-8903.75
-8904.47
-8905.13
-8905.72
-8906.2
-8906.57
-8906.8
-8906.9
-8906.85
-8906.66
-8906.33
-8905.89
-8905.34
-8904.72
-8904.05
-8903.36
-8902.68
-8902.05
-8901.49
-8901.04
-8900.71
-8900.53
-8900.49
-8900.6
-8900.85
-8901.22
-8901.7
-8902.24
-8902.81
-8903.38
-8903.91
-8904.36
-8904.71
-8904.93
-8905.02
-8904.97
-8904.79
-8904.5
-8904.13
-8903.71
-8903.27
-8902.88
-8902.55
-8902.31
-8902.19
-8902.18
-8902.29
-8902.49
-8902.76
-8903.07
-8903.38
-8903.65
-8903.87
-8904.01
-8904.06
-8904.02
-8903.91
-8903.74
-8903.53
-8903.32
-8903.11
-8902.93
-8902.8
-8902.72
-8902.7
-8902.73
-8902.81
-8902.92
-8903.04
-8903.17
-8903.29
-8903.4
-8903.48
-8903.53
-8903.54
-8903.53
-8903.5
-8903.45
-8903.4
-8903.34
-8903.28
-8903.24
-8903.21
-8903.19
-8903.19
-8903.2
-8903.22
-8903.24
-8903.27
-8903.28
-8903.29
-9076.91
-9076.92
-9076.93
-9076.93
-9076.95
-9076.99
-9077.02
-9077.05
-9111.02
-9110.92
-9110.78
-9110.61
-9110.39
-9110.13
-9109.85
-9109.55
-9109.23
-9108.92
-9108.61
-9108.31
-9108.03
-9107.77
-9107.55
-9107.36
-9107.21
-9107.1
-9107.04
-9107.04
-9107.08
-9107.19
-9107.35
-9107.57
-9107.86
-9108.2
-9108.59
-9109.05
-9109.56
-9110.12
-9110.73
-9111.38
-9112.06
-9112.78
-9113.53
-9114.29
-9115.06
-9115.83
-9116.59
-9117.34
-9118.06
-9118.74
-9119.38
-9119.96
-9120.48
-9120.93
-9121.3
-9121.59
-9121.78
-9121.87
-9121.87
-9121.76
-9121.55
-9121.25
-9120.84
-9120.35
-9119.77
-9119.12
-9118.41
-9117.65
-9116.85
-9116.03
-9115.2
-9114.39
-9113.6
-9112.87
-9112.2
-9111.61
-9111.12
-9110.74
-9110.48
-9110.34
-9110.34
-9110.47
-9110.74
-9111.13
-9111.64
-9112.25
-9112.95
-9113.71
-9114.52
-9115.34
-9116.16
-9116.94
-9117.66
-9118.29
-9118.82
-9119.21
-9119.46
-9119.56
-9119.5
-9119.29
-9118.93
-9118.44
-9117.84
-9117.16
-9116.42
-9115.67
-9114.93
-9114.25
-9113.64
-9113.15
-9112.8
-9112.6
-9112.57
-9112.7
-9112.98
-9113.39
-9113.91
-9114.5
-9115.13
-9115.75
-9116.32
-9116.81
-9117.19
-9117.43
-9117.52
-9117.46
-9117.25
-9116.93
-9116.52
-9116.06
-9115.58
-9115.15
-9114.79
-9114.53
-9114.4
-9114.4
-9114.53
-9114.75
-9115.05
-9115.39
-9115.73
-9116.02
-9116.26
-9116.41
-9116.46
-9116.42
-9116.29
-9116.1
-9115.88
-9115.64
-9115.42
-9115.23
-9115.09
-9115.01
-9114.99
-9115.02
-9115.11
-9115.22
-9115.36
-9115.5
-9115.63
-9115.74
-9115.82
-9115.87
-9115.89
-9115.88
-9115.84
-9115.79
-9115.73
-9115.66
-9115.61
-9115.56
-9115.53
-9115.51
-9115.51
-9115.52
-9115.54
-9115.57
-9115.59
-9115.61
-9115.63
-9260.91
-9260.92
-9260.92
-9260.93
-9260.95
-9260.97
-9260.98
-9261
-9298.26
-9298.19
-9298.06
-9297.9
-9297.69
-9297.44
-9297.16
-9296.87
-9296.56
-9296.24
-9295.93
-9295.63
-9295.35
-9295.09
-9294.86
-9294.67
-9294.52
-9294.42
-9294.37
-9294.37
-9294.43
-9294.55
-9294.74
-9294.99
-9295.3
-9295.67
-9296.11
-9296.6
-9297.16
-9297.77
-9298.43
-9299.14
-9299.88
-9300.66
-9301.47
-9302.29
-9303.13
-9303.96
-9304.78
-9305.59
-9306.37
-9307.11
-9307.79
-9308.42
-9308.98
-9309.47
-9309.86
-9310.16
-9310.37
-9310.47
-9310.46
-9310.34
-9310.11
-9309.78
-9309.34
-9308.8
-9308.18
-9307.47
-9306.7
-9305.87
-9305.01
-9304.12
-9303.23
-9302.35
-9301.51
-9300.72
-9300
-9299.37
-9298.84
-9298.43
-9298.15
-9298.01
-9298.02
-9298.16
-9298.46
-9298.88
-9299.44
-9300.1
-9300.86
-9301.69
-9302.56
-9303.45
-9304.33
-9305.17
-9305.95
-9306.63
-9307.19
-9307.61
-9307.88
-9307.98
-9307.91
-9307.67
-9307.28
-9306.75
-9306.09
-9305.35
-9304.56
-9303.74
-9302.95
-9302.21
-9301.56
-9301.04
-9300.66
-9300.46
-9300.42
-9300.57
-9300.88
-9301.33
-9301.89
-9302.53
-9303.21
-9303.88
-9304.5
-9305.03
-9305.43
-9305.68
-9305.78
-9305.7
-9305.48
-9305.12
-9304.67
-9304.17
-9303.65
-9303.19
-9302.8
-9302.53
-9302.39
-9302.39
-9302.53
-9302.78
-9303.11
-9303.47
-9303.84
-9304.16
-9304.41
-9304.56
-9304.62
-9304.57
-9304.43
-9304.23
-9303.99
-9303.73
-9303.49
-9303.29
-9303.15
-9303.06
-9303.04
-9303.08
-9303.17
-9303.3
-9303.44
-9303.59
-9303.73
-9303.85
-9303.93
-9303.98
-9304
-9303.99
-9303.95
-9303.89
-9303.82
-9303.76
-9303.7
-9303.65
-9303.61
-9303.6
-9303.6
-9303.61
-9303.63
-9303.66
-9303.69
-9303.71
-9303.72
-9423.91
-9423.91
-9423.92
-9423.92
-9423.93
-9423.95
-9423.95
-9423.97
-9464.19
-9464.13
-9464.01
-9463.85
-9463.64
-9463.39
-9463.12
-9462.82
-9462.5