/*--------------------------------*- C++ -*----------------------------------*\
  =========                 |
  \\      /  F ield         | OpenFOAM: The Open Source CFD Toolbox
   \\    /   O peration     | Website:  https://openfoam.org
    \\  /    A nd           | Version:  12
     \\/     M anipulation  |
\*---------------------------------------------------------------------------*/
FoamFile
{
    format      ascii;
    class       volScalarField;
    location    "9";
    object      p_rgh;
}
// * * * * * * * * * * * * * * * * * * * * * * * * * * * * * * * * * * * * * //

dimensions      [1 -1 -2 0 0 0 0];

internalField   nonuniform List<scalar> 
3829
(
-3.75141
-3.7502
-3.74773
-3.74395
-3.73879
-3.73218
-3.72405
-3.7143
-3.70287
-3.68966
-3.67456
-3.65746
-3.63826
-3.61683
-3.59305
-3.56681
-3.53798
-3.50645
-3.47212
-3.43491
-3.39473
-3.35152
-3.30525
-3.25589
-3.20345
-3.14796
-3.08949
-3.02811
-2.96395
-2.89714
-2.82786
-2.7563
-2.68268
-2.60726
-2.53029
-2.45205
-2.37285
-2.29298
-2.21278
-2.13257
-2.05268
-1.97347
-1.89527
-1.81841
-1.74382
-1.67151
-1.60175
-1.53481
-1.47095
-1.41039
-1.35332
-1.2999
-1.25025
-1.20447
-1.16259
-1.12464
-1.09059
-1.06041
-1.03399
-1.0112
-0.991869
-0.975755
-0.962584
-0.952037
-0.943754
-0.937337
-0.932358
-0.928364
-0.924882
-0.921427
-0.917612
-0.912688
-0.906303
-0.897986
-0.887295
-0.873828
-0.857235
-0.837216
-0.813555
-0.786144
-0.754114
-0.718008
-0.678039
-0.634426
-0.587431
-0.537396
-0.484778
-0.430117
-0.374034
-0.317219
-0.260553
-0.204812
-0.150859
-0.0995563
-0.0517644
-0.00831718
0.0300233
0.0625673
0.0887341
0.108102
0.120413
0.124961
0.12211
0.112216
0.0957109
0.0731781
0.0454032
0.0133537
-0.0218377
-0.0589085
-0.0981615
-0.135023
-0.169774
-0.201057
-0.227619
-0.248382
-0.262474
-0.269282
-0.268496
-0.259603
-0.243234
-0.22004
-0.19088
-0.156928
-0.119605
-0.0805408
-0.0414274
-0.00411013
0.0297383
0.0585523
0.0809781
0.0959704
0.10287
0.101454
0.0917823
0.0747212
0.0513409
0.0230865
-0.0083264
-0.041007
-0.0730394
-0.102509
-0.127809
-0.147622
-0.161078
-0.167823
-0.167882
-0.162091
-0.151563
-0.137743
-0.118084
-0.102898
-0.0895254
-0.0794025
-0.0735635
-0.0725154
-0.0767726
-0.0852539
-0.0969897
-0.110579
-0.124371
-0.136702
-0.145946
-0.150942
-0.150878
-0.145497
-0.135017
-0.120341
-0.102609
-0.0829379
-0.0641667
-0.0474592
-0.0342398
-0.0256482
-0.0226142
-0.0250083
-0.0324907
-0.0445085
-0.0597936
-0.0768809
-0.0943775
-0.110913
-0.125271
-0.136545
-0.144091
-0.147844
-0.147979
-0.145022
-0.139686
-0.132778
-0.125414
-0.118237
-0.111918
-0.106884
-0.103308
-0.101201
-0.10024
-0.100062
-0.100254
-0.100459
-3.86342
-3.86255
-3.86076
-3.85799
-3.85418
-3.84922
-3.843
-3.83539
-3.82622
-3.81532
-3.8025
-3.78758
-3.77037
-3.7507
-3.72837
-3.70317
-3.67489
-3.64333
-3.60829
-3.5696
-3.52712
-3.48073
-3.43037
-3.37598
-3.31759
-3.25525
-3.18905
-3.11913
-3.04569
-2.96894
-2.88913
-2.8065
-2.72135
-2.63404
-2.54494
-2.45446
-2.36303
-2.2711
-2.1791
-2.08747
-1.99662
-1.90695
-1.81882
-1.73254
-1.64998
-1.57086
-1.49542
-1.42391
-1.35656
-1.29359
-1.23517
-1.18145
-1.13252
-1.08848
-1.04934
-1.0151
-0.985703
-0.961059
-0.941013
-0.925358
-0.913829
-0.906098
-0.901788
-0.900471
-0.901676
-0.904889
-0.909557
-0.915097
-0.920903
-0.926444
-0.930935
-0.933844
-0.934567
-0.932523
-0.927168
-0.917998
-0.904584
-0.886564
-0.863648
-0.835609
-0.802397
-0.76398
-0.720528
-0.672281
-0.619583
-0.562914
-0.502885
-0.44021
-0.375703
-0.30967
-0.24425
-0.179857
-0.117581
-0.0584967
-0.00367177
0.0458606
0.0891676
0.125406
0.153878
0.173994
0.185353
0.187672
0.181177
0.166186
0.143211
0.113023
0.0766272
0.0352308
-0.00978558
-0.0569097
-0.104539
-0.150775
-0.194005
-0.232631
-0.265169
-0.29033
-0.307074
-0.314665
-0.312728
-0.301154
-0.280445
-0.251364
-0.215085
-0.173123
-0.127282
-0.0795956
-0.0319182
0.0130599
0.0535774
0.0877453
0.113984
0.131106
0.138271
0.134662
0.12128
0.0991034
0.0695444
0.0344186
-0.00413267
-0.0437832
-0.0821239
-0.116945
-0.146268
-0.168545
-0.182738
-0.188353
-0.1859
-0.17633
-0.161225
-0.142579
-0.117633
-0.0981651
-0.0811999
-0.068623
-0.0617144
-0.0610967
-0.0666969
-0.0777139
-0.0927864
-0.110088
-0.127548
-0.143117
-0.154798
-0.161207
-0.161424
-0.155167
-0.142933
-0.125727
-0.105022
-0.0821053
-0.0604679
-0.0413564
-0.0264439
-0.0169999
-0.0138519
-0.0169535
-0.025828
-0.0397087
-0.0571603
-0.0763866
-0.0958409
-0.113981
-0.129473
-0.141337
-0.149013
-0.152408
-0.151813
-0.147883
-0.141468
-0.133509
-0.125223
-0.117341
-0.110582
-0.105386
-0.101912
-0.100032
-0.0994274
-0.099631
-0.100138
-0.100521
-4.03765
-4.03783
-4.03816
-4.03858
-4.03897
-4.03918
-4.03901
-4.03818
-4.03642
-4.03337
-4.02867
-4.02197
-4.01282
-4.00074
-3.98523
-3.96581
-3.94201
-3.91342
-3.87962
-3.8403
-3.79514
-3.74394
-3.68654
-3.62288
-3.55298
-3.47695
-3.39498
-3.30737
-3.21447
-3.11672
-3.01464
-2.90881
-2.79986
-2.6884
-2.57505
-2.46044
-2.34526
-2.23018
-2.11588
-2.00303
-1.89232
-1.78442
-1.68003
-1.57993
-1.48233
-1.38993
-1.30311
-1.22223
-1.14761
-1.07949
-1.01806
-0.963477
-0.91582
-0.875127
-0.841377
-0.814487
-0.79432
-0.780648
-0.773151
-0.771435
-0.775053
-0.78349
-0.796168
-0.812443
-0.831632
-0.853008
-0.875788
-0.89916
-0.922288
-0.944328
-0.964433
-0.981766
-0.995509
-1.0049
-1.00921
-1.00779
-1.00007
-0.985558
-0.963912
-0.934816
-0.898448
-0.854743
-0.803881
-0.746191
-0.682178
-0.61254
-0.538143
-0.459993
-0.379199
-0.296954
-0.21475
-0.133926
-0.0559499
0.0177381
0.085702
0.146553
0.199029
0.242003
0.274561
0.295978
0.305632
0.30355
0.28987
0.265005
0.229698
0.185068
0.132534
0.0737646
0.0106555
-0.0547082
-0.120063
-0.183156
-0.241734
-0.29366
-0.336976
-0.37001
-0.391407
-0.400187
-0.395805
-0.378643
-0.349251
-0.308772
-0.258918
-0.2018
-0.139911
-0.0759828
-0.0129509
0.0462823
0.0989948
0.142769
0.175676
0.196543
0.205402
0.195851
0.174946
0.143027
0.101839
0.0538354
0.00195897
-0.0506231
-0.100621
-0.14515
-0.181675
-0.208291
-0.223769
-0.226726
-0.218993
-0.201949
-0.177785
-0.149096
-0.116786
-0.0884479
-0.0645745
-0.0474669
-0.0386858
-0.0389058
-0.0475268
-0.0636282
-0.0851453
-0.109483
-0.133818
-0.155338
-0.171442
-0.180346
-0.180934
-0.172999
-0.157325
-0.135356
-0.109135
-0.0803416
-0.053502
-0.0300826
-0.0121748
-0.00128636
0.00188567
-0.00264883
-0.0141329
-0.0314218
-0.0528
-0.07584
-0.098746
-0.11968
-0.137104
-0.14995
-0.15773
-0.160397
-0.158438
-0.152738
-0.144385
-0.13457
-0.124673
-0.115581
-0.108087
-0.102647
-0.0993666
-0.0979845
-0.0980657
-0.0989777
-0.100064
-0.100776
-4.18976
-4.19257
-4.1982
-4.20658
-4.21752
-4.23075
-4.24588
-4.26237
-4.27962
-4.29684
-4.31307
-4.32715
-4.338
-4.34471
-4.34642
-4.34224
-4.33122
-4.31248
-4.28518
-4.2486
-4.20213
-4.14532
-4.07791
-3.99981
-3.91117
-3.81234
-3.70388
-3.58654
-3.46122
-3.3289
-3.19048
-3.0469
-2.89922
-2.74858
-2.59616
-2.44307
-2.2904
-2.13919
-1.9904
-1.84497
-1.70374
-1.56747
-1.43686
-1.31239
-1.19423
-1.08673
-0.988607
-0.899677
-0.819971
-0.749585
-0.688629
-0.637201
-0.595363
-0.563094
-0.5403
-0.526797
-0.522302
-0.52642
-0.538662
-0.558437
-0.585072
-0.6178
-0.655776
-0.698075
-0.743714
-0.791643
-0.840771
-0.889959
-0.938051
-0.983874
-1.02626
-1.06407
-1.09619
-1.12158
-1.13929
-1.14847
-1.1484
-1.13849
-1.11828
-1.08675
-1.04485
-0.992502
-0.929958
-0.857724
-0.776586
-0.687539
-0.591816
-0.490845
-0.3862
-0.279603
-0.173001
-0.0683191
0.0324208
0.127231
0.21415
0.291295
0.356945
0.409579
0.447899
0.470864
0.477801
0.468823
0.444198
0.404578
0.351102
0.285361
0.209345
0.125391
0.0361459
-0.0555137
-0.146465
-0.233651
-0.314015
-0.384687
-0.443079
-0.487016
-0.514815
-0.52514
-0.516351
-0.490139
-0.447441
-0.389966
-0.320111
-0.240852
-0.155672
-0.0683541
0.0169724
0.0964265
0.166229
0.223054
0.264104
0.287165
0.290363
0.279229
0.249461
0.203921
0.145873
0.0791583
0.00800885
-0.0632435
-0.129813
-0.187901
-0.234182
-0.266474
-0.284455
-0.281825
-0.265853
-0.237712
-0.200357
-0.157486
-0.112581
-0.072016
-0.0385447
-0.0152657
-0.00412874
-0.00585724
-0.0194632
-0.0433577
-0.0744828
-0.109157
-0.143473
-0.173377
-0.195695
-0.207956
-0.208845
-0.19827
-0.177435
-0.148535
-0.114405
-0.0774945
-0.0433778
-0.0140396
0.00787992
0.0206067
0.0235448
0.016794
0.00154708
-0.020554
-0.0473929
-0.075635
-0.103191
-0.127825
-0.147745
-0.161788
-0.169526
-0.171058
-0.167138
-0.158968
-0.147959
-0.135636
-0.123593
-0.112926
-0.104519
-0.0988304
-0.0958814
-0.0952668
-0.0963438
-0.0982684
-0.100175
-0.101348
-4.26497
-4.27306
-4.28936
-4.31381
-4.34622
-4.38619
-4.43301
-4.4855
-4.54223
-4.60148
-4.66141
-4.72
-4.77509
-4.82418
-4.86479
-4.89466
-4.91178
-4.91444
-4.90121
-4.87101
-4.82305
-4.75687
-4.67227
-4.56942
-4.44887
-4.3116
-4.15899
-3.99278
-3.81487
-3.62704
-3.43105
-3.22895
-3.02278
-2.81448
-2.60586
-2.39862
-2.19432
-1.9944
-1.80015
-1.61276
-1.43337
-1.26292
-1.10235
-0.952572
-0.814604
-0.691219
-0.579324
-0.479792
-0.393173
-0.319813
-0.25991
-0.21352
-0.180583
-0.160927
-0.154251
-0.16012
-0.177956
-0.207069
-0.24668
-0.295898
-0.353743
-0.41912
-0.490844
-0.567624
-0.64809
-0.730818
-0.814304
-0.89701
-0.977347
-1.05372
-1.12459
-1.18842
-1.24374
-1.28918
-1.32345
-1.34543
-1.35422
-1.34909
-1.32966
-1.29387
-1.24375
-1.17912
-1.10036
-1.00824
-0.903903
-0.78874
-0.664478
-0.533109
-0.396815
-0.257981
-0.119246
0.0167376
0.147215
0.269492
0.380935
0.479066
0.561655
0.626723
0.672707
0.698296
0.700105
0.681126
0.641513
0.582138
0.504576
0.41101
0.30417
0.187268
0.0639349
-0.0619704
-0.186067
-0.304271
-0.412488
-0.506881
-0.584053
-0.641298
-0.676979
-0.691211
-0.673147
-0.633949
-0.573303
-0.493211
-0.396908
-0.288489
-0.172746
-0.0549011
0.0594093
0.164954
0.256678
0.330188
0.381931
0.409419
0.411478
0.390396
0.345874
0.281023
0.200181
0.108594
0.0120902
-0.0833033
-0.171163
-0.246344
-0.304241
-0.341363
-0.354979
-0.35097
-0.325337
-0.282581
-0.227709
-0.166202
-0.103883
-0.0476039
-0.0020128
0.0288178
0.0424089
0.0381214
0.017342
-0.0172303
-0.0612426
-0.109559
-0.156824
-0.197568
-0.22763
-0.243877
-0.244815
-0.230426
-0.202669
-0.164686
-0.120346
-0.0733224
-0.0300666
0.00654101
0.0332502
0.0480039
0.0503082
0.0405106
0.0203629
-0.00783103
-0.0414917
-0.0761105
-0.109283
-0.138297
-0.161083
-0.176383
-0.183849
-0.183814
-0.177362
-0.16609
-0.15181
-0.136453
-0.121855
-0.109356
-0.099943
-0.0940644
-0.0916241
-0.0920427
-0.0944127
-0.0976298
-0.100575
-0.10233
-3.98336
-4.00233
-4.04045
-4.09739
-4.17234
-4.26357
-4.36923
-4.4868
-4.61362
-4.74616
-4.88097
-5.01422
-5.14235
-5.26184
-5.36937
-5.46183
-5.53629
-5.58998
-5.62017
-5.62413
-5.59919
-5.54287
-5.45329
-5.32975
-5.17309
-4.98533
-4.76971
-4.5301
-4.27092
-3.99695
-3.71333
-3.42423
-3.13325
-2.84345
-2.55751
-2.27778
-2.00636
-1.74503
-1.49535
-1.25863
-1.03597
-0.828421
-0.636709
-0.461478
-0.303487
-0.159269
-0.035715
0.0693858
0.15662
0.226101
0.277865
0.31203
0.328793
0.328528
0.311747
0.279093
0.231368
0.169509
0.0945889
0.00780979
-0.0895011
-0.195853
-0.309662
-0.429201
-0.55266
-0.678133
-0.803655
-0.927186
-1.04664
-1.15992
-1.26502
-1.35994
-1.44274
-1.51163
-1.56498
-1.60132
-1.61938
-1.61806
-1.59636
-1.55606
-1.49547
-1.41493
-1.3153
-1.19779
-1.06401
-0.915886
-0.755769
-0.586366
-0.410628
-0.231748
-0.0532399
0.121355
0.288365
0.444203
0.585386
0.708691
0.81124
0.890644
0.945371
0.975321
0.968887
0.936986
0.878636
0.794732
0.687297
0.559267
0.414341
0.25686
0.0916967
-0.0762289
-0.240689
-0.396518
-0.538293
-0.660919
-0.759846
-0.831215
-0.871741
-0.878164
-0.859391
-0.8071
-0.72489
-0.616759
-0.487546
-0.342986
-0.189591
-0.0341035
0.115538
0.25268
0.37075
0.464068
0.528159
0.560102
0.558732
0.525417
0.461916
0.372459
0.262932
0.140353
0.0124868
-0.112225
-0.225977
-0.321683
-0.393537
-0.437422
-0.451324
-0.437967
-0.397813
-0.335849
-0.258712
-0.173935
-0.0897654
-0.0143527
0.0456943
0.0851753
0.101072
0.0928439
0.0625307
0.0142664
-0.0459671
-0.111158
-0.174353
-0.228102
-0.267213
-0.287802
-0.288198
-0.268825
-0.23241
-0.183263
-0.126543
-0.0675433
-0.0135389
0.0314287
0.0634641
0.0802856
0.081423
0.0677163
0.0415756
0.00610941
-0.0355372
-0.0775097
-0.117057
-0.150938
-0.17679
-0.193299
-0.200203
-0.198159
-0.188647
-0.173722
-0.155654
-0.136841
-0.119386
-0.104892
-0.0944479
-0.0884787
-0.0867465
-0.0884496
-0.0923902
-0.0971512
-0.101328
-0.103771
-3.42583
-3.46582
-3.54682
-3.66907
-3.83239
-4.03509
-4.27511
-4.54743
-4.84608
-5.16269
-5.48915
-5.81517
-6.13055
-6.42465
-6.68739
-6.90904
-7.08182
-7.19971
-7.25859
-7.2563
-7.19255
-7.06868
-6.88771
-6.65271
-6.36822
-6.03843
-5.6701
-5.27224
-4.85788
-4.43713
-4.01593
-3.59879
-3.18989
-2.79266
-2.4098
-2.04334
-1.69488
-1.36568
-1.05676
-0.768961
-0.503098
-0.259773
-0.0395942
0.156875
0.329197
0.481919
0.613339
0.721777
0.806854
0.868707
0.90769
0.924196
0.918776
0.892129
0.84508
0.778573
0.693683
0.591647
0.473867
0.341894
0.197439
0.0424181
-0.121134
-0.290995
-0.464849
-0.640272
-0.814736
-0.985648
-1.15035
-1.30618
-1.45056
-1.58095
-1.6949
-1.79022
-1.86484
-1.9169
-1.94484
-1.94761
-1.92416
-1.87511
-1.79985
-1.69887
-1.57327
-1.42467
-1.25517
-1.06734
-0.864254
-0.649442
-0.426761
-0.200387
0.0251363
0.245238
0.455178
0.650311
0.826124
0.978387
1.10329
1.19739
1.25769
1.28112
1.27508
1.2313
1.15177
1.03898
0.896102
0.727189
0.537176
0.331793
0.117423
-0.0996907
-0.311291
-0.510903
-0.691559
-0.846754
-0.970769
-1.05893
-1.10758
-1.11455
-1.08293
-1.01072
-0.901059
-0.758775
-0.590124
-0.402641
-0.204876
-0.00493951
0.185864
0.35963
0.507962
0.623674
0.701261
0.737228
0.730338
0.681928
0.595306
0.476186
0.332313
0.172942
0.00810784
-0.151058
-0.294781
-0.413967
-0.501422
-0.552288
-0.564595
-0.540035
-0.481712
-0.396202
-0.292247
-0.179594
-0.0694811
0.0281914
0.104737
0.153638
0.171385
0.157658
0.1154
0.050418
-0.0292472
-0.114336
-0.196398
-0.264949
-0.314158
-0.339243
-0.338306
-0.312792
-0.26597
-0.203681
-0.132619
-0.059954
0.0061361
0.0602983
0.0979883
0.116717
0.116112
0.0976405
0.0644965
0.0207139
-0.0298662
-0.0799764
-0.126465
-0.165528
-0.194518
-0.212085
-0.218118
-0.213644
-0.200597
-0.181554
-0.159289
-0.136698
-0.116174
-0.0995988
-0.0881522
-0.0822151
-0.0813901
-0.0846104
-0.0903637
-0.0968872
-0.10246
-0.105679
-1.83137
-1.90426
-2.05263
-2.27629
-2.57603
-2.94753
-3.3902
-3.88537
-4.4294
-4.97802
-5.52438
-6.03903
-6.5175
-6.94389
-7.3117
-7.62106
-7.87088
-8.06038
-8.18808
-8.25088
-8.24428
-8.16274
-8.0006
-7.75253
-7.41821
-6.99589
-6.49691
-5.93417
-5.3505
-4.7605
-4.18267
-3.62177
-3.08363
-2.57072
-2.08525
-1.62893
-1.20308
-0.808365
-0.444887
-0.11241
0.18939
0.461228
0.703761
0.917467
1.10344
1.26354
1.38724
1.4849
1.55616
1.60069
1.61852
1.60994
1.57551
1.51595
1.4322
1.32538
1.19681
1.04801
0.880695
0.696799
0.498444
0.288005
0.0680122
-0.158777
-0.38949
-0.621112
-0.8505
-1.07443
-1.2896
-1.49272
-1.68061
-1.85015
-1.99832
-2.12236
-2.21982
-2.28846
-2.32647
-2.33241
-2.30522
-2.24508
-2.15189
-2.02642
-1.87014
-1.68513
-1.47407
-1.24024
-0.987606
-0.720609
-0.444127
-0.163433
0.115675
0.387492
0.646076
0.885635
1.10054
1.28549
1.43577
1.54721
1.61638
1.6406
1.62508
1.56366
1.4581
1.31135
1.1274
0.911478
0.669902
0.409903
0.139485
-0.132839
-0.397825
-0.646685
-0.870845
-1.06229
-1.21402
-1.32032
-1.37705
-1.38209
-1.33629
-1.24041
-1.09841
-0.916377
-0.702264
-0.465604
-0.217192
0.0327863
0.270065
0.484898
0.666803
0.806996
0.898798
0.938105
0.923652
0.857182
0.743411
0.589903
0.406505
0.204979
-0.0019319
-0.20004
-0.377236
-0.522327
-0.626549
-0.684178
-0.693116
-0.655115
-0.575242
-0.462156
-0.327077
-0.18241
-0.0426901
0.0800057
0.174731
0.233573
0.252506
0.231598
0.174961
0.0903649
-0.0118302
-0.119998
-0.222383
-0.307722
-0.3679
-0.397517
-0.394768
-0.361514
-0.302574
-0.225339
-0.138224
-0.0504644
0.0287556
0.0926934
0.136161
0.156502
0.153568
0.129526
0.0884772
0.0355078
-0.0247091
-0.0835592
-0.137373
-0.181783
-0.213874
-0.232291
-0.237142
-0.229855
-0.212875
-0.189345
-0.162577
-0.135984
-0.112267
-0.0935827
-0.0811957
-0.0754268
-0.0756885
-0.0806315
-0.0883986
-0.0968602
-0.103962
-0.108027
0.620496
0.486862
0.219486
-0.18108
-0.735674
-1.41193
-2.22998
-3.15522
-4.17053
-5.19731
-6.23059
-7.22897
-8.17419
-9.04786
-9.83329
-10.5451
-11.1206
-11.5352
-11.7743
-11.8343
-11.7216
-11.4471
-11.0267
-10.4701
-9.79198
-8.99919
-8.08382
-7.03871
-6.04299
-5.12375
-4.26998
-3.48477
-2.76743
-2.11549
-1.52402
-0.987608
-0.501017
-0.0598566
0.339317
0.698879
1.0209
1.30655
1.55675
1.77235
1.95344
2.09922
2.22306
2.31289
2.36948
2.3937
2.38632
2.34807
2.27974
2.18224
2.05671
1.90442
1.72696
1.5261
1.30391
1.06269
0.805004
0.533708
0.251863
-0.0371903
-0.329981
-0.622849
-0.911976
-1.19346
-1.46329
-1.71749
-1.95222
-2.16371
-2.34831
-2.50275
-2.62409
-2.70968
-2.75747
-2.76569
-2.73275
-2.65907
-2.54492
-2.39134
-2.20017
-1.97399
-1.71621
-1.43088
-1.1229
-0.797827
-0.461649
-0.120694
0.217657
0.546453
0.85851
1.14678
1.40439
1.62499
1.80289
1.93323
2.01227
2.03761
2.00985
1.92739
1.79187
1.60668
1.37672
1.10845
0.809677
0.489287
0.157132
-0.176077
-0.499446
-0.802069
-1.0735
-1.30407
-1.48536
-1.61058
-1.67496
-1.67609
-1.61417
-1.49143
-1.31291
-1.08626
-0.821419
-0.530103
-0.225414
0.0787381
0.367169
0.626736
0.844893
1.01112
1.11749
1.15928
1.13527
1.04789
0.903302
0.711129
0.483697
0.235528
-0.0181347
-0.258827
-0.472314
-0.645159
-0.766896
-0.830823
-0.834742
-0.781024
-0.676467
-0.532147
-0.362163
-0.181892
-0.00946385
0.140528
0.254738
0.323772
0.343097
0.31334
0.240019
0.133142
0.00577933
-0.127849
-0.252637
-0.355913
-0.427588
-0.461545
-0.456098
-0.413912
-0.341357
-0.247618
-0.143101
-0.0391159
0.0539701
0.128026
0.177225
0.19881
0.192976
0.162651
0.112953
0.0500957
-0.0202217
-0.088225
-0.149578
-0.199368
-0.234442
-0.253476
-0.256849
-0.246424
-0.225199
-0.196909
-0.16544
-0.134708
-0.107749
-0.0869791
-0.0737376
-0.0682669
-0.0697713
-0.0766035
-0.0865397
-0.0970716
-0.105798
-0.110759
4.49081
4.32369
3.97917
3.44296
2.67376
1.60413
0.0825653
-1.78668
-5.17836
-7.24328
-8.84179
-10.2441
-11.4588
-12.4898
-13.3211
-13.9189
-14.3364
-14.5965
-14.722
-14.7195
-14.6135
-14.3704
-13.9861
-13.3464
-12.4661
-11.5354
-10.1861
-7.32626
-5.93043
-4.72763
-3.69882
-2.79501
-2.00297
-1.2985
-0.667266
-0.10089
0.408008
0.865115
1.27494
1.64099
1.966
2.25184
2.49992
2.71104
2.88582
3.02498
3.12921
3.1981
3.23151
3.22944
3.19215
3.12014
3.01411
2.87497
2.70391
2.50239
2.27218
2.01536
1.7343
1.43171
1.1106
0.774338
0.426551
0.0711934
-0.287621
-0.64554
-0.998029
-1.34045
-1.66806
-1.97612
-2.26009
-2.51551
-2.73807
-2.92393
-3.06959
-3.17205
-3.22909
-3.23969
-3.19811
-3.10865
-2.97097
-2.78619
-2.55656
-2.28525
-1.9764
-1.63501
-1.26697
-0.879014
-0.478475
-0.0721975
0.329725
0.719718
1.08906
1.42935
1.73247
1.99086
2.19784
2.34777
2.43636
2.46079
2.42033
2.31481
2.1464
1.9192
1.6392
1.3142
0.953608
0.568171
0.169715
-0.228801
-0.614533
-0.974398
-1.29594
-1.56773
-1.77982
-1.92432
-1.99573
-1.99131
-1.91125
-1.7588
-1.54026
-1.265
-0.945075
-0.59476
-0.229674
0.13289
0.475769
0.782792
1.03912
1.23239
1.35337
1.3967
1.3613
1.2504
1.07183
0.837382
0.562211
0.263834
-0.0404808
-0.326523
-0.578385
-0.780258
-0.919889
-0.989528
-0.986921
-0.915319
-0.783336
-0.604689
-0.396638
-0.177839
0.0297806
0.208801
0.343365
0.422576
0.44145
0.401264
0.309203
0.177774
0.0229986
-0.137919
-0.286713
-0.40875
-0.492148
-0.530097
-0.521119
-0.468896
-0.381461
-0.270012
-0.14705
-0.0260409
0.0813474
0.165632
0.22039
0.242816
0.233552
0.196348
0.13743
0.0641857
-0.0165018
-0.0938788
-0.162829
-0.217924
-0.255805
-0.275218
-0.276848
-0.26303
-0.237339
-0.204121
-0.167838
-0.132919
-0.102731
-0.0799367
-0.0659385
-0.0608841
-0.0637579
-0.0726027
-0.0848155
-0.0975059
-0.107917
-0.113807
9.81352
9.57905
9.09611
8.30675
7.1801
5.78441
4.34416
2.23504
-1.93689
-4.44918
-6.79921
-8.85345
-10.6108
-12.0746
-13.2926
-14.3106
-15.1433
-15.7834
-16.2127
-16.4146
-16.3366
-15.9703
-15.3227
-14.3919
-13.1708
-11.6423
-9.83061
-7.07003
-5.30802
-3.84032
-2.64903
-1.6903
-0.870851
-0.169471
0.445611
0.99034
1.47813
1.9163
2.31002
2.66261
2.97589
3.25082
3.48784
3.68723
3.84891
3.97263
4.05872
4.10637
4.11508
4.08474
4.01546
3.90758
3.76171
3.57875
3.35995
3.10687
2.82152
2.50622
2.16372
1.79711
1.40986
1.0059
0.58944
0.165074
-0.262401
-0.687907
-1.10616
-1.51175
-1.89915
-2.26285
-2.59755
-2.89808
-3.15943
-3.37713
-3.5471
-3.6657
-3.72985
-3.73649
-3.68997
-3.58437
-3.42138
-3.20297
-2.93203
-2.61248
-2.24925
-1.84827
-1.41655
-0.962018
-0.493218
-0.0191015
0.449983
0.904286
1.33368
1.72835
2.07884
2.37639
2.61332
2.78307
2.88073
2.90307
2.84884
2.71856
2.51497
2.24305
1.90992
1.52487
1.09905
0.645129
0.177034
-0.289957
-0.740864
-1.16036
-1.53391
-1.84821
-2.09178
-2.25557
-2.33331
-2.32193
-2.22195
-2.03745
-1.77611
-1.44914
-1.07092
-0.658266
-0.229754
0.194178
0.593853
0.950157
1.24585
1.46665
1.60199
1.64588
1.5975
1.46094
1.24581
0.966228
0.640548
0.28963
-0.0687936
-0.401799
-0.693371
-0.925036
-1.08259
-1.15728
-1.1468
-1.05545
-0.893795
-0.678417
-0.429838
-0.170251
0.0743355
0.283532
0.438915
0.528079
0.545633
0.49362
0.381114
0.223313
0.0393962
-0.150139
-0.324011
-0.46527
-0.560372
-0.601867
-0.588591
-0.525393
-0.422089
-0.292068
-0.149955
-0.0114662
0.110387
0.204816
0.264857
0.287719
0.274559
0.230029
0.16149
0.0775665
-0.0135797
-0.10038
-0.176851
-0.237088
-0.277565
-0.297126
-0.296794
-0.279401
-0.249113
-0.210891
-0.16977
-0.130687
-0.0973354
-0.0726071
-0.057953
-0.0534177
-0.0577556
-0.0686908
-0.0832419
-0.0981361
-0.11026
-0.117093
16.2266
16.1503
16.0041
15.8086
15.5973
15.3039
15.0456
14.5952
-1.6265
-1.13728
-0.808595
-0.322037
0.191041
0.725828
1.22567
1.71924
2.18221
2.61461
3.01341
3.37817
3.70831
4.00345
4.26285
4.48569
4.671
4.81776
4.92497
4.99177
5.01722
5.0006
4.94143
4.83954
4.6951
4.50861
4.28094
4.01341
3.70771
3.36603
2.99101
2.58573
2.15371
1.69889
1.22578
0.739185
0.244368
-0.253173
-0.747604
-1.23286
-1.70276
-2.15094
-2.57109
-2.95717
-3.30325
-3.60361
-3.85319
-4.04735
-4.18202
-4.254
-4.26104
-4.20289
-4.07819
-3.88775
-3.63368
-3.31935
-2.94934
-2.52942
-2.06649
-1.5687
-1.04524
-0.506002
0.0384209
0.576584
1.097
1.58802
2.03839
2.43728
2.77468
3.04182
3.23129
3.33751
3.35685
3.28789
3.13152
2.8911
2.57255
2.18422
1.73693
1.24364
0.71906
0.179236
-0.358141
-0.875873
-1.35632
-1.78285
-2.14024
-2.41545
-2.59821
-2.68154
-2.66208
-2.5407
-2.32238
-2.01623
-1.63541
-1.19677
-0.719692
-0.225753
0.261302
0.71913
1.12567
1.46122
1.70957
1.85882
1.90232
1.83966
1.6758
1.42215
1.09546
0.71737
0.313693
-0.103433
-0.48297
-0.814948
-1.0767
-1.25194
-1.33096
-1.31146
-1.19889
-1.00591
-0.752072
-0.461384
-0.159256
0.123267
0.363223
0.539533
0.638258
0.653659
0.588669
0.454405
0.268893
0.0547273
-0.164368
-0.363835
-0.52443
-0.631007
-0.675548
-0.657305
-0.582395
-0.462542
-0.313379
-0.151824
0.00431876
0.140556
0.244886
0.309863
0.332773
0.315346
0.26318
0.184809
0.0901024
-0.0114421
-0.107558
-0.191365
-0.256518
-0.299356
-0.318856
-0.316396
-0.295318
-0.260383
-0.217166
-0.171265
-0.128098
-0.091687
-0.0651343
-0.0499252
-0.0459908
-0.0518535
-0.0649161
-0.0818246
-0.0989284
-0.112764
-0.120536
23.2139
23.2014
23.1873
23.1674
23.098
22.8121
22.5102
22.2135
0.381317
0.703479
0.974739
1.31699
1.71961
2.13323
2.54475
2.95457
3.35136
3.73163
4.09079
4.4258
4.73341
5.01073
5.2552
5.4645
5.63647
5.7691
5.86052
5.9091
5.91337
5.87221
5.78483
5.65083
5.4702
5.24334
4.97113
4.65493
4.29656
3.89846
3.46355
2.99527
2.49756
1.9749
1.43233
0.875297
0.309735
-0.258142
-0.821736
-1.37419
-1.9085
-2.4175
-2.89407
-3.33138
-3.72277
-4.06181
-4.34282
-4.56064
-4.71076
-4.7897
-4.795
-4.72548
-4.58068
-4.3616
-4.07062
-3.71162
-3.28986
-2.81196
-2.28582
-1.72075
-1.12723
-0.516489
0.0993115
0.707374
1.2946
1.8478
2.35425
2.80175
3.17901
3.47618
3.68498
3.79921
3.81484
3.73037
3.54701
3.26874
2.90249
2.45783
1.9472
1.38538
0.789132
0.176721
-0.431768
-1.01687
-1.55862
-2.03824
-2.43863
-2.74513
-2.94633
-3.03448
-3.00603
-2.86221
-2.60893
-2.2568
-1.82098
-1.32071
-0.77826
-0.218041
0.332814
0.849201
1.30612
1.68142
1.95695
2.11948
2.16169
2.0838
1.89148
1.59813
1.22316
0.791197
0.330521
-0.13819
-0.567897
-0.940759
-1.23245
-1.42491
-1.50755
-1.47813
-1.34327
-1.11791
-0.824514
-0.490856
-0.145372
0.175501
0.446313
0.643339
0.751101
0.763597
0.684751
0.52783
0.313791
0.0687898
-0.180316
-0.405434
-0.585178
-0.702838
-0.749905
-0.726133
-0.639001
-0.50221
-0.333717
-0.152663
0.0209958
0.171327
0.285189
0.354714
0.377317
0.355355
0.295381
0.207124
0.101722
-0.010036
-0.115234
-0.206105
-0.275901
-0.320863
-0.340117
-0.335415
-0.31061
-0.271055
-0.222921
-0.172362
-0.125241
-0.0859061
-0.0576495
-0.0419798
-0.0387083
-0.0461245
-0.0613148
-0.0805619
-0.0998469
-0.115367
-0.124064
28.7517
28.6882
28.5454
28.306
28.1248
28.2629
28.3056
28.2234
2.11044
2.30456
2.48067
2.73079
3.0297
3.36635
3.71231
4.06853
4.42276
4.76946
5.10251
5.4171
5.70866
5.97303
6.20641
6.40536
6.56673
6.68761
6.76536
6.79763
6.78239
6.71815
6.60388
6.43896
6.22322
5.95699
5.64115
5.27712
4.86689
4.41313
3.91906
3.3885
2.82583
2.23601
1.62469
0.997932
0.362333
-0.275156
-0.907168
-1.52606
-2.12401
-2.69304
-3.22521
-3.71293
-4.14879
-4.52569
-4.83731
-5.07797
-5.24271
-5.32772
-5.33029
-5.24894
-5.08349
-4.83516
-4.50672
-4.10257
-3.62866
-3.09246
-2.50289
-1.8704
-1.20677
-0.524598
0.162473
0.840199
1.49391
2.10891
2.67099
3.16658
3.58315
3.90977
4.13731
4.25896
4.27031
4.16981
3.959
3.64253
3.22824
2.72705
2.15297
1.52261
0.854807
0.170075
-0.509196
-1.16122
-1.7637
-2.29579
-2.7385
-3.07556
-3.29445
-3.38671
-3.34858
-3.18168
-2.89291
-2.49435
-2.00326
-1.44126
-0.833417
-0.207134
0.407239
0.981729
1.48847
1.90284
2.20482
2.37997
2.42083
2.32635
2.10488
1.77137
1.34768
0.861558
0.344242
-0.175983
-0.655273
-1.06861
-1.38965
-1.59868
-1.68426
-1.64424
-1.48649
-1.22816
-0.894849
-0.518027
-0.129152
0.229939
0.531266
0.74852
0.864722
0.87368
0.780368
0.600286
0.357405
0.0813951
-0.19755
-0.44805
-0.646502
-0.774729
-0.82382
-0.794082
-0.694448
-0.540607
-0.352827
-0.1526
0.038239
0.202205
0.325136
0.398803
0.420793
0.394124
0.326311
0.228258
0.112384
-0.00928504
-0.123229
-0.220827
-0.294967
-0.341817
-0.360672
-0.353663
-0.325152
-0.281067
-0.228156
-0.173108
-0.122202
-0.0801007
-0.0502662
-0.0342224
-0.0316548
-0.0406259
-0.0579122
-0.0794474
-0.100856
-0.118014
-0.127608
33.9456
33.9376
33.9342
33.9694
33.9676
33.8433
33.7935
33.7459
3.41919
3.58115
3.7208
3.91214
4.15753
4.44202
4.74584
5.06643
5.39277
5.71801
6.03503
6.33762
6.62008
6.87721
7.10424
7.29681
7.45095
7.56307
7.62983
7.64819
7.61543
7.5299
7.39042
7.19618
6.94688
6.64279
6.28478
5.87438
5.41373
4.90576
4.354
3.76264
3.13652
2.4811
1.80258
1.10766
0.403598
-0.301928
-1.00078
-1.68455
-2.34462
-2.97219
-3.5585
-4.09523
-4.57425
-4.98776
-5.32886
-5.59133
-5.76979
-5.8601
-5.85928
-5.76572
-5.57937
-5.30171
-4.93587
-4.4868
-3.96112
-3.36717
-2.71485
-2.01576
-1.28297
-0.530408
0.226827
0.973041
1.69204
2.36763
2.98418
3.52675
3.9816
4.33676
4.58226
4.71072
4.71736
4.60061
4.36232
4.00781
3.5459
2.98877
2.35199
1.65406
0.915836
0.159888
-0.588839
-1.30645
-1.96836
-2.55165
-3.03546
-3.40204
-3.63773
-3.73344
-3.68516
-3.49495
-3.17071
-2.72603
-2.18018
-1.55715
-0.88486
-0.193604
0.483161
1.11455
1.66992
2.12225
2.44969
2.63659
2.67488
2.56406
2.31339
1.93979
1.4678
0.928179
0.355413
-0.216293
-0.743696
-1.19646
-1.54595
-1.77072
-1.85862
-1.80754
-1.62669
-1.33541
-0.962424
-0.543111
-0.110777
0.285532
0.61665
0.853433
0.977433
0.982342
0.87423
0.670852
0.399241
0.0924857
-0.215649
-0.490976
-0.707486
-0.845678
-0.896315
-0.86032
-0.7481
-0.577353
-0.370646
-0.151704
0.0557382
0.23275
0.364223
0.441622
0.462748
0.43129
0.355722
0.248105
0.12208
-0.00909698
-0.131375
-0.235321
-0.313489
-0.362003
-0.380337
-0.371003
-0.338857
-0.290386
-0.232887
-0.173553
-0.119061
-0.074364
-0.0430788
-0.0267373
-0.0248972
-0.0353998
-0.0547238
-0.07847
-0.101925
-0.120656
-0.13111
38.5778
38.5727
38.5657
38.5573
38.5375
38.4966
38.4696
38.4373
4.46983
4.57581
4.70757
4.87836
5.09874
5.35872
5.64215
5.94539
6.25821
6.57362
6.88401
7.18241
7.46228
7.71758
7.94276
8.13279
8.28305
8.38936
8.44793
8.45503
8.4066
8.30156
8.13869
7.91698
7.63596
7.29585
6.89753
6.44263
5.93349
5.37329
4.76588
4.11584
3.42843
2.7096
1.96613
1.20531
0.435061
-0.336231
-1.09968
-1.84612
-2.56616
-3.25019
-3.88867
-4.47255
-4.993
-5.44159
-5.8108
-6.09392
-6.28516
-6.38007
-6.37542
-6.26946
-6.06229
-5.75562
-5.35298
-4.85982
-4.28344
-3.63302
-2.91941
-2.15537
-1.35519
-0.534109
0.291361
1.1041
1.88645
2.62076
3.29002
3.87798
4.36971
4.75223
5.01477
5.14942
5.15109
5.01808
4.75268
4.36079
3.85226
3.24048
2.54255
1.77877
0.972027
0.146934
-0.669212
-1.45038
-2.16978
-2.80245
-3.32583
-3.72059
-3.97212
-4.07069
-4.01195
-3.79858
-3.43942
-2.9495
-2.35003
-1.6675
-0.932482
-0.177997
0.559285
1.24576
1.84808
2.33689
2.68857
2.88639
2.92168
2.79437
2.5148
2.10184
1.5825
0.990651
0.364211
-0.258015
-0.831789
-1.32254
-1.69927
-1.93888
-2.02855
-1.96618
-1.76238
-1.43858
-1.02662
-0.565797
-0.0911554
0.341288
0.701197
0.956643
1.08778
1.08826
0.965265
0.738822
0.438932
0.102234
-0.234362
-0.533581
-0.767333
-0.914834
-0.96659
-0.924165
-0.79947
-0.612176
-0.387072
-0.150155
0.0732084
0.262583
0.402035
0.482768
0.502832
0.466586
0.383454
0.266593
0.130839
-0.00937268
-0.139525
-0.249411
-0.331289
-0.381258
-0.398981
-0.387341
-0.351675
-0.299003
-0.237137
-0.17375
-0.115887
-0.0687728
-0.0361622
-0.019589
-0.018483
-0.0304748
-0.0517577
-0.0776181
-0.103023
-0.123251
-0.134524
42.6701
42.6666
42.6604
42.6497
42.6358
42.6153
42.6026
42.5827
5.32572
5.39493
5.52396
5.68493
5.89408
6.14324
6.41869
6.71601
7.02562
7.34012
7.65147
7.95213
8.23484
8.49286
8.72004
8.91079
9.06001
9.16311
9.21612
9.21506
9.15207
9.02916
8.84482
8.59761
8.28688
7.91279
7.47627
6.97907
6.42371
5.81366
5.15308
4.44693
3.70089
2.92139
2.11576
1.29185
0.458231
-0.376015
-1.20128
-2.00768
-2.78507
-3.52305
-4.21133
-4.84014
-5.4
-5.88189
-6.2777
-6.58021
-6.78325
-6.88215
-6.87339
-6.75503
-6.5274
-6.19242
-5.75399
-5.2181
-4.59262
-3.88761
-3.1148
-2.28811
-1.423
-0.535934
0.355181
1.23184
2.07502
2.86565
3.5854
4.21676
4.74367