/*--------------------------------*- C++ -*----------------------------------*\
  =========                 |
  \\      /  F ield         | OpenFOAM: The Open Source CFD Toolbox
   \\    /   O peration     | Website:  https://openfoam.org
    \\  /    A nd           | Version:  12
     \\/     M anipulation  |
\*---------------------------------------------------------------------------*/
FoamFile
{
    format      ascii;
    class       surfaceScalarField;
    location    "9";
    object      phi;
}
// * * * * * * * * * * * * * * * * * * * * * * * * * * * * * * * * * * * * * //

dimensions      [1 0 -1 0 0 0 0];

internalField   nonuniform List<scalar> 
7429
(
0.000152528
-0.000152528
0.000307593
-0.000155065
0.000464633
-0.00015704
0.000623772
-0.000159138
0.000785167
-0.000161395
0.000949029
-0.000163861
0.0011156
-0.000166575
0.00128512
-0.000169515
0.00145753
-0.000172407
0.00163272
-0.000175193
0.00181053
-0.000177813
0.00199084
-0.000180307
0.00217348
-0.00018264
0.00235825
-0.000184765
0.00254495
-0.000186702
0.00273333
-0.00018838
0.00292311
-0.000189781
0.00311406
-0.000190953
0.00330589
-0.00019183
0.00349827
-0.000192377
0.00369084
-0.000192575
0.00388322
-0.000192371
0.00407498
-0.000191768
0.00426563
-0.00019065
0.00445466
-0.000189026
0.00464144
-0.000186776
0.00482535
-0.000183915
0.00500571
-0.000180356
0.00518178
-0.000176071
0.00535273
-0.000170955
0.00551769
-0.000164961
0.00567577
-0.000158079
0.005826
-0.000150231
0.00596734
-0.000141332
0.00609866
-0.000131321
0.00621852
-0.000119866
0.00632667
-0.000108144
0.00642275
-9.60856e-05
0.0065059
-8.31417e-05
0.00657524
-6.93488e-05
0.00662983
-5.45884e-05
0.00666885
-3.90209e-05
0.00669119
-2.23344e-05
0.00669475
-3.56627e-06
0.00667633
1.84264e-05
0.00663608
4.02516e-05
0.00657331
6.2769e-05
0.00648737
8.59351e-05
0.0063778
0.000109567
0.00624428
0.00013352
0.00608674
0.000157545
0.00590528
0.000181456
0.00570029
0.000204988
0.0054723
0.000227998
0.00522214
0.000250153
0.00495065
0.000271494
0.00465917
0.000291475
0.00434882
0.000310351
0.00402138
0.000327445
0.00367841
0.000342965
0.0033223
0.000356112
0.00295539
0.000366907
0.00258044
0.000374952
0.00220048
0.000379965
0.00181858
0.000381898
0.00143832
0.00038026
0.00106318
0.000375144
0.000696876
0.000366299
0.000343306
0.00035357
6.20198e-06
0.000337104
-0.00031064
0.000316842
-0.000603461
0.00029282
-0.000868697
0.000265236
-0.00110302
0.000234327
-0.00130333
0.000200306
-0.00146688
0.000163547
-0.00159161
0.000124735
-0.00167578
8.41632e-05
-0.00171854
4.27665e-05
-0.00171764
-9.023e-07
-0.0016704
-4.72411e-05
-0.00158055
-8.98452e-05
-0.0014505
-0.000130051
-0.001283
-0.000167504
-0.00108089
-0.000202114
-0.000847849
-0.000233036
-0.000588492
-0.000259357
-0.000307936
-0.000280556
-1.21396e-05
-0.000295797
0.000292567
-0.000304707
0.000599311
-0.000306744
0.000900976
-0.000301665
0.00119027
-0.000289297
0.00146017
-0.000269896
0.00170355
-0.000243378
0.00191393
-0.000210382
0.00208543
-0.000171499
0.00221268
-0.000127248
0.00229197
-7.92996e-05
0.00232057
-2.85961e-05
0.00229048
3.00904e-05
0.00220477
8.57145e-05
0.00206638
0.000138387
0.0018786
0.000187778
0.00164547
0.000233129
0.00137259
0.000272878
0.00106695
0.000305646
0.000736886
0.000330062
0.000391962
0.000344923
4.24375e-05
0.000349525
-0.000300688
0.000343125
-0.000626589
0.000325901
-0.00092479
0.000298202
-0.00118518
0.000260391
-0.00139892
0.000213736
-0.00155876
0.000159839
-0.00165923
0.000100472
-0.00169713
3.79037e-05
-0.00166627
-3.08665e-05
-0.00157118
-9.50812e-05
-0.00141763
-0.000153555
-0.00121218
-0.000205447
-0.000963334
-0.000248848
-0.00068188
-0.000281453
-0.000380356
-0.000301525
-7.22474e-05
-0.000308108
0.000228018
-0.000300265
0.000506974
-0.000278957
0.000751609
-0.000244635
0.000950898
-0.000199289
0.00109588
-0.000144987
0.00118086
-8.49767e-05
0.00120361
-2.27443e-05
0.00115954
4.40701e-05
0.00105765
0.000101882
0.00090599
0.000151664
0.000714935
0.000191055
0.000497605
0.000217329
0.000268673
0.000228932
4.35601e-05
0.000225113
-0.000162688
0.000206249
-0.00033653
0.000173842
-0.000466969
0.000130439
-0.000546411
7.9442e-05
-0.000571375
2.49643e-05
-0.000538603
-3.27723e-05
-0.000456018
-8.25847e-05
-0.000332521
-0.000123497
-0.000179641
-0.000152881
-1.15063e-05
-0.000168134
0.000156547
-0.000168053
0.0003098
-0.000153252
0.000435213
-0.000125413
0.000522578
-8.73646e-05
0.000565867
-4.32891e-05
0.000561998
3.86856e-06
0.000513396
4.86019e-05
0.000428519
8.48771e-05
0.000317318
0.000111201
0.000192358
0.000124961
6.73021e-05
0.000125056
-4.47877e-05
0.00011209
-0.000132797
8.80091e-05
-0.000188901
5.61038e-05
-0.000209169
2.0268e-05
-0.000192224
-1.69444e-05
-0.0001441
-4.81241e-05
-7.26978e-05
-7.14023e-05
1.17004e-05
-8.43982e-05
9.71124e-05
-8.54121e-05
0.00017183
-7.4718e-05
0.000225532
-5.37018e-05
0.00025056
-2.50281e-05
0.000241097
9.46299e-06
0.000197056
4.40415e-05
0.000122394
7.46614e-05
2.34757e-05
9.89187e-05
-9.05675e-05
0.000114043
-0.000208639
0.000118072
-0.000319116
0.000110477
-0.000411087
9.19712e-05
-0.000475214
6.41266e-05
-0.000504884
2.96705e-05
-0.000495491
-9.39312e-06
-0.000447303
-4.81887e-05
-0.000363548
-8.37545e-05
-0.000250315
-0.000113233
-0.000116232
-0.000134084
2.83501e-05
-0.000144582
0.000172025
-0.000143675
0.000303595
-0.000131569
0.000412687
-0.000109093
0.000490631
-7.79436e-05
0.000531032
-4.04009e-05
0.000530484
5.4784e-07
0.000488229
4.22549e-05
0.000407105
8.11236e-05
0.000292691
0.000114414
0.00015342
0.000139271
0.00015342
0.000156782
-0.00030931
0.000317046
-0.000315329
0.000479166
-0.000319159
0.00064308
-0.000323052
0.000808753
-0.000327068
0.000976097
-0.000331205
0.00114502
-0.000335502
0.00131552
-0.000340007
0.00148785
-0.000344744
0.00166247
-0.000349811
0.00183978
-0.000355117
0.00202025
-0.00036078
0.00220438
-0.000366771
0.00239188
-0.000372263
0.00258221
-0.000377034
0.00277488
-0.000381051
0.00296939
-0.000384293
0.00316529
-0.000386852
0.00336217
-0.000388701
0.00355958
-0.000389793
0.00375712
-0.000390118
0.00395434
-0.000389586
0.0041507
-0.000388129
0.00434559
-0.000385538
0.00453834
-0.00038178
0.00472815
-0.000376584
0.00491406
-0.000369818
0.00509509
-0.000361387
0.0052701
-0.000351084
0.00543799
-0.000338842
0.005598
-0.000324975
0.00575015
-0.000310227
0.00589427
-0.000294349
0.00603013
-0.000277192
0.00615748
-0.00025867
0.00627611
-0.000238497
0.0063845
-0.000216535
0.00648112
-0.000192711
0.00656482
-0.000166839
0.00663449
-0.000139014
0.00668905
-0.000109155
0.00672738
-7.73486e-05
0.00674855
-4.3499e-05
0.00675084
-5.85927e-06
0.0067269
4.23613e-05
0.00667862
8.85329e-05
0.00660606
0.000135326
0.0065091
0.000182895
0.00638759
0.000231083
0.00624153
0.00027958
0.00607083
0.00032824
0.00587576
0.000376526
0.00565653
0.000424221
0.0054137
0.000470833
0.00514775
0.000516102
0.00485975
0.000559487
0.00455081
0.000600423
0.00422209
0.000639063
0.00387549
0.000674052
0.00351264
0.000705807
0.00313597
0.000732784
0.00274828
0.000754605
0.00235241
0.000770819
0.00195176
0.000780612
0.00154959
0.000784069
0.0011496
0.000780249
0.00075567
0.000769072
0.000371922
0.000750047
2.38192e-06
0.00072311
-0.00034857
0.000688056
-0.000677108
0.000645381
-0.00097902
0.000594732
-0.00125041
0.000536623
-0.00148792
0.00047184
-0.00168823
0.000400621
-0.00184845
0.000323762
-0.00196642
0.000242709
-0.00204033
0.000158072
-0.00206867
7.11043e-05
-0.00204732
-2.22495e-05
-0.00197986
-0.000114707
-0.00186733
-0.000202368
-0.00171192
-0.00028546
-0.00151576
-0.000363668
-0.00128252
-0.000435355
-0.00101641
-0.000499141
-0.000722863
-0.000552907
-0.000407547
-0.000595872
-7.68719e-05
-0.000626472
0.000262052
-0.000643631
0.000601894
-0.000646585
0.000934773
-0.000634545
0.00125286
-0.000607379
0.00154847
-0.000565507
0.00181379
-0.000508699
0.00204207
-0.000438665
0.00222696
-0.00035639
0.00236277
-0.000263059
0.00244469
-0.000161214
0.00247024
-5.41479e-05
0.00243373
6.65973e-05
0.00233811
0.000181332
0.00218554
0.00029096
0.00197904
0.000394279
0.00172337
0.000488799
0.00142504
0.000571207
0.00109208
0.000638607
0.000733688
0.000688454
0.000360556
0.000718055
-1.60934e-05
0.000726175
-0.000384631
0.000711663
-0.000732868
0.000674138
-0.00104953
0.000614868
-0.00132362
0.000534472
-0.00154596
0.000436077
-0.00170873
0.00032261
-0.00180627
0.000198019
-0.0018355
6.71313e-05
-0.00179084
-7.55284e-05
-0.00167845
-0.000207473
-0.00150351
-0.000328498
-0.00127306
-0.000435893
-0.000997054
-0.000524853
-0.000687665
-0.000590842
-0.000358726
-0.000630464
-2.54172e-05
-0.000641417
0.000297369
-0.000623052
0.000594375
-0.000575962
0.000851975
-0.000502234
0.0010581
-0.000405415
0.00120363
-0.000290513
0.00128264
-0.000163994
0.00129295
-3.30523e-05
0.00123264
0.000104384
0.00111069
0.000223826
0.000935368
0.000326989
0.000719192
0.000407231
0.000476666
0.000459855
0.000224254
0.000481344
-2.11261e-05
0.000470493
-0.000243106
0.000428229
-0.000427252
0.000357988
-0.000562014
0.0002652
-0.000639468
0.000156896
-0.000656267
4.17639e-05
-0.00061109
-7.79497e-05
-0.000512518
-0.000181156
-0.000370153
-0.000265863
-0.000197447
-0.000325587
-1.02027e-05
-0.000355379
0.000173808
-0.000352064
0.000339314
-0.000318758
0.000472277
-0.000258377
0.000562009
-0.000177096
0.000602398
-8.36777e-05
0.000590387
1.58793e-05
0.000531499
0.000107489
0.000433709
0.000182667
0.000308871
0.000236039
0.000171091
0.00026274
3.52718e-05
0.000260875
-8.39611e-05
0.000231323
-0.00017535
0.000179398
-0.000230977
0.000111731
-0.000246889
3.61802e-05
-0.000223369
-4.04645e-05
-0.000166626
-0.000104867
-8.55424e-05
-0.000152486
8.35668e-06
-0.000178297
0.000102215
-0.00017927
0.000183619
-0.000156122
0.000241988
-0.000112071
0.000269544
-5.25841e-05
0.000260937
1.80702e-05
0.000216725
8.82534e-05
0.000140805
0.000150581
4.01721e-05
0.000199552
-7.55936e-05
0.000229809
-0.000194946
0.000237424
-0.000306126
0.000221658
-0.000398313
0.000184157
-0.000462226
0.00012804
-0.000491557
5.90014e-05
-0.000482383
-1.85668e-05
-0.000435182
-9.5389e-05
-0.000353265
-0.000165672
-0.000242932
-0.000223566
-0.000112744
-0.000264272
2.70716e-05
-0.000284397
0.000165459
-0.000282063
0.000291607
-0.000257718
0.000395796
-0.000213281
0.000469782
-0.00015193
0.000507749
-7.83674e-05
0.000506448
1.84838e-06
0.00046562
8.3083e-05
0.000387878
0.000158865
0.00027868
0.000223612
0.00014603
0.000271921
0.00029945
0.000123279
-0.000432589
0.0002477
-0.00043975
0.00037314
-0.000444598
0.000499503
-0.000449415
0.000626672
-0.000454237
0.000754713
-0.000459246
0.000883738
-0.000464527
0.00101415
-0.00047042
0.00114662
-0.000477209
0.00128266
-0.000485849
0.00142353
-0.000495995
0.00156731
-0.000504558
0.00171275
-0.000512209
0.00185988
-0.000519397
0.00200904
-0.000526189
0.00216047
-0.000532485
0.00231457
-0.000538391
0.00247172
-0.000544
0.0026321
-0.00054908
0.00279588
-0.000553571
0.0029631
-0.000557344
0.00313382
-0.000560305
0.00330797
-0.000562278
0.00348546
-0.000563022
0.0036659
-0.000562227
0.00384916
-0.000559844
0.00403465
-0.000555302
0.00422184
-0.000548579
0.00441027
-0.00053951
0.00459952
-0.000528099
0.00478839
-0.000513843
0.00497464
-0.00049648
0.00515573
-0.000475433
0.00532872
-0.000450183
0.00549354
-0.000423494
0.00565055
-0.000395502
0.00579934
-0.000365324
0.00593838
-0.000331756
0.00606608
-0.000294538
0.00618027
-0.000253205
0.00627973
-0.000208611
0.00636182
-0.000159438
0.0064232
-0.000104885
0.00646457
-4.72286e-05
0.00648352
2.34172e-05
0.00647753
9.4516e-05
0.00644494
0.00016792
0.00638423
0.000243606
0.00629425
0.000321056
0.0061742
0.000399632
0.00602371
0.000478733
0.00584251
0.000557726
0.0056309
0.00063583
0.00538914
0.000712596
0.00511765
0.000787591
0.00481732
0.000859813
0.00448965
0.000928092
0.00413618
0.000992537
0.00375941
0.00105082
0.00336188
0.00110334
0.00294673
0.00114794
0.00251691
0.00118443
0.00207624
0.00121149
0.00162887
0.00122798
0.00117899
0.00123395
0.000731509
0.00122773
0.000290743
0.00120984
-0.000138253
0.00117904
-0.00055024
0.0011351
-0.000940311
0.00107813
-0.00130369
0.00100876
-0.00163529
0.000926332
-0.00193061
0.000831943
-0.00218528
0.00072651
-0.00239594
0.000611279
-0.00255878
0.000486605
-0.00267094
0.000354868
-0.00273155
0.000218683
-0.00273776
7.73116e-05
-0.00268549
-7.45177e-05
-0.00258017
-0.000220029
-0.00242277
-0.00035977
-0.00221494
-0.000493285
-0.00196021
-0.000618401
-0.00166251
-0.000733057
-0.00132721
-0.000834439
-0.000960604
-0.000919514
-0.000569758
-0.000986718
-0.000162545
-0.00103369
0.000252408
-0.00105858
0.000666128
-0.0010603
0.00106927
-0.00103769
0.00145265
-0.000990761
0.001807
-0.000919855
0.00212304
-0.000824734
0.00239281
-0.000708436
0.00260904
-0.000572618
0.00276564
-0.000419666
0.00285721
-0.000252783
0.00287902
-7.59573e-05
0.00282825
0.000117372
0.00270787
0.000301711
0.00251993
0.0004789
0.00226809
0.000646121
0.00195838
0.000798511
0.00159902
0.000930567
0.00119986
0.00103776
0.000772556
0.00111576
0.000329781
0.00116083
-0.000114972
0.00117093
-0.000547396
0.00114409
-0.000953206
0.00107995
-0.00131914
0.000980798
-0.00163217
0.000847502
-0.0018818
0.000685712
-0.00205904
0.000499854
-0.00215746
0.000296439
-0.00217364
8.33072e-05
-0.00210415
-0.000145018
-0.00195558
-0.000356049
-0.00173343
-0.000550646
-0.00144714
-0.000722178
-0.00110957
-0.000862425
-0.000735427
-0.000964987
-0.000341554
-0.00102434
5.39818e-05
-0.00103695
0.000432802
-0.00100187
0.000777137
-0.000920297
0.00107096
-0.000796057
0.00130038
-0.000634835
0.00145526
-0.000445389
0.00152904
-0.000237774
0.00151932
-2.33396e-05
0.00142862
0.000195091
0.00126538
0.000387066
0.00104057
0.000551793
0.000770105
0.0006777
0.000471786
0.000758174
0.000165961
0.000787169
-0.000127009
0.000763464
-0.000387864
0.000689084
-0.000599472
0.000569595
-0.0007486
0.000414329
-0.000826481
0.000234777
-0.000830121
4.54044e-05
-0.000761595
-0.000146476
-0.000629825
-0.000312927
-0.000447668
-0.000448019
-0.000232283
-0.000540971
-3.65521e-06
-0.000584007
0.000218184
-0.000573904
0.000413566
-0.00051414
0.000566236
-0.000411046
0.000664217
-0.000275077
0.000701421
-0.000120882
0.000675974
4.1326e-05
0.000595553
0.00018791
0.000470327
0.000307893
0.000315491
0.000390875
0.000148519
0.000429712
-1.23016e-05
0.000421696
-0.000150632
0.000369653
-0.000252929
0.000281695
-0.000310636
0.000169438
-0.000320461
4.60049e-05
-0.000284376
-7.65496e-05
-0.000209992
-0.000179251
-0.00010846
-0.000254018
6.16115e-06
-0.000292918
0.000118727
-0.000291836
0.000215283
-0.000252677
0.00028398
-0.000180769
0.000316379
-8.49835e-05
0.000307847
2.66026e-05
0.000259566
0.000136534
0.000176048
0.0002341
6.56808e-05
0.000309919
-6.03707e-05
0.00035586
-0.000189508
0.000366561
-0.000308944
0.000341095
-0.000407157
0.00028237
-0.000474741
0.000195624
-0.000505095
8.93549e-05
-0.000495339
-2.83226e-05
-0.000446027
-0.000144701
-0.000361081
-0.000250617
-0.000247469
-0.000337178
-0.000114384
-0.000397357
2.7578e-05
-0.000426359
0.000167234
-0.000421719
0.000293753
-0.000384236
0.000397462
-0.00031699
0.000470445
-0.000224913
0.000507193
-0.000115116
0.000504741
4.3008e-06
0.000463225
0.000124599
0.000385304
0.000236787
0.000276518
0.000332399
0.000144773
0.000403666
0.000444223
0.000139863
-0.000572451
0.00028329
-0.000583177
0.000429618
-0.000590926
0.000579429
-0.000599226
0.000732887
-0.000607694
0.000890337
-0.000616696
0.00105083
-0.000625021
0.00121451
-0.000634093
0.00137919
-0.000641896
0.0015444
-0.000651061
0.00170959
-0.000661181
0.00187848
-0.000673452
0.0020504
-0.000684127
0.00222325
-0.000692244
0.0023966
-0.000699535
0.00257019
-0.000706076
0.00274424
-0.000712439
0.00291934
-0.000719103
0.0030968
-0.000726537
0.00327781
-0.000734586
0.00346335
-0.000742877
0.00365442
-0.000751378
0.00385135
-0.000759207
0.00405461
-0.000766289
0.00426322
-0.000770829
0.0044767
-0.000773328
0.00469191
-0.000770509
0.00490754
-0.000764213
0.00511774
-0.000749708
0.0053202
-0.000730556
0.0055158
-0.000709443
0.00570756
-0.000688239
0.00589702
-0.000664894
0.00608511
-0.000638273
0.00626932
-0.000607702
0.00644625
-0.000572438
0.00661294
-0.000532006
0.00676733
-0.000486151
0.0069073
-0.000434507
0.007031
-0.000376902
0.00713591
-0.000313522
0.00722018
-0.000243707
0.00728346
-0.000168172
0.00732461
-8.83694e-05
0.00733326
1.47644e-05
0.00730558
0.000122196
0.00724476
0.000228743
0.00715148
0.000336879
0.00702526
0.000447281
0.00686613
0.000558759
0.00667329
0.000671573
0.00644597
0.000785044
0.00618454
0.000897267
0.00588838
0.00100876
0.00555886
0.00111711
0.00519621
0.00122246
0.00480248
0.00132182
0.00437908
0.00141593
0.00392871
0.00150119
0.00345423
0.00157782
0.00295964
0.00164253
0.0024489
0.00169516
0.00192676
0.00173364
0.00139756
0.00175718
0.000867146
0.00176437
0.000340247
0.00175463
-0.000176917
0.001727
-0.000678479
0.00168061
-0.00115855
0.00161517
-0.0016105
0.00153008
-0.00202901
0.00142727
-0.00240801
0.00130533
-0.00274197
0.00116591
-0.00302679
0.00101133
-0.00325711
0.000841598
-0.00342923
0.000658721
-0.00354022
0.000465858
-0.0035866
0.000265068
-0.00356655
5.72631e-05
-0.00347822
-0.000162852
-0.00332641
-0.000371834
-0.00311177
-0.000574416
-0.00283678
-0.000768275
-0.00250556
-0.000949622
-0.0021237
-0.00111491
-0.00169773
-0.00126042
-0.00123568
-0.00138156
-0.000746522
-0.00147588
-0.000239688
-0.00154052
0.000274283
-0.00157255
0.000784128
-0.00157015
0.00127889
-0.00153245
0.0017471
-0.00145897
0.00217769
-0.00135044
0.00255932
-0.00120637
0.00288222
-0.00103134
0.0031384
-0.000828789
0.0033197
-0.000600973
0.00342123
-0.000354307
0.00343978
-9.45087e-05
0.00336835
0.000188798
0.00321279
0.000457269
0.00297527
0.00071642
0.00266072
0.000960677
0.00227711
0.00118212
0.00183494
0.00137273
0.0013465
0.0015262
0.000826302
0.00163596
0.000289622
0.00169751
-0.00024609
0.00170664
-0.000764178
0.00166217
-0.00124709
0.00156286
-0.00167889
0.0014126
-0.002044
0.00121261
-0.00232975
0.000971454
-0.00252612
0.000696223
-0.00262554
0.000395865
-0.0026244
8.21599e-05
-0.00252159
-0.000247821
-0.00232372
-0.00055392
-0.00203808
-0.000836288
-0.00167731
-0.00108295
-0.00125707
-0.00128267
-0.000795944
-0.00142611
-0.000316066
-0.00150421
0.000161988
-0.00151501
0.000615155
-0.00145504
0.00102245
-0.00132759
0.00136464
-0.00113825
0.00162534
-0.000895535
0.00179286
-0.000612907
0.00186018
-0.000305092
0.00182118
1.56642e-05
0.00169098
0.000325285
0.00147263
0.000605421
0.00118261
0.000841808
0.000840006
0.00102031
0.000468227
0.00112995
9.16269e-05
0.00116377
-0.000263758
0.00111885
-0.000575112
0.00100044
-0.000822429
0.000816911
-0.000990193
0.000582093
-0.00106874
0.000313319
-0.0010556
3.22692e-05
-0.000954507
-0.000247569
-0.00077766
-0.000489773
-0.000542353
-0.000683326
-0.000270388
-0.000812937
1.39772e-05
-0.000868372
0.000285078
-0.000845005
0.000519453
-0.000748515
0.000697399
-0.000588992
0.000805986
-0.000383665
0.00083762
-0.000152516
0.000793836
8.51101e-05
0.000683475
0.000298271
0.000520942
0.000470427
0.000326075
0.000585742
0.00012076
0.000635026
-7.32601e-05
0.000615717
-0.000235888
0.000532282
-0.000351894
0.000397701
-0.000411973
0.000229517
-0.000413552
4.75837e-05
-0.000360431
-0.00012967
-0.000262636
-0.000277047
-0.000134672
-0.000381982
6.74874e-06
-0.000434339
0.000143378
-0.000428466
0.00025886
-0.000368159
0.000339958
-0.000261866
0.000377753
-0.000122779
0.000368146
3.62097e-05
0.000313019
0.00019166
0.000218211
0.000328908
9.40906e-05
0.000434039
-4.6571e-05
0.000496522
-0.00018939
0.00050938
-0.000320322
0.000472027
-0.000426941
0.000388989
-0.000499365
0.000268048
-0.000531237
0.000121227
-0.000519897
-3.96636e-05
-0.000466714
-0.000197884
-0.000376409
-0.000340921
-0.000256743
-0.000456845
-0.000117719
-0.000536381
2.95142e-05
-0.000573592
0.000173205
-0.000565409
0.000302436
-0.000513467
0.000407402
-0.000421956
0.000480478
-0.000297989
0.000516388
-0.000151026
0.000512577
8.1125e-06
0.000469317
0.000167859
0.000389663
0.00031644
0.000279305
0.000442757
0.000146137
0.000536833
0.000590361
0.000147265
-0.000719716
0.0002944
-0.000730312
0.000439958
-0.000736484
0.000583298
-0.000742565
0.000723209
-0.000747606
0.000860844
-0.000754331
0.000994773
-0.00075895
0.00112247
-0.000761786
0.00123491
-0.000754339
0.00133458
-0.000750731
0.00141958
-0.000746178
0.00149232
-0.000746191
0.00155703
-0.00074884
0.00162044
-0.000755651
0.00168709
-0.000766186
0.00176103
-0.000780014
0.00184534
-0.000796753
0.00194189
-0.000815656
0.00205192
-0.000836565
0.0021754
-0.00085806
0.00231268
-0.000880156
0.00246446
-0.000903157
0.00263114
-0.000925894
0.00281331
-0.000948459
0.0030103
-0.000967814
0.00322233
-0.000985363
0.00344475
-0.00099293
0.00367612
-0.000995581
0.00390939
-0.000982971
0.00414978
-0.000970947
0.00439913
-0.000958796
0.00465564
-0.000944753
0.00491718
-0.000926431
0.00518175
-0.000902842
0.00544677
-0.000872718
0.00570933
-0.000835001
0.00596634
-0.000789015
0.00621433
-0.00073414
0.00644959
-0.000669774
0.0066671
-0.00059441
0.00686521
-0.000511628
0.00703709
-0.000415592
0.00717735
-0.000308428
0.00728194
-0.000192959
0.00736717
-7.04672e-05
0.00741025
7.91202e-05
0.0074143
0.000224693
0.0073768
0.000374378
0.00729588
0.000528193
0.00716996
0.000684678
0.0069981
0.000843436
0.00678043
0.00100271
0.00651588
0.00116182
0.00620544
0.0013192
0.00584954
0.001473
0.00545008
0.00162193
0.00501023
0.00176167
0.00453318
0.00189298
0.00402215
0.00201222
0.00348082
0.00211915
0.0029138
0.00220955
0.00232637
0.00228259
0.00172413
0.00233588
0.00111347
0.00236783
0.000500181
0.00237766
-0.000108467
0.00236327
-0.000705551
0.00232409
-0.00128381
0.00225886
-0.00183571
0.00216708
-0.00235451
0.00204887
-0.00283264
0.0019054
-0.0032636
0.00173629
-0.00364024
0.00154254
-0.00395579
0.00132689
-0.00420579
0.0010916
-0.00438614
0.000839074
-0.00449274
0.000572455
-0.00452321
0.000295537
-0.00446886
2.918e-06
-0.00434088
-0.000290839
-0.00413613
-0.000576576
-0.0038561
-0.000854451
-0.00350458
-0.00111979
-0.0030871
-0.0013671
-0.00261062
-0.00159139
-0.00208319
-0.00178785
-0.00151459
-0.00195015
-0.000915014
-0.00207545
-0.000296634
-0.0021589
0.000327855
-0.00219704
0.00094495
-0.00218725
0.00154125
-0.00212876
0.00210339
-0.00202111
0.00261812
-0.00186517
0.00307226
-0.00166051
0.00345392
-0.001413
0.00375214
-0.001127
0.00395899
-0.000807831
0.0040678
-0.000463108
0.00407289
-9.96001e-05
0.00397826
0.00028342
0.00378172
0.000653811
0.00348634
0.0010118
0.0030993
0.00134771
0.00263092
0.00165051
0.00209402
0.00190963
0.00150399
0.00211623
0.000878045
0.00226191
0.000235825
0.00233973
-0.000402787
0.00234525
-0.00101678
0.00227617
-0.00158559
0.00213167
-0.00209054
0.00191754
-0.0025127
0.00163477
-0.00283751
0.00129627
-0.00305336
0.000912076
-0.00315178
0.000494283
-0.00312813
5.85132e-05
-0.00298583
-0.000390128
-0.0027305
-0.000809246
-0.00237179
-0.001195
-0.00192533
-0.0015294
-0.00141137
-0.00179663
-0.000852811
-0.00198467
-0.000274406
-0.00208262
0.000295662
-0.00208508
0.000831588
-0.00199096
0.00130788
-0.00180389
0.00170203
-0.0015324
0.00199516
-0.00118867
0.00217385
-0.000791592
0.00223068
-0.000361919
0.00216452
8.18243e-05
0.00198477
0.000505035
0.00170175
0.000888442
0.00133575
0.0012078
0.000910668
0.00144539
0.000455723
0.0015849
5.71077e-07
0.00161892
-0.000424889
0.00154431
-0.000792348
0.0013679
-0.00107778
0.00110234
-0.00126393
0.000768245
-0.00134104
0.000390426
-0.00130306
-5.7107e-06
-0.0011648
-0.000385832
-0.000936109
-0.000718463
-0.000639118
-0.000980317
-0.000302144
-0.00114991
4.45909e-05
-0.00121511
0.000370392
-0.00117081
0.00064713
-0.00102525
0.000851899
-0.000793761
0.000969418
-0.000501184
0.000993443
-0.00017654
0.00092667
0.000151883
0.000781148
0.000443793
0.000575618
0.000675958
0.000335063
0.000826298
8.56584e-05
0.00088443
-0.000144354
0.000845729
-0.000333126
0.000721054
-0.000463062
0.000527637
-0.00052437
0.000290825
-0.000514652
3.78654e-05
-0.000441888
-0.000202434
-0.000317495
-0.00040144
-0.000159505
-0.000539972
1.11725e-05
-0.000605016
0.000173493
-0.000590786
0.000308998
-0.000503664
0.000402537
-0.000355406
0.000444772
-0.000165014
0.000432858
4.81234e-05
0.000369117
0.000255402
0.000261184
0.000436841
0.000121452
0.000573772
-3.51524e-05
0.000653126
-0.000192707
0.000666934
-0.000335748
0.000615069
-0.000450962
0.000504203
-0.000528165
0.000345251
-0.00056082
0.000153882
-0.000547367
-5.31174e-05
-0.000489484
-0.000255766
-0.000392825
-0.000437581
-0.000266249
-0.000583421
-0.000120488
-0.000682142
3.25427e-05
-0.000726622
0.00018079
-0.000713657
0.000312976
-0.000645653
0.000419465
-0.000528445
0.00049272
-0.000371244
0.000527692
-0.000185998
0.000522323
1.34823e-05
0.000477049
0.000213133
0.000395392
0.000398097
0.000282971
0.000555178
0.000147928
0.000671876
0.000738288
7.52359e-05
-0.000794952
0.000155367
-0.000810443
0.000249074
-0.00083019
0.00036311
-0.000856601
0.000500429
-0.000884924
0.000671234
-0.000925136
0.00086083
-0.000948546
0.00110551
-0.00100647
0.00134851
-0.000997331
0.00160926
-0.00101149
0.00185409
-0.000991005
0.00207717
-0.000969273
0.00226641
-0.000938082
0.00241947
-0.000908708
0.00253552
-0.000882238
0.00261851
-0.000862997
0.00267413
-0.00085237
0.00271131
-0.000852838
0.00273911
-0.000864364
0.00277105
-0.000890001
0.00281934
-0.000928445
0.00289794
-0.000981764
0.00301396
-0.0010419
0.00317783
-0.00111233
0.00338086
-0.00117085
0.00363351
-0.00123801
0.00389899
-0.00125841
0.00421623
-0.00131283
0.00451656
-0.0012833
0.00483526
-0.00128965
0.00514453
-0.00126806
0.00545623
-0.00125645
0.00576526
-0.00123547
0.0060716
-0.00120918
0.00637235
-0.00117347
0.00666436
-0.00112701
0.00694437
-0.00106903
0.00720893
-0.000998699
0.00745466
-0.000915504
0.00767942
-0.000819172
0.00787688
-0.000709087
0.00804739
-0.000586106
0.00818694
-0.000447971
0.00829037
-0.000296393
0.00835338
-0.000133471
0.00837233
6.01677e-05
0.00834441
0.000252608
0.00827195
0.000446846
0.00815379
0.000646351
0.00798678
0.000851682
0.00777072
0.0010595
0.00750267
0.00127077
0.00718356
0.00148093
0.00681331
0.00168944
0.00639278
0.00189354
0.00592424
0.00209046
0.00541014
0.00227577
0.00485248
0.00245064
0.00425673
0.00260796
0.00362713
0.00274875
0.00296944
0.00286724
0.00228908
0.00296296
0.00159244
0.00303252
0.000887292
0.00307298
0.000180648
0.0030843
-0.000519287
0.00306321
-0.00120467
0.00300947
-0.00186674
0.00292093
-0.00249694
0.00279727
-0.00308704
0.00263897
-0.00362909
0.00244745
-0.00411403
0.00222123
-0.00453375
0.00196226
-0.00488288
0.00167602
-0.00515496
0.00136368
-0.00534407
0.00102818
-0.00544453
0.000672918
-0.00545378
0.000304783
-0.00537145
-7.94081e-05
-0.00520115
-0.000461146
-0.00494053
-0.000837188
-0.00459279
-0.0012022
-0.00416244
-0.00155014
-0.00365532
-0.00187422
-0.00308022
-0.00216649
-0.00244744
-0.00242063
-0.00176855
-0.00262904
-0.00105676
-0.00278725
-0.000324792
-0.00289087
0.00041196
-0.00293379
0.00113763
-0.00291292
0.00183603
-0.00282715
0.00249156
-0.00267664
0.00308908
-0.00246269
0.00361453
-0.00218595
0.00405276
-0.00185123
0.00439208
-0.00146633
0.00462266
-0.00103841
0.00473737
-0.00057781
0.00473544
-9.76753e-05
0.00460934
0.000409519
0.00436443
0.000898719
0.00400566
0.00137058
0.00354083
0.00181254
0.00298283
0.00220852
0.00234702
0.00254544
0.00165142
0.00281183
0.000916738
0.00299659
0.000165609
0.00309086
-0.000578028
0.00308889
-0.0012894
0.00298755
-0.00194476
0.00278703
-0.0025226
0.00249539
-0.00300081
0.00211298
-0.00336333
0.00165879
-0.00359662
0.00114537
-0.00369226
0.000589924
-0.00363938
5.63346e-06
-0.00345495
-0.000574562
-0.00313749
-0.0011267
-0.00270137
-0.00163112
-0.0021658
-0.00206497
-0.00155469
-0.00240774
-0.000894711
-0.00264465
-0.00021687
-0.00276046
0.000447503
-0.00274945
0.001067
-0.00261046
0.00161215
-0.00234904
0.0020574
-0.00197764
0.00238107
-0.00151234
0.00256834
-0.000978863
0.00261127
-0.000404851
0.00251217
0.000180927
0.00227827
0.000738928
0.00192749
0.00123923
0.00148115
0.00165414
0.000972176
0.00195436
0.000431269
0.00212581
-0.000104963
0.00215515
-0.000600061
0.00203941
-0.00102276
0.00179059
-0.00134528
0.00142487
-0.00154761
0.000970575
-0.00161836
0.000461178
-0.0015575
-6.6574e-05
-0.00137553
-0.000567798
-0.00109019
-0.00100381
-0.000728957
-0.00134155
-0.000323686
-0.00155518
8.74225e-05
-0.00162621
0.000468604
-0.00155199
0.000787312
-0.00134396
0.0010174
-0.00102385
0.00114195
-0.000625731
0.00115399
-0.000188577
0.00106137
0.000244498
0.00087734
0.000627825
0.000626154
0.000927144
0.000337749
0.0011147
4.36875e-05
0.00117849
-0.000222001
0.00111142
-0.000435789
0.000934842
-0.000577994
0.000669841
-0.000638143
0.000350975
-0.000615797
1.55193e-05
-0.000520814
-0.000297417
-0.000368377
-0.000553877
-0.000180149
-0.0007282
1.95951e-05
-0.00080476
0.000206851
-0.000778042
0.000361009
-0.000657821
0.000465648
-0.000460045
0.000511275
-0.000210641
0.000495653
6.3746e-05
0.000422272
0.000328782
0.000300816
0.000558297
0.00014554
0.000729048
-2.6554e-05
0.000825219
-0.000197899
0.000838279
-0.000351994
0.000769163
-0.000474713
0.000626923
-0.000555546
0.000426084
-0.000588465
0.000186802
-0.000572221
-6.93618e-05
-0.000509398
-0.00031859
-0.000406661
-0.000540317
-0.000273638
-0.000716445
-0.000121846
-0.000833934
3.62208e-05
-0.00088469
0.000188158
-0.000865594
0.000322629
-0.000780124
0.000429901
-0.000635717
0.000502822
-0.000444165
0.000536641
-0.000219818
0.000529602
2.05212e-05
0.000482597
0.000260138
0.000399187
0.000481507
0.000285338
0.000669027
0.000149035
0.000808179
0.000887323
0.000344578
-0.00113953
0.000690418
-0.00115628
0.00104292
-0.00118269
0.00140025
-0.00121393
0.00175787
-0.00124255
0.00212117
-0.00128843
0.00242948
-0.00125686
0.00271547
-0.00129246
0.00272643
-0.00100829
0.002584
-0.000869054
0.00231945
-0.000726461
0.00200108
-0.000650897
0.00166078
-0.000597783
0.00133582
-0.000583749
0.00105017
-0.000596591
0.000821172
-0.000633996
0.000656537
-0.000687735
0.000557702
-0.000754002
0.000521284
-0.000827946
0.00054041
-0.000909127
0.000601488
-0.000989523
0.000708286
-0.00108856
0.000849565
-0.00118318
0.0010409
-0.00130367
0.00127521
-0.00140516
0.00159313
-0.00155592
0.00197811
-0.00164339
0.0024674
-0.00180212
0.00291838
-0.00173427
0.00333405
-0.00170533
0.00374951
-0.00168352
0.00417248