/*--------------------------------*- C++ -*----------------------------------*\
  =========                 |
  \\      /  F ield         | OpenFOAM: The Open Source CFD Toolbox
   \\    /   O peration     | Website:  https://openfoam.org
    \\  /    A nd           | Version:  12
     \\/     M anipulation  |
\*---------------------------------------------------------------------------*/
FoamFile
{
    format      ascii;
    class       volVectorField;
    location    "9";
    object      U;
}
// * * * * * * * * * * * * * * * * * * * * * * * * * * * * * * * * * * * * * //

dimensions      [0 1 -1 0 0 0 0];

internalField   nonuniform List<vector> 
3829
(
(6.15443e-06 -0.000163753 0)
(1.83367e-05 -0.000166564 0)
(3.08617e-05 -0.000166374 0)
(4.34627e-05 -0.000166031 0)
(5.62459e-05 -0.000165571 0)
(6.92346e-05 -0.000164989 0)
(8.24251e-05 -0.000164279 0)
(9.58486e-05 -0.000163453 0)
(0.000109514 -0.000162506 0)
(0.000123366 -0.000161443 0)
(0.000137492 -0.000160259 0)
(0.0001518 -0.000158958 0)
(0.000166269 -0.000157513 0)
(0.000180949 -0.000155936 0)
(0.000195774 -0.000154195 0)
(0.000210754 -0.000152293 0)
(0.000225853 -0.000150218 0)
(0.000241054 -0.000147968 0)
(0.000256335 -0.00014553 0)
(0.000271676 -0.000142903 0)
(0.000287047 -0.000140081 0)
(0.000302419 -0.000137059 0)
(0.000317759 -0.000133837 0)
(0.000333036 -0.000130409 0)
(0.000348176 -0.000126777 0)
(0.000363166 -0.000122937 0)
(0.000377982 -0.000118891 0)
(0.000392541 -0.00011465 0)
(0.000406782 -0.000110215 0)
(0.00042066 -0.000105603 0)
(0.000434051 -0.000100826 0)
(0.000447045 -9.58928e-05 0)
(0.000459372 -9.08355e-05 0)
(0.000470902 -8.56264e-05 0)
(0.000481823 -8.02836e-05 0)
(0.000491862 -7.47924e-05 0)
(0.000500943 -6.91597e-05 0)
(0.000509031 -6.33602e-05 0)
(0.000516186 -5.73988e-05 0)
(0.000522349 -5.12998e-05 0)
(0.000527292 -4.50683e-05 0)
(0.000531025 -3.8713e-05 0)
(0.000533465 -3.2256e-05 0)
(0.000534485 -2.57059e-05 0)
(0.000533896 -1.90932e-05 0)
(0.000531545 -1.24634e-05 0)
(0.00052743 -5.86132e-06 0)
(0.000521481 6.76422e-07 0)
(0.000513664 7.10376e-06 0)
(0.00050396 1.34232e-05 0)
(0.000492318 1.95478e-05 0)
(0.000478823 2.54889e-05 0)
(0.00046337 3.11688e-05 0)
(0.00044596 3.6614e-05 0)
(0.000426869 4.17031e-05 0)
(0.000406123 4.64768e-05 0)
(0.000383551 5.08593e-05 0)
(0.000359478 5.48409e-05 0)
(0.000334073 5.83213e-05 0)
(0.000307118 6.13191e-05 0)
(0.00027918 6.37507e-05 0)
(0.00025023 6.56422e-05 0)
(0.000220609 6.69329e-05 0)
(0.000190439 6.75887e-05 0)
(0.000159948 6.76089e-05 0)
(0.000129589 6.69232e-05 0)
(9.93117e-05 6.56011e-05 0)
(6.97196e-05 6.36195e-05 0)
(4.08237e-05 6.09851e-05 0)
(1.32803e-05 5.77815e-05 0)
(-1.27444e-05 5.39017e-05 0)
(-3.73209e-05 4.94938e-05 0)
(-5.95354e-05 4.45711e-05 0)
(-7.93804e-05 3.91475e-05 0)
(-9.66179e-05 3.33214e-05 0)
(-0.000111128 2.71559e-05 0)
(-0.000122721 2.07781e-05 0)
(-0.000130909 1.41912e-05 0)
(-0.000135899 7.54702e-06 0)
(-0.000137647 9.67214e-07 0)
(-0.000135741 -5.47323e-06 0)
(-0.000130197 -1.16086e-05 0)
(-0.000121397 -1.74587e-05 0)
(-0.000109346 -2.28225e-05 0)
(-9.44422e-05 -2.76852e-05 0)
(-7.71414e-05 -3.18889e-05 0)
(-5.74025e-05 -3.53816e-05 0)
(-3.57815e-05 -3.80551e-05 0)
(-1.27391e-05 -3.9859e-05 0)
(1.132e-05 -4.07679e-05 0)
(3.57207e-05 -4.07194e-05 0)
(6.00267e-05 -3.97283e-05 0)
(8.36172e-05 -3.78035e-05 0)
(0.000105944 -3.49752e-05 0)
(0.000126437 -3.13043e-05 0)
(0.000144534 -2.68663e-05 0)
(0.000159776 -2.17603e-05 0)
(0.000171657 -1.61049e-05 0)
(0.000179889 -1.00359e-05 0)
(0.000184182 -3.72402e-06 0)
(0.000184086 2.66835e-06 0)
(0.000179416 8.97389e-06 0)
(0.000170442 1.50552e-05 0)
(0.000157368 2.07026e-05 0)
(0.000140516 2.57973e-05 0)
(0.000120286 3.01155e-05 0)
(9.71336e-05 3.35722e-05 0)
(7.17238e-05 3.60114e-05 0)
(4.47377e-05 3.73758e-05 0)
(1.70577e-05 3.75811e-05 0)
(-1.0643e-05 3.66139e-05 0)
(-3.74297e-05 3.45288e-05 0)
(-6.23668e-05 3.13607e-05 0)
(-8.4662e-05 2.72384e-05 0)
(-0.000103542 2.22441e-05 0)
(-0.000118436 1.66222e-05 0)
(-0.000128779 1.05248e-05 0)
(-0.000134247 4.20778e-06 0)
(-0.000134462 -2.09653e-06 0)
(-0.000129336 -8.13457e-06 0)
(-0.000119338 -1.37172e-05 0)
(-0.000104901 -1.85646e-05 0)
(-8.66852e-05 -2.25224e-05 0)
(-6.54297e-05 -2.53905e-05 0)
(-4.20738e-05 -2.70729e-05 0)
(-1.77568e-05 -2.75133e-05 0)
(6.62499e-06 -2.66418e-05 0)
(2.98298e-05 -2.46291e-05 0)
(5.07131e-05 -2.14817e-05 0)
(6.84485e-05 -1.74587e-05 0)
(8.21305e-05 -1.27337e-05 0)
(9.12329e-05 -7.57141e-06 0)
(9.54624e-05 -2.28196e-06 0)
(9.44811e-05 2.83849e-06 0)
(8.85383e-05 7.54194e-06 0)
(7.82997e-05 1.15402e-05 0)
(6.44959e-05 1.46375e-05 0)
(4.80795e-05 1.66383e-05 0)
(3.01593e-05 1.74833e-05 0)
(1.19574e-05 1.71155e-05 0)
(-5.30462e-06 1.56237e-05 0)
(-2.04901e-05 1.31293e-05 0)
(-3.26096e-05 9.86754e-06 0)
(-4.09323e-05 6.07842e-06 0)
(-4.50135e-05 2.07076e-06 0)
(-4.45713e-05 -1.82633e-06 0)
(-3.98549e-05 -5.35969e-06 0)
(-3.15225e-05 -8.2268e-06 0)
(-2.04269e-05 -1.0245e-05 0)
(-7.57037e-06 -1.12688e-05 0)
(6.09853e-06 -1.1235e-05 0)
(1.91444e-05 -1.02197e-05 0)
(3.02539e-05 -8.35798e-06 0)
(3.86953e-05 -5.84714e-06 0)
(4.38369e-05 -2.96935e-06 0)
(4.52868e-05 -5.6076e-09 0)
(4.30382e-05 2.73595e-06 0)
(3.75622e-05 5.01728e-06 0)
(2.95751e-05 6.63954e-06 0)
(2.00315e-05 7.46706e-06 0)
(9.95651e-06 7.45836e-06 0)
(3.85523e-07 6.67073e-06 0)
(-7.66762e-06 5.2377e-06 0)
(-1.34085e-05 3.3611e-06 0)
(-1.64043e-05 1.2843e-06 0)
(-1.6457e-05 -7.48964e-07 0)
(-1.37448e-05 -2.50578e-06 0)
(-8.86013e-06 -3.80819e-06 0)
(-2.35182e-06 -4.51419e-06 0)
(4.71628e-06 -4.56224e-06 0)
(1.11719e-05 -3.97213e-06 0)
(1.63066e-05 -2.83718e-06 0)
(1.94377e-05 -1.32085e-06 0)
(2.00086e-05 4.14415e-07 0)
(1.78398e-05 2.15109e-06 0)
(1.31072e-05 3.70315e-06 0)
(6.16352e-06 4.90729e-06 0)
(-2.67191e-06 5.6255e-06 0)
(-1.22885e-05 5.7865e-06 0)
(-2.14582e-05 5.37549e-06 0)
(-2.95502e-05 4.43979e-06 0)
(-3.57941e-05 3.07613e-06 0)
(-3.95137e-05 1.4174e-06 0)
(-4.02688e-05 -3.81411e-07 0)
(-3.78988e-05 -2.15969e-06 0)
(-3.25422e-05 -3.76956e-06 0)
(-2.45803e-05 -5.06907e-06 0)
(-1.46461e-05 -5.95758e-06 0)
(-3.39785e-06 -6.36998e-06 0)
(8.26139e-06 -6.27023e-06 0)
(1.92949e-05 -5.68819e-06 0)
(2.89364e-05 -4.67037e-06 0)
(3.64209e-05 -3.30997e-06 0)
(4.11497e-05 -1.70678e-06 0)
(4.27189e-05 1.84325e-09 0)
(4.09746e-05 1.70621e-06 0)
(3.60017e-05 3.25832e-06 0)
(2.81323e-05 4.55178e-06 0)
(1.7936e-05 5.47944e-06 0)
(6.16527e-06 5.97443e-06 0)
(6.99777e-06 -8.6842e-05 0)
(2.13453e-05 -8.52643e-05 0)
(3.58897e-05 -8.52515e-05 0)
(5.05689e-05 -8.52687e-05 0)
(6.53741e-05 -8.52932e-05 0)
(8.04211e-05 -8.5346e-05 0)
(9.557e-05 -8.54136e-05 0)
(0.000110854 -8.55209e-05 0)
(0.000126335 -8.56585e-05 0)
(0.000141962 -8.58492e-05 0)
(0.000157822 -8.60504e-05 0)
(0.000174009 -8.62739e-05 0)
(0.000190441 -8.64872e-05 0)
(0.000207188 -8.66835e-05 0)
(0.000224268 -8.69113e-05 0)
(0.000241517 -8.71072e-05 0)
(0.000258933 -8.72867e-05 0)
(0.000276514 -8.745e-05 0)
(0.000294224 -8.75798e-05 0)
(0.000311984 -8.76391e-05 0)
(0.0003298 -8.76226e-05 0)
(0.000347592 -8.74969e-05 0)
(0.000365334 -8.72361e-05 0)
(0.000382985 -8.67858e-05 0)
(0.000400446 -8.61398e-05 0)
(0.000417717 -8.52226e-05 0)
(0.000434665 -8.40155e-05 0)
(0.000451214 -8.24661e-05 0)
(0.000467281 -8.05143e-05 0)
(0.000482739 -7.81304e-05 0)
(0.000497525 -7.5232e-05 0)
(0.000511614 -7.18156e-05 0)
(0.00052497 -6.77881e-05 0)
(0.000537555 -6.31534e-05 0)
(0.000549468 -5.79186e-05 0)
(0.000560513 -5.20412e-05 0)
(0.00057067 -4.55433e-05 0)
(0.000579922 -3.83991e-05 0)
(0.000588034 -3.05484e-05 0)
(0.00059495 -2.20265e-05 0)
(0.000600543 -1.28401e-05 0)
(0.000604728 -2.98736e-06 0)
(0.000607424 7.48958e-06 0)
(0.000608468 1.85369e-05 0)
(0.000607471 3.01057e-05 0)
(0.000604217 4.21696e-05 0)
(0.000598768 5.4644e-05 0)
(0.000591063 6.74753e-05 0)
(0.000581287 8.05389e-05 0)
(0.000569221 9.37447e-05 0)
(0.000554867 0.000106968 0)
(0.000538379 0.000120086 0)
(0.000519728 0.00013295 0)
(0.000498715 0.00014542 0)
(0.000475692 0.000157341 0)
(0.00045093 0.000168614 0)
(0.000424013 0.000179 0)
(0.000395167 0.000188423 0)
(0.000364699 0.000196666 0)
(0.000332494 0.00020364 0)
(0.000299153 0.000209172 0)
(0.000264766 0.000213115 0)
(0.000229402 0.000215397 0)
(0.000193464 0.000215933 0)
(0.000157024 0.000214657 0)
(0.000120845 0.000211468 0)
(8.50855e-05 0.000206347 0)
(5.00662e-05 0.000199319 0)
(1.62442e-05 0.000190388 0)
(-1.61982e-05 0.000179613 0)
(-4.68343e-05 0.000167007 0)
(-7.52662e-05 0.000152737 0)
(-0.000101133 0.00013694 0)
(-0.000124086 0.000119717 0)
(-0.000143723 0.00010128 0)
(-0.00015984 8.192e-05 0)
(-0.000172488 6.1823e-05 0)
(-0.000181113 4.12674e-05 0)
(-0.000185505 2.06042e-05 0)
(-0.00018593 3.10357e-08 0)
(-0.00018184 -1.99022e-05 0)
(-0.000173625 -3.90946e-05 0)
(-0.000161568 -5.71383e-05 0)
(-0.000145561 -7.38069e-05 0)
(-0.000126182 -8.87219e-05 0)
(-0.000103776 -0.000101608 0)
(-7.85016e-05 -0.000112163 0)
(-5.09315e-05 -0.000120244 0)
(-2.18186e-05 -0.000125577 0)
(8.46204e-06 -0.0001281 0)
(3.90985e-05 -0.000127679 0)
(6.94212e-05 -0.000124321 0)
(9.87649e-05 -0.000118061 0)
(0.000126424 -0.000109012 0)
(0.0001517 -9.73483e-05 0)
(0.000173931 -8.33275e-05 0)
(0.000192546 -6.72606e-05 0)
(0.000206952 -4.95308e-05 0)
(0.000216732 -3.05346e-05 0)
(0.000221553 -1.07902e-05 0)
(0.000221014 9.1711e-06 0)
(0.000215025 2.88397e-05 0)
(0.000203776 4.77013e-05 0)
(0.000187547 6.52252e-05 0)
(0.00016666 8.08929e-05 0)
(0.000141636 9.41914e-05 0)
(0.000113143 0.000104705 0)
(8.19377e-05 0.000112106 0)
(4.89133e-05 0.000116071 0)
(1.50753e-05 0.000116493 0)
(-1.85364e-05 0.000113268 0)
(-5.0868e-05 0.00010654 0)
(-8.08084e-05 9.64862e-05 0)
(-0.000107463 8.34389e-05 0)
(-0.000129794 6.78132e-05 0)
(-0.000147082 5.01914e-05 0)
(-0.000158776 3.11923e-05 0)
(-0.000164399 1.15389e-05 0)
(-0.000163613 -8.0341e-06 0)
(-0.000156467 -2.67383e-05 0)
(-0.000143413 -4.38852e-05 0)
(-0.000124995 -5.87894e-05 0)
(-0.000102088 -7.08272e-05 0)
(-7.55849e-05 -7.94684e-05 0)
(-4.67648e-05 -8.43838e-05 0)
(-1.68333e-05 -8.53898e-05 0)
(1.28206e-05 -8.24261e-05 0)
(4.07969e-05 -7.58075e-05 0)
(6.5785e-05 -6.58018e-05 0)
(8.66285e-05 -5.30479e-05 0)
(0.000102447 -3.81655e-05 0)
(0.000112466 -2.20514e-05 0)
(0.00011637 -5.56761e-06 0)
(0.000113987 1.03463e-05 0)
(0.000105619 2.48301e-05 0)
(9.20708e-05 3.71092e-05 0)
(7.4281e-05 4.65009e-05 0)
(5.34836e-05 5.24672e-05 0)
(3.10639e-05 5.47473e-05 0)
(8.52285e-06 5.33271e-05 0)
(-1.25943e-05 4.83744e-05 0)
(-3.09008e-05 4.03692e-05 0)
(-4.52182e-05 2.9968e-05 0)
(-5.47184e-05 1.80387e-05 0)
(-5.88331e-05 5.47753e-06 0)
(-5.74138e-05 -6.65653e-06 0)
(-5.07933e-05 -1.75665e-05 0)
(-3.97791e-05 -2.63724e-05 0)
(-2.55134e-05 -3.24665e-05 0)
(-9.21368e-06 -3.5424e-05 0)
(7.79988e-06 -3.504e-05 0)
(2.37736e-05 -3.16615e-05 0)
(3.72145e-05 -2.56689e-05 0)
(4.71787e-05 -1.77171e-05 0)
(5.29301e-05 -8.67337e-06 0)
(5.40686e-05 5.59285e-07 0)
(5.06825e-05 9.06695e-06 0)
(4.34368e-05 1.60741e-05 0)
(3.32223e-05 2.09829e-05 0)
(2.12405e-05 2.33906e-05 0)
(8.80532e-06 2.32064e-05 0)
(-2.79833e-06 2.05676e-05 0)
(-1.23618e-05 1.59848e-05 0)
(-1.89538e-05 1.00751e-05 0)
(-2.21049e-05 3.56713e-06 0)
(-2.16547e-05 -2.72714e-06 0)
(-1.78933e-05 -8.16184e-06 0)
(-1.15545e-05 -1.21149e-05 0)
(-3.35479e-06 -1.42193e-05 0)
(5.42142e-06 -1.42615e-05 0)
(1.34001e-05 -1.2368e-05 0)
(1.96947e-05 -8.82529e-06 0)
(2.35467e-05 -4.09964e-06 0)
(2.43469e-05 1.22216e-06 0)
(2.1903e-05 6.54257e-06 0)
(1.64744e-05 1.12708e-05 0)
(8.48617e-06 1.48956e-05 0)
(-1.62031e-06 1.70559e-05 0)
(-1.25808e-05 1.74978e-05 0)
(-2.3026e-05 1.62171e-05 0)
(-3.21985e-05 1.33702e-05 0)
(-3.92364e-05 9.23713e-06 0)
(-4.34074e-05 4.23805e-06 0)
(-4.42516e-05 -1.16991e-06 0)
(-4.16286e-05 -6.49305e-06 0)
(-3.57091e-05 -1.12915e-05 0)
(-2.69357e-05 -1.51454e-05 0)
(-1.60319e-05 -1.77557e-05 0)
(-3.72957e-06 -1.89405e-05 0)
(8.96641e-06 -1.86176e-05 0)
(2.09345e-05 -1.68587e-05 0)
(3.13474e-05 -1.38215e-05 0)
(3.9392e-05 -9.76622e-06 0)
(4.44326e-05 -5.01281e-06 0)
(4.60638e-05 5.13468e-08 0)
(4.41302e-05 5.07964e-06 0)
(3.87281e-05 9.6602e-06 0)
(3.02367e-05 1.34772e-05 0)
(1.92694e-05 1.62214e-05 0)
(6.62567e-06 1.76631e-05 0)
(6.23727e-06 -0.000403313 0)
(1.87587e-05 -0.000408065 0)
(3.13658e-05 -0.000407815 0)
(4.41041e-05 -0.000407346 0)
(5.68878e-05 -0.000406678 0)
(6.98246e-05 -0.000405802 0)
(8.28729e-05 -0.000404667 0)
(9.60285e-05 -0.00040327 0)
(0.000109328 -0.000401567 0)
(0.000122962 -0.000399593 0)
(0.000137098 -0.00039731 0)
(0.000151575 -0.000394767 0)
(0.000166497 -0.00039195 0)
(0.000181335 -0.000388822 0)
(0.000196435 -0.000385389 0)
(0.00021202 -0.000381679 0)
(0.000227607 -0.000377654 0)
(0.000243411 -0.000373337 0)
(0.000259649 -0.000368727 0)
(0.000276205 -0.000363799 0)
(0.000293022 -0.000358559 0)
(0.000310189 -0.00035295 0)
(0.000327795 -0.000346918 0)
(0.000345669 -0.000340368 0)
(0.000363854 -0.000333229 0)
(0.000382397 -0.000325427 0)
(0.000401109 -0.000316796 0)
(0.000420134 -0.000307419 0)
(0.000439261 -0.000297156 0)
(0.000458542 -0.000286036 0)
(0.000477702 -0.000274003 0)
(0.000496857 -0.000261168 0)
(0.000515706 -0.000247379 0)
(0.000533567 -0.000232621 0)
(0.000550869 -0.000216828 0)
(0.000567273 -0.000199927 0)
(0.000582612 -0.000181863 0)
(0.000597273 -0.000162663 0)
(0.000610934 -0.000142317 0)
(0.000623184 -0.000120914 0)
(0.000634017 -9.84575e-05 0)
(0.000643256 -7.50446e-05 0)
(0.000650552 -5.07092e-05 0)
(0.000655759 -2.55504e-05 0)
(0.000658823 3.67201e-07 0)
(0.00065943 2.68909e-05 0)
(0.000657469 5.38011e-05 0)
(0.000652711 8.09337e-05 0)
(0.000645002 0.00010811 0)
(0.000634338 0.000135109 0)
(0.000620557 0.000161834 0)
(0.000603688 0.000187958 0)
(0.000583597 0.00021336 0)
(0.000560273 0.00023771 0)
(0.000534226 0.000261005 0)
(0.000505195 0.000282696 0)
(0.000473107 0.000302702 0)
(0.000438434 0.000320695 0)
(0.000401328 0.000336447 0)
(0.000361814 0.000349705 0)
(0.000320253 0.000360322 0)
(0.000277089 0.000367955 0)
(0.000232897 0.00037257 0)
(0.000187875 0.000373855 0)
(0.000142185 0.00037186 0)
(9.65115e-05 0.000366365 0)
(5.13206e-05 0.000357442 0)
(7.26694e-06 0.000344993 0)
(-3.54783e-05 0.000329102 0)
(-7.62953e-05 0.000309821 0)
(-0.000114594 0.000287326 0)
(-0.000149988 0.000261844 0)
(-0.000181899 0.000233621 0)
(-0.00021003 0.000202936 0)
(-0.000233535 0.000170192 0)
(-0.000252439 0.0001357 0)
(-0.000266655 9.99925e-05 0)
(-0.000275202 6.35592e-05 0)
(-0.0002786 2.68742e-05 0)
(-0.000276239 -9.42988e-06 0)
(-0.000268063 -4.47958e-05 0)
(-0.000254694 -7.87e-05 0)
(-0.00023615 -0.000110521 0)
(-0.000212577 -0.000139745 0)
(-0.000184295 -0.00016578 0)
(-0.00015206 -0.000188123 0)
(-0.000116315 -0.000206282 0)
(-7.77319e-05 -0.00021996 0)
(-3.70832e-05 -0.000228734 0)
(4.78622e-06 -0.000232424 0)
(4.69801e-05 -0.000230899 0)
(8.85419e-05 -0.000224123 0)
(0.000128556 -0.000212201 0)
(0.000166091 -0.000195321 0)
(0.000200199 -0.000173838 0)
(0.000229977 -0.000148194 0)
(0.000254677 -0.000118993 0)
(0.000273619 -8.69032e-05 0)
(0.000286211 -5.26996e-05 0)
(0.00029191 -1.7234e-05 0)
(0.000290391 1.86044e-05 0)
(0.000281602 5.38108e-05 0)
(0.00026585 8.7454e-05 0)
(0.000243419 0.000118552 0)
(0.000214769 0.000146201 0)
(0.000180648 0.000169519 0)
(0.000142052 0.000187779 0)
(9.99321e-05 0.000200398 0)
(5.55545e-05 0.000206868 0)
(1.03622e-05 0.000206996 0)
(-3.43446e-05 0.000200634 0)
(-7.69934e-05 0.000188008 0)
(-0.000116237 0.000169484 0)
(-0.000150793 0.000145677 0)
(-0.000179367 0.00011739 0)
(-0.000201003 8.56371e-05 0)
(-0.000214941 5.15493e-05 0)
(-0.000220704 1.64256e-05 0)
(-0.000217878 -1.83634e-05 0)
(-0.000206586 -5.15524e-05 0)
(-0.000187625 -8.17442e-05 0)
(-0.000161667 -0.00010779 0)
(-0.000129787 -0.000128571 0)
(-9.33967e-05 -0.000143215 0)
(-5.42104e-05 -0.00015123 0)
(-1.39205e-05 -0.000152144 0)
(2.55628e-05 -0.000146104 0)
(6.238e-05 -0.000133477 0)
(9.48088e-05 -0.000114978 0)
(0.000121399 -9.15907e-05 0)
(0.000140869 -6.45981e-05 0)
(0.000152319 -3.55333e-05 0)
(0.000155489 -5.98376e-06 0)
(0.000150175 2.22699e-05 0)
(0.000137028 4.77938e-05 0)
(0.000117133 6.93078e-05 0)
(9.17298e-05 8.53896e-05 0)
(6.25748e-05 9.53662e-05 0)
(3.17218e-05 9.86796e-05 0)
(1.14018e-06 9.53061e-05 0)
(-2.71257e-05 8.57209e-05 0)
(-5.11652e-05 7.07612e-05 0)
(-6.94209e-05 5.16757e-05 0)
(-8.08641e-05 2.99667e-05 0)
(-8.48353e-05 7.33874e-06 0)
(-8.13192e-05 -1.44479e-05 0)
(-7.09517e-05 -3.37295e-05 0)
(-5.47734e-05 -4.91343e-05 0)
(-3.44166e-05 -5.95072e-05 0)
(-1.15478e-05 -6.42129e-05 0)
(1.1702e-05 -6.29156e-05 0)
(3.30312e-05 -5.62553e-05 0)
(5.07137e-05 -4.50049e-05 0)
(6.33666e-05 -3.03764e-05 0)
(7.00787e-05 -1.39581e-05 0)
(7.04803e-05 2.62352e-06 0)
(6.48297e-05 1.77318e-05 0)
(5.41209e-05 2.99969e-05 0)
(3.96436e-05 3.83418e-05 0)
(2.30821e-05 4.21705e-05 0)
(6.20992e-06 4.13512e-05 0)
(-9.14945e-06 3.61931e-05 0)
(-2.13859e-05 2.76728e-05 0)
(-2.94705e-05 1.68875e-05 0)
(-3.2785e-05 5.20872e-06 0)
(-3.12996e-05 -6.00361e-06 0)
(-2.54971e-05 -1.55097e-05 0)
(-1.63679e-05 -2.23246e-05 0)
(-4.9979e-06 -2.57879e-05 0)
(6.93047e-06 -2.56278e-05 0)
(1.76459e-05 -2.20671e-05 0)
(2.60529e-05 -1.5685e-05 0)
(3.11546e-05 -7.29895e-06 0)
(3.22842e-05 2.03445e-06 0)
(2.93025e-05 1.12958e-05 0)
(2.2533e-05 1.94384e-05 0)
(1.26224e-05 2.56183e-05 0)
(2.07774e-07 2.92286e-05 0)
(-1.31891e-05 2.98821e-05 0)
(-2.58918e-05 2.75986e-05 0)
(-3.69716e-05 2.26809e-05 0)
(-4.53985e-05 1.55987e-05 0)
(-5.03383e-05 7.11778e-06 0)
(-5.13064e-05 -2.01282e-06 0)
(-4.81937e-05 -1.09491e-05 0)
(-4.12459e-05 -1.89377e-05 0)
(-3.10129e-05 -2.5311e-05 0)
(-1.83852e-05 -2.95902e-05 0)
(-4.2461e-06 -3.14694e-05 0)
(1.02491e-05 -3.08483e-05 0)
(2.38364e-05 -2.78495e-05 0)
(3.55812e-05 -2.27707e-05 0)
(4.45831e-05 -1.60228e-05 0)
(5.01456e-05 -8.16505e-06 0)
(5.1863e-05 1.94414e-07 0)
(4.95833e-05 8.44814e-06 0)
(4.34405e-05 1.5968e-05 0)
(3.38796e-05 2.2214e-05 0)
(2.15639e-05 2.66976e-05 0)
(7.40577e-06 2.9061e-05 0)
(7.91288e-06 -0.000315283 0)
(2.41383e-05 -0.000313854 0)
(4.06588e-05 -0.000312884 0)
(5.75603e-05 -0.000311497 0)
(7.47637e-05 -0.000309662 0)
(9.25235e-05 -0.000307513 0)
(0.000110668 -0.000304965 0)
(0.000129162 -0.000302195 0)
(0.000147832 -0.000299106 0)
(0.00016661 -0.000296047 0)
(0.000185529 -0.000293053 0)
(0.0002045 -0.000290451 0)
(0.000224011 -0.000288317 0)
(0.000243952 -0.000286849 0)
(0.000263954 -0.000285963 0)
(0.000284154 -0.000285785 0)
(0.000304523 -0.00028615 0)
(0.000324868 -0.000287121 0)
(0.000345472 -0.000288324 0)
(0.000366205 -0.000289733 0)
(0.00038725 -0.000291164 0)
(0.000408853 -0.000292558 0)
(0.000431212 -0.000293751 0)
(0.000454331 -0.0002946 0)
(0.000477975 -0.000294839 0)
(0.000502643 -0.000294487 0)
(0.00052731 -0.000293089 0)
(0.000551775 -0.000290809 0)
(0.000576216 -0.000287269 0)
(0.000600051 -0.000282658 0)
(0.000622822 -0.000276649 0)
(0.000644959 -0.000269181 0)
(0.000667035 -0.00026006 0)
(0.000688504 -0.000249074 0)
(0.000709727 -0.000236239 0)
(0.000730462 -0.000221313 0)
(0.000750181 -0.000204184 0)
(0.000768717 -0.000184788 0)
(0.000785574 -0.000163034 0)
(0.00080059 -0.000138973 0)
(0.000813634 -0.000112608 0)
(0.000824475 -8.40324e-05 0)
(0.000833022 -5.33875e-05 0)
(0.000838991 -2.08795e-05 0)
(0.000841833 1.32181e-05 0)
(0.000840689 4.89286e-05 0)
(0.000835599 8.58674e-05 0)
(0.000826718 0.000123847 0)
(0.000814 0.000162504 0)
(0.000797652 0.000201536 0)
(0.000777277 0.000240485 0)
(0.000752963 0.000279142 0)
(0.000724725 0.000316813 0)
(0.000692892 0.000353333 0)
(0.000657058 0.000388171 0)
(0.000617172 0.000420867 0)
(0.000573806 0.00045101 0)
(0.000526683 0.00047823 0)
(0.000476446 0.000501991 0)
(0.000423337 0.000522058 0)
(0.000367669 0.000538019 0)
(0.000310021 0.000549566 0)
(0.000250672 0.000556415 0)
(0.000190314 0.000558206 0)
(0.000129389 0.000554909 0)
(6.87248e-05 0.000546286 0)
(8.94672e-06 0.000532337 0)
(-4.95617e-05 0.000513006 0)
(-0.000105898 0.000488374 0)
(-0.000159535 0.000458642 0)
(-0.000209489 0.000424006 0)
(-0.00025523 0.000384783 0)
(-0.00029625 0.000341381 0)
(-0.000331742 0.00029427 0)
(-0.000361272 0.000244068 0)
(-0.000384379 0.000191269 0)
(-0.000400594 0.000136715 0)
(-0.00040961 8.11242e-05 0)
(-0.000411028 2.5201e-05 0)
(-0.000404842 -2.98285e-05 0)
(-0.000390979 -8.35104e-05 0)
(-0.000369813 -0.000134799 0)
(-0.000341727 -0.000182849 0)
(-0.000306822 -0.000226698 0)
(-0.000265765 -0.00026563 0)
(-0.000219325 -0.00029882 0)
(-0.000168349 -0.000325575 0)
(-0.000113655 -0.000345315 0)
(-5.63476e-05 -0.00035755 0)
(2.32728e-06 -0.000361961 0)
(6.11581e-05 -0.000358339 0)
(0.000118856 -0.000346717 0)
(0.000174172 -0.0003272 0)
(0.000225791 -0.000300159 0)
(0.000272434 -0.000266125 0)
(0.000312874 -0.000225816 0)
(0.000346078 -0.000180103 0)
(0.000371154 -0.000130137 0)
(0.000387335 -7.70972e-05 0)
(0.00039417 -2.23593e-05 0)
(0.000391056 3.26259e-05 0)
(0.000377943 8.65658e-05 0)
(0.000355247 0.000137939 0)
(0.000323444 0.000185249 0)
(0.000283236 0.000227071 0)
(0.00023569 0.000262135 0)
(0.000182243 0.000289304 0)
(0.000124226 0.000307641 0)
(6.34597e-05 0.000316583 0)
(1.78108e-06 0.000315665 0)
(-5.88791e-05 0.000304863 0)
(-0.000116387 0.000284511 0)
(-0.000168883 0.000255169 0)
(-0.000214657 0.000217862 0)
(-0.000251961 0.000173829 0)
(-0.000279536 0.000124675 0)
(-0.000296432 7.21371e-05 0)
(-0.0003019 1.82703e-05 0)
(-0.000295809 -3.47915e-05 0)
(-0.000278326 -8.52339e-05 0)
(-0.000250336 -0.000130831 0)
(-0.000213059 -0.000169825 0)
(-0.000168 -0.000200537 0)
(-0.000117321 -0.000221764 0)
(-6.31295e-05 -0.000232548 0)
(-7.81819e-06 -0.000232651 0)
(4.57373e-05 -0.000221987 0)
(9.5173e-05 -0.000201338 0)
(0.00013818 -0.000171822 0)
(0.000172754 -0.000135058 0)
(0.000197221 -9.30621e-05 0)
(0.000210457 -4.81168e-05 0)
(0.000211939 -2.81452e-06 0)
(0.000201914 4.043e-05 0)
(0.000181667 7.91763e-05 0)
(0.000152201 0.000111318 0)
(0.000115533 0.000134972 0)
(7.43431e-05 0.000149058 0)
(3.11047e-05 0.000152758 0)
(-1.11035e-05 0.000146241 0)
(-4.94732e-05 0.000130211 0)
(-8.1529e-05 0.000106098 0)
(-0.000105224 7.58787e-05 0)
(-0.000119219 4.18652e-05 0)
(-0.000122733 6.82628e-06 0)
(-0.000115846 -2.65561e-05 0)
(-9.9614e-05 -5.582e-05 0)
(-7.56828e-05 -7.8776e-05 0)
(-4.63213e-05 -9.38665e-05 0)
(-1.39387e-05 -9.99845e-05 0)
(1.83872e-05 -9.70057e-05 0)
(4.74506e-05 -8.57006e-05 0)
(7.10876e-05 -6.74934e-05 0)
(8.73857e-05 -4.43578e-05 0)
(9.52034e-05 -1.87197e-05 0)
(9.42246e-05 6.80705e-06 0)
(8.49952e-05 2.98328e-05 0)
(6.90034e-05 4.81479e-05 0)
(4.81857e-05 6.02819e-05 0)
(2.49512e-05 6.53023e-05 0)
(1.7238e-06 6.31978e-05 0)
(-1.8913e-05 5.45665e-05 0)
(-3.48788e-05 4.08953e-05 0)
(-4.4881e-05 2.39905e-05 0)
(-4.82401e-05 5.95391e-06 0)
(-4.50545e-05 -1.10714e-05 0)
(-3.6133e-05 -2.53139e-05 0)
(-2.29286e-05 -3.52911e-05 0)
(-6.99685e-06 -4.01371e-05 0)
(9.39471e-06 -3.94442e-05 0)
(2.39625e-05 -3.3722e-05 0)
(3.52298e-05 -2.38284e-05 0)
(4.1988e-05 -1.10812e-05 0)
(4.34877e-05 2.92214e-06 0)
(3.96241e-05 1.66868e-05 0)
(3.09007e-05 2.86458e-05 0)
(1.82455e-05 3.76104e-05 0)
(2.59634e-06 4.27205e-05 0)
(-1.41433e-05 4.34938e-05 0)
(-2.99276e-05 3.99999e-05 0)
(-4.35839e-05 3.27095e-05 0)
(-5.38451e-05 2.23946e-05 0)
(-5.97583e-05 1.01047e-05 0)
(-6.08397e-05 -2.97758e-06 0)
(-5.69966e-05 -1.57283e-05 0)
(-4.86071e-05 -2.7019e-05 0)
(-3.63988e-05 -3.59467e-05 0)
(-2.14481e-05 -4.18583e-05 0)
(-4.83765e-06 -4.43646e-05 0)
(1.20515e-05 -4.33365e-05 0)
(2.77627e-05 -3.89883e-05 0)
(4.12398e-05 -3.17573e-05 0)
(5.14755e-05 -2.22473e-05 0)
(5.77004e-05 -1.12302e-05 0)
(5.95034e-05 4.48056e-07 0)
(5.67476e-05 1.1927e-05 0)
(4.96165e-05 2.23702e-05 0)
(3.86306e-05 3.10128e-05 0)
(2.45679e-05 3.72108e-05 0)
(8.4399e-06 4.04727e-05 0)
(9.47812e-06 -0.000646985 0)
(2.84527e-05 -0.000653914 0)
(4.7288e-05 -0.00065513 0)
(6.59922e-05 -0.000656823 0)
(8.40763e-05 -0.000658434 0)
(0.000102 -0.000660375 0)
(0.000119426 -0.000660802 0)
(0.00013635 -0.000661501 0)
(0.0001519 -0.000658968 0)
(0.000165497 -0.000655488 0)
(0.000177448 -0.00064886 0)
(0.000187377 -0.000640779 0)
(0.000196202 -0.000630773 0)
(0.000204408 -0.000619856 0)
(0.000212721 -0.000608377 0)
(0.000221838 -0.000596971 0)
(0.000231674 -0.000586259 0)
(0.000243459 -0.000576627 0)
(0.000257852 -0.00056878 0)
(0.000273624 -0.000562567 0)
(0.000290923 -0.00055783 0)
(0.000309736 -0.000554694 0)
(0.000330522 -0.000552369 0)
(0.000353586 -0.000551131 0)
(0.000378108 -0.000549195 0)
(0.00040501 -0.000547558 0)
(0.000433285 -0.000543198 0)
(0.000462623 -0.000538687 0)
(0.000492696 -0.000529854 0)
(0.000523291 -0.000519984 0)
(0.000555185 -0.000506541 0)
(0.000587932 -0.000490547 0)
(0.000621933 -0.000471551 0)
(0.000655646 -0.000449612 0)
(0.000689509 -0.000424541 0)
(0.000723678 -0.000396407 0)
(0.000757079 -0.000365171 0)
(0.000789868 -0.000330871 0)
(0.000821256 -0.000293585 0)
(0.000850504 -0.000253338 0)
(0.000877448 -0.000210256 0)
(0.000901387 -0.000164576 0)
(0.000921601 -0.00011633 0)
(0.000937465 -6.59135e-05 0)
(0.000949823 -1.36415e-05 0)
(0.000957945 4.03914e-05 0)
(0.000960953 9.57827e-05 0)
(0.000958845 0.000151958 0)
(0.000951121 0.000209024 0)
(0.000937544 0.000265894 0)
(0.00091835 0.000322605 0)
(0.000892855 0.000378509 0)
(0.000861142 0.000432909 0)
(0.000823963 0.000485456 0)
(0.000780755 0.000535419 0)
(0.000731825 0.000582181 0)
(0.000677569 0.000625189 0)
(0.000618039 0.000663772 0)
(0.000553968 0.000697555 0)
(0.000485889 0.000725915 0)
(0.000414012 0.000748292 0)
(0.000339243 0.000764367 0)
(0.000262045 0.000773553 0)
(0.000183484 0.000775766 0)
(0.000104177 0.000770462 0)
(2.49266e-05 0.000757792 0)
(-5.32182e-05 0.000737348 0)
(-0.000129409 0.000709382 0)
(-0.000202672 0.000673867 0)
(-0.000272083 0.000631156 0)
(-0.000336707 0.000581535 0)
(-0.000395657 0.000525415 0)
(-0.000448001 0.00046344 0)
(-0.000492827 0.00039633 0)
(-0.000529453 0.000324789 0)
(-0.000557383 0.000249826 0)
(-0.000575942 0.000172408 0)
(-0.000584765 9.36898e-05 0)
(-0.000583124 1.48918e-05 0)
(-0.000571237 -6.28412e-05 0)
(-0.000549653 -0.000138311 0)
(-0.000518141 -0.000210348 0)
(-0.000477133 -0.000277556 0)
(-0.00042721 -0.000338768 0)
(-0.000369194 -0.000392741 0)
(-0.000304033 -0.000438461 0)
(-0.000232932 -0.000474859 0)
(-0.000157128 -0.000501247 0)
(-7.81048e-05 -0.000516897 0)
(2.53692e-06 -0.000521381 0)
(8.30388e-05 -0.000514453 0)
(0.000161711 -0.000496156 0)
(0.000236872 -0.000466733 0)
(0.000306654 -0.000426753 0)
(0.00036942 -0.000376954 0)
(0.000423597 -0.000318397 0)
(0.000467618 -0.000252353 0)
(0.000500287 -0.00018041 0)
(0.000520679 -0.000104331 0)
(0.000527937 -2.60501e-05 0)
(0.000522069 5.2547e-05 0)
(0.000503055 0.000129238 0)
(0.000471012 0.000201919 0)
(0.000426629 0.000268589 0)
(0.000371031 0.000327166 0)
(0.000305732 0.000375912 0)
(0.000232538 0.000413265 0)
(0.000153638 0.000437942 0)
(7.13243e-05 0.000449151 0)
(-1.18884e-05 0.000446256 0)
(-9.31703e-05 0.000429383 0)
(-0.000169877 0.000398974 0)
(-0.000239459 0.000355907 0)
(-0.00029952 0.00030173 0)
(-0.000347854 0.000238238 0)
(-0.000382781 0.000167699 0)
(-0.000402995 9.26862e-05 0)
(-0.000407572 1.60295e-05 0)
(-0.000396735 -5.89745e-05 0)
(-0.000370679 -0.00012985 0)
(-0.000330542 -0.000193696 0)
(-0.000278152 -0.000247746 0)
(-0.000215659 -0.000289788 0)
(-0.00014583 -0.000318092 0)
(-7.20103e-05 -0.00033148 0)
(2.65688e-06 -0.000329549 0)
(7.46239e-05 -0.000312446 0)
(0.000140241 -0.000281282 0)
(0.0001966 -0.000237709 0)
(0.00024104 -0.000184157 0)
(0.000271488 -0.000123613 0)
(0.000286408 -5.92781e-05 0)
(0.000285562 5.20768e-06 0)
(0.000269259 6.63387e-05 0)
(0.000238867 0.000120732 0)
(0.000196431 0.000165102 0)
(0.000144821 0.000197344 0)
(8.74275e-05 0.00021547 0)
(2.80546e-05 0.00021896 0)
(-2.92196e-05 0.000207677 0)
(-8.07114e-05 0.000183138 0)
(-0.000122941 0.000147242 0)
(-0.000153355 0.000102958 0)
(-0.00017012 5.37366e-05 0)
(-0.000172317 3.53147e-06 0)
(-0.000160536 -4.39212e-05 0)
(-0.000136269 -8.5064e-05 0)
(-0.00010187 -0.000116814 0)
(-6.04433e-05 -0.000136868 0)
(-1.54835e-05 -0.000144215 0)
(2.86002e-05 -0.000138342 0)
(6.76996e-05 -0.000120735 0)
(9.87991e-05 -9.34941e-05 0)
(0.000119493 -5.9564e-05 0)
(0.000128322 -2.25143e-05 0)
(0.000125151 1.387e-05 0)
(0.00011088 4.62588e-05 0)
(8.76865e-05 7.15924e-05 0)
(5.83868e-05 8.76977e-05 0)
(2.6315e-05 9.36847e-05 0)
(-5.10526e-06 8.94222e-05 0)
(-3.24956e-05 7.60791e-05 0)
(-5.3075e-05 5.57998e-05 0)
(-6.53022e-05 3.13112e-05 0)
(-6.83588e-05 5.58027e-06 0)
(-6.2683e-05 -1.83675e-05 0)
(-4.95494e-05 -3.8069e-05 0)
(-3.0948e-05 -5.15535e-05 0)
(-9.07904e-06 -5.76807e-05 0)
(1.30216e-05 -5.60724e-05 0)
(3.23896e-05 -4.75395e-05 0)
(4.72141e-05 -3.3369e-05 0)
(5.58933e-05 -1.54468e-05 0)
(5.76861e-05 4.03161e-06 0)
(5.25784e-05 2.29275e-05 0)
(4.12636e-05 3.91663e-05 0)
(2.50928e-05 5.11326e-05 0)
(5.38072e-06 5.77943e-05 0)
(-1.55085e-05 5.85477e-05 0)
(-3.5075e-05 5.35781e-05 0)
(-5.18165e-05 4.35808e-05 0)
(-6.42546e-05 2.9646e-05 0)
(-7.1272e-05 1.32133e-05 0)
(-7.23863e-05 -4.15777e-06 0)
(-6.75944e-05 -2.0926e-05 0)
(-5.73836e-05 -3.56572e-05 0)
(-4.27317e-05 -4.71991e-05 0)
(-2.49686e-05 -5.47114e-05 0)
(-5.40811e-06 -5.77526e-05 0)
(1.43221e-05 -5.62031e-05 0)
(3.25354e-05 -5.03946e-05 0)
(4.80263e-05 -4.08614e-05 0)
(5.96765e-05 -2.84734e-05 0)
(6.66482e-05 -1.42134e-05 0)
(6.85133e-05 8.3288e-07 0)
(6.51692e-05 1.55714e-05 0)
(5.68582e-05 2.89247e-05 0)
(4.41972e-05 3.9965e-05 0)
(2.80713e-05 4.78665e-05 0)
(9.63318e-06 5.20128e-05 0)
(5.18979e-06 -0.000501768 0)
(1.64494e-05 -0.000496939 0)
(2.82679e-05 -0.000488126 0)
(4.35375e-05 -0.000475193 0)
(6.02226e-05 -0.000456819 0)
(8.4442e-05 -0.000435525 0)
(0.000108758 -0.00040665 0)
(0.000141143 -0.000379068 0)
(0.000177796 -0.000342804 0)
(0.00021393 -0.000313778 0)
(0.000252903 -0.000288139 0)
(0.00028585 -0.000271022 0)
(0.000316553 -0.000260425 0)
(0.000341088 -0.000257918 0)
(0.000361123 -0.000262539 0)
(0.000375653 -0.000273431 0)
(0.000385764 -0.000289746 0)
(0.000391661 -0.000310157 0)
(0.000396852 -0.000333806 0)
(0.000402726 -0.000358961 0)
(0.000408906 -0.000385395 0)
(0.000419405 -0.000412885 0)
(0.000433383 -0.000440401 0)