/*--------------------------------*- C++ -*----------------------------------*\
  =========                 |
  \\      /  F ield         | OpenFOAM: The Open Source CFD Toolbox
   \\    /   O peration     | Website:  https://openfoam.org
    \\  /    A nd           | Version:  12
     \\/     M anipulation  |
\*---------------------------------------------------------------------------*/
FoamFile
{
    format      ascii;
    class       volVectorField;
    location    "9";
    object      zeta;
}
// * * * * * * * * * * * * * * * * * * * * * * * * * * * * * * * * * * * * * //

dimensions      [0 1 0 0 0 0 0];

internalField   uniform (0 0 0);

boundaryField
{
    freeSurface
    {
        type            calculated;
        value           nonuniform List<vector> 
181
(
(0 0.00547565 0)
(0 0.00547527 0)
(0 0.00547481 0)
(0 0.00547378 0)
(0 0.00547313 0)
(0 0.00547194 0)
(0 0.00547173 0)
(0 0.0054705 0)
(0 0.000737743 0)
(0 0.000743418 0)
(0 0.000757619 0)
(0 0.000775406 0)
(0 0.00079845 0)
(0 0.000826066 0)
(0 0.000856787 0)
(0 0.000890348 0)
(0 0.000925526 0)
(0 0.000961745 0)
(0 0.000997689 0)
(0 0.00103254 0)
(0 0.00106526 0)
(0 0.00109496 0)
(0 0.00112075 0)
(0 0.00114221 0)
(0 0.00115862 0)
(0 0.00116933 0)
(0 0.00117376 0)
(0 0.0011714 0)
(0 0.00116179 0)
(0 0.00114461 0)
(0 0.00111973 0)
(0 0.00108692 0)
(0 0.00104618 0)
(0 0.000997608 0)
(0 0.000941198 0)
(0 0.00087726 0)
(0 0.000806094 0)
(0 0.000728178 0)
(0 0.000644041 0)
(0 0.00055432 0)
(0 0.000459716 0)
(0 0.000361039 0)
(0 0.000259215 0)
(0 0.000155229 0)
(0 5.01543e-05 0)
(0 -5.48482e-05 0)
(0 -0.000158526 0)
(0 -0.000259699 0)
(0 -0.000357099 0)
(0 -0.000449384 0)
(0 -0.000535222 0)
(0 -0.000613443 0)
(0 -0.000682832 0)
(0 -0.000742364 0)
(0 -0.000790968 0)
(0 -0.000827719 0)
(0 -0.000851892 0)
(0 -0.000862944 0)
(0 -0.000860485 0)
(0 -0.000844273 0)
(0 -0.000814342 0)
(0 -0.000770918 0)
(0 -0.000714576 0)
(0 -0.000646128 0)
(0 -0.000566462 0)
(0 -0.000477014 0)
(0 -0.000379132 0)
(0 -0.000274742 0)
(0 -0.000165721 0)
(0 -5.41706e-05 0)
(0 5.76851e-05 0)
(0 0.000167412 0)
(0 0.000272746 0)
(0 0.00037125 0)
(0 0.000460627 0)
(0 0.000538705 0)
(0 0.000603489 0)
(0 0.000653249 0)
(0 0.000686524 0)
(0 0.000702419 0)
(0 0.000700153 0)
(0 0.000679671 0)
(0 0.000641279 0)
(0 0.000585856 0)
(0 0.000514831 0)
(0 0.00043008 0)
(0 0.000333956 0)
(0 0.000229287 0)
(0 0.000119186 0)
(0 7.13957e-06 0)
(0 -0.000103297 0)
(0 -0.000208539 0)
(0 -0.000304922 0)
(0 -0.000389098 0)
(0 -0.000458169 0)
(0 -0.000509388 0)
(0 -0.000541004 0)
(0 -0.000551714 0)
(0 -0.000541092 0)
(0 -0.000509544 0)
(0 -0.000458388 0)
(0 -0.000389772 0)
(0 -0.000306641 0)
(0 -0.00021277 0)
(0 -0.00011221 0)
(0 -9.7889e-06 0)
(0 8.9864e-05 0)
(0 0.000181967 0)
(0 0.000262126 0)
(0 0.000326373 0)
(0 0.000371628 0)
(0 0.000395773 0)
(0 0.000397677 0)
(0 0.000377559 0)
(0 0.000336941 0)
(0 0.00027851 0)
(0 0.000206092 0)
(0 0.000124406 0)
(0 3.87455e-05 0)
(0 -4.52417e-05 0)
(0 -0.000122312 0)
(0 -0.000187439 0)
(0 -0.000236547 0)
(0 -0.000266573 0)
(0 -0.000275955 0)
(0 -0.000264633 0)
(0 -0.000234156 0)
(0 -0.00018757 0)
(0 -0.000129358 0)
(0 -6.49011e-05 0)
(0 -3.14916e-07 0)
(0 5.87827e-05 0)
(0 0.000107077 0)
(0 0.000140414 0)
(0 0.000156278 0)
(0 0.000154095 0)
(0 0.000135093 0)
(0 0.00010229 0)
(0 5.99809e-05 0)
(0 1.33343e-05 0)
(0 -3.23713e-05 0)
(0 -7.24288e-05 0)
(0 -0.000102972 0)
(0 -0.000121443 0)
(0 -0.000126824 0)
(0 -0.000119606 0)
(0 -0.000101633 0)
(0 -7.57385e-05 0)
(0 -4.53566e-05 0)
(0 -1.40611e-05 0)
(0 1.49379e-05 0)
(0 3.89759e-05 0)
(0 5.61458e-05 0)
(0 6.54776e-05 0)
(0 6.69054e-05 0)
(0 6.11644e-05 0)
(0 4.96044e-05 0)
(0 3.39968e-05 0)
(0 1.63308e-05 0)
(0 -1.43644e-06 0)
(0 -1.77083e-05 0)
(0 -3.11241e-05 0)
(0 -4.08026e-05 0)
(0 -4.63535e-05 0)
(0 -4.78278e-05 0)
(0 -4.56743e-05 0)
(0 -4.06264e-05 0)
(0 -3.36085e-05 0)
(0 -2.56154e-05 0)
(0 -1.76057e-05 0)
(0 -1.04377e-05 0)
(0 -4.74212e-06 0)
(0 -9.49265e-07 0)
(0 7.87872e-07 0)
(0 5.82819e-07 0)
(0 -1.24052e-06 0)
(0 -4.18289e-06 0)
(0 -7.64479e-06 0)
(0 -1.09914e-05 0)
(0 -1.3632e-05 0)
(0 -1.50966e-05 0)
)
;
    }
    walls
    {
        type            calculated;
        value           uniform (0 0 0);
    }
    floatingObject
    {
        type            calculated;
        value           uniform (0 0 0);
    }
    frontAndBack
    {
        type            empty;
    }
}


// ************************************************************************* //
