/*--------------------------------*- C++ -*----------------------------------*\
  =========                 |
  \\      /  F ield         | OpenFOAM: The Open Source CFD Toolbox
   \\    /   O peration     | Website:  https://openfoam.org
    \\  /    A nd           | Version:  12
     \\/     M anipulation  |
\*---------------------------------------------------------------------------*/
FoamFile
{
    format      ascii;
    class       volScalarField;
    location    "1400";
    object      epsilon;
}
// * * * * * * * * * * * * * * * * * * * * * * * * * * * * * * * * * * * * * //

dimensions      [0 2 -3 0 0 0 0];

internalField   nonuniform List<scalar> 
80
(
392.801
153.149
85.778
56.8602
41.1088
31.2992
24.6851
20.0018
16.5788
14.0211
12.0775
10.5794
9.41009
8.48674
7.74961
7.15514
6.67115
6.27367
5.94464
5.67032
5.44014
5.2459
5.08117
4.94088
4.82097
4.71821
4.62997
4.5541
4.48886
4.43282
4.3848
4.34383
4.30911
4.27997
4.25589
4.23643
4.22124
4.21008
4.20273
4.19909
4.1991
4.20274
4.21008
4.22125
4.23643
4.2559
4.27998
4.30912
4.34385
4.38482
4.43284
4.48888
4.55412
4.62999
4.71824
4.821
4.94091
5.0812
5.24593
5.44017
5.67035
5.94467
6.2737
6.67117
7.15516
7.74964
8.48676
9.4101
10.5794
12.0774
14.0211
16.5788
20.0017
24.685
31.2991
41.1087
56.86
85.7777
153.149
392.8
)
;

boundaryField
{
    lowerWall
    {
        type            epsilonWallFunction;
        value           uniform 392.801;
    }
    upperWall
    {
        type            epsilonWallFunction;
        value           uniform 392.8;
    }
    front
    {
        type            cyclic;
    }
    back
    {
        type            cyclic;
    }
    defaultFaces
    {
        type            empty;
    }
}


// ************************************************************************* //
