/*--------------------------------*- C++ -*----------------------------------*\
  =========                 |
  \\      /  F ield         | OpenFOAM: The Open Source CFD Toolbox
   \\    /   O peration     | Website:  https://openfoam.org
    \\  /    A nd           | Version:  12
     \\/     M anipulation  |
\*---------------------------------------------------------------------------*/
FoamFile
{
    format      ascii;
    class       volSymmTensorField;
    location    "1400";
    object      R;
}
// * * * * * * * * * * * * * * * * * * * * * * * * * * * * * * * * * * * * * //

dimensions      [0 2 -2 0 0 0 0];

internalField   nonuniform List<symmTensor> 
80
(
(0.48073 -0.670709 -0 0.48073 -0 0.48073)
(0.473542 -0.219413 -0 0.473542 -0 0.473542)
(0.444714 -0.201488 -0 0.444714 -0 0.444714)
(0.422183 -0.191138 -0 0.422183 -0 0.422183)
(0.403659 -0.182012 -0 0.403659 -0 0.403659)
(0.388252 -0.173351 -0 0.388252 -0 0.388252)
(0.375635 -0.16495 -0 0.375635 -0 0.375635)
(0.365623 -0.156778 -0 0.365623 -0 0.365623)
(0.35802 -0.148854 -0 0.35802 -0 0.35802)
(0.35258 -0.141218 -0 0.35258 -0 0.35258)
(0.34902 -0.133906 -0 0.34902 -0 0.34902)
(0.347043 -0.126948 -0 0.347043 -0 0.347043)
(0.346366 -0.120365 -0 0.346366 -0 0.346366)
(0.346729 -0.114162 -0 0.346729 -0 0.346729)
(0.347908 -0.108335 -0 0.347908 -0 0.347908)
(0.349712 -0.102867 -0 0.349712 -0 0.349712)
(0.351984 -0.0977335 -0 0.351984 -0 0.351984)
(0.354596 -0.0929016 -0 0.354596 -0 0.354596)
(0.357443 -0.088335 -0 0.357443 -0 0.357443)
(0.360442 -0.0839949 -0 0.360442 -0 0.360442)
(0.363524 -0.0798415 -0 0.363524 -0 0.363524)
(0.366632 -0.0758356 -0 0.366632 -0 0.366632)
(0.369724 -0.0719394 -0 0.369724 -0 0.369724)
(0.372761 -0.0681179 -0 0.372761 -0 0.372761)
(0.375714 -0.064339 -0 0.375714 -0 0.375714)
(0.378558 -0.060574 -0 0.378558 -0 0.378558)
(0.381273 -0.0567981 -0 0.381273 -0 0.381273)
(0.383843 -0.0529904 -0 0.383843 -0 0.383843)
(0.386253 -0.0491341 -0 0.386253 -0 0.386253)
(0.388492 -0.0452162 -0 0.388492 -0 0.388492)
(0.390551 -0.0412276 -0 0.390551 -0 0.390551)
(0.392422 -0.0371629 -0 0.392422 -0 0.392422)
(0.394098 -0.0330201 -0 0.394098 -0 0.394098)
(0.395575 -0.0288005 -0 0.395575 -0 0.395575)
(0.396847 -0.0245081 -0 0.396847 -0 0.396847)
(0.397913 -0.0201498 -0 0.397913 -0 0.397913)
(0.398768 -0.0157343 -0 0.398768 -0 0.398768)
(0.399411 -0.0112726 -0 0.399411 -0 0.399411)
(0.399841 -0.00677664 -0 0.399841 -0 0.399841)
(0.400056 -0.00225983 -0 0.400056 -0 0.400056)
(0.400056 0.00226402 -0 0.400056 -0 0.400056)
(0.399841 0.00678081 -0 0.399841 -0 0.399841)
(0.399411 0.0112767 -0 0.399411 -0 0.399411)
(0.398768 0.0157384 -0 0.398768 -0 0.398768)
(0.397913 0.0201538 -0 0.397913 -0 0.397913)
(0.396848 0.024512 -0 0.396848 -0 0.396848)
(0.395575 0.0288043 -0 0.395575 -0 0.395575)
(0.394099 0.0330238 -0 0.394099 -0 0.394099)
(0.392423 0.0371665 -0 0.392423 -0 0.392423)
(0.390552 0.0412311 -0 0.390552 -0 0.390552)
(0.388493 0.0452195 -0 0.388493 -0 0.388493)
(0.386254 0.0491373 -0 0.386254 -0 0.386254)
(0.383844 0.0529934 -0 0.383844 -0 0.383844)
(0.381275 0.0568009 -0 0.381275 -0 0.381275)
(0.378559 0.0605765 -0 0.378559 -0 0.378559)
(0.375715 0.0643413 -0 0.375715 -0 0.375715)
(0.372762 0.0681201 -0 0.372762 -0 0.372762)
(0.369725 0.0719414 -0 0.369725 -0 0.369725)
(0.366634 0.0758373 -0 0.366634 -0 0.366634)
(0.363525 0.0798431 -0 0.363525 -0 0.363525)
(0.360443 0.0839963 -0 0.360443 -0 0.360443)
(0.357445 0.0883362 -0 0.357445 -0 0.357445)
(0.354597 0.0929026 -0 0.354597 -0 0.354597)
(0.351985 0.0977344 -0 0.351985 -0 0.351985)
(0.349713 0.102868 -0 0.349713 -0 0.349713)
(0.347909 0.108336 -0 0.347909 -0 0.347909)
(0.34673 0.114163 -0 0.34673 -0 0.34673)
(0.346367 0.120365 -0 0.346367 -0 0.346367)
(0.347044 0.126948 -0 0.347044 -0 0.347044)
(0.34902 0.133906 -0 0.34902 -0 0.34902)
(0.35258 0.141218 -0 0.35258 -0 0.35258)
(0.35802 0.148854 -0 0.35802 -0 0.35802)
(0.365623 0.156777 -0 0.365623 -0 0.365623)
(0.375635 0.16495 -0 0.375635 -0 0.375635)
(0.388251 0.17335 -0 0.388251 -0 0.388251)
(0.403658 0.182012 -0 0.403658 -0 0.403658)
(0.422183 0.191138 -0 0.422183 -0 0.422183)
(0.444713 0.201488 -0 0.444713 -0 0.444713)
(0.473541 0.219413 -0 0.473541 -0 0.473541)
(0.48073 0.670708 -0 0.48073 -0 0.48073)
)
;

boundaryField
{
    lowerWall
    {
        type            calculated;
        value           uniform (0.48073 -0.114148 -0 0.48073 -0 0.48073);
    }
    upperWall
    {
        type            calculated;
        value           uniform (0.48073 0.114147 -0 0.48073 -0 0.48073);
    }
    front
    {
        type            cyclic;
    }
    back
    {
        type            cyclic;
    }
    defaultFaces
    {
        type            empty;
    }
}


// ************************************************************************* //
