/*--------------------------------*- C++ -*----------------------------------*\
  =========                 |
  \\      /  F ield         | OpenFOAM: The Open Source CFD Toolbox
   \\    /   O peration     | Website:  https://openfoam.org
    \\  /    A nd           | Version:  12
     \\/     M anipulation  |
\*---------------------------------------------------------------------------*/
FoamFile
{
    format      ascii;
    class       volVectorField;
    location    "1400";
    object      U;
}
// * * * * * * * * * * * * * * * * * * * * * * * * * * * * * * * * * * * * * //

dimensions      [0 1 -1 0 0 0 0];

internalField   nonuniform List<vector> 
80
(
(6.4348 0 0)
(7.63922 0 0)
(8.28482 0 0)
(8.71811 0 0)
(9.0376 0 0)
(9.28503 0 0)
(9.48197 0 0)
(9.6413 0 0)
(9.77158 0 0)
(9.87899 0 0)
(9.96822 0 0)
(10.0429 0 0)
(10.1059 0 0)
(10.1594 0 0)
(10.2054 0 0)
(10.2451 0 0)
(10.2797 0 0)
(10.3101 0 0)
(10.3369 0 0)
(10.3608 0 0)
(10.3822 0 0)
(10.4014 0 0)
(10.4187 0 0)
(10.4344 0 0)
(10.4486 0 0)
(10.4615 0 0)
(10.4732 0 0)
(10.4838 0 0)
(10.4934 0 0)
(10.5021 0 0)
(10.5098 0 0)
(10.5167 0 0)
(10.5228 0 0)
(10.528 0 0)
(10.5325 0 0)
(10.5362 0 0)
(10.5392 0 0)
(10.5414 0 0)
(10.5428 0 0)
(10.5436 0 0)
(10.5436 0 0)
(10.5428 0 0)
(10.5414 0 0)
(10.5392 0 0)
(10.5362 0 0)
(10.5325 0 0)
(10.528 0 0)
(10.5228 0 0)
(10.5167 0 0)
(10.5098 0 0)
(10.5021 0 0)
(10.4934 0 0)
(10.4838 0 0)
(10.4732 0 0)
(10.4615 0 0)
(10.4486 0 0)
(10.4344 0 0)
(10.4187 0 0)
(10.4014 0 0)
(10.3822 0 0)
(10.3608 0 0)
(10.3369 0 0)
(10.31 0 0)
(10.2797 0 0)
(10.2451 0 0)
(10.2054 0 0)
(10.1594 0 0)
(10.1059 0 0)
(10.0429 0 0)
(9.9682 0 0)
(9.87898 0 0)
(9.77156 0 0)
(9.64129 0 0)
(9.48196 0 0)
(9.28502 0 0)
(9.03759 0 0)
(8.71811 0 0)
(8.28481 0 0)
(7.63921 0 0)
(6.4348 0 0)
)
;

boundaryField
{
    lowerWall
    {
        type            noSlip;
    }
    upperWall
    {
        type            noSlip;
    }
    front
    {
        type            cyclic;
    }
    back
    {
        type            cyclic;
    }
    defaultFaces
    {
        type            empty;
    }
}


// ************************************************************************* //
