/*--------------------------------*- C++ -*----------------------------------*\
  =========                 |
  \\      /  F ield         | OpenFOAM: The Open Source CFD Toolbox
   \\    /   O peration     | Website:  https://openfoam.org
    \\  /    A nd           | Version:  12
     \\/     M anipulation  |
\*---------------------------------------------------------------------------*/
FoamFile
{
    format      ascii;
    class       volScalarField;
    location    "1";
    object      nuEff;
}
// * * * * * * * * * * * * * * * * * * * * * * * * * * * * * * * * * * * * * //

dimensions      [0 2 -1 0 0 0 0];

internalField   uniform 0.063739751;

boundaryField
{
    inlet
    {
        type            calculated;
        value           uniform 0.2895056911;
    }
    outlet
    {
        type            calculated;
        value           uniform 0.06373975103;
    }
    walls
    {
        type            calculated;
        value           nonuniform List<scalar> 2(0.005220511407 0.005220563443);
    }
    frontAndBack
    {
        type            empty;
    }
}


// ************************************************************************* //
