/*--------------------------------*- C++ -*----------------------------------*\
  =========                 |
  \\      /  F ield         | OpenFOAM: The Open Source CFD Toolbox
   \\    /   O peration     | Website:  https://openfoam.org
    \\  /    A nd           | Version:  12
     \\/     M anipulation  |
\*---------------------------------------------------------------------------*/
FoamFile
{
    format      ascii;
    class       volSymmTensorField;
    location    "1";
    object      R;
}
// * * * * * * * * * * * * * * * * * * * * * * * * * * * * * * * * * * * * * //

dimensions      [0 2 -2 0 0 0 0];

internalField   uniform (0.1875213332 -2.147805975e-10 0 0.1873308378 0 0.1873308378);

boundaryField
{
    inlet
    {
        type            calculated;
        value           uniform (0.1873857529 -1.95144439e-09 0 0.1856549576 0 0.1856549576);
    }
    outlet
    {
        type            calculated;
        value           uniform (0.1873943363 0 0 0.1873943363 0 0.1873943363);
    }
    walls
    {
        type            calculated;
        value           nonuniform List<symmTensor> 2((0.1874047088 -0.08982594151 0 0.18738915 0 0.1873891501) (0.1874047088 0.0898268084 0 0.1873891501 0 0.18738915));
    }
    frontAndBack
    {
        type            empty;
    }
}


// ************************************************************************* //
