/*--------------------------------*- C++ -*----------------------------------*\
  =========                 |
  \\      /  F ield         | OpenFOAM: The Open Source CFD Toolbox
   \\    /   O peration     | Website:  https://openfoam.org
    \\  /    A nd           | Version:  12
     \\/     M anipulation  |
\*---------------------------------------------------------------------------*/
FoamFile
{
    format      ascii;
    class       volSymmTensorField;
    location    "1";
    object      shearStress;
}
// * * * * * * * * * * * * * * * * * * * * * * * * * * * * * * * * * * * * * //

dimensions      [1 -1 -2 0 0 0 0];

internalField   uniform (0.0001471784942 -2.489122268e-10 -0 -7.35892471e-05 -0 -7.35892471e-05);

boundaryField
{
    inlet
    {
        type            calculated;
        value           uniform (0.001336968294 -2.261116729e-09 -0 -0.0006684841472 -0 -0.0006684841472);
    }
    outlet
    {
        type            calculated;
        value           uniform (-0 -0 -0 -0 -0 -0);
    }
    walls
    {
        type            calculated;
        value           nonuniform List<symmTensor> 2((1.205515234e-05 -0.1043980759 -0 -6.027616946e-06 -0 -6.027535394e-06) (1.205384801e-05 0.1043872511 -0 -6.026883232e-06 -0 -6.026964775e-06));
    }
    frontAndBack
    {
        type            empty;
    }
}


// ************************************************************************* //
