/*--------------------------------*- C++ -*----------------------------------*\
  =========                 |
  \\      /  F ield         | OpenFOAM: The Open Source CFD Toolbox
   \\    /   O peration     | Website:  https://openfoam.org
    \\  /    A nd           | Version:  12
     \\/     M anipulation  |
\*---------------------------------------------------------------------------*/
FoamFile
{
    format      ascii;
    class       volScalarField;
    location    "1";
    object      total(kinematic(p));
}
// * * * * * * * * * * * * * * * * * * * * * * * * * * * * * * * * * * * * * //

dimensions      [1 -1 -2 0 0 0 0];

internalField   uniform 103615.9063;

boundaryField
{
    inlet
    {
        type            calculated;
        value           uniform 103615.9183;
    }
    outlet
    {
        type            calculated;
        value           uniform 103615.9062;
    }
    walls
    {
        type            calculated;
        value           nonuniform List<scalar> 2(103571.2261 103571.2261);
    }
    frontAndBack
    {
        type            empty;
    }
}


// ************************************************************************* //
