/*--------------------------------*- C++ -*----------------------------------*\
  =========                 |
  \\      /  F ield         | OpenFOAM: The Open Source CFD Toolbox
   \\    /   O peration     | Website:  https://openfoam.org
    \\  /    A nd           | Version:  12
     \\/     M anipulation  |
\*---------------------------------------------------------------------------*/
FoamFile
{
    format      ascii;
    class       volScalarField;
    location    "1.32";
    object      p;
}
// * * * * * * * * * * * * * * * * * * * * * * * * * * * * * * * * * * * * * //

dimensions      [1 -1 -2 0 0 0 0];

internalField   nonuniform List<scalar> 
3829
(
-615.13
-615.13
-615.129
-615.129
-615.127
-615.126
-615.124
-615.122
-615.12
-615.117
-615.114
-615.111
-615.107
-615.103
-615.098
-615.094
-615.088
-615.083
-615.077
-615.071
-615.064
-615.057
-615.05
-615.042
-615.034
-615.026
-615.017
-615.008
-614.999
-614.989
-614.979
-614.968
-614.957
-614.946
-614.934
-614.922
-614.91
-614.897
-614.884
-614.871
-614.857
-614.843
-614.829
-614.814
-614.799
-614.784
-614.768
-614.753
-614.737
-614.721
-614.704
-614.688
-614.671
-614.654
-614.638
-614.621
-614.604
-614.587
-614.571
-614.554
-614.538
-614.521
-614.505
-614.49
-614.474
-614.459
-614.445
-614.43
-614.417
-614.403
-614.391
-614.378
-614.367
-614.356
-614.345
-614.335
-614.326
-614.318
-614.31
-614.303
-614.296
-614.29
-614.285
-614.28
-614.276
-614.273
-614.27
-614.268
-614.266
-614.265
-614.264
-614.264
-614.264
-614.265
-614.266
-614.267
-614.269
-614.271
-614.274
-614.276
-614.279
-614.282
-614.285
-614.289
-614.292
-614.296
-614.3
-614.303
-614.307
-614.311
-614.314
-614.318
-614.322
-614.325
-614.329
-614.332
-614.335
-614.338
-614.341
-614.344
-614.347
-614.349
-614.352
-614.354
-614.356
-614.358
-614.36
-614.361
-614.363
-614.364
-614.365
-614.366
-614.367
-614.368
-614.368
-614.368
-614.369
-614.369
-614.369
-614.369
-614.368
-614.368
-614.368
-614.367
-614.367
-614.366
-614.365
-614.364
-614.364
-614.363
-614.362
-614.361
-614.36
-614.359
-614.358
-614.357
-614.356
-614.355
-614.354
-614.353
-614.352
-614.351
-614.35
-614.349
-614.348
-614.347
-614.346
-614.345
-614.345
-614.344
-614.343
-614.343
-614.342
-614.341
-614.341
-614.34
-614.34
-614.339
-614.339
-614.338
-614.338
-614.338
-614.337
-614.337
-614.337
-614.337
-614.337
-614.336
-614.336
-614.336
-614.336
-614.336
-614.336
-614.336
-614.336
-614.335
-614.335
-614.335
-614.335
-614.335
-1773.52
-1773.52
-1773.52
-1773.52
-1773.52
-1773.52
-1773.52
-1773.51
-1773.51
-1773.51
-1773.51
-1773.5
-1773.5
-1773.49
-1773.49
-1773.48
-1773.48
-1773.47
-1773.46
-1773.46
-1773.45
-1773.44
-1773.43
-1773.43
-1773.42
-1773.41
-1773.4
-1773.39
-1773.38
-1773.37
-1773.36
-1773.35
-1773.34
-1773.32
-1773.31
-1773.3
-1773.29
-1773.27
-1773.26
-1773.25
-1773.23
-1773.22
-1773.2
-1773.19
-1773.17
-1773.16
-1773.14
-1773.12
-1773.11
-1773.09
-1773.07
-1773.06
-1773.04
-1773.02
-1773
-1772.99
-1772.97
-1772.95
-1772.93
-1772.92
-1772.9
-1772.88
-1772.87
-1772.85
-1772.83
-1772.82
-1772.8
-1772.79
-1772.77
-1772.76
-1772.75
-1772.74
-1772.72
-1772.71
-1772.7
-1772.69
-1772.68
-1772.68
-1772.67
-1772.66
-1772.66
-1772.65
-1772.65
-1772.64
-1772.64
-1772.63
-1772.63
-1772.63
-1772.63
-1772.63
-1772.63
-1772.63
-1772.63
-1772.63
-1772.63
-1772.63
-1772.64
-1772.64
-1772.64
-1772.64
-1772.65
-1772.65
-1772.65
-1772.66
-1772.66
-1772.67
-1772.67
-1772.67
-1772.68
-1772.68
-1772.68
-1772.69
-1772.69
-1772.7
-1772.7
-1772.7
-1772.71
-1772.71
-1772.71
-1772.71
-1772.72
-1772.72
-1772.72
-1772.72
-1772.73
-1772.73
-1772.73
-1772.73
-1772.73
-1772.73
-1772.74
-1772.74
-1772.74
-1772.74
-1772.74
-1772.74
-1772.74
-1772.74
-1772.74
-1772.74
-1772.74
-1772.74
-1772.74
-1772.74
-1772.74
-1772.74
-1772.74
-1772.73
-1772.73
-1772.73
-1772.73
-1772.73
-1772.73
-1772.73
-1772.73
-1772.73
-1772.73
-1772.72
-1772.72
-1772.72
-1772.72
-1772.72
-1772.72
-1772.72
-1772.72
-1772.72
-1772.72
-1772.72
-1772.71
-1772.71
-1772.71
-1772.71
-1772.71
-1772.71
-1772.71
-1772.71
-1772.71
-1772.71
-1772.71
-1772.71
-1772.71
-1772.71
-1772.71
-1772.71
-1772.71
-1772.71
-1772.71
-1772.71
-1772.71
-1772.71
-1772.71
-1772.71
-1772.71
-1772.71
-1772.71
-1772.71
-1772.71
-1772.7
-1772.7
-1772.7
-2799.73
-2799.73
-2799.73
-2799.72
-2799.72
-2799.72
-2799.72
-2799.71
-2799.71
-2799.71
-2799.7
-2799.7
-2799.69
-2799.69
-2799.68
-2799.67
-2799.67
-2799.66
-2799.65
-2799.64
-2799.64
-2799.63
-2799.62
-2799.61
-2799.6
-2799.59
-2799.58
-2799.57
-2799.56
-2799.55
-2799.54
-2799.53
-2799.51
-2799.5
-2799.49
-2799.48
-2799.46
-2799.45
-2799.43
-2799.42
-2799.4
-2799.39
-2799.37
-2799.36
-2799.34
-2799.32
-2799.31
-2799.29
-2799.27
-2799.25
-2799.23
-2799.21
-2799.19
-2799.18
-2799.16
-2799.14
-2799.12
-2799.1
-2799.08
-2799.06
-2799.04
-2799.03
-2799.01
-2798.99
-2798.97
-2798.96
-2798.94
-2798.93
-2798.91
-2798.9
-2798.89
-2798.87
-2798.86
-2798.85
-2798.84
-2798.83
-2798.82
-2798.82
-2798.81
-2798.8
-2798.8
-2798.79
-2798.79
-2798.79
-2798.78
-2798.78
-2798.78
-2798.78
-2798.78
-2798.78
-2798.78
-2798.78
-2798.78
-2798.78
-2798.79
-2798.79
-2798.79
-2798.79
-2798.8
-2798.8
-2798.81
-2798.81
-2798.81
-2798.82
-2798.82
-2798.83
-2798.83
-2798.83
-2798.84
-2798.84
-2798.85
-2798.85
-2798.85
-2798.86
-2798.86
-2798.86
-2798.87
-2798.87
-2798.87
-2798.88
-2798.88
-2798.88
-2798.88
-2798.89
-2798.89
-2798.89
-2798.89
-2798.89
-2798.9
-2798.9
-2798.9
-2798.9
-2798.9
-2798.9
-2798.9
-2798.9
-2798.9
-2798.9
-2798.9
-2798.9
-2798.9
-2798.9
-2798.9
-2798.9
-2798.9
-2798.9
-2798.9
-2798.89
-2798.89
-2798.89
-2798.89
-2798.89
-2798.89
-2798.89
-2798.89
-2798.89
-2798.89
-2798.88
-2798.88
-2798.88
-2798.88
-2798.88
-2798.88
-2798.88
-2798.88
-2798.88
-2798.88
-2798.88
-2798.87
-2798.87
-2798.87
-2798.87
-2798.87
-2798.87
-2798.87
-2798.87
-2798.87
-2798.87
-2798.87
-2798.87
-2798.87
-2798.87
-2798.87
-2798.87
-2798.87
-2798.87
-2798.87
-2798.87
-2798.87
-2798.87
-2798.87
-2798.87
-2798.87
-2798.87
-2798.87
-2798.87
-2798.87
-2798.87
-2798.87
-2798.87
-3708.83
-3708.83
-3708.82
-3708.82
-3708.82
-3708.82
-3708.81
-3708.81
-3708.8
-3708.8
-3708.79
-3708.78
-3708.78
-3708.77
-3708.76
-3708.75
-3708.74
-3708.73
-3708.73
-3708.72
-3708.71
-3708.7
-3708.68
-3708.67
-3708.66
-3708.65
-3708.64
-3708.63
-3708.62
-3708.61
-3708.6
-3708.58
-3708.57
-3708.56
-3708.55
-3708.53
-3708.52
-3708.5
-3708.49
-3708.47
-3708.46
-3708.44
-3708.42
-3708.41
-3708.39
-3708.37
-3708.35
-3708.33
-3708.31
-3708.29
-3708.27
-3708.25
-3708.23
-3708.21
-3708.19
-3708.16
-3708.14
-3708.12
-3708.1
-3708.08
-3708.06
-3708.04
-3708.02
-3708.01
-3707.99
-3707.97
-3707.95
-3707.94
-3707.92
-3707.91
-3707.9
-3707.88
-3707.87
-3707.86
-3707.85
-3707.84
-3707.84
-3707.83
-3707.82
-3707.82
-3707.81
-3707.81
-3707.81
-3707.81
-3707.8
-3707.8
-3707.8
-3707.8
-3707.8
-3707.81
-3707.81
-3707.81
-3707.81
-3707.81
-3707.82
-3707.82
-3707.82
-3707.83
-3707.83
-3707.84
-3707.84
-3707.85
-3707.85
-3707.86
-3707.86
-3707.86
-3707.87
-3707.87
-3707.88
-3707.88
-3707.89
-3707.89
-3707.89
-3707.9
-3707.9
-3707.91
-3707.91
-3707.91
-3707.92
-3707.92
-3707.92
-3707.92
-3707.93
-3707.93
-3707.93
-3707.93
-3707.93
-3707.93
-3707.94
-3707.94
-3707.94
-3707.94
-3707.94
-3707.94
-3707.94
-3707.94
-3707.94
-3707.94
-3707.94
-3707.94
-3707.94
-3707.94
-3707.94
-3707.94
-3707.94
-3707.94
-3707.93
-3707.93
-3707.93
-3707.93
-3707.93
-3707.93
-3707.93
-3707.93
-3707.93
-3707.93
-3707.92
-3707.92
-3707.92
-3707.92
-3707.92
-3707.92
-3707.92
-3707.92
-3707.92
-3707.92
-3707.91
-3707.91
-3707.91
-3707.91
-3707.91
-3707.91
-3707.91
-3707.91
-3707.91
-3707.91
-3707.91
-3707.91
-3707.91
-3707.91
-3707.91
-3707.91
-3707.91
-3707.91
-3707.91
-3707.91
-3707.91
-3707.91
-3707.9
-3707.9
-3707.9
-3707.9
-3707.9
-3707.9
-3707.9
-3707.9
-3707.9
-3707.9
-3707.9
-3707.9
-4514.2
-4514.2
-4514.19
-4514.19
-4514.19
-4514.18
-4514.17
-4514.17
-4514.16
-4514.15
-4514.14
-4514.13
-4514.12
-4514.11
-4514.1
-4514.08
-4514.07
-4514.06
-4514.05
-4514.03
-4514.02
-4514.01
-4514
-4513.99
-4513.98
-4513.96
-4513.95
-4513.94
-4513.93
-4513.92
-4513.91
-4513.9
-4513.88
-4513.87
-4513.86
-4513.84
-4513.83
-4513.82
-4513.8
-4513.78
-4513.77
-4513.75
-4513.73
-4513.71
-4513.69
-4513.67
-4513.65
-4513.63
-4513.6
-4513.58
-4513.56
-4513.53
-4513.51
-4513.49
-4513.46
-4513.44
-4513.41
-4513.39
-4513.37
-4513.35
-4513.32
-4513.3
-4513.28
-4513.26
-4513.24
-4513.23
-4513.21
-4513.19
-4513.18
-4513.16
-4513.15
-4513.14
-4513.13
-4513.12
-4513.11
-4513.1
-4513.1
-4513.09
-4513.08
-4513.08
-4513.08
-4513.07
-4513.07
-4513.07
-4513.07
-4513.07
-4513.07
-4513.08
-4513.08
-4513.08
-4513.08
-4513.09
-4513.09
-4513.09
-4513.1
-4513.1
-4513.11
-4513.11
-4513.12
-4513.12
-4513.13
-4513.13
-4513.14
-4513.14
-4513.15
-4513.15
-4513.16
-4513.16
-4513.17
-4513.17
-4513.18
-4513.18
-4513.18
-4513.19
-4513.19
-4513.2
-4513.2
-4513.2
-4513.21
-4513.21
-4513.21
-4513.21
-4513.22
-4513.22
-4513.22
-4513.22
-4513.22
-4513.22
-4513.23
-4513.23
-4513.23
-4513.23
-4513.23
-4513.23
-4513.23
-4513.23
-4513.23
-4513.23
-4513.23
-4513.23
-4513.23
-4513.23
-4513.23
-4513.23
-4513.22
-4513.22
-4513.22
-4513.22
-4513.22
-4513.22
-4513.22
-4513.22
-4513.22
-4513.22
-4513.21
-4513.21
-4513.21
-4513.21
-4513.21
-4513.21
-4513.21
-4513.21
-4513.21
-4513.21
-4513.2
-4513.2
-4513.2
-4513.2
-4513.2
-4513.2
-4513.2
-4513.2
-4513.2
-4513.2
-4513.2
-4513.2
-4513.2
-4513.2
-4513.2
-4513.19
-4513.19
-4513.19
-4513.19
-4513.19
-4513.19
-4513.19
-4513.19
-4513.19
-4513.19
-4513.19
-4513.19
-4513.19
-4513.19
-4513.19
-4513.19
-4513.19
-4513.19
-4513.19
-4513.19
-4513.19
-5227.68
-5227.68
-5227.68
-5227.67
-5227.66
-5227.65
-5227.64
-5227.63
-5227.62
-5227.6
-5227.59
-5227.57
-5227.55
-5227.54
-5227.52
-5227.5
-5227.48
-5227.47
-5227.45
-5227.44
-5227.42
-5227.41
-5227.39
-5227.38
-5227.37
-5227.36
-5227.35
-5227.34
-5227.33
-5227.32
-5227.31
-5227.3
-5227.29
-5227.27
-5227.26
-5227.25
-5227.24
-5227.22
-5227.2
-5227.19
-5227.17
-5227.15
-5227.13
-5227.11
-5227.09
-5227.06
-5227.04
-5227.01
-5226.99
-5226.96
-5226.93
-5226.91
-5226.88
-5226.85
-5226.83
-5226.8
-5226.77
-5226.75
-5226.72
-5226.7
-5226.67
-5226.65
-5226.63
-5226.61
-5226.59
-5226.57
-5226.55
-5226.53
-5226.52
-5226.5
-5226.49
-5226.48
-5226.47
-5226.46
-5226.45
-5226.45
-5226.44
-5226.44
-5226.43
-5226.43
-5226.43
-5226.43
-5226.43
-5226.43
-5226.43
-5226.43
-5226.43
-5226.44
-5226.44
-5226.44
-5226.45
-5226.45
-5226.46
-5226.46
-5226.47
-5226.47
-5226.48
-5226.49
-5226.49
-5226.5
-5226.5
-5226.51
-5226.51
-5226.52
-5226.53
-5226.53
-5226.54
-5226.54
-5226.55
-5226.55
-5226.56
-5226.56
-5226.57
-5226.57
-5226.57
-5226.58
-5226.58
-5226.58
-5226.59
-5226.59
-5226.59
-5226.59
-5226.6
-5226.6
-5226.6
-5226.6
-5226.6
-5226.61
-5226.61
-5226.61
-5226.61
-5226.61
-5226.61
-5226.61
-5226.61
-5226.61
-5226.61
-5226.61
-5226.61
-5226.61
-5226.61
-5226.61
-5226.61
-5226.6
-5226.6
-5226.6
-5226.6
-5226.6
-5226.6
-5226.6
-5226.6
-5226.6
-5226.6
-5226.59
-5226.59
-5226.59
-5226.59
-5226.59
-5226.59
-5226.59
-5226.59
-5226.59
-5226.58
-5226.58
-5226.58
-5226.58
-5226.58
-5226.58
-5226.58
-5226.58
-5226.58
-5226.58
-5226.58
-5226.58
-5226.58
-5226.57
-5226.57
-5226.57
-5226.57
-5226.57
-5226.57
-5226.57
-5226.57
-5226.57
-5226.57
-5226.57
-5226.57
-5226.57
-5226.57
-5226.57
-5226.57
-5226.57
-5226.57
-5226.57
-5226.57
-5226.57
-5226.57
-5226.57
-5226.57
-5226.57
-5859.78
-5859.78
-5859.77
-5859.76
-5859.75
-5859.73
-5859.72
-5859.7
-5859.67
-5859.65
-5859.62
-5859.59
-5859.57
-5859.54
-5859.51
-5859.49
-5859.46
-5859.44
-5859.42
-5859.4
-5859.38
-5859.36
-5859.35
-5859.34
-5859.33
-5859.32
-5859.31
-5859.31
-5859.3
-5859.29
-5859.29
-5859.28
-5859.27
-5859.27
-5859.26
-5859.24
-5859.23
-5859.22
-5859.2
-5859.18
-5859.16
-5859.14
-5859.12
-5859.09
-5859.07
-5859.04
-5859.01
-5858.98
-5858.95
-5858.92
-5858.89
-5858.86
-5858.83
-5858.8
-5858.77
-5858.74
-5858.71
-5858.68
-5858.65
-5858.62
-5858.6
-5858.57
-5858.55
-5858.53
-5858.5
-5858.48
-5858.47
-5858.45
-5858.44
-5858.42
-5858.41
-5858.4
-5858.39
-5858.38
-5858.38
-5858.37
-5858.37
-5858.36
-5858.36
-5858.36
-5858.36
-5858.36
-5858.36
-5858.37
-5858.37
-5858.37
-5858.38
-5858.38
-5858.39
-5858.39
-5858.4
-5858.4
-5858.41
-5858.42
-5858.42
-5858.43
-5858.44
-5858.44
-5858.45
-5858.46
-5858.46
-5858.47
-5858.47
-5858.48
-5858.49
-5858.49
-5858.5
-5858.5
-5858.51
-5858.51
-5858.52
-5858.52
-5858.53
-5858.53
-5858.54
-5858.54
-5858.54
-5858.55
-5858.55
-5858.55
-5858.56
-5858.56
-5858.56
-5858.56
-5858.56
-5858.57
-5858.57
-5858.57
-5858.57
-5858.57
-5858.57
-5858.57
-5858.57
-5858.57
-5858.57
-5858.57
-5858.57
-5858.57
-5858.57
-5858.57
-5858.57
-5858.57
-5858.57
-5858.57
-5858.56
-5858.56
-5858.56
-5858.56
-5858.56
-5858.56
-5858.56
-5858.56
-5858.56
-5858.55
-5858.55
-5858.55
-5858.55
-5858.55
-5858.55
-5858.55
-5858.55
-5858.55
-5858.54
-5858.54
-5858.54
-5858.54
-5858.54
-5858.54
-5858.54
-5858.54
-5858.54
-5858.54
-5858.54
-5858.54
-5858.54
-5858.53
-5858.53
-5858.53
-5858.53
-5858.53
-5858.53
-5858.53
-5858.53
-5858.53
-5858.53
-5858.53
-5858.53
-5858.53
-5858.53
-5858.53
-5858.53
-5858.53
-5858.53
-5858.53
-5858.53
-5858.53
-5858.53
-5858.53
-5858.53
-5858.53
-6419.8
-6419.8
-6419.79
-6419.77
-6419.75
-6419.72
-6419.69
-6419.66
-6419.62
-6419.58
-6419.54
-6419.49
-6419.45
-6419.41
-6419.37
-6419.33
-6419.29
-6419.26
-6419.23
-6419.21
-6419.19
-6419.17
-6419.16
-6419.15
-6419.14
-6419.14
-6419.14
-6419.14
-6419.14
-6419.14
-6419.14
-6419.14
-6419.14
-6419.14
-6419.13
-6419.12
-6419.11
-6419.09
-6419.08
-6419.06
-6419.03
-6419.01
-6418.98
-6418.96
-6418.93
-6418.9
-6418.86
-6418.83
-6418.8
-6418.76
-6418.72
-6418.69
-6418.65
-6418.62
-6418.58
-6418.55
-6418.51
-6418.48
-6418.45
-6418.42
-6418.39
-6418.36
-6418.34
-6418.31
-6418.29
-6418.27
-6418.25
-6418.24
-6418.22
-6418.21
-6418.2
-6418.19
-6418.18
-6418.17
-6418.17
-6418.17
-6418.16
-6418.16
-6418.16
-6418.16
-6418.17
-6418.17
-6418.17
-6418.18
-6418.18
-6418.19
-6418.19
-6418.2
-6418.21
-6418.21
-6418.22
-6418.23
-6418.23
-6418.24
-6418.25
-6418.26
-6418.26
-6418.27
-6418.28
-6418.29
-6418.29
-6418.3
-6418.31
-6418.31
-6418.32
-6418.33
-6418.33
-6418.34
-6418.34
-6418.35
-6418.35
-6418.36
-6418.36
-6418.37
-6418.37
-6418.38
-6418.38
-6418.38
-6418.39
-6418.39
-6418.39
-6418.39
-6418.39
-6418.4
-6418.4
-6418.4
-6418.4
-6418.4
-6418.4
-6418.4
-6418.4
-6418.4
-6418.4
-6418.4
-6418.4
-6418.4
-6418.4
-6418.4
-6418.4
-6418.4
-6418.4
-6418.4
-6418.4
-6418.4
-6418.4
-6418.4
-6418.39
-6418.39
-6418.39
-6418.39
-6418.39
-6418.39
-6418.39
-6418.39
-6418.39
-6418.38
-6418.38
-6418.38
-6418.38
-6418.38
-6418.38
-6418.38
-6418.38
-6418.38
-6418.37
-6418.37
-6418.37
-6418.37
-6418.37
-6418.37
-6418.37
-6418.37
-6418.37
-6418.37
-6418.37
-6418.37
-6418.37
-6418.37
-6418.37
-6418.37
-6418.36
-6418.36
-6418.36
-6418.36
-6418.36
-6418.36
-6418.36
-6418.36
-6418.36
-6418.36
-6418.36
-6418.36
-6418.36
-6418.36
-6418.36
-6418.36
-6418.36
-6418.36
-6418.36
-6418.36
-6915.99
-6915.98
-6915.97
-6915.94
-6915.9
-6915.86
-6915.8
-6915.74
-6915.67
-6915.59
-6915.52
-6915.45
-6915.38
-6915.31
-6915.25
-6915.2
-6915.15
-6915.11
-6915.07
-6915.04
-6915.02
-6915.01
-6915
-6915
-6915.01
-6915.02
-6915.04
-6915.06
-6915.08
-6915.1
-6915.11
-6915.12
-6915.12
-6915.12
-6915.12
-6915.11
-6915.1
-6915.08
-6915.07
-6915.04
-6915.02
-6914.99
-6914.96
-6914.93
-6914.89
-6914.86
-6914.82
-6914.78
-6914.74
-6914.7
-6914.66
-6914.62
-6914.57
-6914.53
-6914.49
-6914.46
-6914.42
-6914.38
-6914.35
-6914.31
-6914.28
-6914.25
-6914.23
-6914.2
-6914.18
-6914.16
-6914.14
-6914.12
-6914.11
-6914.1
-6914.09
-6914.08
-6914.07
-6914.07
-6914.07
-6914.06
-6914.06
-6914.06
-6914.07
-6914.07
-6914.07
-6914.08
-6914.08
-6914.09
-6914.1
-6914.1
-6914.11
-6914.12
-6914.13
-6914.14
-6914.14
-6914.15
-6914.16
-6914.17
-6914.18
-6914.19
-6914.2
-6914.2
-6914.21
-6914.22
-6914.23
-6914.23
-6914.24
-6914.25
-6914.26
-6914.26
-6914.27
-6914.28
-6914.28
-6914.29
-6914.29
-6914.3
-6914.3
-6914.31
-6914.31
-6914.31
-6914.32
-6914.32
-6914.32
-6914.33
-6914.33
-6914.33
-6914.33
-6914.33
-6914.34
-6914.34
-6914.34
-6914.34
-6914.34
-6914.34
-6914.34
-6914.34
-6914.34
-6914.34
-6914.34
-6914.34
-6914.34
-6914.34
-6914.34
-6914.34
-6914.34
-6914.34
-6914.33
-6914.33
-6914.33
-6914.33
-6914.33
-6914.33
-6914.33
-6914.33
-6914.32
-6914.32
-6914.32
-6914.32
-6914.32
-6914.32
-6914.32
-6914.32
-6914.32
-6914.31
-6914.31
-6914.31
-6914.31
-6914.31
-6914.31
-6914.31
-6914.31
-6914.31
-6914.31
-6914.3
-6914.3
-6914.3
-6914.3
-6914.3
-6914.3
-6914.3
-6914.3
-6914.3
-6914.3
-6914.3
-6914.3
-6914.3
-6914.3
-6914.3
-6914.3
-6914.3
-6914.3
-6914.3
-6914.3
-6914.3
-6914.3
-6914.3
-6914.3
-6914.3
-6914.3
-6914.3
-6914.3
-6914.3
-6914.3
-6914.3
-7355.67
-7355.66
-7355.63
-7355.59
-7355.54
-7355.47
-7355.39
-7355.28
-7355.17
-7355.05
-7354.94
-7354.83
-7354.74
-7354.65
-7354.58
-7354.51
-7354.45
-7354.4
-7354.36
-7354.33
-7354.31
-7354.3
-7354.29
-7354.3
-7354.32
-7354.34
-7354.38
-7354.4
-7354.45
-7354.47
-7354.5
-7354.52
-7354.53
-7354.53
-7354.53
-7354.52
-7354.51
-7354.49
-7354.47
-7354.44
-7354.41
-7354.38
-7354.34
-7354.3
-7354.26
-7354.22
-7354.17
-7354.13
-7354.08
-7354.04
-7353.99
-7353.94
-7353.89
-7353.85
-7353.8
-7353.76
-7353.72
-7353.68
-7353.64
-7353.61
-7353.57
-7353.54
-7353.51
-7353.49
-7353.47
-7353.45
-7353.43
-7353.41
-7353.4
-7353.39
-7353.38
-7353.37
-7353.37
-7353.37
-7353.36
-7353.37
-7353.37
-7353.37
-7353.37
-7353.38
-7353.38
-7353.39
-7353.4
-7353.41
-7353.42
-7353.42
-7353.43
-7353.44
-7353.45
-7353.46
-7353.47
-7353.48
-7353.49
-7353.5
-7353.51
-7353.52
-7353.53
-7353.54
-7353.55
-7353.55
-7353.56
-7353.57
-7353.58
-7353.59
-7353.59
-7353.6
-7353.61
-7353.61
-7353.62
-7353.62
-7353.63
-7353.64
-7353.64
-7353.64
-7353.65
-7353.65
-7353.66
-7353.66
-7353.66
-7353.66
-7353.67
-7353.67
-7353.67
-7353.67
-7353.67
-7353.68
-7353.68
-7353.68
-7353.68
-7353.68
-7353.68
-7353.68
-7353.68
-7353.68
-7353.68
-7353.68
-7353.68
-7353.68
-7353.67
-7353.67
-7353.67
-7353.67
-7353.67
-7353.67
-7353.67
-7353.67
-7353.67
-7353.66
-7353.66
-7353.66
-7353.66
-7353.66
-7353.66
-7353.66
-7353.66
-7353.65
-7353.65
-7353.65
-7353.65
-7353.65
-7353.65
-7353.65
-7353.65
-7353.65
-7353.64
-7353.64
-7353.64
-7353.64
-7353.64
-7353.64
-7353.64
-7353.64
-7353.64
-7353.64
-7353.64
-7353.64
-7353.64
-7353.64
-7353.64
-7353.64
-7353.64
-7353.63
-7353.63
-7353.63
-7353.63
-7353.63
-7353.63
-7353.63
-7353.63
-7353.63
-7353.63
-7353.63
-7353.63
-7353.63
-7353.63
-7353.63
-7353.63
-7353.63
-7353.63
-7353.63
-7745.31
-7745.29
-7745.27
-7745.22
-7745.16
-7745.07
-7744.94
-7744.76
-7744.5
-7744.26
-7744.08
-7743.92
-7743.78
-7743.66
-7743.56
-7743.48
-7743.4
-7743.35
-7743.3
-7743.27
-7743.25
-7743.24
-7743.25
-7743.28
-7743.32
-7743.39
-7743.51
-7743.63
-7743.72
-7743.77
-7743.8
-7743.81
-7743.82
-7743.82
-7743.81
-7743.79
-7743.78
-7743.75
-7743.72
-7743.69
-7743.66
-7743.62
-7743.58
-7743.53
-7743.48
-7743.43
-7743.38
-7743.33
-7743.28
-7743.22
-7743.17
-7743.12
-7743.06
-7743.01
-7742.96
-7742.92
-7742.87
-7742.83
-7742.79
-7742.75
-7742.71
-7742.68
-7742.65
-7742.63
-7742.6
-7742.58
-7742.57
-7742.55
-7742.54
-7742.53
-7742.52
-7742.52
-7742.52
-7742.52
-7742.52
-7742.52
-7742.52
-7742.53
-7742.53
-7742.54
-7742.55
-7742.56
-7742.57
-7742.58
-7742.59
-7742.6
-7742.61
-7742.62
-7742.63
-7742.64
-7742.65
-7742.66
-7742.67
-7742.68
-7742.69
-7742.7
-7742.71
-7742.72
-7742.73
-7742.74
-7742.75
-7742.76
-7742.77
-7742.78
-7742.78
-7742.79
-7742.8
-7742.8
-7742.81
-7742.81
-7742.82
-7742.83
-7742.83
-7742.83
-7742.84
-7742.84
-7742.85
-7742.85
-7742.85
-7742.85
-7742.86
-7742.86
-7742.86
-7742.86
-7742.86
-7742.86
-7742.87
-7742.87
-7742.87
-7742.87
-7742.87
-7742.87
-7742.87
-7742.87
-7742.87
-7742.87
-7742.86
-7742.86
-7742.86
-7742.86
-7742.86
-7742.86
-7742.86
-7742.86
-7742.86
-7742.85
-7742.85
-7742.85
-7742.85
-7742.85
-7742.85
-7742.85
-7742.85
-7742.84
-7742.84
-7742.84
-7742.84
-7742.84
-7742.84
-7742.84
-7742.84
-7742.83
-7742.83
-7742.83
-7742.83
-7742.83
-7742.83
-7742.83
-7742.83
-7742.83
-7742.83
-7742.83
-7742.83
-7742.83
-7742.82
-7742.82
-7742.82
-7742.82
-7742.82
-7742.82
-7742.82
-7742.82
-7742.82
-7742.82
-7742.82
-7742.82
-7742.82
-7742.82
-7742.82
-7742.82
-7742.82
-7742.82
-7742.82
-7742.82
-7742.82
-7742.82
-7742.82
-7742.82
-7742.82
-7742.82
-8090.53
-8090.53
-8090.51
-8090.48
-8090.45
-8090.42
-8090.37
-8090.34
-8088.61
-8088.61
-8088.65
-8088.66
-8088.67
-8088.68
-8088.68
-8088.67
-8088.65
-8088.63
-8088.6
-8088.57
-8088.53
-8088.49
-8088.44
-8088.39
-8088.34
-8088.29
-8088.23
-8088.17
-8088.11
-8088.05
-8087.99
-8087.93
-8087.87
-8087.81
-8087.76
-8087.7
-8087.65
-8087.6
-8087.55
-8087.51
-8087.47
-8087.43
-8087.4
-8087.37
-8087.34
-8087.32
-8087.3
-8087.28
-8087.27
-8087.26
-8087.25
-8087.25
-8087.25
-8087.25
-8087.25
-8087.25
-8087.25
-8087.26
-8087.27
-8087.28
-8087.29
-8087.3
-8087.31
-8087.32
-8087.33
-8087.34
-8087.35
-8087.36
-8087.38
-8087.39
-8087.4
-8087.41
-8087.42
-8087.44
-8087.45
-8087.46
-8087.47
-8087.48
-8087.49
-8087.5
-8087.51
-8087.52
-8087.53
-8087.54
-8087.54
-8087.55
-8087.56
-8087.57
-8087.57
-8087.58
-8087.59
-8087.59
-8087.6
-8087.6
-8087.6
-8087.61
-8087.61
-8087.62
-8087.62
-8087.62
-8087.62
-8087.63
-8087.63
-8087.63
-8087.63
-8087.63
-8087.63
-8087.63
-8087.64
-8087.64
-8087.64
-8087.64
-8087.64
-8087.64
-8087.63
-8087.63
-8087.63
-8087.63
-8087.63
-8087.63
-8087.63
-8087.63
-8087.63
-8087.63
-8087.63
-8087.62
-8087.62
-8087.62
-8087.62
-8087.62
-8087.62
-8087.62
-8087.61
-8087.61
-8087.61
-8087.61
-8087.61
-8087.61
-8087.61
-8087.61
-8087.6
-8087.6
-8087.6
-8087.6
-8087.6
-8087.6
-8087.6
-8087.6
-8087.6
-8087.6
-8087.6
-8087.59
-8087.59
-8087.59
-8087.59
-8087.59
-8087.59
-8087.59
-8087.59
-8087.59
-8087.59
-8087.59
-8087.59
-8087.59
-8087.59
-8087.59
-8087.59
-8087.59
-8087.59
-8087.59
-8087.59
-8087.59
-8087.59
-8087.59
-8087.59
-8087.59
-8087.59
-8087.59
-8087.59
-8087.59
-8087.59
-8396.44
-8396.44
-8396.43
-8396.43
-8396.41
-8396.41
-8396.39
-8396.39
-8394.26
-8394.25
-8394.26
-8394.25
-8394.24
-8394.23
-8394.22
-8394.2
-8394.18
-8394.15
-8394.11
-8394.07
-8394.03
-8393.98
-8393.92
-8393.87
-8393.81
-8393.75
-8393.68
-8393.61
-8393.55
-8393.48
-8393.41
-8393.35
-8393.28
-8393.22
-8393.15
-8393.09
-8393.04
-8392.98
-8392.93
-8392.89
-8392.85
-8392.81
-8392.77
-8392.74
-8392.72
-8392.7
-8392.68
-8392.66
-8392.65
-8392.64
-8392.64
-8392.63
-8392.63
-8392.63
-8392.64
-8392.64
-8392.65
-8392.66
-8392.67
-8392.68
-8392.69
-8392.7
-8392.71
-8392.73
-8392.74
-8392.75
-8392.77
-8392.78
-8392.79
-8392.81
-8392.82
-8392.83
-8392.84
-8392.86
-8392.87
-8392.88
-8392.89
-8392.9
-8392.91
-8392.92
-8392.93
-8392.94
-8392.95
-8392.96
-8392.97
-8392.98
-8392.99
-8392.99
-8393
-8393.01
-8393.01
-8393.02
-8393.02
-8393.03
-8393.03
-8393.04
-8393.04
-8393.04
-8393.05
-8393.05
-8393.05
-8393.05
-8393.06
-8393.06
-8393.06
-8393.06
-8393.06
-8393.06
-8393.06
-8393.06
-8393.06
-8393.06
-8393.06
-8393.06
-8393.06
-8393.06
-8393.06
-8393.06
-8393.06
-8393.06
-8393.06
-8393.05
-8393.05
-8393.05
-8393.05
-8393.05
-8393.05
-8393.05
-8393.04
-8393.04
-8393.04
-8393.04
-8393.04
-8393.04
-8393.04
-8393.03
-8393.03
-8393.03
-8393.03
-8393.03
-8393.03
-8393.03
-8393.03
-8393.03
-8393.02
-8393.02
-8393.02
-8393.02
-8393.02
-8393.02
-8393.02
-8393.02
-8393.02
-8393.02
-8393.02
-8393.02
-8393.02
-8393.02
-8393.02
-8393.01
-8393.01
-8393.01
-8393.01
-8393.01
-8393.01
-8393.01
-8393.01
-8393.01
-8393.01
-8393.01
-8393.01
-8393.01
-8393.01
-8393.01
-8393.01
-8393.01
-8393.01
-8393.01
-8393.01
-8393.01
-8393.01
-8667.45
-8667.45
-8667.44
-8667.44
-8667.43
-8667.43
-8667.42
-8667.41
-8664.95
-8664.94
-8664.95
-8664.94
-8664.93
-8664.91
-8664.89
-8664.87
-8664.84
-8664.8
-8664.76
-8664.71
-8664.66
-8664.61
-8664.55
-8664.48
-8664.41
-8664.34
-8664.27
-8664.2
-8664.12
-8664.05
-8663.97
-8663.9
-8663.83
-8663.76
-8663.69
-8663.63
-8663.56
-8663.51
-8663.46
-8663.41
-8663.36
-8663.32
-8663.29
-8663.26
-8663.23
-8663.21
-8663.19
-8663.18
-8663.17
-8663.16
-8663.16
-8663.16
-8663.16
-8663.16
-8663.17
-8663.18
-8663.19
-8663.2
-8663.21
-8663.22
-8663.23
-8663.25
-8663.26
-8663.28
-8663.29
-8663.31
-8663.32
-8663.33
-8663.35
-8663.36
-8663.38
-8663.39
-8663.41
-8663.42
-8663.43
-8663.44
-8663.46
-8663.47
-8663.48
-8663.49
-8663.5
-8663.51
-8663.52
-8663.53
-8663.54
-8663.55
-8663.55
-8663.56
-8663.57
-8663.57
-8663.58
-8663.58
-8663.59
-8663.59
-8663.6
-8663.6
-8663.61
-8663.61
-8663.61
-8663.62
-8663.62
-8663.62
-8663.62
-8663.62
-8663.62
-8663.63
-8663.63
-8663.63
-8663.63
-8663.63
-8663.63
-8663.63
-8663.63
-8663.63
-8663.63
-8663.63
-8663.62
-8663.62
-8663.62
-8663.62
-8663.62
-8663.62
-8663.62
-8663.62
-8663.61
-8663.61
-8663.61
-8663.61
-8663.61
-8663.61
-8663.61
-8663.61
-8663.6
-8663.6
-8663.6
-8663.6
-8663.6
-8663.6
-8663.6
-8663.59
-8663.59
-8663.59
-8663.59
-8663.59
-8663.59
-8663.59
-8663.59
-8663.59
-8663.59
-8663.58
-8663.58
-8663.58
-8663.58
-8663.58
-8663.58
-8663.58
-8663.58
-8663.58
-8663.58
-8663.58
-8663.58
-8663.58
-8663.58
-8663.58
-8663.58
-8663.58
-8663.58
-8663.58
-8663.58
-8663.58
-8663.58
-8663.58
-8663.58
-8663.58
-8663.58
-8663.58
-8663.58
-8663.58
-8663.58
-8663.58
-8663.58
-8907.53
-8907.53
-8907.53
-8907.52
-8907.52
-8907.52
-8907.51
-8907.51
-8904.77
-8904.76
-8904.76
-8904.75
-8904.73
-8904.71
-8904.69
-8904.65
-8904.62
-8904.58
-8904.53
-8904.47
-8904.41
-8904.35
-8904.28
-8904.21
-8904.14
-8904.06
-8903.98
-8903.9
-8903.81
-8903.73
-8903.65
-8903.57
-8903.49
-8903.41
-8903.34
-8903.27
-8903.21
-8903.15
-8903.09
-8903.04
-8903
-8902.96
-8902.92
-8902.89
-8902.87
-8902.85
-8902.83
-8902.82
-8902.81
-8902.81
-8902.8
-8902.81
-8902.81
-8902.82
-8902.82
-8902.83
-8902.84
-8902.86
-8902.87
-8902.88
-8902.9
-8902.91
-8902.93
-8902.95
-8902.96
-8902.98
-8902.99
-8903.01
-8903.03
-8903.04
-8903.06
-8903.07
-8903.08
-8903.1
-8903.11
-8903.13
-8903.14
-8903.15
-8903.16
-8903.17
-8903.18
-8903.19
-8903.2
-8903.21
-8903.22
-8903.23
-8903.24
-8903.24
-8903.25
-8903.26
-8903.26
-8903.27
-8903.28
-8903.28
-8903.28
-8903.29
-8903.29
-8903.3
-8903.3
-8903.3
-8903.3
-8903.3
-8903.31
-8903.31
-8903.31
-8903.31
-8903.31
-8903.31
-8903.31
-8903.31
-8903.31
-8903.31
-8903.31
-8903.31
-8903.31
-8903.31
-8903.31
-8903.31
-8903.31
-8903.3
-8903.3
-8903.3
-8903.3
-8903.3
-8903.3
-8903.3
-8903.3
-8903.29
-8903.29
-8903.29
-8903.29
-8903.29
-8903.29
-8903.29
-8903.28
-8903.28
-8903.28
-8903.28
-8903.28
-8903.28
-8903.28
-8903.28
-8903.27
-8903.27
-8903.27
-8903.27
-8903.27
-8903.27
-8903.27
-8903.27
-8903.27
-8903.27
-8903.27
-8903.26
-8903.26
-8903.26
-8903.26
-8903.26
-8903.26
-8903.26
-8903.26
-8903.26
-8903.26
-8903.26
-8903.26
-8903.26
-8903.26
-8903.26
-8903.26
-8903.26
-8903.26
-8903.26
-8903.26
-8903.26
-8903.26
-8903.26
-8903.26
-8903.26
-8903.26
-8903.26
-8903.26
-9120.21
-9120.21
-9120.21
-9120.21
-9120.21
-9120.21
-9120.2
-9120.2
-9117.22
-9117.21
-9117.2
-9117.19
-9117.17
-9117.15
-9117.12
-9117.08
-9117.04
-9116.99
-9116.93
-9116.87
-9116.81
-9116.74
-9116.66
-9116.58
-9116.5
-9116.41
-9116.33
-9116.24
-9116.15
-9116.06
-9115.97
-9115.88
-9115.8
-9115.72
-9115.64
-9115.57
-9115.5
-9115.44
-9115.38
-9115.33
-9115.28
-9115.24
-9115.2
-9115.17
-9115.15
-9115.13
-9115.12
-9115.11
-9115.1
-9115.1
-9115.1
-9115.1
-9115.11
-9115.11
-9115.12
-9115.14
-9115.15
-9115.16
-9115.18
-9115.2
-9115.21
-9115.23
-9115.25
-9115.26
-9115.28
-9115.3
-9115.31
-9115.33
-9115.35
-9115.36
-9115.38
-9115.4
-9115.41
-9115.42
-9115.44
-9115.45
-9115.47
-9115.48
-9115.49
-9115.5
-9115.51
-9115.52
-9115.53
-9115.54
-9115.55
-9115.56
-9115.57
-9115.57
-9115.58
-9115.59
-9115.59
-9115.6
-9115.6
-9115.61
-9115.61
-9115.62
-9115.62
-9115.62
-9115.63
-9115.63
-9115.63
-9115.63
-9115.64
-9115.64
-9115.64
-9115.64
-9115.64
-9115.64
-9115.64
-9115.64
-9115.64
-9115.64
-9115.64
-9115.64
-9115.64
-9115.64
-9115.64
-9115.64
-9115.63
-9115.63
-9115.63
-9115.63
-9115.63
-9115.63
-9115.63
-9115.62
-9115.62
-9115.62
-9115.62
-9115.62
-9115.62
-9115.62
-9115.61
-9115.61
-9115.61
-9115.61
-9115.61
-9115.61
-9115.61
-9115.6
-9115.6
-9115.6
-9115.6
-9115.6
-9115.6
-9115.6
-9115.6
-9115.6
-9115.6
-9115.6
-9115.59
-9115.59
-9115.59
-9115.59
-9115.59
-9115.59
-9115.59
-9115.59
-9115.59
-9115.59
-9115.59
-9115.59
-9115.59
-9115.59
-9115.59
-9115.59
-9115.59
-9115.59
-9115.59
-9115.59
-9115.59
-9115.59
-9115.59
-9115.59
-9115.59
-9115.59
-9115.59
-9115.59
-9115.59
-9115.59
-9115.59
-9308.62
-9308.62
-9308.62
-9308.62
-9308.62
-9308.62
-9308.61
-9308.61
-9305.43
-9305.42
-9305.41
-9305.39
-9305.37
-9305.34
-9305.31
-9305.27
-9305.22
-9305.16
-9305.1
-9305.04
-9304.96
-9304.89
-9304.8
-9304.72
-9304.63
-9304.53
-9304.44
-9304.34
-9304.24
-9304.15
-9304.05
-9303.96
-9303.87
-9303.78
-9303.7
-9303.62
-9303.55
-9303.49
-9303.43
-9303.37
-9303.33
-9303.29
-9303.25
-9303.22
-9303.2
-9303.18
-9303.17
-9303.16
-9303.15
-9303.15
-9303.16
-9303.16
-9303.17
-9303.18
-9303.19
-9303.21
-9303.22
-9303.24
-9303.25
-9303.27
-9303.29
-9303.31
-9303.33
-9303.35
-9303.36
-9303.38
-9303.4
-9303.42
-9303.43
-9303.45
-9303.47
-9303.48
-9303.5
-9303.52
-9303.53
-9303.54
-9303.56
-9303.57
-9303.58
-9303.59
-9303.6
-9303.62
-9303.63
-9303.64
-9303.64
-9303.65
-9303.66
-9303.67
-9303.68
-9303.68
-9303.69
-9303.69
-9303.7
-9303.7
-9303.71
-9303.71
-9303.72
-9303.72
-9303.72
-9303.72
-9303.73
-9303.73
-9303.73
-9303.73
-9303.73
-9303.73
-9303.73
-9303.73
-9303.73
-9303.73
-9303.73
-9303.73
-9303.73
-9303.73
-9303.73
-9303.73
-9303.73
-9303.73
-9303.73
-9303.73
-9303.72
-9303.72
-9303.72
-9303.72
-9303.72
-9303.72
-9303.72
-9303.71
-9303.71
-9303.71
-9303.71
-9303.71
-9303.71
-9303.7
-9303.7
-9303.7
-9303.7
-9303.7
-9303.7
-9303.7
-9303.7
-9303.69
-9303.69
-9303.69
-9303.69
-9303.69
-9303.69
-9303.69
-9303.69
-9303.69
-9303.69
-9303.69
-9303.68
-9303.68
-9303.68
-9303.68
-9303.68
-9303.68
-9303.68
-9303.68
-9303.68
-9303.68
-9303.68
-9303.68
-9303.68
-9303.68
-9303.68
-9303.68
-9303.68
-9303.68
-9303.68
-9303.68
-9303.68
-9303.68
-9303.68
-9303.68
-9303.68
-9303.68
-9303.68
-9303.68
-9303.68
-9475.52
-9475.52
-9475.52
-9475.52
-9475.52
-9475.52
-9475.52
-9475.52
-9472.16
-9472.15
-9472.14
-9472.12
-9472.09
-9472.06