/*--------------------------------*- C++ -*----------------------------------*\
  =========                 |
  \\      /  F ield         | OpenFOAM: The Open Source CFD Toolbox
   \\    /   O peration     | Website:  https://openfoam.org
    \\  /    A nd           | Version:  12
     \\/     M anipulation  |
\*---------------------------------------------------------------------------*/
FoamFile
{
    format      ascii;
    class       surfaceScalarField;
    location    "1.32";
    object      phi;
}
// * * * * * * * * * * * * * * * * * * * * * * * * * * * * * * * * * * * * * //

dimensions      [1 0 -1 0 0 0 0];

internalField   nonuniform List<scalar> 
7429
(
-9.4692e-05
9.4692e-05
-0.00019038
9.56883e-05
-0.000287113
9.67328e-05
-0.000384863
9.77493e-05
-0.00048359
9.87277e-05
-0.00058325
9.96599e-05
-0.000683787
0.000100536
-0.000785135
0.000101348
-0.000887187
0.000102053
-0.000989836
0.000102649
-0.00109291
0.000103071
-0.00119626
0.000103352
-0.00129973
0.000103469
-0.00140307
0.00010334
-0.00150604
0.00010297
-0.00160834
0.000102304
-0.00170968
0.000101337
-0.00180972
0.000100038
-0.00190809
9.83746e-05
-0.00200441
9.63166e-05
-0.00209825
9.3843e-05
-0.00218919
9.0942e-05
-0.00227681
8.76187e-05
-0.00236064
8.38268e-05
-0.00244023
7.95877e-05
-0.00251514
7.49149e-05
-0.00258495
6.9809e-05
-0.00264923
6.42808e-05
-0.00270758
5.83432e-05
-0.00275967
5.20905e-05
-0.00280513
4.54656e-05
-0.00284372
3.85908e-05
-0.00287517
3.14516e-05
-0.00289916
2.39818e-05
-0.00291548
1.63244e-05
-0.00292397
8.49203e-06
-0.00292469
7.1986e-07
-0.00291793
-6.76262e-06
-0.00290359
-1.43404e-05
-0.00288174
-2.18485e-05
-0.00285252
-2.92249e-05
-0.00281609
-3.64308e-05
-0.00277267
-4.34154e-05
-0.00272253
-5.01449e-05
-0.00266594
-5.65819e-05
-0.00260326
-6.26872e-05
-0.00253481
-6.84426e-05
-0.00246101
-7.38083e-05
-0.00238223
-7.87758e-05
-0.00229892
-8.33095e-05
-0.00221151
-8.74069e-05
-0.00212047
-9.10387e-05
-0.00202627
-9.42057e-05
-0.00192936
-9.69038e-05
-0.00183025
-9.91139e-05
-0.00172939
-0.000100863
-0.0016273
-0.000102087
-0.0015244
-0.000102899
-0.00142121
-0.000103196
-0.00131811
-0.000103096
-0.00121562
-0.000102487
-0.00111412
-0.000101506
-0.00101403
-0.000100087
-0.000915747
-9.82836e-05
-0.000819635
-9.61123e-05
-0.00072602
-9.36148e-05
-0.00063523
-9.07907e-05
-0.000547526
-8.7704e-05
-0.000463219
-8.43062e-05
-0.000382538
-8.06815e-05
-0.00030569
-7.68474e-05
-0.000232804
-7.28868e-05
-0.000164146
-6.86575e-05
-9.97423e-05
-6.44038e-05
-3.96518e-05
-6.00905e-05
1.60476e-05
-5.56995e-05
6.73212e-05
-5.12736e-05
0.000114153
-4.68315e-05
0.000156555
-4.24019e-05
0.000194556
-3.80018e-05
0.000228222
-3.3666e-05
0.000257714
-2.94915e-05
0.000283061
-2.53471e-05
0.000304482
-2.14213e-05
0.000322031
-1.75481e-05
0.00033591
-1.38796e-05
0.000346286
-1.03757e-05
0.000353381
-7.0949e-06
0.0003573
-3.91908e-06
0.000358338
-1.03808e-06
0.000356812
1.52596e-06
0.000352817
3.99464e-06
0.000346533
6.28408e-06
0.000338143
8.39008e-06
0.000327851
1.02921e-05
0.000315842
1.20087e-05
0.000302311
1.35309e-05
0.000287446
1.48654e-05
0.000271425
1.60212e-05
0.000254419
1.7006e-05
0.000236612
1.78063e-05
0.00021816
1.84524e-05
0.000199222
1.89378e-05
0.000179929
1.92931e-05
0.000160444
1.94852e-05
0.00014088
1.95642e-05
0.000121357
1.95228e-05
0.000101998
1.93587e-05
8.28854e-05
1.9113e-05
6.41257e-05
1.87596e-05
4.5806e-05
1.83197e-05
2.79919e-05
1.78141e-05
1.0753e-05
1.72389e-05
-5.85075e-06
1.66037e-05
-2.17657e-05
1.5915e-05
-3.69531e-05
1.51874e-05
-5.13773e-05
1.44242e-05
-6.50016e-05
1.36243e-05
-7.78063e-05
1.28047e-05
-8.9782e-05
1.19757e-05
-0.000100913
1.11305e-05
-0.00011119
1.0277e-05
-0.00012062
9.43067e-06
-0.000129203
8.58265e-06
-0.000136952
7.74901e-06
-0.000143874
6.9223e-06
-0.000149987
6.11263e-06
-0.00015531
5.32297e-06
-0.000159868
4.55797e-06
-0.000163682
3.81436e-06
-0.000166777
3.09499e-06
-0.000169183
2.40616e-06
-0.000170934
1.75103e-06
-0.00017206
1.12581e-06
-0.00017259
5.2987e-07
-0.000172568
-2.23135e-08
-0.000172026
-5.42036e-07
-0.000170994
-1.03221e-06
-0.000169505
-1.48833e-06
-0.000167596
-1.90936e-06
-0.0001653
-2.29549e-06
-0.000162653
-2.64707e-06
-0.000159688
-2.96518e-06
-0.000156439
-3.24927e-06
-0.000152938
-3.50105e-06
-0.000149215
-3.72271e-06
-0.000145302
-3.91318e-06
-0.000141227
-4.07453e-06
-0.000137019
-4.20844e-06
-0.000132704
-4.31476e-06
-0.000128309
-4.39515e-06
-0.000123858
-4.4514e-06
-0.000119374
-4.48361e-06
-0.00011488
-4.49394e-06
-0.000110395
-4.48474e-06
-0.000105939
-4.45618e-06
-0.000101526
-4.41269e-06
-9.71713e-05
-4.35511e-06
-9.2887e-05
-4.28428e-06
-8.86824e-05
-4.20461e-06
-8.4568e-05
-4.11446e-06
-8.05497e-05
-4.01829e-06
-7.66347e-05
-3.91495e-06
-7.28275e-05
-3.80727e-06
-6.91319e-05
-3.69554e-06
-6.55497e-05
-3.58219e-06
-6.20824e-05
-3.4673e-06
-5.87313e-05
-3.35109e-06
-5.54956e-05
-3.23575e-06
-5.23748e-05
-3.12078e-06
-4.93685e-05
-3.00629e-06
-4.64761e-05
-2.89237e-06
-4.36965e-05
-2.77962e-06
-4.10285e-05
-2.66808e-06
-3.84688e-05
-2.5597e-06
-3.60138e-05
-2.455e-06
-3.3657e-05
-2.35678e-06
-3.13909e-05
-2.26604e-06
-2.92071e-05
-2.18384e-06
-2.70974e-05
-2.10967e-06
-2.50538e-05
-2.04358e-06
-2.30714e-05
-1.98241e-06
-2.11481e-05
-1.92335e-06
-1.92851e-05
-1.86301e-06
-1.74876e-05
-1.79744e-06
-1.5764e-05
-1.72361e-06
-1.41248e-05
-1.63925e-06
-1.25816e-05
-1.54313e-06
-1.1146e-05
-1.43563e-06
-9.82679e-06
-1.31922e-06
-8.62582e-06
-1.20097e-06
-7.53664e-06
-1.08917e-06
-6.54332e-06
-9.93325e-07
-5.6191e-06
-9.24216e-07
-4.73039e-06
-8.88714e-07
-3.84461e-06
-8.85778e-07
-2.93561e-06
-9.09002e-07
-1.9901e-06
-9.45512e-07
-1.00807e-06
-9.82029e-07
-1.00807e-06
-8.82926e-05
0.000182985
-0.000177587
0.000184983
-0.000268031
0.000187177
-0.000359683
0.000189401
-0.000452575
0.000191619
-0.00054681
0.000193895
-0.000642359
0.000196086
-0.000739221
0.000198209
-0.000837462
0.000200294
-0.000937017
0.000202203
-0.00103769
0.000203744
-0.00113946
0.000205122
-0.00124207
0.000206079
-0.00134523
0.000206501
-0.00144877
0.000206505
-0.0015523
0.00020584
-0.00165538
0.00020441
-0.00175762
0.000202284
-0.00185856
0.000199314
-0.00195766
0.000195418
-0.00205438
0.000190558
-0.00214813
0.000184694
-0.00223831
0.000177802
-0.00232434
0.000169851
-0.00240568
0.000160931
-0.00248167
0.000150903
-0.00255178
0.000139925
-0.00261553
0.00012803
-0.00267257
0.000115376
-0.00272238
0.000101905
-0.00276456
8.76466e-05
-0.002799
7.30277e-05
-0.00282516
5.7612e-05
-0.00284292
4.17479e-05
-0.0028522
2.56031e-05
-0.00285304
9.32667e-06
-0.00284604
-6.27988e-06
-0.0028309
-2.18971e-05
-0.00280786
-3.73795e-05
-0.00277713
-5.25846e-05
-0.00273895
-6.73988e-05
-0.00269364
-8.17458e-05
-0.00264152
-9.55331e-05
-0.00258297
-0.0001087
-0.00251837
-0.00012118
-0.00244815
-0.000132903
-0.00237275
-0.000143844
-0.00229262
-0.000153938
-0.00220823
-0.000163168
-0.00212005
-0.000171485
-0.00202857
-0.000178887
-0.00193428
-0.000185335
-0.00183764
-0.000190839
-0.00173916
-0.000195387
-0.00163932
-0.000198952
-0.00153858
-0.000201608
-0.00143744
-0.000203225
-0.00133627
-0.000204071
-0.00123559
-0.000203875
-0.00113579
-0.000202894
-0.00103728
-0.000200991
-0.000940443
-0.000198348
-0.000845595
-0.000194935
-0.000753134
-0.000190744
-0.000663307
-0.00018594
-0.00057653
-0.000180392
-0.000492902
-0.000174419
-0.000412865
-0.000167741
-0.000336411
-0.00016076
-0.000263959
-0.000153133
-0.000195304
-0.000145503
-0.000130798
-0.000137393
-7.05794e-05
-0.000128876
-1.45727e-05
-0.00012041
3.73153e-05
-0.000111979
8.48625e-05
-0.000103247
0.000128145
-9.45561e-05
0.000167187
-8.58736e-05
0.000201939
-7.71536e-05
0.000232592
-6.86556e-05
0.000259438
-6.05117e-05
0.00028227
-5.23231e-05
0.000301538
-4.46157e-05
0.000317097
-3.69801e-05
0.000329299
-2.97497e-05
0.000338259
-2.284e-05
0.000344148
-1.62642e-05
0.000347201
-1.01479e-05
0.000347548
-4.26675e-06
0.000345638
8.72158e-07
0.00034141
5.75366e-06
0.000335073
1.03319e-05
0.00032682
1.45376e-05
0.000316836
1.8374e-05
0.000305304
2.18241e-05
0.000292402
2.49103e-05
0.000278299
2.76336e-05
0.000263177
2.99874e-05
0.000247186
3.20124e-05
0.000230483
3.37089e-05
0.000213212
3.50774e-05
0.000195507
3.61574e-05
0.000177519
3.6926e-05
0.000159359
3.7453e-05
0.000141137
3.77073e-05
0.000122971
3.77306e-05
0.000104961
3.7532e-05
8.71738e-05
3.71462e-05
6.97322e-05
3.65546e-05
5.26816e-05
3.58102e-05
3.60872e-05
3.49141e-05
2.00365e-05
3.38648e-05
4.55942e-06
3.2716e-05
-1.0286e-05
3.14491e-05
-2.44756e-05
3.01046e-05
-3.79694e-05
2.86812e-05
-5.07413e-05
2.71961e-05
-6.27694e-05
2.56524e-05
-7.40299e-05
2.40652e-05
-8.45295e-05
2.24753e-05
-9.42469e-05
2.08479e-05
-0.000103202
1.92321e-05
-0.000111371
1.75999e-05
-0.000118794
1.60051e-05
-0.000125456
1.44114e-05
-0.000131373
1.28394e-05
-0.000136577
1.13161e-05
-0.00014108
9.82598e-06
-0.000144902
8.37999e-06
-0.000148068
6.98076e-06
-0.000150597
5.62349e-06
-0.000152518
4.32735e-06
-0.000153864
3.09702e-06
-0.00015466
1.92246e-06
-0.000154935
8.05003e-07
-0.00015473
-2.27593e-07
-0.000154066
-1.20592e-06
-0.000152976
-2.12291e-06
-0.000151489
-2.97463e-06
-0.000149639
-3.75965e-06
-0.000147456
-4.47847e-06
-0.000144971
-5.13196e-06
-0.000142214
-5.72231e-06
-0.000139215
-6.24856e-06
-0.000136002
-6.71417e-06
-0.000132601
-7.12341e-06
-0.00012904
-7.47425e-06
-0.000125344
-7.77069e-06
-0.000121536
-8.01582e-06
-0.000117642
-8.20925e-06
-0.000113683
-8.35397e-06
-0.000109681
-8.4532e-06
-0.000105658
-8.50703e-06
-0.000101632
-8.51949e-06
-9.76219e-05
-8.49512e-06
-9.36436e-05
-8.43447e-06
-8.97101e-05
-8.34615e-06
-8.58333e-05
-8.23195e-06
-8.2024e-05
-8.09355e-06
-7.82894e-05
-7.93925e-06
-7.46381e-05
-7.76572e-06
-7.10751e-05
-7.58133e-06
-6.76063e-05
-7.38374e-06
-6.42353e-05
-7.17823e-06
-6.09658e-05
-6.96505e-06
-5.77986e-05
-6.7494e-06
-5.47346e-05
-6.53127e-06
-5.17745e-05
-6.3112e-06
-4.89169e-05
-6.09337e-06
-4.6161e-05
-5.87667e-06
-4.35063e-05
-5.66096e-06
-4.09527e-05
-5.44605e-06
-3.84995e-05
-5.2328e-06
-3.61464e-05
-5.02115e-06
-3.38912e-05
-4.81492e-06
-3.17307e-05
-4.61553e-06
-2.96586e-05
-4.42885e-06
-2.76673e-05
-4.25729e-06
-2.57481e-05
-4.10312e-06
-2.38923e-05
-3.96549e-06
-2.20916e-05
-3.84424e-06
-2.03411e-05
-3.73293e-06
-1.86386e-05
-3.62581e-06
-1.69854e-05
-3.51623e-06
-1.53868e-05
-3.39607e-06
-1.38514e-05
-3.25899e-06
-1.23902e-05
-3.10046e-06
-1.10155e-05
-2.91776e-06
-9.73968e-06
-2.7115e-06
-8.57328e-06
-2.48563e-06
-7.52014e-06
-2.2541e-06
-6.57562e-06
-2.03369e-06
-5.72422e-06
-1.84473e-06
-4.93803e-06
-1.7104e-06
-4.18134e-06
-1.64541e-06
-3.41964e-06
-1.64748e-06
-2.62522e-06
-1.70343e-06
-1.78546e-06
-1.78527e-06
-9.06508e-07
-1.86098e-06
-1.91457e-06
-7.97695e-05
0.000262754
-0.000160655
0.000265868
-0.000243093
0.000269615
-0.000327585
0.000273893
-0.000414348
0.000278383
-0.000503372
0.000282918
-0.000595312
0.000288025
-0.000690077
0.000292974
-0.000787805
0.000298022
-0.000888716
0.000303113
-0.000992741
0.000307769
-0.00109984
0.000312225
-0.00120976
0.000315998
-0.0013222
0.00031894
-0.00143673
0.000321036
-0.00155277
0.00032188
-0.00166982
0.000321456
-0.00178701
0.000319475
-0.00190359
0.00031589
-0.00201867
0.000310497
-0.00213131
0.0003032
-0.00224052
0.000293911
-0.00234533
0.000282611
-0.00244472
0.000269242
-0.00253769
0.000253894
-0.00262342
0.00023663
-0.00270107
0.000217582
-0.00276987
0.000196821
-0.00282923
0.000174736
-0.00287858
0.000151263
-0.00291781
0.000126868
-0.00294669
0.000101912
-0.00296491
7.58298e-05
-0.00297241
4.92505e-05
-0.0029694
2.25957e-05
-0.00295696
-3.1164e-06
-0.00293483
-2.84148e-05
-0.00290338
-5.33453e-05
-0.00286311
-7.76464e-05
-0.00281451
-0.000101183
-0.00275811
-0.000123801
-0.00269444
-0.000145413
-0.00262407
-0.000165903
-0.00254757
-0.000185205
-0.0024655
-0.000203247
-0.00237846
-0.000219942
-0.00228701
-0.000235299
-0.00219174
-0.000249206
-0.00209319
-0.00026172
-0.00199194
-0.000272732
-0.00188854
-0.000282285
-0.00178351
-0.000290366
-0.00167735
-0.000297001
-0.00157059
-0.000302148
-0.00146376
-0.000305784
-0.00135725
-0.000308111
-0.00125161
-0.000308873
-0.00114718
-0.0003085
-0.0010445
-0.000306556
-0.000943762
-0.000303629
-0.000845423
-0.000299329
-0.000749794
-0.000293976
-0.00065721
-0.000287519
-0.000568063
-0.000279891
-0.000482389
-0.000271613
-0.000400567
-0.000262214
-0.000322637
-0.000252348
-0.000248963
-0.000241415
-0.000179404
-0.000230319
-0.000114271
-0.000218266
-5.365e-05
-0.000206124
2.68326e-06
-0.000193726
5.46721e-05
-0.000180865
0.000102167
-0.000167905
0.000145007
-0.000154819
0.000183484
-0.000141724
0.000217798
-0.00012887
0.000248046
-0.000116121
0.000274362
-0.00010347
0.00029668
-9.09731e-05
0.000315339
-7.91713e-05
0.000330399
-6.73828e-05
0.000342116
-5.63329e-05
0.000350749
-4.56126e-05
0.000356368
-3.53693e-05
0.000359209
-2.56812e-05
0.000359327
-1.63822e-05
0.000357019
-7.83975e-06
0.000352825
-7.2915e-08
0.000346567
7.13101e-06
0.000338407
1.39132e-05
0.00032859
2.01492e-05
0.000317285
2.58423e-05
0.000304673
3.09857e-05
0.000290922
3.55756e-05
0.000276197
3.96355e-05
0.000260654
4.31758e-05
0.000244434
4.62077e-05
0.000227676
4.87706e-05
0.000210517
5.08678e-05
0.000193091
5.25034e-05
0.000175502
5.37468e-05
0.000157853
5.4574e-05
0.00014026
5.50462e-05
0.000122769
5.51986e-05
0.000105504
5.49959e-05
8.85402e-05
5.44956e-05
7.19431e-05
5.37433e-05
5.57782e-05
5.27196e-05
4.0091e-05
5.14973e-05
2.4942e-05
5.00632e-05
1.03698e-05
4.8437e-05
-3.60221e-06
4.6688e-05
-1.69347e-05
4.47817e-05
-2.95862e-05
4.27561e-05
-4.15577e-05
4.06527e-05
-5.28294e-05
3.84678e-05
-6.33756e-05
3.61986e-05
-7.321e-05
3.38996e-05
-8.2325e-05
3.15903e-05
-9.07181e-05
2.9241e-05
-9.83965e-05
2.69104e-05
-0.000105367
2.45702e-05
-0.000111643
2.22813e-05
-0.000117242
2.00104e-05
-0.000122181
1.77785e-05
-0.000126464
1.55993e-05
-0.000130119
1.34811e-05
-0.000133174
1.14343e-05
-0.000135653
9.45966e-06
-0.000137582
7.55297e-06
-0.000138983
5.72857e-06
-0.000139861
3.97524e-06
-0.000140267
2.32777e-06
-0.000140225
7.63084e-07
-0.000139765
-6.87782e-07
-0.000138907
-2.06325e-06
-0.000137683
-3.34761e-06
-0.00013612
-4.53765e-06
-0.000134247
-5.6319e-06
-0.000132094
-6.63156e-06
-0.000129688
-7.53821e-06
-0.000127055
-8.35539e-06
-0.000124222
-9.08194e-06
-0.000121213
-9.72322e-06
-0.00011805
-1.02856e-05
-0.000114758
-1.07663e-05
-0.000111358
-1.1171e-05
-0.00010787
-1.15041e-05
-0.000104314
-1.17646e-05
-0.000100712
-1.19565e-05
-9.70809e-05
-1.2084e-05
-9.34412e-05
-1.21467e-05
-8.98102e-05
-1.21505e-05
-8.62033e-05
-1.2102e-05
-8.26352e-05
-1.20025e-05
-7.91165e-05
-1.18649e-05
-7.56563e-05
-1.16922e-05
-7.22629e-05
-1.1487e-05
-6.89413e-05
-1.12608e-05
-6.56984e-05
-1.10087e-05
-6.2538e-05
-1.07417e-05
-5.94648e-05
-1.04569e-05
-5.64821e-05
-1.01609e-05
-5.35925e-05
-9.85462e-06
-5.07969e-05
-9.54502e-06
-4.8095e-05
-9.23318e-06
-4.54863e-05
-8.91994e-06
-4.29685e-05
-8.61116e-06
-4.05402e-05
-8.30495e-06
-3.82009e-05
-8.0003e-06
-3.59507e-05
-7.69617e-06
-3.37905e-05
-7.39306e-06
-3.17211e-05
-7.09057e-06
-2.97416e-05
-6.7944e-06
-2.78494e-05
-6.50766e-06
-2.60384e-05
-6.23991e-06
-2.42998e-05
-5.99587e-06
-2.26237e-05
-5.77918e-06
-2.10002e-05
-5.58902e-06
-1.94201e-05
-5.42435e-06
-1.78779e-05
-5.27515e-06
-1.63714e-05
-5.13228e-06
-1.49021e-05
-4.98556e-06
-1.34756e-05
-4.82258e-06
-1.21016e-05
-4.63297e-06
-1.07921e-05
-4.40992e-06
-9.56141e-06
-4.14847e-06
-8.42326e-06
-3.84966e-06
-7.39183e-06
-3.51706e-06
-6.47426e-06
-3.17167e-06
-5.66883e-06
-2.83912e-06
-4.95991e-06
-2.55365e-06
-4.31585e-06
-2.35446e-06
-3.6951e-06
-2.26616e-06
-3.05666e-06
-2.28592e-06
-2.36816e-06
-2.39192e-06
-1.61768e-06
-2.53575e-06
-8.2353e-07
-2.65513e-06
-2.7381e-06
-6.15621e-05
0.000324316
-0.000124595
0.000328901
-0.000189915
0.000334935
-0.000258319
0.000342297
-0.000330973
0.000351037
-0.000408936
0.000360881
-0.000492681
0.000371769
-0.000582929
0.000383222
-0.000680071
0.000395164
-0.000784236
0.000407278
-0.000895332
0.000418865
-0.00101317
0.00043006
-0.00113782
0.000440653
-0.0012687
0.000449822
-0.00140492
0.000457247
-0.00154559
0.000462557
-0.0016896
0.00046546
-0.00183581
0.000465685
-0.00198247
0.000462556
-0.00212825
0.000456271
-0.00227128
0.000446234
-0.00240989
0.000432519
-0.00254233
0.000415054
-0.00266696
0.000393872
-0.00278198
0.000368907
-0.00288598
0.000340635
-0.00297768
0.000309281
-0.00305588
0.000275024
-0.00312011
0.000238966
-0.00316995
0.000201099
-0.0032044
0.000161318
-0.00322325
0.00012076
-0.0032273
7.98853e-05
-0.00321714
3.90925e-05
-0.00319448
-6.51723e-08
-0.00316004
-3.75543e-05
-0.00311417
-7.42928e-05
-0.00305777
-0.000109741
-0.00299175
-0.000143664
-0.002917
-0.000175934
-0.00283442
-0.000206384
-0.00274486
-0.000234969
-0.00264919
-0.000261579
-0.00254819
-0.000286197
-0.00244267
-0.000308769
-0.00233334
-0.000329271
-0.00222093
-0.000347711
-0.00210608
-0.00036406
-0.00198946
-0.000378343
-0.0018717
-0.000390485
-0.00175333
-0.000400657
-0.00163486
-0.000408838
-0.00151688
-0.000414978
-0.00139996
-0.000419071
-0.00128445
-0.000421292
-0.00117081
-0.000421748
-0.00105943
-0.000420256
-0.000950778
-0.000417154
-0.000845098
-0.000412236
-0.000742873
-0.000405853
-0.0006442
-0.000398003
-0.000549543
-0.000388634
-0.000459112
-0.00037795
-0.000373006
-0.000365998
-0.000291558
-0.000353061
-0.000214894
-0.000338877
-0.000142912
-0.00032433
-7.58116e-05
-0.000308516
-1.36743e-05
-0.000292457
4.39245e-05
-0.000275865
9.66189e-05
-0.000258819
0.000144167
-0.000241274
0.000186801
-0.000223498
0.000224868
-0.000205973
0.000258497
-0.000188447
0.000287873
-0.0001711
0.000313086
-0.000154083
0.000334207
-0.000137242
0.000351323
-0.000120586
0.000365191
-0.000104842
0.000375229
-8.9209e-05
0.000382393
-7.45469e-05
0.000386466
-6.04059e-05
0.00038774
-4.68864e-05
0.000386485
-3.41141e-05
0.000382801
-2.1997e-05
0.000377039
-1.06203e-05
0.000369642
-4.42684e-07
0.000360532
9.03647e-06
0.000349712
1.79508e-05
0.000337489
2.61368e-05
0.000324052
3.35859e-05
0.0003096
4.02946e-05
0.00029427
4.6315e-05
0.000278219
5.16271e-05
0.0002616
5.62544e-05
0.000244527
6.02484e-05
0.000227169
6.35664e-05
0.000209574
6.63657e-05
0.000191885
6.85561e-05
0.000174184
7.02049e-05
0.000156593
7.13377e-05
0.00013916
7.20072e-05
0.000121981
7.22251e-05
0.000105128
7.20517e-05
8.86714e-05
7.14523e-05
7.26223e-05
7.05447e-05
5.7069e-05
6.92965e-05
4.2048e-05
6.77407e-05
2.75884e-05
6.59569e-05
1.37148e-05
6.39367e-05
4.71778e-07
6.168e-05
-1.21348e-05
5.92946e-05
-2.40507e-05
5.66975e-05
-3.53175e-05
5.40229e-05
-4.58951e-05
5.12303e-05
-5.57854e-05
4.83581e-05
-6.49973e-05
4.54105e-05
-7.35062e-05
4.24085e-05
-8.13331e-05
3.94172e-05
-8.85074e-05
3.64154e-05
-9.49919e-05
3.33949e-05
-0.000100849
3.04271e-05
-0.000106067
2.74991e-05
-0.000110663
2.46063e-05
-0.000114661
2.17773e-05
-0.000118092
1.90298e-05
-0.000120971
1.63599e-05
-0.000123317
1.37805e-05
-0.00012515
1.12922e-05
-0.000126482
8.88555e-06
-0.00012736
6.60666e-06
-0.000127816
4.43104e-06
-0.000127849
2.36084e-06
-0.000127478
3.9199e-07
-0.000126761
-1.40474e-06
-0.000125701
-3.12313e-06
-0.000124328
-4.7205e-06
-0.00012267
-6.1961e-06
-0.000120753
-7.54903e-06
-0.000118603
-8.78145e-06
-0.000116245
-9.89593e-06
-0.000113703
-1.08975e-05
-0.000111
-1.17852e-05
-0.000108156
-1.25666e-05
-0.000105192
-1.32501e-05
-0.000102126
-1.38323e-05
-9.89762e-05
-1.43207e-05
-9.57599e-05
-1.47204e-05
-9.24947e-05
-1.50299e-05
-8.91979e-05
-1.52533e-05
-8.58865e-05
-1.53953e-05
-8.25786e-05
-1.54547e-05
-7.92904e-05
-1.54387e-05
-7.60362e-05
-1.53562e-05
-7.28288e-05
-1.52099e-05
-6.96764e-05
-1.50173e-05
-6.65853e-05
-1.47833e-05
-6.35608e-05
-1.45115e-05
-6.06056e-05
-1.4216e-05
-5.77248e-05
-1.38895e-05
-5.49212e-05
-1.35453e-05
-5.2199e-05
-1.31791e-05
-4.95611e-05
-1.27989e-05
-4.70101e-05
-1.24056e-05
-4.45458e-05
-1.20093e-05
-4.21673e-05
-1.16117e-05
-3.98729e-05
-1.12144e-05
-3.76587e-05
-1.08254e-05
-3.55223e-05
-1.04413e-05
-3.3463e-05
-1.00596e-05
-3.14819e-05
-9.67731e-06
-2.95812e-05
-9.29381e-06
-2.77637e-05
-8.90807e-06
-2.60304e-05
-8.52765e-06
-2.43795e-05
-8.15859e-06
-2.28044e-05
-7.81504e-06
-2.12948e-05
-7.50543e-06
-1.98391e-05
-7.23484e-06
-1.84253e-05
-7.00282e-06
-1.70432e-05
-6.80646e-06
-1.56866e-05
-6.63177e-06
-1.43533e-05
-6.46558e-06
-1.3045e-05
-6.29385e-06
-1.17681e-05
-6.09953e-06
-1.05335e-05
-5.86752e-06
-9.35416e-06
-5.58926e-06
-8.24683e-06
-5.2558e-06
-7.22671e-06
-4.86978e-06
-6.31236e-06
-4.43141e-06
-5.51519e-06
-3.96884e-06
-4.83813e-06
-3.51618e-06
-4.26566e-06
-3.12612e-06
-3.7611e-06
-2.85902e-06
-3.2734e-06
-2.75386e-06
-2.75134e-06
-2.80798e-06
-2.15645e-06
-2.98682e-06
-1.4789e-06
-3.2133e-06
-7.53121e-07
-3.38091e-06
-3.49123e-06
-2.06451e-05
0.000344961
-4.32244e-05
0.00035148
-6.97939e-05
0.000361504
-0.000102723
0.000375226
-0.000143737
0.000392051
-0.000194697
0.000411841
-0.000256839
0.000433912
-0.000332045
0.000458428
-0.000421512
0.000484631
-0.000526111
0.000511876
-0.000646638
0.000539393
-0.000782633
0.000566054
-0.00093328
0.000591301
-0.00109751
0.000614054
-0.0012738
0.000633533
-0.0014603
0.000649054
-0.0016547
0.000659862
-0.00185439
0.000665382
-0.0020569
0.000665062
-0.00225899
0.000658357
-0.00245769
0.000644937
-0.00264966
0.000624489
-0.00283156
0.000596956
-0.00299997
0.000562285
-0.00315193
0.000520868
-0.00328443
0.000473127
-0.00339528
0.000420132
-0.00348316
0.000362911
-0.00354733
0.000303136
-0.00358823
0.000241994
-0.00360708
0.000180171
-0.00360423
0.000117905
-0.00358115
5.68108e-05
-0.00354142
-6.37595e-07
-0.00348632
-5.51642e-05
-0.0034167
-0.000107181
-0.00333469
-0.0001563
-0.00324198
-0.000202453
-0.0031401
-0.000245539
-0.00303046
-0.000285579
-0.00291431
-0.000322531
-0.00279281
-0.000356468
-0.00266699
-0.000387404
-0.00253774
-0.000415438
-0.00240594
-0.000440576
-0.00227241
-0.000462796
-0.00213777
-0.000482356
-0.00200275
-0.000499074
-0.00186802
-0.000513074
-0.00173407
-0.000524436
-0.00160138
-0.000533349
-0.00147045
-0.000539768
-0.00134185
-0.000543579
-0.00121589
-0.000545023
-0.00109295
-0.000544235
-0.000973505
-0.000541195
-0.000857916
-0.000535844
-0.000746336
-0.000528733
-0.000639306
-0.000519266
-0.000536824
-0.000508336
-0.000439522
-0.000495304
-0.000347226
-0.00048093
-0.000260192
-0.000464985
-0.000178804
-0.000447385
-0.000102622
-0.000429243
-3.18095e-05
-0.00040969
3.30605e-05
-0.0003892
9.30278e-05
-0.000368483
0.000147357
-0.000346785
0.000196053
-0.000324561
0.000239412
-0.000302177
0.000277626
-0.000279488
0.00031109
-0.000256963
0.000339956
-0.000234839
0.000364391
-0.000212882
0.000384432
-0.000191141
0.000400031
-0.000169682
0.000412017
-0.000149229
0.000420661
-0.000129229
0.000425827
-0.000110008
0.000427996
-9.1378e-05
0.000427239
-7.37895e-05
0.000423985
-5.71523e-05
0.000418332
-4.12337e-05
0.000410493
-2.62745e-05
0.000401062
-1.25658e-05
0.000390307
1.33886e-07
0.000377979
1.18858e-05
0.000364189
2.28268e-05
0.000349302
3.28377e-05
0.000333472
4.19668e-05
0.000316917
5.01408e-05
0.000299737
5.74747e-05
0.000282096
6.3956e-05
0.000264151
6.95714e-05
0.000246004
7.44016e-05
0.000227748
7.85046e-05
0.000209494
8.18209e-05
0.000191326
8.45336e-05
0.000173337
8.65445e-05
0.000155585
8.79574e-05
0.000138166
8.87569e-05
0.000121088
8.90851e-05
0.000104442
8.88711e-05
8.83134e-05
8.818e-05
7.26461e-05
8.71196e-05
5.75657e-05
8.56251e-05
4.30556e-05
8.38066e-05
2.91157e-05
8.16805e-05
1.58461e-05
7.92265e-05
3.23711e-06
7.65457e-05
-8.73642e-06
7.36535e-05
-2.00509e-05
7.06091e-05
-3.06958e-05
6.73424e-05
-4.06586e-05
6.39857e-05
-4.99465e-05
6.05182e-05
-5.85671e-05
5.69787e-05
-6.65261e-05
5.33695e-05
-7.38482e-05
4.97306e-05
-8.05105e-05
4.60794e-05
-8.65452e-05
4.24501e-05
-9.1989e-05
3.88388e-05
-9.68287e-05
3.52668e-05
-0.000101086
3.17567e-05
-0.000104783
2.83029e-05
-0.000107948
2.49423e-05
-0.000110609
2.16909e-05
-0.00011278
1.8531e-05
-0.000114482
1.54825e-05
-0.000115725
1.25348e-05
-0.000116569
9.72964e-06
-0.000117006
7.04453e-06
-0.000117046
4.47021e-06
-0.000116738
2.05344e-06
-0.000116123
-2.22878e-07
-0.000115167
-2.36126e-06
-0.000113926
-4.36408e-06
-0.000112423
-6.22336e-06
-0.000110682
-7.93676e-06
-0.000108728
-9.50296e-06
-0.000106585
-1.0925e-05
-0.000104274
-1.22065e-05
-0.000101818
-1.33544e-05
-9.92347e-05
-1.43681e-05
-9.65437e-05
-1.52576e-05
-9.376e-05
-1.60337e-05
-9.08996e-05
-1.66928e-05
-8.79768e-05
-1.72435e-05
-8.50053e-05
-1.76919e-05
-8.19998e-05
-1.80354e-05
-7.89753e-05
-1.82778e-05
-7.59476e-05
-1.8423e-05
-7.2934e-05
-1.84684e-05
-6.99504e-05
-1.84222e-05
-6.70107e-05
-1.82959e-05
-6.4126e-05
-1.80946e-05
-6.13019e-05
-1.78414e-05
-5.85417e-05
-1.75435e-05
-5.58474e-05
-1.72058e-05
-5.32191e-05
-1.68443e-05
-5.06603e-05
-1.64482e-05
-4.81733e-05
-1.60323e-05
-4.57622e-05
-1.55902e-05
-4.34302e-05
-1.51308e-05
-4.11795e-05
-1.46564e-05
-3.90103e-05
-1.41785e-05
-3.69203e-05
-1.37017e-05
-3.4906e-05
-1.32287e-05
-3.29618e-05
-1.27696e-05
-3.10841e-05
-1.2319e-05
-2.92718e-05
-1.18718e-05
-2.75268e-05
-1.14223e-05
-2.58536e-05
-1.0967e-05
-2.42575e-05
-1.05042e-05
-2.27419e-05
-1.00432e-05
-2.13056e-05
-9.59488e-06
-1.99419e-05
-9.17875e-06
-1.8638e-05
-8.80939e-06
-1.73801e-05
-8.49271e-06
-1.61538e-05
-8.22909e-06
-1.49479e-05
-8.01242e-06
-1.37556e-05
-7.82409e-06
-1.25747e-05
-7.64642e-06
-1.14076e-05
-7.46093e-06
-1.02611e-05
-7.24606e-06
-9.14793e-06
-6.9807e-06
-8.08079e-06
-6.6564e-06
-7.07976e-06
-6.25683e-06
-6.16013e-06
-5.78941e-06
-5.34606e-06
-5.24548e-06
-4.6535e-06
-4.6614e-06
-4.09182e-06
-4.07786e-06
-3.64596e-06
-3.57197e-06
-3.27402e-06
-3.23097e-06
-2.9127e-06
-3.11518e-06
-2.49734e-06
-3.22333e-06
-1.98235e-06
-3.5018e-06
-1.36292e-06
-3.83274e-06
-6.89314e-07
-4.05451e-06
-4.18054e-06
5.35636e-05
0.000291397
0.000105011
0.000300033
0.000149647
0.000316868
0.000183886
0.000340987
0.00020339
0.000372547
0.000203826
0.000411405
0.000180614
0.000457123
0.000130181
0.000508861
4.9591e-05
0.000565221
-6.18782e-05
0.000623346
-0.000202726
0.000680241
-0.000371648
0.000734976
-0.000566214
0.000785866
-0.000783847
0.000831688
-0.00102222
0.000871903
-0.00127751
0.000904342
-0.00154636
0.00092872
-0.0018245
0.000943516
-0.0021073
0.000947863
-0.00239053
0.000941586
-0.00266876
0.000923167
-0.00293698
0.000892711
-0.00318958
0.000849559
-0.00342082
0.00079352
-0.00362543
0.000725483
-0.00379812
0.000645809
-0.00393534
0.00055736
-0.00403359
0.000461154
-0.0040911
0.000360646
-0.00411001
0.000260908
-0.00409424
0.000164404
-0.00404854
7.22007e-05
-0.00398012
-1.16126e-05
-0.00389234
-8.84099e-05
-0.00378763
-0.000159882
-0.00366908
-0.00022573
-0.00353939
-0.000285991
-0.00340094
-0.000340904
-0.00325583
-0.000390643
-0.00310581
-0.000435605
-0.0029524
-0.000475938
-0.00279677
-0.000512092
-0.00263999
-0.000544189
-0.00248301
-0.000572422
-0.00232646
-0.000597116
-0.00217092
-0.000618342
-0.00201687
-0.000636402
-0.00186499
-0.000650957
-0.00171546
-0.000662601
-0.00156872
-0.000671181
-0.00142518
-0.000676891
-0.00128543
-0.000679516
-0.00114949
-0.000679519
-0.00101763
-0.000676884
-0.000890484
-0.000671378
-0.000767999
-0.000663681
-0.000651122
-0.000652721
-0.000539388
-0.000640468
-0.000433699
-0.000624955
-0.000333503
-0.000608532
-0.000239302
-0.000589505
-0.000151381
-0.000568851
-6.94563e-05
-0.00054691
6.44146e-06
-0.000523283
7.5532e-05
-0.000498334
0.00013887
-0.000473028
0.00019633
-0.00044666
0.000247413
-0.000419567
0.000292571
-0.000391943
0.000332061
-0.000364051
0.00036624
-0.000336356
0.000395383
-0.000308631
0.000419582
-0.000281161
0.000438964
-0.000254222
0.000453556
-0.000227474
0.00046422
-0.000201806
0.00047149
-0.000176951
0.000474787
-0.000152526
0.000475037
-0.000129479
0.0004724
-0.000107371
0.00046725
-8.62288e-05
0.000459592
-6.61311e-05
0.000449788
-4.73487e-05
0.000438359
-2.98041e-05
0.000425152
-1.30677e-05
0.000410904
1.6822e-06
0.000395393
1.56452e-05
0.000378741
2.85373e-05
0.000361271
4.02968e-05
0.000343126
5.09835e-05
0.000324544
6.05483e-05
0.000305548
6.91364e-05
0.000286374
7.66488e-05
0.000267123
8.32068e-05
0.000247884
8.88105e-05
0.00022874
9.3546e-05
0.000209802
9.7443e-05
0.000191106
0.000100516
0.000172786
0.000102854
0.000154808
0.000104522
0.000137313
0.000105453
0.00012026
0.00010581
0.00010379
0.000105556
8.78719e-05
0.000104789
7.25037e-05
0.000103548
5.77938e-05
0.000101829
4.37032e-05
9.97157e-05
3.02672e-05
9.72426e-05
1.75262e-05
9.44215e-05
5.41634e-06
9.13363e-05
-6.05472e-06
8.80168e-05
-1.68135e-05
8.44122e-05
-2.68964e-05
8.06921e-05
-3.63126e-05
7.67586e-05
-4.50633e-05
7.27364e-05
-5.31613e-05
6.86162e-05
-6.06192e-05
6.44366e-05
-6.74491e-05
6.01994e-05
-7.36676e-05
5.59491e-05
-7.93052e-05
5.17171e-05
-8.43544e-05
4.74992e-05
-8.88288e-05
4.33131e-05
-9.27632e-05
3.92012e-05
-9.61797e-05
3.51732e-05
-9.91006e-05
3.12238e-05
-0.000101539
2.73808e-05
-0.000103532
2.36834e-05
-0.000105092
2.00919e-05
-0.00010624
1.66297e-05
-0.000107012
1.33073e-05
-0.000107419
1.01367e-05
-0.000107459
7.08468e-06
-0.000107202
4.21321e-06
-0.000106626
1.47661e-06
-0.000105765
-1.08308e-06
-0.000104632
-3.49415e-06
-0.000103256
-5.74101e-06
-0.000101658
-7.82066e-06
-9.98639e-05
-9.73111e-06
-9.78957e-05
-1.14712e-05
-9.57757e-05
-1.30449e-05
-9.35245e-05
-1.44577e-05
-9.11606e-05
-1.57183e-05
-8.87014e-05
-1.68272e-05
-8.61617e-05
-1.77973e-05
-8.35538e-05
-1.86416e-05
-8.08901e-05
-1.93566e-05
-7.81815e-05
-1.99521e-05
-7.54384e-05
-2.0435e-05
-7.26725e-05
-2.08013e-05
-6.98968e-05
-2.10536e-05
-6.71261e-05
-2.11936e-05
-6.4378e-05
-2.12165e-05
-6.16691e-05
-2.11311e-05
-5.90134e-05
-2.09516e-05
-5.64208e-05
-2.06872e-05
-5.38942e-05
-2.03679e-05
-5.14333e-05
-2.00044e-05
-4.90363e-05
-1.96029e-05
-4.67006e-05
-1.91799e-05
-4.44285e-05
-1.87204e-05
-4.22223e-05
-1.82385e-05
-4.00868e-05
-1.77258e-05
-3.80251e-05
-1.71924e-05
-3.6041e-05
-1.66405e-05
-3.41341e-05
-1.60853e-05
-3.23008e-05
-1.5535e-05
-3.05359e-05
-1.49936e-05
-2.88315e-05
-1.4474e-05
-2.71823e-05
-1.39682e-05
-2.55867e-05
-1.34674e-05
-2.40476e-05
-1.29614e-05
-2.25724e-05
-1.24423e-05
-2.11693e-05
-1.19073e-05
-1.98451e-05
-1.13674e-05
-1.85985e-05
-1.08415e-05
-1.74232e-05
-1.0354e-05
-1.63026e-05
-9.93004e-06
-1.5221e-05
-9.57432e-06
-1.41611e-05
-9.28897e-06