/*--------------------------------*- C++ -*----------------------------------*\
  =========                 |
  \\      /  F ield         | OpenFOAM: The Open Source CFD Toolbox
   \\    /   O peration     | Website:  https://openfoam.org
    \\  /    A nd           | Version:  12
     \\/     M anipulation  |
\*---------------------------------------------------------------------------*/
FoamFile
{
    format      ascii;
    class       volScalarField;
    location    "600";
    object      epsilon;
}
// * * * * * * * * * * * * * * * * * * * * * * * * * * * * * * * * * * * * * //

dimensions      [0 2 -3 0 0 0 0];

internalField   nonuniform List<scalar> 
80
(
588.049
206.857
124.833
94.5604
79.9831
71.9347
67.1749
64.2874
62.5551
61.5727
61.0902
60.9421
61.0121
61.214
61.4819
61.7638
62.018
62.2113
62.3174
62.3162
62.1937
61.9409
61.5543
61.0355
60.3906
59.6302
58.7689
57.8247
56.8188
55.7744
54.7165
53.6707
52.6629
51.7179
50.8594
50.1087
49.4846
49.0024
48.6743
48.5081
48.5082
48.6744
49.0026
49.4848
50.1091
50.8598
51.7184
52.6633
53.6712
54.717
55.775
56.8194
57.8253
58.7695
59.6308
60.3912
61.0361
61.5549
61.9413
62.1941
62.3166
62.3177
62.2116
62.0183
61.764
61.4821
61.2142
61.0122
60.9422
61.0902
61.5726
62.555
64.2873
67.1747
71.9344
79.9827
94.5599
124.833
206.856
588.045
)
;

boundaryField
{
    lowerWall
    {
        type            epsilonWallFunction;
        value           uniform 588.049;
    }
    upperWall
    {
        type            epsilonWallFunction;
        value           uniform 588.045;
    }
    front
    {
        type            cyclic;
    }
    back
    {
        type            cyclic;
    }
    defaultFaces
    {
        type            empty;
    }
}


// ************************************************************************* //
