/*--------------------------------*- C++ -*----------------------------------*\
  =========                 |
  \\      /  F ield         | OpenFOAM: The Open Source CFD Toolbox
   \\    /   O peration     | Website:  https://openfoam.org
    \\  /    A nd           | Version:  12
     \\/     M anipulation  |
\*---------------------------------------------------------------------------*/
FoamFile
{
    format      ascii;
    class       volSymmTensorField;
    location    "600";
    object      R;
}
// * * * * * * * * * * * * * * * * * * * * * * * * * * * * * * * * * * * * * //

dimensions      [0 2 -2 0 0 0 0];

internalField   nonuniform List<symmTensor> 
80
(
(0.629185 -0.799683 -0 0.629185 -0 0.629185)
(0.769057 -0.29709 -0 0.769057 -0 0.769057)
(0.883988 -0.300412 -0 0.883988 -0 0.883988)
(0.980638 -0.311373 -0 0.980638 -0 0.980638)
(1.06501 -0.330795 -0 1.06501 -0 1.06501)
(1.14095 -0.356741 -0 1.14095 -0 1.14095)
(1.21072 -0.387827 -0 1.21072 -0 1.21072)
(1.27567 -0.422974 -0 1.27567 -0 1.27567)
(1.33659 -0.46121 -0 1.33659 -0 1.33659)
(1.39394 -0.501611 -0 1.39394 -0 1.39394)
(1.44794 -0.543279 -0 1.44794 -0 1.44794)
(1.49867 -0.58535 -0 1.49867 -0 1.49867)
(1.54613 -0.62699 -0 1.54613 -0 1.54613)
(1.59024 -0.667408 -0 1.59024 -0 1.59024)
(1.63087 -0.705854 -0 1.63087 -0 1.63087)
(1.66791 -0.741627 -0 1.66791 -0 1.66791)
(1.7012 -0.774078 -0 1.7012 -0 1.7012)
(1.73064 -0.802611 -0 1.73064 -0 1.73064)
(1.75613 -0.826688 -0 1.75613 -0 1.75613)
(1.7776 -0.845832 -0 1.7776 -0 1.7776)
(1.79504 -0.859626 -0 1.79504 -0 1.79504)
(1.80847 -0.867719 -0 1.80847 -0 1.80847)
(1.81799 -0.869826 -0 1.81799 -0 1.81799)
(1.82373 -0.865729 -0 1.82373 -0 1.82373)
(1.8259 -0.855279 -0 1.8259 -0 1.8259)
(1.82476 -0.838394 -0 1.82476 -0 1.82476)
(1.82063 -0.815066 -0 1.82063 -0 1.82063)
(1.8139 -0.785351 -0 1.8139 -0 1.8139)
(1.80497 -0.749378 -0 1.80497 -0 1.80497)
(1.79431 -0.707341 -0 1.79431 -0 1.79431)
(1.78242 -0.6595 -0 1.78242 -0 1.78242)
(1.7698 -0.606181 -0 1.7698 -0 1.7698)
(1.75697 -0.547768 -0 1.75697 -0 1.75697)
(1.74442 -0.484705 -0 1.74442 -0 1.74442)
(1.73265 -0.417489 -0 1.73265 -0 1.73265)
(1.7221 -0.346667 -0 1.7221 -0 1.7221)
(1.71315 -0.27283 -0 1.71315 -0 1.71315)
(1.70614 -0.196606 -0 1.70614 -0 1.70614)
(1.70132 -0.118656 -0 1.70132 -0 1.70132)
(1.69886 -0.0396591 -0 1.69886 -0 1.69886)
(1.69886 0.0396874 -0 1.69886 -0 1.69886)
(1.70132 0.118684 -0 1.70132 -0 1.70132)
(1.70614 0.196634 -0 1.70614 -0 1.70614)
(1.71315 0.272857 -0 1.71315 -0 1.71315)
(1.7221 0.346694 -0 1.7221 -0 1.7221)
(1.73266 0.417515 -0 1.73266 -0 1.73266)
(1.74443 0.48473 -0 1.74443 -0 1.74443)
(1.75698 0.547792 -0 1.75698 -0 1.75698)
(1.76981 0.606204 -0 1.76981 -0 1.76981)
(1.78243 0.659522 -0 1.78243 -0 1.78243)
(1.79432 0.707361 -0 1.79432 -0 1.79432)
(1.80498 0.749397 -0 1.80498 -0 1.80498)
(1.81391 0.785369 -0 1.81391 -0 1.81391)
(1.82064 0.815082 -0 1.82064 -0 1.82064)
(1.82477 0.838409 -0 1.82477 -0 1.82477)
(1.82591 0.855292 -0 1.82591 -0 1.82591)
(1.82374 0.865742 -0 1.82374 -0 1.82374)
(1.81799 0.869837 -0 1.81799 -0 1.81799)
(1.80848 0.867729 -0 1.80848 -0 1.80848)
(1.79504 0.859635 -0 1.79504 -0 1.79504)
(1.77761 0.845839 -0 1.77761 -0 1.77761)
(1.75613 0.826695 -0 1.75613 -0 1.75613)
(1.73065 0.802616 -0 1.73065 -0 1.73065)
(1.70121 0.774083 -0 1.70121 -0 1.70121)
(1.66791 0.741631 -0 1.66791 -0 1.66791)
(1.63088 0.705857 -0 1.63088 -0 1.63088)
(1.59024 0.66741 -0 1.59024 -0 1.59024)
(1.54614 0.626992 -0 1.54614 -0 1.54614)
(1.49868 0.585351 -0 1.49868 -0 1.49868)
(1.44794 0.54328 -0 1.44794 -0 1.44794)
(1.39394 0.501611 -0 1.39394 -0 1.39394)
(1.33659 0.46121 -0 1.33659 -0 1.33659)
(1.27567 0.422973 -0 1.27567 -0 1.27567)
(1.21072 0.387826 -0 1.21072 -0 1.21072)
(1.14095 0.35674 -0 1.14095 -0 1.14095)
(1.06501 0.330794 -0 1.06501 -0 1.06501)
(0.980637 0.311371 -0 0.980637 -0 0.980637)
(0.883987 0.30041 -0 0.883987 -0 0.883987)
(0.769055 0.297089 -0 0.769055 -0 0.769055)
(0.629182 0.799677 -0 0.629182 -0 0.629182)
)
;

boundaryField
{
    lowerWall
    {
        type            calculated;
        value           uniform (0.629185 -0.149255 -0 0.629185 -0 0.629185);
    }
    upperWall
    {
        type            calculated;
        value           uniform (0.629182 0.149253 -0 0.629182 -0 0.629182);
    }
    front
    {
        type            cyclic;
    }
    back
    {
        type            cyclic;
    }
    defaultFaces
    {
        type            empty;
    }
}


// ************************************************************************* //
