/*--------------------------------*- C++ -*----------------------------------*\
  =========                 |
  \\      /  F ield         | OpenFOAM: The Open Source CFD Toolbox
   \\    /   O peration     | Website:  https://openfoam.org
    \\  /    A nd           | Version:  12
     \\/     M anipulation  |
\*---------------------------------------------------------------------------*/
FoamFile
{
    format      ascii;
    class       volVectorField;
    location    "600";
    object      U;
}
// * * * * * * * * * * * * * * * * * * * * * * * * * * * * * * * * * * * * * //

dimensions      [0 1 -1 0 0 0 0];

internalField   nonuniform List<vector> 
80
(
(6.87776 0 0)
(7.78751 0 0)
(8.16055 0 0)
(8.37998 0 0)
(8.53855 0 0)
(8.66796 0 0)
(8.78193 0 0)
(8.88738 0 0)
(8.98822 0 0)
(9.08676 0 0)
(9.18445 0 0)
(9.2822 0 0)
(9.38053 0 0)
(9.47976 0 0)
(9.57998 0 0)
(9.68119 0 0)
(9.78326 0 0)
(9.88598 0 0)
(9.98908 0 0)
(10.0922 0 0)
(10.195 0 0)
(10.2971 0 0)
(10.3979 0 0)
(10.4971 0 0)
(10.594 0 0)
(10.6883 0 0)
(10.7794 0 0)
(10.8667 0 0)
(10.9498 0 0)
(11.0281 0 0)
(11.1011 0 0)
(11.1683 0 0)
(11.2293 0 0)
(11.2837 0 0)
(11.331 0 0)
(11.371 0 0)
(11.4033 0 0)
(11.4278 0 0)
(11.4442 0 0)
(11.4524 0 0)
(11.4524 0 0)
(11.4442 0 0)
(11.4278 0 0)
(11.4033 0 0)
(11.371 0 0)
(11.331 0 0)
(11.2837 0 0)
(11.2293 0 0)
(11.1683 0 0)
(11.101 0 0)
(11.028 0 0)
(10.9498 0 0)
(10.8667 0 0)
(10.7794 0 0)
(10.6883 0 0)
(10.594 0 0)
(10.497 0 0)
(10.3979 0 0)
(10.297 0 0)
(10.195 0 0)
(10.0922 0 0)
(9.98903 0 0)
(9.88594 0 0)
(9.78322 0 0)
(9.68115 0 0)
(9.57994 0 0)
(9.47971 0 0)
(9.38049 0 0)
(9.28215 0 0)
(9.18441 0 0)
(9.08671 0 0)
(8.98817 0 0)
(8.88734 0 0)
(8.78188 0 0)
(8.66792 0 0)
(8.53851 0 0)
(8.37994 0 0)
(8.16051 0 0)
(7.78747 0 0)
(6.87773 0 0)
)
;

boundaryField
{
    lowerWall
    {
        type            noSlip;
    }
    upperWall
    {
        type            noSlip;
    }
    front
    {
        type            cyclic;
    }
    back
    {
        type            cyclic;
    }
    defaultFaces
    {
        type            empty;
    }
}


// ************************************************************************* //
