/*--------------------------------*- C++ -*----------------------------------*\
  =========                 |
  \\      /  F ield         | OpenFOAM: The Open Source CFD Toolbox
   \\    /   O peration     | Website:  https://openfoam.org
    \\  /    A nd           | Version:  12
     \\/     M anipulation  |
\*---------------------------------------------------------------------------*/
FoamFile
{
    format      ascii;
    class       volScalarField;
    location    "15.86";
    object      p_rgh;
}
// * * * * * * * * * * * * * * * * * * * * * * * * * * * * * * * * * * * * * //

dimensions      [1 -1 -2 0 0 0 0];

internalField   nonuniform List<scalar> 
3829
(
-0.553113
-0.552894
-0.552455
-0.551781
-0.550859
-0.549673
-0.548203
-0.546428
-0.544325
-0.541868
-0.539032
-0.535788
-0.532109
-0.527969
-0.523343
-0.518206
-0.512541
-0.506333
-0.499574
-0.492259
-0.484394
-0.47599
-0.467067
-0.457656
-0.4478
-0.437551
-0.426976
-0.416153
-0.405175
-0.394145
-0.383184
-0.372423
-0.362003
-0.352079
-0.342808
-0.334358
-0.326902
-0.320611
-0.315518
-0.311892
-0.309883
-0.309621
-0.311218
-0.314763
-0.320322
-0.32794
-0.337636
-0.349401
-0.363199
-0.378961
-0.396586
-0.415936
-0.436839
-0.459083
-0.482421
-0.506571
-0.531215
-0.556003
-0.580556
-0.604474
-0.627329
-0.648678
-0.668068
-0.68504
-0.699139
-0.70992
-0.716953
-0.719839
-0.718201
-0.711722
-0.700132
-0.683225
-0.660909
-0.633146
-0.599435
-0.560307
-0.516099
-0.467135
-0.413846
-0.356051
-0.295661
-0.232954
-0.16868
-0.103712
-0.03902
0.024377
0.0853974
0.142943
0.195948
0.243361
0.284205
0.317583
0.342713
0.358999
0.362967
0.356553
0.34
0.31366
0.278016
0.233693
0.181551
0.122711
0.0585476
-0.0093312
-0.0791523
-0.148928
-0.216669
-0.280319
-0.337854
-0.387371
-0.427152
-0.455758
-0.472099
-0.475571
-0.464902
-0.440838
-0.404299
-0.35647
-0.298993
-0.234013
-0.163991
-0.0916732
-0.0206961
0.0461766
0.105863
0.155531
0.1928
0.215856
0.223572
0.214465
0.189822
0.151184
0.100674
0.0412651
-0.0234632
-0.0905472
-0.153171
-0.208365
-0.252138
-0.281194
-0.293189
-0.286988
-0.262003
-0.220382
-0.165033
-0.100037
-0.0300378
0.0384787
0.0996155
0.147957
0.178604
0.188097
0.174743
0.137621
0.0800726
0.00634183
-0.0775371
-0.164501
-0.245928
-0.314197
-0.362654
-0.386382
-0.382999
-0.351995
-0.297486
-0.225248
-0.142166
-0.0590236
0.015185
0.0722689
0.105759
0.112315
0.0914742
0.0475732
-0.0125995
-0.0802758
-0.145123
-0.196919
-0.229014
-0.237221
-0.220826
-0.184598
-0.134963
-0.0794106
-0.0329763
-0.00133442
0.00936893
-0.00301749
-0.0363862
-0.0900914
-0.139594
-0.179632
-0.20258
-0.20278
-0.17871
-0.134236
-0.0772852
-0.0190203
0.0290729
0.057007
-0.571093
-0.571024
-0.570882
-0.570653
-0.570318
-0.569849
-0.569209
-0.568356
-0.567239
-0.565801
-0.563978
-0.561703
-0.558904
-0.555507
-0.55144
-0.546629
-0.541006
-0.534509
-0.527082
-0.518682
-0.509281
-0.498867
-0.487447
-0.475048
-0.461719
-0.447533
-0.432586
-0.416998
-0.400911
-0.384492
-0.367925
-0.351416
-0.335187
-0.319472
-0.304515
-0.290556
-0.277826
-0.266463
-0.257388
-0.250595
-0.246234
-0.244436
-0.245303
-0.248906
-0.255299
-0.264522
-0.276594
-0.291506
-0.309218
-0.329649
-0.35268
-0.378138
-0.405801
-0.435394
-0.46659
-0.499021
-0.532264
-0.565865
-0.599333
-0.632146
-0.663753
-0.693579
-0.721048
-0.745574
-0.766576
-0.783493
-0.795778
-0.80295
-0.804538
-0.800133
-0.789373
-0.771958
-0.747646
-0.71613
-0.677734
-0.632676
-0.581232
-0.523787
-0.460875
-0.393164
-0.321397
-0.246603
-0.169809
-0.0921229
-0.0147335
0.061106
0.134064
0.202796
0.265983
0.322364
0.370725
0.410032
0.439368
0.458088
0.461301
0.45248
0.431659
0.399038
0.355054
0.300426
0.236244
0.163907
0.0851151
0.00184954
-0.0836994
-0.16904
-0.25172
-0.329229
-0.399093
-0.45898
-0.506798
-0.54077
-0.559481
-0.56203
-0.547741
-0.517188
-0.471285
-0.411498
-0.339977
-0.259397
-0.172882
-0.0839492
0.0031949
0.0849759
0.157593
0.21757
0.26195
0.288429
0.295693
0.282736
0.250597
0.201014
0.136723
0.0615216
-0.0201345
-0.103778
-0.182295
-0.251301
-0.305843
-0.341793
-0.356253
-0.347869
-0.316457
-0.2642
-0.194723
-0.113245
-0.0255141
0.0602999
0.136972
0.19781
0.236741
0.24945
0.233685
0.189399
0.119828
0.0302368
-0.0717836
-0.177667
-0.276396
-0.358865
-0.416904
-0.444526
-0.438713
-0.400026
-0.332739
-0.244164
-0.143086
-0.0424952
0.0465402
0.114123
0.152464
0.157519
0.129801
0.0740391
-0.00109441
-0.0848245
-0.163498
-0.225771
-0.263077
-0.270521
-0.248493
-0.202126
-0.139679
-0.0718108
-0.014592
0.0240116
0.0366234
0.0213991
-0.0194841
-0.0890704
-0.149216
-0.197999
-0.226242
-0.226934
-0.198801
-0.146088
-0.0783803
-0.00929884
0.0479301
0.0816556
-0.594742
-0.595236
-0.596219
-0.597669
-0.599539
-0.601758
-0.604232
-0.60684
-0.609441
-0.611871
-0.61395
-0.615485
-0.616281
-0.616154
-0.614908
-0.612341
-0.608258
-0.60248
-0.594846
-0.585223
-0.573512
-0.559652
-0.543623
-0.525455
-0.505226
-0.483065
-0.459153
-0.43372
-0.407042
-0.379436
-0.35126
-0.322916
-0.294832
-0.267462
-0.241275
-0.216749
-0.194389
-0.174796
-0.157698
-0.143638
-0.133024
-0.126205
-0.123493
-0.125152
-0.131385
-0.142313
-0.157988
-0.178381
-0.203389
-0.232836
-0.266474
-0.303988
-0.344998
-0.389063
-0.435683
-0.484298
-0.534287
-0.584982
-0.635669
-0.685598
-0.733988
-0.780027
-0.822782
-0.861612
-0.895664
-0.924149
-0.946319
-0.961492
-0.969063
-0.968553
-0.959652
-0.942238
-0.91636
-0.876105
-0.827523
-0.770385
-0.70482
-0.631213
-0.55022
-0.462694
-0.369648
-0.272186
-0.171961
-0.0704963
0.0306257
0.129713
0.224957
0.314504
0.396572
0.469373
0.5313
0.5808
0.616707
0.637924
0.641797
0.629638
0.601347
0.557108
0.497502
0.423553
0.336821
0.239246
0.133146
0.0211194
-0.0942295
-0.208562
-0.318968
-0.422137
-0.514771
-0.593777
-0.656336
-0.699957
-0.72296
-0.723726
-0.702295
-0.659057
-0.595163
-0.512723
-0.414702
-0.304827
-0.187406
-0.0672397
0.0500846
0.159638
0.256281
0.335291
0.392732
0.425598
0.431817
0.410963
0.364119
0.293551
0.203136
0.0981653
-0.0153127
-0.130523
-0.238725
-0.333487
-0.408053
-0.45681
-0.475799
-0.462904
-0.418846
-0.346168
-0.249905
-0.137314
-0.0163528
0.101847
0.207541
0.291628
0.34584
0.364339
0.344083
0.286015
0.193721
0.0744449
-0.0616271
-0.203162
-0.334092
-0.44264
-0.518054
-0.552552
-0.542147
-0.488564
-0.397167
-0.278139
-0.1431
-0.0103047
0.106033
0.19272
0.239582
0.241571
0.200358
0.122224
0.0190582
-0.0949008
-0.199463
-0.280711
-0.327226
-0.333047
-0.299678
-0.234052
-0.147631
-0.0565243
0.02051
0.0716106
0.0874861
0.066583
0.0126258
-0.0884903
-0.167176
-0.231923
-0.269973
-0.271546
-0.235708
-0.167844
-0.0802253
0.00904934
0.0816854
0.12098
-0.586635
-0.588667
-0.592738
-0.598796
-0.606732
-0.61637
-0.627482
-0.639772
-0.652883
-0.666396
-0.679852
-0.692751
-0.704579
-0.714796
-0.722881
-0.728317
-0.730614
-0.729323
-0.724045
-0.714451
-0.700299
-0.681435
-0.657809
-0.629476
-0.596606
-0.559478
-0.518492
-0.474146
-0.427043
-0.377866
-0.327375
-0.27637
-0.225672
-0.176112
-0.128494
-0.0835463
-0.0417383
-0.00556298
0.024972
0.0496206
0.0680978
0.0801205
0.0854189
0.0837524
0.074932
0.0588538
0.0355048
0.00496179
-0.0325979
-0.0769015
-0.127571
-0.184121
-0.245969
-0.312443
-0.382787
-0.456163
-0.53164
-0.608235
-0.684905
-0.76057
-0.834119
-0.904191
-0.969956
-1.0301
-1.08346
-1.12892
-1.16541
-1.19191
-1.20749
-1.21132
-1.20258
-1.18052
-1.14428
-1.09938
-1.04069
-0.968685
-0.884055
-0.787693
-0.680746
-0.564546
-0.440588
-0.310627
-0.175751
-0.039849
0.0957454
0.228619
0.356242
0.476065
0.585531
0.682224
0.763695
0.827852
0.872497
0.896076
0.902305
0.88564
0.846304
0.784798
0.702121
0.599847
0.480245
0.346119
0.200824
0.0483305
-0.113497
-0.26848
-0.418395
-0.558375
-0.683769
-0.790208
-0.873757
-0.931197
-0.95967
-0.9579
-0.925542
-0.863223
-0.772672
-0.656945
-0.520257
-0.367784
-0.205397
-0.040013
0.120978
0.270632
0.401837
0.50818
0.584211
0.625723
0.630073
0.597303
0.528424
0.426739
0.297925
0.149372
-0.0105039
-0.171744
-0.32304
-0.455065
-0.558477
-0.625592
-0.65086
-0.631152
-0.568123
-0.465196
-0.329638
-0.171569
-0.00227774
0.162992
0.310765
0.428313
0.504397
0.531102
0.504398
0.425736
0.300252
0.138116
-0.0471979
-0.24177
-0.41888
-0.564453
-0.664241
-0.707925
-0.690676
-0.614782
-0.488037
-0.324742
-0.14099
0.0380642
0.193304
0.306854
0.365226
0.362226
0.300666
0.19008
0.0464939
-0.112535
-0.253953
-0.361602
-0.420592
-0.423429
-0.372743
-0.278873
-0.157732
-0.0329448
0.0722005
0.140766
0.160574
0.13053
0.0576986
-0.0875359
-0.19242
-0.280032
-0.332375
-0.334924
-0.288011
-0.198914
-0.082295
0.0359711
0.130076
0.182482
-0.492886
-0.498558
-0.510025
-0.527225
-0.549863
-0.577344
-0.60913
-0.644444
-0.682393
-0.721901
-0.761917
-0.801264
-0.838799
-0.873316
-0.903612
-0.928488
-0.946878
-0.957761
-0.960214
-0.953545
-0.937282
-0.91116
-0.875181
-0.829603
-0.774938
-0.711935
-0.641589
-0.565057
-0.483682
-0.398888
-0.312196
-0.225165
-0.139391
-0.0564576
0.0221392
0.0950516
0.160826
0.2204
0.272048
0.31466
0.34734
0.369401
0.380356
0.379917
0.367973
0.344562
0.309864
0.264191
0.207989
0.141836
0.0664196
-0.017454
-0.10887
-0.206813
-0.310148
-0.417657
-0.528028
-0.639868
-0.751696
-0.861899
-0.969134
-1.07168
-1.16795
-1.25634
-1.3353
-1.40332
-1.45897
-1.50089
-1.52789
-1.5389
-1.53305
-1.50952
-1.46723
-1.40759
-1.33017
-1.2353
-1.12364
-0.996221
-0.854437
-0.700035
-0.535031
-0.361752
-0.182751
-0.00124516
0.179773
0.357118
0.52736
0.686988
0.83267
0.960977
1.06885
1.15321
1.21167
1.24192
1.24695
1.22183
1.16638
1.08112
0.967395
0.827406
0.664219
0.481548
0.283786
0.0758813
-0.137266
-0.347703
-0.55011
-0.738316
-0.906226
-1.04813
-1.15902
-1.23431
-1.27051
-1.26394
-1.21613
-1.12795
-1.00193
-0.842282
-0.654683
-0.446216
-0.224978
-0.000403432
0.217546
0.419376
0.595522
0.737144
0.836849
0.889221
0.890778
0.841443
0.742813
0.599709
0.419972
0.213789
-0.00717025
-0.228963
-0.43681
-0.617575
-0.758517
-0.84907
-0.881737
-0.852989
-0.764288
-0.621023
-0.433489
-0.215444
0.0172419
0.244242
0.447086
0.608267
0.712634
0.749511
0.713644
0.607511
0.438466
0.220936
-0.0271942
-0.296172
-0.531525
-0.723959
-0.854736
-0.90985
-0.882716
-0.776903
-0.603541
-0.382233
-0.135262
0.103696
0.308954
0.456436
0.528708
0.518055
0.429008
0.276121
0.0813332
-0.141109
-0.328206
-0.468758
-0.542945
-0.540964
-0.466672
-0.335385
-0.168797
-0.000201694
0.140904
0.231116
0.255025
0.211633
0.111124
-0.0827771
-0.224062
-0.341419
-0.412292
-0.415666
-0.354763
-0.239211
-0.0822197
0.0691192
0.191456
0.260475
-0.241985
-0.253335
-0.276344
-0.311359
-0.359149
-0.421204
-0.493207
-0.573999
-0.661919
-0.754827
-0.850466
-0.946026
-1.03873
-1.1256
-1.20375
-1.27041
-1.32306
-1.35951
-1.3781
-1.37771
-1.35777
-1.31814
-1.25921
-1.1818
-1.08725
-0.977326
-0.85437
-0.720892
-0.579823
-0.433988
-0.286448
-0.140147
0.00199195
0.137545
0.264556
0.381704
0.485359
0.575322
0.650834
0.711173
0.75573
0.784055
0.795876
0.7911
0.769823
0.732314
0.679008
0.610488
0.527499
0.430929
0.321817
0.201334
0.070807
-0.0683327
-0.214518
-0.366071
-0.521175
-0.677948
-0.834088
-0.988248
-1.13798
-1.28116
-1.41563
-1.53928
-1.65004
-1.74592
-1.82508
-1.88585
-1.92673
-1.94654
-1.94459
-1.92096
-1.86578
-1.78897
-1.68913
-1.56631
-1.4213
-1.25541
-1.07046
-0.86877
-0.653009
-0.426304
-0.192136
0.0455052
0.28253
0.514682
0.737374
0.946114
1.13632
1.30375
1.44417
1.55388
1.62963
1.66849
1.67105
1.63453
1.55835
1.44314
1.29069
1.10394
0.886886
0.644486
0.38264
0.107973
-0.172204
-0.449263
-0.715297
-0.962082
-1.18168
-1.36669
-1.51047
-1.60786
-1.65504
-1.63966
-1.57135
-1.45062
-1.28049
-1.06638
-0.815886
-0.538436
-0.244548
0.0528739
0.340869
0.606699
0.837594
1.0221
1.15062
1.21578
1.21274
1.14208
1.00592
0.811072
0.567877
0.290106
-0.00669686
-0.303341
-0.580719
-0.821255
-1.00814
-1.12775
-1.17
-1.12811
-1.00657
-0.812892
-0.560654
-0.268409
0.0430612
0.346006
0.616336
0.830904
0.969503
1.01809
0.970579
0.82968
0.606395
0.321504
0.00449414
-0.373601
-0.671443
-0.919728
-1.08771
-1.15598
-1.11635
-0.973041
-0.741922
-0.449132
-0.124526
0.187357
0.453
0.640933
0.728666
0.707186
0.583103
0.37799
0.127293
-0.187031
-0.422159
-0.601699
-0.693433
-0.684376
-0.580179
-0.402336
-0.179769
0.042327
0.226826
0.342394
0.369985
0.30918
0.175028
-0.0777345
-0.262352
-0.415212
-0.503293
-0.512164
-0.434709
-0.290067
-0.0795145
0.108916
0.264953
0.353476
0.254431
0.225389
0.166975
0.0794779
-0.0357469
-0.174543
-0.329621
-0.506621
-0.698048
-0.89664
-1.09653
-1.29111
-1.4748
-1.64214
-1.78865
-1.91038
-2.00416
-2.06762
-2.09902
-2.09716
-2.06135
-1.99114
-1.88717
-1.75056
-1.58388
-1.39053
-1.17588
-0.945941
-0.707024
-0.464813
-0.225404
0.00577137
0.224556
0.428004
0.614831
0.780854
0.927872
1.05352
1.15642
1.23586
1.29152
1.32339
1.33166
1.31675
1.27924
1.21986
1.13951
1.03919
0.920115
0.783613
0.631143
0.464323
0.284933
0.0948818
-0.103772
-0.308856
-0.51804
-0.728375
-0.938273
-1.14466
-1.34483
-1.53603
-1.71555
-1.88064
-2.02865
-2.15705
-2.26339
-2.34537
-2.40082
-2.42783
-2.42456
-2.38892
-2.32973
-2.23745
-2.1132
-1.95824
-1.77413
-1.56284
-1.32683
-1.06917
-0.793388
-0.50352
-0.204128
0.0997681
0.402844
0.699529
0.984054
1.25049
1.49311
1.70632
1.88479
2.02392
2.11932
2.16771
2.16777
2.11766
2.0167
1.86584
1.66752
1.42544
1.1448
0.832035
0.494727
0.141539
-0.217892
-0.57298
-0.91339
-1.2285
-1.50797
-1.7422
-1.9231
-2.04472
-2.10447
-2.07752
-1.98548
-1.82664
-1.60451
-1.32616
-1.0014
-0.642361
-0.262794
0.120371
0.490531
0.831399
1.12653
1.36101
1.52241
1.60132
1.59273
1.49614
1.3149
1.05806
0.739306
0.376645
-0.00991027
-0.395105
-0.75454
-1.06525
-1.30577
-1.45874
-1.51301
-1.45355
-1.29237
-1.03862
-0.709618
-0.329485
0.0755368
0.467977
0.817614
1.09446
1.27276
1.33486
1.27231
1.08933
0.800499
0.431869
0.0164497
-0.443617
-0.831896
-1.14903
-1.36095
-1.44406
-1.38856
-1.2004
-0.900858
-0.523969
-0.107736
0.289081
0.624581
0.858527
0.963159
0.927045
0.759839
0.489572
0.155683
-0.22381
-0.531786
-0.75887
-0.870388
-0.851825
-0.711463
-0.478252
-0.189763
0.0949151
0.329438
0.473557
0.503929
0.421485
0.248359
-0.0729949
-0.307098
-0.501789
-0.614717
-0.62411
-0.52546
-0.338335
-0.0862463
0.153572
0.349312
0.459966
1.35085
1.30562
1.21602
1.08335
0.9086
0.688327
0.399797
0.0805729
-0.262052
-0.616576
-0.974037
-1.32511
-1.66208
-1.9765
-2.26081
-2.50797
-2.7115
-2.86539
-2.96441
-3.00389
-2.98095
-2.89429
-2.74443
-2.53377
-2.26732
-1.95205
-1.59874
-1.22297
-0.836118
-0.452666
-0.0834457
0.263086
0.583066
0.873457
1.13092
1.35607
1.54713
1.70401
1.82703
1.91677
1.9739
1.99923
1.9938
1.95864
1.89488
1.80379
1.68671
1.54512
1.38059
1.19485
0.989806
0.767507
0.530193
0.280257
0.0202759
-0.247029
-0.518719
-0.791724
-1.06298
-1.32917
-1.587
-1.83302
-2.06384
-2.27606
-2.46639
-2.63167
-2.76886
-2.87519
-2.94814
-2.98546
-2.98536
-2.94655
-2.8706
-2.75519
-2.60044
-2.40745
-2.17797
-1.91439
-1.61986
-1.29822
-0.953894
-0.591987
-0.218235
0.161077
0.539215
0.909244
1.26392
1.59578
1.89775
2.16269
2.38412
2.5561
2.67338
2.73193
2.7291
2.6633
2.53392
2.34232
2.09161
1.78643
1.4334
1.04059
0.617597
0.175211
-0.274367
-0.717883
-1.14235
-1.5344
-1.88095
-2.16991
-2.39056
-2.53341
-2.59108
-2.5661
-2.45146
-2.25041
-1.96921
-1.6174
-1.2077
-0.755658
-0.278971
0.201665
0.665312
1.09109
1.45859
1.74919
1.94738
2.04166
2.02566
1.89845
1.66504
1.33687
0.931531
0.471595
-0.0176966
-0.503715
-0.956457
-1.34666
-1.64715
-1.83674
-1.90303
-1.82348
-1.61723
-1.29463
-0.877764
-0.396944
0.114065
0.608609
1.04844
1.39579
1.61851
1.69443
1.61434
1.38262
1.01843
0.554204
0.0300856
-0.527947
-1.01501
-1.40978
-1.67078
-1.76966
-1.69502
-1.45511
-1.07729
-0.604901
-0.0843712
0.407969
0.821538
1.10632
1.22826
1.174
0.956624
0.611494
0.186974
-0.27302
-0.658911
-0.938778
-1.07139
-1.04072
-0.858205
-0.561427
-0.198016
0.157272
0.447621
0.622673
0.654601
0.546031
0.327508
-0.0668985
-0.357331
-0.599501
-0.739747
-0.749382
-0.626292
-0.39331
-0.0919779
0.203274
0.442915
0.577961
3.00968
2.91597
2.72711
2.43867
2.04822
1.56099
0.967089
0.25819
-0.44044
-1.11779
-1.7776
-2.42528
-3.02255
-3.5565
-4.0163
-4.39399
-4.68422
-4.8832
-4.98803
-4.99622
-4.90518
-4.71253
-4.41843
-4.02212
-3.52892
-2.94651
-2.29082
-1.59895
-0.921966
-0.298944
0.2637
0.755355
1.18339
1.55241
1.86867
2.13574
2.35483
2.52756
2.6559
2.7418
2.78713
2.79367
2.76306
2.69692
2.5969
2.46457
2.30167
2.11003
1.89158
1.64841
1.38282
1.09726
0.794434
0.477194
0.148614
-0.188021
-0.529187
-0.871252
-1.21037
-1.54262
-1.86396
-2.17026
-2.45741
-2.72129
-2.95791
-3.16346
-3.33428
-3.46704
-3.55868
-3.6066
-3.60877
-3.56375
-3.4711
-3.33016
-3.14125
-2.90569
-2.62559
-2.30384
-1.94432
-1.55173
-1.13151
-0.689916
-0.23398
0.228622
0.689604
1.14052
1.57239
1.97624
2.34334
2.66509
2.9335
3.14129
3.28224
3.35144
3.34519
3.26178
3.10078
2.86402
2.55522
2.18025
1.74722
1.26601
0.748485
0.207855
-0.340906
-0.881699
-1.39854
-1.87505
-2.2953
-2.64442
-2.90885
-3.0766
-3.13664
-3.10748
-2.96509
-2.71593
-2.3686
-1.93513
-1.43143
-0.876705
-0.292154
0.296006
0.862415
1.38169
1.82865
2.18065
2.41892
2.52944
2.50407
2.34218
2.05021
1.64256
1.14071
0.572701
-0.0300599
-0.627861
-1.18356
-1.66111
-2.02706
-2.25468
-2.32751
-2.23071
-1.9756
-1.57663
-1.06201
-0.469624
0.158606
0.765946
1.30512
1.72985
2.00093
2.09157
1.99098
1.70461
1.25667
0.686899
0.0451084
-0.625556
-1.21906
-1.69803
-2.01194
-2.12689
-2.0303
-1.73248
-1.26777
-0.689446
-0.0551229
0.542267
1.04075
1.38001
1.51966
1.44383
1.17002
0.741893
0.219161
-0.333248
-0.802383
-1.13885
-1.29338
-1.24776
-1.0176
-0.650201
-0.203824
0.228699
0.579553
0.787376
0.819421
0.680129
0.407583
-0.0566035
-0.412046
-0.706589
-0.875949
-0.885569
-0.735463
-0.453603
-0.0966904
0.257424
0.544034
0.705132
5.61255
5.48991
5.24569
4.86879
4.34543
3.65104
2.79568
1.75126
0.473558
-0.770949
-1.87947
-2.85626
-3.72605
-4.48269
-5.12799
-5.65983
-6.07616
-6.37362
-6.54819
-6.59571
-6.51001
-6.28244
-5.91004
-5.37966
-4.68833
-3.82992
-2.75029
-1.60256
-0.621845
0.183078
0.881188
1.49198
2.01579
2.45945
2.82628
3.11996
3.34689
3.51483
3.62905
3.69355
3.71157
3.68568
3.61806
3.51059
3.36505
3.18324
2.96702
2.71836
2.43941
2.13252
1.80027
1.44548
1.07125
0.68091
0.278089
-0.133429
-0.549504
-0.965819
-1.37785
-1.78097
-2.17041
-2.54125
-2.88864
-3.2077
-3.4937
-3.74209
-3.94859
-4.1092
-4.22037
-4.27905
-4.28285
-4.22987
-4.11931
-3.95078
-3.72486
-3.44317
-3.10826
-2.72361
-2.29385
-1.82467
-1.32261
-0.795177
-0.250771
0.301427
0.851468
1.38925
1.90403
2.38509
2.82192
3.20439
3.52293
3.76884
3.93476
4.01486
4.00463
3.90202
3.70679
3.42113
3.04965
2.59946
2.08026
1.50395
0.884723
0.238592
-0.416566
-1.06172
-1.67758
-2.24459
-2.74379
-3.15743
-3.46966
-3.66736
-3.74089
-3.6945
-3.51783
-3.21498
-2.79539
-2.27345
-1.66829
-1.00279
-0.302049
0.401599
1.07831
1.69778
2.22986
2.64742
2.928
3.05495
3.01893
2.81899
2.46333
1.96938
1.3631
0.67839
-0.0476792
-0.765618
-1.43212
-2.00353
-2.43952
-2.70653
-2.77712
-2.66946
-2.36158
-1.87968
-1.25909
-0.546302
0.209079
0.937419
1.58313
2.0906
2.41307
2.51899
2.39527
2.04942
1.51076
0.827702
0.0598598
-0.733871
-1.44047
-2.00872
-2.37851
-2.50983
-2.38832
-2.02731
-1.46881
-0.777067
-0.0190425
0.68982
1.27827
1.67461
1.83164
1.73149
1.39602
0.878292
0.250586
-0.402757
-0.959757
-1.35557
-1.53223
-1.4691
-1.18651
-0.742431
-0.207216
0.308001
0.722915
0.964699
0.995414
0.821461
0.487706
-0.043212
-0.470647
-0.821173
-1.02091
-1.03007
-0.850847
-0.517529
-0.10059
0.315075
0.650721
0.838973
9.02625
8.87558
8.56358
8.05699
7.30473
6.22354
4.66034
2.49614
0.0225886
-2.06032
-3.78761
-5.25892
-6.50396
-7.54647
-8.40074
-9.07717
-9.58298
-9.92228
-10.0962
-10.1032
-9.93493
-9.57709
-9.01932
-8.23585
-7.19613
-5.8599
-4.07783
-1.81506
-0.0480077
1.18637
2.10021
2.79413
3.32817
3.74189
4.06262
4.30942
4.49465
4.62335
4.69942
4.72557
4.70387
4.63607
4.52368
4.36827
4.17144
3.93489
3.66045
3.35018
3.00637
2.63158
2.22864
1.80069
1.35124
0.884047
0.403249
-0.0868353
-0.581386
-1.07543
-1.56373
-2.04094
-2.50152
-2.93975
-3.34997
-3.72653
-4.06392
-4.35683
-4.60028
-4.78965
-4.92077
-4.99013
-4.99493
-4.93287
-4.80305
-4.6052
-4.34002
-4.00946
-3.61657
-3.16547
-2.66162
-2.1117
-1.5234
-0.905568
-0.268076
0.378313
1.02196
1.65096
2.25276
2.81478
3.32468
3.77067
4.14154
4.42717
4.61893
4.70997
4.69525
4.57219
4.34066
4.00332
3.56574
3.03627
2.4263
1.75004
1.02398
0.266814
-0.500087
-1.25466
-1.97427
-2.63607
-3.21786
-3.69894
-4.06118
-4.28961
-4.37369
-4.31153
-4.09805
-3.73785
-3.24159
-2.62608
-1.91367
-1.13137
-0.308716
0.51623
1.3089
2.03341
2.65451
3.1405
3.46497
3.60853
3.56066
3.32008
2.89668
2.31103
1.59425
0.78622
-0.0694688
-0.914281
-1.69753
-2.36771
-2.87746
-3.18821
-3.27323
-3.13563
-2.76862
-2.19804
-1.46525
-0.625454
0.264579
1.11988
1.87739
2.47143
2.84739
2.96846
2.81966
2.41059
1.77593
0.973337
0.0735142
-0.850353
-1.67507
-2.33629
-2.7638
-2.91125
-2.76245
-2.33413
-1.67652
-0.865868
0.0229181
0.847785
1.52963
1.98463
2.15606
2.03167
1.63046
1.01793
0.280342
-0.479772
-1.12801
-1.58486
-1.78337
-1.70055
-1.36177
-0.836531
-0.207857
0.393714
0.87503
1.15136
1.17942
0.967827
0.569686
-0.0303814
-0.532577
-0.941293
-1.17208
-1.18019
-0.970166
-0.583619
-0.103771
0.375156
0.760973
0.976969
12.6375
12.4959
12.2267
11.8083
11.2577
10.5838
9.92785
9.10648
2.64972
3.06266
3.48654
3.94674
4.38145
4.77377
5.09911
5.36331
5.56121
5.70122
5.78554
5.81725
5.79834
5.73048
5.61496
5.45293
5.24552
4.99398
4.69978
4.3646
3.99041
3.57954
3.13469
2.65894
2.15574
1.62896
1.08282
0.521981
-0.0487863
-0.623812
-1.19754
-1.76403
-2.31715
-2.85059
-3.35781
-3.83236
-4.2677
-4.65757
-4.9959
-5.27694
-5.49542
-5.64656
-5.72636
-5.73173
-5.65976
-5.50971
-5.28125
-4.97524
-4.59398
-4.14103
-3.62116
-3.0407
-2.40736
-1.73004
-1.01894
-0.285443
0.45808
1.19816
1.92108
2.61242
3.25766
3.84267
4.35383
4.77834
5.10459
5.32263
5.42455
5.40487
5.26041
4.99115
4.60032
4.09437
3.48296
2.77936
1.99992
1.1638
0.292325
-0.589682
-1.45678
-2.28304
-3.04214
-3.70859
-4.25878
-4.67198
-4.93117
-5.02443
-4.9465
-4.69485
-4.27494
-3.6991
-2.98663
-2.16333
-1.26045
-0.312441
0.637639
1.54968
2.38225
3.09479
3.6509
4.02018
4.18036
4.11954
3.83637
3.34232
2.66163
1.83001
0.894158
-0.0948034
-1.07103
-1.97474
-2.74671
-3.33249
-3.68836
-3.78539
-3.61831
-3.18904
-2.52576
-1.67646
-0.704709
0.323032
1.30985
2.18251
2.86545
3.29599
3.43202
3.25657
2.78149
2.04745
1.12122
0.0855429
-0.972778
-1.91855
-2.67481
-3.16088
-3.32398
-3.14606
-2.64753
-1.8872
-0.953951
0.0693556
1.01307
1.79019
2.30479
2.49338
2.33945
1.86929
1.15842
0.30779
-0.562515
-1.30387
-1.82243
-2.04196
-1.93797
-1.54028
-0.930576
-0.206147
0.48419
1.03308
1.34402
1.36824
1.11686
0.652562
-0.018831
-0.596989
-1.06492
-1.32687
-1.33329
-1.09126
-0.650561
-0.106267
0.436594
0.872865
1.11671
16.8639
16.8174
16.7325
16.6098
16.4753
16.3418
16.2332
16.1444
5.6623
5.71022
5.90745
6.06946
6.2605
6.44584
6.61065
6.75418
6.86449
6.9347
6.96035
6.93977
6.87165
6.75548
6.59113
6.37882
6.11899
5.81239
5.46016
5.06383
4.62533
4.14702
3.63173
3.08275
2.50383
1.89923
1.27363
0.632176
-0.0196764
-0.675739
-1.32969
-1.97488
-2.60441
-3.21117
-3.78781
-4.32704
-4.82149
-5.26408
-5.64796
-5.96664
-6.21415
-6.38509
-6.47487
-6.47973
-6.39789
-6.22708
-5.96728
-5.61957
-5.18665
-4.67258
-4.08281
-3.42454
-2.70656
-1.93893
-1.13327
-0.302459
0.539453
1.37716
2.19513
2.97701
3.70638
4.36726
4.94418
5.42274
5.78985
6.03423
6.14696
6.12184
5.95534
5.64759
5.2023
4.62689
3.93229
3.13371
2.2497
1.30208
0.315012
-0.683465
-1.66434
-2.59833
-3.45567
-4.20752
-4.82724
-5.29147
-5.58104
-5.68238
-5.58854
-5.29801
-4.81722
-4.16032
-3.34927
-2.4134
-1.38821
-0.313485
0.763485
1.7963
2.7381
3.54303
4.16975
4.58408
4.76078
4.68613
4.35911
3.79289
3.01538
2.06693
1.00125
-0.123827
-1.23303
-2.25881
-3.13383
-3.79644
-4.19748
-4.30478
-4.1085
-3.61544
-2.85728
-1.88916
-0.782975
0.383489
1.50402
2.49324
3.26587
3.75119
3.9019
3.69868
3.15601
2.32074
1.26901
0.0956486
-1.09882
-2.16668
-3.01851
-3.56309
-3.74124
-3.53286
-2.96242
-2.09752
-1.04007
0.119202
1.18261
2.05536
2.62946
2.83401
2.64961
2.10871
1.29756
0.332642
-0.649209
-1.48413
-2.06418
-2.30423
-2.17745
-1.71919
-1.02363
-0.201826
0.577747
1.1943
1.53937
1.55879
1.26628
0.734897
-0.00856285
-0.662888
-1.19005
-1.48278
-1.48692
-1.21218
-0.717209
-0.108107
0.498381
0.984633
1.25602
20.8292
20.8044
20.7565
20.6808
20.5875
20.4713
20.362
20.2258
6.89012
7.11732
7.3472
7.52754
7.70081
7.85412
7.97007
8.05762
8.11062
8.12677
8.10184
8.03319
7.91833
7.75576
7.54424
7.28315
6.9723
6.61199
6.20303
5.74677
5.24506
4.70033
4.11555
3.49422
2.84042
2.15881
1.45452
0.733211
0.000974538
-0.73538
-1.46885
-2.19205
-2.89733
-3.57679
-4.22224
-4.82557
-5.37859
-5.87339
-6.30233
-6.65818
-6.93429
-7.12464
-7.22417
-7.22886
-7.13606
-6.94399
-6.65253
-6.2629
-5.77817
-5.20291
-4.54323
-3.80719
-3.00464
-2.14684
-1.24677
-0.318823
0.62119
1.55624
2.46894
3.34099
4.15411
4.89044
5.53275
6.06497
6.47257
6.74299
6.86629
6.83537
6.64662
6.30023
5.80042
5.15545
4.37771
3.48429
2.49591
1.43712
0.334782
-0.779609
-1.87381
-2.91504
-3.87006
-4.70674
-5.39539
-5.91001
-6.22925
-6.33798
-6.22795
-5.89834
-5.3565
-4.61842
-3.70876
-2.66048
-1.51345
-0.311755
0.891529
2.0446
3.09515
3.99203
4.68889
5.1478
5.34063
5.25165
4.88035
4.24169
3.36685
2.3016
1.10606
-0.155695
-1.39742
-2.54501
-3.52276
-4.26176
-4.70731
-4.82373
-4.59834
-4.04101
-3.18765
-2.1003
-0.860095
0.445907
1.69936
2.80465
3.66641
4.20593
4.37085
4.13927
3.52854
2.5917
1.41455
0.103799
-1.22626
-2.41549
-3.36206
-3.96431
-4.15669
-3.91716
-3.2742
-2.30468
-1.12488
0.173111
1.35354
2.3209
2.95354
3.17294
2.95754
2.34534
1.43355
0.354705
-0.738132
-1.66576
-2.30624
-2.56576
-2.4154
-1.89597
-1.11411
-0.195568
0.672727
1.35606
1.7344
1.74824
1.41396
0.815364
0.000601213
-0.729258
-1.31484
-1.63753
-1.63891
-1.33122
-0.782587
-0.109323
0.55961
1.09472
1.39298
24.4221
24.4066
24.377
24.3294
24.2775
24.2144
24.167
24.1191
8.80614
8.80093
8.8958
8.97886
9.07524
9.16478
9.22939
9.26975
9.27787
9.25091
9.18414
9.07431
8.91831
8.71381
8.45893
8.15239
7.79349
7.38213
6.91887
6.40492
5.84214
5.23302
4.58071
3.88896
3.16216
2.40537
1.62421
0.824867
0.0140475
-0.80082
-1.61206
-2.41157
-3.19096
-3.94155
-4.65435
-5.32041
-5.93072
-6.47657
-6.94953
-7.34166
-7.64559
-7.85473
-7.96354
-7.96762
-7.8638
-7.65046
-7.32752
-6.89638
-6.36043
-5.72476
-4.99613
-4.18345
-3.29759
-2.35098
-1.35794
-0.334364
0.702177
1.73296
2.73879
3.69947
4.59482
5.40522
6.11166
6.69645
7.14367
7.43951
7.573
7.53613
7.32522
6.94057
6.38693
5.67334
4.81363
3.8268
2.73567
1.56744
0.351759
-0.87652
-2.08206
-3.2286
-4.27946
-5.19929
-5.95542
-6.51918
-6.86711
-6.98271
-6.85633
-6.48793
-5.88574
-5.0675
-4.06059
-2.90158
-1.63478
-0.307701
1.01962
2.29085
3.44827
4.4354
5.20106
5.70348
5.91193
5.80841
5.39312
4.68273
3.71147
2.53084
1.20715
-0.18914
-1.5615
-2.82907
-3.90787
-4.72176
-5.21067
-5.33543
-5.08107
-4.45992
-3.51244
-2.3072
-0.934828
0.509002
1.89301
3.11237
4.06153
4.65398
4.83257
4.57238
3.8942
2.85692
1.55577
0.11019
-1.35307
-2.66144
-3.70077
-4.35914
-4.56503
-4.294
-3.579
-2.50603
-1.20744
0.229819
1.52309
2.58304
3.27261
3.50581
3.25925
2.57631
1.56487
0.374
-0.827675
-1.84603
-2.54519
-2.82302
-2.64872
-2.06845
-1.20105
-0.187767
0.767615
1.51605
1.92644
1.93413
1.5581
0.892854
0.00887823
-0.795164
-1.43765
-1.78915
-1.78736
-1.44701
-0.84587
-0.109969
0.61951
1.20184
1.526
27.6474
27.6375
27.6195
27.5903
27.5622
27.5266
27.5048
27.481
10.1192
10.1221
10.1934
10.2524
10.311
10.3597
10.385
10.3878
10.3603
10.2986
10.1975
10.0532
9.86163
9.62016
9.32629
8.97825
8.57488
8.11576
7.60124
7.03249
6.41141
5.74064
5.02348
4.26397
3.46682
2.63751
1.78212
0.907384
0.0206255
-0.870123
-1.75654
-2.62983
-3.48091
-4.30033
-5.07827
-5.80502
-6.47076
-7.06599
-7.58151
-8.00864
-8.33935
-8.56649
-8.68406
-8.68728
-8.57241
-8.33809
-7.98429
-7.51256
-6.92662
-6.23207
-5.43628
-4.54899
-3.58205
-2.54904
-1.46554
-0.348975
0.781423
1.90525
3.00155
4.04829
5.02346
5.9057
6.6743
7.31
7.79554
8.11593
8.25924
8.21628
7.9836
7.56156
6.95542
6.17498
5.23546
4.15766
2.96664
1.69194
0.366185
-0.972713
-2.28634
-3.53508
-4.6789
-5.6793
-6.50075
-7.11188
-7.48733
-7.60933
-7.46668
-7.06017
-6.39907
-5.50269
-4.40105
-3.13428
-1.75085
-0.301917
1.14583
2.53184
3.79305
4.86774
5.70013
6.24454
6.46804
6.34994
5.89158
5.11093
4.04559
2.75218
1.30338
-0.22318
-1.72296
-3.10735
-4.28433
-5.17082
-5.70152
-5.834
-5.55099
-4.86731
-3.82792
-2.50755
-1.00649
0.571829
2.0825
3.41265
4.44655
5.09006
5.28177
4.99306
4.24893
3.11361
1.69139
0.114737
-1.47747
-2.90154
-4.03065
-4.74306
-4.9616
-4.65928
-3.87366
-2.69938
-1.28731
0.288449
1.68885
2.83859
3.58295
3.8289
3.55147
2.79927
1.69052
0.390497
-0.916402
-2.02262
-2.77816
-3.07306
-2.87484
-2.2349
-1.28435
-0.178182
0.861085
1.67227
2.11332
2.11441
1.69726
0.966514
0.0164758
-0.859793
-1.55708
-1.936
-1.93076
-1.55841
-0.906476
-0.110114
0.677445
1.30493
1.65383
30.5258
30.5191
30.5074
30.4877
30.4704
30.4466
30.4342
30.4171
11.2789
11.2663
11.3271
11.3814
11.4217
11.4408
11.4361
11.4101
11.3553
11.2666
11.138
10.965
10.7433
10.4696
10.1413
9.75583
9.31181
8.80844
8.24598
7.62564
6.94945
6.2202
5.44139
4.61733
3.75306
2.85445
1.9281
0.981215
0.0218075
-0.941521
-1.89986
-2.84379
-3.76352
-4.64885
-5.4892
-6.27407
-6.99291
-7.63546
-8.19172
-8.65229
-9.00857
-9.25277
-9.37855
-9.38084
-9.25488
-9.00012
-8.61642
-8.10547
-7.47127
-6.71994
-5.85947
-4.90034
-3.85533
-2.73914
-1.56859
-0.36255
0.858138
2.07141
3.25469
4.38413
5.43595
6.38715
7.21536
7.89981
8.42208
8.7659
8.91864
8.86953
8.61573
8.15757
7.50076
6.6559
5.63946
4.4741
3.18692
1.80983
0.378306
-1.06694
-2.4844
-3.83129
-5.06436
-6.14203
-7.02605
-7.68246
-8.08403
-8.21203
-8.0533
-7.60982
-6.89183
-5.92011
-4.7272
-3.35661
-1.86074
-0.294897
1.26854
2.76497
4.12591
5.28469
6.1811
6.76564
7.00361
6.871
6.37094
5.5223
4.36627
2.96374
1.39413
-0.257226
-1.87989
-3.37681
-4.64823
-5.60436
-6.17492
-6.31458
-6.00351
-5.25931
-4.13104
-2.69956
-1.07422
0.633231
2.26575
3.70247
4.81764
5.5099
5.7142
5.39732
4.58943
3.35956
1.82049
0.117416
-1.598
-3.13335
-4.34848
-5.11241
-5.34276
-5.00972
-4.15568
-2.88304
-1.36156
0.345612
1.84877
3.08501
3.88159
4.13925