/*--------------------------------*- C++ -*----------------------------------*\
  =========                 |
  \\      /  F ield         | OpenFOAM: The Open Source CFD Toolbox
   \\    /   O peration     | Website:  https://openfoam.org
    \\  /    A nd           | Version:  12
     \\/     M anipulation  |
\*---------------------------------------------------------------------------*/
FoamFile
{
    format      ascii;
    class       volScalarField;
    location    "19.1";
    object      p;
}
// * * * * * * * * * * * * * * * * * * * * * * * * * * * * * * * * * * * * * //

dimensions      [1 -1 -2 0 0 0 0];

internalField   nonuniform List<scalar> 
3829
(
-618.345
-618.343
-618.341
-618.337
-618.332
-618.325
-618.316
-618.305
-618.293
-618.278
-618.26
-618.239
-618.217
-618.192
-618.165
-618.135
-618.102
-618.067
-618.028
-617.986
-617.941
-617.893
-617.841
-617.786
-617.727
-617.665
-617.599
-617.53
-617.458
-617.382
-617.302
-617.218
-617.131
-617.042
-616.95
-616.857
-616.761
-616.664
-616.566
-616.468
-616.369
-616.27
-616.171
-616.073
-615.977
-615.882
-615.789
-615.698
-615.61
-615.526
-615.445
-615.368
-615.295
-615.227
-615.164
-615.106
-615.054
-615.008
-614.968
-614.935
-614.907
-614.884
-614.868
-614.856
-614.851
-614.85
-614.853
-614.861
-614.872
-614.887
-614.903
-614.922
-614.942
-614.962
-614.981
-614.999
-615.016
-615.029
-615.04
-615.046
-615.047
-615.043
-615.033
-615.017
-614.994
-614.964
-614.927
-614.884
-614.836
-614.782
-614.723
-614.66
-614.595
-614.527
-614.459
-614.392
-614.327
-614.266
-614.209
-614.159
-614.116
-614.082
-614.058
-614.044
-614.043
-614.053
-614.075
-614.106
-614.148
-614.197
-614.253
-614.314
-614.379
-614.443
-614.506
-614.564
-614.615
-614.658
-614.689
-614.708
-614.713
-614.703
-614.678
-614.64
-614.589
-614.529
-614.462
-614.39
-614.317
-614.247
-614.184
-614.132
-614.092
-614.069
-614.063
-614.076
-614.107
-614.153
-614.213
-614.283
-614.357
-614.431
-614.498
-614.555
-614.595
-614.616
-614.616
-614.59
-614.542
-614.475
-614.394
-614.305
-614.198
-614.114
-614.043
-613.992
-613.966
-613.966
-613.995
-614.049
-614.122
-614.207
-614.297
-614.379
-614.446
-614.491
-614.51
-614.5
-614.465
-614.412
-614.349
-614.281
-614.229
-614.197
-614.189
-614.208
-614.25
-614.308
-614.371
-614.43
-614.468
-614.48
-614.462
-614.413
-614.346
-614.271
-614.203
-614.156
-614.138
-614.155
-614.201
-614.264
-614.331
-614.386
-614.417
-614.417
-614.39
-614.347
-614.303
-614.276
-1776.82
-1776.82
-1776.81
-1776.81
-1776.8
-1776.8
-1776.79
-1776.78
-1776.77
-1776.75
-1776.74
-1776.72
-1776.7
-1776.68
-1776.66
-1776.63
-1776.6
-1776.57
-1776.53
-1776.49
-1776.45
-1776.4
-1776.34
-1776.28
-1776.22
-1776.15
-1776.08
-1776
-1775.91
-1775.83
-1775.74
-1775.64
-1775.55
-1775.45
-1775.35
-1775.25
-1775.14
-1775.03
-1774.92
-1774.81
-1774.7
-1774.59
-1774.48
-1774.37
-1774.26
-1774.15
-1774.05
-1773.95
-1773.85
-1773.76
-1773.68
-1773.59
-1773.52
-1773.44
-1773.38
-1773.32
-1773.27
-1773.23
-1773.19
-1773.16
-1773.14
-1773.12
-1773.12
-1773.11
-1773.12
-1773.13
-1773.14
-1773.16
-1773.18
-1773.21
-1773.24
-1773.27
-1773.31
-1773.34
-1773.37
-1773.4
-1773.43
-1773.45
-1773.47
-1773.48
-1773.49
-1773.49
-1773.48
-1773.47
-1773.44
-1773.41
-1773.37
-1773.32
-1773.26
-1773.2
-1773.13
-1773.05
-1772.98
-1772.9
-1772.82
-1772.73
-1772.66
-1772.58
-1772.52
-1772.46
-1772.41
-1772.37
-1772.34
-1772.33
-1772.33
-1772.34
-1772.37
-1772.41
-1772.46
-1772.52
-1772.59
-1772.67
-1772.75
-1772.83
-1772.91
-1772.98
-1773.04
-1773.09
-1773.13
-1773.15
-1773.16
-1773.15
-1773.12
-1773.07
-1773.01
-1772.93
-1772.85
-1772.76
-1772.67
-1772.59
-1772.51
-1772.44
-1772.4
-1772.37
-1772.36
-1772.38
-1772.42
-1772.48
-1772.55
-1772.64
-1772.73
-1772.82
-1772.91
-1772.98
-1773.03
-1773.05
-1773.05
-1773.02
-1772.96
-1772.88
-1772.78
-1772.68
-1772.55
-1772.45
-1772.36
-1772.3
-1772.27
-1772.27
-1772.31
-1772.38
-1772.47
-1772.57
-1772.68
-1772.78
-1772.86
-1772.91
-1772.93
-1772.91
-1772.87
-1772.8
-1772.72
-1772.63
-1772.57
-1772.53
-1772.52
-1772.54
-1772.6
-1772.67
-1772.75
-1772.82
-1772.87
-1772.89
-1772.87
-1772.81
-1772.72
-1772.63
-1772.55
-1772.49
-1772.47
-1772.49
-1772.55
-1772.63
-1772.71
-1772.78
-1772.81
-1772.81
-1772.77
-1772.72
-1772.66
-1772.63
-2803.22
-2803.22
-2803.22
-2803.22
-2803.22
-2803.22
-2803.23
-2803.23
-2803.23
-2803.22
-2803.22
-2803.21
-2803.19
-2803.18
-2803.16
-2803.13
-2803.1
-2803.07
-2803.03
-2802.99
-2802.94
-2802.88
-2802.82
-2802.75
-2802.68
-2802.6
-2802.51
-2802.42
-2802.33
-2802.23
-2802.12
-2802
-2801.87
-2801.74
-2801.61
-2801.48
-2801.34
-2801.21
-2801.07
-2800.93
-2800.79
-2800.66
-2800.52
-2800.39
-2800.26
-2800.14
-2800.02
-2799.9
-2799.79
-2799.68
-2799.59
-2799.5
-2799.41
-2799.34
-2799.27
-2799.21
-2799.16
-2799.12
-2799.09
-2799.07
-2799.06
-2799.05
-2799.06
-2799.07
-2799.09
-2799.12
-2799.16
-2799.2
-2799.25
-2799.3
-2799.35
-2799.41
-2799.46
-2799.52
-2799.57
-2799.63
-2799.67
-2799.71
-2799.75
-2799.77
-2799.79
-2799.8
-2799.79
-2799.78
-2799.75
-2799.71
-2799.66
-2799.6
-2799.53
-2799.45
-2799.36
-2799.26
-2799.16
-2799.06
-2798.95
-2798.84
-2798.74
-2798.65
-2798.56
-2798.48
-2798.42
-2798.37
-2798.34
-2798.32
-2798.32
-2798.34
-2798.38
-2798.44
-2798.51
-2798.6
-2798.69
-2798.8
-2798.91
-2799.02
-2799.12
-2799.22
-2799.31
-2799.38
-2799.43
-2799.46
-2799.47
-2799.45
-2799.41
-2799.34
-2799.26
-2799.16
-2799.04
-2798.92
-2798.8
-2798.69
-2798.58
-2798.49
-2798.43
-2798.39
-2798.39
-2798.41
-2798.47
-2798.55
-2798.65
-2798.77
-2798.9
-2799.02
-2799.14
-2799.23
-2799.3
-2799.34
-2799.34
-2799.3
-2799.22
-2799.12
-2798.98
-2798.84
-2798.68
-2798.54
-2798.43
-2798.35
-2798.31
-2798.31
-2798.37
-2798.46
-2798.58
-2798.72
-2798.87
-2799
-2799.1
-2799.17
-2799.19
-2799.16
-2799.09
-2798.99
-2798.88
-2798.76
-2798.67
-2798.61
-2798.6
-2798.64
-2798.71
-2798.82
-2798.93
-2799.03
-2799.1
-2799.12
-2799.1
-2799.01
-2798.9
-2798.78
-2798.66
-2798.59
-2798.56
-2798.59
-2798.67
-2798.78
-2798.9
-2798.98
-2799.03
-2799.02
-2798.96
-2798.88
-2798.8
-2798.74
-3712.41
-3712.42
-3712.42
-3712.43
-3712.43
-3712.44
-3712.45
-3712.46
-3712.47
-3712.48
-3712.49
-3712.51
-3712.52
-3712.53
-3712.53
-3712.53
-3712.52
-3712.5
-3712.47
-3712.44
-3712.39
-3712.33
-3712.27
-3712.19
-3712.1
-3712
-3711.89
-3711.77
-3711.64
-3711.5
-3711.35
-3711.21
-3711.05
-3710.9
-3710.74
-3710.57
-3710.4
-3710.23
-3710.06
-3709.88
-3709.71
-3709.54
-3709.37
-3709.21
-3709.05
-3708.9
-3708.76
-3708.62
-3708.49
-3708.36
-3708.25
-3708.15
-3708.06
-3707.98
-3707.91
-3707.85
-3707.8
-3707.77
-3707.75
-3707.75
-3707.75
-3707.77
-3707.79
-3707.83
-3707.88
-3707.94
-3708.01
-3708.08
-3708.16
-3708.24
-3708.33
-3708.42
-3708.51
-3708.6
-3708.69
-3708.77
-3708.84
-3708.91
-3708.96
-3709.01
-3709.04
-3709.06
-3709.06
-3709.04
-3709.01
-3708.97
-3708.9
-3708.82
-3708.73
-3708.62
-3708.5
-3708.37
-3708.24
-3708.09
-3707.95
-3707.81
-3707.67
-3707.55
-3707.43
-3707.33
-3707.24
-3707.18
-3707.14
-3707.12
-3707.12
-3707.16
-3707.21
-3707.29
-3707.4
-3707.52
-3707.65
-3707.8
-3707.95
-3708.1
-3708.25
-3708.39
-3708.5
-3708.6
-3708.67
-3708.71
-3708.72
-3708.69
-3708.64
-3708.55
-3708.43
-3708.29
-3708.13
-3707.96
-3707.79
-3707.63
-3707.49
-3707.37
-3707.29
-3707.24
-3707.23
-3707.27
-3707.34
-3707.46
-3707.6
-3707.77
-3707.94
-3708.12
-3708.28
-3708.42
-3708.51
-3708.57
-3708.56
-3708.51
-3708.41
-3708.26
-3708.08
-3707.88
-3707.67
-3707.49
-3707.33
-3707.22
-3707.17
-3707.18
-3707.25
-3707.38
-3707.55
-3707.75
-3707.95
-3708.12
-3708.26
-3708.35
-3708.37
-3708.32
-3708.22
-3708.07
-3707.91
-3707.75
-3707.62
-3707.54
-3707.53
-3707.58
-3707.69
-3707.83
-3707.99
-3708.14
-3708.23
-3708.27
-3708.23
-3708.12
-3707.96
-3707.79
-3707.64
-3707.53
-3707.5
-3707.55
-3707.66
-3707.82
-3707.97
-3708.09
-3708.14
-3708.12
-3708.04
-3707.91
-3707.79
-3707.72
-4517.88
-4517.89
-4517.9
-4517.93
-4517.96
-4518
-4518.04
-4518.09
-4518.14
-4518.19
-4518.24
-4518.29
-4518.34
-4518.37
-4518.4
-4518.43
-4518.44
-4518.44
-4518.43
-4518.4
-4518.36
-4518.3
-4518.23
-4518.13
-4518.02
-4517.9
-4517.75
-4517.6
-4517.43
-4517.24
-4517.06
-4516.85
-4516.63
-4516.41
-4516.19
-4515.96
-4515.73
-4515.51
-4515.28
-4515.06
-4514.84
-4514.62
-4514.41
-4514.21
-4514.02
-4513.83
-4513.65
-4513.49
-4513.33
-4513.19
-4513.06
-4512.95
-4512.85
-4512.76
-4512.69
-4512.64
-4512.6
-4512.58
-4512.57
-4512.58
-4512.6
-4512.65
-4512.7
-4512.77
-4512.86
-4512.95
-4513.06
-4513.18
-4513.3
-4513.43
-4513.56
-4513.7
-4513.83
-4513.96
-4514.09
-4514.21
-4514.32
-4514.42
-4514.5
-4514.57
-4514.62
-4514.64
-4514.65
-4514.64
-4514.6
-4514.54
-4514.46
-4514.35
-4514.23
-4514.09
-4513.93
-4513.75
-4513.57
-4513.38
-4513.19
-4513
-4512.82
-4512.65
-4512.49
-4512.36
-4512.25
-4512.16
-4512.11
-4512.09
-4512.1
-4512.15
-4512.23
-4512.34
-4512.48
-4512.65
-4512.84
-4513.04
-4513.25
-4513.46
-4513.66
-4513.84
-4514
-4514.13
-4514.23
-4514.28
-4514.29
-4514.25
-4514.17
-4514.05
-4513.88
-4513.69
-4513.48
-4513.25
-4513.02
-4512.8
-4512.61
-4512.45
-4512.33
-4512.27
-4512.26
-4512.31
-4512.42
-4512.58
-4512.77
-4513
-4513.25
-4513.49
-4513.71
-4513.89
-4514.03
-4514.1
-4514.1
-4514.03
-4513.89
-4513.69
-4513.44
-4513.17
-4512.9
-4512.65
-4512.44
-4512.29
-4512.23
-4512.25
-4512.35
-4512.53
-4512.76
-4513.02
-4513.29
-4513.53
-4513.71
-4513.82
-4513.84
-4513.77
-4513.62
-4513.42
-4513.19
-4512.97
-4512.79
-4512.68
-4512.66
-4512.74
-4512.89
-4513.09
-4513.32
-4513.52
-4513.65
-4513.69
-4513.63
-4513.49
-4513.28
-4513.05
-4512.84
-4512.7
-4512.66
-4512.73
-4512.89
-4513.1
-4513.31
-4513.47
-4513.54
-4513.5
-4513.38
-4513.2
-4513.03
-4512.93
-5231.04
-5231.06
-5231.1
-5231.15
-5231.21
-5231.3
-5231.4
-5231.51
-5231.63
-5231.76
-5231.9
-5232.03
-5232.16
-5232.28
-5232.39
-5232.48
-5232.55
-5232.6
-5232.62
-5232.62
-5232.59
-5232.53
-5232.45
-5232.32
-5232.18
-5232.01
-5231.81
-5231.59
-5231.34
-5231.08
-5230.8
-5230.53
-5230.25
-5229.96
-5229.67
-5229.38
-5229.09
-5228.8
-5228.52
-5228.24
-5227.96
-5227.7
-5227.44
-5227.19
-5226.96
-5226.74
-5226.53
-5226.33
-5226.15
-5225.99
-5225.84
-5225.72
-5225.61
-5225.52
-5225.45
-5225.4
-5225.37
-5225.36
-5225.38
-5225.41
-5225.47
-5225.54
-5225.63
-5225.74
-5225.87
-5226.01
-5226.17
-5226.34
-5226.51
-5226.7
-5226.89
-5227.08
-5227.26
-5227.45
-5227.63
-5227.79
-5227.94
-5228.08
-5228.2
-5228.29
-5228.36
-5228.4
-5228.41
-5228.4
-5228.35
-5228.27
-5228.17
-5228.03
-5227.87
-5227.68
-5227.48
-5227.25
-5227.01
-5226.76
-5226.51
-5226.26
-5226.03
-5225.8
-5225.6
-5225.42
-5225.28
-5225.17
-5225.1
-5225.08
-5225.1
-5225.17
-5225.28
-5225.43
-5225.62
-5225.84
-5226.09
-5226.36
-5226.64
-5226.92
-5227.18
-5227.43
-5227.64
-5227.81
-5227.93
-5228
-5228.01
-5227.96
-5227.85
-5227.69
-5227.47
-5227.21
-5226.92
-5226.62
-5226.32
-5226.03
-5225.78
-5225.57
-5225.41
-5225.33
-5225.32
-5225.39
-5225.54
-5225.75
-5226.01
-5226.32
-5226.64
-5226.96
-5227.26
-5227.5
-5227.68
-5227.77
-5227.78
-5227.68
-5227.5
-5227.23
-5226.91
-5226.56
-5226.19
-5225.86
-5225.59
-5225.41
-5225.32
-5225.35
-5225.49
-5225.73
-5226.04
-5226.39
-5226.74
-5227.06
-5227.29
-5227.43
-5227.45
-5227.35
-5227.14
-5226.86
-5226.55
-5226.25
-5226.02
-5225.87
-5225.85
-5225.96
-5226.16
-5226.44
-5226.74
-5227.01
-5227.19
-5227.24
-5227.16
-5226.97
-5226.69
-5226.38
-5226.11
-5225.93
-5225.88
-5225.97
-5226.18
-5226.47
-5226.75
-5226.96
-5227.05
-5226.99
-5226.81
-5226.57
-5226.34
-5226.2
-5862.55
-5862.59
-5862.66
-5862.76
-5862.91
-5863.08
-5863.29
-5863.52
-5863.78
-5864.05
-5864.32
-5864.59
-5864.85
-5865.09
-5865.31
-5865.51
-5865.66
-5865.78
-5865.86
-5865.89
-5865.87
-5865.81
-5865.69
-5865.52
-5865.31
-5865.05
-5864.76
-5864.44
-5864.1
-5863.74
-5863.35
-5862.95
-5862.55
-5862.16
-5861.76
-5861.38
-5861
-5860.63
-5860.27
-5859.93
-5859.59
-5859.27
-5858.96
-5858.67
-5858.39
-5858.13
-5857.89
-5857.67
-5857.46
-5857.28
-5857.12
-5856.98
-5856.86
-5856.77
-5856.7
-5856.67
-5856.65
-5856.66
-5856.69
-5856.75
-5856.84
-5856.95
-5857.09
-5857.25
-5857.42
-5857.62
-5857.84
-5858.06
-5858.3
-5858.55
-5858.8
-5859.06
-5859.31
-5859.55
-5859.79
-5860.01
-5860.21
-5860.39
-5860.54
-5860.67
-5860.76
-5860.81
-5860.83
-5860.82
-5860.76
-5860.66
-5860.53
-5860.35
-5860.15
-5859.91
-5859.64
-5859.35
-5859.04
-5858.72
-5858.4
-5858.09
-5857.78
-5857.5
-5857.24
-5857.01
-5856.83
-5856.69
-5856.61
-5856.59
-5856.61
-5856.7
-5856.85
-5857.05
-5857.3
-5857.59
-5857.91
-5858.26
-5858.63
-5858.98
-5859.32
-5859.64
-5859.91
-5860.13
-5860.29
-5860.37
-5860.38
-5860.31
-5860.17
-5859.95
-5859.67
-5859.34
-5858.97
-5858.57
-5858.18
-5857.81
-5857.48
-5857.21
-5857.02
-5856.92
-5856.91
-5857
-5857.19
-5857.47
-5857.81
-5858.21
-5858.63
-5859.04
-5859.42
-5859.74
-5859.97
-5860.09
-5860.09
-5859.97
-5859.73
-5859.39
-5858.98
-5858.52
-5858.06
-5857.64
-5857.29
-5857.05
-5856.95
-5856.99
-5857.18
-5857.49
-5857.89
-5858.34
-5858.8
-5859.19
-5859.5
-5859.67
-5859.68
-5859.54
-5859.27
-5858.9
-5858.49
-5858.1
-5857.79
-5857.61
-5857.59
-5857.73
-5858
-5858.36
-5858.76
-5859.11
-5859.34
-5859.41
-5859.31
-5859.06
-5858.69
-5858.3
-5857.94
-5857.71
-5857.65
-5857.77
-5858.05
-5858.42
-5858.79
-5859.06
-5859.17
-5859.09
-5858.85
-5858.52
-5858.21
-5858.02
-6421.09
-6421.16
-6421.29
-6421.49
-6421.76
-6422.09
-6422.5
-6422.96
-6423.49
-6424.03
-6424.57
-6425.08
-6425.55
-6425.99
-6426.38
-6426.71
-6426.98
-6427.2
-6427.34
-6427.41
-6427.4
-6427.32
-6427.15
-6426.91
-6426.59
-6426.19
-6425.72
-6425.2
-6424.66
-6424.13
-6423.6
-6423.07
-6422.56
-6422.06
-6421.57
-6421.1
-6420.64
-6420.2
-6419.78
-6419.37
-6418.98
-6418.61
-6418.25
-6417.92
-6417.6
-6417.31
-6417.03
-6416.78
-6416.55
-6416.35
-6416.17
-6416.02
-6415.9
-6415.81
-6415.75
-6415.71
-6415.71
-6415.75
-6415.81
-6415.9
-6416.03
-6416.18
-6416.37
-6416.58
-6416.82
-6417.07
-6417.35
-6417.65
-6417.96
-6418.28
-6418.6
-6418.93
-6419.25
-6419.56
-6419.86
-6420.14
-6420.4
-6420.63
-6420.82
-6420.98
-6421.1
-6421.17
-6421.2
-6421.18
-6421.1
-6420.98
-6420.81
-6420.6
-6420.34
-6420.04
-6419.7
-6419.34
-6418.95
-6418.56
-6418.16
-6417.76
-6417.38
-6417.02
-6416.7
-6416.42
-6416.2
-6416.03
-6415.93
-6415.9
-6415.94
-6416.06
-6416.24
-6416.5
-6416.81
-6417.18
-6417.58
-6418.02
-6418.49
-6418.93
-6419.36
-6419.75
-6420.09
-6420.37
-6420.56
-6420.67
-6420.68
-6420.59
-6420.41
-6420.13
-6419.78
-6419.35
-6418.89
-6418.4
-6417.9
-6417.44
-6417.03
-6416.69
-6416.45
-6416.32
-6416.32
-6416.43
-6416.67
-6417.02
-6417.46
-6417.96
-6418.49
-6419.01
-6419.49
-6419.89
-6420.17
-6420.32
-6420.32
-6420.17
-6419.87
-6419.44
-6418.93
-6418.35
-6417.78
-6417.25
-6416.82
-6416.53
-6416.41
-6416.46
-6416.7
-6417.09
-6417.6
-6418.17
-6418.74
-6419.23
-6419.61
-6419.81
-6419.82
-6419.64
-6419.28
-6418.81
-6418.29
-6417.8
-6417.41
-6417.19
-6417.16
-6417.34
-6417.69
-6418.16
-6418.66
-6419.1
-6419.39
-6419.49
-6419.36
-6419.03
-6418.57
-6418.07
-6417.62
-6417.33
-6417.26
-6417.42
-6417.78
-6418.25
-6418.71
-6419.05
-6419.18
-6419.07
-6418.76
-6418.34
-6417.94
-6417.7
-6914.94
-6915.05
-6915.27
-6915.6
-6916.06
-6916.62
-6917.31
-6918.11
-6919.01
-6919.91
-6920.83
-6921.72
-6922.55
-6923.32
-6924
-6924.58
-6925.05
-6925.4
-6925.63
-6925.74
-6925.72
-6925.58
-6925.31
-6924.91
-6924.4
-6923.78
-6923.07
-6922.26
-6921.47
-6920.7
-6919.96
-6919.26
-6918.59
-6917.96
-6917.37
-6916.8
-6916.27
-6915.76
-6915.28
-6914.82
-6914.38
-6913.96
-6913.57
-6913.19
-6912.84
-6912.51
-6912.21
-6911.93
-6911.68
-6911.46
-6911.27
-6911.11
-6910.98
-6910.89
-6910.84
-6910.82
-6910.83
-6910.89
-6910.98
-6911.11
-6911.28
-6911.48
-6911.72
-6911.99
-6912.28
-6912.61
-6912.96
-6913.33
-6913.72
-6914.12
-6914.52
-6914.92
-6915.32
-6915.71
-6916.08
-6916.42
-6916.74
-6917.02
-6917.26
-6917.46
-6917.6
-6917.69
-6917.73
-6917.7
-6917.61
-6917.46
-6917.25
-6916.99
-6916.67
-6916.3
-6915.89
-6915.45
-6914.98
-6914.49
-6914
-6913.52
-6913.05
-6912.62
-6912.23
-6911.89
-6911.62
-6911.42
-6911.3
-6911.26
-6911.32
-6911.46
-6911.69
-6912.01
-6912.4
-6912.85
-6913.35
-6913.89
-6914.46
-6915
-6915.53
-6916.01
-6916.42
-6916.76
-6916.99
-6917.12
-6917.13
-6917.02
-6916.79
-6916.45
-6916.01
-6915.49
-6914.92
-6914.31
-6913.71
-6913.15
-6912.64
-6912.23
-6911.94
-6911.78
-6911.78
-6911.93
-6912.23
-6912.66
-6913.19
-6913.81
-6914.46
-6915.1
-6915.68
-6916.17
-6916.52
-6916.7
-6916.7
-6916.51
-6916.14
-6915.62
-6914.99
-6914.29
-6913.59
-6912.95
-6912.42
-6912.07
-6911.93
-6912
-6912.3
-6912.78
-6913.4
-6914.1
-6914.8
-6915.4
-6915.86
-6916.1
-6916.1
-6915.86
-6915.42
-6914.84
-6914.19
-6913.58
-6913.11
-6912.83
-6912.81
-6913.03
-6913.47
-6914.05
-6914.67
-6915.21
-6915.57
-6915.69
-6915.53
-6915.13
-6914.56
-6913.94
-6913.39
-6913.04
-6912.95
-6913.16
-6913.6
-6914.18
-6914.75
-6915.17
-6915.32
-6915.18
-6914.79
-6914.26
-6913.76
-6913.46
-7350.97
-7351.17
-7351.47
-7352.01
-7352.84
-7353.49
-7354.9
-7356.46
-7358.93
-7360.69
-7362.28
-7363.62
-7364.77
-7365.75
-7366.56
-7367.23
-7367.76
-7368.15
-7368.41
-7368.53
-7368.5
-7368.31
-7367.95
-7367.4
-7366.64
-7365.64
-7364.44
-7362.57
-7361.36
-7360.25
-7359.3
-7358.45
-7357.69
-7356.99
-7356.33
-7355.71
-7355.13
-7354.59
-7354.06
-7353.57
-7353.1
-7352.65
-7352.22
-7351.81
-7351.43
-7351.07
-7350.74
-7350.44
-7350.17
-7349.93
-7349.72
-7349.55
-7349.42
-7349.33
-7349.28
-7349.27
-7349.31
-7349.39
-7349.51
-7349.68
-7349.89
-7350.15
-7350.44
-7350.77
-7351.14
-7351.54
-7351.96
-7352.42
-7352.88
-7353.36
-7353.85
-7354.34
-7354.82
-7355.28
-7355.73
-7356.15
-7356.53
-7356.86
-7357.15
-7357.39
-7357.56
-7357.67
-7357.7
-7357.67
-7357.57
-7357.39
-7357.14
-7356.82
-7356.43
-7355.99
-7355.5
-7354.97
-7354.41
-7353.83
-7353.24
-7352.66
-7352.11
-7351.59
-7351.13
-7350.73
-7350.4
-7350.16
-7350.02
-7349.99
-7350.06
-7350.23
-7350.52
-7350.89
-7351.36
-7351.91
-7352.51
-7353.15
-7353.83
-7354.48
-7355.11
-7355.69
-7356.18
-7356.58
-7356.86
-7357.01
-7357.02
-7356.88
-7356.6
-7356.19
-7355.67
-7355.04
-7354.36
-7353.63
-7352.91
-7352.23
-7351.63
-7351.14
-7350.79
-7350.61
-7350.61
-7350.79
-7351.15
-7351.67
-7352.31
-7353.05
-7353.83
-7354.6
-7355.3
-7355.88
-7356.3
-7356.52
-7356.52
-7356.29
-7355.84
-7355.22
-7354.46
-7353.63
-7352.79
-7352.02
-7351.4
-7350.99
-7350.82
-7350.91
-7351.27
-7351.85
-7352.6
-7353.44
-7354.27
-7354.99
-7355.53
-7355.81
-7355.81
-7355.51
-7354.97
-7354.27
-7353.49
-7352.75
-7352.18
-7351.86
-7351.83
-7352.11
-7352.64
-7353.34
-7354.08
-7354.74
-7355.18
-7355.32
-7355.12
-7354.64
-7353.95
-7353.2
-7352.54
-7352.12
-7352.02
-7352.28
-7352.82
-7353.52
-7354.2
-7354.7
-7354.88
-7354.7
-7354.22
-7353.58
-7352.97
-7352.6
-7735.24
-7735.45
-7735.89
-7736.58
-7737.58
-7738.9
-7740.72
-7742.99
-7746.65
-7749
-7751.24
-7753.2
-7754.9
-7756.36
-7757.59
-7758.6
-7759.39
-7759.97
-7760.34
-7760.51
-7760.47
-7760.2
-7759.71
-7758.97
-7757.98
-7756.71
-7755.24
-7752.54
-7750.79
-7749.36
-7748.2
-7747.22
-7746.37
-7745.63
-7744.95
-7744.32
-7743.73
-7743.17
-7742.64
-7742.12
-7741.63
-7741.15
-7740.7
-7740.26
-7739.85
-7739.46
-7739.11
-7738.78
-7738.48
-7738.23
-7738.01
-7737.83
-7737.69
-7737.6
-7737.56
-7737.56
-7737.62
-7737.72
-7737.88
-7738.08
-7738.34
-7738.65
-7739
-7739.4
-7739.84
-7740.31
-7740.82
-7741.35
-7741.9
-7742.47
-7743.05
-7743.62
-7744.19
-7744.73
-7745.26
-7745.75
-7746.19
-7746.59
-7746.93
-7747.2
-7747.4
-7747.53
-7747.57
-7747.53
-7747.41
-7747.19
-7746.9
-7746.52
-7746.07
-7745.55
-7744.98
-7744.35
-7743.69
-7743.01
-7742.33
-7741.65
-7741
-7740.4
-7739.85
-7739.38
-7739.01
-7738.73
-7738.57
-7738.53
-7738.62
-7738.83
-7739.16
-7739.61
-7740.16
-7740.81
-7741.52
-7742.27
-7743.06
-7743.83
-7744.57
-7745.24
-7745.82
-7746.28
-7746.61
-7746.78
-7746.79
-7746.63
-7746.3
-7745.81
-7745.19
-7744.46
-7743.65
-7742.79
-7741.95
-7741.15
-7740.45
-7739.88
-7739.47
-7739.26
-7739.26
-7739.48
-7739.9
-7740.52
-7741.28
-7742.14
-7743.06
-7743.96
-7744.78
-7745.46
-7745.95
-7746.21
-7746.2
-7745.93
-7745.41
-7744.68
-7743.79
-7742.81
-7741.83
-7740.94
-7740.21
-7739.73
-7739.53
-7739.65
-7740.08
-7740.76
-7741.64
-7742.63
-7743.6
-7744.45
-7745.08
-7745.4
-7745.39
-7745.03
-7744.39
-7743.55
-7742.63
-7741.76
-7741.09
-7740.71
-7740.68
-7741.02
-7741.65
-7742.48
-7743.36
-7744.14
-7744.65
-7744.81
-7744.58
-7744.01
-7743.19
-7742.31
-7741.54
-7741.05
-7740.93
-7741.24
-7741.88
-7742.71
-7743.52
-7744.1
-7744.31
-7744.09
-7743.51
-7742.74
-7742.02
-7741.59
-8073.96
-8074.04
-8074.19
-8074.41
-8074.68
-8074.99
-8075.18
-8075.53
-8092.25
-8091.78
-8091.55
-8091.1
-8090.62
-8090.08
-8089.53
-8088.97
-8088.41
-8087.86
-8087.31
-8086.76
-8086.26
-8085.74
-8085.24
-8084.75
-8084.29
-8083.85
-8083.43
-8083.05
-8082.7
-8082.38
-8082.1
-8081.86
-8081.67
-8081.53
-8081.44
-8081.4
-8081.42
-8081.49
-8081.62
-8081.81
-8082.06
-8082.37
-8082.73
-8083.14
-8083.6
-8084.11
-8084.66
-8085.25
-8085.87
-8086.51
-8087.17
-8087.83
-8088.5
-8089.15
-8089.78
-8090.39
-8090.95
-8091.46
-8091.92
-8092.31
-8092.62
-8092.85
-8093
-8093.04
-8093
-8092.85
-8092.6
-8092.26
-8091.82
-8091.3
-8090.7
-8090.04
-8089.32
-8088.56
-8087.77
-8086.98
-8086.21
-8085.46
-8084.77
-8084.14
-8083.61
-8083.17
-8082.86
-8082.68
-8082.64
-8082.74
-8082.99
-8083.38
-8083.9
-8084.54
-8085.28
-8086.1
-8086.97
-8087.87
-8088.76
-8089.61
-8090.38
-8091.05
-8091.58
-8091.96
-8092.15
-8092.16
-8091.96
-8091.58
-8091.02
-8090.3
-8089.45
-8088.52
-8087.54
-8086.56
-8085.65
-8084.84
-8084.18
-8083.71
-8083.47
-8083.48
-8083.73
-8084.23
-8084.93
-8085.82
-8086.81
-8087.87
-8088.91
-8089.86
-8090.64
-8091.2
-8091.5
-8091.49
-8091.17
-8090.57
-8089.72
-8088.7
-8087.57
-8086.44
-8085.42
-8084.59
-8084.04
-8083.82
-8083.96
-8084.45
-8085.25
-8086.27
-8087.4
-8088.53
-8089.5
-8090.22
-8090.59
-8090.56
-8090.14
-8089.39
-8088.41
-8087.34
-8086.34
-8085.57
-8085.13
-8085.11
-8085.5
-8086.24
-8087.2
-8088.22
-8089.12
-8089.72
-8089.9
-8089.63
-8088.96
-8088.02
-8087
-8086.11
-8085.54
-8085.42
-8085.77
-8086.52
-8087.48
-8088.42
-8089.09
-8089.32
-8089.06
-8088.38
-8087.48
-8086.65
-8086.14
-8373.56
-8373.6
-8373.68
-8373.8
-8373.93
-8374.1
-8374.21
-8374.48
-8396.7
-8396.3
-8396.04
-8395.65
-8395.21
-8394.75
-8394.26
-8393.74
-8393.21
-8392.68
-8392.13
-8391.59
-8391.05
-8390.52
-8390
-8389.49
-8388.99
-8388.52
-8388.08
-8387.66
-8387.28
-8386.94
-8386.64
-8386.39
-8386.18
-8386.03
-8385.94
-8385.91
-8385.94
-8386.03
-8386.19
-8386.41
-8386.7
-8387.05
-8387.47
-8387.94
-8388.47
-8389.05
-8389.68
-8390.35
-8391.06
-8391.79
-8392.53
-8393.29
-8394.04
-8394.78
-8395.5
-8396.18
-8396.82
-8397.4
-8397.92
-8398.36
-8398.71
-8398.97
-8399.13
-8399.18
-8399.13
-8398.96
-8398.68
-8398.29
-8397.79
-8397.2
-8396.52
-8395.76
-8394.94
-8394.08
-8393.19
-8392.3
-8391.42
-8390.57
-8389.79
-8389.08
-8388.48
-8387.99
-8387.64
-8387.44
-8387.39
-8387.51
-8387.8
-8388.24
-8388.83
-8389.56
-8390.41
-8391.34
-8392.33
-8393.35
-8394.36
-8395.32
-8396.19
-8396.95
-8397.55
-8397.97
-8398.19
-8398.19
-8397.97
-8397.53
-8396.89
-8396.07
-8395.11
-8394.05
-8392.93
-8391.83
-8390.79
-8389.87
-8389.13
-8388.61
-8388.34
-8388.35
-8388.64
-8389.2
-8390.01
-8391.01
-8392.14
-8393.35
-8394.52
-8395.59
-8396.48
-8397.12
-8397.45
-8397.44
-8397.08
-8396.39
-8395.43
-8394.27
-8392.99
-8391.71
-8390.56
-8389.62
-8389
-8388.75
-8388.92
-8389.49
-8390.39
-8391.55
-8392.84
-8394.11
-8395.21
-8396.02
-8396.43
-8396.39
-8395.91
-8395.04
-8393.93
-8392.71
-8391.57
-8390.69
-8390.2
-8390.18
-8390.63
-8391.48
-8392.58
-8393.75
-8394.77
-8395.44
-8395.65
-8395.34
-8394.58
-8393.5
-8392.34
-8391.33
-8390.68
-8390.55
-8390.96
-8391.82
-8392.92
-8393.98
-8394.74
-8395
-8394.7
-8393.91
-8392.88
-8391.92
-8391.34
-8638.83
-8638.85
-8638.89
-8638.95
-8639.01
-8639.09
-8639.12
-8639.24
-8666.19
-8665.94
-8665.76
-8665.47
-8665.11
-8664.69
-8664.24
-8663.76
-8663.24
-8662.71
-8662.16
-8661.6
-8661.05
-8660.49
-8659.94
-8659.4
-8658.87
-8658.37
-8657.89
-8657.44
-8657.04
-8656.67
-8656.34
-8656.07
-8655.86
-8655.7
-8655.6
-8655.58
-8655.62
-8655.73
-8655.91
-8656.16
-8656.49
-8656.89
-8657.36
-8657.89
-8658.49
-8659.14
-8659.85
-8660.6
-8661.39
-8662.21
-8663.04
-8663.89
-8664.73
-8665.56
-8666.36
-8667.13
-8667.84
-8668.49
-8669.06
-8669.55
-8669.95
-8670.23
-8670.41
-8670.47
-8670.4
-8670.21
-8669.89
-8669.45
-8668.9
-8668.23
-8667.47
-8666.62
-8665.71
-8664.74
-8663.75
-8662.75
-8661.77
-8660.83
-8659.95
-8659.16
-8658.49
-8657.95
-8657.56
-8657.34
-8657.29
-8657.43
-8657.75
-8658.25
-8658.92
-8659.73
-8660.68
-8661.72
-8662.83
-8663.97
-8665.1
-8666.17
-8667.14
-8667.99
-8668.66
-8669.12
-8669.36
-8669.36
-8669.11
-8668.62
-8667.9
-8666.98
-8665.9
-8664.72
-8663.47
-8662.24
-8661.08
-8660.05
-8659.22
-8658.64
-8658.34
-8658.36
-8658.69
-8659.32
-8660.22
-8661.34
-8662.61
-8663.96
-8665.27
-8666.47
-8667.46
-8668.17
-8668.54
-8668.52
-8668.12
-8667.35
-8666.27
-8664.97
-8663.55
-8662.12
-8660.84
-8659.79
-8659.1
-8658.83
-8659.02
-8659.66
-8660.68
-8661.98
-8663.42
-8664.84
-8666.07
-8666.97
-8667.42
-8667.37
-8666.82
-8665.84
-8664.58
-8663.22
-8661.94
-8660.96
-8660.41
-8660.39
-8660.9
-8661.86
-8663.1
-8664.41
-8665.56
-8666.31
-8666.54
-8666.2
-8665.33
-8664.12
-8662.82
-8661.69
-8660.97
-8660.82
-8661.29
-8662.25
-8663.49
-8664.68
-8665.53
-8665.82
-8665.47
-8664.58
-8663.42
-8662.34
-8661.68
-8873.72
-8873.73
-8873.75
-8873.78
-8873.81
-8873.85
-8873.87
-8873.92
-8905.2
-8905.02
-8904.86
-8904.6
-8904.28
-8903.89
-8903.46
-8902.99
-8902.48
-8901.93
-8901.37
-8900.79
-8900.21
-8899.62
-8899.04
-8898.47
-8897.91
-8897.37
-8896.86
-8896.38
-8895.94
-8895.54
-8895.2
-8894.91
-8894.67
-8894.51
-8894.41
-8894.39
-8894.44
-8894.56
-8894.77
-8895.06
-8895.42
-8895.87
-8896.39
-8896.98
-8897.64
-8898.37
-8899.15
-8899.98
-8900.85
-8901.76
-8902.68
-8903.61
-8904.54
-8905.46
-8906.34
-8907.19
-8907.97
-8908.69
-8909.32
-8909.86
-8910.29
-8910.61
-8910.8
-8910.86
-8910.78
-8910.57
-8910.21
-8909.73
-8909.11
-8908.37
-8907.53
-8906.6
-8905.59
-8904.52
-8903.43
-8902.32
-8901.24
-8900.2
-8899.24
-8898.37
-8897.63
-8897.03
-8896.61
-8896.37
-8896.32
-8896.47
-8896.83
-8897.39
-8898.12
-8899.03
-8900.07
-8901.22
-8902.45
-8903.71
-8904.95
-8906.13
-8907.21
-8908.14
-8908.87
-8909.39
-8909.65
-8909.64
-8909.36
-8908.81
-8908.02
-8907
-8905.81
-8904.5
-8903.12
-8901.76
-8900.48
-8899.35
-8898.44
-8897.8
-8897.47
-8897.49
-8897.86
-8898.56
-8899.56
-8900.8
-8902.21
-8903.69
-8905.14
-8906.46
-8907.56
-8908.34
-8908.74
-8908.72
-8908.27
-8907.42
-8906.23
-8904.79
-8903.23
-8901.65
-8900.23
-8899.09
-8898.32
-8898.03
-8898.25
-8898.96
-8900.09
-8901.53
-8903.12
-8904.69
-8906.04
-8907.03
-8907.52
-8907.45
-8906.84
-8905.75
-8904.35
-8902.84
-8901.43
-8900.34
-8899.74
-8899.73
-8900.3
-8901.37
-8902.74
-8904.19
-8905.46
-8906.3
-8906.55
-8906.16
-8905.2
-8903.86
-8902.42
-8901.17
-8900.38
-8900.22
-8900.74
-8901.81
-8903.18
-8904.5
-8905.44
-8905.75
-8905.36
-8904.37
-8903.08
-8901.87
-8901.14
-9081.79
-9081.79
-9081.81
-9081.82
-9081.84
-9081.86
-9081.86
-9081.9
-9117.1
-9116.95
-9116.79
-9116.55
-9116.24
-9115.86
-9115.44
-9114.96
-9114.46
-9113.85
-9113.28
-9112.69
-9112.08
-9111.46
-9110.84
-9110.23
-9109.63
-9109.06
-9108.51
-9108
-9107.53
-9107.1
-9106.73
-9106.42
-9106.17
-9106
-9105.9
-9105.88
-9105.94
-9106.08
-9106.31
-9106.63
-9107.03
-9107.52
-9108.09
-9108.74
-9109.46
-9110.26
-9111.11
-9112.02
-9112.97
-9113.96
-9114.97
-9115.99
-9117
-9118
-9118.97
-9119.88
-9120.74
-9121.52
-9122.21
-9122.79
-9123.26
-9123.6
-9123.81
-9123.87
-9123.79
-9123.55
-9123.16
-9122.63
-9121.95
-9121.15
-9120.23
-9119.21
-9118.1
-9116.94
-9115.75
-9114.54
-9113.36
-9112.23
-9111.18
-9110.23
-9109.43
-9108.78
-9108.32
-9108.06
-9108.01
-9108.18
-9108.57
-9109.18
-9109.99
-9110.98
-9112.12
-9113.38
-9114.72
-9116.1
-9117.45
-9118.74
-9119.91
-9120.92
-9121.72
-9122.28
-9122.56
-9122.55
-9122.24
-9121.64
-9120.77
-9119.66
-9118.35
-9116.92
-9115.42
-9113.94
-9112.54
-9111.31
-9110.31
-9109.62
-9109.26
-9109.29
-9109.69
-9110.46
-9111.56
-9112.91
-9114.45
-9116.07
-9117.65
-9119.09
-9120.28
-9121.13
-9121.57
-9121.54
-9121.05
-9120.12
-9118.82
-9117.25
-9115.55
-9113.83
-9112.29
-9111.03
-9110.21
-9109.89
-9110.13
-9110.91
-9112.15
-9113.73
-9115.46
-9117.17
-9118.65
-9119.72
-9120.26
-9120.18
-9119.49
-9118.3
-9116.77
-9115.11
-9113.57
-9112.38
-9111.73
-9111.71
-9112.35
-9113.52
-9115.03
-9116.61
-9118
-9118.92
-9119.19
-9118.76
-9117.71
-9116.24
-9114.66
-9113.29
-9112.43
-9112.26
-9112.84
-9114.02
-9115.52
-9116.96
-9117.99
-9118.33
-9117.89
-9116.8
-9115.38
-9114.06
-9113.25
-9266.1
-9266.1
-9266.1
-9266.11
-9266.12
-9266.13
-9266.13
-9266.15
-9304.92
-9304.78
-9304.62
-9304.39
-9304.08
-9303.7
-9303.26
-9302.77
-9302.23
-9301.64
-9301.03
-9300.4
-9299.76
-9299.1
-9298.45
-9297.8
-9297.17
-9296.55
-9295.97
-9295.42
-9294.92
-9294.47
-9294.07
-9293.74
-9293.48
-9293.3
-9293.19
-9293.17
-9293.24
-9293.4
-9293.65
-9294
-9294.44
-9294.97
-9295.58
-9296.29
-9297.07
-9297.93
-9298.86
-9299.84
-9300.87
-9301.94
-9303.03
-9304.13
-9305.23
-9306.3
-9307.34
-9308.34
-9309.26
-9310.1
-9310.84
-9311.47
-9311.98
-9312.34
-9312.56
-9312.63
-9312.53
-9312.28
-9311.85
-9311.27
-9310.54
-9309.67
-9308.68
-9307.57
-9306.38
-9305.12
-9303.83
-9302.53
-9301.25
-9300.03
-9298.9
-9297.88
-9297.01
-9296.31
-9295.82
-9295.54
-9295.49
-9295.68
-9296.11
-9296.77
-9297.64
-9298.71
-9299.95
-9301.31
-9302.76
-9304.24
-9305.71
-9307.1
-9308.36
-9309.45
-9310.32
-9310.92
-9311.22
-9311.2
-9310.87
-9310.21
-9309.27
-9308.06
-9306.65
-9305.1
-9303.48
-9301.88
-9300.37
-9299.04
-9297.97
-9297.22
-9296.84
-9296.87
-9297.31
-9298.14
-9299.33
-9300.8
-9302.46
-9304.2
-9305.92
-9307.47
-9308.76
-9309.68
-9310.14
-9310.12
-9309.58
-9308.58
-9307.17
-9305.47
-9303.63
-9301.78
-9300.11
-9298.76
-9297.87
-9297.54
-9297.8
-9298.65
-9299.99
-9301.69
-9303.57
-9305.42
-9307.01
-9308.17
-9308.74
-9308.65
-9307.9
-9306.6
-9304.94
-9303.14
-9301.48
-9300.19
-9299.49
-9299.48
-9300.17
-9301.45
-9303.09
-9304.8
-9306.3
-9307.29
-9307.59
-9307.12
-9305.98
-9304.38
-9302.67
-9301.19
-9300.26
-9300.09
-9300.71
-9301.99
-9303.62
-9305.19
-9306.29
-9306.66
-9306.18
-9304.99
-9303.45
-9302.01
-9301.14
-9429.36
-9429.36
-9429.36
-9429.37
-9429.37
-9429.37
-9429.37
-9429.38
-9471.38
-9471.24
-9471.09
-9470.85
-9470.53
-9470.14
-9469.69
-9469.17
-9468.61
-9468