# Time step       
# Time            	deltaT
1                 	1.0000000000e-02
