/*--------------------------------*- C++ -*----------------------------------*\
  =========                 |
  \\      /  F ield         | OpenFOAM: The Open Source CFD Toolbox
   \\    /   O peration     | Website:  https://openfoam.org
    \\  /    A nd           | Version:  12
     \\/     M anipulation  |
\*---------------------------------------------------------------------------*/
FoamFile
{
    format      ascii;
    class       volScalarField;
    location    "10.18";
    object      p;
}
// * * * * * * * * * * * * * * * * * * * * * * * * * * * * * * * * * * * * * //

dimensions      [1 -1 -2 0 0 0 0];

internalField   nonuniform List<scalar> 
3829
(
-617.903
-617.902
-617.899
-617.895
-617.89
-617.883
-617.874
-617.864
-617.852
-617.838
-617.823
-617.805
-617.786
-617.764
-617.74
-617.714
-617.685
-617.653
-617.619
-617.583
-617.543
-617.501
-617.456
-617.407
-617.356
-617.302
-617.244
-617.184
-617.12
-617.054
-616.985
-616.912
-616.837
-616.76
-616.68
-616.597
-616.512
-616.425
-616.336
-616.246
-616.155
-616.063
-615.97
-615.877
-615.784
-615.692
-615.6
-615.51
-615.421
-615.334
-615.25
-615.168
-615.089
-615.013
-614.942
-614.874
-614.811
-614.753
-614.699
-614.651
-614.608
-614.571
-614.54
-614.514
-614.495
-614.481
-614.473
-614.47
-614.473
-614.48
-614.492
-614.508
-614.527
-614.55
-614.574
-614.6
-614.627
-614.655
-614.682
-614.707
-614.731
-614.752
-614.77
-614.783
-614.792
-614.796
-614.795
-614.788
-614.774
-614.754
-614.729
-614.698
-614.662
-614.621
-614.577
-614.529
-614.48
-614.429
-614.379
-614.329
-614.283
-614.24
-614.201
-614.169
-614.144
-614.126
-614.116
-614.115
-614.123
-614.139
-614.164
-614.195
-614.232
-614.275
-614.32
-614.367
-614.414
-614.459
-614.501
-614.536
-614.565
-614.585
-614.595
-614.596
-614.586
-614.565
-614.536
-614.499
-614.455
-614.407
-614.357
-614.307
-614.26
-614.217
-614.182
-614.156
-614.14
-614.134
-614.14
-614.156
-614.181
-614.213
-614.249
-614.288
-614.327
-614.362
-614.391
-614.413
-614.425
-614.428
-614.422
-614.408
-614.387
-614.361
-614.334
-614.307
-614.285
-614.268
-614.258
-614.256
-614.262
-614.274
-614.292
-614.313
-614.334
-614.353
-614.368
-614.377
-614.379
-614.375
-614.365
-614.351
-614.335
-614.319
-614.305
-614.294
-614.289
-614.287
-614.291
-614.297
-614.306
-614.314
-614.321
-614.326
-614.327
-614.325
-614.32
-614.312
-614.304
-614.298
-614.293
-614.292
-614.296
-614.304
-614.315
-614.329
-614.344
-614.358
-614.368
-614.374
-1776.38
-1776.38
-1776.38
-1776.37
-1776.37
-1776.36
-1776.35
-1776.35
-1776.34
-1776.32
-1776.31
-1776.29
-1776.28
-1776.26
-1776.23
-1776.21
-1776.18
-1776.15
-1776.12
-1776.08
-1776.04
-1775.99
-1775.95
-1775.9
-1775.84
-1775.78
-1775.72
-1775.66
-1775.59
-1775.51
-1775.44
-1775.36
-1775.27
-1775.19
-1775.1
-1775.01
-1774.91
-1774.82
-1774.72
-1774.62
-1774.52
-1774.41
-1774.31
-1774.21
-1774.11
-1774
-1773.9
-1773.8
-1773.71
-1773.61
-1773.52
-1773.43
-1773.34
-1773.26
-1773.19
-1773.11
-1773.05
-1772.99
-1772.93
-1772.88
-1772.84
-1772.81
-1772.78
-1772.76
-1772.74
-1772.74
-1772.74
-1772.74
-1772.75
-1772.77
-1772.79
-1772.82
-1772.85
-1772.88
-1772.92
-1772.96
-1773
-1773.03
-1773.07
-1773.11
-1773.14
-1773.17
-1773.19
-1773.21
-1773.23
-1773.23
-1773.23
-1773.22
-1773.21
-1773.19
-1773.16
-1773.12
-1773.08
-1773.03
-1772.97
-1772.92
-1772.86
-1772.79
-1772.73
-1772.67
-1772.62
-1772.57
-1772.52
-1772.48
-1772.45
-1772.43
-1772.42
-1772.42
-1772.43
-1772.45
-1772.48
-1772.52
-1772.57
-1772.62
-1772.68
-1772.74
-1772.8
-1772.85
-1772.9
-1772.95
-1772.98
-1773.01
-1773.02
-1773.02
-1773
-1772.98
-1772.94
-1772.9
-1772.84
-1772.79
-1772.72
-1772.66
-1772.61
-1772.56
-1772.52
-1772.49
-1772.47
-1772.46
-1772.47
-1772.49
-1772.53
-1772.57
-1772.61
-1772.66
-1772.71
-1772.75
-1772.78
-1772.81
-1772.82
-1772.82
-1772.81
-1772.8
-1772.77
-1772.74
-1772.7
-1772.67
-1772.64
-1772.62
-1772.61
-1772.61
-1772.62
-1772.63
-1772.66
-1772.68
-1772.71
-1772.73
-1772.75
-1772.76
-1772.76
-1772.75
-1772.74
-1772.72
-1772.7
-1772.69
-1772.67
-1772.66
-1772.65
-1772.65
-1772.66
-1772.66
-1772.68
-1772.69
-1772.69
-1772.7
-1772.7
-1772.7
-1772.69
-1772.68
-1772.67
-1772.66
-1772.66
-1772.66
-1772.66
-1772.67
-1772.68
-1772.7
-1772.71
-1772.73
-1772.74
-1772.75
-2802.76
-2802.76
-2802.75
-2802.75
-2802.75
-2802.74
-2802.74
-2802.73
-2802.72
-2802.71
-2802.7
-2802.69
-2802.68
-2802.66
-2802.64
-2802.62
-2802.59
-2802.56
-2802.53
-2802.49
-2802.45
-2802.41
-2802.36
-2802.3
-2802.24
-2802.18
-2802.1
-2802.03
-2801.95
-2801.86
-2801.77
-2801.68
-2801.58
-2801.48
-2801.37
-2801.26
-2801.15
-2801.03
-2800.92
-2800.8
-2800.67
-2800.55
-2800.43
-2800.31
-2800.18
-2800.06
-2799.94
-2799.83
-2799.71
-2799.6
-2799.5
-2799.39
-2799.3
-2799.21
-2799.12
-2799.04
-2798.97
-2798.91
-2798.85
-2798.8
-2798.76
-2798.73
-2798.71
-2798.7
-2798.69
-2798.69
-2798.71
-2798.73
-2798.75
-2798.79
-2798.83
-2798.88
-2798.93
-2798.98
-2799.04
-2799.1
-2799.16
-2799.22
-2799.27
-2799.33
-2799.38
-2799.42
-2799.46
-2799.49
-2799.51
-2799.52
-2799.52
-2799.51
-2799.49
-2799.47
-2799.43
-2799.38
-2799.32
-2799.25
-2799.18
-2799.11
-2799.03
-2798.94
-2798.86
-2798.78
-2798.71
-2798.64
-2798.58
-2798.53
-2798.49
-2798.47
-2798.46
-2798.46
-2798.48
-2798.51
-2798.56
-2798.61
-2798.68
-2798.75
-2798.83
-2798.91
-2798.99
-2799.06
-2799.13
-2799.19
-2799.23
-2799.26
-2799.28
-2799.28
-2799.26
-2799.22
-2799.17
-2799.11
-2799.04
-2798.96
-2798.88
-2798.8
-2798.72
-2798.66
-2798.61
-2798.57
-2798.55
-2798.55
-2798.56
-2798.6
-2798.64
-2798.7
-2798.76
-2798.83
-2798.89
-2798.94
-2798.99
-2799.02
-2799.03
-2799.03
-2799.02
-2798.99
-2798.95
-2798.9
-2798.86
-2798.81
-2798.78
-2798.75
-2798.74
-2798.74
-2798.75
-2798.77
-2798.81
-2798.84
-2798.88
-2798.91
-2798.93
-2798.94
-2798.94
-2798.93
-2798.91
-2798.89
-2798.86
-2798.84
-2798.82
-2798.8
-2798.8
-2798.8
-2798.81
-2798.82
-2798.84
-2798.85
-2798.86
-2798.87
-2798.87
-2798.87
-2798.86
-2798.84
-2798.83
-2798.82
-2798.81
-2798.81
-2798.81
-2798.82
-2798.84
-2798.86
-2798.88
-2798.9
-2798.91
-2798.92
-3711.91
-3711.91
-3711.91
-3711.92
-3711.93
-3711.93
-3711.94
-3711.95
-3711.96
-3711.97
-3711.97
-3711.98
-3711.98
-3711.97
-3711.97
-3711.96
-3711.94
-3711.92
-3711.89
-3711.86
-3711.82
-3711.78
-3711.72
-3711.66
-3711.6
-3711.52
-3711.44
-3711.35
-3711.26
-3711.15
-3711.04
-3710.93
-3710.8
-3710.67
-3710.54
-3710.41
-3710.27
-3710.13
-3709.98
-3709.84
-3709.69
-3709.54
-3709.39
-3709.24
-3709.1
-3708.95
-3708.81
-3708.67
-3708.53
-3708.4
-3708.27
-3708.15
-3708.04
-3707.93
-3707.84
-3707.75
-3707.67
-3707.6
-3707.54
-3707.49
-3707.46
-3707.43
-3707.42
-3707.42
-3707.43
-3707.45
-3707.48
-3707.52
-3707.57
-3707.63
-3707.7
-3707.78
-3707.86
-3707.95
-3708.03
-3708.12
-3708.21
-3708.3
-3708.39
-3708.47
-3708.54
-3708.6
-3708.66
-3708.7
-3708.73
-3708.75
-3708.75
-3708.74
-3708.72
-3708.68
-3708.62
-3708.56
-3708.48
-3708.39
-3708.29
-3708.19
-3708.08
-3707.97
-3707.86
-3707.75
-3707.65
-3707.56
-3707.48
-3707.41
-3707.36
-3707.33
-3707.32
-3707.33
-3707.36
-3707.4
-3707.47
-3707.55
-3707.64
-3707.74
-3707.85
-3707.96
-3708.07
-3708.17
-3708.26
-3708.34
-3708.4
-3708.44
-3708.46
-3708.45
-3708.43
-3708.38
-3708.31
-3708.22
-3708.12
-3708.02
-3707.91
-3707.8
-3707.7
-3707.61
-3707.55
-3707.5
-3707.48
-3707.48
-3707.51
-3707.55
-3707.62
-3707.7
-3707.79
-3707.88
-3707.96
-3708.03
-3708.09
-3708.13
-3708.15
-3708.14
-3708.12
-3708.07
-3708.01
-3707.95
-3707.88
-3707.82
-3707.77
-3707.74
-3707.73
-3707.73
-3707.75
-3707.79
-3707.83
-3707.88
-3707.93
-3707.97
-3708
-3708.01
-3708.01
-3708
-3707.97
-3707.94
-3707.9
-3707.87
-3707.84
-3707.82
-3707.82
-3707.82
-3707.83
-3707.85
-3707.87
-3707.89
-3707.91
-3707.92
-3707.92
-3707.91
-3707.9
-3707.88
-3707.87
-3707.85
-3707.84
-3707.84
-3707.84
-3707.85
-3707.87
-3707.89
-3707.92
-3707.94
-3707.96
-3707.97
-4517.45
-4517.46
-4517.46
-4517.48
-4517.49
-4517.51
-4517.53
-4517.55
-4517.57
-4517.59
-4517.62
-4517.64
-4517.66
-4517.67
-4517.69
-4517.69
-4517.7
-4517.69
-4517.67
-4517.65
-4517.61
-4517.57
-4517.51
-4517.44
-4517.36
-4517.27
-4517.17
-4517.06
-4516.94
-4516.81
-4516.67
-4516.52
-4516.37
-4516.21
-4516.04
-4515.87
-4515.69
-4515.51
-4515.33
-4515.14
-4514.96
-4514.77
-4514.59
-4514.4
-4514.22
-4514.04
-4513.87
-4513.7
-4513.53
-4513.38
-4513.23
-4513.08
-4512.95
-4512.83
-4512.71
-4512.61
-4512.53
-4512.45
-4512.39
-4512.34
-4512.31
-4512.3
-4512.3
-4512.31
-4512.34
-4512.38
-4512.44
-4512.51
-4512.59
-4512.69
-4512.79
-4512.9
-4513.02
-4513.15
-4513.28
-4513.41
-4513.54
-4513.66
-4513.78
-4513.89
-4514
-4514.09
-4514.16
-4514.22
-4514.27
-4514.29
-4514.3
-4514.28
-4514.25
-4514.2
-4514.12
-4514.03
-4513.92
-4513.8
-4513.67
-4513.53
-4513.38
-4513.23
-4513.08
-4512.94
-4512.8
-4512.68
-4512.58
-4512.5
-4512.43
-4512.4
-4512.39
-4512.4
-4512.44
-4512.5
-4512.59
-4512.7
-4512.83
-4512.97
-4513.12
-4513.27
-4513.42
-4513.55
-4513.68
-4513.78
-4513.86
-4513.91
-4513.94
-4513.93
-4513.89
-4513.82
-4513.72
-4513.6
-4513.47
-4513.32
-4513.17
-4513.03
-4512.9
-4512.79
-4512.7
-4512.65
-4512.62
-4512.63
-4512.67
-4512.74
-4512.83
-4512.94
-4513.06
-4513.18
-4513.3
-4513.39
-4513.47
-4513.52
-4513.54
-4513.52
-4513.48
-4513.42
-4513.34
-4513.25
-4513.16
-4513.07
-4513.01
-4512.97
-4512.95
-4512.96
-4512.99
-4513.04
-4513.1
-4513.17
-4513.24
-4513.29
-4513.33
-4513.34
-4513.34
-4513.32
-4513.28
-4513.23
-4513.19
-4513.14
-4513.11
-4513.09
-4513.08
-4513.09
-4513.11
-4513.13
-4513.16
-4513.19
-4513.21
-4513.22
-4513.22
-4513.21
-4513.2
-4513.18
-4513.15
-4513.13
-4513.12
-4513.11
-4513.12
-4513.13
-4513.15
-4513.18
-4513.21
-4513.24
-4513.26
-4513.27
-5230.76
-5230.77
-5230.79
-5230.82
-5230.86
-5230.91
-5230.97
-5231.03
-5231.1
-5231.18
-5231.26
-5231.33
-5231.4
-5231.46
-5231.51
-5231.56
-5231.59
-5231.61
-5231.62
-5231.61
-5231.58
-5231.54
-5231.48
-5231.41
-5231.31
-5231.2
-5231.07
-5230.92
-5230.77
-5230.6
-5230.41
-5230.22
-5230.02
-5229.82
-5229.61
-5229.4
-5229.18
-5228.96
-5228.74
-5228.51
-5228.29
-5228.06
-5227.83
-5227.61
-5227.39
-5227.18
-5226.97
-5226.76
-5226.56
-5226.38
-5226.2
-5226.03
-5225.87
-5225.73
-5225.6
-5225.48
-5225.39
-5225.31
-5225.24
-5225.2
-5225.17
-5225.17
-5225.18
-5225.22
-5225.27
-5225.34
-5225.43
-5225.54
-5225.66
-5225.79
-5225.94
-5226.1
-5226.27
-5226.44
-5226.62
-5226.8
-5226.97
-5227.15
-5227.31
-5227.46
-5227.6
-5227.72
-5227.82
-5227.9
-5227.96
-5227.99
-5228
-5227.98
-5227.93
-5227.86
-5227.76
-5227.64
-5227.5
-5227.33
-5227.16
-5226.97
-5226.77
-5226.57
-5226.38
-5226.19
-5226.02
-5225.86
-5225.73
-5225.62
-5225.54
-5225.5
-5225.49
-5225.51
-5225.56
-5225.65
-5225.78
-5225.92
-5226.09
-5226.28
-5226.48
-5226.68
-5226.87
-5227.05
-5227.22
-5227.35
-5227.45
-5227.52
-5227.54
-5227.53
-5227.47
-5227.38
-5227.25
-5227.09
-5226.91
-5226.72
-5226.53
-5226.34
-5226.17
-5226.03
-5225.92
-5225.85
-5225.83
-5225.84
-5225.9
-5226
-5226.12
-5226.27
-5226.43
-5226.59
-5226.74
-5226.86
-5226.96
-5227.01
-5227.03
-5227.01
-5226.95
-5226.86
-5226.75
-5226.63
-5226.51
-5226.4
-5226.32
-5226.27
-5226.25
-5226.26
-5226.31
-5226.38
-5226.46
-5226.55
-5226.64
-5226.71
-5226.76
-5226.78
-5226.77
-5226.74
-5226.69
-5226.62
-5226.56
-5226.5
-5226.46
-5226.44
-5226.43
-5226.44
-5226.47
-5226.5
-5226.54
-5226.58
-5226.6
-5226.62
-5226.62
-5226.61
-5226.58
-5226.56
-5226.53
-5226.5
-5226.48
-5226.47
-5226.48
-5226.5
-5226.52
-5226.56
-5226.59
-5226.63
-5226.65
-5226.67
-5862.59
-5862.61
-5862.65
-5862.71
-5862.79
-5862.89
-5863
-5863.13
-5863.27
-5863.41
-5863.57
-5863.72
-5863.87
-5864.01
-5864.13
-5864.23
-5864.32
-5864.38
-5864.42
-5864.43
-5864.42
-5864.37
-5864.3
-5864.2
-5864.07
-5863.92
-5863.74
-5863.54
-5863.32
-5863.09
-5862.85
-5862.6
-5862.35
-5862.09
-5861.82
-5861.55
-5861.28
-5861
-5860.73
-5860.46
-5860.18
-5859.91
-5859.64
-5859.37
-5859.11
-5858.85
-5858.6
-5858.36
-5858.12
-5857.9
-5857.69
-5857.49
-5857.31
-5857.14
-5856.99
-5856.87
-5856.76
-5856.67
-5856.61
-5856.57
-5856.55
-5856.56
-5856.59
-5856.64
-5856.72
-5856.83
-5856.95
-5857.1
-5857.27
-5857.45
-5857.65
-5857.87
-5858.09
-5858.32
-5858.56
-5858.79
-5859.02
-5859.24
-5859.46
-5859.65
-5859.83
-5859.99
-5860.12
-5860.22
-5860.3
-5860.34
-5860.34
-5860.31
-5860.25
-5860.16
-5860.03
-5859.87
-5859.68
-5859.47
-5859.24
-5859
-5858.74
-5858.49
-5858.24
-5858
-5857.78
-5857.58
-5857.41
-5857.27
-5857.18
-5857.12
-5857.11
-5857.15
-5857.23
-5857.35
-5857.51
-5857.7
-5857.92
-5858.17
-5858.42
-5858.68
-5858.93
-5859.16
-5859.37
-5859.54
-5859.67
-5859.75
-5859.77
-5859.75
-5859.67
-5859.55
-5859.38
-5859.17
-5858.94
-5858.7
-5858.45
-5858.21
-5858
-5857.82
-5857.69
-5857.61
-5857.58
-5857.61
-5857.69
-5857.82
-5857.98
-5858.18
-5858.38
-5858.59
-5858.77
-5858.93
-5859.05
-5859.12
-5859.13
-5859.1
-5859.02
-5858.9
-5858.75
-5858.6
-5858.44
-5858.3
-5858.2
-5858.13
-5858.11
-5858.13
-5858.2
-5858.29
-5858.4
-5858.52
-5858.63
-5858.72
-5858.78
-5858.8
-5858.78
-5858.74
-5858.68
-5858.59
-5858.51
-5858.44
-5858.39
-5858.36
-5858.36
-5858.37
-5858.41
-5858.45
-5858.51
-5858.55
-5858.58
-5858.6
-5858.6
-5858.58
-5858.55
-5858.52
-5858.48
-5858.45
-5858.42
-5858.42
-5858.42
-5858.44
-5858.47
-5858.51
-5858.56
-5858.6
-5858.63
-5858.65
-6421.79
-6421.83
-6421.91
-6422.02
-6422.18
-6422.38
-6422.62
-6422.89
-6423.21
-6423.52
-6423.83
-6424.11
-6424.38
-6424.62
-6424.82
-6425
-6425.14
-6425.25
-6425.31
-6425.34
-6425.34
-6425.29
-6425.2
-6425.06
-6424.88
-6424.66
-6424.39
-6424.09
-6423.78
-6423.45
-6423.13
-6422.81
-6422.49
-6422.17
-6421.85
-6421.53
-6421.2
-6420.88
-6420.56
-6420.23
-6419.91
-6419.59
-6419.28
-6418.96
-6418.65
-6418.35
-6418.06
-6417.78
-6417.5
-6417.24
-6417
-6416.77
-6416.56
-6416.37
-6416.2
-6416.05
-6415.93
-6415.84
-6415.77
-6415.74
-6415.73
-6415.75
-6415.8
-6415.89
-6416
-6416.14
-6416.31
-6416.5
-6416.72
-6416.96
-6417.22
-6417.5
-6417.78
-6418.08
-6418.38
-6418.67
-6418.96
-6419.25
-6419.51
-6419.76
-6419.99
-6420.18
-6420.35
-6420.47
-6420.56
-6420.61
-6420.62
-6420.58
-6420.5
-6420.37
-6420.21
-6420
-6419.77
-6419.5
-6419.21
-6418.9
-6418.59
-6418.27
-6417.96
-6417.66
-6417.38
-6417.13
-6416.92
-6416.76
-6416.64
-6416.58
-6416.57
-6416.62
-6416.72
-6416.88
-6417.08
-6417.33
-6417.61
-6417.92
-6418.24
-6418.56
-6418.87
-6419.16
-6419.42
-6419.63
-6419.79
-6419.88
-6419.91
-6419.88
-6419.78
-6419.62
-6419.4
-6419.14
-6418.85
-6418.54
-6418.24
-6417.94
-6417.68
-6417.46
-6417.3
-6417.2
-6417.18
-6417.22
-6417.33
-6417.49
-6417.71
-6417.95
-6418.21
-6418.46
-6418.7
-6418.89
-6419.03
-6419.11
-6419.13
-6419.08
-6418.97
-6418.81
-6418.63
-6418.43
-6418.23
-6418.06
-6417.93
-6417.85
-6417.83
-6417.87
-6417.95
-6418.07
-6418.22
-6418.37
-6418.5
-6418.61
-6418.68
-6418.7
-6418.68
-6418.62
-6418.54
-6418.43
-6418.33
-6418.25
-6418.18
-6418.15
-6418.15
-6418.17
-6418.22
-6418.28
-6418.34
-6418.4
-6418.44
-6418.46
-6418.45
-6418.43
-6418.4
-6418.35
-6418.31
-6418.27
-6418.24
-6418.23
-6418.23
-6418.26
-6418.3
-6418.34
-6418.4
-6418.44
-6418.48
-6418.5
-6916.67
-6916.73
-6916.85
-6917.03
-6917.27
-6917.56
-6917.91
-6918.31
-6918.81
-6919.33
-6919.84
-6920.32
-6920.77
-6921.18
-6921.55
-6921.87
-6922.14
-6922.35
-6922.49
-6922.56
-6922.57
-6922.52
-6922.39
-6922.2
-6921.94
-6921.63
-6921.26
-6920.82
-6920.4
-6919.99
-6919.57
-6919.16
-6918.76
-6918.36
-6917.97
-6917.59
-6917.21
-6916.84
-6916.46
-6916.09
-6915.72
-6915.36
-6914.99
-6914.63
-6914.28
-6913.93
-6913.59
-6913.27
-6912.95
-6912.65
-6912.37
-6912.11
-6911.87
-6911.65
-6911.46
-6911.29
-6911.16
-6911.06
-6910.99
-6910.96
-6910.96
-6911
-6911.08
-6911.19
-6911.34
-6911.52
-6911.74
-6911.98
-6912.26
-6912.56
-6912.88
-6913.22
-6913.58
-6913.94
-6914.31
-6914.68
-6915.04
-6915.38
-6915.71
-6916.01
-6916.29
-6916.53
-6916.72
-6916.88
-6916.98
-6917.04
-6917.04
-6916.99
-6916.88
-6916.73
-6916.52
-6916.27
-6915.98
-6915.65
-6915.29
-6914.92
-6914.53
-6914.14
-6913.76
-6913.39
-6913.06
-6912.76
-6912.5
-6912.31
-6912.17
-6912.1
-6912.09
-6912.16
-6912.29
-6912.49
-6912.74
-6913.05
-6913.4
-6913.77
-6914.16
-6914.56
-6914.94
-6915.29
-6915.6
-6915.85
-6916.04
-6916.15
-6916.19
-6916.14
-6916.01
-6915.81
-6915.54
-6915.22
-6914.87
-6914.49
-6914.12
-6913.76
-6913.44
-6913.18
-6912.99
-6912.88
-6912.85
-6912.91
-6913.05
-6913.26
-6913.53
-6913.83
-6914.15
-6914.46
-6914.74
-6914.97
-6915.14
-6915.23
-6915.24
-6915.17
-6915.03
-6914.84
-6914.61
-6914.36
-6914.12
-6913.92
-6913.76
-6913.67
-6913.65
-6913.69
-6913.8
-6913.96
-6914.14
-6914.32
-6914.48
-6914.61
-6914.69
-6914.71
-6914.68
-6914.61
-6914.5
-6914.37
-6914.25
-6914.15
-6914.08
-6914.04
-6914.04
-6914.08
-6914.13
-6914.21
-6914.28
-6914.35
-6914.39
-6914.42
-6914.41
-6914.39
-6914.34
-6914.29
-6914.24
-6914.19
-6914.15
-6914.14
-6914.15
-6914.18
-6914.22
-6914.28
-6914.34
-6914.39
-6914.43
-6914.45
-7354.36
-7354.45
-7354.65
-7354.96
-7355.4
-7355.99
-7356.77
-7357.67
-7359.25
-7360.19
-7361.01
-7361.73
-7362.34
-7362.84
-7363.26
-7363.59
-7363.84
-7364.03
-7364.15
-7364.2
-7364.18
-7364.09
-7363.91
-7363.63
-7363.25
-7362.74
-7362.13
-7360.97
-7360.33
-7359.71
-7359.18
-7358.7
-7358.25
-7357.82
-7357.4
-7356.98
-7356.56
-7356.15
-7355.73
-7355.32
-7354.91
-7354.5
-7354.09
-7353.69
-7353.29
-7352.89
-7352.51
-7352.14
-7351.78
-7351.44
-7351.11
-7350.82
-7350.54
-7350.29
-7350.08
-7349.9
-7349.75
-7349.64
-7349.57
-7349.55
-7349.56
-7349.62
-7349.72
-7349.86
-7350.05
-7350.27
-7350.54
-7350.84
-7351.18
-7351.55
-7351.94
-7352.35
-7352.78
-7353.22
-7353.66
-7354.1
-7354.53
-7354.95
-7355.34
-7355.7
-7356.03
-7356.31
-7356.54
-7356.72
-7356.85
-7356.91
-7356.91
-7356.84
-7356.71
-7356.52
-7356.27
-7355.96
-7355.61
-7355.21
-7354.78
-7354.33
-7353.87
-7353.4
-7352.94
-7352.51
-7352.11
-7351.76
-7351.46
-7351.23
-7351.06
-7350.98
-7350.98
-7351.07
-7351.23
-7351.47
-7351.78
-7352.15
-7352.57
-7353.02
-7353.49
-7353.97
-7354.42
-7354.84
-7355.2
-7355.5
-7355.72
-7355.85
-7355.88
-7355.82
-7355.66
-7355.42
-7355.09
-7354.71
-7354.28
-7353.83
-7353.39
-7352.97
-7352.59
-7352.28
-7352.06
-7351.94
-7351.91
-7351.99
-7352.16
-7352.42
-7352.74
-7353.11
-7353.49
-7353.86
-7354.19
-7354.47
-7354.66
-7354.76
-7354.77
-7354.68
-7354.51
-7354.27
-7353.98
-7353.69
-7353.4
-7353.16
-7352.98
-7352.87
-7352.85
-7352.92
-7353.05
-7353.24
-7353.46
-7353.68
-7353.87
-7354.02
-7354.11
-7354.13
-7354.09
-7354
-7353.87
-7353.71
-7353.57
-7353.45
-7353.37
-7353.33
-7353.33
-7353.38
-7353.45
-7353.54
-7353.63
-7353.7
-7353.76
-7353.78
-7353.78
-7353.74
-7353.69
-7353.63
-7353.56
-7353.51
-7353.47
-7353.45
-7353.46
-7353.49
-7353.55
-7353.61
-7353.68
-7353.74
-7353.79
-7353.81
-7741.1
-7741.22
-7741.48
-7741.9
-7742.49
-7743.32
-7744.46
-7746.08
-7748.54
-7749.27
-7750.14
-7750.99
-7751.74
-7752.42
-7753
-7753.49
-7753.88
-7754.18
-7754.38
-7754.49
-7754.5
-7754.4
-7754.2
-7753.9
-7753.49
-7753
-7752.57
-7751.03
-7750.12
-7749.34
-7748.69
-7748.11
-7747.58
-7747.09
-7746.62
-7746.17
-7745.73
-7745.28
-7744.84
-7744.39
-7743.94
-7743.49
-7743.04
-7742.59
-7742.14
-7741.7
-7741.27
-7740.85
-7740.44
-7740.06
-7739.69
-7739.36
-7739.05
-7738.77
-7738.53
-7738.33
-7738.17
-7738.05
-7737.98
-7737.96
-7737.98
-7738.06
-7738.19
-7738.36
-7738.59
-7738.86
-7739.18
-7739.55
-7739.95
-7740.38
-7740.85
-7741.34
-7741.84
-7742.36
-7742.88
-7743.4
-7743.9
-7744.39
-7744.85
-7745.27
-7745.65
-7745.97
-7746.24
-7746.45
-7746.59
-7746.66
-7746.65
-7746.57
-7746.41
-7746.18
-7745.88
-7745.52
-7745.1
-7744.63
-7744.13
-7743.6
-7743.05
-7742.5
-7741.97
-7741.46
-7741
-7740.59
-7740.24
-7739.97
-7739.79
-7739.7
-7739.7
-7739.81
-7740.01
-7740.29
-7740.66
-7741.1
-7741.6
-7742.13
-7742.68
-7743.23
-7743.76
-7744.25
-7744.67
-7745.02
-7745.27
-7745.42
-7745.45
-7745.37
-7745.18
-7744.89
-7744.5
-7744.05
-7743.55
-7743.02
-7742.5
-7742.01
-7741.58
-7741.22
-7740.97
-7740.83
-7740.81
-7740.91
-7741.12
-7741.43
-7741.81
-7742.24
-7742.69
-7743.12
-7743.51
-7743.82
-7744.04
-7744.16
-7744.16
-7744.04
-7743.83
-7743.55
-7743.21
-7742.86
-7742.53
-7742.25
-7742.04
-7741.92
-7741.9
-7741.98
-7742.15
-7742.37
-7742.63
-7742.89
-7743.11
-7743.29
-7743.39
-7743.41
-7743.35
-7743.24
-7743.08
-7742.9
-7742.74
-7742.6
-7742.51
-7742.46
-7742.47
-7742.53
-7742.61
-7742.72
-7742.82
-7742.91
-7742.97
-7743
-7742.99
-7742.95
-7742.89
-7742.82
-7742.74
-7742.68
-7742.64
-7742.62
-7742.63
-7742.66
-7742.72
-7742.79
-7742.87
-7742.94
-7742.99
-7743.02
-8082.52
-8082.55
-8082.61
-8082.7
-8082.79
-8082.91
-8082.86
-8083.1
-8093.15
-8092.88
-8092.86
-8092.62
-8092.36
-8092.05
-8091.69
-8091.3
-8090.88
-8090.45
-8089.99
-8089.53
-8089.05
-8088.56
-8088.07
-8087.57
-8087.08
-8086.58
-8086.09
-8085.61
-8085.14
-8084.69
-8084.26
-8083.85
-8083.47
-8083.13
-8082.82
-8082.55
-8082.33
-8082.15
-8082.03
-8081.96
-8081.94
-8081.98
-8082.07
-8082.23
-8082.44
-8082.71
-8083.03
-8083.4
-8083.83
-8084.29
-8084.8
-8085.34
-8085.9
-8086.49
-8087.09
-8087.69
-8088.28
-8088.87
-8089.42
-8089.95
-8090.43
-8090.87
-8091.24
-8091.55
-8091.78
-8091.94
-8092.01
-8092
-8091.89
-8091.71
-8091.44
-8091.09
-8090.67
-8090.18
-8089.64
-8089.05
-8088.44
-8087.81
-8087.18
-8086.57
-8085.99
-8085.45
-8084.98
-8084.59
-8084.28
-8084.08
-8083.98
-8083.99
-8084.12
-8084.35
-8084.69
-8085.12
-8085.63
-8086.2
-8086.82
-8087.45
-8088.09
-8088.69
-8089.25
-8089.74
-8090.13
-8090.42
-8090.58
-8090.61
-8090.51
-8090.29
-8089.94
-8089.5
-8088.97
-8088.39
-8087.79
-8087.19
-8086.63
-8086.13
-8085.73
-8085.45
-8085.29
-8085.28
-8085.4
-8085.65
-8086.01
-8086.45
-8086.95
-8087.47
-8087.97
-8088.41
-8088.77
-8089.02
-8089.14
-8089.13
-8088.99
-8088.74
-8088.41
-8088.02
-8087.62
-8087.23
-8086.91
-8086.67
-8086.54
-8086.53
-8086.63
-8086.82
-8087.08
-8087.38
-8087.68
-8087.94
-8088.14
-8088.25
-8088.26
-8088.2
-8088.06
-8087.88
-8087.67
-8087.48
-8087.33
-8087.22
-8087.18
-8087.19
-8087.26
-8087.36
-8087.48
-8087.6
-8087.7
-8087.76
-8087.79
-8087.78
-8087.74
-8087.67
-8087.59
-8087.5
-8087.43
-8087.38
-8087.36
-8087.37
-8087.41
-8087.48
-8087.56
-8087.64
-8087.72
-8087.78
-8087.81
-8384.96
-8384.98
-8385.02
-8385.09
-8385.17
-8385.28
-8385.32
-8385.55
-8398.85
-8398.53
-8398.4
-8398.12
-8397.82
-8397.49
-8397.13
-8396.73
-8396.31
-8395.86
-8395.39
-8394.9
-8394.39
-8393.86
-8393.33
-8392.78
-8392.24
-8391.69
-8391.15
-8390.62
-8390.1
-8389.6
-8389.12
-8388.67
-8388.25
-8387.87
-8387.53
-8387.23
-8386.99
-8386.8
-8386.66
-8386.59
-8386.58
-8386.63
-8386.74
-8386.92
-8387.17
-8387.48
-8387.85
-8388.28
-8388.77
-8389.3
-8389.88
-8390.49
-8391.14
-8391.8
-8392.48
-8393.16
-8393.84
-8394.5
-8395.13
-8395.72
-8396.27
-8396.75
-8397.17
-8397.52
-8397.78
-8397.95
-8398.03
-8398.01
-8397.89
-8397.67
-8397.36
-8396.96
-8396.47
-8395.92
-8395.3
-8394.64
-8393.94
-8393.22
-8392.51
-8391.82
-8391.16
-8390.56
-8390.03
-8389.59
-8389.25
-8389.02
-8388.91
-8388.93
-8389.08
-8389.35
-8389.74
-8390.23
-8390.81
-8391.46
-8392.16
-8392.88
-8393.6
-8394.29
-8394.92
-8395.47
-8395.91
-8396.22
-8396.4
-8396.43
-8396.31
-8396.05
-8395.66
-8395.15
-8394.55
-8393.89
-8393.21
-8392.53
-8391.9
-8391.34
-8390.9
-8390.58
-8390.41
-8390.4
-8390.55
-8390.84
-8391.25
-8391.76
-8392.33
-8392.91
-8393.47
-8393.97
-8394.38
-8394.65
-8394.78
-8394.76
-8394.6
-8394.31
-8393.93
-8393.48
-8393.02
-8392.59
-8392.22
-8391.96
-8391.82
-8391.81
-8391.93
-8392.15
-8392.46
-8392.79
-8393.14
-8393.43
-8393.65
-8393.76
-8393.78
-8393.7
-8393.54
-8393.33
-8393.1
-8392.88
-8392.71
-8392.6
-8392.55
-8392.57
-8392.65
-8392.77
-8392.9
-8393.03
-8393.14
-8393.22
-8393.25
-8393.24
-8393.19
-8393.11
-8393.01
-8392.92
-8392.84
-8392.79
-8392.76
-8392.78
-8392.82
-8392.89
-8392.98
-8393.07
-8393.16
-8393.22
-8393.26
-8652.8
-8652.81
-8652.83
-8652.87
-8652.9
-8652.96
-8652.96
-8653.07
-8669.22
-8669.01
-8668.92
-8668.71
-8668.44
-8668.13
-8667.77
-8667.37
-8666.93
-8666.46
-8665.96
-8665.44
-8664.89
-8664.33
-8663.74
-8663.15
-8662.56
-8661.96
-8661.36
-8660.78
-8660.21
-8659.66
-8659.13
-8658.63
-8658.17
-8657.76
-8657.38
-8657.06
-8656.8
-8656.59
-8656.45
-8656.37
-8656.36
-8656.43
-8656.56
-8656.77
-8657.05
-8657.41
-8657.83
-8658.31
-8658.86
-8659.46
-8660.1
-8660.79
-8661.52
-8662.26
-8663.02
-8663.79
-8664.54
-8665.28
-8665.98
-8666.64
-8667.25
-8667.79
-8668.25
-8668.63
-8668.92
-8669.1
-8669.18
-8669.16
-8669.02
-8668.77
-8668.41
-8667.96
-8667.42
-8666.79
-8666.1
-8665.36
-8664.57
-8663.77
-8662.98
-8662.2
-8661.47
-8660.8
-8660.21
-8659.72
-8659.35
-8659.1
-8658.99
-8659.02
-8659.19
-8659.49
-8659.93
-8660.49
-8661.14
-8661.87
-8662.65
-8663.46
-8664.26
-8665.03
-8665.73
-8666.33
-8666.82
-8667.17
-8667.36
-8667.39
-8667.25
-8666.96
-8666.51
-8665.94
-8665.27
-8664.53
-8663.76
-8663.01
-8662.31
-8661.69
-8661.2
-8660.85
-8660.67
-8660.67
-8660.84
-8661.17
-8661.64
-8662.21
-8662.84
-8663.5
-8664.13
-8664.68
-8665.12
-8665.43
-8665.56
-8665.54
-8665.35
-8665.02
-8664.58
-8664.08
-8663.57
-8663.09
-8662.68
-8662.39
-8662.23
-8662.23
-8662.37
-8662.63
-8662.97
-8663.35
-8663.74
-8664.06
-8664.3
-8664.42
-8664.44
-8664.34
-8664.16
-8663.93
-8663.66
-8663.42
-8663.23
-8663.11
-8663.06
-8663.09
-8663.18
-8663.31
-8663.46
-8663.61
-8663.73
-8663.81
-8663.84
-8663.83
-8663.77
-8663.68
-8663.58
-8663.48
-8663.39
-8663.33
-8663.31
-8663.32
-8663.37
-8663.45
-8663.54
-8663.64
-8663.73
-8663.8
-8663.84
-8890.02
-8890.03
-8890.04
-8890.06
-8890.08
-8890.11
-8890.11
-8890.16
-8908.98
-8908.82
-8908.72
-8908.52
-8908.26
-8907.94
-8907.58
-8907.17
-8906.71
-8906.22
-8905.69
-8905.13
-8904.54
-8903.93
-8903.3
-8902.66
-8902.01
-8901.36
-8900.72
-8900.08
-8899.46
-8898.85
-8898.28
-8897.74
-8897.24
-8896.78
-8896.38
-8896.03
-8895.74
-8895.52
-8895.37
-8895.29
-8895.29
-8895.36
-8895.52
-8895.76
-8896.07
-8896.47
-8896.93
-8897.47
-8898.08
-8898.74
-8899.46
-8900.23
-8901.03
-8901.85
-8902.69
-8903.53
-8904.36
-8905.17
-8905.95
-8906.68
-8907.34
-8907.93
-8908.44
-8908.86
-8909.17
-8909.37
-8909.45
-8909.42
-8909.26
-8908.98
-8908.58
-8908.08
-8907.47
-8906.78
-8906.01
-8905.19
-8904.32
-8903.44
-8902.56
-8901.71
-8900.9
-8900.16
-8899.52
-8898.98
-8898.57
-8898.31
-8898.19
-8898.22
-8898.42
-8898.76
-8899.25
-8899.87
-8900.59
-8901.4
-8902.26
-8903.16
-8904.04
-8904.88
-8905.65
-8906.32
-8906.85
-8907.23
-8907.44
-8907.46
-8907.3
-8906.97
-8906.47
-8905.84
-8905.09
-8904.28
-8903.44
-8902.61
-8901.83
-8901.16
-8900.62
-8900.24
-8900.05
-8900.06
-8900.25
-8900.62
-8901.14
-8901.78
-8902.48
-8903.21
-8903.9
-8904.5
-8904.99
-8905.32
-8905.46
-8905.42
-8905.21
-8904.84
-8904.35
-8903.8
-8903.23
-8902.7
-8902.25
-8901.93
-8901.77
-8901.77
-8901.93
-8902.22
-8902.61
-8903.03
-8903.45
-8903.81
-8904.06
-8904.2
-8904.21
-8904.1
-8903.89
-8903.63
-8903.34
-8903.08
-8902.88
-8902.74
-8902.69
-8902.73
-8902.83
-8902.97
-8903.14
-8903.3
-8903.43
-8903.52
-8903.56
-8903.54
-8903.47
-8903.38
-8903.26
-8903.15
-8903.06
-8902.99
-8902.97
-8902.98
-8903.04
-8903.12
-8903.22
-8903.33
-8903.43
-8903.5
-8903.54
-9100.16
-9100.16
-9100.17
-9100.18
-9100.19
-9100.21
-9100.21
-9100.24
-9121.51
-9121.36
-9121.25
-9121.05
-9120.79
-9120.46
-9120.09
-9119.66
-9119.18
-9118.65
-9118.09
-9117.49
-9116.86
-9116.2
-9115.53
-9114.84
-9114.14
-9113.43
-9112.73
-9112.04
-9111.37
-9110.72
-9110.1
-9109.51
-9108.97
-9108.48
-9108.04
-9107.66
-9107.36
-9107.12
-9106.96
-9106.88
-9106.88
-9106.97
-9107.15
-9107.41
-9107.76
-9108.19
-9108.71
-9109.3
-9109.96
-9110.69
-9111.48
-9112.32
-9113.19
-9114.09
-9115.01
-9115.93
-9116.84
-9117.72
-9118.56
-9119.35
-9120.07
-9120.72
-9121.27
-9121.71
-9122.05
-9122.26
-9122.35
-9122.3
-9122.12
-9121.81
-9121.38
-9120.82
-9120.16
-9119.4
-9118.56
-9117.66
-9116.71
-9115.75
-9114.79
-9113.86
-9112.98
-9112.18
-9111.48
-9110.9
-9110.46
-9110.17
-9110.05
-9110.09
-9110.31
-9110.69
-9111.23
-9111.9
-9112.7
-9113.58
-9114.53
-9115.5
-9116.46
-9117.38
-9118.22
-9118.94
-9119.52
-9119.93
-9120.15
-9120.17
-9119.99
-9119.62
-9119.07
-9118.37
-9117.56
-9116.67
-9115.75
-9114.85
-9114.01
-9113.28
-9112.69
-9112.29
-9112.09
-9112.1
-9112.32
-9112.73
-9113.3
-9114
-9114.77
-9115.56
-9116.31
-9116.97
-9117.5
-9117.85
-9118
-9117.95
-9117.71
-9117.3
-9116.77
-9116.16
-9115.53
-9114.95
-9114.47
-9114.13
-9113.95
-9113.96
-9114.14
-9114.47
-9114.89
-9115.35
-9115.81
-9116.2
-9116.47
-9116.62
-9116.62
-9116.5
-9116.27
-9115.99
-9115.66
-9115.38
-9115.16
-9115.02
-9114.97
-9115.01
-9115.12
-9115.29
-9115.47
-9115.64
-9115.78
-9115.88
-9115.91
-9115.89
-9115.82
-9115.71
-9115.59
-9115.47
-9115.37
-9115.3
-9115.28
-9115.29
-9115.35
-9115.44
-9115.55
-9115.66
-9115.77
-9115.85
-9115.89
-9286.3
-9286.3
-9286.31
-9286.31
-9286.32
-9286.33
-9286.33
-9286.35
-9309.86
-9309.72
-9309.6
-9309.39
-9309.12
-9308.79
-9308.39
-9307.94
-9307.43
-9306.87
-9306.28
-9305.64
-9304.96
-9304.26
-9303.53
-9302.79
-9302.04
-9301.29
-9300.53
-9299.79
-9299.07
-9298.37
-9297.7
-9297.07
-9296.49
-9295.97
-9295.5
-9295.1
-9294.77
-9294.52
-9294.35
-9294.27
-9294.27
-9294.38
-9294.57
-9294.86
-9295.24
-9295.71
-9296.27
-9296.92
-9297.64
-9298.43
-9299.28
-9300.19
-9301.13
-9302.11
-9303.1
-9304.09
-9305.07
-9306.02
-9306.93
-9307.78
-9308.56
-9309.25
-9309.84
-9310.32
-9310.68
-9310.9
-9311
-9310.94
-9310.73
-9310.39
-9309.92
-9309.32
-9308.59
-9307.77
-9306.86
-9305.88
-9304.86
-9303.82
-9302.78
-9301.78
-9300.83
-9299.97
-9299.22
-9298.59
-9298.12
-9297.81
-9297.69
-9297.74
-9297.98
-9298.4
-9298.98
-9299.72
-9300.58
-9301.53
-9302.56
-9303.61
-9304.65
-9305.64
-9306.54
-9307.32
-9307.94
-9308.37
-9308.6
-9308.62
-9308.42
-9308.02
-9307.42
-9306.67
-9305.78
-9304.82
-9303.83
-9302.85
-9301.95
-9301.16
-9300.54
-9300.11
-9299.9
-9299.92
-9300.16
-9300.61
-9301.24
-9301.99
-9302.83
-9303.68
-9304.49
-9305.2
-9305.76
-9306.13
-9306.29
-9306.23
-9305.96
-9305.52
-9304.94
-9304.28
-9303.6
-9302.98
-9302.46
-9302.09
-9301.91
-9301.92
-9302.12
-9302.48
-9302.94
-9303.44
-9303.94
-9304.35
-9304.65
-9304.8
-9304.8
-9304.66
-9304.41
-9304.1
-9303.75
-9303.45
-9303.21
-9303.07
-9303.02
-9303.06
-9303.19
-9303.36
-9303.56
-9303.74
-9303.89
-9303.99
-9304.03
-9304.01
-9303.93
-9303.82
-9303.69
-9303.56
-9303.45
-9303.38
-9303.35
-9303.37
-9303.43
-9303.52
-9303.64
-9303.76
-9303.87
-9303.95
-9304
-9451.19
-9451.19
-9451.2
-9451.2
-9451.2
-9451.21
-9451.21
-9451.22
-9476.78
-9476.64
-9476.51
-9476.3
-9476.02
-9475.66