/*--------------------------------*- C++ -*----------------------------------*\
  =========                 |
  \\      /  F ield         | OpenFOAM: The Open Source CFD Toolbox
   \\    /   O peration     | Website:  https://openfoam.org
    \\  /    A nd           | Version:  12
     \\/     M anipulation  |
\*---------------------------------------------------------------------------*/
FoamFile
{
    format      ascii;
    class       volVectorField;
    location    "10.18";
    object      U;
}
// * * * * * * * * * * * * * * * * * * * * * * * * * * * * * * * * * * * * * //

dimensions      [0 1 -1 0 0 0 0];

internalField   nonuniform List<vector> 
3829
(
(-2.88753e-06 -0.000122289 0)
(-9.05044e-06 -0.000126778 0)
(-1.50824e-05 -0.000126091 0)
(-2.15098e-05 -0.000124956 0)
(-2.82472e-05 -0.000123443 0)
(-3.54014e-05 -0.000121554 0)
(-4.30369e-05 -0.000119306 0)
(-5.12146e-05 -0.000116721 0)
(-5.9992e-05 -0.000113833 0)
(-6.94764e-05 -0.000110682 0)
(-7.95868e-05 -0.000107304 0)
(-9.04542e-05 -0.000103752 0)
(-0.000102096 -0.000100083 0)
(-0.000114415 -9.63617e-05 0)
(-0.000127441 -9.26347e-05 0)
(-0.000141096 -8.8971e-05 0)
(-0.000155335 -8.54241e-05 0)
(-0.000170062 -8.20591e-05 0)
(-0.000185168 -7.89391e-05 0)
(-0.000200518 -7.61101e-05 0)
(-0.000215969 -7.36161e-05 0)
(-0.000231364 -7.1493e-05 0)
(-0.000246535 -6.97764e-05 0)
(-0.000261292 -6.84825e-05 0)
(-0.000275471 -6.76269e-05 0)
(-0.000288863 -6.72211e-05 0)
(-0.000301256 -6.72335e-05 0)
(-0.000312465 -6.76648e-05 0)
(-0.000322323 -6.84575e-05 0)
(-0.000330653 -6.96207e-05 0)
(-0.000337334 -7.10881e-05 0)
(-0.000342211 -7.27664e-05 0)
(-0.000345236 -7.46392e-05 0)
(-0.000346132 -7.65838e-05 0)
(-0.00034482 -7.85744e-05 0)
(-0.000341174 -8.05788e-05 0)
(-0.000335092 -8.26351e-05 0)
(-0.000326922 -8.46622e-05 0)
(-0.000316668 -8.65992e-05 0)
(-0.000304411 -8.83814e-05 0)
(-0.000290359 -8.9926e-05 0)
(-0.00027456 -9.11746e-05 0)
(-0.000257091 -9.20385e-05 0)
(-0.000238115 -9.2475e-05 0)
(-0.000217805 -9.24555e-05 0)
(-0.000196378 -9.19366e-05 0)
(-0.00017403 -9.08946e-05 0)
(-0.000151008 -8.93095e-05 0)
(-0.000127553 -8.71784e-05 0)
(-0.00010389 -8.44658e-05 0)
(-8.04422e-05 -8.12374e-05 0)
(-5.72619e-05 -7.73979e-05 0)
(-3.45344e-05 -7.30973e-05 0)
(-1.2993e-05 -6.82878e-05 0)
(7.36147e-06 -6.3009e-05 0)
(2.64813e-05 -5.72896e-05 0)
(4.37995e-05 -5.12079e-05 0)
(5.90566e-05 -4.47921e-05 0)
(7.25338e-05 -3.8071e-05 0)
(8.36642e-05 -3.11942e-05 0)
(9.22437e-05 -2.41543e-05 0)
(9.82549e-05 -1.70436e-05 0)
(0.000101547 -9.96367e-06 0)
(0.000102029 -2.95199e-06 0)
(9.93576e-05 3.87437e-06 0)
(9.4047e-05 1.04356e-05 0)
(8.60202e-05 1.66733e-05 0)
(7.52917e-05 2.24983e-05 0)
(6.21138e-05 2.78498e-05 0)
(4.69474e-05 3.26646e-05 0)
(2.96035e-05 3.67879e-05 0)
(9.89572e-06 4.02282e-05 0)
(-1.13598e-05 4.2953e-05 0)
(-3.38269e-05 4.48778e-05 0)
(-5.69482e-05 4.59369e-05 0)
(-8.03859e-05 4.61671e-05 0)
(-0.000104043 4.54831e-05 0)
(-0.000127185 4.39491e-05 0)
(-0.000149317 4.15362e-05 0)
(-0.000170439 3.8305e-05 0)
(-0.000189704 3.43063e-05 0)
(-0.000206511 2.95899e-05 0)
(-0.000221095 2.41763e-05 0)
(-0.000232538 1.82978e-05 0)
(-0.000240624 1.18967e-05 0)
(-0.00024544 5.23694e-06 0)
(-0.000246181 -1.6327e-06 0)
(-0.000242621 -8.51132e-06 0)
(-0.000234834 -1.5349e-05 0)
(-0.000222971 -2.19174e-05 0)
(-0.000207223 -2.81335e-05 0)
(-0.000187848 -3.38153e-05 0)
(-0.000165137 -3.88256e-05 0)
(-0.000139435 -4.30284e-05 0)
(-0.000111234 -4.63087e-05 0)
(-8.10975e-05 -4.85611e-05 0)
(-4.96176e-05 -4.97041e-05 0)
(-1.75609e-05 -4.97017e-05 0)
(1.43888e-05 -4.85109e-05 0)
(4.54204e-05 -4.61564e-05 0)
(7.47592e-05 -4.26565e-05 0)
(0.000101629 -3.81056e-05 0)
(0.000125312 -3.25859e-05 0)
(0.000145123 -2.62709e-05 0)
(0.00016049 -1.9279e-05 0)
(0.000170969 -1.18454e-05 0)
(0.000176209 -4.1595e-06 0)
(0.000175786 3.49726e-06 0)
(0.000169509 1.09604e-05 0)
(0.000157847 1.79547e-05 0)
(0.000141136 2.42921e-05 0)
(0.000120008 2.97282e-05 0)
(9.50036e-05 3.40699e-05 0)
(6.68602e-05 3.71517e-05 0)
(3.6797e-05 3.88684e-05 0)
(5.66231e-06 3.91149e-05 0)
(-2.52962e-05 3.79085e-05 0)
(-5.4804e-05 3.52603e-05 0)
(-8.18831e-05 3.12795e-05 0)
(-0.000105322 2.61127e-05 0)
(-0.000124227 1.99792e-05 0)
(-0.000137768 1.31341e-05 0)
(-0.00014544 5.86061e-06 0)
(-0.000146667 -1.52088e-06 0)
(-0.000141232 -8.65468e-06 0)
(-0.000129642 -1.52572e-05 0)
(-0.000112436 -2.09989e-05 0)
(-9.045e-05 -2.56327e-05 0)
(-6.47594e-05 -2.89418e-05 0)
(-3.66047e-05 -3.06874e-05 0)
(-7.3948e-06 -3.08261e-05 0)
(2.12878e-05 -2.93281e-05 0)
(4.79654e-05 -2.63071e-05 0)
(7.11271e-05 -2.19432e-05 0)
(8.96009e-05 -1.64515e-05 0)
(0.000102396 -1.02125e-05 0)
(0.000108774 -3.5305e-06 0)
(0.000108224 3.09461e-06 0)
(0.000100809 9.3757e-06 0)
(8.72626e-05 1.48352e-05 0)
(6.85361e-05 1.92176e-05 0)
(4.591e-05 2.2199e-05 0)
(2.07728e-05 2.35829e-05 0)
(-5.20019e-06 2.33245e-05 0)
(-3.00471e-05 2.1473e-05 0)
(-5.19453e-05 1.81731e-05 0)
(-6.9573e-05 1.37366e-05 0)
(-8.17855e-05 8.46537e-06 0)
(-8.77793e-05 2.8477e-06 0)
(-8.71274e-05 -2.69519e-06 0)
(-8.00381e-05 -7.76688e-06 0)
(-6.7457e-05 -1.1949e-05 0)
(-5.05611e-05 -1.497e-05 0)
(-3.08558e-05 -1.65828e-05 0)
(-9.99493e-06 -1.67514e-05 0)
(1.02143e-05 -1.54831e-05 0)
(2.80225e-05 -1.30447e-05 0)
(4.21405e-05 -9.71875e-06 0)
(5.16364e-05 -5.89202e-06 0)
(5.61294e-05 -1.99085e-06 0)
(5.56237e-05 1.55784e-06 0)
(5.08057e-05 4.41928e-06 0)
(4.28531e-05 6.33011e-06 0)
(3.30923e-05 7.13293e-06 0)
(2.30768e-05 6.86384e-06 0)
(1.42355e-05 5.62345e-06 0)
(7.55515e-06 3.68413e-06 0)
(4.10151e-06 1.46086e-06 0)
(4.34457e-06 -8.88655e-07 0)
(7.88986e-06 -2.92226e-06 0)
(1.3969e-05 -4.28897e-06 0)
(2.12669e-05 -4.80239e-06 0)
(2.85323e-05 -4.42948e-06 0)
(3.4566e-05 -3.26226e-06 0)
(3.82636e-05 -1.45137e-06 0)
(3.8731e-05 7.13827e-07 0)
(3.5526e-05 2.95806e-06 0)
(2.88129e-05 4.96459e-06 0)
(1.92743e-05 6.46592e-06 0)
(7.90186e-06 7.26635e-06 0)
(-4.4421e-06 7.25992e-06 0)
(-1.61818e-05 6.42319e-06 0)
(-2.57111e-05 4.89318e-06 0)
(-3.22325e-05 2.85795e-06 0)
(-3.50254e-05 5.50206e-07 0)
(-3.37342e-05 -1.76246e-06 0)
(-2.85011e-05 -3.84495e-06 0)
(-1.99424e-05 -5.47414e-06 0)
(-9.01292e-06 -6.517e-06 0)
(3.43261e-06 -6.872e-06 0)
(1.60138e-05 -6.54521e-06 0)
(2.72975e-05 -5.59688e-06 0)
(3.64343e-05 -4.15036e-06 0)
(4.25285e-05 -2.35661e-06 0)
(4.50574e-05 -3.70327e-07 0)
(4.37769e-05 1.58425e-06 0)
(3.8762e-05 3.40124e-06 0)
(3.04347e-05 4.89729e-06 0)
(1.945e-05 5.97436e-06 0)
(6.701e-06 6.53484e-06 0)
(2.6034e-07 0.000227417 0)
(1.13763e-06 0.000231317 0)
(1.80887e-06 0.00023349 0)
(2.04116e-06 0.000236652 0)
(1.65893e-06 0.000240764 0)
(5.5341e-07 0.00024572 0)
(-1.51485e-06 0.000251457 0)
(-4.73838e-06 0.000257834 0)
(-9.29044e-06 0.000264691 0)
(-1.52895e-05 0.000271859 0)
(-2.27385e-05 0.000279109 0)
(-3.1894e-05 0.000286231 0)
(-4.28578e-05 0.000292978 0)
(-5.54087e-05 0.000299178 0)
(-6.95671e-05 0.000304447 0)
(-8.52879e-05 0.000308642 0)
(-0.00010246 0.000311463 0)
(-0.000121031 0.00031271 0)
(-0.000140719 0.000312174 0)
(-0.000161216 0.000309728 0)
(-0.000182285 0.000305212 0)
(-0.00020369 0.00029853 0)
(-0.000225107 0.000289618 0)
(-0.000246194 0.000278466 0)
(-0.000266748 0.000265092 0)
(-0.000286232 0.000249527 0)
(-0.000304364 0.000231988 0)
(-0.000320798 0.000212575 0)
(-0.000335432 0.000191492 0)
(-0.000348052 0.000168938 0)
(-0.000357886 0.000145185 0)
(-0.00036513 0.000120493 0)
(-0.000369585 9.51152e-05 0)
(-0.000370941 6.93054e-05 0)
(-0.000369719 4.33896e-05 0)
(-0.000366201 1.78357e-05 0)
(-0.000359997 -7.07791e-06 0)
(-0.000350851 -3.10475e-05 0)
(-0.000338889 -5.38882e-05 0)
(-0.000324085 -7.53541e-05 0)
(-0.000306714 -9.52694e-05 0)
(-0.000286818 -0.000113419 0)
(-0.000264593 -0.000129657 0)
(-0.000240565 -0.000143804 0)
(-0.000214915 -0.000155761 0)
(-0.000187902 -0.00016542 0)
(-0.000159858 -0.000172723 0)
(-0.000131147 -0.000177599 0)
(-0.000101935 -0.000180061 0)
(-7.28021e-05 -0.000180104 0)
(-4.38686e-05 -0.00017779 0)
(-1.56015e-05 -0.000173135 0)
(1.15637e-05 -0.000166276 0)
(3.74808e-05 -0.000157301 0)
(6.17636e-05 -0.000146368 0)
(8.41945e-05 -0.000133543 0)
(0.000104225 -0.000119098 0)
(0.000121852 -0.000103156 0)
(0.000136794 -8.60334e-05 0)
(0.000148673 -6.7845e-05 0)
(0.000157587 -4.89994e-05 0)
(0.000163035 -2.95345e-05 0)
(0.00016514 -9.94878e-06 0)
(0.000163769 9.60475e-06 0)
(0.000158405 2.88466e-05 0)
(0.000149849 4.76245e-05 0)
(0.000138007 6.55158e-05 0)
(0.000122904 8.23567e-05 0)
(0.000104928 9.78116e-05 0)
(8.41627e-05 0.000111617 0)
(6.07389e-05 0.000123495 0)
(3.49837e-05 0.000133279 0)
(7.34949e-06 0.000140881 0)
(-2.19527e-05 0.00014603 0)
(-5.18699e-05 0.000148644 0)
(-8.21338e-05 0.00014858 0)
(-0.000112544 0.000145862 0)
(-0.000142147 0.000140476 0)
(-0.000170476 0.000132444 0)
(-0.000197237 0.000121806 0)
(-0.000221638 0.000108948 0)
(-0.000243203 9.36694e-05 0)
(-0.000261534 7.66142e-05 0)
(-0.000276008 5.77732e-05 0)
(-0.000286331 3.771e-05 0)
(-0.000292239 1.65759e-05 0)
(-0.000293197 -4.98718e-06 0)
(-0.000288991 -2.66667e-05 0)
(-0.000279637 -4.80332e-05 0)
(-0.000265206 -6.86042e-05 0)
(-0.000246079 -8.79443e-05 0)
(-0.000222369 -0.000105606 0)
(-0.000194546 -0.000121118 0)
(-0.000163052 -0.00013408 0)
(-0.000128502 -0.00014412 0)
(-9.15827e-05 -0.000150961 0)
(-5.31147e-05 -0.000154329 0)
(-1.39917e-05 -0.000154094 0)
(2.49168e-05 -0.000150173 0)
(6.26209e-05 -0.000142628 0)
(9.81517e-05 -0.000131568 0)
(0.00013056 -0.000117245 0)
(0.000158926 -9.9964e-05 0)
(0.000182487 -8.01651e-05 0)
(0.000200533 -5.8374e-05 0)
(0.000212461 -3.52253e-05 0)
(0.000217834 -1.1361e-05 0)
(0.000216335 1.25316e-05 0)
(0.00020784 3.56472e-05 0)
(0.000192788 5.7387e-05 0)
(0.000171641 7.69311e-05 0)
(0.000145055 9.36441e-05 0)
(0.000113806 0.000106889 0)
(7.8881e-05 0.00011624 0)
(4.16688e-05 0.000121281 0)
(3.33157e-06 0.000121772 0)
(-3.45949e-05 0.00011774 0)
(-7.06257e-05 0.000109216 0)
(-0.000103473 9.66272e-05 0)
(-0.000131689 8.03772e-05 0)
(-0.000154166 6.11479e-05 0)
(-0.000169967 3.97127e-05 0)
(-0.000178482 1.69707e-05 0)
(-0.000179019 -5.97335e-06 0)
(-0.0001715 -2.81522e-05 0)
(-0.000156535 -4.86421e-05 0)
(-0.000134783 -6.63727e-05 0)
(-0.000107366 -8.05633e-05 0)
(-7.54086e-05 -9.0526e-05 0)
(-4.05397e-05 -9.5647e-05 0)
(-4.61851e-06 -9.58001e-05 0)
(3.04529e-05 -9.08755e-05 0)
(6.27826e-05 -8.12068e-05 0)
(9.06805e-05 -6.73656e-05 0)
(0.000112612 -5.01404e-05 0)
(0.000127455 -3.05596e-05 0)
(0.000134291 -9.8046e-06 0)
(0.00013269 1.08969e-05 0)
(0.000122813 3.02506e-05 0)
(0.0001055 4.71417e-05 0)
(8.20307e-05 6.04663e-05 0)
(5.38248e-05 6.94232e-05 0)
(2.28012e-05 7.34351e-05 0)
(-8.91648e-06 7.23331e-05 0)
(-3.90383e-05 6.62398e-05 0)
(-6.53016e-05 5.57967e-05 0)
(-8.61453e-05 4.17601e-05 0)
(-0.000100166 2.53527e-05 0)
(-0.000106405 7.80988e-06 0)
(-0.000104642 -9.39573e-06 0)
(-9.51358e-05 -2.502e-05 0)
(-7.90773e-05 -3.7827e-05 0)
(-5.7956e-05 -4.68772e-05 0)
(-3.36734e-05 -5.1568e-05 0)
(-8.2943e-06 -5.17239e-05 0)
(1.59099e-05 -4.75061e-05 0)
(3.6785e-05 -3.96082e-05 0)
(5.2893e-05 -2.90531e-05 0)
(6.31237e-05 -1.70219e-05 0)
(6.70792e-05 -4.86458e-06 0)
(6.49399e-05 6.10387e-06 0)
(5.76649e-05 1.48259e-05 0)
(4.67128e-05 2.05354e-05 0)
(3.38491e-05 2.27786e-05 0)
(2.09907e-05 2.16213e-05 0)
(9.88184e-06 1.75109e-05 0)
(1.91686e-06 1.12526e-05 0)
(-2.0226e-06 4.03693e-06 0)
(-1.46111e-06 -3.23241e-06 0)
(3.43504e-06 -9.48367e-06 0)
(1.1531e-05 -1.3815e-05 0)
(2.10816e-05 -1.53288e-05 0)
(3.04745e-05 -1.41023e-05 0)
(3.82838e-05 -1.0388e-05 0)
(4.31733e-05 -4.73759e-06 0)
(4.41153e-05 2.01984e-06 0)
(4.06589e-05 8.93759e-06 0)
(3.30018e-05 1.51041e-05 0)
(2.19938e-05 1.9686e-05 0)
(8.83295e-06 2.20851e-05 0)
(-5.40825e-06 2.20092e-05 0)
(-1.88733e-05 1.94179e-05 0)
(-2.97225e-05 1.47467e-05 0)
(-3.70649e-05 8.54048e-06 0)
(-4.01089e-05 1.5563e-06 0)
(-3.85156e-05 -5.41386e-06 0)
(-3.24941e-05 -1.1645e-05 0)
(-2.27853e-05 -1.65069e-05 0)
(-1.04853e-05 -1.95529e-05 0)
(3.3994e-06 -2.05653e-05 0)
(1.73191e-05 -1.95375e-05 0)
(2.97243e-05 -1.66619e-05 0)
(3.96819e-05 -1.23028e-05 0)
(4.62747e-05 -6.9408e-06 0)
(4.89192e-05 -1.05875e-06 0)
(4.74308e-05 4.76441e-06 0)
(4.19357e-05 1.01096e-05 0)
(3.28722e-05 1.45141e-05 0)
(2.09846e-05 1.76813e-05 0)
(7.22223e-06 1.93369e-05 0)
(6.10104e-06 -0.000118837 0)
(1.81937e-05 -0.000123765 0)
(2.93966e-05 -0.000118076 0)
(3.89677e-05 -0.000109332 0)
(4.64082e-05 -9.75743e-05 0)
(5.17618e-05 -8.29036e-05 0)
(5.47396e-05 -6.54442e-05 0)
(5.45942e-05 -4.54491e-05 0)
(5.11175e-05 -2.30696e-05 0)
(4.37758e-05 1.2477e-06 0)
(3.24515e-05 2.70124e-05 0)
(1.69691e-05 5.34994e-05 0)
(-2.31346e-06 8.01633e-05 0)
(-2.61493e-05 0.000106338 0)
(-5.42272e-05 0.000131358 0)
(-8.5764e-05 0.0001546 0)
(-0.000121016 0.000175449 0)
(-0.000159136 0.000193331 0)
(-0.000199444 0.000207744 0)
(-0.000241396 0.000218222 0)
(-0.000284563 0.000224366 0)
(-0.00032812 0.000225931 0)
(-0.000371318 0.000222745 0)
(-0.000413416 0.000214721 0)
(-0.000454003 0.000202006 0)
(-0.000491653 0.000184679 0)
(-0.000525759 0.000163207 0)
(-0.000556286 0.000137648 0)
(-0.000582556 0.000108774 0)
(-0.000604086 7.69955e-05 0)
(-0.000620409 4.29308e-05 0)
(-0.000631627 7.11101e-06 0)
(-0.000637838 -2.96043e-05 0)
(-0.000638431 -6.67497e-05 0)
(-0.000632334 -0.0001037 0)
(-0.000619867 -0.000140247 0)
(-0.000601939 -0.00017569 0)
(-0.00057945 -0.000209676 0)
(-0.000552843 -0.000241663 0)
(-0.000522301 -0.000271199 0)
(-0.000488266 -0.000297946 0)
(-0.000450996 -0.00032154 0)
(-0.000410813 -0.000341725 0)
(-0.000368183 -0.000358291 0)
(-0.000323687 -0.000371057 0)
(-0.000277774 -0.000379897 0)
(-0.000230837 -0.000384746 0)
(-0.000183483 -0.000385582 0)
(-0.00013627 -0.000382385 0)
(-8.96777e-05 -0.000375237 0)
(-4.41663e-05 -0.000364191 0)
(-1.45409e-07 -0.000349478 0)
(4.18585e-05 -0.000331102 0)
(8.11444e-05 -0.000309475 0)
(0.000117799 -0.000284671 0)
(0.000151316 -0.000257114 0)
(0.000180937 -0.000226996 0)
(0.000206316 -0.000194747 0)
(0.000227742 -0.00016071 0)
(0.000244383 -0.000125334 0)
(0.000256447 -8.87948e-05 0)
(0.000263591 -5.18597e-05 0)
(0.000265288 -1.46668e-05 0)
(0.000262413 2.19584e-05 0)
(0.000254641 5.78188e-05 0)
(0.000242036 9.2363e-05 0)
(0.000224541 0.000125151 0)
(0.000202598 0.000155686 0)
(0.000176164 0.000183524 0)
(0.000145919 0.00020822 0)
(0.000112131 0.000229345 0)
(7.54228e-05 0.000246638 0)
(3.62174e-05 0.000259746 0)
(-5.11435e-06 0.000268397 0)
(-4.74668e-05 0.000272496 0)
(-9.01305e-05 0.000271719 0)
(-0.000132543 0.000266176 0)
(-0.00017397 0.000255816 0)
(-0.000213745 0.000240711 0)
(-0.000250656 0.000221075 0)
(-0.00028468 0.000197185 0)
(-0.000314462 0.000169347 0)
(-0.000339588 0.000138128 0)
(-0.000359515 0.000103952 0)
(-0.000373558 6.74797e-05 0)
(-0.000381627 2.93662e-05 0)
(-0.000382555 -9.6066e-06 0)
(-0.000376839 -4.87072e-05 0)
(-0.000364114 -8.70655e-05 0)
(-0.000344604 -0.000123985 0)
(-0.000318717 -0.000158568 0)
(-0.00028668 -0.000189993 0)
(-0.000249019 -0.000217524 0)
(-0.000206451 -0.000240358 0)
(-0.00015989 -0.000257949 0)
(-0.000110232 -0.000269712 0)
(-5.85409e-05 -0.000275278 0)
(-6.14176e-06 -0.000274354 0)
(4.57477e-05 -0.00026685 0)
(9.58017e-05 -0.000252844 0)
(0.000142755 -0.000232565 0)
(0.000185354 -0.000206432 0)
(0.00022244 -0.000175134 0)
(0.000252831 -0.000139392 0)
(0.000275561 -0.000100216 0)
(0.00028999 -5.8654e-05 0)
(0.000295729 -1.59087e-05 0)
(0.000292093 2.67232e-05 0)
(0.000279231 6.78933e-05 0)
(0.000257686 0.000106405 0)
(0.000227838 0.000140859 0)
(0.000190852 0.00017028 0)
(0.000147849 0.000193241 0)
(0.000100172 0.000209325 0)
(4.95193e-05 0.000217536 0)
(-2.22727e-06 0.000217711 0)
(-5.31921e-05 0.000209718 0)
(-0.00010125 0.00019381 0)
(-0.000144641 0.000170626 0)
(-0.000181668 0.000140986 0)
(-0.000210742 0.000106153 0)
(-0.000230696 6.75788e-05 0)
(-0.000240464 2.6879e-05 0)
(-0.000239456 -1.41911e-05 0)
(-0.000227981 -5.37591e-05 0)
(-0.00020648 -9.00033e-05 0)
(-0.0001759 -0.000121379 0)
(-0.000137959 -0.000146075 0)
(-9.41348e-05 -0.000163151 0)
(-4.68226e-05 -0.000171539 0)
(1.55427e-06 -0.000171005 0)
(4.8547e-05 -0.000161415 0)
(9.14367e-05 -0.000143458 0)
(0.000127954 -0.000118146 0)
(0.000156179 -8.69116e-05 0)
(0.00017455 -5.16523e-05 0)
(0.000182102 -1.44436e-05 0)
(0.000178281 2.24383e-05 0)
(0.000163495 5.67825e-05 0)
(0.000138946 8.64912e-05 0)
(0.000106249 0.000109705 0)
(6.76459e-05 0.000124943 0)
(2.56586e-05 0.000131397 0)
(-1.68535e-05 0.000128513 0)
(-5.66425e-05 0.000116934 0)
(-9.09072e-05 9.76111e-05 0)
(-0.000117505 7.2082e-05 0)
(-0.00013465 4.24697e-05 0)
(-0.00014128 1.11469e-05 0)
(-0.000137117 -1.9456e-05 0)
(-0.000122856 -4.69127e-05 0)
(-0.000100024 -6.91685e-05 0)
(-7.08354e-05 -8.4553e-05 0)
(-3.7976e-05 -9.20269e-05 0)
(-4.23317e-06 -9.13555e-05 0)
(2.73538e-05 -8.29705e-05 0)
(5.387e-05 -6.81508e-05 0)
(7.34441e-05 -4.87322e-05 0)
(8.47981e-05 -2.695e-05 0)
(8.74895e-05 -5.16008e-06 0)
(8.20387e-05 1.42112e-05 0)
(6.99651e-05 2.93935e-05 0)
(5.33163e-05 3.89447e-05 0)
(3.45519e-05 4.22338e-05 0)
(1.63874e-05 3.93906e-05 0)
(1.16196e-06 3.13055e-05 0)
(-9.25553e-06 1.95518e-05 0)
(-1.37851e-05 6.06142e-06 0)
(-1.2184e-05 -7.0635e-06 0)
(-4.90109e-06 -1.81313e-05 0)
(6.97356e-06 -2.57816e-05 0)
(2.09029e-05 -2.83321e-05 0)
(3.42716e-05 -2.59758e-05 0)
(4.53451e-05 -1.91869e-05 0)
(5.23946e-05 -9.02369e-06 0)
(5.41372e-05 3.03142e-06 0)
(5.01071e-05 1.52711e-05 0)
(4.06609e-05 2.60783e-05 0)
(2.68912e-05 3.39844e-05 0)
(1.0422e-05 3.80559e-05 0)
(-7.26042e-06 3.77631e-05 0)
(-2.38057e-05 3.31877e-05 0)
(-3.70108e-05 2.50309e-05 0)
(-4.57862e-05 1.43441e-05 0)
(-4.92069e-05 2.38824e-06 0)
(-4.7003e-05 -9.45067e-06 0)
(-3.95292e-05 -1.99359e-05 0)
(-2.77213e-05 -2.80351e-05 0)
(-1.29684e-05 -3.30046e-05 0)
(3.43217e-06 -3.45473e-05 0)
(1.97024e-05 -3.2647e-05 0)
(3.40694e-05 -2.77058e-05 0)
(4.54368e-05 -2.03392e-05 0)
(5.28288e-05 -1.13584e-05 0)
(5.56604e-05 -1.61408e-06 0)
(5.37805e-05 8.03012e-06 0)
(4.73992e-05 1.6795e-05 0)
(3.70678e-05 2.40185e-05 0)
(2.36294e-05 2.9171e-05 0)
(8.12442e-06 3.18787e-05 0)
(2.14597e-05 5.04501e-05 0)
(6.48526e-05 6.05372e-05 0)
(0.000107681 7.85163e-05 0)
(0.000149577 0.000105427 0)
(0.00018935 0.000141074 0)
(0.000225737 0.000184737 0)
(0.000257534 0.000235693 0)
(0.000284413 0.000292397 0)
(0.000305058 0.000353637 0)
(0.000317254 0.000417127 0)
(0.000319467 0.000481634 0)
(0.000311344 0.000545476 0)
(0.000293493 0.00060725 0)
(0.000265565 0.000665224 0)
(0.000228099 0.000718152 0)
(0.000181783 0.000764433 0)
(0.000127223 0.000802934 0)
(6.54732e-05 0.000832408 0)
(-2.27454e-06 0.000852092 0)
(-7.49241e-05 0.0008612 0)
(-0.000150794 0.000859198 0)
(-0.000228183 0.000845771 0)
(-0.000305762 0.000821003 0)
(-0.000381365 0.00078511 0)
(-0.000453865 0.00073878 0)
(-0.000520995 0.000682778 0)
(-0.000582613 0.000618275 0)
(-0.000636937 0.000546368 0)
(-0.000682129 0.000468845 0)
(-0.000718963 0.000386791 0)
(-0.000746269 0.000302063 0)
(-0.000763273 0.000215701 0)
(-0.000770372 0.000129143 0)
(-0.000768607 4.36105e-05 0)
(-0.000759781 -3.94112e-05 0)
(-0.000743956 -0.000118759 0)
(-0.000720306 -0.000193809 0)
(-0.00068961 -0.000263916 0)
(-0.000651661 -0.000328359 0)
(-0.000607559 -0.000386731 0)
(-0.000558148 -0.000438527 0)
(-0.00050398 -0.000483471 0)
(-0.000446035 -0.000521304 0)
(-0.000385226 -0.000551901 0)
(-0.000322202 -0.000575203 0)
(-0.000257781 -0.000591191 0)
(-0.000192753 -0.000599916 0)
(-0.000127701 -0.000601493 0)
(-6.32691e-05 -0.000596121 0)
(-2.93941e-07 -0.000584067 0)
(6.04927e-05 -0.000565708 0)
(0.000118864 -0.000541099 0)
(0.000173717 -0.000510985 0)
(0.000224619 -0.00047546 0)
(0.000271293 -0.000435111 0)
(0.00031308 -0.000390513 0)
(0.000349512 -0.000342175 0)
(0.000380038 -0.000290556 0)
(0.000404485 -0.000236287 0)
(0.000423124 -0.000180102 0)
(0.000435035 -0.000122586 0)
(0.000439969 -6.46121e-05 0)
(0.000437914 -6.65844e-06 0)
(0.00042873 5.04856e-05 0)
(0.000412997 0.000106224 0)
(0.00039067 0.000159634 0)
(0.000361974 0.000210104 0)
(0.000327087 0.000256853 0)
(0.000286631 0.000299231 0)
(0.000240882 0.000336636 0)
(0.000190649 0.000368435 0)
(0.000136641 0.000394135 0)
(7.93202e-05 0.00041323 0)
(1.97563e-05 0.000425446 0)
(-4.11014e-05 0.000430457 0)
(-0.000102285 0.000428048 0)
(-0.000162707 0.000418156 0)
(-0.000221575 0.000400882 0)
(-0.000277656 0.000376329 0)
(-0.000329969 0.000344911 0)
(-0.000377598 0.000306861 0)
(-0.000419237 0.000263085 0)
(-0.000454242 0.000213876 0)
(-0.000481838 0.000160474 0)
(-0.00050114 0.000103471 0)
(-0.000511725 4.43066e-05 0)
(-0.000512945 -1.60875e-05 0)
(-0.000504552 -7.65739e-05 0)
(-0.000486736 -0.000135743 0)
(-0.000459676 -0.000192572 0)
(-0.000423573 -0.000245621 0)
(-0.00037912 -0.000293688 0)
(-0.000326963 -0.000335526 0)
(-0.00026816 -0.000370107 0)
(-0.000204015 -0.000396462 0)
(-0.000135743 -0.000413756 0)
(-6.49615e-05 -0.000421465 0)
(6.68614e-06 -0.000419179 0)
(7.74002e-05 -0.000406747 0)
(0.000145437 -0.000384327 0)
(0.000209048 -0.000352359 0)
(0.000266268 -0.000311557 0)
(0.00031558 -0.000262786 0)
(0.000355577 -0.000207403 0)
(0.000384953 -0.000146755 0)
(0.000402857 -8.25931e-05 0)
(0.00040848 -1.686e-05 0)
(0.000401345 4.82278e-05 0)
(0.000381765 0.000111118 0)
(0.000350266 0.000169634 0)
(0.000307932 0.000221793 0)
(0.000255588 0.000265963 0)
(0.0001953 0.000300257 0)
(0.000129082 0.000323692 0)
(5.89118e-05 0.000335084 0)
(-1.22305e-05 0.000334052 0)
(-8.19743e-05 0.000320464 0)
(-0.000147344 0.000294876 0)
(-0.00020601 0.000258172 0)
(-0.000255453 0.000211794 0)
(-0.000293515 0.000157616 0)
(-0.000318785 9.77737e-05 0)
(-0.000330245 3.51456e-05 0)
(-0.000326972 -2.77545e-05 0)
(-0.000309058 -8.82378e-05 0)
(-0.000277857 -0.000143293 0)
(-0.000234275 -0.000190534 0)
(-0.000180697 -0.000227506 0)
(-0.000119671 -0.0002525 0)
(-5.41683e-05 -0.000264137 0)
(1.23188e-05 -0.000261922 0)
(7.63501e-05 -0.000245945 0)
(0.000134166 -0.000217263 0)
(0.000182961 -0.000177426 0)
(0.00021993 -0.000128748 0)
(0.000243111 -7.4129e-05 0)
(0.000251228 -1.68409e-05 0)
(0.000243849 3.95359e-05 0)
(0.000221661 9.16779e-05 0)
(0.000186279 0.000136507 0)
(0.000140097 0.000171014 0)
(8.62746e-05 0.000193137 0)
(2.82096e-05 0.000201651 0)
(-2.98265e-05 0.000195848 0)
(-8.33775e-05 0.000176863 0)
(-0.000128991 0.000146104 0)
(-0.000163599 0.000106231 0)
(-0.000184823 6.03268e-05 0)
(-0.000191493 1.21616e-05 0)
(-0.000183537 -3.43634e-05 0)
(-0.000161957 -7.57376e-05 0)
(-0.000129133 -0.000108836 0)
(-8.80671e-05 -0.000130999 0)
(-4.26331e-05 -0.000141026 0)
(3.17747e-06 -0.000138398 0)
(4.51945e-05 -0.000124068 0)
(7.95758e-05 -0.000100143 0)
(0.000103841 -6.94493e-05 0)
(0.000116423 -3.55229e-05 0)
(0.000116886 -2.11534e-06 0)
(0.000106303 2.73447e-05 0)
(8.69717e-05 4.98548e-05 0)
(6.18064e-05 6.34647e-05 0)
(3.44583e-05 6.72296e-05 0)
(8.60398e-06 6.157e-05 0)
(-1.24327e-05 4.7951e-05 0)
(-2.61914e-05 2.88834e-05 0)
(-3.1345e-05 7.50227e-06 0)
(-2.78362e-05 -1.3107e-05 0)
(-1.67627e-05 -3.00248e-05 0)
(6.23655e-07 -4.13152e-05 0)
(2.08372e-05 -4.50412e-05 0)
(3.99545e-05 -4.10541e-05 0)
(5.5694e-05 -3.03435e-05 0)
(6.57521e-05 -1.46159e-05 0)
(6.85376e-05 3.80465e-06 0)
(6.3575e-05 2.23428e-05 0)
(5.14122e-05 3.84843e-05 0)
(3.36581e-05 5.01882e-05 0)
(1.24941e-05 5.60295e-05 0)
(-9.99995e-06 5.53056e-05 0)
(-3.07998e-05 4.83318e-05 0)
(-4.71934e-05 3.61728e-05 0)
(-5.78329e-05 2.04153e-05 0)
(-6.16937e-05 2.97198e-06 0)
(-5.8545e-05 -1.41545e-05 0)
(-4.89885e-05 -2.91488e-05 0)
(-3.4263e-05 -4.05624e-05 0)
(-1.61536e-05 -4.74235e-05 0)
(3.67825e-06 -4.93085e-05 0)
(2.30878e-05 -4.63247e-05 0)
(4.0009e-05 -3.90738e-05 0)
(5.31984e-05 -2.84915e-05 0)
(6.15886e-05 -1.57143e-05 0)
(6.46009e-05 -1.99255e-06 0)
(6.21549e-05 1.14987e-05 0)
(5.45813e-05 2.36804e-05 0)
(4.25534e-05 3.36811e-05 0)
(2.70682e-05 4.07886e-05 0)
(9.30152e-06 4.44908e-05 0)
(6.46683e-05 -0.000771399 0)
(0.000193765 -0.000766986 0)
(0.000319971 -0.000735544 0)
(0.000440179 -0.000688213 0)
(0.000550253 -0.000624804 0)
(0.000647137 -0.000547102 0)
(0.000725733 -0.000453816 0)
(0.000782793 -0.000349072 0)
(0.000814443 -0.00023038 0)
(0.00082055 -0.000103331 0)
(0.000804913 3.19779e-05 0)
(0.000766792 0.000169844 0)
(0.000706812 0.000307625 0)
(0.000625815 0.000441067 0)
(0.000525432 0.000566975 0)
(0.000407682 0.000681918 0)
(0.000274928 0.000783079 0)
(0.000130261 0.000867889 0)
(-2.28867e-05 0.000933729 0)
(-0.000182448 0.000979188 0)
(-0.000345152 0.00100352 0)
(-0.00050686 0.00100556 0)
(-0.000664139 0.000985998 0)
(-0.000813195 0.000944335 0)
(-0.000951063 0.000883589 0)
(-0.0010742 0.000803183 0)
(-0.00118081 0.000709105 0)
(-0.00126815 0.000600149 0)
(-0.00133598 0.000484553 0)
(-0.00138405 0.000360443 0)
(-0.00141253 0.000235539 0)
(-0.0014237 0.000109651 0)
(-0.00141734 -1.31715e-05 0)
(-0.00139309 -0.000132485 0)
(-0.00135097 -0.00024655 0)
(-0.00129547 -0.000354604 0)
(-0.00122982 -0.000454809 0)
(-0.00115474 -0.000546359 0)
(-0.00107172 -0.000628539 0)
(-0.000982038 -0.000700841 0)
(-0.000886796 -0.000762898 0)
(-0.000787333 -0.00081461 0)
(-0.000684673 -0.000855713 0)
(-0.000580158 -0.000886507 0)
(-0.000474773 -0.000906914 0)
(-0.000369408 -0.000917302 0)
(-0.000265002 -0.000917673 0)
(-0.000162646 -0.000908862 0)
(-6.34046e-05 -0.000890644 0)
(3.16278e-05 -0.000863845 0)
(0.00012279 -0.000828623 0)
(0.000208534 -0.000785636 0)
(0.000288165 -0.000735218 0)
(0.000361724 -0.000678057 0)
(0.000427678 -0.000614741 0)
(0.000485942 -0.000546085 0)
(0.000536315 -0.000472651 0)
(0.000578134 -0.000395368 0)
(0.000610859 -0.000315005 0)
(0.000634066 -0.000232473 0)
(0.000647606 -0.000148799 0)
(0.000651614 -6.45887e-05 0)
(0.000646071 1.88844e-05 0)
(0.000631479 0.00010097 0)
(0.000607339 0.000180356 0)
(0.000573801 0.000256274 0)
(0.000531438 0.000327521 0)
(0.0004807 0.000393313 0)
(0.000422313 0.000452584 0)
(0.000357016 0.000504529 0)
(0.000285558 0.000548317 0)
(0.000209076 0.000583257 0)
(0.00012867 0.000608671 0)
(4.53356e-05 0.000624157 0)
(-3.96197e-05 0.000629258 0)
(-0.000124708 0.00062383 0)
(-0.000208463 0.000607716 0)
(-0.00028972 0.000581057 0)
(-0.000366982 0.000544129 0)
(-0.000438775 0.000497362 0)
(-0.000503783 0.000441475 0)
(-0.000560629 0.000377317 0)
(-0.000608184 0.000305904 0)
(-0.000645248 0.000228554 0)
(-0.000670793 0.00014647 0)
(-0.000684044 6.11052e-05 0)
(-0.000684874 -2.56512e-05 0)
(-0.000672703 -0.000112316 0)
(-0.000647671 -0.000196998 0)
(-0.000610158 -0.000277952 0)
(-0.000560322 -0.000353271 0)
(-0.000499094 -0.000421245 0)
(-0.000427569 -0.000480186 0)
(-0.000347258 -0.000528584 0)
(-0.000259703 -0.000565024 0)
(-0.000166899 -0.000588523 0)
(-7.09527e-05 -0.000598216 0)
(2.59331e-05 -0.000593661 0)
(0.000121274 -0.000574688 0)
(0.000212515 -0.000541649 0)
(0.000297269 -0.000495044 0)
(0.000373438 -0.000435701 0)
(0.000438687 -0.000365559 0)
(0.000491012 -0.000285809 0)
(0.000528857 -0.000199119 0)
(0.000550652 -0.000107733 0)
(0.000555304 -1.42524e-05 0)
(0.000543143 7.83022e-05 0)
(0.000514681 0.000167352 0)
(0.000469893 0.000249947 0)
(0.000410482 0.000323222 0)
(0.00033797 0.000384744 0)
(0.00025491 0.000432072 0)
(0.000164129 0.000463661 0)
(6.84929e-05 0.000478144 0)
(-2.81266e-05 0.00047494 0)
(-0.000122206 0.000453879 0)
(-0.000209884 0.000415936 0)
(-0.000287977 0.000362215 0)
(-0.000353217 0.000295041 0)
(-0.000403052 0.000216936 0)
(-0.000434944 0.00013119 0)
(-0.000447487 4.14815e-05 0)
(-0.000440646 -4.79639e-05 0)
(-0.000414254 -0.000133439 0)
(-0.000369587 -0.000211213 0)
(-0.000308696 -0.000276982 0)
(-0.000234627 -0.000328284 0)
(-0.000150748 -0.000361965 0)
(-6.14159e-05 -0.000376777 0)
(2.86407e-05 -0.000371698 0)
(0.000114672 -0.000347113 0)
(0.000191865 -0.000304772 0)
(0.000256298 -0.000246641 0)
(0.000304299 -0.000176512 0)
(0.000333236 -9.80951e-05 0)
(0.000341498 -1.65135e-05 0)
(0.000328772 6.3343e-05 0)
(0.000296474 0.000136935 0)
(0.000246556 0.000199301 0)
(0.000182266 0.000246996 0)
(0.000108405 0.000276579 0)
(2.94156e-05 0.000286708 0)
(-4.87196e-05 0.000276649 0)
(-0.000120063 0.00024774 0)
(-0.000180031 0.000202651 0)
(-0.000224573 0.000144767 0)
(-0.000250773 7.88966e-05 0)
(-0.000256881 1.02766e-05 0)
(-0.000243258 -5.53373e-05 0)
(-0.000211802 -0.000113075 0)
(-0.000165346 -0.000158565 0)
(-0.00010854 -0.000188172 0)
(-4.66937e-05 -0.000200347 0)
(1.48898e-05 -0.000194278 0)
(7.02559e-05 -0.000171913 0)
(0.000114522 -0.000136112 0)
(0.000144444 -9.11921e-05 0)
(0.00015799 -4.23423e-05 0)
(0.000155084 5.23436e-06 0)
(0.000137323 4.65415e-05 0)
(0.000108007 7.74499e-05 0)
(7.1482e-05 9.52653e-05 0)
(3.27448e-05 9.88377e-05 0)
(-3.04462e-06 8.8853e-05 0)
(-3.151e-05 6.78189e-05 0)
(-4.92791e-05 3.93334e-05 0)
(-5.48956e-05 7.95901e-06 0)
(-4.85344e-05 -2.17936e-05 0)
(-3.19515e-05 -4.58442e-05 0)
(-7.29727e-06 -6.11859e-05 0)
(2.10869e-05 -6.61132e-05 0)
(4.78019e-05 -5.98418e-05 0)
(6.94675e-05 -4.41258e-05 0)
(8.32287e-05 -2.1563e-05 0)
(8.71523e-05 4.50615e-06 0)
(8.0755e-05 3.04587e-05 0)
(6.50042e-05 5.27924e-05 0)
(4.20755e-05 6.87467e-05 0)
(1.48363e-05 7.64723e-05 0)
(-1.37112e-05 7.4955e-05 0)
(-3.9732e-05 6.51117e-05 0)
(-6.00108e-05 4.83105e-05 0)
(-7.28455e-05 2.68024e-05 0)
(-7.70762e-05 3.22843e-06 0)
(-7.26163e-05 -1.96556e-05 0)
(-6.0362e-05 -3.94582e-05 0)
(-4.19889e-05 -5.43158e-05 0)
(-1.97403e-05 -6.29977e-05 0)
(4.23307e-06 -6.50475e-05 0)
(2.73745e-05 -6.07212e-05 0)
(4.73125e-05 -5.08521e-05 0)
(6.26015e-05 -3.67636e-05 0)
(7.20894e-05 -1.99971e-05 0)
(7.52226e-05 -2.14526e-06 0)
(7.20317e-05 1.52449e-05 0)
(6.29947e-05 3.08688e-05 0)
(4.89632e-05 4.35956e-05 0)
(3.10658e-05 5.26164e-05 0)
(1.06524e-05 5.73012e-05 0)
(0.000115947 -0.00134164 0)
(0.000348192 -0.0013019 0)
(0.000575707 -0.00121604 0)
(0.000797812 -0.00108722 0)
(0.00100498 -0.000914332 0)
(0.00120028 -0.000702589 0)
(0.00137013 -0.000447287 0)
(0.00151991 -0.000165941 0)
(0.00163836 0.000151554 0)
(0.00171496 0.000474119 0)
(0.00175043 0.00080171 0)
(0.00173338 0.00111621 0)
(0.00167177 0.00141412 0)
(0.00156402 0.00168579 0)
(0.00141563 0.00192697 0)
(0.00123021 0.00213228 0)
(0.00101314 0.00229809 0)
(0.000768107 0.00242155 0)
(0.000503963 0.00250049 0)