/*--------------------------------*- C++ -*----------------------------------*\
  =========                 |
  \\      /  F ield         | OpenFOAM: The Open Source CFD Toolbox
   \\    /   O peration     | Website:  https://openfoam.org
    \\  /    A nd           | Version:  12
     \\/     M anipulation  |
\*---------------------------------------------------------------------------*/
FoamFile
{
    format      ascii;
    class       volVectorField;
    location    "12.28";
    object      U;
}
// * * * * * * * * * * * * * * * * * * * * * * * * * * * * * * * * * * * * * //

dimensions      [0 1 -1 0 0 0 0];

internalField   nonuniform List<vector> 
3829
(
(-5.92662e-06 -0.000217511 0)
(-1.85274e-05 -0.000227238 0)
(-3.0781e-05 -0.000226246 0)
(-4.37841e-05 -0.000224479 0)
(-5.71091e-05 -0.000222115 0)
(-7.10585e-05 -0.000219153 0)
(-8.56351e-05 -0.000215615 0)
(-0.000100996 -0.000211526 0)
(-0.000117193 -0.000206918 0)
(-0.000134327 -0.000201847 0)
(-0.000152383 -0.000196359 0)
(-0.000171407 -0.000190523 0)
(-0.000191514 -0.000184408 0)
(-0.000212632 -0.000178084 0)
(-0.000234727 -0.000171633 0)
(-0.00025775 -0.00016514 0)
(-0.000281638 -0.000158682 0)
(-0.000306289 -0.000152345 0)
(-0.000331579 -0.000146211 0)
(-0.000357353 -0.000140345 0)
(-0.000383443 -0.000134827 0)
(-0.000409669 -0.000129707 0)
(-0.000435884 -0.000125046 0)
(-0.00046176 -0.000120873 0)
(-0.000487037 -0.000117233 0)
(-0.000511451 -0.000114151 0)
(-0.000534958 -0.000111636 0)
(-0.000557289 -0.000109673 0)
(-0.000577969 -0.000108246 0)
(-0.000596961 -0.000107358 0)
(-0.000614035 -0.000106959 0)
(-0.000628887 -0.00010702 0)
(-0.000641511 -0.00010748 0)
(-0.000651551 -0.000108309 0)
(-0.00065906 -0.000109414 0)
(-0.00066389 -0.000110683 0)
(-0.000665828 -0.000112113 0)
(-0.000664842 -0.000113521 0)
(-0.000660542 -0.000115004 0)
(-0.000653096 -0.000116523 0)
(-0.000642611 -0.000118076 0)
(-0.000629199 -0.000119624 0)
(-0.000613039 -0.000121083 0)
(-0.00059427 -0.000122392 0)
(-0.000573029 -0.000123484 0)
(-0.000549481 -0.000124286 0)
(-0.00052376 -0.000124737 0)
(-0.000496066 -0.000124784 0)
(-0.000466589 -0.00012439 0)
(-0.000435539 -0.000123496 0)
(-0.000403234 -0.000122114 0)
(-0.000369907 -0.000120156 0)
(-0.000335983 -0.00011768 0)
(-0.000301542 -0.000114583 0)
(-0.000267115 -0.000110949 0)
(-0.00023272 -0.000106655 0)
(-0.000198774 -0.000101899 0)
(-0.000166086 -9.64962e-05 0)
(-0.000134635 -9.0626e-05 0)
(-0.000104538 -8.41231e-05 0)
(-7.61363e-05 -7.72731e-05 0)
(-5.00305e-05 -6.99864e-05 0)
(-2.62937e-05 -6.23545e-05 0)
(-5.44997e-06 -5.44171e-05 0)
(1.2418e-05 -4.61965e-05 0)
(2.73959e-05 -3.78162e-05 0)
(3.91047e-05 -2.93225e-05 0)
(4.7715e-05 -2.08259e-05 0)
(5.27202e-05 -1.24528e-05 0)
(5.39925e-05 -4.23947e-06 0)
(5.1626e-05 3.65442e-06 0)
(4.55949e-05 1.11473e-05 0)
(3.64136e-05 1.81608e-05 0)
(2.39027e-05 2.45579e-05 0)
(8.34808e-06 3.03137e-05 0)
(-9.90345e-06 3.53066e-05 0)
(-3.02853e-05 3.94822e-05 0)
(-5.26795e-05 4.26047e-05 0)
(-7.63918e-05 4.48463e-05 0)
(-0.000101066 4.59698e-05 0)
(-0.000126339 4.60952e-05 0)
(-0.000151308 4.51121e-05 0)
(-0.000175694 4.30431e-05 0)
(-0.000198895 3.99404e-05 0)
(-0.000220282 3.58157e-05 0)
(-0.000239133 3.0759e-05 0)
(-0.000254959 2.48565e-05 0)
(-0.000267337 1.82035e-05 0)
(-0.000275893 1.09452e-05 0)
(-0.000280148 3.23037e-06 0)
(-0.000279492 -4.7368e-06 0)
(-0.000273526 -1.28106e-05 0)
(-0.0002624 -2.08174e-05 0)
(-0.000246241 -2.85515e-05 0)
(-0.000225286 -3.58398e-05 0)
(-0.000199856 -4.24579e-05 0)
(-0.000170297 -4.82171e-05 0)
(-0.000137183 -5.29432e-05 0)
(-0.000101106 -5.64605e-05 0)
(-6.29389e-05 -5.86581e-05 0)
(-2.34079e-05 -5.93841e-05 0)
(1.65074e-05 -5.86427e-05 0)
(5.56612e-05 -5.6364e-05 0)
(9.30292e-05 -5.25946e-05 0)
(0.000127617 -4.73664e-05 0)
(0.00015834 -4.0848e-05 0)
(0.000184244 -3.3114e-05 0)
(0.000204531 -2.4483e-05 0)
(0.000218396 -1.50652e-05 0)
(0.000225446 -5.27624e-06 0)
(0.000224947 4.70773e-06 0)
(0.000216549 1.44096e-05 0)
(0.000200709 2.36505e-05 0)
(0.000178073 3.2072e-05 0)
(0.000149239 3.93423e-05 0)
(0.000115122 4.51878e-05 0)
(7.66576e-05 4.93495e-05 0)
(3.52326e-05 5.16962e-05 0)
(-7.52798e-06 5.20889e-05 0)
(-5.01839e-05 5.04729e-05 0)
(-9.07439e-05 4.69375e-05 0)
(-0.000127814 4.15172e-05 0)
(-0.000159951 3.45493e-05 0)
(-0.000185609 2.62348e-05 0)
(-0.000203834 1.69536e-05 0)
(-0.000213818 7.14056e-06 0)
(-0.000214766 -2.74748e-06 0)
(-0.000206595 -1.2286e-05 0)
(-0.000189961 -2.09652e-05 0)
(-0.000165794 -2.84266e-05 0)
(-0.000135373 -3.42367e-05 0)
(-0.000100282 -3.8094e-05 0)
(-6.22866e-05 -3.9795e-05 0)
(-2.34843e-05 -3.92792e-05 0)
(1.38849e-05 -3.65329e-05 0)
(4.76933e-05 -3.17715e-05 0)
(7.59757e-05 -2.52762e-05 0)
(9.70875e-05 -1.74887e-05 0)
(0.000109977 -8.80462e-06 0)
(0.000113675 -9.12406e-10 0)
(0.000107837 8.50138e-06 0)
(9.33617e-05 1.6085e-05 0)
(7.14362e-05 2.226e-05 0)
(4.38011e-05 2.65634e-05 0)
(1.21242e-05 2.86993e-05 0)
(-2.08152e-05 2.84552e-05 0)
(-5.17638e-05 2.59324e-05 0)
(-7.87136e-05 2.12837e-05 0)
(-9.9406e-05 1.50076e-05 0)
(-0.000112135 7.47856e-06 0)
(-0.000115589 -5.01916e-07 0)
(-0.00010916 -8.34122e-06 0)
(-9.35931e-05 -1.53353e-05 0)
(-7.03514e-05 -2.09111e-05 0)
(-4.13712e-05 -2.4472e-05 0)
(-8.80907e-06 -2.5848e-05 0)
(2.37875e-05 -2.46686e-05 0)
(5.32536e-05 -2.12724e-05 0)
(7.7038e-05 -1.59197e-05 0)
(9.30123e-05 -9.20056e-06 0)
(9.96952e-05 -1.80351e-06 0)
(9.62224e-05 5.48815e-06 0)
(8.31419e-05 1.19871e-05 0)
(6.22382e-05 1.69782e-05 0)
(3.58633e-05 2.00018e-05 0)
(6.4123e-06 2.07444e-05 0)
(-2.24256e-05 1.91531e-05 0)
(-4.71672e-05 1.55611e-05 0)
(-6.55725e-05 1.04251e-05 0)
(-7.58559e-05 4.46494e-06 0)
(-7.70342e-05 -1.59262e-06 0)
(-6.94687e-05 -7.00404e-06 0)
(-5.47085e-05 -1.11303e-05 0)
(-3.49992e-05 -1.35527e-05 0)
(-1.31468e-05 -1.40972e-05 0)
(8.13609e-06 -1.27424e-05 0)
(2.60899e-05 -1.00075e-05 0)
(3.87157e-05 -6.33471e-06 0)
(4.50683e-05 -2.38255e-06 0)
(4.52008e-05 1.24949e-06 0)
(3.99348e-05 4.08136e-06 0)
(3.10541e-05 5.7825e-06 0)
(2.04425e-05 6.29284e-06 0)
(1.00849e-05 5.74114e-06 0)
(1.40396e-06 4.44632e-06 0)
(-4.65044e-06 2.84795e-06 0)
(-7.67391e-06 1.31476e-06 0)
(-8.44859e-06 2.08314e-07 0)
(-7.68869e-06 -2.95408e-07 0)
(-6.85034e-06 -2.247e-07 0)
(-6.68991e-06 3.35354e-07 0)
(-8.33164e-06 1.01732e-06 0)
(-1.17531e-05 1.68333e-06 0)
(-1.57845e-05 1.86442e-06 0)
(-1.96906e-05 1.51043e-06 0)
(-2.21534e-05 5.91343e-07 0)
(-2.2182e-05 -7.19525e-07 0)
(-1.91009e-05 -2.1541e-06 0)
(-1.3e-05 -3.37992e-06 0)
(-4.62519e-06 -4.09653e-06 0)
(-1.12319e-06 0.000429898 0)
(-2.7516e-06 0.000438404 0)
(-4.65754e-06 0.000440862 0)
(-7.12242e-06 0.000444392 0)
(-1.04004e-05 0.00044904 0)
(-1.47067e-05 0.000454708 0)
(-2.02711e-05 0.000461287 0)
(-2.73048e-05 0.000468603 0)
(-3.61122e-05 0.00047647 0)
(-4.68915e-05 0.000484675 0)
(-5.96903e-05 0.000492972 0)
(-7.47024e-05 0.00050108 0)
(-9.20145e-05 0.000508647 0)
(-0.000111617 0.000515502 0)
(-0.000133555 0.000521226 0)
(-0.000157695 0.000525656 0)
(-0.000183924 0.000528416 0)
(-0.000212142 0.000529302 0)
(-0.000242036 0.000528059 0)
(-0.000273384 0.000524494 0)
(-0.000305871 0.000518425 0)
(-0.000339172 0.000509722 0)
(-0.000372945 0.000498301 0)
(-0.000406731 0.000484119 0)
(-0.000440232 0.000467197 0)
(-0.000472918 0.000447553 0)
(-0.000504481 0.000425333 0)
(-0.000534469 0.000400682 0)
(-0.000562546 0.000373808 0)
(-0.000588463 0.000344887 0)
(-0.000611799 0.000314207 0)
(-0.000632198 0.000282048 0)
(-0.000649666 0.000248644 0)
(-0.000663684 0.000214352 0)
(-0.000673829 0.000179406 0)
(-0.000680543 0.00014408 0)
(-0.000683214 0.000108677 0)
(-0.000682411 7.35131e-05 0)
(-0.000678628 3.90191e-05 0)
(-0.000671427 5.53597e-06 0)
(-0.000660918 -2.66579e-05 0)
(-0.00064677 -5.73013e-05 0)
(-0.000629056 -8.62656e-05 0)
(-0.000608044 -0.000113306 0)
(-0.000583821 -0.000138288 0)
(-0.000556619 -0.000161045 0)
(-0.000526718 -0.000181445 0)
(-0.000494439 -0.000199353 0)
(-0.000459978 -0.000214715 0)
(-0.000423809 -0.000227384 0)
(-0.000386114 -0.00023734 0)
(-0.000347359 -0.000244493 0)
(-0.00030791 -0.000248977 0)
(-0.000267981 -0.000250541 0)
(-0.000228005 -0.000249497 0)
(-0.000188549 -0.000245565 0)
(-0.000149744 -0.000239237 0)
(-0.000112272 -0.000230209 0)
(-7.62348e-05 -0.000218923 0)
(-4.22173e-05 -0.000205264 0)
(-1.0909e-05 -0.000189727 0)
(1.80259e-05 -0.000172125 0)
(4.39263e-05 -0.000152976 0)
(6.66007e-05 -0.000132295 0)
(8.56031e-05 -0.000110462 0)
(0.000100931 -8.76368e-05 0)
(0.000112297 -6.42334e-05 0)
(0.000119557 -4.05074e-05 0)
(0.000122549 -1.68877e-05 0)
(0.000121032 6.40769e-06 0)
(0.000114934 2.89848e-05 0)
(0.000104596 5.06118e-05 0)
(9.0339e-05 7.0866e-05 0)
(7.2205e-05 8.95059e-05 0)
(5.05787e-05 0.000106159 0)
(2.57095e-05 0.000120491 0)
(-2.25906e-06 0.000132352 0)
(-3.23182e-05 0.000141352 0)
(-6.37569e-05 0.000147381 0)
(-9.64259e-05 0.000150163 0)
(-0.000129471 0.000149776 0)
(-0.000162354 0.000145976 0)
(-0.000194207 0.000138961 0)
(-0.000224474 0.000128592 0)
(-0.000252404 0.000115299 0)
(-0.000277036 9.89818e-05 0)
(-0.000297889 8.01793e-05 0)
(-0.000314362 5.90226e-05 0)
(-0.000325926 3.60503e-05 0)
(-0.000331948 1.17352e-05 0)
(-0.000331869 -1.34339e-05 0)
(-0.000325432 -3.88945e-05 0)
(-0.000312631 -6.40878e-05 0)
(-0.000293629 -8.83715e-05 0)
(-0.000268655 -0.000111163 0)
(-0.000238019 -0.000131843 0)
(-0.000202262 -0.000149779 0)
(-0.000162033 -0.000164448 0)
(-0.000118146 -0.000175341 0)
(-7.15727e-05 -0.000182057 0)
(-2.33955e-05 -0.000184257 0)
(2.51559e-05 -0.000181789 0)
(7.28161e-05 -0.000174574 0)
(0.000118272 -0.000162687 0)
(0.000160205 -0.000146318 0)
(0.000197433 -0.000125867 0)
(0.000228626 -0.00010182 0)
(0.000252919 -7.47618e-05 0)
(0.000269303 -4.55688e-05 0)
(0.000277251 -1.50141e-05 0)
(0.000275936 1.58524e-05 0)
(0.000265052 4.60092e-05 0)
(0.000245417 7.46262e-05 0)
(0.000217343 0.000100603 0)
(0.000181692 0.000123014 0)
(0.000139603 0.000140892 0)
(9.24021e-05 0.000153588 0)
(4.17955e-05 0.000160579 0)
(-1.03969e-05 0.000161462 0)
(-6.21896e-05 0.000156126 0)
(-0.000111389 0.000144786 0)
(-0.000156056 0.000127768 0)
(-0.000194396 0.000105826 0)
(-0.000224816 7.98196e-05 0)
(-0.000245897 5.09011e-05 0)
(-0.000256725 2.03053e-05 0)
(-0.000256591 -1.03664e-05 0)
(-0.000245373 -3.98902e-05 0)
(-0.000223927 -6.67088e-05 0)
(-0.000193407 -8.96825e-05 0)
(-0.000155265 -0.000107388 0)
(-0.000111601 -0.000119072 0)
(-6.46928e-05 -0.000123991 0)
(-1.70343e-05 -0.000121943 0)
(2.85934e-05 -0.000113077 0)
(6.9508e-05 -9.78324e-05 0)
(0.000103348 -7.74147e-05 0)
(0.000128297 -5.28335e-05 0)
(0.000142738 -2.59451e-05 0)
(0.000145727 1.81186e-06 0)
(0.000137294 2.81591e-05 0)
(0.000118272 5.17474e-05 0)
(9.01957e-05 7.07167e-05 0)
(5.52065e-05 8.38311e-05 0)
(1.54526e-05 9.01442e-05 0)
(-2.55751e-05 8.90403e-05 0)
(-6.39928e-05 8.08203e-05 0)
(-9.71431e-05 6.61436e-05 0)
(-0.000122433 4.62582e-05 0)
(-0.000137716 2.27818e-05 0)
(-0.000141387 -2.20036e-06 0)
(-0.000133075 -2.66289e-05 0)
(-0.000113632 -4.82758e-05 0)
(-8.47572e-05 -6.54953e-05 0)
(-4.90737e-05 -7.63926e-05 0)
(-9.13082e-06 -8.02734e-05 0)
(3.07322e-05 -7.64239e-05 0)
(6.63963e-05 -6.55625e-05 0)
(9.4974e-05 -4.87707e-05 0)
(0.000113751 -2.77735e-05 0)
(0.000121033 -4.72818e-06 0)
(0.00011603 1.78689e-05 0)
(9.94619e-05 3.78432e-05 0)
(7.34986e-05 5.31643e-05 0)
(4.11047e-05 6.22337e-05 0)
(5.26735e-06 6.42013e-05 0)
(-2.94335e-05 5.89604e-05 0)
(-5.88464e-05 4.75064e-05 0)
(-8.02584e-05 3.14587e-05 0)
(-9.15839e-05 1.28503e-05 0)
(-9.18764e-05 -5.84239e-06 0)
(-8.16746e-05 -2.24622e-05 0)
(-6.29981e-05 -3.49723e-05 0)
(-3.87189e-05 -4.21442e-05 0)
(-1.21581e-05 -4.34281e-05 0)
(1.31212e-05 -3.89768e-05 0)
(3.38183e-05 -3.01941e-05 0)
(4.78115e-05 -1.86892e-05 0)
(5.4015e-05 -6.40173e-06 0)
(5.27417e-05 4.74441e-06 0)
(4.51657e-05 1.32571e-05 0)
(3.35807e-05 1.82498e-05 0)
(2.04025e-05 1.94512e-05 0)
(8.03411e-06 1.74635e-05 0)
(-1.77733e-06 1.3201e-05 0)
(-8.05641e-06 8.09761e-06 0)
(-1.05138e-05 3.30452e-06 0)
(-1.01627e-05 -7.44998e-08 0)
(-8.14619e-06 -1.54539e-06 0)
(-6.19753e-06 -1.10608e-06 0)
(-5.41515e-06 7.98906e-07 0)
(-6.9636e-06 3.0861e-06 0)
(-1.09008e-05 5.28284e-06 0)
(-1.59533e-05 5.9465e-06 0)
(-2.09359e-05 4.89446e-06 0)
(-2.43125e-05 2.0701e-06 0)
(-2.48114e-05 -1.98911e-06 0)
(-2.16212e-05 -6.44566e-06 0)
(-1.4821e-05 -1.0258e-05 0)
(-5.29212e-06 -1.24661e-05 0)
(4.15144e-06 -0.00014465 0)
(1.23682e-05 -0.000155527 0)
(1.97358e-05 -0.000148086 0)
(2.57459e-05 -0.000136519 0)
(2.97312e-05 -0.000121008 0)
(3.10429e-05 -0.000101703 0)
(2.91596e-05 -7.86246e-05 0)
(2.33974e-05 -5.2081e-05 0)
(1.34905e-05 -2.23214e-05 0)
(-1.02099e-06 9.95984e-06 0)
(-2.04974e-05 4.42714e-05 0)
(-4.56523e-05 7.98081e-05 0)
(-7.56859e-05 0.000115868 0)
(-0.000110841 0.000151709 0)
(-0.000150906 0.000186507 0)
(-0.00019537 0.000219497 0)
(-0.000244337 0.000249907 0)
(-0.000296747 0.000277057 0)
(-0.000352281 0.000300302 0)
(-0.000410215 0.000319075 0)
(-0.000469872 0.000332857 0)
(-0.000530352 0.000341314 0)
(-0.000590901 0.000344258 0)
(-0.00065051 0.000341457 0)
(-0.00070853 0.000333023 0)
(-0.000763921 0.00031893 0)
(-0.000815887 0.000299616 0)
(-0.000863835 0.000275212 0)
(-0.000907199 0.000246308 0)
(-0.000945536 0.000213284 0)
(-0.000978096 0.000176804 0)
(-0.00100498 0.000137291 0)
(-0.00102587 9.55589e-05 0)
(-0.00104048 5.21056e-05 0)
(-0.00104938 7.65247e-06 0)
(-0.00105221 -3.73357e-05 0)
(-0.00104865 -8.19512e-05 0)
(-0.00103822 -0.000126185 0)
(-0.00102068 -0.000169581 0)
(-0.00099705 -0.000211784 0)
(-0.000967948 -0.00025243 0)
(-0.000934266 -0.000291026 0)
(-0.000896308 -0.00032723 0)
(-0.000854246 -0.000360689 0)
(-0.000808648 -0.000391064 0)
(-0.000759731 -0.000418125 0)
(-0.000707855 -0.000441617 0)
(-0.000653624 -0.000461346 0)
(-0.000597186 -0.000477146 0)
(-0.000538972 -0.00048889 0)
(-0.000479567 -0.00049645 0)
(-0.000419915 -0.000499782 0)
(-0.000359723 -0.000498829 0)
(-0.000299853 -0.000493663 0)
(-0.000240716 -0.000484222 0)
(-0.000183097 -0.000470627 0)
(-0.000127313 -0.000452979 0)
(-7.38422e-05 -0.000431559 0)
(-2.34986e-05 -0.000406355 0)
(2.34273e-05 -0.000377732 0)
(6.68785e-05 -0.000345807 0)
(0.000106356 -0.000310966 0)
(0.00014093 -0.000273498 0)
(0.000170773 -0.000233924 0)
(0.000195219 -0.000192548 0)
(0.000214295 -0.000149889 0)
(0.000227335 -0.000106421 0)
(0.000234538 -6.2724e-05 0)
(0.000235676 -1.92682e-05 0)
(0.000230781 2.31567e-05 0)
(0.000219952 6.41511e-05 0)
(0.000203224 0.000103165 0)
(0.000181106 0.000139595 0)
(0.000153675 0.000172881 0)
(0.000121007 0.000202464 0)
(8.42823e-05 0.000227828 0)
(4.38703e-05 0.000248489 0)
(1.81023e-07 0.000264201 0)
(-4.56462e-05 0.000274381 0)
(-9.26473e-05 0.000278842 0)
(-0.000140266 0.000277421 0)
(-0.000187258 0.000269981 0)
(-0.000232937 0.000256684 0)
(-0.000276013 0.000237506 0)
(-0.000315727 0.000212827 0)
(-0.000351068 0.000182968 0)
(-0.000380902 0.000148483 0)
(-0.000404856 0.000110003 0)
(-0.00042159 6.83047e-05 0)
(-0.000430867 2.41604e-05 0)
(-0.000431929 -2.14391e-05 0)
(-0.000424306 -6.74834e-05 0)
(-0.000408011 -0.000112983 0)
(-0.000383214 -0.000156761 0)
(-0.000350346 -0.000197759 0)
(-0.000309699 -0.000234833 0)
(-0.000262013 -0.000266944 0)
(-0.000208297 -0.000293084 0)
(-0.000149577 -0.000312412 0)
(-8.72616e-05 -0.000324208 0)
(-2.2821e-05 -0.00032793 0)
(4.20502e-05 -0.000323237 0)
(0.000105606 -0.000310024 0)
(0.000166121 -0.000288459 0)
(0.00022181 -0.000258896 0)
(0.000270916 -0.000222004 0)
(0.000312071 -0.000178763 0)
(0.000343639 -0.000130272 0)
(0.000364477 -7.80463e-05 0)
(0.000373909 -2.36015e-05 0)
(0.000370776 3.1443e-05 0)
(0.000355394 8.52632e-05 0)
(0.000328228 0.000136087 0)
(0.000289826 0.000182078 0)
(0.00024125 0.0002214 0)
(0.000184171 0.000252792 0)
(0.000120643 0.000274712 0)
(5.26939e-05 0.000286414 0)
(-1.71172e-05 0.000287155 0)
(-8.59857e-05 0.000276842 0)
(-0.000151016 0.00025577 0)
(-0.00020972 0.000224727 0)
(-0.000259622 0.00018491 0)
(-0.000298502 0.000138053 0)
(-0.000324777 8.60369e-05 0)
(-0.000336924 3.13955e-05 0)
(-0.000334353 -2.34111e-05 0)
(-0.000317269 -7.58187e-05 0)
(-0.000286668 -0.000123336 0)
(-0.000243935 -0.00016363 0)
(-0.000191226 -0.000194404 0)
(-0.000131535 -0.000214374 0)
(-6.775e-05 -0.000222052 0)
(-3.63469e-06 -0.000217539 0)
(5.74011e-05 -0.00020049 0)
(0.000111402 -0.000172564 0)
(0.000155485 -0.000135084 0)
(0.000187038 -9.07229e-05 0)
(0.000204392 -4.21781e-05 0)
(0.000206101 7.41835e-06 0)
(0.000192201 5.46608e-05 0)
(0.000164462 9.64789e-05 0)
(0.000124461 0.00012991 0)
(7.55872e-05 0.000152701 0)
(2.06293e-05 0.000163105 0)
(-3.55726e-05 0.000160334 0)
(-8.77508e-05 0.00014476 0)
(-0.000132467 0.000117804 0)
(-0.000166112 8.15454e-05 0)
(-0.000185861 3.91969e-05 0)
(-0.000189918 -5.69961e-06 0)
(-0.000177705 -4.92551e-05 0)
(-0.000150776 -8.79232e-05 0)
(-0.000111277 -0.000118065 0)
(-6.26876e-05 -0.000137104 0)
(-8.94867e-06 -0.000143251 0)
(4.43507e-05 -0.000135743 0)
(9.1546e-05 -0.000115732 0)
(0.000128815 -8.52701e-05 0)
(0.000152692 -4.7517e-05 0)
(0.000160861 -6.34252e-06 0)
(0.000152647 3.38307e-05 0)
(0.000129412 6.90461e-05 0)
(9.38798e-05 9.56721e-05 0)
(5.00702e-05 0.000111008 0)
(2.3564e-06 0.000113738 0)
(-4.32232e-05 0.000103614 0)
(-8.1103e-05 8.25922e-05 0)
(-0.000107882 5.35397e-05 0)
(-0.000120899 2.03485e-05 0)
(-0.000119214 -1.27907e-05 0)
(-0.00010389 -4.18523e-05 0)
(-7.773e-05 -6.33532e-05 0)
(-4.48213e-05 -7.51369e-05 0)
(-9.60369e-06 -7.63758e-05 0)
(2.29936e-05 -6.76207e-05 0)
(4.86479e-05 -5.13017e-05 0)
(6.48955e-05 -3.04578e-05 0)
(7.05782e-05 -8.61384e-06 0)
(6.63795e-05 1.08688e-05 0)
(5.43393e-05 2.53266e-05 0)
(3.76146e-05 3.33599e-05 0)
(1.96715e-05 3.4545e-05 0)
(3.70025e-06 3.01409e-05 0)
(-8.08325e-06 2.192e-05 0)
(-1.45757e-05 1.24134e-05 0)
(-1.57886e-05 3.76878e-06 0)
(-1.322e-05 -2.09468e-06 0)
(-8.71058e-06 -4.37266e-06 0)
(-4.62658e-06 -3.10518e-06 0)
(-2.734e-06 7.69423e-07 0)
(-4.14458e-06 5.30021e-06 0)
(-9.10676e-06 9.52813e-06 0)
(-1.61367e-05 1.09994e-05 0)
(-2.319e-05 9.26267e-06 0)
(-2.8302e-05 4.31549e-06 0)
(-2.9705e-05 -2.8624e-06 0)
(-2.63263e-05 -1.07741e-05 0)
(-1.82071e-05 -1.75305e-05 0)
(-6.52176e-06 -2.14743e-05 0)
(2.65155e-05 0.000282972 0)
(8.07617e-05 0.000297421 0)
(0.000134063 0.000318966 0)
(0.00018564 0.000351042 0)
(0.000234155 0.00039344 0)
(0.000278942 0.00044512 0)
(0.000318739 0.000505394 0)
(0.000351946 0.000572084 0)
(0.000375983 0.000644349 0)
(0.000389238 0.000719454 0)
(0.000391307 0.000796237 0)
(0.000380883 0.000872403 0)
(0.000358679 0.000946488 0)
(0.000324265 0.00101628 0)
(0.000277782 0.00108043 0)
(0.000219997 0.00113696 0)
(0.000151791 0.00118463 0)
(7.44261e-05 0.00122212 0)
(-1.0896e-05 0.00124829 0)
(-0.000102942 0.00126219 0)
(-0.000199732 0.00126329 0)
(-0.000298893 0.00125128 0)
(-0.000399382 0.00122619 0)
(-0.000498996 0.00118815 0)
(-0.000596254 0.00113802 0)
(-0.000688875 0.00107629 0)
(-0.000775704 0.0010046 0)
(-0.00085564 0.000923781 0)
(-0.000927192 0.000836031 0)
(-0.000989854 0.00074222 0)
(-0.00104319 0.000644307 0)
(-0.00108642 0.000543396 0)
(-0.00111932 0.000440974 0)
(-0.00114213 0.000338066 0)
(-0.00115496 0.000235799 0)
(-0.00115741 0.00013495 0)
(-0.00115117 3.6757e-05 0)
(-0.0011389 -5.75694e-05 0)
(-0.00111945 -0.000147418 0)
(-0.00109312 -0.00023228 0)
(-0.00105961 -0.000311771 0)
(-0.00101899 -0.000385566 0)
(-0.000972089 -0.000453255 0)
(-0.000919305 -0.000514599 0)
(-0.000861419 -0.000569306 0)
(-0.000799105 -0.000617232 0)
(-0.000732861 -0.000658199 0)
(-0.000663468 -0.000692114 0)
(-0.000591447 -0.00071886 0)
(-0.000517454 -0.000738475 0)
(-0.000442059 -0.000750953 0)
(-0.000366099 -0.000756303 0)
(-0.000290311 -0.0007546 0)
(-0.000214966 -0.000745923 0)
(-0.000140652 -0.000730601 0)
(-6.85765e-05 -0.000708699 0)
(5.54925e-07 -0.000680409 0)
(6.65507e-05 -0.000646213 0)
(0.000128984 -0.00060611 0)
(0.000186854 -0.000560773 0)
(0.000239571 -0.000510465 0)
(0.000286822 -0.000455848 0)
(0.000327549 -0.000397322 0)
(0.00036164 -0.000335675 0)
(0.000388726 -0.000271428 0)
(0.00040831 -0.000205472 0)
(0.000419993 -0.000138451 0)
(0.000423834 -7.1114e-05 0)
(0.000419111 -4.48761e-06 0)
(0.000405941 6.07255e-05 0)
(0.000385157 0.0001236 0)
(0.000356578 0.000183242 0)
(0.000320622 0.000238777 0)
(0.000277534 0.000289235 0)
(0.000227974 0.000333893 0)
(0.000172638 0.000372016 0)
(0.00011256 0.00040278 0)
(4.84865e-05 0.000425697 0)
(-1.85911e-05 0.000440259 0)
(-8.71451e-05 0.000445925 0)
(-0.00015618 0.000442377 0)
(-0.000224151 0.000429709 0)
(-0.000289898 0.0004078 0)
(-0.000352206 0.000377086 0)
(-0.000409415 0.000337759 0)
(-0.000460165 0.000290697 0)
(-0.000503187 0.000236405 0)
(-0.000537421 0.000176088 0)
(-0.000561986 0.000110885 0)
(-0.000575911 4.19281e-05 0)
(-0.000578162 -2.89132e-05 0)
(-0.000568654 -0.000100461 0)
(-0.000547136 -0.000170959 0)
(-0.000513767 -0.000238768 0)
(-0.000469097 -0.000302097 0)
(-0.000413653 -0.000359229 0)
(-0.000348489 -0.000408582 0)
(-0.000274929 -0.000448626 0)
(-0.000194611 -0.000478121 0)
(-0.000109375 -0.000495897 0)
(-2.13058e-05 -0.000501235 0)
(6.72885e-05 -0.000493551 0)
(0.00015393 -0.000472765 0)
(0.000236255 -0.000439114 0)
(0.000311872 -0.000393332 0)
(0.000378274 -0.000336365 0)
(0.000433334 -0.000269607 0)
(0.000475138 -0.000195044 0)
(0.000501998 -0.000114627 0)
(0.000513375 -3.0861e-05 0)
(0.000508013 5.33929e-05 0)
(0.000485615 0.000135704 0)
(0.000447169 0.00021299 0)
(0.000393153 0.000282816 0)
(0.000325786 0.000342222 0)
(0.000247028 0.000389355 0)
(0.000159451 0.000421765 0)
(6.64406e-05 0.000438336 0)
(-2.88242e-05 0.000438168 0)
(-0.000122319 0.000420975 0)
(-0.000210205 0.000387435 0)
(-0.000288959 0.000338708 0)
(-0.000355158 0.000276769 0)
(-0.000406123 0.000204122 0)
(-0.000439297 0.000124057 0)
(-0.000452952 4.01036e-05 0)
(-0.000446633 -4.38612e-05 0)
(-0.000420516 -0.000123828 0)
(-0.000376128 -0.000195967 0)
(-0.000315245 -0.000256629 0)
(-0.000241342 -0.000302504 0)
(-0.000158099 -0.000331516 0)
(-7.0168e-05 -0.000341517 0)
(1.79466e-05 -0.000332878 0)
(0.000101013 -0.000305083 0)
(0.000173739 -0.000260609 0)
(0.000232365 -0.000201933 0)
(0.000273132 -0.000132866 0)
(0.000294036 -5.76198e-05 0)
(0.000293358 1.86562e-05 0)
(0.000271538 9.10717e-05 0)
(0.000230458 0.000154657 0)
(0.000173096 0.000205232 0)
(0.000103679 0.000239035 0)
(2.66049e-05 0.00025369 0)
(-5.15001e-05 0.000247893 0)
(-0.000123628 0.000222545 0)
(-0.000184866 0.000179918 0)
(-0.000230328 0.000123327 0)
(-0.000256146 5.76883e-05 0)
(-0.000260136 -1.16183e-05 0)
(-0.000242221 -7.85456e-05 0)
(-0.000203979 -0.000137454 0)
(-0.000148659 -0.000182931 0)
(-8.14981e-05 -0.000211136 0)
(-7.56859e-06 -0.000219379 0)
(6.50454e-05 -0.000206755 0)
(0.00012875 -0.00017508 0)
(0.000178354 -0.000127651 0)
(0.000209178 -6.92506e-05 0)
(0.000218303 -6.15014e-06 0)
(0.000205177 5.50305e-05 0)
(0.000171806 0.000108236 0)
(0.000122092 0.000147852 0)
(6.18656e-05 0.000170039 0)
(-2.94164e-06 0.000172777 0)
(-6.40617e-05 0.000155959 0)
(-0.000113976 0.00012274 0)
(-0.000148064 7.76541e-05 0)
(-0.00016306 2.66591e-05 0)
(-0.000158174 -2.36098e-05 0)
(-0.000135001 -6.70983e-05 0)
(-9.7757e-05 -9.86178e-05 0)
(-5.22473e-05 -0.000114998 0)
(-4.63792e-06 -0.000115226 0)
(3.82315e-05 -0.000100364 0)
(7.06859e-05 -7.42603e-05 0)
(8.97227e-05 -4.17746e-05 0)
(9.41651e-05 -8.43968e-06 0)
(8.53755e-05 2.06416e-05 0)
(6.65856e-05 4.15714e-05 0)
(4.23165e-05 5.2292e-05 0)
(1.75025e-05 5.26013e-05 0)
(-3.47002e-06 4.43678e-05 0)
(-1.77978e-05 3.07064e-05 0)
(-2.42973e-05 1.55414e-05 0)
(-2.33702e-05 2.23472e-06 0)
(-1.7319e-05 -6.44997e-06 0)
(-9.0608e-06 -9.33748e-06 0)
(-1.84039e-06 -6.5389e-06 0)
(1.65846e-06 1.38237e-07 0)
(3.3358e-07 7.84003e-06 0)
(-6.19805e-06 1.46361e-05 0)
(-1.61665e-05 1.74594e-05 0)
(-2.63197e-05 1.50035e-05 0)
(-3.39763e-05 7.60769e-06 0)
(-3.67066e-05 -3.28144e-06 0)
(-3.30594e-05 -1.5272e-05 0)
(-2.30776e-05 -2.55758e-05 0)
(-8.3125e-06 -3.15464e-05 0)
(7.42374e-05 -0.000857192 0)
(0.000223112 -0.000861071 0)
(0.00036828 -0.000825871 0)
(0.000505986 -0.000772333 0)
(0.000631213 -0.000699798 0)
(0.000740895 -0.000610571 0)
(0.000828453 -0.000501671 0)
(0.000891931 -0.000378646 0)
(0.000927255 -0.000236385 0)
(0.000933738 -8.20493e-05 0)
(0.000913906 8.38669e-05 0)
(0.000865991 0.000253378 0)
(0.000791675 0.00042397 0)
(0.000692088 0.00058976 0)
(0.00056962 0.000747645 0)
(0.000426012 0.000893235 0)
(0.000265804 0.00102336 0)
(9.09265e-05 0.00113522 0)
(-9.61071e-05 0.00122582 0)
(-0.000290692 0.00129311 0)
(-0.000488445 0.00133674 0)
(-0.00068561 0.00135531 0)
(-0.000879145 0.00134997 0)
(-0.00106381 0.00131929 0)
(-0.00123742 0.00126732 0)
(-0.00139533 0.00119221 0)
(-0.00153538 0.00110184 0)
(-0.00165473 0.000991997 0)
(-0.00175327 0.000875201 0)
(-0.00183175 0.000746147 0)
(-0.00188915 0.000614636 0)
(-0.00192779 0.00047846 0)
(-0.00194823 0.000342515 0)
(-0.00195206 0.000207746 0)
(-0.0019413 7.65435e-05 0)
(-0.00191564 -5.02699e-05 0)
(-0.00187369 -0.000172432 0)
(-0.0018184 -0.000289232 0)
(-0.0017525 -0.00039984 0)
(-0.00167792 -0.000503508 0)
(-0.00159597 -0.000599473 0)
(-0.00150737 -0.000687571 0)
(-0.00141289 -0.000767193 0)
(-0.00131325 -0.000838461 0)
(-0.00120942 -0.000900852 0)
(-0.00110218 -0.000954469 0)
(-0.000992087 -0.000998975 0)
(-0.000880007 -0.00103454 0)
(-0.000766616 -0.0010609 0)
(-0.000652772 -0.00107803 0)
(-0.000538942 -0.00108603 0)
(-0.000426277 -0.00108496 0)
(-0.000314879 -0.00107482 0)
(-0.000206342 -0.00105564 0)
(-0.000101016 -0.00102779 0)
(8.2288e-07 -0.000991518 0)
(9.7465e-05 -0.000946791 0)
(0.000189171 -0.000894106 0)
(0.000274624 -0.000833889 0)
(0.000352664 -0.000766753 0)
(0.000423373 -0.000693012 0)
(0.000485913 -0.000613543 0)
(0.00053914 -0.000529105 0)
(0.000582887 -0.000440373 0)
(0.000616366 -0.000348463 0)
(0.000639306 -0.000254205 0)
(0.000651666 -0.000158702 0)
(0.000652682 -6.30513e-05 0)
(0.000642421 3.1287e-05 0)
(0.000621311 0.000123553 0)
(0.00058913 0.000212349 0)
(0.000546302 0.00029634 0)
(0.000493231 0.000374262 0)
(0.000430535 0.000444941 0)
(0.000359227 0.000507223 0)
(0.000280294 0.000559985 0)
(0.000194921 0.000602256 0)
(0.000104517 0.000633214 0)
(1.01554e-05 0.000651916 0)
(-8.65878e-05 0.000658058 0)
(-0.000183424 0.000651164 0)
(-0.000278582 0.000631184 0)
(-0.000370492 0.000598127 0)
(-0.000457135 0.000552411 0)
(-0.00053664 0.000494679 0)
(-0.000607303 0.000425781 0)
(-0.000667382 0.000346868 0)
(-0.000715047 0.000259336 0)
(-0.000749358 0.000164925 0)
(-0.000768541 6.54705e-05 0)
(-0.000771931 -3.67046e-05 0)
(-0.000759633 -0.000139618 0)
(-0.000730812 -0.000240825 0)
(-0.000685801 -0.000338073 0)
(-0.000625167 -0.000428677 0)
(-0.000549915 -0.000510303 0)
(-0.000461446 -0.00058051 0)
(-0.00036174 -0.000637313 0)
(-0.000252808 -0.000678836 0)
(-0.000137346 -0.000703615 0)
(-1.81974e-05 -0.000710558 0)
(0.000101535 -0.000698806 0)
(0.000218377 -0.000668518 0)
(0.000328967 -0.000619758 0)
(0.000430165 -0.000553689 0)
(0.000519018 -0.000471931 0)
(0.000592265 -0.00037647 0)
(0.000647424 -0.00026979 0)
(0.000682618 -0.000155328 0)
(0.000695804 -3.61478e-05 0)
(0.000686301 8.30897e-05 0)
(0.000654304 0.00019988 0)
(0.000600635 0.000308913 0)
(0.000526422 0.000407163 0)
(0.000434127 0.000490463 0)
(0.000326595 0.000555653 0)
(0.00020743 0.000600094 0)
(8.15864e-05 0.000621867 0)
(-4.68653e-05 0.000619697 0)
(-0.000172372 0.000593467 0)
(-0.000289654 0.00054404 0)
(-0.000394183 0.000473076 0)
(-0.000481438 0.000383892 0)
(-0.000547372 0.000279395 0)
(-0.000589066 0.000165269 0)
(-0.000604439 4.56225e-05 0)
(-0.000592577 -7.33151e-05 0)
(-0.000554179 -0.000186524 0)
(-0.000491213 -0.000287733 0)
(-0.000406233 -0.000372316 0)
(-0.000304134 -0.000435668 0)
(-0.000189874 -0.000474624 0)
(-7.01269e-05 -0.000487147 0)
(4.89091e-05 -0.000471449 0)
(0.000160784 -0.000430039 0)
(0.000257454 -0.000364537 0)
(0.000334418 -0.000279475 0)
(0.000386931 -0.000179643 0)
(0.000411927 -7.18279e-05 0)
(0.00040749 3.67236e-05 0)
(0.000374378 0.000139546 0)
(0.000315676 0.000229321 0)
(0.000235029 0.000299969 0)
(0.000138469 0.000346093 0)
(3.2195e-05 0.000365093 0)
(-7.46831e-05 0.000354744 0)
(-0.000172453 0.000316946 0)
(-0.000254821 0.000254526 0)
(-0.000315203 0.000172644 0)
(-0.000348634 7.81593e-05 0)
(-0.000352404 -2.09043e-05 0)
(-0.000326144 -0.000116118 0)
(-0.000272574 -0.00019921 0)
(-0.000196344 -0.000262835 0)
(-0.000104423 -0.000301386 0)
(-4.24586e-06 -0.00031154 0)
(9.34314e-05 -0.000291847 0)
(0.000178379 -0.000245339 0)
(0.000243753 -0.00017687 0)
(0.000283212 -9.33053e-05 0)
(0.000292911 -3.71819e-06 0)
(0.00027285 8.28085e-05 0)
(0.0002259 0.000157207 0)
(0.000157468 0.00021189 0)
(7.55496e-05 0.000241438 0)
(-1.15623e-05 0.00024323 0)
(-9.26503e-05 0.000217426 0)
(-0.000157712 0.000168745 0)
(-0.000200882 0.000103953 0)
(-0.000217856 3.1448e-05 0)
(-0.000208025 -3.92619e-05 0)
(-0.000174193 -9.95794e-05 0)
(-0.000122191 -0.00014226 0)
(-6.01805e-05 -0.000163135 0)
(3.45208e-06 -0.000160965 0)
(5.94495e-05 -0.000137787 0)
(0.000100293 -9.91975e-05 0)
(0.000122316 -5.24039e-05 0)
(0.000124462 -5.28278e-06 0)
(0.000109117 3.49448e-05 0)
(8.11396e-05 6.28576e-05 0)
(4.69326e-05 7.58873e-05 0)
(1.32584e-05 7.40172e-05 0)
(-1.40374e-05 6.03315e-05 0)
(-3.12354e-05 3.95375e-05 0)
(-3.72213e-05 1.71727e-05 0)
(-3.31108e-05 -1.75453e-06 0)
(-2.22626e-05 -1.36224e-05 0)
(-8.83998e-06 -1.68291e-05 0)
(2.51541e-06 -1.15253e-05 0)
(8.02356e-06 -1.01057e-06 0)
(6.59652e-06 1.0861e-05 0)
(-2.05208e-06 2.08955e-05 0)
(-1.5866e-05 2.56134e-05 0)
(-3.02402e-05 2.2389e-05 0)
(-4.12508e-05 1.2093e-05 0)
(-4.57316e-05 -3.17515e-06 0)
(-4.17725e-05 -2.00836e-05 0)
(-2.93669e-05 -3.45736e-05 0)
(-1.05887e-05 -4.29974e-05 0)
(0.000133896 -0.00138425 0)
(0.000403659 -0.00134266 0)
(0.000668908 -0.00124352 0)
(0.000931605 -0.00109453 0)
(0.00117905 -0.000892535 0)
(0.00141886 -0.000644532 0)
(0.00163019 -0.000339919 0)
(0.00182436 -3.97822e-06 0)
(0.00198006 0.000384659 0)
(0.0020764 0.000773467 0)
(0.00212457 0.00116556 0)
(0.00211019 0.00153968 0)
(0.00204232 0.00189385 0)
(0.00191929 0.0022163 0)
(0.00174933 0.0025022 0)
(0.00153421 0.00274585 0)
(0.00128287 0.00294373 0)