#           v             n
     0.523599             0
     0.648652             0
     0.790112             0
     0.953116             0
      1.13449             0
      1.34047             0
      1.56672             0
      1.82069             0
      2.09677   3.11874e-05
      2.40376   0.000247313
      2.73462   0.000995003
      3.09966    0.00243482
      3.49026    0.00452605
      3.91837    0.00650084
      4.37366    0.00793404
      4.86986    0.00774052
       5.3948     0.0062703
      5.96412    0.00401953
      6.56366    0.00214014
      7.21112   0.000920405
      7.89023    0.00033581
      8.62085   0.000101592
      9.38447   2.66491e-05
      10.2033   5.92664e-06
      11.0564   1.16365e-06
      11.9684   1.97135e-07
      12.9159   2.99122e-08
      13.9262   3.97077e-09
      14.9731   1.11882e-09
