/*--------------------------------*- C++ -*----------------------------------*\
  =========                 |
  \\      /  F ield         | OpenFOAM: The Open Source CFD Toolbox
   \\    /   O peration     | Website:  https://openfoam.org
    \\  /    A nd           | Version:  12
     \\/     M anipulation  |
\*---------------------------------------------------------------------------*/
FoamFile
{
    format      ascii;
    class       volVectorField;
    location    "13.18";
    object      zeta;
}
// * * * * * * * * * * * * * * * * * * * * * * * * * * * * * * * * * * * * * //

dimensions      [0 1 0 0 0 0 0];

internalField   uniform (0 0 0);

boundaryField
{
    freeSurface
    {
        type            calculated;
        value           nonuniform List<vector> 
181
(
(0 0.00261953 0)
(0 0.00261883 0)
(0 0.00261895 0)
(0 0.00261893 0)
(0 0.00261951 0)
(0 0.00261938 0)
(0 0.00262031 0)
(0 0.00261968 0)
(0 -0.000883559 0)
(0 -0.000867186 0)
(0 -0.000853468 0)
(0 -0.000828121 0)
(0 -0.000797295 0)
(0 -0.000755133 0)
(0 -0.000707919 0)
(0 -0.000650055 0)
(0 -0.000587422 0)
(0 -0.000516859 0)
(0 -0.000441584 0)
(0 -0.000360357 0)
(0 -0.000274438 0)
(0 -0.00018394 0)
(0 -8.97759e-05 0)
(0 7.3193e-06 0)
(0 0.000106299 0)
(0 0.000206345 0)
(0 0.000306657 0)
(0 0.000406455 0)
(0 0.00050495 0)
(0 0.000601173 0)
(0 0.000694071 0)
(0 0.000782529 0)
(0 0.000865626 0)
(0 0.000942351 0)
(0 0.00101184 0)
(0 0.00107308 0)
(0 0.00112524 0)
(0 0.00116745 0)
(0 0.00119895 0)
(0 0.00121902 0)
(0 0.00122716 0)
(0 0.00122292 0)
(0 0.001206 0)
(0 0.00117625 0)
(0 0.00113355 0)
(0 0.00107801 0)
(0 0.00100988 0)
(0 0.000929571 0)
(0 0.000837725 0)
(0 0.000735142 0)
(0 0.000622864 0)
(0 0.000502049 0)
(0 0.000374197 0)
(0 0.000240849 0)
(0 0.00010372 0)
(0 -3.52215e-05 0)
(0 -0.000173789 0)
(0 -0.000309968 0)
(0 -0.000441636 0)
(0 -0.000566503 0)
(0 -0.000682312 0)
(0 -0.000786981 0)
(0 -0.000878449 0)
(0 -0.000954768 0)
(0 -0.001014 0)
(0 -0.00105463 0)
(0 -0.00107528 0)
(0 -0.001075 0)
(0 -0.00105321 0)
(0 -0.00100966 0)
(0 -0.000944756 0)
(0 -0.000859171 0)
(0 -0.000754327 0)
(0 -0.000632138 0)
(0 -0.000494907 0)
(0 -0.000345356 0)
(0 -0.000187096 0)
(0 -2.3808e-05 0)
(0 0.000140508 0)
(0 0.000301427 0)
(0 0.000454588 0)
(0 0.000595465 0)
(0 0.000719735 0)
(0 0.000823451 0)
(0 0.000902949 0)
(0 0.000955474 0)
(0 0.000978593 0)
(0 0.000970823 0)
(0 0.000931859 0)
(0 0.000862398 0)
(0 0.000763916 0)
(0 0.000639182 0)
(0 0.000492354 0)
(0 0.000327667 0)
(0 0.000151443 0)
(0 -3.04337e-05 0)
(0 -0.000211006 0)
(0 -0.000383465 0)
(0 -0.000540806 0)
(0 -0.000676381 0)
(0 -0.000784278 0)
(0 -0.000859506 0)
(0 -0.000898424 0)
(0 -0.000898613 0)
(0 -0.000859571 0)
(0 -0.0007825 0)
(0 -0.000670529 0)
(0 -0.000528599 0)
(0 -0.000363454 0)
(0 -0.000182885 0)
(0 3.81153e-06 0)
(0 0.000187217 0)
(0 0.000357669 0)
(0 0.000505882 0)
(0 0.000623322 0)
(0 0.000703106 0)
(0 0.000740594 0)
(0 0.000733383 0)
(0 0.00068171 0)
(0 0.000588844 0)
(0 0.000460813 0)
(0 0.00030586 0)
(0 0.00013501 0)
(0 -3.99219e-05 0)
(0 -0.000207084 0)
(0 -0.000354361 0)
(0 -0.000470728 0)
(0 -0.000547527 0)
(0 -0.000579028 0)
(0 -0.000562978 0)
(0 -0.000501121 0)
(0 -0.000399145 0)
(0 -0.000266267 0)
(0 -0.000114605 0)
(0 4.1494e-05 0)
(0 0.000188089 0)
(0 0.000311422 0)
(0 0.000399531 0)
(0 0.0004436 0)
(0 0.00043983 0)
(0 0.000388833 0)
(0 0.000296526 0)
(0 0.000173425 0)
(0 3.3525e-05 0)
(0 -0.000106852 0)
(0 -0.000232887 0)
(0 -0.000329877 0)
(0 -0.000386743 0)
(0 -0.000397429 0)
(0 -0.000361614 0)
(0 -0.000285067 0)
(0 -0.000178868 0)
(0 -5.80168e-05 0)
(0 6.06027e-05 0)
(0 0.000162146 0)
(0 0.000233 0)
(0 0.000264798 0)
(0 0.000255133 0)
(0 0.000207942 0)
(0 0.000133181 0)
(0 4.5423e-05 0)
(0 -3.99785e-05 0)
(0 -0.000109599 0)
(0 -0.000152935 0)
(0 -0.00016566 0)
(0 -0.000149623 0)
(0 -0.0001117 0)
(0 -6.24316e-05 0)
(0 -1.35153e-05 0)
(0 2.57583e-05 0)
(0 4.88754e-05 0)
(0 5.43448e-05 0)
(0 4.51247e-05 0)
(0 2.71018e-05 0)
(0 6.65159e-06 0)
(0 -9.60863e-06 0)
(0 -1.7892e-05 0)
(0 -1.77034e-05 0)
(0 -1.14772e-05 0)
(0 -3.40479e-06 0)
(0 2.11614e-06 0)
)
;
    }
    walls
    {
        type            calculated;
        value           uniform (0 0 0);
    }
    floatingObject
    {
        type            calculated;
        value           uniform (0 0 0);
    }
    frontAndBack
    {
        type            empty;
    }
}


// ************************************************************************* //
