# Probe 0 (0 0 0)
# Time            0                
0                 0                
0.005             140.714605       
0.01              276.6427729      
0.015             382.6574127      
0.02              465.5013014      
0.025             530.3881568      
0.03              581.3399492      
0.035             621.4611336      
0.04              653.1497772      
0.045             678.2600147      
0.05              698.2270097      
0.055             714.1630613      
0.06              726.9315136      
0.065             737.2036017      
0.07              745.5021832      
0.075             752.2353905      
0.08              757.7225434      
0.085             762.2141091      
0.09              765.907093       
0.095             768.9569125      
0.1               771.4865708      
0.105             773.5937502      
0.11              775.3563055      
0.115             776.8365241      
0.12              778.0844365      
0.125             779.1403922      
0.13              780.0370696      
0.135             780.8010466      
0.14              781.4540328      
0.145             782.0138367      
0.15              782.4951292      
0.155             782.9100465      
0.16              783.2686689      
0.165             783.5794024      
0.17              783.8492825      
0.175             784.0842199      
0.18              784.2891964      
0.185             784.468425       
0.19              784.625479       
0.195             784.7633978      
0.2               784.8847732      
0.205             784.9918209      
0.21              785.0864394      
0.215             785.1702581      
0.22              785.2446793      
0.225             785.3109106      
0.23              785.3699946      
0.235             785.4228323      
0.24              785.4702037      
0.245             785.5127843      
0.25              785.5511606      
0.255             785.585842       
0.26              785.6172713      
0.265             785.6458338      
0.27              785.6718655      
0.275             785.6956592      
0.28              785.7174706      
0.285             785.7375228      
0.29              785.7560113      
0.295             785.7731069      
0.3               785.7889593      
0.305             785.8037         
0.31              785.8174441      
0.315             785.8302928      
0.32              785.8423353      
0.325             785.8536502      
0.33              785.8643063      
0.335             785.874365       
0.34              785.8838802      
0.345             785.8928996      
0.35              785.9014657      
0.355             785.909616       
0.36              785.917384       
0.365             785.9247995      
0.37              785.9318891      
0.375             785.9386767      
0.38              785.9451835      
0.385             785.9514288      
0.39              785.9574297      
0.395             785.9632019      
0.4               785.9687592      
0.405             785.9741146      
0.41              785.9792796      
0.415             785.9842646      
0.42              785.9890795      
0.425             785.9937329      
0.43              785.998233       
0.435             786.0025872      
0.44              786.0068025      
0.445             786.010885       
0.45              786.0148408      
0.455             786.0186753      
0.46              786.0223937      
0.465             786.0260008      
0.47              786.0295009      
0.475             786.0328983      
0.48              786.0361969      
0.485             786.0394005      
0.49              786.0425125      
0.495             786.0455362      
0.5               786.0484749      
0.505             786.0513313      
0.51              786.0541085      
0.515             786.0568092      
0.52              786.0594357      
0.525             786.0619906      
0.53              786.0644763      
0.535             786.066895       
0.54              786.0692488      
0.545             786.0715398      
0.55              786.07377        
0.555             786.0759412      
0.56              786.0780552      
0.565             786.0801138      
0.57              786.0821186      
0.575             786.0840715      
0.58              786.0859737      
0.585             786.0878268      
0.59              786.0896325      
0.595             786.0913918      
0.6               786.0931063      
0.605             786.0947773      
0.61              786.0964058      
0.615             786.0979932      
0.62              786.0995408      
0.625             786.1010495      
0.63              786.1025205      
0.635             786.1039548      
0.64              786.1053536      
0.645             786.1067177      
0.65              786.1080481      
0.655             786.1093458      
0.66              786.1106116      
0.665             786.1118465      
0.67              786.1130512      
0.675             786.1142265      
0.68              786.1153733      
0.685             786.1164923      
0.69              786.1175844      
0.695             786.1186502      
0.7               786.1196904      
0.705             786.1207056      
0.71              786.1216966      
0.715             786.1226639      
0.72              786.1236083      
0.725             786.1245303      
0.73              786.1254304      
0.735             786.1263092      
0.74              786.1271675      
0.745             786.1280054      
0.75              786.1288237      
0.755             786.129623       
0.76              786.1304035      
0.765             786.1311659      
0.77              786.1319105      
0.775             786.1326379      
0.78              786.1333484      
0.785             786.1340425      
0.79              786.1347206      
0.795             786.1353831      
0.8               786.1360304      
0.805             786.1366629      
0.81              786.1372809      
0.815             786.1378848      
0.82              786.138475       
0.825             786.1390517      
0.83              786.1396153      
0.835             786.1401661      
0.84              786.1407044      
0.845             786.1412307      
0.85              786.141745       
0.855             786.1422478      
0.86              786.1427393      
0.865             786.1432198      
0.87              786.1436895      
0.875             786.1441487      
0.88              786.1445976      
0.885             786.1450365      
0.89              786.1454658      
0.895             786.1458854      
0.9               786.1462957      
0.905             786.1466968      
0.91              786.1470891      
0.915             786.1474728      
0.92              786.147848       
0.925             786.1482149      
0.93              786.1485737      
0.935             786.1489246      
0.94              786.1492679      
0.945             786.1496036      
0.95              786.1499319      
0.955             786.1502531      
0.96              786.1505672      
0.965             786.1508744      
0.97              786.151175       
0.975             786.1514691      
0.98              786.1517568      
0.985             786.1520382      
0.99              786.1523135      
0.995             786.1525828      
1                 786.1528463      
