# Probe 0 (0 0 0)
# Time            0                
0                 0                
0.005             -9.314147914e-06 
0.01              -1.777339258e-05 
0.015             -2.434268511e-05 
0.02              -2.945224269e-05 
0.025             -3.34338914e-05  
0.03              -3.654312204e-05 
0.035             -3.89767333e-05  
0.04              -4.08864001e-05  
0.045             -4.238910254e-05 
0.05              -4.357513918e-05 
0.055             -4.45142829e-05  
0.06              -4.526050947e-05 
0.065             -4.58556299e-05  
0.07              -4.633208101e-05 
0.075             -4.671506985e-05 
0.08              -4.702422221e-05 
0.085             -4.727485036e-05 
0.09              -4.747892862e-05 
0.095             -4.764584458e-05 
0.1               -4.778297797e-05 
0.105             -4.789614723e-05 
0.11              -4.798995435e-05 
0.115             -4.806805137e-05 
0.12              -4.813334685e-05 
0.125             -4.818816585e-05 
0.13              -4.82343742e-05  
0.135             -4.827347527e-05 
0.14              -4.830668534e-05 
0.145             -4.833499256e-05 
0.15              -4.835920316e-05 
0.155             -4.837997771e-05 
0.16              -4.83978597e-05  
0.165             -4.84132982e-05  
0.17              -4.84266657e-05  
0.175             -4.843827243e-05 
0.18              -4.844837771e-05 
0.185             -4.845719913e-05 
0.19              -4.846491987e-05 
0.195             -4.847169466e-05 
0.2               -4.847765456e-05 
0.205             -4.848291098e-05 
0.21              -4.848755879e-05 
0.215             -4.849167903e-05 
0.22              -4.84953411e-05  
0.225             -4.849860452e-05 
0.23              -4.850152045e-05 
0.235             -4.850413298e-05 
0.24              -4.850648012e-05 
0.245             -4.850859474e-05 
0.25              -4.851050527e-05 
0.255             -4.851223637e-05 
0.26              -4.851380941e-05 
0.265             -4.8515243e-05   
0.27              -4.851655331e-05 
0.275             -4.851775442e-05 
0.28              -4.851885863e-05 
0.285             -4.851987668e-05 
0.29              -4.852081793e-05 
0.295             -4.85216906e-05  
0.3               -4.852250188e-05 
0.305             -4.852325809e-05 
0.31              -4.852396478e-05 
0.315             -4.852462682e-05 
0.32              -4.85252485e-05  
0.325             -4.852583361e-05 
0.33              -4.85263855e-05  
0.335             -4.852690713e-05 
0.34              -4.852740112e-05 
0.345             -4.852786979e-05 
0.35              -4.852831523e-05 
0.355             -4.852873927e-05 
0.36              -4.852914355e-05 
0.365             -4.852952955e-05 
0.37              -4.852989857e-05 
0.375             -4.853025181e-05 
0.38              -4.853059034e-05 
0.385             -4.85309151e-05  
0.39              -4.853122698e-05 
0.395             -4.853152675e-05 
0.4               -4.853181513e-05 
0.405             -4.853209277e-05 
0.41              -4.853236027e-05 
0.415             -4.853261817e-05 
0.42              -4.853286697e-05 
0.425             -4.853310713e-05 
0.43              -4.853333907e-05 
0.435             -4.853356319e-05 
0.44              -4.853377986e-05 
0.445             -4.85339894e-05  
0.45              -4.853419213e-05 
0.455             -4.853438835e-05 
0.46              -4.853457833e-05 
0.465             -4.853476233e-05 
0.47              -4.85349406e-05  
0.475             -4.853511335e-05 
0.48              -4.853528081e-05 
0.485             -4.853544317e-05 
0.49              -4.853560065e-05 
0.495             -4.853575339e-05 
0.5               -4.85359016e-05  
0.505             -4.853604542e-05 
0.51              -4.853618502e-05 
0.515             -4.853632054e-05 
0.52              -4.853645213e-05 
0.525             -4.853657992e-05 
0.53              -4.853670404e-05 
0.535             -4.853682461e-05 
0.54              -4.853694176e-05 
0.545             -4.85370556e-05  
0.55              -4.853716623e-05 
0.555             -4.853727377e-05 
0.56              -4.85373783e-05  
0.565             -4.853747993e-05 
0.57              -4.853757876e-05 
0.575             -4.853767486e-05 
0.58              -4.853776834e-05 
0.585             -4.853785925e-05 
0.59              -4.853794771e-05 
0.595             -4.853803376e-05 
0.6               -4.853811749e-05 
0.605             -4.853819897e-05 
0.61              -4.853827827e-05 
0.615             -4.853835545e-05 
0.62              -4.853843059e-05 
0.625             -4.853850373e-05 
0.63              -4.853857494e-05 
0.635             -4.853864428e-05 
0.64              -4.85387118e-05  
0.645             -4.853877756e-05 
0.65              -4.853884161e-05 
0.655             -4.8538904e-05   
0.66              -4.853896478e-05 
0.665             -4.853902399e-05 
0.67              -4.853908168e-05 
0.675             -4.853913789e-05 
0.68              -4.853919266e-05 
0.685             -4.853924605e-05 
0.69              -4.853929808e-05 
0.695             -4.853934879e-05 
0.7               -4.853939823e-05 
0.705             -4.853944642e-05 
0.71              -4.853949341e-05 
0.715             -4.853953922e-05 
0.72              -4.85395839e-05  
0.725             -4.853962746e-05 
0.73              -4.853966994e-05 
0.735             -4.853971138e-05 
0.74              -4.853975179e-05 
0.745             -4.853979121e-05 
0.75              -4.853982967e-05 
0.755             -4.853986718e-05 
0.76              -4.853990379e-05 
0.765             -4.85399395e-05  
0.77              -4.853997435e-05 
0.775             -4.854000835e-05 
0.78              -4.854004154e-05 
0.785             -4.854007393e-05 
0.79              -4.854010554e-05 
0.795             -4.854013639e-05 
0.8               -4.854016651e-05 
0.805             -4.854019591e-05 
0.81              -4.854022462e-05 
0.815             -4.854025264e-05 
0.82              -4.854028001e-05 
0.825             -4.854030672e-05 
0.83              -4.854033281e-05 
0.835             -4.854035828e-05 
0.84              -4.854038316e-05 
0.845             -4.854040745e-05 
0.85              -4.854043119e-05 
0.855             -4.854045437e-05 
0.86              -4.854047701e-05 
0.865             -4.854049912e-05 
0.87              -4.854052073e-05 
0.875             -4.854054184e-05 
0.88              -4.854056246e-05 
0.885             -4.85405826e-05  
0.89              -4.854060229e-05 
0.895             -4.854062153e-05 
0.9               -4.854064032e-05 
0.905             -4.854065868e-05 
0.91              -4.854067662e-05 
0.915             -4.854069416e-05 
0.92              -4.854071131e-05 
0.925             -4.854072806e-05 
0.93              -4.854074443e-05 
0.935             -4.854076043e-05 
0.94              -4.854077608e-05 
0.945             -4.854079137e-05 
0.95              -4.854080631e-05 
0.955             -4.854082093e-05 
0.96              -4.854083521e-05 
0.965             -4.854084918e-05 
0.97              -4.854086283e-05 
0.975             -4.854087618e-05 
0.98              -4.854088924e-05 
0.985             -4.8540902e-05   
0.99              -4.854091448e-05 
0.995             -4.854092668e-05 
1                 -4.854093862e-05 
