# Probe 0 (0 0 0)
# Time            0                
0                 100000           
0.005             103841.6696      
0.01              107183.3936      
0.015             110087.0262      
0.02              112608.5944      
0.025             114796.9245      
0.03              116694.5873      
0.035             118338.7129      
0.04              119761.6956      
0.045             120991.8039      
0.05              122053.7103      
0.055             122968.9515      
0.06              123756.3289      
0.065             124432.2572      
0.07              125011.0678      
0.075             125505.274       
0.08              125925.8013      
0.085             126282.1894      
0.09              126582.7673      
0.095             126834.8069      
0.1               127044.657       
0.105             127217.8598      
0.11              127359.2531      
0.115             127473.0598      
0.12              127562.965       
0.125             127632.1846      
0.13              127683.5241      
0.135             127719.4312      
0.14              127742.0405      
0.145             127753.2132      
0.15              127754.5719      
0.155             127747.5305      
0.16              127733.3211      
0.165             127713.0163      
0.17              127687.5502      
0.175             127657.7353      
0.18              127624.2782      
0.185             127587.7931      
0.19              127548.8134      
0.195             127507.802       
0.2               127465.1602      
0.205             127421.2358      
0.21              127376.3295      
0.215             127330.7012      
0.22              127284.5752      
0.225             127238.1447      
0.23              127191.5756      
0.235             127145.0103      
0.24              127098.5707      
0.245             127052.3605      
0.25              127006.468       
0.255             126960.9678      
0.26              126915.9227      
0.265             126871.3852      
0.27              126827.3988      
0.275             126783.9994      
0.28              126741.2161      
0.285             126699.072       
0.29              126657.5854      
0.295             126616.77        
0.3               126576.636       
0.305             126537.1901      
0.31              126498.4362      
0.315             126460.376       
0.32              126423.009       
0.325             126386.333       
0.33              126350.3441      
0.335             126315.0373      
0.34              126280.4067      
0.345             126246.4451      
0.35              126213.1448      
0.355             126180.4975      
0.36              126148.4942      
0.365             126117.1256      
0.37              126086.3821      
0.375             126056.2539      
0.38              126026.7308      
0.385             125997.8027      
0.39              125969.4592      
0.395             125941.6899      
0.4               125914.4846      
0.405             125887.8328      
0.41              125861.7242      
0.415             125836.1486      
0.42              125811.0958      
0.425             125786.5557      
0.43              125762.5184      
0.435             125738.974       
0.44              125715.9128      
0.445             125693.3252      
0.45              125671.2018      
0.455             125649.5332      
0.46              125628.3104      
0.465             125607.5243      
0.47              125587.166       
0.475             125567.227       
0.48              125547.6987      
0.485             125528.5727      
0.49              125509.8407      
0.495             125491.4948      
0.5               125473.527       
0.505             125455.9295      
0.51              125438.6948      
0.515             125421.8153      
0.52              125405.2839      
0.525             125389.0932      
0.53              125373.2364      
0.535             125357.7064      
0.54              125342.4966      
0.545             125327.6004      
0.55              125313.0113      
0.555             125298.7229      
0.56              125284.7291      
0.565             125271.0237      
0.57              125257.6009      
0.575             125244.4547      
0.58              125231.5794      
0.585             125218.9695      
0.59              125206.6195      
0.595             125194.5239      
0.6               125182.6776      
0.605             125171.0754      
0.61              125159.7122      
0.615             125148.5832      
0.62              125137.6834      
0.625             125127.0081      
0.63              125116.5527      
0.635             125106.3127      
0.64              125096.2836      
0.645             125086.461       
0.65              125076.8408      
0.655             125067.4186      
0.66              125058.1904      
0.665             125049.1523      
0.67              125040.3002      
0.675             125031.6304      
0.68              125023.139       
0.685             125014.8225      
0.69              125006.6771      
0.695             124998.6995      
0.7               124990.886       
0.705             124983.2333      
0.71              124975.7381      
0.715             124968.3972      
0.72              124961.2073      
0.725             124954.1653      
0.73              124947.2683      
0.735             124940.5132      
0.74              124933.897       
0.745             124927.417       
0.75              124921.0703      
0.755             124914.8542      
0.76              124908.7659      
0.765             124902.8028      
0.77              124896.9625      
0.775             124891.2422      
0.78              124885.6396      
0.785             124880.1522      
0.79              124874.7777      
0.795             124869.5137      
0.8               124864.358       
0.805             124859.3082      
0.81              124854.3624      
0.815             124849.5182      
0.82              124844.7736      
0.825             124840.1266      
0.83              124835.5751      
0.835             124831.1172      
0.84              124826.751       
0.845             124822.4745      
0.85              124818.2859      
0.855             124814.1835      
0.86              124810.1653      
0.865             124806.2298      
0.87              124802.3752      
0.875             124798.5998      
0.88              124794.902       
0.885             124791.2802      
0.89              124787.7329      
0.895             124784.2584      
0.9               124780.8554      
0.905             124777.5223      
0.91              124774.2577      
0.915             124771.0603      
0.92              124767.9285      
0.925             124764.8611      
0.93              124761.8567      
0.935             124758.914       
0.94              124756.0319      
0.945             124753.2089      
0.95              124750.444       
0.955             124747.7358      
0.96              124745.0834      
0.965             124742.4854      
0.97              124739.9408      
0.975             124737.4485      
0.98              124735.0073      
0.985             124732.6164      
0.99              124730.2746      
0.995             124727.9808      
1                 124725.7342      
