/*--------------------------------*- C++ -*----------------------------------*\
  =========                 |
  \\      /  F ield         | OpenFOAM: The Open Source CFD Toolbox
   \\    /   O peration     | Website:  https://openfoam.org
    \\  /    A nd           | Version:  12
     \\/     M anipulation  |
\*---------------------------------------------------------------------------*/
FoamFile
{
    format      ascii;
    class       surfaceScalarField;
    location    "4.08";
    object      phi;
}
// * * * * * * * * * * * * * * * * * * * * * * * * * * * * * * * * * * * * * //

dimensions      [1 0 -1 0 0 0 0];

internalField   nonuniform List<scalar> 
7429
(
4.20361e-05
-4.20362e-05
8.4529e-05
-4.2493e-05
0.000127057
-4.25276e-05
0.000169383
-4.23262e-05
0.000211267
-4.18843e-05
0.000252473
-4.12067e-05
0.000292772
-4.02989e-05
0.00033196
-3.91876e-05
0.000369859
-3.78992e-05
0.000406365
-3.65059e-05
0.000441461
-3.50964e-05
0.000475345
-3.38846e-05
0.000507904
-3.25586e-05
0.00053868
-3.07764e-05
0.00056742
-2.87396e-05
0.000594011
-2.65913e-05
0.000618455
-2.44444e-05
0.00064084
-2.23844e-05
0.000661289
-2.045e-05
0.000680034
-1.87443e-05
0.00069734
-1.73065e-05
0.000713542
-1.62022e-05
0.000729013
-1.54706e-05
0.000744148
-1.51351e-05
0.000759362
-1.52141e-05
0.000775053
-1.56913e-05
0.000791603
-1.65504e-05
0.000809356
-1.77525e-05
0.000828584
-1.92279e-05
0.00084954
-2.09559e-05
0.0008724
-2.28601e-05
0.000897238
-2.48384e-05
0.000924066
-2.68286e-05
0.00095272
-2.86537e-05
0.00098269
-2.99695e-05
0.00101412
-3.14254e-05
0.00104714
-3.30241e-05
0.00108163
-3.44945e-05
0.00111732
-3.56851e-05
0.00115384
-3.65209e-05
0.00119074
-3.69009e-05
0.00122752
-3.67824e-05
0.00126363
-3.61115e-05
0.00129847
-3.48354e-05
0.00133138
-3.29067e-05
0.00136176
-3.03857e-05
0.00138893
-2.71666e-05
0.00141222
-2.3294e-05
0.00143093
-1.87045e-05
0.00144428
-1.3353e-05
0.00145209
-7.80606e-06
0.00145244
-3.50815e-07
0.00144462
7.81793e-06
0.00142862
1.60023e-05
0.0014043
2.43198e-05
0.00137153
3.27725e-05
0.00133035
4.11788e-05
0.0012808
4.95458e-05
0.00122313
5.76668e-05
0.00115756
6.55786e-05
0.00108447
7.30875e-05
0.00100427
8.01994e-05
0.000917439
8.68301e-05
0.000824577
9.28622e-05
0.000726469
9.81084e-05
0.000623939
0.00010253
0.00051813
0.000105809
0.000410089
0.000108041
0.000301119
0.00010897
0.000192468
0.000108651
8.55127e-05
0.000106955
-1.83578e-05
0.000103871
-0.000117618
9.92605e-05
-0.000211008
9.33901e-05
-0.000297097
8.60884e-05
-0.000374571
7.7474e-05
-0.000442266
6.76958e-05
-0.000499015
5.67491e-05
-0.00054392
4.4905e-05
-0.000576186
3.22655e-05
-0.000595349
1.91632e-05
-0.000601112
5.76304e-06
-0.00059161
-9.50191e-06
-0.000567604
-2.40064e-05
-0.00052999
-3.76141e-05
-0.000479599
-5.03903e-05
-0.000417479
-6.21203e-05
-0.000344725
-7.27536e-05
-0.000262607
-8.21185e-05
-0.0001727
-8.9907e-05
-7.68414e-05
-9.58586e-05
2.29024e-05
-9.97437e-05
0.000124413
-0.00010151
0.000225506
-0.000101093
0.000323872
-9.83656e-05
0.000417254
-9.33819e-05
0.000503495
-8.62412e-05
0.000580517
-7.70219e-05
0.000646497
-6.59797e-05
0.000699707
-5.32106e-05
0.000738961
-3.9254e-05
0.000763074
-2.41125e-05
0.000771697
-8.62305e-06
0.00076298
8.71662e-06
0.00073815
2.48303e-05
0.000698077
4.0073e-05
0.000643636
5.44412e-05
0.000576064
6.75713e-05
0.000496977
7.90873e-05
0.000408285
8.86922e-05
0.000312166
9.61193e-05
0.000211015
0.000101151
0.00010729
0.000103725
3.57346e-06
0.000103717
-9.76289e-05
0.000101202
-0.000193922
9.62934e-05
-0.00028305
8.91278e-05
-0.000362942
7.98924e-05
-0.000431828
6.8886e-05
-0.00048834
5.65112e-05
-0.000531333
4.29937e-05
-0.000560109
2.87752e-05
-0.000574443
1.43347e-05
-0.000573966
-4.76939e-07
-0.000559328
-1.46378e-05
-0.000531425
-2.79034e-05
-0.000491269
-4.0156e-05
-0.000440185
-5.10839e-05
-0.000379745
-6.04399e-05
-0.000311648
-6.80977e-05
-0.000237777
-7.38711e-05
-0.000160051
-7.7726e-05
-8.03746e-05
-7.9676e-05
-6.64023e-07
-7.97105e-05
7.72956e-05
-7.79596e-05
0.000151793
-7.44974e-05
0.000221298
-6.95052e-05
0.00028449
-6.31919e-05
0.000340233
-5.57425e-05
0.000387624
-4.73916e-05
0.000425991
-3.83668e-05
0.000454916
-2.89246e-05
0.000474197
-1.92812e-05
0.000483844
-9.64703e-06
0.000484128
-2.846e-07
0.000475492
8.63593e-06
0.000458528
1.69645e-05
0.000433995
2.45327e-05
0.0004028
3.11954e-05
0.000365855
3.69447e-05
0.000324289
4.15661e-05
0.000279102
4.5187e-05
0.000231501
4.76011e-05
0.000182478
4.90233e-05
0.000133226
4.92519e-05
8.4705e-05
4.85208e-05
3.78509e-05
4.6854e-05
-6.40775e-06
4.42587e-05
-4.73474e-05
4.09396e-05
-8.43114e-05
3.6964e-05
-0.000116722
3.24104e-05
-0.000144153
2.74313e-05
-0.000166291
2.21376e-05
-0.000182915
1.66241e-05
-0.000193981
1.10658e-05
-0.000199495
5.51438e-06
-0.000199612
1.16684e-07
-0.000194565
-5.04689e-06
-0.000184671
-9.89363e-06
-0.00017033
-1.43406e-05
-0.000152017
-1.83134e-05
-0.000130248
-2.17695e-05
-0.000105599
-2.4649e-05
-7.86757e-05
-2.69229e-05
-5.00905e-05
-2.85852e-05
-2.04834e-05
-2.96071e-05
9.52807e-06
-3.00115e-05
3.93195e-05
-2.97914e-05
6.8324e-05
-2.90045e-05
9.5963e-05
-2.7639e-05
0.000121756
-2.57927e-05
0.000145227
-2.34718e-05
0.000165975
-2.07477e-05
0.000183666
-1.7691e-05
0.000198005
-1.43393e-05
0.000208783
-1.07772e-05
0.000215832
-7.04963e-06
0.00021905
-3.21737e-06
0.000218415
6.34621e-07
0.000213935
4.48016e-06
0.000205682
8.25236e-06
0.000193801
1.18816e-05
0.000178464
1.5337e-05
0.000159918
1.85458e-05
0.000138432
2.14858e-05
0.000114349
2.40837e-05
8.80308e-05
2.63178e-05
5.98928e-05
2.8138e-05
3.0384e-05
2.95088e-05
3.0384e-05
5.36616e-05
-9.5698e-05
0.000107688
-9.65194e-05
0.000161467
-9.63073e-05
0.000214538
-9.5397e-05
0.000266433
-9.37795e-05
0.00031669
-9.14643e-05
0.000364863
-8.84714e-05
0.000410514
-8.48387e-05
0.000453294
-8.06796e-05
0.000492925
-7.61373e-05
0.00052926
-7.14314e-05
0.000562538
-6.71621e-05
0.000592264
-6.2285e-05
0.000617813
-5.63257e-05
0.000639009
-4.99358e-05
0.000655869
-4.34518e-05
0.000668563
-3.71378e-05
0.000677399
-3.1221e-05
0.000682837
-2.58883e-05
0.000685502
-2.1409e-05
0.000686088
-1.78931e-05
0.000685269
-1.53834e-05
0.000683737
-1.39385e-05
0.000682196
-1.35943e-05
0.000681361
-1.43792e-05
0.000681933
-1.6263e-05
0.000684708
-1.9326e-05
0.000690352
-2.33961e-05
0.000699438
-2.83138e-05
0.000712361
-3.38792e-05
0.00072926
-3.97594e-05
0.000750122
-4.57e-05
0.000774437
-5.11436e-05
0.000801602
-5.58185e-05
0.000832796
-6.11641e-05
0.000867953
-6.6582e-05
0.000906563
-7.16346e-05
0.000948186
-7.61177e-05
0.000992274
-7.97731e-05
0.00103823
-8.24793e-05
0.0010854
-8.40632e-05
0.00113302
-8.44076e-05
0.00118032
-8.34159e-05
0.00122649
-8.09989e-05
0.00127068
-7.70951e-05
0.00131198
-7.16869e-05
0.00134954
-6.47261e-05
0.00138251
-5.62651e-05
0.0014102
-4.63957e-05
0.00143167
-3.48199e-05
0.00144563
-2.17645e-05
0.00145367
-8.40031e-06
0.00145085
1.06429e-05
0.00143866
2.81932e-05
0.00141701
4.5969e-05
0.00138585
6.39344e-05
0.0013452
8.18248e-05
0.00129512
9.96244e-05
0.00123581
0.000116978
0.00116741
0.000133983
0.00109031
0.000150191
0.00100491
0.000165592
0.000911863
0.00017988
0.000811972
0.000192753
0.000706173
0.000203907
0.000595588
0.000213115
0.000481311
0.000220086
0.000364704
0.000224648
0.000247163
0.000226512
0.000130212
0.000225602
1.52284e-05
0.000221939
-9.60451e-05
0.000215144
-0.000202159
0.000205374
-0.000301563
0.000192794
-0.00039273
0.000177256
-0.00047419
0.000158934
-0.000544609
0.000138115
-0.000602882
0.000115022
-0.000647936
8.99592e-05
-0.000679006
6.33354e-05
-0.000695511
3.56683e-05
-0.000697361
7.61325e-06
-0.000682375
-2.44881e-05
-0.000652368
-5.40129e-05
-0.000607953
-8.20295e-05
-0.000549891
-0.000108452
-0.000479118
-0.000132893
-0.000396893
-0.000154979
-0.000304862
-0.00017415
-0.000204979
-0.00018979
-9.92201e-05
-0.000201617
1.02481e-05
-0.000209212
0.000121018
-0.000212281
0.000230667
-0.000210742
0.000336734
-0.000204432
0.000436762
-0.000193409
0.000528439
-0.000177918
0.000609626
-0.000158209
0.000678341
-0.000134695
0.000733087
-0.000107957
0.000772234
-7.84008e-05
0.000795231
-4.71094e-05
0.000800861
-1.42531e-05
0.000788827
2.07507e-05
0.00076012
5.35378e-05
0.00071539
8.48026e-05
0.000655714
0.000114117
0.000582604
0.000140681
0.000497995
0.000163696
0.000403986
0.000182701
0.00030304
0.000197065
0.000197669
0.000206521
9.05382e-05
0.000210856
-1.56652e-05
0.00020992
-0.000118408
0.000203945
-0.000215202
0.000193087
-0.000303818
0.000177744
-0.000382264
0.000158339
-0.000448907
0.000135528
-0.000502491
0.000110095
-0.000542035
8.25378e-05
-0.000566939
5.36792e-05
-0.000577133
2.45291e-05
-0.000572756
-4.85403e-06
-0.000554606
-3.27879e-05
-0.000523464
-5.90454e-05
-0.00048059
-8.30305e-05
-0.000427429
-0.000104245
-0.000365614
-0.000122254
-0.000296945
-0.000136767
-0.000223344
-0.000147472
-0.00014665
-0.00015442
-6.88044e-05
-0.000157522
8.39736e-06
-0.000156912
8.3226e-05
-0.000152788
0.000154157
-0.000145428
0.000219729
-0.000135077
0.00027877
-0.000122233
0.000330292
-0.000107264
0.000373511
-9.06112e-05
0.000407905
-7.27599e-05
0.000433142
-5.41619e-05
0.000449164
-3.53032e-05
0.00045608
-1.65634e-05
0.000454231
1.56457e-06
0.00044407
1.87975e-05
0.000426256
3.47778e-05
0.000401556
4.92334e-05
0.000370776
6.19752e-05
0.000334972
7.27484e-05
0.000295038
8.15007e-05
0.000252118
8.81065e-05
0.000207126
9.25926e-05
0.000161233
9.49164e-05
0.00011523
9.52557e-05
7.02604e-05
9.34899e-05
2.70979e-05
9.00166e-05
-1.35908e-05
8.49473e-05
-5.10034e-05
7.83522e-05
-8.45768e-05
7.05374e-05
-0.000113822
6.16551e-05
-0.000138407
5.20164e-05
-0.000158002
4.17329e-05
-0.000172558
3.11798e-05
-0.000181938
2.04465e-05
-0.000186254
9.8298e-06
-0.000185645
-4.92291e-07
-0.000180339
-1.0353e-05
-0.000170648
-1.95842e-05
-0.000156955
-2.80332e-05
-0.000139706
-3.55624e-05
-0.000119389
-4.2087e-05
-9.65163e-05
-4.75215e-05
-7.16598e-05
-5.17794e-05
-4.53765e-05
-5.48685e-05
-1.8245e-05
-5.67386e-05
9.17979e-06
-5.74363e-05
3.63302e-05
-5.69418e-05
6.26869e-05
-5.53612e-05
8.77469e-05
-5.26989e-05
0.000111074
-4.91195e-05
0.000132241
-4.46392e-05
0.000150915
-3.94212e-05
0.000166784
-3.35609e-05
0.000179595
-2.71497e-05
0.000189174
-2.03562e-05
0.00019538
-1.32554e-05
0.000198141
-5.97833e-06
0.000197409
1.36658e-06
0.000193226
8.66271e-06
0.000185667
1.58109e-05
0.000174846
2.2703e-05
0.000160935
2.92479e-05
0.000144143
3.53375e-05
0.000124736
4.08929e-05
0.000102998
4.58223e-05
7.92677e-05
5.0048e-05
5.39177e-05
5.3488e-05
2.73524e-05
5.60741e-05
5.77364e-05
8.24532e-05
-0.000178151
0.000164921
-0.000178988
0.000246413
-0.000177799
0.00032592
-0.000174904
0.000402449
-0.000170308
0.000475035
-0.000164051
0.000542793
-0.000156229
0.000604947
-0.000146993
0.000660904
-0.000136636
0.000710416
-0.00012565
0.000753131
-0.000114147
0.000787923
-0.000101954
0.000813723
-8.8085e-05
0.000829873
-7.24756e-05
0.000836177
-5.62401e-05
0.000832713
-3.99885e-05
0.000819634
-2.40589e-05
0.000796966
-8.5526e-06
0.000763639
7.43822e-06
0.000725718
1.6512e-05
0.000686853
2.09712e-05
0.000647408
2.4062e-05
0.000608264
2.52048e-05
0.000570613
2.40568e-05
0.000535578
2.06557e-05
0.000503035
1.62799e-05
0.000477117
6.59235e-06
0.000462577
-8.85695e-06
0.000457546
-2.3283e-05
0.000461377
-3.77098e-05
0.000473258
-5.16406e-05
0.000492443
-6.48849e-05
0.000517892
-7.65923e-05
0.000551365
-8.92919e-05
0.000592689
-0.000102488
0.000641237
-0.00011513
0.00069637
-0.000126768
0.000757177
-0.000136925
0.000822745
-0.00014534
0.000892018
-0.000151752
0.000963832
-0.000155878
0.00103699
-0.000157563
0.00111017
-0.000156599
0.00118211
-0.000152936
0.00125131
-0.0001463
0.00131686
-0.000137229
0.00137733
-0.000125205
0.00143151
-0.000110438
0.00147761
-9.24953e-05
0.00151507
-7.22836e-05
0.00154325
-4.99478e-05
0.00156088
-2.60276e-05
0.00156782
3.70053e-06
0.0015622
3.38143e-05
0.00154431
6.38665e-05
0.0015141
9.41389e-05
0.00147161
0.000124318
0.00141694
0.000154293
0.00135025
0.000183666
0.00127178
0.000212457
0.00118194
0.00024003
0.0010815
0.000266028
0.000971391
0.00028999
0.000852834
0.00031131
0.000726947
0.000329795
0.000595306
0.000344756
0.000459246
0.000356146
0.00032059
0.000363304
0.000181008
0.000366093
4.24663e-05
0.000364144
-9.31988e-05
0.000357604
-0.000224004
0.000345949
-0.000348051
0.000329422
-0.000463434
0.000308177
-0.000568409
0.000282231
-0.000661197
0.000251721
-0.000740323
0.00021724
-0.000804441
0.000179141
-0.000852347
0.000137865
-0.000883219
9.42077e-05
-0.000896339
4.87878e-05
-0.000889952
1.2265e-06
-0.000865584
-4.8856e-05
-0.000823802
-9.57946e-05
-0.000765011
-0.00014082
-0.000690129
-0.000183335
-0.000600428
-0.000222594
-0.000497712
-0.000257695
-0.000384018
-0.000287844
-0.000261561
-0.000312246
-0.000132953
-0.000330225
-9.84391e-07
-0.000341181
0.000131512
-0.000344777
0.000261619
-0.00034085
0.000386409
-0.000329222
0.000503021
-0.000310021
0.000608839
-0.000283737
0.000701323
-0.000250692
0.00077823
-0.000211602
0.000837942
-0.00016767
0.000879092
-0.00011955
0.000900162
-6.81793e-05
0.000901345
-1.54365e-05
0.000882645
3.94511e-05
0.000844881
9.1302e-05
0.000788912
0.000140771
0.000716364
0.000186666
0.000629273
0.000227772
0.000530022
0.000262947
0.000421286
0.000291436
0.000305961
0.000312391
0.000187151
0.000325331
6.77785e-05
0.000330229
-4.9039e-05
0.000326738
-0.000160516
0.000315423
-0.000264081
0.000296652
-0.000357404
0.000271067
-0.000438464
0.000239398
-0.000505609
0.000202673
-0.00055763
0.000162116
-0.000593936
0.000118844
-0.000614347
7.40905e-05
-0.000618708
2.88895e-05
-0.000607987
-1.55744e-05
-0.000582853
-5.79221e-05
-0.000544526
-9.73726e-05
-0.00049458
-0.000132977
-0.000434729
-0.000164095
-0.000366824
-0.00019016
-0.000292848
-0.000210743
-0.000214917
-0.000225403
-0.000134921
-0.000234415
-5.48484e-05
-0.000237594
2.35348e-05
-0.000235295
9.85394e-05
-0.000227793
0.000168654
-0.000215543
0.000232582
-0.000199005
0.00028926
-0.000178912
0.000337812
-0.000155816
0.000377684
-0.000130483
0.000408441
-0.000103516
0.000429964
-7.56858e-05
0.000442304
-4.76423e-05
0.000445709
-1.99693e-05
0.000440683
6.59131e-06
0.000427705
3.17748e-05
0.000407566
5.49175e-05
0.000381026
7.57733e-05
0.000349023
9.39781e-05
0.000312518
0.000109253
0.000272505
0.000121514
0.000230007
0.000130605
0.000186017
0.000136582
0.000141481
0.000139452
9.74542e-05
0.000139283
5.45304e-05
0.000136414
1.37266e-05
0.00013082
-2.43732e-05
0.000123047
-5.91153e-05
0.000113094
-9.00286e-05
0.000101451
-0.000116682
8.83089e-05
-0.0001388
7.41341e-05
-0.000156158
5.90908e-05
-0.000168695
4.37163e-05
-0.000176332
2.80839e-05
-0.000179268
1.27655e-05
-0.000177626
-2.13371e-06
-0.000171656
-1.63228e-05
-0.000161664
-2.95763e-05
-0.000148049
-4.16487e-05
-0.00013122
-5.23914e-05
-0.00011166
-6.16473e-05
-8.98575e-05
-6.93238e-05
-6.63232e-05
-7.53137e-05
-4.1603e-05
-7.95887e-05
-1.62122e-05
-8.21294e-05
9.31377e-06
-8.29623e-05
3.44909e-05
-8.2119e-05
5.88227e-05
-7.96929e-05
8.18802e-05
-7.57564e-05
0.000103237
-7.04761e-05
0.000122546
-6.39484e-05
0.000139504
-5.63797e-05
0.000153826
-4.78823e-05
0.000165355
-3.86786e-05
0.000173883
-2.88844e-05
0.000179329
-1.87009e-05
0.000181607
-8.25684e-06
0.00018072
2.25365e-06
0.000176701
1.26818e-05
0.000169608
2.29041e-05
0.000159585
3.2726e-05
0.00014677
4.20627e-05
0.000131362
5.07451e-05
0.000113603
5.86518e-05
9.37556e-05
6.567e-05
7.21276e-05
7.1676e-05
4.90457e-05
7.65699e-05
2.48738e-05
8.0246e-05
8.26102e-05
0.000145211
-0.000323362
0.000289864
-0.000323642
0.000431872
-0.000319807
0.000568927
-0.00031196
0.000698647
-0.000300028
0.000818627
-0.000284031
0.000926435
-0.000264038
0.00101983
-0.000240388
0.00109667
-0.000213474
0.00115506
-0.000184042
0.00119369
-0.000152782
0.00121243
-0.000120688
0.00121293
-8.85839e-05
0.00119796
-5.75095e-05
0.00116989
-2.81677e-05
0.00113258
-2.67697e-06
0.00108409
2.44253e-05
0.00102092
5.46183e-05
0.000949563
7.87958e-05
0.000869004
9.7071e-05
0.000779038
0.000110937
0.000685033
0.000118067
0.000590917
0.00011932
0.000500124
0.00011485
0.000416156
0.000104623
0.000344474
8.79621e-05
0.000283928
6.71383e-05
0.000234199
4.08717e-05
0.000199395
1.1521e-05
0.000174089
-1.24041e-05
0.000165539
-4.30904e-05
0.000174497
-7.38432e-05
0.000202245
-0.000104341
0.000247185
-0.000134232
0.000307184
-0.000162487
0.000380602
-0.000188548
0.000465364
-0.00021153
0.000559539
-0.000231101
0.000661134
-0.000246935
0.000768088
-0.000258707
0.000878339
-0.000266128
0.000989921
-0.000269146
0.00110068
-0.000267355
0.00120885
-0.000261107
0.00131247
-0.000249921
0.00140951
-0.000234269
0.00149851
-0.000214208
0.00157783
-0.00018976
0.00164654
-0.0001612
0.00170327
-0.000129011
0.00174667
-9.33487e-05
0.00177516
-5.45235e-05
0.00179083
-1.19697e-05
0.00178874
3.59045e-05
0.00177073
8.18753e-05
0.00173698
0.000127893
0.00168734
0.00017396
0.0016218
0.000219826
0.00154068
0.000264786
0.00144432
0.000308822
0.00133375
0.000350603
0.00120989
0.000389883
0.00107412
0.000425764
0.000928005
0.000457422
0.000773083
0.000484718
0.00061118
0.000506658
0.000444402
0.000522924
0.000274847
0.00053286
0.000104871
0.000536069
-6.32035e-05
0.000532218
-0.000227094
0.000521494
-0.000384349
0.000503204
-0.00053256
0.000477633
-0.000669572
0.000445189
-0.000793118
0.000405778
-0.00090113
0.000359733
-0.000991758
0.000307868
-0.0010634
0.000250783
-0.00111481
0.000189271
-0.00114488
0.000124281
-0.0011531
5.70129e-05
-0.00113713
-1.47457e-05
-0.00110044
-8.55444e-05
-0.00104238
-0.000153861
-0.000963819
-0.000219379
-0.000865874
-0.00028128
-0.000750604
-0.000337863
-0.000620163
-0.000388136
-0.000477207
-0.0004308
-0.000324704
-0.000464749
-0.00016586
-0.00048907
-4.0574e-06
-0.000502984
0.000157149
-0.000505984
0.000314178
-0.000497879
0.000463527
-0.000478571
0.000601633
-0.000448127
0.000725626
-0.00040773
0.000832139
-0.000357205
0.000919524
-0.000298987
0.000985117
-0.000233262
0.00102732
-0.000161756
0.00104606
-8.69165e-05
0.00104062
-9.99847e-06
0.00101214
6.79286e-05
0.000961223
0.000142223
0.000889389
0.000212605
0.000798933
0.000277121
0.00069248
0.000334224
0.000573206
0.000382222
0.000444518
0.000420124
0.000309752
0.000447157
0.000172733
0.00046235
3.68695e-05
0.000466093
-9.43113e-05
0.000457918
-0.000217719
0.000438831
-0.000330449
0.000409382
-0.000430057
0.000370674
-0.000514578
0.00032392
-0.000582572
0.000270667
-0.000633047
0.000212591
-0.000665545
0.000151342
-0.000680087
8.86317e-05
-0.000677309
2.61116e-05
-0.00065824
-3.46427e-05
-0.00062402
-9.2142e-05
-0.000576378
-0.000145015
-0.000517108
-0.000192247
-0.00044834
-0.000232863
-0.000372214
-0.000266286
-0.000290937
-0.000292019
-0.000206712
-0.000309628
-0.000121683
-0.000319444
-3.77597e-05
-0.000321518
4.30821e-05
-0.000316137
0.00011934
-0.00030405
0.000189526
-0.000285729
0.000252504
-0.000261983
0.000307309
-0.000233717
0.000353322
-0.000201829
0.000389977
-0.000167138
0.000417192
-0.00013073
0.000434944
-9.34381e-05
0.00044327
-5.59683e-05
0.00044285
-1.95498e-05
0.000434171
1.5271e-05
0.000417947
4.79987e-05
0.000394831
7.80329e-05
0.000365864
0.000104741
0.000331922
0.00012792
0.000294093
0.000147083
0.000253277
0.00016233
0.000210561
0.00017332
0.000166838
0.000180306
0.000123141
0.000183149
8.01218e-05
0.000182302
3.88416e-05
0.000177694
-1.20811e-07
0.000169783
-3.61333e-05
0.00015906
-6.86456e-05
0.000145607
-9.72706e-05
0.000130076
-0.000121631
0.000112669
-0.000141534
9.40367e-05
-0.000156802
7.43592e-05
-0.000167439
5.43533e-05
-0.000173438
3.40825e-05
-0.000174958
1.4286e-05
-0.000172207
-4.88441e-06
-0.000165437
-2.30928e-05
-0.000154976
-4.00378e-05
-0.00014119
-5.54346e-05
-0.000124524
-6.90579e-05
-0.000105422
-8.07493e-05
-8.43525e-05
-9.03927e-05
-6.18056e-05
-9.78606e-05
-3.82885e-05
-0.000103106
-1.42785e-05
-0.000106139
9.72444e-06
-0.000106965
3.32775e-05
-0.000105672
5.59309e-05
-0.000102346
7.7289e-05
-9.71144e-05
9.69749e-05
-9.01621e-05
0.000114695
-8.16682e-05
0.000130162
-7.18471e-05
0.000143161
-6.08814e-05
0.000153527
-4.90446e-05
0.00016112
-3.6477e-05
0.000165858
-2.34391e-05
0.000167702
-1.01005e-05
0.000166632
3.32307e-06
0.0001627
1.6614e-05
0.000156
2.96046e-05
0.0001466
4.21256e-05
0.000134705
5.39578e-05
0.000120477
6.49725e-05
0.000104106
7.5023e-05
8.58658e-05
8.39104e-05
6.60135e-05
9.15284e-05
4.4872e-05
9.77114e-05
2.27497e-05
0.000102368
0.00010536
0.000263913
-0.000587275
0.000526031
-0.00058576
0.000782617
-0.000576393
0.00102965
-0.000558997
0.00126407
-0.000534448
0.00148437
-0.000504331
0.00168637
-0.00046604
0.00186167
-0.00041568
0.00200222
-0.000354028
0.00210258
-0.000284403
0.0021584
-0.000208605
0.00216574
-0.000128027
0.00211976
-4.26004e-05
0.00202106
4.11931e-05
0.00189174
0.000101145
0.00173135
0.000157713
0.00154677
0.00020901
0.00134836
0.000253029
0.00113882
0.000288336
0.000922022
0.000313864
0.000704125
0.000328835
0.000489603
0.000332589
0.000284042
0.00032488
9.33318e-05
0.000305561
-7.72305e-05
0.000275185
-0.000224071
0.000234803
-0.000343075
0.000186142
-0.000433655
0.000131451
-0.00049558
7.3446e-05
-0.000517817
9.83324e-06
-0.000493273
-6.76353e-05
-0.000439103
-0.000128013
-0.000364145
-0.000179299
-0.000270465
-0.000227912
-0.00015879
-0.000274162
-3.12548e-05
-0.000316083
0.000109846
-0.000352631
0.00026192
-0.000383174
0.000422033
-0.000407049
0.000587288
-0.000423961
0.000754904
-0.000433744
0.000921756
-0.000435998
0.0010858
-0.000431399
0.00124401
-0.00041932
0.00139391
-0.00039982
0.00153318
-0.000373535
0.0016599
-0.000340931
0.00177226
-0.000302114
0.00186876
-0.000257701
0.00194776
-0.000208017
0.00200797
-0.000153553
0.0020488
-9.53593e-05
0.00207241
-3.55758e-05
0.00207363
3.46859e-05
0.00205463
0.000100869
0.00201506
0.000167473
0.00195498
0.000234033
0.00187444
0.000300369
0.00177403
0.000365198
0.00165493
0.000427919
0.00151841
0.000487123
0.00136572
0.000542571
0.00119887
0.000592616
0.00101951
0.00063678
0.000830067
0.000674164
0.000632806
0.00070392
0.000430224
0.000725505
0.000225
0.000738084
1.99697e-05
0.000741099
-0.000182019
0.000734207
-0.000378145
0.00071762
-0.000565422
0.000690481
-0.000741001
0.000653212
-0.000902057
0.000606244
-0.00104601
0.000549732
-0.00117038
0.000484106
-0.00127333
0.000410811
-0.00135265
0.000330111
-0.00140731
0.00024393
-0.00143532
0.000152287
-0.00143732
5.90168e-05
-0.00141088
-4.11862e-05
-0.00135878
-0.000137647
-0.00128113
-0.00023151
-0.001179
-0.000321508
-0.00105429
-0.000405995
-0.000909384
-0.000482767
-0.000747116
-0.000550404
-0.000570755
-0.000607161
-0.000383988
-0.000651515
-0.000190793
-0.000682265
4.51835e-06
-0.000698295
0.000197803
-0.000699268
0.000384599
-0.000684676
0.000560676
-0.000654647
0.000722433
-0.000609885
0.000865325
-0.000550621
0.000987154
-0.000479034
0.00108415
-0.000395986
0.00115456
-0.000303665
0.00119743
-0.000204628
0.00121179
-0.000101282
0.00119704
4.75674e-06
0.00115596
0.000109008
0.00108871
0.000209469
0.000997792
0.000303526
0.000886294
0.000388619
0.000757568
0.000462951
0.000615306
0.000524484
0.00046388
0.00057155
0.000307496
0.00060354
0.000150499
0.000619347
-3.14615e-06
0.000619737
-0.00014946
0.000604232
-0.000285019
0.00057439
-0.000406839
0.000531202
-0.000512405
0.00047624
-0.000599813
0.000411328
-0.000667686
0.00033854
-0.000715391
0.000260296
-0.000742698
0.000178649
-0.000750255
9.61891e-05
-0.000738973
1.4829e-05
-0.000710284
-6.33311e-05
-0.000665906
-0.000136521
-0.00060789
-0.000203031
-0.000538497
-0.00026164
-0.00046016
-0.0003112
-0.000375325
-0.000351122
-0.000286392
-0.000380952
-0.000195713
-0.000400307
-0.000105531
-0.000409627
-1.79079e-05
-0.00040914
6.54489e-05
-0.000399494
0.000142835
-0.000381437
0.000212977
-0.000355871
0.000274885
-0.000323891
0.000327644
-0.000286476
0.000370852
-0.000245038
0.000404233
-0.000200518
0.000427697
-0.000154195
0.000441373
-0.000107114
0.000445959
-6.05543e-05
0.000441631
-1.52212e-05
0.000429275
2.76262e-05
0.000409646
6.76285e-05
0.000383663
0.000104015
0.000352219
0.000136185
0.000316419
0.00016372
0.000277081
0.00018642
0.000235525
0.000203886
0.000192388
0.000216457
0.000148888
0.000223806
0.000105746
0.000226291
6.3887e-05
0.000224161
2.41221e-05
0.000217459
-1.32253e-05
0.00020713
-4.73437e-05
0.000193178
-7.78337e-05
0.000176097
-0.000104344
0.000156586
-0.000126575
0.0001349
-0.000144417
0.000111879
-0.000157767
8.77092e-05
-0.000166612
6.31984e-05
-0.000171095
3.8566e-05
-0.000171289
1.44799e-05
-0.000167492
-8.68122e-06
-0.000159953
-3.06323e-05
-0.000149013
-5.09775e-05
-0.000135052
-6.93955e-05
-0.000118494
-8.56158e-05
-9.97681e-05
-9.94757e-05
-7.93367e-05
-0.000110824
-5.76573e-05
-0.00011954
-3.51877e-05
-0.000125575
-1.24084e-05
-0.000128919
1.02513e-05
-0.000129625
3.23613e-05
-0.000127782
5.35186e-05
-0.000123504
7.33533e-05
-0.000116949
9.15545e-05
-0.000108363
0.000107835
-9.79489e-05
0.000121964
-8.59759e-05
0.000133771
-7.26886e-05
0.000143104
-5.83778e-05
0.000149866
-4.32388e-05
0.000153975
-2.75483e-05
0.000155395
-1.15203e-05
0.000154173
4.54489e-06
0.000150312
2.04753e-05
0.000143911
3.60059e-05
0.000135107
5.09297e-05
0.000124009
6.50558e-05
0.000110796
7.81848e-05
9.56697e-05
9.01497e-05
7.88457e-05
0.000100734
6.05819e-05
0.000109792
4.11583e-05
0.000117135
2.0862e-05
0.000122665
0.000126222
0.0004346
-0.00102188
0.000865385
-0.00101655
0.00128532
-0.000996332
0.00168551
-0.000959184
0.0020557
-0.000904635
0.00238471
-0.000833346
0.00266201
-0.000743332
0.00288771
-0.000641388
0.0030526
-0.000518917
0.00315812
-0.000389917
0.00320246
-0.000252945
0.00319345
-0.00011902
0.00314737
3.48146e-06
0.00304986
0.0001387
0.00288213
0.000268873
0.00265442
0.00038542
0.00237544
0.000487992
0.00205487
0.000573601
0.00170355
0.000639657
0.00133133
0.000686082
0.000950387
0.000709778
0.000572427
0.000710549
0.000209366
0.00068794
-0.000126461
0.000641388
-0.000427028
0.000575752
-0.000679257
0.000487032
-0.000878544
0.000385429
-0.00101151
0.000264421
-0.00108363
0.000145558
-0.00108994
1.61441e-05
-0.00108081
-7.67662e-05
-0.0010314
-0.000177419
-0.000937019
-0.000273681
-0.000801774
-0.000363157
-0.000632922
-0.000443014
-0.000437679
-0.000511327
-0.000222868
-0.000567441
5.04082e-06
-0.000611083
0.000240411
-0.00064242
0.000478293
-0.000661843
0.000714684
-0.000670136
0.000945468
-0.000666782
0.00116677
-0.000652704
0.0013763
-0.000628845
0.00157178
-0.000595301
0.00175101
-0.000552764
0.00191173
-0.000501659
0.00205223
-0.000442613
0.00217107
-0.000376534
0.00226737
-0.000304325
0.00234179
-0.000227974
0.00239065
-0.000144211
0.00241106
-5.5989e-05
0.00240994
3.58082e-05
0.00238399
0.000126812
0.0023326
0.000218868
0.00225614
0.000310496
0.00215515
0.000401352
0.00203099
0.000489357
0.00188467
0.000574239
0.00171782
0.000653972
0.00153257
0.000727826
0.00133083
0.000794359
0.0011153
0.00085231
0.000888407
0.000901052
0.000653092
0.000939234
0.000412257
0.00096634
0.000169204
0.000981137
-7.27604e-05
0.000983064
-0.000310135
0.000971581
-0.000539672
0.000947157
-0.000757814
0.000908623
-0.000961096
0.000856495
-0.00114659
0.000791741
-0.00131109
0.000714226
-0.00145181
0.000624826
-0.00156612
0.000525126
-0.00165225
0.000416236
-0.00170863
0.000300312
-0.00173397
0.000177627
-0.00172624
5.12922e-05
-0.0016881
-7.93356e-05
-0.00161902
-0.000206723
-0.0015198
-0.000330729
-0.00139211
-0.000449195
-0.00123834
-0.000559772
-0.00106162
-0.000659485
-0.000865611
-0.000746411
-0.000654317
-0.000818455
-0.000432119
-0.000873713
-0.00020354
-0.000910844
2.61152e-05
-0.00092795
0.000251641
-0.000924794
0.000468717
-0.000901752
0.000671436
-0.000857367
0.000855365
-0.000793813
0.00101724
-0.0007125
0.0011519
-0.00061369
0.0012574
-0.000501484
0.00133137
-0.000377642
0.00137239
-0.000245649
0.00137989
-0.000108777
0.0013549
2.97489e-05
0.00129846
0.000165448
0.0012128
0.000295123
0.00110098
0.000415344
0.00096659
0.000523013
0.000814084
0.000615457
0.000648294
0.000690275
0.000473953
0.000745891
0.000296041
0.000781452
0.000119383
0.000796005
-5.10977e-05
0.000790218
-0.000211449
0.000764583
-0.000357823
0.000720764
-0.000487204
0.000660583
-0.000596997
0.000586033
-0.000685513
0.000499844
-0.000751645
0.000404671
-0.00079511
0.000303762
-0.000815949
0.000199488
-0.000815299
9.55388e-05
-0.000794764
-5.70604e-06
-0.000755989
-0.000102106
-0.000701202
-0.000191307
-0.000632847
-0.000271387
-0.000553535
-0.000340951
-0.000466049
-0.000398686
-0.000373104
-0.000444068
-0.000277237
-0.000476818
-0.000180929
-0.000496616
-8.65265e-05
-0.000504029
4.01406e-06
-0.000499681
8.89197e-05
-0.0004844
0.000166763
-0.00045928
0.000236144
-0.000425252
0.000296263
-0.00038401
0.000346687
-0.000336899
0.000386709
-0.000285061
0.000416631
-0.00023044
0.000436204
-0.000173767
0.000446184
-0.000117095
0.000446761
-6.11313e-05
0.000438701
-7.16168e-06
0.000423016
4.33113e-05
0.000400276
9.03687e-05
0.00037166
0.000132632
0.000338149
0.000169696
0.000300634
0.000201235
0.000260391
0.000226663
0.000218059
0.000246219
0.000174991
0.000259525
0.000131896
0.000266901
8.96258e-05
0.000268561
4.90928e-05
0.000264694
1.05992e-05
0.000255952
-2.49733e-05
0.000242703
-5.71725e-05
0.000225377
-8.56738e-05
0.000204598
-0.000110116
0.000181028
-0.000130389
0.000155173
-0.000146289
0.000127779
-0.000157858
9.92783e-05
-0.000165076
7.04163e-05
-0.000168158
4.16479e-05
-0.000167177
1.3499e-05
-0.000162472
-1.33867e-05
-0.000154287
-3.88174e-05
-0.00014298
-6.22846e-05
-0.000128938
-8.34371e-05
-0.000112545
-0.000102009
-9.42348e-05
-0.000117785
-7.44598e-05
-0.000130599
-5.36436e-05
-0.000140356
-3.22049e-05
-0.000147014
-1.05971e-05
-0.000150526
1.07772e-05
-0.000150999
3.15369e-05
-0.000148542
5.12809e-05
-0.000143248
6.97144e-05
-0.000135383
8.65295e-05
-0.000125178
0.000101487
-0.000112906
0.000114383
-9.88724e-05
0.000125083
-8.33882e-05
0.000133473
-6.67682e-05
0.000139463
-4.92289e-05
0.000143009
-3.10938e-05
0.000144078
-1.25896e-05
0.000142702
5.92052e-06
0.000138923
2.42551e-05
0.000132844
4.20841e-05
0.000124558
5.92163e-05
0.000114215
7.53982e-05
0.000101961
9.04388e-05
8.79598e-05
0.000104151
7.24377e-05
0.000116257
5.56244e-05
0.000126605
3.77699e-05
0.000134989
1.91401e-05
0.000141294
0.000145362
0.000835598
-0.00185747
0.00166358
-0.00184452
0.00247235
-0.00180511
0.00324323
-0.00173007