/*--------------------------------*- C++ -*----------------------------------*\
  =========                 |
  \\      /  F ield         | OpenFOAM: The Open Source CFD Toolbox
   \\    /   O peration     | Website:  https://openfoam.org
    \\  /    A nd           | Version:  12
     \\/     M anipulation  |
\*---------------------------------------------------------------------------*/
FoamFile
{
    format      ascii;
    class       volScalarField;
    location    "400";
    object      epsilon;
}
// * * * * * * * * * * * * * * * * * * * * * * * * * * * * * * * * * * * * * //

dimensions      [0 2 -3 0 0 0 0];

internalField   nonuniform List<scalar> 
5000
(
0.124488
0.106991
0.0933064
0.082481
0.0736124
0.0664736
0.0603058
0.0553822
0.0510418
0.047631
0.0442783
0.0404359
0.0388125
0.0357865
0.0346053
0.0320746
0.0309536
0.0297308
0.0277075
0.0267237
0.0250652
0.0242801
0.0228919
0.0222297
0.0211267
0.124496
0.106982
0.0933096
0.0824616
0.0736587
0.0663883
0.0604365
0.0552206
0.0511202
0.0478505
0.0446995
0.0422096
0.0389196
0.0357388
0.0343726
0.0318706
0.0308195
0.0287636
0.0278956
0.0261636
0.025401
0.0245742
0.0231285
0.0224243
0.0212156
0.124509
0.106961
0.0933303
0.0824356
0.073686
0.066344
0.0604758
0.0552857
0.0508958
0.0475001
0.0439809
0.0402005
0.0386065
0.0355961
0.0343815
0.0319234
0.0308955
0.0288105
0.0278909
0.0268978
0.0251999
0.0243786
0.0229681
0.0222768
0.0211861
0.124514
0.106951
0.0933458
0.0824231
0.0736865
0.066425
0.0604643
0.0558753
0.0515802
0.0463931
0.0445478
0.0408134
0.0392769
0.0362
0.0350647
0.0327715
0.0303773
0.0292712
0.0273552
0.0264731
0.0248768
0.0241585
0.0228166
0.022234
0.0215039
0.12451
0.106958
0.0933405
0.0824262
0.0736795
0.0664137
0.0603454
0.0554849
0.0511454
0.047828
0.0436174
0.0420742
0.0387093
0.0374141
0.0345536
0.0334412
0.0312516
0.0290296
0.0279697
0.0261771
0.0253408
0.0238537
0.0231869
0.0219374
0.0213754
0.12451
0.106963
0.09333
0.0824577
0.0736418
0.0664869
0.0602597
0.0556462
0.0509644
0.0473196
0.0431596
0.0415143
0.0381983
0.0369223
0.0342032
0.0331855
0.0308547
0.0297716
0.0283827
0.0264815
0.0255162
0.023979
0.0232353
0.0219611
0.0212477
0.124479
0.107009
0.0932915
0.0824877
0.0736328
0.066423
0.0603991
0.0552608
0.0510302
0.0476294
0.0440547
0.040272
0.0386529
0.0356632
0.0343979
0.0319308
0.0307959
0.0295575
0.0275686
0.0265968
0.0249687
0.0242098
0.0228521
0.0222628
0.0215013
0.124487
0.106999
0.0933146
0.0824591
0.0736776
0.0663761
0.0604806
0.0552518
0.05156
0.0481408
0.0437685
0.0424044
0.0388559
0.0373674
0.0347169
0.0320682
0.0308498
0.0287405
0.0277852
0.0260528
0.0252835
0.0244544
0.0230284
0.0223399
0.0211726
0.124507
0.106963
0.0933313
0.0824351
0.0736904
0.066341
0.0604798
0.0552671
0.0509214
0.0475062
0.0439654
0.0402042
0.0385862
0.0355835
0.0343241
0.031856
0.0308081
0.0287252
0.0278296
0.0268476
0.0251666
0.0243519
0.022945
0.0222552
0.021131
0.124511
0.106958
0.0933438
0.0824151
0.0736967
0.0663584
0.0604185
0.0552817
0.0510531
0.0477757
0.0447048
0.0421379
0.0388709
0.0356947
0.0342874
0.0317952
0.0307008
0.0286409
0.0277724
0.0260511
0.0253171
0.024511
0.0230861
0.0223922
0.0212072
0.124491
0.106989
0.0933072
0.0824633
0.0736555
0.0663908
0.0603993
0.0553666
0.0513111
0.0480222
0.0437745
0.0420736
0.0386236
0.0372591
0.0346776
0.0320529
0.0308539
0.0287568
0.0278319
0.0260961
0.02535
0.0238937
0.0232708
0.0225633
0.0214047
0.1245
0.106974
0.0933235
0.0824422
0.0736638
0.066388
0.0604116
0.0553273
0.051176
0.0475396
0.0452204
0.0412412
0.0396225
0.0366972
0.0338283
0.0325018
0.0301945
0.0291597
0.0272658
0.0264392
0.0248572
0.0241904
0.0234659
0.0221581
0.0214196
0.124514
0.10695
0.0933456
0.0824264
0.0736815
0.0664306
0.0604612
0.0558799
0.051609
0.0463735
0.0445725
0.0408182
0.0392812
0.0361848
0.0350285
0.0327014
0.0302934
0.0291987
0.0272768
0.0264131
0.0248188
0.024126
0.0227902
0.0222181
0.0214855
0.124517
0.106947
0.0933496
0.0824213
0.0736874
0.0664254
0.0604634
0.0558742
0.051596
0.0463757
0.0445523
0.0408191
0.0392844
0.0362055
0.0350565
0.032745
0.0303409
0.0292259
0.0273053
0.0264225
0.0248291
0.0241172
0.0227798
0.0222026
0.0214812
0.124514
0.106952
0.0933421
0.0824335
0.0736587
0.0664318
0.0604539
0.0558804
0.0505136
0.0471586
0.0430941
0.0415662
0.0382363
0.0369426
0.034189
0.0330871
0.031156
0.0289519
0.0278927
0.0261103
0.0252784
0.0237983
0.0231323
0.0218884
0.0213288
0.124511
0.106959
0.0933294
0.0824391
0.073682
0.0663553
0.0605157
0.0552433
0.0506496
0.0469873
0.042791
0.0411178
0.0378245
0.0365241
0.0338247
0.0327672
0.0304653
0.0294022
0.0282341
0.0263637
0.0254374
0.0239072
0.0231781
0.0219043
0.0211947
0.124513
0.106956
0.093333
0.0824349
0.0736889
0.0663473
0.0605297
0.0552408
0.0506331
0.0469757
0.042773
0.0410747
0.0377731
0.0364541
0.0337587
0.0326997
0.0304004
0.0293619
0.0282181
0.0263559
0.0254342
0.0239051
0.0231733
0.0218979
0.0211839
0.124514
0.106954
0.093335
0.0824341
0.0736803
0.0663613
0.0605035
0.0552228
0.0507175
0.0469838
0.042814
0.0411009
0.0378151
0.0364798
0.0337939
0.0326921
0.0303997
0.029356
0.0282093
0.0263562
0.025437
0.0239164
0.023188
0.0219197
0.0212078
0.124514
0.106951
0.0933451
0.0824253
0.0736838
0.0664277
0.0604591
0.0558769
0.0515891
0.0463368
0.0445301
0.0408363
0.0394082
0.0363049
0.035155
0.0328082
0.030398
0.0292922
0.027364
0.0264726
0.0248687
0.0241464
0.0228005
0.0222215
0.0214789
0.124512
0.106959
0.0933313
0.0824414
0.0736642
0.0664027
0.0605217
0.0550548
0.0505175
0.0461016
0.0439089
0.0402671
0.0388245
0.0358078
0.0346441
0.0321418
0.0309371
0.0295999
0.0275724
0.026574
0.0249257
0.0241477
0.0227797
0.0221624
0.0210125
0.119792
0.0961575
0.0788174
0.0659521
0.0558494
0.0481768
0.041965
0.0369562
0.0331372
0.0288476
0.0263271
0.0239748
0.0209427
0.0193167
0.017878
0.0165398
0.0153556
0.0142991
0.0133427
0.0124809
0.0116945
0.0109826
0.0103297
0.00973701
0.00919285
0.119795
0.0961512
0.0788292
0.065923
0.0558988
0.0481018
0.0419677
0.0369868
0.0329515
0.0292589
0.0261698
0.0238069
0.0213262
0.0196183
0.018102
0.0167049
0.0154678
0.0143667
0.0133881
0.0125081
0.0117178
0.0110046
0.0103516
0.00975885
0.00921393
0.119798
0.0961496
0.0788229
0.0659432
0.0558576
0.0481613
0.0419689
0.0369613
0.0329549
0.0294898
0.0258806
0.0237312
0.0214071
0.0195223
0.0179969
0.0166335
0.0154127
0.0143241
0.0133556
0.0124883
0.0117003
0.0109888
0.0103373
0.00974553
0.00920312
0.119794
0.096156
0.07883
0.0659242
0.0559025
0.0481006
0.0419897
0.0369299
0.0329663
0.0295644
0.0259884
0.0237964
0.0212471
0.0195313
0.0180459
0.0167264
0.0154953
0.0143914
0.0133991
0.0125123
0.0117101
0.0109893
0.0103327
0.00974008
0.00920001
0.119804
0.0961374
0.0788428
0.0659068
0.0559103
0.0480905
0.0419679
0.0369651
0.0328686
0.0296115
0.0260347
0.0238219
0.0213398
0.0195515
0.018035
0.0167152
0.0155093
0.0144052
0.0134168
0.0125252
0.0117237
0.0109977
0.0103414
0.00974422
0.00920239
0.119798
0.0961499
0.0788189
0.0659389
0.0558778
0.0481311
0.0420016
0.0369689
0.0328667
0.02967
0.0261022
0.0238049
0.0213749
0.0195038
0.0179872
0.0166556
0.0154582
0.0143872
0.0134205
0.0125426
0.0117482
0.0110244
0.0103667
0.00976584
0.00921804
0.119786
0.0961657
0.0788131
0.0659459
0.0558814
0.0481253
0.0419831
0.036992
0.0328554
0.0296948
0.0258763
0.0236667
0.0215948
0.0194985
0.0179591
0.0166121
0.0154013
0.0143156
0.0133383
0.0124638
0.0116718
0.0109592
0.0103089
0.00972128
0.00918468
0.119801
0.0961408
0.0788341
0.0659177
0.0558933
0.0481151
0.0419743
0.0369847
0.0328752
0.0295679
0.0258522
0.0239106
0.0214026
0.0196227
0.0181207
0.0167697
0.0155237
0.0144046
0.01341
0.0125174
0.0117178
0.0109979
0.0103405
0.00974483
0.00919935
0.119799
0.0961476
0.0788262
0.0659396
0.055863
0.048157
0.0419664
0.0369675
0.0329371
0.0295177
0.0258347
0.0237567
0.0214492
0.0195211
0.0179944
0.0166316
0.0154041
0.0143111
0.0133407
0.0124732
0.0116864
0.0109766
0.010327
0.00973702
0.00919592
0.119804
0.0961397
0.0788461
0.0659029
0.0559138
0.0481046
0.0420108
0.0368977
0.0329899
0.0296305
0.0257115
0.0237818
0.0213871
0.019426
0.0179374
0.0165951
0.0153658
0.0142716
0.013302
0.0124324
0.0116533
0.010951
0.010308
0.00972387
0.00918714
0.119799
0.0961471
0.0788391
0.0659111
0.0559141
0.0480848
0.0419871
0.0369324
0.0330004
0.0293219
0.0258459
0.0238769
0.0213524
0.0196126
0.0181066
0.0167449
0.0154935
0.0143763
0.0133856
0.012498
0.0117039
0.010986
0.010338
0.00975075
0.00921135
0.119797
0.0961484
0.0788296
0.0659233
0.0558916
0.0481133
0.0419744
0.0369628
0.0329286
0.0295581
0.0257839
0.0237759
0.0214156
0.0195746
0.0180691
0.0167275
0.0154793
0.014372
0.01338
0.012496
0.0116978
0.010982
0.0103336
0.00974176
0.00920187
0.119808
0.0961323
0.0788491
0.065899
0.0559181
0.0480848
0.0419665
0.0369251
0.0329882
0.0294894
0.0261768
0.0237996
0.0211859
0.0194917
0.0180221
0.016707
0.0154776
0.0143774
0.0133877
0.0125028
0.0117018
0.0109819
0.0103256
0.00973305
0.00919267
0.119804
0.0961385
0.0788433
0.0659065
0.0559132
0.0480906
0.0419653
0.0369308
0.0329916
0.0294763
0.0261775
0.0238011
0.0211699
0.0194796
0.0180143
0.0167002
0.0154717
0.014374
0.0133862
0.0125024
0.011702
0.010982
0.0103254
0.00973237
0.00919165
0.11979
0.0961599
0.0788121
0.065947
0.0558739
0.0481372
0.0419968
0.0369384
0.0330195
0.0293637
0.0258541
0.0237749
0.0212576
0.0194932
0.0179896
0.016655
0.0154357
0.0143442
0.0133691
0.0124893
0.011697
0.0109771
0.0103245
0.00972903
0.00918764
0.119797
0.0961527
0.0788171
0.0659452
0.0558643
0.0481527
0.0419717
0.0369729
0.0329699
0.0294109
0.0258496
0.0237638
0.0213489
0.0194098
0.0179144
0.0165765
0.0153655
0.0142952
0.0133381
0.012472
0.0116891
0.0109752
0.0103258
0.00973114
0.00918918
0.119801
0.0961428
0.0788305
0.0659258
0.055885
0.0481267
0.0419674
0.0369613
0.0329636
0.0293999
0.0258738
0.0237592
0.0213559
0.0194056
0.0179093
0.0165688
0.0153577
0.0142884
0.0133326
0.0124674
0.0116851
0.0109716
0.0103223
0.00972767
0.00918576
0.119801
0.0961447
0.0788299
0.065937
0.0558658
0.0481577
0.0419509
0.0369753
0.0329994
0.0292162
0.0260551
0.0238902
0.0213248
0.0194341
0.0179267
0.0165747
0.0153693
0.0143031
0.0133481
0.0124828
0.0116997
0.0109854
0.0103354
0.00974031
0.0091981
0.119791
0.0961609
0.078809
0.0659503
0.0558634
0.0481524
0.0419958
0.0369343
0.0330771
0.0291992
0.0263085
0.0238449
0.0210999
0.0194522
0.0180098
0.0166655
0.0154403
0.0143535
0.0133758
0.0124999
0.0117046
0.0109877
0.0103328
0.00974027
0.00920043
0.119802
0.096148
0.0788213
0.0659453
0.0558535
0.0481633
0.0420046
0.0369116
0.0330057
0.0294826
0.025998
0.0237919
0.021186
0.0194419
0.0179765
0.016636
0.015426
0.0143475
0.0133747
0.0125012
0.011707
0.0109896
0.0103332
0.00973795
0.00919274
0.119789
0.0960539
0.0786172
0.0656152
0.0554629
0.0476306
0.0414469
0.0364631
0.0322686
0.0287894
0.025798
0.0232946
0.0210551
0.019207
0.0174977
0.0161107
0.0147586
0.0137099
0.0126033
0.0118116
0.0108723
0.0102903
0.00945357
0.00908863
0.00812078
0.119789
0.096054
0.0786175
0.0656135
0.0554662
0.0476255
0.0414497
0.0364637
0.0322674
0.0287969
0.0257953
0.0232904
0.021058
0.0192119
0.0175018
0.0161142
0.0147602
0.013711
0.0126034
0.0118127
0.0108727
0.0102919
0.0094543
0.00908935
0.00812402
0.119789
0.0960533
0.0786174
0.0656151
0.0554627
0.0476307
0.0414494
0.0364622
0.0322708
0.0287959
0.025789
0.0232949
0.021061
0.0192104
0.0174992
0.0161122
0.0147587
0.0137104
0.0126033
0.011813
0.0108735
0.01029
0.00946736
0.0090245
0.00821511
0.119788
0.0960547
0.0786174
0.0656138
0.0554659
0.0476263
0.0414499
0.0364612
0.0322711
0.0287961
0.0257904
0.0232909
0.021058
0.0192107
0.0175022
0.016117
0.0147624
0.0137117
0.0126028
0.0118116
0.0108716
0.010291
0.00945365
0.00908899
0.00812327
0.119789
0.0960526
0.0786186
0.0656124
0.0554659
0.0476267
0.041449
0.0364614
0.0322688
0.0287986
0.0257901
0.0232886
0.0210567
0.0192099
0.0175001
0.016117
0.0147624
0.0137134
0.012603
0.0118132
0.0108713
0.0102926
0.00945369
0.00908887
0.00812794
0.119789
0.0960539
0.0786163
0.0656154
0.0554628
0.04763
0.0414513
0.0364617
0.0322698
0.0288
0.0257899
0.0232898
0.0210574
0.0192099
0.0174995
0.0161146
0.0147602
0.0137125
0.0126035
0.0118142
0.0108723
0.0102932
0.00945388
0.00908871
0.00812813
0.119788
0.0960553
0.0786161
0.0656153
0.0554645
0.0476279
0.0414507
0.0364621
0.0322697
0.0287998
0.0257901
0.0232917
0.0210601
0.0192102
0.0174986
0.0161128
0.0147584
0.0137093
0.0126009
0.0118107
0.0108703
0.0102904
0.00945262
0.00908801
0.0081243
0.11979
0.0960524
0.0786183
0.0656127
0.0554658
0.0476264
0.0414502
0.0364624
0.0322678
0.0287992
0.0257908
0.0232891
0.0210579
0.0192114
0.0175032
0.0161172
0.0147622
0.0137122
0.0126038
0.0118127
0.0108729
0.0102888
0.00946612
0.00902324
0.0082138
0.119789
0.0960532
0.0786177
0.0656147
0.0554633
0.0476302
0.0414494
0.0364622
0.0322705
0.0287963
0.025789
0.0232946
0.0210611
0.0192103
0.0174993
0.0161123
0.0147585
0.0137098
0.0126029
0.0118125
0.0108734
0.0102897
0.00946739
0.00902389
0.00821568
0.11979
0.0960529
0.0786194
0.0656116
0.0554673
0.0476254
0.0414507
0.0364597
0.032272
0.0287954
0.0257877
0.0232923
0.0210579
0.0192081
0.0174983
0.0161116
0.0147574
0.0137084
0.0126016
0.0118113
0.0108725
0.0102889
0.00946685
0.00902332
0.00821535
0.119789
0.0960536
0.0786184
0.0656125
0.055467
0.0476252
0.0414496
0.036462
0.0322697
0.0287958
0.0257917
0.0232917
0.0210582
0.0192113
0.0175019
0.0161166
0.0147607
0.0137115
0.0126022
0.0118129
0.0108718
0.010293
0.00945402
0.00908929
0.00812806
0.119789
0.0960534
0.0786177
0.0656133
0.0554653
0.0476269
0.0414493
0.0364623
0.0322695
0.0287966
0.0257908
0.0232901
0.0210583
0.0192108
0.017502
0.0161157
0.0147613
0.0137109
0.0126031
0.0118117
0.0108722
0.010291
0.00945382
0.00908892
0.00812196
0.11979
0.0960514
0.07862
0.0656105
0.055468
0.0476245
0.0414483
0.036461
0.0322707
0.0287938
0.0257909
0.0232908
0.0210573
0.0192099
0.017502
0.0161164
0.0147622
0.0137112
0.012603
0.0118113
0.0108717
0.0102906
0.00945343
0.00908851
0.00812125
0.11979
0.0960523
0.0786192
0.0656115
0.0554671
0.0476252
0.0414482
0.0364616
0.0322707
0.0287938
0.0257912
0.0232912
0.0210571
0.0192099
0.0175019
0.0161164
0.014762
0.0137113
0.0126028
0.0118113
0.0108715
0.0102904
0.00945321
0.0090883
0.00812122
0.119788
0.0960552
0.0786154
0.0656161
0.055463
0.0476297
0.0414503
0.036463
0.0322713
0.0287948
0.0257924
0.0232938
0.0210572
0.0192097
0.0174997
0.0161146
0.0147594
0.0137109
0.0126015
0.0118121
0.0108705
0.0102917
0.00945282
0.00908795
0.00812689
0.119789
0.0960541
0.0786164
0.065616
0.0554619
0.0476311
0.0414499
0.0364635
0.032271
0.0287948
0.0257921
0.0232966
0.0210589
0.0192091
0.017498
0.0161124
0.0147579
0.0137106
0.0126022
0.0118128
0.0108718
0.0102896
0.00946497
0.00902551
0.00821264
0.119789
0.0960527
0.078618
0.0656136
0.0554645
0.0476282
0.0414495
0.0364619
0.0322708
0.028794
0.0257923
0.0232963
0.0210595
0.0192087
0.0174984
0.0161117
0.0147588
0.0137103
0.0126035
0.0118123
0.0108733
0.0102886
0.00946702
0.00902189
0.00821565
0.119789
0.0960531
0.0786179
0.0656146
0.0554634
0.0476308
0.0414484
0.0364638
0.0322698
0.0287933
0.0257942
0.0232972
0.0210591
0.0192091
0.0174981
0.0161116
0.0147589
0.0137109
0.0126038
0.0118129
0.0108737
0.0102894
0.00946771
0.00902289
0.0082166
0.119788
0.0960553
0.0786151
0.0656164
0.0554621
0.0476305
0.0414501
0.0364639
0.0322706
0.0287933
0.025794
0.0232925
0.021056
0.0192104
0.0175009
0.0161151
0.0147599
0.0137113
0.0126021
0.0118127
0.0108719
0.0102906
0.00946577
0.00902745
0.00821373
0.11979
0.0960529
0.0786174
0.0656151
0.0554623
0.0476306
0.0414436
0.0364559
0.0322683
0.0287909
0.0257874
0.0232925
0.0210566
0.019208
0.0174989
0.0161125
0.0147592
0.0137103
0.012603
0.0118121
0.0108728
0.0102888
0.00946691
0.0090229
0.00821524
0.119788
0.0960537
0.0786104
0.0656083
0.0554493
0.0476156
0.0414292
0.0364432
0.032243
0.0287728
0.0257652
0.0232672
0.0210329
0.019189
0.0174738
0.0160895
0.0147304
0.0136832
0.0125707
0.0117816
0.0108379
0.0102578
0.009418
0.00905361
0.00808061
0.119787
0.0960542
0.0786099
0.0656088
0.0554488
0.0476162
0.0414313
0.036445
0.0322441
0.0287741
0.0257657
0.0232679
0.0210331
0.0191896
0.0174738
0.01609
0.0147302
0.0136837
0.0125702
0.0117821
0.0108374
0.0102583
0.00941769
0.0090533
0.00808278
0.119787
0.0960541
0.07861
0.0656088
0.0554487
0.0476164
0.0414314
0.0364451
0.0322442
0.0287741
0.0257656
0.0232681
0.0210331
0.0191897
0.0174737
0.0160901
0.01473
0.0136838
0.01257
0.0117823
0.0108376
0.0102563
0.00943022
0.00898751
0.00817519
0.119787
0.0960542
0.07861
0.0656087
0.0554489
0.0476162
0.0414313
0.036445
0.0322442
0.0287741
0.0257657
0.023268
0.0210331
0.0191897
0.0174737
0.0160902
0.0147302
0.0136839
0.01257
0.0117823
0.010837
0.0102587
0.00941731
0.00905303
0.00808503
0.119787
0.0960545
0.0786096
0.0656093
0.0554482
0.0476171
0.0414313
0.0364454
0.032244
0.0287745
0.0257654
0.0232684
0.0210327
0.0191901
0.0174732
0.0160907
0.0147296
0.0136845
0.0125694
0.0117829
0.0108367
0.0102572
0.00942887
0.00899018
0.00817336
0.119787
0.0960544
0.0786097
0.0656091
0.0554484
0.0476167
0.0414314
0.0364452
0.0322442
0.0287742
0.0257656
0.0232681
0.0210331
0.0191896
0.0174737
0.0160901
0.0147302
0.0136837
0.0125703
0.0117819
0.010838
0.0102556
0.00943118
0.00898553
0.00817731
0.119787
0.0960543
0.0786098
0.0656089
0.0554487
0.0476164
0.0414314
0.0364451
0.0322442
0.0287742
0.0257656
0.0232681
0.0210331
0.0191897
0.0174737
0.0160901
0.0147301
0.0136837
0.0125701
0.011782
0.0108377
0.0102559
0.00943059
0.00898656
0.00817617
0.119787
0.0960539
0.0786102
0.0656085
0.0554491
0.047616
0.0414314
0.0364449
0.0322442
0.028774
0.0257658
0.0232679
0.0210332
0.0191895
0.0174739
0.01609
0.0147303
0.0136836
0.0125703
0.011782
0.0108375
0.0102584
0.00941749
0.00905324
0.0080833
0.119787
0.096054
0.0786102
0.0656086
0.055449
0.0476161
0.0414314
0.0364449
0.0322442
0.028774
0.0257657
0.023268
0.0210333
0.0191896
0.0174738
0.01609
0.0147302
0.0136836
0.0125702
0.0117821
0.0108374
0.0102585
0.00941754
0.00905324
0.00808384
0.119787
0.0960541
0.0786101
0.0656086
0.055449
0.047616
0.0414314
0.036445
0.0322442
0.028774
0.0257657
0.023268
0.0210331
0.0191896
0.0174737
0.0160901
0.01473
0.0136837
0.01257
0.0117822
0.0108376
0.0102562
0.00943024
0.0089874
0.00817524
0.119787
0.0960546
0.0786096
0.0656093
0.0554483
0.0476169
0.0414313
0.0364454
0.032244
0.0287744
0.0257655
0.0232684
0.0210328
0.0191901
0.0174733
0.0160907
0.0147296
0.0136843
0.0125694
0.0117829
0.0108364
0.0102594
0.00941691
0.00905258
0.00808762
0.119787
0.0960542
0.0786099
0.0656088
0.0554487
0.0476163
0.0414314
0.0364451
0.0322442
0.0287741
0.0257657
0.023268
0.0210332
0.0191896
0.0174739
0.01609
0.0147303
0.0136835
0.0125704
0.0117819
0.0108376
0.0102581
0.00941784
0.00905342
0.00808144
0.119787
0.0960539
0.0786103
0.0656084
0.0554492
0.0476159
0.0414313
0.0364449
0.0322442
0.0287739
0.0257658
0.0232679
0.0210332
0.0191895
0.0174739
0.01609
0.0147304
0.0136836
0.0125703
0.0117819
0.0108374
0.0102583
0.0094177
0.00905327
0.00808262
0.119787
0.096054
0.0786102
0.0656085
0.0554491
0.047616
0.0414313
0.036445
0.0322442
0.0287739
0.0257658
0.0232679
0.0210332
0.0191895
0.0174739
0.0160901
0.0147304
0.0136836
0.0125703
0.0117819
0.0108374
0.0102583
0.00941768
0.00905326
0.0080826
0.119787
0.0960545
0.0786097
0.0656091
0.0554484
0.0476167
0.0414314
0.0364453
0.0322441
0.0287742
0.0257657
0.0232681
0.0210331
0.0191897
0.0174737
0.0160902
0.0147302
0.0136837
0.0125701
0.0117821
0.0108373
0.0102584
0.00941766
0.00905329
0.00808292
0.119787
0.0960544
0.0786097
0.0656091
0.0554484
0.0476167
0.0414314
0.0364452
0.0322442
0.0287742
0.0257657
0.0232681
0.0210332
0.0191896
0.0174737
0.01609
0.0147302
0.0136836
0.0125703
0.0117819
0.010838
0.0102556
0.00943116
0.00898546
0.00817722
0.119787
0.0960543
0.0786099
0.0656089
0.0554486
0.0476166
0.0414314
0.0364451
0.0322442
0.0287741
0.0257657
0.0232681
0.0210332
0.0191896
0.0174738
0.01609
0.0147302
0.0136836
0.0125704
0.0117818
0.0108381
0.0102555
0.00943126
0.00898506
0.00817791
0.119787
0.0960543
0.0786098
0.065609
0.0554485
0.0476167
0.0414313
0.0364453
0.0322441
0.0287742
0.0257655
0.0232683
0.0210329
0.0191899
0.0174734
0.0160905
0.0147297
0.0136843
0.0125695
0.0117829
0.0108368
0.0102573
0.0094286
0.00899038
0.00817354
0.119787
0.0960543
0.0786098
0.0656089
0.0554486
0.0476164
0.0414313
0.0364451
0.032244
0.028774
0.0257656
0.023268
0.021033
0.0191896
0.0174737
0.0160902
0.0147301
0.0136838
0.01257
0.0117822
0.0108372
0.0102587
0.00941738
0.00905321
0.00808473
0.119787
0.0960541
0.07861
0.0656088
0.0554487
0.0476164
0.041424
0.0364398
0.0322398
0.028771
0.025763
0.0232664
0.0210315
0.0191888
0.0174727
0.0160899
0.0147294
0.0136839
0.0125696
0.0117826
0.0108368
0.0102592
0.00941726
0.00905296
0.00808636
0.119787
0.0960538
0.0786079
0.0656059
0.0554445
0.0476117
0.041424
0.0364381
0.0322373
0.0287676
0.0257593
0.0232618
0.0210272
0.0191839
0.0174683
0.0160847
0.0147251
0.0136785
0.0125655
0.0117771
0.0108329
0.0102536
0.00941327
0.00904897
0.00807781
0.119787
0.0960544
0.0786073
0.0656067
0.0554436
0.0476128
0.0414261
0.0364402
0.0322383
0.0287689
0.0257597
0.0232629
0.0210272
0.0191847
0.017468
0.0160855
0.0147245
0.0136794
0.0125646
0.0117781
0.0108318
0.0102546
0.00941255
0.00904819
0.00808211
0.119787
0.096054
0.0786077
0.0656062
0.0554442
0.0476121
0.0414262
0.0364399
0.0322385
0.0287687
0.02576
0.0232625
0.0210275
0.0191844
0.0174684
0.016085
0.014725
0.0136788
0.0125652
0.0117774
0.0108326
0.0102539
0.00941293
0.0090487
0.00807951
0.119787
0.0960538
0.0786078
0.065606
0.0554444
0.0476118
0.0414262
0.0364397
0.0322385
0.0287686
0.02576
0.0232625
0.0210276
0.0191843
0.0174684
0.016085
0.0147251
0.0136788
0.0125653
0.0117773
0.0108331
0.0102513
0.00942609
0.00898238
0.00817117
0.119787
0.0960542
0.0786074
0.0656065
0.0554438
0.0476125
0.0414261
0.0364401
0.0322384
0.0287689
0.0257598
0.0232629
0.0210272
0.0191848
0.0174679
0.0160856
0.0147244
0.0136796
0.0125644
0.0117784
0.0108314
0.0102552
0.00941197
0.00904781
0.00808556
0.119787
0.0960544
0.0786072
0.0656068
0.0554436
0.0476129
0.0414262
0.0364402
0.0322383
0.028769
0.0257597
0.0232629
0.0210272
0.0191848
0.017468
0.0160856
0.0147245
0.0136795
0.0125645
0.0117781
0.0108321
0.0102525
0.0094244
0.00898525
0.00816958
0.119787
0.0960542
0.0786074
0.0656066
0.0554438
0.0476125
0.0414262
0.0364401
0.0322384
0.0287689
0.0257598
0.0232628
0.0210273
0.0191847
0.0174681
0.0160854
0.0147246
0.0136793
0.0125647
0.011778
0.0108323
0.0102524
0.00942448
0.00898494
0.00817008
0.119787
0.0960538
0.0786079
0.065606
0.0554445
0.0476118
0.0414262
0.0364397
0.0322385
0.0287685
0.02576
0.0232624
0.0210276
0.0191843
0.0174685
0.0160849
0.0147251
0.0136787
0.0125653
0.0117773
0.0108326
0.0102538
0.00941299
0.00904872
0.0080792
0.119787
0.0960537
0.078608
0.0656058
0.0554446
0.0476116
0.0414262
0.0364396
0.0322386
0.0287684
0.0257601
0.0232623
0.0210277
0.0191841
0.0174686
0.0160848
0.0147253
0.0136785
0.0125656
0.011777
0.010833
0.0102534
0.00941338
0.00904899
0.0080769
0.119787
0.0960539
0.0786078
0.0656061
0.0554444
0.0476119
0.0414262
0.0364398
0.0322385
0.0287686
0.02576
0.0232625
0.0210276
0.0191844
0.0174684
0.0160851
0.014725
0.0136789
0.0125651
0.0117775
0.0108324
0.0102541
0.00941277
0.00904854
0.00808073
0.119787
0.0960544
0.0786073
0.0656067
0.0554436
0.0476128
0.0414262
0.0364402
0.0322383
0.028769
0.0257597
0.0232629
0.0210272
0.0191848
0.0174679
0.0160856
0.0147244
0.0136795
0.0125645
0.0117782
0.0108321
0.0102525
0.00942433
0.00898566
0.00816888
0.119787
0.0960541
0.0786076
0.0656064
0.055444
0.0476123
0.0414262
0.03644
0.0322384
0.0287688
0.0257598
0.0232628
0.0210273
0.0191847
0.017468
0.0160855
0.0147245
0.0136795
0.0125645
0.0117783
0.0108315
0.010255
0.00941218
0.0090479
0.00808456
0.119787
0.0960538
0.0786079
0.065606
0.0554444
0.0476118
0.0414262
0.0364398
0.0322385
0.0287686
0.02576
0.0232625
0.0210276
0.0191843
0.0174684
0.016085
0.014725
0.0136788
0.0125652
0.0117773
0.010833
0.0102514
0.00942603
0.00898246
0.00817109
0.119787
0.0960538
0.0786078
0.065606
0.0554444
0.0476119
0.0414262
0.0364398
0.0322385
0.0287686
0.02576
0.0232625
0.0210276
0.0191844
0.0174684
0.0160851
0.014725
0.0136789
0.0125651
0.0117774
0.0108329
0.0102516
0.00942565
0.008983
0.00817072
0.119787
0.0960543
0.0786073
0.0656067
0.0554437
0.0476128
0.0414262
0.0364402
0.0322384
0.028769
0.0257597
0.0232629
0.0210272
0.0191848
0.017468
0.0160855
0.0147245
0.0136794
0.0125646
0.0117782
0.0108317
0.0102547
0.00941236
0.00904808
0.0080831
0.119787
0.0960543
0.0786074
0.0656066
0.0554438
0.0476126
0.0414262
0.0364401
0.0322384
0.0287689
0.0257598
0.0232628
0.0210273
0.0191847
0.017468
0.0160855
0.0147246
0.0136794
0.0125646
0.011778
0.0108322
0.0102524
0.0094244
0.00898531
0.00816947
0.119787
0.0960543
0.0786074
0.0656066
0.0554438
0.0476126
0.0414262
0.0364401
0.0322384
0.0287689
0.0257598
0.0232628
0.0210273
0.0191847
0.0174681
0.0160854
0.0147246
0.0136793
0.0125647
0.011778
0.0108323
0.0102523
0.00942452
0.00898484
0.00817018
0.119787
0.0960539
0.0786078
0.0656061
0.0554443
0.047612
0.0414262
0.0364398
0.0322385
0.0287686
0.02576
0.0232625
0.0210275
0.0191844
0.0174683
0.0160851
0.0147249
0.013679
0.012565
0.0117777
0.0108323
0.0102543
0.00941258
0.00904846
0.00808155
0.119787
0.0960541
0.0786076
0.0656063
0.0554441
0.0476123
0.0414261
0.0364399
0.0322383
0.0287687
0.0257597
0.0232627
0.0210272
0.0191847
0.0174679
0.0160855
0.0147244
0.0136795
0.0125644
0.0117783
0.0108319
0.0102529
0.00942382
0.00898683
0.00816771
0.119787
0.0960535
0.0786081
0.0656056
0.0554448
0.0476114
0.0414189
0.0364342
0.0322343
0.0287653
0.0257575
0.0232606
0.0210262
0.0191832
0.0174677
0.0160844
0.0147247
0.0136785
0.0125652
0.0117773
0.0108327
0.0102539
0.00941315
0.00904895
0.00807921
0.119787
0.0960538
0.0786067
0.0656049
0.055442
0.0476099
0.0414213
0.0364355
0.0322342
0.0287649
0.0257561
0.0232591
0.021024
0.0191814
0.0174651
0.0160824
0.0147219
0.0136765
0.0125623
0.0117753
0.0108302
0.0102497
0.00942309
0.00898178
0.00816877
0.119787
0.0960539
0.0786066
0.0656049
0.0554419
0.04761
0.0414234
0.0364371
0.0322354
0.0287658
0.0257567
0.0232597
0.0210243
0.0191818
0.0174651
0.0160827
0.0147218
0.0136769
0.012562
0.0117758
0.0108296
0.0102505
0.00942171
0.00898429
0.00816633
0.119787
0.0960537
0.0786068
0.0656046
0.0554422
0.0476096
0.0414235
0.036437
0.0322355
0.0287656
0.0257569
0.0232595
0.0210246
0.0191815
0.0174655
0.0160823
0.0147223
0.0136763
0.0125626
0.0117751
0.01083
0.0102519
0.0094106
0.00904642
0.00807872
0.119787
0.0960536
0.0786068
0.0656046
0.0554422
0.0476096
0.0414236
0.036437
0.0322356
0.0287656
0.025757
0.0232594
0.0210247
0.0191814
0.0174657
0.0160821
0.0147225
0.013676
0.012563
0.0117746
0.010831
0.0102486
0.00942449
0.00897886
0.00817089
0.119787
0.0960536
0.0786069
0.0656045
0.0554423
0.0476095
0.0414235
0.0364369
0.0322356
0.0287656
0.025757
0.0232594
0.0210246
0.0191814
0.0174656
0.0160822
0.0147224
0.0136761
0.0125628
0.0117748
0.0108308
0.0102489
0.00942403
0.00897978
0.00816992
0.119787
0.0960541
0.0786064
0.0656052
0.0554415
0.0476104
0.0414235
0.0364374
0.0322354
0.028766
0.0257567
0.0232599
0.0210242
0.0191819
0.0174651
0.0160828
0.0147218
0.0136769
0.012562
0.0117758
0.0108293
0.0102526
0.00940998
0.00904585
0.00808211
0.119787
0.096054
0.0786064
0.0656051
0.0554417
0.0476103
0.0414235
0.0364373
0.0322354
0.0287659
0.0257567
0.0232598
0.0210243
0.0191818
0.0174652
0.0160827
0.0147219
0.0136768
0.0125621
0.0117756
0.0108298
0.0102502
0.00942222
0.00898319
0.00816748
0.119787
0.0960537
0.0786068
0.0656047
0.0554422
0.0476096
0.0414235
0.036437
0.0322355
0.0287656
0.0257569
0.0232595
0.0210245
0.0191815
0.0174655
0.0160823
0.0147223
0.0136763
0.0125626
0.011775
0.0108305
0.0102493
0.00942346
0.0089809
0.00816873
0.119787
0.0960535
0.078607
0.0656045
0.0554424
0.0476094
0.0414235
0.0364369
0.0322356
0.0287655
0.025757
0.0232594
0.0210247
0.0191813
0.0174656
0.0160822
0.0147225
0.0136761
0.0125628
0.0117749
0.0108303
0.0102516
0.00941081
0.00904658
0.00807729
0.119787
0.0960537
0.0786068
0.0656047
0.0554422
0.0476097
0.0414236
0.036437
0.0322356
0.0287656
0.025757
0.0232595
0.0210246
0.0191814
0.0174656
0.0160822
0.0147224
0.0136761
0.0125629
0.0117747
0.0108309
0.0102488
0.00942436
0.00897936
0.00817014
0.119787
0.0960536
0.0786069
0.0656046
0.0554423
0.0476095
0.0414236
0.0364369
0.0322356
0.0287655
0.025757
0.0232594
0.0210247
0.0191813
0.0174657
0.0160821
0.0147226
0.0136759
0.0125631
0.0117745
0.0108312
0.0102485
0.00942463
0.00897837
0.00817159
0.119787
0.0960536
0.0786069
0.0656045
0.0554424
0.0476094
0.0414235
0.0364369
0.0322356
0.0287656
0.025757
0.0232595
0.0210246
0.0191814
0.0174656
0.0160823
0.0147223
0.0136763
0.0125626
0.011775
0.0108305
0.0102493
0.00942349
0.00898084
0.00816881
0.119787
0.0960534
0.078607
0.0656044
0.0554425
0.0476093
0.0414236
0.0364368
0.0322356
0.0287655
0.025757
0.0232594
0.0210247
0.0191813
0.0174657
0.0160821
0.0147225
0.013676
0.0125629
0.0117748
0.0108304
0.0102515
0.00941081
0.00904665
0.00807689
0.119787
0.0960534
0.0786071
0.0656043
0.0554426
0.0476092
0.0414236
0.0364368
0.0322356
0.0287654
0.0257571
0.0232593
0.0210247
0.0191812
0.0174657
0.016082
0.0147226
0.0136759
0.012563
0.0117747
0.0108306
0.0102513
0.009411
0.00904675
0.00807594
0.119787
0.0960536
0.0786069
0.0656045
0.0554424
0.0476094
0.0414236
0.0364369
0.0322356
0.0287655
0.025757
0.0232594
0.0210247
0.0191813
0.0174657
0.0160821
0.0147225
0.0136761
0.0125629
0.0117748
0.0108304
0.0102514
0.00941099
0.00904667
0.00807633
0.119787
0.0960536
0.0786069
0.0656046
0.0554423
0.0476095
0.0414235
0.036437
0.0322356
0.0287656
0.025757
0.0232595
0.0210246
0.0191814
0.0174655
0.0160823
0.0147223
0.0136763
0.0125626
0.0117751
0.01083
0.0102518
0.00941061
0.00904642
0.00807863
0.119787
0.0960537
0.0786068
0.0656046
0.0554422
0.0476096
0.0414235
0.036437
0.0322355
0.0287656
0.025757
0.0232595
0.0210246
0.0191814
0.0174656
0.0160822
0.0147224
0.0136762
0.0125628
0.0117748
0.0108308
0.010249
0.00942397
0.00897987
0.00816983
0.119787
0.0960537
0.0786068
0.0656046
0.0554422
0.0476096
0.0414235
0.036437
0.0322355
0.0287656
0.0257569
0.0232595
0.0210246
0.0191814
0.0174656
0.0160823
0.0147224
0.0136762
0.0125627
0.0117749
0.0108307
0.010249
0.00942397
0.00897987
0.00816984
0.119787
0.0960538