/*--------------------------------*- C++ -*----------------------------------*\
  =========                 |
  \\      /  F ield         | OpenFOAM: The Open Source CFD Toolbox
   \\    /   O peration     | Website:  https://openfoam.org
    \\  /    A nd           | Version:  12
     \\/     M anipulation  |
\*---------------------------------------------------------------------------*/
FoamFile
{
    format      ascii;
    class       volScalarField;
    location    "400";
    object      k;
}
// * * * * * * * * * * * * * * * * * * * * * * * * * * * * * * * * * * * * * //

dimensions      [0 2 -2 0 0 0 0];

internalField   nonuniform List<scalar> 
5000
(
1.44042
1.33536
1.24701
1.17247
1.10756
1.05256
1.00255
0.960102
0.922332
0.884781
0.850865
0.807469
0.761381
0.740882
0.703242
0.687391
0.65458
0.640343
0.624621
0.597106
0.583598
0.560064
0.548743
0.528242
0.516851
1.44045
1.3353
1.24706
1.17226
1.10799
1.05175
1.00363
0.959062
0.92304
0.883305
0.85508
0.810928
0.784447
0.743843
0.704094
0.685975
0.653269
0.638999
0.611226
0.599164
0.575075
0.564378
0.552678
0.53159
0.519439
1.44053
1.33517
1.2472
1.17209
1.1082
1.05154
1.00362
0.95991
0.921012
0.883152
0.848227
0.804472
0.759094
0.738666
0.70106
0.6852
0.653211
0.639292
0.611427
0.599112
0.585671
0.561764
0.550132
0.529374
0.517888
1.44057
1.33511
1.24729
1.17206
1.10803
1.05218
1.0019
0.965015
0.902109
0.878958
0.828008
0.807267
0.763399
0.744935
0.707481
0.692967
0.665823
0.634161
0.618907
0.5925
0.579989
0.557232
0.546751
0.526995
0.51786
1.44055
1.33514
1.24726
1.17208
1.10802
1.05209
1.00267
0.960573
0.923268
0.865349
0.843632
0.796042
0.778221
0.737458
0.721309
0.686025
0.671237
0.646436
0.616471
0.601438
0.576266
0.564118
0.542544
0.532581
0.513894
1.44053
1.33518
1.24713
1.1723
1.10765
1.05267
1.00174
0.962056
0.921632
0.863605
0.83955
0.791927
0.772406
0.73236
0.716251
0.681853
0.668353
0.637774
0.623199
0.606888
0.580578
0.566993
0.54472
0.533435
0.515188
1.44036
1.33545
1.24694
1.17245
1.1078
1.05202
1.00332
0.959569
0.922227
0.883368
0.849533
0.805161
0.759831
0.739324
0.701916
0.685504
0.653175
0.638664
0.622685
0.59552
0.582025
0.558841
0.547784
0.527792
0.51842
1.44041
1.33536
1.24709
1.17221
1.10813
1.05158
1.004
0.957956
0.927002
0.869067
0.846159
0.798838
0.780354
0.738748
0.722431
0.690103
0.655788
0.63982
0.611406
0.598242
0.574034
0.563117
0.551228
0.530297
0.518392
1.44052
1.33518
1.24721
1.17207
1.10823
1.05149
1.00371
0.959749
0.921243
0.883235
0.848207
0.804356
0.759179
0.738448
0.700946
0.684593
0.6524
0.63833
0.610433
0.598364
0.584997
0.5613
0.549735
0.529049
0.517393
1.44055
1.33513
1.24729
1.17198
1.10826
1.05165
1.00338
0.959645
0.922435
0.884556
0.853735
0.813384
0.784525
0.743486
0.703806
0.685226
0.652494
0.637605
0.609721
0.597564
0.573552
0.563198
0.551744
0.53092
0.518988
1.44043
1.33534
1.24704
1.17227
1.10797
1.05186
1.00332
0.959392
0.924762
0.867392
0.845497
0.798047
0.77826
0.737216
0.721557
0.689599
0.655552
0.639741
0.611453
0.598581
0.574301
0.5636
0.542608
0.533417
0.521538
1.44049
1.33524
1.24715
1.17217
1.10803
1.05189
1.00317
0.960272
0.919143
0.890128
0.83565
0.813769
0.768646
0.750561
0.715387
0.67905
0.661687
0.631121
0.61698
0.590896
0.579187
0.556691
0.547073
0.536101
0.518158
1.44057
1.33511
1.24728
1.17208
1.10799
1.05223
1.00187
0.965055
0.901825
0.878993
0.827564
0.80738
0.763322
0.744993
0.707342
0.692822
0.664706
0.632873
0.617827
0.591328
0.579055
0.55631
0.546186
0.526528
0.51755
1.44058
1.33508
1.2473
1.17204
1.10803
1.05218
1.00191
0.965006
0.901792
0.878677
0.827417
0.807076
0.763248
0.744899
0.70747
0.69289
0.665425
0.633694
0.618318
0.591829
0.579272
0.556531
0.546115
0.526409
0.517363
1.44056
1.33512
1.24724
1.17213
1.10796
1.05197
1.00378
0.955194
0.917547
0.861098
0.837847
0.791067
0.772469
0.73211
0.716241
0.681593
0.665224
0.645153
0.615432
0.600429
0.575351
0.563245
0.54175
0.531798
0.513185
1.44054
1.33516
1.24719
1.17212
1.10817
1.05145
1.00401
0.959542
0.918782
0.882505
0.837929
0.788778
0.768382
0.728086
0.711681
0.677455
0.663397
0.63316
0.619557
0.604433
0.578545
0.565592
0.543463
0.532437
0.514292
1.44055
1.33514
1.24722
1.17208
1.10822
1.05137
1.00412
0.959521
0.918632
0.882579
0.837818
0.788591
0.76791
0.727527
0.710915
0.676697
0.662536
0.632322
0.618975
0.604134
0.578367
0.565508
0.543408
0.532317
0.514346
1.44056
1.33513
1.24722
1.1721
1.10815
1.05148
1.00402
0.959364
0.919397
0.882907
0.838096
0.789249
0.768336
0.728113
0.711357
0.677215
0.662675
0.632421
0.618989
0.604061
0.578394
0.565537
0.543553
0.53248
0.514707
1.44057
1.33511
1.24727
1.17207
1.108
1.0522
1.00189
0.965029
0.902027
0.878706
0.827194
0.807228
0.763368
0.745814
0.708202
0.693272
0.666526
0.634665
0.619317
0.592725
0.580069
0.557189
0.546632
0.526817
0.517671
1.44054
1.33516
1.24718
1.17218
1.10803
1.05159
1.00434
0.957904
0.916393
0.876561
0.823339
0.80133
0.757851
0.739713
0.702549
0.687708
0.654998
0.639927
0.623344
0.595674
0.581812
0.558303
0.546924
0.526715
0.515256
1.41298
1.26595
1.1461
1.04843
0.964756
0.896034
0.833932
0.782364
0.735748
0.693393
0.656969
0.629196
0.584049
0.542919
0.53184
0.503602
0.474069
0.457222
0.441329
0.426262
0.411939
0.398355
0.385463
0.373286
0.361832
1.41301
1.26589
1.14622
1.04816
0.965219
0.89536
0.834646
0.782159
0.735234
0.694573
0.655588
0.629906
0.584463
0.54927
0.53621
0.507017
0.473915
0.456738
0.440685
0.425696
0.411562
0.398315
0.385737
0.373818
0.362544
1.41301
1.2659
1.14614
1.04836
0.96485
0.89589
0.834044
0.782531
0.735047
0.695682
0.652753
0.628747
0.597315
0.553508
0.519518
0.504262
0.479832
0.461215
0.444062
0.428234
0.413432
0.399559
0.386495
0.374217
0.362658
1.413
1.26591
1.14623
1.04815
0.96525
0.89529
0.834819
0.781832
0.735572
0.695271
0.649606
0.629767
0.594323
0.549943
0.521015
0.50636
0.485277
0.458103
0.440862
0.425026
0.410386
0.396815
0.384146
0.372312
0.361265
1.41306
1.2658
1.14632
1.04805
0.965317
0.895261
0.834758
0.782181
0.73471
0.697424
0.651294
0.610907
0.596375
0.554366
0.519229
0.502147
0.484945
0.462905
0.443978
0.427176
0.411766
0.397647
0.384562
0.37247
0.361184
1.41301
1.2659
1.14614
1.04829
0.965037
0.895451
0.834818
0.781506
0.735554
0.696282
0.652092
0.613066
0.596865
0.559896
0.516368
0.497668
0.479622
0.462201
0.445623
0.42991
0.414994
0.400957
0.387677
0.375222
0.36349
1.41295
1.26599
1.1461
1.04831
0.965068
0.895447
0.834735
0.781851
0.735153
0.696025
0.653234
0.622579
0.599927
0.561382
0.51739
0.499985
0.481384
0.46135
0.443691
0.42737
0.412273
0.398297
0.385282
0.373154
0.361864
1.41304
1.26584
1.14625
1.04815
0.965166
0.895499
0.834372
0.782764
0.733677
0.698245
0.651535
0.618249
0.597251
0.550121
0.528128
0.515156
0.485745
0.459111
0.441415
0.425383
0.410634
0.397064
0.384353
0.372431
0.361189
1.41302
1.26588
1.14616
1.04833
0.964882
0.89588
0.83402
0.782634
0.734867
0.695988
0.652521
0.628345
0.597902
0.553913
0.51922
0.505587
0.480088
0.459896
0.442668
0.426885
0.412204
0.398496
0.385607
0.373494
0.362074
1.41306
1.2658
1.14634
1.04803
0.965307
0.895401
0.834371
0.782781
0.734184
0.697098
0.651141
0.62617
0.597036
0.549652
0.526553
0.514714
0.480136
0.455889
0.439131
0.423808
0.409601
0.396445
0.384048
0.372361
0.361286
1.41303
1.26585
1.14629
1.04805
0.96535
0.895217
0.834765
0.782222
0.734633
0.697238
0.649561
0.626715
0.594564
0.546002
0.528001
0.515906
0.481765
0.456512
0.439369
0.423785
0.409437
0.396206
0.383832
0.372314
0.361427
1.41302
1.26588
1.14622
1.04817
0.965157
0.895472
0.834487
0.782362
0.734668
0.697031
0.648923
0.627475
0.597433
0.550917
0.52353
0.510352
0.482358
0.45568
0.438855
0.423433
0.409177
0.395949
0.383608
0.372029
0.361098
1.41308
1.26576
1.14636
1.04799
0.965385
0.895174
0.834928
0.781704
0.73619
0.694176
0.650379
0.62981
0.592723
0.547748
0.522083
0.508158
0.484544
0.457449
0.440259
0.424473
0.409872
0.396325
0.383662
0.371816
0.360745
1.41306
1.2658
1.14632
1.04803
0.965343
0.895202
0.834932
0.781654
0.736223
0.694082
0.650562
0.62983
0.592241
0.546909
0.522686
0.508923
0.484142
0.457623
0.44044
0.424661
0.410054
0.396485
0.383788
0.371902
0.360791
1.41297
1.26596
1.1461
1.04834
0.965003
0.895503
0.834778
0.781411
0.73602
0.694843
0.651048
0.629169
0.593018
0.545977
0.524431
0.50745
0.483003
0.461869
0.443935
0.427585
0.412475
0.398494
0.385407
0.373207
0.361749
1.413
1.26592
1.14611
1.04836
0.96492
0.895634
0.834636
0.781569
0.736066
0.694563
0.653629
0.629322
0.593682
0.546607
0.524806
0.506948
0.479896
0.459883
0.442669
0.42687
0.41212
0.398338
0.385326
0.373109
0.36161
1.41304
1.26585
1.14622
1.04821
0.9651
0.89547
0.834727
0.781652
0.73611
0.694456
0.654019
0.629275
0.593725
0.546722
0.524994
0.50685
0.479148
0.459373
0.44224
0.426481
0.411737
0.39794
0.384903
0.372672
0.361136
1.41303
1.26586
1.14618
1.04831
0.964891
0.895874
0.834066
0.782436
0.735532
0.694247
0.655748
0.629399
0.591408
0.543791
0.528028
0.505468
0.479537
0.460998
0.443997
0.428187
0.413312
0.39936
0.386177
0.373822
0.362192
1.41297
1.26597
1.14607
1.04839
0.964913
0.895644
0.834617
0.781385
0.736706
0.692867
0.651976
0.630409
0.584822
0.54399
0.528832
0.510541
0.476393
0.457518
0.441052
0.425768
0.411445
0.397989
0.385285
0.373321
0.362098
1.41302
1.26589
1.14612
1.04837
0.964827
0.895843
0.834218
0.782033
0.735675
0.69479
0.652115
0.629707
0.594222
0.547028
0.526582
0.510088
0.480594
0.461928
0.444765
0.428799
0.413851
0.39983
0.386625
0.374225
0.362562
1.41297
1.26527
1.14467
1.04575
0.961443
0.890979
0.828517
0.775378
0.726901
0.685433
0.646702
0.613915
0.58158
0.555011
0.528146
0.506339
0.482891
0.465193
0.444547
0.430119
0.411394
0.399839
0.382645
0.372869
0.35506
1.41297
1.26527
1.14468
1.04573
0.961476
0.89093
0.828563
0.775369
0.726852
0.685488
0.646657
0.613873
0.581619
0.555116
0.528225
0.506439
0.482885
0.465149
0.444478
0.430112
0.411394
0.399912
0.382678
0.372983
0.355088
1.41297
1.26526
1.14467
1.04575
0.961442
0.890979
0.828514
0.775381
0.726877
0.685508
0.646544
0.61392
0.581878
0.55507
0.528001
0.506374
0.482929
0.465226
0.444548
0.430177
0.411422
0.399998
0.382382
0.374576
0.352859
1.41297
1.26527
1.14468
1.04573
0.961474
0.890933
0.828565
0.775348
0.726902
0.685464
0.646552
0.613929
0.581798
0.555027
0.528005
0.506585
0.483139
0.465252
0.44445
0.430049
0.411318
0.399879
0.382665
0.372977
0.355068
1.41297
1.26526
1.14469
1.04572
0.961473
0.89094
0.828552
0.775368
0.726868
0.685569
0.646483
0.613757
0.581854
0.5551
0.527887
0.506483
0.483116
0.465334
0.444461
0.430089
0.41126
0.399943
0.382309
0.374527
0.352965
1.41297
1.26527
1.14467
1.04575
0.961447
0.890955
0.82856
0.775318
0.726901
0.685548
0.646467
0.613774
0.581888
0.555172
0.527941
0.506332
0.482927
0.4653
0.44458
0.430265
0.411445
0.400083
0.382408
0.374588
0.35302
1.41296
1.26527
1.14467
1.04574
0.961462
0.89094
0.828572
0.775331
0.726885
0.685525
0.646519
0.613812
0.581945
0.555191
0.527925
0.506382
0.482972
0.465227
0.444485
0.430115
0.411365
0.399914
0.382655
0.37301
0.355036
1.41297
1.26526
1.14469
1.04573
0.961473
0.890937
0.828559
0.775369
0.726833
0.685597
0.646495
0.613822
0.581832
0.55507
0.528137
0.506672
0.483133
0.465261
0.444506
0.430107
0.411348
0.39992
0.382298
0.374499
0.352765
1.41297
1.26526
1.14468
1.04574
0.961447
0.890975
0.828518
0.775382
0.726874
0.685516
0.646536
0.613913
0.581897
0.55506
0.527996
0.506402
0.482926
0.465182
0.444502
0.430131
0.411394
0.399967
0.382366
0.374564
0.352805
1.41297
1.26526
1.14469
1.04572
0.961486
0.89093
0.828557
0.775376
0.726862
0.685519
0.646568
0.613887
0.581805
0.555015
0.528105
0.506594
0.483007
0.465141
0.444433
0.430046
0.411334
0.399904
0.382326
0.374535
0.352728
1.41297
1.26526
1.14469
1.04572
0.961483
0.890928
0.828562
0.775367
0.726866
0.685523
0.646524
0.613902
0.581758
0.555018
0.528085
0.50667
0.48303
0.465167
0.444352
0.430045
0.411278
0.399982
0.382354
0.374581
0.352989
1.41297
1.26526
1.14468
1.04573
0.961469
0.890944
0.828547
0.775372
0.726871
0.685501
0.646555
0.613878
0.581851
0.555049
0.52804
0.506563
0.483042
0.46516
0.444417
0.43002
0.411316
0.399842
0.382634
0.372904
0.355043
1.41298
1.26525
1.1447
1.04571
0.961491
0.890922
0.828568
0.775357
0.726916
0.685437
0.646601
0.613938
0.581773
0.554993
0.528024
0.506574
0.483118
0.465203
0.444432
0.429998
0.411282
0.399798
0.382586
0.372837
0.354994
1.41297
1.26525
1.14469
1.04572
0.961484
0.890929
0.828562
0.775359
0.726912
0.68544
0.646594
0.613942
0.581753
0.554989
0.528024
0.506578
0.483097
0.465204
0.444422
0.430005
0.411269
0.399803
0.382565
0.372857
0.354962
1.41296
1.26527
1.14466
1.04575
0.961448
0.890956
0.828554
0.775333
0.726906
0.685473
0.646528
0.613947
0.581739
0.555013
0.528017
0.506501
0.482988
0.465275
0.444489
0.430168
0.411336
0.400012
0.382327
0.374527
0.353007
1.41297
1.26527
1.14467
1.04575
0.961439
0.89097
0.828542
0.775337
0.726908
0.68548
0.646543
0.613977
0.581757
0.555009
0.52802
0.506424
0.482879
0.465217
0.444471
0.430159
0.411327
0.399921
0.382529
0.373057
0.354856
1.41297
1.26526
1.14468
1.04573
0.961462
0.890947
0.828561
0.77533
0.726931
0.685459
0.646571
0.613961
0.581776
0.554992
0.528041
0.506381
0.4829
0.465179
0.444502
0.4301
0.411344
0.399887
0.382281
0.374472
0.35269
1.41297
1.26526
1.14468
1.04574
0.961445
0.890981
0.828508
0.775391
0.72688
0.685473
0.646597
0.613962
0.581698
0.555023
0.528053
0.50635
0.482908
0.465246
0.444551
0.430176
0.411395
0.399974
0.382358
0.374553
0.352839
1.41296
1.26528
1.14466
1.04576
0.96144
0.890968
0.828538
0.775345
0.72691
0.68542
0.646616
0.613941
0.581598
0.555025
0.528141
0.506544
0.48296
0.465235
0.444489
0.430175
0.411396
0.400012
0.382665
0.373154
0.355013
1.41297
1.26526
1.14467
1.04575
0.96144
0.890974
0.828526
0.775372
0.726921
0.685498
0.646587
0.613992
0.581824
0.555051
0.528166
0.506557
0.483078
0.465347
0.444664
0.430258
0.411495
0.400045
0.382422
0.374601
0.352821
1.41296
1.26527
1.14463
1.04569
0.96133
0.890839
0.828298
0.775166
0.726486
0.685173
0.646102
0.613298
0.58109
0.554649
0.527474
0.505959
0.482496
0.464947
0.44423
0.42998
0.411251
0.399837
0.382653
0.372879
0.355116
1.41296
1.26527
1.14462
1.0457
0.961326
0.890844
0.828291
0.775169
0.726469
0.685176
0.646082
0.613297
0.581069
0.554653
0.527452
0.505967
0.48247
0.464954
0.444197
0.429991
0.411216
0.399859
0.382605
0.372947
0.355044
1.41296
1.26527
1.14462
1.0457
0.961324
0.890846
0.82829
0.775169
0.726471
0.685175
0.64608
0.613299
0.581073
0.55465
0.527447
0.505963
0.482467
0.464953
0.444195
0.429995
0.411204
0.399918
0.382305
0.374559
0.352826
1.41296
1.26527
1.14463
1.0457
0.961326
0.890844
0.828292
0.775167
0.726473
0.685172
0.646082
0.613296
0.581074
0.554646
0.52745
0.505965
0.482479
0.464952
0.444198
0.429982
0.411217
0.399851
0.382615
0.372938
0.355047
1.41296
1.26527
1.14462
1.0457
0.96132
0.890852
0.828281
0.775178
0.72646
0.685186
0.646065
0.61331
0.581057
0.554666
0.527424
0.505987
0.482451
0.464983
0.444165
0.430018
0.411172
0.3999
0.382539
0.373074
0.354933
1.41296
1.26527
1.14462
1.0457
0.961322
0.890848
0.828288
0.77517
0.726468
0.685178
0.646074
0.6133
0.581071
0.554654
0.527444
0.505965
0.482468
0.464955
0.444197
0.429993
0.411209
0.399913
0.382311
0.374565
0.352783
1.41296
1.26527
1.14462
1.0457
0.961324
0.890846
0.82829
0.775168
0.72647
0.685176
0.646076
0.613299
0.581072
0.554653
0.527443
0.505967
0.482467
0.464956
0.444191
0.429994
0.411201
0.399917
0.382304
0.37456
0.352827
1.41296
1.26527
1.14463
1.04569
0.961328
0.890842
0.828295
0.775165
0.726474
0.685173
0.646084
0.613293
0.581078
0.554644
0.527457
0.505963
0.482482
0.464946
0.444206
0.429981
0.411228
0.399843
0.382626
0.372914
0.355054
1.41296
1.26527
1.14463
1.04569
0.961327
0.890843
0.828293
0.775166
0.726475
0.685171
0.646084
0.613295
0.581078
0.554645
0.527453
0.505958
0.482474
0.464945
0.444202
0.429984
0.411224
0.399852
0.382617
0.372935
0.355047
1.41296
1.26527
1.14463
1.04569
0.961327
0.890843
0.828293
0.775167
0.726473
0.685172
0.646084
0.613296
0.581074
0.554645
0.527453
0.505963
0.482475
0.464946
0.444199
0.429985
0.41121
0.399907
0.382308
0.374561
0.352783
1.41296
1.26527
1.14462
1.0457
0.961321
0.890851
0.828283
0.775177
0.72646
0.685184
0.646068
0.61331
0.581055
0.554664
0.527429
0.505989
0.482449
0.464975
0.444162
0.430016
0.411169
0.399945
0.382287
0.37454
0.352948
1.41296
1.26527
1.14462
1.0457
0.961325
0.890845
0.82829
0.775169
0.72647
0.685174
0.64608
0.613298
0.581072
0.554649
0.527449
0.505967
0.482474
0.464951
0.444197
0.429984
0.411218
0.39985
0.382614
0.372927
0.355051
1.41296
1.26527
1.14463
1.04569
0.961329
0.890841
0.828294
0.775166
0.726475
0.685169
0.646087
0.613294
0.581077
0.554643
0.527455
0.505962
0.482484
0.464947
0.444203
0.429976
0.41122
0.399844
0.382615
0.372916
0.355062
1.41296
1.26527
1.14463
1.04569
0.961328
0.890842
0.828293
0.775167
0.726474
0.68517
0.646085
0.613295
0.581076
0.554643
0.527454
0.505963
0.482482
0.464947
0.444201
0.429976
0.411219
0.399843
0.382614
0.372915
0.355061
1.41296
1.26527
1.14462
1.0457
0.961322
0.890848
0.828287
0.775171
0.726466
0.685178
0.646075
0.613303
0.581065
0.554654
0.527442
0.50597
0.482466
0.464958
0.44419
0.429993
0.411209
0.399863
0.382601
0.37296
0.355024
1.41296
1.26527
1.14462
1.0457
0.961322
0.890849
0.828287
0.77517
0.726468
0.685177
0.646076
0.613303
0.581067
0.554653
0.527444
0.505966
0.482464
0.464953
0.444193
0.429992
0.411203
0.399912
0.3823
0.374557
0.352804
1.41296
1.26527
1.14462
1.0457
0.961323
0.890847
0.828289
0.77517
0.726469
0.685176
0.646077
0.613302
0.581068
0.554652
0.527444
0.505965
0.482465
0.464954
0.444193
0.429992
0.411203
0.39991
0.382305
0.374558
0.352785
1.41296
1.26527
1.14462
1.0457
0.961322
0.890849
0.828286
0.775173
0.726467
0.685178
0.646075
0.613304
0.581063
0.554658
0.527438
0.505971
0.482456
0.464966
0.444182
0.430008
0.411195
0.399884
0.382568
0.373034
0.354969
1.41296
1.26527
1.14462
1.0457
0.961324
0.890846
0.82829
0.775169
0.72647
0.685174
0.646083
0.613299
0.581071
0.554652
0.527454
0.505968
0.482477
0.464954
0.444204
0.429989
0.411228
0.39986
0.382627
0.372934
0.355076
1.41296
1.26527
1.14462
1.0457
0.961324
0.890846
0.828289
0.775189
0.726485
0.685208
0.6461
0.613341
0.581095
0.554698
0.527473
0.506019
0.482493
0.465013
0.444215
0.430056
0.411218
0.39998
0.382326
0.374578
0.352964
1.41296
1.26527
1.14461
1.04567
0.961288
0.890802
0.828236
0.775115
0.726408
0.685112
0.646011
0.613222
0.580995
0.554568
0.527366
0.505871
0.482386
0.464854
0.444115
0.429888
0.411142
0.399757
0.38255
0.372825
0.355009
1.41296
1.26527
1.14461
1.04568
0.96128
0.890813
0.828223
0.775122
0.726387
0.685119
0.645984
0.613231
0.580962
0.554581
0.527327
0.50589
0.48234
0.464881
0.44406
0.429928
0.411068
0.399861
0.382186
0.374446
0.352927
1.41296
1.26527
1.14461
1.04568
0.961286
0.890806
0.828232
0.775114
0.726398
0.685108
0.645998
0.613217
0.580979
0.554562
0.527348
0.505866
0.482366
0.464851
0.444093
0.429888
0.411118
0.39976
0.382522
0.37286
0.354948
1.41296
1.26527
1.14461
1.04567
0.961288
0.890803
0.828235
0.775111
0.726402
0.685104
0.646003
0.613212
0.580985
0.554557
0.527355
0.50586
0.482374
0.464844
0.444101
0.429881
0.411116
0.39981
0.38222
0.374478
0.352695
1.41296
1.26527
1.14461
1.04568
0.961283
0.89081
0.828227
0.775119
0.726392
0.685114
0.64599
0.613225
0.580969
0.554572
0.527336
0.505879
0.48235
0.464868
0.444072
0.429912
0.411081
0.399843
0.382198
0.374453
0.352848
1.41296
1.26527
1.14461
1.04568
0.96128
0.890813
0.828223
0.775122
0.726387
0.685118
0.645985
0.613229
0.580963
0.554578
0.527329
0.505886
0.482343
0.464875
0.444065
0.429917
0.411083
0.399801
0.38246
0.372974
0.354861
1.41296
1.26527
1.14461
1.04568
0.961282
0.89081
0.828227
0.775119
0.726392
0.685114
0.64599
0.613224
0.58097
0.554572
0.527336
0.505878
0.482352
0.464866
0.444075
0.429907
0.411095
0.399788
0.382477
0.372937
0.354905
1.41296
1.26527
1.14461
1.04567
0.961288
0.890803
0.828235
0.77511
0.726402
0.685104
0.646003
0.613212
0.580985
0.554557
0.527355
0.50586
0.482374
0.464844
0.444101
0.42988
0.411127
0.399753
0.382529
0.372835
0.354986
1.41296
1.26526
1.14461
1.04567
0.961289
0.890801
0.828238
0.775108
0.726405
0.685101
0.646006
0.613209
0.580989
0.554553
0.527359
0.505856
0.482379
0.464838
0.444108
0.429873
0.411136
0.399742
0.382545
0.372804
0.355019
1.41296
1.26527
1.14461
1.04567
0.961287
0.890804
0.828234
0.775112
0.726401
0.685105
0.646001
0.613214
0.580983
0.554559
0.527352
0.505863
0.482371
0.464847
0.444098
0.429884
0.411123
0.399757
0.382524
0.372851
0.354963
1.41296
1.26527
1.14461
1.04568
0.961281
0.890812
0.828224
0.775122
0.726388
0.685117
0.645985
0.613229
0.580963
0.554578
0.527328
0.505887
0.482342
0.464877
0.444062
0.429921
0.411079
0.399808
0.382449
0.372989
0.354851
1.41296
1.26527
1.14461
1.04568
0.961284
0.890808
0.828229
0.775117
0.726394
0.685112
0.645993
0.613222
0.580972
0.554569
0.527339
0.505876
0.482354
0.464864
0.444077
0.429908
0.411086
0.39984
0.382199
0.374454
0.352838
1.41296
1.26527
1.14461
1.04567
0.961288
0.890803
0.828235
0.775111
0.726401
0.685105
0.646002
0.613214
0.580983
0.554559
0.527353
0.505863
0.482371
0.464847
0.444098
0.429886
0.411112
0.399814
0.382219
0.374476
0.352709
1.41296
1.26527
1.14461
1.04567
0.961287
0.890804
0.828234
0.775111
0.726401
0.685105
0.646001
0.613214
0.580983
0.554559
0.527352
0.505863
0.482371
0.464847
0.444097
0.429886
0.411112
0.399814
0.382219
0.374475
0.35271
1.41296
1.26527
1.14461
1.04568
0.961281
0.890812
0.828224
0.775121
0.726388
0.685117
0.645985
0.613229
0.580963
0.554578
0.527329
0.505886
0.482342
0.464877
0.444062
0.429922
0.41107
0.399854
0.38219
0.374447
0.352896
1.41296
1.26527
1.14461
1.04568
0.961282
0.890811
0.828226
0.775119
0.726391
0.685114
0.645989
0.613225
0.580968
0.554573
0.527335
0.505879
0.48235
0.464868
0.444073
0.429909
0.411092
0.39979
0.382475
0.372947
0.354889
1.41296
1.26527
1.14461
1.04568
0.961282
0.890811
0.828226
0.775119
0.72639
0.685115
0.645988
0.613226
0.580967
0.554574
0.527333
0.505882
0.482347
0.464871
0.444069
0.429914
0.411087
0.399798
0.382463
0.372965
0.354876
1.41296
1.26527
1.14461
1.04567
0.961287
0.890804
0.828233
0.775112
0.7264
0.685106
0.646001
0.613214
0.580982
0.554559
0.527352
0.505862
0.482371
0.464846
0.444099
0.429882
0.411125
0.399755
0.382526
0.372839
0.354982
1.41296
1.26527
1.14461
1.04568
0.961284
0.890807
0.82823
0.775116
0.726396
0.685112
0.645995
0.613223
0.580976
0.554571
0.527343
0.505879
0.482359
0.464868
0.444082
0.429911
0.4111
0.399796
0.382476
0.372953
0.354908
1.41296
1.26526
1.14461
1.04567
0.961291
0.890799
0.82824
0.775127
0.726422
0.685132
0.64603
0.613247
0.581017
0.554595
0.527389
0.505901
0.482409
0.464885
0.444136
0.42992
0.411162
0.399791
0.382566
0.372875
0.355004
1.41296
1.26527
1.1446
1.04566
0.961266
0.890785
0.828202
0.775092
0.726364
0.685084
0.64596
0.613192
0.580937
0.554538
0.527302
0.505843
0.482316
0.46483
0.444039
0.429871
0.411058
0.399753
0.382438
0.372901
0.354868
1.41296
1.26527
1.1446
1.04567
0.961266
0.890786
0.828201
0.775086
0.726359
0.685075
0.645953
0.613181
0.58093
0.554526
0.527295
0.50583
0.482309
0.464817
0.444032
0.429858
0.411052
0.39974
0.382434
0.372888
0.354865
1.41296
1.26526
1.1446
1.04566
0.961268
0.890783
0.828205
0.775082
0.726364
0.68507
0.645959
0.613174
0.580937
0.554517
0.527304
0.505819
0.48232
0.464803
0.444046
0.42984
0.411069
0.399716
0.382465
0.372817
0.354908
1.41296
1.26526
1.1446
1.04566
0.961268
0.890782
0.828206
0.775082
0.726365
0.685069
0.64596
0.613174
0.580938
0.554516
0.527305
0.505817
0.482322
0.4648
0.444049
0.429838
0.411064
0.399765
0.382172
0.374429
0.352653
1.41296
1.26526
1.1446
1.04566
0.961269
0.890781
0.828207
0.77508
0.726367
0.685067
0.645963
0.61317
0.580942
0.554511
0.52731
0.505812
0.482329
0.464793
0.444057
0.429829
0.411074
0.399754
0.382183
0.374436
0.352592
1.41296
1.26527
1.1446
1.04567
0.961263
0.89079
0.828196
0.775091
0.726353
0.68508
0.645945
0.613188
0.58092
0.554533
0.527283
0.50584
0.482295
0.464829
0.444015
0.429874
0.411023
0.399805
0.382143
0.3744
0.352845
1.41296
1.26527
1.1446
1.04567
0.961264
0.890789
0.828198
0.775089
0.726355
0.685078
0.645948
0.613185
0.580923
0.55453
0.527287
0.505836
0.4823
0.464823
0.444021
0.429865
0.411039
0.399749
0.382416
0.372915
0.354834
1.41296
1.26526
1.1446
1.04566
0.961268
0.890783
0.828205
0.775082
0.726364
0.68507
0.645959
0.613174
0.580937
0.554517
0.527303
0.505819
0.48232
0.464803
0.444046
0.429841
0.41106
0.399771
0.382166
0.374425
0.352689
1.41296
1.26526
1.1446
1.04566
0.96127
0.890781
0.828208
0.77508
0.726367
0.685067
0.645963
0.613171
0.580941
0.554513
0.527308
0.505815
0.482325
0.464798
0.444052
0.429834
0.411077
0.399707
0.382479
0.372799
0.354921
1.41296
1.26526
1.1446
1.04566
0.961268
0.890783
0.828205
0.775082
0.726364
0.68507
0.645959
0.613175
0.580936
0.554517
0.527303
0.505819
0.48232
0.464803
0.444046
0.429841
0.41106
0.39977
0.382166
0.374426
0.352683
1.41296
1.26526
1.1446
1.04566
0.961269
0.890782
0.828207
0.775081
0.726366
0.685067
0.645962
0.613171
0.58094
0.554513
0.527308
0.505813
0.482327
0.464795
0.444054
0.429831
0.411071
0.399757
0.382178
0.374434
0.352613
1.41296
1.26526
1.1446
1.04566
0.96127
0.890781
0.828207
0.77508
0.726367
0.685067
0.645962
0.613171
0.580941
0.554513
0.527308
0.505814
0.482326
0.464797
0.444052
0.429835
0.411068
0.399761
0.382177
0.374431
0.352634
1.41296
1.26526
1.1446
1.04566
0.961271
0.890779
0.828209
0.775078
0.726369
0.685065
0.645964
0.613169
0.580943
0.554511
0.527311
0.505812
0.482329
0.464795
0.444056
0.42983
0.411082
0.3997
0.382491
0.372783
0.354931
1.41296
1.26526
1.1446
1.04566
0.961271
0.890779
0.82821
0.775077
0.72637
0.685064
0.645966
0.613168
0.580945
0.554509
0.527313
0.50581
0.482331
0.464792
0.444059
0.429827
0.411085
0.399697
0.382494
0.37277
0.354951
1.41296
1.26526
1.1446
1.04566
0.96127
0.890781
0.828207
0.77508
0.726367
0.685067
0.645963
0.613171
0.580941
0.554512
0.527309
0.505813
0.482328
0.464795
0.444055
0.429829
0.411083
0.399698
0.382492
0.372771
0.354951
1.41296
1.26526
1.1446
1.04566
0.961269
0.890781
0.828207
0.77508
0.726366
0.685067
0.645962
0.613172
0.58094
0.554513
0.527308
0.505815
0.482325
0.464797
0.444052
0.429833
0.411077
0.399706
0.382479
0.37279
0.354936
1.41296
1.26526
1.1446
1.04566
0.961268
0.890782
0.828205
0.775082
0.726364
0.685069
0.645959
0.613174
0.580937
0.554517
0.527304
0.505819
0.482321
0.464802
0.444046
0.429841
0.41106
0.39977
0.382167
0.374425
0.352686
1.41296
1.26526
1.1446
1.04566
0.961268
0.890782
0.828206
0.775082
0.726365
0.685069
0.64596
0.613174
0.580938
0.554516
0.527305
0.505818
0.482322
0.464801
0.444048
0.429839
0.411063
0.399767
0.382172
0.374429
0.35266
1.41296
1.26527
1.1446
1.04566
0.961266
0.890786
0.828201
0.775087
0.726359
0.685076
0.645953
0.613184
0.58093
0.554529
0.527294
0.505835
0.482308
0.464824
0.44403
0.429868
0.411039
0.3998
0.382156
0.374411
0.352807
1.41296
1.26526
1.14461
1.04566
0.961275
0.890774
0.828215
0.775093
0.726391
0.685091
0.645995
0.613201
0.580979
0.554546
0.52735
0.505848
0.482369
0.46483
0.444096
0.429866
0.411112
0.399792
0.382216
0.374472
0.352645
1.41296
1.26526
1.1446
1.04565
0.96126
0.890765
0.828191
0.775064
0.726349
0.685049
0.645943
0.613152
0.580921
0.554493
0.527288
0.505794
0.482305
0.464776
0.444032
0.429813
0.411048
0.399741
0.382154
0.374412
0.352619
1.41296
1.26526
1.1446
1.04566
0.961258
0.890767
0.828188
0.77506
0.726342
0.685043
0.645934
0.613144
0.58091
0.554485
0.527276
0.505786
0.482293
0.464769
0.444019
0.429805
0.411045
0.399678
0.382448
0.372771
0.35489
1.41296
1.26526
1.1446
1.04566
0.961257
0.890769
0.828186
0.775062
0.726339
0.685045
0.64593
0.613146
0.580905
0.554487
0.527271
0.505788
0.482287
0.464771
0.444013
0.42981
0.411028
0.399739
0.382135
0.374395
0.352653
1.41296
1.26527
1.1446
1.04566
0.961252
0.890775
0.828179
0.775069
0.72633
0.685054
0.645918
0.613158
0.58089
0.554502
0.527252
0.505807
0.482264
0.464796
0.443985
0.429838
0.411003
0.399723
0.38238
0.372899
0.35478
1.41296
1.26526
1.1446
1.04566
0.961257
0.890769
0.828187
0.775061
0.72634
0.685044
0.64593
0.613146
0.580905
0.554487
0.527271
0.505789
0.482286
0.464773
0.444011
0.429813
0.411025
0.399742
0.382135
0.374393
0.352667
1.41296
1.26526
1.1446
1.04566
0.961258
0.890768
0.828188
0.77506
0.726342
0.685042
0.645933
0.613143
0.580909
0.554483
0.527275
0.505783
0.482293
0.464765
0.44402
0.4298
0.411048
0.399669
0.382459
0.372751
0.354904
1.41296
1.26526
1.1446
1.04566
0.961258
0.890768
0.828187
0.775061
0.726341
0.685043
0.645932
0.613144
0.580908
0.554485
0.527274
0.505785
0.482291
0.464767
0.444018
0.429802
0.411045
0.399674
0.38245
0.372754
0.354912
1.41296
1.26526
1.1446
1.04566
0.961255
0.890772
0.828183
0.775065
0.726335
0.685049
0.645924
0.613153
0.580897
0.554496
0.527259
0.505801
0.482272
0.464789
0.443993
0.429833
0.411002
0.399765
0.382119
0.374374
0.352777
1.41296
1.26526
1.1446
1.04566
0.961259
0.890767
0.828189
0.775059
0.726343
0.685041
0.645934
0.613142
0.58091
0.554482
0.527277
0.505782
0.482295
0.464763
0.444023
0.429797
0.411051
0.399667
0.382461
0.37274
0.354921
1.41296
1.26527
1.1446
1.04566
0.961252
0.890775
0.828179
0.775069
0.726329
0.685054
0.645917
0.613159
0.580889
0.554503
0.527251
0.505809
0.482262
0.464798
0.443982
0.429841
0.410998
0.399729
0.382369
0.372913
0.354771
1.41296
1.26526
1.1446
1.04566
0.961256
0.89077
0.828185
0.775063
0.726338
0.685045
0.645929
0.613147
0.580904
0.554487
0.52727
0.505788
0.482287
0.464771
0.444014
0.429808
0.41103
0.399735
0.38214
0.374398
0.352624
1.41296
1.26527
1.1446
1.04566
0.961254
0.890772
0.828182
0.775066
0.726334
0.68505
0.645923
0.613153
0.580896
0.554496
0.527259
0.5058
0.482272
0.464788
0.443993
0.429831
0.411004
0.399761
0.382124
0.374377
0.35275
1.41296
1.26526
1.1446
1.04566
0.961258
0.890767
0.828189
0.77506
0.726342
0.685042
0.645933
0.613143
0.580909
0.554484
0.527275
0.505785
0.482291
0.464767
0.444018
0.429803
0.411044
0.399676
0.382447
0.372766
0.354894
1.41296
1.26526
1.1446
1.04565
0.96126
0.890765
0.828191
0.775057
0.726345
0.685039
0.645938
0.613139
0.580914
0.554478
0.527281
0.505777
0.4823
0.464759
0.444028
0.429793
0.411055
0.399664
0.382463
0.372731
0.354937
1.41296
1.26526
1.1446
1.04566
0.961255
0.890771
0.828184
0.775064
0.726336
0.685048
0.645926
0.613151
0.5809
0.554493
0.527263
0.505796
0.482277