/*--------------------------------*- C++ -*----------------------------------*\
  =========                 |
  \\      /  F ield         | OpenFOAM: The Open Source CFD Toolbox
   \\    /   O peration     | Website:  https://openfoam.org
    \\  /    A nd           | Version:  12
     \\/     M anipulation  |
\*---------------------------------------------------------------------------*/
FoamFile
{
    format      ascii;
    class       volScalarField;
    location    "400";
    object      nut;
}
// * * * * * * * * * * * * * * * * * * * * * * * * * * * * * * * * * * * * * //

dimensions      [0 2 -1 0 0 0 0];

internalField   nonuniform List<scalar> 
5000
(
1.5
1.5
1.49993
1.5
1.49978
1.5
1.5
1.49798
1.5
1.47919
1.47154
1.4512
1.34424
1.38045
1.28621
1.32583
1.24583
1.24125
1.26729
1.20074
1.22292
1.1627
1.18385
1.12973
1.138
1.49999
1.5
1.5
1.49983
1.5
1.4996
1.5
1.49912
1.5
1.4675
1.47215
1.40215
1.42299
1.39337
1.29805
1.32883
1.24624
1.27761
1.20534
1.23491
1.17176
1.16655
1.18861
1.13417
1.14461
1.49999
1.5
1.5
1.49985
1.5
1.49999
1.49901
1.5
1.5
1.47781
1.47232
1.44888
1.3433
1.37955
1.28655
1.32364
1.24295
1.2767
1.20634
1.201
1.22504
1.16504
1.18591
1.13218
1.13936
1.5
1.49999
1.49996
1.5
1.49953
1.5
1.49414
1.5
1.41997
1.49874
1.38511
1.43706
1.33539
1.37966
1.2847
1.31878
1.31344
1.23652
1.26024
1.19348
1.21699
1.15676
1.17915
1.12419
1.12241
1.5
1.49997
1.49999
1.5
1.49966
1.5
1.4994
1.49668
1.5
1.4091
1.46855
1.3555
1.4081
1.30822
1.35517
1.2666
1.29754
1.29555
1.22287
1.24366
1.17942
1.20068
1.14254
1.16367
1.11193
1.49996
1.5
1.49985
1.5
1.49942
1.5
1.49873
1.49695
1.5
1.41851
1.4698
1.35961
1.40569
1.30738
1.34992
1.26089
1.30297
1.22963
1.23152
1.25175
1.18891
1.20661
1.14932
1.16614
1.12425
1.5
1.49996
1.5
1.49982
1.5
1.4996
1.5
1.49961
1.5
1.47452
1.47439
1.44879
1.34429
1.3794
1.28908
1.3245
1.24683
1.24199
1.2658
1.20007
1.22104
1.16099
1.18178
1.12613
1.12497
1.5
1.4999
1.5
1.49974
1.5
1.49939
1.5
1.49481
1.5
1.412
1.47226
1.3544
1.41049
1.31444
1.35299
1.33658
1.25464
1.28193
1.21084
1.23635
1.17295
1.16703
1.18752
1.13292
1.14231
1.5
1.49999
1.5
1.49982
1.5
1.49993
1.49916
1.5
1.5
1.4779
1.47277
1.44833
1.34431
1.37922
1.28828
1.32409
1.24339
1.27664
1.20507
1.20024
1.22384
1.16439
1.18539
1.13189
1.14016
1.5
1.49996
1.5
1.49994
1.49995
1.5
1.4997
1.49928
1.5
1.47396
1.46735
1.41306
1.42506
1.39375
1.30021
1.32907
1.24809
1.27749
1.20473
1.23363
1.16943
1.16467
1.18677
1.13293
1.14308
1.5
1.49998
1.5
1.49982
1.5
1.49987
1.5
1.49619
1.5
1.41004
1.46976
1.36235
1.41137
1.3128
1.35125
1.33527
1.25357
1.28089
1.209
1.2357
1.17097
1.19647
1.13868
1.13494
1.14368
1.5
1.49998
1.5
1.49994
1.5
1.5
1.49923
1.5
1.48574
1.5
1.38981
1.44515
1.342
1.38159
1.36158
1.27685
1.30503
1.22938
1.25651
1.18855
1.21459
1.15299
1.14788
1.16735
1.12812
1.5
1.5
1.49994
1.5
1.49952
1.5
1.49413
1.5
1.41828
1.49949
1.38286
1.43729
1.33498
1.38045
1.28552
1.32105
1.31266
1.23456
1.25946
1.19146
1.21591
1.15449
1.17808
1.12299
1.12202
1.5
1.5
1.49994
1.5
1.49951
1.5
1.4942
1.5
1.41853
1.49834
1.383
1.43618
1.33461
1.37931
1.28496
1.31955
1.31345
1.23661
1.26014
1.19306
1.21632
1.15583
1.17831
1.12327
1.12143
1.49999
1.5
1.49991
1.5
1.49991
1.49924
1.5
1.46949
1.5
1.4151
1.46607
1.35497
1.40452
1.30578
1.35044
1.26367
1.27831
1.29387
1.22211
1.24266
1.17858
1.19975
1.14188
1.16285
1.11128
1.49998
1.5
1.5
1.49986
1.5
1.4995
1.49918
1.5
1.5
1.49175
1.47674
1.36183
1.40483
1.30626
1.34766
1.26056
1.30012
1.22713
1.22358
1.24719
1.18425
1.20426
1.14684
1.16479
1.12314
1.49998
1.5
1.5
1.49984
1.5
1.49944
1.49915
1.5
1.5
1.49237
1.47697
1.36261
1.40501
1.30676
1.34739
1.26034
1.29952
1.22556
1.22197
1.24632
1.18367
1.20401
1.14685
1.16461
1.12395
1.49998
1.5
1.49997
1.49991
1.5
1.49946
1.49949
1.5
1.5
1.49322
1.47654
1.36401
1.40501
1.30794
1.34766
1.26256
1.30009
1.22619
1.22241
1.24601
1.18365
1.20356
1.14674
1.16417
1.12426
1.5
1.5
1.49994
1.5
1.49952
1.5
1.49423
1.5
1.41946
1.4997
1.38294
1.43611
1.33083
1.37892
1.28401
1.31846
1.31532
1.2376
1.26151
1.19441
1.21773
1.15717
1.17947
1.12406
1.12289
1.49997
1.5
1.49994
1.49997
1.5
1.49882
1.5
1.5
1.49611
1.5
1.38946
1.43521
1.33139
1.37528
1.28223
1.32428
1.24808
1.24512
1.26831
1.20172
1.22225
1.16173
1.18181
1.12662
1.13713
1.49998
1.5
1.4999
1.5
1.49989
1.49987
1.49147
1.49064
1.47023
1.5
1.47547
1.48614
1.46591
1.37335
1.42392
1.38003
1.31722
1.31579
1.31378
1.31024
1.30594
1.3004
1.29456
1.28795
1.28176
1.5
1.49997
1.5
1.49988
1.5
1.49995
1.49394
1.48863
1.47645
1.48396
1.4781
1.5
1.44159
1.38405
1.4295
1.38498
1.30682
1.30683
1.30551
1.30392
1.30097
1.29754
1.29366
1.28874
1.28386
1.49997
1.5
1.49991
1.5
1.49996
1.49987
1.49174
1.49107
1.47555
1.47704
1.48172
1.49925
1.5
1.4124
1.34973
1.37585
1.34444
1.33654
1.32882
1.32161
1.31478
1.30754
1.30055
1.29326
1.28618
1.5
1.49993
1.5
1.49983
1.5
1.49975
1.49377
1.48968
1.47715
1.47157
1.46138
1.5
1.4962
1.39362
1.35383
1.37962
1.3678
1.31239
1.30549
1.29938
1.2944
1.28958
1.28536
1.28083
1.27675
1.5
1.49997
1.5
1.49994
1.5
1.49997
1.49433
1.48958
1.47806
1.47835
1.46637
1.40999
1.5
1.41467
1.34538
1.35766
1.36469
1.33877
1.32226
1.31121
1.30161
1.29401
1.28705
1.28138
1.27585
1.49997
1.5
1.49999
1.49991
1.5
1.49934
1.49335
1.48686
1.48154
1.4706
1.46617
1.42099
1.5
1.44657
1.33413
1.33833
1.33931
1.33638
1.33171
1.3262
1.31934
1.31245
1.30479
1.29751
1.28999
1.5
1.49997
1.5
1.49981
1.5
1.49951
1.49371
1.48725
1.48044
1.46829
1.48415
1.47399
1.5
1.45465
1.34151
1.35435
1.35415
1.33811
1.32832
1.31887
1.31061
1.30281
1.29594
1.28913
1.28313
1.5
1.5
1.5
1.49999
1.49998
1.5
1.49272
1.49101
1.47362
1.48402
1.47782
1.43873
1.5
1.38804
1.3853
1.42428
1.36794
1.31698
1.3077
1.30103
1.29511
1.29019
1.28576
1.28103
1.2763
1.49998
1.5
1.49991
1.5
1.49992
1.49997
1.49174
1.49121
1.47562
1.47694
1.4833
1.49573
1.5
1.41456
1.34836
1.38325
1.34663
1.33011
1.32197
1.31488
1.30854
1.30203
1.29586
1.28939
1.28305
1.5
1.49993
1.5
1.49999
1.49987
1.5
1.49142
1.4946
1.47052
1.47602
1.48411
1.48382
1.5
1.3997
1.39113
1.4368
1.35025
1.31066
1.3047
1.30025
1.29574
1.29168
1.28777
1.28331
1.27869
1.5
1.49993
1.5
1.49986
1.5
1.5
1.49367
1.49106
1.47185
1.49215
1.46923
1.48049
1.49003
1.36803
1.38572
1.43054
1.34823
1.30467
1.29796
1.29328
1.2891
1.28601
1.2826
1.27945
1.27632
1.5
1.49998
1.5
1.49993
1.5
1.49996
1.49313
1.49037
1.4752
1.47935
1.46987
1.49039
1.5
1.39547
1.36518
1.40136
1.35279
1.3003
1.29547
1.29133
1.28813
1.28481
1.28164
1.27867
1.27531
1.5
1.49996
1.5
1.49994
1.5
1.49986
1.49499
1.48938
1.47865
1.47067
1.45432
1.5
1.49245
1.38533
1.36118
1.39105
1.36523
1.30992
1.30302
1.29698
1.29207
1.28727
1.28299
1.27835
1.27409
1.5
1.49995
1.5
1.49991
1.5
1.49977
1.49504
1.48896
1.47863
1.47093
1.45509
1.5
1.49115
1.38195
1.36492
1.3958
1.36348
1.31124
1.30425
1.29817
1.2932
1.2883
1.28387
1.27903
1.27456
1.49999
1.5
1.5
1.49986
1.5
1.49932
1.49337
1.48773
1.47656
1.47981
1.4755
1.49851
1.48889
1.37629
1.37594
1.3915
1.36024
1.33846
1.32672
1.31749
1.30907
1.30196
1.29483
1.28846
1.2819
1.49997
1.5
1.49994
1.49997
1.5
1.49928
1.49376
1.48694
1.47897
1.47624
1.48748
1.49994
1.48585
1.38539
1.38369
1.39533
1.34894
1.33152
1.32223
1.31492
1.30771
1.30117
1.29412
1.28751
1.2807
1.49999
1.5
1.49997
1.49999
1.5
1.49954
1.49424
1.48772
1.47943
1.47634
1.48786
1.5
1.48557
1.38628
1.38507
1.39544
1.34541
1.32919
1.32022
1.313
1.30572
1.299
1.29173
1.28495
1.27782
1.49998
1.5
1.49989
1.5
1.49987
1.49993
1.49246
1.49014
1.4755
1.48473
1.48533
1.49236
1.47616
1.36944
1.39977
1.38734
1.34658
1.33725
1.32917
1.3219
1.31408
1.30664
1.29864
1.29122
1.28358
1.49998
1.5
1.5
1.49992
1.5
1.49932
1.49283
1.48779
1.47674
1.47969
1.45415
1.5
1.45884
1.36917
1.39755
1.40762
1.32287
1.31251
1.30889
1.30522
1.3017
1.29741
1.29297
1.28777
1.28259
1.49995
1.5
1.49988
1.5
1.5
1.49965
1.49109
1.49118
1.47579
1.47362
1.47215
1.5
1.5
1.38523
1.38825
1.40761
1.34756
1.33849
1.33113
1.32373
1.3167
1.30922
1.30193
1.29432
1.28695
1.5
1.5
1.49999
1.5
1.49998
1.5
1.49057
1.48394
1.47372
1.46872
1.45903
1.45614
1.44579
1.4434
1.43473
1.43222
1.42199
1.42061
1.41122
1.40965
1.40099
1.39825
1.39392
1.37675
1.39717
1.5
1.5
1.5
1.49998
1.5
1.49999
1.49064
1.48388
1.47357
1.46857
1.45898
1.45621
1.44578
1.44357
1.43482
1.43247
1.4218
1.42023
1.41076
1.40948
1.40094
1.39855
1.39406
1.37749
1.39683
1.5
1.5
1.49999
1.5
1.49999
1.5
1.49047
1.48399
1.47351
1.46871
1.45883
1.45615
1.44686
1.44345
1.43382
1.43229
1.4222
1.42076
1.41123
1.40986
1.40103
1.39941
1.38998
1.39926
1.36405
1.5
1.49999
1.5
1.49998
1.5
1.49998
1.49064
1.4839
1.4736
1.46851
1.45878
1.45644
1.44667
1.44321
1.4336
1.43305
1.42309
1.42079
1.41065
1.4092
1.40057
1.39843
1.39405
1.3775
1.3968
1.5
1.5
1.5
1.5
1.5
1.49999
1.49062
1.48397
1.47357
1.46883
1.45849
1.45576
1.44704
1.44364
1.43312
1.43248
1.42295
1.42111
1.4107
1.40926
1.40021
1.39867
1.39146
1.38899
1.37951
1.5
1.5
1.49999
1.5
1.5
1.49994
1.49057
1.48377
1.47366
1.46868
1.45843
1.45577
1.44716
1.44401
1.43346
1.43183
1.42204
1.42099
1.41141
1.4103
1.40135
1.39956
1.39215
1.38947
1.37991
1.5
1.5
1.5
1.49999
1.5
1.49995
1.49063
1.4838
1.4736
1.46858
1.45866
1.45583
1.44726
1.4441
1.43345
1.43228
1.42248
1.42088
1.41109
1.40973
1.40105
1.39876
1.39413
1.37789
1.39637
1.5
1.5
1.5
1.5
1.5
1.49999
1.49061
1.48393
1.47348
1.46893
1.45851
1.45604
1.44685
1.44337
1.43423
1.43353
1.42307
1.42079
1.4109
1.40944
1.40061
1.39901
1.38955
1.39888
1.36355
1.5
1.5
1.49999
1.5
1.49999
1.5
1.49049
1.48399
1.47352
1.46873
1.45879
1.45613
1.44695
1.44341
1.43378
1.43244
1.42221
1.42055
1.41098
1.40961
1.40085
1.39923
1.38986
1.39927
1.36354
1.5
1.49999
1.5
1.49999
1.5
1.5
1.49058
1.48407
1.4734
1.46878
1.45901
1.45615
1.44672
1.44334
1.43445
1.43359
1.42278
1.42045
1.41069
1.40921
1.40056
1.3989
1.38964
1.39914
1.363
1.5
1.49999
1.5
1.49999
1.5
1.5
1.49064
1.48394
1.47352
1.46878
1.45859
1.45627
1.44646
1.44311
1.43405
1.43357
1.4226
1.42028
1.4101
1.40901
1.40028
1.39887
1.39174
1.38932
1.37968
1.5
1.5
1.5
1.49999
1.5
1.5
1.49059
1.48395
1.47355
1.46865
1.45878
1.45625
1.44692
1.44331
1.4338
1.43304
1.42262
1.42031
1.41042
1.40898
1.40047
1.39817
1.39381
1.37697
1.39683
1.5
1.49999
1.5
1.5
1.5
1.5
1.49071
1.48394
1.47368
1.46852
1.45898
1.45649
1.44659
1.44308
1.43371
1.43305
1.42298
1.42053
1.41052
1.40889
1.40031
1.39792
1.39351
1.37654
1.39657
1.5
1.49999
1.5
1.49999
1.5
1.5
1.49069
1.48393
1.47366
1.46853
1.45893
1.45648
1.44651
1.44306
1.43372
1.43307
1.42287
1.42053
1.41048
1.40894
1.40025
1.39798
1.3934
1.37672
1.39632
1.5
1.5
1.5
1.49999
1.5
1.49995
1.49059
1.48377
1.47361
1.46862
1.45857
1.45635
1.44644
1.4432
1.43386
1.43279
1.42248
1.421
1.41105
1.40991
1.40084
1.39927
1.39172
1.38913
1.38002
1.49999
1.5
1.49999
1.5
1.5
1.49995
1.49056
1.48377
1.47363
1.46865
1.45865
1.45631
1.4464
1.44323
1.43402
1.43256
1.42198
1.42068
1.41086
1.40976
1.4006
1.39891
1.3914
1.38778
1.37995
1.5
1.5
1.49999
1.5
1.5
1.49997
1.49064
1.4838
1.47373
1.4686
1.45876
1.45626
1.44646
1.44317
1.43409
1.43238
1.42202
1.42048
1.41091
1.40943
1.40053
1.39881
1.38929
1.39889
1.36266
1.5
1.5
1.49999
1.5
1.49998
1.5
1.49049
1.48396
1.47357
1.4687
1.45877
1.4562
1.4461
1.44331
1.43419
1.4322
1.42205
1.42083
1.41118
1.40986
1.40082
1.39932
1.38975
1.39934
1.36365
1.5
1.5
1.5
1.5
1.5
1.49997
1.49053
1.48378
1.47366
1.46847
1.45887
1.4564
1.44582
1.44322
1.43444
1.43299
1.42227
1.42073
1.41099
1.40988
1.40106
1.39942
1.39227
1.38821
1.38099
1.49999
1.5
1.49998
1.5
1.49999
1.49998
1.49073
1.48421
1.47381
1.46893
1.45911
1.45663
1.4469
1.44353
1.43474
1.4333
1.42303
1.42151
1.41199
1.41051
1.40162
1.3999
1.39034
1.3997
1.36374
1.5
1.5
1.5
1.5
1.5
1.5
1.49042
1.48394
1.4732
1.46846
1.45818
1.45493
1.44487
1.44287
1.43304
1.43196
1.42238
1.42188
1.41286
1.41233
1.40446
1.40266
1.39925
1.38215
1.40456
1.5
1.5
1.5
1.5
1.5
1.5
1.49032
1.48387
1.47308
1.4684
1.45806
1.45488
1.44476
1.44284
1.43292
1.43195
1.42225
1.42187
1.4127
1.41234
1.40429
1.40274
1.39894
1.38271
1.40361
1.5
1.5
1.5
1.5
1.5
1.5
1.49031
1.48387
1.47309
1.4684
1.45805
1.45488
1.44477
1.44282
1.4329
1.43193
1.42225
1.42185
1.41271
1.41234
1.40418
1.40344
1.39489
1.4049
1.37046
1.5
1.5
1.5
1.5
1.5
1.5
1.49032
1.48387
1.47309
1.46839
1.45806
1.45487
1.44478
1.4428
1.43291
1.43193
1.4223
1.42184
1.41274
1.41226
1.40434
1.40264
1.39907
1.38268
1.40324
1.5
1.5
1.5
1.5
1.5
1.5
1.49029
1.48389
1.47305
1.46843
1.458
1.45491
1.44472
1.44288
1.43281
1.43201
1.42219
1.42196
1.41259
1.41242
1.40408
1.40319
1.3968
1.39336
1.38719
1.5
1.5
1.5
1.5
1.5
1.5
1.49031
1.48387
1.47307
1.46841
1.45803
1.45488
1.44477
1.44285
1.43288
1.43194
1.42223
1.42188
1.4127
1.41237
1.40416
1.4035
1.39479
1.40525
1.36977
1.5
1.5
1.5
1.5
1.5
1.5
1.49032
1.48387
1.47308
1.4684
1.45804
1.45488
1.44477
1.44284
1.43288
1.43194
1.42224
1.42188
1.41268
1.41236
1.40415
1.40349
1.39483
1.40505
1.3703
1.5
1.5
1.5
1.5
1.5
1.5
1.49033
1.48386
1.4731
1.46839
1.45807
1.45486
1.44479
1.4428
1.43293
1.43193
1.4223
1.42183
1.41275
1.41228
1.40436
1.40263
1.39912
1.38247
1.4036
1.5
1.5
1.5
1.5
1.5
1.5
1.49033
1.48386
1.4731
1.46839
1.45807
1.45486
1.44479
1.4428
1.43292
1.43191
1.42227
1.42182
1.41273
1.41229
1.40435
1.40267
1.39905
1.38262
1.40345
1.5
1.5
1.5
1.5
1.5
1.5
1.49033
1.48387
1.47309
1.46839
1.45807
1.45487
1.44478
1.4428
1.43293
1.43193
1.42229
1.42181
1.41273
1.41228
1.40422
1.40338
1.39491
1.40493
1.37012
1.5
1.5
1.5
1.5
1.5
1.5
1.49029
1.48389
1.47305
1.46842
1.45801
1.45491
1.44471
1.44287
1.43283
1.43202
1.42218
1.42193
1.41257
1.4124
1.4041
1.4032
1.39673
1.39465
1.38626
1.5
1.5
1.5
1.5
1.5
1.5
1.49031
1.48387
1.47308
1.4684
1.45805
1.45488
1.44477
1.44283
1.43289
1.43196
1.42226
1.42187
1.41268
1.41232
1.40427
1.40272
1.39899
1.38254
1.4039
1.5
1.5
1.5
1.5
1.5
1.5
1.49033
1.48387
1.4731
1.46838
1.45808
1.45487
1.44479
1.4428
1.43292
1.43193
1.42231
1.42183
1.41273
1.41226
1.40432
1.40265
1.39901
1.38248
1.40378
1.5
1.5
1.5
1.5
1.5
1.5
1.49033
1.48387
1.4731
1.46839
1.45807
1.45487
1.44478
1.4428
1.43292
1.43193
1.4223
1.42183
1.41272
1.41226
1.40431
1.40265
1.39901
1.38247
1.40378
1.5
1.5
1.5
1.5
1.5
1.5
1.4903
1.48387
1.47307
1.4684
1.45803
1.45489
1.44474
1.44284
1.43287
1.43196
1.42223
1.42189
1.41267
1.41236
1.40426
1.40277
1.39892
1.3828
1.40342
1.5
1.5
1.5
1.5
1.5
1.5
1.4903
1.48387
1.47307
1.46841
1.45803
1.45489
1.44474
1.44284
1.43288
1.43195
1.42221
1.42187
1.41267
1.41237
1.40412
1.4035
1.39472
1.4052
1.36995
1.5
1.5
1.5
1.5
1.5
1.5
1.49031
1.48387
1.47308
1.4684
1.45804
1.45489
1.44475
1.44284
1.43288
1.43195
1.42221
1.42188
1.41266
1.41238
1.4041
1.40349
1.39474
1.40527
1.36968
1.5
1.5
1.5
1.5
1.5
1.5
1.4903
1.48388
1.47307
1.46841
1.45804
1.45489
1.44474
1.44284
1.43288
1.43194
1.42222
1.42188
1.41269
1.41235
1.40422
1.40307
1.39705
1.39303
1.38744
1.5
1.5
1.5
1.5
1.5
1.5
1.49032
1.48387
1.47309
1.4684
1.45807
1.45488
1.44478
1.44283
1.43294
1.43195
1.4223
1.42186
1.41277
1.41231
1.4044
1.4027
1.39915
1.38262
1.40352
1.5
1.5
1.5
1.5
1.5
1.5
1.49058
1.48417
1.47334
1.46869
1.4583
1.45518
1.445
1.44314
1.43312
1.43227
1.42246
1.42221
1.41289
1.4127
1.40439
1.40348
1.39696
1.39488
1.3866
1.5
1.5
1.5
1.5
1.5
1.5
1.49039
1.48395
1.47314
1.46846
1.4581
1.4549
1.44479
1.44283
1.4329
1.43189
1.42224
1.42179
1.41271
1.41226
1.40437
1.40268
1.3992
1.38247
1.4042
1.5
1.5
1.5
1.5
1.5
1.5
1.49026
1.48389
1.47301
1.46842
1.45796
1.45488
1.44463
1.44283
1.43272
1.43193
1.42203
1.42187
1.41246
1.4124
1.404
1.40327
1.39664
1.39463
1.38704
1.5
1.5
1.5
1.5
1.5
1.5
1.49029
1.48387
1.47305
1.46839
1.45801
1.45483
1.44469
1.44276
1.4328
1.43183
1.42213
1.42174
1.4126
1.41222
1.40425
1.40266
1.39904
1.38276
1.40342
1.5
1.5
1.5
1.5
1.5
1.5
1.4903
1.48387
1.47306
1.46838
1.45802
1.45482
1.44471
1.44274
1.43283
1.4318
1.42217
1.4217
1.41265
1.41219
1.40417
1.40336
1.39488
1.40509
1.37011
1.5
1.5
1.5
1.5
1.5
1.5
1.49028
1.48388
1.47303
1.4684
1.45798
1.45485
1.44466
1.44279
1.43276
1.43186
1.4221
1.42177
1.41257
1.41226
1.40415
1.40307
1.39681
1.39474
1.38582
1.5
1.5
1.5
1.5
1.5
1.5
1.49026
1.48389
1.47301
1.46841
1.45796
1.45487
1.44463
1.44281
1.43273
1.43189
1.42205
1.42182
1.4125
1.41233
1.40406
1.40314
1.39689
1.39338
1.38726
1.5
1.5
1.5
1.5
1.5
1.5
1.49028
1.48388
1.47303
1.4684
1.45798
1.45485
1.44466
1.44279
1.43276
1.43186
1.42209
1.42178
1.41255
1.41228
1.40413
1.40307
1.397
1.39315
1.38753
1.5
1.5
1.5
1.5
1.5
1.5
1.4903
1.48387
1.47306
1.46838
1.45802
1.45482
1.44471
1.44275
1.43282
1.43181
1.42217
1.42171
1.41264
1.41218
1.4043
1.40262
1.39908
1.38257
1.40377
1.5
1.5
1.5
1.5
1.5
1.5
1.49031
1.48386
1.47307
1.46837
1.45804
1.45481
1.44473
1.44274
1.43284
1.4318
1.42218
1.4217
1.41266
1.41217
1.40431
1.4026
1.39914
1.38231
1.40443
1.5
1.5
1.5
1.5
1.5
1.5
1.4903
1.48387
1.47306
1.46838
1.45802
1.45482
1.44471
1.44275
1.43282
1.43181
1.42216
1.42171
1.41264
1.41218
1.40431
1.40261
1.39908
1.38272
1.40332
1.5
1.5
1.5
1.5
1.5
1.5
1.49026
1.48389
1.47301
1.46841
1.45796
1.45487
1.44464
1.44281
1.43273
1.4319
1.42205
1.42183
1.41249
1.41235
1.40405
1.40318
1.39682
1.39343
1.3873
1.5
1.5
1.5
1.5
1.5
1.5
1.49028
1.48388
1.47304
1.46839
1.45799
1.45484
1.44467
1.44278
1.43278
1.43185
1.42211
1.42176
1.41258
1.41225
1.40416
1.40307
1.39679
1.39474
1.38592
1.5
1.5
1.5
1.5
1.5
1.5
1.4903
1.48387
1.47306
1.46838
1.45802
1.45482
1.44471
1.44275
1.43282
1.43181
1.42216
1.42172
1.41263
1.41222
1.40415
1.40338
1.39489
1.40506
1.37024
1.5
1.5
1.5
1.5
1.5
1.5
1.4903
1.48387
1.47306
1.46838
1.45802
1.45482
1.44471
1.44275
1.43282
1.43181
1.42216
1.42171
1.41264
1.4122
1.40417
1.40335
1.39494
1.40497
1.37031
1.5
1.5
1.5
1.5
1.5
1.5
1.49027
1.48389
1.47301
1.46841
1.45796
1.45487
1.44463
1.44282
1.43272
1.4319
1.42204
1.42184
1.41248
1.41236
1.40403
1.4032
1.3967
1.39466
1.38662
1.5
1.5
1.5
1.5
1.5
1.5
1.49027
1.48388
1.47302
1.4684
1.45798
1.45486
1.44465
1.44279
1.43275
1.43187
1.42208
1.42179
1.41254
1.41229
1.40412
1.40307
1.39699
1.39317
1.3875
1.5
1.5
1.5
1.5
1.5
1.5
1.49027
1.48388
1.47302
1.46841
1.45797
1.45486
1.44465
1.4428
1.43274
1.43188
1.42206
1.42181
1.41251
1.41232
1.40407
1.40314
1.39689
1.39337
1.38728
1.5
1.5
1.5
1.5
1.5
1.5
1.4903
1.48387
1.47306
1.46838
1.45802
1.45482
1.44471
1.44274
1.43282
1.4318
1.42217
1.4217
1.41266
1.41216
1.40434
1.40257
1.39912
1.38265
1.40333
1.5
1.5
1.5
1.5
1.5
1.5
1.49029
1.48388
1.47305
1.4684
1.45801
1.45485
1.4447
1.44279
1.43281
1.43186
1.42215
1.42177
1.41262
1.41226
1.40422
1.40306
1.39709
1.39297
1.38795
1.5
1.5
1.5
1.5
1.5
1.5
1.49058
1.48415
1.47334
1.46866
1.45829
1.4551
1.44497
1.44302
1.43308
1.43208
1.42241
1.42198
1.41288
1.41245
1.40453
1.40288
1.39933
1.38283
1.40391
1.5
1.5
1.5
1.5
1.5
1.5
1.49036
1.48396
1.47311
1.46848
1.45805
1.45493
1.44473
1.44286
1.43282
1.43194
1.42214
1.42186
1.41258
1.41237
1.40414
1.40319
1.39692
1.39337
1.38745
1.5
1.5
1.5
1.5
1.5
1.5
1.49028
1.48388
1.47303
1.46839
1.45799
1.45484
1.44467
1.44277
1.43277
1.43183
1.42211
1.42174
1.41258
1.41222
1.40418
1.40298
1.39709
1.39289
1.38785
1.5
1.5
1.5
1.5
1.5
1.5
1.49029
1.48387
1.47305
1.46838
1.458
1.45482
1.44469
1.44275
1.43279
1.43181
1.42213
1.42171
1.4126
1.41218
1.40425
1.40263
1.39897
1.3828
1.40324
1.5
1.5
1.5
1.5
1.5
1.5
1.49029
1.48387
1.47305
1.46838
1.458
1.45482
1.44468
1.44275
1.43279
1.43181
1.42212
1.42172
1.41258
1.41223
1.40408
1.40341
1.39477
1.40527
1.36983
1.5
1.5
1.5
1.5
1.5
1.5
1.4903
1.48386
1.47306
1.46837
1.45802
1.45481
1.4447
1.44273
1.43282
1.43178
1.42216
1.42167
1.41264
1.41215
1.40418
1.4033
1.39492
1.40518
1.36952
1.5
1.5
1.5
1.5
1.5
1.5
1.49026
1.48388
1.47301
1.46841
1.45795
1.45486
1.44462
1.4428
1.43271
1.43188
1.42203
1.42181
1.41247
1.41232
1.40403
1.40315
1.39671
1.39465
1.38639
1.5
1.5
1.5
1.5
1.5
1.5
1.49027
1.48388
1.47302
1.4684
1.45796
1.45485
1.44464
1.44279
1.43273
1.43186
1.42205
1.42179
1.4125
1.41229
1.40407
1.4031
1.39689
1.39326
1.38741
1.5
1.5
1.5
1.5
1.5
1.5
1.49029
1.48387
1.47305
1.46838
1.458
1.45482
1.44469
1.44275
1.43279
1.4318
1.42213
1.42171
1.4126
1.4122
1.40412
1.40336
1.39488
1.40492
1.37048
1.5
1.5
1.5
1.5
1.5
1.5
1.4903
1.48386
1.47306
1.46837
1.45801
1.45481
1.4447
1.44274
1.43281
1.4318
1.42214
1.4217
1.41261
1.41217
1.40426
1.40261
1.39904
1.38263
1.40359
1.5
1.5
1.5
1.5
1.5
1.5
1.49029
1.48387
1.47304
1.46838
1.458
1.45483
1.44468
1.44275
1.43278
1.43182
1.42211
1.42173
1.41257
1.41224
1.40407
1.40343
1.39475
1.40517
1.37019
1.5
1.5
1.5
1.5
1.5
1.5
1.4903
1.48386
1.47305
1.46837
1.45801
1.45482
1.44469
1.44274
1.4328
1.4318
1.42214
1.4217
1.4126
1.4122
1.40411
1.40338
1.39479
1.40538
1.36941
1.5
1.5
1.5
1.5
1.5
1.5
1.4903
1.48386
1.47306
1.46837
1.45802
1.45481
1.4447
1.44273
1.43281
1.43178
1.42216
1.42168
1.41263
1.41216
1.40417
1.4033
1.39496
1.40498
1.37004
1.5
1.5
1.5
1.5
1.5
1.5
1.4903
1.48386
1.47306
1.46837
1.45802
1.45481
1.44471
1.44273
1.43281
1.43179
1.42215
1.42169
1.41262
1.41216
1.40428
1.40257
1.39913
1.38251
1.40374
1.5
1.5
1.5
1.5
1.5
1.5
1.49031
1.48386
1.47307
1.46837
1.45803
1.4548
1.44471
1.44272
1.43282
1.43178
1.42216
1.42168
1.41263
1.41215
1.40429
1.40257
1.39912
1.3824
1.40407
1.5
1.5
1.5
1.5
1.5
1.5
1.4903
1.48386
1.47306
1.46837
1.45801
1.45481
1.4447
1.44273
1.43281
1.43179
1.42215
1.42169
1.41263
1.41215
1.40429
1.40257
1.39911
1.38242
1.404
1.5
1.5
1.5
1.5
1.5
1.5
1.4903
1.48386
1.47305
1.46837
1.45801
1.45481
1.4447
1.44273
1.43281
1.43178
1.42215
1.42168
1.41263
1.41214
1.4043
1.40256
1.39907
1.38259
1.40348
1.5
1.5
1.5
1.5
1.5
1.5
1.49029
1.48387
1.47305
1.46838
1.458
1.45482
1.44469
1.44275
1.43279
1.43181
1.42212
1.42172
1.41258
1.41222
1.40409
1.4034
1.39481
1.40509
1.37027
1.5
1.5
1.5
1.5
1.5
1.5
1.49029
1.48387
1.47305
1.46838
1.45801
1.45482
1.44469
1.44275
1.43279
1.43181
1.42213
1.42171
1.4126
1.41221
1.40411
1.40338
1.39485
1.40511
1.37007
1.5
1.5
1.5
1.5
1.5
1.5
1.49028
1.48388
1.47304
1.4684
1.45799
1.45485
1.44468
1.44279
1.43278
1.43186
1.42211
1.42177
1.41258
1.41226
1.40417
1.40308
1.39683
1.39475
1.38584
1.5
1.5
1.5
1.5
1.5
1.5
1.49059
1.48414
1.47335
1.46864
1.4583
1.45508
1.44499
1.44299
1.43309
1.43203
1.42244
1.42192
1.41291
1.4124
1.40443
1.40355
1.39513
1.4054
1.37
1.5
1.5
1.5
1.5
1.5
1.5
1.49038
1.48395
1.47313
1.46845
1.45809
1.45489
1.44477
1.44281
1.43287
1.43187
1.4222
1.42178
1.41266
1.41227
1.40417
1.40345
1.39485
1.40537
1.36978
1.5
1.5
1.5
1.5
1.5
1.5
1.4903
1.48387
1.47305
1.46838
1.45801
1.45482
1.44469
1.44274
1.4328
1.4318
1.42214
1.4217
1.41261
1.41217
1.40427
1.40259
1.39906
1.38266
1.40339
1.5
1.5
1.5
1.5
1.5
1.5
1.49029
1.48387
1.47304
1.46838
1.45799
1.45482
1.44467
1.44275
1.43277
1.43181
1.4221
1.42173
1.41256
1.41223
1.40405
1.40342
1.39474
1.40516
1.37018
1.5
1.5
1.5
1.5
1.5
1.5
1.49026
1.48388
1.473
1.4684
1.45795
1.45486
1.44461
1.4428
1.4327
1.43189
1.422
1.42182
1.41244
1.41234
1.40398
1.40318
1.39675
1.39358
1.38691
1.5
1.5
1.5
1.5
1.5
1.5
1.49029
1.48387
1.47304
1.46838
1.45799
1.45482
1.44467
1.44275
1.43277
1.43181
1.4221
1.42172
1.41256
1.41222
1.40407
1.40338
1.39486
1.40497
1.37041
1.5
1.5
1.5
1.5
1.5
1.5
1.49029
1.48386
1.47305
1.46837
1.458
1.45481
1.44468
1.44274
1.43279
1.4318
1.42212
1.4217
1.41259
1.41217
1.40424
1.40259
1.39908
1.38247
1.40392
1.5
1.5
1.5
1.5
1.5
1.5
1.49029
1.48387
1.47304
1.46837
1.458
1.45482
1.44468
1.44274
1.43278
1.4318
1.42211
1.42171
1.41258
1.41218
1.40423
1.40262
1.39902
1.38249
1.40398
1.5
1.5
1.5
1.5
1.5
1.5
1.49027
1.48387
1.47302
1.46839
1.45797
1.45484
1.44465
1.44277
1.43274
1.43185
1.42206
1.42177
1.41251
1.41227
1.40407
1.4031
1.39672
1.39466
1.38623
1.5
1.5
1.5
1.5
1.5
1.5
1.4903
1.48386
1.47305
1.46837
1.45801
1.45481
1.44469
1.44273
1.4328
1.43178
1.42214
1.42168
1.41261
1.41214
1.40427
1.40256
1.3991
1.3824
1.40399
1.5
1.5
1.5
1.5
1.5
1.5
1.49026
1.48388
1.473
1.4684
1.45795
1.45486
1.44461
1.44281
1.43269
1.43189
1.422
1.42183
1.41243
1.41236
1.40396
1.40321
1.39668
1.39363
1.38695
1.5
1.5
1.5
1.5
1.5
1.5
1.49028
1.48387
1.47303
1.46838
1.45799
1.45482
1.44467
1.44275
1.43277
1.43181
1.4221
1.42172
1.41256
1.41221
1.40408
1.40338
1.39481
1.40517
1.3699
1.5
1.5
1.5
1.5
1.5
1.5
1.49027
1.48388
1.47302
1.46839
1.45797
1.45484
1.44464
1.44278
1.43273
1.43185
1.42206
1.42177
1.41251
1.41227
1.40407
1.40309
1.39676
1.39467
1.38607
1.5
1.5
1.5
1.5
1.5
1.5
1.49029
1.48386
1.47305
1.46837
1.458
1.45481
1.44469
1.44274
1.43279
1.4318
1.42212
1.4217
1.41259
1.41218
1.40423
1.40262
1.399
1.3826
1.40375
1.5
1.5
1.5
1.5
1.5
1.5
1.4903
1.48386
1.47306
1.46836
1.45802
1.45479
1.44471
1.44271
1.43282
1.43176
1.42217
1.42165
1.41266
1.4121
1.40433
1.40251
1.39914
1.38235
1.4039
1.5
1.5
1.5
1.5
1.5
1.5
1.49028
1.48387
1.47303
1.46839
1.45798
1.45483
1.44466
1.44276
1.43275
1.43183
1.42208
1.42174
1.41254
1.41223
1.40412
1.40303
1.39695
1.39303
1.38772
1.5
1.5
1.5
1.5
1.5
1.5
1.49028
1.48387
1.47303
1.46839
1.45798
1.45484
1.44465
1.44277
1.43275
1.43184
1.42207
1.42175
1.41252
1.41225
1.40409
1.40306
1.39691
1.39315
1.38755
1.5
1.5
1.5
1.5
1.5
1.5
1.4903
1.48386
1.47306
1.46836
1.45801
1.4548
1.4447
1.44271
1.43282
1.43176
1.42217
1.42165
1.41265
1.4121
1.40433
1.40249
1.39917
1.38249
1.40338
1.5
1.5
1.5
1.5
1.5
1.5
1.49028
1.48387
1.47303
1.46838
1.45798
1.45483
1.44466
1.44276
1.43276
1.43182
1.42209
1.42173
1.41255
1.41222
1.40413
1.40301
1.397
1.39303
1.38763
1.5
1.5
1.5
1.5
1.5
1.5
1.49027
1.48388
1.47303
1.4684
1.45798
1.45485
1.44466
1.44279
1.43276
1.43186
1.42209
1.42178
1.41255
1.41227
1.40413
1.40307
1.397
1.39312
1.38762
1.5
1.5
1.5
1.5
1.5
1.5
1.49057
1.48415
1.47332
1.46866
1.45826
1.4551
1.44494
1.44302
1.43303
1.43208
1.42236
1.42198
1.41282
1.41246
1.4044
1.40326
1.39705
1.39497
1.38592
1.5
1.5
1.5
1.5
1.5
1.5
1.49037
1.48395
1.47312
1.46846
1.45808
1.4549
1.44475
1.44282
1.43285
1.43188
1.42218
1.42179
1.41263
1.41229
1.40414
1.40347
1.39484
1.40535
1.36987
1.5
1.5
1.5
1.5
1.5
1.5
1.49028
1.48387
1.47304
1.46838
1.45799
1.45483
1.44467
1.44276
1.43277
1.43182
1.42209
1.42174
1.41255
1.41222
1.40419
1.40267
1.39893
1.38283
1.40333
1.5
1.5
1.5
1.5
1.5
1.5
1.49029
1.48386
1.47304
1.46837
1.45799
1.45481
1.44467
1.44274
1.43277
1.4318
1.42211
1.4217
1.41257
1.4122
1.40409
1.40336
1.39483
1.4051
1.37002
1.5
1.5
1.5
1.5
1.5
1.5
1.49027
1.48387
1.47302
1.46839
1.45797
1.45484
1.44464
1.44277
1.43274
1.43183
1.42206
1.42175
1.41252
1.41224
1.4041
1.40303
1.39697
1.3931
1.3875
1.5
1.5
1.5
1.5
1.5
1.5
1.4903
1.48386
1.47305
1.46836
1.45801
1.4548
1.4447
1.44272
1.4328
1.43177
1.42214
1.42167
1.41262
1.41214
1.40428
1.40254
1.39913
1.3824
1.40389
1.5
1.5
1.5
1.5
1.5
1.5
1.4903
1.48386
1.47305
1.46836
1.45801
1.4548
1.44469
1.44272
1.4328
1.43178
1.42213
1.42169
1.4126
1.41216
1.40425
1.4026
1.39901
1.38251
1.4039
1.5
1.5
1.5
1.5
1.5
1.5
1.49029
1.48386
1.47305
1.46837
1.458
1.45481
1.44468
1.44273
1.43278
1.43179
1.42212
1.4217
1.41258
1.41218
1.40422
1.40263
1.39894
1.38275
1.4034
1.5
1.5
1.5
1.5
1.5
1.5
1.49029
1.48386
1.47305
1.46837
1.458
1.45481
1.44469
1.44273
1.43279
1.43179
1.42213
1.42169
1.41259
1.41218
1.40411
1.40334
1.39484
1.40503
1.37016
1.5
1.5
1.5
1.5
1.5
1.5
1.4903
1.48386
1.47305
1.46837
1.45801
1.45481
1.44469
1.44273
1.43279
1.43179
1.42213
1.42169
1.4126
1.41216
1.40424
1.40259
1.39903
1.38261
1.40358
1.5
1.5
1.5
1.5
1.5
1.5
1.49028
1.48387
1.47302
1.46838
1.45797
1.45483
1.44465
1.44276
1.43274
1.43183
1.42207
1.42175
1.41252
1.41226
1.40401
1.40344
1.39475
1.40502
1.37057
1.5
1.5
1.5
1.5
1.5
1.5
1.49026
1.48388
1.47301
1.46839
1.45796
1.45484
1.44463
1.44278
1.43272
1.43185
1.42204
1.42177
1.41249
1.41227
1.40406
1.40307
1.39691
1.39325
1.38728
1.5
1.5
1.5
1.5
1.5
1.5
1.49027
1.48388
1.47302
1.46839
1.45796
1.45484
1.44464
1.44277
1.43273
1.43183
1.42206
1.42174
1.41252
1.41223
1.4041
1.40305
1.39675
1.39469
1.3859
1.5
1.5
1.5
1.5
1.5
1.5
1.49028
1.48387
1.47303
1.46838
1.45798
1.45482
1.44466
1.44275
1.43276
1.43182
1.42208
1.42173
1.41254
1.41223
1.40405
1.4034
1.3948
1.40498
1.37047
1.5
1.5
1.5
1.5
1.5
1.5
1.49026
1.48388
1.47301
1.46839
1.45795
1.45485
1.44462
1.44279
1.43271
1.43186
1.42202
1.42179
1.41246
1.4123
1.40401
1.40313
1.39679
1.39341
1.38719
1.5
1.5
1.5
1.5
1.5
1.5
1.49025
1.48388
1.473
1.4684
1.45794
1.45486
1.4446
1.4428
1.43269
1.43188
1.422
1.42181
1.41244
1.41232
1.40399
1.40315
1.39676
1.39343
1.38717
1.5
1.5
1.5
1.5
1.5
1.5
1.49028
1.48387
1.47303
1.46838
1.45797
1.45483
1.44465
1.44276
1.43275
1.43182
1.42207
1.42174
1.41252
1.41225
1.40402
1.40344
1.3947
1.40529
1.36991
1.5
1.5
1.5
1.5
1.5
1.5
1.49027
1.48387
1.47302
1.46839
1.45797
1.45483
1.44465
1.44276
1.43274
1.43183
1.42207
1.42174
1.41253
1.41223
1.40411
1.40302
1.39697
1.39306
1.38759
1.5
1.5
1.5
1.5
1.5
1.5
1.4903
1.48386
1.47306
1.46836
1.45802
1.4548
1.4447
1.44271
1.43281
1.43176
1.42215
1.42166
1.41263
1.41212
1.4043
1.40253
1.39915
1.38231
1.40406
1.5
1.5
1.5
1.5
1.5
1.5
1.4903
1.48386
1.47306
1.46837
1.45802
1.45481
1.44471
1.44274
1.43282
1.43179
1.42217
1.42169
1.41265
1.41215
1.40432
1.40258
1.39909
1.38261
1.40351
1.5
1.5
1.5
1.5
1.5
1.5
1.49059
1.48414
1.47334
1.46864
1.45829
1.45508
1.44497
1.44299
1.43307
1.43204
1.4224
1.42194
1.41286
1.41242
1.40437
1.40359
1.39508
1.40534
1.37029
1.5
1.5
1.5
1.5
1.5
1.5
1.49036
1.48396
1.47311
1.46848
1.45806
1.45493
1.44474
1.44286
1.43283
1.43193
1.42216
1.42185
1.41262
1.41234
1.4042
1.40313
1.39707
1.39322
1.38757
1.5
1.5
1.5
1.5
1.5
1.5
1.49026
1.48389
1.47301
1.46841
1.45796
1.45487
1.44463
1.44281
1.43272
1.43189
1.42205
1.42182
1.4125
1.41233
1.40406
1.40317
1.3967
1.39467
1.38649
1.5
1.5
1.5
1.5
1.5
1.5
1.49026
1.48388
1.47301
1.4684
1.45797
1.45485
1.44464
1.44279
1.43274
1.43186
1.42207
1.42178
1.41252
1.41228
1.4041
1.40309
1.39678
1.39471
1.38603
1.5
1.5
1.5
1.5
1.5
1.5
1.49027
1.48388
1.47302
1.4684
1.45797
1.45485
1.44464
1.44279
1.43274
1.43187
1.42206
1.42179
1.41251
1.4123
1.40408
1.40311
1.3969
1.39327
1.38741
1.5
1.5
1.5
1.5
1.5
1.5
1.4903
1.48386
1.47306
1.46837
1.45802
1.45481
1.4447
1.44274
1.43281
1.4318
1.42215
1.4217
1.41263
1.41217
1.40429
1.4026
1.39907
1.38256
1.40377
1.5
1.5
1.5
1.5
1.5
1.5
1.49029
1.48387
1.47305
1.46838
1.458
1.45483
1.44468
1.44276
1.43279
1.43182
1.42212
1.42174
1.41258
1.41225
1.40408
1.40345
1.39476
1.40519
1.37021
1.5
1.5
1.5
1.5
1.5
1.5
1.49029
1.48387
1.47304