/*--------------------------------*- C++ -*----------------------------------*\
  =========                 |
  \\      /  F ield         | OpenFOAM: The Open Source CFD Toolbox
   \\    /   O peration     | Website:  https://openfoam.org
    \\  /    A nd           | Version:  12
     \\/     M anipulation  |
\*---------------------------------------------------------------------------*/
FoamFile
{
    format      ascii;
    class       volScalarField;
    location    "400";
    object      p;
}
// * * * * * * * * * * * * * * * * * * * * * * * * * * * * * * * * * * * * * //

dimensions      [0 2 -2 0 0 0 0];

internalField   nonuniform List<scalar> 
5000
(
0.587644
0.43223
0.343711
0.310381
0.286624
0.26184
0.239116
0.219466
0.201797
0.185356
0.169921
0.155387
0.14152
0.128164
0.115211
0.102536
0.0901064
0.0778862
0.0657987
0.0538201
0.0419289
0.0300487
0.0180384
0.00570573
-0.0112302
0.587403
0.43243
0.343744
0.310321
0.286618
0.261866
0.239123
0.21946
0.201815
0.185394
0.169933
0.155336
0.141439
0.128087
0.115143
0.102489
0.0900972
0.0779116
0.0658514
0.0538844
0.0419738
0.0300758
0.0180547
0.00570685
-0.011144
0.587377
0.432482
0.34374
0.310298
0.286617
0.261879
0.239128
0.219435
0.201768
0.185359
0.169946
0.155402
0.141536
0.128145
0.115132
0.102455
0.0900753
0.0778963
0.0658117
0.0538302
0.0419445
0.0300772
0.0180779
0.00573627
-0.0111237
0.587368
0.432486
0.343747
0.310298
0.286619
0.261889
0.239154
0.219509
0.201895
0.185493
0.170039
0.155442
0.141519
0.128059
0.114983
0.102311
0.0899635
0.0777983
0.0657519
0.0538095
0.0419601
0.0301236
0.0181376
0.00577188
-0.0111394
0.587367
0.432489
0.343753
0.3103
0.286621
0.261897
0.239176
0.219538
0.201941
0.185572
0.17012
0.155501
0.141548
0.128053
0.114934
0.102216
0.0898646
0.0777179
0.0656913
0.0537685
0.0419364
0.030113
0.0181438
0.00580322
-0.0111189
0.587367
0.432489
0.343755
0.3103
0.286623
0.261899
0.239178
0.219523
0.201884
0.185497
0.170061
0.155474
0.141574
0.128117
0.115004
0.102274
0.089882
0.0776968
0.065657
0.0537304
0.0418969
0.0300718
0.018101
0.00576927
-0.0111148
0.587367
0.432489
0.343756
0.310299
0.286621
0.261895
0.239163
0.21949
0.201811
0.185388
0.169971
0.155416
0.141524
0.128087
0.115017
0.10234
0.0899729
0.0777918
0.0657373
0.0537922
0.0419385
0.0300954
0.018106
0.00574209
-0.0111561
0.587366
0.432489
0.343755
0.310298
0.286617
0.261892
0.239159
0.219512
0.201912
0.185555
0.170128
0.15551
0.141518
0.127995
0.114927
0.102279
0.089939
0.0777718
0.0657198
0.0537629
0.0418654
0.0299856
0.0179837
0.00565153
-0.011179
0.587366
0.432488
0.343754
0.310297
0.286615
0.26189
0.239151
0.219471
0.201832
0.185454
0.170047
0.15548
0.141562
0.128097
0.11503
0.102342
0.0899621
0.0777725
0.0656742
0.0536839
0.0417942
0.0299318
0.0179484
0.00563645
-0.0111653
0.587365
0.432488
0.343753
0.310297
0.286615
0.261891
0.239161
0.219502
0.201895
0.185533
0.170073
0.155424
0.141467
0.127997
0.114949
0.102288
0.0899057
0.0777046
0.0656344
0.0536748
0.0417881
0.0299244
0.0179401
0.00563162
-0.0111679
0.587365
0.432487
0.343753
0.310296
0.286617
0.261897
0.239179
0.219561
0.201995
0.185648
0.170183
0.155526
0.141508
0.127945
0.114849
0.102169
0.0897706
0.0775626
0.0655064
0.0535826
0.0417634
0.0299512
0.0179716
0.00565463
-0.0111648
0.587364
0.432486
0.343752
0.310296
0.286617
0.261895
0.239177
0.219551
0.201964
0.185594
0.170119
0.155446
0.141422
0.127882
0.114782
0.102095
0.0897102
0.0775255
0.0654967
0.0536033
0.0418085
0.0299942
0.0180283
0.00570673
-0.0111565
0.587363
0.432485
0.34375
0.310294
0.286613
0.261888
0.239166
0.219544
0.201951
0.185557
0.170082
0.155429
0.141417
0.127855
0.114708
0.102005
0.0896432
0.0774827
0.065475
0.0535999
0.0418303
0.0300637
0.0181261
0.00577934
-0.0111429
0.587361
0.432484
0.343747
0.31029
0.286605
0.261873
0.239138
0.219491
0.201868
0.18545
0.169975
0.155341
0.141355
0.127826
0.114713
0.102035
0.0896908
0.0775438
0.0655417
0.0536645
0.0418901
0.030119
0.0181748
0.00581354
-0.0111321
0.58736
0.432482
0.343744
0.310284
0.286595
0.26185
0.239095
0.219388
0.201709
0.185305
0.169883
0.155296
0.14134
0.127866
0.114807
0.102121
0.0897684
0.077625
0.0656158
0.0537236
0.0419305
0.0301423
0.0181918
0.0058458
-0.0111111
0.587358
0.432479
0.343739
0.310277
0.286582
0.261823
0.239029
0.219258
0.201515
0.185109
0.169741
0.155219
0.141329
0.127925
0.114933
0.102287
0.0899334
0.0777612
0.0657152
0.0537858
0.041958
0.0301386
0.0181672
0.00582437
-0.0110921
0.587358
0.432474
0.343731
0.310272
0.286572
0.261801
0.238988
0.219194
0.201433
0.185019
0.169668
0.155176
0.141313
0.127933
0.114965
0.102341
0.0900007
0.077832
0.0657782
0.0538373
0.041996
0.0301622
0.0181777
0.00582659
-0.011087
0.587366
0.432469
0.343722
0.310269
0.286566
0.261788
0.238975
0.219194
0.201441
0.185025
0.169671
0.155179
0.141315
0.127943
0.114981
0.102346
0.0899991
0.0778296
0.0657752
0.0538335
0.0419903
0.0301551
0.0181685
0.00581597
-0.0111004
0.587391
0.432416
0.343722
0.310291
0.286563
0.261774
0.238976
0.219246
0.201552
0.185132
0.169735
0.15519
0.141264
0.127835
0.114854
0.10224
0.0899131
0.0777748
0.0657545
0.0538407
0.0420182
0.0301981
0.0182139
0.00583089
-0.0111298
0.587631
0.432215
0.343688
0.310347
0.286567
0.261745
0.238957
0.219209
0.201471
0.185053
0.169668
0.155143
0.14127
0.127874
0.114902
0.102279
0.0899224
0.0777723
0.0657482
0.0538333
0.0420097
0.0301889
0.0182109
0.00586542
-0.0111619
0.441126
0.376687
0.328001
0.305925
0.28597
0.264536
0.244412
0.226221
0.209297
0.193171
0.177728
0.162988
0.148857
0.135203
0.121901
0.109088
0.0967021
0.0843455
0.0720183
0.0598132
0.0477808
0.0359167
0.0242049
0.0130746
0.00110606
0.441248
0.376789
0.327986
0.305845
0.285931
0.264525
0.244398
0.22621
0.209309
0.193208
0.177781
0.163006
0.148816
0.135141
0.121835
0.109009
0.0966062
0.0842928
0.0720096
0.0598391
0.0478455
0.0359754
0.0242543
0.0131082
0.00114967
0.441271
0.376803
0.327969
0.305821
0.285927
0.264531
0.244397
0.226198
0.209291
0.193178
0.177741
0.163004
0.148845
0.13518
0.121888
0.109034
0.0965975
0.0842816
0.0720186
0.059823
0.0477956
0.0359395
0.0242376
0.0131079
0.00115645
0.441276
0.376816
0.327976
0.305823
0.28593
0.26454
0.244417
0.226235
0.209323
0.193216
0.177791
0.163029
0.148852
0.135176
0.12187
0.108957
0.0964889
0.0841726
0.0719075
0.0597514
0.0477608
0.03594
0.024273
0.0131715
0.00120147
0.441278
0.37682
0.32798
0.305823
0.285931
0.264547
0.24443
0.226242
0.20934
0.193225
0.177808
0.163045
0.148839
0.135133
0.121839
0.108974
0.0964758
0.0841475
0.0718758
0.0597245
0.0477413
0.0359273
0.0242597
0.0131484
0.00120085
0.441279
0.376822
0.327982
0.305824
0.285932
0.264547
0.244428
0.226228
0.209312
0.193197
0.177786
0.163033
0.148826
0.135108
0.12181
0.108984
0.0965588
0.0842447
0.0719323
0.0597481
0.0477419
0.0359103
0.0242282
0.0130998
0.00116636
0.44128
0.376823
0.327983
0.305824
0.28593
0.264543
0.244421
0.226227
0.209319
0.193206
0.177774
0.163028
0.148825
0.135101
0.121788
0.108948
0.0965368
0.0842054
0.0719099
0.0597363
0.0477371
0.0359077
0.0242379
0.013137
0.00118325
0.441279
0.376823
0.327982
0.305822
0.285928
0.264543
0.244427
0.226254
0.209382
0.193288
0.177887
0.16313
0.148903
0.135153
0.121759
0.10886
0.0964086
0.084093
0.071826
0.0596791
0.0477108
0.0358673
0.0241756
0.0130573
0.00113162
0.441279
0.376822
0.327981
0.305821
0.285926
0.264539
0.244418
0.226235
0.209358
0.193269
0.177842
0.163089
0.148879
0.135147
0.121791
0.108889
0.0964239
0.0841004
0.0718411
0.059661
0.0476584
0.0358249
0.0241472
0.0130406
0.00112566
0.441278
0.376821
0.327981
0.305821
0.285926
0.264542
0.244428
0.22626
0.2094
0.193329
0.177917
0.163122
0.148857
0.135108
0.121725
0.108791
0.096306
0.0839765
0.0717119
0.0595807
0.0476417
0.0358322
0.0241698
0.0130645
0.00113925
0.441278
0.376821
0.32798
0.305821
0.285928
0.264548
0.244442
0.226283
0.209426
0.19335
0.177939
0.163147
0.148901
0.135123
0.121674
0.108713
0.0962157
0.083884
0.0716222
0.0595004
0.0475698
0.035822
0.024221
0.0131214
0.00117253
0.441277
0.37682
0.327979
0.30582
0.285927
0.264547
0.24444
0.226281
0.209408
0.193331
0.177892
0.163077
0.148808
0.134995
0.121593
0.10865
0.0961683
0.0838556
0.071613
0.0595141
0.0476088
0.0358902
0.0242602
0.0131528
0.00119803
0.441276
0.376819
0.327978
0.305818
0.285924
0.264541
0.244427
0.22626
0.209357
0.193253
0.17781
0.162997
0.148756
0.135002
0.121619
0.108645
0.0961601
0.0838552
0.0716253
0.059533
0.0476226
0.0358855
0.0242795
0.0132071
0.00123126
0.441274
0.376817
0.327975
0.305814
0.285916
0.264525
0.244397
0.226204
0.209273
0.19315
0.177705
0.162906
0.14869
0.134975
0.121627
0.108686
0.0962234
0.0839326
0.071707
0.0596088
0.0476841
0.0359265
0.0243035
0.0132176
0.0012334
0.441272
0.376814
0.327972
0.305808
0.285904
0.264498
0.244347
0.2261
0.209151
0.193025
0.177608
0.162853
0.148674
0.134987
0.121675
0.108811
0.0963497
0.0840534
0.0718083
0.0596867
0.0477359
0.0359503
0.0242972
0.0131806
0.00121634
0.441269
0.37681
0.327967
0.305801
0.28589
0.26447
0.244288
0.226013
0.209034
0.192891
0.177499
0.162781
0.148639
0.134986
0.121706
0.108886
0.0964938
0.08423
0.0719481
0.0597823
0.0477917
0.035972
0.0242892
0.0131434
0.00118289
0.441265
0.376804
0.32796
0.305796
0.285881
0.264451
0.244253
0.225965
0.208976
0.192831
0.177451
0.162752
0.148632
0.134995
0.121728
0.10892
0.096544
0.084287
0.0719981
0.0598207
0.0478178
0.035986
0.0242923
0.0131394
0.00117862
0.441259
0.376789
0.32795
0.305791
0.285876
0.264441
0.244245
0.225962
0.208972
0.192826
0.177444
0.162751
0.148643
0.135011
0.121743
0.10894
0.096564
0.0842975
0.0720046
0.059823
0.0478139
0.0359763
0.0242809
0.0131315
0.0011704
0.441234
0.376774
0.327966
0.305814
0.285877
0.264434
0.244251
0.225993
0.20901
0.192879
0.177483
0.162773
0.148657
0.135021
0.121724
0.108861
0.0964735
0.0841949
0.0719387
0.0597917
0.0478071
0.0359894
0.0243168
0.0131962
0.00120469
0.441111
0.376671
0.327979
0.305891
0.285913
0.264439
0.244246
0.225964
0.208971
0.192851
0.17746
0.162754
0.148631
0.135
0.121734
0.108923
0.0965546
0.0842405
0.0719631
0.0598055
0.0478154
0.0359912
0.024304
0.0131668
0.00115997
0.379661
0.361894
0.332649
0.306408
0.284139
0.263399
0.243975
0.22583
0.208782
0.192557
0.177061
0.162232
0.147963
0.134152
0.120508
0.107561
0.0954011
0.08316
0.0708458
0.058693
0.046781
0.0351338
0.0238818
0.0133301
0.00389336
0.379635
0.361849
0.332628
0.306397
0.284142
0.263413
0.243989
0.225844
0.208797
0.192575
0.177078
0.162241
0.147959
0.134143
0.1205
0.107542
0.0953718
0.0831419
0.0708409
0.0586981
0.0467958
0.0351513
0.0238992
0.0133438
0.00390458
0.379632
0.361843
0.332629
0.306395
0.284147
0.263421
0.243997
0.22585
0.2088
0.192572
0.177074
0.162241
0.147956
0.134138
0.120499
0.107534
0.0953527
0.083123
0.07083
0.0586902
0.0467894
0.0351524
0.0239068
0.0133543
0.00391207
0.379633
0.361841
0.332624
0.306392
0.284147
0.263427
0.244007
0.225862
0.20881
0.192581
0.177079
0.162234
0.147935
0.134103
0.120469
0.107505
0.0953145
0.0830887
0.0708052
0.0586815
0.0467951
0.0351698
0.0239317
0.0133795
0.00392536
0.379634
0.361841
0.332624
0.306393
0.284149
0.263432
0.244015
0.225869
0.208817
0.192587
0.177086
0.162238
0.147926
0.134076
0.120443
0.107497
0.0953054
0.0830757
0.0707914
0.0586704
0.0467883
0.0351676
0.0239318
0.013379
0.00392725
0.379634
0.361841
0.332624
0.306393
0.284149
0.263433
0.244016
0.225869
0.208817
0.192587
0.177088
0.162242
0.147929
0.134076
0.120431
0.107488
0.095318
0.0830919
0.0707961
0.0586636
0.0467728
0.0351467
0.0239087
0.0133568
0.00391576
0.379635
0.361842
0.332624
0.306392
0.284148
0.263432
0.244016
0.225874
0.208829
0.192599
0.177093
0.162246
0.147932
0.134082
0.120431
0.107471
0.0952963
0.0830671
0.0707712
0.0586383
0.0467482
0.0351228
0.0238895
0.0133473
0.00391069
0.379634
0.361841
0.332623
0.306391
0.284147
0.263432
0.244018
0.225884
0.20885
0.19263
0.177132
0.16228
0.147959
0.1341
0.120429
0.107442
0.0952421
0.0830064
0.0707121
0.0585832
0.0466998
0.0350771
0.0238474
0.0133133
0.00389436
0.379634
0.361841
0.332623
0.30639
0.284145
0.263431
0.244018
0.225886
0.208856
0.192639
0.17714
0.16229
0.147969
0.13411
0.120428
0.107419
0.0952067
0.0829627
0.0706677
0.0585377
0.0466574
0.0350464
0.0238299
0.0133065
0.00389311
0.379634
0.36184
0.332622
0.30639
0.284145
0.263432
0.244022
0.225894
0.208869
0.192657
0.177157
0.162293
0.147954
0.13408
0.120385
0.10736
0.0951317
0.0828869
0.0705991
0.0584887
0.0466327
0.0350407
0.0238379
0.0133191
0.00390008
0.379633
0.36184
0.332622
0.306389
0.284145
0.263434
0.244026
0.2259
0.208874
0.192661
0.177157
0.162283
0.147936
0.134045
0.120336
0.107308
0.095078
0.0828373
0.0705588
0.0584631
0.0466237
0.0350549
0.0238697
0.0133508
0.00391515
0.379632
0.361839
0.332621
0.306388
0.284144
0.263432
0.244023
0.225893
0.208856
0.192631
0.17711
0.162224
0.147868
0.133973
0.120276
0.107262
0.0950489
0.0828253
0.0705628
0.0584826
0.0466569
0.035099
0.023911
0.0133842
0.00393236
0.37963
0.361837
0.332619
0.306386
0.28414
0.263425
0.24401
0.22587
0.208815
0.192577
0.177051
0.162165
0.147819
0.133936
0.120257
0.107257
0.0950545
0.0828428
0.0705923
0.0585204
0.0466973
0.0351359
0.0239459
0.0134151
0.00394786
0.379629
0.361835
0.332616
0.306382
0.284133
0.263411
0.243984
0.225827
0.208755
0.192506
0.176981
0.162105
0.147774
0.133914
0.120256
0.107279
0.0950962
0.0828973
0.0706519
0.0585773
0.0467455
0.0351708
0.0239673
0.0134244
0.00395003
0.379627
0.361833
0.332613
0.306376
0.284122
0.26339
0.243948
0.225768
0.208683
0.192431
0.17692
0.162067
0.147762
0.133924
0.120283
0.107334
0.0951671
0.0829703
0.070718
0.0586313
0.0467838
0.0351921
0.0239718
0.0134165
0.0039442
0.379624
0.36183
0.33261
0.30637
0.284111
0.263368
0.243909
0.225714
0.208618
0.192363
0.176864
0.162035
0.147758
0.133948
0.120321
0.107382
0.0952343
0.0830434
0.0707791
0.0586746
0.0468081
0.0351987
0.023964
0.0133995
0.00393298
0.379622
0.361828
0.332608
0.306366
0.284101
0.263351
0.243882
0.225678
0.208577
0.192321
0.17683
0.162014
0.147754
0.13396
0.120344
0.107411
0.0952692
0.0830805
0.0708127
0.0587013
0.0468259
0.0352072
0.0239645
0.0133957
0.00393041
0.379619
0.361829
0.33261
0.306365
0.284097
0.263341
0.243869
0.225663
0.208559
0.192302
0.176811
0.162
0.147748
0.133958
0.120346
0.107422
0.0952864
0.0830976
0.0708283
0.0587134
0.0468327
0.0352083
0.0239616
0.0133919
0.00392698
0.379621
0.361833
0.332608
0.306365
0.284089
0.263329
0.24386
0.225657
0.208552
0.1923
0.176805
0.161987
0.147731
0.13394
0.120327
0.107403
0.095273
0.0830887
0.0708304
0.0587247
0.0468492
0.0352272
0.0239824
0.0134134
0.00393711
0.379646
0.361877
0.332626
0.306373
0.284083
0.26331
0.243837
0.225631
0.208526
0.192275
0.176783
0.161968
0.147711
0.133922
0.120319
0.107414
0.0952938
0.0831035
0.0708408
0.0587327
0.0468557
0.0352326
0.0239856
0.0134136
0.0039328
0.343719
0.33472
0.313834
0.291824
0.273365
0.25646
0.239673
0.223301
0.207659
0.192627
0.178049
0.16386
0.150036
0.136548
0.123349
0.110546
0.0980615
0.0856459
0.0733358
0.0612275
0.0493574
0.0376498
0.0264086
0.0148222
0.00599157
0.343714
0.334736
0.313876
0.291845
0.273364
0.256456
0.239672
0.223298
0.207654
0.192621
0.178043
0.16385
0.150021
0.136529
0.123327
0.110524
0.0980414
0.0856336
0.0733317
0.0612308
0.0493667
0.0376634
0.026422
0.0148418
0.00599256
0.343714
0.334743
0.313887
0.291846
0.27336
0.256455
0.239674
0.223299
0.207654
0.192619
0.178041
0.163849
0.150017
0.136523
0.123321
0.110516
0.0980316
0.0856259
0.0733277
0.0612292
0.0493671
0.0376669
0.0264271
0.0148469
0.00599419
0.343715
0.334744
0.313891
0.291851
0.273365
0.256461
0.239681
0.223306
0.207659
0.192624
0.178043
0.163847
0.150009
0.136509
0.123305
0.110499
0.0980136
0.0856111
0.0733165
0.0612237
0.0493673
0.0376719
0.026435
0.0148546
0.0059982
0.343716
0.334746
0.313893
0.291855
0.273368
0.256465
0.239685
0.223311
0.207664
0.192628
0.178047
0.163849
0.150006
0.1365
0.123296
0.110492
0.0980046
0.0855999
0.073304
0.0612113
0.0493563
0.037663
0.0264278
0.0148487
0.00599629
0.343716
0.334746
0.313894
0.291856
0.27337
0.256467
0.239688
0.223314
0.207668
0.19263
0.178048
0.163849
0.150005
0.136497
0.123291
0.110486
0.0979998
0.0855913
0.0732903
0.061193
0.0493353
0.0376414
0.0264074
0.0148316
0.00598665
0.343716
0.334746
0.313895
0.291856
0.27337
0.256467
0.239689
0.223317
0.207673
0.192634
0.17805
0.163848
0.150002
0.136491
0.123278
0.110465
0.0979739
0.0855628
0.0732604
0.0611647
0.0493113
0.0376232
0.0263968
0.0148299
0.00598817
0.343716
0.334746
0.313895
0.291856
0.27337
0.256467
0.239691
0.223323
0.207684
0.19265
0.178068
0.163863
0.15001
0.136488
0.123259
0.110431
0.0979295
0.0855143
0.0732129
0.0611223
0.0492763
0.0375955
0.0263765
0.0148176
0.00598243
0.343716
0.334746
0.313894
0.291856
0.27337
0.256467
0.239692
0.223326
0.207689
0.192657
0.178072
0.163863
0.150003
0.136475
0.123237
0.110398
0.0978899
0.085473
0.0731758
0.0610916
0.0492545
0.0375847
0.0263757
0.0148238
0.0059872
0.343715
0.334745
0.313893
0.291855
0.273369
0.256467
0.239694
0.223329
0.207693
0.192661
0.178072
0.163853
0.149981
0.13644
0.123193
0.110347
0.0978368
0.0854247
0.0731369
0.0610675
0.0492468
0.0375912
0.0263916
0.0148423
0.00599702
0.343715
0.334745
0.313893
0.291854
0.273368
0.256467
0.239693
0.223329
0.207692
0.192658
0.178065
0.163839
0.149959
0.13641
0.123156
0.110307
0.0978002
0.0853952
0.0731164
0.0610589
0.0492512
0.0376088
0.0264173
0.0148671
0.00600957
0.343714
0.334743
0.313891
0.291852
0.273366
0.256464
0.239687
0.223318
0.207673
0.192631
0.178031
0.1638
0.149918
0.13637
0.123123
0.110283
0.0977867
0.0853927
0.073124
0.0610756
0.0492753
0.0376369
0.0264434
0.0148859
0.00601745
0.343712
0.334742
0.313889
0.29185
0.273362
0.256456
0.239674
0.223297
0.207643
0.192593
0.177991
0.163763
0.149888
0.13635
0.123114
0.110284
0.0977965
0.0854106
0.0731475
0.0611019
0.0493013
0.0376598
0.026462
0.0148983
0.00602289
0.34371
0.33474
0.313887
0.291845
0.273354
0.256443
0.239653
0.223264
0.2076
0.192545
0.177944
0.163724
0.149862
0.13634
0.123119
0.110304
0.0978271
0.0854475
0.0731862
0.0611375
0.0493296
0.0376781
0.02647
0.0148972
0.00602045
0.343708
0.334737
0.313883
0.291839
0.273344
0.256426
0.239626
0.223225
0.207553
0.192495
0.1779
0.163694
0.149849
0.136345
0.12314
0.11034
0.0978704
0.0854922
0.0732279
0.0611714
0.0493524
0.0376883
0.0264685
0.0148878
0.00601439
0.343705
0.334734
0.313879
0.291832
0.273333
0.256408
0.239598
0.223188
0.207508
0.192449
0.177861
0.163668
0.14984
0.136353
0.123162
0.110373
0.0979111
0.0855342
0.0732662
0.0612006
0.0493697
0.0376931
0.0264624
0.0148752
0.00600614
0.343703
0.334731
0.313873
0.291825
0.273323
0.256393
0.239576
0.22316
0.207477
0.192418
0.177834
0.163649
0.149832
0.136357
0.123176
0.110394
0.0979377
0.0855629
0.0732935
0.0612231
0.0493851
0.0377007
0.0264635
0.0148723
0.00600425
0.343701
0.334727
0.313867
0.291816
0.273313
0.256381
0.239562
0.223143
0.207459
0.1924
0.177819
0.163639
0.149829
0.13636
0.123185
0.11041
0.0979579
0.0855838
0.0733128
0.0612384
0.049395
0.037705
0.0264636
0.0148697
0.00600251
0.343699
0.334719
0.313854
0.291812
0.273313
0.256377
0.239555
0.223136
0.207451
0.192394
0.177813
0.163633
0.149824
0.136357
0.123184
0.110411
0.0979623
0.0855916
0.0733227
0.0612501
0.0494072
0.0377167
0.0264748
0.014879
0.00600859
0.343703
0.334702
0.313811
0.291789
0.273311
0.256376
0.23955
0.223131
0.207449
0.192393
0.177812
0.163633
0.149826
0.136362
0.123194
0.110427
0.0979792
0.085606
0.0733352
0.0612603
0.0494149
0.0377207
0.0264771
0.0148711
0.00601312
0.319158
0.313846
0.300741
0.284917
0.269762
0.254812
0.239231
0.223646
0.208491
0.193728
0.179247
0.16504
0.151138
0.137546
0.124238
0.111214
0.0984726
0.0859497
0.0736073
0.0614427
0.0494961
0.0376884
0.0263442
0.0145834
0.00603
0.319158
0.313843
0.300741
0.284908
0.269747
0.254804
0.239231
0.223647
0.208492
0.193729
0.179248
0.16504
0.151136
0.137542
0.124233
0.11121
0.0984699
0.0859499
0.0736111
0.0614496
0.0495047
0.0376984
0.0263514
0.0145951
0.0060235
0.319158
0.313843
0.300742
0.284905
0.269742
0.254805
0.239235
0.223651
0.208493
0.19373
0.179249
0.165039
0.151133
0.137538
0.124229
0.111207
0.0984669
0.0859486
0.0736118
0.0614517
0.0495074
0.0377015
0.0263535
0.014596
0.00602089
0.319159
0.313844
0.300743
0.284905
0.269742
0.254805
0.239237
0.223653
0.208496
0.193732
0.179249
0.165037
0.151129
0.137531
0.124222
0.111199
0.0984595
0.0859422
0.0736068
0.0614487
0.0495063
0.0377018
0.026354
0.0145958
0.00601978
0.31916
0.313845
0.300744
0.284905
0.269742
0.254806
0.239239
0.223656
0.208499
0.193735
0.179251
0.165038
0.151126
0.137526
0.124215
0.111191
0.0984495
0.0859305
0.0735943
0.0614367
0.049496
0.0376935
0.0263477
0.0145914
0.00601781
0.31916
0.313845
0.300744
0.284906
0.269743
0.254806
0.239241
0.223659
0.208501
0.193736
0.179251
0.165037
0.151123
0.13752
0.124205
0.111178
0.0984342
0.0859128
0.0735753
0.0614179
0.049479
0.0376796
0.0263374
0.014585
0.00601531
0.31916
0.313846
0.300745
0.284906
0.269744
0.254807
0.239242
0.223661
0.208504
0.193739
0.179253
0.165036
0.15112
0.137511
0.124191
0.111158
0.0984088
0.0858855
0.0735488
0.0613949
0.0494616
0.0376686
0.0263332
0.0145869
0.00601848
0.31916
0.313846
0.300745
0.284906
0.269744
0.254807
0.239243
0.223664
0.208509
0.193745
0.179259
0.165039
0.151117
0.137501
0.124171
0.11113
0.0983752
0.0858504
0.073516
0.0613675
0.0494412
0.0376557
0.0263271
0.0145864
0.00601961
0.31916
0.313845
0.300744
0.284906
0.269743
0.254806
0.239243
0.223665
0.208511
0.193747
0.179259
0.165034
0.151106
0.137484
0.124148
0.111101
0.0983441
0.0858206
0.073491
0.0613495
0.0494315
0.0376543
0.0263321
0.0145945
0.00602445
0.319159
0.313845
0.300743
0.284905
0.269742
0.254806
0.239243
0.223665
0.20851
0.193745
0.179252
0.165022
0.151086
0.137458
0.124117
0.111068
0.0983121
0.0857933
0.0734714
0.0613395
0.0494312
0.037662
0.0263443
0.0146063
0.00602988
0.319158
0.313844
0.300742
0.284904
0.269741
0.254804
0.23924
0.223661
0.208505
0.193736
0.17924
0.165005
0.151066
0.137433
0.124091
0.111043
0.0982914
0.0857789
0.0734644
0.0613407
0.0494403
0.0376771
0.0263614
0.0146202
0.0060356
0.319157
0.313842
0.300741
0.284902
0.269738
0.254799
0.239233
0.22365
0.208489
0.193715
0.179215
0.164977
0.151037
0.137407
0.12407
0.111028
0.0982836
0.0857786
0.073471
0.0613532
0.049457
0.0376954
0.0263776
0.0146307
0.00603896
0.319155
0.313841
0.300739
0.284898
0.269733
0.254792
0.239221
0.223632
0.208465
0.193687
0.179185
0.164949
0.151014
0.137391
0.124062
0.111028
0.0982904
0.0857912
0.0734875
0.0613717
0.0494753
0.0377114
0.0263894
0.0146368
0.00604032
0.319153
0.313838
0.300736
0.284894
0.269726
0.254781
0.239204
0.223608
0.208434
0.193653
0.179152
0.164921
0.150994
0.137381
0.124062
0.111038
0.0983079
0.0858132
0.073511
0.0613937
0.0494932
0.0377233
0.0263949
0.0146368
0.00603906
0.319151
0.313836
0.300732
0.284889
0.269718
0.254767
0.239184
0.22358
0.208401
0.193618
0.17912
0.164897
0.150981
0.137379
0.12407
0.111055
0.0983318
0.0858399
0.0735368
0.0614153
0.0495083
0.0377309
0.0263958
0.0146338
0.00603724
0.319148
0.313833
0.300728
0.284883
0.269709
0.254754
0.239163
0.223553
0.20837
0.193586
0.179091
0.164876
0.15097
0.137379
0.124079
0.111073
0.0983553
0.0858655
0.0735607
0.061434
0.0495198
0.0377349
0.026394
0.0146292
0.00603486
0.319146
0.31383
0.300724
0.284878
0.269702
0.254743
0.239147
0.223532
0.208345
0.193561
0.17907
0.16486
0.150962
0.137379
0.124088
0.111088
0.0983753
0.0858873
0.0735812
0.0614506
0.0495308
0.0377401
0.0263946
0.0146275
0.00603401
0.319144
0.313827
0.300721
0.284874
0.269697
0.254736
0.239136
0.223518
0.208329
0.193545
0.179056
0.16485
0.150958
0.137382
0.124096
0.111101
0.098392
0.0859046
0.0735969
0.0614628
0.0495384
0.0377428
0.0263934
0.0146238
0.00603173
0.319142
0.313825
0.300718
0.284874
0.269698
0.254729
0.239124
0.223506
0.208318
0.193534
0.179046
0.164843
0.150955
0.137382
0.124101
0.111109
0.0984021
0.085916
0.0736083
0.0614733
0.0495468
0.0377485
0.0263968
0.0146241
0.00603323
0.319141
0.313827
0.300716
0.284881
0.26971
0.254733
0.239119
0.223498
0.20831
0.193527
0.179039
0.164838
0.150951
0.137381
0.124103
0.111113
0.0984077
0.0859217
0.0736134
0.0614768
0.0495485
0.0377471
0.0263954
0.0146147
0.00604009
0.302008
0.29848
0.289251
0.276671
0.263235
0.249491
0.235291
0.2209
0.206609
0.192492
0.17854
0.164777
0.151233
0.137922
0.124836
0.111978
0.0993455
0.0869058
0.0746262
0.0624967
0.0505641
0.0387337
0.0273409
0.0153587
0.00657423
0.302008
0.298476
0.289255
0.276678
0.26324
0.249495
0.235296
0.220904
0.20661
0.192491
0.178539
0.164774
0.151229
0.137917
0.124831
0.111973
0.0993417
0.0869034
0.0746255
0.0624971
0.0505648
0.038735
0.0273394
0.0153642
0.00656298
0.302009
0.298476
0.289258
0.276681
0.263241
0.249497
0.235298
0.220905
0.20661
0.19249
0.178537
0.16477
0.151225
0.137912
0.124826
0.111969
0.0993378
0.0869003
0.0746232
0.0624954
0.0505632
0.0387334
0.0273373
0.0153625
0.00655945
0.302009
0.298477
0.289259
0.276682
0.263244
0.2495
0.235302
0.220908
0.206612
0.192491
0.178536
0.164768
0.15122
0.137905
0.124819
0.111961
0.0993296
0.0868926
0.0746163
0.0624895
0.0505584
0.0387298
0.027334
0.0153598
0.00655729
0.302009
0.298477
0.28926
0.276683
0.263245
0.249502
0.235304
0.22091
0.206614
0.192492
0.178536
0.164766
0.151216
0.137899
0.124811
0.111951
0.0993182
0.0868806
0.0746046
0.0624792
0.05055
0.0387235
0.0273297
0.0153574
0.00655644
0.30201
0.298478
0.28926
0.276684
0.263246
0.249503
0.235306
0.220912
0.206616
0.192493
0.178535
0.164764
0.151211
0.137891
0.1248
0.111937
0.0993026
0.0868642
0.0745889
0.0624654
0.0505391
0.0387158
0.0273251
0.0153554
0.00655589
0.30201
0.298478
0.289261
0.276685
0.263247
0.249504
0.235307
0.220914
0.206617
0.192494
0.178535
0.164761
0.151205
0.13788
0.124784
0.111918
0.0992813
0.086843
0.0745701
0.0624508
0.0505298
0.038712
0.027326
0.0153595
0.00655907
0.30201
0.298478
0.28926
0.276684
0.263247
0.249504
0.235307
0.220915
0.206619
0.192495
0.178535
0.164758
0.151197
0.137867
0.124766
0.111895
0.0992565
0.086819
0.0745494
0.0624353
0.0505203
0.0387083
0.0273269
0.0153629
0.00656133
0.302009
0.298477
0.28926
0.276684
0.263246
0.249503
0.235307
0.220915
0.206619
0.192494
0.178531
0.16475
0.151185
0.137851
0.124746
0.111872
0.0992337
0.0867986
0.0745336
0.0624255
0.0505171
0.0387108
0.0273332
0.01537
0.00656483
0.302009
0.298477
0.289259
0.276683
0.263245
0.249502
0.235305
0.220912
0.206615
0.192488
0.178522
0.164737
0.151168
0.13783
0.124722
0.111849
0.099212
0.0867811
0.0745222
0.062421
0.0505191
0.0387178
0.0273422
0.0153777
0.00656801
0.302008
0.298475
0.289258
0.276681
0.263243
0.249499
0.235301
0.220907
0.206607
0.192477
0.178508
0.16472
0.151149
0.137809
0.124702
0.11183
0.0991977
0.086772
0.074519
0.0624238
0.050527
0.0387289
0.0273535
0.015386
0.00657092
0.302006
0.298474
0.289256
0.276679
0.263239
0.249494
0.235294
0.220896
0.206593
0.19246
0.178488
0.164699
0.151127
0.13779
0.124686
0.111819
0.0991916
0.0867715
0.0745236
0.0624325
0.0505383
0.0387407
0.0273632
0.0153914
0.00657212
0.302005
0.298472
0.289254
0.276676
0.263234
0.249486
0.235282
0.22088
0.206573
0.192437
0.178464
0.164676
0.151108
0.137776
0.124678
0.111817
0.0991948
0.0867793
0.0745346
0.0624453
0.050551
0.0387515
0.0273707
0.0153948
0.00657264
0.302003
0.29847
0.289251
0.276671
0.263228
0.249476
0.235268
0.220861
0.206549
0.192411
0.178439
0.164655
0.151092
0.137767
0.124676
0.111822
0.0992053
0.0867932
0.0745499
0.0624598
0.0505629
0.0387595
0.0273745
0.0153952
0.00657214
0.302
0.298467
0.289247
0.276666
0.26322
0.249464
0.235251
0.22084
0.206524
0.192385
0.178415
0.164636
0.15108
0.137763
0.12468
0.111833
0.0992213
0.0868116
0.074568
0.0624753
0.0505741
0.0387658
0.0273766
0.0153948
0.0065719
0.301998
0.298464
0.289243
0.27666
0.263211
0.249452
0.235235
0.220819
0.2065
0.192361
0.178393
0.164619
0.151071
0.137762
0.124687
0.111846
0.0992385
0.0868305
0.0745857
0.0624894
0.0505833
0.03877
0.0273769
0.0153932
0.00657127
0.301995
0.298461
0.289239
0.276655
0.263203
0.249441
0.23522
0.220801
0.206481
0.192341
0.178376
0.164607
0.151065
0.137763
0.124694
0.111858
0.0992551
0.0868484
0.0746024
0.0625028
0.0505923
0.0387744
0.0273777
0.015392
0.00657062
0.301993
0.298459
0.289236
0.27665
0.263196
0.249431
0.235207
0.220786
0.206465
0.192327
0.178364
0.164599
0.151062
0.137765
0.124702
0.11187
0.0992695
0.0868634
0.0746159
0.0625134
0.0505989
0.0387767
0.0273769
0.0153891
0.00656919
0.301992
0.298457
0.289231
0.276644
0.263191
0.249424
0.235198
0.220776
0.206456
0.192318
0.178357
0.164595
0.151062
0.137768
0.124708
0.111879
0.0992801
0.0868743
0.074626
0.0625216
0.0506044
0.0387791
0.027377
0.0153866
0.00656972
0.301991
0.29846
0.289225
0.276634
0.263183
0.249415
0.235188
0.220767
0.206449
0.192313
0.178354
0.164594
0.151063
0.137772
0.124714
0.111887
0.0992884
0.0868821
0.0746326
0.0625263
0.0506073
0.0387792
0.0273776
0.0153786
0.006579
0.289846
0.287175
0.280083
0.269898
0.258366
0.246147
0.233282
0.219921
0.206333
0.192697
0.179086
0.16555
0.152137
0.13888
0.125798
0.112899
0.100188
0.0876523
0.0752831
0.0630683
0.0510445
0.0391039
0.0275824
0.0154366
0.00656186
0.289846
0.287172
0.280086
0.2699
0.258365
0.246144
0.23328
0.219919
0.206331
0.192694
0.179084
0.165548
0.152134
0.138878
0.125796
0.112898
0.100187
0.087652
0.0752834
0.0630692
0.0510452
0.0391053
0.0275812
0.0154429
0.00655111
0.289847
0.287172
0.280087
0.269901
0.258364
0.246143
0.233279
0.219919
0.206331
0.192693
0.179082
0.165546
0.152131
0.138874
0.125792
0.112894
0.100184
0.0876492
0.075281
0.0630671
0.0510434
0.0391038
0.0275794
0.0154422
0.00654817
0.289847
0.287173
0.280088
0.269902
0.258365
0.246144
0.23328
0.219919
0.20633
0.192692
0.17908
0.165542
0.152127
0.138868
0.125786
0.112888
0.100177
0.087643
0.0752757
0.0630629
0.0510402
0.0391017
0.0275778
0.0154412
0.00654737
0.289847
0.287173
0.280089
0.269903
0.258366
0.246144
0.23328
0.219919
0.20633
0.192691
0.179078
0.165538
0.152121
0.138862
0.125777
0.112878
0.100167
0.0876337
0.0752673
0.063056
0.0510352
0.0390984
0.0275761
0.0154407
0.00654731
0.289848
0.287173
0.280089
0.269904
0.258367
0.246145
0.233281
0.21992
0.20633
0.19269
0.179075
0.165534
0.152115
0.138853
0.125766
0.112866
0.100154
0.0876207
0.0752558
0.0630468
0.0510287
0.0390947
0.0275746
0.0154408
0.00654765
0.289848
0.287174
0.280089
0.269904
0.258367
0.246145
0.233281
0.21992