/*--------------------------------*- C++ -*----------------------------------*\
  =========                 |
  \\      /  F ield         | OpenFOAM: The Open Source CFD Toolbox
   \\    /   O peration     | Website:  https://openfoam.org
    \\  /    A nd           | Version:  12
     \\/     M anipulation  |
\*---------------------------------------------------------------------------*/
FoamFile
{
    format      ascii;
    class       surfaceScalarField;
    location    "400";
    object      phi;
}
// * * * * * * * * * * * * * * * * * * * * * * * * * * * * * * * * * * * * * //

dimensions      [0 3 -1 0 0 0 0];

internalField   nonuniform List<scalar> 
14050
(
1958.43
0.00342399
1.56213
1956.2
-0.000598464
2.23269
1953.79
-0.000535595
2.40993
1951.36
0.000419267
2.4286
1948.92
0.000392697
2.43926
1946.5
-5.15598e-05
2.42471
1944.11
-4.34671e-05
2.38714
1941.77
-4.14956e-05
2.33864
1939.49
-0.000815834
2.28567
1937.27
-0.00197335
2.22668
1935.1
-0.00178638
2.16244
1933
0.00049586
2.10636
1930.94
0.00207517
2.05311
1928.94
0.00281731
2.00186
1926.98
0.00340116
1.95613
1925.06
0.00320527
1.91047
1923.19
0.000780081
1.8672
1921.38
-0.00121238
1.81569
1919.62
-0.00238478
1.76729
1917.9
-0.00332513
1.72192
1916.22
-0.00253111
1.67725
1914.59
-0.00153478
1.63271
1913.01
-0.000800292
1.57932
1911.48
0.000169118
1.52811
-0.000589564
1.34044
1958.44
0.000717222
1.5671
1956.2
0.000509877
2.23539
1953.79
-0.000211561
2.41108
1951.36
-6.44088e-05
2.42867
1948.92
0.000148983
2.43896
1946.5
2.24631e-05
2.42442
1944.11
2.68381e-05
2.38667
1941.77
0.000607191
2.33812
1939.48
0.00170602
2.28552
1937.25
0.00223056
2.22694
1935.08
0.000513064
2.16853
1932.97
-0.00228155
2.10991
1930.93
-0.00510632
2.04772
1928.95
-0.00420881
1.99483
1927
0.000242251
1.94809
1925.1
0.00269115
1.90432
1923.24
0.00249639
1.85846
1921.42
0.00165092
1.81247
1919.65
0.00262549
1.76785
1917.92
0.00383458
1.72402
1916.22
0.00287211
1.68653
1914.58
0.001189
1.64042
1913
-0.000388914
1.58524
1911.47
-0.00102925
1.53117
-0.0010848
1.34199
1958.43
0.000175507
1.56645
1956.2
0.00013067
2.23544
1953.79
-0.000209452
2.41155
1951.36
-0.00018797
2.42875
1948.92
-9.63853e-05
2.43898
1946.5
-0.000101252
2.42452
1944.11
-0.000344653
2.38665
1941.77
-0.00117343
2.33758
1939.49
-0.00165803
2.28436
1937.27
-0.0032603
2.22473
1935.12
-0.00568434
2.16031
1933.02
-0.00680961
2.10415
1930.97
-0.00730317
2.05207
1928.97
-0.00439258
2.00066
1927.01
0.00244003
1.95159
1925.1
0.00678133
1.90635
1923.24
0.00789248
1.86052
1921.42
0.00875404
1.81298
1919.64
0.00791873
1.77318
1917.91
0.00608503
1.72712
1916.23
0.00345278
1.68132
1914.59
0.000496955
1.63582
1913.01
-0.00252875
1.58156
1911.49
-0.0033901
1.52906
-0.00139324
1.34103
1958.43
5.421e-05
1.56629
1956.2
2.18395e-05
2.23518
1953.79
-0.000102981
2.41131
1951.36
-0.000144934
2.42864
1948.92
-0.000137776
2.43893
1946.5
-0.000111895
2.42447
1944.11
-0.000273324
2.38668
1941.77
0.00025741
2.33872
1939.48
-0.000208277
2.28282
1937.26
-0.0023432
2.22583
1935.09
-0.00303597
2.16732
1932.97
-0.00363802
2.11156
1930.91
-0.00481308
2.05869
1928.91
-0.00517974
2.00562
1926.96
-0.00441809
1.95543
1925.06
-0.000475097
1.90042
1923.22
0.00270071
1.85306
1921.41
0.00446354
1.80599
1919.66
0.00504902
1.76049
1917.94
0.00485918
1.71732
1916.27
0.00410803
1.67477
1914.63
0.0033804
1.632
1913.05
0.00276599
1.58005
1911.51
0.000264014
1.53357
-0.000776743
1.34884
1958.43
5.17107e-05
1.56625
1956.2
1.60441e-05
2.23511
1953.79
-7.60332e-05
2.41128
1951.36
-0.000103625
2.42866
1948.92
-0.00013039
2.43897
1946.5
-7.41854e-05
2.42444
1944.11
-2.07593e-06
2.38708
1941.77
0.000379305
2.33741
1939.48
0.00142264
2.28568
1937.25
0.00259424
2.22672
1935.08
0.00353331
2.16934
1932.95
0.00367132
2.11382
1930.88
0.00249603
2.0626
1928.87
-7.18896e-05
2.01108
1926.91
-0.00303111
1.95778
1925
-0.0047963
1.90991
1923.15
-0.00361593
1.85457
1921.35
-0.000694395
1.80555
1919.6
0.000890802
1.75912
1917.89
0.00162883
1.71519
1916.22
0.00197236
1.67258
1914.59
0.00219088
1.62997
1913.01
0.00274156
1.57885
1911.48
0.00287326
1.52712
0.000935794
1.34483
1958.43
7.31102e-05
1.56625
1956.2
2.33095e-05
2.23508
1953.79
-4.2537e-05
2.41127
1951.36
-8.34224e-05
2.42864
1948.92
-5.23653e-05
2.43898
1946.5
-6.67085e-05
2.42443
1944.11
0.000228461
2.38709
1941.77
6.18947e-05
2.33657
1939.49
-0.000136119
2.28362
1937.27
0.00200656
2.22434
1935.1
0.00431395
2.16632
1932.99
0.00628852
2.11022
1930.92
0.0080917
2.05903
1928.9
0.00894903
2.00914
1926.93
0.00815257
1.95936
1925.01
0.00423355
1.91123
1923.15
0.00117701
1.86167
1921.33
-0.0019407
1.81668
1919.57
-0.00375293
1.76507
1917.86
-0.00465229
1.71809
1916.19
-0.00491018
1.67302
1914.57
-0.00474991
1.62871
1913
-0.00439572
1.57642
1911.48
-0.00236841
1.52376
-0.000623936
1.34036
1958.43
9.76012e-05
1.56625
1956.2
3.55719e-05
2.23508
1953.79
-1.64697e-05
2.41129
1951.36
-8.05185e-05
2.42866
1948.92
-7.13155e-05
2.43895
1946.5
-0.000112691
2.42451
1944.11
-0.000191169
2.38683
1941.77
-0.000615897
2.33804
1939.49
-0.00157493
2.28506
1937.27
-0.00281818
2.22554
1935.11
-0.0024355
2.1607
1933.02
0.000116683
2.10411
1930.97
0.00410509
2.05181
1928.97
0.009065
2.00091
1927.01
0.0109379
1.95108
1925.11
0.00791559
1.9036
1923.24
0.00324158
1.86241
1921.43
-0.000254256
1.81236
1919.66
-0.00292617
1.76527
1917.94
-0.00477435
1.72084
1916.26
-0.00419421
1.67711
1914.63
-0.00239236
1.63339
1913.04
9.84229e-05
1.58069
1911.5
0.000960954
1.53356
-0.000207366
1.34841
1958.43
0.000120911
1.56625
1956.2
6.24421e-05
2.23508
1953.79
-1.94521e-05
2.41128
1951.36
-7.92818e-05
2.42866
1948.92
-0.00011004
2.43891
1946.5
-0.000128348
2.42443
1944.11
-1.74551e-05
2.38672
1941.77
0.000543556
2.33798
1939.48
0.00162734
2.28611
1937.25
0.00312117
2.22542
1935.07
0.00449262
2.16797
1932.96
0.00528615
2.11185
1930.9
0.00499926
2.0572
1928.9
0.0033433
2.00412
1926.96
0.00143418
1.94519
1925.07
-0.000259999
1.89826
1923.23
-0.00192227
1.85254
1921.42
-0.00375819
1.80643
1919.66
-0.00389573
1.7618
1917.94
-0.00266256
1.7186
1916.26
-0.00239391
1.6817
1914.62
-0.00176495
1.63668
1913.04
-0.00066974
1.58295
1911.51
0.000334982
1.53015
0.000634373
1.3419
1958.43
0.000147433
1.56625
1956.2
7.54655e-05
2.23507
1953.79
-2.55035e-05
2.41126
1951.36
-0.000112712
2.42865
1948.92
-0.000174802
2.43888
1946.5
-0.000183502
2.42444
1944.11
-0.000401264
2.38657
1941.77
-0.00097601
2.33742
1939.49
-0.00210992
2.2843
1937.27
-0.00372576
2.22485
1935.12
-0.00324893
2.16011
1933.02
0.000252835
2.10311
1930.97
0.00363901
2.05007
1928.98
0.0054855
1.99766
1927.02
0.00569671
1.94836
1925.11
0.00458601
1.90405
1923.25
0.00287927
1.85961
1921.43
0.00209539
1.81308
1919.65
-0.000117244
1.7742
1917.92
-0.00279111
1.72864
1916.24
-0.00396486
1.68261
1914.61
-0.00414417
1.63667
1913.03
-0.00358261
1.58175
1911.5
-0.00180803
1.52857
0.000445221
1.34046
1958.43
0.000172187
1.56625
1956.2
0.000102787
2.23507
1953.79
-4.11756e-05
2.41125
1951.36
-0.000127023
2.42865
1948.92
-0.000221729
2.43889
1946.5
-0.000301705
2.42436
1944.11
-0.000394892
2.38668
1941.77
-0.000664358
2.33816
1939.48
-0.00152006
2.2853
1937.26
-0.00295941
2.2272
1935.09
-0.00411674
2.1684
1932.99
-0.0055536
2.10799
1930.95
-0.00434954
2.04546
1928.96
-0.000101756
1.99102
1927.02
0.00306612
1.94164
1925.13
0.00505719
1.89887
1923.27
0.00553977
1.8563
1921.45
0.00533754
1.81223
1919.68
0.00459627
1.76867
1917.95
0.00372149
1.72556
1916.25
0.00111787
1.68861
1914.61
-0.00182292
1.64268
1913.02
-0.00265617
1.58713
1911.49
-0.00174112
1.53295
0.000503243
1.34365
1958.43
0.000196507
1.56625
1956.2
0.000114882
2.23506
1953.79
-1.60757e-05
2.41127
1951.36
-0.000120301
2.42864
1948.92
-0.000189469
2.4389
1946.5
-0.000143945
2.42439
1944.11
-6.25573e-05
2.38683
1941.77
-0.000244682
2.33763
1939.48
-6.0061e-05
2.28624
1937.25
-0.000279594
2.22718
1935.08
-0.0013254
2.16897
1932.96
-0.00186821
2.11118
1930.91
-0.00140402
2.05581
1928.91
-0.00134248
2.00239
1926.96
0.000419778
1.94386
1925.07
0.00306255
1.89863
1923.22
0.00492668
1.85441
1921.41
0.00578535
1.80908
1919.64
0.00589185
1.76534
1917.91
0.00506926
1.72361
1916.23
0.00341035
1.68169
1914.59
0.00281356
1.63773
1912.99
0.00100234
1.59037
1911.46
-0.000243073
1.53643
0.000714028
1.34678
1958.43
0.000218651
1.56625
1956.2
0.000142444
2.23507
1953.79
1.37262e-05
2.41127
1951.36
-8.03934e-05
2.42864
1948.92
-0.000122926
2.43891
1946.5
-2.57055e-05
2.42442
1944.11
0.00014484
2.38678
1941.77
0.000164633
2.33881
1939.48
0.00119716
2.28556
1937.25
0.00210057
2.2295
1935.08
0.000196683
2.16863
1932.97
-0.00283712
2.11087
1930.92
-0.00590305
2.05711
1928.93
-0.00665705
1.99433
1926.99
-0.00328148
1.94141
1925.1
0.000794433
1.89619
1923.25
0.00382587
1.85208
1921.44
0.00567306
1.807
1919.68
0.00689347
1.76341
1917.95
0.00767108
1.72162
1916.27
0.00839943
1.67949
1914.62
0.00586253
1.64286
1913.03
0.00212724
1.58875
1911.5
0.000120227
1.53349
0.000184647
1.34805
1958.43
0.000237034
1.56625
1956.2
0.000176239
2.23508
1953.79
4.78218e-05
2.41126
1951.36
-2.60598e-05
2.42863
1948.92
-6.78487e-06
2.4389
1946.5
0.000150975
2.42441
1944.11
0.000474993
2.38664
1941.77
0.00131113
2.33901
1939.48
0.00214444
2.28338
1937.26
0.00220899
2.22658
1935.09
0.000753877
2.16834
1932.97
-0.00159115
2.11216
1930.91
-0.00381667
2.05779
1928.91
-0.00555587
2.00262
1926.96
-0.00552012
1.9513
1925.07
-0.00385708
1.89714
1923.23
-0.000817872
1.85062
1921.42
0.00209808
1.80411
1919.67
0.00416421
1.75967
1917.95
0.00565789
1.71777
1916.28
0.00673344
1.67667
1914.64
0.00640299
1.63455
1913.06
0.00495645
1.58268
1911.52
0.00275496
1.53553
0.00110465
1.34972
1958.43
0.000245631
1.56625
1956.2
0.000201902
2.23508
1953.79
7.89647e-05
2.41127
1951.36
4.64999e-05
2.42863
1948.92
7.19831e-05
2.4389
1946.5
0.000321182
2.42443
1944.11
0.000657791
2.38672
1941.77
0.00266384
2.33894
1939.48
0.00426183
2.28303
1937.26
0.00364073
2.22616
1935.09
0.0025861
2.16801
1932.97
3.01716e-05
2.11259
1930.91
-0.00261663
2.05911
1928.91
-0.00572964
2.0044
1926.96
-0.00933055
1.95309
1925.07
-0.00921235
1.89845
1923.22
-0.00565564
1.8511
1921.42
-0.00161344
1.80365
1919.66
0.00176278
1.75845
1917.95
0.00434483
1.71595
1916.27
0.00629861
1.67446
1914.64
0.00775197
1.63253
1913.06
0.00831373
1.5813
1911.52
0.00555354
1.53479
0.00199959
1.34941
1958.43
0.000238321
1.56626
1956.2
0.000197571
2.23509
1953.79
0.000109475
2.41128
1951.36
0.000100193
2.42861
1948.92
0.000176136
2.43894
1946.5
0.000347433
2.42428
1944.11
0.00139478
2.38695
1941.78
0.00226879
2.33466
1939.49
0.00331788
2.28185
1937.27
0.00498416
2.22444
1935.1
0.00488241
2.1671
1932.98
0.00329377
2.11214
1930.92
0.000685711
2.05979
1928.91
-0.00266714
2.0064
1926.95
-0.00667248
1.95425
1925.05
-0.0104484
1.90958
1923.19
-0.00995437
1.8555
1921.39
-0.00629354
1.80541
1919.64
-0.00225494
1.75862
1917.93
0.00102265
1.71471
1916.26
0.00362622
1.6724
1914.63
0.00567569
1.63019
1913.05
0.00721912
1.57938
1911.52
0.00745687
1.52784
0.00366944
1.34534
1958.43
0.000202166
1.56627
1956.2
0.000134685
2.23511
1953.79
0.000147406
2.4113
1951.36
0.00012128
2.42863
1948.92
8.82931e-05
2.43889
1946.5
0.000220843
2.42448
1944.11
0.000581258
2.38619
1941.78
0.000860817
2.3361
1939.5
0.00125199
2.28146
1937.28
0.00194887
2.21943
1935.12
0.00201477
2.16253
1933.02
0.00171393
2.10793
1930.96
0.00100169
2.05644
1928.95
-0.000371818
2.00498
1926.99
-0.00235196
1.95585
1925.07
-0.00367208
1.90996
1923.21
-0.00342689
1.86124
1921.39
-0.00232611
1.81681
1919.62
-0.000912985
1.76654
1917.9
0.000457502
1.71956
1916.23
0.001664
1.67458
1914.6
0.00260033
1.63011
1913.03
0.00325957
1.57766
1911.5
0.00350571
1.52528
0.00213821
1.34163
1958.43
2.97635e-05
1.56631
1956.2
-1.91153e-05
2.23517
1953.79
0.000255105
2.41133
1951.36
0.000155236
2.4286
1948.92
-2.8963e-05
2.43885
1946.5
1.1553e-05
2.42439
1944.11
-1.5587e-05
2.3859
1941.78
-0.000344554
2.33556
1939.5
-0.000537294
2.28089
1937.28
-0.000690573
2.2188
1935.13
-0.00101157
2.1618
1933.02
-0.000750574
2.10708
1930.97
0.000428577
2.05528
1928.96
0.00158806
2.0038
1927
0.00162046
1.95528
1925.08
0.00213064
1.91029
1923.21
0.00278484
1.86172
1921.39
0.00243273
1.81732
1919.62
0.00178747
1.76725
1917.9
0.00117913
1.72043
1916.23
0.000710903
1.67554
1914.6
0.000154434
1.63095
1913.02
-0.000127022
1.57826
1911.5
0.000203832
1.52546
0.000700608
1.34167
1958.43
-0.000574454
1.56647
1956.2
-0.0004158
2.23544
1953.79
0.000265025
2.41156
1951.36
3.81709e-05
2.4287
1948.92
-0.000214377
2.43893
1946.5
-0.00013159
2.4244
1944.11
-0.000349379
2.38598
1941.78
-0.00146563
2.33614
1939.5
-0.00263664
2.28161
1937.28
-0.00321333
2.21924
1935.12
-0.00388328
2.16236
1933.02
-0.00338145
2.10774
1930.96
-0.00133273
2.05554
1928.96
0.00202986
2.00364
1927
0.00512461
1.95501
1925.09
0.00679692
1.90939
1923.22
0.00765347
1.86019
1921.4
0.00645334
1.81575
1919.63
0.00474712
1.76566
1917.91
0.00290648
1.71907
1916.24
0.00129779
1.67454
1914.61
-0.000472296
1.63053
1913.03
-0.00227798
1.57834
1911.51
-0.0019854
1.52574
0.000179088
1.34214
1958.44
-0.00333716
1.56711
1956.2
0.000680104
2.23541
1953.79
0.00058161
2.41109
1951.36
-0.000387384
2.42863
1948.92
-0.000358785
2.43891
1946.5
7.58282e-05
2.42433
1944.11
0.000427686
2.38627
1941.77
0.00159584
2.3378
1939.48
0.00256513
2.2813
1937.26
0.00183134
2.2247
1935.08
0.00105126
2.1671
1932.97
0.000918883
2.11271
1930.91
-0.000107575
2.05921
1928.9
-0.000882386
2.00458
1926.95
-0.00136599
1.95638
1925.06
-0.00106605
1.90227
1923.21
0.000613331
1.85224
1921.41
0.00180882
1.80269
1919.66
0.00229802
1.75639
1917.95
0.00229906
1.71336
1916.28
0.00217463
1.67169
1914.64
0.00214777
1.62994
1913.06
0.00224452
1.57893
1911.52
0.000519481
1.53344
0.000218832
1.34882
1958.43
1.56214
1956.2
2.23268
1953.79
2.40995
1951.36
2.42855
1948.93
2.43916
1946.5
2.42462
1944.12
2.38581
1941.78
2.33612
1939.51
2.27937
1937.28
2.2226
1935.12
2.16557
1933.01
2.11096
1930.95
2.05822
1928.95
2.00466
1926.99
1.95433
1925.08
1.90654
1923.22
1.8614
1921.41
1.80819
1919.66
1.75956
1917.95
1.71467
1916.28
1.67163
1914.65
1.62915
1913.07
1.57824
1911.54
1.52792
1.33945
1960.94
-0.00120563
0.622778
1961.7
-0.00270331
1.48055
1962.26
-0.00193661
1.84918
1962.64
-0.000793847
2.04987
1962.91
-0.000388386
2.16539
1963.12
-0.000314342
2.22181
1963.26
-0.000128145
2.23916
1963.37
0.000126421
2.23557
1963.43
6.34171e-05
2.22084
1963.46
-0.000514608
2.1954
1963.46
-0.00235251
2.16328
1963.44
-0.00203948
2.12884
1963.4
0.000362071
2.0946
1963.34
0.00149353
2.06201
1963.26
0.0021397
2.03103
1963.17
0.00306222
1.99933
1963.07
0.00549315
1.96445
1962.95
0.00425932
1.927
1962.83
0.00218951
1.89137
1962.69
0.000733528
1.85732
1962.55
-0.00173584
1.82329
1962.39
-0.00220167
1.78872
1962.23
-0.00224257
1.74601
1962.04
-0.00187134
1.71518
-0.0012568
1.5862
1960.94
-0.000102823
0.621948
1961.7
-0.00112238
1.47962
1962.26
-0.00122864
1.84841
1962.64
-0.000876362
2.04907
1962.91
-0.000490868
2.16481
1963.12
-0.00033632
2.22148
1963.26
-0.000152783
2.23896
1963.37
0.000237123
2.23544
1963.43
0.000543782
2.22084
1963.46
0.00066559
2.1961
1963.46
0.00144347
2.1653
1963.44
-0.000263837
2.12987
1963.4
-0.00224518
2.09321
1963.33
-0.00253509
2.05954
1963.26
-0.00314858
2.02815
1963.17
-0.00141613
1.9966
1963.07
0.00153807
1.96124
1962.96
0.00303015
1.92568
1962.84
0.00188637
1.89198
1962.7
0.002332
1.85935
1962.55
0.00459963
1.82754
1962.39
0.00408718
1.79297
1962.22
0.00264537
1.74974
1962.04
0.000641977
1.71778
-0.000639426
1.58766
1960.94
-3.24516e-06
0.622213
1961.7
-0.000331136
1.47985
1962.26
-0.000509082
1.84877
1962.64
-0.000426703
2.04892
1962.91
-0.000310577
2.16462
1963.12
-0.000271748
2.22135
1963.27
-0.000213837
2.23882
1963.37
-0.000110172
2.23513
1963.43
0.00061206
2.22032
1963.46
-0.000261792
2.19485
1963.46
-0.00277568
2.16299
1963.44
-0.00402061
2.1295
1963.4
-0.00455564
2.09469
1963.34
-0.00497998
2.06146
1963.27
-0.00542563
2.03178
1963.17
-0.00183667
1.9996
1963.07
0.00237586
1.96204
1962.96
0.00520888
1.92529
1962.83
0.00824126
1.89232
1962.69
0.00843971
1.85863
1962.55
0.00793716
1.82444
1962.39
0.00617239
1.78965
1962.22
0.00374065
1.74684
1962.04
-0.000274492
1.7158
-0.00232181
1.58683
1960.94
2.28983e-05
0.622257
1961.7
-0.000100142
1.48003
1962.26
-0.000235799
1.84888
1962.64
-0.000269591
2.0491
1962.91
-0.00025636
2.16477
1963.12
-0.000203666
2.22147
1963.27
-0.000174094
2.2389
1963.37
0.000269817
2.23519
1963.43
-0.000536922
2.21961
1963.46
-2.40427e-06
2.19537
1963.46
-0.00104832
2.16558
1963.44
-0.00214372
2.13231
1963.4
-0.00231216
2.09719
1963.34
-0.00172425
2.06356
1963.26
-0.00119317
2.03368
1963.16
-0.00392072
1.9981
1963.06
-0.00204162
1.95785
1962.95
2.757e-05
1.92051
1962.83
0.00212563
1.88642
1962.7
0.00338387
1.85386
1962.56
0.00372945
1.82115
1962.4
0.0033536
1.78798
1962.24
0.00280003
1.74676
1962.05
0.00340185
1.71806
0.00180397
1.58985
1960.94
4.52259e-05
0.622273
1961.7
-2.41764e-05
1.48009
1962.26
-0.000115653
1.84895
1962.64
-0.000156075
2.04917
1962.91
-0.000147285
2.1648
1963.12
-8.96999e-05
2.22147
1963.27
-1.78945e-05
2.23894
1963.37
0.000237854
2.23486
1963.43
0.000519205
2.22016
1963.46
0.000888721
2.19513
1963.46
0.00149989
2.16633
1963.44
0.00187947
2.1344
1963.4
0.0023648
2.09981
1963.34
0.00315036
2.06534
1963.26
0.00329213
2.03496
1963.16
0.00184003
2.00195
1963.05
-0.00249997
1.95981
1962.94
-0.00492548
1.92078
1962.82
-0.00375186
1.88543
1962.69
-0.00253733
1.85224
1962.55
-0.00155125
1.81928
1962.4
-0.000727369
1.78628
1962.23
-3.92727e-05
1.74528
1962.05
0.000812708
1.71562
0.00144334
1.58885
1960.94
6.89193e-05
0.622279
1961.7
7.74872e-06
1.48011
1962.26
-6.17484e-05
1.84897
1962.64
-0.000104182
2.04919
1962.91
-0.000105101
2.16482
1963.12
-0.00013783
2.22146
1963.27
-0.000189429
2.23888
1963.37
-0.000810045
2.23463
1963.43
-0.000900882
2.21986
1963.47
-0.000584707
2.19455
1963.47
0.00186859
2.16532
1963.44
0.00306157
2.13315
1963.4
0.00381643
2.09865
1963.34
0.00475355
2.06435
1963.27
0.00598883
2.03443
1963.17
0.00660478
2.00267
1963.06
0.00418736
1.96374
1962.94
0.00424835
1.92622
1962.81
0.00150364
1.88927
1962.67
-0.000854013
1.85441
1962.53
-0.00271948
1.81997
1962.37
-0.00340289
1.78569
1962.21
-0.00340477
1.74373
1962.03
-0.00428231
1.7132
-0.00221199
1.58615
1960.94
9.56149e-05
0.622285
1961.7
3.73885e-05
1.48012
1962.26
-3.20595e-05
1.84899
1962.64
-8.559e-05
2.0492
1962.91
-0.000109151
2.16481
1963.12
-0.000149154
2.22147
1963.27
-0.000255035
2.2389
1963.37
-0.000431194
2.23514
1963.43
-0.000673147
2.22043
1963.46
-4.44091e-05
2.1949
1963.46
-0.00092493
2.16313
1963.44
-0.000347196
2.13001
1963.4
0.00068447
2.09512
1963.35
0.00103025
2.06039
1963.27
0.00440628
2.03013
1963.17
0.00690181
1.9985
1963.07
0.00853069
1.96143
1962.96
0.00616838
1.92362
1962.83
0.00238355
1.88847
1962.7
-0.000392414
1.85525
1962.55
-0.00405059
1.8223
1962.4
-0.00479568
1.78882
1962.23
-0.00414265
1.74735
1962.04
-0.0012034
1.71838
0.000857381
1.59011
1960.94
0.000121592
0.622286
1961.7
6.30248e-05
1.48012
1962.26
-2.23499e-05
1.84899
1962.64
-8.68448e-05
2.0492
1962.91
-0.000115416
2.1648
1963.12
-0.000130973
2.22146
1963.27
-0.000123789
2.23894
1963.37
-7.71055e-05
2.23532
1963.43
1.79947e-06
2.2209
1963.46
-0.000530889
2.19542
1963.46
0.00154843
2.16556
1963.44
0.00313603
2.13237
1963.4
0.00449285
2.09665
1963.33
0.00560357
2.06191
1963.25
0.00419316
2.02861
1963.16
0.00365679
1.99439
1963.06
0.00256843
1.956
1962.95
0.000704406
1.91994
1962.83
-0.00303341
1.88668
1962.7
-0.00419447
1.85487
1962.56
-0.00330135
1.82406
1962.4
-0.00346582
1.79049
1962.24
-0.00290253
1.74827
1962.05
-0.00140395
1.71724
-3.73517e-05
1.588
1960.94
0.000146207
0.622285
1961.7
7.77149e-05
1.48012
1962.26
-2.30007e-05
1.84898
1962.64
-0.000113548
2.04919
1962.91
-0.000185614
2.16478
1963.12
-0.000229176
2.22142
1963.27
-0.000334418
2.23886
1963.37
-0.000490361
2.23521
1963.43
-0.000901494
2.22063
1963.46
-0.00182887
2.1951
1963.47
-0.00337502
2.16318
1963.44
-0.00231163
2.12933
1963.4
0.000583483
2.09358
1963.35
0.00211861
2.05922
1963.27
0.00336683
2.02853
1963.17
0.00469615
1.99611
1963.07
0.00510786
1.95898
1962.96
0.00452009
1.92326
1962.83
0.0050151
1.8913
1962.7
0.00327772
1.85872
1962.55
-0.000468969
1.82561
1962.4
-0.00269572
1.79134
1962.23
-0.00403962
1.74862
1962.04
-0.00413182
1.71711
-0.00257128
1.58753
1960.94
0.000170724
0.622286
1961.7
9.79533e-05
1.48012
1962.26
-2.31156e-05
1.84898
1962.64
-0.000125823
2.04919
1962.91
-0.00020718
2.16479
1963.12
-0.00026887
2.22143
1963.27
-0.000269245
2.23894
1963.37
-0.000165665
2.23536
1963.43
-0.000440047
2.22096
1963.46
-0.000571685
2.19628
1963.46
-0.00146466
2.16583
1963.44
-0.00220814
2.13069
1963.4
-0.00414788
2.09231
1963.34
-0.00381818
2.05732
1963.26
-0.000404022
2.026
1963.16
0.00191171
1.99269
1963.07
0.00363884
1.95574
1962.96
0.00488966
1.92116
1962.84
0.00557182
1.8889
1962.7
0.00513215
1.85782
1962.56
0.00540706
1.82747
1962.4
0.00286665
1.79404
1962.24
-0.00104134
1.75167
1962.05
-0.00269998
1.71983
-0.00222938
1.58922
1960.94
0.000196437
0.622288
1961.7
0.000121264
1.48012
1962.26
-6.66501e-06
1.849
1962.64
-0.000107933
2.0492
1962.91
-0.000176813
2.16481
1963.12
-0.000188408
2.22148
1963.27
-0.000134129
2.23899
1963.37
-0.000284149
2.2353
1963.43
0.000182605
2.22116
1963.46
-0.000956339
2.1965
1963.46
-0.000967419
2.16711
1963.44
-0.00152817
2.1331
1963.4
-0.00223265
2.09672
1963.34
0.000323371
2.06166
1963.25
-0.000831101
2.02743
1963.16
0.000140455
1.99247
1963.06
0.00162671
1.95445
1962.96
0.00314686
1.91934
1962.84
0.00465377
1.88678
1962.7
0.00565549
1.85595
1962.56
0.00598017
1.82478
1962.4
0.00354176
1.79271
1962.24
0.00399661
1.7531
1962.04
0.00254755
1.72213
0.000486704
1.59122
1960.94
0.000219865
0.622288
1961.7
0.000150669
1.48012
1962.26
2.42134e-05
1.849
1962.64
-6.43069e-05
2.0492
1962.91
-9.75529e-05
2.16482
1963.12
-4.70599e-05
2.2215
1963.26
0.000190979
2.239
1963.37
0.000556798
2.2355
1963.43
0.00164533
2.22078
1963.46
0.00169944
2.19695
1963.46
0.000788427
2.16683
1963.44
2.19655e-05
2.13273
1963.4
-0.00115228
2.09612
1963.34
-0.00477559
2.05868
1963.26
-0.00666695
2.02634
1963.17
-0.00392103
1.99185
1963.07
-0.00144292
1.9537
1962.96
0.00101792
1.91841
1962.84
0.00342378
1.88565
1962.71
0.00520391
1.85466
1962.56
0.00656535
1.8234
1962.41
0.00918507
1.79285
1962.24
0.00876086
1.75179
1962.05
0.00487478
1.72073
0.00244853
1.59097
1960.94
0.000237271
0.622287
1961.7
0.000180791
1.48013
1962.26
6.50112e-05
1.849
1962.64
-2.72724e-07
2.0492
1962.91
1.19145e-05
2.16482
1963.12
0.000170406
2.22148
1963.27
0.000523769
2.2389
1963.37
0.00117451
2.23529
1963.43
0.00170775
2.21975
1963.46
0.00200328
2.19606
1963.46
0.00154962
2.16677
1963.44
0.000429388
2.13322
1963.4
-0.00131356
2.09735
1963.34
-0.00344223
2.06242
1963.26
-0.0045848
2.03094
1963.17
-0.00473347
1.99384
1963.06
-0.00372776
1.95369
1962.95
-0.00210532
1.91699
1962.83
0.000242461
1.88344
1962.7
0.00260694
1.85199
1962.56
0.00469521
1.82054
1962.41
0.00664769
1.78875
1962.24
0.00720968
1.74835
1962.06
0.00633364
1.72004
0.00374349
1.59123
1960.94
0.000246133
0.622284
1961.7
0.000207773
1.48013
1962.26
0.000113577
1.849
1962.64
7.67291e-05
2.0492
1962.91
0.000135058
2.16479
1963.12
0.00040963
2.2214
1963.27
0.000888027
2.23872
1963.37
0.00243582
2.23482
1963.43
0.0023166
2.21904
1963.46
0.00306817
2.19522
1963.46
0.0026679
2.16614
1963.44
0.00144524
2.13303
1963.4
-0.000162599
2.09774
1963.34
-0.00158141
2.06357
1963.26
-0.00240548
2.03247
1963.17
-0.00672482
1.99547
1963.06
-0.00694063
1.95483
1962.95
-0.00624045
1.91755
1962.83
-0.00390593
1.88338
1962.7
-0.000930134
1.85131
1962.56
0.0018127
1.81934
1962.41
0.00406649
1.7871
1962.24
0.00608709
1.74658
1962.06
0.00868077
1.71841
0.00578054
1.59031
1960.94
0.000243338
0.622279
1961.7
0.000229669
1.48012
1962.26
0.000171494
1.849
1962.64
0.000147064
2.04917
1962.92
0.000197524
2.16473
1963.12
0.000318755
2.22122
1963.27
0.000721193
2.23837
1963.37
0.00057902
2.23343
1963.44
0.00162574
2.21842
1963.47
0.00353846
2.19375
1963.47
0.00363186
2.16507
1963.44
0.00292808
2.13284
1963.4
0.00184417
2.09862
1963.34
0.000747105
2.065
1963.26
-0.000209026
2.03376
1963.17
-0.00155803
1.99951
1963.06
-0.00521262
1.95803
1962.95
-0.00816503
1.91997
1962.83
-0.00651254
1.88469
1962.69
-0.00366453
1.85146
1962.55
-0.000777274
1.81854
1962.39
0.00166248
1.78565
1962.23
0.00382137
1.74478
1962.05
0.00580205
1.71513
0.00478596
1.5885
1960.94
0.000230874
0.622271
1961.7
0.000272989
1.4801
1962.26
0.000278981
1.84897
1962.64
0.000238907
2.04912
1962.92
0.000216527
2.16465
1963.12
0.000268537
2.22113
1963.27
0.000408358
2.23807
1963.37
0.000523561
2.23358
1963.43
0.000938679
2.21794
1963.46
0.00138962
2.19162
1963.47
0.00141199
2.16263
1963.45
0.00111334
2.13073
1963.41
0.000633697
2.09725
1963.35
0.000304304
2.06445
1963.27
0.000132672
2.03403
1963.18
-0.000611276
2.00074
1963.07
-0.00189637
1.96163
1962.96
-0.00257854
1.92525
1962.83
-0.00193717
1.88889
1962.69
-0.000780845
1.85398
1962.55
0.000392547
1.81937
1962.39
0.00136089
1.78504
1962.23
0.00215697
1.74315
1962.04
0.00286414
1.71263
0.00230951
1.58602
1960.94
0.000212833
0.622256
1961.7
0.000463989
1.48003
1962.26
0.000538213
1.84891
1962.64
0.000376443
2.04905
1962.92
0.000192352
2.1646
1963.12
0.000142135
2.22108
1963.27
7.87496e-05
2.23796
1963.37
-0.000102903
2.23348
1963.43
-0.00018458
2.2177
1963.46
-0.000574125
2.19116
1963.47
-0.000735855
2.16205
1963.45
-0.000847911
2.13011
1963.41
-0.00135206
2.09669
1963.35
-0.00138767
2.06396
1963.27
-0.000423082
2.03361
1963.18
0.000517249
2.00052
1963.08
0.000926191
1.96194
1962.96
0.00179874
1.92591
1962.84
0.00207077
1.88953
1962.7
0.00206348
1.85445
1962.55
0.0018661
1.81966
1962.4
0.00137515
1.78517
1962.23
0.000701232
1.74314
1962.05
-0.000270048
1.71251
-0.000498331
1.58595
1960.94
0.000260903
0.622213
1961.7
0.0012126
1.47985
1962.26
0.00126105
1.84879
1962.64
0.000846211
2.04887
1962.92
0.000422512
2.16448
1963.12
0.000272545
2.22099
1963.27
0.000106793
2.23796
1963.37
-0.00027488
2.23362
1963.43
-0.000188337
2.21783
1963.46
-0.00230134
2.19143
1963.47
-0.0025679
2.1624
1963.44
-0.00241377
2.13046
1963.4
-0.00265332
2.09748
1963.34
-0.00303991
2.06479
1963.27
-0.00271643
2.03376
1963.18
0.000749033
2.00058
1963.07
0.00268997
1.96222
1962.96
0.00580544
1.92566
1962.83
0.00547497
1.88897
1962.69
0.00434915
1.85378
1962.55
0.00318732
1.81898
1962.39
0.0019757
1.78452
1962.23
0.000747913
1.74261
1962.04
-0.00215797
1.71232
-0.00182587
1.5859
1960.94
0.00130451
0.621944
1961.7
0.00277125
1.47963
1962.26
0.00197487
1.84845
1962.64
0.000818388
2.04903
1962.92
0.000443131
2.16467
1963.12
0.000458071
2.22112
1963.27
0.000705125
2.23812
1963.37
0.000990967
2.23394
1963.43
0.000732661
2.21768
1963.46
-4.29535e-05
2.19349
1963.46
-0.000454823
2.16467
1963.44
-0.000816451
2.13233
1963.4
-0.000415313
2.09894
1963.34
-0.000110016
2.06605
1963.25
-0.000392906
2.03392
1963.16
-0.00234144
1.99714
1963.06
-0.00354321
1.95784
1962.95
-0.00149138
1.92019
1962.83
-0.000192384
1.88478
1962.69
0.000546138
1.85133
1962.55
0.000944833
1.81819
1962.4
0.00100827
1.78507
1962.23
0.00106238
1.74425
1962.04
0.00238373
1.71604
0.00278053
1.58871
1960.94
0.622773
1961.7
1.48054
1962.26
1.84923
1962.64
2.04983
1962.91
2.16523
1963.12
2.22137
1963.27
2.23795
1963.37
2.23341
1963.43
2.21707
1963.46
2.19281
1963.46
2.16407
1963.44
2.13212
1963.4
2.09829
1963.34
2.06532
1963.26
2.03423
1963.16
1.99952
1963.06
1.96095
1962.95
1.92161
1962.82
1.88506
1962.68
1.85068
1962.54
1.81688
1962.39
1.78344
1962.22
1.74233
1962.04
1.71289
1.58513
1960.26
0.000234252
0.361345
1960.72
0.000873976
1.02507
1961.18
0.00091186
1.38436
1961.64
0.000928028
1.58566
1962.08
0.000797462
1.72728
1962.48
0.000590472
1.82373
1962.85
0.000429491
1.87121
1963.19
0.000310353
1.89317
1963.51
0.000176795
1.89937
1963.81
-0.000106777
1.89371
1964.09
-0.000538463
1.87976
1964.36
-0.000613494
1.86033
1964.62
-0.00023719
1.83775
1964.87
4.56028e-05
1.81394
1965.11
-3.5016e-05
1.78483
1965.36
0.000147998
1.75597
1965.59
0.000976864
1.73245
1965.81
0.000981495
1.70838
1966.01
0.000526164
1.6836
1966.21
0.000108757
1.65923
1966.4
-0.000427082
1.63462
1966.58
-0.000648909
1.6115
1966.74
-0.000756573
1.58578
1966.88
-0.000743774
1.57745
-0.000515493
1.53663
1960.26
1.74812e-07
0.360475
1960.72
0.000248934
1.02562
1961.18
0.000373984
1.38562
1961.64
0.000503868
1.58666
1962.08
0.000489184
1.72785
1962.48
0.00042677
1.82412
1962.84
0.000356433
1.87152
1963.19
0.000353732
1.89337
1963.51
0.000338463
1.8995
1963.81
0.000251087
1.89398
1964.09
4.51534e-05
1.8802
1964.36
-0.000579588
1.86037
1964.62
-0.000841782
1.837
1964.87
-0.000758008
1.81258
1965.11
-0.00102518
1.78326
1965.36
-0.000624915
1.75424
1965.59
0.000516808
1.73072
1965.81
0.00125792
1.70737
1966.01
0.00128846
1.6834
1966.21
0.00134707
1.65989
1966.4
0.0015052
1.63614
1966.58
0.00120522
1.61329
1966.74
0.000685398
1.58756
1966.88
-4.80678e-06
1.57901
-0.000368836
1.53758
1960.26
1.37978e-05
0.360434
1960.72
2.99499e-05
1.02556
1961.18
7.99501e-05
1.38563
1961.64
0.000102774
1.58662
1962.08
0.000129193
1.72774
1962.48
0.000115609
1.82414
1962.84
0.000124353
1.87154
1963.19
0.000186913
1.8933
1963.51
0.000307803
1.89928
1963.81
-1.59111e-05
1.89355
1964.09
-0.00071875
1.87977
1964.36
-0.00115803
1.86064
1964.62
-0.00118045
1.83781
1964.87
-0.000680792
1.81359
1965.11
-0.000696873
1.7848
1965.36
-0.000359614
1.75561
1965.59
0.000886098
1.73116
1965.81
0.00201462
1.70718
1966.01
0.00278431
1.68309
1966.21
0.00278096
1.65902
1966.4
0.00239476
1.63453
1966.58
0.00168499
1.61147
1966.74
0.00081128
1.58587
1966.88
-0.000208574
1.57768
-0.000675417
1.5369
1960.26
2.95995e-05
0.360431
1960.72
-1.21363e-05
1.02553
1961.18
-2.55388e-05
1.38557
1961.64
-2.21091e-05
1.58656
1962.08
-5.03654e-07
1.72772
1962.48
2.63377e-05
1.8241
1962.84
6.45459e-05
1.87152
1963.19
0.000160358
1.89329
1963.51
4.55971e-05
1.8993
1963.81
9.34357e-05
1.894
1964.09
-0.00028379
1.88087
1964.36
-0.000721253
1.86204
1964.62
-0.000788086
1.83921
1964.87
-0.000267499
1.81453
1965.12
0.000122621
1.78546
1965.36
-0.000367317
1.7555
1965.59
-0.000118536
1.72965
1965.8
0.000579641
1.70487
1966.01
0.00126772
1.68033
1966.21
0.00156936
1.65654
1966.4