/*--------------------------------*- C++ -*----------------------------------*\
  =========                 |
  \\      /  F ield         | OpenFOAM: The Open Source CFD Toolbox
   \\    /   O peration     | Website:  https://openfoam.org
    \\  /    A nd           | Version:  12
     \\/     M anipulation  |
\*---------------------------------------------------------------------------*/
FoamFile
{
    format      ascii;
    class       volVectorField;
    location    "400";
    object      U;
}
// * * * * * * * * * * * * * * * * * * * * * * * * * * * * * * * * * * * * * //

dimensions      [0 1 -1 0 0 0 0];

internalField   nonuniform List<vector> 
5000
(
(9.9911 9.22093e-06 0.00342435)
(9.98604 2.87975e-06 0.00850379)
(9.97559 -9.76423e-07 0.0102196)
(9.96256 1.03733e-06 0.010954)
(9.94966 1.57715e-06 0.0113572)
(9.93722 5.79953e-07 0.0115451)
(9.92499 1.00338e-07 0.0115712)
(9.91293 2.55404e-07 0.0115002)
(9.90112 -8.04338e-07 0.0113638)
(9.88959 -6.76988e-07 0.0111656)
(9.87841 4.08068e-06 0.0108752)
(9.86757 1.02745e-05 0.010633)
(9.85691 1.40536e-05 0.0103899)
(9.84658 1.65635e-05 0.0101593)
(9.83647 1.23115e-05 0.00993866)
(9.82658 3.26919e-06 0.00969686)
(9.81691 -7.34519e-06 0.00953405)
(9.80751 -1.45649e-05 0.00926341)
(9.79839 -1.8732e-05 0.00900236)
(9.78951 -1.95465e-05 0.00875412)
(9.78086 -1.55798e-05 0.00851375)
(9.77242 -1.00136e-05 0.0082736)
(9.76422 -4.34881e-06 0.0080118)
(9.75646 2.80753e-06 0.00772608)
(9.74699 1.86145e-06 0.00706435)
(9.99108 1.17635e-05 0.0034136)
(9.986 2.32219e-06 0.00848425)
(9.97558 -2.30672e-06 0.0102068)
(9.96255 2.22188e-07 0.0109449)
(9.94964 1.62911e-06 0.0113501)
(9.9372 2.85287e-07 0.0115404)
(9.92497 -5.63875e-07 0.0115686)
(9.91292 4.87513e-07 0.0114986)
(9.9011 1.13719e-06 0.011362)
(9.88956 -4.14542e-08 0.0111597)
(9.87832 -2.4547e-06 0.0109463)
(9.8674 -4.3321e-06 0.0107023)
(9.85682 -5.47381e-06 0.0103681)
(9.84658 -1.54421e-06 0.0101213)
(9.83655 4.76074e-06 0.00989498)
(9.82673 4.19465e-06 0.00967151)
(9.81711 -7.98448e-07 0.00944164)
(9.80774 -2.59619e-06 0.00920955)
(9.79858 -2.04187e-08 0.00897846)
(9.78966 3.02405e-06 0.0087345)
(9.78091 4.17578e-06 0.00858874)
(9.7724 3.59824e-06 0.0083412)
(9.76415 1.67639e-06 0.00806757)
(9.75636 1.7381e-06 0.00776125)
(9.74689 -2.80933e-06 0.00708705)
(9.99108 1.48477e-06 0.00341185)
(9.986 -5.16842e-07 0.00848244)
(9.97557 -1.43562e-06 0.010206)
(9.96255 -5.62287e-07 0.0109445)
(9.94964 -1.20257e-07 0.0113498)
(9.9372 -5.91519e-07 0.0115405)
(9.92497 -1.55332e-06 0.0115681)
(9.91292 -3.14483e-06 0.0114959)
(9.90112 -5.90874e-06 0.0113597)
(9.88962 -1.40211e-05 0.0111576)
(9.87848 -2.69803e-05 0.0108635)
(9.86765 -3.30887e-05 0.0106235)
(9.85706 -3.25988e-05 0.0103839)
(9.84672 -1.35708e-05 0.0101496)
(9.83663 1.37047e-05 0.00992418)
(9.82679 2.88017e-05 0.00969985)
(9.81714 3.44883e-05 0.00946513)
(9.80775 3.75197e-05 0.00920918)
(9.79855 4.02243e-05 0.0090535)
(9.7896 3.54784e-05 0.00880389)
(9.78091 2.28692e-05 0.00855507)
(9.77244 8.26969e-06 0.00830522)
(9.76423 -3.65506e-06 0.00803355)
(9.75647 -9.44806e-06 0.00774126)
(9.74701 -9.25496e-06 0.00707822)
(9.99108 3.60063e-07 0.00341156)
(9.986 1.1368e-07 0.00848089)
(9.97557 -4.97761e-07 0.0102047)
(9.96254 -7.29268e-07 0.0109432)
(9.94964 -6.96609e-07 0.0113487)
(9.9372 -9.82729e-07 0.0115393)
(9.92496 -2.13878e-06 0.0115652)
(9.91292 -5.24669e-06 0.011496)
(9.90107 -1.23479e-05 0.0113237)
(9.88959 -2.58578e-05 0.0111424)
(9.87835 -3.4483e-05 0.0109095)
(9.86746 -3.68617e-05 0.0106718)
(9.85679 -3.70531e-05 0.0104287)
(9.84641 -2.15333e-05 0.0101919)
(9.8363 5.8895e-06 0.0100004)
(9.82653 2.63303e-05 0.00968681)
(9.81699 3.52229e-05 0.00943369)
(9.80767 3.85183e-05 0.00918583)
(9.7986 3.4011e-05 0.00894645)
(9.78973 2.62022e-05 0.00871614)
(9.78109 1.57363e-05 0.00848788)
(9.77265 4.39817e-06 0.00825083)
(9.76442 -5.04803e-06 0.00798284)
(9.7566 -1.024e-05 0.00776039)
(9.74707 -6.83801e-06 0.00715759)
(9.99108 7.17729e-08 0.0034115)
(9.986 -1.79593e-07 0.00848047)
(9.97557 -7.1354e-07 0.0102044)
(9.96254 -8.50719e-07 0.010943)
(9.94964 -8.67207e-07 0.0113487)
(9.9372 -8.64219e-07 0.0115383)
(9.92496 -1.25863e-06 0.0115667)
(9.9129 -1.56925e-06 0.0114812)
(9.9011 -1.84729e-06 0.0113548)
(9.88955 -3.16288e-06 0.0111357)
(9.87833 -5.14915e-06 0.0109161)
(9.86736 -1.22551e-05 0.0106819)
(9.8567 -2.40904e-05 0.0104533)
(9.84623 -3.34014e-05 0.0102225)
(9.83609 -3.73402e-05 0.00998624)
(9.82623 -2.56265e-05 0.00978688)
(9.81667 -6.66489e-06 0.00945938)
(9.80737 1.10073e-05 0.00919789)
(9.79829 2.11773e-05 0.00894801)
(9.78946 2.66232e-05 0.00870876)
(9.78082 2.94364e-05 0.00847768)
(9.77242 3.06424e-05 0.00824374)
(9.76421 2.87581e-05 0.00798534)
(9.75645 1.82414e-05 0.00767808)
(9.74693 7.5345e-06 0.00710219)
(9.99108 3.01808e-08 0.00341149)
(9.986 -2.17397e-07 0.00848029)
(9.97557 -5.63207e-07 0.0102043)
(9.96254 -6.3001e-07 0.0109427)
(9.94964 -6.38991e-07 0.0113485)
(9.93719 -3.57873e-07 0.0115379)
(9.92497 5.6122e-07 0.0115666)
(9.9129 2.32605e-06 0.0114741)
(9.90112 8.45833e-06 0.0113428)
(9.8896 2.03261e-05 0.0111281)
(9.87842 3.0898e-05 0.0109041)
(9.8675 3.59823e-05 0.0106667)
(9.85688 3.46169e-05 0.0104308)
(9.84643 2.36651e-05 0.0101921)
(9.83626 7.68e-06 0.00996582)
(9.82632 -5.63103e-06 0.00974262)
(9.81667 -1.03471e-05 0.00949631)
(9.80726 -1.21553e-05 0.00931319)
(9.79814 -1.31247e-05 0.00901573)
(9.7893 -1.41935e-05 0.00874837)
(9.78068 -1.46482e-05 0.00849646)
(9.7723 -1.31325e-05 0.00824937)
(9.76414 -8.1608e-06 0.0079874)
(9.75642 -2.81933e-06 0.0076797)
(9.74699 -2.77043e-06 0.00707748)
(9.99108 5.28495e-08 0.00341154)
(9.986 -2.40743e-07 0.00848036)
(9.97557 -5.43692e-07 0.0102043)
(9.96254 -6.98034e-07 0.0109429)
(9.94964 -5.15672e-07 0.0113484)
(9.93719 -1.45142e-07 0.0115392)
(9.92497 1.21405e-06 0.0115677)
(9.91292 3.17153e-06 0.0114974)
(9.90111 4.79957e-06 0.0113635)
(9.88959 7.79483e-06 0.0111607)
(9.87844 1.64353e-05 0.0108649)
(9.86763 3.25385e-05 0.010624)
(9.85705 4.65877e-05 0.010387)
(9.84672 5.51661e-05 0.0101501)
(9.83661 5.75731e-05 0.00991339)
(9.82679 3.67563e-05 0.00967224)
(9.81715 9.84525e-06 0.00951559)
(9.80776 -1.51765e-05 0.00924969)
(9.79863 -3.13145e-05 0.00899275)
(9.78973 -3.78301e-05 0.00874691)
(9.78107 -3.78962e-05 0.00850789)
(9.77262 -3.35326e-05 0.00826171)
(9.7644 -2.59733e-05 0.00798843)
(9.75657 -1.50096e-05 0.00776282)
(9.74705 -8.10231e-06 0.0071546)
(9.99108 6.78407e-08 0.00341152)
(9.986 -2.97145e-07 0.00848035)
(9.97557 -6.01765e-07 0.0102043)
(9.96254 -8.37957e-07 0.0109428)
(9.94964 -7.56141e-07 0.0113483)
(9.9372 -4.37651e-07 0.0115388)
(9.92497 4.73909e-07 0.011567)
(9.91292 2.54042e-06 0.0114946)
(9.90109 4.94622e-06 0.0113652)
(9.88953 5.58258e-06 0.0111284)
(9.87832 7.55769e-06 0.0109085)
(9.86735 1.18408e-05 0.0106817)
(9.85671 1.78189e-05 0.0104473)
(9.84632 2.09182e-05 0.0102337)
(9.83632 1.42564e-05 0.00990631)
(9.8266 5.27998e-07 0.00965984)
(9.81704 -1.26716e-05 0.00941819)
(9.80773 -1.8829e-05 0.00917646)
(9.79864 -2.13535e-05 0.00893727)
(9.78977 -1.85058e-05 0.00869354)
(9.78107 -1.13373e-05 0.00854935)
(9.77259 -1.23448e-06 0.00830682)
(9.76437 7.82773e-06 0.00804163)
(9.75659 1.02548e-05 0.00774617)
(9.74712 7.11851e-06 0.00708188)
(9.99108 8.20189e-08 0.00341149)
(9.986 -3.19648e-07 0.00848024)
(9.97557 -7.77747e-07 0.0102042)
(9.96255 -1.14454e-06 0.0109428)
(9.94964 -1.3367e-06 0.0113481)
(9.9372 -1.26459e-06 0.0115388)
(9.92497 -1.25549e-06 0.0115665)
(9.91292 -6.9515e-07 0.0114943)
(9.90112 1.21786e-06 0.0113584)
(9.88962 6.58264e-06 0.0111547)
(9.87848 1.45699e-05 0.010859)
(9.86766 1.95473e-05 0.0106179)
(9.85708 2.04603e-05 0.0103788)
(9.84674 1.51504e-05 0.0101434)
(9.83667 6.66932e-06 0.00991522)
(9.82684 -2.80204e-06 0.00969292)
(9.8172 -1.18848e-05 0.00945932)
(9.80781 -1.64074e-05 0.00920429)
(9.79862 -1.83709e-05 0.00905128)
(9.78967 -1.84887e-05 0.00880373)
(9.78098 -1.77418e-05 0.00855656)
(9.77252 -1.39993e-05 0.00830733)
(9.76431 -7.8423e-06 0.00803492)
(9.75655 -2.40039e-07 0.00773752)
(9.74709 3.66504e-06 0.0070709)
(9.99108 9.66706e-08 0.00341149)
(9.986 -3.36885e-07 0.00848025)
(9.97557 -1.03484e-06 0.0102042)
(9.96255 -1.52067e-06 0.0109428)
(9.94964 -1.99297e-06 0.0113483)
(9.9372 -2.50376e-06 0.0115384)
(9.92497 -3.33761e-06 0.0115667)
(9.91292 -6.28942e-06 0.0114968)
(9.9011 -1.38641e-05 0.011358)
(9.88957 -2.20096e-05 0.0111563)
(9.87834 -2.45805e-05 0.0109394)
(9.86744 -1.65686e-05 0.01069)
(9.8569 -1.93613e-06 0.0103586)
(9.84664 1.33423e-05 0.010107)
(9.83664 2.09321e-05 0.00987587)
(9.82688 2.56892e-05 0.00965742)
(9.81727 2.33007e-05 0.00943352)
(9.80791 1.66276e-05 0.00920562)
(9.79875 6.79938e-06 0.00897591)
(9.78982 -1.76756e-06 0.00873408)
(9.78106 -9.10902e-06 0.00859156)
(9.77254 -1.37404e-05 0.00834627)
(9.76428 -1.56145e-05 0.00807475)
(9.75647 -8.11035e-06 0.0077711)
(9.74698 1.83101e-06 0.00709918)
(9.99108 1.11741e-07 0.00341152)
(9.986 -3.92046e-07 0.00848025)
(9.97557 -1.20975e-06 0.0102042)
(9.96254 -1.88274e-06 0.0109428)
(9.94964 -2.57948e-06 0.0113483)
(9.9372 -3.22338e-06 0.0115383)
(9.92496 -4.17003e-06 0.0115664)
(9.91291 -6.78868e-06 0.0114859)
(9.9011 -1.20712e-05 0.0113583)
(9.88954 -1.98008e-05 0.0111346)
(9.87833 -2.42876e-05 0.0109132)
(9.86739 -2.58056e-05 0.0106744)
(9.85675 -1.92083e-05 0.0104358)
(9.84635 -7.66681e-06 0.0102306)
(9.83633 5.85642e-06 0.0099114)
(9.82658 1.92294e-05 0.00967137)
(9.817 2.84782e-05 0.00943239)
(9.80766 3.45125e-05 0.00919489)
(9.79853 3.54525e-05 0.00896467)
(9.78963 3.00136e-05 0.00873895)
(9.78093 2.12939e-05 0.00851086)
(9.77245 1.3723e-05 0.00826417)
(9.76416 7.37214e-06 0.00809057)
(9.75632 3.55421e-06 0.00779408)
(9.7468 6.11943e-06 0.00712784)
(9.99108 1.27621e-07 0.00341151)
(9.986 -4.42482e-07 0.00848028)
(9.97557 -1.26749e-06 0.0102042)
(9.96254 -2.1455e-06 0.0109428)
(9.94964 -2.85464e-06 0.0113484)
(9.9372 -3.24176e-06 0.0115388)
(9.92496 -4.24816e-06 0.0115661)
(9.91291 -5.56114e-06 0.0114973)
(9.90108 -6.02081e-06 0.0113493)
(9.88956 -8.07464e-06 0.0111674)
(9.8783 -1.40237e-05 0.0109122)
(9.86741 -2.02743e-05 0.010678)
(9.85677 -2.20801e-05 0.0104659)
(9.84645 -1.44991e-05 0.0101337)
(9.83647 1.66178e-06 0.00988537)
(9.82672 1.88933e-05 0.00965233)
(9.81716 3.27945e-05 0.00941855)
(9.80782 4.08732e-05 0.00918447)
(9.79872 4.53363e-05 0.00895441)
(9.78982 4.54356e-05 0.00872425)
(9.78114 4.1762e-05 0.0084841)
(9.77262 2.90912e-05 0.00833835)
(9.76434 1.46953e-05 0.00807661)
(9.75652 4.54005e-06 0.00776093)
(9.74701 2.48926e-06 0.0071534)
(9.99108 1.45327e-07 0.00341148)
(9.986 -4.04728e-07 0.00848028)
(9.97557 -1.29212e-06 0.0102042)
(9.96254 -2.21531e-06 0.0109428)
(9.94964 -2.98591e-06 0.0113482)
(9.9372 -3.3835e-06 0.0115387)
(9.92496 -3.73995e-06 0.0115642)
(9.91291 -3.94896e-06 0.0114953)
(9.90106 -4.27953e-06 0.0113224)
(9.88958 -7.11898e-06 0.0111421)
(9.87835 -1.68226e-05 0.0109105)
(9.86746 -2.43612e-05 0.0106714)
(9.8568 -2.72724e-05 0.0104255)
(9.84642 -2.45543e-05 0.0101848)
(9.83632 -1.03132e-05 0.00999143)
(9.82657 6.59475e-06 0.00967657)
(9.81704 2.35541e-05 0.00942518)
(9.80772 3.48729e-05 0.00917987)
(9.79866 4.16212e-05 0.00894339)
(9.7898 4.41114e-05 0.00871655)
(9.78115 4.3205e-05 0.00849214)
(9.7727 3.12659e-05 0.00825918)
(9.76447 1.75403e-05 0.00799292)
(9.75664 5.23318e-06 0.00777171)
(9.7471 2.07422e-06 0.00716838)
(9.99108 1.60791e-07 0.00341148)
(9.986 -3.22528e-07 0.0084803)
(9.97557 -1.27207e-06 0.0102042)
(9.96254 -2.13199e-06 0.0109428)
(9.94964 -2.77354e-06 0.0113483)
(9.9372 -3.12266e-06 0.0115388)
(9.92496 -2.76799e-06 0.0115647)
(9.91291 -3.42501e-07 0.0114957)
(9.90106 3.23391e-06 0.0113232)
(9.88958 4.84153e-06 0.0111427)
(9.87835 1.58244e-06 0.0109113)
(9.86746 -7.16042e-06 0.0106738)
(9.85679 -1.48005e-05 0.0104293)
(9.84641 -2.18678e-05 0.0101899)
(9.83631 -2.43844e-05 0.00999713)
(9.82655 -1.57349e-05 0.00968263)
(9.81701 -1.70821e-07 0.00942805)
(9.80769 1.61388e-05 0.00917883)
(9.79863 2.56974e-05 0.00893943)
(9.78977 3.16911e-05 0.0087107)
(9.78114 3.48581e-05 0.00848528)
(9.77269 3.53578e-05 0.008251)
(9.76447 2.97399e-05 0.00798529)
(9.75664 1.82604e-05 0.00776487)
(9.7471 8.15508e-06 0.00716359)
(9.99108 1.65017e-07 0.00341149)
(9.986 -2.52202e-07 0.00848035)
(9.97557 -1.14796e-06 0.0102043)
(9.96254 -1.85796e-06 0.0109427)
(9.94964 -2.4507e-06 0.0113485)
(9.93719 -2.47758e-06 0.0115369)
(9.92497 -9.50993e-07 0.0115653)
(9.91289 3.45806e-06 0.0114559)
(9.90114 1.12219e-05 0.0113305)
(9.88963 1.86278e-05 0.0111349)
(9.87844 1.90525e-05 0.0109075)
(9.86751 8.83861e-06 0.0106701)
(9.85687 -5.75093e-06 0.0104327)
(9.84644 -2.09578e-05 0.0101922)
(9.83634 -3.34072e-05 0.00996135)
(9.82647 -4.21266e-05 0.00978158)
(9.81687 -2.98025e-05 0.00946513)
(9.80756 -1.08922e-05 0.00919831)
(9.79849 7.34212e-06 0.00894774)
(9.78966 1.91886e-05 0.00870993)
(9.78103 2.7573e-05 0.00848117)
(9.77262 3.33994e-05 0.00824909)
(9.76442 3.57205e-05 0.0079922)
(9.75666 3.05035e-05 0.00768575)
(9.74714 1.45949e-05 0.00710894)
(9.99108 1.24526e-07 0.00341151)
(9.986 -2.39175e-07 0.00848046)
(9.97557 -7.96484e-07 0.0102044)
(9.96254 -1.37661e-06 0.010943)
(9.94964 -2.00668e-06 0.0113484)
(9.9372 -1.84388e-06 0.0115397)
(9.92496 -2.28161e-07 0.0115647)
(9.91293 3.28123e-06 0.0114878)
(9.90114 1.03236e-05 0.0113457)
(9.88967 1.85524e-05 0.0111004)
(9.87854 2.11546e-05 0.0108791)
(9.86766 1.97541e-05 0.0106438)
(9.85706 1.13898e-05 0.0104105)
(9.84665 -3.15714e-06 0.0101754)
(9.83656 -2.09689e-05 0.00994916)
(9.82665 -3.13469e-05 0.00972322)
(9.81699 -2.93872e-05 0.00946725)
(9.80756 -2.05015e-05 0.00929574)
(9.7984 -1.00621e-05 0.00902375)
(9.78952 5.37008e-08 0.00876332)
(9.78086 9.38068e-06 0.00851442)
(9.77245 1.69602e-05 0.00826779)
(9.76427 2.24264e-05 0.00800516)
(9.75654 2.37354e-05 0.00769464)
(9.74709 1.29352e-05 0.00708914)
(9.99108 -1.27842e-07 0.00341157)
(9.986 -7.0932e-07 0.0084809)
(9.97557 -5.9734e-07 0.0102047)
(9.96254 -1.06714e-06 0.0109432)
(9.94964 -1.81564e-06 0.0113486)
(9.9372 -1.78235e-06 0.0115398)
(9.92497 -1.22184e-06 0.0115644)
(9.91293 -5.17685e-07 0.0114873)
(9.90115 5.34871e-07 0.0113446)
(9.88968 1.99435e-06 0.0110987)
(9.87855 3.09211e-06 0.0108768)
(9.86767 4.1639e-06 0.0106408)
(9.85708 5.13214e-06 0.0104062)
(9.84668 3.61313e-06 0.0101707)
(9.8366 6.30138e-07 0.00994497)
(9.82669 5.84298e-07 0.00971878)
(9.81704 2.21003e-06 0.0094633)
(9.8076 3.40843e-06 0.00929565)
(9.79843 3.77829e-06 0.00902842)
(9.78954 4.58265e-06 0.00877039)
(9.78087 5.53589e-06 0.00852241)
(9.77246 6.46589e-06 0.00827532)
(9.76426 7.33025e-06 0.00801167)
(9.75653 7.60259e-06 0.00769943)
(9.74708 5.8104e-06 0.00709141)
(9.99108 -1.35317e-06 0.00341186)
(9.986 2.1528e-07 0.00848249)
(9.97557 6.49879e-07 0.010206)
(9.96254 -8.39553e-07 0.0109446)
(9.94964 -1.75919e-06 0.0113499)
(9.9372 -1.66267e-06 0.0115409)
(9.92497 -1.85277e-06 0.0115656)
(9.91293 -3.95243e-06 0.0114907)
(9.90114 -9.0172e-06 0.0113475)
(9.88967 -1.33449e-05 0.0111003)
(9.87854 -1.60374e-05 0.0108788)
(9.86766 -1.08299e-05 0.0106426)
(9.85706 1.84946e-06 0.0104069)
(9.84668 1.73038e-05 0.010172)
(9.8366 2.66507e-05 0.00994469)
(9.82669 3.10509e-05 0.00971176)
(9.81706 3.20508e-05 0.00945382)
(9.80763 2.49475e-05 0.00928531)
(9.79847 1.66504e-05 0.00901813)
(9.78958 8.3445e-06 0.00876209)
(9.78092 9.53402e-07 0.00851666)
(9.7725 -6.21345e-06 0.00827215)
(9.7643 -9.83157e-06 0.00801074)
(9.75655 -5.98602e-06 0.00770111)
(9.7471 1.38308e-06 0.00709477)
(9.99108 -1.17932e-05 0.00341358)
(9.986 -2.50357e-06 0.00848435)
(9.97557 1.88813e-06 0.0102068)
(9.96255 -9.90529e-07 0.0109449)
(9.94964 -2.72683e-06 0.0113503)
(9.9372 -1.69921e-06 0.0115405)
(9.92497 -1.12079e-06 0.0115657)
(9.91292 -1.96153e-06 0.0114959)
(9.90108 -4.7896e-06 0.0113214)
(9.88959 -8.72397e-06 0.0111402)
(9.87835 -1.02474e-05 0.0109064)
(9.86745 -7.62695e-06 0.0106728)
(9.85675 -2.54464e-06 0.0104359)
(9.8464 5.48496e-06 0.0101992)
(9.83631 1.44318e-05 0.0100077)
(9.82651 2.16585e-05 0.00968578)
(9.81696 2.44774e-05 0.00942329)
(9.80766 2.4061e-05 0.00917108)
(9.7986 2.19134e-05 0.0089299)
(9.78976 1.73465e-05 0.00870088)
(9.78113 1.23345e-05 0.00847596)
(9.7727 6.62548e-06 0.00824273)
(9.76448 1.49185e-06 0.00797906)
(9.75667 -2.76e-06 0.00776027)
(9.74715 3.21117e-06 0.00715663)
(9.9911 -9.12767e-06 0.00342433)
(9.98604 -2.96069e-06 0.00850375)
(9.97559 7.61023e-07 0.0102194)
(9.96256 -1.21658e-06 0.0109541)
(9.94966 -2.03558e-06 0.011357)
(9.93722 -1.16455e-06 0.0115443)
(9.92499 -4.09282e-07 0.0115568)
(9.91295 4.12046e-07 0.0114775)
(9.90116 1.58744e-06 0.0113087)
(9.88972 1.81269e-06 0.0111286)
(9.87852 1.71063e-06 0.0108969)
(9.86765 -6.56772e-07 0.0106606)
(9.857 -6.45511e-06 0.0104183)
(9.84663 -1.02857e-05 0.0101748)
(9.83653 -1.25168e-05 0.00994141)
(9.82668 -7.18862e-06 0.00969565)
(9.81703 7.2316e-07 0.00951856)
(9.80767 8.19345e-06 0.00923021)
(9.79859 1.26517e-05 0.00896445)
(9.78974 1.58608e-05 0.00871714)
(9.78112 1.80248e-05 0.0084817)
(9.7727 1.92979e-05 0.00824802)
(9.76452 1.62721e-05 0.00799425)
(9.75677 7.7662e-06 0.00770056)
(9.74729 6.91724e-06 0.007037)
(10.0012 -2.64949e-06 0.00553085)
(10.0059 -9.43495e-06 0.0111437)
(10.011 -9.23853e-06 0.0131989)
(10.0128 -6.04717e-06 0.0135222)
(10.0142 -3.33124e-06 0.01355)
(10.0154 -2.14382e-06 0.0134101)
(10.0163 -1.10411e-06 0.013148)
(10.017 -1.31603e-07 0.0128199)
(10.0174 -6.81879e-07 0.0124723)
(10.0176 -2.12826e-06 0.0120993)
(10.0177 -2.78032e-06 0.0117335)
(10.0176 1.55779e-06 0.0113843)
(10.0175 8.06114e-06 0.0110622)
(10.0172 1.21977e-05 0.0107676)
(10.0168 1.51308e-05 0.0104956)
(10.0164 1.75439e-05 0.0102427)
(10.0159 1.69642e-05 0.00998821)
(10.0154 9.15279e-06 0.0097335)
(10.0148 -1.79352e-07 0.00948926)
(10.0141 -9.53927e-06 0.00925748)
(10.0134 -1.48989e-05 0.00903129)
(10.0126 -1.71234e-05 0.00881159)
(10.0118 -1.63424e-05 0.00853384)
(10.011 -1.30062e-05 0.00836085)
(10.0095 -6.91924e-06 0.00734907)
(10.0012 -3.04742e-06 0.00552306)
(10.0059 -1.2054e-05 0.0111428)
(10.011 -1.09692e-05 0.0132031)
(10.0128 -6.46515e-06 0.0135239)
(10.0142 -3.17859e-06 0.013551)
(10.0154 -2.09092e-06 0.0134116)
(10.0164 -1.06247e-06 0.0131492)
(10.017 4.48484e-07 0.0128204)
(10.0174 5.59878e-07 0.0124714)
(10.0176 -6.01299e-07 0.0120998)
(10.0177 -2.6677e-06 0.0117309)
(10.0176 -4.64066e-06 0.0113735)
(10.0175 -2.93643e-06 0.0110464)
(10.0172 -2.70709e-09 0.0107487)
(10.0168 3.08194e-06 0.0104779)
(10.0164 9.44894e-06 0.0102316)
(10.0159 1.43603e-05 0.00998642)
(10.0154 1.13941e-05 0.00974126)
(10.0148 6.86131e-06 0.00950463)
(10.0141 5.7234e-06 0.00927761)
(10.0134 5.23006e-06 0.00905128)
(10.0126 4.04707e-06 0.00882852)
(10.0118 1.6724e-06 0.00854637)
(10.011 -8.40135e-07 0.00836518)
(10.0095 -2.32855e-06 0.00735038)
(10.0012 -6.18863e-07 0.00552201)
(10.006 -2.37281e-06 0.0111432)
(10.011 -2.60144e-06 0.0132071)
(10.0129 -1.61286e-06 0.0135241)
(10.0142 -1.0745e-06 0.013551)
(10.0154 -1.28421e-06 0.0134117)
(10.0164 -1.73805e-06 0.0131493)
(10.017 -2.6256e-06 0.0128197)
(10.0174 -4.34476e-06 0.0124705)
(10.0176 -8.03133e-06 0.0120961)
(10.0177 -1.45641e-05 0.0117305)
(10.0177 -2.27721e-05 0.0113846)
(10.0175 -2.60813e-05 0.0110579)
(10.0173 -2.65897e-05 0.0107568)
(10.0169 -2.02413e-05 0.0104902)
(10.0165 -3.9934e-06 0.0102406)
(10.0159 1.44651e-05 0.00998656)
(10.0154 2.86382e-05 0.00973553)
(10.0148 3.71375e-05 0.00949287)
(10.0141 4.17315e-05 0.00926101)
(10.0134 4.44042e-05 0.00903427)
(10.0126 3.56952e-05 0.00881414)
(10.0118 2.10651e-05 0.00853604)
(10.011 4.43848e-06 0.00835963)
(10.0095 -5.68222e-06 0.0073493)
(10.0012 -1.03821e-07 0.00552165)
(10.006 -1.00806e-06 0.0111431)
(10.011 -1.77697e-06 0.0132064)
(10.0129 -1.9389e-06 0.0135246)
(10.0142 -1.95488e-06 0.0135514)
(10.0154 -2.10488e-06 0.0134122)
(10.0164 -2.89343e-06 0.0131502)
(10.017 -4.73367e-06 0.012822)
(10.0174 -8.41165e-06 0.0124737)
(10.0176 -1.41256e-05 0.0121085)
(10.0177 -2.2102e-05 0.0117488)
(10.0176 -2.64403e-05 0.0114014)
(10.0175 -2.59463e-05 0.0110676)
(10.0172 -2.33991e-05 0.0107556)
(10.0169 -1.79109e-05 0.0104791)
(10.0164 -5.46622e-06 0.0102201)
(10.0159 1.37768e-05 0.00995767)
(10.0153 2.95815e-05 0.00970531)
(10.0148 3.81374e-05 0.00946782)
(10.0141 3.95805e-05 0.00924408)
(10.0134 3.44945e-05 0.00902746)
(10.0127 2.4802e-05 0.00881791)
(10.0118 1.25246e-05 0.00854837)
(10.011 -2.05797e-06 0.00837576)
(10.0095 -8.89803e-06 0.00736069)
(10.0012 -5.55829e-08 0.00552157)
(10.006 -4.98579e-07 0.0111431)
(10.011 -9.77244e-07 0.0132064)
(10.0129 -1.1301e-06 0.0135249)
(10.0142 -1.07405e-06 0.0135516)
(10.0154 -1.00959e-06 0.0134125)
(10.0164 -1.14709e-06 0.0131509)
(10.017 -8.47246e-07 0.0128232)
(10.0174 -5.08675e-07 0.0124786)
(10.0176 9.24222e-08 0.0121134)
(10.0177 -9.99607e-07 0.0117595)
(10.0176 -1.9609e-06 0.0114196)
(10.0175 -1.83711e-06 0.0110899)
(10.0172 -2.97646e-06 0.0107728)
(10.0169 -8.02392e-06 0.0104912)
(10.0164 -1.73008e-05 0.0102304)
(10.0158 -2.17703e-05 0.0099613)
(10.0153 -1.79215e-05 0.00969949)
(10.0147 -8.55248e-06 0.00945728)
(10.0141 -2.75283e-08 0.00923168)
(10.0134 7.03288e-06 0.00901468)
(10.0126 1.31199e-05 0.00880655)
(10.0118 1.90386e-05 0.00854012)
(10.011 2.28866e-05 0.00837269)
(10.0095 1.99214e-05 0.00735995)
(10.0012 1.28357e-09 0.00552156)
(10.006 -3.34292e-07 0.011143)
(10.011 -6.93238e-07 0.0132064)
(10.0129 -8.45462e-07 0.013525)
(10.0142 -7.85573e-07 0.0135517)
(10.0154 -4.54743e-07 0.0134126)
(10.0164 2.97154e-07 0.013151)
(10.017 1.8027e-06 0.0128232)
(10.0174 5.22648e-06 0.0124775)
(10.0176 1.06685e-05 0.0121084)
(10.0177 1.76086e-05 0.0117519)
(10.0176 2.17984e-05 0.0114122)
(10.0175 2.44659e-05 0.0110889)
(10.0172 2.61592e-05 0.0107818)
(10.0169 2.22962e-05 0.0105059)
(10.0164 1.19419e-05 0.0102476)
(10.0159 -2.06523e-06 0.00998058)
(10.0153 -8.83433e-06 0.00971561)
(10.0147 -1.392e-05 0.00946629)
(10.014 -1.71224e-05 0.00923336)
(10.0133 -1.84104e-05 0.00900913)
(10.0125 -1.79754e-05 0.00879438)
(10.0117 -1.62528e-05 0.00852283)
(10.0109 -1.12307e-05 0.00835316)
(10.0094 -3.6174e-06 0.00734564)
(10.0012 3.72397e-08 0.00552157)
(10.006 -2.87673e-07 0.011143)
(10.011 -6.18149e-07 0.0132065)
(10.0129 -7.87348e-07 0.013525)
(10.0142 -6.76852e-07 0.0135517)
(10.0154 -3.29272e-07 0.0134125)
(10.0164 3.98175e-07 0.0131504)
(10.017 1.09497e-06 0.0128214)
(10.0174 1.8089e-06 0.0124728)
(10.0176 3.34139e-06 0.0120991)
(10.0177 5.39772e-06 0.0117331)
(10.0177 8.67162e-06 0.0113881)
(10.0175 1.41437e-05 0.0110612)
(10.0172 2.15248e-05 0.0107528)
(10.0169 3.24144e-05 0.0104827)
(10.0165 4.0072e-05 0.0102333)
(10.0159 3.66833e-05 0.009972)
(10.0154 2.47752e-05 0.00971495)
(10.0148 5.49704e-06 0.00947441)
(10.0141 -1.14142e-05 0.00924885)
(10.0134 -2.40314e-05 0.00903073)
(10.0126 -2.87318e-05 0.00881971)
(10.0118 -2.79111e-05 0.00854874)
(10.011 -2.27974e-05 0.00837508)
(10.0095 -1.21477e-05 0.00736051)
(10.0012 6.51745e-08 0.00552156)
(10.006 -2.68202e-07 0.011143)
(10.011 -6.42751e-07 0.0132065)
(10.0129 -8.7814e-07 0.0135249)
(10.0142 -8.48728e-07 0.0135515)
(10.0154 -5.97894e-07 0.0134121)
(10.0164 3.79889e-08 0.0131497)
(10.017 1.12965e-06 0.0128206)
(10.0174 2.01382e-06 0.0124729)
(10.0176 2.88717e-06 0.0121035)
(10.0177 4.86161e-06 0.011742)
(10.0176 8.14992e-06 0.0113909)
(10.0175 1.0828e-05 0.0110532)
(10.0172 1.25607e-05 0.0107403)
(10.0168 1.57983e-05 0.0104673)
(10.0164 1.65015e-05 0.0102132)
(10.0159 1.03318e-05 0.00995695)
(10.0154 -2.64446e-06 0.00971165)
(10.0148 -1.53455e-05 0.00948004)
(10.0141 -1.98598e-05 0.00925881)
(10.0134 -2.10353e-05 0.00903853)
(10.0127 -1.63646e-05 0.00882195)
(10.0118 -6.56995e-06 0.00854517)
(10.011 6.75622e-06 0.00836797)
(10.0095 1.02739e-05 0.00735512)
(10.0012 8.26762e-08 0.00552154)
(10.006 -2.96838e-07 0.011143)
(10.011 -7.72359e-07 0.0132064)
(10.0129 -1.16024e-06 0.0135248)
(10.0142 -1.36114e-06 0.0135514)
(10.0154 -1.39711e-06 0.013412)
(10.0164 -1.30554e-06 0.0131494)
(10.017 -9.64205e-07 0.0128192)
(10.0174 -8.96934e-07 0.0124697)
(10.0176 -4.34012e-07 0.0120944)
(10.0177 5.45557e-06 0.0117272)
(10.0177 1.25652e-05 0.011378)
(10.0175 1.67289e-05 0.0110469)
(10.0173 1.76777e-05 0.010742)
(10.0169 1.42692e-05 0.0104754)
(10.0164 1.12128e-05 0.0102287)
(10.0159 6.27529e-06 0.00997957)
(10.0154 -2.07328e-07 0.00973514)
(10.0148 -6.67518e-06 0.00949835)
(10.0141 -1.10336e-05 0.00927029)
(10.0134 -1.3989e-05 0.00904462)
(10.0126 -1.67103e-05 0.00882329)
(10.0118 -1.60607e-05 0.00854267)
(10.011 -1.29757e-05 0.00836315)
(10.0095 -6.26607e-06 0.00735101)
(10.0012 9.4162e-08 0.00552154)
(10.006 -3.44818e-07 0.011143)
(10.011 -9.61016e-07 0.0132064)
(10.0129 -1.52441e-06 0.0135248)
(10.0142 -2.01279e-06 0.0135513)
(10.0154 -2.55173e-06 0.0134119)
(10.0164 -3.5317e-06 0.0131494)
(10.017 -5.70214e-06 0.0128196)
(10.0174 -9.77681e-06 0.0124704)
(10.0176 -1.581e-05 0.0120978)
(10.0177 -2.04694e-05 0.0117283)
(10.0176 -1.96579e-05 0.0113698)
(10.0174 -1.47177e-05 0.0110319)
(10.0172 -5.49019e-06 0.0107264)
(10.0168 6.92952e-06 0.0104611)
(10.0164 1.81657e-05 0.0102149)
(10.0159 2.57996e-05 0.00996882)
(10.0154 3.14774e-05 0.00973127)
(10.0148 3.28315e-05 0.0095034)
(10.0142 2.61379e-05 0.00928341)
(10.0135 1.4024e-05 0.00906173)
(10.0127 -1.07533e-06 0.00884093)
(10.0118 -1.32644e-05 0.00855843)
(10.011 -2.01303e-05 0.00837505)
(10.0095 -1.71052e-05 0.00735788)
(10.0012 1.10848e-07 0.00552156)
(10.006 -3.85095e-07 0.011143)
(10.011 -1.12023e-06 0.0132065)
(10.0129 -1.81765e-06 0.0135248)
(10.0142 -2.50028e-06 0.0135514)
(10.0154 -3.21921e-06 0.013412)
(10.0164 -4.27452e-06 0.0131499)
(10.017 -6.28546e-06 0.0128216)
(10.0174 -8.92237e-06 0.0124761)
(10.0176 -1.32963e-05 0.0121085)
(10.0177 -1.86176e-05 0.0117461)
(10.0176 -2.07549e-05 0.0113903)
(10.0175 -2.05542e-05 0.0110492)
(10.0172 -1.22272e-05 0.0107349)
(10.0168 -3.26773e-06 0.0104606)
(10.0164 7.06976e-06 0.0102088)
(10.0159 1.74595e-05 0.00995882)
(10.0154 2.68504e-05 0.00971867)
(10.0148 3.42989e-05 0.00949118)
(10.0142 3.76067e-05 0.00927539)
(10.0134 3.43717e-05 0.00906147)
(10.0127 2.34486e-05 0.00884796)
(10.0118 1.32244e-05 0.008569)
(10.011 3.38202e-06 0.00838681)
(10.0095 -4.79385e-07 0.00736539)
(10.0012 1.31749e-07 0.00552156)
(10.006 -3.94689e-07 0.011143)
(10.011 -1.20051e-06 0.0132065)
(10.0129 -1.984e-06 0.0135249)
(10.0142 -2.72668e-06 0.0135514)
(10.0154 -3.41391e-06 0.0134121)
(10.0164 -4.12024e-06 0.01315)
(10.017 -5.24346e-06 0.0128218)
(10.0174 -6.0241e-06 0.0124748)
(10.0176 -7.87959e-06 0.0121086)
(10.0177 -9.36638e-06 0.0117448)
(10.0176 -1.1474e-05 0.0113885)
(10.0175 -1.39211e-05 0.0110446)
(10.0172 -1.53212e-05 0.0107285)
(10.0169 -1.26962e-05 0.0104557)
(10.0164 -1.2121e-06 0.0102043)
(10.0159 1.11064e-05 0.00995323)
(10.0154 2.28171e-05 0.00971195)
(10.0148 3.30323e-05 0.0094837)
(10.0142 4.02141e-05 0.00926766)
(10.0135 4.40131e-05 0.00905413)
(10.0127 4.3124e-05 0.00884031)
(10.0119 3.7275e-05 0.00856253)
(10.011 2.4245e-05 0.00838177)
(10.0095 1.31412e-05 0.00736124)
(10.0012 1.52682e-07 0.00552156)
(10.006 -3.57689e-07 0.011143)
(10.011 -1.19852e-06 0.0132065)
(10.0129 -2.00972e-06 0.0135249)
(10.0142 -2.73001e-06 0.0135515)
(10.0154 -3.27987e-06 0.0134122)
(10.0164 -3.5136e-06 0.0131502)
(10.017 -3.50485e-06 0.0128226)
(10.0174 -3.07909e-06 0.0124757)
(10.0176 -3.02775e-06 0.0121127)
(10.0177 -4.60105e-06 0.0117536)
(10.0177 -8.50146e-06 0.0114029)
(10.0175 -1.54472e-05 0.011063)
(10.0173 -2.2388e-05 0.0107444)
(10.0169 -2.01943e-05 0.0104627)
(10.0164 -9.98426e-06 0.0102023)
(10.0159 1.52175e-06 0.00994285)
(10.0154 1.28444e-05 0.00969526)
(10.0148 2.49161e-05 0.00946345)
(10.0141 3.41038e-05 0.00924608)
(10.0134 4.07597e-05 0.00903504)
(10.0127 4.61249e-05 0.00882851)
(10.0119 3.92905e-05 0.0085591)
(10.0111 2.67477e-05 0.00838412)
(10.0096 1.41243e-05 0.00736393)
(10.0012 1.73181e-07 0.00552157)
(10.006 -2.8184e-07 0.011143)
(10.011 -1.10382e-06 0.0132065)
(10.0129 -1.87765e-06 0.013525)
(10.0142 -2.49315e-06 0.0135516)
(10.0154 -2.62127e-06 0.0134123)
(10.0164 -2.01461e-06 0.0131504)
(10.017 3.66419e-07 0.0128227)
(10.0174 3.08314e-06 0.0124756)
(10.0176 6.10206e-06 0.0121129)
(10.0177 6.51891e-06 0.0117554)
(10.0177 3.82839e-06 0.0114074)
(10.0175 -1.38821e-06 0.0110701)
(10.0173 -7.50771e-06 0.0107527)
(10.0169 -1.31621e-05 0.0104696)
(10.0164 -1.75514e-05 0.0102058)
(10.0159 -1.52473e-05 0.00994252)
(10.0154 -9.46018e-06 0.00969124)
(10.0148 -3.78223e-07 0.00945574)
(10.0141 1.01987e-05 0.00923552)
(10.0134 1.96369e-05 0.00902336)
(10.0127 2.70663e-05 0.00881797)
(10.0119 3.29539e-05 0.00855122)
(10.0111 3.24472e-05 0.00837948)
(10.0096 2.03041e-05 0.00736207)
(10.0012 1.98348e-07 0.00552159)
(10.006 -1.5566e-07 0.0111431)
(10.011 -8.74422e-07 0.0132067)
(10.0129 -1.5552e-06 0.013525)
(10.0142 -2.03477e-06 0.0135518)
(10.0154 -1.8578e-06 0.0134125)
(10.0164 -3.14383e-07 0.0131507)
(10.017 3.75998e-06 0.0128218)
(10.0174 1.02884e-05 0.0124758)
(10.0176 1.61344e-05 0.0121078)
(10.0177 1.79836e-05 0.0117532)
(10.0177 1.63341e-05 0.0114101)
(10.0175 1.19285e-05 0.0110791)
(10.0173 5.06383e-06 0.0107669)
(10.0169 -5.49514e-06 0.0104841)
(10.0164 -1.9886e-05 0.0102162)
(10.0159 -3.08085e-05 0.00994956)
(10.0154 -3.24796e-05 0.00969387)
(10.0147 -2.36486e-05 0.00945312)
(10.0141 -1.10781e-05 0.00922829)
(10.0134 1.57303e-06 0.00901232)
(10.0126 1.31393e-05 0.00880533)
(10.0118 2.6157e-05 0.00853986)
(10.011 3.63613e-05 0.00837296)
(10.0095 2.80078e-05 0.00735966)
(10.0012 2.39688e-07 0.00552162)
(10.006 7.84318e-08 0.0111431)
(10.011 -3.94137e-07 0.0132068)
(10.0129 -1.01572e-06 0.013525)
(10.0142 -1.54785e-06 0.0135518)
(10.0154 -1.54163e-06 0.0134126)
(10.0164 -2.14047e-07 0.0131502)
(10.017 2.82801e-06 0.0128208)
(10.0174 8.43226e-06 0.0124709)
(10.0176 1.40086e-05 0.012098)
(10.0177 1.64736e-05 0.0117408)
(10.0177 1.65323e-05 0.0114002)
(10.0175 1.49841e-05 0.0110759)
(10.0173 1.20081e-05 0.0107739)
(10.0169 6.47635e-06 0.0105001)
(10.0165 -5.38294e-06 0.0102379)
(10.016 -1.82203e-05 0.00997233)
(10.0154 -2.47424e-05 0.00971117)
(10.0148 -2.07784e-05 0.00946326)
(10.0141 -1.33282e-05 0.00923082)
(10.0134 -4.93777e-06 0.00900697)
(10.0126 3.06586e-06 0.00879261)
(10.0118 1.15022e-05 0.00852219)