/*--------------------------------*- C++ -*----------------------------------*\
  =========                 |
  \\      /  F ield         | OpenFOAM: The Open Source CFD Toolbox
   \\    /   O peration     | Website:  https://openfoam.org
    \\  /    A nd           | Version:  12
     \\/     M anipulation  |
\*---------------------------------------------------------------------------*/
FoamFile
{
    format      ascii;
    class       surfaceScalarField;
    location    "19.04";
    object      phi;
}
// * * * * * * * * * * * * * * * * * * * * * * * * * * * * * * * * * * * * * //

dimensions      [1 0 -1 0 0 0 0];

internalField   nonuniform List<scalar> 
7429
(
0.000106351
-0.000106351
0.000219584
-0.000113233
0.000333741
-0.000114157
0.00044814
-0.000114399
0.000562432
-0.000114292
0.000676146
-0.000113715
0.000788817
-0.000112671
0.000900004
-0.000111187
0.00100928
-0.000109275
0.00111629
-0.000107015
0.00122072
-0.000104422
0.00132236
-0.00010164
0.00142111
-9.87544e-05
0.00151697
-9.58607e-05
0.00161007
-9.31019e-05
0.00170067
-9.0591e-05
0.00178911
-8.84435e-05
0.00187588
-8.67764e-05
0.00196156
-8.56744e-05
0.00204677
-8.52153e-05
0.00213222
-8.5441e-05
0.00221857
-8.6356e-05
0.00230656
-8.79908e-05
0.00239681
-9.02471e-05
0.00248989
-9.3082e-05
0.00258628
-9.63861e-05
0.00268627
-9.99895e-05
0.00279006
-0.000103793
0.00289769
-0.000107631
0.00300897
-0.000111277
0.00312358
-0.000114615
0.00324108
-0.000117501
0.00336085
-0.000119771
0.00348214
-0.000121285
0.00360401
-0.000121868
0.00372544
-0.000121435
0.00384532
-0.000119876
0.00396258
-0.000117261
0.00407644
-0.000113864
0.00418575
-0.000109307
0.00428898
-0.000103226
0.00438485
-9.58724e-05
0.00447113
-8.62819e-05
0.00454631
-7.51782e-05
0.00460819
-6.188e-05
0.00465544
-4.72564e-05
0.00468573
-3.02853e-05
0.00469687
-1.11406e-05
0.00468324
1.36268e-05
0.00464537
3.78673e-05
0.00458212
6.3259e-05
0.00449234
8.97778e-05
0.00437534
0.000117001
0.0042305
0.000144838
0.00405783
0.000172666
0.00385721
0.00020062
0.0036295
0.000227707
0.00337507
0.000254434
0.00309541
0.000279659
0.00279123
0.000304179
0.0024646
0.000326634
0.00211721
0.000347385
0.00175166
0.00036555
0.00137074
0.000380922
0.000977725
0.000393016
0.000576338
0.000401387
0.000170586
0.000405752
-0.000234985
0.000405571
-0.000635615
0.000400629
-0.00102638
0.00039076
-0.0014023
0.000375924
-0.00175804
0.000355743
-0.00208835
0.000330303
-0.00238815
0.000299807
-0.00265255
0.000264393
-0.00287673
0.000224186
-0.00305654
0.000179812
-0.00318833
0.000131782
-0.00326897
8.0642e-05
-0.00329686
2.78954e-05
-0.00326227
-3.45919e-05
-0.00316716
-9.51083e-05
-0.00301335
-0.000153813
-0.00280351
-0.000209838
-0.00254057
-0.000262945
-0.0022279
-0.000312669
-0.00187049
-0.000357406
-0.00147372
-0.000396777
-0.00104438
-0.000429334
-0.000590471
-0.000453913
-0.000120828
-0.000469644
0.000354826
-0.000475653
0.000825918
-0.000471092
0.00128188
-0.000455958
0.00171143
-0.000429553
0.00210378
-0.000392353
0.0024484
-0.000344614
0.00273535
-0.000286958
0.00295603
-0.00022068
0.00310285
-0.00014682
0.00317118
-6.83275e-05
0.00314988
2.12983e-05
0.003038
0.000111881
0.00283983
0.000198177
0.00256044
0.000279386
0.00220609
0.000354346
0.00178508
0.000421008
0.00130826
0.000476826
0.000788891
0.000519368
0.000242951
0.00054594
-0.000312443
0.000555394
-0.000858151
0.000545708
-0.00137537
0.000517217
-0.00184474
0.000469369
-0.002248
0.000403268
-0.00256899
0.000320988
-0.00279353
0.000224539
-0.0029109
0.000117372
-0.00291173
8.29329e-07
-0.00278593
-0.000125799
-0.00254382
-0.000242115
-0.00219487
-0.000348951
-0.00175175
-0.00044312
-0.00123166
-0.000520088
-0.000656199
-0.000575462
-5.13059e-05
-0.000604894
0.000553648
-0.000604954
0.00112946
-0.000575816
0.00164585
-0.000516389
0.00207502
-0.000429172
0.00239238
-0.00031736
0.00257859
-0.000186201
0.00262157
-4.29861e-05
0.00250138
0.000120193
0.00223189
0.000269487
0.0018287
0.000403194
0.00131236
0.000516338
0.000711673
0.000600686
6.2635e-05
0.000649038
-0.000594202
0.000656837
-0.00121436
0.000620158
-0.00175539
0.000541026
-0.00217799
0.000422609
-0.00245094
0.00027295
-0.00255222
0.000101276
-0.0024586
-9.36186e-05
-0.00218099
-0.000277615
-0.00174231
-0.000438677
-0.00117316
-0.000569149
-0.00051664
-0.000656522
0.00017389
-0.00069053
0.000839206
-0.000665317
0.00142072
-0.000581519
0.001865
-0.000444281
0.00212979
-0.000264785
0.00218915
-5.93582e-05
0.00201614
0.000173011
0.00163807
0.00037807
0.00109079
0.000547273
0.0004242
0.000666593
-0.000294939
0.00071914
-0.000989536
0.000694596
-0.0015849
0.000595366
-0.00201512
0.000430221
-0.00223271
0.000217586
-0.00220542
-2.72886e-05
-0.00193407
-0.000271353
-0.00146007
-0.000474
-0.000839586
-0.000620482
-0.000149948
-0.000689639
0.000518723
-0.000668671
0.00107808
-0.000559354
0.0014555
-0.000377429
0.00160395
-0.000148446
0.00149637
0.000107576
0.00116311
0.000333263
0.000659593
0.000503518
6.54346e-05
0.000594158
-0.000522946
0.000588381
-0.00100703
0.000484086
-0.0013102
0.000303167
-0.00138465
7.44552e-05
-0.00120694
-0.000177714
-0.000822773
-0.000384168
-0.000296622
-0.000526151
0.000279027
-0.000575649
0.000796658
-0.000517631
0.00116567
-0.000369014
0.00132062
-0.000154951
0.00122312
9.75006e-05
0.00090131
0.000321813
0.0004104
0.000490909
-0.00016253
0.00057293
-0.000708549
0.00054602
-0.00113108
0.000422528
-0.00135161
0.000220537
-0.00132374
-2.78775e-05
-0.00105358
-0.00027016
-0.000584755
-0.000468821
-0.000584756
0.000210692
-0.000317043
0.00043849
-0.000341031
0.000667837
-0.000343503
0.000897629
-0.000344192
0.00112685
-0.000343515
0.00135466
-0.000341527
0.00157993
-0.000337941
0.00180168
-0.000332936
0.00201871
-0.000326306
0.00223002
-0.00031832
0.00243456
-0.00030896
0.00263183
-0.000298908
0.00282189
-0.000288815
0.0030053
-0.000279279
0.00318084
-0.000268633
0.0033473
-0.000257053
0.00350419
-0.000245333
0.00365156
-0.000234154
0.00378986
-0.00022397
0.00391981
-0.000215162
0.00404228
-0.000207914
0.00415837
-0.000202445
0.00426912
-0.000198743
0.00437569
-0.000196814
0.00447893
-0.000196329
0.0045798
-0.000197254
0.00467861
-0.000198795
0.00477569
-0.000200875
0.00487048
-0.000202422
0.00496237
-0.000203161
0.00505235
-0.000204594
0.00514166
-0.000206818
0.00523087
-0.000208982
0.00532002
-0.000210433
0.00540888
-0.000210725
0.00549677
-0.000209325
0.0055827
-0.000205807
0.00566554
-0.000200106
0.00574344
-0.000191764
0.00581482
-0.000180681
0.00587816
-0.000166573
0.00593153
-0.000149237
0.00597384
-0.000128595
0.00600343
-0.000104765
0.00601878
-7.72341e-05
0.00601797
-4.64485e-05
0.00599833
-1.06438e-05
0.00594828
3.89098e-05
0.00587496
8.69449e-05
0.0057762
0.000136625
0.0056512
0.000188261
0.0054994
0.000241577
0.00532039
0.000296014
0.00511379
0.000351436
0.00487959
0.000406866
0.00461799
0.000462217
0.00432948
0.000516216
0.00401477
0.000569141
0.00367489
0.000619542
0.00331103
0.00066804
0.00292492
0.000712743
0.00251849
0.000753815
0.00209432
0.000789714
0.00165562
0.000819627
0.00120576
0.000842875
0.000748691
0.000858456
0.000288877
0.000865566
-0.000168869
0.000863317
-0.000619474
0.000851234
-0.00105751
0.000828794
-0.00147791
0.00079633
-0.00187461
0.000752438
-0.00224229
0.000697985
-0.00257534
0.000632855
-0.00286871
0.000557761
-0.00311685
0.000472328
-0.00331545
0.000378416
-0.00346035
0.000276676
-0.00354872
0.000169016
-0.00357769
5.68655e-05
-0.00353961
-7.26749e-05
-0.00343669
-0.000198025
-0.00327122
-0.000319287
-0.00304442
-0.000436632
-0.00275904
-0.000548331
-0.00241921
-0.000652502
-0.00202966
-0.000746948
-0.001597
-0.000829443
-0.00112862
-0.000897714
-0.000633299
-0.000949232
-0.000120954
-0.000981989
0.000397673
-0.00099428
0.000911022
-0.000984442
0.00140741
-0.000952345
0.00187469
-0.000896838
0.002301
-0.00081866
0.00267472
-0.000718329
0.0029852
-0.000597444
0.0032226
-0.000458082
0.00337923
-0.000303446
0.00344914
-0.000138234
0.00342175
4.86823e-05
0.00329844
0.000235193
0.00308211
0.000414507
0.00277721
0.000584288
0.00238983
0.000741719
0.00192952
0.000881326
0.00140807
0.000998276
0.000841333
0.0010861
0.000245759
0.00114151
-0.000359474
0.00116063
-0.00095346
0.00113969
-0.00151589
0.00107965
-0.00202503
0.0009785
-0.00246194
0.000840177
-0.00280736
0.000666408
-0.00304734
0.000464527
-0.00317045
0.00024048
-0.00316406
-5.56702e-06
-0.00302418
-0.000265679
-0.00275893
-0.000507357
-0.00237662
-0.000731269
-0.00189166
-0.000928074
-0.00132193
-0.00108982
-0.000693299
-0.00120409
-3.23702e-05
-0.00126582
0.00062813
-0.00126545
0.00125564
-0.00120333
0.00181718
-0.00107793
0.00228266
-0.000894652
0.00262489
-0.000659591
0.00282399
-0.000385299
0.00286388
-8.2872e-05
0.00273096
0.000253114
0.00243714
0.000563306
0.00199658
0.00084375
0.00143216
0.00108076
0.000775807
0.00125704
6.72731e-05
0.00135757
-0.000648441
0.00137255
-0.00132251
0.00129423
-0.00190961
0.00112812
-0.00236683
0.000879833
-0.00265956
0.000565677
-0.00276244
0.000204161
-0.00265616
-0.000199904
-0.00235331
-0.000580466
-0.00187321
-0.00091877
-0.00125115
-0.00119122
-0.000535376
-0.00137229
0.000218733
-0.00144464
0.000943258
-0.00138984
0.00157487
-0.00121313
0.00205565
-0.00092506
0.00233888
-0.000548012
0.00239641
-0.000116887
0.00220654
0.000362879
0.00179477
0.000789838
0.00119774
0.0011443
0.000472316
0.00139202
-0.000308533
0.00149999
-0.00106051
0.00144657
-0.00170229
0.00123715
-0.00216312
0.000891045
-0.00238931
0.000443778
-0.00234873
-6.78674e-05
-0.00204876
-0.000571326
-0.00152824
-0.000994522
-0.000850173
-0.00129855
-9.99939e-05
-0.00143982
0.000621139
-0.0013898
0.00121902
-0.00115723
0.00161655
-0.000774958
0.00176303
-0.000294932
0.00163292
0.000237686
0.0012596
0.000706588
0.000702165
0.00106095
4.89472e-05
0.00124738
-0.000588455
0.00122578
-0.00110993
0.00100556
-0.00143165
0.000624886
-0.00150415
0.000146958
-0.00130709
-0.000374776
-0.000887179
-0.000804079
-0.000316558
-0.00109677
0.00030367
-0.00119588
0.000857886
-0.00107185
0.00124967
-0.000760797
0.00140997
-0.000315257
0.00130425
0.00020323
0.000960586
0.000665472
0.000439345
0.00101215
-0.000165573
0.00117785
-0.000739003
0.00111945
-0.00117991
0.000863432
-0.00140784
0.000448466
-0.0013775
-5.82182e-05
-0.00109532
-0.000552335
-0.000607465
-0.000956677
-0.00119222
0.000132717
-0.000449759
0.00027105
-0.000479364
0.000405498
-0.000477951
0.000533373
-0.000472067
0.000651235
-0.000461376
0.000757063
-0.000447354
0.000847706
-0.000428584
0.000923912
-0.000409142
0.000984297
-0.00038669
0.00102601
-0.000360038
0.00104577
-0.000328718
0.00104347
-0.000296606
0.00101856
-0.000263899
0.000972139
-0.000232862
0.00090759
-0.000204084
0.000829688
-0.000179151
0.000742555
-0.000158199
0.000651046
-0.000142645
0.00055897
-0.000131894
0.000471238
-0.000127429
0.000392206
-0.000128883
0.000326597
-0.000136835
0.000278066
-0.000150213
0.000250512
-0.000169261
0.000246327
-0.000192144
0.000268089
-0.000219017
0.00031613
-0.000246835
0.000391759
-0.000276505
0.000493958
-0.000304621
0.0006229
-0.000332103
0.000775125
-0.00035682
0.000947658
-0.000379352
0.00113689
-0.000398212
0.0013395
-0.000413047
0.00155206
-0.000423281
0.00177513
-0.000432398
0.00200796
-0.000438637
0.00224845
-0.0004406
0.00249317
-0.000436481
0.0027387
-0.000426208
0.00298262
-0.0004105
0.00321968
-0.000386297
0.00344758
-0.000356487
0.00366006
-0.000317254
0.00385717
-0.000274345
0.00403025
-0.000219519
0.00417795
-0.000158353
0.00430698
-9.01185e-05
0.004407
-1.30774e-05
0.00447194
7.16856e-05
0.00450024
0.000159959
0.00449007
0.000251749
0.00444008
0.000346011
0.00434942
0.000442095
0.00421752
0.00053876
0.00404431
0.000635429
0.00382981
0.000730716
0.00357456
0.000824388
0.00327931
0.000914797
0.00294618
0.00100116
0.0025775
0.00108143
0.0021767
0.00115462
0.00174741
0.001219
0.00129411
0.00127293
0.000821416
0.00131557
0.00033477
0.0013451
-0.000160433
0.00136077
-0.000658051
0.00136093
-0.00115153
0.00134471
-0.00163408
0.00131134
-0.00209892
0.00126116
-0.00253901
0.00119253
-0.00294699
0.00110597
-0.00331654
0.00100241
-0.00364032
0.000881535
-0.00391273
0.000744745
-0.00412773
0.00059341
-0.0042807
0.000429645
-0.00436587
0.000254186
-0.00438235
7.3346e-05
-0.00431898
-0.000136049
-0.00418157
-0.000335428
-0.00397066
-0.000530196
-0.00368818
-0.000719118
-0.00333714
-0.000899369
-0.00292133
-0.00106831
-0.00244709
-0.0012212
-0.0019218
-0.00135473
-0.00135514
-0.00146438
-0.00075738
-0.00154699
-0.000140577
-0.00159879
0.000483148
-0.00161801
0.00109941
-0.00160071
0.00169427
-0.00154721
0.00225346
-0.00145602
0.00276242
-0.00132762
0.00320767
-0.00116357
0.00357593
-0.000965707
0.00385567
-0.000737826
0.00403921
-0.00048698
0.00411666
-0.000215689
0.00407856
8.67842e-05
0.00392792
0.000385834
0.0036668
0.000675625
0.00329904
0.000952046
0.00283281
0.00120795
0.00227945
0.00143469
0.00165376
0.00162396
0.000973907
0.00176595
0.000260161
0.00185526
-0.000463595
0.00188438
-0.00117282
0.00184892
-0.00184309
0.00174993
-0.00244853
0.00158394
-0.00296646
0.0013581
-0.00337493
0.00107488
-0.00365582
0.000745418
-0.00379426
0.000378924
-0.00377662
-2.32061e-05
-0.00360411
-0.000438197
-0.00328176
-0.000829707
-0.00281947
-0.00119356
-0.00223326
-0.00151428
-0.00154703
-0.00177604
-0.000789887
-0.00196124
1.65843e-06
-0.00205737
0.000792647
-0.00205644
0.0015417
-0.00195238
0.00221125
-0.00174748
0.00276417
-0.00144758
0.00316824
-0.00106366
0.00339762
-0.000614683
0.00343968
-0.00012493
0.00327477
0.000418026
0.00291864
0.000919437
0.00238663
0.00137575
0.00170831
0.00175908
0.000920065
0.00204528
7.00701e-05
0.00220757
-0.000784174
0.00222679
-0.0015879
0.00209795
-0.002285
0.00182522
-0.00282508
0.00141991
-0.0031666
0.000907189
-0.00328028
0.000317844
-0.00314679
-0.000333392
-0.00277901
-0.000948249
-0.00220058
-0.0014972
-0.00145262
-0.00193918
-0.000592016
-0.0022329
0.000308176
-0.00234483
0.00117195
-0.00225362
0.00192296
-0.00196414
0.00249163
-0.00149372
0.0028223
-0.000878687
0.00287984
-0.00017443
0.00264897
0.000593752
0.0021544
0.00128441
0.00143829
0.0018604
0.000571387
0.00225893
-0.000358607
0.00242998
-0.00125045
0.00233841
-0.00200645
0.00199315
-0.00254236
0.00142695
-0.00279858
0.000700004
-0.00273476
-0.00013169
-0.00236658
-0.000939506
-0.00173642
-0.00162468
-0.000921924
-0.00211304
-2.41294e-05
-0.00233761
0.000823945
-0.00223788
0.00152292
-0.0018562
0.00197731
-0.00122935
0.00212814
-0.000445763
0.00195275
0.00041308
0.00148939
0.00116994
0.000811007
0.00173934
2.34902e-05
0.00203489
-0.000733843
0.00198312
-0.00134761
0.00161932
-0.00171793
0.000995211
-0.00178872
0.00021775
-0.00154655
-0.000616945
-0.0010418
-0.00130883
-0.000364405
-0.00177417
0.00036642
-0.0019267
0.0010129
-0.00171832
0.00146462
-0.00121252
0.0016423
-0.000492946
0.00151414
0.000331391
0.00111214
0.00106748
0.000509163
0.00161513
-0.00018454
0.00187155
-0.000836222
0.00177113
-0.00133371
0.00136092
-0.00158748
0.000702242
-0.0015499
-9.5804e-05
-0.00122985
-0.000872386
-0.000681211
-0.00150531
-0.00187343
0.00035977
-0.000809529
0.000743152
-0.000862745
0.00113169
-0.00086649
0.00152436
-0.000864735
0.00191802
-0.000855037
0.00231282
-0.000842149
0.00270084
-0.000816608
0.00307929
-0.000787593
0.003435
-0.000742403
0.00376284
-0.000687869
0.00404875
-0.000614629
0.00428975
-0.000537612
0.00448335
-0.000457499
0.00463272
-0.00038223
0.00473908
-0.000310448
0.00480623
-0.000246293
0.00483837
-0.000190347
0.00484083
-0.000145099
0.00481882
-0.000109889
0.00478003
-8.86321e-05
0.0047299
-7.87515e-05
0.00467359
-8.05263e-05
0.00461443
-9.1053e-05
0.00455882
-0.000113658
0.00451081
-0.000144126
0.00448441
-0.000192625
0.00448209
-0.000244516
0.00451052
-0.000304926
0.0045571
-0.000351207
0.00462135
-0.000396351
0.00470188
-0.000437353
0.0048026
-0.000480067
0.00492201
-0.000517626
0.00506015
-0.000551188
0.00521502
-0.000578153
0.00538115
-0.000598528
0.00555382
-0.000611306
0.00572909
-0.000615867
0.00590426
-0.000611649
0.00607612
-0.000598076
0.00624036
-0.000574736
0.00639515
-0.000541086
0.00653558
-0.000496916
0.00665994
-0.00044162
0.006763
-0.000377398
0.00684519
-0.000301715
0.00690354
-0.000216697
0.00693669
-0.000123271
0.006927
-3.39309e-06
0.00687122
0.000127473
0.00677471
0.000256467
0.00663795
0.000388504
0.00646078
0.000523182
0.006242
0.000660879
0.00598074
0.000800017
0.00567659
0.00093958
0.00532976
0.00107754
0.00494053
0.00121362
0.00451
0.00134533
0.00404016
0.001471
0.00353337
0.00158822
0.00299303
0.00169496
0.00242324
0.0017888
0.00182898
0.00186718
0.00121548
0.00192908
0.000588805
0.00197177
-4.41917e-05
0.00199377
-0.00067658
0.00199332
-0.00130056
0.0019687
-0.00190784
0.00191862
-0.00249063
0.00184395
-0.00304051
0.00174241
-0.00354887
0.00161433
-0.00400806
0.0014616
-0.00440992
0.00128339
-0.00474615
0.00108097
-0.00501045
0.000857717
-0.0051975
0.000616695
-0.00530252
0.000359199
-0.00531936
9.01924e-05
-0.00524245
-0.000212958
-0.00507587
-0.00050201
-0.0048191
-0.000786971
-0.00447423
-0.00106398
-0.00404429
-0.00132931
-0.00353523
-0.00157737
-0.00295479
-0.00180164
-0.00231305
-0.00199647
-0.00162022
-0.0021572
-0.000890224
-0.00227698
-0.000136748
-0.00235227
0.000622906
-0.00237766
0.00137289
-0.00235069
0.00209672
-0.00227103
0.00277567
-0.00213498
0.00339263
-0.00194458
0.00393115
-0.00170209
0.00437467
-0.00140923
0.00471022
-0.00107338
0.00492704
-0.000703808
0.00501077
-0.000299416
0.00495904
0.000138511
0.00477078
0.000574102
0.00444799
0.000998414
0.00399503
0.00140501
0.00342183
0.00178114
0.00274236
0.00211416
0.00197628
0.00239005
0.00114486
0.00259737
0.000275815
0.00272431
-0.000606558
0.00276675
-0.00147019
0.00271254
-0.00228464
0.00256438
-0.00301782
0.00231712
-0.00364233
0.0019826
-0.0041328
0.00156535
-0.00446686
0.00107948
-0.00462395
0.000536022
-0.00459326
-5.3898e-05
-0.00437695
-0.000654508
-0.00397723
-0.00122942
-0.00340641
-0.00176439
-0.00268584
-0.00223485
-0.0018455
-0.00261638
-0.000919979
-0.00288676
4.90148e-05
-0.00302636
0.00101359
-0.00302102
0.00192526
-0.00286405
0.00273848
-0.00256071
0.0034075
-0.00211659
0.00389323
-0.00154938
0.00416349
-0.000884943
0.00420278
-0.000164221
0.0039964
0.000624403
0.00355616
0.00135968
0.00290242
0.0020295
0.00206922
0.00259227
0.00110559
0.00300892
6.98355e-05
0.00324332
-0.000970753
0.00326738
-0.00194705
0.00307425
-0.00279162
0.00266979
-0.00344259
0.00207088
-0.00384666
0.00131126
-0.00397733
0.000448515
-0.00380608
-0.000504639
-0.00335092
-0.00140341
-0.00263843
-0.00220969
-0.00172283
-0.00285478
-0.000671787
-0.00328395
0.000426835
-0.00344345
0.001477
-0.00330378
0.00238675
-0.00287389
0.00307186
-0.00217884
0.00346632
-0.00127315
0.00352371
-0.000231821
0.00323586
0.000881611
0.00262637
0.00189389
0.00175056
0.00273622
0.000693823
0.00331566
-0.000435724
0.00355953
-0.00151391
0.0034166
-0.00242334
0.00290258
-0.0030622
0.00206581
-0.00335284
0.000990644
-0.00325853
-0.000225998
-0.00279644
-0.0014016
-0.00201905
-0.00240207
-0.00102493
-0.00310717
5.82867e-05
-0.00342083
0.00108825
-0.00326784
0.00192308
-0.00269104
0.00245321
-0.00175948
0.00260912
-0.000601673
0.00237372
0.000648475
0.00179127
0.00175239
0.00095301
0.0025776
-5.97898e-06
0.00299388
-0.000928276
0.00290541
-0.00166392
0.00235497
-0.00210125
0.00143254
-0.00216709
0.000283589
-0.00186168
-0.000922347
-0.00124295
-0.00192757
-0.000422263
-0.00259485
0.00045468
-0.00280364
0.0012234
-0.00248705
0.00175015
-0.00173926
0.00195123
-0.000694034
0.00179093
0.000491695
0.00130876
0.00154965
0.000596688
0.0023272
-0.000215503
0.00268374
-0.000971177
0.00252681
-0.00154213
0.00193187
-0.00182803
0.000988141
-0.00178019
-0.000143651
-0.00140945
-0.00124312
-0.00077948
-0.00213528
-0.00265291
0.000601773
-0.0014113
0.00123284
-0.00149381
0.00186093
-0.00149459
0.00248129
-0.00148509
0.00308357
-0.00145732
0.00366965
-0.00142823
0.00417149
-0.00131845
0.00455144
-0.00116754
0.00470746
-0.000898423
0.00466982
-0.000650236
0.00445356
-0.000398369
0.00410004
-0.00018409
0.00360144
4.1101e-05
0.00305432
0.000164895
0.00246897
0.000274901
0.00186011
0.000362564
0.00124247
0.000427299
0.000629251
0.000468117
3.40912e-05
0.00048527
-0.000530758
0.000476217
-0.0010548
0.000445289
-0.00152072
0.000385391
-0.00191658
0.000304814
-0.00223235
0.000202111
-0.00246711
9.06272e-05
-0.0025295
-0.000130235
-0.00246759
-0.000306423
-0.00228362
-0.000488899
-0.00203048
-0.000604345
-0.00172277
-0.000704059
-0.00138471
-0.000775413
-0.00101961
-0.00084517
-0.000626467
-0.000910768
-0.000206597
-0.000971057
0.000237747
-0.0010225
0.000702255
-0.00106304
0.00118216
-0.00109121
0.00167188
-0.00110558
0.00216572
-0.00110549
0.00265868
-0.00109103
0.00314109
-0.00105714
0.00361076
-0.00101076
0.00405433
-0.000940488
0.00447145
-0.00085874
0.00485614
-0.000762089
0.00519952
-0.000645094
0.00549319
-0.000510366
0.00573245
-0.000362529
0.0059292
-0.00020014
0.0060805
-2.38316e-05
0.00617243
0.000164535
0.00620267
0.000358267
0.00616786
0.000557987
0.00606774
0.000760997
0.0059012
0.00096656
0.00566817
0.00117261
0.00536947
0.00137624
0.00500699
0.0015761
0.00458413
0.00176819
0.00410348
0.00195165
0.00356991
0.00212179
0.00298816
0.00227671
0.0023644
0.00241255
0.00170482
0.00252676
0.00101627
0.00261762
0.000307394
0.00268065
-0.000414048
0.00271521
-0.0011382
0.00271747
-0.00185565
0.00268614
-0.00255643
0.00261941
-0.00323094
0.00251845
-0.0038672
0.00237867
-0.00445624
0.00220337
-0.00498718
0.00199254
-0.00545073
0.00174694
-0.00583756
0.0014678
-0.0061397
0.00115986
-0.00634817
0.000825164
-0.00645815
0.000469177
-0.00646123
9.32771e-05
-0.00635598
-0.000318205
-0.00614341
-0.000714585
-0.00582374
-0.00110664
-0.00539885
-0.00148888
-0.00487254
-0.00185561
-0.00425222
-0.00219769
-0.00354683
-0.00250704
-0.00276855
-0.00277475
-0.00193008
-0.00299568
-0.00104815
-0.00315892
-0.000139407
-0.00326101
0.000776207
-0.00329327
0.00167925
-0.00325373
0.00254965
-0.00314144
0.00336487
-0.0029502
0.00410453
-0.00268424
0.00474813
-0.00234568
0.0052757
-0.00193679
0.00567307
-0.00147075
0.00592572
-0.000956459
0.00602198
-0.000395682
0.00595317
0.000207323
0.005722
0.000805273
0.00532748
0.00139294
0.00477622
0.00195626
0.00408176
0.00247561
0.00326106
0.00293486
0.00233528
0.00331582
0.00133258
0.00360007
0.000282248
0.00377464
-0.000778055
0.00382706
-0.00181415
0.00374864
-0.00278835
0.00353858
-0.00366798
0.00319676
-0.00441252
0.00272714
-0.00499282
0.00214564
-0.00538238
0.00146904
-0.0055639
0.000717544
-0.00551774
-0.000100062
-0.00524881
-0.000923439
-0.00475952
-0.00171871
-0.00406586
-0.00245804
-0.00319293
-0.00310778
-0.0021737
-0.00363561
-0.00105755
-0.00400291
0.000108949
-0.00419287
0.00126851
-0.00418058
0.00236456
-0.00396009
0.00333754
-0.0035337
0.00413492
-0.00291396
0.00471069
-0.00212516
0.00502931
-0.00120356
0.0050622
-0.000197111
0.00480698
0.000879621
0.00427047
0.00189618
0.00347863
0.00282134
0.0024697
0.00360121
0.00130764
0.00417097
6.1058e-05
0.0044899
-0.00118959
0.00451803
-0.00236034
0.00424499
-0.00336888
0.00367834
-0.00414174
0.00284374
-0.00461916
0.00178867
-0.00476082
0.000590174
-0.00454759
-0.000717862
-0.00399179
-0.00195922
-0.00312839
-0.00307309
-0.00202027
-0.00396289
-0.00075689
-0.00454732
0.000563876
-0.00476422
0.00182346
-0.00456337
0.00291083
-0.00396126
0.00372253
-0.00299054
0.00418564
-0.00173626
0.0042475
-0.000293688
0.00389263
0.00123649
0.00315128
0.00263524
0.00209409
0.0037934
0.000821421
0.00458834
-0.000532173
0.00491312
-0.00182005
0.00470448
-0.0029
0.00398253
-0.00364807
0.00281388
-0.00398187
0.00132444
-0.00385199
-0.000355878
-0.00328052
-0.00197307
-0.00233519
-0.00334741
-0.00113395
-0.00430841
0.000167522
-0.0047223
0.00139214
-0.00449246
0.0023762
-0.00367509
0.0029879
-0.00237119
0.00314999
-0.000763768
0.00284242
0.000956049
0.00212169
0.00247312
0.00110307
0.00359622
-5.28605e-05
0.00414981
-0.00115433
0.00400688
-0.00202633
0.00322697
-0.00252839
0.0019346
-0.00259128
0.000346474
-0.00220973
-0.0013039
-0.00146064
-0.00267665
-0.000478317
-0.00357718
0.000559646
-0.00384161
0.00146052
-0.00338793
0.0020739
-0.00235263
0.00229259
-0.000912726
0.00209277
0.000691513
0.00152033
0.00212209
0.000685438
0.00316209
-0.000255576
0.00362476
-0.00112348
0.00339471
-0.00177245
0.00258085
-0.00209128
0.00130696
-0.0020303
-0.000204624
-0.00160356
-0.00166986
-0.000885162
-0.00285368
-0.00353807
0.000492349
-0.00190365
0.00100953
-0.00201099
0.00158843
-0.00207348
0.00226788
-0.00216454
0.00307971
-0.00226915
0.00405883
-0.00240735
0.00510537
-0.00236498
0.00615428
-0.00221646
0.00695676
-0.0017009
0.00764873
-0.00134221
0.00813956
-0.000889193
0.00841568
-0.000460216
0.00852944
-7.26562e-05
0.00840877
0.000285567
0.00806522
0.000618446
0.00755968
0.000868106
0.00693956
0.00104742
0.00625154
0.00115614
0.00553024
0.00120657
0.00481754
0.00118892
0.00414614
0.00111669
0.00355388
0.000977654
0.00305354
0.000805152
0.00269116
0.000564492
0.00246714
0.000314646
0.0023393
-2.38924e-06
0.00221918
-0.000186301
0.00223636
-0.000506079
0.00225727
-0.000625262
0.00238045
-0.00082724
0.00255849
-0.000953449
0.00280756
-0.00109424
0.00310434
-0.00120755
0.00344194
-0.00130866
0.00380986
-0.00139042
0.00419942
-0.00145259
0.00460289
-0.00149468
0.00501287
-0.00151557
0.00542255
-0.00151517
0.00582364
-0.00149212
0.00621447
-0.00144797
0.00658426
-0.00138055
0.0069343
-0.00129053
0.00725362
-0.00117806
0.00753565
-0.00104412
0.00777917
-0.000888616
0.00798135
-0.000712548
0.00813708
-0.000518262
0.00824401
-0.000307067
0.0082914
-7.12238e-05
0.00826024
0.000195697
0.00816768
0.000450823
0.00801263
0.000713041
0.0077931
0.000980523
0.00750732
0.00125235
0.00715431
0.00152561
0.00673424
0.00179631
0.00624769
0.00206265
0.00569717
0.00231871
0.00508524
0.00256359
0.00441697
0.00279005
0.00369725
0.00299643
0.00293226
0.00317754
0.00212957
0.00332945
0.0012972
0.00344999
0.000443641
0.00353421
-0.000420955
0.0035798
-0.0012865
0.00358302
-0.0021415
0.00354115
-0.00297441
0.00345232
-0.00377347
0.00331751
-0.00452796
0.00313316
-0.00522326
0.00289867
-0.0058486
0.00261788
-0.00639472
0.00229306
-0.00684926
0.00192233
-0.00720026
0.00151086
-0.00744006
0.00106496
-0.00756133
0.000590453
-0.0075652
9.71452e-05
-0.00744093
-0.000442479
-0.00719016
-0.00096535
-0.00681202
-0.00148478
-0.00630929
-0.00199161
-0.00568811
-0.0024768
-0.00495603
-0.00292977
-0.00412568
-0.00333738
-0.00320877
-0.00369166
-0.002224
-0.00398045
-0.00118708
-0.00419584
-0.000120553
-0.00432753
0.000953478
-0.00436731
0.00201192
-0.00431218
0.00303014
-0.00415966
0.00398302
-0.00390308
0.00484607
-0.00354729
0.00559453
-0.00309415
0.00620733
-0.00254959
0.00666857
-0.00193199
0.00695331
-0.0012412
0.0070615
-0.000503871
0.00697422
0.0002946
0.0066949
0.00108459
0.00622408
0.00186376
0.00557128
0.00260906
0.00474996
0.00329693
0.00378094
0.00390388
0.00269338
0.00440338
0.00151565
0.0047778
0.000284149
0.00500614
-0.000959788
0.00507099
-0.00217274
0.0049616
-0.00331371
0.00467954
-0.004336
0.00421905
-0.00520502
0.00359616
-0.00587897
0.00281959
-0.0063267
0.00191677
-0.00653342
0.000924262
-0.00646959
-0.000163896
-0.00614479
-0.00124824
-0.00556171
-0.00230179
-0.00473886
-0.00328089
-0.00370603
-0.00414061
-0.00250767
-0.00483397
-0.00119134
-0.00531925
0.000178367
-0.00556257
0.00153743
-0.00553964
0.00282083
-0.0052435
0.00395751
-0.00467038
0.00488533
-0.00384178
0.00555168
-0.00279151
0.0059189
-0.00157078
0.00594415
-0.000222364
0.00563706
0.00118671
0.0050004
0.00253284
0.00406251
0.00375923
0.00287739
0.00478633
0.00150982
0.00553854
4.40022e-05
0.00595572
-0.00142236
0.0059844
-0.00279182
0.00561445
-0.00396826
0.00485478
-0.00486612
0.0037416
-0.00541892
0.00234147
-0.00556765
0.000738902
-0.00530901
-0.000976494
-0.0046473
-0.00262093
-0.00362708
-0.00409331
-0.00232066
-0.00526932
-0.000833945
-0.00603404
0.000712464
-0.00631063
0.0021856
-0.0060365
0.0034536
-0.00522926
0.00439914
-0.00393608
0.00492735
-0.00226447
0.00498621
-0.000352546
0.00455927
0.00166342
0.00368293
0.00351159
0.00243644
0.00503988
0.000943087
0.00608169
-0.00064232
0.00649853
-0.00214403
0.00620619
-0.00339721
0.0052357
-0.0042614
0.00367807
-0.00462725
0.0016903
-0.00445784
-0.000525295
-0.00377101
-0.00265989
-0.00264927
-0.00446915
-0.00123587
-0.00572182
0.000286369
-0.00624453
0.00171042
-0.00591652
0.00284488
-0.00480955
0.00354018
-0.00306648
0.00370018
-0.000923775
0.00331582
0.00134041
0.00245006
0.00333888
0.0012436
0.00480268
-0.000113274
0.00550669
-0.00139628
0.00528988
-0.00240043
0.00423112
-0.00297084
0.00250501
-0.00301843
0.000394057
-0.0025583
-0.00176402
-0.00167271
-0.00356224
-0.000527247
-0.00472264
0.000674045
-0.0050429
0.00170731
-0.00442119
0.00239732
-0.00304265
0.0026346
-0.00115001
0.00239229
0.000933827
0.00172521
0.00278917
0.000768595
0.0041187
-0.000300238
0.00469359
-0.00127771
0.00437218
-0.00200097
0.00330411
-0.00235046
0.00165645
-0.00227376
-0.000281328
-0.00179035
-0.00215327
-0.000986541
-0.00365749
-0.00452461
0.00116757
-0.00307122
0.0024297
-0.00327312
0.00396382
-0.0036076
0.00600406
-0.00420478
0.00879724
-0.00506234
0.012396
-0.00600614
0.01626
-0.00622893
0.0193647
-0.00532122
0.0197064
-0.00204253
0.0181995
0.000164661
0.015986
0.00132433
0.0135659
0.00195992
0.0111328
0.00236039
0.0087734
0.00264497
0.00652848
0.00286336
0.00438385
0.00301274
0.0023425
0.00308877
0.00040819
0.00309045
-0.00140423
0.00301899
-0.00309421
0.0028789
-0.00465888
0.00268136
-0.00602911
0.00234788
-0.00718884
0.00196488
-0.00807081
0.00144647
-0.00866609
0.000909921
-0.00888454
0.000216061
-0.00844168
-0.000629161
-0.00727114
-0.00167662
-0.00609773
-0.00179867
-0.00499074
-0.00193423
-0.00401646
-0.00192772
-0.0031147
-0.001996
-0.00225492
-0.00206734
-0.00141984
-0.00214374
-0.000597006
-0.00221325
0.000217009
-0.00226661
0.00102531
-0.00230298
0.00182379
-0.00231404
0.00261311
-0.0023045
0.00338361
-0.00226262
0.00412452
-0.00218889
0.00482569
-0.00208172
0.00548386
-0.0019487
0.00609018
-0.00178439
0.00663857
-0.0015925
0.00712172
-0.00137177
0.00753544
-0.00112627
0.00787321
-0.00085603
0.00812891
-0.000562767
0.00830806
-0.000250368
0.00842387
7.98803e-05
0.00845109
0.000423604
0.00838769
0.000776443
0.00823301
0.0011352
0.00798835
0.001497
0.00765418