/*--------------------------------*- C++ -*----------------------------------*\
  =========                 |
  \\      /  F ield         | OpenFOAM: The Open Source CFD Toolbox
   \\    /   O peration     | Website:  https://openfoam.org
    \\  /    A nd           | Version:  12
     \\/     M anipulation  |
\*---------------------------------------------------------------------------*/
FoamFile
{
    format      ascii;
    class       volScalarField;
    location    "2000";
    object      epsilon;
}
// * * * * * * * * * * * * * * * * * * * * * * * * * * * * * * * * * * * * * //

dimensions      [0 2 -3 0 0 0 0];

internalField   nonuniform List<scalar> 
80
(
337.298
132.417
75.4383
51.2571
38.2009
30.0691
24.5114
20.4595
17.3631
14.9115
12.9168
11.2589
9.85794
8.65857
7.62152
6.7181
5.92692
5.23166
4.61961
4.08066
3.60654
3.19035
2.82613
2.50859
2.23298
1.99489
1.79023
1.61519
1.46625
1.34016
1.23401
1.1452
1.07146
1.01082
0.961668
0.922634
0.89264
0.870848
0.85665
0.849649
0.849649
0.856651
0.87085
0.892642
0.922637
0.961672
1.01083
1.07146
1.14521
1.23402
1.34017
1.46625
1.6152
1.79024
1.9949
2.23299
2.5086
2.82613
3.19035
3.60654
4.08066
4.61961
5.23166
5.92692
6.7181
7.62151
8.65856
9.85793
11.2589
12.9168
14.9115
17.3631
20.4595
24.5114
30.0691
38.2009
51.2571
75.4383
132.417
337.298
)
;

boundaryField
{
    lowerWall
    {
        type            epsilonWallFunction;
        value           uniform 337.298;
    }
    upperWall
    {
        type            epsilonWallFunction;
        value           uniform 337.298;
    }
    front
    {
        type            cyclic;
    }
    back
    {
        type            cyclic;
    }
    defaultFaces
    {
        type            empty;
    }
}


// ************************************************************************* //
