/*--------------------------------*- C++ -*----------------------------------*\
  =========                 |
  \\      /  F ield         | OpenFOAM: The Open Source CFD Toolbox
   \\    /   O peration     | Website:  https://openfoam.org
    \\  /    A nd           | Version:  12
     \\/     M anipulation  |
\*---------------------------------------------------------------------------*/
FoamFile
{
    format      ascii;
    class       volScalarField;
    location    "2000";
    object      nut;
}
// * * * * * * * * * * * * * * * * * * * * * * * * * * * * * * * * * * * * * //

dimensions      [0 2 -1 0 0 0 0];

internalField   nonuniform List<scalar> 
80
(
0.000113281
0.000284573
0.00044772
0.000600399
0.0007392
0.000863612
0.00097415
0.00107169
0.00115724
0.00123184
0.00129651
0.00135228
0.00140018
0.00144122
0.00147642
0.00150681
0.00153343
0.00155733
0.00157958
0.00160124
0.00162334
0.00164687
0.00167274
0.0017017
0.00173435
0.00177103
0.00181182
0.0018565
0.00190452
0.00195508
0.00200709
0.00205931
0.00211037
0.00215884
0.00220335
0.0022426
0.00227547
0.00230098
0.00231841
0.00232725
0.00232725
0.00231841
0.00230098
0.00227547
0.0022426
0.00220335
0.00215884
0.00211037
0.00205932
0.0020071
0.00195508
0.00190453
0.00185651
0.00181183
0.00177104
0.00173436
0.00170171
0.00167275
0.00164688
0.00162335
0.00160125
0.00157959
0.00155734
0.00153344
0.00150682
0.00147643
0.00144123
0.00140019
0.00135229
0.00129651
0.00123184
0.00115725
0.00107169
0.000974151
0.000863612
0.000739199
0.000600399
0.000447719
0.000284573
0.000113281
)
;

boundaryField
{
    lowerWall
    {
        type            nutkWallFunction;
        Cmu             0.09;
        kappa           0.41;
        E               9.8;
        value           uniform 1.02261e-05;
    }
    upperWall
    {
        type            nutkWallFunction;
        Cmu             0.09;
        kappa           0.41;
        E               9.8;
        value           uniform 1.02261e-05;
    }
    front
    {
        type            cyclic;
    }
    back
    {
        type            cyclic;
    }
    defaultFaces
    {
        type            empty;
    }
}


// ************************************************************************* //
