/*--------------------------------*- C++ -*----------------------------------*\
  =========                 |
  \\      /  F ield         | OpenFOAM: The Open Source CFD Toolbox
   \\    /   O peration     | Website:  https://openfoam.org
    \\  /    A nd           | Version:  12
     \\/     M anipulation  |
\*---------------------------------------------------------------------------*/
FoamFile
{
    format      ascii;
    class       volSymmTensorField;
    location    "2000";
    object      R;
}
// * * * * * * * * * * * * * * * * * * * * * * * * * * * * * * * * * * * * * //

dimensions      [0 2 -2 0 0 0 0];

internalField   nonuniform List<symmTensor> 
80
(
(0.434383 -0.599963 -0 0.434383 -0 0.434383)
(0.431376 -0.199667 -0 0.431376 -0 0.431376)
(0.408401 -0.185255 -0 0.408401 -0 0.408401)
(0.389838 -0.177464 -0 0.389838 -0 0.389838)
(0.373427 -0.170745 -0 0.373427 -0 0.373427)
(0.358102 -0.164352 -0 0.358102 -0 0.358102)
(0.343388 -0.15803 -0 0.343388 -0 0.343388)
(0.329056 -0.151684 -0 0.329056 -0 0.329056)
(0.315002 -0.145281 -0 0.315002 -0 0.315002)
(0.301179 -0.138816 -0 0.301179 -0 0.301179)
(0.287576 -0.132296 -0 0.287576 -0 0.287576)
(0.274201 -0.125737 -0 0.274201 -0 0.274201)
(0.26108 -0.119157 -0 0.26108 -0 0.26108)
(0.248243 -0.11258 -0 0.248243 -0 0.248243)
(0.235729 -0.10603 -0 0.235729 -0 0.235729)
(0.223584 -0.0995307 -0 0.223584 -0 0.223584)
(0.211853 -0.0931083 -0 0.211853 -0 0.211853)
(0.200585 -0.086788 -0 0.200585 -0 0.200585)
(0.189828 -0.0805952 -0 0.189828 -0 0.189828)
(0.179631 -0.0745543 -0 0.179631 -0 0.179631)
(0.170035 -0.0686887 -0 0.170035 -0 0.170035)
(0.161078 -0.06302 -0 0.161078 -0 0.161078)
(0.152791 -0.057568 -0 0.152791 -0 0.152791)
(0.145193 -0.0523497 -0 0.145193 -0 0.145193)
(0.138293 -0.0473793 -0 0.138293 -0 0.138293)
(0.132087 -0.0426676 -0 0.132087 -0 0.132087)
(0.126561 -0.0382215 -0 0.126561 -0 0.126561)
(0.121688 -0.0340442 -0 0.121688 -0 0.121688)
(0.117431 -0.0301348 -0 0.117431 -0 0.117431)
(0.113749 -0.0264886 -0 0.113749 -0 0.113749)
(0.110594 -0.0230969 -0 0.110594 -0 0.110594)
(0.107917 -0.0199475 -0 0.107917 -0 0.107917)
(0.10567 -0.0170244 -0 0.10567 -0 0.10567)
(0.103809 -0.0143089 -0 0.103809 -0 0.103809)
(0.102292 -0.0117789 -0 0.102292 -0 0.102292)
(0.101083 -0.00941007 -0 0.101083 -0 0.101083)
(0.100152 -0.007176 -0 0.100152 -0 0.100152)
(0.0994753 -0.00504846 -0 0.0994753 -0 0.0994753)
(0.099034 -0.00299793 -0 0.099034 -0 0.099034)
(0.0988164 -0.00099398 -0 0.0988164 -0 0.0988164)
(0.0988164 0.000994387 -0 0.0988164 -0 0.0988164)
(0.099034 0.00299834 -0 0.099034 -0 0.099034)
(0.0994754 0.00504887 -0 0.0994754 -0 0.0994754)
(0.100152 0.00717642 -0 0.100152 -0 0.100152)
(0.101083 0.00941049 -0 0.101083 -0 0.101083)
(0.102292 0.0117793 -0 0.102292 -0 0.102292)
(0.103809 0.0143093 -0 0.103809 -0 0.103809)
(0.105671 0.0170249 -0 0.105671 -0 0.105671)
(0.107917 0.0199479 -0 0.107917 -0 0.107917)
(0.110594 0.0230973 -0 0.110594 -0 0.110594)
(0.11375 0.026489 -0 0.11375 -0 0.11375)
(0.117432 0.0301352 -0 0.117432 -0 0.117432)
(0.121688 0.0340446 -0 0.121688 -0 0.121688)
(0.126562 0.0382219 -0 0.126562 -0 0.126562)
(0.132088 0.042668 -0 0.132088 -0 0.132088)
(0.138293 0.0473798 -0 0.138293 -0 0.138293)
(0.145193 0.0523501 -0 0.145193 -0 0.145193)
(0.152791 0.0575683 -0 0.152791 -0 0.152791)
(0.161079 0.0630204 -0 0.161079 -0 0.161079)
(0.170035 0.068689 -0 0.170035 -0 0.170035)
(0.179631 0.0745546 -0 0.179631 -0 0.179631)
(0.189829 0.0805955 -0 0.189829 -0 0.189829)
(0.200585 0.0867883 -0 0.200585 -0 0.200585)
(0.211853 0.0931085 -0 0.211853 -0 0.211853)
(0.223584 0.099531 -0 0.223584 -0 0.223584)
(0.23573 0.10603 -0 0.23573 -0 0.23573)
(0.248243 0.112581 -0 0.248243 -0 0.248243)
(0.26108 0.119157 -0 0.26108 -0 0.26108)
(0.274202 0.125737 -0 0.274202 -0 0.274202)
(0.287576 0.132296 -0 0.287576 -0 0.287576)
(0.301179 0.138816 -0 0.301179 -0 0.301179)
(0.315002 0.145282 -0 0.315002 -0 0.315002)
(0.329056 0.151684 -0 0.329056 -0 0.329056)
(0.343388 0.15803 -0 0.343388 -0 0.343388)
(0.358102 0.164352 -0 0.358102 -0 0.358102)
(0.373426 0.170745 -0 0.373426 -0 0.373426)
(0.389838 0.177464 -0 0.389838 -0 0.389838)
(0.408401 0.185255 -0 0.408401 -0 0.408401)
(0.431376 0.199667 -0 0.431376 -0 0.431376)
(0.434383 0.599962 -0 0.434383 -0 0.434383)
)
;

boundaryField
{
    lowerWall
    {
        type            calculated;
        value           uniform (0.434383 -0.0989979 -0 0.434383 -0 0.434383);
    }
    upperWall
    {
        type            calculated;
        value           uniform (0.434383 0.0989979 -0 0.434383 -0 0.434383);
    }
    front
    {
        type            cyclic;
    }
    back
    {
        type            cyclic;
    }
    defaultFaces
    {
        type            empty;
    }
}


// ************************************************************************* //
