/*--------------------------------*- C++ -*----------------------------------*\
  =========                 |
  \\      /  F ield         | OpenFOAM: The Open Source CFD Toolbox
   \\    /   O peration     | Website:  https://openfoam.org
    \\  /    A nd           | Version:  12
     \\/     M anipulation  |
\*---------------------------------------------------------------------------*/
FoamFile
{
    format      ascii;
    class       volVectorField;
    location    "2000";
    object      U;
}
// * * * * * * * * * * * * * * * * * * * * * * * * * * * * * * * * * * * * * //

dimensions      [0 1 -1 0 0 0 0];

internalField   nonuniform List<vector> 
80
(
(6.05059 0 0)
(7.19001 0 0)
(7.80468 0 0)
(8.22445 0 0)
(8.54362 0 0)
(8.80192 0 0)
(9.01939 0 0)
(9.20748 0 0)
(9.37324 0 0)
(9.52133 0 0)
(9.65496 0 0)
(9.77643 0 0)
(9.88741 0 0)
(9.98918 0 0)
(10.0827 0 0)
(10.1687 0 0)
(10.2478 0 0)
(10.3205 0 0)
(10.3872 0 0)
(10.4481 0 0)
(10.5036 0 0)
(10.5539 0 0)
(10.5992 0 0)
(10.6399 0 0)
(10.6761 0 0)
(10.7082 0 0)
(10.7364 0 0)
(10.7609 0 0)
(10.7822 0 0)
(10.8005 0 0)
(10.8161 0 0)
(10.8293 0 0)
(10.8403 0 0)
(10.8494 0 0)
(10.8569 0 0)
(10.8628 0 0)
(10.8674 0 0)
(10.8707 0 0)
(10.8728 0 0)
(10.8739 0 0)
(10.8739 0 0)
(10.8728 0 0)
(10.8707 0 0)
(10.8674 0 0)
(10.8628 0 0)
(10.8569 0 0)
(10.8494 0 0)
(10.8403 0 0)
(10.8293 0 0)
(10.8161 0 0)
(10.8005 0 0)
(10.7822 0 0)
(10.7609 0 0)
(10.7364 0 0)
(10.7082 0 0)
(10.6761 0 0)
(10.6399 0 0)
(10.5992 0 0)
(10.5539 0 0)
(10.5036 0 0)
(10.4481 0 0)
(10.3872 0 0)
(10.3205 0 0)
(10.2478 0 0)
(10.1687 0 0)
(10.0827 0 0)
(9.98918 0 0)
(9.88741 0 0)
(9.77643 0 0)
(9.65496 0 0)
(9.52133 0 0)
(9.37323 0 0)
(9.20747 0 0)
(9.01939 0 0)
(8.80192 0 0)
(8.54362 0 0)
(8.22445 0 0)
(7.80468 0 0)
(7.19001 0 0)
(6.05059 0 0)
)
;

boundaryField
{
    lowerWall
    {
        type            noSlip;
    }
    upperWall
    {
        type            noSlip;
    }
    front
    {
        type            cyclic;
    }
    back
    {
        type            cyclic;
    }
    defaultFaces
    {
        type            empty;
    }
}


// ************************************************************************* //
