/*--------------------------------*- C++ -*----------------------------------*\
  =========                 |
  \\      /  F ield         | OpenFOAM: The Open Source CFD Toolbox
   \\    /   O peration     | Website:  https://openfoam.org
    \\  /    A nd           | Version:  12
     \\/     M anipulation  |
\*---------------------------------------------------------------------------*/
FoamFile
{
    format      ascii;
    class       volVectorField;
    location    "5.14";
    object      U;
}
// * * * * * * * * * * * * * * * * * * * * * * * * * * * * * * * * * * * * * //

dimensions      [0 1 -1 0 0 0 0];

internalField   nonuniform List<vector> 
3829
(
(-8.96169e-07 -4.29846e-06 0)
(-2.70482e-06 -4.45141e-06 0)
(-4.56497e-06 -4.21754e-06 0)
(-6.50666e-06 -3.8684e-06 0)
(-8.5887e-06 -3.40779e-06 0)
(-1.08447e-05 -2.83932e-06 0)
(-1.32887e-05 -2.17253e-06 0)
(-1.59392e-05 -1.41645e-06 0)
(-1.87955e-05 -5.87349e-07 0)
(-2.19434e-05 2.90678e-07 0)
(-2.53936e-05 1.20918e-06 0)
(-2.91049e-05 2.1517e-06 0)
(-3.30714e-05 3.08787e-06 0)
(-3.73413e-05 3.98556e-06 0)
(-4.18796e-05 4.83815e-06 0)
(-4.66359e-05 5.59809e-06 0)
(-5.1624e-05 6.26589e-06 0)
(-5.67917e-05 6.79912e-06 0)
(-6.20919e-05 7.18157e-06 0)
(-6.74762e-05 7.39502e-06 0)
(-7.2884e-05 7.42158e-06 0)
(-7.82478e-05 7.24777e-06 0)
(-8.35027e-05 6.86399e-06 0)
(-8.85758e-05 6.26708e-06 0)
(-9.33878e-05 5.45773e-06 0)
(-9.78603e-05 4.43427e-06 0)
(-0.000101938 3.21039e-06 0)
(-0.000105505 1.79837e-06 0)
(-0.000108506 2.15947e-07 0)
(-0.000110868 -1.51617e-06 0)
(-0.000112594 -3.3762e-06 0)
(-0.000113594 -5.31911e-06 0)
(-0.000113676 -7.31596e-06 0)
(-0.000112903 -9.36161e-06 0)
(-0.000111224 -1.14411e-05 0)
(-0.000108666 -1.35415e-05 0)
(-0.000105352 -1.56032e-05 0)
(-0.000101252 -1.75878e-05 0)
(-9.6344e-05 -1.94591e-05 0)
(-9.06781e-05 -2.11921e-05 0)
(-8.43269e-05 -2.27431e-05 0)
(-7.729e-05 -2.40963e-05 0)
(-6.96731e-05 -2.52281e-05 0)
(-6.15514e-05 -2.61123e-05 0)
(-5.29739e-05 -2.67397e-05 0)
(-4.40741e-05 -2.70965e-05 0)
(-3.49319e-05 -2.71753e-05 0)
(-2.56589e-05 -2.69718e-05 0)
(-1.63577e-05 -2.64856e-05 0)
(-7.1447e-06 -2.57217e-05 0)
(1.83909e-06 -2.46929e-05 0)
(1.05357e-05 -2.33917e-05 0)
(1.88273e-05 -2.18504e-05 0)
(2.6572e-05 -2.00671e-05 0)
(3.3699e-05 -1.80911e-05 0)
(4.00936e-05 -1.59251e-05 0)
(4.56651e-05 -1.35995e-05 0)
(5.0341e-05 -1.1154e-05 0)
(5.40348e-05 -8.6042e-06 0)
(5.67867e-05 -5.99258e-06 0)
(5.85021e-05 -3.36428e-06 0)
(5.90246e-05 -7.20226e-07 0)
(5.83065e-05 1.82849e-06 0)
(5.65935e-05 4.36406e-06 0)
(5.37925e-05 6.74335e-06 0)
(4.98684e-05 9.01352e-06 0)
(4.50552e-05 1.10791e-05 0)
(3.92739e-05 1.29571e-05 0)
(3.2673e-05 1.45947e-05 0)
(2.53927e-05 1.59631e-05 0)
(1.74085e-05 1.70444e-05 0)
(8.96282e-06 1.78221e-05 0)
(1.85341e-07 1.82951e-05 0)
(-8.93906e-06 1.84237e-05 0)
(-1.8149e-05 1.82247e-05 0)
(-2.71708e-05 1.77204e-05 0)
(-3.58268e-05 1.68899e-05 0)
(-4.41334e-05 1.57296e-05 0)
(-5.17846e-05 1.43265e-05 0)
(-5.86153e-05 1.26184e-05 0)
(-6.46603e-05 1.069e-05 0)
(-6.96781e-05 8.55714e-06 0)
(-7.34717e-05 6.28645e-06 0)
(-7.60163e-05 3.89286e-06 0)
(-7.73198e-05 1.43223e-06 0)
(-7.72524e-05 -1.04194e-06 0)
(-7.56399e-05 -3.44904e-06 0)
(-7.25577e-05 -5.78761e-06 0)
(-6.81569e-05 -7.97518e-06 0)
(-6.25327e-05 -9.98903e-06 0)
(-5.57977e-05 -1.17579e-05 0)
(-4.8022e-05 -1.32375e-05 0)
(-3.93885e-05 -1.44118e-05 0)
(-3.01074e-05 -1.5229e-05 0)
(-2.03702e-05 -1.56753e-05 0)
(-1.04105e-05 -1.5734e-05 0)
(-4.67755e-07 -1.54055e-05 0)
(9.20459e-06 -1.4692e-05 0)
(1.83681e-05 -1.36159e-05 0)
(2.67843e-05 -1.22026e-05 0)
(3.42138e-05 -1.04913e-05 0)
(4.04673e-05 -8.52553e-06 0)
(4.53689e-05 -6.36604e-06 0)
(4.87717e-05 -4.06948e-06 0)
(5.06262e-05 -1.71043e-06 0)
(5.07821e-05 6.34804e-07 0)
(4.91963e-05 2.9024e-06 0)
(4.6027e-05 5.02534e-06 0)
(4.13775e-05 6.9386e-06 0)
(3.54124e-05 8.57847e-06 0)
(2.83208e-05 9.88879e-06 0)
(2.03657e-05 1.0831e-05 0)
(1.17792e-05 1.13598e-05 0)
(2.8449e-06 1.14891e-05 0)
(-6.06296e-06 1.11951e-05 0)
(-1.46052e-05 1.05085e-05 0)
(-2.25042e-05 9.43449e-06 0)
(-2.94739e-05 8.04547e-06 0)
(-3.52631e-05 6.37738e-06 0)
(-3.96205e-05 4.51201e-06 0)
(-4.24029e-05 2.4985e-06 0)
(-4.35447e-05 4.47773e-07 0)
(-4.28701e-05 -1.56902e-06 0)
(-4.0423e-05 -3.49968e-06 0)
(-3.63932e-05 -5.26048e-06 0)
(-3.08899e-05 -6.78313e-06 0)
(-2.41073e-05 -8.03004e-06 0)
(-1.63419e-05 -8.95057e-06 0)
(-7.8511e-06 -9.51571e-06 0)
(1.0716e-06 -9.71982e-06 0)
(1.00714e-05 -9.56727e-06 0)
(1.88054e-05 -9.07309e-06 0)
(2.6984e-05 -8.2738e-06 0)
(3.43281e-05 -7.20058e-06 0)
(4.05857e-05 -5.92058e-06 0)
(4.55606e-05 -4.47597e-06 0)
(4.91082e-05 -2.9411e-06 0)
(5.11331e-05 -1.37095e-06 0)
(5.15883e-05 1.70879e-07 0)
(5.04852e-05 1.63338e-06 0)
(4.79391e-05 2.97214e-06 0)
(4.40806e-05 4.13869e-06 0)
(3.90644e-05 5.10365e-06 0)
(3.31085e-05 5.84357e-06 0)
(2.64425e-05 6.34443e-06 0)
(1.93105e-05 6.60368e-06 0)
(1.19677e-05 6.62845e-06 0)
(4.66389e-06 6.43501e-06 0)
(-2.37029e-06 6.03848e-06 0)
(-8.91362e-06 5.47745e-06 0)
(-1.47823e-05 4.76931e-06 0)
(-1.98168e-05 3.9634e-06 0)
(-2.3899e-05 3.0777e-06 0)
(-2.69474e-05 2.16543e-06 0)
(-2.89177e-05 1.24251e-06 0)
(-2.98075e-05 3.56404e-07 0)
(-2.96487e-05 -4.76304e-07 0)
(-2.85022e-05 -1.22474e-06 0)
(-2.64617e-05 -1.87756e-06 0)
(-2.36519e-05 -2.41227e-06 0)
(-2.02016e-05 -2.82699e-06 0)
(-1.62738e-05 -3.11266e-06 0)
(-1.20148e-05 -3.2675e-06 0)
(-7.59039e-06 -3.30227e-06 0)
(-3.16369e-06 -3.21735e-06 0)
(1.12011e-06 -3.03053e-06 0)
(5.11879e-06 -2.75112e-06 0)
(8.71037e-06 -2.39329e-06 0)
(1.17894e-05 -1.97838e-06 0)
(1.42711e-05 -1.51792e-06 0)
(1.60932e-05 -1.03404e-06 0)
(1.72179e-05 -5.39732e-07 0)
(1.76258e-05 -5.32024e-08 0)
(1.73246e-05 4.11997e-07 0)
(1.63414e-05 8.43403e-07 0)
(1.47226e-05 1.22857e-06 0)
(1.25312e-05 1.55951e-06 0)
(9.8491e-06 1.82839e-06 0)
(6.76402e-06 2.03115e-06 0)
(3.37492e-06 2.16359e-06 0)
(-2.2571e-07 2.22918e-06 0)
(-3.91586e-06 2.22478e-06 0)
(-7.56568e-06 2.15444e-06 0)
(-1.10868e-05 2.02439e-06 0)
(-1.43758e-05 1.83758e-06 0)
(-1.73385e-05 1.60467e-06 0)
(-1.98886e-05 1.33042e-06 0)
(-2.19563e-05 1.02284e-06 0)
(-2.34795e-05 6.93409e-07 0)
(-2.44105e-05 3.511e-07 0)
(-2.47204e-05 1.2861e-09 0)
(-2.43932e-05 -3.42309e-07 0)
(-2.34333e-05 -6.76353e-07 0)
(-2.18507e-05 -9.88096e-07 0)
(-1.96788e-05 -1.27324e-06 0)
(-1.69627e-05 -1.52341e-06 0)
(-1.37677e-05 -1.7339e-06 0)
(-1.01674e-05 -1.89688e-06 0)
(-6.24663e-06 -2.00926e-06 0)
(-2.11038e-06 -2.06691e-06 0)
(1.49608e-07 3.94877e-05 0)
(4.90796e-07 3.97521e-05 0)
(7.02794e-07 4.06824e-05 0)
(7.1883e-07 4.20733e-05 0)
(4.90666e-07 4.39051e-05 0)
(-6.94977e-08 4.61349e-05 0)
(-1.01804e-06 4.86978e-05 0)
(-2.42461e-06 5.15458e-05 0)
(-4.40742e-06 5.46301e-05 0)
(-6.97566e-06 5.78678e-05 0)
(-1.00656e-05 6.11808e-05 0)
(-1.38081e-05 6.44803e-05 0)
(-1.83106e-05 6.76627e-05 0)
(-2.34153e-05 7.0646e-05 0)
(-2.91958e-05 7.33127e-05 0)
(-3.55349e-05 7.55942e-05 0)
(-4.2391e-05 7.73552e-05 0)
(-4.98323e-05 7.85075e-05 0)
(-5.76132e-05 7.90021e-05 0)
(-6.56903e-05 7.87297e-05 0)
(-7.39597e-05 7.76639e-05 0)
(-8.22871e-05 7.57505e-05 0)
(-9.0529e-05 7.29697e-05 0)
(-9.85373e-05 6.93055e-05 0)
(-0.000106223 6.47575e-05 0)
(-0.000113419 5.93853e-05 0)
(-0.000119978 5.32078e-05 0)
(-0.000125764 4.62861e-05 0)
(-0.000130673 3.87253e-05 0)
(-0.000134616 3.06239e-05 0)
(-0.000137447 2.20862e-05 0)
(-0.000139046 1.32265e-05 0)
(-0.00013949 4.14544e-06 0)
(-0.000138942 -5.01183e-06 0)
(-0.000137304 -1.40557e-05 0)
(-0.000134337 -2.28982e-05 0)
(-0.000130023 -3.14185e-05 0)
(-0.000124492 -3.95239e-05 0)
(-0.000117817 -4.71275e-05 0)
(-0.000110019 -5.41037e-05 0)
(-0.000101234 -6.03786e-05 0)
(-9.15915e-05 -6.58718e-05 0)
(-8.11427e-05 -7.05319e-05 0)
(-7.00529e-05 -7.4292e-05 0)
(-5.84467e-05 -7.71183e-05 0)
(-4.64693e-05 -7.89761e-05 0)
(-3.42564e-05 -7.98554e-05 0)
(-2.19576e-05 -7.97422e-05 0)
(-9.72445e-06 -7.86685e-05 0)
(2.25946e-06 -7.66296e-05 0)
(1.3921e-05 -7.36796e-05 0)
(2.51067e-05 -6.98403e-05 0)
(3.56733e-05 -6.51937e-05 0)
(4.54035e-05 -5.97968e-05 0)
(5.42084e-05 -5.37282e-05 0)
(6.20781e-05 -4.70472e-05 0)
(6.87514e-05 -3.98966e-05 0)
(7.42352e-05 -3.22722e-05 0)
(7.84399e-05 -2.43841e-05 0)
(8.12772e-05 -1.62748e-05 0)
(8.28598e-05 -8.1077e-06 0)
(8.27415e-05 3.31286e-08 0)
(8.12589e-05 8.01486e-06 0)
(7.85313e-05 1.58197e-05 0)
(7.43058e-05 2.32163e-05 0)
(6.87799e-05 3.01976e-05 0)
(6.20565e-05 3.65738e-05 0)
(5.42566e-05 4.23022e-05 0)
(4.5339e-05 4.72783e-05 0)
(3.55985e-05 5.14227e-05 0)
(2.50655e-05 5.46515e-05 0)
(1.40572e-05 5.69553e-05 0)
(2.61197e-06 5.82317e-05 0)
(-9.21136e-06 5.84947e-05 0)
(-2.09052e-05 5.77138e-05 0)
(-3.23483e-05 5.59338e-05 0)
(-4.34624e-05 5.31476e-05 0)
(-5.38555e-05 4.93973e-05 0)
(-6.34491e-05 4.47725e-05 0)
(-7.20956e-05 3.93101e-05 0)
(-7.9542e-05 3.31353e-05 0)
(-8.563e-05 2.63854e-05 0)
(-9.01749e-05 1.91534e-05 0)
(-9.32014e-05 1.15863e-05 0)
(-9.45892e-05 3.84141e-06 0)
(-9.41382e-05 -3.92657e-06 0)
(-9.18687e-05 -1.15042e-05 0)
(-8.786e-05 -1.8794e-05 0)
(-8.2198e-05 -2.56273e-05 0)
(-7.50303e-05 -3.18537e-05 0)
(-6.64074e-05 -3.73085e-05 0)
(-5.65912e-05 -4.18622e-05 0)
(-4.57472e-05 -4.54078e-05 0)
(-3.40972e-05 -4.78431e-05 0)
(-2.19502e-05 -4.91119e-05 0)
(-9.58495e-06 -4.91672e-05 0)
(2.70047e-06 -4.80098e-05 0)
(1.45879e-05 -4.56601e-05 0)
(2.57722e-05 -4.21807e-05 0)
(3.59721e-05 -3.76488e-05 0)
(4.49037e-05 -3.22098e-05 0)
(5.23235e-05 -2.59952e-05 0)
(5.80298e-05 -1.91979e-05 0)
(6.18479e-05 -1.20036e-05 0)
(6.3688e-05 -4.62582e-06 0)
(6.34442e-05 2.68712e-06 0)
(6.11107e-05 9.73545e-06 0)
(5.68545e-05 1.63093e-05 0)
(5.08006e-05 2.21941e-05 0)
(4.31475e-05 2.72064e-05 0)
(3.416e-05 3.11746e-05 0)
(2.41374e-05 3.39885e-05 0)
(1.34496e-05 3.55268e-05 0)
(2.43788e-06 3.57907e-05 0)
(-8.48369e-06 3.47611e-05 0)
(-1.89047e-05 3.24971e-05 0)
(-2.84523e-05 2.90906e-05 0)
(-3.67736e-05 2.46857e-05 0)
(-4.3605e-05 1.94539e-05 0)
(-4.86726e-05 1.36239e-05 0)
(-5.17796e-05 7.39157e-06 0)
(-5.28223e-05 1.02e-06 0)
(-5.17707e-05 -5.20061e-06 0)
(-4.8651e-05 -1.11027e-05 0)
(-4.36286e-05 -1.6468e-05 0)
(-3.69235e-05 -2.10843e-05 0)
(-2.87757e-05 -2.48107e-05 0)
(-1.95061e-05 -2.75218e-05 0)
(-9.47202e-06 -2.91405e-05 0)
(9.61659e-07 -2.96439e-05 0)
(1.1398e-05 -2.90619e-05 0)
(2.14312e-05 -2.74486e-05 0)
(3.07427e-05 -2.49069e-05 0)
(3.89985e-05 -2.1579e-05 0)
(4.59313e-05 -1.76143e-05 0)
(5.13397e-05 -1.31996e-05 0)
(5.50624e-05 -8.51923e-06 0)
(5.70324e-05 -3.76947e-06 0)
(5.72181e-05 8.75712e-07 0)
(5.56745e-05 5.25934e-06 0)
(5.25275e-05 9.2416e-06 0)
(4.79398e-05 1.26907e-05 0)
(4.2116e-05 1.5519e-05 0)
(3.53045e-05 1.76614e-05 0)
(2.77731e-05 1.90826e-05 0)
(1.98031e-05 1.97778e-05 0)
(1.16813e-05 1.97781e-05 0)
(3.66935e-06 1.91261e-05 0)
(-3.96715e-06 1.7891e-05 0)
(-1.10063e-05 1.61552e-05 0)
(-1.72506e-05 1.40135e-05 0)
(-2.25428e-05 1.15725e-05 0)
(-2.67635e-05 8.93139e-06 0)
(-2.98376e-05 6.20025e-06 0)
(-3.17341e-05 3.47575e-06 0)
(-3.24527e-05 8.47046e-07 0)
(-3.20541e-05 -1.59781e-06 0)
(-3.06093e-05 -3.79566e-06 0)
(-2.8227e-05 -5.6974e-06 0)
(-2.50468e-05 -7.25341e-06 0)
(-2.12187e-05 -8.44356e-06 0)
(-1.6906e-05 -9.25523e-06 0)
(-1.22834e-05 -9.68748e-06 0)
(-7.51951e-06 -9.7551e-06 0)
(-2.78613e-06 -9.48546e-06 0)
(1.75998e-06 -8.90791e-06 0)
(5.98307e-06 -8.06441e-06 0)
(9.74636e-06 -7.00117e-06 0)
(1.29494e-05 -5.76512e-06 0)
(1.5508e-05 -4.40911e-06 0)
(1.73597e-05 -2.98039e-06 0)
(1.84732e-05 -1.53067e-06 0)
(1.88298e-05 -1.04851e-07 0)
(1.84458e-05 1.25587e-06 0)
(1.73508e-05 2.51312e-06 0)
(1.55976e-05 3.63617e-06 0)
(1.32556e-05 4.59636e-06 0)
(1.04121e-05 5.37674e-06 0)
(7.15957e-06 5.9622e-06 0)
(3.60587e-06 6.34429e-06 0)
(-1.55222e-07 6.52242e-06 0)
(-4.00116e-06 6.50295e-06 0)
(-7.7916e-06 6.29157e-06 0)
(-1.14398e-05 5.90507e-06 0)
(-1.48381e-05 5.35727e-06 0)
(-1.78906e-05 4.67009e-06 0)
(-2.05148e-05 3.86696e-06 0)
(-2.26339e-05 2.97225e-06 0)
(-2.41858e-05 2.01094e-06 0)
(-2.51299e-05 1.00926e-06 0)
(-2.5433e-05 -3.59728e-09 0)
(-2.50815e-05 -1.00725e-06 0)
(-2.40818e-05 -1.97524e-06 0)
(-2.24432e-05 -2.88292e-06 0)
(-2.02041e-05 -3.70929e-06 0)
(-1.74096e-05 -4.43555e-06 0)
(-1.41259e-05 -5.04608e-06 0)
(-1.04286e-05 -5.51997e-06 0)
(-6.40632e-06 -5.84776e-06 0)
(-2.16414e-06 -6.0149e-06 0)
(2.97978e-06 -1.14125e-05 0)
(8.91131e-06 -1.10612e-05 0)
(1.45998e-05 -8.7493e-06 0)
(1.98056e-05 -5.25926e-06 0)
(2.42096e-05 -6.2376e-07 0)
(2.7441e-05 5.13837e-06 0)
(2.94716e-05 1.19884e-05 0)
(3.04313e-05 1.98213e-05 0)
(3.00759e-05 2.85292e-05 0)
(2.81436e-05 3.79984e-05 0)
(2.4635e-05 4.79717e-05 0)
(1.94281e-05 5.81623e-05 0)
(1.26095e-05 6.83374e-05 0)
(4.10731e-06 7.82036e-05 0)
(-5.91949e-06 8.74967e-05 0)
(-1.74883e-05 9.59665e-05 0)
(-3.06968e-05 0.000103338 0)
(-4.48758e-05 0.000109399 0)
(-6.00636e-05 0.000113907 0)
(-7.60353e-05 0.000116741 0)
(-9.23369e-05 0.000117657 0)
(-0.000108838 0.000116597 0)
(-0.000125209 0.000113489 0)
(-0.000141245 0.000108325 0)
(-0.000156397 0.000101085 0)
(-0.000170474 9.1968e-05 0)
(-0.000183421 8.10235e-05 0)
(-0.000194626 6.8496e-05 0)
(-0.000203841 5.44944e-05 0)
(-0.000211043 3.93808e-05 0)
(-0.00021617 2.34031e-05 0)
(-0.000219192 6.78712e-06 0)
(-0.000219824 -1.00252e-05 0)
(-0.000217688 -2.68798e-05 0)
(-0.000213102 -4.36145e-05 0)
(-0.000206499 -5.9896e-05 0)
(-0.000197998 -7.55225e-05 0)
(-0.000187804 -9.02071e-05 0)
(-0.00017577 -0.000103756 0)
(-0.000162042 -0.000116001 0)
(-0.00014697 -0.000126789 0)
(-0.000130704 -0.000135978 0)
(-0.000113435 -0.000143476 0)
(-9.53514e-05 -0.000149202 0)
(-7.66833e-05 -0.000153112 0)
(-5.76894e-05 -0.000155178 0)
(-3.85597e-05 -0.000155399 0)
(-1.96091e-05 -0.000153773 0)
(-9.84267e-07 -0.000150402 0)
(1.70981e-05 -0.000145315 0)
(3.43922e-05 -0.000138583 0)
(5.07213e-05 -0.000130315 0)
(6.58225e-05 -0.000120654 0)
(7.95868e-05 -0.000109676 0)
(9.19515e-05 -9.75536e-05 0)
(0.000102566 -8.44905e-05 0)
(0.000111619 -7.0611e-05 0)
(0.00011879 -5.60927e-05 0)
(0.000123817 -4.1147e-05 0)
(0.000126962 -2.59555e-05 0)
(0.000128015 -1.0711e-05 0)
(0.00012695 4.31783e-06 0)
(0.000124053 1.90385e-05 0)
(0.000119195 3.32269e-05 0)
(0.000112322 4.66594e-05 0)
(0.00010363 5.91688e-05 0)
(9.32183e-05 7.05989e-05 0)
(8.13919e-05 8.07232e-05 0)
(6.81575e-05 8.94404e-05 0)
(5.37646e-05 9.65905e-05 0)
(3.84643e-05 0.000102062 0)
(2.2463e-05 0.000105779 0)
(5.96463e-06 0.000107638 0)
(-1.07755e-05 0.000107644 0)
(-2.73594e-05 0.000105802 0)
(-4.34547e-05 0.000102098 0)
(-5.89108e-05 9.65975e-05 0)
(-7.33805e-05 8.94175e-05 0)
(-8.66218e-05 8.0615e-05 0)
(-9.83694e-05 7.04175e-05 0)
(-0.000108315 5.89552e-05 0)
(-0.000116367 4.64785e-05 0)
(-0.000122328 3.31566e-05 0)
(-0.000126001 1.93416e-05 0)
(-0.000127384 5.22861e-06 0)
(-0.000126207 -8.80547e-06 0)
(-0.000122535 -2.25466e-05 0)
(-0.000116605 -3.56562e-05 0)
(-0.000108427 -4.78939e-05 0)
(-9.81503e-05 -5.89436e-05 0)
(-8.59697e-05 -6.85695e-05 0)
(-7.2172e-05 -7.65305e-05 0)
(-5.7035e-05 -8.26193e-05 0)
(-4.0929e-05 -8.6697e-05 0)
(-2.42263e-05 -8.86479e-05 0)
(-7.3272e-06 -8.84064e-05 0)
(9.33855e-06 -8.59803e-05 0)
(2.53496e-05 -8.14177e-05 0)
(4.03182e-05 -7.48473e-05 0)
(5.38037e-05 -6.64301e-05 0)
(6.5444e-05 -5.64006e-05 0)
(7.49475e-05 -4.5035e-05 0)
(8.2029e-05 -3.26726e-05 0)
(8.65201e-05 -1.96602e-05 0)
(8.82506e-05 -6.38952e-06 0)
(8.71489e-05 6.72376e-06 0)
(8.33029e-05 1.92943e-05 0)
(7.68708e-05 3.09484e-05 0)
(6.80553e-05 4.12966e-05 0)
(5.7155e-05 5.0023e-05 0)
(4.45638e-05 5.68426e-05 0)
(3.06836e-05 6.15363e-05 0)
(1.60256e-05 6.39742e-05 0)
(1.11646e-06 6.40813e-05 0)
(-1.35412e-05 6.19085e-05 0)
(-2.73631e-05 5.75372e-05 0)
(-3.9893e-05 5.119e-05 0)
(-5.06906e-05 4.30999e-05 0)
(-5.93492e-05 3.36243e-05 0)
(-6.55912e-05 2.31412e-05 0)
(-6.9233e-05 1.20534e-05 0)
(-7.00481e-05 8.13635e-07 0)
(-6.81019e-05 -1.01505e-05 0)
(-6.36118e-05 -2.04377e-05 0)
(-5.67063e-05 -2.96892e-05 0)
(-4.76819e-05 -3.75637e-05 0)
(-3.69261e-05 -4.38043e-05 0)
(-2.48757e-05 -4.8228e-05 0)
(-1.20012e-05 -5.0723e-05 0)
(1.19346e-06 -5.12841e-05 0)
(1.42101e-05 -4.99491e-05 0)
(2.65745e-05 -4.68687e-05 0)
(3.78482e-05 -4.22275e-05 0)
(4.76799e-05 -3.62731e-05 0)
(5.57574e-05 -2.92913e-05 0)
(6.18459e-05 -2.16138e-05 0)
(6.58056e-05 -1.35409e-05 0)
(6.75822e-05 -5.41499e-06 0)
(6.72183e-05 2.45997e-06 0)
(6.48063e-05 9.82707e-06 0)
(6.05196e-05 1.64427e-05 0)
(5.45897e-05 2.21125e-05 0)
(4.72951e-05 2.66924e-05 0)
(3.89472e-05 3.00935e-05 0)
(2.98774e-05 3.22675e-05 0)
(2.0437e-05 3.32222e-05 0)
(1.09543e-05 3.30147e-05 0)
(1.73265e-06 3.17364e-05 0)
(-6.94069e-06 2.95089e-05 0)
(-1.48159e-05 2.64743e-05 0)
(-2.16817e-05 2.28034e-05 0)
(-2.73831e-05 1.86569e-05 0)
(-3.1808e-05 1.42284e-05 0)
(-3.48891e-05 9.6756e-06 0)
(-3.66227e-05 5.16805e-06 0)
(-3.70275e-05 8.54259e-07 0)
(-3.61813e-05 -3.14166e-06 0)
(-3.42054e-05 -6.71184e-06 0)
(-3.12182e-05 -9.76501e-06 0)
(-2.73875e-05 -1.22485e-05 0)
(-2.28951e-05 -1.41204e-05 0)
(-1.79297e-05 -1.53658e-05 0)
(-1.26753e-05 -1.59956e-05 0)
(-7.33238e-06 -1.60312e-05 0)
(-2.0807e-06 -1.55193e-05 0)
(2.91817e-06 -1.45156e-05 0)
(7.50588e-06 -1.30872e-05 0)
(1.15569e-05 -1.13135e-05 0)
(1.49624e-05 -9.26766e-06 0)
(1.76415e-05 -7.03846e-06 0)
(1.95375e-05 -4.70464e-06 0)
(2.06198e-05 -2.34453e-06 0)
(2.08848e-05 -3.31794e-08 0)
(2.03517e-05 2.16498e-06 0)
(1.90624e-05 4.18803e-06 0)
(1.70771e-05 5.98926e-06 0)
(1.44761e-05 7.52306e-06 0)
(1.1358e-05 8.76488e-06 0)
(7.821e-06 9.68557e-06 0)
(3.98072e-06 1.02828e-05 0)
(-5.49562e-08 1.05447e-05 0)
(-4.15794e-06 1.0495e-05 0)
(-8.18745e-06 1.01383e-05 0)
(-1.20481e-05 9.49858e-06 0)
(-1.56322e-05 8.60343e-06 0)
(-1.88375e-05 7.48957e-06 0)
(-2.15773e-05 6.18943e-06 0)
(-2.37813e-05 4.74649e-06 0)
(-2.53873e-05 3.20061e-06 0)
(-2.63464e-05 1.59314e-06 0)
(-2.66361e-05 -3.23151e-08 0)
(-2.62448e-05 -1.63857e-06 0)
(-2.51748e-05 -3.18385e-06 0)
(-2.34423e-05 -4.63433e-06 0)
(-2.10877e-05 -5.9549e-06 0)
(-1.81619e-05 -7.11321e-06 0)
(-1.47295e-05 -8.08683e-06 0)
(-1.08705e-05 -8.84104e-06 0)
(-6.67636e-06 -9.36337e-06 0)
(-2.25457e-06 -9.62915e-06 0)
(8.79225e-06 -3.71173e-05 0)
(2.62758e-05 -3.39699e-05 0)
(4.34108e-05 -2.68691e-05 0)
(5.98229e-05 -1.61719e-05 0)
(7.522e-05 -1.95698e-06 0)
(8.94381e-05 1.55677e-05 0)
(0.000101862 3.61063e-05 0)
(0.000112018 5.91352e-05 0)
(0.000119768 8.40727e-05 0)
(0.000124161 0.000110054 0)
(0.000124228 0.000136505 0)
(0.00012011 0.000162778 0)
(0.000111796 0.000188311 0)
(9.93425e-05 0.000212426 0)
(8.30876e-05 0.000234528 0)
(6.31721e-05 0.000254008 0)
(3.99603e-05 0.000270353 0)
(1.37619e-05 0.000283063 0)
(-1.46031e-05 0.000291763 0)
(-4.49962e-05 0.000296152 0)
(-7.6853e-05 0.000295981 0)
(-0.000109006 0.000291104 0)
(-0.000140994 0.000281492 0)
(-0.000172368 0.000267341 0)
(-0.000201851 0.000248787 0)
(-0.000228933 0.00022619 0)
(-0.000253303 0.000200095 0)
(-0.000274499 0.000170914 0)
(-0.000291863 0.000139442 0)
(-0.000304684 0.000106063 0)
(-0.000313634 7.1675e-05 0)
(-0.000317715 3.67918e-05 0)
(-0.000317435 1.89143e-06 0)
(-0.00031438 -3.20788e-05 0)
(-0.000307687 -6.47368e-05 0)
(-0.000297083 -9.56427e-05 0)
(-0.00028288 -0.000124487 0)
(-0.000265327 -0.00015089 0)
(-0.0002451 -0.00017464 0)
(-0.000222477 -0.000195562 0)
(-0.000197789 -0.000213447 0)
(-0.000171482 -0.000228201 0)
(-0.000143926 -0.000239744 0)
(-0.000115521 -0.000248056 0)
(-8.6656e-05 -0.000253128 0)
(-5.76731e-05 -0.000255019 0)
(-2.88167e-05 -0.000253818 0)
(-6.87948e-07 -0.000249604 0)
(2.64485e-05 -0.000242497 0)
(5.25632e-05 -0.000232654 0)
(7.72586e-05 -0.000220307 0)
(0.000100116 -0.000205594 0)
(0.00012115 -0.000188823 0)
(0.000140078 -0.000170047 0)
(0.000156347 -0.000149706 0)
(0.000170158 -0.000127951 0)
(0.000181447 -0.00010509 0)
(0.000189894 -8.15084e-05 0)
(0.000195421 -5.7391e-05 0)
(0.000198099 -3.3063e-05 0)
(0.00019775 -8.85363e-06 0)
(0.000194386 1.4965e-05 0)
(0.000188547 3.81263e-05 0)
(0.0001799 6.01584e-05 0)
(0.000168453 8.09968e-05 0)
(0.000154681 0.000100185 0)
(0.000138526 0.000117575 0)
(0.000120358 0.00013284 0)
(0.000100403 0.000145807 0)
(7.89306e-05 0.000156238 0)
(5.62917e-05 0.000164023 0)
(3.28423e-05 0.000168982 0)
(8.90562e-06 0.000171088 0)
(-1.50885e-05 0.000170264 0)
(-3.87134e-05 0.00016658 0)
(-6.16438e-05 0.000159993 0)
(-8.34017e-05 0.000150686 0)
(-0.000103653 0.000138768 0)
(-0.000122005 0.000124435 0)
(-0.000138106 0.00010797 0)
(-0.000151669 8.96313e-05 0)
(-0.000162479 6.97662e-05 0)
(-0.000170113 4.87603e-05 0)
(-0.00017454 2.70137e-05 0)
(-0.000175638 4.95879e-06 0)
(-0.000173204 -1.68617e-05 0)
(-0.000167435 -3.81326e-05 0)
(-0.000158398 -5.83661e-05 0)
(-0.000146277 -7.7126e-05 0)
(-0.000131283 -9.39631e-05 0)
(-0.000113726 -0.000108491 0)
(-9.39825e-05 -0.000120377 0)
(-7.252e-05 -0.000129304 0)
(-4.9829e-05 -0.000135078 0)
(-2.64252e-05 -0.000137515 0)
(-2.91044e-06 -0.000136585 0)
(2.01311e-05 -0.000132252 0)
(4.20921e-05 -0.000124662 0)
(6.24081e-05 -0.000113965 0)
(8.05695e-05 -0.000100492 0)
(9.60553e-05 -8.45706e-05 0)
(0.000108419 -6.66756e-05 0)
(0.000117344 -4.73018e-05 0)
(0.000122594 -2.70564e-05 0)
(0.000123979 -6.51285e-06 0)
(0.000121476 1.36406e-05 0)
(0.000115232 3.28681e-05 0)
(0.00010546 5.05599e-05 0)
(9.24711e-05 6.61381e-05 0)
(7.6737e-05 7.91228e-05 0)
(5.87746e-05 8.90801e-05 0)
(3.92395e-05 9.57332e-05 0)
(1.88242e-05 9.88671e-05 0)
(-1.74445e-06 9.84482e-05 0)
(-2.17393e-05 9.45062e-05 0)
(-4.04123e-05 8.72695e-05 0)
(-5.71175e-05 7.70327e-05 0)
(-7.12772e-05 6.42641e-05 0)
(-8.23787e-05 4.94778e-05 0)
(-9.01103e-05 3.32919e-05 0)
(-9.41977e-05 1.63528e-05 0)
(-9.45348e-05 -6.55747e-07 0)
(-9.12426e-05 -1.71414e-05 0)
(-8.45401e-05 -3.24692e-05 0)
(-7.47428e-05 -4.60584e-05 0)
(-6.22904e-05 -5.74637e-05 0)
(-4.77389e-05 -6.63154e-05 0)
(-3.16912e-05 -7.23773e-05 0)
(-1.48243e-05 -7.55314e-05 0)
(2.23239e-06 -7.57855e-05 0)
(1.88238e-05 -7.32554e-05 0)
(3.43143e-05 -6.81897e-05 0)
(4.82398e-05 -6.08823e-05 0)
(6.01321e-05 -5.17522e-05 0)
(6.96192e-05 -4.12284e-05 0)
(7.65093e-05 -2.97978e-05 0)
(8.06624e-05 -1.79417e-05 0)
(8.20378e-05 -6.11483e-06 0)
(8.07727e-05 5.23944e-06 0)
(7.70443e-05 1.5738e-05 0)
(7.10971e-05 2.50442e-05 0)
(6.3263e-05 3.29211e-05 0)
(5.39195e-05 3.91625e-05 0)
(4.34659e-05 4.36768e-05 0)
(3.23144e-05 4.64119e-05 0)
(2.08975e-05 4.74238e-05 0)
(9.61511e-06 4.67753e-05 0)
(-1.18921e-06 4.46444e-05 0)
(-1.11918e-05 4.12133e-05 0)
(-2.01172e-05 3.66805e-05 0)
(-2.77567e-05 3.13153e-05 0)
(-3.39399e-05 2.53429e-05 0)
(-3.85684e-05 1.90227e-05 0)
(-4.1613e-05 1.25914e-05 0)
(-4.30712e-05 6.27458e-06 0)
(-4.30133e-05 2.85076e-07 0)
(-4.15608e-05 -5.23005e-06 0)
(-3.88394e-05 -1.01088e-05 0)
(-3.50309e-05 -1.42503e-05 0)
(-3.03403e-05 -1.75739e-05 0)
(-2.49674e-05 -2.00368e-05 0)
(-1.91397e-05 -2.16277e-05 0)
(-1.30731e-05 -2.23625e-05 0)
(-6.97734e-06 -2.22903e-05 0)
(-1.05932e-06 -2.14655e-05 0)
(4.50584e-06 -1.99829e-05 0)
(9.55966e-06 -1.79302e-05 0)
(1.39662e-05 -1.54164e-05 0)
(1.76201e-05 -1.25534e-05 0)
(2.04375e-05 -9.45022e-06 0)
(2.23737e-05 -6.22754e-06 0)
(2.34067e-05 -2.98487e-06 0)
(2.35386e-05 1.78902e-07 0)
(2.28038e-05 3.1735e-06 0)
(2.12544e-05 5.91889e-06 0)
(1.89636e-05 8.3503e-06 0)
(1.60256e-05 1.04141e-05 0)
(1.25465e-05 1.207e-05 0)
(8.64155e-06 1.32895e-05 0)
(4.43634e-06 1.4063e-05 0)
(4.97796e-08 1.43896e-05 0)
(-4.38074e-06 1.42857e-05 0)
(-8.71592e-06 1.37725e-05 0)
(-1.28488e-05 1.28787e-05 0)
(-1.66623e-05 1.16452e-05 0)
(-2.00582e-05 1.01163e-05 0)
(-2.29497e-05 8.34338e-06 0)
(-2.5257e-05 6.37997e-06 0)
(-2.69222e-05 4.28506e-06 0)
(-2.79033e-05 2.11064e-06 0)
(-2.81737e-05 -8.57102e-08 0)
(-2.7724e-05 -2.24858e-06 0)
(-2.6565e-05 -4.32997e-06 0)
(-2.47139e-05 -6.27881e-06 0)
(-2.22123e-05 -8.05405e-06 0)
(-1.91172e-05 -9.61067e-06 0)
(-1.54943e-05 -1.09124e-05 0)
(-1.14284e-05 -1.19246e-05 0)
(-7.01736e-06 -1.26218e-05 0)
(-2.36886e-06 -1.29783e-05 0)
(2.61659e-05 -0.000296267 0)
(7.82333e-05 -0.00029019 0)
(0.000129528 -0.000276032 0)
(0.000178903 -0.00025486 0)
(0.000224715 -0.000226895 0)
(0.000265366 -0.000192612 0)
(0.000298996 -0.000152456 0)
(0.000324134 -0.000107305 0)
(0.000338789 -5.76204e-05 0)
(0.000342955 -4.73044e-06 0)
(0.000338096 5.06653e-05 0)
(0.000324396 0.00010702 0)
(0.000301978 0.000162834 0)
(0.000270869 0.000216664 0)
(0.000231852 0.000267164 0)
(0.000185588 0.000313025 0)
(0.000132835 0.000352993 0)
(7.51217e-05 0.000386036 0)
(1.3685e-05 0.000411187 0)
(-5.05165e-05 0.000427665 0)
(-0.000116128 0.000435133 0)
(-0.000181741 0.000433153 0)
(-0.000245309 0.000421769 0)
(-0.000305813 0.000401152 0)
(-0.000361903 0.000371915 0)
(-0.000411496 0.000334626 0)
(-0.000454402 0.00029085 0)
(-0.000489051 0.00024127 0)
(-0.000515444 0.000188153 0)
(-0.000533252 0.000132152 0)
(-0.000542095 7.53825e-05 0)
(-0.000543923 1.89512e-05 0)
(-0.000536823 -3.60772e-05 0)
(-0.000521228 -8.92057e-05 0)
(-0.000499733 -0.000139545 0)
(-0.000473133 -0.000186388 0)
(-0.000441947 -0.000229137 0)
(-0.000406874 -0.000267417 0)
(-0.000368782 -0.000300867 0)
(-0.000327901 -0.000329266 0)
(-0.000284942 -0.00035253 0)
(-0.000240641 -0.000370612 0)
(-0.000195511 -0.000383564 0)
(-0.000150052 -0.000391535 0)
(-0.000104804 -0.000394624 0)
(-6.03991e-05 -0.000392963 0)
(-1.70767e-05 -0.000386863 0)
(2.47359e-05 -0.000376525 0)
(6.46176e-05 -0.000362157 0)
(0.000102014 -0.000344158 0)
(0.000136783 -0.000322778 0)
(0.000168511 -0.000298296 0)
(0.00019731 -0.00027101 0)
(0.000222665 -0.000241397 0)
(0.000244161 -0.000209745 0)
(0.000262055 -0.000176438 0)
(0.000275778 -0.000141936 0)
(0.000285483 -0.000106556 0)
(0.000291202 -7.07239e-05 0)
(0.000292756 -3.48995e-05 0)
(0.000290199 4.74617e-07 0)
(0.000283774 3.51307e-05 0)
(0.000273235 6.84046e-05 0)
(0.000259119 0.000100079 0)
(0.000241486 0.000129607 0)
(0.000220346 0.000156708 0)
(0.000196245 0.000180944 0)
(0.000169472 0.000202065 0)
(0.000140369 0.00021969 0)
(0.000109387 0.000233633 0)
(7.69889e-05 0.000243651 0)
(4.36605e-05 0.000249617 0)
(9.91907e-06 0.000251403 0)
(-2.36879e-05 0.000249021 0)
(-5.66701e-05 0.000242447 0)
(-8.84092e-05 0.000231801 0)
(-0.000118319 0.000217259 0)
(-0.000146055 0.000199034 0)
(-0.000170948 0.000177468 0)
(-0.000192601 0.000152883 0)
(-0.000210594 0.000125752 0)
(-0.000224563 9.65614e-05 0)
(-0.000234226 6.59297e-05 0)
(-0.000239352 3.43096e-05 0)
(-0.000239645 2.45391e-06 0)
(-0.000235208 -2.90556e-05 0)
(-0.000226345 -5.95684e-05 0)
(-0.000213036 -8.84683e-05 0)
(-0.000195467 -0.000115063 0)
(-0.000173986 -0.000138809 0)
(-0.000149127 -0.0001591 0)
(-0.000121399 -0.000175503 0)
(-9.14534e-05 -0.000187579 0)
(-5.99935e-05 -0.000195041 0)
(-2.77888e-05 -0.000197681 0)
(4.40353e-06 -0.000195439 0)
(3.57721e-05 -0.000188369 0)
(6.54975e-05 -0.000176638 0)
(9.28082e-05 -0.00016055 0)
(0.000116941 -0.000140544 0)
(0.000137278 -0.000117178 0)
(0.000153226 -9.11244e-05 0)
(0.000164313 -6.30669e-05 0)
(0.000170279 -3.39173e-05 0)
(0.000170883 -4.49988e-06 0)
(0.000166217 2.42544e-05 0)
(0.000156598 5.1504e-05 0)
(0.000142184 7.63617e-05 0)
(0.000123508 9.80618e-05 0)
(0.000101214 0.000115897 0)
(7.6129e-05 0.000129347 0)
(4.9116e-05 0.000137958 0)
(2.11564e-05 0.000141533 0)
(-6.76217e-06 0.000140001 0)
(-3.3667e-05 0.000133515 0)
(-5.85208e-05 0.00012241 0)
(-8.04818e-05 0.00010717 0)
(-9.87822e-05 8.84702e-05 0)
(-0.000112811 6.70886e-05 0)
(-0.000122135 4.3925e-05 0)
(-0.000126534 1.99135e-05 0)
(-0.000125958 -3.95799e-06 0)
(-0.000120618 -2.68746e-05 0)
(-0.000110817 -4.79143e-05 0)
(-9.70637e-05 -6.63523e-05 0)
(-8.00397e-05 -8.15562e-05 0)
(-6.05027e-05 -9.3084e-05 0)
(-3.93121e-05 -0.000100645 0)
(-1.73325e-05 -0.000104132 0)
(4.57761e-06 -0.000103623 0)
(2.55678e-05 -9.93247e-05 0)
(4.49143e-05 -9.16272e-05 0)
(6.19675e-05 -8.10053e-05 0)
(7.62125e-05 -6.80317e-05 0)
(8.72796e-05 -5.33533e-05 0)
(9.49157e-05 -3.76164e-05 0)
(9.90699e-05 -2.14996e-05 0)
(9.97794e-05 -5.61269e-06 0)
(9.72329e-05 9.47666e-06 0)
(9.17093e-05 2.32521e-05 0)
(8.36057e-05 3.53259e-05 0)
(7.33523e-05 4.53475e-05 0)
(6.14379e-05 5.31572e-05 0)
(4.83864e-05 5.85932e-05 0)
(3.47206e-05 6.16937e-05 0)
(2.09375e-05 6.24928e-05 0)
(7.51147e-06 6.11706e-05 0)
(-5.11997e-06 5.79345e-05 0)
(-1.66578e-05 5.30519e-05 0)
(-2.67667e-05 4.68336e-05 0)
(-3.52238e-05 3.9577e-05 0)
(-4.19038e-05 3.16268e-05 0)
(-4.67033e-05 2.33149e-05 0)
(-4.96155e-05 1.49362e-05 0)
(-5.06803e-05 6.78648e-06 0)
(-5.00226e-05 -9.04594e-07 0)
(-4.77916e-05 -7.90233e-06 0)
(-4.41685e-05 -1.4046e-05 0)
(-3.93726e-05 -1.91937e-05 0)
(-3.36404e-05 -2.32776e-05 0)
(-2.72301e-05 -2.62424e-05 0)
(-2.03942e-05 -2.80952e-05 0)
(-1.33791e-05 -2.88464e-05 0)
(-6.4213e-06 -2.85876e-05 0)
(2.56739e-07 -2.73738e-05 0)
(6.46514e-06 -2.53509e-05 0)
(1.20392e-05 -2.2626e-05 0)
(1.68368e-05 -1.93417e-05 0)
(2.07562e-05 -1.56429e-05 0)
(2.37156e-05 -1.16716e-05 0)
(2.5676e-05 -7.56048e-06 0)
(2.66339e-05 -3.45019e-06 0)
(2.66006e-05 5.33721e-07 0)
(2.56192e-05 4.29171e-06 0)
(2.37595e-05 7.71998e-06 0)
(2.11099e-05 1.07411e-05 0)
(1.77761e-05 1.32921e-05 0)
(1.38805e-05 1.53225e-05 0)
(9.55067e-06 1.68085e-05 0)
(4.92637e-06 1.77282e-05 0)
(1.37405e-07 1.80896e-05 0)
(-4.67027e-06 1.79132e-05 0)
(-9.34756e-06 1.72305e-05 0)
(-1.37841e-05 1.60778e-05 0)
(-1.78615e-05 1.45101e-05 0)
(-2.14722e-05 1.25782e-05 0)
(-2.45257e-05 1.03497e-05 0)
(-2.69474e-05 7.89147e-06 0)
(-2.868e-05 5.27431e-06 0)
(-2.96793e-05 2.56486e-06 0)
(-2.99225e-05 -1.6076e-07 0)
(-2.94077e-05 -2.8472e-06 0)
(-2.81442e-05 -5.42429e-06 0)
(-2.6155e-05 -7.83477e-06 0)
(-2.3487e-05 -1.00283e-05 0)
(-2.01971e-05 -1.19508e-05 0)
(-1.63585e-05 -1.35549e-05 0)
(-1.20603e-05 -1.48058e-05 0)
(-7.40247e-06 -1.56644e-05 0)
(-2.49862e-06 -1.61035e-05 0)
(5.07705e-05 -0.000609127 0)
(0.000151605 -0.000591069 0)
(0.000250038 -0.000555264 0)
(0.000344013 -0.000501551 0)
(0.00043119 -0.000430425 0)
(0.000510133 -0.00034304 0)
(0.000578185 -0.000240648 0)
(0.000634916 -0.000126227 0)
(0.000677839 -1.41929e-06 0)
(0.000705163 0.000128412 0)
(0.000715637 0.000260062 0)
(0.000705864 0.00038891 0)
(0.000676861 0.000511446 0)
(0.000629978 0.000624699 0)
(0.000566679 0.000726046 0)
(0.000488049 0.00081326 0)
(0.00039617 0.000884489 0)