/*--------------------------------*- C++ -*----------------------------------*\
  =========                 |
  \\      /  F ield         | OpenFOAM: The Open Source CFD Toolbox
   \\    /   O peration     | Website:  https://openfoam.org
    \\  /    A nd           | Version:  12
     \\/     M anipulation  |
\*---------------------------------------------------------------------------*/
FoamFile
{
    format      ascii;
    class       volScalarField;
    location    "0.07";
    object      epsilon;
}
// * * * * * * * * * * * * * * * * * * * * * * * * * * * * * * * * * * * * * //

dimensions      [0 2 -3 0 0 0 0];

internalField   nonuniform List<scalar> 
12225
(
278.515
263.66
249.434
236.84
226.741
219.49
215.082
213.285
213.742
216.046
219.796
224.623
230.211
236.302
242.707
249.267
256.126
266.391
61.1169
86.6989
97.9992
107.223
118.493
132.606
149.492
168.741
189.775
211.975
234.757
257.626
280.199
302.219
323.705
344.582
367.457
387.86
25.2777
36.1838
43.3839
48.6259
53.3952
58.3516
63.7962
69.8663
76.589
83.9186
91.7689
100.037
108.621
117.44
126.465
135.75
145.646
156.341
17.5218
21.2989
24.7155
27.6121
30.1657
32.5464
34.8768
37.2437
39.7009
42.276
44.9782
47.8055
50.7511
53.8105
56.9888
60.3235
63.8798
67.7667
15.4879
16.7521
18.1863
19.5898
20.9112
22.1519
23.331
24.4722
25.5969
26.7205
27.8536
29.0028
30.1726
31.3675
32.5939
33.866
35.2012
36.6133
14.9085
15.2397
15.7465
16.3345
16.9484
17.5603
18.1581
18.739
19.3052
19.86
20.4068
20.9487
21.4886
22.0293
22.5743
23.129
23.6986
24.2804
14.7451
14.7391
14.8342
15.0038
15.2219
15.4686
15.7296
15.9965
16.2644
16.5311
16.7955
17.0574
17.3173
17.5758
17.8341
18.0941
18.3573
18.62
14.7013
14.5825
14.5116
14.4858
14.4982
14.5405
14.6047
14.6844
14.7748
14.8725
14.975
15.0808
15.1889
15.2988
15.4104
15.5237
15.6391
15.7537
14.6901
14.5373
14.407
14.3008
14.2182
14.1571
14.1146
14.0877
14.0736
14.0699
14.0745
14.086
14.103
14.1246
14.1503
14.1795
14.2119
14.2459
14.6874
14.5252
14.3761
14.2411
14.1203
14.0136
13.9202
13.839
13.7688
13.7084
13.6566
13.6124
13.5748
13.5432
13.5168
13.4951
13.4777
13.4637
14.6868
14.5221
14.3677
14.2236
14.0895
13.9655
13.8511
13.7458
13.6493
13.5609
13.48
13.406
13.3383
13.2766
13.2202
13.1689
13.1222
13.0798
14.6866
14.5213
14.3656
14.219
14.0812
13.9518
13.8304
13.7167
13.6103
13.5108
13.4179
13.3311
13.2501
13.1745
13.104
13.0383
12.9771
12.9205
14.6865
14.521
14.3648
14.2175
14.0785
13.9472
13.8233
13.7064
13.5961
13.492
13.3938
13.3013
13.214
13.1317
13.0541
12.981
12.9122
12.848
14.6864
14.5208
14.3645
14.2169
14.0774
13.9456
13.8209
13.7028
13.5911
13.4853
13.3851
13.2902
13.2003
13.1151
13.0343
12.9578
12.8853
12.8174
14.6864
14.5207
14.3643
14.2165
14.0769
13.9449
13.8199
13.7016
13.5894
13.4831
13.3823
13.2867
13.1959
13.1097
13.0279
12.9502
12.8764
12.807
14.6863
14.5206
14.3641
14.2163
14.0766
13.9444
13.8193
13.7009
13.5886
13.4822
13.3812
13.2854
13.1944
13.1079
13.0258
12.9477
12.8735
12.8037
14.6863
14.5205
14.364
14.2161
14.0763
13.9441
13.8189
13.7004
13.5881
13.4816
13.3805
13.2846
13.1935
13.107
13.0247
12.9465
12.8722
12.8022
14.6863
14.5204
14.3639
14.216
14.0761
13.9439
13.8187
13.7001
13.5877
13.4812
13.3801
13.2841
13.1929
13.1063
13.024
12.9457
12.8713
12.8012
14.6863
14.5204
14.3639
14.2159
14.0761
13.9438
13.8186
13.7
13.5876
13.481
13.3799
13.2839
13.1927
13.106
13.0237
12.9453
12.8708
12.8007
14.6863
14.5205
14.3639
14.216
14.0762
13.9439
13.8188
13.7002
13.5878
13.4813
13.3802
13.2842
13.193
13.1064
13.0241
12.9458
12.8713
12.8012
14.6863
14.5205
14.364
14.2162
14.0764
13.9443
13.8192
13.7008
13.5886
13.4822
13.3814
13.2856
13.1948
13.1085
13.0265
12.9486
12.8746
12.805
14.6863
14.5206
14.3643
14.2167
14.0774
13.9458
13.8214
13.704
13.593
13.488
13.3888
13.2949
13.2061
13.1221
13.0426
12.9673
12.896
12.8292
14.6865
14.5212
14.3659
14.2202
14.0837
13.9561
13.8369
13.7256
13.6219
13.5251
13.4349
13.3507
13.2721
13.1988
13.1302
13.0661
13.0061
12.9506
14.6876
14.5264
14.3794
14.2467
14.1282
14.0231
13.9302
13.8484
13.7762
13.7126
13.6564
13.6066
13.5626
13.5235
13.4887
13.4577
13.4301
13.406
14.6976
14.5664
14.4707
14.4075
14.3714
14.3567
14.3583
14.3717
14.3937
14.4219
14.4544
14.49
14.5277
14.5669
14.6071
14.6481
14.6895
14.7313
14.7737
14.8186
14.9602
15.159
15.386
15.6229
15.8592
16.0896
16.3124
16.5271
16.7341
16.9344
17.1288
17.3181
17.5031
17.6843
17.8623
18.0367
15.2587
16.1151
17.071
17.9723
18.7872
19.5228
20.193
20.8129
21.3962
21.9539
22.4945
23.0239
23.5465
24.0653
24.5818
25.097
25.6111
26.1216
18.0414
22.0077
24.9881
27.1524
28.8869
30.4026
31.809
33.1736
34.5372
35.9224
37.3403
38.7946
40.2846
41.8062
43.3539
44.9214
46.5021
48.0832
34.0237
45.6868
51.3749
54.9393
58.0759
61.2903
64.7395
68.4672
72.4575
76.6674
81.0466
85.5456
90.1179
94.7219
99.3222
103.89
108.409
112.854
163.308
157.417
151.704
146.261
141.3
136.946
133.249
130.204
127.777
125.914
124.552
123.628
123.082
122.856
122.9
123.166
123.617
124.214
11.9196
4.78848
5.96067
6.85987
7.54548
8.05425
8.41298
8.64432
8.77184
8.82259
8.82378
8.81627
8.83241
8.86253
8.89589
8.92938
8.95868
8.76422
8.9652
8.83187
8.98843
38.488
39.1145
39.051
38.6386
39.2209
44.8393
52.1697
60.6938
70.223
80.5745
91.5583
102.995
114.725
126.612
138.543
150.426
162.193
173.791
185.188
196.365
207.317
218.049
228.572
238.906
249.072
259.094
268.999
278.811
288.556
298.258
307.94
317.624
327.329
337.075
346.878
356.754
366.717
376.78
386.953
397.247
407.67
418.228
428.929
439.775
450.771
461.918
473.218
484.669
496.271
508.02
519.914
531.948
544.116
556.411
568.826
581.354
593.986
606.714
619.532
632.439
645.437
658.543
671.793
685.259
698.732
712.181
725.595
738.952
752.231
765.406
778.452
791.34
804.042
816.528
828.768
840.731
852.384
863.697
874.637
885.171
895.267
904.895
914.023
922.621
930.662
938.119
944.967
951.184
956.752
961.653
965.877
969.413
972.258
974.412
975.878
976.665
976.788
976.265
975.117
973.372
971.061
968.219
964.883
961.094
956.894
952.327
947.437
942.271
936.871
931.283
925.548
919.706
913.795
907.848
901.895
895.963
890.077
884.254
878.506
872.842
867.265
861.772
856.36
851.012
845.706
840.418
835.123
829.781
824.333
818.747
812.971
806.908
800.549
793.957
788.58
790.586
794.941
799.6
804.281
808.809
813.014
816.712
819.701
821.766
822.679
822.202
820.095
816.124
810.06
801.696
790.838
777.318
760.978
741.652
719.131
692.933
662.311
623.717
576.711
14.5973
10.7182
10.226
10.0726
9.9441
9.80455
9.66128
9.52654
9.40883
9.31206
9.24026
9.20448
9.22771
9.35217
9.633
10.1475
11.0734
12.9705
14.4973
17.6347
20.974
25.9479
30.3173
34.8007
39.7042
44.5367
49.5363
54.5834
59.6346
64.6518
69.5994
74.4527
79.201
83.8447
88.3903
92.8472
97.2252
101.534
105.781
109.975
114.124
118.233
122.31
126.361
130.392
134.411
138.422
142.433
146.448
150.474
154.516
158.578
162.666
166.783
170.935
175.123
179.353
183.626
187.946
192.314
196.733
201.204
205.728
210.307
214.939
219.627
224.369
229.164
234.013
238.913
243.864
248.863
253.908
258.999
264.131
269.302
274.511
279.756
285.034
290.345
295.691
301.076
306.506
311.993
317.584
323.207
328.827
334.434
340.019
345.574
351.09
356.557
361.966
367.306
372.567
377.737
382.806
387.762
392.593
397.288
401.836
406.224
410.44
414.475
418.316
421.953
425.377
428.578
431.547
434.278
436.764
439
440.981
442.705
444.172
445.381
446.335
447.036
447.491
447.706
447.688
447.448
446.994
446.34
445.498
444.48
443.301
441.975
440.515
438.936
437.251
435.475
433.62
431.699
429.722
427.7
425.642
423.558
421.455
419.338
417.212
415.079
412.942
410.802
408.657
406.501
404.332
402.144
399.926
397.661
395.35
392.976
390.494
387.967
385.476
383.422
382.655
382.353
382.072
381.672
381.072
380.202
378.991
377.364
375.247
372.56
369.229
365.179
360.343
354.662
348.087
340.586
332.14
322.749
312.431
301.239
289.228
276.741
263.979
258.105
21.048
14.7021
13.1603
12.4085
11.8947
11.494
11.1707
10.9138
10.7218
10.5985
10.558
10.6174
10.7998
11.1624
11.7889
12.7917
14.3287
16.6392
19.6976
23.5368
27.8727
32.4623
36.9262
41.1523
45.1607
48.9763
52.6568
56.2334
59.7414
63.2076
66.6455
70.0618
73.4607
76.845
80.2159
83.5736
86.9172
90.2454
93.557
96.8518
100.13
103.393
106.642
109.879
113.109
116.334
119.558
122.783
126.015
129.255
132.509
135.778
139.066
142.376
145.71
149.071
152.461
155.883
159.337
162.826
166.35
169.912
173.511
177.148
180.824
184.539
188.293
192.085
195.916
199.784
203.69
207.631
211.609
215.621
219.666
223.745
227.856
232
236.175
240.383
244.626
248.904
253.22
257.577
261.97
266.373
270.776
275.171
279.551
283.911
288.243
292.542
296.799
301.008
305.16
309.248
313.264
317.199
321.044
324.791
328.432
331.957
335.358
338.626
341.753
344.731
347.552
350.209
352.695
355.004
357.13
359.07
360.818
362.373
363.733
364.897
365.866
366.641
367.225
367.622
367.836
367.874
367.743
367.449
367.001
366.408
365.679
364.824
363.851
362.772
361.595
360.33
358.986
357.571
356.094
354.562
352.983
351.363
349.709
348.024
346.315
344.584
342.836
341.072
339.294
337.499
335.692
333.871
332.028
330.153
328.263
326.348
324.397
322.439
320.532
318.831
317.53
316.393
315.236
313.965
312.516
310.835
308.871
306.568
303.871
300.725
297.075
292.868
288.057
282.602
276.473
269.653
262.139
253.946
245.112
235.712
225.865
215.882
206.304
199.247
27.8939
18.0465
15.4704
14.2779
13.5457
13.0303
12.6485
12.3709
12.1919
12.1215
12.1855
12.3911
12.7853
13.443
14.4786
16.0054
18.1333
20.9485
24.4201
28.3867
32.5791
36.719
40.6005
44.1567
47.4326
50.5172
53.4946
56.4266
59.3557
62.3062
65.2874
68.2997
71.3394
74.4014
77.4801
80.5702
83.6666
86.7651
89.8623
92.9559
96.0442
99.1269
102.204
105.276
108.345
111.413
114.481
117.552
120.629
123.714
126.809
129.918
133.042
136.185
139.348
142.534
145.744
148.982
152.248
155.544
158.871
162.231
165.625
169.053
172.516
176.014
179.549
183.119
186.725
190.368
194.046
197.759
201.508
205.291
209.108
212.96
216.845
220.763
224.715
228.7
232.717
236.767
240.849
244.961
249.091
253.228
257.365
261.497
265.619
269.723
273.805
277.859
281.877
285.853
289.78
293.65
297.457
301.193
304.849
308.418
311.891
315.261
318.519
321.658
324.668
327.544
330.276
332.858
335.284
337.546
339.64
341.56
343.303
344.865
346.243
347.437
348.446
349.271
349.913
350.375
350.661
350.776
350.724
350.514
350.151
349.643
348.998
348.226
347.333
346.33
345.225
344.026
342.742
341.381
339.951
338.458
336.911
335.316
333.679
332.004
330.297
328.564
326.809
325.035
323.242
321.431
319.613
317.786
315.946
314.091
312.227
310.352
308.465
306.583
304.739
302.997
301.406
299.873
298.301
296.622
294.783
292.737
290.438
287.84
284.893
281.548
277.758
273.476
268.66
263.276
257.297
250.711
243.518
235.738
227.416
218.632
209.522
200.361
191.592
184.198
34.8536
21.2612
17.754
16.1985
15.3021
14.7133
14.3087
14.0444
13.9136
13.9346
14.1143
14.4858
15.1031
16.0405
17.3873
19.229
21.6212
24.5584
27.944
31.5959
35.2941
38.8479
42.1495
45.188
48.0233
50.7406
53.4151
56.099
58.8226
61.5992
64.4311
67.3143
70.2427
73.2097
76.2089
79.2345
82.281
85.3438
88.4191
91.5034
94.5942
97.6896
100.788
103.89
106.994
110.101
113.213
116.33
119.453
122.586
125.729
128.885
132.057
135.245
138.454
141.684
144.937
148.217
151.524
154.861
158.229
161.629
165.062
168.531
172.034
175.575
179.152
182.766
186.419
190.109
193.836
197.602
201.405
205.245
209.123
213.037
216.987
220.972
224.993
229.047
233.135
237.253
241.402
245.572
249.757
253.948
258.141
262.331
266.51
270.675
274.818
278.934
283.016
287.058
291.052
294.991
298.868
302.675
306.403
310.046
313.594
317.039
320.374
323.59
326.679
329.632
332.443
335.103
337.606
339.944
342.113
344.105
345.917
347.545
348.986
350.237
351.298
352.169
352.85
353.344
353.654
353.785
353.741
353.528
353.153
352.624
351.949
351.136
350.194
349.13
347.955
346.679
345.308
343.852
342.317
340.713
339.048
337.329
335.561
333.749
331.899
330.021
328.119
326.196
324.255
322.298
320.331
318.356
316.373
314.382
312.384
310.381
308.373
306.369
304.385
302.447
300.561
298.682
296.749
294.711
292.523
290.144
287.531
284.642
281.432
277.857
273.872
269.434
264.507
259.057
253.064
246.515
239.416
231.79
223.685
215.186
206.427
197.653
189.192
181.604
41.7592
24.5026
20.1575
18.2916
17.263
16.6263
16.2212
15.9909
15.9256
16.031
16.3105
16.8061
17.5712
18.6675
20.1565
22.0831
24.4547
27.2228
30.2788
33.4726
36.6519
39.7035
42.5777
45.2869
47.883
50.4289
52.9777
55.5652
58.2105
60.921
63.6966
66.5337
69.4274
72.3722
75.363
78.3949
81.463
84.5628
87.69
90.8407
94.0113
97.1989
100.401
103.615
106.841
110.077
113.322
116.579
119.846
123.125
126.418
129.725
133.05
136.393
139.758
143.145
146.558
149.998
153.468
156.968
160.501
164.069
167.673
171.314
174.994
178.713
182.472
186.272
190.113
193.995
197.919
201.885
205.892
209.941
214.029
218.158
222.327
226.533
230.777
235.056
239.369
243.714
248.088
252.479
256.884
261.295
265.708
270.116
274.515
278.898
283.258
287.59
291.887
296.14
300.343
304.488
308.568
312.574
316.497
320.331
324.065
327.691
331.201
334.586
337.837
340.947
343.906
346.708
349.344
351.806
354.089
356.187
358.093
359.804
361.316
362.627
363.734
364.638
365.339
365.838
366.139
366.246
366.163
365.897
365.454
364.842
364.07
363.146
362.08
360.879
359.555
358.118
356.578
354.941
353.214
351.411
349.541
347.611
345.627
343.594
341.52
339.413
337.277
335.118
332.939
330.745
328.538
326.322
324.098
321.867
319.629
317.385
315.134
312.88
310.629
308.387
306.149
303.886
301.556
299.118
296.535
293.769
290.782
287.534
283.985
280.096
275.824
271.134
265.991
260.367
254.246
247.62
240.497
232.907
224.899
216.56
208.017
199.479
191.184
183.467
48.5676
27.8461
22.7092
20.5555
19.4132
18.74
18.3425
18.1483
18.1386
18.2873
18.6206
19.175
19.9935
21.1205
22.5923
24.4252
26.6025
29.0679
31.7304
34.4828
37.2278
39.9009
42.4796
44.9786
47.4338
49.8859
52.3689
54.9055
57.5084
60.1826
62.9289
65.7454
68.6293
71.5773
74.5859
77.6512
80.7692
83.9356
87.146
90.3962
93.6818
96.9989
100.344
103.714
107.106
110.519
113.95
117.4
120.868
124.354
127.859
131.384
134.93
138.499
142.093
145.715
149.365
153.046
156.76
160.508
164.294
168.118
171.983
175.889
179.838
183.831
187.868
191.952
196.081
200.257
204.479
208.748
213.062
217.423
221.829
226.278
230.771
235.305
239.879
244.49
249.138
253.819
258.524
263.246
267.98
272.719
277.459
282.192
286.912
291.614
296.289
300.932
305.533
310.086
314.582
319.013
323.372
327.648
331.834
335.92
339.897
343.756
347.489
351.085
354.537
357.835
360.97
363.935
366.72
369.319
371.723
373.927
375.925
377.713
379.285
380.638
381.771
382.683
383.374
383.846
384.101
384.144
383.979
383.612
383.051
382.304
381.38
380.289
379.04
377.639
376.103
374.442
372.666
370.784
368.805
366.739
364.597
362.387
360.117
357.794
355.424
353.016
350.576
348.108
345.618
343.109
340.585
338.049
335.502
332.944
330.376
327.796
325.203
322.595
319.974
317.335
314.671
311.957
309.163
306.256
303.203
299.97
296.523
292.828
288.847
284.547
279.891
274.848
269.39
263.496
257.155
250.365
243.143
235.518
227.547
219.314
210.935
202.585
194.426
186.658
54.9289
31.1909
25.2908
22.8613
21.6137
20.9114
20.5237
20.3601
20.3628
20.5271
20.872
21.4251
22.2178
23.2797
24.6308
26.2734
28.1861
30.322
32.6151
34.9942
37.3981
39.7884
42.1525
44.4994
46.8503
49.2293
51.6571
54.1484
56.7122
59.3535
62.0741
64.8747
67.7545
70.7123
73.746
76.8532
80.0305
83.2743
86.5802
89.9438
93.3605
96.8256
100.335
103.884
107.47
111.09
114.74
118.42
122.128
125.864
129.628
133.419
137.24
141.09
144.972
148.887
152.837
156.825
160.851
164.918
169.027
173.181
177.381
181.629
185.925
190.271
194.668
199.117
203.618
208.171
212.776
217.433
222.141
226.901
231.71
236.568
241.473
246.422
251.415
256.448
261.518
266.622
271.746
276.885
282.033
287.183
292.33
297.466
302.585
307.678
312.737
317.756
322.724
327.635
332.478
337.245
341.927
346.515
350.999
355.37
359.617
363.732
367.704
371.525
375.184
378.673
381.984
385.106
388.032
390.754
393.263
395.553
397.619
399.454
401.056
402.419
403.542
404.424
405.065
405.466
405.63
405.562
405.266
404.75
404.018
403.081
401.951
400.637
399.149
397.497
395.694
393.752
391.682
389.495
387.2
384.81
382.334
379.782
377.162
374.484
371.753
368.979
366.167
363.324
360.453
357.559
354.645
351.714
348.766
345.802
342.82
339.818
336.792
333.739
330.654
327.531
324.358
321.116
317.78
314.322
310.713
306.923
302.924
298.684
294.173
289.361
284.22
278.725
272.856
266.602
259.957
252.93
245.543
237.835
229.861
221.706
213.472
205.305
197.301
189.572
60.5518
34.2672
27.7052
25.038
23.7019
22.9764
22.5954
22.4331
22.434
22.5926
22.919
23.4318
24.1522
25.0997
26.2859
27.7101
29.355
31.1881
33.1655
35.2413
37.3763
39.5449
41.737
43.9551
46.2098
48.5141
50.8805
53.3189
55.8368
58.4393
61.1301
63.9114
66.7847
69.7506
72.8087
75.9577
79.1953
82.5185
85.9235
89.4058
92.9608
96.5836
100.269
104.013
107.811
111.659
115.554
119.493
123.474
127.496
131.557
135.658
139.798
143.979
148.201
152.465
156.774
161.128
165.529
169.979
174.479
179.032
183.638
188.3
193.017
197.792
202.624
207.515
212.465
217.474
222.541
227.667
232.85
238.089
243.383
248.73
254.128
259.575
265.067
270.602
276.177
281.779
287.398
293.027
298.661
304.292
309.913
315.516
321.093
326.633
332.129
337.572
342.951
348.258
353.483
358.615
363.645
368.564
373.36
378.025
382.546
386.915
391.122
395.155
399.007
402.667
406.128
409.381
412.416
415.225
417.801
420.136
422.225
424.063
425.646
426.969
428.03
428.828
429.365
429.64
429.658
429.421
428.938
428.214
427.257
426.077
424.685
423.092
421.308
419.346
417.218
414.936
412.513
409.961
407.292
404.516
401.646
398.691
395.661
392.565
389.411
386.207
382.959
379.673
376.355
373.007
369.634
366.236
362.813
359.366
355.891
352.384
348.842
345.257
341.623
337.931
334.167
330.315
326.353
322.258
318.004
313.566
308.919
304.037
298.896
293.473
287.747
281.703
275.331
268.627
261.599
254.265
246.656
238.817
230.81
222.713
214.62
206.645
198.837
191.245
65.3601
36.9568
29.8276
26.9551
25.5416
24.7935
24.4025
24.2279
24.2209
24.3651
24.6615
25.1203
25.7553
26.5799
27.6025
28.8236
30.2332
31.8114
33.531
35.3626
37.2803
39.2652
41.3075
43.4051
45.5618
47.7842
50.0797
52.4559
54.9193
57.4758
60.1303
62.887
65.7492
68.7191
71.798
74.986
78.2819
81.6836
85.188
88.7913
92.489
96.2761
100.148
104.099
108.124
112.22
116.382
120.607
124.891
129.233
133.63
138.082
142.589
147.149
151.764
156.433
161.159
165.941
170.782
175.681
180.642
185.664
190.749
195.898
201.112
206.392
211.737
217.149
222.627
228.171
233.781
239.455
245.193
250.992
256.852
262.769
268.74
274.764
280.835
286.95
293.104
299.275
305.457
311.643
317.827
323.999
330.151
336.274
342.356
348.388
354.359
360.259
366.077
371.803
377.425
382.934
388.318
393.567
398.67
403.616
408.395
412.997
417.408
421.622
425.627
429.417
432.981
436.313
439.404
442.245
444.826
447.143
449.191
450.966
452.463
453.68
454.61
455.255
455.618
455.699
455.503
455.034
454.299
453.304
452.059
450.573
448.857
446.923
444.782
442.448
439.934
437.253
434.417
431.441
428.337
425.116
421.791
418.373
414.872
411.298
407.659
403.963
400.216
396.425
392.594
388.727
384.825
380.891
376.923
372.919
368.876
364.788
360.65
356.453
352.188
347.845
343.41
338.867
334.198
329.381
324.396
319.22
313.833
308.215
302.349
296.219
289.814
283.128
276.162
268.926
261.439
253.73
245.842
237.829
229.756
221.702
213.747
205.981
198.417
191.057
69.2928
39.1842
31.577
28.5253
27.0398
26.2561
25.8409
25.6582
25.6461
25.7789
26.0495
26.4616
27.0234
27.7446
28.6325
29.6897
30.9125
32.2902
33.8071
35.4446
37.1848
39.0136
40.9213
42.9038
44.9612
47.0964
49.3147
51.6221
54.0252
56.5306
59.1447
61.8731
64.7209
67.6921
70.7895
74.0148
77.3682
80.8489
84.4547
88.1827
92.0289
95.9887
100.057
104.23
108.501
112.867
117.321
121.861
126.482
131.182
135.958
140.808
145.731
150.725
155.79
160.927
166.134
171.412
176.763
182.185
187.681
193.25
198.892
204.61
210.402
216.268
222.21
228.226
234.317
240.48
246.716
253.023
259.399
265.842
272.349
278.918
285.544
292.223
298.952
305.726
312.524
319.33
326.138
332.941
339.729
346.493
353.221
359.903
366.527
373.08
379.55
385.924
392.192
398.341
404.36
410.236
415.958
421.516
426.897
432.091
437.089
441.877
446.443
450.779
454.876
458.727
462.324
465.66
468.73
471.524
474.028
476.242
478.163
479.786
481.109
482.13
482.845
483.256
483.364
483.173
482.685
481.906
480.844
479.505
477.899
476.035
473.927
471.585
469.022
466.252
463.288
460.145
456.836
453.376
449.777
446.052
442.214
438.274
434.244
430.132
425.948
421.7
417.395
413.037
408.631
404.181
399.688
395.151
390.57
385.941
381.259
376.518
371.711
366.827
361.856
356.787
351.605
346.295
340.841
335.223
329.425
323.427
317.215
310.775
304.096
297.171
290
282.588
274.948
267.103
259.086
250.941
242.721
234.491
226.323
218.293
210.473
202.935
195.66
188.621
72.3282
40.9124
32.9149
29.7074
28.1411
27.3127
26.8823
26.6984
26.6893
26.8213
27.0812
27.4672
27.9834
28.6365
29.4328
30.3764
31.4671
32.7005
34.0678
35.5574
37.1573
38.8565
40.6471
42.5242
44.4869
46.5368
48.6782
50.9171
53.2603
55.7155
58.2903
60.992
63.8274
66.8023
69.9213
73.1877
76.6034
80.1692
83.8843
87.7467
91.7536
95.9012
100.185
104.601
109.143
113.807
118.587
123.48
128.481
133.586
138.792
144.096
149.495
154.988
160.572
166.247
172.012
177.866
183.808
189.837
195.954
202.157
208.447
214.822
221.283
227.828
234.458
241.17
247.963
254.837
261.788
268.816
275.918
283.09
290.33
297.633
304.995
312.411
319.873
327.374
334.876
342.374
349.861
357.327
364.761
372.152
379.487
386.753
393.937
401.021
407.992
414.837
421.543
428.096
434.485
440.695
446.716
452.534
458.139
463.52
468.669
473.575
478.216
482.589
486.689
490.507
494.039
497.277
500.216
502.85
505.172
507.178
508.867
510.235
511.281
512.004
512.403
512.48
512.237
511.678
510.806
509.629
508.153
506.386
504.338
502.02
499.444
496.622
493.568
490.295
486.817
483.149
479.306
475.301
471.149
466.863
462.455
457.938
453.322
448.617
443.833
438.978
434.056
429.075
424.037
418.945
413.8
408.6
403.344
398.027
392.643
387.184
381.641
376.003
370.258
364.394
358.397
352.251
345.941
339.452
332.767
325.875
318.763
311.424
303.856
296.062
288.05
279.84
271.456
262.938
254.331
245.696
237.1
228.617
220.325
212.303
204.615
197.318
190.373
183.728
74.4931
42.1474
33.8428
30.4875
28.8479
27.9895
27.5532
27.3771
27.3821
27.5291
27.7997
28.1878
28.6938
29.3214
30.0754
30.9598
31.976
33.1224
34.3943
35.7845
37.2849
38.8877
40.5868
42.3786
44.2623
46.24
48.3161
50.4973
52.7915
55.2075
57.7545
60.4412
63.2763
66.2675
69.4215
72.7435
76.2376
79.9061
83.75
87.7689
91.9613
96.3245
100.855
105.549
110.402
115.408
120.563
125.862
131.301
136.874
142.577
148.407
154.36
160.432
166.621
172.924
179.339
185.863
192.494
199.231
206.07
213.01
220.049
227.185
234.418
241.744
249.162
256.669
264.264
271.944
279.706
287.547
295.464
303.453
311.509
319.629
327.805
336.032
344.302
352.568
360.82
369.051
377.251
385.406
393.505
401.534
409.479
417.326
425.065
432.661
440.106
447.386
454.487
461.394
468.094
474.573
480.817
486.815
492.555
498.027
503.22
508.124
512.728
517.024
521.007
524.672
528.014
531.029
533.712
536.06
538.07
539.739
541.067
542.053
542.697
543.001
542.965
542.591
541.884
540.848
539.489
537.812
535.826
533.54
530.964
528.109
524.987
521.61
517.992
514.148
510.092
505.838
501.401
496.795
492.034
487.133
482.103
476.957
471.705
466.357
460.923
455.409
449.822
444.166
438.444
432.658
426.809
420.893
414.907
408.846
402.703
396.468
390.132
383.681
377.103
370.386
363.513
356.472
349.247
341.825
334.194
326.345
318.272
309.974
301.457
292.734
283.824
274.759
265.581
256.34
247.101
237.938
228.933
220.171
211.737
203.712
196.153
189.108
182.522
176.33
75.86
42.9031
34.3685
30.9125
29.2276
28.355
27.9249
27.7692
27.8042
27.9865
28.2942
28.7174
29.2529
29.9017
30.6663
31.5489
32.5509
33.6713
34.9072
36.2539
37.7059
39.2579
40.9061
42.6486
44.4861
46.4219
48.4617
50.6133
52.8863
55.2915
57.8396
60.5404
63.4048
66.4428
69.6636
73.0747
76.6824
80.4913
84.5044
88.7232
93.148
97.7774
102.609
107.641
112.867
118.284
123.888
129.672
135.631
141.761
148.056
154.51
161.118
167.877
174.78
181.824
189.004
196.316
203.757
211.321
219.002
226.799
234.706
242.721
250.84
259.059
267.375
275.785
284.283
292.868
301.535
310.279
319.097
327.984
336.934
345.941
354.998
364.1
373.187
382.245
391.266
400.239
409.15
417.986
426.731
435.37
443.886
452.262
460.482
468.523
476.369
484.005
491.413
498.579
505.488
512.125
518.477
524.533
530.28
535.708
540.809
545.573
549.992
554.061
557.776
561.133
564.129
566.762
569.033
570.938
572.48
573.658
574.474
574.93
575.028
574.771
574.163
573.209
571.912
570.279
568.317
566.033
563.435
560.534
557.338
553.86
550.112
546.106
541.856
537.376
532.679
527.782
522.696
517.438
512.021
506.457
500.76
494.94
489.009
482.976
476.849
470.635
464.34
457.967
451.519
444.996
438.398
431.721
424.961
418.11
411.161
404.103
396.925
389.614
382.155
374.535
366.74
358.756
350.569
342.168
333.544
324.692
315.613
306.313
296.805
287.113
277.269
267.317
257.313
247.325
237.433
227.726
218.3
209.251
200.671
192.64
185.214
178.429
172.225
166.525
76.4417
43.2173
34.5792
31.0777
29.3783
28.5134
28.1092
27.9946
28.0836
28.3299
28.7088
29.2071
29.8188
30.5418
31.3757
32.3209
33.3767
34.5417
35.8131
37.187
38.6596
40.2273
41.8884
43.6429
45.4935
47.4455
49.5054
51.6828
53.9901
56.4421
59.0533
61.8272
64.7803
67.9262
71.2771
74.8432
78.6336
82.6551
86.9134
91.4121
96.1533
101.138
106.364
111.831
117.536
123.473
129.638
136.026
142.631
149.445
156.464
163.678
171.082
178.668
186.429
194.358
202.448
210.692
219.082
227.611
236.272
245.059
253.965
262.984
272.11
281.338
290.661
300.075
309.573
319.151
328.804
338.525
348.311
358.154
368.049
377.988
387.962
397.899
407.786
417.611
427.363
437.028
446.592
456.038
465.349
474.507
483.493
492.29
500.878
509.237
517.349
525.197
532.762
540.03
546.985
553.613
559.9
565.836
571.408
576.609
581.43
585.865
589.909
593.558
596.811
599.666
602.125
604.188
605.858
607.137
608.03
608.54
608.671
608.43
607.821
606.849
605.521
603.844
601.824
599.468
596.785
593.782
590.469
586.856
582.952
578.77
574.32
569.616
564.67
559.496
554.107
548.517
542.739
536.787
530.674
524.412
518.013
511.488
504.846
498.096
491.246
484.302
477.268
470.147
462.941
455.649
448.27
440.798
433.229
425.554
417.764
409.848
401.792
393.585
385.209
376.653
367.901
358.939
349.758
340.346
330.7
320.819
310.709
300.383
289.866
279.19
268.4
257.554
246.724
235.993
225.457
215.219
205.388
196.069
187.359
179.338
172.057
165.545
159.736
154.549
76.469
43.2364
34.5925
31.1005
29.4277
28.6076
28.2668
28.2337
28.4208
28.7801
29.2845
29.9185
30.6735
31.5445
32.5286
33.6232
34.8259
36.1332
37.5415
39.0468
40.6455
42.3356
44.1166
45.9905
47.9615
50.0407
52.2307
54.5393
56.9844
59.5835
62.353
65.3079
68.4644
71.8385
75.4449
79.297
83.4065
87.7833
92.4353
97.3688
102.588
108.095
113.891
119.974
126.342
132.992
139.916
147.11
154.566
162.274
170.227
178.415
186.827
195.453
204.283
213.304
222.507
231.88
241.412
251.093
260.911
270.856
280.919
291.09
301.36
311.721
322.165
332.684
343.27
353.918
364.621
375.372
386.165
396.992
407.854
418.703
429.473
440.159
450.748
461.228
471.584
481.802
491.863
501.751
511.447
520.932
530.188
539.194
547.931
556.379
564.521
572.337
579.812
586.928
593.672
600.029
605.988
611.538
616.671
621.378
625.655
629.498
632.905
635.875
638.41
640.512
642.186
643.437
644.271
644.695
644.716
644.343
643.583
642.446
640.94
639.074
636.856
634.296
631.401
628.182
624.646
620.803
616.663
612.236
607.531
602.559
597.331
591.86
586.155
580.231
574.098
567.77
561.258
554.574
547.73
540.738
533.607
526.347
518.966
511.473
503.873
496.172
488.372
480.476
472.485
464.396
456.206
447.911
439.503
430.973
422.312
413.507
404.545
395.411
386.091
376.57
366.835
356.874
346.677
336.237
325.554
314.633
303.486
292.135
280.614
268.965
257.249
245.536
233.914
222.481
211.347
200.63
190.449
180.914
172.124
164.156
157.054
150.837
145.437
140.772
76.0647
43.0604
34.5232
31.12
29.5441
28.8384
28.6325
28.7557
29.1197
29.6755
30.3948
31.2607
32.2629
33.3947
34.6512
36.0277
37.5195
39.1215
40.8284
42.6355
44.5391
46.5374
48.6306
50.8249
53.1062
55.4907
57.9919
60.6252
63.4089
66.3625
69.506
72.859
76.441
80.2709
84.3666
88.7443
93.4185
98.4016
103.704
109.334
115.297
121.597
128.234
135.208
142.516
150.152
158.11
166.38
174.953
183.816
192.957
202.362
212.017
221.905
232.012
242.322
252.818
263.485
274.306
285.267
296.352
307.548
318.84
330.217
341.666
353.176
364.737
376.34
387.976
399.637
411.319
423.009
434.714
446.392
457.966
469.418
480.738
491.913
502.93
513.775
524.434
534.89
545.125
555.123
564.865
574.332
583.506
592.367
600.896
609.075
616.886
624.312
631.337
637.947
644.128
649.867
655.156
659.985
664.349
668.241
671.661
674.607
677.081
679.086
680.627
681.711
682.345
682.54
682.305
681.652
680.592
679.138
677.302
675.096
672.532
669.621
666.376
662.808
658.926
654.741
650.263
645.501
640.466
635.166
629.612
623.811
617.775
611.513
605.034
598.35
591.47
584.404
577.163
569.756
562.193
554.482
546.634
538.655
530.551
522.33
513.996
505.552
497
488.341
479.575
470.698
461.706
452.593
443.352
433.972
424.443
414.751
404.884
394.826
384.563
374.082
363.369
352.413
341.209
329.753
318.049
306.108
293.949
281.604
269.116
256.542
243.954
231.439
219.097
207.043
195.401
184.3
173.863
164.204
155.419
147.573
140.702
134.811
129.828
125.677
75.3705
42.8117
34.5068
31.2969
29.9209
29.4367
29.479
29.8781
30.5457
31.4329
32.5113
33.7639
35.1805
36.7538
38.4778
40.3463
42.3527
44.49
46.7511
49.1299
51.6222
54.2277
56.9208
59.7044
62.5867
65.5816
68.7051
71.9761
75.4152
79.0449
82.8881
86.9677
91.3063
95.9255
100.846
106.085
111.66
117.585
123.87
130.525
137.555
144.963
152.748
160.908
169.437
178.327
187.566
197.143
207.041
217.245
227.737
238.496
249.503
260.738
272.179
283.804
295.594
307.527
319.583
331.744
343.99
356.305
368.671
381.075
393.504
405.944
418.383
430.818
443.232
455.615
467.99
480.292
492.447
504.437
516.252
527.881
539.31
550.529
561.525
572.283
582.789
593.029
602.985
612.642
621.983
630.991
639.647
647.934
655.836
663.335
670.415
677.062
683.261
688.999
694.266
699.051
703.347
707.149
710.452
713.255
715.558
717.364
718.678
719.506
719.858
719.743
719.173
718.162
716.725
714.875
712.628
710