/*--------------------------------*- C++ -*----------------------------------*\
  =========                 |
  \\      /  F ield         | OpenFOAM: The Open Source CFD Toolbox
   \\    /   O peration     | Website:  https://openfoam.org
    \\  /    A nd           | Version:  12
     \\/     M anipulation  |
\*---------------------------------------------------------------------------*/
FoamFile
{
    format      ascii;
    class       volScalarField;
    location    "0.07";
    object      k;
}
// * * * * * * * * * * * * * * * * * * * * * * * * * * * * * * * * * * * * * //

dimensions      [0 2 -2 0 0 0 0];

internalField   nonuniform List<scalar> 
12225
(
0.353921
0.335043
0.316967
0.300962
0.288129
0.278915
0.273314
0.271031
0.271611
0.27454
0.279305
0.285439
0.292542
0.300282
0.308423
0.316761
0.325478
0.338519
0.436865
0.448983
0.438093
0.433079
0.438824
0.453652
0.47491
0.50015
0.527388
0.555144
0.582396
0.608493
0.63308
0.656015
0.677526
0.697526
0.719402
0.735389
0.395186
0.410872
0.410629
0.405747
0.402015
0.400936
0.402639
0.40685
0.413151
0.421086
0.430226
0.440198
0.450704
0.461521
0.472564
0.483778
0.495781
0.507735
0.379641
0.384839
0.386545
0.38573
0.383906
0.382029
0.380573
0.37975
0.379625
0.38018
0.381353
0.383067
0.385246
0.387827
0.390782
0.394112
0.397925
0.402136
0.374976
0.3759
0.376239
0.37572
0.374569
0.373083
0.371495
0.369967
0.368595
0.367432
0.366496
0.365791
0.365308
0.365038
0.364978
0.365133
0.365522
0.366121
0.373488
0.372554
0.371758
0.370806
0.369629
0.368273
0.366806
0.365297
0.363799
0.362354
0.360987
0.359713
0.358541
0.357476
0.356521
0.355682
0.354966
0.354369
0.373012
0.371296
0.369812
0.368415
0.367023
0.365607
0.364164
0.362706
0.361251
0.359816
0.358416
0.357062
0.355763
0.354524
0.353351
0.352248
0.351221
0.350277
0.372865
0.370838
0.369004
0.367309
0.365709
0.364171
0.362675
0.36121
0.359775
0.358372
0.357003
0.355674
0.354386
0.353144
0.35195
0.350809
0.349724
0.348708
0.37282
0.37068
0.368691
0.366835
0.365093
0.363446
0.361876
0.36037
0.358921
0.357522
0.356171
0.354865
0.353605
0.35239
0.351221
0.3501
0.349028
0.348018
0.372806
0.370628
0.368577
0.366647
0.364827
0.363108
0.361479
0.359929
0.358451
0.357037
0.355683
0.354384
0.353138
0.351941
0.350794
0.349695
0.348645
0.347655
0.372801
0.37061
0.368536
0.366575
0.364719
0.362962
0.361296
0.359714
0.35821
0.356777
0.355411
0.354107
0.352861
0.351671
0.350533
0.349446
0.348409
0.347433
0.372799
0.370603
0.368522
0.366549
0.364679
0.362905
0.361222
0.359624
0.358104
0.356658
0.355281
0.353969
0.352719
0.351526
0.350389
0.349304
0.348271
0.347299
0.372797
0.370599
0.368514
0.366536
0.36466
0.362878
0.361186
0.359578
0.35805
0.356595
0.355211
0.353892
0.352637
0.35144
0.3503
0.349214
0.34818
0.347208
0.372796
0.370596
0.368509
0.366528
0.364648
0.362863
0.361166
0.359553
0.358019
0.35656
0.35517
0.353847
0.352587
0.351387
0.350244
0.349154
0.348117
0.347142
0.372795
0.370594
0.368505
0.366523
0.364641
0.362853
0.361154
0.359538
0.358001
0.356539
0.355146
0.353821
0.352558
0.351355
0.350209
0.349116
0.348076
0.347098
0.372795
0.370592
0.368502
0.366518
0.364635
0.362845
0.361144
0.359527
0.357989
0.356525
0.355131
0.353803
0.352539
0.351334
0.350186
0.349091
0.348048
0.347067
0.372794
0.37059
0.368499
0.366515
0.36463
0.362839
0.361138
0.359519
0.35798
0.356514
0.355119
0.353791
0.352525
0.351319
0.350169
0.349072
0.348028
0.347044
0.372794
0.37059
0.368498
0.366513
0.364627
0.362836
0.361133
0.359514
0.357973
0.356507
0.355111
0.353782
0.352515
0.351307
0.350156
0.349058
0.348012
0.347027
0.372793
0.370589
0.368497
0.366512
0.364626
0.362834
0.361131
0.359512
0.357971
0.356505
0.355108
0.353778
0.35251
0.351302
0.35015
0.349051
0.348004
0.347019
0.372794
0.37059
0.368498
0.366513
0.364628
0.362837
0.361134
0.359515
0.357975
0.356509
0.355112
0.353783
0.352515
0.351307
0.350155
0.349056
0.348009
0.347024
0.372794
0.370591
0.3685
0.366516
0.364632
0.362842
0.361141
0.359523
0.357984
0.35652
0.355125
0.353797
0.352531
0.351324
0.350174
0.349076
0.348031
0.347046
0.372795
0.370593
0.368504
0.366522
0.364642
0.362856
0.36116
0.359547
0.358014
0.356555
0.355166
0.353843
0.352583
0.351381
0.350235
0.349141
0.348099
0.347117
0.372796
0.370598
0.368518
0.366548
0.364682
0.362913
0.361236
0.359644
0.358129
0.356688
0.355315
0.354005
0.352756
0.351562
0.350421
0.349331
0.348289
0.347306
0.372804
0.370631
0.368592
0.366677
0.364873
0.363167
0.361549
0.360008
0.358534
0.357124
0.35577
0.354471
0.353224
0.352025
0.350874
0.349768
0.348708
0.347705
0.372855
0.370818
0.368973
0.367264
0.365646
0.364086
0.362568
0.361085
0.359633
0.358216
0.356836
0.355497
0.354201
0.352951
0.351749
0.350596
0.349493
0.348451
0.373166
0.37177
0.370579
0.369371
0.36805
0.366606
0.365073
0.363494
0.361907
0.360344
0.358828
0.357374
0.355993
0.354691
0.35347
0.352331
0.351274
0.350304
0.374797
0.375829
0.376175
0.375401
0.373834
0.371876
0.369792
0.36774
0.365813
0.364065
0.362522
0.361192
0.360071
0.359151
0.358417
0.357854
0.357445
0.357176
0.382729
0.391671
0.392377
0.388807
0.384385
0.380403
0.377246
0.374993
0.373613
0.373027
0.373136
0.373844
0.375055
0.376681
0.378643
0.380872
0.383307
0.385879
0.407499
0.414512
0.405421
0.395987
0.390546
0.389276
0.391431
0.396179
0.402785
0.410658
0.419346
0.428511
0.437899
0.447321
0.456642
0.465768
0.474654
0.483215
0.360554
0.347547
0.334933
0.322917
0.311964
0.302351
0.294188
0.287466
0.282108
0.277994
0.274987
0.272948
0.271742
0.271243
0.271338
0.271927
0.272921
0.274239
0.0409357
0.0752941
0.0937588
0.107905
0.11869
0.126704
0.132378
0.136071
0.138139
0.138978
0.139011
0.138825
0.138951
0.139311
0.139781
0.140294
0.140619
0.137982
0.140963
0.139275
0.14244
0.139893
0.141479
0.142247
0.140299
0.143392
0.15677
0.173309
0.191559
0.210938
0.230984
0.251306
0.271591
0.291606
0.311183
0.330205
0.348596
0.366317
0.383353
0.399712
0.415417
0.430504
0.445018
0.459008
0.472524
0.48562
0.498345
0.510748
0.522875
0.534767
0.546463
0.557999
0.569405
0.580711
0.591942
0.60312
0.614265
0.625394
0.636523
0.647664
0.658827
0.670022
0.681256
0.692534
0.703859
0.715236
0.726663
0.738142
0.74967
0.761246
0.772865
0.784524
0.796217
0.807938
0.81968
0.831436
0.843197
0.854955
0.866704
0.878437
0.890151
0.901849
0.913544
0.925268
0.937084
0.948846
0.960493
0.972014
0.983395
0.994621
1.00567
1.01653
1.02717
1.03758
1.04773
1.0576
1.06718
1.07643
1.08533
1.09388
1.10203
1.10977
1.11709
1.12395
1.13035
1.13625
1.14166
1.14654
1.15088
1.15468
1.15792
1.1606
1.16271
1.16425
1.16522
1.16563
1.16548
1.16479
1.16357
1.16183
1.1596
1.1569
1.15376
1.15021
1.14628
1.142
1.13741
1.13254
1.12742
1.1221
1.11661
1.11098
1.10524
1.09944
1.09358
1.08771
1.08185
1.076
1.0702
1.06446
1.05877
1.05316
1.04761
1.04213
1.0367
1.03131
1.02595
1.02059
1.01521
1.00975
1.0042
0.998507
0.992602
0.986477
0.980162
0.974635
0.974961
0.977419
0.980153
0.982927
0.985608
0.988064
0.990155
0.991729
0.992621
0.992656
0.991649
0.989412
0.985752
0.980481
0.973413
0.96437
0.953178
0.939661
0.92362
0.904804
0.882706
0.856546
0.823074
0.780871
0.0500812
0.0922626
0.118672
0.137042
0.150163
0.159498
0.165989
0.170319
0.173038
0.174628
0.175582
0.176508
0.177615
0.179265
0.181812
0.18567
0.191359
0.199712
0.211019
0.226935
0.246894
0.268956
0.291912
0.314668
0.338174
0.361819
0.386183
0.411241
0.437342
0.464585
0.492884
0.522065
0.551916
0.58221
0.612717
0.643214
0.673495
0.703379
0.732722
0.761417
0.789392
0.816614
0.843079
0.868805
0.893831
0.918208
0.941995
0.965256
0.988053
1.01045
1.03251
1.0543
1.07586
1.09724
1.1185
1.13967
1.16079
1.18191
1.20304
1.22422
1.24547
1.26681
1.28827
1.30984
1.33156
1.35343
1.37546
1.39765
1.42001
1.44254
1.46524
1.48811
1.51115
1.53435
1.55771
1.58122
1.60487
1.62866
1.65256
1.67658
1.70069
1.72487
1.74912
1.77342
1.79755
1.82158
1.84555
1.86945
1.89327
1.91696
1.94049
1.96384
1.98697
2.00984
2.03241
2.05464
2.0765
2.09794
2.11891
2.13938
2.15929
2.17861
2.19729
2.21527
2.23253
2.249
2.26466
2.27945
2.29335
2.3063
2.31829
2.32927
2.33923
2.34813
2.35597
2.36274
2.36843
2.37303
2.37656
2.37904
2.38047
2.38088
2.38032
2.3788
2.37639
2.37312
2.36905
2.36422
2.35871
2.35256
2.34584
2.33861
2.33093
2.32286
2.31447
2.3058
2.29692
2.28787
2.27871
2.26948
2.26021
2.25095
2.24171
2.23254
2.22344
2.21441
2.20547
2.19661
2.18781
2.17902
2.17026
2.16147
2.15249
2.14341
2.1342
2.12508
2.11667
2.10822
2.09923
2.08942
2.07859
2.06648
2.05284
2.0374
2.01987
1.99996
1.97736
1.95179
1.92298
1.89068
1.85466
1.81477
1.77088
1.72293
1.67088
1.61481
1.55472
1.49149
1.42425
1.35551
0.0722309
0.11932
0.149007
0.169626
0.18443
0.195159
0.202911
0.208462
0.212432
0.215379
0.217905
0.220444
0.223283
0.227088
0.232654
0.240899
0.252875
0.269839
0.292044
0.318824
0.348703
0.379552
0.409676
0.438424
0.466321
0.494387
0.523406
0.553805
0.585893
0.619752
0.655228
0.692017
0.729748
0.768032
0.806502
0.844833
0.882753
0.92005
0.956574
0.992228
1.02696
1.06077
1.09367
1.1257
1.15692
1.1874
1.2172
1.24642
1.2751
1.30334
1.33119
1.35872
1.38599
1.41305
1.43996
1.46676
1.49349
1.5202
1.54692
1.57368
1.6005
1.62742
1.65444
1.6816
1.7089
1.73637
1.76399
1.7918
1.81978
1.84795
1.8763
1.90484
1.93355
1.96245
1.99152
2.02075
2.05015
2.07969
2.10937
2.13919
2.16912
2.19915
2.22926
2.25943
2.28952
2.31957
2.34957
2.3795
2.40934
2.43904
2.46857
2.4979
2.52697
2.55575
2.58419
2.61224
2.63986
2.667
2.6936
2.71961
2.74499
2.76966
2.79358
2.81669
2.83894
2.86026
2.88062
2.89995
2.91819
2.93532
2.95127
2.96601
2.9795
2.99172
3.00262
3.0122
3.02043
3.02732
3.03287
3.03707
3.03996
3.04154
3.04186
3.04094
3.03885
3.03561
3.03129
3.02596
3.01966
3.01248
3.00447
2.99572
2.98628
2.97623
2.96564
2.95457
2.9431
2.93128
2.91917
2.90683
2.89429
2.88162
2.86885
2.85602
2.84314
2.83022
2.81731
2.8044
2.79145
2.77842
2.76538
2.75226
2.73897
2.7255
2.71184
2.69808
2.68434
2.67021
2.65533
2.6394
2.62218
2.60337
2.58271
2.55985
2.53449
2.50628
2.47488
2.43996
2.40121
2.35834
2.31112
2.25938
2.20301
2.14198
2.07637
2.0064
1.93246
1.85567
1.77748
1.70096
0.0958372
0.14759
0.180549
0.203378
0.219835
0.2319
0.240809
0.247447
0.252539
0.256752
0.260784
0.264782
0.269459
0.275695
0.28459
0.297172
0.314349
0.336711
0.364033
0.395139
0.42828
0.461705
0.494321
0.525993
0.557387
0.589469
0.623017
0.658454
0.695913
0.735277
0.77624
0.818397
0.861318
0.904597
0.947876
0.99086
1.03332
1.07508
1.11603
1.1561
1.19525
1.23349
1.27084
1.30735
1.34305
1.37801
1.41231
1.44599
1.47914
1.51182
1.54409
1.57602
1.60766
1.63907
1.6703
1.7014
1.73241
1.76338
1.79433
1.82532
1.85636
1.88748
1.9187
1.95005
1.98154
2.01319
2.04501
2.07701
2.10919
2.14156
2.17413
2.20688
2.23983
2.27297
2.30629
2.33979
2.37347
2.40731
2.4413
2.47543
2.5097
2.54408
2.57858
2.61306
2.64753
2.68198
2.71638
2.75071
2.78494
2.81903
2.85295
2.88663
2.92006
2.95316
2.98591
3.01824
3.05011
3.08146
3.11223
3.14236
3.1718
3.20048
3.22835
3.25533
3.28138
3.30641
3.33038
3.35323
3.37488
3.39529
3.4144
3.43215
3.44852
3.46344
3.47689
3.48884
3.49927
3.50815
3.51549
3.52129
3.52555
3.52829
3.52954
3.52933
3.52771
3.52472
3.52042
3.51486
3.50812
3.50026
3.49136
3.48148
3.47071
3.45912
3.44678
3.43376
3.42014
3.40599
3.39138
3.37634
3.36095
3.34526
3.32934
3.3132
3.29686
3.28034
3.26373
3.247
3.23015
3.21315
3.19601
3.17869
3.16113
3.1433
3.12518
3.10677
3.08804
3.06869
3.04844
3.027
3.0041
2.97947
2.9528
2.92376
2.89202
2.85723
2.81903
2.77709
2.73109
2.68074
2.62583
2.56619
2.50174
2.43253
2.35871
2.28066
2.19901
2.11516
2.03101
1.95018
0.119877
0.177218
0.213563
0.238514
0.256521
0.269813
0.279764
0.287375
0.293488
0.29892
0.303996
0.309339
0.315769
0.324223
0.335709
0.351156
0.371215
0.396021
0.425018
0.45704
0.490685
0.524789
0.558789
0.592798
0.627394
0.663272
0.70094
0.740617
0.782255
0.825613
0.870336
0.916026
0.962293
1.00879
1.05522
1.10135
1.14699
1.192
1.2363
1.27981
1.32251
1.3644
1.40548
1.44579
1.48535
1.52421
1.56243
1.60005
1.63715
1.67376
1.70996
1.7458
1.78133
1.81661
1.85169
1.88661
1.92143
1.95619
1.99091
2.02565
2.06042
2.09527
2.13021
2.16528
2.20048
2.23583
2.27135
2.30706
2.34295
2.37903
2.41531
2.45179
2.48847
2.52535
2.56243
2.59969
2.63713
2.67475
2.71253
2.75045
2.78852
2.8267
2.86499
2.90326
2.94153
2.97978
3.01799
3.05612
3.09415
3.13202
3.16971
3.20717
3.24434
3.28118
3.31764
3.35367
3.38921
3.4242
3.45858
3.49229
3.52527
3.55745
3.58876
3.61915
3.64853
3.67685
3.70404
3.73002
3.75473
3.77811
3.80009
3.82062
3.83963
3.85709
3.87294
3.88714
3.89967
3.91051
3.91962
3.92702
3.93269
3.93665
3.93892
3.93952
3.9385
3.9359
3.93177
3.92616
3.91915
3.9108
3.90118
3.89037
3.87845
3.8655
3.85157
3.83677
3.82117
3.80485
3.78787
3.77026
3.75211
3.73351
3.7145
3.69512
3.67539
3.65535
3.63503
3.61447
3.59363
3.57253
3.55115
3.52946
3.5074
3.48495
3.46206
3.43868
3.41472
3.38996
3.36414
3.337
3.30828
3.27771
3.24498
3.2098
3.17182
3.13071
3.08614
3.03778
2.98533
2.92855
2.86722
2.80125
2.73059
2.65536
2.5758
2.49243
2.40602
2.31806
2.23037
2.14599
0.14375
0.207134
0.246851
0.274051
0.293794
0.308461
0.31958
0.328251
0.335406
0.341734
0.34766
0.354012
0.361659
0.371505
0.384435
0.401182
0.422165
0.44733
0.476129
0.507659
0.540961
0.575328
0.610478
0.646536
0.683862
0.722835
0.763685
0.806438
0.850942
0.896925
0.944056
0.991998
1.04043
1.08908
1.13772
1.18614
1.2342
1.28179
1.32881
1.37522
1.42096
1.46602
1.5104
1.5541
1.59715
1.63956
1.68138
1.72264
1.7634
1.80368
1.84356
1.88307
1.92227
1.9612
1.99992
2.03848
2.0769
2.11525
2.15356
2.19186
2.2302
2.26859
2.30707
2.34566
2.38439
2.42327
2.46231
2.50154
2.54096
2.58057
2.62038
2.6604
2.70062
2.74105
2.78167
2.82249
2.8635
2.90468
2.94603
2.98752
3.02916
3.07091
3.11273
3.15454
3.19635
3.23813
3.27986
3.32151
3.36304
3.40441
3.44557
3.48648
3.5271
3.56736
3.60722
3.64662
3.68551
3.72382
3.76149
3.79846
3.83466
3.87003
3.9045
3.93799
3.97044
4.00177
4.03192
4.0608
4.08835
4.11449
4.13916
4.16228
4.18381
4.20367
4.22182
4.2382
4.25278
4.26552
4.27639
4.28539
4.29249
4.29771
4.30105
4.30253
4.30218
4.30005
4.29618
4.29062
4.28343
4.27468
4.26444
4.25279
4.23982
4.22559
4.21015
4.19363
4.1761
4.15765
4.13833
4.11821
4.09735
4.07583
4.05371
4.03103
4.00783
3.98414
3.96
3.93543
3.91043
3.885
3.85912
3.83276
3.80588
3.77843
3.75035
3.72157
3.69198
3.6614
3.62959
3.59633
3.56137
3.52445
3.4853
3.44363
3.39914
3.35152
3.30047
3.24571
3.18699
3.12411
3.05691
2.98535
2.90947
2.82945
2.74564
2.65861
2.56925
2.47898
2.38929
2.30245
0.167308
0.236273
0.27925
0.308811
0.330433
0.346719
0.359248
0.369168
0.377435
0.384422
0.390991
0.397989
0.406267
0.41667
0.429974
0.446783
0.467418
0.491834
0.519642
0.550238
0.583007
0.617501
0.653526
0.691106
0.730377
0.77146
0.814383
0.859051
0.905274
0.952796
1.00134
1.05064
1.10043
1.15052
1.2007
1.25083
1.30077
1.35043
1.39972
1.44858
1.49696
1.54482
1.59214
1.63892
1.68515
1.73084
1.77601
1.82068
1.86489
1.90868
1.95207
1.99511
2.03784
2.08032
2.12258
2.16467
2.20663
2.2485
2.29032
2.33214
2.37397
2.41586
2.45783
2.49991
2.54213
2.58449
2.62701
2.66972
2.71261
2.7557
2.799
2.8425
2.88621
2.93012
2.97424
3.01854
3.06304
3.1077
3.15253
3.1975
3.24261
3.28783
3.33305
3.37828
3.42349
3.46866
3.51376
3.55877
3.60363
3.6483
3.69275
3.73692
3.78076
3.82422
3.86725
3.90979
3.95178
3.99316
4.03387
4.07384
4.11301
4.1513
4.18866
4.22499
4.26025
4.29434
4.3272
4.35875
4.38891
4.41761
4.44476
4.47031
4.49418
4.5163
4.53662
4.55507
4.5716
4.58617
4.59875
4.6093
4.61782
4.62428
4.62869
4.63106
4.63142
4.6298
4.62622
4.62076
4.61345
4.60434
4.59353
4.5811
4.56712
4.55166
4.53478
4.51659
4.49717
4.4766
4.45494
4.43227
4.40865
4.38415
4.35884
4.33276
4.30596
4.27847
4.25033
4.22155
4.19215
4.16211
4.13143
4.10007
4.06799
4.03513
4.00142
3.96678
3.9311
3.89421
3.85592
3.81603
3.77431
3.73052
3.68443
3.63579
3.58432
3.52978
3.47192
3.41052
3.3454
3.27641
3.2035
3.1267
3.04613
2.96206
2.87492
2.78535
2.69423
2.60287
2.51237
2.42421
0.189294
0.262907
0.309318
0.341528
0.365322
0.383451
0.397569
0.408865
0.417933
0.425587
0.432691
0.44008
0.448577
0.458976
0.471986
0.488167
0.507844
0.531067
0.557634
0.58718
0.619304
0.653683
0.690117
0.728511
0.768826
0.811013
0.854976
0.900561
0.947573
0.99579
1.04499
1.09496
1.14551
1.19647
1.24768
1.29903
1.35041
1.4017
1.45285
1.50377
1.55441
1.60471
1.65465
1.7042
1.75333
1.80205
1.85034
1.89823
1.94572
1.99284
2.03962
2.08609
2.13228
2.17823
2.22398
2.26957
2.31504
2.36042
2.40576
2.45109
2.49644
2.54185
2.58734
2.63293
2.67865
2.72453
2.77056
2.81678
2.86318
2.90978
2.95658
3.00358
3.05079
3.0982
3.14581
3.1936
3.24157
3.28971
3.338
3.38642
3.43495
3.48357
3.53217
3.58074
3.62927
3.67774
3.72612
3.77436
3.82242
3.87026
3.91784
3.96509
4.01198
4.05844
4.10442
4.14987
4.19473
4.23893
4.28242
4.32513
4.36698
4.40793
4.44788
4.48678
4.52455
4.56112
4.59641
4.63035
4.66286
4.69385
4.72325
4.75098
4.77697
4.80115
4.82345
4.8438
4.86214
4.87841
4.89257
4.9046
4.91445
4.9221
4.92754
4.93078
4.93183
4.9307
4.92744
4.92208
4.91468
4.90528
4.89396
4.88078
4.86583
4.84916
4.83087
4.81102
4.78971
4.767
4.74298
4.71771
4.69127
4.66372
4.63512
4.60553
4.57498
4.54353
4.51119
4.47799
4.44394
4.40902
4.37323
4.33652
4.29886
4.26017
4.22039
4.17944
4.13719
4.09351
4.04823
4.00116
3.95212
3.90091
3.84731
3.79113
3.73215
3.67018
3.60505
3.53661
3.46477
3.38949
3.3108
3.22883
3.14381
3.0561
2.9662
2.87482
2.78279
2.69126
2.60092
2.51261
0.208721
0.286626
0.336328
0.371174
0.397182
0.417211
0.43296
0.445413
0.455366
0.463739
0.471377
0.479088
0.487662
0.497852
0.510341
0.525684
0.544256
0.566215
0.591513
0.61995
0.651258
0.685166
0.721447
0.75992
0.80043
0.84283
0.886959
0.932644
0.979698
1.02794
1.07719
1.12728
1.17807
1.22942
1.28122
1.33335
1.38573
1.43826
1.49086
1.54346
1.596
1.64841
1.70064
1.75266
1.80442
1.85591
1.90711
1.95801
2.00862
2.05894
2.10899
2.15879
2.20837
2.25775
2.30697
2.35605
2.40503
2.45396
2.50285
2.55174
2.60066
2.64965
2.69872
2.74789
2.7972
2.84666
2.89628
2.94608
2.99606
3.04623
3.0966
3.14717
3.19793
3.24888
3.30002
3.35134
3.40281
3.45444
3.5062
3.55807
3.61004
3.66202
3.71394
3.76582
3.81762
3.86931
3.92087
3.97224
4.02339
4.07425
4.1248
4.17496
4.2247
4.27395
4.32266
4.37078
4.41824
4.46499
4.51096
4.5561
4.60034
4.64361
4.68583
4.72695
4.76689
4.80559
4.84297
4.87896
4.91348
4.94644
4.97777
5.00738
5.0352
5.06116
5.0852
5.10722
5.12714
5.14491
5.16049
5.17384
5.1849
5.19362
5.20001
5.20404
5.20573
5.20509
5.20213
5.19689
5.18941
5.17973
5.16791
5.15402
5.13812
5.12029
5.10058
5.07908
5.05587
5.03103
5.00462
4.97672
4.9474
4.91672
4.88475
4.85153
4.81711
4.78153
4.74481
4.70698
4.66804
4.62798
4.58678
4.5444
4.50079
4.4559
4.40964
4.36192
4.31265
4.2617
4.20892
4.15416
4.09725
4.03804
3.97636
3.91206
3.845
3.77505
3.70213
3.62619
3.54723
3.46533
3.38063
3.2934
3.20396
3.1128
3.02049
2.92775
2.8354
2.74438
2.65506
2.56772
0.225324
0.306901
0.35952
0.396772
0.424846
0.44668
0.463863
0.477411
0.488351
0.497564
0.505857
0.514005
0.52276
0.532843
0.544917
0.559547
0.57715
0.597969
0.622068
0.649358
0.679653
0.712718
0.748312
0.786207
0.826193
0.868073
0.911663
0.956787
1.00328
1.05099
1.09977
1.14951
1.20009
1.2514
1.30335
1.35586
1.40884
1.46221
1.51588
1.56979
1.62386
1.67803
1.73223
1.78642
1.84053
1.89455
1.94843
2.00215
2.05571
2.1091
2.16231
2.21536
2.26827
2.32105
2.37372
2.42631
2.47884
2.53134
2.58384
2.63637
2.68895
2.7416
2.79434
2.8472
2.9002
2.95334
3.00665
3.06012
3.11378
3.16762
3.22164
3.27585
3.33024
3.3848
3.43953
3.49442
3.54944
3.60459
3.65984
3.71517
3.77056
3.82587
3.88109
3.93622
3.99121
4.04605
4.10068
4.15507
4.20916
4.2629
4.31623
4.3691
4.42146
4.47326
4.52443
4.57492
4.62468
4.67365
4.72177
4.76899
4.81523
4.86044
4.90454
4.94747
4.98917
5.02957
5.06862
5.10624
5.14237
5.17691
5.20977
5.24088
5.27016
5.29755
5.32298
5.34638
5.3676
5.38662
5.40337
5.4178
5.42988
5.43953
5.44674
5.45148
5.45375
5.45354
5.45086
5.44573
5.43817
5.42822
5.41592
5.40134
5.38452
5.36553
5.34443
5.3213
5.29621
5.26923
5.24042
5.20987
5.17764
5.14378
5.10836
5.07142
5.03302
4.99318
4.95193
4.90928
4.86524
4.8198
4.77292
4.72458
4.67471
4.62326
4.57014
4.51528
4.45857
4.3999
4.33916
4.27621
4.21092
4.14318
4.07287
3.99989
3.92419
3.84571
3.76447
3.68053
3.594
3.5051
3.4141
3.32138
3.22744
3.13284
3.03825
2.94444
2.85216
2.7622
2.67463
2.58932
0.238895
0.323384
0.378384
0.417651
0.447499
0.470802
0.489177
0.503893
0.515936
0.526146
0.535293
0.544111
0.553313
0.563581
0.575553
0.589786
0.606718
0.62664
0.649685
0.67584
0.704979
0.736905
0.771388
0.808192
0.847092
0.887881
0.930376
0.974412
1.01985
1.06656
1.11444
1.1634
1.21336
1.26423
1.31594
1.36843
1.42161
1.47543
1.5298
1.58464
1.6399
1.69548
1.75133
1.80738
1.86358
1.91987
1.9762
2.03256
2.0889
2.14522
2.20149
2.25773
2.31392
2.37007
2.4262
2.48231
2.53844
2.59458
2.65077
2.70702
2.76335
2.81977
2.8763
2.93296
2.98976
3.04671
3.10381
3.16108
3.21851
3.27612
3.33389
3.39182
3.44991
3.50815
3.56652
3.62502
3.68363
3.74232
3.80108
3.85987
3.91861
3.97721
4.03567
4.09397
4.15207
4.20993
4.2675
4.32475
4.3816
4.438
4.49389
4.54922
4.60393
4.65797
4.71128
4.76381
4.8155
4.8663
4.91615
4.96501
5.01283
5.05953
5.10503
5.14929
5.19226
5.23388
5.27409
5.31284
5.35009
5.38574
5.41965
5.45178
5.48208
5.51046
5.53686
5.5612
5.58337
5.60332
5.62097
5.63626
5.64914
5.65954
5.66743
5.67276
5.6755
5.67565
5.67319
5.66813
5.66048
5.65026
5.6375
5.62225
5.60454
5.58444
5.56199
5.53727
5.51032
5.48123
5.45005
5.41686
5.3817
5.34464
5.30573
5.26503
5.22256
5.17836
5.13246
5.08485
5.03555
4.98452
4.93176
4.87721
4.82081
4.76251
4.70222
4.63986
4.57535
4.50859
4.43947
4.3679
4.29378
4.21703
4.13759
4.05544
3.97059
3.88307
3.79302
3.70059
3.60605
3.50974
3.41209
3.31364
3.21501
3.1169
3.02007
2.92531
2.83335
2.74487
2.65967
2.57733
0.249361
0.335964
0.392726
0.43352
0.464618
0.489024
0.508559
0.524459
0.53768
0.549031
0.559243
0.569007
0.578985
0.589815
0.60209
0.616335
0.632979
0.652326
0.674543
0.699666
0.727618
0.758246
0.791351
0.82672
0.864142
0.903428
0.944411
0.986953
1.03094
1.07627
1.12287
1.17068
1.21964
1.2697
1.3208
1.37289
1.42591
1.4798
1.5345
1.58993
1.64602
1.70269
1.75987
1.8175
1.87551
1.93383
1.99241
2.05121
2.11019
2.16931
2.22855
2.2879
2.34733
2.40685
2.46645
2.52613
2.5859
2.64576
2.70572
2.7658
2.82598
2.88629
2.94673
3.00731
3.06804
3.1289
3.18992
3.25109
3.3124
3.37385
3.43545
3.49718
3.55903
3.62098
3.68304
3.74517
3.80736
3.86958
3.93181
3.994
4.056
4.1178
4.17939
4.24072
4.30176
4.36247
4.42279
4.48266
4.54204
4.60084
4.65899
4.71645
4.77316
4.82907
4.88411
4.93825
4.99142
5.04358
5.09468
5.14468
5.19355
5.24124
5.28759
5.33261
5.37627
5.41852
5.45931
5.49861
5.53635
5.57246
5.60686
5.6395
5.6703
5.6992
5.72612
5.75099
5.77372
5.79424
5.81246
5.82832
5.84175
5.85268
5.86104
5.8668
5.8699
5.87032
5.86802
5.86299
5.85524
5.84475
5.83156
5.81567
5.79713
5.77597
5.75224
5.72598
5.69726
5.66612
5.63262
5.59683
5.55878
5.51855
5.47616
5.43167
5.38511
5.33651
5.28588
5.23322
5.17854
5.1218
5.06299
5.00204
4.93891
4.87353
4.80582
4.7357
4.6631
4.58793
4.5101
4.42955
4.34621
4.26006
4.17109
4.07934
3.9849
3.88791
3.78861
3.68728
3.58434
3.48026
3.37565
3.2712
3.16768
3.06593
2.96682
2.87117
2.77971
2.69299
2.61068
2.53209
0.256818
0.344782
0.402647
0.444292
0.476235
0.501588
0.522163
0.53919
0.553607
0.566195
0.57765
0.588612
0.599691
0.61146
0.624454
0.639143
0.655919
0.675069
0.696765
0.721068
0.747941
0.777275
0.808914
0.842686
0.878416
0.915949
0.955152
0.995915
1.03816
1.08181
1.12683
1.17318
1.22083
1.26975
1.3199
1.37126
1.42378
1.47741
1.5321
1.58778
1.64438
1.70183
1.76007
1.819
1.87857
1.93871
1.99934
2.06042
2.12189
2.18371
2.24584
2.30825
2.3709
2.43379
2.49688
2.56018
2.62366
2.68732
2.75116
2.81516
2.87931
2.94362
3.00809
3.0727
3.13745
3.20234
3.26736
3.33251
3.39777
3.46314
3.5286
3.59415
3.65976
3.72543
3.79114
3.85686
3.92258
3.98825
4.05387
4.11925
4.18436
4.24919
4.3137
4.37784
4.44157
4.50484
4.5676
4.62978
4.69137
4.75218
4.81219
4.87136
4.92961
4.98691
5.0432
5.09843
5.15255
5.20551
5.25727
5.30779
5.35705
5.40498
5.45153
5.49667
5.54038
5.58261
5.62335
5.66254
5.70015
5.73614
5.77043
5.80297
5.83371
5.86259
5.88953
5.91446
5.9373
5.95797
5.9764
5.99249
6.00618
6.01737
6.02601
6.03202
6.03534
6.03593
6.03372
6.0287
6.02083
6.01011
5.99652
5.98007
5.96078
5.93866
5.91374
5.88607
5.85567
5.82259
5.78688
5.74858
5.70774
5.66441
5.61861
5.57039
5.51976
5.46677
5.4114
5.35367
5.29355
5.23104
5.16608
5.09863
5.02863
4.95602
4.88071
4.80265
4.72174
4.63793
4.55115
4.46135
4.36852
4.27267
4.17386
4.07219
3.96783
3.86105
3.75217
3.64163
3.52998
3.41786
3.30605
3.1954
3.08684
2.98136
2.87992
2.78341
2.69254
2.60782
2.52878
2.45459
0.261514
0.350019
0.408317
0.450464
0.482999
0.509066
0.5305
0.548538
0.564112
0.577979
0.590798
0.603161
0.61561
0.628652
0.642744
0.65829
0.67562
0.694981
0.716528
0.740329
0.76637
0.79458
0.82485
0.857054
0.891067
0.926777
0.964089
1.00294
1.04327
1.08508
1.12832
1.173
1.21909
1.26662
1.31556
1.36591
1.41765
1.47074
1.52514
1.58079
1.63765
1.69563
1.75467
1.81469
1.87562
1.93738
1.99991
2.06314
2.12701
2.19145
2.25641
2.32185
2.38772
2.45399
2.52062
2.58758
2.65484
2.72238
2.79018
2.8582
2.92642
2.99483
3.0634
3.13212
3.20097
3.26994
3.339
3.40815
3.47737
3.54663
3.61592
3.68523
3.75454
3.82382
3.89306
3.96223
4.0313
4.10025
4.16892
4.23723
4.30518
4.37272
4.43981
4.50639
4.57242
4.63782
4.70255
4.76654
4.82972
4.892
4.95333
5.01363
5.07285
5.13095
5.18786
5.24355
5.29796
5.35106
5.4028
5.45317
5.50212
5.54963
5.59567
5.64022
5.68325
5.72476
5.76472
5.80311
5.83992
5.8751
5.90861
5.94043
5.9705
5.99877
6.02517
6.04965
6.07212
6.09251
6.11074
6.12671
6.14034
6.15154
6.16023
6.16632
6.16973
6.1704
6.16824
6.16321
6.15526
6.14435
6.13045
6.11354
6.09362
6.07068
6.04474
6.0158
5.9839
5.94906
5.9113
5.87067
5.82719
5.78089
5.73181
5.67997
5.62539
5.56808
5.50805
5.44528
5.37976
5.31147
5.24036
5.16637
5.08946
5.00955
4.92657
4.84044
4.75112
4.65854
4.56266
4.46347
4.36098
4.25525
4.1464
4.03462
3.92016
3.80339
3.68475
3.56483
3.44432
3.32404
3.20492
3.088
2.97437
2.86515
2.76141
2.66409
2.57392
2.49136
2.41588
2.34655
0.263497
0.352151
0.410563
0.452876
0.485693
0.512209
0.534293
0.553199
0.569856
0.585003
0.599259
0.613163
0.627193
0.641779
0.657297
0.67407
0.692358
0.712353
0.734174
0.757876
0.783458
0.810874
0.840056
0.870924
0.903401
0.937424
0.972936
1.00991
1.04835
1.08829
1.12977
1.17269
1.21712
1.26312
1.3107
1.35988
1.41067
1.46304
1.51697
1.57242
1.62935
1.68769
1.74737
1.80834
1.8705
1.93378
1.99812
2.06342
2.12962
2.19665
2.26443
2.33291
2.40201
2.47169
2.54189
2.61255
2.68364
2.75509
2.82688
2.89894
2.97125
3.04376
3.11645
3.18926
3.26218
3.33517
3.40821
3.48126
3.5543
3.62731
3.70025
3.77312
3.84588
3.91851
3.99099
4.06329
4.13538
4.20709
4.27836
4.34917
4.41946
4.48919
4.55831
4.62675
4.69447
4.76139
4.82745
4.89258
4.95671
5.01976
5.08168
5.14239
5.20185
5.25999
5.31677
5.37215
5.42608
5.47853
5.52948
5.5789
5.62677
5.67308
5.71782
5.76098
5.80256
5.84257
5.881
5.91784
5.95311
5.98678
6.01884
6.04926
6.07802
6.10507
6.13037
6.15387
6.17548
6.19515
6.21278
6.22828
6.24156
6.25252
6.26106
6.26708
6.27048
6.27117
6.26905
6.26404
6.25607
6.24508
6.23101
6.21381
6.19345
6.16991
6.14316
6.1132
6.08004
6.04367
6.00412
5.96139
5.9155
5.86647
5.81432
5.75906
5.70071
5.63925
5.5747
5.50703
5.43623
5.36225
5.28506
5.2046
5.12081
5.03363
4.94298
4.84881
4.75105
4.64968
4.54468
4.43605
4.32386
4.20821
4.08929
3.96736
3.84278
3.71599
3.5876
3.45832
3.32899
3.20061
3.07429
2.95122
2.83267
2.71987
2.61399
2.51603
2.42671
2.34645
2.27474
2.21055
0.263582
0.352013
0.410144
0.452267
0.485062
0.511784
0.534343
0.554011
0.571714
0.58817
0.603958
0.619563
0.635395
0.651805
0.669086
0.687476
0.707156
0.728251
0.750837
0.774942
0.800561
0.827666
0.856216
0.886175
0.917504
0.950235
0.984271
1.01958
1.05626
1.09438
1.134
1.17519
1.218
1.26251
1.30876
1.35679
1.40664
1.4583
1.51177
1.56703
1.62404
1.68275
1.74311
1.80504
1.86848
1.93334
1.99954
2.06699
2.13561
2.20531
2.27601
2.34762
2.42007
2.49326
2.56712
2.64159
2.71657
2.79201
2.86783
2.94398
3.02038
3.09698
3.17372
3.25055
3.32742
3.40428
3.4811
3.55782
3.63443
3.71087
3.78713
3.86317
3.93897
4.0145
4.08974
4.1646
4.23895
4.31275
4.38595
4.45852
4.53039
4.60151
4.67183
4.74129
4.80982
4.87736
4.94383
5.00917
5.07332
5.1362
5.19775
5.25791
5.31662
5.37384
5.42952
5.48361
5.5361
5.58694
5.63614
5.68366
5.72952
5.77371
5.81624
5.85712
5.89637
5.93401
5.97006
6.00454
6.03748
6.06887
6.09873
6.12706
6.15384
6.17905
6.20267
6.22465
6.24492
6.26343
6.28008
6.29478
6.30744
6.31795
6.32618
6.33203
6.33537
6.33608
6.33405
6.32916
6.32132
6.31042
6.29639
6.27914
6.2586
6.23473
6.20747
6.1768
6.14268
6.1051
6.06406
6.01953
5.97152
5.92004
5.86509
5.80666
5.74476
5.67937
5.61049
5.53809
5.46215
5.38262
5.29947
5.21264
5.12206
5.02768
4.92943
4.82726
4.72113
4.61102
4.49694
4.37894
4.25711
4.13163
4.00274
3.87078
3.73622
3.59961
3.46169
3.3233
3.18548
3.04935
2.91622
2.78744
2.66441
2.54848
2.44089
2.34265
2.25449
2.17678
2.109
2.05016
0.262226
0.350019
0.407491
0.449102
0.481612
0.50834
0.531232
0.551573
0.570279
0.588042
0.605401
0.622789
0.640555
0.658979
0.678278
0.698612
0.720092
0.742779
0.766702
0.791859
0.818234
0.845806
0.874552
0.904489
0.935397
0.967369
1.00046
1.03473
1.07029
1.10724
1.14568
1.18573
1.22747
1.271
1.31641
1.36375
1.41307
1.46441
1.51777
1.57316
1.63054
1.68988
1.75113
1.81422
1.87909
1.94564
2.01379
2.08344
2.1545
2.22686
2.30042
2.37507
2.45072
2.52724
2.60456
2.68255
2.76113
2.8402
2.91967
2.99945
3.07946
3.15961
3.23983
3.32005
3.40021
3.48023
3.56008
3.63969
3.71903
3.79805
3.87672
3.955
4.03288
4.11028
4.18709
4.26325
4.33871
4.41344
4.48739
4.56049
4.63271
4.70398
4.77424
4.84345
4.91153
4.97842
5.04405
5.10837
5.1713
5.23279
5.29277
5.35119
5.40799
5.46314
5.5166
5.56833
5.61831
5.66652
5.71296
5.75763
5.80054
5.8417
5.88114
5.9189
5.955
5.9895
6.02242
6.05383
6.08375
6.11222
6.13928
6.16494
6.18922
6.21212
6.23361
6.25368
6.27227
6.28932
6.30476
6.31848
6.3304
6.34037
6.34829
6.35401
6.35738
6.35827
6.35653
6.35202
6.3446
6.33413
6.32051
6.30361
6.28334
6.2596
6.23231
6.20141
6.16685
6.12857
6.08653
6.04072
5.9911
5.93767
5.88039
5.81926
5.75426
5.68538
5.61259
5.53587
5.45517
5.37047
5.2817