/*--------------------------------*- C++ -*----------------------------------*\
  =========                 |
  \\      /  F ield         | OpenFOAM: The Open Source CFD Toolbox
   \\    /   O peration     | Website:  https://openfoam.org
    \\  /    A nd           | Version:  12
     \\/     M anipulation  |
\*---------------------------------------------------------------------------*/
FoamFile
{
    format      ascii;
    class       volScalarField;
    location    "0.07";
    object      nut;
}
// * * * * * * * * * * * * * * * * * * * * * * * * * * * * * * * * * * * * * //

dimensions      [0 2 -1 0 0 0 0];

internalField   nonuniform List<scalar> 
12225
(
4.04768e-05
3.83178e-05
3.62505e-05
3.44201e-05
3.29524e-05
3.18986e-05
3.1258e-05
3.09969e-05
3.10634e-05
3.13983e-05
3.19434e-05
3.2645e-05
3.34574e-05
3.43428e-05
3.52739e-05
3.62277e-05
3.72248e-05
3.87159e-05
0.000281045
0.000209261
0.00017626
0.000157431
0.000146262
0.000139677
0.000135783
0.00013342
0.000131905
0.000130849
0.000130035
0.000129349
0.000128734
0.000128159
0.000127628
0.000127078
0.000126759
0.000125488
0.000556043
0.000419895
0.000349795
0.000304709
0.000272412
0.000247936
0.000228707
0.000213228
0.000200583
0.000190163
0.000181527
0.000174333
0.000168311
0.000163234
0.000158926
0.000155165
0.000151888
0.000148403
0.000740305
0.00062581
0.000544095
0.000484965
0.000439722
0.000403583
0.00037375
0.000348486
0.000326702
0.000307699
0.000291001
0.000276257
0.000263193
0.000251566
0.00024117
0.000231737
0.00022309
0.00021477
0.000817068
0.000759134
0.000700528
0.000648546
0.000603847
0.000565511
0.000532373
0.000503378
0.0004777
0.000454728
0.000434012
0.000415211
0.000398059
0.00038233
0.000367823
0.000354307
0.000341596
0.000329498
0.0008421
0.000819684
0.000789913
0.000757583
0.000725514
0.000695103
0.000666878
0.000640895
0.000617009
0.000595018
0.000574712
0.0005559
0.000538409
0.000522077
0.000506754
0.000492278
0.000478513
0.000465476
0.000849261
0.000841806
0.000829736
0.000814174
0.000796455
0.000777719
0.000758785
0.000740163
0.000722139
0.000704857
0.000688374
0.000672693
0.000657786
0.000643606
0.00063009
0.000617166
0.000604776
0.000593046
0.00085112
0.000848747
0.000844477
0.000838229
0.000830232
0.00082087
0.000810559
0.000799662
0.000788467
0.00077719
0.000765985
0.000754954
0.000744163
0.000733648
0.000723423
0.000713491
0.000703855
0.000694677
0.00085156
0.000850665
0.000849168
0.000846883
0.000843734
0.000839745
0.000835011
0.000829659
0.000823823
0.00081763
0.000811193
0.000804604
0.000797937
0.00079125
0.000784585
0.000777975
0.000771455
0.000765168
0.000851652
0.000851133
0.000850467
0.000849562
0.000848343
0.000846765
0.000844814
0.0008425
0.000839854
0.000836916
0.00083373
0.000830341
0.000826791
0.000823119
0.00081936
0.000815542
0.0008117
0.000807934
0.000851668
0.000851231
0.000850778
0.000850277
0.000849695
0.000849003
0.000848176
0.000847201
0.000846072
0.000844791
0.000843367
0.00084181
0.000840134
0.000838355
0.000836488
0.00083455
0.000832561
0.000830579
0.000851669
0.000851245
0.000850835
0.000850428
0.000850012
0.000849573
0.000849097
0.000848573
0.000847993
0.000847352
0.000846646
0.000845877
0.000845046
0.000844157
0.000843215
0.000842227
0.000841203
0.000840176
0.000851668
0.000851245
0.000850843
0.000850459
0.000850088
0.000849724
0.000849363
0.000848997
0.000848623
0.000848235
0.000847831
0.000847407
0.000846963
0.000846498
0.000846013
0.000845509
0.00084499
0.000844475
0.000851667
0.000851242
0.000850839
0.000850458
0.000850096
0.00084975
0.000849419
0.000849099
0.000848789
0.000848487
0.000848189
0.000847895
0.000847603
0.000847312
0.000847022
0.000846732
0.000846444
0.000846171
0.000851666
0.000851239
0.000850835
0.000850452
0.00085009
0.000849746
0.000849418
0.000849107
0.00084881
0.000848526
0.000848254
0.000847993
0.000847743
0.000847502
0.00084727
0.000847047
0.000846833
0.00084664
0.000851665
0.000851237
0.000850831
0.000850447
0.000850083
0.000849737
0.000849409
0.000849097
0.000848801
0.000848519
0.00084825
0.000847994
0.000847751
0.000847518
0.000847297
0.000847085
0.000846886
0.00084671
0.000851664
0.000851235
0.000850828
0.000850443
0.000850077
0.00084973
0.000849401
0.000849088
0.000848791
0.000848508
0.000848238
0.000847982
0.000847738
0.000847505
0.000847283
0.000847072
0.000846874
0.000846697
0.000851664
0.000851234
0.000850826
0.00085044
0.000850073
0.000849726
0.000849396
0.000849082
0.000848784
0.0008485
0.000848229
0.000847972
0.000847727
0.000847493
0.00084727
0.000847057
0.000846857
0.000846679
0.000851663
0.000851233
0.000850826
0.000850439
0.000850072
0.000849724
0.000849394
0.00084908
0.000848781
0.000848497
0.000848226
0.000847968
0.000847721
0.000847487
0.000847262
0.000847049
0.000846847
0.000846668
0.000851664
0.000851234
0.000850827
0.00085044
0.000850074
0.000849727
0.000849397
0.000849083
0.000848784
0.0008485
0.000848229
0.00084797
0.000847723
0.000847487
0.000847261
0.000847045
0.000846841
0.000846659
0.000851664
0.000851235
0.000850829
0.000850444
0.000850078
0.000849731
0.0008494
0.000849084
0.000848782
0.000848492
0.000848214
0.000847945
0.000847685
0.000847434
0.00084719
0.000846953
0.000846725
0.000846517
0.000851665
0.000851237
0.00085083
0.000850442
0.000850069
0.000849707
0.000849352
0.000849001
0.00084865
0.000848297
0.00084794
0.000847576
0.000847206
0.000846828
0.000846443
0.000846051
0.000845655
0.000845267
0.000851664
0.000851228
0.000850795
0.000850348
0.000849871
0.000849347
0.000848764
0.000848115
0.000847394
0.0008466
0.000845737
0.000844808
0.00084382
0.000842779
0.000841692
0.000840567
0.000839415
0.000838257
0.000851634
0.000851073
0.000850343
0.000849364
0.000848082
0.000846471
0.000844537
0.000842301
0.000839798
0.000837069
0.000834156
0.000831101
0.000827942
0.000824711
0.000821439
0.00081815
0.000814869
0.000811642
0.000851287
0.000849596
0.000846722
0.000842581
0.000837268
0.000830989
0.000823986
0.000816492
0.000808702
0.000800773
0.000792828
0.000784955
0.000777221
0.000769669
0.00076233
0.000755222
0.000748362
0.000741801
0.000848318
0.000839427
0.000826164
0.000810024
0.000792371
0.000774245
0.000756347
0.000739078
0.000722637
0.000707103
0.000692488
0.000678765
0.000665886
0.000653797
0.000642443
0.000631767
0.000621722
0.000612318
0.000828549
0.000788846
0.000746041
0.000705714
0.000669481
0.000637525
0.000609477
0.000584778
0.000562891
0.000543361
0.000525818
0.000509963
0.000495555
0.000482398
0.000470334
0.000459233
0.000448988
0.00043955
0.000730727
0.000627352
0.000554518
0.000501074
0.000460337
0.000428371
0.000402662
0.000381502
0.000363748
0.000348623
0.000335583
0.00032423
0.000314264
0.000305457
0.000297629
0.000290635
0.000284356
0.000278709
0.000439251
0.000338474
0.00028794
0.000256875
0.000236369
0.000222518
0.000213001
0.00020632
0.000201514
0.000197966
0.000195278
0.000193183
0.000191505
0.000190121
0.000188951
0.000187936
0.000187038
0.000186211
7.16431e-05
6.90587e-05
6.65521e-05
6.41645e-05
6.19882e-05
6.00781e-05
5.8456e-05
5.71204e-05
5.60558e-05
5.52382e-05
5.46407e-05
5.42355e-05
5.39958e-05
5.38967e-05
5.39156e-05
5.40325e-05
5.423e-05
5.44919e-05
1.26528e-05
0.000106553
0.000132731
0.000152761
0.000168028
0.00017939
0.000187467
0.00019277
0.000195787
0.000197032
0.000197099
0.000196741
0.000196737
0.000197085
0.000197674
0.000198381
0.000198649
0.000195511
0.000199478
0.000197668
0.000203152
4.57626e-05
4.60564e-05
4.66336e-05
4.58488e-05
4.71821e-05
4.93299e-05
5.18163e-05
5.44131e-05
5.7026e-05
5.9595e-05
6.20796e-05
6.44551e-05
6.67082e-05
6.88336e-05
7.08313e-05
7.2705e-05
7.44605e-05
7.6105e-05
7.76469e-05
7.90946e-05
8.04568e-05
8.1742e-05
8.29582e-05
8.41132e-05
8.5214e-05
8.62671e-05
8.72782e-05
8.82526e-05
8.91951e-05
9.01098e-05
9.10002e-05
9.18697e-05
9.2721e-05
9.35565e-05
9.43784e-05
9.51886e-05
9.59885e-05
9.67794e-05
9.75625e-05
9.83388e-05
9.91089e-05
9.98734e-05
0.000100633
0.000101387
0.000102137
0.000102883
0.000103624
0.000104361
0.000105093
0.00010582
0.000106543
0.00010726
0.000107971
0.000108677
0.000109376
0.000110068
0.000110753
0.00011143
0.000112099
0.000112759
0.000113411
0.000114056
0.000114694
0.000115331
0.000115964
0.000116584
0.000117191
0.000117783
0.000118361
0.000118922
0.000119468
0.000119996
0.000120505
0.000120996
0.000121466
0.000121915
0.000122342
0.000122746
0.000123126
0.000123482
0.000123811
0.000124114
0.000124389
0.000124636
0.000124854
0.000125042
0.000125199
0.000125325
0.00012542
0.000125482
0.000125512
0.00012551
0.000125474
0.000125406
0.000125305
0.000125173
0.000125008
0.000124812
0.000124586
0.000124331
0.000124048
0.000123738
0.000123402
0.000123043
0.000122662
0.000122261
0.000121842
0.000121406
0.000120956
0.000120493
0.00012002
0.000119539
0.000119051
0.000118559
0.000118063
0.000117566
0.000117069
0.000116573
0.000116079
0.000115588
0.0001151
0.000114617
0.000114137
0.000113662
0.000113189
0.00011272
0.000112253
0.000111786
0.000111318
0.000110849
0.000110375
0.000109893
0.000109403
0.000108903
0.000108413
0.00010821
0.000108161
0.000108133
0.000108113
0.000108095
0.000108072
0.000108039
0.000107987
0.00010791
0.000107798
0.000107642
0.000107432
0.000107157
0.000106808
0.000106372
0.000105838
0.000105194
0.000104427
0.000103521
0.000102458
0.000101201
9.9697e-05
9.77537e-05
9.51574e-05
1.54639e-05
7.1478e-05
0.000123945
0.000167807
0.000204081
0.000233521
0.000256664
0.000274054
0.00028641
0.00029473
0.000300276
0.000304628
0.000307687
0.000309258
0.000308835
0.000305748
0.000297619
0.000276753
0.000276438
0.00026283
0.000261566
0.000250902
0.000252963
0.000256071
0.00025923
0.00026455
0.00027096
0.000278853
0.00028866
0.000300463
0.000314142
0.000329466
0.000346144
0.000363853
0.000382259
0.000401037
0.000419887
0.000438543
0.000456787
0.000474452
0.000491419
0.000507619
0.000523019
0.000537619
0.000551443
0.000564534
0.000576944
0.000588731
0.000599955
0.000610677
0.000620957
0.000630848
0.000640404
0.00064967
0.000658691
0.000667507
0.000676152
0.00068466
0.000693058
0.000701373
0.000709628
0.000717844
0.000726037
0.000734225
0.000742421
0.000750638
0.000758885
0.000767172
0.000775507
0.000783896
0.000792343
0.000800855
0.000809432
0.000818078
0.000826794
0.000835578
0.000844428
0.00085334
0.000862306
0.000871314
0.000880344
0.000889368
0.000898347
0.000907237
0.000915686
0.000923967
0.000932236
0.000940507
0.000948774
0.000957031
0.000965269
0.000973479
0.000981651
0.000989775
0.00099784
0.00100583
0.00101374
0.00102156
0.00102926
0.00103684
0.00104428
0.00105157
0.00105868
0.00106561
0.00107234
0.00107884
0.00108511
0.00109112
0.00109686
0.00110232
0.00110746
0.00111229
0.00111678
0.00112092
0.00112469
0.00112809
0.0011311
0.00113372
0.00113594
0.00113776
0.00113918
0.00114019
0.0011408
0.00114102
0.00114086
0.00114033
0.00113944
0.00113821
0.00113666
0.00113481
0.00113268
0.0011303
0.00112769
0.00112489
0.00112191
0.00111879
0.00111555
0.00111223
0.00110884
0.00110543
0.00110201
0.00109861
0.00109525
0.00109197
0.00108876
0.00108566
0.00108269
0.00107986
0.00107717
0.00107461
0.00107222
0.00106998
0.00106785
0.00106575
0.00106345
0.00106003
0.00105376
0.00104619
0.00103804
0.00102945
0.0010204
0.00101086
0.00100075
0.000989998
0.000978527
0.000966244
0.000953056
0.000938869
0.000923586
0.000907117
0.000889376
0.000870283
0.000849769
0.000827771
0.000804224
0.00077907
0.000752153
0.000723448
0.00069158
0.000640693
2.23089e-05
8.71544e-05
0.000151841
0.000208691
0.000257366
0.000298228
0.000331721
0.000358361
0.000378806
0.000393917
0.000404755
0.000411925
0.000415467
0.000415789
0.00041323
0.000408306
0.000401649
0.00039384
0.000389697
0.000388685
0.000392621
0.000399398
0.000409063
0.000420375
0.000433363
0.00044915
0.000468237
0.000490865
0.000517134
0.000546901
0.000579771
0.00061517
0.000652428
0.000690853
0.000729782
0.000768625
0.000806891
0.000844191
0.000880245
0.000914867
0.000947957
0.000979479
0.00100945
0.00103793
0.001065
0.00109076
0.0011153
0.00113875
0.00116122
0.00118279
0.00120359
0.0012237
0.0012432
0.00126218
0.00128072
0.00129887
0.00131671
0.00133428
0.00135164
0.00136883
0.00138589
0.00140286
0.00141978
0.00143665
0.00145352
0.0014704
0.00148732
0.00150427
0.00152129
0.00153837
0.00155553
0.00157277
0.00159009
0.00160749
0.00162498
0.00164254
0.00166017
0.00167785
0.00169557
0.00171331
0.00173104
0.00174872
0.00176631
0.00178375
0.00180086
0.00181788
0.00183488
0.00185188
0.00186886
0.00188581
0.00190272
0.00191957
0.00193633
0.00195299
0.00196953
0.00198592
0.00200214
0.00201817
0.00203397
0.00204952
0.0020648
0.00207976
0.00209438
0.00210863
0.00212247
0.00213587
0.00214879
0.0021612
0.00217306
0.00218434
0.002195
0.00220501
0.00221433
0.00222293
0.0022308
0.00223789
0.00224419
0.00224967
0.00225433
0.00225814
0.00226111
0.00226324
0.00226452
0.00226497
0.00226461
0.00226344
0.00226151
0.00225884
0.00225546
0.00225142
0.00224676
0.00224152
0.00223577
0.00222953
0.00222287
0.00221585
0.00220851
0.0022009
0.00219309
0.0021851
0.00217699
0.00216881
0.0021606
0.00215238
0.00214419
0.00213605
0.00212799
0.00212003
0.00211216
0.00210437
0.00209667
0.00208901
0.00208132
0.00207342
0.00206489
0.0020549
0.00204236
0.00202819
0.002013
0.00199698
0.00198013
0.00196239
0.00194364
0.00192374
0.00190255
0.00187989
0.00185561
0.00182952
0.00180146
0.00177125
0.00173874
0.00170379
0.00166626
0.00162604
0.00158302
0.00153709
0.00148803
0.00143559
0.00137831
0.00130689
2.96348e-05
0.000108634
0.00018964
0.000260727
0.000321096
0.000371441
0.000412616
0.000445457
0.000470792
0.000489458
0.000502298
0.000509225
0.000511114
0.000508864
0.000503449
0.000496582
0.000490446
0.000487085
0.000488399
0.000495024
0.00050671
0.000522494
0.000541663
0.000563905
0.000589493
0.00061905
0.000653029
0.000691528
0.000734328
0.000780932
0.000830625
0.000882575
0.000935923
0.000989854
0.00104365
0.00109671
0.00114857
0.00119889
0.00124743
0.00129406
0.00133872
0.00138142
0.0014222
0.00146114
0.00149836
0.00153396
0.00156807
0.00160083
0.00163234
0.00166275
0.00169215
0.00172067
0.00174841
0.00177545
0.0018019
0.00182784
0.00185333
0.00187845
0.00190326
0.00192782
0.00195218
0.00197638
0.00200047
0.00202448
0.00204843
0.00207236
0.0020963
0.00212025
0.00214423
0.00216826
0.00219234
0.00221649
0.00224069
0.00226496
0.00228929
0.00231366
0.00233809
0.00236254
0.002387
0.00241146
0.00243589
0.00246027
0.0024846
0.00250868
0.0025326
0.00255647
0.00258032
0.00260415
0.00262795
0.0026517
0.00267539
0.002699
0.00272249
0.00274584
0.00276903
0.00279203
0.00281481
0.00283733
0.00285957
0.00288148
0.00290303
0.00292417
0.00294488
0.0029651
0.0029848
0.00300392
0.00302242
0.00304025
0.00305736
0.00307371
0.00308924
0.00310391
0.00311767
0.00313047
0.00314227
0.00315303
0.00316272
0.0031713
0.00317874
0.00318502
0.00319013
0.00319405
0.00319678
0.00319832
0.00319869
0.00319791
0.003196
0.003193
0.00318893
0.00318386
0.00317782
0.00317088
0.0031631
0.00315453
0.00314523
0.00313528
0.00312475
0.00311369
0.00310217
0.00309024
0.00307795
0.00306538
0.00305256
0.00303954
0.00302632
0.00301295
0.00299948
0.00298589
0.00297219
0.00295835
0.00294434
0.00293011
0.00291555
0.00290045
0.00288445
0.00286696
0.00284744
0.00282626
0.00280377
0.00278012
0.00275531
0.00272925
0.00270182
0.00267285
0.00264219
0.00260963
0.00257499
0.00253807
0.00249868
0.00245664
0.0024118
0.00236399
0.00231311
0.00225906
0.00220176
0.00214116
0.00207715
0.00200963
0.00193771
0.00185826
3.7108e-05
0.000132944
0.000231206
0.000316078
0.000387024
0.000445304
0.000492295
0.000529221
0.000557165
0.000577108
0.000589275
0.000594525
0.000594175
0.000589809
0.000583359
0.000577147
0.000573607
0.00057475
0.000581793
0.000595005
0.00061397
0.000638034
0.000666723
0.000699894
0.000737686
0.000780315
0.000827829
0.000879984
0.000936257
0.000995911
0.00105809
0.00112189
0.00118647
0.00125105
0.00131499
0.00137777
0.001439
0.00149839
0.00155575
0.001611
0.0016641
0.00171506
0.00176394
0.00181083
0.00185583
0.00189906
0.00194065
0.00198071
0.00201939
0.00205679
0.00209305
0.00212827
0.00216257
0.00219606
0.00222882
0.00226094
0.00229252
0.00232362
0.00235431
0.00238467
0.00241474
0.00244458
0.00247424
0.00250375
0.00253315
0.00256247
0.00259173
0.00262097
0.00265019
0.00267942
0.00270865
0.00273791
0.00276719
0.00279649
0.00282581
0.00285516
0.00288451
0.00291387
0.00294321
0.00297253
0.00300181
0.00303103
0.00306019
0.00308913
0.00311798
0.00314678
0.00317556
0.00320431
0.00323304
0.00326171
0.00329031
0.00331882
0.00334721
0.00337546
0.00340354
0.00343142
0.00345907
0.00348645
0.00351353
0.00354027
0.00356664
0.00359257
0.00361805
0.003643
0.0036674
0.00369118
0.00371429
0.00373668
0.00375829
0.00377906
0.00379893
0.00381784
0.00383574
0.00385257
0.00386826
0.00388277
0.00389604
0.00390803
0.00391869
0.00392799
0.00393589
0.00394236
0.0039474
0.00395099
0.00395314
0.00395383
0.00395311
0.00395097
0.00394747
0.00394263
0.0039365
0.00392914
0.0039206
0.00391095
0.00390023
0.00388854
0.00387592
0.00386247
0.00384822
0.00383323
0.00381758
0.00380133
0.00378453
0.00376721
0.00374941
0.00373114
0.00371245
0.00369332
0.00367376
0.00365374
0.00363322
0.00361213
0.00359036
0.00356773
0.00354396
0.00351867
0.00349157
0.00346276
0.00343242
0.00340062
0.00336734
0.00333249
0.00329597
0.00325761
0.00321726
0.00317474
0.00312987
0.00308249
0.00303243
0.00297955
0.00292372
0.00286484
0.00280286
0.00273774
0.0026695
0.0025982
0.0025239
0.00244675
0.00236643
0.0022823
4.45356e-05
0.000157591
0.000272067
0.000369534
0.00045
0.00051505
0.000566654
0.000606433
0.000635753
0.000655631
0.000666935
0.000671136
0.000669944
0.000665405
0.000659892
0.000655943
0.00065591
0.000661555
0.000673834
0.000692941
0.000718584
0.000750319
0.000787773
0.000830721
0.00087902
0.000932486
0.000990783
0.00105337
0.00111954
0.00118847
0.00125928
0.00133114
0.00140327
0.001475
0.00154579
0.00161519
0.00168288
0.00174862
0.00181226
0.00187371
0.00193297
0.00199004
0.00204498
0.00209787
0.0021488
0.00219787
0.00224522
0.00229094
0.00233517
0.00237803
0.00241964
0.00246009
0.00249952
0.00253802
0.00257569
0.00261262
0.0026489
0.00268461
0.00271982
0.0027546
0.00278901
0.0028231
0.00285694
0.00289055
0.00292398
0.00295726
0.00299043
0.00302351
0.00305651
0.00308946
0.00312236
0.00315524
0.00318809
0.00322092
0.00325373
0.00328652
0.00331928
0.00335202
0.00338472
0.00341738
0.00344999
0.00348252
0.00351496
0.00354723
0.00357943
0.00361161
0.00364376
0.0036759
0.00370801
0.00374008
0.00377209
0.00380403
0.00383586
0.00386758
0.00389915
0.00393055
0.00396174
0.0039927
0.00402339
0.00405377
0.00408381
0.00411346
0.00414269
0.00417143
0.00419964
0.00422728
0.00425427
0.00428057
0.00430611
0.00433083
0.00435465
0.00437752
0.00439937
0.00442012
0.00443971
0.00445806
0.00447511
0.0044908
0.00450508
0.00451787
0.00452914
0.00453883
0.00454691
0.00455335
0.00455814
0.00456126
0.0045627
0.00456247
0.00456059
0.00455709
0.00455198
0.00454532
0.00453715
0.00452752
0.00451647
0.00450408
0.00449042
0.00447554
0.0044595
0.00444236
0.00442418
0.00440501
0.00438491
0.00436392
0.00434205
0.00431935
0.00429583
0.0042715
0.00424634
0.00422034
0.00419346
0.00416562
0.00413673
0.00410665
0.00407516
0.00404204
0.00400709
0.00397032
0.00393178
0.00389151
0.00384946
0.00380556
0.00375972
0.00371181
0.00366171
0.00360927
0.00355436
0.00349686
0.00343667
0.00337371
0.00330792
0.00323928
0.00316782
0.00309361
0.00301677
0.00293748
0.00285599
0.00277262
0.00268739
0.00260053
5.18713e-05
0.00018043
0.000309047
0.000417543
0.000506189
0.000577333
0.000633244
0.000675855
0.000706845
0.000727295
0.000738895
0.000743445
0.000742979
0.000739816
0.000736488
0.000735526
0.000739148
0.000748974
0.000765907
0.000790208
0.000821717
0.000860074
0.000904874
0.000955711
0.00101216
0.00107372
0.00113979
0.00120966
0.00128254
0.0013576
0.00143402
0.00151106
0.00158804
0.00166438
0.00173962
0.00181338
0.00188539
0.00195543
0.00202339
0.0020892
0.00215282
0.00221428
0.00227361
0.00233089
0.00238619
0.00243961
0.00249125
0.00254123
0.00258965
0.00263662
0.00268226
0.00272668
0.00276998
0.00281226
0.00285362
0.00289416
0.00293395
0.00297309
0.00301164
0.00304967
0.00308725
0.00312444
0.00316128
0.00319783
0.00323412
0.00327019
0.00330608
0.00334181
0.0033774
0.00341288
0.00344826
0.00348356
0.00351878
0.00355393
0.00358902
0.00362405
0.00365903
0.00369395
0.0037288
0.00376359
0.00379832
0.00383297
0.00386746
0.00390186
0.00393621
0.00397054
0.00400488
0.00403921
0.00407354
0.00410786
0.00414215
0.0041764
0.00421059
0.0042447
0.00427871
0.00431261
0.00434636
0.00437994
0.00441332
0.00444646
0.00447934
0.00451191
0.00454413
0.00457596
0.00460735
0.00463824
0.00466858
0.00469832
0.00472739
0.00475571
0.00478322
0.00480984
0.0048355
0.00486012
0.00488362
0.00490592
0.00492692
0.00494656
0.00496476
0.00498145
0.00499655
0.00500998
0.0050217
0.00503166
0.00503981
0.00504611
0.00505054
0.00505306
0.00505369
0.00505243
0.00504928
0.00504426
0.00503741
0.00502875
0.00501833
0.00500619
0.00499239
0.00497698
0.00496001
0.00494154
0.0049216
0.00490026
0.00487755
0.00485352
0.0048282
0.00480161
0.00477377
0.00474468
0.00471434
0.00468273
0.00464981
0.00461553
0.00457981
0.00454254
0.00450356
0.00446273
0.00441991
0.00437509
0.00432825
0.00427938
0.00422847
0.00417546
0.00412027
0.00406282
0.00400302
0.0039408
0.00387609
0.00380884
0.00373901
0.00366661
0.00359169
0.00351431
0.00343462
0.00335278
0.00326905
0.00318372
0.00309716
0.00300982
0.00292184
0.00283358
5.87105e-05
0.000199444
0.000340479
0.000459191
0.00055573
0.000632819
0.000693124
0.000738963
0.000772002
0.00079413
0.000807299
0.000813549
0.000815109
0.000814411
0.000813998
0.000816324
0.000823508
0.000837113
0.000858069
0.000886724
0.000922997
0.000966542
0.00101687
0.0010734
0.0011355
0.00120247
0.00127356
0.00134798
0.00142492
0.0015036
0.00158327
0.00166328
0.00174302
0.001822
0.00189982
0.00197616
0.00205076
0.00212346
0.00219414
0.00226273
0.00232921
0.00239358
0.00245587
0.00251613
0.00257445
0.00263088
0.00268554
0.00273851
0.00278989
0.00283979
0.00288831
0.00293555
0.00298161
0.00302659
0.00307057
0.00311366
0.00315594
0.00319748
0.00323835
0.00327864
0.0033184
0.00335769
0.00339657
0.00343508
0.00347326
0.00351116
0.00354881
0.00358623
0.00362346
0.00366052
0.00369743
0.00373419
0.00377084
0.00380737
0.0038438
0.00388014
0.00391638
0.00395254
0.00398862
0.00402461
0.00406052
0.00409633
0.00413201
0.00416762
0.00420322
0.00423883
0.00427446
0.00431013
0.00434582
0.00438154
0.00441728
0.00445303
0.00448877
0.0045245
0.0045602
0.00459585
0.00463144
0.00466695
0.00470235
0.00473761
0.00477271
0.00480762
0.00484229
0.00487669
0.00491077
0.00494448
0.00497778
0.0050106
0.00504288
0.00507456
0.00510554
0.00513576
0.00516513
0.00519358
0.005221
0.00524731
0.0052724
0.00529618
0.00531855
0.00533943
0.00535873
0.00537633
0.00539216
0.00540615
0.00541824
0.00542835
0.0054364
0.00544238
0.00544625
0.00544799
0.00544757
0.00544501
0.00544029
0.00543344
0.00542447
0.00541341
0.0054003
0.00538517
0.00536806
0.005349
0.00532805
0.00530525
0.00528062
0.00525421
0.00522604
0.00519614
0.00516453
0.00513121
0.00509617
0.00505941
0.0050209
0.00498058
0.00493841
0.00489429
0.00484813
0.00479982
0.00474928
0.00469647
0.00464137
0.00458396
0.00452423
0.00446215
0.00439768
0.00433079
0.00426145
0.00418964
0.00411539
0.0040387
0.00395966
0.00387836
0.00379496
0.00370963
0.00362265
0.00353429
0.00344492
0.00335495
0.00326484
0.00317508
0.00308581
0.00299721
6.4751e-05
0.000215771
0.000367458
0.000495219
0.000599014
0.000681824
0.000746652
0.000795937
0.000831874
0.000856691
0.000872533
0.000881592
0.000886182
0.000888739
0.000891742
0.000897542
0.000908169
0.000925159
0.000949474
0.000981531
0.0010213
0.00106842
0.00112236
0.00118241
0.00124783
0.00131782
0.00139155
0.00146822
0.00154706
0.00162731
0.00170832
0.00178948
0.00187028
0.00195027
0.0020291
0.00210649
0.00218222
0.00225614
0.00232812
0.00239811
0.00246608
0.00253203
0.00259597
0.00265795
0.00271803
0.00277627
0.00283275
0.00288756
0.00294078
0.00299251
0.00304284
0.00309186
0.00313967
0.00318636
0.00323202
0.00327672
0.00332056
0.00336361
0.00340594
0.00344763
0.00348872
0.00352929
0.00356939
0.00360905
0.00364834
0.00368728
0.00372591
0.00376427
0.00380238
0.00384027
0.00387795
0.00391546
0.0039528
0.00398999
0.00402704
0.00406397
0.00410077
0.00413747
0.00417407
0.00421057
0.00424697
0.00428326
0.00431947
0.00435566
0.00439186
0.00442812
0.00446443
0.00450082
0.00453728
0.00457381
0.00461042
0.0046471
0.00468384
0.00472064
0.00475748
0.00479437
0.00483129
0.00486822
0.00490516
0.00494208
0.00497896
0.00501577
0.00505248
0.00508906
0.00512546
0.00516166
0.0051976
0.00523322
0.00526848
0.00530328
0.00533756
0.00537124
0.00540422
0.00543643
0.00546777
0.00549813
0.00552737
0.0055554
0.00558212
0.00560742
0.0056312
0.00565327
0.00567356
0.00569198
0.00570843
0.00572282
0.00573505
0.00574506
0.00575278
0.00575817
0.00576117
0.00576175
0.00575988
0.00575556
0.00574878
0.00573954
0.00572785
0.00571373
0.0056972
0.0056783
0.00565703
0.00563345
0.00560757
0.00557943
0.00554904
0.00551644
0.00548163
0.00544462
0.00540541
0.005364
0.00532037
0.00527447
0.00522627
0.00517571
0.00512272
0.00506723
0.0050092
0.00494858
0.00488536
0.00481954
0.00475112
0.00468009
0.00460648
0.00453029
0.00445158
0.00437038
0.00428681
0.00420098
0.00411307
0.00402328
0.00393189
0.00383922
0.00374564
0.00365157
0.00355748
0.00346389
0.00337132
0.00328025
0.00319076
0.00310277
6.9911e-05
0.000229374
0.000390006
0.000525633
0.000636001
0.000724268
0.000793577
0.000846664
0.000886169
0.000914474
0.000933853
0.00094657
0.000954948
0.000961363
0.000968178
0.000977615
0.000991599
0.00101162
0.00103866
0.00107317
0.00111516
0.00116431
0.00122006
0.00128167
0.00134836
0.00141929
0.00149365
0.00157065
0.00164953
0.00172963
0.00181032
0.00189107
0.00197141
0.00205096
0.00212939
0.00220645
0.00228195
0.00235573
0.0024277
0.00249779
0.00256597
0.00263223
0.00269658
0.00275907
0.00281972
0.00287861
0.00293579
0.00299134
0.00304534
0.00309787
0.00314901
0.00319885
0.00324748
0.00329498
0.00334143
0.00338692
0.00343151
0.00347528
0.00351831
0.00356065
0.00360237
0.00364353
0.00368417
0.00372434
0.00376409
0.00380345
0.00384247
0.00388117
0.00391958
0.00395774
0.00399565
0.00403335
0.00407085
0.00410817
0.00414532
0.00418233
0.00421919
0.00425593
0.00429256
0.00432907
0.00436549
0.00440182
0.00443813
0.00447448
0.00451088
0.00454737
0.00458397
0.00462069
0.00465753
0.0046945
0.0047316
0.00476883
0.0048062
0.0048437
0.00488134
0.00491911
0.004957
0.00499502
0.00503315
0.00507138
0.00510971
0.0051481
0.00518654
0.005225
0.00526344
0.00530184
0.00534015
0.00537833
0.00541633
0.00545408
0.00549148
0.00552845
0.00556491
0.00560079
0.00563598
0.00567039
0.0057038
0.00573614
0.00576728
0.0057971
0.00582547
0.00585223
0.00587725
0.00590041
0.00592159
0.00594066
0.00595751
0.00597203
0.00598411
0.00599369
0.00600067
0.00600499
0.0060066
0.00600545
0.0060015
0.00599474
0.00598515
0.00597272
0.00595746
0.00593937
0.00591846
0.00589476
0.00586827
0.00583903
0.00580705
0.00577234
0.00573492
0.00569479
0.00565196
0.00560642
0.00555816
0.00550716
0.00545338
0.0053968
0.00533737
0.00527504
0.00520979
0.00514161
0.00507049
0.00499645
0.00491951
0.00483972
0.00475712
0.00467181
0.00458389
0.00449349
0.00440081
0.00430607
0.00420955
0.00411158
0.00401258
0.00391299
0.00381331
0.00371411
0.00361596
0.00351948
0.00342523
0.00333369
0.00324482
0.00315828
7.41258e-05
0.000240198
0.000408071
0.000550351
0.000666536
0.000759783
0.000833426
0.000890623
0.00093414
0.000966475
0.000989978
0.00100694
0.00101963
0.00103033
0.00104125
0.00105445
0.00107172
0.00109448
0.00112367
0.00115979
0.0012029
0.00125271
0.0013087
0.00137017
0.00143637
0.00150648
0.00157973
0.00165536
0.00173267
0.00181105
0.00188992
0.0019688
0.00204727
0.00212498
0.00220164
0.00227702
0.00235095
0.00242329
0.00249394
0.00256285
0.00262997
0.00269531
0.00275886
0.00282065
0.00288073
0.00293913
0.00299592
0.00305116
0.00310492
0.00315727
0.00320829
0.00325805
0.00330664
0.00335413
0.00340059
0.0034461
0.00349074
0.00353456
0.00357764
0.00362003
0.00366179
0.00370298
0.00374363
0.00378381
0.00382355
0.00386288
0.00390184
0.00394047
0.00397878
0.00401681
0.00405458
0.00409211
0.00412942
0.00416653
0.00420346
0.00424022
0.00427683
0.0043133
0.00434965
0.00438588
0.00442205
0.0044582
0.00449441
0.00453069
0.00456708
0.0046036
0.00464027
0.00467711
0.00471413
0.00475133
0.00478872
0.00482631
0.00486409
0.00490209
0.00494029
0.00497871
0.00501736
0.00505622
0.0050953
0.00513461
0.00517414
0.00521388
0.0052538
0.00529388
0.00533411
0.00537446
0.0054149
0.00545541
0.00549593
0.00553643
0.00557675
0.00561683
0.00565662
0.00569601
0.0057349
0.00577318
0.00581069
0.0058473
0.00588288
0.00591729
0.00595036
0.00598195
0.00601188
0.00604001
0.00606618
0.00609024
0.00611204
0.00613145
0.00614832
0.00616253
0.00617398
0.00618255
0.00618817
0.00619075
0.00619022
0.00618654
0.00617966
0.00616954
0.00615617
0.00613953
0.00611962
0.00609643
0.00606997
0.00604025
0.00600728
0.00597106
0.00593161
0.00588893
0.00584302
0.00579388
0.00574151
0.00568589
0.00562701
0.00556483
0.00549936
0.00543056
0.00535842
0.00528296
0.0052042
0.00512216
0.00503693
0.00494856
0.00485718
0.00476292
0.00466596
0.00456654
0.00446492
0.00436145
0.00425653
0.00415063
0.00404427
0.00393806
0.00383265
0.00372873
0.003627
0.00352815
0.00343279
0.00334139
0.00325383
0.00316951
7.73733e-05
0.000248298
0.000421724
0.000569374
0.000690389
0.000788022
0.000865881
0.000927212
0.000974885
0.00101148
0.00103938
0.00106087
0.00107814
0.00109334
0.00110849
0.00112549
0.00114594
0.00117116
0.00120204
0.00123906
0.00128235
0.00133168
0.0013866
0.00144651
0.00151071
0.00157846
0.00164904
0.00172176
0.00179599
0.00187115
0.00194674
0.00202231
0.00209749
0.00217196
0.00224546
0.00231779
0.0023888
0.00245835
0.00252636
0.00259279
0.00265759
0.00272075
0.00278229
0.00284222
0.00290057
0.0029574
0.00301274
0.00306666
0.00311922
0.00317047
0.0032205
0.00326937
0.00331714
0.0033639
0.0034097
0.00345461
0.00349869
0.00354202
0.00358464
0.00362661
0.00366799
0.00370881
0.00374912
0.00378897
0.00382838
0.0038674
0.00390605
0.00394436
0.00398236
0.00402007
0.00405751
0.0040947
0.00413166
0.00416841