/*--------------------------------*- C++ -*----------------------------------*\
  =========                 |
  \\      /  F ield         | OpenFOAM: The Open Source CFD Toolbox
   \\    /   O peration     | Website:  https://openfoam.org
    \\  /    A nd           | Version:  12
     \\/     M anipulation  |
\*---------------------------------------------------------------------------*/
FoamFile
{
    format      ascii;
    class       volScalarField;
    location    "0.07";
    object      p;
}
// * * * * * * * * * * * * * * * * * * * * * * * * * * * * * * * * * * * * * //

dimensions      [0 2 -2 0 0 0 0];

internalField   nonuniform List<scalar> 
12225
(
-1.69368
-3.97632
-5.13792
-5.44474
-5.61125
-5.76862
-5.89025
-5.97497
-6.03993
-6.09509
-6.14183
-6.17936
-6.20705
-6.22239
-6.2219
-6.18747
-6.12955
-5.90503
-5.16123
-5.86297
-5.95233
-5.8159
-5.77406
-5.83905
-5.91688
-5.97907
-6.03149
-6.07912
-6.12136
-6.15648
-6.18339
-6.19959
-6.2033
-6.1811
-6.15455
-6.06571
-5.36602
-5.26271
-5.41863
-5.53945
-5.64502
-5.76505
-5.87047
-5.94954
-6.01226
-6.0665
-6.11359
-6.1528
-6.18361
-6.20454
-6.21533
-6.20963
-6.21127
-6.21467
-5.22879
-5.1503
-5.4255
-5.60293
-5.69563
-5.79054
-5.88286
-5.95692
-6.01719
-6.07003
-6.11664
-6.15625
-6.18854
-6.21292
-6.23042
-6.24056
-6.26394
-6.31255
-5.23586
-5.25276
-5.49201
-5.64063
-5.71495
-5.7975
-5.88439
-5.9571
-6.01694
-6.0696
-6.11655
-6.15731
-6.1919
-6.22062
-6.24553
-6.26943
-6.30826
-6.37545
-5.2977
-5.33983
-5.51679
-5.64628
-5.72261
-5.80305
-5.88676
-5.95841
-6.01815
-6.07094
-6.11848
-6.16064
-6.19777
-6.23086
-6.26257
-6.29699
-6.3458
-6.41986
-5.35765
-5.39684
-5.53245
-5.65346
-5.73426
-5.81199
-5.89122
-5.96109
-6.02057
-6.07351
-6.12168
-6.16529
-6.20498
-6.24215
-6.27963
-6.32161
-6.37633
-6.45113
-5.41106
-5.44565
-5.5552
-5.66669
-5.74775
-5.82178
-5.89645
-5.96439
-6.02356
-6.07667
-6.1255
-6.17057
-6.2127
-6.25346
-6.29554
-6.34258
-6.40012
-6.47238
-5.46118
-5.49263
-5.58271
-5.68245
-5.76113
-5.83188
-5.90256
-5.96846
-6.02715
-6.08037
-6.12983
-6.17625
-6.22054
-6.26424
-6.30968
-6.35972
-6.41788
-6.48615
-5.50895
-5.53731
-5.61184
-5.69976
-5.77488
-5.84272
-5.9098
-5.97348
-6.03145
-6.08467
-6.13463
-6.18219
-6.22823
-6.27414
-6.32178
-6.37322
-6.43055
-6.4944
-5.55422
-5.57926
-5.64147
-5.71866
-5.78942
-5.85434
-5.9181
-5.97946
-6.03648
-6.08955
-6.13985
-6.18825
-6.23557
-6.28295
-6.33179
-6.38347
-6.43911
-6.49861
-5.59326
-5.61538
-5.6687
-5.73719
-5.80347
-5.86559
-5.92652
-5.98576
-6.04174
-6.0945
-6.14493
-6.1938
-6.24185
-6.28996
-6.33916
-6.39034
-6.44404
-6.49985
-5.62957
-5.64918
-5.69526
-5.75613
-5.81786
-5.87712
-5.93543
-5.9926
-6.04744
-6.09975
-6.15011
-6.1992
-6.2476
-6.29598
-6.34504
-6.39528
-6.44691
-6.49938
-5.6679
-5.68505
-5.72448
-5.77794
-5.83464
-5.8906
-5.9461
-6.001
-6.05443
-6.10603
-6.15608
-6.20508
-6.25346
-6.30165
-6.35005
-6.39886
-6.44809
-6.49716
-5.70707
-5.72186
-5.75545
-5.8021
-5.85357
-5.90589
-5.95844
-6.01094
-6.0627
-6.11327
-6.16268
-6.21121
-6.2591
-6.30656
-6.35377
-6.40074
-6.44735
-6.49313
-5.7452
-5.75788
-5.78661
-5.82735
-5.87382
-5.9224
-5.97197
-6.02202
-6.07191
-6.12113
-6.16953
-6.21715
-6.26406
-6.3103
-6.35588
-6.40072
-6.44467
-6.48737
-5.77945
-5.79045
-5.81543
-5.85147
-5.89365
-5.9388
-5.98558
-6.03328
-6.08124
-6.12891
-6.17597
-6.2223
-6.26781
-6.31246
-6.35613
-6.39872
-6.4401
-6.48001
-5.8055
-5.81535
-5.83788
-5.87079
-5.90998
-5.95258
-5.9972
-6.04299
-6.08925
-6.1354
-6.18103
-6.2259
-6.26985
-6.31274
-6.35445
-6.39488
-6.43391
-6.4714
-5.81634
-5.82581
-5.84755
-5.87951
-5.91778
-5.95951
-6.00324
-6.04813
-6.09346
-6.13861
-6.18314
-6.22676
-6.2693
-6.31061
-6.35059
-6.38916
-6.42624
-6.46179
-5.80341
-5.81362
-5.83696
-5.87115
-5.91166
-5.95515
-6.00008
-6.04579
-6.09165
-6.13701
-6.18144
-6.22469
-6.26663
-6.30715
-6.34619
-6.38369
-6.41962
-6.45398
-5.77861
-5.78997
-5.81616
-5.8545
-5.89906
-5.9456
-5.9928
-6.04032
-6.08755
-6.13377
-6.17864
-6.22203
-6.26389
-6.30414
-6.34276
-6.37973
-6.41507
-6.44881
-5.74469
-5.75725
-5.78772
-5.83285
-5.8832
-5.93336
-5.9833
-6.03336
-6.08258
-6.13008
-6.17567
-6.21946
-6.26148
-6.30169
-6.34012
-6.37679
-6.41177
-6.44511
-5.70481
-5.7176
-5.75343
-5.8087
-5.86671
-5.92077
-5.97357
-6.02635
-6.07766
-6.12649
-6.17295
-6.2173
-6.25962
-6.29992
-6.33829
-6.37481
-6.40957
-6.44267
-5.6615
-5.67326
-5.71611
-5.78343
-5.84904
-5.90775
-5.9649
-6.02098
-6.07403
-6.12375
-6.17085
-6.21568
-6.25825
-6.29861
-6.33691
-6.37331
-6.4079
-6.4408
-5.615
-5.62296
-5.68448
-5.76499
-5.83103
-5.89179
-5.95494
-6.01592
-6.07121
-6.12191
-6.16968
-6.21498
-6.25775
-6.29812
-6.33632
-6.37257
-6.40701
-6.4398
-5.56729
-5.54386
-5.65513
-5.76477
-5.82626
-5.88145
-5.94614
-6.00989
-6.06669
-6.11832
-6.16691
-6.21278
-6.25587
-6.29636
-6.33459
-6.37081
-6.40519
-6.43789
-5.55813
-5.41403
-5.57356
-5.74047
-5.82586
-5.88797
-5.954
-6.01653
-6.07177
-6.12251
-6.17061
-6.21604
-6.25865
-6.29869
-6.33648
-6.37228
-6.40634
-6.43881
-5.70361
-5.42
-5.45522
-5.5864
-5.70688
-5.81497
-5.91025
-5.98738
-6.05111
-6.10793
-6.16033
-6.20865
-6.25322
-6.29462
-6.33336
-6.36983
-6.40451
-6.43802
-5.64046
-6.14035
-6.15095
-5.99242
-5.91238
-5.93762
-5.99296
-6.04372
-6.0903
-6.13642
-6.18171
-6.22486
-6.26548
-6.30376
-6.33988
-6.37393
-6.40615
-6.43838
-2.30182
-4.17258
-5.24432
-5.53809
-5.67381
-5.81162
-5.92473
-6.00607
-6.07049
-6.12806
-6.181
-6.22937
-6.27372
-6.31477
-6.35292
-6.38817
-6.42018
-6.44714
-7.71697
-7.70555
-7.69687
-7.69295
-7.69251
-7.69487
-7.69953
-7.70568
-7.71224
-7.71811
-7.72218
-7.72363
-7.72282
-7.71976
-7.71487
-7.70831
-7.69619
-7.68469
-7.6781
-7.67131
-7.67176
-7.67759
-7.68507
-7.69298
-7.69232
-7.69583
-7.71138
-7.73284
-7.76064
-7.79536
-7.8372
-7.88588
-7.94066
-8.0004
-8.06373
-8.1292
-8.19536
-8.26094
-8.32485
-8.38624
-8.44448
-8.49915
-8.55001
-8.59695
-8.63995
-8.67909
-8.71445
-8.74617
-8.77437
-8.79917
-8.82069
-8.83903
-8.85426
-8.86644
-8.87561
-8.88177
-8.88494
-8.88509
-8.88216
-8.87612
-8.86687
-8.85434
-8.83842
-8.81898
-8.79591
-8.76904
-8.73824
-8.70333
-8.66413
-8.62047
-8.57214
-8.51894
-8.46066
-8.3971
-8.32802
-8.25321
-8.17245
-8.08552
-7.99219
-7.89225
-7.78555
-7.67192
-7.55118
-7.42305
-7.28738
-7.14358
-6.99163
-6.8315
-6.66311
-6.4864
-6.30132
-6.10782
-5.90592
-5.69564
-5.47705
-5.25025
-5.01538
-4.77261
-4.52216
-4.26429
-3.9993
-3.72753
-3.44935
-3.1652
-2.87553
-2.58083
-2.28165
-1.97855
-1.67213
-1.363
-1.05182
-0.739239
-0.42594
-0.1126
0.200098
0.511483
0.820891
1.12768
1.43124
1.73099
2.02639
2.31696
2.60224
2.88188
3.15555
3.42303
3.68413
3.93879
4.187
4.42884
4.66448
4.89419
5.11831
5.33727
5.55161
5.76193
5.96894
6.17341
6.3762
6.57824
6.78051
6.98407
7.19003
7.39952
7.61371
7.83378
8.06091
8.29627
8.54095
8.79602
9.06243
9.34104
9.63255
9.93748
10.2561
10.5884
10.9337
11.2914
11.6605
12.0397
12.427
12.8201
13.2161
13.6118
14.0032
14.3863
14.7567
15.1098
15.4412
15.7467
16.0227
16.2664
16.4762
16.6526
16.7982
16.9191
17.0295
17.1504
17.3577
17.6821
-7.72375
-7.7146
-7.70864
-7.70848
-7.71248
-7.71867
-7.72573
-7.73254
-7.73804
-7.74131
-7.74178
-7.73912
-7.7326
-7.72292
-7.71082
-7.69711
-7.68197
-7.66579
-7.65107
-7.64117
-7.63336
-7.62863
-7.62521
-7.62109
-7.6224
-7.63243
-7.64837
-7.67021
-7.69935
-7.73693
-7.78303
-7.83694
-7.89737
-7.96265
-8.03099
-8.10063
-8.17001
-8.23786
-8.30319
-8.3653
-8.42373
-8.47822
-8.52867
-8.57506
-8.61749
-8.65606
-8.69091
-8.72219
-8.75003
-8.77457
-8.79592
-8.81416
-8.82938
-8.84163
-8.85094
-8.85732
-8.86077
-8.86126
-8.85876
-8.85319
-8.8445
-8.83258
-8.81734
-8.79865
-8.77639
-8.75042
-8.72058
-8.68671
-8.64863
-8.60616
-8.5591
-8.50726
-8.45043
-8.38839
-8.32094
-8.24784
-8.16887
-8.0838
-7.99241
-7.89447
-7.78974
-7.67797
-7.55896
-7.43247
-7.29797
-7.15593
-7.0061
-6.84825
-6.68223
-6.50795
-6.32532
-6.13431
-5.93491
-5.72713
-5.51104
-5.28672
-5.0543
-4.81395
-4.56587
-4.3103
-4.04754
-3.77791
-3.50178
-3.21956
-2.93169
-2.63866
-2.341
-2.03925
-1.734
-1.42588
-1.1155
-0.803541
-0.490657
-0.177532
0.135155
0.446728
0.75652
1.06388
1.36819
1.66886
1.96532
2.25708
2.54368
2.82472
3.09986
3.36885
3.63148
3.88765
4.13733
4.38058
4.61752
4.84841
5.07355
5.29336
5.50833
5.71906
5.92622
6.13058
6.33295
6.53426
6.73549
6.93767
7.14189
7.3493
7.56105
7.77831
8.00227
8.23409
8.47489
8.72573
8.98758
9.26134
9.54768
9.84718
10.1602
10.4867
10.826
11.1776
11.5406
11.9137
12.295
12.6824
13.0729
13.4635
13.8504
14.2297
14.5971
14.9481
15.2786
15.5843
15.8618
16.1084
16.3228
16.5052
16.6584
16.7883
16.908
17.0346
17.2174
17.4617
-7.73814
-7.73013
-7.7255
-7.72654
-7.73122
-7.73741
-7.74374
-7.74921
-7.75296
-7.75428
-7.7527
-7.74797
-7.73989
-7.72852
-7.71417
-7.69735
-7.67868
-7.65963
-7.64255
-7.62783
-7.61752
-7.61034
-7.60612
-7.60459
-7.60715
-7.61771
-7.63657
-7.66368
-7.69906
-7.74242
-7.79291
-7.84933
-7.91027
-7.97424
-8.03982
-8.10572
-8.17086
-8.23433
-8.29544
-8.35368
-8.40871
-8.4603
-8.50834
-8.5528
-8.59369
-8.63107
-8.66503
-8.69566
-8.72306
-8.74732
-8.76851
-8.78672
-8.802
-8.81438
-8.8239
-8.83056
-8.83434
-8.83522
-8.83316
-8.8281
-8.81997
-8.80867
-8.79412
-8.77618
-8.75474
-8.72965
-8.70076
-8.66792
-8.63095
-8.58966
-8.54387
-8.49338
-8.43798
-8.37746
-8.31161
-8.2402
-8.16301
-8.07981
-7.99037
-7.89447
-7.79187
-7.6823
-7.56553
-7.44141
-7.30966
-7.17026
-7.02306
-6.86788
-6.70459
-6.53309
-6.35328
-6.16512
-5.9686
-5.76371
-5.55051
-5.32907
-5.09951
-4.86199
-4.6167
-4.36386
-4.10375
-3.83669
-3.56302
-3.28313
-2.99747
-2.7065
-2.41073
-2.1107
-1.80699
-1.50019
-1.19092
-0.879852
-0.567631
-0.254935
0.0575575
0.369169
0.679229
0.987084
1.2921
1.59367
1.89122
2.18423
2.47223
2.75477
3.03152
3.30216
3.56648
3.82433
4.07565
4.32045
4.55886
4.79105
5.01732
5.23805
5.45371
5.66485
5.87213
6.07626
6.27808
6.47846
6.67837
6.87883
7.08093
7.28577
7.49453
7.70837
7.92847
8.15599
8.39207
8.63775
8.89402
9.16179
9.44175
9.73443
10.0402
10.3591
10.6909
11.0351
11.3908
11.7568
12.1312
12.5119
12.8963
13.2812
13.6633
14.0385
14.4028
14.7519
15.0817
15.3883
15.6681
15.9187
16.1386
16.328
16.4897
16.6289
16.757
16.8855
17.0497
17.2149
-7.75575
-7.75205
-7.7501
-7.75214
-7.7566
-7.76168
-7.76627
-7.76958
-7.77095
-7.76983
-7.76587
-7.75881
-7.7486
-7.73535
-7.71939
-7.70129
-7.68193
-7.66262
-7.64507
-7.63032
-7.61963
-7.61328
-7.61161
-7.61508
-7.62448
-7.64106
-7.66534
-7.69723
-7.7363
-7.78177
-7.83267
-7.88786
-7.94617
-8.00646
-8.06766
-8.12883
-8.18914
-8.24791
-8.3046
-8.35879
-8.41019
-8.45858
-8.50385
-8.54594
-8.58483
-8.62055
-8.65315
-8.68268
-8.7092
-8.73279
-8.75349
-8.77135
-8.78642
-8.79871
-8.80823
-8.81499
-8.81896
-8.82011
-8.81839
-8.81374
-8.80609
-8.79534
-8.7814
-8.76414
-8.74344
-8.71916
-8.69115
-8.65925
-8.62329
-8.58308
-8.53844
-8.48916
-8.43505
-8.37588
-8.31144
-8.2415
-8.16585
-8.08424
-7.99644
-7.90222
-7.80135
-7.69359
-7.57872
-7.45653
-7.32689
-7.18961
-7.04455
-6.89153
-6.73043
-6.56113
-6.38355
-6.19762
-6.00333
-5.80067
-5.58968
-5.37043
-5.14304
-4.90763
-4.66441
-4.41358
-4.15541
-3.8902
-3.6183
-3.34008
-3.05597
-2.76642
-2.47194
-2.17306
-1.87034
-1.56437
-1.25578
-0.945205
-0.633308
-0.320761
-0.00824274
0.303567
0.613994
0.922375
1.22807
1.53045
1.82894
2.123
2.41213
2.69588
2.97387
3.24578
3.51137
3.77045
4.02295
4.26884
4.50822
4.74124
4.96818
5.18938
5.40529
5.61644
5.82346
6.02706
6.22803
6.42726
6.62568
6.82432
7.02423
7.22655
7.43242
7.643
7.85948
8.08303
8.31479
8.55583
8.80715
9.06965
9.34406
9.63093
9.93062
10.2432
10.5686
10.9065
11.256
11.6159
11.9844
12.3596
12.7388
13.1191
13.4971
13.869
14.2308
14.5783
14.9075
15.2146
15.496
15.7494
15.9732
16.1676
16.3346
16.4788
16.6092
16.7326
16.8721
16.9733
-7.76455
-7.76547
-7.76617
-7.76899
-7.77301
-7.77695
-7.77997
-7.7815
-7.78103
-7.77819
-7.7727
-7.76437
-7.75323
-7.73945
-7.72347
-7.70599
-7.68801
-7.67076
-7.6556
-7.64368
-7.63598
-7.63316
-7.63577
-7.64427
-7.65919
-7.68089
-7.7094
-7.74438
-7.78524
-7.83116
-7.88122
-7.93445
-7.98989
-8.0466
-8.10375
-8.16061
-8.21653
-8.27099
-8.32356
-8.37391
-8.4218
-8.46704
-8.50952
-8.54918
-8.58599
-8.61994
-8.65105
-8.67935
-8.70489
-8.72768
-8.74777
-8.76519
-8.77994
-8.79205
-8.8015
-8.80829
-8.81237
-8.81372
-8.81228
-8.80797
-8.80073
-8.79046
-8.77705
-8.76039
-8.74035
-8.71678
-8.68955
-8.65847
-8.62339
-8.58413
-8.54048
-8.49225
-8.43924
-8.38122
-8.31799
-8.2493
-8.17494
-8.09466
-8.00824
-7.91544
-7.81602
-7.70976
-7.59644
-7.47585
-7.34782
-7.21216
-7.06871
-6.9173
-6.7578
-6.5901
-6.41409
-6.22973
-6.03697
-5.83582
-5.6263
-5.40849
-5.18249
-4.94842
-4.70648
-4.45687
-4.19985
-3.93571
-3.66479
-3.38747
-3.10416
-2.81532
-2.52144
-2.22305
-1.9207
-1.615
-1.30655
-0.996001
-0.684015
-0.371264
-0.0584329
0.253795
0.564736
0.87372
1.18009
1.48322
1.78252
2.07742
2.36742
2.65204
2.93089
3.20364
3.47001
3.72981
3.98294
4.22936
4.46914
4.70242
4.92946
5.15057
5.3662
5.57687
5.78317
5.98583
6.18561
6.38338
6.58009
6.77674
6.9744
7.17418
7.37724
7.58476
7.79791
8.01788
8.24581
8.48279
8.72983
8.98785
9.2576
9.53965
9.83437
10.1419
10.4622
10.795
11.1395
11.4945
11.8585
12.2294
12.6046
12.9814
13.3563
13.7257
14.0857
14.4321
14.7609
15.0683
15.3509
15.6061
15.8323
16.0293
16.1988
16.3441
16.4721
16.5853
16.6992
16.7501
-7.75855
-7.76439
-7.76821
-7.77255
-7.77697
-7.78059
-7.78289
-7.7835
-7.78211
-7.77845
-7.77235
-7.76376
-7.7528
-7.73976
-7.72518
-7.70983
-7.69475
-7.68107
-7.66998
-7.6625
-7.6595
-7.66159
-7.66924
-7.68277
-7.70237
-7.72807
-7.75962
-7.79655
-7.83821
-7.88382
-7.93256
-7.9836
-8.03614
-8.08945
-8.14286
-8.19581
-8.2478
-8.29841
-8.3473
-8.39421
-8.43893
-8.48131
-8.52124
-8.55865
-8.5935
-8.62577
-8.65547
-8.68259
-8.70715
-8.72917
-8.74865
-8.76562
-8.78006
-8.79198
-8.80135
-8.80814
-8.81233
-8.81386
-8.81268
-8.8087
-8.80184
-8.79201
-8.77911
-8.763
-8.74357
-8.72067
-8.69414
-8.66382
-8.62955
-8.59114
-8.54839
-8.5011
-8.44907
-8.39208
-8.3299
-8.26231
-8.18907
-8.10995
-8.0247
-7.9331
-7.8349
-7.72987
-7.61781
-7.49849
-7.37171
-7.23729
-7.09505
-6.94482
-6.78648
-6.61989
-6.44496
-6.26164
-6.06988
-5.86968
-5.66107
-5.44411
-5.2189
-4.98557
-4.74429
-4.49528
-4.23879
-3.97511
-3.70458
-3.42756
-3.14447
-2.85577
-2.56194
-2.26352
-1.96106
-1.65515
-1.34642
-1.03552
-0.723106
-0.409861
-0.0964747
0.216361
0.527953
0.83762
1.1447
1.44855
1.74856
2.04416
2.33482
2.62006
2.89948
3.17272
3.4395
3.69961
3.95292
4.19941
4.43911
4.67216
4.8988
5.11934
5.33421
5.54392
5.74907
5.95036
6.14856
6.34454
6.53924
6.73366
6.92886
7.12597
7.32615
7.53057
7.74043
7.95691
8.18118
8.41432
8.65738
8.91127
9.17677
9.45449
9.74482
10.0479
10.3639
10.6924
11.0327
11.3837
11.7439
12.1113
12.4834
12.8574
13.2301
13.5976
13.9563
14.3019
14.6306
14.9383
15.2216
15.478
15.7055
15.9037
16.0736
16.2176
16.3403
16.4412
16.5314
16.542
-7.73719
-7.74792
-7.75563
-7.76238
-7.76808
-7.77233
-7.77486
-7.77549
-7.77407
-7.7705
-7.76474
-7.75686
-7.74709
-7.73583
-7.7237
-7.71152
-7.70027
-7.69103
-7.68479
-7.68244
-7.68467
-7.69196
-7.70461
-7.72275
-7.74637
-7.77525
-7.80905
-7.84722
-7.88913
-7.9341
-7.98141
-8.03037
-8.08033
-8.13071
-8.18097
-8.23065
-8.27936
-8.32676
-8.37259
-8.41661
-8.45867
-8.49862
-8.53637
-8.57186
-8.60502
-8.63584
-8.6643
-8.6904
-8.71412
-8.73547
-8.75445
-8.77104
-8.78523
-8.79701
-8.80634
-8.81319
-8.81751
-8.81925
-8.81833
-8.81469
-8.80822
-8.79883
-8.78642
-8.77085
-8.752
-8.72973
-8.70387
-8.67427
-8.64075
-8.60313
-8.5612
-8.51478
-8.46364
-8.40756
-8.34633
-8.2797
-8.20745
-8.12932
-8.04508
-7.95449
-7.8573
-7.75329
-7.64223
-7.52389
-7.39807
-7.26456
-7.12319
-6.97379
-6.81621
-6.65035
-6.47609
-6.29338
-6.10217
-5.90247
-5.69428
-5.47769
-5.25278
-5.01968
-4.77857
-4.52966
-4.2732
-4.00947
-3.73882
-3.46162
-3.17827
-2.88924
-2.59502
-2.29614
-1.99316
-1.68668
-1.37733
-1.06575
-0.752631
-0.438648
-0.124503
0.189101
0.501462
0.811884
1.11969
1.42423
1.72489
2.02107
2.31224
2.5979
2.87764
3.15109
3.41795
3.67801
3.93114
4.17728
4.41648
4.64887
4.87467
5.09419
5.30787
5.5162
5.71979
5.91932
6.11557
6.30941
6.50178
6.69368
6.88619
7.08042
7.27754
7.47875
7.68523
7.89819
8.1188
8.34817
8.58735
8.83727
9.09874
9.37238
9.65865
9.95777
10.2698
10.5944
10.9311
11.2786
11.6355
11.9999
12.3694
12.7412
13.1119
13.478
13.8356
14.1807
14.5091
14.817
15.1008
15.3577
15.5857
15.784
15.9528
16.0937
16.2095
16.2974
16.3662
16.3438
-7.70464
-7.71944
-7.73168
-7.74152
-7.74918
-7.75473
-7.75819
-7.75955
-7.75884
-7.75609
-7.75142
-7.745
-7.73717
-7.72841
-7.71939
-7.71093
-7.70396
-7.69942
-7.69816
-7.7009
-7.70816
-7.72026
-7.73735
-7.75941
-7.78627
-7.81763
-7.85307
-7.89205
-7.934
-7.97831
-8.02438
-8.07163
-8.11952
-8.16757
-8.21534
-8.26245
-8.3086
-8.35349
-8.39692
-8.43868
-8.47865
-8.51669
-8.55273
-8.5867
-8.61855
-8.64825
-8.67576
-8.70108
-8.72419
-8.74506
-8.76369
-8.78005
-8.79412
-8.80587
-8.81526
-8.82224
-8.82676
-8.82876
-8.82815
-8.82487
-8.81881
-8.80988
-8.79796
-8.78293
-8.76465
-8.74298
-8.71777
-8.68885
-8.65604
-8.61915
-8.57799
-8.53236
-8.48203
-8.42679
-8.3664
-8.30063
-8.22923
-8.15197
-8.06859
-7.97884
-7.88249
-7.77929
-7.669
-7.5514
-7.42626
-7.29339
-7.15259
-7.0037
-6.84658
-6.68109
-6.50714
-6.32467
-6.13363
-5.93402
-5.72586
-5.50921
-5.28418
-5.05089
-4.80951
-4.56026
-4.30339
-4.03919
-3.768
-3.49019
-3.20618
-2.91642
-2.62143
-2.32172
-2.01788
-1.7105
-1.40021
-1.08769
-0.773617
-0.458685
-0.143604
0.170912
0.484146
0.795388
1.10395
1.40917
1.71041
2.00707
2.29861
2.58451
2.86434
3.13775
3.40441
3.66411
3.9167
4.16214
4.40047
4.63181
4.85637
5.07449
5.28657
5.49313
5.69476
5.89216
6.08612
6.27749
6.46722
6.65633
6.84589
7.03703
7.23093
7.42877
7.63179
7.84116
8.05809
8.2837
8.51905
8.7651
9.02267
9.29243
9.57485
9.87021
10.1786
10.4997
10.8329
11.1773
11.5313
11.893
12.2602
12.6299
12.999
13.3638
13.7205
14.0649
14.393
14.7008
14.9846
15.2414
15.4691
15.6663
15.8328
15.9692
16.077
16.1517
16.201
16.1514
-7.66626
-7.68479
-7.70119
-7.71416
-7.72401
-7.73122
-7.73603
-7.73861
-7.73912
-7.73774
-7.73468
-7.73024
-7.72481
-7.71895
-7.71332
-7.70871
-7.70597
-7.70592
-7.70926
-7.71655
-7.72818
-7.74435
-7.76507
-7.79023
-7.81959
-7.85279
-7.88939
-7.92891
-7.97082
-8.01458
-8.05967
-8.10561
-8.15194
-8.19825
-8.24417
-8.2894
-8.33367
-8.37674
-8.41842
-8.45856
-8.49702
-8.53372
-8.56857
-8.6015
-8.63246
-8.66142
-8.68834
-8.7132
-8.73597
-8.75662
-8.77512
-8.79145
-8.80557
-8.81743
-8.827
-8.83422
-8.83902
-8.84134
-8.84111
-8.83823
-8.83262
-8.82416
-8.81274
-8.79824
-8.78053
-8.75945
-8.73486
-8.70657
-8.67443
-8.63823
-8.59779
-8.55288
-8.50329
-8.4488
-8.38917
-8.32416
-8.25351
-8.17699
-8.09433
-8.00529
-7.9096
-7.80703
-7.69733
-7.58024
-7.45556
-7.32307
-7.18259
-7.03393
-6.87696
-6.71155
-6.5376
-6.35504
-6.16383
-5.96396
-5.75547
-5.53842
-5.31289
-5.07904
-4.83702
-4.58707
-4.32942
-4.06437
-3.79227
-3.51349
-3.22846
-2.93765
-2.64155
-2.34071
-2.0357
-1.72714
-1.41567
-1.10197
-0.786735
-0.470671
-0.154503
0.161044
0.475237
0.787352
1.09668
1.40256
1.70432
2.00137
2.29314
2.57911
2.85885
3.13198
3.39819
3.65725
3.90901
4.15343
4.39054
4.62047
4.84344
5.05977
5.2699
5.47432
5.67365
5.86858
6.05991
6.24852
6.43534
6.6214
6.8078
6.99565
7.18616
7.38052
7.57995
7.78568
7.99889
8.22074
8.4523
8.69454
8.94831
9.2143
9.49303
9.7848
10.0897
10.4075
10.7375
11.0789
11.4302
11.7894
12.1544
12.5222
12.8896
13.2532
13.6088
13.9525
14.28
14.5872
14.8705
15.1266
15.353
15.548
15.7112
15.8419
15.9409
16.0023
16.0338
15.9615
-7.62727
-7.64871
-7.66858
-7.68433
-7.69632
-7.70527
-7.71162
-7.71568
-7.71772
-7.71802
-7.71688
-7.71467
-7.71183
-7.70893
-7.70663
-7.70564
-7.70672
-7.71057
-7.71777
-7.72879
-7.74389
-7.76318
-7.78662
-7.81404
-7.84515
-7.8796
-7.91697
-7.95679
-7.99859
-8.04191
-8.08628
-8.13127
-8.1765
-8.22161
-8.26628
-8.31025
-8.35328
-8.39516
-8.43574
-8.47487
-8.51244
-8.54836
-8.58254
-8.61493
-8.64547
-8.67412
-8.70084
-8.72559
-8.74833
-8.76903
-8.78766
-8.80417
-8.81853
-8.83067
-8.84056
-8.84813
-8.85331
-8.85604
-8.85623
-8.8538
-8.84865
-8.84068
-8.82977
-8.81579
-8.79863
-8.77812
-8.75411
-8.72643
-8.69491
-8.65935
-8.61956
-8.57532
-8.5264
-8.47258
-8.41362
-8.34927
-8.27928
-8.20339
-8.12133
-8.03285
-7.93769
-7.83558
-7.72626
-7.6095
-7.48506
-7.35274
-7.21233
-7.06366
-6.90659
-6.74098
-6.56675
-6.38381
-6.19214
-5.99172
-5.7826
-5.56482
-5.33849
-5.10376
-4.86079
-4.60981
-4.35106
-4.08486
-3.81155
-3.53151
-3.24517
-2.95301
-2.65554
-2.3533
-2.04689
-1.73692
-1.42406
-1.10899
-0.792419
-0.475079
-0.157708
0.158952
0.474158
0.787172
1.09728
1.40377
1.706
2.00335
2.29523
2.58113
2.8606
3.13324
3.39875
3.65691
3.90755
4.15065
4.38623
4.61442
4.83547
5.04969
5.25753
5.45949
5.6562
5.84837
6.0368
6.22236
6.40603
6.58883
6.77186
6.95626
7.14323
7.33399
7.52976
7.73178
7.94125
8.15933
8.38712
8.6256
8.87564
9.13797
9.41311
9.7014
10.0029
10.3175
10.6445
10.983
11.3316
11.6885
12.0512
12.4171
12.7829
13.145
13.4994
13.842
14.1685
14.4747
14.7568
15.0113
15.2355
15.4274
15.586
15.71
15.7994
15.8477
15.8627
15.7713
-7.59147
-7.61491
-7.63742
-7.65543
-7.66927
-7.67984
-7.68773
-7.69333
-7.697
-7.69907
-7.69992
-7.69995
-7.69962
-7.69948
-7.70015
-7.70228
-7.70652
-7.71348
-7.72366
-7.73742
-7.75498
-7.77641
-7.80163
-7.83045
-7.86261
-7.89774
-7.93546
-7.97535
-8.01697
-8.05991
-8.10374
-8.14809
-8.19262
-8.23699
-8.28093
-8.32419
-8.36657
-8.40787
-8.44795
-8.48667
-8.52392
-8.55961
-8.59367
-8.62602
-8.6566
-8.68537
-8.71228
-8.73728
-8.76033
-8.78137
-8.80038
-8.8173
-8.83207
-8.84466
-8.85499
-8.86302
-8.86866
-8.87186
-8.87252
-8.87056
-8.86589
-8.8584
-8.84798
-8.83452
-8.81786
-8.79788
-8.77441
-8.7473
-8.71634
-8.68137
-8.64217
-8.59852
-8.5502
-8.49698
-8.43861
-8.37483
-8.30539
-8.23002
-8.14845
-8.06041
-7.96562
-7.86381
-7.75472
-7.63809
-7.5137
-7.38133
-7.24078
-7.09188
-6.93448
-6.76844
-6.59368
-6.41012
-6.21773
-6.01651
-5.80649
-5.58773
-5.36034
-5.12446
-4.88027
-4.628
-4.36791
-4.1003
-3.82553
-3.54398
-3.25611
-2.96238
-2.66331
-2.35948
-2.05147
-1.73993
-1.42553
-1.10895
-0.790938
-0.472223
-0.153567
0.164267
0.480523
0.79445
1.10531
1.41239
1.71502
2.01256
2.30443
2.59009
2.8691
3.14105
3.40565
3.66265
3.91192
4.15341
4.38717
4.61334
4.83217
5.04399
5.24924
5.44846
5.64228
5.83142
6.0167
6.199
6.37931
6.55866
6.73816
6.91897
7.1023
7.28937
7.48142
7.67969
7.88541
8.09973
8.32378
8.55855
8.80493
9.06366
9.3353
9.6202
9.91847
10.2299
10.5539
10.8896
11.2356
11.59
11.9505
12.3143
12.6783
13.0387
13.3916
13.7327
14.0576
14.3622
14.6423
14.8943
15.1153
15.303
15.4558
15.5722
15.6514
15.6865
15.6858
15.578
-7.56129
-7.58594
-7.61025
-7.62993
-7.64522
-7.65717
-7.66643
-7.67345
-7.67863
-7.68236
-7.68504
-7.68709
-7.68897
-7.69118
-7.69428
-7.69886
-7.70548
-7.71467
-7.72687
-7.74238
-7.76141
-7.78401
-7.8101
-7.83953
-7.87204
-7.90731
-7.94498
-7.98467
-8.02599
-8.06855
-8.11198
-8.15592
-8.20005
-8.24407
-8.28773
-8.33078
-8.37303
-8.41429
-8.45442
-8.49328
-8.53076
-8.56676
-8.6012
-8.63399
-8.66508
-8.69439
-8.72187
-8.74746
-8.77112
-8.79278
-8.8124
-8.82992
-8.84529
-8.85845
-8.86934
-8.8779
-8.88406
-8.88775
-8.88889
-8.8874
-8.88319
-8.87616
-8.8662
-8.85319
-8.837
-8.8175
-8.79451
-8.76788
-8.73744
-8.70297
-8.66429
-8.62117
-8.57337
-8.52067
-8.4628
-8.3995
-8.33052
-8.25557
-8.17438
-8.08665
-7.99209
-7.89043
-7.78139
-7.66473
-7.54021
-7.40761
-7.26673
-7.1174
-6.95946
-6.79279
-6.6173
-6.4329
-6.23959
-6.03734
-5.8262
-5.60625
-5.37758
-5.14034
-4.89473
-4.64098
-4.37934
-4.11014
-3.83373
-3.55051
-3.26093
-2.96548
-2.66468
-2.3591
-2.04938
-1.73614
-1.42008
-1.10192
-0.782376
-0.462226
-0.142242
0.176792
0.494101
0.808917
1.12049
1.42808
1.73101
2.02863
2.32035
2.60562
2.88398
3.15505
3.4185
3.67412
3.92177
4.1614
4.39309
4.61697
4.83332
5.04247
5.24489
5.44112
5.63181
5.81771
5.99963
6.17849
6.35527
6.53103
6.70689
6.88402
7.06363
7.24696
7.43527
7.62979
7.83177
8.04237
8.26272
8.49385
8.73664
8.99186
9.26008
9.54166
9.83671
10.145
10.4661
10.799
11.1423
11.4941
11.8523
12.2139
12.5758
12.9342
13.2851
13.6241
13.9469
14.249
14.5262
14.7748
14.9915
15.1738
15.3197
15.4273
15.4955
15.5174
15.5016
15.3795
-7.53803
-7.56327
-7.58867
-7.60944
-7.62575
-7.63872
-7.64903
-7.65718
-7.66359
-7.66868
-7.67285
-7.67652
-7.68011
-7.6841
-7.68898
-7.69525
-7.70343
-7.71396
-7.72725
-7.74359
-7.76316
-7.78604
-7.81218
-7.84147
-7.87369
-7.90857
-7.94579
-7.98501
-8.02587
-8.06802
-8.1111
-8.15479
-8.19877
-8.24277
-8.28652
-8.32979
-8.37237
-8.41408
-8.45476
-8.49427
-8.53248
-8.56928
-8.60456
-8.63824
-8.67023
-8.70046
-8.72886
-8.75536
-8.77989
-8.80239
-8.82281
-8.84109
-8.85717
-8.87098
-8.88249
-8.89161
-8.89829
-8.90247
-8.90407
-8.90301
-8.89921
-8.89257
-8.88299
-8.87037
-8.85457
-8.83545
-8.81287
-8.78666
-8.75664
-8.72261
-8.68437
-8.64169
-8.59434
-8.54207
-8.48462
-8.42173
-8.35311
-8.27849
-8.19757
-8.11002
-8.01555
-7.91388
-7.80475
-7.6879
-7.56308
-7.43009
-7.28872
-7.13879
-6.98015
-6.81268
-6.63628
-6.45089
-6.25648
-6.05306
-5.84065
-5.61934
-5.38924
-5.15051
-4.90334
-4.64796
-4.38465
-4.11373
-3.83556
-3.55056
-3.25917
-2.96189
-2.65926
-2.35188
-2.04036
-1.72537
-1.40761
-1.08781
-0.766724
-0.445133
-0.123833
0.196377
0.514699
0.830346
1.14255
1.45056
1.75368
2.05125
2.34266
2.62737
2.90491
3.17489
3.437
3.69101
3.93681
4.17436
4.40374
4.6251
4.83873
5.04499
5.24436
5.4374
5.62478
5.80726
5.98567
6.16095
6.3341
6.50618
6.67833
6.85173
7.0276
7.20719
7.39176
7.58257
7.78085
7.9878
8.20454
8.43211
8.6714
8.92319
9.18807
9.4664
9.75829
10.0636
10.3817
10.7117
11.0522
11.4014
11.757
12.1162
12.4756
12.8316
13.1799
13.5163
13.8361
14.1349
14.4082
14.6521
14.8633
15.0389
15.1767
15.2744
15.3308
15.339
15.3083
15.1734
-7.52215
-7.5477
-7.57364
-7.59497
-7.61184
-7.62537
-7.63629
-7.64512
-7.65232
-7.6583
-7.66346
-7.66819
-7.67289
-7.67798
-7.68389
-7.69108
-7.69997
-7.71099
-7.7245
-7.74079
-7.76006
-7.78242
-7.80788
-7.83635
-7.8677
-7.90169
-7.93807
-7.97652
-8.01675
-8.0584
-8.10116
-8.14471
-8.18874
-8.23297
-8.27713
-8.32099
-8.36431
-8.40691
-8.44859
-8.4892
-8.52858
-8.5666
-8.60314
-8.63809
-8.67134
-8.70281
-8.7324
-8.76003
-8.78563
-8.80914
-8.83048
-8.84959
-8.86643
-8.88093
-8.89303
-8.90269
-8.90985
-8.91444
-8.91641
-8.91569
-8.9122
-8.90586
-8.89657
-8.88423
-8.86872
-8.8499
-8.82764
-8.80175
-8.77207
-8.7384
-8.70053
-8.65822
-8.61124
-8.55934
-8.50224
-8.43968
-8.37136
-8.29698
-8.21619
-8.12869
-8.03418
-7.93238
-7.82303
-7.70586
-7.58064
-7.44713
-7.30514
-7.15449
-6.99502
-6.82663
-6.64921
-6.4627
-6.26709
-6.06237
-5.84859
-5.62583
-5.39421
-5.1539
-4.90508
-4.64801
-4.38296
-4.11027
-3.8303
-3.54347
-3.25024
-2.95112
-2.64666
-2.33745
-2.02414
-1.70741
-1.38796
-1.06656
-0.743965
-0.420983
-0.0984247
0.222889
0.54214
0.858523
1.17125
1.47956
1.78273
2.0801
2.37104
2.65502
2.93155
3.20025
3.46081
3.71302
3.95676
4.19201
4.41887
4.63752
4.84824
5.05142
5.24757
5.43726
5.62119
5.80013
5.97493
6.14655
6.316
6.48436
6.65278
6.82246
6.99461
7.17051
7.35141
7.53859
7.73328
7.93668
8.14992
8.37404
8.60995
8.85842
9.12005
9.3952
9.68399
9.98623
10.3014
10.6285
10.9661
11.3125
11.6653
12.0217
12.3782
12.7312
13.0764
13.4093
13.7252
14.0196
14.2878
14.5259
14.7302
14.8976
15.0259
15.1125
15.1561
15.1503
15.1044
14.9578
-7.51377
-7.5396
-7.56575
-7.58718
-7.60408
-7.61763
-7.62859
-7.63752
-7.64489
-7.65113
-7.65662
-7.66174
-7.66683
-7.67226
-7.67841
-7.68566
-7.69443
-7.70508
-7.71797
-7.73339
-7.75157
-7.77267
-7.79674
-7.82378
-7.8537
-7.88634
-7.9215
-7.95891
-7.99831
-8.03938
-8.08182
-8.12532
-8.16956
-8.21426
-8.25913
-8.3039
-8.34833
-8.39219
-8.43526
-8.47736
-8.5183
-8.55791
-8.59604
-8.63257
-8.66735
-8.70028
-8.73125
-8.76016
-8.78695
-8.81152
-8.83381
-8.85377
-8.87133
-8.88645
-8.89908
-8.90918
-8.91669
-8.92159
-8.9238
-8.92329
-8.91999
-8.91381
-8.90469
-8.89252
-8.87719
-8.85858
-8.83653
-8.81089
-8.78148
-8.7481
-8.71053
-8.66855
-8.6219
-8.57032
-8.51354
-8.45126
-8.38316
-8.30889
-8.22812
-8.14056
-8.04591
-7.9439
-7.83424
-7.71666
-7.59093
-7.45682
-7.31413
-7.16268
-7.00232
-6.83293
-6.65442
-6.46674
-6.26987
-6.06381
-5.84862
-5.62439
-5.39124
-5.14933
-4.89888
-4.64012
-4.37336
-4.09892
-3.81718
-3.52857
-3.23356
-2.93265
-2.62642
-2.31546
-2.00045
-1.68205
-1.36102
-1.03811
-0.714109
-0.389844
-0.0661445
0.256149
0.576199
0.893178
1.20628
1.51473
1.8178
2.11479
2.40509
2.68815
2.96349
3.23072
3.48955
3.73976
3.98126
4.21404
4.43821
4.65396
4.86162
5.0616
5.2544
5.44064
5.62102
5.79635
5.9675
6.13544
6.30119
6.46586
6.63059
6.7966
6.96513
7.13743
7.31478
7.49846
7.6897
7.88969
8.09959
8.32041
8.55308
8.79837
9.05686
9.32893
9.61467
9.91389
10.226
10.5501
10.8848
11.2282
11.5779
11.931
12.2842
12.6335
12.9748
13.3033
13.6144
13.9031
14.165
14.3958
14.5916
14.7494
14.8666
14.9407
14.9704
14.9497
14.8882
14.7304
-7.51315
-7.53942
-7.56562
-7.58675
-7.60311
-7.61599
-7.62624
-7.63449
-7.64125
-7.64696
-7.652
-7.65667
-7.66129
-7.66617
-7.67163
-7.67802
-7.68569
-7.69501
-7.70632
-7.71994
-7.73614
-7.75513
-7.77704
-7.80194
-7.82981
-7.86057
-7.89408
-7.93014
-7.9685
-8.00888
-8.05099
-8.09451
-8.13912
-8.1845
-8.23035
-8.27637
-8.32227
-8.36777
-8.41262
-8.45658
-8.49943
-8.54096
-8.58099
-8.61935
-8.65588
-8.69045
-8.72293
-8.75322
-8.78122
-8.80686
-8.83008
-8.8508
-8.869
-8.88463
-8.89766
-8.90805
-8.91578
-8.92083
-8.92315
-8.9227
-8.91945
-8.91333
-8.90426
-8.89217
-8.87694
-8.85847
-8.83659
-8.81116
-8.782
-8.74889
-8.71162
-8.66996
-8.62365
-8.57242
-8.51595
-8.4539
-8.38592
-8.31167
-8.23087
-8.1432
-8.04838
-7.9461
-7.83608
-7.71806
-7.59178
-7.45703
-7.3136
-7.16131
-7.00002
-6.82961
-6.64999
-6.46112
-6.26298
-6.05559
-5.83901
-5.61332
-5.37867
-5.13521
-4.88318
-4.62281
-4.3544
-4.07831
-3.7949
-3.50461
-3.20792
-2.90536
-2.59748
-2.28492
-1.96833
-1.64842
-1.32595
-1.00168
-0.676441
-0.351059
-0.0263882
0.29671
0.617377
0.934766
1.24805
1.55645
1.8592
2.15561
2.44506
2.72699
3.00092
3.26646
3.52333
3.77134
4.01038
4.24049
4.46178
4.67448
4.87892
5.07554
5.26487
5.44756
5.62433
5.796
5.96347
6.12771
6.28979
6.4508
6.61192
6.77436
6.93936
7.1082
7.28215
7.46248
7.65044
7.84721
8.05393
8.27163
8.50122
8.74347
8.99895
9.26802
9.55078
9.84699
10.1561
10.4771
10.8086
11.1487
11.4949