/*--------------------------------*- C++ -*----------------------------------*\
  =========                 |
  \\      /  F ield         | OpenFOAM: The Open Source CFD Toolbox
   \\    /   O peration     | Website:  https://openfoam.org
    \\  /    A nd           | Version:  12
     \\/     M anipulation  |
\*---------------------------------------------------------------------------*/
FoamFile
{
    format      ascii;
    class       surfaceScalarField;
    location    "0.07";
    object      phi;
}
// * * * * * * * * * * * * * * * * * * * * * * * * * * * * * * * * * * * * * //

dimensions      [0 3 -1 0 0 0 0];

internalField   nonuniform List<scalar> 
24170
(
3.13358e-06
5.48219e-08
3.04822e-06
8.53667e-08
2.97303e-06
7.51881e-08
2.90411e-06
6.89237e-08
2.83916e-06
6.49485e-08
2.78179e-06
5.73708e-08
2.7327e-06
4.90874e-08
2.69094e-06
4.17596e-08
2.6552e-06
3.57367e-08
2.6243e-06
3.09038e-08
2.59723e-06
2.70736e-08
2.57312e-06
2.41042e-08
2.55121e-06
2.19149e-08
2.53062e-06
2.05895e-08
2.5104e-06
2.02152e-08
2.48754e-06
2.28584e-08
2.46016e-06
2.73807e-08
5.99e-08
2.40026e-06
3.45361e-06
1.84614e-08
3.45615e-06
8.28283e-08
3.44957e-06
8.17632e-08
3.43791e-06
8.059e-08
3.42335e-06
7.95018e-08
3.40572e-06
7.49995e-08
3.38598e-06
6.88312e-08
3.36493e-06
6.28096e-08
3.34334e-06
5.73291e-08
3.3218e-06
5.24428e-08
3.3007e-06
4.81747e-08
3.28024e-06
4.45657e-08
3.2605e-06
4.1649e-08
3.24142e-06
3.96749e-08
3.22303e-06
3.85987e-08
3.20506e-06
4.0827e-08
3.18867e-06
4.37704e-08
6.52847e-08
3.18329e-06
3.66535e-06
1.5632e-08
3.67822e-06
6.99513e-08
3.68525e-06
7.47391e-08
3.68947e-06
7.63624e-08
3.69108e-06
7.78986e-08
3.68985e-06
7.62237e-08
3.68629e-06
7.24001e-08
3.68094e-06
6.81537e-08
3.67424e-06
6.40301e-08
3.66652e-06
6.01624e-08
3.65805e-06
5.66479e-08
3.64901e-06
5.36037e-08
3.63952e-06
5.11362e-08
3.62965e-06
4.95434e-08
3.61931e-06
4.89405e-08
3.60913e-06
5.10132e-08
3.59834e-06
5.45575e-08
6.63026e-08
3.59732e-06
3.92464e-06
1.6381e-08
3.93576e-06
5.88259e-08
3.94247e-06
6.80377e-08
3.94788e-06
7.0947e-08
3.95222e-06
7.35649e-08
3.95504e-06
7.34035e-08
3.95646e-06
7.09723e-08
3.95679e-06
6.78266e-08
3.9562e-06
6.46226e-08
3.95482e-06
6.15361e-08
3.95279e-06
5.86856e-08
3.95018e-06
5.62142e-08
3.94705e-06
5.42638e-08
3.94348e-06
5.31132e-08
3.93946e-06
5.29551e-08
3.9357e-06
5.47758e-08
3.93223e-06
5.80335e-08
6.47125e-08
3.93382e-06
4.20776e-06
1.57512e-08
4.21596e-06
5.06226e-08
4.22158e-06
6.24199e-08
4.22644e-06
6.60797e-08
4.23106e-06
6.89496e-08
4.23491e-06
6.95524e-08
4.23788e-06
6.80077e-08
4.24008e-06
6.56176e-08
4.24164e-06
6.3065e-08
4.24263e-06
6.05523e-08
4.2431e-06
5.82071e-08
4.24314e-06
5.61814e-08
4.24277e-06
5.46282e-08
4.24211e-06
5.3781e-08
4.24124e-06
5.38205e-08
4.24076e-06
5.52548e-08
4.24105e-06
5.77459e-08
6.1525e-08
4.24424e-06
4.51043e-06
1.44097e-08
4.51682e-06
4.42307e-08
4.52208e-06
5.71577e-08
4.52667e-06
6.14886e-08
4.5312e-06
6.44245e-08
4.53528e-06
6.54716e-08
4.53873e-06
6.45589e-08
4.54161e-06
6.27377e-08
4.544e-06
6.06779e-08
4.54594e-06
5.8606e-08
4.54749e-06
5.66552e-08
4.5487e-06
5.49752e-08
4.54962e-06
5.37124e-08
4.55035e-06
5.30456e-08
4.55107e-06
5.31029e-08
4.55223e-06
5.40966e-08
4.55424e-06
5.57297e-08
5.76452e-08
4.55812e-06
4.83411e-06
1.30202e-08
4.83954e-06
3.88035e-08
4.84474e-06
5.19572e-08
4.84926e-06
5.69693e-08
4.85367e-06
6.0006e-08
4.85779e-06
6.13561e-08
4.86142e-06
6.09315e-08
4.86459e-06
5.95682e-08
4.86736e-06
5.79036e-08
4.86978e-06
5.61856e-08
4.87189e-06
5.4551e-08
4.87372e-06
5.31394e-08
4.87535e-06
5.20797e-08
4.8769e-06
5.1498e-08
4.87854e-06
5.14624e-08
4.88063e-06
5.20128e-08
4.88349e-06
5.28638e-08
5.35482e-08
4.88759e-06
5.18089e-06
1.17122e-08
5.18566e-06
3.40317e-08
5.19074e-06
4.68757e-08
5.19525e-06
5.24631e-08
5.19962e-06
5.56354e-08
5.20376e-06
5.72107e-08
5.20751e-06
5.71859e-08
5.21086e-06
5.62162e-08
5.21388e-06
5.48891e-08
5.21659e-06
5.34685e-08
5.21905e-06
5.20936e-08
5.2213e-06
5.08902e-08
5.22341e-06
4.99653e-08
5.22551e-06
4.93999e-08
5.22776e-06
4.92125e-08
5.23042e-06
4.93526e-08
5.23373e-06
4.95599e-08
4.94295e-08
5.23785e-06
5.55259e-06
1.04607e-08
5.55681e-06
2.98152e-08
5.56167e-06
4.20116e-08
5.56616e-06
4.79691e-08
5.57053e-06
5.12718e-08
5.57472e-06
5.30165e-08
5.57858e-06
5.33243e-08
5.5821e-06
5.27036e-08
5.58531e-06
5.16765e-08
5.58826e-06
5.05142e-08
5.591e-06
4.9357e-08
5.59357e-06
4.8316e-08
5.59606e-06
4.7476e-08
5.59858e-06
4.68841e-08
5.60127e-06
4.65251e-08
5.60431e-06
4.63116e-08
5.60784e-06
4.60238e-08
4.53614e-08
5.61191e-06
5.95097e-06
9.26247e-09
5.95471e-06
2.60763e-08
5.95932e-06
3.74088e-08
5.96378e-06
4.35067e-08
5.96814e-06
4.69055e-08
5.97239e-06
4.87722e-08
5.97637e-06
4.9348e-08
5.98004e-06
4.90323e-08
5.98344e-06
4.82732e-08
5.98662e-06
4.73378e-08
5.98961e-06
4.63654e-08
5.99247e-06
4.54525e-08
5.99528e-06
4.46648e-08
5.99814e-06
4.40261e-08
6.00116e-06
4.35043e-08
6.00447e-06
4.30069e-08
6.00813e-06
4.23611e-08
4.13662e-08
6.01212e-06
6.37794e-06
8.13072e-09
6.38128e-06
2.27368e-08
6.38562e-06
3.30752e-08
6.39002e-06
3.90991e-08
6.39439e-06
4.254e-08
6.39868e-06
4.44845e-08
6.40276e-06
4.52632e-08
6.40659e-06
4.52033e-08
6.41019e-06
4.46791e-08
6.41358e-06
4.39415e-08
6.41682e-06
4.31259e-08
6.41996e-06
4.23161e-08
6.42306e-06
4.15623e-08
6.42621e-06
4.08748e-08
6.4295e-06
4.02176e-08
6.433e-06
3.95099e-08
6.43673e-06
3.86253e-08
3.7442e-08
6.44066e-06
5.74174e-06
7.22532e-09
5.7443e-06
2.01781e-08
5.74776e-06
2.96168e-08
5.75143e-06
3.54288e-08
5.75511e-06
3.88527e-08
5.75877e-06
4.08322e-08
5.7623e-06
4.17332e-08
5.76565e-06
4.18477e-08
5.76884e-06
4.14945e-08
5.77188e-06
4.09028e-08
5.7748e-06
4.02011e-08
5.77765e-06
3.94645e-08
5.78048e-06
3.87336e-08
5.78334e-06
3.80134e-08
5.78629e-06
3.72706e-08
5.78936e-06
3.64403e-08
5.79255e-06
3.54302e-08
3.41701e-08
5.79583e-06
6.99912e-06
6.25768e-09
7.00183e-06
1.74721e-08
7.00557e-06
2.58734e-08
7.00968e-06
3.13208e-08
7.01389e-06
3.46441e-08
7.01811e-06
3.66149e-08
7.02223e-06
3.76053e-08
7.02621e-06
3.78738e-08
7.03002e-06
3.76827e-08
7.03369e-06
3.72329e-08
7.03725e-06
3.6643e-08
7.04073e-06
3.59792e-08
7.04419e-06
3.52747e-08
7.04767e-06
3.45329e-08
7.05122e-06
3.37284e-08
7.05484e-06
3.28159e-08
7.05853e-06
3.17356e-08
3.04585e-08
7.06225e-06
8.53187e-06
5.23646e-09
8.5347e-06
1.46433e-08
8.5387e-06
2.1869e-08
8.54325e-06
2.67768e-08
8.548e-06
2.98854e-08
8.55284e-06
3.17813e-08
8.55763e-06
3.28089e-08
8.56231e-06
3.31935e-08
8.56685e-06
3.31429e-08
8.57126e-06
3.28238e-08
8.57557e-06
3.23407e-08
8.57979e-06
3.17515e-08
8.58398e-06
3.10845e-08
8.58817e-06
3.03447e-08
8.59238e-06
2.95179e-08
8.59662e-06
2.85784e-08
8.60086e-06
2.74941e-08
2.62648e-08
8.60505e-06
1.04003e-05
4.17124e-09
1.04032e-05
1.17062e-08
1.04075e-05
1.76172e-08
1.04125e-05
2.17961e-08
1.04178e-05
2.45457e-08
1.04233e-05
2.62743e-08
1.04288e-05
2.7267e-08
1.04343e-05
2.77117e-08
1.04397e-05
2.7766e-08
1.0445e-05
2.75591e-08
1.04501e-05
2.7177e-08
1.04552e-05
2.66693e-08
1.04602e-05
2.6061e-08
1.04652e-05
2.53608e-08
1.04702e-05
2.45651e-08
1.04751e-05
2.36651e-08
1.04799e-05
2.26485e-08
2.15329e-08
1.04847e-05
1.26779e-05
3.06599e-09
1.2681e-05
8.6479e-09
1.26855e-05
1.3102e-08
1.26909e-05
1.63568e-08
1.26969e-05
1.85773e-08
1.27031e-05
2.00185e-08
1.27095e-05
2.08855e-08
1.27159e-05
2.13196e-08
1.27222e-05
2.14323e-08
1.27285e-05
2.13143e-08
1.27346e-05
2.10299e-08
1.27407e-05
2.06182e-08
1.27466e-05
2.01013e-08
1.27525e-05
1.94902e-08
1.27583e-05
1.87894e-08
1.2764e-05
1.80009e-08
1.27695e-05
1.71249e-08
1.61865e-08
1.27748e-05
1.54543e-05
1.90726e-09
1.54576e-05
5.41086e-09
1.54624e-05
8.24571e-09
1.54684e-05
1.03753e-08
1.54751e-05
1.18801e-08
1.54822e-05
1.28928e-08
1.54896e-05
1.353e-08
1.5497e-05
1.38766e-08
1.55045e-05
1.3998e-08
1.55118e-05
1.39474e-08
1.55191e-05
1.3764e-08
1.55262e-05
1.34732e-08
1.55333e-05
1.30912e-08
1.55401e-05
1.26282e-08
1.55468e-05
1.20917e-08
1.55533e-05
1.14886e-08
1.55596e-05
1.08239e-08
1.01234e-08
1.55657e-05
1.88389e-05
6.50535e-10
1.88424e-05
1.85605e-09
1.88478e-05
2.85021e-09
1.88546e-05
3.63084e-09
1.88622e-05
4.22443e-09
1.88705e-05
4.66257e-09
1.8879e-05
4.96837e-09
1.88878e-05
5.15993e-09
1.88965e-05
5.25387e-09
1.89052e-05
5.26407e-09
1.89137e-05
5.20061e-09
1.89221e-05
5.07063e-09
1.89304e-05
4.87965e-09
1.89384e-05
4.63258e-09
1.89461e-05
4.33432e-09
1.89536e-05
3.99089e-09
1.89608e-05
3.60708e-09
3.20426e-09
1.89677e-05
2.29648e-05
-8.15044e-10
2.2969e-05
-2.32682e-09
2.29754e-05
-3.5343e-09
2.29834e-05
-4.38815e-09
2.29925e-05
-4.9016e-09
2.30023e-05
-5.15976e-09
2.30126e-05
-5.25556e-09
2.3023e-05
-5.2481e-09
2.30334e-05
-5.17513e-09
2.30437e-05
-5.06929e-09
2.30539e-05
-4.95731e-09
2.30638e-05
-4.85675e-09
2.30735e-05
-4.77752e-09
2.30828e-05
-4.7249e-09
2.30919e-05
-4.70103e-09
2.31006e-05
-4.7051e-09
2.31089e-05
-4.73593e-09
-4.7792e-09
2.31169e-05
1.68119e-05
-1.9781e-09
1.68152e-05
-5.61056e-09
1.68202e-05
-8.54082e-09
1.68264e-05
-1.06193e-08
1.68334e-05
-1.18921e-08
1.68408e-05
-1.2592e-08
1.68485e-05
-1.29226e-08
1.68562e-05
-1.29924e-08
1.68639e-05
-1.28769e-08
1.68715e-05
-1.26475e-08
1.68789e-05
-1.236e-08
1.68861e-05
-1.20492e-08
1.68931e-05
-1.17362e-08
1.68998e-05
-1.14343e-08
1.69062e-05
-1.11512e-08
1.69124e-05
-1.089e-08
1.69183e-05
-1.06523e-08
-1.04281e-08
1.6924e-05
1.46357e-05
-3.10421e-09
1.46389e-05
-8.81851e-09
1.46438e-05
-1.34422e-08
1.46498e-05
-1.66055e-08
1.46564e-05
-1.84523e-08
1.46632e-05
-1.94565e-08
1.46702e-05
-1.99198e-08
1.46772e-05
-1.99767e-08
1.46841e-05
-1.97472e-08
1.46908e-05
-1.93482e-08
1.46973e-05
-1.88592e-08
1.47035e-05
-1.83258e-08
1.47096e-05
-1.7777e-08
1.47154e-05
-1.72326e-08
1.47209e-05
-1.67049e-08
1.47262e-05
-1.61998e-08
1.47313e-05
-1.57202e-08
-1.52594e-08
1.47361e-05
1.27412e-05
-4.1686e-09
1.27445e-05
-1.20747e-08
1.27495e-05
-1.84719e-08
1.27554e-05
-2.24961e-08
1.27616e-05
-2.46855e-08
1.2768e-05
-2.58839e-08
1.27745e-05
-2.63954e-08
1.27809e-05
-2.63468e-08
1.27871e-05
-2.593e-08
1.2793e-05
-2.53165e-08
1.27988e-05
-2.46015e-08
1.28043e-05
-2.38347e-08
1.28096e-05
-2.30502e-08
1.28146e-05
-2.22724e-08
1.28194e-05
-2.15157e-08
1.2824e-05
-2.07871e-08
1.28284e-05
-2.00895e-08
-1.94178e-08
1.28325e-05
1.10918e-05
-5.06047e-09
1.10952e-05
-1.54383e-08
1.11005e-05
-2.38326e-08
1.11064e-05
-2.83644e-08
1.11124e-05
-3.06331e-08
1.11184e-05
-3.19273e-08
1.11244e-05
-3.23949e-08
1.11302e-05
-3.21552e-08
1.11358e-05
-3.15e-08
1.11411e-05
-3.06458e-08
1.11462e-05
-2.96898e-08
1.1151e-05
-2.86834e-08
1.11557e-05
-2.76659e-08
1.11601e-05
-2.66647e-08
1.11642e-05
-2.56941e-08
1.11682e-05
-2.47605e-08
1.1172e-05
-2.38661e-08
-2.30068e-08
1.11756e-05
9.65584e-06
-5.68746e-09
9.6594e-06
-1.89996e-08
9.66506e-06
-2.94916e-08
9.67082e-06
-3.41244e-08
9.67655e-06
-3.63657e-08
9.6823e-06
-3.76718e-08
9.68786e-06
-3.79516e-08
9.69313e-06
-3.74248e-08
9.69812e-06
-3.64987e-08
9.70287e-06
-3.5396e-08
9.70738e-06
-3.41966e-08
9.71165e-06
-3.29517e-08
9.71569e-06
-3.17061e-08
9.71951e-06
-3.04887e-08
9.72313e-06
-2.93135e-08
9.72656e-06
-2.81858e-08
9.7298e-06
-2.71064e-08
-2.60695e-08
9.73286e-06
8.40544e-06
-5.7791e-09
8.40985e-06
-2.34065e-08
8.4154e-06
-3.50454e-08
8.42066e-06
-3.93816e-08
8.42617e-06
-4.18774e-08
8.43174e-06
-4.32373e-08
8.43699e-06
-4.32074e-08
8.44187e-06
-4.22997e-08
8.44642e-06
-4.10501e-08
8.45068e-06
-3.96588e-08
8.45467e-06
-3.8183e-08
8.45839e-06
-3.66748e-08
8.46187e-06
-3.51819e-08
8.46511e-06
-3.37329e-08
8.46814e-06
-3.23413e-08
8.47097e-06
-3.10125e-08
8.47361e-06
-2.97468e-08
-2.85398e-08
8.47608e-06
7.31507e-06
-3.56308e-09
7.32198e-06
-3.0319e-08
7.32747e-06
-4.05382e-08
7.3323e-06
-4.42069e-08
7.33768e-06
-4.72592e-08
7.34314e-06
-4.86917e-08
7.34819e-06
-4.82589e-08
7.35277e-06
-4.68787e-08
7.35691e-06
-4.51984e-08
7.36065e-06
-4.33963e-08
7.364e-06
-4.15317e-08
7.36699e-06
-3.96676e-08
7.36966e-06
-3.78535e-08
7.37205e-06
-3.61153e-08
7.37417e-06
-3.44643e-08
7.37606e-06
-3.29049e-08
7.37775e-06
-3.14338e-08
-3.00444e-08
7.37925e-06
6.36223e-06
4.27274e-09
6.37298e-06
-4.10677e-08
6.38014e-06
-4.77005e-08
6.38637e-06
-5.04341e-08
6.3924e-06
-5.32864e-08
6.39775e-06
-5.40455e-08
6.40218e-06
-5.26919e-08
6.40584e-06
-5.05367e-08
6.40884e-06
-4.81936e-08
6.41121e-06
-4.57752e-08
6.41303e-06
-4.33492e-08
6.41436e-06
-4.09931e-08
6.41526e-06
-3.87553e-08
6.4158e-06
-3.66554e-08
6.41603e-06
-3.46997e-08
6.41602e-06
-3.28892e-08
6.4158e-06
-3.12152e-08
-2.96572e-08
6.41541e-06
5.53609e-06
1.36514e-08
5.54778e-06
-5.27601e-08
5.55749e-06
-5.74166e-08
5.5661e-06
-5.90408e-08
5.57292e-06
-6.01004e-08
5.57739e-06
-5.85203e-08
5.5796e-06
-5.48994e-08
5.5801e-06
-5.10381e-08
5.57932e-06
-4.74111e-08
5.57753e-06
-4.39899e-08
5.57496e-06
-4.07819e-08
5.5718e-06
-3.78247e-08
5.56817e-06
-3.51318e-08
5.56421e-06
-3.26947e-08
5.56001e-06
-3.04988e-08
5.55566e-06
-2.85408e-08
5.55126e-06
-2.68116e-08
-2.52497e-08
5.54685e-06
4.85751e-06
-1.625e-08
4.86092e-06
-5.61719e-08
4.86153e-06
-5.80291e-08
4.85889e-06
-5.64022e-08
4.85492e-06
-5.6128e-08
4.84827e-06
-5.18698e-08
4.83907e-06
-4.56984e-08
4.82788e-06
-3.98465e-08
4.81534e-06
-3.48677e-08
4.80203e-06
-3.06845e-08
4.78841e-06
-2.7161e-08
4.77478e-06
-2.41941e-08
4.76134e-06
-2.16926e-08
4.74822e-06
-1.95774e-08
4.73551e-06
-1.77855e-08
4.72327e-06
-1.63068e-08
4.71163e-06
-1.51678e-08
-1.48617e-08
4.70124e-06
4.18643e-06
4.13025e-06
4.07223e-06
4.01582e-06
3.9597e-06
3.90783e-06
3.86213e-06
3.82228e-06
3.78741e-06
3.75673e-06
3.72957e-06
3.70537e-06
3.68368e-06
3.6641e-06
3.64632e-06
3.63001e-06
3.61484e-06
3.59998e-06
2.15517e-08
-2.15517e-08
6.12712e-08
-3.97195e-08
1.0892e-07
-4.76484e-08
1.59076e-07
-5.01561e-08
2.08085e-07
-4.90091e-08
2.53533e-07
-4.54478e-08
2.93824e-07
-4.02912e-08
3.27795e-07
-3.39716e-08
3.54415e-07
-2.66193e-08
3.72683e-07
-1.82685e-08
3.81579e-07
-8.8954e-09
3.80584e-07
9.94626e-10
3.68679e-07
1.1905e-08
3.47313e-07
2.13663e-08
3.17928e-07
2.93844e-08
2.82221e-07
3.57072e-08
2.42587e-07
3.96345e-08
1.99862e-07
4.27246e-08
1.56302e-07
4.35602e-08
1.14007e-07
4.22945e-08
7.21927e-08
4.18145e-08
3.01266e-08
4.20661e-08
-1.52955e-08
4.54222e-08
-6.8221e-08
5.29255e-08
-1.32605e-07
6.43841e-08
-2.06814e-07
7.42092e-08
-2.90071e-07
8.32567e-08
-3.82647e-07
9.2576e-08
-4.82756e-07
1.00109e-07
-5.88111e-07
1.05356e-07
-6.96289e-07
1.08178e-07
-8.04956e-07
1.08667e-07
-9.1205e-07
1.07094e-07
-1.01588e-06
1.03832e-07
-1.11518e-06
9.92963e-08
-1.20907e-06
9.38961e-08
-1.29707e-06
8.80003e-08
-1.37899e-06
8.19199e-08
-1.45489e-06
7.58997e-08
-1.52501e-06
7.01198e-08
-1.58972e-06
6.47015e-08
-1.64943e-06
5.97169e-08
-1.70463e-06
5.51992e-08
-1.75578e-06
5.11524e-08
-1.80334e-06
4.75604e-08
-1.84774e-06
4.4394e-08
-1.88936e-06
4.16166e-08
-1.92854e-06
3.91884e-08
-1.96561e-06
3.70688e-08
-2.00083e-06
3.5219e-08
-2.03443e-06
3.36023e-08
-2.06662e-06
3.21853e-08
-2.09756e-06
3.09377e-08
-2.12739e-06
2.98324e-08
-2.15623e-06
2.88454e-08
-2.18419e-06
2.79553e-08
-2.21133e-06
2.71433e-08
-2.23773e-06
2.63928e-08
-2.26341e-06
2.56891e-08
-2.28843e-06
2.50192e-08
-2.31281e-06
2.43716e-08
-2.33654e-06
2.37362e-08
-2.35965e-06
2.31039e-08
-2.38211e-06
2.24665e-08
-2.40393e-06
2.1817e-08
-2.42508e-06
2.11489e-08
-2.44553e-06
2.04565e-08
-2.46527e-06
1.97345e-08
-2.48425e-06
1.89784e-08
-2.50243e-06
1.81836e-08
-2.51978e-06
1.73462e-08
-2.53624e-06
1.64623e-08
-2.55177e-06
1.55278e-08
-2.56631e-06
1.45391e-08
-2.5798e-06
1.3492e-08
-2.59218e-06
1.23824e-08
-2.60339e-06
1.12058e-08
-2.61334e-06
9.95755e-09
-2.62197e-06
8.63005e-09
-2.62919e-06
7.2159e-09
-2.6349e-06
5.70521e-09
-2.63899e-06
4.09394e-09
-2.64138e-06
2.39194e-09
-2.64189e-06
5.11554e-10
-2.6408e-06
-1.09141e-09
-2.63811e-06
-2.68644e-09
-2.63383e-06
-4.28274e-09
-2.62793e-06
-5.89804e-09
-2.62039e-06
-7.5421e-09
-2.61118e-06
-9.21665e-09
-2.60026e-06
-1.092e-08
-2.58761e-06
-1.26487e-08
-2.57321e-06
-1.43985e-08
-2.55704e-06
-1.61643e-08
-2.5391e-06
-1.7941e-08
-2.51938e-06
-1.97226e-08
-2.49788e-06
-2.15029e-08
-2.4746e-06
-2.32756e-08
-2.44957e-06
-2.50336e-08
-2.4228e-06
-2.67698e-08
-2.39432e-06
-2.84766e-08
-2.36418e-06
-3.01464e-08
-2.3324e-06
-3.17711e-08
-2.29906e-06
-3.33427e-08
-2.26421e-06
-3.48527e-08
-2.22792e-06
-3.62931e-08
-2.19026e-06
-3.76556e-08
-2.15133e-06
-3.8932e-08
-2.11121e-06
-4.01145e-08
-2.07002e-06
-4.11954e-08
-2.02785e-06
-4.21678e-08
-1.98483e-06
-4.3025e-08
-1.94106e-06
-4.37615e-08
-1.89669e-06
-4.43724e-08
-1.85184e-06
-4.48538e-08
-1.80663e-06
-4.52032e-08
-1.76122e-06
-4.54191e-08
-1.71571e-06
-4.55019e-08
-1.67026e-06
-4.54532e-08
-1.62498e-06
-4.52766e-08
-1.58001e-06
-4.49772e-08
-1.53544e-06
-4.45621e-08
-1.4914e-06
-4.40401e-08
-1.44798e-06
-4.34223e-08
-1.40526e-06
-4.27214e-08
-1.36331e-06
-4.19519e-08
-1.32218e-06
-4.11298e-08
-1.28191e-06
-4.02728e-08
-1.24251e-06
-3.94001e-08
-1.20397e-06
-3.85322e-08
-1.16628e-06
-3.76904e-08
-1.12939e-06
-3.68973e-08
-1.09321e-06
-3.61759e-08
-1.05766e-06
-3.55497e-08
-1.02262e-06
-3.50425e-08
-9.8794e-07
-3.46781e-08
-9.5346e-07
-3.44801e-08
-9.18988e-07
-3.44719e-08
-8.84311e-07
-3.46765e-08
-8.49195e-07
-3.51161e-08
-8.13383e-07
-3.58117e-08
-7.766e-07
-3.67831e-08
-7.38551e-07
-3.80494e-08
-6.98922e-07
-3.96287e-08
-6.57385e-07
-4.15376e-08
-6.13596e-07
-4.37888e-08
-5.67202e-07
-4.63933e-08
-5.17839e-07
-4.9363e-08
-4.65132e-07
-5.27071e-08
-4.08709e-07
-5.64239e-08
-3.48195e-07
-6.05136e-08
-2.83217e-07
-6.49776e-08
-2.13409e-07
-6.98079e-08
-1.3841e-07
-7.49989e-08
-5.78779e-08
-8.05326e-08
2.8519e-08
-8.63969e-08
1.21157e-07
-9.26376e-08
2.20369e-07
-9.92129e-08
3.26416e-07
-1.06046e-07
4.39527e-07
-1.13111e-07
5.59861e-07
-1.20334e-07
6.87493e-07
-1.27631e-07
8.22399e-07
-1.34906e-07
9.64449e-07
-1.4205e-07
1.11339e-06
-1.4894e-07
1.26883e-06
-1.55437e-07
1.43021e-06
-1.61384e-07
1.59682e-06
-1.66611e-07
1.76775e-06
-1.70927e-07
1.94188e-06
-1.74127e-07
2.11786e-06
-1.75984e-07
2.29411e-06
-1.76248e-07
2.46873e-06
-1.74622e-07
2.63947e-06
-1.70739e-07
2.80351e-06
-1.64039e-07
2.95727e-06
-1.53765e-07
3.09433e-06
-1.37058e-07
3.20609e-06
-1.11761e-07
3.25446e-06
-4.83704e-08
8.20722e-08
3.17239e-06
4.60184e-08
-6.75701e-08
1.01769e-07
-9.54697e-08
1.53183e-07
-9.90625e-08
1.97815e-07
-9.47889e-08
2.35483e-07
-8.66769e-08
2.66275e-07
-7.62397e-08
2.90222e-07
-6.42377e-08
3.07307e-07
-5.10567e-08
3.17555e-07
-3.6868e-08
3.2106e-07
-2.17732e-08
3.18067e-07
-5.90252e-09
3.08626e-07
1.04359e-08
2.93608e-07
2.69227e-08
2.7204e-07
4.29348e-08
2.4356e-07
5.78645e-08
2.08081e-07
7.11857e-08
1.65138e-07
8.25778e-08
1.15608e-07
9.22548e-08
5.96943e-08
9.94735e-08
-4.26819e-09
1.06257e-07
-7.54548e-08
1.13001e-07
-1.55259e-07
1.2187e-07
-2.43646e-07
1.33809e-07
-3.39573e-07
1.48853e-07
-4.40881e-07
1.65692e-07
-5.47537e-07
1.80865e-07
-6.57472e-07
1.93191e-07
-7.67381e-07
2.02485e-07
-8.7536e-07
2.08088e-07
-9.79646e-07
2.09642e-07
-1.07883e-06
2.07364e-07
-1.17196e-06
2.01792e-07
-1.2585e-06
1.93639e-07
-1.33834e-06
1.83667e-07
-1.41163e-06
1.72592e-07
-1.47877e-06
1.61037e-07
-1.54027e-06
1.49496e-07
-1.59669e-06
1.38339e-07
-1.64861e-06
1.27818e-07
-1.69657e-06
1.18087e-07
-1.74109e-06
1.09221e-07
-1.78261e-06
1.01239e-07
-1.82153e-06
9.4116e-08
-1.85818e-06
8.78033e-08
-1.89286e-06
8.22358e-08
-1.9258e-06
7.73408e-08
-1.95723e-06
7.30445e-08
-1.98732e-06
6.92744e-08
-2.01621e-06
6.59626e-08
-2.04404e-06
6.30461e-08
-2.0709e-06
6.04678e-08
-2.0969e-06
5.81762e-08
-2.12208e-06
5.61254e-08
-2.14653e-06
5.42745e-08
-2.17027e-06
5.25872e-08
-2.19334e-06
5.10316e-08
-2.21578e-06
4.95789e-08
-2.23759e-06
4.82041e-08
-2.25879e-06
4.68848e-08
-2.27937e-06
4.56011e-08
-2.29933e-06
4.43353e-08
-2.31867e-06
4.30719e-08
-2.33736e-06
4.17967e-08
-2.35539e-06
4.04974e-08
-2.37274e-06
3.9163e-08
-2.38937e-06
3.77834e-08
-2.40526e-06
3.63498e-08
-2.42038e-06
3.48544e-08
-2.4347e-06
3.32899e-08
-2.44816e-06
3.16498e-08
-2.46074e-06
2.99282e-08
-2.4724e-06
2.81196e-08
-2.48309e-06
2.6219e-08
-2.49278e-06
2.42217e-08
-2.50141e-06
2.21237e-08
-2.50895e-06
1.99213e-08
-2.51535e-06
1.76117e-08
-2.52059e-06
1.5193e-08
-2.52462e-06
1.26644e-08
-2.52743e-06
1.00275e-08
-2.52902e-06
7.28741e-09
-2.52938e-06
4.45566e-09
-2.52855e-06
1.56668e-09
-2.52662e-06
-1.41801e-09
-2.52331e-06
-4.40545e-09
-2.51852e-06
-7.47466e-09
-2.51218e-06
-1.06263e-08
-2.50422e-06
-1.38544e-08
-2.49461e-06
-1.71546e-08
-2.4833e-06
-2.05215e-08
-2.47027e-06
-2.39484e-08
-2.4555e-06
-2.74271e-08
-2.43895e-06
-3.09486e-08
-2.42061e-06
-3.4503e-08
-2.40047e-06
-3.80797e-08
-2.37852e-06
-4.16669e-08
-2.35477e-06
-4.52526e-08
-2.32923e-06
-4.88236e-08
-2.30189e-06
-5.23663e-08
-2.2728e-06
-5.58664e-08
-2.24196e-06
-5.9309e-08
-2.20943e-06
-6.26785e-08
-2.17524e-06
-6.59591e-08
-2.13945e-06
-6.91345e-08
-2.10212e-06
-7.21881e-08
-2.06331e-06
-7.51035e-08
-2.0231e-06
-7.78641e-08
-1.98158e-06
-8.04535e-08
-1.93884e-06
-8.28559e-08
-1.89498e-06
-8.50559e-08
-1.8501e-06
-8.70391e-08
-1.80434e-06
-8.87923e-08
-1.75779e-06
-9.03037e-08
-1.7106e-06
-9.15633e-08
-1.66289e-06
-9.25631e-08
-1.6148e-06
-9.32972e-08
-1.56646e-06
-9.37625e-08
-1.518e-06
-9.39586e-08
-1.46957e-06
-9.38887e-08
-1.42128e-06
-9.35589e-08
-1.37328e-06
-9.29789e-08
-1.32568e-06
-9.2162e-08
-1.2786e-06
-9.11253e-08
-1.23213e-06
-8.98899e-08
-1.18637e-06
-8.84808e-08
-1.14139e-06
-8.69263e-08
-1.09727e-06
-8.52581e-08
-1.05403e-06
-8.35112e-08
-1.0117e-06
-8.17238e-08
-9.703e-07
-7.99366e-08
-9.29797e-07
-7.81929e-08
-8.90157e-07
-7.65376e-08
-8.51316e-07
-7.50174e-08
-8.13186e-07
-7.36797e-08
-7.75655e-07
-7.2573e-08
-7.38588e-07
-7.17455e-08
-7.01822e-07
-7.12457e-08
-6.65173e-07
-7.11214e-08
-6.2843e-07
-7.14195e-08
-5.9136e-07
-7.21855e-08
-5.5371e-07
-7.34624e-08
-5.15202e-07
-7.52914e-08
-4.75539e-07
-7.77118e-08
-4.34407e-07
-8.07604e-08
-3.91474e-07
-8.44709e-08
-3.46393e-07
-8.887e-08
-2.98804e-07
-9.3982e-08
-2.48338e-07
-9.98296e-08
-1.94615e-07
-1.06429e-07
-1.37255e-07
-1.13785e-07
-7.58686e-08
-1.219e-07
-1.00772e-08
-1.30769e-07
6.05108e-08
-1.40396e-07
1.36288e-07
-1.50776e-07
2.17634e-07
-1.61879e-07
3.04941e-07
-1.73703e-07
3.98536e-07
-1.86233e-07
4.98722e-07
-1.99399e-07
6.05794e-07
-2.13119e-07
7.19978e-07
-2.27294e-07
8.41432e-07
-2.41789e-07
9.70241e-07
-2.5644e-07
1.1064e-06
-2.71061e-07
1.24978e-06
-2.85437e-07
1.40017e-06
-2.99326e-07
1.55718e-06
-3.12451e-07
1.7203e-06
-3.24504e-07
1.88884e-06
-3.35144e-07
2.06191e-06
-3.43998e-07
2.23844e-06
-3.50657e-07
2.41713e-06
-3.54676e-07
2.59644e-06
-3.55561e-07
2.77456e-06
-3.52739e-07
2.94931e-06
-3.45497e-07
3.11808e-06
-3.32804e-07
3.27742e-06
-3.13102e-07
3.42291e-06
-2.82555e-07
3.54683e-06
-2.35677e-07
3.64835e-06
-1.49888e-07
1.39316e-08
3.71649e-06
5.19853e-08
-1.19555e-07
1.02058e-07
-1.45542e-07
1.42863e-07
-1.39868e-07
1.75091e-07
-1.27017e-07
1.99709e-07
-1.11295e-07
2.17414e-07
-9.39444e-08
2.28643e-07
-7.54667e-08
2.33671e-07
-5.60852e-08
2.32707e-07
-3.59042e-08
2.25943e-07
-1.50091e-08
2.13584e-07
6.45647e-09
1.95708e-07
2.83122e-08
1.7241e-07
5.02209e-08
1.43499e-07
7.18456e-08
1.08597e-07
9.27667e-08
6.72029e-08
1.12579e-07
1.87563e-08
1.31024e-07
-3.70947e-08
1.48106e-07
-1.01502e-07
1.63881e-07
-1.74439e-07
1.79193e-07
-2.56137e-07
1.94699e-07
-3.45452e-07
2.11185e-07
-4.40416e-07
2.28773e-07
-5.38282e-07
2.46718e-07
-6.36132e-07
2.63543e-07
-7.32609e-07
2.77342e-07
-8.26295e-07
2.86877e-07
-9.15533e-07
2.91723e-07
-9.99278e-07
2.91833e-07
-1.07716e-06
2.87519e-07
-1.14922e-06
2.79427e-07
-1.21581e-06
2.6838e-07
-1.27741e-06
2.55247e-07
-1.33459e-06
2.40843e-07
-1.38787e-06
2.25871e-07
-1.43773e-06
2.10899e-07
-1.48459e-06
1.96353e-07
-1.52878e-06
1.82533e-07
-1.5706e-06
1.69632e-07
-1.61026e-06
1.57755e-07
-1.64798e-06
1.46938e-07
-1.68392e-06
1.37173e-07
-1.71821e-06
1.28416e-07
-1.75101e-06
1.20601e-07
-1.78243e-06
1.13652e-07
-1.81258e-06
1.07487e-07
-1.84155e-06
1.02022e-07
-1.86946e-06
9.71768e-08
-1.89637e-06
9.28739e-08
-1.92236e-06
8.90422e-08
-1.94751e-06
8.56159e-08
-1.97187e-06
8.2535e-08
-1.99549e-06
7.97453e-08
-2.01841e-06
7.71976e-08
-2.04067e-06
7.4848e-08
-2.0623e-06
7.26567e-08
-2.08331e-06
7.05884e-08
-2.10372e-06
6.86113e-08
-2.12353e-06
6.66967e-08
-2.14275e-06
6.48194e-08
-2.16137e-06
6.29562e-08
-2.17938e-06
6.10869e-08
-2.19678e-06
5.9193e-08
-2.21354e-06
5.72583e-08
-2.22964e-06
5.52679e-08
-2.24507e-06
5.32088e-08
-2.25979e-06
5.1069e-08
-2.27377e-06
4.8838e-08
-2.28699e-06
4.65064e-08
-2.2994e-06
4.40653e-08
-2.31098e-06
4.15073e-08
-2.32169e-06
3.88253e-08
-2.33148e-06
3.60131e-08
-2.34033e-06
3.30656e-08
-2.34818e-06
2.99781e-08
-2.35501e-06
2.67473e-08
-2.36077e-06
2.3371e-08
-2.36542e-06
1.98485e-08
-2.36894e-06
1.61808e-08
-2.37128e-06
1.2371e-08
-2.37242e-06
8.42473e-09
-2.37231e-06
4.35033e-09
-2.3709e-06
1.55684e-10
-2.36816e-06
-4.16078e-09
-2.36397e-06
-8.59875e-09
-2.35827e-06
-1.31682e-08
-2.35103e-06
-1.78669e-08
-2.3422e-06
-2.26878e-08
-2.33173e-06
-2.76218e-08
-2.31959e-06
-3.26589e-08
-2.30576e-06
-3.77877e-08
-2.29019e-06
-4.29958e-08
-2.27287e-06
-4.82695e-08
-2.25377e-06
-5.35941e-08
-2.2329e-06
-5.89535e-08
-2.21024e-06
-6.43307e-08
-2.18578e-06
-6.97076e-08
-2.15954e-06
-7.50649e-08
-2.13152e-06
-8.03823e-08
-2.10175e-06
-8.56387e-08
-2.07025e-06
-9.08116e-08
-2.03705e-06
-9.58783e-08
-2.00219e-06
-1.00815e-07
-1.96573e-06
-1.05597e-07
-1.92772e-06
-1.10201e-07
-1.88822e-06
-1.146e-07
-1.84732e-06
-1.18771e-07
-1.80508e-06
-1.2269e-07
-1.7616e-06
-1.26331e-07
-1.71699e-06
-1.29672e-07
-1.67134e-06
-1.32691e-07
-1.62476e-06
-1.35368e-07
-1.57738e-06
-1.37685e-07
-1.52931e-06
-1.39627e-07
-1.4807e-06
-1.4118e-07
-1.43166e-06
-1.42336e-07
-1.38233e-06
-1.43089e-07
-1.33285e-06
-1.43437e-07
-1.28336e-06
-1.43385e-07
-1.23397e-06
-1.42941e-07
-1.18484e-06
-1.42118e-07
-1.13606e-06
-1.40935e-07
-1.08777e-06
-1.39416e-07
-1.04007e-06
-1.37593e-07
-9.93049e-07
-1.35501e-07
-9.46793e-07
-1.33182e-07
-9.01368e-07
-1.30683e-07
-8.56824e-07
-1.28055e-07
-8.13193e-07
-1.25355e-07
-7.70487e-07
-1.22643e-07
-7.28697e-07
-1.19983e-07
-6.8779e-07
-1.17444e-07
-6.47713e-07
-1.15095e-07
-6.08387e-07
-1.13006e-07
-5.69708e-07
-1.11252e-07
-5.31548e-07
-1.09905e-07
-4.93756e-07
-1.09038e-07
-4.56154e-07
-1.08724e-07
-4.18539e-07
-1.09034e-07
-3.80687e-07
-1.10037e-07
-3.4235e-07
-1.11799e-07
-3.03258e-07
-1.14383e-07
-2.63121e-07
-1.17849e-07
-2.21628e-07
-1.22253e-07
-1.78453e-07
-1.27646e-07
-1.33254e-07
-1.34069e-07
-8.56727e-08
-1.41563e-07
-3.53423e-08
-1.5016e-07
1.81125e-08
-1.59884e-07
7.50792e-08
-1.70752e-07
1.35951e-07
-1.82772e-07
2.01122e-07
-1.9594e-07
2.70983e-07
-2.10257e-07
3.45925e-07
-2.25718e-07
4.26351e-07
-2.42306e-07
5.12658e-07
-2.6001e-07
6.05197e-07
-2.78772e-07
7.04266e-07
-2.98468e-07
8.10126e-07
-3.18978e-07
9.22985e-07
-3.40154e-07
1.043e-06
-3.61802e-07
1.17025e-06
-3.83688e-07
1.30472e-06
-4.05539e-07
1.44632e-06
-4.27038e-07
1.59482e-06
-4.47824e-07
1.74986e-06
-4.67489e-07
1.91093e-06
-4.85575e-07
2.07737e-06
-5.01577e-07
2.24831e-06
-5.14939e-07
2.42271e-06
-5.25058e-07
2.59931e-06
-5.31278e-07
2.77662e-06
-5.32873e-07
2.95289e-06
-5.29012e-07
3.12607e-06
-5.18675e-07
3.29372e-06
-5.00455e-07
3.45285e-06
-4.7223e-07
3.6001e-06
-4.29799e-07
3.73078e-06
-3.66363e-07
3.84535e-06
-2.64457e-07
-9.23503e-08
3.95163e-06
4.46897e-08
-1.64245e-07
7.77432e-08
-1.78596e-07
1.02023e-07
-1.64148e-07
1.19683e-07
-1.44677e-07
1.31592e-07
-1.23204e-07
1.38149e-07
-1.00501e-07
1.3955e-07
-7.68675e-08
1.35897e-07
-5.24321e-08
1.27255e-07
-2.72625e-08
1.13673e-07
-1.42659e-09
9.51603e-08
2.49689e-08
7.17004e-08
5.17721e-08
4.31416e-08
7.87797e-08
9.2508e-09
1.05736e-07
-3.03248e-08
1.32342e-07
-7.60311e-08
1.58286e-07
-1.28318e-07
1.83311e-07
-1.87506e-07
2.07294e-07
-2.53859e-07
2.30234e-07
-3.26969e-07
2.52303e-07
-4.05925e-07
2.73656e-07
-4.88984e-07
2.94245e-07
-5.73826e-07
3.13615e-07
-6.57978e-07
3.30869e-07
-7.3928e-07
3.44846e-07
-8.16408e-07
3.5447e-07
-8.88675e-07
3.59145e-07
-9.55766e-07
3.58814e-07
-1.01777e-06
3.53836e-07
-1.07511e-06
3.44857e-07
-1.12837e-06
3.3269e-07
-1.17819e-06
3.18196e-07
-1.22513e-06
3.02189e-07
-1.26967e-06
2.85388e-07
-1.31219e-06
2.68385e-07
-1.35294e-06
2.51646e-07
-1.3921e-06
2.35515e-07
-1.4298e-06
2.20232e-07
-1.46611e-06
2.05949e-07
-1.50111e-06
1.92747e-07
-1.53482e-06
1.80654e-07
-1.5673e-06
1.69655e-07
-1.5986e-06
1.59708e-07
-1.62875e-06
1.50751e-07
-1.65781e-06
1.42712e-07
-1.68583e-06
1.35511e-07
-1.71287e-06
1.29067e-07
-1.73899e-06
1.23297e-07
-1.76425e-06
1.18125e-07
-1.78868e-06
1.13476e-07
-1.81234e-06
1.0928e-07
-1.83528e-06
1.05473e-07
-1.85753e-06
1.01996e-07
-1.87913e-06
9.87938e-08
-1.9001e-06
9.5817e-08
-1.92046e-06
9.30203e-08
-1.94024e-06
9.03627e-08
-1.95943e-06
8.7807e-08
-1.97805e-06
8.53195e-08
-1.9961e-06
8.28699e-08
-2.01358e-06
8.04307e-08
-2.03047e-06
7.79772e-08
-2.04676e-06
7.54871e-08
-2.06245e-06
7.29403e-08
-2.0775e-06
7.03186e-08
-2.09189e-06
6.76059e-08
-2.10561e-06
6.47873e-08
-2.11862e-06
6.18497e-08
-2.1309e-06
5.87812e-08
-2.1424e-06
5.5571e-08
-2.15311e-06
5.22095e-08
-2.16297e-06
4.86881e-08
-2.17195e-06
4.49992e-08
-2.18003e-06
4.11363e-08
-2.18714e-06
3.70941e-08
-2.19326e-06
3.28683e-08
-2.19835e-06
2.84562e-08
-2.20236e-06
2.38562e-08
-2.20524e-06
1.90685e-08
-2.20697e-06
1.40946e-08
-2.20748e-06
8.93738e-09
-2.20673e-06
3.60017e-09
-2.20466e-06
-1.91475e-09
-2.20121e-06
-7.60695e-09
-2.19633e-06
-1.34778e-08
-2.18997e-06
-1.95279e-08
-2.18209e-06
-2.57517e-08
-2.17264e-06
-3.21395e-08
-2.16158e-06
-3.86798e-08
-2.14888e-06
-4.53589e-08
-2.13451e-06
-5.21618e-08
-2.11843e-06
-5.90721e-08
-2.10063e-06
-6.60716e-08
-2.08108e-06
-7.3141e-08
-2.05977e-06
-8.02593e-08
-2.0367e-06
-8.74041e-08
-2.01186e-06
-9.45516e-08
-1.98524e-06
-1.01676e-07
-1.95688e-06
-1.08752e-07
-1.92676e-06
-1.1575e-07
-1.89493e-06
-1.22642e-07
-1.86141e-06
-1.29397e-07
-1.82624e-06
-1.35984e-07
-1.78947e-06
-1.42371e-07
-1.75115e-06
-1.48524e-07
-1.71134e-06
-1.54412e-07
-1.67011e-06
-1.60001e-07
-1.62754e-06
-1.65259e-07
-1.58371e-06
-1.70153e-07
-1.53873e-06
-1.74653e-07
-1.49269e-06
-1.78729e-07
-1.44571e-06
-1.82355e-07
-1.39789e-06
-1.85505e-07
-1.34936e-06
-1.88158e-07
-1.30024e-06
-1.90297e-07
-1.25067e-06
-1.91909e-07
-1.20077e-06
-1.92986e-07