/*--------------------------------*- C++ -*----------------------------------*\
  =========                 |
  \\      /  F ield         | OpenFOAM: The Open Source CFD Toolbox
   \\    /   O peration     | Website:  https://openfoam.org
    \\  /    A nd           | Version:  12
     \\/     M anipulation  |
\*---------------------------------------------------------------------------*/
FoamFile
{
    format      ascii;
    class       volVectorField;
    location    "0.07";
    object      U;
}
// * * * * * * * * * * * * * * * * * * * * * * * * * * * * * * * * * * * * * //

dimensions      [0 1 -1 0 0 0 0];

internalField   nonuniform List<vector> 
12225
(
(9.86106 -0.874314 0)
(9.67238 -0.700175 0)
(9.45871 -0.387559 0)
(9.22417 -0.188429 0)
(9.00267 -0.0843344 0)
(8.80917 -0.0327982 0)
(8.64336 -0.007447 0)
(8.50171 0.00516194 0)
(8.38072 0.0115177 0)
(8.27679 0.0147142 0)
(8.18647 0.0162967 0)
(8.10676 0.0170976 0)
(8.035 0.0175881 0)
(7.9691 0.0181439 0)
(7.90493 0.0189838 0)
(7.8438 0.0218227 0)
(7.75307 0.0255778 0)
(7.72776 0.0515878 0)
(10.0547 0.263078 0)
(10.1201 0.360769 0)
(10.1179 0.273871 0)
(10.0824 0.18717 0)
(10.0402 0.13127 0)
(9.99335 0.0970715 0)
(9.93925 0.0757499 0)
(9.87915 0.0620045 0)
(9.8161 0.052681 0)
(9.75258 0.0459775 0)
(9.68997 0.0409686 0)
(9.62906 0.0372256 0)
(9.57011 0.0345422 0)
(9.51354 0.0330448 0)
(9.45786 0.0326746 0)
(9.40735 0.0364275 0)
(9.34932 0.0408538 0)
(9.33356 0.0773927 0)
(9.99918 0.0461003 0)
(10.0244 0.0342537 0)
(10.0537 0.0150265 0)
(10.0705 0.0219316 0)
(10.0774 0.0368391 0)
(10.0776 0.0462291 0)
(10.0713 0.0502379 0)
(10.059 0.0515177 0)
(10.0422 0.0515426 0)
(10.0223 0.0509884 0)
(10 0.0502483 0)
(9.97602 0.0496102 0)
(9.95064 0.049282 0)
(9.92428 0.0496732 0)
(9.89653 0.0509676 0)
(9.86902 0.0556061 0)
(9.83981 0.0623125 0)
(9.82043 0.0851437 0)
(9.99679 0.00644548 0)
(10.0085 0.0250744 0)
(10.0341 0.0390361 0)
(10.0525 0.0504496 0)
(10.064 0.0573167 0)
(10.0724 0.0594479 0)
(10.078 0.05923 0)
(10.0803 0.0584309 0)
(10.0798 0.0575838 0)
(10.0772 0.0567827 0)
(10.0728 0.0561083 0)
(10.0669 0.0556974 0)
(10.0595 0.0557131 0)
(10.051 0.056526 0)
(10.0413 0.0584391 0)
(10.0314 0.063116 0)
(10.0219 0.0701539 0)
(10.0174 0.0847178 0)
(9.99922 0.0067612 0)
(10.0081 0.033649 0)
(10.027 0.0461753 0)
(10.0415 0.0510404 0)
(10.052 0.054186 0)
(10.0615 0.0558675 0)
(10.0699 0.0563302 0)
(10.0762 0.0562951 0)
(10.0806 0.0561222 0)
(10.0835 0.0559236 0)
(10.0852 0.0558057 0)
(10.0858 0.0559268 0)
(10.0854 0.0564754 0)
(10.0841 0.0577847 0)
(10.0823 0.0601809 0)
(10.0805 0.0646433 0)
(10.0799 0.0709819 0)
(10.0832 0.0804174 0)
(10.0002 0.00910493 0)
(10.0078 0.0322199 0)
(10.0224 0.0420758 0)
(10.0347 0.0459076 0)
(10.0444 0.0494599 0)
(10.0535 0.0521084 0)
(10.0621 0.0533867 0)
(10.0692 0.0539164 0)
(10.075 0.054188 0)
(10.0798 0.0543886 0)
(10.0836 0.0546435 0)
(10.0867 0.055114 0)
(10.089 0.0559874 0)
(10.0908 0.0575383 0)
(10.0923 0.0600337 0)
(10.0942 0.0639864 0)
(10.0975 0.0691882 0)
(10.1036 0.0755211 0)
(10.0003 0.00883866 0)
(10.0067 0.0276338 0)
(10.0188 0.0372814 0)
(10.03 0.042032 0)
(10.0391 0.0460618 0)
(10.0476 0.0490182 0)
(10.0557 0.0505911 0)
(10.0629 0.0513902 0)
(10.069 0.0519178 0)
(10.0743 0.0523694 0)
(10.079 0.0528654 0)
(10.083 0.0535553 0)
(10.0866 0.0546081 0)
(10.0899 0.0562337 0)
(10.0931 0.0586136 0)
(10.0968 0.0619675 0)
(10.1017 0.0660413 0)
(10.1087 0.0703217 0)
(10.0004 0.007883 0)
(10.0057 0.0238321 0)
(10.0159 0.0336032 0)
(10.0261 0.0389295 0)
(10.0347 0.0429507 0)
(10.0427 0.0458955 0)
(10.0503 0.0476349 0)
(10.0573 0.0486467 0)
(10.0634 0.0493725 0)
(10.0689 0.0500087 0)
(10.0739 0.0506741 0)
(10.0784 0.0515034 0)
(10.0826 0.0526397 0)
(10.0866 0.0542313 0)
(10.0908 0.0563791 0)
(10.0954 0.0591286 0)
(10.101 0.0622028 0)
(10.1081 0.065052 0)
(10.0004 0.0070044 0)
(10.0049 0.020867 0)
(10.0135 0.0303057 0)
(10.0227 0.0357953 0)
(10.0308 0.039723 0)
(10.0384 0.0426533 0)
(10.0456 0.0445501 0)
(10.0523 0.0457514 0)
(10.0584 0.0466378 0)
(10.0639 0.0474121 0)
(10.069 0.0481939 0)
(10.0738 0.0491009 0)
(10.0783 0.050247 0)
(10.0828 0.0517282 0)
(10.0874 0.0535821 0)
(10.0925 0.055761 0)
(10.0983 0.0579983 0)
(10.1052 0.0598383 0)
(10.0004 0.00622503 0)
(10.0042 0.0183035 0)
(10.0115 0.027105 0)
(10.0197 0.0325847 0)
(10.0273 0.036453 0)
(10.0345 0.0393706 0)
(10.0413 0.0413802 0)
(10.0478 0.0427274 0)
(10.0538 0.0437372 0)
(10.0593 0.0446113 0)
(10.0645 0.0454664 0)
(10.0694 0.0464018 0)
(10.0741 0.0475033 0)
(10.0788 0.0488261 0)
(10.0837 0.0503656 0)
(10.089 0.0520337 0)
(10.0948 0.0535983 0)
(10.1013 0.0547245 0)
(10.0003 0.00549547 0)
(10.0036 0.0160025 0)
(10.0098 0.0240548 0)
(10.0171 0.0294061 0)
(10.0242 0.0331984 0)
(10.0309 0.0360659 0)
(10.0375 0.0381264 0)
(10.0437 0.0395715 0)
(10.0496 0.0406696 0)
(10.055 0.0416096 0)
(10.0602 0.0425013 0)
(10.0652 0.0434264 0)
(10.0701 0.0444459 0)
(10.0749 0.0455866 0)
(10.0799 0.0468203 0)
(10.0852 0.048051 0)
(10.0909 0.0490917 0)
(10.0969 0.0497153 0)
(10.0003 0.00484955 0)
(10.0031 0.0140766 0)
(10.0085 0.0214123 0)
(10.0151 0.0265433 0)
(10.0217 0.0302212 0)
(10.028 0.0330069 0)
(10.0343 0.0350661 0)
(10.0403 0.0365591 0)
(10.046 0.0377058 0)
(10.0514 0.038676 0)
(10.0566 0.0395711 0)
(10.0616 0.0404578 0)
(10.0666 0.0413794 0)
(10.0715 0.0423455 0)
(10.0765 0.0433195 0)
(10.0817 0.0442139 0)
(10.0872 0.0448844 0)
(10.0929 0.045184 0)
(10.0003 0.00424917 0)
(10.0027 0.0123274 0)
(10.0074 0.0189276 0)
(10.0133 0.0237465 0)
(10.0194 0.0272656 0)
(10.0255 0.0299434 0)
(10.0314 0.0319639 0)
(10.0372 0.0334685 0)
(10.0428 0.0346352 0)
(10.0482 0.035611 0)
(10.0533 0.0364867 0)
(10.0583 0.0373175 0)
(10.0633 0.038133 0)
(10.0682 0.0389328 0)
(10.0732 0.0396798 0)
(10.0783 0.0403011 0)
(10.0835 0.0406892 0)
(10.0889 0.0407562 0)
(10.0003 0.00362344 0)
(10.0024 0.0105075 0)
(10.0064 0.0162652 0)
(10.0116 0.0206406 0)
(10.0172 0.0239121 0)
(10.0229 0.0264217 0)
(10.0285 0.0283489 0)
(10.0341 0.0298184 0)
(10.0395 0.0309683 0)
(10.0448 0.0319182 0)
(10.0499 0.0327454 0)
(10.0549 0.0334937 0)
(10.0598 0.0341824 0)
(10.0647 0.0348059 0)
(10.0696 0.0353324 0)
(10.0746 0.0357079 0)
(10.0795 0.0358598 0)
(10.0845 0.035747 0)
(10.0002 0.00297034 0)
(10.002 0.00861441 0)
(10.0055 0.0134328 0)
(10.0101 0.0172282 0)
(10.0152 0.0201404 0)
(10.0204 0.0224007 0)
(10.0258 0.0241634 0)
(10.0311 0.0255338 0)
(10.0363 0.0266145 0)
(10.0414 0.0274957 0)
(10.0465 0.0282384 0)
(10.0514 0.0288761 0)
(10.0562 0.0294211 0)
(10.061 0.0298673 0)
(10.0658 0.0301918 0)
(10.0706 0.0303605 0)
(10.0752 0.0303302 0)
(10.0799 0.0300928 0)
(10.0002 0.0022894 0)
(10.0017 0.00664637 0)
(10.0047 0.0104313 0)
(10.0087 0.0135047 0)
(10.0133 0.0159251 0)
(10.0182 0.0178323 0)
(10.0232 0.0193406 0)
(10.0283 0.0205309 0)
(10.0333 0.0214745 0)
(10.0383 0.0222333 0)
(10.0432 0.0228509 0)
(10.048 0.0233511 0)
(10.0527 0.023742 0)
(10.0574 0.0240197 0)
(10.062 0.0241712 0)
(10.0665 0.024179 0)
(10.0709 0.0240215 0)
(10.0752 0.0237103 0)
(10.0002 0.00157627 0)
(10.0015 0.00458317 0)
(10.0041 0.00723227 0)
(10.0077 0.00943777 0)
(10.0119 0.011219 0)
(10.0164 0.0126487 0)
(10.0211 0.0137958 0)
(10.0259 0.014712 0)
(10.0307 0.0154404 0)
(10.0355 0.0160172 0)
(10.0403 0.0164684 0)
(10.0449 0.0168084 0)
(10.0495 0.0170422 0)
(10.054 0.0171683 0)
(10.0584 0.0171809 0)
(10.0627 0.017074 0)
(10.0668 0.016839 0)
(10.0709 0.0164964 0)
(10.0001 0.000811676 0)
(10.0013 0.00236413 0)
(10.0037 0.00374863 0)
(10.007 0.00492915 0)
(10.0109 0.00591149 0)
(10.0151 0.00672226 0)
(10.0196 0.00738725 0)
(10.0242 0.00792635 0)
(10.0289 0.0083559 0)
(10.0335 0.00868909 0)
(10.0381 0.00893458 0)
(10.0426 0.00909631 0)
(10.047 0.00917473 0)
(10.0513 0.00916831 0)
(10.0555 0.00907484 0)
(10.0596 0.00889328 0)
(10.0635 0.00862132 0)
(10.0672 0.00828036 0)
(10.0001 -5.29172e-05 0)
(10.0013 -0.000148451 0)
(10.0035 -0.000217894 0)
(10.0067 -0.000244753 0)
(10.0106 -0.000224187 0)
(10.0147 -0.000169039 0)
(10.0191 -9.84929e-05 0)
(10.0236 -2.71894e-05 0)
(10.0282 3.45858e-05 0)
(10.0327 7.7254e-05 0)
(10.0372 9.12804e-05 0)
(10.0416 6.82144e-05 0)
(10.0458 1.20036e-06 0)
(10.05 -0.000115018 0)
(10.054 -0.00028409 0)
(10.0579 -0.000507357 0)
(10.0616 -0.000786502 0)
(10.0651 -0.00110459 0)
(10.0002 -0.000887816 0)
(10.0014 -0.00258192 0)
(10.0038 -0.00406621 0)
(10.0072 -0.00525568 0)
(10.0112 -0.00614247 0)
(10.0156 -0.00678761 0)
(10.0201 -0.00725831 0)
(10.0247 -0.00760065 0)
(10.0293 -0.00785052 0)
(10.0339 -0.00804174 0)
(10.0383 -0.00820297 0)
(10.0427 -0.0083551 0)
(10.0469 -0.00851286 0)
(10.051 -0.00868694 0)
(10.0549 -0.00888491 0)
(10.0587 -0.00911102 0)
(10.0623 -0.00936877 0)
(10.0657 -0.00964674 0)
(10.0002 -0.00161249 0)
(10.0015 -0.00471746 0)
(10.0043 -0.00744284 0)
(10.0081 -0.00958303 0)
(10.0125 -0.0111524 0)
(10.0171 -0.0123073 0)
(10.0219 -0.0131659 0)
(10.0267 -0.0137883 0)
(10.0314 -0.0142299 0)
(10.0361 -0.0145509 0)
(10.0406 -0.0148 0)
(10.045 -0.0150091 0)
(10.0492 -0.0151993 0)
(10.0532 -0.0153857 0)
(10.0571 -0.0155794 0)
(10.0608 -0.0157867 0)
(10.0644 -0.0160123 0)
(10.0678 -0.0162485 0)
(10.0002 -0.00230479 0)
(10.0017 -0.00683706 0)
(10.0049 -0.01083 0)
(10.0093 -0.0138239 0)
(10.0143 -0.0159119 0)
(10.0193 -0.0174315 0)
(10.0244 -0.0185633 0)
(10.0294 -0.0193723 0)
(10.0344 -0.0199315 0)
(10.0392 -0.0203245 0)
(10.0438 -0.020614 0)
(10.0482 -0.0208393 0)
(10.0524 -0.0210277 0)
(10.0565 -0.0211993 0)
(10.0603 -0.0213681 0)
(10.064 -0.0215421 0)
(10.0675 -0.0217267 0)
(10.0709 -0.0219168 0)
(10.0002 -0.00294995 0)
(10.0019 -0.00897454 0)
(10.0057 -0.0142589 0)
(10.011 -0.0180164 0)
(10.0166 -0.0205493 0)
(10.022 -0.0223578 0)
(10.0274 -0.0236367 0)
(10.0328 -0.0244924 0)
(10.0379 -0.0250632 0)
(10.0429 -0.0254615 0)
(10.0475 -0.0257482 0)
(10.052 -0.0259593 0)
(10.0563 -0.0261243 0)
(10.0604 -0.0262664 0)
(10.0642 -0.0264011 0)
(10.0679 -0.0265369 0)
(10.0714 -0.0266793 0)
(10.0747 -0.0268249 0)
(10.0001 -0.00353468 0)
(10.0019 -0.0114311 0)
(10.0065 -0.0177545 0)
(10.0128 -0.0218119 0)
(10.0192 -0.0247257 0)
(10.0251 -0.0269569 0)
(10.0309 -0.0284304 0)
(10.0365 -0.0292763 0)
(10.0419 -0.029772 0)
(10.0469 -0.0300961 0)
(10.0517 -0.0303155 0)
(10.0563 -0.0304627 0)
(10.0606 -0.0305679 0)
(10.0646 -0.0306549 0)
(10.0685 -0.0307379 0)
(10.0721 -0.0308239 0)
(10.0756 -0.0309164 0)
(10.0788 -0.0310114 0)
(9.99997 -0.00366277 0)
(10.0018 -0.0150979 0)
(10.0077 -0.0225144 0)
(10.0149 -0.0257908 0)
(10.0216 -0.0283003 0)
(10.028 -0.0307087 0)
(10.0345 -0.0324338 0)
(10.0406 -0.0334207 0)
(10.0462 -0.033971 0)
(10.0514 -0.0342942 0)
(10.0563 -0.0344741 0)
(10.0609 -0.0345601 0)
(10.0652 -0.0345948 0)
(10.0692 -0.0346082 0)
(10.0729 -0.034617 0)
(10.0764 -0.0346296 0)
(10.0797 -0.0346496 0)
(10.0827 -0.0346745 0)
(9.99898 -0.00128921 0)
(10 -0.0179129 0)
(10.0086 -0.028966 0)
(10.0175 -0.0325479 0)
(10.0246 -0.03393 0)
(10.0315 -0.0351146 0)
(10.0387 -0.0360203 0)
(10.0454 -0.0366223 0)
(10.0515 -0.0370337 0)
(10.0568 -0.037295 0)
(10.0616 -0.0374213 0)
(10.066 -0.0374491 0)
(10.0698 -0.0374198 0)
(10.0733 -0.0373633 0)
(10.0763 -0.0372979 0)
(10.0791 -0.0372351 0)
(10.0815 -0.0371783 0)
(10.0837 -0.0371268 0)
(9.99528 0.00388299 0)
(9.99336 -0.0102715 0)
(10.0071 -0.0270367 0)
(10.0214 -0.0388287 0)
(10.0313 -0.044734 0)
(10.0395 -0.0463077 0)
(10.047 -0.0457921 0)
(10.0535 -0.0448039 0)
(10.0588 -0.0438984 0)
(10.0629 -0.0430972 0)
(10.0662 -0.0423571 0)
(10.0686 -0.0416755 0)
(10.0704 -0.0410591 0)
(10.0715 -0.0405075 0)
(10.0721 -0.0400187 0)
(10.0722 -0.0395916 0)
(10.072 -0.0392167 0)
(10.0716 -0.0388672 0)
(9.99145 -0.0172842 0)
(9.99191 0.000393881 0)
(10.0101 0.0177127 0)
(10.0297 0.0116568 0)
(10.0444 -0.00501351 0)
(10.0544 -0.0187065 0)
(10.0604 -0.0270325 0)
(10.0628 -0.0318902 0)
(10.0623 -0.0347529 0)
(10.0599 -0.0363404 0)
(10.0559 -0.0371006 0)
(10.0506 -0.0373587 0)
(10.0445 -0.0373279 0)
(10.0376 -0.0371377 0)
(10.0302 -0.0368721 0)
(10.0224 -0.0365921 0)
(10.0145 -0.0363533 0)
(10.0065 -0.0361243 0)
(10.0235 -0.206001 0)
(10.0684 -0.312319 0)
(10.0789 -0.255558 0)
(10.0705 -0.184129 0)
(10.0607 -0.134839 0)
(10.0501 -0.10265 0)
(10.0345 -0.0810773 0)
(10.0134 -0.0665191 0)
(9.98839 -0.0565163 0)
(9.96131 -0.0493505 0)
(9.93325 -0.0439843 0)
(9.90492 -0.0398281 0)
(9.8768 -0.0365237 0)
(9.84923 -0.0338384 0)
(9.82243 -0.0316243 0)
(9.79655 -0.0298178 0)
(9.7718 -0.0283886 0)
(9.74821 -0.0276531 0)
(9.94227 0.671598 0)
(9.88 0.567466 0)
(9.77457 0.338487 0)
(9.63261 0.183349 0)
(9.48801 0.094938 0)
(9.35706 0.0471203 0)
(9.24167 0.0213422 0)
(9.14036 0.00712751 0)
(9.05163 -0.000925604 0)
(8.97386 -0.00556123 0)
(8.90532 -0.00824554 0)
(8.84447 -0.00980365 0)
(8.79006 -0.0107058 0)
(8.74111 -0.0112208 0)
(8.69678 -0.0115094 0)
(8.65637 -0.0116963 0)
(8.61904 -0.0118752 0)
(8.58438 -0.0124075 0)
(0.0108067 -0.00414467 -3.80887e-20)
(0.0364229 -0.028888 3.38189e-20)
(0.0738109 -0.0447884 0)
(0.118565 -0.0543072 0)
(0.163473 -0.0583094 0)
(0.205847 -0.0581583 -2.74796e-20)
(0.244239 -0.0550711 0)
(0.277542 -0.0497247 0)
(0.304828 -0.0421981 0)
(0.325172 -0.03246 0)
(0.337718 -0.0202816 2.55481e-20)
(0.341842 -0.00598503 0)
(0.336019 0.00835446 0)
(0.321086 0.0209223 0)
(0.298243 0.030911 0)
(0.268446 0.0379744 2.53895e-20)
(0.23603 0.0396192 0)
(0.197991 0.0418804 0)
(0.158596 0.0427131 0)
(0.12188 0.0360384 0)
(0.0823871 0.0335326 0)
(0.046154 0.0299266 0)
(0.00721833 0.0310716 0)
(-0.0359378 0.0395211 2.70662e-20)
(-0.0853795 0.05272 -2.9007e-20)
(-0.148139 0.0590486 2.93878e-20)
(-0.222097 0.0659198 2.84916e-20)
(-0.299967 0.0773724 0)
(-0.387246 0.0874019 0)
(-0.480464 0.0950263 -2.58545e-20)
(-0.577381 0.0998466 -2.50746e-20)
(-0.6758 0.101843 0)
(-0.773718 0.101282 0)
(-0.869439 0.0986006 -2.3168e-20)
(-0.961636 0.0943107 0)
(-1.04936 0.0889236 0)
(-1.13201 0.082901 2.18498e-20)
(-1.20929 0.076627 0)
(-1.28117 0.0703986 2.1206e-20)
(-1.34777 0.0644289 4.18672e-20)
(-1.40939 0.0588565 0)
(-1.46638 0.05376 0)
(-1.51914 0.0491716 0)
(-1.56811 0.0450905 0)
(-1.61369 0.0414941 0)
(-1.65629 0.0383461 3.93827e-20)
(-1.69625 0.0356037 3.90409e-20)
(-1.73393 0.0332216 3.87091e-20)
(-1.76961 0.031155 0)
(-1.80354 0.0293617 -3.80655e-20)
(-1.83596 0.0278029 0)
(-1.86706 0.0264438 3.74369e-20)
(-1.89699 0.0252534 3.71247e-20)
(-1.92592 0.0242043 0)
(-1.95394 0.0232729 0)
(-1.98116 0.0224382 0)
(-2.00765 0.0216824 3.58682e-20)
(-2.03347 0.0209897 0)
(-2.05868 0.0203467 0)
(-2.08331 0.0197414 0)
(-2.10739 0.0191636 0)
(-2.13092 0.0186044 0)
(-2.15392 0.018056 0)
(-2.17639 0.0175116 0)
(-2.19831 0.0169652 0)
(-2.21967 0.0164117 -3.28325e-20)
(-2.24045 0.0158464 0)
(-2.26062 0.0152654 0)
(-2.28015 0.0146648 3.1713e-20)
(-2.29902 0.0140413 3.13242e-20)
(-2.31717 0.0133916 0)
(-2.33457 0.0127123 -3.05207e-20)
(-2.35118 0.0120001 3.0105e-20)
(-2.36693 0.0112515 0)
(-2.38178 0.0104624 -2.92434e-20)
(-2.39568 0.00962909 0)
(-2.40855 0.0087477 0)
(-2.42033 0.00781484 2.78685e-20)
(-2.43095 0.00682845 0)
(-2.44033 0.00578748 -2.68916e-20)
(-2.44839 0.00469409 0)
(-2.45503 0.00356318 2.58631e-20)
(-2.46015 0.00242492 2.53285e-20)
(-2.46362 0.00129402 2.47798e-20)
(-2.46538 0.000184787 4.84217e-20)
(-2.46575 -0.000818705 -4.72503e-20)
(-2.46465 -0.00179073 0)
(-2.46207 -0.0027585 0)
(-2.45797 -0.00373042 0)
(-2.45233 -0.00470819 -4.22193e-20)
(-2.4451 -0.00569095 -4.08715e-20)
(-2.43627 -0.00667673 3.94868e-20)
(-2.4258 -0.007663 0)
(-2.41368 -0.00864688 -3.66056e-20)
(-2.39988 -0.00962528 -3.5109e-20)
(-2.38439 -0.0105949 -3.35751e-20)
(-2.36721 -0.0115523 0)
(-2.34834 -0.0124938 0)
(-2.32777 -0.0134158 0)
(-2.30553 -0.0143143 -2.70768e-20)
(-2.28163 -0.0151854 0)
(-2.2561 -0.0160252 0)
(-2.22897 -0.0168295 2.18461e-20)
(-2.20028 -0.0175944 0)
(-2.17009 -0.0183157 0)
(-2.13844 -0.0189895 1.63521e-20)
(-2.10541 -0.019612 0)
(-2.07106 -0.0201794 0)
(-2.03549 -0.0206884 -1.06523e-20)
(-1.99877 -0.0211357 -8.71913e-21)
(-1.961 -0.0215185 0)
(-1.9223 -0.0218344 4.82194e-21)
(-1.88276 -0.0220815 0)
(-1.8425 -0.0222586 -9.0688e-22)
(-1.80164 -0.0223648 0)
(-1.76031 -0.0224003 2.99616e-21)
(-1.71863 -0.0223657 4.93345e-21)
(-1.67672 -0.0222628 0)
(-1.63472 -0.0220941 0)
(-1.59275 -0.0218629 0)
(-1.55092 -0.0215735 0)
(-1.50936 -0.021231 0)
(-1.46817 -0.0208418 0)
(-1.42745 -0.0204128 0)
(-1.3873 -0.0199519 1.95923e-20)
(-1.34777 -0.0194677 -2.12709e-20)
(-1.30895 -0.0189693 0)
(-1.27086 -0.0184665 0)
(-1.23354 -0.0179697 0)
(-1.19699 -0.0174894 0)
(-1.16121 -0.0170366 -5.80308e-20)
(-1.12615 -0.0166223 0)
(-1.09176 -0.0162574 6.36257e-20)
(-1.05796 -0.015953 -6.63071e-20)
(-1.02464 -0.0157197 0)
(-0.991679 -0.0155681 0)
(-0.958922 -0.0155081 0)
(-0.926193 -0.0155496 7.64287e-20)
(-0.89329 -0.0157018 7.88584e-20)
(-0.859989 -0.0159735 0)
(-0.826044 -0.0163728 8.36863e-20)
(-0.791185 -0.0169072 8.61148e-20)
(-0.755123 -0.0175836 -8.85751e-20)
(-0.717548 -0.0184086 0)
(-0.678129 -0.0193883 0)
(-0.63652 -0.020527 -9.63294e-20)
(-0.592361 -0.021828 0)
(-0.545277 -0.0232956 0)
(-0.494879 -0.0249337 0)
(-0.440773 -0.0267405 0)
(-0.382562 -0.0287148 1.11697e-19)
(-0.319841 -0.0308563 1.15326e-19)
(-0.252222 -0.0331475 0)
(-0.179285 -0.0355712 1.23307e-19)
(-0.100643 -0.0381029 0)
(-0.0160312 -0.0406111 0)
(0.0750276 -0.0430089 1.34775e-19)
(0.172946 -0.0453675 0)
(0.278015 -0.047743 1.38689e-19)
(0.390564 -0.0501177 0)
(0.510835 -0.0524554 0)
(0.63899 -0.0547181 1.44044e-19)
(0.775106 -0.0568675 0)
(0.919153 -0.0588631 1.46981e-19)
(1.07098 -0.0606624 0)
(1.23032 -0.0622203 0)
(1.39671 -0.0634895 0)
(1.56956 -0.0644207 -1.50421e-19)
(1.74806 -0.0649624 0)
(1.93121 -0.0650617 1.50621e-19)
(2.11775 -0.064663 0)
(2.30618 -0.0637068 0)
(2.49472 -0.0621236 0)
(2.68118 -0.0598258 0)
(2.86302 -0.0566674 0)
(3.0364 -0.0524933 0)
(3.1982 -0.0462987 0)
(3.33247 -0.0383621 -2.89125e-19)
(3.45409 -0.0168399 0)
(3.41893 0.0210626 0)
(0.024049 -0.0763125 1.13682e-19)
(0.0681902 -0.121447 -1.005e-19)
(0.114032 -0.135137 0)
(0.156677 -0.134934 5.53841e-20)
(0.193541 -0.126781 0)
(0.224116 -0.113738 2.47486e-20)
(0.248547 -0.0976022 -4.79299e-20)
(0.266911 -0.0793639 -4.67491e-20)
(0.279214 -0.0595014 0)
(0.285484 -0.0382734 -4.54884e-20)
(0.285805 -0.0159229 -2.25614e-20)
(0.280229 0.00710894 0)
(0.269706 0.0298402 0)
(0.253644 0.0511966 0)
(0.231526 0.0701684 0)
(0.203044 0.0859779 -2.23045e-20)
(0.168415 0.0984155 0)
(0.126769 0.107682 4.65779e-20)
(0.0802066 0.111146 0)
(0.026263 0.114589 0)
(-0.0339562 0.116544 -4.73781e-20)
(-0.10158 0.122297 0)
(-0.176943 0.133923 4.49259e-20)
(-0.259257 0.152123 -2.19547e-20)
(-0.348368 0.176461 2.15444e-20)
(-0.4424 0.199367 -2.08751e-20)
(-0.540392 0.218073 -2.02093e-20)
(-0.639641 0.23287 0)
(-0.738408 0.242883 0)
(-0.834626 0.247431 1.84226e-20)
(-0.926865 0.246717 -1.78228e-20)
(-1.01405 0.241392 0)
(-1.09553 0.23237 0)
(-1.17102 0.220654 1.67298e-20)
(-1.24056 0.207214 0)
(-1.30443 0.1929 0)
(-1.36302 0.178407 -1.5893e-20)
(-1.41686 0.164264 0)
(-1.46644 0.150842 1.54127e-20)
(-1.51229 0.138375 -3.05647e-20)
(-1.55487 0.126991 0)
(-1.59461 0.116733 0)
(-1.63188 0.107582 -5.90736e-20)
(-1.66702 0.0994826 -5.85065e-20)
(-1.7003 0.0923533 -5.79682e-20)
(-1.73196 0.086101 2.86471e-20)
(-1.7622 0.0806286 -2.85607e-20)
(-1.7912 0.0758408 -8.48024e-20)
(-1.8191 0.0716479 5.60142e-20)
(-1.84602 0.067967 2.78611e-20)
(-1.87207 0.0647235 0)
(-1.89732 0.061851 -2.74135e-20)
(-1.92186 0.0592907 2.70315e-20)
(-1.94574 0.0569911 0)
(-1.969 0.0549071 0)
(-1.99169 0.0529998 0)
(-2.01382 0.051235 -2.63051e-20)
(-2.03541 0.0495831 0)
(-2.05648 0.0480186 5.15607e-20)
(-2.07703 0.0465191 0)
(-2.09705 0.0450654 5.06383e-20)
(-2.11655 0.0436408 0)
(-2.1355 0.0422308 -4.96859e-20)
(-2.15389 0.0408229 0)
(-2.17171 0.0394063 4.86971e-20)
(-2.18892 0.0379717 -2.40393e-20)
(-2.2055 0.0365111 0)
(-2.22142 0.0350176 -4.71328e-20)
(-2.23665 0.0334852 -2.33381e-20)
(-2.25116 0.0319088 -2.30548e-20)
(-2.2649 0.0302838 0)
(-2.27784 0.0286061 -2.23987e-20)
(-2.28994 0.0268722 -2.21599e-20)
(-2.30116 0.0250785 0)
(-2.31146 0.023222 2.15222e-20)
(-2.3208 0.0212995 -4.23463e-20)
(-2.32914 0.0193084 0)
(-2.33643 0.017246 -2.04967e-20)
(-2.34264 0.0151103 0)
(-2.34776 0.0129001 5.92953e-20)
(-2.35175 0.0106154 0)
(-2.35462 0.00826585 -5.69879e-20)
(-2.35638 0.00587991 -1.85829e-20)
(-2.35708 0.00349233 1.82088e-20)
(-2.35674 0.00111381 3.55686e-20)
(-2.35502 -0.00122686 -3.46981e-20)
(-2.35189 -0.00356445 0)
(-2.34728 -0.0059128 0)
(-2.34115 -0.00827638 0)
(-2.33345 -0.0106538 9.2477e-20)
(-2.32415 -0.0130407 2.97336e-20)
(-2.31322 -0.0154314 -2.86893e-20)
(-2.30063 -0.0178193 0)
(-2.28635 -0.0201972 -2.68401e-20)
(-2.27038 -0.0225576 2.54035e-20)
(-2.25269 -0.0248925 2.42584e-20)
(-2.23328 -0.0271938 0)
(-2.21214 -0.0294528 0)
(-2.18928 -0.031661 0)
(-2.16472 -0.0338092 1.94433e-20)
(-2.13847 -0.0358886 0)
(-2.11055 -0.0378899 -3.43067e-20)
(-2.08099 -0.0398039 -4.73449e-20)
(-2.04984 -0.0416215 2.91254e-20)
(-2.01715 -0.0433337 0)
(-1.98297 -0.0449316 1.21884e-20)
(-1.94736 -0.0464068 0)
(-1.9104 -0.0477511 1.84082e-20)
(-1.87216 -0.048957 -8.13633e-21)
(-1.83274 -0.0500175 -6.76793e-21)
(-1.79223 -0.0509264 0)
(-1.75073 -0.0516785 -1.08126e-20)
(-1.70835 -0.0522698 4.65512e-21)
(-1.66521 -0.0526973 6.3733e-22)
(-1.62143 -0.0529596 0)
(-1.57713 -0.0530565 -2.10064e-21)
(-1.53243 -0.0529897 -9.74517e-21)
(-1.48747 -0.0527625 0)
(-1.44238 -0.0523801 -1.16394e-20)
(-1.39729 -0.0518496 -1.42672e-20)
(-1.35231 -0.05118 -1.68579e-20)
(-1.30757 -0.050382 0)
(-1.26318 -0.0494684 0)
(-1.21925 -0.0484542 0)
(-1.17587 -0.0473558 1.31164e-20)
(-1.13313 -0.0461912 1.48271e-20)
(-1.09109 -0.04498 0)
(-1.04981 -0.0437427 3.36623e-20)
(-1.00933 -0.0425011 3.58441e-20)
(-0.969651 -0.0412781 0)
(-0.930779 -0.0400968 4.04961e-20)
(-0.892687 -0.0389808 8.40936e-20)
(-0.855326 -0.0379538 -4.44453e-20)
(-0.818624 -0.0370392 -4.54803e-20)
(-0.782484 -0.0362602 0)
(-0.746785 -0.0356393 0)
(-0.711381 -0.0351981 0)
(-0.676099 -0.0349575 -5.35555e-20)
(-0.640743 -0.0349373 5.44379e-20)
(-0.605093 -0.0351558 1.13166e-19)
(-0.568902 -0.0356296 -5.87398e-20)
(-0.531904 -0.036374 5.95561e-20)
(-0.493807 -0.0374025 6.22189e-20)
(-0.454301 -0.0387279 0)
(-0.413053 -0.0403604 0)
(-0.369714 -0.042307 -6.65976e-20)
(-0.32392 -0.0445726 0)
(-0.275291 -0.0471622 0)
(-0.223433 -0.0500778 1.46176e-19)
(-0.167952 -0.0533115 0)
(-0.108436 -0.0568575 7.67938e-20)
(-0.0444688 -0.0607102 -8.06978e-20)
(0.0243399 -0.0648541 0)
(0.0984422 -0.0692767 8.29071e-20)
(0.17825 -0.0739726 0)
(0.264159 -0.0789277 0)
(0.356595 -0.0840709 -8.99341e-20)
(0.455925 -0.0893551 1.81541e-19)
(0.562485 -0.0947803 -9.37167e-20)
(0.676585 -0.10031 0)
(0.798467 -0.10588 0)
(0.928303 -0.111416 9.69229e-20)
(1.06618 -0.116838 0)
(1.21209 -0.122056 1.003e-19)
(1.36589 -0.126971 0)
(1.52734 -0.131475 0)
(1.69602 -0.13545 0)
(1.87135 -0.138769 1.08495e-19)
(2.05255 -0.141297 0)
(2.23867 -0.14289 -1.10432e-19)
(2.42849 -0.143392 0)
(2.62057 -0.142637 0)
(2.81318 -0.140429 2.21859e-19)
(3.00425 -0.136526 -2.22514e-19)
(3.19134 -0.130558 0)
(3.37111 -0.121983 0)
(3.54006 -0.10913 0)
(3.69031 -0.090215 6.79602e-19)
(3.81959 -0.0515853 0)
(3.91521 0.0216394 -4.67282e-19)
(0.0295228 -0.183012 1.52168e-22)
(0.0720514 -0.237366 1.28566e-19)
(0.1101 -0.23373 0)
(0.142282 -0.215054 -1.043e-19)
(0.167668 -0.190457 0)
(0.186529 -0.162794 0)
(0.199421 -0.13326 -1.16082e-22)
(0.206702 -0.102395 4.30358e-20)
(0.208581 -0.0704447 4.22819e-20)
(0.205223 -0.037593 4.16632e-20)
(0.196782 -0.00411101 0)
(0.183386 0.0295488 0)
(0.165173 0.0628005 -4.07611e-20)
(0.14207 0.0948534 -8.13337e-20)
(0.113808 0.124852 8.145e-20)
(0.0799698 0.152006 0)
(0.0401267 0.175877 8.25014e-20)
(-0.00633657 0.196672 -4.14458e-20)
(-0.0598808 0.214486 0)
(-0.121407 0.231206 8.03861e-20)
(-0.190821 0.248594 3.92145e-20)
(-0.267781 0.268512 -7.60973e-20)
(-0.350928 0.291725 -3.68944e-20)
(-0.437974 0.317254 0)
(-0.526341 0.342469 6.90607e-20)
(-0.614219 0.363952 6.68544e-20)
(-0.700229 0.37953 0)
(-0.783015 0.38843 6.28001e-20)
(-0.861283 0.3903 0)
(-0.934402 0.385352 5.92596e-20)
(-1.00226 0.374448 2.87513e-20)
(-1.06506 0.358817 0)
(-1.12319 0.339817 0)
(-1.17716 0.318758 0)
(-1.22744 0.296781 0)
(-1.27451 0.274811 0)
(-1.31875 0.253538 0)
(-1.36052 0.233439 4.97695e-20)
(-1.40008 0.214807 -7.34798e-20)
(-1.43765 0.197791 0)
(-1.47344 0.182428 0)
(-1.50759 0.168679 0)
(-1.54025 0.156454 6.77238e-23)
(-1.57154 0.145635 4.59742e-20)
(-1.60158 0.136088 9.08795e-20)
(-1.63046 0.127674 -8.99417e-20)
(-1.65828 0.12026 -4.44758e-20)
(-1.68512 0.11372 4.41466e-20)
(-1.71107 0.107936 -1.02196e-22)
(-1.7362 0.102802 4.32332e-20)
(-1.76057 0.098224 0)
(-1.78423 0.0941164 4.24629e-20)
(-1.80724 0.090405 -1.02817e-22)
(-1.82964 0.0870239 0)
(-1.85146 0.0839156 0)
(-1.87273 0.0810293 -4.09852e-20)
(-1.89346 0.078321 0)
(-1.91368 0.075752 0)
(-1.93339 0.0732885 3.97932e-20)
(-1.9526 0.0709013 7.90253e-20)
(-1.9713 0.0685648 -3.92222e-20)
(-1.98948 0.0662568 0)
(-2.00714 0.063958 3.84487e-20)
(-2.02426 0.0616517 0)
(-2.04083 0.0593236 3.75074e-20)
(-2.05682 0.0569614 3.72374e-20)
(-2.07221 0.0545544 -7.35101e-20)
(-2.08696 0.0520936 -3.62727e-20)
(-2.10106 0.0495712 0)
(-2.11448 0.0469807 7.09025e-20)
(-2.12717 0.0443165 0)
(-2.1391 0.041574 1.03624e-19)
(-2.15024 0.0387495 6.81005e-20)
(-2.16055 0.0358401 6.71181e-20)
(-2.16999 0.0328438 -6.61097e-20)
(-2.17852 0.0297597 9.76239e-20)
(-2.18611 0.0265885 0)
(-2.19272 0.0233319 0)
(-2.19831 0.019994 -6.17961e-20)
(-2.20285 0.0165814 -9.09496e-20)
(-2.2063 0.0131031 0)
(-2.20864 0.00957082 2.9091e-20)
(-2.20981 0.00599564 0)
(-2.20977 0.00238556 -8.34749e-20)
(-2.20845 -0.00125975 1.07341e-22)
(-2.20576 -0.00496397 -1.24227e-22)
(-2.20165 -0.00871923 5.15468e-20)
(-2.19608 -0.0125169 0)
(-2.189 -0.016348 -4.86096e-20)
(-2.18038 -0.0202037 1.91249e-22)
(-2.17017 -0.024074 0)
(-2.15835 -0.0279484 0)
(-2.14488 -0.0318158 0)
(-2.12975 -0.0356644 4.03606e-20)
(-2.11292 -0.0394816 0)
(-2.0944 -0.0432548 0)
(-2.07417 -0.0469706 0)
(-2.05222 -0.0506152 0)
(-2.02856 -0.0541747 0)
(-2.0032 -0.0576348 2.98833e-20)
(-1.97615 -0.0609809 0)
(-1.94743 -0.0641983 2.56875e-20)
(-1.91708 -0.0672724 2.37295e-20)
(-1.88513 -0.0701886 -2.17505e-20)
(-1.85163 -0.0729325 0)
(-1.81663 -0.0754902 -1.77394e-20)
(-1.78019 -0.0778481 0)
(-1.74238 -0.0799935 -1.36752e-20)
(-1.70327 -0.0819143 1.16303e-20)
(-1.66296 -0.0835995 2.96497e-20)
(-1.62153 -0.0850394 0)
(-1.57908 -0.0862259 1.73657e-20)
(-1.53573 -0.0871525 4.36362e-21)
(-1.49157 -0.0878147 0)
(-1.44674 -0.0882102 -3.18883e-22)
(-1.40135 -0.0883389 -4.34151e-21)
(-1.35553 -0.0882033 1.29553e-20)
(-1.3094 -0.0878087 0)
(-1.2631 -0.0871634 8.54238e-21)
(-1.21674 -0.0862785 1.04627e-20)
(-1.17047 -0.0851682 3.61872e-20)
(-1.12439 -0.0838495 0)
(-1.07863 -0.0823425 0)
(-1.03329 -0.0806707 0)
(-0.988466 -0.07886 1.87741e-20)
(-0.944253 -0.076939 0)
(-0.900721 -0.0749386 0)
(-0.857929 -0.0728913 -2.45956e-20)
(-0.815919 -0.0708319 -2.61867e-20)
(-0.774715 -0.0687966 0)
(-0.734319 -0.0668223 0)
(-0.694715 -0.0649468 -6.14399e-20)
(-0.655861 -0.0632078 0)
(-0.617695 -0.0616429 6.71109e-20)
(-0.580128 -0.0602894 6.91915e-20)
(-0.543047 -0.0591834 0)
(-0.506316 -0.05836 0)
(-0.46977 -0.0578525 -7.70914e-20)
(-0.433222 -0.0576929 -6.68162e-22)
(-0.396458 -0.0579105 -6.81316e-22)
(-0.359241 -0.0585322 0)
(-0.32131 -0.0595824 -1.75147e-19)
(-0.282382 -0.0610829 0)
(-0.24215 -0.063053 0)
(-0.200289 -0.0655085 0)
(-0.156457 -0.0684594 9.8471e-20)
(-0.11029 -0.0719139 0)
(-0.0614119 -0.075878 -2.06443e-19)
(-0.00943371 -0.080352 -1.0716e-19)
(0.0460373 -0.0853297 0)
(0.105424 -0.0908046 -1.12337e-19)
(0.169142 -0.0967618 0)
(0.237604 -0.103187 0)
(0.311239 -0.110064 -3.57823e-19)
(0.390473 -0.117375 2.43078e-19)
(0.475742 -0.125111 0)
(0.567486 -0.133245 2.54626e-19)
(0.666055 -0.141709 -1.31979e-19)
(0.771772 -0.150436 0)
(0.884923 -0.159351 0)
(1.00574 -0.168358 0)
(1.13438 -0.177346 -4.30914e-19)
(1.27095 -0.186189 0)
(1.41543 -0.194749 -1.51229e-19)
(1.5677 -0.202868 0)
(1.72751 -0.210374 0)
(1.89446 -0.217079 0)
(2.068 -0.222778 0)
(2.24737 -0.227252 0)
(2.43164 -0.230268 0)
(2.61963 -0.231575 -3.34972e-19)
(2.80994 -0.230901 0)
(3.0009 -0.227934 -1.72973e-19)
(3.19054 -0.22229 5.19929e-19)
(3.37654 -0.213418 0)
(3.55597 -0.200466 0)
(3.72578 -0.181573 -3.55368e-19)
(3.8806 -0.153675 -3.63198e-19)
(4.02062 -0.107803 3.66778e-19)
(4.13572 -0.0267388 3.80883e-19)
(0.0258812 -0.277927 -2.14729e-19)
(0.0579367 -0.314852 -1.8507e-19)
(0.0809776 -0.291886 -1.08737e-19)
(0.0992942 -0.258324 -4.94107e-20)
(0.112544 -0.221149 0)
(0.120818 -0.182151 8.64963e-20)
(0.124399 -0.142025 -4.15758e-20)
(0.123449 -0.101083 0)
(0.118039 -0.0594842 -3.93438e-20)
(0.108208 -0.01738 0)
(0.0939824 0.0250021 7.69021e-20)
(0.0753721 0.067324 0)
(0.052287 0.109198 3.78953e-20)
(0.0245647 0.150133 7.58145e-20)
(-0.00806199 0.189573 -7.57198e-20)
(-0.0459773 0.226983 0)
(-0.0896101 0.262016 -7.42285e-20)
(-0.139365 0.294668 0)
(-0.195557 0.325243 0)
(-0.258184 0.354505 -6.98673e-20)
(-0.326661 0.3832 0)
(-0.399794 0.411743 -9.85322e-23)
(-0.475707 0.439667 0)
(-0.552153 0.465516 0)
(-0.626976 0.487115 2.028e-22)
(-0.698576 0.502255 -5.74095e-20)
(-0.766089 0.509713 -5.58325e-20)
(-0.829072 0.509269 -5.38369e-20)
(-0.887417 0.501389 0)
(-0.941385 0.487065 -1.0171e-19)
(-0.991461 0.467625 0)
(-1.03822 0.444509 -4.82873e-20)
(-1.0822 0.419095 0)
(-1.12389 0.392591 0)
(-1.16366 0.36598 4.4949e-20)
(-1.20179 0.340014 0)
(-1.23848 0.315231 -4.31595e-20)
(-1.27385 0.291982 9.406e-23)
(-1.30799 0.270472 8.32486e-20)
(-1.34095 0.250785 -8.20017e-20)
(-1.37279 0.232922 0)
(-1.40354 0.216822 0)
(-1.43324 0.202385 -3.93151e-20)
(-1.46192 0.189485 0)
(-1.48964 0.177985 -3.83879e-20)
(-1.51643 0.167746 3.79654e-20)
(-1.54234 0.158629 3.75637e-20)
(-1.56744 0.150501 0)
(-1.59175 0.14324 -3.68103e-20)
(-1.61534 0.13673 -3.64535e-20)
(-1.63825 0.130868 7.21283e-20)
(-1.66052 0.125561 -3.57685e-20)
(-1.68218 0.120722 -3.54366e-20)
(-1.70327 0.116278 0)
(-1.72381 0.11216 0)
(-1.74383 0.10831 3.44651e-20)
(-1.76334 0.104674 0)
(-1.78235 0.101205 0)
(-1.80087 0.0978633 -6.70073e-20)
(-1.81891 0.0946119 -6.63612e-20)
(-1.83645 0.0914194 0)
(-1.8535 0.0882582 0)