/*--------------------------------*- C++ -*----------------------------------*\
  =========                 |
  \\      /  F ield         | OpenFOAM: The Open Source CFD Toolbox
   \\    /   O peration     | Website:  https://openfoam.org
    \\  /    A nd           | Version:  12
     \\/     M anipulation  |
\*---------------------------------------------------------------------------*/
FoamFile
{
    format      ascii;
    class       volScalarField;
    location    "18.28";
    object      p;
}
// * * * * * * * * * * * * * * * * * * * * * * * * * * * * * * * * * * * * * //

dimensions      [1 -1 -2 0 0 0 0];

internalField   nonuniform List<scalar> 
3829
(
-615.665
-615.665
-615.664
-615.663
-615.662
-615.66
-615.658
-615.655
-615.653
-615.649
-615.645
-615.641
-615.636
-615.631
-615.625
-615.618
-615.611
-615.603
-615.594
-615.584
-615.574
-615.563
-615.55
-615.537
-615.522
-615.506
-615.489
-615.471
-615.451
-615.43
-615.407
-615.383
-615.357
-615.33
-615.3
-615.269
-615.236
-615.201
-615.165
-615.126
-615.085
-615.043
-614.999
-614.953
-614.906
-614.858
-614.809
-614.759
-614.708
-614.657
-614.606
-614.554
-614.503
-614.453
-614.404
-614.356
-614.31
-614.267
-614.226
-614.187
-614.153
-614.122
-614.098
-614.075
-614.058
-614.045
-614.037
-614.035
-614.038
-614.047
-614.061
-614.081
-614.106
-614.135
-614.169
-614.208
-614.249
-614.294
-614.34
-614.388
-614.436
-614.483
-614.53
-614.574
-614.615
-614.651
-614.683
-614.709
-614.728
-614.74
-614.744
-614.738
-614.724
-614.701
-614.67
-614.631
-614.584
-614.532
-614.474
-614.413
-614.349
-614.283
-614.219
-614.157
-614.1
-614.048
-614.005
-613.971
-613.947
-613.935
-613.934
-613.948
-613.974
-614.012
-614.061
-614.118
-614.183
-614.253
-614.326
-614.397
-614.465
-614.526
-614.577
-614.617
-614.642
-614.652
-614.644
-614.618
-614.577
-614.521
-614.454
-614.379
-614.298
-614.218
-614.142
-614.075
-614.021
-613.984
-613.967
-613.971
-613.997
-614.044
-614.109
-614.188
-614.276
-614.368
-614.456
-614.534
-614.597
-614.639
-614.658
-614.65
-614.617
-614.563
-614.493
-614.412
-614.328
-614.25
-614.185
-614.139
-614.117
-614.124
-614.155
-614.206
-614.272
-614.345
-614.412
-614.465
-614.496
-614.501
-614.476
-614.425
-614.354
-614.271
-614.189
-614.119
-614.071
-614.052
-614.066
-614.11
-614.178
-614.261
-614.345
-614.418
-614.469
-614.49
-614.479
-614.44
-614.375
-614.306
-614.24
-614.189
-614.16
-614.158
-614.181
-614.223
-614.277
-614.33
-614.373
-614.398
-1774.05
-1774.05
-1774.05
-1774.05
-1774.05
-1774.05
-1774.05
-1774.05
-1774.04
-1774.04
-1774.04
-1774.04
-1774.03
-1774.03
-1774.02
-1774.02
-1774.01
-1774.01
-1774
-1773.99
-1773.98
-1773.97
-1773.96
-1773.95
-1773.94
-1773.92
-1773.91
-1773.89
-1773.87
-1773.85
-1773.83
-1773.81
-1773.78
-1773.75
-1773.72
-1773.69
-1773.65
-1773.62
-1773.58
-1773.54
-1773.49
-1773.45
-1773.4
-1773.35
-1773.3
-1773.25
-1773.19
-1773.13
-1773.07
-1773.02
-1772.96
-1772.9
-1772.84
-1772.78
-1772.72
-1772.67
-1772.61
-1772.56
-1772.52
-1772.47
-1772.43
-1772.4
-1772.37
-1772.34
-1772.32
-1772.31
-1772.3
-1772.3
-1772.31
-1772.32
-1772.34
-1772.37
-1772.4
-1772.44
-1772.48
-1772.53
-1772.58
-1772.64
-1772.7
-1772.76
-1772.82
-1772.88
-1772.93
-1772.99
-1773.04
-1773.09
-1773.13
-1773.16
-1773.18
-1773.2
-1773.2
-1773.2
-1773.18
-1773.15
-1773.11
-1773.07
-1773.01
-1772.95
-1772.88
-1772.8
-1772.72
-1772.64
-1772.56
-1772.49
-1772.42
-1772.35
-1772.3
-1772.26
-1772.23
-1772.22
-1772.22
-1772.24
-1772.27
-1772.31
-1772.37
-1772.45
-1772.53
-1772.61
-1772.7
-1772.79
-1772.87
-1772.95
-1773.01
-1773.06
-1773.09
-1773.1
-1773.09
-1773.06
-1773.01
-1772.94
-1772.86
-1772.77
-1772.67
-1772.57
-1772.47
-1772.39
-1772.33
-1772.28
-1772.26
-1772.26
-1772.3
-1772.35
-1772.43
-1772.53
-1772.64
-1772.75
-1772.86
-1772.95
-1773.03
-1773.08
-1773.1
-1773.08
-1773.04
-1772.98
-1772.89
-1772.79
-1772.68
-1772.59
-1772.51
-1772.46
-1772.43
-1772.44
-1772.48
-1772.55
-1772.63
-1772.72
-1772.81
-1772.87
-1772.91
-1772.92
-1772.89
-1772.83
-1772.74
-1772.64
-1772.54
-1772.46
-1772.4
-1772.37
-1772.39
-1772.45
-1772.53
-1772.63
-1772.73
-1772.82
-1772.87
-1772.9
-1772.88
-1772.84
-1772.75
-1772.67
-1772.59
-1772.53
-1772.5
-1772.5
-1772.53
-1772.58
-1772.65
-1772.71
-1772.76
-1772.79
-2800.28
-2800.28
-2800.28
-2800.28
-2800.28
-2800.28
-2800.27
-2800.27
-2800.27
-2800.27
-2800.27
-2800.26
-2800.26
-2800.26
-2800.25
-2800.25
-2800.25
-2800.24
-2800.24
-2800.23
-2800.22
-2800.22
-2800.21
-2800.2
-2800.19
-2800.18
-2800.17
-2800.15
-2800.14
-2800.12
-2800.1
-2800.08
-2800.05
-2800.03
-2800
-2799.96
-2799.93
-2799.89
-2799.84
-2799.8
-2799.75
-2799.69
-2799.64
-2799.58
-2799.51
-2799.45
-2799.38
-2799.31
-2799.24
-2799.17
-2799.09
-2799.02
-2798.94
-2798.87
-2798.8
-2798.73
-2798.66
-2798.59
-2798.53
-2798.48
-2798.43
-2798.38
-2798.35
-2798.32
-2798.29
-2798.28
-2798.27
-2798.27
-2798.29
-2798.31
-2798.33
-2798.37
-2798.42
-2798.47
-2798.53
-2798.6
-2798.67
-2798.75
-2798.83
-2798.92
-2799
-2799.08
-2799.16
-2799.24
-2799.31
-2799.37
-2799.43
-2799.47
-2799.5
-2799.53
-2799.53
-2799.52
-2799.5
-2799.47
-2799.42
-2799.35
-2799.28
-2799.19
-2799.1
-2798.99
-2798.89
-2798.78
-2798.67
-2798.57
-2798.48
-2798.4
-2798.32
-2798.27
-2798.23
-2798.21
-2798.22
-2798.24
-2798.29
-2798.35
-2798.43
-2798.53
-2798.64
-2798.76
-2798.88
-2799
-2799.11
-2799.21
-2799.29
-2799.36
-2799.4
-2799.41
-2799.4
-2799.36
-2799.29
-2799.2
-2799.08
-2798.96
-2798.82
-2798.69
-2798.56
-2798.45
-2798.36
-2798.3
-2798.27
-2798.28
-2798.33
-2798.4
-2798.51
-2798.64
-2798.78
-2798.93
-2799.07
-2799.2
-2799.3
-2799.36
-2799.38
-2799.37
-2799.31
-2799.21
-2799.09
-2798.96
-2798.82
-2798.69
-2798.59
-2798.52
-2798.49
-2798.5
-2798.56
-2798.65
-2798.76
-2798.91
-2799.02
-2799.11
-2799.16
-2799.17
-2799.13
-2799.05
-2798.93
-2798.8
-2798.67
-2798.55
-2798.48
-2798.45
-2798.47
-2798.54
-2798.65
-2798.79
-2798.92
-2799.03
-2799.1
-2799.13
-2799.11
-2799.04
-2798.93
-2798.83
-2798.73
-2798.65
-2798.61
-2798.61
-2798.65
-2798.72
-2798.81
-2798.89
-2798.95
-2798.99
-3709.33
-3709.33
-3709.33
-3709.33
-3709.33
-3709.33
-3709.33
-3709.33
-3709.33
-3709.33
-3709.33
-3709.33
-3709.33
-3709.33
-3709.33
-3709.33
-3709.34
-3709.34
-3709.34
-3709.34
-3709.34
-3709.34
-3709.34
-3709.33
-3709.33
-3709.33
-3709.32
-3709.32
-3709.31
-3709.29
-3709.28
-3709.26
-3709.24
-3709.22
-3709.19
-3709.16
-3709.12
-3709.07
-3709.03
-3708.97
-3708.92
-3708.85
-3708.79
-3708.71
-3708.64
-3708.56
-3708.47
-3708.38
-3708.29
-3708.19
-3708.1
-3708
-3707.9
-3707.81
-3707.71
-3707.62
-3707.53
-3707.45
-3707.37
-3707.29
-3707.23
-3707.17
-3707.12
-3707.08
-3707.05
-3707.04
-3707.03
-3707.04
-3707.06
-3707.09
-3707.13
-3707.19
-3707.25
-3707.33
-3707.42
-3707.52
-3707.62
-3707.73
-3707.84
-3707.96
-3708.08
-3708.19
-3708.3
-3708.41
-3708.51
-3708.59
-3708.67
-3708.73
-3708.78
-3708.81
-3708.82
-3708.81
-3708.78
-3708.73
-3708.66
-3708.57
-3708.47
-3708.35
-3708.22
-3708.08
-3707.93
-3707.79
-3707.64
-3707.5
-3707.37
-3707.26
-3707.16
-3707.09
-3707.04
-3707.02
-3707.02
-3707.06
-3707.12
-3707.21
-3707.32
-3707.46
-3707.61
-3707.77
-3707.94
-3708.1
-3708.26
-3708.4
-3708.51
-3708.6
-3708.65
-3708.67
-3708.65
-3708.59
-3708.5
-3708.37
-3708.22
-3708.04
-3707.86
-3707.67
-3707.5
-3707.35
-3707.22
-3707.14
-3707.1
-3707.11
-3707.18
-3707.28
-3707.43
-3707.61
-3707.8
-3708.01
-3708.2
-3708.37
-3708.5
-3708.58
-3708.61
-3708.58
-3708.5
-3708.36
-3708.2
-3708.01
-3707.82
-3707.64
-3707.5
-3707.41
-3707.37
-3707.4
-3707.48
-3707.62
-3707.78
-3707.97
-3708.13
-3708.26
-3708.33
-3708.35
-3708.29
-3708.18
-3708.02
-3707.83
-3707.65
-3707.5
-3707.4
-3707.36
-3707.39
-3707.49
-3707.64
-3707.82
-3708
-3708.14
-3708.24
-3708.27
-3708.23
-3708.14
-3708
-3707.85
-3707.72
-3707.63
-3707.58
-3707.58
-3707.64
-3707.73
-3707.85
-3707.95
-3708.04
-3708.09
-4514.72
-4514.72
-4514.72
-4514.72
-4514.72
-4514.72
-4514.71
-4514.71
-4514.71
-4514.7
-4514.7
-4514.7
-4514.7
-4514.7
-4514.7
-4514.7
-4514.7
-4514.71
-4514.71
-4514.72
-4514.72
-4514.73
-4514.74
-4514.75
-4514.76
-4514.76
-4514.77
-4514.78
-4514.78
-4514.78
-4514.77
-4514.77
-4514.75
-4514.74
-4514.71
-4514.68
-4514.64
-4514.6
-4514.54
-4514.48
-4514.41
-4514.33
-4514.25
-4514.16
-4514.06
-4513.95
-4513.84
-4513.73
-4513.61
-4513.48
-4513.36
-4513.23
-4513.1
-4512.97
-4512.85
-4512.73
-4512.61
-4512.5
-4512.39
-4512.3
-4512.21
-4512.13
-4512.07
-4512.02
-4511.99
-4511.97
-4511.96
-4511.97
-4512
-4512.05
-4512.11
-4512.19
-4512.28
-4512.39
-4512.51
-4512.64
-4512.79
-4512.94
-4513.09
-4513.25
-4513.41
-4513.57
-4513.73
-4513.87
-4514.01
-4514.13
-4514.23
-4514.31
-4514.38
-4514.41
-4514.43
-4514.41
-4514.37
-4514.31
-4514.21
-4514.09
-4513.95
-4513.79
-4513.62
-4513.43
-4513.23
-4513.03
-4512.83
-4512.65
-4512.47
-4512.32
-4512.19
-4512.09
-4512.02
-4511.99
-4512
-4512.05
-4512.14
-4512.26
-4512.42
-4512.6
-4512.81
-4513.03
-4513.26
-4513.48
-4513.69
-4513.88
-4514.03
-4514.15
-4514.23
-4514.25
-4514.22
-4514.14
-4514.01
-4513.83
-4513.62
-4513.39
-4513.14
-4512.89
-4512.65
-4512.45
-4512.28
-4512.17
-4512.11
-4512.13
-4512.22
-4512.37
-4512.57
-4512.81
-4513.07
-4513.34
-4513.6
-4513.83
-4514
-4514.11
-4514.14
-4514.1
-4513.98
-4513.8
-4513.56
-4513.31
-4513.05
-4512.81
-4512.62
-4512.5
-4512.46
-4512.5
-4512.62
-4512.81
-4513.04
-4513.29
-4513.51
-4513.69
-4513.79
-4513.81
-4513.74
-4513.59
-4513.37
-4513.12
-4512.87
-4512.67
-4512.53
-4512.49
-4512.53
-4512.67
-4512.87
-4513.11
-4513.34
-4513.53
-4513.65
-4513.69
-4513.63
-4513.51
-4513.32
-4513.13
-4512.95
-4512.83
-4512.77
-4512.79
-4512.87
-4512.99
-4513.14
-4513.28
-4513.39
-4513.45
-5228.13
-5228.13
-5228.13
-5228.12
-5228.12
-5228.11
-5228.1
-5228.09
-5228.09
-5228.08
-5228.08
-5228.08
-5228.07
-5228.07
-5228.07
-5228.08
-5228.08
-5228.09
-5228.1
-5228.12
-5228.14
-5228.16
-5228.18
-5228.21
-5228.24
-5228.27
-5228.3
-5228.33
-5228.35
-5228.37
-5228.39
-5228.4
-5228.4
-5228.39
-5228.38
-5228.35
-5228.31
-5228.27
-5228.21
-5228.14
-5228.06
-5227.96
-5227.86
-5227.75
-5227.62
-5227.49
-5227.34
-5227.19
-5227.04
-5226.87
-5226.71
-5226.54
-5226.37
-5226.21
-5226.04
-5225.88
-5225.73
-5225.58
-5225.45
-5225.32
-5225.21
-5225.12
-5225.03
-5224.97
-5224.93
-5224.91
-5224.9
-5224.92
-5224.96
-5225.03
-5225.11
-5225.22
-5225.34
-5225.49
-5225.65
-5225.83
-5226.02
-5226.22
-5226.43
-5226.65
-5226.86
-5227.07
-5227.28
-5227.47
-5227.65
-5227.81
-5227.94
-5228.05
-5228.14
-5228.19
-5228.2
-5228.19
-5228.13
-5228.04
-5227.92
-5227.76
-5227.58
-5227.36
-5227.13
-5226.88
-5226.62
-5226.35
-5226.09
-5225.85
-5225.62
-5225.41
-5225.24
-5225.11
-5225.03
-5224.99
-5225.01
-5225.07
-5225.19
-5225.35
-5225.56
-5225.81
-5226.08
-5226.37
-5226.68
-5226.97
-5227.25
-5227.5
-5227.7
-5227.86
-5227.95
-5227.98
-5227.94
-5227.83
-5227.66
-5227.43
-5227.15
-5226.84
-5226.5
-5226.17
-5225.86
-5225.59
-5225.38
-5225.23
-5225.16
-5225.19
-5225.3
-5225.5
-5225.76
-5226.08
-5226.43
-5226.78
-5227.12
-5227.42
-5227.64
-5227.78
-5227.82
-5227.75
-5227.59
-5227.35
-5227.04
-5226.69
-5226.35
-5226.04
-5225.79
-5225.64
-5225.59
-5225.65
-5225.82
-5226.07
-5226.38
-5226.72
-5227.01
-5227.25
-5227.39
-5227.41
-5227.31
-5227.11
-5226.82
-5226.48
-5226.16
-5225.9
-5225.72
-5225.66
-5225.73
-5225.91
-5226.18
-5226.49
-5226.79
-5227.03
-5227.18
-5227.22
-5227.15
-5226.97
-5226.73
-5226.48
-5226.26
-5226.11
-5226.04
-5226.06
-5226.17
-5226.33
-5226.52
-5226.7
-5226.84
-5226.91
-5860.26
-5860.26
-5860.25
-5860.23
-5860.21
-5860.18
-5860.15
-5860.13
-5860.1
-5860.07
-5860.05
-5860.04
-5860.03
-5860.02
-5860.02
-5860.02
-5860.02
-5860.03
-5860.05
-5860.07
-5860.11
-5860.15
-5860.2
-5860.25
-5860.31
-5860.38
-5860.44
-5860.51
-5860.57
-5860.62
-5860.67
-5860.71
-5860.73
-5860.74
-5860.74
-5860.72
-5860.68
-5860.63
-5860.56
-5860.48
-5860.38
-5860.26
-5860.13
-5859.98
-5859.82
-5859.65
-5859.47
-5859.27
-5859.07
-5858.86
-5858.65
-5858.44
-5858.22
-5858.01
-5857.8
-5857.59
-5857.39
-5857.21
-5857.03
-5856.88
-5856.73
-5856.61
-5856.51
-5856.43
-5856.38
-5856.35
-5856.35
-5856.38
-5856.43
-5856.51
-5856.63
-5856.76
-5856.93
-5857.12
-5857.33
-5857.56
-5857.81
-5858.08
-5858.35
-5858.63
-5858.9
-5859.18
-5859.44
-5859.69
-5859.92
-5860.13
-5860.3
-5860.45
-5860.55
-5860.61
-5860.63
-5860.61
-5860.54
-5860.43
-5860.27
-5860.06
-5859.82
-5859.55
-5859.25
-5858.92
-5858.59
-5858.25
-5857.91
-5857.59
-5857.3
-5857.04
-5856.82
-5856.66
-5856.55
-5856.5
-5856.52
-5856.61
-5856.76
-5856.98
-5857.25
-5857.56
-5857.92
-5858.3
-5858.69
-5859.07
-5859.42
-5859.74
-5860.01
-5860.21
-5860.33
-5860.36
-5860.31
-5860.17
-5859.94
-5859.64
-5859.28
-5858.87
-5858.45
-5858.02
-5857.63
-5857.28
-5857
-5856.82
-5856.73
-5856.77
-5856.92
-5857.17
-5857.51
-5857.91
-5858.36
-5858.82
-5859.25
-5859.63
-5859.91
-5860.08
-5860.13
-5860.04
-5859.83
-5859.51
-5859.11
-5858.66
-5858.22
-5857.82
-5857.5
-5857.31
-5857.25
-5857.34
-5857.57
-5857.9
-5858.3
-5858.73
-5859.12
-5859.42
-5859.6
-5859.63
-5859.5
-5859.24
-5858.87
-5858.43
-5858.02
-5857.68
-5857.46
-5857.39
-5857.48
-5857.72
-5858.06
-5858.46
-5858.83
-5859.14
-5859.32
-5859.36
-5859.26
-5859.03
-5858.73
-5858.41
-5858.14
-5857.95
-5857.87
-5857.91
-5858.05
-5858.25
-5858.49
-5858.71
-5858.88
-5858.97
-6420.33
-6420.32
-6420.3
-6420.26
-6420.22
-6420.17
-6420.12
-6420.07
-6420.05
-6420.02
-6419.99
-6419.95
-6419.91
-6419.86
-6419.82
-6419.79
-6419.77
-6419.77
-6419.78
-6419.81
-6419.86
-6419.93
-6420.02
-6420.11
-6420.22
-6420.34
-6420.46
-6420.57
-6420.69
-6420.79
-6420.88
-6420.95
-6421.01
-6421.05
-6421.06
-6421.05
-6421.02
-6420.96
-6420.88
-6420.77
-6420.65
-6420.5
-6420.33
-6420.15
-6419.94
-6419.73
-6419.49
-6419.25
-6419
-6418.73
-6418.47
-6418.2
-6417.93
-6417.66
-6417.39
-6417.14
-6416.89
-6416.66
-6416.44
-6416.24
-6416.07
-6415.91
-6415.79
-6415.69
-6415.63
-6415.59
-6415.6
-6415.63
-6415.7
-6415.81
-6415.95
-6416.13
-6416.34
-6416.58
-6416.85
-6417.15
-6417.46
-6417.79
-6418.14
-6418.49
-6418.83
-6419.18
-6419.51
-6419.82
-6420.11
-6420.37
-6420.59
-6420.77
-6420.9
-6420.98
-6421
-6420.97
-6420.88
-6420.74
-6420.54
-6420.28
-6419.98
-6419.63
-6419.25
-6418.85
-6418.43
-6418
-6417.58
-6417.18
-6416.82
-6416.49
-6416.22
-6416.01
-6415.88
-6415.82
-6415.85
-6415.96
-6416.16
-6416.43
-6416.77
-6417.17
-6417.61
-6418.09
-6418.58
-6419.05
-6419.5
-6419.9
-6420.23
-6420.48
-6420.63
-6420.67
-6420.6
-6420.42
-6420.13
-6419.76
-6419.3
-6418.79
-6418.26
-6417.73
-6417.23
-6416.8
-6416.46
-6416.23
-6416.14
-6416.18
-6416.36
-6416.67
-6417.1
-6417.61
-6418.17
-6418.74
-6419.28
-6419.75
-6420.1
-6420.31
-6420.36
-6420.24
-6419.97
-6419.56
-6419.06
-6418.49
-6417.94
-6417.44
-6417.05
-6416.81
-6416.75
-6416.87
-6417.15
-6417.58
-6418.09
-6418.63
-6419.12
-6419.5
-6419.72
-6419.75
-6419.6
-6419.27
-6418.8
-6418.24
-6417.73
-6417.31
-6417.04
-6416.96
-6417.08
-6417.38
-6417.81
-6418.3
-6418.76
-6419.14
-6419.36
-6419.4
-6419.26
-6418.98
-6418.6
-6418.21
-6417.88
-6417.65
-6417.56
-6417.61
-6417.79
-6418.04
-6418.33
-6418.59
-6418.8
-6418.91
-6916.72
-6916.7
-6916.65
-6916.57
-6916.47
-6916.33
-6916.17
-6915.99
-6915.85
-6915.72
-6915.58
-6915.45
-6915.33
-6915.24
-6915.16
-6915.12
-6915.1
-6915.11
-6915.15
-6915.22
-6915.31
-6915.44
-6915.59
-6915.78
-6915.99
-6916.23
-6916.48
-6916.71
-6916.96
-6917.17
-6917.34
-6917.48
-6917.56
-6917.61
-6917.63
-6917.62
-6917.57
-6917.5
-6917.39
-6917.26
-6917.1
-6916.91
-6916.7
-6916.47
-6916.22
-6915.94
-6915.66
-6915.35
-6915.04
-6914.72
-6914.39
-6914.06
-6913.72
-6913.39
-6913.07
-6912.76
-6912.45
-6912.17
-6911.9
-6911.66
-6911.45
-6911.26
-6911.11
-6911
-6910.92
-6910.88
-6910.89
-6910.93
-6911.02
-6911.16
-6911.34
-6911.56
-6911.82
-6912.11
-6912.45
-6912.81
-6913.2
-6913.6
-6914.02
-6914.45
-6914.88
-6915.3
-6915.71
-6916.1
-6916.45
-6916.76
-6917.03
-6917.25
-6917.41
-6917.51
-6917.53
-6917.5
-6917.39
-6917.2
-6916.96
-6916.64
-6916.27
-6915.85
-6915.38
-6914.88
-6914.37
-6913.85
-6913.34
-6912.85
-6912.4
-6912
-6911.67
-6911.42
-6911.26
-6911.2
-6911.23
-6911.37
-6911.61
-6911.95
-6912.36
-6912.86
-6913.4
-6913.98
-6914.58
-6915.16
-6915.71
-6916.2
-6916.6
-6916.9
-6917.08
-6917.13
-6917.04
-6916.82
-6916.47
-6916
-6915.45
-6914.82
-6914.17
-6913.52
-6912.91
-6912.39
-6911.97
-6911.7
-6911.6
-6911.64
-6911.87
-6912.25
-6912.77
-6913.4
-6914.08
-6914.78
-6915.43
-6916
-6916.43
-6916.68
-6916.73
-6916.59
-6916.24
-6915.74
-6915.12
-6914.43
-6913.75
-6913.14
-6912.67
-6912.38
-6912.31
-6912.46
-6912.82
-6913.35
-6913.98
-6914.64
-6915.24
-6915.7
-6915.97
-6916.01
-6915.82
-6915.42
-6914.85
-6914.14
-6913.53
-6913.02
-6912.7
-6912.61
-6912.76
-6913.13
-6913.65
-6914.25
-6914.81
-6915.25
-6915.51
-6915.55
-6915.38
-6915.03
-6914.57
-6914.1
-6913.71
-6913.44
-6913.34
-6913.41
-6913.63
-6913.93
-6914.27
-6914.59
-6914.83
-6914.96
-7356.83
-7356.81
-7356.76
-7356.7
-7356.63
-7356.52
-7356.43
-7356.23
-7356.44
-7356.09
-7355.84
-7355.61
-7355.4
-7355.2
-7355.04
-7354.9
-7354.8
-7354.73
-7354.72
-7354.75
-7354.83
-7354.95
-7355.13
-7355.36
-7355.62
-7355.95
-7356.4
-7356.51
-7356.89
-7357.12
-7357.33
-7357.49
-7357.61
-7357.68
-7357.71
-7357.69
-7357.63
-7357.52
-7357.39
-7357.21
-7357.01
-7356.78
-7356.52
-7356.23
-7355.92
-7355.59
-7355.24
-7354.88
-7354.5
-7354.11
-7353.71
-7353.31
-7352.91
-7352.52
-7352.13
-7351.75
-7351.39
-7351.05
-7350.73
-7350.45
-7350.19
-7349.97
-7349.79
-7349.66
-7349.57
-7349.52
-7349.53
-7349.59
-7349.7
-7349.87
-7350.08
-7350.35
-7350.66
-7351.02
-7351.42
-7351.85
-7352.32
-7352.81
-7353.32
-7353.83
-7354.34
-7354.85
-7355.34
-7355.8
-7356.22
-7356.6
-7356.92
-7357.18
-7357.37
-7357.48
-7357.51
-7357.46
-7357.33
-7357.11
-7356.81
-7356.43
-7355.99
-7355.48
-7354.92
-7354.33
-7353.71
-7353.09
-7352.47
-7351.89
-7351.36
-7350.88
-7350.49
-7350.19
-7350
-7349.93
-7349.97
-7350.14
-7350.43
-7350.83
-7351.34
-7351.93
-7352.58
-7353.28
-7353.99
-7354.69
-7355.34
-7355.92
-7356.4
-7356.76
-7356.97
-7357.03
-7356.92
-7356.65
-7356.23
-7355.67
-7355
-7354.26
-7353.47
-7352.7
-7351.98
-7351.35
-7350.86
-7350.54
-7350.41
-7350.47
-7350.74
-7351.2
-7351.83
-7352.58
-7353.4
-7354.23
-7355.01
-7355.68
-7356.18
-7356.48
-7356.54
-7356.36
-7355.94
-7355.33
-7354.59
-7353.76
-7352.94
-7352.22
-7351.66
-7351.32
-7351.24
-7351.43
-7351.87
-7352.51
-7353.27
-7354.07
-7354.78
-7355.33
-7355.65
-7355.7
-7355.46
-7354.98
-7354.32
-7353.44
-7352.71
-7352.12
-7351.75
-7351.64
-7351.83
-7352.27
-7352.89
-7353.6
-7354.26
-7354.79
-7355.09
-7355.12
-7354.9
-7354.48
-7353.94
-7353.39
-7352.93
-7352.62
-7352.51
-7352.6
-7352.86
-7353.22
-7353.62
-7353.99
-7354.27
-7354.42
-7746.93
-7746.93
-7746.91
-7746.88
-7746.83
-7746.75
-7746.64
-7746.58
-7746.6
-7745.21
-7744.47
-7743.88
-7743.41
-7743.05
-7742.78
-7742.59
-7742.48
-7742.43
-7742.44
-7742.53
-7742.68
-7742.9
-7743.22
-7743.63
-7744.18
-7744.88
-7746.08
-7746.61
-7747.08
-7747.41
-7747.63
-7747.76
-7747.83
-7747.84
-7747.8
-7747.73
-7747.62
-7747.47
-7747.29
-7747.07
-7746.82
-7746.53
-7746.22
-7745.87
-7745.5
-7745.11
-7744.69
-7744.26
-7743.81
-7743.35
-7742.89
-7742.41
-7741.94
-7741.48
-7741.02
-7740.58
-7740.16
-7739.76
-7739.39
-7739.05
-7738.75
-7738.5
-7738.29
-7738.13
-7738.03
-7737.98
-7737.99
-7738.06
-7738.2
-7738.39
-7738.65
-7738.96
-7739.33
-7739.76
-7740.23
-7740.74
-7741.29
-7741.86
-7742.46
-7743.06
-7743.67
-7744.26
-7744.83
-7745.37
-7745.87
-7746.31
-7746.69
-7746.99
-7747.21
-7747.34
-7747.38
-7747.32
-7747.16
-7746.9
-7746.55
-7746.1
-7745.57
-7744.98
-7744.32
-7743.62
-7742.9
-7742.17
-7741.45
-7740.77
-7740.14
-7739.59
-7739.13
-7738.79
-7738.57
-7738.48
-7738.54
-7738.74
-7739.08
-7739.55
-7740.15
-7740.84
-7741.61
-7742.43
-7743.26
-7744.08
-7744.84
-7745.52
-7746.08
-7746.5
-7746.75
-7746.81
-7746.68
-7746.36
-7745.86
-7745.21
-7744.42
-7743.55
-7742.62
-7741.72
-7740.87
-7740.14
-7739.57
-7739.19
-7739.04
-7739.12
-7739.44
-7739.99
-7740.72
-7741.6
-7742.56
-7743.54
-7744.45
-7745.23
-7745.82
-7746.16
-7746.22
-7746
-7745.51
-7744.79
-7743.91
-7742.94
-7741.98
-7741.13
-7740.48
-7740.09
-7740
-7740.24
-7740.76
-7741.51
-7742.41
-7743.35
-7744.18
-7744.83
-7745.2
-7745.25
-7744.97
-7744.4
-7743.64
-7742.57
-7741.75
-7741.06
-7740.62
-7740.51
-7740.74
-7741.26
-7741.99
-7742.81
-7743.58
-7744.18
-7744.52
-7744.55
-7744.29
-7743.79
-7743.16
-7742.52
-7741.99
-7741.65
-7741.53
-7741.65
-7741.95
-7742.37
-7742.83
-7743.24
-7743.56
-7743.73
-8092.4
-8092.37
-8092.31
-8092.23
-8092.1
-8091.99
-8091.74
-8091.73
-8092.76
-8092.81
-8093.1
-8093.24
-8093.37
-8093.45
-8093.47
-8093.44
-8093.35
-8093.21
-8093.03
-8092.8
-8092.53
-8092.23
-8091.89
-8091.52
-8091.11
-8090.68
-8090.22
-8089.73
-8089.23
-8088.71
-8088.18
-8087.64
-8087.09
-8086.55
-8086.01
-8085.48
-8084.98
-8084.49
-8084.03
-8083.6
-8083.22
-8082.88
-8082.58
-8082.35
-8082.17
-8082.05
-8082
-8082.01
-8082.1
-8082.26
-8082.48
-8082.78
-8083.14
-8083.57
-8084.06
-8084.61
-8085.2
-8085.83
-8086.5
-8087.18
-8087.88
-8088.58
-8089.26
-8089.92
-8090.54
-8091.11
-8091.62
-8092.05
-8092.4
-8092.65
-8092.8
-8092.84
-8092.77
-8092.59
-8092.29
-8091.88
-8091.36
-8090.75
-8090.06
-8089.31
-8088.5
-8087.67
-8086.83
-8086
-8085.22
-8084.5
-8083.86
-8083.34
-8082.94
-8082.69
-8082.59
-8082.66
-8082.9
-8083.29
-8083.84
-8084.53
-8085.33
-8086.21
-8087.16
-8088.12
-8089.06
-8089.94
-8090.72
-8091.36
-8091.84
-8092.12
-8092.19
-8092.03
-8091.66
-8091.09
-8090.33
-8089.43
-8088.43
-8087.35
-8086.31
-8085.34
-8084.5
-8083.84
-8083.41
-8083.24
-8083.34
-8083.71
-8084.35
-8085.19
-8086.2
-8087.31
-8088.43
-8089.48
-8090.37
-8091.04
-8091.43
-8091.5
-8091.24
-8090.67
-8089.83
-8088.81
-8087.69
-8086.59
-8085.62
-8084.87
-8084.42
-8084.33
-8084.61
-8085.22
-8086.1
-8087.13
-8088.21
-8089.18
-8089.92
-8090.35
-8090.39
-8090.06
-8089.41
-8088.54
-8087.29
-8086.35
-8085.57
-8085.08
-8084.95
-8085.22
-8085.82
-8086.66
-8087.61
-8088.48
-8089.16
-8089.54
-8089.57
-8089.26
-8088.68
-8087.95
-8087.23
-8086.63
-8086.25
-8086.13
-8086.27
-8086.62
-8087.09
-8087.61
-8088.08
-8088.43
-8088.62
-8398.81
-8398.79
-8398.78
-8398.75
-8398.73
-8398.73
-8398.65
-8398.75
-8400.12
-8400.01
-8400.11
-8400.08
-8400.06
-8400.01
-8399.94
-8399.83
-8399.68
-8399.49
-8399.26
-8398.98
-8398.66
-8398.31
-8397.91
-8397.48
-8397.01
-8396.51
-8395.98
-8395.43
-8394.86
-8394.26
-8393.66
-8393.04
-8392.42
-8391.8
-8391.19
-8390.6
-8390.02
-8389.47
-8388.95
-8388.47
-8388.03
-8387.65
-8387.32
-8387.05
-8386.85
-8386.72
-8386.66
-8386.68
-8386.78
-8386.96
-8387.22
-8387.56
-8387.98
-8388.47
-8389.02
-8389.64
-8390.32
-8391.03
-8391.79
-8392.57
-8393.36
-8394.15
-8394.93
-8395.67
-8396.37
-8397.02
-8397.59
-8398.08
-8398.48
-8398.76
-8398.93
-8398.97
-8398.89
-8398.68
-8398.34
-8397.87
-8397.28
-8396.59
-8395.81
-8394.95
-8394.04
-8393.09
-8392.14
-8391.21
-8390.32
-8389.5
-8388.79
-8388.19
-8387.75
-8387.46
-8387.36
-8387.44
-8387.7
-8388.16
-8388.78
-8389.56
-8390.47
-8391.47
-8392.54
-8393.63
-8394.7
-8395.69
-8396.57
-8397.3
-8397.84
-8398.15
-8398.23
-8398.05
-8397.63
-8396.97
-8396.11
-8395.09
-8393.96
-8392.73
-8391.56
-8390.46
-8389.51
-8388.77
-8388.28
-8388.09
-8388.21
-8388.64
-8389.36
-8390.32
-8391.46
-8392.72
-8393.98
-8395.17
-8396.18
-8396.94
-8397.37
-8397.44
-8397.14
-8396.48
-8395.53
-8394.37
-8393.1
-8391.86
-8390.75
-8389.91
-8389.41
-8389.31
-8389.64
-8390.34
-8391.34
-8392.52
-8393.74
-8394.84
-8395.68
-8396.15
-8396.2
-8395.82
-8395.07
-8394.09
-8392.67
-8391.62
-8390.74
-8390.18
-8390.05
-8390.35
-8391.04
-8391.99
-8393.06
-8394.05
-8394.81
-8395.22
-8395.24
-8394.88
-8394.23
-8393.41
-8392.6
-8391.93
-8391.51
-8391.38
-8391.55
-8391.94
-8392.48
-8393.05
-8393.57
-8393.96
-8394.16
-8670.3
-8670.3
-8670.29
-8670.28
-8670.26
-8670.26
-8670.21
-8670.26
-8671.77
-8671.68
-8671.75
-8671.72
-8671.68
-8671.6
-8671.49
-8671.33
-8671.14
-8670.9
-8670.62
-8670.3
-8669.93
-8669.52
-8669.06
-8668.57
-8668.04
-8667.48
-8666.89
-8666.26
-8665.62
-8664.95
-8664.27
-8663.58
-8662.89
-8662.2
-8661.52
-8660.85
-8660.21
-8659.59
-8659.01
-8658.47
-8657.99
-8657.56
-8657.19
-8656.89
-8656.67
-8656.53
-8656.47
-8656.49
-8656.61
-8656.81
-8657.1
-8657.48
-8657.95
-8658.5
-8659.13
-8659.82
-8660.57
-8661.38
-8662.22
-8663.1
-8663.98
-8664.86
-8665.73
-8666.56
-8667.35
-8668.07
-8668.71
-8669.26
-8669.69
-8670.01
-8670.2
-8670.25
-8670.15
-8669.91
-8669.52
-8669
-8668.35
-8667.57
-8666.7
-8665.74
-8664.71
-8663.66
-8662.59
-8661.55
-8660.56
-8659.65
-8658.85
-8658.19
-8657.69
-8657.38
-8657.26
-8657.35
-8657.65
-8658.16
-8658.86
-8659.74
-8660.75
-8661.88
-8663.07
-8664.29
-8665.48
-8666.59
-8667.57
-8668.38
-8668.98
-8669.33
-8669.41
-8669.21
-8668.73
-8668
-8667.04
-8665.89
-8664.63
-8663.26
-8661.95
-8660.72
-8659.66
-8658.83
-8658.29
-8658.08
-8658.22
-8658.7
-8659.51
-8660.59
-8661.87
-8663.27
-8664.68
-8666
-8667.13
-8667.97
-8668.45
-8668.52
-8668.18
-8667.44
-8666.37
-8665.07
-8663.65
-8662.26
-8661.03
-8660.08
-8659.53
-8659.43
-8659.8
-8660.6
-8661.72
-8663.04
-8664.41
-8665.63
-8666.57
-8667.1
-8667.14
-8666.71
-8665.86
-8664.76
-8663.2
-8662.03
-8661.04
-8660.43
-8660.28
-8660.63
-8661.4
-8662.47
-8663.66
-8664.75
-8665.59
-8666.04
-8666.05
-8665.64
-8664.91
-8664
-8663.1
-8662.36
-8661.9
-8661.78
-8661.97
-8662.41
-8663.01
-8663.64
-8664.2
-8664.62
-8664.84
-8910.84
-8910.84
-8910.83
-8910.83
-8910.82
-8910.82
-8910.79
-8910.82
-8912.59
-8912.49
-8912.51
-8912.45
-8912.38
-8912.26
-8912.11
-8911.92
-8911.68
-8911.4
-8911.08
-8910.71
-8910.29
-8909.83
-8909.32
-8908.77
-8908.18
-8907.56
-8906.9
-8906.21
-8905.49
-8904.76
-8904
-8903.24
-8902.48
-8901.71
-8900.96
-8900.22
-8899.51
-8898.83
-8898.2
-8897.61
-8897.07
-8896.6
-8896.19
-8895.87
-8895.62
-8895.47
-8895.4
-8895.43
-8895.56
-8895.79
-8896.11
-8896.54
-8897.06
-8897.66
-8898.36
-8899.12
-8899.96
-8900.85
-8901.78
-8902.74
-8903.72
-8904.7
-8905.65
-8906.57
-8907.44
-8908.23
-8908.94
-8909.54
-8910.02
-8910.37
-8910.57
-8910.62
-8910.52
-8910.25
-8909.82
-8909.24
-8908.52
-8907.66
-8906.69
-8905.63
-8904.5
-8903.34
-8902.16
-8901.01
-8899.92
-8898.92
-8898.04
-8897.31
-8896.76
-8896.42
-8896.29
-8896.4
-8896.73
-8897.3
-8898.07
-8899.04
-8900.16
-8901.4
-8902.72
-8904.06
-8905.37
-8906.6
-8907.68
-8908.57
-8909.23
-8909.61
-8909.7
-8909.48
-8908.95
-8908.13
-8907.07
-8905.81
-8904.41
-8902.9
-8901.45
-8900.11
-8898.94
-8898.03
-8897.43
-8897.2
-8897.36
-8897.9
-8898.79
-8899.98
-8901.39
-8902.94
-8904.49
-8905.95
-8907.19
-8908.11
-8908.63
-8908.71
-8908.32
-8907.5
-8906.32
-8904.88
-8903.31
-8901.78
-8900.42
-8899.38
-8898.78
-8898.68
-8899.09
-8899.98
-8901.22
-8902.69
-8904.2
-8905.55
-8906.58
-8907.16
-8907.2
-8906.71
-8905.77
-8904.55
-8902.86
-8901.56
-8900.47
-8899.8
-8899.65
-8900.04
-8900.89
-8902.07
-8903.37
-8904.57
-8905.49
-8905.98
-8905.97
-8905.51
-8904.7
-8903.7
-8902.72
-8901.92
-8901.43
-8901.3
-8901.52
-8902.01
-8902.66
-8903.34
-8903.95
-8904.4
-8904.64
-9123.94
-9123.94
-9123.93
-9123.93
-9123.92
-9123.92
-9123.91
-9123.93
-9125.94
-9125.85
-9125.84
-9125.76
-9125.65
-9125.51
-9125.33
-9125.1
-9124.83
-9124.51
-9124.15
-9123.73
-9123.27
-9122.76
-9122.2
-9121.6
-9120.95
-9120.26
-9119.54
-9118.78
-9118
-9117.2
-9116.38
-9115.54
-9114.71
-9113.87
-9113.05
-9112.25
-9111.47
-9110.73
-9110.04
-9109.39
-9108.81
-9108.3
-9107.86
-9107.51
-9107.24
-9107.07
-9107.01
-9107.04
-9107.18
-9107.43
-9107.79
-9108.25
-9108.82
-9109.49
-9110.24
-9111.08
-9112
-9112.97
-9113.99
-9115.04
-9116.11
-9117.17
-9118.21
-9119.22
-9120.16
-9121.03
-9121.8
-9122.45
-9122.98
-9123.35
-9123.57
-9123.63
-9123.51
-9123.21
-9122.74
-9122.11
-9121.32
-9120.38
-9119.32
-9118.17
-9116.94
-9115.66
-9114.38
-9113.13
-9111.93
-9110.84
-9109.88
-9109.09
-9108.5
-9108.12
-9107.99
-9108.11
-9108.48
-9109.09
-9109.94
-9111
-9112.22
-9113.58
-9115.02
-9116.48
-9117.91
-9119.25
-9120.43
-9121.4
-9122.11
-9122.53
-9122.62
-9122.37
-9121.79
-9120.9
-9119.73
-9118.36
-9116.83
-9115.18
-9113.61
-9112.14
-9110.87
-9109.88
-9109.23
-9108.98
-9109.16
-9109.75
-9110.72
-9112.03
-9113.57
-9115.25
-9116.95
-9118.53
-9119.88
-9120.88
-9121.45
-9121.53
-9121.1
-9120.2
-9118.91
-9117.33
-9115.62
-9113.94
-9112.47
-9111.34
-9110.69
-9110.58
-9111.04
-9112.01
-9113.38
-9114.98
-9116.63
-9118.1
-9119.23
-9119.85
-9119.89
-9119.35
-9118.31
-9116.96
-9115.17
-9113.74
-9112.55
-9111.82
-9111.66
-9112.09
-9113.03
-9114.31
-9115.73
-9117.03
-9118.02
-9118.55
-9118.53
-9118.02
-9117.13
-9116.05
-9114.99
-9114.12
-9113.6
-9113.47
-9113.71
-9114.25
-9114.95
-9115.69
-9116.34
-9116.82
-9117.08
-9312.72
-9312.72
-9312.72
-9312.71
-9312.71
-9312.71
-9312.7
-9312.71
-9314.97
-9314.87
-9314.85
-9314.75
-9314.63
-9314.46
-9314.26
-9314
-9313.7
-9313.35
-9312.94
-9312.49
-9311.98
-9311.42
-9310.81
-9310.16
-9309.46
-9308.71
-9307.93
-9307.11
-9306.27
-9305.4
-9304.51
-9303.61
-9302.7
-9301.8
-9300.92
-9300.05
-9299.21
-9298.41
-9297.66
-9296.97
-9296.34
-9295.79
-9295.32
-9294.93
-9294.65
-9294.47
-9294.4
-9294.44
-9294.6
-9294.87
-9295.26
-9295.76
-9296.38
-9297.1
-9297.92
-9298.83
-9299.81
-9300.87
-9301.97
-9303.1
-9304.26
-9305.41
-9306.53
-9307.62
-9308.64
-9309.57
-9310.4
-9311.11
-9311.67
-9312.08
-9312.31
-9312.37
-9312.24
-9311.92
-9311.41
-9310.72
-9309.86
-9308.85
-9307.71
-9306.46
-9305.13
-9303.75
-9302.37
-9301.01
-9299.72
-9298.54
-9297.51
-9296.66
-9296.02
-9295.62
-9295.47
-9295.6
-9296.01
-9296.67
-9297.59
-9298.73
-9300.06
-9301.53
-9303.08
-9304.66
-9306.2
-9307.65
-9308.92
-9309.97
-9310.74
-9311.18
-9311.28
-9311.01
-9310.38
-9309.41
-9308.15
-9306.66
-9305.02
-9303.23
-9301.54
-9299.95
-9298.58
-9297.51
-9296.82
-9296.55
-9296.74
-9297.38
-9298.44
-9299.85
-9301.52
-9303.34
-9305.17
-9306.87
-9308.33
-9309.41
-9310.01
-9310.09
-9309.63
-9308.65
-9307.25
-9305.54
-9303.69
-9301.88
-9300.29
-9299.07
-9298.37
-9298.26
-9298.77
-9299.82
-9301.31
-9303.04
-9304.82
-9306.41
-9307.63
-9308.3
-9308.33
-9307.74
-9306.6
-9305.12
-9303.25
-9301.69
-9300.41
-9299.62
-9299.45
-9299.93
-9300.95
-9302.33
-9303.86
-9305.26
-9306.32
-9306.87
-9306.85
-9306.29
-9305.33
-9304.16
-9303.02
-9302.09
-9301.54
-9301.41
-9301.68
-9302.26
-9303.01
-9303.8
-9304.5
-9305
-9305.27
-9479.96
-9479.96
-9479.95
-9479.95
-9479.94
-9479.95
-9479.93
-9479.94
-9482.45
-9482.35
-9482.31
-9482.21
-9482.07
-9481.88
-9481.65
-9481.38
-9481.05