/*--------------------------------*- C++ -*----------------------------------*\
  =========                 |
  \\      /  F ield         | OpenFOAM: The Open Source CFD Toolbox
   \\    /   O peration     | Website:  https://openfoam.org
    \\  /    A nd           | Version:  12
     \\/     M anipulation  |
\*---------------------------------------------------------------------------*/
FoamFile
{
    format      ascii;
    class       volScalarField;
    location    "18.28";
    object      p_rgh;
}
// * * * * * * * * * * * * * * * * * * * * * * * * * * * * * * * * * * * * * //

dimensions      [1 -1 -2 0 0 0 0];

internalField   nonuniform List<scalar> 
3829
(
-1.42657
-1.42625
-1.42561
-1.42463
-1.42329
-1.42158
-1.4195
-1.417
-1.41409
-1.41074
-1.40691
-1.40259
-1.39775
-1.39235
-1.38635
-1.37973
-1.37243
-1.36441
-1.35562
-1.34602
-1.33554
-1.32412
-1.31172
-1.29826
-1.28368
-1.26791
-1.25089
-1.23254
-1.21281
-1.19162
-1.16892
-1.14464
-1.11872
-1.09112
-1.06179
-1.03071
-0.997862
-0.962947
-0.926071
-0.887293
-0.846683
-0.804336
-0.760364
-0.714892
-0.668044
-0.619958
-0.570783
-0.520701
-0.469919
-0.418675
-0.36723
-0.315872
-0.264912
-0.21468
-0.165528
-0.117814
-0.0719209
-0.0282336
0.0128626
0.0509848
0.0857707
0.116857
0.140654
0.163079
0.1808
0.193526
0.201065
0.203267
0.200028
0.191309
0.17697
0.15729
0.132537
0.103002
0.0690172
0.0307788
-0.0108377
-0.0551472
-0.10152
-0.149171
-0.197294
-0.245008
-0.291379
-0.335465
-0.376314
-0.412997
-0.444615
-0.470338
-0.489435
-0.501276
-0.505397
-0.499863
-0.485456
-0.462435
-0.431173
-0.392171
-0.346056
-0.293646
-0.235984
-0.174318
-0.110111
-0.0449545
0.0194344
0.0812673
0.138749
0.190099
0.233653
0.267914
0.291623
0.303847
0.303953
0.290435
0.264274
0.226374
0.177864
0.120161
0.0552122
-0.0147074
-0.0872467
-0.158657
-0.226388
-0.287453
-0.339002
-0.378534
-0.403991
-0.413897
-0.405375
-0.379818
-0.338474
-0.283051
-0.215962
-0.14045
-0.0594466
0.0208979
0.0968472
0.163858
0.217586
0.25438
0.271528
0.267566
0.241176
0.19423
0.129388
0.0504443
-0.0377233
-0.129708
-0.217453
-0.295567
-0.358177
-0.400523
-0.41944
-0.41136
-0.378855
-0.324964
-0.25443
-0.173254
-0.0894418
-0.011432
0.0536514
0.0993478
0.121318
0.114924
0.0839268
0.0322766
-0.0337264
-0.106708
-0.173674
-0.226584
-0.257879
-0.262546
-0.237262
-0.186246
-0.115386
-0.032561
0.0492393
0.119131
0.167256
0.186211
0.17245
0.128866
0.0602114
-0.0225292
-0.10635
-0.179427
-0.230743
-0.251477
-0.241016
-0.201539
-0.13619
-0.0670978
-0.0015267
0.0497794
0.0782554
0.0806235
0.0575055
0.0151706
-0.038101
-0.0916468
-0.134925
-0.159182
-1.44562
-1.44538
-1.4449
-1.44416
-1.44315
-1.44188
-1.44032
-1.43846
-1.43629
-1.43379
-1.43094
-1.4277
-1.42407
-1.41996
-1.41536
-1.41022
-1.40449
-1.39811
-1.39101
-1.38314
-1.37441
-1.36475
-1.35409
-1.34233
-1.32939
-1.31518
-1.2996
-1.28257
-1.26397
-1.24372
-1.22169
-1.1978
-1.17193
-1.144
-1.11389
-1.08151
-1.04675
-1.00985
-0.970859
-0.929666
-0.886238
-0.840573
-0.792703
-0.742704
-0.690706
-0.636886
-0.581457
-0.524661
-0.466771
-0.40809
-0.348951
-0.289718
-0.230785
-0.172569
-0.115513
-0.0600749
-0.00674227
0.0439983
0.0916074
0.135447
0.175355
0.210736
0.241103
0.266168
0.285561
0.298971
0.306159
0.306979
0.30138
0.287974
0.268051
0.241772
0.209384
0.171196
0.127627
0.0792441
0.026681
-0.0295445
-0.0880479
-0.148017
-0.208489
-0.268376
-0.326535
-0.381794
-0.43298
-0.478949
-0.518586
-0.550873
-0.574901
-0.589853
-0.595153
-0.588733
-0.571611
-0.543996
-0.506222
-0.45882
-0.402547
-0.338458
-0.267867
-0.192333
-0.113671
-0.033852
0.0449947
0.120668
0.190941
0.253625
0.306661
0.348194
0.376637
0.390753
0.389823
0.372795
0.340424
0.29356
0.233497
0.162126
0.0818226
-0.00454016
-0.0941699
-0.182169
-0.265542
-0.340594
-0.403813
-0.452091
-0.482837
-0.494195
-0.483719
-0.452532
-0.401825
-0.333603
-0.250894
-0.157774
-0.0583236
0.0406906
0.134261
0.216816
0.283024
0.328369
0.349403
0.344039
0.311732
0.25423
0.174777
0.0782508
-0.0294202
-0.141352
-0.24784
-0.342236
-0.417284
-0.46712
-0.487746
-0.476384
-0.435127
-0.367556
-0.279751
-0.179229
-0.0761947
0.0191563
0.0979364
0.15213
0.176313
0.167013
0.127173
0.0617659
-0.0215359
-0.116529
-0.200451
-0.266482
-0.305616
-0.311616
-0.281785
-0.219868
-0.133331
-0.0319108
0.0678526
0.152925
0.2111
0.233333
0.216368
0.16306
0.0797193
-0.0202346
-0.120585
-0.207196
-0.266823
-0.290366
-0.276799
-0.231071
-0.14265
-0.0631454
0.0138654
0.0735888
0.106155
0.107177
0.0779121
0.0263436
-0.0378222
-0.101757
-0.153145
-0.181852
-1.51234
-1.51197
-1.51126
-1.51013
-1.50893
-1.50758
-1.50604
-1.5043
-1.50235
-1.50018
-1.4978
-1.49513
-1.4922
-1.48901
-1.48553
-1.48172
-1.47755
-1.47297
-1.46791
-1.46232
-1.4561
-1.44916
-1.44139
-1.43268
-1.42287
-1.41183
-1.39938
-1.38537
-1.3696
-1.3519
-1.33207
-1.30994
-1.28533
-1.25806
-1.22799
-1.19502
-1.15921
-1.1195
-1.07596
-1.02882
-0.978281
-0.92451
-0.867633
-0.807773
-0.745061
-0.679679
-0.611859
-0.541897
-0.470149
-0.397022
-0.322971
-0.248495
-0.174146
-0.100516
-0.0282215
0.0420846
0.109772
0.174154
0.234416
0.290036
0.340362
0.384726
0.422488
0.45308
0.475989
0.490748
0.49695
0.494262
0.482427
0.46244
0.433633
0.396061
0.350034
0.296057
0.234803
0.167078
0.0938071
0.0159684
-0.0651855
-0.148197
-0.231749
-0.31437
-0.394501
-0.47056
-0.540965
-0.604167
-0.658663
-0.703074
-0.736123
-0.756829
-0.764335
-0.756122
-0.73364
-0.69706
-0.646716
-0.583276
-0.50777
-0.421666
-0.326761
-0.225187
-0.119415
-0.0121209
0.093779
0.195324
0.289482
0.373298
0.443947
0.498972
0.536225
0.553989
0.551052
0.527164
0.482721
0.418651
0.336704
0.239523
0.130425
0.013254
-0.108431
-0.227432
-0.340007
-0.44114
-0.526078
-0.590595
-0.63116
-0.645356
-0.630888
-0.588667
-0.520009
-0.427595
-0.315583
-0.189538
-0.0551861
0.0785843
0.204908
0.316338
0.405722
0.46695
0.495118
0.486897
0.442874
0.365188
0.258148
0.128551
-0.0154734
-0.164383
-0.305821
-0.43045
-0.528541
-0.592177
-0.61593
-0.597745
-0.539365
-0.445689
-0.325286
-0.18857
-0.0494799
0.0782393
0.182437
0.252326
0.28068
0.264815
0.20755
0.116636
0.00490896
-0.140632
-0.251873
-0.341699
-0.395562
-0.404198
-0.365256
-0.282503
-0.166355
-0.0300864
0.103197
0.21634
0.292854
0.321011
0.297361
0.225534
0.114699
-0.0172248
-0.148066
-0.259411
-0.33395
-0.36127
-0.339437
-0.274717
-0.162918
-0.057164
0.0425188
0.117955
0.15735
0.155454
0.114686
0.046061
-0.0378674
-0.120507
-0.186382
-0.22301
-1.52376
-1.52385
-1.52404
-1.5244
-1.52457
-1.52466
-1.52472
-1.52479
-1.52491
-1.5253
-1.52559
-1.52586
-1.52618
-1.52655
-1.527
-1.52749
-1.52802
-1.52853
-1.52895
-1.52922
-1.52924
-1.52888
-1.528
-1.5264
-1.52386
-1.52016
-1.51501
-1.50812
-1.49916
-1.48778
-1.47362
-1.4563
-1.43545
-1.41069
-1.38165
-1.34791
-1.30895
-1.26622
-1.219
-1.16692
-1.10973
-1.0473
-0.979696
-0.907069
-0.829694
-0.747927
-0.662189
-0.572955
-0.480766
-0.386229
-0.290017
-0.192867
-0.0955675
0.00106086
0.0961119
0.187694
0.27674
0.361428
0.440718
0.513657
0.579336
0.636854
0.685352
0.724055
0.752275
0.769398
0.774931
0.768306
0.749344
0.718008
0.674559
0.619289
0.552671
0.475336
0.388138
0.29218
0.18874
0.0792655
-0.0346405
-0.15103
-0.268009
-0.383538
-0.495456
-0.601558
-0.699674
-0.787657
-0.863461
-0.925185
-0.971106
-0.999853
-1.01027
-0.999341
-0.968988
-0.919213
-0.850398
-0.763452
-0.65986
-0.541673
-0.411386
-0.271964
-0.126816
0.020413
0.165537
0.304522
0.433236
0.547573
0.643698
0.718079
0.767822
0.790676
0.785212
0.751099
0.688641
0.599144
0.485156
0.350332
0.199299
0.0374129
-0.130576
-0.29451
-0.449348
-0.588157
-0.704406
-0.792304
-0.846983
-0.865113
-0.844632
-0.785941
-0.690828
-0.563066
-0.408518
-0.234886
-0.0495155
0.134272
0.307695
0.460547
0.583178
0.667428
0.7069
0.693315
0.631434
0.523963
0.376927
0.199448
0.00262245
-0.199763
-0.391533
-0.559531
-0.69048
-0.773705
-0.801859
-0.773043
-0.688973
-0.556883
-0.388886
-0.199388
-0.00807067
0.166501
0.307312
0.399564
0.433362
0.40669
0.322248
0.190981
0.029085
-0.164267
-0.323733
-0.450666
-0.52652
-0.53928
-0.486517
-0.373128
-0.213849
-0.0264504
0.155122
0.308346
0.410786
0.447
0.412838
0.313808
0.163164
-0.0147178
-0.189021
-0.335322
-0.430529
-0.46198
-0.427086
-0.334446
-0.190636
-0.0472979
0.084557
0.181922
0.229996
0.223247
0.165758
0.0728129
-0.03879
-0.147387
-0.233219
-0.280718
-1.62661
-1.62624
-1.6255
-1.6243
-1.62257
-1.6203
-1.61763
-1.61466
-1.61166
-1.60849
-1.60601
-1.60418
-1.60308
-1.60276
-1.60331
-1.6048
-1.60732
-1.61088
-1.61551
-1.62123
-1.62795
-1.6355
-1.64365
-1.65208
-1.66043
-1.66821
-1.67495
-1.68003
-1.68288
-1.6828
-1.67914
-1.67121
-1.65835
-1.63997
-1.61562
-1.58537
-1.54685
-1.50023
-1.44603
-1.38435
-1.31514
-1.2384
-1.1542
-1.06275
-0.964385
-0.859572
-0.748874
-0.632974
-0.512662
-0.388812
-0.262378
-0.134402
-0.00600535
0.12166
0.247331
0.368825
0.486583
0.598451
0.703092
0.799178
0.885433
0.960622
1.0236
1.07329
1.10878
1.12934
1.13451
1.12415
1.09348
1.04751
0.985447
0.907408
0.814018
0.706182
0.585062
0.452171
0.309249
0.158272
0.00145182
-0.158611
-0.319274
-0.477748
-0.631104
-0.776342
-0.910497
-1.03066
-1.13401
-1.21797
-1.28023
-1.31888
-1.33228
-1.31804
-1.27738
-1.21014
-1.11687
-0.998885
-0.858293
-0.697911
-0.52117
-0.332083
-0.135314
0.0642888
0.260738
0.448675
0.622501
0.776598
0.90582
1.00553
1.07163
1.10103
1.09156
1.04356
0.957067
0.833907
0.677681
0.493365
0.287306
0.0667451
-0.1614
-0.384118
-0.594149
-0.782073
-0.939071
-1.05727
-1.13012
-1.15297
-1.12427
-1.04358
-0.913416
-0.73906
-0.528613
-0.292626
-0.0410757
0.207941
0.442555
0.648956
0.814333
0.928044
0.982323
0.960871
0.875287
0.728716
0.529275
0.289348
0.0238171
-0.248346
-0.505658
-0.730053
-0.903542
-1.01161
-1.0449
-1.00122
-0.882667
-0.699671
-0.46888
-0.209968
0.0497194
0.28533
0.473577
0.594505
0.635001
0.59268
0.471345
0.286176
0.0585825
-0.197001
-0.419014
-0.594427
-0.698935
-0.716735
-0.645241
-0.491316
-0.275013
-0.020442
0.2242
0.429025
0.564361
0.610192
0.561303
0.426169
0.223503
-0.0139653
-0.244255
-0.435021
-0.55604
-0.591276
-0.538541
-0.410108
-0.222416
-0.0318709
0.140453
0.264886
0.322875
0.3089
0.229487
0.105346
-0.0411507
-0.182092
-0.292623
-0.353513
-1.66081
-1.65875
-1.65481
-1.64926
-1.64258
-1.63523
-1.62786
-1.62096
-1.61497
-1.60988
-1.60554
-1.60186
-1.5993
-1.59825
-1.59913
-1.6023
-1.6081
-1.61681
-1.62873
-1.64401
-1.66266
-1.68455
-1.70942
-1.73663
-1.76546
-1.79497
-1.82418
-1.85189
-1.87713
-1.89851
-1.91482
-1.92462
-1.92671
-1.91981
-1.90266
-1.87572
-1.84002
-1.79372
-1.73584
-1.66603
-1.58435
-1.49104
-1.38651
-1.27131
-1.14608
-1.01159
-0.868751
-0.718568
-0.562165
-0.400794
-0.235811
-0.068671
0.0990526
0.265693
0.429754
0.589478
0.743169
0.889001
1.02515
1.14988
1.26152
1.35835
1.43882
1.50149
1.54504
1.56828
1.57023
1.54982
1.51046
1.44841
1.3642
1.25848
1.13229
0.986912
0.823966
0.645494
0.453847
0.251675
0.0419784
-0.171915
-0.386322
-0.597636
-0.801906
-0.995201
-1.17354
-1.33306
-1.47004
-1.58101
-1.66293
-1.71319
-1.7296
-1.71138
-1.6578
-1.56869
-1.44489
-1.28833
-1.10186
-0.889238
-0.655071
-0.404792
-0.14468
0.120374
0.379638
0.627633
0.856752
1.05963
1.22925
1.35957
1.44539
1.48259
1.46827
1.40279
1.28623
1.12124
0.9127
0.66722
0.393268
0.100393
-0.201761
-0.496681
-0.77446
-1.02263
-1.22952
-1.38464
-1.47951
-1.50794
-1.46849
-1.36011
-1.18624
-0.954137
-0.674618
-0.361678
-0.0292054
0.299933
0.60938
0.880861
1.09757
1.24598
1.31739
1.2861
1.17175
0.977379
0.71355
0.396702
0.046887
-0.310819
-0.648318
-0.941576
-1.16687
-1.30509
-1.34389
-1.2806
-1.11867
-0.872273
-0.563674
-0.218869
0.124969
0.435452
0.681634
0.837117
0.884889
0.822037
0.654187
0.402132
0.0943904
-0.241583
-0.539065
-0.773353
-0.912377
-0.936045
-0.840615
-0.6365
-0.349857
-0.0106083
0.31102
0.578126
0.752556
0.809058
0.740968
0.560823
0.29411
-0.0160544
-0.314127
-0.558119
-0.709303
-0.747601
-0.671933
-0.499508
-0.257024
-0.0099552
0.210293
0.366056
0.434541
0.410678
0.304215
0.142474
-0.0454063
-0.224262
-0.363485
-0.439823
-1.82848
-1.82271
-1.8114
-1.79473
-1.77339
-1.74805
-1.72037
-1.69152
-1.66411
-1.63967
-1.62031
-1.60475
-1.59321
-1.5855
-1.58165
-1.58188
-1.58688
-1.59763
-1.6152
-1.64052
-1.67403
-1.71542
-1.76419
-1.81929
-1.87954
-1.94307
-2.00797
-2.07173
-2.1328
-2.18818
-2.23544
-2.27216
-2.29693
-2.30936
-2.30594
-2.28598
-2.25012
-2.19803
-2.12948
-2.04445
-1.94318
-1.82609
-1.69381
-1.54716
-1.38708
-1.21472
-1.03132
-0.838283
-0.637152
-0.429565
-0.217303
-0.00226222
0.21357
0.426038
0.63702
0.842168
1.03918
1.2258
1.39977
1.55883
1.70077
1.82348
1.925
2.00349
2.05732
2.08508
2.08554
2.05795
2.00328
1.92005
1.80849
1.6694
1.50405
1.31408
1.10158
0.86921
0.620025
0.35744
0.0853885
-0.19196
-0.469678
-0.743156
-1.00729
-1.25702
-1.48719
-1.69287
-1.86919
-2.01171
-2.11648
-2.1801
-2.19984
-2.17645
-2.10703
-1.99157
-1.83129
-1.62883
-1.38787
-1.11331
-0.811126
-0.48832
-0.152906
0.187199
0.521034
0.83991
1.13406
1.39417
1.61129
1.77736
1.88583
1.93156
1.91153
1.82483
1.67235
1.45773
1.18725
0.869457
0.51533
0.137269
-0.251868
-0.631722
-0.98906
-1.30786
-1.5731
-1.77135
-1.89176
-1.92652
-1.87365
-1.73198
-1.50617
-1.20567
-0.84459
-0.440864
-0.0130235
0.410245
0.8073
1.15455
1.43007
1.6163
1.70248
1.66345
1.5169
1.26693
0.927481
0.520124
0.0707422
-0.387407
-0.818799
-1.19237
-1.47779
-1.65074
-1.69524
-1.60799
-1.39403
-1.07211
-0.671273
-0.225135
0.21789
0.616339
0.930043
1.12539
1.18103
1.09246
0.868661
0.536998
0.134669
-0.297695
-0.683564
-0.986459
-1.16513
-1.19474
-1.07047
-0.807169
-0.437247
0.00380204
0.415521
0.754316
0.973186
1.04094
0.949208
0.71548
0.373258
-0.0217924
-0.398427
-0.703501
-0.888465
-0.928606
-0.82476
-0.600311
-0.293259
0.0189484
0.293574
0.484033
0.563086
0.526488
0.388136
0.182985
-0.0519107
-0.273305
-0.444435
-0.537855
-2.06699
-2.05527
-2.03184
-1.99725
-1.95306
-1.90185
-1.85006
-1.80546
-1.78033
-1.75632
-1.72377
-1.68389
-1.63993
-1.59602
-1.55667
-1.52612
-1.50779
-1.50423
-1.51728
-1.54806
-1.59742
-1.66502
-1.74912
-1.84716
-1.95664
-2.07338
-2.19295
-2.30537
-2.41977
-2.52521
-2.61678
-2.68881
-2.74489
-2.77906
-2.79293
-2.78324
-2.74928
-2.69127
-2.60974
-2.50542
-2.37915
-2.23195
-2.06498
-1.87952
-1.67699
-1.45897
-1.22714
-0.983336
-0.729567
-0.467943
-0.200689
0.0697396
0.339796
0.608684
0.872955
1.12977
1.37619
1.60934
1.82637
2.02445
2.20089
2.353
2.47834
2.57467
2.63996
2.6725
2.67102
2.6343
2.5622
2.45447
2.31144
2.13402
1.92379
1.68281
1.41371
1.11983
0.805045
0.473692
0.130723
-0.219047
-0.568702
-0.912749
-1.24484
-1.55856
-1.84747
-2.1054
-2.32624
-2.50443
-2.63501
-2.71368
-2.73701
-2.70706
-2.61888
-2.47275
-2.27046
-2.01532
-1.71198
-1.36667
-0.986938
-0.581542
-0.160525
0.265382
0.683716
1.08294
1.45087
1.77566
2.04633
2.25294
2.38705
2.44235
2.41457
2.30327
2.10955
1.83809
1.49687
1.09664
0.651238
0.176393
-0.311474
-0.78775
-1.23526
-1.63398
-1.96507
-2.21195
-2.36098
-2.40254
-2.33371
-2.15356
-1.8682
-1.48968
-1.03573
-0.528879
0.0079971
0.538068
1.03427
1.46689
1.80808
2.0344
2.12844
2.08823
1.90653
1.59322
1.16757
0.657351
0.0948443
-0.477189
-1.0151
-1.47943
-1.83228
-2.04363
-2.09406
-1.97833
-1.70436
-1.2959
-0.789813
-0.22765
0.327878
0.82584
1.21578
1.45563
1.51902
1.39993
1.11138
0.68829
0.17802
-0.364954
-0.850841
-1.23086
-1.45376
-1.48886
-1.33115
-1.00097
-0.538211
0.0257687
0.537033
0.955079
1.22296
1.30213
1.18246
0.887082
0.459116
-0.0317505
-0.496442
-0.86922
-1.09073
-1.13112
-0.993994
-0.710095
-0.329895
0.0548952
0.389244
0.616872
0.706083
0.653856
0.479218
0.225672
-0.0608497
-0.328379
-0.533777
-0.645429
-2.51952
-2.49576
-2.44695
-2.37128
-2.26726
-2.13253
-1.97132
-1.78483
-1.64846
-1.51432
-1.37937
-1.24857
-1.13141
-1.03526
-0.964049
-0.919583
-0.902445
-0.912616
-0.949917
-1.0157
-1.111
-1.23537
-1.39039
-1.57576
-1.79015
-2.02823
-2.27805
-2.51101
-2.75645
-2.96964
-3.14266
-3.27445
-3.36126
-3.41233
-3.43112
-3.41789
-3.37282
-3.29689
-3.19126
-3.05732
-2.89644
-2.71012
-2.49991
-2.26753
-2.01472
-1.74343
-1.45574
-1.1539
-0.840303
-0.517577
-0.18852
0.14391
0.476621
0.806666
1.13059
1.44496
1.74627
2.03107
2.29584
2.53718
2.75171
2.93625
3.08783
3.20366
3.28135
3.31889
3.31449
3.26722
3.17629
3.04161
2.86373
2.64381
2.3838
2.08627
1.75447
1.39253
1.00518
0.59778
0.176346
-0.252943
-0.682
-1.10391
-1.5109
-1.89506
-2.24861
-2.56395
-2.8337
-3.05106
-3.21001
-3.30533
-3.33309
-3.29447
-3.18466
-3.00399
-2.75475
-2.44098
-2.06844
-1.64475
-1.17918
-0.682522
-0.16709
0.353803
0.865265
1.35292
1.80198
2.19783
2.52713
2.7778
2.93962
3.00488
2.96864
2.82975
2.59016
2.25564
1.83605
1.34463
0.798359
0.216743
-0.379843
-0.96233
-1.50909
-1.99564
-2.39893
-2.69891
-2.87905
-2.92759
-2.84054
-2.61736
-2.26591
-1.80109
-1.2446
-0.623926
0.0338228
0.681578
1.28675
1.81325
2.22684
2.49785
2.6002
2.5577
2.33549
1.95113
1.42956
0.805427
0.118648
-0.578988
-1.23393
-1.79795
-2.22463
-2.47733
-2.53322
-2.38525
-2.04412
-1.5393
-0.91637
-0.226703
0.453218
1.0608
1.53415
1.82206
1.89295
1.73902
1.37792
0.853107
0.223084
-0.44241
-1.03833
-1.50274
-1.77316
-1.81311
-1.61758
-1.2142
-0.652566
0.0573062
0.673694
1.17675
1.49735
1.58792
1.43641
1.07226
0.549762
-0.0461745
-0.606805
-1.0525
-1.31235
-1.35132
-1.17621
-0.826377
-0.365892
0.0975686
0.495775
0.762164
0.86069
0.790051
0.57538
0.269388
-0.0722502
-0.38843
-0.629616
-0.760201
-3.29015
-3.26919
-3.22791
-3.16683
-3.08828
-2.9868
-2.8944
-2.69761
-2.90525
-2.55627
-2.29957
-2.07466
-1.86176
-1.66755
-1.49893
-1.361
-1.25879
-1.19674
-1.17836
-1.20855
-1.28832
-1.41621
-1.59385
-1.81849
-2.08814
-2.41371
-2.85825
-2.97215
-3.35544
-3.5855
-3.79043
-3.95072
-4.07213
-4.1467
-4.17374
-4.15379
-4.08998
-3.98719
-3.84855
-3.67662
-3.47341
-3.24083
-2.98072
-2.69498
-2.38569
-2.05511
-1.70565
-1.33995
-0.960887
-0.571507
-0.175065
0.224497
0.624505
1.02063
1.40893
1.78541
2.14587
2.48618
2.80219
3.08984
3.34516
3.56432
3.7438
3.88031
3.97102
4.01352
4.00591
3.94651
3.8349
3.67096
3.45534
3.18944
2.87566
2.51708
2.11762
1.68227
1.21677
0.727496
0.221731
-0.293332
-0.807661
-1.31317
-1.80055
-2.26033
-2.68321
-3.06006
-3.38213
-3.64133
-3.83054
-3.94356
-3.97576
-3.92723
-3.79353
-3.57522
-3.27501
-2.89777
-2.45045
-1.94222
-1.38416
-0.789261
-0.172221
0.450908
1.06237
1.64494
2.18094
2.65301
3.04502
3.34261
3.53367
3.60907
3.56334
3.39446
3.10521
2.70258
2.19844
1.60879
0.953853
0.257346
-0.455875
-1.15245
-1.80565
-2.38626
-2.86679
-3.22331
-3.43624
-3.4918
-3.38459
-3.11467
-2.69176
-2.13395
-1.46739
-0.724436
0.0645683
0.838319
1.56019
2.18737
2.67932
3.00138
3.12709
3.06636
2.79653
2.33418
1.70872
0.961626
0.141237
-0.691175
-1.47149
-2.142
-2.64743
-2.9441
-3.00472
-2.82123
-2.40707
-1.7979
-1.04874
-0.22176
0.5919
1.317
1.87943
2.21818
2.29587
2.10343
1.66311
1.02793
0.268835
-0.528812
-1.24285
-1.79729
-2.11764
-2.16133
-1.92383
-1.44198
-0.781374
0.101465
0.822372
1.41488
1.79121
1.89303
1.70629
1.26736
0.643257
-0.0650291
-0.727526
-1.25002
-1.54918
-1.58501
-1.36778
-0.946743
-0.400419
0.146281
0.611208
0.917137
1.02386
0.93229
0.674596
0.313133
-0.0859831
-0.4523
-0.730021
-0.879801
-4.20875
-4.20166
-4.18604
-4.15697
-4.10549
-4.02955
-3.92026
-3.85958
-3.87726
-2.48362
-1.74355
-1.15376
-0.683766
-0.322792
-0.0545012
0.132898
0.248208
0.297054
0.28094
0.198377
0.0474486
-0.178628
-0.492123
-0.91074
-1.45344
-2.15739
-3.35667
-3.88715
-4.35679
-4.683
-4.90243
-5.03921
-5.10575
-5.11691
-5.08058
-5.00565
-4.89472
-4.74792
-4.56513
-4.3471
-4.09495
-3.81026
-3.49487
-3.15085
-2.78046
-2.3862
-1.9708
-1.53726
-1.08877
-0.628862
-0.161288
0.309891
0.780567
1.24627
1.70238
2.1442
2.56686
2.96552
3.33532
3.67156
3.96958
4.22494
4.43351
4.59149
4.69555
4.74283
4.73103
4.65911
4.52564
4.33071
4.07514
3.76065
3.39009
2.9671
2.49632
1.98362
1.43576
0.860272
0.265752
-0.33932
-0.94331
-1.53665
-2.10838
-2.64748
-3.14302
-3.5843
-3.96112
-4.26399
-4.48466
-4.61604
-4.65281
-4.59316
-4.43383
-4.1755
-3.82131
-3.37701
-2.85078
-2.25339
-1.59795
-0.899649
-0.17571
0.554771
1.27128
1.95352
2.58073
3.13263
3.59027
3.93687
4.15837
4.24409
4.18768
3.9869
3.64503
3.17049
2.57718
1.88418
1.11492
0.297473
-0.538388
-1.3546
-2.11939
-2.79851
-3.35987
-3.77535
-4.02222
-4.08468
-3.95566
-3.63613
-3.13774
-2.48199
-1.69987
-0.829272
0.100461
1.0054
1.84938
2.58215
3.15644
3.53249
3.68199
3.60153
3.28026
2.73502
1.9998
1.1232
0.162082
-0.81168
-1.72335
-2.50526
-3.09278
-3.43495
-3.4998
-3.27814
-2.78647
-2.06698
-1.18483
-0.21273
0.741232
1.58954
2.24509
2.63654
2.72031
2.4863
1.96163
1.20946
0.314104
-0.622656
-1.46059
-2.10899
-2.48084
-2.52691
-2.24357
-1.67815
-0.920375
0.155672
0.978612
1.66454
2.09907
2.21186
1.98713
1.4687
0.737834
-0.0879461
-0.856392
-1.45807
-1.79683
-1.82783
-1.56508
-1.0689
-0.432851
0.200081
0.733323
1.07885
1.19249
1.07786
0.774973
0.356051
-0.101795
-0.51877
-0.833056
-1.00193
-4.90955
-4.88058
-4.82336
-4.73651
-4.61287
-4.49566
-4.24981
-4.23957
-5.26557
-5.319
-5.61277
-5.74586
-5.87984
-5.95886
-5.98157
-5.94417
-5.85496
-5.71683
-5.53355
-5.30771
-5.04197
-4.73846
-4.39913
-4.02592
-3.62107
-3.18702
-2.72654
-2.24267
-1.73874
-1.2184
-0.685593
-0.144522
0.400232
0.943826
1.48122
2.00714
2.51622
3.00284
3.46147
3.88653
4.27262
4.61441
4.9068
5.14508
5.32489
5.44244
5.49451
5.47856
5.39288
5.23643
5.00921
4.71219
4.34736
3.91801
3.42841
2.88389
2.29128
1.65837
0.993916
0.307813
-0.38986
-1.08627
-1.77007
-2.42862
-3.04929
-3.61949
-4.12696
-4.55994
-4.90753
-5.1603
-5.31021
-5.35111
-5.2798
-5.09373
-4.79383
-4.38368
-3.86997
-3.26215
-2.57268
-1.81669
-1.0117
-0.177567
0.663531
1.48824
2.27307
2.99408
3.62795
4.15295
4.5498
4.80236
4.89836
4.83045
4.59638
4.19989
3.65096
2.96546
2.1658
1.27876
0.336491
-0.625819
-1.56506
-2.44456
-3.22488
-3.86919
-4.34504
-4.62643
-4.69538
-4.54342
-4.17237
-3.59581
-2.83885
-1.93749
-0.935584
0.139735
1.17936
2.14878
2.99014
3.64896
4.08004
4.2516
4.15215
3.77735
3.14618
2.29749
1.28734
0.180967
-0.938183
-1.98487
-2.88112
-3.55265
-3.94097
-4.00954
-3.74795
-3.17554
-2.34172
-1.32237
-0.200119
0.898244
1.87333
2.62435
3.06936
3.15847
2.88071
2.26804
1.39433
0.358185
-0.72211
-1.68748
-2.43215
-2.85608
-2.90323
-2.57074
-1.91622
-1.05095
0.20295
1.13755
1.92103
2.41544
2.53884
2.27405
1.67276
0.831855
-0.114392
-0.991032
-1.67289
-2.0509
-2.07556
-1.76473
-1.19076
-0.462804
0.257868
0.859863
1.24438
1.36365
1.22424
0.874834
0.397464
-0.119347
-0.586648
-0.936927
-1.1245
-5.88915
-5.87825
-5.85981
-5.83841
-5.81418
-5.81315
-5.73151
-5.83468
-7.20879
-7.09307
-7.1909
-7.16597
-7.14501
-7.09669
-7.02023
-6.91088
-6.7628
-6.5725
-6.33983
-6.06454
-5.7477
-5.39047
-4.99462
-4.56207
-4.09512
-3.59634
-3.06867
-2.51542
-1.94024
-1.34717
-0.740589
-0.125057
0.494061
1.11142
1.72135
2.31789
2.89497
3.44625
3.96547
4.44633
4.8827
5.2686
5.59826
5.86635
6.068
6.19894
6.25554
6.23497
6.13523
5.95526
5.6951
5.35585
4.93979
4.45068
3.89338
3.27399
2.60028
1.88112
1.12644
0.347522
-0.443954
-1.23392
-2.00923
-2.75561
-3.45874
-4.10437
-4.67865
-5.16825
-5.56089
-5.84589
-6.01417
-6.05874
-5.97546
-5.76207
-5.41972
-4.95262
-4.36836
-3.6777
-2.89477
-2.03675
-1.12358
-0.177985
0.775246
1.70948
2.59806
3.41387
4.13052
4.72348
5.17095
5.45471
5.5608
5.48087
5.21268
4.76056
4.13596
3.3569
2.44893
1.44256
0.373981
-0.716391
-1.78007
-2.77556
-3.65811
-4.38605
-4.92271
-5.23864
-5.31363
-5.13807
-4.71441
-4.0583
-3.1985
-2.1762
-1.04159
0.1814
1.35682
2.45304
3.40416
4.1482
4.63432
4.82661
4.70858
4.27927
3.56066
2.59676
1.45133
0.1978
-1.06831
-2.25145
-3.26312
-4.01925
-4.45378
-4.52549
-4.22287
-3.56804
-2.61759
-1.45866
-0.18502
1.05992
2.16329
3.01059
3.5092
3.60294
3.28
2.57724
1.57938
0.400545
-0.825271
-1.91956
-2.76126
-3.23705
-3.28407
-2.89994
-2.15186
-1.17249
0.243888
1.29609
2.18009
2.73515
2.86865
2.56248
1.87634
0.923916
-0.143683
-1.12904
-1.89088
-2.30723
-2.32423
-1.96364
-1.31052
-0.49011
0.318466
0.988626
1.41101
1.53462
1.36923
0.972737
0.436872
-0.138251
-0.65483
-1.04005
-1.24566
-6.82326
-6.81754
-6.80787
-6.79678
-6.78056
-6.77983
-6.72692
-6.7831
-8.28872
-8.20082
-8.27187
-8.24235
-8.20188
-8.12315
-8.0079
-7.85311
-7.65831
-7.42053
-7.13963
-6.81473
-6.44656
-6.03568
-5.58363
-5.09215
-4.56351
-4.00039
-3.40594
-2.78373
-2.13774
-1.47234
-0.792317
-0.102847
0.590288
1.28108
1.9632
2.63003
3.27478
3.8904
4.46989
5.00621
5.49253
5.92218
6.28876
6.58634
6.8095
6.9535
7.01435
6.9889
6.87492
6.67128
6.37805
5.99648
5.52912
4.98021
4.3552
3.66096
2.90619
2.10086
1.25612
0.384591
-0.500473
-1.38369
-2.25019
-3.08404
-3.86927
-4.58995
-5.23067
-5.77653
-6.21387
-6.53074
-6.71701
-6.76489
-6.66944
-6.42857
-6.04365
-5.51948
-4.86461
-4.0911
-3.21481
-2.25496
-1.23383
-0.177067
0.888023
1.93141
2.92334
3.83354
4.63253
5.29302
5.79072
6.1053
6.22123
6.12901
5.82646
5.3186
4.61823
3.74568
2.7294
1.60399
0.409533
-0.808452
-1.99614
-3.10711
-4.09143
-4.90244
-5.49942
-5.84945
-5.93004
-5.7306
-5.25411
-4.51824
-3.55549
-2.41229
-1.14574
0.224407
1.53463
2.75722
3.81766
4.64637
5.18674
5.39874
5.26236
4.77844
3.97224
2.89312
1.61257
0.212789
-1.19977
-2.51877
-3.64526
-4.48535
-4.96555
-5.03985
-4.69578
-3.95823
-2.89078
-1.59149
-0.168321
1.22344
2.45467
3.39765
3.94918
4.04683
3.67807
2.88467
1.76205
0.44054
-0.930279
-2.15306
-3.09113
-3.61792
-3.66373
-3.22649
-2.38191
-1.2835
0.277897
1.45197
2.43798
3.05348
3.19648
2.84829
2.07666
1.01283
-0.175019
-1.26815
-2.10867
-2.56203
-2.5703
-2.15913
-1.42666
-0.514764
0.380712
1.11756
1.57628
1.70304
1.51096
1.06752
0.473929
-0.1581
-0.722326
-1.14104
-1.36386
-7.67577
-7.67271
-7.66734
-7.66188
-7.65188
-7.65215
-7.62339
-7.65609
-9.42386
-9.32977
-9.34919
-9.29042
-9.21195
-9.09814
-8.94741
-8.75518
-8.52051
-8.24054
-7.91527
-7.5437
-7.12631
-6.6636
-6.15699
-5.6081
-5.01929
-4.39334
-3.73363
-3.04396
-2.32864
-1.5924
-0.840386
-0.0783669
0.687386
1.45025
2.20326
2.93911
3.65033
4.32911
4.96774
5.55847
6.09375
6.56624
6.96891
7.29526
7.53933
7.69595
7.76075
7.73025
7.60206
7.37494
7.049
6.62562
6.10763
5.49971
4.80792
4.03986
3.20519
2.31496
1.38153
0.418858
-0.558355
-1.53324
-2.48937
-3.40918
-4.27505
-5.06943
-5.77533
-6.37638
-6.85748
-7.20547
-7.4092
-7.4601
-7.35242
-7.08425
-6.65722
-6.07667
-5.35213
-4.49696
-3.52869
-2.46856
-1.3413
-0.17483
1.00013
2.15084
3.24436
4.24727
5.12712
5.85384
6.40074
6.74537
6.87088
6.7662
6.42954
5.86663
5.09144
4.12674
3.00369
1.76111
0.442888
-0.900528
-2.21011
-3.43457
-4.51884
-5.41131
-6.06734
-6.45061
-6.5364
-6.31313
-5.78435
-4.96966
-3.90515
-2.64257
-1.24661
0.267678
1.71002
3.05702
4.22492
5.13666
5.72991
5.96072
5.80619
5.2683
4.37566
3.1828
1.76907
0.226007
-1.33053
-2.78304
-4.02225
-4.94459
-5.46935
-5.54578
-5.16044
-4.34112
-3.15798
-1.71987
-0.150145
1.38628
2.74323
3.78003
4.3832
4.48409
4.06958
3.18631
1.94007
0.47778
-1.03537
-2.38457
-3.41714
-3.9935
-4.03725
-3.54643
-2.60404
-1.38217
0.303861
1.60357
2.6915
3.36635
3.51812
3.12796
2.27137
1.09765
-0.207589
-1.40629
-2.32331
-2.812
-2.81075
-2.34901
-1.53794
-0.536879
0.443522
1.24486
1.73805
1.8669
1.6479
1.15826
0.508429
-0.178496
-0.788293
-1.23879
-1.47786
-8.44689
-8.4451
-8.44168
-8.43884
-8.43174
-8.43287
-8.41458
-8.43434
-10.4493
-10.3542
-10.3462
-10.267
-10.1619
-10.0193
-9.83767
-9.61199
-9.34156
-9.02331
-8.65716
-8.24201
-7.77832
-7.26649
-6.70784
-6.10398
-5.45733
-4.77083
-4.04813
-3.29333
-2.51102
-1.70628
-0.884551
-0.0522439
0.783927
1.61671
2.43851
3.24134
4.01704
4.75712
5.45313
6.0966
6.6793
7.19324
7.6308
7.98491
8.24909
8.41775
8.48619
8.45061
8.30838
8.05828
7.70041
7.23625
6.6689
6.00347
5.24662
4.40664
3.49415
2.52126
1.50154
0.450229
-0.61657
-1.68051
-2.72368
-3.72696
-4.67111
-5.53699
-6.30612
-6.96067
-7.48414
-7.86221
-8.08273
-8.1364
-8.01653
-7.72159
-7.2534
-6.61788
-5.82545
-4.89075
-3.83298
-2.67525
-1.44478
-0.171685
1.11011
2.36508
3.55727
4.65019
5.60846
6.39939
6.99392
7.36756
7.50238
7.38515
7.0151
6.39847
5.55038
4.49594
3.26893
1.91231
0.473909
-0.99133
-2.41931
-3.75397
-4.93526
-5.90672
-6.61988
-7.03522
-7.12582
-6.87907
-6.29921
-5.40761
-4.24365
-2.86446
-1.3429
0.310108
1.88064
3.34887
4.62119
5.61342
6.25767
6.50642
6.33396
5.74344
4.76653
3.46283
1.91928
0.2375
-1.45885
-3.04102
-4.3896
-5.39159
-5.95935
-6.03754
-5.61167
-4.71252
-3.41648
-1.8432
-0.130483
1.54627
3.02535
4.15308
4.80609
4.90961
4.45007
3.47884
2.11163
0.512036
-1.13893
-2.61119
-3.73536
-4.35939
-4.40043
-3.85652
-2.81673
-1.46693
0.320639
1.74975
2.93801
3.6703
3.83007
3.39854
2.45863
1.17767
-0.240622
-1.54172
-2.53229
-3.05439
-3.04309
-2.53152
-1.64345
-0.55665
0.505932
1.36899
1.89459
2.02459
1.77886
1.24431
0.540281
-0.199071
-0.852043
-1.33243
-1.58669
-9.13582
-9.13464
-9.13194
-9.13008
-9.12397
-9.12533
-9.11194
-9.12443
-11.385
-11.2887
-11.2631
-11.1692
-11.0442
-10.879
-10.6718
-10.4177
-10.1158
-9.76306
-9.35948
-8.90399
-8.39719
-7.83934
-7.23167
-6.57573
-5.87404
-5.1298
-4.34696
-3.52992
-2.68359
-1.81333
-0.924822
-0.0251068
0.87863
1.77856
2.66641
3.53355
4.37119
5.17012
5.92122
6.61531
7.24348
7.7971
8.26801
8.64864
8.93197
9.11196
9.18377
9.14313
8.9872
8.71488
8.32622
7.82274
7.20779
6.48692
5.66734
4.75806
3.77058
2.71808
1.61529
0.47869
-0.674275
-1.82379
-2.9506
-4.03409
-5.05344
-5.98797
-6.81779
-7.5237
-8.08776
-8.49462
-8.73111
-8.78748
-8.65544
-8.33454
-7.8266
-7.13803
-6.28015
-5.26888
-4.12493
-2.87322
-1.54344
-0.16783
1.21672
2.57193
3.85895
5.03833
6.07188
6.92441
7.56454
7.96587
8.10987
7.97999
7.57767
6.90922
5.99087
4.84999
3.5229
2.0563
0.502479
-1.07976
-2.62156
-4.06212
-5.33661
-6.38387
-7.15173
-7.59773
-7.69275
-7.42311
-6.79394
-5.82811
-4.56805
-3.07596
-1.43346
0.350689
2.04464
3.62991
5.00264
6.07209
6.76504
7.03086
6.84079
6.19951
5.14138
3.73088
2.06206
0.247275
-1.58327
-3.2901
-4.7437
-5.82203
-6.43088
-6.51049
-6.04534
-5.06903
-3.66413
-1.96042
-0.109995
1.70153
3.29807
4.513
5.21365
5.31925
4.81592
3.7596
2.27535
0.54314
-1.23959
-2.83051
-4.04256
-4.71202
-4.74988
-4.15417
-3.01907
-1.54071
0.331445
1.88982
3.17534
3.96256
4.12951
3.65774
2.63705
1.25237
-0.273422
-1.67296
-2.73359
-3.28703
-3.26537
-2.70534
-1.74254
-0.574305
0.567118
1.4887
2.04454
2.1749
1.90303
1.3252
0.569478
-0.219501
-0.913037
-1.4213
-1.68968
-9.75069
-9.74993
-9.74728