/*--------------------------------*- C++ -*----------------------------------*\
  =========                 |
  \\      /  F ield         | OpenFOAM: The Open Source CFD Toolbox
   \\    /   O peration     | Website:  https://openfoam.org
    \\  /    A nd           | Version:  12
     \\/     M anipulation  |
\*---------------------------------------------------------------------------*/
FoamFile
{
    format      ascii;
    class       volScalarField;
    location    "3.5";
    object      p;
}
// * * * * * * * * * * * * * * * * * * * * * * * * * * * * * * * * * * * * * //

dimensions      [0 2 -2 0 0 0 0];

internalField   nonuniform List<scalar> 
400
(
3.32582e-08
-3.85929e-05
-8.85072e-05
-0.000207844
-0.000102273
-0.000586403
-0.00170881
-0.00287133
-0.0038042
-0.00440556
-0.00466214
-0.00464798
-0.00437843
-0.00383937
-0.00282636
-0.00110518
0.0013985
0.00456252
0.00741181
0.00836609
4.19588e-05
1.24142e-05
-2.88123e-05
-0.000198767
-0.00059116
-0.00137853
-0.0024838
-0.00352115
-0.00438042
-0.00486989
-0.0050694
-0.0050263
-0.00478172
-0.00435284
-0.00363378
-0.00238804
-0.000380945
0.00244178
0.00550511
0.00701348
9.35072e-05
3.67989e-05
-0.000186066
-0.000678195
-0.00149607
-0.00255475
-0.00369489
-0.00471104
-0.00541986
-0.00578746
-0.00584383
-0.00567079
-0.00531262
-0.00486027
-0.00434899
-0.00363724
-0.00242655
-0.000368099
0.0024717
0.00430022
2.60363e-05
-0.000112552
-0.000576731
-0.00145067
-0.00258851
-0.00378992
-0.00487575
-0.00568059
-0.00616059
-0.00633683
-0.00622233
-0.00592724
-0.00554616
-0.00511632
-0.00470747
-0.00428681
-0.00372699
-0.00243301
-0.000418518
0.00140651
-0.000280091
-0.000524079
-0.00121529
-0.0023534
-0.00362027
-0.00480187
-0.00579684
-0.00657649
-0.00702718
-0.00713338
-0.00690725
-0.00645828
-0.00595804
-0.0054519
-0.00499667
-0.00463508
-0.00440098
-0.00369356
-0.00250856
-0.000973677
-0.000835281
-0.00114815
-0.00198328
-0.00324517
-0.00454123
-0.00570942
-0.00675389
-0.00763724
-0.00812729
-0.00821267
-0.00789478
-0.0072757
-0.00659433
-0.00594621
-0.00540339
-0.00500992
-0.00488574
-0.00446556
-0.00386694
-0.00270016
-0.00157237
-0.00189487
-0.00277294
-0.00407165
-0.00540872
-0.00662864
-0.00779915
-0.00884593
-0.00944499
-0.00955119
-0.00914174
-0.00832036
-0.00739702
-0.0065441
-0.00586185
-0.00538974
-0.00529227
-0.0049821
-0.00470368
-0.00386246
-0.00229124
-0.00260206
-0.00349986
-0.00479154
-0.00619445
-0.00750105
-0.0087954
-0.00999904
-0.0106832
-0.0108047
-0.0103455
-0.00935613
-0.00818744
-0.00711666
-0.00629503
-0.00572326
-0.00561088
-0.00529003
-0.00523848
-0.00454554
-0.00290466
-0.00316116
-0.00405713
-0.00532331
-0.00679379
-0.00817498
-0.00952493
-0.0107988
-0.0115304
-0.0116602
-0.0111767
-0.0100927
-0.00873587
-0.0074807
-0.00659385
-0.00591417
-0.00581643
-0.00540686
-0.00554228
-0.00489604
-0.0033177
-0.00355946
-0.00437636
-0.00560584
-0.00709279
-0.00850972
-0.00984072
-0.011087
-0.0118112
-0.0119216
-0.0114628
-0.0103284
-0.00893096
-0.00754028
-0.00669374
-0.00590903
-0.00589165
-0.00532723
-0.00568579
-0.00498924
-0.00350334
-0.0037381
-0.00447124
-0.00558951
-0.00697431
-0.0083869
-0.00965559
-0.0107718
-0.0114498
-0.0115624
-0.0111146
-0.0100664
-0.0086815
-0.00738399
-0.00648718
-0.00579245
-0.00577239
-0.00509756
-0.00568601
-0.00489035
-0.0035562
-0.00372867
-0.00433097
-0.00527016
-0.00645563
-0.00777723
-0.00895905
-0.00995631
-0.0105864
-0.0107059
-0.0102988
-0.00934269
-0.00808297
-0.00690996
-0.00607941
-0.00552396
-0.00550877
-0.00476798
-0.00558518
-0.00462276
-0.00354204
-0.00365325
-0.00402053
-0.00474764
-0.00570122
-0.00682064
-0.00788516
-0.00876668
-0.00932434
-0.00943549
-0.0090724
-0.0082575
-0.0072161
-0.00625277
-0.00557227
-0.00514495
-0.00516845
-0.00437855
-0.00542829
-0.00420389
-0.00350006
-0.0035556
-0.00369779
-0.00414751
-0.00481789
-0.0056581
-0.00652596
-0.00726493
-0.00774209
-0.00786643
-0.00762252
-0.00703591
-0.00627001
-0.00555437
-0.00504549
-0.00473129
-0.00480618
-0.00397569
-0.0052604
-0.00362214
-0.00345816
-0.0034498
-0.00344092
-0.00359756
-0.00395764
-0.00450419
-0.0051563
-0.0057668
-0.00620685
-0.00639293
-0.00629435
-0.00592609
-0.00542788
-0.00494701
-0.00459317
-0.00436407
-0.00445697
-0.00363073
-0.00503133
-0.0028972
-0.00340758
-0.0033232
-0.00320394
-0.00315067
-0.00327483
-0.00359031
-0.00405712
-0.00456166
-0.00498898
-0.00522581
-0.00523614
-0.0050724
-0.00480035
-0.00450399
-0.00426426
-0.00408439
-0.00415905
-0.00340237
-0.00475807
-0.0020339
-0.00335111
-0.0031908
-0.00297475
-0.00282059
-0.00282903
-0.00300634
-0.00334631
-0.00377282
-0.00417006
-0.00444876
-0.00458462
-0.0045655
-0.00442617
-0.00423704
-0.00406666
-0.0039334
-0.00397102
-0.0033148
-0.00440039
-0.000903644
-0.00331245
-0.00302077
-0.0027463
-0.00253655
-0.00249091
-0.00261794
-0.00291325
-0.00332002
-0.00373264
-0.00405803
-0.00424546
-0.00429131
-0.00422806
-0.00409503
-0.00394508
-0.00377922
-0.00368936
-0.00321863
-0.00360675
0.00186764
-0.00346866
-0.00297338
-0.00261044
-0.00233915
-0.00227001
-0.00240176
-0.0027016
-0.00312348
-0.00355764
-0.00391067
-0.00412593
-0.00421266
-0.0041861
-0.00409144
-0.00398465
-0.00393089
-0.00394908
-0.00302074
5.19507e-05
0.0122143
-0.0046144
-0.00239185
-0.00198479
-0.0019181
-0.00194546
-0.00211067
-0.00243062
-0.00285238
-0.00331859
-0.00372156
-0.00400798
-0.00414278
-0.00416532
-0.00409077
-0.00392273
-0.00351917
-0.00239703
0.00144132
0.0130568
0.0351958
)
;

boundaryField
{
    movingWall
    {
        type            zeroGradient;
    }
    fixedWalls
    {
        type            zeroGradient;
    }
    frontAndBack
    {
        type            empty;
    }
}


// ************************************************************************* //
