/*--------------------------------*- C++ -*----------------------------------*\
  =========                 |
  \\      /  F ield         | OpenFOAM: The Open Source CFD Toolbox
   \\    /   O peration     | Website:  https://openfoam.org
    \\  /    A nd           | Version:  12
     \\/     M anipulation  |
\*---------------------------------------------------------------------------*/
FoamFile
{
    format      ascii;
    class       surfaceScalarField;
    location    "3.5";
    object      phi;
}
// * * * * * * * * * * * * * * * * * * * * * * * * * * * * * * * * * * * * * //

dimensions      [0 3 -1 0 0 0 0];

internalField   nonuniform List<scalar> 
760
(
4.40289e-08
-4.40322e-08
3.87796e-08
5.24923e-09
-1.36288e-07
1.75067e-07
-7.54116e-07
6.17828e-07
-2.05013e-06
1.29601e-06
-3.50906e-06
1.45894e-06
-4.60113e-06
1.09207e-06
-5.47223e-06
8.71104e-07
-6.07321e-06
6.00978e-07
-6.49485e-06
4.2164e-07
-6.75751e-06
2.62654e-07
-6.87861e-06
1.21107e-07
-6.89665e-06
1.80315e-08
-6.80471e-06
-9.19396e-08
-6.57766e-06
-2.27042e-07
-6.10399e-06
-4.7367e-07
-5.21788e-06
-8.86117e-07
-3.71331e-06
-1.50457e-06
-1.64283e-06
-2.07047e-06
-1.64283e-06
-1.33743e-07
8.97103e-08
-5.02429e-07
3.73936e-07
-1.40605e-06
1.07869e-06
-2.85654e-06
2.06832e-06
-4.12888e-06
2.56834e-06
-4.88641e-06
2.21647e-06
-5.59117e-06
1.79683e-06
-6.11148e-06
1.39141e-06
-6.48001e-06
9.69509e-07
-6.70639e-06
6.48027e-07
-6.75938e-06
3.15637e-07
-6.71971e-06
8.14359e-08
-6.59205e-06
-1.09628e-07
-6.4055e-06
-2.78488e-07
-6.1481e-06
-4.84438e-07
-5.77037e-06
-8.51404e-07
-5.13936e-06
-1.51712e-06
-3.97692e-06
-2.66701e-06
-2.156e-06
-3.89139e-06
-3.79884e-06
-4.12432e-07
5.02142e-07
-1.23164e-06
1.19314e-06
-2.50075e-06
2.34781e-06
-3.61356e-06
3.18113e-06
-4.2829e-06
3.23768e-06
-4.74645e-06
2.68002e-06
-5.04099e-06
2.09137e-06
-5.11122e-06
1.46164e-06
-5.0261e-06
8.84388e-07
-4.86241e-06
4.84335e-07
-4.64711e-06
1.0034e-07
-4.44987e-06
-1.15803e-07
-4.24985e-06
-3.09657e-07
-4.06658e-06
-4.61752e-07
-3.94272e-06
-6.083e-07
-3.81156e-06
-9.82563e-07
-3.61775e-06
-1.71093e-06
-3.03554e-06
-3.24922e-06
-1.86313e-06
-5.0638e-06
-5.66197e-06
-6.5263e-07
1.15477e-06
-1.64948e-06
2.18999e-06
-2.69925e-06
3.39757e-06
-3.3808e-06
3.86267e-06
-3.74721e-06
3.60409e-06
-3.87717e-06
2.80998e-06
-3.94638e-06
2.16058e-06
-3.99045e-06
1.50571e-06
-3.98682e-06
8.80757e-07
-3.86487e-06
3.62386e-07
-3.59257e-06
-1.71957e-07
-3.23905e-06
-4.69323e-07
-2.84411e-06
-7.046e-07
-2.4751e-06
-8.30758e-07
-2.19418e-06
-8.89219e-07
-2.06759e-06
-1.10915e-06
-2.14863e-06
-1.6299e-06
-2.13358e-06
-3.26427e-06
-1.3848e-06
-5.81258e-06
-7.04677e-06
-7.16546e-07
1.87132e-06
-1.61474e-06
3.08819e-06
-2.33197e-06
4.11481e-06
-2.79612e-06
4.32682e-06
-3.0486e-06
3.85656e-06
-3.25156e-06
3.01295e-06
-3.52591e-06
2.43493e-06
-3.784e-06
1.76379e-06
-3.90091e-06
9.97668e-07
-3.7886e-06
2.50074e-07
-3.49026e-06
-4.70293e-07
-3.02488e-06
-9.34707e-07
-2.48759e-06
-1.24189e-06
-1.96211e-06
-1.35624e-06
-1.52442e-06
-1.32691e-06
-1.22338e-06
-1.4102e-06
-1.15057e-06
-1.7027e-06
-1.25195e-06
-3.1629e-06
-1.03998e-06
-6.02454e-06
-8.08675e-06
-6.24447e-07
2.49577e-06
-1.3274e-06
3.79115e-06
-1.84834e-06
4.63574e-06
-2.23224e-06
4.71073e-06
-2.5232e-06
4.14752e-06
-2.87913e-06
3.36888e-06
-3.27785e-06
2.83365e-06
-3.59148e-06
2.07742e-06
-3.74087e-06
1.14706e-06
-3.67185e-06
1.81056e-07
-3.40997e-06
-7.32178e-07
-2.95085e-06
-1.39383e-06
-2.39081e-06
-1.80192e-06
-1.81448e-06
-1.93257e-06
-1.29531e-06
-1.84608e-06
-8.73062e-07
-1.83245e-06
-6.89859e-07
-1.8859e-06
-7.03704e-07
-3.14905e-06
-6.76352e-07
-6.0519e-06
-8.7631e-06
-4.34265e-07
2.93003e-06
-9.15954e-07
4.27283e-06
-1.30591e-06
5.0257e-06
-1.66128e-06
5.0661e-06
-2.00765e-06
4.49389e-06
-2.39907e-06
3.7603e-06
-2.78911e-06
3.22369e-06
-3.08556e-06
2.37388e-06
-3.22702e-06
1.28851e-06
-3.1983e-06
1.52338e-07
-3.00291e-06
-9.27572e-07
-2.60991e-06
-1.78682e-06
-2.10035e-06
-2.31148e-06
-1.5565e-06
-2.47642e-06
-1.05815e-06
-2.34443e-06
-6.74994e-07
-2.2156e-06
-4.42903e-07
-2.11799e-06
-4.49405e-07
-3.14255e-06
-5.42105e-07
-5.9592e-06
-9.30521e-06
-2.18976e-07
3.14901e-06
-4.77605e-07
4.53146e-06
-7.54685e-07
5.30278e-06
-1.01403e-06
5.32544e-06
-1.33132e-06
4.81118e-06
-1.69359e-06
4.12258e-06
-1.98638e-06
3.51647e-06
-2.20034e-06
2.58785e-06
-2.3202e-06
1.40837e-06
-2.33834e-06
1.70476e-07
-2.23689e-06
-1.02902e-06
-1.96164e-06
-2.06208e-06
-1.58211e-06
-2.69101e-06
-1.16493e-06
-2.8936e-06
-7.65632e-07
-2.74373e-06
-4.50932e-07
-2.5303e-06
-2.56767e-07
-2.31216e-06
-2.61065e-07
-3.13825e-06
-3.61041e-07
-5.85922e-06
-9.66625e-06
4.46803e-08
3.10433e-06
-3.80429e-08
4.61419e-06
-1.74181e-07
5.43892e-06
-3.4219e-07
5.49345e-06
-5.74549e-07
5.04354e-06
-8.05673e-07
4.3537e-06
-9.75123e-07
3.68592e-06
-1.09647e-06
2.70919e-06
-1.17606e-06
1.48796e-06
-1.22128e-06
2.15695e-07
-1.19637e-06
-1.05393e-06
-1.05986e-06
-2.19859e-06
-8.41221e-07
-2.90965e-06
-6.01625e-07
-3.1332e-06
-3.60519e-07
-2.98483e-06
-1.97435e-07
-2.69338e-06
-8.52894e-08
-2.4243e-06
-1.45635e-07
-3.07791e-06
-3.13504e-07
-5.69135e-06
-9.97975e-06
2.10577e-07
2.89375e-06
3.97825e-07
4.42694e-06
4.38733e-07
5.39801e-06
4.0819e-07
5.524e-06
2.82258e-07
5.16947e-06
1.63566e-07
4.47239e-06
1.05253e-07
3.74423e-06
7.42081e-08
2.74024e-06
4.28961e-08
1.51927e-06
-3.44738e-09
2.62038e-07
-1.34077e-08
-1.04397e-06
-2.03795e-08
-2.19161e-06
-1.13954e-09
-2.92889e-06
1.09384e-08
-3.14528e-06
7.45993e-08
-3.04849e-06
3.47978e-08
-2.65358e-06
8.03071e-08
-2.46981e-06
-6.24796e-08
-2.93512e-06
-2.22726e-07
-5.5311e-06
-1.02025e-05
3.71158e-07
2.52259e-06
7.48439e-07
4.04966e-06
9.87868e-07
5.15858e-06
1.13848e-06
5.37338e-06
1.17989e-06
5.12806e-06
1.15176e-06
4.50052e-06
1.1908e-06
3.7052e-06
1.20791e-06
2.72312e-06
1.18755e-06
1.53964e-06
1.1366e-06
3.12988e-07
1.04576e-06
-9.53138e-07
9.35982e-07
-2.08183e-06
8.01372e-07
-2.79428e-06
6.66851e-07
-3.01075e-06
4.94275e-07
-2.87592e-06
3.45994e-07
-2.5053e-06
2.22004e-07
-2.34582e-06
9.43156e-09
-2.72255e-06
-2.12049e-07
-5.30962e-06
-1.04145e-05
4.61728e-07
2.06086e-06
9.6629e-07
3.5451e-06
1.44205e-06
4.68282e-06
1.73219e-06
5.08324e-06
1.92554e-06
4.93471e-06
2.02003e-06
4.40603e-06
2.11126e-06
3.61397e-06
2.18639e-06
2.64799e-06
2.20363e-06
1.52239e-06
2.15249e-06
3.64129e-07
2.03466e-06
-8.35304e-07
1.83325e-06
-1.88042e-06
1.55201e-06
-2.51304e-06
1.21803e-06
-2.67677e-06
8.69848e-07
-2.52774e-06
5.95713e-07
-2.23117e-06
3.50481e-07
-2.10059e-06
6.9835e-08
-2.4419e-06
-1.57015e-07
-5.08277e-06
-1.05715e-05
4.61828e-07
1.59904e-06
1.00175e-06
3.00517e-06
1.7174e-06
3.96717e-06
2.21163e-06
4.58901e-06
2.56365e-06
4.58269e-06
2.78829e-06
4.18139e-06
2.95463e-06
3.44763e-06
3.06258e-06
2.54004e-06
3.09784e-06
1.48713e-06
3.05021e-06
4.11761e-07
2.88397e-06
-6.69067e-07
2.56166e-06
-1.5581e-06
2.12038e-06
-2.07176e-06
1.63378e-06
-2.19017e-06
1.17119e-06
-2.06515e-06
7.96406e-07
-1.85638e-06
4.64014e-07
-1.7682e-06
1.16234e-07
-2.09412e-06
-1.65609e-07
-4.80093e-06
-1.07372e-05
4.01043e-07
1.19799e-06
8.77769e-07
2.52845e-06
1.62241e-06
3.22254e-06
2.32604e-06
3.88537e-06
2.87665e-06
4.03208e-06
3.26755e-06
3.79049e-06
3.54202e-06
3.17317e-06
3.71051e-06
2.37155e-06
3.76383e-06
1.43381e-06
3.67939e-06
4.96204e-07
3.41635e-06
-4.06028e-07
2.99188e-06
-1.13364e-06
2.44711e-06
-1.52699e-06
1.86282e-06
-1.60588e-06
1.32545e-06
-1.52778e-06
8.70706e-07
-1.40164e-06
5.11593e-07
-1.40909e-06
1.04692e-07
-1.68722e-06
-1.07058e-07
-4.58918e-06
-1.08442e-05
2.94834e-07
9.03161e-07
6.87189e-07
2.13609e-06
1.28964e-06
2.62008e-06
2.05171e-06
3.12331e-06
2.75891e-06
3.32489e-06
3.32456e-06
3.22483e-06
3.70519e-06
2.79254e-06
3.91771e-06
2.15902e-06
3.96362e-06
1.3879e-06
3.86282e-06
5.97003e-07
3.58571e-06
-1.2891e-07
3.11791e-06
-6.65843e-07
2.52998e-06
-9.39059e-07
1.93796e-06
-1.01386e-06
1.4112e-06
-1.00102e-06
9.45691e-07
-9.3613e-07
5.64512e-07
-1.02791e-06
1.28702e-07
-1.25141e-06
-8.56913e-09
-4.45191e-06
-1.08528e-05
1.24217e-07
7.78944e-07
3.99108e-07
1.8612e-06
8.23954e-07
2.19523e-06
1.48768e-06
2.45958e-06
2.20317e-06
2.60941e-06
2.86871e-06
2.55928e-06
3.38367e-06
2.27759e-06
3.71122e-06
1.83148e-06
3.81948e-06
1.27963e-06
3.72112e-06
6.95361e-07
3.4226e-06
1.69616e-07
2.95209e-06
-1.95331e-07
2.41705e-06
-4.04021e-07
1.89969e-06
-4.96498e-07
1.41178e-06
-5.13115e-07
9.73064e-07
-4.97413e-07
6.00779e-07
-6.55622e-07
2.24698e-07
-8.7533e-07
1.79392e-07
-4.4066e-06
-1.06734e-05
-7.26234e-08
8.51567e-07
1.65031e-07
1.62355e-06
5.21614e-07
1.83865e-06
1.05355e-06
1.92765e-06
1.6773e-06
1.98566e-06
2.30419e-06
1.93239e-06
2.81746e-06
1.76432e-06
3.17026e-06
1.47868e-06
3.34214e-06
1.10775e-06
3.30444e-06
7.3306e-07
3.07004e-06
4.04009e-07
2.70508e-06
1.69636e-07
2.28921e-06
1.18512e-08
1.85444e-06
-6.17358e-08
1.45151e-06
-1.10177e-07
1.05555e-06
-1.01454e-07
6.62057e-07
-2.62132e-07
4.10546e-07
-6.23819e-07
4.62748e-07
-4.45881e-06
-1.02106e-05
-4.46751e-07
1.29832e-06
-2.98563e-07
1.47536e-06
6.36866e-08
1.4764e-06
5.45322e-07
1.44601e-06
1.10183e-06
1.42915e-06
1.66334e-06
1.37088e-06
2.16039e-06
1.26726e-06
2.53545e-06
1.10362e-06
2.75745e-06
8.85747e-07
2.80257e-06
6.8794e-07
2.70083e-06
5.05753e-07
2.48757e-06
3.82893e-07
2.20772e-06
2.91706e-07
1.87901e-06
2.66968e-07
1.51083e-06
2.58002e-07
1.13755e-06
2.71828e-07
8.57578e-07
1.78423e-08
9.61042e-07
-7.27283e-07
1.01559e-06
-4.51336e-06
-9.19505e-06
-8.06849e-07
2.10517e-06
-5.2583e-07
1.19434e-06
-9.15771e-09
9.59728e-07
5.36433e-07
9.00422e-07
1.12355e-06
8.4203e-07
1.68831e-06
8.06127e-07
2.22024e-06
7.35325e-07
2.62908e-06
6.94783e-07
2.91249e-06
6.02337e-07
3.04192e-06
5.58514e-07
3.07949e-06
4.68179e-07
3.00631e-06
4.56073e-07
2.90146e-06
3.96561e-07
2.74799e-06
4.20436e-07
2.64511e-06
3.60879e-07
2.60893e-06
3.08016e-07
2.614e-06
1.27652e-08
2.86633e-06
-9.79607e-07
2.23496e-06
-3.88199e-06
-6.96008e-06
2.10517e-06
3.29951e-06
4.25924e-06
5.15966e-06
6.00169e-06
6.80781e-06
7.54314e-06
8.23792e-06
8.84026e-06
9.39877e-06
9.86695e-06
1.0323e-05
1.07196e-05
1.114e-05
1.15009e-05
1.18089e-05
1.18217e-05
1.08421e-05
6.96008e-06
)
;

boundaryField
{
    movingWall
    {
        type            calculated;
        value           uniform 0;
    }
    fixedWalls
    {
        type            calculated;
        value           uniform 0;
    }
    frontAndBack
    {
        type            empty;
    }
}


// ************************************************************************* //
