/*--------------------------------*- C++ -*----------------------------------*\
  =========                 |
  \\      /  F ield         | OpenFOAM: The Open Source CFD Toolbox
   \\    /   O peration     | Website:  https://openfoam.org
    \\  /    A nd           | Version:  12
     \\/     M anipulation  |
\*---------------------------------------------------------------------------*/
FoamFile
{
    format      ascii;
    class       volVectorField;
    location    "3.5";
    object      U;
}
// * * * * * * * * * * * * * * * * * * * * * * * * * * * * * * * * * * * * * //

dimensions      [0 1 -1 0 0 0 0];

internalField   nonuniform List<vector> 
400
(
(0.000573553 -0.000960987 0)
(0.00105281 -0.00113735 0)
(0.000696789 -0.000738061 0)
(-0.00702204 0.000974975 0)
(-0.0198542 0.0100763 0)
(-0.0601796 0.0186233 0)
(-0.0857831 0.0106826 0)
(-0.103028 0.0115082 0)
(-0.118178 0.00774528 0)
(-0.125851 0.00665211 0)
(-0.13305 0.00543252 0)
(-0.136299 0.00333967 0)
(-0.138758 0.00306706 0)
(-0.139535 0.00119386 0)
(-0.136768 -0.000791368 0)
(-0.128353 -0.00444919 0)
(-0.112857 -0.00971905 0)
(-0.0871138 -0.0163708 0)
(-0.0513645 -0.0196759 0)
(-0.0195666 -0.00831985 0)
(-0.000845509 -0.00064061 0)
(-0.00466175 0.00143967 0)
(-0.0144643 0.00867337 0)
(-0.0404674 0.0260368 0)
(-0.0713451 0.0419166 0)
(-0.0929444 0.0365228 0)
(-0.107352 0.0304696 0)
(-0.119012 0.0220363 0)
(-0.128035 0.0152071 0)
(-0.131695 0.00982207 0)
(-0.134634 0.00481609 0)
(-0.13402 0.00102704 0)
(-0.133748 -0.00263973 0)
(-0.131505 -0.00581629 0)
(-0.12906 -0.0102652 0)
(-0.121622 -0.0179434 0)
(-0.110263 -0.0307073 0)
(-0.0887722 -0.0500122 0)
(-0.0590934 -0.0684688 0)
(-0.0274697 -0.0576295 0)
(-0.00284558 0.00468445 0)
(-0.0128552 0.0144112 0)
(-0.0348522 0.0351672 0)
(-0.0637201 0.0544791 0)
(-0.081448 0.057942 0)
(-0.0923784 0.0488203 0)
(-0.100653 0.0380805 0)
(-0.103701 0.0295984 0)
(-0.102073 0.0200498 0)
(-0.0990937 0.0130166 0)
(-0.0938972 0.00568047 0)
(-0.089753 0.00123488 0)
(-0.0862682 -0.00269907 0)
(-0.0823969 -0.00643277 0)
(-0.0822268 -0.0105908 0)
(-0.0797784 -0.0190486 0)
(-0.0771892 -0.0352328 0)
(-0.0658368 -0.0648463 0)
(-0.046258 -0.0958385 0)
(-0.0236808 -0.102462 0)
(-0.00494064 0.0163726 0)
(-0.0197404 0.0344936 0)
(-0.044826 0.0586627 0)
(-0.063728 0.0705257 0)
(-0.0745299 0.0681952 0)
(-0.0784178 0.0552526 0)
(-0.0794554 0.0432596 0)
(-0.0803987 0.0304434 0)
(-0.0802685 0.0178768 0)
(-0.0788347 0.00870388 0)
(-0.0733858 -0.000505712 0)
(-0.0678236 -0.00461416 0)
(-0.0602959 -0.00801501 0)
(-0.0518922 -0.0103736 0)
(-0.0466511 -0.0119896 0)
(-0.0430613 -0.0179868 0)
(-0.0442279 -0.0314227 0)
(-0.0418944 -0.0665829 0)
(-0.0380339 -0.112494 0)
(-0.011299 -0.130386 0)
(-0.00553048 0.0301306 0)
(-0.0214994 0.0530977 0)
(-0.0425412 0.0758843 0)
(-0.0534209 0.0817998 0)
(-0.0614248 0.0742911 0)
(-0.0629436 0.0583033 0)
(-0.0684935 0.0461115 0)
(-0.0752274 0.0321168 0)
(-0.0776671 0.018377 0)
(-0.077631 0.00584993 0)
(-0.0718433 -0.00662166 0)
(-0.0644772 -0.0143811 0)
(-0.0546908 -0.0197388 0)
(-0.0436153 -0.0220107 0)
(-0.0335462 -0.0219607 0)
(-0.0267397 -0.0239431 0)
(-0.0257666 -0.0303701 0)
(-0.0207525 -0.0602037 0)
(-0.0279317 -0.11904 0)
(-0.00784335 -0.153851 0)
(-0.00474287 0.0435468 0)
(-0.0186661 0.0688041 0)
(-0.0346796 0.0872029 0)
(-0.0424448 0.0898834 0)
(-0.0493593 0.0795953 0)
(-0.0527752 0.0632052 0)
(-0.0631915 0.0513226 0)
(-0.071504 0.0372742 0)
(-0.0738736 0.0204984 0)
(-0.0751905 0.00365631 0)
(-0.069796 -0.0129747 0)
(-0.0628201 -0.0242316 0)
(-0.0528242 -0.0312868 0)
(-0.041369 -0.0335481 0)
(-0.0300344 -0.0323571 0)
(-0.020388 -0.0332788 0)
(-0.0174902 -0.0362077 0)
(-0.0090299 -0.0631029 0)
(-0.0212002 -0.119095 0)
(-0.00130168 -0.167966 0)
(-0.0027632 0.0538246 0)
(-0.0132338 0.0802577 0)
(-0.0242961 0.0962238 0)
(-0.0307545 0.0971174 0)
(-0.0379091 0.0847768 0)
(-0.0428993 0.0696439 0)
(-0.0539147 0.0593932 0)
(-0.061534 0.0430123 0)
(-0.0638023 0.0229196 0)
(-0.0651585 0.00248159 0)
(-0.0611407 -0.0183593 0)
(-0.0550176 -0.0340194 0)
(-0.0464878 -0.043237 0)
(-0.0358202 -0.0458822 0)
(-0.0255775 -0.0428774 0)
(-0.0153342 -0.0410308 0)
(-0.0142226 -0.039706 0)
(-0.00214386 -0.0616527 0)
(-0.017931 -0.12035 0)
(-0.000126786 -0.180703 0)
(-0.00131299 0.0617575 0)
(-0.00638277 0.0886291 0)
(-0.0138648 0.102982 0)
(-0.0181784 0.103669 0)
(-0.0243443 0.0925299 0)
(-0.0293272 0.0778369 0)
(-0.0389332 0.0663375 0)
(-0.0442524 0.048588 0)
(-0.0454958 0.0259711 0)
(-0.0472713 0.00264384 0)
(-0.0452704 -0.0210618 0)
(-0.0406553 -0.0403987 0)
(-0.0347219 -0.052059 0)
(-0.026709 -0.0555646 0)
(-0.0201854 -0.0524918 0)
(-0.00896271 -0.0487747 0)
(-0.0113631 -0.045406 0)
(0.00259598 -0.0632388 0)
(-0.0151304 -0.116982 0)
(0.00365755 -0.188319 0)
(0.00135502 0.0629087 0)
(0.00101317 0.0917618 0)
(-0.00295103 0.107838 0)
(-0.00469844 0.107746 0)
(-0.0103168 0.0976231 0)
(-0.0130264 0.0843867 0)
(-0.0191505 0.0717231 0)
(-0.022547 0.0527887 0)
(-0.0225781 0.0285974 0)
(-0.024377 0.00339317 0)
(-0.0241005 -0.0216632 0)
(-0.0213259 -0.0440924 0)
(-0.0185212 -0.05715 0)
(-0.0135028 -0.0611405 0)
(-0.0116006 -0.0583582 0)
(-0.00135476 -0.0525293 0)
(-0.00834376 -0.0474479 0)
(0.00611017 -0.0616085 0)
(-0.0138664 -0.115796 0)
(0.00423463 -0.196113 0)
(0.00220567 0.0610516 0)
(0.00732788 0.0916185 0)
(0.00772711 0.109297 0)
(0.00868279 0.111783 0)
(0.00608062 0.103483 0)
(0.0045136 0.0887365 0)
(0.00209481 0.0753294 0)
(0.00105707 0.0554433 0)
(0.00139735 0.0309065 0)
(0.000301695 0.00515705 0)
(-0.000610856 -0.0205453 0)
(0.000279141 -0.0434839 0)
(-0.000935533 -0.0586534 0)
(0.00115644 -0.0634067 0)
(-0.00116658 -0.0610854 0)
(0.00520619 -0.054067 0)
(-0.00481652 -0.0496643 0)
(0.00956564 -0.0601437 0)
(-0.0136207 -0.111029 0)
(0.00744764 -0.200902 0)
(0.0031787 0.0556287 0)
(0.0129892 0.0864755 0)
(0.0166268 0.107054 0)
(0.0215459 0.110206 0)
(0.0222915 0.104903 0)
(0.0228283 0.0918132 0)
(0.0225384 0.0761263 0)
(0.0227699 0.0562035 0)
(0.0236987 0.0317668 0)
(0.0232274 0.00616317 0)
(0.0220164 -0.0196909 0)
(0.0221383 -0.0425305 0)
(0.0181828 -0.0570126 0)
(0.0158664 -0.0615601 0)
(0.00953403 -0.0592365 0)
(0.0121917 -0.05183 0)
(-0.00129646 -0.0480421 0)
(0.0130508 -0.0559976 0)
(-0.0139821 -0.108724 0)
(0.00848751 -0.206356 0)
(0.00463188 0.0464447 0)
(0.0151862 0.0774133 0)
(0.0240304 0.101712 0)
(0.032213 0.106786 0)
(0.0356261 0.102416 0)
(0.0386164 0.0910691 0)
(0.0403531 0.0745562 0)
(0.0418089 0.0547102 0)
(0.0433729 0.031203 0)
(0.0438095 0.0069602 0)
(0.0427573 -0.017371 0)
(0.0417025 -0.0387552 0)
(0.0351913 -0.0524873 0)
(0.0293743 -0.0566038 0)
(0.0183922 -0.0539306 0)
(0.0182843 -0.0472511 0)
(0.00184063 -0.0446002 0)
(0.0160817 -0.0519271 0)
(-0.0154295 -0.102398 0)
(0.0120468 -0.209674 0)
(0.00561382 0.0368134 0)
(0.013619 0.0654307 0)
(0.0280169 0.0877806 0)
(0.0396672 0.099076 0)
(0.0474342 0.0975621 0)
(0.0524908 0.0882864 0)
(0.0563134 0.0728892 0)
(0.0595007 0.053583 0)
(0.0608634 0.0316215 0)
(0.0622345 0.00860306 0)
(0.060678 -0.0142016 0)
(0.0577897 -0.0336846 0)
(0.0481666 -0.0452654 0)
(0.0391006 -0.0482979 0)
(0.0255281 -0.045742 0)
(0.0232355 -0.040802 0)
(0.00438389 -0.0385663 0)
(0.0189935 -0.044918 0)
(-0.0174028 -0.099677 0)
(0.0141375 -0.21364 0)
(0.00474816 0.0276396 0)
(0.0115469 0.0555511 0)
(0.0252059 0.0717626 0)
(0.0400556 0.0865451 0)
(0.0522191 0.0887982 0)
(0.0609148 0.0825948 0)
(0.0671097 0.0690223 0)
(0.072287 0.0518343 0)
(0.0743006 0.0310309 0)
(0.0756821 0.00962858 0)
(0.0721331 -0.0105859 0)
(0.0672072 -0.0262903 0)
(0.0554307 -0.0354738 0)
(0.0445989 -0.0376176 0)
(0.0294848 -0.0355814 0)
(0.0255773 -0.0324434 0)
(0.00478345 -0.0318631 0)
(0.0210739 -0.0376239 0)
(-0.0200924 -0.0934861 0)
(0.018902 -0.215707 0)
(0.00263799 0.0203309 0)
(0.00940437 0.045452 0)
(0.0191982 0.0567689 0)
(0.0335874 0.0690992 0)
(0.0483021 0.0734984 0)
(0.0611157 0.0709937 0)
(0.0697504 0.060607 0)
(0.0764735 0.045637 0)
(0.0785963 0.0282679 0)
(0.0794234 0.0113994 0)
(0.075785 -0.00475268 0)
(0.0697098 -0.0176244 0)
(0.0569953 -0.0244924 0)
(0.0459311 -0.0259083 0)
(0.0314989 -0.0248929 0)
(0.0270724 -0.0231068 0)
(0.00622639 -0.0241911 0)
(0.0221173 -0.0289754 0)
(-0.0207721 -0.0904432 0)
(0.0232242 -0.218274 0)
(-2.8924e-05 0.016122 0)
(0.00533039 0.0404865 0)
(0.0113634 0.0482078 0)
(0.0227667 0.0551173 0)
(0.0368546 0.0585242 0)
(0.0511405 0.0572558 0)
(0.0619419 0.0504507 0)
(0.0714266 0.0402148 0)
(0.0754405 0.0271737 0)
(0.0768705 0.0130976 0)
(0.0723218 0.000139714 0)
(0.0656101 -0.0086434 0)
(0.0537215 -0.0132748 0)
(0.0443925 -0.0148603 0)
(0.0315737 -0.0149001 0)
(0.0269952 -0.013657 0)
(0.00765107 -0.016129 0)
(0.0221101 -0.0206587 0)
(-0.0183332 -0.0885556 0)
(0.0304085 -0.219216 0)
(-0.00331697 0.0155229 0)
(0.000790242 0.0331846 0)
(0.00638763 0.0392775 0)
(0.0153105 0.0422992 0)
(0.0269096 0.0441607 0)
(0.0399462 0.0429492 0)
(0.050938 0.0386311 0)
(0.0601022 0.031724 0)
(0.0652174 0.023224 0)
(0.0674241 0.013849 0)
(0.0643033 0.00596376 0)
(0.059256 0.000209864 0)
(0.0500723 -0.00358857 0)
(0.0426629 -0.00563855 0)
(0.0319701 -0.00631617 0)
(0.0277847 -0.00724699 0)
(0.0105337 -0.0114771 0)
(0.021316 -0.0156341 0)
(-0.0119479 -0.0922905 0)
(0.0389928 -0.222696 0)
(-0.0078531 0.0200144 0)
(-0.00852244 0.0335838 0)
(-0.00298647 0.0357057 0)
(0.00587316 0.0357744 0)
(0.0159885 0.0358571 0)
(0.0277017 0.0344182 0)
(0.0379706 0.0312391 0)
(0.0470246 0.0261925 0)
(0.053121 0.0197187 0)
(0.056357 0.0143618 0)
(0.0554907 0.00961139 0)
(0.0529466 0.0064243 0)
(0.0471425 0.00401709 0)
(0.0420863 0.00327014 0)
(0.0332624 0.00230193 0)
(0.0284243 0.00392581 0)
(0.0142611 0.00268793 0)
(0.0242254 -0.00989443 0)
(0.0032566 -0.0995175 0)
(0.0522811 -0.218484 0)
(-0.01331 0.035646 0)
(-0.0163381 0.0216801 0)
(-0.00520496 0.0196747 0)
(0.00495043 0.0194984 0)
(0.0162237 0.0191604 0)
(0.0280917 0.0181751 0)
(0.0388952 0.0171484 0)
(0.0484998 0.0156225 0)
(0.0556476 0.0136943 0)
(0.0600208 0.0114315 0)
(0.0617776 0.0092829 0)
(0.0614508 0.00780421 0)
(0.0595218 0.00683802 0)
(0.05738 0.00660809 0)
(0.0535336 0.00690492 0)
(0.0527664 0.00488418 0)
(0.0459301 -0.00311187 0)
(0.0523957 -0.026507 0)
(0.0436771 -0.103611 0)
(0.0758858 -0.178074 0)
(0.0446501 0.0409397 0)
(0.0505525 0.0303714 0)
(0.073932 0.0228977 0)
(0.0933712 0.0196012 0)
(0.113512 0.0169455 0)
(0.127119 0.0162774 0)
(0.144434 0.0142798 0)
(0.156223 0.0141655 0)
(0.171334 0.0121059 0)
(0.181525 0.0123433 0)
(0.193529 0.0103886 0)
(0.201988 0.0111174 0)
(0.210707 0.00924707 0)
(0.218122 0.0104161 0)
(0.223684 0.00851795 0)
(0.230228 0.00969572 0)
(0.232642 0.00518634 0)
(0.225384 -0.0012173 0)
(0.195004 -0.0129697 0)
(0.146462 -0.031445 0)
)
;

boundaryField
{
    movingWall
    {
        type            fixedValue;
        value           uniform (1 0 0);
    }
    fixedWalls
    {
        type            noSlip;
    }
    frontAndBack
    {
        type            empty;
    }
}


// ************************************************************************* //
