/*--------------------------------*- C++ -*----------------------------------*\
  =========                 |
  \\      /  F ield         | OpenFOAM: The Open Source CFD Toolbox
   \\    /   O peration     | Website:  https://openfoam.org
    \\  /    A nd           | Version:  12
     \\/     M anipulation  |
\*---------------------------------------------------------------------------*/
FoamFile
{
    format      ascii;
    class       volScalarField;
    location    "11";
    object      p;
}
// * * * * * * * * * * * * * * * * * * * * * * * * * * * * * * * * * * * * * //

dimensions      [1 -1 -2 0 0 0 0];

internalField   nonuniform List<scalar> 
3829
(
-617.938
-617.937
-617.935
-617.932
-617.927
-617.921
-617.914
-617.906
-617.895
-617.883
-617.87
-617.854
-617.837
-617.817
-617.795
-617.771
-617.744
-617.714
-617.682
-617.646
-617.608
-617.567
-617.522
-617.474
-617.424
-617.37
-617.313
-617.253
-617.19
-617.124
-617.056
-616.985
-616.913
-616.838
-616.762
-616.685
-616.607
-616.528
-616.449
-616.371
-616.292
-616.215
-616.139
-616.064
-615.992
-615.922
-615.855
-615.791
-615.731
-615.675
-615.622
-615.574
-615.529
-615.489
-615.454
-615.422
-615.395
-615.372
-615.353
-615.338
-615.327
-615.318
-615.313
-615.311
-615.311
-615.312
-615.315
-615.318
-615.321
-615.324
-615.325
-615.325
-615.322
-615.317
-615.308
-615.295
-615.277
-615.255
-615.228
-615.196
-615.157
-615.113
-615.064
-615.01
-614.952
-614.89
-614.824
-614.755
-614.684
-614.613
-614.541
-614.47
-614.402
-614.337
-614.276
-614.221
-614.172
-614.131
-614.098
-614.073
-614.057
-614.052
-614.055
-614.068
-614.089
-614.118
-614.153
-614.194
-614.239
-614.286
-614.334
-614.38
-614.423
-614.462
-614.494
-614.519
-614.536
-614.543
-614.538
-614.523
-614.498
-614.466
-614.426
-614.381
-614.332
-614.282
-614.233
-614.189
-614.15
-614.119
-614.099
-614.089
-614.092
-614.107
-614.134
-614.171
-614.216
-614.268
-614.322
-614.377
-614.428
-614.473
-614.509
-614.534
-614.546
-614.544
-614.529
-614.503
-614.467
-614.425
-614.378
-614.333
-614.291
-614.257
-614.231
-614.216
-614.214
-614.222
-614.239
-614.263
-614.291
-614.319
-614.345
-614.364
-614.377
-614.382
-614.376
-614.364
-614.347
-614.329
-614.311
-614.296
-614.287
-614.286
-614.291
-614.302
-614.318
-614.335
-614.352
-614.365
-614.372
-614.372
-614.364
-614.35
-614.332
-614.311
-614.29
-614.27
-614.255
-614.245
-614.241
-614.243
-614.25
-614.261
-614.274
-614.288
-614.301
-614.312
-614.32
-614.324
-1776.41
-1776.41
-1776.41
-1776.4
-1776.4
-1776.4
-1776.39
-1776.39
-1776.38
-1776.37
-1776.36
-1776.35
-1776.33
-1776.32
-1776.3
-1776.27
-1776.25
-1776.22
-1776.19
-1776.15
-1776.11
-1776.07
-1776.02
-1775.97
-1775.91
-1775.85
-1775.78
-1775.71
-1775.64
-1775.57
-1775.49
-1775.41
-1775.32
-1775.23
-1775.15
-1775.06
-1774.96
-1774.87
-1774.78
-1774.69
-1774.6
-1774.51
-1774.42
-1774.34
-1774.26
-1774.18
-1774.11
-1774.04
-1773.98
-1773.92
-1773.86
-1773.82
-1773.77
-1773.73
-1773.7
-1773.68
-1773.65
-1773.64
-1773.63
-1773.62
-1773.62
-1773.62
-1773.62
-1773.63
-1773.64
-1773.66
-1773.67
-1773.68
-1773.7
-1773.71
-1773.72
-1773.73
-1773.74
-1773.74
-1773.74
-1773.73
-1773.71
-1773.7
-1773.67
-1773.64
-1773.59
-1773.55
-1773.49
-1773.43
-1773.37
-1773.29
-1773.22
-1773.14
-1773.06
-1772.97
-1772.89
-1772.81
-1772.73
-1772.66
-1772.59
-1772.52
-1772.47
-1772.42
-1772.38
-1772.36
-1772.34
-1772.34
-1772.35
-1772.37
-1772.4
-1772.44
-1772.48
-1772.54
-1772.59
-1772.65
-1772.71
-1772.77
-1772.83
-1772.87
-1772.91
-1772.94
-1772.96
-1772.97
-1772.96
-1772.94
-1772.91
-1772.87
-1772.82
-1772.77
-1772.71
-1772.64
-1772.58
-1772.53
-1772.48
-1772.44
-1772.42
-1772.41
-1772.41
-1772.43
-1772.46
-1772.51
-1772.56
-1772.63
-1772.69
-1772.76
-1772.82
-1772.87
-1772.92
-1772.95
-1772.96
-1772.95
-1772.93
-1772.9
-1772.86
-1772.8
-1772.75
-1772.69
-1772.64
-1772.6
-1772.57
-1772.56
-1772.56
-1772.57
-1772.59
-1772.62
-1772.66
-1772.69
-1772.73
-1772.75
-1772.76
-1772.77
-1772.76
-1772.74
-1772.72
-1772.7
-1772.67
-1772.66
-1772.65
-1772.64
-1772.65
-1772.67
-1772.69
-1772.71
-1772.73
-1772.74
-1772.75
-1772.75
-1772.74
-1772.73
-1772.7
-1772.68
-1772.66
-1772.64
-1772.62
-1772.61
-1772.6
-1772.61
-1772.62
-1772.63
-1772.64
-1772.66
-1772.67
-1772.68
-1772.69
-1772.7
-2802.72
-2802.72
-2802.72
-2802.72
-2802.72
-2802.73
-2802.73
-2802.73
-2802.73
-2802.73
-2802.73
-2802.73
-2802.73
-2802.72
-2802.71
-2802.7
-2802.68
-2802.65
-2802.63
-2802.59
-2802.55
-2802.5
-2802.45
-2802.39
-2802.32
-2802.24
-2802.16
-2802.08
-2801.98
-2801.88
-2801.78
-2801.68
-2801.57
-2801.45
-2801.34
-2801.22
-2801.11
-2800.99
-2800.87
-2800.76
-2800.65
-2800.54
-2800.43
-2800.33
-2800.24
-2800.15
-2800.06
-2799.98
-2799.91
-2799.85
-2799.79
-2799.74
-2799.7
-2799.67
-2799.64
-2799.62
-2799.61
-2799.61
-2799.61
-2799.62
-2799.64
-2799.66
-2799.68
-2799.71
-2799.74
-2799.78
-2799.81
-2799.85
-2799.88
-2799.91
-2799.94
-2799.97
-2799.99
-2800
-2800.01
-2800.01
-2800
-2799.99
-2799.96
-2799.93
-2799.88
-2799.83
-2799.76
-2799.69
-2799.61
-2799.52
-2799.43
-2799.33
-2799.23
-2799.12
-2799.02
-2798.91
-2798.81
-2798.72
-2798.63
-2798.56
-2798.49
-2798.43
-2798.39
-2798.36
-2798.35
-2798.35
-2798.37
-2798.4
-2798.45
-2798.51
-2798.57
-2798.65
-2798.73
-2798.81
-2798.9
-2798.98
-2799.05
-2799.11
-2799.17
-2799.21
-2799.23
-2799.24
-2799.23
-2799.2
-2799.16
-2799.1
-2799.03
-2798.96
-2798.87
-2798.79
-2798.71
-2798.63
-2798.57
-2798.52
-2798.49
-2798.47
-2798.48
-2798.5
-2798.55
-2798.61
-2798.69
-2798.77
-2798.86
-2798.94
-2799.02
-2799.09
-2799.15
-2799.18
-2799.19
-2799.18
-2799.16
-2799.11
-2799.05
-2798.98
-2798.9
-2798.83
-2798.77
-2798.72
-2798.68
-2798.67
-2798.67
-2798.69
-2798.73
-2798.77
-2798.82
-2798.87
-2798.91
-2798.94
-2798.95
-2798.96
-2798.94
-2798.92
-2798.89
-2798.85
-2798.82
-2798.8
-2798.79
-2798.78
-2798.79
-2798.81
-2798.84
-2798.87
-2798.9
-2798.92
-2798.93
-2798.93
-2798.92
-2798.9
-2798.87
-2798.84
-2798.81
-2798.79
-2798.77
-2798.76
-2798.75
-2798.76
-2798.77
-2798.78
-2798.8
-2798.82
-2798.84
-2798.85
-2798.86
-2798.86
-3711.85
-3711.86
-3711.86
-3711.88
-3711.89
-3711.91
-3711.93
-3711.95
-3711.98
-3712
-3712.03
-3712.05
-3712.07
-3712.09
-3712.1
-3712.11
-3712.11
-3712.1
-3712.08
-3712.05
-3712.01
-3711.96
-3711.89
-3711.82
-3711.73
-3711.63
-3711.53
-3711.41
-3711.28
-3711.15
-3711.01
-3710.86
-3710.71
-3710.56
-3710.4
-3710.24
-3710.08
-3709.93
-3709.78
-3709.63
-3709.48
-3709.34
-3709.21
-3709.08
-3708.96
-3708.85
-3708.76
-3708.67
-3708.59
-3708.53
-3708.47
-3708.42
-3708.39
-3708.37
-3708.35
-3708.35
-3708.36
-3708.37
-3708.4
-3708.44
-3708.48
-3708.53
-3708.58
-3708.64
-3708.7
-3708.77
-3708.84
-3708.9
-3708.97
-3709.03
-3709.08
-3709.13
-3709.17
-3709.21
-3709.23
-3709.24
-3709.24
-3709.23
-3709.2
-3709.17
-3709.11
-3709.05
-3708.97
-3708.88
-3708.77
-3708.66
-3708.54
-3708.41
-3708.28
-3708.14
-3708
-3707.87
-3707.74
-3707.62
-3707.51
-3707.41
-3707.33
-3707.26
-3707.21
-3707.18
-3707.17
-3707.18
-3707.21
-3707.26
-3707.33
-3707.42
-3707.52
-3707.62
-3707.74
-3707.86
-3707.97
-3708.08
-3708.19
-3708.27
-3708.35
-3708.4
-3708.43
-3708.44
-3708.42
-3708.38
-3708.32
-3708.24
-3708.14
-3708.04
-3707.92
-3707.8
-3707.69
-3707.59
-3707.5
-3707.43
-3707.39
-3707.37
-3707.38
-3707.42
-3707.48
-3707.57
-3707.67
-3707.78
-3707.9
-3708.02
-3708.13
-3708.22
-3708.29
-3708.33
-3708.34
-3708.33
-3708.28
-3708.22
-3708.13
-3708.04
-3707.93
-3707.84
-3707.75
-3707.69
-3707.65
-3707.63
-3707.64
-3707.67
-3707.73
-3707.79
-3707.86
-3707.93
-3707.98
-3708.02
-3708.04
-3708.04
-3708.02
-3707.98
-3707.94
-3707.89
-3707.84
-3707.81
-3707.79
-3707.79
-3707.81
-3707.84
-3707.87
-3707.91
-3707.95
-3707.98
-3707.99
-3707.99
-3707.98
-3707.95
-3707.92
-3707.88
-3707.84
-3707.81
-3707.79
-3707.78
-3707.78
-3707.78
-3707.8
-3707.82
-3707.84
-3707.86
-3707.88
-3707.9
-3707.91
-3707.91
-4517.16
-4517.17
-4517.19
-4517.22
-4517.26
-4517.31
-4517.37
-4517.44
-4517.52
-4517.59
-4517.67
-4517.75
-4517.82
-4517.89
-4517.94
-4517.99
-4518.02
-4518.04
-4518.04
-4518.01
-4517.97
-4517.91
-4517.83
-4517.73
-4517.61
-4517.47
-4517.31
-4517.14
-4516.96
-4516.77
-4516.56
-4516.35
-4516.14
-4515.92
-4515.71
-4515.49
-4515.28
-4515.07
-4514.86
-4514.67
-4514.48
-4514.3
-4514.14
-4513.99
-4513.85
-4513.72
-4513.6
-4513.5
-4513.42
-4513.35
-4513.29
-4513.25
-4513.22
-4513.22
-4513.22
-4513.24
-4513.27
-4513.32
-4513.38
-4513.45
-4513.52
-4513.61
-4513.71
-4513.81
-4513.91
-4514.02
-4514.12
-4514.23
-4514.33
-4514.43
-4514.52
-4514.6
-4514.67
-4514.72
-4514.77
-4514.79
-4514.8
-4514.8
-4514.77
-4514.72
-4514.66
-4514.58
-4514.48
-4514.36
-4514.23
-4514.08
-4513.92
-4513.75
-4513.58
-4513.4
-4513.23
-4513.05
-4512.88
-4512.73
-4512.58
-4512.46
-4512.35
-4512.27
-4512.21
-4512.18
-4512.18
-4512.2
-4512.25
-4512.33
-4512.42
-4512.55
-4512.68
-4512.83
-4512.99
-4513.16
-4513.32
-4513.47
-4513.61
-4513.73
-4513.82
-4513.89
-4513.93
-4513.94
-4513.91
-4513.86
-4513.77
-4513.66
-4513.52
-4513.37
-4513.22
-4513.06
-4512.9
-4512.77
-4512.65
-4512.56
-4512.5
-4512.48
-4512.5
-4512.55
-4512.63
-4512.75
-4512.89
-4513.04
-4513.2
-4513.36
-4513.5
-4513.62
-4513.71
-4513.76
-4513.77
-4513.75
-4513.69
-4513.59
-4513.48
-4513.34
-4513.21
-4513.08
-4512.97
-4512.89
-4512.84
-4512.82
-4512.84
-4512.89
-4512.97
-4513.06
-4513.15
-4513.24
-4513.32
-4513.37
-4513.39
-4513.38
-4513.35
-4513.3
-4513.23
-4513.17
-4513.11
-4513.06
-4513.04
-4513.04
-4513.06
-4513.1
-4513.15
-4513.21
-4513.26
-4513.29
-4513.31
-4513.31
-4513.29
-4513.26
-4513.21
-4513.17
-4513.12
-4513.08
-4513.06
-4513.05
-4513.05
-4513.06
-4513.08
-4513.1
-4513.13
-4513.15
-4513.18
-4513.19
-4513.2
-4513.21
-5230.07
-5230.09
-5230.14
-5230.2
-5230.29
-5230.4
-5230.53
-5230.67
-5230.82
-5230.98
-5231.13
-5231.29
-5231.44
-5231.59
-5231.72
-5231.84
-5231.94
-5232.01
-5232.07
-5232.1
-5232.1
-5232.07
-5232
-5231.89
-5231.75
-5231.56
-5231.35
-5231.11
-5230.84
-5230.55
-5230.26
-5229.96
-5229.65
-5229.34
-5229.04
-5228.74
-5228.46
-5228.18
-5227.91
-5227.66
-5227.43
-5227.21
-5227
-5226.82
-5226.65
-5226.5
-5226.37
-5226.27
-5226.18
-5226.12
-5226.07
-5226.05
-5226.04
-5226.05
-5226.09
-5226.14
-5226.2
-5226.29
-5226.39
-5226.5
-5226.62
-5226.76
-5226.9
-5227.05
-5227.21
-5227.36
-5227.52
-5227.67
-5227.82
-5227.96
-5228.09
-5228.21
-5228.31
-5228.4
-5228.46
-5228.51
-5228.53
-5228.53
-5228.5
-5228.45
-5228.37
-5228.26
-5228.14
-5227.99
-5227.81
-5227.63
-5227.42
-5227.2
-5226.98
-5226.75
-5226.52
-5226.3
-5226.08
-5225.88
-5225.7
-5225.54
-5225.41
-5225.31
-5225.24
-5225.21
-5225.21
-5225.25
-5225.32
-5225.43
-5225.57
-5225.73
-5225.92
-5226.12
-5226.34
-5226.56
-5226.77
-5226.97
-5227.15
-5227.31
-5227.44
-5227.52
-5227.57
-5227.58
-5227.54
-5227.46
-5227.34
-5227.19
-5227.01
-5226.81
-5226.6
-5226.39
-5226.19
-5226
-5225.85
-5225.73
-5225.66
-5225.63
-5225.66
-5225.73
-5225.85
-5226
-5226.19
-5226.39
-5226.6
-5226.81
-5226.99
-5227.14
-5227.25
-5227.32
-5227.33
-5227.29
-5227.2
-5227.07
-5226.92
-5226.74
-5226.56
-5226.4
-5226.26
-5226.15
-5226.09
-5226.08
-5226.11
-5226.18
-5226.29
-5226.41
-5226.54
-5226.66
-5226.76
-5226.82
-5226.84
-5226.83
-5226.78
-5226.71
-5226.62
-5226.53
-5226.45
-5226.4
-5226.37
-5226.37
-5226.4
-5226.46
-5226.52
-5226.6
-5226.66
-5226.7
-5226.73
-5226.73
-5226.7
-5226.66
-5226.6
-5226.54
-5226.49
-5226.44
-5226.41
-5226.4
-5226.4
-5226.42
-5226.44
-5226.47
-5226.51
-5226.54
-5226.56
-5226.58
-5226.59
-5226.6
-5861.26
-5861.31
-5861.42
-5861.58
-5861.79
-5862.04
-5862.34
-5862.67
-5863.03
-5863.42
-5863.82
-5864.23
-5864.63
-5865
-5865.33
-5865.6
-5865.82
-5865.96
-5866.04
-5866.05
-5865.99
-5865.86
-5865.66
-5865.41
-5865.11
-5864.73
-5864.34
-5863.91
-5863.47
-5863.03
-5862.58
-5862.13
-5861.7
-5861.27
-5860.86
-5860.47
-5860.09
-5859.74
-5859.41
-5859.1
-5858.81
-5858.55
-5858.31
-5858.1
-5857.92
-5857.76
-5857.62
-5857.51
-5857.43
-5857.37
-5857.34
-5857.33
-5857.35
-5857.39
-5857.45
-5857.54
-5857.65
-5857.78
-5857.93
-5858.09
-5858.27
-5858.47
-5858.67
-5858.88
-5859.09
-5859.31
-5859.52
-5859.73
-5859.94
-5860.13
-5860.31
-5860.47
-5860.61
-5860.72
-5860.81
-5860.88
-5860.91
-5860.91
-5860.88
-5860.82
-5860.72
-5860.59
-5860.43
-5860.24
-5860.02
-5859.78
-5859.52
-5859.25
-5858.96
-5858.67
-5858.39
-5858.1
-5857.83
-5857.58
-5857.36
-5857.16
-5857
-5856.87
-5856.79
-5856.75
-5856.77
-5856.83
-5856.93
-5857.07
-5857.26
-5857.48
-5857.72
-5857.99
-5858.27
-5858.55
-5858.83
-5859.09
-5859.32
-5859.52
-5859.68
-5859.79
-5859.85
-5859.85
-5859.8
-5859.69
-5859.53
-5859.33
-5859.1
-5858.84
-5858.56
-5858.29
-5858.03
-5857.8
-5857.6
-5857.45
-5857.36
-5857.33
-5857.37
-5857.46
-5857.62
-5857.82
-5858.06
-5858.32
-5858.59
-5858.85
-5859.08
-5859.27
-5859.41
-5859.48
-5859.49
-5859.44
-5859.32
-5859.15
-5858.95
-5858.72
-5858.49
-5858.29
-5858.11
-5857.98
-5857.91
-5857.9
-5857.95
-5858.05
-5858.19
-5858.35
-5858.52
-5858.67
-5858.79
-5858.87
-5858.9
-5858.87
-5858.81
-5858.71
-5858.59
-5858.47
-5858.37
-5858.3
-5858.27
-5858.27
-5858.32
-5858.39
-5858.48
-5858.57
-5858.65
-5858.7
-5858.73
-5858.73
-5858.7
-5858.64
-5858.57
-5858.5
-5858.43
-5858.38
-5858.35
-5858.33
-5858.34
-5858.36
-5858.39
-5858.43
-5858.47
-5858.5
-5858.53
-5858.55
-5858.57
-5858.57
-6418.96
-6419.07
-6419.3
-6419.66
-6420.07
-6420.53
-6421.05
-6421.61
-6422.23
-6422.83
-6423.43
-6423.98
-6424.48
-6424.93
-6425.32
-6425.66
-6425.96
-6426.22
-6426.44
-6426.59
-6426.68
-6426.67
-6426.56
-6426.35
-6426.03
-6425.6
-6425.08
-6424.49
-6423.87
-6423.24
-6422.63
-6422.02
-6421.44
-6420.89
-6420.36
-6419.87
-6419.41
-6418.98
-6418.58
-6418.22
-6417.9
-6417.6
-6417.34
-6417.11
-6416.91
-6416.74
-6416.61
-6416.5
-6416.43
-6416.39
-6416.38
-6416.4
-6416.45
-6416.52
-6416.63
-6416.76
-6416.92
-6417.11
-6417.31
-6417.54
-6417.78
-6418.04
-6418.3
-6418.58
-6418.86
-6419.15
-6419.43
-6419.7
-6419.96
-6420.21
-6420.44
-6420.65
-6420.83
-6420.98
-6421.1
-6421.19
-6421.23
-6421.24
-6421.2
-6421.12
-6421
-6420.84
-6420.64
-6420.41
-6420.14
-6419.84
-6419.52
-6419.18
-6418.82
-6418.46
-6418.11
-6417.76
-6417.42
-6417.12
-6416.84
-6416.6
-6416.4
-6416.26
-6416.16
-6416.13
-6416.15
-6416.23
-6416.36
-6416.55
-6416.79
-6417.07
-6417.39
-6417.72
-6418.08
-6418.43
-6418.78
-6419.1
-6419.39
-6419.64
-6419.83
-6419.97
-6420.04
-6420.03
-6419.96
-6419.82
-6419.62
-6419.37
-6419.07
-6418.74
-6418.4
-6418.05
-6417.73
-6417.44
-6417.19
-6417.01
-6416.9
-6416.87
-6416.92
-6417.04
-6417.24
-6417.49
-6417.79
-6418.12
-6418.46
-6418.78
-6419.07
-6419.3
-6419.46
-6419.55
-6419.56
-6419.48
-6419.33
-6419.11
-6418.85
-6418.57
-6418.29
-6418.03
-6417.81
-6417.66
-6417.58
-6417.57
-6417.64
-6417.77
-6417.95
-6418.16
-6418.38
-6418.56
-6418.71
-6418.8
-6418.83
-6418.8
-6418.71
-6418.58
-6418.43
-6418.28
-6418.16
-6418.07
-6418.03
-6418.04
-6418.1
-6418.19
-6418.3
-6418.42
-6418.51
-6418.58
-6418.61
-6418.61
-6418.57
-6418.5
-6418.41
-6418.33
-6418.25
-6418.19
-6418.15
-6418.14
-6418.15
-6418.17
-6418.21
-6418.26
-6418.3
-6418.34
-6418.37
-6418.39
-6418.41
-6418.42
-6913.11
-6913.23
-6913.46
-6913.78
-6914.31
-6914.99
-6915.86
-6916.85
-6917.93
-6919.04
-6920.17
-6921.28
-6922.35
-6923.38
-6924.33
-6925.16
-6925.85
-6926.4
-6926.81
-6926.95
-6926.85
-6926.55
-6926.08
-6925.47
-6924.72
-6923.83
-6922.84
-6921.7
-6920.64
-6919.64
-6918.71
-6917.85
-6917.07
-6916.36
-6915.72
-6915.13
-6914.6
-6914.12
-6913.68
-6913.28
-6912.93
-6912.62
-6912.34
-6912.1
-6911.9
-6911.74
-6911.61
-6911.52
-6911.46
-6911.44
-6911.45
-6911.5
-6911.59
-6911.71
-6911.86
-6912.05
-6912.26
-6912.5
-6912.77
-6913.06
-6913.37
-6913.7
-6914.04
-6914.4
-6914.75
-6915.11
-6915.46
-6915.8
-6916.13
-6916.44
-6916.73
-6916.99
-6917.22
-6917.4
-6917.55
-6917.65
-6917.71
-6917.71
-6917.67
-6917.58
-6917.44
-6917.24
-6917
-6916.71
-6916.38
-6916.02
-6915.63
-6915.21
-6914.78
-6914.35
-6913.91
-6913.49
-6913.09
-6912.72
-6912.39
-6912.1
-6911.87
-6911.7
-6911.59
-6911.56
-6911.59
-6911.69
-6911.87
-6912.11
-6912.4
-6912.75
-6913.14
-6913.56
-6913.99
-6914.43
-6914.85
-6915.24
-6915.6
-6915.9
-6916.13
-6916.29
-6916.37
-6916.36
-6916.27
-6916.09
-6915.84
-6915.52
-6915.15
-6914.75
-6914.33
-6913.91
-6913.51
-6913.15
-6912.86
-6912.64
-6912.51
-6912.48
-6912.54
-6912.7
-6912.94
-6913.26
-6913.62
-6914.02
-6914.44
-6914.83
-6915.17
-6915.45
-6915.65
-6915.75
-6915.75
-6915.64
-6915.45
-6915.18
-6914.86
-6914.52
-6914.17
-6913.86
-6913.6
-6913.42
-6913.33
-6913.33
-6913.42
-6913.59
-6913.82
-6914.07
-6914.34
-6914.57
-6914.75
-6914.85
-6914.88
-6914.84
-6914.72
-6914.56
-6914.37
-6914.19
-6914.03
-6913.93
-6913.88
-6913.9
-6913.98
-6914.09
-6914.23
-6914.37
-6914.48
-6914.57
-6914.6
-6914.59
-6914.54
-6914.46
-6914.36
-6914.26
-6914.16
-6914.1
-6914.05
-6914.04
-6914.06
-6914.09
-6914.14
-6914.19
-6914.24
-6914.28
-6914.32
-6914.34
-6914.36
-6914.36
-7347.74
-7347.93
-7348.33
-7348.95
-7349.85
-7351.11
-7352.69
-7354.72
-7358.07
-7360.22
-7361.93
-7363.51
-7364.89
-7366.14
-7367.2
-7368.03
-7368.64
-7369.08
-7369.3
-7369.42
-7369.41
-7369.18
-7368.75
-7368.07
-7367.12
-7365.87
-7364.61
-7361.39
-7359.93
-7358.6
-7357.48
-7356.49
-7355.62
-7354.84
-7354.15
-7353.53
-7352.97
-7352.46
-7352.01
-7351.6
-7351.24
-7350.92
-7350.65
-7350.41
-7350.21
-7350.06
-7349.94
-7349.87
-7349.83
-7349.84
-7349.88
-7349.97
-7350.09
-7350.26
-7350.46
-7350.7
-7350.98
-7351.28
-7351.62
-7351.98
-7352.37
-7352.77
-7353.19
-7353.62
-7354.06
-7354.49
-7354.92
-7355.34
-7355.74
-7356.11
-7356.46
-7356.77
-7357.05
-7357.27
-7357.45
-7357.58
-7357.64
-7357.65
-7357.6
-7357.49
-7357.31
-7357.08
-7356.79
-7356.45
-7356.06
-7355.62
-7355.15
-7354.66
-7354.15
-7353.63
-7353.11
-7352.61
-7352.14
-7351.7
-7351.31
-7350.97
-7350.7
-7350.5
-7350.38
-7350.35
-7350.4
-7350.53
-7350.75
-7351.04
-7351.4
-7351.82
-7352.29
-7352.79
-7353.31
-7353.83
-7354.34
-7354.81
-7355.23
-7355.58
-7355.86
-7356.04
-7356.13
-7356.12
-7356
-7355.78
-7355.47
-7355.09
-7354.65
-7354.16
-7353.65
-7353.15
-7352.68
-7352.25
-7351.91
-7351.65
-7351.5
-7351.47
-7351.54
-7351.74
-7352.03
-7352.41
-7352.85
-7353.32
-7353.84
-7354.29
-7354.7
-7355.02
-7355.25
-7355.36
-7355.35
-7355.22
-7354.99
-7354.66
-7354.28
-7353.86
-7353.45
-7353.08
-7352.78
-7352.57
-7352.47
-7352.48
-7352.6
-7352.81
-7353.08
-7353.39
-7353.71
-7353.98
-7354.19
-7354.32
-7354.35
-7354.28
-7354.14
-7353.94
-7353.72
-7353.49
-7353.31
-7353.19
-7353.14
-7353.16
-7353.25
-7353.39
-7353.56
-7353.73
-7353.86
-7353.95
-7353.99
-7353.98
-7353.92
-7353.82
-7353.7
-7353.58
-7353.48
-7353.4
-7353.36
-7353.35
-7353.37
-7353.41
-7353.46
-7353.52
-7353.58
-7353.62
-7353.66
-7353.69
-7353.7
-7353.71
-7730.73
-7730.98
-7731.49
-7732.32
-7733.52
-7735.07
-7736.97
-7739.62
-7744.07
-7747.34
-7750.3
-7752.75
-7754.81
-7756.45
-7757.75
-7758.83
-7759.67
-7760.2
-7760.48
-7760.53
-7760.33
-7759.93
-7759.26
-7758.28
-7756.98
-7755.32
-7753.37
-7750.4
-7748.48
-7746.84
-7745.56
-7744.51
-7743.6
-7742.83
-7742.15
-7741.55
-7741.01
-7740.52
-7740.08
-7739.68
-7739.33
-7739.02
-7738.75
-7738.52
-7738.34
-7738.19
-7738.1
-7738.04
-7738.03
-7738.06
-7738.14
-7738.26
-7738.43
-7738.64
-7738.9
-7739.2
-7739.53
-7739.91
-7740.32
-7740.75
-7741.22
-7741.7
-7742.2
-7742.71
-7743.23
-7743.75
-7744.25
-7744.75
-7745.22
-7745.67
-7746.08
-7746.45
-7746.77
-7747.03
-7747.24
-7747.39
-7747.47
-7747.48
-7747.41
-7747.28
-7747.08
-7746.8
-7746.46
-7746.05
-7745.59
-7745.09
-7744.54
-7743.96
-7743.36
-7742.75
-7742.15
-7741.57
-7741.02
-7740.51
-7740.05
-7739.67
-7739.36
-7739.13
-7739
-7738.97
-7739.03
-7739.19
-7739.45
-7739.8
-7740.23
-7740.73
-7741.29
-7741.88
-7742.49
-7743.1
-7743.69
-7744.24
-7744.73
-7745.14
-7745.46
-7745.67
-7745.77
-7745.75
-7745.6
-7745.34
-7744.97
-7744.52
-7743.99
-7743.42
-7742.82
-7742.24
-7741.68
-7741.19
-7740.79
-7740.49
-7740.32
-7740.28
-7740.38
-7740.61
-7740.96
-7741.41
-7741.93
-7742.49
-7743.07
-7743.61
-7744.08
-7744.46
-7744.72
-7744.84
-7744.82
-7744.66
-7744.38
-7744
-7743.54
-7743.06
-7742.58
-7742.15
-7741.8
-7741.56
-7741.45
-7741.47
-7741.62
-7741.87
-7742.2
-7742.57
-7742.93
-7743.25
-7743.5
-7743.64
-7743.67
-7743.59
-7743.41
-7743.17
-7742.91
-7742.64
-7742.43
-7742.29
-7742.23
-7742.27
-7742.38
-7742.55
-7742.74
-7742.94
-7743.09
-7743.2
-7743.24
-7743.22
-7743.15
-7743.03
-7742.9
-7742.76
-7742.65
-7742.56
-7742.51
-7742.5
-7742.53
-7742.58
-7742.64
-7742.7
-7742.77
-7742.82
-7742.86
-7742.89
-7742.9
-7742.91
-8068.22
-8068.32
-8068.51
-8068.77
-8069.06
-8069.4
-8069.72
-8070.19
-8089.21
-8088.69
-8088.33
-8087.81
-8087.23
-8086.64
-8086.11
-8085.55
-8085.04
-8084.55
-8084.11
-8083.69
-8083.32
-8082.98
-8082.68
-8082.42
-8082.21
-8082.03
-8081.9
-8081.82
-8081.78
-8081.8
-8081.86
-8081.97
-8082.13
-8082.35
-8082.61
-8082.92
-8083.27
-8083.67
-8084.12
-8084.6
-8085.11
-8085.65
-8086.22
-8086.8
-8087.4
-8088
-8088.6
-8089.19
-8089.76
-8090.31
-8090.82
-8091.3
-8091.72
-8092.09
-8092.4
-8092.64
-8092.81
-8092.9
-8092.91
-8092.83
-8092.68
-8092.44
-8092.12
-8091.72
-8091.25
-8090.72
-8090.14
-8089.5
-8088.84
-8088.15
-8087.45
-8086.76
-8086.1
-8085.46
-8084.88
-8084.36
-8083.93
-8083.57
-8083.32
-8083.18
-8083.15
-8083.23
-8083.43
-8083.73
-8084.14
-8084.64
-8085.22
-8085.86
-8086.55
-8087.25
-8087.96
-8088.64
-8089.27
-8089.83
-8090.3
-8090.66
-8090.9
-8091
-8090.97
-8090.79
-8090.49
-8090.06
-8089.53
-8088.92
-8088.26
-8087.57
-8086.9
-8086.26
-8085.7
-8085.24
-8084.9
-8084.71
-8084.67
-8084.79
-8085.07
-8085.47
-8085.99
-8086.59
-8087.24
-8087.9
-8088.52
-8089.06
-8089.48
-8089.78
-8089.91
-8089.88
-8089.69
-8089.36
-8088.91
-8088.39
-8087.83
-8087.28
-8086.79
-8086.39
-8086.12
-8086.01
-8086.04
-8086.22
-8086.52
-8086.9
-8087.32
-8087.75
-8088.11
-8088.39
-8088.54
-8088.57
-8088.47
-8088.26
-8087.99
-8087.68
-8087.37
-8087.13
-8086.97
-8086.91
-8086.95
-8087.09
-8087.28
-8087.5
-8087.73
-8087.9
-8088.02
-8088.07
-8088.04
-8087.96
-8087.82
-8087.67
-8087.52
-8087.39
-8087.3
-8087.25
-8087.24
-8087.27
-8087.32
-8087.4
-8087.47
-8087.54
-8087.59
-8087.64
-8087.66
-8087.68
-8087.69
-8365.94
-8365.97
-8366
-8366.04
-8366.07
-8366.1
-8366.56
-8366.93
-8392.52
-8392.17
-8391.88
-8391.51
-8391
-8390.56
-8390.11
-8389.65
-8389.21
-8388.78
-8388.37
-8387.99
-8387.63
-8387.31
-8387.02
-8386.77
-8386.57
-8386.4
-8386.29
-8386.22
-8386.2
-8386.24
-8386.33
-8386.47
-8386.67
-8386.93
-8387.24
-8387.6
-8388.01
-8388.48
-8388.99
-8389.54
-8390.13
-8390.75
-8391.4
-8392.07
-8392.75
-8393.44
-8394.12
-8394.79
-8395.45
-8396.07
-8396.65
-8397.19
-8397.67
-8398.09
-8398.44
-8398.71
-8398.9
-8399
-8399
-8398.92
-8398.74
-8398.46
-8398.1
-8397.65
-8397.12
-8396.51
-8395.85
-8395.13
-8394.37
-8393.6
-8392.81
-8392.03
-8391.27
-8390.56
-8389.91
-8389.33
-8388.83
-8388.44
-8388.17
-8388.01
-8387.98
-8388.08
-8388.31
-8388.67
-8389.14
-8389.71
-8390.37
-8391.1
-8391.88
-8392.68
-8393.48
-8394.25
-8394.96
-8395.6
-8396.12
-8396.53
-8396.79
-8396.9
-8396.85
-8396.65
-8396.3
-8395.81
-8395.2
-8394.51
-8393.76
-8392.98
-8392.21
-8391.49
-8390.85
-8390.34
-8389.96
-8389.75
-8389.71
-8389.86
-8390.17
-8390.64
-8391.23
-8391.91
-8392.65
-8393.39
-8394.09
-8394.69
-8395.17
-8395.5
-8395.64
-8395.6
-8395.38
-8394.99
-8394.48
-8393.88
-8393.25
-8392.63
-8392.08
-8391.63
-8391.34
-8391.21
-8391.26
-8391.47
-8391.82
-8392.26
-8392.74
-8393.22
-8393.63
-8393.94
-8394.11
-8394.14
-8394.01
-8393.77
-8393.45
-8393.1
-8392.75
-8392.48
-8392.3
-8392.24
-8392.3
-8392.45
-8392.67
-8392.93
-8393.18
-8393.37
-8393.51
-8393.55
-8393.52
-8393.42
-8393.27
-8393.1
-8392.93
-8392.79
-8392.69
-8392.64
-8392.63
-8392.67
-8392.73
-8392.81
-8392.89
-8392.97
-8393.03
-8393.07
-8393.1
-8393.11
-8393.12
-8630.08
-8630.13
-8630.24
-8630.43
-8630.71
-8631.12
-8630.82
-8630.81
-8661.24
-8661.03
-8660.84
-8660.56
-8660.2
-8659.82
-8659.44
-8659.03
-8658.63
-8658.23
-8657.85
-8657.48
-8657.14
-8656.83
-8656.55
-8656.3
-8656.1
-8655.95
-8655.84
-8655.79
-8655.79
-8655.84
-8655.96
-8656.13
-8656.37
-8656.67
-8657.02
-8657.44
-8657.91
-8658.44
-8659.02
-8659.64
-8660.31
-8661.01
-8661.74
-8662.49
-8663.26
-8664.03
-8664.8
-8665.55
-8666.28
-8666.98
-8667.63
-8668.23
-8668.77
-8669.23
-8669.62
-8669.92
-8670.13
-8670.24
-8670.24
-8670.14
-8669.94
-8669.63
-8669.22
-8668.71
-8668.11
-8667.44
-8666.69
-8665.89
-8665.05
-8664.18
-8663.3
-8662.43
-8661.59
-8660.8
-8660.07
-8659.43
-8658.88
-8658.45
-8658.15
-8657.98
-8657.96
-8658.08
-8658.34
-8658.74
-8659.28
-8659.92
-8660.67
-8661.49
-8662.36
-8663.25
-8664.15
-8665
-8665.8
-8666.5
-8667.09
-8667.53
-8667.82
-8667.94
-8667.88
-8667.65
-8667.24
-8666.69
-8666.01
-8665.23
-8664.39
-8663.51
-8662.66
-8661.86
-8661.15
-8660.57
-8660.16
-8659.93
-8659.9
-8660.06
-8660.42
-8660.95
-8661.61
-8662.38
-8663.2
-8664.02
-8664.8
-8665.47
-8666
-8666.35
-8666.51
-8666.45
-8666.2
-8665.77
-8665.19
-8664.52
-8663.81
-8663.12
-8662.5
-8662.02
-8661.7
-8661.56
-8661.62
-8661.87
-8662.26
-8662.76
-8663.3
-8663.83
-8664.29
-8664.63
-8664.82
-8664.84
-8664.7
-8664.42
-8664.06
-8663.66
-8663.27
-8662.97
-8662.78
-8662.71
-8662.78
-8662.96
-8663.21
-8663.49
-8663.77
-8663.99
-8664.13
-8664.18
-8664.14
-8664.02
-8663.86
-8663.67
-8663.49
-8663.33
-8663.22
-8663.17
-8663.17
-8663.21
-8663.28
-8663.37
-8663.46
-8663.54
-8663.6
-8663.65
-8663.67
-8663.69
-8663.7
-8863.88
-8863.9
-8863.93
-8863.97
-8863.96
-8863.84
-8863.94
-8864.06
-8899.52
-8899.38
-8899.21
-8898.99
-8898.7
-8898.38
-8898.03
-8897.66
-8897.28
-8896.9
-8896.53
-8896.18
-8895.84
-8895.53
-8895.25
-8895.01
-8894.81
-8894.66
-8894.56
-8894.51
-8894.53
-8894.6
-8894.74
-8894.95
-8895.22
-8895.55
-8895.96
-8896.42
-8896.95
-8897.54
-8898.19
-8898.88
-8899.62
-8900.4
-8901.21
-8902.05
-8902.89
-8903.75
-8904.6
-8905.43
-8906.23
-8907
-8907.72
-8908.39
-8908.98
-8909.49
-8909.92
-8910.25
-8910.47
-8910.59
-8910.59
-8910.48
-8910.25
-8909.9
-8909.45
-8908.89
-8908.22
-8907.48
-8906.65
-8905.77
-8904.84
-8903.88
-8902.91
-8901.95
-8901.03
-8900.16
-8899.36
-8898.65
-8898.06
-8897.59
-8897.26
-8897.08
-8897.06
-8897.2
-8897.5
-8897.95
-8898.54
-8899.26
-8900.09
-8900.99
-8901.96
-8902.95
-8903.93
-8904.88
-8905.75
-8906.52
-8907.17
-8907.65
-8907.96
-8908.09
-8908.02
-8907.75
-8907.3
-8906.69
-8905.93
-8905.07
-8904.13
-8903.17
-8902.23
-8901.34
-8900.57
-8899.94
-8899.48
-8899.24
-8899.2
-8899.39
-8899.79
-8900.38
-8901.12
-8901.96
-8902.87
-8903.78
-8904.63
-8905.36
-8905.94
-8906.33
-8906.49
-8906.42
-8906.14
-8905.65
-8905.01
-8904.27
-8903.48
-8902.72
-8902.05
-8901.52
-8901.17
-8901.03
-8901.11
-8901.39
-8901.82
-8902.38
-8902.98
-8903.57
-8904.07
-8904.44
-8904.65
-8904.66
-8904.5
-8904.19
-8903.78
-8903.34
-8902.91
-8902.58
-8902.37
-8902.3
-8902.38
-8902.58
-8902.86
-8903.17
-8903.47
-8903.71
-8903.87
-8903.92
-8903.87
-8903.75
-8903.56
-8903.35
-8903.16
-8902.99
-8902.88
-8902.82
-8902.82
-8902.87
-8902.95
-8903.04
-8903.14
-8903.22
-8903.29
-8903.34
-8903.37
-8903.38
-8903.39
-9070.94
-9070.95
-9070.96
-9070.99
-9071.01
-9071.04
-9071.14
-9071.13
-9110.77
-9110.64
-9110.5
-9110.3
-9110.05
-9109.74
-9109.41
-9109.06
-9108.69
-9108.32
-9107.95
-9107.59
-9107.26
-9106.94
-9106.66
-9106.41
-9106.22
-9106.07
-9105.97
-9105.93
-9105.96
-9106.05
-9106.21
-9106.44
-9106.75
-9107.12
-9107.57
-9108.08
-9108.67
-9109.32
-9110.03
-9110.79
-9111.6
-9112.46
-9113.34
-9114.26
-9115.18
-9116.12
-9117.04
-9117.95
-9118.83
-9119.67
-9120.46
-9121.18
-9121.83
-9122.39
-9122.85
-9123.2
-9123.45
-9123.57
-9123.57
-9123.44
-9123.19
-9122.81
-9122.31
-9121.69
-9120.97
-9120.15
-9119.25
-9118.28
-9117.26
-9116.22
-9115.16
-9114.12
-9113.12
-9112.17
-9111.3
-9110.54
-9109.89
-9109.39
-9109.03
-9108.85
-9108.83
-9108.99
-9109.32
-9109.82
-9110.47
-9111.26
-9112.16
-9113.15
-9114.21
-9115.29
-9116.36
-9117.39
-9118.34
-9119.18
-9119.88
-9120.4
-9120.74
-9120.87
-9120.78
-9120.49
-9119.99
-9119.32
-9118.49
-9117.54
-9116.52
-9115.47
-9114.44
-9113.48
-9112.63
-9111.95
-9111.46
-9111.2
-9111.17
-9111.38
-9111.82
-9112.46
-9113.27
-9114.2
-9115.19
-9116.17
-9117.1
-9117.9
-9118.53
-9118.94
-9119.11
-9119.03
-9118.71
-9118.17
-9117.47
-9116.66
-9115.8
-9114.97
-9114.24
-9113.67
-9113.3
-9113.15
-9113.25
-9113.55
-9114.04
-9114.65
-9115.31
-9115.95
-9116.5
-9116.9
-9117.11
-9117.12
-9116.94
-9116.59
-9116.14
-9115.66
-9115.2
-9114.83
-9114.61
-9114.54
-9114.63
-9114.85
-9115.16
-9115.5
-9115.83
-9116.09
-9116.25
-9116.3
-9116.25
-9116.11
-9115.91
-9115.69
-9115.47
-9115.3
-9115.18
-9115.12
-9115.12
-9115.18
-9115.26
-9115.37
-9115.47
-9115.56
-9115.63
-9115.67
-9115.7
-9115.72
-9115.72
-9254.34
-9254.35
-9254.36
-9254.38
-9254.4
-9254.42
-9254.45
-9254.47
-9297.98
-9297.88
-9297.74
-9297.55
-9297.31
-9297.02
-9296.69
-9296.34
-9295.98
-9295.6
-9295.23
-9294.86
-9294.51
-9294.19
-9293.9
-9293.65
-9293.45
-9293.29
-9293.2
-9293.17
-9293.2
-9293.31
-9293.49
-9293.75
-9294.08
-9294.49
-9294.98
-9295.54
-9296.18
-9296.88
-9297.65
-9298.48
-9299.36
-9300.29
-9301.25
-9302.24
-9303.25
-9304.26
-9305.26
-9306.24
-9307.19
-9308.1
-9308.95
-9309.73
-9310.42
-9311.02
-9311.52
-9311.9
-9312.16
-9312.29
-9312.29
-9312.15
-9311.87
-9311.46
-9310.91
-9310.24
-9309.46
-9308.57
-9307.59
-9306.55
-9305.45
-9304.32
-9303.18
-9302.06
-9300.97
-9299.95
-9299.02
-9298.2
-9297.51
-9296.97
-9296.59
-9296.4
-9296.38
-9296.56
-9296.93
-9297.47
-9298.18
-9299.03
-9300.01
-9301.09
-9302.23
-9303.4
-9304.56
-9305.67
-9306.69
-9307.6
-9308.34
-9308.91
-9309.26
-9309.4
-9309.3
-9308.97
-9308.43
-9307.7
-9306.8
-9305.77
-9304.67
-9303.53
-9302.42
-9301.38
-9300.47
-9299.74
-9299.22
-9298.93
-9298.91
-9299.14
-9299.62
-9300.32
-9301.2
-9302.2
-9303.27
-9304.34
-9305.33
-9306.19
-9306.86
-9307.3
-9307.48
-9307.39
-9307.03
-9306.45
-9305.69
-9304.81
-9303.88
-9302.99
-9302.21
-9301.59
-9301.2
-9301.05
-9301.15
-9301.49
-9302.02
-9302.68
-9303.4
-9304.09
-9304.68
-9305.11
-9305.34
-9305.34
-9305.14
-9304.76
-9304.27
-9303.74
-9303.25
-9302.86
-9302.61
-9302.55
-9302.65
-9302.89
-9303.23
-9303.6
-9303.95
-9304.22
-9304.4
-9304.45
-9304.39
-9304.23
-9304.02
-9303.78
-9303.55
-9303.37
-9303.24
-9303.18
-9303.19
-9303.25
-9303.34
-9303.45
-9303.56
-9303.65
-9303.73
-9303.77
-9303.8
-9303.82
-9303.82
-9416.8
-9416.81
-9416.82
-9416.83
-9416.84
-9416.86
-9416.87
-9416.89
-9463.88
-9463.81
-9463.67
-9463.48
-9463.24
-9462.94
-9462.62
-9462.26