/*--------------------------------*- C++ -*----------------------------------*\
  =========                 |
  \\      /  F ield         | OpenFOAM: The Open Source CFD Toolbox
   \\    /   O peration     | Website:  https://openfoam.org
    \\  /    A nd           | Version:  12
     \\/     M anipulation  |
\*---------------------------------------------------------------------------*/
FoamFile
{
    format      ascii;
    class       volScalarField;
    location    "11";
    object      p_rgh;
}
// * * * * * * * * * * * * * * * * * * * * * * * * * * * * * * * * * * * * * //

dimensions      [1 -1 -2 0 0 0 0];

internalField   nonuniform List<scalar> 
3829
(
-3.69991
-3.69885
-3.69669
-3.69336
-3.68882
-3.68298
-3.67577
-3.6671
-3.65688
-3.64501
-3.63138
-3.61586
-3.59834
-3.57867
-3.55672
-3.53234
-3.50541
-3.47579
-3.44336
-3.40803
-3.36969
-3.32828
-3.28374
-3.23604
-3.18519
-3.13121
-3.07415
-3.01411
-2.9512
-2.88558
-2.81741
-2.74692
-2.67434
-2.59992
-2.52397
-2.44678
-2.36867
-2.28998
-2.21105
-2.13223
-2.05389
-1.97639
-1.9001
-1.8254
-1.75318
-1.6835
-1.61669
-1.55306
-1.49288
-1.4364
-1.38382
-1.33531
-1.29098
-1.25093
-1.21518
-1.18373
-1.15654
-1.13353
-1.11458
-1.0995
-1.08807
-1.08
-1.07493
-1.07248
-1.07222
-1.07364
-1.07622
-1.07945
-1.08266
-1.08531
-1.0868
-1.08652
-1.0839
-1.07834
-1.06933
-1.05637
-1.03903
-1.01693
-0.989797
-0.95714
-0.918773
-0.874947
-0.825938
-0.772047
-0.713628
-0.651137
-0.58518
-0.516481
-0.44585
-0.374208
-0.30257
-0.231996
-0.163606
-0.0985125
-0.0378257
0.0173823
0.0661284
0.107518
0.14083
0.165521
0.181221
0.186891
0.183129
0.170415
0.14931
0.120566
0.0851976
0.0444601
-0.000194084
-0.0471481
-0.095225
-0.141529
-0.184869
-0.223528
-0.255947
-0.280802
-0.297073
-0.30414
-0.299075
-0.284076
-0.259825
-0.2272
-0.187448
-0.142227
-0.0934966
-0.0435073
0.00500077
0.0498061
0.0885381
0.119072
0.139628
0.14895
0.146369
0.1311
0.104317
0.0673339
0.0219445
-0.0294209
-0.0838952
-0.138432
-0.189614
-0.234568
-0.270564
-0.295416
-0.307556
-0.305803
-0.290925
-0.264573
-0.228797
-0.1863
-0.139918
-0.0944705
-0.0528744
-0.0181728
0.0072938
0.0220861
0.0245865
0.0164645
-0.000780846
-0.0247463
-0.0524804
-0.0808529
-0.106153
-0.126041
-0.138629
-0.14324
-0.137673
-0.125618
-0.108868
-0.0900671
-0.0721169
-0.0577276
-0.0490083
-0.0471395
-0.0522949
-0.0637728
-0.0794887
-0.0969777
-0.113467
-0.126473
-0.134017
-0.133781
-0.125973
-0.111948
-0.0934048
-0.0723832
-0.0510946
-0.0318154
-0.01668
-0.00688417
-0.00299456
-0.0050116
-0.0119178
-0.0226299
-0.0356628
-0.0493971
-0.0623367
-0.0732394
-0.081108
-0.0852475
-3.79917
-3.79854
-3.79724
-3.79522
-3.79241
-3.78869
-3.78396
-3.77806
-3.77082
-3.76204
-3.75152
-3.73903
-3.72437
-3.70734
-3.6877
-3.66522
-3.63966
-3.61077
-3.57835
-3.5422
-3.50214
-3.45804
-3.40981
-3.35741
-3.30082
-3.24011
-3.17536
-3.10673
-3.0344
-2.9586
-2.87957
-2.79757
-2.71294
-2.62605
-2.53731
-2.44714
-2.35602
-2.26442
-2.17282
-2.0817
-1.99153
-1.90275
-1.81572
-1.73063
-1.64969
-1.57272
-1.49995
-1.43163
-1.36799
-1.30925
-1.2556
-1.20718
-1.16409
-1.1264
-1.09413
-1.06725
-1.04569
-1.02931
-1.01791
-1.01126
-1.00902
-1.01079
-1.01614
-1.02453
-1.03538
-1.04807
-1.06193
-1.07627
-1.09035
-1.10342
-1.11475
-1.12358
-1.1292
-1.13091
-1.12808
-1.12015
-1.10667
-1.08727
-1.06182
-1.02713
-0.985915
-0.938144
-0.88394
-0.823555
-0.757404
-0.686073
-0.610329
-0.531085
-0.449367
-0.36633
-0.283233
-0.201394
-0.122197
-0.0470165
0.0227747
0.085863
0.141045
0.187217
0.223457
0.24907
0.263602
0.266485
0.258103
0.238882
0.209485
0.170907
0.124453
0.0717026
0.0144822
-0.0452291
-0.105279
-0.163369
-0.217355
-0.265132
-0.30478
-0.334652
-0.353411
-0.360146
-0.354005
-0.335443
-0.305186
-0.264385
-0.214736
-0.158399
-0.0978586
-0.0358938
0.0240687
0.0793011
0.126874
0.164187
0.189092
0.200058
0.196269
0.177401
0.144483
0.0990972
0.0436073
-0.0189476
-0.084985
-0.150774
-0.212137
-0.265592
-0.307995
-0.337093
-0.351992
-0.345908
-0.325709
-0.292257
-0.247924
-0.19586
-0.138086
-0.0836454
-0.0345243
0.00572253
0.0342739
0.0493621
0.0502204
0.038018
0.0148088
-0.016241
-0.0513907
-0.086413
-0.117227
-0.140653
-0.15428
-0.156874
-0.150091
-0.134361
-0.112745
-0.0888089
-0.066245
-0.0484589
-0.0379457
-0.0360099
-0.0424493
-0.0572849
-0.0768904
-0.0984072
-0.11854
-0.134227
-0.143173
-0.14335
-0.134311
-0.117978
-0.0966105
-0.0726027
-0.0485204
-0.0270119
-0.0104047
-3.7311e-05
0.00356155
0.000545577
-0.00781587
-0.0202212
-0.0349599
-0.0502352
-0.0644399
-0.076273
-0.0847431
-0.0891763
-3.94804
-3.9487
-3.95001
-3.95191
-3.95428
-3.95696
-3.95973
-3.96231
-3.96439
-3.9656
-3.9656
-3.96389
-3.95992
-3.9531
-3.94285
-3.92859
-3.90979
-3.88596
-3.85665
-3.82147
-3.78009
-3.73226
-3.67781
-3.61666
-3.5488
-3.47436
-3.39352
-3.3066
-3.21396
-3.11609
-3.01354
-2.90697
-2.79703
-2.6844
-2.56977
-2.45381
-2.33724
-2.2208
-2.1052
-1.99119
-1.87951
-1.7709
-1.66619
-1.5664
-1.46969
-1.37858
-1.29351
-1.21497
-1.14337
-1.07899
-1.0221
-0.972849
-0.931343
-0.897621
-0.871664
-0.853375
-0.842587
-0.839026
-0.842319
-0.851986
-0.867487
-0.888202
-0.913445
-0.942453
-0.974396
-1.00839
-1.04349
-1.07873
-1.11309
-1.14553
-1.17504
-1.20059
-1.22118
-1.23586
-1.24375
-1.24402
-1.23595
-1.21895
-1.19236
-1.15743
-1.11265
-1.05822
-0.994446
-0.921799
-0.840955
-0.752818
-0.658495
-0.559278
-0.45661
-0.352075
-0.247409
-0.144414
-0.0449765
0.0490403
0.135782
0.213454
0.28045
0.33535
0.376951
0.404252
0.4165
0.413856
0.396375
0.364541
0.319298
0.262095
0.194768
0.119497
0.0387758
-0.0446449
-0.127763
-0.207626
-0.281265
-0.34586
-0.398859
-0.438103
-0.461889
-0.468929
-0.459219
-0.432721
-0.390283
-0.333553
-0.264989
-0.187566
-0.104715
-0.0203982
0.0609682
0.135573
0.199514
0.249327
0.282157
0.295964
0.289605
0.263503
0.218646
0.157228
0.0826382
-0.000904008
-0.0885416
-0.175273
-0.255228
-0.323886
-0.376943
-0.411019
-0.423696
-0.416222
-0.388017
-0.341835
-0.281845
-0.213502
-0.131355
-0.0618244
0.000893007
0.0512611
0.0853697
0.100921
0.097951
0.0775324
0.0427936
-0.00172593
-0.0507957
-0.0983901
-0.139412
-0.16946
-0.185601
-0.186684
-0.174521
-0.150734
-0.119511
-0.0857832
-0.0545642
-0.0305799
-0.0169882
-0.0155122
-0.026245
-0.0458553
-0.0723985
-0.101368
-0.128184
-0.148742
-0.160248
-0.161026
-0.149473
-0.128687
-0.102145
-0.072715
-0.0436137
-0.0181591
0.000950687
0.0121804
0.0151278
0.0102266
-0.000798913
-0.0162265
-0.033957
-0.0518812
-0.0682163
-0.0815894
-0.0910346
-0.095939
-4.04504
-4.04885
-4.05651
-4.06794
-4.08295
-4.10123
-4.12236
-4.14578
-4.1708
-4.19656
-4.22201
-4.24603
-4.2673
-4.28448
-4.29627
-4.30151
-4.29933
-4.28886
-4.26924
-4.23967
-4.19947
-4.14811
-4.08525
-4.01076
-3.92475
-3.82757
-3.71982
-3.6023
-3.47602
-3.34201
-3.20122
-3.05466
-2.90352
-2.749
-2.59236
-2.43485
-2.27769
-2.12203
-1.96895
-1.81947
-1.67456
-1.53503
-1.40151
-1.27436
-1.15402
-1.04615
-0.94872
-0.86152
-0.784611
-0.718139
-0.662232
-0.617014
-0.582537
-0.558808
-0.545726
-0.543084
-0.550562
-0.567728
-0.594019
-0.628752
-0.67114
-0.720276
-0.775157
-0.834685
-0.897682
-0.962898
-1.02901
-1.09466
-1.15842
-1.21885
-1.27456
-1.32413
-1.3662
-1.39947
-1.42277
-1.43501
-1.43524
-1.42266
-1.39666
-1.3578
-1.30539
-1.23945
-1.16034
-1.06875
-0.965702
-0.852469
-0.730616
-0.601967
-0.468538
-0.332561
-0.196439
-0.0626742
0.066121
0.187388
0.298608
0.397332
0.481311
0.54857
0.597496
0.626859
0.635965
0.624742
0.593391
0.542677
0.474039
0.38954
0.291763
0.183743
0.0689371
-0.0489326
-0.165433
-0.276602
-0.378409
-0.467032
-0.539017
-0.591434
-0.621985
-0.629235
-0.613475
-0.574477
-0.513492
-0.432999
-0.336456
-0.228122
-0.112825
0.00396565
0.11625
0.218739
0.306041
0.373463
0.417239
0.434743
0.424479
0.387254
0.324484
0.239467
0.136973
0.0228613
-0.0962115
-0.212732
-0.319528
-0.409986
-0.478353
-0.520249
-0.532814
-0.518824
-0.476773
-0.410639
-0.326101
-0.229864
-0.125291
-0.0300592
0.0533239
0.118305
0.160082
0.175909
0.166449
0.133371
0.0814373
0.0171118
-0.0523206
-0.118119
-0.17359
-0.212822
-0.23213
-0.230402
-0.20982
-0.173794
-0.128303
-0.0802654
-0.0364357
-0.00369465
0.0140787
0.0149161
-0.000609692
-0.0291539
-0.0662527
-0.106052
-0.142378
-0.169714
-0.184412
-0.185143
-0.171507
-0.143172
-0.109433
-0.072402
-0.0363707
-0.00558008
0.0167543
0.0289156
0.0307399
0.0230782
0.00830553
-0.0112631
-0.0329957
-0.0543808
-0.0734263
-0.0887095
-0.0993321
-0.10479
-4.06183
-4.0723
-4.09341
-4.12509
-4.16704
-4.21866
-4.27901
-4.34664
-4.41992
-4.49676
-4.5749
-4.6518
-4.72492
-4.79161
-4.8492
-4.89511
-4.9268
-4.94222
-4.93975
-4.91822
-4.87695
-4.81558
-4.73408
-4.63272
-4.5121
-4.37334
-4.21797
-4.04781
-3.86489
-3.67113
-3.4684
-3.25881
-3.04446
-2.82746
-2.60978
-2.3933
-2.17979
-1.97086
-1.76802
-1.57264
-1.38604
-1.20953
-1.04444
-0.892256
-0.754021
-0.624354
-0.508547
-0.407312
-0.321092
-0.250119
-0.194542
-0.15437
-0.129539
-0.119832
-0.124937
-0.144365
-0.177473
-0.223471
-0.281458
-0.350408
-0.429179
-0.516482
-0.610915
-0.71094
-0.814941
-0.921201
-1.02791
-1.1332
-1.23515
-1.33181
-1.42129
-1.5017
-1.57121
-1.62811
-1.67081
-1.69781
-1.70793
-1.70023
-1.67387
-1.62915
-1.56559
-1.48335
-1.38302
-1.26562
-1.1326
-0.985712
-0.827146
-0.65941
-0.485276
-0.307812
-0.13032
0.0438031
0.210992
0.367741
0.510637
0.636481
0.742307
0.825454
0.883774
0.915597
0.91947
0.896361
0.846221
0.770239
0.670532
0.550009
0.41224
0.261362
0.101992
-0.0614431
-0.221313
-0.372935
-0.511008
-0.630458
-0.726655
-0.795674
-0.834493
-0.841184
-0.816444
-0.760028
-0.673848
-0.561502
-0.427803
-0.278631
-0.120671
0.0385751
0.191171
0.329742
0.447147
0.537135
0.594621
0.61611
0.600047
0.54744
0.460593
0.344205
0.204868
0.0507046
-0.109333
-0.26469
-0.40607
-0.524542
-0.612491
-0.664339
-0.676986
-0.65233
-0.590688
-0.497504
-0.380649
-0.24923
-0.112066
0.0149744
0.124422
0.207628
0.258513
0.273894
0.254818
0.204338
0.129308
0.0387345
-0.0575557
-0.147002
-0.220836
-0.271349
-0.293973
-0.287671
-0.25536
-0.202718
-0.138232
-0.0716256
-0.0108811
0.0326566
0.0553678
0.0547891
0.0321867
-0.00797116
-0.0589614
-0.112855
-0.161346
-0.197106
-0.215696
-0.21601
-0.198769
-0.160627
-0.118038
-0.071347
-0.0267081
0.0105038
0.0365547
0.0495342
0.0496523
0.0383479
0.0188308
-0.00583453
-0.0323664
-0.057789
-0.0798945
-0.0972583
-0.109114
-0.115132
-3.59493
-3.6176
-3.66311
-3.73096
-3.82025
-3.92888
-4.05744
-4.1964
-4.34605
-4.50218
-4.66111
-4.81856
-4.97082
-5.11438
-5.24601
-5.36273
-5.46189
-5.54083
-5.5967
-5.62635
-5.62659
-5.59404
-5.52556
-5.41895
-5.27366
-5.0908
-4.87542
-4.6318
-4.36518
-4.0809
-3.78476
-3.48151
-3.17521
-2.86931
-2.56687
-2.27056
-1.98274
-1.70544
-1.44042
-1.18919
-0.953071
-0.733108
-0.53009
-0.344816
-0.177254
-0.0265348
0.0988751
0.203797
0.288986
0.354557
0.400375
0.426434
0.432862
0.419945
0.388161
0.338166
0.27082
0.187157
0.0883814
-0.0241321
-0.14885
-0.284031
-0.427812
-0.57814
-0.732865
-0.889691
-1.04625
-1.20006
-1.34862
-1.48933
-1.61971
-1.73729
-1.83966
-1.9247
-1.99026
-2.03463
-2.05606
-2.05333
-2.02489
-1.97167
-1.89315
-1.78964
-1.66207
-1.51189
-1.34104
-1.15191
-0.947429
-0.730987
-0.506282
-0.277413
-0.0488045
0.175035
0.389414
0.589702
0.771346
0.930096
1.06213
1.16409
1.23326
1.26757
1.26468
1.22589
1.15173
1.04397
0.905485
0.740187
0.552983
0.349717
0.137303
-0.0866937
-0.297843
-0.498275
-0.6803
-0.836911
-0.96192
-1.05034
-1.09839
-1.10359
-1.06675
-0.98781
-0.869737
-0.71745
-0.537406
-0.337595
-0.126795
0.0846079
0.286511
0.469098
0.622907
0.739822
0.813414
0.839376
0.814927
0.742363
0.625163
0.469678
0.284761
0.0812135
-0.129385
-0.332222
-0.515424
-0.667428
-0.778578
-0.841739
-0.8532
-0.814429
-0.727765
-0.600631
-0.443641
-0.269232
-0.0908034
0.0744978
0.214992
0.319507
0.38039
0.394072
0.361944
0.289118
0.185071
0.0618257
-0.0680034
-0.186175
-0.28186
-0.345341
-0.370989
-0.358002
-0.310453
-0.236681
-0.148229
-0.0578571
0.0214227
0.0785422
0.106829
0.103838
0.0718279
0.0171346
-0.0510346
-0.122323
-0.185028
-0.230768
-0.253669
-0.252536
-0.228241
-0.183017
-0.127712
-0.0692603
-0.0145586
0.0299283
0.0599269
0.0734464
0.0712013
0.055387
0.0302186
-0.000350013
-0.0322877
-0.0621206
-0.0874494
-0.106904
-0.119937
-0.126465
-2.82271
-2.87676
-2.98528
-3.14615
-3.3549
-3.60833
-3.90387
-4.23617
-4.59962
-4.98586
-5.38793
-5.79406
-6.19145
-6.56275
-6.89381
-7.1685
-7.38176
-7.52853
-7.60614
-7.61359
-7.55158
-7.42212
-7.22978
-6.97938
-6.67742
-6.29762
-5.90457
-5.48059
-5.04016
-4.59265
-4.14412
-3.6991
-3.26219
-2.83714
-2.42694
-2.03392
-1.6599
-1.30628
-0.97424
-0.664796
-0.378917
-0.117315
0.119352
0.330767
0.515993
0.673951
0.808998
0.919794
1.00496
1.06409
1.09731
1.10489
1.08734
1.04533
0.979708
0.89148
0.781844
0.652165
0.504001
0.339135
0.159535
-0.0325553
-0.234737
-0.444373
-0.658742
-0.874862
-1.08969
-1.30007
-1.50273
-1.69441
-1.87198
-2.03232
-2.17235
-2.28926
-2.38059
-2.44405
-2.47779
-2.48015
-2.44765
-2.38275
-2.28517
-2.1554
-1.99469
-1.8049
-1.58858
-1.34889
-1.08963
-0.81523
-0.530531
-0.240821
0.0481505
0.330501
0.600231
0.851411
1.07824
1.27523
1.43751
1.56088
1.64211
1.67916
1.66648
1.60841
1.50533
1.35953
1.17474
0.956056
0.709788
0.443291
0.164634
-0.118362
-0.393332
-0.652085
-0.885638
-1.08531
-1.24345
-1.3538
-1.41163
-1.41428
-1.36175
-1.25512
-1.09848
-0.898261
-0.663048
-0.40311
-0.130111
0.142728
0.402452
0.63624
0.832086
0.979738
1.07119
1.10143
1.06617
0.969266
0.815641
0.613715
0.374929
0.113149
-0.157313
-0.415598
-0.647266
-0.837681
-0.974868
-1.05012
-1.05893
-1.00251
-0.88549
-0.717781
-0.513198
-0.28809
-0.0607376
0.148867
0.324874
0.453257
0.52454
0.534859
0.486154
0.38604
0.247318
0.0858694
-0.0852885
-0.236209
-0.356728
-0.434491
-0.462549
-0.44052
-0.37416
-0.274847
-0.15781
-0.0396099
0.061961
0.134085
0.168101
0.161462
0.117719
0.0455569
-0.0429041
-0.134497
-0.21361
-0.270414
-0.297822
-0.294452
-0.262414
-0.206579
-0.137503
-0.0658364
4.92143e-05
0.0524011
0.0863883
0.10006
0.0947606
0.0736109
0.0419965
0.00487233
-0.0329029
-0.0673471
-0.0959084
-0.117346
-0.131418
-0.13836
-0.698338
-0.807217
-1.03524
-1.39719
-1.80186
-2.26044
-2.78226
-3.34877
-3.96084
-4.56448
-5.16632
-5.71714
-6.21858
-6.66286
-7.05364
-7.39625
-7.69453
-7.95366
-8.17049
-8.32785
-8.40977
-8.40312
-8.29736
-8.08374
-7.76514
-7.33611
-6.81822
-6.22338
-5.60683
-4.97759
-4.35903
-3.75608
-3.17618
-2.62233
-2.09726
-1.60315
-1.14159
-0.713386
-0.318772
0.0421605
0.369838
0.664776
0.927408
1.1578
1.35622
1.52289
1.65913
1.7629
1.83571
1.87768
1.88896
1.86984
1.82081
1.74259
1.63612
1.50258
1.34339
1.16023
0.955043
0.730025
0.487637
0.23065
-0.0379543
-0.314901
-0.596741
-0.879809
-1.1603
-1.43428
-1.6977
-1.9465
-2.17669
-2.38439
-2.56583
-2.71762
-2.83667
-2.92029
-2.96686
-2.9759
-2.93517
-2.85559
-2.73542
-2.57494
-2.37564
-2.13993
-1.87108
-1.57313
-1.25093
-0.910095
-0.556784
-0.197624
0.160095
0.508979
0.841417
1.15004
1.42761
1.66729
1.863
2.00943
2.10242
2.13936
2.11721
2.03742
1.90114
1.71157
1.47359
1.19379
0.880214
0.542181
0.190059
-0.16485
-0.510107
-0.834089
-1.12529
-1.37306
-1.5679
-1.70204
-1.76984
-1.76798
-1.69659
-1.55748
-1.35608
-1.10069
-0.802127
-0.473558
-0.129481
0.21305
0.538012
0.829416
1.07228
1.25383
1.36431
1.39838
1.34946
1.22427
1.02863
0.773402
0.473377
0.145637
-0.194114
-0.514469
-0.80011
-1.03315
-1.19872
-1.28625
-1.29076
-1.21333
-1.06087
-0.846332
-0.587411
-0.304492
-0.0215982
0.23765
0.45298
0.607219
0.688992
0.694006
0.625205
0.492971
0.314175
0.11065
-0.110745
-0.296776
-0.444704
-0.53773
-0.567472
-0.53397
-0.44525
-0.316243
-0.16638
-0.0164251
0.110384
0.198751
0.238384
0.226734
0.168958
0.0765707
-0.0349032
-0.14959
-0.246816
-0.315438
-0.347314
-0.340886
-0.299858
-0.231272
-0.147003
-0.06093
0.0169614
0.0775365
0.115396
0.128756
0.119721
0.0924979
0.0537781
0.00960398
-0.03428
-0.0733917
-0.105078
-0.128305
-0.143222
-0.150456
1.09399
0.975267
0.745426
0.417288
-0.111818
-0.785856
-1.65491
-2.64923
-3.73108
-4.84094
-5.96594
-7.0759
-8.15365
-9.18005
-10.1258
-10.9561
-11.6509
-12.2037
-12.608
-12.7485
-12.6499
-12.3507
-11.8833
-11.2671
-10.5156
-9.63181
-8.63947
-7.5012
-6.43524
-5.4343
-4.5077
-3.65411
-2.87348
-2.16329
-1.51812
-0.932158
-0.399853
0.0833437
0.520999
0.915883
1.26982
1.58404
1.85947
2.09695
2.29676
2.45884
2.58943
2.68434
2.74233
2.76362
2.74864
2.69795
2.61224
2.4924
2.33952
2.15494
1.94035
1.69771
1.42935
1.13789
0.826275
0.497878
0.156311
-0.19445
-0.550208
-0.906532
-1.25877
-1.60212
-1.93166
-2.24242
-2.5296
-2.78846
-3.01438
-3.20316
-3.35086
-3.45373
-3.50837
-3.5107
-3.47259
-3.3802
-3.23563
-3.04076
-2.79805
-2.51077
-2.1831
-1.82008
-1.4278
-1.01318
-0.583787
-0.147688
0.285901
0.708073
1.10954
1.4812
1.81426
2.10043
2.33228
2.50329
2.60808
2.64194
2.61031
2.50608
2.3324
2.0938
1.79653
1.44882
1.06066
0.643644
0.21066
-0.224254
-0.646571
-1.04174
-1.39578
-1.69563
-1.92984
-2.08907
-2.16659
-2.15879
-2.06541
-1.88947
-1.63775
-1.32063
-0.951609
-0.546865
-0.124502
0.294836
0.691526
1.04588
1.33973
1.55754
1.68712
1.71981
1.6593
1.50266
1.25997
0.945423
0.577907
0.178694
-0.240749
-0.627653
-0.971604
-1.2506
-1.44635
-1.54621
-1.54455
-1.44292
-1.25051
-0.983546
-0.664181
-0.317677
0.0263094
0.339669
0.597416
0.778962
0.870961
0.868684
0.77642
0.607583
0.383158
0.129477
-0.138587
-0.366381
-0.544439
-0.653459
-0.683934
-0.636632
-0.522266
-0.359888
-0.173659
0.0119366
0.166038
0.271529
0.316479
0.298445
0.224462
0.109404
-0.0271537
-0.167838
-0.284125
-0.36502
-0.401117
-0.390824
-0.339579
-0.256628
-0.155937
-0.0545299
0.0359225
0.104862
0.146358
0.158911
0.145516
0.111592
0.0652553
0.0136959
-0.0364238
-0.0801414
-0.114759
-0.139528
-0.155063
-0.162455
5.79667
5.6033
5.20527
4.58405
3.6899
2.43167
0.847889
-1.18429
-4.53544
-6.68133
-8.39534
-9.97423
-11.3562
-12.6018
-13.6668
-14.489
-15.1011
-15.5408
-15.759
-15.8805
-15.8737
-15.6441
-15.2118
-14.5356
-13.5861
-12.3368
-11.0769
-7.85175
-6.39582
-5.06632
-3.94123
-2.9511
-2.08134
-1.30776
-0.61393
0.0094369
0.57037
1.07514
1.52857
1.93443
2.29567
2.61415
2.89122
3.12748
3.32344
3.47948
3.59598
3.67138
3.70659
3.70125
3.65527
3.56887
3.44258
3.2772
3.07389
2.83412
2.5598
2.2532
1.917
1.55428
1.16852
0.76371
0.344134
-0.0854886
-0.520157
-0.954597
-1.38326
-1.80042
-2.20021
-2.57672
-2.92424
-3.23713
-3.50992
-3.73763
-3.91568
-4.03992
-4.10699
-4.11455
-4.06409
-3.95185
-3.77813
-3.54453
-3.25387
-2.9101
-2.51828
-2.08457
-1.61634
-1.12194
-0.610458
-0.091283
0.423898
0.924705
1.40008
1.83919
2.2315
2.56716
2.83735
3.03449
3.15263
3.18767
3.13958
3.00661
2.79141
2.49915
2.13741
1.71614
1.24749
0.74544
0.225419
-0.295498
-0.800267
-1.27142
-1.69222
-2.04716
-2.32268
-2.50787
-2.59479
-2.57926
-2.46117
-2.24461
-1.93793
-1.55377
-1.10848
-0.621684
-0.114658
0.387008
0.860355
1.28183
1.62981
1.88592
2.03598
2.07118
1.99202
1.79962
1.50519
1.12612
0.685626
0.213607
-0.298657
-0.752631
-1.15851
-1.48608
-1.71324
-1.82521
-1.81564
-1.68693
-1.45065
-1.12674
-0.742032
-0.32698
0.082348
0.453214
0.755604
0.965336
1.06701
1.05559
0.936911
0.727659
0.453286
0.144728
-0.171404
-0.444308
-0.654271
-0.779598
-0.809762
-0.746533
-0.60361
-0.404742
-0.179519
0.0453331
0.227971
0.351086
0.400905
0.375147
0.283031
0.143215
-0.0197629
-0.189214
-0.324809
-0.418218
-0.458168
-0.44323
-0.380657
-0.282173
-0.164111
-0.046726
0.0565884
0.133853
0.178665
0.189927
0.171628
0.130516
0.0761991
0.0170663
-0.0392848
-0.0874555
-0.124755
-0.150791
-0.166709
-0.174126
11.989
11.7417
11.2314
10.4039
9.19929
7.65656
5.75783
3.10319
-1.34966
-4.61736
-7.57124
-10.0243
-12.0895
-13.7245
-15.0288
-16.1091
-16.9429
-17.4758
-17.7595
-17.8024
-17.6047
-17.2077
-16.5332
-15.5581
-14.2547
-12.5915
-10.6447
-7.67602
-5.75824
-4.11741
-2.83587
-1.78209
-0.877506
-0.107702
0.571936
1.17514
1.71678
2.20475
2.64478
3.04019
3.39286
3.70375
3.97301
4.20067
4.38625
4.52911
4.62874
4.68561
4.69757
4.66426
4.58554
4.4615
4.29254
4.07942
3.82332
3.52583
3.18906
2.8156
2.4085
1.97133
1.50811
1.02348
0.522438
0.0104888
-0.506527
-1.02243
-1.53073
-2.02475
-2.4976
-2.94239
-3.35247
-3.72126
-4.0424
-4.31012
-4.51918
-4.6649
-4.74358
-4.7526
-4.69094
-4.55713
-4.35157
-4.07608
-3.73396
-3.32987
-2.86983
-2.36114
-1.8125
-1.23388
-0.636209
-0.0287047
0.57187
1.15516
1.70797
2.21758
2.67168
3.05878
3.36869
3.59266
3.72392
3.75795
3.69308
3.52921
3.26949
2.92007
2.48995
1.9909
1.43729
0.845646
0.234198
-0.377096
-0.968196
-1.51866
-2.00895
-2.42099
-2.73902
-2.95038
-3.04605
-3.02137
-2.87634
-2.61616
-2.25092
-1.79555
-1.2696
-0.696196
-0.100317
0.487815
1.04142
1.5329
1.93707
2.23266
2.40347
2.43991
2.34049
2.10941
1.75967
1.31166
0.792531
0.233398
-0.350715
-0.885185
-1.35712
-1.7352
-1.99442
-2.11803
-2.09903
-1.94087
-1.65758
-1.2731
-0.819458
-0.332359
0.145411
0.576109
0.924534
1.1628
1.27345
1.2512
1.10368
0.851019
0.523628
0.157733
-0.210175
-0.529428
-0.772196
-0.913762
-0.942535
-0.861532
-0.687643
-0.44986
-0.184135
0.0835617
0.29494
0.43587
0.490031
0.455346
0.343476
0.177104
-0.0146182
-0.211679
-0.367963
-0.474028
-0.5174
-0.497098
-0.422294
-0.307428
-0.171401
-0.0376804
0.0785605
0.163961
0.211718
0.221245
0.197604
0.148956
0.0864513
0.0196977
-0.0427773
-0.0951809
-0.134884
-0.161904
-0.17798
-0.185297
19.2741
19.1756
18.9853
18.7181
18.4328
18.088
17.7727
17.2984
-1.71659
-1.19825
-0.84332
-0.314064
0.259183
0.84865
1.38467
1.93711
2.45329
2.93755
3.38584
3.79804
4.17311
4.51047
4.809
5.06741
5.28431
5.4582
5.58757
5.67105
5.70709
5.69471
5.63287
5.52094
5.3587
5.14638
4.88467
4.57474
4.21833
3.81776
3.37593
2.8963
2.38291
1.84037
1.27399
0.68952
0.0932496
-0.508073
-1.10735
-1.69711
-2.26966
-2.81711
-3.33153
-3.80529
-4.23085
-4.60094
-4.909
-5.14907
-5.31586
-5.4052
-5.41401
-5.34051
-5.18384
-4.94464
-4.6251
-4.2291
-3.76207
-3.23102
-2.64443
-2.0124
-1.34641
-0.658865
0.0375803
0.726949
1.39531
2.02773
2.60964
3.12696
3.56653
3.91673
4.1676
4.3115
4.34331
4.26077
4.06443
3.75816
3.3492
2.84802
2.26839
1.62697
0.942875
0.236991
-0.467187
-1.14693
-1.77866
-2.33994
-2.81006
-3.17104
-3.40849
-3.51222
-3.47708
-3.30341
-2.99742
-2.57099
-2.04168
-1.43221
-0.769116
-0.0818302
0.595348
1.23133
1.79445
2.25586
2.59135
2.7826
2.81894
2.69822
2.42648
2.01888
1.49928
0.898678
0.2523
-0.410195
-1.02468
-1.56407
-1.99347
-2.28482
-2.41942
-2.38969
-2.20021
-1.86771
-1.4203
-0.89517
-0.333907
0.214154
0.705942
1.101
1.36767
1.48651
1.45201
1.2738
0.975574
0.593082
0.168253
-0.253824
-0.620123
-0.895986
-1.05344
-1.07987
-0.979523
-0.772824
-0.494221
-0.188042
0.126386
0.365466
0.524252
0.582192
0.537572
0.4047
0.210436
-0.0119881
-0.2346
-0.412818
-0.531451
-0.577784
-0.551497
-0.463778
-0.332005
-0.177747
-0.0276069
0.101419
0.194646
0.244962
0.252369
0.223066
0.166676
0.0959155
0.0216147
-0.046794
-0.103164
-0.144979
-0.172715
-0.188743
-0.195846
26.9737
26.9503
26.9153
26.8798
26.848
26.8165
26.3606
25.9903
0.392187
0.745513
1.03429
1.40585
1.91889
2.36047
2.80686
3.26227
3.7067
4.13626
4.54488
4.92865
5.28361
5.60627
5.89339
6.14204
6.34935
6.51265
6.62941
6.69736
6.71476
6.67945
6.59009
6.44574
6.24591
5.99066
5.6806
5.31696
4.90159
4.43706
3.92658
3.37404
2.78397
2.1616
1.51292
0.844419
0.163235
-0.522982
-1.20618
-1.87789
-2.52943
-3.15182
-3.7361
-4.27365
-4.75598
-5.17487
-5.52297
-5.79358
-5.98077
-6.07987
-6.08741
-6.00127
-5.82074
-5.54673
-5.18184
-4.73056
-4.19911
-3.59554
-2.92955
-2.21264
-1.45789
-0.679411
0.107787
0.886788
1.64114
2.35394
3.00874
3.58964
4.08184
4.47225
4.7497
4.90565
4.93437
4.83335
4.60354
4.24949
3.77967
3.20603
2.54438
1.81373
1.03586
0.234455
-0.563722
-1.33296
-2.04657
-2.67917
-3.20746
-3.61117
-3.87425
-3.98534
-3.93869
-3.73516
-3.38199
-2.89294
-2.28825
-1.59368
-0.839919
-0.059409
0.707567
1.42663
2.06182
2.58061
2.95578
3.16691
3.20217
3.05924
2.74552
2.2788
1.68608
1.00301
0.269461
-0.475026
-1.16896
-1.77586
-2.25648
-2.57954
-2.72437
-2.68287
-2.46085
-2.07777
-1.566
-0.96825
-0.331971
0.287103
0.840251
1.28179
1.57635
1.70255
1.65468
1.44451
1.09945
0.660625
0.176241
-0.301158
-0.71462
-1.02337
-1.19615
-1.21937
-1.09852
-0.857783
-0.536827
-0.184632
0.166301
0.437933
0.614643
0.675793
0.620435
0.465727
0.242845
-0.010421
-0.258958
-0.458711
-0.589539
-0.638353
-0.605589
-0.504509
-0.355596
-0.183147
-0.0167427
0.124754
0.225414
0.2779
0.282877
0.247709
0.183502
0.104546
0.0228719
-0.0512136
-0.111257
-0.154899
-0.183104
-0.198905
-0.205698
33.4034
33.3552
33.2457
33.0528
32.7666
32.3603
32.6636
32.6721
2.23885
2.44744
2.64217
2.92143
3.27842
3.65934
4.04497
4.4475
4.84981
5.24688
5.63125
5.9973
6.33959
6.65315
6.93336
7.17593
7.37688
7.53247
7.6393
7.69429
7.69475
7.6383
7.52308
7.34778
7.11169
6.81469
6.45736
6.04097
5.56751
5.03982
4.46145
3.83669
3.17063
2.46907
1.73873
0.986845
0.221382
-0.549086
-1.31555
-2.06856
-2.79837
-3.49498
-4.14838
-4.74897
-5.28726
-5.75415
-6.14147
-6.44177
-6.64853
-6.75656
-6.76202
-6.66257
-6.45759
-6.14821
-5.73744
-5.2304
-4.63415
-3.95775
-3.21213
-2.41025
-1.56675
-0.697473
0.180522
1.04879
1.88873
2.68145
3.40862
4.05255
4.59677
5.02677
5.33013
5.49746
5.52245
5.4024
5.13863
4.7364
4.20533
3.55901
2.81524
1.99535
1.12382
0.227207
-0.66463
-1.52286
-2.31771
-3.02097
-3.60667
-4.05235
-4.34026
-4.45798
-4.39908
-4.165
-3.76412
-3.21209
-2.5316
-1.75186
-0.90738
-0.0341931
0.822343
1.624
2.33065
2.90612
3.32023
3.55048
3.58388
3.41808
3.06195
2.53565
1.86971
1.10415
0.284283
-0.543187
-1.31554
-1.9891
-2.5201
-2.87403
-3.02826
-2.97422
-2.71898
-2.28482
-1.70845
-1.03809
-0.326811
0.362768
0.976657
1.46389
1.78549
1.9182
1.85617
1.61335
1.221
0.725605
0.181703
-0.351038
-0.811165
-1.15216
-1.33955
-1.35876
-1.21674
-0.94135
-0.577504
-0.179527
0.20784
0.511379
0.705585
0.769364
0.702695
0.525713
0.274011
-0.00980552
-0.284347
-0.504944
-0.647421
-0.69824
-0.658648
-0.543991
-0.377974
-0.187645
-0.0053316
0.14818
0.255824
0.310109
0.31242
0.271299
0.199318
0.112338
0.0235452
-0.0559147
-0.119329
-0.164527
-0.192983
-0.208407
-0.214814
39.2869
39.267
39.2329
39.1973
39.2059
39.3235
39.2261
39.1048
3.64401
3.78497
3.95097
4.17329
4.45907
4.78782
5.13508
5.50396
5.88065
6.25889
6.63042
6.98825
7.3257
7.6366
7.91523
8.15625
8.3547
8.50597
8.60583
8.65047
8.63653
8.56116
8.42211
8.21778
7.94719
7.61016
7.20719
6.73966
6.2097
5.62042
4.97574
4.28038
3.53996
2.76087
1.95052
1.11694
0.26889
-0.584133
-1.43218
-2.26478
-3.07121
-3.84042
-4.56136
-5.22345
-5.81627
-6.3298
-6.75508
-7.08397
-7.30932
-7.42548
-7.42824
-7.31507
-7.08542
-6.74066
-6.2842
-5.72178
-5.0613
-4.31281
-3.48848
-2.60269
-1.67168
-0.71296
0.254485
1.21051
2.13451
3.00565
3.80373
4.50931
5.1043
5.57278
5.90115
6.07913
6.09989
5.96058
5.66284
5.21275
4.62101
3.90283
3.07791
2.17005
1.2063
0.215821
-0.767915
-1.71344
-2.5879
-3.36025
-4.0019
-4.48831
-4.80004
-4.92369
-4.85199
-4.58723
-4.13887
-3.52424
-2.76883
-1.90509
-0.970863
-0.00691597
0.937767
1.82045
2.59704
3.2278
3.67966
3.92808
3.95901
3.77013
3.3717
2.7863
2.04799
1.20132
0.296435
-0.613052
-1.46207
-2.20067
-2.78062
-3.16426
-3.32706
-3.25997
-2.97141
-2.48649
-1.8461
-1.10383
-0.319242
0.439723
1.11298
1.64459
1.99211
2.13055
2.05381
1.77824
1.33885
0.787422
0.184912
-0.402381
-0.908127
-1.2804
-1.48156
-1.49616
-1.33265
-1.02255
-0.616073
-0.173419
0.250652
0.584786
0.795769
0.86161
0.783279
0.583954
0.303634
-0.0100634
-0.310264
-0.550855
-0.704327
-0.756708
-0.710081
-0.581846
-0.398977
-0.191315
0.00638976
0.171357
0.285502
0.341244
0.340727
0.293666
0.214054
0.119314
0.0237195
-0.0607828
-0.127265
-0.17377
-0.202293
-0.21722
-0.223183
44.553
44.5431
44.5268
44.5047
44.4848
44.4485
44.3561
44.3587
4.71788
4.84955
4.99149
5.18915
5.4449
5.74816
6.07698
6.43088
6.7972
7.1692
7.53821
7.89639
8.23618
8.55044
8.83252
9.07627
9.27592
9.42613
9.52193
9.55886
9.53296
9.44094
9.28021
9.04889
8.74586
8.37081
7.92425
7.40763
6.82328
6.1746
5.46587
4.70226
3.88987
3.0357
2.14787
1.23513
0.307066
-0.625941
-1.553
-2.4627
-3.34329
-4.18271
-4.96892
-5.69038
-6.33573
-6.89411
-7.35579
-7.71193
-7.9548
-8.07833
-8.07792
-7.95085
-7.6967
-7.31705
-6.8157
-6.19902
-5.47568
-4.65674
-3.7556
-2.78798
-1.77173
-0.725965
0.328509
1.36979
2.37537
3.32255
4.18931
4.9545
5.5985
6.104
6.45625
6.64412
6.66032
6.50177
6.17058
5.67349
5.02242
4.23406
3.33002
2.33643
1.2829
0.20129
-0.871709
-1.90191
-2.85347
-3.6926
-4.3882
-4.91368
-5.24806
-5.37709
-5.29223
-4.99708
-4.50202
-3.82614
-2.99756
-2.0519
-1.03044
0.0219902
1.05215
2.01336
2.85763
3.54172
4.02978
4.29536
4.32336
4.1115
3.67141
3.02828
2.21916
1.29352
0.306222
-0.683263
-1.60649
-2.40786
-3.0349
-3.44683
-3.61737
-3.53701
-3.21552
-2.68075
-1.97772
-1.16555
-0.309451
0.516688
1.2473
1.82156
2.19368
2.33714
2.24542
1.93748
1.45193
0.845702
0.1861
-0.454208
-1.00407
-1.40635
-1.62039
-1.62994
-1.44496
-1.10064
-0.652362
-0.166425
0.293878
0.657182
0.884059
0.951443
0.861302
0.639885
0.331541
-0.0111208
-0.336245
-0.595856
-0.759611
-0.813155
-0.75942
-0.617797
-0.418508
-0.194247
0.0182053
0.193994
0.314146
0.371035
0.367598
0.3147
0.227683
0.125518
0.0234817
-0.0657143
-0.13497
-0.182561
-0.210999
-0.22534
-0.230817
49.2395
49.2333
49.2228
49.206
49.1882
49.1614
49.1365
49.1182
5.60776
5.69902
5.84276
6.03002
6.27389
6.56668
6.8897
7.24052
7.60723
7.9825
8.35718
8.7227
9.0707
9.39325
9.68299
9.93306
10.1371
10.289
10.3834
10.415
10.3794
10.2729
10.0925
9.83632
9.503
9.09216
8.6043
8.04098
7.40475
6.69931
5.92929
5.10032
4.21897
3.29283
2.33068
1.34204
0.337201
-0.672519
-1.67536
-2.65897
-3.61064
-4.51731
-5.36599
-6.1442
-6.83969
-7.44077
-7.93704
-8.31894
-8.57819
-8.70837
-8.70448
-8.56352
-8.28536
-7.87174
-7.32681
-6.65756
-5.87344
-4.98641
-4.01113
-2.96462
-1.8662
-0.736633
0.401572
1.52479
2.60874
3.62887
4.56147
5.38372
6.07454
6.61533
6.99019
7.18714
7.19863
7.02105
6.65735
6.11468
5.40621
4.5501
3.56973
2.49351
1.35354
0.184389
-0.974423
-2.08589
-3.11135
-4.01442
-4.76153
-5.32416
-5.67982
-5.81382
-5.71556
-5.39072
-4.85037
-4.11518
-3.21598
-2.19119
-1.08608
0.0520004
1.16401
2.20056
3.10964
3.84469
4.36715
4.64878
4.67356
4.43904
3.95851
3.25953
2.38208
1.38017
0.313802
-0.752667
-1.74707
-2.60845
-3.28034
-3.719
-3.8965
-3.80284
-3.44919
-2.86607
-2.10253
-1.22298
-0.298001
0.592541
1.37802