/*--------------------------------*- C++ -*----------------------------------*\
  =========                 |
  \\      /  F ield         | OpenFOAM: The Open Source CFD Toolbox
   \\    /   O peration     | Website:  https://openfoam.org
    \\  /    A nd           | Version:  12
     \\/     M anipulation  |
\*---------------------------------------------------------------------------*/
FoamFile
{
    format      ascii;
    class       surfaceScalarField;
    location    "11";
    object      phi;
}
// * * * * * * * * * * * * * * * * * * * * * * * * * * * * * * * * * * * * * //

dimensions      [1 0 -1 0 0 0 0];

internalField   nonuniform List<scalar> 
7429
(
0.000132987
-0.000132987
0.000268699
-0.000135713
0.000406265
-0.000137566
0.000545854
-0.00013959
0.000687712
-0.000141859
0.000832156
-0.000144445
0.000979558
-0.000147402
0.00113017
-0.000150617
0.00128396
-0.000153791
0.00144085
-0.000156886
0.00160076
-0.000159908
0.00176361
-0.000162853
0.00192937
-0.00016576
0.0020979
-0.000168532
0.00226915
-0.000171253
0.00244297
-0.00017382
0.00261923
-0.000176262
0.00279779
-0.000178559
0.00297846
-0.000180665
0.00316099
-0.000182534
0.00334513
-0.000184138
0.00353055
-0.000185426
0.00371688
-0.000186323
0.00390365
-0.000186777
0.00409036
-0.000186711
0.00427643
-0.000186067
0.00446115
-0.000184718
0.00464376
-0.000182611
0.0048234
-0.000179644
0.00499916
-0.000175762
0.00517003
-0.000170865
0.00533492
-0.000164896
0.00549276
-0.000157838
0.00564235
-0.000149584
0.00578244
-0.000140093
0.00591162
-0.000129178
0.00602878
-0.000117161
0.00613323
-0.000104453
0.00622419
-9.09624e-05
0.00630043
-7.62398e-05
0.00636091
-6.04741e-05
0.0064043
-4.33908e-05
0.00642924
-2.49427e-05
0.00643328
-4.03892e-06
0.00641338
1.98982e-05
0.0063692
4.41806e-05
0.00629971
6.94884e-05
0.00620401
9.57056e-05
0.0060814
0.00012261
0.0059314
0.000149997
0.00575387
0.000177535
0.00554873
0.000205136
0.00531644
0.000232286
0.0050575
0.000258938
0.00477288
0.000284622
0.00446346
0.000309426
0.00413098
0.000332478
0.00377665
0.000354327
0.00340262
0.000374029
0.0030107
0.000391927
0.00260376
0.00040693
0.00218438
0.000419385
0.00175605
0.00042833
0.0013223
0.000433747
0.000886927
0.000435376
0.000454058
0.00043287
2.79719e-05
0.000426086
-0.00038665
0.000414622
-0.000785194
0.000398544
-0.00116295
0.00037776
-0.00151548
0.000352527
-0.00183805
0.000322569
-0.00212627
0.000288221
-0.00237611
0.000249834
-0.00258383
0.00020772
-0.00274612
0.000162297
-0.00286046
0.000114336
-0.00292505
6.45896e-05
-0.00293826
1.3209e-05
-0.00289233
-4.59255e-05
-0.00279183
-0.000100501
-0.00263894
-0.000152887
-0.00243676
-0.000202187
-0.00218806
-0.000248691
-0.00189691
-0.000291157
-0.00156762
-0.000329287
-0.00120621
-0.000361409
-0.000819342
-0.00038687
-0.000414199
-0.000405143
1.00021e-06
-0.000415199
0.000417688
-0.000416688
0.000826781
-0.000409093
0.00121907
-0.000392286
0.00158549
-0.000366419
0.0019171
-0.000331616
0.00220566
-0.000288558
0.0024435
-0.000237838
0.00262426
-0.000180765
0.00274283
-0.000118571
0.00279526
-5.24213e-05
0.00277377
2.14856e-05
0.00267987
9.38963e-05
0.00251797
0.000161904
0.00229261
0.000225359
0.00200921
0.000283404
0.0016752
0.000334007
0.00129974
0.000375458
0.000894048
0.000405693
0.000470497
0.000423551
4.27047e-05
0.000427792
-0.000375075
0.000417779
-0.000768376
0.000393301
-0.00112352
0.000355144
-0.00142717
0.000303648
-0.00166804
0.000240867
-0.00183649
0.00016846
-0.00192595
8.94593e-05
-0.00193128
5.32493e-06
-0.00184467
-8.66079e-05
-0.00167523
-0.000169439
-0.00143073
-0.000244505
-0.00112031
-0.000310415
-0.000756424
-0.000363888
-0.000354498
-0.000401925
6.73697e-05
-0.000421868
0.000489924
-0.000422554
0.000893126
-0.000403202
0.00125743
-0.000364308
0.00156483
-0.0003074
0.00179961
-0.000234777
0.00194973
-0.000150123
0.00200759
-5.78567e-05
0.00196373
4.3859e-05
0.00182416
0.000139573
0.00159902
0.000225135
0.00130113
0.00029789
0.000947274
0.000353861
0.000558845
0.000388429
0.000159478
0.000399367
-0.000226149
0.000385627
-0.00057316
0.000347011
-0.000859557
0.000286397
-0.00106722
0.000207664
-0.00118355
0.000116326
-0.00120308
1.95308e-05
-0.00111803
-8.50495e-05
-0.000944189
-0.00017384
-0.000696572
-0.000247616
-0.000395436
-0.000301136
-6.61838e-05
-0.000329252
0.000263289
-0.000329472
0.000565128
-0.000301839
0.00081393
-0.000248803
0.000988873
-0.000174942
0.00107619
-8.73157e-05
0.00106699
9.20012e-06
0.000963662
0.000103327
0.000780751
0.000182911
0.000536624
0.000244127
0.000255597
0.000281027
-3.43431e-05
0.00028994
-0.000304515
0.000270172
-0.000529658
0.000225143
-0.00068991
0.000160252
-0.000773273
8.3363e-05
-0.000777516
4.24311e-06
-0.000705353
-7.21631e-05
-0.000574584
-0.000130769
-0.000404779
-0.000169805
-0.000219646
-0.000185133
-4.25116e-05
-0.000177134
0.000106175
-0.000148687
0.000212366
-0.000106191
0.000269398
-5.70317e-05
0.000279243
-9.84503e-06
0.000249643
2.96e-05
0.000196029
5.36132e-05
0.000135243
6.07865e-05
8.39359e-05
5.13069e-05
5.53649e-05
2.85709e-05
5.70291e-05
-1.66417e-06
9.28206e-05
-3.57915e-05
0.000154559
-6.17379e-05
0.000229508
-7.49497e-05
0.000301928
-7.24195e-05
0.000355642
-5.37139e-05
0.00037688
-2.12385e-05
0.000354297
2.25835e-05
0.000285584
6.8713e-05
0.000175623
0.00010996
3.51708e-05
0.000140452
-0.000119145
0.000154315
-0.000266956
0.000147811
-0.000387489
0.000120533
-0.000463027
7.5538e-05
-0.000480868
1.78407e-05
-0.0004355
-4.53673e-05
-0.000330759
-0.000104741
-0.000179001
-0.000151758
-0.000179001
0.00015032
-0.000283307
0.000305458
-0.000290852
0.000462505
-0.000294613
0.00062145
-0.000298535
0.000782228
-0.000302638
0.000944736
-0.000306953
0.00110872
-0.000311388
0.00127422
-0.000316118
0.00144164
-0.000321214
0.00161155
-0.000326793
0.00178444
-0.000332801
0.00196101
-0.000339417
0.00214184
-0.000346592
0.00232652
-0.000353214
0.00251454
-0.000359269
0.00270539
-0.000364676
0.00289867
-0.000369545
0.00309402
-0.000373904
0.00329108
-0.000377732
0.00348957
-0.000381019
0.0036891
-0.000383673
0.00388925
-0.000385577
0.00408952
-0.000386586
0.00428926
-0.000386524
0.00448774
-0.000385188
0.00468401
-0.000382337
0.00487698
-0.000377694
0.00506552
-0.000371153
0.00524828
-0.000362395
0.00542398
-0.000351462
0.00559228
-0.000339167
0.00575307
-0.000325693
0.00590595
-0.000310717
0.00605049
-0.00029412
0.006186
-0.000275604
0.0063119
-0.000255078
0.00642696
-0.000232218
0.00652953
-0.000207027
0.00661793
-0.000179367
0.00669094
-0.000149247
0.00674712
-0.000116652
0.00678554
-8.18167e-05
0.00680591
-4.53136e-05
0.00680291
-1.02994e-06
0.00677032
5.24869e-05
0.00670982
0.00010468
0.00662149
0.000157815
0.00650521
0.000211988
0.00636073
0.000267087
0.00618807
0.000322656
0.00598713
0.000378473
0.00575816
0.000434115
0.00550131
0.000489129
0.00521735
0.000542899
0.00490689
0.000595081
0.00457108
0.000645237
0.00421102
0.000692545
0.00382839
0.000736954
0.00342512
0.000777295
0.00300321
0.000813842
0.00256552
0.000844624
0.00211525
0.00086965
0.00165585
0.000887727
0.00119129
0.000898316
0.000725581
0.000901081
0.000263275
0.000895176
-0.00019093
0.000880291
-0.000632178
0.00085587
-0.00105527
0.000821634
-0.00145521
0.000777698
-0.00182712
0.000724437
-0.00216594
0.000661389
-0.00246686
0.000589151
-0.00272584
0.000508809
-0.00293871
0.000420594
-0.00310182
0.000325402
-0.00321203
0.000224546
-0.00326797
0.000120536
-0.00326669
1.19286e-05
-0.00320372
-0.000108903
-0.00308337
-0.000220849
-0.00290744
-0.000328815
-0.00267826
-0.000431367
-0.00239882
-0.000528133
-0.00207342
-0.000616555
-0.00170744
-0.000695269
-0.00130746
-0.000761384
-0.000880651
-0.000813683
-0.000435318
-0.000850476
1.96683e-05
-0.000870185
0.000474801
-0.000871821
0.000920195
-0.000854486
0.00134588
-0.000817975
0.0017419
-0.000762438
0.00209872
-0.000688433
0.00240724
-0.000597076
0.00265902
-0.000489617
0.00284717
-0.000368916
0.00296678
-0.000238187
0.00301399
-9.96255e-05
0.00298041
5.5061e-05
0.00287038
0.000203931
0.0026871
0.000345182
0.00243453
0.000477925
0.00211892
0.00059902
0.00174869
0.000704234
0.00133451
0.000789635
0.000888397
0.000851811
0.000424706
0.000887242
-4.22594e-05
0.000894757
-0.000496502
0.000872022
-0.000922774
0.000819573
-0.00130542
0.000737787
-0.00163067
0.000628898
-0.0018859
0.000496102
-0.00206127
0.000343824
-0.00214975
0.000177941
-0.00214288
-1.53975e-06
-0.00204159
-0.000187902
-0.00185123
-0.000359801
-0.00157883
-0.000516902
-0.00123511
-0.00065414
-0.000834276
-0.000764717
-0.000393678
-0.000842523
6.70077e-05
-0.000882554
0.000526105
-0.000881652
0.000962412
-0.000839509
0.00135389
-0.000755788
0.00168167
-0.000635177
0.00192895
-0.000482055
0.00208289
-0.000304067
0.00213586
-0.000110825
0.00207842
0.000101297
0.00191924
0.000298749
0.00166745
0.000476926
0.00133738
0.000627964
0.000948534
0.000742706
0.000524067
0.000812896
9.00295e-05
0.000833405
-0.000324553
0.000800209
-0.000694865
0.000717323
-0.000997034
0.000588567
-0.00121163
0.000422263
-0.00132533
0.000230018
-0.00133211
2.63163e-05
-0.0012291
-0.000188058
-0.00103076
-0.000372185
-0.000752999
-0.000525376
-0.000419983
-0.000634152
-5.86754e-05
-0.00069056
0.000300064
-0.000688211
0.000625573
-0.000627348
0.000890503
-0.000513733
0.00107308
-0.000357524
0.00115906
-0.000173292
0.0011392
2.90603e-05
0.00102055
0.000221978
0.000816527
0.000386933
0.000548477
0.000512178
0.000243773
0.00058573
-6.7092e-05
0.000600805
-0.000352886
0.000555966
-0.000586613
0.00045887
-0.00074767
0.000321309
-0.000824727
0.00016042
-0.000812861
-7.6234e-06
-0.000724015
-0.000161008
-0.000573608
-0.000281177
-0.000384901
-0.000358511
-0.000184096
-0.000385938
3.22187e-06
-0.000364453
0.000155427
-0.000300892
0.000258169
-0.000208933
0.000305695
-0.000104557
0.000300827
-4.97703e-06
0.000255081
7.5346e-05
0.000184963
0.000123731
0.000109957
0.000135793
4.80882e-05
0.000113176
1.41832e-05
6.2476e-05
1.62546e-05
-3.73556e-06
5.36844e-05
-7.32214e-05
0.000121893
-0.000129947
0.000205424
-0.000158481
0.000286942
-0.000153937
0.000348917
-0.000115689
0.000376603
-4.89245e-05
0.000358771
4.04154e-05
0.000292942
0.000134542
0.000183919
0.000218983
4.3073e-05
0.000281299
-0.000112464
0.000309852
-0.000261577
0.000296925
-0.000383462
0.000242418
-0.00046
0.000152077
-0.000478602
3.64424e-05
-0.000433907
-9.00628e-05
-0.000329725
-0.000208923
-0.00017846
-0.000303023
-0.000357461
9.38877e-05
-0.000377196
0.000188602
-0.000385567
0.000283722
-0.000389734
0.000378985
-0.000393799
0.000474183
-0.000397836
0.000569425
-0.000402195
0.000664989
-0.000406954
0.000761837
-0.000412966
0.000861503
-0.000420881
0.000966383
-0.000431674
0.00107436
-0.000440777
0.00118385
-0.000448907
0.00129397
-0.000456711
0.001406
-0.000465251
0.00152106
-0.000474332
0.00164025
-0.000483864
0.00176439
-0.000493682
0.00189438
-0.000503899
0.0020309
-0.000514252
0.00217445
-0.000524563
0.00232531
-0.000534541
0.00248384
-0.000544108
0.00265015
-0.000552894
0.00282431
-0.000560681
0.00300586
-0.000566746
0.00319462
-0.000571095
0.00338996
-0.000573029
0.00359154
-0.00057274
0.00379841
-0.000569257
0.00400954
-0.000562598
0.00422281
-0.000552442
0.00443593
-0.000538807
0.00464623
-0.000521015
0.00485061
-0.0004985
0.00504672
-0.00047172
0.00523518
-0.000443537
0.00541571
-0.000412746
0.00558688
-0.000378194
0.00574636
-0.000338852
0.00589199
-0.000294873
0.00602061
-0.000245275
0.00612866
-0.000189865
0.00621281
-0.000129461
0.00627467
-6.28957e-05
0.00631391
1.32523e-05
0.00632473
9.38588e-05
0.00630468
0.000177866
0.0062517
0.000264963
0.00616429
0.000354493
0.00604132
0.000445633
0.00588211
0.00053768
0.00568648
0.000629748
0.0054544
0.000721203
0.00518613
0.000811171
0.00488238
0.000898836
0.00454396
0.00098365
0.00417233
0.00106418
0.00376944
0.00113985
0.00333823
0.0012085
0.00288174
0.00127033
0.00240366
0.0013227
0.00190802
0.00136529
0.0013991
0.00139665
0.00088199
0.00141542
0.000361838
0.00142123
-0.000155605
0.00141262
-0.000664841
0.00138953
-0.00115981
0.00135084
-0.00163439
0.00129621
-0.00208228
0.00122559
-0.0024976
0.00113976
-0.00287418
0.00103797
-0.00320616
0.00092113
-0.00348876
0.00079141
-0.00371703
0.000648867
-0.00388681
0.000495178
-0.00399514
0.000332877
-0.00403782
0.000163216
-0.00400667
-1.92217e-05
-0.00391078
-0.000204794
-0.00374814
-0.000383483
-0.00352038
-0.00055658
-0.0032295
-0.000722244
-0.00288043
-0.000877203
-0.00247756
-0.00101942
-0.00202808
-0.00114476
-0.00153976
-0.0012497
-0.00102152
-0.00133192
-0.0004833
-0.0013887
6.42575e-05
-0.00141774
0.000609612
-0.00141718
0.00114099
-0.00138587
0.00164647
-0.00132346
0.00211432
-0.00123029
0.00253288
-0.00110699
0.00289219
-0.00095638
0.00318301
-0.000780437
0.00339602
-0.000581926
0.00352399
-0.000366156
0.00356253
-0.000138169
0.00350828
0.000109312
0.0033642
0.000348013
0.00313262
0.000576756
0.00281849
0.000792062
0.00242974
0.000987762
0.00197708
0.0011569
0.00147347
0.00129324
0.000934265
0.00139102
0.000375832
0.00144568
-0.000183434
0.00145402
-0.000725102
0.00141369
-0.00123019
0.00132466
-0.00168072
0.00118831
-0.00206056
0.00100874
-0.0023545
0.000790044
-0.00255171
0.000541035
-0.00264162
0.000267852
-0.00261707
-2.60885e-05
-0.00248285
-0.000322124
-0.00224326
-0.000599388
-0.00190671
-0.000853449
-0.0014861
-0.00107476
-0.00100012
-0.0012507
-0.000468599
-0.00137404
8.34986e-05
-0.00143465
0.000630624
-0.00142878
0.00114654
-0.00135542
0.00160669
-0.00121595
0.00198752
-0.001016
0.00226906
-0.000763603
0.00243675
-0.000471754
0.0024821
-0.000156172
0.00239943
0.000183966
0.00219721
0.000500967
0.00188561
0.000788529
0.00148252
0.00103105
0.00101257
0.00121266
0.000504196
0.00132127
-1.05834e-05
0.00134818
-0.000499967
0.00128959
-0.000932118
0.00114947
-0.00127902
0.000935468
-0.00151888
0.00066212
-0.00163567
0.000346815
-0.00161932
9.9633e-06
-0.00148043
-0.000326949
-0.00122817
-0.000624444
-0.000884314
-0.000869231
-0.000476496
-0.00104197
-4.00875e-05
-0.00112697
0.000385742
-0.00111404
0.000768213
-0.00100982
0.00107453
-0.000820053
0.00127958
-0.000562573
0.0013672
-0.000260911
0.00132919
6.7072e-05
0.00117614
0.000375029
0.000923852
0.000639219
0.000599315
0.000836715
0.000236123
0.000948922
-0.000127913
0.000964842
-0.00045641
0.000884462
-0.000718003
0.000720463
-0.000889386
0.000492692
-0.000959018
0.000230052
-0.000924347
-4.22946e-05
-0.000800586
-0.000284769
-0.000608412
-0.000473352
-0.000376892
-0.000590031
-0.000138416
-0.000624413
7.68e-05
-0.000579669
0.000243794
-0.000467886
0.00034702
-0.000312158
0.000382103
-0.000139641
0.000353631
2.34956e-05
0.000279064
0.000149913
0.000178849
0.000223945
7.69901e-05
0.000237652
-4.19332e-06
0.000194359
-4.83901e-05
0.000106673
-4.53573e-05
-6.76839e-06
1.51756e-06
-0.000120096
8.25774e-05
-0.000211006
0.000185259
-0.000261163
0.00028603
-0.000254708
0.000364395
-0.000194054
0.000403384
-8.79138e-05
0.000390944
5.28557e-05
0.0003243
0.000201187
0.000208705
0.000334578
5.7441e-05
0.000432563
-0.000110421
0.000477714
-0.000271585
0.000458089
-0.000403512
0.000374345
-0.000486563
0.000235127
-0.00050733
5.72097e-05
-0.000460429
-0.000136963
-0.000350025
-0.000319328
-0.000189455
-0.000463592
-0.000546917
0.000127073
-0.000504269
0.000259871
-0.000518366
0.000396667
-0.000526531
0.000538603
-0.000535736
0.000686081
-0.000545315
0.000839925
-0.00055604
0.000998575
-0.000565605
0.00116178
-0.000576167
0.00132445
-0.000583554
0.00148389
-0.000591118
0.00164028
-0.000597171
0.00179627
-0.000604896
0.00195272
-0.000613157
0.00211078
-0.000623318
0.0022725
-0.00063605
0.00243775
-0.000649111
0.00260583
-0.000661765
0.00277698
-0.000675052
0.00295267
-0.000689939
0.00313453
-0.000706428
0.00332378
-0.000723787
0.00352198
-0.000742313
0.00372961
-0.000760518
0.00394763
-0.000778707
0.00417461
-0.000793721
0.00441039
-0.000806883
0.00465044
-0.000813072
0.00489303
-0.000815339
0.00512994
-0.000806164
0.00536028
-0.000792937
0.00558458
-0.000776743
0.00580579
-0.000760013
0.00602427
-0.000739495
0.00624054
-0.000714772
0.0064532
-0.000684382
0.00665803
-0.00064837
0.00685108
-0.00060579
0.00702962
-0.000556739
0.00719141
-0.000500635
0.00733393
-0.000437398
0.00745538
-0.000366729
0.00755499
-0.000289467
0.00763048
-0.000204955
0.00767854
-0.000110953
0.00769276
-9.75126e-07
0.00766196
0.000124659
0.00759184
0.000247992
0.00748373
0.000373072
0.0073374
0.000500821
0.0071525
0.000630534
0.00692804
0.000762139
0.00666412
0.000893671
0.00635978
0.00102554
0.00601558
0.00115538
0.00563102
0.0012834
0.00520776
0.0014069
0.00474807
0.00152387
0.00425332
0.0016346
0.00372635
0.00173547
0.00317042
0.00182626
0.00259003
0.00190309
0.00199036
0.00196497
0.00137641
0.0020106
0.000754274
0.00203756
0.000130016
0.00204549
-0.000489832
0.00203247
-0.00109844
0.00199813
-0.00168802
0.00194042
-0.00225155
0.00185974
-0.00278132
0.00175536
-0.00327033
0.00162877
-0.00371111
0.00147875
-0.00409676
0.00130677
-0.00442174
0.0011164
-0.00468008
0.000907207
-0.0048659
0.000680998
-0.00497495
0.00044192
-0.00500477
0.000193037
-0.00494887
-7.51238e-05
-0.00481354
-0.000340121
-0.00459762
-0.000599402
-0.00430345
-0.000850747
-0.0039337
-0.001092
-0.00349349
-0.00131741
-0.00298973
-0.00152318
-0.00243049
-0.001704
-0.00182585
-0.00185433
-0.001187
-0.00197077
-0.000526095
-0.00204961
0.000143717
-0.00208756
0.00080843
-0.00208189
0.00145345
-0.00203089
0.00206462
-0.00193463
0.0026279
-0.00179356
0.0031279
-0.00160699
0.0035522
-0.00138068
0.0038905
-0.00111874
0.00413341
-0.000824841
0.00427364
-0.00050638
0.00430649
-0.000171025
0.00422255
0.000193256
0.00403016
0.0005404
0.00373224
0.000874683
0.00333439
0.00118991
0.00284722
0.00147493
0.00228444
0.00171968
0.00166171
0.00191597
0.00099805
0.00205468
0.000314441
0.00212929
-0.000367564
0.00213603
-0.00102483
0.00207096
-0.00163406
0.00193389
-0.00217435
0.0017286
-0.00262474
0.00145913
-0.00296878
0.00113408
-0.0031921
0.000764353
-0.00328679
0.00036254
-0.00324057
-7.23105e-05
-0.00306232
-0.000500374
-0.00275582
-0.000905888
-0.00233167
-0.0012776
-0.00180798
-0.00159845
-0.00120622
-0.00185245
-0.000554762
-0.0020255
0.000119468
-0.00210888
0.00078334
-0.00209265
0.00140606
-0.00197815
0.00195576
-0.00176564
0.00240533
-0.00146556
0.00273318
-0.00109145
0.00292117
-0.000659747
0.00295655
-0.00019155
0.00283895
0.000301562
0.0025764
0.000763516
0.00218273
0.0011822
0.00168125
0.00153253
0.00110293
0.00179098
0.000481827
0.00194237
-0.000142237
0.00197225
-0.000729213
0.00187657
-0.00124175
0.00166201
-0.00164709
0.0013408
-0.0019188
0.000933834
-0.00203944
0.00046745
-0.00199793
-3.15433e-05
-0.001809
-0.000515877
-0.00148384
-0.000949611
-0.00105159
-0.00130148
-0.000547066
-0.0015465
-1.34334e-05
-0.0016606
0.000504899
-0.00163237
0.000963734
-0.00146865
0.00132459
-0.00118091
0.0015588
-0.000796782
0.00164678
-0.000348893
0.00158465
0.000129202
0.00138377
0.000575906
0.00106565
0.000957337
0.000665466
0.0012369
0.0002246
0.00138979
-0.00021089
0.00140033
-0.000596649
0.00127022
-0.000895498
0.00101931
-0.00108082
0.000678011
-0.00114022
0.000289454
-0.00107556
-0.00010695
-0.000904988
-0.000455345
-0.000657066
-0.000721274
-0.000368756
-0.000878341
-7.94374e-05
-0.000913732
0.000171904
-0.00083101
0.000358223
-0.000654206
0.000462395
-0.00041633
0.000480359
-0.000157604
0.000422983
8.08717e-05
0.000310832
0.000262063
0.000171836
0.000362942
3.52079e-05
0.00037428
-6.95373e-05
0.000299104
-0.000125029
0.000162164
-0.000121198
-1.05991e-05
-6.17423e-05
-0.000179552
3.92251e-05
-0.000311974
0.000167911
-0.000389848
0.000293352
-0.00038015
0.000392335
-0.000293036
0.000444782
-0.000140361
0.000437593
6.00444e-05
0.000367762
0.000271017
0.000241766
0.000460575
7.50039e-05
0.000599324
-0.000110702
0.00066342
-0.00028904
0.000636427
-0.000434946
0.000520251
-0.000526902
0.000327083
-0.00055041
8.0718e-05
-0.000499894
-0.00018748
-0.00038015
-0.000439072
-0.000205774
-0.000637968
-0.000752691
0.000141159
-0.000645429
0.000283498
-0.000660705
0.000422669
-0.000665703
0.000556369
-0.000669437
0.00068052
-0.000669466
0.000793812
-0.000669333
0.000887216
-0.000659009
0.000962486
-0.000651438
0.00100608
-0.000627152
0.00102718
-0.000612219
0.00102754
-0.000597527
0.00101509
-0.000592443
0.000994433
-0.000592505
0.000972871
-0.000601757
0.000955445
-0.000618625
0.00094935
-0.000643017
0.00096141
-0.000673825
0.000996182
-0.000709824
0.00105626
-0.000750017
0.00114194
-0.000792109
0.00125291
-0.000834754
0.00139122
-0.000880631
0.00155568
-0.000924976
0.00174828
-0.000971306
0.00196668
-0.00101212
0.00221269
-0.00105289
0.00247803
-0.00107842
0.00276374
-0.00110104
0.00305617
-0.0010986
0.00336037
-0.00109713
0.0036744
-0.00109078
0.00399769
-0.0010833
0.00432738
-0.00106918
0.00466134
-0.00104874
0.00499694
-0.00101998
0.00533066
-0.000982088
0.00565861
-0.000933739
0.00597651
-0.000874639
0.00628088
-0.000805011
0.00656653
-0.000723049
0.0068263
-0.000626492
0.00705574
-0.000518908
0.00724818
-0.000397393
0.00740663
-0.00026941
0.0075264
-0.000120741
0.00760735
4.37057e-05
0.00764208
0.000213262
0.00762699
0.000388165
0.00755976
0.000568051
0.00743805
0.000752245
0.0072614
0.000938784
0.00702771
0.00112736
0.00673855
0.0013147
0.00639254
0.00150139
0.00599237
0.00168357
0.00553894
0.00186034
0.00503525
0.00202756
0.00448493
0.00218492
0.00389295
0.00232745
0.00326366
0.00245555
0.00260233
0.00256443
0.00191483
0.00265247
0.00120835
0.00271708
0.000489775
0.00275613
-0.000232847
0.00276811
-0.000950914
0.00275053
-0.00165609
0.00270331
-0.00233963
0.00262396
-0.00299256
0.00251267
-0.00360553
0.00236833
-0.00416992
0.00219316
-0.00467664
0.00198547
-0.00511661
0.00174675
-0.00548379
0.00148358
-0.00576857
0.00119198
-0.00596876
0.000881188
-0.00607922
0.000552383
-0.00609307
0.000206885
-0.00600586
-0.000162331
-0.00582349
-0.000522488
-0.00554548
-0.00087742
-0.00517322
-0.001223
-0.00471112
-0.0015541
-0.00416595
-0.00186259
-0.00354673
-0.00214241
-0.00286307
-0.00238766
-0.00212698
-0.00259043
-0.00135224
-0.00274551
-0.000553532
-0.00284832
0.0002535
-0.00289459
0.00105213
-0.00288052
0.00182387
-0.00280262
0.00255167
-0.00266243
0.00321978
-0.00246167
0.00381212
-0.00219933
0.00431147
-0.00188004
0.00470392
-0.00151118
0.00497854
-0.00109946
0.00512695
-0.000654783
0.0051423
-0.000186374
0.00502749
0.000308062
0.00478056
0.000787331
0.00440555
0.00124969
0.00391154
0.00168392
0.00331165
0.00207482
0.00262235
0.00240899
0.00186465
0.00267367
0.00106043
0.0028589
0.000235364
0.00295435
-0.000584596
0.00295599
-0.00137167
0.00285803
-0.00209765
0.00265987
-0.00273808
0.00236903
-0.00326803
0.00198908
-0.003666
0.00153206
-0.00391618
0.00101453
-0.00400835
0.00045471
-0.00393574
-0.000144919
-0.00370396
-0.000732157
-0.00331872
-0.00129113
-0.00279499
-0.00180132
-0.00215366
-0.00223978
-0.00142343
-0.00258268
-0.000632409
-0.00281653
0.00017754
-0.00291883
0.000973066
-0.00288817
0.00171289
-0.00271797
0.00236344
-0.00241619
0.00289072
-0.00199284
0.00326643
-0.00146717
0.00347106
-0.000864376
0.00349586
-0.000216343
0.00333555
0.000461863
0.00300281
0.00109626
0.00251509
0.00166992
0.00190142
0.0021462
0.00119928
0.00249311
0.000450615
0.00269104
-0.000295846
0.00271871
-0.000993416
0.00257414
-0.00159539
0.00226399
-0.00206343
0.00180884
-0.00236767
0.00123808
-0.00249025
0.000590026
-0.00241964
-0.000102146
-0.00217084
-0.000764679
-0.00176212
-0.00135833
-0.00122765
-0.00183595
-0.000613422
-0.00216072
3.13675e-05
-0.00230539
0.000650977
-0.00225198
0.00119308
-0.00201076
0.0016129
-0.00160073
0.00187629
-0.00106017
0.00196289
-0.000435496
0.00187055
0.000221547
0.00161306
0.00083339
0.00121929
0.00135111
0.000731624
0.00172457
0.000202778
0.00191863
-0.000312896
0.00191601
-0.000761748
0.00171907
-0.00110022
0.00135778
-0.00129893
0.000876725
-0.00134418
0.000334702
-0.00124323
-0.000207893
-0.00101811
-0.00068047
-0.000706204
-0.00103318
-0.000354099
-0.00123045
-9.18306e-06
-0.00125865
0.000282753
-0.00112295
0.000489201
-0.000860654
0.000592108
-0.000519238
0.000590097
-0.000155594
0.000497982
0.000172987
0.000343346
0.000416699
0.000161023
0.000545265
-1.1462e-05
0.000546765
-0.000142931
0.000430573
-0.000210225
0.000229457
-0.000203923
-1.69007e-05
-0.000128976
-0.000254499
-9.08895e-07
-0.000440041
0.000153351
-0.000544109
0.000305491
-0.000532289
0.000426468
-0.000414014
0.000492866
-0.000206759
0.000490527
6.23841e-05
0.000416166
0.000345378
0.00027765
0.000599091
9.32298e-05
0.000783744
-0.000112068
0.000868718
-0.000309078
0.000833436
-0.000470031
0.000681204
-0.000571401
0.000428453
-0.000597511
0.000106828
-0.000542837
-0.000242154
-0.000412779
-0.000569129
-0.000223362
-0.000827385
-0.000976053
-1.57084e-05
-0.000629721
-2.3109e-05
-0.000653305
-8.00777e-06
-0.000680805
4.24081e-05
-0.000719854
0.000136213
-0.000763272
0.000290888
-0.000824008
0.000492006
-0.000860128
0.000784434
-0.000943866
0.00107248
-0.000915201
0.00137912
-0.000918854
0.00166141
-0.000879825
0.00191129
-0.000842319
0.00211433
-0.00079555
0.00226908
-0.000756502
0.00237689
-0.000726432
0.00244299
-0.000709122
0.00247466
-0.000705495
0.00248227
-0.000717434
0.00247549
-0.000743239
0.00247083
-0.000787454
0.00248347
-0.000847387
0.00253072
-0.00092789
0.0026244
-0.00101865
0.00278331
-0.00113022
0.00299977
-0.00122858
0.00329421
-0.00134733
0.00361195
-0.00139616
0.00400501
-0.00149411
0.00437415
-0.00146774
0.00476939
-0.00149237
0.00515171
-0.0014731
0.00553457
-0.00146616
0.00591114
-0.00144576
0.00628067
-0.00141826
0.0066411
-0.00138041
0.00698878
-0.00132978
0.00732127
-0.00126622
0.00763513
-0.00118851
0.00792581
-0.00109568
0.00819039
-0.000987631
0.00842678
-0.00086288
0.00863193
-0.00072406
0.00879925
-0.000564716
0.00892738
-0.000397542
0.00902145
-0.000214804
0.00905522
9.93279e-06
0.00903061
0.000237871
0.00895348
0.000465297
0.00882303
0.0006985
0.00863633
0.000938941
0.00839219
0.00118293
0.00808921
0.00143034
0.00772412
0.00167979
0.00729811
0.00192739
0.00681309
0.00216859
0.00626926
0.00240417
0.00567066
0.00262616
0.00502024
0.00283534
0.0043226
0.00302508
0.00358251
0.00319564
0.00280722
0.00333972
0.00200294
0.00345674
0.00117772
0.0035423
0.000340547
0.00359331
-0.000500097
0.00360876
-0.00133485
0.00358528
-0.00215305
0.00352151
-0.00294539
0.0034163
-0.00369897
0.00326625
-0.0044039
0.00307326
-0.00505041
0.00283967
-0.00562839
0.00256345
-0.00613047
0.00224883
-0.00654223
0.00189533
-0.00686318
0.00151294
-0.00707711
0.00109512
-0.00718625
0.00066153
-0.0071807
0.000201328
-0.00706385
-0.00027918
-0.00683418
-0.000752157
-0.0064912
-0.0012204
-0.00603824
-0.00167596
-0.00548229
-0.00211005
-0.00483013
-0.00251474
-0.00409151
-0.00288102
-0.0032797
-0.00319947
-0.00240865
-0.00346148
-0.00149368
-0.00366048
-0.000553314
-0.00378868
0.000393475
-0.00384138
0.00132833
-0.00381537
0.00222984
-0.00370414
0.00307643
-0.00350902
0.00384861
-0.00323385
0.00452878
-0.00287951
0.00509936
-0.00245062
0.00554456
-0.00195638
0.00585076
-0.00140566
0.00600933
-0.000813348
0.00600998
-0.000187026
0.00585478
0.000463255
0.00554615
0.00109596
0.00508833
0.00170751
0.00449336
0.00227889
0.00377622
0.00279196
0.00295671
0.00322849
0.00205817
0.00357221
0.00110785
0.00380922
0.000135358
0.00392685
-0.000823869
0.00391521
-0.00174182
0.00377598
-0.00258518
0.00350324
-0.00332542
0.00310927
-0.00393053
0.00259419
-0.00438135
0.00198288
-0.00465817
0.00129135
-0.00474682
0.000543363
-0.0046461
-0.000245641
-0.00435768
-0.00102058
-0.00388947
-0.00175934
-0.00325942
-0.00243137
-0.00249524
-0.00300396
-0.00162655
-0.00345138
-0.000698841
-0.00374423
0.000255553
-0.00387323
0.001183
-0.00381562
0.00204602
-0.00358099
0.00279653
-0.00316669
0.00339861
-0.00259492
0.00382144
-0.00189
0.0040414
-0.00108434
0.00404588
-0.000220815
0.00384151
0.000666231
0.00343278
0.00150499
0.00284623
0.00225647
0.0021153
0.00287713
0.00128446
0.00332395
0.000406851
0.00356865
-0.000464016
0.00358958
-0.00127207
0.00338219
-0.00196503
0.00295695
-0.00249676
0.00234057
-0.00283096
0.00157228
-0.00294971
0.000708782
-0.00284662
-0.000205243
-0.00253313
-0.00107817
-0.00203604
-0.00185542
-0.00139501
-0.00247697
-0.000665819
-0.00288991
9.11748e-05
-0.00306238
0.000812749
-0.00297356
0.00143797
-0.00263598
0.00191541
-0.00207818
0.00220558
-0.00135033
0.00228721
-0.000517133
0.0021603
0.000348461
0.00184136
0.00115233
0.00136636
0.00182611
0.000788398
0.00230253
0.000167575
0.00253946
-0.000427198
0.00251078
-0.000938533
0.00223041
-0.00131524
0.00173449
-0.00152472
0.0010862
-0.00155239
0.000362381
-0.00141019
-0.000350097
-0.00112659
-0.000964072
-0.000747361
-0.00141241
-0.00032884
-0.00164897
7.15819e-05
-0.00165907
0.000403241
-0.0014546
0.000627936
-0.00108535
0.000726774
-0.000618075
0.000700971
-0.000129791
0.000571199
0.000302759
0.000371536
0.000616362
0.000145065
0.000771736
-6.48024e-05
0.000756632
-0.000221301
0.000587072
-0.00029894
0.000307097
-0.000288266
-2.75752e-05
-0.000196275
-0.00034649
-4.26155e-05
-0.0005937
0.000140199
-0.000726923
0.000319514
-0.000711605
0.000462113
-0.000556612
0.000541783
-0.00028643
0.000543247
6.09199e-05
0.000463579
0.000425046
0.00031252
0.00075015
0.000110788
0.000985476
-0.000113628
0.00109313
-0.000328547
0.00104836
-0.00050357
0.000856227
-0.000613567
0.000538449
-0.000641917
0.000135179
-0.000583098
-0.000300973
-0.000443243
-0.000708984
-0.000239822
-0.00103081
-0.00121588
0.000354061
-0.000983783
0.000720893
-0.00102014
0.00111687
-0.00107678
0.00154878
-0.00115177
0.00202792
-0.00124241
0.0025664
-0.00136249
0.00306302
-0.00135675
0.00349041
-0.00137126
0.00342471
-0.000849505
0.00308942
-0.000583563
0.0025577
-0.000348102
0.00193781
-0.000222437
0.00126919
-0.000126931
0.000612634
-9.99429e-05
1.61875e-05
-0.000129986
-0.000487166
-0.000205769
-0.000881841
-0.00031082
-0.00116366
-0.00043562
-0.00133589
-0.000571004
-0.00140834
-0.000715002
-0.00140074
-0.000854995
-0.00130272
-0.00102591
-0.00113415
-0.00118722
-0.000876927
-0.00138744
-0.000549343
-0.00155616
-9.91488e-05
-0.00179752
0.000448505
-0.00194381
0.00117791
-0.00222351
0.00182675
-0.00211658
0.0024064
-0.00207202
0.002964
-0.0020307
0.00351628
-0.00201844
0.00406547
-0.00199495
0.00460981
-0.00196261
0.00514845
-0.00191905
0.00567746
-0.00185879
0.00619627
-0.00178502
0.00669867