/*--------------------------------*- C++ -*----------------------------------*\
  =========                 |
  \\      /  F ield         | OpenFOAM: The Open Source CFD Toolbox
   \\    /   O peration     | Website:  https://openfoam.org
    \\  /    A nd           | Version:  12
     \\/     M anipulation  |
\*---------------------------------------------------------------------------*/
FoamFile
{
    format      ascii;
    class       volVectorField;
    location    "11";
    object      U;
}
// * * * * * * * * * * * * * * * * * * * * * * * * * * * * * * * * * * * * * //

dimensions      [0 1 -1 0 0 0 0];

internalField   nonuniform List<vector> 
3829
(
(5.44367e-06 -0.0002446 0)
(1.59304e-05 -0.00025105 0)
(2.69698e-05 -0.000250804 0)
(3.79933e-05 -0.000250278 0)
(4.92542e-05 -0.000249577 0)
(6.06867e-05 -0.000248678 0)
(7.23389e-05 -0.000247588 0)
(8.42389e-05 -0.000246307 0)
(9.64089e-05 -0.00024484 0)
(0.000108751 -0.000243185 0)
(0.000121432 -0.000241338 0)
(0.000134362 -0.000239298 0)
(0.000147457 -0.000237054 0)
(0.000160813 -0.000234593 0)
(0.000174371 -0.000231895 0)
(0.000188156 -0.00022896 0)
(0.000202134 -0.000225769 0)
(0.000216299 -0.000222322 0)
(0.000230636 -0.00021862 0)
(0.000245137 -0.000214654 0)
(0.000259779 -0.000210417 0)
(0.00027454 -0.000205901 0)
(0.000289384 -0.000201116 0)
(0.000304288 -0.000196057 0)
(0.000319192 -0.000190722 0)
(0.000334064 -0.000185122 0)
(0.00034887 -0.000179242 0)
(0.000363558 -0.000173107 0)
(0.000378041 -0.000166707 0)
(0.000392239 -0.000160097 0)
(0.000406069 -0.000153258 0)
(0.000419508 -0.000146222 0)
(0.000432366 -0.000139009 0)
(0.000444686 -0.000131626 0)
(0.000456254 -0.000124092 0)
(0.000466931 -0.000116356 0)
(0.000476815 -0.000108467 0)
(0.000485629 -0.00010039 0)
(0.000493412 -9.21362e-05 0)
(0.000500137 -8.37113e-05 0)
(0.000505591 -7.51643e-05 0)
(0.00050971 -6.65058e-05 0)
(0.000512436 -5.77346e-05 0)
(0.00051359 -4.88698e-05 0)
(0.000512959 -3.99619e-05 0)
(0.000510391 -3.10702e-05 0)
(0.00050585 -2.22526e-05 0)
(0.000499244 -1.35564e-05 0)
(0.000490513 -5.03303e-06 0)
(0.000479653 3.29873e-06 0)
(0.000466405 1.13475e-05 0)
(0.000451107 1.91845e-05 0)
(0.000433825 2.66212e-05 0)
(0.000414133 3.37048e-05 0)
(0.000392204 4.03769e-05 0)
(0.000368522 4.66293e-05 0)
(0.00034303 5.22974e-05 0)
(0.000315478 5.74577e-05 0)
(0.00028632 6.2033e-05 0)
(0.000255735 6.59413e-05 0)
(0.000223685 6.91772e-05 0)
(0.00019056 7.17332e-05 0)
(0.000156723 7.35098e-05 0)
(0.000122202 7.44973e-05 0)
(8.74425e-05 7.47237e-05 0)
(5.28451e-05 7.41123e-05 0)
(1.87276e-05 7.26991e-05 0)
(-1.47426e-05 7.04137e-05 0)
(-4.73645e-05 6.73388e-05 0)
(-7.83927e-05 6.34864e-05 0)
(-0.000107583 5.88668e-05 0)
(-0.000134514 5.35498e-05 0)
(-0.000158782 4.75518e-05 0)
(-0.000180324 4.09645e-05 0)
(-0.000198505 3.38947e-05 0)
(-0.000213203 2.63766e-05 0)
(-0.000224401 1.85915e-05 0)
(-0.0002314 1.06121e-05 0)
(-0.000234312 2.50551e-06 0)
(-0.000233216 -5.54591e-06 0)
(-0.000227219 -1.33513e-05 0)
(-0.000216919 -2.09081e-05 0)
(-0.000202874 -2.80272e-05 0)
(-0.000184773 -3.45665e-05 0)
(-0.000163096 -4.04725e-05 0)
(-0.000138312 -4.55553e-05 0)
(-0.000110805 -4.97369e-05 0)
(-8.08771e-05 -5.2859e-05 0)
(-4.91441e-05 -5.49351e-05 0)
(-1.63667e-05 -5.58466e-05 0)
(1.68679e-05 -5.55877e-05 0)
(4.98545e-05 -5.41212e-05 0)
(8.1827e-05 -5.1477e-05 0)
(0.000112117 -4.76801e-05 0)
(0.000140003 -4.28212e-05 0)
(0.000164744 -3.69898e-05 0)
(0.000185755 -3.03088e-05 0)
(0.000202427 -2.29465e-05 0)
(0.000214356 -1.50676e-05 0)
(0.00022114 -6.89277e-06 0)
(0.000222329 1.40433e-06 0)
(0.00021766 9.55657e-06 0)
(0.000207407 1.73918e-05 0)
(0.000191864 2.4661e-05 0)
(0.000171502 3.11856e-05 0)
(0.000146796 3.66964e-05 0)
(0.000118437 4.10862e-05 0)
(8.72334e-05 4.40839e-05 0)
(5.40348e-05 4.57609e-05 0)
(2.00341e-05 4.58383e-05 0)
(-1.38401e-05 4.44471e-05 0)
(-4.62477e-05 4.15393e-05 0)
(-7.61208e-05 3.72364e-05 0)
(-0.000102437 3.16585e-05 0)
(-0.000124156 2.50053e-05 0)
(-0.000140459 1.75022e-05 0)
(-0.000150667 9.43774e-06 0)
(-0.000154448 1.09774e-06 0)
(-0.000151118 -7.09669e-06 0)
(-0.000140797 -1.495e-05 0)
(-0.000124132 -2.20566e-05 0)
(-0.000101855 -2.8198e-05 0)
(-7.48596e-05 -3.29778e-05 0)
(-4.41446e-05 -3.62825e-05 0)
(-1.10523e-05 -3.7885e-05 0)
(2.29002e-05 -3.76844e-05 0)
(5.59199e-05 -3.57255e-05 0)
(8.65659e-05 -3.20718e-05 0)
(0.00011341 -2.69275e-05 0)
(0.000135024 -2.05313e-05 0)
(0.000150263 -1.32045e-05 0)
(0.000158497 -5.29925e-06 0)
(0.000158936 2.68715e-06 0)
(0.000151377 1.03474e-05 0)
(0.00013673 1.72905e-05 0)
(0.000115648 2.30635e-05 0)
(8.93927e-05 2.74281e-05 0)
(5.96024e-05 2.99508e-05 0)
(2.80122e-05 3.06629e-05 0)
(-3.51823e-06 2.94003e-05 0)
(-3.28852e-05 2.63328e-05 0)
(-5.81726e-05 2.16189e-05 0)
(-7.78719e-05 1.56811e-05 0)
(-9.0715e-05 8.86275e-06 0)
(-9.60245e-05 1.74364e-06 0)
(-9.31995e-05 -5.19398e-06 0)
(-8.26805e-05 -1.1477e-05 0)
(-6.56895e-05 -1.66164e-05 0)
(-4.36162e-05 -2.02659e-05 0)
(-1.82603e-05 -2.20905e-05 0)
(8.46945e-06 -2.20291e-05 0)
(3.40258e-05 -2.00843e-05 0)
(5.60253e-05 -1.65132e-05 0)
(7.28891e-05 -1.16138e-05 0)
(8.32411e-05 -5.88811e-06 0)
(8.61712e-05 1.52401e-07 0)
(8.14196e-05 5.89034e-06 0)
(6.97503e-05 1.08753e-05 0)
(5.24501e-05 1.46354e-05 0)
(3.13182e-05 1.68363e-05 0)
(8.20382e-06 1.73236e-05 0)
(-1.44791e-05 1.60894e-05 0)
(-3.42634e-05 1.33941e-05 0)
(-4.95691e-05 9.55872e-06 0)
(-5.91631e-05 5.09223e-06 0)
(-6.24186e-05 4.91685e-07 0)
(-5.94261e-05 -3.64512e-06 0)
(-5.10305e-05 -6.93869e-06 0)
(-3.87479e-05 -9.10391e-06 0)
(-2.43663e-05 -9.94276e-06 0)
(-9.76359e-06 -9.51828e-06 0)
(3.2909e-06 -8.00256e-06 0)
(1.34266e-05 -5.76323e-06 0)
(1.97956e-05 -3.19873e-06 0)
(2.22459e-05 -7.37339e-07 0)
(2.11873e-05 1.23688e-06 0)
(1.75958e-05 2.47226e-06 0)
(1.27749e-05 2.86972e-06 0)
(8.18613e-06 2.43218e-06 0)
(4.77822e-06 1.35403e-06 0)
(3.79046e-06 -1.48514e-09 0)
(5.71005e-06 -1.5229e-06 0)
(9.93616e-06 -2.72437e-06 0)
(1.57207e-05 -3.32569e-06 0)
(2.17829e-05 -3.20782e-06 0)
(2.69148e-05 -2.35013e-06 0)
(2.9927e-05 -8.93094e-07 0)
(2.98229e-05 9.65391e-07 0)
(2.60847e-05 2.91947e-06 0)
(1.87262e-05 4.68031e-06 0)
(8.66903e-06 5.93916e-06 0)
(-3.43978e-06 6.46553e-06 0)
(-1.5965e-05 6.14674e-06 0)
(-2.68015e-05 4.96236e-06 0)
(-3.47641e-05 3.09029e-06 0)
(-3.85389e-05 7.25611e-07 0)
(-3.74039e-05 -1.77706e-06 0)
(-3.12697e-05 -4.10421e-06 0)
(-2.08102e-05 -5.8902e-06 0)
(-7.3074e-06 -6.87329e-06 0)
(6.6354e-06 1.32261e-05 0)
(2.05092e-05 1.74303e-05 0)
(3.46101e-05 1.72791e-05 0)
(4.88025e-05 1.69463e-05 0)
(6.31815e-05 1.64898e-05 0)
(7.78087e-05 1.58736e-05 0)
(9.25145e-05 1.51035e-05 0)
(0.000107361 1.41518e-05 0)
(0.000122391 1.30012e-05 0)
(0.000137571 1.16861e-05 0)
(0.000153073 1.01829e-05 0)
(0.000168855 8.53599e-06 0)
(0.000184914 6.69956e-06 0)
(0.000201437 4.71792e-06 0)
(0.000218253 2.49918e-06 0)
(0.000235363 1.48813e-07 0)
(0.000252735 -2.4052e-06 0)
(0.000270212 -5.11605e-06 0)
(0.000287837 -7.94603e-06 0)
(0.000305669 -1.08544e-05 0)
(0.000323675 -1.38204e-05 0)
(0.000341699 -1.67924e-05 0)
(0.000359701 -1.96996e-05 0)
(0.000377726 -2.25156e-05 0)
(0.000395606 -2.51494e-05 0)
(0.000413412 -2.75823e-05 0)
(0.000431005 -2.96678e-05 0)
(0.0004483 -3.13804e-05 0)
(0.00046503 -3.26244e-05 0)
(0.000481166 -3.33385e-05 0)
(0.000496784 -3.34288e-05 0)
(0.000511628 -3.28201e-05 0)
(0.000525668 -3.14752e-05 0)
(0.000538944 -2.93472e-05 0)
(0.000551622 -2.6413e-05 0)
(0.000563372 -2.26662e-05 0)
(0.000574177 -1.81049e-05 0)
(0.000584027 -1.26566e-05 0)
(0.000592715 -6.318e-06 0)
(0.000599995 9.25566e-07 0)
(0.000605642 9.07802e-06 0)
(0.000609888 1.81301e-05 0)
(0.000612627 2.80142e-05 0)
(0.000613395 3.86854e-05 0)
(0.000611767 5.00869e-05 0)
(0.000607571 6.22147e-05 0)
(0.000600854 7.49769e-05 0)
(0.000591582 8.82981e-05 0)
(0.000579859 0.000102039 0)
(0.00056549 0.000116089 0)
(0.000548689 0.000130264 0)
(0.000529322 0.000144485 0)
(0.000507327 0.00015849 0)
(0.000482967 0.000172206 0)
(0.000456134 0.000185334 0)
(0.000426815 0.000197832 0)
(0.000395375 0.000209282 0)
(0.000362002 0.00021973 0)
(0.000326397 0.000228763 0)
(0.000289095 0.000236451 0)
(0.000250417 0.000242361 0)
(0.000210328 0.000246623 0)
(0.000169189 0.000248796 0)
(0.000127611 0.000248993 0)
(8.57413e-05 0.000246959 0)
(4.40161e-05 0.000242737 0)
(2.79199e-06 0.00023616 0)
(-3.75736e-05 0.000227262 0)
(-7.65368e-05 0.000216064 0)
(-0.000113659 0.000202627 0)
(-0.00014846 0.000187027 0)
(-0.000180534 0.000169375 0)
(-0.000209386 0.000149853 0)
(-0.000234602 0.000128618 0)
(-0.000255811 0.000105932 0)
(-0.000272636 8.20603e-05 0)
(-0.00028492 5.73308e-05 0)
(-0.000292439 3.20323e-05 0)
(-0.000294926 6.55106e-06 0)
(-0.000292021 -1.86095e-05 0)
(-0.000283531 -4.30772e-05 0)
(-0.000270099 -6.67382e-05 0)
(-0.000251804 -8.8814e-05 0)
(-0.000228847 -0.000109318 0)
(-0.000201568 -0.000127432 0)
(-0.000170376 -0.000143153 0)
(-0.0001358 -0.000155883 0)
(-9.84695e-05 -0.000165454 0)
(-5.91497e-05 -0.00017164 0)
(-1.85452e-05 -0.000174226 0)
(2.24771e-05 -0.000173115 0)
(6.30976e-05 -0.000168289 0)
(0.000102352 -0.000159787 0)
(0.00013939 -0.000147746 0)
(0.000173307 -0.000132391 0)
(0.000203282 -0.000114061 0)
(0.000228517 -9.31158e-05 0)
(0.000248307 -7.00426e-05 0)
(0.000262126 -4.53798e-05 0)
(0.000269592 -1.97963e-05 0)
(0.000270165 6.03327e-06 0)
(0.000263619 3.14369e-05 0)
(0.000250333 5.57809e-05 0)
(0.000230616 7.83321e-05 0)
(0.000204929 9.84618e-05 0)
(0.000173983 0.000115463 0)
(0.000138497 0.000128821 0)
(9.97854e-05 0.00013805 0)
(5.87047e-05 0.00014277 0)
(1.66084e-05 0.000142883 0)
(-2.49585e-05 0.000138194 0)
(-6.46956e-05 0.000128883 0)
(-0.000101116 0.000115236 0)
(-0.00013303 9.76232e-05 0)
(-0.000159162 7.67338e-05 0)
(-0.000178513 5.31796e-05 0)
(-0.000190307 2.79561e-05 0)
(-0.00019395 1.95708e-06 0)
(-0.00018902 -2.36012e-05 0)
(-0.000175727 -4.7941e-05 0)
(-0.000154711 -6.99556e-05 0)
(-0.000126783 -8.87758e-05 0)
(-9.31064e-05 -0.000103528 0)
(-5.51024e-05 -0.00011347 0)
(-1.41629e-05 -0.000118083 0)
(2.75812e-05 -0.000117222 0)
(6.79807e-05 -0.000110794 0)
(0.000105269 -9.918e-05 0)
(0.000137668 -8.28902e-05 0)
(0.000163544 -6.27296e-05 0)
(0.000181562 -3.97469e-05 0)
(0.000190782 -1.51494e-05 0)
(0.000190361 9.65797e-06 0)
(0.000180373 3.34153e-05 0)
(0.000161693 5.48286e-05 0)
(0.000135324 7.26007e-05 0)
(0.000102616 8.57447e-05 0)
(6.57502e-05 9.34464e-05 0)
(2.6999e-05 9.52666e-05 0)
(-1.15211e-05 9.10507e-05 0)
(-4.7116e-05 8.11821e-05 0)
(-7.74372e-05 6.64024e-05 0)
(-0.000100682 4.76648e-05 0)
(-0.000115358 2.64032e-05 0)
(-0.000120597 4.08522e-06 0)
(-0.000116047 -1.74138e-05 0)
(-0.000102199 -3.67986e-05 0)
(-8.05404e-05 -5.26389e-05 0)
(-5.2767e-05 -6.36331e-05 0)
(-2.11845e-05 -6.90927e-05 0)
(1.17256e-05 -6.85738e-05 0)
(4.2904e-05 -6.22365e-05 0)
(6.95118e-05 -5.08364e-05 0)
(8.96182e-05 -3.54364e-05 0)
(0.000101559 -1.75038e-05 0)
(0.000104303 1.24998e-06 0)
(9.77396e-05 1.90637e-05 0)
(8.29117e-05 3.44042e-05 0)
(6.13245e-05 4.58384e-05 0)
(3.52826e-05 5.23862e-05 0)
(7.13321e-06 5.36061e-05 0)
(-2.01087e-05 4.94758e-05 0)
(-4.35224e-05 4.08242e-05 0)
(-6.12108e-05 2.8769e-05 0)
(-7.17359e-05 1.48164e-05 0)
(-7.43987e-05 6.27857e-07 0)
(-6.94996e-05 -1.2163e-05 0)
(-5.83497e-05 -2.22049e-05 0)
(-4.2734e-05 -2.8628e-05 0)
(-2.49166e-05 -3.09197e-05 0)
(-7.26006e-06 -2.92691e-05 0)
(8.08916e-06 -2.42903e-05 0)
(1.94982e-05 -1.71201e-05 0)
(2.60777e-05 -9.03786e-06 0)
(2.77289e-05 -1.37226e-06 0)
(2.5112e-05 4.69001e-06 0)
(1.95727e-05 8.40984e-06 0)
(1.27331e-05 9.42687e-06 0)
(6.40335e-06 7.89737e-06 0)
(1.94349e-06 4.3726e-06 0)
(4.77098e-07 -6.20283e-08 0)
(2.60741e-06 -4.76682e-06 0)
(7.90364e-06 -8.6159e-06 0)
(1.51796e-05 -1.05308e-05 0)
(2.28534e-05 -1.01526e-05 0)
(2.94303e-05 -7.52713e-06 0)
(3.34908e-05 -3.01843e-06 0)
(3.38755e-05 2.68792e-06 0)
(2.99896e-05 8.71413e-06 0)
(2.18658e-05 1.4099e-05 0)
(1.05066e-05 1.79454e-05 0)
(-3.2238e-06 1.95723e-05 0)
(-1.74676e-05 1.85816e-05 0)
(-2.9828e-05 1.50238e-05 0)
(-3.89138e-05 9.3362e-06 0)
(-4.32538e-05 2.21614e-06 0)
(-4.20304e-05 -5.35694e-06 0)
(-3.51665e-05 -1.23527e-05 0)
(-2.34059e-05 -1.77338e-05 0)
(-8.22214e-06 -2.069e-05 0)
(4.72042e-06 -0.000455332 0)
(1.42765e-05 -0.000465139 0)
(2.38178e-05 -0.000465035 0)
(3.34149e-05 -0.000464653 0)
(4.30009e-05 -0.000464053 0)
(5.25709e-05 -0.000463249 0)
(6.2228e-05 -0.000462117 0)
(7.18312e-05 -0.000460692 0)
(8.1873e-05 -0.000458845 0)
(9.22087e-05 -0.000456699 0)
(0.000103071 -0.000454185 0)
(0.000114212 -0.000451468 0)
(0.000125544 -0.000448498 0)
(0.000136855 -0.000445324 0)
(0.000148509 -0.000441976 0)
(0.000160674 -0.000438351 0)
(0.000172899 -0.000434471 0)
(0.000185914 -0.000430295 0)
(0.000199649 -0.000425834 0)
(0.000213976 -0.000421113 0)
(0.000228928 -0.000416063 0)
(0.000244776 -0.000410624 0)
(0.000261299 -0.000404701 0)
(0.000278586 -0.000398223 0)
(0.000296505 -0.000391018 0)
(0.00031534 -0.000383013 0)
(0.000335064 -0.000374021 0)
(0.000355281 -0.000364134 0)
(0.000376075 -0.000353092 0)
(0.000397329 -0.000340924 0)
(0.000419047 -0.00032772 0)
(0.000440822 -0.000313454 0)
(0.000462297 -0.000297952 0)
(0.000483447 -0.000281303 0)
(0.000503863 -0.000263273 0)
(0.000523278 -0.000243944 0)
(0.000542109 -0.000223095 0)
(0.000560074 -0.000200875 0)
(0.000576829 -0.000177273 0)
(0.000592322 -0.000152357 0)
(0.000606235 -0.000126193 0)
(0.000618184 -9.88375e-05 0)
(0.000627952 -7.03769e-05 0)
(0.000635408 -4.09147e-05 0)
(0.00064054 -1.05363e-05 0)
(0.000643048 2.06175e-05 0)
(0.000642572 5.22685e-05 0)
(0.000638843 8.41828e-05 0)
(0.000631679 0.000116181 0)
(0.0006209 0.000147963 0)
(0.000606488 0.000179401 0)
(0.000588428 0.000210203 0)
(0.000566834 0.000240223 0)
(0.000541261 0.000269019 0)
(0.000512029 0.000296374 0)
(0.000479124 0.000322029 0)
(0.000442948 0.00034571 0)
(0.000403407 0.00036697 0)
(0.000360981 0.000385606 0)
(0.000315888 0.000401291 0)
(0.000268391 0.000413793 0)
(0.000218879 0.000422762 0)
(0.00016764 0.000428128 0)
(0.000115573 0.000429551 0)
(6.28141e-05 0.000426924 0)
(1.0141e-05 0.000420104 0)
(-4.21615e-05 0.000409048 0)
(-9.31734e-05 0.000393716 0)
(-0.000142584 0.00037419 0)
(-0.000189501 0.000350583 0)
(-0.000233454 0.000323012 0)
(-0.000273716 0.000291788 0)
(-0.000309749 0.000257182 0)
(-0.000341166 0.000219501 0)
(-0.000367082 0.000179248 0)
(-0.000387208 0.000136891 0)
(-0.000401456 9.29943e-05 0)
(-0.000409079 4.82055e-05 0)
(-0.000409539 3.10109e-06 0)
(-0.000402985 -4.14042e-05 0)
(-0.000389949 -8.48674e-05 0)
(-0.000369831 -0.000126612 0)
(-0.000343601 -0.000165667 0)
(-0.000310985 -0.000201529 0)
(-0.000272443 -0.000233415 0)
(-0.000229225 -0.000260678 0)
(-0.000181287 -0.000282716 0)
(-0.000130145 -0.000299071 0)
(-7.63294e-05 -0.000309278 0)
(-2.10137e-05 -0.000313085 0)
(3.45959e-05 -0.000310271 0)
(8.93919e-05 -0.0003008 0)
(0.000142148 -0.000284823 0)
(0.000191684 -0.000262531 0)
(0.000236754 -0.000234393 0)
(0.000276287 -0.000200954 0)
(0.000309357 -0.000163006 0)
(0.000334947 -0.000121382 0)
(0.000352244 -7.70681e-05 0)
(0.000360631 -3.11421e-05 0)
(0.000359761 1.51936e-05 0)
(0.000349586 6.06824e-05 0)
(0.000330361 0.000104066 0)
(0.000302503 0.000144163 0)
(0.000266667 0.000179702 0)
(0.000223747 0.000209597 0)
(0.00017505 0.000232838 0)
(0.000121846 0.000248678 0)
(6.59618e-05 0.000256409 0)
(9.06684e-06 0.000255855 0)
(-4.71918e-05 0.00024667 0)
(-0.000100391 0.000229444 0)
(-0.000149029 0.000204257 0)
(-0.000191242 0.00017233 0)
(-0.000225511 0.000134426 0)
(-0.000250432 9.21449e-05 0)
(-0.000264843 4.67753e-05 0)
(-0.000268077 2.88697e-07 0)
(-0.000259853 -4.55275e-05 0)
(-0.000240671 -8.8894e-05 0)
(-0.000211132 -0.000128053 0)
(-0.000172589 -0.000161276 0)
(-0.000126326 -0.000186975 0)
(-7.41994e-05 -0.000204084 0)
(-1.87984e-05 -0.00021168 0)
(3.74275e-05 -0.000209283 0)
(9.16365e-05 -0.000197161 0)
(0.000141242 -0.000175627 0)
(0.000184046 -0.000145944 0)
(0.000217702 -0.000109447 0)
(0.000240441 -6.80755e-05 0)
(0.000251091 -2.39626e-05 0)
(0.000248925 2.03904e-05 0)
(0.000234138 6.26865e-05 0)
(0.000207723 0.0001006 0)
(0.000171054 0.000131805 0)
(0.000126356 0.000154613 0)
(7.63418e-05 0.000167549 0)
(2.39714e-05 0.000169925 0)
(-2.74913e-05 0.000161491 0)
(-7.44428e-05 0.000143165 0)
(-0.00011407 0.00011613 0)
(-0.000143837 8.22943e-05 0)
(-0.000161784 4.403e-05 0)
(-0.000166687 4.16439e-06 0)
(-0.000158402 -3.42347e-05 0)
(-0.000138233 -6.8576e-05 0)
(-0.00010756 -9.63407e-05 0)
(-6.90326e-05 -0.000115316 0)
(-2.58643e-05 -0.000124296 0)
(1.8697e-05 -0.000122382 0)
(6.03247e-05 -0.000110402 0)
(9.53599e-05 -8.93717e-05 0)
(0.000121285 -6.1403e-05 0)
(0.000135923 -2.91473e-05 0)
(0.000138103 4.36637e-06 0)
(0.000127981 3.59756e-05 0)
(0.000106949 6.29154e-05 0)
(7.71783e-05 8.26497e-05 0)
(4.19208e-05 9.35566e-05 0)
(4.37574e-06 9.48757e-05 0)
(-3.13457e-05 8.67453e-05 0)
(-6.13291e-05 7.06693e-05 0)
(-8.32071e-05 4.87346e-05 0)
(-9.51689e-05 2.36673e-05 0)
(-9.65581e-05 -1.47899e-06 0)
(-8.80014e-05 -2.397e-05 0)
(-7.1427e-05 -4.13065e-05 0)
(-4.9452e-05 -5.19322e-05 0)
(-2.5198e-05 -5.51214e-05 0)
(-1.901e-06 -5.13028e-05 0)
(1.75888e-05 -4.1664e-05 0)
(3.11952e-05 -2.83233e-05 0)
(3.79484e-05 -1.36081e-05 0)
(3.79038e-05 3.77466e-08 0)
(3.22313e-05 1.06806e-05 0)
(2.29032e-05 1.69386e-05 0)
(1.22443e-05 1.82459e-05 0)
(2.71452e-06 1.49903e-05 0)
(-3.75954e-06 8.21427e-06 0)
(-5.91555e-06 -1.97478e-07 0)
(-3.27998e-06 -8.66042e-06 0)
(3.94433e-06 -1.56018e-05 0)
(1.41319e-05 -1.9181e-05 0)
(2.48215e-05 -1.85595e-05 0)
(3.40664e-05 -1.39336e-05 0)
(4.00574e-05 -6.02004e-06 0)
(4.13303e-05 3.99952e-06 0)
(3.71539e-05 1.45274e-05 0)
(2.75853e-05 2.3878e-05 0)
(1.3868e-05 3.05663e-05 0)
(-2.82937e-06 3.34093e-05 0)
(-2.01647e-05 3.1719e-05 0)
(-3.52565e-05 2.56564e-05 0)
(-4.63503e-05 1.59584e-05 0)
(-5.16848e-05 3.84098e-06 0)
(-5.02942e-05 -9.03455e-06 0)
(-4.21013e-05 -2.09157e-05 0)
(-2.80295e-05 -3.00433e-05 0)
(-9.84841e-06 -3.50588e-05 0)
(7.06578e-06 -0.000183118 0)
(2.20476e-05 -0.000179925 0)
(3.73774e-05 -0.000178572 0)
(5.33002e-05 -0.000176683 0)
(6.96757e-05 -0.000174192 0)
(8.69099e-05 -0.000171406 0)
(0.000104701 -0.000168208 0)
(0.00012312 -0.000165163 0)
(0.00014173 -0.000162011 0)
(0.000160073 -0.000159577 0)
(0.000178121 -0.000157812 0)
(0.000195729 -0.000157239 0)
(0.000213632 -0.000157792 0)
(0.000231481 -0.000159819 0)
(0.00025012 -0.000163095 0)
(0.000269541 -0.000167861 0)
(0.000289233 -0.000173797 0)
(0.000309243 -0.000180978 0)
(0.000329231 -0.000189121 0)
(0.000349693 -0.000197904 0)
(0.000371074 -0.000207012 0)
(0.000393382 -0.000216355 0)
(0.000416587 -0.000225617 0)
(0.000441121 -0.000234615 0)
(0.000466788 -0.00024272 0)
(0.000493703 -0.000250148 0)
(0.000520836 -0.00025627 0)
(0.000548413 -0.000261151 0)
(0.000576489 -0.000264145 0)
(0.000603208 -0.00026545 0)
(0.000628921 -0.000264816 0)
(0.000654658 -0.000262196 0)
(0.000679779 -0.000257338 0)
(0.000704579 -0.000250022 0)
(0.000729123 -0.000240138 0)
(0.000753057 -0.000227526 0)
(0.000776141 -0.000212183 0)
(0.000797368 -0.000193927 0)
(0.000816968 -0.000172622 0)
(0.000834372 -0.000148318 0)
(0.000849386 -0.000120994 0)
(0.00086208 -9.07969e-05 0)
(0.000872155 -5.78654e-05 0)
(0.000879207 -2.24627e-05 0)
(0.000882732 1.52098e-05 0)
(0.000881749 5.48577e-05 0)
(0.000875913 9.63077e-05 0)
(0.000865663 0.000139219 0)
(0.000850849 0.0001832 0)
(0.000831564 0.000227868 0)
(0.000808096 0.000272738 0)
(0.000780294 0.00031732 0)
(0.000747598 0.000361079 0)
(0.000709961 0.000403633 0)
(0.000668147 0.000444372 0)
(0.000621964 0.000482784 0)
(0.00057116 0.000518322 0)
(0.000516219 0.000550374 0)
(0.000457459 0.000578573 0)
(0.000395322 0.000602285 0)
(0.000330123 0.000621206 0)
(0.000262509 0.000634738 0)
(0.000192923 0.000642757 0)
(0.000121905 0.000644753 0)
(5.03275e-05 0.000640632 0)
(-2.11013e-05 0.000630029 0)
(-9.16577e-05 0.000612995 0)
(-0.000160513 0.000589431 0)
(-0.000226678 0.000559426 0)
(-0.000289557 0.000523179 0)
(-0.000348061 0.000480905 0)
(-0.000401354 0.000432993 0)
(-0.000449002 0.000379886 0)
(-0.00048989 0.000322235 0)
(-0.000523245 0.000260655 0)
(-0.000548648 0.000195953 0)
(-0.000565458 0.000128959 0)
(-0.000573497 6.06546e-05 0)
(-0.000571871 -8.07559e-06 0)
(-0.000560756 -7.6017e-05 0)
(-0.000540855 -0.000142239 0)
(-0.000511321 -0.000205448 0)
(-0.00047296 -0.000264807 0)
(-0.000426578 -0.000318771 0)
(-0.000372236 -0.000366758 0)
(-0.000311065 -0.00040744 0)
(-0.000244165 -0.000440121 0)
(-0.000172705 -0.000463999 0)
(-9.80146e-05 -0.000478341 0)
(-2.15577e-05 -0.00048289 0)
(5.51752e-05 -0.000477257 0)
(0.000130395 -0.000461461 0)
(0.000202551 -0.000435656 0)
(0.000270011 -0.000400318 0)
(0.000331047 -0.000356083 0)
(0.000384115 -0.000303757 0)
(0.000427843 -0.000244551 0)
(0.000461171 -0.000179869 0)
(0.000483096 -0.000111271 0)
(0.000492925 -4.04391e-05 0)
(0.000489913 3.0716e-05 0)
(0.000473899 0.000100465 0)
(0.000445626 0.000166876 0)
(0.000405557 0.000227945 0)
(0.000354576 0.000281826 0)
(0.000294156 0.000326876 0)
(0.000225932 0.000361656 0)
(0.000151974 0.000384738 0)
(7.45272e-05 0.000395508 0)
(-4.21313e-06 0.00039334 0)
(-8.11246e-05 0.000378146 0)
(-0.000153933 0.000350341 0)
(-0.00021998 0.000310652 0)
(-0.000276752 0.00026056 0)
(-0.000322354 0.00020143 0)
(-0.000354874 0.000135803 0)
(-0.000373017 6.5844e-05 0)
(-0.000375479 -5.63436e-06 0)
(-0.000362428 -7.59841e-05 0)
(-0.000334375 -0.000142323 0)
(-0.000292296 -0.000201744 0)
(-0.000237579 -0.000251837 0)
(-0.000172751 -0.000290255 0)
(-0.000100606 -0.000315276 0)
(-2.38014e-05 -0.000325815 0)
(5.33989e-05 -0.000320834 0)
(0.000127422 -0.000300863 0)
(0.000194801 -0.000266788 0)
(0.000252113 -0.000220222 0)
(0.000296708 -0.000163414 0)
(0.000326117 -9.94161e-05 0)
(0.000338694 -3.15473e-05 0)
(0.000333607 3.65492e-05 0)
(0.000311488 0.000101151 0)
(0.000273425 0.000158696 0)
(0.000221679 0.000205706 0)
(0.000159185 0.000239387 0)
(8.98144e-05 0.000258027 0)
(1.78284e-05 0.000260268 0)
(-5.21612e-05 0.000246001 0)
(-0.00011534 0.000216589 0)
(-0.000168011 0.000173912 0)
(-0.000206784 0.000121273 0)
(-0.000229065 6.21791e-05 0)
(-0.000233231 1.09723e-06 0)
(-0.000219544 -5.77362e-05 0)
(-0.000189606 -0.00010994 0)
(-0.000145622 -0.00015144 0)
(-9.13164e-05 -0.000179581 0)
(-3.09525e-05 -0.000191946 0)
(3.0221e-05 -0.000187599 0)
(8.65757e-05 -0.000167926 0)
(0.000133675 -0.000134584 0)
(0.000167634 -9.09323e-05 0)
(0.000185823 -4.10373e-05 0)
(0.000186823 1.03309e-05 0)
(0.000171118 5.84656e-05 0)
(0.00014078 9.89481e-05 0)
(9.89347e-05 0.000128115 0)
(5.01997e-05 0.000143535 0)
(-8.84882e-07 0.000144139 0)
(-4.8614e-05 0.000130297 0)
(-8.78522e-05 0.000104585 0)
(-0.00011545 7.01599e-05 0)
(-0.00012906 3.15022e-05 0)
(-0.000128192 -6.86364e-06 0)
(-0.000113995 -4.06302e-05 0)
(-8.92767e-05 -6.61026e-05 0)
(-5.79014e-05 -8.10137e-05 0)
(-2.43449e-05 -8.43954e-05 0)
(6.97972e-06 -7.69582e-05 0)
(3.22133e-05 -6.09404e-05 0)
(4.86576e-05 -3.95958e-05 0)
(5.52499e-05 -1.66308e-05 0)
(5.24508e-05 4.30185e-06 0)
(4.21432e-05 2.02095e-05 0)
(2.71456e-05 2.90817e-05 0)
(1.08776e-05 3.0275e-05 0)
(-3.28357e-06 2.42662e-05 0)
(-1.25941e-05 1.31652e-05 0)
(-1.55131e-05 -4.20276e-07 0)
(-1.18432e-05 -1.37143e-05 0)
(-1.8626e-06 -2.42409e-05 0)
(1.24548e-05 -3.00578e-05 0)
(2.75886e-05 -2.90953e-05 0)
(4.06456e-05 -2.21064e-05 0)
(4.93599e-05 -1.01931e-05 0)
(5.18599e-05 4.83456e-06 0)
(4.72e-05 2.05663e-05 0)
(3.56012e-05 3.45065e-05 0)
(1.8586e-05 4.43971e-05 0)
(-2.24027e-06 4.86102e-05 0)
(-2.38581e-05 4.61596e-05 0)
(-4.2694e-05 3.73505e-05 0)
(-5.65302e-05 2.32464e-05 0)
(-6.32139e-05 5.67008e-06 0)
(-6.15826e-05 -1.29772e-05 0)
(-5.15763e-05 -3.01482e-05 0)
(-3.43371e-05 -4.33429e-05 0)
(-1.20698e-05 -5.05626e-05 0)
(9.00433e-06 -0.000671887 0)
(2.74283e-05 -0.000687084 0)
(4.55892e-05 -0.000690875 0)
(6.34637e-05 -0.000696213 0)
(7.9987e-05 -0.000702148 0)
(9.55904e-05 -0.000709527 0)
(0.000108575 -0.000714976 0)
(0.000119334 -0.000721214 0)
(0.000127134 -0.000722173 0)
(0.000130792 -0.000721461 0)
(0.000132219 -0.000716023 0)
(0.000131254 -0.000708528 0)
(0.000128949 -0.000698012 0)
(0.000126044 -0.00068627 0)
(0.000123447 -0.000673417 0)
(0.000121905 -0.000660783 0)
(0.000122219 -0.000648941 0)
(0.00012477 -0.000638427 0)
(0.000131268 -0.000630191 0)
(0.000141777 -0.000624411 0)
(0.000155056 -0.000620487 0)
(0.000171384 -0.000619017 0)
(0.000190921 -0.000618779 0)
(0.000215245 -0.00062061 0)
(0.000242155 -0.000621638 0)
(0.000271845 -0.000623684 0)
(0.000304794 -0.000621917 0)
(0.000340738 -0.00062057 0)
(0.000378952 -0.000612709 0)
(0.00041746 -0.000604655 0)
(0.000457259 -0.000590914 0)
(0.000498259 -0.000574627 0)
(0.000540689 -0.00055407 0)
(0.000584062 -0.000530107 0)
(0.000627593 -0.000501862 0)
(0.00067038 -0.000470158 0)
(0.000712693 -0.000434408 0)
(0.000754606 -0.000395156 0)
(0.000794913 -0.000352335 0)
(0.000833069 -0.000306065 0)
(0.000868434 -0.000256471 0)
(0.000900103 -0.000203785 0)
(0.000927459 -0.000148043 0)
(0.000950151 -8.99665e-05 0)
(0.000968081 -2.94017e-05 0)
(0.000981058 3.33915e-05 0)
(0.000988603 9.80843e-05 0)
(0.000989797 0.000163705 0)
(0.000984409 0.000230097 0)
(0.000972049 0.000296828 0)
(0.000952435 0.000363288 0)
(0.000925536 0.000428901 0)
(0.000891834 0.000492985 0)
(0.000850815 0.000554996 0)
(0.000802492 0.00061413 0)
(0.000747192 0.000669549 0)
(0.000685038 0.000720712 0)
(0.000616698 0.000766786 0)
(0.000542666 0.000807163 0)
(0.000463483 0.000841153 0)
(0.000379669 0.000868069 0)
(0.00029226 0.000887475 0)
(0.000201942 0.000898634 0)
(0.000109679 0.000901363 0)
(1.62128e-05 0.00089513 0)
(-7.72286e-05 0.000879859 0)
(-0.000169476 0.000855237 0)
(-0.000259543 0.000821429 0)
(-0.000346189 0.000778358 0)
(-0.000428216 0.000726431 0)
(-0.000504573 0.000665984 0)
(-0.000574007 0.00059761 0)
(-0.000635343 0.000521961 0)
(-0.00068766 0.000439862 0)
(-0.000729883 0.000352303 0)
(-0.0007613 0.000260271 0)
(-0.000781364 0.000165232 0)
(-0.000789449 6.83252e-05 0)
(-0.000784602 -2.88451e-05 0)
(-0.000766991 -0.000124921 0)
(-0.000737129 -0.000218306 0)
(-0.000694865 -0.000307319 0)
(-0.000640717 -0.000390529 0)
(-0.000575309 -0.000466212 0)
(-0.000499774 -0.000532955 0)
(-0.000415208 -0.000589367 0)
(-0.000323148 -0.000634192 0)
(-0.000225061 -0.0006664 0)
(-0.000122929 -0.000685033 0)
(-1.88316e-05 -0.000689603 0)
(8.53368e-05 -0.000679739 0)
(0.000187171 -0.000655415 0)
(0.000284415 -0.000616926 0)
(0.000374843 -0.000564939 0)
(0.000456561 -0.000500466 0)
(0.000527325 -0.000424841 0)
(0.000585057 -0.000339577 0)
(0.000628197 -0.000246678 0)
(0.000655534 -0.000148326 0)
(0.00066602 -4.70179e-05 0)
(0.000659413 5.44212e-05 0)
(0.000635838 0.000153668 0)
(0.00059533 0.000247596 0)
(0.000538732 0.000333814 0)
(0.000467679 0.000409485 0)
(0.000384144 0.000472378 0)
(0.000290052 0.000520313 0)
(0.000188464 0.000551659 0)
(8.28664e-05 0.000565144 0)
(-2.40023e-05 0.000560395 0)
(-0.000128425 0.00053683 0)
(-0.000226581 0.000495596 0)
(-0.000315052 0.000437574 0)
(-0.000390947 0.000364695 0)
(-0.000451067 0.000279718 0)
(-0.000492794 0.000185457 0)
(-0.000514823 8.53346e-05 0)
(-0.000515927 -1.64412e-05 0)
(-0.000496044 -0.000116389 0)
(-0.000455547 -0.000210195 0)
(-0.000396184 -0.000293986 0)
(-0.000320502 -0.000364303 0)
(-0.000231225 -0.000417424 0)
(-0.000132477 -0.000451514 0)
(-2.80574e-05 -0.000464411 0)
(7.68539e-05 -0.000455642 0)
(0.000176438 -0.000425428 0)
(0.000266501 -0.000375275 0)
(0.000342848 -0.000307437 0)
(0.000401233 -0.000225498 0)
(0.000438568 -0.000133643 0)
(0.000453096 -3.67363e-05 0)
(0.000443854 5.97412e-05 0)
(0.000411565 0.00015106 0)
(0.000357906 0.000231724 0)
(0.00028572 0.000297085 0)
(0.000199941 0.000343237 0)
(0.0001055 0.00036793 0)
(7.71406e-06 0.000369064 0)
(-8.64464e-05 0.000346969 0)
(-0.000170774 0.000303409 0)
(-0.000240076 0.000241295 0)
(-0.000289927 0.000165084 0)
(-0.000317187 8.05121e-05 0)
(-0.000320024 -6.4652e-06 0)
(-0.000298806 -8.96318e-05 0)
(-0.000255435 -0.00016296 0)
(-0.000193741 -0.000220572 0)
(-0.000118685 -0.000258671 0)
(-3.57603e-05 -0.000274453 0)
(4.71312e-05 -0.000266423 0)
(0.000122628 -0.000236493 0)
(0.000184942 -0.000187592 0)
(0.000228954 -0.000124409 0)
(0.000251202 -5.29125e-05 0)
(0.000250137 2.00876e-05 0)
(0.000226666 8.79176e-05 0)
(0.000183684 0.000144251 0)
(0.000125814 0.000184012 0)
(5.93178e-05 0.000203963 0)
(-9.50989e-06 0.00020279 0)
(-7.27299e-05 0.000181299 0)
(-0.000123642 0.000143161 0)
(-0.000158143 9.32846e-05 0)
(-0.0001733 3.7867e-05 0)
(-0.000168937 -1.63102e-05 0)
(-0.000146817 -6.32774e-05 0)
(-0.000111128 -9.78507e-05 0)
(-6.73182e-05 -0.000116992 0)
(-2.14692e-05 -0.000119688 0)
(2.01621e-05 -0.000106891 0)
(5.24465e-05 -8.24044e-05 0)
(7.21192e-05 -5.08293e-05 0)
(7.80668e-05 -1.76246e-05 0)
(7.12237e-05 1.20445e-05 0)
(5.44309e-05 3.39782e-05 0)
(3.187e-05 4.5525e-05 0)
(8.12827e-06 4.5923e-05 0)
(-1.19744e-05 3.61413e-05 0)
(-2.47642e-05 1.93344e-05 0)
(-2.85467e-05 -8.10039e-07 0)
(-2.31342e-05 -2.02042e-05 0)
(-9.53433e-06 -3.51613e-05 0)
(1.01531e-05 -4.3432e-05 0)
(3.11922e-05 -4.20638e-05 0)
(4.90873e-05 -3.22867e-05 0)
(6.12411e-05 -1.56335e-05 0)
(6.52537e-05 5.23125e-06 0)
(5.99767e-05 2.69938e-05 0)
(4.57203e-05 4.61575e-05 0)
(2.44943e-05 5.96915e-05 0)
(-1.49192e-06 6.54693e-05 0)
(-2.8412e-05 6.21604e-05 0)
(-5.18776e-05 5.02858e-05 0)
(-6.90833e-05 3.1306e-05 0)
(-7.73926e-05 7.72192e-06 0)
(-7.54337e-05 -1.72569e-05 0)
(-6.31807e-05 -4.01935e-05 0)
(-4.20522e-05 -5.7791e-05 0)
(-1.47717e-05 -6.74237e-05 0)
(-1.81943e-06 -0.000313892 0)
(-3.53511e-06 -0.000310059 0)
(-4.46969e-06 -0.000298964 0)
(9.30096e-07 -0.000282662 0)
(8.51097e-06 -0.000258001 0)
(2.90545e-05 -0.000229443 0)
(5.18787e-05 -0.000186985 0)
(9.00218e-05 -0.000146821 0)
(0.000134592 -8.97886e-05 0)
(0.000175965 -4.70815e-05 0)
(0.000221445 -9.97368e-06 0)
(0.000259364 1.23023e-05 0)
(0.000293717 2.44876e-05 0)
(0.000319321 2.26052e-05 0)
(0.000339133 8.82192e-06 0)
(0.000351158 -1.59343e-05 0)
(0.000358448 -5.00284e-05 0)
(0.000360347 -9.16324e-05 0)
(0.00036071 -0.000138877 0)
(0.000362443 -0.000188953 0)
(0.000362086 -0.00024062 0)
(0.00036785 -0.000295799 0)