/*--------------------------------*- C++ -*----------------------------------*\
  =========                 |
  \\      /  F ield         | OpenFOAM: The Open Source CFD Toolbox
   \\    /   O peration     | Website:  https://openfoam.org
    \\  /    A nd           | Version:  12
     \\/     M anipulation  |
\*---------------------------------------------------------------------------*/
FoamFile
{
    format      ascii;
    class       volVectorField;
    location    "11";
    object      zeta;
}
// * * * * * * * * * * * * * * * * * * * * * * * * * * * * * * * * * * * * * //

dimensions      [0 1 0 0 0 0 0];

internalField   uniform (0 0 0);

boundaryField
{
    freeSurface
    {
        type            calculated;
        value           nonuniform List<vector> 
181
(
(0 0.00631097 0)
(0 0.00631065 0)
(0 0.00631004 0)
(0 0.00630896 0)
(0 0.00630818 0)
(0 0.00630675 0)
(0 0.00630666 0)
(0 0.00630492 0)
(0 0.000770271 0)
(0 0.000777294 0)
(0 0.000793834 0)
(0 0.000815136 0)
(0 0.0008423 0)
(0 0.000875305 0)
(0 0.00091196 0)
(0 0.000952305 0)
(0 0.000994713 0)
(0 0.00103885 0)
(0 0.00108319 0)
(0 0.00112674 0)
(0 0.00116816 0)
(0 0.00120649 0)
(0 0.00124084 0)
(0 0.00127041 0)
(0 0.00129446 0)
(0 0.00131217 0)
(0 0.00132277 0)
(0 0.00132553 0)
(0 0.00131983 0)
(0 0.00130522 0)
(0 0.00128125 0)
(0 0.00124775 0)
(0 0.00120468 0)
(0 0.00115179 0)
(0 0.0010892 0)
(0 0.0010171 0)
(0 0.000935872 0)
(0 0.000846002 0)
(0 0.000748115 0)
(0 0.000642887 0)
(0 0.000531124 0)
(0 0.000413828 0)
(0 0.0002921 0)
(0 0.000167178 0)
(0 4.03269e-05 0)
(0 -8.7012e-05 0)
(0 -0.000213311 0)
(0 -0.000337116 0)
(0 -0.000456666 0)
(0 -0.000570438 0)
(0 -0.000676713 0)
(0 -0.000773985 0)
(0 -0.000860666 0)
(0 -0.000935339 0)
(0 -0.000996753 0)
(0 -0.00104364 0)
(0 -0.00107501 0)
(0 -0.00109009 0)
(0 -0.00108831 0)
(0 -0.00106932 0)
(0 -0.0010331 0)
(0 -0.000979872 0)
(0 -0.000910172 0)
(0 -0.000824921 0)
(0 -0.000725426 0)
(0 -0.000612966 0)
(0 -0.000489735 0)
(0 -0.000357693 0)
(0 -0.000219349 0)
(0 -7.7343e-05 0)
(0 6.54287e-05 0)
(0 0.000206076 0)
(0 0.000341571 0)
(0 0.000468778 0)
(0 0.00058474 0)
(0 0.00068661 0)
(0 0.000771808 0)
(0 0.000838027 0)
(0 0.000883245 0)
(0 0.000905905 0)
(0 0.000905327 0)
(0 0.000880892 0)
(0 0.000833279 0)
(0 0.000763168 0)
(0 0.000672427 0)
(0 0.000563372 0)
(0 0.000438876 0)
(0 0.000302691 0)
(0 0.000158757 0)
(0 1.1669e-05 0)
(0 -0.000133815 0)
(0 -0.000272986 0)
(0 -0.000400972 0)
(0 -0.0005133 0)
(0 -0.000605672 0)
(0 -0.000674679 0)
(0 -0.000717374 0)
(0 -0.000732078 0)
(0 -0.000717794 0)
(0 -0.000675002 0)
(0 -0.000605254 0)
(0 -0.000511122 0)
(0 -0.000396677 0)
(0 -0.000266818 0)
(0 -0.000127109 0)
(0 1.57963e-05 0)
(0 0.000155464 0)
(0 0.000285118 0)
(0 0.000398337 0)
(0 0.000489341 0)
(0 0.000553339 0)
(0 0.000586926 0)
(0 0.00058811 0)
(0 0.000556704 0)
(0 0.000494605 0)
(0 0.000405306 0)
(0 0.000293852 0)
(0 0.000167296 0)
(0 3.32103e-05 0)
(0 -9.99214e-05 0)
(0 -0.000223972 0)
(0 -0.000330745 0)
(0 -0.000413322 0)
(0 -0.000466288 0)
(0 -0.000486298 0)
(0 -0.000472231 0)
(0 -0.000425654 0)
(0 -0.000350545 0)
(0 -0.000253176 0)
(0 -0.000141781 0)
(0 -2.56591e-05 0)
(0 8.56887e-05 0)
(0 0.000183131 0)
(0 0.000258537 0)
(0 0.000305916 0)
(0 0.000321924 0)
(0 0.000306094 0)
(0 0.000261151 0)
(0 0.000192593 0)
(0 0.000108285 0)
(0 1.77735e-05 0)
(0 -6.8876e-05 0)
(0 -0.000142665 0)
(0 -0.000195511 0)
(0 -0.000222124 0)
(0 -0.000220552 0)
(0 -0.000192524 0)
(0 -0.000143139 0)
(0 -8.01898e-05 0)
(0 -1.30571e-05 0)
(0 4.87241e-05 0)
(0 9.72534e-05 0)
(0 0.000126453 0)
(0 0.000133523 0)
(0 0.000119146 0)
(0 8.72998e-05 0)
(0 4.43279e-05 0)
(0 -2.3203e-06 0)
(0 -4.54546e-05 0)
(0 -7.9302e-05 0)
(0 -9.98087e-05 0)
(0 -0.000105428 0)
(0 -9.68487e-05 0)
(0 -7.68378e-05 0)
(0 -4.9779e-05 0)
(0 -2.04859e-05 0)
(0 7.00391e-06 0)
(0 2.90368e-05 0)
(0 4.34419e-05 0)
(0 4.94921e-05 0)
(0 4.7816e-05 0)
(0 4.00174e-05 0)
(0 2.81497e-05 0)
(0 1.48376e-05 0)
(0 1.96473e-06 0)
(0 -8.85517e-06 0)
(0 -1.68668e-05 0)
(0 -2.20072e-05 0)
(0 -2.47509e-05 0)
(0 -2.58932e-05 0)
(0 -2.62125e-05 0)
)
;
    }
    walls
    {
        type            calculated;
        value           uniform (0 0 0);
    }
    floatingObject
    {
        type            calculated;
        value           uniform (0 0 0);
    }
    frontAndBack
    {
        type            empty;
    }
}


// ************************************************************************* //
