/*--------------------------------*- C++ -*----------------------------------*\
  =========                 |
  \\      /  F ield         | OpenFOAM: The Open Source CFD Toolbox
   \\    /   O peration     | Website:  https://openfoam.org
    \\  /    A nd           | Version:  12
     \\/     M anipulation  |
\*---------------------------------------------------------------------------*/
FoamFile
{
    format      ascii;
    class       volVectorField;
    location    "10.82";
    object      U;
}
// * * * * * * * * * * * * * * * * * * * * * * * * * * * * * * * * * * * * * //

dimensions      [0 1 -1 0 0 0 0];

internalField   nonuniform List<vector> 
3829
(
(8.79558e-06 -0.000278564 0)
(2.60643e-05 -0.000284657 0)
(4.40161e-05 -0.000284842 0)
(6.21786e-05 -0.000284973 0)
(8.08558e-05 -0.000285137 0)
(0.00010003 -0.000285293 0)
(0.00011979 -0.000285426 0)
(0.000140199 -0.000285504 0)
(0.000161326 -0.000285497 0)
(0.000183121 -0.000285358 0)
(0.000205791 -0.00028504 0)
(0.000229266 -0.000284493 0)
(0.000253469 -0.000283661 0)
(0.000278487 -0.000282486 0)
(0.000304231 -0.000280897 0)
(0.000330683 -0.000278842 0)
(0.000357742 -0.00027625 0)
(0.000385313 -0.000273068 0)
(0.000413281 -0.000269247 0)
(0.000441518 -0.000264731 0)
(0.000469872 -0.000259474 0)
(0.00049818 -0.000253437 0)
(0.000526256 -0.00024661 0)
(0.000553907 -0.000238976 0)
(0.000580903 -0.000230535 0)
(0.000607038 -0.000221308 0)
(0.000632107 -0.000211302 0)
(0.00065589 -0.000200573 0)
(0.000678133 -0.00018915 0)
(0.000698594 -0.000177132 0)
(0.000717041 -0.000164551 0)
(0.000733317 -0.000151495 0)
(0.000747124 -0.000138052 0)
(0.000758423 -0.000124303 0)
(0.000766932 -0.000110346 0)
(0.000772489 -9.62065e-05 0)
(0.000775209 -8.20146e-05 0)
(0.000774879 -6.7794e-05 0)
(0.000771575 -5.37424e-05 0)
(0.000765279 -3.99852e-05 0)
(0.000755844 -2.66667e-05 0)
(0.000743316 -1.38667e-05 0)
(0.000727801 -1.63612e-06 0)
(0.000709356 9.95818e-06 0)
(0.0006881 2.08496e-05 0)
(0.000664151 3.09974e-05 0)
(0.000637689 4.03519e-05 0)
(0.000608882 4.88705e-05 0)
(0.000577939 5.65076e-05 0)
(0.000545123 6.32516e-05 0)
(0.000510441 6.90247e-05 0)
(0.000474516 7.39184e-05 0)
(0.000437674 7.77656e-05 0)
(0.000399726 8.06483e-05 0)
(0.000361101 8.25518e-05 0)
(0.000322538 8.3516e-05 0)
(0.000284203 8.34336e-05 0)
(0.000246049 8.24502e-05 0)
(0.000208738 8.05634e-05 0)
(0.000172628 7.777e-05 0)
(0.000137816 7.41515e-05 0)
(0.000104806 6.9794e-05 0)
(7.4037e-05 6.46867e-05 0)
(4.55558e-05 5.89199e-05 0)
(1.98023e-05 5.26524e-05 0)
(-2.70638e-06 4.5876e-05 0)
(-2.21341e-05 3.8652e-05 0)
(-3.84226e-05 3.11001e-05 0)
(-5.12904e-05 2.33444e-05 0)
(-6.04538e-05 1.55021e-05 0)
(-6.5887e-05 7.64665e-06 0)
(-6.74131e-05 -9.10527e-08 0)
(-6.49278e-05 -7.61676e-06 0)
(-5.88877e-05 -1.48247e-05 0)
(-4.91673e-05 -2.15741e-05 0)
(-3.61469e-05 -2.78105e-05 0)
(-2.02802e-05 -3.33461e-05 0)
(-1.14805e-06 -3.81363e-05 0)
(2.05138e-05 -4.21849e-05 0)
(4.3684e-05 -4.5263e-05 0)
(6.86454e-05 -4.73601e-05 0)
(9.47124e-05 -4.84643e-05 0)
(0.000120963 -4.85265e-05 0)
(0.000147469 -4.74755e-05 0)
(0.000173415 -4.54639e-05 0)
(0.000197924 -4.2394e-05 0)
(0.000220716 -3.83685e-05 0)
(0.000241178 -3.34183e-05 0)
(0.000258726 -2.76841e-05 0)
(0.000272871 -2.12436e-05 0)
(0.000283187 -1.42566e-05 0)
(0.000289323 -6.85577e-06 0)
(0.000290772 7.77155e-07 0)
(0.000287221 8.48002e-06 0)
(0.000278683 1.60691e-05 0)
(0.000265301 2.33779e-05 0)
(0.000247373 3.02264e-05 0)
(0.000225151 3.64153e-05 0)
(0.000199079 4.17807e-05 0)
(0.000169625 4.61324e-05 0)
(0.000137447 4.9368e-05 0)
(0.000103263 5.13477e-05 0)
(6.79378e-05 5.20182e-05 0)
(3.23073e-05 5.1307e-05 0)
(-2.60723e-06 4.92565e-05 0)
(-3.58768e-05 4.58457e-05 0)
(-6.65731e-05 4.12305e-05 0)
(-9.37594e-05 3.54265e-05 0)
(-0.000116657 2.87532e-05 0)
(-0.000134446 2.12394e-05 0)
(-0.000146746 1.32691e-05 0)
(-0.000153018 5.00303e-06 0)
(-0.000152852 -3.22163e-06 0)
(-0.000146176 -1.11389e-05 0)
(-0.000133431 -1.84775e-05 0)
(-0.00011518 -2.49804e-05 0)
(-9.20856e-05 -3.0374e-05 0)
(-6.5196e-05 -3.44573e-05 0)
(-3.53691e-05 -3.7034e-05 0)
(-3.62975e-06 -3.80474e-05 0)
(2.83764e-05 -3.73377e-05 0)
(5.91301e-05 -3.50582e-05 0)
(8.74274e-05 -3.11628e-05 0)
(0.000111998 -2.59764e-05 0)
(0.000131594 -1.9621e-05 0)
(0.000145345 -1.24002e-05 0)
(0.000152559 -4.70562e-06 0)
(0.000152531 3.11792e-06 0)
(0.000145171 1.06504e-05 0)
(0.000130966 1.75477e-05 0)
(0.000110645 2.34553e-05 0)
(8.53893e-05 2.80769e-05 0)
(5.63593e-05 3.1062e-05 0)
(2.50192e-05 3.22888e-05 0)
(-6.75809e-06 3.16838e-05 0)
(-3.71733e-05 2.92426e-05 0)
(-6.43828e-05 2.52016e-05 0)
(-8.69024e-05 1.96691e-05 0)
(-0.000103303 1.31529e-05 0)
(-0.000112687 5.89222e-06 0)
(-0.000114252 -1.48653e-06 0)
(-0.00010781 -8.60708e-06 0)
(-9.40742e-05 -1.49563e-05 0)
(-7.405e-05 -2.01737e-05 0)
(-4.91659e-05 -2.38138e-05 0)
(-2.10296e-05 -2.56971e-05 0)
(8.53777e-06 -2.56863e-05 0)
(3.70554e-05 -2.38158e-05 0)
(6.22572e-05 -2.02533e-05 0)
(8.26667e-05 -1.53148e-05 0)
(9.67412e-05 -9.45002e-06 0)
(0.0001036 -3.09372e-06 0)
(0.000102739 3.13712e-06 0)
(9.43895e-05 8.81472e-06 0)
(7.97047e-05 1.34424e-05 0)
(6.0157e-05 1.66713e-05 0)
(3.75797e-05 1.82497e-05 0)
(1.40993e-05 1.81404e-05 0)
(-8.25612e-06 1.63539e-05 0)
(-2.74681e-05 1.32752e-05 0)
(-4.18979e-05 9.25524e-06 0)
(-5.06413e-05 4.75886e-06 0)
(-5.32804e-05 3.1461e-07 0)
(-5.01224e-05 -3.59887e-06 0)
(-4.22465e-05 -6.58211e-06 0)
(-3.10677e-05 -8.36553e-06 0)
(-1.83773e-05 -8.87081e-06 0)
(-5.97757e-06 -8.0922e-06 0)
(4.46727e-06 -6.31759e-06 0)
(1.16797e-05 -3.87218e-06 0)
(1.50597e-05 -1.20195e-06 0)
(1.44962e-05 1.2628e-06 0)
(1.05793e-05 3.15597e-06 0)
(4.35735e-06 4.20904e-06 0)
(-2.96644e-06 4.27149e-06 0)
(-9.49611e-06 3.35968e-06 0)
(-1.36134e-05 1.68591e-06 0)
(-1.45157e-05 -4.54798e-07 0)
(-1.1674e-05 -2.71697e-06 0)
(-5.4522e-06 -4.72442e-06 0)
(4.23516e-06 -6.14938e-06 0)
(1.59119e-05 -6.79464e-06 0)
(2.73571e-05 -6.48299e-06 0)
(3.75214e-05 -5.26967e-06 0)
(4.4985e-05 -3.33538e-06 0)
(4.86454e-05 -9.13693e-07 0)
(4.77793e-05 1.65391e-06 0)
(4.23496e-05 4.08271e-06 0)
(3.29294e-05 6.04267e-06 0)
(2.04183e-05 7.33669e-06 0)
(6.26207e-06 7.81653e-06 0)
(-8.11496e-06 7.40632e-06 0)
(-2.11123e-05 6.26932e-06 0)
(-3.12903e-05 4.47138e-06 0)
(-3.77084e-05 2.27856e-06 0)
(-3.9675e-05 -1.08306e-07 0)
(-3.70472e-05 -2.39826e-06 0)
(-3.01259e-05 -4.38249e-06 0)
(-1.96813e-05 -5.83153e-06 0)
(-6.84553e-06 -6.60807e-06 0)
(7.99776e-06 -6.93234e-05 0)
(2.46319e-05 -6.6023e-05 0)
(4.17672e-05 -6.82581e-05 0)
(5.94215e-05 -7.16955e-05 0)
(7.78608e-05 -7.62427e-05 0)
(9.7305e-05 -8.18704e-05 0)
(0.000117723 -8.84624e-05 0)
(0.000139317 -9.59156e-05 0)
(0.000162257 -0.000104093 0)
(0.000186602 -0.000112796 0)
(0.000212575 -0.000121883 0)
(0.000240137 -0.000131112 0)
(0.000269255 -0.000140314 0)
(0.000300102 -0.000149218 0)
(0.000332504 -0.000157687 0)
(0.000366422 -0.000165381 0)
(0.000401735 -0.000172154 0)
(0.000438151 -0.000177749 0)
(0.000475534 -0.000181938 0)
(0.000513728 -0.000184514 0)
(0.000552436 -0.000185318 0)
(0.000591206 -0.000184197 0)
(0.00062969 -0.000181013 0)
(0.000667616 -0.000175717 0)
(0.000704494 -0.000168232 0)
(0.000740083 -0.000158602 0)
(0.000773942 -0.000146784 0)
(0.000805713 -0.000132897 0)
(0.000834886 -0.000117025 0)
(0.000861233 -9.932e-05 0)
(0.000884621 -7.99337e-05 0)
(0.000904567 -5.90622e-05 0)
(0.000920853 -3.69526e-05 0)
(0.000933396 -1.38498e-05 0)
(0.000942315 9.98158e-06 0)
(0.000947281 3.42625e-05 0)
(0.000948442 5.86898e-05 0)
(0.000945236 8.30414e-05 0)
(0.000937182 0.000107181 0)
(0.000924644 0.000130925 0)
(0.000907789 0.000154076 0)
(0.000887245 0.000176441 0)
(0.000863212 0.000197789 0)
(0.00083568 0.000217946 0)
(0.000804931 0.000236699 0)
(0.000771199 0.000253881 0)
(0.000734662 0.000269315 0)
(0.000695526 0.000282883 0)
(0.000654172 0.000294436 0)
(0.000610708 0.000303888 0)
(0.000565677 0.000311111 0)
(0.000519257 0.000316106 0)
(0.000471713 0.000318725 0)
(0.000423643 0.000319027 0)
(0.000375247 0.000316878 0)
(0.00032681 0.000312422 0)
(0.000279003 0.000305453 0)
(0.000232283 0.000296257 0)
(0.000186578 0.00028467 0)
(0.000142635 0.000271039 0)
(0.000100944 0.000255206 0)
(6.15643e-05 0.000237634 0)
(2.49303e-05 0.000218136 0)
(-8.16628e-06 0.00019712 0)
(-3.77514e-05 0.00017463 0)
(-6.37659e-05 0.000150998 0)
(-8.58292e-05 0.00012633 0)
(-0.00010365 0.000101029 0)
(-0.000116998 7.53374e-05 0)
(-0.000125823 4.95717e-05 0)
(-0.000130063 2.40323e-05 0)
(-0.000129515 -9.66189e-07 0)
(-0.000124192 -2.50489e-05 0)
(-0.000114379 -4.79745e-05 0)
(-0.000100199 -6.93859e-05 0)
(-8.18846e-05 -8.89689e-05 0)
(-5.9939e-05 -0.000106392 0)
(-3.47036e-05 -0.000121411 0)
(-6.24015e-06 -0.000133813 0)
(2.44724e-05 -0.000143348 0)
(5.68907e-05 -0.000149696 0)
(9.04651e-05 -0.000153033 0)
(0.000124482 -0.000152897 0)
(0.000158292 -0.000149596 0)
(0.000191177 -0.000142894 0)
(0.000222449 -0.000133145 0)
(0.00025139 -0.000120268 0)
(0.000277279 -0.000104653 0)
(0.000299392 -8.65533e-05 0)
(0.000317208 -6.63077e-05 0)
(0.000330149 -4.4341e-05 0)
(0.000337833 -2.11478e-05 0)
(0.000339691 2.75943e-06 0)
(0.000335439 2.68271e-05 0)
(0.000325121 5.05221e-05 0)
(0.000308927 7.3264e-05 0)
(0.000287089 9.45052e-05 0)
(0.000259949 0.000113645 0)
(0.000228009 0.000130167 0)
(0.000191958 0.000143552 0)
(0.000152628 0.000153399 0)
(0.000110896 0.000159357 0)
(6.78383e-05 0.000161205 0)
(2.45651e-05 0.00015878 0)
(-1.77554e-05 0.000152142 0)
(-5.78932e-05 0.00014135 0)
(-9.48298e-05 0.000126715 0)
(-0.000127215 0.000108617 0)
(-0.000154261 8.75135e-05 0)
(-0.000175019 6.41685e-05 0)
(-0.000188803 3.91907e-05 0)
(-0.000195247 1.34416e-05 0)
(-0.000193715 -1.21415e-05 0)
(-0.000184358 -3.67686e-05 0)
(-0.00016768 -5.94975e-05 0)
(-0.00014428 -7.96112e-05 0)
(-0.000115005 -9.6167e-05 0)
(-8.11264e-05 -0.000108604 0)
(-4.38684e-05 -0.000116294 0)
(-4.36192e-06 -0.000119015 0)
(3.52525e-05 -0.000116549 0)
(7.3193e-05 -0.000109026 0)
(0.000107887 -9.67597e-05 0)
(0.000137705 -8.02619e-05 0)
(0.000161491 -6.01937e-05 0)
(0.000177819 -3.76534e-05 0)
(0.00018596 -1.35459e-05 0)
(0.000185208 1.08056e-05 0)
(0.000175527 3.42485e-05 0)
(0.000157597 5.56597e-05 0)
(0.000132297 7.38967e-05 0)
(0.000100859 8.79676e-05 0)
(6.48346e-05 9.70018e-05 0)
(2.62709e-05 0.00010055 0)
(-1.2718e-05 9.83061e-05 0)
(-4.97321e-05 9.05011e-05 0)
(-8.27262e-05 7.75703e-05 0)
(-0.000109731 6.03043e-05 0)
(-0.000129108 3.97503e-05 0)
(-0.000139799 1.72802e-05 0)
(-0.000140799 -5.74227e-06 0)
(-0.000132193 -2.77368e-05 0)
(-0.000114775 -4.73999e-05 0)
(-8.97269e-05 -6.32792e-05 0)
(-5.88368e-05 -7.44036e-05 0)
(-2.4282e-05 -7.99465e-05 0)
(1.17344e-05 -7.95671e-05 0)
(4.62131e-05 -7.3442e-05 0)
(7.64323e-05 -6.21414e-05 0)
(0.000100481 -4.66225e-05 0)
(0.000116667 -2.82456e-05 0)
(0.000123891 -8.5296e-06 0)
(0.000121719 1.08163e-05 0)
(0.00011063 2.82909e-05 0)
(9.19487e-05 4.24371e-05 0)
(6.75698e-05 5.21127e-05 0)
(3.98292e-05 5.66679e-05 0)
(1.12625e-05 5.59446e-05 0)
(-1.54774e-05 5.0133e-05 0)
(-3.78906e-05 4.02873e-05 0)
(-5.42631e-05 2.75827e-05 0)
(-6.34773e-05 1.3526e-05 0)
(-6.51448e-05 -2.6226e-07 0)
(-5.98039e-05 -1.23105e-05 0)
(-4.88647e-05 -2.13988e-05 0)
(-3.42131e-05 -2.66773e-05 0)
(-1.80147e-05 -2.79023e-05 0)
(-2.5631e-06 -2.51724e-05 0)
(1.00518e-05 -1.93718e-05 0)
(1.83752e-05 -1.15381e-05 0)
(2.1706e-05 -3.08564e-06 0)
(2.00748e-05 4.64453e-06 0)
(1.43107e-05 1.05189e-05 0)
(5.75895e-06 1.37154e-05 0)
(-4.00832e-06 1.37865e-05 0)
(-1.26476e-05 1.08316e-05 0)
(-1.82139e-05 5.52608e-06 0)
(-1.97675e-05 -1.21485e-06 0)
(-1.67106e-05 -8.26307e-06 0)
(-9.45694e-06 -1.44818e-05 0)
(1.84514e-06 -1.88785e-05 0)
(1.55265e-05 -2.08644e-05 0)
(2.90694e-05 -1.98518e-05 0)
(4.10213e-05 -1.61309e-05 0)
(4.97756e-05 -1.01793e-05 0)
(5.40717e-05 -2.81731e-06 0)
(5.31525e-05 5.00054e-06 0)
(4.70171e-05 1.23153e-05 0)
(3.63522e-05 1.82224e-05 0)
(2.22657e-05 2.20588e-05 0)
(6.33935e-06 2.34487e-05 0)
(-9.68001e-06 2.21919e-05 0)
(-2.40515e-05 1.8696e-05 0)
(-3.52441e-05 1.32986e-05 0)
(-4.21948e-05 6.69136e-06 0)
(-4.42056e-05 -4.15976e-07 0)
(-4.11413e-05 -7.25499e-06 0)
(-3.33782e-05 -1.31316e-05 0)
(-2.17672e-05 -1.74303e-05 0)
(-7.56793e-06 -1.97302e-05 0)
(-5.80343e-07 -0.000521601 0)
(-1.46925e-06 -0.000533342 0)
(-1.75355e-06 -0.000539376 0)
(-9.01158e-07 -0.000548215 0)
(1.43923e-06 -0.000559816 0)
(5.8343e-06 -0.000574007 0)
(1.28833e-05 -0.000590403 0)
(2.27545e-05 -0.00060869 0)
(3.61738e-05 -0.000628312 0)
(5.30441e-05 -0.000648873 0)
(7.37847e-05 -0.000669709 0)
(9.84492e-05 -0.00069036 0)
(0.000127047 -0.000710158 0)
(0.000159347 -0.000728607 0)
(0.000195643 -0.000745115 0)
(0.000235865 -0.000759012 0)
(0.00027922 -0.000769773 0)
(0.000326074 -0.000776833 0)
(0.000375878 -0.000779729 0)
(0.00042793 -0.000778081 0)
(0.000481654 -0.0007715 0)
(0.000536666 -0.000759708 0)
(0.000592038 -0.000742503 0)
(0.00064715 -0.000719825 0)
(0.000701161 -0.000691632 0)
(0.000753662 -0.000658097 0)
(0.00080397 -0.000619383 0)
(0.000851112 -0.000576026 0)
(0.000894673 -0.000528276 0)
(0.000934062 -0.000476714 0)
(0.000968898 -0.000422012 0)
(0.000998513 -0.000364779 0)
(0.00102243 -0.000305511 0)
(0.00104063 -0.000244976 0)
(0.00105279 -0.000183597 0)
(0.00105864 -0.000122075 0)
(0.00105868 -6.06759e-05 0)
(0.0010536 -3.77223e-07 0)
(0.00104366 5.83408e-05 0)
(0.00102864 0.000115015 0)
(0.00100846 0.000169269 0)
(0.000983135 0.000220783 0)
(0.000952948 0.000269232 0)
(0.000918107 0.000314328 0)
(0.00087886 0.000355831 0)
(0.00083558 0.000393499 0)
(0.000788718 0.000427152 0)
(0.000738632 0.000456607 0)
(0.000685739 0.000481755 0)
(0.000630409 0.000502389 0)
(0.000573145 0.000518526 0)
(0.00051444 0.000530049 0)
(0.000454876 0.000537045 0)
(0.000394435 0.000539327 0)
(0.000333884 0.000536993 0)
(0.000273617 0.000530136 0)
(0.000214414 0.000518874 0)
(0.0001565 0.000503187 0)
(0.000100643 0.000483329 0)
(4.72735e-05 0.000459468 0)
(-3.06725e-06 0.000431923 0)
(-5.00601e-05 0.000400708 0)
(-9.35644e-05 0.000366382 0)
(-0.000132558 0.000329121 0)
(-0.00016701 0.000289314 0)
(-0.000196253 0.000247373 0)
(-0.000220203 0.000203805 0)
(-0.000238332 0.000159036 0)
(-0.000250793 0.000113643 0)
(-0.000257168 6.81493e-05 0)
(-0.000257481 2.30613e-05 0)
(-0.000251414 -2.07836e-05 0)
(-0.000239207 -6.30484e-05 0)
(-0.00022139 -0.000103198 0)
(-0.000197725 -0.000140562 0)
(-0.000168752 -0.000174594 0)
(-0.000135203 -0.000204764 0)
(-9.72245e-05 -0.000230546 0)
(-5.55116e-05 -0.000251582 0)
(-1.07619e-05 -0.00026742 0)
(3.57832e-05 -0.00027779 0)
(8.38728e-05 -0.000282454 0)
(0.000132196 -0.000281173 0)
(0.000179999 -0.000274083 0)
(0.000226373 -0.000261145 0)
(0.000269983 -0.000242585 0)
(0.000310461 -0.000218667 0)
(0.0003462 -0.000189872 0)
(0.000376815 -0.000156674 0)
(0.000401391 -0.000119779 0)
(0.000419113 -7.98961e-05 0)
(0.000429483 -3.78681e-05 0)
(0.000431912 5.29191e-06 0)
(0.000426131 4.86846e-05 0)
(0.000412205 9.12679e-05 0)
(0.000390339 0.000132073 0)
(0.000360877 0.000170006 0)
(0.000324262 0.000204056 0)
(0.000281252 0.000233266 0)
(0.000232748 0.000256784 0)
(0.00017993 0.000273858 0)
(0.000124049 0.000283946 0)
(6.65122e-05 0.000286598 0)
(8.90902e-06 0.000281685 0)
(-4.71718e-05 0.00026914 0)
(-0.000100181 0.000249254 0)
(-0.000148445 0.00022251 0)
(-0.000190692 0.000189671 0)
(-0.000225323 0.000151558 0)
(-0.000251248 0.000109504 0)
(-0.000267952 6.45814e-05 0)
(-0.000274291 1.86353e-05 0)
(-0.000270121 -2.71375e-05 0)
(-0.000255535 -7.08165e-05 0)
(-0.000231257 -0.000111175 0)
(-0.000197971 -0.000146447 0)
(-0.000156824 -0.000175539 0)
(-0.000109673 -0.000196989 0)
(-5.81881e-05 -0.00021003 0)
(-4.31154e-06 -0.000214064 0)
(4.95108e-05 -0.00020897 0)
(0.000100657 -0.000194697 0)
(0.000147155 -0.000172096 0)
(0.000187072 -0.000141838 0)
(0.000218123 -0.00010559 0)
(0.000239016 -6.48029e-05 0)
(0.000248767 -2.16273e-05 0)
(0.000246355 2.20777e-05 0)
(0.000232224 6.39576e-05 0)
(0.000207054 0.000102045 0)
(0.000171973 0.000134191 0)
(0.000128783 0.000158693 0)
(7.97585e-05 0.000174195 0)
(2.75065e-05 0.000179856 0)
(-2.48572e-05 0.000175156 0)
(-7.4193e-05 0.000160508 0)
(-0.000117733 0.000136834 0)
(-0.000152983 0.000105494 0)
(-0.00017764 6.8415e-05 0)
(-0.000190415 2.80353e-05 0)
(-0.000190302 -1.29847e-05 0)
(-0.000177398 -5.2105e-05 0)
(-0.000152792 -8.6723e-05 0)
(-0.000118182 -0.000114529 0)
(-7.6129e-05 -0.000133603 0)
(-2.93571e-05 -0.000142716 0)
(1.86931e-05 -0.000141196 0)
(6.41167e-05 -0.000129469 0)
(0.000103487 -0.000108641 0)
(0.000134209 -8.04782e-05 0)
(0.000154031 -4.73525e-05 0)
(0.000161694 -1.22119e-05 0)
(0.000156891 2.21485e-05 0)
(0.000140387 5.28742e-05 0)
(0.000113991 7.73725e-05 0)
(8.04437e-05 9.38321e-05 0)
(4.30406e-05 0.000100964 0)
(5.1079e-06 9.86751e-05 0)
(-2.96683e-05 8.74678e-05 0)
(-5.79894e-05 6.91472e-05 0)
(-7.77327e-05 4.59653e-05 0)
(-8.75231e-05 2.06378e-05 0)
(-8.71288e-05 -3.87379e-06 0)
(-7.75165e-05 -2.5047e-05 0)
(-6.0678e-05 -4.06892e-05 0)
(-3.93515e-05 -4.93638e-05 0)
(-1.65554e-05 -5.06426e-05 0)
(4.51483e-06 -4.49107e-05 0)
(2.10846e-05 -3.37546e-05 0)
(3.13237e-05 -1.91822e-05 0)
(3.43708e-05 -3.68203e-06 0)
(3.05585e-05 1.02696e-05 0)
(2.11812e-05 2.07084e-05 0)
(8.15487e-06 2.61784e-05 0)
(-6.22164e-06 2.59439e-05 0)
(-1.87762e-05 2.03709e-05 0)
(-2.701e-05 1.06384e-05 0)
(-2.96869e-05 -1.54681e-06 0)
(-2.6114e-05 -1.41846e-05 0)
(-1.68827e-05 -2.52197e-05 0)
(-2.56698e-06 -3.29244e-05 0)
(1.48689e-05 -3.64297e-05 0)
(3.22594e-05 -3.45589e-05 0)
(4.74466e-05 -2.79838e-05 0)
(5.85013e-05 -1.76296e-05 0)
(6.38883e-05 -4.88401e-06 0)
(6.28082e-05 8.53715e-06 0)
(5.5338e-05 2.10089e-05 0)
(4.23988e-05 3.09653e-05 0)
(2.54502e-05 3.7313e-05 0)
(6.40627e-06 3.95194e-05 0)
(-1.25534e-05 3.72852e-05 0)
(-2.93393e-05 3.12345e-05 0)
(-4.22788e-05 2.20703e-05 0)
(-5.01243e-05 1.09405e-05 0)
(-5.21617e-05 -9.48435e-07 0)
(-4.83056e-05 -1.23342e-05 0)
(-3.90369e-05 -2.20936e-05 0)
(-2.53983e-05 -2.92121e-05 0)
(-8.82325e-06 -3.30173e-05 0)
(-1.43592e-05 -0.000112982 0)
(-4.19324e-05 -0.000117018 0)
(-6.80321e-05 -0.000131059 0)
(-9.1201e-05 -0.000152217 0)
(-0.000110319 -0.000180193 0)
(-0.000123731 -0.000214826 0)
(-0.000130543 -0.00025543 0)
(-0.000129584 -0.000301741 0)
(-0.000120227 -0.000352405 0)
(-0.000101953 -0.000406903 0)
(-7.43069e-05 -0.000463773 0)
(-3.75503e-05 -0.000522013 0)
(8.29824e-06 -0.000580089 0)
(6.26456e-05 -0.000636725 0)
(0.000126182 -0.000690212 0)
(0.000198155 -0.000739394 0)
(0.000277453 -0.000782685 0)
(0.000363308 -0.000819095 0)
(0.000454281 -0.000847507 0)
(0.000549555 -0.000866843 0)
(0.000648074 -0.000876286 0)
(0.0007482 -0.000875456 0)
(0.000848225 -0.000863983 0)
(0.000946902 -0.000841863 0)
(0.00104243 -0.000808927 0)
(0.00113346 -0.000766124 0)
(0.00121768 -0.000713815 0)
(0.00129435 -0.000653215 0)
(0.00136285 -0.000584983 0)
(0.00142093 -0.000510659 0)
(0.00146852 -0.000431422 0)
(0.00150619 -0.000348673 0)
(0.00153313 -0.000263575 0)
(0.00154982 -0.000177283 0)
(0.00155682 -9.09444e-05 0)
(0.00155483 -5.49129e-06 0)
(0.00154295 7.80882e-05 0)
(0.00151999 0.000159532 0)
(0.00148821 0.000238291 0)
(0.00144852 0.000313728 0)
(0.00140181 0.000385372 0)
(0.00134896 0.00045274 0)
(0.00129041 0.000515464 0)
(0.00122662 0.000573188 0)
(0.00115814 0.000625633 0)
(0.00108554 0.000672552 0)
(0.00100932 0.000713759 0)
(0.000930039 0.000749054 0)
(0.000848014 0.000778259 0)
(0.000763929 0.000801289 0)
(0.00067872 0.000817989 0)
(0.000592853 0.000828276 0)
(0.000506362 0.000832059 0)
(0.0004198 0.000829477 0)
(0.00033454 0.000820473 0)
(0.000250885 0.000805133 0)
(0.000169069 0.000783552 0)
(8.99967e-05 0.000755805 0)
(1.43589e-05 0.000722211 0)
(-5.6959e-05 0.000682848 0)
(-0.000124104 0.000638183 0)
(-0.0001862 0.000588366 0)
(-0.000242327 0.000534085 0)
(-0.000292382 0.000475644 0)
(-0.000335617 0.000413762 0)
(-0.000371603 0.000348868 0)
(-0.000400053 0.000281776 0)
(-0.000420563 0.00021314 0)
(-0.000432766 0.000143735 0)
(-0.000436869 7.44351e-05 0)
(-0.000431915 6.02559e-06 0)
(-0.000418435 -6.05568e-05 0)
(-0.000397532 -0.000124532 0)
(-0.000368504 -0.000184945 0)
(-0.000331587 -0.000240966 0)
(-0.000287621 -0.000291781 0)
(-0.000237244 -0.000336571 0)
(-0.000181403 -0.000374525 0)
(-0.000120563 -0.000405138 0)
(-5.59718e-05 -0.000427663 0)
(1.10795e-05 -0.000441849 0)
(7.99342e-05 -0.000447089 0)
(0.000148735 -0.000443545 0)
(0.000216265 -0.000430771 0)
(0.000281551 -0.000409278 0)
(0.000343041 -0.000379069 0)
(0.000399457 -0.00034085 0)
(0.000449477 -0.000295244 0)
(0.000491916 -0.000242943 0)
(0.00052572 -0.000185189 0)
(0.000550073 -0.000123006 0)
(0.000563972 -5.77223e-05 0)
(0.000566848 9.20088e-06 0)
(0.000558507 7.62396e-05 0)
(0.000539019 0.000141866 0)
(0.000508605 0.000204518 0)
(0.000467581 0.000262565 0)
(0.000416786 0.00031446 0)
(0.000357263 0.000358768 0)
(0.000290366 0.000394215 0)
(0.000217779 0.000419668 0)
(0.00014119 0.000434261 0)
(6.26995e-05 0.00043743 0)
(-1.56478e-05 0.000428834 0)
(-9.17233e-05 0.000408555 0)
(-0.000163111 0.0003771 0)
(-0.000227774 0.000335168 0)
(-0.000283763 0.000283832 0)
(-0.000329143 0.000224771 0)
(-0.000362581 0.000159584 0)
(-0.00038257 9.04738e-05 0)
(-0.000388602 1.9695e-05 0)
(-0.000380164 -5.03109e-05 0)
(-0.000357558 -0.000117085 0)
(-0.000321821 -0.000178562 0)
(-0.000273988 -0.000231983 0)
(-0.000215734 -0.000275568 0)
(-0.00014916 -0.000307395 0)
(-7.72685e-05 -0.000326247 0)
(-2.53576e-06 -0.000331192 0)
(7.18262e-05 -0.000321773 0)
(0.000142219 -0.000298603 0)
(0.000205792 -0.000262496 0)
(0.000259567 -0.000215109 0)
(0.000301067 -0.000158552 0)
(0.000328249 -9.52843e-05 0)
(0.000339869 -2.8434e-05 0)
(0.000335101 3.86545e-05 0)
(0.000314012 0.000102802 0)
(0.000277871 0.000160755 0)
(0.000228248 0.000209338 0)
(0.000167897 0.000246005 0)
(9.99667e-05 0.000268679 0)
(2.79909e-05 0.000276185 0)
(-4.38183e-05 0.000267822 0)
(-0.000110787 0.00024426 0)
(-0.000169445 0.000206843 0)
(-0.000216392 0.000158013 0)
(-0.000248509 0.000100705 0)
(-0.00026388 3.85087e-05 0)
(-0.000261608 -2.43721e-05 0)
(-0.000242113 -8.40856e-05 0)
(-0.000206801 -0.000136439 0)
(-0.000158103 -0.000178124 0)
(-9.95613e-05 -0.000206044 0)
(-3.52465e-05 -0.000218712 0)
(3.01989e-05 -0.00021492 0)
(9.13114e-05 -0.000195681 0)
(0.000143617 -0.000162686 0)
(0.000183631 -0.000118725 0)
(0.000208271 -6.7509e-05 0)
(0.00021612 -1.3509e-05 0)
(0.000207137 3.87571e-05 0)
(0.000182324 8.49535e-05 0)
(0.000144559 0.00012135 0)
(9.75946e-05 0.000145083 0)
(4.60405e-05 0.00015443 0)
(-5.30863e-06 0.000149226 0)
(-5.14955e-05 0.000130665 0)
(-8.80099e-05 0.000101346 0)
(-0.000112222 6.50356e-05 0)
(-0.000122382 2.57748e-05 0)
(-0.000118558 -1.16702e-05 0)
(-0.000102394 -4.35892e-05 0)
(-7.67226e-05 -6.64542e-05 0)
(-4.55546e-05 -7.84636e-05 0)
(-1.31571e-05 -7.8927e-05 0)
(1.59629e-05 -6.86743e-05 0)
(3.80234e-05 -5.02877e-05 0)
(5.07343e-05 -2.70087e-05 0)
(5.30619e-05 -2.67648e-06 0)
(4.57695e-05 1.8991e-05 0)
(3.09051e-05 3.48856e-05 0)
(1.11983e-05 4.28944e-05 0)
(-9.86105e-06 4.18491e-05 0)
(-2.79907e-05 3.278e-05 0)
(-3.99654e-05 1.74316e-05 0)
(-4.41387e-05 -1.51868e-06 0)
(-3.9702e-05 -2.09101e-05 0)
(-2.74671e-05 -3.76826e-05 0)
(-8.8185e-06 -4.9218e-05 0)
(1.39623e-05 -5.44352e-05 0)
(3.68728e-05 -5.14336e-05 0)
(5.65235e-05 -4.1499e-05 0)
(7.07048e-05 -2.60488e-05 0)
(7.75221e-05 -7.19505e-06 0)
(7.61048e-05 1.2467e-05 0)
(6.66835e-05 3.05664e-05 0)
(5.05e-05 4.48566e-05 0)
(2.96192e-05 5.38336e-05 0)
(6.34515e-06 5.6698e-05 0)
(-1.65873e-05 5.32404e-05 0)
(-3.66167e-05 4.4315e-05 0)
(-5.18283e-05 3.10652e-05 0)
(-6.08004e-05 1.51133e-05 0)
(-6.28108e-05 -1.78805e-06 0)
(-5.78567e-05 -1.78835e-05 0)
(-4.65733e-05 -3.16131e-05 0)
(-3.0217e-05 -4.16149e-05 0)
(-1.04891e-05 -4.69213e-05 0)
(-4.71118e-05 -0.000121018 0)
(-0.00014008 -0.000152213 0)
(-0.000230505 -0.000189921 0)
(-0.000315802 -0.000246271 0)
(-0.0003943 -0.000319986 0)
(-0.000463036 -0.000411167 0)
(-0.000521208 -0.000515264 0)
(-0.00056523 -0.000632601 0)
(-0.000592917 -0.000753762 0)
(-0.00060398 -0.000880186 0)
(-0.000595861 -0.00100634 0)
(-0.000568694 -0.00113187 0)
(-0.000521405 -0.00125277 0)
(-0.000453876 -0.0013676 0)
(-0.000367135 -0.0014732 0)
(-0.000262397 -0.00156791 0)
(-0.000141479 -0.00164932 0)
(-7.1588e-06 -0.00171527 0)
(0.000139881 -0.00176439 0)
(0.000297093 -0.00179491 0)
(0.000459937 -0.00180481 0)
(0.000625565 -0.00179387 0)
(0.000790952 -0.00176073 0)
(0.000954392 -0.00170689 0)
(0.00111034 -0.00163087 0)
(0.00125588 -0.00153661 0)
(0.00138911 -0.00142206 0)
(0.00150801 -0.00129467 0)
(0.0016109 -0.00115099 0)
(0.0016952 -0.00100106 0)
(0.0017615 -0.000842915 0)
(0.00180993 -0.000683021 0)
(0.0018414 -0.000522441 0)
(0.00185655 -0.000364307 0)
(0.00185632 -0.000209369 0)
(0.00184144 -6.00629e-05 0)
(0.0018152 8.27847e-05 0)
(0.00178004 0.000217983 0)
(0.00173506 0.000345123 0)
(0.0016807 0.000463781 0)
(0.00161781 0.000573676 0)
(0.00154705 0.000674527 0)
(0.00146937 0.00076639 0)
(0.00138541 0.00084875 0)
(0.00129597 0.000922071 0)
(0.00120187 0.000986158 0)
(0.00110375 0.00104123 0)
(0.00100209 0.00108688 0)
(0.000897735 0.00112339 0)
(0.000791196 0.00115088 0)
(0.000683024 0.00116926 0)
(0.000573991 0.00117858 0)
(0.000465356 0.00117887 0)
(0.000357287 0.00117032 0)
(0.000250395 0.00115291 0)
(0.000145573 0.00112667 0)
(4.34469e-05 0.00109199 0)
(-5.49653e-05 0.00104896 0)
(-0.000148949 0.000997977 0)
(-0.000237605 0.000939296 0)
(-0.000320301 0.000873224 0)
(-0.000396093 0.00080062 0)
(-0.000464326 0.000721717 0)
(-0.000524143 0.000637488 0)
(-0.000575113 0.000548515 0)
(-0.000616452 0.000455818 0)
(-0.000647504 0.000360123 0)
(-0.000668075 0.000262666 0)
(-0.000677796 0.000164265 0)
(-0.000676394 6.63452e-05 0)
(-0.000663728 -2.98565e-05 0)
(-0.000639856 -0.000123504 0)
(-0.000605212 -0.000213187 0)
(-0.000560109 -0.000297572 0)
(-0.000505001 -0.000375551 0)
(-0.000440669 -0.000445926 0)
(-0.00036791 -0.000507516 0)
(-0.000287942 -0.000559407 0)
(-0.000201749 -0.000600633 0)
(-0.000110805 -0.000630394 0)
(-1.67835e-05 -0.000648042 0)
(7.89117e-05 -0.000653144 0)
(0.000174468 -0.000645517 0)
(0.000268246 -0.000625064 0)
(0.000358224 -0.000592091 0)
(0.000442653 -0.000546959 0)
(0.000519684 -0.000490433 0)
(0.000587877 -0.000423593 0)
(0.000645425 -0.000347459 0)
(0.000690813 -0.000263646 0)
(0.000723222 -0.000173866 0)
(0.00074133 -7.9978e-05 0)
(0.000744318 1.60289e-05 0)
(0.000731991 0.000112022 0)
(0.000704606 0.000205803 0)
(0.000662357 0.000294942 0)
(0.000605849 0.000377241 0)
(0.000536205 0.000450476 0)
(0.000454961 0.000512682 0)
(0.000363909 0.000561967 0)
(0.00026526 0.000596793 0)
(0.000161558 0.000616223 0)
(5.54163e-05 0.000619083 0)
(-5.02168e-05 0.000605383 0)
(-0.00015206 0.000575045 0)
(-0.000247347 0.000528861 0)
(-0.000333382 0.000467868 0)
(-0.000407124 0.000393787 0)
(-0.000466158 0.000308754 0)
(-0.000508627 0.00021535 0)
(-0.000532981 0.00011644 0)
(-0.000538007 1.57326e-05 0)
(-0.00052344 -8.36728e-05 0)
(-0.000490368 -0.000178394 0)
(-0.000439289 -0.00026474 0)
(-0.00037166 -0.000339604 0)
(-0.000290395 -0.000400137 0)
(-0.000198515 -0.000443681 0)
(-9.96128e-05 -0.000468642 0)
(2.96997e-06 -0.000473645 0)
(0.000104159 -0.000458494 0)
(0.000199231 -0.000423885 0)
(0.000284571 -0.00037076 0)
(0.000356263 -0.000301933 0)
(0.000411004 -0.000220028 0)
(0.000446121 -0.000129263 0)
(0.000459563 -3.3705e-05 0)
(0.000450611 6.18225e-05 0)
(0.000420119 0.000152885 0)
(0.000369168 0.000234547 0)
(0.000300274 0.000302593 0)
(0.000217151 0.000353438 0)
(0.000124299 0.000384021 0)
(2.64844e-05 0.000392959 0)
(-7.04691e-05 0.000379183 0)
(-0.000160505 0.000343937 0)
(-0.000238531 0.000289329 0)
(-0.000300023 0.000218625 0)
(-0.000341353 0.000136389 0)
(-0.000359841 4.77785e-05 0)
(-0.000354503 -4.14331e-05 0)
(-0.000325834 -0.000125555 0)
(-0.000275983 -0.000198941 0)
(-0.00020841 -0.000256551 0)
(-0.000128244 -0.00029457 0)
(-4.08163e-05 -0.000310498 0)
(4.72335e-05 -0.000303141 0)
(0.00012842 -0.000274017 0)
(0.000197264 -0.000225467 0)
(0.000248943 -0.000161883 0)
(0.000279471 -8.85546e-05 0)
(0.000286987 -1.16501e-05 0)
(0.000271721 6.18758e-05 0)
(0.000235663 0.000126262 0)
(0.000182633 0.000176304 0)
(0.000117878 0.0002079 0)
(4.78497e-05 0.000218948 0)
(-2.08483e-05 0.000209071 0)
(-8.1576e-05 0.00018057 0)
(-0.000128417 0.000137255 0)
(-0.000157962 8.44842e-05 0)
(-0.000168075 2.83664e-05 0)
(-0.000159186 -2.46894e-05 0)
(-0.00013384 -6.90703e-05 0)
(-9.61948e-05 -0.000100141 0)
(-5.20121e-05 -0.0001152 0)
(-7.00636e-06 -0.00011376 0)
(3.24446e-05 -9.71251e-05 0)
(6.13427e-05 -6.9201e-05 0)
(7.68524e-05 -3.48076e-05 0)
(7.78894e-05 5.25196e-07 0)
(6.57181e-05 3.16064e-05 0)
(4.33371e-05 5.38898e-05 0)
(1.45962e-05 6.45998e-05 0)
(-1.52834e-05 6.21594e-05 0)
(-4.05249e-05 4.848e-05 0)
(-5.72518e-05 2.60334e-05 0)
(-6.3136e-05 -1.21508e-06 0)
(-5.73275e-05 -2.87978e-05 0)
(-4.10582e-05 -5.23915e-05 0)
(-1.67314e-05 -6.84218e-05 0)
(1.29729e-05 -7.51953e-05 0)
(4.2881e-05 -7.07982e-05 0)
(6.81008e-05 -5.68855e-05 0)
(8.61178e-05 -3.54965e-05 0)
(9.45622e-05 -9.69909e-06 0)
(9.25554e-05 1.69957e-05 0)
(8.05782e-05 4.12548e-05 0)
(6.03372e-05 6.01962e-05 0)
(3.44996e-05 7.18258e-05 0)
(6.00192e-06 7.52011e-05 0)
(-2.17262e-05 7.02474e-05 0)
(-4.56148e-05 5.80595e-05 0)
(-6.34857e-05 4.03269e-05 0)
(-7.3723e-05 1.92035e-05 0)
(-7.56033e-05 -2.98686e-06 0)
(-6.92605e-05 -2.39918e-05 0)
(-5.55284e-05 -4.17916e-05 0)
(-3.59239e-05 -5.47115e-05 0)
(-1.2445e-05 -6.15634e-05 0)
(-0.000122478 0.000968442 0)
(-0.000364348 0.000931545 0)
(-0.000601204 0.000862222 0)
(-0.000822851 0.000758078 0)
(-0.00102817 0.000623804 0)
(-0.00120051 0.000458173 0)
(-0.00134141 0.000274171 0)
(-0.00142563 6.22583e-05 0)
(-0.00146263 -0.000155356 0)
(-0.00146666 -0.000400993 0)
(-0.00142656 -0.000659315 0)
(-0.00135214 -0.000928796 0)
(-0.00124013 -0.00119583 0)
(-0.00109601 -0.00145516 0)
(-0.000919352 -0.00169802 0)
(-0.000715491 -0.00191764 0)
(-0.00048472 -0.00210828 0)
(-0.00023233 -0.00226516 0)
(3.98328e-05 -0.00238459 0)
(0.00032853 -0.00246308 0)
(0.000622989 -0.00249912 0)
(0.000923594 -0.00249492 0)
(0.00121938 -0.0024472 0)
(0.00150938 -0.00236028 0)