#           v             n
     0.523599   3.79495e-09
     0.648652   2.71445e-09
     0.790112   5.93845e-09
     0.953116   1.39164e-08
      1.13449    3.3302e-08
      1.34047   8.43246e-08
      1.56672   2.15488e-07
      1.82069   5.74762e-07
      2.09677   1.52607e-06
      2.40376   4.16389e-06
      2.73462   1.11255e-05
      3.09966   2.99886e-05
      3.49026   7.75475e-05
      3.91837   0.000197628
      4.37366   0.000470092
      4.86986    0.00106743
       5.3948    0.00217438
      5.96412    0.00403369
      6.56366    0.00631654
      7.21112    0.00839863
      7.89023    0.00869764
      8.62085    0.00728888
      9.38447    0.00468504
      10.2033    0.00182688
      11.0564             0
      11.9684             0
      12.9159             0
      13.9262             0
      14.9731             0
