/*--------------------------------*- C++ -*----------------------------------*\
  =========                 |
  \\      /  F ield         | OpenFOAM: The Open Source CFD Toolbox
   \\    /   O peration     | Website:  https://openfoam.org
    \\  /    A nd           | Version:  12
     \\/     M anipulation  |
\*---------------------------------------------------------------------------*/
FoamFile
{
    format      ascii;
    class       volVectorField;
    location    "1.04";
    object      U;
}
// * * * * * * * * * * * * * * * * * * * * * * * * * * * * * * * * * * * * * //

dimensions      [0 1 -1 0 0 0 0];

internalField   nonuniform List<vector> 
3829
(
(1.44974e-06 -1.38827e-05 0)
(4.3803e-06 -1.39344e-05 0)
(7.34154e-06 -1.38895e-05 0)
(1.03267e-05 -1.38215e-05 0)
(1.33302e-05 -1.37304e-05 0)
(1.63476e-05 -1.36163e-05 0)
(1.93741e-05 -1.34796e-05 0)
(2.2405e-05 -1.3321e-05 0)
(2.54358e-05 -1.31412e-05 0)
(2.84621e-05 -1.29415e-05 0)
(3.14793e-05 -1.2723e-05 0)
(3.44825e-05 -1.2487e-05 0)
(3.74668e-05 -1.22351e-05 0)
(4.04271e-05 -1.19691e-05 0)
(4.33583e-05 -1.16911e-05 0)
(4.62553e-05 -1.14031e-05 0)
(4.91134e-05 -1.11074e-05 0)
(5.19286e-05 -1.08065e-05 0)
(5.46972e-05 -1.05026e-05 0)
(5.74165e-05 -1.01981e-05 0)
(6.00839e-05 -9.89498e-06 0)
(6.26978e-05 -9.59522e-06 0)
(6.52568e-05 -9.30041e-06 0)
(6.77604e-05 -9.01179e-06 0)
(7.02085e-05 -8.73027e-06 0)
(7.26006e-05 -8.45647e-06 0)
(7.4937e-05 -8.19047e-06 0)
(7.72181e-05 -7.93217e-06 0)
(7.94439e-05 -7.68107e-06 0)
(8.16146e-05 -7.43632e-06 0)
(8.37293e-05 -7.19689e-06 0)
(8.57885e-05 -6.96087e-06 0)
(8.77926e-05 -6.7271e-06 0)
(8.9736e-05 -6.49493e-06 0)
(9.16162e-05 -6.2621e-06 0)
(9.34365e-05 -6.02624e-06 0)
(9.51982e-05 -5.78503e-06 0)
(9.69015e-05 -5.53582e-06 0)
(9.85445e-05 -5.27727e-06 0)
(0.000100124 -5.0071e-06 0)
(0.000101636 -4.72375e-06 0)
(0.000103076 -4.42612e-06 0)
(0.000104435 -4.11346e-06 0)
(0.000105705 -3.78485e-06 0)
(0.000106883 -3.44023e-06 0)
(0.000107957 -3.07983e-06 0)
(0.000108922 -2.70425e-06 0)
(0.000109768 -2.31497e-06 0)
(0.000110488 -1.91172e-06 0)
(0.000111076 -1.4978e-06 0)
(0.000111522 -1.07425e-06 0)
(0.000111814 -6.44685e-07 0)
(0.000111935 -2.09756e-07 0)
(0.000111875 2.27539e-07 0)
(0.000111631 6.66232e-07 0)
(0.000111211 1.1047e-06 0)
(0.000110614 1.54086e-06 0)
(0.000109843 1.97214e-06 0)
(0.000108893 2.39676e-06 0)
(0.000107773 2.81281e-06 0)
(0.000106486 3.2158e-06 0)
(0.000105024 3.60386e-06 0)
(0.000103395 3.97446e-06 0)
(0.000101601 4.32537e-06 0)
(9.96472e-05 4.6546e-06 0)
(9.75398e-05 4.96044e-06 0)
(9.52856e-05 5.24147e-06 0)
(9.28921e-05 5.49637e-06 0)
(9.03676e-05 5.72426e-06 0)
(8.77221e-05 5.9249e-06 0)
(8.49639e-05 6.09518e-06 0)
(8.21054e-05 6.24003e-06 0)
(7.91602e-05 6.35633e-06 0)
(7.61343e-05 6.44108e-06 0)
(7.30396e-05 6.50209e-06 0)
(6.98897e-05 6.53243e-06 0)
(6.6696e-05 6.5414e-06 0)
(6.34622e-05 6.52526e-06 0)
(6.02129e-05 6.4842e-06 0)
(5.69611e-05 6.42313e-06 0)
(5.37023e-05 6.34125e-06 0)
(5.04545e-05 6.24045e-06 0)
(4.7228e-05 6.12215e-06 0)
(4.403e-05 5.98661e-06 0)
(4.08752e-05 5.8391e-06 0)
(3.77716e-05 5.676e-06 0)
(3.47221e-05 5.5027e-06 0)
(3.17345e-05 5.31956e-06 0)
(2.88179e-05 5.12855e-06 0)
(2.59812e-05 4.93041e-06 0)
(2.32231e-05 4.72668e-06 0)
(2.05542e-05 4.51978e-06 0)
(1.79792e-05 4.30903e-06 0)
(1.54952e-05 4.09708e-06 0)
(1.31114e-05 3.88449e-06 0)
(1.08291e-05 3.67313e-06 0)
(8.64747e-06 3.46141e-06 0)
(6.57331e-06 3.25459e-06 0)
(4.59873e-06 3.04959e-06 0)
(2.73628e-06 2.85065e-06 0)
(9.86853e-07 2.65375e-06 0)
(-6.62828e-07 2.46342e-06 0)
(-2.20721e-06 2.27754e-06 0)
(-3.65157e-06 2.09751e-06 0)
(-4.99446e-06 1.92361e-06 0)
(-6.23728e-06 1.75621e-06 0)
(-7.38223e-06 1.59568e-06 0)
(-8.43136e-06 1.44206e-06 0)
(-9.38719e-06 1.29551e-06 0)
(-1.02522e-05 1.15627e-06 0)
(-1.10297e-05 1.02393e-06 0)
(-1.17226e-05 8.98876e-07 0)
(-1.23342e-05 7.80996e-07 0)
(-1.28678e-05 6.70233e-07 0)
(-1.33265e-05 5.66578e-07 0)
(-1.37139e-05 4.69583e-07 0)
(-1.40336e-05 3.79129e-07 0)
(-1.42888e-05 2.95092e-07 0)
(-1.44831e-05 2.1718e-07 0)
(-1.46201e-05 1.45345e-07 0)
(-1.47034e-05 7.92967e-08 0)
(-1.4736e-05 1.90343e-08 0)
(-1.47226e-05 -3.64465e-08 0)
(-1.46667e-05 -8.66492e-08 0)
(-1.45705e-05 -1.31784e-07 0)
(-1.44371e-05 -1.72083e-07 0)
(-1.42696e-05 -2.07792e-07 0)
(-1.4071e-05 -2.39147e-07 0)
(-1.38444e-05 -2.66384e-07 0)
(-1.35926e-05 -2.8974e-07 0)
(-1.33184e-05 -3.09446e-07 0)
(-1.30247e-05 -3.25735e-07 0)
(-1.27141e-05 -3.3884e-07 0)
(-1.23889e-05 -3.48995e-07 0)
(-1.20517e-05 -3.5643e-07 0)
(-1.17046e-05 -3.61377e-07 0)
(-1.13499e-05 -3.64059e-07 0)
(-1.09895e-05 -3.64695e-07 0)
(-1.06252e-05 -3.63494e-07 0)
(-1.02587e-05 -3.60651e-07 0)
(-9.89166e-06 -3.56352e-07 0)
(-9.52548e-06 -3.50765e-07 0)
(-9.16146e-06 -3.44049e-07 0)
(-8.80085e-06 -3.36347e-07 0)
(-8.4448e-06 -3.27796e-07 0)
(-8.09426e-06 -3.18523e-07 0)
(-7.75013e-06 -3.08648e-07 0)
(-7.41327e-06 -2.98289e-07 0)
(-7.08432e-06 -2.8756e-07 0)
(-6.76388e-06 -2.76571e-07 0)
(-6.45245e-06 -2.6543e-07 0)
(-6.15038e-06 -2.54232e-07 0)
(-5.85795e-06 -2.4306e-07 0)
(-5.57538e-06 -2.31982e-07 0)
(-5.30276e-06 -2.21044e-07 0)
(-5.0402e-06 -2.10279e-07 0)
(-4.78775e-06 -1.99702e-07 0)
(-4.54541e-06 -1.89323e-07 0)
(-4.31322e-06 -1.79152e-07 0)
(-4.09118e-06 -1.69201e-07 0)
(-3.87925e-06 -1.59487e-07 0)
(-3.6774e-06 -1.50033e-07 0)
(-3.48551e-06 -1.40861e-07 0)
(-3.30344e-06 -1.31994e-07 0)
(-3.13104e-06 -1.23444e-07 0)
(-2.96806e-06 -1.15232e-07 0)
(-2.81428e-06 -1.0737e-07 0)
(-2.66944e-06 -9.98732e-08 0)
(-2.53325e-06 -9.27603e-08 0)
(-2.40536e-06 -8.60528e-08 0)
(-2.28539e-06 -7.97751e-08 0)
(-2.17289e-06 -7.39514e-08 0)
(-2.06736e-06 -6.85998e-08 0)
(-1.96828e-06 -6.37291e-08 0)
(-1.87505e-06 -5.93383e-08 0)
(-1.7871e-06 -5.54254e-08 0)
(-1.70381e-06 -5.19945e-08 0)
(-1.62452e-06 -4.90656e-08 0)
(-1.54853e-06 -4.66812e-08 0)
(-1.475e-06 -4.49033e-08 0)
(-1.40298e-06 -4.37859e-08 0)
(-1.33139e-06 -4.33515e-08 0)
(-1.25915e-06 -4.35678e-08 0)
(-1.18525e-06 -4.43308e-08 0)
(-1.10891e-06 -4.54526e-08 0)
(-1.02969e-06 -4.66891e-08 0)
(-9.4754e-07 -4.77812e-08 0)
(-8.62846e-07 -4.84866e-08 0)
(-7.76398e-07 -4.8613e-08 0)
(-6.89344e-07 -4.80287e-08 0)
(-6.02992e-07 -4.66859e-08 0)
(-5.18738e-07 -4.45773e-08 0)
(-4.38031e-07 -4.17645e-08 0)
(-3.62099e-07 -3.84107e-08 0)
(-2.91823e-07 -3.47383e-08 0)
(-2.27748e-07 -3.10458e-08 0)
(-1.69887e-07 -2.7722e-08 0)
(-1.17544e-07 -2.51275e-08 0)
(-6.90462e-08 -2.35259e-08 0)
(-2.27627e-08 -2.27406e-08 0)
(1.64955e-06 -4.21207e-05 0)
(4.99098e-06 -4.22626e-05 0)
(8.35735e-06 -4.21003e-05 0)
(1.17433e-05 -4.18553e-05 0)
(1.51384e-05 -4.15278e-05 0)
(1.85333e-05 -4.11187e-05 0)
(2.19194e-05 -4.06302e-05 0)
(2.52883e-05 -4.0065e-05 0)
(2.86324e-05 -3.94273e-05 0)
(3.19456e-05 -3.87225e-05 0)
(3.52218e-05 -3.7956e-05 0)
(3.84538e-05 -3.71336e-05 0)
(4.16341e-05 -3.62624e-05 0)
(4.4755e-05 -3.53492e-05 0)
(4.78099e-05 -3.44017e-05 0)
(5.07926e-05 -3.34288e-05 0)
(5.36982e-05 -3.24397e-05 0)
(5.65235e-05 -3.14437e-05 0)
(5.9267e-05 -3.04494e-05 0)
(6.19282e-05 -2.94653e-05 0)
(6.45089e-05 -2.8499e-05 0)
(6.7012e-05 -2.7557e-05 0)
(6.94418e-05 -2.66444e-05 0)
(7.18033e-05 -2.57654e-05 0)
(7.41012e-05 -2.49227e-05 0)
(7.63414e-05 -2.41171e-05 0)
(7.85289e-05 -2.33487e-05 0)
(8.06681e-05 -2.26156e-05 0)
(8.27637e-05 -2.1915e-05 0)
(8.48192e-05 -2.12434e-05 0)
(8.68402e-05 -2.05955e-05 0)
(8.88272e-05 -1.99661e-05 0)
(9.0772e-05 -1.93497e-05 0)
(9.26753e-05 -1.87396e-05 0)
(9.45448e-05 -1.81269e-05 0)
(9.63832e-05 -1.7502e-05 0)
(9.81925e-05 -1.68563e-05 0)
(9.9966e-05 -1.61808e-05 0)
(0.000101699 -1.54699e-05 0)
(0.000103388 -1.47168e-05 0)
(0.000105022 -1.3916e-05 0)
(0.000106592 -1.30653e-05 0)
(0.000108086 -1.21614e-05 0)
(0.000109494 -1.12024e-05 0)
(0.000110805 -1.01893e-05 0)
(0.000112004 -9.12348e-06 0)
(0.00011308 -8.00701e-06 0)
(0.000114027 -6.8419e-06 0)
(0.000114828 -5.63617e-06 0)
(0.000115472 -4.39084e-06 0)
(0.00011595 -3.11536e-06 0)
(0.000116249 -1.81852e-06 0)
(0.000116358 -5.03204e-07 0)
(0.000116265 8.20321e-07 0)
(0.000115977 2.14719e-06 0)
(0.000115494 3.4713e-06 0)
(0.000114814 4.7852e-06 0)
(0.000113939 6.0822e-06 0)
(0.000112869 7.35337e-06 0)
(0.000111603 8.59168e-06 0)
(0.000110142 9.78719e-06 0)
(0.000108491 1.09329e-05 0)
(0.000106653 1.20218e-05 0)
(0.000104637 1.30475e-05 0)
(0.00010245 1.40042e-05 0)
(0.0001001 1.48871e-05 0)
(9.75966e-05 1.56946e-05 0)
(9.49499e-05 1.64221e-05 0)
(9.21733e-05 1.7067e-05 0)
(8.92672e-05 1.76266e-05 0)
(8.62613e-05 1.81029e-05 0)
(8.31683e-05 1.84937e-05 0)
(7.99692e-05 1.88022e-05 0)
(7.67139e-05 1.90281e-05 0)
(7.33987e-05 1.9175e-05 0)
(7.00424e-05 1.92435e-05 0)
(6.66684e-05 1.92363e-05 0)
(6.3245e-05 1.91581e-05 0)
(5.98294e-05 1.90144e-05 0)
(5.64305e-05 1.88049e-05 0)
(5.30321e-05 1.85364e-05 0)
(4.966e-05 1.82136e-05 0)
(4.6318e-05 1.78408e-05 0)
(4.30268e-05 1.74254e-05 0)
(3.97871e-05 1.6967e-05 0)
(3.66068e-05 1.64758e-05 0)
(3.3502e-05 1.59528e-05 0)
(3.04684e-05 1.54036e-05 0)
(2.75162e-05 1.48326e-05 0)
(2.46524e-05 1.42438e-05 0)
(2.18809e-05 1.36409e-05 0)
(1.92048e-05 1.30296e-05 0)
(1.66291e-05 1.24106e-05 0)
(1.41548e-05 1.179e-05 0)
(1.17881e-05 1.1166e-05 0)
(9.52376e-06 1.05478e-05 0)
(7.3708e-06 9.93564e-06 0)
(5.33156e-06 9.33168e-06 0)
(3.39472e-06 8.73711e-06 0)
(1.57001e-06 8.15689e-06 0)
(-1.41087e-07 7.58852e-06 0)
(-1.74607e-06 7.0357e-06 0)
(-3.24878e-06 6.49877e-06 0)
(-4.64747e-06 5.97884e-06 0)
(-5.94384e-06 5.47797e-06 0)
(-7.13911e-06 4.99615e-06 0)
(-8.23628e-06 4.53415e-06 0)
(-9.23806e-06 4.09255e-06 0)
(-1.01465e-05 3.67155e-06 0)
(-1.09655e-05 3.2715e-06 0)
(-1.1698e-05 2.89227e-06 0)
(-1.23462e-05 2.53393e-06 0)
(-1.29144e-05 2.19625e-06 0)
(-1.34058e-05 1.87899e-06 0)
(-1.38242e-05 1.58155e-06 0)
(-1.41735e-05 1.30389e-06 0)
(-1.44566e-05 1.04529e-06 0)
(-1.4677e-05 8.05232e-07 0)
(-1.4838e-05 5.83425e-07 0)
(-1.49432e-05 3.789e-07 0)
(-1.4996e-05 1.91076e-07 0)
(-1.50012e-05 1.92975e-08 0)
(-1.4962e-05 -1.37564e-07 0)
(-1.48802e-05 -2.79535e-07 0)
(-1.47598e-05 -4.07167e-07 0)
(-1.46036e-05 -5.21075e-07 0)
(-1.44149e-05 -6.21933e-07 0)
(-1.41966e-05 -7.10398e-07 0)
(-1.39517e-05 -7.87126e-07 0)
(-1.3683e-05 -8.52785e-07 0)
(-1.33932e-05 -9.08022e-07 0)
(-1.30852e-05 -9.53498e-07 0)
(-1.27615e-05 -9.89881e-07 0)
(-1.24245e-05 -1.01784e-06 0)
(-1.20767e-05 -1.03804e-06 0)
(-1.17201e-05 -1.05114e-06 0)
(-1.13569e-05 -1.0578e-06 0)
(-1.0989e-05 -1.05866e-06 0)
(-1.06182e-05 -1.0543e-06 0)
(-1.0246e-05 -1.04531e-06 0)
(-9.87406e-06 -1.03219e-06 0)
(-9.50369e-06 -1.01544e-06 0)
(-9.13612e-06 -9.95504e-07 0)
(-8.77253e-06 -9.72781e-07 0)
(-8.41404e-06 -9.4766e-07 0)
(-8.06155e-06 -9.20493e-07 0)
(-7.71594e-06 -8.91623e-07 0)
(-7.378e-06 -8.61384e-07 0)
(-7.0484e-06 -8.30105e-07 0)
(-6.72768e-06 -7.98109e-07 0)
(-6.41632e-06 -7.6571e-07 0)
(-6.11461e-06 -7.33192e-07 0)
(-5.82277e-06 -7.00803e-07 0)
(-5.54096e-06 -6.68736e-07 0)
(-5.26921e-06 -6.37121e-07 0)
(-5.00759e-06 -6.06035e-07 0)
(-4.75609e-06 -5.75511e-07 0)
(-4.51471e-06 -5.45561e-07 0)
(-4.2835e-06 -5.16204e-07 0)
(-4.06246e-06 -4.87469e-07 0)
(-3.85158e-06 -4.5941e-07 0)
(-3.65082e-06 -4.32099e-07 0)
(-3.46005e-06 -4.05616e-07 0)
(-3.27915e-06 -3.80013e-07 0)
(-3.10792e-06 -3.55343e-07 0)
(-2.94615e-06 -3.31638e-07 0)
(-2.79359e-06 -3.08945e-07 0)
(-2.64999e-06 -2.87307e-07 0)
(-2.51507e-06 -2.66773e-07 0)
(-2.38848e-06 -2.47405e-07 0)
(-2.26985e-06 -2.29279e-07 0)
(-2.15871e-06 -2.12472e-07 0)
(-2.05456e-06 -1.97043e-07 0)
(-1.95682e-06 -1.83015e-07 0)
(-1.86491e-06 -1.70377e-07 0)
(-1.77825e-06 -1.59109e-07 0)
(-1.69624e-06 -1.49209e-07 0)
(-1.61829e-06 -1.40729e-07 0)
(-1.54372e-06 -1.33803e-07 0)
(-1.47172e-06 -1.28634e-07 0)
(-1.40128e-06 -1.25409e-07 0)
(-1.33122e-06 -1.24225e-07 0)
(-1.26033e-06 -1.25e-07 0)
(-1.18742e-06 -1.27426e-07 0)
(-1.11157e-06 -1.30943e-07 0)
(-1.03229e-06 -1.348e-07 0)
(-9.49542e-07 -1.38209e-07 0)
(-8.63801e-07 -1.40437e-07 0)
(-7.75989e-07 -1.40924e-07 0)
(-6.87416e-07 -1.39285e-07 0)
(-5.99524e-07 -1.35396e-07 0)
(-5.13821e-07 -1.29246e-07 0)
(-4.31925e-07 -1.20984e-07 0)
(-3.55215e-07 -1.1107e-07 0)
(-2.8469e-07 -1.00138e-07 0)
(-2.21037e-07 -8.91199e-08 0)
(-1.64306e-07 -7.92369e-08 0)
(-1.13661e-07 -7.16148e-08 0)
(-6.69612e-08 -6.70583e-08 0)
(-2.21323e-08 -6.50091e-08 0)
(2.11929e-06 -7.27645e-05 0)
(6.40201e-06 -7.29418e-05 0)
(1.07036e-05 -7.25575e-05 0)
(1.50054e-05 -7.19786e-05 0)
(1.92865e-05 -7.12075e-05 0)
(2.35261e-05 -7.02442e-05 0)
(2.77074e-05 -6.9102e-05 0)
(3.18121e-05 -6.7784e-05 0)
(3.58174e-05 -6.63083e-05 0)
(3.97134e-05 -6.46881e-05 0)
(4.34941e-05 -6.29392e-05 0)
(4.7146e-05 -6.10826e-05 0)
(5.06602e-05 -5.91354e-05 0)
(5.40305e-05 -5.71245e-05 0)
(5.72421e-05 -5.50702e-05 0)
(6.02824e-05 -5.30011e-05 0)
(6.31485e-05 -5.09432e-05 0)
(6.58451e-05 -4.89205e-05 0)
(6.83779e-05 -4.69569e-05 0)
(7.07556e-05 -4.50727e-05 0)
(7.29928e-05 -4.32852e-05 0)
(7.5107e-05 -4.16077e-05 0)
(7.7114e-05 -4.00495e-05 0)
(7.90315e-05 -3.8614e-05 0)
(8.08827e-05 -3.73044e-05 0)
(8.26843e-05 -3.61152e-05 0)
(8.44535e-05 -3.50388e-05 0)
(8.62072e-05 -3.40643e-05 0)
(8.79552e-05 -3.31783e-05 0)
(8.97106e-05 -3.23638e-05 0)
(9.1481e-05 -3.16041e-05 0)
(9.32664e-05 -3.08846e-05 0)
(9.50722e-05 -3.01898e-05 0)
(9.69107e-05 -2.94962e-05 0)
(9.87927e-05 -2.87812e-05 0)
(0.000100717 -2.80241e-05 0)
(0.000102678 -2.72064e-05 0)
(0.000104655 -2.63117e-05 0)
(0.000106632 -2.53257e-05 0)
(0.000108604 -2.42383e-05 0)
(0.000110541 -2.30411e-05 0)
(0.000112423 -2.17287e-05 0)
(0.00011424 -2.02981e-05 0)
(0.000115962 -1.87492e-05 0)
(0.000117568 -1.7083e-05 0)
(0.000119042 -1.53072e-05 0)
(0.000120376 -1.34254e-05 0)
(0.000121532 -1.14529e-05 0)
(0.000122508 -9.39351e-06 0)
(0.000123294 -7.26166e-06 0)
(0.000123847 -5.0783e-06 0)
(0.000124184 -2.85187e-06 0)
(0.000124288 -5.94307e-07 0)
(0.000124138 1.67854e-06 0)
(0.000123757 3.95476e-06 0)
(0.000123139 6.22011e-06 0)
(0.000122286 8.45912e-06 0)
(0.000121193 1.06564e-05 0)
(0.000119859 1.2796e-05 0)
(0.000118288 1.48637e-05 0)
(0.000116486 1.68463e-05 0)
(0.000114461 1.87316e-05 0)
(0.000112224 2.05051e-05 0)
(0.000109785 2.21647e-05 0)
(0.000107157 2.36998e-05 0)
(0.000104363 2.51033e-05 0)
(0.000101411 2.63687e-05 0)
(9.83072e-05 2.74945e-05 0)
(9.50684e-05 2.84725e-05 0)
(9.17197e-05 2.93117e-05 0)
(8.82739e-05 3.00085e-05 0)
(8.47477e-05 3.05644e-05 0)
(8.11569e-05 3.09801e-05 0)
(7.75138e-05 3.12589e-05 0)
(7.38309e-05 3.14064e-05 0)
(7.01184e-05 3.1432e-05 0)
(6.64026e-05 3.13333e-05 0)
(6.26914e-05 3.11216e-05 0)
(5.89954e-05 3.08084e-05 0)
(5.53301e-05 3.03906e-05 0)
(5.17056e-05 2.98843e-05 0)
(4.81307e-05 2.92951e-05 0)
(4.46225e-05 2.86307e-05 0)
(4.11738e-05 2.79003e-05 0)
(3.78058e-05 2.71095e-05 0)
(3.45297e-05 2.62687e-05 0)
(3.13338e-05 2.53849e-05 0)
(2.82344e-05 2.44589e-05 0)
(2.5235e-05 2.35088e-05 0)
(2.23412e-05 2.25354e-05 0)
(1.95566e-05 2.15405e-05 0)
(1.68812e-05 2.05401e-05 0)
(1.432e-05 1.95313e-05 0)
(1.18636e-05 1.85235e-05 0)
(9.52827e-06 1.75204e-05 0)
(7.31991e-06 1.65238e-05 0)
(5.21844e-06 1.5538e-05 0)
(3.23272e-06 1.45698e-05 0)
(1.36204e-06 1.36221e-05 0)
(-3.9205e-07 1.26969e-05 0)
(-2.03229e-06 1.1795e-05 0)
(-3.56356e-06 1.09169e-05 0)
(-4.9885e-06 1.00665e-05 0)
(-6.30724e-06 9.24543e-06 0)
(-7.52178e-06 8.45515e-06 0)
(-8.63697e-06 7.69661e-06 0)
(-9.6534e-06 6.97058e-06 0)
(-1.05747e-05 6.27765e-06 0)
(-1.14039e-05 5.61832e-06 0)
(-1.21444e-05 4.99249e-06 0)
(-1.28002e-05 4.40049e-06 0)
(-1.33743e-05 3.8415e-06 0)
(-1.38706e-05 3.31513e-06 0)
(-1.42933e-05 2.82071e-06 0)
(-1.4645e-05 2.35864e-06 0)
(-1.49292e-05 1.92733e-06 0)
(-1.51508e-05 1.52625e-06 0)
(-1.5312e-05 1.15459e-06 0)
(-1.54168e-05 8.10984e-07 0)
(-1.54696e-05 4.94794e-07 0)
(-1.54731e-05 2.05269e-07 0)
(-1.54315e-05 -6.01703e-08 0)
(-1.5348e-05 -3.0101e-07 0)
(-1.52245e-05 -5.18554e-07 0)
(-1.50646e-05 -7.13802e-07 0)
(-1.48715e-05 -8.87764e-07 0)
(-1.46482e-05 -1.0415e-06 0)
(-1.43977e-05 -1.17602e-06 0)
(-1.41229e-05 -1.29234e-06 0)
(-1.38265e-05 -1.39147e-06 0)
(-1.35112e-05 -1.4744e-06 0)
(-1.31798e-05 -1.54214e-06 0)
(-1.28347e-05 -1.59575e-06 0)
(-1.24784e-05 -1.63626e-06 0)
(-1.21132e-05 -1.66474e-06 0)
(-1.17411e-05 -1.68225e-06 0)
(-1.13641e-05 -1.68984e-06 0)
(-1.09842e-05 -1.6885e-06 0)
(-1.06028e-05 -1.67921e-06 0)
(-1.02215e-05 -1.66285e-06 0)
(-9.84174e-06 -1.64022e-06 0)
(-9.46467e-06 -1.61208e-06 0)
(-9.09143e-06 -1.57909e-06 0)
(-8.7231e-06 -1.54188e-06 0)
(-8.36073e-06 -1.50101e-06 0)
(-8.00515e-06 -1.45701e-06 0)
(-7.65717e-06 -1.41041e-06 0)
(-7.31759e-06 -1.36172e-06 0)
(-6.98701e-06 -1.31145e-06 0)
(-6.66596e-06 -1.26013e-06 0)
(-6.35485e-06 -1.20828e-06 0)
(-6.05391e-06 -1.15638e-06 0)
(-5.76323e-06 -1.10483e-06 0)
(-5.48286e-06 -1.05394e-06 0)
(-5.2127e-06 -1.00391e-06 0)
(-4.95272e-06 -9.5481e-07 0)
(-4.70287e-06 -9.06639e-07 0)
(-4.46311e-06 -8.59372e-07 0)
(-4.23353e-06 -8.13013e-07 0)
(-4.01416e-06 -7.67603e-07 0)
(-3.80502e-06 -7.23237e-07 0)
(-3.6061e-06 -6.80053e-07 0)
(-3.41726e-06 -6.3819e-07 0)
(-3.23833e-06 -5.97744e-07 0)
(-3.06909e-06 -5.58787e-07 0)
(-2.90934e-06 -5.21374e-07 0)
(-2.75882e-06 -4.85549e-07 0)
(-2.6173e-06 -4.51365e-07 0)
(-2.48449e-06 -4.18914e-07 0)
(-2.36008e-06 -3.88292e-07 0)
(-2.2437e-06 -3.59638e-07 0)
(-2.13487e-06 -3.33096e-07 0)
(-2.03304e-06 -3.08775e-07 0)
(-1.93757e-06 -2.86713e-07 0)
(-1.84786e-06 -2.66861e-07 0)
(-1.76331e-06 -2.49149e-07 0)
(-1.68341e-06 -2.33522e-07 0)
(-1.60764e-06 -2.20045e-07 0)
(-1.53545e-06 -2.08949e-07 0)
(-1.46606e-06 -2.00639e-07 0)
(-1.39837e-06 -1.95517e-07 0)
(-1.33104e-06 -1.9383e-07 0)
(-1.26255e-06 -1.95495e-07 0)
(-1.19143e-06 -2e-07 0)
(-1.11647e-06 -2.06377e-07 0)
(-1.03706e-06 -2.13313e-07 0)
(-9.53213e-07 -2.19445e-07 0)
(-8.65589e-07 -2.23505e-07 0)
(-7.7536e-07 -2.24609e-07 0)
(-6.84122e-07 -2.22138e-07 0)
(-5.93555e-07 -2.15951e-07 0)
(-5.05313e-07 -2.06028e-07 0)
(-4.21279e-07 -1.92545e-07 0)
(-3.43103e-07 -1.76193e-07 0)
(-2.72054e-07 -1.58016e-07 0)
(-2.09149e-07 -1.3958e-07 0)
(-1.54505e-07 -1.23152e-07 0)
(-1.06999e-07 -1.10767e-07 0)
(-6.35917e-08 -1.03777e-07 0)
(-2.12022e-08 -1.01294e-07 0)
(3.07016e-06 -0.000110174 0)
(9.25057e-06 -0.000110267 0)
(1.54299e-05 -0.000109441 0)
(2.15547e-05 -0.000108198 0)
(2.76063e-05 -0.000106546 0)
(3.35041e-05 -0.0001045 0)
(3.92179e-05 -0.000102076 0)
(4.47121e-05 -9.93108e-05 0)
(4.99168e-05 -9.62364e-05 0)
(5.48487e-05 -9.28904e-05 0)
(5.94592e-05 -8.93288e-05 0)
(6.37395e-05 -8.55856e-05 0)
(6.76543e-05 -8.17193e-05 0)
(7.11868e-05 -7.77834e-05 0)
(7.43276e-05 -7.38438e-05 0)
(7.70468e-05 -6.99593e-05 0)
(7.93805e-05 -6.61867e-05 0)
(8.13467e-05 -6.25825e-05 0)
(8.2977e-05 -5.91921e-05 0)
(8.43203e-05 -5.60575e-05 0)
(8.54261e-05 -5.32106e-05 0)
(8.63503e-05 -5.06732e-05 0)
(8.71582e-05 -4.84572e-05 0)
(8.78931e-05 -4.65622e-05 0)
(8.86102e-05 -4.49794e-05 0)
(8.93744e-05 -4.3683e-05 0)
(9.0219e-05 -4.26493e-05 0)
(9.11762e-05 -4.18415e-05 0)
(9.2278e-05 -4.12217e-05 0)
(9.35408e-05 -4.07555e-05 0)
(9.49518e-05 -4.04059e-05 0)
(9.64992e-05 -4.01236e-05 0)
(9.82155e-05 -3.98488e-05 0)
(0.000100131 -3.95295e-05 0)
(0.000102232 -3.91231e-05 0)
(0.000104495 -3.85911e-05 0)
(0.000106892 -3.79017e-05 0)
(0.000109391 -3.70321e-05 0)
(0.00011195 -3.59579e-05 0)
(0.000114536 -3.46711e-05 0)
(0.000117112 -3.3161e-05 0)
(0.000119639 -3.14217e-05 0)
(0.000122084 -2.94582e-05 0)
(0.000124415 -2.72773e-05 0)
(0.000126586 -2.48864e-05 0)
(0.000128574 -2.22947e-05 0)
(0.000130336 -1.95314e-05 0)
(0.000131867 -1.66064e-05 0)
(0.000133157 -1.35424e-05 0)
(0.000134128 -1.03763e-05 0)
(0.000134794 -7.12426e-06 0)
(0.000135191 -3.80889e-06 0)
(0.000135277 -4.6331e-07 0)
(0.000135044 2.89994e-06 0)
(0.00013451 6.25514e-06 0)
(0.000133666 9.57452e-06 0)
(0.00013251 1.28321e-05 0)
(0.000131044 1.60036e-05 0)
(0.000129277 1.90666e-05 0)
(0.00012722 2.19975e-05 0)
(0.000124888 2.47845e-05 0)
(0.000122283 2.74084e-05 0)
(0.00011945 2.98558e-05 0)
(0.000116413 3.21188e-05 0)
(0.00011316 3.41753e-05 0)
(0.000109719 3.60378e-05 0)
(0.00010612 3.76871e-05 0)
(0.000102367 3.91278e-05 0)
(9.851e-05 4.03604e-05 0)
(9.4566e-05 4.13821e-05 0)
(9.05372e-05 4.21988e-05 0)
(8.64509e-05 4.28123e-05 0)
(8.22972e-05 4.32282e-05 0)
(7.81356e-05 4.34564e-05 0)
(7.39823e-05 4.35032e-05 0)
(6.98291e-05 4.33811e-05 0)
(6.57037e-05 4.30997e-05 0)
(6.1619e-05 4.26628e-05 0)
(5.75827e-05 4.20948e-05 0)
(5.36161e-05 4.13988e-05 0)
(4.973e-05 4.05902e-05 0)
(4.59213e-05 3.96723e-05 0)
(4.2204e-05 3.86664e-05 0)
(3.85885e-05 3.75756e-05 0)
(3.50797e-05 3.64177e-05 0)
(3.16879e-05 3.51954e-05 0)
(2.83978e-05 3.39268e-05 0)
(2.52361e-05 3.26115e-05 0)
(2.22114e-05 3.12746e-05 0)
(1.92863e-05 2.99102e-05 0)
(1.65031e-05 2.85339e-05 0)
(1.38503e-05 2.71454e-05 0)
(1.13161e-05 2.57625e-05 0)
(8.91635e-06 2.43813e-05 0)
(6.63774e-06 2.30154e-05 0)
(4.4778e-06 2.1664e-05 0)
(2.45334e-06 2.03352e-05 0)
(5.64003e-07 1.90339e-05 0)
(-1.21237e-06 1.77614e-05 0)
(-2.87287e-06 1.65213e-05 0)
(-4.42013e-06 1.53155e-05 0)
(-5.85385e-06 1.41467e-05 0)
(-7.17551e-06 1.30171e-05 0)
(-8.3896e-06 1.19293e-05 0)
(-9.49949e-06 1.08833e-05 0)
(-1.05086e-05 9.88217e-06 0)
(-1.14201e-05 8.92592e-06 0)
(-1.22375e-05 8.01545e-06 0)
(-1.29645e-05 7.15101e-06 0)
(-1.36052e-05 6.33093e-06 0)
(-1.41642e-05 5.55593e-06 0)
(-1.46452e-05 4.82612e-06 0)
(-1.50518e-05 4.14089e-06 0)
(-1.53858e-05 3.49887e-06 0)
(-1.56526e-05 2.89895e-06 0)
(-1.58574e-05 2.33987e-06 0)
(-1.60018e-05 1.82075e-06 0)
(-1.60909e-05 1.34044e-06 0)
(-1.61273e-05 8.97366e-07 0)
(-1.61133e-05 4.8954e-07 0)
(-1.60558e-05 1.16519e-07 0)
(-1.5957e-05 -2.24181e-07 0)
(-1.58175e-05 -5.32757e-07 0)
(-1.56419e-05 -8.10834e-07 0)
(-1.54333e-05 -1.05986e-06 0)
(-1.51946e-05 -1.28121e-06 0)
(-1.49289e-05 -1.47631e-06 0)
(-1.46388e-05 -1.64646e-06 0)
(-1.43272e-05 -1.79295e-06 0)
(-1.39967e-05 -1.91707e-06 0)
(-1.365e-05 -2.02008e-06 0)
(-1.32898e-05 -2.10329e-06 0)
(-1.29185e-05 -2.16805e-06 0)
(-1.25384e-05 -2.21576e-06 0)
(-1.21519e-05 -2.24785e-06 0)
(-1.17609e-05 -2.26577e-06 0)
(-1.13673e-05 -2.27095e-06 0)
(-1.09729e-05 -2.26475e-06 0)
(-1.05789e-05 -2.24845e-06 0)
(-1.01867e-05 -2.22322e-06 0)
(-9.7976e-06 -2.19011e-06 0)
(-9.41257e-06 -2.15006e-06 0)
(-9.0326e-06 -2.10391e-06 0)
(-8.65866e-06 -2.05243e-06 0)
(-8.29166e-06 -1.99632e-06 0)
(-7.93239e-06 -1.93624e-06 0)
(-7.58162e-06 -1.87282e-06 0)
(-7.2401e-06 -1.80673e-06 0)
(-6.90845e-06 -1.73864e-06 0)
(-6.58716e-06 -1.66927e-06 0)
(-6.27661e-06 -1.59936e-06 0)
(-5.9769e-06 -1.52962e-06 0)
(-5.68797e-06 -1.46064e-06 0)
(-5.40967e-06 -1.39285e-06 0)
(-5.14172e-06 -1.32644e-06 0)
(-4.88391e-06 -1.26144e-06 0)
(-4.63615e-06 -1.19773e-06 0)
(-4.3984e-06 -1.13519e-06 0)
(-4.17081e-06 -1.07376e-06 0)
(-3.95348e-06 -1.01351e-06 0)
(-3.74652e-06 -9.54598e-07 0)
(-3.54993e-06 -8.97264e-07 0)
(-3.36353e-06 -8.41712e-07 0)
(-3.1871e-06 -7.88097e-07 0)
(-3.0204e-06 -7.36501e-07 0)
(-2.86319e-06 -6.86956e-07 0)
(-2.7152e-06 -6.39502e-07 0)
(-2.57624e-06 -5.94199e-07 0)
(-2.44607e-06 -5.51148e-07 0)
(-2.32439e-06 -5.10492e-07 0)
(-2.21086e-06 -4.72446e-07 0)
(-2.10498e-06 -4.37255e-07 0)
(-2.00613e-06 -4.05101e-07 0)
(-1.91356e-06 -3.7604e-07 0)
(-1.82659e-06 -3.4995e-07 0)
(-1.74464e-06 -3.26655e-07 0)
(-1.66725e-06 -3.05966e-07 0)
(-1.59411e-06 -2.87932e-07 0)
(-1.52485e-06 -2.72885e-07 0)
(-1.45881e-06 -2.61532e-07 0)
(-1.39481e-06 -2.54615e-07 0)
(-1.33119e-06 -2.52655e-07 0)
(-1.26605e-06 -2.55628e-07 0)
(-1.1974e-06 -2.62806e-07 0)
(-1.12365e-06 -2.72754e-07 0)
(-1.04401e-06 -2.83469e-07 0)
(-9.58589e-07 -2.9293e-07 0)
(-8.68345e-07 -2.99217e-07 0)
(-7.74827e-07 -3.01222e-07 0)
(-6.80025e-07 -2.98055e-07 0)
(-5.85911e-07 -2.89758e-07 0)
(-4.94263e-07 -2.7624e-07 0)
(-4.0728e-07 -2.5766e-07 0)
(-3.27023e-07 -2.34844e-07 0)
(-2.55146e-07 -2.09083e-07 0)
(-1.93231e-07 -1.8273e-07 0)
(-1.41592e-07 -1.59455e-07 0)
(-9.85692e-08 -1.42626e-07 0)
(-5.9885e-08 -1.33842e-07 0)
(-2.04466e-08 -1.3208e-07 0)
(4.83831e-06 -0.000160399 0)
(1.45418e-05 -0.000160129 0)
(2.4205e-05 -0.000158363 0)
(3.36981e-05 -0.000155712 0)
(4.2906e-05 -0.000152187 0)
(5.1755e-05 -0.000147844 0)
(6.01174e-05 -0.000142714 0)
(6.78871e-05 -0.000136905 0)
(7.50338e-05 -0.000130482 0)
(8.14396e-05 -0.000123558 0)
(8.71328e-05 -0.000116259 0)
(9.21038e-05 -0.00010874 0)
(9.62475e-05 -0.000101128 0)
(9.95424e-05 -9.35833e-05 0)
(0.000101966 -8.62064e-05 0)
(0.000103576 -7.91549e-05 0)
(0.00010441 -7.25247e-05 0)
(0.000104553 -6.6437e-05 0)
(0.000104107 -6.09863e-05 0)
(0.000103171 -5.62373e-05 0)
(0.000101878 -5.22281e-05 0)
(0.000100359 -4.89724e-05 0)
(9.87512e-05 -4.64625e-05 0)
(9.71781e-05 -4.46738e-05 0)
(9.5786e-05 -4.35593e-05 0)
(9.46632e-05 -4.30629e-05 0)
(9.38719e-05 -4.31104e-05 0)
(9.3486e-05 -4.35854e-05 0)
(9.34938e-05 -4.44136e-05 0)
(9.38916e-05 -4.54709e-05 0)
(9.47409e-05 -4.66379e-05 0)
(9.61294e-05 -4.77803e-05 0)
(9.80598e-05 -4.88212e-05 0)
(0.000100454 -4.96604e-05 0)
(0.000103247 -5.02239e-05 0)
(0.000106377 -5.04566e-05 0)
(0.000109757 -5.03151e-05 0)
(0.00011333 -4.97686e-05 0)
(0.000117009 -4.87979e-05 0)
(0.000120723 -4.73959e-05 0)
(0.000124432 -4.55648e-05 0)
(0.000128052 -4.33252e-05 0)
(0.000131517 -4.06872e-05 0)
(0.000134791 -3.76779e-05 0)
(0.000137844 -3.43355e-05 0)
(0.000140579 -3.06977e-05 0)
(0.000142985 -2.67995e-05 0)
(0.00014506 -2.26552e-05 0)
(0.000146706 -1.8331e-05 0)
(0.000147934 -1.38615e-05 0)
(0.000148769 -9.27779e-06 0)
(0.000149176 -4.62743e-06 0)
(0.000149173 3.77984e-08 0)
(0.000148776 4.69686e-06 0)
(0.000147958 9.30001e-06 0)
(0.000146718 1.38181e-05 0)
(0.000145077 1.82084e-05 0)
(0.000143048 2.24393e-05 0)
(0.000140635 2.64838e-05 0)
(0.000137884 3.03177e-05 0)
(0.000134821 3.39214e-05 0)
(0.000131453 3.72763e-05 0)
(0.000127831 4.03638e-05 0)
(0.000123943 4.31724e-05 0)
(0.000119861 4.56964e-05 0)
(0.00011562 4.79307e-05 0)
(0.000111208 4.98688e-05 0)
(0.000106688 5.15259e-05 0)
(0.000102062 5.29013e-05 0)
(9.73664e-05 5.39881e-05 0)
(9.26248e-05 5.48035e-05 0)
(8.78541e-05 5.5352e-05 0)
(8.30886e-05 5.56493e-05 0)
(7.83459e-05 5.57114e-05 0)
(7.36433e-05 5.55497e-05 0)
(6.89967e-05 5.51784e-05 0)
(6.44066e-05 5.46071e-05 0)
(5.99184e-05 5.38628e-05 0)
(5.55383e-05 5.29545e-05 0)
(5.12562e-05 5.1904e-05 0)
(4.70812e-05 5.07178e-05 0)
(4.30329e-05 4.94122e-05 0)
(3.91256e-05 4.80055e-05 0)
(3.53436e-05 4.65115e-05 0)
(3.17036e-05 4.49437e-05 0)
(2.82149e-05 4.33177e-05 0)
(2.48558e-05 4.16332e-05 0)
(2.16587e-05 3.99292e-05 0)
(1.86142e-05 3.81871e-05 0)
(1.56988e-05 3.64342e-05 0)
(1.29323e-05 3.46755e-05 0)
(1.03165e-05 3.29127e-05 0)
(7.84585e-06 3.11641e-05 0)
(5.50405e-06 2.94282e-05 0)
(3.30907e-06 2.77189e-05 0)
(1.25317e-06 2.604e-05 0)
(-6.6754e-07 2.43972e-05 0)
(-2.46062e-06 2.27865e-05 0)
(-4.13135e-06 2.12153e-05 0)
(-5.67855e-06 1.96884e-05 0)
(-7.10675e-06 1.8209e-05 0)
(-8.41914e-06 1.67806e-05 0)
(-9.61966e-06 1.54044e-05 0)
(-1.07127e-05 1.40826e-05 0)
(-1.16999e-05 1.2815e-05 0)
(-1.25865e-05 1.16032e-05 0)
(-1.3377e-05 1.04488e-05 0)
(-1.40747e-05 9.35075e-06 0)
(-1.46875e-05 8.30877e-06 0)
(-1.52179e-05 7.32402e-06 0)
(-1.56665e-05 6.39595e-06 0)
(-1.60391e-05 5.52294e-06 0)
(-1.63416e-05 4.70432e-06 0)
(-1.6579e-05 3.9393e-06 0)
(-1.67536e-05 3.22508e-06 0)
(-1.68684e-05 2.56124e-06 0)
(-1.69275e-05 1.9458e-06 0)
(-1.6935e-05 1.37718e-06 0)
(-1.68955e-05 8.54226e-07 0)
(-1.68108e-05 3.74446e-07 0)
(-1.6685e-05 -6.59628e-08 0)
(-1.65216e-05 -4.65474e-07 0)
(-1.63216e-05 -8.2669e-07 0)
(-1.60893e-05 -1.15158e-06 0)
(-1.58275e-05 -1.4419e-06 0)
(-1.55393e-05 -1.69934e-06 0)
(-1.52273e-05 -1.92558e-06 0)
(-1.48941e-05 -2.12214e-06 0)
(-1.45423e-05 -2.2905e-06 0)
(-1.41746e-05 -2.43213e-06 0)
(-1.37935e-05 -2.54846e-06 0)
(-1.34017e-05 -2.64101e-06 0)
(-1.30016e-05 -2.71142e-06 0)
(-1.25957e-05 -2.76141e-06 0)
(-1.21861e-05 -2.79279e-06 0)
(-1.17747e-05 -2.8074e-06 0)
(-1.13634e-05 -2.80707e-06 0)
(-1.09535e-05 -2.79351e-06 0)
(-1.05462e-05 -2.7683e-06 0)
(-1.01426e-05 -2.73285e-06 0)
(-9.74378e-06 -2.68839e-06 0)
(-9.35046e-06 -2.636e-06 0)
(-8.96347e-06 -2.57662e-06 0)
(-8.58364e-06 -2.51111e-06 0)
(-8.2118e-06 -2.44024e-06 0)
(-7.84865e-06 -2.36473e-06 0)
(-7.49491e-06 -2.28532e-06 0)
(-7.15137e-06 -2.20272e-06 0)
(-6.81868e-06 -2.11775e-06 0)
(-6.49735e-06 -2.03135e-06 0)
(-6.18772e-06 -1.94451e-06 0)
(-5.88978e-06 -1.85823e-06 0)
(-5.60324e-06 -1.77332e-06 0)
(-5.32766e-06 -1.69035e-06 0)
(-5.06247e-06 -1.6095e-06 0)
(-4.80725e-06 -1.53062e-06 0)
(-4.56182e-06 -1.45336e-06 0)
(-4.32621e-06 -1.3774e-06 0)
(-4.10071e-06 -1.30261e-06 0)
(-3.88558e-06 -1.22909e-06 0)
(-3.68103e-06 -1.15713e-06 0)
(-3.48707e-06 -1.08711e-06 0)
(-3.30347e-06 -1.01936e-06 0)
(-3.12991e-06 -9.5409e-07 0)
(-2.96607e-06 -8.91304e-07 0)
(-2.81168e-06 -8.31046e-07 0)
(-2.66651e-06 -7.73342e-07 0)
(-2.53038e-06 -7.18188e-07 0)
(-2.4031e-06 -6.657e-07 0)
(-2.28444e-06 -6.16066e-07 0)
(-2.17412e-06 -5.69606e-07 0)
(-2.07163e-06 -5.26698e-07 0)
(-1.97622e-06 -4.87648e-07 0)
(-1.88698e-06 -4.52552e-07 0)
(-1.80308e-06 -4.2116e-07 0)
(-1.7239e-06 -3.93134e-07 0)
(-1.64913e-06 -3.67999e-07 0)
(-1.57871e-06 -3.45765e-07 0)
(-1.51264e-06 -3.26833e-07 0)
(-1.45045e-06 -3.12366e-07 0)
(-1.39087e-06 -3.03617e-07 0)
(-1.33187e-06 -3.01549e-07 0)
(-1.27091e-06 -3.06268e-07 0)
(-1.20538e-06 -3.16805e-07 0)
(-1.13312e-06 -3.31153e-07 0)
(-1.05313e-06 -3.46435e-07 0)
(-9.65634e-07 -3.59925e-07 0)
(-8.72071e-07 -3.68795e-07 0)
(-7.74497e-07 -3.71956e-07 0)
(-6.75426e-07 -3.6818e-07 0)
(-5.77169e-07 -3.57913e-07 0)
(-4.81471e-07 -3.40951e-07 0)
(-3.90881e-07 -3.17404e-07 0)
(-3.07854e-07 -2.8802e-07 0)
(-2.34686e-07 -2.5418e-07 0)
(-1.73971e-07 -2.19098e-07 0)
(-1.26393e-07 -1.88422e-07 0)
(-8.92469e-08 -1.67754e-07 0)
(-5.66058e-08 -1.57941e-07 0)
(-2.02428e-08 -1.58215e-07 0)
(8.24186e-06 -0.000233171 0)
(2.46878e-05 -0.00023204 0)
(4.09634e-05 -0.000228441 0)
(5.68735e-05 -0.000223041 0)
(7.21e-05 -0.000215885 0)
(8.64691e-05 -0.000207072 0)
(9.96948e-05 -0.000196762 0)
(0.000111579 -0.000185149 0)
(0.000122059 -0.000172422 0)
(0.00013086 -0.000158758 0)
(0.000137779 -0.000144502 0)
(0.000142846 -0.000130025 0)
(0.000146046 -0.000115637 0)
(0.00014754 -0.000101683 0)