/*--------------------------------*- C++ -*----------------------------------*\
  =========                 |
  \\      /  F ield         | OpenFOAM: The Open Source CFD Toolbox
   \\    /   O peration     | Website:  https://openfoam.org
    \\  /    A nd           | Version:  12
     \\/     M anipulation  |
\*---------------------------------------------------------------------------*/
FoamFile
{
    format      ascii;
    class       volVectorField;
    location    "19.58";
    object      zeta;
}
// * * * * * * * * * * * * * * * * * * * * * * * * * * * * * * * * * * * * * //

dimensions      [0 1 0 0 0 0 0];

internalField   uniform (0 0 0);

boundaryField
{
    freeSurface
    {
        type            calculated;
        value           nonuniform List<vector> 
181
(
(0 -0.00535428 0)
(0 -0.00535367 0)
(0 -0.00535297 0)
(0 -0.00535236 0)
(0 -0.00535141 0)
(0 -0.00535109 0)
(0 -0.00535022 0)
(0 -0.00534998 0)
(0 -7.7495e-05 0)
(0 -8.76953e-05 0)
(0 -0.000108138 0)
(0 -0.000133276 0)
(0 -0.000169674 0)
(0 -0.00021394 0)
(0 -0.000265284 0)
(0 -0.000323101 0)
(0 -0.000385685 0)
(0 -0.000453152 0)
(0 -0.000524084 0)
(0 -0.000598135 0)
(0 -0.000673721 0)
(0 -0.00074982 0)
(0 -0.000825053 0)
(0 -0.000898428 0)
(0 -0.000968987 0)
(0 -0.00103598 0)
(0 -0.00109863 0)
(0 -0.00115596 0)
(0 -0.00120694 0)
(0 -0.00125069 0)
(0 -0.00128645 0)
(0 -0.0013136 0)
(0 -0.0013317 0)
(0 -0.00134013 0)
(0 -0.00133839 0)
(0 -0.00132601 0)
(0 -0.00130261 0)
(0 -0.00126797 0)
(0 -0.00122193 0)
(0 -0.00116465 0)
(0 -0.00109623 0)
(0 -0.00101694 0)
(0 -0.000927257 0)
(0 -0.000827855 0)
(0 -0.000719478 0)
(0 -0.000603146 0)
(0 -0.000480061 0)
(0 -0.000351439 0)
(0 -0.000218709 0)
(0 -8.34057e-05 0)
(0 5.28048e-05 0)
(0 0.000188254 0)
(0 0.000321108 0)
(0 0.000449486 0)
(0 0.00057154 0)
(0 0.000685345 0)
(0 0.000788964 0)
(0 0.000880515 0)
(0 0.000958272 0)
(0 0.00102067 0)
(0 0.00106607 0)
(0 0.00109326 0)
(0 0.00110136 0)
(0 0.00108969 0)
(0 0.00105795 0)
(0 0.00100628 0)
(0 0.000935142 0)
(0 0.000845487 0)
(0 0.000738429 0)
(0 0.000615813 0)
(0 0.000479491 0)
(0 0.000332243 0)
(0 0.000176764 0)
(0 1.65355e-05 0)
(0 -0.000145064 0)
(0 -0.000304386 0)
(0 -0.000457474 0)
(0 -0.000600357 0)
(0 -0.00072926 0)
(0 -0.000840486 0)
(0 -0.000930775 0)
(0 -0.000997084 0)
(0 -0.00103705 0)
(0 -0.00104891 0)
(0 -0.00103133 0)
(0 -0.000984266 0)
(0 -0.000908235 0)
(0 -0.000804762 0)
(0 -0.000676441 0)
(0 -0.000526866 0)
(0 -0.000360278 0)
(0 -0.000182037 0)
(0 2.09233e-06 0)
(0 0.000185965 0)
(0 0.000363121 0)
(0 0.000526632 0)
(0 0.000670161 0)
(0 0.000787527 0)
(0 0.000873428 0)
(0 0.000923666 0)
(0 0.000935275 0)
(0 0.000906708 0)
(0 0.000838374 0)
(0 0.000732245 0)
(0 0.000592309 0)
(0 0.000424263 0)
(0 0.000235236 0)
(0 3.44004e-05 0)
(0 -0.000168489 0)
(0 -0.000363737 0)
(0 -0.000540858 0)
(0 -0.000689787 0)
(0 -0.000801622 0)
(0 -0.000869284 0)
(0 -0.00088771 0)
(0 -0.000854528 0)
(0 -0.000770547 0)
(0 -0.00063986 0)
(0 -0.000469345 0)
(0 -0.000269347 0)
(0 -5.21686e-05 0)
(0 0.000167547 0)
(0 0.000375921 0)
(0 0.000557771 0)
(0 0.000699135 0)
(0 0.000788676 0)
(0 0.000818316 0)
(0 0.000784354 0)
(0 0.000688187 0)
(0 0.000536467 0)
(0 0.000340479 0)
(0 0.000115943 0)
(0 -0.000117266 0)
(0 -0.000340457 0)
(0 -0.000533371 0)
(0 -0.000677259 0)
(0 -0.000757541 0)
(0 -0.000765253 0)
(0 -0.000697894 0)
(0 -0.000561157 0)
(0 -0.000368019 0)
(0 -0.000138647 0)
(0 0.00010112 0)
(0 0.000325764 0)
(0 0.00050936 0)
(0 0.000628363 0)
(0 0.000666655 0)
(0 0.000618416 0)
(0 0.000488954 0)
(0 0.000294614 0)
(0 6.17858e-05 0)
(0 -0.000175847 0)
(0 -0.00038495 0)
(0 -0.000535015 0)
(0 -0.000600634 0)
(0 -0.000570357 0)
(0 -0.000448585 0)
(0 -0.000255092 0)
(0 -2.22747e-05 0)
(0 0.000208723 0)
(0 0.000397379 0)
(0 0.00051084 0)
(0 0.000524121 0)
(0 0.000433286 0)
(0 0.000255705 0)
(0 2.6262e-05 0)
(0 -0.000208169 0)
(0 -0.000396292 0)
(0 -0.000501255 0)
(0 -0.000495533 0)
(0 -0.0003786 0)
(0 -0.000176921 0)
(0 6.26959e-05 0)
(0 0.000282216 0)
(0 0.000424014 0)
(0 0.000453529 0)
(0 0.000357594 0)
(0 0.000160941 0)
(0 -8.34375e-05 0)
(0 -0.000305856 0)
(0 -0.000439289 0)
)
;
    }
    walls
    {
        type            calculated;
        value           uniform (0 0 0);
    }
    floatingObject
    {
        type            calculated;
        value           uniform (0 0 0);
    }
    frontAndBack
    {
        type            empty;
    }
}


// ************************************************************************* //
