/*--------------------------------*- C++ -*----------------------------------*\
  =========                 |
  \\      /  F ield         | OpenFOAM: The Open Source CFD Toolbox
   \\    /   O peration     | Website:  https://openfoam.org
    \\  /    A nd           | Version:  12
     \\/     M anipulation  |
\*---------------------------------------------------------------------------*/
FoamFile
{
    format      ascii;
    class       volScalarField;
    location    "6";
    object      p_rgh;
}
// * * * * * * * * * * * * * * * * * * * * * * * * * * * * * * * * * * * * * //

dimensions      [1 -1 -2 0 0 0 0];

internalField   nonuniform List<scalar> 
3829
(
-2.6062
-2.60532
-2.60353
-2.60078
-2.59703
-2.59224
-2.58634
-2.57929
-2.57102
-2.56147
-2.55058
-2.53827
-2.52447
-2.50909
-2.49206
-2.47331
-2.45274
-2.4303
-2.40592
-2.37953
-2.35109
-2.32056
-2.28791
-2.25314
-2.21624
-2.17725
-2.1362
-2.09316
-2.04821
-2.00143
-1.95296
-1.90293
-1.85147
-1.79877
-1.74498
-1.69031
-1.63494
-1.57909
-1.52298
-1.46684
-1.4109
-1.35538
-1.30053
-1.24656
-1.19369
-1.14251
-1.09308
-1.04558
-1.00017
-0.956994
-0.916193
-0.87787
-0.842113
-0.808985
-0.778533
-0.750775
-0.725718
-0.703339
-0.683599
-0.666425
-0.651717
-0.639346
-0.62915
-0.620944
-0.614512
-0.609617
-0.606002
-0.603394
-0.601505
-0.600037
-0.598687
-0.597149
-0.595142
-0.592339
-0.588479
-0.583305
-0.576586
-0.568116
-0.557724
-0.545278
-0.530688
-0.513915
-0.494864
-0.473731
-0.450673
-0.425859
-0.399508
-0.371892
-0.343324
-0.314162
-0.284798
-0.255657
-0.227165
-0.199752
-0.173847
-0.149861
-0.128162
-0.109083
-0.0928828
-0.0797474
-0.069789
-0.0639859
-0.0615065
-0.0621725
-0.0657866
-0.0720784
-0.0806796
-0.0911429
-0.102953
-0.115545
-0.128325
-0.140683
-0.15204
-0.161841
-0.1696
-0.174918
-0.177506
-0.177205
-0.173328
-0.166499
-0.156958
-0.145017
-0.131111
-0.115789
-0.0996751
-0.0834806
-0.0678876
-0.0535854
-0.041212
-0.0313096
-0.0243019
-0.0204552
-0.0204229
-0.0237324
-0.0301634
-0.0393975
-0.0509646
-0.0642617
-0.0786813
-0.0933031
-0.107461
-0.120424
-0.131519
-0.140166
-0.145918
-0.148478
-0.147708
-0.143581
-0.136331
-0.126276
-0.113872
-0.0996828
-0.0843456
-0.0685425
-0.052961
-0.0382664
-0.0250718
-0.0139105
-0.00521763
0.000688514
0.00361647
0.00349581
0.000392678
-0.00551533
-0.0139441
-0.0245201
-0.0368001
-0.0503052
-0.0645358
-0.0789204
-0.0929962
-0.106297
-0.118414
-0.129005
-0.137804
-0.144629
-0.149381
-0.152045
-0.152683
-0.151428
-0.148475
-0.144072
-0.13848
-0.132004
-0.124951
-0.117602
-0.110237
-0.103103
-0.0964065
-0.0903085
-0.0849213
-0.0803072
-0.0764863
-0.0734292
-0.0710752
-0.0693393
-0.068121
-0.0673189
-0.0668414
-0.0666201
-2.6876
-2.68693
-2.68555
-2.68344
-2.68053
-2.67676
-2.67204
-2.6663
-2.65943
-2.65131
-2.64181
-2.63083
-2.61825
-2.60395
-2.58778
-2.5696
-2.54928
-2.52667
-2.50165
-2.47411
-2.44394
-2.41109
-2.3755
-2.33715
-2.29605
-2.25224
-2.20579
-2.1568
-2.1054
-2.05174
-1.99599
-1.93833
-1.87895
-1.81809
-1.756
-1.69296
-1.62926
-1.56519
-1.50105
-1.43714
-1.37375
-1.31115
-1.24964
-1.18945
-1.1308
-1.07489
-1.02152
-0.970803
-0.92288
-0.877888
-0.835946
-0.797157
-0.761599
-0.729332
-0.700388
-0.674777
-0.652485
-0.633462
-0.617627
-0.604858
-0.594999
-0.587858
-0.583209
-0.580796
-0.580334
-0.58151
-0.583991
-0.587426
-0.59145
-0.595693
-0.599769
-0.603299
-0.60592
-0.607284
-0.607059
-0.604941
-0.600669
-0.594026
-0.584855
-0.573074
-0.558681
-0.540283
-0.519324
-0.495821
-0.469879
-0.441697
-0.411566
-0.379839
-0.34692
-0.313271
-0.279389
-0.245806
-0.213065
-0.181708
-0.15227
-0.125267
-0.10116
-0.0803609
-0.0632195
-0.050008
-0.0408863
-0.0357875
-0.0348037
-0.0377353
-0.0443068
-0.0541174
-0.0666644
-0.0813596
-0.0975404
-0.114491
-0.131469
-0.147713
-0.162504
-0.175165
-0.185095
-0.191807
-0.194938
-0.194255
-0.189743
-0.181506
-0.169828
-0.155146
-0.138067
-0.119311
-0.0996691
-0.0800387
-0.0612612
-0.0441813
-0.029566
-0.0180693
-0.0102011
-0.00630326
-0.00662391
-0.0109597
-0.0190603
-0.0304798
-0.0446005
-0.0606683
-0.0778924
-0.095251
-0.111923
-0.127056
-0.139883
-0.149763
-0.15621
-0.158913
-0.15775
-0.152819
-0.144345
-0.132747
-0.118583
-0.102515
-0.0852818
-0.0676548
-0.0504042
-0.034257
-0.0198782
-0.00783354
0.00142154
0.00757212
0.0104332
0.00997458
0.00629
-0.000392165
-0.00973637
-0.0213219
-0.0346542
-0.0492078
-0.0644243
-0.079721
-0.0945935
-0.108554
-0.12118
-0.132124
-0.141123
-0.148
-0.152672
-0.155138
-0.155483
-0.153862
-0.150493
-0.145646
-0.139607
-0.132698
-0.125242
-0.117537
-0.109873
-0.102503
-0.0956357
-0.089432
-0.0840008
-0.0793982
-0.0756294
-0.0726595
-0.0704147
-0.0687966
-0.0676922
-0.0669879
-0.0665824
-0.0663996
-2.81409
-2.81409
-2.81408
-2.814
-2.81378
-2.81332
-2.81247
-2.81107
-2.8089
-2.80574
-2.80132
-2.79539
-2.7877
-2.77792
-2.76576
-2.7509
-2.73305
-2.71192
-2.68726
-2.65884
-2.62646
-2.58999
-2.54934
-2.50445
-2.45535
-2.40212
-2.34488
-2.28385
-2.21926
-2.1514
-2.08061
-2.00728
-1.93181
-1.8546
-1.77606
-1.69663
-1.61678
-1.53693
-1.45755
-1.37905
-1.30186
-1.22638
-1.15298
-1.08203
-1.01395
-0.949977
-0.889494
-0.832788
-0.780113
-0.73167
-0.687615
-0.648062
-0.613089
-0.582739
-0.557015
-0.535884
-0.51927
-0.507036
-0.498999
-0.494921
-0.494531
-0.497518
-0.503528
-0.512172
-0.52303
-0.535653
-0.549568
-0.564284
-0.579286
-0.594063
-0.608095
-0.620879
-0.631919
-0.640744
-0.646913
-0.650025
-0.649716
-0.645686
-0.637688
-0.625532
-0.609081
-0.589434
-0.565652
-0.537926
-0.506555
-0.471935
-0.43454
-0.394916
-0.353663
-0.311444
-0.268963
-0.226961
-0.186198
-0.147422
-0.111359
-0.0786974
-0.0500692
-0.0260315
-0.00700515
0.00668955
0.0148356
0.0177194
0.0151892
0.00746967
-0.00502292
-0.0216944
-0.0418204
-0.0645678
-0.089008
-0.11415
-0.138968
-0.162432
-0.183572
-0.201483
-0.215378
-0.224629
-0.228782
-0.227587
-0.221297
-0.209926
-0.193871
-0.173817
-0.150638
-0.12535
-0.0990443
-0.0729934
-0.0483049
-0.0261163
-0.00743543
0.00691167
0.0162929
0.0203227
0.0190428
0.0125068
0.00109461
-0.0145076
-0.0334155
-0.0546064
-0.0770322
-0.0993499
-0.120533
-0.139514
-0.155367
-0.167339
-0.174899
-0.177742
-0.175776
-0.169231
-0.158448
-0.14401
-0.12665
-0.107209
-0.086598
-0.0657528
-0.045601
-0.02694
-0.010536
0.00298612
0.0131517
0.019647
0.0223281
0.0212104
0.0164575
0.00838319
-0.0025893
-0.0159506
-0.0311203
-0.0474857
-0.0644043
-0.0812614
-0.097486
-0.112558
-0.126033
-0.137555
-0.146866
-0.153806
-0.158311
-0.160416
-0.160239
-0.157975
-0.153882
-0.148269
-0.141459
-0.13381
-0.12567
-0.117363
-0.109195
-0.10143
-0.0942811
-0.0879079
-0.0824112
-0.0778355
-0.074169
-0.0713579
-0.0693077
-0.0678972
-0.0669923
-0.0664591
-0.0661794
-0.0660637
-2.93423
-2.93594
-2.93936
-2.94443
-2.95104
-2.95899
-2.96802
-2.97778
-2.98784
-2.99765
-3.00656
-3.01389
-3.019
-3.02133
-3.02023
-3.01509
-3.00527
-2.99017
-2.96925
-2.94204
-2.90813
-2.86725
-2.81923
-2.76403
-2.70175
-2.63265
-2.5571
-2.47559
-2.38873
-2.29719
-2.2016
-2.10257
-2.00082
-1.89715
-1.79233
-1.68709
-1.58216
-1.47823
-1.37596
-1.27599
-1.17892
-1.08529
-0.99566
-0.910512
-0.830239
-0.753174
-0.68306
-0.619385
-0.562033
-0.510998
-0.466313
-0.428018
-0.396133
-0.370636
-0.351469
-0.338515
-0.331597
-0.330448
-0.334754
-0.344151
-0.358218
-0.376469
-0.398383
-0.423388
-0.450878
-0.480211
-0.510717
-0.541703
-0.572428
-0.602234
-0.630397
-0.656223
-0.67904
-0.698229
-0.713214
-0.723468
-0.728548
-0.728084
-0.721818
-0.70959
-0.691215
-0.667228
-0.63752
-0.60233
-0.562096
-0.51737
-0.46883
-0.417261
-0.363524
-0.308561
-0.253376
-0.199009
-0.146519
-0.0969439
-0.0512991
-0.0105316
0.0245358
0.0531775
0.0748045
0.0890048
0.095557
0.0948008
0.0866779
0.0715609
0.0501082
0.0231844
-0.00816764
-0.0427567
-0.0792693
-0.116311
-0.152444
-0.18627
-0.216438
-0.241733
-0.261117
-0.273773
-0.279156
-0.277011
-0.267656
-0.251239
-0.228441
-0.200286
-0.168036
-0.133137
-0.0971277
-0.0617932
-0.0286596
0.00075884
0.0251333
0.0433869
0.0547319
0.0587083
0.0556544
0.0455846
0.0291597
0.0073957
-0.0184562
-0.0469836
-0.0767329
-0.105988
-0.133388
-0.157589
-0.177455
-0.192111
-0.200965
-0.203747
-0.200484
-0.191497
-0.177372
-0.158915
-0.137104
-0.113024
-0.0878148
-0.0626112
-0.0386775
-0.0166854
0.00233539
0.017718
0.0289723
0.0358042
0.0381198
0.0360182
0.0297606
0.0197697
0.00658589
-0.00915574
-0.0267626
-0.0455089
-0.064661
-0.0835373
-0.101497
-0.117977
-0.132514
-0.144741
-0.15441
-0.161383
-0.16563
-0.167227
-0.166342
-0.163219
-0.158169
-0.15155
-0.143736
-0.135129
-0.126109
-0.117032
-0.108225
-0.0999648
-0.0924695
-0.0858946
-0.0803312
-0.0758062
-0.0722885
-0.0696975
-0.0679109
-0.0667793
-0.0661406
-0.065835
-0.0657221
-0.0656949
-3.00332
-3.0084
-3.01863
-3.03395
-3.05415
-3.07894
-3.10791
-3.14049
-3.17569
-3.21241
-3.24947
-3.28551
-3.31895
-3.34817
-3.37163
-3.38792
-3.39576
-3.39404
-3.38182
-3.35836
-3.32314
-3.27578
-3.21613
-3.14429
-3.06061
-2.96575
-2.86066
-2.74649
-2.62449
-2.49575
-2.3615
-2.22317
-2.08215
-1.93975
-1.79717
-1.65556
-1.51596
-1.37933
-1.24655
-1.11841
-0.995626
-0.878921
-0.7689
-0.666048
-0.571073
-0.483777
-0.405104
-0.334874
-0.273289
-0.22049
-0.176558
-0.141511
-0.115305
-0.0978225
-0.0888828
-0.0882023
-0.0954001
-0.110044
-0.131641
-0.159625
-0.193384
-0.232226
-0.275406
-0.322126
-0.371533
-0.422744
-0.474838
-0.526843
-0.577857
-0.626888
-0.672998
-0.715265
-0.752798
-0.784783
-0.810471
-0.829209
-0.840437
-0.843721
-0.838774
-0.825488
-0.8033
-0.773052
-0.734855
-0.689149
-0.636578
-0.577936
-0.514188
-0.446445
-0.375918
-0.303925
-0.231856
-0.161154
-0.0932739
-0.0296237
0.0284438
0.0796664
0.122925
0.157255
0.181915
0.196376
0.200382
0.194373
0.17843
0.153188
0.119613
0.078934
0.0326243
-0.0176463
-0.0700504
-0.122678
-0.173545
-0.220741
-0.26248
-0.297122
-0.323309
-0.34001
-0.34653
-0.342571
-0.328618
-0.305066
-0.272992
-0.233872
-0.189494
-0.141873
-0.0930896
-0.0456949
-0.00169062
0.0369047
0.0683523
0.0912862
0.104783
0.108399
0.10253
0.0874478
0.0642146
0.0342728
-0.000649931
-0.0386196
-0.0776943
-0.11565
-0.150729
-0.181256
-0.205866
-0.223552
-0.233684
-0.236046
-0.230842
-0.218574
-0.200102
-0.17653
-0.149143
-0.119337
-0.0885448
-0.0581707
-0.0295342
-0.00371817
0.0182861
0.0357352
0.048122
0.0551871
0.0569014
0.0534913
0.0453236
0.0329601
0.017087
-0.00151291
-0.0220137
-0.0435688
-0.0653326
-0.0865406
-0.106484
-0.124557
-0.14027
-0.153256
-0.163278
-0.170229
-0.17412
-0.17508
-0.173331
-0.16918
-0.162997
-0.155199
-0.146215
-0.1365
-0.126469
-0.116514
-0.106986
-0.0981742
-0.0903004
-0.0835156
-0.0778974
-0.0734532
-0.0701269
-0.0678077
-0.0663414
-0.0655453
-0.0652243
-0.0651893
-0.065274
-0.0653519
-2.85223
-2.86431
-2.88864
-2.92506
-2.97312
-3.03184
-3.09993
-3.17561
-3.25717
-3.34238
-3.42895
-3.51441
-3.59638
-3.67246
-3.74037
-3.79796
-3.84323
-3.87425
-3.88916
-3.88612
-3.86334
-3.81926
-3.75289
-3.66407
-3.55352
-3.42269
-3.27366
-3.10895
-2.93141
-2.74433
-2.55102
-2.35422
-2.15629
-1.95927
-1.76493
-1.57483
-1.39033
-1.21257
-1.04258
-0.881223
-0.729215
-0.587109
-0.45526
-0.334019
-0.223306
-0.122801
-0.0390086
0.0335769
0.0950219
0.145169
0.18389
0.21115
0.227053
0.231817
0.225782
0.209375
0.183122
0.147634
0.1036
0.0517883
-0.00695688
-0.0716975
-0.141429
-0.215065
-0.291483
-0.369512
-0.447798
-0.525379
-0.600847
-0.672937
-0.740433
-0.802141
-0.856913
-0.903711
-0.941588
-0.9697
-0.987354
-0.994012
-0.989277
-0.972859
-0.945494
-0.906854
-0.857442
-0.797999
-0.729467
-0.652972
-0.569856
-0.481646
-0.389992
-0.296683
-0.203592
-0.112639
-0.0257646
0.0551496
0.128308
0.192057
0.244958
0.285815
0.313727
0.328091
0.328412
0.315322
0.289189
0.250977
0.20202
0.14402
0.0789911
0.00920661
-0.0628647
-0.134698
-0.203565
-0.266986
-0.322601
-0.368312
-0.40236
-0.423456
-0.4308
-0.423979
-0.403711
-0.370812
-0.326818
-0.273773
-0.214156
-0.150727
-0.0861394
-0.0240265
0.0330941
0.0825872
0.122255
0.150428
0.166036
0.1687
0.158823
0.137172
0.105278
0.06514
0.019092
-0.0303051
-0.0805299
-0.128737
-0.172708
-0.210424
-0.240273
-0.261116
-0.272329
-0.273808
-0.265933
-0.249512
-0.225724
-0.196028
-0.162077
-0.125622
-0.0884254
-0.0521824
-0.0183823
0.0116639
0.0368755
0.0564632
0.0699258
0.0770585
0.0779325
0.0728755
0.0624282
0.0473055
0.0283597
0.00652957
-0.0172062
-0.0418655
-0.0664947
-0.0902333
-0.112307
-0.132066
-0.149
-0.162744
-0.173081
-0.179938
-0.183379
-0.183587
-0.180851
-0.175542
-0.1681
-0.159003
-0.148737
-0.137817
-0.126696
-0.115801
-0.105508
-0.0961197
-0.0878598
-0.0808725
-0.07522
-0.0708878
-0.0677912
-0.0657872
-0.0646861
-0.0642687
-0.0643044
-0.0645718
-0.0648766
-0.0650714
-2.50516
-2.53154
-2.58463
-2.66444
-2.77055
-2.90178
-3.05665
-3.23199
-3.42427
-3.62806
-3.83844
-4.04723
-4.24833
-4.43472
-4.59985
-4.73807
-4.84469
-4.91599
-4.94936
-4.94335
-4.89759
-4.81274
-4.69016
-4.53159
-4.33941
-4.1165
-3.86709
-3.59801
-3.31737
-3.03265
-2.74769
-2.4656
-2.18917
-1.92069
-1.6619
-1.41417
-1.17856
-0.955912
-0.746848
-0.551909
-0.3716
-0.20623
-0.0562056
0.0780822
0.19616
0.297385
0.389599
0.466397
0.52761
0.573409
0.604094
0.620026
0.621621
0.609379
0.583864
0.545712
0.495637
0.43445
0.363066
0.282491
0.193814
0.0982593
-0.00288024
-0.108201
-0.216226
-0.325382
-0.434318
-0.541415
-0.645018
-0.743509
-0.83535
-0.919036
-0.993119
-1.05631
-1.10745
-1.14546
-1.16957
-1.17912
-1.17372
-1.15321
-1.11789
-1.06801
-1.00427
-0.927667
-0.839453
-0.741146
-0.634535
-0.521639
-0.404631
-0.285859
-0.167783
-0.0529011
0.0562692
0.157322
0.247962
0.32609
0.389897
0.43789
0.469012
0.482677
0.477948
0.455913
0.417231
0.363206
0.295639
0.21681
0.129395
0.0363874
-0.0589857
-0.153322
-0.243264
-0.32553
-0.397095
-0.4553
-0.497973
-0.52355
-0.531158
-0.520306
-0.491964
-0.447461
-0.388881
-0.318989
-0.241099
-0.158894
-0.0756246
0.00363342
0.0758845
0.137782
0.186592
0.220311
0.23775
0.238624
0.223474
0.193653
0.151261
0.0989784
0.0398973
-0.0226126
-0.0858446
-0.145476
-0.199288
-0.244804
-0.280159
-0.304105
-0.316058
-0.316071
-0.304798
-0.283376
-0.253378
-0.21667
-0.17532
-0.131468
-0.0872254
-0.0446628
-0.00535317
0.0291416
0.0576451
0.0793377
0.0937438
0.100736
0.100502
0.0935098
0.0804703
0.0622773
0.0399618
0.014633
-0.012571
-0.0405261
-0.0681694
-0.0945445
-0.118813
-0.140284
-0.158432
-0.172898
-0.18349
-0.190177
-0.193079
-0.192442
-0.188623
-0.182066
-0.173278
-0.162805
-0.151194
-0.139015
-0.126762
-0.114901
-0.103829
-0.0938625
-0.085225
-0.0780528
-0.0723906
-0.0681997
-0.0653658
-0.0637111
-0.0630089
-0.0630016
-0.0634214
-0.0640129
-0.0645534
-0.0648731
-1.51941
-1.5669
-1.66271
-1.80632
-1.99828
-2.23564
-2.51818
-2.83383
-3.17749
-3.52502
-3.90696
-4.23526
-4.54338
-4.82207
-5.06479
-5.26762
-5.42886
-5.54784
-5.62383
-5.65539
-5.64017
-5.57505
-5.45674
-5.28205
-5.05064
-4.76179
-4.4214
-4.03877
-3.6426
-3.24464
-2.85521
-2.4776
-2.11535
-1.77002
-1.44302
-1.13556
-0.848588
-0.582498
-0.33738
-0.113031
0.0907728
0.27445
0.438307
0.582532
0.707437
0.813377
0.902379
0.972974
1.02547
1.06002
1.07684
1.07631
1.05892
1.02521
0.975841
0.91159
0.833347
0.742118
0.639034
0.525339
0.402399
0.271719
0.134903
-0.00635546
-0.150335
-0.293416
-0.436885
-0.577034
-0.711928
-0.839615
-0.958218
-1.0659
-1.16089
-1.24163
-1.30669
-1.35483
-1.38507
-1.39671
-1.38937
-1.36289
-1.31752
-1.25386
-1.17285
-1.07579
-0.964342
-0.840469
-0.706476
-0.564967
-0.418728
-0.270739
-0.124105
0.0180157
0.152472
0.276242
0.386462
0.480523
0.556186
0.611616
0.645492
0.656929
0.64646
0.613851
0.560351
0.487785
0.398538
0.295587
0.182382
0.0627487
-0.0591968
-0.179132
-0.292848
-0.396223
-0.485499
-0.557382
-0.609224
-0.63913
-0.646079
-0.630091
-0.591968
-0.53363
-0.457886
-0.36836
-0.269303
-0.165373
-0.0614215
0.0373512
0.126527
0.202059
0.26066
0.299995
0.318782
0.316886
0.295185
0.255616
0.200976
0.134742
0.0608552
-0.016547
-0.0934909
-0.165795
-0.230195
-0.283893
-0.324817
-0.351653
-0.36391
-0.361854
-0.346456
-0.319255
-0.282262
-0.237803
-0.188396
-0.136585
-0.0847961
-0.0357314
0.00933293
0.048352
0.0801182
0.103802
0.118973
0.125599
0.124011
0.114825
0.0989414
0.0774436
0.0515502
0.022548
-0.00826323
-0.0396157
-0.0703369
-0.0993796
-0.125844
-0.149002
-0.168319
-0.183446
-0.194223
-0.200669
-0.202956
-0.201401
-0.196432
-0.188568
-0.178386
-0.166498
-0.153514
-0.140057
-0.126663
-0.113835
-0.101993
-0.0914622
-0.0824669
-0.0751327
-0.0694859
-0.0654622
-0.0629168
-0.0616363
-0.0613559
-0.0617793
-0.0625999
-0.0635287
-0.0643138
-0.064763
0.0643142
-0.0190377
-0.189135
-0.447981
-0.800061
-1.2446
-1.77865
-2.38074
-3.04438
-3.70343
-4.36689
-5.00045
-5.61617
-6.23455
-6.76728
-7.20951
-7.55418
-7.7976
-7.93585
-7.96715
-7.89231
-7.7145
-7.43947
-7.07284
-6.62194
-6.0913
-5.479
-4.77202
-4.09
-3.47703
-2.90495
-2.37823
-1.89681
-1.45909
-1.06199
-0.701815
-0.374974
-0.0785612
0.189692
0.431488
0.648245
0.840863
1.0101
1.15667
1.28108
1.38378
1.46588
1.52728
1.56772
1.58743
1.58678
1.56621
1.52627
1.46756
1.39083
1.29699
1.18709
1.06231
0.924019
0.773708
0.613035
0.443828
0.268025
0.0877551
-0.0947719
-0.277166
-0.457411
-0.633012
-0.801508
-0.960483
-1.10766
-1.24083
-1.35785
-1.45686
-1.53618
-1.59435
-1.63023
-1.64304
-1.63228
-1.59808
-1.54064
-1.46078
-1.35976
-1.23926
-1.10137
-0.948582
-0.783794
-0.610237
-0.431368
-0.250867
-0.0725697
0.0996357
0.261872
0.41046
0.54193
0.653134
0.741396
0.804536
0.840998
0.849934
0.831716
0.786543
0.715969
0.622312
0.508605
0.378595
0.236595
0.0873639
-0.0640058
-0.212161
-0.351927
-0.478283
-0.586672
-0.673128
-0.734477
-0.768506
-0.774023
-0.751573
-0.701929
-0.627658
-0.532377
-0.420689
-0.297957
-0.169986
-0.042981
0.0770415
0.184514
0.274574
0.343337
0.388142
0.407657
0.402006
0.372488
0.321683
0.253216
0.171475
0.0813472
-0.0121152
-0.103972
-0.18958
-0.264984
-0.327007
-0.373385
-0.402784
-0.414851
-0.410122
-0.389934
-0.356286
-0.311656
-0.258877
-0.200934
-0.140815
-0.0813575
-0.0253139
0.0254143
0.0688946
0.103805
0.129314
0.14505
0.151092
0.147925
0.13634
0.117425
0.0924637
0.0628659
0.0300978
-0.00437749
-0.0391491
-0.0729445
-0.104626
-0.133238
-0.158023
-0.178441
-0.194156
-0.205047
-0.211182
-0.212796
-0.210274
-0.204116
-0.194917
-0.183323
-0.170011
-0.155654
-0.140927
-0.126408
-0.112634
-0.100045
-0.0889753
-0.0796483
-0.0721773
-0.0665694
-0.062734
-0.0604956
-0.0596051
-0.0597598
-0.0606239
-0.0618533
-0.0631248
-0.064158
-0.0647384
2.53888
2.44087
2.2298
1.89662
1.40275
0.702719
-0.297102
-1.52468
-3.85592
-5.2396
-6.35815
-7.30847
-8.10188
-8.6535
-9.07281
-9.3982
-9.62571
-9.7682
-9.84303
-9.85998
-9.81171
-9.67349
-9.42046
-9.01129
-8.43043
-7.77072
-6.80883
-4.99282
-4.02407
-3.21602
-2.52
-1.91293
-1.38177
-0.908818
-0.485309
-0.105466
0.235671
0.541986
0.816649
1.06206
1.28008
1.47201
1.63882
1.78123
1.89962
1.99432
2.06565
2.11374
2.13868
2.14061
2.11978
2.07659
2.01155
1.92532
1.81872
1.69276
1.54863
1.38773
1.21161
1.02206
0.821009
0.610645
0.393266
0.171379
-0.0524267
-0.275437
-0.494919
-0.708046
-0.911927
-1.10374
-1.28077
-1.44039
-1.58013
-1.69778
-1.79139
-1.85928
-1.90017
-1.91316
-1.89782
-1.85416
-1.78271
-1.68449
-1.56107
-1.41454
-1.24749
-1.06297
-0.864519
-0.656047
-0.441751
-0.22609
-0.0136736
0.190834
0.382796
0.557826
0.711796
0.840994
0.942279
1.01313
1.05182
1.05746
1.03014
0.970725
0.881112
0.764167
0.623635
0.464103
0.290827
0.109563
-0.0735752
-0.252018
-0.419604
-0.57036
-0.698886
-0.800499
-0.871504
-0.909388
-0.912963
-0.882544
-0.819726
-0.727654
-0.610783
-0.474803
-0.326286
-0.172322
-0.0204495
0.122212
0.248984
0.354138
0.433187
0.48315
0.50268
0.49233
0.453808
0.390456
0.30682
0.2083
0.10081
-0.00961179
-0.117144
-0.216462
-0.303036
-0.373329
-0.424913
-0.456468
-0.467832
-0.459875
-0.434326
-0.393683
-0.340941
-0.279442
-0.212663
-0.144038
-0.0767709
-0.0138314
0.0425355
0.0903495
0.128231
0.155368
0.171462
0.17672
0.171792
0.157654
0.135586
0.107074
0.0737193
0.0371685
-0.000959127
-0.0391062
-0.0759171
-0.110164
-0.140842
-0.167168
-0.188603
-0.204831
-0.215766
-0.221536
-0.222433
-0.218913
-0.211552
-0.201014
-0.188017
-0.1733
-0.157596
-0.141626
-0.126016
-0.11133
-0.0980281
-0.0864528
-0.0768237
-0.0692411
-0.0636925
-0.0600611
-0.0581408
-0.057648
-0.058242
-0.0595488
-0.0611868
-0.0628
-0.0640799
-0.0647908
6.03945
5.86219
5.50573
4.93291
4.17528
3.28628
2.37169
1.1938
-1.86542
-3.01206
-4.41195
-5.76797
-6.97952
-8.03979
-8.9607
-9.74391
-10.3848
-10.8685
-11.1729
-11.279
-11.1822
-10.891
-10.4155
-9.75663
-8.90622
-7.85372
-6.60595
-4.75546
-3.57724
-2.59432
-1.80321
-1.16685
-0.618378
-0.147564
0.264383
0.628954
0.954976
1.24772
1.51068
1.7461
1.95522
2.1388
2.29729
2.43077
2.53931
2.62284
2.68129
2.71455
2.72248
2.70514
2.66267
2.59539
2.50379
2.38853
2.25052
2.09084
1.91084
1.71212
1.49647
1.26593
1.02276
0.769493
0.508808
0.243621
-0.0230306
-0.288033
-0.548149
-0.800074
-1.04046
-1.266
-1.47358
-1.66017
-1.82288
-1.95921
-2.06691
-2.14405
-2.18922
-2.20143
-2.18026
-2.12579
-2.03873
-1.92034
-1.77257
-1.59794
-1.39959
-1.18113
-0.946792
-0.701244
-0.449444
-0.196653
0.0516953
0.290111
0.513171
0.715737
0.893009
1.04068
1.15514
1.23352
1.27389
1.2753
1.23789
1.1629
1.05266
0.910672
0.74145
0.550489
0.34406
0.128965
-0.0877581
-0.297957
-0.494583
-0.670689
-0.81998
-0.937041
-1.01765
-1.05896
-1.05972
-1.02037
-0.943054
-0.831633
-0.691528
-0.529577
-0.353642
-0.172204
0.00583396
0.172103
0.318798
0.439314
0.528566
0.583259
0.601983
0.586142
0.537573
0.460572
0.360712
0.244467
0.118829
-0.00914829
-0.132748
-0.245929
-0.343626
-0.421971
-0.478407
-0.511682
-0.521848
-0.510174
-0.478813
-0.430773
-0.369598
-0.299151
-0.223415
-0.146235
-0.0711968
-0.00150635
0.0603518
0.112308
0.152951
0.181505
0.197761
0.202062
0.195238
0.178443
0.153162
0.121077
0.0839823
0.0436947
0.00198131
-0.0394427
-0.0791705
-0.115877
-0.148513
-0.176281
-0.198642
-0.215306
-0.226225
-0.231585
-0.231738
-0.227212
-0.218654
-0.206796
-0.192425
-0.176341
-0.159332
-0.142167
-0.125511
-0.109957
-0.0959843
-0.0839396
-0.0740387
-0.0663683
-0.0608958
-0.0574787
-0.055881
-0.055786
-0.0568161
-0.0585602
-0.0606003
-0.0625485
-0.0640701
-0.0649088
10.2834
10.2564
10.2005
10.1325
10.0573
9.93043
9.72488
9.38979
-1.1303
-0.796179
-0.579301
-0.250863
0.0925447
0.458552
0.795749
1.12251
1.43074
1.71859
1.98399
2.22651
2.44585
2.64176
2.81386
2.96165
3.08456
3.18199
3.25336
3.29815
3.31592
3.30632
3.2692
3.20457
3.11265
2.99388
2.84894
2.67879
2.48462
2.26794
2.03053
1.77445
1.50201
1.21579
0.918695
0.613794
0.304431
-0.00586727
-0.313618
-0.615032
-0.906328
-1.18368
-1.4433
-1.68164
-1.89525
-2.08085
-2.23559
-2.35695
-2.44278
-2.49148
-2.50201
-2.474
-2.40758
-2.30362
-2.16369
-1.99011
-1.78588
-1.55467
-1.30073
-1.029
-0.744915
-0.454229
-0.163038
0.122375
0.395673
0.650611
0.881302
1.08225
1.24855
1.37611
1.4617
1.50322
1.49965
1.45127
1.35962
1.22758
1.05927
0.860027
0.636313
0.395482
0.145488
-0.106239
-0.348969
-0.575317
-0.777267
-0.947593
-1.08013
-1.17011
-1.21438
-1.21162
-1.16248
-1.06963
-0.937703
-0.773149
-0.584016
-0.379557
-0.169629
0.0353676
0.225782
0.392672
0.528541
0.627732
0.6867
0.703728
0.681801
0.62229
0.530794
0.41396
0.279365
0.135127
-0.010674
-0.150434
-0.277392
-0.385979
-0.472033
-0.532909
-0.567456
-0.575984
-0.560193
-0.522683
-0.466994
-0.397222
-0.31777
-0.233094
-0.147454
-0.0648152
0.0114102
0.0785316
0.134391
0.177564
0.207326
0.223568
0.226771
0.217961
0.198461
0.169961
0.13434
0.0935752
0.0496485
0.00445843
-0.0401011
-0.0826193
-0.121654
-0.156127
-0.185227
-0.208423
-0.225451
-0.236303
-0.241222
-0.240619
-0.235094
-0.225362
-0.212222
-0.196524
-0.179126
-0.160869
-0.142565
-0.124918
-0.108548
-0.0939491
-0.0814732
-0.0713305
-0.0635936
-0.05821
-0.0550122
-0.0537361
-0.0540326
-0.0554895
-0.0576595
-0.0600896
-0.0623622
-0.0641175
-0.0650796
15.4905
15.4841
15.4549
15.3593
15.1524
14.7751
14.542
14.3271
0.248408
0.473247
0.60446
0.849195
1.12231
1.40116
1.67851
1.95188
2.21617
2.46869
2.70691
2.92864
3.13187
3.31476
3.47569
3.61322
3.72599
3.81279
3.87248
3.90409
3.9068
3.88003
3.82342
3.73683
3.6204
3.47454
3.29994
3.09761
2.86886
2.61537
2.33912
2.04243
1.7279
1.39843
1.05731
0.708018
0.354337
0.000212939
-0.350337
-0.69306
-1.02369
-1.33789
-1.63143
-1.90028
-2.14058
-2.34866
-2.52133
-2.6558
-2.74968
-2.80122
-2.80919
-2.77361
-2.69434
-2.57256
-2.41015
-2.20982
-1.97504
-1.71004
-1.41975
-1.10978
-0.786382
-0.456115
-0.125937
0.197032
0.505582
0.792647
1.05158
1.27619
1.46097
1.60135
1.69377
1.73592
1.72676
1.66672
1.5577
1.40305
1.20762
0.977565
0.720335
0.444431
0.159378
-0.128672
-0.403857
-0.660136
-0.888022
-1.07933
-1.22714
-1.32614
-1.3729
-1.36604
-1.30644
-1.19732
-1.04411
-0.854347
-0.63731
-0.403674
-0.16477
0.0675272
0.282231
0.46926
0.620234
0.728966
0.791817
0.808212
0.777846
0.706603
0.600039
0.465782
0.312542
0.149567
-0.0140355
-0.169784
-0.310232
-0.429328
-0.522659
-0.587527
-0.622924
-0.629433
-0.609226
-0.565354
-0.501906
-0.423521
-0.335138
-0.241671
-0.147785
-0.0578218
0.0246658
0.0967701
0.156264
0.201729
0.232499
0.248575
0.250571
0.239731
0.217525
0.18585
0.146778
0.102457
0.0550294
0.00653607
-0.0410494
-0.0861831
-0.1274
-0.163579
-0.1939
-0.217842
-0.235169
-0.24591
-0.250369
-0.249013
-0.24251
-0.231642
-0.217271
-0.200305
-0.181657
-0.162218
-0.142839
-0.124262
-0.107131
-0.0919529
-0.0790839
-0.0687277
-0.0609427
-0.0556572
-0.0526795
-0.0517188
-0.0523956
-0.054265
-0.0568446
-0.0596489
-0.0622321
-0.0642106
-0.0652908
18.4942
18.4342
18.3462
18.2662
18.2255
18.2875
18.2973
18.2344
1.42293
1.55683
1.63055
1.80377
2.00815
2.23286
2.46509
2.70195
2.93715
3.16651
3.3863
3.59334
3.78471
3.95774
4.11002
4.23935
4.34376
4.42145
4.4708
4.4904
4.47907
4.43599
4.36066
4.25281
4.11252
3.94015
3.73641
3.5024
3.23954
2.94968
2.63503
2.29815
1.94194
1.56965
1.18496
0.791733
0.394205
-0.00324171
-0.39607
-0.779557
-1.14895
-1.49942
-1.82625
-2.12499
-2.39132
-2.62121
-2.81114
-2.95805
-3.05933
-3.11313
-3.11835
-3.07414
-2.98135
-2.84118
-2.65577
-2.42822
-2.16248
-1.86336
-1.53643
-1.18804
-0.825195
-0.455301
-0.0861466
0.274273
0.617904
0.936859
1.22374
1.47166
1.67452
1.8273
1.92608
1.96839
1.95318
1.88104
1.75421
1.57657
1.35368
1.09253
0.801549
0.490279
0.168986
-0.152587
-0.46123
-0.747379
-1.00094
-1.21287
-1.37555
-1.48315
-1.53196
-1.52053
-1.45002
-1.32419
-1.14931
-0.933979
-0.688783
-0.425822
-0.157878
0.101635
0.340415
0.547241
0.712874
0.830611
0.896647
0.910227
0.872553
0.789308
0.667401
0.515569
0.343687
0.162123
-0.0190021
-0.190356
-0.343835
-0.472948
-0.573067
-0.641473
-0.677334
-0.681519
-0.656697
-0.606364
-0.535172
-0.448295
-0.351175
-0.249178
-0.147337
-0.0504107
0.0380224
0.114796
0.177644
0.225164
0.256757
0.272546
0.273331
0.260383
0.235508
0.200746
0.158343
0.110617
0.0598551
0.00823007
-0.0421999
-0.0897865
-0.133031
-0.170783
-0.202216
-0.22682
-0.244388
-0.255004
-0.258977
-0.25688
-0.249433
-0.237477
-0.221935
-0.20377
-0.183943
-0.163395
-0.143011
-0.123567
-0.10573
-0.09002
-0.0767949
-0.0662516
-0.0584342
-0.0532521
-0.0504915
-0.0498362
-0.0508781
-0.0531419
-0.0561115
-0.0592712
-0.0621488
-0.0643387
-0.0655307
21.873
21.8584
21.8373
21.8192
21.8122
21.8027
21.8005
21.7824
2.31394
2.39374
2.48406
2.60916
2.77329
2.96159
3.16364
3.3756
3.59108
3.8051
4.01309
4.21097
4.39506
4.56201
4.70874
4.8325
4.93077
5.0013
5.04205
5.05117
5.02703
4.96875
4.87573
4.74764
4.58444
4.38649
4.15454
3.88974
3.59366
3.26834
2.9162
2.54006
2.14312
1.72898
1.30168
0.86552
0.42515
-0.0145891
-0.448674
-0.871911
-1.27906
-1.6648
-2.02394
-2.35159
-2.64304
-2.89387
-3.10026
-3.25885
-3.36686
-3.42227
-3.42384
-3.37097
-3.26441
-3.10564
-2.89712
-2.64233
-2.34573
-2.01268
-1.64938
-1.26292
-0.861087
-0.452076
-0.0445161
0.352741
0.730814
1.081
1.39518
1.66578
1.88613
2.05075
2.15541
2.19748
2.17589
2.09141
1.94664
1.746
1.49573
1.20367
0.879229
0.532998
0.176342
-0.179042
-0.520151
-0.835539
-1.11415
-1.34612
-1.52311
-1.63882
-1.68926
-1.67293
-1.59126
-1.44858
-1.25198
-1.01114
-0.73793
-0.445903
-0.149289
0.137
0.399337
0.625387
0.805077
0.931224
0.999872
1.01036
0.96486
0.86945
0.732164
0.562875
0.372616
0.172854
-0.0253033
-0.211704
-0.377632
-0.516191
-0.622576
-0.694078
-0.730062
-0.73172
-0.702158
-0.645375
-0.566564
-0.47142
-0.365856
-0.255679
-0.146238
-0.0427625
0.0512712
0.132382
0.198298
0.247644
0.279899
0.295297
0.294784
0.279802
0.252336
0.214604
0.169022
0.118064
0.0641572
0.00958905
-0.0434961
-0.0933646
-0.138481
-0.177675
-0.210113
-0.235301
-0.25306
-0.26351
-0.267015
-0.264201
-0.255851
-0.242863
-0.226218
-0.206927
-0.185999
-0.164415
-0.143097
-0.122852
-0.104365
-0.0881691
-0.0746231
-0.0639166
-0.0560795
-0.0510036
-0.0484541
-0.0480907
-0.0494798
-0.0521171
-0.0554551
-0.0589493
-0.0621036
-0.064492
-0.065789
24.8963
24.8905
24.8814
24.8708
24.8616
24.851
24.8458
24.8308
3.01636
3.06874
3.15694
3.26773
3.41325
3.58397
3.77099
3.97017
4.1755
4.38186
4.58428
4.77817
4.95929
5.12374
5.26794
5.38867
5.483
5.54832
5.5823
5.58268
5.54689
5.47456
5.36504
5.21788
5.03295
4.8106
4.55161
4.25722
3.92915
3.56962
3.18128
2.76721
2.33091
1.87631
1.40783
0.930154
0.448378
-0.0322129
-0.506122
-0.967699
-1.41122
-1.8309
-2.22108
-2.57645
-2.8919
-3.16264
-3.38457
-3.55407
-3.66814
-3.72466
-3.72227
-3.66046
-3.54005
-3.36278
-3.13138
-2.84974
-2.52278
-2.15644
-1.75753
-1.33386
-0.893948
-0.446807
-0.00186715
0.43119
0.842672
1.2231
1.56363
1.85605
2.09315
2.26898
2.37902
2.42049
2.39235
2.2955
2.13294
1.9096
1.6324
1.31003
0.952841
0.572491
0.181477
-0.207073
-0.579576
-0.923243
-1.22603
-1.47724
-1.66788
-1.79116
-1.84288
-1.82142
-1.72854
-1.56913
-1.35107
-1.0851
-0.784399
-0.463931
-0.139342
0.172968
0.45809
0.702605
0.895638
1.02957
1.10032
1.10745
1.05385
0.946281
0.793799
0.6074
0.399247
0.181877
-0.0326502
-0.233411
-0.411114
-0.558498
-0.67062
-0.744801
-0.780624
-0.779754
-0.745286
-0.682156
-0.595944
-0.492836
-0.3792
-0.261254
-0.144668
-0.0349933
0.0642359
0.149342
0.218048
0.269007
0.301781
0.316713
0.314889
0.297928
0.267973
0.227413
0.178823
0.124826
0.0679728
0.0106612
-0.0448875
-0.096864
-0.1437
-0.184206
-0.217551
-0.243252
-0.261157
-0.271425
-0.274472
-0.270971
-0.261766
-0.247809
-0.230131
-0.209792
-0.18784
-0.165297
-0.143117
-0.122134
-0.103052