/*--------------------------------*- C++ -*----------------------------------*\
  =========                 |
  \\      /  F ield         | OpenFOAM: The Open Source CFD Toolbox
   \\    /   O peration     | Website:  https://openfoam.org
    \\  /    A nd           | Version:  12
     \\/     M anipulation  |
\*---------------------------------------------------------------------------*/
FoamFile
{
    format      ascii;
    class       surfaceScalarField;
    location    "6";
    object      phi;
}
// * * * * * * * * * * * * * * * * * * * * * * * * * * * * * * * * * * * * * //

dimensions      [1 0 -1 0 0 0 0];

internalField   nonuniform List<scalar> 
7429
(
0.000102046
-0.000102046
0.0002057
-0.000103654
0.000310705
-0.000105005
0.000417169
-0.000106463
0.000525211
-0.000108042
0.000634984
-0.000109773
0.000746664
-0.00011168
0.00086042
-0.000113756
0.00097629
-0.00011587
0.00109421
-0.000117921
0.0012141
-0.000119885
0.00133585
-0.000121752
0.00145938
-0.000123531
0.00158456
-0.000125177
0.00171122
-0.000126665
0.00183923
-0.000128002
0.0019684
-0.000129177
0.00209863
-0.000130223
0.00222968
-0.000131049
0.00236135
-0.000131672
0.00249338
-0.000132031
0.0026255
-0.000132122
0.00275742
-0.000131921
0.00288878
-0.000131362
0.00301925
-0.000130465
0.00314839
-0.00012914
0.00327577
-0.000127383
0.00340096
-0.000125182
0.00352346
-0.000122499
0.00364272
-0.000119261
0.00375811
-0.000115394
0.00386907
-0.000110955
0.00397493
-0.000105863
0.00407491
-9.99852e-05
0.00416833
-9.34123e-05
0.00425481
-8.64863e-05
0.00433409
-7.92764e-05
0.00440571
-7.16213e-05
0.00446912
-6.34129e-05
0.00452373
-5.46017e-05
0.00456884
-4.51147e-05
0.00460393
-3.50887e-05
0.00462815
-2.42201e-05
0.0046412
-1.30471e-05
0.00464062
5.77399e-07
0.00462526
1.53619e-05
0.00459507
3.01858e-05
0.00454972
4.53539e-05
0.00448891
6.08048e-05
0.00441245
7.64626e-05
0.00432026
9.21881e-05
0.00421238
0.000107885
0.004089
0.000123381
0.00395043
0.000138569
0.00379714
0.000153289
0.00362962
0.000167521
0.00344875
0.000180865
0.00325509
0.000193657
0.00304978
0.000205315
0.00283367
0.000216106
0.00260822
0.000225447
0.00237484
0.000233383
0.00213521
0.000239635
0.00189111
0.000244097
0.00164443
0.000246681
0.00139728
0.000247144
0.00115177
0.00024551
0.000910186
0.000241588
0.000674851
0.000235335
0.000448144
0.000226707
0.000232222
0.000215922
2.9442e-05
0.00020278
-0.000158079
0.000187521
-0.000328372
0.000170293
-0.000479555
0.000151183
-0.000609893
0.000130338
-0.000718057
0.000108164
-0.000802918
8.48614e-05
-0.000863729
6.08113e-05
-0.000900104
3.6375e-05
-0.000912405
1.23006e-05
-0.000898323
-1.40815e-05
-0.000860093
-3.82307e-05
-0.000799519
-6.05742e-05
-0.000718399
-8.11198e-05
-0.000618648
-9.97506e-05
-0.000502711
-0.000115937
-0.000373307
-0.000129404
-0.000233559
-0.000139749
-8.68148e-05
-0.000146744
6.33141e-05
-0.000150129
0.000213092
-0.000149778
0.000358757
-0.000145665
0.000496628
-0.000137871
0.000623086
-0.000126458
0.000734794
-0.000111708
0.000828746
-9.39524e-05
0.000902434
-7.36878e-05
0.000953894
-5.14602e-05
0.000981535
-2.76404e-05
0.000984512
-2.97714e-06
0.000960377
2.41353e-05
0.000912137
4.82395e-05
0.000841553
7.05835e-05
0.000750706
9.08475e-05
0.000642348
0.000108358
0.000519921
0.000122427
0.000387417
0.000132504
0.0002493
0.000138117
0.000110264
0.000139037
-2.48448e-05
0.000135108
-0.000151247
0.000126403
-0.000264484
0.000113236
-0.000360415
9.59315e-05
-0.000435677
7.52613e-05
-0.000487633
5.19566e-05
-0.000514551
2.69176e-05
-0.000515353
8.01842e-07
-0.000488809
-2.65433e-05
-0.000438292
-5.05176e-05
-0.000366407
-7.18842e-05
-0.000276662
-8.97452e-05
-0.000173288
-0.000103374
-6.12684e-05
-0.000112019
5.38272e-05
-0.000115096
0.000166298
-0.00011247
0.000270519
-0.000104221
0.000361227
-9.07087e-05
0.00043383
-7.2603e-05
0.000484602
-5.07718e-05
0.000510904
-2.63018e-05
0.000510621
2.82719e-07
0.000482687
2.79338e-05
0.000429782
5.29056e-05
0.000354308
7.5474e-05
0.000259739
9.45688e-05
0.000150448
0.000109291
3.16583e-05
0.000118789
-9.10775e-05
0.000122736
-0.000211958
0.000120881
-0.000325401
0.000113443
-0.000426246
0.000100845
-0.000510105
8.38593e-05
-0.000573467
6.33611e-05
-0.000613915
4.04486e-05
-0.000630276
1.63612e-05
-0.000621724
-8.55283e-06
-0.000590094
-3.16299e-05
-0.000537592
-5.25016e-05
-0.000467272
-7.03202e-05
-0.000382926
-8.43457e-05
-0.000288904
-9.40223e-05
-0.000189817
-9.90868e-05
-9.03488e-05
-9.94683e-05
5.05737e-06
-9.54062e-05
9.22747e-05
-8.72173e-05
0.000167809
-7.55342e-05
0.000228862
-6.10529e-05
0.00027335
-4.44884e-05
0.000300224
-2.68734e-05
0.000309099
-8.8756e-06
0.000300379
8.71981e-06
0.000275548
2.48316e-05
0.000236542
3.90056e-05
0.000185827
5.07149e-05
0.000126352
5.94748e-05
6.12878e-05
6.50646e-05
-6.0232e-06
6.7311e-05
-7.24083e-05
6.63851e-05
-0.000134805
6.2397e-05
-0.000190373
5.55679e-05
-0.000236749
4.63763e-05
-0.000271984
3.52348e-05
-0.000294695
2.27106e-05
-0.000304054
9.35864e-06
-0.000299677
-4.37703e-06
-0.000281953
-1.77231e-05
-0.000251675
-3.02781e-05
-0.000210086
-4.15894e-05
-0.000158872
-5.12135e-05
-9.99999e-05
-5.88725e-05
-3.57736e-05
-6.42263e-05
3.14629e-05
-6.72365e-05
9.92111e-05
-6.77482e-05
0.000165058
-6.5847e-05
0.000226651
-6.1593e-05
0.00028175
-5.5099e-05
0.000328464
-4.67134e-05
0.00036509
-3.66262e-05
0.000390309
-2.52197e-05
0.000403157
-1.28477e-05
0.000403067
8.98595e-08
0.000389872
1.31954e-05
0.000363806
2.60658e-05
0.000325527
3.8279e-05
0.00027607
4.94572e-05
0.000216866
5.92034e-05
0.000149671
6.71958e-05
7.65932e-05
7.30774e-05
7.65932e-05
9.79447e-05
-0.00019999
0.000197558
-0.000203267
0.00029837
-0.000205816
0.000400405
-0.000208499
0.000503653
-0.000211289
0.000608113
-0.000214233
0.000713718
-0.000217284
0.000820525
-0.000220562
0.000928771
-0.000224115
0.00103881
-0.00022796
0.00115101
-0.000232086
0.00126585
-0.000236586
0.00138344
-0.000241127
0.0015035
-0.000245231
0.00162573
-0.000248894
0.00174983
-0.000252107
0.00187554
-0.000254886
0.00200256
-0.000257239
0.00213066
-0.000259147
0.00225957
-0.000260586
0.00238909
-0.000261551
0.00251894
-0.000261968
0.00264881
-0.000261793
0.00277834
-0.000260897
0.00290718
-0.000259303
0.00303479
-0.000256749
0.00316067
-0.000253259
0.00328412
-0.000248637
0.00340451
-0.000242884
0.00352107
-0.000235817
0.00363317
-0.000227497
0.00374072
-0.000218503
0.00384368
-0.00020883
0.00394212
-0.000198421
0.00403585
-0.000187141
0.00412409
-0.000174728
0.00420602
-0.000161202
0.00428079
-0.000146395
0.00434762
-0.000130246
0.00440573
-0.00011271
0.00445437
-9.37561e-05
0.00449267
-7.33884e-05
0.00452009
-5.16408e-05
0.00453601
-2.89617e-05
0.00453841
-1.82006e-06
0.00452386
2.99086e-05
0.00449333
6.07114e-05
0.00444679
9.19012e-05
0.00438413
0.000123462
0.00430524
0.000155352
0.00421011
0.000187319
0.00409882
0.000219174
0.00397151
0.000250694
0.00382846
0.000281613
0.00367002
0.000311732
0.00349668
0.000340862
0.00330914
0.000368405
0.00310803
0.000394764
0.00289444
0.000418909
0.00266951
0.000441029
0.00243473
0.00046023
0.00219168
0.000476431
0.00194217
0.000489145
0.0016882
0.000498066
0.00143185
0.00050303
0.00117544
0.000503559
0.000921244
0.000499706
0.00067184
0.000490992
0.000429664
0.000477511
0.000197251
0.00045912
-2.31017e-05
0.000436274
-0.000228748
0.000408427
-0.000417352
0.000376125
-0.000586823
0.000339764
-0.000735127
0.000299487
-0.000860513
0.000255724
-0.000961619
0.000209269
-0.00103726
0.0001605
-0.00108674
0.000110291
-0.00110973
5.93631e-05
-0.00110681
9.38259e-06
-0.00107543
-4.5463e-05
-0.00101935
-9.43042e-05
-0.000939931
-0.000139995
-0.000838667
-0.000182385
-0.000717936
-0.000220481
-0.000580576
-0.000253296
-0.000429691
-0.000280289
-0.000268716
-0.000300724
-0.00010148
-0.00031398
6.80922e-05
-0.000319701
0.000235894
-0.000317579
0.000397756
-0.000307528
0.000549717
-0.000289831
0.000687783
-0.000264524
0.00080857
-0.000232496
0.000908928
-0.00019431
0.00098586
-0.00015062
0.00103745
-0.000103054
0.00106281
-5.3e-05
0.00105869
1.14833e-06
0.00102727
5.55571e-05
0.000969598
0.000105909
0.000887381
0.0001528
0.000783106
0.000195123
0.000660112
0.000231351
0.000522391
0.000260148
0.00037449
0.000280405
0.000221419
0.000291188
6.84093e-05
0.000292046
-7.92171e-05
0.000282735
-0.000216155
0.000263341
-0.000337609
0.000234691
-0.000439206
0.000197528
-0.000517303
0.000153359
-0.000569193
0.000103847
-0.000593158
5.08826e-05
-0.000587053
-5.3041e-06
-0.000552934
-6.06621e-05
-0.00049282
-0.000110631
-0.000409622
-0.000155082
-0.00030726
-0.000192108
-0.00019075
-0.000219884
-6.5782e-05
-0.000236987
6.14081e-05
-0.000242286
0.000184715
-0.000235777
0.000298147
-0.000217653
0.00039598
-0.000188542
0.000473299
-0.000149922
0.000526305
-0.000103777
0.0005524
-5.23973e-05
0.000549522
3.16123e-06
0.000518414
5.90415e-05
0.000460782
0.000110538
0.000379559
0.000156697
0.000278672
0.000195455
0.000163151
0.000224812
3.85735e-05
0.000243367
-8.88416e-05
0.000250151
-0.000213219
0.000245259
-0.000328742
0.000228965
-0.00043024
0.000202344
-0.000513355
0.000166974
-0.000574692
0.000124698
-0.000612043
7.77998e-05
-0.000624636
2.89535e-05
-0.000612337
-2.08512e-05
-0.000577007
-6.69598e-05
-0.000521071
-0.000108437
-0.000447912
-0.000143479
-0.000361603
-0.000170655
-0.000266587
-0.000189039
-0.000167583
-0.00019809
-6.91894e-05
-0.000197862
2.41527e-05
-0.000188748
0.000108551
-0.000171616
0.000180747
-0.00014773
0.000238074
-0.00011838
0.000278869
-8.52832e-05
0.00030208
-5.00846e-05
0.000307861
-1.46561e-05
0.000296711
1.98691e-05
0.000270163
5.13796e-05
0.000230229
7.89403e-05
0.000179528
0.000101416
0.000120841
0.000118161
5.74112e-05
0.000128495
-7.76587e-06
0.000132488
-7.15516e-05
0.000130171
-0.000131017
0.000121862
-0.00018362
0.000108171
-0.00022715
8.99066e-05
-0.000259868
6.79526e-05
-0.00028062
4.34623e-05
-0.000288646
1.73849e-05
-0.000283806
-9.21673e-06
-0.000266463
-3.50659e-05
-0.00023743
-5.93112e-05
-0.000197969
-8.10506e-05
-0.000149699
-9.94842e-05
-9.45038e-05
-0.000114067
-3.45188e-05
-0.000124211
2.80342e-05
-0.000129789
9.08855e-05
-0.0001306
0.000151766
-0.000126728
0.000208532
-0.000118359
0.000259205
-0.000105772
0.000302008
-8.9516e-05
0.000335454
-7.00726e-05
0.00035836
-4.8125e-05
0.00036988
-2.43676e-05
0.000369538
4.31039e-07
0.000357199
2.55344e-05
0.000333121
5.01445e-05
0.000297913
7.34865e-05
0.00025255
9.48201e-05
0.000198311
0.000113443
0.000136835
0.000128671
7.00134e-05
0.000139899
0.000146607
8.14301e-05
-0.000281419
0.000163761
-0.000285597
0.000246992
-0.000289046
0.000331123
-0.000292629
0.000416239
-0.000296404
0.000502454
-0.000300448
0.000589966
-0.000304796
0.000679051
-0.000309645
0.000770013
-0.000315077
0.000863218
-0.000321164
0.000959282
-0.000328149
0.00105878
-0.000336088
0.00116088
-0.000343226
0.00126536
-0.000349707
0.00137218
-0.00035571
0.00148131
-0.000361236
0.00159276
-0.000366341
0.00170656
-0.000371035
0.00182265
-0.000375235
0.00194096
-0.000378897
0.00206137
-0.000381967
0.00218378
-0.000384372
0.00230807
-0.000386081
0.00243398
-0.000386805
0.00256128
-0.000386611
0.00268959
-0.000385056
0.00281861
-0.000382278
0.00294799
-0.000378018
0.00307742
-0.000372315
0.00320653
-0.000364924
0.00333469
-0.000355654
0.00346056
-0.000344377
0.00358233
-0.000330602
0.00369979
-0.000315877
0.00381289
-0.000300239
0.00392127
-0.00028311
0.0040242
-0.00026413
0.00412073
-0.000242924
0.00420977
-0.000219284
0.00429021
-0.000193151
0.00436051
-0.000164057
0.00442007
-0.000132951
0.00446676
-9.83349e-05
0.00449882
-6.10143e-05
0.0045188
-2.18034e-05
0.00452016
2.85521e-05
0.00450423
7.66393e-05
0.00447021
0.000125924
0.00441743
0.000176234
0.00434546
0.000227326
0.00425401
0.000278766
0.00414291
0.000330276
0.00401232
0.000381281
0.00386214
0.000431791
0.00369302
0.000480861
0.00350545
0.000528431
0.0033001
0.000573748
0.00307813
0.000616734
0.00284106
0.000655983
0.00259014
0.000691949
0.00232756
0.000722807
0.00205522
0.000748777
0.00177522
0.00076914
0.0014904
0.000782883
0.00120307
0.000790368
0.00091614
0.000790485
0.000632291
0.000783556
0.000354665
0.000768618
8.62145e-05
0.000745961
-0.000170051
0.000715385
-0.000411136
0.000677359
-0.000634066
0.000631357
-0.000836086
0.000578145
-0.0010148
0.00051848
-0.0011681
0.000452788
-0.00129371
0.000381332
-0.00139035
0.000305909
-0.00145673
0.000226879
-0.00149237
0.000145934
-0.00149723
6.42217e-05
-0.00146587
-2.19749e-05
-0.00140727
-0.000104067
-0.00131977
-0.000181808
-0.00120495
-0.000254808
-0.00106527
-0.000322066
-0.000903721
-0.000382032
-0.000723793
-0.000433224
-0.000529534
-0.000474549
-0.000325149
-0.000505109
-0.000115339
-0.00052379
9.51403e-05
-0.000530181
0.000301322
-0.000523761
0.000498281
-0.000504486
0.000681404
-0.000472955
0.000846026
-0.000429146
0.000987684
-0.000374155
0.00110277
-0.000309399
0.00118892
-0.000236769
0.00124359
-0.000157717
0.00126503
-7.44472e-05
0.0012508
1.53762e-05
0.00120433
0.00010203
0.0011263
0.000183942
0.00101891
0.000260193
0.000885519
0.00032851
0.000730497
0.000386373
0.000558952
0.000431694
0.000376566
0.00046279
0.00018956
0.000478194
4.35314e-06
0.000477253
-0.000172496
0.000459584
-0.000334847
0.000425692
-0.000476778
0.000376622
-0.000593177
0.000313926
-0.000679961
0.000240143
-0.00073402
0.000157906
-0.000753854
7.07166e-05
-0.000737426
-2.17319e-05
-0.000688164
-0.000109924
-0.00060789
-0.000190906
-0.000500437
-0.000262535
-0.000371089
-0.000321456
-0.000226169
-0.000364804
-7.27005e-05
-0.000390455
8.19963e-05
-0.000396983
0.000230257
-0.000384038
0.000364829
-0.000352225
0.000479219
-0.000302931
0.000568157
-0.00023886
0.000627433
-0.000163054
0.000654464
-7.94278e-05
0.000646881
1.07444e-05
0.000607147
9.87749e-05
0.000537216
0.000180469
0.000440694
0.000253219
0.000322712
0.000313437
0.000189515
0.00035801
4.78501e-05
0.000385032
-9.54214e-05
0.000393422
-0.000233271
0.000383109
-0.000359315
0.000355009
-0.000468118
0.000311147
-0.000554939
0.000253795
-0.000616816
0.000186575
-0.000651562
0.000112545
-0.00065869
3.60817e-05
-0.000639479
-4.00624e-05
-0.000595746
-0.000110692
-0.00053065
-0.000173534
-0.000448235
-0.000225894
-0.000353214
-0.000265676
-0.000250518
-0.000291735
-0.000145226
-0.000303382
-4.22196e-05
-0.000300868
5.40285e-05
-0.000284996
0.000139588
-0.000257175
0.000211297
-0.000219439
0.000266781
-0.000173864
0.000304534
-0.000123036
0.000324019
-6.95692e-05
0.000325318
-1.59547e-05
0.000309831
3.53556e-05
0.000278998
8.22125e-05
0.000235171
0.000122767
0.000181207
0.00015538
0.000119997
0.000179371
5.47224e-05
0.00019377
-1.1434e-05
0.000198644
-7.54262e-05
0.000194163
-0.000134439
0.000180874
-0.000186049
0.000159781
-0.000228222
0.00013208
-0.000259412
9.91427e-05
-0.000278555
6.26055e-05
-0.000285151
2.398e-05
-0.000279253
-1.51147e-05
-0.000261279
-5.3039e-05
-0.000232137
-8.84534e-05
-0.00019316
-0.000120028
-0.000145968
-0.000146676
-9.2439e-05
-0.000167596
-3.46213e-05
-0.000182029
2.53088e-05
-0.00018972
8.52216e-05
-0.000190512
0.000142983
-0.000184489
0.000196579
-0.000171955
0.000244214
-0.000153407
0.00028424
-0.000129543
0.000315338
-0.00010117
0.000336441
-6.92276e-05
0.000346834
-3.47609e-05
0.000346098
1.16741e-06
0.00033418
3.74521e-05
0.000311355
7.29688e-05
0.000278195
0.000106647
0.00023566
0.000137356
0.000184952
0.000164151
0.000127558
0.000186065
6.52524e-05
0.000202205
0.000211859
8.23598e-05
-0.000363779
0.000166023
-0.00036926
0.000251114
-0.000374136
0.000337858
-0.000379373
0.000426382
-0.000384927
0.000516798
-0.000390863
0.000608958
-0.000396956
0.000702944
-0.000403632
0.000798647
-0.000410779
0.000897247
-0.000419763
0.000999891
-0.000430793
0.00110566
-0.000441859
0.00121282
-0.000450379
0.00132008
-0.000456966
0.00142734
-0.000462976
0.00153504
-0.000468934
0.00164354
-0.000474835
0.00175342
-0.000480921
0.00186553
-0.000487338
0.0019806
-0.000493967
0.00209922
-0.000500592
0.00222199
-0.000507136
0.00234921
-0.000513309
0.00248103
-0.000518618
0.00261709
-0.000522672
0.00275701
-0.000524974
0.00289938
-0.000524652
0.0030432
-0.000521833
0.00318548
-0.0005146
0.00332467
-0.000504113
0.00346061
-0.000491594
0.00359565
-0.000479416
0.00373123
-0.000466179
0.00386623
-0.000450882
0.00399903
-0.000433042
0.00412803
-0.000412105
0.00425152
-0.000387617
0.00436799
-0.000359397
0.00447594
-0.000327231
0.00457373
-0.000290949
0.00466039
-0.000250709
0.00473348
-0.000206044
0.00479222
-0.000157079
0.00483601
-0.000104801
0.00486051
-4.63036e-05
0.00486441
2.46516e-05
0.0048454
9.56491e-05
0.00480459
0.000166737
0.00474191
0.000238907
0.00465722
0.00031202
0.00454999
0.000385995
0.0044201
0.000460163
0.00426759
0.000533791
0.00409247
0.000606914
0.00389473
0.000678604
0.00367525
0.000747907
0.00343486
0.000814144
0.00317495
0.000876641
0.00289716
0.000933767
0.00260353
0.000985586
0.00229615
0.00103018
0.0019776
0.00106733
0.00165093
0.00109581
0.00131874
0.00111507
0.000984599
0.00112451
0.00065161
0.00112347
0.000323653
0.00111151
3.90173e-06
0.00108837
-0.000303519
0.00105338
-0.000594944
0.00100681
-0.000867083
0.000949498
-0.00111639
0.000880661
-0.0013396
0.000801356
-0.0015339
0.000712786
-0.00169634
0.000615224
-0.00182481
0.000509806
-0.00191741
0.000398507
-0.00197321
0.000282677
-0.00199141
0.000164131
-0.00197091
4.37219e-05
-0.00191184
-8.10442e-05
-0.00181764
-0.000198264
-0.00168915
-0.000310296
-0.0015286
-0.000415362
-0.00133928
-0.000511388
-0.00112489
-0.000596418
-0.000889997
-0.000668117
-0.000639469
-0.000725077
-0.000378771
-0.000765806
-0.00011357
-0.000788992
0.000150147
-0.000793897
0.000406323
-0.000779937
0.000648723
-0.000746886
0.000871468
-0.0006957
0.00106922
-0.000626894
0.00123761
-0.000542544
0.00137209
-0.000443887
0.00146875
-0.000333428
0.0015254
-0.00021437
0.0015407
-8.97441e-05
0.00151274
4.33348e-05
0.00144493
0.000169839
0.00133853
0.000290351
0.00119662
0.000402099
0.00102381
0.00050132
0.000825776
0.000584405
0.000608955
0.000648514
0.000380588
0.000691157
0.000148597
0.000710186
-7.90545e-05
0.000704905
-0.000294616
0.000675146
-0.00049002
0.000621095
-0.000658809
0.000545411
-0.000794586
0.000449703
-0.00089248
0.000338037
-0.000949423
0.000214849
-0.000963637
8.49303e-05
-0.00093331
-5.20589e-05
-0.000862771
-0.000180463
-0.000754771
-0.000298907
-0.000614564
-0.000402742
-0.000449043
-0.000486977
-0.00026619
-0.000547657
-7.47702e-05
-0.000581875
0.000115727
-0.000587479
0.000296207
-0.000564518
0.000458251
-0.000514269
0.000594128
-0.000438808
0.00069748
-0.000342212
0.000763483
-0.000229057
0.000789469
-0.000105414
0.000775251
2.49632e-05
0.000722854
0.000151172
0.000635106
0.000268217
0.000517145
0.00037118
0.000375591
0.00045499
0.000218342
0.000515259
5.33871e-05
0.000549986
-0.000111005
0.000557814
-0.000266895
0.000538999
-0.000407164
0.000495277
-0.000525587
0.000429571
-0.000617658
0.000345866
-0.000680016
0.000248934
-0.000711501
0.00014403
-0.000711891
3.64709e-05
-0.000683271
-6.86816e-05
-0.0006282
-0.000165764
-0.000550757
-0.000250977
-0.000455902
-0.000320748
-0.000348979
-0.0003726
-0.000235593
-0.00040512
-0.000121353
-0.000417622
-1.14419e-05
-0.00041078
8.95681e-05
-0.000386006
0.000177636
-0.000345243
0.000249727
-0.00029153
0.000303741
-0.000227878
0.000338486
-0.000157781
0.00035372
-8.48032e-05
0.000350138
-1.23729e-05
0.000329169
5.63241e-05
0.000292882
0.0001185
0.000243913
0.000171736
0.000185219
0.000214074
0.000120063
0.000244527
5.16021e-05
0.00026223
-1.66556e-05
0.000266902
-8.18985e-05
0.000259406
-0.000141353
0.000240329
-0.000192684
0.000211112
-0.000234002
0.000173398
-0.000263959
0.0001291
-0.00028164
8.02865e-05
-0.000286748
2.90874e-05
-0.000279452
-2.241e-05
-0.000260352
-7.21398e-05
-0.000230485
-0.00011832
-0.000191248
-0.000159264
-0.0001443
-0.000193625
-9.15184e-05
-0.000220378
-3.49426e-05
-0.000238605
2.32948e-05
-0.000247957
8.11741e-05
-0.000248392
0.000136674
-0.000239989
0.000187898
-0.000223179
0.000233132
-0.000198641
0.000270944
-0.000167354
0.000300099
-0.000130325
0.000319665
-8.87934e-05
0.000329012
-4.4108e-05
0.000327845
2.33379e-06
0.000316136
4.91619e-05
0.000294178
9.49268e-05
0.000262585
0.000138239
0.000222246
0.000177695
0.000174284
0.000212113
0.000120148
0.000240201
6.1441e-05
0.000260912
0.0002733
7.6397e-05
-0.000440175
0.000152108
-0.000444971
0.000227246
-0.000449273
0.000301339
-0.000453466
0.000374361
-0.000457949
0.000447914
-0.000464416
0.000525386
-0.000474427
0.000606436
-0.000484681
0.000684817
-0.000489159
0.000759242
-0.000494188
0.00082766
-0.000499211
0.000891466
-0.000505665
0.000954605
-0.000513518
0.00102046
-0.000522818
0.0010909
-0.000533417
0.00116709
-0.000545119
0.00124985
-0.000557604
0.00133951
-0.000570574
0.00143616
-0.000583989
0.00153962
-0.000597426
0.00164984
-0.000610815
0.00176696
-0.000624253
0.00189099
-0.000637342
0.00202233
-0.000649956
0.00216048
-0.000660824
0.00230511
-0.000669607
0.00245384
-0.000673377
0.00260461
-0.000672607
0.00275508
-0.000665066
0.00291035
-0.000659387
0.00307295
-0.000654189
0.00324156
-0.000648031
0.00341429
-0.000638906
0.00358947
-0.00062606
0.00376512
-0.00060869
0.00393924
-0.000586227
0.00410972
-0.000558099
0.00427436
-0.000524031
0.00443088
-0.000483751
0.00457671
-0.000436786
0.00470804
-0.000382032
0.00482331
-0.000321312
0.004922
-0.000255768
0.00499632
-0.000179124
0.0050488
-9.87795e-05
0.00508102
-7.57481e-06
0.00508728
8.93923e-05
0.00506694
0.000187075
0.00501871
0.000287142
0.00494193
0.000388799
0.0048363
0.00049162
0.00470127
0.000595193
0.00453619
0.000698873
0.00434238
0.000800719
0.00411986
0.00090113
0.00386988
0.000997884
0.00359395
0.00109007
0.00329441
0.00117619
0.00297327
0.0012549
0.00263286
0.001326
0.00227635
0.00138669
0.00190665
0.00143702
0.00152752
0.00147495
0.00114277
0.00149983
0.000756226
0.00151105
0.000372169
0.00150753
-5.33821e-06
0.00148902
-0.000371667
0.0014547
-0.000722492
0.00140421
-0.00105341
0.00133773
-0.00136027
0.00125636
-0.00163894
0.00115933
-0.00188542
0.00104784
-0.00209639
0.000923756
-0.0022692
0.000788033
-0.00240059
0.000641192
-0.00248871
0.000486625
-0.00253231
0.000326284
-0.00253112
0.000162935
-0.00248066
-6.73478e-06
-0.00238912
-0.000172586
-0.00225482
-0.000332568
-0.00207983
-0.000485285
-0.00186745
-0.000627739
-0.00162189
-0.000756949
-0.00134791
-0.000870395
-0.00105123
-0.000964799
-0.000737864
-0.00103844
-0.000414471
-0.0010892
-8.81646e-05
-0.0011153
0.00023389
-0.00111595
0.000544351
-0.0010904
0.000836347
-0.00103888
0.00110304
-0.000962387
0.0013377
-0.000861555
0.00153418
-0.000739028
0.00168737
-0.000597078
0.00179348
-0.000439541
0.00184991
-0.000270793
0.00185577
-9.56066e-05
0.00181102
8.80824e-05
0.00171738
0.000263482
0.00157715
0.000430582
0.00139474
0.000584511
0.00117601
0.00072005
0.000928208
0.000832205
0.000659518
0.000917204
0.000378923
0.000971753
9.58364e-05
0.000993272
-0.000180017
0.000980758
-0.000438644
0.000933773
-0.000671255
0.000853706
-0.00086893
0.000743086
-0.00102495
0.000605722
-0.00113402
0.000447104
-0.00119201
0.000272848
-0.00119711
9.0027e-05
-0.00115023
-9.89388e-05
-0.00105436
-0.000276332
-0.00091379
-0.000439478
-0.000735565
-0.000580967
-0.000528531
-0.000694011
-0.000302896
-0.000773293
-6.88784e-05
-0.000815892
0.000161657
-0.000818015
0.000377912
-0.000780773
0.000569676
-0.000706034
0.000727712
-0.000596844
0.000845011
-0.000459512
0.000916972
-0.000301018
0.000940856
-0.000129298
0.000917231
4.85886e-05
0.000848569
0.000219834
0.000739381
0.000377405
0.0005963
0.000514261
0.00042792
0.00062337
0.000243436
0.000699743
5.27064e-05
0.000740716
-0.000134962
0.000745483
-0.000310205
0.000714242
-0.000465037
0.000650109
-0.000593108
0.000557641
-0.000689827
0.000442585
-0.000751902
0.000311008
-0.000778537
0.000170665
-0.000770884
2.88179e-05
-0.000731153
-0.000108413
-0.000663239
-0.000233678
-0.000572127
-0.000342088
-0.000463579
-0.000429297
-0.000343883
-0.000492296
-0.000219235
-0.000529768
-9.55288e-05
-0.000541329
2.15318e-05
-0.00052784
0.000127246
-0.000491721
0.000217681
-0.000435677
0.000289956
-0.000363805
0.000342197
-0.000280119
0.000373541
-0.000189125
0.000384165
-9.54275e-05
0.000375183
-3.39051e-06
0.000348445
8.3062e-05
0.000306368
0.000160577
0.000251996
0.000226108
0.000188368
0.000277702
0.000119153
0.000313742
4.7659e-05
0.000333724
-2.29259e-05
0.000337487
-8.94944e-05
0.000325974
-0.000149438
0.000300273
-0.000200511
0.000262184
-0.000240963
0.000213851
-0.000269623
0.00015776
-0.000285788
9.64508e-05
-0.000289314
3.26138e-05
-0.000280545
-3.11788e-05
-0.000260194
-9.24913e-05
-0.000229444
-0.00014907
-0.00018974
-0.000198968
-0.000142811
-0.000240554
-9.05396e-05
-0.000272649
-3.4934e-05
-0.00029421
2.19077e-05
-0.000304799
7.80456e-05
-0.000304529
0.000131561
-0.000293505
0.00018068
-0.000272297
0.000223831
-0.000241791
0.000259629
-0.000203153
0.00028703
-0.000157726
0.000305183
-0.000106947
0.000313566
-5.24908e-05
0.000311957
3.94209e-06
0.00030037
6.07493e-05
0.00027915
0.000116147
0.000248884
0.000168505
0.000210451
0.000216128
0.000164921
0.000257643
0.000113627
0.000291495
5.80843e-05
0.000316455
0.000331384
5.57407e-05
-0.000495916
0.000113048
-0.000502278
0.000176303
-0.000512528
0.000248413
-0.000525576
0.00033097
-0.000540505
0.000427046
-0.000560492
0.000528442
-0.000575822
0.000649025
-0.000605264
0.00077244
-0.000612574
0.000906812
-0.00062856
0.00103492
-0.000627313
0.00115378
-0.000624525
0.00125719
-0.000616928
0.0013426
-0.000608236
0.00140939
-0.000600206
0.00145891
-0.000594639
0.00149432
-0.000593009
0.00152047
-0.000596725
0.00154316
-0.00060668
0.00156996
-0.000624221
0.00160845
-0.00064931
0.00166584
-0.000681644
0.00174571
-0.000717207
0.00185223
-0.000756473
0.00198206
-0.000790655
0.00213886
-0.000826413
0.00230763
-0.000842143
0.00250425
-0.000869226
0.00270058
-0.000861401
0.00290828
-0.000867088
0.00311689
-0.000862799
0.00333035
-0.000861488
0.00354655
-0.000855102
0.00376463
-0.000844148
0.00398213
-0.000826184
0.0041962
-0.000800299
0.00440394
-0.000765837
0.00460227
-0.000722359
0.00478777
-0.000669254
0.0049585
-0.000607516
0.00511234
-0.000535869
0.00524762
-0.000456592
0.00535866
-0.000366814
0.0054484
-0.000268865
0.00551096
-0.000161336
0.0055494
-4.60157e-05
0.00555002
8.87756e-05
0.00552081
0.000216286
0.00546132
0.000346626
0.00536981
0.000480312
0.00524476
0.000616673
0.00508658
0.000753366
0.00489444
0.000891012
0.0046685
0.00102666
0.00441006
0.00115957
0.00412018
0.00128777
0.00380139
0.00140886
0.00345484
0.00152274
0.00308376
0.00162598
0.00269089
0.00171887
0.00227994
0.00179764
0.00185488
0.00186209
0.00141941
0.00191042
0.000978351
0.00194088
0.000536107
0.00195329
9.78192e-05
0.00194582
-0.000331635
0.00191847
-0.000747038
0.0018701
-0.00114322
0.00180038
-0.00151495
0.00170946
-0.00185757
0.00159897
-0.00216623
0.00146799
-0.00243632
0.00131794
-0.00266409
0.00115153
-0.00284612
0.000970063
-0.00297907
0.000774136
-0.00306106
0.000568613
-0.00309034
0.000355564
-0.00306553
0.000138131
-0.00298846
-8.38103e-05
-0.00286069
-0.000300357
-0.00268321
-0.000510045
-0.00245919
-0.000709307
-0.00219285
-0.000894078
-0.00188899
-0.00106081
-0.00155347
-0.00120591
-0.00119318
-0.00132509
-0.000815428
-0.0014162
-0.000427919
-0.00147671
-3.88145e-05
-0.0015044
0.000343254
-0.00149802
0.000709616
-0.00145676
0.00105113
-0.00138039
0.00136006
-0.00127132
0.00162902
-0.00113051
0.00185146
-0.000961463
0.00202222
-0.000767845
0.00213663
-0.000553945
0.00219151
-0.000325682
0.00218485
-8.89377e-05
0.0021199
0.000153029
0.0019968
0.000386586
0.00181934
0.000608036
0.00159312
0.000810732
0.00132546
0.00098771
0.00102511
0.00113256
0.000701952
0.00124036
0.000366732
0.00130697
3.07734e-05
0.00132923
-0.000293875
0.00130541
-0.00059626
0.00123616
-0.000865671
0.00112312
-0.00109241
0.000969825
-0.00126806
0.00078137
-0.00138629
0.000565334
-0.00144343
0.000329987
-0.00143713
8.37307e-05
-0.00137117
-0.000164899
-0.0012472
-0.000400305
-0.00107147
-0.000615206
-0.000852812
-0.000799624
-0.00060178
-0.000945044
-0.000330611
-0.00104446
-5.31248e-05
-0.00109338
0.000218088
-0.00108923
0.000470022
-0.00103271
0.000690434
-0.000926447
0.000869504
-0.000775914
0.000999531
-0.000589538
0.00107533
-0.000376813
0.0010946
-0.000148575
0.00105899
8.42027e-05
0.000971758
0.000307063
0.000838919
0.000510245
0.0006692
0.00068398
0.000472776
0.000819793
0.000260513
0.000912007
4.36088e-05
0.00095762
-0.000166067
0.000955159
-0.000359307
0.000907482
-0.000527382
0.000818183
-0.000663525
0.000693785
-0.000762803
0.000541863
-0.000823116
0.000371321
-0.000843807
0.000191357
-0.000826478
1.14883e-05
-0.000774985
-0.000159906
-0.000693851
-0.000314812
-0.000589074
-0.000446865
-0.000467293
-0.000551078
-0.000335354
-0.000624235
-0.000200141
-0.000664981
-6.81071e-05
-0.000673362
5.49901e-05
-0.000650938
0.000164363
-0.000601093
0.000256139
-0.000527453
0.000327716
-0.000435383
0.000377491
-0.000329894
0.000404986
-0.00021662
0.000410862
-0.000101303
0.000396539
1.09319e-05
0.000364248
0.000115353
0.000316802
0.000208024
0.000257381
0.000285528
0.000189554
0.00034553
0.000116772
0.000386524
4.25822e-05
0.000407914
-2.97179e-05
0.000409787
-9.71303e-05
0.000393387
-0.000157092
0.000360235
-0.000207547
0.00031264
-0.000246908
0.000253211
-0.000274107
0.000184959
-0.000288692
0.000111036
-0.000290616
3.45382e-05
-0.0002804
-4.13951e-05
-0.0002589
-0.000113991
-0.000227373
-0.000180598
-0.00018734
-0.000239
-0.000140561
-0.000287333
-8.89257e-05
-0.000324284
-3.4447e-05
-0.000348689
2.09974e-05
-0.000360243
7.5376e-05
-0.000358908
0.000126916
-0.000345045
0.000173935
-0.000319317
0.000214995
-0.000282851
0.000248866
-0.000237024
0.000274569
-0.000183429
0.000291383
-0.000123761
0.000298876
-5.99842e-05
0.000296828
5.99068e-06
0.000285381
7.21961e-05
0.000264865
0.000136663
0.000235883
0.000197487
0.000199256
0.000252754
0.000156047
0.000300852
0.000107456
0.000340086
5.49092e-05
0.000369001
0.000386293
0.000173342
-0.000669258
0.000345921
-0.000674857
0.000516634
-0.00068324
0.000682576
-0.000691518
0.000837844
-0.000695773
0.000979092
-0.00070174
0.0010867
-0.00068343
0.0011762
-0.000694766
0.00116557
-0.000601947
0.00110171
-0.00056469
0.00099257
-0.000518178
0.000868374
-0.000500329
0.00074269
-0.000491243
0.000632416