/*--------------------------------*- C++ -*----------------------------------*\
  =========                 |
  \\      /  F ield         | OpenFOAM: The Open Source CFD Toolbox
   \\    /   O peration     | Website:  https://openfoam.org
    \\  /    A nd           | Version:  12
     \\/     M anipulation  |
\*---------------------------------------------------------------------------*/
FoamFile
{
    format      ascii;
    class       volVectorField;
    location    "6";
    object      U;
}
// * * * * * * * * * * * * * * * * * * * * * * * * * * * * * * * * * * * * * //

dimensions      [0 1 -1 0 0 0 0];

internalField   nonuniform List<vector> 
3829
(
(4.08251e-06 -6.78089e-05 0)
(1.22829e-05 -6.82943e-05 0)
(2.06149e-05 -6.82216e-05 0)
(2.90567e-05 -6.81072e-05 0)
(3.76184e-05 -6.79508e-05 0)
(4.63189e-05 -6.7753e-05 0)
(5.51592e-05 -6.75192e-05 0)
(6.4156e-05 -6.72438e-05 0)
(7.33484e-05 -6.69327e-05 0)
(8.26805e-05 -6.6593e-05 0)
(9.21522e-05 -6.62154e-05 0)
(0.000101798 -6.57987e-05 0)
(0.00011161 -6.53362e-05 0)
(0.000121534 -6.48292e-05 0)
(0.000131581 -6.42538e-05 0)
(0.000141762 -6.36259e-05 0)
(0.00015203 -6.29163e-05 0)
(0.000162386 -6.21377e-05 0)
(0.000172819 -6.12804e-05 0)
(0.000183308 -6.03408e-05 0)
(0.000193837 -5.93155e-05 0)
(0.000204387 -5.82007e-05 0)
(0.000214932 -5.6993e-05 0)
(0.000225446 -5.56883e-05 0)
(0.000235902 -5.4283e-05 0)
(0.000246273 -5.27781e-05 0)
(0.000256502 -5.11671e-05 0)
(0.000266591 -4.94516e-05 0)
(0.000276484 -4.76301e-05 0)
(0.000286154 -4.57006e-05 0)
(0.00029551 -4.36851e-05 0)
(0.000304535 -4.15722e-05 0)
(0.000313236 -3.9373e-05 0)
(0.000321431 -3.70842e-05 0)
(0.000329158 -3.46948e-05 0)
(0.000336362 -3.22097e-05 0)
(0.000342959 -2.9602e-05 0)
(0.000348974 -2.68765e-05 0)
(0.000354372 -2.40318e-05 0)
(0.000359091 -2.10798e-05 0)
(0.000363097 -1.8011e-05 0)
(0.000366308 -1.48494e-05 0)
(0.00036863 -1.15892e-05 0)
(0.000370108 -8.23984e-06 0)
(0.000370616 -4.81846e-06 0)
(0.000369973 -1.33302e-06 0)
(0.000368154 2.18493e-06 0)
(0.000365135 5.71197e-06 0)
(0.000360894 9.22638e-06 0)
(0.000355412 1.27061e-05 0)
(0.000348652 1.61245e-05 0)
(0.00034066 1.94776e-05 0)
(0.000331432 2.27173e-05 0)
(0.000320995 2.58474e-05 0)
(0.000309298 2.88071e-05 0)
(0.000296443 3.16192e-05 0)
(0.000282545 3.42147e-05 0)
(0.00026761 3.65868e-05 0)
(0.000251637 3.87059e-05 0)
(0.000234773 4.05557e-05 0)
(0.000217165 4.20781e-05 0)
(0.000198796 4.32811e-05 0)
(0.000179905 4.41389e-05 0)
(0.000160487 4.46212e-05 0)
(0.000140885 4.47385e-05 0)
(0.000121186 4.44561e-05 0)
(0.000101455 4.37878e-05 0)
(8.2017e-05 4.27328e-05 0)
(6.29566e-05 4.12873e-05 0)
(4.4478e-05 3.94402e-05 0)
(2.68134e-05 3.72564e-05 0)
(1.0025e-05 3.47267e-05 0)
(-5.59428e-06 3.19147e-05 0)
(-1.98689e-05 2.87914e-05 0)
(-3.27179e-05 2.54342e-05 0)
(-4.38992e-05 2.1869e-05 0)
(-5.33978e-05 1.81352e-05 0)
(-6.10855e-05 1.42995e-05 0)
(-6.68134e-05 1.04148e-05 0)
(-7.06422e-05 6.50501e-06 0)
(-7.26405e-05 2.70348e-06 0)
(-7.24991e-05 -9.73595e-07 0)
(-7.03274e-05 -4.47272e-06 0)
(-6.63611e-05 -7.73629e-06 0)
(-6.06749e-05 -1.06964e-05 0)
(-5.34738e-05 -1.3315e-05 0)
(-4.48237e-05 -1.55346e-05 0)
(-3.49683e-05 -1.73293e-05 0)
(-2.41872e-05 -1.86455e-05 0)
(-1.27351e-05 -1.94901e-05 0)
(-9.00652e-07 -1.98213e-05 0)
(1.10916e-05 -1.96465e-05 0)
(2.28936e-05 -1.8986e-05 0)
(3.42111e-05 -1.78436e-05 0)
(4.4759e-05 -1.62661e-05 0)
(5.4261e-05 -1.42852e-05 0)
(6.24663e-05 -1.19651e-05 0)
(6.91423e-05 -9.36112e-06 0)
(7.41304e-05 -6.55241e-06 0)
(7.72438e-05 -3.62223e-06 0)
(7.84461e-05 -6.333e-07 0)
(7.76014e-05 2.27271e-06 0)
(7.4676e-05 5.0515e-06 0)
(6.98977e-05 7.63067e-06 0)
(6.34248e-05 9.92212e-06 0)
(5.54633e-05 1.18497e-05 0)
(4.62349e-05 1.33496e-05 0)
(3.60388e-05 1.43775e-05 0)
(2.52144e-05 1.49011e-05 0)
(1.41434e-05 1.49069e-05 0)
(3.18905e-06 1.4392e-05 0)
(-7.26993e-06 1.3385e-05 0)
(-1.68258e-05 1.19278e-05 0)
(-2.51796e-05 1.0062e-05 0)
(-3.20085e-05 7.88992e-06 0)
(-3.70514e-05 5.4786e-06 0)
(-4.01906e-05 2.92649e-06 0)
(-4.12669e-05 3.52896e-07 0)
(-4.02267e-05 -2.12497e-06 0)
(-3.70981e-05 -4.42226e-06 0)
(-3.21633e-05 -6.46626e-06 0)
(-2.56907e-05 -8.12168e-06 0)
(-1.7927e-05 -9.35041e-06 0)
(-9.32424e-06 -1.00982e-05 0)
(-1.98255e-07 -1.03235e-05 0)
(8.97477e-06 -1.00313e-05 0)
(1.76349e-05 -9.24323e-06 0)
(2.54076e-05 -8.00343e-06 0)
(3.19332e-05 -6.37189e-06 0)
(3.68431e-05 -4.44668e-06 0)
(3.99011e-05 -2.31731e-06 0)
(4.09152e-05 -1.17737e-07 0)
(3.97711e-05 2.05524e-06 0)
(3.6508e-05 4.09904e-06 0)
(3.13563e-05 5.93014e-06 0)
(2.45428e-05 7.44352e-06 0)
(1.63602e-05 8.57276e-06 0)
(7.24807e-06 9.26945e-06 0)
(-2.48461e-06 9.51561e-06 0)
(-1.22917e-05 9.31199e-06 0)
(-2.16393e-05 8.68058e-06 0)
(-3.0195e-05 7.66554e-06 0)
(-3.75587e-05 6.34406e-06 0)
(-4.34127e-05 4.77738e-06 0)
(-4.7531e-05 3.06353e-06 0)
(-4.97719e-05 1.29362e-06 0)
(-5.00459e-05 -4.49614e-07 0)
(-4.83965e-05 -2.08021e-06 0)
(-4.50012e-05 -3.53768e-06 0)
(-4.00588e-05 -4.74846e-06 0)
(-3.38492e-05 -5.67943e-06 0)
(-2.66969e-05 -6.29175e-06 0)
(-1.89619e-05 -6.5887e-06 0)
(-1.10183e-05 -6.56253e-06 0)
(-3.22554e-06 -6.24585e-06 0)
(4.06966e-06 -5.66508e-06 0)
(1.05622e-05 -4.87275e-06 0)
(1.60067e-05 -3.91009e-06 0)
(2.02062e-05 -2.84329e-06 0)
(2.30389e-05 -1.71907e-06 0)
(2.44442e-05 -6.05455e-07 0)
(2.44197e-05 4.5604e-07 0)
(2.30545e-05 1.42211e-06 0)
(2.04852e-05 2.2496e-06 0)
(1.68746e-05 2.92037e-06 0)
(1.2459e-05 3.40134e-06 0)
(7.47221e-06 3.69253e-06 0)
(2.13656e-06 3.78751e-06 0)
(-3.23229e-06 3.70046e-06 0)
(-8.37558e-06 3.44779e-06 0)
(-1.30872e-05 3.04039e-06 0)
(-1.71547e-05 2.5144e-06 0)
(-2.04068e-05 1.89707e-06 0)
(-2.27112e-05 1.21583e-06 0)
(-2.39779e-05 5.07444e-07 0)
(-2.41631e-05 -2.02308e-07 0)
(-2.3266e-05 -8.82176e-07 0)
(-2.13328e-05 -1.50706e-06 0)
(-1.84493e-05 -2.05624e-06 0)
(-1.47302e-05 -2.51079e-06 0)
(-1.03338e-05 -2.85716e-06 0)
(-5.4304e-06 -3.08566e-06 0)
(-1.45219e-07 -3.19742e-06 0)
(5.28591e-06 -3.18766e-06 0)
(1.06276e-05 -3.06517e-06 0)
(1.57145e-05 -2.83507e-06 0)
(2.03738e-05 -2.51018e-06 0)
(2.44396e-05 -2.10635e-06 0)
(2.77613e-05 -1.63427e-06 0)
(3.02286e-05 -1.11391e-06 0)
(3.17431e-05 -5.64785e-07 0)
(3.22475e-05 -1.43742e-09 0)
(3.17097e-05 5.54763e-07 0)
(3.01358e-05 1.08954e-06 0)
(2.75596e-05 1.58415e-06 0)
(2.40503e-05 2.02562e-06 0)
(1.97051e-05 2.39718e-06 0)
(1.46516e-05 2.69078e-06 0)
(9.04502e-06 2.89324e-06 0)
(3.06139e-06 2.99807e-06 0)
(4.39329e-06 -9.52196e-05 0)
(1.33075e-05 -9.52742e-05 0)
(2.2318e-05 -9.52729e-05 0)
(3.14661e-05 -9.52805e-05 0)
(4.07344e-05 -9.52899e-05 0)
(5.00747e-05 -9.5306e-05 0)
(5.95394e-05 -9.53335e-05 0)
(6.91433e-05 -9.53692e-05 0)
(7.88206e-05 -9.54142e-05 0)
(8.86425e-05 -9.54649e-05 0)
(9.86788e-05 -9.55103e-05 0)
(0.000108939 -9.55368e-05 0)
(0.000119395 -9.55511e-05 0)
(0.000130126 -9.55167e-05 0)
(0.000141025 -9.54498e-05 0)
(0.00015214 -9.5331e-05 0)
(0.000163447 -9.51501e-05 0)
(0.000174794 -9.49011e-05 0)
(0.000186293 -9.45525e-05 0)
(0.000197876 -9.41242e-05 0)
(0.000209524 -9.35728e-05 0)
(0.000221218 -9.28948e-05 0)
(0.000232931 -9.20667e-05 0)
(0.00024464 -9.10581e-05 0)
(0.00025628 -8.9888e-05 0)
(0.000267842 -8.84923e-05 0)
(0.000279268 -8.68522e-05 0)
(0.000290521 -8.49844e-05 0)
(0.000301572 -8.2838e-05 0)
(0.000312239 -8.03844e-05 0)
(0.000322495 -7.75739e-05 0)
(0.000332399 -7.44275e-05 0)
(0.000341906 -7.09033e-05 0)
(0.000350973 -6.70086e-05 0)
(0.000359586 -6.27056e-05 0)
(0.000367788 -5.8011e-05 0)
(0.00037549 -5.28855e-05 0)
(0.000382559 -4.73246e-05 0)
(0.000388919 -4.13435e-05 0)
(0.00039456 -3.49122e-05 0)
(0.000399378 -2.80484e-05 0)
(0.000403272 -2.07705e-05 0)
(0.000406238 -1.30936e-05 0)
(0.000408189 -5.04803e-06 0)
(0.000409014 3.30767e-06 0)
(0.000408461 1.19732e-05 0)
(0.000406426 2.08774e-05 0)
(0.000402948 2.99773e-05 0)
(0.000398021 3.91922e-05 0)
(0.000391609 4.84816e-05 0)
(0.000383776 5.77493e-05 0)
(0.000374464 6.69403e-05 0)
(0.000363717 7.59512e-05 0)
(0.000351507 8.46922e-05 0)
(0.000337883 9.30927e-05 0)
(0.000322919 0.000101059 0)
(0.000306588 0.000108408 0)
(0.000289101 0.000115228 0)
(0.00027041 0.000121227 0)
(0.000250542 0.000126462 0)
(0.000229764 0.00013077 0)
(0.000208216 0.000134091 0)
(0.000185964 0.000136355 0)
(0.000163172 0.000137556 0)
(0.000140167 0.000137601 0)
(0.000117051 0.000136467 0)
(9.40373e-05 0.000134146 0)
(7.13742e-05 0.000130617 0)
(4.91e-05 0.000125918 0)
(2.7705e-05 0.000120062 0)
(7.42561e-06 0.000113122 0)
(-1.16968e-05 0.000105129 0)
(-2.94549e-05 9.61982e-05 0)
(-4.56213e-05 8.63967e-05 0)
(-5.99091e-05 7.58583e-05 0)
(-7.22431e-05 6.46964e-05 0)
(-8.24542e-05 5.30811e-05 0)
(-9.03793e-05 4.11575e-05 0)
(-9.60505e-05 2.90846e-05 0)
(-9.92385e-05 1.70439e-05 0)
(-0.000100053 5.24635e-06 0)
(-9.85013e-05 -6.09421e-06 0)
(-9.45517e-05 -1.68218e-05 0)
(-8.84001e-05 -2.67931e-05 0)
(-8.02028e-05 -3.58208e-05 0)
(-7.02154e-05 -4.37511e-05 0)
(-5.85567e-05 -5.04175e-05 0)
(-4.54911e-05 -5.57423e-05 0)
(-3.14141e-05 -5.95971e-05 0)
(-1.66259e-05 -6.1942e-05 0)
(-1.41842e-06 -6.27081e-05 0)
(1.37804e-05 -6.19113e-05 0)
(2.86387e-05 -5.95862e-05 0)
(4.27821e-05 -5.57937e-05 0)
(5.58459e-05 -5.06448e-05 0)
(6.751e-05 -4.42671e-05 0)
(7.74617e-05 -3.68515e-05 0)
(8.5438e-05 -2.85979e-05 0)
(9.12093e-05 -1.97315e-05 0)
(9.46569e-05 -1.05029e-05 0)
(9.55916e-05 -1.16233e-06 0)
(9.39461e-05 7.9639e-06 0)
(8.99051e-05 1.66483e-05 0)
(8.35834e-05 2.46607e-05 0)
(7.51446e-05 3.17348e-05 0)
(6.48772e-05 3.76437e-05 0)
(5.31003e-05 4.22018e-05 0)
(4.02073e-05 4.52675e-05 0)
(2.66254e-05 4.67417e-05 0)
(1.28166e-05 4.65915e-05 0)
(-7.46453e-07 4.48154e-05 0)
(-1.35735e-05 4.1518e-05 0)
(-2.52307e-05 3.68032e-05 0)
(-3.52785e-05 3.08784e-05 0)
(-4.33416e-05 2.39773e-05 0)
(-4.91834e-05 1.63787e-05 0)
(-5.25759e-05 8.38913e-06 0)
(-5.33346e-05 3.52289e-07 0)
(-5.15047e-05 -7.38415e-06 0)
(-4.72337e-05 -1.45186e-05 0)
(-4.07027e-05 -2.07871e-05 0)
(-3.22731e-05 -2.58769e-05 0)
(-2.23879e-05 -2.95987e-05 0)
(-1.14979e-05 -3.17871e-05 0)
(-5.59612e-08 -3.23519e-05 0)
(1.13225e-05 -3.13153e-05 0)
(2.19959e-05 -2.87323e-05 0)
(3.15139e-05 -2.47693e-05 0)
(3.94118e-05 -1.96357e-05 0)
(4.52714e-05 -1.36037e-05 0)
(4.87981e-05 -6.98488e-06 0)
(4.97996e-05 -1.34882e-07 0)
(4.82413e-05 6.5931e-06 0)
(4.42027e-05 1.28969e-05 0)
(3.79224e-05 1.84722e-05 0)
(2.96726e-05 2.30355e-05 0)
(1.98657e-05 2.64104e-05 0)
(9.03964e-06 2.844e-05 0)
(-2.4005e-06 2.90689e-05 0)
(-1.38341e-05 2.83289e-05 0)
(-2.46498e-05 2.62958e-05 0)
(-3.44203e-05 2.31147e-05 0)
(-4.27224e-05 1.90009e-05 0)
(-4.92118e-05 1.41841e-05 0)
(-5.36196e-05 8.94598e-06 0)
(-5.58415e-05 3.55096e-06 0)
(-5.58084e-05 -1.70671e-06 0)
(-5.36108e-05 -6.6208e-06 0)
(-4.94554e-05 -1.09621e-05 0)
(-4.35934e-05 -1.45561e-05 0)
(-3.63675e-05 -1.72733e-05 0)
(-2.81641e-05 -1.90392e-05 0)
(-1.9395e-05 -1.98328e-05 0)
(-1.04797e-05 -1.96775e-05 0)
(-1.82942e-06 -1.86436e-05 0)
(6.18217e-06 -1.68435e-05 0)
(1.32315e-05 -1.44068e-05 0)
(1.90585e-05 -1.14955e-05 0)
(2.34632e-05 -8.27325e-06 0)
(2.63276e-05 -4.91562e-06 0)
(2.76041e-05 -1.58764e-06 0)
(2.73315e-05 1.57071e-06 0)
(2.56008e-05 4.41786e-06 0)
(2.25879e-05 6.85663e-06 0)
(1.84727e-05 8.80275e-06 0)
(1.35181e-05 1.02002e-05 0)
(7.99601e-06 1.10176e-05 0)
(2.14749e-06 1.12681e-05 0)
(-3.68199e-06 1.09788e-05 0)
(-9.23951e-06 1.01929e-05 0)
(-1.42951e-05 8.9696e-06 0)
(-1.86173e-05 7.39452e-06 0)
(-2.20489e-05 5.54964e-06 0)
(-2.44484e-05 3.53574e-06 0)
(-2.57305e-05 1.43816e-06 0)
(-2.58608e-05 -6.48226e-07 0)
(-2.48418e-05 -2.64502e-06 0)
(-2.27345e-05 -4.47493e-06 0)
(-1.96339e-05 -6.07792e-06 0)
(-1.56647e-05 -7.39902e-06 0)
(-1.0997e-05 -8.40542e-06 0)
(-5.81856e-06 -9.06217e-06 0)
(-2.60554e-07 -9.37657e-06 0)
(5.43279e-06 -9.33731e-06 0)
(1.10153e-05 -8.96695e-06 0)
(1.6318e-05 -8.28986e-06 0)
(2.11573e-05 -7.32894e-06 0)
(2.53706e-05 -6.14001e-06 0)
(2.88041e-05 -4.75744e-06 0)
(3.13395e-05 -3.23835e-06 0)
(3.28854e-05 -1.63019e-06 0)
(3.33839e-05 9.43387e-09 0)
(3.28044e-05 1.63252e-06 0)
(3.1157e-05 3.18894e-06 0)
(2.84775e-05 4.62845e-06 0)
(2.48385e-05 5.91059e-06 0)
(2.03427e-05 6.99387e-06 0)
(1.51217e-05 7.84628e-06 0)
(9.33304e-06 8.4352e-06 0)
(3.15884e-06 8.73858e-06 0)
(4.10291e-06 -0.000225079 0)
(1.23982e-05 -0.000226292 0)
(2.07622e-05 -0.000226207 0)
(2.92138e-05 -0.000226062 0)
(3.77973e-05 -0.000225868 0)
(4.64381e-05 -0.000225607 0)
(5.5208e-05 -0.000225267 0)
(6.41528e-05 -0.000224848 0)
(7.33004e-05 -0.000224333 0)
(8.26963e-05 -0.000223732 0)
(9.24184e-05 -0.000223004 0)
(0.000102366 -0.000222158 0)
(0.000112688 -0.000221146 0)
(0.000123274 -0.000220001 0)
(0.000133995 -0.000218703 0)
(0.000145049 -0.000217267 0)
(0.000156295 -0.000215724 0)
(0.000167855 -0.000214033 0)
(0.000179553 -0.000212211 0)
(0.000191436 -0.00021022 0)
(0.000203638 -0.000208099 0)
(0.000215999 -0.000205781 0)
(0.00022866 -0.000203233 0)
(0.00024132 -0.000200398 0)
(0.000254152 -0.000197256 0)
(0.000267353 -0.000193677 0)
(0.000280365 -0.000189679 0)
(0.000293372 -0.000185135 0)
(0.000306587 -0.000180108 0)
(0.000319943 -0.000174506 0)
(0.000333057 -0.000168299 0)
(0.000345868 -0.000161587 0)
(0.000358456 -0.00015419 0)
(0.000370624 -0.000146146 0)
(0.00038235 -0.000137395 0)
(0.000393596 -0.000127797 0)
(0.00040439 -0.000117488 0)
(0.00041444 -0.000106361 0)
(0.000423838 -9.4435e-05 0)
(0.000432519 -8.17258e-05 0)
(0.000440189 -6.82625e-05 0)
(0.000446786 -5.40617e-05 0)
(0.000452175 -3.91823e-05 0)
(0.000456178 -2.36753e-05 0)
(0.000458833 -7.60425e-06 0)
(0.000459907 8.92842e-06 0)
(0.00045917 2.58368e-05 0)
(0.00045658 4.30136e-05 0)
(0.000452149 6.02953e-05 0)
(0.000445805 7.76159e-05 0)
(0.000437478 9.47888e-05 0)
(0.000427194 0.000111708 0)
(0.000414822 0.000128239 0)
(0.000400556 0.000144208 0)
(0.000384366 0.000159495 0)
(0.000365887 0.000173884 0)
(0.00034603 0.000187213 0)
(0.000324396 0.000199374 0)
(0.000300846 0.000210192 0)
(0.000276096 0.000219465 0)
(0.000249839 0.000227058 0)
(0.000222482 0.000232896 0)
(0.000194469 0.00023684 0)
(0.000165737 0.000238786 0)
(0.000136566 0.0002387 0)
(0.000107387 0.00023646 0)
(7.82924e-05 0.000232127 0)
(4.97697e-05 0.000225605 0)
(2.20161e-05 0.000217015 0)
(-4.60981e-06 0.00020639 0)
(-2.98173e-05 0.000193787 0)
(-5.34249e-05 0.000179324 0)
(-7.5035e-05 0.000163183 0)
(-9.44131e-05 0.000145537 0)
(-0.000111335 0.000126612 0)
(-0.000125493 0.000106634 0)
(-0.000136762 8.58925e-05 0)
(-0.000145091 6.46679e-05 0)
(-0.000150282 4.32636e-05 0)
(-0.000152218 2.20161e-05 0)
(-0.000150907 1.21959e-06 0)
(-0.000146308 -1.87142e-05 0)
(-0.00013878 -3.7547e-05 0)
(-0.000128482 -5.49125e-05 0)
(-0.000115496 -7.05783e-05 0)
(-0.000100135 -8.41841e-05 0)
(-8.27382e-05 -9.55311e-05 0)
(-6.36835e-05 -0.000104396 0)
(-4.33888e-05 -0.000110638 0)
(-2.23081e-05 -0.000114114 0)
(-8.97059e-07 -0.000114792 0)
(2.0299e-05 -0.000112668 0)
(4.08143e-05 -0.000107808 0)
(6.01446e-05 -0.000100358 0)
(7.78342e-05 -9.05193e-05 0)
(9.34077e-05 -7.85618e-05 0)
(0.000106445 -6.47925e-05 0)
(0.000116658 -4.95763e-05 0)
(0.00012378 -3.33519e-05 0)
(0.000127621 -1.65572e-05 0)
(0.00012798 3.07564e-07 0)
(0.000124829 1.67686e-05 0)
(0.000118454 3.23642e-05 0)
(0.000109012 4.66165e-05 0)
(9.67108e-05 5.90942e-05 0)
(8.20052e-05 6.9409e-05 0)
(6.53616e-05 7.72407e-05 0)
(4.73208e-05 8.23457e-05 0)
(2.85055e-05 8.45712e-05 0)
(9.54089e-06 8.3852e-05 0)
(-8.88343e-06 8.02448e-05 0)
(-2.61459e-05 7.38883e-05 0)
(-4.1626e-05 6.50455e-05 0)
(-5.47493e-05 5.4084e-05 0)
(-6.50636e-05 4.14225e-05 0)
(-7.21905e-05 2.75791e-05 0)
(-7.59106e-05 1.31267e-05 0)
(-7.60268e-05 -1.35702e-06 0)
(-7.26301e-05 -1.52435e-05 0)
(-6.5979e-05 -2.79632e-05 0)
(-5.63667e-05 -3.8999e-05 0)
(-4.42612e-05 -4.78745e-05 0)
(-3.02575e-05 -5.42256e-05 0)
(-1.50255e-05 -5.77839e-05 0)
(7.21677e-07 -5.84395e-05 0)
(1.6209e-05 -5.62113e-05 0)
(3.06006e-05 -5.12775e-05 0)
(4.32396e-05 -4.38937e-05 0)
(5.35819e-05 -3.44897e-05 0)
(6.1099e-05 -2.3566e-05 0)
(6.5437e-05 -1.17056e-05 0)
(6.63679e-05 4.70145e-07 0)
(6.39263e-05 1.23493e-05 0)
(5.82835e-05 2.33983e-05 0)
(4.9739e-05 3.30239e-05 0)
(3.87795e-05 4.08229e-05 0)
(2.59529e-05 4.64538e-05 0)
(1.19294e-05 4.96972e-05 0)
(-2.64677e-06 5.04753e-05 0)
(-1.70055e-05 4.88709e-05 0)
(-3.04288e-05 4.50433e-05 0)
(-4.23629e-05 3.92758e-05 0)
(-5.22927e-05 3.19468e-05 0)
(-5.98208e-05 2.3497e-05 0)
(-6.46891e-05 1.43928e-05 0)
(-6.67698e-05 5.10979e-06 0)
(-6.60952e-05 -3.87576e-06 0)
(-6.2838e-05 -1.21835e-05 0)
(-5.72464e-05 -1.94382e-05 0)
(-4.96916e-05 -2.53582e-05 0)
(-4.06197e-05 -2.97531e-05 0)
(-3.05261e-05 -3.25124e-05 0)
(-1.9919e-05 -3.36098e-05 0)
(-9.30381e-06 -3.31197e-05 0)
(8.37328e-07 -3.11658e-05 0)
(1.0083e-05 -2.79528e-05 0)
(1.80711e-05 -2.37121e-05 0)
(2.45239e-05 -1.87262e-05 0)
(2.92418e-05 -1.32614e-05 0)
(3.21171e-05 -7.62543e-06 0)
(3.31521e-05 -2.0626e-06 0)
(3.23924e-05 3.15943e-06 0)
(2.99934e-05 7.8426e-06 0)
(2.61778e-05 1.18145e-05 0)
(2.1168e-05 1.49362e-05 0)
(1.52728e-05 1.71527e-05 0)
(8.81684e-06 1.83985e-05 0)
(2.09443e-06 1.87232e-05 0)
(-4.54239e-06 1.81516e-05 0)
(-1.08018e-05 1.67681e-05 0)
(-1.6431e-05 1.46917e-05 0)
(-2.11953e-05 1.20509e-05 0)
(-2.49154e-05 8.98449e-06 0)
(-2.74611e-05 5.65997e-06 0)
(-2.87571e-05 2.21516e-06 0)
(-2.87748e-05 -1.19622e-06 0)
(-2.75391e-05 -4.44427e-06 0)
(-2.51228e-05 -7.41135e-06 0)
(-2.16414e-05 -9.9924e-06 0)
(-1.72425e-05 -1.21121e-05 0)
(-1.21094e-05 -1.37115e-05 0)
(-6.45656e-06 -1.47488e-05 0)
(-4.34636e-07 -1.52192e-05 0)
(5.70502e-06 -1.51271e-05 0)
(1.16914e-05 -1.45013e-05 0)
(1.73604e-05 -1.33782e-05 0)
(2.251e-05 -1.18095e-05 0)
(2.69662e-05 -9.8718e-06 0)
(3.05803e-05 -7.63272e-06 0)
(3.32321e-05 -5.1768e-06 0)
(3.4827e-05 -2.58574e-06 0)
(3.53103e-05 5.3861e-08 0)
(3.46603e-05 2.66253e-06 0)
(3.28846e-05 5.15785e-06 0)
(3.00282e-05 7.46579e-06 0)
(2.61714e-05 9.51876e-06 0)
(2.14212e-05 1.12518e-05 0)
(1.59152e-05 1.26125e-05 0)
(9.81879e-06 1.35533e-05 0)
(3.32242e-06 1.40386e-05 0)
(4.69835e-06 -0.000239691 0)
(1.41641e-05 -0.000239729 0)
(2.37932e-05 -0.000239503 0)
(3.35656e-05 -0.000239189 0)
(4.35247e-05 -0.000238803 0)
(5.37435e-05 -0.000238382 0)
(6.41342e-05 -0.000237895 0)
(7.47554e-05 -0.000237377 0)
(8.54846e-05 -0.000236711 0)
(9.65356e-05 -0.00023601 0)
(0.000108003 -0.000235285 0)
(0.000119911 -0.000234705 0)
(0.000132095 -0.000234282 0)
(0.000144432 -0.00023411 0)
(0.00015693 -0.00023413 0)
(0.000169343 -0.00023436 0)
(0.000181979 -0.000234702 0)
(0.000194802 -0.00023517 0)
(0.000207856 -0.000235581 0)
(0.00022097 -0.000235906 0)
(0.000234305 -0.00023605 0)
(0.000248219 -0.000235991 0)
(0.000262645 -0.000235708 0)
(0.00027743 -0.00023503 0)
(0.000292916 -0.000233969 0)
(0.000308904 -0.000232311 0)
(0.000325222 -0.000230118 0)
(0.000341616 -0.000227352 0)
(0.000357891 -0.000223807 0)
(0.000374347 -0.000219617 0)
(0.000389932 -0.000214689 0)
(0.000405441 -0.000208817 0)
(0.000421154 -0.000201936 0)
(0.000436407 -0.00019384 0)
(0.000452023 -0.000184524 0)
(0.000467082 -0.000173831 0)
(0.000481343 -0.000161744 0)
(0.000495215 -0.000148165 0)
(0.000508065 -0.000133093 0)
(0.000519832 -0.000116555 0)
(0.000530399 -9.85357e-05 0)
(0.000539546 -7.91244e-05 0)
(0.000547111 -5.84008e-05 0)
(0.000552995 -3.64468e-05 0)
(0.000556902 -1.34377e-05 0)
(0.000558513 1.04405e-05 0)
(0.000557715 3.51091e-05 0)
(0.000554244 6.04197e-05 0)
(0.000548303 8.61333e-05 0)
(0.000539796 0.000112069 0)
(0.000528639 0.000137954 0)
(0.000515044 0.000163617 0)
(0.000498789 0.000188606 0)
(0.000479968 0.000213035 0)
(0.000458502 0.000236196 0)
(0.000434292 0.000258073 0)
(0.000407881 0.000278394 0)
(0.000379388 0.000296804 0)
(0.000348438 0.000313059 0)
(0.000315326 0.000327056 0)
(0.000280758 0.000338453 0)
(0.000244916 0.000347062 0)
(0.00020782 0.000352852 0)
(0.000170003 0.000355429 0)
(0.000131731 0.000354922 0)
(9.348e-05 0.000351118 0)
(5.5554e-05 0.000344032 0)
(1.84141e-05 0.000333666 0)
(-1.7469e-05 0.000320084 0)
(-5.18457e-05 0.00030336 0)
(-8.41998e-05 0.000283659 0)
(-0.000114132 0.000261157 0)
(-0.000141265 0.000236152 0)
(-0.000165243 0.000208884 0)
(-0.000185707 0.000179749 0)
(-0.000202421 0.000149059 0)
(-0.000215079 0.000117284 0)
(-0.000223567 8.48412e-05 0)
(-0.000227804 5.22445e-05 0)
(-0.000227646 1.99633e-05 0)
(-0.000223032 -1.14141e-05 0)
(-0.000214204 -4.14756e-05 0)
(-0.000201371 -6.97534e-05 0)
(-0.000184783 -9.56913e-05 0)
(-0.000164659 -0.000118848 0)
(-0.000141407 -0.000138814 0)
(-0.000115599 -0.000155218 0)
(-8.76892e-05 -0.000167743 0)
(-5.83104e-05 -0.00017618 0)
(-2.80878e-05 -0.000180353 0)
(2.2985e-06 -0.000180213 0)
(3.21669e-05 -0.000175798 0)
(6.08046e-05 -0.000167216 0)
(8.75068e-05 -0.000154709 0)
(0.000111638 -0.000138562 0)
(0.000132646 -0.000119238 0)
(0.000150031 -9.72051e-05 0)
(0.000163274 -7.31108e-05 0)
(0.000172032 -4.75837e-05 0)
(0.000176121 -2.13723e-05 0)
(0.000175345 4.80248e-06 0)
(0.000169796 3.02255e-05 0)
(0.000159738 5.41878e-05 0)
(0.000145425 7.59062e-05 0)
(0.000127292 9.4768e-05 0)
(0.000105946 0.000110168 0)
(8.20751e-05 0.00012163 0)
(5.64796e-05 0.000128826 0)
(3.00067e-05 0.000131504 0)
(3.57772e-06 0.000129656 0)
(-2.18989e-05 0.00012331 0)
(-4.55228e-05 0.000112794 0)
(-6.64158e-05 9.84748e-05 0)
(-8.38674e-05 8.0977e-05 0)
(-9.72551e-05 6.09719e-05 0)
(-0.000106089 3.92572e-05 0)
(-0.000110112 1.67605e-05 0)
(-0.000109116 -5.59762e-06 0)
(-0.000103236 -2.69268e-05 0)
(-9.29065e-05 -4.63234e-05 0)
(-7.85663e-05 -6.29608e-05 0)
(-6.09231e-05 -7.61739e-05 0)
(-4.08491e-05 -8.53853e-05 0)
(-1.93009e-05 -9.02549e-05 0)
(2.7216e-06 -9.06081e-05 0)
(2.40916e-05 -8.65646e-05 0)
(4.37603e-05 -7.83888e-05 0)
(6.08647e-05 -6.65459e-05 0)
(7.45661e-05 -5.17173e-05 0)
(8.42415e-05 -3.47367e-05 0)
(8.94607e-05 -1.64826e-05 0)
(9.00446e-05 2.07507e-06 0)
(8.61727e-05 2.00557e-05 0)
(7.80296e-05 3.65415e-05 0)
(6.6118e-05 5.07646e-05 0)
(5.11726e-05 6.20982e-05 0)
(3.3934e-05 7.00289e-05 0)
(1.53718e-05 7.43345e-05 0)
(-3.62361e-06 7.49424e-05 0)
(-2.20722e-05 7.19976e-05 0)
(-3.90784e-05 6.57827e-05 0)
(-5.39124e-05 5.68061e-05 0)
(-6.59544e-05 4.56228e-05 0)
(-7.47757e-05 3.29187e-05 0)
(-8.01034e-05 1.93928e-05 0)
(-8.18606e-05 5.77999e-06 0)
(-8.01651e-05 -7.30591e-06 0)
(-7.52905e-05 -1.92296e-05 0)
(-6.76087e-05 -2.95038e-05 0)
(-5.76542e-05 -3.77597e-05 0)
(-4.60203e-05 -4.37235e-05 0)
(-3.33245e-05 -4.72974e-05 0)
(-2.02258e-05 -4.84696e-05 0)
(-7.3355e-06 -4.73721e-05 0)
(4.77861e-06 -4.42254e-05 0)
(1.56223e-05 -3.93208e-05 0)
(2.47935e-05 -3.30301e-05 0)
(3.20113e-05 -2.57361e-05 0)
(3.70706e-05 -1.78621e-05 0)
(3.99019e-05 -9.80048e-06 0)
(4.05323e-05 -1.94295e-06 0)
(3.90727e-05 5.38233e-06 0)
(3.5746e-05 1.18861e-05 0)
(3.08127e-05 1.73443e-05 0)
(2.45956e-05 2.15698e-05 0)
(1.74489e-05 2.45092e-05 0)
(9.76521e-06 2.60958e-05 0)
(1.88734e-06 2.63657e-05 0)
(-5.80689e-06 2.54159e-05 0)
(-1.29674e-05 2.33511e-05 0)
(-1.93249e-05 2.03432e-05 0)
(-2.46369e-05 1.65823e-05 0)
(-2.87148e-05 1.22654e-05 0)
(-3.14299e-05 7.61637e-06 0)
(-3.27222e-05 2.83098e-06 0)
(-3.25756e-05 -1.88239e-06 0)
(-3.10383e-05 -6.34285e-06 0)
(-2.82038e-05 -1.03991e-05 0)
(-2.42161e-05 -1.39069e-05 0)
(-1.92501e-05 -1.67691e-05 0)
(-1.35114e-05 -1.89052e-05 0)
(-7.24209e-06 -2.0275e-05 0)
(-6.17629e-07 -2.0861e-05 0)
(6.08821e-06 -2.06856e-05 0)
(1.26e-05 -1.97842e-05 0)
(1.87322e-05 -1.82092e-05 0)
(2.42682e-05 -1.6045e-05 0)
(2.90346e-05 -1.33775e-05 0)
(3.28762e-05 -1.03155e-05 0)
(3.56677e-05 -6.96587e-06 0)
(3.73203e-05 -3.44585e-06 0)
(3.77828e-05 1.37576e-07 0)
(3.70341e-05 3.66686e-06 0)
(3.50922e-05 7.03949e-06 0)
(3.20096e-05 1.0155e-05 0)
(2.78703e-05 1.29202e-05 0)
(2.27923e-05 1.52551e-05 0)
(1.69236e-05 1.70858e-05 0)
(1.04374e-05 1.83497e-05 0)
(3.53165e-06 1.90027e-05 0)
(4.98365e-06 -0.00037579 0)
(1.4768e-05 -0.000377287 0)
(2.44632e-05 -0.000377594 0)
(3.40367e-05 -0.00037799 0)
(4.34327e-05 -0.000378326 0)
(5.28714e-05 -0.000378585 0)
(6.24137e-05 -0.000378275 0)
(7.25866e-05 -0.000377871 0)
(8.29579e-05 -0.00037645 0)
(9.28422e-05 -0.000374542 0)
(0.000102027 -0.000371549 0)
(0.000110444 -0.000367797 0)
(0.000118634 -0.000363349 0)
(0.000126911 -0.000358544 0)
(0.000135594 -0.000353578 0)
(0.000145045 -0.000348858 0)
(0.000155199 -0.000344585 0)
(0.000166575 -0.000341052 0)
(0.000179201 -0.000338539 0)
(0.000192609 -0.000337011 0)
(0.00020689 -0.000336385 0)
(0.000221555 -0.000336669 0)
(0.000237446 -0.000337568 0)
(0.000254103 -0.000338811 0)
(0.000271884 -0.000339948 0)
(0.000290667 -0.0003409 0)
(0.000309112 -0.000340752 0)
(0.000328558 -0.000340108 0)
(0.00034838 -0.000337376 0)
(0.000368022 -0.000333741 0)
(0.000388543 -0.000327918 0)
(0.000409873 -0.000320539 0)
(0.00043203 -0.00031119 0)
(0.00045449 -0.000299782 0)
(0.000477074 -0.000286213 0)
(0.000499679 -0.000270508 0)
(0.000522003 -0.00025249 0)
(0.000543755 -0.000232257 0)
(0.00056443 -0.000209792 0)
(0.000584017 -0.000185157 0)
(0.000602015 -0.000158452 0)
(0.000617974 -0.000129835 0)
(0.000631815 -9.93013e-05 0)
(0.000643021 -6.71869e-05 0)
(0.000651228 -3.36305e-05 0)
(0.000656616 1.23929e-06 0)
(0.000659144 3.72148e-05 0)
(0.000658183 7.38429e-05 0)
(0.000653691 0.000110969 0)
(0.000645535 0.000148208 0)
(0.00063373 0.000185388 0)
(0.000617744 0.000222052 0)
(0.000598494 0.000257915 0)
(0.000575357 0.000292491 0)
(0.000547865 0.000325554 0)
(0.000517285 0.000356559 0)
(0.00048338 0.000385271 0)
(0.000445955 0.000411162 0)
(0.00040573 0.000434001 0)
(0.000363094 0.000453464 0)
(0.000317636 0.000469221 0)
(0.000270775 0.000481029 0)
(0.000222282 0.000488488 0)
(0.000172674 0.000491723 0)
(0.000122825 0.000490234 0)
(7.28242e-05 0.000484252 0)
(2.34469e-05 0.000473461 0)
(-2.46972e-05 0.000458116 0)
(-7.11861e-05 0.000438116 0)
(-0.000115388 0.000413744 0)
(-0.00015672 0.000385171 0)
(-0.000194671 0.000352723 0)
(-0.000228707 0.000316739 0)
(-0.00025833 0.000277681 0)
(-0.000283206 0.000236005 0)
(-0.000302924 0.00019228 0)
(-0.000317088 0.000147129 0)
(-0.000325626 0.000101159 0)
(-0.000328331 5.5111e-05 0)
(-0.000324955 9.7024e-06 0)
(-0.000315719 -3.43428e-05 0)
(-0.000301035 -7.64025e-05 0)
(-0.000280959 -0.000115673 0)
(-0.000255797 -0.000151514 0)
(-0.000226076 -0.000183236 0)
(-0.000192364 -0.000210328 0)
(-0.000155323 -0.00023222 0)
(-0.000115751 -0.000248549 0)
(-7.445e-05 -0.000258958 0)
(-3.22969e-05 -0.000263309 0)
(9.73869e-06 -0.000261466 0)
(5.07518e-05 -0.000253539 0)
(8.98062e-05 -0.000239695 0)
(0.000126025 -0.000220329 0)
(0.00015851 -0.000195912 0)
(0.000186436 -0.000167086 0)
(0.000209063 -0.000134618 0)
(0.000225823 -9.93573e-05 0)
(0.000236317 -6.22418e-05 0)
(0.000240286 -2.43114e-05 0)
(0.000237704 1.3333e-05 0)
(0.000228665 4.97e-05 0)
(0.000213427 8.37324e-05 0)
(0.000192435 0.000114372 0)
(0.000166365 0.000140731 0)
(0.000136031 0.000161977 0)
(0.000102505 0.000177469 0)
(6.68198e-05 0.000186728 0)
(3.02505e-05 0.000189489 0)
(-6.02255e-06 0.000185685 0)
(-4.0694e-05 0.000175514 0)
(-7.25298e-05 0.00015941 0)
(-0.00010041 0.000137998 0)
(-0.000123284 0.000112085 0)
(-0.000140459 8.27901e-05 0)
(-0.000151193 5.12635e-05 0)
(-0.000155169 1.88232e-05 0)
(-0.000152366 -1.31578e-05 0)
(-0.000143002 -4.34777e-05 0)
(-0.000127553 -7.08199e-05 0)
(-0.000106814 -9.40376e-05 0)
(-8.17585e-05 -0.000112148 0)
(-5.35786e-05 -0.000124436 0)
(-2.36476e-05 -0.000130475 0)
(6.56093e-06 -0.000130015 0)
(3.55692e-05 -0.000123316 0)
(6.20258e-05 -0.00011077 0)
(8.4678e-05 -9.32089e-05 0)
(0.000102468 -7.15922e-05 0)
(0.000114654 -4.71107e-05 0)
(0.000120772 -2.10652e-05 0)
(0.00012068 5.16277e-06 0)
(0.000114595 3.03389e-05 0)
(0.000102934 5.31039e-05 0)
(8.64923e-05 7.24781e-05 0)
(6.61957e-05 8.76138e-05 0)
(4.32016e-05 9.78684e-05 0)
(1.8824e-05 0.000102999 0)
(-5.77576e-06 0.000103004 0)
(-2.93527e-05 9.80887e-05 0)
(-5.07301e-05 8.8799e-05 0)
(-6.90267e-05 7.58227e-05 0)
(-8.35449e-05 6.00175e-05 0)
(-9.37651e-05 4.23414e-05 0)
(-9.94253e-05 2.37707e-05 0)
(-0.000100564 5.26192e-06 0)
(-9.74027e-05 -1.22665e-05 0)
(-9.03235e-05 -2.80539e-05 0)
(-7.99404e-05 -4.14652e-05 0)
(-6.69232e-05 -5.20206e-05 0)
(-5.20643e-05 -5.9439e-05 0)
(-3.61797e-05 -6.36086e-05 0)
(-2.00515e-05 -6.45858e-05 0)
(-4.44542e-06 -6.25664e-05 0)
(9.98991e-06 -5.78916e-05 0)
(2.26844e-05 -5.09864e-05 0)
(3.31987e-05 -4.23492e-05 0)
(4.12311e-05 -3.25104e-05 0)
(4.66015e-05 -2.20231e-05 0)
(4.92677e-05 -1.14102e-05 0)
(4.93279e-05 -1.15804e-06 0)
(4.69623e-05 8.30032e-06 0)
(4.24576e-05 1.66214e-05 0)
(3.61582e-05 2.3506e-05 0)
(2.8474e-05 2.87822e-05 0)
(1.98418e-05 3.23367e-05 0)
(1.0681e-05 3.41512e-05 0)
(1.4441e-06 3.42621e-05 0)
(-7.45573e-06 3.28223e-05 0)
(-1.56595e-05 2.99786e-05 0)
(-2.28454e-05 2.59628e-05 0)
(-2.87669e-05 2.10138e-05 0)
(-3.32269e-05 1.54075e-05 0)
(-3.61093e-05 9.4056e-06 0)
(-3.73668e-05 3.27828e-06 0)
(-3.69972e-05 -2.72161e-06 0)
(-3.50869e-05 -8.36888e-06 0)
(-3.17509e-05 -1.34701e-05 0)
(-2.71609e-05 -1.78602e-05 0)
(-2.15261e-05 -2.14109e-05 0)
(-1.50818e-05 -2.40401e-05 0)
(-8.09867e-06 -2.56944e-05 0)
(-7.80397e-07 -2.63552e-05 0)
(6.5787e-06 -2.6066e-05 0)
(1.36863e-05 -2.48648e-05 0)
(2.03416e-05 -2.28324e-05 0)
(2.63197e-05 -2.00698e-05 0)
(3.14334e-05 -1.6693e-05 0)
(3.55234e-05 -1.28324e-05 0)
(3.84686e-05 -8.62869e-06 0)
(4.01803e-05 -4.21599e-06 0)
(4.06098e-05 2.57332e-07 0)
(3.97443e-05 4.65868e-06 0)
(3.76095e-05 8.8549e-06 0)
(3.42624e-05 1.27241e-05 0)
(2.98018e-05 1.61533e-05 0)
(2.43527e-05 1.90471e-05 0)
(1.80687e-05 2.13138e-05 0)
(1.11384e-05 2.28828e-05 0)
(3.7685e-06 2.36883e-05 0)
(4.0136e-06 -0.000339688 0)
(1.20116e-05 -0.000336776 0)
(2.05275e-05 -0.000332835 0)
(3.02375e-05 -0.000326921 0)
(4.10288e-05 -0.000319008 0)
(5.46717e-05 -0.000309582 0)
(6.84766e-05 -0.000298174 0)
(8.46722e-05 -0.000286864 0)
(0.000102659 -0.000273796 0)
(0.000120982 -0.00026337 0)
(0.0001409 -0.000254745 0)
(0.000159061 -0.000249802 0)
(0.000175389 -0.000248272 0)
(0.000189239 -0.000250189 0)
(0.000200398 -0.000255209 0)
(0.00020875 -0.000262857 0)
(0.00021511 -0.000272667 0)
(0.000219247 -0.000283945 0)
(0.000222998 -0.000296334 0)
(0.000227494 -0.000309206 0)
(0.000232667 -0.000322301 0)
(0.000239884 -0.000335482 0)