/*--------------------------------*- C++ -*----------------------------------*\
  =========                 |
  \\      /  F ield         | OpenFOAM: The Open Source CFD Toolbox
   \\    /   O peration     | Website:  https://openfoam.org
    \\  /    A nd           | Version:  12
     \\/     M anipulation  |
\*---------------------------------------------------------------------------*/
FoamFile
{
    format      ascii;
    class       volVectorField;
    location    "6";
    object      zeta;
}
// * * * * * * * * * * * * * * * * * * * * * * * * * * * * * * * * * * * * * //

dimensions      [0 1 0 0 0 0 0];

internalField   uniform (0 0 0);

boundaryField
{
    freeSurface
    {
        type            calculated;
        value           nonuniform List<vector> 
181
(
(0 0.00355367 0)
(0 0.00355343 0)
(0 0.00355306 0)
(0 0.00355258 0)
(0 0.00355195 0)
(0 0.00355146 0)
(0 0.00355115 0)
(0 0.0035503 0)
(0 0.000498647 0)
(0 0.000502225 0)
(0 0.000511633 0)
(0 0.000522948 0)
(0 0.000538161 0)
(0 0.000556023 0)
(0 0.000576066 0)
(0 0.000597772 0)
(0 0.000620541 0)
(0 0.000643816 0)
(0 0.000666866 0)
(0 0.000689063 0)
(0 0.000709777 0)
(0 0.000728402 0)
(0 0.000744537 0)
(0 0.000757647 0)
(0 0.000767405 0)
(0 0.000773396 0)
(0 0.000775237 0)
(0 0.000772623 0)
(0 0.000765319 0)
(0 0.000753157 0)
(0 0.000736018 0)
(0 0.000713869 0)
(0 0.000686683 0)
(0 0.000654504 0)
(0 0.000617456 0)
(0 0.000575714 0)
(0 0.000529515 0)
(0 0.000479202 0)
(0 0.000425153 0)
(0 0.00036775 0)
(0 0.000307501 0)
(0 0.000244937 0)
(0 0.000180658 0)
(0 0.000115306 0)
(0 4.95754e-05 0)
(0 -1.57574e-05 0)
(0 -7.9961e-05 0)
(0 -0.000142341 0)
(0 -0.000202024 0)
(0 -0.000258307 0)
(0 -0.000310333 0)
(0 -0.000357481 0)
(0 -0.000399016 0)
(0 -0.000434309 0)
(0 -0.000462872 0)
(0 -0.000484199 0)
(0 -0.000497883 0)
(0 -0.000503692 0)
(0 -0.000501474 0)
(0 -0.000491157 0)
(0 -0.0004729 0)
(0 -0.000446975 0)
(0 -0.00041377 0)
(0 -0.000373874 0)
(0 -0.000327924 0)
(0 -0.000276845 0)
(0 -0.00022152 0)
(0 -0.000163067 0)
(0 -0.000102645 0)
(0 -4.15207e-05 0)
(0 1.90158e-05 0)
(0 7.76623e-05 0)
(0 0.000133092 0)
(0 0.000184011 0)
(0 0.000229251 0)
(0 0.000267711 0)
(0 0.000298441 0)
(0 0.000320637 0)
(0 0.000333746 0)
(0 0.00033742 0)
(0 0.000331582 0)
(0 0.000316379 0)
(0 0.000292298 0)
(0 0.000260038 0)
(0 0.000220609 0)
(0 0.000175225 0)
(0 0.000125354 0)
(0 7.26201e-05 0)
(0 1.87673e-05 0)
(0 -3.43612e-05 0)
(0 -8.49959e-05 0)
(0 -0.000131369 0)
(0 -0.000171882 0)
(0 -0.000205081 0)
(0 -0.000229814 0)
(0 -0.00024518 0)
(0 -0.00025069 0)
(0 -0.000246141 0)
(0 -0.000231838 0)
(0 -0.0002085 0)
(0 -0.000177276 0)
(0 -0.0001397 0)
(0 -9.76559e-05 0)
(0 -5.32805e-05 0)
(0 -8.77166e-06 0)
(0 3.36217e-05 0)
(0 7.18278e-05 0)
(0 0.000104046 0)
(0 0.000128843 0)
(0 0.000145302 0)
(0 0.000152986 0)
(0 0.000151977 0)
(0 0.000142857 0)
(0 0.000126659 0)
(0 0.000104737 0)
(0 7.86789e-05 0)
(0 5.01823e-05 0)
(0 2.09676e-05 0)
(0 -7.36293e-06 0)
(0 -3.34084e-05 0)
(0 -5.60095e-05 0)
(0 -7.4298e-05 0)
(0 -8.77453e-05 0)
(0 -9.6105e-05 0)
(0 -9.94453e-05 0)
(0 -9.80799e-05 0)
(0 -9.25233e-05 0)
(0 -8.34701e-05 0)
(0 -7.16933e-05 0)
(0 -5.80239e-05 0)
(0 -4.32885e-05 0)
(0 -2.82766e-05 0)
(0 -1.37001e-05 0)
(0 -1.54348e-07 0)
(0 1.18598e-05 0)
(0 2.19709e-05 0)
(0 2.9946e-05 0)
(0 3.56621e-05 0)
(0 3.91141e-05 0)
(0 4.03796e-05 0)
(0 3.96303e-05 0)
(0 3.70986e-05 0)
(0 3.30632e-05 0)
(0 2.78341e-05 0)
(0 2.17326e-05 0)
(0 1.50805e-05 0)
(0 8.18483e-06 0)
(0 1.32812e-06 0)
(0 -5.23837e-06 0)
(0 -1.1301e-05 0)
(0 -1.66901e-05 0)
(0 -2.12815e-05 0)
(0 -2.49909e-05 0)
(0 -2.7776e-05 0)
(0 -2.96316e-05 0)
(0 -3.05898e-05 0)
(0 -3.07126e-05 0)
(0 -3.00867e-05 0)
(0 -2.88216e-05 0)
(0 -2.7033e-05 0)
(0 -2.48465e-05 0)
(0 -2.23855e-05 0)
(0 -1.97713e-05 0)
(0 -1.71227e-05 0)
(0 -1.45485e-05 0)
(0 -1.21437e-05 0)
(0 -9.98652e-06 0)
(0 -8.13551e-06 0)
(0 -6.62719e-06 0)
(0 -5.47698e-06 0)
(0 -4.68046e-06 0)
(0 -4.21898e-06 0)
(0 -4.05919e-06 0)
(0 -4.15626e-06 0)
(0 -4.45506e-06 0)
(0 -4.89163e-06 0)
(0 -5.39641e-06 0)
(0 -5.90073e-06 0)
(0 -6.34424e-06 0)
(0 -6.67498e-06 0)
(0 -6.85355e-06 0)
)
;
    }
    walls
    {
        type            calculated;
        value           uniform (0 0 0);
    }
    floatingObject
    {
        type            calculated;
        value           uniform (0 0 0);
    }
    frontAndBack
    {
        type            empty;
    }
}


// ************************************************************************* //
