#           v             n
     0.523599   3.87016e-05
     0.648652   1.34678e-05
     0.790112   1.94575e-05
     0.953116   2.95935e-05
      1.13449   4.49806e-05
      1.34047   7.14034e-05
      1.56672   0.000112388
      1.82069   0.000182916
      2.09677   0.000292158
      2.40376   0.000476712
      2.73462   0.000753435
      3.09966     0.0011987
      3.49026    0.00181676
      3.91837    0.00272153
      4.37366    0.00380104
      4.86986    0.00512637
       5.3948    0.00626558
      5.96412    0.00717621
      6.56366    0.00717237
      7.21112    0.00645894
      7.89023    0.00480368
      8.62085    0.00299695
      9.38447     0.0013186
      10.2033   0.000333882
      11.0564             0
      11.9684             0
      12.9159             0
      13.9262             0
      14.9731             0
