# Probe 0 (0 0 0)
# Time            0                
0                 0                
0.0025            208.6543252      
0.005             284.8581492      
0.0075            352.1379016      
0.01              411.5889518      
0.0125            464.2229285      
0.015             510.9145582      
0.0175            552.4189018      
0.02              589.3874054      
0.0225            622.3823268      
0.025             651.8894092      
0.0275            678.32886        
0.03              702.0647807      
0.0325            723.4132242      
0.035             742.6490581      
0.0375            760.0118023      
0.04              775.7105929      
0.0425            789.9284037      
0.045             802.8256379      
0.0475            814.5431935      
0.05              825.2050748      
0.0525            834.920628       
0.055             843.7864543      
0.0575            851.888053       
0.06              859.3012324      
0.0625            866.0933264      
0.065             872.3242439      
0.0675            878.0473761      
0.07              883.3103831      
0.0725            888.1558763      
0.075             892.622012       
0.0775            896.7430085      
0.08              900.5495976      
0.0825            904.0694191      
0.085             907.3273667      
0.0875            910.34589        
0.09              913.1452653      
0.0925            915.7438259      
0.095             918.1581701      
0.0975            920.4033447      
0.1               922.4930055      
0.1025            924.4395614      
0.105             926.2543004      
0.1075            927.9475031      
0.11              929.5285427      
0.1125            931.005974       
0.115             932.3876132      
0.1175            933.6806093      
0.12              934.8915069      
0.1225            936.026304       
0.125             937.0905025      
0.1275            938.089154       
0.13              939.0269009      
0.1325            939.9080135      
0.135             940.7364255      
0.1375            941.5157571      
0.14              942.2493491      
0.1425            942.9402849      
0.145             943.591413       
0.1475            944.2053664      
0.15              944.7845812      
0.1525            945.3313129      
0.155             945.8476515      
0.1575            946.3355345      
0.16              946.7967603      
0.1625            947.2329983      
0.165             947.6458002      
0.1675            948.036608       
0.17              948.4067641      
0.1725            948.7575179      
0.175             949.0900337      
0.1775            949.4053963      
0.18              949.7046181      
0.1825            949.9886437      
0.185             950.2583553      
0.1875            950.5145772      
0.19              950.7580801      
0.1925            950.9895849      
0.195             951.2097663      
0.1975            951.4192563      
0.2               951.6186468      
0.2025            951.8084929      
0.205             951.9893152      
0.2075            952.161602       
0.21              952.325812       
0.2125            952.482376       
0.215             952.6316988      
0.2175            952.7741609      
0.22              952.9101204      
0.2225            953.0399141      
0.225             953.1638592      
0.2275            953.2822545      
0.23              953.3953816      
0.2325            953.5035057      
0.235             953.6068771      
0.2375            953.7057321      
0.24              953.8002934      
0.2425            953.8907717      
0.245             953.9773657      
0.2475            954.0602633      
0.25              954.1396421      
0.2525            954.2156702      
0.255             954.2885064      
0.2575            954.3583014      
0.26              954.4251974      
0.2625            954.4893295      
0.265             954.5508255      
0.2675            954.6098065      
0.27              954.6663875      
0.2725            954.7206775      
0.275             954.7727798      
0.2775            954.8227926      
0.28              954.8708092      
0.2825            954.916918       
0.285             954.9612032      
0.2875            955.0037454      
0.29              955.0446198      
0.2925            955.0838988      
0.295             955.1216514      
0.2975            955.1579426      
0.3               955.1928351      
0.3025            955.2263882      
0.305             955.2586581      
0.3075            955.2896989      
0.31              955.3195619      
0.3125            955.348296       
0.315             955.3759479      
0.3175            955.402562       
0.32              955.4281809      
0.3225            955.4528452      
0.325             955.4765933      
0.3275            955.4994625      
0.33              955.5214879      
0.3325            955.5427033      
0.335             955.5631409      
0.3375            955.5828315      
0.34              955.6018047      
0.3425            955.6200885      
0.345             955.63771        
0.3475            955.6546949      
0.35              955.671068       
0.3525            955.6868528      
0.355             955.702072       
0.3575            955.7167473      
0.36              955.7308994      
0.3625            955.7445483      
0.365             955.7577131      
0.3675            955.7704119      
0.37              955.7826623      
0.3725            955.7944812      
0.375             955.8058846      
0.3775            955.816888       
0.38              955.8275065      
0.3825            955.8377539      
0.385             955.8476441      
0.3875            955.8571904      
0.39              955.866405       
0.3925            955.8753003      
0.395             955.8838879      
0.3975            955.892179       
0.4               955.9001842      
0.4025            955.9079138      
0.405             955.915378       
0.4075            955.9225862      
0.41              955.9295475      
0.4125            955.9362708      
0.415             955.9427646      
0.4175            955.9490369      
0.42              955.9550958      
0.4225            955.9609486      
0.425             955.9666028      
0.4275            955.9720652      
0.43              955.9773427      
0.4325            955.9824416      
0.435             955.9873685      
0.4375            955.992129       
0.44              955.9967292      
0.4425            956.0011745      
0.445             956.0054703      
0.4475            956.009622       
0.45              956.0136343      
0.4525            956.0175121      
0.455             956.0212602      
0.4575            956.0248827      
0.46              956.0283843      
0.4625            956.0317688      
0.465             956.0350405      
0.4675            956.0382032      
0.47              956.0412605      
0.4725            956.0442161      
0.475             956.0470735      
0.4775            956.0498359      
0.48              956.0525066      
0.4825            956.0550887      
0.485             956.0575853      
0.4875            956.0599992      
0.49              956.0623331      
0.4925            956.0645899      
0.495             956.066772       
0.4975            956.0688821      
0.5               956.0709225      
