# Probe 0 (0 0 0)
# Time            0                
0                 0                
0.0025            -7.607760516e-05 
0.005             -9.48385277e-05  
0.0075            -0.000111087167  
0.01              -0.0001252147751 
0.0125            -0.0001375628472 
0.015             -0.000148407935  
0.0175            -0.000157975761  
0.02              -0.0001664519057 
0.0225            -0.0001739899894 
0.025             -0.0001807179898 
0.0275            -0.000186743161  
0.03              -0.0001921558945 
0.0325            -0.0001970327725 
0.035             -0.0002014389991 
0.0375            -0.0002054303501 
0.04              -0.0002090547461 
0.0425            -0.0002123535299 
0.045             -0.0002153625093 
0.0475            -0.0002181128135 
0.05              -0.0002206315996 
0.0525            -0.0002229426386 
0.055             -0.0002250668037 
0.0575            -0.0002270224787 
0.06              -0.000228825902  
0.0625            -0.0002304914556 
0.065             -0.0002320319112 
0.0675            -0.0002334586386 
0.07              -0.0002347817838 
0.0725            -0.0002360104215 
0.075             -0.0002371526861 
0.0775            -0.0002382158842 
0.08              -0.0002392065922 
0.0825            -0.0002401307409 
0.085             -0.0002409936885 
0.0875            -0.000241800283  
0.09              -0.0002425549235 
0.0925            -0.0002432616033 
0.095             -0.0002439239545 
0.0975            -0.0002445452862 
0.1               -0.0002451286174 
0.1025            -0.0002456767063 
0.105             -0.0002461920767 
0.1075            -0.0002466770404 
0.11              -0.0002471337183 
0.1125            -0.0002475640582 
0.115             -0.0002479698514 
0.1175            -0.0002483527469 
0.12              -0.0002487142643 
0.1225            -0.0002490558062 
0.125             -0.0002493786676 
0.1275            -0.0002496840461 
0.13              -0.0002499730499 
0.1325            -0.0002502467059 
0.135             -0.0002505059661 
0.1375            -0.000250751714  
0.14              -0.0002509847702 
0.1425            -0.0002512058979 
0.145             -0.000251415807  
0.1475            -0.0002516151585 
0.15              -0.0002518045687 
0.1525            -0.000251984612  
0.155             -0.000252155825  
0.1575            -0.0002523187083 
0.16              -0.0002524737304 
0.1625            -0.0002526213289 
0.165             -0.0002527619138 
0.1675            -0.000252895869  
0.17              -0.0002530235539 
0.1725            -0.0002531453061 
0.175             -0.0002532614418 
0.1775            -0.0002533722583 
0.18              -0.0002534780345 
0.1825            -0.0002535790328 
0.185             -0.0002536754999 
0.1875            -0.0002537676678 
0.19              -0.0002538557552 
0.1925            -0.0002539399677 
0.195             -0.0002540204993 
0.1975            -0.0002540975329 
0.2               -0.000254171241  
0.2025            -0.0002542417864 
0.205             -0.0002543093227 
0.2075            -0.0002543739952 
0.21              -0.0002544359411 
0.2125            -0.0002544952901 
0.215             -0.000254552165  
0.2175            -0.0002546066818 
0.22              -0.0002546589504 
0.2225            -0.0002547090751 
0.225             -0.0002547571544 
0.2275            -0.0002548032817 
0.23              -0.0002548475459 
0.2325            -0.0002548900308 
0.235             -0.0002549308164 
0.2375            -0.0002549699784 
0.24              -0.0002550075887 
0.2425            -0.0002550437156 
0.245             -0.0002550784241 
0.2475            -0.0002551117759 
0.25              -0.0002551438297 
0.2525            -0.0002551746413 
0.255             -0.0002552042639 
0.2575            -0.000255232748  
0.26              -0.0002552601419 
0.2625            -0.0002552864914 
0.265             -0.0002553118401 
0.2675            -0.0002553362299 
0.27              -0.0002553597003 
0.2725            -0.0002553822893 
0.275             -0.0002554040331 
0.2775            -0.000255424966  
0.28              -0.0002554451211 
0.2825            -0.0002554645297 
0.285             -0.0002554832219 
0.2875            -0.0002555012264 
0.29              -0.0002555185705 
0.2925            -0.0002555352805 
0.295             -0.0002555513813 
0.2975            -0.000255566897  
0.3               -0.0002555818504 
0.3025            -0.0002555962634 
0.305             -0.000255610157  
0.3075            -0.0002556235514 
0.31              -0.0002556364656 
0.3125            -0.0002556489182 
0.315             -0.0002556609268 
0.3175            -0.0002556725082 
0.32              -0.0002556836787 
0.3225            -0.0002556944537 
0.325             -0.0002557048482 
0.3275            -0.0002557148765 
0.33              -0.0002557245522 
0.3325            -0.0002557338884 
0.335             -0.0002557428978 
0.3375            -0.0002557515924 
0.34              -0.0002557599839 
0.3425            -0.0002557680834 
0.345             -0.0002557759017 
0.3475            -0.0002557834489 
0.35              -0.0002557907349 
0.3525            -0.0002557977693 
0.355             -0.0002558045612 
0.3575            -0.0002558111193 
0.36              -0.000255817452  
0.3625            -0.0002558235675 
0.365             -0.0002558294735 
0.3675            -0.0002558351775 
0.37              -0.0002558406867 
0.3725            -0.0002558460081 
0.375             -0.0002558511483 
0.3775            -0.0002558561137 
0.38              -0.0002558609105 
0.3825            -0.0002558655446 
0.385             -0.0002558700218 
0.3875            -0.0002558743475 
0.39              -0.0002558785271 
0.3925            -0.0002558825657 
0.395             -0.0002558864682 
0.3975            -0.0002558902392 
0.4               -0.0002558938835 
0.4025            -0.0002558974053 
0.405             -0.000255900809  
0.4075            -0.0002559040985 
0.41              -0.0002559072779 
0.4125            -0.000255910351  
0.415             -0.0002559133213 
0.4175            -0.0002559161924 
0.42              -0.0002559189677 
0.4225            -0.0002559216505 
0.425             -0.000255924244  
0.4275            -0.0002559267511 
0.43              -0.0002559291749 
0.4325            -0.0002559315182 
0.435             -0.0002559337836 
0.4375            -0.0002559359739 
0.44              -0.0002559380916 
0.4425            -0.0002559401391 
0.445             -0.0002559421188 
0.4475            -0.0002559440331 
0.45              -0.000255945884  
0.4525            -0.0002559476738 
0.455             -0.0002559494045 
0.4575            -0.0002559510781 
0.46              -0.0002559526964 
0.4625            -0.0002559542615 
0.465             -0.0002559557749 
0.4675            -0.0002559572386 
0.47              -0.000255958654  
0.4725            -0.0002559600229 
0.475             -0.0002559613468 
0.4775            -0.0002559626272 
0.48              -0.0002559638655 
0.4825            -0.0002559650632 
0.485             -0.0002559662216 
0.4875            -0.0002559673419 
0.49              -0.0002559684256 
0.4925            -0.0002559694737 
0.495             -0.0002559704874 
0.4975            -0.000255971468  
0.5               -0.0002559724165 
