/*--------------------------------*- C++ -*----------------------------------*\
  =========                 |
  \\      /  F ield         | OpenFOAM: The Open Source CFD Toolbox
   \\    /   O peration     | Website:  https://openfoam.org
    \\  /    A nd           | Version:  12
     \\/     M anipulation  |
\*---------------------------------------------------------------------------*/
FoamFile
{
    format      ascii;
    class       volScalarField;
    location    "6.3";
    object      p_rgh;
}
// * * * * * * * * * * * * * * * * * * * * * * * * * * * * * * * * * * * * * //

dimensions      [1 -1 -2 0 0 0 0];

internalField   nonuniform List<scalar> 
3829
(
-1.40258
-1.40216
-1.40131
-1.4
-1.39823
-1.39598
-1.39325
-1.39
-1.38625
-1.38196
-1.37714
-1.37175
-1.36581
-1.35928
-1.35216
-1.34443
-1.33607
-1.32708
-1.31743
-1.30711
-1.29609
-1.28436
-1.2719
-1.25867
-1.24466
-1.22983
-1.21417
-1.19763
-1.1802
-1.16184
-1.14251
-1.1222
-1.10086
-1.07847
-1.055
-1.03044
-1.00475
-0.977959
-0.949951
-0.920779
-0.890487
-0.85911
-0.82668
-0.793234
-0.758821
-0.72351
-0.687378
-0.650522
-0.61305
-0.575089
-0.536777
-0.498268
-0.459733
-0.421351
-0.383316
-0.345831
-0.309112
-0.273378
-0.238855
-0.205766
-0.174337
-0.144793
-0.11735
-0.0922136
-0.0695757
-0.0496133
-0.0324707
-0.01827
-0.0071337
0.000750455
0.00556391
0.00727135
0.00593436
0.00140365
-0.00599158
-0.0160983
-0.0287488
-0.043871
-0.0608331
-0.07937
-0.099164
-0.11983
-0.140951
-0.162103
-0.18285
-0.202754
-0.221379
-0.238307
-0.253157
-0.265585
-0.275299
-0.28207
-0.285756
-0.285855
-0.282536
-0.275941
-0.266232
-0.253617
-0.238368
-0.220845
-0.201488
-0.180792
-0.159305
-0.137604
-0.116279
-0.095998
-0.0772141
-0.0604902
-0.0462917
-0.0350031
-0.0269166
-0.0222431
-0.0211004
-0.023415
-0.0288486
-0.0370567
-0.0475948
-0.0599041
-0.0733749
-0.0873198
-0.100946
-0.113594
-0.124584
-0.133314
-0.139292
-0.14216
-0.141737
-0.13773
-0.130477
-0.1203
-0.10764
-0.0930969
-0.0773848
-0.0612833
-0.0456457
-0.0312583
-0.0188632
-0.00909258
-0.00241909
0.000882251
-0.000232932
-0.00486565
-0.0128062
-0.0236872
-0.0369458
-0.0519697
-0.0678902
-0.0839101
-0.0992436
-0.113122
-0.124871
-0.133949
-0.139969
-0.142718
-0.142083
-0.138272
-0.131569
-0.12241
-0.111353
-0.0990419
-0.0861674
-0.0734295
-0.0615331
-0.0510817
-0.0426229
-0.0365895
-0.0332877
-0.0328924
-0.0354336
-0.0408159
-0.0488009
-0.0590459
-0.071113
-0.0844946
-0.0986349
-0.112959
-0.126897
-0.13992
-0.151033
-0.160692
-0.168058
-0.172883
-0.175004
-0.174354
-0.170961
-0.164946
-0.156517
-0.145969
-0.133659
-0.119601
-0.105
-0.0899276
-0.0748665
-0.0603038
-0.0467063
-0.0345334
-0.0241777
-0.0160061
-0.0103305
-0.00740201
-1.43854
-1.43807
-1.4371
-1.43564
-1.43366
-1.43115
-1.42812
-1.42454
-1.42042
-1.41574
-1.41052
-1.40474
-1.3984
-1.39149
-1.38402
-1.37597
-1.36735
-1.35812
-1.3483
-1.33785
-1.32678
-1.31504
-1.30263
-1.28951
-1.27565
-1.26102
-1.24558
-1.22928
-1.21208
-1.19393
-1.17476
-1.15454
-1.13319
-1.11067
-1.08691
-1.06187
-1.03548
-1.0077
-0.978634
-0.948202
-0.91637
-0.883132
-0.848511
-0.812554
-0.775321
-0.736891
-0.697358
-0.656836
-0.61546
-0.573383
-0.530776
-0.487833
-0.444764
-0.401795
-0.359167
-0.317132
-0.275964
-0.235936
-0.197328
-0.16042
-0.125496
-0.0928409
-0.062724
-0.0353603
-0.0109862
0.00988735
0.0275422
0.0416871
0.0521566
0.0588546
0.0617599
0.0608752
0.0562639
0.0482707
0.0368119
0.0221148
0.00445993
-0.0158303
-0.0385008
-0.0629634
-0.0887208
-0.115346
-0.142336
-0.16916
-0.195282
-0.220164
-0.243279
-0.264122
-0.282237
-0.297208
-0.308681
-0.316373
-0.320089
-0.319536
-0.314846
-0.306135
-0.293577
-0.277446
-0.25813
-0.236112
-0.211961
-0.186313
-0.159859
-0.133327
-0.107452
-0.0829949
-0.0606083
-0.0409262
-0.0244848
-0.0116919
-0.00278779
0.00224349
0.00145018
-0.00310204
-0.0113139
-0.0228354
-0.0371159
-0.0534586
-0.0710827
-0.0891155
-0.106603
-0.12271
-0.136602
-0.147552
-0.154969
-0.15843
-0.157683
-0.152682
-0.143695
-0.131108
-0.11552
-0.0977139
-0.0785874
-0.0591037
-0.0403262
-0.0231939
-0.00860919
0.00266701
0.0100606
0.0131522
0.0119183
0.00637024
-0.00315613
-0.0161173
-0.031781
-0.0493431
-0.0678262
-0.086268
-0.103757
-0.11942
-0.132509
-0.142432
-0.148783
-0.151354
-0.15017
-0.145399
-0.13742
-0.126766
-0.11409
-0.100127
-0.0856577
-0.071455
-0.0582882
-0.0468121
-0.0376037
-0.031113
-0.0276461
-0.0273639
-0.0302714
-0.0362241
-0.0449558
-0.0560727
-0.0690896
-0.0834502
-0.0985525
-0.113777
-0.128509
-0.142155
-0.154114
-0.164113
-0.17172
-0.176652
-0.178743
-0.177934
-0.174267
-0.167878
-0.158996
-0.14793
-0.13504
-0.120547
-0.105359
-0.0897347
-0.074161
-0.0591338
-0.0451299
-0.0325952
-0.0219476
-0.0135534
-0.00772704
-0.00472192
-1.51086
-1.51021
-1.50888
-1.50686
-1.50416
-1.50077
-1.49671
-1.49197
-1.48659
-1.48058
-1.47396
-1.46677
-1.45903
-1.45077
-1.44201
-1.43278
-1.42311
-1.41301
-1.4025
-1.39157
-1.38023
-1.36846
-1.35624
-1.34353
-1.33028
-1.31642
-1.30189
-1.2866
-1.27046
-1.25336
-1.2352
-1.21586
-1.19522
-1.17317
-1.14959
-1.12438
-1.0975
-1.06844
-1.03737
-1.00438
-0.969461
-0.932604
-0.8938
-0.853073
-0.810479
-0.76611
-0.720085
-0.672557
-0.623707
-0.573747
-0.522916
-0.471481
-0.419738
-0.368
-0.316604
-0.265905
-0.216277
-0.168091
-0.121735
-0.0775886
-0.0360268
0.00257443
0.0370141
0.0685405
0.0960806
0.119347
0.138104
0.152154
0.161362
0.165643
0.164976
0.159423
0.148979
0.133932
0.114482
0.0909531
0.0637268
0.0332414
8.29371e-06
-0.0354079
-0.072334
-0.110078
-0.147965
-0.185285
-0.221312
-0.255329
-0.28663
-0.314547
-0.338484
-0.35791
-0.372388
-0.381588
-0.385168
-0.383111
-0.375476
-0.362395
-0.344133
-0.321132
-0.293972
-0.263351
-0.230085
-0.195071
-0.159272
-0.12369
-0.0893646
-0.0572524
-0.0282976
-0.00335874
0.0168184
0.0316254
0.0406163
0.0433935
0.0414719
0.0336768
0.0205599
0.00288153
-0.0184524
-0.0424113
-0.0678684
-0.0935566
-0.118247
-0.14076
-0.159978
-0.174942
-0.184889
-0.189275
-0.187812
-0.180708
-0.168223
-0.15094
-0.129767
-0.105807
-0.0802885
-0.0544552
-0.0298745
-0.00772961
0.0108413
0.0248951
0.033709
0.0368746
0.0346711
0.0269556
0.0142391
-0.00268933
-0.0228289
-0.0450864
-0.0682132
-0.0909998
-0.112309
-0.131092
-0.146476
-0.157802
-0.164647
-0.166836
-0.164504
-0.15791
-0.147588
-0.13423
-0.118657
-0.101771
-0.0844991
-0.0677443
-0.0523869
-0.0391631
-0.0286982
-0.0214656
-0.0177662
-0.0177305
-0.0213154
-0.0283075
-0.0383677
-0.0510213
-0.0656977
-0.0817574
-0.0985228
-0.115306
-0.131434
-0.146272
-0.159253
-0.169956
-0.177997
-0.183105
-0.185128
-0.184033
-0.179884
-0.172848
-0.163189
-0.151247
-0.137411
-0.122058
-0.105914
-0.0893689
-0.072935
-0.0571249
-0.0424291
-0.0292996
-0.0181663
-0.00940121
-0.00332359
-0.000190827
-1.59813
-1.59702
-1.59481
-1.59148
-1.58707
-1.58163
-1.57521
-1.56787
-1.55971
-1.55081
-1.54126
-1.53117
-1.52064
-1.50977
-1.49858
-1.48721
-1.47577
-1.46432
-1.45294
-1.44164
-1.43047
-1.41941
-1.40844
-1.39749
-1.38647
-1.37527
-1.36374
-1.35172
-1.339
-1.32537
-1.31059
-1.29442
-1.27659
-1.25686
-1.23495
-1.21063
-1.18364
-1.1544
-1.12246
-1.08754
-1.04955
-1.00843
-0.964237
-0.917021
-0.86689
-0.813992
-0.758517
-0.700697
-0.640806
-0.579162
-0.516121
-0.452079
-0.387468
-0.322746
-0.258393
-0.194911
-0.132839
-0.0727016
-0.0150471
0.0394928
0.0904412
0.137387
0.179765
0.217149
0.249121
0.275286
0.295343
0.309032
0.316173
0.31668
0.310506
0.297736
0.278636
0.253361
0.222282
0.185874
0.144697
0.099391
0.0506965
-0.000571185
-0.0536109
-0.107326
-0.160837
-0.213149
-0.263267
-0.310217
-0.353046
-0.390865
-0.422869
-0.448348
-0.466704
-0.4775
-0.480519
-0.475776
-0.463306
-0.443329
-0.416298
-0.382908
-0.344016
-0.300637
-0.253944
-0.20521
-0.155793
-0.107097
-0.0605288
-0.0174544
0.0208478
0.053249
0.0787851
0.0967035
0.106459
0.107876
0.10161
0.087569
0.066443
0.0392672
0.00731045
-0.0279474
-0.0648826
-0.101738
-0.136839
-0.168519
-0.195268
-0.2158
-0.229126
-0.234579
-0.231822
-0.221261
-0.203327
-0.178973
-0.149527
-0.116591
-0.0819465
-0.0466574
-0.0139881
0.0151724
0.039263
0.0570764
0.0677683
0.0708924
0.0668596
0.0556777
0.0381602
0.0154466
-0.0110896
-0.0399868
-0.0695799
-0.0983394
-0.124825
-0.147761
-0.166118
-0.17917
-0.186495
-0.187986
-0.183879
-0.174646
-0.161019
-0.143913
-0.124379
-0.103537
-0.0825137
-0.0623815
-0.0441592
-0.0286809
-0.0166333
-0.00850762
-0.00459246
-0.00496992
-0.00952602
-0.017959
-0.0298238
-0.0445368
-0.0614165
-0.0797153
-0.0986584
-0.117472
-0.135417
-0.151769
-0.165997
-0.177589
-0.186169
-0.191476
-0.193377
-0.19189
-0.187097
-0.179209
-0.168536
-0.155464
-0.140427
-0.12391
-0.106555
-0.0888434
-0.0713198
-0.0545183
-0.0389453
-0.02507
-0.0133273
-0.00409734
0.00229487
0.00558766
-1.7353
-1.73339
-1.7295
-1.72359
-1.71566
-1.70567
-1.69348
-1.67997
-1.66528
-1.64959
-1.63309
-1.61604
-1.59868
-1.58128
-1.56409
-1.54739
-1.53142
-1.51629
-1.50228
-1.48951
-1.47808
-1.46801
-1.45927
-1.45173
-1.44522
-1.43949
-1.43423
-1.42907
-1.4236
-1.41736
-1.40986
-1.4006
-1.38909
-1.37484
-1.35745
-1.33674
-1.31169
-1.28243
-1.24891
-1.21096
-1.16845
-1.1213
-1.06954
-1.01326
-0.952622
-0.887863
-0.819274
-0.747212
-0.672091
-0.594383
-0.514621
-0.433379
-0.35127
-0.268939
-0.187099
-0.106452
-0.0277522
0.048305
0.120884
0.189377
0.253018
0.311104
0.362993
0.408048
0.445723
0.475544
0.497098
0.510075
0.514257
0.509517
0.495908
0.473532
0.442653
0.403679
0.357125
0.303661
0.244078
0.179274
0.110277
0.0382219
-0.0357018
-0.110187
-0.183916
-0.255546
-0.323729
-0.387152
-0.444546
-0.494736
-0.536681
-0.569482
-0.592411
-0.604884
-0.606358
-0.597334
-0.577772
-0.548068
-0.508956
-0.46144
-0.406747
-0.346314
-0.281786
-0.214929
-0.147628
-0.0818139
-0.0193868
0.0378143
0.0880785
0.129897
0.162014
0.183483
0.193747
0.192398
0.180171
0.157446
0.125321
0.0852561
0.039031
-0.0112712
-0.0633808
-0.114899
-0.163534
-0.207011
-0.243318
-0.270767
-0.2881
-0.294526
-0.289586
-0.273982
-0.248484
-0.214534
-0.173994
-0.129078
-0.0821676
-0.0357161
0.00761808
0.0457087
0.076643
0.0989474
0.111675
0.114384
0.107526
0.0915292
0.0675938
0.0373024
0.0025192
-0.0347779
-0.0724604
-0.108587
-0.14135
-0.169213
-0.190986
-0.205876
-0.213493
-0.213856
-0.207342
-0.194682
-0.176869
-0.155098
-0.1307
-0.105059
-0.0795368
-0.055417
-0.0338457
-0.0157808
-0.00196612
0.00709627
0.0111431
0.0101559
0.00434972
-0.0058699
-0.0199305
-0.0371171
-0.056616
-0.0775543
-0.0990437
-0.120211
-0.140235
-0.158347
-0.173955
-0.18653
-0.195691
-0.201188
-0.202892
-0.200934
-0.195365
-0.186471
-0.174614
-0.160233
-0.143822
-0.12594
-0.107206
-0.0881723
-0.0694169
-0.0514973
-0.0349382
-0.0202258
-0.00780113
0.00194795
0.00869104
0.0121619
-1.88608
-1.88247
-1.87525
-1.8645
-1.85035
-1.83308
-1.81325
-1.79033
-1.76492
-1.73699
-1.70736
-1.67683
-1.64615
-1.61608
-1.58732
-1.56052
-1.53623
-1.51493
-1.49702
-1.48275
-1.47233
-1.46582
-1.4631
-1.46392
-1.46787
-1.47435
-1.48269
-1.49209
-1.50178
-1.51074
-1.51799
-1.52253
-1.52342
-1.51978
-1.51087
-1.49636
-1.47644
-1.45006
-1.41676
-1.37636
-1.32885
-1.27431
-1.21287
-1.14479
-1.07037
-0.990032
-0.904259
-0.813608
-0.718714
-0.620268
-0.519006
-0.415731
-0.311318
-0.206653
-0.102672
-0.00033164
0.0986498
0.194644
0.285999
0.37174
0.450924
0.52263
0.586006
0.640258
0.684676
0.718651
0.741674
0.753355
0.753448
0.741858
0.718607
0.683921
0.638213
0.582043
0.516135
0.441417
0.358975
0.270029
0.175977
0.0783484
-0.0212514
-0.121115
-0.219466
-0.314514
-0.404483
-0.487662
-0.562406
-0.627207
-0.680733
-0.721814
-0.749509
-0.763094
-0.762077
-0.746903
-0.717772
-0.675359
-0.620715
-0.555225
-0.48058
-0.398747
-0.311965
-0.222623
-0.133246
-0.046407
0.0353547
0.109602
0.174129
0.227001
0.26666
0.291981
0.302181
0.296588
0.276334
0.242334
0.19613
0.139723
0.0755638
0.00647601
-0.0645079
-0.134092
-0.199255
-0.256994
-0.30468
-0.34016
-0.361866
-0.368981
-0.36069
-0.338305
-0.303032
-0.25687
-0.202415
-0.142677
-0.0808831
-0.0204178
0.035543
0.0841172
0.122909
0.150152
0.164786
0.166476
0.155714
0.133506
0.101533
0.0619439
0.0171949
-0.0301312
-0.07731
-0.121956
-0.161853
-0.195188
-0.220614
-0.237289
-0.244889
-0.243607
-0.234042
-0.217204
-0.194409
-0.16718
-0.137171
-0.106064
-0.0754822
-0.0469224
-0.0216878
-0.000845484
0.0148092
0.0247695
0.0288158
0.0270126
0.0197006
0.00739932
-0.00917374
-0.0291537
-0.0515797
-0.0754427
-0.09973
-0.123463
-0.145734
-0.165726
-0.182791
-0.196386
-0.206129
-0.211796
-0.213331
-0.210729
-0.204273
-0.194258
-0.1811
-0.165297
-0.147396
-0.128027
-0.107816
-0.0873736
-0.0673088
-0.0482051
-0.0306057
-0.015011
-0.00187032
0.00842239
0.0155328
0.0191896
-2.16858
-2.16058
-2.14456
-2.12054
-2.08877
-2.04964
-2.00388
-1.95249
-1.89722
-1.84044
-1.78251
-1.72512
-1.66996
-1.61826
-1.57087
-1.52839
-1.49138
-1.46051
-1.43654
-1.42027
-1.41223
-1.41258
-1.4212
-1.43756
-1.46082
-1.48976
-1.52288
-1.55845
-1.59485
-1.62997
-1.66171
-1.68818
-1.70794
-1.72066
-1.72442
-1.71889
-1.70378
-1.67869
-1.64341
-1.5979
-1.54227
-1.47673
-1.40165
-1.31746
-1.22472
-1.12408
-1.01624
-0.902032
-0.782308
-0.658018
-0.530207
-0.39996
-0.268411
-0.136759
-0.00625429
0.121718
0.246172
0.36575
0.479168
0.585171
0.682527
0.770066
0.846715
0.911462
0.963431
1.00186
1.02613
1.03579
1.03054
1.01031
0.975238
0.925605
0.861991
0.785161
0.696096
0.596044
0.486441
0.368901
0.245263
0.117523
-0.012233
-0.141789
-0.268841
-0.391086
-0.506247
-0.612143
-0.706678
-0.787912
-0.854166
-0.904081
-0.936714
-0.951748
-0.946044
-0.922576
-0.881352
-0.823241
-0.749622
-0.662352
-0.563685
-0.456229
-0.342935
-0.226937
-0.111523
-2.97347e-05
0.104273
0.198248
0.279073
0.344338
0.392117
0.421171
0.431442
0.419154
0.38871
0.340861
0.277532
0.201396
0.115715
0.0242166
-0.0691693
-0.160038
-0.244506
-0.318738
-0.379379
-0.42372
-0.449792
-0.456586
-0.444127
-0.413289
-0.365998
-0.305034
-0.233895
-0.156576
-0.0772923
-0.000469266
0.0699385
0.130307
0.177713
0.210087
0.226284
0.226135
0.210356
0.180535
0.138951
0.0884407
0.0321786
-0.0265571
-0.0844242
-0.138498
-0.186151
-0.225289
-0.25442
-0.272692
-0.279879
-0.276423
-0.263171
-0.241467
-0.212998
-0.179653
-0.143442
-0.106367
-0.0703279
-0.0370372
-0.00795945
0.0157376
0.0332173
0.0439837
0.047872
0.0450395
0.0360052
0.0213819
0.00205092
-0.0209558
-0.0465226
-0.0734961
-0.100736
-0.127157
-0.151751
-0.173674
-0.192218
-0.206827
-0.217123
-0.222904
-0.224138
-0.220898
-0.213489
-0.202281
-0.18775
-0.170458
-0.151006
-0.130088
-0.108356
-0.0864682
-0.065066
-0.0447567
-0.026102
-0.00961475
0.00424804
0.0150877
0.0225667
0.0264102
-2.58052
-2.56664
-2.53905
-2.49814
-2.44505
-2.38153
-2.31034
-2.23007
-2.145
-2.04634
-1.94344
-1.83843
-1.73394
-1.63273
-1.53799
-1.45291
-1.3803
-1.32242
-1.28086
-1.25667
-1.25042
-1.26192
-1.29032
-1.33421
-1.39166
-1.45978
-1.53504
-1.61027
-1.69043
-1.7672
-1.83625
-1.89424
-1.94125
-1.97495
-1.99553
-2.00137
-1.99209
-1.96776
-1.92864
-1.87513
-1.80774
-1.72708
-1.63387
-1.52889
-1.413
-1.28713
-1.1523
-1.00958
-0.86015
-0.70526
-0.546208
-0.384384
-0.221236
-0.0583095
0.102657
0.26059
0.413636
0.560207
0.698715
0.827613
0.945406
1.05064
1.142
1.21825
1.27832
1.32129
1.34644
1.35323
1.34135
1.31076
1.26165
1.19448
1.10999
1.00921
0.89342
0.764224
0.623477
0.473244
0.315858
0.15387
-0.0100673
-0.173171
-0.332548
-0.485305
-0.628604
-0.75972
-0.876004
-0.975083
-1.0549
-1.11373
-1.15013
-1.16284
-1.15381
-1.12106
-1.06565
-0.989046
-0.893192
-0.78055
-0.654049
-0.517048
-0.373323
-0.226867
-0.0818409
0.0575493
0.187198
0.303199
0.402024
0.480643
0.536587
0.568001
0.573302
0.55681
0.515222
0.451244
0.367901
0.268829
0.158287
0.041042
-0.0780079
-0.193045
-0.299275
-0.391934
-0.466851
-0.520695
-0.551096
-0.55677
-0.538858
-0.497725
-0.436158
-0.357878
-0.267452
-0.170014
-0.0709097
0.0242784
0.110664
0.183854
0.240368
0.277843
0.295096
0.292191
0.270249
0.231452
0.178806
0.115943
0.0468432
-0.024454
-0.0939321
-0.158091
-0.213888
-0.258965
-0.291711
-0.311298
-0.317595
-0.311476
-0.293949
-0.266785
-0.232071
-0.1921
-0.149256
-0.105868
-0.0641238
-0.0259517
0.00703418
0.0335722
0.0528001
0.0642467
0.0678152
0.0637427
0.0528224
0.0356877
0.0134229
-0.012765
-0.0416013
-0.0717862
-0.10205
-0.131206
-0.158135
-0.181988
-0.201989
-0.217575
-0.228378
-0.23422
-0.235104
-0.23117
-0.222762
-0.21032
-0.194381
-0.175569
-0.154552
-0.132067
-0.108809
-0.0854798
-0.062748
-0.0412449
-0.0215485
-0.00418325
0.0103879
0.0217629
0.0296019
0.0336275
-3.19447
-3.16712
-3.11208
-3.0283
-2.91486
-2.76994
-2.5942
-2.3918
-2.19578
-1.99303
-1.78557
-1.58388
-1.39602
-1.22733
-1.08138
-0.960325
-0.865461
-0.79757
-0.757141
-0.74487
-0.761409
-0.807153
-0.882682
-0.988065
-1.12244
-1.28302
-1.46301
-1.6416
-1.81844
-1.97481
-2.10132
-2.2019
-2.27675
-2.32886
-2.35989
-2.37001
-2.35937
-2.32869
-2.27881
-2.21069
-2.12529
-2.02364
-1.90674
-1.77568
-1.63156
-1.47557
-1.30901
-1.13322
-0.949637
-0.759795
-0.565303
-0.367835
-0.169153
0.0283543
0.223786
0.414794
0.599405
0.775688
0.941731
1.09568
1.23573
1.36014
1.4673
1.55576
1.62423
1.67166
1.69719
1.7002
1.68036
1.63778
1.57264
1.48555
1.37753
1.24985
1.10415
0.942457
0.767073
0.580577
0.385879
0.186113
-0.0154613
-0.215392
-0.410142
-0.59618
-0.770039
-0.928376
-1.06804
-1.18618
-1.28032
-1.34836
-1.38874
-1.40044
-1.38445
-1.3398
-1.26762
-1.16973
-1.04859
-0.907308
-0.74958
-0.579586
-0.40202
-0.22182
-0.0441199
0.125911
0.283251
0.423147
0.541332
0.634175
0.698809
0.733282
0.736763
0.710321
0.654454
0.571616
0.465452
0.340508
0.202126
0.0562705
-0.0913774
-0.23298
-0.363033
-0.475693
-0.565912
-0.629711
-0.66439
-0.668746
-0.643421
-0.590044
-0.512049
-0.414158
-0.302125
-0.18236
-0.0614425
0.0537269
0.15728
0.244008
0.309867
0.352213
0.369898
0.363331
0.334101
0.285077
0.220098
0.143672
0.0606687
-0.0240553
-0.105795
-0.180451
-0.244569
-0.295556
-0.331711
-0.35229
-0.357455
-0.347986
-0.325652
-0.292541
-0.251155
-0.204198
-0.154437
-0.104541
-0.0569861
-0.0138947
0.0229685
0.052267
0.0731233
0.085108
0.0882102
0.0826914
0.0697842
0.0499968
0.0246872
-0.00476396
-0.0369256
-0.0703486
-0.103642
-0.135505
-0.164758
-0.190488
-0.211892
-0.2284
-0.239655
-0.245507
-0.245998
-0.241332
-0.231901
-0.218207
-0.200856
-0.180535
-0.157957
-0.133926
-0.109172
-0.0844325
-0.0604057
-0.0377438
-0.0170398
0.00117215
0.0164242
0.0283125
0.0364962
0.0406962
-4.12712
-4.0902
-4.01655
-3.90474
-3.75552
-3.56591
-3.34694
-3.03203
-2.86404
-2.47598
-2.14893
-1.85725
-1.59177
-1.35406
-1.14579
-0.968518
-0.8243
-0.715248
-0.643427
-0.610862
-0.619572
-0.669981
-0.762924
-0.89827
-1.0751
-1.29545
-1.60492
-1.76965
-2.05986
-2.25468
-2.4311
-2.57367
-2.68422
-2.76015
-2.80268
-2.81324
-2.79475
-2.7506
-2.68304
-2.59389
-2.48464
-2.35663
-2.21111
-2.04936
-1.87269
-1.68251
-1.48032
-1.26773
-1.04642
-0.818209
-0.585007
-0.348825
-0.111775
0.123943
0.356205
0.582724
0.801171
1.00924
1.20465
1.38523
1.54883
1.69341
1.81709
1.91816
1.99513
2.04677
2.07213
2.07052
2.04165
1.98547
1.90247
1.79341
1.65955
1.50249
1.32423
1.12725
0.914362
0.688697
0.45377
0.213376
-0.0285644
-0.267914
-0.500422
-0.721868
-0.928106
-1.1152
-1.2794
-1.41733
-1.52612
-1.60339
-1.64742
-1.65722
-1.6328
-1.57439
-1.48329
-1.36172
-1.21269
-1.04002
-0.848223
-0.642379
-0.428178
-0.211578
0.0012332
0.204056
0.390894
0.556088
0.694594
0.802161
0.875496
0.912448
0.912173
0.875283
0.803375
0.699522
0.568167
0.414868
0.24614
0.069342
-0.109232
-0.279297
-0.434793
-0.568642
-0.674864
-0.748808
-0.787402
-0.789424
-0.755587
-0.688355
-0.592073
-0.4726
-0.337017
-0.193149
-0.0488198
0.0875347
0.209077
0.309753
0.38496
0.4318
0.449184
0.438126
0.400593
0.34026
0.261898
0.17097
0.0732791
-0.0254616
-0.119841
-0.205171
-0.277606
-0.33433
-0.373598
-0.394777
-0.398234
-0.385145
-0.357618
-0.318207
-0.269862
-0.215706
-0.158891
-0.102422
-0.0490716
-0.0011172
0.0395205
0.0714464
0.0937841
0.106161
0.108691
0.10203
0.0866022
0.0640519
0.035648
0.00291459
-0.0325637
-0.0691959
-0.105469
-0.139971
-0.171481
-0.199014
-0.221749
-0.239111
-0.25076
-0.256575
-0.256641
-0.251221
-0.24076
-0.225823
-0.207079
-0.185277
-0.16118
-0.135647
-0.109447
-0.0833497
-0.058081
-0.0343118
-0.0126478
0.00636813
0.0222648
0.0346379
0.0431466
0.0475109
-5.38258
-5.35048
-5.28372
-5.17596
-5.01515
-4.79153
-4.48004
-4.0677
-3.53178
-2.50522
-1.8036
-1.23361
-0.760867
-0.374355
-0.0639764
0.178555
0.359406
0.482716
0.550806
0.562884
0.516632
0.408614
0.231646
-0.0250936
-0.375316
-0.836088
-1.56244
-2.15362
-2.60698
-2.90209
-3.10371
-3.23642
-3.3161
-3.35517
-3.3607
-3.33893
-3.29253
-3.22207
-3.12821
-3.01175
-2.87362
-2.71496
-2.53698
-2.34106
-2.12862
-1.90123
-1.66057
-1.40845
-1.14682
-0.877747
-0.603437
-0.326218
-0.0485717
0.2271
0.49815
0.761957
1.01581
1.25707
1.48309
1.69131
1.87927
2.0446
2.18516
2.29896
2.38433
2.43985
2.46443
2.45734
2.4183
2.34737
2.24507
2.11241
1.95091
1.76252
1.54964
1.31525
1.06268
0.795667
0.518361
0.235249
-0.0490407
-0.329653
-0.60159
-0.859903
-1.09976
-1.31656
-1.50596
-1.66407
-1.78758
-1.8738
-1.9208
-1.9275
-1.89372
-1.82014
-1.70843
-1.56128
-1.38231
-1.17612
-0.948053
-0.704191
-0.451263
-0.1963
0.0533885
0.290527
0.508094
0.699493
0.858875
0.981351
1.06317
1.10195
1.09678
1.0484
0.959013
0.832444
0.674033
0.490428
0.289368
0.079399
-0.130765
-0.33108
-0.513215
-0.66905
-0.791659
-0.875722
-0.917782
-0.916594
-0.873166
-0.79072
-0.674621
-0.531997
-0.371358
-0.202071
-0.0331692
0.125132
0.265133
0.379887
0.464253
0.51512
0.531392
0.515157
0.468436
0.395928
0.303397
0.197315
0.0844472
-0.0286335
-0.135788
-0.231763
-0.312348
-0.374533
-0.416577
-0.437969
-0.439354
-0.422296
-0.389284
-0.343349
-0.287892
-0.226457
-0.162589
-0.099604
-0.0405452
0.0121269
0.0563792
0.0907663
0.114424
0.127046
0.128853
0.120558
0.102953
0.0776466
0.046159
0.0101799
-0.0285528
-0.0683181
-0.107484
-0.144517
-0.178189
-0.207433
-0.231414
-0.249557
-0.26154
-0.267279
-0.266897
-0.260718
-0.249237
-0.233083
-0.212986
-0.189748
-0.164192
-0.137219
-0.10964
-0.0822529
-0.055808
-0.0309932
-0.00842579
0.0113444
0.0278441
0.0406697
0.0494814
0.0539987
-6.62278
-6.59274
-6.5314
-6.44092
-6.31262
-6.20137
-6.00021
-5.92736
-3.37414
-3.43176
-3.61642
-3.71035
-3.81235
-3.88005
-3.91394
-3.91072
-3.8751
-3.80898
-3.71453
-3.59353
-3.44761
-3.27816
-3.08647
-2.87383
-2.64168
-2.39153
-2.1251
-1.84424
-1.55097
-1.24745
-0.936032
-0.619202
-0.29961
0.0199871
0.336728
0.647635
0.949715
1.23987
1.51507
1.77231
2.00867
2.22134
2.40764
2.56512
2.69156
2.78506
2.84404
2.86728
2.85396
2.80395
2.71725
2.59455
2.43707
2.24664
2.02556
1.77665
1.50339
1.20971
0.899912
0.578845
0.251696
-0.076146
-0.399136
-0.71147
-1.00747
-1.28157
-1.52853
-1.74336
-1.92167
-2.0597
-2.15444
-2.20375
-2.20644
-2.16239
-2.07254
-1.93893
-1.7648
-1.55442
-1.31319
-1.04737
-0.764032
-0.471008
-0.17643
0.111226
0.383577
0.632552
0.850592
1.03103
1.16833
1.25829
1.29826
1.28734
1.22649
1.1185
0.967939
0.781144
0.565892
0.331212
0.0870287
-0.156115
-0.387398
-0.596802
-0.775
-0.914098
-1.00808
-1.05312
-1.04796
-0.994009
-0.895264
-0.758196
-0.591267
-0.404511
-0.208853
-0.0149178
0.165803
0.324409
0.453117
0.546307
0.600718
0.614979
0.593113
0.536459
0.451135
0.343919
0.222311
0.0940501
-0.0334272
-0.153275
-0.259695
-0.348138
-0.415446
-0.4599
-0.481153
-0.480154
-0.458868
-0.42019
-0.367627
-0.305027
-0.236362
-0.165541
-0.0961901
-0.0316023
0.0255919
0.073261
0.109924
0.134739
0.147473
0.148453
0.138496
0.118668
0.0906352
0.0561198
0.0169763
-0.0249091
-0.0676915
-0.109636
-0.149063
-0.184785
-0.215634
-0.240769
-0.259618
-0.271883
-0.277512
-0.27667
-0.269737
-0.257261
-0.23993
-0.218533
-0.193927
-0.166978
-0.138643
-0.109761
-0.0811609
-0.0536132
-0.027821
-0.00441139
0.0160599
0.0331184
0.0463623
0.0554537
0.0601123
-8.00646
-7.9961
-7.97711
-7.95242
-7.92165
-7.90829
-7.84318
-7.87958
-4.61198
-4.56276
-4.6258
-4.62064
-4.61966
-4.60389
-4.57176
-4.52055
-4.44585
-4.34558
-4.21934
-4.06713
-3.88947
-3.68715
-3.46121
-3.21288
-2.94358
-2.65491
-2.34868
-2.02691
-1.69181
-1.34577
-0.991407
-0.631501
-0.269001
0.092982
0.451211
0.802338
1.14299
1.46967
1.77899
2.06754
2.33205
2.56937
2.77648
2.95067
3.08946
3.19072
3.25272
3.27414
3.25413
3.19242
3.08922
2.94537
2.76231
2.54216
2.2876
2.00189
1.68901
1.35347
1.0002
0.634734
0.262976
-0.10891
-0.474681
-0.827717
-1.16159
-1.47002
-1.7471
-1.98722
-2.18544
-2.3376
-2.44035
-2.49135
-2.48933
-2.43426
-2.32731
-2.17095
-1.96895
-1.72627
-1.44913
-1.14472
-0.821158
-0.487371
-0.152596
0.173462
0.481331
0.761872
1.00656
1.20791
1.35973
1.45739
1.49799
1.48062
1.40656
1.27915
1.10378
0.887799
0.640137
0.37115
0.0922018
-0.184543
-0.447106
-0.683959
-0.884535
-1.03996
-1.14352
-1.19104
-1.18127
-1.11608
-1.00026
-0.841447
-0.649496
-0.436011
-0.213494
0.00553691
0.208775
0.385825
0.528151
0.629706
0.687272
0.701031
0.670862
0.60362
0.505082
0.382929
0.24569
0.102072
-0.039636
-0.17191
-0.288435
-0.384356
-0.456401
-0.502898
-0.523704
-0.520075
-0.494388
-0.449971
-0.390782
-0.321127
-0.245377
-0.167796
-0.0923037
-0.0224256
0.039054
0.0899185
0.128665
0.154479
0.167209
0.167292
0.155665
0.133617
0.102918
0.0654671
0.0232748
-0.0216309
-0.067285
-0.111873
-0.15354
-0.191192
-0.223533
-0.249727
-0.269208
-0.281706
-0.2872
-0.285894
-0.278224
-0.26479
-0.246333
-0.223699
-0.197798
-0.169538
-0.139923
-0.109822
-0.0800899
-0.0515166
-0.0248178
-0.000629249
0.0204888
0.0380612
0.0516889
0.0610368
0.0658249
-9.2833
-9.27821
-9.26831
-9.25517
-9.23699
-9.22999
-9.1891
-9.2089
-5.3054
-5.26489
-5.31233
-5.30208
-5.28818
-5.25197
-5.19389
-5.1126
-5.0073
-4.87643
-4.71946
-4.53609
-4.3265
-4.09119
-3.83101
-3.54704
-3.2407
-2.91361
-2.56772
-2.20518
-1.82839
-1.43999
-1.04285
-0.640039
-0.234835
0.16929
0.568744
0.959807
1.33872
1.70162
2.04469
2.36417
2.65644
2.91799
3.1455
3.33595
3.48662
3.5952
3.65978
3.67895
3.65184
3.57799
3.4579
3.29255
3.08358
2.83344
2.54517
2.22245
1.86982
1.49235
1.09561
0.6858
0.269563
-0.146239
-0.554535
-0.947968
-1.31936
-1.66172
-1.96845
-2.23337
-2.45099
-2.61673
-2.72693
-2.77906
-2.77177
-2.70515
-2.58062
-2.40105
-2.17077
-1.89546
-1.58214
-1.23895
-0.875046
-0.500482
-0.125549
0.238752
0.58191
0.893713
1.16468
1.38651
1.55238
1.65723
1.69795
1.6736
1.58583
1.43857
1.23802
0.992526
0.712228
0.408812
0.095048
-0.215308
-0.509012
-0.773088
-0.99575
-1.16714
-1.27985
-1.32936
-1.31448
-1.23752
-1.10416
-0.923193
-0.705929
-0.465567
-0.216227
0.0278478
0.253257
0.448324
0.60376
0.713106
0.773123
0.783899
0.746992
0.669017
0.557123
0.420031
0.267295
0.108574
-0.0470111
-0.191291
-0.317475
-0.420434
-0.496806
-0.544999
-0.565094
-0.55866
-0.528492
-0.478352
-0.412643
-0.336105
-0.253498
-0.169424
-0.0880713
-0.0131839
0.0523172
0.106144
0.14678
0.173447
0.186077
0.18522
0.171936
0.14771
0.114432
0.0741645
0.0290662
-0.018703
-0.0670645
-0.114113
-0.157925
-0.197349
-0.231064
-0.258222
-0.278269
-0.290954
-0.296295
-0.29453
-0.286148
-0.271799
-0.252275
-0.228476
-0.201361
-0.171873
-0.141066
-0.109833
-0.0790526
-0.0495321
-0.0219981
0.00290628
0.0246172
0.0426593
0.0566369
0.0662186
0.0711247
-10.4344
-10.4317
-10.4265
-10.4197
-10.4106
-10.4081
-10.3877
-10.401
-6.03555
-5.98467
-5.99726
-5.96667
-5.92591
-5.86538
-5.78322
-5.67711
-5.5458
-5.38788
-5.20285
-4.9903
-4.75027
-4.48316
-4.18974
-3.87106
-3.52853
-3.16386
-2.77911
-2.3766
-1.95892
-1.52897
-1.08986
-0.644919
-0.19783
0.247618
0.687481
1.11767
1.53404
1.93234
2.30838
2.65804
2.97732
3.2624
3.50963
3.71572
3.87772
3.99312
4.05986
4.07642
4.04182
3.95573
3.81868
3.63182
3.39703
3.11706
2.79533
2.43596
2.04401
1.62513
1.1855
0.732008
0.272
-0.18695
-0.636979
-1.06999
-1.47807
-1.85354
-2.18914
-2.47808
-2.71437
-2.89302
-3.01009
-3.06286
-3.0499
-2.97141
-2.82911
-2.62626
-2.36776
-2.05997
-1.71074
-1.32916
-0.925362
-0.510522
-0.0961517
0.305777
0.683541
1.02591
1.32247
1.56412
1.74343
1.85494
1.89536
1.86364
1.76192
1.59469
1.36895
1.09411
0.781433
0.44395
0.0958309
-0.24767
-0.571969
-0.862706
-1.10689
-1.2937
-1.41505
-1.46611
-1.44573
-1.35672
-1.20564
-1.00247
-0.759985
-0.492982
-0.217216
0.0514851
0.29847
0.510924
0.678833
0.795358
0.85726
0.864802
0.820735
0.731963
0.606776
0.454956
0.287059
0.113672
-0.0552876
-0.211042
-0.346361
-0.455879
-0.536166
-0.585735
-0.604906
-0.595558
-0.560909
-0.505143
-0.433098
-0.349926
-0.260754
-0.170507
-0.0836147
-0.00402593
0.0652196
0.121772
0.164108
0.191496
0.20395
0.202134
0.187225
0.160891
0.125145
0.0822021
0.0343578
-0.0161039
-0.0669995
-0.116334
-0.162155
-0.203208
-0.238181
-0.266214
-0.286761
-0.299596
-0.304773
-0.302558
-0.293497
-0.278283
-0.257757
-0.232868
-0.204621
-0.173993
-0.142083
-0.109804
-0.0780591
-0.0476688
-0.0193695
0.00618924
0.0284408
0.0469099
0.0612053
0.0709988
0.0760121
-11.4639
-11.4625
-11.4597
-11.4562
-11.4511
-11.4504
-11.4391
-11.448
-6.68224
-6.62925
-6.62492
-6.5808
-6.5219
-6.44202
-6.33927
-6.21132
-6.0569
-5.87466
-5.66391
-5.42423
-5.15561
-4.85837
-4.53323
-4.18128
-3.80394
-3.40302
-2.98072
-2.53953
-2.08227
-1.61208
-1.13232
-0.646469
-0.158812
0.326672
0.805678
1.27374
1.72635
2.15887
2.56676
2.94551
3.2908
3.59847
3.86458
4.08557
4.25824
4.37994
4.44848
4.46218
4.41998
4.32162
4.16774
3.95966
3.69948
3.39026
3.03575
2.64053
2.21018
1.7509
1.26949
0.773485
0.270924
-0.229928
-0.720435
-1.19178
-1.63534
-2.04275
-2.40613
-2.71811
-2.9722
-3.16302
-3.28637
-3.33937
-3.32046
-3.23002
-3.07004
-2.84418
-2.55789
-2.21821
-1.83381
-1.41468
-0.971952
-0.517877
-0.0651171
0.373339
0.784638
1.15655
1.47776
1.73839
1.93043
2.04805
2.08787
2.0485
1.93281
1.7458
1.49527
1.19158
0.847208
0.476454
0.0948402
-0.280928
-0.634936
-0.951484
-1.21641
-1.41797
-1.54743
-1.59963
-1.57349
-1.47236
-1.30364
-1.07853
-0.811252
-0.518168
-0.216663
0.0759337
0.343692
0.572749
0.75241
0.875491
0.938795
0.942879
0.891437
0.791943
0.653705
0.487543
0.304988
0.117514
-0.0642047
-0.230819
-0.374702
-0.49028
-0.574083
-0.624739
-0.642828
-0.630516
-0.591454
-0.530227
-0.452095
-0.362592
-0.267194
-0.171128
-0.0790448
0.00492444
0.0776317
0.136675
0.180535
0.208524
0.220744
0.217969
0.201487
0.173135
0.13505
0.089587
0.0391675
-0.0138079
-0.0670596
-0.118511
-0.166187
-0.208737
-0.244856
-0.273678
-0.294667
-0.307619
-0.312626
-0.309977
-0.300275
-0.284248