/*--------------------------------*- C++ -*----------------------------------*\
  =========                 |
  \\      /  F ield         | OpenFOAM: The Open Source CFD Toolbox
   \\    /   O peration     | Website:  https://openfoam.org
    \\  /    A nd           | Version:  12
     \\/     M anipulation  |
\*---------------------------------------------------------------------------*/
FoamFile
{
    format      ascii;
    class       volVectorField;
    location    "6.3";
    object      zeta;
}
// * * * * * * * * * * * * * * * * * * * * * * * * * * * * * * * * * * * * * //

dimensions      [0 1 0 0 0 0 0];

internalField   uniform (0 0 0);

boundaryField
{
    freeSurface
    {
        type            calculated;
        value           nonuniform List<vector> 
181
(
(0 -0.00151423 0)
(0 -0.00151477 0)
(0 -0.00151481 0)
(0 -0.00151464 0)
(0 -0.00151464 0)
(0 -0.00151453 0)
(0 -0.0015143 0)
(0 -0.00151461 0)
(0 -0.0009129 0)
(0 -0.000907435 0)
(0 -0.000904051 0)
(0 -0.000895705 0)
(0 -0.000885417 0)
(0 -0.000872622 0)
(0 -0.000856131 0)
(0 -0.000836712 0)
(0 -0.000813426 0)
(0 -0.000786555 0)
(0 -0.000755932 0)
(0 -0.000721577 0)
(0 -0.000683531 0)
(0 -0.000641809 0)
(0 -0.000596444 0)
(0 -0.000547596 0)
(0 -0.0004954 0)
(0 -0.00044007 0)
(0 -0.000382011 0)
(0 -0.000321546 0)
(0 -0.000259035 0)
(0 -0.000194927 0)
(0 -0.000129669 0)
(0 -6.37407e-05 0)
(0 2.33184e-06 0)
(0 6.79727e-05 0)
(0 0.000132545 0)
(0 0.000195484 0)
(0 0.000256144 0)
(0 0.000313951 0)
(0 0.000368258 0)
(0 0.000418442 0)
(0 0.000463959 0)
(0 0.000504234 0)
(0 0.000538749 0)
(0 0.000567031 0)
(0 0.000588646 0)
(0 0.000603314 0)
(0 0.000610777 0)
(0 0.000610698 0)
(0 0.000603048 0)
(0 0.000587751 0)
(0 0.000564991 0)
(0 0.000534904 0)
(0 0.000497848 0)
(0 0.000454249 0)
(0 0.000404602 0)
(0 0.000349578 0)
(0 0.000289984 0)
(0 0.000226675 0)
(0 0.000160585 0)
(0 9.27694e-05 0)
(0 2.42823e-05 0)
(0 -4.37563e-05 0)
(0 -0.000110062 0)
(0 -0.000173533 0)
(0 -0.000232954 0)
(0 -0.000287244 0)
(0 -0.000335313 0)
(0 -0.00037619 0)
(0 -0.000409008 0)
(0 -0.000433052 0)
(0 -0.000447825 0)
(0 -0.000452942 0)
(0 -0.000448262 0)
(0 -0.00043387 0)
(0 -0.000410063 0)
(0 -0.000377396 0)
(0 -0.000336649 0)
(0 -0.000288838 0)
(0 -0.000235162 0)
(0 -0.000177032 0)
(0 -0.000115978 0)
(0 -5.37063e-05 0)
(0 8.04436e-06 0)
(0 6.75054e-05 0)
(0 0.000122942 0)
(0 0.000172677 0)
(0 0.000215217 0)
(0 0.000249236 0)
(0 0.000273672 0)
(0 0.000287811 0)
(0 0.000291194 0)
(0 0.000283819 0)
(0 0.000266038 0)
(0 0.000238648 0)
(0 0.000202762 0)
(0 0.000159881 0)
(0 0.000111735 0)
(0 6.03209e-05 0)
(0 7.77678e-06 0)
(0 -4.3657e-05 0)
(0 -9.17559e-05 0)
(0 -0.000134408 0)
(0 -0.000169673 0)
(0 -0.000196013 0)
(0 -0.00021222 0)
(0 -0.000217691 0)
(0 -0.000212346 0)
(0 -0.000196759 0)
(0 -0.00017205 0)
(0 -0.000139888 0)
(0 -0.000102341 0)
(0 -6.1724e-05 0)
(0 -2.0515e-05 0)
(0 1.89507e-05 0)
(0 5.44933e-05 0)
(0 8.43037e-05 0)
(0 0.000107052 0)
(0 0.00012188 0)
(0 0.000128527 0)
(0 0.000127222 0)
(0 0.000118679 0)
(0 0.000103987 0)
(0 8.4492e-05 0)
(0 6.17259e-05 0)
(0 3.72525e-05 0)
(0 1.25847e-05 0)
(0 -1.08956e-05 0)
(0 -3.20229e-05 0)
(0 -4.98889e-05 0)
(0 -6.38562e-05 0)
(0 -7.35783e-05 0)
(0 -7.89711e-05 0)
(0 -8.02129e-05 0)
(0 -7.76636e-05 0)
(0 -7.18533e-05 0)
(0 -6.34122e-05 0)
(0 -5.30418e-05 0)
(0 -4.14585e-05 0)
(0 -2.93439e-05 0)
(0 -1.73481e-05 0)
(0 -6.02016e-06 0)
(0 4.15756e-06 0)
(0 1.2825e-05 0)
(0 1.97237e-05 0)
(0 2.47066e-05 0)
(0 2.77252e-05 0)
(0 2.88258e-05 0)
(0 2.81304e-05 0)
(0 2.58246e-05 0)
(0 2.21474e-05 0)
(0 1.73674e-05 0)
(0 1.17784e-05 0)
(0 5.67435e-06 0)
(0 -6.59752e-07 0)
(0 -6.95582e-06 0)
(0 -1.29723e-05 0)
(0 -1.85043e-05 0)
(0 -2.33785e-05 0)
(0 -2.74645e-05 0)
(0 -3.06744e-05 0)
(0 -3.2958e-05 0)
(0 -3.43037e-05 0)
(0 -3.47336e-05 0)
(0 -3.42956e-05 0)
(0 -3.30617e-05 0)
(0 -3.11235e-05 0)
(0 -2.85885e-05 0)
(0 -2.55752e-05 0)
(0 -2.22044e-05 0)
(0 -1.85978e-05 0)
(0 -1.48732e-05 0)
(0 -1.11406e-05 0)
(0 -7.49911e-06 0)
(0 -4.03821e-06 0)
(0 -8.35774e-07 0)
(0 2.03985e-06 0)
(0 4.52985e-06 0)
(0 6.5864e-06 0)
(0 8.17229e-06 0)
(0 9.25635e-06 0)
(0 9.81086e-06 0)
)
;
    }
    walls
    {
        type            calculated;
        value           uniform (0 0 0);
    }
    floatingObject
    {
        type            calculated;
        value           uniform (0 0 0);
    }
    frontAndBack
    {
        type            empty;
    }
}


// ************************************************************************* //
