#           v             n
     0.523599             0
     0.648652             0
     0.790112             0
     0.953116             0
      1.13449             0
      1.34047             0
      1.56672             0
      1.82069             0
      2.09677   0.000213427
      2.40376    0.00113074
      2.73462    0.00309091
      3.09966    0.00543065
      3.49026    0.00761873
      3.91837    0.00884993
      4.37366    0.00873121
      4.86986    0.00659399
       5.3948     0.0039218
      5.96412    0.00178431
      6.56366   0.000657366
      7.21112   0.000193269
      7.89023   4.77321e-05
      8.62085   9.74228e-06
      9.38447   1.71763e-06
      10.2033   2.56688e-07
      11.0564   3.38219e-08
      11.9684    3.8485e-09
      12.9159   3.92102e-10
      13.9262   3.49917e-11
      14.9731   6.35411e-12
