/*--------------------------------*- C++ -*----------------------------------*\
  =========                 |
  \\      /  F ield         | OpenFOAM: The Open Source CFD Toolbox
   \\    /   O peration     | Website:  https://openfoam.org
    \\  /    A nd           | Version:  12
     \\/     M anipulation  |
\*---------------------------------------------------------------------------*/
FoamFile
{
    format      ascii;
    class       volVectorField;
    location    "5.12";
    object      zeta;
}
// * * * * * * * * * * * * * * * * * * * * * * * * * * * * * * * * * * * * * //

dimensions      [0 1 0 0 0 0 0];

internalField   uniform (0 0 0);

boundaryField
{
    freeSurface
    {
        type            calculated;
        value           nonuniform List<vector> 
181
(
(0 0.00210203 0)
(0 0.00210155 0)
(0 0.00210124 0)
(0 0.00210096 0)
(0 0.00210052 0)
(0 0.00210015 0)
(0 0.00209996 0)
(0 0.00209954 0)
(0 -0.000118126 0)
(0 -0.00011042 0)
(0 -0.000101468 0)
(0 -8.95465e-05 0)
(0 -7.18822e-05 0)
(0 -5.03668e-05 0)
(0 -2.54539e-05 0)
(0 2.67498e-06 0)
(0 3.3499e-05 0)
(0 6.66192e-05 0)
(0 0.000101629 0)
(0 0.000138065 0)
(0 0.000175484 0)
(0 0.000213416 0)
(0 0.000251278 0)
(0 0.00028862 0)
(0 0.000324992 0)
(0 0.00036 0)
(0 0.000393195 0)
(0 0.000424192 0)
(0 0.000452554 0)
(0 0.000477902 0)
(0 0.000499867 0)
(0 0.00051812 0)
(0 0.000532397 0)
(0 0.000542414 0)
(0 0.000547954 0)
(0 0.000548898 0)
(0 0.000545078 0)
(0 0.000536398 0)
(0 0.000522823 0)
(0 0.000504434 0)
(0 0.000481303 0)
(0 0.000453578 0)
(0 0.000421497 0)
(0 0.000385331 0)
(0 0.00034539 0)
(0 0.000302089 0)
(0 0.000255931 0)
(0 0.000207376 0)
(0 0.000157032 0)
(0 0.00010551 0)
(0 5.34942e-05 0)
(0 1.65332e-06 0)
(0 -4.92667e-05 0)
(0 -9.85454e-05 0)
(0 -0.000145486 0)
(0 -0.000189379 0)
(0 -0.000229512 0)
(0 -0.00026523 0)
(0 -0.000295954 0)
(0 -0.000321128 0)
(0 -0.000340322 0)
(0 -0.000353172 0)
(0 -0.000359402 0)
(0 -0.000358894 0)
(0 -0.000351615 0)
(0 -0.000337693 0)
(0 -0.000317387 0)
(0 -0.000291111 0)
(0 -0.000259388 0)
(0 -0.00022288 0)
(0 -0.00018238 0)
(0 -0.000138784 0)
(0 -9.30859e-05 0)
(0 -4.6385e-05 0)
(0 2.08403e-07 0)
(0 4.55662e-05 0)
(0 8.85224e-05 0)
(0 0.000127993 0)
(0 0.00016292 0)
(0 0.000192376 0)
(0 0.000215654 0)
(0 0.000232025 0)
(0 0.000241137 0)
(0 0.00024267 0)
(0 0.000236634 0)
(0 0.00022322 0)
(0 0.000202882 0)
(0 0.000176299 0)
(0 0.000144382 0)
(0 0.000108242 0)
(0 6.92204e-05 0)
(0 2.87566e-05 0)
(0 -1.16093e-05 0)
(0 -5.03889e-05 0)
(0 -8.60645e-05 0)
(0 -0.000117352 0)
(0 -0.000143145 0)
(0 -0.000162634 0)
(0 -0.000175259 0)
(0 -0.000180859 0)
(0 -0.000179554 0)
(0 -0.000171822 0)
(0 -0.000158364 0)
(0 -0.000140127 0)
(0 -0.000118191 0)
(0 -9.37282e-05 0)
(0 -6.79547e-05 0)
(0 -4.20291e-05 0)
(0 -1.6998e-05 0)
(0 6.19183e-06 0)
(0 2.67658e-05 0)
(0 4.41437e-05 0)
(0 5.79425e-05 0)
(0 6.79787e-05 0)
(0 7.42163e-05 0)
(0 7.67852e-05 0)
(0 7.59646e-05 0)
(0 7.21152e-05 0)
(0 6.5696e-05 0)
(0 5.71986e-05 0)
(0 4.71405e-05 0)
(0 3.60485e-05 0)
(0 2.44071e-05 0)
(0 1.26924e-05 0)
(0 1.2969e-06 0)
(0 -9.4226e-06 0)
(0 -1.91863e-05 0)
(0 -2.77596e-05 0)
(0 -3.49946e-05 0)
(0 -4.07912e-05 0)
(0 -4.51105e-05 0)
(0 -4.79707e-05 0)
(0 -4.9419e-05 0)
(0 -4.95479e-05 0)
(0 -4.84763e-05 0)
(0 -4.63592e-05 0)
(0 -4.33472e-05 0)
(0 -3.96144e-05 0)
(0 -3.53296e-05 0)
(0 -3.06621e-05 0)
(0 -2.5776e-05 0)
(0 -2.08261e-05 0)
(0 -1.59497e-05 0)
(0 -1.12725e-05 0)
(0 -6.9042e-06 0)
(0 -2.93155e-06 0)
(0 5.75928e-07 0)
(0 3.57053e-06 0)
(0 6.01787e-06 0)
(0 7.90279e-06 0)
(0 9.22774e-06 0)
(0 1.00076e-05 0)
(0 1.02721e-05 0)
(0 1.0061e-05 0)
(0 9.42071e-06 0)
(0 8.40539e-06 0)
(0 7.07751e-06 0)
(0 5.50141e-06 0)
(0 3.74368e-06 0)
(0 1.86918e-06 0)
(0 -6.27526e-08 0)
(0 -1.99932e-06 0)
(0 -3.89269e-06 0)
(0 -5.69886e-06 0)
(0 -7.38012e-06 0)
(0 -8.90665e-06 0)
(0 -1.02579e-05 0)
(0 -1.14208e-05 0)
(0 -1.23889e-05 0)
(0 -1.31627e-05 0)
(0 -1.37477e-05 0)
(0 -1.41567e-05 0)
(0 -1.44105e-05 0)
(0 -1.45327e-05 0)
(0 -1.45494e-05 0)
(0 -1.44873e-05 0)
(0 -1.4376e-05 0)
(0 -1.42452e-05 0)
(0 -1.41221e-05 0)
(0 -1.4027e-05 0)
(0 -1.39748e-05 0)
)
;
    }
    walls
    {
        type            calculated;
        value           uniform (0 0 0);
    }
    floatingObject
    {
        type            calculated;
        value           uniform (0 0 0);
    }
    frontAndBack
    {
        type            empty;
    }
}


// ************************************************************************* //
