/*--------------------------------*- C++ -*----------------------------------*\
  =========                 |
  \\      /  F ield         | OpenFOAM: The Open Source CFD Toolbox
   \\    /   O peration     | Website:  https://openfoam.org
    \\  /    A nd           | Version:  12
     \\/     M anipulation  |
\*---------------------------------------------------------------------------*/
FoamFile
{
    format      ascii;
    class       volScalarField;
    location    "7";
    object      p;
}
// * * * * * * * * * * * * * * * * * * * * * * * * * * * * * * * * * * * * * //

dimensions      [1 -1 -2 0 0 0 0];

internalField   nonuniform List<scalar> 
3829
(
-617.213
-617.212
-617.21
-617.207
-617.202
-617.197
-617.19
-617.182
-617.173
-617.162
-617.149
-617.135
-617.119
-617.101
-617.082
-617.06
-617.036
-617.01
-616.982
-616.952
-616.919
-616.884
-616.846
-616.806
-616.763
-616.718
-616.671
-616.621
-616.57
-616.516
-616.46
-616.402
-616.343
-616.282
-616.22
-616.158
-616.094
-616.03
-615.966
-615.901
-615.837
-615.774
-615.711
-615.65
-615.59
-615.532
-615.476
-615.423
-615.372
-615.323
-615.278
-615.235
-615.196
-615.159
-615.126
-615.095
-615.068
-615.045
-615.024
-615.006
-614.991
-614.979
-614.969
-614.961
-614.956
-614.952
-614.949
-614.947
-614.946
-614.946
-614.945
-614.943
-614.941
-614.937
-614.932
-614.925
-614.916
-614.904
-614.89
-614.872
-614.852
-614.829
-614.803
-614.774
-614.742
-614.708
-614.672
-614.634
-614.595
-614.555
-614.515
-614.475
-614.435
-614.398
-614.362
-614.329
-614.299
-614.272
-614.25
-614.232
-614.219
-614.211
-614.207
-614.209
-614.214
-614.224
-614.238
-614.254
-614.273
-614.294
-614.315
-614.337
-614.357
-614.376
-614.393
-614.406
-614.416
-614.423
-614.425
-614.423
-614.417
-614.407
-614.394
-614.379
-614.363
-614.346
-614.329
-614.313
-614.299
-614.288
-614.281
-614.277
-614.277
-614.282
-614.29
-614.301
-614.315
-614.33
-614.346
-614.362
-614.376
-614.388
-614.398
-614.403
-614.405
-614.402
-614.396
-614.387
-614.375
-614.361
-614.347
-614.333
-614.32
-614.309
-614.301
-614.296
-614.295
-614.299
-614.306
-614.316
-614.329
-614.343
-614.359
-614.374
-614.388
-614.401
-614.411
-614.417
-614.42
-614.419
-614.414
-614.405
-614.393
-614.379
-614.362
-614.344
-614.326
-614.308
-614.291
-614.277
-614.264
-614.254
-614.248
-614.245
-614.245
-614.249
-614.255
-614.264
-614.275
-614.288
-614.302
-614.316
-614.33
-614.344
-614.357
-614.369
-614.378
-614.386
-614.391
-614.394
-1775.68
-1775.68
-1775.67
-1775.67
-1775.67
-1775.66
-1775.66
-1775.65
-1775.64
-1775.63
-1775.62
-1775.61
-1775.6
-1775.58
-1775.56
-1775.54
-1775.52
-1775.49
-1775.46
-1775.43
-1775.4
-1775.36
-1775.32
-1775.27
-1775.22
-1775.17
-1775.12
-1775.06
-1775
-1774.94
-1774.88
-1774.81
-1774.74
-1774.67
-1774.6
-1774.53
-1774.45
-1774.38
-1774.31
-1774.23
-1774.16
-1774.09
-1774.02
-1773.95
-1773.88
-1773.82
-1773.76
-1773.7
-1773.65
-1773.6
-1773.55
-1773.51
-1773.47
-1773.44
-1773.4
-1773.38
-1773.35
-1773.33
-1773.32
-1773.31
-1773.3
-1773.29
-1773.29
-1773.29
-1773.29
-1773.29
-1773.3
-1773.3
-1773.31
-1773.32
-1773.32
-1773.33
-1773.33
-1773.33
-1773.33
-1773.33
-1773.32
-1773.31
-1773.3
-1773.28
-1773.26
-1773.23
-1773.21
-1773.17
-1773.14
-1773.1
-1773.06
-1773.01
-1772.97
-1772.92
-1772.88
-1772.83
-1772.79
-1772.74
-1772.7
-1772.66
-1772.63
-1772.6
-1772.58
-1772.56
-1772.55
-1772.54
-1772.54
-1772.54
-1772.55
-1772.57
-1772.58
-1772.61
-1772.63
-1772.66
-1772.69
-1772.71
-1772.74
-1772.76
-1772.78
-1772.8
-1772.81
-1772.82
-1772.82
-1772.81
-1772.81
-1772.79
-1772.78
-1772.76
-1772.74
-1772.71
-1772.69
-1772.67
-1772.66
-1772.64
-1772.63
-1772.63
-1772.63
-1772.64
-1772.65
-1772.66
-1772.68
-1772.7
-1772.72
-1772.74
-1772.75
-1772.77
-1772.78
-1772.79
-1772.79
-1772.78
-1772.78
-1772.76
-1772.75
-1772.73
-1772.72
-1772.7
-1772.68
-1772.67
-1772.66
-1772.66
-1772.66
-1772.66
-1772.67
-1772.68
-1772.69
-1772.71
-1772.73
-1772.75
-1772.76
-1772.78
-1772.79
-1772.79
-1772.8
-1772.8
-1772.79
-1772.78
-1772.77
-1772.75
-1772.73
-1772.71
-1772.69
-1772.68
-1772.66
-1772.64
-1772.63
-1772.62
-1772.61
-1772.61
-1772.61
-1772.61
-1772.62
-1772.63
-1772.64
-1772.66
-1772.67
-1772.69
-1772.7
-1772.72
-1772.73
-1772.74
-1772.75
-1772.76
-1772.76
-1772.77
-2801.98
-2801.98
-2801.98
-2801.98
-2801.98
-2801.98
-2801.98
-2801.98
-2801.98
-2801.97
-2801.97
-2801.96
-2801.95
-2801.94
-2801.93
-2801.91
-2801.89
-2801.87
-2801.84
-2801.8
-2801.77
-2801.73
-2801.68
-2801.63
-2801.57
-2801.51
-2801.44
-2801.37
-2801.3
-2801.22
-2801.13
-2801.05
-2800.96
-2800.87
-2800.78
-2800.69
-2800.6
-2800.51
-2800.41
-2800.32
-2800.24
-2800.15
-2800.07
-2799.99
-2799.91
-2799.83
-2799.77
-2799.7
-2799.64
-2799.59
-2799.54
-2799.49
-2799.46
-2799.42
-2799.4
-2799.37
-2799.36
-2799.35
-2799.34
-2799.34
-2799.34
-2799.35
-2799.36
-2799.37
-2799.39
-2799.41
-2799.42
-2799.44
-2799.46
-2799.48
-2799.5
-2799.52
-2799.53
-2799.54
-2799.55
-2799.55
-2799.55
-2799.54
-2799.53
-2799.51
-2799.49
-2799.46
-2799.43
-2799.39
-2799.35
-2799.3
-2799.25
-2799.2
-2799.14
-2799.08
-2799.02
-2798.97
-2798.91
-2798.86
-2798.81
-2798.76
-2798.72
-2798.69
-2798.66
-2798.64
-2798.62
-2798.62
-2798.62
-2798.64
-2798.65
-2798.68
-2798.7
-2798.74
-2798.77
-2798.81
-2798.85
-2798.89
-2798.92
-2798.95
-2798.98
-2799
-2799.01
-2799.02
-2799.02
-2799.02
-2799
-2798.98
-2798.96
-2798.93
-2798.9
-2798.87
-2798.84
-2798.81
-2798.79
-2798.77
-2798.76
-2798.76
-2798.76
-2798.77
-2798.78
-2798.8
-2798.83
-2798.85
-2798.88
-2798.91
-2798.93
-2798.95
-2798.96
-2798.97
-2798.97
-2798.97
-2798.95
-2798.94
-2798.92
-2798.9
-2798.87
-2798.85
-2798.83
-2798.82
-2798.81
-2798.8
-2798.8
-2798.81
-2798.82
-2798.83
-2798.85
-2798.87
-2798.89
-2798.91
-2798.93
-2798.95
-2798.96
-2798.97
-2798.97
-2798.97
-2798.96
-2798.95
-2798.93
-2798.92
-2798.9
-2798.88
-2798.85
-2798.83
-2798.81
-2798.8
-2798.78
-2798.77
-2798.77
-2798.76
-2798.76
-2798.77
-2798.78
-2798.79
-2798.8
-2798.81
-2798.83
-2798.85
-2798.86
-2798.88
-2798.89
-2798.9
-2798.91
-2798.92
-2798.93
-2798.93
-3711.16
-3711.16
-3711.16
-3711.17
-3711.18
-3711.19
-3711.2
-3711.21
-3711.22
-3711.23
-3711.24
-3711.25
-3711.26
-3711.26
-3711.26
-3711.25
-3711.24
-3711.23
-3711.2
-3711.17
-3711.13
-3711.08
-3711.03
-3710.96
-3710.89
-3710.81
-3710.72
-3710.63
-3710.53
-3710.42
-3710.31
-3710.19
-3710.08
-3709.96
-3709.83
-3709.71
-3709.59
-3709.47
-3709.35
-3709.24
-3709.12
-3709.02
-3708.91
-3708.81
-3708.72
-3708.63
-3708.55
-3708.48
-3708.42
-3708.36
-3708.31
-3708.27
-3708.24
-3708.21
-3708.19
-3708.18
-3708.18
-3708.18
-3708.19
-3708.2
-3708.23
-3708.25
-3708.28
-3708.31
-3708.35
-3708.39
-3708.43
-3708.47
-3708.5
-3708.54
-3708.58
-3708.61
-3708.64
-3708.66
-3708.68
-3708.69
-3708.69
-3708.69
-3708.68
-3708.67
-3708.64
-3708.61
-3708.57
-3708.52
-3708.46
-3708.4
-3708.34
-3708.27
-3708.19
-3708.12
-3708.04
-3707.97
-3707.9
-3707.83
-3707.77
-3707.71
-3707.66
-3707.62
-3707.59
-3707.57
-3707.56
-3707.55
-3707.56
-3707.58
-3707.61
-3707.65
-3707.69
-3707.74
-3707.79
-3707.84
-3707.9
-3707.95
-3708
-3708.04
-3708.08
-3708.1
-3708.12
-3708.13
-3708.13
-3708.11
-3708.09
-3708.06
-3708.03
-3707.99
-3707.94
-3707.9
-3707.86
-3707.82
-3707.79
-3707.77
-3707.75
-3707.75
-3707.75
-3707.77
-3707.79
-3707.82
-3707.85
-3707.89
-3707.93
-3707.96
-3707.99
-3708.02
-3708.03
-3708.04
-3708.04
-3708.03
-3708.02
-3708
-3707.97
-3707.94
-3707.91
-3707.88
-3707.86
-3707.84
-3707.82
-3707.82
-3707.82
-3707.82
-3707.84
-3707.86
-3707.88
-3707.9
-3707.93
-3707.96
-3707.98
-3708
-3708.01
-3708.02
-3708.03
-3708.02
-3708.01
-3708
-3707.98
-3707.96
-3707.94
-3707.91
-3707.89
-3707.87
-3707.85
-3707.83
-3707.81
-3707.8
-3707.79
-3707.79
-3707.79
-3707.8
-3707.81
-3707.82
-3707.84
-3707.85
-3707.87
-3707.89
-3707.9
-3707.92
-3707.93
-3707.95
-3707.96
-3707.97
-3707.97
-3707.97
-4516.52
-4516.53
-4516.54
-4516.56
-4516.58
-4516.61
-4516.65
-4516.69
-4516.73
-4516.77
-4516.81
-4516.86
-4516.9
-4516.93
-4516.96
-4516.98
-4516.99
-4516.99
-4516.97
-4516.94
-4516.9
-4516.85
-4516.78
-4516.7
-4516.6
-4516.49
-4516.36
-4516.23
-4516.09
-4515.94
-4515.78
-4515.62
-4515.45
-4515.29
-4515.12
-4514.96
-4514.8
-4514.64
-4514.48
-4514.33
-4514.19
-4514.06
-4513.93
-4513.81
-4513.7
-4513.6
-4513.51
-4513.44
-4513.37
-4513.31
-4513.26
-4513.22
-4513.2
-4513.18
-4513.17
-4513.18
-4513.19
-4513.21
-4513.24
-4513.28
-4513.32
-4513.38
-4513.43
-4513.49
-4513.55
-4513.62
-4513.68
-4513.75
-4513.81
-4513.87
-4513.93
-4513.98
-4514.03
-4514.07
-4514.1
-4514.12
-4514.13
-4514.13
-4514.13
-4514.11
-4514.08
-4514.03
-4513.98
-4513.92
-4513.85
-4513.77
-4513.69
-4513.59
-4513.5
-4513.4
-4513.31
-4513.21
-4513.12
-4513.03
-4512.95
-4512.88
-4512.81
-4512.77
-4512.73
-4512.71
-4512.7
-4512.7
-4512.72
-4512.75
-4512.79
-4512.85
-4512.91
-4512.98
-4513.05
-4513.13
-4513.2
-4513.27
-4513.34
-4513.4
-4513.44
-4513.48
-4513.5
-4513.51
-4513.5
-4513.48
-4513.45
-4513.4
-4513.35
-4513.3
-4513.24
-4513.18
-4513.12
-4513.07
-4513.03
-4513
-4512.98
-4512.97
-4512.98
-4513
-4513.04
-4513.08
-4513.12
-4513.17
-4513.22
-4513.27
-4513.31
-4513.34
-4513.36
-4513.38
-4513.37
-4513.36
-4513.34
-4513.31
-4513.27
-4513.23
-4513.19
-4513.15
-4513.12
-4513.1
-4513.08
-4513.07
-4513.08
-4513.09
-4513.1
-4513.13
-4513.16
-4513.19
-4513.22
-4513.25
-4513.28
-4513.3
-4513.32
-4513.33
-4513.33
-4513.33
-4513.32
-4513.3
-4513.28
-4513.26
-4513.23
-4513.2
-4513.18
-4513.15
-4513.13
-4513.1
-4513.09
-4513.08
-4513.07
-4513.07
-4513.07
-4513.08
-4513.09
-4513.1
-4513.12
-4513.14
-4513.16
-4513.17
-4513.19
-4513.21
-4513.23
-4513.24
-4513.25
-4513.26
-4513.27
-4513.27
-5229.72
-5229.74
-5229.76
-5229.81
-5229.86
-5229.93
-5230.01
-5230.1
-5230.2
-5230.3
-5230.4
-5230.5
-5230.6
-5230.69
-5230.77
-5230.84
-5230.89
-5230.93
-5230.94
-5230.94
-5230.91
-5230.86
-5230.78
-5230.68
-5230.55
-5230.39
-5230.22
-5230.03
-5229.82
-5229.6
-5229.37
-5229.14
-5228.91
-5228.68
-5228.46
-5228.23
-5228.02
-5227.81
-5227.62
-5227.43
-5227.25
-5227.09
-5226.94
-5226.8
-5226.67
-5226.56
-5226.46
-5226.38
-5226.31
-5226.25
-5226.21
-5226.18
-5226.17
-5226.17
-5226.18
-5226.21
-5226.24
-5226.29
-5226.35
-5226.41
-5226.49
-5226.57
-5226.66
-5226.75
-5226.85
-5226.94
-5227.04
-5227.14
-5227.23
-5227.32
-5227.4
-5227.48
-5227.55
-5227.61
-5227.65
-5227.68
-5227.7
-5227.71
-5227.7
-5227.68
-5227.64
-5227.59
-5227.52
-5227.44
-5227.35
-5227.25
-5227.14
-5227.02
-5226.9
-5226.77
-5226.65
-5226.53
-5226.41
-5226.3
-5226.19
-5226.11
-5226.03
-5225.97
-5225.93
-5225.9
-5225.9
-5225.91
-5225.94
-5225.99
-5226.05
-5226.12
-5226.21
-5226.31
-5226.41
-5226.51
-5226.61
-5226.7
-5226.79
-5226.86
-5226.92
-5226.96
-5226.99
-5227
-5226.98
-5226.95
-5226.91
-5226.85
-5226.78
-5226.7
-5226.62
-5226.54
-5226.46
-5226.4
-5226.34
-5226.3
-5226.28
-5226.28
-5226.29
-5226.32
-5226.36
-5226.42
-5226.48
-5226.55
-5226.62
-5226.68
-5226.73
-5226.77
-5226.79
-5226.8
-5226.8
-5226.78
-5226.75
-5226.71
-5226.66
-5226.61
-5226.56
-5226.52
-5226.48
-5226.44
-5226.43
-5226.42
-5226.42
-5226.43
-5226.46
-5226.49
-5226.53
-5226.56
-5226.6
-5226.64
-5226.67
-5226.7
-5226.72
-5226.73
-5226.73
-5226.73
-5226.72
-5226.7
-5226.67
-5226.64
-5226.61
-5226.58
-5226.55
-5226.52
-5226.49
-5226.47
-5226.45
-5226.44
-5226.44
-5226.44
-5226.44
-5226.45
-5226.46
-5226.48
-5226.49
-5226.51
-5226.53
-5226.55
-5226.57
-5226.59
-5226.61
-5226.62
-5226.63
-5226.64
-5226.65
-5226.65
-5861.27
-5861.3
-5861.36
-5861.46
-5861.58
-5861.74
-5861.92
-5862.13
-5862.35
-5862.59
-5862.84
-5863.08
-5863.31
-5863.53
-5863.73
-5863.89
-5864.02
-5864.1
-5864.14
-5864.13
-5864.08
-5863.98
-5863.84
-5863.65
-5863.42
-5863.16
-5862.87
-5862.55
-5862.23
-5861.89
-5861.56
-5861.23
-5860.9
-5860.59
-5860.29
-5860
-5859.73
-5859.47
-5859.22
-5859
-5858.79
-5858.6
-5858.42
-5858.27
-5858.14
-5858.01
-5857.91
-5857.82
-5857.76
-5857.71
-5857.67
-5857.66
-5857.66
-5857.68
-5857.72
-5857.77
-5857.84
-5857.91
-5858
-5858.11
-5858.22
-5858.34
-5858.46
-5858.59
-5858.73
-5858.86
-5859
-5859.13
-5859.26
-5859.38
-5859.49
-5859.6
-5859.69
-5859.77
-5859.83
-5859.87
-5859.9
-5859.91
-5859.9
-5859.88
-5859.83
-5859.76
-5859.68
-5859.58
-5859.46
-5859.33
-5859.19
-5859.04
-5858.88
-5858.72
-5858.57
-5858.41
-5858.26
-5858.12
-5858
-5857.89
-5857.8
-5857.73
-5857.68
-5857.65
-5857.65
-5857.67
-5857.72
-5857.78
-5857.87
-5857.97
-5858.09
-5858.21
-5858.34
-5858.48
-5858.6
-5858.73
-5858.84
-5858.93
-5859
-5859.05
-5859.08
-5859.09
-5859.07
-5859.02
-5858.96
-5858.88
-5858.79
-5858.68
-5858.58
-5858.47
-5858.38
-5858.29
-5858.22
-5858.18
-5858.15
-5858.15
-5858.17
-5858.21
-5858.27
-5858.34
-5858.42
-5858.51
-5858.59
-5858.67
-5858.74
-5858.79
-5858.82
-5858.83
-5858.82
-5858.79
-5858.75
-5858.7
-5858.64
-5858.57
-5858.51
-5858.45
-5858.41
-5858.37
-5858.35
-5858.34
-5858.34
-5858.36
-5858.39
-5858.43
-5858.47
-5858.52
-5858.57
-5858.61
-5858.65
-5858.68
-5858.7
-5858.72
-5858.72
-5858.71
-5858.7
-5858.67
-5858.65
-5858.61
-5858.58
-5858.54
-5858.51
-5858.47
-5858.44
-5858.42
-5858.4
-5858.39
-5858.38
-5858.38
-5858.39
-5858.4
-5858.41
-5858.43
-5858.45
-5858.47
-5858.49
-5858.51
-5858.54
-5858.56
-5858.57
-5858.59
-5858.6
-5858.61
-5858.62
-5858.62
-6419.94
-6419.99
-6420.11
-6420.28
-6420.5
-6420.79
-6421.12
-6421.5
-6421.91
-6422.33
-6422.75
-6423.14
-6423.51
-6423.83
-6424.12
-6424.36
-6424.55
-6424.69
-6424.77
-6424.81
-6424.79
-6424.71
-6424.57
-6424.36
-6424.09
-6423.75
-6423.34
-6422.89
-6422.43
-6421.96
-6421.51
-6421.06
-6420.64
-6420.24
-6419.86
-6419.5
-6419.16
-6418.85
-6418.57
-6418.31
-6418.07
-6417.86
-6417.67
-6417.5
-6417.36
-6417.23
-6417.13
-6417.05
-6417
-6416.96
-6416.95
-6416.95
-6416.98
-6417.02
-6417.09
-6417.17
-6417.27
-6417.38
-6417.51
-6417.65
-6417.81
-6417.97
-6418.14
-6418.31
-6418.49
-6418.67
-6418.85
-6419.02
-6419.19
-6419.34
-6419.49
-6419.62
-6419.74
-6419.84
-6419.92
-6419.98
-6420.01
-6420.03
-6420.01
-6419.98
-6419.92
-6419.84
-6419.73
-6419.6
-6419.46
-6419.3
-6419.12
-6418.93
-6418.74
-6418.54
-6418.35
-6418.16
-6417.97
-6417.8
-6417.65
-6417.52
-6417.41
-6417.33
-6417.27
-6417.24
-6417.25
-6417.28
-6417.34
-6417.43
-6417.55
-6417.68
-6417.83
-6417.99
-6418.16
-6418.32
-6418.49
-6418.64
-6418.77
-6418.89
-6418.98
-6419.04
-6419.07
-6419.07
-6419.04
-6418.98
-6418.9
-6418.79
-6418.67
-6418.54
-6418.41
-6418.27
-6418.15
-6418.05
-6417.96
-6417.9
-6417.88
-6417.87
-6417.9
-6417.96
-6418.03
-6418.13
-6418.23
-6418.34
-6418.45
-6418.55
-6418.62
-6418.68
-6418.72
-6418.73
-6418.72
-6418.68
-6418.63
-6418.56
-6418.49
-6418.41
-6418.33
-6418.26
-6418.2
-6418.16
-6418.13
-6418.13
-6418.13
-6418.16
-6418.2
-6418.24
-6418.3
-6418.35
-6418.41
-6418.46
-6418.5
-6418.54
-6418.56
-6418.58
-6418.58
-6418.57
-6418.55
-6418.52
-6418.49
-6418.45
-6418.41
-6418.37
-6418.33
-6418.3
-6418.27
-6418.24
-6418.22
-6418.21
-6418.2
-6418.2
-6418.21
-6418.22
-6418.23
-6418.26
-6418.28
-6418.3
-6418.32
-6418.35
-6418.37
-6418.39
-6418.41
-6418.43
-6418.44
-6418.45
-6418.46
-6418.46
-6914
-6914.1
-6914.3
-6914.6
-6915.02
-6915.54
-6916.17
-6916.89
-6917.68
-6918.46
-6919.25
-6920
-6920.71
-6921.39
-6922.05
-6922.57
-6922.97
-6923.26
-6923.42
-6923.45
-6923.36
-6923.14
-6922.82
-6922.39
-6921.86
-6921.24
-6920.53
-6919.64
-6918.87
-6918.16
-6917.49
-6916.87
-6916.31
-6915.8
-6915.34
-6914.92
-6914.53
-6914.19
-6913.88
-6913.59
-6913.34
-6913.12
-6912.92
-6912.75
-6912.61
-6912.5
-6912.4
-6912.33
-6912.29
-6912.27
-6912.28
-6912.31
-6912.36
-6912.44
-6912.53
-6912.65
-6912.79
-6912.94
-6913.11
-6913.3
-6913.5
-6913.71
-6913.92
-6914.14
-6914.37
-6914.59
-6914.82
-6915.03
-6915.24
-6915.44
-6915.62
-6915.79
-6915.93
-6916.05
-6916.15
-6916.22
-6916.26
-6916.28
-6916.26
-6916.22
-6916.14
-6916.04
-6915.91
-6915.75
-6915.58
-6915.38
-6915.16
-6914.93
-6914.7
-6914.46
-6914.22
-6913.99
-6913.77
-6913.57
-6913.38
-6913.23
-6913.1
-6913
-6912.94
-6912.92
-6912.93
-6912.98
-6913.06
-6913.17
-6913.32
-6913.48
-6913.67
-6913.87
-6914.08
-6914.28
-6914.48
-6914.66
-6914.83
-6914.96
-6915.07
-6915.14
-6915.18
-6915.17
-6915.13
-6915.05
-6914.95
-6914.81
-6914.66
-6914.5
-6914.33
-6914.17
-6914.02
-6913.89
-6913.79
-6913.72
-6913.69
-6913.69
-6913.73
-6913.8
-6913.9
-6914.02
-6914.15
-6914.28
-6914.41
-6914.53
-6914.62
-6914.69
-6914.73
-6914.74
-6914.73
-6914.68
-6914.61
-6914.53
-6914.44
-6914.34
-6914.25
-6914.17
-6914.1
-6914.05
-6914.02
-6914.01
-6914.03
-6914.06
-6914.1
-6914.16
-6914.22
-6914.28
-6914.35
-6914.41
-6914.46
-6914.5
-6914.52
-6914.54
-6914.54
-6914.53
-6914.51
-6914.48
-6914.44
-6914.4
-6914.35
-6914.3
-6914.26
-6914.22
-6914.19
-6914.16
-6914.14
-6914.13
-6914.12
-6914.12
-6914.13
-6914.14
-6914.16
-6914.19
-6914.21
-6914.23
-6914.26
-6914.28
-6914.31
-6914.33
-6914.35
-6914.37
-6914.38
-6914.39
-6914.4
-6914.4
-7350.39
-7350.51
-7350.76
-7351.15
-7351.73
-7352.54
-7353.73
-7355.19
-7358.04
-7359.69
-7361
-7362.08
-7363.03
-7363.73
-7364.2
-7364.55
-7364.8
-7364.94
-7365.01
-7365.01
-7364.94
-7364.77
-7364.46
-7363.98
-7363.3
-7362.49
-7361.37
-7359.26
-7358.13
-7357.18
-7356.37
-7355.66
-7355.04
-7354.49
-7353.99
-7353.55
-7353.15
-7352.79
-7352.47
-7352.18
-7351.93
-7351.71
-7351.51
-7351.35
-7351.21
-7351.11
-7351.03
-7350.97
-7350.95
-7350.95
-7350.98
-7351.04
-7351.12
-7351.23
-7351.36
-7351.52
-7351.69
-7351.89
-7352.11
-7352.34
-7352.59
-7352.85
-7353.12
-7353.39
-7353.66
-7353.94
-7354.21
-7354.47
-7354.72
-7354.96
-7355.18
-7355.38
-7355.55
-7355.7
-7355.81
-7355.9
-7355.95
-7355.96
-7355.94
-7355.89
-7355.79
-7355.67
-7355.51
-7355.32
-7355.11
-7354.87
-7354.61
-7354.34
-7354.06
-7353.77
-7353.49
-7353.21
-7352.96
-7352.72
-7352.5
-7352.32
-7352.17
-7352.06
-7352
-7351.97
-7351.99
-7352.06
-7352.16
-7352.3
-7352.48
-7352.68
-7352.91
-7353.15
-7353.4
-7353.65
-7353.88
-7354.1
-7354.3
-7354.46
-7354.58
-7354.66
-7354.7
-7354.69
-7354.63
-7354.54
-7354.4
-7354.24
-7354.06
-7353.86
-7353.66
-7353.46
-7353.28
-7353.13
-7353.01
-7352.93
-7352.9
-7352.91
-7352.96
-7353.04
-7353.16
-7353.31
-7353.47
-7353.63
-7353.78
-7353.92
-7354.03
-7354.11
-7354.15
-7354.16
-7354.14
-7354.08
-7354
-7353.9
-7353.79
-7353.67
-7353.57
-7353.47
-7353.39
-7353.34
-7353.31
-7353.3
-7353.32
-7353.35
-7353.41
-7353.47
-7353.55
-7353.62
-7353.69
-7353.76
-7353.81
-7353.86
-7353.89
-7353.9
-7353.9
-7353.89
-7353.86
-7353.83
-7353.79
-7353.74
-7353.69
-7353.64
-7353.59
-7353.55
-7353.51
-7353.48
-7353.46
-7353.45
-7353.44
-7353.45
-7353.46
-7353.47
-7353.49
-7353.52
-7353.54
-7353.57
-7353.6
-7353.62
-7353.65
-7353.67
-7353.69
-7353.71
-7353.72
-7353.73
-7353.74
-7353.74
-7735.5
-7735.7
-7736.11
-7736.76
-7737.63
-7738.66
-7739.68
-7741.08
-7744.77
-7746.3
-7747.91
-7749.41
-7750.76
-7751.95
-7753.01
-7753.92
-7754.67
-7755.24
-7755.61
-7755.74
-7755.64
-7755.31
-7754.76
-7754
-7753.01
-7751.78
-7750.33
-7748.15
-7746.77
-7745.67
-7744.73
-7743.98
-7743.33
-7742.78
-7742.29
-7741.87
-7741.49
-7741.14
-7740.84
-7740.56
-7740.32
-7740.11
-7739.92
-7739.77
-7739.64
-7739.55
-7739.48
-7739.45
-7739.44
-7739.47
-7739.52
-7739.61
-7739.72
-7739.86
-7740.03
-7740.23
-7740.45
-7740.7
-7740.96
-7741.24
-7741.54
-7741.85
-7742.17
-7742.5
-7742.82
-7743.15
-7743.47
-7743.78
-7744.08
-7744.36
-7744.61
-7744.84
-7745.05
-7745.22
-7745.35
-7745.45
-7745.5
-7745.52
-7745.49
-7745.42
-7745.31
-7745.16
-7744.97
-7744.75
-7744.5
-7744.21
-7743.91
-7743.59
-7743.26
-7742.93
-7742.6
-7742.28
-7741.98
-7741.7
-7741.46
-7741.25
-7741.08
-7740.96
-7740.89
-7740.87
-7740.9
-7740.98
-7741.1
-7741.28
-7741.49
-7741.73
-7742
-7742.29
-7742.58
-7742.87
-7743.15
-7743.41
-7743.63
-7743.82
-7743.96
-7744.05
-7744.08
-7744.07
-7744
-7743.88
-7743.72
-7743.52
-7743.3
-7743.07
-7742.83
-7742.6
-7742.39
-7742.21
-7742.08
-7741.99
-7741.95
-7741.96
-7742.02
-7742.13
-7742.28
-7742.45
-7742.63
-7742.83
-7743.01
-7743.16
-7743.29
-7743.38
-7743.43
-7743.44
-7743.4
-7743.33
-7743.23
-7743.12
-7742.99
-7742.85
-7742.73
-7742.62
-7742.54
-7742.48
-7742.44
-7742.44
-7742.46
-7742.5
-7742.57
-7742.64
-7742.72
-7742.81
-7742.89
-7742.96
-7743.02
-7743.07
-7743.1
-7743.12
-7743.12
-7743.1
-7743.07
-7743.03
-7742.98
-7742.93
-7742.88
-7742.82
-7742.77
-7742.73
-7742.69
-7742.66
-7742.64
-7742.62
-7742.62
-7742.62
-7742.63
-7742.65
-7742.67
-7742.7
-7742.72
-7742.75
-7742.78
-7742.81
-7742.84
-7742.86
-7742.88
-7742.9
-7742.91
-7742.92
-7742.93
-7742.94
-8075.34
-8075.39
-8075.48
-8075.6
-8075.69
-8075.78
-8076
-8076.36
-8088.69
-8088.3
-8088.04
-8087.66
-8087.26
-8086.82
-8086.43
-8086.05
-8085.69
-8085.35
-8085.04
-8084.76
-8084.5
-8084.27
-8084.07
-8083.9
-8083.76
-8083.65
-8083.57
-8083.52
-8083.5
-8083.52
-8083.57
-8083.65
-8083.76
-8083.91
-8084.08
-8084.29
-8084.53
-8084.79
-8085.08
-8085.4
-8085.73
-8086.08
-8086.44
-8086.82
-8087.2
-8087.58
-8087.96
-8088.33
-8088.68
-8089.03
-8089.35
-8089.64
-8089.91
-8090.14
-8090.33
-8090.49
-8090.59
-8090.66
-8090.67
-8090.64
-8090.55
-8090.42
-8090.25
-8090.03
-8089.77
-8089.47
-8089.15
-8088.79
-8088.43
-8088.05
-8087.66
-8087.29
-8086.92
-8086.58
-8086.26
-8085.98
-8085.75
-8085.56
-8085.43
-8085.35
-8085.33
-8085.37
-8085.47
-8085.62
-8085.83
-8086.08
-8086.36
-8086.68
-8087.01
-8087.35
-8087.68
-8088
-8088.3
-8088.55
-8088.76
-8088.92
-8089.02
-8089.06
-8089.03
-8088.94
-8088.8
-8088.61
-8088.38
-8088.12
-8087.85
-8087.57
-8087.31
-8087.07
-8086.87
-8086.72
-8086.62
-8086.57
-8086.59
-8086.67
-8086.8
-8086.97
-8087.17
-8087.39
-8087.61
-8087.81
-8087.99
-8088.14
-8088.24
-8088.29
-8088.29
-8088.25
-8088.17
-8088.05
-8087.91
-8087.76
-8087.62
-8087.48
-8087.36
-8087.26
-8087.19
-8087.16
-8087.16
-8087.18
-8087.23
-8087.3
-8087.39
-8087.48
-8087.58
-8087.67
-8087.75
-8087.81
-8087.86
-8087.9
-8087.91
-8087.91
-8087.89
-8087.86
-8087.82
-8087.76
-8087.71
-8087.65
-8087.59
-8087.53
-8087.49
-8087.45
-8087.41
-8087.39
-8087.38
-8087.37
-8087.38
-8087.39
-8087.41
-8087.43
-8087.46
-8087.49
-8087.52
-8087.55
-8087.58
-8087.61
-8087.63
-8087.65
-8087.67
-8087.69
-8087.7
-8087.71
-8087.71
-8374.61
-8374.62
-8374.64
-8374.75
-8375.05
-8375.47
-8375.73
-8375.97
-8392.52
-8392.26
-8392.05
-8391.78
-8391.46
-8391.14
-8390.81
-8390.49
-8390.19
-8389.89
-8389.61
-8389.35
-8389.12
-8388.9
-8388.72
-8388.56
-8388.43
-8388.33
-8388.26
-8388.22
-8388.22
-8388.26
-8388.33
-8388.44
-8388.58
-8388.76
-8388.97
-8389.22
-8389.5
-8389.81
-8390.14
-8390.5
-8390.89
-8391.29
-8391.71
-8392.13
-8392.57
-8393
-8393.43
-8393.85
-8394.26
-8394.65
-8395.01
-8395.34
-8395.64
-8395.9
-8396.12
-8396.29
-8396.41
-8396.47
-8396.49
-8396.44
-8396.35
-8396.19
-8395.99
-8395.74
-8395.44
-8395.1
-8394.73
-8394.33
-8393.92
-8393.49
-8393.05
-8392.63
-8392.22
-8391.83
-8391.48
-8391.16
-8390.9
-8390.69
-8390.55
-8390.47
-8390.45
-8390.5
-8390.62
-8390.8
-8391.04
-8391.32
-8391.65
-8392.01
-8392.39
-8392.78
-8393.16
-8393.52
-8393.85
-8394.14
-8394.37
-8394.54
-8394.65
-8394.69
-8394.65
-8394.55
-8394.39
-8394.16
-8393.9
-8393.6
-8393.29
-8392.98
-8392.68
-8392.41
-8392.18
-8392.01
-8391.9
-8391.85
-8391.88
-8391.97
-8392.12
-8392.32
-8392.55
-8392.79
-8393.05
-8393.28
-8393.48
-8393.64
-8393.75
-8393.81
-8393.81
-8393.75
-8393.66
-8393.52
-8393.37
-8393.2
-8393.03
-8392.88
-8392.74
-8392.64
-8392.57
-8392.53
-8392.53
-8392.56
-8392.62
-8392.7
-8392.8
-8392.9
-8393
-8393.1
-8393.19
-8393.26
-8393.31
-8393.35
-8393.36
-8393.36
-8393.34
-8393.3
-8393.25
-8393.2
-8393.14
-8393.07
-8393.01
-8392.95
-8392.9
-8392.86
-8392.83
-8392.8
-8392.79
-8392.79
-8392.79
-8392.8
-8392.82
-8392.85
-8392.88
-8392.91
-8392.94
-8392.97
-8393.01
-8393.03
-8393.06
-8393.08
-8393.1
-8393.12
-8393.13
-8393.13
-8393.14
-8641.62
-8641.68
-8641.77
-8641.82
-8641.81
-8641.81
-8641.83
-8641.92
-8661.7
-8661.55
-8661.42
-8661.22
-8660.98
-8660.72
-8660.45
-8660.18
-8659.9
-8659.63
-8659.38
-8659.13
-8658.91
-8658.71
-8658.53
-8658.38
-8658.26
-8658.17
-8658.11
-8658.09
-8658.11
-8658.16
-8658.26
-8658.39
-8658.56
-8658.77
-8659.02
-8659.3
-8659.62
-8659.97
-8660.35
-8660.76
-8661.2
-8661.65
-8662.12
-8662.6
-8663.09
-8663.57
-8664.05
-8664.53
-8664.98
-8665.41
-8665.82
-8666.19
-8666.52
-8666.81
-8667.05
-8667.23
-8667.36
-8667.43
-8667.44
-8667.39
-8667.28
-8667.11
-8666.87
-8666.59
-8666.25
-8665.87
-8665.46
-8665.01
-8664.54
-8664.06
-8663.58
-8663.1
-8662.65
-8662.22
-8661.82
-8661.48
-8661.19
-8660.97
-8660.81
-8660.72
-8660.71
-8660.77
-8660.91
-8661.12
-8661.39
-8661.72
-8662.09
-8662.49
-8662.92
-8663.35
-8663.77
-8664.18
-8664.54
-8664.86
-8665.12
-8665.31
-8665.43
-8665.46
-8665.42
-8665.3
-8665.11
-8664.85
-8664.55
-8664.22
-8663.87
-8663.52
-8663.18
-8662.88
-8662.63
-8662.44
-8662.32
-8662.27
-8662.31
-8662.42
-8662.59
-8662.81
-8663.07
-8663.35
-8663.63
-8663.89
-8664.11
-8664.29
-8664.41
-8664.46
-8664.46
-8664.4
-8664.28
-8664.13
-8663.96
-8663.77
-8663.59
-8663.42
-8663.27
-8663.16
-8663.08
-8663.05
-8663.05
-8663.09
-8663.15
-8663.24
-8663.35
-8663.46
-8663.57
-8663.68
-8663.77
-8663.85
-8663.9
-8663.94
-8663.96
-8663.95
-8663.93
-8663.89
-8663.83
-8663.77
-8663.71
-8663.64
-8663.57
-8663.51
-8663.46
-8663.41
-8663.38
-8663.35
-8663.34
-8663.34
-8663.35
-8663.36
-8663.38
-8663.41
-8663.44
-8663.47
-8663.51
-8663.54
-8663.57
-8663.6
-8663.63
-8663.65
-8663.67
-8663.68
-8663.7
-8663.7
-8663.71
-8877.36
-8877.37
-8877.39
-8877.41
-8877.42
-8877.42
-8877.43
-8877.46
-8900.33
-8900.23
-8900.11
-8899.96
-8899.77
-8899.55
-8899.31
-8899.07
-8898.81
-8898.56
-8898.32
-8898.09
-8897.87
-8897.68
-8897.5
-8897.36
-8897.25
-8897.16
-8897.12
-8897.11
-8897.14
-8897.21
-8897.33
-8897.48
-8897.68
-8897.92
-8898.2
-8898.52
-8898.88
-8899.27
-8899.7
-8900.16
-8900.64
-8901.14
-8901.66
-8902.2
-8902.73
-8903.27
-8903.8
-8904.33
-8904.83
-8905.3
-8905.75
-8906.16
-8906.52
-8906.83
-8907.09
-8907.29
-8907.43
-8907.51
-8907.51
-8907.45
-8907.32
-8907.13
-8906.87
-8906.55
-8906.18
-8905.76
-8905.3
-8904.8
-8904.28
-8903.75
-8903.22
-8902.7
-8902.19
-8901.72
-8901.29
-8900.92
-8900.6
-8900.36
-8900.19
-8900.1
-8900.09
-8900.17
-8900.33
-8900.56
-8900.87
-8901.23
-8901.64
-8902.09
-8902.56
-8903.04
-8903.51
-8903.95
-8904.36
-8904.71
-8904.99
-8905.19
-8905.32
-8905.35
-8905.3
-8905.16
-8904.94
-8904.66
-8904.32
-8903.95
-8903.56
-8903.17
-8902.8
-8902.47
-8902.19
-8901.99
-8901.86
-8901.81
-8901.86
-8901.98
-8902.17
-8902.42
-8902.71
-8903.02
-8903.33
-8903.62
-8903.86
-8904.05
-8904.18
-8904.24
-8904.23
-8904.15
-8904.03
-8903.86
-8903.67
-8903.46
-8903.26
-8903.07
-8902.92
-8902.8
-8902.72
-8902.68
-8902.69
-8902.73
-8902.8
-8902.9
-8903.01
-8903.13
-8903.26
-8903.37
-8903.47
-8903.55
-8903.61
-8903.65
-8903.66
-8903.66
-8903.63
-8903.58
-8903.53
-8903.46
-8903.39
-8903.32
-8903.25
-8903.19
-8903.13
-8903.09
-8903.05
-8903.03
-8903.01
-8903.01
-8903.02
-8903.03
-8903.06
-8903.09
-8903.12
-8903.15
-8903.19
-8903.22
-8903.26
-8903.29
-8903.31
-8903.34
-8903.36
-8903.37
-8903.38
-8903.39
-8903.4
-9086.16
-9086.16
-9086.17
-9086.18
-9086.19
-9086.2
-9086.21
-9086.23
-9111.82
-9111.76
-9111.65
-9111.52
-9111.35
-9111.15
-9110.93
-9110.69
-9110.45
-9110.21
-9109.97
-9109.74
-9109.53
-9109.34
-9109.17
-9109.03
-9108.92
-9108.84
-9108.81
-9108.81
-9108.85
-9108.94
-9109.07
-9109.25
-9109.47
-9109.74
-9110.05
-9110.41
-9110.8
-9111.24
-9111.71
-9112.21
-9112.74
-9113.29
-9113.86
-9114.45
-9115.04
-9115.62
-9116.2
-9116.77
-9117.32
-9117.84
-9118.32
-9118.76
-9119.16
-9119.5
-9119.78
-9119.99
-9120.14
-9120.22
-9120.22
-9120.15
-9120.01
-9119.79
-9119.5
-9119.15
-9118.74
-9118.28
-9117.77
-9117.23
-9116.66
-9116.09
-9115.51
-9114.94
-9114.39
-9113.88
-9113.41
-9113.01
-9112.67
-9112.4
-9112.23
-9112.13
-9112.13
-9112.22
-9112.4
-9112.66
-9112.99
-9113.4
-9113.85
-9114.34
-9114.86
-9115.38
-9115.89
-9116.38
-9116.82
-9117.19
-9117.5
-9117.72
-9117.85
-9117.88
-9117.81
-9117.66
-9117.42
-9117.11
-9116.74
-9116.33
-9115.9
-9115.47
-9115.07
-9114.71
-9114.41
-9114.18
-9114.05
-9114
-9114.05
-9114.19
-9114.41
-9114.69
-9115
-9115.34
-9115.68
-9115.99
-9116.25
-9116.46
-9116.59
-9116.65
-9116.64
-9116.56
-9116.41
-9116.23
-9116.02
-9115.79
-9115.58
-9115.38
-9115.21
-9115.08
-9115
-9114.96
-9114.97
-9115.02
-9115.1
-9115.2
-9115.33
-9115.46
-9115.59
-9115.71
-9115.81
-9115.9
-9115.96
-9116
-9116.01
-9116
-9115.97
-9115.93
-9115.87
-9115.8
-9115.72
-9115.65
-9115.58
-9115.51
-9115.45
-9115.4
-9115.37
-9115.34
-9115.33
-9115.33
-9115.34
-9115.35
-9115.38
-9115.41
-9115.44
-9115.48
-9115.52
-9115.55
-9115.58
-9115.62
-9115.64
-9115.67
-9115.69
-9115.7
-9115.71
-9115.72
-9115.73
-9271.11
-9271.12
-9271.12
-9271.13
-9271.14
-9271.14
-9271.15
-9271.16
-9299.24
-9299.19
-9299.09
-9298.97
-9298.8
-9298.61
-9298.4
-9298.17
-9297.93
-9297.69
-9297.46
-9297.23
-9297.01
-9296.82
-9296.65
-9296.51
-9296.4
-9296.33
-9296.3
-9296.31
-9296.36
-9296.46
-9296.61
-9296.81
-9297.06
-9297.35
-9297.7
-9298.09
-9298.52
-9298.99
-9299.5
-9300.05
-9300.62
-9301.22
-9301.84
-9302.47
-9303.11
-9303.74
-9304.37
-9304.98
-9305.57
-9306.13
-9306.65
-9307.13
-9307.55
-9307.91
-9308.21
-9308.44
-9308.6
-9308.68
-9308.68
-9308.6
-9308.44
-9308.2
-9307.89
-9307.5
-9307.06
-9306.56
-9306.01
-9305.42
-9304.81
-9304.18
-9303.55
-9302.94
-9302.35
-9301.8
-9301.3
-9300.87
-9300.5
-9300.23
-9300.04
-9299.94
-9299.95
-9300.05
-9300.24
-9300.53
-9300.9
-9301.33
-9301.83
-9302.36
-9302.92
-9303.49
-9304.04
-9304.56
-9305.03
-9305.44
-9305.77
-9306
-9306.13
-9306.16
-9306.09
-9305.92
-9305.65
-9305.31
-9304.91
-9304.46
-9304
-9303.54
-9303.1
-9302.71
-9302.39
-9302.15
-9302
-9301.96
-9302.02
-9302.17
-9302.41
-9302.71
-9303.06
-9303.43
-9303.79
-9304.13
-9304.41
-9304.63
-9304.77
-9304.83
-9304.81
-9304.72
-9304.56
-9304.36
-9304.13
-9303.89
-9303.66
-9303.44
-9303.27
-9303.13
-9303.05
-9303.01
-9303.02
-9303.07
-9303.16
-9303.28
-9303.41
-9303.54
-9303.68
-9303.81
-9303.92
-9304.01
-9304.07
-9304.11
-9304.13
-9304.12
-9304.08
-9304.03
-9303.97
-9303.9
-9303.82
-9303.74
-9303.67
-9303.6
-9303.54
-9303.49
-9303.45
-9303.43
-9303.41
-9303.41
-9303.42
-9303.44
-9303.47
-9303.5
-9303.53
-9303.57
-9303.61
-9303.64
-9303.68
-9303.71
-9303.74
-9303.76
-9303.78
-9303.8
-9303.81
-9303.82
-9303.82
-9434.95
-9434.95
-9434.96
-9434.96
-9434.97
-9434.97
-9434.98
-9434.98
-9465.31
-9465.27
-9465.17
-9465.05
-9464.89
-9464.7
-9464.48
-9464.26
-9464.02
-9463.77
-9463.53
-9463.3