/*--------------------------------*- C++ -*----------------------------------*\
  =========                 |
  \\      /  F ield         | OpenFOAM: The Open Source CFD Toolbox
   \\    /   O peration     | Website:  https://openfoam.org
    \\  /    A nd           | Version:  12
     \\/     M anipulation  |
\*---------------------------------------------------------------------------*/
FoamFile
{
    format      ascii;
    class       volScalarField;
    location    "7";
    object      p_rgh;
}
// * * * * * * * * * * * * * * * * * * * * * * * * * * * * * * * * * * * * * //

dimensions      [1 -1 -2 0 0 0 0];

internalField   nonuniform List<scalar> 
3829
(
-2.97463
-2.97361
-2.97154
-2.96837
-2.96406
-2.95853
-2.95174
-2.94361
-2.93408
-2.92308
-2.91053
-2.89635
-2.88045
-2.86273
-2.8431
-2.82148
-2.79777
-2.77189
-2.74377
-2.71333
-2.68052
-2.6453
-2.60764
-2.56752
-2.52497
-2.47999
-2.43265
-2.38302
-2.3312
-2.27729
-2.22143
-2.1638
-2.10455
-2.04389
-1.98203
-1.91919
-1.8556
-1.79151
-1.72718
-1.66288
-1.59887
-1.53543
-1.47282
-1.41133
-1.35159
-1.29371
-1.23789
-1.18436
-1.1333
-1.08491
-1.03933
-0.996684
-0.957077
-0.920578
-0.887233
-0.85706
-0.830057
-0.80619
-0.785398
-0.767585
-0.752614
-0.740316
-0.730484
-0.722881
-0.717233
-0.713242
-0.710583
-0.708912
-0.707868
-0.707083
-0.706182
-0.704742
-0.702417
-0.698842
-0.693669
-0.686581
-0.67729
-0.665551
-0.651168
-0.634004
-0.613999
-0.590703
-0.564455
-0.535425
-0.50379
-0.469761
-0.43363
-0.395762
-0.356579
-0.316559
-0.276232
-0.236159
-0.196936
-0.159155
-0.123411
-0.0902841
-0.0603128
-0.0339908
-0.0117415
0.0060997
0.0192951
0.0277117
0.0311002
0.0297613
0.0239758
0.0140867
0.000564189
-0.0160118
-0.0349643
-0.0555401
-0.076936
-0.0983157
-0.118856
-0.137762
-0.154306
-0.167862
-0.177931
-0.184171
-0.186412
-0.184213
-0.178133
-0.168547
-0.155948
-0.140994
-0.12448
-0.10729
-0.0903516
-0.0745641
-0.0608344
-0.049896
-0.0423567
-0.038616
-0.0388494
-0.0432257
-0.0512794
-0.0625232
-0.0762676
-0.0917295
-0.107806
-0.123515
-0.137898
-0.150033
-0.159156
-0.164717
-0.166388
-0.164027
-0.15794
-0.148589
-0.136652
-0.122934
-0.108392
-0.0941841
-0.0812032
-0.0703526
-0.0623731
-0.0577822
-0.0568021
-0.0603884
-0.0674583
-0.0776755
-0.0904462
-0.104985
-0.120394
-0.135721
-0.150064
-0.162449
-0.172169
-0.178621
-0.181393
-0.180278
-0.175288
-0.166649
-0.154753
-0.140169
-0.123584
-0.105765
-0.0875124
-0.0696714
-0.0529723
-0.0381012
-0.0256231
-0.0159554
-0.00962539
-0.00656273
-0.00679844
-0.0102087
-0.0165802
-0.0256422
-0.0367253
-0.0494112
-0.0631912
-0.0775212
-0.091866
-0.105716
-0.118602
-0.130097
-0.139826
-0.147467
-0.152753
-0.155473
-3.06816
-3.0674
-3.06582
-3.0634
-3.06007
-3.05574
-3.05034
-3.04375
-3.03586
-3.02651
-3.01558
-3.00293
-2.9884
-2.97188
-2.95319
-2.93219
-2.90871
-2.88258
-2.85367
-2.82184
-2.78698
-2.74902
-2.70789
-2.66357
-2.61608
-2.56546
-2.51179
-2.4552
-2.39583
-2.33387
-2.2695
-2.20295
-2.13445
-2.06426
-1.99269
-1.92007
-1.84675
-1.77306
-1.69936
-1.62599
-1.55328
-1.48156
-1.41108
-1.34212
-1.27618
-1.21297
-1.15268
-1.09551
-1.04166
-0.991288
-0.944546
-0.90155
-0.862394
-0.82714
-0.795822
-0.768442
-0.744973
-0.725342
-0.70944
-0.697109
-0.68815
-0.682322
-0.679334
-0.678864
-0.680558
-0.684024
-0.688847
-0.694586
-0.700779
-0.706958
-0.712655
-0.717398
-0.720725
-0.722192
-0.721378
-0.717895
-0.711399
-0.701597
-0.688263
-0.671214
-0.650352
-0.625721
-0.597328
-0.565318
-0.529906
-0.491401
-0.450208
-0.406811
-0.361755
-0.315652
-0.269168
-0.223013
-0.177919
-0.134621
-0.0938483
-0.0563047
-0.0226345
0.0065738
0.030835
0.0497191
0.0628452
0.069892
0.0710363
0.0665692
0.0568101
0.042223
0.0234186
0.00113362
-0.0237801
-0.0503821
-0.07768
-0.104636
-0.130242
-0.15353
-0.173616
-0.189753
-0.201346
-0.207985
-0.209476
-0.205862
-0.197401
-0.184551
-0.168015
-0.148672
-0.127546
-0.105761
-0.0844725
-0.0648314
-0.0478936
-0.0345828
-0.025621
-0.0214962
-0.0224235
-0.0282997
-0.0387079
-0.0530014
-0.0702642
-0.0894568
-0.109269
-0.12847
-0.145887
-0.160417
-0.171149
-0.177435
-0.178915
-0.175601
-0.167816
-0.15617
-0.141548
-0.124958
-0.107548
-0.0906885
-0.0754315
-0.0628337
-0.053753
-0.048813
-0.0483866
-0.0522242
-0.0603183
-0.072083
-0.0867318
-0.103314
-0.120784
-0.138058
-0.154083
-0.167859
-0.178586
-0.185626
-0.188561
-0.187214
-0.181636
-0.172103
-0.15909
-0.143244
-0.125327
-0.106183
-0.0866709
-0.0677102
-0.0500708
-0.0344766
-0.0215234
-0.011685
-0.00516208
-0.00218642
-0.00270922
-0.0065595
-0.0134885
-0.0232115
-0.034958
-0.0483095
-0.0627317
-0.0776607
-0.092548
-0.106874
-0.12016
-0.131982
-0.141964
-0.149791
-0.155199
-0.15798
-3.21476
-3.21478
-3.21479
-3.21474
-3.21453
-3.21405
-3.21313
-3.21157
-3.20913
-3.20555
-3.20054
-3.1938
-3.18504
-3.17386
-3.15992
-3.14284
-3.12227
-3.09788
-3.06938
-3.03649
-2.999
-2.95674
-2.9096
-2.85754
-2.80058
-2.73881
-2.6724
-2.60158
-2.52664
-2.44791
-2.36582
-2.28082
-2.1934
-2.10404
-2.01321
-1.92144
-1.82926
-1.7372
-1.6458
-1.55556
-1.46702
-1.3807
-1.29714
-1.21686
-1.13928
-1.0658
-0.996721
-0.93233
-0.872874
-0.818553
-0.769522
-0.725897
-0.687754
-0.655128
-0.628006
-0.606331
-0.590002
-0.578846
-0.572627
-0.571051
-0.573777
-0.580415
-0.590532
-0.603643
-0.61923
-0.636737
-0.655575
-0.675137
-0.694723
-0.713815
-0.73171
-0.74778
-0.761401
-0.771992
-0.779009
-0.781943
-0.78036
-0.77388
-0.762212
-0.745171
-0.722621
-0.694723
-0.661543
-0.623272
-0.580239
-0.532916
-0.481891
-0.427857
-0.371584
-0.313928
-0.255815
-0.198221
-0.14215
-0.0885954
-0.0385406
0.00707575
0.0474253
0.0817885
0.109595
0.130563
0.144787
0.147806
0.14409
0.133425
0.116045
0.092555
0.0637927
0.0307786
-0.0053036
-0.0431558
-0.0814337
-0.11871
-0.153639
-0.184935
-0.211443
-0.232185
-0.246408
-0.253633
-0.253666
-0.246836
-0.233399
-0.214066
-0.189894
-0.162151
-0.132283
-0.101859
-0.0724157
-0.0456179
-0.0228095
-0.00520404
0.00626305
0.0109618
0.0085629
-0.000449317
-0.0155444
-0.0357276
-0.0596757
-0.085894
-0.112668
-0.138323
-0.161283
-0.18013
-0.193728
-0.201245
-0.202171
-0.196826
-0.185705
-0.169721
-0.150086
-0.128172
-0.105538
-0.0838638
-0.0645118
-0.0487868
-0.0377118
-0.0319857
-0.0319753
-0.0370982
-0.0474351
-0.0621758
-0.0802887
-0.100567
-0.121715
-0.142415
-0.161403
-0.177575
-0.190001
-0.197998
-0.201154
-0.199335
-0.192648
-0.181504
-0.166508
-0.148437
-0.128194
-0.10675
-0.0850622
-0.064184
-0.0449442
-0.0281138
-0.0143185
-0.0040286
0.002592
0.00532912
0.00427144
-0.0003587
-0.00825754
-0.0191398
-0.0320237
-0.0465076
-0.0620165
-0.0779563
-0.0937538
-0.108873
-0.122826
-0.135188
-0.145589
-0.15372
-0.159326
-0.162205
-3.35147
-3.35349
-3.35752
-3.36351
-3.3713
-3.38069
-3.39134
-3.40286
-3.41473
-3.42633
-3.43691
-3.44563
-3.45176
-3.45464
-3.45353
-3.44771
-3.43644
-3.41901
-3.39479
-3.36323
-3.32385
-3.27635
-3.22051
-3.15631
-3.08386
-3.00347
-2.91556
-2.82074
-2.71971
-2.61327
-2.50213
-2.38703
-2.26882
-2.1484
-2.0267
-1.90459
-1.78291
-1.66247
-1.54405
-1.42837
-1.3161
-1.20785
-1.10422
-1.00577
-0.911812
-0.826014
-0.747594
-0.676446
-0.612599
-0.556135
-0.507143
-0.465699
-0.431843
-0.40556
-0.386779
-0.375358
-0.371074
-0.373616
-0.382606
-0.397589
-0.418052
-0.443409
-0.473017
-0.506174
-0.54213
-0.580094
-0.619228
-0.658682
-0.697609
-0.735103
-0.770297
-0.80232
-0.830333
-0.85356
-0.871284
-0.882847
-0.887701
-0.885414
-0.875673
-0.858384
-0.832281
-0.798795
-0.757877
-0.709804
-0.655101
-0.594449
-0.5287
-0.458847
-0.385988
-0.31134
-0.236202
-0.161933
-0.0899489
-0.0216326
0.0416683
0.0986649
0.148149
0.189047
0.220493
0.241691
0.251868
0.254028
0.24533
0.226443
0.198248
0.161852
0.118573
0.0699312
0.0176251
-0.0365132
-0.0905647
-0.142613
-0.190796
-0.233372
-0.268792
-0.295796
-0.313431
-0.321087
-0.318544
-0.306416
-0.285179
-0.255986
-0.220374
-0.180173
-0.13745
-0.0944041
-0.0532921
-0.0162205
0.0148887
0.0384623
0.0533201
0.0586907
0.0536727
0.0395946
0.0173429
-0.0116119
-0.0453993
-0.0818886
-0.118687
-0.15353
-0.184274
-0.209064
-0.226544
-0.235864
-0.23538
-0.226735
-0.210598
-0.188265
-0.16141
-0.13193
-0.101942
-0.0735614
-0.0485931
-0.0286493
-0.0149422
-0.0082266
-0.00878713
-0.016123
-0.0298388
-0.0488629
-0.0718402
-0.0972227
-0.123378
-0.148692
-0.171644
-0.190943
-0.20554
-0.214697
-0.218012
-0.215407
-0.207172
-0.193811
-0.176116
-0.155054
-0.131715
-0.107248
-0.0826919
-0.0593396
-0.0380433
-0.0196423
-0.00478783
0.00606811
0.0127239
0.0150814
0.0132786
0.00760527
-0.00157211
-0.0140144
-0.0283689
-0.044306
-0.0612046
-0.0784306
-0.0953791
-0.111493
-0.12628
-0.139312
-0.150229
-0.158732
-0.164579
-0.167577
-3.42789
-3.43392
-3.44606
-3.46421
-3.48815
-3.51747
-3.55168
-3.59011
-3.6316
-3.67489
-3.71858
-3.7611
-3.80062
-3.83524
-3.86313
-3.88262
-3.89221
-3.89058
-3.87663
-3.84949
-3.8085
-3.75327
-3.68361
-3.59964
-3.5018
-3.39087
-3.26797
-3.13447
-2.99186
-2.84153
-2.68487
-2.52356
-2.35919
-2.19331
-2.02734
-1.86259
-1.70031
-1.54159
-1.38746
-1.23884
-1.09657
-0.961482
-0.834155
-0.715217
-0.605385
-0.507368
-0.418701
-0.339826
-0.271095
-0.212753
-0.164932
-0.127668
-0.100924
-0.0845691
-0.0783774
-0.0820079
-0.0950111
-0.116864
-0.146979
-0.184671
-0.229189
-0.279699
-0.335292
-0.394995
-0.457776
-0.522559
-0.5878
-0.653116
-0.716907
-0.777986
-0.83519
-0.887376
-0.933431
-0.97233
-1.00312
-1.02494
-1.03707
-1.03893
-1.03007
-1.01009
-0.979814
-0.938663
-0.886993
-0.825415
-0.754754
-0.676016
-0.590417
-0.499363
-0.404396
-0.30721
-0.209603
-0.113442
-0.0206293
0.0669504
0.147445
0.219117
0.280439
0.330035
0.366776
0.389803
0.398618
0.394553
0.376632
0.34546
0.302169
0.248268
0.185587
0.116242
0.0425935
-0.0328348
-0.107418
-0.178535
-0.243678
-0.300508
-0.347006
-0.381546
-0.402971
-0.410668
-0.404003
-0.384165
-0.352074
-0.30943
-0.258407
-0.20158
-0.14184
-0.0822261
-0.0258643
0.0243906
0.0659661
0.0968143
0.115621
0.122367
0.112432
0.0911811
0.0592451
0.0185552
-0.0282811
-0.0782884
-0.128126
-0.174752
-0.215276
-0.2473
-0.269192
-0.280452
-0.277624
-0.264487
-0.241696
-0.21102
-0.17478
-0.13558
-0.0962914
-0.0595345
-0.0276718
-0.0026784
0.0140371
0.021666
0.020053
0.00972644
-0.00840709
-0.0329071
-0.0619984
-0.0937044
-0.125983
-0.156864
-0.184533
-0.207486
-0.224546
-0.234933
-0.238276
-0.234606
-0.224347
-0.208221
-0.187225
-0.162553
-0.135513
-0.107432
-0.0796307
-0.0533727
-0.0297138
-0.00954212
0.00647391
0.0178973
0.0245309
0.0263777
0.0236514
0.0167301
0.00606033
-0.00828398
-0.0243268
-0.0419262
-0.0604105
-0.0790966
-0.0973433
-0.114571
-0.130283
-0.144052
-0.15553
-0.164436
-0.170541
-0.173665
-3.24769
-3.26201
-3.29081
-3.33392
-3.39079
-3.46028
-3.54087
-3.63042
-3.72685
-3.8275
-3.92968
-4.0304
-4.12692
-4.2164
-4.29617
-4.36368
-4.41654
-4.45251
-4.46944
-4.46521
-4.43782
-4.38555
-4.30728
-4.20282
-4.07303
-3.91955
-3.74489
-3.55204
-3.34435
-3.12554
-2.89959
-2.66972
-2.43868
-2.20885
-1.9823
-1.76086
-1.54611
-1.33944
-1.14202
-0.95488
-0.778894
-0.61461
-0.462702
-0.323567
-0.19736
-0.0856851
0.0113736
0.0945459
0.163884
0.219362
0.260992
0.288835
0.303064
0.303966
0.291958
0.267564
0.231408
0.184222
0.126837
0.0601803
-0.0147228
-0.096736
-0.184655
-0.277162
-0.372879
-0.470365
-0.568114
-0.664642
-0.758371
-0.847728
-0.931199
-1.0073
-1.07459
-1.13178
-1.17762
-1.21108
-1.23123
-1.23737
-1.229
-1.20555
-1.16773
-1.11547
-1.04927
-0.969987
-0.878757
-0.776957
-0.666255
-0.548562
-0.425958
-0.30071
-0.175223
-0.0520139
0.066367
0.177456
0.278867
0.368341
0.443843
0.503629
0.546323
0.570949
0.576913
0.565025
0.535087
0.488088
0.425565
0.349564
0.262579
0.167475
0.0674299
-0.034177
-0.133833
-0.228095
-0.313637
-0.387452
-0.446906
-0.489919
-0.515056
-0.521613
-0.509248
-0.479254
-0.433173
-0.373368
-0.302858
-0.2252
-0.144326
-0.0641546
0.0108196
0.0769942
0.130931
0.169808
0.191483
0.19418
0.182664
0.153403
0.109416
0.0539722
-0.00915174
-0.0759182
-0.141711
-0.202575
-0.254676
-0.294889
-0.320796
-0.330493
-0.327633
-0.309336
-0.278247
-0.237213
-0.189483
-0.138581
-0.0882018
-0.0416256
-0.00183083
0.0288141
0.0486927
0.0569911
0.0537151
0.0396064
0.016061
-0.0150072
-0.051314
-0.0903778
-0.129688
-0.166883
-0.199813
-0.226762
-0.24643
-0.258005
-0.261179
-0.256117
-0.243429
-0.224069
-0.19928
-0.170513
-0.139322
-0.107256
-0.0758372
-0.0464419
-0.0202508
0.00178777
0.0189875
0.0309294
0.0374608
0.0386701
0.0348699
0.0265499
0.014266
-0.00230157
-0.0201384
-0.0395223
-0.0597089
-0.0799538
-0.0995752
-0.117973
-0.134644
-0.149172
-0.161222
-0.170533
-0.176896
-0.180145
-2.83554
-2.86652
-2.92895
-3.02286
-3.14791
-3.30267
-3.48529
-3.69175
-3.91763
-4.15633
-4.40147
-4.64547
-4.88091
-5.09973
-5.29398
-5.45682
-5.58257
-5.6668
-5.70644
-5.69974
-5.64628
-5.54676
-5.40284
-5.21651
-4.99075
-4.72896
-4.4362
-4.12052
-3.79156
-3.45778
-3.12411
-2.79405
-2.47084
-2.15713
-1.85497
-1.56594
-1.29128
-1.03197
-0.788803
-0.562459
-0.353477
-0.162479
0.0101295
0.16385
0.297849
0.420624
0.524934
0.610789
0.678285
0.727602
0.759004
0.772861
0.769636
0.749901
0.71431
0.6636
0.598618
0.520335
0.429838
0.328327
0.217116
0.0976786
-0.0284268
-0.159515
-0.293828
-0.429506
-0.564686
-0.697401
-0.825656
-0.947468
-1.06093
-1.16416
-1.25534
-1.33283
-1.39516
-1.44099
-1.46928
-1.4793
-1.47055
-1.4414
-1.39355
-1.3271
-1.24276
-1.14168
-1.02535
-0.89561
-0.754661
-0.60501
-0.449401
-0.290815
-0.132388
0.022674
0.171095
0.309673
0.435326
0.545194
0.636759
0.707852
0.756805
0.782473
0.784271
0.762583
0.717885
0.651618
0.565863
0.463341
0.34735
0.22166
0.090423
-0.042008
-0.171018
-0.292169
-0.401248
-0.494378
-0.568279
-0.620357
-0.64881
-0.652678
-0.633155
-0.590508
-0.527199
-0.4465
-0.352491
-0.24987
-0.143776
-0.0395782
0.0572992
0.142001
0.210181
0.258368
0.284174
0.286519
0.26718
0.226389
0.167215
0.0937889
0.0111101
-0.0754592
-0.159977
-0.237322
-0.302664
-0.352147
-0.383088
-0.394071
-0.386695
-0.360926
-0.319501
-0.266069
-0.204872
-0.140415
-0.0773963
-0.0198203
0.0286866
0.0653537
0.0883801
0.0969815
0.0913801
0.072689
0.0428006
0.00419206
-0.0402695
-0.0875348
-0.134589
-0.17862
-0.217179
-0.248311
-0.270607
-0.283251
-0.286025
-0.279258
-0.263775
-0.24079
-0.211827
-0.178606
-0.142946
-0.106638
-0.0713902
-0.0387253
-0.00992884
0.0139942
0.032346
0.0447344
0.0510659
0.0515197
0.0465193
0.0366885
0.022752
0.00367706
-0.0159624
-0.0371948
-0.0591422
-0.0809877
-0.102008
-0.121584
-0.139213
-0.154488
-0.167095
-0.176797
-0.183406
-0.186775
-1.67328
-1.72891
-1.84145
-2.01131
-2.23869
-2.52066
-2.8576
-3.23428
-3.64717
-4.06496
-4.48143
-4.8742
-5.24022
-5.56872
-5.85549
-6.09394
-6.28233
-6.42018
-6.50702
-6.54146
-6.52101
-6.44218
-6.30117
-6.09434
-5.82104
-5.48024
-5.07875
-4.62544
-4.16054
-3.69456
-3.23918
-2.7978
-2.3745
-1.97112
-1.58923
-1.23042
-0.895647
-0.585569
-0.300246
-0.0393403
0.197348
0.410196
0.599782
0.76655
0.911002
1.03388
1.13342
1.21173
1.26873
1.3045
1.31925
1.31334
1.28731
1.24178
1.17751
1.0954
0.996491
0.881978
0.753202
0.611647
0.458955
0.29695
0.127571
-0.0470879
-0.224847
-0.403421
-0.580451
-0.753517
-0.92015
-1.07789
-1.2244
-1.35734
-1.47449
-1.57387
-1.65363
-1.71215
-1.74812
-1.7604
-1.74824
-1.7131
-1.65343
-1.57007
-1.46422
-1.33744
-1.19172
-1.02944
-0.853454
-0.666981
-0.4735
-0.276762
-0.0807249
0.110529
0.292877
0.462353
0.615147
0.747714
0.856934
0.940162
0.995408
1.02135
1.01744
0.983899
0.921756
0.832936
0.720166
0.586988
0.437638
0.276932
0.110165
-0.0573076
-0.219397
-0.37073
-0.506023
-0.620486
-0.710056
-0.771642
-0.803186
-0.803852
-0.77438
-0.716224
-0.632442
-0.527276
-0.405985
-0.274582
-0.139608
-0.00803395
0.113592
0.219056
0.303004
0.361235
0.391005
0.391297
0.363141
0.308523
0.231343
0.136969
0.0317581
-0.0775288
-0.183207
-0.27894
-0.358826
-0.41827
-0.454244
-0.465468
-0.452832
-0.417983
-0.3644
-0.296718
-0.220295
-0.140711
-0.0637814
0.00570102
0.0634518
0.106306
0.132311
0.140768
0.132189
0.108141
0.0710747
0.0241041
-0.0292662
-0.0853774
-0.140674
-0.191901
-0.236283
-0.271649
-0.296502
-0.310044
-0.312168
-0.303413
-0.284826
-0.257915
-0.224494
-0.186581
-0.146255
-0.105554
-0.0663837
-0.0304077
0.000992957
0.0267619
0.046198
0.0589455
0.0649791
0.0645741
0.0582717
0.0468342
0.0311966
0.00956734
-0.0118915
-0.0350055
-0.0587296
-0.0821744
-0.104579
-0.125309
-0.143865
-0.159855
-0.17299
-0.183056
-0.189893
-0.19337
0.201239
0.103766
-0.0947299
-0.399858
-0.814803
-1.33887
-1.972
-2.68869
-3.48079
-4.26355
-5.04694
-5.79827
-6.51163
-7.19091
-7.84632
-8.36757
-8.77195
-9.05596
-9.21506
-9.24772
-9.15554
-8.9428
-8.61728
-8.18557
-7.65719
-7.03666
-6.32473
-5.43869
-4.6677
-3.95489
-3.28824
-2.67369
-2.1114
-1.59999
-1.13609
-0.715351
-0.333839
0.0119701
0.324691
0.606206
0.858132
1.08166
1.27752
1.44638
1.58883
1.70527
1.79919
1.86769
1.911
1.92952
1.92367
1.89399
1.8411
1.76572
1.66872
1.55114
1.41422
1.25935
1.08815
0.902386
0.704046
0.495329
0.278569
0.0563104
-0.168807
-0.39402
-0.616464
-0.833208
-1.04127
-1.23767
-1.41958
-1.58421
-1.72889
-1.85122
-1.94904
-2.02045
-2.0639
-2.0783
-2.06296
-2.01802
-1.94347
-1.84013
-1.70943
-1.55333
-1.37434
-1.17546
-0.96023
-0.732641
-0.497008
-0.257984
-0.0204281
0.210675
0.430283
0.633554
0.815838
0.972853
1.10088
1.19678
1.25819
1.28355
1.2724
1.22502
1.1429
1.02852
0.885338
0.717832
0.53129
0.331687
0.125551
-0.0802554
-0.2787
-0.462964
-0.626639
-0.763956
-0.870061
-0.941294
-0.975325
-0.971327
-0.930093
-0.853953
-0.746763
-0.613913
-0.462002
-0.298475
-0.131438
0.0304192
0.17916
0.307182
0.408019
0.476688
0.510004
0.506922
0.46857
0.398017
0.300373
0.182428
0.0520329
-0.0825111
-0.211375
-0.327002
-0.422376
-0.492125
-0.532837
-0.543302
-0.52449
-0.479162
-0.411827
-0.328308
-0.235189
-0.139248
-0.0474374
0.0345738
0.101859
0.150883
0.179584
0.187401
0.175232
0.145135
0.100196
0.0442129
-0.0186267
-0.0840255
-0.147874
-0.206477
-0.256734
-0.296281
-0.323553
-0.337793
-0.33903
-0.328039
-0.306111
-0.275053
-0.236994
-0.194248
-0.149169
-0.104028
-0.0609292
-0.021672
0.012274
0.0398104
0.0602423
0.0732545
0.0789015
0.0775552
0.0698745
0.0567522
0.0392662
0.0154101
-0.00798547
-0.0329916
-0.0584742
-0.0834843
-0.10723
-0.129067
-0.148502
-0.165163
-0.178785
-0.189184
-0.196225
-0.199799
3.14237
3.02528
2.77513
2.38555
1.81081
1.00111
-0.193217
-1.64887
-4.50807
-6.15056
-7.46186
-8.54118
-9.48932
-10.1944
-10.6604
-11.0177
-11.2616
-11.4067
-11.4741
-11.4765
-11.4058
-11.2332
-10.9264
-10.444
-9.76253
-8.95669
-7.82966
-5.72314
-4.58986
-3.64615
-2.83475
-2.12438
-1.5024
-0.949007
-0.453634
-0.00955715
0.389048
0.746677
1.06705
1.35297
1.60658
1.8294
2.02257
2.18679
2.32254
2.43021
2.51054
2.5632
2.58822
2.58576
2.55608
2.4996
2.41692
2.30878
2.17613
2.02013
1.84219
1.64394
1.42723
1.19416
0.947057
0.688514
0.421296
0.148417
-0.126973
-0.401635
-0.672133
-0.935004
-1.1867
-1.42372
-1.64269
-1.84035
-2.01353
-2.15944
-2.27556
-2.35966
-2.41003
-2.42541
-2.4051
-2.34897
-2.25745
-2.13163
-1.97326
-1.78478
-1.56927
-1.33037
-1.07239
-0.800185
-0.518957
-0.234296
0.0479503
0.321784
0.581204
0.820436
1.03396
1.21672
1.36432
1.47309
1.54033
1.56431
1.54451
1.4815
1.37716
1.23462
1.05816
0.853258
0.626368
0.384728
0.136221
-0.110809
-0.348075
-0.567353
-0.761022
-0.922258
-1.04538
-1.12614
-1.16193
-1.15191
-1.09723
-1.00093
-0.867835
-0.704584
-0.519257
-0.320858
-0.119146
0.0752818
0.252983
0.404903
0.523392
0.602638
0.638997
0.631401
0.581392
0.493046
0.372808
0.229033
0.0713253
-0.0905439
-0.244163
-0.380771
-0.492221
-0.572347
-0.617381
-0.626181
-0.600191
-0.543139
-0.460716
-0.360072
-0.24913
-0.135928
-0.0285934
0.0662924
0.143188
0.198212
0.22925
0.235928
0.219618
0.182897
0.129546
0.0640833
-0.00858828
-0.0835248
-0.156061
-0.222064
-0.27813
-0.321723
-0.35123
-0.365957
-0.366091
-0.352667
-0.327227
-0.291891
-0.249107
-0.201484
-0.151653
-0.102108
-0.0551457
-0.0126937
0.0236969
0.0528971
0.0742234
0.087411
0.0925942
0.090247
0.0811412
0.0662964
0.0469224
0.0210409
-0.00430053
-0.0311741
-0.0583678
-0.0848851
-0.109909
-0.132792
-0.153046
-0.170325
-0.184391
-0.195087
-0.202309
-0.205967
7.22044
7.01967
6.61656
5.96856
5.09898
4.06541
3.04862
1.64285
-2.04852
-3.57915
-5.18333
-6.68241
-8.03107
-9.22864
-10.2852
-11.1935
-11.943
-12.5151
-12.8819
-13.0184
-12.9172
-12.5874
-12.0404
-11.2767
-10.2871
-9.05623
-7.60466
-5.4267
-4.04665
-2.94737
-2.00595
-1.25137
-0.604086
-0.0512431
0.431308
0.857792
1.23891
1.58086
1.8877
2.1621
2.4055
2.61876
2.8023
2.95625
3.08065
3.1754
3.24077
3.27606
3.28113
3.256
3.2008
3.11586
3.0017
2.85908
2.68902
2.49279
2.27195
2.02836
1.76415
1.48174
1.18381
0.873372
0.553651
0.228157
-0.0994636
-0.425396
-0.745664
-1.05623
-1.35296
-1.63178
-1.88879
-2.12019
-2.32234
-2.49202
-2.62633
-2.72273
-2.77929
-2.79461
-2.76791
-2.69914
-2.58889
-2.43855
-2.25027
-2.027
-1.7724
-1.49086
-1.18748
-0.868011
-0.538605
-0.205858
0.123356
0.441999
0.743034
1.01971
1.26562
1.47488
1.64242
1.76404
1.83667
1.85842
1.82878
1.74859
1.62021
1.44742
1.23543
0.990768
0.721131
0.435105
0.142009
-0.148316
-0.426154
-0.681866
-0.906566
-1.09233
-1.23262
-1.32261
-1.35939
-1.34219
-1.27256
-1.15429
-0.993276
-0.797496
-0.576591
-0.341242
-0.10291
0.125745
0.333686
0.510378
0.646946
0.736707
0.775556
0.762447
0.699466
0.591737
0.44715
0.275851
0.0893686
-0.101755
-0.281042
-0.439267
-0.567061
-0.657422
-0.706262
-0.712587
-0.678463
-0.608639
-0.510085
-0.391354
-0.261808
-0.130782
-0.00759693
0.100255
0.186645
0.247391
0.28037
0.285434
0.264521
0.220732
0.158592
0.0833698
0.000687722
-0.0838601
-0.165059
-0.238361
-0.300075
-0.347515
-0.379047
-0.39406
-0.392909
-0.376907
-0.347852
-0.308187
-0.260672
-0.208212
-0.153705
-0.0998561
-0.0491534
-0.0036355
0.0350711
0.0658159
0.0879325
0.101213
0.105871
0.102486
0.0919396
0.0753661
0.0541039
0.026388
-0.000872514
-0.02956
-0.0583952
-0.0863445
-0.112572
-0.136429
-0.15744
-0.175281
-0.189744
-0.200704
-0.208081
-0.211812
12.1506
12.1062
12.0103
11.8932
11.8013
11.7074
11.4945
11.1275
-1.19534
-0.803717
-0.549741
-0.166718
0.232672
0.669667
1.06204
1.44401
1.80425
2.14055
2.45052
2.73363
2.98945
3.21763
3.41769
3.58902
3.7309
3.8426
3.9234
3.97273
3.98991
3.97448
3.92616
3.8449
3.73091
3.58463
3.40682
3.19856
2.96123
2.69657
2.40668
2.09395
1.76113
1.41129
1.04787
0.674581
0.295426
-0.0854175
-0.463559
-0.834446
-1.19345
-1.53584
-1.85695
-2.15233
-2.41765
-2.64876
-2.84202
-2.99414
-3.10228
-3.16427
-3.17856
-3.14438
-3.0617
-2.93133
-2.75493
-2.53509
-2.27529
-1.97983
-1.65383
-1.30326
-0.934772
-0.555519
-0.173122
0.204479
0.56917
0.912854
1.22779
1.50664
1.7427
1.93021
2.06443
2.14195
2.1607
2.12021
2.02163
1.86781
1.66328
1.41416
1.12812
0.814121
0.482168
0.143064
-0.191813
-0.51125
-0.804168
-1.06039
-1.27087
-1.4282
-1.52698
-1.56402
-1.53864
-1.45284
-1.3112
-1.1208
-0.890999
-0.633025
-0.359371
-0.0831065
0.18078
0.419685
0.621584
0.776342
0.87638
0.917164
0.89768
0.820643
0.692279
0.522062
0.32204
0.10606
-0.116152
-0.32127
-0.501363
-0.645489
-0.745774
-0.797854
-0.800973
-0.757902
-0.674497
-0.559064
-0.42164
-0.273056
-0.123922
0.0151295
0.135812
0.231427
0.297532
0.332051
0.335128
0.309202
0.258036
0.186897
0.101807
0.00910793
-0.0849696
-0.174672
-0.255068
-0.322196
-0.373246
-0.40658
-0.421695
-0.419157
-0.400445
-0.367736
-0.323761
-0.271581
-0.214392
-0.155339
-0.0973533
-0.0430661
0.00535882
0.0462362
0.0783984
0.101204
0.114504
0.118594
0.114155
0.102178
0.0838998
0.0607663
0.0314184
0.0022801
-0.0281458
-0.0585371
-0.0878321
-0.115182
-0.139937
-0.161638
-0.179986
-0.194803
-0.205991
-0.213503
-0.217294
18.3044
18.299
18.2762
18.1626
17.8655
17.4487
17.1902
16.9449
0.397047
0.660043
0.861831
1.14014
1.4541
1.7797
2.10306
2.4222
2.73074
3.02581
3.30407
3.56307
3.80027
4.01348
4.20078
4.36041
4.49074
4.59029
4.65768
4.69175
4.69147
4.65606
4.58499
4.47801
4.3352
4.15696
3.94406
3.69762
3.41914
3.11057
2.77422
2.41279
2.02938
1.62741
1.21082
0.783758
0.350763
-0.0834435
-0.513899
-0.93546
-1.34289
-1.73086
-2.09411
-2.42762
-2.72654
-2.98621
-3.20254
-3.3719
-3.49111
-3.55777
-3.57018
-3.52766
-3.43012
-3.27862
-3.07514
-2.8227
-2.52531
-2.18797
-1.81651
-1.41779
-0.999402
-0.569502
-0.136753
0.289823
0.701018
1.08767
1.44105
1.75286
2.01559
2.22279
2.36921
2.45106
2.46614
2.41403
2.29622
2.11606
1.87885
1.59168
1.26335
0.90416
0.52553
0.139777
-0.24015
-0.601527
-0.93182
-1.21955
-1.45455
-1.62855
-1.73558
-1.77221
-1.73785
-1.63499
-1.46907
-1.24833
-0.983609
-0.687804
-0.375317
-0.0600955
0.239245
0.509304
0.736444
0.909227
1.01919
1.06136
1.0348
0.942891
0.793041
0.596292
0.366726
0.121267
-0.133345
-0.363918
-0.565878
-0.726093
-0.835862
-0.890603
-0.889869
-0.837224
-0.739676
-0.606921
-0.450523
-0.282818
-0.115573
0.0391176
0.172313
0.276764
0.347816
0.383486
0.38436
0.353024
0.294309
0.214117
0.11921
0.0166367
-0.0867589
-0.184695
-0.271901
-0.344158
-0.398557
-0.433472
-0.448525
-0.444504
-0.423033
-0.386693
-0.338488
-0.281771
-0.220012
-0.156598
-0.0946657
-0.0369862
0.0141685
0.0570603
0.0905129
0.113912
0.127169
0.130663
0.125175
0.111798
0.0918656
0.0668777
0.0361283
0.00515129
-0.0269211
-0.0587726
-0.0893209
-0.117706
-0.143285
-0.165611
-0.184413
-0.199541
-0.210928
-0.218553
-0.222395
21.8592
21.8
21.7141
21.6601
21.6754
21.6659
21.6505
21.5656
1.77771
1.93008
2.06568
2.26137
2.49611
2.75806
3.0287
3.30552
3.58043
3.84867
4.10574
4.34788
4.57157
4.77364
4.95119
5.1016
5.22248
5.31166
5.36722
5.38748
5.37104
5.31679
5.22398
5.09219
4.92138
4.71193
4.4646
4.18061
3.86159
3.50968
3.12744
2.71787
2.28441
1.83089
1.36168
0.881411
0.395155
-0.0918171
-0.573963
-1.04555
-1.50074
-1.93361
-2.33828
-2.7092
-3.04096
-3.32844
-3.56711
-3.75295
-3.8825
-3.95316
-3.96315
-3.91145
-3.7984
-3.62519
-3.3941
-3.10859
-2.77323
-2.39366
-1.97651
-1.52947
-1.0611
-0.58056
-0.0975481
0.377831
0.835282
1.26458
1.65601
2.00034
2.28924
2.51562
2.67367
2.75931
2.77017
2.70593
2.56837
2.36143
2.09117
1.76565
1.39483
0.99033
0.565009
0.132694
-0.292097
-0.695128
-1.06242
-1.3812
-1.64022
-1.83033
-1.94502
-1.98064
-1.93671
-1.81624
-1.62554
-1.37404
-1.07407
-0.740304
-0.389014
-0.0345534
0.299922
0.60089
0.852957
1.04337
1.1628
1.20586
1.17168
1.06438
0.892538
0.668849
0.409239
0.131836
-0.149863
-0.407963
-0.63167
-0.807533
-0.926242
-0.983075
-0.977953
-0.9153
-0.803296
-0.653075
-0.477718
-0.29108
-0.106021
0.0638896
0.209138
0.321954
0.397513
0.433953
0.432198
0.39545
0.329162
0.240002
0.135464
0.0232824
-0.0891051
-0.194941
-0.288607
-0.365672
-0.423148
-0.459433
-0.474279
-0.468663
-0.444488
-0.404596
-0.35229
-0.291208
-0.225082
-0.157526
-0.091865
-0.0310027
0.0226944
0.0674415
0.10206
0.125965
0.139129
0.142014
0.135498
0.12077
0.0992537
0.0725048
0.0404468
0.00774304
-0.0258708
-0.0590809
-0.0907874
-0.120124
-0.146451
-0.16934
-0.188545
-0.203945
-0.215503
-0.223223
-0.227106
25.808
25.7933
25.7715
25.7508
25.7456
25.7407
25.7324
25.7061
2.83509
2.93548
3.05119
3.20105
3.39326
3.61393
3.85025
4.09847
4.35075
4.60143
4.84508
5.07691
5.29252
5.48791
5.65941
5.8037
5.91776
5.99886
6.04459
6.05283
6.0218
5.95016
5.83693
5.68157
5.48395
5.24443
4.9638
4.64337
4.28491
3.89077
3.46377
3.00721
2.52487
2.02098
1.50035
0.968107
0.429824
-0.108679
-0.641271
-1.16164
-1.66338
-2.13994
-2.58486
-2.99205
-3.35558
-3.66984
-3.9299
-4.13137
-4.27049
-4.34446
-4.35134
-4.29016
-4.16129
-3.96618
-3.70742
-3.38891
-3.01577
-2.59429
-2.13186
-1.63704
-1.11932
-0.588847
-0.0563525
0.466998
0.969842
1.44092
1.86952
2.24553
2.55982
2.80463
2.9737
3.06259
3.06882
2.99213
2.83467
2.60094
2.29776
1.93415
1.52125
1.07198
0.600606
0.122426
-0.346436
-0.790292
-1.19375
-1.54277
-1.82501
-2.03052
-2.15228
-2.1864
-2.13248
-1.99414
-1.77858
-1.49641
-1.1614
-0.789972
-0.400648
-0.00711899
0.361623
0.6929
0.969292
1.17676
1.30512
1.34864
1.30645
1.18352
0.989579
0.738929
0.449424
0.14099
-0.16832
-0.452856
-0.697708
-0.88859
-1.01563
-1.07402
-1.0641
-0.991189
-0.86466
-0.697085
-0.50305
-0.297921
-0.0955419
0.0889928
0.245728
0.366383
0.446004
0.482881
0.4783
0.436086
0.362309
0.264381
0.150509
0.0290843
-0.0918936
-0.205225
-0.304965
-0.386502
-0.446782
-0.484243
-0.498768
-0.491524
-0.464693
-0.421364
-0.365127
-0.299889
-0.229627
-0.158171
-0.089015
-0.025189
0.0308591
0.0773043
0.112969
0.137303
0.150336
0.152612
0.1451
0.129083
0.106068
0.077681
0.0443602
0.0100668
-0.0249771
-0.0594424
-0.0922127
-0.122416
-0.149422
-0.172815
-0.192377
-0.208015
-0.219719
-0.227517
-0.231434
29.3335
29.3275
29.3179
29.3067
29.2975
29.2877
29.2823
29.265
3.66736
3.73387
3.83981
3.97246
4.144
4.34493
4.56435
4.7981
5.03897
5.2811
5.51867
5.74627
5.95888
6.15183
6.32085
6.46204
6.57189
6.6472
6.68513
6.68318
6.63922
6.55172
6.41954
6.24203
6.01902
5.75083
5.43832
5.0829
4.68648
4.25165
3.78147
3.27953
2.74998
2.19742
1.62711
1.04463
0.456069
-0.132206
-0.713501
-1.28095
-1.82756
-2.3462
-2.82983
-3.27183
-3.66576
-4.00556
-4.28592
-4.50209
-4.65001
-4.7267
-4.7301
-4.65915
-4.51442
-4.29756
-4.01149
-3.6605
-3.25026
-2.78774
-2.28104
-1.73956
-1.17371
-0.594614
-0.0140002
0.555943
1.10281
1.61433
2.07885
2.48538
2.82402
3.0864
3.26578
3.35743
3.35875
3.26953
3.09231
2.83214
2.49662
2.09568
1.64164
1.14867
0.632427
0.109635
-0.402016
-0.885426
-1.32383
-1.70197
-2.00646
-2.22654
-2.35474
-2.38701
-2.32287
-2.1667
-1.92657
-1.61421
-1.24481
-0.836456
-0.409061
0.0202444
0.423237
0.783974
1.08384
1.30763
1.44436
1.48799
1.43756
1.29898
1.08315
0.805948
0.487161
0.148641
-0.188092
-0.497923
-0.763061
-0.968199
-1.10292
-1.1624
-1.1474
-1.06415
-0.923245
-0.738646
-0.526426
-0.303285
-0.0845919
0.114017
0.281601
0.409538
0.492787
0.529818
0.522293
0.47464
0.393552
0.287153
0.16433
0.0341018
-0.0950079
-0.215389
-0.320797
-0.406461
-0.469282
-0.50774
-0.521858
-0.512988
-0.483578
-0.436959
-0.376989
-0.307826
-0.233679
-0.158577
-0.0861709
-0.0196028
0.0386065
0.0865978
0.123198
0.147893
0.160766
0.162442
0.153978
0.136741
0.11232
0.0824203
0.0478897
0.0121405
-0.0242215
-0.0598395
-0.093582
-0.124573
-0.15219
-0.176033
-0.195911
-0.211754
-0.223582
-0.231446
-0.235389
32.4704
32.4672
32.4619
32.4548
32.4482
32.4407
32.4378
32.4267
4.34501
4.39365
4.4941
4.61797
4.77979
4.97166
5.18408
5.4125
5.65003
5.89058
6.12801
6.35644
6.57032
6.76445
6.93402
7.07474
7.18265
7.25421