/*--------------------------------*- C++ -*----------------------------------*\
  =========                 |
  \\      /  F ield         | OpenFOAM: The Open Source CFD Toolbox
   \\    /   O peration     | Website:  https://openfoam.org
    \\  /    A nd           | Version:  12
     \\/     M anipulation  |
\*---------------------------------------------------------------------------*/
FoamFile
{
    format      ascii;
    class       surfaceScalarField;
    location    "7";
    object      phi;
}
// * * * * * * * * * * * * * * * * * * * * * * * * * * * * * * * * * * * * * //

dimensions      [1 0 -1 0 0 0 0];

internalField   nonuniform List<scalar> 
7429
(
0.000128191
-0.000128191
0.000258354
-0.000130162
0.000390151
-0.000131797
0.000523678
-0.000133527
0.000659054
-0.000135376
0.000796416
-0.000137361
0.000935934
-0.000139518
0.00107778
-0.000141849
0.00122192
-0.000144133
0.00136826
-0.000146338
0.00151665
-0.000148395
0.00166697
-0.000150322
0.00181909
-0.000152119
0.0019728
-0.000153709
0.0021279
-0.000155094
0.00228418
-0.000156279
0.00244137
-0.000157198
0.00259927
-0.000157895
0.00275759
-0.000158323
0.00291607
-0.00015848
0.00307439
-0.000158318
0.0032322
-0.00015781
0.00338914
-0.000156937
0.00354475
-0.000155614
0.00369866
-0.000153904
0.0038503
-0.000151647
0.00399919
-0.000148889
0.00414478
-0.000145591
0.00428649
-0.000141702
0.00442366
-0.000137176
0.00455562
-0.000131956
0.00468166
-0.000126042
0.00480099
-0.000119332
0.00491275
-0.00011176
0.0050159
-0.000103147
0.00511
-9.41012e-05
0.00519475
-8.47508e-05
0.00526975
-7.49944e-05
0.00533434
-6.45925e-05
0.00538783
-5.34889e-05
0.00542945
-4.16172e-05
0.00545844
-2.8989e-05
0.00547402
-1.55802e-05
0.00547433
-3.15053e-07
0.00545736
1.69669e-05
0.00542301
3.4354e-05
0.00537076
5.22452e-05
0.00530017
7.05992e-05
0.00521087
8.92928e-05
0.00510268
0.000108194
0.00497552
0.000127159
0.00482947
0.00014605
0.00466482
0.000164653
0.00448196
0.000182852
0.00428154
0.00020042
0.00406413
0.000217414
0.00383087
0.000233256
0.00358247
0.000248407
0.00332039
0.000262081
0.00304569
0.000274693
0.00276029
0.0002854
0.00246589
0.0002944
0.00216465
0.000301241
0.00185877
0.000305878
0.00155062
0.000308154
0.00124286
0.000307756
0.000938073
0.00030479
0.000639199
0.000298874
0.000349082
0.000290117
7.07097e-05
0.000278372
-0.000193317
0.000264026
-0.000439872
0.000246555
-0.000666304
0.000226432
-0.000870092
0.000203788
-0.00104889
0.000178793
-0.00120045
0.000151568
-0.00132317
0.000122716
-0.0014156
9.24306e-05
-0.00147693
6.13249e-05
-0.00150659
2.96639e-05
-0.00150305
-3.53768e-06
-0.00146581
-3.72398e-05
-0.00139752
-6.82893e-05
-0.00130027
-9.72514e-05
-0.00117615
-0.000124126
-0.0010276
-0.000148545
-0.000857756
-0.000169844
-0.000670167
-0.000187589
-0.000468885
-0.000201283
-0.000258304
-0.000210581
-4.31671e-05
-0.000215137
0.000171614
-0.000214781
0.000380989
-0.000209375
0.00058004
-0.000199051
0.000763856
-0.000183816
0.000927838
-0.000163982
0.00106794
-0.000140101
0.00118034
-0.000112405
0.00126234
-8.19924e-05
0.00131176
-4.9428e-05
0.00132709
-1.53277e-05
0.00130448
2.2612e-05
0.00124703
5.74527e-05
0.00115717
8.98527e-05
0.0010375
0.000119673
0.000891335
0.000146167
0.000722997
0.000168338
0.000537631
0.000185366
0.00034111
0.000196521
0.000139687
0.000201423
-6.00415e-05
0.000199729
-0.000251399
0.000191358
-0.000428116
0.000176717
-0.000584128
0.000156012
-0.000714343
0.000130215
-0.000814467
0.000100124
-0.000881532
6.70652e-05
-0.000913699
3.21672e-05
-0.000909211
-4.48795e-06
-0.000869151
-4.00601e-05
-0.000797709
-7.14423e-05
-0.00069891
-9.87994e-05
-0.000577914
-0.000120996
-0.000440968
-0.000136945
-0.0002953
-0.000145668
-0.000148382
-0.000146918
-7.84955e-06
-0.000140533
0.000119049
-0.000126899
0.00022572
-0.000106671
0.000307043
-8.13235e-05
0.000358965
-5.1922e-05
0.000379801
-2.08351e-05
0.000366726
1.3075e-05
0.000323233
4.34923e-05
0.000253285
6.99486e-05
0.000162023
9.12612e-05
5.59027e-05
0.000106121
-5.76612e-05
0.000113564
-0.000170511
0.00011285
-0.000274577
0.000104066
-0.000362493
8.79155e-05
-0.000427922
6.54293e-05
-0.000466143
3.82212e-05
-0.000474236
8.09273e-06
-0.00044879
-2.54456e-05
-0.00039311
-5.568e-05
-0.000310546
-8.25641e-05
-0.000206009
-0.000104537
-8.57267e-05
-0.000120283
4.28632e-05
-0.00012859
0.000171896
-0.000129033
0.000293523
-0.000121627
0.000400546
-0.000107023
0.000486737
-8.61916e-05
0.000547524
-6.07865e-05
0.000579831
-3.23073e-05
0.000582814
-2.98341e-06
0.000555777
2.7037e-05
0.000502621
5.31559e-05
0.00042708
7.55409e-05
0.000334425
9.26554e-05
0.000230611
0.000103814
0.000122188
0.000108423
1.54392e-05
0.000106749
-8.34918e-05
9.8931e-05
-0.000169521
8.6029e-05
-0.000238484
6.89632e-05
-0.000287466
4.8982e-05
-0.000314983
2.75167e-05
-0.000321013
6.03021e-06
-0.000306431
-1.45817e-05
-0.000273975
-3.24563e-05
-0.000226844
-4.71314e-05
-0.000169148
-5.76957e-05
-0.000105332
-6.38161e-05
-4.00386e-05
-6.52933e-05
2.22449e-05
-6.22835e-05
7.74941e-05
-5.52493e-05
0.000122253
-4.47593e-05
0.000153888
-3.16345e-05
0.000170674
-1.67862e-05
0.000171863
-1.18861e-06
0.000157646
1.4217e-05
0.000129366
2.82802e-05
8.90755e-05
4.02901e-05
3.95241e-05
4.95514e-05
-1.59688e-05
5.54928e-05
-7.38184e-05
5.78497e-05
-0.000130253
5.64349e-05
-0.000181525
5.12719e-05
-0.000224256
4.27309e-05
-0.00025553
3.12734e-05
-0.000273044
1.75141e-05
-0.000275382
2.33856e-06
-0.000261747
-1.36355e-05
-0.000232603
-2.9144e-05
-0.000189217
-4.33858e-05
-0.000133822
-5.53952e-05
-6.94818e-05
-6.43398e-05
-6.94818e-05
0.000126462
-0.000254652
0.000255183
-0.000258883
0.000385373
-0.000261986
0.000516972
-0.000265125
0.000649969
-0.000268373
0.000784307
-0.000271699
0.000919958
-0.000275168
0.00105689
-0.000278785
0.00119535
-0.000282586
0.00133564
-0.000286625
0.00147809
-0.000290854
0.00162312
-0.000295349
0.00177101
-0.000300007
0.00192147
-0.00030417
0.0020741
-0.000307719
0.00222846
-0.000310642
0.00238418
-0.000312913
0.00254087
-0.000314591
0.00269822
-0.000315664
0.00285583
-0.000316098
0.0030134
-0.000315886
0.00317055
-0.000314953
0.00332689
-0.000313278
0.00348196
-0.000310683
0.00363524
-0.00030719
0.00378615
-0.000302552
0.00393397
-0.000296712
0.00407789
-0.000289509
0.00421715
-0.000280963
0.00435087
-0.000270901
0.00447834
-0.000259424
0.00459953
-0.000247227
0.00471441
-0.000234213
0.00482295
-0.000220297
0.00492514
-0.000205344
0.00502013
-0.000189088
0.00510692
-0.000171537
0.00518443
-0.00015251
0.00525179
-0.000131953
0.00530812
-0.000109815
0.00535262
-8.61173e-05
0.00538461
-6.09817e-05
0.00540307
-3.40421e-05
0.00540646
-3.69732e-06
0.00538949
3.39343e-05
0.0053536
7.02441e-05
0.00529877
0.00010707
0.00522485
0.000144525
0.00513164
0.000182503
0.005019
0.00022083
0.00488698
0.000259184
0.00473562
0.000297408
0.0045651
0.000335169
0.00437581
0.000372145
0.00416812
0.000408111
0.00394273
0.000442803
0.00370048
0.00047551
0.00344232
0.000506561
0.00316954
0.000534862
0.00288361
0.000560618
0.00258636
0.00058265
0.00227971
0.000601051
0.00196593
0.000615029
0.00164755
0.000624254
0.00132717
0.000628536
0.00100769
0.000627231
0.000691902
0.00062058
0.000382856
0.00060792
8.36842e-05
0.000589288
-0.000202432
0.000564489
-0.000472309
0.000533903
-0.000722919
0.000497165
-0.00095124
0.000454753
-0.0011548
0.000407344
-0.00133092
0.000354914
-0.00147754
0.000298191
-0.00159279
0.000237967
-0.00167532
0.000174959
-0.00172394
0.000109945
-0.00173848
4.42043e-05
-0.00171589
-2.61234e-05
-0.00165977
-9.33606e-05
-0.00157131
-0.000156753
-0.00145204
-0.00021652
-0.00130419
-0.000271982
-0.00113075
-0.000321984
-0.000935284
-0.000365307
-0.000721875
-0.000400998
-0.00049495
-0.000428208
-0.000259466
-0.000446064
-2.0516e-05
-0.000454087
0.00021643
-0.000451726
0.000445914
-0.00043886
0.00066258
-0.000415717
0.000861225
-0.000382461
0.00103688
-0.000339637
0.0011851
-0.000288317
0.00130236
-0.000229665
0.00138512
-0.00016476
0.00143107
-9.53735e-05
0.00144014
-2.44002e-05
0.00140823
5.45244e-05
0.0013393
0.00012638
0.00123521
0.000193941
0.00109882
0.000256064
0.000934231
0.000310757
0.000746448
0.000356121
0.00054129
0.000390524
0.000325305
0.000412505
0.000105535
0.000421194
-0.000110829
0.000416092
-0.00031652
0.000397049
-0.000504619
0.000364816
-0.000668712
0.000320106
-0.000803326
0.000264828
-0.000904062
0.00020086
-0.00096772
0.000130723
-0.000992906
5.73536e-05
-0.000977303
-2.00911e-05
-0.000924662
-9.2701e-05
-0.000838084
-0.00015802
-0.000722153
-0.00021473
-0.000583027
-0.000260123
-0.000427814
-0.000292158
-0.000264609
-0.000308873
-0.000101842
-0.000309685
5.20675e-05
-0.000294442
0.000189308
-0.000264139
0.000303014
-0.000220377
0.000387342
-0.000165651
0.000438621
-0.000103201
0.000454675
-3.6889e-05
0.000434016
3.37337e-05
0.000380428
9.70804e-05
0.000298235
0.000152141
0.000193194
0.000196302
7.29054e-05
0.000226409
-5.43436e-05
0.000240813
-0.000179527
0.000238034
-0.000294052
0.00021859
-0.000389826
0.00018369
-0.000460383
0.000135985
-0.00050072
7.8559e-05
-0.000508054
1.54265e-05
-0.000480307
-5.31924e-05
-0.000420583
-0.000115404
-0.000332653
-0.000170494
-0.000221886
-0.000215304
-9.55545e-05
-0.000246614
3.83599e-05
-0.000262504
0.000171601
-0.000262274
0.000295957
-0.000245983
0.000404129
-0.000215195
0.000489936
-0.000171998
0.000548834
-0.000119685
0.000578397
-6.18702e-05
0.000576837
-1.42403e-06
0.000546538
5.7336e-05
0.000489967
0.000109727
0.00041159
0.000153918
0.000316921
0.000187324
0.000212214
0.000208522
0.00010399
0.000216647
-1.27489e-06
0.000212013
-9.7786e-05
0.000195442
-0.00018055
0.000168793
-0.00024563
0.000134043
-0.000290563
9.39153e-05
-0.000314106
5.10592e-05
-0.000316481
8.40564e-06
-0.000299081
-3.19823e-05
-0.000264524
-6.70129e-05
-0.000216194
-9.54612e-05
-0.000158188
-0.000115702
-9.48885e-05
-0.000127116
-3.08575e-05
-0.000129324
2.96881e-05
-0.000122829
8.28533e-05
-0.000108414
0.000125445
-8.73511e-05
0.000155111
-6.13004e-05
0.00017035
-3.20249e-05
0.00017041
-1.24851e-06
0.000155904
2.87222e-05
0.000128035
5.61501e-05
8.88411e-05
7.94834e-05
4.10546e-05
9.73379e-05
-1.21768e-05
0.000108724
-6.74106e-05
0.000113083
-0.000121091
0.000110115
-0.000169713
9.98935e-05
-0.000210141
8.31591e-05
-0.000239624
6.07565e-05
-0.000256108
3.39983e-05
-0.000258217
4.4477e-06
-0.000245399
-2.64541e-05
-0.000218022
-5.65215e-05
-0.000177314
-8.40928e-05
-0.000125375
-0.000107334
-6.50876e-05
-0.000124627
-0.000134569
0.000106514
-0.000361166
0.000214092
-0.00036646
0.000322733
-0.000370627
0.000432425
-0.000374817
0.000543137
-0.000379084
0.000654963
-0.000383525
0.000768033
-0.000388237
0.000882602
-0.000393353
0.000999127
-0.000399111
0.00111824
-0.000405742
0.0012409
-0.000413509
0.00136666
-0.000421105
0.00149452
-0.000427865
0.00162417
-0.000433821
0.00175562
-0.000439175
0.0018888
-0.000443822
0.00202388
-0.000447984
0.00216091
-0.000451621
0.00229985
-0.000454608
0.00244067
-0.000456914
0.0025833
-0.000458514
0.00272765
-0.000459306
0.00287362
-0.000459244
0.00302091
-0.00045797
0.00316934
-0.000455626
0.00331851
-0.000451715
0.00346802
-0.00044623
0.00361771
-0.000439194
0.00376706
-0.000430318
0.00391552
-0.000419354
0.00406256
-0.000406467
0.00420674
-0.000391409
0.00434533
-0.000372795
0.00447719
-0.000352164
0.00460297
-0.00033112
0.00472252
-0.000308642
0.00483513
-0.000284145
0.00493966
-0.000257035
0.0050349
-0.000227191
0.00511924
-0.000194163
0.00519114
-0.000158016
0.0052488
-0.000118639
0.00529135
-7.65902e-05
0.00531712
-2.94719e-05
0.00532518
2.58727e-05
0.00531342
8.20111e-05
0.00528074
0.00013975
0.00522608
0.000199188
0.00514867
0.000259909
0.00504802
0.000321475
0.00492382
0.000383383
0.00477588
0.000445352
0.00460438
0.000506667
0.00440932
0.000567204
0.00419154
0.000625893
0.00395152
0.000682828
0.00369029
0.000736732
0.00340916
0.000787693
0.00310998
0.000834047
0.00279449
0.00087611
0.00246504
0.000912092
0.00212424
0.000941853
0.00177465
0.000964624
0.00141976
0.000979138
0.00106242
0.000985874
0.000706009
0.000983646
0.000354295
0.000972294
1.09362e-05
0.000951278
-0.000320166
0.00092039
-0.000635165
0.000879487
-0.000930757
0.000829495
-0.00120299
0.000769397
-0.00144852
0.000700283
-0.00166432
0.000623141
-0.00184735
0.000537952
-0.00199504
0.000445877
-0.00210539
0.000348321
-0.00217691
0.000246477
-0.00220891
0.000141943
-0.00220118
3.64724e-05
-0.00214951
-7.77955e-05
-0.00205973
-0.000183135
-0.00193248
-0.00028401
-0.00176978
-0.000379214
-0.00157458
-0.000467179
-0.00135055
-0.000546017
-0.00110225
-0.000613604
-0.000834581
-0.00066867
-0.000552989
-0.0007098
-0.000263521
-0.000735533
2.76794e-05
-0.000745288
0.000314222
-0.000738269
0.00058947
-0.000714108
0.000847045
-0.000673292
0.00108061
-0.000616029
0.00128505
-0.000544072
0.00145504
-0.000458308
0.00158538
-0.00036
0.0016737
-0.000253084
0.00171791
-0.000139584
0.00171547
-2.19625e-05
0.00166582
0.000104172
0.00157246
0.000219743
0.00143743
0.000328977
0.0012646
0.000428895
0.00105919
0.000516168
0.000827606
0.0005877
0.000577203
0.000640927
0.000316092
0.000673616
5.27551e-05
0.000684531
-0.000203986
0.000672833
-0.00044532
0.000638384
-0.000663305
0.0005828
-0.000850349
0.00050715
-0.000999984
0.000414463
-0.00110742
0.000308294
-0.00116938
0.000192685
-0.00118435
7.23278e-05
-0.0011505
-5.39477e-05
-0.00107308
-0.000170118
-0.000955738
-0.000275364
-0.000804504
-0.000365964
-0.000627151
-0.000437476
-0.000432882
-0.000486427
-0.000231592
-0.000510163
-3.33935e-05
-0.000507883
0.000151502
-0.000479338
0.000313631
-0.000426268
0.000444955
-0.000351701
0.000538945
-0.00025964
0.000591481
-0.000155737
0.000600183
-4.55913e-05
0.000565483
6.84338e-05
0.000491543
0.00017102
0.000383744
0.00025994
0.000249728
0.000330319
9.90563e-05
0.000377081
-5.79192e-05
0.000397788
-0.000210445
0.000390559
-0.000348121
0.000356267
-0.000461855
0.000297423
-0.000544022
0.000218153
-0.000589092
0.000123629
-0.000595075
2.14095e-05
-0.000560604
-8.76633e-05
-0.000489311
-0.000186698
-0.000386147
-0.000273657
-0.000258074
-0.000343378
-0.000113729
-0.000390959
3.75781e-05
-0.000413811
0.000185955
-0.000410651
0.000322563
-0.000382591
0.000439137
-0.000331769
0.00052941
-0.000262271
0.000588833
-0.000179107
0.000615163
-8.82002e-05
0.000607707
6.03159e-06
0.000569451
9.55923e-05
0.000503488
0.00017569
0.000415263
0.000242144
0.000311141
0.000291446
0.000198117
0.000321546
8.33026e-05
0.000331461
-2.66446e-05
0.00032196
-0.000125639
0.000294436
-0.000208726
0.000251881
-0.000272277
0.000197594
-0.000313989
0.000135627
-0.000333108
7.01785e-05
-0.000330177
5.47443e-06
-0.000307419
-5.47403e-05
-0.000267467
-0.000106965
-0.00021423
-0.000148697
-0.000152126
-0.000177806
-8.5556e-05
-0.000193686
-1.92822e-05
-0.000195598
4.24477e-05
-0.000184559
9.59191e-05
-0.000161886
0.00013809
-0.000129522
0.000166673
-8.98838e-05
0.000180373
-4.57245e-05
0.000178972
1.52358e-07
0.000163006
4.46883e-05
0.000133862
8.5294e-05
9.37257e-05
0.00011962
4.53599e-05
0.000145704
-7.98532e-06
0.00016207
-6.30333e-05
0.000168131
-0.000116185
0.000163267
-0.00016412
0.000147829
-0.000203765
0.000122804
-0.000232585
8.95768e-05
-0.000248592
5.00051e-05
-0.000250522
6.3778e-06
-0.000237988
-3.89886e-05
-0.000211329
-8.31801e-05
-0.000171794
-0.000123627
-0.000121432
-0.000157697
-6.30269e-05
-0.000183032
-0.000197596
0.00011428
-0.000475445
0.000230538
-0.000482718
0.000348655
-0.000488743
0.000468877
-0.000495038
0.000591291
-0.000501498
0.000716042
-0.000508275
0.000842688
-0.000514883
0.000971405
-0.00052207
0.0011015
-0.000529208
0.00123386
-0.000538103
0.00136921
-0.000548856
0.00150809
-0.000559983
0.00164819
-0.000567963
0.00178764
-0.000573277
0.00192659
-0.000578119
0.00206526
-0.000582489
0.00220396
-0.000586692
0.00234325
-0.000590911
0.00248407
-0.000595427
0.0026272
-0.000600043
0.00277332
-0.000604628
0.00292309
-0.000609077
0.00307685
-0.000613001
0.00323483
-0.000615949
0.00339648
-0.000617281
0.00356122
-0.000616456
0.00372739
-0.000612401
0.00389368
-0.000605481
0.00405661
-0.000593247
0.00421423
-0.000576974
0.00436667
-0.000558905
0.00451664
-0.000541376
0.00466609
-0.000522242
0.00481465
-0.000500724
0.00495988
-0.000476352
0.00509961
-0.000448377
0.00523185
-0.000416383
0.00535493
-0.000380116
0.00546707
-0.00033933
0.00556685
-0.000293945
0.00565258
-0.000243743
0.0057222
-0.000188258
0.00577373
-0.00012812
0.00580972
-6.54676e-05
0.00581934
1.62611e-05
0.00580163
9.97161e-05
0.00575825
0.000183132
0.00568936
0.000268079
0.00559472
0.000354547
0.0054741
0.00044209
0.00532664
0.000530848
0.00515226
0.000619731
0.00495095
0.000707978
0.00472263
0.000795529
0.00446739
0.000881127
0.00418632
0.000963895
0.00388034
0.00104271
0.00355134
0.00111669
0.00320143
0.00118396
0.00283247
0.00124506
0.00244745
0.00129712
0.00204937
0.00133993
0.00164203
0.00137197
0.0012286
0.00139257
0.000813238
0.00140124
0.000400272
0.00139661
-6.06681e-06
0.00137863
-0.000401331
0.00134654
-0.000780852
0.00129991
-0.00114031
0.00123895
-0.00147508
0.00116426
-0.00178096
0.00107528
-0.0020538
0.000973125
-0.00229011
0.000859445
-0.00248618
0.000734025
-0.00263909
0.000598789
-0.00274681
0.000456042
-0.00280716
0.00030682
-0.00282035
0.000155138
-0.00277897
-4.90615e-06
-0.00269355
-0.000163213
-0.00256162
-0.000315071
-0.00238495
-0.00046068
-0.00216646
-0.0005977
-0.00191007
-0.000723568
-0.00162049
-0.000835602
-0.00130341
-0.000930686
-0.000964938
-0.00100714
-0.00061195
-0.00106279
-0.000251769
-0.00109571
0.000107805
-0.00110486
0.000458566
-0.00108903
0.000792983
-0.00104853
0.00110386
-0.00098417
0.00138348
-0.000895651
0.00162409
-0.000784676
0.00182043
-0.000654653
0.00196878
-0.000508345
0.00206429
-0.0003486
0.00210439
-0.000179682
0.00208288
-4.49743e-07
0.00200984
0.000177208
0.00188295
0.000346631
0.00170567
0.000506258
0.00148333
0.000651242
0.00122306
0.000776437
0.000932937
0.000877819
0.000622145
0.000951719
0.000300823
0.000994939
-2.03832e-05
0.00100574
-0.000330897
0.000983347
-0.000619994
0.000927481
-0.000877861
0.000840667
-0.00109507
0.000724363
-0.00126455
0.000583944
-0.00138049
0.000424234
-0.001439
0.000251194
-0.0014395
7.2824e-05
-0.00138225
-0.000111193
-0.00127177
-0.000280597
-0.00111323
-0.00043391
-0.00091497
-0.000564222
-0.000687152
-0.000665294
-0.000441136
-0.000732444
-0.000189473
-0.000761826
5.52165e-05
-0.000752572
0.000280557
-0.000704679
0.000475125
-0.000620836
0.000629069
-0.000505646
0.000735253
-0.000365824
0.00078829
-0.000208774
0.000787105
-4.44067e-05
0.000733153
0.000122386
0.000631382
0.000272791
0.000489051
0.000402272
0.000316459
0.000502911
0.000125602
0.000567938
-7.03354e-05
0.000593726
-0.000258393
0.000578617
-0.000425961
0.000523835
-0.00056212
0.000433582
-0.000658302
0.000314336
-0.000709344
0.00017467
-0.00071109
2.31553e-05
-0.000666393
-0.00013236
-0.000578389
-0.000274701
-0.000453582
-0.000398464
-0.000301277
-0.000495682
-0.000132164
-0.000560072
4.23585e-05
-0.000588334
0.000211229
-0.000579522
0.000364211
-0.000535573
0.000492208
-0.000459766
0.000588536
-0.0003586
0.00064882
-0.00023939
0.000670726
-0.000110107
0.0006557
2.10578e-05
0.000606454
0.000144839
0.000527822
0.000254322
0.000426199
0.000343767
0.000309139
0.000408505
0.000184507
0.000446178
6.00339e-05
0.000455934
-5.69696e-05
0.000438964
-0.000160282
0.000397749
-0.000244945
0.000336544
-0.000307517
0.000260165
-0.000346005
0.000174115
-0.000360268
8.44416e-05
-0.000351336
-3.45745e-06
-0.000321781
-8.42959e-05
-0.000274974
-0.000153772
-0.000215358
-0.000208313
-0.000147421
-0.000245743
-7.62649e-05
-0.000264842
-6.46318e-06
-0.0002654
5.75987e-05
-0.000248621
0.000112232
-0.000216519
0.000154451
-0.000171741
0.000182252
-0.000117685
0.000194563
-5.80357e-05
0.000191337
3.37828e-06
0.000173334
6.26917e-05
0.000142174
0.000116453
0.000100215
0.000161579
5.03757e-05
0.000195543
-4.18736e-06
0.000216633
-6.00027e-05
0.000223947
-0.000113542
0.000216806
-0.000161566
0.000195854
-0.000201071
0.000162309
-0.000229624
0.000118129
-0.000245364
6.57455e-05
-0.000247125
8.13909e-06
-0.000234598
-5.15159e-05
-0.000208183
-0.000109595
-0.000169139
-0.000162672
-0.000119497
-0.000207339
-6.20057e-05
-0.000240523
-0.000259602
0.000113863
-0.000589308
0.00022712
-0.000595974
0.000339426
-0.000601048
0.000449946
-0.000605558
0.000558275
-0.000609826
0.000666339
-0.000616339
0.000779051
-0.000627595
0.00089405
-0.000637069
0.00100299
-0.000638148
0.00110503
-0.000640145
0.00119753
-0.000641357
0.001282
-0.000644446
0.00136284
-0.000648805
0.00144457
-0.000655006
0.0015293
-0.000662855
0.00161898
-0.000672166
0.00171486
-0.000682573
0.00181777
-0.000693822
0.00192814
-0.00070579
0.00204598
-0.000717883
0.00217152
-0.000730172
0.00230492
-0.000742477
0.00244662
-0.000754696
0.00259673
-0.000766061
0.00275499
-0.000775538
0.00292133
-0.000782796
0.00309263
-0.000783709
0.00326723
-0.000780082
0.00344136
-0.000767374
0.00361986
-0.000755468
0.00380585
-0.000744902
0.00399746
-0.000732978
0.00419284
-0.000717626
0.00439058
-0.000698463
0.00458826
-0.000674037
0.00478366
-0.000643772
0.00497431
-0.000607035
0.00515773
-0.000563538
0.00533099
-0.000512584
0.00549107
-0.000454025
0.00563353
-0.000386206
0.0057583
-0.000313031
0.00585958
-0.0002294
0.00593478
-0.000140669
0.00599085
-3.98039e-05
0.00601396
7.6605e-05
0.00600696
0.000190137
0.00596823
0.000306801
0.00589618
0.000426606
0.00578955
0.00054872
0.00564819
0.000672206
0.00547152
0.0007964
0.0052589
0.000920597
0.00501168
0.00104275
0.00473
0.00116281
0.00441551
0.00127839
0.00407025
0.00138797
0.0036959
0.00149104
0.00329525
0.00158461
0.00287157
0.00166875
0.00242877
0.00173991
0.0019704
0.0017983
0.00150076
0.00184161
0.00102436
0.00186897
0.00054615
0.00187944
7.11547e-05
0.00187161
-0.000395521
0.00184531
-0.000848328
0.00179935
-0.0012817
0.00173328
-0.00169002
0.00164727
-0.00206838
0.00154263
-0.00241139
0.00141828
-0.00271409
0.00127583
-0.00297241
0.00111777
-0.00318193
0.000943542
-0.00334024
0.000757101
-0.00344413
0.00055993
-0.00349196
0.000354644
-0.00348125
0.000144431
-0.00340992
-7.62344e-05
-0.00328416
-0.000288972
-0.0031034
-0.000495837
-0.00287
-0.000694074
-0.00258788
-0.000879826
-0.00226213
-0.00104932
-0.0018985
-0.00119922
-0.00150407
-0.00132512
-0.00108671
-0.0014245
-0.000654656
-0.00149484
-0.000216694
-0.00153368
0.000218405
-0.00153996
0.000641105
-0.00151173
0.00104104
-0.00144846
0.00140896
-0.00135209
0.00173666
-0.00122335
0.00201739
-0.00106541
0.00224333
-0.000880592
0.00240795
-0.000672971
0.00250713
-0.000447782
0.00253868
-0.00021123
0.0025006
3.76283e-05
0.00239737
0.000280438
0.00222989
0.000514114
0.00200274
0.00073341
0.00172303
0.00093095
0.00139925
0.00110022
0.00104166
0.00123542
0.00066181
0.00133156
0.00027195
0.0013848
-0.000114831
0.00139252
-0.000485136
0.00135365
-0.000826781
0.00126913
-0.00112744
0.00114133
-0.00137742
0.000974341
-0.00156789
0.000774411
-0.00169226
0.0005486
-0.0017469
0.000305836
-0.00172867
5.45973e-05
-0.00164267
-0.000197191
-0.00149277
-0.000430504
-0.00128634
-0.000640336
-0.00103399
-0.000816575
-0.000748386
-0.000950896
-0.000443456
-0.00103737
-0.000134595
-0.00107069
0.000161802
-0.00104897
0.000431695
-0.000974572
0.000661293
-0.000850434
0.0008392
-0.000683553
0.00095684
-0.000483464
0.00100893
-0.000260863
0.00099537
-3.08485e-05
0.00091762
0.000200137
0.000782588
0.000407822
0.000600114
0.000584746
0.000383403
0.000719621
0.00014679
0.000804551
-9.27604e-05
0.000833276
-0.000319814
0.000805671
-0.000519784
0.000723804
-0.000679588
0.000593386
-0.000790045
0.000424792
-0.000843985
0.00022861
-0.000841083
2.02535e-05
-0.000782563
-0.00019088
-0.00067392
-0.000383345
-0.000523914
-0.00054847
-0.000344173
-0.000675424
-0.000147496
-0.000756749
5.32043e-05
-0.000789034
0.000244512
-0.000770829
0.000414646
-0.000705707
0.000554323
-0.000599442
0.000656321
-0.000460598
0.000716246
-0.000299316
0.000732991
-0.000126852
0.000708563
4.54853e-05
0.000646818
0.000206584
0.000553882
0.000347257
0.000437502
0.000460147
0.000306351
0.000539657
0.000169144
0.000583384
3.45279e-05
0.000590551
-8.97702e-05
0.000563262
-0.000197425
0.000505404
-0.000283526
0.000422645
-0.000344775
0.000321415
-0.000379764
0.000209104
-0.000388632
9.33093e-05
-0.000373241
-1.88486e-05
-0.000336557
-0.00012098
-0.000282631
-0.000207697
-0.000216166
-0.000274779
-0.000142439
-0.00031947
-6.64895e-05
-0.000340791
6.89101e-06
-0.00033878
7.33065e-05
-0.000315037
0.000129031
-0.000272244
0.000171297
-0.000214006
0.000198226
-0.000144614
0.000209
-6.88098e-05
0.000203794
8.58448e-06
0.000183595
8.28901e-05
0.000150271
0.000149778
0.000106314
0.000205537
5.47307e-05
0.000247126
-1.08988e-06
0.000272453
-5.78401e-05
0.000280697
-0.000111933
0.000270899
-0.000160149
0.000244069
-0.000199608
0.000201768
-0.000227946
0.000146468
-0.000243432
8.1231e-05
-0.000244985
9.69278e-06
-0.00023236
-6.41416e-05
-0.00020603
-0.000135925
-0.000167282
-0.00020142
-0.000118132
-0.000256489
-6.12783e-05
-0.000297377
-0.00032088
8.82195e-05
-0.000677527
0.000178942
-0.000686697
0.000277638
-0.000699744
0.000388393
-0.000716312
0.000512698
-0.000734131
0.000654981
-0.000758622
0.00080188
-0.000774494
0.00097561
-0.000810798
0.0011496
-0.000812136
0.00133618
-0.00082673
0.00151259
-0.000817762
0.00167548
-0.000807332
0.00181642
-0.000789751
0.00193329
-0.000771874
0.00202505
-0.000754618
0.00209425
-0.000741361
0.0021447
-0.000733023
0.00218268
-0.000731805
0.00221514
-0.00073825
0.00225144
-0.00075418
0.00230046
-0.000779194
0.00237092
-0.000812939
0.00246711
-0.000850879
0.00259433
-0.000893282
0.00274731
-0.000928518
0.00293228
-0.000967767
0.00312776
-0.000979192
0.00335645
-0.00100877
0.00357928
-0.000990201
0.00381589
-0.000992083
0.00405009
-0.000979096
0.00428812
-0.000971009
0.00452761
-0.000957115
0.00476749
-0.000938345
0.00500512
-0.000911668
0.00523758
-0.000876228
0.0054619
-0.000831355
0.00567476
-0.000776398
0.00587309
-0.000710916
0.00605364
-0.000634577
0.0062165
-0.000549062
0.00635355
-0.000450081
0.00646463
-0.000340487
0.00654711
-0.000223142
0.00660401
-9.67055e-05
0.00662254
5.80724e-05
0.00660531
0.000207368
0.00655232
0.000359787
0.00646275
0.000516174
0.00633557
0.000675909
0.00616869
0.000839082
0.00596198
0.00100312
0.00571542
0.00116715
0.00542837
0.0013298
0.0051022
0.00148898
0.00473858
0.00164202
0.00434014
0.00178641
0.00390886
0.00192232
0.00344803
0.00204544
0.00296104
0.00215574
0.00245229
0.00224867
0.00192616
0.00232443
0.00138745
0.00238032
0.000842158
0.00241427
0.00029549
0.00242611
-0.000246296
0.00241339
-0.000777234
0.00237625
-0.00129084
0.00231296
-0.00178063
0.00222307
-0.00224028
0.00210691
-0.00266409
0.00196644
-0.00304581
0.0018
-0.0033798
0.00160981
-0.00366026
0.00139823
-0.00388421
0.0011675
-0.00404572
0.00091861
-0.00414367
0.000657886
-0.00417574
0.000386713
-0.00413874
0.000107424
-0.00403594
-0.000179035
-0.00386753
-0.000457378
-0.00363528
-0.000728091
-0.00334272
-0.000986626
-0.00299494
-0.00122761
-0.00259779
-0.00144647
-0.00215842
-0.00163859
-0.00168518
-0.00179837
-0.00118666
-0.00192302
-0.000672599
-0.0020089
-0.000154105
-0.00205217
0.000356985
-0.00205105
0.000850087
-0.00200483
0.00131525
-0.00191363
0.00174203
-0.00177887
0.00211921
-0.00160053
0.00243674
-0.00138294
0.00268767
-0.00113153
0.00286574
-0.000851035
0.00296665
-0.00054869
0.00298664
-0.000231222
0.00292807
9.61922e-05
0.00279121
0.000417302
0.00257911
0.000726211
0.00229815
0.00101438
0.00195705
0.00127205
0.00156656
0.0014907
0.00113884
0.00166314
0.000687489
0.00178292
0.000227769
0.00184452
-0.000225429
0.00184572
-0.000657408
0.00178563
-0.00105187
0.00166359
-0.00139686
0.00148632
-0.00167852
0.001256
-0.00188761
0.000983499
-0.00201727
0.000678261
-0.00206314
0.000351709
-0.00202427
1.57249e-05
-0.00190698
-0.000314481
-0.00171457
-0.000622912
-0.00145707
-0.000897836
-0.00114763
-0.00112601
-0.00080139
-0.00129714
-0.000435924
-0.00140284
-6.90346e-05
-0.00143758
0.000280627
-0.00139863
0.00059562
-0.00128956
0.000859954
-0.00111477
0.00106085
-0.000884447
0.00118869
-0.000611303
0.0012386
-0.000310776
0.00120686
8.95652e-07
0.00110296
0.000304031
0.000932327
0.000578458
0.000706968
0.000810105
0.000443485
0.000983105
0.000160481
0.00108755
-0.000124316
0.00111807
-0.000390987
0.00107234
-0.000622343
0.00095516
-0.000804886
0.000775929
-0.000926749
0.000546656
-0.000983719
0.00028558
-0.000971228
7.76297e-06
-0.000897081
-0.000265027
-0.0007659
-0.000514525
-0.000589158
-0.000725212
-0.000380819
-0.000883763
-0.000155471
-0.000982097
7.03581e-05
-0.00101486
0.000282938
-0.000983408
0.000469227
-0.000891996
0.000618882
-0.000749098
0.000724633
-0.000566349
0.000782823
-0.000357506
0.000793086
-0.000137115
0.000758115
8.04559e-05
0.000683174
0.000281525
0.000575856
0.000454576
0.000444991
0.000591012
0.000300335
0.000684313
0.000151571
0.000732149
7.88373e-06
0.000734238
-0.00012278
0.000693925
-0.000233747
0.000616371
-0.000320351
0.000509248
-0.000379622
0.000380686
-0.000410515
0.000239997
-0.00041377
9.65645e-05
-0.00039193
-4.06891e-05
-0.000348432
-0.000164478
-0.000287922
-0.000268207
-0.000215444
-0.000347257
-0.000136326
-0.000398588
-5.62566e-05
-0.00042086
2.00982e-05
-0.000415135
8.82198e-05
-0.000383158
0.000144568
-0.000328592
0.000186475
-0.000255913
0.000212291
-0.00017043
0.000221414
-7.79327e-05
0.000214229
1.57695e-05
0.000191963
0.000105155
0.000156668
0.000185073
0.00011097
0.000251234
5.79273e-05
0.000300169
1.1539e-06
0.000329227
-5.62189e-05
0.00033807
-0.000110559
0.000325239
-0.000158713
0.000292224
-0.000197932
0.000240987
-0.000225935
0.00017447
-0.000241059
9.63553e-05
-0.000242363
1.09966e-05
-0.000229648
-7.6856e-05
-0.000203455
-0.000162118
-0.000165064
-0.00023981
-0.0001165
-0.000305054
-6.04096e-05
-0.000353467
-0.00038129
0.000255058
-0.000932585
0.000510193
-0.000941832
0.00076468
-0.000954231
0.00101294
-0.000964576
0.00125149
-0.000972677
0.00147845
-0.000985578
0.00166236
-0.000958404
0.00182734
-0.000975779
0.00184497
-0.000829762
0.00178167
-0.000763434
0.00165185
-0.000687944
0.0014964
-0.00065188
0.00133244
-0.00062579
0.00118204
-0.000621469
0.00105928
-0.000631857
0.000972779
-0.000654864
0.000925656
-0.0006859
0.000917068
-0.000723217
0.00094343