/*--------------------------------*- C++ -*----------------------------------*\
  =========                 |
  \\      /  F ield         | OpenFOAM: The Open Source CFD Toolbox
   \\    /   O peration     | Website:  https://openfoam.org
    \\  /    A nd           | Version:  12
     \\/     M anipulation  |
\*---------------------------------------------------------------------------*/
FoamFile
{
    format      ascii;
    class       volVectorField;
    location    "7";
    object      U;
}
// * * * * * * * * * * * * * * * * * * * * * * * * * * * * * * * * * * * * * //

dimensions      [0 1 -1 0 0 0 0];

internalField   nonuniform List<vector> 
3829
(
(5.14038e-06 -9.71538e-05 0)
(1.54234e-05 -9.81028e-05 0)
(2.58909e-05 -9.7979e-05 0)
(3.64973e-05 -9.77801e-05 0)
(4.72313e-05 -9.75134e-05 0)
(5.8109e-05 -9.71722e-05 0)
(6.91642e-05 -9.67633e-05 0)
(8.03911e-05 -9.62908e-05 0)
(9.18109e-05 -9.57443e-05 0)
(0.000103409 -9.51382e-05 0)
(0.000115179 -9.44657e-05 0)
(0.000127103 -9.37218e-05 0)
(0.000139195 -9.29026e-05 0)
(0.0001514 -9.20094e-05 0)
(0.00016372 -9.10102e-05 0)
(0.000176165 -8.99271e-05 0)
(0.000188681 -8.8724e-05 0)
(0.000201261 -8.74163e-05 0)
(0.000213887 -8.59915e-05 0)
(0.000226536 -8.44473e-05 0)
(0.000239186 -8.27802e-05 0)
(0.000251811 -8.09868e-05 0)
(0.00026438 -7.90645e-05 0)
(0.000276859 -7.70085e-05 0)
(0.000289174 -7.4818e-05 0)
(0.000301339 -7.24876e-05 0)
(0.000313373 -7.00206e-05 0)
(0.000325178 -6.74257e-05 0)
(0.000336682 -6.46969e-05 0)
(0.000347834 -6.1846e-05 0)
(0.000358545 -5.88846e-05 0)
(0.000368828 -5.58104e-05 0)
(0.000378665 -5.26206e-05 0)
(0.00038788 -4.93474e-05 0)
(0.000396458 -4.59611e-05 0)
(0.000404365 -4.24778e-05 0)
(0.00041149 -3.88519e-05 0)
(0.000417849 -3.50996e-05 0)
(0.000423424 -3.12117e-05 0)
(0.000428187 -2.72124e-05 0)
(0.000431997 -2.30979e-05 0)
(0.000434772 -1.88753e-05 0)
(0.000436531 -1.45503e-05 0)
(0.000437159 -1.01318e-05 0)
(0.000436493 -5.64382e-06 0)
(0.000434437 -1.11763e-06 0)
(0.000430979 3.41594e-06 0)
(0.00042607 7.93065e-06 0)
(0.000419683 1.24017e-05 0)
(0.000411797 1.68041e-05 0)
(0.000402379 2.11068e-05 0)
(0.000391466 2.53029e-05 0)
(0.000378967 2.93355e-05 0)
(0.000365111 3.32305e-05 0)
(0.000349847 3.68842e-05 0)
(0.000333177 4.03283e-05 0)
(0.00031515 4.34761e-05 0)
(0.000295939 4.63537e-05 0)
(0.00027546 4.88761e-05 0)
(0.000253932 5.10811e-05 0)
(0.000231683 5.28677e-05 0)
(0.000208461 5.4209e-05 0)
(0.000184657 5.51432e-05 0)
(0.000160262 5.56173e-05 0)
(0.000135756 5.56336e-05 0)
(0.000111121 5.51257e-05 0)
(8.66249e-05 5.41634e-05 0)
(6.25341e-05 5.26605e-05 0)
(3.89155e-05 5.0718e-05 0)
(1.61865e-05 4.8296e-05 0)
(-5.35511e-06 4.54536e-05 0)
(-2.56892e-05 4.21267e-05 0)
(-4.46019e-05 3.84461e-05 0)
(-6.17584e-05 3.43675e-05 0)
(-7.70157e-05 3.00171e-05 0)
(-9.01696e-05 2.53652e-05 0)
(-0.000101064 2.05554e-05 0)
(-0.0001097 1.55867e-05 0)
(-0.000115783 1.05664e-05 0)
(-0.000119281 5.52656e-06 0)
(-0.00012045 5.99101e-07 0)
(-0.000118717 -4.15283e-06 0)
(-0.000114418 -8.6894e-06 0)
(-0.000107805 -1.29001e-05 0)
(-9.89233e-05 -1.67355e-05 0)
(-8.80061e-05 -2.01265e-05 0)
(-7.52466e-05 -2.3012e-05 0)
(-6.09652e-05 -2.53379e-05 0)
(-4.54157e-05 -2.70456e-05 0)
(-2.89461e-05 -2.81288e-05 0)
(-1.19533e-05 -2.8537e-05 0)
(5.22774e-06 -2.82861e-05 0)
(2.21647e-05 -2.73782e-05 0)
(3.8474e-05 -2.58303e-05 0)
(5.37584e-05 -2.36891e-05 0)
(6.76419e-05 -2.09968e-05 0)
(7.97793e-05 -1.78393e-05 0)
(8.98324e-05 -1.42764e-05 0)
(9.75861e-05 -1.04088e-05 0)
(0.000102821 -6.34565e-06 0)
(0.000105386 -2.19672e-06 0)
(0.000105036 1.9195e-06 0)
(0.000101811 5.91866e-06 0)
(9.59384e-05 9.6551e-06 0)
(8.75316e-05 1.30427e-05 0)
(7.68947e-05 1.59756e-05 0)
(6.43171e-05 1.83567e-05 0)
(5.01695e-05 2.01221e-05 0)
(3.49037e-05 2.1211e-05 0)
(1.90008e-05 2.16036e-05 0)
(2.97843e-06 2.12764e-05 0)
(-1.2648e-05 2.0258e-05 0)
(-2.73269e-05 1.85906e-05 0)
(-4.06128e-05 1.63279e-05 0)
(-5.20209e-05 1.35885e-05 0)
(-6.11845e-05 1.04482e-05 0)
(-6.78391e-05 7.06321e-06 0)
(-7.17417e-05 3.55206e-06 0)
(-7.28145e-05 6.87064e-08 0)
(-7.09769e-05 -3.22617e-06 0)
(-6.64623e-05 -6.23092e-06 0)
(-5.96186e-05 -8.80717e-06 0)
(-5.07892e-05 -1.0846e-05 0)
(-4.04464e-05 -1.22642e-05 0)
(-2.91068e-05 -1.30078e-05 0)
(-1.74054e-05 -1.30638e-05 0)
(-5.89356e-06 -1.24343e-05 0)
(4.79617e-06 -1.11858e-05 0)
(1.41216e-05 -9.36645e-06 0)
(2.16153e-05 -7.15287e-06 0)
(2.69161e-05 -4.60119e-06 0)
(2.9779e-05 -1.95713e-06 0)
(3.00454e-05 7.13262e-07 0)
(2.77534e-05 3.15327e-06 0)
(2.31453e-05 5.3172e-06 0)
(1.66519e-05 7.01386e-06 0)
(8.71247e-06 8.17128e-06 0)
(-1.95948e-07 8.71148e-06 0)
(-9.35729e-06 8.62643e-06 0)
(-1.80275e-05 7.91021e-06 0)
(-2.57059e-05 6.66148e-06 0)
(-3.18192e-05 4.9308e-06 0)
(-3.59385e-05 2.89156e-06 0)
(-3.77578e-05 6.48993e-07 0)
(-3.70259e-05 -1.60933e-06 0)
(-3.37283e-05 -3.75841e-06 0)
(-2.81755e-05 -5.66802e-06 0)
(-2.06812e-05 -7.17606e-06 0)
(-1.16795e-05 -8.23322e-06 0)
(-1.59313e-06 -8.75847e-06 0)
(8.85172e-06 -8.73143e-06 0)
(1.88631e-05 -8.18017e-06 0)
(2.79813e-05 -7.1576e-06 0)
(3.56916e-05 -5.73743e-06 0)
(4.1523e-05 -4.04527e-06 0)
(4.52018e-05 -2.16455e-06 0)
(4.65583e-05 -2.66656e-07 0)
(4.55354e-05 1.54805e-06 0)
(4.22785e-05 3.171e-06 0)
(3.70654e-05 4.53507e-06 0)
(3.0298e-05 5.5514e-06 0)
(2.24119e-05 6.18668e-06 0)
(1.38946e-05 6.4244e-06 0)
(5.27596e-06 6.27391e-06 0)
(-2.96078e-06 5.77457e-06 0)
(-1.03547e-05 4.98642e-06 0)
(-1.65301e-05 3.97411e-06 0)
(-2.12275e-05 2.81516e-06 0)
(-2.42479e-05 1.60065e-06 0)
(-2.55421e-05 4.01257e-07 0)
(-2.51625e-05 -7.19042e-07 0)
(-2.32324e-05 -1.6815e-06 0)
(-1.99946e-05 -2.45222e-06 0)
(-1.5767e-05 -2.99214e-06 0)
(-1.0866e-05 -3.28717e-06 0)
(-5.67429e-06 -3.34009e-06 0)
(-5.47367e-07 -3.15807e-06 0)
(4.15958e-06 -2.78123e-06 0)
(8.15256e-06 -2.23283e-06 0)
(1.11962e-05 -1.5716e-06 0)
(1.31143e-05 -8.35861e-07 0)
(1.38117e-05 -8.01767e-08 0)
(1.32637e-05 6.4328e-07 0)
(1.15478e-05 1.29971e-06 0)
(8.8067e-06 1.8437e-06 0)
(5.21801e-06 2.2535e-06 0)
(9.37943e-07 2.49986e-06 0)
(-3.69488e-06 2.58198e-06 0)
(-8.28305e-06 2.49304e-06 0)
(-1.25937e-05 2.24528e-06 0)
(-1.63626e-05 1.84913e-06 0)
(-1.93241e-05 1.3422e-06 0)
(-2.12754e-05 7.44608e-07 0)
(-2.20656e-05 9.97291e-08 0)
(-2.16054e-05 -5.55245e-07 0)
(-1.98807e-05 -1.18258e-06 0)
(-1.6963e-05 -1.74506e-06 0)
(-1.29912e-05 -2.20486e-06 0)
(-8.17655e-06 -2.53309e-06 0)
(-2.79511e-06 -2.70453e-06 0)
(5.66748e-06 -0.0001084 0)
(1.71972e-05 -0.000108105 0)
(2.88486e-05 -0.000108056 0)
(4.06371e-05 -0.000107992 0)
(5.25753e-05 -0.000107908 0)
(6.46296e-05 -0.000107803 0)
(7.67395e-05 -0.000107686 0)
(8.90486e-05 -0.000107553 0)
(0.000101493 -0.000107409 0)
(0.000114026 -0.000107256 0)
(0.000126806 -0.00010707 0)
(0.000139789 -0.000106855 0)
(0.000152936 -0.000106574 0)
(0.000166411 -0.000106238 0)
(0.000180051 -0.000105829 0)
(0.000193892 -0.000105363 0)
(0.00020793 -0.000104815 0)
(0.000221974 -0.000104186 0)
(0.00023614 -0.000103448 0)
(0.000250333 -0.000102616 0)
(0.000264539 -0.000101648 0)
(0.000278728 -0.000100537 0)
(0.000292873 -9.92661e-05 0)
(0.000306927 -9.77953e-05 0)
(0.000320822 -9.61432e-05 0)
(0.000334543 -9.42251e-05 0)
(0.00034801 -9.20467e-05 0)
(0.000361192 -8.96032e-05 0)
(0.000373998 -8.68332e-05 0)
(0.000386264 -8.37189e-05 0)
(0.000397997 -8.01995e-05 0)
(0.000409305 -7.62829e-05 0)
(0.000419952 -7.19036e-05 0)
(0.000429935 -6.70929e-05 0)
(0.000439342 -6.18235e-05 0)
(0.000448233 -5.60924e-05 0)
(0.000456493 -4.98818e-05 0)
(0.000463911 -4.31767e-05 0)
(0.000470426 -3.59759e-05 0)
(0.00047598 -2.82498e-05 0)
(0.000480538 -2.00501e-05 0)
(0.000483966 -1.13667e-05 0)
(0.000486272 -2.23557e-06 0)
(0.000487244 7.30053e-06 0)
(0.0004866 1.72064e-05 0)
(0.00048422 2.74549e-05 0)
(0.000480127 3.79834e-05 0)
(0.000474317 4.87394e-05 0)
(0.000466779 5.96276e-05 0)
(0.000457469 7.0581e-05 0)
(0.000446455 8.15063e-05 0)
(0.000433654 9.23251e-05 0)
(0.000419142 0.00010291 0)
(0.00040293 0.000113138 0)
(0.000384996 0.000122931 0)
(0.000365447 0.000132224 0)
(0.000344309 0.000140737 0)
(0.000321776 0.000148575 0)
(0.000297818 0.00015539 0)
(0.000272595 0.000161272 0)
(0.000246142 0.000165967 0)
(0.000218861 0.000169524 0)
(0.000191024 0.000171718 0)
(0.00016246 0.00017263 0)
(0.000133599 0.000172097 0)
(0.000104721 0.000170106 0)
(7.60131e-05 0.000166677 0)
(4.78664e-05 0.000161745 0)
(2.05446e-05 0.000155384 0)
(-5.72062e-06 0.000147576 0)
(-3.07292e-05 0.000138418 0)
(-5.41872e-05 0.000127914 0)
(-7.57962e-05 0.000116247 0)
(-9.52552e-05 0.000103497 0)
(-0.000112377 8.98057e-05 0)
(-0.000126914 7.53688e-05 0)
(-0.0001386 6.03384e-05 0)
(-0.000147603 4.49234e-05 0)
(-0.000153519 2.93986e-05 0)
(-0.000156243 1.38381e-05 0)
(-0.000155931 -1.35844e-06 0)
(-0.000152373 -1.60235e-05 0)
(-0.000145752 -2.99285e-05 0)
(-0.000136297 -4.28471e-05 0)
(-0.000124219 -5.45685e-05 0)
(-0.000109725 -6.48676e-05 0)
(-9.30755e-05 -7.35717e-05 0)
(-7.461e-05 -8.05114e-05 0)
(-5.47509e-05 -8.55426e-05 0)
(-3.38826e-05 -8.85959e-05 0)
(-1.2477e-05 -8.95816e-05 0)
(8.95764e-06 -8.85109e-05 0)
(2.99893e-05 -8.53987e-05 0)
(5.00981e-05 -8.03174e-05 0)
(6.88169e-05 -7.34017e-05 0)
(8.56603e-05 -6.48121e-05 0)
(0.000100244 -5.47673e-05 0)
(0.000112202 -4.35118e-05 0)
(0.000121187 -3.13515e-05 0)
(0.000126979 -1.86118e-05 0)
(0.000129422 -5.61806e-06 0)
(0.000128367 7.23889e-06 0)
(0.000123797 1.96341e-05 0)
(0.000115954 3.1221e-05 0)
(0.000105086 4.16571e-05 0)
(9.14872e-05 5.06392e-05 0)
(7.55754e-05 5.78836e-05 0)
(5.7833e-05 6.31744e-05 0)
(3.88397e-05 6.63495e-05 0)
(1.9181e-05 6.73323e-05 0)
(-4.99111e-07 6.60855e-05 0)
(-1.95179e-05 6.26867e-05 0)
(-3.72674e-05 5.72756e-05 0)
(-5.31236e-05 5.00614e-05 0)
(-6.65599e-05 4.1345e-05 0)
(-7.7135e-05 3.1453e-05 0)
(-8.45028e-05 2.08183e-05 0)
(-8.84518e-05 9.83215e-06 0)
(-8.88244e-05 -1.02023e-06 0)
(-8.56857e-05 -1.12815e-05 0)
(-7.93449e-05 -2.05607e-05 0)
(-7.0152e-05 -2.84663e-05 0)
(-5.85914e-05 -3.46553e-05 0)
(-4.52725e-05 -3.88993e-05 0)
(-3.08768e-05 -4.10038e-05 0)
(-1.61648e-05 -4.09532e-05 0)
(-1.85833e-06 -3.87719e-05 0)
(1.13174e-05 -3.46635e-05 0)
(2.25994e-05 -2.88494e-05 0)
(3.15184e-05 -2.17558e-05 0)
(3.75934e-05 -1.37405e-05 0)
(4.05754e-05 -5.37298e-06 0)
(4.03104e-05 2.92192e-06 0)
(3.6895e-05 1.05728e-05 0)
(3.07247e-05 1.72265e-05 0)
(2.21925e-05 2.24307e-05 0)
(1.1973e-05 2.59041e-05 0)
(6.7218e-07 2.74886e-05 0)
(-1.0853e-05 2.70567e-05 0)
(-2.16622e-05 2.47261e-05 0)
(-3.11564e-05 2.06918e-05 0)
(-3.8639e-05 1.52701e-05 0)
(-4.3596e-05 8.83541e-06 0)
(-4.57167e-05 1.88289e-06 0)
(-4.47311e-05 -5.13937e-06 0)
(-4.0743e-05 -1.17493e-05 0)
(-3.40161e-05 -1.7558e-05 0)
(-2.50159e-05 -2.21596e-05 0)
(-1.43249e-05 -2.52883e-05 0)
(-2.41971e-06 -2.67811e-05 0)
(9.79032e-06 -2.66104e-05 0)
(2.1396e-05 -2.48149e-05 0)
(3.18702e-05 -2.16031e-05 0)
(4.05913e-05 -1.72131e-05 0)
(4.7084e-05 -1.20001e-05 0)
(5.1017e-05 -6.3018e-06 0)
(5.22066e-05 -5.33604e-07 0)
(5.0706e-05 4.95372e-06 0)
(4.67202e-05 9.84939e-06 0)
(4.05653e-05 1.39035e-05 0)
(3.26993e-05 1.68918e-05 0)
(2.36677e-05 1.87187e-05 0)
(1.40207e-05 1.93297e-05 0)
(4.36633e-06 1.8807e-05 0)
(-4.74465e-06 1.72297e-05 0)
(-1.28215e-05 1.47973e-05 0)
(-1.94713e-05 1.17108e-05 0)
(-2.44064e-05 8.21449e-06 0)
(-2.7444e-05 4.54704e-06 0)
(-2.85783e-05 9.49414e-07 0)
(-2.78576e-05 -2.36692e-06 0)
(-2.54494e-05 -5.21048e-06 0)
(-2.1652e-05 -7.47442e-06 0)
(-1.68109e-05 -9.04096e-06 0)
(-1.12961e-05 -9.87942e-06 0)
(-5.51688e-06 -9.98563e-06 0)
(1.27241e-07 -9.41337e-06 0)
(5.26365e-06 -8.248e-06 0)
(9.57963e-06 -6.59875e-06 0)
(1.28254e-05 -4.60729e-06 0)
(1.48338e-05 -2.4136e-06 0)
(1.54976e-05 -1.75866e-07 0)
(1.48185e-05 1.97071e-06 0)
(1.2885e-05 3.90399e-06 0)
(9.85704e-06 5.50827e-06 0)
(5.93249e-06 6.69909e-06 0)
(1.29171e-06 7.41892e-06 0)
(-3.70167e-06 7.64569e-06 0)
(-8.63653e-06 7.37437e-06 0)
(-1.32623e-05 6.62178e-06 0)
(-1.72899e-05 5.45923e-06 0)
(-2.04453e-05 3.95052e-06 0)
(-2.25223e-05 2.19104e-06 0)
(-2.33554e-05 2.88981e-07 0)
(-2.28632e-05 -1.64048e-06 0)
(-2.10345e-05 -3.48715e-06 0)
(-1.79433e-05 -5.13792e-06 0)
(-1.37384e-05 -6.48871e-06 0)
(-8.64543e-06 -7.45159e-06 0)
(-2.95479e-06 -7.95531e-06 0)
(5.39961e-06 -0.000298018 0)
(1.62215e-05 -0.000299961 0)
(2.71318e-05 -0.00029973 0)
(3.81811e-05 -0.000299347 0)
(4.93723e-05 -0.000298824 0)
(6.06347e-05 -0.000298143 0)
(7.20174e-05 -0.000297297 0)
(8.35661e-05 -0.00029626 0)
(9.52288e-05 -0.000295026 0)
(0.000107223 -0.000293599 0)
(0.000119538 -0.000291948 0)
(0.000132236 -0.000290081 0)
(0.000145273 -0.000287967 0)
(0.000158463 -0.000285599 0)
(0.000171779 -0.000283006 0)
(0.000185265 -0.000280185 0)
(0.000198972 -0.000277136 0)
(0.000212898 -0.000273862 0)
(0.00022694 -0.000270388 0)
(0.000241146 -0.000266666 0)
(0.000255638 -0.000262732 0)
(0.000270224 -0.000258521 0)
(0.000285067 -0.000254017 0)
(0.000299911 -0.000249127 0)
(0.000314945 -0.000243827 0)
(0.000330251 -0.000238038 0)
(0.000345338 -0.000231663 0)
(0.000360514 -0.000224655 0)
(0.000375773 -0.000217091 0)
(0.000391032 -0.000208886 0)
(0.000406055 -0.000199992 0)
(0.000420877 -0.000190516 0)
(0.00043532 -0.000180308 0)
(0.000449008 -0.00016936 0)
(0.000462128 -0.000157597 0)
(0.000474606 -0.000144912 0)
(0.00048639 -0.000131408 0)
(0.000497373 -0.000116988 0)
(0.000507603 -0.000101698 0)
(0.000516771 -8.55328e-05 0)
(0.000524652 -6.85412e-05 0)
(0.000531252 -5.07489e-05 0)
(0.000536327 -3.22215e-05 0)
(0.00053977 -1.30375e-05 0)
(0.000541497 6.78055e-06 0)
(0.000541293 2.71001e-05 0)
(0.00053904 4.7743e-05 0)
(0.00053456 6.8601e-05 0)
(0.000527781 8.9546e-05 0)
(0.000518722 0.000110465 0)
(0.00050733 0.000131103 0)
(0.000493506 0.000151417 0)
(0.000477006 0.000171185 0)
(0.000458294 0.00019022 0)
(0.000437597 0.000208361 0)
(0.000414087 0.000225336 0)
(0.000388574 0.000241053 0)
(0.000360992 0.000255267 0)
(0.000331206 0.000267768 0)
(0.00029987 0.000278385 0)
(0.000267119 0.000286959 0)
(0.000232929 0.00029334 0)
(0.000197818 0.000297383 0)
(0.000162029 0.000298917 0)
(0.000125667 0.000297948 0)
(8.94745e-05 0.000294336 0)
(5.35137e-05 0.000288107 0)
(1.82625e-05 0.000279209 0)
(-1.60234e-05 0.000267705 0)
(-4.88632e-05 0.000253633 0)
(-7.99058e-05 0.000237101 0)
(-0.000108821 0.000218283 0)
(-0.000135129 0.000197367 0)
(-0.000158669 0.000174578 0)
(-0.000178936 0.000150164 0)
(-0.000195739 0.000124449 0)
(-0.000208884 9.77365e-05 0)
(-0.000218031 7.03879e-05 0)
(-0.000223389 4.28339e-05 0)
(-0.000224544 1.54116e-05 0)
(-0.000221471 -1.13252e-05 0)
(-0.000214272 -3.70498e-05 0)
(-0.00020312 -6.13904e-05 0)
(-0.000188361 -8.39209e-05 0)
(-0.000170105 -0.000104249 0)
(-0.000148746 -0.000121975 0)
(-0.000124702 -0.000136807 0)
(-9.84039e-05 -0.000148439 0)
(-7.04464e-05 -0.000156665 0)
(-4.13633e-05 -0.0001613 0)
(-1.18026e-05 -0.000162277 0)
(1.75774e-05 -0.000159552 0)
(4.61796e-05 -0.000153218 0)
(7.32824e-05 -0.000143421 0)
(9.82649e-05 -0.000130375 0)
(0.000120539 -0.00011439 0)
(0.000139569 -9.58861e-05 0)
(0.000154828 -7.53355e-05 0)
(0.000165916 -5.32376e-05 0)
(0.000172635 -3.01595e-05 0)
(0.000174725 -6.74026e-06 0)
(0.000172009 1.62605e-05 0)
(0.0001647 3.83346e-05 0)
(0.000153036 5.88631e-05 0)
(0.000137313 7.72383e-05 0)
(0.000118035 9.28906e-05 0)
(9.57542e-05 0.000105368 0)
(7.1183e-05 0.000114292 0)
(4.51437e-05 0.000119396 0)
(1.84348e-05 0.000120525 0)
(-8.05391e-06 0.000117691 0)
(-3.33924e-05 0.000111007 0)
(-5.67493e-05 0.00010075 0)
(-7.73346e-05 8.73153e-05 0)
(-9.44404e-05 7.12614e-05 0)
(-0.000107452 5.32117e-05 0)
(-0.000116021 3.39134e-05 0)
(-0.000119866 1.41481e-05 0)
(-0.000118819 -5.24696e-06 0)
(-0.000113074 -2.35286e-05 0)
(-0.000103074 -3.99201e-05 0)
(-8.93203e-05 -5.3732e-05 0)
(-7.25408e-05 -6.43771e-05 0)
(-5.35556e-05 -7.14516e-05 0)
(-3.33417e-05 -7.46741e-05 0)
(-1.29826e-05 -7.40048e-05 0)
(6.539e-06 -6.95126e-05 0)
(2.42252e-05 -6.15983e-05 0)
(3.91248e-05 -5.07379e-05 0)
(5.05621e-05 -3.75623e-05 0)
(5.79582e-05 -2.29547e-05 0)
(6.09995e-05 -7.71863e-06 0)
(5.95906e-05 7.15631e-06 0)
(5.3961e-05 2.09014e-05 0)
(4.46355e-05 3.26276e-05 0)
(3.22103e-05 4.17233e-05 0)
(1.76928e-05 4.76125e-05 0)
(1.85653e-06 5.00723e-05 0)
(-1.4096e-05 4.89366e-05 0)
(-2.88698e-05 4.44301e-05 0)
(-4.16515e-05 3.69149e-05 0)
(-5.15957e-05 2.70207e-05 0)
(-5.80212e-05 1.53976e-05 0)
(-6.05562e-05 2.93763e-06 0)
(-5.90178e-05 -9.48912e-06 0)
(-5.35434e-05 -2.11328e-05 0)
(-4.46027e-05 -3.11773e-05 0)
(-3.27498e-05 -3.907e-05 0)
(-1.88275e-05 -4.42948e-05 0)
(-3.63328e-06 -4.66232e-05 0)
(1.17857e-05 -4.60229e-05 0)
(2.62904e-05 -4.26281e-05 0)
(3.91455e-05 -3.68153e-05 0)
(4.96427e-05 -2.90234e-05 0)
(5.72024e-05 -1.98876e-05 0)
(6.14977e-05 -1.00321e-05 0)
(6.23732e-05 -1.25157e-07 0)
(5.99609e-05 9.22256e-06 0)
(5.45764e-05 1.74783e-05 0)
(4.6639e-05 2.41913e-05 0)
(3.67756e-05 2.9067e-05 0)
(2.56641e-05 3.19184e-05 0)
(1.40275e-05 3.27262e-05 0)
(2.56912e-06 3.15975e-05 0)
(-8.085e-06 2.87362e-05 0)
(-1.7334e-05 2.44658e-05 0)
(-2.47649e-05 1.91356e-05 0)
(-3.00897e-05 1.31836e-05 0)
(-3.31346e-05 6.98444e-06 0)
(-3.39065e-05 9.65275e-07 0)
(-3.25325e-05 -4.53472e-06 0)
(-2.92749e-05 -9.21852e-06 0)
(-2.4477e-05 -1.28931e-05 0)
(-1.85521e-05 -1.5386e-05 0)
(-1.19523e-05 -1.66685e-05 0)
(-5.15527e-06 -1.67266e-05 0)
(1.38507e-06 -1.56697e-05 0)
(7.25852e-06 -1.3644e-05 0)
(1.2118e-05 -1.08459e-05 0)
(1.57041e-05 -7.49513e-06 0)
(1.78349e-05 -3.84202e-06 0)
(1.84295e-05 -1.31732e-07 0)
(1.75126e-05 3.41392e-06 0)
(1.51908e-05 6.58259e-06 0)
(1.16533e-05 9.19829e-06 0)
(7.14286e-06 1.11235e-05 0)
(1.88222e-06 1.22718e-05 0)
(-3.73539e-06 1.2608e-05 0)
(-9.27429e-06 1.21262e-05 0)
(-1.44303e-05 1.08716e-05 0)
(-1.88965e-05 8.94426e-06 0)
(-2.23893e-05 6.45876e-06 0)
(-2.46712e-05 3.5751e-06 0)
(-2.55788e-05 4.6354e-07 0)
(-2.50286e-05 -2.69003e-06 0)
(-2.30156e-05 -5.70126e-06 0)
(-1.96233e-05 -8.38985e-06 0)
(-1.5019e-05 -1.05881e-05 0)
(-9.44869e-06 -1.21532e-05 0)
(-3.22891e-06 -1.29721e-05 0)
(6.5052e-06 -0.00029736 0)
(1.96765e-05 -0.000296973 0)
(3.30548e-05 -0.00029641 0)
(4.66386e-05 -0.000295594 0)
(6.04636e-05 -0.000294533 0)
(7.45165e-05 -0.000293294 0)
(8.87947e-05 -0.000291835 0)
(0.000103421 -0.0002902 0)
(0.000118143 -0.000288254 0)
(0.000133098 -0.000286162 0)
(0.000148399 -0.000283966 0)
(0.000164015 -0.000281865 0)
(0.000180006 -0.000279935 0)
(0.000196112 -0.000278278 0)
(0.000212157 -0.000276861 0)
(0.000228366 -0.000275682 0)
(0.000244701 -0.00027473 0)
(0.000260845 -0.000273936 0)
(0.000277191 -0.00027312 0)
(0.000293608 -0.000272226 0)
(0.000310182 -0.000271217 0)
(0.000327145 -0.000270033 0)
(0.000344648 -0.000268619 0)
(0.000362639 -0.000266776 0)
(0.000380978 -0.000264561 0)
(0.00040004 -0.000261694 0)
(0.000419496 -0.000258185 0)
(0.000438414 -0.000253973 0)
(0.00045691 -0.000248904 0)
(0.000475476 -0.000243079 0)
(0.00049311 -0.000236314 0)
(0.000510402 -0.000228501 0)
(0.000527714 -0.000219517 0)
(0.000544615 -0.000209056 0)
(0.000561649 -0.000197305 0)
(0.000577991 -0.000183971 0)
(0.000593479 -0.000169037 0)
(0.000608204 -0.000152353 0)
(0.000621678 -0.000133959 0)
(0.000633811 -0.000113883 0)
(0.000644423 -9.20892e-05 0)
(0.000653323 -6.86989e-05 0)
(0.000660276 -4.37709e-05 0)
(0.000665289 -1.74523e-05 0)
(0.000667894 1.00731e-05 0)
(0.000667314 3.87503e-05 0)
(0.000663697 6.82777e-05 0)
(0.000657282 9.85604e-05 0)
(0.000648059 0.000129271 0)
(0.000635517 0.000160145 0)
(0.000620033 0.000190953 0)
(0.0006017 0.000221468 0)
(0.000580025 0.000251194 0)
(0.000555364 0.000280113 0)
(0.000527433 0.000307531 0)
(0.000496552 0.00033336 0)
(0.000463001 0.000357182 0)
(0.00042652 0.00037876 0)
(0.000387401 0.000397597 0)
(0.000346092 0.000413668 0)
(0.000302754 0.000426604 0)
(0.00025783 0.00043604 0)
(0.000211571 0.000442031 0)
(0.000164406 0.000444089 0)
(0.000116857 0.000442342 0)
(6.93298e-05 0.000436523 0)
(2.23087e-05 0.000426654 0)
(-2.3693e-05 0.000412702 0)
(-6.81293e-05 0.000394766 0)
(-0.0001106 0.000372927 0)
(-0.000150468 0.000347406 0)
(-0.000187242 0.000318395 0)
(-0.000220474 0.000286248 0)
(-0.000249713 0.000251256 0)
(-0.000274515 0.000213927 0)
(-0.000294552 0.000174594 0)
(-0.000309489 0.000133914 0)
(-0.000319138 9.231e-05 0)
(-0.000323342 5.04364e-05 0)
(-0.000321663 8.97304e-06 0)
(-0.000314335 -3.14638e-05 0)
(-0.000301818 -7.02482e-05 0)
(-0.000284079 -0.000106796 0)
(-0.000261365 -0.000140436 0)
(-0.000234017 -0.000170573 0)
(-0.000202614 -0.000196668 0)
(-0.00016776 -0.000218204 0)
(-0.000130066 -0.000234792 0)
(-9.03319e-05 -0.000246099 0)
(-4.93483e-05 -0.000251897 0)
(-7.98496e-06 -0.000252086 0)
(3.28234e-05 -0.000246633 0)
(7.21616e-05 -0.000235643 0)
(0.000109216 -0.000219391 0)
(0.000143142 -0.00019826 0)
(0.000172994 -0.00017279 0)
(0.00019805 -0.000143517 0)
(0.000217813 -0.000111231 0)
(0.000231781 -7.6709e-05 0)
(0.000239522 -4.09248e-05 0)
(0.00024053 -4.83533e-06 0)
(0.000235039 3.05629e-05 0)
(0.000223483 6.43614e-05 0)
(0.000205962 9.55842e-05 0)
(0.000182935 0.000123294 0)
(0.00015514 0.000146705 0)
(0.000123485 0.000165072 0)
(8.89223e-05 0.000177877 0)
(5.25696e-05 0.000184712 0)
(1.56333e-05 0.000185408 0)
(-2.06679e-05 0.000179963 0)
(-5.51038e-05 0.000168669 0)
(-8.65154e-05 0.000151924 0)
(-0.000113763 0.00013045 0)
(-0.000135918 0.000105048 0)
(-0.000152236 7.67513e-05 0)
(-0.000162175 4.66614e-05 0)
(-0.000165455 1.60254e-05 0)
(-0.000162084 -1.38157e-05 0)
(-0.000152347 -4.17439e-05 0)
(-0.00013677 -6.65291e-05 0)
(-0.000116151 -8.71891e-05 0)
(-9.15744e-05 -0.000102849 0)
(-6.42673e-05 -0.000112846 0)
(-3.56129e-05 -0.000116854 0)
(-7.02091e-06 -0.000114843 0)
(2.00221e-05 -0.000106957 0)
(4.41109e-05 -9.38425e-05 0)
(6.41349e-05 -7.62929e-05 0)
(7.90064e-05 -5.53622e-05 0)
(8.80445e-05 -3.23754e-05 0)
(9.09161e-05 -8.65452e-06 0)
(8.76245e-05 1.43952e-05 0)
(7.85399e-05 3.54438e-05 0)
(6.43975e-05 5.3218e-05 0)
(4.61719e-05 6.67489e-05 0)
(2.52174e-05 7.52495e-05 0)
(2.80704e-06 7.83454e-05 0)
(-1.94905e-05 7.59519e-05 0)
(-3.99318e-05 6.84289e-05 0)
(-5.73465e-05 5.63856e-05 0)
(-7.06607e-05 4.081e-05 0)
(-7.90414e-05 2.27799e-05 0)
(-8.19441e-05 3.69065e-06 0)
(-7.93856e-05 -1.5211e-05 0)
(-7.16228e-05 -3.26885e-05 0)
(-5.92817e-05 -4.75971e-05 0)
(-4.32985e-05 -5.90739e-05 0)
(-2.4753e-05 -6.64289e-05 0)
(-4.81774e-06 -6.94129e-05 0)
(1.51093e-05 -6.79818e-05 0)
(3.35833e-05 -6.24744e-05 0)
(4.96967e-05 -5.34062e-05 0)
(6.25366e-05 -4.15838e-05 0)
(7.14364e-05 -2.78764e-05 0)
(7.60807e-05 -1.32824e-05 0)
(7.63573e-05 1.21287e-06 0)
(7.25427e-05 1.47707e-05 0)
(6.50883e-05 2.6564e-05 0)
(5.46334e-05 3.60056e-05 0)
(4.19852e-05 4.26853e-05 0)
(2.80316e-05 4.63998e-05 0)
(1.36764e-05 4.71518e-05 0)
(-2.2079e-07 4.51248e-05 0)
(-1.28787e-05 4.06686e-05 0)
(-2.36579e-05 3.42488e-05 0)
(-3.20686e-05 2.64176e-05 0)
(-3.78264e-05 1.77619e-05 0)
(-4.07905e-05 8.88426e-06 0)
(-4.1021e-05 3.34818e-07 0)
(-3.87355e-05 -7.40253e-06 0)
(-3.42805e-05 -1.39292e-05 0)
(-2.80997e-05 -1.89489e-05 0)
(-2.07188e-05 -2.22852e-05 0)
(-1.26775e-05 -2.3892e-05 0)
(-4.52483e-06 -2.37825e-05 0)
(3.18525e-06 -2.21175e-05 0)
(1.00035e-05 -1.91245e-05 0)
(1.5557e-05 -1.50736e-05 0)
(1.956e-05 -1.02983e-05 0)
(2.1835e-05 -5.12808e-06 0)
(2.23193e-05 8.96523e-08 0)
(2.10612e-05 5.04076e-06 0)
(1.82037e-05 9.43357e-06 0)
(1.39863e-05 1.30314e-05 0)
(8.69767e-06 1.56564e-05 0)
(2.61551e-06 1.71927e-05 0)
(-3.823e-06 1.76081e-05 0)
(-1.01371e-05 1.68819e-05 0)
(-1.59855e-05 1.51013e-05 0)
(-2.10254e-05 1.23897e-05 0)
(-2.49406e-05 8.92937e-06 0)
(-2.74855e-05 4.92613e-06 0)
(-2.84837e-05 6.2244e-07 0)
(-2.78524e-05 -3.73221e-06 0)
(-2.55954e-05 -7.88208e-06 0)
(-2.18097e-05 -1.15798e-05 0)
(-1.6683e-05 -1.46018e-05 0)
(-1.04915e-05 -1.67524e-05 0)
(-3.58446e-06 -1.78765e-05 0)
(7.36415e-06 -0.000501092 0)
(2.19449e-05 -0.000503621 0)
(3.64689e-05 -0.000503787 0)
(5.08718e-05 -0.000503946 0)
(6.4936e-05 -0.000503861 0)
(7.88832e-05 -0.000503608 0)
(9.29037e-05 -0.00050231 0)
(0.000107571 -0.000500915 0)
(0.000122124 -0.000497751 0)
(0.000135739 -0.00049399 0)
(0.000148254 -0.000488536 0)
(0.00015956 -0.000482101 0)
(0.000170181 -0.000474527 0)
(0.000180593 -0.000466411 0)
(0.000191368 -0.000457969 0)
(0.000202447 -0.00044969 0)
(0.000214217 -0.000441927 0)
(0.000227517 -0.000434987 0)
(0.00024219 -0.00042924 0)
(0.000257469 -0.000424613 0)
(0.000273492 -0.00042102 0)
(0.000290195 -0.000418465 0)
(0.000308398 -0.000416586 0)
(0.000327303 -0.000415202 0)
(0.000347409 -0.000413561 0)
(0.000369019 -0.000411614 0)
(0.000390617 -0.000408296 0)
(0.000413073 -0.000404609 0)
(0.000435644 -0.000398425 0)
(0.000458451 -0.000391051 0)
(0.000482101 -0.000381246 0)
(0.000506416 -0.000369797 0)
(0.000532063 -0.000355833 0)
(0.000557323 -0.000339683 0)
(0.0005823 -0.000321133 0)
(0.000607692 -0.000300186 0)
(0.000632756 -0.000276711 0)
(0.000657145 -0.000250796 0)
(0.000680113 -0.000222415 0)
(0.000701695 -0.000191642 0)
(0.000721321 -0.000158574 0)
(0.000738604 -0.000123397 0)
(0.000753237 -8.61111e-05 0)
(0.000764667 -4.70896e-05 0)
(0.000773172 -6.51034e-06 0)
(0.000778069 3.54555e-05 0)
(0.000779151 7.85594e-05 0)
(0.000776262 0.000122461 0)
(0.000768761 0.000166841 0)
(0.000757043 0.000211261 0)
(0.000741294 0.000255607 0)
(0.000720559 0.000299228 0)
(0.000695365 0.00034185 0)
(0.000665574 0.000382877 0)
(0.000631145 0.000421949 0)
(0.000592451 0.00045862 0)
(0.000549789 0.000492371 0)
(0.000502871 0.000522727 0)
(0.000452372 0.000549349 0)
(0.000399401 0.00057185 0)
(0.000343052 0.000589774 0)
(0.000284762 0.000602978 0)
(0.000224673 0.000610804 0)
(0.00016329 0.000613411 0)
(0.000101492 0.000610263 0)
(3.96516e-05 0.000601521 0)
(-2.13857e-05 0.000586905 0)
(-8.09283e-05 0.000566619 0)
(-0.000138387 0.000540605 0)
(-0.000192948 0.000509162 0)
(-0.000243927 0.0004725 0)
(-0.000290696 0.000430979 0)
(-0.000332546 0.000385025 0)
(-0.00036888 0.000335166 0)
(-0.000399215 0.000282009 0)
(-0.000423053 0.000226211 0)
(-0.000439975 0.000168582 0)
(-0.000449796 0.000109865 0)
(-0.000452147 5.09594e-05 0)
(-0.000446792 -7.21612e-06 0)
(-0.000433975 -6.38856e-05 0)
(-0.000414059 -0.000118102 0)
(-0.000387182 -0.000168884 0)
(-0.000353737 -0.000215377 0)
(-0.000314282 -0.000256745 0)
(-0.000269518 -0.000292273 0)
(-0.000220333 -0.000321225 0)
(-0.000167661 -0.000343094 0)
(-0.000112542 -0.000357378 0)
(-5.61158e-05 -0.000363798 0)
(4.88041e-07 -0.000362158 0)
(5.61196e-05 -0.000352575 0)
(0.000109477 -0.000335223 0)
(0.000159255 -0.00031048 0)
(0.000204301 -0.000278862 0)
(0.000243729 -0.000241149 0)
(0.000276546 -0.000198276 0)
(0.000301821 -0.000151317 0)
(0.000318865 -0.000101514 0)
(0.000327243 -5.01562e-05 0)
(0.000326759 1.34287e-06 0)
(0.000317496 5.17753e-05 0)
(0.000299876 9.96543e-05 0)
(0.000274182 0.000143561 0)
(0.000241232 0.000182238 0)
(0.000202033 0.000214522 0)
(0.000157767 0.000239486 0)
(0.000109881 0.000256346 0)
(5.99281e-05 0.000264646 0)
(9.52148e-06 0.000264136 0)
(-3.95829e-05 0.000254915 0)
(-8.57327e-05 0.000237326 0)
(-0.000127353 0.000212133 0)
(-0.000162995 0.000180255 0)
(-0.000191483 0.000142992 0)
(-0.000211781 0.000101837 0)
(-0.000223301 5.84291e-05 0)
(-0.000225515 1.45705e-05 0)
(-0.000218618 -2.79172e-05 0)
(-0.000203128 -6.73535e-05 0)
(-0.000179856 -0.000102101 0)
(-0.000150022 -0.00013068 0)
(-0.000114983 -0.00015187 0)
(-7.65333e-05 -0.00016489 0)
(-3.67162e-05 -0.000169244 0)
(2.62464e-06 -0.000164914 0)
(3.94551e-05 -0.000152309 0)
(7.18141e-05 -0.000132308 0)
(9.82132e-05 -0.000106078 0)
(0.000117264 -7.53372e-05 0)
(0.000128119 -4.18101e-05 0)
(0.000130475 -7.45581e-06 0)
(0.00012437 2.5449e-05 0)
(0.000110367 5.5294e-05 0)
(8.9626e-05 8.01534e-05 0)
(6.35486e-05 9.87382e-05 0)
(3.40494e-05 0.000110013 0)
(2.93122e-06 0.00011341 0)
(-2.75898e-05 0.000109025 0)
(-5.52908e-05 9.73729e-05 0)
(-7.8568e-05 7.95124e-05 0)
(-9.6031e-05 5.67583e-05 0)
(-0.000106571 3.09183e-05 0)
(-0.000109699 3.71968e-06 0)
(-0.000105559 -2.28267e-05 0)
(-9.45243e-05 -4.70662e-05 0)
(-7.76291e-05 -6.74869e-05 0)
(-5.60846e-05 -8.28587e-05 0)
(-3.15286e-05 -9.23558e-05 0)
(-5.57919e-06 -9.57211e-05 0)
(2.00031e-05 -9.29672e-05 0)
(4.34316e-05 -8.46425e-05 0)
(6.34712e-05 -7.15597e-05 0)
(7.90547e-05 -5.48846e-05 0)
(8.94521e-05 -3.58729e-05 0)
(9.42851e-05 -1.58841e-05 0)
(9.36429e-05 3.75275e-06 0)
(8.79089e-05 2.18679e-05 0)
(7.77335e-05 3.74094e-05 0)
(6.4035e-05 4.96275e-05 0)
(4.78826e-05 5.80261e-05 0)
(3.04092e-05 6.23862e-05 0)
(1.27451e-05 6.27862e-05 0)
(-4.05895e-06 5.95203e-05 0)
(-1.91069e-05 5.30985e-05 0)
(-3.16288e-05 4.41911e-05 0)
(-4.11245e-05 3.35385e-05 0)
(-4.72986e-05 2.19312e-05 0)
(-5.00517e-05 1.01795e-05 0)
(-4.95418e-05 -1.03205e-06 0)
(-4.60761e-05 -1.10554e-05 0)
(-4.01195e-05 -1.94117e-05 0)
(-3.22427e-05 -2.57231e-05 0)
(-2.31024e-05 -2.98109e-05 0)
(-1.33294e-05 -3.16133e-05 0)
(-3.58476e-06 -3.12097e-05 0)
(5.49245e-06 -2.88077e-05 0)
(1.34089e-05 -2.47163e-05 0)
(1.97433e-05 -1.93035e-05 0)
(2.42027e-05 -1.30052e-05 0)
(2.66132e-05 -6.25363e-06 0)
(2.69274e-05 5.07218e-07 0)
(2.52348e-05 6.87578e-06 0)
(2.17215e-05 1.24853e-05 0)
(1.66837e-05 1.70487e-05 0)
(1.04714e-05 2.03404e-05 0)
(3.42944e-06 2.22299e-05 0)
(-3.97019e-06 2.26847e-05 0)
(-1.1199e-05 2.16807e-05 0)
(-1.78469e-05 1.93395e-05 0)
(-2.35407e-05 1.58298e-05 0)
(-2.79429e-05 1.13789e-05 0)
(-3.07834e-05 6.25457e-06 0)
(-3.18781e-05 7.62287e-07 0)
(-3.11461e-05 -4.78039e-06 0)
(-2.85971e-05 -1.00518e-05 0)
(-2.43491e-05 -1.4743e-05 0)
(-1.86163e-05 -1.85696e-05 0)
(-1.17024e-05 -2.12901e-05 0)
(-3.99707e-06 -2.27118e-05 0)
(6.34292e-06 -0.000457942 0)
(1.91886e-05 -0.000454006 0)
(3.26416e-05 -0.000448129 0)
(4.78119e-05 -0.000439331 0)
(6.40777e-05 -0.000427406 0)
(8.45695e-05 -0.000413304 0)
(0.000104683 -0.000395689 0)
(0.000128466 -0.000378193 0)
(0.000154283 -0.000357052 0)
(0.000179572 -0.000339614 0)
(0.000206951 -0.00032417 0)
(0.000231608 -0.000313277 0)
(0.000254284 -0.000306521 0)
(0.000273047 -0.000304362 0)
(0.000288449 -0.000306287 0)
(0.000300105 -0.000311764 0)
(0.000308915 -0.000320144 0)
(0.00031487 -0.000330699 0)
(0.000320342 -0.00034287 0)
(0.00032643 -0.000355839 0)
(0.000333217 -0.000369471 0)