/*--------------------------------*- C++ -*----------------------------------*\
  =========                 |
  \\      /  F ield         | OpenFOAM: The Open Source CFD Toolbox
   \\    /   O peration     | Website:  https://openfoam.org
    \\  /    A nd           | Version:  12
     \\/     M anipulation  |
\*---------------------------------------------------------------------------*/
FoamFile
{
    format      ascii;
    class       volVectorField;
    location    "7";
    object      zeta;
}
// * * * * * * * * * * * * * * * * * * * * * * * * * * * * * * * * * * * * * //

dimensions      [0 1 0 0 0 0 0];

internalField   uniform (0 0 0);

boundaryField
{
    freeSurface
    {
        type            calculated;
        value           nonuniform List<vector> 
181
(
(0 0.00417383 0)
(0 0.00417365 0)
(0 0.00417311 0)
(0 0.00417273 0)
(0 0.00417189 0)
(0 0.00417128 0)
(0 0.00417085 0)
(0 0.00417006 0)
(0 0.000599442 0)
(0 0.000603661 0)
(0 0.000614672 0)
(0 0.000628126 0)
(0 0.000645949 0)
(0 0.000667031 0)
(0 0.000690645 0)
(0 0.000716278 0)
(0 0.000743104 0)
(0 0.000770541 0)
(0 0.00079774 0)
(0 0.000823988 0)
(0 0.00084857 0)
(0 0.000870729 0)
(0 0.000889747 0)
(0 0.000905381 0)
(0 0.000916977 0)
(0 0.000924135 0)
(0 0.000926413 0)
(0 0.000923378 0)
(0 0.000914731 0)
(0 0.000900325 0)
(0 0.000879924 0)
(0 0.00085349 0)
(0 0.000821013 0)
(0 0.00078252 0)
(0 0.000738151 0)
(0 0.000688072 0)
(0 0.000632572 0)
(0 0.000572019 0)
(0 0.000506852 0)
(0 0.000437533 0)
(0 0.000364653 0)
(0 0.000288855 0)
(0 0.000210806 0)
(0 0.000131267 0)
(0 5.11017e-05 0)
(0 -2.87701e-05 0)
(0 -0.000107475 0)
(0 -0.000184131 0)
(0 -0.000257726 0)
(0 -0.00032738 0)
(0 -0.000392008 0)
(0 -0.000450808 0)
(0 -0.000502879 0)
(0 -0.000547454 0)
(0 -0.00058387 0)
(0 -0.000611455 0)
(0 -0.000629667 0)
(0 -0.000638133 0)
(0 -0.000636625 0)
(0 -0.000625061 0)
(0 -0.000603509 0)
(0 -0.000572225 0)
(0 -0.000531667 0)
(0 -0.000482371 0)
(0 -0.000425218 0)
(0 -0.000361169 0)
(0 -0.000291354 0)
(0 -0.000217063 0)
(0 -0.000139735 0)
(0 -6.09221e-05 0)
(0 1.77786e-05 0)
(0 9.47314e-05 0)
(0 0.000168232 0)
(0 0.000236618 0)
(0 0.000298344 0)
(0 0.000351923 0)
(0 0.00039603 0)
(0 0.000429566 0)
(0 0.000451699 0)
(0 0.000461801 0)
(0 0.000459573 0)
(0 0.000445046 0)
(0 0.00041862 0)
(0 0.000381052 0)
(0 0.000333459 0)
(0 0.000277191 0)
(0 0.000214036 0)
(0 0.000145925 0)
(0 7.50015e-05 0)
(0 3.6067e-06 0)
(0 -6.584e-05 0)
(0 -0.00013104 0)
(0 -0.000189722 0)
(0 -0.000239834 0)
(0 -0.00027962 0)
(0 -0.000307608 0)
(0 -0.000322917 0)
(0 -0.00032502 0)
(0 -0.000313994 0)
(0 -0.000290483 0)
(0 -0.000255691 0)
(0 -0.000211313 0)
(0 -0.000159451 0)
(0 -0.000102669 0)
(0 -4.36226e-05 0)
(0 1.47468e-05 0)
(0 6.96123e-05 0)
(0 0.000118247 0)
(0 0.000158186 0)
(0 0.000187393 0)
(0 0.000204439 0)
(0 0.000208538 0)
(0 0.000199758 0)
(0 0.000178931 0)
(0 0.000147706 0)
(0 0.000108363 0)
(0 6.37668e-05 0)
(0 1.70281e-05 0)
(0 -2.86446e-05 0)
(0 -7.02946e-05 0)
(0 -0.000105308 0)
(0 -0.000131683 0)
(0 -0.000148163 0)
(0 -0.000154267 0)
(0 -0.000150314 0)
(0 -0.00013733 0)
(0 -0.000116914 0)
(0 -9.10719e-05 0)
(0 -6.20571e-05 0)
(0 -3.21175e-05 0)
(0 -3.38102e-06 0)
(0 2.23039e-05 0)
(0 4.35001e-05 0)
(0 5.91973e-05 0)
(0 6.88795e-05 0)
(0 7.24848e-05 0)
(0 7.03597e-05 0)
(0 6.31988e-05 0)
(0 5.19471e-05 0)
(0 3.77168e-05 0)
(0 2.16769e-05 0)
(0 4.99002e-06 0)
(0 -1.12777e-05 0)
(0 -2.62054e-05 0)
(0 -3.90499e-05 0)
(0 -4.92721e-05 0)
(0 -5.65529e-05 0)
(0 -6.07594e-05 0)
(0 -6.19568e-05 0)
(0 -6.03634e-05 0)
(0 -5.6327e-05 0)
(0 -5.0286e-05 0)
(0 -4.2734e-05 0)
(0 -3.41909e-05 0)
(0 -2.51705e-05 0)
(0 -1.61579e-05 0)
(0 -7.57856e-06 0)
(0 2.05489e-07 0)
(0 6.91489e-06 0)
(0 1.23497e-05 0)
(0 1.63947e-05 0)
(0 1.90134e-05 0)
(0 2.02379e-05 0)
(0 2.01619e-05 0)
(0 1.89268e-05 0)
(0 1.67053e-05 0)
(0 1.36879e-05 0)
(0 1.00826e-05 0)
(0 6.10282e-06 0)
(0 1.93224e-06 0)
(0 -2.25059e-06 0)
(0 -6.29442e-06 0)
(0 -1.00785e-05 0)
(0 -1.35129e-05 0)
(0 -1.65375e-05 0)
(0 -1.91199e-05 0)
(0 -2.12491e-05 0)
(0 -2.29289e-05 0)
(0 -2.41714e-05 0)
(0 -2.49906e-05 0)
(0 -2.53991e-05 0)
)
;
    }
    walls
    {
        type            calculated;
        value           uniform (0 0 0);
    }
    floatingObject
    {
        type            calculated;
        value           uniform (0 0 0);
    }
    frontAndBack
    {
        type            empty;
    }
}


// ************************************************************************* //
