# Probe 0 (-0.2 -0.2 0)
# Probe 1 (0 0 0)
# Probe 2 (0.2 0.2 0)
# Time            0                 1                 2                
0                 100000            100000            100000           
0.01              100034.661        100034.661        100034.661       
0.02              100019.3571       100019.3571       100019.3571      
0.03              100008.0482       100008.0482       100008.0482      
0.04              100003.5098       100003.5098       100003.5098      
0.05              100001.679        100001.679        100001.679       
0.06              100000.8651       100000.8651       100000.8651      
0.07              100000.4955       100000.4955       100000.4955      
0.08              100000.3295       100000.3295       100000.3295      
0.09              100000.2553       100000.2553       100000.2553      
0.1               100000.2221       100000.2221       100000.2221      
0.11              100000.2071       100000.2071       100000.2071      
0.12              100000.2003       100000.2003       100000.2003      
0.13              100000.1972       100000.1972       100000.1972      
0.14              100000.1957       100000.1957       100000.1957      
0.15              100000.1949       100000.1949       100000.1949      
0.16              100000.1945       100000.1945       100000.1945      
0.17              100000.1942       100000.1942       100000.1942      
0.18              100000.194        100000.194        100000.194       
0.19              100000.1939       100000.1939       100000.1939      
0.2               100000.1938       100000.1938       100000.1938      
0.21              100000.1937       100000.1937       100000.1937      
0.22              100000.1936       100000.1936       100000.1936      
0.23              100000.1935       100000.1935       100000.1935      
0.24              100000.1934       100000.1934       100000.1934      
0.25              100000.1934       100000.1934       100000.1934      
0.26              100000.1933       100000.1933       100000.1933      
0.27              100000.1932       100000.1932       100000.1932      
0.28              100000.1932       100000.1932       100000.1932      
0.29              100000.1931       100000.1931       100000.1931      
0.3               100000.1931       100000.1931       100000.1931      
0.31              100000.193        100000.193        100000.193       
0.32              100000.193        100000.193        100000.193       
0.33              100000.193        100000.193        100000.193       
0.34              100000.1929       100000.1929       100000.1929      
0.35              100000.1929       100000.1929       100000.1929      
0.36              100000.1929       100000.1929       100000.1929      
0.37              100000.1929       100000.1929       100000.1929      
0.38              100000.1928       100000.1928       100000.1928      
0.39              100000.1928       100000.1928       100000.1928      
0.4               100000.1928       100000.1928       100000.1928      
0.41              100000.1928       100000.1928       100000.1928      
0.42              100000.1928       100000.1928       100000.1928      
0.43              100000.1928       100000.1928       100000.1928      
0.44              100000.1927       100000.1927       100000.1927      
0.45              100000.1927       100000.1927       100000.1927      
0.46              100000.1927       100000.1927       100000.1927      
0.47              100000.1927       100000.1927       100000.1927      
0.48              100000.1927       100000.1927       100000.1927      
0.49              100000.1927       100000.1927       100000.1927      
0.5               100000.1927       100000.1927       100000.1927      
0.51              100000.1927       100000.1927       100000.1927      
0.52              100000.1927       100000.1927       100000.1927      
0.53              100000.1927       100000.1927       100000.1927      
0.54              100000.1927       100000.1927       100000.1927      
0.55              100000.1927       100000.1927       100000.1927      
0.56              100000.1926       100000.1926       100000.1926      
0.57              100000.1926       100000.1926       100000.1926      
0.58              100000.1926       100000.1926       100000.1926      
0.59              100000.1926       100000.1926       100000.1926      
0.6               100000.1926       100000.1926       100000.1926      
0.61              100000.1926       100000.1926       100000.1926      
0.62              100000.1926       100000.1926       100000.1926      
0.63              100000.1926       100000.1926       100000.1926      
0.64              100000.1926       100000.1926       100000.1926      
0.65              100000.1926       100000.1926       100000.1926      
0.66              100000.1926       100000.1926       100000.1926      
0.67              100000.1926       100000.1926       100000.1926      
0.68              100000.1926       100000.1926       100000.1926      
0.69              100000.1926       100000.1926       100000.1926      
0.7               100000.1926       100000.1926       100000.1926      
0.71              100000.1926       100000.1926       100000.1926      
0.72              100000.1926       100000.1926       100000.1926      
0.73              100000.1926       100000.1926       100000.1926      
0.74              100000.1926       100000.1926       100000.1926      
0.75              100000.1926       100000.1926       100000.1926      
0.76              100000.1926       100000.1926       100000.1926      
0.77              100000.1926       100000.1926       100000.1926      
0.78              100000.1926       100000.1926       100000.1926      
0.79              100000.1926       100000.1926       100000.1926      
0.8               100000.1926       100000.1926       100000.1926      
0.81              100000.1926       100000.1926       100000.1926      
0.82              100000.1926       100000.1926       100000.1926      
0.83              100000.1926       100000.1926       100000.1926      
0.84              100000.1926       100000.1926       100000.1926      
0.85              100000.1926       100000.1926       100000.1926      
0.86              100000.1926       100000.1926       100000.1926      
0.87              100000.1926       100000.1926       100000.1926      
0.88              100000.1926       100000.1926       100000.1926      
0.89              100000.1926       100000.1926       100000.1926      
0.9               100000.1926       100000.1926       100000.1926      
0.91              100000.1926       100000.1926       100000.1926      
0.92              100000.1926       100000.1926       100000.1926      
0.93              100000.1926       100000.1926       100000.1926      
0.94              100000.1926       100000.1926       100000.1926      
0.95              100000.1926       100000.1926       100000.1926      
0.96              100000.1926       100000.1926       100000.1926      
0.97              100000.1926       100000.1926       100000.1926      
0.98              100000.1926       100000.1926       100000.1926      
0.99              100000.1926       100000.1926       100000.1926      
1                 100000.1926       100000.1926       100000.1926      
