# Probe 0 (-0.2 -0.2 0)
# Probe 1 (0 0 0)
# Probe 2 (0.2 0.2 0)
# Time            0                 1                 2                
0                 300               300               300              
0.01              300.000358        300.000358        300.000358       
0.02              300.0252195       300.0252195       300.0252195      
0.03              300.0097847       300.0097847       300.0097847      
0.04              299.9995554       299.9995554       299.9995554      
0.05              299.9958119       299.9958119       299.9958119      
0.06              299.9946338       299.9946338       299.9946338      
0.07              299.9944086       299.9944086       299.9944086      
0.08              299.9945758       299.9945758       299.9945758      
0.09              299.9948997       299.9948997       299.9948997      
0.1               299.9952729       299.9952729       299.9952729      
0.11              299.9956487       299.9956487       299.9956487      
0.12              299.9960078       299.9960078       299.9960078      
0.13              299.9963432       299.9963432       299.9963432      
0.14              299.9966531       299.9966531       299.9966531      
0.15              299.996938        299.996938        299.996938       
0.16              299.9971992       299.9971992       299.9971992      
0.17              299.9974384       299.9974384       299.9974384      
0.18              299.9976574       299.9976574       299.9976574      
0.19              299.9978578       299.9978578       299.9978578      
0.2               299.9980412       299.9980412       299.9980412      
0.21              299.998209        299.998209        299.998209       
0.22              299.9983625       299.9983625       299.9983625      
0.23              299.9985029       299.9985029       299.9985029      
0.24              299.9986314       299.9986314       299.9986314      
0.25              299.9987489       299.9987489       299.9987489      
0.26              299.9988564       299.9988564       299.9988564      
0.27              299.9989548       299.9989548       299.9989548      
0.28              299.9990448       299.9990448       299.9990448      
0.29              299.9991271       299.9991271       299.9991271      
0.3               299.9992025       299.9992025       299.9992025      
0.31              299.9992714       299.9992714       299.9992714      
0.32              299.9993344       299.9993344       299.9993344      
0.33              299.9993921       299.9993921       299.9993921      
0.34              299.9994449       299.9994449       299.9994449      
0.35              299.9994931       299.9994931       299.9994931      
0.36              299.9995373       299.9995373       299.9995373      
0.37              299.9995777       299.9995777       299.9995777      
0.38              299.9996147       299.9996147       299.9996147      
0.39              299.9996485       299.9996485       299.9996485      
0.4               299.9996794       299.9996794       299.9996794      
0.41              299.9997077       299.9997077       299.9997077      
0.42              299.9997336       299.9997336       299.9997336      
0.43              299.9997573       299.9997573       299.9997573      
0.44              299.999779        299.999779        299.999779       
0.45              299.9997988       299.9997988       299.9997988      
0.46              299.9998169       299.9998169       299.9998169      
0.47              299.9998335       299.9998335       299.9998335      
0.48              299.9998487       299.9998487       299.9998487      
0.49              299.9998626       299.9998626       299.9998626      
0.5               299.9998753       299.9998753       299.9998753      
0.51              299.9998869       299.9998869       299.9998869      
0.52              299.9998976       299.9998976       299.9998976      
0.53              299.9999073       299.9999073       299.9999073      
0.54              299.9999162       299.9999162       299.9999162      
0.55              299.9999243       299.9999243       299.9999243      
0.56              299.9999318       299.9999318       299.9999318      
0.57              299.9999386       299.9999386       299.9999386      
0.58              299.9999448       299.9999448       299.9999448      
0.59              299.9999505       299.9999505       299.9999505      
0.6               299.9999558       299.9999558       299.9999558      
0.61              299.9999605       299.9999605       299.9999605      
0.62              299.9999649       299.9999649       299.9999649      
0.63              299.9999689       299.9999689       299.9999689      
0.64              299.9999726       299.9999726       299.9999726      
0.65              299.9999759       299.9999759       299.9999759      
0.66              299.999979        299.999979        299.999979       
0.67              299.9999818       299.9999818       299.9999818      
0.68              299.9999843       299.9999843       299.9999843      
0.69              299.9999867       299.9999867       299.9999867      
0.7               299.9999888       299.9999888       299.9999888      
0.71              299.9999908       299.9999908       299.9999908      
0.72              299.9999926       299.9999926       299.9999926      
0.73              299.9999942       299.9999942       299.9999942      
0.74              299.9999957       299.9999957       299.9999957      
0.75              299.9999971       299.9999971       299.9999971      
0.76              299.9999983       299.9999983       299.9999983      
0.77              299.9999995       299.9999995       299.9999995      
0.78              300.0000005       300.0000005       300.0000005      
0.79              300.0000015       300.0000015       300.0000015      
0.8               300.0000024       300.0000024       300.0000024      
0.81              300.0000032       300.0000032       300.0000032      
0.82              300.0000039       300.0000039       300.0000039      
0.83              300.0000046       300.0000046       300.0000046      
0.84              300.0000052       300.0000052       300.0000052      
0.85              300.0000058       300.0000058       300.0000058      
0.86              300.0000063       300.0000063       300.0000063      
0.87              300.0000068       300.0000068       300.0000068      
0.88              300.0000072       300.0000072       300.0000072      
0.89              300.0000076       300.0000076       300.0000076      
0.9               300.0000079       300.0000079       300.0000079      
0.91              300.0000083       300.0000083       300.0000083      
0.92              300.0000086       300.0000086       300.0000086      
0.93              300.0000089       300.0000089       300.0000089      
0.94              300.0000091       300.0000091       300.0000091      
0.95              300.0000093       300.0000093       300.0000093      
0.96              300.0000096       300.0000096       300.0000096      
0.97              300.0000097       300.0000097       300.0000097      
0.98              300.0000099       300.0000099       300.0000099      
0.99              300.0000101       300.0000101       300.0000101      
1                 300.0000102       300.0000102       300.0000102      
