# Probe 0 (-0.2 -0.2 0)
# Probe 1 (0 0 0)
# Probe 2 (0.2 0.2 0)
# Time            0                 1                 2                
0                 (8 0 0)           (8 0 0)           (8 0 0)          
0.01              (8.322853059 8.688741344e-18 0) (8.322853059 8.688741344e-18 0) (8.322853059 8.688741344e-18 0)
0.02              (8.500253091 -7.465553253e-10 0) (8.500253091 -7.465553253e-10 0) (8.500253091 -7.465553253e-10 0)
0.03              (8.573276749 -8.304683471e-10 0) (8.573276749 -8.304683471e-10 0) (8.573276749 -8.304683471e-10 0)
0.04              (8.604233931 -6.627645694e-10 0) (8.604233931 -6.627645694e-10 0) (8.604233931 -6.627645694e-10 0)
0.05              (8.618092051 -4.057258369e-10 0) (8.618092051 -4.057258369e-10 0) (8.618092051 -4.057258369e-10 0)
0.06              (8.624340555 -1.241172686e-10 0) (8.624340555 -1.241172686e-10 0) (8.624340555 -1.241172686e-10 0)
0.07              (8.627138425 1.545222025e-10 0) (8.627138425 1.545222025e-10 0) (8.627138425 1.545222025e-10 0)
0.08              (8.628388409 4.189166844e-10 0) (8.628388409 4.189166844e-10 0) (8.628388409 4.189166844e-10 0)
0.09              (8.628947771 6.651107628e-10 0) (8.628947771 6.651107628e-10 0) (8.628947771 6.651107628e-10 0)
0.1               (8.629198811 8.923453671e-10 0) (8.629198811 8.923453671e-10 0) (8.629198811 8.923453671e-10 0)
0.11              (8.629312018 1.101199238e-09 0) (8.629312018 1.101199238e-09 0) (8.629312018 1.101199238e-09 0)
0.12              (8.629363553 1.292769244e-09 0) (8.629363553 1.292769244e-09 0) (8.629363553 1.292769244e-09 0)
0.13              (8.629387456 1.468312445e-09 0) (8.629387456 1.468312445e-09 0) (8.629387456 1.468312445e-09 0)
0.14              (8.62939894 1.629092517e-09 0) (8.62939894 1.629092517e-09 0) (8.62939894 1.629092517e-09 0)
0.15              (8.629404809 1.776316636e-09 0) (8.629404809 1.776316636e-09 0) (8.629404809 1.776316636e-09 0)
0.16              (8.629408106 1.911112452e-09 0) (8.629408106 1.911112452e-09 0) (8.629408106 1.911112452e-09 0)
0.17              (8.629410197 2.034522289e-09 0) (8.629410197 2.034522289e-09 0) (8.629410197 2.034522289e-09 0)
0.18              (8.629411697 2.147504844e-09 0) (8.629411697 2.147504844e-09 0) (8.629411697 2.147504844e-09 0)
0.19              (8.629412885 2.250939827e-09 0) (8.629412885 2.250939827e-09 0) (8.629412885 2.250939827e-09 0)
0.2               (8.62941389 2.345633433e-09 0) (8.62941389 2.345633433e-09 0) (8.62941389 2.345633433e-09 0)
0.21              (8.629414772 2.43232415e-09 0) (8.629414772 2.43232415e-09 0) (8.629414772 2.43232415e-09 0)
0.22              (8.629415563 2.511688218e-09 0) (8.629415563 2.511688218e-09 0) (8.629415563 2.511688218e-09 0)
0.23              (8.62941628 2.584344784e-09 0) (8.62941628 2.584344784e-09 0) (8.62941628 2.584344784e-09 0)
0.24              (8.629416932 2.650860722e-09 0) (8.629416932 2.650860722e-09 0) (8.629416932 2.650860722e-09 0)
0.25              (8.629417528 2.711755016e-09 0) (8.629417528 2.711755016e-09 0) (8.629417528 2.711755016e-09 0)
0.26              (8.629418072 2.767502768e-09 0) (8.629418072 2.767502768e-09 0) (8.629418072 2.767502768e-09 0)
0.27              (8.629418569 2.818538949e-09 0) (8.629418569 2.818538949e-09 0) (8.629418569 2.818538949e-09 0)
0.28              (8.629419024 2.865261745e-09 0) (8.629419024 2.865261745e-09 0) (8.629419024 2.865261745e-09 0)
0.29              (8.62941944 2.908035736e-09 0) (8.62941944 2.908035736e-09 0) (8.62941944 2.908035736e-09 0)
0.3               (8.629419821 2.947194645e-09 0) (8.629419821 2.947194645e-09 0) (8.629419821 2.947194645e-09 0)
0.31              (8.62942017 2.983044004e-09 0) (8.62942017 2.983044004e-09 0) (8.62942017 2.983044004e-09 0)
0.32              (8.629420488 3.015863529e-09 0) (8.629420488 3.015863529e-09 0) (8.629420488 3.015863529e-09 0)
0.33              (8.62942078 3.045909265e-09 0) (8.62942078 3.045909265e-09 0) (8.62942078 3.045909265e-09 0)
0.34              (8.629421046 3.073415661e-09 0) (8.629421046 3.073415661e-09 0) (8.629421046 3.073415661e-09 0)
0.35              (8.62942129 3.098597326e-09 0) (8.62942129 3.098597326e-09 0) (8.62942129 3.098597326e-09 0)
0.36              (8.629421513 3.121650742e-09 0) (8.629421513 3.121650742e-09 0) (8.629421513 3.121650742e-09 0)
0.37              (8.629421717 3.142755785e-09 0) (8.629421717 3.142755785e-09 0) (8.629421717 3.142755785e-09 0)
0.38              (8.629421904 3.162077113e-09 0) (8.629421904 3.162077113e-09 0) (8.629421904 3.162077113e-09 0)
0.39              (8.629422075 3.179765477e-09 0) (8.629422075 3.179765477e-09 0) (8.629422075 3.179765477e-09 0)
0.4               (8.629422231 3.195958888e-09 0) (8.629422231 3.195958888e-09 0) (8.629422231 3.195958888e-09 0)
0.41              (8.629422374 3.210783694e-09 0) (8.629422374 3.210783694e-09 0) (8.629422374 3.210783694e-09 0)
0.42              (8.629422505 3.224355565e-09 0) (8.629422505 3.224355565e-09 0) (8.629422505 3.224355565e-09 0)
0.43              (8.629422624 3.236780395e-09 0) (8.629422624 3.236780395e-09 0) (8.629422624 3.236780395e-09 0)
0.44              (8.629422734 3.248155131e-09 0) (8.629422734 3.248155131e-09 0) (8.629422734 3.248155131e-09 0)
0.45              (8.629422834 3.258568508e-09 0) (8.629422834 3.258568508e-09 0) (8.629422834 3.258568508e-09 0)
0.46              (8.629422925 3.268101805e-09 0) (8.629422925 3.268101805e-09 0) (8.629422925 3.268101805e-09 0)
0.47              (8.629423009 3.276829372e-09 0) (8.629423009 3.276829372e-09 0) (8.629423009 3.276829372e-09 0)
0.48              (8.629423085 3.28481932e-09 0) (8.629423085 3.28481932e-09 0) (8.629423085 3.28481932e-09 0)
0.49              (8.629423155 3.292133985e-09 0) (8.629423155 3.292133985e-09 0) (8.629423155 3.292133985e-09 0)
0.5               (8.629423219 3.298830443e-09 0) (8.629423219 3.298830443e-09 0) (8.629423219 3.298830443e-09 0)
0.51              (8.629423278 3.304960933e-09 0) (8.629423278 3.304960933e-09 0) (8.629423278 3.304960933e-09 0)
0.52              (8.629423332 3.310573301e-09 0) (8.629423332 3.310573301e-09 0) (8.629423332 3.310573301e-09 0)
0.53              (8.629423381 3.315711317e-09 0) (8.629423381 3.315711317e-09 0) (8.629423381 3.315711317e-09 0)
0.54              (8.629423425 3.320415086e-09 0) (8.629423425 3.320415086e-09 0) (8.629423425 3.320415086e-09 0)
0.55              (8.629423466 3.324721307e-09 0) (8.629423466 3.324721307e-09 0) (8.629423466 3.324721307e-09 0)
0.56              (8.629423504 3.328663594e-09 0) (8.629423504 3.328663594e-09 0) (8.629423504 3.328663594e-09 0)
0.57              (8.629423538 3.332272695e-09 0) (8.629423538 3.332272695e-09 0) (8.629423538 3.332272695e-09 0)
0.58              (8.62942357 3.335576759e-09 0) (8.62942357 3.335576759e-09 0) (8.62942357 3.335576759e-09 0)
0.59              (8.629423598 3.338601573e-09 0) (8.629423598 3.338601573e-09 0) (8.629423598 3.338601573e-09 0)
0.6               (8.629423624 3.34137073e-09 0) (8.629423624 3.34137073e-09 0) (8.629423624 3.34137073e-09 0)
0.61              (8.629423648 3.34390586e-09 0) (8.629423648 3.34390586e-09 0) (8.629423648 3.34390586e-09 0)
0.62              (8.62942367 3.346226716e-09 0) (8.62942367 3.346226716e-09 0) (8.62942367 3.346226716e-09 0)
0.63              (8.62942369 3.348351441e-09 0) (8.62942369 3.348351441e-09 0) (8.62942369 3.348351441e-09 0)
0.64              (8.629423709 3.350296592e-09 0) (8.629423709 3.350296592e-09 0) (8.629423709 3.350296592e-09 0)
0.65              (8.629423726 3.352077329e-09 0) (8.629423726 3.352077329e-09 0) (8.629423726 3.352077329e-09 0)
0.66              (8.629423741 3.353707564e-09 0) (8.629423741 3.353707564e-09 0) (8.629423741 3.353707564e-09 0)
0.67              (8.629423755 3.355200015e-09 0) (8.629423755 3.355200015e-09 0) (8.629423755 3.355200015e-09 0)
0.68              (8.629423768 3.356566336e-09 0) (8.629423768 3.356566336e-09 0) (8.629423768 3.356566336e-09 0)
0.69              (8.62942378 3.357817178e-09 0) (8.62942378 3.357817178e-09 0) (8.62942378 3.357817178e-09 0)
0.7               (8.62942379 3.358962299e-09 0) (8.62942379 3.358962299e-09 0) (8.62942379 3.358962299e-09 0)
0.71              (8.6294238 3.360010635e-09 0) (8.6294238 3.360010635e-09 0) (8.6294238 3.360010635e-09 0)
0.72              (8.629423809 3.360970374e-09 0) (8.629423809 3.360970374e-09 0) (8.629423809 3.360970374e-09 0)
0.73              (8.629423817 3.361848994e-09 0) (8.629423817 3.361848994e-09 0) (8.629423817 3.361848994e-09 0)
0.74              (8.629423825 3.36265336e-09 0) (8.629423825 3.36265336e-09 0) (8.629423825 3.36265336e-09 0)
0.75              (8.629423832 3.36338973e-09 0) (8.629423832 3.36338973e-09 0) (8.629423832 3.36338973e-09 0)
0.76              (8.629423838 3.364063867e-09 0) (8.629423838 3.364063867e-09 0) (8.629423838 3.364063867e-09 0)
0.77              (8.629423844 3.364681014e-09 0) (8.629423844 3.364681014e-09 0) (8.629423844 3.364681014e-09 0)
0.78              (8.629423849 3.365246021e-09 0) (8.629423849 3.365246021e-09 0) (8.629423849 3.365246021e-09 0)
0.79              (8.629423854 3.365763261e-09 0) (8.629423854 3.365763261e-09 0) (8.629423854 3.365763261e-09 0)
0.8               (8.629423858 3.366236804e-09 0) (8.629423858 3.366236804e-09 0) (8.629423858 3.366236804e-09 0)
0.81              (8.629423862 3.36667031e-09 0) (8.629423862 3.36667031e-09 0) (8.629423862 3.36667031e-09 0)
0.82              (8.629423866 3.367067188e-09 0) (8.629423866 3.367067188e-09 0) (8.629423866 3.367067188e-09 0)
0.83              (8.629423869 3.367430524e-09 0) (8.629423869 3.367430524e-09 0) (8.629423869 3.367430524e-09 0)
0.84              (8.629423873 3.367763154e-09 0) (8.629423873 3.367763154e-09 0) (8.629423873 3.367763154e-09 0)
0.85              (8.629423875 3.368067663e-09 0) (8.629423875 3.368067663e-09 0) (8.629423875 3.368067663e-09 0)
0.86              (8.629423878 3.368346429e-09 0) (8.629423878 3.368346429e-09 0) (8.629423878 3.368346429e-09 0)
0.87              (8.62942388 3.368601627e-09 0) (8.62942388 3.368601627e-09 0) (8.62942388 3.368601627e-09 0)
0.88              (8.629423882 3.368835257e-09 0) (8.629423882 3.368835257e-09 0) (8.629423882 3.368835257e-09 0)
0.89              (8.629423884 3.369049151e-09 0) (8.629423884 3.369049151e-09 0) (8.629423884 3.369049151e-09 0)
0.9               (8.629423886 3.369244959e-09 0) (8.629423886 3.369244959e-09 0) (8.629423886 3.369244959e-09 0)
0.91              (8.629423888 3.369424228e-09 0) (8.629423888 3.369424228e-09 0) (8.629423888 3.369424228e-09 0)
0.92              (8.629423889 3.369588346e-09 0) (8.629423889 3.369588346e-09 0) (8.629423889 3.369588346e-09 0)
0.93              (8.629423891 3.369738585e-09 0) (8.629423891 3.369738585e-09 0) (8.629423891 3.369738585e-09 0)
0.94              (8.629423892 3.369876136e-09 0) (8.629423892 3.369876136e-09 0) (8.629423892 3.369876136e-09 0)
0.95              (8.629423893 3.370002061e-09 0) (8.629423893 3.370002061e-09 0) (8.629423893 3.370002061e-09 0)
0.96              (8.629423894 3.370117344e-09 0) (8.629423894 3.370117344e-09 0) (8.629423894 3.370117344e-09 0)
0.97              (8.629423895 3.370222867e-09 0) (8.629423895 3.370222867e-09 0) (8.629423895 3.370222867e-09 0)
0.98              (8.629423896 3.370319481e-09 0) (8.629423896 3.370319481e-09 0) (8.629423896 3.370319481e-09 0)
0.99              (8.629423897 3.370407929e-09 0) (8.629423897 3.370407929e-09 0) (8.629423897 3.370407929e-09 0)
1                 (8.629423898 3.370488911e-09 0) (8.629423898 3.370488911e-09 0) (8.629423898 3.370488911e-09 0)
