/*--------------------------------*- C++ -*----------------------------------*\
  =========                 |
  \\      /  F ield         | OpenFOAM: The Open Source CFD Toolbox
   \\    /   O peration     | Website:  https://openfoam.org
    \\  /    A nd           | Version:  12
     \\/     M anipulation  |
\*---------------------------------------------------------------------------*/
FoamFile
{
    format      ascii;
    class       volScalarField;
    location    "11.26";
    object      p;
}
// * * * * * * * * * * * * * * * * * * * * * * * * * * * * * * * * * * * * * //

dimensions      [1 -1 -2 0 0 0 0];

internalField   nonuniform List<scalar> 
3829
(
-616.144
-616.143
-616.142
-616.141
-616.138
-616.135
-616.132
-616.127
-616.122
-616.117
-616.11
-616.103
-616.094
-616.085
-616.075
-616.063
-616.051
-616.037
-616.023
-616.007
-615.989
-615.971
-615.951
-615.929
-615.906
-615.881
-615.855
-615.826
-615.797
-615.765
-615.731
-615.696
-615.659
-615.619
-615.578
-615.535
-615.491
-615.444
-615.395
-615.345
-615.293
-615.24
-615.185
-615.129
-615.072
-615.014
-614.956
-614.897
-614.838
-614.78
-614.721
-614.664
-614.608
-614.553
-614.5
-614.449
-614.401
-614.356
-614.314
-614.276
-614.242
-614.212
-614.188
-614.168
-614.152
-614.142
-614.137
-614.138
-614.144
-614.156
-614.174
-614.196
-614.223
-614.254
-614.29
-614.329
-614.37
-614.414
-614.459
-614.505
-614.55
-614.595
-614.637
-614.677
-614.713
-614.744
-614.77
-614.79
-614.804
-614.81
-614.808
-614.798
-614.78
-614.754
-614.721
-614.681
-614.635
-614.584
-614.529
-614.47
-614.41
-614.35
-614.291
-614.234
-614.182
-614.136
-614.096
-614.065
-614.043
-614.031
-614.029
-614.038
-614.056
-614.084
-614.121
-614.164
-614.212
-614.264
-614.318
-614.37
-614.419
-614.463
-614.5
-614.528
-614.546
-614.552
-614.547
-614.53
-614.502
-614.466
-614.422
-614.372
-614.321
-614.27
-614.222
-614.18
-614.147
-614.124
-614.112
-614.117
-614.134
-614.162
-614.199
-614.243
-614.292
-614.341
-614.387
-614.426
-614.457
-614.475
-614.481
-614.473
-614.452
-614.421
-614.383
-614.339
-614.296
-614.255
-614.222
-614.198
-614.187
-614.187
-614.2
-614.222
-614.252
-614.286
-614.32
-614.351
-614.376
-614.394
-614.401
-614.4
-614.393
-614.381
-614.366
-614.352
-614.341
-614.333
-614.33
-614.33
-614.332
-614.334
-614.334
-614.331
-614.322
-614.308
-614.29
-614.27
-614.25
-614.232
-614.221
-614.216
-614.221
-614.234
-614.255
-614.281
-614.308
-614.333
-614.353
-614.364
-1774.55
-1774.55
-1774.55
-1774.55
-1774.55
-1774.55
-1774.54
-1774.54
-1774.53
-1774.53
-1774.52
-1774.52
-1774.51
-1774.5
-1774.49
-1774.48
-1774.47
-1774.46
-1774.45
-1774.43
-1774.42
-1774.4
-1774.38
-1774.36
-1774.34
-1774.31
-1774.29
-1774.26
-1774.23
-1774.19
-1774.16
-1774.12
-1774.08
-1774.04
-1774
-1773.95
-1773.9
-1773.85
-1773.8
-1773.75
-1773.69
-1773.63
-1773.57
-1773.51
-1773.45
-1773.38
-1773.32
-1773.25
-1773.18
-1773.12
-1773.05
-1772.99
-1772.92
-1772.86
-1772.8
-1772.74
-1772.69
-1772.64
-1772.59
-1772.55
-1772.51
-1772.48
-1772.45
-1772.43
-1772.41
-1772.4
-1772.4
-1772.41
-1772.42
-1772.43
-1772.46
-1772.49
-1772.52
-1772.56
-1772.61
-1772.66
-1772.71
-1772.77
-1772.83
-1772.88
-1772.94
-1773
-1773.05
-1773.1
-1773.14
-1773.18
-1773.21
-1773.24
-1773.26
-1773.26
-1773.26
-1773.25
-1773.23
-1773.2
-1773.16
-1773.11
-1773.05
-1772.99
-1772.92
-1772.85
-1772.78
-1772.7
-1772.63
-1772.57
-1772.5
-1772.45
-1772.4
-1772.37
-1772.34
-1772.33
-1772.33
-1772.34
-1772.37
-1772.4
-1772.45
-1772.5
-1772.56
-1772.63
-1772.69
-1772.76
-1772.82
-1772.87
-1772.92
-1772.95
-1772.97
-1772.98
-1772.97
-1772.95
-1772.91
-1772.87
-1772.81
-1772.75
-1772.69
-1772.63
-1772.57
-1772.52
-1772.48
-1772.45
-1772.44
-1772.44
-1772.47
-1772.5
-1772.55
-1772.6
-1772.66
-1772.72
-1772.78
-1772.82
-1772.86
-1772.88
-1772.89
-1772.88
-1772.85
-1772.81
-1772.76
-1772.71
-1772.66
-1772.61
-1772.57
-1772.54
-1772.53
-1772.53
-1772.55
-1772.58
-1772.61
-1772.66
-1772.7
-1772.73
-1772.76
-1772.78
-1772.79
-1772.78
-1772.77
-1772.75
-1772.74
-1772.72
-1772.7
-1772.7
-1772.69
-1772.7
-1772.7
-1772.71
-1772.71
-1772.71
-1772.7
-1772.68
-1772.66
-1772.64
-1772.62
-1772.6
-1772.58
-1772.58
-1772.58
-1772.6
-1772.62
-1772.65
-1772.68
-1772.71
-1772.73
-1772.74
-2800.82
-2800.82
-2800.82
-2800.81
-2800.81
-2800.81
-2800.81
-2800.81
-2800.8
-2800.8
-2800.8
-2800.79
-2800.78
-2800.78
-2800.77
-2800.76
-2800.75
-2800.74
-2800.73
-2800.72
-2800.7
-2800.68
-2800.67
-2800.65
-2800.62
-2800.6
-2800.57
-2800.55
-2800.51
-2800.48
-2800.44
-2800.41
-2800.36
-2800.32
-2800.27
-2800.22
-2800.17
-2800.11
-2800.05
-2799.99
-2799.92
-2799.85
-2799.78
-2799.7
-2799.63
-2799.55
-2799.47
-2799.39
-2799.31
-2799.23
-2799.15
-2799.06
-2798.99
-2798.91
-2798.83
-2798.76
-2798.7
-2798.63
-2798.58
-2798.53
-2798.48
-2798.44
-2798.41
-2798.39
-2798.37
-2798.36
-2798.37
-2798.38
-2798.4
-2798.42
-2798.46
-2798.5
-2798.56
-2798.62
-2798.68
-2798.75
-2798.83
-2798.9
-2798.98
-2799.06
-2799.14
-2799.22
-2799.29
-2799.36
-2799.42
-2799.47
-2799.52
-2799.55
-2799.57
-2799.58
-2799.58
-2799.56
-2799.53
-2799.49
-2799.44
-2799.37
-2799.3
-2799.21
-2799.12
-2799.03
-2798.93
-2798.84
-2798.74
-2798.65
-2798.57
-2798.5
-2798.44
-2798.39
-2798.36
-2798.35
-2798.36
-2798.38
-2798.41
-2798.47
-2798.53
-2798.61
-2798.69
-2798.78
-2798.87
-2798.96
-2799.04
-2799.11
-2799.17
-2799.21
-2799.24
-2799.24
-2799.23
-2799.2
-2799.15
-2799.09
-2799.01
-2798.93
-2798.84
-2798.76
-2798.68
-2798.61
-2798.56
-2798.53
-2798.52
-2798.53
-2798.55
-2798.6
-2798.67
-2798.74
-2798.82
-2798.9
-2798.97
-2799.04
-2799.08
-2799.11
-2799.12
-2799.1
-2799.06
-2799.01
-2798.94
-2798.87
-2798.8
-2798.74
-2798.69
-2798.65
-2798.64
-2798.65
-2798.67
-2798.71
-2798.76
-2798.82
-2798.87
-2798.91
-2798.95
-2798.97
-2798.97
-2798.96
-2798.95
-2798.92
-2798.89
-2798.87
-2798.85
-2798.85
-2798.85
-2798.85
-2798.86
-2798.87
-2798.88
-2798.88
-2798.87
-2798.85
-2798.83
-2798.8
-2798.77
-2798.74
-2798.73
-2798.72
-2798.73
-2798.74
-2798.77
-2798.81
-2798.84
-2798.88
-2798.91
-2798.92
-3709.91
-3709.91
-3709.91
-3709.91
-3709.91
-3709.91
-3709.91
-3709.91
-3709.91
-3709.91
-3709.91
-3709.91
-3709.91
-3709.91
-3709.9
-3709.9
-3709.9
-3709.89
-3709.88
-3709.88
-3709.87
-3709.86
-3709.84
-3709.83
-3709.81
-3709.79
-3709.77
-3709.74
-3709.71
-3709.68
-3709.64
-3709.6
-3709.56
-3709.51
-3709.46
-3709.4
-3709.34
-3709.27
-3709.2
-3709.13
-3709.05
-3708.97
-3708.88
-3708.79
-3708.7
-3708.6
-3708.5
-3708.4
-3708.3
-3708.2
-3708.09
-3707.99
-3707.89
-3707.79
-3707.7
-3707.61
-3707.52
-3707.44
-3707.37
-3707.3
-3707.25
-3707.2
-3707.16
-3707.14
-3707.12
-3707.12
-3707.12
-3707.14
-3707.18
-3707.22
-3707.27
-3707.34
-3707.42
-3707.5
-3707.59
-3707.69
-3707.8
-3707.91
-3708.02
-3708.13
-3708.24
-3708.35
-3708.45
-3708.55
-3708.63
-3708.7
-3708.76
-3708.81
-3708.84
-3708.85
-3708.85
-3708.82
-3708.78
-3708.73
-3708.65
-3708.56
-3708.46
-3708.34
-3708.22
-3708.09
-3707.96
-3707.83
-3707.7
-3707.58
-3707.47
-3707.38
-3707.3
-3707.24
-3707.21
-3707.19
-3707.2
-3707.24
-3707.29
-3707.37
-3707.46
-3707.57
-3707.69
-3707.81
-3707.93
-3708.05
-3708.17
-3708.26
-3708.34
-3708.4
-3708.43
-3708.44
-3708.42
-3708.37
-3708.3
-3708.21
-3708.1
-3707.99
-3707.87
-3707.75
-3707.65
-3707.56
-3707.49
-3707.45
-3707.43
-3707.45
-3707.49
-3707.56
-3707.65
-3707.75
-3707.86
-3707.97
-3708.07
-3708.15
-3708.21
-3708.24
-3708.25
-3708.22
-3708.17
-3708.09
-3708.01
-3707.91
-3707.81
-3707.73
-3707.66
-3707.62
-3707.6
-3707.62
-3707.66
-3707.71
-3707.78
-3707.86
-3707.93
-3707.99
-3708.03
-3708.05
-3708.05
-3708.03
-3708
-3707.97
-3707.93
-3707.9
-3707.88
-3707.87
-3707.87
-3707.88
-3707.9
-3707.92
-3707.93
-3707.93
-3707.92
-3707.9
-3707.87
-3707.84
-3707.8
-3707.77
-3707.75
-3707.74
-3707.74
-3707.76
-3707.8
-3707.84
-3707.89
-3707.93
-3707.96
-3707.98
-4515.34
-4515.34
-4515.34
-4515.34
-4515.34
-4515.34
-4515.34
-4515.34
-4515.34
-4515.34
-4515.35
-4515.35
-4515.35
-4515.35
-4515.35
-4515.35
-4515.35
-4515.35
-4515.35
-4515.35
-4515.35
-4515.34
-4515.33
-4515.32
-4515.31
-4515.29
-4515.28
-4515.25
-4515.23
-4515.2
-4515.17
-4515.13
-4515.08
-4515.03
-4514.98
-4514.91
-4514.84
-4514.76
-4514.68
-4514.59
-4514.49
-4514.39
-4514.28
-4514.17
-4514.05
-4513.93
-4513.8
-4513.67
-4513.54
-4513.41
-4513.28
-4513.14
-4513.01
-4512.89
-4512.77
-4512.65
-4512.54
-4512.44
-4512.34
-4512.26
-4512.19
-4512.13
-4512.09
-4512.06
-4512.04
-4512.04
-4512.06
-4512.09
-4512.14
-4512.2
-4512.28
-4512.37
-4512.48
-4512.6
-4512.72
-4512.86
-4513.01
-4513.16
-4513.31
-4513.47
-4513.62
-4513.77
-4513.9
-4514.03
-4514.15
-4514.25
-4514.33
-4514.39
-4514.43
-4514.44
-4514.43
-4514.4
-4514.35
-4514.27
-4514.17
-4514.04
-4513.9
-4513.75
-4513.58
-4513.41
-4513.23
-4513.05
-4512.88
-4512.73
-4512.58
-4512.46
-4512.36
-4512.28
-4512.24
-4512.22
-4512.24
-4512.29
-4512.37
-4512.48
-4512.61
-4512.76
-4512.92
-4513.09
-4513.26
-4513.42
-4513.57
-4513.7
-4513.81
-4513.88
-4513.92
-4513.93
-4513.89
-4513.83
-4513.73
-4513.6
-4513.46
-4513.3
-4513.13
-4512.98
-4512.84
-4512.72
-4512.63
-4512.57
-4512.56
-4512.58
-4512.64
-4512.74
-4512.86
-4513
-4513.15
-4513.3
-4513.43
-4513.54
-4513.62
-4513.66
-4513.66
-4513.62
-4513.55
-4513.45
-4513.32
-4513.19
-4513.07
-4512.95
-4512.87
-4512.82
-4512.8
-4512.82
-4512.88
-4512.95
-4513.05
-4513.16
-4513.25
-4513.32
-4513.37
-4513.39
-4513.39
-4513.36
-4513.31
-4513.26
-4513.21
-4513.17
-4513.14
-4513.13
-4513.14
-4513.16
-4513.19
-4513.21
-4513.24
-4513.24
-4513.23
-4513.21
-4513.17
-4513.13
-4513.08
-4513.04
-4513.01
-4513
-4513
-4513.03
-4513.07
-4513.13
-4513.18
-4513.24
-4513.28
-4513.3
-5228.73
-5228.73
-5228.73
-5228.73
-5228.74
-5228.74
-5228.75
-5228.76
-5228.77
-5228.78
-5228.79
-5228.8
-5228.81
-5228.82
-5228.83
-5228.84
-5228.85
-5228.85
-5228.86
-5228.87
-5228.88
-5228.88
-5228.89
-5228.89
-5228.89
-5228.89
-5228.88
-5228.87
-5228.85
-5228.83
-5228.81
-5228.77
-5228.73
-5228.67
-5228.61
-5228.54
-5228.47
-5228.38
-5228.28
-5228.18
-5228.06
-5227.94
-5227.81
-5227.67
-5227.52
-5227.36
-5227.2
-5227.04
-5226.87
-5226.7
-5226.53
-5226.36
-5226.2
-5226.03
-5225.88
-5225.73
-5225.59
-5225.46
-5225.34
-5225.24
-5225.15
-5225.08
-5225.02
-5224.99
-5224.97
-5224.97
-5225
-5225.05
-5225.11
-5225.2
-5225.31
-5225.44
-5225.58
-5225.74
-5225.92
-5226.1
-5226.3
-5226.5
-5226.71
-5226.91
-5227.11
-5227.31
-5227.49
-5227.66
-5227.81
-5227.94
-5228.05
-5228.12
-5228.17
-5228.19
-5228.18
-5228.14
-5228.06
-5227.95
-5227.82
-5227.66
-5227.47
-5227.26
-5227.04
-5226.81
-5226.58
-5226.35
-5226.13
-5225.92
-5225.74
-5225.58
-5225.45
-5225.36
-5225.31
-5225.3
-5225.32
-5225.39
-5225.5
-5225.65
-5225.82
-5226.02
-5226.24
-5226.47
-5226.69
-5226.91
-5227.1
-5227.27
-5227.41
-5227.5
-5227.55
-5227.55
-5227.5
-5227.41
-5227.28
-5227.11
-5226.91
-5226.7
-5226.48
-5226.28
-5226.09
-5225.93
-5225.82
-5225.75
-5225.74
-5225.77
-5225.86
-5225.99
-5226.15
-5226.34
-5226.54
-5226.73
-5226.91
-5227.05
-5227.15
-5227.2
-5227.19
-5227.14
-5227.04
-5226.9
-5226.73
-5226.56
-5226.4
-5226.25
-5226.15
-5226.08
-5226.07
-5226.1
-5226.18
-5226.28
-5226.41
-5226.54
-5226.66
-5226.76
-5226.82
-5226.84
-5226.83
-5226.78
-5226.72
-5226.64
-5226.57
-5226.52
-5226.49
-5226.48
-5226.49
-5226.52
-5226.57
-5226.61
-5226.64
-5226.65
-5226.64
-5226.61
-5226.56
-5226.5
-5226.45
-5226.39
-5226.36
-5226.34
-5226.35
-5226.38
-5226.44
-5226.5
-5226.57
-5226.63
-5226.68
-5226.71
-5860.8
-5860.8
-5860.8
-5860.8
-5860.8
-5860.8
-5860.81
-5860.81
-5860.82
-5860.82
-5860.84
-5860.85
-5860.87
-5860.9
-5860.92
-5860.94
-5860.95
-5860.97
-5860.99
-5861.01
-5861.03
-5861.05
-5861.07
-5861.09
-5861.11
-5861.12
-5861.14
-5861.14
-5861.14
-5861.14
-5861.12
-5861.09
-5861.06
-5861.01
-5860.94
-5860.87
-5860.78
-5860.67
-5860.56
-5860.43
-5860.29
-5860.13
-5859.97
-5859.79
-5859.61
-5859.41
-5859.21
-5859
-5858.79
-5858.58
-5858.36
-5858.15
-5857.94
-5857.73
-5857.54
-5857.35
-5857.17
-5857.01
-5856.86
-5856.73
-5856.62
-5856.53
-5856.46
-5856.42
-5856.4
-5856.41
-5856.45
-5856.52
-5856.61
-5856.72
-5856.87
-5857.04
-5857.23
-5857.44
-5857.66
-5857.91
-5858.16
-5858.42
-5858.69
-5858.96
-5859.22
-5859.47
-5859.7
-5859.92
-5860.11
-5860.28
-5860.41
-5860.51
-5860.57
-5860.59
-5860.58
-5860.52
-5860.42
-5860.28
-5860.1
-5859.89
-5859.65
-5859.38
-5859.1
-5858.8
-5858.5
-5858.21
-5857.93
-5857.66
-5857.43
-5857.23
-5857.07
-5856.96
-5856.89
-5856.89
-5856.93
-5857.03
-5857.17
-5857.36
-5857.59
-5857.86
-5858.14
-5858.43
-5858.72
-5859
-5859.25
-5859.46
-5859.63
-5859.75
-5859.81
-5859.8
-5859.74
-5859.61
-5859.43
-5859.21
-5858.96
-5858.68
-5858.4
-5858.14
-5857.9
-5857.7
-5857.56
-5857.48
-5857.46
-5857.51
-5857.63
-5857.8
-5858.01
-5858.26
-5858.51
-5858.76
-5858.98
-5859.16
-5859.29
-5859.34
-5859.33
-5859.26
-5859.12
-5858.94
-5858.73
-5858.51
-5858.3
-5858.12
-5857.98
-5857.91
-5857.9
-5857.94
-5858.05
-5858.19
-5858.35
-5858.52
-5858.67
-5858.79
-5858.86
-5858.88
-5858.85
-5858.79
-5858.7
-5858.61
-5858.52
-5858.45
-5858.41
-5858.4
-5858.42
-5858.47
-5858.53
-5858.58
-5858.62
-5858.64
-5858.63
-5858.59
-5858.54
-5858.47
-5858.39
-5858.33
-5858.28
-5858.26
-5858.28
-5858.31
-5858.38
-5858.46
-5858.54
-5858.61
-5858.67
-5858.71
-6420.7
-6420.7
-6420.7
-6420.7
-6420.71
-6420.72
-6420.74
-6420.77
-6420.81
-6420.86
-6420.89
-6420.91
-6420.92
-6420.93
-6420.93
-6420.93
-6420.94
-6420.96
-6420.97
-6421
-6421.03
-6421.07
-6421.11
-6421.16
-6421.21
-6421.25
-6421.29
-6421.31
-6421.34
-6421.35
-6421.35
-6421.33
-6421.3
-6421.26
-6421.2
-6421.12
-6421.02
-6420.9
-6420.76
-6420.61
-6420.44
-6420.25
-6420.04
-6419.83
-6419.6
-6419.36
-6419.11
-6418.85
-6418.59
-6418.32
-6418.05
-6417.79
-6417.53
-6417.27
-6417.03
-6416.79
-6416.57
-6416.37
-6416.19
-6416.03
-6415.9
-6415.79
-6415.71
-6415.66
-6415.65
-6415.66
-6415.71
-6415.8
-6415.92
-6416.07
-6416.25
-6416.46
-6416.71
-6416.97
-6417.26
-6417.57
-6417.89
-6418.22
-6418.56
-6418.89
-6419.22
-6419.53
-6419.83
-6420.1
-6420.34
-6420.54
-6420.71
-6420.83
-6420.91
-6420.93
-6420.9
-6420.83
-6420.7
-6420.52
-6420.29
-6420.02
-6419.72
-6419.39
-6419.03
-6418.66
-6418.29
-6417.92
-6417.57
-6417.24
-6416.95
-6416.7
-6416.51
-6416.38
-6416.3
-6416.3
-6416.36
-6416.49
-6416.68
-6416.92
-6417.22
-6417.55
-6417.9
-6418.27
-6418.63
-6418.98
-6419.29
-6419.56
-6419.77
-6419.91
-6419.98
-6419.97
-6419.88
-6419.71
-6419.48
-6419.2
-6418.88
-6418.53
-6418.19
-6417.86
-6417.56
-6417.31
-6417.14
-6417.04
-6417.02
-6417.09
-6417.24
-6417.46
-6417.74
-6418.04
-6418.36
-6418.67
-6418.95
-6419.17
-6419.32
-6419.39
-6419.37
-6419.27
-6419.09
-6418.86
-6418.6
-6418.32
-6418.06
-6417.84
-6417.68
-6417.59
-6417.58
-6417.65
-6417.78
-6417.96
-6418.17
-6418.38
-6418.56
-6418.7
-6418.78
-6418.8
-6418.76
-6418.68
-6418.56
-6418.44
-6418.32
-6418.24
-6418.19
-6418.19
-6418.22
-6418.28
-6418.36
-6418.43
-6418.48
-6418.51
-6418.5
-6418.46
-6418.39
-6418.3
-6418.21
-6418.13
-6418.08
-6418.06
-6418.07
-6418.12
-6418.19
-6418.28
-6418.38
-6418.47
-6418.54
-6418.58
-6916.76
-6916.76
-6916.74
-6916.72
-6916.69
-6916.64
-6916.58
-6916.51
-6916.51
-6916.51
-6916.51
-6916.51
-6916.51
-6916.51
-6916.53
-6916.56
-6916.59
-6916.64
-6916.7
-6916.76
-6916.84
-6916.92
-6917.02
-6917.12
-6917.24
-6917.37
-6917.49
-6917.59
-6917.7
-6917.77
-6917.8
-6917.81
-6917.79
-6917.74
-6917.67
-6917.58
-6917.46
-6917.32
-6917.15
-6916.96
-6916.75
-6916.52
-6916.27
-6916
-6915.72
-6915.43
-6915.12
-6914.81
-6914.49
-6914.16
-6913.84
-6913.52
-6913.2
-6912.89
-6912.59
-6912.31
-6912.04
-6911.8
-6911.58
-6911.39
-6911.22
-6911.1
-6911
-6910.95
-6910.93
-6910.95
-6911.02
-6911.13
-6911.28
-6911.47
-6911.69
-6911.96
-6912.26
-6912.59
-6912.95
-6913.33
-6913.72
-6914.13
-6914.54
-6914.95
-6915.35
-6915.73
-6916.09
-6916.42
-6916.71
-6916.96
-6917.16
-6917.31
-6917.39
-6917.42
-6917.38
-6917.28
-6917.12
-6916.9
-6916.62
-6916.29
-6915.92
-6915.51
-6915.07
-6914.62
-6914.16
-6913.71
-6913.29
-6912.89
-6912.54
-6912.24
-6912.01
-6911.85
-6911.77
-6911.77
-6911.86
-6912.02
-6912.26
-6912.56
-6912.93
-6913.33
-6913.77
-6914.22
-6914.67
-6915.09
-6915.47
-6915.79
-6916.04
-6916.21
-6916.28
-6916.26
-6916.15
-6915.94
-6915.66
-6915.31
-6914.91
-6914.49
-6914.06
-6913.66
-6913.3
-6913
-6912.79
-6912.68
-6912.66
-6912.76
-6912.94
-6913.22
-6913.55
-6913.93
-6914.33
-6914.7
-6915.04
-6915.3
-6915.48
-6915.56
-6915.53
-6915.4
-6915.18
-6914.89
-6914.57
-6914.23
-6913.91
-6913.64
-6913.45
-6913.35
-6913.35
-6913.44
-6913.61
-6913.83
-6914.09
-6914.34
-6914.56
-6914.73
-6914.82
-6914.84
-6914.78
-6914.67
-6914.53
-6914.37
-6914.23
-6914.13
-6914.07
-6914.07
-6914.12
-6914.2
-6914.29
-6914.39
-6914.45
-6914.48
-6914.47
-6914.42
-6914.34
-6914.24
-6914.13
-6914.04
-6913.97
-6913.95
-6913.96
-6914.02
-6914.1
-6914.21
-6914.33
-6914.43
-6914.51
-6914.55
-7356.39
-7356.39
-7356.4
-7356.41
-7356.44
-7356.49
-7356.58
-7356.62
-7357.13
-7357.04
-7356.98
-7356.94
-7356.9
-7356.84
-7356.79
-7356.75
-7356.72
-7356.7
-7356.71
-7356.73
-7356.78
-7356.86
-7356.96
-7357.07
-7357.2
-7357.35
-7357.56
-7357.4
-7357.55
-7357.61
-7357.68
-7357.71
-7357.72
-7357.68
-7357.61
-7357.51
-7357.37
-7357.19
-7356.99
-7356.76
-7356.51
-7356.23
-7355.93
-7355.61
-7355.27
-7354.92
-7354.55
-7354.18
-7353.8
-7353.41
-7353.02
-7352.63
-7352.26
-7351.89
-7351.53
-7351.19
-7350.88
-7350.59
-7350.33
-7350.1
-7349.91
-7349.76
-7349.65
-7349.59
-7349.57
-7349.6
-7349.69
-7349.82
-7350
-7350.23
-7350.51
-7350.83
-7351.19
-7351.59
-7352.02
-7352.47
-7352.95
-7353.44
-7353.93
-7354.42
-7354.9
-7355.35
-7355.78
-7356.18
-7356.52
-7356.82
-7357.05
-7357.22
-7357.33
-7357.35
-7357.31
-7357.18
-7356.98
-7356.71
-7356.38
-7355.98
-7355.53
-7355.04
-7354.51
-7353.97
-7353.43
-7352.89
-7352.39
-7351.92
-7351.5
-7351.15
-7350.88
-7350.7
-7350.61
-7350.61
-7350.72
-7350.92
-7351.21
-7351.59
-7352.02
-7352.52
-7353.04
-7353.58
-7354.11
-7354.62
-7355.07
-7355.45
-7355.74
-7355.94
-7356.02
-7355.99
-7355.85
-7355.59
-7355.25
-7354.83
-7354.35
-7353.84
-7353.33
-7352.85
-7352.42
-7352.07
-7351.82
-7351.69
-7351.68
-7351.8
-7352.03
-7352.36
-7352.77
-7353.22
-7353.69
-7354.14
-7354.54
-7354.85
-7355.06
-7355.14
-7355.1
-7354.94
-7354.67
-7354.33
-7353.94
-7353.53
-7353.15
-7352.84
-7352.62
-7352.51
-7352.51
-7352.63
-7352.83
-7353.11
-7353.41
-7353.71
-7353.97
-7354.16
-7354.27
-7354.28
-7354.21
-7354.07
-7353.89
-7353.69
-7353.53
-7353.41
-7353.35
-7353.36
-7353.42
-7353.52
-7353.63
-7353.74
-7353.83
-7353.86
-7353.85
-7353.79
-7353.69
-7353.57
-7353.45
-7353.34
-7353.27
-7353.24
-7353.26
-7353.32
-7353.42
-7353.54
-7353.67
-7353.79
-7353.88
-7353.93
-7745.85
-7745.87
-7745.91
-7745.97
-7746.05
-7746.18
-7746.36
-7746.75
-7747.4
-7746.36
-7745.86
-7745.51
-7745.26
-7745.08
-7744.96
-7744.89
-7744.86
-7744.87
-7744.92
-7744.99
-7745.11
-7745.26
-7745.46
-7745.73
-7746.07
-7746.52
-7747.36
-7747.47
-7747.67
-7747.78
-7747.82
-7747.81
-7747.76
-7747.66
-7747.53
-7747.37
-7747.19
-7746.97
-7746.73
-7746.45
-7746.15
-7745.82
-7745.47
-7745.09
-7744.69
-7744.28
-7743.85
-7743.41
-7742.96
-7742.5
-7742.05
-7741.6
-7741.15
-7740.72
-7740.3
-7739.91
-7739.54
-7739.2
-7738.9
-7738.63
-7738.41
-7738.24
-7738.11
-7738.04
-7738.03
-7738.07
-7738.17
-7738.33
-7738.55
-7738.82
-7739.15
-7739.53
-7739.96
-7740.43
-7740.93
-7741.47
-7742.03
-7742.6
-7743.18
-7743.75
-7744.31
-7744.85
-7745.35
-7745.81
-7746.21
-7746.56
-7746.83
-7747.03
-7747.14
-7747.17
-7747.11
-7746.96
-7746.72
-7746.4
-7746
-7745.53
-7745
-7744.42
-7743.81
-7743.17
-7742.54
-7741.91
-7741.32
-7740.77
-7740.29
-7739.89
-7739.58
-7739.37
-7739.27
-7739.28
-7739.42
-7739.66
-7740.01
-7740.45
-7740.97
-7741.55
-7742.17
-7742.8
-7743.42
-7744.01
-7744.54
-7744.98
-7745.32
-7745.54
-7745.63
-7745.59
-7745.41
-7745.11
-7744.7
-7744.2
-7743.63
-7743.04
-7742.44
-7741.88
-7741.38
-7740.98
-7740.69
-7740.54
-7740.54
-7740.68
-7740.96
-7741.35
-7741.83
-7742.37
-7742.92
-7743.44
-7743.9
-7744.26
-7744.5
-7744.59
-7744.54
-7744.34
-7744.02
-7743.62
-7743.16
-7742.68
-7742.24
-7741.88
-7741.63
-7741.51
-7741.52
-7741.66
-7741.91
-7742.23
-7742.59
-7742.94
-7743.24
-7743.46
-7743.57
-7743.58
-7743.48
-7743.31
-7743.1
-7742.86
-7742.67
-7742.54
-7742.47
-7742.49
-7742.56
-7742.68
-7742.82
-7742.96
-7743.05
-7743.1
-7743.08
-7743.01
-7742.9
-7742.76
-7742.62
-7742.5
-7742.42
-7742.38
-7742.4
-7742.47
-7742.59
-7742.72
-7742.87
-7743
-7743.1
-7743.16
-8090.54
-8090.52
-8090.49
-8090.43
-8090.34
-8090.26
-8090.03
-8090.07
-8092.83
-8092.83
-8093.05
-8093.1
-8093.16
-8093.15
-8093.09
-8092.97
-8092.81
-8092.6
-8092.35
-8092.07
-8091.75
-8091.4
-8091.01
-8090.6
-8090.17
-8089.71
-8089.23
-8088.73
-8088.22
-8087.7
-8087.18
-8086.65
-8086.13
-8085.62
-8085.12
-8084.64
-8084.19
-8083.77
-8083.38
-8083.03
-8082.73
-8082.48
-8082.28
-8082.14
-8082.06
-8082.05
-8082.1
-8082.22
-8082.4
-8082.66
-8082.98
-8083.36
-8083.8
-8084.3
-8084.84
-8085.43
-8086.05
-8086.69
-8087.35
-8088.02
-8088.68
-8089.33
-8089.94
-8090.52
-8091.04
-8091.51
-8091.9
-8092.21
-8092.43
-8092.56
-8092.58
-8092.51
-8092.33
-8092.05
-8091.68
-8091.21
-8090.67
-8090.06
-8089.39
-8088.68
-8087.95
-8087.22
-8086.5
-8085.82
-8085.2
-8084.65
-8084.19
-8083.84
-8083.6
-8083.49
-8083.52
-8083.68
-8083.96
-8084.37
-8084.89
-8085.49
-8086.16
-8086.87
-8087.61
-8088.32
-8089
-8089.6
-8090.1
-8090.49
-8090.74
-8090.83
-8090.78
-8090.57
-8090.21
-8089.73
-8089.15
-8088.5
-8087.81
-8087.13
-8086.48
-8085.91
-8085.45
-8085.13
-8084.96
-8084.97
-8085.14
-8085.46
-8085.92
-8086.47
-8087.09
-8087.73
-8088.33
-8088.86
-8089.27
-8089.53
-8089.63
-8089.56
-8089.33
-8088.96
-8088.49
-8087.96
-8087.4
-8086.9
-8086.5
-8086.21
-8086.08
-8086.1
-8086.27
-8086.56
-8086.94
-8087.35
-8087.75
-8088.1
-8088.34
-8088.46
-8088.46
-8088.34
-8088.14
-8087.9
-8087.61
-8087.4
-8087.25
-8087.18
-8087.19
-8087.29
-8087.43
-8087.59
-8087.75
-8087.86
-8087.91
-8087.9
-8087.82
-8087.69
-8087.53
-8087.37
-8087.24
-8087.14
-8087.1
-8087.13
-8087.21
-8087.33
-8087.49
-8087.65
-8087.79
-8087.91
-8087.97
-8396.2
-8396.19
-8396.19
-8396.18
-8396.18
-8396.21
-8396.15
-8396.29
-8399.88
-8399.73
-8399.77
-8399.69
-8399.6
-8399.49
-8399.35
-8399.17
-8398.96
-8398.71
-8398.42
-8398.09
-8397.72
-8397.31
-8396.87
-8396.41
-8395.91
-8395.38
-8394.84
-8394.27
-8393.69
-8393.1
-8392.51
-8391.91
-8391.32
-8390.74
-8390.18
-8389.64
-8389.12
-8388.65
-8388.21
-8387.81
-8387.47
-8387.19
-8386.97
-8386.81
-8386.73
-8386.71
-8386.77
-8386.91
-8387.13
-8387.42
-8387.79
-8388.22
-8388.73
-8389.29
-8389.91
-8390.58
-8391.28
-8392.02
-8392.77
-8393.52
-8394.27
-8395
-8395.7
-8396.35
-8396.94
-8397.46
-8397.9
-8398.25
-8398.5
-8398.64
-8398.66
-8398.57
-8398.37
-8398.05
-8397.62
-8397.09
-8396.47
-8395.77
-8395.01
-8394.21
-8393.38
-8392.55
-8391.74
-8390.97
-8390.27
-8389.65
-8389.14
-8388.74
-8388.48
-8388.37
-8388.41
-8388.59
-8388.92
-8389.39
-8389.98
-8390.67
-8391.43
-8392.24
-8393.08
-8393.89
-8394.65
-8395.32
-8395.89
-8396.32
-8396.6
-8396.7
-8396.63
-8396.38
-8395.98
-8395.43
-8394.77
-8394.02
-8393.24
-8392.46
-8391.73
-8391.09
-8390.57
-8390.22
-8390.04
-8390.05
-8390.25
-8390.62
-8391.14
-8391.78
-8392.48
-8393.2
-8393.88
-8394.47
-8394.93
-8395.22
-8395.33
-8395.24
-8394.97
-8394.55
-8394.01
-8393.41
-8392.77
-8392.22
-8391.76
-8391.45
-8391.3
-8391.33
-8391.53
-8391.87
-8392.3
-8392.77
-8393.23
-8393.61
-8393.88
-8394.01
-8394
-8393.86
-8393.62
-8393.34
-8393.02
-8392.78
-8392.61
-8392.53
-8392.56
-8392.67
-8392.84
-8393.02
-8393.2
-8393.33
-8393.38
-8393.37
-8393.28
-8393.13
-8392.96
-8392.78
-8392.63
-8392.53
-8392.48
-8392.51
-8392.6
-8392.74
-8392.91
-8393.08
-8393.24
-8393.37
-8393.43
-8667
-8666.99
-8666.99
-8666.99
-8666.99
-8667
-8666.96
-8667.02
-8671.27
-8671.16
-8671.2
-8671.12
-8671.03
-8670.9
-8670.72
-8670.51
-8670.26
-8669.96
-8669.62
-8669.25
-8668.83
-8668.37
-8667.88
-8667.35
-8666.79
-8666.2
-8665.59
-8664.96
-8664.31
-8663.65
-8662.98
-8662.31
-8661.65
-8661.01
-8660.38
-8659.77
-8659.2
-8658.66
-8658.18
-8657.74
-8657.36
-8657.04
-8656.8
-8656.63
-8656.53
-8656.52
-8656.59
-8656.75
-8657
-8657.33
-8657.74
-8658.23
-8658.8
-8659.43
-8660.13
-8660.87
-8661.66
-8662.49
-8663.33
-8664.17
-8665.01
-8665.82
-8666.6
-8667.32
-8667.98
-8668.56
-8669.05
-8669.44
-8669.71
-8669.86
-8669.88
-8669.78
-8669.54
-8669.18
-8668.7
-8668.1
-8667.4
-8666.62
-8665.77
-8664.87
-8663.95
-8663.02
-8662.12
-8661.26
-8660.48
-8659.79
-8659.23
-8658.79
-8658.51
-8658.39
-8658.44
-8658.65
-8659.03
-8659.56
-8660.22
-8660.99
-8661.85
-8662.75
-8663.69
-8664.59
-8665.44
-8666.19
-8666.82
-8667.3
-8667.6
-8667.71
-8667.62
-8667.34
-8666.88
-8666.26
-8665.51
-8664.68
-8663.81
-8662.94
-8662.12
-8661.41
-8660.84
-8660.44
-8660.25
-8660.27
-8660.5
-8660.92
-8661.51
-8662.22
-8663
-8663.82
-8664.57
-8665.23
-8665.73
-8666.06
-8666.17
-8666.06
-8665.75
-8665.27
-8664.67
-8664.01
-8663.28
-8662.67
-8662.17
-8661.82
-8661.67
-8661.71
-8661.94
-8662.33
-8662.81
-8663.34
-8663.84
-8664.27
-8664.57
-8664.71
-8664.68
-8664.52
-8664.25
-8663.92
-8663.57
-8663.3
-8663.11
-8663.03
-8663.06
-8663.19
-8663.38
-8663.59
-8663.8
-8663.93
-8664
-8663.98
-8663.88
-8663.72
-8663.52
-8663.33
-8663.16
-8663.05
-8663
-8663.03
-8663.13
-8663.28
-8663.47
-8663.66
-8663.83
-8663.97
-8664.04
-8906.89
-8906.89
-8906.89
-8906.89
-8906.89
-8906.9
-8906.88
-8906.91
-8911.89
-8911.78
-8911.77
-8911.68
-8911.56
-8911.39
-8911.19
-8910.94
-8910.65
-8910.32
-8909.94
-8909.51
-8909.05
-8908.54
-8907.99
-8907.4
-8906.78
-8906.13
-8905.45
-8904.75
-8904.04
-8903.31
-8902.57
-8901.84
-8901.11
-8900.39
-8899.7
-8899.03
-8898.4
-8897.81
-8897.27
-8896.79
-8896.37
-8896.03
-8895.76
-8895.57
-8895.47
-8895.46
-8895.54
-8895.72
-8896
-8896.36
-8896.82
-8897.37
-8897.99
-8898.7
-8899.47
-8900.3
-8901.17
-8902.08
-8903.01
-8903.94
-8904.86
-8905.76
-8906.61
-8907.41
-8908.14
-8908.77
-8909.31
-8909.73
-8910.02
-8910.19
-8910.21
-8910.09
-8909.82
-8909.42
-8908.88
-8908.22
-8907.45
-8906.58
-8905.64
-8904.65
-8903.63
-8902.61
-8901.62
-8900.67
-8899.81
-8899.06
-8898.44
-8897.97
-8897.66
-8897.53
-8897.59
-8897.84
-8898.26
-8898.85
-8899.58
-8900.44
-8901.38
-8902.38
-8903.42
-8904.42
-8905.35
-8906.18
-8906.87
-8907.38
-8907.71
-8907.82
-8907.72
-8907.4
-8906.89
-8906.2
-8905.38
-8904.46
-8903.49
-8902.53
-8901.63
-8900.85
-8900.22
-8899.79
-8899.59
-8899.61
-8899.87
-8900.35
-8901
-8901.79
-8902.65
-8903.56
-8904.38
-8905.1
-8905.65
-8906
-8906.12
-8905.99
-8905.65
-8905.11
-8904.44
-8903.71
-8902.92
-8902.25
-8901.7
-8901.32
-8901.16
-8901.21
-8901.47
-8901.9
-8902.44
-8903.02
-8903.58
-8904.04
-8904.37
-8904.51
-8904.48
-8904.29
-8903.98
-8903.62
-8903.24
-8902.93
-8902.73
-8902.64
-8902.69
-8902.83
-8903.05
-8903.28
-8903.51
-8903.66
-8903.73
-8903.7
-8903.59
-8903.42
-8903.21
-8903
-8902.81
-8902.69
-8902.65
-8902.68
-8902.78
-8902.95
-8903.14
-8903.35
-8903.53
-8903.68
-8903.76
-9119.42
-9119.42
-9119.42
-9119.42
-9119.42
-9119.42
-9119.41
-9119.43
-9125.08
-9124.98
-9124.94
-9124.83
-9124.69
-9124.5
-9124.27
-9123.99
-9123.67
-9123.3
-9122.88
-9122.41
-9121.89
-9121.33
-9120.73
-9120.09
-9119.41
-9118.7
-9117.96
-9117.2
-9116.41
-9115.62
-9114.81
-9114.01
-9113.21
-9112.43
-9111.67
-9110.95
-9110.26
-9109.61
-9109.03
-9108.5
-9108.05
-9107.67
-9107.38
-9107.18
-9107.07
-9107.07
-9107.16
-9107.36
-9107.66
-9108.06
-9108.57
-9109.17
-9109.85
-9110.62
-9111.47
-9112.37
-9113.33
-9114.32
-9115.33
-9116.35
-9117.36
-9118.34
-9119.27
-9120.14
-9120.93
-9121.62
-9122.2
-9122.65
-9122.97
-9123.14
-9123.16
-9123.02
-9122.73
-9122.28
-9121.69
-9120.97
-9120.12
-9119.18
-9118.15
-9117.07
-9115.95
-9114.84
-9113.76
-9112.73
-9111.8
-9110.98
-9110.31
-9109.8
-9109.47
-9109.34
-9109.41
-9109.68
-9110.15
-9110.8
-9111.6
-9112.54
-9113.58
-9114.66
-9115.81
-9116.88
-9117.9
-9118.8
-9119.55
-9120.11
-9120.45
-9120.57
-9120.45
-9120.1
-9119.53
-9118.78
-9117.87
-9116.87
-9115.81
-9114.77
-9113.79
-9112.94
-9112.26
-9111.8
-9111.58
-9111.61
-9111.9
-9112.43
-9113.14
-9114.01
-9114.94
-9115.95
-9116.84
-9117.61
-9118.21
-9118.59
-9118.71
-9118.56
-9118.18
-9117.59
-9116.86
-9116.05
-9115.2
-9114.47
-9113.87
-9113.47
-9113.29
-9113.36
-9113.65
-9114.13
-9114.72
-9115.36
-9115.96
-9116.46
-9116.81
-9116.96
-9116.92
-9116.7
-9116.36
-9115.96
-9115.54
-9115.21
-9114.99
-9114.9
-9114.96
-9115.12
-9115.36
-9115.61
-9115.86
-9116.03
-9116.1
-9116.07
-9115.95
-9115.76
-9115.54
-9115.31
-9115.11
-9114.98
-9114.93
-9114.97
-9115.08
-9115.26
-9115.47
-9115.69
-9115.88
-9116.04
-9116.12
-9307.69
-9307.69
-9307.69
-9307.69
-9307.68
-9307.69
-9307.68
-9307.69
-9313.99
-9313.88
-9313.83
-9313.71
-9313.55
-9313.34
-9313.08
-9312.77
-9312.42
-9312.01
-9311.55
-9311.04
-9310.48
-9309.88
-9309.22
-9308.53
-9307.79
-9307.02
-9306.22
-9305.4
-9304.55
-9303.69
-9302.82
-9301.95
-9301.09
-9300.25
-9299.43
-9298.64
-9297.9
-9297.2
-9296.57
-9296
-9295.52
-9295.11
-9294.8
-9294.58
-9294.47
-9294.46
-9294.57
-9294.79
-9295.11
-9295.55
-9296.1
-9296.75
-9297.5
-9298.33
-9299.25
-9300.23
-9301.26
-9302.33
-9303.43
-9304.53
-9305.62
-9306.67
-9307.68
-9308.62
-9309.46
-9310.21
-9310.83
-9311.32
-9311.66
-9311.84
-9311.85
-9311.7
-9311.38
-9310.89
-9310.25
-9309.46
-9308.55
-9307.52
-9306.41
-9305.24
-9304.04
-9302.84
-9301.67
-9300.57
-9299.56
-9298.68
-9297.96
-9297.41
-9297.06
-9296.93
-9297.01
-9297.31
-9297.82
-9298.53
-9299.4
-9300.42
-9301.54
-9302.72
-9303.95
-9305.11
-9306.21
-9307.18
-9307.98
-9308.58
-9308.95
-9309.07
-9308.94
-9308.55
-9307.93
-9307.11
-9306.13
-9305.04
-9303.9
-9302.77
-9301.72
-9300.8
-9300.07
-9299.58
-9299.35
-9299.39
-9299.71
-9300.28
-9301.06
-9301.99
-9303
-9304.09
-9305.05
-9305.89
-9306.53
-9306.93
-9307.05
-9306.89
-9306.47
-9305.83
-9305.03
-9304.15
-9303.25
-9302.46
-9301.81
-9301.38
-9301.2
-9301.28
-9301.6
-9302.12
-9302.76
-9303.45
-9304.11
-9304.65
-9305.01
-9305.17
-9305.12
-9304.87
-9304.5
-9304.06
-9303.62
-9303.26
-9303.02
-9302.93
-9302.99
-9303.17
-9303.43
-9303.71
-9303.98
-9304.16
-9304.24
-9304.21
-9304.08
-9303.87
-9303.63
-9303.39
-9303.18
-9303.04
-9302.99
-9303.02
-9303.15
-9303.33
-9303.56
-9303.79
-9304
-9304.16
-9304.25
-9474.47
-9474.47
-9474.47
-9474.47
-9474.46
-9474.47
-9474.46
-9474.47
-9481.37
-9481.26
-9481.2
-9481.06
-9480.88
-9480.66
-9480.38
-9480.05
-9479.66
-9479.22
-9478.73
-9478.18