/*--------------------------------*- C++ -*----------------------------------*\
  =========                 |
  \\      /  F ield         | OpenFOAM: The Open Source CFD Toolbox
   \\    /   O peration     | Website:  https://openfoam.org
    \\  /    A nd           | Version:  12
     \\/     M anipulation  |
\*---------------------------------------------------------------------------*/
FoamFile
{
    format      ascii;
    class       volScalarField;
    location    "3";
    object      p;
}
// * * * * * * * * * * * * * * * * * * * * * * * * * * * * * * * * * * * * * //

dimensions      [1 -1 -2 0 0 0 0];

internalField   nonuniform List<scalar> 
3829
(
-615.309
-615.308
-615.308
-615.307
-615.305
-615.304
-615.302
-615.3
-615.297
-615.294
-615.29
-615.286
-615.281
-615.276
-615.27
-615.263
-615.256
-615.248
-615.239
-615.229
-615.219
-615.208
-615.196
-615.183
-615.169
-615.155
-615.139
-615.123
-615.106
-615.089
-615.07
-615.051
-615.031
-615.011
-614.991
-614.97
-614.949
-614.927
-614.906
-614.884
-614.863
-614.842
-614.822
-614.802
-614.782
-614.764
-614.745
-614.728
-614.712
-614.696
-614.681
-614.668
-614.655
-614.644
-614.634
-614.624
-614.616
-614.609
-614.603
-614.598
-614.593
-614.59
-614.587
-614.585
-614.583
-614.582
-614.581
-614.581
-614.58
-614.579
-614.579
-614.577
-614.576
-614.574
-614.571
-614.567
-614.563
-614.557
-614.551
-614.543
-614.535
-614.525
-614.514
-614.503
-614.49
-614.477
-614.463
-614.448
-614.432
-614.417
-614.401
-614.385
-614.369
-614.353
-614.338
-614.324
-614.31
-614.297
-614.286
-614.275
-614.266
-614.258
-614.252
-614.247
-614.244
-614.242
-614.242
-614.244
-614.246
-614.25
-614.255
-614.262
-614.269
-614.277
-614.286
-614.296
-614.305
-614.315
-614.325
-614.335
-614.345
-614.355
-614.364
-614.372
-614.38
-614.387
-614.393
-614.398
-614.402
-614.406
-614.408
-614.409
-614.41
-614.409
-614.408
-614.405
-614.402
-614.399
-614.394
-614.389
-614.384
-614.378
-614.371
-614.365
-614.358
-614.352
-614.345
-614.338
-614.332
-614.326
-614.32
-614.314
-614.309
-614.304
-614.3
-614.296
-614.293
-614.29
-614.288
-614.287
-614.286
-614.285
-614.286
-614.286
-614.287
-614.289
-614.291
-614.293
-614.296
-614.299
-614.302
-614.306
-614.309
-614.313
-614.317
-614.321
-614.325
-614.329
-614.333
-614.337
-614.341
-614.345
-614.348
-614.351
-614.355
-614.358
-614.36
-614.363
-614.366
-614.368
-614.37
-614.372
-614.373
-614.375
-614.376
-614.377
-614.378
-614.378
-614.379
-614.379
-1773.71
-1773.71
-1773.71
-1773.71
-1773.7
-1773.7
-1773.7
-1773.7
-1773.7
-1773.7
-1773.69
-1773.69
-1773.69
-1773.68
-1773.68
-1773.67
-1773.66
-1773.66
-1773.65
-1773.64
-1773.63
-1773.62
-1773.6
-1773.59
-1773.57
-1773.56
-1773.54
-1773.52
-1773.5
-1773.48
-1773.46
-1773.44
-1773.41
-1773.39
-1773.36
-1773.34
-1773.32
-1773.29
-1773.27
-1773.24
-1773.22
-1773.19
-1773.17
-1773.15
-1773.13
-1773.1
-1773.09
-1773.07
-1773.05
-1773.03
-1773.02
-1773
-1772.99
-1772.98
-1772.97
-1772.96
-1772.96
-1772.95
-1772.95
-1772.94
-1772.94
-1772.94
-1772.94
-1772.94
-1772.94
-1772.94
-1772.95
-1772.95
-1772.95
-1772.95
-1772.95
-1772.95
-1772.95
-1772.95
-1772.95
-1772.95
-1772.95
-1772.94
-1772.93
-1772.93
-1772.92
-1772.91
-1772.9
-1772.88
-1772.87
-1772.85
-1772.84
-1772.82
-1772.8
-1772.79
-1772.77
-1772.75
-1772.73
-1772.72
-1772.7
-1772.68
-1772.67
-1772.66
-1772.64
-1772.63
-1772.62
-1772.61
-1772.61
-1772.6
-1772.6
-1772.6
-1772.6
-1772.6
-1772.61
-1772.61
-1772.62
-1772.63
-1772.63
-1772.64
-1772.65
-1772.66
-1772.67
-1772.69
-1772.7
-1772.71
-1772.72
-1772.73
-1772.74
-1772.75
-1772.75
-1772.76
-1772.77
-1772.77
-1772.78
-1772.78
-1772.78
-1772.78
-1772.78
-1772.78
-1772.78
-1772.78
-1772.77
-1772.77
-1772.77
-1772.76
-1772.75
-1772.75
-1772.74
-1772.73
-1772.73
-1772.72
-1772.71
-1772.71
-1772.7
-1772.69
-1772.69
-1772.68
-1772.68
-1772.67
-1772.67
-1772.66
-1772.66
-1772.66
-1772.66
-1772.66
-1772.65
-1772.65
-1772.65
-1772.65
-1772.66
-1772.66
-1772.66
-1772.66
-1772.66
-1772.67
-1772.67
-1772.67
-1772.68
-1772.68
-1772.69
-1772.69
-1772.69
-1772.7
-1772.7
-1772.71
-1772.71
-1772.71
-1772.72
-1772.72
-1772.72
-1772.73
-1772.73
-1772.73
-1772.74
-1772.74
-1772.74
-1772.74
-1772.74
-1772.74
-1772.75
-1772.75
-1772.75
-1772.75
-1772.75
-1772.75
-2799.91
-2799.91
-2799.91
-2799.91
-2799.91
-2799.91
-2799.91
-2799.91
-2799.91
-2799.91
-2799.91
-2799.91
-2799.91
-2799.91
-2799.91
-2799.9
-2799.9
-2799.89
-2799.88
-2799.87
-2799.86
-2799.85
-2799.83
-2799.82
-2799.8
-2799.78
-2799.76
-2799.73
-2799.71
-2799.68
-2799.65
-2799.62
-2799.59
-2799.56
-2799.53
-2799.5
-2799.47
-2799.44
-2799.4
-2799.37
-2799.34
-2799.31
-2799.29
-2799.26
-2799.23
-2799.21
-2799.19
-2799.17
-2799.15
-2799.13
-2799.12
-2799.1
-2799.09
-2799.08
-2799.08
-2799.07
-2799.07
-2799.06
-2799.06
-2799.07
-2799.07
-2799.07
-2799.08
-2799.08
-2799.09
-2799.09
-2799.1
-2799.11
-2799.11
-2799.12
-2799.12
-2799.13
-2799.13
-2799.13
-2799.13
-2799.13
-2799.13
-2799.13
-2799.12
-2799.11
-2799.1
-2799.09
-2799.08
-2799.06
-2799.05
-2799.03
-2799.01
-2798.99
-2798.97
-2798.95
-2798.93
-2798.91
-2798.89
-2798.87
-2798.85
-2798.83
-2798.81
-2798.8
-2798.78
-2798.77
-2798.76
-2798.75
-2798.75
-2798.74
-2798.74
-2798.74
-2798.74
-2798.74
-2798.75
-2798.76
-2798.77
-2798.77
-2798.79
-2798.8
-2798.81
-2798.82
-2798.83
-2798.85
-2798.86
-2798.87
-2798.88
-2798.89
-2798.9
-2798.91
-2798.92
-2798.93
-2798.94
-2798.94
-2798.95
-2798.95
-2798.95
-2798.95
-2798.95
-2798.95
-2798.95
-2798.94
-2798.94
-2798.93
-2798.93
-2798.92
-2798.92
-2798.91
-2798.9
-2798.9
-2798.89
-2798.88
-2798.87
-2798.87
-2798.86
-2798.85
-2798.85
-2798.84
-2798.84
-2798.83
-2798.83
-2798.82
-2798.82
-2798.82
-2798.81
-2798.81
-2798.81
-2798.81
-2798.81
-2798.81
-2798.81
-2798.82
-2798.82
-2798.82
-2798.82
-2798.83
-2798.83
-2798.83
-2798.84
-2798.84
-2798.85
-2798.85
-2798.86
-2798.86
-2798.86
-2798.87
-2798.87
-2798.88
-2798.88
-2798.88
-2798.89
-2798.89
-2798.89
-2798.89
-2798.9
-2798.9
-2798.9
-2798.9
-2798.9
-2798.91
-2798.91
-2798.91
-2798.91
-2798.91
-2798.91
-2798.91
-3708.98
-3708.98
-3708.98
-3708.98
-3708.99
-3708.99
-3709
-3709
-3709.01
-3709.02
-3709.02
-3709.03
-3709.04
-3709.04
-3709.05
-3709.05
-3709.05
-3709.05
-3709.04
-3709.03
-3709.02
-3709.01
-3708.99
-3708.97
-3708.95
-3708.92
-3708.89
-3708.86
-3708.82
-3708.78
-3708.75
-3708.7
-3708.66
-3708.62
-3708.58
-3708.53
-3708.49
-3708.45
-3708.41
-3708.37
-3708.33
-3708.29
-3708.25
-3708.22
-3708.19
-3708.16
-3708.14
-3708.11
-3708.09
-3708.08
-3708.06
-3708.05
-3708.04
-3708.04
-3708.03
-3708.03
-3708.03
-3708.04
-3708.04
-3708.05
-3708.06
-3708.07
-3708.08
-3708.1
-3708.11
-3708.12
-3708.14
-3708.15
-3708.16
-3708.17
-3708.18
-3708.19
-3708.2
-3708.21
-3708.21
-3708.21
-3708.21
-3708.21
-3708.2
-3708.19
-3708.18
-3708.16
-3708.15
-3708.13
-3708.11
-3708.09
-3708.06
-3708.04
-3708.01
-3707.99
-3707.96
-3707.94
-3707.91
-3707.89
-3707.86
-3707.84
-3707.82
-3707.8
-3707.79
-3707.78
-3707.77
-3707.76
-3707.75
-3707.75
-3707.75
-3707.75
-3707.75
-3707.76
-3707.77
-3707.78
-3707.79
-3707.8
-3707.81
-3707.83
-3707.84
-3707.86
-3707.87
-3707.89
-3707.9
-3707.91
-3707.93
-3707.94
-3707.95
-3707.96
-3707.97
-3707.98
-3707.99
-3707.99
-3707.99
-3708
-3708
-3708
-3708
-3708
-3707.99
-3707.99
-3707.98
-3707.98
-3707.97
-3707.97
-3707.96
-3707.95
-3707.94
-3707.93
-3707.93
-3707.92
-3707.91
-3707.9
-3707.9
-3707.89
-3707.88
-3707.88
-3707.87
-3707.87
-3707.86
-3707.86
-3707.85
-3707.85
-3707.85
-3707.85
-3707.85
-3707.85
-3707.85
-3707.85
-3707.85
-3707.85
-3707.86
-3707.86
-3707.86
-3707.87
-3707.87
-3707.87
-3707.88
-3707.88
-3707.89
-3707.89
-3707.89
-3707.9
-3707.9
-3707.91
-3707.91
-3707.91
-3707.92
-3707.92
-3707.92
-3707.93
-3707.93
-3707.93
-3707.94
-3707.94
-3707.94
-3707.94
-3707.94
-3707.94
-3707.95
-3707.95
-3707.95
-3707.95
-3707.95
-3707.95
-4514.25
-4514.26
-4514.26
-4514.27
-4514.28
-4514.3
-4514.31
-4514.33
-4514.35
-4514.37
-4514.39
-4514.42
-4514.44
-4514.46
-4514.47
-4514.49
-4514.5
-4514.5
-4514.5
-4514.5
-4514.49
-4514.47
-4514.45
-4514.43
-4514.39
-4514.36
-4514.31
-4514.26
-4514.21
-4514.16
-4514.1
-4514.04
-4513.98
-4513.92
-4513.86
-4513.8
-4513.74
-4513.69
-4513.63
-4513.58
-4513.53
-4513.48
-4513.44
-4513.4
-4513.36
-4513.33
-4513.3
-4513.28
-4513.26
-4513.24
-4513.23
-4513.22
-4513.21
-4513.21
-4513.22
-4513.22
-4513.23
-4513.24
-4513.26
-4513.27
-4513.29
-4513.31
-4513.33
-4513.36
-4513.38
-4513.4
-4513.42
-4513.45
-4513.47
-4513.49
-4513.5
-4513.52
-4513.53
-4513.54
-4513.55
-4513.55
-4513.55
-4513.55
-4513.54
-4513.53
-4513.51
-4513.5
-4513.48
-4513.45
-4513.43
-4513.4
-4513.37
-4513.34
-4513.31
-4513.28
-4513.24
-4513.21
-4513.18
-4513.15
-4513.12
-4513.1
-4513.08
-4513.06
-4513.04
-4513.02
-4513.01
-4513.01
-4513
-4513
-4513
-4513
-4513.01
-4513.02
-4513.03
-4513.04
-4513.06
-4513.07
-4513.09
-4513.11
-4513.13
-4513.14
-4513.16
-4513.18
-4513.19
-4513.21
-4513.22
-4513.24
-4513.25
-4513.26
-4513.27
-4513.28
-4513.29
-4513.29
-4513.3
-4513.3
-4513.3
-4513.3
-4513.3
-4513.29
-4513.29
-4513.28
-4513.28
-4513.27
-4513.26
-4513.26
-4513.25
-4513.24
-4513.23
-4513.22
-4513.21
-4513.21
-4513.2
-4513.19
-4513.18
-4513.17
-4513.17
-4513.16
-4513.16
-4513.15
-4513.15
-4513.14
-4513.14
-4513.14
-4513.14
-4513.13
-4513.13
-4513.13
-4513.13
-4513.14
-4513.14
-4513.14
-4513.14
-4513.15
-4513.15
-4513.15
-4513.16
-4513.16
-4513.17
-4513.17
-4513.17
-4513.18
-4513.18
-4513.19
-4513.19
-4513.2
-4513.2
-4513.2
-4513.21
-4513.21
-4513.21
-4513.22
-4513.22
-4513.22
-4513.22
-4513.23
-4513.23
-4513.23
-4513.23
-4513.23
-4513.23
-4513.24
-4513.24
-4513.24
-4513.24
-4513.24
-5227.52
-5227.53
-5227.54
-5227.56
-5227.59
-5227.62
-5227.66
-5227.7
-5227.75
-5227.79
-5227.84
-5227.89
-5227.94
-5227.99
-5228.03
-5228.06
-5228.09
-5228.11
-5228.13
-5228.13
-5228.13
-5228.11
-5228.09
-5228.05
-5228
-5227.95
-5227.88
-5227.81
-5227.73
-5227.65
-5227.57
-5227.48
-5227.39
-5227.31
-5227.22
-5227.14
-5227.06
-5226.99
-5226.92
-5226.85
-5226.79
-5226.73
-5226.68
-5226.63
-5226.59
-5226.55
-5226.52
-5226.5
-5226.48
-5226.46
-5226.45
-5226.45
-5226.45
-5226.46
-5226.47
-5226.48
-5226.5
-5226.52
-5226.55
-5226.58
-5226.61
-5226.64
-5226.67
-5226.71
-5226.74
-5226.78
-5226.81
-5226.84
-5226.87
-5226.9
-5226.93
-5226.95
-5226.97
-5226.98
-5226.99
-5227
-5227
-5226.99
-5226.98
-5226.97
-5226.95
-5226.93
-5226.9
-5226.88
-5226.84
-5226.81
-5226.77
-5226.73
-5226.69
-5226.65
-5226.61
-5226.57
-5226.54
-5226.5
-5226.47
-5226.44
-5226.41
-5226.39
-5226.37
-5226.36
-5226.34
-5226.34
-5226.33
-5226.33
-5226.34
-5226.35
-5226.36
-5226.37
-5226.38
-5226.4
-5226.42
-5226.44
-5226.46
-5226.48
-5226.5
-5226.52
-5226.54
-5226.56
-5226.58
-5226.6
-5226.61
-5226.63
-5226.64
-5226.65
-5226.66
-5226.67
-5226.68
-5226.68
-5226.69
-5226.69
-5226.69
-5226.69
-5226.69
-5226.68
-5226.68
-5226.67
-5226.66
-5226.66
-5226.65
-5226.64
-5226.63
-5226.62
-5226.61
-5226.6
-5226.59
-5226.58
-5226.57
-5226.57
-5226.56
-5226.55
-5226.54
-5226.54
-5226.53
-5226.53
-5226.52
-5226.52
-5226.51
-5226.51
-5226.51
-5226.51
-5226.51
-5226.51
-5226.51
-5226.51
-5226.51
-5226.52
-5226.52
-5226.52
-5226.53
-5226.53
-5226.53
-5226.54
-5226.54
-5226.55
-5226.55
-5226.56
-5226.56
-5226.57
-5226.57
-5226.57
-5226.58
-5226.58
-5226.59
-5226.59
-5226.59
-5226.6
-5226.6
-5226.6
-5226.6
-5226.61
-5226.61
-5226.61
-5226.61
-5226.61
-5226.61
-5226.61
-5226.61
-5226.62
-5226.62
-5226.62
-5859.24
-5859.26
-5859.28
-5859.33
-5859.38
-5859.45
-5859.52
-5859.61
-5859.71
-5859.81
-5859.92
-5860.03
-5860.13
-5860.23
-5860.31
-5860.39
-5860.46
-5860.5
-5860.54
-5860.55
-5860.54
-5860.52
-5860.47
-5860.41
-5860.33
-5860.23
-5860.12
-5860
-5859.87
-5859.74
-5859.61
-5859.49
-5859.36
-5859.24
-5859.13
-5859.02
-5858.92
-5858.82
-5858.73
-5858.65
-5858.57
-5858.51
-5858.45
-5858.4
-5858.35
-5858.32
-5858.28
-5858.26
-5858.25
-5858.24
-5858.23
-5858.24
-5858.25
-5858.26
-5858.29
-5858.31
-5858.34
-5858.38
-5858.42
-5858.46
-5858.5
-5858.55
-5858.6
-5858.65
-5858.7
-5858.74
-5858.79
-5858.83
-5858.87
-5858.91
-5858.95
-5858.98
-5859
-5859.02
-5859.03
-5859.04
-5859.04
-5859.03
-5859.02
-5859.01
-5858.98
-5858.95
-5858.92
-5858.88
-5858.84
-5858.8
-5858.75
-5858.7
-5858.66
-5858.61
-5858.56
-5858.51
-5858.47
-5858.43
-5858.39
-5858.35
-5858.32
-5858.3
-5858.28
-5858.26
-5858.25
-5858.25
-5858.25
-5858.25
-5858.26
-5858.27
-5858.28
-5858.3
-5858.32
-5858.34
-5858.36
-5858.38
-5858.41
-5858.43
-5858.46
-5858.48
-5858.5
-5858.53
-5858.55
-5858.57
-5858.59
-5858.6
-5858.62
-5858.63
-5858.64
-5858.65
-5858.65
-5858.66
-5858.66
-5858.66
-5858.66
-5858.66
-5858.66
-5858.65
-5858.65
-5858.64
-5858.63
-5858.62
-5858.61
-5858.6
-5858.59
-5858.58
-5858.57
-5858.56
-5858.55
-5858.54
-5858.53
-5858.52
-5858.51
-5858.51
-5858.5
-5858.49
-5858.49
-5858.48
-5858.48
-5858.47
-5858.47
-5858.47
-5858.47
-5858.47
-5858.47
-5858.47
-5858.47
-5858.47
-5858.47
-5858.47
-5858.48
-5858.48
-5858.49
-5858.49
-5858.49
-5858.5
-5858.5
-5858.51
-5858.51
-5858.52
-5858.52
-5858.53
-5858.53
-5858.54
-5858.54
-5858.54
-5858.55
-5858.55
-5858.55
-5858.56
-5858.56
-5858.56
-5858.56
-5858.57
-5858.57
-5858.57
-5858.57
-5858.57
-5858.57
-5858.57
-5858.58
-5858.58
-5858.58
-5858.58
-6418.55
-6418.57
-6418.62
-6418.7
-6418.8
-6418.92
-6419.07
-6419.23
-6419.41
-6419.59
-6419.78
-6419.96
-6420.13
-6420.29
-6420.42
-6420.54
-6420.63
-6420.7
-6420.75
-6420.78
-6420.77
-6420.75
-6420.69
-6420.61
-6420.5
-6420.37
-6420.21
-6420.03
-6419.85
-6419.66
-6419.49
-6419.32
-6419.15
-6419
-6418.85
-6418.72
-6418.59
-6418.47
-6418.37
-6418.28
-6418.19
-6418.12
-6418.05
-6418
-6417.95
-6417.92
-6417.89
-6417.87
-6417.86
-6417.86
-6417.86
-6417.88
-6417.9
-6417.93
-6417.96
-6418
-6418.05
-6418.1
-6418.15
-6418.21
-6418.27
-6418.34
-6418.4
-6418.46
-6418.53
-6418.59
-6418.65
-6418.71
-6418.76
-6418.81
-6418.85
-6418.89
-6418.92
-6418.94
-6418.96
-6418.97
-6418.97
-6418.96
-6418.95
-6418.92
-6418.89
-6418.86
-6418.82
-6418.77
-6418.72
-6418.66
-6418.61
-6418.55
-6418.49
-6418.43
-6418.37
-6418.32
-6418.27
-6418.22
-6418.17
-6418.14
-6418.1
-6418.08
-6418.05
-6418.04
-6418.03
-6418.02
-6418.03
-6418.03
-6418.04
-6418.06
-6418.07
-6418.1
-6418.12
-6418.15
-6418.17
-6418.2
-6418.23
-6418.26
-6418.29
-6418.32
-6418.34
-6418.37
-6418.39
-6418.41
-6418.43
-6418.45
-6418.46
-6418.48
-6418.49
-6418.5
-6418.5
-6418.51
-6418.51
-6418.51
-6418.51
-6418.5
-6418.5
-6418.49
-6418.49
-6418.48
-6418.47
-6418.46
-6418.45
-6418.44
-6418.43
-6418.42
-6418.4
-6418.39
-6418.38
-6418.37
-6418.36
-6418.35
-6418.34
-6418.34
-6418.33
-6418.32
-6418.31
-6418.31
-6418.31
-6418.3
-6418.3
-6418.3
-6418.3
-6418.29
-6418.3
-6418.3
-6418.3
-6418.3
-6418.3
-6418.3
-6418.31
-6418.31
-6418.32
-6418.32
-6418.33
-6418.33
-6418.33
-6418.34
-6418.34
-6418.35
-6418.35
-6418.36
-6418.36
-6418.37
-6418.37
-6418.38
-6418.38
-6418.38
-6418.39
-6418.39
-6418.39
-6418.39
-6418.4
-6418.4
-6418.4
-6418.4
-6418.4
-6418.41
-6418.41
-6418.41
-6418.41
-6418.41
-6418.41
-6418.41
-6913.63
-6913.68
-6913.77
-6913.91
-6914.09
-6914.32
-6914.58
-6914.87
-6915.2
-6915.54
-6915.88
-6916.22
-6916.55
-6916.84
-6917.1
-6917.32
-6917.5
-6917.63
-6917.72
-6917.76
-6917.75
-6917.69
-6917.57
-6917.41
-6917.2
-6916.95
-6916.65
-6916.33
-6916.01
-6915.72
-6915.44
-6915.2
-6914.97
-6914.77
-6914.59
-6914.43
-6914.29
-6914.16
-6914.05
-6913.95
-6913.86
-6913.78
-6913.72
-6913.66
-6913.62
-6913.59
-6913.57
-6913.56
-6913.55
-6913.56
-6913.58
-6913.61
-6913.64
-6913.68
-6913.73
-6913.79
-6913.85
-6913.92
-6913.99
-6914.07
-6914.15
-6914.23
-6914.31
-6914.39
-6914.47
-6914.55
-6914.62
-6914.69
-6914.76
-6914.82
-6914.87
-6914.92
-6914.95
-6914.98
-6915
-6915.01
-6915.01
-6915
-6914.98
-6914.95
-6914.92
-6914.87
-6914.82
-6914.76
-6914.7
-6914.63
-6914.56
-6914.49
-6914.42
-6914.35
-6914.29
-6914.22
-6914.16
-6914.11
-6914.06
-6914.02
-6913.98
-6913.95
-6913.93
-6913.91
-6913.9
-6913.9
-6913.91
-6913.92
-6913.93
-6913.95
-6913.97
-6914
-6914.03
-6914.06
-6914.09
-6914.12
-6914.16
-6914.19
-6914.22
-6914.25
-6914.28
-6914.31
-6914.34
-6914.36
-6914.38
-6914.4
-6914.41
-6914.43
-6914.44
-6914.45
-6914.45
-6914.46
-6914.46
-6914.46
-6914.46
-6914.45
-6914.45
-6914.44
-6914.43
-6914.42
-6914.41
-6914.4
-6914.39
-6914.38
-6914.36
-6914.35
-6914.34
-6914.33
-6914.32
-6914.3
-6914.29
-6914.28
-6914.28
-6914.27
-6914.26
-6914.25
-6914.25
-6914.24
-6914.24
-6914.23
-6914.23
-6914.23
-6914.23
-6914.23
-6914.23
-6914.23
-6914.23
-6914.23
-6914.23
-6914.24
-6914.24
-6914.25
-6914.25
-6914.25
-6914.26
-6914.26
-6914.27
-6914.27
-6914.28
-6914.28
-6914.29
-6914.29
-6914.3
-6914.3
-6914.31
-6914.31
-6914.32
-6914.32
-6914.32
-6914.33
-6914.33
-6914.33
-6914.33
-6914.33
-6914.34
-6914.34
-6914.34
-6914.34
-6914.34
-6914.34
-6914.34
-6914.34
-6914.34
-6914.34
-7351.61
-7351.67
-7351.81
-7352.02
-7352.32
-7352.71
-7353.19
-7353.61
-7354.52
-7355.22
-7355.83
-7356.35
-7356.78
-7357.13
-7357.42
-7357.66
-7357.83
-7357.96
-7358.04
-7358.08
-7358.08
-7358.03
-7357.92
-7357.74
-7357.46
-7357.1
-7356.59
-7355.78
-7355.23
-7354.84
-7354.55
-7354.28
-7354.04
-7353.83
-7353.64
-7353.47
-7353.33
-7353.19
-7353.08
-7352.98
-7352.89
-7352.82
-7352.75
-7352.71
-7352.67
-7352.64
-7352.63
-7352.63
-7352.64
-7352.66
-7352.69
-7352.73
-7352.78
-7352.83
-7352.9
-7352.97
-7353.05
-7353.14
-7353.23
-7353.33
-7353.42
-7353.52
-7353.62
-7353.72
-7353.82
-7353.92
-7354.01
-7354.09
-7354.17
-7354.24
-7354.3
-7354.36
-7354.4
-7354.43
-7354.45
-7354.46
-7354.46
-7354.45
-7354.42
-7354.39
-7354.34
-7354.29
-7354.23
-7354.16
-7354.08
-7354
-7353.92
-7353.84
-7353.76
-7353.67
-7353.6
-7353.52
-7353.46
-7353.39
-7353.34
-7353.29
-7353.25
-7353.22
-7353.2
-7353.19
-7353.18
-7353.18
-7353.19
-7353.2
-7353.22
-7353.24
-7353.27
-7353.3
-7353.34
-7353.37
-7353.41
-7353.45
-7353.49
-7353.52
-7353.56
-7353.59
-7353.63
-7353.66
-7353.68
-7353.71
-7353.73
-7353.75
-7353.77
-7353.78
-7353.79
-7353.8
-7353.8
-7353.81
-7353.81
-7353.81
-7353.8
-7353.8
-7353.79
-7353.78
-7353.77
-7353.76
-7353.75
-7353.74
-7353.73
-7353.71
-7353.7
-7353.69
-7353.68
-7353.66
-7353.65
-7353.64
-7353.63
-7353.62
-7353.61
-7353.6
-7353.59
-7353.58
-7353.58
-7353.57
-7353.57
-7353.56
-7353.56
-7353.56
-7353.56
-7353.56
-7353.56
-7353.56
-7353.56
-7353.57
-7353.57
-7353.57
-7353.58
-7353.58
-7353.58
-7353.59
-7353.59
-7353.6
-7353.6
-7353.61
-7353.62
-7353.62
-7353.63
-7353.63
-7353.64
-7353.64
-7353.64
-7353.65
-7353.65
-7353.66
-7353.66
-7353.66
-7353.66
-7353.67
-7353.67
-7353.67
-7353.67
-7353.67
-7353.68
-7353.68
-7353.68
-7353.68
-7353.68
-7353.68
-7353.68
-7353.68
-7738.93
-7739
-7739.15
-7739.38
-7739.7
-7740.15
-7740.76
-7741.55
-7742.71
-7743.62
-7744.45
-7745.18
-7745.81
-7746.36
-7746.84
-7747.24
-7747.56
-7747.8
-7747.95
-7748.02
-7747.98
-7747.85
-7747.63
-7747.33
-7746.93
-7746.48
-7746
-7744.78
-7744.38
-7743.93
-7743.49
-7743.15
-7742.88
-7742.65
-7742.46
-7742.3
-7742.15
-7742.03
-7741.92
-7741.83
-7741.75
-7741.68
-7741.63
-7741.58
-7741.56
-7741.54
-7741.54
-7741.54
-7741.57
-7741.6
-7741.64
-7741.7
-7741.76
-7741.83
-7741.92
-7742.01
-7742.11
-7742.21
-7742.33
-7742.44
-7742.56
-7742.68
-7742.8
-7742.92
-7743.03
-7743.14
-7743.25
-7743.35
-7743.44
-7743.53
-7743.6
-7743.66
-7743.71
-7743.74
-7743.77
-7743.78
-7743.77
-7743.75
-7743.72
-7743.68
-7743.62
-7743.56
-7743.48
-7743.4
-7743.31
-7743.22
-7743.13
-7743.03
-7742.94
-7742.84
-7742.75
-7742.67
-7742.6
-7742.53
-7742.47
-7742.42
-7742.38
-7742.34
-7742.32
-7742.31
-7742.3
-7742.31
-7742.32
-7742.34
-7742.36
-7742.39
-7742.43
-7742.46
-7742.5
-7742.54
-7742.59
-7742.63
-7742.67
-7742.71
-7742.75
-7742.79
-7742.82
-7742.85
-7742.88
-7742.91
-7742.93
-7742.95
-7742.97
-7742.98
-7742.99
-7743
-7743.01
-7743.01
-7743.01
-7743.01
-7743
-7743
-7742.99
-7742.98
-7742.97
-7742.96
-7742.94
-7742.93
-7742.92
-7742.9
-7742.89
-7742.88
-7742.86
-7742.85
-7742.84
-7742.82
-7742.81
-7742.8
-7742.79
-7742.78
-7742.77
-7742.77
-7742.76
-7742.76
-7742.75
-7742.75
-7742.75
-7742.74
-7742.74
-7742.74
-7742.74
-7742.75
-7742.75
-7742.75
-7742.75
-7742.76
-7742.76
-7742.77
-7742.77
-7742.78
-7742.78
-7742.79
-7742.79
-7742.8
-7742.8
-7742.81
-7742.81
-7742.82
-7742.82
-7742.83
-7742.83
-7742.84
-7742.84
-7742.84
-7742.85
-7742.85
-7742.85
-7742.85
-7742.86
-7742.86
-7742.86
-7742.86
-7742.86
-7742.86
-7742.87
-7742.87
-7742.87
-7742.87
-7742.87
-7742.87
-8081.46
-8081.49
-8081.55
-8081.63
-8081.74
-8081.86
-8081.94
-8082.09
-8087.82
-8087.65
-8087.57
-8087.42
-8087.26
-8087.1
-8086.94
-8086.8
-8086.66
-8086.54
-8086.43
-8086.33
-8086.25
-8086.18
-8086.12
-8086.07
-8086.04
-8086.02
-8086.01
-8086.02
-8086.04
-8086.07
-8086.12
-8086.18
-8086.25
-8086.33
-8086.42
-8086.52
-8086.63
-8086.75
-8086.87
-8087
-8087.14
-8087.28
-8087.42
-8087.56
-8087.7
-8087.83
-8087.96
-8088.08
-8088.2
-8088.3
-8088.4
-8088.48
-8088.55
-8088.6
-8088.64
-8088.67
-8088.67
-8088.67
-8088.64
-8088.61
-8088.55
-8088.49
-8088.41
-8088.32
-8088.23
-8088.13
-8088.02
-8087.91
-8087.8
-8087.69
-8087.59
-8087.49
-8087.4
-8087.31
-8087.24
-8087.17
-8087.12
-8087.08
-8087.04
-8087.02
-8087.01
-8087.01
-8087.02
-8087.03
-8087.06
-8087.09
-8087.12
-8087.16
-8087.2
-8087.25
-8087.29
-8087.34
-8087.39
-8087.43
-8087.48
-8087.52
-8087.56
-8087.6
-8087.63
-8087.66
-8087.69
-8087.72
-8087.74
-8087.75
-8087.77
-8087.78
-8087.79
-8087.79
-8087.79
-8087.79
-8087.79
-8087.78
-8087.77
-8087.77
-8087.75
-8087.74
-8087.73
-8087.72
-8087.7
-8087.69
-8087.67
-8087.66
-8087.64
-8087.63
-8087.62
-8087.6
-8087.59
-8087.58
-8087.57
-8087.56
-8087.55
-8087.54
-8087.53
-8087.53
-8087.52
-8087.52
-8087.51
-8087.51
-8087.51
-8087.51
-8087.51
-8087.51
-8087.51
-8087.51
-8087.52
-8087.52
-8087.52
-8087.53
-8087.53
-8087.54
-8087.54
-8087.55
-8087.55
-8087.56
-8087.56
-8087.57
-8087.58
-8087.58
-8087.59
-8087.59
-8087.6
-8087.6
-8087.6
-8087.61
-8087.61
-8087.61
-8087.62
-8087.62
-8087.62
-8087.62
-8087.63
-8087.63
-8087.63
-8087.63
-8087.63
-8087.63
-8087.63
-8087.64
-8087.64
-8087.64
-8087.64
-8384.72
-8384.74
-8384.77
-8384.82
-8384.87
-8384.93
-8384.98
-8385.07
-8392.61
-8392.48
-8392.39
-8392.29
-8392.16
-8392.04
-8391.91
-8391.79
-8391.68
-8391.58
-8391.49
-8391.4
-8391.33
-8391.27
-8391.22
-8391.18
-8391.16
-8391.15
-8391.15
-8391.17
-8391.2
-8391.24
-8391.3
-8391.37
-8391.46
-8391.55
-8391.66
-8391.78
-8391.91
-8392.05
-8392.2
-8392.35
-8392.5
-8392.66
-8392.82
-8392.98
-8393.14
-8393.29
-8393.44
-8393.58
-8393.71
-8393.83
-8393.93
-8394.02
-8394.1
-8394.16
-8394.2
-8394.23
-8394.23
-8394.22
-8394.19
-8394.15
-8394.09
-8394.01
-8393.92
-8393.82
-8393.71
-8393.59
-8393.47
-8393.35
-8393.23
-8393.1
-8392.99
-8392.88
-8392.78
-8392.69
-8392.61
-8392.54
-8392.48
-8392.43
-8392.4
-8392.38
-8392.37
-8392.38
-8392.39
-8392.41
-8392.44
-8392.47
-8392.51
-8392.56
-8392.6
-8392.65
-8392.7
-8392.76
-8392.81
-8392.86
-8392.9
-8392.95
-8392.99
-8393.03
-8393.07
-8393.1
-8393.13
-8393.15
-8393.18
-8393.19
-8393.21
-8393.22
-8393.22
-8393.23
-8393.23
-8393.23
-8393.22
-8393.22
-8393.21
-8393.2
-8393.19
-8393.17
-8393.16
-8393.15
-8393.13
-8393.12
-8393.1
-8393.08
-8393.07
-8393.05
-8393.04
-8393.03
-8393.01
-8393
-8392.99
-8392.98
-8392.97
-8392.96
-8392.95
-8392.95
-8392.94
-8392.94
-8392.93
-8392.93
-8392.93
-8392.93
-8392.93
-8392.93
-8392.93
-8392.94
-8392.94
-8392.94
-8392.95
-8392.95
-8392.96
-8392.96
-8392.97
-8392.97
-8392.98
-8392.98
-8392.99
-8392.99
-8393
-8393.01
-8393.01
-8393.02
-8393.02
-8393.03
-8393.03
-8393.03
-8393.04
-8393.04
-8393.04
-8393.05
-8393.05
-8393.05
-8393.05
-8393.05
-8393.06
-8393.06
-8393.06
-8393.06
-8393.06
-8393.06
-8393.06
-8393.06
-8393.06
-8653.3
-8653.31
-8653.33
-8653.35
-8653.38
-8653.41
-8653.43
-8653.46
-8662.55
-8662.48
-8662.43
-8662.36
-8662.27
-8662.17
-8662.07
-8661.97
-8661.88
-8661.79
-8661.7
-8661.63
-8661.56
-8661.51
-8661.47
-8661.44
-8661.42
-8661.42
-8661.43
-8661.46
-8661.5
-8661.56
-8661.63
-8661.72
-8661.82
-8661.93
-8662.06
-8662.19
-8662.34
-8662.5
-8662.66
-8662.83
-8663.01
-8663.19
-8663.37
-8663.55
-8663.73
-8663.9
-8664.06
-8664.22
-8664.36
-8664.49
-8664.61
-8664.71
-8664.79
-8664.86
-8664.9
-8664.93
-8664.93
-8664.92
-8664.88
-8664.83
-8664.76
-8664.67
-8664.57
-8664.45
-8664.33
-8664.2
-8664.06
-8663.92
-8663.79
-8663.65
-8663.53
-8663.41
-8663.3
-8663.2
-8663.11
-8663.04
-8662.98
-8662.93
-8662.9
-8662.88
-8662.88
-8662.88
-8662.9
-8662.92
-8662.96
-8663
-8663.04
-8663.09
-8663.15
-8663.2
-8663.26
-8663.31
-8663.37
-8663.42
-8663.47
-8663.52
-8663.57
-8663.61
-8663.64
-8663.68
-8663.71
-8663.73
-8663.76
-8663.77
-8663.79
-8663.8
-8663.8
-8663.81
-8663.81
-8663.8
-8663.8
-8663.79
-8663.78
-8663.77
-8663.76
-8663.74
-8663.73
-8663.71
-8663.7
-8663.68
-8663.67
-8663.65
-8663.63
-8663.62
-8663.6
-8663.59
-8663.58
-8663.56
-8663.55
-8663.54
-8663.53
-8663.52
-8663.51
-8663.51
-8663.5
-8663.5
-8663.5
-8663.49
-8663.49
-8663.49
-8663.49
-8663.49
-8663.5
-8663.5
-8663.5
-8663.51
-8663.51
-8663.51
-8663.52
-8663.53
-8663.53
-8663.54
-8663.54
-8663.55
-8663.55
-8663.56
-8663.57
-8663.57
-8663.58
-8663.58
-8663.59
-8663.59
-8663.59
-8663.6
-8663.6
-8663.61
-8663.61
-8663.61
-8663.61
-8663.62
-8663.62
-8663.62
-8663.62
-8663.62
-8663.62
-8663.62
-8663.62
-8663.63
-8663.63
-8663.63
-8663.63
-8891.19
-8891.2
-8891.21
-8891.22
-8891.23
-8891.25
-8891.26
-8891.27
-8901.75
-8901.72
-8901.67
-8901.61
-8901.54
-8901.47
-8901.38
-8901.3
-8901.22
-8901.14
-8901.06
-8901
-8900.94
-8900.89
-8900.85
-8900.83
-8900.82
-8900.83
-8900.85
-8900.89
-8900.94
-8901
-8901.09
-8901.19
-8901.3
-8901.43
-8901.57
-8901.73
-8901.89
-8902.07
-8902.26
-8902.45
-8902.64
-8902.84
-8903.04
-8903.24
-8903.44
-8903.62
-8903.8
-8903.98
-8904.13
-8904.28
-8904.4
-8904.51
-8904.6
-8904.67
-8904.72
-8904.74
-8904.75
-8904.73
-8904.69
-8904.62
-8904.54
-8904.44
-8904.33
-8904.2
-8904.06
-8903.92
-8903.77
-8903.61
-8903.46
-8903.32
-8903.18
-8903.05
-8902.93
-8902.83
-8902.74
-8902.66
-8902.6
-8902.55
-8902.52
-8902.5
-8902.5
-8902.51
-8902.53
-8902.56
-8902.6
-8902.64
-8902.69
-8902.75
-8902.81
-8902.87
-8902.93
-8902.99
-8903.05
-8903.1
-8903.16
-8903.21
-8903.26
-8903.3
-8903.34
-8903.37
-8903.4
-8903.43
-8903.45
-8903.47
-8903.48
-8903.49
-8903.5
-8903.5
-8903.5
-8903.5
-8903.49
-8903.48
-8903.47
-8903.46
-8903.45
-8903.43
-8903.42
-8903.4
-8903.38
-8903.37
-8903.35
-8903.33
-8903.32
-8903.3
-8903.28
-8903.27
-8903.26
-8903.24
-8903.23
-8903.22
-8903.21
-8903.2
-8903.19
-8903.19
-8903.18
-8903.18
-8903.18
-8903.17
-8903.17
-8903.17
-8903.17
-8903.17
-8903.18
-8903.18
-8903.18
-8903.19
-8903.19
-8903.2
-8903.2
-8903.21
-8903.21
-8903.22
-8903.22
-8903.23
-8903.24
-8903.24
-8903.25
-8903.25
-8903.26
-8903.26
-8903.27
-8903.27
-8903.28
-8903.28
-8903.29
-8903.29
-8903.29
-8903.29
-8903.3
-8903.3
-8903.3
-8903.3
-8903.3
-8903.3
-8903.31
-8903.31
-8903.31
-8903.31
-8903.31
-8903.31
-8903.31
-9101.92
-9101.92
-9101.93
-9101.94
-9101.94
-9101.95
-9101.96
-9101.96
-9113.7
-9113.68
-9113.64
-9113.59
-9113.53
-9113.46
-9113.39
-9113.31
-9113.24
-9113.16
-9113.09
-9113.03
-9112.98
-9112.93
-9112.9
-9112.89
-9112.88
-9112.89
-9112.92
-9112.97
-9113.03
-9113.11
-9113.2
-9113.32
-9113.44
-9113.59
-9113.75
-9113.92
-9114.1
-9114.3
-9114.5
-9114.71
-9114.93
-9115.14
-9115.36
-9115.58
-9115.79
-9116
-9116.2
-9116.38
-9116.55
-9116.71
-9116.84
-9116.96
-9117.06
-9117.13
-9117.18
-9117.2
-9117.2
-9117.18
-9117.13
-9117.06
-9116.97
-9116.86
-9116.73
-9116.59
-9116.44
-9116.28
-9116.11
-9115.95
-9115.79
-9115.63
-9115.48
-9115.34
-9115.22
-9115.1
-9115.01
-9114.93
-9114.86
-9114.82
-9114.79
-9114.77
-9114.77
-9114.79
-9114.81
-9114.84
-9114.89
-9114.94
-9114.99
-9115.05
-9115.12
-9115.18
-9115.25
-9115.31
-9115.37
-9115.43
-9115.49
-9115.54
-9115.59
-9115.64
-9115.68
-9115.71
-9115.74
-9115.77
-9115.79
-9115.81
-9115.82
-9115.83
-9115.84
-9115.84
-9115.84
-9115.84
-9115.83
-9115.82
-9115.81
-9115.8
-9115.78
-9115.77
-9115.75
-9115.73
-9115.71
-9115.7
-9115.68
-9115.66
-9115.64
-9115.63
-9115.61
-9115.6
-9115.58
-9115.57
-9115.56
-9115.55
-9115.54
-9115.53
-9115.52
-9115.51
-9115.51
-9115.5
-9115.5
-9115.5
-9115.5
-9115.5
-9115.5
-9115.5
-9115.5
-9115.51
-9115.51
-9115.51
-9115.52
-9115.52
-9115.53
-9115.53
-9115.54
-9115.55
-9115.55
-9115.56
-9115.56
-9115.57
-9115.58
-9115.58
-9115.59
-9115.59
-9115.6
-9115.6
-9115.61
-9115.61
-9115.61
-9115.62
-9115.62
-9115.62
-9115.62
-9115.63
-9115.63
-9115.63
-9115.63
-9115.63
-9115.63
-9115.63
-9115.64
-9115.64
-9115.64
-9115.64
-9115.64
-9288.59
-9288.59
-9288.59
-9288.6
-9288.6
-9288.61
-9288.61
-9288.62
-9301.48
-9301.46
-9301.42
-9301.38
-9301.33
-9301.26
-9301.2
-9301.12
-9301.05
-9300.98
-9300.91
-9300.85
-9300.8
-9300.76
-9300.74
-9300.72
-9300.72
-9300.74
-9300.78
-9300.83
-9300.9
-9300.99
-9301.09
-9301.22
-9301.36
-9301.52
-9301.69
-9301.88
-9302.08
-9302.29
-9302.51
-9302.74
-9302.98
-9303.21
-9303.45
-9303.69
-9303.92
-9304.14
-9304.35
-9304.55
-9304.73
-9304.9
-9305.04
-9305.17
-9305.27
-9305.35
-9305.4
-9305.42
-9305.42
-9305.39
-9305.34
-9305.26
-9305.16
-9305.03
-9304.89
-9304.74
-9304.57
-9304.4
-9304.22
-9304.04
-9303.87
-9303.7
-9303.54
-9303.39
-9303.26
-9303.14
-9303.04
-9302.96
-9302.9
-9302.85
-9302.82
-9302.81
-9302.81
-9302.83
-9302.86
-9302.9
-9302.94
-9303
-9303.06
-9303.12
-9303.19
-9303.26
-9303.33
-9303.4
-9303.46
-9303.53
-9303.59
-9303.64
-9303.69
-9303.74
-9303.78
-9303.82
-9303.85
-9303.88
-9303.9
-9303.91
-9303.93
-9303.94
-9303.94
-9303.94
-9303.94
-9303.94
-9303.93
-9303.92
-9303.91
-9303.89
-9303.88
-9303.86
-9303.84
-9303.83
-9303.81
-9303.79
-9303.77
-9303.75
-9303.74
-9303.72
-9303.7
-9303.69
-9303.67
-9303.66
-9303.65
-9303.64
-9303.63
-9303.62
-9303.61
-9303.6
-9303.6
-9303.59
-9303.59
-9303.59
-9303.59
-9303.59
-9303.59
-9303.59
-9303.59
-9303.6
-9303.6
-9303.6
-9303.61
-9303.61
-9303.62
-9303.63
-9303.63
-9303.64
-9303.64
-9303.65
-9303.66
-9303.66
-9303.67
-9303.67
-9303.68
-9303.68
-9303.69
-9303.69
-9303.7
-9303.7
-9303.71
-9303.71
-9303.71
-9303.71
-9303.72
-9303.72
-9303.72
-9303.72
-9303.72
-9303.73
-9303.73
-9303.73
-9303.73
-9303.73
-9303.73
-9303.73
-9303.73
-9453.95
-9453.95
-9453.95
-9453.95
-9453.96
-9453.96
-9453.96
-9453.97
-9467.84
-9467.82
-9467.79
-9467.75
-9467.7
-9467.64
-9467.57
-9467.5
-9467.43
-9467.36
-9467.29
-9467.23
-9467.18
-9467.14