/*--------------------------------*- C++ -*----------------------------------*\
  =========                 |
  \\      /  F ield         | OpenFOAM: The Open Source CFD Toolbox
   \\    /   O peration     | Website:  https://openfoam.org
    \\  /    A nd           | Version:  12
     \\/     M anipulation  |
\*---------------------------------------------------------------------------*/
FoamFile
{
    format      ascii;
    class       volScalarField;
    location    "3";
    object      p_rgh;
}
// * * * * * * * * * * * * * * * * * * * * * * * * * * * * * * * * * * * * * //

dimensions      [1 -1 -2 0 0 0 0];

internalField   nonuniform List<scalar> 
3829
(
-1.07007
-1.06978
-1.06919
-1.06829
-1.06706
-1.06548
-1.06353
-1.06119
-1.05842
-1.0552
-1.0515
-1.04729
-1.04252
-1.03718
-1.03122
-1.02461
-1.01732
-1.00932
-1.00057
-0.991051
-0.980723
-0.969569
-0.957573
-0.944723
-0.931017
-0.916459
-0.901065
-0.884855
-0.867861
-0.850122
-0.831688
-0.812615
-0.792967
-0.772816
-0.752241
-0.73132
-0.710146
-0.688816
-0.667425
-0.646063
-0.624893
-0.604
-0.583481
-0.563428
-0.543933
-0.525083
-0.506958
-0.489632
-0.47317
-0.457631
-0.443064
-0.42951
-0.416999
-0.405552
-0.39518
-0.385884
-0.377654
-0.370469
-0.364294
-0.359078
-0.354762
-0.351271
-0.348522
-0.34642
-0.344859
-0.343727
-0.342905
-0.342268
-0.341689
-0.341037
-0.340183
-0.338999
-0.337361
-0.335153
-0.332264
-0.328599
-0.324069
-0.318604
-0.312148
-0.304667
-0.296145
-0.286524
-0.275875
-0.264245
-0.251688
-0.238277
-0.224109
-0.209302
-0.193979
-0.178276
-0.162362
-0.146404
-0.130564
-0.115011
-0.0999162
-0.0854506
-0.0717734
-0.0590375
-0.0473802
-0.0369245
-0.0277799
-0.0200324
-0.0137494
-0.00897555
-0.00573137
-0.00403035
-0.00384089
-0.005121
-0.00780721
-0.0118155
-0.0170463
-0.0233837
-0.0306989
-0.0388526
-0.0476969
-0.0570814
-0.0668519
-0.0768506
-0.0869216
-0.0969109
-0.106692
-0.116132
-0.125104
-0.133497
-0.141209
-0.148155
-0.154264
-0.159478
-0.163755
-0.167067
-0.1694
-0.170752
-0.17117
-0.170651
-0.169234
-0.166968
-0.16391
-0.160125
-0.155686
-0.15067
-0.145157
-0.139233
-0.132983
-0.126494
-0.119853
-0.113143
-0.106448
-0.0998594
-0.0934222
-0.0872131
-0.0812979
-0.0757331
-0.0705697
-0.0658516
-0.061615
-0.0578897
-0.0546976
-0.0520536
-0.0499667
-0.0484384
-0.0474648
-0.0470355
-0.0471295
-0.0477297
-0.0488117
-0.0503466
-0.0523026
-0.0546447
-0.0573357
-0.060337
-0.0636083
-0.0671086
-0.0707969
-0.0746322
-0.0785738
-0.0825826
-0.0866206
-0.0906524
-0.0946446
-0.0985662
-0.102389
-0.10609
-0.109644
-0.113027
-0.116185
-0.1192
-0.122033
-0.124668
-0.127101
-0.129329
-0.131349
-0.133162
-0.134772
-0.136177
-0.137379
-0.13838
-0.139182
-0.139786
-0.140191
-0.140395
-1.09865
-1.09848
-1.09813
-1.09759
-1.09683
-1.09583
-1.09455
-1.09296
-1.09102
-1.08867
-1.08586
-1.08253
-1.07863
-1.0741
-1.06888
-1.06291
-1.0561
-1.0484
-1.03973
-1.03004
-1.01928
-1.00741
-0.994391
-0.980216
-0.964875
-0.948381
-0.930757
-0.912042
-0.89229
-0.871566
-0.849952
-0.82754
-0.804429
-0.78073
-0.756555
-0.732023
-0.707269
-0.682422
-0.657608
-0.632942
-0.608637
-0.584818
-0.561608
-0.539124
-0.517476
-0.496764
-0.477081
-0.458511
-0.441123
-0.424981
-0.410134
-0.39662
-0.384466
-0.373684
-0.364275
-0.356224
-0.349505
-0.344072
-0.339864
-0.336805
-0.334805
-0.33376
-0.333553
-0.334057
-0.335134
-0.336638
-0.338415
-0.340309
-0.342159
-0.343804
-0.345086
-0.345844
-0.345939
-0.345233
-0.343598
-0.340922
-0.337106
-0.332072
-0.32576
-0.318141
-0.309207
-0.298952
-0.287436
-0.274704
-0.260841
-0.245949
-0.23016
-0.213623
-0.1965
-0.178969
-0.161216
-0.143452
-0.125872
-0.108677
-0.0920656
-0.076233
-0.061358
-0.0476122
-0.035145
-0.0240875
-0.014552
-0.00662335
-0.000364506
0.00418572
0.00700271
0.00813125
0.00759872
0.00547026
0.00183132
-0.00321278
-0.00953917
-0.0170099
-0.0254747
-0.0347744
-0.0447427
-0.0552124
-0.0660157
-0.0769855
-0.0879601
-0.098655
-0.109162
-0.119219
-0.128707
-0.137514
-0.145544
-0.152713
-0.158957
-0.164224
-0.168478
-0.171702
-0.17389
-0.175056
-0.175202
-0.174384
-0.172643
-0.170032
-0.166616
-0.162465
-0.157658
-0.152277
-0.146408
-0.140141
-0.133564
-0.126767
-0.119839
-0.112863
-0.105919
-0.0991712
-0.0925384
-0.0861702
-0.080126
-0.0744598
-0.0692206
-0.0644507
-0.0601846
-0.0564506
-0.0532689
-0.0506525
-0.0486082
-0.0471353
-0.0462275
-0.045872
-0.0460498
-0.0467392
-0.0479139
-0.0495437
-0.0515954
-0.0540327
-0.0568172
-0.0599096
-0.0632688
-0.0668529
-0.0706201
-0.0745288
-0.0785384
-0.0826088
-0.0867019
-0.090782
-0.0948157
-0.0987719
-0.102623
-0.106347
-0.109927
-0.113362
-0.116414
-0.119474
-0.122315
-0.124948
-0.127375
-0.129594
-0.131605
-0.13341
-0.13501
-0.136405
-0.137597
-0.13859
-0.139384
-0.139981
-0.140381
-0.140583
-1.138
-1.13819
-1.13858
-1.13913
-1.13983
-1.14063
-1.14145
-1.14224
-1.14289
-1.1433
-1.14334
-1.14289
-1.14181
-1.13995
-1.13719
-1.13336
-1.12833
-1.12196
-1.11411
-1.10467
-1.09354
-1.08063
-1.06589
-1.0493
-1.03085
-1.01056
-0.988509
-0.964765
-0.939444
-0.912678
-0.884623
-0.855446
-0.825325
-0.794437
-0.762998
-0.731238
-0.699369
-0.667596
-0.636116
-0.605082
-0.574873
-0.545634
-0.517515
-0.490662
-0.465209
-0.441279
-0.418979
-0.398402
-0.379626
-0.362714
-0.34771
-0.334644
-0.323528
-0.314354
-0.307097
-0.301711
-0.298125
-0.296247
-0.295968
-0.297159
-0.299676
-0.303357
-0.308025
-0.31349
-0.319553
-0.326004
-0.332626
-0.339198
-0.34552
-0.351351
-0.35651
-0.360784
-0.36398
-0.365921
-0.366451
-0.365433
-0.362755
-0.358333
-0.352115
-0.344065
-0.334148
-0.322525
-0.309182
-0.294221
-0.277779
-0.260015
-0.241121
-0.22131
-0.200809
-0.179862
-0.15872
-0.13765
-0.116913
-0.0967644
-0.0774525
-0.0592151
-0.0422658
-0.0268026
-0.012993
-0.000977753
0.00912867
0.0172488
0.0233374
0.0273866
0.0293615
0.0293585
0.027451
0.0237385
0.0183441
0.0114143
0.00311216
-0.00638366
-0.0168867
-0.0282023
-0.0401305
-0.0524753
-0.0650432
-0.0776413
-0.0900814
-0.10219
-0.11385
-0.124903
-0.135217
-0.144683
-0.153207
-0.160712
-0.16714
-0.17245
-0.176621
-0.179645
-0.181534
-0.182313
-0.182012
-0.180681
-0.178379
-0.175172
-0.171136
-0.166355
-0.160917
-0.154913
-0.148439
-0.14159
-0.134462
-0.12715
-0.119747
-0.112342
-0.105021
-0.0978852
-0.0909672
-0.084351
-0.0781009
-0.0722719
-0.0669117
-0.0620608
-0.0577512
-0.0540084
-0.0508493
-0.048284
-0.0463158
-0.0449406
-0.0441483
-0.0439223
-0.0442424
-0.045083
-0.0464149
-0.0482051
-0.0504181
-0.0530157
-0.0559578
-0.0592033
-0.0627099
-0.0664343
-0.0703338
-0.0743658
-0.0784887
-0.0826619
-0.0868469
-0.0910075
-0.0951102
-0.0991236
-0.10302
-0.106776
-0.110371
-0.11378
-0.116946
-0.119969
-0.122796
-0.125418
-0.127832
-0.130037
-0.132034
-0.133823
-0.135406
-0.136785
-0.137962
-0.138939
-0.13972
-0.140305
-0.140697
-0.140894
-1.16779
-1.16887
-1.17103
-1.17425
-1.17848
-1.18363
-1.18957
-1.19613
-1.2031
-1.21025
-1.21731
-1.22398
-1.23
-1.23504
-1.23876
-1.2408
-1.24083
-1.23856
-1.2337
-1.22601
-1.21529
-1.20138
-1.1842
-1.16372
-1.13995
-1.11301
-1.08306
-1.05031
-1.01504
-0.977562
-0.938204
-0.897325
-0.855293
-0.812465
-0.769197
-0.725828
-0.68268
-0.640052
-0.598224
-0.557844
-0.519023
-0.481986
-0.446944
-0.414081
-0.383553
-0.355497
-0.330023
-0.30722
-0.287157
-0.26988
-0.255414
-0.243759
-0.234893
-0.228767
-0.225304
-0.224397
-0.225912
-0.229686
-0.235538
-0.243262
-0.252635
-0.263411
-0.27533
-0.288115
-0.301484
-0.315146
-0.328805
-0.341814
-0.354523
-0.366304
-0.376885
-0.385998
-0.393395
-0.398858
-0.402191
-0.403231
-0.401851
-0.397959
-0.391508
-0.38249
-0.370958
-0.356989
-0.340698
-0.322258
-0.301877
-0.279797
-0.256296
-0.231683
-0.206277
-0.180418
-0.154453
-0.128733
-0.103602
-0.0793886
-0.0564064
-0.0349478
-0.0152713
0.00239435
0.0178642
0.0309901
0.041662
0.0498175
0.0554319
0.0585188
0.0592093
0.0575284
0.0536131
0.0476233
0.0397445
0.0301807
0.0191505
0.0068864
-0.0063741
-0.0203908
-0.0349224
-0.0497368
-0.0646119
-0.0793346
-0.0936224
-0.107449
-0.120582
-0.132871
-0.144191
-0.154437
-0.163524
-0.171386
-0.17798
-0.183278
-0.187273
-0.189974
-0.191412
-0.191661
-0.190742
-0.188716
-0.185662
-0.181663
-0.176813
-0.171209
-0.164951
-0.158144
-0.150891
-0.143299
-0.135469
-0.127502
-0.119497
-0.111547
-0.103743
-0.0961677
-0.088881
-0.0819552
-0.0754529
-0.0694273
-0.0639239
-0.05898
-0.0546247
-0.0508794
-0.0477575
-0.0452649
-0.0434006
-0.0421563
-0.0415175
-0.0414606
-0.0419649
-0.0430002
-0.0445335
-0.0465284
-0.0489469
-0.0517482
-0.05489
-0.0583293
-0.0620221
-0.0659237
-0.0699899
-0.0741769
-0.0784422
-0.0827445
-0.0870445
-0.0913059
-0.0954946
-0.0995793
-0.103532
-0.10733
-0.11095
-0.114363
-0.117569
-0.120586
-0.123402
-0.12601
-0.128408
-0.130595
-0.132572
-0.134341
-0.135903
-0.137261
-0.138417
-0.139376
-0.140139
-0.140709
-0.14109
-0.141281
-1.15712
-1.16002
-1.16587
-1.17462
-1.18617
-1.20032
-1.21679
-1.23524
-1.25523
-1.27632
-1.298
-1.31963
-1.34043
-1.35967
-1.3766
-1.39054
-1.40083
-1.40687
-1.40815
-1.40424
-1.39477
-1.37952
-1.35837
-1.33131
-1.29853
-1.26032
-1.21715
-1.16958
-1.11829
-1.06389
-1.00696
-0.948173
-0.888204
-0.82772
-0.767294
-0.70743
-0.648591
-0.591166
-0.535477
-0.482765
-0.43309
-0.386574
-0.34339
-0.303698
-0.267641
-0.235339
-0.206891
-0.182368
-0.161812
-0.145243
-0.132639
-0.123954
-0.119102
-0.117967
-0.120386
-0.126166
-0.135082
-0.146884
-0.161294
-0.17801
-0.196706
-0.217027
-0.238604
-0.26105
-0.283966
-0.306944
-0.329557
-0.351416
-0.372139
-0.391327
-0.40861
-0.42364
-0.436099
-0.445708
-0.452228
-0.455466
-0.455285
-0.451597
-0.444362
-0.433604
-0.41946
-0.402033
-0.38154
-0.358244
-0.332461
-0.304543
-0.27489
-0.243935
-0.212122
-0.179917
-0.147798
-0.116204
-0.0855836
-0.0563597
-0.028923
-0.00362717
0.0192251
0.039376
0.0566293
0.0708403
0.0819157
0.0898241
0.094588
0.0962854
0.0950542
0.0910422
0.0844463
0.0754956
0.0644448
0.0515707
0.0371582
0.0215056
0.0049078
-0.012343
-0.0299582
-0.0476677
-0.065209
-0.0823068
-0.0987972
-0.114514
-0.129263
-0.142892
-0.155278
-0.166326
-0.175964
-0.18414
-0.19083
-0.196025
-0.199735
-0.201979
-0.202761
-0.202411
-0.200732
-0.197858
-0.193897
-0.188957
-0.183148
-0.176583
-0.169375
-0.161642
-0.153499
-0.145059
-0.136432
-0.127726
-0.119044
-0.110482
-0.102146
-0.0940912
-0.0863966
-0.0791319
-0.0723573
-0.0661224
-0.0604698
-0.0554336
-0.0510384
-0.0473018
-0.0442329
-0.0418326
-0.0400953
-0.0390078
-0.0385513
-0.038691
-0.0394087
-0.0406681
-0.0424318
-0.0446601
-0.0473119
-0.0503437
-0.0537111
-0.057369
-0.0612714
-0.0653722
-0.0696255
-0.0739863
-0.0784109
-0.0828573
-0.0872857
-0.0916591
-0.0959435
-0.100107
-0.104122
-0.107966
-0.111623
-0.115029
-0.11826
-0.121277
-0.124082
-0.126673
-0.129052
-0.131218
-0.133173
-0.134919
-0.136457
-0.137791
-0.138924
-0.139861
-0.140604
-0.141157
-0.141524
-0.141708
-1.04763
-1.0542
-1.06743
-1.08727
-1.11351
-1.14575
-1.18344
-1.22578
-1.27178
-1.32022
-1.36975
-1.41905
-1.46681
-1.51174
-1.55261
-1.58825
-1.61757
-1.63958
-1.65335
-1.65809
-1.65308
-1.63781
-1.61203
-1.57582
-1.52955
-1.47386
-1.40967
-1.33814
-1.2606
-1.17861
-1.09383
-1.00762
-0.921159
-0.835403
-0.751175
-0.669185
-0.590057
-0.51444
-0.442928
-0.37481
-0.31194
-0.254324
-0.202033
-0.155132
-0.11367
-0.0776991
-0.04723
-0.0222705
-0.00279078
0.0112817
0.0200453
0.0236345
0.022226
0.0160411
0.00534049
-0.00958285
-0.028404
-0.0507644
-0.0762714
-0.104505
-0.135018
-0.167328
-0.20094
-0.235333
-0.269976
-0.304316
-0.33785
-0.370035
-0.400349
-0.42829
-0.453392
-0.475219
-0.493375
-0.50752
-0.517372
-0.522713
-0.523394
-0.519341
-0.510553
-0.497146
-0.47924
-0.457081
-0.430991
-0.401357
-0.36863
-0.333309
-0.295946
-0.257129
-0.217456
-0.177534
-0.138112
-0.0995339
-0.0624861
-0.0274839
0.00499881
0.0345518
0.0608317
0.0835553
0.102526
0.117616
0.12877
0.135999
0.139381
0.139128
0.135392
0.128422
0.118502
0.10595
0.091108
0.0743348
0.0559932
0.0364517
0.0160679
-0.00481022
-0.0258477
-0.0467479
-0.0672439
-0.0867345
-0.105591
-0.123306
-0.139721
-0.154698
-0.168127
-0.179927
-0.190043
-0.198445
-0.205131
-0.210118
-0.213448
-0.215191
-0.215468
-0.214117
-0.211478
-0.207614
-0.202628
-0.196638
-0.189771
-0.182154
-0.173914
-0.165179
-0.156077
-0.14673
-0.137255
-0.127766
-0.118371
-0.109166
-0.100284
-0.0917298
-0.0836152
-0.076005
-0.0689552
-0.062513
-0.0567167
-0.0515965
-0.0471729
-0.0434587
-0.0404582
-0.0381672
-0.0365746
-0.0356626
-0.0354101
-0.0357645
-0.0367148
-0.038217
-0.0402287
-0.0427068
-0.0456072
-0.0488841
-0.0524908
-0.0563801
-0.0605042
-0.0648153
-0.0692658
-0.0738095
-0.0784015
-0.0829989
-0.0875614
-0.092052
-0.096436
-0.100681
-0.10476
-0.108649
-0.112326
-0.115765
-0.118996
-0.122007
-0.124797
-0.12737
-0.129728
-0.131873
-0.133804
-0.135525
-0.137037
-0.138346
-0.139454
-0.140368
-0.141089
-0.141623
-0.141975
-0.142151
-0.809436
-0.822942
-0.850223
-0.891196
-0.945427
-1.01222
-1.09059
-1.17929
-1.27648
-1.37957
-1.48573
-1.59198
-1.69525
-1.79255
-1.88105
-1.95824
-2.02187
-2.07003
-2.10118
-2.11415
-2.10821
-2.08299
-2.03855
-1.97534
-1.8944
-1.79742
-1.68684
-1.56604
-1.43903
-1.30968
-1.18091
-1.05405
-0.93032
-0.810739
-0.696118
-0.587099
-0.484207
-0.387752
-0.297942
-0.214512
-0.140712
-0.0743833
-0.0152611
0.0366749
0.0813824
0.118859
0.149111
0.172206
0.188266
0.19744
0.199922
0.195952
0.185817
0.169834
0.148362
0.1218
0.0905874
0.0552031
0.0161609
-0.0259882
-0.0706625
-0.117236
-0.16506
-0.213469
-0.261766
-0.309312
-0.355405
-0.39937
-0.440548
-0.478316
-0.512104
-0.541372
-0.56563
-0.584491
-0.59762
-0.604774
-0.605811
-0.600681
-0.58944
-0.572237
-0.549332
-0.521081
-0.48794
-0.450452
-0.409238
-0.364974
-0.318401
-0.270298
-0.221438
-0.172614
-0.124717
-0.0782727
-0.0340685
0.00726956
0.0451889
0.079214
0.108972
0.134175
0.154638
0.170269
0.181064
0.187114
0.188579
0.185757
0.178893
0.168344
0.154499
0.137774
0.118609
0.0974511
0.0747488
0.0509429
0.0264549
0.00169273
-0.022962
-0.0471666
-0.0705832
-0.0929043
-0.114024
-0.133691
-0.151721
-0.167978
-0.182366
-0.19482
-0.205308
-0.213823
-0.220386
-0.225041
-0.227856
-0.228919
-0.228331
-0.226132
-0.222506
-0.217585
-0.211502
-0.204396
-0.19641
-0.187687
-0.178369
-0.168596
-0.158505
-0.148227
-0.137886
-0.127601
-0.117487
-0.107652
-0.0981894
-0.0891517
-0.0806264
-0.0726796
-0.0653652
-0.0587268
-0.0527993
-0.0476082
-0.0431696
-0.0394916
-0.0365734
-0.0344054
-0.0329708
-0.0322445
-0.0321919
-0.0327901
-0.0339873
-0.0357421
-0.03801
-0.0407447
-0.0438998
-0.047427
-0.0512775
-0.0554024
-0.0597518
-0.0642762
-0.0689266
-0.0736553
-0.0784161
-0.0831656
-0.087863
-0.092471
-0.096955
-0.101282
-0.105425
-0.109358
-0.113055
-0.116516
-0.119748
-0.122748
-0.125522
-0.128075
-0.130412
-0.132533
-0.13444
-0.136135
-0.137621
-0.138903
-0.139987
-0.140877
-0.141576
-0.142089
-0.142424
-0.14259
-0.28108
-0.305724
-0.355446
-0.430406
-0.530227
-0.653724
-0.799115
-0.963087
-1.14187
-1.32662
-1.51186
-1.69262
-1.86353
-2.01957
-2.15699
-2.27343
-2.36755
-2.43851
-2.48579
-2.50893
-2.50738
-2.4804
-2.42708
-2.34655
-2.23838
-2.10309
-1.9427
-1.76384
-1.58031
-1.39879
-1.22172
-1.05106
-0.887822
-0.732558
-0.586201
-0.449714
-0.323723
-0.208499
-0.104161
-0.0109135
0.073811
0.148594
0.213484
0.268634
0.314314
0.350748
0.378149
0.396741
0.406768
0.408494
0.402213
0.388267
0.36703
0.338906
0.30435
0.263867
0.218012
0.167388
0.112641
0.054462
-0.00641956
-0.0692164
-0.133143
-0.197323
-0.260967
-0.323214
-0.383216
-0.440152
-0.49322
-0.54165
-0.584735
-0.621839
-0.652397
-0.675942
-0.692112
-0.700628
-0.701364
-0.694306
-0.679609
-0.657487
-0.628317
-0.592604
-0.550976
-0.50416
-0.452985
-0.398339
-0.341176
-0.282497
-0.223288
-0.164546
-0.107276
-0.05226
-0.000368882
0.047662
0.0912038
0.129736
0.162861
0.190294
0.211893
0.227624
0.237556
0.241879
0.240892
0.234875
0.224296
0.20961
0.191314
0.169939
0.146023
0.120114
0.0927374
0.0644123
0.0356254
0.00683433
-0.0215353
-0.0491104
-0.0754487
-0.10047
-0.123857
-0.14541
-0.164962
-0.182389
-0.197617
-0.210604
-0.221339
-0.229844
-0.236165
-0.240376
-0.242568
-0.242852
-0.241363
-0.238196
-0.233518
-0.227487
-0.220263
-0.212004
-0.202871
-0.193023
-0.182614
-0.171795
-0.160713
-0.149505
-0.138303
-0.127231
-0.116408
-0.105965
-0.0959426
-0.0864321
-0.0775128
-0.0692469
-0.0616855
-0.0548682
-0.0488254
-0.0435781
-0.0391381
-0.035509
-0.0326845
-0.0306501
-0.0293836
-0.0288533
-0.02902
-0.0298558
-0.0313018
-0.0333113
-0.035836
-0.0388271
-0.0422356
-0.0460115
-0.0501038
-0.0544618
-0.059034
-0.0637691
-0.0686167
-0.0735274
-0.0784542
-0.0833526
-0.0881818
-0.0929046
-0.0974862
-0.101894
-0.106097
-0.110072
-0.11379
-0.117265
-0.120493
-0.123481
-0.126237
-0.128769
-0.131083
-0.133181
-0.135065
-0.136734
-0.138193
-0.139449
-0.140507
-0.141374
-0.14205
-0.142542
-0.14286
-0.143015
0.57075
0.525163
0.433071
0.294347
0.110008
-0.11695
-0.38012
-0.671914
-0.994907
-1.33534
-1.68121
-2.02071
-2.34453
-2.64052
-2.89797
-3.11608
-3.29422
-3.4296
-3.51899
-3.55952
-3.54911
-3.4868
-3.37317
-3.21031
-3.00104
-2.74749
-2.45114
-2.12468
-1.80857
-1.51449
-1.24314
-0.995548
-0.772519
-0.57233
-0.393086
-0.232621
-0.0891198
0.0389022
0.152519
0.252573
0.343101
0.419106
0.483735
0.537233
0.579845
0.61178
0.633303
0.644677
0.646185
0.63815
0.620931
0.594915
0.56054
0.518292
0.468715
0.412412
0.350055
0.282369
0.210137
0.1342
0.0554427
-0.0251921
-0.106725
-0.188118
-0.268398
-0.346529
-0.421501
-0.492316
-0.557999
-0.617636
-0.670411
-0.715561
-0.752423
-0.78047
-0.799288
-0.808599
-0.80831
-0.798489
-0.779305
-0.751119
-0.714452
-0.669969
-0.618506
-0.561012
-0.498544
-0.432229
-0.363281
-0.292932
-0.222413
-0.152965
-0.0856894
-0.0216019
0.0383034
0.0931956
0.142374
0.185279
0.221512
0.250822
0.273119
0.288446
0.296969
0.298986
0.294944
0.285251
0.27046
0.251164
0.227998
0.201603
0.172631
0.141717
0.109477
0.0764967
0.0433213
0.0104617
-0.0216078
-0.0524485
-0.0817413
-0.109315
-0.134859
-0.158173
-0.179115
-0.197578
-0.21351
-0.226897
-0.237754
-0.246131
-0.252104
-0.255772
-0.257255
-0.256686
-0.254252
-0.250054
-0.244281
-0.237113
-0.228729
-0.219308
-0.209027
-0.198059
-0.186569
-0.17472
-0.162665
-0.15055
-0.138511
-0.126676
-0.115158
-0.104161
-0.0935939
-0.0836349
-0.0743458
-0.0657845
-0.0579977
-0.0510208
-0.0448797
-0.0395912
-0.0351627
-0.0315932
-0.0288712
-0.0269776
-0.0258846
-0.0255555
-0.0259465
-0.0270177
-0.0287102
-0.030971
-0.0337479
-0.0369895
-0.0406451
-0.044663
-0.0489903
-0.0535745
-0.0583627
-0.0633018
-0.0683401
-0.0734267
-0.0785132
-0.0835547
-0.0885102
-0.0933428
-0.0980178
-0.102502
-0.106764
-0.110773
-0.114516
-0.117998
-0.121219
-0.124191
-0.126927
-0.129437
-0.131729
-0.133806
-0.135666
-0.13731
-0.138743
-0.139972
-0.141007
-0.141851
-0.142505
-0.142975
-0.143273
-0.143417
1.92941
1.86468
1.73068
1.51954
1.21888
0.823739
0.351339
-0.0702431
-0.98327
-1.68724
-2.29782
-2.81206
-3.23856
-3.59241
-3.886
-4.12039
-4.29731
-4.42225
-4.50216
-4.5423
-4.54223
-4.49412
-4.38497
-4.19951
-3.9228
-3.5584
-3.0489
-2.24024
-1.69362
-1.3001
-1.00978
-0.743699
-0.507514
-0.296119
-0.106761
0.0618987
0.211551
0.34368
0.459355
0.559629
0.645222
0.720432
0.782085
0.831041
0.867765
0.892639
0.905966
0.908031
0.89913
0.879588
0.849772
0.810106
0.761073
0.703215
0.637166
0.563613
0.483344
0.397216
0.306156
0.211151
0.113257
0.0135949
-0.0866554
-0.186315
-0.28419
-0.379058
-0.469715
-0.555002
-0.633765
-0.704938
-0.767566
-0.820776
-0.863802
-0.896043
-0.917044
-0.926513
-0.924372
-0.910998
-0.886414
-0.85113
-0.805831
-0.751406
-0.688918
-0.619566
-0.544669
-0.465623
-0.383909
-0.301022
-0.218429
-0.137805
-0.0600829
0.0133606
0.0814134
0.143153
0.197821
0.244837
0.283823
0.314579
0.337092
0.3515
0.358084
0.357233
0.349699
0.335844
0.316407
0.292132
0.263783
0.232122
0.1979
0.161851
0.124667
0.0870002
0.0494476
0.0125545
-0.0231662
-0.0570413
-0.0892045
-0.1192
-0.146753
-0.171678
-0.193854
-0.213205
-0.229701
-0.243357
-0.254218
-0.26236
-0.267893
-0.270942
-0.271658
-0.270223
-0.266774
-0.261511
-0.254625
-0.246314
-0.236777
-0.226206
-0.214796
-0.202733
-0.190192
-0.177345
-0.164353
-0.151366
-0.138527
-0.12597
-0.113826
-0.102236
-0.0911882
-0.0808159
-0.0711868
-0.0623563
-0.0543673
-0.0472506
-0.0410281
-0.0357123
-0.0313063
-0.0278045
-0.0251909
-0.0234418
-0.0225245
-0.0223969
-0.0230096
-0.0243136
-0.026247
-0.0287517
-0.031772
-0.0352545
-0.0391471
-0.0433967
-0.0479489
-0.0527495
-0.0577438
-0.0628776
-0.0680976
-0.0733514
-0.0785896
-0.0837664
-0.0888409
-0.0937771
-0.0985406
-0.103097
-0.107414
-0.111454
-0.115219
-0.118704
-0.121915
-0.124869
-0.127583
-0.130072
-0.132343
-0.134399
-0.136237
-0.137857
-0.139263
-0.140467
-0.141479
-0.142301
-0.142934
-0.143382
-0.143661
-0.143793
3.79204
3.72189
3.57697
3.34878
3.02325
2.57244
1.96568
1.17218
0.0154382
-0.899093
-1.72482
-2.45298
-3.08908
-3.64084
-4.11438
-4.51244
-4.83431
-5.07592
-5.23052
-5.29134
-5.25553
-5.12575
-4.90711
-4.60235
-4.20883
-3.7599
-3.27586
-2.05126
-1.65554
-1.20178
-0.763477
-0.429541
-0.154966
0.0719991
0.263169
0.427717
0.570722
0.695334
0.803921
0.897723
0.977877
1.04569
1.09882
1.13966
1.16805
1.18399
1.18759
1.17903
1.15853
1.12637
1.08291
1.02858
0.963904
0.889471
0.805982
0.714227
0.615111
0.509612
0.398813
0.283862
0.165983
0.0464853
-0.0731953
-0.191813
-0.30788
-0.419993
-0.526762
-0.626832
-0.718889
-0.801696
-0.874166
-0.935304
-0.984247
-1.02033
-1.04305
-1.05204
-1.0469
-1.02962
-0.998803
-0.955451
-0.900531
-0.835162
-0.760662
-0.678502
-0.59028
-0.497683
-0.402476
-0.30645
-0.211302
-0.119163
-0.0307731
0.0521047
0.128248
0.196658
0.25654
0.307308
0.348623
0.380356
0.402593
0.415598
0.419796
0.415819
0.404165
0.385734
0.361328
0.331817
0.29809
0.261021
0.221474
0.180263
0.138156
0.0958656
0.0540318
0.0132131
-0.0261756
-0.0625804
-0.0976029
-0.12987
-0.159253
-0.185618
-0.208868
-0.228957
-0.245882
-0.259686
-0.270446
-0.278266
-0.283286
-0.285658
-0.285556
-0.283208
-0.278755
-0.272426
-0.264433
-0.254995
-0.244326
-0.232636
-0.220134
-0.207016
-0.193468
-0.179669
-0.165785
-0.151973
-0.138376
-0.12514
-0.112412
-0.100275
-0.0887767
-0.0780246
-0.0680862
-0.0590133
-0.0508452
-0.0436083
-0.0373202
-0.0319893
-0.0276144
-0.024186
-0.0216841
-0.0200803
-0.0193373
-0.0194081
-0.0202372
-0.0217676
-0.0239335
-0.0266719
-0.0299239
-0.0336349
-0.037752
-0.0422208
-0.0469856
-0.0519905
-0.0571794
-0.0624967
-0.0678879
-0.0732991
-0.0786795
-0.0839827
-0.0891682
-0.094201
-0.0990471
-0.103672
-0.108039
-0.112109
-0.115891
-0.119375
-0.122574
-0.125508
-0.1282
-0.130667
-0.132918
-0.134955
-0.136772
-0.138369
-0.13975
-0.140929
-0.14192
-0.142723
-0.143336
-0.143761
-0.14402
-0.144139
6.03171
6.00216
5.94371
5.85678
5.75119
5.62741
5.5526
5.39836
-0.332325
-0.15796
-0.0784166
0.0699315
0.231116
0.392301
0.547871
0.694987
0.830665
0.953707
1.06376
1.16048
1.2441
1.31467
1.37198
1.41843
1.45134
1.47096
1.4774
1.4707
1.45096
1.41834
1.37306
1.31546
1.24597
1.16514
1.07361
0.972166
0.861691
0.743209
0.617838
0.4868
0.351426
0.213121
0.0733905
-0.0661843
-0.204045
-0.338567
-0.468136
-0.591163
-0.706094
-0.811431
-0.905787
-0.987925
-1.05673
-1.11127
-1.15082
-1.17489
-1.1833
-1.17641
-1.15265
-1.11439
-1.06208
-0.996727
-0.919632
-0.832359
-0.736677
-0.634482
-0.527767
-0.418614
-0.309108
-0.201288
-0.0972198
0.00175745
0.0939367
0.177954
0.252736
0.317461
0.371563
0.414757
0.446995
0.468486
0.479619
0.480979
0.473349
0.457408
0.434162
0.404586
0.369693
0.3305
0.287994
0.243138
0.196831
0.149907
0.103134
0.05719
0.0126908
-0.0297847
-0.0694809
-0.106785
-0.141064
-0.172083
-0.199713
-0.223879
-0.244564
-0.261794
-0.27564
-0.286211
-0.293641
-0.298096
-0.299752
-0.298801
-0.295536
-0.290087
-0.282706
-0.273631
-0.263097
-0.251335
-0.238571
-0.225024
-0.210903
-0.196401
-0.181703
-0.166981
-0.152394
-0.138088
-0.124211
-0.110958
-0.0983161
-0.0863995
-0.0753014
-0.065084
-0.0557951
-0.0474698
-0.0401307
-0.033791
-0.0284552
-0.0241181
-0.0207665
-0.0183769
-0.0169166
-0.016344
-0.0166075
-0.0176453
-0.0193934
-0.0217812
-0.0247409
-0.0282112
-0.0321365
-0.0364639
-0.0411382
-0.046102
-0.051298
-0.0566687
-0.0621575
-0.0677085
-0.0732664
-0.0787791
-0.0841994
-0.0894871
-0.094609
-0.0995318
-0.10422
-0.108631
-0.112733
-0.116528
-0.120008
-0.123192
-0.126105
-0.128775
-0.13122
-0.133453
-0.135473
-0.137271
-0.138845
-0.140202
-0.141358
-0.142328
-0.143114
-0.143708
-0.144112
-0.14435
-0.144455
8.19431
8.1779
8.14599
8.10063
8.04424
7.98316
7.93369
7.84967
0.30906
0.436621
0.52153
0.628728
0.754783
0.879923
1.00312
1.1215
1.23298
1.33635
1.4304
1.51434
1.58737
1.64877
1.69802
1.73515
1.75916
1.7697
1.76654
1.74952
1.71859
1.67382
1.61537
1.54357
1.45883
1.36173
1.25298
1.13345
1.0041
0.8661
0.720702
0.569293
0.413372
0.25453
0.0944826
-0.065012
-0.222155
-0.375122
-0.522089
-0.661259
-0.79089
-0.909308
-1.01496
-1.10647
-1.18261
-1.24234
-1.28489
-1.30974
-1.31664
-1.30564
-1.27667
-1.23082
-1.16909
-1.09275
-1.00338
-0.902837
-0.793166
-0.676605
-0.55546
-0.432119
-0.308997
-0.188479
-0.0726286
0.0368124
0.138051
0.229617
0.310388
0.379534
0.436518
0.481132
0.513438
0.533754
0.542625
0.540775
0.529239
0.508782
0.480563
0.445713
0.405392
0.360743
0.312863
0.262804
0.211543
0.159972
0.108906
0.0590571
0.0110736
-0.0343774
-0.076898
-0.116412
-0.152515
-0.184986
-0.213713
-0.23865
-0.259801
-0.277227
-0.291028
-0.301338
-0.308327
-0.312183
-0.313112
-0.311288
-0.307136
-0.300704
-0.2923
-0.282179
-0.270593
-0.257788
-0.244003
-0.229469
-0.214403
-0.199006
-0.183469
-0.167965
-0.152658
-0.137694
-0.123211
-0.1095
-0.0963873
-0.0840882
-0.0726775
-0.0622103
-0.0527301
-0.0442682
-0.0368431
-0.0304639
-0.0251312
-0.0208366
-0.0175634
-0.0152846
-0.0139639
-0.0135556
-0.0140042
-0.0152412
-0.0171966
-0.0197941
-0.0229616
-0.0266354
-0.03076
-0.0352829
-0.0401481
-0.0452968
-0.0506702
-0.0562095
-0.0618572
-0.0675563
-0.0732501
-0.0788848
-0.0844126
-0.089794
-0.0949976
-0.0999909
-0.104738
-0.109188
-0.113321
-0.117125
-0.1206
-0.123766
-0.126658
-0.129305
-0.131731
-0.133946
-0.135951
-0.137733
-0.139285
-0.140618
-0.141752
-0.142704
-0.143474
-0.144051
-0.144434
-0.14465
-0.144743
10.176
10.1674
10.151
10.1279
10.1007
10.0719
10.0537
10.0163
0.93086
0.998325
1.05408
1.12535
1.21449
1.31104
1.41052
1.50949
1.6051
1.69511
1.77785
1.852
1.91635
1.96984
2.01157
2.04087
2.05683
2.05892
2.04667
2.01976
1.97802
1.92142
1.85009
1.76432
1.66454
1.55138
1.4256
1.28813
1.14008
0.982727
0.817466
0.645858
0.469569
0.290387
0.110235
-0.0689434
-0.245125
-0.416267
-0.580331
-0.735329
-0.879326
-1.01047
-1.12704
-1.22753
-1.31059
-1.3751
-1.42023
-1.44541
-1.45037
-1.43523
-1.40024
-1.34638
-1.27486
-1.1872
-1.08524
-0.971134
-0.847262
-0.71618
-0.580515
-0.44298
-0.306287
-0.173319
-0.0459238
0.0736945
0.18363
0.282337
0.368658
0.441768
0.501185
0.546783
0.578744
0.597526
0.603841
0.598622
0.582907
0.557782
0.524517
0.484387
0.438688
0.388678
0.335562
0.280472
0.224459
0.16846
0.113333
0.0598093
0.00853932
-0.0396236
-0.0846956
-0.126249
-0.163993
-0.197742
-0.227411
-0.252983
-0.27449
-0.29202
-0.305702
-0.315702
-0.322213
-0.325457
-0.325668
-0.323148
-0.317964
-0.310571
-0.301182
-0.290063
-0.277479
-0.263689
-0.248943
-0.233483
-0.217535
-0.201306
-0.18499
-0.168765
-0.152794
-0.137225
-0.122164
-0.108073
-0.0945111
-0.0818671
-0.0701763
-0.0594867
-0.0498383
-0.0412582
-0.0337614
-0.0273528
-0.0220296
-0.0177802
-0.0145851
-0.0124141
-0.0112275
-0.0109759
-0.0115998
-0.0130262
-0.0151772
-0.0179713
-0.0213321
-0.0251942
-0.0295028
-0.034206
-0.0392475
-0.044567
-0.0501038
-0.0557985
-0.0615926
-0.067428
-0.0732469
-0.0789936
-0.0846196
-0.090086
-0.0953639
-0.100422
-0.105225
-0.10971
-0.113871
-0.117682
-0.121148
-0.124297
-0.127166
-0.129791
-0.132198
-0.134398
-0.136389
-0.138156
-0.139689
-0.140999
-0.142112
-0.143047
-0.143804
-0.144366
-0.144728
-0.144923
-0.145001
11.9693
11.9648
11.9563
11.9445
11.9306
11.9169
11.9064
11.8919
1.4183
1.44632
1.49508
1.5492
1.61872
1.69641
1.77887
1.86335
1.94692
2.02696
2.10131
2.16817
2.22593
2.27318
2.30871
2.33141
2.34056
2.33515
2.31459
2.27847
2.22651
2.15862
2.0749
1.97563
1.86126
1.73245
1.59004
1.43507
1.26872
1.09242
0.907722
0.71634
0.520122
0.321048
0.121266
-0.0771319
-0.271876
-0.46071
-0.641389
-0.811728
-0.9696
-1.11298
-1.24
-1.34901
-1.43856
-1.50743
-1.55474
-1.57988
-1.58259
-1.56306
-1.52171
-1.45958
-1.37807
-1.27892
-1.16426
-1.03653
-0.898458
-0.752914
-0.602863
-0.451328
-0.301244
-0.1563
-0.0176764
0.111706
0.229888
0.335264
0.42666
0.503275
0.564692
0.610883
0.642147
0.659097
0.662609
0.653885
0.633878
0.604044
0.565756
0.520423
0.469467
0.414262
0.356108
0.296213
0.23569
0.175518
0.116587
0.0596474
0.00535985
-0.0453598
-0.0927073
-0.136101
-0.175306
-0.210171
-0.240642
-0.26673
-0.288496
-0.306055
-0.319564
-0.329217
-0.335232
-0.337857
-0.337351
-0.333993
-0.327975
-0.319674
-0.309354
-0.297291
-0.283768
-0.269055
-0.253412
-0.237091
-0.220325
-0.203327
-0.186294
-0.169406
-0.152827
-0.136709
-0.12119
-0.106602
-0.0927028
-0.0797543
-0.067814
-0.0569273
-0.0471313
-0.0384496
-0.0308935
-0.0244639
-0.0191546
-0.0149518
-0.0118331
-0.0097657
-0.00870642
-0.00860304
-0.00939128
-0.0109965
-0.0133306
-0.016308
-0.0198476
-0.0238828
-0.0283599
-0.0332284
-0.0384319
-0.0439081
-0.0495948
-0.0554319
-0.0613601
-0.0673205
-0.0732539
-0.0791028
-0.084818
-0.0903612
-0.0957066
-0.100823
-0.105678
-0.110195
-0.114381
-0.118198
-0.121654
-0.124784
-0.127631
-0.130235
-0.132624
-0.134811
-0.13679
-0.138543
-0.140058
-0.141346
-0.142439
-0.14336
-0.144106
-0.144653
-0.144995
-0.145169
-0.145234
13.5701
13.5675
13.5625
13.5557
13.5478
13.5401
13.5341
13.5264
1.79416
1.81318
1.85444
1.90109
1.96107
2.02941
2.10302
2.17937
2.25575
2.32961
2.3986
2.46065
2.51389
2.55663
2.58744
2.60503
2.60833
2.59634
2.56832
2.52374
2.46226
2.38374
2.28825
2.17607
2.0477
1.90383
1.74539
1.57349
1.38946
1.19484
0.991324
0.780805
0.5653
0.346969
0.128264
-0.0887139
-0.301368
-0.507242
-0.703896
-0.888946
-1.06009
-1.21513
-1.35205
-1.46908
-1.56465
-1.63748
-1.68662
-1.71144
-1.71168
-1.68756
-1.63968
-1.56918
-1.47763
-1.36702
-1.23972
-1.09851
-0.946419
-0.786671
-0.622554
-0.457404
-0.294448
-0.137708
0.0115646
0.150185
0.276097
0.387638
0.483629
0.563301
0.626317
0.672751
0.70303
0.717923