/*--------------------------------*- C++ -*----------------------------------*\
  =========                 |
  \\      /  F ield         | OpenFOAM: The Open Source CFD Toolbox
   \\    /   O peration     | Website:  https://openfoam.org
    \\  /    A nd           | Version:  12
     \\/     M anipulation  |
\*---------------------------------------------------------------------------*/
FoamFile
{
    format      ascii;
    class       surfaceScalarField;
    location    "3";
    object      phi;
}
// * * * * * * * * * * * * * * * * * * * * * * * * * * * * * * * * * * * * * //

dimensions      [1 0 -1 0 0 0 0];

internalField   nonuniform List<scalar> 
7429
(
0.000100809
-0.000100809
0.000202767
-0.000101959
0.000305679
-0.000102911
0.000409439
-0.000103759
0.000513929
-0.00010449
0.000619017
-0.000105088
0.000724586
-0.000105569
0.000830498
-0.000105912
0.000936604
-0.000106107
0.00104279
-0.000106184
0.00114887
-0.000106082
0.00125472
-0.000105849
0.00136019
-0.000105468
0.00146509
-0.000104902
0.00156925
-0.000104162
0.00167244
-0.00010319
0.00177435
-0.000101906
0.00187467
-0.000100319
0.00197308
-9.84179e-05
0.00206927
-9.61805e-05
0.00216289
-9.36259e-05
0.00225367
-9.0775e-05
0.00234129
-8.76212e-05
0.00242546
-8.41766e-05
0.00250592
-8.04603e-05
0.00258238
-7.64531e-05
0.00265456
-7.21865e-05
0.00272222
-6.76602e-05
0.00278512
-6.2891e-05
0.00284299
-5.78759e-05
0.0028956
-5.261e-05
0.00294274
-4.71406e-05
0.00298418
-4.14339e-05
0.00301969
-3.55178e-05
0.00304891
-2.92161e-05
0.0030717
-2.27877e-05
0.00308826
-1.65606e-05
0.00309866
-1.03969e-05
0.00310289
-4.2373e-06
0.00310009
2.79941e-06
0.00308989
1.02084e-05
0.00307227
1.76121e-05
0.0030472
2.50758e-05
0.00301458
3.26168e-05
0.00297438
4.02038e-05
0.00292657
4.78073e-05
0.00287117
5.54028e-05
0.00280822
6.29423e-05
0.00273783
7.03942e-05
0.00266013
7.77023e-05
0.0025753
8.48322e-05
0.00248358
9.17153e-05
0.00238526
9.83249e-05
0.00228065
0.000104603
0.00217019
0.000110464
0.00205426
0.000115926
0.00193342
0.000120839
0.00180812
0.000125305
0.00167905
0.000129065
0.00154681
0.000132245
0.00141223
0.00013458
0.00127609
0.000136135
0.00113927
0.000136827
0.00100267
0.0001366
0.000867242
0.000135425
0.000733951
0.000133291
0.000603822
0.000130129
0.000477819
0.000126003
0.000357031
0.000120788
0.00024238
0.000114651
0.000134813
0.000107567
3.52326e-05
9.95802e-05
-5.54753e-05
9.07079e-05
-0.000136677
8.12019e-05
-0.000207625
7.0948e-05
-0.000267757
6.01322e-05
-0.00031666
4.89027e-05
-0.000354002
3.73417e-05
-0.000379667
2.56655e-05
-0.000393664
1.39965e-05
-0.000396093
2.42953e-06
-0.000386541
-9.55285e-06
-0.000366077
-2.04632e-05
-0.000335397
-3.06805e-05
-0.000295107
-4.02903e-05
-0.000246126
-4.89804e-05
-0.000189476
-5.66499e-05
-0.000126228
-6.32486e-05
-5.76396e-05
-6.85881e-05
1.50479e-05
-7.26875e-05
9.04568e-05
-7.54089e-05
0.000167201
-7.67447e-05
0.000243889
-7.66876e-05
0.000319185
-7.52957e-05
0.000391741
-7.25559e-05
0.000460303
-6.85629e-05
0.000523736
-6.34323e-05
0.000580947
-5.72107e-05
0.000631055
-5.01085e-05
0.000673239
-4.21844e-05
0.000706877
-3.3638e-05
0.000731513
-2.46358e-05
0.000746857
-1.53437e-05
0.000752774
-5.91759e-06
0.000748918
3.85665e-06
0.000735897
1.30212e-05
0.000714034
2.18625e-05
0.000683807
3.0227e-05
0.000645801
3.80057e-05
0.00060079
4.50115e-05
0.000549551
5.12393e-05
0.000493004
5.65464e-05
0.000432079
6.09254e-05
0.000367788
6.42907e-05
0.000301145
6.66427e-05
0.000233128
6.80175e-05
0.000164747
6.8381e-05
9.69675e-05
6.77793e-05
3.07181e-05
6.62494e-05
-3.32258e-05
6.39439e-05
-9.4026e-05
6.08001e-05
-0.000151003
5.69768e-05
-0.000203523
5.25204e-05
-0.000251113
4.75897e-05
-0.000293313
4.21997e-05
-0.000329831
3.65188e-05
-0.000360432
3.06009e-05
-0.000384932
2.44998e-05
-0.000403362
1.843e-05
-0.000415666
1.23043e-05
-0.000422069
6.40222e-06
-0.000422701
6.32807e-07
-0.000417876
-4.82508e-06
-0.000407896
-9.97989e-06
-0.000393091
-1.48051e-05
-0.000373911
-1.91798e-05
-0.000350792
-2.31192e-05
-0.0003242
-2.65918e-05
-0.000294637
-2.95638e-05
-0.000262608
-3.20289e-05
-0.000228615
-3.39933e-05
-0.000193147
-3.54673e-05
-0.00015671
-3.64376e-05
-0.000119781
-3.69284e-05
-8.28345e-05
-3.69467e-05
-4.6293e-05
-3.65415e-05
-1.05723e-05
-3.57207e-05
2.39651e-05
-3.45374e-05
5.69826e-05
-3.30175e-05
8.8172e-05
-3.11894e-05
0.000117269
-2.90974e-05
0.000144064
-2.67946e-05
0.000168364
-2.42998e-05
0.000190014
-2.16503e-05
0.000208916
-1.89018e-05
0.000225011
-1.60946e-05
0.000238267
-1.32561e-05
0.000248671
-1.04039e-05
0.000256275
-7.60447e-06
0.000261145
-4.87041e-06
0.00026337
-2.22458e-06
0.000263104
2.65857e-07
0.00026048
2.62389e-06
0.000255657
4.8229e-06
0.000248823
6.8343e-06
0.000240171
8.65209e-06
0.00022991
1.02612e-05
0.000218259
1.16509e-05
0.000205434
1.28247e-05
0.000191658
1.3776e-05
0.000177145
1.45133e-05
0.000162122
1.50233e-05
0.000146784
1.53377e-05
0.000131327
1.54572e-05
0.000115936
1.53905e-05
0.000100784
1.51525e-05
8.60148e-05
1.47689e-05
7.17651e-05
1.42496e-05
5.81626e-05
1.36026e-05
4.53138e-05
1.28488e-05
3.3324e-05
1.19898e-05
2.2268e-05
1.1056e-05
1.22188e-05
1.00492e-05
3.22852e-06
8.99023e-06
-4.64978e-06
7.8783e-06
-1.13937e-05
6.74392e-06
-1.69718e-05
5.57807e-06
-2.13779e-05
4.4061e-06
-2.46162e-05
3.2383e-06
-2.67097e-05
2.09356e-06
-2.77042e-05
9.9444e-07
-2.7659e-05
-4.51139e-08
-2.66395e-05
-1.01955e-06
-2.47203e-05
-1.91921e-06
-2.1989e-05
-2.73129e-06
-1.85454e-05
-3.44357e-06
-1.44987e-05
-4.04673e-06
-9.96931e-06
-4.52939e-06
-5.08905e-06
-4.88026e-06
-5.08905e-06
9.98024e-05
-0.000200611
0.000200678
-0.000202834
0.000302443
-0.000204677
0.000404991
-0.000206307
0.000508128
-0.000207628
0.000611771
-0.00020873
0.000715754
-0.000209552
0.000819912
-0.00021007
0.000924099
-0.000210293
0.00102815
-0.00021023
0.001132
-0.000209934
0.00123551
-0.000209358
0.0013385
-0.000208461
0.00144089
-0.000207288
0.00154237
-0.000205642
0.00164245
-0.000203275
0.00174074
-0.000200195
0.00183694
-0.000196516
0.00193076
-0.000192238
0.00202196
-0.000187384
0.00211029
-0.000181958
0.0021955
-0.000175986
0.00227739
-0.000169502
0.00235571
-0.000162505
0.00243029
-0.000155032
0.00250086
-0.000147028
0.00256725
-0.000138575
0.00262923
-0.000129638
0.00268663
-0.000120289
0.00273917
-0.000110419
0.00278667
-0.000100111
0.00282892
-8.93875e-05
0.00286569
-7.82016e-05
0.0028966
-6.6434e-05
0.00292168
-5.42981e-05
0.00294127
-4.23725e-05
0.0029553
-3.05897e-05
0.00296366
-1.87596e-05
0.0029663
-6.87879e-06
0.00296181
7.29713e-06
0.00295027
2.17434e-05
0.0029316
3.62776e-05
0.00290569
5.09856e-05
0.00287244
6.58715e-05
0.00283176
8.08855e-05
0.00278359
9.59715e-05
0.00272793
0.000111069
0.00266477
0.0001261
0.00259418
0.000140981
0.00251626
0.000155628
0.00243115
0.000169936
0.00233907
0.000183798
0.00224023
0.000197169
0.00213496
0.000209871
0.00202364
0.000221784
0.00190664
0.000232929
0.00178456
0.000242912
0.00165794
0.000251928
0.00152746
0.000259546
0.00139379
0.000265913
0.0012578
0.000270572
0.00112031
0.000273627
0.000982245
0.000274887
0.000844678
0.000274167
0.000708491
0.000271611
0.000574884
0.000266898
0.000444789
0.000260224
0.000319325
0.000251467
0.000199566
0.000240547
8.65222e-05
0.000227695
-1.89174e-05
0.000213007
-0.000115699
0.000196362
-0.00020296
0.000177968
-0.000279922
0.000158164
-0.000345925
0.000136951
-0.000400396
0.000114603
-0.000442955
9.14609e-05
-0.000473374
6.77608e-05
-0.000491601
4.38927e-05
-0.000497741
2.01369e-05
-0.000491032
-4.28019e-06
-0.00047312
-2.74643e-05
-0.000444167
-4.94161e-05
-0.000404774
-7.00737e-05
-0.000355954
-8.91107e-05
-0.00029859
-0.000106344
-0.000233855
-0.000121385
-0.00016308
-0.000134024
-8.74684e-05
-0.0001442
-8.54303e-06
-0.000151613
7.23805e-05
-0.000156332
0.000153837
-0.000158202
0.000234382
-0.000157233
0.000312656
-0.000153569
0.000387314
-0.000147214
0.000457112
-0.000138361
0.000520886
-0.000127206
0.000577643
-0.000113968
0.000626579
-9.90448e-05
0.000666973
-8.25789e-05
0.000698298
-6.49622e-05
0.000720185
-4.65235e-05
0.000732438
-2.75961e-05
0.000735055
-8.53459e-06
0.000728386
1.05254e-05
0.000712587
2.88198e-05
0.000688116
4.6334e-05
0.000655557
6.27856e-05
0.000615671
7.78916e-05
0.000569177
9.15054e-05
0.000517038
0.000103379
0.000460136
0.000113448
0.000399471
0.000121591
0.000336073
0.000127689
0.000270914
0.000131802
0.000204984
0.000133947
0.000139202
0.000134163
7.4503e-05
0.000132478
1.17222e-05
0.00012903
-4.84033e-05
0.000124069
-0.000105169
0.000117565
-0.00015793
0.000109738
-0.000206182
0.000100772
-0.000249485
9.08935e-05
-0.000287515
8.02291e-05
-0.000320005
6.90093e-05
-0.000346808
5.74033e-05
-0.00036781
4.55018e-05
-0.00038308
3.37001e-05
-0.000392675
2.18997e-05
-0.000396764
1.0491e-05
-0.000395616
-5.15029e-07
-0.000389456
-1.09855e-05
-0.000378598
-2.08374e-05
-0.000363448
-2.99556e-05
-0.000344357
-3.82709e-05
-0.000321805
-4.56711e-05
-0.000296207
-5.21892e-05
-0.000268041
-5.77304e-05
-0.000237777
-6.22925e-05
-0.000205877
-6.58932e-05
-0.000172813
-6.8531e-05
-0.000139029
-7.02222e-05
-0.000104977
-7.09804e-05
-7.10584e-05
-7.08652e-05
-3.76557e-05
-6.99442e-05
-5.11092e-06
-6.82655e-05
2.62561e-05
-6.59045e-05
5.61217e-05
-6.2883e-05
8.42377e-05
-5.93054e-05
0.00011038
-5.52398e-05
0.000134351
-5.07657e-05
0.000155998
-4.59462e-05
0.000175206
-4.0859e-05
0.000191885
-3.55806e-05
0.000205966
-3.01757e-05
0.000217474
-2.47641e-05
0.000226423
-1.93527e-05
0.000232793
-1.39741e-05
0.000236731
-8.8088e-06
0.000238272
-3.76582e-06
0.000237595
9.42999e-07
0.000234805
5.41388e-06
0.000230055
9.57332e-06
0.000223521
1.33683e-05
0.000215383
1.67898e-05
0.000205834
1.98102e-05
0.000195072
2.24129e-05
0.000183289
2.46076e-05
0.000170684
2.63807e-05
0.000157459
2.77383e-05
0.000143825
2.86576e-05
0.000129945
2.9218e-05
0.000115969
2.94333e-05
0.000102105
2.92544e-05
8.8487e-05
2.87702e-05
7.5264e-05
2.79919e-05
6.24992e-05
2.70144e-05
5.03535e-05
2.57483e-05
3.88666e-05
2.43357e-05
2.81921e-05
2.26643e-05
1.83564e-05
2.08917e-05
9.43227e-06
1.89733e-05
1.50537e-06
1.69171e-05
-5.50713e-06
1.48908e-05
-1.14673e-05
1.27041e-05
-1.63729e-05
1.04836e-05
-2.02185e-05
8.2517e-06
-2.30164e-05
6.03619e-06
-2.47927e-05
3.8699e-06
-2.558e-05
1.7817e-06
-2.54419e-05
-1.83177e-07
-2.44333e-05
-2.02815e-06
-2.26234e-05
-3.72909e-06
-2.00903e-05
-5.26449e-06
-1.69225e-05
-6.61129e-06
-1.32177e-05
-7.75156e-06
-9.08245e-06
-8.66464e-06
-4.63477e-06
-9.32795e-06
-9.72382e-06
0.0001068
-0.000307411
0.000214576
-0.00031061
0.000323157
-0.000313258
0.000432276
-0.000315425
0.000541761
-0.000317113
0.00065135
-0.000318319
0.000760825
-0.000319026
0.00087
-0.000319245
0.000978708
-0.000319002
0.00108684
-0.000318366
0.00119414
-0.000317231
0.00130052
-0.000315736
0.00140595
-0.000313888
0.00151025
-0.000311595
0.00161314
-0.00030853
0.00171413
-0.00030426
0.00181285
-0.000298917
0.00190889
-0.00029256
0.00200195
-0.000285297
0.00209173
-0.000277162
0.00217799
-0.00026822
0.00226053
-0.000258522
0.00233914
-0.000248113
0.00241362
-0.000236989
0.00248381
-0.000225214
0.0025495
-0.000212722
0.00261061
-0.000199688
0.00266695
-0.000185977
0.00271846
-0.000171801
0.00276502
-0.000156973
0.00280657
-0.000141664
0.00284279
-0.000125611
0.00287372
-0.000109124
0.00289954
-9.22537e-05
0.00292098
-7.57405e-05
0.00293787
-5.92612e-05
0.00294986
-4.25824e-05
0.00295666
-2.55632e-05
0.00295826
-8.47127e-06
0.00295211
1.34471e-05
0.00293892
3.49337e-05
0.00291859
5.66065e-05
0.00289095
7.862e-05
0.00285583
0.000100993
0.00281304
0.000123676
0.00276244
0.000146568
0.00270389
0.00016962
0.00263735
0.000192645
0.00256272
0.00021561
0.00248012
0.000238223
0.00238954
0.000260516
0.00229123
0.000282108
0.00218533
0.000303071
0.00207218
0.000323025
0.00195215
0.00034181
0.00182571
0.000359369
0.00169344
0.00037518
0.00155596
0.000389406
0.00141415
0.000401356
0.00126881
0.000411262
0.0011209
0.000418481
0.000971444
0.000423081
0.000821712
0.000424619
0.000672788
0.000423091
0.00052585
0.000418549
0.000382107
0.00041064
0.000242777
0.000399554
0.000109196
0.000385048
-1.75978e-05
0.000367341
-0.000136141
0.000346238
-0.000245441
0.000322308
-0.000344328
0.000295249
-0.000431904
0.000265544
-0.000507327
0.000233587
-0.000569963
0.000199587
-0.000619202
0.000163842
-0.000654747
0.000127006
-0.000676449
8.94623e-05
-0.000684031
5.14746e-05
-0.000677742
1.38482e-05
-0.000658128
-2.38942e-05
-0.000625927
-5.96649e-05
-0.000581701
-9.36424e-05
-0.000526399
-0.000125375
-0.000461132
-0.000154378
-0.000387213
-0.000180264
-0.000306078
-0.00020252
-0.000219173
-0.000220929
-0.000128145
-0.000235227
-3.45605e-05
-0.000245197
5.98551e-05
-0.000250748
0.000153488
-0.000251835
0.000244698
-0.000248443
0.000332046
-0.000240916
0.000414046
-0.000229214
0.000489526
-0.000213841
0.000557292
-0.000194973
0.000616379
-0.000173054
0.000666025
-0.000148691
0.00070564
-0.000122194
0.000734848
-9.41699e-05
0.000753485
-6.51599e-05
0.000761562
-3.56733e-05
0.000759302
-6.27491e-06
0.000747167
2.26608e-05
0.000725515
5.04712e-05
0.000695036
7.6813e-05
0.000656528
0.000101294
0.000610922
0.000123498
0.000559081
0.000143347
0.000502104
0.000160355
0.000441032
0.000174521
0.000376881
0.000185741
0.000310776
0.000193794
0.000243707
0.00019887
0.000176663
0.000200992
0.000110574
0.000200252
4.62585e-05
0.000196793
-1.54573e-05
0.000190746
-7.38218e-05
0.000182434
-0.000128207
0.000171951
-0.000178128
0.000159659
-0.000223228
0.000145872
-0.000263111
0.000130777
-0.000297448
0.000114565
-0.000326111
9.76732e-05
-0.000349177
8.04687e-05
-0.000366636
6.29613e-05
-0.000378329
4.53924e-05
-0.000384745
2.83165e-05
-0.000385821
1.1567e-05
-0.000382049
-4.28777e-06
-0.000373631
-1.9403e-05
-0.000360926
-3.35428e-05
-0.000344347
-4.65345e-05
-0.000324265
-5.83525e-05
-0.000301158
-6.87787e-05
-0.000275436
-7.79111e-05
-0.000247552
-8.5614e-05
-0.000217957
-9.18875e-05
-0.000187105
-9.67449e-05
-0.000155414
-0.000100223
-0.000123281
-0.000102355
-9.10958e-05
-0.000103166
-5.92315e-05
-0.00010273
-2.80284e-05
-0.000101147
2.14946e-06
-9.84433e-05
3.10408e-05
-9.47958e-05
5.84105e-05
-9.02527e-05
8.3998e-05
-8.48929e-05
0.00010765
-7.88921e-05
0.000129206
-7.23217e-05
0.000148534
-6.5274e-05
0.000165549
-5.78739e-05
0.000180188
-5.02192e-05
0.000192415
-4.24029e-05
0.000202259
-3.46077e-05
0.000209703
-2.67976e-05
0.000214837
-1.91072e-05
0.000217726
-1.16978e-05
0.000218459
-4.49881e-06
0.000217192
2.20987e-06
0.00021403
8.57566e-06
0.000209125
1.44783e-05
0.000202626
1.98674e-05
0.000194712
2.47037e-05
0.000185558
2.8964e-05
0.000175341
3.26304e-05
0.000164262
3.56864e-05
0.000152507
3.81357e-05
0.00014027
3.99756e-05
0.000127674
4.12533e-05
0.000114927
4.19644e-05
0.000102207
4.2154e-05
8.95989e-05
4.18623e-05
7.72389e-05
4.11302e-05
6.524e-05
3.99907e-05
5.3756e-05
3.84985e-05
4.28264e-05
3.66778e-05
3.25911e-05
3.4571e-05
2.30334e-05
3.2222e-05
1.42666e-05
2.96585e-05
6.32292e-06
2.6917e-05
-7.9645e-07
2.40365e-05
-6.95799e-06
2.10523e-05
-1.21944e-05
1.79405e-05
-1.64772e-05
1.47665e-05
-1.98042e-05
1.15787e-05
-2.21775e-05
8.40954e-06
-2.36263e-05
5.31869e-06
-2.41876e-05
2.34296e-06
-2.39195e-05
-4.51244e-07
-2.28711e-05
-3.07659e-06
-2.11062e-05
-5.49395e-06
-1.86948e-05
-7.67589e-06
-1.57159e-05
-9.59018e-06
-1.22574e-05
-1.12101e-05
-8.41395e-06
-1.25081e-05
-4.2913e-06
-1.34506e-05
-1.40151e-05
0.00012145
-0.000428861
0.000243712
-0.000432871
0.000366642
-0.000436188
0.000489868
-0.00043865
0.000612992
-0.000440237
0.000735606
-0.000440933
0.00085735
-0.000440769
0.000977921
-0.000439817
0.00109712
-0.000438204
0.00121514
-0.00043638
0.00133227
-0.000434361
0.00144946
-0.000432927
0.00156428
-0.000428705
0.00167463
-0.000421952
0.00177955
-0.000413451
0.00187923
-0.000403936
0.00197364
-0.000393327
0.002063
-0.000381922
0.00214764
-0.00036994
0.00222782
-0.000357333
0.0023038
-0.000344208
0.00237588
-0.000330594
0.00244424
-0.000316476
0.00250903
-0.000301781
0.00257039
-0.000286569
0.00262827
-0.000270609
0.00268263
-0.000254048
0.00273328
-0.000236622
0.00278004
-0.000218565
0.00282297
-0.0001999
0.00286183
-0.000180524
0.00289652
-0.000160304
0.0029259
-0.0001385
0.0029506
-0.000116952
0.00297144
-9.65858e-05
0.00298833
-7.61477e-05
0.00300082
-5.50768e-05
0.0030086
-3.33404e-05
0.00301033
-1.01998e-05
0.00300514
1.86327e-05
0.00299288
4.71978e-05
0.00297315
7.63404e-05
0.00294555
0.000106214
0.00290978
0.000136769
0.0028655
0.000167949
0.00281249
0.000199579
0.00275054
0.00023157
0.0026795
0.000263691
0.00259934
0.000295764
0.00250987
0.000327693
0.00241122
0.000359168
0.00230342
0.000389913
0.0021866
0.000419883
0.00206114
0.000448487
0.0019275
0.000475449
0.00178617
0.000500698
0.00163796
0.000523397
0.0014838
0.000543562
0.0013248
0.000560354
0.00116178
0.00057429
0.000996089
0.000584168
0.000828874
0.000590296
0.000661459
0.000592034
0.000495292
0.000589258
0.000331899
0.000581942
0.000172686
0.000569854
1.91822e-05
0.000553058
-0.000127111
0.000531341
-0.000264598
0.000504828
-0.000391942
0.000473581
-0.000507859
0.000438225
-0.000611078
0.000398468
-0.000700637
0.000355103
-0.000775609
0.00030856
-0.000835231
0.000259209
-0.000878931
0.000207543
-0.000906368
0.000154443
-0.000917564
0.000100658
-0.000912474
4.63844e-05
-0.000890968
-7.65715e-06
-0.00085491
-5.99522e-05
-0.000804479
-0.000110097
-0.000740733
-0.000157388
-0.000664989
-0.000201119
-0.000578705
-0.000240662
-0.000483524
-0.000275445
-0.000381264
-0.00030478
-0.000273804
-0.000328389
-0.000163086
-0.000345946
-5.10356e-05
-0.000357248
6.03608e-05
-0.000362144
0.00016926
-0.000360734
0.000273912
-0.000353094
0.00037255
-0.000339554
0.000463757
-0.000320422
0.000546142
-0.000296226
0.000618579
-0.00026741
0.000680213
-0.000234689
0.000730416
-0.000198893
0.00076875
-0.000160528
0.000794982
-0.000120402
0.000809192
-7.93692e-05
0.00081162
-3.81014e-05
0.000802739
2.60549e-06
0.000783223
4.21771e-05
0.000753761
7.99329e-05
0.000715318
0.000115257
0.000668948
0.000147664
0.000615567
0.000176878
0.000556552
0.000202361
0.000492824
0.000224083
0.000425825
0.000241521
0.000356615
0.000254951
0.000286367
0.000264042
0.000216085
0.000269152
0.000146697
0.00027038
7.92009e-05
0.000267748
1.45634e-05
0.000261431
-4.67268e-05
0.000252036
-0.00010394
0.000239647
-0.000156492
0.000224503
-0.000204066
0.000207232
-0.000246234
0.000188041
-0.000282846
0.000167389
-0.000313744
0.000145463
-0.000338781
0.00012271
-0.00035808
9.97679e-05
-0.000371766
7.66476e-05
-0.000379921
5.35469e-05
-0.000382859
3.12546e-05
-0.000380705
9.41284e-06
-0.00037407
-1.09225e-05
-0.000363115
-3.03574e-05
-0.000348245
-4.84128e-05
-0.000329869
-6.49106e-05
-0.000308445
-7.97771e-05
-0.000284325
-9.28982e-05
-0.000258039
-0.000104197
-0.000229976
-0.000113678
-0.000200553
-0.00012131
-0.000170267
-0.000127031
-0.000139466
-0.000131023
-0.000108513
-0.000133308
-7.77922e-05
-0.000133887
-4.76373e-05
-0.000132884
-1.83319e-05
-0.000130453
9.85232e-06
-0.000126628
3.66345e-05
-0.000121578
6.18265e-05
-0.000115445
8.52607e-05
-0.000108327
0.00010672
-0.000100351
0.00012612
-9.17219e-05
0.000143358
-8.25118e-05
0.000158379
-7.28948e-05
0.000171153
-6.29933e-05
0.000181697
-5.29468e-05
0.000189966
-4.28773e-05
0.00019602
-3.28519e-05
0.000199974
-2.30603e-05
0.000201844
-1.35683e-05
0.000201775
-4.42992e-06
0.000199869
4.11592e-06
0.000196267
1.21778e-05
0.000191113
1.96323e-05
0.000184558
2.64226e-05
0.000176753
3.25087e-05
0.000167861
3.78554e-05
0.00015807
4.24218e-05
0.000147551
4.6205e-05
0.000136481
4.92061e-05
0.000125024
5.1433e-05
0.000113326
5.2951e-05
0.00010156
5.373e-05
8.98566e-05
5.38577e-05
7.83026e-05
5.34162e-05
6.70671e-05
5.23657e-05
5.61813e-05
5.08765e-05
4.57898e-05
4.889e-05
3.59528e-05
4.65148e-05
2.67456e-05
4.37782e-05
1.81819e-05
4.07857e-05
1.03502e-05
3.74902e-05
3.29048e-06
3.39767e-05
-3.01981e-06
3.03468e-05
-8.47785e-06
2.65104e-05
-1.30814e-05
2.25441e-05
-1.68146e-05
1.84997e-05
-1.96661e-05
1.44302e-05
-2.16462e-05
1.03896e-05
-2.27849e-05
6.45736e-06
-2.31339e-05
2.69199e-06
-2.2729e-05
-8.56124e-07
-2.16265e-05
-4.17915e-06
-1.98831e-05
-7.23735e-06
-1.75603e-05
-9.99865e-06
-1.47284e-05
-1.24221e-05
-1.14678e-05
-1.44707e-05
-7.86327e-06
-1.61126e-05
-4.00747e-06
-1.73064e-05
-1.80226e-05
0.000144038
-0.000572898
0.000288259
-0.000577092
0.000432368
-0.000580296
0.000575469
-0.000581752
0.000716663
-0.000581431
0.000855278
-0.000579548
0.000990856
-0.000576348
0.00112359
-0.000572555
0.00125574
-0.000570345
0.00138821
-0.000568849
0.0015164
-0.000562559
0.00163688
-0.0005534
0.00175061
-0.000542443
0.00185855
-0.000529892
0.00196125
-0.000516143
0.0020587
-0.000501388
0.00215117
-0.000485794
0.00223868
-0.00046944
0.00232119
-0.000452448
0.00239872
-0.000434856
0.00247131
-0.000416798
0.00253903
-0.000398314
0.002602
-0.000379445
0.00266034
-0.000360124
0.00271412
-0.000340354
0.00276326
-0.000319742
0.00280752
-0.000298308
0.00284597
-0.000275076
0.00287763
-0.00025022
0.00290344
-0.000225712
0.00292657
-0.000203651
0.00294909
-0.000182825
0.00297249
-0.000161902
0.00299619
-0.00014065
0.00301807
-0.000118466
0.00303712
-9.5199e-05
0.00305271
-7.06675e-05
0.00306415
-4.47853e-05
0.00307078
-1.68222e-05
0.00306906
2.03449e-05
0.0030597
5.65664e-05
0.00304253
9.35063e-05
0.0030173
0.000131449
0.00298336
0.000170705
0.00294027
0.000211038
0.00288738
0.000252473
0.00282429
0.000294653
0.00275065
0.00033733
0.00266597
0.000380449
0.00257026
0.000423398
0.00246341
0.000466023
0.00234536
0.000507963
0.00221655
0.000548687
0.0020774
0.000587637
0.00192843
0.000624425
0.00177044
0.000658682
0.00160435
0.00068949
0.00143109
0.000716824
0.00125194
0.000739505
0.0010681
0.000758129
0.000881187
0.00077108
0.000692877
0.000778606
0.000504665
0.000780246
0.000318341
0.000775582
0.00013567
0.000764613
-4.15216e-05
0.000747045
-0.000211419
0.000722955
-0.000372258
0.00069218
-0.000522214
0.000654784
-0.000659752
0.000611119
-0.000783405
0.000561878
-0.000891714
0.000506776
-0.000983445
0.000446834
-0.00105771
0.000382828
-0.00111367
0.000315162
-0.00115081
0.000244682
-0.00116886
0.000172498
-0.00116762
9.94179e-05
-0.00114778
2.65465e-05
-0.00110999
-4.54498e-05
-0.00105499
-0.000114953
-0.000983877
-0.000181209
-0.000898166
-0.000243099
-0.000799548
-0.000299737
-0.000689887
-0.000350323
-0.000571239
-0.000394092
-0.00044589
-0.000430129
-0.000316002
-0.000458276
-0.000184064
-0.000477885
-5.23275e-05
-0.000488984
7.70886e-05
-0.000491561
0.000201873
-0.000485519
0.000320033
-0.000471254
0.000429892
-0.000449413
0.000529765
-0.000420295
0.000618288
-0.000384749
0.000694551
-0.000343673
0.000757615
-0.000297752
0.000807042
-0.00024832
0.000842622
-0.000196108
0.000864363
-0.000142143
0.000872587
-8.75933e-05
0.000867814
-3.33288e-05
0.000850885
1.95353e-05
0.000822704
7.03574e-05
0.000784312
0.000118326
0.000736902
0.000162667
0.000681567
0.000202999
0.000619819
0.000238626
0.000552927
0.000269253
0.000482284
0.000294727
0.000409055
0.00031475
0.000334511
0.000329494
0.000260023
0.00033853
0.000186541
0.000342634
0.000115019
0.000341903
4.63737e-05
0.000336393
-1.86784e-05
0.000326483
-7.93837e-05
0.000312742
-0.000135305
0.000295568
-0.00018591
0.000275108
-0.000230884
0.000252206
-0.000270071
0.000227227
-0.00030336
0.000200678
-0.000330652
0.000172755
-0.000352021
0.000144079
-0.000367626
0.000115374
-0.000377632
8.6653e-05
-0.000382249
5.81647e-05
-0.000381786
3.07915e-05
-0.000376672
4.29845e-06
-0.000367188
-2.04065e-05
-0.00035374
-4.38055e-05
-0.000336768
-6.53851e-05
-0.000316598
-8.50802e-05
-0.0002938
-0.000102575
-0.000268776
-0.000117922
-0.000241939
-0.000131034
-0.000213722
-0.000141895
-0.000184562
-0.000150471
-0.000154695
-0.000156898
-0.000124649
-0.00016107
-9.47957e-05
-0.000163161
-6.53998e-05
-0.000163283
-3.67624e-05
-0.000161522
-9.17723e-06
-0.000158038
1.71842e-05
-0.000152989
4.20715e-05
-0.000146465
6.52692e-05
-0.000138642
8.66786e-05
-0.000129737
0.000106166
-0.000119839
0.000123628
-0.000109184
0.000138999
-9.78823e-05
0.000152234
-8.613e-05
0.000163335
-7.40946e-05
0.000172293
-6.19043e-05
0.000179133
-4.97171e-05
0.000183955
-3.76745e-05
0.000186802
-2.5907e-05
0.000187737
-1.45032e-05
0.000186954
-3.64678e-06
0.00018446
6.60959e-06
0.000180455
1.61828e-05
0.000175062
2.50257e-05
0.000168437
3.3047e-05
0.000160722
4.0224e-05
0.000152079
4.64982e-05
0.000142672
5.18287e-05
0.00013266
5.62175e-05
0.000122217
5.96493e-05
0.00011143
6.22197e-05
0.00010054
6.38412e-05
8.96199e-05
6.465e-05
7.88064e-05
6.46713e-05
6.82251e-05
6.39975e-05
5.79643e-05
6.26265e-05
4.81143e-05
6.07265e-05
3.87037e-05
5.83006e-05
2.98478e-05
5.53707e-05
2.15308e-05
5.20951e-05
1.38742e-05
4.84423e-05
6.8732e-06
4.44912e-05
5.69412e-07
4.02805e-05
-5.00279e-06
3.5919e-05
-9.82475e-06
3.13323e-05
-1.38688e-05
2.65882e-05
-1.71073e-05
2.17382e-05
-1.9538e-05
1.68609e-05
-2.11726e-05
1.20241e-05
-2.20379e-05
7.32267e-06
-2.2186e-05
2.84013e-06
-2.16618e-05
-1.38032e-06
-2.05127e-05
-5.32825e-06
-1.87898e-05
-8.96025e-06
-1.65467e-05
-1.22418e-05
-1.38461e-05
-1.51227e-05
-1.07623e-05
-1.75545e-05
-7.37221e-06
-1.95027e-05
-3.75406e-06
-2.09245e-05
-2.17767e-05
0.00018012
-0.000753018
0.000360572
-0.000757544
0.000541808
-0.000761531
0.00072329
-0.000763234
0.000904573
-0.000762714
0.00108531
-0.000760285
0.00126431
-0.000755346
0.00144132
-0.000749561
0.00161098
-0.000740009
0.00176876
-0.000726633
0.00191344
-0.00070723
0.00204358
-0.000683543
0.00215757
-0.000656435
0.00225465
-0.000626966
0.00233501
-0.000596509
0.00239975
-0.000566127
0.00245069
-0.000536738
0.00249057
-0.000509317
0.00252223
-0.000484102
0.00254902
-0.000461652
0.00257402
-0.000441799
0.00259912
-0.000423408
0.00262546
-0.000405786
0.0026541
-0.000388763
0.00268519
-0.00037145
0.00271955
-0.000354105
0.00275481
-0.000333563
0.00278944
-0.00030971
0.00282176
-0.000282541
0.00285448
-0.000258427
0.0028864
-0.000235568
0.00291805
-0.000214474
0.00295009
-0.000193947
0.00298231
-0.000172874
0.00301407
-0.000150221
0.00304445
-0.000125578
0.00307138
-9.75974e-05
0.00309417
-6.75731e-05
0.00310987
-3.25229e-05
0.00311981
1.04047e-05
0.0031216
5.4769e-05
0.00311441
0.000100697
0.00309735
0.000148512
0.00306989
0.000198166
0.00303117
0.000249754
0.00298088
0.000302762
0.00291805
0.000357491
0.00284218
0.000413197
0.0027536
0.000469028
0.00265143
0.000525567
0.002536
0.000581455
0.00240737
0.000636595
0.00226582
0.000690235
0.0021116
0.000741859
0.00194569
0.000790332
0.00176926
0.000835113
0.00158363
0.000875125
0.00138957
0.000910886
0.00118893
0.000940138
0.000983146
0.000963916
0.000774176
0.00098005
0.000563539
0.000989243
0.000353629
0.000990157
0.000146413
0.000982798
-5.62028e-05
0.000967229
-0.000251725
0.000942567
-0.000438413
0.000909644
-0.000614077
0.000867843
-0.000776713
0.00081742
-0.000924181
0.000758587
-0.00105528
0.000692975
-0.00116817
0.000619669
-0.00126135
0.000540016
-0.00133415
0.000455626
-0.0013856
0.000366612
-0.00141513
0.00027421
-0.00142267
0.000180038
-0.0014083
8.50494e-05
-0.00137252
-9.23793e-06
-0.00131652
-0.000101447
-0.00124126
-0.000190212
-0.00114839
-0.000274077
-0.00103962
-0.000351872
-0.000917271
-0.000422084
-0.00078363
-0.000483964
-0.000641106
-0.000536616
-0.000492512
-0.000578723
-0.000340575
-0.000610214
-0.000187703
-0.000630756
-3.69033e-05
-0.000639784
0.000109407
-0.00063787
0.000248816
-0.000624928
0.000379127
-0.000601565
0.000498583
-0.000568869
0.000605369
-0.000527081
0.000698316
-0.000477695
0.000776313
-0.00042167
0.000838941
-0.000360381
0.000885788
-0.000295167
0.000916873
-0.000227193
0.000932462
-0.000157732
0.000933268
-8.83998e-05
0.000920226
-2.02873e-05
0.000894375
4.53871e-05
0.000856878
0.000107854
0.000809122
0.000166081
0.000752401
0.000219387
0.000688385
0.000267015
0.000618475
0.000308536
0.0005442
0.000343528
0.000467002
0.000371925
0.000388314
0.000393438
0.000309394
0.000408414
0.000231406
0.000416518
0.000155428
0.000418612
8.24511e-05
0.00041488
1.33494e-05
0.000405495
-5.13989e-05
0.000391231
-0.000110965
0.000372308
-0.000165061
0.000349664
-0.000213385
0.000323432
-0.000255502
0.000294324
-0.000291459
0.000263183
-0.000321251
0.000230471
-0.000344905
0.000196409
-0.000362633
0.000161806
-0.000374638
0.000127379
-0.000381134
9.31488e-05
-0.00038247
5.9501e-05
-0.000378868
2.7189e-05
-0.000371042
-3.52711e-06
-0.000358956
-3.24921e-05
-0.000343272
-5.94902e-05
-0.000324445
-8.42117e-05
-0.000302927
-0.000106598
-0.000279046
-0.000126456
-0.000253321
-0.000143647
-0.000226156
-0.000158199
-0.000197902
-0.000170149
-0.000169035
-0.000179337
-0.000139943
-0.00018599
-0.000110811
-0.000190201
-8.20132e-05
-0.000191959
-5.39781e-05
-0.000191318
-2.68715e-05
-0.000188628
-8.98255e-07
-0.000184011
2.36872e-05
-0.000177574
4.67372e-05
-0.000169515
6.8128e-05
-0.000160033
8.76522e-05
-0.000149261
0.000105293
-0.00013748
0.000120952
-0.000124843
0.000134591
-0.000111522
0.000146197
-9.77356e-05
0.000155768
-8.36659e-05
0.000163325
-6.94609e-05
0.000168937
-5.53287e-05
0.000172648
-4.13855e-05
0.000174535
-2.77943e-05
0.000174695
-1.46629e-05
0.000173254
-2.20641e-06
0.000170323
9.5412e-06
0.000165983
2.05228e-05
0.000160422
3.05859e-05
0.000153783
3.96864e-05
0.000146197
4.78095e-05
0.000137813
5.48824e-05
0.000128783
6.08588e-05
0.000119272
6.5729e-05
0.000109349
6.95721e-05
9.92612e-05
7.23074e-05
8.90996e-05
7.40028e-05
7.89782e-05
7.47714e-05
6.90513e-05
7.45981e-05
5.93733e-05
7.36754e-05
4.9988e-05
7.20119e-05
4.10116e-05
6.97029e-05
3.25433e-05
6.67689e-05
2.44994e-05
6.34146e-05
1.70556e-05
5.95389e-05
1.02058e-05
5.52922e-05
3.96986e-06
5.07272e-05
-1.66846e-06
4.59188e-05
-6.61533e-06
4.08659e-05
-1.08761e-05
3.55931e-05
-1.44263e-05
3.01384e-05
-1.72339e-05
2.45458e-05
-1.92972e-05
1.89242e-05
-2.06226e-05
1.33495e-05
-2.12525e-05
7.95256e-06
-2.12311e-05
2.81873e-06
-2.06102e-05
-2.00122e-06
-1.94316e-05
-6.50675e-06
-1.77398e-05
-1.06521e-05
-1.55798e-05
-1.44017e-05
-1.30084e-05
-1.76941e-05
-1.00947e-05
-2.04682e-05
-6.90886e-06
-2.26885e-05
-3.51581e-06
-2.43176e-05
-2.52925e-05
0.000256006
-0.00100902
0.00050864
-0.00101018
0.00075929
-0.00101218
0.00100603
-0.00100997
0.00124331
-0.000999991
0.00146712
-0.000984099
0.00167399
-0.000962211
0.00185629
-0.000931868