/*--------------------------------*- C++ -*----------------------------------*\
  =========                 |
  \\      /  F ield         | OpenFOAM: The Open Source CFD Toolbox
   \\    /   O peration     | Website:  https://openfoam.org
    \\  /    A nd           | Version:  12
     \\/     M anipulation  |
\*---------------------------------------------------------------------------*/
FoamFile
{
    format      ascii;
    class       volVectorField;
    location    "3";
    object      U;
}
// * * * * * * * * * * * * * * * * * * * * * * * * * * * * * * * * * * * * * //

dimensions      [0 1 -1 0 0 0 0];

internalField   nonuniform List<vector> 
3829
(
(4.02389e-06 -3.99576e-05 0)
(1.21225e-05 -3.99463e-05 0)
(2.03013e-05 -3.98422e-05 0)
(2.85488e-05 -3.96838e-05 0)
(3.68565e-05 -3.94702e-05 0)
(4.5223e-05 -3.9199e-05 0)
(5.36395e-05 -3.88705e-05 0)
(6.20842e-05 -3.84879e-05 0)
(7.05436e-05 -3.80381e-05 0)
(7.90236e-05 -3.7536e-05 0)
(8.75038e-05 -3.69684e-05 0)
(9.59602e-05 -3.63411e-05 0)
(0.000104398 -3.56539e-05 0)
(0.000112803 -3.49039e-05 0)
(0.000121144 -3.40878e-05 0)
(0.00012942 -3.3211e-05 0)
(0.000137618 -3.22749e-05 0)
(0.000145692 -3.12793e-05 0)
(0.000153628 -3.02278e-05 0)
(0.0001614 -2.91242e-05 0)
(0.000168979 -2.79714e-05 0)
(0.000176342 -2.67713e-05 0)
(0.000183466 -2.55273e-05 0)
(0.000190326 -2.42417e-05 0)
(0.0001969 -2.29171e-05 0)
(0.000203166 -2.15553e-05 0)
(0.0002091 -2.01589e-05 0)
(0.000214686 -1.87337e-05 0)
(0.000219901 -1.72744e-05 0)
(0.000224723 -1.5787e-05 0)
(0.000229135 -1.42733e-05 0)
(0.000233118 -1.27356e-05 0)
(0.000236658 -1.11755e-05 0)
(0.000239727 -9.5965e-06 0)
(0.000242312 -8.00303e-06 0)
(0.000244392 -6.3992e-06 0)
(0.00024598 -4.78183e-06 0)
(0.000247052 -3.15224e-06 0)
(0.000247617 -1.50417e-06 0)
(0.000247683 1.50101e-07 0)
(0.000247157 1.80928e-06 0)
(0.000246058 3.46858e-06 0)
(0.000244351 5.11975e-06 0)
(0.00024203 6.76505e-06 0)
(0.00023913 8.39328e-06 0)
(0.000235614 9.99855e-06 0)
(0.000231492 1.15745e-05 0)
(0.000226766 1.31138e-05 0)
(0.000221441 1.46085e-05 0)
(0.000215527 1.60504e-05 0)
(0.000209037 1.74301e-05 0)
(0.000201986 1.87393e-05 0)
(0.000194396 1.99643e-05 0)
(0.000186292 2.11032e-05 0)
(0.00017771 2.21366e-05 0)
(0.000168664 2.30597e-05 0)
(0.000159197 2.3863e-05 0)
(0.000149369 2.45335e-05 0)
(0.000139166 2.50624e-05 0)
(0.000128723 2.54508e-05 0)
(0.0001181 2.56788e-05 0)
(0.000107276 2.57386e-05 0)
(9.63644e-05 2.56329e-05 0)
(8.54409e-05 2.536e-05 0)
(7.45406e-05 2.49067e-05 0)
(6.38334e-05 2.43022e-05 0)
(5.32627e-05 2.34974e-05 0)
(4.30352e-05 2.25549e-05 0)
(3.31824e-05 2.14246e-05 0)
(2.37348e-05 2.01717e-05 0)
(1.48889e-05 1.87556e-05 0)
(6.61438e-06 1.72401e-05 0)
(-1.02433e-06 1.56004e-05 0)
(-7.90138e-06 1.38871e-05 0)
(-1.39471e-05 1.20764e-05 0)
(-1.91971e-05 1.02169e-05 0)
(-2.35082e-05 8.32121e-06 0)
(-2.69466e-05 6.40006e-06 0)
(-2.94406e-05 4.50251e-06 0)
(-3.09861e-05 2.62784e-06 0)
(-3.1662e-05 8.08155e-07 0)
(-3.1354e-05 -9.19628e-07 0)
(-3.01407e-05 -2.55349e-06 0)
(-2.80851e-05 -4.05867e-06 0)
(-2.52075e-05 -5.44722e-06 0)
(-2.16339e-05 -6.66774e-06 0)
(-1.74097e-05 -7.72283e-06 0)
(-1.26152e-05 -8.6021e-06 0)
(-7.33607e-06 -9.2872e-06 0)
(-1.67744e-06 -9.78844e-06 0)
(4.23963e-06 -1.0089e-05 0)
(1.031e-05 -1.01961e-05 0)
(1.64375e-05 -1.01151e-05 0)
(2.25036e-05 -9.85455e-06 0)
(2.84049e-05 -9.42431e-06 0)
(3.4039e-05 -8.83758e-06 0)
(3.93061e-05 -8.11199e-06 0)
(4.41233e-05 -7.26354e-06 0)
(4.84035e-05 -6.31533e-06 0)
(5.20862e-05 -5.2862e-06 0)
(5.51128e-05 -4.19975e-06 0)
(5.74365e-05 -3.07541e-06 0)
(5.90162e-05 -1.93905e-06 0)
(5.98618e-05 -8.04236e-07 0)
(5.99518e-05 2.89548e-07 0)
(5.92602e-05 1.35071e-06 0)
(5.78662e-05 2.35581e-06 0)
(5.57791e-05 3.28258e-06 0)
(5.30501e-05 4.12761e-06 0)
(4.97465e-05 4.86599e-06 0)
(4.58878e-05 5.50398e-06 0)
(4.15821e-05 6.02907e-06 0)
(3.68977e-05 6.44187e-06 0)
(3.19018e-05 6.74242e-06 0)
(2.6672e-05 6.92362e-06 0)
(2.12877e-05 7.00056e-06 0)
(1.58281e-05 6.97065e-06 0)
(1.03977e-05 6.84309e-06 0)
(5.05519e-06 6.62316e-06 0)
(-1.42399e-07 6.33216e-06 0)
(-5.10789e-06 5.95973e-06 0)
(-9.80406e-06 5.53602e-06 0)
(-1.41732e-05 5.0524e-06 0)
(-1.81695e-05 4.53383e-06 0)
(-2.17514e-05 3.98363e-06 0)
(-2.4892e-05 3.41764e-06 0)
(-2.75673e-05 2.83858e-06 0)
(-2.97662e-05 2.2606e-06 0)
(-3.14691e-05 1.69006e-06 0)
(-3.26956e-05 1.13202e-06 0)
(-3.34476e-05 6.01387e-07 0)
(-3.37199e-05 9.82607e-08 0)
(-3.35511e-05 -3.75589e-07 0)
(-3.29561e-05 -8.05918e-07 0)
(-3.19636e-05 -1.20302e-06 0)
(-3.06123e-05 -1.55131e-06 0)
(-2.89196e-05 -1.85703e-06 0)
(-2.69326e-05 -2.11826e-06 0)
(-2.4693e-05 -2.33235e-06 0)
(-2.22303e-05 -2.50153e-06 0)
(-1.95862e-05 -2.62843e-06 0)
(-1.6809e-05 -2.71424e-06 0)
(-1.39384e-05 -2.75851e-06 0)
(-1.10121e-05 -2.7656e-06 0)
(-8.06786e-06 -2.73701e-06 0)
(-5.13636e-06 -2.67733e-06 0)
(-2.25175e-06 -2.58878e-06 0)
(5.50894e-07 -2.47492e-06 0)
(3.24479e-06 -2.33999e-06 0)
(5.80359e-06 -2.18738e-06 0)
(8.20973e-06 -2.01774e-06 0)
(1.04424e-05 -1.83744e-06 0)
(1.24794e-05 -1.64899e-06 0)
(1.43136e-05 -1.45358e-06 0)
(1.59304e-05 -1.25607e-06 0)
(1.73265e-05 -1.05701e-06 0)
(1.84978e-05 -8.61995e-07 0)
(1.94404e-05 -6.7093e-07 0)
(2.01591e-05 -4.86514e-07 0)
(2.06546e-05 -3.10592e-07 0)
(2.09362e-05 -1.43783e-07 0)
(2.1015e-05 1.05538e-08 0)
(2.08988e-05 1.53432e-07 0)
(2.06003e-05 2.83002e-07 0)
(2.01337e-05 3.98719e-07 0)
(1.95147e-05 5.0012e-07 0)
(1.87589e-05 5.87007e-07 0)
(1.78834e-05 6.59684e-07 0)
(1.69047e-05 7.1835e-07 0)
(1.58397e-05 7.63024e-07 0)
(1.47108e-05 7.94764e-07 0)
(1.35329e-05 8.13635e-07 0)
(1.23159e-05 8.2127e-07 0)
(1.10853e-05 8.18244e-07 0)
(9.85604e-06 8.05691e-07 0)
(8.63544e-06 7.84159e-07 0)
(7.43785e-06 7.55637e-07 0)
(6.28133e-06 7.20579e-07 0)
(5.16848e-06 6.80122e-07 0)
(4.11216e-06 6.353e-07 0)
(3.12403e-06 5.86045e-07 0)
(2.20302e-06 5.34341e-07 0)
(1.35975e-06 4.80257e-07 0)
(5.9795e-07 4.24843e-07 0)
(-7.15503e-08 3.68261e-07 0)
(-6.4978e-07 3.11669e-07 0)
(-1.1405e-06 2.54978e-07 0)
(-1.53825e-06 1.99048e-07 0)
(-1.84276e-06 1.44917e-07 0)
(-2.05499e-06 9.31783e-08 0)
(-2.17768e-06 4.4191e-08 0)
(-2.21502e-06 -1.23639e-09 0)
(-2.17199e-06 -4.28386e-08 0)
(-2.05414e-06 -8.01989e-08 0)
(-1.86788e-06 -1.13015e-07 0)
(-1.62071e-06 -1.40973e-07 0)
(-1.32105e-06 -1.63815e-07 0)
(-9.78149e-07 -1.81308e-07 0)
(-6.01932e-07 -1.93156e-07 0)
(-2.03387e-07 -1.99126e-07 0)
(4.49628e-06 -0.000118598 0)
(1.35389e-05 -0.00011853 0)
(2.26674e-05 -0.000118194 0)
(3.18671e-05 -0.000117687 0)
(4.11322e-05 -0.000116999 0)
(5.04524e-05 -0.000116135 0)
(5.97707e-05 -0.000115086 0)
(6.91793e-05 -0.00011386 0)
(7.85653e-05 -0.000112445 0)
(8.79342e-05 -0.000110849 0)
(9.73442e-05 -0.000109072 0)
(0.000106661 -0.000107112 0)
(0.000115963 -0.00010497 0)
(0.000125262 -0.000102645 0)
(0.000134456 -0.000100141 0)
(0.000143514 -9.74628e-05 0)
(0.000152463 -9.46034e-05 0)
(0.000161242 -9.15755e-05 0)
(0.000169811 -8.83843e-05 0)
(0.000178148 -8.50391e-05 0)
(0.000186243 -8.15472e-05 0)
(0.00019407 -7.79183e-05 0)
(0.000201603 -7.41604e-05 0)
(0.000208826 -7.02825e-05 0)
(0.000215721 -6.62978e-05 0)
(0.000222268 -6.22054e-05 0)
(0.000228417 -5.80192e-05 0)
(0.000234206 -5.37498e-05 0)
(0.000239614 -4.94047e-05 0)
(0.000244569 -4.49929e-05 0)
(0.000249081 -4.05008e-05 0)
(0.000253136 -3.59788e-05 0)
(0.000256709 -3.14059e-05 0)
(0.000259759 -2.6797e-05 0)
(0.000262268 -2.21491e-05 0)
(0.000264267 -1.74623e-05 0)
(0.000265784 -1.27143e-05 0)
(0.000266814 -7.94009e-06 0)
(0.000267298 -3.11912e-06 0)
(0.000267204 1.74235e-06 0)
(0.000266482 6.6222e-06 0)
(0.000265115 1.15109e-05 0)
(0.000263109 1.63904e-05 0)
(0.000260443 2.12534e-05 0)
(0.000257109 2.60779e-05 0)
(0.000253098 3.08471e-05 0)
(0.000248417 3.55404e-05 0)
(0.00024306 4.01349e-05 0)
(0.000237031 4.46064e-05 0)
(0.000230334 4.89267e-05 0)
(0.000222986 5.30706e-05 0)
(0.000214982 5.70036e-05 0)
(0.000206379 6.07013e-05 0)
(0.000197177 6.41284e-05 0)
(0.000187401 6.72284e-05 0)
(0.000177118 7.00076e-05 0)
(0.000166332 7.23973e-05 0)
(0.00015511 7.44173e-05 0)
(0.000143507 7.59952e-05 0)
(0.000131607 7.71188e-05 0)
(0.000119433 7.77428e-05 0)
(0.000107071 7.78699e-05 0)
(9.46591e-05 7.74944e-05 0)
(8.22041e-05 7.65917e-05 0)
(6.98777e-05 7.51573e-05 0)
(5.76932e-05 7.31986e-05 0)
(4.57348e-05 7.07059e-05 0)
(3.42089e-05 6.77307e-05 0)
(2.31481e-05 6.42405e-05 0)
(1.26268e-05 6.03375e-05 0)
(2.82749e-06 5.59923e-05 0)
(-6.2177e-06 5.12767e-05 0)
(-1.45063e-05 4.62076e-05 0)
(-2.19063e-05 4.08826e-05 0)
(-2.83658e-05 3.53076e-05 0)
(-3.3781e-05 2.95817e-05 0)
(-3.81604e-05 2.37581e-05 0)
(-4.14374e-05 1.7904e-05 0)
(-4.35911e-05 1.20937e-05 0)
(-4.46862e-05 6.40198e-06 0)
(-4.4666e-05 8.86046e-07 0)
(-4.35349e-05 -4.34114e-06 0)
(-4.13853e-05 -9.27112e-06 0)
(-3.8332e-05 -1.38077e-05 0)
(-3.43407e-05 -1.79188e-05 0)
(-2.95077e-05 -2.15453e-05 0)
(-2.40266e-05 -2.46432e-05 0)
(-1.7906e-05 -2.71826e-05 0)
(-1.13024e-05 -2.91413e-05 0)
(-4.32834e-06 -3.05072e-05 0)
(2.90626e-06 -3.12774e-05 0)
(1.02236e-05 -3.14587e-05 0)
(1.75251e-05 -3.10683e-05 0)
(2.46799e-05 -3.01339e-05 0)
(3.15732e-05 -2.86937e-05 0)
(3.80812e-05 -2.67907e-05 0)
(4.40993e-05 -2.4477e-05 0)
(4.95321e-05 -2.18102e-05 0)
(5.42876e-05 -1.88572e-05 0)
(5.83095e-05 -1.56721e-05 0)
(6.15418e-05 -1.23322e-05 0)
(6.39353e-05 -8.89998e-06 0)
(6.54701e-05 -5.44452e-06 0)
(6.61222e-05 -2.01985e-06 0)
(6.59352e-05 1.30121e-06 0)
(6.49319e-05 4.47971e-06 0)
(6.31083e-05 7.4652e-06 0)
(6.05313e-05 1.02098e-05 0)
(5.72485e-05 1.26856e-05 0)
(5.33536e-05 1.48456e-05 0)
(4.89009e-05 1.66914e-05 0)
(4.39839e-05 1.82016e-05 0)
(3.87033e-05 1.93632e-05 0)
(3.31072e-05 2.0185e-05 0)
(2.73103e-05 2.06654e-05 0)
(2.14025e-05 2.08278e-05 0)
(1.54471e-05 2.06773e-05 0)
(9.56704e-06 2.02413e-05 0)
(3.84778e-06 1.95428e-05 0)
(-1.69168e-06 1.86184e-05 0)
(-6.94592e-06 1.74828e-05 0)
(-1.18745e-05 1.61781e-05 0)
(-1.64339e-05 1.47263e-05 0)
(-2.05525e-05 1.31705e-05 0)
(-2.42117e-05 1.15299e-05 0)
(-2.73869e-05 9.84169e-06 0)
(-3.00593e-05 8.13278e-06 0)
(-3.22114e-05 6.42955e-06 0)
(-3.38442e-05 4.75468e-06 0)
(-3.49604e-05 3.12964e-06 0)
(-3.55735e-05 1.57413e-06 0)
(-3.5706e-05 1.05165e-07 0)
(-3.53681e-05 -1.26376e-06 0)
(-3.45996e-05 -2.52028e-06 0)
(-3.34272e-05 -3.65881e-06 0)
(-3.18816e-05 -4.665e-06 0)
(-3.00074e-05 -5.54175e-06 0)
(-2.78342e-05 -6.28662e-06 0)
(-2.54116e-05 -6.89689e-06 0)
(-2.2779e-05 -7.37691e-06 0)
(-1.99759e-05 -7.7304e-06 0)
(-1.70446e-05 -7.96185e-06 0)
(-1.40304e-05 -8.07575e-06 0)
(-1.09742e-05 -8.08304e-06 0)
(-7.9136e-06 -7.98676e-06 0)
(-4.88024e-06 -7.8015e-06 0)
(-1.90601e-06 -7.53307e-06 0)
(9.71022e-07 -7.19527e-06 0)
(3.72476e-06 -6.7941e-06 0)
(6.3353e-06 -6.33988e-06 0)
(8.78051e-06 -5.84283e-06 0)
(1.10369e-05 -5.31287e-06 0)
(1.30911e-05 -4.75857e-06 0)
(1.49325e-05 -4.18906e-06 0)
(1.65478e-05 -3.61176e-06 0)
(1.7933e-05 -3.03654e-06 0)
(1.90851e-05 -2.46683e-06 0)
(2.00049e-05 -1.91384e-06 0)
(2.06946e-05 -1.37773e-06 0)
(2.11579e-05 -8.67984e-07 0)
(2.14023e-05 -3.86823e-07 0)
(2.14414e-05 6.18708e-08 0)
(2.1285e-05 4.74345e-07 0)
(2.09439e-05 8.48249e-07 0)
(2.04343e-05 1.18073e-06 0)
(1.97721e-05 1.47238e-06 0)
(1.89744e-05 1.72187e-06 0)
(1.80585e-05 1.92942e-06 0)
(1.70407e-05 2.09701e-06 0)
(1.59388e-05 2.22473e-06 0)
(1.47753e-05 2.31481e-06 0)
(1.35657e-05 2.36587e-06 0)
(1.23207e-05 2.38576e-06 0)
(1.10647e-05 2.37669e-06 0)
(9.81277e-06 2.33656e-06 0)
(8.57312e-06 2.2726e-06 0)
(7.35989e-06 2.18704e-06 0)
(6.19e-06 2.08675e-06 0)
(5.06667e-06 1.96695e-06 0)
(4.00126e-06 1.83795e-06 0)
(3.00647e-06 1.6936e-06 0)
(2.08133e-06 1.54387e-06 0)
(1.23529e-06 1.38683e-06 0)
(4.72159e-07 1.22405e-06 0)
(-1.97168e-07 1.06332e-06 0)
(-7.74036e-07 8.97811e-07 0)
(-1.26259e-06 7.33139e-07 0)
(-1.65618e-06 5.7137e-07 0)
(-1.95489e-06 4.1438e-07 0)
(-2.16045e-06 2.64394e-07 0)
(-2.2754e-06 1.22966e-07 0)
(-2.30407e-06 -8.31749e-09 0)
(-2.25187e-06 -1.28456e-07 0)
(-2.12433e-06 -2.36357e-07 0)
(-1.92799e-06 -3.3112e-07 0)
(-1.6704e-06 -4.11864e-07 0)
(-1.36008e-06 -4.77817e-07 0)
(-1.00625e-06 -5.2835e-07 0)
(-6.1893e-07 -5.62543e-07 0)
(-2.09081e-07 -5.7976e-07 0)
(5.42811e-06 -0.000201127 0)
(1.63322e-05 -0.000200923 0)
(2.73028e-05 -0.000200268 0)
(3.83608e-05 -0.000199261 0)
(4.94651e-05 -0.000197915 0)
(6.06033e-05 -0.000196222 0)
(7.17217e-05 -0.00019418 0)
(8.28315e-05 -0.000191778 0)
(9.39303e-05 -0.00018904 0)
(0.000104932 -0.000185957 0)
(0.000115892 -0.000182526 0)
(0.000126769 -0.000178766 0)
(0.00013756 -0.000174636 0)
(0.000148252 -0.000170161 0)
(0.000158768 -0.000165391 0)
(0.000169165 -0.000160319 0)
(0.000179388 -0.000154987 0)
(0.000189315 -0.000149448 0)
(0.000198953 -0.000143711 0)
(0.000208267 -0.000137804 0)
(0.000217233 -0.000131749 0)
(0.000225826 -0.000125565 0)
(0.000234032 -0.000119262 0)
(0.000241801 -0.000112851 0)
(0.000249175 -0.000106333 0)
(0.000256133 -9.96921e-05 0)
(0.000262582 -9.29659e-05 0)
(0.000268555 -8.61313e-05 0)
(0.000274041 -7.92256e-05 0)
(0.000279142 -7.21553e-05 0)
(0.000283606 -6.50312e-05 0)
(0.000287459 -5.7812e-05 0)
(0.000290896 -5.04464e-05 0)
(0.000293786 -4.30028e-05 0)
(0.000296196 -3.5483e-05 0)
(0.000298221 -2.78685e-05 0)
(0.000299683 -2.01501e-05 0)
(0.000300548 -1.23223e-05 0)
(0.000300975 -4.37693e-06 0)
(0.000300743 3.64405e-06 0)
(0.000299751 1.17388e-05 0)
(0.00029804 1.98921e-05 0)
(0.000295597 2.80783e-05 0)
(0.000292398 3.6272e-05 0)
(0.000288431 4.44411e-05 0)
(0.000283677 5.25514e-05 0)
(0.000278121 6.05619e-05 0)
(0.000271754 6.84313e-05 0)
(0.000264564 7.61108e-05 0)
(0.000256563 8.35536e-05 0)
(0.000247743 9.06966e-05 0)
(0.00023813 9.74969e-05 0)
(0.000227756 0.000103903 0)
(0.000216507 0.000109819 0)
(0.000204612 0.000115218 0)
(0.00019205 0.000120004 0)
(0.00017892 0.000124127 0)
(0.000165278 0.000127557 0)
(0.000150985 0.000130225 0)
(0.000136297 0.000132075 0)
(0.000121334 0.000133084 0)
(0.000106257 0.000133196 0)
(9.1068e-05 0.000132403 0)
(7.5842e-05 0.000130682 0)
(6.07585e-05 0.000128041 0)
(4.59482e-05 0.000124446 0)
(3.15362e-05 0.000119971 0)
(1.76379e-05 0.000114597 0)
(4.46191e-06 0.000108399 0)
(-7.94391e-06 0.000101406 0)
(-1.95097e-05 9.36817e-05 0)
(-3.01032e-05 8.52856e-05 0)
(-3.95869e-05 7.63238e-05 0)
(-4.78747e-05 6.6891e-05 0)
(-5.49208e-05 5.70895e-05 0)
(-6.05968e-05 4.70437e-05 0)
(-6.48941e-05 3.68547e-05 0)
(-6.78112e-05 2.66685e-05 0)
(-6.92797e-05 1.6592e-05 0)
(-6.93697e-05 6.75844e-06 0)
(-6.8034e-05 -2.68106e-06 0)
(-6.53499e-05 -1.16462e-05 0)
(-6.14667e-05 -2.00106e-05 0)
(-5.6385e-05 -2.7671e-05 0)
(-5.02467e-05 -3.45185e-05 0)
(-4.31472e-05 -4.04967e-05 0)
(-3.52509e-05 -4.55276e-05 0)
(-2.66985e-05 -4.9553e-05 0)
(-1.76393e-05 -5.25568e-05 0)
(-8.23977e-06 -5.45096e-05 0)
(1.32631e-06 -5.54325e-05 0)
(1.08892e-05 -5.53354e-05 0)
(2.02972e-05 -5.42647e-05 0)
(2.93775e-05 -5.22714e-05 0)
(3.79915e-05 -4.94293e-05 0)
(4.60045e-05 -4.58179e-05 0)
(5.32871e-05 -4.15445e-05 0)
(5.97264e-05 -3.67054e-05 0)
(6.52544e-05 -3.1418e-05 0)
(6.97989e-05 -2.57885e-05 0)
(7.32916e-05 -1.99455e-05 0)
(7.57178e-05 -1.39916e-05 0)
(7.70725e-05 -8.04605e-06 0)
(7.73627e-05 -2.21133e-06 0)
(7.66226e-05 3.42075e-06 0)
(7.4897e-05 8.75085e-06 0)
(7.22394e-05 1.37059e-05 0)
(6.87269e-05 1.82244e-05 0)
(6.44197e-05 2.22322e-05 0)
(5.94602e-05 2.57337e-05 0)
(5.39356e-05 2.86381e-05 0)
(4.792e-05 3.09938e-05 0)
(4.15539e-05 3.27483e-05 0)
(3.49284e-05 3.39244e-05 0)
(2.81556e-05 3.45379e-05 0)
(2.13288e-05 3.4618e-05 0)
(1.4531e-05 3.4199e-05 0)
(7.90373e-06 3.33252e-05 0)
(1.52356e-06 3.20291e-05 0)
(-4.57808e-06 3.03669e-05 0)
(-1.03052e-05 2.83855e-05 0)
(-1.56098e-05 2.61363e-05 0)
(-2.04386e-05 2.36765e-05 0)
(-2.47524e-05 2.10538e-05 0)
(-2.85294e-05 1.83199e-05 0)
(-3.17313e-05 1.55244e-05 0)
(-3.43597e-05 1.27093e-05 0)
(-3.64144e-05 9.91803e-06 0)
(-3.78904e-05 7.18899e-06 0)
(-3.88136e-05 4.55926e-06 0)
(-3.91986e-05 2.04816e-06 0)
(-3.9056e-05 -3.08669e-07 0)
(-3.84311e-05 -2.496e-06 0)
(-3.73572e-05 -4.49578e-06 0)
(-3.58605e-05 -6.29205e-06 0)
(-3.39942e-05 -7.88556e-06 0)
(-3.17998e-05 -9.25202e-06 0)
(-2.93123e-05 -1.04115e-05 0)
(-2.65859e-05 -1.135e-05 0)
(-2.36616e-05 -1.2077e-05 0)
(-2.05804e-05 -1.26007e-05 0)
(-1.73905e-05 -1.29288e-05 0)
(-1.41417e-05 -1.30754e-05 0)
(-1.08692e-05 -1.30472e-05 0)
(-7.61492e-06 -1.28612e-05 0)
(-4.41329e-06 -1.25314e-05 0)
(-1.2955e-06 -1.20742e-05 0)
(1.70368e-06 -1.15072e-05 0)
(4.56387e-06 -1.08441e-05 0)
(7.25425e-06 -1.00978e-05 0)
(9.75834e-06 -9.2844e-06 0)
(1.20584e-05 -8.42244e-06 0)
(1.41354e-05 -7.5259e-06 0)
(1.59842e-05 -6.6066e-06 0)
(1.75904e-05 -5.68033e-06 0)
(1.89566e-05 -4.75664e-06 0)
(2.00779e-05 -3.84557e-06 0)
(2.09555e-05 -2.95901e-06 0)
(2.15974e-05 -2.10689e-06 0)
(2.20018e-05 -1.29433e-06 0)
(2.21857e-05 -5.32679e-07 0)
(2.21588e-05 1.79774e-07 0)
(2.19313e-05 8.31901e-07 0)
(2.15171e-05 1.42195e-06 0)
(2.09345e-05 1.94634e-06 0)
(2.02008e-05 2.40422e-06 0)
(1.93317e-05 2.79538e-06 0)
(1.8348e-05 3.1198e-06 0)
(1.7266e-05 3.37904e-06 0)
(1.61028e-05 3.57511e-06 0)
(1.48792e-05 3.71048e-06 0)
(1.36162e-05 3.78726e-06 0)
(1.23277e-05 3.81186e-06 0)
(1.10276e-05 3.79e-06 0)
(9.73625e-06 3.72121e-06 0)
(8.4656e-06 3.61666e-06 0)
(7.22918e-06 3.47681e-06 0)
(6.03727e-06 3.31211e-06 0)
(4.89586e-06 3.11992e-06 0)
(3.81617e-06 2.91077e-06 0)
(2.80933e-06 2.68162e-06 0)
(1.87854e-06 2.44203e-06 0)
(1.02551e-06 2.19204e-06 0)
(2.63566e-07 1.93368e-06 0)
(-4.0482e-07 1.67719e-06 0)
(-9.83024e-07 1.41382e-06 0)
(-1.46625e-06 1.15185e-06 0)
(-1.85268e-06 8.94241e-07 0)
(-2.14207e-06 6.44478e-07 0)
(-2.3359e-06 4.062e-07 0)
(-2.43757e-06 1.82373e-07 0)
(-2.45188e-06 -2.57731e-08 0)
(-2.38438e-06 -2.15837e-07 0)
(-2.24076e-06 -3.86467e-07 0)
(-2.02767e-06 -5.36341e-07 0)
(-1.75278e-06 -6.64044e-07 0)
(-1.42476e-06 -7.68295e-07 0)
(-1.05279e-06 -8.48201e-07 0)
(-6.47041e-07 -9.02176e-07 0)
(-2.18538e-07 -9.29431e-07 0)
(6.98282e-06 -0.00029497 0)
(2.08918e-05 -0.000294421 0)
(3.4953e-05 -0.00029325 0)
(4.90729e-05 -0.00029148 0)
(6.31231e-05 -0.000289122 0)
(7.71795e-05 -0.00028618 0)
(9.12042e-05 -0.000282666 0)
(0.000105123 -0.000278614 0)
(0.000118817 -0.000274011 0)
(0.000132461 -0.000268893 0)
(0.000145939 -0.000263176 0)
(0.000159364 -0.000256949 0)
(0.000172772 -0.000250234 0)
(0.000185607 -0.000243127 0)
(0.000197969 -0.000235666 0)
(0.000209905 -0.000227855 0)
(0.000221096 -0.00021973 0)
(0.000231668 -0.000211323 0)
(0.000241751 -0.000202684 0)
(0.000251263 -0.000193799 0)
(0.000260258 -0.000184711 0)
(0.000268776 -0.000175452 0)
(0.000276844 -0.00016604 0)
(0.000284498 -0.000156489 0)
(0.000291883 -0.000146821 0)
(0.00029878 -0.00013703 0)
(0.000305168 -0.0001272 0)
(0.000311093 -0.000117251 0)
(0.000316903 -0.000107319 0)
(0.000322166 -9.73638e-05 0)
(0.000326589 -8.74437e-05 0)
(0.000330996 -7.75576e-05 0)
(0.000334832 -6.766e-05 0)
(0.000337775 -5.76172e-05 0)
(0.000340256 -4.74782e-05 0)
(0.000342368 -3.71339e-05 0)
(0.000344048 -2.66261e-05 0)
(0.000345276 -1.58609e-05 0)
(0.0003458 -4.89984e-06 0)
(0.000345522 6.27519e-06 0)
(0.000344517 1.76277e-05 0)
(0.000342671 2.91293e-05 0)
(0.000339947 4.07471e-05 0)
(0.000336303 5.24477e-05 0)
(0.000331703 6.41857e-05 0)
(0.000326108 7.59077e-05 0)
(0.000319501 8.75578e-05 0)
(0.000311856 9.90615e-05 0)
(0.000303164 0.000110349 0)
(0.000293386 0.000121316 0)
(0.000282564 0.000131907 0)
(0.000270761 0.000141985 0)
(0.000257829 0.000151489 0)
(0.000243871 0.000160279 0)
(0.000228952 0.000168283 0)
(0.000213052 0.000175413 0)
(0.000196458 0.000181554 0)
(0.000179174 0.000186608 0)
(0.000161137 0.000190508 0)
(0.000142638 0.00019317 0)
(0.00012373 0.000194528 0)
(0.000104555 0.000194564 0)
(8.53575e-05 0.000193184 0)
(6.62146e-05 0.000190395 0)
(4.7266e-05 0.000186216 0)
(2.87557e-05 0.000180619 0)
(1.08181e-05 0.000173657 0)
(-6.35401e-06 0.000165363 0)
(-2.25679e-05 0.000155818 0)
(-3.7793e-05 0.000145053 0)
(-5.17662e-05 0.000133228 0)
(-6.43454e-05 0.000120424 0)
(-7.54111e-05 0.000106819 0)
(-8.48593e-05 9.2525e-05 0)
(-9.25843e-05 7.77532e-05 0)
(-9.85127e-05 6.26449e-05 0)
(-0.000102596 4.74054e-05 0)
(-0.000104789 3.22111e-05 0)
(-0.000105138 1.72823e-05 0)
(-0.000103596 2.7866e-06 0)
(-0.00010028 -1.10677e-05 0)
(-9.53078e-05 -2.41482e-05 0)
(-8.87307e-05 -3.62313e-05 0)
(-8.07163e-05 -4.71922e-05 0)
(-7.13951e-05 -5.68851e-05 0)
(-6.09655e-05 -6.52059e-05 0)
(-4.9627e-05 -7.20603e-05 0)
(-3.75734e-05 -7.73855e-05 0)
(-2.504e-05 -8.11467e-05 0)
(-1.22449e-05 -8.33439e-05 0)
(5.94062e-07 -8.39833e-05 0)
(1.32419e-05 -8.31402e-05 0)
(2.54979e-05 -8.08595e-05 0)
(3.71685e-05 -7.72646e-05 0)
(4.80803e-05 -7.2456e-05 0)
(5.80417e-05 -6.65918e-05 0)
(6.69213e-05 -5.98054e-05 0)
(7.46168e-05 -5.22795e-05 0)
(8.10306e-05 -4.41664e-05 0)
(8.61028e-05 -3.56496e-05 0)
(8.98033e-05 -2.69078e-05 0)
(9.21237e-05 -1.81046e-05 0)
(9.30652e-05 -9.40627e-06 0)
(9.26832e-05 -9.59419e-07 0)
(9.10435e-05 7.11125e-06 0)
(8.8227e-05 1.4671e-05 0)
(8.43265e-05 2.1623e-05 0)
(7.94173e-05 2.7871e-05 0)
(7.36951e-05 3.33682e-05 0)
(6.72306e-05 3.80676e-05 0)
(6.01738e-05 4.19211e-05 0)
(5.26987e-05 4.49237e-05 0)
(4.4856e-05 4.7089e-05 0)
(3.6835e-05 4.84292e-05 0)
(2.87587e-05 4.89837e-05 0)
(2.0749e-05 4.87926e-05 0)
(1.28956e-05 4.79188e-05 0)
(5.31384e-06 4.64261e-05 0)
(-1.89606e-06 4.43707e-05 0)
(-8.69215e-06 4.18292e-05 0)
(-1.49868e-05 3.88803e-05 0)
(-2.07276e-05 3.55852e-05 0)
(-2.5882e-05 3.20367e-05 0)
(-3.03989e-05 2.82912e-05 0)
(-3.42634e-05 2.44247e-05 0)
(-3.74711e-05 2.05034e-05 0)
(-4.00211e-05 1.65854e-05 0)
(-4.19099e-05 1.27299e-05 0)
(-4.31522e-05 8.981e-06 0)
(-4.3789e-05 5.38069e-06 0)
(-4.38402e-05 1.97886e-06 0)
(-4.33351e-05 -1.21128e-06 0)
(-4.23184e-05 -4.15189e-06 0)
(-4.08299e-05 -6.82598e-06 0)
(-3.89267e-05 -9.2054e-06 0)
(-3.66303e-05 -1.13051e-05 0)
(-3.40148e-05 -1.30969e-05 0)
(-3.11254e-05 -1.45943e-05 0)
(-2.79962e-05 -1.57962e-05 0)
(-2.46993e-05 -1.67128e-05 0)
(-2.12704e-05 -1.73472e-05 0)
(-1.77597e-05 -1.77277e-05 0)
(-1.42108e-05 -1.78585e-05 0)
(-1.06664e-05 -1.77621e-05 0)
(-7.17319e-06 -1.74578e-05 0)
(-3.76105e-06 -1.69598e-05 0)
(-4.6457e-07 -1.62985e-05 0)
(2.68361e-06 -1.54907e-05 0)
(5.66552e-06 -1.45572e-05 0)
(8.45869e-06 -1.3522e-05 0)
(1.10356e-05 -1.24052e-05 0)
(1.33775e-05 -1.12238e-05 0)
(1.54805e-05 -9.99806e-06 0)
(1.73335e-05 -8.74941e-06 0)
(1.8927e-05 -7.49152e-06 0)
(2.02657e-05 -6.23799e-06 0)
(2.13446e-05 -5.01306e-06 0)
(2.21653e-05 -3.81902e-06 0)
(2.27397e-05 -2.6774e-06 0)
(2.30697e-05 -1.59046e-06 0)
(2.31722e-05 -5.70359e-07 0)
(2.30611e-05 3.73356e-07 0)
(2.27426e-05 1.23937e-06 0)
(2.22366e-05 2.02023e-06 0)
(2.15608e-05 2.71424e-06 0)
(2.07348e-05 3.31832e-06 0)
(1.97765e-05 3.83193e-06 0)
(1.87054e-05 4.25609e-06 0)
(1.75398e-05 4.59102e-06 0)
(1.62982e-05 4.84137e-06 0)
(1.50028e-05 5.00908e-06 0)
(1.36735e-05 5.10359e-06 0)
(1.23244e-05 5.1244e-06 0)
(1.09718e-05 5.08251e-06 0)
(9.63615e-06 4.98517e-06 0)
(8.32679e-06 4.83696e-06 0)
(7.05659e-06 4.64671e-06 0)
(5.83852e-06 4.41688e-06 0)
(4.67578e-06 4.15726e-06 0)
(3.57922e-06 3.8708e-06 0)
(2.56009e-06 3.56607e-06 0)
(1.62055e-06 3.24285e-06 0)
(7.62145e-07 2.90767e-06 0)
(-1.41156e-09 2.56647e-06 0)
(-6.69724e-07 2.21851e-06 0)
(-1.2463e-06 1.86718e-06 0)
(-1.72424e-06 1.51669e-06 0)
(-2.1018e-06 1.17224e-06 0)
(-2.37866e-06 8.38642e-07 0)
(-2.55714e-06 5.20448e-07 0)
(-2.64198e-06 2.21772e-07 0)
(-2.63813e-06 -5.49195e-08 0)
(-2.55102e-06 -3.07361e-07 0)
(-2.38714e-06 -5.33927e-07 0)
(-2.15301e-06 -7.32938e-07 0)
(-1.85632e-06 -9.02538e-07 0)
(-1.50604e-06 -1.04084e-06 0)
(-1.11121e-06 -1.14684e-06 0)
(-6.82315e-07 -1.21839e-06 0)
(-2.30421e-07 -1.25456e-06 0)
(9.34466e-06 -0.000405177 0)
(2.79471e-05 -0.000403913 0)
(4.661e-05 -0.000401798 0)
(6.51814e-05 -0.000398601 0)
(8.35261e-05 -0.000394287 0)
(0.000101643 -0.00038882 0)
(0.000119306 -0.000382185 0)
(0.000136681 -0.000374377 0)
(0.00015374 -0.000365355 0)
(0.00017084 -0.000355192 0)
(0.000187721 -0.000343997 0)
(0.00020376 -0.000331947 0)
(0.00021893 -0.000319192 0)
(0.0002331 -0.000305976 0)
(0.000246748 -0.000292415 0)
(0.000259949 -0.000278775 0)
(0.000272477 -0.000265231 0)
(0.000284173 -0.000251854 0)
(0.000295322 -0.000238877 0)
(0.000305924 -0.000226252 0)
(0.000315733 -0.000214057 0)
(0.000324877 -0.000202288 0)
(0.000333443 -0.000190881 0)
(0.000341371 -0.000179768 0)
(0.000348821 -0.000168931 0)
(0.000355467 -0.00015818 0)
(0.000361575 -0.000147531 0)
(0.000366941 -0.000136816 0)
(0.00037142 -0.000126076 0)
(0.000375419 -0.000115297 0)
(0.000378514 -0.000104387 0)
(0.000381292 -9.33783e-05 0)
(0.000384444 -8.21256e-05 0)
(0.000387385 -7.06239e-05 0)
(0.000390092 -5.87079e-05 0)
(0.00039269 -4.63764e-05 0)
(0.000394931 -3.35306e-05 0)
(0.000396701 -2.02712e-05 0)
(0.000397788 -6.56947e-06 0)
(0.000398098 7.60579e-06 0)
(0.000397364 2.2223e-05 0)
(0.000395635 3.72271e-05 0)
(0.000392882 5.25899e-05 0)
(0.000389041 6.82224e-05 0)
(0.00038403 8.40615e-05 0)
(0.000377803 9.99983e-05 0)
(0.000370277 0.000115953 0)
(0.000361406 0.000131735 0)
(0.000351089 0.000147314 0)
(0.000339399 0.000162494 0)
(0.000326241 0.000177219 0)
(0.00031165 0.00019127 0)
(0.000295647 0.000204516 0)
(0.000278124 0.000216752 0)
(0.000259497 0.000227882 0)
(0.000239617 0.000237786 0)
(0.000218594 0.000246316 0)
(0.000196655 0.000253239 0)
(0.000173728 0.000258557 0)
(0.000150099 0.000262131 0)
(0.000126103 0.000263846 0)
(0.000101816 0.000263645 0)
(7.73551e-05 0.000261501 0)
(5.31458e-05 0.000257345 0)
(2.92592e-05 0.000251169 0)
(5.93787e-06 0.000243077 0)
(-1.65157e-05 0.000232988 0)
(-3.79117e-05 0.00022109 0)
(-5.80693e-05 0.00020738 0)
(-7.67174e-05 0.000192058 0)
(-9.36305e-05 0.000175256 0)
(-0.000108682 0.000157162 0)
(-0.000121662 0.00013797 0)
(-0.000132402 0.000117914 0)
(-0.000140824 9.72277e-05 0)
(-0.000146862 7.61695e-05 0)
(-0.000150422 5.50114e-05 0)
(-0.0001515 3.40141e-05 0)
(-0.000150113 1.3468e-05 0)
(-0.00014637 -6.34946e-06 0)
(-0.000140359 -2.51948e-05 0)
(-0.000132166 -4.27972e-05 0)
(-0.000121974 -5.89287e-05 0)
(-0.000110018 -7.33954e-05 0)
(-9.6507e-05 -8.60153e-05 0)
(-8.16955e-05 -9.66452e-05 0)
(-6.58679e-05 -0.000105169 0)
(-4.93157e-05 -0.000111531 0)
(-3.23476e-05 -0.000115663 0)
(-1.52324e-05 -0.000117657 0)
(1.6841e-06 -0.000117485 0)
(1.8146e-05 -0.000115298 0)
(3.39031e-05 -0.000111187 0)
(4.86719e-05 -0.000105311 0)
(6.22565e-05 -9.78929e-05 0)
(7.44647e-05 -8.90892e-05 0)
(8.51399e-05 -7.91486e-05 0)
(9.41538e-05 -6.83225e-05 0)
(0.000101456 -5.68465e-05 0)
(0.000106952 -4.49583e-05 0)
(0.000110645 -3.28849e-05 0)
(0.000112566 -2.08854e-05 0)
(0.00011277 -9.15635e-06 0)
(0.000111369 2.0958e-06 0)
(0.000108443 1.27331e-05 0)
(0.000104114 2.25958e-05 0)
(9.85237e-05 3.15355e-05 0)
(9.18529e-05 3.94777e-05 0)
(8.42784e-05 4.6359e-05 0)
(7.59365e-05 5.20969e-05 0)
(6.7002e-05 5.67247e-05 0)
(5.76728e-05 6.01945e-05 0)
(4.81069e-05 6.25523e-05 0)
(3.8449e-05 6.38197e-05 0)
(2.88563e-05 6.41024e-05 0)
(1.94592e-05 6.34325e-05 0)
(1.03745e-05 6.18901e-05 0)
(1.72091e-06 5.95838e-05 0)
(-6.40895e-06 5.66005e-05 0)
(-1.39533e-05 5.30357e-05 0)
(-2.08519e-05 4.89821e-05 0)
(-2.70433e-05 4.4546e-05 0)
(-3.24908e-05 3.98075e-05 0)
(-3.7189e-05 3.48944e-05 0)
(-4.11104e-05 2.98523e-05 0)
(-4.42546e-05 2.47862e-05 0)
(-4.66393e-05 1.97651e-05 0)
(-4.82916e-05 1.48547e-05 0)
(-4.92384e-05 1.01194e-05 0)
(-4.95038e-05 5.59265e-06 0)
(-4.91489e-05 1.34232e-06 0)
(-4.82056e-05 -2.61511e-06 0)
(-4.67159e-05 -6.24454e-06 0)
(-4.47302e-05 -9.51941e-06 0)
(-4.23228e-05 -1.24245e-05 0)
(-3.95449e-05 -1.49455e-05 0)
(-3.64395e-05 -1.70986e-05 0)
(-3.30783e-05 -1.88685e-05 0)
(-2.95082e-05 -2.02698e-05 0)
(-2.57791e-05 -2.13141e-05 0)
(-2.19529e-05 -2.20157e-05 0)
(-1.80779e-05 -2.23945e-05 0)
(-1.41942e-05 -2.24699e-05 0)
(-1.0355e-05 -2.22662e-05 0)
(-6.59106e-06 -2.18099e-05 0)
(-2.94767e-06 -2.11267e-05 0)
(5.42418e-07 -2.02426e-05 0)
(3.85817e-06 -1.9186e-05 0)
(6.97282e-06 -1.79793e-05 0)
(9.85896e-06 -1.66501e-05 0)
(1.25088e-05 -1.52289e-05 0)
(1.49059e-05 -1.37371e-05 0)
(1.70295e-05 -1.21956e-05 0)
(1.88825e-05 -1.06303e-05 0)
(2.0461e-05 -9.05913e-06 0)
(2.17578e-05 -7.5046e-06 0)
(2.27808e-05 -5.98321e-06 0)
(2.35355e-05 -4.51329e-06 0)
(2.40309e-05 -3.0995e-06 0)
(2.42763e-05 -1.76769e-06 0)
(2.42816e-05 -5.12625e-07 0)
(2.40685e-05 6.44508e-07 0)
(2.36492e-05 1.69905e-06 0)
(2.30381e-05 2.64936e-06 0)
(2.22579e-05 3.49041e-06 0)
(2.13273e-05 4.22052e-06 0)
(2.02662e-05 4.83871e-06 0)
(1.90961e-05 5.34571e-06 0)
(1.78364e-05 5.7431e-06 0)
(1.65059e-05 6.03426e-06 0)
(1.51295e-05 6.22791e-06 0)
(1.37256e-05 6.32653e-06 0)
(1.23091e-05 6.33846e-06 0)
(1.09005e-05 6.27408e-06 0)
(9.51415e-06 6.14287e-06 0)
(8.16258e-06 5.94776e-06 0)
(6.85712e-06 5.70572e-06 0)
(5.60871e-06 5.41711e-06 0)
(4.4231e-06 5.09001e-06 0)
(3.31003e-06 4.73566e-06 0)
(2.27786e-06 4.35741e-06 0)
(1.32772e-06 3.95768e-06 0)
(4.65949e-07 3.54417e-06 0)
(-2.99967e-07 3.12691e-06 0)
(-9.69952e-07 2.6972e-06 0)
(-1.54375e-06 2.26476e-06 0)
(-2.01515e-06 1.83322e-06 0)
(-2.38211e-06 1.4097e-06 0)
(-2.64515e-06 9.99228e-07 0)
(-2.80658e-06 6.08916e-07 0)
(-2.87161e-06 2.42575e-07 0)
(-2.84651e-06 -9.51925e-08 0)
(-2.73755e-06 -4.03263e-07 0)
(-2.55097e-06 -6.79697e-07 0)
(-2.29331e-06 -9.226e-07 0)
(-1.97216e-06 -1.12966e-06 0)
(-1.59689e-06 -1.29822e-06 0)
(-1.17653e-06 -1.42734e-06 0)
(-7.21748e-07 -1.51464e-06 0)
(-2.43708e-07 -1.55867e-06 0)
(1.31858e-05 -0.000524521 0)
(3.94125e-05 -0.000521372 0)
(6.57981e-05 -0.000516854 0)
(9.21915e-05 -0.000510073 0)
(0.000118619 -0.000500999 0)
(0.000145015 -0.000489771 0)
(0.000171164 -0.000476546 0)
(0.000197157 -0.000461501 0)
(0.000222471 -0.000445014 0)
(0.00024652 -0.00042762 0)
(0.000268694 -0.000409954 0)
(0.000288872 -0.000392344 0)
(0.000306817 -0.000375091 0)
(0.000322269 -0.000358265 0)
(0.000335324 -0.000341956 0)
(0.000345816 -0.000326146 0)
(0.000354426 -0.000310807 0)
(0.000361018 -0.000295858 0)
(0.000366334 -0.000281171 0)
(0.000371048 -0.000266775 0)
(0.00037497 -0.000252678 0)
(0.000378792 -0.000238884 0)
(0.000382822 -0.000225478 0)
(0.000386877 -0.000212542 0)
(0.000391586 -0.000200094 0)