/*--------------------------------*- C++ -*----------------------------------*\
  =========                 |
  \\      /  F ield         | OpenFOAM: The Open Source CFD Toolbox
   \\    /   O peration     | Website:  https://openfoam.org
    \\  /    A nd           | Version:  12
     \\/     M anipulation  |
\*---------------------------------------------------------------------------*/
FoamFile
{
    format      ascii;
    class       volVectorField;
    location    "3";
    object      zeta;
}
// * * * * * * * * * * * * * * * * * * * * * * * * * * * * * * * * * * * * * //

dimensions      [0 1 0 0 0 0 0];

internalField   uniform (0 0 0);

boundaryField
{
    freeSurface
    {
        type            calculated;
        value           nonuniform List<vector> 
181
(
(0 0.0019211 0)
(0 0.00192094 0)
(0 0.00192069 0)
(0 0.00192037 0)
(0 0.00192003 0)
(0 0.00191973 0)
(0 0.00191949 0)
(0 0.00191923 0)
(0 0.000291167 0)
(0 0.000292116 0)
(0 0.000295979 0)
(0 0.000300576 0)
(0 0.000306219 0)
(0 0.000312888 0)
(0 0.000320202 0)
(0 0.000327907 0)
(0 0.000335714 0)
(0 0.000343336 0)
(0 0.000350435 0)
(0 0.000356728 0)
(0 0.000361944 0)
(0 0.000365814 0)
(0 0.000368164 0)
(0 0.000368817 0)
(0 0.000367614 0)
(0 0.000364415 0)
(0 0.000359093 0)
(0 0.000351578 0)
(0 0.000341816 0)
(0 0.000329799 0)
(0 0.000315527 0)
(0 0.000299051 0)
(0 0.000280445 0)
(0 0.000259802 0)
(0 0.000237245 0)
(0 0.000212945 0)
(0 0.000187093 0)
(0 0.000159884 0)
(0 0.000131575 0)
(0 0.000102429 0)
(0 7.27153e-05 0)
(0 4.27382e-05 0)
(0 1.28184e-05 0)
(0 -1.67252e-05 0)
(0 -4.55557e-05 0)
(0 -7.33268e-05 0)
(0 -9.96865e-05 0)
(0 -0.000124356 0)
(0 -0.000146999 0)
(0 -0.000167327 0)
(0 -0.000185089 0)
(0 -0.000200046 0)
(0 -0.000212005 0)
(0 -0.000220799 0)
(0 -0.000226295 0)
(0 -0.000228443 0)
(0 -0.000227207 0)
(0 -0.000222649 0)
(0 -0.000214838 0)
(0 -0.000203984 0)
(0 -0.000190318 0)
(0 -0.000174111 0)
(0 -0.00015576 0)
(0 -0.000135668 0)
(0 -0.000114291 0)
(0 -9.21054e-05 0)
(0 -6.96017e-05 0)
(0 -4.7227e-05 0)
(0 -2.54656e-05 0)
(0 -4.7249e-06 0)
(0 1.46182e-05 0)
(0 3.22702e-05 0)
(0 4.79773e-05 0)
(0 6.15518e-05 0)
(0 7.28926e-05 0)
(0 8.19344e-05 0)
(0 8.86985e-05 0)
(0 9.32382e-05 0)
(0 9.56606e-05 0)
(0 9.61244e-05 0)
(0 9.4804e-05 0)
(0 9.18921e-05 0)
(0 8.75766e-05 0)
(0 8.20994e-05 0)
(0 7.56771e-05 0)
(0 6.84908e-05 0)
(0 6.07674e-05 0)
(0 5.26843e-05 0)
(0 4.44242e-05 0)
(0 3.61232e-05 0)
(0 2.79449e-05 0)
(0 1.99617e-05 0)
(0 1.23186e-05 0)
(0 5.0567e-06 0)
(0 -1.73386e-06 0)
(0 -8.01108e-06 0)
(0 -1.37308e-05 0)
(0 -1.88694e-05 0)
(0 -2.34136e-05 0)
(0 -2.73628e-05 0)
(0 -3.07303e-05 0)
(0 -3.35308e-05 0)
(0 -3.57855e-05 0)
(0 -3.75156e-05 0)
(0 -3.87504e-05 0)
(0 -3.95245e-05 0)
(0 -3.98689e-05 0)
(0 -3.98214e-05 0)
(0 -3.94164e-05 0)
(0 -3.86918e-05 0)
(0 -3.76825e-05 0)
(0 -3.64242e-05 0)
(0 -3.49519e-05 0)
(0 -3.33018e-05 0)
(0 -3.15091e-05 0)
(0 -2.96058e-05 0)
(0 -2.76221e-05 0)
(0 -2.55886e-05 0)
(0 -2.35313e-05 0)
(0 -2.14741e-05 0)
(0 -1.9438e-05 0)
(0 -1.74396e-05 0)
(0 -1.54972e-05 0)
(0 -1.36272e-05 0)
(0 -1.18477e-05 0)
(0 -1.01723e-05 0)
(0 -8.61215e-06 0)
(0 -7.17322e-06 0)
(0 -5.85975e-06 0)
(0 -4.67478e-06 0)
(0 -3.622e-06 0)
(0 -2.70143e-06 0)
(0 -1.91319e-06 0)
(0 -1.25508e-06 0)
(0 -7.24971e-07 0)
(0 -3.21018e-07 0)
(0 -3.97626e-08 0)
(0 1.23319e-07 0)
(0 1.73853e-07 0)
(0 1.18201e-07 0)
(0 -3.59934e-08 0)
(0 -2.78101e-07 0)
(0 -5.96369e-07 0)
(0 -9.79228e-07 0)
(0 -1.41578e-06 0)
(0 -1.89901e-06 0)
(0 -2.42511e-06 0)
(0 -2.99008e-06 0)
(0 -3.58831e-06 0)
(0 -4.21209e-06 0)
(0 -4.85412e-06 0)
(0 -5.50826e-06 0)
(0 -6.16827e-06 0)
(0 -6.82786e-06 0)
(0 -7.4804e-06 0)
(0 -8.1188e-06 0)
(0 -8.73763e-06 0)
(0 -9.33306e-06 0)
(0 -9.9052e-06 0)
(0 -1.04507e-05 0)
(0 -1.09659e-05 0)
(0 -1.14439e-05 0)
(0 -1.18793e-05 0)
(0 -1.2269e-05 0)
(0 -1.26149e-05 0)
(0 -1.29233e-05 0)
(0 -1.32024e-05 0)
(0 -1.34579e-05 0)
(0 -1.3694e-05 0)
(0 -1.39114e-05 0)
(0 -1.41094e-05 0)
(0 -1.4283e-05 0)
(0 -1.44294e-05 0)
(0 -1.45506e-05 0)
(0 -1.46529e-05 0)
(0 -1.47411e-05 0)
(0 -1.48138e-05 0)
(0 -1.48642e-05 0)
(0 -1.48896e-05 0)
(0 -1.48965e-05 0)
(0 -1.48962e-05 0)
)
;
    }
    walls
    {
        type            calculated;
        value           uniform (0 0 0);
    }
    floatingObject
    {
        type            calculated;
        value           uniform (0 0 0);
    }
    frontAndBack
    {
        type            empty;
    }
}


// ************************************************************************* //
