/*--------------------------------*- C++ -*----------------------------------*\
  =========                 |
  \\      /  F ield         | OpenFOAM: The Open Source CFD Toolbox
   \\    /   O peration     | Website:  https://openfoam.org
    \\  /    A nd           | Version:  12
     \\/     M anipulation  |
\*---------------------------------------------------------------------------*/
FoamFile
{
    format      ascii;
    class       volScalarField;
    location    "11.92";
    object      p_rgh;
}
// * * * * * * * * * * * * * * * * * * * * * * * * * * * * * * * * * * * * * //

dimensions      [1 -1 -2 0 0 0 0];

internalField   nonuniform List<scalar> 
3829
(
-2.24817
-2.24738
-2.24579
-2.24334
-2.24002
-2.23576
-2.23052
-2.22424
-2.21686
-2.20833
-2.19856
-2.18749
-2.17504
-2.16114
-2.14571
-2.12867
-2.10996
-2.08952
-2.06728
-2.04321
-2.01727
-1.98943
-1.9597
-1.92807
-1.89459
-1.85928
-1.82223
-1.78352
-1.74325
-1.70157
-1.65864
-1.61462
-1.56973
-1.52419
-1.47823
-1.43212
-1.38611
-1.34048
-1.29553
-1.25154
-1.20883
-1.16766
-1.12829
-1.09096
-1.05589
-1.02329
-0.993334
-0.966166
-0.941899
-0.920615
-0.902364
-0.887163
-0.874992
-0.865793
-0.859467
-0.855869
-0.854806
-0.85604
-0.859293
-0.86424
-0.870514
-0.877717
-0.885418
-0.893154
-0.900443
-0.90679
-0.91169
-0.91464
-0.915135
-0.912704
-0.906897
-0.897305
-0.883569
-0.865398
-0.84258
-0.814992
-0.781925
-0.743803
-0.700889
-0.653468
-0.601875
-0.54652
-0.487922
-0.426413
-0.363371
-0.299402
-0.235409
-0.172378
-0.111332
-0.0533413
0.000525265
0.0492246
0.0917582
0.127233
0.154865
0.174003
0.184241
0.184272
0.174507
0.155302
0.127134
0.0906191
0.0465766
-0.00390537
-0.0595073
-0.118685
-0.179737
-0.240821
-0.300048
-0.355503
-0.405327
-0.447776
-0.481308
-0.504647
-0.516891
-0.517473
-0.505261
-0.481257
-0.446348
-0.401676
-0.348812
-0.289725
-0.226757
-0.162445
-0.0995622
-0.0407379
0.0114585
0.0547266
0.0871723
0.107465
0.114874
0.108747
0.0902088
0.0606493
0.0220594
-0.0230126
-0.0791911
-0.127732
-0.173002
-0.211775
-0.241176
-0.258989
-0.263827
-0.253917
-0.230753
-0.195911
-0.15169
-0.10127
-0.0482312
0.0027954
0.0480295
0.083775
0.107079
0.116043
0.110063
0.0894827
0.0564767
0.0141066
-0.0335533
-0.081914
-0.128801
-0.165017
-0.189837
-0.201018
-0.197774
-0.180837
-0.152518
-0.116197
-0.0759089
-0.0367995
-0.00273419
0.0229313
0.0381248
0.0420192
0.0358463
0.0214058
0.00115478
-0.0202333
-0.0405204
-0.057215
-0.0689519
-0.0755401
-0.0778299
-0.0776861
-0.0769639
-0.0776755
-0.0809907
-0.087348
-0.0961025
-0.105598
-0.113623
-0.118011
-0.116585
-0.10855
-0.0939109
-0.0741288
-0.0518163
-0.0303677
-0.0133379
-0.00383377
-2.31871
-2.3182
-2.31716
-2.31554
-2.31329
-2.31031
-2.30654
-2.30188
-2.29621
-2.28944
-2.28142
-2.27202
-2.26111
-2.24854
-2.23417
-2.21784
-2.19942
-2.17877
-2.15577
-2.1303
-2.10228
-2.07165
-2.03836
-2.00242
-1.96384
-1.92268
-1.87903
-1.83302
-1.7848
-1.73457
-1.68256
-1.62905
-1.57432
-1.51871
-1.46256
-1.40623
-1.35008
-1.29448
-1.23974
-1.18613
-1.13594
-1.08828
-1.04341
-1.00158
-0.963042
-0.927994
-0.896607
-0.869018
-0.845337
-0.825641
-0.80997
-0.79832
-0.790643
-0.78684
-0.786764
-0.790216
-0.796931
-0.80658
-0.818783
-0.833104
-0.849067
-0.866137
-0.883743
-0.901285
-0.918145
-0.933691
-0.947259
-0.958245
-0.966001
-0.969924
-0.969452
-0.964053
-0.953257
-0.936662
-0.913941
-0.884976
-0.84953
-0.807711
-0.759736
-0.705902
-0.646612
-0.582417
-0.514017
-0.442196
-0.367771
-0.292245
-0.216533
-0.141869
-0.0695329
-0.000852184
0.0628464
0.120271
0.17018
0.211469
0.243114
0.264366
0.274611
0.27283
0.259349
0.234447
0.198611
0.152583
0.0974325
0.0345372
-0.0344544
-0.107628
-0.182882
-0.257935
-0.330482
-0.398175
-0.458742
-0.510055
-0.550253
-0.577783
-0.591448
-0.590683
-0.574929
-0.544871
-0.50145
-0.446141
-0.380993
-0.308518
-0.231606
-0.153376
-0.077316
-0.00660129
0.055632
0.10658
0.143946
0.166066
0.172052
0.161728
0.136176
0.097115
0.0470486
-0.0109466
-0.0789293
-0.140409
-0.197128
-0.24531
-0.281529
-0.303121
-0.308348
-0.296045
-0.267457
-0.22439
-0.169854
-0.107854
-0.0425556
0.0196391
0.0744329
0.117341
0.144819
0.154627
0.14596
0.119801
0.0786099
0.0262533
-0.0323107
-0.0916275
-0.145863
-0.189362
-0.218349
-0.230418
-0.224862
-0.203054
-0.16777
-0.123241
-0.074197
-0.0277218
0.0118554
0.0406997
0.0564605
0.0587932
0.0490631
0.029859
0.00433631
-0.0216528
-0.0454281
-0.0640446
-0.0760297
-0.0814548
-0.0815474
-0.0788063
-0.075681
-0.0748882
-0.0777943
-0.0849243
-0.0954033
-0.107222
-0.117596
-0.123827
-0.123269
-0.11489
-0.0986603
-0.0762765
-0.0507805
-0.0261437
-0.00653415
0.004426
-2.41962
-2.42009
-2.42103
-2.42236
-2.424
-2.42579
-2.42754
-2.42904
-2.43001
-2.43019
-2.42925
-2.42688
-2.42274
-2.41647
-2.40771
-2.39608
-2.38125
-2.36287
-2.34065
-2.31431
-2.28365
-2.24852
-2.20883
-2.16455
-2.11575
-2.06256
-2.00519
-1.94392
-1.8791
-1.81111
-1.74044
-1.66761
-1.59321
-1.51784
-1.44215
-1.36677
-1.29238
-1.21967
-1.14937
-1.0823
-1.0168
-0.955018
-0.897525
-0.844806
-0.797273
-0.75528
-0.719116
-0.689004
-0.665096
-0.64747
-0.636131
-0.631019
-0.63198
-0.638772
-0.651075
-0.668489
-0.690545
-0.716709
-0.746383
-0.77891
-0.813573
-0.849588
-0.886143
-0.922385
-0.957372
-0.990306
-1.02025
-1.04633
-1.06766
-1.08342
-1.09286
-1.09525
-1.09
-1.07653
-1.0543
-1.02257
-0.981786
-0.93213
-0.873843
-0.807313
-0.733094
-0.65196
-0.564881
-0.472992
-0.377528
-0.280067
-0.182203
-0.08561
0.00796572
0.0967106
0.178829
0.252536
0.316192
0.368264
0.407397
0.432528
0.442825
0.437495
0.416755
0.38084
0.330348
0.266309
0.190237
0.104037
0.00996974
-0.0893664
-0.191135
-0.29221
-0.389502
-0.479852
-0.560235
-0.62781
-0.680122
-0.715163
-0.731379
-0.727901
-0.704866
-0.662763
-0.602875
-0.527325
-0.438984
-0.341345
-0.238385
-0.134106
-0.0336078
0.0590571
0.139724
0.204708
0.250992
0.276303
0.279056
0.260258
0.221127
0.164173
0.0929573
0.0117513
-0.0824994
-0.166936
-0.244364
-0.309657
-0.358253
-0.386572
-0.392364
-0.375051
-0.335747
-0.276965
-0.202962
-0.119125
-0.0308295
0.0521975
0.124584
0.180536
0.2155
0.226565
0.212578
0.175542
0.118848
0.0479573
-0.0305434
-0.109597
-0.180089
-0.23588
-0.271876
-0.285063
-0.274836
-0.243446
-0.195083
-0.135522
-0.0691148
-0.00952518
0.0398019
0.0740693
0.0905869
0.0893991
0.0726448
0.0442959
0.00896755
-0.0255393
-0.0556042
-0.0774991
-0.0895911
-0.0924261
-0.0881617
-0.0803644
-0.0726507
-0.0690314
-0.0712512
-0.0799031
-0.0937182
-0.109933
-0.124738
-0.134435
-0.135519
-0.126551
-0.107434
-0.0803029
-0.0490039
-0.0185807
0.00571794
0.0193133
-2.48912
-2.49209
-2.49806
-2.50697
-2.51865
-2.53282
-2.54907
-2.56683
-2.58538
-2.60394
-2.62167
-2.63783
-2.65163
-2.66219
-2.66868
-2.67032
-2.66633
-2.65598
-2.6386
-2.61364
-2.58068
-2.53944
-2.48978
-2.43173
-2.3655
-2.29141
-2.20995
-2.12172
-2.02741
-1.92781
-1.82389
-1.71668
-1.60729
-1.49685
-1.38651
-1.27737
-1.17047
-1.06676
-0.966985
-0.871424
-0.784082
-0.704422
-0.63264
-0.568993
-0.51375
-0.467168
-0.42946
-0.400805
-0.38131
-0.370996
-0.369784
-0.377491
-0.393836
-0.418441
-0.450811
-0.490339
-0.536304
-0.587898
-0.644225
-0.70431
-0.767101
-0.831458
-0.896211
-0.960105
-1.02193
-1.08041
-1.13429
-1.18231
-1.22328
-1.25609
-1.27971
-1.29327
-1.29611
-1.28788
-1.26873
-1.22984
-1.1799
-1.1181
-1.04434
-0.958961
-0.862704
-0.756634
-0.642095
-0.520685
-0.394212
-0.264595
-0.134378
-0.00579513
0.11871
0.236658
0.345518
0.442891
0.526454
0.594057
0.643935
0.674574
0.684846
0.674214
0.642624
0.590335
0.518229
0.42784
0.321291
0.201246
0.0708339
-0.0663639
-0.206462
-0.344974
-0.477745
-0.600506
-0.709151
-0.799855
-0.869247
-0.914631
-0.934164
-0.926318
-0.891925
-0.831543
-0.747101
-0.64174
-0.519507
-0.385272
-0.244518
-0.102874
0.0327051
0.156692
0.263473
0.348191
0.406981
0.436886
0.43409
0.401779
0.342077
0.258694
0.156948
0.0434393
-0.0925141
-0.208514
-0.315279
-0.404987
-0.471084
-0.508682
-0.514865
-0.489531
-0.433955
-0.352032
-0.249848
-0.134591
-0.0114682
0.101116
0.198216
0.272419
0.317754
0.330537
0.307979
0.254505
0.175165
0.0776121
-0.0291394
-0.137762
-0.231261
-0.303932
-0.349284
-0.363579
-0.345648
-0.299691
-0.232339
-0.153098
-0.0575204
0.0184469
0.0810914
0.122639
0.139551
0.132425
0.10492
0.0629651
0.0135253
-0.033175
-0.0719638
-0.0980619
-0.109704
-0.108168
-0.0971249
-0.0817845
-0.0672442
-0.0595543
-0.0608721
-0.0718554
-0.0906481
-0.113317
-0.134582
-0.149323
-0.152832
-0.143074
-0.11992
-0.0861312
-0.046722
-0.00819502
0.0226471
0.0399165
-2.46423
-2.47267
-2.4897
-2.51534
-2.54835
-2.58836
-2.63463
-2.6859
-2.74083
-2.79791
-2.8554
-2.91134
-2.96371
-3.0106
-3.0502
-3.0808
-3.10092
-3.10922
-3.10455
-3.08588
-3.05245
-3.00372
-2.93949
-2.85985
-2.7653
-2.65665
-2.53506
-2.40196
-2.25903
-2.10814
-1.95128
-1.7905
-1.62787
-1.46544
-1.30513
-1.1487
-0.997794
-0.853904
-0.718602
-0.59418
-0.478553
-0.373535
-0.280196
-0.199336
-0.131547
-0.0772493
-0.0367022
-0.0100014
0.00289399
0.00216758
-0.0118475
-0.0386789
-0.0777144
-0.128213
-0.189325
-0.260086
-0.339418
-0.42614
-0.51895
-0.616457
-0.717192
-0.819567
-0.921927
-1.02258
-1.11982
-1.21187
-1.297
-1.37349
-1.43968
-1.49395
-1.53482
-1.56088
-1.57073
-1.56324
-1.53706
-1.49893
-1.44174
-1.36609
-1.27275
-1.16274
-1.03735
-0.898201
-0.747254
-0.586778
-0.419348
-0.246564
-0.0738475
0.0967764
0.26196
0.418237
0.562176
0.690478
0.79995
0.88777
0.951503
0.989118
0.99913
0.981175
0.934893
0.860702
0.759923
0.634753
0.488131
0.323729
0.145825
-0.0407563
-0.231272
-0.418443
-0.597136
-0.761655
-0.906508
-1.02664
-1.11767
-1.17587
-1.19875
-1.18449
-1.13427
-1.04909
-0.931896
-0.787025
-0.620059
-0.437717
-0.247459
-0.0575805
0.123507
0.287808
0.427855
0.537323
0.611879
0.650805
0.635378
0.584057
0.496722
0.377808
0.234384
0.0750576
-0.103687
-0.264368
-0.410523
-0.53208
-0.620616
-0.669781
-0.675697
-0.638878
-0.561045
-0.448236
-0.309512
-0.156952
0.0205843
0.167371
0.295495
0.392687
0.450759
0.466667
0.430509
0.354984
0.245795
0.113633
-0.0273173
-0.179479
-0.299812
-0.393384
-0.449933
-0.464939
-0.435697
-0.369796
-0.275954
-0.165393
-0.0470238
0.0553621
0.135847
0.186251
0.202762
0.186901
0.144578
0.0843612
0.0165675
-0.0458386
-0.0954515
-0.126255
-0.136476
-0.128456
-0.10796
-0.0827059
-0.0585485
-0.0458778
-0.046187
-0.060415
-0.0858823
-0.117086
-0.14684
-0.168188
-0.174895
-0.164187
-0.13593
-0.0937269
-0.0440881
0.00463313
0.0436988
0.0655953
-2.15317
-2.17024
-2.20473
-2.25667
-2.32707
-2.4153
-2.52127
-2.63783
-2.76383
-2.89652
-3.0327
-3.16885
-3.30132
-3.42629
-3.53987
-3.63819
-3.71746
-3.77412
-3.80507
-3.80778
-3.78072
-3.72327
-3.63563
-3.51881
-3.37449
-3.20499
-3.01331
-2.80296
-2.57795
-2.34219
-2.09978
-1.85464
-1.6105
-1.37053
-1.13751
-0.9138
-0.701384
-0.501727
-0.315755
-0.15146
-0.00539766
0.122677
0.232638
0.324191
0.397088
0.45113
0.486258
0.502555
0.500291
0.479892
0.441924
0.387113
0.316345
0.230658
0.13126
0.0194878
-0.103148
-0.23502
-0.374376
-0.51934
-0.667917
-0.817977
-0.967361
-1.11377
-1.25492
-1.38852
-1.51224
-1.62386
-1.72113
-1.80194
-1.86438
-1.90676
-1.92756
-1.92542
-1.89957
-1.85144
-1.77922
-1.68287
-1.56307
-1.42105
-1.25849
-1.0775
-0.880721
-0.671165
-0.452239
-0.227466
-0.00155637
0.221415
0.437011
0.640621
0.827767
0.994062
1.13531
1.24782
1.3283
1.37412
1.38336
1.35583
1.29089
1.18921
1.05269
0.884306
0.68807
0.468975
0.23291
-0.0132729
-0.268564
-0.514065
-0.748393
-0.963578
-1.15225
-1.30765
-1.4242
-1.49736
-1.5236
-1.50031
-1.42945
-1.31284
-1.15461
-0.96056
-0.7382
-0.496487
-0.245384
0.00381701
0.240372
0.453393
0.632871
0.77007
0.857638
0.888887
0.87467
0.803959
0.683191
0.52023
0.325033
0.109021
-0.121872
-0.337184
-0.53144
-0.691739
-0.807092
-0.869442
-0.874273
-0.821965
-0.715548
-0.563213
-0.376703
-0.170126
0.0514725
0.248073
0.415851
0.540703
0.611743
0.621489
0.576712
0.475148
0.328805
0.15244
-0.0370886
-0.22483
-0.384023
-0.503709
-0.572676
-0.584646
-0.543286
-0.45271
-0.32617
-0.179121
-0.0284559
0.10363
0.204732
0.264716
0.279525
0.251813
0.190388
0.107196
0.0168671
-0.0645381
-0.126738
-0.162371
-0.169839
-0.152961
-0.120041
-0.0814247
-0.0472165
-0.0277387
-0.0269121
-0.0453674
-0.0792545
-0.121067
-0.161271
-0.190732
-0.201366
-0.189564
-0.155237
-0.103019
-0.0412243
0.0195758
0.0683797
0.0957369
-1.61019
-1.65044
-1.73173
-1.85394
-2.01526
-2.21149
-2.43568
-2.68641
-2.95797
-3.2397
-3.52622
-3.80772
-4.07532
-4.32092
-4.53747
-4.71897
-4.86054
-4.95834
-5.00956
-5.01223
-4.96507
-4.86746
-4.71976
-4.52331
-4.28112
-3.99773
-3.6799
-3.3363
-2.97681
-2.60877
-2.23933
-1.87489
-1.52061
-1.18063
-0.858082
-0.554892
-0.272664
-0.012635
0.207749
0.410164
0.589637
0.744164
0.872791
0.975162
1.05126
1.10134
1.12583
1.12533
1.10056
1.05236
0.981772
0.889937
0.778144
0.647831
0.500618
0.338281
0.162769
-0.0238303
-0.219226
-0.421022
-0.626634
-0.833358
-1.03838
-1.23877
-1.43163
-1.61397
-1.78287
-1.93538
-2.06873
-2.18031
-2.26772
-2.32867
-2.36123
-2.36398
-2.33576
-2.27685
-2.18642
-2.06468
-1.9126
-1.73178
-1.52438
-1.29317
-1.04158
-0.77354
-0.493506
-0.206178
0.0826057
0.367445
0.642559
0.90202
1.14001
1.35089
1.52932
1.67056
1.77043
1.82552
1.83338
1.79394
1.70633
1.5716
1.39241
1.17263
0.917474
0.633383
0.327819
0.00917306
-0.314266
-0.630448
-0.930587
-1.205
-1.44446
-1.6405
-1.78592
-1.87557
-1.90703
-1.86977
-1.77332
-1.61895
-1.41171
-1.1592
-0.871192
-0.559366
-0.236619
0.0823114
0.383627
0.653335
0.878732
1.04874
1.1545
1.19014
1.16139
1.06257
0.900224
0.68421
0.427586
0.145408
-0.149751
-0.428352
-0.67835
-0.883243
-1.02915
-1.10601
-1.10833
-1.0366
-0.895539
-0.695805
-0.452738
-0.184484
0.0933691
0.346048
0.559673
0.716558
0.803455
0.81265
0.748837
0.614195
0.423162
0.194876
-0.0490526
-0.284371
-0.48573
-0.634803
-0.717643
-0.727739
-0.668056
-0.547077
-0.381634
-0.192061
-0.00216025
0.16361
0.287643
0.357411
0.368796
0.325938
0.241087
0.130317
0.0134823
-0.0898783
-0.166098
-0.206366
-0.209493
-0.181239
-0.133014
-0.0784718
-0.0320292
-0.00486513
-0.00299307
-0.0267719
-0.0707637
-0.125159
-0.177655
-0.216609
-0.231839
-0.21879
-0.177517
-0.113861
-0.0382215
0.0363145
0.0961521
0.129705
-0.0823813
-0.14605
-0.274413
-0.468836
-0.7308
-1.06115
-1.45929
-1.93093
-2.43361
-2.94903
-3.45996
-3.95546
-4.42585
-4.86131
-5.25286
-5.59223
-5.87198
-6.08535
-6.22641
-6.29002
-6.27195
-6.16982
-5.98305
-5.7125
-5.3628
-4.94017
-4.45637
-3.92888
-3.38002
-2.82975
-2.29138
-1.77242
-1.27842
-0.814543
-0.387861
0.000253367
0.350688
0.65352
0.931548
1.17127
1.37426
1.54181
1.67482
1.77409
1.84043
1.87464
1.87754
1.85006
1.7932
1.70809
1.59603
1.45843
1.29693
1.11333
0.909631
0.68803
0.45095
0.201029
-0.0589338
-0.325922
-0.596787
-0.868129
-1.13646
-1.39813
-1.64951
-1.88692
-2.10671
-2.3053
-2.47916
-2.62498
-2.7398
-2.82092
-2.86605
-2.87323
-2.84094
-2.76906
-2.65719
-2.50578
-2.31613
-2.09031
-1.83105
-1.54188
-1.22716
-0.891907
-0.541763
-0.182732
0.177962
0.533427
0.876369
1.19936
1.49504
1.75637
1.9767
2.15013
2.27152
2.33671
2.34266
2.28885
2.17473
2.00182
1.77354
1.49485
1.17236
0.814234
0.429929
0.030074
-0.373752
-0.768775
-1.14285
-1.48373
-1.77986
-2.02072
-2.1973
-2.30214
-2.32944
-2.28393
-2.15983
-1.9623
-1.69875
-1.37915
-1.01605
-0.624289
-0.220147
0.177793
0.552206
0.885767
1.16262
1.36925
1.49525
1.53416
1.48778
1.35519
1.14402
0.866738
0.53972
0.182065
-0.187289
-0.537245
-0.849939
-1.1046
-1.28416
-1.37623
-1.37457
-1.27956
-1.09805
-0.843804
-0.536321
-0.19852
0.145803
0.460796
0.725558
0.917991
1.0221
1.02968
0.943049
0.769543
0.526967
0.239517
-0.0653473
-0.356065
-0.603959
-0.785071
-0.882434
-0.888817
-0.807433
-0.650941
-0.44079
-0.202911
0.0317752
0.234867
0.383693
0.463205
0.469173
0.40781
0.295368
0.152761
0.00580391
-0.122035
-0.213301
-0.257741
-0.254824
-0.212697
-0.146431
-0.0735869
-0.012924
0.0226589
0.0253497
-0.00480326
-0.0605354
-0.129309
-0.195736
-0.245411
-0.265784
-0.251336
-0.202346
-0.126046
-0.0351291
0.0545052
0.126448
0.166792
2.12936
2.00032
1.73982
1.346
0.81877
0.161002
-0.627814
-1.53616
-2.48942
-3.45758
-4.42286
-5.36152
-6.21981
-6.98688
-7.65069
-8.20157
-8.63233
-8.93751
-9.11288
-9.15517
-9.06171
-8.83054
-8.46316
-7.95814
-7.32261
-6.5639
-5.69574
-4.76123
-3.83412
-2.95994
-2.15571
-1.42121
-0.752267
-0.136604
0.37147
0.809025
1.1924
1.53683
1.83775
2.09379
2.30547
2.47393
2.60062
2.68694
2.73417
2.74351
2.71615
2.65329
2.55621
2.42631
2.26513
2.07435
1.85587
1.61181
1.34453
1.05663
0.751017
0.430826
0.0994372
-0.239559
-0.582329
-0.924752
-1.26261
-1.5915
-1.90698
-2.20459
-2.47989
-2.72851
-2.9462
-3.12897
-3.27323
-3.37575
-3.43383
-3.44548
-3.40705
-3.31984
-3.18344
-2.99845
-2.76649
-2.49012
-2.17279
-1.81888
-1.43376
-1.02366
-0.595573
-0.156894
0.283518
0.717162
1.13506
1.52812
1.88733
2.20406
2.47024
2.67867
2.82314
2.89872
2.90205
2.83177
2.68776
2.47213
2.18915
1.84496
1.44783
1.00779
0.536526
0.0473141
-0.445571
-0.92705
-1.382
-1.79549
-2.15341
-2.44293
-2.65319
-2.77553
-2.80403
-2.74118
-2.58362
-2.33698
-2.01036
-1.61618
-1.16991
-0.689804
-0.195367
0.289371
0.743888
1.14702
1.47969
1.72562
1.87254
1.91315
1.84682
1.67582
1.40971
1.06391
0.658705
0.217671
-0.234221
-0.66254
-1.04364
-1.35231
-1.56787
-1.67562
-1.66825
-1.54642
-1.31935
-1.00421
-0.625277
-0.210982
0.207584
0.590689
0.910943
1.14157
1.26351
1.26751
1.15523
0.938048
0.638047
0.285185
-0.0867713
-0.438633
-0.73686
-0.952055
-1.06411
-1.06482
-0.958595
-0.762048
-0.502175
-0.2109
0.07304
0.316418
0.49137
0.580298
0.578834
0.495776
0.351952
0.173771
-0.00641861
-0.160757
-0.267736
-0.315681
-0.30499
-0.246639
-0.159864
-0.0666111
0.00989138
0.0544499
0.0576566
0.0201342
-0.0488056
-0.133502
-0.215216
-0.27663
-0.30257
-0.286569
-0.229217
-0.139305
-0.0319991
0.0737859
0.158667
0.206248
5.87593
5.70134
5.34724
4.79882
4.03885
3.0482
1.78889
0.101831
-1.95221
-3.73509
-5.22942
-6.50763
-7.66175
-8.694
-9.58398
-10.321
-10.9012
-11.3214
-11.5779
-11.6656
-11.5777
-11.3013
-10.8348
-10.1621
-9.29793
-8.23767
-6.85292
-5.12435
-3.70708
-2.52216
-1.53872
-0.678869
0.0605182
0.685254
1.27432
1.7992
2.24585
2.61775
2.92559
3.17669
3.37579
3.52626
3.63058
3.69047
3.70734
3.68238
3.61669
3.5114
3.36777
3.18718
2.97123
2.72177
2.44091
2.13102
1.79482
1.4353
1.05583
0.660073
0.25199
-0.164232
-0.58401
-1.00249
-1.41467
-1.81533
-2.1992
-2.56098
-2.89533
-3.1971
-3.4612
-3.68292
-3.85793
-3.98237
-4.05305
-4.06785
-4.02252
-3.9184
-3.75503
-3.53321
-3.25494
-2.92341
-2.54282
-2.1185
-1.65698
-1.16579
-0.653334
-0.128557
0.397914
0.915845
1.41443
1.88278
2.31014
2.68616
3.00123
3.24683
3.41558
3.5017
3.50137
3.41274
3.23599
2.97381
2.63138
2.21629
1.73847
1.21019
0.645447
0.0599939
-0.528642
-1.10271
-1.64406
-2.13485
-2.55834
-2.89934
-3.14507
-3.28555
-3.31458
-3.23155
-3.03654
-2.73595
-2.34061
-1.86556
-1.32955
-0.754307
-0.162631
0.415172
0.955155
1.43229
1.82399
2.11109
2.27917
2.31978
2.23128
2.01808
1.69205
1.27182
0.782036
0.251022
-0.290002
-0.802112
-1.25611
-1.62194
-1.87515
-1.99855
-1.98383
-1.8322
-1.55518
-1.17388
-0.717717
-0.220975
0.277685
0.733458
1.11252
1.38317
1.52312
1.52177
1.38119
1.11633
0.754044
0.330691
-0.113356
-0.530595
-0.88203
-1.13272
-1.25928
-1.25254
-1.11858
-0.878168
-0.564391
-0.215621
0.120985
0.406867
0.608757
0.706448
0.695672
0.588087
0.409636
0.192791
-0.0231153
-0.205424
-0.328416
-0.379072
-0.358977
-0.282313
-0.172945
-0.0575547
0.0360246
0.0899203
0.093285
0.0474767
-0.0358684
-0.137728
-0.235756
-0.309727
-0.341504
-0.323796
-0.257593
-0.153354
-0.028872
0.0938011
0.192191
0.247318
10.9445
10.7332
10.2928
9.58223
8.53826
7.05772
4.95726
2.09774
-1.17932
-4.06075
-6.57816
-8.77087
-10.6172
-12.1342
-13.3703
-14.3542
-15.1011
-15.6195
-15.9122
-15.9779
-15.809
-15.3908
-14.7108
-13.7215
-12.3727
-10.6349
-8.39404
-5.3851
-3.41656
-1.71075
-0.346005
0.685557
1.50482
2.16443
2.70818
3.1605
3.54274
3.86661
4.13603
4.35406
4.52256
4.64289
4.71584
4.74234
4.72308
4.65879
4.55024
4.39838
4.20432
3.9694
3.69522
3.38371
3.03711
2.65806
2.24957
1.81502
1.35825
0.883462
0.39521
-0.101731
-0.60194
-1.09983
-1.5896
-2.06514
-2.52032
-2.94893
-3.34477
-3.70179
-4.01405
-4.27596
-4.4825
-4.62905
-4.71153
-4.72625
-4.67527
-4.55327
-4.36094
-4.09963
-3.7719
-3.3816
-2.93375
-2.43468
-1.89217
-1.31513
-0.71348
-0.0978032
0.519439
1.12614
1.7096
2.25705
2.75589
3.19398
3.5601
3.84429
4.038
4.13458
4.12972
4.0211
3.80928
3.4975
3.09205
2.60193
2.03895
1.41753
0.754393
0.067909
-0.62124
-1.2923
-1.92398
-2.49545
-2.98712
-3.38137
-3.66341
-3.82186
-3.84976
-3.74512
-3.50984
-3.15155
-2.68324
-2.12272
-1.49213
-0.816796
-0.122224
0.552896
1.182
1.73611
2.18896
2.5182
2.70726
2.74651
2.63387
2.37543
1.98548
1.48636
0.907195
0.281413
-0.353373
-0.95328
-1.48331
-1.90842
-2.20022
-2.33901
-2.31543
-2.13138
-1.801
-1.34945
-0.811674
-0.228306
0.35459
0.886331
1.32648
1.63826
1.79604
1.78786
1.61673
1.30096
0.872693
0.37515
-0.144763
-0.63018
-1.03671
-1.32364
-1.46426
-1.44854
-1.28441
-0.997093
-0.626096
-0.217114
0.174661
0.504489
0.733636
0.839297
0.817494
0.683009
0.467349
0.209468
-0.0439492
-0.255145
-0.394125
-0.446667
-0.415681
-0.318987
-0.185368
-0.0465681
0.0649466
0.128346
0.131487
0.0766305
-0.0220498
-0.141989
-0.257005
-0.344125
-0.381865
-0.362312
-0.286921
-0.167906
-0.0257793
0.114209
0.226421
0.289261
16.7231
16.5924
16.3337
15.9468
15.4628
14.9114
14.536
14.2973
0.931748
1.58861
1.76419
2.21286
2.72835
3.24921
3.72426
4.16192
4.55066
4.88307
5.16196
5.39055
5.57002
5.70161
5.78562
5.82216
5.81116
5.75255
5.6464
5.49299
5.29285
5.04681
4.75605
4.42213
4.04701
3.6331
3.18323
2.70074
2.18938
1.65349
1.09779
0.527442
-0.0520416
-0.634611
-1.21381
-1.783
-2.33518
-2.86331
-3.36027
-3.81895
-4.23235
-4.59366
-4.89647
-5.13501
-5.30403
-5.39904
-5.41666
-5.35548
-5.21321
-4.98992
-4.68705
-4.30756
-3.85594
-3.33805
-2.7613
-2.13472
-1.46864
-0.774599
-0.064893
0.646164
1.34451
2.0155
2.6444
3.21671
3.71851
4.1369
4.46044
4.67938
4.7862
4.77591
4.64605
4.39743
4.03396
3.56301
2.99509
2.344
1.62641
0.861621
0.0710432
-0.721532
-1.49224
-2.21658
-2.87058
-3.43182
-3.88014
-4.19868
-4.37462
-4.40004
-4.27248
-3.99491
-3.57637
-3.03218
-2.38311
-1.6549
-0.876852
-0.0748816
0.699793
1.42
2.05273
2.56772
2.93947
3.1491
3.18575
3.04735
2.74143
2.28483
1.70365
1.03194
0.308486
-0.42296
-1.11309
-1.72094
-2.20639
-2.53709
-2.69073
-2.65697
-2.43866
-2.05243
-1.52783
-0.905601
-0.23273
0.436841
1.04643
1.54886
1.90215
2.07731
2.06111
1.85761
1.4886
0.991854
0.41769
-0.180057
-0.735416
-1.19799
-1.52132
-1.67536
-1.64933
-1.45318
-1.11679
-0.686504
-0.21536
0.23295
0.607384
0.863655
0.976414
0.942131
0.778915
0.524107
0.223696
-0.068384
-0.308867
-0.463537
-0.517075
-0.474004
-0.355974
-0.196911
-0.0339006
0.0960511
0.168938
0.171474
0.106978
-0.00769313
-0.146276
-0.278625
-0.379249
-0.42295
-0.401443
-0.316677
-0.182687
-0.022737
0.13469
0.260797
0.33139
22.8945
22.8553
22.7819
22.6788
22.5704
22.4718
22.4088
22.3366
3.66059
4.01747
4.36063
4.78377
5.11564
5.37301
5.58676
5.78971
6.01821
6.24955
6.46007
6.63662
6.77336
6.86685
6.91484
6.91558
6.86776
6.77039
6.62289
6.42502
6.17692
5.87917
5.53276
5.13921
4.7005
4.21919
3.69835
3.14162
2.55317
1.9378
1.3008
0.647932
-0.0145936
-0.680004
-1.34101
-1.99012
-2.61943
-3.22098
-3.7867
-4.30855
-4.77858
-5.18911
-5.53286
-5.80332
-5.99459
-6.10166
-6.12076
-6.04943
-5.88604
-5.63068
-5.285
-4.85239
-4.338
-3.74856
-3.09253
-2.38027
-1.62353
-0.835456
-0.0302302
0.776097
1.56738
2.32704
3.03836
3.68492
4.25099
4.72195
5.08493
5.32897
5.44558
5.4292
5.27726
4.9908
4.57444
4.03662
3.3895
2.64876
1.83357
0.965779
0.0696784
-0.827465
-1.69885
-2.51662
-3.25367
-3.88473
-4.38704
-4.74176
-4.9345
-4.95647
-4.80496
-4.48374
-4.00348
-3.38181
-2.64261
-1.81561
-0.934897
-0.0206299
0.852887
1.66465
2.37641
2.95365
3.36762
3.59716
3.63022
3.46488
3.10996
2.58522
1.92045
1.15464
0.331872
-0.497367
-1.27854
-1.9647
-2.51058
-2.87986
-3.04767
-3.00274
-2.7488
-2.30533
-1.70613
-0.997881
-0.234608
0.522788
1.21084
1.77575
2.1703
2.36221
2.33697
2.09991
1.67634
1.10977
0.457684
-0.218397
-0.844321
-1.36299
-1.72233
-1.88902
-1.85162
-1.62223
-1.23549
-0.744691
-0.210752
0.294621
0.713618
0.996502
1.1155
1.06754
0.874339
0.579179
0.235443
-0.0957729
-0.365469
-0.535302
-0.589014
-0.532917
-0.392671
-0.207458
-0.0198405
0.128697
0.210902
0.212476
0.137924
0.00689823
-0.150579
-0.300262
-0.414587
-0.464104
-0.440563
-0.346383
-0.197447
-0.0197779
0.15496
0.294833
0.373095
28.4712
28.447
28.4005
28.3274
28.2326
28.1158
28.0128
27.8506
5.56949
5.69297
5.8158
5.88445
6.10899
6.41797
6.74127
7.05148
7.29898
7.50944
7.68876
7.82916
7.93082
7.99133
8.00698
7.97489
7.89279
7.75896
7.57219
7.33173
7.03737
6.68942
6.28875
5.83682
5.33569
4.78807
4.19727
3.56727
2.90263
2.20868
1.49124
0.756653
0.01186
-0.735648
-1.47776
-2.20612
-2.91193
-3.5863
-4.22022
-4.80467
-5.33081
-5.79001
-6.17418
-6.47605
-6.68903
-6.80756
-6.8274
-6.74561
-6.56065
-6.27274
-5.88377
-5.3976
-4.82005
-4.15867
-3.42308
-2.62488
-1.77732
-0.89522
0.00584864
0.907279
1.79132
2.63941
3.43287
4.15332
4.78324
5.30631
5.70824
5.97686
6.10277
6.07981
5.90531
5.58061
5.11094
4.50598
3.77951
2.94906
2.03624
1.06567
0.0643936
-0.936959
-1.9085
-2.8191
-3.63854
-4.33864
-4.89415
-5.28424
-5.49296
-5.51068
-5.33458
-4.96917
-4.42672
-3.72715
-2.89748
-1.9716
-0.990159
0.0386089
1.00887
1.91164
2.70177
3.34052
3.79587
4.04449
4.07318
3.88012
3.4757
2.88222
2.13364
1.27368
0.351815
-0.574985
-1.44669
-2.21051
-2.81605
-3.22309
-3.40429
-3.3474
-3.05721
-2.55593
-1.88186
-1.08764
-0.233926
0.610876
1.37682
2.00349
2.43851
2.64637
2.61135
2.3401
1.86153
1.22491
0.495176
-0.259293
-0.95499
-1.52901
-1.9235
-2.10199
-2.05244
-1.78918
-1.35163
-0.800192
-0.20359
0.358441
0.821336
1.13
1.25435
1.19189
0.968011
0.631973
0.244816
-0.125406
-0.423823
-0.608128
-0.661273
-0.591488
-0.42856
-0.216945
-0.00473259
0.162251
0.253476
0.253769
0.168927
0.0214513
-0.154882
-0.321609
-0.449663
-0.504741
-0.479126
-0.375624
-0.211973
-0.0169111
0.174769
0.3281
0.413857
33.4867
33.4712
33.4429
33.3977
33.3471
33.2882
33.246
33.1911
7.2091
7.26413
7.3687
7.46953
7.62962
7.83731
8.0651
8.29394
8.49958
8.67838
8.82641
8.94802
9.02264
9.05708
9.04595
8.98557
8.87306
8.70613
8.48306
8.20271
7.86456
7.46872
7.01597
6.50776
5.94624
5.33427
4.67544
3.97407
3.23514
2.46449
1.66848
0.854047
0.0288128
-0.799005
-1.62049
-2.42644
-3.20716
-3.95285
-4.65354
-5.29929
-5.88031
-6.38707
-6.81067
-7.14307
-7.37701
-7.50638
-7.52649
-7.43396
-7.22732
-6.9069
-6.47485
-5.93548
-5.29526
-4.56265
-3.74833
-2.86516
-1.92787
-0.95291
0.0426349
1.03783
2.01321
2.94831
3.82248
4.6155
5.30801
5.88208
6.32199
6.61439
6.74904
6.71915
6.52199
6.15918
5.63663
4.96524
4.16025
3.24133
2.23226
1.16044
0.0557702
-1.04804
-2.11792
-3.11956
-4.01963
-4.78715
-5.39445
-5.8187
-6.04252
-6.05541
-5.85443
-5.44494
-4.84074
-4.06401
-3.14477
-2.1207
-1.03736
0.096439
1.16451
2.1571
3.0241
3.72284
4.2183
4.48501
4.50866
4.28765
3.83391
3.17229
2.34062
1.38775
0.368551
-0.654258
-1.61484
-2.45468
-3.1184
-3.56197
-3.75569
-3.68629
-3.35984
-2.80112
-2.05293
-1.17381
-0.231032
0.699573
1.54184
2.22882
2.70305
2.92594
2.88065
2.57514
2.04196
1.33601
0.529427
-0.301303
-1.06564
-1.69361
-2.12202
-2.31143
-2.24922
-1.95202
-1.464
-0.852441
-0.19444
0.423234
0.928842
1.2622
1.39105
1.31359
1.05887
0.682068
0.252004
-0.156567
-0.482867
-0.680838
-0.732778
-0.648921
-0.463234
-0.225356
0.0110752
0.196118
0.295969
0.294716
0.199517
0.035734
-0.159157
-0.342421
-0.484048
-0.544358
-0.516671
-0.404051
-0.226086
-0.0141627
0.193919
0.360258
0.453247
37.9714
37.9616
37.945
37.9174
37.8904
37.8578
37.8373
37.8097
8.50353
8.54351
8.6372
8.74285
8.88388
9.05611
9.24106
9.42902
9.60421
9.75867
9.88534
9.97769
10.0402
10.0563
10.0238
9.93963
9.80068
9.60426
9.34819
9.031
8.65191
8.21094
7.70878
7.14692
6.5276
5.85389
5.12963
4.35951
3.54895
2.70427
1.8324
0.940835
0.0378398
-0.867653
-1.76593
-2.64698
-3.50023
-4.315
-5.08038
-5.78548
-6.41959
-6.97232
-7.43398
-7.79577
-8.04976
-8.18932
-8.20936
-8.10596
-7.8778
-7.52537
-7.05103
-6.45951
-5.75797
-4.95572
-4.06445
-3.09834
-2.07346
-1.00797
0.079636
1.16611
2.23034
3.25001
4.20256
5.066
5.81918
6.44257
6.91909
7.23428
7.37709
7.34007
7.12046
6.72014
6.1458
5.40947
4.52786
3.52272
2.41992
1.24953
0.0444025
-1.15891
-2.32423
-3.41411
-4.3922
-5.22484
-5.88199
-6.33893
-6.57688
-6.58455
-6.35877
-5.90588
-5.24119
-4.38902
-3.38226
-2.26199
-1.07563
0.15092
1.31765
2.39782
3.33932
4.09595
4.62986
4.91357
4.93173
4.68297
4.18067
3.45246
2.53957
1.49596
0.382244
-0.733816
-1.78063
-2.69405
-3.41387
-3.89241
-4.0977
-4.01561
-3.65326
-3.03829
-2.21763
-1.25556
-0.226499
0.78753
1.70375
2.44897
2.96078
3.19774
3.14188
2.80252
2.21581
1.44216
0.560964
-0.344185
-1.17475
-1.8547
-2.31553
-2.51493
-2.43984
-2.10911
-1.57162
-0.901352
-0.183607
0.487941
1.03465
1.39145
1.52403
1.43135
1.14609
0.729176
0.257236
-0.188579
-0.541653
-0.75241
-0.802615
-0.70456
-0.496378
-0.232728
0.027258
0.22977
0.33778
0.334773
0.229304
0.0495667
-0.163386
-0.362422
-0.51745
-0.582546
-0.55283
-0.431388
-0.239649
-0.0115395
0.212252
0.391031
0.490937
41.965
41.9584
41.9481
41.9299
41.9138
41.8925
41.8812
41.8628
9.6223
9.64925
9.73777
9.83736
9.9657
10.1192
10.2828
10.4495
10.6068
10.7463
10.8598
10.9411
10.9863
10.9872
10.9371
10.8329
10.6713
10.4489
10.1631
9.81216
9.39514
8.91198
8.36338
7.75083
7.0767
6.3443
5.55769
4.72197
3.84301
2.92761
1.9832
1.01786
0.0404527
-0.939421
-1.91127
-2.86428
-3.78707
-4.6681
-5.49551
-6.25752
-6.94249
-7.53922
-8.03728
-8.42711
-8.70011
-8.84919
-8.869
-8.75464
-8.50543
-8.12185
-7.60646
-6.96442
-6.20357
-5.33398
-4.3684
-3.32214
-2.21273
-1.05996
0.116413
1.29075
2.44046
3.54146
4.56935
5.50038
6.31176
6.98236
7.49383
7.83064
7.98103
7.9368
7.69516
7.25844
6.63397
5.83485
4.8793
3.79097
2.59791
1.33276
0.0308173
-1.26804
-2.52499
-3.69953
-4.75237
-5.64728
-6.35191
-6.83992
-7.09093
-7.09318
-6.84304
-6.34792
-5.62462
-4.69957
-3.60832
-2.39512
-1.11074
0.206559
1.46694
2.63123
3.6441
4.45602
5.02646
5.32605
5.33843
5.06242
4.51296
3.7203
2.72905
1.59791
0.393061
-0.812479
-1.94208
-2.926
-3.69936
-4.21106
-4.42703
-4.33223
-3.93484
-3.26536
-2.37466
-1.33256
-0.220561