/*--------------------------------*- C++ -*----------------------------------*\
  =========                 |
  \\      /  F ield         | OpenFOAM: The Open Source CFD Toolbox
   \\    /   O peration     | Website:  https://openfoam.org
    \\  /    A nd           | Version:  12
     \\/     M anipulation  |
\*---------------------------------------------------------------------------*/
FoamFile
{
    format      ascii;
    class       surfaceScalarField;
    location    "14.62";
    object      phi;
}
// * * * * * * * * * * * * * * * * * * * * * * * * * * * * * * * * * * * * * //

dimensions      [1 0 -1 0 0 0 0];

internalField   nonuniform List<scalar> 
7429
(
9.34857e-05
-9.34854e-05
0.000190104
-9.66185e-05
0.0002883
-9.81948e-05
0.000388152
-9.98523e-05
0.000489845
-0.000101693
0.000593513
-0.000103667
0.00069925
-0.000105737
0.000807104
-0.000107854
0.000917077
-0.000109973
0.00102913
-0.000112054
0.00114313
-0.000113997
0.00125879
-0.000115664
0.00137581
-0.000117014
0.00149381
-0.000117999
0.00161228
-0.000118478
0.00173041
-0.000118125
0.00184766
-0.000117247
0.001963
-0.000115344
0.00207547
-0.00011247
0.00218384
-0.000108368
0.00228706
-0.000103214
0.00238355
-9.6499e-05
0.00247194
-8.83823e-05
0.00255066
-7.87263e-05
0.00261822
-6.7553e-05
0.00267294
-5.47201e-05
0.00271291
-3.99731e-05
0.00273655
-2.36388e-05
0.00274214
-5.59089e-06
0.00273281
9.33399e-06
0.00270618
2.66309e-05
0.00266072
4.54599e-05
0.00259534
6.53792e-05
0.00250945
8.5892e-05
0.00240283
0.000106617
0.00227577
0.00012706
0.00212888
0.000146885
0.00196322
0.000165661
0.00178015
0.000183071
0.00158128
0.000198867
0.00136854
0.000212745
0.001144
0.000224541
0.000910034
0.000233964
0.000669172
0.000240862
0.000424146
0.000245026
0.000177853
0.000246294
-6.6732e-05
0.000244585
-0.000306531
0.000239799
-0.000538371
0.00023184
-0.000759149
0.000220777
-0.0009657
0.000206552
-0.00115501
0.000189312
-0.00132413
0.000169117
-0.00147044
0.000146307
-0.00159105
0.000120612
-0.00168424
9.31871e-05
-0.00174741
6.31676e-05
-0.0017797
3.22902e-05
-0.00177405
-5.64794e-06
-0.00173003
-4.40174e-05
-0.00164931
-8.07231e-05
-0.00153314
-0.00011617
-0.00138257
-0.000150571
-0.00119922
-0.000183345
-0.000984267
-0.000214955
-0.000739575
-0.000244692
-0.000467164
-0.000272411
-0.000170128
-0.000297036
0.000148
-0.000318129
0.000483271
-0.000335271
0.000831319
-0.000348047
0.00118696
-0.000355643
0.0015447
-0.000357742
0.00189914
-0.000354436
0.00224399
-0.000344851
0.00257334
-0.000329354
0.00288092
-0.000307574
0.00316085
-0.000279933
0.00340687
-0.000246018
0.00361385
-0.00020698
0.00377633
-0.000162483
0.00389042
-0.000114082
0.00395201
-6.15969e-05
0.00395759
-5.57359e-06
0.00389716
6.04305e-05
0.00377467
0.000122486
0.00359172
0.000182953
0.00335095
0.000240766
0.0030555
0.00029545
0.0027095
0.000345997
0.00231799
0.000391514
0.0018876
0.000430394
0.00142632
0.000461279
0.000943085
0.000483231
0.000448205
0.00049488
-4.73679e-05
0.000495573
-0.000532156
0.000484788
-0.000994054
0.000461898
-0.00142154
0.00042749
-0.00180277
0.000381229
-0.00212713
0.000324354
-0.00238487
0.000257738
-0.00256776
0.000182892
-0.00266986
0.000102107
-0.00268806
1.81932e-05
-0.00260768
-8.03743e-05
-0.00243836
-0.000169327
-0.00218603
-0.000252321
-0.00185747
-0.000328567
-0.00146218
-0.000395289
-0.00101123
-0.000450946
-0.000520532
-0.0004907
-5.9445e-06
-0.000514587
0.000513236
-0.000519181
0.0010176
-0.000504363
0.00148698
-0.000469382
0.00190233
-0.000415348
0.00224485
-0.000342526
0.00249935
-0.000254497
0.00265315
-0.000153795
0.00269864
-4.54894e-05
0.00261871
7.99298e-05
0.00242127
0.000197441
0.00211584
0.000305426
0.0017149
0.000400942
0.00123392
0.000480978
0.000694139
0.000539781
0.000120792
0.000573347
-0.000457272
0.000578064
-0.00101023
0.000552961
-0.00150883
0.000498599
-0.00192492
0.000416083
-0.00223469
0.000309778
-0.00241917
0.000184472
-0.00246801
4.88434e-05
-0.00236173
-0.000106281
-0.00211531
-0.000246419
-0.00174439
-0.000370919
-0.00126994
-0.000474449
-0.000720118
-0.000549822
-0.000131063
-0.000589055
0.000458351
-0.000589414
0.00100731
-0.000548959
0.00147683
-0.000469517
0.00183285
-0.000356025
0.00204886
-0.00021601
0.00210876
-5.98971e-05
0.0019946
0.000114154
0.00172446
0.000270146
0.00132151
0.000402946
0.000816407
0.000505107
0.000251522
0.000564884
-0.000326933
0.000578455
-0.000866221
0.000539288
-0.00131972
0.000453498
-0.00164652
0.000326804
-0.00181892
0.000172393
-0.00181946
5.44751e-07
-0.00164549
-0.000173972
-0.00132607
-0.000319423
-0.000895746
-0.000430321
-0.000402051
-0.000493694
0.000100027
-0.000502079
0.000551014
-0.000450986
0.000900274
-0.00034926
0.00110795
-0.000207674
0.00115322
-4.52724e-05
0.00102173
0.000131486
0.000743391
0.000278343
0.000356765
0.000386627
-8.49197e-05
0.000441684
-0.000517058
0.000432138
-0.000877688
0.00036063
-0.00111391
0.000236226
-0.00119145
7.75375e-05
-0.00108833
-0.000103122
-0.000824948
-0.000263381
-0.000438234
-0.000386714
1.66909e-05
-0.000454925
0.000471629
-0.000454938
0.000859084
-0.000387455
0.00112309
-0.000264009
0.00122847
-0.000105382
0.00116052
6.79544e-05
0.000942198
0.000218322
0.000615796
0.000326402
0.00024065
0.000375146
-0.000117103
0.000357753
-0.000398298
0.000281195
-0.000560808
0.00016251
-0.000588176
2.73676e-05
-0.0004885
-9.96759e-05
-0.000297075
-0.000191425
-6.36007e-05
-0.000233474
0.000156306
-0.000219907
0.000313132
-0.000156825
0.000373783
-6.0651e-05
0.00032812
4.56624e-05
0.000191138
0.000136982
0.000191138
0.000138496
-0.000231981
0.000286382
-0.000244504
0.000437735
-0.000249547
0.000593291
-0.000255408
0.000753764
-0.000262165
0.000919843
-0.000269746
0.00109199
-0.000277881
0.00127052
-0.000286386
0.00145548
-0.000294935
0.00164673
-0.000303299
0.00184384
-0.000311103
0.0020463
-0.000318132
0.00225343
-0.000324144
0.0024641
-0.000328664
0.00267715
-0.000331524
0.00289131
-0.000332291
0.00310474
-0.000330675
0.00331576
-0.000326357
0.00352225
-0.000318966
0.00372216
-0.000308274
0.00391295
-0.000294002
0.00409241
-0.000275964
0.00425802
-0.000253989
0.00440728
-0.000227987
0.00453763
-0.000197908
0.00464702
-0.000164107
0.0047336
-0.000126553
0.00479605
-8.60815e-05
0.00483392
-4.34627e-05
0.00483486
8.38828e-06
0.004793
6.84942e-05
0.00471296
0.000125499
0.00459706
0.000181284
0.00444754
0.000235404
0.00426667
0.000287486
0.0040569
0.00033683
0.00382105
0.000382743
0.00356236
0.000424352
0.003283
0.000462426
0.00298467
0.000497201
0.00266946
0.000527952
0.00233983
0.000554173
0.00199929
0.000574504
0.00165065
0.000589503
0.00129814
0.000597537
0.000945028
0.000599401
0.000595413
0.000594199
0.000254191
0.000581021
-7.60946e-05
0.000562125
-0.00039013
0.000534813
-0.000684461
0.000500883
-0.000956637
0.000461488
-0.00120074
0.000413219
-0.0014162
0.000361768
-0.0015972
0.000301611
-0.00174376
0.000239747
-0.0018507
0.000170108
-0.00191617
9.77625e-05
-0.00194534
2.352e-05
-0.00192934
-6.00178e-05
-0.00187136
-0.000138702
-0.00177129
-0.000216243
-0.00162972
-0.000292144
-0.00144737
-0.000365691
-0.00122606
-0.000436268
-0.00096837
-0.000502379
-0.000677629
-0.000563152
-0.000357588
-0.000617077
-1.25215e-05
-0.000663196
0.000352636
-0.000700429
0.000732904
-0.000728315
0.0011223
-0.000745038
0.00151466
-0.000750108
0.00190377
-0.000743544
0.002283
-0.000724083
0.00264513
-0.000691484
0.00298365
-0.000646096
0.00329167
-0.000587948
0.00356275
-0.000517102
0.00379076
-0.000434984
0.00397008
-0.00034181
0.00409565
-0.000239647
0.00416372
-0.000129673
0.00416827
-1.01205e-05
0.0041037
0.000125
0.00397273
0.000253456
0.00377667
0.000379013
0.00351759
0.000499846
0.00319827
0.000614772
0.00282336
0.000720909
0.00239843
0.000816441
0.0019311
0.000897724
0.00143019
0.000962189
0.000905596
0.00100783
0.000368668
0.00103181
-0.000168602
0.00103284
-0.000693558
0.00100974
-0.00119289
0.000961227
-0.00165396
0.000888561
-0.00206422
0.000791486
-0.00241165
0.000671784
-0.00268541
0.000531506
-0.00287757
0.000375047
-0.00297913
0.000203664
-0.0029875
2.65636e-05
-0.00289263
-0.000175237
-0.00270242
-0.000359546
-0.00242134
-0.000533393
-0.00205667
-0.000693241
-0.00161867
-0.000833291
-0.00112116
-0.000948457
-0.000579778
-0.00103208
-1.30964e-05
-0.00108127
0.000557933
-0.00109021
0.00111138
-0.00105781
0.00162617
-0.000984165
0.00207994
-0.000869121
0.00245375
-0.000716338
0.00272947
-0.000530211
0.00289412
-0.000318448
0.00293843
-8.97991e-05
0.00284808
0.000170278
0.00263158
0.000413936
0.00229738
0.000639633
0.00185713
0.000841192
0.00133025
0.00100786
0.000739525
0.0011305
0.000114155
0.00119872
-0.000516462
0.00120868
-0.0011183
0.0011548
-0.00165921
0.0010395
-0.00210877
0.000865649
-0.00244101
0.000642019
-0.00263448
0.000377937
-0.00267782
9.21884e-05
-0.0025565
-0.000227608
-0.00228419
-0.000518729
-0.00187558
-0.000779529
-0.00135406
-0.00099596
-0.000753505
-0.00115038
-0.000110274
-0.00123229
0.000531477
-0.00123117
0.00112649
-0.00114397
0.00163252
-0.000975553
0.00201251
-0.000736013
0.00223805
-0.000441551
0.00229189
-0.000113741
0.00216014
0.00024591
0.00186058
0.000569703
0.00141646
0.000847066
0.000863719
0.00105785
0.000246003
0.0011826
-0.000379796
0.00120425
-0.000961174
0.00112067
-0.00144522
0.000937543
-0.00178961
0.000671191
-0.00196355
0.000346334
-0.00194678
-1.62173e-05
-0.00174705
-0.000373703
-0.00138894
-0.000677535
-0.000911895
-0.000907366
-0.000368823
-0.00103677
0.000178348
-0.00104925
0.00066677
-0.000939408
0.00104033
-0.000722824
0.00125666
-0.000424
0.00129312
-8.17313e-05
0.00114043
0.000284171
0.000828281
0.000590495
0.000399373
0.000815535
-8.71545e-05
0.000928211
-0.000560255
0.000905238
-0.000952707
0.000753082
-0.00120805
0.000491565
-0.00128843
0.000157925
-0.001176
-0.00021556
-0.000890964
-0.000548412
-0.000474078
-0.0008036
1.3808e-05
-0.000942811
0.000497775
-0.000938905
0.000905797
-0.000795477
0.00117834
-0.000536549
0.00127879
-0.000205834
0.00119537
0.000151377
0.000952721
0.000460968
0.000598237
0.000680886
0.000197313
0.00077607
-0.000179341
0.000734407
-0.000468378
0.000570232
-0.000626952
0.000321084
-0.000639605
4.00205e-05
-0.000518299
-0.000220982
-0.00030209
-0.000407634
-4.5508e-05
-0.000490056
0.000191368
-0.000456783
0.000356895
-0.000322352
0.00041711
-0.000120866
0.000362544
0.000100229
0.000210154
0.000289372
0.000401292
-9.9044e-06
-0.000222076
-1.5521e-05
-0.000238887
-1.77405e-05
-0.000247327
-1.46658e-05
-0.000258482
-4.76603e-06
-0.000272064
1.37257e-05
-0.000288237
4.17118e-05
-0.000305867
8.1229e-05
-0.000325902
0.000132758
-0.000346464
0.000197926
-0.000368466
0.000277313
-0.000390489
0.000371848
-0.000412666
0.000481216
-0.000433512
0.000605817
-0.000453264
0.000744623
-0.00047033
0.000898248
-0.000485914
0.00106569
-0.000498121
0.00124454
-0.000505203
0.00143323
-0.000507658
0.00162802
-0.000503062
0.00182669
-0.000492666
0.00202401
-0.000473291
0.00221602
-0.000445999
0.0023987
-0.000410661
0.00256686
-0.00036607
0.00271625
-0.000313499
0.00283955
-0.000249844
0.00293214
-0.000178672
0.00298646
-9.77865e-05
0.00300458
-9.7266e-06
0.00300665
6.64246e-05
0.00297797
0.000154175
0.00291374
0.000245513
0.0028116
0.000337547
0.00267083
0.000428252
0.00249194
0.000515722
0.0022762
0.000598482
0.00202531
0.00067525
0.0017429
0.000744832
0.00143361
0.000806487
0.00110241
0.000859151
0.000754294
0.000902294
0.000393683
0.000935115
2.60615e-05
0.000957124
-0.000344389
0.000967988
-0.000712162
0.000967174
-0.00107281
0.000954842
-0.00142237
0.000930589
-0.00175475
0.000894501
-0.00206748
0.000847548
-0.00235543
0.000788833
-0.00261304
0.000719089
-0.00283989
0.00064007
-0.00302839
0.00055027
-0.00318037
0.000453587
-0.00328953
0.000348907
-0.00335431
0.000234898
-0.00337587
0.000119322
-0.00333956
-1.27958e-05
-0.00325448
-0.000145094
-0.00312123
-0.000271954
-0.00294091
-0.000396564
-0.00271461
-0.000518447
-0.00244358
-0.000636716
-0.00212979
-0.00075006
-0.00177577
-0.000856399
-0.00138501
-0.000953917
-0.000961725
-0.00104036
-0.000511053
-0.00111387
-3.90342e-05
-0.00117245
0.00044852
-0.00121587
0.000944555
-0.00124107
0.00144164
-0.00124719
0.00193233
-0.00123423
0.00240868
-0.00120044
0.00286213
-0.00114493
0.00328509
-0.00106906
0.00366929
-0.000972148
0.00400702
-0.000854836
0.00429055
-0.000718515
0.00451451
-0.000565769
0.00467211
-0.000397242
0.00475892
-0.000216483
0.00476867
-1.98727e-05
0.0046969
0.000196767
0.00454582
0.000404536
0.00431664
0.000608197
0.00401109
0.000805392
0.00363304
0.000992824
0.0031875
0.00116645
0.002682
0.00132194
0.00212572
0.00145401
0.00152925
0.00155866
0.000904915
0.00163216
0.000266478
0.00167024
-0.000371578
0.0016709
-0.000993941
0.00163211
-0.00158484
0.00155213
-0.00212921
0.00143293
-0.00261162
0.0012739
-0.00301717
0.00107734
-0.00333534
0.000849671
-0.00355215
0.000591859
-0.00366433
0.000315841
-0.00365384
1.60767e-05
-0.00352976
-0.000299312
-0.00329195
-0.000597357
-0.0029452
-0.000880146
-0.00249812
-0.00114032
-0.00196306
-0.00136836
-0.00135668
-0.00155483
-0.000699374
-0.00168939
-1.27435e-05
-0.0017679
0.000676242
-0.0017792
0.00134366
-0.00172523
0.00196216
-0.00160267
0.00250608
-0.00141304
0.00295152
-0.00116178
0.00327919
-0.000857875
0.00347008
-0.000509342
0.00351521
-0.000134931
0.0034016
0.000283891
0.00313836
0.000677171
0.00273262
0.00104538
0.00220116
0.00137265
0.001565
0.00164402
0.000854421
0.00184109
0.000102144
0.00195099
-0.000652768
0.00196359
-0.00137124
0.00187327
-0.00201345
0.00168171
-0.00254432
0.00139653
-0.00293097
0.00102867
-0.00315301
0.000599973
-0.00318887
0.000128045
-0.00303396
-0.000382512
-0.00269882
-0.00085387
-0.00220074
-0.00127761
-0.00157047
-0.00162622
-0.00084427
-0.00187659
-7.24671e-05
-0.00200409
0.000690034
-0.00199367
0.00139456
-0.00184849
0.0019901
-0.0015711
0.00243142
-0.00117733
0.00268574
-0.000695877
0.00273417
-0.000162173
0.00256327
0.000416816
0.00219423
0.000938736
0.00165408
0.00138722
0.00098712
0.00172481
0.000250903
0.00191882
-0.000495178
0.00195034
-0.00118025
0.00180574
-0.00174542
0.00150272
-0.00213808
0.00106385
-0.00232349
0.000531742
-0.00228089
-5.88131e-05
-0.00202403
-0.000630568
-0.00157966
-0.0011219
-0.000997187
-0.00148984
-0.000341162
-0.00169279
0.000314697
-0.00170511
0.000893389
-0.0015181
0.00132926
-0.00115869
0.00157272
-0.000667465
0.00159609
-0.000105104
0.00139875
0.000481512
0.00101134
0.000977911
0.000486775
0.0013401
-0.000102236
0.00151722
-0.000670376
0.00147338
-0.00113803
0.00122073
-0.00143792
0.000791464
-0.00152828
0.000248277
-0.00139076
-0.000353076
-0.00105052
-0.000888651
-0.000556852
-0.00129727
1.58697e-05
-0.00151553
0.000577527
-0.00150056
0.00104424
-0.00126219
0.00134733
-0.000839638
0.00144574
-0.000304242
0.00133069
0.000266431
0.00103255
0.000759102
0.000610322
0.00110312
0.000141988
0.0012444
-0.000287924
0.00116432
-0.000607743
0.000890051
-0.000770063
0.000483404
-0.000759515
2.94724e-05
-0.000596073
-0.000384424
-0.000327254
-0.000676453
-1.78199e-05
-0.00079949
0.000259604
-0.000734208
0.000448606
-0.000511354
0.000511366
-0.000183626
0.000439095
0.0001725
0.00025296
0.000475506
0.000654252
-5.4619e-05
-0.000167456
-8.98214e-05
-0.000203684
-0.00010856
-0.000228588
-0.000102358
-0.000264684
-6.43736e-05
-0.000310047
1.39702e-05
-0.00036658
0.000135698
-0.000427594
0.000306189
-0.000496392
0.000521181
-0.000561456
0.000779075
-0.00062636
0.00107486
-0.000686278
0.001409
-0.000746804
0.00177783
-0.00080234
0.00218068
-0.000856113
0.00261184
-0.000901487
0.00306628
-0.000940354
0.00354053
-0.000972368
0.00402838
-0.000993057
0.00452106
-0.00100033
0.00501432
-0.000996325
0.00549898
-0.000977326
0.00596833
-0.000942645
0.00641165
-0.000889317
0.00682061
-0.000819618
0.00718388
-0.000729341
0.00749531
-0.000624924
0.00774537
-0.000499912
0.00793154
-0.000364837
0.00804567
-0.000211917
0.00809312
-5.71746e-05
0.00802346
0.000136082
0.00786158
0.000316053
0.0076164
0.000490695
0.00729799
0.00065596
0.00691799
0.000808256
0.00648574
0.000947965
0.00600279
0.00108144
0.00547343
0.00120461
0.00490414
0.00131413
0.00430142
0.0014092
0.00367429
0.00148629
0.00303
0.00154658
0.00237706
0.00158805
0.00172277
0.00161142
0.00107426
0.00161649
0.000437183
0.00160425
-0.000178759
0.00157079
-0.000769541
0.00152137
-0.00132733
0.00145229
-0.00184926
0.00136947
-0.0023255
0.00126507
-0.00275589
0.00114948
-0.00313267
0.00101685
-0.00345296
0.000870556
-0.00371374
0.000714374
-0.00391338
0.000548541
-0.00405016
0.000371682
-0.00411878
0.000187942
-0.00412257
-9.00623e-06
-0.00406467
-0.000202994
-0.00394096
-0.000395666
-0.00375107
-0.000586453
-0.0034963
-0.000773219
-0.00317967
-0.000953345
-0.00280517
-0.00112456
-0.00237775
-0.00128382
-0.00190251
-0.00142915
-0.00138564
-0.00155723
-0.000833887
-0.00166562
-0.000254483
-0.00175185
0.000344481
-0.00181483
0.000954003
-0.0018506
0.00156528
-0.00185847
0.00216839
-0.00183734
0.00275401
-0.00178606
0.00331147
-0.00170239
0.00383084
-0.00158843
0.00430242
-0.00144373
0.00471731
-0.00126972
0.00506575
-0.00106696
0.00533815
-0.000838162
0.00552906
-0.000588159
0.00563321
-0.000320634
0.00564249
-2.91493e-05
0.00555408
0.000285174
0.0053697
0.000588923
0.00508982
0.000888078
0.00471664
0.00117857
0.00425442
0.00145503
0.00371029
0.00171058
0.00309314
0.00193909
0.00241426
0.00213288
0.00168796
0.00228496
0.000928466
0.00239166
0.000152429
0.00244628
-0.000621795
0.00244512
-0.00137571
0.00238602
-0.00209037
0.00226679
-0.00274677
0.00208932
-0.00332553
0.00185265
-0.00381016
0.00156197
-0.00418581
0.00122532
-0.00443951
0.000845563
-0.00455772
0.000434054
-0.00453295
-8.69564e-06
-0.00436989
-0.000462372
-0.00406785
-0.0008994
-0.00363219
-0.0013158
-0.00307393
-0.00169858
-0.0024093
-0.00203298
-0.00165869
-0.00230545
-0.000847242
-0.00250084
-3.159e-06
-0.00261198
0.000844465
-0.00262682
0.00166289
-0.00254365
0.00241887
-0.00235866
0.00308273
-0.0020769
0.00362488
-0.00170393
0.00401741
-0.00125041
0.00424692
-0.000738848
0.00428933
-0.000177343
0.00414442
0.000428807
0.00381493
0.00100665
0.00331303
0.00154728
0.00265507
0.00203061
0.00187284
0.00242625
0.00099945
0.00271448
7.93505e-05
0.00287109
-0.000839783
0.00288273
-0.00171324
0.00274673
-0.00249024
0.00245871
-0.00312821
0.0020345
-0.00359078
0.00149123
-0.00384402
0.000853218
-0.00387676
0.000160785
-0.00367479
-0.000584485
-0.00325317
-0.00127549
-0.00263677
-0.00189401
-0.00185796
-0.00240503
-0.000970682
-0.00276387
-2.93106e-05
-0.00294546
0.000901384
-0.00292436
0.00175486
-0.00270197
0.00246895
-0.00228519
0.00299323
-0.0017016
0.0032874
-0.000990051
0.00332261
-0.000197383
0.00309979
0.00063964
0.0026367
0.00140182
0.00196715
0.00205677
0.00114715
0.00254481
0.000245144
0.00282082
-0.000655702
0.00285118
-0.00147993
0.00262997
-0.0021495
0.00217228
-0.00260696
0.00152131
-0.00280885
0.000733631
-0.00273321
-0.00013445
-0.00239833
-0.000965456
-0.00183768
-0.00168254
-0.00111267
-0.00221485
-0.000305179
-0.00250028
0.00049286
-0.00250315
0.00119053
-0.00221577
0.00170733
-0.00167549
0.00198561
-0.000945743
0.00199506
-0.000114559
0.00173466
0.000741918
0.00124514
0.00146743
0.000593461
0.00199178
-0.000131339
0.00224202
-0.000824765
0.0021668
-0.0013904
0.00178636
-0.00174812
0.00114919
-0.00184769
0.000347844
-0.00167484
-0.000525921
-0.00125808
-0.00130541
-0.000661071
-0.00189428
2.51792e-05
-0.00220178
0.000691353
-0.00216674
0.00123705
-0.00180789
0.00158087
-0.00118346
0.00167652
-0.000399896
0.00151908
0.000423871
0.00114671
0.00113148
0.000633303
0.00161652
7.31016e-05
0.00180461
-0.000426505
0.00166392
-0.000787252
0.0012508
-0.000954935
0.000651088
-0.000914946
-1.0517e-05
-0.000696851
-0.000602519
-0.000359754
-0.00101355
1.59878e-05
-0.00117523
0.00034827
-0.00106649
0.000567883
-0.000730966
0.000633778
-0.000249521
0.000538424
0.000267855
0.00030851
0.00070542
0.000962763
-0.000314891
0.000147436
-0.000615319
9.67443e-05
-0.000900694
5.67878e-05
-0.00115954
-5.83341e-06
-0.00136922
-0.000100374
-0.00152828
-0.000207513
-0.0016587
-0.000297172
-0.00175095
-0.000404142
-0.00182615
-0.000486259
-0.00185749
-0.000595015
-0.001831
-0.000712771
-0.00172941
-0.00084839
-0.00154699
-0.000984757
-0.00128207
-0.00112104
-0.000933849
-0.00124971
-0.00050652
-0.00136768
-9.56955e-06
-0.00146932
0.000548526
-0.00155115
0.00115726
-0.00160907
0.00180016
-0.00163922
0.00245963
-0.0016368
0.00312211
-0.00160512
0.00376892
-0.00153613
0.00438468
-0.00143538
0.00494954
-0.0012942
0.00545224
-0.00112762
0.00586874
-0.000916411
0.00619676
-0.000692859
0.00640549
-0.000420648
0.00649042
-0.000142096
0.00648696
0.000139535
0.00638301
0.000420001
0.00617912
0.000694587
0.00587978
0.000955301
0.00548885
0.00119919
0.00501398
0.00142284
0.00447151
0.0016239
0.00387474
0.00180137
0.00323548
0.0019534
0.00256496
0.00207972
0.00187245
0.0021788
0.00116753
0.0022515
0.000459054
0.00229653
-0.000244099
0.00231457
-0.000934537
0.00230693
-0.00160242
0.00227214
-0.00224516
0.00221352
-0.00285253
0.00212874
-0.00342167
0.00202143
-0.00394194
0.00188975
-0.00441416
0.00173729
-0.00482795
0.00156327
-0.00518379
0.0013727
-0.00547635
0.00116311
-0.00569835
0.000936373
-0.00584799
0.000698187
-0.00592527
0.000448963
-0.00593095
0.000193623
-0.00585585
-8.41105e-05
-0.00570595
-0.000352895
-0.00548308
-0.000618536
-0.00518716
-0.000882372
-0.00482044
-0.00113994
-0.00438552
-0.00138826
-0.00388606
-0.00162402
-0.00332677
-0.00184311
-0.00271401
-0.00204191
-0.00205398
-0.00221726
-0.00135548
-0.00236412
-0.000627284
-0.00248005
0.000121489
-0.00256361
0.000880656
-0.00260976
0.00163802
-0.00261583
0.00238336
-0.00258268
0.00310466
-0.00250736
0.00378929
-0.00238701
0.00442584
-0.00222499
0.00500341
-0.00202129
0.00550768
-0.00177399
0.00593063
-0.00148992
0.00626467
-0.0011722
0.00649471
-0.000818198
0.00661984
-0.000445761
0.0066294
-3.87076e-05
0.0065242
0.000390366
0.006303
0.000810129
0.00596575
0.00122533
0.00551522
0.0016291
0.00495773
0.00201253
0.00430145
0.00236686
0.00355783
0.00268271
0.00274129
0.00294943
0.00186735
0.0031589
0.000954369
0.00330464
2.36358e-05
0.00337702
-0.000904312
0.00337307
-0.00180729
0.003289
-0.00266092
0.00312043
-0.00344221
0.00287062
-0.00412914
0.00253958
-0.00470335
0.00213618
-0.0051404
0.00166237
-0.00543268
0.00113784
-0.00556502
0.000566402
-0.0055224
-5.13207e-05
-0.00531225
-0.000672517
-0.00493478
-0.00127688
-0.00439838
-0.0018522
-0.00371435
-0.00238261
-0.00290339
-0.00284394
-0.00199
-0.00321883
-0.00100384
-0.00348699
2.08212e-05
-0.00363665
0.00104618
-0.00365218
0.0020333
-0.00353077
0.00294609
-0.00327145
0.00374399
-0.0028748
0.00438996
-0.00234991
0.00485777
-0.00171821
0.00512133
-0.00100241
0.00516745
-0.000223456
0.0049836
0.000612658
0.00457982
0.00141043
0.0039645
0.0021626
0.00316592
0.00282919
0.002216
0.00337617
0.00116047
0.00377
4.99328e-05
0.00398163
-0.00105926
0.00399192
-0.00210677
0.00379424
-0.00303821
0.00339015
-0.0037983
0.00279459
-0.00434061
0.00203354
-0.0046323
0.00114491
-0.00464998
0.000178467
-0.00439386
-0.000840598
-0.00387477
-0.00179459
-0.00311865
-0.00265013
-0.00217449
-0.00334919
-0.00109878
-0.00383958
3.49686e-05
-0.00407921
0.00115022
-0.00403961
0.00216729
-0.00371905
0.00301516
-0.00313306
0.0036301
-0.00231654
0.00396
-0.00131995
0.00398728
-0.000224662
0.00370259
0.000924325
0.00312805
0.00197637
0.00231018
0.00287464
0.00131759
0.0035374
0.000234284
0.00390412
-0.000847591
0.00393306
-0.0018256
0.00360798
-0.00261596
0.00296264
-0.00314263
0.00204797
-0.0033573
0.000948302
-0.00324346
-0.00024829
-0.00281782
-0.0013911
-0.00212385
-0.00237651
-0.00123956
-0.00309914
-0.000262192
-0.00347765
0.000697325
-0.00346267
0.00152809
-0.00304654
0.00213541
-0.00228281
0.00245042
-0.00126075
0.00243676
-0.000100906
0.0021058
0.00107288
0.00150082
0.00207241
0.000705141
0.00278745
-0.000171973
0.00311914
-0.00100529
0.00300012
-0.00167932
0.00246039
-0.00209933
0.0015692
-0.00220791
0.000456428
-0.00199189
-0.000741943
-0.00148662
-0.00181068
-0.00077097
-0.00260993
4.41231e-05
-0.00301688
0.000827536
-0.00295015
0.00146005
-0.0024404
0.00184757
-0.00157099
0.00193793
-0.00049025
0.00172985
0.000631951
0.00127251
0.00158881
0.000656971
0.00223206
-1.29854e-06
0.00246287
-0.000581497
0.00224412
-0.000987005
0.00165631
-0.0011583
0.000822382
-0.00108475
-8.40647e-05
-0.000803821
-0.000883449
-0.000390489
-0.00142688
5.92811e-05
-0.001625
0.000449312
-0.00145652
0.000700928
-0.000982583
0.000768811
-0.000317404
0.000647137
0.000389529
0.000368946
0.000983611
0.00133171
-0.00101077
0.0011582
-0.00198436
0.00107034
-0.00287995
0.000952381
-0.00364903
0.000763242
-0.00426505
0.000515648
-0.00466171
0.000189142
-0.00480899
-0.000149886
-0.00460864
-0.000604493
-0.00429487
-0.000800023
-0.00382604
-0.00106385
-0.00326991
-0.0012689
-0.0026289
-0.0014894
-0.0019078
-0.00170586
-0.00110144
-0.0019274
-0.000205634
-0.00214551
0.000780323
-0.00235364
0.00185381
-0.00254281
0.00300766
-0.002705
0.00422297
-0.00282437
0.00548198
-0.00289823
0.00675677
-0.0029116
0.00802483
-0.00287318
0.00924496
-0.00275626
0.0103939
-0.00258436
0.0114161
-0.00231633
0.01231
-0.00202151
0.0129892
-0.00159569
0.0135227
-0.00122628
0.0137335
-0.000631464
0.013723
-0.00013167
0.0134856
0.000376961
0.0130547
0.000850885
0.0124413
0.00130807
0.0116771
0.00171945
0.0107881
0.00208822
0.00980119
0.00240972
0.00874184
0.00268325
0.00763258
0.00291064
0.00649278
0.0030932
0.00534007
0.00323243
0.00419
0.00332887
0.00305457
0.00338693
0.0019455
0.0034056
0.00087061
0.00338946
-0.000160413
0.00333796
-0.00114109
0.00325282
-0.00206336
0.00313579
-0.00292295
0.00298833
-0.00371291
0.00281139
-0.00442972
0.00260655
-0.00506991
0.00237748
-0.00562938
0.00212274
-0.00610283
0.00184615
-0.00648889
0.00154916
-0.00678652
0.00123401
-0.0069924
0.000904069
-0.00710376
0.000560316
-0.00711845
0.000208313
-0.00704885
-0.000153704
-0.00688636
-0.000515384
-0.00662901
-0.000875892
-0.00628057
-0.00123081
-0.0058447
-0.0015758
-0.00532618
-0.00190679
-0.00473019
-0.00222001
-0.00406418
-0.00250912
-0.00333461
-0.00277148
-0.00255116
-0.00300072
-0.00172222
-0.00319306
-0.00085833
-0.00334393
2.90149e-05
-0.00345095
0.000926279
-0.00350703
0.00182112
-0.00351068
0.00270102
-0.00346257
0.00355154
-0.00335789
0.00435736
-0.00319283
0.00510733
-0.00297496
0.00578285
-0.00269681
0.00637711
-0.00236825
0.00687087
-0.00198368
0.00725769
-0.00155902
0.00752512
-0.00108562
0.0076669
-0.000587537
0.00767294
-4.47552e-05
0.00754573
0.000517581
0.0072817
0.00107415
0.0068814
0.00162563
0.00634796
0.00216255
0.00568926
0.00267123
0.00491546
0.00314066
0.00403992
0.00355825
0.0030786
0.00391074
0.00205141
0.00418609
0.000980063
0.00437598
-0.00011185
0.00446893
-0.0011994
0.00446062
-0.00225479
0.00434438
-0.00325023
0.00411587
-0.0041593
0.00377969
-0.00496029
0.00334058
-0.00562021
0.0027961
-0.00612908
0.00217124
-0.00645385
0.00146261
-0.00659536
0.00070791
-0.00653525
-0.000111434
-0.00627843
-0.000929333
-0.00582297
-0.00173234
-0.00517738
-0.00249779
-0.00436302
-0.00319697
-0.00339815
-0.00380881
-0.00231767
-0.00429931
-0.00115202
-0.00465264
5.73744e-05
-0.00484605
0.0012683
-0.00486311
0.00243069
-0.00469315
0.00349951
-0.00434027
0.00443239
-0.00380768
0.00518865
-0.00310617
0.0057339
-0.00226346
0.00603022
-0.00129874
0.00607449
-0.000267723
0.00584949
0.000837657
0.00536197
0.00189795
0.00462892
0.00289566
0.00367927
0.00377884
0.00255732
0.00449812
0.00131131
0.00501601
3.38186e-06
0.00528956
-0.00129859
0.0052939
-0.00252513
0.00502077
-0.00361106
0.00447609
-0.00448996
0.00367348
-0.00511366
0.00265724
-0.00544243
0.00147368
-0.00544885
0.000184889
-0.00513104
-0.00115841
-0.00450697
-0.00241865
-0.00360537
-0.00355173
-0.00248605
-0.00446851
-0.00121984
-0.00510579
0.000112545
-0.00541159
0.00141695
-0.00534402
0.00260355
-0.00490564
0.00358621
-0.00411572
0.00428674
-0.00301707
0.00466196
-0.00169517
0.00466517
-0.000227867
0.00431348
0.00127601
0.00362212
0.00266774
0.00264945
0.0038473
0.00147488
0.00471198
0.0002018
0.0051772
-0.0010579
0.00519276
-0.00219368
0.00474376
-0.00309921
0.00386817
-0.00369482
0.00264358
-0.00392465
0.00117813
-0.00376645
-0.000406491
-0.00324312
-0.00191443
-0.00240964
-0.00320998
-0.00135856
-0.00415023
-0.000203054
-0.00463316
0.000917754
-0.00458347
0.0018822
-0.00401099
0.00257927
-0.00297987
0.00292912
-0.0016106
0.00288844
-6.02237e-05
0.00248059
0.00148074
0.0017537
0.00279929
0.00080931
0.00373184
-0.000224423
0.00415287
-0.00119921
0.00397491
-0.00198139
0.00324257
-0.00246313
0.00205094
-0.00257497
0.000568273
-0.002311
-0.00100591
-0.00171206
-0.00240961
-0.000874515
-0.00344748
7.14762e-05
-0.00396287
0.000972847
-0.00385152
0.00169228
-0.00315984
0.00212161
-0.00200031
0.00220287
-0.000571509
0.00194026
0.000894561
0.00139405
0.00213502
0.000673548
0.00295257
-8.46751e-05
0.0032211
-0.000743741
0.00290319
-0.0011913
0.00210387
-0.00136311
0.000994188
-0.00125207
-0.000195106
-0.000905986
-0.00122953
-0.000415101
-0.00191777
0.000108935
-0.00214904
0.000555165
-0.00190275
0.000836479
-0.0012639
0.000904389
-0.000385314
0.000755404
0.000538514
0.000428985
0.00131003
0.00176069
-0.00181264
0.00297085
-0.00355513
0.00281283
-0.00512281
0.00252006
-0.00637924
0.00201967
-0.00716499
0.0013014
-0.00734726
0.000371406
-0.0070119
-0.000485239
-0.00638841
-0.00122798
-0.00664796
-0.000540476
-0.00718417
-0.000527638
-0.00757944
-0.000873629
-0.00763706
-0.00143178
-0.00732677
-0.00201615
-0.00666935
-0.00258482
-0.00571758
-0.00309728
-0.00453208
-0.00353914
-0.00313154
-0.00394335
-0.00154859
-0.00428795
0.000178031
-0.00455099
0.00199669
-0.00471688
0.00385331
-0.00476821
0.00571818
-0.00473805
0.00752621
-0.00456428
0.00924179
-0.00429995
0.0107851
-0.00385967
0.0121509
-0.00338727
0.0132201
-0.00266487
0.0141171
-0.0021233
0.0144524
-0.000966767
0.0143538
-3.30879e-05
0.013864
0.000866804
0.0130997
0.00161513
0.0121433
0.00226453
0.0110519
0.00281086
0.00987204
0.00326804
0.00863417
0.00364759
0.0073652
0.00395223
0.00608413
0.00419171
0.00480913
0.00436819
0.00355119
0.00449037
0.00231994
0.00456012
0.00112674
0.00458013
-2.2657e-05
0.00455499
-0.00112217
0.00448897
-0.00216586
0.00438165
-0.00314711
0.00423407
-0.00406531
0.00405398
-0.00491375
0.00383678
-0.00568758