/*--------------------------------*- C++ -*----------------------------------*\
  =========                 |
  \\      /  F ield         | OpenFOAM: The Open Source CFD Toolbox
   \\    /   O peration     | Website:  https://openfoam.org
    \\  /    A nd           | Version:  12
     \\/     M anipulation  |
\*---------------------------------------------------------------------------*/
FoamFile
{
    format      ascii;
    class       volVectorField;
    location    "14.62";
    object      zeta;
}
// * * * * * * * * * * * * * * * * * * * * * * * * * * * * * * * * * * * * * //

dimensions      [0 1 0 0 0 0 0];

internalField   uniform (0 0 0);

boundaryField
{
    freeSurface
    {
        type            calculated;
        value           nonuniform List<vector> 
181
(
(0 -0.0044392 0)
(0 -0.00443868 0)
(0 -0.00443818 0)
(0 -0.00443805 0)
(0 -0.00443731 0)
(0 -0.00443754 0)
(0 -0.0044368 0)
(0 -0.00443723 0)
(0 0.000266183 0)
(0 0.000255216 0)
(0 0.000234748 0)
(0 0.00021037 0)
(0 0.00017282 0)
(0 0.0001288 0)
(0 7.54088e-05 0)
(0 1.57203e-05 0)
(0 -5.04453e-05 0)
(0 -0.000121767 0)
(0 -0.000197802 0)
(0 -0.000278064 0)
(0 -0.000361575 0)
(0 -0.000447347 0)
(0 -0.00053415 0)
(0 -0.000620869 0)
(0 -0.000706458 0)
(0 -0.000790053 0)
(0 -0.000870857 0)
(0 -0.000948007 0)
(0 -0.00102054 0)
(0 -0.00108746 0)
(0 -0.00114776 0)
(0 -0.00120056 0)
(0 -0.00124527 0)
(0 -0.00128105 0)
(0 -0.00130729 0)
(0 -0.00132332 0)
(0 -0.00132851 0)
(0 -0.0013223 0)
(0 -0.0013044 0)
(0 -0.00127451 0)
(0 -0.00123252 0)
(0 -0.00117841 0)
(0 -0.00111229 0)
(0 -0.00103446 0)
(0 -0.000945363 0)
(0 -0.000845729 0)
(0 -0.00073644 0)
(0 -0.000618363 0)
(0 -0.000492832 0)
(0 -0.00036113 0)
(0 -0.00022477 0)
(0 -8.53446e-05 0)
(0 5.54339e-05 0)
(0 0.000195651 0)
(0 0.000333429 0)
(0 0.000466773 0)
(0 0.000593617 0)
(0 0.00071183 0)
(0 0.000819336 0)
(0 0.000914129 0)
(0 0.000994354 0)
(0 0.00105828 0)
(0 0.00110431 0)
(0 0.00113124 0)
(0 0.00113803 0)
(0 0.00112416 0)
(0 0.0010893 0)
(0 0.00103365 0)
(0 0.000957682 0)
(0 0.000862418 0)
(0 0.00074929 0)
(0 0.000620111 0)
(0 0.000477347 0)
(0 0.000323735 0)
(0 0.00016252 0)
(0 -2.65454e-06 0)
(0 -0.000168076 0)
(0 -0.000329765 0)
(0 -0.000483626 0)
(0 -0.000625514 0)
(0 -0.00075165 0)
(0 -0.000858198 0)
(0 -0.000941962 0)
(0 -0.000999884 0)
(0 -0.00102984 0)
(0 -0.00103016 0)
(0 -0.00100012 0)
(0 -0.000939929 0)
(0 -0.000850631 0)
(0 -0.000734365 0)
(0 -0.000594293 0)
(0 -0.000434574 0)
(0 -0.000260124 0)
(0 -7.71795e-05 0)
(0 0.000107841 0)
(0 0.000288212 0)
(0 0.000456904 0)
(0 0.000606761 0)
(0 0.00073117 0)
(0 0.000824426 0)
(0 0.000881871 0)
(0 0.000899922 0)
(0 0.000876931 0)
(0 0.000813479 0)
(0 0.000711287 0)
(0 0.000574569 0)
(0 0.00040973 0)
(0 0.000224216 0)
(0 2.73561e-05 0)
(0 -0.00017068 0)
(0 -0.000359818 0)
(0 -0.000529352 0)
(0 -0.000669513 0)
(0 -0.000771662 0)
(0 -0.000829578 0)
(0 -0.000838784 0)
(0 -0.000797722 0)
(0 -0.000708713 0)
(0 -0.000576428 0)
(0 -0.000408739 0)
(0 -0.000216429 0)
(0 -1.20334e-05 0)
(0 0.000190404 0)
(0 0.00037785 0)
(0 0.000536278 0)
(0 0.000654008 0)
(0 0.000721943 0)
(0 0.000734311 0)
(0 0.000690095 0)
(0 0.00059219 0)
(0 0.000448386 0)
(0 0.000270304 0)
(0 7.35355e-05 0)
(0 -0.000125141 0)
(0 -0.000309424 0)
(0 -0.000462554 0)
(0 -0.000570653 0)
(0 -0.000623821 0)
(0 -0.00061741 0)
(0 -0.000552721 0)
(0 -0.000436979 0)
(0 -0.000282982 0)
(0 -0.000107966 0)
(0 6.82408e-05 0)
(0 0.000227583 0)
(0 0.000351751 0)
(0 0.000427066 0)
(0 0.000445816 0)
(0 0.00040737 0)
(0 0.000318322 0)
(0 0.000191787 0)
(0 4.66889e-05 0)
(0 -9.62114e-05 0)
(0 -0.00021813 0)
(0 -0.000301346 0)
(0 -0.0003348 0)
(0 -0.000315258 0)
(0 -0.000247842 0)
(0 -0.000145091 0)
(0 -2.55123e-05 0)
(0 8.96781e-05 0)
(0 0.000182663 0)
(0 0.000237217 0)
(0 0.000245097 0)
(0 0.000207181 0)
(0 0.000133089 0)
(0 3.92508e-05 0)
(0 -5.40487e-05 0)
(0 -0.000128456 0)
(0 -0.000170215 0)
(0 -0.000172553 0)
(0 -0.000138893 0)
(0 -8.12916e-05 0)
(0 -1.69433e-05 0)
(0 3.63565e-05 0)
(0 6.55575e-05 0)
(0 6.45937e-05 0)
(0 3.65958e-05 0)
(0 -7.01548e-06 0)
(0 -5.01408e-05 0)
(0 -7.69156e-05 0)
)
;
    }
    walls
    {
        type            calculated;
        value           uniform (0 0 0);
    }
    floatingObject
    {
        type            calculated;
        value           uniform (0 0 0);
    }
    frontAndBack
    {
        type            empty;
    }
}


// ************************************************************************* //
