/*--------------------------------*- C++ -*----------------------------------*\
  =========                 |
  \\      /  F ield         | OpenFOAM: The Open Source CFD Toolbox
   \\    /   O peration     | Website:  https://openfoam.org
    \\  /    A nd           | Version:  12
     \\/     M anipulation  |
\*---------------------------------------------------------------------------*/
FoamFile
{
    format      ascii;
    class       volVectorField;
    location    "0.68";
    object      zeta;
}
// * * * * * * * * * * * * * * * * * * * * * * * * * * * * * * * * * * * * * //

dimensions      [0 1 0 0 0 0 0];

internalField   uniform (0 0 0);

boundaryField
{
    freeSurface
    {
        type            calculated;
        value           nonuniform List<vector> 
181
(
(0 8.03902e-05 0)
(0 8.04366e-05 0)
(0 8.0455e-05 0)
(0 8.04761e-05 0)
(0 8.04952e-05 0)
(0 8.05189e-05 0)
(0 8.05311e-05 0)
(0 8.05634e-05 0)
(0 3.41154e-05 0)
(0 3.31387e-05 0)
(0 3.19225e-05 0)
(0 3.02577e-05 0)
(0 2.78929e-05 0)
(0 2.51381e-05 0)
(0 2.19716e-05 0)
(0 1.84771e-05 0)
(0 1.47425e-05 0)
(0 1.08471e-05 0)
(0 6.8705e-06 0)
(0 2.88587e-06 0)
(0 -1.03806e-06 0)
(0 -4.84035e-06 0)
(0 -8.47109e-06 0)
(0 -1.18938e-05 0)
(0 -1.50779e-05 0)
(0 -1.8003e-05 0)
(0 -2.06601e-05 0)
(0 -2.30484e-05 0)
(0 -2.51684e-05 0)
(0 -2.70282e-05 0)
(0 -2.86419e-05 0)
(0 -3.00226e-05 0)
(0 -3.11842e-05 0)
(0 -3.21433e-05 0)
(0 -3.29181e-05 0)
(0 -3.35257e-05 0)
(0 -3.39827e-05 0)
(0 -3.43057e-05 0)
(0 -3.45103e-05 0)
(0 -3.461e-05 0)
(0 -3.46171e-05 0)
(0 -3.45427e-05 0)
(0 -3.43975e-05 0)
(0 -3.41912e-05 0)
(0 -3.39325e-05 0)
(0 -3.3629e-05 0)
(0 -3.32878e-05 0)
(0 -3.29156e-05 0)
(0 -3.25186e-05 0)
(0 -3.21024e-05 0)
(0 -3.16705e-05 0)
(0 -3.12255e-05 0)
(0 -3.07685e-05 0)
(0 -3.02997e-05 0)
(0 -2.98202e-05 0)
(0 -2.93314e-05 0)
(0 -2.88363e-05 0)
(0 -2.83383e-05 0)
(0 -2.78402e-05 0)
(0 -2.7344e-05 0)
(0 -2.68523e-05 0)
(0 -2.63661e-05 0)
(0 -2.58855e-05 0)
(0 -2.54117e-05 0)
(0 -2.49451e-05 0)
(0 -2.44862e-05 0)
(0 -2.40361e-05 0)
(0 -2.35955e-05 0)
(0 -2.31645e-05 0)
(0 -2.27419e-05 0)
(0 -2.23261e-05 0)
(0 -2.19164e-05 0)
(0 -2.1512e-05 0)
(0 -2.11118e-05 0)
(0 -2.07155e-05 0)
(0 -2.03216e-05 0)
(0 -1.99288e-05 0)
(0 -1.95382e-05 0)
(0 -1.91533e-05 0)
(0 -1.87785e-05 0)
(0 -1.84181e-05 0)
(0 -1.80744e-05 0)
(0 -1.77461e-05 0)
(0 -1.74296e-05 0)
(0 -1.71227e-05 0)
(0 -1.68228e-05 0)
(0 -1.65303e-05 0)
(0 -1.62474e-05 0)
(0 -1.59749e-05 0)
(0 -1.5712e-05 0)
(0 -1.5456e-05 0)
(0 -1.52037e-05 0)
(0 -1.49531e-05 0)
(0 -1.4707e-05 0)
(0 -1.44675e-05 0)
(0 -1.42398e-05 0)
(0 -1.40253e-05 0)
(0 -1.38231e-05 0)
(0 -1.36307e-05 0)
(0 -1.3445e-05 0)
(0 -1.3264e-05 0)
(0 -1.30878e-05 0)
(0 -1.29165e-05 0)
(0 -1.27506e-05 0)
(0 -1.25905e-05 0)
(0 -1.24347e-05 0)
(0 -1.22849e-05 0)
(0 -1.21405e-05 0)
(0 -1.20039e-05 0)
(0 -1.18748e-05 0)
(0 -1.17525e-05 0)
(0 -1.1636e-05 0)
(0 -1.15243e-05 0)
(0 -1.14174e-05 0)
(0 -1.13157e-05 0)
(0 -1.12216e-05 0)
(0 -1.11374e-05 0)
(0 -1.10629e-05 0)
(0 -1.09949e-05 0)
(0 -1.09287e-05 0)
(0 -1.08601e-05 0)
(0 -1.07882e-05 0)
(0 -1.07142e-05 0)
(0 -1.06396e-05 0)
(0 -1.05679e-05 0)
(0 -1.05033e-05 0)
(0 -1.04476e-05 0)
(0 -1.04031e-05 0)
(0 -1.03677e-05 0)
(0 -1.03345e-05 0)
(0 -1.02979e-05 0)
(0 -1.02559e-05 0)
(0 -1.02087e-05 0)
(0 -1.016e-05 0)
(0 -1.01146e-05 0)
(0 -1.00715e-05 0)
(0 -1.00328e-05 0)
(0 -9.99433e-06 0)
(0 -9.95653e-06 0)
(0 -9.92117e-06 0)
(0 -9.89151e-06 0)
(0 -9.86907e-06 0)
(0 -9.8524e-06 0)
(0 -9.83632e-06 0)
(0 -9.81645e-06 0)
(0 -9.79052e-06 0)
(0 -9.76112e-06 0)
(0 -9.73655e-06 0)
(0 -9.7181e-06 0)
(0 -9.71209e-06 0)
(0 -9.71188e-06 0)
(0 -9.71115e-06 0)
(0 -9.70334e-06 0)
(0 -9.68733e-06 0)
(0 -9.66537e-06 0)
(0 -9.64177e-06 0)
(0 -9.62521e-06 0)
(0 -9.6123e-06 0)
(0 -9.60268e-06 0)
(0 -9.5904e-06 0)
(0 -9.5773e-06 0)
(0 -9.56529e-06 0)
(0 -9.55501e-06 0)
(0 -9.5444e-06 0)
(0 -9.53087e-06 0)
(0 -9.5125e-06 0)
(0 -9.49034e-06 0)
(0 -9.46968e-06 0)
(0 -9.45348e-06 0)
(0 -9.4416e-06 0)
(0 -9.43166e-06 0)
(0 -9.42322e-06 0)
(0 -9.41564e-06 0)
(0 -9.41157e-06 0)
(0 -9.41931e-06 0)
(0 -9.44546e-06 0)
(0 -9.49585e-06 0)
(0 -9.56075e-06 0)
(0 -9.61856e-06 0)
(0 -9.6329e-06 0)
(0 -9.60331e-06 0)
)
;
    }
    walls
    {
        type            calculated;
        value           uniform (0 0 0);
    }
    floatingObject
    {
        type            calculated;
        value           uniform (0 0 0);
    }
    frontAndBack
    {
        type            empty;
    }
}


// ************************************************************************* //
