/*--------------------------------*- C++ -*----------------------------------*\
  =========                 |
  \\      /  F ield         | OpenFOAM: The Open Source CFD Toolbox
   \\    /   O peration     | Website:  https://openfoam.org
    \\  /    A nd           | Version:  12
     \\/     M anipulation  |
\*---------------------------------------------------------------------------*/
FoamFile
{
    format      ascii;
    class       volScalarField;
    location    "1000";
    object      epsilon;
}
// * * * * * * * * * * * * * * * * * * * * * * * * * * * * * * * * * * * * * //

dimensions      [0 2 -3 0 0 0 0];

internalField   nonuniform List<scalar> 
80
(
472.106
174.892
95.5767
63.397
47.1069
37.6896
31.7375
27.7269
24.8923
22.8137
21.2445
20.0316
19.0755
18.3092
17.6858
17.172
16.7432
16.3812
16.0721
15.8052
15.5724
15.3673
15.1849
15.0212
14.8733
14.7389
14.6163
14.5041
14.4014
14.3075
14.2222
14.1451
14.0763
14.0157
13.9633
13.9194
13.8841
13.8574
13.8396
13.8307
13.8307
13.8396
13.8575
13.8841
13.9195
13.9634
14.0157
14.0764
14.1453
14.2223
14.3077
14.4015
14.5042
14.6164
14.7391
14.8735
15.0214
15.185
15.3675
15.5726
15.8054
16.0722
16.3814
16.7434
17.1722
17.686
18.3093
19.0757
20.0317
21.2447
22.8139
24.8924
27.727
31.7375
37.6896
47.1068
63.3967
95.5763
174.891
472.105
)
;

boundaryField
{
    lowerWall
    {
        type            epsilonWallFunction;
        value           uniform 472.106;
    }
    upperWall
    {
        type            epsilonWallFunction;
        value           uniform 472.105;
    }
    front
    {
        type            cyclic;
    }
    back
    {
        type            cyclic;
    }
    defaultFaces
    {
        type            empty;
    }
}


// ************************************************************************* //
