/*--------------------------------*- C++ -*----------------------------------*\
  =========                 |
  \\      /  F ield         | OpenFOAM: The Open Source CFD Toolbox
   \\    /   O peration     | Website:  https://openfoam.org
    \\  /    A nd           | Version:  12
     \\/     M anipulation  |
\*---------------------------------------------------------------------------*/
FoamFile
{
    format      ascii;
    class       volSymmTensorField;
    location    "1000";
    object      R;
}
// * * * * * * * * * * * * * * * * * * * * * * * * * * * * * * * * * * * * * //

dimensions      [0 2 -2 0 0 0 0];

internalField   nonuniform List<symmTensor> 
80
(
(0.543374 -0.755579 -0 0.543374 -0 0.543374)
(0.551546 -0.249719 -0 0.551546 -0 0.551546)
(0.550339 -0.236301 -0 0.550339 -0 0.550339)
(0.559649 -0.229935 -0 0.559649 -0 0.559649)
(0.57432 -0.225074 -0 0.57432 -0 0.57432)
(0.591504 -0.221342 -0 0.591504 -0 0.591504)
(0.609709 -0.218712 -0 0.609709 -0 0.609709)
(0.628141 -0.217156 -0 0.628141 -0 0.628141)
(0.64637 -0.216604 -0 0.64637 -0 0.64637)
(0.664159 -0.216944 -0 0.664159 -0 0.664159)
(0.681374 -0.218037 -0 0.681374 -0 0.681374)
(0.697934 -0.219722 -0 0.697934 -0 0.697934)
(0.713794 -0.221825 -0 0.713794 -0 0.713794)
(0.728925 -0.224167 -0 0.728925 -0 0.728925)
(0.743309 -0.226569 -0 0.743309 -0 0.743309)
(0.756937 -0.228851 -0 0.756937 -0 0.756937)
(0.769804 -0.230841 -0 0.769804 -0 0.769804)
(0.781909 -0.232377 -0 0.781909 -0 0.781909)
(0.793256 -0.233306 -0 0.793256 -0 0.793256)
(0.803849 -0.233488 -0 0.803849 -0 0.803849)
(0.8137 -0.232798 -0 0.8137 -0 0.8137)
(0.82282 -0.231126 -0 0.82282 -0 0.82282)
(0.831227 -0.228379 -0 0.831227 -0 0.831227)
(0.838938 -0.224479 -0 0.838938 -0 0.838938)
(0.845977 -0.219369 -0 0.845977 -0 0.845977)
(0.852368 -0.213008 -0 0.852368 -0 0.852368)
(0.858137 -0.205371 -0 0.858137 -0 0.858137)
(0.863315 -0.196456 -0 0.863315 -0 0.863315)
(0.867931 -0.186273 -0 0.867931 -0 0.867931)
(0.872017 -0.174852 -0 0.872017 -0 0.872017)
(0.875605 -0.16224 -0 0.875605 -0 0.875605)
(0.878726 -0.148498 -0 0.878726 -0 0.878726)
(0.881411 -0.133702 -0 0.881411 -0 0.881411)
(0.883689 -0.117943 -0 0.883689 -0 0.883689)
(0.885586 -0.101322 -0 0.885586 -0 0.885586)
(0.887127 -0.0839538 -0 0.887127 -0 0.887127)
(0.888334 -0.0659598 -0 0.888334 -0 0.888334)
(0.889223 -0.0474711 -0 0.889223 -0 0.889223)
(0.889809 -0.0286245 -0 0.889809 -0 0.889809)
(0.890099 -0.00956143 -0 0.890099 -0 0.890099)
(0.890099 0.00957415 -0 0.890099 -0 0.890099)
(0.889809 0.0286372 -0 0.889809 -0 0.889809)
(0.889225 0.0474837 -0 0.889225 -0 0.889225)
(0.888336 0.0659723 -0 0.888336 -0 0.888336)
(0.88713 0.0839661 -0 0.88713 -0 0.88713)
(0.885589 0.101335 -0 0.885589 -0 0.885589)
(0.883692 0.117955 -0 0.883692 -0 0.883692)
(0.881415 0.133714 -0 0.881415 -0 0.881415)
(0.87873 0.148509 -0 0.87873 -0 0.87873)
(0.87561 0.162251 -0 0.87561 -0 0.87561)
(0.872022 0.174863 -0 0.872022 -0 0.872022)
(0.867936 0.186283 -0 0.867936 -0 0.867936)
(0.86332 0.196465 -0 0.86332 -0 0.86332)
(0.858143 0.205381 -0 0.858143 -0 0.858143)
(0.852373 0.213016 -0 0.852373 -0 0.852373)
(0.845983 0.219377 -0 0.845983 -0 0.845983)
(0.838944 0.224487 -0 0.838944 -0 0.838944)
(0.831233 0.228386 -0 0.831233 -0 0.831233)
(0.822827 0.231133 -0 0.822827 -0 0.822827)
(0.813706 0.232804 -0 0.813706 -0 0.813706)
(0.803856 0.233494 -0 0.803856 -0 0.803856)
(0.793262 0.233311 -0 0.793262 -0 0.793262)
(0.781916 0.232382 -0 0.781916 -0 0.781916)
(0.76981 0.230845 -0 0.76981 -0 0.76981)
(0.756943 0.228854 -0 0.756943 -0 0.756943)
(0.743315 0.226572 -0 0.743315 -0 0.743315)
(0.72893 0.22417 -0 0.72893 -0 0.72893)
(0.713799 0.221827 -0 0.713799 -0 0.713799)
(0.697939 0.219723 -0 0.697939 -0 0.697939)
(0.681378 0.218039 -0 0.681378 -0 0.681378)
(0.664164 0.216945 -0 0.664164 -0 0.664164)
(0.646374 0.216605 -0 0.646374 -0 0.646374)
(0.628144 0.217156 -0 0.628144 -0 0.628144)
(0.609712 0.218712 -0 0.609712 -0 0.609712)
(0.591507 0.221342 -0 0.591507 -0 0.591507)
(0.574322 0.225074 -0 0.574322 -0 0.574322)
(0.55965 0.229935 -0 0.55965 -0 0.55965)
(0.550339 0.2363 -0 0.550339 -0 0.550339)
(0.551545 0.249718 -0 0.551545 -0 0.551545)
(0.543373 0.755577 -0 0.543373 -0 0.543373)
)
;

boundaryField
{
    lowerWall
    {
        type            calculated;
        value           uniform (0.543374 -0.133664 -0 0.543374 -0 0.543374);
    }
    upperWall
    {
        type            calculated;
        value           uniform (0.543373 0.133664 -0 0.543373 -0 0.543373);
    }
    front
    {
        type            cyclic;
    }
    back
    {
        type            cyclic;
    }
    defaultFaces
    {
        type            empty;
    }
}


// ************************************************************************* //
