/*--------------------------------*- C++ -*----------------------------------*\
  =========                 |
  \\      /  F ield         | OpenFOAM: The Open Source CFD Toolbox
   \\    /   O peration     | Website:  https://openfoam.org
    \\  /    A nd           | Version:  12
     \\/     M anipulation  |
\*---------------------------------------------------------------------------*/
FoamFile
{
    format      ascii;
    class       volVectorField;
    location    "1000";
    object      U;
}
// * * * * * * * * * * * * * * * * * * * * * * * * * * * * * * * * * * * * * //

dimensions      [0 1 -1 0 0 0 0];

internalField   nonuniform List<vector> 
80
(
(6.85965 0 0)
(8.0558 0 0)
(8.6321 0 0)
(8.9764 0 0)
(9.20668 0 0)
(9.37324 0 0)
(9.50105 0 0)
(9.60377 0 0)
(9.68945 0 0)
(9.76309 0 0)
(9.82797 0 0)
(9.88627 0 0)
(9.93952 0 0)
(9.9888 0 0)
(10.0349 0 0)
(10.0783 0 0)
(10.1196 0 0)
(10.1589 0 0)
(10.1964 0 0)
(10.2324 0 0)
(10.2669 0 0)
(10.3 0 0)
(10.3317 0 0)
(10.362 0 0)
(10.3908 0 0)
(10.4183 0 0)
(10.4442 0 0)
(10.4686 0 0)
(10.4914 0 0)
(10.5126 0 0)
(10.532 0 0)
(10.5497 0 0)
(10.5656 0 0)
(10.5796 0 0)
(10.5917 0 0)
(10.6019 0 0)
(10.6101 0 0)
(10.6162 0 0)
(10.6203 0 0)
(10.6224 0 0)
(10.6224 0 0)
(10.6203 0 0)
(10.6162 0 0)
(10.6101 0 0)
(10.6019 0 0)
(10.5917 0 0)
(10.5796 0 0)
(10.5656 0 0)
(10.5497 0 0)
(10.532 0 0)
(10.5125 0 0)
(10.4914 0 0)
(10.4686 0 0)
(10.4442 0 0)
(10.4182 0 0)
(10.3908 0 0)
(10.362 0 0)
(10.3317 0 0)
(10.3 0 0)
(10.2669 0 0)
(10.2324 0 0)
(10.1964 0 0)
(10.1588 0 0)
(10.1195 0 0)
(10.0783 0 0)
(10.0349 0 0)
(9.98877 0 0)
(9.93949 0 0)
(9.88624 0 0)
(9.82794 0 0)
(9.76307 0 0)
(9.68942 0 0)
(9.60374 0 0)
(9.50102 0 0)
(9.37322 0 0)
(9.20666 0 0)
(8.97638 0 0)
(8.63208 0 0)
(8.05579 0 0)
(6.85964 0 0)
)
;

boundaryField
{
    lowerWall
    {
        type            noSlip;
    }
    upperWall
    {
        type            noSlip;
    }
    front
    {
        type            cyclic;
    }
    back
    {
        type            cyclic;
    }
    defaultFaces
    {
        type            empty;
    }
}


// ************************************************************************* //
