/*--------------------------------*- C++ -*----------------------------------*\
  =========                 |
  \\      /  F ield         | OpenFOAM: The Open Source CFD Toolbox
   \\    /   O peration     | Website:  https://openfoam.org
    \\  /    A nd           | Version:  12
     \\/     M anipulation  |
\*---------------------------------------------------------------------------*/
FoamFile
{
    format      ascii;
    class       volVectorField;
    location    "11.16";
    object      zeta;
}
// * * * * * * * * * * * * * * * * * * * * * * * * * * * * * * * * * * * * * //

dimensions      [0 1 0 0 0 0 0];

internalField   uniform (0 0 0);

boundaryField
{
    freeSurface
    {
        type            calculated;
        value           nonuniform List<vector> 
181
(
(0 0.00332684 0)
(0 0.00332604 0)
(0 0.00332597 0)
(0 0.00332575 0)
(0 0.00332599 0)
(0 0.00332564 0)
(0 0.00332632 0)
(0 0.00332569 0)
(0 -0.000646489 0)
(0 -0.00062904 0)
(0 -0.000614448 0)
(0 -0.000589794 0)
(0 -0.000557295 0)
(0 -0.000513546 0)
(0 -0.000465061 0)
(0 -0.000406571 0)
(0 -0.00034323 0)
(0 -0.000273143 0)
(0 -0.000198151 0)
(0 -0.000118202 0)
(0 -3.40308e-05 0)
(0 5.37246e-05 0)
(0 0.000144175 0)
(0 0.000236327 0)
(0 0.000329283 0)
(0 0.000422193 0)
(0 0.000514192 0)
(0 0.000604436 0)
(0 0.000691994 0)
(0 0.000775887 0)
(0 0.00085514 0)
(0 0.000928689 0)
(0 0.000995492 0)
(0 0.00105474 0)
(0 0.00110551 0)
(0 0.00114701 0)
(0 0.00117838 0)
(0 0.00119893 0)
(0 0.00120814 0)
(0 0.00120547 0)
(0 0.00119063 0)
(0 0.00116337 0)
(0 0.00112363 0)
(0 0.00107144 0)
(0 0.00100712 0)
(0 0.000931014 0)
(0 0.000843714 0)
(0 0.000746039 0)
(0 0.000638788 0)
(0 0.00052327 0)
(0 0.000400681 0)
(0 0.000272584 0)
(0 0.000140488 0)
(0 6.35112e-06 0)
(0 -0.000127958 0)
(0 -0.000260563 0)
(0 -0.000389376 0)
(0 -0.000512335 0)
(0 -0.000627406 0)
(0 -0.000732552 0)
(0 -0.000825879 0)
(0 -0.000905573 0)
(0 -0.000969964 0)
(0 -0.00101752 0)
(0 -0.00104714 0)
(0 -0.00105795 0)
(0 -0.00104911 0)
(0 -0.00102058 0)
(0 -0.000972527 0)
(0 -0.000905551 0)
(0 -0.000820619 0)
(0 -0.000719206 0)
(0 -0.000603235 0)
(0 -0.000474944 0)
(0 -0.000336989 0)
(0 -0.000192347 0)
(0 -4.4346e-05 0)
(0 0.000103549 0)
(0 0.000247754 0)
(0 0.000384656 0)
(0 0.000510435 0)
(0 0.000621843 0)
(0 0.000715371 0)
(0 0.000788525 0)
(0 0.000838635 0)
(0 0.000864127 0)
(0 0.000863995 0)
(0 0.000837691 0)
(0 0.000785856 0)
(0 0.000709782 0)
(0 0.000611631 0)
(0 0.000494498 0)
(0 0.00036209 0)
(0 0.000218817 0)
(0 6.97502e-05 0)
(0 -7.96813e-05 0)
(0 -0.000224143 0)
(0 -0.000357963 0)
(0 -0.000475959 0)
(0 -0.000573181 0)
(0 -0.000645511 0)
(0 -0.000689846 0)
(0 -0.000704039 0)
(0 -0.000687239 0)
(0 -0.000640142 0)
(0 -0.000564661 0)
(0 -0.000464313 0)
(0 -0.000343681 0)
(0 -0.000208801 0)
(0 -6.64299e-05 0)
(0 7.61186e-05 0)
(0 0.000211526 0)
(0 0.000332374 0)
(0 0.000432033 0)
(0 0.000504755 0)
(0 0.000546372 0)
(0 0.000554554 0)
(0 0.000528531 0)
(0 0.000470201 0)
(0 0.000383258 0)
(0 0.000273383 0)
(0 0.000147912 0)
(0 1.54551e-05 0)
(0 -0.000114833 0)
(0 -0.000234159 0)
(0 -0.000333951 0)
(0 -0.000407078 0)
(0 -0.000448367 0)
(0 -0.000455028 0)
(0 -0.00042696 0)
(0 -0.000367092 0)
(0 -0.000280986 0)
(0 -0.000176309 0)
(0 -6.27169e-05 0)
(0 4.94947e-05 0)
(0 0.000150824 0)
(0 0.000232122 0)
(0 0.000286474 0)
(0 0.00030951 0)
(0 0.000300167 0)
(0 0.000260637 0)
(0 0.000196268 0)
(0 0.000115119 0)
(0 2.72808e-05 0)
(0 -5.69169e-05 0)
(0 -0.000128075 0)
(0 -0.000178057 0)
(0 -0.000201906 0)
(0 -0.000198299 0)
(0 -0.000169754 0)
(0 -0.000122124 0)
(0 -6.36987e-05 0)
(0 -4.11078e-06 0)
(0 4.77379e-05 0)
(0 8.4624e-05 0)
(0 0.000101902 0)
(0 9.85528e-05 0)
(0 7.69937e-05 0)
(0 4.23592e-05 0)
(0 1.42445e-06 0)
(0 -3.8603e-05 0)
(0 -7.14119e-05 0)
(0 -9.23751e-05 0)
(0 -9.88482e-05 0)
(0 -9.0693e-05 0)
(0 -7.02028e-05 0)
(0 -4.13752e-05 0)
(0 -8.95163e-06 0)
(0 2.23018e-05 0)
(0 4.83679e-05 0)
(0 6.61298e-05 0)
(0 7.40251e-05 0)
(0 7.17674e-05 0)
(0 6.02397e-05 0)
(0 4.18494e-05 0)
(0 1.90737e-05 0)
(0 -5.35151e-06 0)
(0 -2.86723e-05 0)
(0 -4.85101e-05 0)
(0 -6.29489e-05 0)
(0 -7.05904e-05 0)
)
;
    }
    walls
    {
        type            calculated;
        value           uniform (0 0 0);
    }
    floatingObject
    {
        type            calculated;
        value           uniform (0 0 0);
    }
    frontAndBack
    {
        type            empty;
    }
}


// ************************************************************************* //
