/*--------------------------------*- C++ -*----------------------------------*\
  =========                 |
  \\      /  F ield         | OpenFOAM: The Open Source CFD Toolbox
   \\    /   O peration     | Website:  https://openfoam.org
    \\  /    A nd           | Version:  12
     \\/     M anipulation  |
\*---------------------------------------------------------------------------*/
FoamFile
{
    format      ascii;
    class       volScalarField;
    location    "0.1";
    object      epsilon;
}
// * * * * * * * * * * * * * * * * * * * * * * * * * * * * * * * * * * * * * //

dimensions      [0 2 -3 0 0 0 0];

internalField   nonuniform List<scalar> 
12225
(
278.515
263.66
249.434
236.839
226.739
219.486
215.075
213.273
213.722
216.015
219.749
224.555
230.114
236.164
242.506
248.977
255.639
265.337
61.1164
86.6968
97.9947
107.214
118.477
132.578
149.446
168.667
189.662
211.806
234.512
257.272
279.689
301.477
322.575
342.846
364.105
383.25
25.2776
36.1834
43.3827
48.6233
53.3901
58.3428
63.7815
69.8429
76.5526
83.8633
91.6862
99.9139
108.438
117.164
126.035
135.053
144.422
154.183
17.5217
21.2988
24.7149
27.6109
30.1636
32.5428
34.871
37.2346
39.687
42.2551
44.947
47.759
50.6813
53.7038
56.8219
60.0516
63.4243
66.988
15.4879
16.752
18.186
19.5893
20.9102
22.1503
23.3283
24.4682
25.5908
26.7114
27.8402
28.9831
30.1435
31.3237
32.5267
33.7601
35.0323
36.3446
14.9084
15.2396
15.7464
16.3342
16.948
17.5595
18.1568
18.737
19.3022
19.8556
20.4005
20.9395
21.4752
22.0095
22.5448
23.0843
23.6305
24.1787
14.7451
14.7391
14.8342
15.0037
15.2217
15.4682
15.729
15.9955
16.263
16.5289
16.7923
17.0529
17.3107
17.5662
17.8202
18.0736
18.3272
18.577
14.7013
14.5825
14.5116
14.4858
14.4982
14.5404
14.6045
14.684
14.7741
14.8715
14.9735
15.0786
15.1857
15.2942
15.4036
15.5139
15.625
15.7342
14.6901
14.5373
14.407
14.3008
14.2182
14.1571
14.1146
14.0876
14.0734
14.0695
14.0739
14.085
14.1015
14.1225
14.1471
14.1749
14.2053
14.2367
14.6874
14.5252
14.3761
14.2411
14.1204
14.0137
13.9203
13.8391
13.7688
13.7084
13.6565
13.6121
13.5743
13.5423
13.5154
13.493
13.4746
13.4594
14.6868
14.5221
14.3677
14.2236
14.0896
13.9655
13.8511
13.7459
13.6494
13.561
13.48
13.406
13.3383
13.2764
13.2198
13.1681
13.1209
13.0779
14.6866
14.5213
14.3656
14.219
14.0812
13.9518
13.8304
13.7168
13.6104
13.511
13.418
13.3312
13.2502
13.1745
13.1039
13.038
12.9765
12.9196
14.6865
14.521
14.3648
14.2175
14.0785
13.9472
13.8234
13.7065
13.5962
13.4921
13.394
13.3014
13.2141
13.1317
13.0541
12.9809
12.9119
12.8475
14.6864
14.5208
14.3645
14.2169
14.0774
13.9456
13.8209
13.7029
13.5912
13.4854
13.3852
13.2903
13.2003
13.1151
13.0343
12.9577
12.8851
12.8171
14.6864
14.5207
14.3643
14.2165
14.0769
13.9449
13.8199
13.7016
13.5895
13.4832
13.3824
13.2867
13.1959
13.1097
13.0278
12.95
12.8762
12.8067
14.6863
14.5206
14.3641
14.2163
14.0766
13.9444
13.8193
13.7009
13.5886
13.4822
13.3812
13.2853
13.1943
13.1078
13.0256
12.9475
12.8732
12.8034
14.6863
14.5205
14.364
14.2161
14.0763
13.9441
13.8189
13.7004
13.5881
13.4815
13.3805
13.2845
13.1934
13.1068
13.0245
12.9463
12.8719
12.8019
14.6863
14.5204
14.3639
14.216
14.0761
13.9439
13.8187
13.7001
13.5877
13.4811
13.38
13.284
13.1928
13.1062
13.0238
12.9455
12.871
12.8009
14.6863
14.5204
14.3639
14.2159
14.0761
13.9438
13.8186
13.7
13.5875
13.4809
13.3798
13.2838
13.1925
13.1059
13.0235
12.9451
12.8706
12.8005
14.6863
14.5205
14.3639
14.216
14.0762
13.9439
13.8187
13.7002
13.5878
13.4812
13.3801
13.2841
13.1929
13.1062
13.0239
12.9455
12.8711
12.801
14.6863
14.5205
14.364
14.2162
14.0764
13.9443
13.8192
13.7008
13.5885
13.4822
13.3813
13.2855
13.1947
13.1084
13.0264
12.9484
12.8744
12.8048
14.6863
14.5206
14.3643
14.2167
14.0774
13.9457
13.8214
13.7039
13.5929
13.4879
13.3887
13.2948
13.206
13.122
13.0424
12.9671
12.8958
12.829
14.6865
14.5212
14.3659
14.2202
14.0837
13.9561
13.8368
13.7256
13.6218
13.5251
13.4348
13.3506
13.2721
13.1987
13.1301
13.066
13.006
12.9506
14.6876
14.5264
14.3794
14.2467
14.1282
14.0231
13.9302
13.8484
13.7762
13.7126
13.6564
13.6067
13.5627
13.5236
13.4888
13.4579
13.4303
13.4062
14.6976
14.5664
14.4707
14.4075
14.3714
14.3568
14.3584
14.3718
14.3939
14.4221
14.4547
14.4903
14.5281
14.5674
14.6077
14.6487
14.6902
14.732
14.7737
14.8186
14.9602
15.1591
15.3862
15.6231
15.8595
16.09
16.3129
16.5277
16.7349
16.9353
17.1298
17.3193
17.5045
17.6859
17.8641
18.0386
15.2587
16.1151
17.0711
17.9725
18.7875
19.5233
20.1937
20.8138
21.3974
21.9555
22.4963
23.0261
23.5492
24.0683
24.5852
25.1008
25.6154
26.1263
18.0414
22.0078
24.9883
27.1528
28.8876
30.4037
31.8107
33.1759
34.5402
35.9263
37.3451
38.8005
40.2916
41.8144
43.3633
44.932
46.514
48.0963
34.0239
45.6873
51.3759
54.9408
58.0784
61.2941
64.745
68.4748
72.4675
76.6803
81.0627
85.5651
90.141
94.7487
99.3526
103.924
108.447
112.895
163.308
157.417
151.704
146.261
141.3
136.947
133.249
130.205
127.779
125.916
124.555
123.632
123.087
122.862
122.906
123.174
123.625
124.224
1.64694
1.2215
1.74671
2.17135
2.53513
2.86333
3.17957
3.51381
3.8785
4.28391
4.74052
5.25336
5.82181
6.42464
7.00909
7.55132
8.02924
8.42553
8.72837
8.93176
9.03844
9.05196
8.83727
8.87951
8.91665
9.05056
9.13038
39.5861
39.7194
9.2144
39.4762
39.922
42.8937
46.085
49.3854
52.7768
56.2529
59.8111
63.4513
67.1757
70.9877
74.8921
78.8939
82.9991
87.2136
91.5436
95.9952
100.575
105.288
110.14
115.137
120.284
125.585
131.045
136.667
142.455
148.411
154.538
160.838
167.313
173.962
180.786
187.786
194.961
202.309
209.828
217.518
225.374
233.394
241.574
249.909
258.397
267.03
275.804
284.712
293.749
302.906
312.178
321.555
331.031
340.595
350.24
359.955
369.73
379.556
389.42
399.311
409.218
419.128
429.029
438.908
448.754
458.56
468.323
478.049
487.768
497.49
507.071
516.507
525.789
534.906
543.84
552.576
561.096
569.384
577.423
585.196
592.687
599.88
606.76
613.312
619.522
625.375
630.86
635.964
640.675
644.984
648.882
652.36
655.41
658.028
660.207
661.943
663.236
664.082
664.483
664.44
663.955
663.032
661.676
659.894
657.694
655.083
652.071
648.67
644.891
640.747
636.25
631.414
626.254
620.785
615.021
608.978
602.671
596.116
589.326
582.318
575.105
567.702
560.121
552.376
544.481
536.445
528.278
519.999
511.6
503.119
494.528
485.913
477.549
471.85
469.18
466.764
464.342
461.878
459.358
456.775
454.121
451.388
448.565
445.641
442.596
439.405
436.027
432.392
428.374
423.695
417.708
408.428
391.709
2.9338
2.02057
2.00165
2.11011
2.2674
2.46385
2.70632
3.0033
3.36007
3.78588
4.29395
4.87279
5.51728
6.21454
6.94593
7.69649
8.45793
9.23129
10.0292
10.8787
11.8321
13.0143
14.6841
15.8218
16.847
17.6506
18.9204
20.9849
22.4391
23.7207
26.1252
27.8489
29.4184
30.9578
32.5097
34.0889
35.6994
37.3439
39.0252
40.7461
42.5091
44.317
46.1719
48.0762
50.0319
52.0409
54.1051
56.2261
58.4054
60.6445
62.9444
65.3064
67.7313
70.22
72.773
75.3909
78.074
80.8226
83.6366
86.5159
89.4604
92.4695
95.5428
98.6795
101.879
105.14
108.461
111.841
115.279
118.773
122.322
125.923
129.574
133.273
137.019
140.807
144.637
148.504
152.407
156.341
160.305
164.293
168.303
172.331
176.373
180.426
184.484
188.543
192.6
196.651
200.691
204.718
208.732
212.734
216.73
220.731
224.775
228.779
232.73
236.622
240.449
244.206
247.885
251.48
254.985
258.393
261.698
264.894
267.974
270.934
273.766
276.465
279.027
281.445
283.716
285.834
287.795
289.596
291.233
292.703
294.003
295.131
296.084
296.863
297.465
297.89
298.139
298.211
298.108
297.831
297.382
296.764
295.978
295.029
293.92
292.654
291.237
289.672
287.965
286.12
284.144
282.041
279.816
277.477
275.027
272.474
269.822
267.076
264.243
261.328
258.335
255.27
252.139
248.942
245.691
242.382
239.036
235.64
232.267
229.083
226.489
224.382
222.353
220.322
218.273
216.201
214.105
211.986
209.842
207.673
205.48
203.261
201.014
198.737
196.424
194.072
191.665
189.237
186.711
186.261
4.88794
2.97193
2.69723
2.69105
2.79172
2.96874
3.21364
3.52577
3.91034
4.37621
4.92977
5.57064
6.29237
7.08267
7.92571
8.80614
9.71222
10.6376
11.5817
12.548
13.5425
14.5725
15.6384
16.6656
17.6953
18.7394
19.8476
21.0292
22.2451
23.5081
24.8209
26.1033
27.362
28.6256
29.9117
31.2275
32.5752
33.9562
35.3716
36.8226
38.3103
39.836
41.4009
43.0064
44.6535
46.3434
48.0772
49.8559
51.6805
53.5517
55.4705
57.4374
59.453
61.5179
63.6325
65.797
68.0117
70.2766
72.5917
74.957
77.3722
79.8369
82.3509
84.9134
87.5239
90.1816
92.8857
95.6352
98.429
101.266
104.145
107.064
110.022
113.017
116.048
119.113
122.209
125.335
128.488
131.667
134.869
138.091
141.331
144.586
147.854
151.132
154.417
157.707
160.999
164.292
167.583
170.872
174.159
177.444
180.729
184.017
187.293
190.535
193.738
196.894
200
203.048
206.036
208.956
211.805
214.577
217.266
219.868
222.378
224.791
227.102
229.308
231.402
233.382
235.243
236.982
238.595
240.078
241.43
242.647
243.727
244.669
245.47
246.129
246.645
247.018
247.247
247.333
247.277
247.078
246.74
246.263
245.649
244.901
244.021
243.013
241.88
240.625
239.252
237.766
236.17
234.469
232.667
230.769
228.779
226.702
224.543
222.306
219.995
217.617
215.173
212.669
210.111
207.496
204.84
202.133
199.403
196.667
193.959
191.352
188.96
186.727
184.537
182.347
180.148
177.936
175.712
173.475
171.229
168.973
166.711
164.444
162.175
159.909
157.652
155.421
153.244
151.222
149.511
149.128
7.32682
4.07493
3.54257
3.45288
3.52991
3.7056
3.9571
4.28522
4.69508
5.19255
5.78098
6.45861
7.21739
8.04346
8.9193
9.82687
10.7506
11.6793
12.607
13.5322
14.4569
15.3845
16.3189
17.2618
18.2243
19.2148
20.2412
21.3053
22.4048
23.5368
24.6944
25.8691
27.0595
28.2711
29.509
30.7766
32.0757
33.4074
34.7727
36.1724
37.6076
39.079
40.5878
42.1348
43.7212
45.3479
47.0158
48.7259
50.4791
52.2762
54.118
56.0053
57.9387
59.9188
61.9461
64.0211
66.1441
68.3154
70.5351
72.8034
75.1202
77.4854
79.8988
82.36
84.8687
87.4244
90.0263
92.6737
95.3657
98.1015
100.88
103.699
106.559
109.457
112.393
115.364
118.368
121.404
124.47
127.564
130.683
133.825
136.989
140.171
143.369
146.581
149.805
153.037
156.277
159.522
162.77
166.019
169.269
172.517
175.762
178.995
182.205
185.383
188.522
191.616
194.661
197.652
200.582
203.447
206.242
208.961
211.6
214.152
216.614
218.98
221.246
223.407
225.459
227.397
229.218
230.918
232.493
233.94
235.256
236.439
237.486
238.396
239.166
239.795
240.282
240.627
240.829
240.889
240.807
240.583
240.221
239.72
239.083
238.312
237.41
236.379
235.224
233.948
232.554
231.047
229.43
227.709
225.887
223.969
221.96
219.865
217.689
215.435
213.108
210.715
208.259
205.742
203.176
200.549
197.892
195.203
192.494
189.779
187.081
184.437
181.89
179.412
176.959
174.509
172.055
169.595
167.13
164.661
162.191
159.723
157.259
154.803
152.361
149.94
147.553
145.224
142.997
140.976
139.329
138.583
10.1566
5.32074
4.49879
4.31732
4.35986
4.51889
4.76905
5.10428
5.52515
6.03348
6.62898
7.307
8.05762
8.86614
9.71517
10.5874
11.4682
12.3479
13.2219
14.0908
14.9588
15.832
16.7174
17.6219
18.552
19.5129
20.5075
21.5366
22.5994
23.6942
24.8188
25.9715
27.1518
28.3609
29.6004
30.8717
32.176
33.5141
34.8868
36.2951
37.7395
39.2212
40.741
42.2998
43.8986
45.5385
47.2205
48.9456
50.7148
52.5292
54.3896
56.297
58.2522
60.2562
62.3096
64.4132
66.5675
68.7731
71.0305
73.3399
75.7017
78.1159
80.5826
83.1017
85.673
88.2962
90.9707
93.6961
96.4716
99.2963
102.169
105.089
108.055
111.066
114.119
117.214
120.348
123.52
126.728
129.968
133.241
136.542
139.869
143.221
146.594
149.985
153.394
156.815
160.248
163.689
167.136
170.587
174.038
177.487
180.926
184.346
187.737
191.095
194.412
197.682
200.9
204.061
207.157
210.185
213.138
216.01
218.796
221.49
224.087
226.582
228.97
231.245
233.404
235.44
237.351
239.131
240.778
242.288
243.658
244.885
245.966
246.9
247.684
248.317
248.798
249.126
249.302
249.325
249.197
248.917
248.487
247.91
247.187
246.321
245.314
244.17
242.893
241.486
239.954
238.301
236.53
234.648
232.66
230.569
228.381
226.102
223.738
221.292
218.766
216.176
213.518
210.793
208.027
205.213
202.362
199.481
196.579
193.666
190.76
187.883
185.051
182.255
179.475
176.699
173.923
171.148
168.374
165.605
162.842
160.091
157.354
154.637
151.947
149.294
146.694
144.176
141.786
139.625
137.823
136.669
13.036
6.64167
5.50791
5.21661
5.20081
5.33214
5.56883
5.89616
6.30905
6.80499
7.3804
8.02859
8.73907
9.49821
10.291
11.1032
11.9237
12.7459
13.5676
14.391
15.2209
16.0636
16.9255
17.8123
18.7287
19.678
20.662
21.6812
22.7356
23.8244
24.9471
26.1032
27.2927
28.5158
29.7732
31.0658
32.3941
33.7589
35.1609
36.6009
38.0796
39.5979
41.1569
42.7575
44.4009
46.088
47.8201
49.5985
51.4242
53.2986
55.2228
57.1981
59.2255
61.3064
63.4416
65.6323
67.8793
70.1836
72.5458
74.9667
77.4467
79.9864
82.586
85.2456
87.9653
90.745
93.5843
96.4829
99.4401
102.455
105.527
108.655
111.837
115.073
118.359
121.696
125.081
128.511
131.985
135.5
139.054
142.643
146.267
149.921
153.602
157.308
161.036
164.782
168.543
172.316
176.097
179.882
183.669
187.451
191.216
194.957
198.666
202.337
205.963
209.538
213.056
216.509
219.893
223.2
226.423
229.558
232.596
235.533
238.362
241.077
243.673
246.144
248.485
250.69
252.756
254.677
256.45
258.071
259.536
260.843
261.988
262.97
263.786
264.435
264.917
265.229
265.373
265.349
265.156
264.797
264.273
263.586
262.738
261.733
260.574
259.263
257.805
256.206
254.469
252.599
250.6
248.479
246.242
243.895
241.439
238.884
236.24
233.507
230.682
227.795
224.842
221.825
218.758
215.643
212.489
209.302
206.092
202.867
199.641
196.427
193.236
190.064
186.904
183.75
180.601
177.458
174.324
171.201
168.095
165.008
161.946
158.917
155.927
152.99
150.123
147.356
144.738
142.353
140.298
138.736
15.6983
7.92328
6.48628
6.06603
5.98912
6.0865
6.30018
6.60702
6.99665
7.463
8.00029
8.60112
9.25584
9.95309
10.6812
11.4296
12.1908
12.9604
13.738
14.5259
15.3285
16.1508
16.998
17.8742
18.783
19.7268
20.7069
21.7242
22.7789
23.871
25.0006
26.1676
27.3724
28.6151
29.8963
31.2164
32.5761
33.9759
35.4166
36.8989
38.4237
39.9919
41.6046
43.263
44.9681
46.7214
48.5242
50.3779
52.284
54.2441
56.2596
58.3321
60.4631
62.6541
64.9065
67.2218
69.6012
72.0459
74.5572
77.136
79.7832
82.4994
85.2854
88.1415
91.068
94.0649
97.1322
100.269
103.476
106.752
110.095
113.505
116.981
120.52
124.122
127.783
131.503
135.278
139.106
142.985
146.911
150.882
154.895
158.945
163.03
167.146
171.288
175.455
179.64
183.84
188.051
192.268
196.486
200.693
204.878
209.033
213.152
217.227
221.252
225.219
229.12
232.949
236.698
240.36
243.928
247.394
250.752
253.994
257.114
260.105
262.961
265.676
268.243
270.658
272.914
275.008
276.934
278.689
280.269
281.671
282.891
283.928
284.78
285.444
285.92
286.208
286.307
286.218
285.941
285.479
284.833
284.005
283
281.819
280.467
278.946
277.262
275.422
273.43
271.291
269.008
266.59
264.047
261.382
258.596
255.699
252.71
249.628
246.455
243.207
239.888
236.504
233.063
229.573
226.039
222.471
218.875
215.262
211.642
208.024
204.417
200.822
197.237
193.66
190.094
186.54
183.003
179.485
175.991
172.528
169.1
165.717
162.387
159.124
155.948
152.889
149.991
147.327
144.962
142.993
18.0563
9.08287
7.34714
6.81248
6.67838
6.7403
6.92604
7.20518
7.56306
7.9911
8.48241
9.02984
9.62535
10.2602
10.926
11.6153
12.3232
13.0472
13.7872
14.5454
15.3251
16.1301
16.9642
17.8307
18.7323
19.6708
20.6478
21.6641
22.7206
23.8175
24.9555
26.1349
27.3561
28.6197
29.926
31.2758
32.6696
34.1081
35.5921
37.1224
38.7
40.326
42.0015
43.7278
45.5064
47.3388
49.2267
51.1716
53.1756
55.2403
57.3677
59.5598
61.8184
64.1454
66.5427
69.0122
71.5555
74.1743
76.8701
79.6444
82.4982
85.4328
88.4489
91.5474
94.7286
97.9929
101.34
104.77
108.283
111.878
115.553
119.307
123.14
127.049
131.032
135.088
139.212
143.404
147.659
151.976
156.349
160.777
165.255
169.778
174.344
178.948
183.584
188.249
192.936
197.642
202.361
207.086
211.812
216.516
221.193
225.835
230.433
234.981
239.47
243.892
248.238
252.501
256.671
260.741
264.702
268.546
272.266
275.854
279.301
282.602
285.748
288.733
291.55
294.193
296.657
298.935
301.024
302.919
304.616
306.112
307.404
308.489
309.366
310.033
310.488
310.732
310.765
310.588
310.201
309.607
308.808
307.807
306.609
305.216
303.632
301.861
299.909
297.784
295.493
293.039
290.424
287.659
284.76
281.729
278.57
275.294
271.911
268.427
264.848
261.186
257.446
253.638
249.767
245.843
241.874
237.866
233.829
229.771
225.702
221.63
217.562
213.504
209.456
205.42
201.4
197.399
193.421
189.471
185.556
181.681
177.854
174.083
170.38
166.758
163.239
159.851
156.635
153.65
150.939
148.561
19.9908
10.0248
8.05382
7.42556
7.24184
7.27023
7.42716
7.67646
8.00028
8.38836
8.83344
9.32914
9.8691
10.447
11.057
11.6944
12.3557
13.0396
13.7463
14.4774
15.2353
16.0228
16.8428
17.6978
18.5902
19.5218
20.494
21.5081
22.5652
23.6661
24.8117
26.0027
27.24
28.5242
29.856
31.2363
32.6657
34.1452
35.6757
37.2582
38.8939
40.5839
42.3298
44.133
45.9952
47.9183
49.9042
51.9549
54.0727
56.2597
58.5184
60.851
63.2599
65.7475
68.3161
70.968
73.7054
76.5303
79.4446
82.4502
85.5487
88.7415
92.0298
95.4145
98.8963
102.476
106.153
109.928
113.8
117.768
121.832
125.989
130.239
134.579
139.006
143.519
148.114
152.788
157.537
162.358
167.247
172.199
177.21
182.276
187.391
192.551
197.749
202.98
208.239
213.518
218.811
224.113
229.402
234.663
239.89
245.073
250.206
255.278
260.28
265.202
270.036
274.771
279.399
283.91
288.295
292.544
296.65
300.603
304.395
308.019
311.466
314.728
317.8
320.673
323.342
325.801
328.045
330.069
331.871
333.445
334.79
335.903
336.782
337.426
337.834
338.005
337.941
337.644
337.113
336.352
335.363
334.151
332.721
331.076
329.221
327.158
324.893
322.442
319.808
316.997
314.014
310.87
307.574
304.135
300.56
296.857
293.036
289.106
285.076
280.953
276.749
272.469
268.124
263.722
259.271
254.779
250.256
245.709
241.149
236.584
232.021
227.466
222.924
218.399
213.894
209.415
204.968
200.559
196.194
191.88
187.625
183.44
179.337
175.33
171.44
167.695
164.13
160.793
157.71
154.922
21.3947
10.744
8.59839
7.89654
7.67127
7.66959
7.79939
8.02015
8.31168
8.66267
9.06583
9.51556
10.007
10.5357
11.0978
11.6903
12.3111
12.9595
13.6356
14.3407
15.0766
15.8455
16.6497
17.4913
18.3724
19.2949
20.2605
21.2708
22.3271
23.4309
24.5832
25.7854
27.0385
28.3436
29.7017
31.1139
32.5813
34.105
35.6861
37.326
39.026
40.7877
42.6129
44.5033
46.461
48.4881
50.587
52.7602
55.0102
57.3398
59.7516
62.2487
64.8337
67.5096
70.2791
73.1451
76.1101
79.1768
82.3473
85.6241
89.0089
92.5035
96.1095
99.8279
103.66
107.605
111.665
115.839
120.126
124.526
129.037
133.657
138.385
143.218
148.153
153.187
158.316
163.536
168.843
174.234
179.702
185.243
190.852
196.524
202.252
208.03
213.852
219.711
225.6
231.511
237.437
243.366
249.265
255.128
260.947
266.713
272.417
278.047
283.593
289.044
294.389
299.618
304.72
309.686
314.504
319.165
323.66
327.979
332.113
336.053
339.791
343.319
346.63
349.716
352.569
355.185
357.558
359.684
361.559
363.181
364.545
365.65
366.495
367.077
367.397
367.456
367.254
366.793
366.077
365.106
363.881
362.414
360.707
358.766
356.596
354.202
351.591
348.774
345.758
342.55
339.158
335.591
331.86
327.973
323.94
319.77
315.473
311.059
306.537
301.917
297.209
292.422
287.566
282.649
277.681
272.67
267.627
262.559
257.477
252.388
247.302
242.226
237.166
232.127
227.115
222.137
217.199
212.308
207.471
202.698
197.996
193.377
188.853
184.441
180.16
176.036
172.1
168.39
164.919
161.719
22.392
11.2691
8.99272
8.23253
7.97242
7.94436
8.04982
8.24505
8.50817
8.82717
9.19477
9.60599
10.0571
10.5449
11.067
11.6216
12.2074
12.8242
13.4722
14.1525
14.8666
15.6163
16.4036
17.2305
18.0992
19.0117
19.9699
20.9758
22.0313
23.138
24.2978
25.5122
26.7828
28.1111
29.4986
30.9467
32.457
34.0308
35.6698
37.3756
39.1501
40.995
42.9127
44.9052
46.975
49.1248
51.3574
53.6756
56.0825
58.5813
61.1754
63.8679
66.6624
69.5621
72.5703
75.6904
78.9253
82.278
85.7514
89.3478
93.0696
96.9187
100.897
105.005
109.245
113.616
118.12
122.754
127.52
132.415
137.439
142.588
147.86
153.253
158.762
164.383
170.112
175.944
181.875
187.898
194.009
200.201
206.469
212.805
219.204
225.657
232.158
238.699
245.27
251.865
258.472
265.051
271.591
278.084
284.522
290.893
297.185
303.389
309.489
315.475
321.334
327.054
332.625
338.035
343.274
348.33
353.193
357.854
362.302
366.529
370.525
374.284
377.798
381.056
384.052
386.78
389.236
391.416
393.316
394.933
396.265
397.311
398.069
398.537
398.715
398.607
398.213
397.536
396.58
395.348
393.843
392.073
390.043
387.76
385.229
382.458
379.455
376.228
372.788
369.142
365.299
361.27
357.064
352.693
348.165
343.493
338.685
333.754
328.708
323.56
318.318
312.994
307.598
302.138
296.627
291.071
285.483
279.87
274.243
268.611
262.984
257.369
251.774
246.206
240.672
235.18
229.737
224.351
219.03
213.784
208.623
203.557
198.602
193.771
189.086
184.569
180.248
176.153
172.286
168.677
23.0321
11.6219
9.25336
8.44815
8.15921
8.1084
8.19272
8.36613
8.60555
8.89841
9.23742
9.61799
10.037
10.4923
10.9822
11.5058
12.0623
12.6519
13.2751
13.9329
14.6267
15.3582
16.1294
16.9425
17.7997
18.7033
19.6558
20.6594
21.7165
22.8294
24.0004
25.2316
26.5252
27.8831
29.3076
30.8004
32.3636
33.9993
35.7095
37.4963
39.3622
41.3094
43.3407
45.4588
47.6667
49.9675
52.3646
54.8613
57.4612
60.1681
62.9857
65.9178
68.9685
72.1414
75.4403
78.8689
82.4307
86.129
89.9666
93.9465
98.071
102.342
106.762
111.331
116.051
120.921
125.941
131.112
136.431
141.897
147.508
153.26
159.151
165.176
171.332
177.612
184.011
190.523
197.141
203.861
210.675
217.576
224.558
231.613
238.733
245.91
253.135
260.4
267.695
275.011
282.301
289.547
296.74
303.871
310.928
317.9
324.774
331.539
338.178
344.676
351.022
357.203
363.207
369.023
374.639
380.044
385.227
390.177
394.884
399.339
403.534
407.461
411.114
414.48
417.551
420.322
422.792
424.955
426.809
428.352
429.582
430.497
431.097
431.382
431.354
431.013
430.364
429.41
428.154
426.601
424.756
422.627
420.219
417.541
414.599
411.401
407.957
404.275
400.367
396.24
391.907
387.377
382.66
377.77
372.715
367.509
362.161
356.684
351.089
345.386
339.588
333.705
327.748
321.727
315.653
309.536
303.387
297.215
291.031
284.845
278.666
272.504
266.367
260.264
254.202
248.19
242.237
236.351
230.542
224.82
219.195
213.679
208.287
203.035
197.94
193.026
188.314
183.829
179.567
175.558
23.3657
11.826
9.39975
8.56181
8.24986
8.18005
8.2467
8.40233
8.62303
8.89585
9.21339
9.57122
9.96659
10.3978
10.8636
11.3637
11.8977
12.4662
13.0697
13.7095
14.3872
15.1045
15.8637
16.6671
17.5175
18.4174
19.3699
20.3778
21.444
22.5716
23.7633
25.0221
26.3507
27.7521
29.2287
30.7835
32.4191
34.1381
35.9433
37.8377
39.8242
41.9058
44.0859
46.3679
48.7554
51.2521
53.862
56.5891
59.4374
62.411
65.5142
68.7515
72.1269
75.6449
79.3095
83.1244
87.0936
91.2202
95.5074
99.958
104.574
109.358
114.31
119.432
124.724
130.186
135.816
141.614
147.577
153.703
159.988
166.429
173.022
179.761
186.642
193.656
200.796
208.054
215.424
222.899
230.471
238.132
245.874
253.689
261.568
269.502
277.482
285.497
293.539
301.553
309.514
317.412
325.238
332.979
340.624
348.158
355.569
362.848
369.975
376.927
383.695
390.268
396.633
402.779
408.693
414.364
419.78
424.932
429.808
434.4
438.699
442.698
446.389
449.763
452.813
455.536
457.926
459.981
461.699
463.077
464.116
464.814
465.172
465.191
464.873
464.222
463.24
461.933
460.305
458.362
456.11
453.557
450.71
447.577
444.168
440.491
436.555
432.371
427.95
423.302
418.439
413.371
408.111
402.67
397.06
391.293
385.382
379.338
373.173
366.899
360.528
354.072
347.542
340.949
334.305
327.619
320.903
314.168
307.424
300.682
293.952
287.244
280.567
273.932
267.346
260.819
254.361
247.981
241.689
235.495
229.412
223.452
217.629
211.959
206.46
201.151
196.053
191.185
186.538
182.14
23.4474
11.9066
9.45266
8.59362
8.2647
8.18018
8.23327
8.37578
8.58336
8.84278
9.14651
9.4901
9.87091
10.2874
10.7387
11.2247
11.7454
12.3016
12.8942
13.5246
14.1948
14.9069
15.6635
16.4674
17.3218
18.2301
19.1957
20.2224
21.3139
22.4738
23.7059
25.0139
26.4016
27.8727
29.4309
31.0798
32.823
34.6642
36.607
38.6552
40.8127
43.0833
45.4712
47.9806
50.6159
53.3815
56.2822
59.3226
62.5066
65.8386
69.3234
72.9657
76.77
80.7407
84.8817
89.1969
93.6897
98.3634
103.22
108.263
113.493
118.911
124.518
130.314
136.298
142.469
148.824
155.361
162.076
168.966
176.025
183.25
190.633
198.17
205.857
213.682
221.629
229.692
237.866
246.142
254.51
262.964
271.493
280.088
288.74
297.441
306.176
314.941
323.66
332.315
340.895
349.386
357.777
366.053
374.203
382.21
390.062
397.745
405.242
412.536
419.615
426.464
433.072
439.427
445.515
451.327
456.851
462.076
466.994
471.594
475.87
479.813
483.417
486.674
489.58
492.129
494.319
496.147
497.612
498.712
499.449
499.822
499.833
499.485
498.78
497.723
496.319
494.572
492.489
490.077
487.343
484.295
480.942
477.293
473.358
469.146
464.668
459.935
454.958
449.749
444.32
438.683
432.849
426.832
420.644
414.298
407.805
401.18
394.434
387.58
380.63
373.596
366.49
359.325
352.111
344.859
337.582
330.29
322.994
315.705
308.435
301.193
293.99
286.836
279.741
272.714
265.766
258.907
252.148
245.5
238.975
232.586
226.348
220.275
214.385
208.697
203.226
197.99
192.976
188.212
23.3343
11.8888
9.43304
8.56434
8.2255
8.13202
8.17727
8.31304
8.51486
8.76933
9.06879
9.40872
9.78645
10.2005
10.6502
11.1355
11.6568
12.2151
12.8117
13.4485
14.1279
14.8524
15.6254
16.4502
17.3308
18.2715
19.2768
20.3514
21.5
22.7272
24.0378
25.4367
26.9291
28.5199
30.2141
32.0165
33.9322
35.9658
38.1223
40.4066
42.8236
45.3782
48.0755
50.9205
53.9184
57.0745
60.3943
63.8842
67.5457
71.3826
75.4005
79.6039
83.9972
88.5841
93.3681
98.352
103.538
108.929
114.526
120.33
126.34
132.557
138.978
145.604
152.43
159.453
166.67
174.076
181.665
189.432
197.37
205.471
213.729
222.135
230.681
239.357
248.149
257.05
266.049
275.138
284.307
293.547
302.849
312.202
321.598
331.032
340.466
349.829
359.111
368.298
377.377
386.333
395.154
403.824
412.329
420.656
428.79
436.716
444.419
451.884
459.099
466.049
472.722
479.107
485.192
490.966
496.42
501.542
506.325
510.761
514.841
518.56
521.912
524.89
527.492
529.713
531.551
533.005
534.075
534.759
535.061
534.982
534.523
533.69
532.486
530.917
528.988
526.706
524.077
521.111
517.815
514.198
510.269
506.04
501.52
496.72
491.651
486.324
480.753
474.949
468.923
462.69
456.262
449.65
442.87
435.933
428.852
421.641
414.313
406.88
399.354
391.75
384.078
376.35
368.58
360.777
352.955
345.124
337.296
329.482
321.694
313.942
306.237
298.59
291.012
283.512
276.102
268.792
261.594
254.518
247.579
240.788
234.16
227.711
221.456
215.413
209.595
204.016
198.663
193.563
23.0731
11.7946
9.35994
8.49423
8.15503
8.06151
8.10834
8.24778
8.45551
8.71813
9.02791
9.38028
9.77258
10.2034
10.6722
11.1793
11.7253
12.3118
12.9406
13.6142
14.3356
15.1084
15.9367
16.8247
17.7774
18.8006
19.9004
21.0836
22.3575
23.7249
25.1932
26.7694
28.4606
30.2736
32.2151
34.2919
36.5105
38.8774
41.3989
44.0813
46.9306
49.9529
53.1539
56.5393
60.1147
63.8851
67.8557
72.0309
76.4143
81.0091
85.8188
90.8465
96.0947
101.565
107.259
113.178
119.321
125.688
132.277
139.087
146.115
153.358
160.812
168.472
176.332
184.387
192.63
201.053
209.649
218.41
227.326
236.389
245.589
254.915
264.358
273.906
283.548
293.274
303.074
312.937
322.855
332.818
342.817
352.847
362.888
372.864
382.741
392.509
402.152
411.659
421.015
430.205
439.217
448.037
456.649
465.042
473.2
481.111
488.76
496.135
503.223
510.011
516.489
522.644
528.468
533.95
539.081
543.854
548.259
552.291
555.943
559.21
562.088
564.572
566.66
568.349
569.639
570.529
571.02
571.114
570.813
570.12
569.039
567.575
565.733
563.521
560.944
558.01
554.727
551.105
547.152
542.878
538.294
533.411
528.238
522.789
517.074
511.106
504.897
498.459
491.805
484.949
477.903
470.68
463.294
455.757
448.083
440.285
432.376
424.369
416.277
408.112
399.887
391.614
383.306
374.973
366.628
358.283
349.95
341.638
333.362
325.131
316.957
308.85
300.822
292.884
285.047
277.322
269.719
262.253
254.934
247.777
240.796
234.005
227.419
221.054
214.923
209.037
203.38
197.981
22.7594
11.6635
9.26687
8.41945
8.09525
8.01808
8.08436
8.24713
8.48241
8.777
9.12332
9.51696
9.95556
10.4381
10.9645
11.5356
12.153
12.8189
13.5361
14.3082
15.1392
16.0348
17.0014
18.0413
19.1624
20.373
21.6814
23.0962
24.6263
26.2797
28.0656
29.9933
32.072
34.311
36.7194
39.3059
42.079
45.0469
48.2171
51.5969
55.193
59.0115
63.058
67.3373
71.8536
76.6104
81.6105
86.8559
92.3474
98.0856
104.07
110.3
116.773
123.487
130.44
137.627
145.043
152.685
160.546
168.62
176.9
185.378
194.048
202.901
211.928
221.12
230.467
239.961
249.59
259.346
269.216
279.191
289.261
299.414
309.639
319.927
330.268
340.65
351.063
361.504
371.957
382.428
392.887
403.261
413.507
423.622
433.591
443.402
453.042
462.497
471.756
480.805
489.632
498.224
506.569
514.654
522.468
529.999
537.235
544.164
550.775
557.058
563.004
568.602
573.845
578.723
583.23
587.359
591.103
594.458
597.418
599.98
602.14
603.897
605.248
606.194
606.734
606.869
606.602
605.935
604.872
603.416
601.574
599.35
596.752
593.787
590.461
586.785
582.766
578.415
573.741
568.754
563.465
557.887
552.029
545.903
539.523
532.899
526.045
518.973
511.696
504.226
496.577
488.761
480.792
472.683
464.446
456.095
447.643
439.102
430.485
421.805
413.074
404.304
395.508
386.697
377.883
369.079
360.294
351.543
342.835
334.182
325.596
317.089
308.67
300.352
292.146
284.063
276.114
268.314
260.672
253.204
245.923
238.843
231.978
225.343
218.949
212.805
206.896
201.251
22.4602
11.5307
9.18933
8.3816
8.09629
8.06186
8.17667
8.39475
8.69277
9.05811
9.48386
9.96644
10.5044
11.0979
11.7482
12.4576
13.2292
14.0672
14.9761
15.9621
17.0267
18.1788
19.4272
20.7803
22.2482
23.8418
25.5726
27.4524
29.4934
31.7077
34.1074
36.7048
39.5119
42.5402
45.8004
49.3026
53.0561
57.0689
61.348
65.899
70.7266
75.8337
81.2222
86.8926
92.844
99.0743
105.58
112.357
119.4
126.702
134.256
142.055
150.089
158.349
166.827
175.512
184.394
193.463
202.709
212.121
221.688
231.4
241.246
251.215
261.297
271.482
281.759
292.117
302.547
313.039
323.582
334.167
344.786
355.429
366.085
376.747
387.414
398.068
408.7
419.341
429.92
440.368
450.66
460.793
470.756
480.538
490.128
499.515
508.689
517.638
526.352
534.821
543.033
550.978
558.647
566.028
573.111
579.887
586.346
592.478
598.275
603.729
608.83
613.571
617.945
621.946
625.568
628.806
631.654
634.11
636.169
637.829
639.089
639.947
640.403
640.457
640.112
639.368
638.229
636.7
634.783
632.484
629.809