/*--------------------------------*- C++ -*----------------------------------*\
  =========                 |
  \\      /  F ield         | OpenFOAM: The Open Source CFD Toolbox
   \\    /   O peration     | Website:  https://openfoam.org
    \\  /    A nd           | Version:  12
     \\/     M anipulation  |
\*---------------------------------------------------------------------------*/
FoamFile
{
    format      ascii;
    class       volScalarField;
    location    "0.1";
    object      k;
}
// * * * * * * * * * * * * * * * * * * * * * * * * * * * * * * * * * * * * * //

dimensions      [0 2 -2 0 0 0 0];

internalField   nonuniform List<scalar> 
12225
(
0.353921
0.335043
0.316966
0.300961
0.288127
0.27891
0.273305
0.271015
0.271585
0.274499
0.279244
0.285351
0.292415
0.300102
0.308161
0.316383
0.324847
0.337169
0.436865
0.448981
0.438088
0.433069
0.438803
0.453614
0.474846
0.500052
0.527243
0.554936
0.582104
0.608086
0.632512
0.655214
0.676333
0.695771
0.71596
0.731528
0.395186
0.410873
0.41063
0.405747
0.402013
0.400929
0.402625
0.406825
0.41311
0.421022
0.430129
0.440053
0.450486
0.461193
0.472046
0.482952
0.494284
0.505351
0.379641
0.384839
0.386546
0.38573
0.383905
0.382028
0.38057
0.379744
0.379614
0.38016
0.381321
0.383016
0.385164
0.387694
0.390559
0.393735
0.397265
0.40105
0.374976
0.3759
0.376239
0.37572
0.37457
0.373083
0.371496
0.369967
0.368594
0.367428
0.366489
0.365776
0.365282
0.364991
0.364895
0.364988
0.365272
0.365716
0.373488
0.372554
0.371759
0.370806
0.36963
0.368274
0.366808
0.365299
0.363802
0.362356
0.360989
0.359713
0.358538
0.357465
0.356498
0.355635
0.35488
0.354225
0.373012
0.371296
0.369812
0.368416
0.367025
0.365609
0.364167
0.362709
0.361255
0.35982
0.358421
0.357068
0.355769
0.354528
0.353351
0.352239
0.351196
0.350229
0.372865
0.370838
0.369004
0.36731
0.36571
0.364173
0.362677
0.361214
0.35978
0.358377
0.35701
0.355682
0.354395
0.353153
0.351959
0.350814
0.349722
0.348693
0.37282
0.37068
0.368691
0.366836
0.365094
0.363447
0.361878
0.360374
0.358925
0.357527
0.356177
0.354873
0.353614
0.352401
0.351232
0.350108
0.349032
0.348015
0.372806
0.370628
0.368577
0.366647
0.364828
0.363109
0.361481
0.359932
0.358454
0.357042
0.355689
0.354391
0.353146
0.35195
0.350803
0.349703
0.34865
0.347654
0.372801
0.370609
0.368537
0.366576
0.36472
0.362963
0.361298
0.359717
0.358213
0.356781
0.355416
0.354113
0.352868
0.351677
0.350539
0.349451
0.348412
0.347432
0.372799
0.370602
0.368522
0.366549
0.36468
0.362906
0.361223
0.359625
0.358106
0.356661
0.355285
0.353974
0.352724
0.351531
0.350393
0.349308
0.348272
0.347297
0.372797
0.370599
0.368514
0.366537
0.36466
0.362879
0.361187
0.35958
0.358051
0.356597
0.355213
0.353895
0.35264
0.351443
0.350303
0.349215
0.34818
0.347205
0.372796
0.370596
0.368509
0.366528
0.364649
0.362863
0.361167
0.359554
0.35802
0.356561
0.355172
0.353849
0.352589
0.351388
0.350244
0.349154
0.348115
0.347138
0.372795
0.370593
0.368505
0.366523
0.364641
0.362853
0.361154
0.359538
0.358002
0.356539
0.355147
0.353821
0.352558
0.351355
0.350207
0.349114
0.348073
0.347093
0.372795
0.370592
0.368502
0.366518
0.364634
0.362845
0.361144
0.359527
0.357989
0.356525
0.35513
0.353803
0.352538
0.351332
0.350183
0.349088
0.348044
0.347061
0.372794
0.37059
0.368499
0.366515
0.36463
0.362839
0.361137
0.359519
0.357979
0.356514
0.355118
0.353789
0.352523
0.351316
0.350165
0.349068
0.348023
0.347039
0.372794
0.37059
0.368498
0.366512
0.364627
0.362835
0.361133
0.359513
0.357972
0.356506
0.35511
0.35378
0.352512
0.351304
0.350153
0.349054
0.348007
0.347022
0.372793
0.370589
0.368497
0.366512
0.364626
0.362834
0.361131
0.359511
0.35797
0.356503
0.355106
0.353776
0.352508
0.351299
0.350147
0.349047
0.348
0.347014
0.372794
0.37059
0.368498
0.366513
0.364628
0.362836
0.361134
0.359514
0.357974
0.356507
0.355111
0.35378
0.352513
0.351304
0.350152
0.349053
0.348005
0.347019
0.372794
0.370591
0.3685
0.366516
0.364632
0.362842
0.36114
0.359522
0.357983
0.356518
0.355123
0.353795
0.352529
0.351322
0.350171
0.349073
0.348027
0.347042
0.372795
0.370593
0.368504
0.366522
0.364642
0.362856
0.361159
0.359546
0.358013
0.356554
0.355164
0.353841
0.352581
0.351378
0.350232
0.349138
0.348095
0.347113
0.372796
0.370598
0.368518
0.366547
0.364681
0.362913
0.361235
0.359643
0.358128
0.356686
0.355313
0.354003
0.352753
0.351559
0.350419
0.349328
0.348286
0.347303
0.372804
0.370631
0.368592
0.366676
0.364872
0.363167
0.361548
0.360007
0.358533
0.357122
0.355769
0.354469
0.353221
0.352023
0.350871
0.349765
0.348705
0.347702
0.372856
0.370818
0.368973
0.367264
0.365645
0.364086
0.362568
0.361084
0.359632
0.358215
0.356834
0.355495
0.354199
0.352949
0.351747
0.350593
0.34949
0.348449
0.373166
0.37177
0.370579
0.369371
0.368049
0.366605
0.365072
0.363493
0.361906
0.360343
0.358827
0.357373
0.355992
0.35469
0.353469
0.35233
0.351273
0.350303
0.374797
0.375829
0.376175
0.375401
0.373834
0.371876
0.369792
0.36774
0.365813
0.364066
0.362523
0.361193
0.360073
0.359153
0.35842
0.357857
0.357449
0.357181
0.382729
0.391671
0.392376
0.388806
0.384385
0.380403
0.377246
0.374995
0.373617
0.373031
0.373143
0.373853
0.375067
0.376695
0.37866
0.380891
0.383328
0.385903
0.407499
0.414513
0.405422
0.39599
0.39055
0.389283
0.391442
0.396195
0.402808
0.410687
0.419384
0.428556
0.437952
0.447381
0.45671
0.465843
0.474735
0.483301
0.360554
0.347547
0.334933
0.322917
0.311964
0.302352
0.294189
0.287468
0.282111
0.277998
0.274993
0.272956
0.271752
0.271256
0.271354
0.271945
0.272942
0.274263
0.00567103
0.0192595
0.0275466
0.0342348
0.039955
0.0451103
0.0500784
0.0553382
0.0610746
0.0674511
0.0746305
0.0826862
0.091607
0.101011
0.110099
0.118502
0.125885
0.131984
0.136628
0.139735
0.141318
0.141273
0.138067
0.138556
0.139595
0.142409
0.143341
0.142111
0.14278
0.14373
0.142143
0.144759
0.151786
0.159152
0.166593
0.174067
0.181559
0.189067
0.196592
0.20414
0.211718
0.219336
0.227003
0.234731
0.242528
0.250404
0.258368
0.266428
0.274591
0.282864
0.291252
0.29976
0.308391
0.317148
0.326032
0.335046
0.344188
0.353459
0.362857
0.372381
0.382027
0.391792
0.401673
0.411665
0.421764
0.431963
0.442258
0.452641
0.463107
0.473649
0.484258
0.494929
0.505652
0.516421
0.527226
0.538059
0.548911
0.559774
0.570639
0.581496
0.592335
0.603148
0.613925
0.624655
0.635329
0.645936
0.656465
0.666906
0.677248
0.68748
0.697592
0.707576
0.717425
0.72714
0.736732
0.746229
0.755652
0.764854
0.773834
0.782588
0.791108
0.799384
0.807402
0.815152
0.822621
0.829797
0.83667
0.843228
0.84946
0.855357
0.860908
0.866105
0.870938
0.875401
0.879485
0.883184
0.886492
0.889403
0.891913
0.894019
0.895716
0.897004
0.89788
0.898344
0.898397
0.898039
0.897274
0.896105
0.894535
0.892569
0.890213
0.887474
0.884359
0.880876
0.877034
0.872843
0.868313
0.863454
0.858279
0.852797
0.847022
0.840965
0.834638
0.828054
0.821225
0.814163
0.80688
0.799388
0.791697
0.783819
0.775764
0.767542
0.759163
0.750632
0.741967
0.733159
0.72424
0.715187
0.706062
0.697079
0.690225
0.686691
0.683505
0.680319
0.677094
0.673816
0.670475
0.667065
0.663578
0.660003
0.656327
0.652532
0.648591
0.644463
0.640078
0.63531
0.62988
0.62314
0.613105
0.595423
0.0101547
0.0298266
0.0422134
0.0515016
0.0593019
0.0663849
0.0732886
0.0801997
0.0873816
0.0951294
0.10371
0.112991
0.122888
0.133156
0.143432
0.153381
0.162726
0.171281
0.178968
0.185848
0.192127
0.198119
0.20453
0.211135
0.218101
0.225304
0.233232
0.241471
0.250933
0.262401
0.27406
0.286882
0.299324
0.311426
0.323661
0.336062
0.348599
0.361251
0.374008
0.386869
0.399837
0.41292
0.42613
0.439478
0.452977
0.466641
0.480482
0.494514
0.508749
0.523197
0.537868
0.552773
0.567918
0.58331
0.598956
0.614859
0.631023
0.647449
0.664139
0.681092
0.698308
0.715784
0.733516
0.7515
0.769732
0.788205
0.806912
0.825845
0.844997
0.864357
0.883917
0.903665
0.92359
0.943682
0.963927
0.984314
1.00483
1.02546
1.04619
1.067
1.08789
1.10883
1.12982
1.15082
1.17184
1.19285
1.21383
1.23478
1.25566
1.27646
1.29717
1.31775
1.33821
1.3585
1.37861
1.39851
1.41793
1.43705
1.45588
1.4744
1.49259
1.51044
1.52791
1.54499
1.56165
1.57787
1.59361
1.60887
1.62362
1.63783
1.65148
1.66456
1.67705
1.68892
1.70015
1.71073
1.72065
1.72989
1.73843
1.74626
1.75338
1.75977
1.76542
1.77033
1.77449
1.77789
1.78055
1.78245
1.7836
1.784
1.78366
1.78259
1.78078
1.77826
1.77504
1.77112
1.76653
1.76128
1.75539
1.74887
1.74175
1.73405
1.72579
1.71698
1.70766
1.69785
1.68756
1.67682
1.66565
1.65408
1.64212
1.6298
1.61713
1.60412
1.59082
1.5772
1.56333
1.54917
1.53482
1.52054
1.50662
1.49309
1.47951
1.46578
1.45191
1.43788
1.4237
1.40937
1.39489
1.38026
1.36549
1.35055
1.33546
1.32019
1.30471
1.28899
1.2729
1.25648
1.23853
1.21656
0.0169426
0.0427974
0.0583452
0.069775
0.0793547
0.088113
0.0964947
0.104764
0.113229
0.12219
0.131839
0.142222
0.153255
0.164743
0.176418
0.188016
0.199319
0.210202
0.220641
0.230729
0.240646
0.25061
0.260837
0.271413
0.282488
0.29417
0.306551
0.319643
0.333526
0.348191
0.363397
0.379005
0.394731
0.410523
0.426448
0.442526
0.458747
0.475102
0.491589
0.508209
0.524971
0.541884
0.558962
0.57622
0.593674
0.611339
0.629231
0.647365
0.665754
0.684413
0.703352
0.722582
0.742113
0.761951
0.782103
0.802574
0.823368
0.844485
0.865927
0.887692
0.909779
0.932184
0.954902
0.977928
1.00126
1.02487
1.04878
1.07296
1.0974
1.12209
1.14702
1.17217
1.19754
1.2231
1.24884
1.27475
1.3008
1.32699
1.35329
1.37968
1.40615
1.43268
1.45925
1.48584
1.51243
1.53899
1.56551
1.59197
1.61835
1.64462
1.67076
1.69676
1.72259
1.74824
1.77368
1.79877
1.82351
1.8479
1.87193
1.89558
1.91881
1.9416
1.96392
1.98573
2.00702
2.02773
2.04786
2.06735
2.0862
2.10437
2.12182
2.13854
2.1545
2.16968
2.18404
2.19758
2.21026
2.22207
2.23299
2.243
2.25209
2.26025
2.26745
2.27371
2.279
2.28332
2.28668
2.28906
2.29047
2.29091
2.29039
2.28891
2.2865
2.28315
2.27888
2.27371
2.26766
2.26075
2.253
2.24442
2.23506
2.22493
2.21407
2.20249
2.19023
2.17732
2.16379
2.14966
2.13496
2.11974
2.104
2.08778
2.07113
2.05401
2.03654
2.01865
2.00046
1.98204
1.96344
1.94478
1.92622
1.90771
1.88908
1.87027
1.85129
1.83214
1.81283
1.79336
1.77374
1.75398
1.73408
1.71407
1.69393
1.67369
1.65336
1.63298
1.6126
1.59249
1.57247
1.55311
0.0254113
0.0575311
0.0759915
0.089336
0.100429
0.110367
0.119663
0.128801
0.138141
0.147953
0.15841
0.169573
0.181386
0.193693
0.206284
0.218944
0.231504
0.243873
0.256055
0.268143
0.280292
0.29268
0.30547
0.318787
0.332725
0.347351
0.362688
0.378718
0.395395
0.412645
0.430353
0.448397
0.46666
0.485085
0.503662
0.522388
0.541263
0.560287
0.579464
0.598802
0.618312
0.638006
0.6579
0.67801
0.698353
0.718946
0.739805
0.760946
0.782386
0.804137
0.826213
0.848625
0.871385
0.894499
0.917976
0.941822
0.966039
0.990632
1.0156
1.04094
1.06666
1.09275
1.1192
1.14601
1.17317
1.20068
1.22851
1.25667
1.28514
1.3139
1.34295
1.37226
1.40181
1.43161
1.46161
1.49181
1.52219
1.55272
1.58339
1.61417
1.64505
1.676
1.70699
1.73801
1.76904
1.80004
1.83099
1.86188
1.89268
1.92336
1.95389
1.98427
2.01445
2.04442
2.07414
2.10347
2.13242
2.16097
2.18911
2.21679
2.24399
2.27067
2.2968
2.32233
2.34724
2.37148
2.39502
2.41783
2.43987
2.46111
2.48152
2.50106
2.5197
2.53742
2.55418
2.56996
2.58474
2.59849
2.6112
2.62283
2.63337
2.64282
2.65114
2.65834
2.6644
2.66931
2.67307
2.67569
2.67715
2.67747
2.67664
2.67468
2.6716
2.66741
2.66213
2.65577
2.64836
2.63992
2.63048
2.62005
2.60868
2.59639
2.58321
2.56918
2.55432
2.53868
2.5223
2.5052
2.48741
2.469
2.44997
2.43036
2.41025
2.38956
2.36848
2.34702
2.32521
2.30312
2.28079
2.25832
2.23581
2.21322
2.19046
2.16753
2.14442
2.12114
2.0977
2.07413
2.05044
2.02664
2.00275
1.9788
1.95482
1.93083
1.90691
1.88317
1.85979
1.83721
1.81568
1.7962
0.0352423
0.0730539
0.09394
0.108931
0.12126
0.132053
0.142097
0.151906
0.161847
0.172187
0.183097
0.194647
0.206808
0.219472
0.232485
0.245693
0.258982
0.272303
0.285682
0.299211
0.31302
0.327249
0.342018
0.357413
0.373485
0.390254
0.407703
0.425789
0.444449
0.463606
0.483179
0.503086
0.523256
0.543644
0.564226
0.584993
0.605942
0.627073
0.648393
0.669911
0.691637
0.713586
0.735773
0.758215
0.780928
0.80393
0.827239
0.850871
0.874842
0.899168
0.923863
0.94894
0.974411
1.00029
1.02657
1.05328
1.08041
1.10797
1.13597
1.16439
1.19324
1.22252
1.25223
1.28235
1.31287
1.3438
1.37512
1.40681
1.43887
1.47128
1.50401
1.53706
1.57041
1.60404
1.63792
1.67204
1.70637
1.74089
1.77558
1.81041
1.84535
1.88039
1.91549
1.95063
1.98579
2.02093
2.05603
2.09106
2.12599
2.1608
2.19546
2.22994
2.2642
2.29824
2.33191
2.36518
2.39803
2.43043
2.46236
2.49378
2.52464
2.55491
2.58455
2.61351
2.64176
2.66925
2.69593
2.72179
2.74676
2.77082
2.79393
2.81604
2.83714
2.85718
2.87612
2.89395
2.91063
2.92614
2.94045
2.95354
2.96538
2.97597
2.98528
2.9933
3.00002
3.00543
3.00952
3.0123
3.01376
3.0139
3.01274
3.01027
3.00652
3.00149
2.9952
2.98768
2.97894
2.96902
2.95793
2.94571
2.9324
2.91802
2.90262
2.88622
2.86887
2.85061
2.83149
2.81154
2.79078
2.76931
2.74713
2.72424
2.70083
2.67685
2.6524
2.6275
2.6022
2.57655
2.55063
2.5245
2.49822
2.47179
2.44517
2.41837
2.3914
2.36428
2.33702
2.30966
2.28222
2.25472
2.22721
2.1997
2.17226
2.14496
2.11789
2.09124
2.06527
2.04051
2.01733
1.99658
0.045227
0.0876306
0.111007
0.127589
0.140888
0.152459
0.163131
0.173439
0.18376
0.194366
0.205437
0.217063
0.229254
0.241955
0.255077
0.268528
0.282246
0.296216
0.310473
0.325094
0.340175
0.35581
0.372074
0.389015
0.406649
0.424965
0.443932
0.463499
0.483607
0.50419
0.525186
0.546536
0.568192
0.590117
0.61229
0.634698
0.657335
0.680203
0.703306
0.726652
0.750251
0.774117
0.798265
0.82271
0.84747
0.872562
0.898004
0.923814
0.950009
0.976606
1.00362
1.03107
1.05896
1.08731
1.11612
1.14542
1.17519
1.20546
1.23622
1.26747
1.29922
1.33146
1.36419
1.3974
1.43109
1.46524
1.49984
1.53489
1.57036
1.60624
1.64251
1.67916
1.71616
1.75349
1.79112
1.82904
1.86721
1.90562
1.94422
1.98301
2.02194
2.06098
2.10012
2.13931
2.17854
2.21775
2.25693
2.29605
2.33506
2.37395
2.41266
2.45118
2.48946
2.52747
2.56504
2.60218
2.63885
2.67502
2.71066
2.74572
2.78016
2.81394
2.84699
2.87929
2.91079
2.94143
2.97117
2.99997
3.02779
3.05457
3.08029
3.10489
3.12835
3.15061
3.17166
3.19145
3.20994
3.22712
3.24296
3.25743
3.2705
3.28216
3.29238
3.30116
3.30848
3.31433
3.31871
3.3216
3.32301
3.32295
3.32141
3.31842
3.31397
3.30808
3.30078
3.29208
3.28201
3.2706
3.25788
3.24387
3.22862
3.21216
3.19455
3.17581
3.15598
3.13512
3.11329
3.09051
3.06677
3.04228
3.01701
2.99101
2.96436
2.93709
2.90926
2.88093
2.85215
2.82296
2.79345
2.76366
2.73366
2.70345
2.67305
2.64247
2.61173
2.58085
2.54988
2.51884
2.48777
2.45671
2.4257
2.3948
2.36408
2.33364
2.30361
2.27422
2.24579
2.21885
2.19376
2.17112
0.054457
0.100947
0.12649
0.144319
0.158577
0.170885
0.182111
0.192809
0.203371
0.214083
0.225142
0.23667
0.248722
0.261298
0.274369
0.2879
0.301869
0.316281
0.331169
0.346586
0.362595
0.379248
0.396585
0.414622
0.433355
0.452759
0.472798
0.493424
0.514586
0.53623
0.558309
0.580778
0.603601
0.626749
0.650202
0.673948
0.697981
0.7223
0.746909
0.771813
0.797023
0.82255
0.848409
0.874614
0.901183
0.928133
0.955482
0.98325
1.01145
1.04011
1.06924
1.09886
1.12898
1.15962
1.19079
1.2225
1.25476
1.28758
1.32096
1.3549
1.38941
1.42449
1.46013
1.49632
1.53306
1.57035
1.60816
1.64648
1.6853
1.7246
1.76436
1.80455
1.84517
1.88617
1.92753
1.96923
2.01123
2.05352
2.09604
2.13878
2.1817
2.22477
2.26795
2.31121
2.35451
2.39782
2.4411
2.48431
2.52742
2.57039
2.61318
2.65575
2.69806
2.74
2.78148
2.82247
2.86295
2.90288
2.94221
2.98089
3.01888
3.05612
3.09256
3.12816
3.16286
3.1966
3.22935
3.26105
3.29164
3.3211
3.34936
3.37639
3.40214
3.42658
3.44965
3.47132
3.49157
3.51036
3.52765
3.54343
3.55766
3.57033
3.58141
3.59089
3.59875
3.60499
3.60958
3.61255
3.61387
3.61355
3.6116
3.60803
3.60286
3.59609
3.58774
3.57784
3.56642
3.5535
3.53913
3.52333
3.50613
3.48758
3.46775
3.44667
3.42435
3.40086
3.37632
3.35075
3.32416
3.29668
3.26834
3.23918
3.20929
3.17871
3.1475
3.11572
3.08343
3.05068
3.01755
2.9841
2.95038
2.91642
2.88226
2.84792
2.81343
2.77884
2.74418
2.7095
2.67486
2.64029
2.60586
2.57164
2.53772
2.50423
2.47132
2.43925
2.40836
2.37915
2.35191
2.32702
0.0626295
0.112358
0.139559
0.158614
0.173801
0.186812
0.19855
0.209588
0.220334
0.231089
0.242077
0.253451
0.265311
0.277706
0.29066
0.30418
0.318272
0.332954
0.34825
0.364194
0.380818
0.398146
0.416192
0.434952
0.45441
0.474538
0.4953
0.516654
0.538558
0.56097
0.583852
0.60717
0.630896
0.655006
0.679483
0.704317
0.729501
0.755034
0.780917
0.807155
0.833758
0.860734
0.888099
0.915866
0.944052
0.972676
1.00175
1.03131
1.06136
1.09192
1.12302
1.15467
1.18689
1.21969
1.25309
1.28711
1.32175
1.35702
1.39293
1.42948
1.46669
1.50453
1.54303
1.58216
1.62192
1.6623
1.70328
1.74487
1.78702
1.82973
1.87298
1.91673
1.96096
2.00565
2.05076
2.09627
2.14213
2.18832
2.23479
2.28152
2.32846
2.37558
2.42284
2.4702
2.51761
2.56504
2.61245
2.65979
2.70702
2.7541
2.80099
2.84763
2.89397
2.93984
2.98522
3.03006
3.07433
3.11799
3.16099
3.20326
3.24476
3.28543
3.32522
3.36406
3.4019
3.43869
3.47437
3.5089
3.5422
3.57425
3.60498
3.63435
3.66231
3.68882
3.71384
3.73731
3.75922
3.77951
3.79818
3.81517
3.83048
3.84407
3.85592
3.86602
3.87435
3.88089
3.88564
3.88861
3.88977
3.88915
3.88673
3.88254
3.87659
3.8689
3.85947
3.84834
3.83553
3.82109
3.80506
3.78745
3.76828
3.74763
3.72558
3.70216
3.67741
3.65139
3.62417
3.59582
3.56637
3.53591
3.50449
3.47218
3.43905
3.40515
3.37055
3.33532
3.29951
3.2632
3.22646
3.18934
3.15191
3.11421
3.07631
3.03822
3.00001
2.96173
2.92342
2.88514
2.84695
2.80891
2.7711
2.73361
2.69654
2.66004
2.62429
2.58956
2.55618
2.5246
2.49501
2.46766
0.0693099
0.121357
0.150083
0.170253
0.186295
0.199962
0.212181
0.223544
0.23447
0.245277
0.256207
0.267447
0.279129
0.291347
0.304162
0.317612
0.331725
0.346525
0.36203
0.37826
0.395227
0.412937
0.431386
0.45056
0.47044
0.490996
0.512197
0.534009
0.556397
0.579329
0.602775
0.62671
0.65111
0.675958
0.701239
0.726944
0.753067
0.779606
0.806562
0.83394
0.861747
0.889992
0.918689
0.947852
0.977498
1.00765
1.03831
1.06952
1.10129
1.13364
1.1666
1.20017
1.23439
1.26928
1.30483
1.34109
1.37804
1.41572
1.45411
1.49324
1.5331
1.5737
1.61503
1.65708
1.69985
1.74333
1.7875
1.83235
1.87786
1.92401
1.97076
2.01809
2.06598
2.11439
2.16329
2.21263
2.26239
2.31251
2.36297
2.41372
2.46472
2.51592
2.56728
2.61875
2.6703
2.72187
2.77342
2.82489
2.87625
2.92744
2.97842
3.02913
3.07942
3.1292
3.17844
3.22709
3.27511
3.32244
3.36904
3.41483
3.45977
3.50378
3.54681
3.5888
3.62969
3.66941
3.70791
3.74514
3.78103
3.81554
3.84861
3.8802
3.91024
3.93869
3.96551
3.99065
4.01407
4.03575
4.05565
4.07374
4.08999
4.10438
4.11689
4.12749
4.13617
4.14292
4.14773
4.1506
4.15153
4.15051
4.14756
4.14268
4.1359
4.12723
4.11669
4.10429
4.09006
4.07407
4.05635
4.03694
4.01585
3.99316
3.96893
3.94321
3.91605
3.8875
3.85765
3.82654
3.79425
3.76084
3.72639
3.69095
3.6546
3.61742
3.57946
3.5408
3.5015
3.46165
3.42131
3.38056
3.33945
3.29807
3.25646
3.21468
3.17279
3.13086
3.08893
3.04709
3.00541
2.96395
2.92282
2.88211
2.84194
2.80247
2.76391
2.72652
2.69062
2.65659
2.62453
2.59461
0.0741632
0.12817
0.158143
0.179248
0.196029
0.21028
0.222947
0.23463
0.245754
0.256649
0.267572
0.278729
0.290282
0.302352
0.315026
0.328367
0.342418
0.357208
0.372754
0.389067
0.406148
0.423994
0.442594
0.46193
0.481981
0.502722
0.524126
0.546168
0.56882
0.592058
0.61586
0.640207
0.665082
0.69047
0.71636
0.742746
0.769623
0.796988
0.824843
0.853192
0.882042
0.911404
0.941289
0.971713
1.00269
1.03424
1.06639
1.09915
1.13255
1.16661
1.20135
1.23679
1.27296
1.30988
1.34756
1.38602
1.42527
1.46533
1.5062
1.5479
1.59043
1.63378
1.67796
1.72296
1.76877
1.81538
1.86277
1.91092
1.95981
2.00943
2.05973
2.11068
2.16226
2.21443
2.26714
2.32036
2.37403
2.42812
2.48258
2.53737
2.59242
2.64771
2.70317
2.75875
2.81441
2.87009
2.92575
2.98133
3.03677
3.09202
3.14702
3.20171
3.25586
3.30945
3.36244
3.41479
3.46644
3.51733
3.5674
3.61657
3.66479
3.71199
3.7581
3.80307
3.84682
3.88929
3.93043
3.97017
4.00846
4.04524
4.08045
4.11405
4.14597
4.17617
4.2046
4.23121
4.25596
4.27883
4.29978
4.31878
4.3358
4.35083
4.36383
4.37478
4.38367
4.39048
4.39522
4.39787
4.39845
4.39694
4.39336
4.38771
4.38003
4.37033
4.35862
4.34494
4.3293
4.31178
4.29239
4.27119
4.2482
4.22349
4.19712
4.16914
4.1396
4.10858
4.07614
4.04234
4.00726
3.97097
3.93354
3.89504
3.85555
3.81514
3.77389
3.73187
3.68916
3.64584
3.60198
3.55766
3.51297
3.46797
3.42274
3.37735
3.33186
3.28635
3.2409
3.19557
3.15047
3.10567
3.06128
3.01742
2.97422
2.93185
2.89053
2.8505
2.81207
2.77555
2.74097
2.70845
0.07761
0.133033
0.163934
0.185764
0.203143
0.217888
0.230955
0.242943
0.254282
0.265303
0.276272
0.287407
0.298884
0.310841
0.323385
0.336593
0.350518
0.365196
0.380647
0.396879
0.413891
0.431676
0.450222
0.469513
0.48953
0.510253
0.531664
0.553742
0.57647
0.59983
0.623807
0.648388
0.673562
0.699319
0.725651
0.752554
0.780025
0.808064
0.836672
0.865855
0.89562
0.925977
0.95694
0.988524
1.02074
1.05362
1.08718
1.12144
1.15642
1.19215
1.22865
1.26594
1.30405
1.343
1.3828
1.42349
1.46506
1.50753
1.55092
1.59524
1.64047
1.68663
1.73371
1.78171
1.83061
1.88039
1.93105
1.98256
2.03489
2.08802
2.14191
2.19652
2.25183
2.30778
2.36433
2.42143
2.47903
2.53708
2.59553
2.65432
2.71341
2.77273
2.83223
2.89186
2.95156
3.01127
3.07094
3.13052
3.18993
3.24913
3.30805
3.36646
3.42429
3.48152
3.53808
3.59393
3.649
3.70323
3.75655
3.80887
3.86013
3.91026
3.9592
4.00687
4.05322
4.09818
4.14167
4.18365
4.22405
4.26281
4.29988
4.33521
4.36875
4.40044
4.4302
4.45801
4.48384
4.50764
4.52939
4.54906
4.56663
4.58206
4.59535
4.60646
4.61536
4.62206
4.62656
4.62885
4.62894
4.62682
4.62251
4.61603
4.60738
4.59659
4.58369
4.56869
4.55164
4.53257
4.51153
4.48856
4.46371
4.43702
4.40855
4.37837
4.34654
4.31311
4.27817
4.24177
4.204
4.16492
4.12462
4.08316
4.04064
3.99712
3.9527
3.90744
3.86143
3.81476
3.7675
3.71975
3.6716
3.62312
3.5744
3.52552
3.47655
3.4276
3.37873
3.33005
3.28164
3.23362
3.18609
3.13918
3.09305
3.04787
3.00385
2.96124
2.92031
2.88133
2.84424
2.80916
0.0798196
0.136179
0.16771
0.190058
0.207883
0.223018
0.236418
0.248682
0.260235
0.271407
0.282463
0.293624
0.305071
0.316951
0.329379
0.34244
0.356197
0.370692
0.385947
0.401974
0.418776
0.436347
0.454679
0.473761
0.493579
0.514122
0.535376
0.557332
0.579977
0.603304
0.627305
0.651972
0.677299
0.703283
0.729921
0.75721
0.785151
0.813746
0.842999
0.872917
0.903509
0.934785
0.96676
0.99945
1.03287
1.06705
1.102
1.13775
1.17432
1.21174
1.25003
1.28922
1.32932
1.37036
1.41236
1.45534
1.49931
1.54429
1.59028
1.63729
1.68533
1.73439
1.78446
1.83554
1.88761
1.94066
1.99466
2.04959
2.10542
2.16211
2.21962
2.27793
2.33697
2.39671
2.4571
2.51806
2.57956
2.64152
2.70389
2.76661
2.82962
2.89287
2.95629
3.01982
3.0834
3.14697
3.21048
3.27385
3.33704
3.39997
3.46242
3.52429
3.58554
3.64611
3.70594
3.76497
3.82314
3.88038
3.93661
3.99173
4.04567
4.09836
4.14975
4.19976
4.24832
4.29537
4.34085
4.38468
4.42681
4.46718
4.50573
4.54243
4.57723
4.61004
4.64079
4.66946
4.69602
4.72044
4.74268
4.76272
4.78054
4.7961
4.8094
4.82042
4.82912
4.83551
4.83959
4.84136
4.84082
4.83797
4.83282
4.8254
4.81571
4.80378
4.78963
4.7733
4.75481
4.73421
4.71154
4.68684
4.66015
4.63154
4.60106
4.56877
4.53473
4.49901
4.46168
4.42281
4.38248
4.34076
4.29773
4.25348
4.20808
4.16162
4.11418
4.06586
4.01672
3.96688
3.91641
3.86541
3.81397
3.76219
3.71016
3.65798
3.60572
3.55349
3.50139
3.44952
3.39798
3.34689
3.29638
3.24658
3.19766
3.14979
3.1032
3.05811
3.01476
2.97339
2.93388
2.89634
0.0809669
0.137859
0.169758
0.192428
0.210551
0.225963
0.239618
0.25211
0.263856
0.275181
0.286345
0.297564
0.309015
0.320846
0.333174
0.346087
0.359654
0.37392
0.388915
0.404655
0.421149
0.438398
0.4564
0.475152
0.494649
0.514886
0.535862
0.557572
0.580017
0.603194
0.627103
0.651745
0.677121
0.703232
0.730081
0.757671
0.786007
0.815093
0.844937
0.875548
0.906937
0.939117
0.972104
1.00592
1.04057
1.07609
1.1125
1.14982
1.18807
1.22728
1.26747
1.30867
1.3509
1.39417
1.43851
1.48394
1.53046
1.5781
1.62685
1.67671
1.7277
1.7798
1.833
1.88729
1.94265
1.99906
2.05649
2.11491
2.17429
2.23458
2.29574
2.35773
2.4205
2.484
2.54816
2.61292
2.6782
2.74394
2.81009
2.87656
2.94331
3.01027
3.07736
3.14454
3.21173
3.27888
3.34591
3.41277
3.4794
3.54556
3.61113
3.67606
3.74029
3.80376
3.86641
3.92816
3.98895
4.04873
4.1074
4.16481
4.22093
4.27569
4.32902
4.38085
4.43112
4.47976
4.5267
4.57189
4.61525
4.65674
4.6963
4.73388
4.76943
4.80288
4.83419
4.86331
4.89021
4.91487
4.93724
4.95732
4.97506
4.99046
5.00349
5.01414
5.0224
5.02826
5.03171
5.03277
5.03142
5.02769
5.02159
5.01312
5.0023
4.98917
4.97374
4.95604
4.93611
4.91399
4.88972
4.86333
4.83489
4.80444
4.77205
4.73776
4.70165
4.66377
4.62421
4.58304
4.54032
4.49615
4.45059
4.40374
4.35568
4.30649
4.25627
4.2051
4.15308
4.10029
4.04684
3.99283
3.93836
3.88352
3.82843
3.77317
3.71786
3.6626
3.60749
3.55265
3.49821
3.44427
3.39099
3.3385
3.28698
3.23662
3.18761
3.1402
3.09458
3.05095
3.00918
2.96934
0.0812412
0.138336
0.170376
0.193193
0.211469
0.227043
0.240864
0.253519
0.265421
0.276882
0.288155
0.299444
0.310921
0.322727
0.334973
0.347749
0.361124
0.375147
0.389852
0.405265
0.421399
0.438265
0.455871
0.474222
0.493323
0.513182
0.533805
0.555201
0.577376
0.600339
0.624098
0.648662
0.674041
0.700243
0.727277
0.755154
0.783882
0.813471
0.843935
0.875284
0.907533
0.940698
0.974796
1.00985
1.04587
1.08289
1.12093
1.16001
1.20015
1.24137
1.2837
1.32715
1.37174
1.41749
1.46443
1.51256
1.56188
1.61242
1.66416
1.7171
1.77125
1.82658
1.88309
1.94074
1.99953
2.05941
2.12036
2.18233
2.24529
2.30918
2.37396
2.43957
2.50597
2.57309
2.6409
2.70929
2.77814
2.84742
2.91705
2.98697
3.05711
3.12742
3.19781
3.26822
3.33859
3.40885
3.47894
3.5488
3.61817
3.68695
3.75506
3.82246
3.88907
3.95481
4.01963
4.08344
4.14618
4.20777
4.26813
4.32716
4.38479
4.44095
4.49557
4.54858
4.59992
4.64952
4.69732
4.74325
4.78726
4.82928
4.86927
4.90718
4.94296
4.97655
5.00791
5.037
5.06378
5.08824
5.11033
5.13003
5.14733
5.16221
5.17465
5.18464
5.19217
5.19723
5.19983
5.19997
5.19765
5.19288
5.18568
5.17606
5.16404
5.14964
5.13289
5.11382
5.09246
5.06885
5.04303
5.01504
4.98494
4.95277
4.91859
4.88246
4.84444
4.8046
4.76301
4.71974
4.67487
4.62847
4.58064
4.53145
4.48099
4.42935
4.37662
4.32289
4.26826
4.21283
4.1567
4.09998
4.04277
3.98518
3.92732
3.8693
3.81123
3.75323
3.69542
3.63791
3.58083
3.52433
3.46854
3.41363
3.35977
3.30714
3.25595
3.20641
3.15873
3.11305
3.06923
3.02732
0.0808402
0.137866
0.169851
0.192657
0.210953
0.226574
0.240467
0.253215
0.265221
0.276789
0.288158
0.299521
0.311037
0.322836
0.335026
0.347689
0.360893
0.37469
0.389119
0.40421
0.419986
0.436468
0.453673
0.471617
0.490317
0.509793
0.530064
0.551151
0.573074
0.595846
0.619484
0.644011
0.669445
0.695805
0.723109
0.751374
0.780617
0.810854
0.842102
0.874378
0.907699
0.942084
0.977553
1.01412
1.05182
1.09066
1.13068
1.1719
1.21432
1.25794
1.30279
1.34888
1.39624
1.44488
1.4948
1.546
1.59849
1.65227
1.70732
1.76364
1.82122
1.88002
1.94003
2.00121
2.06354
2.12698
2.19148
2.25699
2.32347
2.39087
2.45912
2.52816
2.59793
2.66838
2.73942
2.81098
2.88297
2.95531
3.02794
3.10078
3.17377
3.24683
3.3199
3.39292
3.46581
3.53853
3.61095
3.68283
3.75411
3.82471
3.89457
3.9636
4.03175
4.09892
4.16505
4.23008
4.29391
4.35648
4.41771
4.47751
4.53582
4.59255
4.64765
4.70105
4.75267
4.80246
4.85036
4.8963
4.94024
4.98211
5.02187
5.05946
5.09485
5.12798
5.15882
5.18733
5.21347
5.23723
5.25856
5.27747
5.29391
5.30789
5.31938
5.32839
5.33489
5.33889
5.3404
5.33941
5.33593
5.32997
5.32155
5.31068
5.29739
5.28169
5.2636
5.24317
5.22042
5.19539
5.16811
5.13864
5.10701
5.07327
5.03749
4.99971
4.96001
4.91843
4.87506
4.82996
4.78321
4.73489
4.68508
4.63386
4.58133
4.52757
4.47267
4.41673
4.35986
4.30214
4.2437
4.18463
4.12505
4.06507
4.00482
3.9444
3.88394
3.82356
3.76339
3.70356
3.64421
3.58547
3.52752
3.4705
3.4146
3.36
3.30692
3.25554
3.20606
3.1586
3.113
3.06932
0.0799223
0.136649
0.168404
0.191053
0.209242
0.224802
0.238678
0.251448
0.263508
0.275151
0.286601
0.298039
0.30961
0.321432
0.333602
0.346197
0.359282
0.372909
0.387122
0.401955
0.417442
0.433614
0.450497
0.468118
0.486506
0.505697
0.525729
0.546642
0.568485
0.591239
0.614947
0.639648
0.665375
0.692161
0.720035
0.749021
0.779147
0.810436
0.842909
0.876589
0.911495
0.947648
0.985067
1.02377
1.06377
1.10509
1.14775
1.19174
1.23709
1.28379
1.33185
1.38127
1.43206
1.48421
1.53773
1.59259
1.64878
1.7063
1.76512
1.82521
1.88655
1.9491
2.01282
2.07769
2.14365
2.21065
2.27865
2.34759
2.4174
2.48804
2.55944
2.63152
2.70423
2.77749
2.85122
2.92536
2.99982
3.07452
3.14939
3.22436
3.29936
3.37432
3.44918
3.52389
3.59836
3.67238
3.74584
3.81866
3.89077
3.96211
4.03258
4.10213
4.17068
4.23816
4.30449
4.3696
4.43342
4.49588
4.5569
4.61641
4.67433
4.73061
4.78517
4.83796
4.8889
4.93794
4.98502
5.03009
5.07309
5.11397
5.1527
5.18921
5.22347
5.25544
5.28508
5.31237
5.33726
5.35975
5.37979
5.39738
5.4125
5.42514
5.43529
5.44294
5.44808
5.45073
5.45087
5.44852
5.44369
5.43638
5.4266
5.41439
5.39975
5.3827
5.36328
5.3415
5.31741
5.29103
5.2624
5.23156
5.19856
5.16344
5.12625
5.08705
5.0459
5.00285
4.95797
4.91134
4.86303
4.8131
4.76165
4.70875
4.6545
4.59899
4.5423
4.48453
4.4258
4.36619
4.30582
4.24481
4.18326
4.12131
4.05906
3.99666
3.93421
3.87186
3.80974
3.74798
3.68674
3.62616
3.56641
3.50766
3.45008
3.39387
3.33922
3.28633
3.23537
3.18646
3.13941
3.09431
0.078833
0.13505
0.166408
0.188757
0.206715
0.222109
0.235881
0.248606
0.260672
0.27236
0.283882
0.295406
0.307063
0.318962
0.331191
0.343822
0.356919
0.370532
0.38471
0.399495
0.414923
0.431047
0.447917
0.465521
0.48392
0.503172
0.523332
0.544453
0.566587
0.589771
0.614055
0.639486
0.66611
0.69397
0.723106
0.753554
0.785346
0.818512
0.853076
0.889061
0.926486
0.965365
1.00571
1.04753
1.09083
1.13562
1.18189
1.22963
1.27884
1.32951
1.38161
1.43514
1.49007
1.54638
1.60405
1.66304
1.72333
1.78487
1.84764
1.91159
1.97668
2.04287
2.1101
2.17833
2.24751
2.31757
2.38846
2.46013
2.53251
2.60553
2.67914
2.75326
2.82783
2.90278
2.97804
3.05354
3.12919
3.20494
3.28071
3.35644
3.43206
3.50753
3.58276
3.65756
3.73182
3.80548
3.87847
3.95072
4.02217
4.09273
4.16234
4.23093
4.29844
4.36478
4.4299
4.49373
4.55619
4.61723