/*--------------------------------*- C++ -*----------------------------------*\
  =========                 |
  \\      /  F ield         | OpenFOAM: The Open Source CFD Toolbox
   \\    /   O peration     | Website:  https://openfoam.org
    \\  /    A nd           | Version:  12
     \\/     M anipulation  |
\*---------------------------------------------------------------------------*/
FoamFile
{
    format      ascii;
    class       volScalarField;
    location    "0.1";
    object      nut;
}
// * * * * * * * * * * * * * * * * * * * * * * * * * * * * * * * * * * * * * //

dimensions      [0 2 -1 0 0 0 0];

internalField   nonuniform List<scalar> 
12225
(
4.04768e-05
3.83178e-05
3.62504e-05
3.442e-05
3.29521e-05
3.18981e-05
3.1257e-05
3.09951e-05
3.10603e-05
3.13936e-05
3.19362e-05
3.26346e-05
3.34425e-05
3.43216e-05
3.52432e-05
3.61834e-05
3.71514e-05
3.85603e-05
0.000281047
0.000209264
0.000176264
0.000157436
0.000146268
0.000139683
0.000135789
0.000133426
0.000131912
0.000130855
0.00013004
0.000129354
0.000128737
0.00012816
0.000127624
0.00012708
0.000126705
0.000125667
0.000556045
0.000419903
0.000349807
0.000304725
0.000272434
0.000247965
0.000228744
0.000213273
0.000200639
0.000190231
0.000181608
0.000174432
0.000168432
0.000163385
0.000159118
0.000155434
0.000152252
0.000149071
0.000740307
0.000625817
0.000544108
0.000484986
0.000439752
0.000403624
0.000373806
0.00034856
0.000326797
0.00030782
0.000291154
0.000276452
0.000263443
0.000251892
0.000241602
0.000232342
0.000223948
0.000216093
0.000817069
0.000759139
0.000700539
0.000648565
0.000603878
0.000565555
0.000532435
0.000503462
0.000477811
0.000454873
0.000434201
0.000415459
0.000398386
0.000382767
0.000368416
0.000355137
0.000342772
0.000331201
0.0008421
0.000819686
0.00078992
0.000757597
0.000725538
0.00069514
0.000666932
0.00064097
0.000617112
0.000595156
0.000574896
0.000556145
0.000538735
0.000522515
0.000507351
0.000493102
0.000479657
0.000467056
0.000849261
0.000841807
0.000829739
0.000814182
0.000796471
0.000777745
0.000758824
0.00074022
0.000722219
0.000704968
0.000688524
0.000672895
0.000658057
0.000643971
0.000630584
0.000617836
0.000605683
0.000594251
0.00085112
0.000848747
0.000844479
0.000838233
0.00083024
0.000820885
0.000810583
0.000799699
0.000788521
0.000777266
0.00076609
0.000755098
0.000744358
0.000733911
0.000723776
0.000713962
0.000704479
0.000695482
0.00085156
0.000850665
0.000849169
0.000846885
0.000843738
0.000839753
0.000835025
0.00082968
0.000823855
0.000817676
0.000811258
0.000804694
0.00079806
0.000791416
0.000784806
0.000778267
0.000771834
0.000765646
0.000851652
0.000851133
0.000850468
0.000849563
0.000848345
0.000846769
0.000844821
0.000842512
0.000839872
0.000836941
0.000833766
0.000830391
0.00082686
0.000823212
0.000819483
0.000815702
0.000811904
0.000808186
0.000851668
0.00085123
0.000850778
0.000850278
0.000849697
0.000849005
0.00084818
0.000847207
0.000846081
0.000844805
0.000843386
0.000841835
0.000840169
0.000838401
0.000836549
0.000834627
0.000832657
0.000830695
0.000851669
0.000851245
0.000850835
0.000850429
0.000850013
0.000849574
0.000849099
0.000848577
0.000847998
0.000847359
0.000846656
0.000845891
0.000845064
0.00084418
0.000843244
0.000842263
0.000841246
0.000840226
0.000851668
0.000851245
0.000850843
0.000850459
0.000850088
0.000849725
0.000849364
0.000848999
0.000848626
0.000848239
0.000847836
0.000847414
0.000846971
0.000846508
0.000846025
0.000845522
0.000845005
0.000844491
0.000851667
0.000851242
0.000850839
0.000850458
0.000850096
0.000849751
0.00084942
0.000849101
0.000848791
0.000848489
0.000848191
0.000847898
0.000847606
0.000847316
0.000847025
0.000846735
0.000846446
0.000846171
0.000851666
0.000851239
0.000850835
0.000850452
0.00085009
0.000849746
0.000849419
0.000849107
0.000848811
0.000848527
0.000848255
0.000847994
0.000847743
0.000847502
0.000847269
0.000847044
0.000846829
0.000846634
0.000851665
0.000851236
0.000850831
0.000850447
0.000850083
0.000849737
0.000849409
0.000849097
0.000848801
0.000848519
0.00084825
0.000847994
0.000847749
0.000847516
0.000847294
0.000847081
0.000846881
0.000846703
0.000851664
0.000851235
0.000850828
0.000850442
0.000850077
0.00084973
0.000849401
0.000849088
0.00084879
0.000848507
0.000848237
0.00084798
0.000847735
0.000847502
0.00084728
0.000847068
0.000846868
0.00084669
0.000851664
0.000851234
0.000850826
0.00085044
0.000850073
0.000849725
0.000849395
0.000849081
0.000848783
0.000848498
0.000848228
0.00084797
0.000847724
0.000847489
0.000847266
0.000847052
0.000846851
0.000846673
0.000851663
0.000851233
0.000850825
0.000850439
0.000850072
0.000849724
0.000849393
0.000849079
0.00084878
0.000848495
0.000848224
0.000847965
0.000847718
0.000847483
0.000847259
0.000847044
0.000846842
0.000846663
0.000851664
0.000851234
0.000850826
0.00085044
0.000850074
0.000849727
0.000849396
0.000849082
0.000848783
0.000848498
0.000848227
0.000847967
0.00084772
0.000847483
0.000847257
0.000847041
0.000846836
0.000846654
0.000851664
0.000851235
0.000850829
0.000850443
0.000850078
0.00084973
0.000849399
0.000849083
0.000848781
0.000848491
0.000848211
0.000847942
0.000847682
0.000847431
0.000847186
0.000846949
0.000846721
0.000846512
0.000851665
0.000851237
0.00085083
0.000850442
0.000850069
0.000849707
0.000849352
0.000849
0.000848649
0.000848295
0.000847937
0.000847573
0.000847202
0.000846824
0.000846438
0.000846046
0.000845649
0.000845261
0.000851664
0.000851228
0.000850794
0.000850348
0.00084987
0.000849346
0.000848763
0.000848113
0.000847391
0.000846597
0.000845732
0.000844803
0.000843813
0.00084277
0.000841682
0.000840556
0.000839403
0.000838244
0.000851634
0.000851073
0.000850343
0.000849364
0.000848081
0.000846469
0.000844534
0.000842296
0.000839791
0.00083706
0.000834146
0.000831088
0.000827926
0.000824693
0.000821418
0.000818126
0.000814842
0.000811612
0.000851287
0.000849596
0.000846722
0.000842579
0.000837265
0.000830984
0.000823978
0.000816481
0.000808687
0.000800755
0.000792805
0.000784929
0.00077719
0.000769633
0.00076229
0.000755179
0.000748314
0.000741749
0.000848318
0.000839426
0.000826162
0.00081002
0.000792363
0.000774234
0.000756331
0.000739057
0.000722611
0.000707073
0.000692452
0.000678723
0.000665839
0.000653746
0.000642386
0.000631705
0.000621656
0.000612249
0.000828548
0.000788844
0.000746036
0.000705707
0.000669469
0.000637509
0.000609456
0.000584752
0.00056286
0.000543325
0.000525777
0.000509917
0.000495504
0.000482343
0.000470275
0.00045917
0.000448922
0.000439482
0.000730726
0.000627348
0.000554511
0.000501064
0.000460324
0.000428355
0.000402642
0.000381479
0.000363722
0.000348595
0.000335552
0.000324196
0.000314228
0.000305419
0.00029759
0.000290594
0.000284315
0.000278667
0.00043925
0.000338472
0.000287937
0.000256871
0.000236364
0.000222513
0.000212996
0.000206315
0.000201509
0.000197962
0.000195274
0.00019318
0.000191502
0.000190119
0.000188949
0.000187934
0.000187037
0.00018621
7.16431e-05
6.90587e-05
6.65522e-05
6.41645e-05
6.19883e-05
6.00783e-05
5.84562e-05
5.71208e-05
5.60564e-05
5.52391e-05
5.4642e-05
5.42372e-05
5.39979e-05
5.38993e-05
5.39188e-05
5.40363e-05
5.42344e-05
5.44969e-05
1.75747e-06
2.73298e-05
3.90985e-05
4.85791e-05
5.66741e-05
6.39621e-05
7.09864e-05
7.8436e-05
8.65567e-05
9.55829e-05
0.000105743
0.000117131
0.00012973
0.000142932
0.000155649
0.000167368
0.000177629
0.000186076
0.000192482
0.000196752
0.000198859
0.000198435
0.000194135
0.000194582
0.000196688
0.000201671
0.000202533
4.59153e-05
4.6193e-05
0.000201776
4.60636e-05
4.72413e-05
4.83407e-05
4.94661e-05
5.05778e-05
5.16691e-05
5.27394e-05
5.37891e-05
5.48196e-05
5.58324e-05
5.68296e-05
5.7813e-05
5.87845e-05
5.9746e-05
6.06989e-05
6.16448e-05
6.25849e-05
6.35205e-05
6.44523e-05
6.53813e-05
6.63079e-05
6.72329e-05
6.81564e-05
6.90788e-05
7.00003e-05
7.09207e-05
7.18402e-05
7.27586e-05
7.36758e-05
7.45914e-05
7.55051e-05
7.64167e-05
7.73258e-05
7.82319e-05
7.91346e-05
8.00335e-05
8.0928e-05
8.18177e-05
8.27021e-05
8.35806e-05
8.44528e-05
8.53182e-05
8.61761e-05
8.70261e-05
8.78678e-05
8.87005e-05
8.95237e-05
9.03371e-05
9.114e-05
9.19321e-05
9.27127e-05
9.34814e-05
9.42378e-05
9.49814e-05
9.57116e-05
9.64281e-05
9.71302e-05
9.78176e-05
9.84898e-05
9.91462e-05
9.97866e-05
0.000100411
0.000101018
0.000101609
0.000102185
0.000102748
0.000103301
0.000103832
0.000104343
0.000104833
0.000105302
0.00010575
0.000106177
0.000106582
0.000106964
0.000107323
0.000107659
0.000107971
0.000108259
0.000108522
0.000108761
0.000108975
0.000109163
0.000109326
0.000109463
0.000109574
0.000109659
0.000109717
0.000109749
0.000109754
0.000109733
0.000109686
0.000109612
0.000109511
0.000109385
0.000109232
0.000109053
0.000108848
0.000108618
0.000108363
0.000108083
0.000107778
0.000107449
0.000107097
0.000106721
0.000106323
0.000105903
0.000105461
0.000104999
0.000104516
0.000104014
0.000103492
0.000102953
0.000102395
0.000101821
0.00010123
0.000100624
0.000100002
9.93666e-05
9.8717e-05
9.80543e-05
9.73788e-05
9.66913e-05
9.59919e-05
9.52816e-05
9.45602e-05
9.38289e-05
9.30873e-05
9.23356e-05
9.15773e-05
9.08698e-05
9.04537e-05
9.00799e-05
8.97078e-05
8.93333e-05
8.89555e-05
8.85738e-05
8.81876e-05
8.77964e-05
8.73995e-05
8.69958e-05
8.65842e-05
8.61628e-05
8.57286e-05
8.52768e-05
8.47989e-05
8.42761e-05
8.36645e-05
8.28317e-05
8.14573e-05
3.16336e-06
3.96256e-05
8.01223e-05
0.00011313
0.000139589
0.000160978
0.000178623
0.000192748
0.000204519
0.000215132
0.000225439
0.000235804
0.000246343
0.000256774
0.000266567
0.000275103
0.00028177
0.00028602
0.000287426
0.000285749
0.000280776
0.000271441
0.000256395
0.000253575
0.000254118
0.000258833
0.000258754
0.000250073
0.000252553
0.000261244
0.000258746
0.000265975
0.000274099
0.000281957
0.000290009
0.000298173
0.000306362
0.000314516
0.000322597
0.000330586
0.000338474
0.000346261
0.000353955
0.000361565
0.000369103
0.000376585
0.000384025
0.000391438
0.000398838
0.000406239
0.000413654
0.000421095
0.000428572
0.000436095
0.000443672
0.000451309
0.000459014
0.000466789
0.00047464
0.000482568
0.000490576
0.000498664
0.000506832
0.000515079
0.000523405
0.000531807
0.000540283
0.00054883
0.000557444
0.000566122
0.000574859
0.000583651
0.000592494
0.000601382
0.000610311
0.000619276
0.000628271
0.000637292
0.000646333
0.000655389
0.000664455
0.000673527
0.000682598
0.000691666
0.000700724
0.000709768
0.000718792
0.000727793
0.000736763
0.000745695
0.00075458
0.000763405
0.000772147
0.000780774
0.000789234
0.000797464
0.000805017
0.0008124
0.00081967
0.000826831
0.000833877
0.000840802
0.0008476
0.000854264
0.000860788
0.000867166
0.00087339
0.000879454
0.000885353
0.000891079
0.000896628
0.000901992
0.000907167
0.000912146
0.000916925
0.000921498
0.00092586
0.000930007
0.000933935
0.00093764
0.000941117
0.000944364
0.000947377
0.000950153
0.000952691
0.000954988
0.000957044
0.000958856
0.000960426
0.000961752
0.000962837
0.00096368
0.000964283
0.00096465
0.000964783
0.000964684
0.00096436
0.000963813
0.00096305
0.000962076
0.000960896
0.000959519
0.00095795
0.000956198
0.000954269
0.000952171
0.000949914
0.000947504
0.000944949
0.00094226
0.000939442
0.000936502
0.000933451
0.000930286
0.000927027
0.000923663
0.000920198
0.000916626
0.000912792
0.000908329
0.000901995
0.000894185
0.000885998
0.000877655
0.000869203
0.000860657
0.000852024
0.000843308
0.00083451
0.000825632
0.000816673
0.000807633
0.000798507
0.000789289
0.000779963
0.000770504
0.000760828
0.000750845
0.000739414
0.000715127
5.2854e-06
5.54675e-05
0.000113588
0.000162825
0.000203009
0.00023537
0.000260767
0.000280163
0.000295084
0.000307055
0.000317326
0.000326791
0.000335937
0.000344871
0.000353421
0.000361282
0.000368148
0.000373825
0.000378306
0.000381831
0.000384859
0.000387887
0.000391549
0.000397815
0.000405867
0.000415607
0.000426127
0.000437271
0.000450057
0.000464154
0.000478837
0.000495264
0.000512503
0.000529861
0.000547185
0.000564395
0.000581435
0.00059827
0.000614882
0.000631268
0.000647437
0.000663406
0.000679199
0.000694843
0.000710368
0.000725803
0.00074118
0.000756526
0.00077187
0.000787236
0.000802649
0.00081813
0.000833697
0.000849366
0.000865151
0.000881063
0.000897112
0.000913305
0.000929646
0.000946139
0.000962785
0.000979584
0.000996534
0.00101363
0.00103087
0.00104825
0.00106576
0.0010834
0.00110115
0.001119
0.00113696
0.001155
0.00117311
0.0011913
0.00120953
0.00122781
0.00124613
0.00126446
0.0012828
0.00130114
0.00131946
0.00133776
0.00135602
0.00137423
0.00139238
0.00141045
0.00142843
0.00144631
0.00146407
0.00148168
0.00149913
0.00151639
0.00153342
0.00155018
0.00156663
0.00158248
0.00159786
0.00161296
0.00162782
0.00164245
0.00165683
0.00167095
0.0016848
0.00169836
0.00171162
0.00172457
0.0017372
0.00174948
0.00176142
0.00177299
0.00178418
0.00179498
0.00180539
0.00181538
0.00182494
0.00183407
0.00184276
0.00185099
0.00185876
0.00186606
0.00187288
0.00187921
0.00188505
0.00189039
0.00189522
0.00189955
0.00190336
0.00190666
0.00190945
0.00191171
0.00191347
0.00191471
0.00191544
0.00191567
0.00191539
0.00191463
0.00191337
0.00191164
0.00190945
0.00190679
0.0019037
0.00190017
0.00189623
0.00189188
0.00188715
0.00188205
0.0018766
0.00187081
0.0018647
0.00185829
0.0018516
0.00184463
0.00183742
0.00182995
0.00182227
0.00181437
0.00180622
0.00179778
0.00178883
0.00177889
0.0017672
0.00175412
0.00174044
0.00172645
0.00171224
0.00169784
0.00168328
0.00166855
0.00165365
0.0016386
0.00162338
0.00160798
0.00159239
0.0015766
0.00156055
0.00154417
0.00152725
0.00150932
0.00148845
0.00145575
7.93194e-06
7.31015e-05
0.000146708
0.000208024
0.000257158
0.000295846
0.000325673
0.000348427
0.000365803
0.000379411
0.000390668
0.000400699
0.000410269
0.000419786
0.000429381
0.000439029
0.00044867
0.000458305
0.000468058
0.000478196
0.00048909
0.000501125
0.000514624
0.000529854
0.000546716
0.000565121
0.000584888
0.00060588
0.000628004
0.000651101
0.000674983
0.000699498
0.000724308
0.000749094
0.000773688
0.000798009
0.00082202
0.000845708
0.000869075
0.000892137
0.000914919
0.000937451
0.00095977
0.000981915
0.00100392
0.00102584
0.00104769
0.00106952
0.00109137
0.00111326
0.00113523
0.0011573
0.00117949
0.00120182
0.00122431
0.00124697
0.00126982
0.00129285
0.00131608
0.00133951
0.00136313
0.00138696
0.00141097
0.00143517
0.00145955
0.0014841
0.00150881
0.00153366
0.00155866
0.00158377
0.001609
0.00163432
0.00165971
0.00168517
0.00171068
0.00173621
0.00176175
0.0017873
0.00181282
0.0018383
0.00186373
0.00188908
0.00191435
0.00193951
0.00196454
0.00198943
0.00201415
0.00203868
0.00206301
0.00208709
0.00211092
0.00213445
0.00215765
0.00218048
0.0022029
0.00222471
0.00224609
0.00226711
0.00228779
0.00230813
0.00232812
0.00234775
0.00236699
0.00238583
0.00240425
0.00242223
0.00243976
0.00245681
0.00247338
0.00248943
0.00250496
0.00251995
0.00253439
0.00254825
0.00256152
0.00257419
0.00258624
0.00259766
0.00260844
0.00261856
0.00262802
0.0026368
0.0026449
0.0026523
0.002659
0.002665
0.00267027
0.00267483
0.00267867
0.00268179
0.00268419
0.00268586
0.00268682
0.00268706
0.0026866
0.00268544
0.00268359
0.00268105
0.00267786
0.00267401
0.00266952
0.00266441
0.0026587
0.00265241
0.00264556
0.00263817
0.00263027
0.00262187
0.002613
0.00260369
0.00259396
0.00258382
0.00257332
0.00256246
0.00255126
0.00253973
0.00252784
0.00251551
0.00250256
0.00248866
0.00247346
0.00245719
0.00244029
0.00242301
0.00240544
0.00238763
0.00236961
0.00235139
0.00233296
0.00231435
0.00229553
0.0022765
0.00225725
0.00223776
0.00221797
0.00219778
0.00217693
0.00215484
0.00212952
0.00209528
1.10058e-05
9.02729e-05
0.000176542
0.00024736
0.000303531
0.0003473
0.00038105
0.000406871
0.000426683
0.000442257
0.000455154
0.000466659
0.000477719
0.000488953
0.000500706
0.000513146
0.000526364
0.00054045
0.00055554
0.000571822
0.000589509
0.000608784
0.000629753
0.000652425
0.000676704
0.00070245
0.000729488
0.000757626
0.000786664
0.000816393
0.000846598
0.00087706
0.000907553
0.00093789
0.000967949
0.000997663
0.001027
0.00105597
0.00108457
0.00111283
0.00114078
0.00116846
0.00119591
0.00122318
0.0012503
0.00127732
0.00130429
0.00133124
0.00135821
0.00138524
0.00141235
0.00143958
0.00146695
0.00149448
0.00152219
0.00155009
0.00157819
0.00160651
0.00163504
0.00166379
0.00169276
0.00172194
0.00175133
0.00178092
0.00181069
0.00184065
0.00187078
0.00190105
0.00193146
0.00196199
0.00199262
0.00202334
0.00205411
0.00208493
0.00211578
0.00214662
0.00217745
0.00220825
0.00223898
0.00226964
0.00230019
0.00233063
0.00236092
0.00239105
0.00242099
0.00245073
0.00248024
0.0025095
0.00253848
0.00256716
0.00259551
0.00262351
0.00265112
0.00267833
0.00270498
0.0027311
0.00275676
0.00278202
0.00280688
0.00283134
0.00285537
0.00287896
0.0029021
0.00292476
0.00294692
0.00296856
0.00298966
0.0030102
0.00303017
0.00304953
0.00306827
0.00308637
0.00310382
0.00312059
0.00313666
0.00315202
0.00316665
0.00318054
0.00319366
0.00320602
0.00321758
0.00322834
0.00323829
0.00324741
0.0032557
0.00326314
0.00326973
0.00327546
0.00328032
0.00328433
0.00328746
0.00328973
0.00329112
0.00329166
0.00329133
0.00329016
0.00328815
0.0032853
0.00328163
0.00327717
0.00327191
0.00326589
0.00325912
0.00325163
0.00324343
0.00323456
0.00322504
0.0032149
0.00320416
0.00319285
0.00318102
0.00316867
0.00315586
0.00314259
0.00312889
0.00311476
0.00310018
0.00308509
0.00306937
0.00305285
0.00303537
0.00301706
0.00299818
0.0029789
0.00295931
0.00293946
0.00291939
0.00289912
0.00287865
0.002858
0.00283717
0.00281616
0.00279496
0.00277357
0.00275193
0.00272997
0.00270746
0.00268384
0.00265752
0.00262509
1.41219e-05
0.000104058
0.000201352
0.000280856
0.000343492
0.000392325
0.000430085
0.000459162
0.000481703
0.000499637
0.000514658
0.000528172
0.000541267
0.000554716
0.000569021
0.000584485
0.000601291
0.000619567
0.000639421
0.000660951
0.000684236
0.000709308
0.000736141
0.000764637
0.000794645
0.000825978
0.000858429
0.000891779
0.000925809
0.000960303
0.000995056
0.00102988
0.0010646
0.00109909
0.00113326
0.00116706
0.00120047
0.00123348
0.00126611
0.00129839
0.00133034
0.00136202
0.00139346
0.0014247
0.00145579
0.00148678
0.00151771
0.00154862
0.00157954
0.00161052
0.00164158
0.00167276
0.00170408
0.00173557
0.00176723
0.00179909
0.00183115
0.00186343
0.00189593
0.00192865
0.00196158
0.00199473
0.00202809
0.00206164
0.00209538
0.0021293
0.00216337
0.00219758
0.00223192
0.00226637
0.00230089
0.00233549
0.00237012
0.00240478
0.00243943
0.00247406
0.00250865
0.00254316
0.00257757
0.00261187
0.00264603
0.00268003
0.00271385
0.00274745
0.00278083
0.00281395
0.0028468
0.00287936
0.00291159
0.00294347
0.00297499
0.00300611
0.00303682
0.00306708
0.00309675
0.00312591
0.00315462
0.00318289
0.00321073
0.00323812
0.00326505
0.0032915
0.00331745
0.00334288
0.00336776
0.00339208
0.00341582
0.00343894
0.00346143
0.00348327
0.00350443
0.0035249
0.00354464
0.00356365
0.0035819
0.00359938
0.00361605
0.00363191
0.00364693
0.00366111
0.00367442
0.00368685
0.00369838
0.003709
0.0037187
0.00372746
0.00373528
0.00374214
0.00374805
0.00375299
0.00375696
0.00375995
0.00376197
0.00376302
0.00376309
0.00376221
0.00376037
0.00375758
0.00375385
0.00374921
0.00374366
0.00373722
0.00372992
0.00372178
0.00371282
0.00370307
0.00369255
0.00368131
0.00366936
0.00365675
0.00364351
0.00362966
0.00361526
0.00360031
0.00358485
0.00356889
0.00355243
0.00353542
0.00351782
0.00349953
0.00348051
0.00346083
0.00344065
0.00342008
0.00339922
0.00337811
0.0033568
0.00333531
0.00331367
0.00329189
0.00326999
0.00324798
0.00322587
0.00320367
0.00318137
0.00315892
0.00313616
0.00311266
0.00308724
0.00305788
1.70019e-05
0.00011575
0.000222003
0.00030902
0.000377885
0.000431802
0.000473764
0.000506397
0.000532024
0.000552703
0.000570228
0.000586103
0.000601526
0.000617385
0.0006343
0.000652671
0.000672743
0.000694657
0.000718486
0.000744255
0.000771943
0.000801483
0.000832757
0.000865606
0.000899837
0.000935236
0.000971581
0.00100865
0.00104623
0.00108411
0.00112213
0.00116011
0.00119792
0.00123547
0.00127269
0.00130952
0.00134596
0.001382
0.00141766
0.00145296
0.00148794
0.00152263
0.00155708
0.00159133
0.00162541
0.00165938
0.00169328
0.00172715
0.00176102
0.00179494
0.00182893
0.00186303
0.00189726
0.00193164
0.00196619
0.00200092
0.00203586
0.002071
0.00210635
0.00214191
0.00217768
0.00221365
0.00224982
0.00228619
0.00232272
0.00235942
0.00239627
0.00243325
0.00247034
0.00250751
0.00254476
0.00258206
0.00261938
0.0026567
0.002694
0.00273125
0.00276843
0.00280551
0.00284247
0.00287929
0.00291593
0.00295239
0.00298863
0.00302464
0.00306038
0.00309585
0.00313101
0.00316584
0.00320033
0.00323445
0.00326818
0.0033015
0.00333438
0.00336676
0.00339859
0.00342994
0.00346084
0.00349129
0.00352129
0.00355083
0.0035799
0.00360846
0.00363651
0.00366402
0.00369096
0.00371732
0.00374307
0.00376819
0.00379265
0.00381643
0.0038395
0.00386186
0.00388346
0.00390429
0.00392433
0.00394355
0.00396194
0.00397947
0.00399612
0.00401188
0.00402672
0.00404064
0.00405361
0.00406561
0.00407663
0.00408666
0.00409567
0.00410367
0.00411065
0.00411658
0.00412148
0.00412532
0.0041281
0.00412983
0.00413051
0.00413014
0.00412872
0.00412626
0.00412277
0.00411827
0.00411276
0.00410627
0.00409882
0.00409042
0.0040811
0.0040709
0.00405983
0.00404793
0.00403524
0.0040218
0.00400763
0.00399278
0.00397728
0.00396117
0.00394448
0.00392723
0.00390943
0.00389107
0.00387215
0.00385262
0.00383249
0.00381183
0.00379072
0.00376926
0.00374753
0.00372559
0.00370349
0.00368125
0.00365892
0.00363653
0.00361411
0.00359168
0.00356928
0.00354694
0.00352468
0.00350251
0.00348032
0.00345785
0.00343423
0.00340822
1.95511e-05
0.000125092
0.000238585
0.000332369
0.000407077
0.000465987
0.000512266
0.000548693
0.000577706
0.000601445
0.000621771
0.000640254
0.000658166
0.000676483
0.000695911
0.000716921
0.000739802
0.000764703
0.000791675
0.000820693
0.000851672
0.000884483
0.000918956
0.000954895
0.000992083
0.0010303
0.00106931
0.00110892
0.00114892
0.00118912
0.00122937
0.00126953
0.00130949
0.00134917
0.00138851
0.00142748
0.00146606
0.00150424
0.00154205
0.0015795
0.00161663
0.00165347
0.00169005
0.00172643
0.00176263
0.00179871
0.0018347
0.00187064
0.00190658
0.00194254
0.00197856
0.00201467
0.00205089
0.00208725
0.00212377
0.00216046
0.00219733
0.0022344
0.00227166
0.00230912
0.00234678
0.00238464
0.00242268
0.00246091
0.0024993
0.00253784
0.00257653
0.00261533
0.00265424
0.00269324
0.00273229
0.00277138
0.00281049
0.00284959
0.00288865
0.00292766
0.00296658
0.0030054
0.00304408
0.0030826
0.00312094
0.00315907
0.00319697
0.00323462
0.00327199
0.00330907
0.00334583
0.00338225
0.00341832
0.00345401
0.0034893
0.00352418
0.00355861
0.00359253
0.00362595
0.00365893
0.00369147
0.00372357
0.00375523
0.00378643
0.00381715
0.00384738
0.00387709
0.00390625
0.00393486
0.00396287
0.00399026
0.00401702
0.00404312
0.00406853
0.00409322
0.00411719
0.00414039
0.0041628
0.0041844
0.00420517
0.00422509
0.00424412
0.00426226
0.00427947
0.00429575
0.00431107
0.0043254
0.00433874
0.00435106
0.00436234
0.00437257
0.00438173
0.00438982
0.00439683
0.00440274
0.00440754
0.00441121
0.00441377
0.00441521
0.00441553
0.00441474
0.00441282
0.00440979
0.00440566
0.00440046
0.00439418
0.00438684
0.00437847
0.0043691
0.00435875
0.00434744
0.00433523
0.00432213
0.00430819
0.00429344
0.00427794
0.00426171
0.00424479
0.00422723
0.00420906
0.00419029
0.00417096
0.00415106
0.00413062
0.00410965
0.00408822
0.00406639
0.00404426
0.00402189
0.00399934
0.00397668
0.00395395
0.0039312
0.00390848
0.00388583
0.00386331
0.00384096
0.00381884
0.00379701
0.00377553
0.00375435
0.00373332
0.00371182
0.00368899
2.16273e-05
0.00013222
0.000251713
0.000351322
0.000431318
0.00049498
0.000545548
0.000585878
0.000618461
0.000645472
0.000668798
0.000690042
0.000710519
0.000731261
0.00075303
0.000776353
0.000801551
0.000828791
0.000858115
0.000889474
0.000922755
0.000957794
0.000994399
0.00103235
0.00107144
0.00111142
0.0011521
0.00119327
0.00123473
0.00127634
0.00131795
0.00135943
0.0014007
0.00144168
0.00148232
0.0015226
0.00156249
0.001602
0.00164114
0.00167992
0.00171838
0.00175655
0.00179446
0.00183215
0.00186966
0.00190703
0.00194429
0.0019815
0.00201868
0.00205587
0.0020931
0.00213041
0.00216781
0.00220534
0.00224301
0.00228083
0.00231883
0.00235701
0.00239538
0.00243395
0.0024727
0.00251165
0.00255078
0.00259009
0.00262957
0.0026692
0.00270897
0.00274887
0.00278888
0.00282897
0.00286913
0.00290933
0.00294955
0.00298977
0.00302996
0.00307009
0.00311015
0.00315009
0.00318991
0.00322957
0.00326904
0.00330831
0.00334734
0.00338612
0.00342463
0.00346283
0.00350073
0.00353828
0.00357548
0.00361231
0.00364875
0.00368478
0.00372035
0.00375547
0.00379016
0.00382443
0.0038583
0.00389175
0.00392477
0.00395735
0.00398947
0.0040211
0.00405223
0.00408282
0.00411286
0.00414232
0.00417116
0.00419938
0.00422694
0.00425381
0.00427997
0.0043054
0.00433007
0.00435395
0.00437701
0.00439923
0.00442059
0.00444106
0.00446062
0.00447924
0.00449691
0.00451361
0.00452931
0.00454398
0.00455761
0.00457017
0.00458166
0.00459204
0.00460132
0.00460947
0.00461649
0.00462235
0.00462704
0.00463055
0.00463289
0.00463406
0.00463406
0.00463285
0.00463047
0.00462691
0.0046222
0.00461634
0.00460935
0.00460125
0.00459206
0.00458181
0.00457053
0.00455825
0.004545
0.00453083
0.00451578
0.00449988
0.00448319
0.00446574
0.00444757
0.00442874
0.00440928
0.00438922
0.00436859
0.00434744
0.0043258
0.00430373
0.00428132
0.00425862
0.00423572
0.0042127
0.0041896
0.00416651
0.00414347
0.00412056
0.00409784
0.00407537
0.00405324
0.00403152
0.00401032
0.0039897
0.00396971
0.00395025
0.00393086
0.00391088
2.31373e-05
0.000137608
0.000261772
0.000366197
0.000450834
0.00051888
0.00057357
0.000617769
0.000653967
0.000684334
0.000710747
0.000734808
0.000757845
0.000780915
0.000804816
0.00083011
0.000857153
0.000886129
0.000917091
0.000949991
0.000984707
0.00102107
0.00105888
0.00109793
0.00113798
0.00117884
0.00122029
0.00126215
0.00130424
0.00134643
0.00138857
0.00143057
0.00147235
0.00151383
0.00155498
0.00159576
0.00163617
0.00167621
0.00171588
0.00175519
0.00179419
0.00183288
0.00187132
0.00190953
0.00194755
0.00198542
0.00202319
0.00206087
0.00209853
0.00213618
0.00217386
0.0022116
0.00224944
0.00228738
0.00232547
0.00236371
0.00240211
0.0024407
0.00247948
0.00251846
0.00255763
0.00259701
0.00263658
0.00267634
0.00271628
0.0027564
0.00279667
0.00283709
0.00287763
0.00291828
0.00295902
0.00299983
0.00304067
0.00308154
0.0031224
0.00316323
0.00320399
0.00324467
0.00328523
0.00332566
0.00336591
0.00340596
0.0034458
0.00348539
0.00352472
0.00356376
0.0036025
0.0036409
0.00367897
0.00371668
0.003754
0.00379094
0.00382748
0.00386364
0.00389942
0.00393484
0.00396988
0.00400453
0.00403878
0.00407262
0.00410601
0.00413894
0.00417137
0.00420329
0.00423467
0.00426548
0.0042957
0.00432529
0.00435424
0.00438251
0.00441009
0.00443693
0.00446302
0.00448832
0.00451281
0.00453646
0.00455924
0.00458112
0.0046021
0.00462213
0.0046412
0.00465929
0.00467638
0.00469243
0.00470741
0.00472131
0.0047341
0.00474577
0.0047563
0.00476569
0.00477393
0.00478095
0.00478676
0.00479135
0.00479473
0.00479687
0.00479779
0.00479746
0.00479589
0.00479309
0.00478907
0.00478383
0.00477739
0.00476976
0.00476097
0.00475104
0.00474
0.00472788
0.00471471
0.00470054
0.0046854
0.00466934
0.0046524
0.00463464
0.00461609
0.00459682
0.00457686
0.00455627
0.00453509
0.00451339
0.0044912
0.00446861
0.00444569
0.00442251
0.00439916
0.00437572
0.00435226
0.00432887
0.00430561
0.00428258
0.00425984
0.0042375
0.00421565
0.00419439
0.00417385
0.00415415
0.00413535
0.00411742
0.00409997
0.00408245
2.42095e-05
0.000141342
0.000268961
0.000377254
0.00046586
0.000537838
0.000596361
0.000644254
0.000683969
0.000717635
0.000747094
0.000773919
0.000799423
0.000824663
0.000850453
0.000877376
0.000905814
0.000935978
0.00096794
0.00100167
0.00103705
0.00107394
0.00111213
0.00115143
0.00119163
0.00123252
0.00127392
0.00131564
0.00135755
0.0013995
0.00144137
0.00148308
0.00152455
0.00156572
0.00160656
0.00164704
0.00168714
0.00172688
0.00176625
0.00180528
0.00184399
0.0018824
0.00192056
0.00195849
0.00199623
0.00203382
0.0020713
0.00210871
0.00214608
0.00218345
0.00222085
0.00225832
0.00229588
0.00233357
0.0023714
0.00240939
0.00244757
0.00248595
0.00252454
0.00256335
0.00260239
0.00264165
0.00268114
0.00272085
0.00276077
0.00280091
0.00284124
0.00288176
0.00292244
0.00296328
0.00300424
0.00304531
0.00308647
0.00312768
0.00316893
0.00321018
0.0032514
0.00329258
0.00333366
0.00337464
0.00341547
0.00345613
0.00349659
0.00353683
0.00357682
0.00361654
0.00365597
0.00369509
0.00373388
0.00377233
0.00381043
0.00384822
0.00388569
0.00392286
0.0039597
0.00399622
0.0040324
0.00406823
0.00410369
0.00413876
0.0041734
0.00420761
0.00424134
0.00427457
0.00430728
0.00433943
0.00437101
0.00440197
0.0044323
0.00446197
0.00449095
0.00451921
0.00454672
0.00457346
0.00459938
0.00462446
0.00464868
0.00467201
0.00469441
0.00471588
0.00473639
0.00475591
0.00477443
0.00479191
0.0048083
0.00482359
0.00483776
0.00485079
0.00486266
0.00487337
0.00488288
0.00489116
0.00489821
0.00490401
0.00490855
0.00491182
0.00491381
0.00491452
0.00491393
0.00491206
0.00490891
0.00490448
0.00489878
0.00489183
0.00488364
0.00487423
0.00486364
0.00485189
0.00483901
0.00482505
0.00481003
0.00479402
0.00477705
0.00475917
0.00474045
0.00472092
0.00470066
0.00467972
0.00465816
0.00463604
0.00461343
0.00459042
0.00456707
0.00454349
0.00451975
0.00449595
0.00447218
0.00444852
0.00442508
0.00440194
0.00437922
0.00435701
0.00433545
0.00431465
0.00429476
0.00427593
0.00425824
0.00424169
0.00422597
0.00421054
2.48959e-05
0.00014361
0.000273566
0.000384814
0.000476684
0.000552061
0.000614011
0.000665284
0.000708266
0.000745026
0.000777348
0.000806756
0.000834528
0.000861701
0.000889083
0.000917269
0.000946658
0.000977487
0.00100985
0.00104375
0.00107909
0.00111575
0.00115354
0.00119229
0.00123181
0.00127191
0.00131241
0.00135317
0.00139404
0.0014349
0.00147564
0.00151619
0.00155649
0.00159647
0.00163612
0.0016754
0.00171432
0.00175287
0.00179108
0.00182894
0.0018665
0.00190378
0.00194081
0.00197764
0.00201429
0.0020508
0.00208723
0.0021236
0.00215995
0.00219633
0.00223276
0.00226929
0.00230594
0.00234275
0.00237974
0.00241693
0.00245435
0.00249201
0.00252993
0.00256812