/*--------------------------------*- C++ -*----------------------------------*\
  =========                 |
  \\      /  F ield         | OpenFOAM: The Open Source CFD Toolbox
   \\    /   O peration     | Website:  https://openfoam.org
    \\  /    A nd           | Version:  12
     \\/     M anipulation  |
\*---------------------------------------------------------------------------*/
FoamFile
{
    format      ascii;
    class       volScalarField;
    location    "0.1";
    object      p;
}
// * * * * * * * * * * * * * * * * * * * * * * * * * * * * * * * * * * * * * //

dimensions      [0 2 -2 0 0 0 0];

internalField   nonuniform List<scalar> 
12225
(
-1.11095
-3.3938
-4.55593
-4.86357
-5.03115
-5.18997
-5.31343
-5.40046
-5.46836
-5.52725
-5.57883
-5.62271
-5.65896
-5.68635
-5.70309
-5.69667
-5.67684
-5.53459
-4.57847
-5.28044
-5.37032
-5.23472
-5.19397
-5.26037
-5.34002
-5.4045
-5.45982
-5.51114
-5.55812
-5.59944
-5.63458
-5.66218
-5.68143
-5.68352
-5.68363
-5.64652
-4.78324
-4.68014
-4.83658
-4.95819
-5.06487
-5.18631
-5.29351
-5.37484
-5.4404
-5.49823
-5.5499
-5.59503
-5.63357
-5.6649
-5.68924
-5.70259
-5.72183
-5.74464
-4.64597
-4.5677
-4.84342
-5.02164
-5.11542
-5.21171
-5.30577
-5.38202
-5.44503
-5.50132
-5.55225
-5.59736
-5.63664
-5.67002
-5.69852
-5.72203
-5.7547
-5.80432
-4.65298
-4.6701
-4.90985
-5.05925
-5.13462
-5.21851
-5.3071
-5.38192
-5.44437
-5.50028
-5.55124
-5.59697
-5.63766
-5.67379
-5.70698
-5.73923
-5.78116
-5.84134
-4.71473
-4.75706
-4.93452
-5.06476
-5.14211
-5.22385
-5.30918
-5.38284
-5.44503
-5.50082
-5.55198
-5.59849
-5.64073
-5.67957
-5.71697
-5.7557
-5.80342
-5.86703
-4.77456
-4.81395
-4.95003
-5.07177
-5.15355
-5.23251
-5.31326
-5.385
-5.44675
-5.50238
-5.55372
-5.601
-5.64473
-5.68603
-5.72691
-5.77017
-5.82113
-5.88437
-4.82782
-4.86259
-4.97258
-5.08477
-5.16674
-5.24192
-5.31801
-5.38766
-5.44885
-5.50432
-5.55582
-5.60382
-5.64894
-5.69236
-5.73593
-5.78209
-5.83436
-5.8953
-4.87774
-4.90936
-4.99986
-5.10024
-5.17977
-5.25158
-5.32353
-5.39095
-5.4514
-5.5066
-5.5582
-5.60682
-5.65311
-5.69818
-5.74364
-5.79137
-5.84359
-5.90144
-4.92527
-4.95379
-5.0287
-5.11721
-5.19309
-5.26187
-5.33008
-5.39507
-5.4545
-5.5093
-5.56088
-5.60994
-5.65709
-5.70331
-5.74988
-5.79816
-5.84945
-5.90405
-4.97025
-4.99543
-5.05799
-5.13569
-5.20713
-5.27287
-5.33758
-5.40002
-5.4582
-5.51245
-5.56386
-5.61311
-5.66078
-5.70765
-5.75468
-5.80277
-5.85263
-5.90408
-5.00898
-5.03122
-5.08484
-5.15379
-5.22065
-5.28345
-5.34518
-5.40527
-5.46214
-5.51573
-5.56681
-5.61602
-5.66384
-5.71089
-5.75786
-5.80531
-5.85364
-5.90245
-5.04493
-5.06465
-5.11098
-5.17223
-5.23445
-5.29427
-5.35319
-5.411
-5.46645
-5.51925
-5.56988
-5.61885
-5.66657
-5.71349
-5.76006
-5.80664
-5.85335
-5.89978
-5.0828
-5.10003
-5.13966
-5.19342
-5.25048
-5.30684
-5.36276
-5.41806
-5.4718
-5.52353
-5.57346
-5.62193
-5.66925
-5.71568
-5.76149
-5.80683
-5.8517
-5.8957
-5.12136
-5.13621
-5.16993
-5.21678
-5.26847
-5.32102
-5.37377
-5.4264
-5.47816
-5.52852
-5.57745
-5.62511
-5.67165
-5.7172
-5.76188
-5.80568
-5.84856
-5.89019
-5.15871
-5.17142
-5.20021
-5.24103
-5.28757
-5.33619
-5.38573
-5.43564
-5.48524
-5.53396
-5.58158
-5.62808
-5.67348
-5.7178
-5.76102
-5.80309
-5.84393
-5.88329
-5.19198
-5.20297
-5.22794
-5.26393
-5.30603
-5.35103
-5.39756
-5.44488
-5.4923
-5.53923
-5.58531
-5.63039
-5.67437
-5.71719
-5.75876
-5.799
-5.83785
-5.87514
-5.21684
-5.22666
-5.24908
-5.28184
-5.32079
-5.36307
-5.40725
-5.45247
-5.49802
-5.54328
-5.58783
-5.63143
-5.67391
-5.71515
-5.75506
-5.79355
-5.83056
-5.866
-5.22632
-5.23572
-5.25729
-5.28899
-5.32689
-5.36817
-5.41133
-5.45553
-5.50005
-5.54426
-5.58771
-5.63012
-5.67134
-5.71122
-5.7497
-5.7867
-5.82219
-5.85614
-5.21227
-5.22239
-5.24552
-5.27939
-5.31948
-5.36244
-5.40675
-5.45173
-5.49675
-5.54117
-5.58456
-5.62669
-5.66743
-5.7067
-5.74444
-5.78061
-5.81522
-5.84827
-5.18671
-5.19797
-5.22393
-5.26192
-5.30603
-5.35201
-5.39855
-5.44533
-5.49172
-5.53703
-5.5809
-5.62323
-5.66398
-5.7031
-5.74055
-5.77635
-5.81052
-5.84311
-5.15223
-5.16469
-5.19492
-5.23968
-5.28956
-5.33915
-5.38842
-5.43773
-5.48613
-5.53273
-5.57736
-5.62014
-5.66112
-5.70027
-5.73762
-5.77323
-5.80714
-5.83945
-5.11196
-5.12464
-5.16022
-5.21511
-5.27264
-5.32612
-5.37825
-5.43028
-5.48077
-5.52872
-5.57425
-5.61763
-5.65896
-5.69826
-5.73561
-5.77113
-5.80491
-5.83706
-5.06836
-5.08002
-5.12261
-5.18955
-5.25466
-5.31279
-5.36927
-5.42461
-5.47684
-5.5257
-5.57189
-5.61578
-5.6574
-5.69679
-5.73413
-5.76957
-5.80323
-5.83523
-5.02167
-5.02952
-5.09078
-5.1709
-5.23645
-5.29662
-5.3591
-5.41934
-5.47382
-5.52367
-5.57055
-5.61493
-5.65677
-5.69619
-5.73346
-5.76879
-5.80234
-5.83426
-4.97383
-4.95028
-5.06129
-5.17055
-5.23155
-5.28615
-5.35016
-5.41317
-5.46917
-5.51997
-5.56767
-5.61265
-5.65481
-5.69439
-5.7317
-5.76702
-5.80054
-5.8324
-4.96459
-4.82036
-4.97963
-5.14615
-5.23105
-5.29257
-5.35793
-5.41973
-5.47419
-5.52409
-5.57132
-5.61585
-5.65756
-5.69669
-5.73359
-5.76851
-5.80171
-5.83336
-5.11003
-4.82632
-4.86127
-4.99205
-5.11204
-5.21954
-5.31416
-5.39056
-5.45349
-5.50948
-5.56102
-5.60845
-5.65212
-5.69262
-5.73048
-5.76607
-5.7999
-5.8326
-5.04685
-5.54663
-5.55697
-5.39804
-5.31748
-5.34216
-5.39684
-5.44687
-5.49267
-5.53796
-5.58239
-5.62465
-5.66438
-5.70177
-5.737
-5.77018
-5.80155
-5.83297
-1.70819
-3.57884
-4.65032
-4.9437
-5.07893
-5.21616
-5.32862
-5.40923
-5.47286
-5.52962
-5.58169
-5.62919
-5.67264
-5.71281
-5.75008
-5.78447
-5.81563
-5.84178
-6.81304
-6.81157
-6.81078
-6.81092
-6.81174
-6.81297
-6.81433
-6.81571
-6.81714
-6.81864
-6.8203
-6.82225
-6.82467
-6.82772
-6.83155
-6.83633
-6.84227
-6.84959
-6.8586
-6.86976
-6.88364
-6.89669
-6.90164
-6.90553
-6.91749
-6.94233
-6.97419
-7.00573
-7.03637
-7.0537
-7.06711
-7.0896
-7.11654
-7.14534
-7.17489
-7.20536
-7.23643
-7.26792
-7.29966
-7.33151
-7.36336
-7.39512
-7.42674
-7.45814
-7.48929
-7.52014
-7.55064
-7.58077
-7.61047
-7.63971
-7.66842
-7.69657
-7.72408
-7.75089
-7.77693
-7.80212
-7.82635
-7.84955
-7.8716
-7.8924
-7.91182
-7.92974
-7.94603
-7.96054
-7.97315
-7.98369
-7.99202
-7.99796
-8.00137
-8.00207
-7.9999
-7.99468
-7.98623
-7.97439
-7.95897
-7.9398
-7.9167
-7.88949
-7.858
-7.82206
-7.78148
-7.73611
-7.68577
-7.6303
-7.56955
-7.50334
-7.43155
-7.35401
-7.2706
-7.1812
-7.08567
-6.98391
-6.87586
-6.76153
-6.64088
-6.51366
-6.3798
-6.23885
-6.09099
-5.93628
-5.77474
-5.60637
-5.43119
-5.24922
-5.06052
-4.86514
-4.66315
-4.45465
-4.23976
-4.01858
-3.79127
-3.55798
-3.3189
-3.07419
-2.82408
-2.56878
-2.30851
-2.04353
-1.77409
-1.50044
-1.22288
-0.941672
-0.657115
-0.369503
-0.0791348
0.213686
0.508656
0.805472
1.10383
1.40344
1.70399
2.00521
2.30681
2.60852
2.91008
3.21124
3.51176
3.81141
4.10999
4.4073
4.70316
4.9974
5.28987
5.58044
5.86897
6.15536
6.4395
6.72132
7.00072
7.27764
7.55201
7.82375
8.09281
8.35912
8.62262
8.88322
9.14085
9.39543
9.64687
9.89499
10.1395
10.3802
10.6169
10.8494
11.0775
11.3009
11.5193
11.7325
11.94
12.1416
12.337
12.5258
12.7078
12.8829
13.0512
13.2132
13.3706
13.5263
13.6963
13.8847
-6.81404
-6.81277
-6.81201
-6.81226
-6.81299
-6.81363
-6.81393
-6.81381
-6.81331
-6.81266
-6.81214
-6.81207
-6.81266
-6.81403
-6.81625
-6.81933
-6.82328
-6.82805
-6.83358
-6.83969
-6.84566
-6.85025
-6.86052
-6.87835
-6.90035
-6.91936
-6.93436
-6.94957
-6.96225
-6.98442
-7.0185
-7.05383
-7.08791
-7.11966
-7.15118
-7.18286
-7.21467
-7.24653
-7.2784
-7.31021
-7.34191
-7.37346
-7.4048
-7.43591
-7.46675
-7.49729
-7.5275
-7.55734
-7.58678
-7.61578
-7.64429
-7.67226
-7.69963
-7.72634
-7.7523
-7.77745
-7.80168
-7.82492
-7.84704
-7.86795
-7.88752
-7.90563
-7.92215
-7.93694
-7.94986
-7.96075
-7.96946
-7.97584
-7.97972
-7.98094
-7.97932
-7.9747
-7.96689
-7.95574
-7.94105
-7.92265
-7.90037
-7.87403
-7.84345
-7.80846
-7.76889
-7.72456
-7.67533
-7.62101
-7.56146
-7.49652
-7.42605
-7.34989
-7.26791
-7.17999
-7.086
-6.98582
-6.87931
-6.76638
-6.64696
-6.52067
-6.38743
-6.24778
-6.10147
-5.94841
-5.78855
-5.6219
-5.44845
-5.26822
-5.08126
-4.88762
-4.68738
-4.48061
-4.26743
-4.04796
-3.82234
-3.59072
-3.35327
-3.11017
-2.86163
-2.60787
-2.3491
-2.08557
-1.81754
-1.54526
-1.269
-0.989057
-0.705705
-0.419242
-0.129966
0.16182
0.455815
0.751714
1.04921
1.34802
1.64783
1.94836
2.24933
2.55046
2.85149
3.15217
3.45226
3.75153
4.04976
4.34676
4.64235
4.93634
5.2286
5.51898
5.80734
6.09359
6.37762
6.65933
6.93865
7.21549
7.48981
7.76151
8.03056
8.29687
8.56038
8.82103
9.07875
9.33345
9.58503
9.83336
10.0781
10.3191
10.5561
10.7889
11.0174
11.2413
11.4602
11.674
11.8823
12.0847
12.281
12.4709
12.6542
12.8308
13.0009
13.1651
13.3252
13.4835
13.6544
13.831
-6.81301
-6.81258
-6.81242
-6.81302
-6.81382
-6.81431
-6.8143
-6.81379
-6.8129
-6.81185
-6.81087
-6.81023
-6.81011
-6.81069
-6.81204
-6.81424
-6.81734
-6.82138
-6.82639
-6.83242
-6.83948
-6.84774
-6.85885
-6.87419
-6.89246
-6.91223
-6.93207
-6.95231
-6.97273
-6.99556
-7.02227
-7.05102
-7.08081
-7.1108
-7.14116
-7.17183
-7.20267
-7.23359
-7.26453
-7.29544
-7.32625
-7.35695
-7.38748
-7.41783
-7.44795
-7.47782
-7.5074
-7.53667
-7.56557
-7.59408
-7.62215
-7.64971
-7.67672
-7.7031
-7.72878
-7.75368
-7.77771
-7.80077
-7.82277
-7.84359
-7.86311
-7.88121
-7.89777
-7.91263
-7.92567
-7.93673
-7.94565
-7.95229
-7.95648
-7.95806
-7.95685
-7.95269
-7.94541
-7.93482
-7.92076
-7.90305
-7.8815
-7.85596
-7.82623
-7.79216
-7.75356
-7.71027
-7.66213
-7.60896
-7.55062
-7.48694
-7.41778
-7.343
-7.26246
-7.17601
-7.08354
-6.98493
-6.88005
-6.76874
-6.65079
-6.52649
-6.39538
-6.25764
-6.11323
-5.96209
-5.80419
-5.63952
-5.46806
-5.28985
-5.10491
-4.9133
-4.71508
-4.51034
-4.29918
-4.08172
-3.85808
-3.62843
-3.39293
-3.15175
-2.9051
-2.65318
-2.39623
-2.13446
-1.86814
-1.59753
-1.32288
-1.04449
-0.762627
-0.477595
-0.189686
0.100798
0.393556
0.688286
0.984684
1.28245
1.58129
1.88092
2.18105
2.4814
2.78172
3.08174
3.38122
3.67994
3.97767
4.27421
4.56938
4.86301
5.15493
5.445
5.7331
6.0191
6.30291
6.58442
6.86357
7.14027
7.41445
7.68605
7.955
8.22125
8.48472
8.74535
9.00306
9.25774
9.50929
9.75755
10.0024
10.2435
10.4809
10.7142
10.9432
11.1677
11.3874
11.602
11.8112
12.0147
12.2122
12.4034
12.5882
12.7666
12.9387
13.1053
13.2682
13.4286
13.6
13.7598
-6.80864
-6.80972
-6.81087
-6.8122
-6.81325
-6.81377
-6.81371
-6.81315
-6.8122
-6.81106
-6.80994
-6.80908
-6.80867
-6.80891
-6.80992
-6.81183
-6.81474
-6.81878
-6.82404
-6.83067
-6.83883
-6.8488
-6.86101
-6.87587
-6.89308
-6.91214
-6.93253
-6.95414
-6.97692
-7.00115
-7.02705
-7.05424
-7.08234
-7.11104
-7.1402
-7.16969
-7.19939
-7.22921
-7.25911
-7.28901
-7.31889
-7.34869
-7.3784
-7.40796
-7.43737
-7.46658
-7.49556
-7.52428
-7.55269
-7.58075
-7.60842
-7.63564
-7.66235
-7.68847
-7.71393
-7.73866
-7.76256
-7.78553
-7.80747
-7.82827
-7.84781
-7.86597
-7.88262
-7.89762
-7.91082
-7.92208
-7.93126
-7.93818
-7.94269
-7.94462
-7.94381
-7.94009
-7.93328
-7.92321
-7.9097
-7.89259
-7.87169
-7.84682
-7.81782
-7.78452
-7.74673
-7.70429
-7.65704
-7.60481
-7.54745
-7.48479
-7.41669
-7.343
-7.26357
-7.17828
-7.08699
-6.98958
-6.88592
-6.77588
-6.65933
-6.5363
-6.40667
-6.27043
-6.12751
-5.97789
-5.82151
-5.65837
-5.48847
-5.31182
-5.12845
-4.93841
-4.74176
-4.53859
-4.32899
-4.11308
-3.89098
-3.66285
-3.42885
-3.18916
-2.94396
-2.69347
-2.43791
-2.17751
-1.91252
-1.64319
-1.36979
-1.0926
-0.811901
-0.527984
-0.241143
0.0483224
0.34011
0.633918
0.929443
1.22639
1.52446
1.82336
2.1228
2.42252
2.72224
3.02172
3.32069
3.61893
3.91623
4.21237
4.50717
4.80045
5.09206
5.38184
5.66967
5.95543
6.23901
6.52032
6.79927
7.0758
7.34982
7.62129
7.89013
8.15627
8.41965
8.68021
8.93786
9.19252
9.44404
9.69226
9.93706
10.1783
10.4159
10.6494
10.8788
11.1037
11.3239
11.5391
11.7489
11.9532
12.1516
12.3438
12.5298
12.7094
12.883
13.051
13.2152
13.3755
13.5436
13.6871
-6.80022
-6.80328
-6.80632
-6.80893
-6.81074
-6.81175
-6.81206
-6.8118
-6.81113
-6.81025
-6.80938
-6.80876
-6.8086
-6.80912
-6.81048
-6.81285
-6.81637
-6.82117
-6.82739
-6.83517
-6.84464
-6.85599
-6.86934
-6.88477
-6.90214
-6.92122
-6.94175
-6.96357
-6.98659
-7.01083
-7.03626
-7.06269
-7.08986
-7.11758
-7.14571
-7.17414
-7.2028
-7.23162
-7.26055
-7.28954
-7.31854
-7.34754
-7.37648
-7.40535
-7.43411
-7.46274
-7.49119
-7.51943
-7.54742
-7.57512
-7.60246
-7.6294
-7.65587
-7.6818
-7.70712
-7.73173
-7.75555
-7.77848
-7.80041
-7.82123
-7.84083
-7.85907
-7.87583
-7.89097
-7.90434
-7.9158
-7.9252
-7.93237
-7.93715
-7.93939
-7.93891
-7.93555
-7.92912
-7.91946
-7.9064
-7.88975
-7.86934
-7.845
-7.81655
-7.78382
-7.74664
-7.70484
-7.65825
-7.60671
-7.55006
-7.48815
-7.42081
-7.34792
-7.26931
-7.18486
-7.09443
-6.9979
-6.89515
-6.78606
-6.67054
-6.54852
-6.41994
-6.28475
-6.14289
-5.99432
-5.83901
-5.67694
-5.50811
-5.33253
-5.15023
-4.96126
-4.76568
-4.56357
-4.35503
-4.14017
-3.91912
-3.69201
-3.45903
-3.22033
-2.97611
-2.72658
-2.47196
-2.21248
-1.94838
-1.67992
-1.40736
-1.13099
-0.851076
-0.567916
-0.281804
0.00696234
0.298081
0.591249
0.886164
1.18253
1.48004
1.77842
2.07737
2.37662
2.6759
2.97495
3.27353
3.57139
3.86833
4.16414
4.45862
4.7516
5.04292
5.33243
5.62001
5.90552
6.18887
6.46996
6.74872
7.02506
7.29891
7.57021
7.8389
8.10492
8.3682
8.62868
8.88627
9.14085
9.39231
9.64048
9.88525
10.1265
10.3641
10.5978
10.8274
11.0525
11.273
11.4886
11.6989
11.9037
12.1027
12.2957
12.4824
12.6629
12.8373
13.0059
13.17
13.3287
13.4917
13.6205
-6.78899
-6.79401
-6.79932
-6.80363
-6.8066
-6.80847
-6.8095
-6.8099
-6.80987
-6.80963
-6.80943
-6.80951
-6.81012
-6.81146
-6.81373
-6.81711
-6.82175
-6.82777
-6.8353
-6.84444
-6.85528
-6.86789
-6.88229
-6.89845
-6.91626
-6.93556
-6.9562
-6.97802
-7.00091
-7.02481
-7.04961
-7.0752
-7.10143
-7.12817
-7.15531
-7.18278
-7.2105
-7.23841
-7.26647
-7.29464
-7.32288
-7.35115
-7.37944
-7.4077
-7.43591
-7.46404
-7.49205
-7.5199
-7.54755
-7.57496
-7.60206
-7.62879
-7.6551
-7.68091
-7.70614
-7.7307
-7.7545
-7.77744
-7.79941
-7.8203
-7.83998
-7.85834
-7.87523
-7.89053
-7.90408
-7.91573
-7.92534
-7.93275
-7.93778
-7.94029
-7.94009
-7.93703
-7.93092
-7.9216
-7.90889
-7.89261
-7.87258
-7.84864
-7.82061
-7.78832
-7.75159
-7.71026
-7.66416
-7.61312
-7.557
-7.49562
-7.42885
-7.35652
-7.27851
-7.19467
-7.10486
-7.00898
-6.90688
-6.79849
-6.68369
-6.5624
-6.43455
-6.30009
-6.15895
-6.01111
-5.85652
-5.69516
-5.52705
-5.35218
-5.1706
-4.98234
-4.78747
-4.58606
-4.37821
-4.16404
-3.94367
-3.71724
-3.48492
-3.24688
-3.00331
-2.75441
-2.50041
-2.24153
-1.97802
-1.71014
-1.43815
-1.16232
-0.882943
-0.600301
-0.31469
-0.0264097
0.264238
0.55695
0.851425
1.14736
1.44447
1.74244
2.04101
2.33989
2.6388
2.9375
3.23573
3.53327
3.82989
4.12538
4.41955
4.71223
5.00326
5.29249
5.57978
5.86503
6.14813
6.42897
6.70749
6.9836
7.25724
7.52835
7.79687
8.06273
8.32587
8.58621
8.84368
9.09816
9.34952
9.59763
9.84237
10.0836
10.3213
10.5551
10.7848
11.0102
11.231
11.4469
11.6576
11.8628
12.0623
12.2558
12.4431
12.6241
12.7989
12.9675
13.1309
13.2871
13.4452
13.5612
-6.77716
-6.78397
-6.79143
-6.79749
-6.80177
-6.80471
-6.80669
-6.80798
-6.80884
-6.80951
-6.81027
-6.81136
-6.81303
-6.8155
-6.81898
-6.82361
-6.82956
-6.83692
-6.84578
-6.85621
-6.86825
-6.88191
-6.89715
-6.91392
-6.93211
-6.95161
-6.97228
-6.99401
-7.01667
-7.04019
-7.06446
-7.08939
-7.11487
-7.14082
-7.16716
-7.19382
-7.22076
-7.24791
-7.27525
-7.30274
-7.33034
-7.35803
-7.38578
-7.41356
-7.44134
-7.46909
-7.49676
-7.52433
-7.55174
-7.57894
-7.60589
-7.63251
-7.65874
-7.6845
-7.70971
-7.73428
-7.75813
-7.78113
-7.80319
-7.82418
-7.844
-7.8625
-7.87955
-7.89502
-7.90875
-7.92061
-7.93042
-7.93804
-7.94331
-7.94605
-7.9461
-7.94328
-7.93744
-7.92838
-7.91594
-7.89995
-7.88021
-7.85657
-7.82885
-7.79687
-7.76047
-7.71947
-7.67371
-7.62303
-7.56727
-7.50626
-7.43987
-7.36794
-7.29034
-7.20691
-7.11754
-7.02209
-6.92045
-6.81252
-6.6982
-6.57739
-6.45002
-6.31603
-6.17536
-6.02797
-5.87384
-5.71293
-5.54526
-5.37084
-5.1897
-5.00187
-4.80744
-4.60646
-4.39905
-4.1853
-3.96535
-3.73934
-3.50743
-3.2698
-3.02663
-2.77813
-2.52452
-2.26603
-2.0029
-1.7354
-1.46378
-1.18832
-0.909304
-0.627019
-0.341759
-0.0538261
0.236478
0.528851
0.82299
1.11859
1.41537
1.71302
2.01125
2.3098
2.60839
2.90677
3.20468
3.50189
3.79818
4.09335
4.3872
4.67956
4.97027
5.25918
5.54616
5.8311
6.11389
6.39444
6.67267
6.94852
7.2219
7.49277
7.76107
8.02672
8.28967
8.54985
8.80716
9.0615
9.31276
9.56082
9.80554
10.0468
10.2846
10.5185
10.7484
10.974
11.195
11.4113
11.6224
11.828
12.028
12.2219
12.4096
12.5909
12.7658
12.9341
13.0964
13.2499
13.4034
13.5085
-6.76683
-6.77504
-6.78426
-6.79185
-6.79738
-6.80142
-6.80443
-6.80672
-6.80859
-6.81032
-6.81217
-6.8144
-6.81726
-6.82097
-6.82571
-6.83163
-6.83885
-6.84747
-6.85754
-6.86908
-6.88212
-6.89661
-6.91252
-6.92977
-6.94826
-6.96789
-6.98856
-7.01015
-7.03257
-7.05574
-7.07956
-7.10397
-7.12887
-7.15421
-7.17993
-7.20597
-7.2323
-7.25887
-7.28566
-7.31262
-7.33975
-7.36701
-7.39437
-7.4218
-7.44928
-7.47677
-7.50423
-7.53162
-7.5589
-7.58601
-7.6129
-7.6395
-7.66573
-7.69153
-7.7168
-7.74145
-7.76539
-7.78852
-7.81071
-7.83185
-7.85182
-7.87049
-7.88772
-7.90337
-7.91729
-7.92934
-7.93935
-7.94717
-7.95263
-7.95557
-7.95582
-7.95321
-7.94756
-7.93871
-7.92647
-7.91068
-7.89115
-7.86771
-7.8402
-7.80843
-7.77223
-7.73145
-7.6859
-7.63544
-7.5799
-7.51913
-7.45297
-7.38129
-7.30393
-7.22076
-7.13164
-7.03646
-6.9351
-6.82745
-6.7134
-6.59287
-6.46576
-6.33203
-6.19161
-6.04447
-5.89057
-5.72991
-5.56247
-5.38827
-5.20735
-5.01976
-4.82554
-4.62479
-4.4176
-4.20407
-3.98434
-3.75856
-3.52687
-3.28946
-3.04651
-2.79824
-2.54485
-2.28659
-2.0237
-1.75643
-1.48504
-1.20982
-0.931047
-0.649005
-0.363994
-0.0763143
0.213732
0.505841
0.79971
1.09504
1.39153
1.68889
1.98683
2.28507
2.58335
2.88141
3.17899
3.47587
3.77182
4.06664
4.36015
4.65215
4.9425
5.23105
5.51767
5.80226
6.0847
6.36491
6.64282
6.91834
7.19142
7.46201
7.73003
7.99544
8.25817
8.51814
8.77528
9.02948
9.28065
9.52865
9.77338
10.0147
10.2525
10.4866
10.7167
10.9425
11.1639
11.3804
11.5919
11.7979
11.9983
12.1926
12.3806
12.5622
12.737
12.9047
13.0656
13.2164
13.3658
13.4616
-6.75947
-6.76859
-6.77904
-6.78777
-6.79435
-6.79937
-6.80335
-6.80663
-6.80952
-6.8123
-6.81525
-6.81862
-6.82264
-6.82752
-6.83343
-6.84051
-6.84886
-6.85854
-6.8696
-6.88204
-6.89585
-6.91098
-6.92738
-6.94497
-6.96367
-6.98338
-7.00401
-7.02547
-7.04768
-7.07055
-7.09402
-7.11802
-7.14249
-7.16738
-7.19264
-7.21824
-7.24413
-7.27029
-7.29669
-7.32331
-7.35013
-7.37711
-7.40423
-7.43146
-7.45878
-7.48615
-7.51353
-7.54088
-7.56814
-7.59527
-7.62219
-7.64886
-7.67518
-7.70108
-7.72648
-7.75128
-7.77537
-7.79866
-7.82102
-7.84234
-7.86249
-7.88134
-7.89875
-7.91458
-7.92868
-7.9409
-7.95108
-7.95907
-7.96469
-7.96779
-7.96819
-7.96572
-7.96021
-7.95149
-7.93938
-7.9237
-7.90429
-7.88097
-7.85356
-7.82189
-7.7858
-7.74512
-7.69967
-7.64931
-7.59388
-7.53321
-7.46716
-7.39558
-7.31833
-7.23527
-7.14628
-7.05122
-6.94998
-6.84244
-6.7285
-6.60807
-6.48106
-6.34741
-6.20707
-6.06
-5.90617
-5.74556
-5.57819
-5.40405
-5.22319
-5.03565
-4.8415
-4.64081
-4.43368
-4.22023
-4.00058
-3.77487
-3.54326
-3.30594
-3.06309
-2.81492
-2.56164
-2.3035
-2.04072
-1.77359
-1.50234
-1.22728
-0.948662
-0.666793
-0.381965
-0.0944809
0.195357
0.487245
0.78088
1.07596
1.37219
1.66927
1.96692
2.26486
2.56282
2.86055
3.15778
3.4543
3.74988
4.04432
4.33743
4.62904
4.91899
5.20714
5.49336
5.77754
6.05959
6.33941
6.61693
6.89209
7.16483
7.43508
7.70279
7.96792
8.23039
8.49014
8.74709
9.00115
9.25221
9.50017
9.74492
9.98632
10.2242
10.4584
10.6887
10.9148
11.1365
11.3534
11.5652
11.7717
11.9724
12.167
12.3553
12.5369
12.7115
12.8786
13.038
13.1861
13.3318
13.4197
-6.7558
-6.76538
-6.77647
-6.78591
-6.79323
-6.79903
-6.80383
-6.80797
-6.81177
-6.81551
-6.81944
-6.82382
-6.82886
-6.83475
-6.84164
-6.84967
-6.85891
-6.86942
-6.88122
-6.89431
-6.90867
-6.92424
-6.94096
-6.95877
-6.97758
-6.99731
-7.01789
-7.03922
-7.06125
-7.0839
-7.1071
-7.13082
-7.15499
-7.17957
-7.20454
-7.22985
-7.25548
-7.2814
-7.30759
-7.33403
-7.36069
-7.38756
-7.4146
-7.44178
-7.46909
-7.49647
-7.52389
-7.55131
-7.57866
-7.6059
-7.63296
-7.65978
-7.68626
-7.71234
-7.73792
-7.7629
-7.78719
-7.81066
-7.83322
-7.85473
-7.87506
-7.89409
-7.91167
-7.92766
-7.94191
-7.95428
-7.96459
-7.97269
-7.97843
-7.98162
-7.9821
-7.97971
-7.97426
-7.96559
-7.95353
-7.93789
-7.9185
-7.89519
-7.8678
-7.83614
-7.80005
-7.75936
-7.71391
-7.66354
-7.6081
-7.54742
-7.48136
-7.40977
-7.33252
-7.24946
-7.16046
-7.06539
-6.96414
-6.85658
-6.7426
-6.62212
-6.49506
-6.36136
-6.22096
-6.07382
-5.91992
-5.75925
-5.5918
-5.4176
-5.23668
-5.04908
-4.85487
-4.65412
-4.44695
-4.23346
-4.01378
-3.78805
-3.55643
-3.31911
-3.07627
-2.82811
-2.57487
-2.31677
-2.05406
-1.78699
-1.51584
-1.24088
-0.962384
-0.680652
-0.395979
-0.108667
0.180981
0.47266
0.766066
1.0609
1.35686
1.65365
1.95099
2.2486
2.54621
2.84357
3.14043
3.43655
3.73172
4.02573
4.31841
4.60957
4.89907
5.18676
5.47252
5.75624
6.03783
6.31721
6.5943
6.86904
7.14138
7.41125
7.67862
7.94343
8.20561
8.46512
8.72186
8.97576
9.22672
9.47463
9.71939
9.96086
10.1989
10.4333
10.6638
10.8902
11.1121
11.3294
11.5416
11.7484
11.9494
12.1444
12.3329
12.5145
12.6888
12.855
13.013
13.1585
13.301
13.3822
-6.75594
-6.76554
-6.77675
-6.78647
-6.7942
-6.80053
-6.80593
-6.81075
-6.81527
-6.81978
-6.82451
-6.8297
-6.83554
-6.84221
-6.84985
-6.85857
-6.86845
-6.87952
-6.89181
-6.90531
-6.91999
-6.93581
-6.9527
-6.9706
-6.98944
-7.00914
-7.02964
-7.05087
-7.07275
-7.09523
-7.11827
-7.1418
-7.1658
-7.19022
-7.21504
-7.24022
-7.26575
-7.29159
-7.31773
-7.34415
-7.37082
-7.39773
-7.42483
-7.45211
-7.47953
-7.50706
-7.53464
-7.56223
-7.58977
-7.61722
-7.64449
-7.67151
-7.69822
-7.72451
-7.75031
-7.7755
-7.79999
-7.82367
-7.84641
-7.86809
-7.88859
-7.90776
-7.92548
-7.94159
-7.95594
-7.96839
-7.97877
-7.98693
-7.9927
-7.99591
-7.9964
-7.99399
-7.98852
-7.97982
-7.9677
-7.952
-7.93255
-7.90916
-7.88168
-7.84993
-7.81374
-7.77295
-7.7274
-7.67693
-7.62137
-7.56059
-7.49442
-7.42273
-7.34537
-7.26221
-7.1731
-7.07792
-6.97653
-6.86882
-6.75469
-6.63405
-6.50683
-6.37296
-6.23239
-6.08508
-5.93101
-5.77017
-5.60256
-5.4282
-5.24713
-5.05938
-4.86504
-4.66417
-4.45688
-4.24328
-4.02351
-3.7977
-3.56602
-3.32864
-3.08577
-2.8376
-2.58435
-2.32627
-2.06359
-1.79657
-1.52549
-1.25062
-0.972241
-0.690648
-0.406137
-0.119009
0.170432
0.461882
0.755036
1.04959
1.34525
1.64172
1.93871
2.23596
2.53318
2.83012
3.12654
3.42221
3.71691
4.01044
4.30262
4.59327
4.88225
5.16942
5.45466
5.73786
6.01894
6.29781
6.57441
6.84868
7.12057
7.39002
7.65699
7.92144
8.1833
8.44253
8.69905
8.95277
9.20362
9.45148
9.69624
9.93778
10.1759
10.4105
10.6412
10.8679
11.0902
11.3078
11.5203
11.7275
11.9289
12.1242
12.3128
12.4943
12.6682
12.8337
12.9901
13.1332
13.2728
13.3485
-6.75956
-6.76883
-6.77973
-6.78935
-6.79718
-6.80375
-6.8095
-6.81476
-6.81978
-6.82482
-6.83011
-6.83586
-6.84226
-6.84945
-6.85757
-6.86672
-6.87696
-6.88835
-6.90088
-6.91457
-6.92938
-6.94526
-6.96218
-6.98006
-6.99885
-7.01848
-7.03889
-7.06
-7.08178
-7.10416
-7.1271
-7.15056
-7.1745
-7.19889
-7.22369
-7.24889
-7.27446
-7.30038
-7.32663
-7.35318
-7.38001
-7.40709
-7.43439
-7.46189
-7.48955
-7.51731
-7.54515
-7.573
-7.6008
-7.62851
-7.65603
-7.68331
-7.71026
-7.73678
-7.7628
-7.78819
-7.81287
-7.83671
-7.8596
-7.88142
-7.90202
-7.92128
-7.93906
-7.95522
-7.9696
-7.98204
-7.99241
-8.00052
-8.00623
-8.00937
-8.00976
-8.00725
-8.00166
-7.99282
-7.98055
-7.9647
-7.94507
-7.92151
-7.89385
-7.86191
-7.82554
-7.78456
-7.73881
-7.68815
-7.6324
-7.57142
-7.50507
-7.43319
-7.35565
-7.2723
-7.18299
-7.08759
-6.98596
-6.87801
-6.76364
-6.64275
-6.51528
-6.38117
-6.24035
-6.0928
-5.9385
-5.77743
-5.6096
-5.43503
-5.25375
-5.06582
-4.8713
-4.67027
-4.46283
-4.2491
-4.02921
-3.8033
-3.57154
-3.33411
-3.09119
-2.843
-2.58976
-2.3317
-2.06907
-1.80213
-1.53114
-1.25638
-0.978143
-0.696717
-0.4124
-0.125492
0.163704
0.454882
0.747738
1.04197
1.33727
1.63336
1.92995
2.22676
2.52352
2.81999
3.11591
3.41105
3.70521
3.99818
4.28979
4.57986
4.86825
5.15483
5.43947
5.72209
6.00258
6.28088
6.55693
6.83067
7.10205
7.37102
7.63756
7.9016
8.16311
8.42202
8.67828
8.93181
9.18253
9.43032
9.67509
9.91669
10.155
10.3897
10.6207
10.8476
11.0702
11.2882
11.5011
11.7086
11.9104
12.1059
12.2946
12.476
12.6495
12.8141
12.969
13.11
13.2469
13.318
-6.76607
-6.77476
-6.78503
-6.79423
-6.80188
-6.80842
-6.81426
-6.81969
-6.82494
-6.83025
-6.83584
-6.84189
-6.84856
-6.85601
-6.86434
-6.87366
-6.88402
-6.89548
-6.90804
-6.9217
-6.93646
-6.95226
-6.96907
-6.98684
-7.00551
-7.02502
-7.04531
-7.06634
-7.08804
-7.11038
-7.13331
-7.15678
-7.18076
-7.20523
-7.23016
-7.2555
-7.28126
-7.30738
-7.33387
-7.36067
-7.38778
-7.41516
-7.44277
-7.47058
-7.49855
-7.52663
-7.55478
-7.58293
-7.61103
-7.63901
-7.6668
-7.69432
-7.72148
-7.74821
-7.7744
-7.79994
-7.82474
-7.84868
-7.87164
-7.89349
-7.91411
-7.93336
-7.95111
-7.9672
-7.98148
-7.99382
-8.00405
-8.01201
-8.01755
-8.02049
-8.02068
-8.01795
-8.01212
-8.00304
-7.99052
-7.9744
-7.95452
-7.93069
-7.90276
-7.87055
-7.83391
-7.79266
-7.74666
-7.69573
-7.63972
-7.5785
-7.5119
-7.43978
-7.362
-7.27837
-7.18877
-7.09306
-6.99112
-6.88286
-6.76818
-6.64699
-6.51923
-6.38482
-6.24372
-6.09591
-5.94134
-5.78002
-5.61196
-5.43717
-5.25568
-5.06756
-4.87286
-4.67168
-4.4641
-4.25026
-4.03027
-3.80428
-3.57247
-3.335
-3.09208
-2.84391
-2.59071
-2.33271
-2.07017
-1.80334
-1.5325
-1.25791
-0.97987
-0.698671
-0.41461
-0.127986
0.160895
0.45173
0.744212
1.03804
1.33292
1.62854
1.92465
2.22094
2.51717
2.81307
3.1084
3.40294
3.69647
3.9888
4.27976
4.56917
4.85689
5.14279
5.42677
5.70872
5.98856
6.26622
6.54165
6.81479
7.0856
7.35405
7.62009
7.88368
8.14479
8.40336
8.65934
8.91264
9.1632
9.41091
9.65566
9.89731
10.1357
10.3706
10.6018
10.829
11.0519
11.2702
11.4835
11.6914
11.8935
12.0892
12.278
12.4593
12.6323
12.796
12.9496
13.0884
13.2229
13.2904
-6.77477
-6.78273
-6.79218
-6.80074
-6.80796
-6.81423
-6.81989
-6.8252
-6.8304
-6.83571
-6.8413
-6.84736
-6.85403
-6.86146
-6.86974
-6.87898
-6.88922
-6.90053
-6.91291
-6.92637
-6.94091
-6.95649
-6.97308
-6.99065
-7.00913
-7.02849
-7.04866
-7.0696
-7.09127
-7.11361
-7.13659
-7.16016
-7.18429
-7.20894
-7.23409
-7.2597
-7.28574
-7.31219
-7.33901
-7.36617
-7.39364
-7.42138
-7.44936
-7.47753
-7.50585
-7.53427
-7.56272
-7.59117
-7.61953
-7.64775
-7.67574
-7.70343
-7.73074
-7.75757
-7.78383
-7.80941
-7.83422
-7.85812
-7.88102
-7.90278
-7.92328
-7.94238
-7.95994
-7.97582
-7.98988
-8.00197
-8.01193
-8.0196
-8.02483
-8.02746
-8.02732
-8.02425
-8.01808
-8.00865
-7.99579
-7.97932
-7.95909
-7.93493
-7.90666
-7.87412
-7.83716
-7.7956
-7.74928
-7.69806
-7.64177
-7.58026
-7.51339
-7.441
-7.36289
-7.27893
-7.18897
-7.09291
-6.99064
-6.88204
-6.76703
-6.64553
-6.51746
-6.38276
-6.24138
-6.0933
-5.93849
-5.77694
-5.60866
-5.43367
-5.25201
-5.06373
-4.8689
-4.6676
-4.45994
-4.24603
-4.02599
-3.79999
-3.56819
-3.33076
-3.0879
-2.83981
-2.58672
-2.32887
-2.0665
-1.79987
-1.52925
-1.25492
-0.977173
-0.696291
-0.412578
-0.126333
0.162139
0.452534
0.744546
1.03787
1.33222
1.62729
1.92281
2.21849
2.51408
2.80932
3.10397
3.3978
3.69062
3.98222
4.27243
4.56108
4.84805
5.1332
5.41642
5.69763
5.97674
6.25369
6.52843
6.80091
7.0711
7.33895
7.60445
7.86755
8.12821
8.3864
8.64205
8.8951
9.14547
9.39307
9.63778
9.87946
10.1179
10.353
10.5844
10.8119
11.0351
11.2538
11.4674
11.6756
11.8779
12.0738
12.2627
12.4438
12.6164
12.7792
12.9314
13.0684
13.2006
13.2652
-6.78503
-6.79226
-6.8008
-6.80857
-6.81516
-6.82089
-6.82609
-6.831
-6.83584
-6.84082
-6.8461
-6.85187
-6.85826
-6.86538
-6.87336
-6.88226
-6.89216
-6.90309
-6.9151
-6.92819
-6.94236
-6.95759
-6.97386
-6.99114
-7.00938
-7.02855
-7.04859
-7.06946
-7.09111
-7.1135
-7.13658
-7.16032
-7.18467
-7.20958
-7.23503
-7.26098
-7.28738
-7.31421
-7.34142
-7.36897
-7.39683
-7.42495
-7.45328
-7.48179
-7.51041
-7.53909
-7.56779
-7.59643
-7.62495
-7.65328
-7.68134
-7.70907
-7.73636
-7.76314
-7.78931
-7.81476
-7.83939
-7.8631
-7.88576
-7.90726
-7.92746
-7.94624
-7.96346
-7.97899
-7.99267
-8.00436
-8.01391
-8.02117
-8.02597
-8.02817
-8.0276
-8.0241
-8.0175
-8.00765
-7.99437
-7.9775
-7.95687
-7.93232
-7.90368
-7.87078
-7.83347
-7.79158
-7.74496
-7.69344
-7.63687
-7.57509
-7.50792
-7.43518
-7.3567
-7.27236
-7.18205
-7.08564
-6.98303
-6.87412
-6.7588
-6.63701
-6.50866
-6.37371
-6.23211
-6.08381
-5.92881
-5.7671
-5.59867
-5.42356
-5.2418
-5.05345
-4.85857
-4.65724
-4.44958
-4.23569
-4.01572
-3.7898
-3.5581
-3.32081
-3.07812
-2.83023
-2.57737
-2.31978
-2.05769
-1.79138
-1.52111
-1.24715
-0.969808
-0.689364
-0.406118
-0.120372
0.167571
0.457407
0.74883
1.04154
1.33524
1.62964
1.92445
2.21941
2.51425
2.80872
3.10258
3.3956
3.6876
3.97836
4.26773
4.55554
4.84166
5.12596
5.40835
5.68873
5.96703
6.2432
6.51718
6.78893
7.05843
7.32564
7.59053
7.85309
8.11326
8.37102
8.62631
8.87908
9.12924
9.37669
9.62134
9.86302
10.1016
10.3368
10.5684
10.7961
11.0196
11.2386
11.4525
11.6611
11.8636
12.0597
12.2486
12.4295
12.6015
12.7635
12.9144
13.0496
13.1797
13.2422
-6.79687
-6.80343
-6.81108
-6.81797
-6.82371
-6.82861
-6.83301
-6.83715
-6.84125
-6.84552
-6.85014
-6.85526
-6.86101
-6.86751
-6.87486
-6.88314
-6.89242
-6.90274
-6.91415
-6.92665
-6.94027
-6.95499
-6.9708
-6.98768
-7.00559
-7.0245
-7.04436
-7.06513
-7.08677
-7.10922
-7.13244
-7.15637
-7.18097
-7.20618
-7.23196
-7.25826
-7.28504
-7.31223
-7.33981
-7.36771
-7.39589
-7.4243
-7.45289
-7.48161
-7.51039
-7.5392
-7.56795
-7.59661
-7.62509
-7.65333
-7.68126
-7.70879
-7.73586
-7.76236
-7.78822
-7.81333
-7.83758
-7.86088
-7.8831
-7.90414
-7.92387
-7.94215
-7.95886
-7.97387
-7.98702
-7.99818
-8.0072
-8.01393
-8.01821
-8.01988
-8.0188
-8.0148
-8.00772
-7.9974
-7.98367
-7.96637
-7.94533
-7.92039
-7.89139
-7.85815
-7.82053
-7.77835
-7.73147
-7.67971
-7.62288
-7.5608
-7.49327
-7.42016
-7.34132
-7.25665
-7.16603
-7.06932
-6.96644
-6.85727
-6.74172
-6.61972
-6.49119
-6.35608
-6.21433
-6.06593
-5.91085
-5.74907
-5.58062
-5.4055
-5.22377
-5.03547
-4.84067
-4.63946
-4.43194
-4.21822
-3.99844
-3.77275
-3.54132
-3.30432
-3.06195
-2.81441
-2.56193
-2.30475
-2.04311
-1.77727
-1.5075
-1.23409
-0.957311
-0.677463
-0.394844
-0.109754
0.177503
0.466624
0.757304
1.04924
1.34215
1.63572
1.92969
2.22378
2.51773
2.81129
3.10423
3.39632
3.68737