/*--------------------------------*- C++ -*----------------------------------*\
  =========                 |
  \\      /  F ield         | OpenFOAM: The Open Source CFD Toolbox
   \\    /   O peration     | Website:  https://openfoam.org
    \\  /    A nd           | Version:  12
     \\/     M anipulation  |
\*---------------------------------------------------------------------------*/
FoamFile
{
    format      ascii;
    class       surfaceScalarField;
    location    "0.1";
    object      phi;
}
// * * * * * * * * * * * * * * * * * * * * * * * * * * * * * * * * * * * * * //

dimensions      [0 3 -1 0 0 0 0];

internalField   nonuniform List<scalar> 
24170
(
3.13359e-06
5.48131e-08
3.04825e-06
8.53441e-08
2.9731e-06
7.5152e-08
2.90422e-06
6.88745e-08
2.83934e-06
6.48812e-08
2.78206e-06
5.7286e-08
2.73308e-06
4.89795e-08
2.69145e-06
4.16223e-08
2.65589e-06
3.55602e-08
2.62522e-06
3.06728e-08
2.59846e-06
2.67642e-08
2.57478e-06
2.36771e-08
2.55348e-06
2.13036e-08
2.53382e-06
1.96579e-08
2.51507e-06
1.87431e-08
2.49512e-06
1.99532e-08
2.47251e-06
2.26159e-08
4.41746e-08
2.42833e-06
3.45361e-06
1.84517e-08
3.45616e-06
8.27971e-08
3.4496e-06
8.17095e-08
3.43796e-06
8.0515e-08
3.42344e-06
7.93971e-08
3.40587e-06
7.48639e-08
3.38619e-06
6.86568e-08
3.36522e-06
6.25867e-08
3.34374e-06
5.70429e-08
3.32234e-06
5.2071e-08
3.30142e-06
4.76837e-08
3.2812e-06
4.38998e-08
3.26178e-06
4.0724e-08
3.24313e-06
3.8306e-08
3.2253e-06
3.65724e-08
3.2081e-06
3.71558e-08
3.1925e-06
3.82205e-08
5.15446e-08
3.18513e-06
3.66535e-06
1.56181e-08
3.67824e-06
6.99073e-08
3.68529e-06
7.46642e-08
3.68954e-06
7.62561e-08
3.69119e-06
7.77533e-08
3.69002e-06
7.60346e-08
3.68652e-06
7.21574e-08
3.68126e-06
6.78433e-08
3.67467e-06
6.3632e-08
3.6671e-06
5.96465e-08
3.65881e-06
5.59697e-08
3.65002e-06
5.26911e-08
3.64086e-06
4.98807e-08
3.63144e-06
4.77302e-08
3.62172e-06
4.62908e-08
3.61219e-06
4.66843e-08
3.60241e-06
4.80009e-08
5.46483e-08
3.59931e-06
3.92464e-06
1.63616e-08
3.93579e-06
5.87668e-08
3.94251e-06
6.79386e-08
3.94796e-06
7.0806e-08
3.95234e-06
7.33747e-08
3.95522e-06
7.31567e-08
3.95672e-06
7.06568e-08
3.95714e-06
6.7425e-08
3.95666e-06
6.41098e-08
3.95543e-06
6.08757e-08
3.95358e-06
5.78236e-08
3.9512e-06
5.50668e-08
3.94838e-06
5.27053e-08
3.94518e-06
5.09213e-08
3.94165e-06
4.98258e-08
3.93828e-06
5.00571e-08
3.93508e-06
5.11984e-08
5.44906e-08
3.93524e-06
4.20776e-06
1.57258e-08
4.21598e-06
5.05472e-08
4.22163e-06
6.22944e-08
4.22653e-06
6.59015e-08
4.23119e-06
6.87114e-08
4.23511e-06
6.92446e-08
4.23815e-06
6.76161e-08
4.24045e-06
6.51218e-08
4.24212e-06
6.24359e-08
4.24325e-06
5.97482e-08
4.24391e-06
5.71677e-08
4.24416e-06
5.4816e-08
4.24406e-06
5.28046e-08
4.24369e-06
5.12876e-08
4.24315e-06
5.03733e-08
4.24282e-06
5.03812e-08
4.24296e-06
5.10601e-08
5.2506e-08
4.24494e-06
4.51044e-06
1.43778e-08
4.51684e-06
4.41377e-08
4.52213e-06
5.70041e-08
4.52677e-06
6.12713e-08
4.53134e-06
6.41357e-08
4.53548e-06
6.51003e-08
4.53901e-06
6.40891e-08
4.54199e-06
6.21463e-08
4.54449e-06
5.99327e-08
4.54658e-06
5.76617e-08
4.5483e-06
5.5448e-08
4.5497e-06
5.34131e-08
4.55084e-06
5.16662e-08
4.5518e-06
5.03274e-08
4.5527e-06
4.94742e-08
4.55384e-06
4.92344e-08
4.55551e-06
4.93986e-08
4.97001e-08
4.55831e-06
4.83412e-06
1.29818e-08
4.83956e-06
3.86923e-08
4.84479e-06
5.17744e-08
4.84935e-06
5.67115e-08
4.85382e-06
5.96652e-08
4.858e-06
6.092e-08
4.86171e-06
6.03825e-08
4.86497e-06
5.88815e-08
4.86786e-06
5.7045e-08
4.87041e-06
5.5108e-08
4.87267e-06
5.31902e-08
4.87468e-06
5.14071e-08
4.87649e-06
4.98578e-08
4.87818e-06
4.86296e-08
4.87989e-06
4.77643e-08
4.88185e-06
4.72808e-08
4.88426e-06
4.6986e-08
4.6561e-08
4.8874e-06
5.1809e-06
1.1667e-08
5.18569e-06
3.39017e-08
5.1908e-06
4.66628e-08
5.19535e-06
5.21641e-08
5.19977e-06
5.52418e-08
5.20398e-06
5.67095e-08
5.2078e-06
5.65585e-08
5.21125e-06
5.54367e-08
5.21437e-06
5.39226e-08
5.21721e-06
5.22682e-08
5.2198e-06
5.0598e-08
5.22219e-06
4.90188e-08
5.22443e-06
4.76168e-08
5.22661e-06
4.64518e-08
5.22884e-06
4.55362e-08
5.23128e-06
4.48342e-08
5.2341e-06
4.41746e-08
4.32918e-08
5.23736e-06
5.5526e-06
1.04088e-08
5.55683e-06
2.96663e-08
5.56173e-06
4.17686e-08
5.56626e-06
4.76289e-08
5.57068e-06
5.08259e-08
5.57493e-06
5.24516e-08
5.57887e-06
5.26212e-08
5.58247e-06
5.18364e-08
5.58578e-06
5.06109e-08
5.58885e-06
4.92059e-08
5.59169e-06
4.77498e-08
5.59437e-06
4.63404e-08
5.59694e-06
4.50508e-08
5.59947e-06
4.39206e-08
5.60206e-06
4.29432e-08
5.60483e-06
4.20623e-08
5.60787e-06
4.11363e-08
3.99755e-08
5.61119e-06
5.95098e-06
9.20401e-09
5.95474e-06
2.59088e-08
5.95937e-06
3.71363e-08
5.96387e-06
4.31264e-08
5.96829e-06
4.64091e-08
5.9726e-06
4.81465e-08
5.97664e-06
4.85742e-08
5.98039e-06
4.80853e-08
5.98388e-06
4.71209e-08
5.98715e-06
4.59399e-08
5.99023e-06
4.46733e-08
5.99316e-06
4.34102e-08
5.996e-06
4.22116e-08
5.99881e-06
4.11041e-08
6.00168e-06
4.00725e-08
6.00468e-06
3.90601e-08
6.00786e-06
3.7958e-08
3.66451e-08
6.01119e-06
6.37795e-06
8.06596e-09
6.38131e-06
2.25514e-08
6.38567e-06
3.27744e-08
6.39012e-06
3.86807e-08
6.39453e-06
4.19963e-08
6.39887e-06
4.3803e-08
6.40302e-06
4.44261e-08
6.40692e-06
4.41874e-08
6.41058e-06
4.34555e-08
6.41405e-06
4.24758e-08
6.41734e-06
4.13786e-08
6.42051e-06
4.02449e-08
6.42359e-06
3.91264e-08
6.42665e-06
3.80423e-08
6.42975e-06
3.69767e-08
6.43293e-06
3.58826e-08
6.4362e-06
3.46825e-08
3.3308e-08
6.43954e-06
5.74174e-06
7.1555e-09
5.74432e-06
1.99785e-08
5.7478e-06
2.92937e-08
5.7515e-06
3.49808e-08
5.75522e-06
3.82728e-08
5.75892e-06
4.01088e-08
5.76249e-06
4.08501e-08
5.7659e-06
4.07839e-08
5.76913e-06
4.02249e-08
5.7722e-06
3.93983e-08
5.77515e-06
3.84306e-08
5.778e-06
3.73972e-08
5.78078e-06
3.63437e-08
5.78354e-06
3.52864e-08
5.7863e-06
3.42126e-08
5.7891e-06
3.30866e-08
5.79193e-06
3.18536e-08
3.04793e-08
5.79476e-06
6.99913e-06
6.18259e-09
7.00185e-06
1.72577e-08
7.00562e-06
2.55272e-08
7.00975e-06
3.08425e-08
7.014e-06
3.4028e-08
7.01826e-06
3.5851e-08
7.02243e-06
3.66796e-08
7.02644e-06
3.67687e-08
7.03029e-06
3.63779e-08
7.03398e-06
3.57063e-08
7.03754e-06
3.48729e-08
7.04099e-06
3.39468e-08
7.04436e-06
3.29686e-08
7.0477e-06
3.1954e-08
7.05101e-06
3.08961e-08
7.05433e-06
2.97727e-08
7.05763e-06
2.85501e-08
2.72211e-08
7.06089e-06
8.53187e-06
5.15623e-09
8.53472e-06
1.44145e-08
8.53874e-06
2.15008e-08
8.54332e-06
2.62704e-08
8.54811e-06
2.92369e-08
8.55297e-06
3.0983e-08
8.5578e-06
3.185e-08
8.56251e-06
3.2061e-08
8.56707e-06
3.18223e-08
8.57147e-06
3.1301e-08
8.57574e-06
3.06039e-08
8.57989e-06
2.97936e-08
8.58396e-06
2.89065e-08
8.58795e-06
2.79592e-08
8.5919e-06
2.69521e-08
8.59579e-06
2.5876e-08
8.59963e-06
2.4715e-08
2.348e-08
8.60337e-06
1.04003e-05
4.08659e-09
1.04032e-05
1.14654e-08
1.04075e-05
1.7231e-08
1.04125e-05
2.12678e-08
1.04179e-05
2.38739e-08
1.04234e-05
2.54544e-08
1.0429e-05
2.62925e-08
1.04344e-05
2.65748e-08
1.04398e-05
2.64591e-08
1.0445e-05
2.60761e-08
1.04501e-05
2.55155e-08
1.04551e-05
2.4832e-08
1.04599e-05
2.40583e-08
1.04647e-05
2.3212e-08
1.04693e-05
2.23002e-08
1.04739e-05
2.13239e-08
1.04783e-05
2.02798e-08
1.91893e-08
1.04826e-05
1.26779e-05
2.9786e-09
1.2681e-05
8.39998e-09
1.26855e-05
1.27062e-08
1.26909e-05
1.58189e-08
1.26969e-05
1.78988e-08
1.27032e-05
1.91988e-08
1.27095e-05
1.99226e-08
1.27159e-05
2.02116e-08
1.27222e-05
2.01782e-08
1.27283e-05
1.99155e-08
1.27344e-05
1.94913e-08
1.27402e-05
1.89497e-08
1.2746e-05
1.83185e-08
1.27516e-05
1.76149e-08
1.2757e-05
1.68495e-08
1.27623e-05
1.60298e-08
1.27675e-05
1.51594e-08
1.42636e-08
1.27724e-05
1.54543e-05
1.82012e-09
1.54576e-05
5.16453e-09
1.54624e-05
7.85449e-09
1.54684e-05
9.84739e-09
1.54751e-05
1.12202e-08
1.54822e-05
1.21043e-08
1.54895e-05
1.26157e-08
1.54968e-05
1.28397e-08
1.55042e-05
1.28432e-08
1.55114e-05
1.26817e-08
1.55185e-05
1.2397e-08
1.55254e-05
1.20185e-08
1.55322e-05
1.15656e-08
1.55388e-05
1.10524e-08
1.55451e-05
1.04891e-08
1.55513e-05
9.88457e-09
1.55572e-05
9.24458e-09
8.59334e-09
1.55628e-05
1.88389e-05
5.68245e-10
1.88424e-05
1.62408e-09
1.88478e-05
2.48378e-09
1.88545e-05
3.14011e-09
1.88621e-05
3.617e-09
1.88703e-05
3.94504e-09
1.88787e-05
4.14724e-09
1.88873e-05
4.24227e-09
1.88959e-05
4.24789e-09
1.89044e-05
4.17962e-09
1.89128e-05
4.04944e-09
1.89209e-05
3.86647e-09
1.89289e-05
3.63805e-09
1.89365e-05
3.37051e-09
1.8944e-05
3.06963e-09
1.89511e-05
2.74152e-09
1.8958e-05
2.39029e-09
2.03547e-09
1.89645e-05
2.29648e-05
-8.86085e-10
2.29689e-05
-2.52766e-09
2.29753e-05
-3.85015e-09
2.29832e-05
-4.80816e-09
2.29923e-05
-5.41676e-09
2.3002e-05
-5.76175e-09
2.3012e-05
-5.93609e-09
2.30223e-05
-5.99851e-09
2.30325e-05
-5.98611e-09
2.30426e-05
-5.93065e-09
2.30525e-05
-5.85799e-09
2.30622e-05
-5.78488e-09
2.30716e-05
-5.72069e-09
2.30806e-05
-5.67049e-09
2.30893e-05
-5.63663e-09
2.30977e-05
-5.61894e-09
2.31057e-05
-5.61732e-09
-5.619e-09
2.31133e-05
1.68119e-05
-2.03891e-09
1.68151e-05
-5.78294e-09
1.68201e-05
-8.81128e-09
1.68262e-05
-1.09776e-08
1.68332e-05
-1.23292e-08
1.68405e-05
-1.30997e-08
1.68481e-05
-1.34926e-08
1.68557e-05
-1.36162e-08
1.68632e-05
-1.35457e-08
1.68706e-05
-1.3352e-08
1.68779e-05
-1.30904e-08
1.68849e-05
-1.27957e-08
1.68917e-05
-1.24887e-08
1.68982e-05
-1.21829e-08
1.69044e-05
-1.18866e-08
1.69104e-05
-1.16038e-08
1.69161e-05
-1.13368e-08
-1.10771e-08
1.69216e-05
1.46357e-05
-3.15532e-09
1.46389e-05
-8.96351e-09
1.46437e-05
-1.36694e-08
1.46497e-05
-1.69055e-08
1.46561e-05
-1.88172e-08
1.46629e-05
-1.98785e-08
1.46698e-05
-2.03915e-08
1.46767e-05
-2.04902e-08
1.46834e-05
-2.02948e-08
1.469e-05
-1.99217e-08
1.46964e-05
-1.94505e-08
1.47025e-05
-1.89268e-08
1.47084e-05
-1.83795e-08
1.4714e-05
-1.78289e-08
1.47194e-05
-1.72879e-08
1.47246e-05
-1.67631e-08
1.47295e-05
-1.62583e-08
-1.57678e-08
1.47342e-05
1.27412e-05
-4.21082e-09
1.27444e-05
-1.21945e-08
1.27494e-05
-1.86595e-08
1.27552e-05
-2.27435e-08
1.27614e-05
-2.49855e-08
1.27678e-05
-2.62301e-08
1.27742e-05
-2.6781e-08
1.27804e-05
-2.67653e-08
1.27865e-05
-2.63747e-08
1.27924e-05
-2.57806e-08
1.2798e-05
-2.50782e-08
1.28034e-05
-2.43173e-08
1.28085e-05
-2.35322e-08
1.28135e-05
-2.27479e-08
1.28182e-05
-2.19791e-08
1.28226e-05
-2.12334e-08
1.28269e-05
-2.05146e-08
-1.98184e-08
1.28309e-05
1.10918e-05
-5.09472e-09
1.10952e-05
-1.55354e-08
1.11005e-05
-2.39847e-08
1.11063e-05
-2.85649e-08
1.11122e-05
-3.08759e-08
1.11182e-05
-3.2207e-08
1.11241e-05
-3.27059e-08
1.11298e-05
-3.24921e-08
1.11353e-05
-3.18571e-08
1.11405e-05
-3.10176e-08
1.11455e-05
-3.00708e-08
1.11503e-05
-2.90682e-08
1.11548e-05
-2.80495e-08
1.11591e-05
-2.70421e-08
1.11632e-05
-2.60612e-08
1.11671e-05
-2.51133e-08
1.11707e-05
-2.42016e-08
-2.33223e-08
1.11742e-05
9.65583e-06
-5.71468e-09
9.65938e-06
-1.90765e-08
9.665e-06
-2.96123e-08
9.67072e-06
-3.42835e-08
9.6764e-06
-3.65583e-08
9.68209e-06
-3.78936e-08
9.68758e-06
-3.81981e-08
9.69278e-06
-3.76915e-08
9.69771e-06
-3.67812e-08
9.70238e-06
-3.56897e-08
9.70681e-06
-3.44972e-08
9.71099e-06
-3.32549e-08
9.71495e-06
-3.20078e-08
9.71869e-06
-3.07853e-08
9.72223e-06
-2.96015e-08
9.72558e-06
-2.84623e-08
9.72875e-06
-2.73688e-08
-2.6316e-08
9.73174e-06
8.40544e-06
-5.80001e-09
8.40983e-06
-2.34658e-08
8.41535e-06
-3.51385e-08
8.42057e-06
-3.95044e-08
8.42604e-06
-4.20262e-08
8.43156e-06
-4.34089e-08
8.43676e-06
-4.33983e-08
8.44157e-06
-4.25062e-08
8.44606e-06
-4.12689e-08
8.45026e-06
-3.98862e-08
8.45417e-06
-3.84156e-08
8.45783e-06
-3.69092e-08
8.46124e-06
-3.5415e-08
8.46441e-06
-3.39618e-08
8.46737e-06
-3.25633e-08
8.47014e-06
-3.12254e-08
8.47272e-06
-2.99488e-08
-2.87293e-08
8.47513e-06
7.31506e-06
-3.57795e-09
7.32196e-06
-3.03631e-08
7.32743e-06
-4.06079e-08
7.33222e-06
-4.42985e-08
7.33757e-06
-4.73702e-08
7.34298e-06
-4.88202e-08
7.34798e-06
-4.84021e-08
7.35251e-06
-4.70339e-08
7.3566e-06
-4.53628e-08
7.36028e-06
-4.35672e-08
7.36358e-06
-4.17064e-08
7.36651e-06
-3.98436e-08
7.36912e-06
-3.80285e-08
7.37145e-06
-3.62869e-08
7.37352e-06
-3.46307e-08
7.37535e-06
-3.30643e-08
7.37699e-06
-3.15848e-08
-3.01857e-08
7.37845e-06
6.36222e-06
4.26314e-09
6.37296e-06
-4.10985e-08
6.3801e-06
-4.77503e-08
6.3863e-06
-5.04995e-08
6.3923e-06
-5.33653e-08
6.39762e-06
-5.41376e-08
6.40201e-06
-5.27946e-08
6.40562e-06
-5.0648e-08
6.40857e-06
-4.83117e-08
6.4109e-06
-4.5898e-08
6.41267e-06
-4.34746e-08
6.41395e-06
-4.11193e-08
6.4148e-06
-3.88806e-08
6.41529e-06
-3.6778e-08
6.41548e-06
-3.48183e-08
6.41542e-06
-3.30025e-08
6.41515e-06
-3.13223e-08
-2.97572e-08
6.41472e-06
5.53608e-06
1.36451e-08
5.54776e-06
-5.27804e-08
5.55746e-06
-5.74497e-08
5.56605e-06
-5.9085e-08
5.57284e-06
-6.01529e-08
5.57728e-06
-5.85822e-08
5.57946e-06
-5.49684e-08
5.57992e-06
-5.11127e-08
5.5791e-06
-4.74899e-08
5.57727e-06
-4.40713e-08
5.57466e-06
-4.08646e-08
5.57145e-06
-3.79075e-08
5.56778e-06
-3.52135e-08
5.56378e-06
-3.27741e-08
5.55954e-06
-3.0575e-08
5.55515e-06
-2.86131e-08
5.5507e-06
-2.68794e-08
-2.53125e-08
5.54626e-06
4.85751e-06
-1.62556e-08
4.86091e-06
-5.61862e-08
4.86152e-06
-5.80509e-08
4.85886e-06
-5.64298e-08
4.85487e-06
-5.61609e-08
4.84819e-06
-5.19067e-08
4.83896e-06
-4.57384e-08
4.82774e-06
-3.98887e-08
4.81516e-06
-3.4911e-08
4.80182e-06
-3.07283e-08
4.78816e-06
-2.72045e-08
4.77449e-06
-2.42364e-08
4.76101e-06
-2.17333e-08
4.74785e-06
-1.9616e-08
4.73509e-06
-1.78215e-08
4.72282e-06
-1.63399e-08
4.71114e-06
-1.51976e-08
-1.4888e-08
4.70071e-06
4.18642e-06
4.13023e-06
4.07218e-06
4.01575e-06
3.95959e-06
3.90769e-06
3.86195e-06
3.82206e-06
3.78715e-06
3.75642e-06
3.72922e-06
3.70498e-06
3.68325e-06
3.66363e-06
3.64581e-06
3.62947e-06
3.61427e-06
3.59938e-06
1.11543e-08
-1.11543e-08
2.95542e-08
-1.83999e-08
4.85852e-08
-1.90311e-08
6.50327e-08
-1.64475e-08
7.7039e-08
-1.20063e-08
8.36059e-08
-6.5669e-09
8.42978e-08
-6.91942e-10
7.91471e-08
5.15079e-09
6.86399e-08
1.05072e-08
5.35363e-08
1.51036e-08
3.47344e-08
1.88019e-08
1.3131e-08
2.16033e-08
-1.0485e-08
2.36161e-08
-3.55493e-08
2.50643e-08
-6.17427e-08
2.61933e-08
-8.89484e-08
2.72058e-08
-1.172e-07
2.82514e-08
-1.46618e-07
2.94183e-08
-1.77376e-07
3.07578e-08
-2.09639e-07
3.22634e-08
-2.43512e-07
3.38726e-08
-2.80488e-07
3.69763e-08
-3.19617e-07
3.91283e-08
-3.60181e-07
4.05643e-08
-4.02616e-07
4.24347e-08
-4.47236e-07
4.46201e-08
-4.93352e-07
4.61164e-08
-5.41494e-07
4.81414e-08
-5.94752e-07
5.32588e-08
-6.49299e-07
5.45468e-08
-7.02304e-07
5.30044e-08
-7.52773e-07
5.04694e-08
-8.00492e-07
4.77195e-08
-8.49178e-07
4.86851e-08
-8.97721e-07
4.85431e-08
-9.45694e-07
4.79735e-08
-9.92866e-07
4.71714e-08
-1.03912e-06
4.62589e-08
-1.08444e-06
4.53153e-08
-1.12883e-06
4.43898e-08
-1.17234e-06
4.3512e-08
-1.21504e-06
4.26989e-08
-1.257e-06
4.19585e-08
-1.29829e-06
4.12932e-08
-1.33899e-06
4.0701e-08
-1.37917e-06
4.01777e-08
-1.41889e-06
3.97169e-08
-1.4582e-06
3.93115e-08
-1.49715e-06
3.89537e-08
-1.53579e-06
3.86355e-08
-1.57414e-06
3.83491e-08
-1.61222e-06
3.80868e-08
-1.65007e-06
3.78412e-08
-1.68767e-06
3.76054e-08
-1.72504e-06
3.73728e-08
-1.76218e-06
3.71377e-08
-1.79908e-06
3.68945e-08
-1.83571e-06
3.66382e-08
-1.87208e-06
3.63645e-08
-1.90815e-06
3.60693e-08
-1.9439e-06
3.57491e-08
-1.9793e-06
3.54009e-08
-2.01432e-06
3.5022e-08
-2.04893e-06
3.461e-08
-2.08309e-06
3.41631e-08
-2.11677e-06
3.36797e-08
-2.14993e-06
3.31585e-08
-2.18253e-06
3.25983e-08
-2.21453e-06
3.19986e-08
-2.24589e-06
3.13586e-08
-2.27657e-06
3.06781e-08
-2.30652e-06
2.99569e-08
-2.33572e-06
2.91949e-08
-2.36411e-06
2.83923e-08
-2.39166e-06
2.75492e-08
-2.41832e-06
2.6666e-08
-2.44407e-06
2.5743e-08
-2.46885e-06
2.47806e-08
-2.49263e-06
2.37792e-08
-2.51537e-06
2.27392e-08
-2.53703e-06
2.16608e-08
-2.55757e-06
2.05441e-08
-2.57696e-06
1.93894e-08
-2.59516e-06
1.81961e-08
-2.61212e-06
1.69639e-08
-2.62781e-06
1.56916e-08
-2.64219e-06
1.43779e-08
-2.65521e-06
1.30203e-08
-2.66683e-06
1.16157e-08
-2.67699e-06
1.01597e-08
-2.68563e-06
8.64483e-09
-2.69269e-06
7.06147e-09
-2.69809e-06
5.39481e-09
-2.70172e-06
3.63728e-09
-2.70353e-06
1.8053e-09
-2.70336e-06
-1.73712e-10
-2.70159e-06
-1.76535e-09
-2.69828e-06
-3.30968e-09
-2.69346e-06
-4.82397e-09
-2.68712e-06
-6.33223e-09
-2.67928e-06
-7.84742e-09
-2.66991e-06
-9.37218e-09
-2.659e-06
-1.09061e-08
-2.64655e-06
-1.24477e-08
-2.63256e-06
-1.3995e-08
-2.61701e-06
-1.55457e-08
-2.59991e-06
-1.70976e-08
-2.58126e-06
-1.86484e-08
-2.56107e-06
-2.01959e-08
-2.53933e-06
-2.17376e-08
-2.51606e-06
-2.32713e-08
-2.49126e-06
-2.47948e-08
-2.46496e-06
-2.63056e-08
-2.43716e-06
-2.78016e-08
-2.40788e-06
-2.92805e-08
-2.37714e-06
-3.07403e-08
-2.34496e-06
-3.21786e-08
-2.31136e-06
-3.35937e-08
-2.27638e-06
-3.49835e-08
-2.24003e-06
-3.63463e-08
-2.20235e-06
-3.76804e-08
-2.16337e-06
-3.89842e-08
-2.12311e-06
-4.02563e-08
-2.08162e-06
-4.14953e-08
-2.03892e-06
-4.27e-08
-1.99505e-06
-4.38695e-08
-1.95005e-06
-4.50031e-08
-1.90395e-06
-4.61003e-08
-1.85679e-06
-4.71606e-08
-1.8086e-06
-4.81842e-08
-1.75943e-06
-4.91711e-08
-1.70931e-06
-5.01216e-08
-1.65827e-06
-5.10363e-08
-1.60636e-06
-5.19161e-08
-1.55359e-06
-5.27622e-08
-1.50002e-06
-5.35759e-08
-1.44566e-06
-5.43589e-08
-1.39055e-06
-5.51128e-08
-1.33471e-06
-5.58395e-08
-1.27817e-06
-5.65413e-08
-1.22094e-06
-5.72204e-08
-1.16307e-06
-5.78791e-08
-1.10455e-06
-5.85198e-08
-1.0454e-06
-5.91448e-08
-9.85645e-07
-5.97566e-08
-9.25287e-07
-6.03572e-08
-8.64339e-07
-6.09488e-08
-8.02806e-07
-6.15331e-08
-7.40694e-07
-6.21113e-08
-6.7801e-07
-6.26847e-08
-6.14756e-07
-6.32536e-08
-5.50938e-07
-6.38179e-08
-4.86561e-07
-6.43771e-08
-4.21632e-07
-6.49289e-08
-3.56161e-07
-6.5471e-08
-2.90161e-07
-6.59999e-08
-2.23652e-07
-6.6509e-08
-1.56655e-07
-6.69974e-08
-8.91922e-08
-6.74627e-08
-2.1314e-08
-6.78781e-08
4.69502e-08
-6.82642e-08
1.15609e-07
-6.86585e-08
1.84649e-07
-6.90406e-08
2.54055e-07
-6.9406e-08
3.23791e-07
-6.97356e-08
3.93801e-07
-7.00106e-08
4.64015e-07
-7.02137e-08
5.34342e-07
-7.03271e-08
6.04673e-07
-7.03309e-08
6.74874e-07
-7.02012e-08
7.44781e-07
-6.99066e-08
8.14185e-07
-6.94043e-08
8.82815e-07
-6.86296e-08
9.50295e-07
-6.74799e-08
1.01606e-06
-6.57636e-08
1.07919e-06
-6.31293e-08
1.13776e-06
-5.85753e-08
1.18784e-06
-5.00761e-08
1.21655e-06
-2.87107e-08
2.74439e-08
1.18911e-06
1.91503e-08
-3.03046e-08
3.58472e-08
-3.50968e-08
4.63546e-08
-2.95385e-08
5.14451e-08
-2.1538e-08
5.1941e-08
-1.25021e-08
4.83868e-08
-3.0127e-09
4.11595e-08
6.53531e-09
3.04918e-08
1.58185e-08
1.64559e-08
2.45431e-08
-8.93248e-10
3.24527e-08
-2.14666e-08
3.93752e-08
-4.51237e-08
4.52605e-08
-7.17171e-08
5.02095e-08
-1.01095e-07
5.4442e-08
-1.33143e-07
5.82418e-08
-1.67821e-07
6.18831e-08
-2.05155e-07
6.55855e-08
-2.45233e-07
6.94962e-08
-2.88165e-07
7.36898e-08
-3.34052e-07
7.81506e-08
-3.8297e-07
8.2791e-08
-4.33576e-07
8.75817e-08
-4.86496e-07
9.20482e-08
-5.4146e-07
9.55285e-08
-5.97617e-07
9.85917e-08
-6.5397e-07
1.00974e-07
-7.10662e-07
1.02808e-07
-7.66636e-07
1.04116e-07
-8.18834e-07
1.05457e-07
-8.69787e-07
1.055e-07
-9.20449e-07
1.03666e-07
-9.70972e-07
1.00993e-07
-1.02124e-06
9.79844e-08
-1.06828e-06
9.57303e-08
-1.1133e-06
9.35608e-08
-1.15673e-06
9.14076e-08
-1.19887e-06
8.93118e-08
-1.23992e-06
8.73084e-08
-1.28003e-06
8.54254e-08
-1.31933e-06
8.36809e-08
-1.3579e-06
8.20839e-08
-1.39583e-06
8.06359e-08
-1.43321e-06
7.93325e-08
-1.47008e-06
7.81649e-08
-1.5065e-06
7.71216e-08
-1.54251e-06
7.61893e-08
-1.57815e-06
7.53534e-08
-1.61344e-06
7.45993e-08
-1.6484e-06
7.39122e-08
-1.68304e-06
7.32778e-08
-1.71737e-06
7.26824e-08
-1.7514e-06
7.2113e-08
-1.78511e-06
7.15576e-08
-1.81851e-06
7.10049e-08
-1.85158e-06
7.04446e-08
-1.88431e-06
6.98676e-08
-1.91668e-06
6.92651e-08
-1.94868e-06
6.86297e-08
-1.98027e-06
6.79547e-08
-2.01143e-06
6.7234e-08
-2.04214e-06
6.64625e-08
-2.07238e-06
6.56357e-08
-2.10211e-06
6.47496e-08
-2.1313e-06
6.38011e-08
-2.15992e-06
6.27873e-08
-2.18795e-06
6.17062e-08
-2.21535e-06
6.05559e-08
-2.24208e-06
5.93351e-08
-2.26813e-06
5.80428e-08
-2.29345e-06
5.66784e-08
-2.31801e-06
5.52416e-08
-2.34179e-06
5.37323e-08
-2.36474e-06
5.21506e-08
-2.38685e-06
5.04968e-08
-2.40807e-06
4.87714e-08
-2.42838e-06
4.69751e-08
-2.44774e-06
4.51084e-08
-2.46613e-06
4.31721e-08
-2.48352e-06
4.11671e-08
-2.49988e-06
3.90939e-08
-2.51517e-06
3.69532e-08
-2.52937e-06
3.47457e-08
-2.54245e-06
3.24717e-08
-2.55439e-06
3.01315e-08
-2.56515e-06
2.77252e-08
-2.57471e-06
2.52528e-08
-2.58305e-06
2.2714e-08
-2.59014e-06
2.01083e-08
-2.59596e-06
1.74357e-08
-2.60049e-06
1.4696e-08
-2.60374e-06
1.18902e-08
-2.6057e-06
9.02131e-09
-2.6064e-06
6.09633e-09
-2.60589e-06
3.12739e-09
-2.6043e-06
2.13717e-10
-2.60167e-06
-2.80544e-09
-2.59773e-06
-5.69616e-09
-2.59242e-06
-8.62107e-09
-2.58567e-06
-1.15767e-08
-2.57744e-06
-1.45583e-08
-2.56773e-06
-1.75652e-08
-2.5565e-06
-2.05949e-08
-2.54377e-06
-2.36438e-08
-2.52951e-06
-2.67082e-08
-2.51372e-06
-2.97835e-08
-2.4964e-06
-3.28654e-08
-2.47755e-06
-3.59494e-08
-2.45716e-06
-3.90308e-08
-2.43525e-06
-4.2105e-08
-2.41182e-06
-4.51676e-08
-2.38688e-06
-4.82138e-08
-2.36044e-06
-5.12391e-08
-2.3325e-06
-5.4239e-08
-2.3031e-06
-5.72089e-08
-2.27223e-06
-6.01444e-08
-2.23993e-06
-6.30412e-08
-2.20622e-06
-6.58951e-08
-2.17111e-06
-6.87021e-08
-2.13463e-06
-7.14583e-08
-2.09682e-06
-7.41602e-08
-2.05769e-06
-7.68045e-08
-2.01729e-06
-7.93879e-08
-1.97564e-06
-8.19075e-08
-1.93277e-06
-8.43607e-08
-1.88873e-06
-8.67452e-08
-1.84354e-06
-8.90589e-08
-1.79724e-06
-9.13004e-08
-1.74987e-06
-9.34687e-08
-1.70147e-06
-9.55632e-08
-1.65207e-06
-9.75837e-08
-1.60171e-06
-9.95305e-08
-1.55043e-06
-1.01404e-07
-1.49826e-06
-1.03206e-07
-1.44524e-06
-1.04938e-07
-1.3914e-06
-1.06602e-07
-1.33677e-06
-1.08201e-07
-1.28139e-06
-1.09739e-07
-1.22529e-06
-1.11218e-07
-1.16848e-06
-1.12643e-07
-1.11101e-06
-1.14018e-07
-1.05288e-06
-1.15348e-07
-9.9412e-07
-1.16637e-07
-9.34749e-07
-1.1789e-07
-8.74781e-07
-1.19113e-07
-8.14228e-07
-1.2031e-07
-7.531e-07
-1.21485e-07
-6.91405e-07
-1.22644e-07
-6.29149e-07
-1.23789e-07
-5.66337e-07
-1.24923e-07
-5.02972e-07
-1.2605e-07
-4.39055e-07
-1.2717e-07
-3.74589e-07
-1.28284e-07
-3.09575e-07
-1.29391e-07
-2.44015e-07
-1.30488e-07
-1.77916e-07
-1.31571e-07
-1.11282e-07
-1.32634e-07
-4.4121e-08
-1.3367e-07
2.35554e-08
-1.34674e-07
9.17371e-08
-1.35644e-07
1.60437e-07
-1.36578e-07
2.29651e-07
-1.37478e-07
2.99349e-07
-1.38356e-07
3.69514e-07
-1.39206e-07
4.40118e-07
-1.40009e-07
5.11118e-07
-1.40736e-07
5.82463e-07
-1.41355e-07
6.54082e-07
-1.41833e-07
7.2589e-07
-1.42135e-07
7.97781e-07
-1.42222e-07
8.69626e-07
-1.42046e-07
9.41263e-07
-1.41543e-07
1.01249e-06
-1.40628e-07
1.08303e-06
-1.39171e-07
1.15252e-06
-1.36969e-07
1.22041e-06
-1.3366e-07
1.28586e-06
-1.2858e-07
1.34742e-06
-1.20131e-07
1.40267e-06
-1.05329e-07
1.4483e-06
-7.43365e-08
-6.89005e-09
1.48263e-06
1.51615e-08
-4.54661e-08
2.27296e-08
-4.26648e-08
2.42064e-08
-3.10153e-08
2.11604e-08
-1.84921e-08
1.45159e-08
-5.85759e-09
4.81807e-09
6.68513e-09
-7.62329e-09
1.89767e-08
-2.26636e-08
3.08589e-08
-4.02833e-08
4.21628e-08
-6.05544e-08
5.27238e-08
-8.36022e-08
6.2423e-08
-1.09569e-07
7.12272e-08
-1.38568e-07
7.92082e-08
-1.70658e-07
8.65322e-08
-2.05834e-07
9.3418e-08
-2.44032e-07
1.00081e-07
-2.85132e-07
1.06685e-07
-3.28944e-07
1.13308e-07
-3.75188e-07
1.19934e-07
-4.2348e-07
1.26442e-07
-4.73309e-07
1.3262e-07
-5.23928e-07
1.382e-07
-5.74809e-07
1.42929e-07
-6.25834e-07
1.46553e-07
-6.76384e-07
1.49142e-07
-7.26084e-07
1.50674e-07
-7.74511e-07
1.51235e-07
-8.21315e-07
1.50919e-07
-8.65711e-07
1.49854e-07
-9.08152e-07
1.47941e-07
-9.49637e-07
1.45151e-07
-9.90467e-07
1.41823e-07
-1.03079e-06
1.38303e-07
-1.06996e-06
1.34901e-07
-1.10805e-06
1.31655e-07
-1.14523e-06
1.28586e-07
-1.18162e-06
1.25707e-07
-1.21734e-06
1.2303e-07
-1.25248e-06
1.20563e-07
-1.28711e-06
1.18306e-07
-1.32128e-06
1.16255e-07
-1.35504e-06
1.144e-07
-1.38844e-06
1.12729e-07
-1.4215e-06
1.11226e-07
-1.45425e-06
1.09873e-07
-1.48671e-06
1.08652e-07
-1.51891e-06
1.07544e-07
-1.55083e-06
1.06528e-07
-1.58251e-06
1.05586e-07
-1.61393e-06
1.04701e-07
-1.6451e-06
1.03854e-07
-1.67602e-06
1.03029e-07
-1.70667e-06
1.02211e-07
-1.73705e-06
1.01387e-07
-1.76715e-06
1.00542e-07
-1.79695e-06
9.96661e-08
-1.82643e-06
9.87473e-08
-1.85558e-06
9.77764e-08
-1.88437e-06
9.67447e-08
-1.91278e-06
9.56448e-08
-1.94079e-06
9.44698e-08
-1.96837e-06
9.32141e-08
-1.99549e-06
9.18727e-08
-2.02213e-06
9.04413e-08
-2.04826e-06
8.89164e-08
-2.07385e-06
8.72951e-08
-2.09887e-06
8.55751e-08
-2.12329e-06
8.37547e-08
-2.14708e-06
8.18325e-08
-2.1702e-06
7.98077e-08
-2.19264e-06
7.76799e-08
-2.21436e-06
7.54488e-08
-2.23532e-06
7.31146e-08
-2.2555e-06
7.06779e-08
-2.27487e-06
6.8139e-08
-2.2934e-06
6.5499e-08
-2.31105e-06
6.27587e-08
-2.32779e-06
5.99191e-08
-2.34361e-06
5.69816e-08
-2.35846e-06
5.39471e-08
-2.37232e-06
5.0817e-08
-2.38517e-06
4.75923e-08
-2.39697e-06
4.42742e-08
-2.40771e-06
4.08639e-08
-2.41734e-06
3.73626e-08
-2.42586e-06
3.37714e-08
-2.43324e-06
3.00919e-08
-2.43946e-06
2.63259e-08
-2.4445e-06
2.24757e-08
-2.44835e-06
1.85452e-08
-2.451e-06
1.45392e-08
-2.45244e-06
1.04652e-08
-2.45268e-06
6.33352e-09
-2.45171e-06
2.16016e-09
-2.44947e-06
-2.03035e-09
-2.446e-06
-6.26682e-09
-2.44117e-06
-1.05272e-08
-2.43495e-06
-1.48394e-08
-2.42733e-06
-1.92038e-08
-2.41827e-06
-2.36159e-08
-2.40777e-06
-2.807e-08
-2.3958e-06
-3.256e-08
-2.38236e-06
-3.70796e-08
-2.36745e-06
-4.16223e-08
-2.35105e-06
-4.61815e-08
-2.33317e-06
-5.07504e-08
-2.31379e-06
-5.53223e-08
-2.29293e-06
-5.98904e-08
-2.27059e-06
-6.44478e-08
-2.24677e-06
-6.89877e-08
-2.22148e-06
-7.35033e-08
-2.19473e-06
-7.79877e-08
-2.16654e-06
-8.24342e-08
-2.13691e-06
-8.68361e-08
-2.10587e-06
-9.11867e-08
-2.07343e-06
-9.54796e-08
-2.03962e-06
-9.97085e-08
-2.00445e-06
-1.03867e-07
-1.96796e-06
-1.07951e-07
-1.93017e-06
-1.11953e-07
-1.8911e-06
-1.15869e-07
-1.8508e-06
-1.19694e-07
-1.80928e-06
-1.23423e-07
-1.76659e-06
-1.27054e-07
-1.72275e-06
-1.30582e-07
-1.67781e-06
-1.34004e-07
-1.63179e-06
-1.37318e-07
-1.58474e-06
-1.40523e-07
-1.53668e-06
-1.43617e-07
-1.48767e-06
-1.466e-07
-1.43772e-06
-1.49473e-07
-1.38689e-06
-1.52236e-07
-1.33521e-06
-1.54892e-07
-1.2827e-06
-1.57443e-07
-1.22941e-06
-1.59893e-07
-1.17537e-06
-1.62245e-07
-1.1206e-06
-1.64505e-07
-1.06514e-06
-1.66678e-07
-1.00901e-06
-1.68769e-07
-9.52247e-07
-1.70785e-07
-8.9486e-07
-1.72734e-07
-8.36874e-07
-1.74623e-07
-7.78306e-07
-1.76458e-07
-7.19171e-07
-1.78248e-07
-6.59481e-07
-1.8e-07
-5.99245e-07
-1.81721e-07
-5.38472e-07
-1.83417e-07
-4.77165e-07
-1.85096e-07
-4.15328e-07
-1.8676e-07
-3.52963e-07
-1.88415e-07
-2.90069e-07
-1.90064e-07
-2.26647e-07
-1.91707e-07
-1.62695e-07
-1.93343e-07
-9.8213e-08
-1.9497e-07
-3.31995e-08
-1.96584e-07
3.23449e-08
-1.98178e-07
9.84207e-08
-1.99746e-07
1.65029e-07
-2.01282e-07
2.32177e-07
-2.02792e-07
2.99879e-07
-2.0428e-07
3.68144e-07
-2.05743e-07
4.36947e-07
-2.0716e-07
5.06254e-07
-2.08513e-07
5.76027e-07
-2.09782e-07
6.46221e-07
-2.1093e-07
7.16783e-07
-2.11917e-07
7.87648e-07
-2.12698e-07
8.58734e-07
-2.13221e-07
9.2994e-07
-2.13428e-07
1.00114e-06
-2.13248e-07
1.07218e-06
-2.12586e-07
1.14287e-06
-2.11314e-07
1.21295e-06
-2.09247e-07
1.28207e-06
-2.06091e-07
1.34976e-06
-2.01346e-07
1.4153e-06
-1.94124e-07
1.47773e-06
-1.82557e-07
1.53566e-06
-1.63264e-07
1.58892e-06
-1.27592e-07
-6.00014e-08
1.64203e-06
5.37236e-09
-5.08385e-08
2.79138e-09
-4.00839e-08
-3.6189e-09
-2.4605e-08
-1.28782e-08
-9.23273e-09
-2.45884e-08
5.85261e-09
-3.85362e-08
2.06329e-08
-5.46317e-08
3.50721e-08
-7.28695e-08
4.90967e-08
-9.33125e-08
6.26058e-08
-1.16081e-07
7.54926e-08
-1.41331e-07
8.76729e-08
-1.69215e-07
9.91114e-08
-1.99844e-07
1.09837e-07
-2.33245e-07
1.19934e-07
-2.69343e-07
1.29516e-07
-3.07948e-07
1.38685e-07
-3.48756e-07
1.47494e-07
-3.91367e-07
1.55919e-07
-4.35292e-07
1.63859e-07
-4.79991e-07
1.71141e-07
-5.24922e-07
1.77551e-07
-5.696e-07
1.82879e-07
-6.13642e-07
1.86971e-07
-6.56849e-07
1.89761e-07
-6.98991e-07
1.91285e-07
-7.39939e-07
1.91621e-07
-7.79604e-07
1.909e-07
-8.17957e-07
1.89272e-07
-8.54989e-07
1.86886e-07
-8.90896e-07
1.83848e-07
-9.2603e-07
1.80285e-07
-9.6061e-07
1.76403e-07
-9.9473e-07
1.72423e-07
-1.02835e-06
1.68517e-07
-1.06146e-06
1.64771e-07
-1.09411e-06
1.61231e-07
-1.12632e-06
1.57921e-07
-1.15814e-06
1.54854e-07
-1.18962e-06
1.52034e-07
-1.22077e-06
1.49456e-07
-1.25162e-06
1.47113e-07
-1.28221e-06
1.44989e-07
-1.31255e-06
1.43068e-07
-1.34266e-06
1.41332e-07
-1.37254e-06
1.39758e-07
-1.40222e-06
1.38326e-07
-1.43169e-06
1.37013e-07
-1.46095e-06
1.35796e-07
-1.49002e-06
1.34655e-07
-1.51889e-06
1.33569e-07
-1.54756e-06
1.32517e-07
-1.57601e-06
1.31481e-07
-1.60424e-06
1.30443e-07
-1.63224e-06
1.29386e-07
-1.65999e-06
1.28296e-07
-1.68748e-06
1.27158e-07
-1.7147e-06
1.2596e-07
-1.74161e-06
1.24691e-07
-1.7682e-06
1.23339e-07
-1.79446e-06
1.21898e-07
-1.82034e-06
1.20357e-07
-1.84584e-06
1.1871e-07
-1.87092e-06
1.16952e-07
-1.89556e-06
1.15077e-07
-1.91972e-06
1.13081e-07
-1.94338e-06
1.10959e-07
-1.96652e-06
1.08711e-07
-1.9891e-06
1.06332e-07
-2.01109e-06
1.03822e-07
-2.03246e-06
1.01179e-07
-2.05318e-06
9.84037e-08
-2.07323e-06
9.54946e-08
-2.09256e-06
9.24523e-08
-2.11116e-06
8.92773e-08
-2.129e-06
8.59703e-08
-2.14603e-06
8.25325e-08
-2.16224e-06
7.8965e-08
-2.17759e-06
7.52692e-08
-2.19205e-06
7.14468e-08
-2.2056e-06
6.74992e-08
-2.21821e-06
6.34285e-08
-2.22986e-06
5.92362e-08
-2.24051e-06
5.49244e-08
-2.25014e-06
5.04951e-08
-2.25873e-06
4.59502e-08
-2.26625e-06
4.12924e-08
-2.27268e-06
3.65241e-08
-2.278e-06
3.16486e-08
-2.2822e-06
2.66697e-08
-2.28524e-06
2.15925e-08
-2.28713e-06
1.64228e-08
-2.28783e-06
1.1168e-08
-2.28733e-06
5.83686e-09
-2.28561e-06
4.38077e-10
-2.28262e-06
-5.01955e-09
-2.27835e-06
-1.05422e-08
-2.27274e-06
-1.61318e-08
-2.26579e-06
-2.17956e-08
-2.25746e-06
-2.75297e-08
-2.24775e-06
-3.33282e-08
-2.23664e-06
-3.91831e-08
-2.22411e-06
-4.5086e-08
-2.21016e-06
-5.10284e-08
-2.19478e-06
-5.70014e-08
-2.17797e-06
-6.29963e-08
-2.15971e-06
-6.90041e-08
-2.14002e-06
-7.50159e-08
-2.11889e-06
-8.10226e-08
-2.09632e-06
-8.70153e-08
-2.07232e-06
-9.29849e-08
-2.0469e-06
-9.89224e-08
-2.02007e-06
-1.04819e-07
-1.99184e-06
-1.10665e-07
-1.96222e-06
-1.16453e-07
-1.93124e-06
-1.22173e-07
-1.8989e-06
-1.27817e-07
-1.86523e-06
-1.33376e-07
-1.83026e-06